/*--------------------------------*- C++ -*----------------------------------*\
| =========                 |                                                 |
| \\      /  F ield         | OpenFOAM: The Open Source CFD Toolbox           |
|  \\    /   O peration     | Version:  2.4.0                                 |
|   \\  /    A nd           | Web:      www.OpenFOAM.org                      |
|    \\/     M anipulation  |                                                 |
\*---------------------------------------------------------------------------*/
FoamFile
{
    version     2.0;
    format      ascii;
    class       volScalarField;
    location    "0.065";
    object      p_rgh;
}
// * * * * * * * * * * * * * * * * * * * * * * * * * * * * * * * * * * * * * //

dimensions      [1 -1 -2 0 0 0 0];

internalField   nonuniform List<scalar> 
57600
(
100.494
101.217
103.076
105.815
109.074
112.272
114.881
116.673
117.593
117.515
116.355
114.242
111.512
108.575
105.801
103.462
101.708
100.552
99.91
99.651
99.646
99.7876
99.9957
100.216
100.414
100.573
100.687
100.759
100.794
100.799
100.489
101.57
103.667
106.579
109.884
112.981
115.398
116.981
117.67
117.329
115.914
113.609
110.784
107.847
105.149
102.938
101.33
100.311
99.7791
99.6
99.6474
99.8199
100.043
100.268
100.464
100.617
100.724
100.788
100.816
100.816
100.479
101.56
103.656
106.571
109.883
112.989
115.41
116.991
117.68
117.339
115.919
113.603
110.761
107.805
105.087
102.857
101.234
100.207
99.6714
99.4934
99.5458
99.7261
99.959
100.193
100.398
100.559
100.67
100.737
100.765
100.765
100.463
101.545
103.639
106.557
109.882
113.003
115.43
117.01
117.701
117.361
115.934
113.6
110.731
107.745
104.996
102.737
101.089
100.044
99.4993
99.3174
99.3714
99.5583
99.801
100.046
100.261
100.429
100.546
100.616
100.646
100.646
100.441
101.523
103.614
106.537
109.878
113.021
115.459
117.04
117.734
117.395
115.96
113.601
110.693
107.667
104.874
102.571
100.887
99.8163
99.2538
99.0624
99.1149
99.3086
99.564
99.8243
100.054
100.235
100.362
100.437
100.47
100.47
100.413
101.495
103.581
106.51
109.872
113.044
115.496
117.079
117.778
117.443
115.997
113.604
110.648
107.568
104.718
102.358
100.625
99.5164
98.9282
98.7207
98.7683
98.969
99.241
99.5225
99.7738
99.9739
100.116
100.201
100.238
100.239
100.379
101.46
103.542
106.476
109.864
113.071
115.543
117.128
117.834
117.502
116.044
113.611
110.594
107.447
104.526
102.092
100.295
99.1383
98.5155
98.2846
98.3227
98.5313
98.8248
99.1347
99.4151
99.6416
99.8047
99.9045
99.9482
99.9489
100.339
101.42
103.495
106.436
109.853
113.104
115.598
117.186
117.9
117.574
116.102
113.622
110.53
107.303
104.294
101.769
99.8917
98.6737
98.0069
97.744
97.7671
97.9847
98.307
98.6542
98.9722
99.2322
99.4229
99.5421
99.5945
99.5935
100.294
101.373
103.44
106.389
109.84
113.142
115.663
117.253
117.976
117.657
116.172
113.636
110.454
107.133
104.019
101.382
99.4049
98.1115
97.391
97.0867
97.0872
97.3159
97.6771
98.0736
98.4388
98.7388
98.9616
99.1037
99.1631
99.146
100.242
101.32
103.378
106.334
109.825
113.185
115.736
117.328
118.062
117.75
116.252
113.654
110.365
106.935
103.696
100.922
98.8225
97.4371
96.6535
96.2971
96.2644
96.5077
96.9234
97.386
97.8105
98.1565
98.4119
98.5745
98.636
98.5869
100.184
101.261
103.308
106.272
109.806
113.233
115.819
117.409
118.156
117.854
116.344
113.677
110.262
106.706
103.321
100.378
98.1289
96.631
95.776
95.3574
95.2746
95.5382
96.0328
96.5862
97.087
97.4873
97.7743
97.9456
97.9838
97.9086
100.12
101.195
103.23
106.202
109.784
113.287
115.912
117.498
118.257
117.966
116.449
113.706
110.142
106.444
102.89
99.7387
97.3049
95.6666
94.7334
94.2467
94.0857
94.3801
94.9921
95.6712
96.2736
96.7452
97.0746
97.2635
97.3065
97.212
100.05
101.124
103.144
106.124
109.757
113.347
116.014
117.591
118.364
118.086
116.565
113.743
110.003
106.145
102.397
98.9876
96.3264
94.5057
93.4895
92.9429
92.6522
92.9988
93.7891
94.641
95.3785
95.9506
96.3543
96.6058
96.7339
96.7868
99.974
101.046
103.05
106.037
109.726
113.413
116.126
117.689
118.475
118.211
116.695
113.791
109.841
105.806
101.839
98.1106
95.1656
93.0932
91.9869
91.4248
90.9041
91.3539
92.416
93.4959
94.4071
95.1171
95.6363
95.9956
96.2425
96.4149
99.8912
100.963
102.948
105.941
109.69
113.485
116.248
117.789
118.588
118.339
116.839
113.855
109.654
105.423
101.205
97.0946
93.7876
91.3362
90.1327
89.6693
88.7118
89.4085
90.8746
92.2336
93.3555
94.2417
94.9126
95.4027
95.7603
96.0338
99.8018
100.873
102.838
105.835
109.649
113.564
116.382
117.89
118.701
118.467
116.997
113.94
109.438
104.99
100.488
95.8925
92.1666
89.0358
87.7998
87.5754
85.7707
87.1612
89.1746
90.838
92.2049
93.3064
94.16
94.7891
95.2234
95.4706
99.7057
100.777
102.718
105.719
109.601
113.651
116.528
117.992
118.809
118.589
117.17
114.055
109.19
104.499
99.6006
94.4506
90.0044
86.0624
84.8293
84.671
81.7239
84.6614
87.2824
89.2546
90.9207
92.2868
93.3581
94.1425
94.6566
94.8964
99.6026
100.676
102.591
105.592
109.547
113.745
116.686
118.092
118.91
118.701
117.358
114.209
108.912
103.938
98.5676
92.9357
86.996
82.2627
81.0098
80.2054
77.107
81.654
84.9282
87.3629
89.4682
91.1705
92.498
93.4679
94.0744
94.3318
99.492
100.568
102.454
105.453
109.485
113.847
116.859
118.188
118.995
118.795
117.563
114.415
108.612
103.267
97.4737
91.2778
83.2897
77.2002
76.7842
75.0883
72.8116
76.9489
81.4588
85.0055
87.8497
89.9846
91.5885
92.7899
93.5285
93.82
99.3738
100.455
102.31
105.301
109.416
113.959
117.046
118.282
119.058
118.86
117.788
114.687
108.314
102.347
96.2537
88.611
78.6738
70.6515
71.9134
72.1248
68.4504
70.3071
76.4416
82.1753
86.14
88.8066
90.7084
92.1701
93.1179
93.4807
99.2472
100.337
102.157
105.135
109.34
114.081
117.251
118.372
119.085
118.878
118.036
115.035
108.075
100.74
94.625
85.4528
71.7923
61.4207
65.4181
69.125
62.5837
61.2342
70.8539
79.3878
84.4741
87.7066
89.9886
91.7208
92.9211
93.3939
99.1117
100.212
101.996
104.952
109.257
114.217
117.474
118.461
119.056
118.819
118.317
115.472
108
97.1973
93.3476
82.9732
62.5454
57.2649
55.8621
36.8552
21.095
42.8638
65.5229
77.4711
82.9347
86.5389
89.5085
91.7979
93.2531
93.8238
98.9664
100.082
101.827
104.749
109.171
114.368
117.716
118.554
118.941
118.634
118.653
116.001
108.22
90.5422
91.2748
81.0251
67.0857
0.180327
-0.00161074
-0.0172121
0.0285587
0.0496178
-0.525053
87.3821
82.0453
84.9642
89.0939
92.5055
94.5211
95.2833
98.8102
99.9471
101.653
104.522
109.087
114.538
117.978
118.658
118.694
118.235
119.079
116.622
108.514
85.1941
88.1417
81.8397
-0.12012
0.0809563
-0.0461643
-0.0326864
-0.00197442
0.0149203
0.00387554
0.0123115
0.723843
70.0373
87.4399
93.4382
97.046
98.052
98.6416
99.8065
101.475
104.264
109.011
114.732
118.258
118.787
118.24
117.465
119.654
117.307
106.587
81.1332
84.672
22.3676
-0.0404816
0.0242295
-0.0544045
-0.0474008
-0.0301011
-0.0138893
-0.00424136
0.00163706
0.00197748
0.00818945
0.0224219
0.0790254
3.82346
10.641
98.4583
99.6606
101.295
103.962
108.953
114.95
118.554
118.961
117.463
116.02
120.452
118.173
103.957
84.532
84.5259
-0.0924393
-0.013223
-0.00458342
-0.0488171
-0.052328
-0.0463701
-0.0373195
-0.0238772
-0.00680089
0.0030732
0.0070945
0.00536128
0.00129373
-0.00347097
-0.00480046
98.2589
99.5096
101.121
103.596
108.921
115.187
118.861
119.211
116.177
113.256
121.465
119.51
101.953
89.7274
0.176336
-0.0414882
-0.0101524
-0.0162635
-0.0443388
-0.0545722
-0.0575416
-0.0549145
-0.0417936
-0.0167923
0.00274867
0.0102323
0.0102421
0.00750434
0.00471097
0.00296774
98.041
99.3535
100.963
103.134
108.914
115.436
119.183
119.572
114.079
108.673
122.269
120.51
102.92
18.1927
0.0160073
-0.0150466
-0.0108529
-0.0208464
-0.0421811
-0.0563387
-0.0645483
-0.0656143
-0.0533219
-0.0259029
-0.00128093
0.00965464
0.011845
0.0107516
0.00909337
0.00775501
97.8059
99.1927
100.839
102.529
108.918
115.684
119.569
120.08
110.677
104.952
119.994
121.121
108.176
-0.338057
-0.0261636
-0.00374602
-0.0108284
-0.0221543
-0.0405645
-0.0556023
-0.0684009
-0.0676624
-0.0565796
-0.0310594
-0.0059308
0.00723133
0.010953
0.011296
0.0104984
0.00940326
97.5999
99.028
100.787
101.724
108.883
115.919
120.12
120.726
106.127
99.5927
114.017
120.84
114.665
-0.393205
-0.0279138
0.00124557
-0.0102288
-0.0224565
-0.0384054
-0.0538626
-0.065282
-0.060881
-0.0536354
-0.0316261
-0.00854512
0.00456463
0.00932491
0.0105488
0.010338
0.0095319
100.784
100.748
100.685
100.59
100.454
100.273
100.042
99.7649
99.4565
99.1499
98.9026
98.8015
98.9636
99.5271
100.624
102.331
104.614
107.301
110.116
112.719
114.749
115.911
116.057
115.156
113.211
110.353
107.097
104.145
101.921
100.534
100.794
100.751
100.68
100.573
100.425
100.228
99.9803
99.6872
99.3674
99.0603
98.8316
98.7774
99.0226
99.7083
100.959
102.828
105.244
108.002
110.803
113.299
115.134
116.045
115.927
114.76
112.557
109.528
106.285
103.494
101.484
100.335
100.743
100.699
100.627
100.52
100.37
100.171
99.919
99.6181
99.2879
98.9698
98.7317
98.6717
98.9159
99.6065
100.869
102.755
105.191
107.967
110.786
113.296
115.139
116.056
115.941
114.777
112.569
109.528
106.276
103.484
101.476
100.328
100.624
100.58
100.507
100.401
100.252
100.052
99.7948
99.4847
99.1422
98.8116
98.5645
98.5013
98.7491
99.4509
100.733
102.648
105.116
107.921
110.765
113.297
115.154
116.078
115.969
114.806
112.588
109.525
106.259
103.466
101.462
100.317
100.448
100.403
100.331
100.226
100.078
99.8752
99.6093
99.2844
98.9239
98.577
98.3204
98.2568
98.5136
99.2343
100.547
102.502
105.015
107.86
110.741
113.304
115.18
116.113
116.009
114.847
112.614
109.521
106.235
103.441
101.443
100.301
100.214
100.168
100.098
99.9971
99.8508
99.642
99.3606
99.0124
98.6261
98.258
97.9914
97.9313
98.2035
98.9516
100.306
102.316
104.888
107.786
110.713
113.317
115.216
116.16
116.063
114.902
112.648
109.515
106.204
103.409
101.419
100.281
99.9216
99.8746
99.81
99.7182
99.5741
99.3537
99.0467
98.6636
98.241
97.8454
97.5688
97.5172
97.8121
98.5969
100.005
102.086
104.734
107.695
110.68
113.335
115.262
116.218
116.13
114.968
112.689
109.506
106.165
103.369
101.388
100.256
99.5609
99.5164
99.4719
99.3997
99.2546
99.0109
98.6636
98.2306
97.7583
97.3274
97.0414
97.005
97.331
98.1624
99.6377
101.807
104.55
107.588
110.643
113.359
115.319
116.288
116.21
115.048
112.737
109.495
106.118
103.322
101.353
100.227
99.0915
99.072
99.1159
99.0622
98.8976
98.6108
98.2043
97.7028
97.1643
96.6883
96.3949
96.3829
96.7494
97.6384
99.1966
101.476
104.335
107.463
110.601
113.39
115.384
116.369
116.303
115.141
112.794
109.48
106.063
103.267
101.312
100.194
98.5894
98.619
98.7592
98.6958
98.4918
98.1421
97.657
97.0668
96.4413
95.9072
95.6115
95.6368
96.0537
97.0121
98.6712
101.085
104.086
107.317
110.553
113.427
115.459
116.46
116.408
115.247
112.858
109.462
105.999
103.204
101.266
100.156
97.9563
98.1989
98.3971
98.2516
98.009
97.5858
97.007
96.307
95.568
94.9574
94.669
94.7494
95.226
96.2668
98.0488
100.627
103.802
107.149
110.498
113.472
115.543
116.559
116.525
115.366
112.931
109.439
105.926
103.134
101.215
100.115
97.2599
97.639
97.8151
97.7358
97.4265
96.9219
96.2392
95.4086
94.521
93.8037
93.5404
93.7002
94.2425
95.381
97.3141
100.092
103.482
106.955
110.437
113.526
115.635
116.667
116.654
115.5
113.013
109.411
105.843
103.056
101.159
100.07
96.8944
97.1701
97.2287
97.0896
96.7209
96.1342
95.342
94.3613
93.2771
92.398
92.1923
92.4642
93.0704
94.3259
96.449
99.4702
103.127
106.731
110.369
113.59
115.733
116.781
116.794
115.647
113.105
109.378
105.75
102.97
101.098
100.021
96.3959
96.5195
96.4745
96.3312
95.8854
95.2124
94.3084
93.1625
91.8211
90.6727
90.5794
91.0105
91.6612
93.0641
95.4344
98.7437
102.737
106.471
110.296
113.667
115.835
116.899
116.945
115.808
113.206
109.337
105.647
102.877
101.031
99.9683
96.3041
101.651
95.8711
95.4468
94.9136
94.1499
93.1316
91.8172
90.1608
88.5264
88.6165
89.3008
89.9359
91.5498
94.2521
97.8853
102.316
106.168
110.22
113.76
115.94
117.018
117.106
115.984
113.318
109.287
105.532
102.775
100.961
99.9127
95.4631
95.1654
94.7752
94.4337
93.8205
92.9439
91.7947
90.3202
88.3445
85.7981
86.0264
87.2761
87.744
89.7392
92.8513
96.8348
101.875
105.808
110.144
113.874
116.041
117.137
117.278
116.174
113.443
109.228
105.405
102.666
100.885
99.8542
94.8299
94.5228
94.0412
93.4462
92.6485
91.5908
90.2529
88.5951
86.3773
82.4931
82.2545
84.6783
84.9035
87.4507
91.0645
95.5605
101.431
105.372
110.077
114.012
116.129
117.25
117.459
116.378
113.58
109.157
105.266
102.549
100.805
99.7932
94.2452
93.8618
93.2492
92.4387
91.3981
90.0847
88.4311
86.3838
83.628
78.6182
77.5512
80.573
81.5287
84.5119
89.0482
94.241
100.996
104.828
110.031
114.182
116.202
117.353
117.651
116.597
113.733
109.072
105.113
102.423
100.721
99.73
93.6979
93.2305
92.4492
91.3801
90.0696
88.4493
86.2795
83.2938
78.7434
73.8547
73.0752
75.8686
77.4842
80.6287
86.7961
92.6723
100.561
104.121
110.022
114.391
116.239
117.439
117.853
116.829
113.903
108.971
104.947
102.291
100.633
99.6652
93.3138
92.7055
91.6647
90.2775
88.671
86.7422
83.8947
79.3092
72.1789
67.1336
68.8307
72.9348
72.6211
76.5678
83.8346
90.8039
100
103.16
110.075
114.646
116.217
117.498
118.07
117.074
114.093
108.851
104.767
102.151
100.541
99.5991
93.1904
92.3655
90.9589
89.1656
87.1761
84.9445
81.6947
75.4988
65.438
60.4758
63.2728
69.5071
65.0972
69.0918
80.4285
88.6143
99.0455
101.908
110.214
114.957
116.105
117.517
118.305
117.332
114.306
108.709
104.572
102.004
100.445
99.5326
93.5515
92.4719
90.5931
88.0285
85.2548
82.9179
80.43
73.2479
58.2913
26.5475
20.8047
61.4435
64.2155
62.7157
75.5361
86.1036
95.209
100.626
110.463
115.331
115.849
117.479
118.566
117.601
114.548
108.545
104.362
101.852
100.345
99.4663
94.9395
93.4886
90.7707
86.6841
82.0439
80.9165
86.5666
25.3423
0.0426264
0.0462597
0.0150845
-0.00726978
-0.0267776
38.3136
75.139
83.3756
89.2541
100.49
110.841
115.775
115.366
117.355
118.865
117.882
114.825
108.356
104.137
101.695
100.242
99.401
97.8087
95.5639
91.7669
84.1091
58.6151
3.43951
-0.00148503
-0.0538862
0.0246135
0.0218116
-0.013149
-0.0453681
-0.0531209
0.0200162
73.608
86.0871
81.4769
102.649
111.362
116.294
114.503
117.101
119.222
118.18
115.146
108.146
103.896
101.535
100.135
99.3377
8.39539
1.10778
0.036671
0.0197507
0.00612558
-0.00646235
-0.0180014
-0.0219221
-0.00342794
-0.0070747
-0.0382925
-0.0725513
-0.0903718
-0.0246422
0.114792
89.0762
75.7797
103.098
111.919
116.883
112.961
116.648
119.665
118.502
115.521
107.917
103.637
101.375
100.026
99.2773
-0.00566271
-0.00372396
-0.00134952
0.00266101
0.00116797
-0.00818217
-0.0211479
-0.0270863
-0.0211907
-0.0224313
-0.0462156
-0.0763036
-0.0933988
-0.0402875
0.00240292
7.64624
78.0946
100.015
111.882
117.535
110.12
115.875
120.236
118.862
115.966
107.676
103.356
101.217
99.9129
99.2208
0.002263
0.00235021
0.00263963
0.00146484
-0.0041593
-0.0159543
-0.0295441
-0.0363166
-0.0330817
-0.0319089
-0.0463558
-0.0685998
-0.0796329
-0.041467
0.00617858
0.13457
78.6861
93.6749
111.366
118.219
105.015
114.52
120.987
119.266
116.502
107.432
103.045
101.066
99.7974
99.1689
0.00669874
0.00550226
0.0033291
-0.00161821
-0.0111256
-0.0248946
-0.0376774
-0.044399
-0.0412493
-0.0381129
-0.0459231
-0.0599375
-0.0650654
-0.0376497
0.00339754
0.126305
-1.61738
89.1185
112.27
118.868
100.431
112.107
121.975
119.681
117.154
107.198
102.694
100.929
99.6792
99.122
0.00811928
0.00597479
0.00184154
-0.00563057
-0.0173489
-0.03135
-0.0426894
-0.0500882
-0.0463538
-0.0418193
-0.0451907
-0.053195
-0.0541891
-0.0338476
-0.00196259
0.0206939
-0.192999
100.059
112.83
119.15
99.3642
109.363
123.159
119.997
117.957
106.988
102.289
100.817
99.5583
99.0798
0.00810555
0.00537359
0.00013017
-0.00871481
-0.0206895
-0.0342468
-0.0427784
-0.0510973
-0.0479324
-0.0429009
-0.0438603
-0.0477099
-0.0465017
-0.0312825
-0.00765147
-0.00254737
-0.125077
104.907
113.095
118.224
102.385
107.231
123.866
119.962
118.958
106.788
101.822
100.745
99.4345
99.0438
0.0171754
98.8899
100.846
100.892
108.827
116.092
120.788
121.238
103.478
93.4929
118.234
119.617
116.381
-0.489265
-0.0162368
0.00430778
-0.00966859
-0.0219205
-0.0361733
-0.0501123
-0.0639537
-0.0123045
-0.0577416
-0.0291203
-0.0084601
0.00348153
0.00863849
0.0100964
0.0102686
0.00967913
0.00575001
0.0475207
47.3193
100.294
108.83
116.178
121.344
121.43
102.063
90.6613
122.672
118.297
102.589
-0.797355
-0.0118365
0.00600186
-0.0094805
-0.0215661
-0.0347849
-0.0470844
-0.0597541
-0.0218043
-0.0551669
-0.0263686
-0.00771578
0.00342933
0.00861118
0.00998012
0.0105031
0.0101298
0.00626829
0.0474753
1.34139
14.3457
108.867
116.249
121.989
121.447
99.8602
88.4293
119.339
114.999
54.2615
-0.69954
0.00112727
0.00764869
-0.0091514
-0.0209939
-0.0328636
-0.0433716
-0.053252
-0.0470199
-0.0400994
-0.0221578
-0.00603322
0.00396399
0.00950115
0.00978206
0.0110852
0.0108845
0.00670376
0.0472584
0.11787
0.306649
104.976
116.272
123.137
121.39
97.1943
17.4764
114.956
109.322
26.4466
-0.589725
0.0226171
0.00914516
-0.00875786
-0.0202672
-0.0305374
-0.0375707
-0.0459099
-0.0407903
-0.0312382
-0.0172095
-0.00359778
0.00496217
0.0127172
0.0116745
0.012011
0.0118685
0.00712392
0.046856
0.0362246
-0.187085
45.8158
116.33
123.991
121.545
95.3166
0.864945
118.71
103.446
-0.149854
-0.520776
0.0303791
0.0101761
-0.00846051
-0.0194854
-0.0282174
-0.0345016
-0.0382522
-0.0336444
-0.0239363
-0.0119471
-0.00060397
0.00674254
0.0103047
0.0124331
0.0128854
0.012522
0.00751096
0.0462185
0.189291
-0.155015
0.0785204
117.277
124.883
123.409
-2.25412
0.388896
1.00229
1.57063
0.0766001
-0.540164
0.035899
0.0102479
-0.00838514
-0.0187492
-0.0259715
-0.0305802
-0.0320752
-0.0266303
-0.0173114
-0.00690088
0.00228797
0.00906186
0.0135469
0.0133971
0.0140553
0.0138276
0.00784253
0.0453009
0.149284
-0.122912
0.0617491
101.733
124.187
125
-0.65728
0.191267
0.486117
0.306995
0.0352732
-0.638203
0.0292692
0.00884629
-0.00863624
-0.0181543
-0.0238839
-0.0265534
-0.0257359
-0.0202307
-0.0108013
-0.00133138
0.00504194
0.0119102
0.0135084
0.0148767
0.0158885
0.0156996
0.00809052
0.0440584
0.116642
-0.0527709
0.0272722
9.94963
125.588
15.3954
-0.532102
0.132292
0.227197
0.13272
-0.0403258
-0.671731
0.0311884
0.00586858
-0.00932851
-0.017708
-0.0219751
-0.0228777
-0.0204043
-0.0144651
-0.00659001
0.0010618
0.00760573
0.0122635
0.0151341
0.0164552
0.0189343
0.0184218
0.00824356
0.0424583
0.0922882
-0.0943172
0.00518205
-0.0829209
120.381
0.0813974
-0.260631
0.0671675
0.109364
0.048062
-0.129299
-0.557714
0.00839545
0.00123343
-0.0105687
-0.0175212
-0.0203821
-0.0198015
-0.0161615
-0.00999142
-0.0027383
0.00410634
0.00972449
0.0138053
0.0163896
0.0178186
0.0184444
0.0186587
0.0082997
0.0404867
0.0718165
-0.0982397
-0.00714295
-0.0620357
0.0525705
0.180325
-0.439387
-0.0174743
0.0439728
0.0167401
-0.124554
-0.329446
-0.0309929
-0.00473035
-0.0123926
-0.0177437
-0.0192831
-0.0175029
-0.0130804
-0.00687054
-0.00013252
0.00603164
0.011021
0.0146649
0.017061
0.0184645
0.0191256
0.0192151
0.00825156
0.0381479
0.0546659
-0.104765
-0.0770605
-0.0528266
0.0913284
0.0720753
-0.325832
-0.182451
0.00575231
-0.000528413
-0.105733
-0.2891
-0.0439385
-0.0108736
-0.0147491
-0.0184901
-0.0188261
-0.0160887
-0.0111459
-0.00499046
0.00131377
0.00694635
0.0114846
0.0148349
0.0171072
0.0184911
0.0191735
0.0193011
0.00808736
0.0354679
0.0405106
-0.0971504
-0.0794355
-0.0441908
0.0659072
0.0638182
-0.210325
-0.167515
-0.0189375
-0.00413804
-0.0671892
-0.167663
-0.0471302
-0.0161778
-0.0175791
-0.0198875
-0.0191711
-0.0156589
-0.0103334
-0.00423614
0.0017366
0.00697855
0.0112039
0.014368
0.0165674
0.0179545
0.0186855
0.0188962
0.00782766
0.0324956
0.0289711
-0.0995631
-0.0924641
-0.0355956
0.0745188
0.00983199
-0.111419
-0.177257
-0.0370869
-0.00183975
-0.0215569
-0.105833
-0.0453339
-0.0202852
-0.020953
-0.0221343
-0.0205246
-0.0163363
-0.0106349
-0.00451051
0.00126769
0.00626235
0.0102962
0.0133563
0.0155306
0.0169521
0.0177589
0.0180808
0.00746784
0.0292971
0.0197719
-0.0915515
-0.103157
-0.0284782
0.0469385
0.0101541
-0.0755071
-0.167075
-0.0522169
-0.0041428
0.0117637
-0.0699842
-0.041077
-0.023505
-0.0249855
-0.0255654
-0.0231752
-0.0182932
-0.0120559
-0.00572405
3.22457e-05
0.00493081
0.00888499
0.0119153
0.0141119
0.0155987
0.0165056
0.016956
0.007014
0.0259545
0.0125831
-0.083812
-0.118628
-0.0251774
0.0351632
0.00301781
-0.0542382
-0.137483
-0.0666688
-0.0123718
0.0865352
-0.0484829
-0.0375799
-0.0222376
-0.0240909
-0.0307049
-0.0275199
-0.0217809
-0.0145786
-0.00774831
-0.00181953
0.00312975
0.0071117
0.0101814
0.0124419
0.0140177
0.0150376
0.0156221
0.00647698
0.0225562
0.00698032
-0.0746607
-0.0901375
-0.0221361
0.0241396
0.000897776
-0.0405732
-0.113451
-0.0827884
-0.0325067
0.00466962
-0.036113
-0.0356869
-0.0320045
-0.0400625
-0.0101009
-0.0331896
-0.0270656
-0.0180603
-0.0103494
-0.00407929
0.00105214
0.00515935
0.00832476
0.0106721
0.0123393
0.0134623
0.0141638
0.0058694
0.0191907
0.00259733
-0.0648609
-0.0682627
-0.0195765
0.0148356
-0.00129878
-0.0331404
-0.10059
-0.103031
-0.0678431
-0.0166502
-0.0361484
-0.047506
-0.0176661
-0.030113
-0.0606988
-0.0374204
-0.027246
-0.0220971
-0.0130292
-0.00645214
-0.00101835
0.00329815
0.00657888
0.00899182
0.0107105
0.0118901
0.0126618
0.00522098
0.0159416
-0.00099698
-0.0551908
-0.0557361
-0.017831
0.00744136
-0.0038037
-0.0316672
-0.0969035
-0.13
-0.115449
-0.0312123
-0.063861
-0.0831891
-0.0885729
-0.0547071
-0.07918
-0.0575144
-0.0300621
-0.0231599
-0.0153608
-0.00871246
-0.0026281
0.00193676
0.00524261
0.00760125
0.0092568
0.0103936
0.0111496
0.00454578
0.0128834
-0.00350018
-0.0464
-0.0463973
-0.0165911
0.00197
-0.00640351
-0.0329681
-0.0994717
-0.165616
-0.158868
-0.0985638
-0.126697
-0.150403
-0.150736
-0.126257
-0.0958139
-0.0668152
-0.0434914
0.0531718
-0.0235481
-0.0101466
-0.00287133
0.00158031
0.00454033
0.00656893
0.00796366
0.00891022
0.00953586
0.00385972
0.0100793
-0.00507919
-0.0385545
-0.0384522
-0.0155081
-0.0017753
-0.0084915
-0.0342092
-0.105149
-0.177616
-0.208788
-0.177623
-0.236572
-0.285557
-0.254485
-0.182584
-0.118332
-0.071845
-0.0440493
-0.029545
-0.0176697
-0.00724645
-0.00140879
0.00193643
0.00407385
0.00550825
0.00647815
0.00712188
0.00753276
0.00318481
0.00758115
-0.00598574
-0.0316801
-0.0316339
-0.0143381
-0.00407187
-0.00950181
-0.0334501
-0.110054
-0.135508
-0.229954
-0.258775
-0.379841
-0.489548
-0.403796
-0.258819
-0.146463
-0.0804117
-0.0451314
-0.0254113
-0.0129021
-0.00540754
-0.00128769
0.00108357
0.00255322
0.00350148
0.0041129
0.00449254
0.00470688
0.00254263
0.00542577
-0.00634539
-0.0257547
-0.0258225
-0.0129818
-0.00514708
-0.0090909
-0.0292896
-0.103052
-0.175668
-0.263421
-0.297715
-0.502396
-0.608692
-0.480116
-0.337855
-0.179144
-0.091385
-0.0487424
-0.0267622
-0.014732
-0.0080659
-0.00433528
-0.00217226
-0.000870438
-7.27774e-05
0.000407376
0.000674799
0.000793606
0.00195306
0.00363264
-0.00628239
-0.020712
-0.0208752
-0.0114245
-0.00519596
-0.00720958
-0.0212266
-0.0780503
-0.127681
-0.148895
-0.255295
-0.52068
-0.718043
-0.602334
-0.371586
-0.197387
-0.0993005
-0.0535014
-0.0314221
-0.0197496
-0.0132248
-0.00942733
-0.00714385
-0.00574038
-0.00487577
-0.00435891
-0.00407594
-0.00395588
0.0014333
0.0022048
-0.00590945
-0.0164596
-0.0166593
-0.0097148
-0.00446191
-0.0041779
-0.0103336
-0.0372869
-0.0510281
-0.073808
-0.182899
-0.406637
-0.550864
-0.506172
-0.320279
-0.17669
-0.0833949
-0.0544067
-0.0349197
-0.0244468
-0.018365
-0.0146521
-0.0123101
-0.0108099
-0.00985201
-0.00925782
-0.00891499
-0.00874979
0.00099551
0.0011296
-0.00531423
-0.0128857
-0.0130607
-0.0079307
-0.00324905
-0.000712881
0.000742002
-0.00436214
-0.00963213
-0.0339916
-0.0994267
-0.226719
-0.335711
-0.309719
-0.21504
-0.131329
-0.0659959
-0.0479684
-0.0345565
-0.0266002
-0.0216149
-0.0183725
-0.0162168
-0.0147731
-0.0138119
-0.013188
-0.0128058
-0.0125995
0.000645752
0.000382203
-0.004563
-0.00987245
-0.00998463
-0.00616738
-0.0018972
0.00229187
0.0087755
0.0218953
0.0897135
0.000185873
-0.0462534
-0.10801
-0.156149
-0.157541
-0.114495
-0.0573025
-0.0517684
-0.0391282
-0.0312292
-0.0259511
-0.0223294
-0.0198067
-0.018037
-0.0167993
-0.0159419
-0.0153608
-0.0149829
-0.0147559
0.000384052
-7.21983e-05
-0.00370237
-0.00730362
-0.00734726
-0.00452137
-0.000728202
0.0041026
0.0118384
0.0234571
0.0252886
0.00488379
-0.0204212
-0.0483679
-0.0680596
-0.0731773
-0.032409
-0.0480827
-0.0383169
-0.0315817
-0.0267978
-0.0233598
-0.020867
-0.0190504
-0.0177246
-0.0167621
-0.0160688
-0.0155767
-0.0152357
-0.0150081
0.000203791
-0.000275735
-0.00276295
-0.00507013
-0.00506873
-0.00307042
2.60376e-05
0.00443723
0.0108218
0.0174467
0.0167279
0.00573122
-0.00908221
-0.0234662
-0.0339873
-0.0385536
-0.0375743
-0.0329414
-0.0280472
-0.0242315
-0.0213953
-0.0192924
-0.0177256
-0.0165534
-0.0156731
-0.0150119
-0.0145163
-0.0141462
-0.0138708
-0.0136676
9.04886e-05
-0.00027709
-0.00175992
-0.00306607
-0.00306196
-0.00184881
0.000270493
0.00345067
0.00753512
0.0105782
0.00928751
0.00338037
-0.00437891
-0.0117179
-0.0170995
-0.0198198
-0.0201822
-0.0191101
-0.0175832
-0.0161574
-0.0149931
-0.0140843
-0.0133844
-0.012844
-0.012424
-0.0120954
-0.0118355
-0.0116283
-0.0114611
-0.0113236
2.07561e-05
-0.000132874
-0.000694466
-0.00118116
-0.00121963
-0.000828206
4.92964e-05
0.00148747
0.00313661
0.00405259
0.00331914
0.00116808
-0.00145763
-0.00384872
-0.00561017
-0.00681369
-0.00748586
-0.00783253
-0.00802554
-0.00816421
-0.00828571
-0.00839363
-0.00848552
-0.00855778
-0.00860911
-0.00864049
-0.00865443
-0.00865387
-0.0086407
-0.00861714
0.00828158
0.00541426
-0.000132299
-0.00944738
-0.0208018
-0.0334821
-0.0384614
-0.0485429
-0.045451
-0.0417558
-0.0424429
-0.0439284
-0.0420121
-0.0301611
-0.011897
0.00448127
-0.0761681
59.7773
111.796
117.001
93.4779
104.656
123.486
119.335
119.959
106.577
101.39
100.729
99.3305
93.1999
0.00876121
0.00587499
0.000331918
-0.00917635
-0.0202443
-0.029647
-0.0404087
-0.04634
-0.0449387
-0.0402645
-0.0411809
-0.0418157
-0.0398137
-0.0299101
-0.0146622
0.0117575
-0.0268404
25.1909
109.505
115.688
96.8942
103.049
122.931
118.481
120.697
106.384
101.087
95.535
0.060894
0.0183396
0.00964341
0.00692257
0.00158944
-0.0077887
-0.0198459
-0.0244281
-0.038427
-0.0429895
-0.0426831
-0.0366564
-0.039117
-0.0396617
-0.0378208
-0.0298153
-0.0176185
-0.000406777
-0.0187496
9.79986
104.094
114.3
99.0891
102.03
122.246
117.844
121.595
106.085
61.5718
0.273233
0.0608716
0.0182621
0.0108633
0.00840115
0.0035288
-0.00504159
-0.0190791
0.0188456
-0.0355543
-0.0387041
-0.0393522
-0.0367886
-0.0368629
-0.0374802
-0.0360443
-0.0299085
-0.0207257
-0.0074719
-0.0142605
1.93953
95.7654
111.983
98.5708
102.503
121.744
116.915
122.696
108.847
17.902
0.20341
0.0608398
0.0179597
0.0117493
0.00973277
0.00561902
-0.00108776
-0.00615725
-0.0145322
-0.0308261
-0.0334522
-0.0345739
-0.034256
-0.0345294
-0.0353128
-0.0344404
-0.0302308
-0.0240375
0.00878738
-0.0742001
-0.108383
66.4456
111.11
0.232656
18.0626
121.572
119.168
124.093
79.8473
-0.352506
0.250747
0.0606359
0.0178114
0.0142819
0.0113166
0.00776711
0.00254907
-0.00331715
-0.0137193
-0.0238415
-0.0276048
-0.0305032
-0.0312502
-0.0321257
-0.0331902
-0.0330205
-0.0307472
-0.0277165
0.0134276
-0.0368655
-0.190608
0.484853
88.0019
0.14318
-0.193094
121.782
121.425
125.242
-0.339846
-0.34769
0.152327
0.0601587
0.0176985
0.0156861
0.0144504
0.0104786
0.00607825
0.000463035
-0.00782641
-0.0165173
-0.0220909
-0.0256388
-0.0278141
-0.0295404
-0.0310837
-0.0317291
-0.0313821
-0.0319991
-0.00305567
-0.238066
-0.223733
0.322765
-0.289335
0.11023
-0.546302
104.775
121.791
125.157
0.140719
-0.278782
0.121075
0.059357
0.0175893
0.0175738
0.0164812
0.012856
0.00926199
0.00423963
-0.00259879
-0.0101593
-0.0163191
-0.0208699
-0.0241686
-0.0267541
-0.0289247
-0.0304862
-0.0320778
-0.0368196
-0.0722655
-0.236836
-0.249702
0.159557
-0.169999
0.0991736
-0.576875
-0.327179
121.076
79.8695
-0.105082
-0.261101
0.119251
0.0581845
0.0174463
0.0179645
0.0168205
0.0147984
0.0116915
0.00731353
0.00153425
-0.00507141
-0.011263
-0.0164306
-0.0205532
-0.0238963
-0.0267406
-0.0292825
-0.0327903
-0.0413945
-0.0742991
-0.237241
-0.275773
0.0296751
-0.0904325
0.0780977
-0.564414
-0.201584
35.299
-0.524787
-0.0596159
-0.238907
0.0805531
0.0565859
0.0172468
0.0187675
0.0177721
0.0160419
0.0133752
0.00960264
0.00466492
-0.00112385
-0.00703084
-0.0124386
-0.0170943
-0.0210534
-0.0245538
-0.0280816
-0.0334169
-0.0450993
-0.0620153
-0.202176
-0.277387
-0.0294901
-0.0524091
0.0368883
-0.47979
-0.148502
-0.00390119
-0.291874
-0.0664129
-0.201955
0.0841278
0.0545325
0.0169798
0.0189736
0.0181604
0.0167008
0.014433
0.0112127
0.00698742
0.00192364
-0.00354095
-0.00890604
-0.0138365
-0.0182489
-0.0223351
-0.0267882
-0.0338238
-0.0479814
-0.0860739
-0.187817
-0.216691
-0.0859208
-0.0363743
-0.00779233
-0.295933
-0.114356
-0.0546636
-0.187716
-0.0636226
-0.209038
0.055719
0.052011
0.0166335
0.0186944
0.0180671
0.0168783
0.0149911
0.0122806
0.00868717
0.00428581
-0.000663191
-0.00579322
-0.0107787
-0.0154692
-0.0200203
-0.0252728
-0.0338666
-0.050764
-0.0646019
-0.168739
-0.243988
-0.0941277
-0.0290122
-0.0427807
-0.110105
-0.0836169
-0.0487004
-0.0811362
-0.046749
-0.185811
0.0425089
0.0490114
0.0161877
0.0180247
0.0175921
0.0166747
0.0151547
0.0129222
0.00990586
0.00612459
0.00172659
-0.00303689
-0.00789281
-0.0126769
-0.0175212
-0.023377
-0.0333081
-0.0534204
-0.112231
-0.318407
-0.174015
-0.0892309
-0.0224343
-0.0491532
-0.0494966
-0.0556108
-0.0445413
-0.0919564
-0.0408058
-0.165392
0.0327217
0.0455627
0.0156347
0.017056
0.0168253
0.016178
0.0150116
0.0132252
0.010744
0.0075512
0.00372171
-0.000582592
-0.00515275
-0.00983682
-0.0147553
-0.0209391
-0.0317556
-0.049962
-0.0838675
-0.502977
-0.0658636
-0.0719444
-0.015631
-0.032642
0.0313763
-0.02972
-0.0336013
-0.0685019
-0.0451761
-0.144834
0.0240327
0.0417403
0.0149724
0.0158769
0.0158395
0.0154483
0.0146121
0.0132387
0.0112529
0.0086171
0.00535906
0.00157675
-0.00257723
-0.00697115
-0.0117112
-0.0178744
-0.0289558
-0.0451751
-0.121388
-0.374071
-0.112229
-0.0480626
-0.0045206
-0.0146416
0.0943373
-0.0294491
-0.034113
-0.0559837
-0.0495854
-0.12417
0.0165205
0.037618
0.0141865
0.014554
0.0146867
0.0145185
0.0139724
0.012966
0.0114259
0.00930494
0.00660113
0.00337036
-0.000278145
-0.00423058
-0.00857333
-0.0143675
-0.0247134
-0.0378085
-0.0275853
-0.336754
-0.0973945
-0.0319938
0.00261653
0.00117379