/*--------------------------------*- C++ -*----------------------------------*\
| =========                 |                                                 |
| \\      /  F ield         | OpenFOAM: The Open Source CFD Toolbox           |
|  \\    /   O peration     | Version:  2.4.0                                 |
|   \\  /    A nd           | Web:      www.OpenFOAM.org                      |
|    \\/     M anipulation  |                                                 |
\*---------------------------------------------------------------------------*/
FoamFile
{
    version     2.0;
    format      ascii;
    class       surfaceScalarField;
    location    "0.254";
    object      phiAlpha;
}
// * * * * * * * * * * * * * * * * * * * * * * * * * * * * * * * * * * * * * //

dimensions      [0 3 -1 0 0 0 0];

internalField   nonuniform List<scalar> 
119500
(
-2.56385e-09
2.56385e-09
-5.46084e-09
2.89699e-09
-8.38614e-09
2.92529e-09
-1.12814e-08
2.89522e-09
-1.41295e-08
2.84817e-09
-1.69174e-08
2.78782e-09
-1.96327e-08
2.71529e-09
-2.22638e-08
2.6311e-09
-2.47999e-08
2.53619e-09
-2.72313e-08
2.43135e-09
-2.95491e-08
2.31783e-09
-3.17462e-08
2.19709e-09
-3.38167e-08
2.07046e-09
-3.57564e-08
1.93975e-09
-3.75623e-08
1.80584e-09
-3.92321e-08
1.66988e-09
-4.07651e-08
1.53295e-09
-4.21608e-08
1.39569e-09
-4.34194e-08
1.25861e-09
-4.45415e-08
1.12213e-09
-4.55279e-08
9.86386e-10
-4.6379e-08
8.51069e-10
-4.70949e-08
7.15962e-10
-4.76756e-08
5.80692e-10
-4.81204e-08
4.44789e-10
-4.84282e-08
3.07747e-10
-4.85967e-08
1.68493e-10
-4.86231e-08
2.64617e-11
-4.8502e-08
-1.21096e-10
-4.82321e-08
-2.69894e-10
-4.78122e-08
-4.19966e-10
-4.72387e-08
-5.73472e-10
-4.65075e-08
-7.31214e-10
-4.56145e-08
-8.92972e-10
-4.45556e-08
-1.05892e-09
-4.33265e-08
-1.22903e-09
-4.19233e-08
-1.40328e-09
-4.03418e-08
-1.58149e-09
-3.85783e-08
-1.76352e-09
-3.66292e-08
-1.94906e-09
-3.44914e-08
-2.13779e-09
-3.21621e-08
-2.3293e-09
-2.96391e-08
-2.52307e-09
-2.69206e-08
-2.71848e-09
-2.40058e-08
-2.91476e-09
-2.08947e-08
-3.11113e-09
-1.7588e-08
-3.30669e-09
-1.40875e-08
-3.50046e-09
-1.03961e-08
-3.69141e-09
-6.51767e-09
-3.87845e-09
-2.45694e-09
-4.06074e-09
1.78088e-09
-4.23782e-09
6.18097e-09
-4.40009e-09
1.07408e-08
-4.55982e-09
1.54477e-08
-4.70693e-09
2.02915e-08
-4.84377e-09
2.52592e-08
-4.9677e-09
3.03359e-08
-5.07668e-09
3.5509e-08
-5.17315e-09
4.0764e-08
-5.25494e-09
4.60861e-08
-5.32208e-09
5.14601e-08
-5.37403e-09
5.68713e-08
-5.41122e-09
6.23054e-08
-5.43407e-09
6.77492e-08
-5.44383e-09
7.31901e-08
-5.44091e-09
7.86167e-08
-5.42663e-09
8.40193e-08
-5.40253e-09
8.93888e-08
-5.36958e-09
9.47182e-08
-5.32936e-09
1.00001e-07
-5.28296e-09
1.05233e-07
-5.23175e-09
1.10409e-07
-5.17647e-09
1.15527e-07
-5.11747e-09
1.20582e-07
-5.05503e-09
1.25571e-07
-4.989e-09
1.3049e-07
-4.91915e-09
1.35335e-07
-4.84527e-09
1.40102e-07
-4.76695e-09
1.44786e-07
-4.68376e-09
1.49381e-07
-4.59531e-09
1.53883e-07
-4.50119e-09
1.58283e-07
-4.40069e-09
1.62576e-07
-4.29268e-09
1.66752e-07
-4.17568e-09
1.708e-07
-4.04817e-09
1.74709e-07
-3.90896e-09
1.78467e-07
-3.7582e-09
1.82065e-07
-3.59808e-09
1.85498e-07
-3.43331e-09
1.88768e-07
-3.26951e-09
1.91879e-07
-3.11121e-09
1.94838e-07
-2.95914e-09
1.97646e-07
-2.80765e-09
2.00287e-07
-2.6411e-09
2.02718e-07
-2.43114e-09
2.04859e-07
-2.14048e-09
2.06589e-07
-1.73087e-09
2.07784e-07
-1.195e-09
-5.56373e-10
2.08341e-07
-4.04998e-09
6.61383e-09
-8.71575e-09
7.56277e-09
-1.33669e-08
7.57642e-09
-1.7946e-08
7.47432e-09
-2.24283e-08
7.33051e-09
-2.67938e-08
7.15332e-09
-3.10247e-08
6.94614e-09
-3.51059e-08
6.71238e-09
-3.90257e-08
6.45594e-09
-4.27748e-08
6.18045e-09
-4.63471e-08
5.89015e-09
-4.97392e-08
5.58918e-09
-5.29497e-08
5.28095e-09
-5.59792e-08
4.96921e-09
-5.88292e-08
4.65593e-09
-6.1503e-08
4.3436e-09
-6.40038e-08
4.03381e-09
-6.63354e-08
3.72722e-09
-6.8501e-08
3.42421e-09
-7.05035e-08
3.12468e-09
-7.2345e-08
2.82791e-09
-7.40266e-08
2.53263e-09
-7.55482e-08
2.23755e-09
-7.69086e-08
1.94108e-09
-7.81053e-08
1.64154e-09
-7.91348e-08
1.33723e-09
-7.99929e-08
1.02657e-09
-8.06749e-08
7.08468e-10
-8.1176e-08
3.7999e-10
-8.14841e-08
3.82579e-11
-8.15906e-08
-3.13469e-10
-8.14873e-08
-6.76758e-10
-8.11649e-08
-1.05362e-09
-8.06146e-08
-1.44331e-09
-7.98269e-08
-1.84662e-09
-7.87924e-08
-2.26353e-09
-7.75017e-08
-2.69399e-09
-7.59458e-08
-3.13741e-09
-7.41161e-08
-3.59316e-09
-7.20047e-08
-4.06049e-09
-6.96042e-08
-4.53832e-09
-6.6908e-08
-5.02542e-09
-6.39109e-08
-5.52025e-09
-6.06083e-08
-6.02105e-09
-5.69973e-08
-6.52579e-09
-5.3076e-08
-7.03235e-09
-4.88443e-08
-7.53841e-09
-4.43033e-08
-8.04145e-09
-3.94559e-08
-8.53881e-09
-3.43067e-08
-9.02771e-09
-2.88619e-08
-9.50547e-09
-2.31308e-08
-9.96892e-09
-1.71191e-08
-1.04118e-08
-1.08419e-08
-1.0837e-08
-4.31032e-09
-1.12385e-08
2.46108e-09
-1.16152e-08
9.45512e-09
-1.19617e-08
1.66567e-08
-1.22782e-08
2.40475e-08
-1.2564e-08
3.16091e-08
-1.28165e-08
3.9321e-08
-1.3034e-08
4.71659e-08
-1.32189e-08
5.51242e-08
-1.33695e-08
6.3178e-08
-1.34879e-08
7.13098e-08
-1.35756e-08
7.95035e-08
-1.36346e-08
8.77434e-08
-1.36665e-08
9.60161e-08
-1.36752e-08
1.04308e-07
-1.3662e-08
1.12611e-07
-1.36314e-08
1.20912e-07
-1.35844e-08
1.29205e-07
-1.35249e-08
1.37482e-07
-1.34535e-08
1.45736e-07
-1.33715e-08
1.53961e-07
-1.32795e-08
1.62149e-07
-1.31769e-08
1.70293e-07
-1.30633e-08
1.78386e-07
-1.29381e-08
1.86419e-07
-1.28002e-08
1.94384e-07
-1.26489e-08
2.02272e-07
-1.24832e-08
2.10073e-07
-1.23024e-08
2.17777e-07
-1.2105e-08
2.25373e-07
-1.18887e-08
2.32848e-07
-1.165e-08
2.40184e-07
-1.13848e-08
2.47364e-07
-1.10891e-08
2.54367e-07
-1.0761e-08
2.61172e-07
-1.04024e-08
2.67759e-07
-1.00207e-08
2.74116e-07
-9.62649e-09
2.80235e-07
-9.23074e-09
2.86116e-07
-8.84009e-09
2.9176e-07
-8.45145e-09
2.97166e-07
-8.04693e-09
3.02324e-07
-7.58873e-09
3.07202e-07
-7.01863e-09
3.11741e-07
-6.27006e-09
3.15838e-07
-5.29161e-09
-4.07216e-09
3.19353e-07
-4.39692e-09
1.10107e-08
-9.47346e-09
1.26393e-08
-1.45376e-08
1.26405e-08
-1.95253e-08
1.24621e-08
-2.44117e-08
1.22169e-08
-2.91764e-08
1.19181e-08
-3.38027e-08
1.15724e-08
-3.82767e-08
1.11864e-08
-4.25878e-08
1.0767e-08
-4.67286e-08
1.03213e-08
-5.0695e-08
9.85655e-09
-5.44852e-08
9.37935e-09
-5.80997e-08
8.8955e-09
-6.15402e-08
8.4097e-09
-6.48104e-08
7.92605e-09
-6.7914e-08
7.44727e-09
-7.08554e-08
6.97517e-09
-7.36385e-08
6.51036e-09
-7.6267e-08
6.05267e-09
-7.87434e-08
5.60112e-09
-8.10694e-08
5.15386e-09
-8.32451e-08
4.70841e-09
-8.52696e-08
4.26206e-09
-8.71404e-08
3.8118e-09
-8.88533e-08
3.35452e-09
-9.04032e-08
2.88713e-09
-9.17835e-08
2.40682e-09
-9.2986e-08
1.91099e-09
-9.40025e-08
1.3965e-09
-9.48252e-08
8.60977e-10
-9.5443e-08
3.04306e-10
-9.58443e-08
-2.75487e-10
-9.60163e-08
-8.81648e-10
-9.59485e-08
-1.51112e-09
-9.56294e-08
-2.16566e-09
-9.5048e-08
-2.84494e-09
-9.41931e-08
-3.54893e-09
-9.30543e-08
-4.27615e-09
-9.16213e-08
-5.02614e-09
-8.98849e-08
-5.79691e-09
-8.78365e-08
-6.58677e-09
-8.54685e-08
-7.39341e-09
-8.27745e-08
-8.2142e-09
-7.97495e-08
-9.0461e-09
-7.63896e-08
-9.88568e-09
-7.26927e-08
-1.07292e-08
-6.86584e-08
-1.15727e-08
-6.42878e-08
-1.2412e-08
-5.9584e-08
-1.32426e-08
-5.45518e-08
-1.40599e-08
-4.91979e-08
-1.48594e-08
-4.35311e-08
-1.56357e-08
-3.75599e-08
-1.6383e-08
-3.12979e-08
-1.7099e-08
-2.47583e-08
-1.77782e-08
-1.79566e-08
-1.84168e-08
-1.09085e-08
-1.90098e-08
-3.63174e-09
-1.9555e-08
3.85452e-09
-2.00502e-08
1.15311e-08
-2.04931e-08
1.93797e-08
-2.08826e-08
2.73783e-08
-2.12175e-08
3.55078e-08
-2.1499e-08
4.37495e-08
-2.17296e-08
5.20854e-08
-2.19115e-08
6.04984e-08
-2.20476e-08
6.89724e-08
-2.21405e-08
7.74926e-08
-2.21954e-08
8.60473e-08
-2.22166e-08
9.4623e-08
-2.22071e-08
1.03211e-07
-2.21729e-08
1.11803e-07
-2.21166e-08
1.2039e-07
-2.20406e-08
1.28965e-07
-2.19466e-08
1.37521e-07
-2.1835e-08
1.46049e-07
-2.17053e-08
1.54542e-07
-2.15563e-08
1.62991e-07
-2.13865e-08
1.71385e-07
-2.1194e-08
1.79713e-07
-2.09774e-08
1.87965e-07
-2.07351e-08
1.96128e-07
-2.04654e-08
2.04189e-07
-2.01657e-08
2.12132e-07
-1.98319e-08
2.1994e-07
-1.9458e-08
2.27592e-07
-1.90369e-08
2.35064e-07
-1.85608e-08
2.42328e-07
-1.80252e-08
2.49357e-07
-1.74318e-08
2.56127e-07
-1.67907e-08
2.6262e-07
-1.61189e-08
2.68826e-07
-1.54367e-08
2.74747e-07
-1.47612e-08
2.80394e-07
-1.40987e-08
2.85788e-07
-1.34405e-08
2.90955e-07
-1.27562e-08
2.95925e-07
-1.19882e-08
3.00709e-07
-1.10544e-08
3.05283e-07
-9.86526e-09
-8.31441e-09
3.09525e-07
-4.49478e-09
1.55055e-08
-9.67895e-09
1.78235e-08
-1.48587e-08
1.78203e-08
-1.99653e-08
1.75687e-08
-2.49737e-08
1.72252e-08
-2.98642e-08
1.68086e-08
-3.46204e-08
1.63286e-08
-3.92292e-08
1.57952e-08
-4.36806e-08
1.52184e-08
-4.79679e-08
1.46086e-08
-5.2087e-08
1.39757e-08
-5.60367e-08
1.3329e-08
-5.98177e-08
1.26765e-08
-6.34326e-08
1.20246e-08
-6.68849e-08
1.13783e-08
-7.01788e-08
1.07413e-08
-7.3319e-08
1.01153e-08
-7.63095e-08
9.50089e-09
-7.9154e-08
8.89716e-09
-8.1855e-08
8.30215e-09
-8.4414e-08
7.71278e-09
-8.68308e-08
7.12525e-09
-8.91041e-08
6.53532e-09
-9.12307e-08
5.93844e-09
-9.32061e-08
5.32995e-09
-9.50243e-08
4.70533e-09
-9.66779e-08
4.06036e-09
-9.8158e-08
3.39112e-09
-9.94552e-08
2.69373e-09
-1.00559e-07
1.96518e-09
-1.01459e-07
1.20401e-09
-1.02143e-07
4.08129e-10
-1.02598e-07
-4.26373e-10
-1.02813e-07
-1.2964e-09
-1.02774e-07
-2.20419e-09
-1.0247e-07
-3.14893e-09
-1.01889e-07
-4.12987e-09
-1.0102e-07
-5.1457e-09
-9.98513e-08
-6.19456e-09
-9.83738e-08
-7.27438e-09
-9.65784e-08
-8.38222e-09
-9.4457e-08
-9.51476e-09
-9.2003e-08
-1.06682e-08
-8.9211e-08
-1.18381e-08
-8.60769e-08
-1.30198e-08
-8.25983e-08
-1.42078e-08
-7.87746e-08
-1.53964e-08
-7.4607e-08
-1.65797e-08
-7.00984e-08
-1.77512e-08
-6.52537e-08
-1.89046e-08
-6.008e-08
-2.00331e-08
-5.45858e-08
-2.11299e-08
-4.87811e-08
-2.21877e-08
-4.26788e-08
-2.32014e-08
-3.62927e-08
-2.41642e-08
-2.96387e-08
-2.50708e-08
-2.27334e-08
-2.59152e-08
-1.55948e-08
-2.66936e-08
-8.24231e-09
-2.74027e-08
-6.95652e-10
-2.80398e-08
7.02517e-09
-2.86035e-08
1.49004e-08
-2.90927e-08
2.29087e-08
-2.95073e-08
3.10312e-08
-2.98521e-08
3.92492e-08
-3.01295e-08
4.75453e-08
-3.03436e-08
5.59028e-08
-3.0498e-08
6.43075e-08
-3.06001e-08
7.2746e-08
-3.06551e-08
8.12069e-08
-3.0668e-08
8.96793e-08
-3.06454e-08
9.81543e-08
-3.05916e-08
1.06623e-07
-3.05097e-08
1.15078e-07
-3.04016e-08
1.23511e-07
-3.02675e-08
1.31912e-07
-3.01062e-08
1.40271e-07
-2.99155e-08
1.48577e-07
-2.96926e-08
1.56817e-07
-2.94346e-08
1.64979e-07
-2.91386e-08
1.73045e-07
-2.88019e-08
1.81001e-07
-2.84209e-08
1.88826e-07
-2.79912e-08
1.965e-07
-2.75059e-08
2.03998e-07
-2.69557e-08
2.1129e-07
-2.6329e-08
2.18343e-07
-2.56139e-08
2.25121e-07
-2.48032e-08
2.31588e-07
-2.38988e-08
2.37713e-07
-2.29157e-08
2.43476e-07
-2.18813e-08
2.48868e-07
-2.08293e-08
2.53898e-07
-1.97906e-08
2.58584e-07
-1.87854e-08
2.62962e-07
-1.78185e-08
2.67079e-07
-1.68728e-08
2.70992e-07
-1.59017e-08
2.74755e-07
-1.48167e-08
2.78394e-07
-1.35047e-08
-1.174e-08
2.8182e-07
-4.54573e-09
2.00512e-08
-9.78102e-09
2.30588e-08
-1.50151e-08
2.30544e-08
-2.01771e-08
2.27307e-08
-2.52412e-08
2.22893e-08
-3.01879e-08
2.17552e-08
-3.50008e-08
2.11416e-08
-3.96669e-08
2.04613e-08
-4.41765e-08
1.9728e-08
-4.85227e-08
1.89548e-08
-5.27022e-08
1.81551e-08
-5.67135e-08
1.73404e-08
-6.05581e-08
1.6521e-08
-6.42388e-08
1.57053e-08
-6.77597e-08
1.48992e-08
-7.11254e-08
1.4107e-08
-7.4341e-08
1.33308e-08
-7.74108e-08
1.25708e-08
-8.03389e-08
1.18253e-08
-8.31281e-08
1.10913e-08
-8.57797e-08
1.03644e-08
-8.8294e-08
9.63949e-09
-9.06692e-08
8.91058e-09
-9.29023e-08
8.17154e-09
-9.49885e-08
7.4161e-09
-9.69213e-08
6.6382e-09
-9.86931e-08
5.83216e-09
-1.00295e-07
4.99275e-09
-1.01716e-07
4.11517e-09
-1.02947e-07
3.19553e-09
-1.03974e-07
2.23123e-09
-1.04785e-07
1.21971e-09
-1.0537e-07
1.5826e-10
-1.05714e-07
-9.52746e-10
-1.05804e-07
-2.11406e-09
-1.05628e-07
-3.32514e-09
-1.05173e-07
-4.58473e-09
-1.04427e-07
-5.89106e-09
-1.0338e-07
-7.24163e-09
-1.02021e-07
-8.63344e-09
-1.00341e-07
-1.00627e-08
-9.83305e-08
-1.1525e-08
-9.59835e-08
-1.30152e-08
-9.32941e-08
-1.45276e-08
-9.0258e-08
-1.60559e-08
-8.68727e-08
-1.75931e-08
-8.31373e-08
-1.91319e-08
-7.90527e-08
-2.06642e-08
-7.46219e-08
-2.2182e-08
-6.98497e-08
-2.36767e-08
-6.47431e-08
-2.51397e-08
-5.93108e-08
-2.65622e-08
-5.35632e-08
-2.79353e-08
-4.75131e-08
-2.92515e-08
-4.11747e-08
-3.05026e-08
-3.45641e-08
-3.16814e-08
-2.76983e-08
-3.2781e-08
-2.05958e-08
-3.3796e-08
-1.32764e-08
-3.47222e-08
-5.76002e-09
-3.55561e-08
1.93251e-09
-3.6296e-08
9.78172e-09
-3.69419e-08
1.7765e-08
-3.74906e-08
2.58636e-08
-3.79506e-08
3.40579e-08
-3.83238e-08
4.2331e-08
-3.86168e-08
5.06646e-08
-3.88316e-08
5.90449e-08
-3.89804e-08
6.74578e-08
-3.9068e-08
7.58914e-08
-3.91016e-08
8.43348e-08
-3.90888e-08
9.27782e-08
-3.90351e-08
1.01213e-07
-3.89441e-08
1.09629e-07
-3.88179e-08
1.18018e-07
-3.8656e-08
1.26368e-07
-3.84565e-08
1.34668e-07
-3.82156e-08
1.42905e-07
-3.79293e-08
1.51063e-07
-3.75929e-08
1.59126e-07
-3.72021e-08
1.67077e-07
-3.67523e-08
1.74894e-07
-3.62381e-08
1.82555e-07
-3.56525e-08
1.90035e-07
-3.49855e-08
1.97302e-07
-3.42231e-08
2.04322e-07
-3.33487e-08
2.11054e-07
-3.23454e-08
2.17452e-07
-3.12018e-08
2.23474e-07
-2.99204e-08
2.29082e-07
-2.85236e-08
2.34253e-07
-2.7052e-08
2.3898e-07
-2.55563e-08
2.43274e-07
-2.40851e-08
2.47164e-07
-2.26751e-08
2.50692e-07
-2.13471e-08
2.53919e-07
-2.00999e-08
2.56919e-07
-1.89013e-08
2.59763e-07
-1.76611e-08
2.62494e-07
-1.62349e-08
-1.42462e-08
2.65e-07
-4.5866e-09
2.46378e-08
-9.86123e-09
2.83334e-08
-1.51346e-08
2.83278e-08
-2.03347e-08
2.79308e-08
-2.54351e-08
2.73897e-08
-3.04159e-08
2.6736e-08
-3.52605e-08
2.59862e-08
-3.9956e-08
2.51567e-08
-4.44923e-08
2.42643e-08
-4.88632e-08
2.33257e-08
-5.30654e-08
2.23573e-08
-5.7098e-08
2.1373e-08
-6.09629e-08
2.03859e-08
-6.46634e-08
1.94059e-08
-6.82043e-08
1.84402e-08
-7.15909e-08
1.74936e-08
-7.48285e-08
1.65684e-08
-7.79222e-08
1.56645e-08
-8.08763e-08
1.47794e-08
-8.3694e-08
1.39089e-08
-8.63769e-08
1.30474e-08
-8.89253e-08
1.21879e-08
-9.13377e-08
1.1323e-08
-9.36108e-08
1.04447e-08
-9.57398e-08
9.54512e-09
-9.77182e-08
8.61659e-09
-9.9538e-08
7.65191e-09
-1.0119e-07
6.64453e-09
-1.02663e-07
5.58859e-09
-1.03947e-07
4.47929e-09
-1.05029e-07
3.31301e-09
-1.05896e-07
2.08667e-09
-1.06535e-07
7.97894e-10
-1.06934e-07
-5.53932e-10
-1.07079e-07
-1.96924e-09
-1.06957e-07
-3.44743e-09
-1.06554e-07
-4.98691e-09
-1.0586e-07
-6.58537e-09
-1.04862e-07
-8.2397e-09
-1.0355e-07
-9.94596e-09
-1.01913e-07
-1.16994e-08
-9.99432e-08
-1.34946e-08
-9.76333e-08
-1.5325e-08
-9.49773e-08
-1.71837e-08
-9.19706e-08
-1.90626e-08
-8.86105e-08
-2.09532e-08
-8.4896e-08
-2.28464e-08
-8.08279e-08
-2.47323e-08
-7.64092e-08
-2.66008e-08
-7.16445e-08
-2.84414e-08
-6.65408e-08
-3.02434e-08
-6.11068e-08
-3.19961e-08
-5.53533e-08
-3.36889e-08
-4.92931e-08
-3.53117e-08
-4.29406e-08
-3.6855e-08
-3.63122e-08
-3.83098e-08
-2.94253e-08
-3.96679e-08
-2.22987e-08
-4.09226e-08
-1.49525e-08
-4.20684e-08
-7.40728e-09
-4.31013e-08
3.15408e-10
-4.40187e-08
8.19729e-09
-4.48238e-08
1.62128e-08
-4.55061e-08
2.43442e-08
-4.60821e-08
3.25719e-08
-4.65516e-08
4.0876e-08
-4.69209e-08
4.92418e-08
-4.71974e-08
5.76519e-08
-4.73905e-08
6.60929e-08
-4.7509e-08
7.45524e-08
-4.75611e-08
8.30195e-08
-4.75558e-08
9.14839e-08
-4.74995e-08
9.99362e-08
-4.73965e-08
1.08367e-07
-4.72486e-08
1.16766e-07
-4.7055e-08
1.25122e-07
-4.68124e-08
1.33422e-07
-4.65158e-08
1.41652e-07
-4.61593e-08
1.49796e-07
-4.57368e-08
1.57836e-07
-4.5242e-08
1.65752e-07
-4.46687e-08
1.73524e-07
-4.40095e-08
1.81126e-07
-4.32551e-08
1.88533e-07
-4.23921e-08
1.95712e-07
-4.1402e-08
2.02625e-07
-4.02617e-08
2.09227e-07
-3.89476e-08
2.15467e-07
-3.7442e-08
2.21294e-07
-3.57475e-08
2.26665e-07
-3.38945e-08
2.31553e-07
-3.19399e-08
2.35951e-07
-2.99547e-08
2.39874e-07
-2.80083e-08
2.43357e-07
-2.61572e-08
2.4645e-07
-2.44406e-08
2.49227e-07
-2.28768e-08
2.51779e-07
-2.14534e-08
2.542e-07
-2.00819e-08
2.56538e-07
-1.85726e-08
-1.63493e-08
2.58641e-07
-4.62671e-09
2.92646e-08
-9.93976e-09
3.36464e-08
-1.52501e-08
3.36382e-08
-2.0485e-08
3.31656e-08
-2.56172e-08
3.25219e-08
-3.06263e-08
3.17451e-08
-3.54955e-08
3.08554e-08
-4.02113e-08
2.98725e-08
-4.47641e-08
2.88172e-08
-4.91478e-08
2.77094e-08
-5.33593e-08
2.65688e-08
-5.73985e-08
2.54122e-08
-6.12678e-08
2.42552e-08
-6.49711e-08
2.31092e-08
-6.8514e-08
2.19831e-08
-7.19024e-08
2.08819e-08
-7.51422e-08
1.98083e-08
-7.82392e-08
1.87615e-08
-8.1198e-08
1.77382e-08
-8.40222e-08
1.67332e-08
-8.67139e-08
1.5739e-08
-8.92734e-08
1.47474e-08
-9.16993e-08
1.37489e-08
-9.39884e-08
1.27338e-08
-9.61357e-08
1.16924e-08
-9.81346e-08
1.06155e-08
-9.99769e-08
9.49421e-09
-1.01653e-07
8.32065e-09
-1.03152e-07
7.08786e-09
-1.04463e-07
5.79004e-09
-1.05573e-07
4.4227e-09
-1.06468e-07
2.98224e-09
-1.07137e-07
1.46613e-09
-1.07564e-07
-1.26656e-10
-1.07737e-07
-1.79644e-09
-1.07642e-07
-3.54245e-09
-1.07266e-07
-5.36285e-09
-1.06596e-07
-7.25481e-09
-1.05621e-07
-9.21452e-09
-1.0433e-07
-1.12372e-08
-1.02712e-07
-1.33172e-08
-1.00759e-07
-1.54478e-08
-9.84628e-08
-1.76214e-08
-9.58171e-08
-1.98293e-08
-9.28175e-08
-2.20622e-08
-8.94609e-08
-2.43098e-08
-8.57463e-08
-2.6561e-08
-8.16743e-08
-2.88042e-08
-7.72478e-08
-3.10273e-08
-7.24716e-08
-3.32176e-08
-6.73524e-08
-3.53626e-08
-6.18993e-08
-3.74493e-08
-5.6123e-08
-3.94652e-08
-5.00364e-08
-4.13982e-08
-4.36545e-08
-4.3237e-08
-3.69935e-08
-4.49708e-08
-3.00715e-08
-4.659e-08
-2.29076e-08
-4.80865e-08
-1.55223e-08
-4.94538e-08
-7.93651e-09
-5.0687e-08
-1.71904e-10
-5.17833e-08
7.74559e-09
-5.27413e-08
1.58078e-08
-5.35683e-08
2.398e-08
-5.42543e-08
3.22473e-08
-5.48188e-08
4.05888e-08
-5.52624e-08
4.8991e-08
-5.55996e-08
5.74349e-08
-5.58344e-08
6.5907e-08
-5.59811e-08
7.4395e-08
-5.60491e-08
8.2888e-08
-5.60488e-08
9.13758e-08
-5.59874e-08
9.98494e-08
-5.587e-08
1.08299e-07
-5.56984e-08
1.16715e-07
-5.54711e-08
1.25087e-07
-5.51836e-08
1.334e-07
-5.48295e-08
1.41642e-07
-5.44011e-08
1.49795e-07
-5.38901e-08
1.57842e-07
-5.32887e-08
1.65762e-07
-5.25889e-08
1.73534e-07
-5.17816e-08
1.81135e-07
-5.08556e-08
1.88537e-07
-4.97945e-08
1.95711e-07
-4.85753e-08
2.02617e-07
-4.71678e-08
2.09207e-07
-4.5538e-08
2.15426e-07
-4.36606e-08
2.21214e-07
-4.15355e-08
2.26521e-07
-3.92016e-08
2.31316e-07
-3.67348e-08
2.35591e-07
-3.42305e-08
2.39366e-07
-3.17828e-08
2.42678e-07
-2.94694e-08
2.45588e-07
-2.73507e-08
2.48181e-07
-2.54693e-08
2.50569e-07
-2.3842e-08
2.52883e-07
-2.2396e-08
2.5521e-07
-2.08995e-08
-1.8513e-08
2.57374e-07
-4.67045e-09
3.3935e-08
-1.00259e-08
3.90019e-08
-1.53766e-08
3.89888e-08
-2.06488e-08
3.84379e-08
-2.58146e-08
3.76877e-08
-3.0853e-08
3.67835e-08
-3.57465e-08
3.57488e-08
-4.04818e-08
3.46078e-08
-4.50489e-08
3.33843e-08
-4.94422e-08
3.21027e-08
-5.36592e-08
3.07857e-08
-5.77002e-08
2.94533e-08
-6.15684e-08
2.81234e-08
-6.52685e-08
2.68092e-08
-6.8807e-08
2.55215e-08
-7.21903e-08
2.42652e-08
-7.54253e-08
2.30433e-08
-7.85184e-08
2.18545e-08
-8.14748e-08
2.06946e-08
-8.42985e-08
1.95568e-08
-8.69918e-08
1.84324e-08
-8.95553e-08
1.73109e-08
-9.19878e-08
1.61814e-08
-9.42861e-08
1.5032e-08
-9.6445e-08
1.38514e-08
-9.84577e-08
1.26283e-08
-1.00316e-07
1.13524e-08
-1.0201e-07
1.00145e-08
-1.03528e-07
8.60641e-09
-1.0486e-07
7.1213e-09
-1.05991e-07
5.55383e-09
-1.06908e-07
3.89989e-09
-1.07599e-07
2.15667e-09
-1.08048e-07
3.22868e-10
-1.08243e-07
-1.60176e-09
-1.08169e-07
-3.61627e-09
-1.07814e-07
-5.7185e-09
-1.07163e-07
-7.90513e-09
-1.06206e-07
-1.01717e-08
-1.04931e-07
-1.25126e-08
-1.03327e-07
-1.49212e-08
-1.01385e-07
-1.73895e-08
-9.90978e-08
-1.99088e-08
-9.64582e-08
-2.24689e-08
-9.34617e-08
-2.50588e-08
-9.01049e-08
-2.76665e-08
-8.63867e-08
-3.02792e-08
-8.23078e-08
-3.28832e-08
-7.78706e-08
-3.54644e-08
-7.30801e-08
-3.80082e-08
-6.79431e-08
-4.04996e-08
-6.24686e-08
-4.29238e-08
-5.66675e-08
-4.52662e-08
-5.05531e-08
-4.75127e-08
-4.41403e-08
-4.96498e-08
-3.74458e-08
-5.16653e-08
-3.04879e-08
-5.35478e-08
-2.32863e-08
-5.5288e-08
-1.58619e-08
-5.68782e-08
-8.23614e-09
-5.83128e-08
-4.31112e-10
-5.95883e-08
7.53161e-09
-6.0704e-08
1.56284e-08
-6.16652e-08
2.38378e-08
-6.24636e-08
3.21402e-08
-6.31213e-08
4.05176e-08
-6.36398e-08
4.89493e-08
-6.40313e-08
5.74211e-08
-6.43062e-08
6.59181e-08
-6.4478e-08
7.44287e-08
-6.45597e-08
8.29416e-08
-6.45617e-08
9.14473e-08
-6.44931e-08
9.99373e-08
-6.43599e-08
1.08403e-07
-6.41639e-08
1.16835e-07
-6.39029e-08
1.25222e-07
-6.35714e-08
1.33554e-07
-6.31609e-08
1.41815e-07
-6.26618e-08
1.49988e-07
-6.20637e-08
1.58056e-07
-6.13568e-08
1.65999e-07
-6.05314e-08
1.73794e-07
-5.95772e-08
1.8142e-07
-5.84815e-08
1.88852e-07
-5.7226e-08
1.96059e-07
-5.5783e-08
2.03005e-07
-5.41136e-08
2.09639e-07
-5.21717e-08
2.15898e-07
-4.99199e-08
2.21716e-07
-4.7353e-08
2.27032e-07
-4.45183e-08
2.31811e-07
-4.15136e-08
2.36045e-07
-3.84641e-08
2.39754e-07
-3.54921e-08
2.42983e-07
-3.2698e-08
2.45796e-07
-3.01643e-08
2.4829e-07
-2.79628e-08
2.50602e-07
-2.61542e-08
2.52918e-07
-2.47124e-08
2.5541e-07
-2.33909e-08
-2.10109e-08
2.57907e-07
-4.71996e-09
3.8655e-08
-1.01242e-08
4.44061e-08
-1.55209e-08
4.43856e-08
-2.08354e-08
4.37524e-08
-2.60393e-08
4.28916e-08
-3.11103e-08
4.18544e-08
-3.60307e-08
4.06692e-08
-4.07868e-08
3.93639e-08
-4.53689e-08
3.79665e-08
-4.97716e-08
3.65054e-08
-5.39929e-08
3.5007e-08
-5.80341e-08
3.34944e-08
-6.18988e-08
3.19882e-08
-6.55931e-08
3.05035e-08
-6.91241e-08
2.90525e-08
-7.24995e-08
2.76405e-08
-7.57268e-08
2.62707e-08
-7.88131e-08
2.49409e-08
-8.17645e-08
2.36459e-08
-8.45852e-08
2.23776e-08
-8.72782e-08
2.11253e-08
-8.98442e-08
1.9877e-08
-9.22821e-08
1.86192e-08
-9.45886e-08
1.73385e-08
-9.67585e-08
1.60213e-08
-9.87849e-08
1.46547e-08
-1.00659e-07
1.32266e-08
-1.02371e-07
1.17264e-08
-1.03909e-07
1.01447e-08
-1.05262e-07
8.47363e-09
-1.06415e-07
6.70707e-09
-1.07355e-07
4.84036e-09
-1.08069e-07
2.87037e-09
-1.08542e-07
7.9557e-10
-1.08759e-07
-1.38423e-09
-1.08708e-07
-3.66785e-09
-1.08373e-07
-6.05283e-09
-1.07743e-07
-8.53533e-09
-1.06805e-07
-1.11103e-08
-1.05546e-07
-1.37711e-08
-1.03957e-07
-1.65103e-08
-1.02028e-07
-1.93188e-08
-9.975e-08
-2.21864e-08
-9.71174e-08
-2.51015e-08
-9.41246e-08
-2.80516e-08
-9.07683e-08
-3.10228e-08
-8.7047e-08
-3.40005e-08
-8.29612e-08
-3.6969e-08
-7.85135e-08
-3.99121e-08
-7.37086e-08
-4.2813e-08
-6.85534e-08
-4.56548e-08
-6.3057e-08
-4.84203e-08
-5.72305e-08
-5.10927e-08
-5.10872e-08
-5.3656e-08
-4.46423e-08
-5.60947e-08
-3.79131e-08
-5.83946e-08
-3.0918e-08
-6.05429e-08
-2.36773e-08
-6.25287e-08
-1.62124e-08
-6.43432e-08
-8.54528e-09
-6.59799e-08
-6.98696e-10
-6.74349e-08
7.30465e-09
-6.87073e-08
1.54382e-08
-6.97987e-08
2.36891e-08
-7.07146e-08
3.20286e-08
-7.14607e-08
4.04382e-08
-7.20494e-08
4.89003e-08
-7.24934e-08
5.7399e-08
-7.28049e-08
6.59201e-08
-7.29991e-08
7.44512e-08
-7.30908e-08
8.29823e-08
-7.30928e-08
9.15047e-08
-7.30155e-08
1.00011e-07
-7.28657e-08
1.08492e-07
-7.26455e-08
1.16941e-07
-7.2352e-08
1.25348e-07
-7.19785e-08
1.33702e-07
-7.15144e-08
1.41988e-07
-7.09477e-08
1.50189e-07
-7.02656e-08
1.58288e-07
-6.94558e-08
1.66264e-07
-6.8507e-08
1.74095e-07
-6.74082e-08
1.8176e-07
-6.61464e-08
1.89236e-07
-6.47022e-08
1.96497e-07
-6.30436e-08
2.03505e-07
-6.11218e-08
2.10209e-07
-5.88757e-08
2.16539e-07
-5.62502e-08
2.22417e-07
-5.32304e-08
2.2777e-07
-4.9872e-08
2.32557e-07
-4.63003e-08
2.36769e-07
-4.26762e-08
2.40431e-07
-3.91538e-08
2.4359e-07
-3.58574e-08
2.46316e-07
-3.28897e-08
2.48708e-07
-3.03547e-08
2.5093e-07
-2.83769e-08
2.53251e-07
-2.70327e-08
2.5598e-07
-2.61197e-08
-2.4021e-08
2.5899e-07
-4.77625e-09
4.34312e-08
-1.02363e-08
4.98661e-08
-1.56859e-08
4.98352e-08
-2.10489e-08
4.91155e-08
-2.62957e-08
4.81384e-08
-3.14036e-08
4.69624e-08
-3.63542e-08
4.56198e-08
-4.11335e-08
4.41432e-08
-4.57318e-08
4.25648e-08
-5.01443e-08
4.09178e-08
-5.43694e-08
3.92322e-08
-5.84095e-08
3.75346e-08
-6.22693e-08
3.5848e-08
-6.59558e-08
3.419e-08
-6.94773e-08
3.2574e-08
-7.28425e-08
3.10058e-08
-7.60601e-08
2.94882e-08
-7.9138e-08
2.80187e-08
-8.20828e-08
2.65908e-08
-8.48997e-08
2.51945e-08
-8.75917e-08
2.38174e-08
-9.01601e-08
2.24453e-08
-9.26037e-08
2.10628e-08
-9.49193e-08
1.96541e-08
-9.71015e-08
1.82035e-08
-9.91432e-08
1.66963e-08
-1.01035e-07
1.51188e-08
-1.02768e-07
1.34586e-08
-1.04328e-07
1.17052e-08
-1.05704e-07
9.84976e-09
-1.06882e-07
7.88528e-09
-1.07849e-07
5.80658e-09
-1.08588e-07
3.61022e-09
-1.09087e-07
1.29447e-09
-1.09331e-07
-1.14081e-09
-1.09304e-07
-3.6942e-09
-1.08994e-07
-6.36292e-09
-1.08387e-07
-9.1426e-09
-1.0747e-07
-1.20275e-08
-1.06231e-07
-1.50103e-08
-1.04659e-07
-1.80824e-08
-1.02744e-07
-2.12336e-08
-1.00478e-07
-2.44524e-08
-9.78536e-08
-2.77258e-08
-9.48658e-08
-3.10394e-08
-9.15107e-08
-3.43779e-08
-8.77868e-08
-3.77245e-08
-8.36942e-08
-4.10615e-08
-7.92356e-08
-4.43707e-08
-7.44155e-08
-4.76331e-08
-6.92409e-08
-5.08294e-08
-6.37208e-08
-5.39403e-08
-5.78667e-08
-5.69469e-08
-5.16919e-08
-5.98307e-08
-4.52121e-08
-6.25745e-08
-3.84446e-08
-6.5162e-08
-3.14087e-08
-6.75788e-08
-2.4125e-08
-6.98124e-08
-1.66154e-08
-7.18528e-08
-8.90267e-09
-7.36926e-08
-1.01026e-09
-7.53273e-08
7.03828e-09
-7.67559e-08
1.52193e-08
-7.79797e-08
2.35094e-08
-7.90047e-08
3.18882e-08
-7.98396e-08
4.03342e-08
-8.04955e-08
4.88296e-08
-8.09887e-08
5.73577e-08
-8.13331e-08
6.59046e-08
-8.15459e-08
7.44583e-08
-8.16446e-08
8.30094e-08
-8.16439e-08
9.155e-08
-8.15561e-08
1.00073e-07
-8.13891e-08
1.08573e-07
-8.11451e-08
1.17042e-07
-8.08211e-08
1.25472e-07
-8.04085e-08
1.33852e-07
-7.98945e-08
1.42169e-07
-7.92643e-08
1.50405e-07
-7.85019e-08
1.58542e-07
-7.75925e-08
1.66558e-07
-7.65229e-08
1.74432e-07
-7.5282e-08
1.82143e-07
-7.38577e-08
1.89672e-07
-7.22312e-08
1.96996e-07
-7.03675e-08
2.04081e-07
-6.82073e-08
2.10875e-07
-6.56693e-08
2.17297e-07
-6.26728e-08
2.23254e-07
-5.91872e-08
2.28659e-07
-5.5277e-08
2.33461e-07
-5.11021e-08
2.37652e-07
-4.68675e-08
2.41263e-07
-4.27642e-08
2.44344e-07
-3.89383e-08
2.46963e-07
-3.55086e-08
2.49218e-07
-3.26096e-08
2.51293e-07
-3.04524e-08
2.53565e-07
-2.9305e-08
2.56564e-07
-2.91184e-08
-2.77143e-08
2.60257e-07
-4.83996e-09
4.82712e-08
-1.03636e-08
5.53898e-08
-1.5873e-08
5.53446e-08
-2.12908e-08
5.45333e-08
-2.65865e-08
5.34341e-08
-3.17358e-08
5.21117e-08
-3.672e-08
5.06039e-08
-4.15248e-08
4.8948e-08
-4.61406e-08
4.71807e-08
-5.05632e-08
4.53404e-08
-5.47917e-08
4.34607e-08
-5.88296e-08
4.15724e-08
-6.26827e-08
3.97011e-08
-6.63595e-08
3.78668e-08
-6.98692e-08
3.60837e-08
-7.32222e-08
3.43587e-08
-7.6428e-08
3.26941e-08
-7.94957e-08
3.10864e-08
-8.24327e-08
2.95278e-08
-8.52448e-08
2.80066e-08
-8.79357e-08
2.65083e-08
-9.05067e-08
2.50163e-08
-9.29567e-08
2.35129e-08
-9.52826e-08
2.198e-08
-9.74789e-08
2.03998e-08
-9.9538e-08
1.87555e-08
-1.01451e-07
1.70315e-08
-1.03206e-07
1.5214e-08
-1.04792e-07
1.32911e-08
-1.06195e-07
1.1253e-08
-1.07402e-07
9.0919e-09
-1.08397e-07
6.80207e-09
-1.09167e-07
4.37976e-09
-1.09696e-07
1.8231e-09
-1.09968e-07
-8.67994e-10
-1.09971e-07
-3.69191e-09
-1.09688e-07
-6.64544e-09
-1.09107e-07
-9.72377e-09
-1.08214e-07
-1.29204e-08
-1.06997e-07
-1.62274e-08
-1.05444e-07
-1.96349e-08
-1.03546e-07
-2.31317e-08
-1.01294e-07
-2.67049e-08
-9.86795e-08
-3.03401e-08
-9.56976e-08
-3.40213e-08
-9.23444e-08
-3.77311e-08
-8.86179e-08
-4.1451e-08
-8.45182e-08
-4.51612e-08
-8.00477e-08
-4.88412e-08
-7.5211e-08
-5.24698e-08
-7.00149e-08
-5.60255e-08
-6.44687e-08
-5.94865e-08
-5.85838e-08
-6.28318e-08
-5.2374e-08
-6.60406e-08
-4.58551e-08
-6.90934e-08
-3.90449e-08
-7.19721e-08
-3.19632e-08
-7.46605e-08
-2.46313e-08
-7.71444e-08
-1.70715e-08
-7.94125e-08
-9.30761e-09
-8.14565e-08
-1.36369e-09
-8.32712e-08
6.73592e-09
-8.48555e-08
1.49669e-08
-8.62106e-08
2.33044e-08
-8.73422e-08
3.17276e-08
-8.82628e-08
4.0215e-08
-8.89828e-08
4.87475e-08
-8.95212e-08
5.73087e-08
-8.98943e-08
6.58844e-08
-9.01217e-08
7.44634e-08
-9.02235e-08
8.30367e-08
-9.02172e-08
9.15975e-08
-9.01169e-08
1.0014e-07
-8.99319e-08
1.0866e-07
-8.96651e-08
1.17152e-07
-8.93127e-08
1.25608e-07
-8.88645e-08
1.34019e-07
-8.83052e-08
1.42371e-07
-8.76163e-08
1.50647e-07
-8.67781e-08
1.58827e-07
-8.57725e-08
1.66889e-07
-8.45847e-08
1.74811e-07
-8.32039e-08
1.82574e-07
-8.16208e-08
1.90162e-07
-7.98194e-08
1.97558e-07
-7.77636e-08
2.04734e-07
-7.53833e-08
2.11635e-07
-7.25707e-08
2.18172e-07
-6.92092e-08
2.24228e-07
-6.5243e-08
2.29697e-07
-6.07462e-08
2.34517e-07
-5.59225e-08
2.38683e-07
-5.10331e-08
2.42231e-07
-4.63124e-08
2.45219e-07
-4.19259e-08
2.47708e-07
-3.79975e-08
2.49781e-07
-3.46826e-08
2.51623e-07
-3.22944e-08
2.53738e-07
-3.14204e-08
2.56978e-07
-3.23588e-08
-3.22501e-08
2.61514e-07
-4.91165e-09
5.31828e-08
-1.05068e-08
6.09849e-08
-1.60837e-08
6.09215e-08
-2.15632e-08
6.00128e-08
-2.69133e-08
5.87841e-08
-3.21088e-08
5.73072e-08
-3.71301e-08
5.56253e-08
-4.19628e-08
5.37807e-08
-4.65975e-08
5.18154e-08
-5.10303e-08
4.97731e-08
-5.52615e-08
4.76919e-08
-5.92957e-08
4.56066e-08
-6.31402e-08
4.35456e-08
-6.68048e-08
4.15314e-08
-7.03004e-08
3.95793e-08
-7.36387e-08
3.7697e-08
-7.68306e-08
3.5886e-08
-7.98862e-08
3.4142e-08
-8.2814e-08
3.24556e-08
-8.56205e-08
3.08131e-08
-8.83098e-08
2.91976e-08
-9.08836e-08
2.759e-08
-9.3341e-08
2.59702e-08
-9.56786e-08
2.43176e-08
-9.78908e-08
2.2612e-08
-9.99697e-08
2.08344e-08
-1.01906e-07
1.89674e-08
-1.03687e-07
1.69955e-08
-1.05302e-07
1.49056e-08
-1.06735e-07
1.26868e-08
-1.07974e-07
1.03305e-08
-1.09003e-07
7.83053e-09
-1.09806e-07
5.18274e-09
-1.10368e-07
2.3852e-09
-1.10673e-07
-5.6212e-10
-1.10708e-07
-3.65737e-09
-1.10457e-07
-6.89695e-09
-1.09905e-07
-1.02755e-08
-1.09039e-07
-1.3786e-08
-1.07847e-07
-1.74195e-08
-1.06317e-07
-2.11653e-08
-1.04437e-07
-2.50108e-08
-1.022e-07
-2.89422e-08
-9.95972e-08
-3.29431e-08
-9.66223e-08
-3.69961e-08
-9.32715e-08
-4.1082e-08
-8.95423e-08
-4.51801e-08
-8.5435e-08
-4.92686e-08
-8.09515e-08
-5.33247e-08
-7.60965e-08
-5.73249e-08
-7.08767e-08
-6.12452e-08
-6.53014e-08
-6.50618e-08
-5.93824e-08
-6.87508e-08
-5.31335e-08
-7.22894e-08
-4.65711e-08
-7.56559e-08
-3.97134e-08
-7.88299e-08
-3.25806e-08
-8.17933e-08
-2.51947e-08
-8.45303e-08
-1.75789e-08
-8.70283e-08
-9.75765e-09
-8.92777e-08
-1.75601e-09
-9.12729e-08
6.40083e-09
-9.30123e-08
1.46855e-08