/*--------------------------------*- C++ -*----------------------------------*\
| =========                 |                                                 |
| \\      /  F ield         | OpenFOAM: The Open Source CFD Toolbox           |
|  \\    /   O peration     | Version:  2.4.0                                 |
|   \\  /    A nd           | Web:      www.OpenFOAM.org                      |
|    \\/     M anipulation  |                                                 |
\*---------------------------------------------------------------------------*/
FoamFile
{
    version     2.0;
    format      ascii;
    class       surfaceScalarField;
    location    "0.138";
    object      phiAlpha;
}
// * * * * * * * * * * * * * * * * * * * * * * * * * * * * * * * * * * * * * //

dimensions      [0 3 -1 0 0 0 0];

internalField   nonuniform List<scalar> 
114720
(
-1.05226e-09
1.67621e-09
2.59622e-09
-3.22017e-09
2.16864e-09
-1.55089e-09
4.12291e-10
-1.03004e-09
-2.74671e-09
4.63877e-09
8.91966e-10
-2.78403e-09
-1.07324e-08
1.25944e-08
7.37359e-10
-2.59936e-09
-1.7819e-08
1.92442e-08
4.78778e-10
-1.90395e-09
-2.31025e-08
2.42015e-08
3.31672e-10
-1.43064e-09
-2.74268e-08
2.82811e-08
2.09133e-10
-1.06343e-09
-3.00913e-08
3.02978e-08
-1.28449e-10
-7.80436e-11
-2.9555e-08
2.8792e-08
-5.84855e-10
1.3479e-09
-2.42751e-08
2.21408e-08
-1.16219e-09
3.29649e-09
-1.34298e-08
1.02368e-08
-1.47352e-09
4.66652e-09
1.18125e-10
-3.26171e-09
-1.21707e-09
4.36065e-09
1.18999e-08
-1.41473e-08
-7.00078e-10
2.94747e-09
1.9725e-08
-2.1061e-08
-3.13529e-10
1.64947e-09
2.42339e-08
-2.49709e-08
-1.26777e-10
8.63802e-10
2.66808e-08
-2.70589e-08
-4.542e-11
4.23565e-10
2.7822e-08
-2.79354e-08
1.36406e-11
9.97877e-11
2.79134e-08
-2.77912e-08
7.96589e-11
-2.01871e-10
2.70719e-08
-2.67468e-08
1.47159e-10
-4.72307e-10
2.54573e-08
-2.49762e-08
2.04306e-10
-6.8535e-10
2.32756e-08
-2.26906e-08
2.45228e-10
-8.30249e-10
2.07411e-08
-2.01008e-08
2.68331e-10
-9.08674e-10
1.80416e-08
-1.73846e-08
2.75955e-10
-9.32966e-10
1.53193e-08
-1.46738e-08
2.71867e-10
-9.17316e-10
1.26744e-08
-1.20571e-08
2.60451e-10
-8.77763e-10
1.01665e-08
-9.58808e-09
2.44332e-10
-8.22768e-10
7.82873e-09
-7.2937e-09
2.26171e-10
-7.61206e-10
5.67598e-09
-5.18657e-09
2.06986e-10
-6.96388e-10
3.71334e-09
-3.26966e-09
1.87679e-10
-6.31358e-10
1.93632e-09
-1.53609e-09
1.69382e-10
-5.69612e-10
3.58045e-09
1.38866e-08
-1.05333e-08
-6.93374e-09
9.69137e-09
4.4628e-09
-8.9455e-09
-5.20866e-09
2.19282e-09
1.13162e-08
8.49898e-10
-1.43589e-08
-1.12465e-08
1.15333e-08
1.47468e-08
-1.50336e-08
-2.50945e-08
9.47603e-09
2.82478e-08
-1.26294e-08
-3.72316e-08
8.12332e-09
4.00515e-08
-1.09432e-08
-4.82046e-08
6.37241e-09
5.06353e-08
-8.80315e-09
-5.68118e-08
2.5069e-09
5.83503e-08
-4.04543e-09
-6.10909e-08
-3.54395e-09
6.11821e-08
3.4528e-09
-5.82571e-08
-1.19779e-08
5.61006e-08
1.41344e-08
-4.59558e-08
-1.83118e-08
4.16525e-08
2.26151e-08
-2.67465e-08
-1.86293e-08
2.16048e-08
2.3771e-08
-6.28145e-09
-1.45792e-08
1.60779e-09
1.92528e-08
1.10374e-08
-9.73752e-09
-1.45717e-08
1.32719e-08
2.34701e-08
-5.90603e-09
-2.5788e-08
8.22393e-09
3.12634e-08
-3.16068e-09
-3.25812e-08
4.47845e-09
3.53544e-08
-1.0119e-09
-3.58916e-08
1.54912e-09
3.6568e-08
7.42554e-10
-3.65112e-08
-7.99369e-10
3.56456e-08
2.08595e-09
-3.51709e-08
-2.56066e-09
3.32744e-08
3.00795e-09
-3.25368e-08
-3.74555e-09
3.00352e-08
3.55174e-09
-2.91564e-08
-4.43057e-09
2.63675e-08
3.79222e-09
-2.54352e-08
-4.72454e-09
2.25806e-08
3.81504e-09
-2.16535e-08
-4.7422e-09
1.88779e-08
3.69243e-09
-1.79936e-08
-4.57682e-09
1.53848e-08
3.48395e-09
-1.45644e-08
-4.30435e-09
1.21698e-08
3.2299e-09
-1.1423e-08
-3.97673e-09
9.25477e-09
2.96162e-09
-8.58154e-09
-3.63486e-09
6.63287e-09
2.69189e-09
-6.02858e-09
-3.29618e-09
4.28036e-09
2.43472e-09
-3.73738e-09
-2.9777e-09
2.16559e-09
2.19044e-09
-1.67793e-09
-2.6781e-09
4.10537e-09
2.87291e-08
-2.48899e-08
-7.94458e-09
1.2419e-08
7.0029e-09
-1.18958e-08
-7.52605e-09
5.48329e-09
2.34213e-08
-2.48142e-09
-2.64231e-08
-8.0291e-09
2.57642e-08
1.16229e-08
-2.9358e-08
-2.23609e-08
2.24548e-08
2.56617e-08
-2.57556e-08
-3.51651e-08
1.9871e-08
3.81893e-08
-2.28952e-08
-4.70534e-08
1.66542e-08
4.97407e-08
-1.93415e-08
-5.67578e-08
9.3274e-09
5.86056e-08
-1.11752e-08
-6.24704e-08
-2.24687e-09
6.30055e-08
1.71174e-09
-6.17725e-08
-1.92981e-08
6.02677e-08
2.08029e-08
-5.23354e-08
-3.41248e-08
4.87962e-08
3.7664e-08
-3.6211e-08
-3.80716e-08
3.17866e-08
4.2496e-08
-1.83413e-08
-3.27317e-08
1.41474e-08
3.69256e-08
-2.5197e-09
-2.38532e-08
-8.20715e-10
2.71936e-08
9.4529e-09
-1.53853e-08
-1.17648e-08
1.76972e-08
1.73742e-08
-8.68211e-09
-1.87763e-08
1.00842e-08
2.19235e-08
-3.45563e-09
-2.26222e-08
4.15432e-09
2.39037e-08
6.13519e-10
-2.40778e-08
-4.39426e-10
2.39957e-08
3.57556e-09
-2.37971e-08
-3.7742e-09
2.27798e-08
5.51697e-09
-2.23364e-08
-5.9603e-09
2.0735e-08
6.61657e-09
-2.01478e-08
-7.2037e-09
1.82305e-08
7.07808e-09
-1.75757e-08
-7.73284e-09
1.55433e-08
7.09225e-09
-1.48772e-08
-7.7584e-09
1.28769e-08
6.80794e-09
-1.22403e-08
-7.44454e-09
1.03761e-08
6.34611e-09
-9.79665e-09
-6.92555e-09
8.13401e-09
5.79666e-09
-7.6263e-09
-6.30437e-09
6.18724e-09
5.23647e-09
-5.75157e-09
-5.67214e-09
4.52005e-09
4.70449e-09
-4.14636e-09
-5.07818e-09
3.08222e-09
4.22799e-09
-2.75556e-09
-4.55466e-09
1.81446e-09
3.79827e-09
-1.52266e-09
-4.09006e-09
4.27519e-09
4.44771e-08
-4.04949e-08
-8.25736e-09
1.30645e-08
9.04303e-09
-1.25586e-08
-9.54898e-09
6.13555e-09
3.5432e-08
-3.12323e-09
-3.84444e-08
-7.43542e-09
4.01611e-08
1.10454e-08
-4.37711e-08
-2.18226e-08
3.56532e-08
2.51197e-08
-3.89503e-08
-3.46029e-08
3.19945e-08
3.76411e-08
-3.50327e-08
-4.66035e-08
2.74745e-08
4.93334e-08
-3.02045e-08
-5.64716e-08
1.68034e-08
5.83705e-08
-1.87023e-08
-6.24451e-08
1.91688e-11
6.30553e-08
-6.2934e-10
-6.20968e-08
-2.51604e-08
6.06636e-08
2.65936e-08
-5.29195e-08
-4.80509e-08
4.94507e-08
5.15197e-08
-3.72323e-08
-5.532e-08
3.29952e-08
5.95571e-08
-2.032e-08
-4.89063e-08
1.64245e-08
5.28018e-08
-5.72391e-09
-3.66969e-08
2.6612e-09
3.97596e-08
5.30087e-09
-2.43604e-08
-7.46418e-09
2.65237e-08
1.28351e-08
-1.42524e-08
-1.42229e-08
1.56402e-08
1.74899e-08
-6.39109e-09
-1.82752e-08
7.17642e-09
1.99338e-08
-3.44584e-10
-2.02599e-08
6.70636e-10
2.06916e-08
4.05657e-09
-2.06699e-08
-4.07831e-09
2.01905e-08
6.98201e-09
-1.9918e-08
-7.25458e-09
1.88087e-08
8.69139e-09
-1.83709e-08
-9.12915e-09
1.68697e-08
9.46917e-09
-1.63374e-08
-1.00014e-08
1.46364e-08
9.57501e-09
-1.40647e-08
-1.01467e-08
1.23118e-08
9.21398e-09
-1.17432e-08
-9.78265e-09
1.00501e-08
8.55564e-09
-9.51581e-09
-9.08994e-09
7.9633e-09
7.73954e-09
-7.48383e-09
-8.21901e-09
6.11303e-09
6.90142e-09
-5.695e-09
-7.31945e-09
4.5069e-09
6.12754e-09
-4.1446e-09
-6.48984e-09
3.10857e-09
5.4695e-09
-2.78923e-09
-5.78884e-09
1.86567e-09
4.90874e-09
-1.57815e-09
-5.19626e-09
4.4106e-09
6.06696e-08
-5.65811e-08
-8.49909e-09
1.33962e-08
1.11001e-08
-1.28644e-08
-1.16319e-08
6.34192e-09
4.75225e-08
-3.3001e-09
-5.05643e-08
-7.33348e-09
5.46298e-08
1.09632e-08
-5.82595e-08
-2.17921e-08
4.88343e-08
2.50842e-08
-5.21264e-08
-3.45247e-08
4.41582e-08
3.75703e-08
-4.72038e-08
-4.66179e-08
3.84511e-08
4.93876e-08
-4.12209e-08
-5.66309e-08
2.44734e-08
5.85825e-08
-2.64249e-08
-6.28975e-08
2.57696e-09
6.35913e-08
-3.27074e-09
-6.29375e-08
-3.08403e-08
6.15468e-08
3.2231e-08
-5.36775e-08
-6.20819e-08
5.00941e-08
6.56653e-08
-3.74618e-08
-7.24112e-08
3.31015e-08
7.67715e-08
-2.01711e-08
-6.44869e-08
1.62388e-08
6.84193e-08
-5.53955e-09
-4.88619e-08
2.50148e-09
5.19e-08
5.37271e-09
-3.29589e-08
-7.51497e-09
3.51012e-08
1.28748e-08
-1.98264e-08
-1.42787e-08
2.12303e-08
1.76472e-08
-9.61445e-09
-1.84791e-08
1.04463e-08
2.03039e-08
-1.75679e-09
-2.06878e-08
2.14069e-09
2.12959e-08
4.03511e-09
-2.13295e-08
-4.00154e-09
2.10101e-08
7.97523e-09
-2.0786e-08
-8.19928e-09
1.9815e-08
1.03593e-08
-1.94197e-08
-1.07546e-08
1.8039e-08
1.15291e-08
-1.75429e-08
-1.20252e-08
1.59387e-08
1.18128e-08
-1.53935e-08
-1.23581e-08
1.37006e-08
1.14668e-08
-1.31435e-08
-1.20239e-08
1.1455e-08
1.07055e-08
-1.09111e-08
-1.12495e-08
9.29147e-09
9.708e-09
-8.77744e-09
-1.0222e-08
7.26346e-09
8.65837e-09
-6.78726e-09
-9.13458e-09
5.39347e-09
7.68468e-09
-4.95662e-09
-8.12154e-09
3.68032e-09
6.86348e-09
-3.28012e-09
-7.26368e-09
2.11114e-09
6.17179e-09
-1.74529e-09
-6.53765e-09
4.574e-09
7.73302e-08
-7.31156e-08
-8.78853e-09
1.37594e-08
1.3284e-08
-1.31872e-08
-1.38563e-08
6.5324e-09
5.97452e-08
-3.452e-09
-6.28256e-08
-7.2722e-09
6.9184e-08
1.0926e-08
-7.28378e-08
-2.18233e-08
6.19935e-08
2.51086e-08
-6.52788e-08
-3.44887e-08
5.63528e-08
3.75423e-08
-5.94064e-08
-4.66973e-08
4.96023e-08
4.95174e-08
-5.24223e-08
-5.68851e-08
3.23772e-08
5.89049e-08
-3.43969e-08
-6.3534e-08
5.50357e-09
6.43317e-08
-6.30129e-09
-6.41235e-08
-3.62986e-08
6.28094e-08
3.76127e-08
-5.4816e-08
-7.66288e-08
5.10846e-08
8.03601e-08
-3.78579e-08
-9.01404e-08
3.32962e-08
9.47021e-08
-1.98302e-08
-8.04072e-08
1.57614e-08
8.4476e-08
-4.76783e-09
-6.10947e-08
1.66928e-09
6.41933e-08
6.30872e-09
-4.15489e-08
-8.46656e-09
4.37067e-08
1.3858e-08
-2.54619e-08
-1.52732e-08
2.68771e-08
1.86909e-08
-1.29764e-08
-1.95427e-08
1.38282e-08
2.14284e-08
-3.3241e-09
-2.18294e-08
3.72514e-09
2.24731e-08
3.88391e-09
-2.25128e-08
-3.84421e-09
2.21989e-08
8.86371e-09
-2.19739e-08
-9.08867e-09
2.09966e-08
1.19326e-08
-2.06006e-08
-1.23285e-08
1.92163e-08
1.35043e-08
-1.87203e-08
-1.40003e-08
1.71202e-08
1.39833e-08
-1.65768e-08
-1.45267e-08
1.48864e-08
1.36925e-08
-1.43278e-08
-1.42511e-08
1.26219e-08
1.28975e-08
-1.20665e-08
-1.34529e-08
1.03884e-08
1.18089e-08
-9.84659e-09
-1.23507e-08
8.21982e-09
1.06389e-08
-7.69781e-09
-1.11609e-08
6.14143e-09
9.53074e-09
-5.64539e-09
-1.00268e-08
4.17746e-09
8.57223e-09
-3.71263e-09
-9.03705e-09
2.34723e-09
7.74e-09
-1.91868e-09
-8.16855e-09
4.77577e-09
9.45614e-08
-9.01938e-08
-9.14329e-09
1.42056e-08
1.56508e-08
-1.35782e-08
-1.62782e-08
6.76095e-09
7.21357e-08
-3.63265e-09
-7.5264e-08
-7.20095e-09
8.38414e-08
1.08843e-08
-8.75247e-08
-2.18711e-08
7.51221e-08
2.51476e-08
-7.83986e-08
-3.44444e-08
6.85806e-08
3.75072e-08
-7.16434e-08
-4.67979e-08
6.09722e-08
4.96806e-08
-6.38549e-08
-5.71883e-08
4.05792e-08
5.92941e-08
-4.26851e-08
-6.43095e-08
8.86323e-09
6.52206e-08
-9.77431e-09
-6.56074e-08
-4.13996e-08
6.4405e-08
4.2602e-08
-5.62722e-08
-9.18158e-08
5.23582e-08
9.57298e-08
-3.83915e-08
-1.08746e-07
3.358e-08
1.13557e-07
-1.94504e-08
-9.69303e-08
1.521e-08
1.01171e-07
-3.83663e-09
-7.36057e-08
6.57686e-10
7.67847e-08
7.45793e-09
-5.02091e-08
-9.6347e-09
5.23858e-08
1.50485e-08
-3.1132e-08
-1.64689e-08
3.25524e-08
1.99165e-08
-1.64041e-08
-2.07822e-08
1.72698e-08
2.27084e-08
-4.94163e-09
-2.31184e-08
5.35169e-09
2.37649e-08
3.73496e-09
-2.37965e-08
-3.70333e-09
2.34351e-08
9.79165e-09
-2.31882e-08
-1.00385e-08
2.21338e-08
1.3555e-08
-2.17092e-08
-1.39796e-08
2.02433e-08
1.55201e-08
-1.97215e-08
-1.60419e-08
1.80474e-08
1.61836e-08
-1.74814e-08
-1.67496e-08
1.57264e-08
1.59508e-08
-1.51479e-08
-1.65293e-08
1.33822e-08
1.51456e-08
-1.28068e-08
-1.5721e-08
1.10639e-08
1.40109e-08
-1.0499e-08
-1.45757e-08
8.79511e-09
1.27724e-08
-8.2456e-09
-1.33219e-08
6.5994e-09
1.15684e-08
-6.07236e-09
-1.20955e-08
4.50721e-09
1.04883e-08
-4.01007e-09
-1.09855e-08
2.54705e-09
9.50917e-09
-2.08713e-09
-9.96909e-09
5.02178e-09
1.1248e-07
-1.0793e-07
-9.57242e-09
1.47377e-08
1.82628e-08
-1.40383e-08
-1.89622e-08
7.0305e-09
8.47302e-08
-3.84597e-09
-8.79147e-08
-7.1127e-09
9.86234e-08
1.08298e-08
-1.02341e-07
-2.19277e-08
8.82102e-08
2.51917e-08
-9.14742e-08
-3.43726e-08
8.08449e-08
3.74444e-08
-8.39166e-08
-4.68998e-08
7.26114e-08
4.98579e-08
-7.55696e-08
-5.75104e-08
4.91562e-08
5.97239e-08
-5.13696e-08
-6.51989e-08
1.26757e-08
6.62197e-08
-1.36965e-08
-6.73836e-08
-4.59886e-08
6.63392e-08
4.70329e-08
-5.80423e-08
-1.07793e-07
5.39045e-08
1.11931e-07
-3.90245e-08
-1.28428e-07
3.39098e-08
1.33543e-07
-1.89906e-08
-1.14183e-07
1.45495e-08
1.18624e-07
-2.73759e-09
-8.64545e-08
-5.32411e-10
8.97245e-08
8.79184e-09
-5.89393e-08
-1.09836e-08
6.1131e-08
1.6402e-08
-3.68155e-08
-1.78226e-08
3.82361e-08
2.12964e-08
-1.98902e-08
-2.21789e-08
2.07727e-08
2.416e-08
-6.59869e-09
-2.45829e-08
7.02152e-09
2.52336e-08
3.62516e-09
-2.52537e-08
-3.60501e-09
2.48201e-08
1.08253e-08
-2.45404e-08
-1.1105e-08
2.33672e-08
1.53131e-08
-2.29002e-08
-1.57801e-08
2.13002e-08
1.76686e-08
-2.07344e-08
-1.82343e-08
1.89297e-08
1.85042e-08
-1.8323e-08
-1.9111e-08
1.64505e-08
1.83146e-08
-1.58361e-08
-1.8929e-08
1.39695e-08
1.74895e-08
-1.33641e-08
-1.80949e-08
1.15388e-08
1.63056e-08
-1.095e-08
-1.68945e-08
9.18136e-09
1.49998e-08
-8.61324e-09
-1.55679e-08
6.91654e-09
1.37019e-08
-6.37464e-09
-1.42438e-08
4.76703e-09
1.25006e-08
-4.25643e-09
-1.30112e-08
2.7521e-09
1.13727e-08
-2.2783e-09
-1.18465e-08
5.31537e-09
1.31207e-07
-1.26443e-07
-1.00792e-08
1.53634e-08
2.11921e-08
-1.45719e-08
-2.19836e-08
7.34367e-09
9.7565e-08
-4.09282e-09
-1.00816e-07
-7.00954e-09
1.1355e-07
1.07661e-08
-1.17306e-07
-2.20052e-08
1.01245e-07
2.52542e-08
-1.04494e-07
-3.42805e-08
9.31464e-08
3.73618e-08
-9.62277e-08
-4.70188e-08
8.45763e-08
5.00686e-08
-8.76261e-08
-5.78634e-08
5.82043e-08
6.02129e-08
-6.05538e-08
-6.6227e-08
1.69009e-08
6.73352e-08
-1.80091e-08
-6.95063e-08
-4.98579e-08
6.86825e-08
5.06818e-08
-6.01844e-08
-1.24737e-07
5.57745e-08
1.29147e-07
-3.97665e-08
-1.49417e-07
3.42847e-08
1.54899e-07
-1.84326e-08
-1.32288e-07
1.37583e-08
1.36962e-07
-1.44233e-09
-9.96847e-08
-1.92929e-09
1.03056e-07
1.03369e-08
-6.77224e-08
-1.25374e-08
6.99229e-08
1.79334e-08
-4.24906e-08
-1.93471e-08
4.39043e-08
2.28477e-08
-2.34537e-08
-2.37545e-08
2.43605e-08
2.58228e-08
-8.31982e-09
-2.62681e-08
8.76509e-09
2.69386e-08
3.56266e-09
-2.69469e-08
-3.55443e-09
2.64262e-08
1.20037e-08
-2.61049e-08
-1.23251e-08
2.47803e-08
1.72592e-08
-2.4259e-08
-1.77805e-08
2.2488e-08
2.00124e-08
-2.18662e-08
-2.06342e-08
1.98944e-08
2.10072e-08
-1.92351e-08
-2.16666e-08
1.72114e-08
2.08388e-08
-1.6551e-08
-2.14993e-08
1.45569e-08
1.99651e-08
-1.39145e-08
-2.06074e-08
1.19925e-08
1.86996e-08
-1.13775e-08
-1.93146e-08
9.54553e-09
1.72964e-08
-8.96176e-09
-1.78802e-08
7.22978e-09
1.58834e-08
-6.67955e-09
-1.64337e-08
5.05186e-09
1.45534e-08
-4.53547e-09
-1.50698e-08
3.01114e-09
1.32809e-08
-2.52935e-09
-1.37627e-08
5.6609e-09
1.50862e-07
-1.45855e-07
-1.06681e-08
1.60853e-08
2.45222e-08
-1.518e-08
-2.54275e-08
7.70046e-09
1.10681e-07
-4.3722e-09
-1.14009e-07
-6.89134e-09
1.28642e-07
1.0693e-08
-1.32444e-07
-2.21094e-08
1.14216e-07
2.53408e-08
-1.17447e-07
-3.41613e-08
1.05486e-07
3.72527e-08
-1.08578e-07
-4.71541e-08
9.69354e-08
5.03153e-08
-1.00097e-07
-5.82373e-08
6.78485e-08
6.07594e-08
-7.03706e-08
-6.73994e-08
2.1409e-08
6.85428e-08
-2.25524e-08
-7.20183e-08
-5.27261e-08
7.14995e-08
5.32449e-08
-6.27471e-08
-1.42848e-07
5.80108e-08
1.47584e-07
-4.06135e-08
-1.71979e-07
3.4692e-08
1.77901e-07
-1.7753e-08
-1.51375e-07
1.28115e-08
1.56316e-07
7.87974e-11
-1.13339e-07
-3.56303e-09
1.16823e-07
1.21151e-08
-7.65254e-08
-1.43134e-08
7.87237e-08
1.96414e-08
-4.81219e-08
-2.1036e-08
4.95165e-08
2.45619e-08
-2.71302e-08
-2.55047e-08
2.8073e-08
2.77116e-08
-1.0152e-08
-2.81949e-08
1.06353e-08
2.89126e-08
3.54634e-09
-2.89101e-08
-3.54886e-09
2.82861e-08
1.33628e-08
-2.79132e-08
-1.37357e-08
2.64027e-08
1.94394e-08
-2.58156e-08
-2.00266e-08
2.38392e-08
2.25961e-08
-2.31509e-08
-2.32844e-08
2.09829e-08
2.37339e-08
-2.02623e-08
-2.44545e-08
1.80631e-08
2.3558e-08
-1.73496e-08
-2.42715e-08
1.52093e-08
2.25961e-08
-1.45249e-08
-2.32805e-08
1.24944e-08
2.12016e-08
-1.18509e-08
-2.18451e-08
9.9534e-09
1.96536e-08
-9.35496e-09
-2.0252e-08
7.59633e-09
1.80918e-08
-7.04215e-09
-1.8646e-08
5.4113e-09
1.66213e-08
-4.89508e-09
-1.71375e-08
3.36774e-09
1.52157e-08
-2.88231e-09
-1.57011e-08
6.06354e-09
1.71571e-07
-1.66288e-07
-1.1347e-08
1.69e-08
2.8339e-08
-1.58601e-08
-2.93789e-08
8.09829e-09
1.24123e-07
-4.68096e-09
-1.2754e-07
-6.75501e-09
1.43921e-07
1.06056e-08
-1.47771e-07
-2.22398e-08
1.27111e-07
2.54504e-08
-1.30321e-07
-3.39944e-08
1.17866e-07
3.70953e-08
-1.20967e-07
-4.72871e-08
1.09775e-07
5.05846e-08
-1.13073e-07
-5.86021e-08
7.82442e-08
6.13386e-08
-8.09807e-08
-6.87064e-08
2.59242e-08
6.97818e-08
-2.69996e-08
-7.49523e-08
-5.42141e-08
7.48523e-08
5.43142e-08
-6.57683e-08
-1.62353e-07
6.0644e-08
1.67477e-07
-4.15402e-08
-1.96416e-07
3.51007e-08
2.02855e-07
-1.6919e-08
-1.7158e-07
1.16773e-08
1.76822e-07
1.85535e-09
-1.27458e-07
-5.46389e-09
1.31067e-07
1.41464e-08
-8.52953e-08
-1.63251e-08
8.7474e-08
2.15106e-08
-5.36469e-08
-2.28638e-08
5.50001e-08
2.64078e-08
-3.09749e-08
-2.74043e-08
3.19715e-08
2.98291e-08
-1.21695e-08
-3.03748e-08
1.27152e-08
3.11814e-08
3.57113e-09
-3.11694e-08
-3.58312e-09
3.04195e-08
1.49459e-08
-2.99825e-08
-1.53829e-08
2.82411e-08
2.19036e-08
-2.75736e-08
-2.25711e-08
2.53551e-08
2.54612e-08
-2.45899e-08
-2.62264e-08
2.21978e-08
2.67175e-08
-2.14078e-08
-2.75075e-08
1.90101e-08
2.64995e-08
-1.82367e-08
-2.7273e-08
1.59307e-08
2.54034e-08
-1.51984e-08
-2.61357e-08
1.30443e-08
2.38226e-08
-1.23683e-08
-2.44987e-08
1.03981e-08
2.20688e-08
-9.78507e-09
-2.26819e-08
8.00998e-09
2.03061e-08
-7.45935e-09
-2.08567e-08
5.86102e-09
1.86701e-08
-5.36019e-09
-1.91709e-08
3.88078e-09
1.71478e-08
-3.40698e-09
-1.76216e-08
6.52937e-09
1.93478e-07
-1.8788e-07
-1.21266e-08
1.78156e-08
3.27234e-08
-1.6622e-08
-3.3917e-08
8.54084e-09
1.37945e-07
-5.0185e-09
-1.41467e-07
-6.60267e-09
1.59403e-07
1.05067e-08
-1.63307e-07
-2.24143e-08
1.39921e-07
2.5603e-08
-1.4311e-07
-3.37813e-08
1.30285e-07
3.68927e-08
-1.33397e-07
-4.74328e-08
1.23211e-07
5.09025e-08
-1.2668e-07
-5.89709e-08
8.95677e-08
6.1969e-08
-9.25658e-08
-7.02096e-08
2.99113e-08
7.10196e-08
-3.07213e-08
-7.84199e-08
-5.38091e-08
7.88951e-08
5.33339e-08
-6.93525e-08
-1.8353e-07
6.37529e-08
1.8913e-07
-4.25381e-08
-2.23052e-07
3.54969e-08
2.30093e-07
-1.59081e-08
-1.93041e-07
1.03302e-08
1.98618e-07
3.92758e-09
-1.42094e-07
-7.67362e-09
1.4584e-07
1.6466e-08
-9.39548e-08
-1.86021e-08
9.60909e-08
2.3534e-08
-5.8956e-08
-2.48076e-08
6.02296e-08
2.8355e-08
-3.50734e-08
-2.94337e-08
3.61521e-08
3.22021e-08
-1.44882e-08
-3.2848e-08
1.5134e-08
3.38078e-08
3.63028e-09
-3.37883e-08
-3.6498e-09
3.28723e-08
1.68127e-08
-3.23509e-08
-1.73341e-08
3.0319e-08
2.47139e-08
-2.95542e-08
-2.54788e-08
2.70491e-08
2.86506e-08
-2.61951e-08
-2.95045e-08
2.35475e-08
2.99931e-08
-2.26786e-08
-3.0862e-08
2.00557e-08
2.96933e-08
-1.92138e-08
-3.05353e-08
1.67156e-08
2.84144e-08
-1.59265e-08
-2.92035e-08
1.36212e-08
2.65852e-08
-1.29038e-08
-2.73026e-08
1.08368e-08
2.45481e-08
-1.0203e-08
-2.51819e-08
8.40448e-09
2.24954e-08
-7.86027e-09
-2.30396e-08
6.32278e-09
2.0624e-08
-5.8531e-09
-2.10937e-08
4.4808e-09
1.8995e-08
-4.03878e-09
-1.9437e-08
7.06526e-09
2.16744e-07
-2.10791e-07
-1.30184e-08
1.88327e-08
3.77497e-08
-1.74676e-08
-3.91148e-08
9.02659e-09
1.52213e-07
-5.38165e-09
-1.55858e-07
-6.43282e-09
1.75102e-07
1.03923e-08
-1.79062e-07
-2.26432e-08
1.52644e-07
2.58105e-08
-1.55811e-07
-3.35045e-08
1.42749e-07
3.66277e-08
-1.45872e-07
-4.75816e-08
1.37407e-07
5.1276e-08
-1.41102e-07
-5.93202e-08
1.02022e-07
6.26466e-08
-1.05349e-07
-7.19799e-08
3.23444e-08
7.21473e-08
-3.25118e-08
-8.25463e-08
-5.07972e-08
8.38141e-08
4.95294e-08
-7.35954e-08
-2.0679e-07
6.73944e-08
2.12991e-07
-4.35615e-08
-2.52215e-07
3.58413e-08
2.59935e-07
-1.46883e-08
-2.15902e-07
8.7366e-09
2.21853e-07
6.33954e-09
-1.57301e-07
-1.02377e-08
1.61199e-07
1.91123e-08
-1.02402e-07
-2.11772e-08
1.04467e-07
2.56876e-08
-6.3856e-08
-2.68123e-08
6.49807e-08
3.03347e-08
-3.95627e-08
-3.15417e-08
4.07698e-08
3.48512e-08
-1.7287e-08
-3.56553e-08
1.80911e-08
3.68632e-08
3.72017e-09
-3.68354e-08
-3.74799e-09
3.56875e-08
1.90594e-08
-3.50508e-08
-1.96962e-08
3.26431e-08
2.79444e-08
-3.17591e-08
-2.88284e-08
2.89172e-08
3.22161e-08
-2.79614e-08
-3.31719e-08
2.5026e-08
3.3598e-08
-2.40693e-08
-3.45546e-08
2.11929e-08
3.31762e-08
-2.02723e-08
-3.40967e-08
1.75479e-08
3.16701e-08
-1.66899e-08
-3.25281e-08
1.41914e-08
2.95347e-08
-1.3417e-08
-3.03091e-08
1.11954e-08
2.71402e-08
-1.05167e-08
-2.78188e-08
8.58914e-09
2.47114e-08
-8.0012e-09
-2.52994e-08
6.31259e-09
2.25359e-08
-5.78696e-09
-2.30615e-08
4.24994e-09
2.07827e-08
-3.76508e-09
-2.12675e-08
7.6801e-09
2.41548e-07
-2.35192e-07
-1.40362e-08
1.99538e-08
4.3489e-08
-1.83991e-08
-4.50437e-08
9.55149e-09
1.66997e-07
-5.76774e-09
-1.70781e-07
-6.24446e-09
1.91025e-07
1.02595e-08
-1.9504e-07
-2.29439e-08
1.65285e-07
2.6093e-08
-1.68434e-07
-3.31473e-08
1.55262e-07
3.62846e-08
-1.584e-07
-4.77275e-08
1.52612e-07
5.17272e-08
-1.56612e-07
-5.953e-08
1.16063e-07
6.34585e-08
-1.19992e-07
-7.40833e-08
3.13434e-08
7.29979e-08
-3.0258e-08
-8.74976e-08
-4.41976e-08
8.98769e-08
4.18182e-08
-7.85733e-08
-2.32614e-07
7.1698e-08
2.39489e-07
-4.4551e-08
-2.84194e-07
3.60855e-08
2.92659e-07
-1.32312e-08
-2.40322e-07
6.86242e-09
2.46691e-07
9.1457e-09
-1.73144e-07
-1.32139e-08
1.77212e-07
2.21379e-08
-1.10518e-07
-2.41007e-08
1.12481e-07
2.79404e-08
-6.79923e-08
-2.87878e-08
6.88397e-08
3.22392e-08
-4.46675e-08
-3.36506e-08
4.60788e-08
3.78129e-08
-2.08423e-08
-3.88659e-08
2.18952e-08
4.04647e-08
3.84846e-09
-4.04237e-08
-3.88944e-09
3.89203e-08
2.18354e-08
-3.81174e-08
-2.26383e-08
3.52124e-08
3.169e-08
-3.41827e-08
-3.27196e-08
3.09517e-08
3.62052e-08
-2.98832e-08
-3.72736e-08
2.66324e-08
3.75676e-08
-2.55788e-08
-3.86211e-08
2.24196e-08
3.69893e-08
-2.14098e-08
-3.79991e-08
1.84214e-08
3.52228e-08
-1.74797e-08
-3.61645e-08
1.47363e-08
3.27409e-08
-1.38857e-08
-3.35914e-08
1.14447e-08
2.99555e-08
-1.06977e-08
-3.07026e-08
8.55881e-09
2.7193e-08
-7.89636e-09
-2.78554e-08
5.94232e-09
2.48436e-08
-5.31582e-09
-2.54701e-08
3.44581e-09
2.28863e-08
-2.85808e-09
-2.3474e-08
8.38195e-09
2.68086e-07
-2.61277e-07
-1.51907e-08
2.11812e-08
5.00146e-08
-1.9418e-08
-5.17778e-08
1.01107e-08
1.82358e-07
-6.17437e-09
-1.86294e-07
-6.03646e-09
2.07165e-07
1.01031e-08
-2.11231e-07
-2.33398e-08
1.77863e-07
2.64786e-08
-1.81002e-07
-3.26883e-08
1.67838e-07
3.58439e-08
-1.70993e-07
-4.78609e-08
1.6921e-07
5.22894e-08
-1.73638e-07
-5.93501e-08
1.3361e-07
6.46239e-08
-1.38884e-07
-7.66829e-08
2.4561e-08
7.4068e-08
-2.19461e-08
-9.24307e-08
-3.19518e-08
9.71269e-08
2.72555e-08
-8.44026e-08
-2.60992e-07
7.69765e-08
2.68418e-07
-4.54643e-08
-3.19265e-07
3.61699e-08
3.2856e-07
-1.15148e-08
-2.66494e-07
4.66133e-09
2.73347e-07
1.24085e-08
-1.89701e-07
-1.66672e-08
1.93959e-07
2.56126e-08
-1.18185e-07
-2.74484e-08
1.20021e-07
3.02663e-08
-7.07101e-08
-3.06008e-08
7.10446e-08
3.38998e-08
-5.07569e-08
-3.56402e-08
5.24974e-08
4.11424e-08
-2.55827e-08
-4.25833e-08
2.70236e-08
4.47996e-08
4.04744e-09
-4.47307e-08
-4.1164e-09
4.26327e-08
2.53914e-08
-4.15768e-08
-2.64473e-08
3.80028e-08
3.60609e-08
-3.67995e-08
-3.72642e-08
3.31363e-08
4.0658e-08
-3.19478e-08
-4.18465e-08
2.8364e-08
4.19343e-08
-2.7208e-08
-4.30903e-08
2.37437e-08
4.11745e-08
-2.26349e-08
-4.22833e-08
1.9343e-08
3.91344e-08
-1.83013e-08
-4.01761e-08
1.52529e-08
3.6282e-08
-1.43041e-08
-3.72308e-08
1.1583e-08
3.30513e-08
-1.07572e-08
-3.38771e-08
8.46341e-09
2.98473e-08
-7.79344e-09
-3.05173e-08
6.01944e-09
2.71627e-08
-5.52698e-09
-2.76552e-08
4.18042e-09
2.52694e-08
-3.71132e-09
-2.57385e-08
9.18253e-09
2.96569e-07
-2.89253e-07
-1.64976e-08
2.25198e-08
5.74037e-08
-2.05281e-08
-5.93954e-08
1.06999e-08
1.98345e-07
-6.60051e-09
-2.02444e-07
-5.80806e-09
2.23499e-07
9.91768e-09
-2.27609e-07
-2.38654e-08
1.90417e-07
2.70073e-08
-1.93559e-07
-3.21036e-08
1.80496e-07
3.52856e-08
-1.83678e-07
-4.79776e-08
1.87744e-07
5.29869e-08
-1.92753e-07
-6.00269e-08
1.55565e-07
6.48291e-08
-1.60367e-07
-7.99689e-08
1.44491e-08
7.87591e-08
-1.32393e-08
-9.30111e-08
-5.59049e-09
1.03321e-07
-4.71945e-09
-9.15127e-08
-2.91495e-07
8.34969e-08
2.9951e-07
-4.62152e-08
-3.57829e-07
3.60059e-08
3.68038e-07
-9.51214e-09
-2.94657e-07
2.07762e-09
3.02091e-07
1.61935e-08
-2.07049e-07
-2.06681e-08
2.11523e-07
2.96244e-08
-1.25321e-07
-3.13196e-08
1.27016e-07
3.27408e-08
-7.0756e-08
-3.20457e-08
7.00608e-08
3.50443e-08
-5.84507e-08
-3.73355e-08
6.07419e-08
4.49254e-08
-3.21666e-08
-4.69671e-08
3.42083e-08
5.01868e-08
4.3969e-09
-5.00613e-08
-4.52244e-09
4.68825e-08
3.01619e-08
-4.54206e-08
-3.16238e-08
4.09533e-08
4.11618e-08
-3.95555e-08
-4.25595e-08
3.54492e-08
4.55928e-08
-3.41417e-08
-4.69004e-08
3.02263e-08
4.67147e-08
-2.89664e-08
-4.79746e-08
2.51849e-08
4.57672e-08
-2.39702e-08
-4.69819e-08
2.03414e-08
4.34704e-08
-1.91839e-08
-4.46279e-08
1.57595e-08
4.02633e-08
-1.46793e-08
-4.13435e-08
1.1529e-08
3.65505e-08
-1.05538e-08
-3.75257e-08
7.77742e-09
3.27214e-08
-6.93779e-09
-3.3561e-08
4.55956e-09
2.93677e-08
-3.8235e-09
-3.01038e-08
1.67675e-09
2.69942e-08
-1.09454e-09
-2.75719e-08
1.00994e-08
3.27227e-07
-3.19345e-07
-1.79815e-08
2.39654e-08
6.57361e-08
-2.17253e-08
-6.79763e-08
1.13101e-08
2.14992e-07
-7.043e-09
-2.19259e-07
-5.55601e-09
2.39982e-07
9.69179e-09
-2.44117e-07
-2.45579e-08
2.03012e-07
2.77241e-08
-2.06178e-07
-3.13482e-08
1.93279e-07
3.45721e-08
-1.96503e-07
-4.80453e-08
2.0889e-07
5.38594e-08
-2.14704e-07
-6.19289e-08
1.66462e-07
6.04842e-08
-1.65017e-07
-7.7073e-08
1.7229e-08
8.06999e-08
-2.08558e-08
-9.24293e-08
4.14995e-08
1.04469e-07
-5.35397e-08
-9.98248e-08
-3.24778e-07
9.0979e-08
3.33623e-07
-4.61242e-08
-3.99781e-07
3.5287e-08
4.10618e-07
-6.96479e-09
-3.25316e-07
-1.12062e-09
3.33401e-07
2.06163e-08
-2.25286e-07
-2.53215e-08
2.29991e-07
3.42431e-08
-1.31851e-07
-3.57525e-08
1.33361e-07
3.5301e-08
-6.5007e-08
-3.21476e-08
6.18536e-08
3.51991e-08
-6.89138e-08
-3.84963e-08
7.22109e-08
4.92546e-08
-4.15915e-08
-5.22158e-08
4.45528e-08
5.71592e-08
5.04597e-09
-5.69137e-08
-5.29152e-09
5.15755e-08
3.69017e-08
-4.94574e-08
-3.90197e-08
4.39135e-08
4.7039e-08
-4.23328e-08
-4.86197e-08
3.78469e-08
5.0985e-08
-3.64357e-08
-5.23962e-08
3.22188e-08
5.19043e-08
-3.08605e-08
-5.32626e-08
2.67682e-08
5.07868e-08
-2.54465e-08
-5.21085e-08
2.14676e-08
4.82855e-08
-2.01859e-08
-4.95673e-08
1.63413e-08
4.48135e-08
-1.51062e-08
-4.60485e-08
1.14054e-08
4.07605e-08
-1.02177e-08
-4.19482e-08
6.67368e-09
3.64738e-08
-5.54632e-09
-3.76012e-08
2.24587e-09
3.26745e-08
-1.22026e-09
-3.37001e-08
-1.74455e-09
3.00125e-08
2.81118e-09
-3.10791e-08
1.1145e-08
3.60305e-07
-3.51794e-07
-1.9656e-08
2.55173e-08
7.50919e-08
-2.30099e-08
-7.75993e-08
1.19335e-08
2.32311e-07
-7.50004e-09
-2.36744e-07
-5.27825e-09
2.56534e-07
9.41333e-09
-2.60669e-07
-2.54765e-08
2.15754e-07
2.87054e-08
-2.18983e-07
-3.03696e-08
2.06273e-07
3.36695e-08
-2.09573e-07
-4.80256e-08
2.33802e-07
5.50482e-08
-2.40825e-07
-6.14869e-08
1.55264e-07
5.87907e-08
-1.52568e-07
-6.43237e-08
3.45853e-08
6.96334e-08
-3.98953e-08
-9.4686e-08
8.16609e-08
1.01081e-07
-8.80562e-08
-1.07663e-07
-3.61951e-07
9.70956e-08
3.72518e-07
-4.52533e-08
-4.42745e-07
3.51815e-08
4.52817e-07
-3.97627e-09
-3.58879e-07
-4.83462e-09
3.67689e-07
2.58341e-08
-2.44451e-07
-3.07856e-08
2.49402e-07
3.94481e-08
-1.37315e-07
-4.03906e-08
1.38258e-07
3.01125e-08
-4.62964e-08
-2.39638e-08
4.01477e-08
3.37144e-08
-8.47605e-08
-3.90124e-08
9.00584e-08
5.42251e-08
-5.53358e-08
-5.85588e-08
5.96694e-08
6.63659e-08
6.44899e-09
-6.57163e-08
-7.09866e-09
5.57674e-08
4.6622e-08
-5.28439e-08
-4.95455e-08
4.66894e-08
5.35637e-08
-4.49897e-08
-5.52634e-08
4.03103e-08
5.67518e-08
-3.88242e-08
-5.82379e-08
3.43587e-08
5.7472e-08
-3.29135e-08
-5.89172e-08
2.85352e-08
5.62284e-08
-2.7112e-08
-5.76515e-08
2.27961e-08
5.35955e-08
-2.13943e-08
-5.49973e-08
1.7149e-08
4.99778e-08
-1.577e-08
-5.13568e-08
1.15786e-08
4.581e-08
-1.02094e-08
-4.71791e-08
6.0201e-09
4.14333e-08
-4.64409e-09
-4.28093e-08
4.5678e-10
3.74451e-08
8.92106e-10
-3.8794e-08
-4.78202e-09
3.43172e-08
5.93299e-09
-3.54681e-08
1.2343e-08
3.96078e-07
-3.86867e-07
-2.15537e-08
2.71783e-08
8.55439e-08
-2.4387e-08
-8.83351e-08
1.25629e-08
2.50287e-07
-7.97121e-09
-2.54879e-07
-4.97432e-09
2.73029e-07
9.06805e-09
-2.77122e-07
-2.67145e-08
2.28843e-07
3.00782e-08
-2.32207e-07
-2.90992e-08
2.19667e-07
3.25491e-08
-2.23117e-07
-4.79864e-08
2.64355e-07
5.67392e-08
-2.73108e-07
-6.0185e-08
1.50245e-07
5.95669e-08
-1.49627e-07
-6.74593e-08
6.24507e-08
7.70209e-08
-7.20125e-08
-8.95402e-08
1.00501e-07
9.24647e-08
-1.03426e-07
-1.16889e-07
-4.12111e-07
9.9969e-08
4.29031e-07
-4.46364e-08
-4.82935e-07
3.54918e-08
4.92079e-07
-5.38308e-10
-3.95218e-07
-8.74438e-09
4.045e-07
3.19294e-08
-2.64554e-07
-3.7133e-08
2.69757e-07
4.46603e-08
-1.37786e-07
-4.25463e-08
1.35672e-07
1.09042e-09
-2.90907e-08
-2.03892e-09
3.00393e-08
3.11319e-08
-1.09837e-07
-3.9105e-08
1.1781e-07
5.98162e-08
-7.53071e-08
-6.59697e-08
8.14606e-08
7.70139e-08
1.09456e-08
-7.48464e-08
-1.31131e-08
5.7287e-08
5.92466e-08
-5.35557e-08
-6.29779e-08
4.93011e-08
6.04538e-08
-4.75774e-08
-6.21775e-08
4.28798e-08
6.27781e-08
-4.13416e-08
-6.43163e-08
3.66839e-08
6.33658e-08
-3.51672e-08
-6.48825e-08
3.05413e-08
6.20617e-08
-2.90271e-08
-6.35759e-08
2.4405e-08
5.93693e-08
-2.28951e-08
-6.08793e-08
1.83025e-08
5.56772e-08
-1.68066e-08
-5.71731e-08
1.22631e-08
5.14658e-08
-1.07847e-08
-5.29441e-08
6.30362e-09
4.70763e-08
-4.85019e-09
-4.85298e-08
4.8362e-10
4.29328e-08
9.13757e-10
-4.43302e-08
-5.01513e-09
3.9146e-08
6.28924e-09
-4.04201e-08
1.37175e-08
4.34839e-07
-4.2485e-07
-2.37059e-08
2.89375e-08
9.71478e-08
-2.5853e-08
-1.00232e-07
1.3184e-08
2.68872e-07
-8.4529e-09
-2.73603e-07
-4.64277e-09
2.89271e-07
8.63144e-09
-2.9326e-07
-2.84095e-08
2.42638e-07
3.20322e-08
-2.46261e-07
-2.74248e-08
2.33846e-07
3.11667e-08
-2.37588e-07
-4.8399e-08
3.01851e-07
5.84275e-08
-3.11879e-07
-5.92407e-08
1.39778e-07
5.52786e-08
-1.35816e-07
-7.67335e-08
9.21897e-08
7.75322e-08
-9.29883e-08
-6.67709e-08
1.13827e-07
7.25748e-08
-1.19632e-07
-1.20856e-07
-4.93635e-07
9.87565e-08
5.15735e-07
-4.47748e-08
-5.27231e-07
3.15423e-08
5.40464e-07
3.15313e-09
-4.33115e-07
-1.27654e-08
4.42727e-07
3.84722e-08
-2.86043e-07
-4.43341e-08
2.91905e-07
4.92212e-08
-1.19686e-07
-4.00221e-08
1.10487e-07
-4.45882e-09
-4.65657e-08
2.39738e-10
5.07848e-08
2.95182e-08
-1.45764e-07
-3.99438e-08
1.5619e-07
6.54857e-08
-1.02651e-07
-7.33153e-08