/*--------------------------------*- C++ -*----------------------------------*\
| =========                 |                                                 |
| \\      /  F ield         | OpenFOAM: The Open Source CFD Toolbox           |
|  \\    /   O peration     | Version:  2.4.0                                 |
|   \\  /    A nd           | Web:      www.OpenFOAM.org                      |
|    \\/     M anipulation  |                                                 |
\*---------------------------------------------------------------------------*/
FoamFile
{
    version     2.0;
    format      ascii;
    class       volVectorField;
    location    "0.128";
    object      U;
}
// * * * * * * * * * * * * * * * * * * * * * * * * * * * * * * * * * * * * * //

dimensions      [0 1 -1 0 0 0 0];

internalField   nonuniform List<vector> 
14400
(
(-0.00386069 0.000226606 0)
(-0.0020309 -5.55017e-05 0)
(0.00292319 -4.39514e-05 0)
(0.00785495 1.74412e-06 0)
(0.0133649 -1.365e-05 0)
(0.0199085 -4.17768e-05 0)
(0.0261354 -5.11656e-05 0)
(0.0305766 6.53644e-06 0)
(0.0309581 0.000127992 0)
(0.0256604 0.000279662 0)
(0.0156419 0.000358634 0)
(0.00379634 0.000369699 0)
(-0.00744538 0.000285513 0)
(-0.0159957 0.000134387 0)
(-0.0213028 1.05807e-05 0)
(-0.0239592 -6.11729e-05 0)
(-0.0247761 -9.86816e-05 0)
(-0.0243782 -0.000121661 0)
(-0.0231796 -0.000138483 0)
(-0.0214475 -0.000155111 0)
(-0.0193728 -0.000171867 0)
(-0.0171075 -0.000188711 0)
(-0.0147699 -0.000203714 0)
(-0.0124506 -0.000215972 0)
(-0.0102132 -0.000225469 0)
(-0.00809662 -0.000232512 0)
(-0.00612073 -0.000237828 0)
(-0.00429361 -0.000241895 0)
(-0.00261649 -0.000244616 0)
(-0.001087 -0.000245996 0)
(-0.00585985 0.00122912 0)
(-0.0141827 -0.000211626 0)
(-0.0082973 -0.00051813 0)
(0.00299921 -0.000474568 0)
(0.0169034 -0.000975242 0)
(0.03303 -0.00147646 0)
(0.0493641 -0.00159296 0)
(0.0641759 -0.00118965 0)
(0.0732778 -0.000132122 0)
(0.0731683 0.001589 0)
(0.062887 0.0029745 0)
(0.0463267 0.00387837 0)
(0.0272818 0.00412701 0)
(0.00919386 0.00364023 0)
(-0.00558705 0.00278354 0)
(-0.0162877 0.00183156 0)
(-0.0230488 0.000930679 0)
(-0.0265177 0.000133848 0)
(-0.0274867 -0.000568045 0)
(-0.0266953 -0.00116109 0)
(-0.0247574 -0.00164805 0)
(-0.0221499 -0.0020385 0)
(-0.0192194 -0.00233917 0)
(-0.0162064 -0.00256303 0)
(-0.0132669 -0.00272558 0)
(-0.010491 -0.00284252 0)
(-0.00791889 -0.00292726 0)
(-0.0055616 -0.00298807 0)
(-0.00341485 -0.00302804 0)
(-0.00146771 -0.00304886 0)
(-0.00632344 0.00244628 0)
(-0.0179517 -0.000176717 0)
(-0.0130171 -0.000949221 0)
(-0.00118792 -0.0011023 0)
(0.0135302 -0.0023012 0)
(0.0306447 -0.0033959 0)
(0.0481952 -0.00369488 0)
(0.0645674 -0.00304124 0)
(0.0756659 -0.00113284 0)
(0.0782207 0.00219521 0)
(0.0707352 0.00509717 0)
(0.0567887 0.00716303 0)
(0.0401364 0.00804548 0)
(0.0239197 0.00748078 0)
(0.0104642 0.0061048 0)
(0.000493871 0.00443304 0)
(-0.0061986 0.00271842 0)
(-0.0101532 0.0011186 0)
(-0.0120108 -0.0002857 0)
(-0.0123731 -0.00145033 0)
(-0.011748 -0.00238875 0)
(-0.0105284 -0.00311661 0)
(-0.00900803 -0.00365163 0)
(-0.00739909 -0.0040197 0)
(-0.00584923 -0.00425219 0)
(-0.00445062 -0.00438616 0)
(-0.00324234 -0.00445846 0)
(-0.00222126 -0.00449782 0)
(-0.00135712 -0.00451977 0)
(-0.00061209 -0.00453113 0)
(-0.00647975 0.00372209 0)
(-0.0187848 -0.000102145 0)
(-0.0139427 -0.00136943 0)
(-0.00214675 -0.00170843 0)
(0.0126656 -0.00365386 0)
(0.0299456 -0.00535196 0)
(0.0476996 -0.00584691 0)
(0.0643399 -0.00497399 0)
(0.0757781 -0.00227698 0)
(0.0786907 0.00262041 0)
(0.0714772 0.00696191 0)
(0.0579426 0.0101535 0)
(0.041883 0.0116487 0)
(0.0263826 0.0109804 0)
(0.013708 0.00907958 0)
(0.00446549 0.00675947 0)
(-0.00178383 0.00437928 0)
(-0.0056447 0.00215754 0)
(-0.00771519 0.000217115 0)
(-0.00848989 -0.00140644 0)
(-0.00838043 -0.00270707 0)
(-0.00770028 -0.00370778 0)
(-0.00668639 -0.00443252 0)
(-0.00552304 -0.00490859 0)
(-0.00435188 -0.00517167 0)
(-0.00327448 -0.00527054 0)
(-0.0023483 -0.00526715 0)
(-0.00158581 -0.00522001 0)
(-0.000966122 -0.00517266 0)
(-0.000450762 -0.00514576 0)
(-0.00661089 0.00502834 0)
(-0.0191419 -3.42238e-05 0)
(-0.0141564 -0.00179413 0)
(-0.00237253 -0.00229387 0)
(0.0124239 -0.00501691 0)
(0.0298086 -0.00732371 0)
(0.0477131 -0.0080175 0)
(0.0645951 -0.006944 0)
(0.0763764 -0.00348652 0)
(0.0795684 0.0030392 0)
(0.072211 0.00880246 0)
(0.0583943 0.013127 0)
(0.0419843 0.0152485 0)
(0.0262253 0.0144328 0)
(0.0134599 0.0119644 0)
(0.0042503 0.00900599 0)
(-0.00196187 0.00599922 0)
(-0.00585071 0.00321888 0)
(-0.00801236 0.0007946 0)
(-0.00892673 -0.0012356 0)
(-0.00898127 -0.00287243 0)
(-0.0084628 -0.00414093 0)
(-0.00758738 -0.00506871 0)
(-0.0065169 -0.00568482 0)
(-0.00537163 -0.00602389 0)
(-0.00424087 -0.00614044 0)
(-0.00318335 -0.00611085 0)
(-0.00222884 -0.00601724 0)
(-0.00138182 -0.00592501 0)
(-0.000630195 -0.00587184 0)
(-0.00676735 0.00636725 0)
(-0.0195055 1.68827e-05 0)
(-0.0143011 -0.00222208 0)
(-0.00251978 -0.0028613 0)
(0.0122148 -0.00639122 0)
(0.0297068 -0.00931321 0)
(0.047782 -0.0102083 0)
(0.064964 -0.00895998 0)
(0.0771932 -0.00478536 0)
(0.0807915 0.00345905 0)
(0.0732715 0.0106478 0)
(0.0590573 0.0161583 0)
(0.0420531 0.018973 0)
(0.025747 0.0179785 0)
(0.0126337 0.0148878 0)
(0.00326307 0.0112727 0)
(-0.00300932 0.00763787 0)
(-0.00692539 0.0043024 0)
(-0.00909319 0.0013988 0)
(-0.0100097 -0.00103088 0)
(-0.0100698 -0.00299651 0)
(-0.00956548 -0.00452939 0)
(-0.00870744 -0.0056671 0)
(-0.00764161 -0.00644633 0)
(-0.00646873 -0.00690742 0)
(-0.00525735 -0.00710876 0)
(-0.0040565 -0.00713106 0)
(-0.00290256 -0.00706427 0)
(-0.00181983 -0.0069838 0)
(-0.000821359 -0.00693509 0)
(-0.00695747 0.00774621 0)
(-0.0199478 4.64115e-05 0)
(-0.0144655 -0.00265266 0)
(-0.00268628 -0.00340688 0)
(0.0119627 -0.00777994 0)
(0.0295806 -0.0113243 0)
(0.0478584 -0.0124225 0)
(0.0654065 -0.0110313 0)
(0.0781919 -0.00620305 0)
(0.0823152 0.00388117 0)
(0.0746049 0.0124937 0)
(0.0599222 0.019268 0)
(0.042172 0.0228732 0)
(0.025172 0.0216625 0)
(0.0116191 0.0178749 0)
(0.00205213 0.0135738 0)
(-0.00427641 0.0092898 0)
(-0.00819219 0.00538347 0)
(-0.0103103 0.00198973 0)
(-0.0111533 -0.000845398 0)
(-0.0111309 -0.00313927 0)
(-0.0105486 -0.00493401 0)
(-0.00962013 -0.00628135 0)
(-0.00848845 -0.0072323 0)
(-0.0072442 -0.00783839 0)
(-0.0059443 -0.00816365 0)
(-0.00463021 -0.00828856 0)
(-0.00333881 -0.00829998 0)
(-0.00210292 -0.00827181 0)
(-0.000947817 -0.00825031 0)
(-0.00718397 0.00917361 0)
(-0.0204808 4.79974e-05 0)
(-0.0146582 -0.0030857 0)
(-0.00288248 -0.00392649 0)
(0.01166 -0.00918739 0)
(0.0294251 -0.0133614 0)
(0.0479371 -0.0146632 0)
(0.0659188 -0.0131654 0)
(0.0793771 -0.00777303 0)
(0.0841513 0.00431305 0)
(0.0762124 0.0143374 0)
(0.0609933 0.0224767 0)
(0.0423254 0.027001 0)
(0.0244834 0.0255177 0)
(0.0104198 0.0209325 0)
(0.000638646 0.0159093 0)
(-0.00573221 0.0109481 0)
(-0.00963101 0.00644925 0)
(-0.0116717 0.00254701 0)
(-0.0123985 -0.00070783 0)
(-0.0122442 -0.00333795 0)
(-0.0115241 -0.00539867 0)
(-0.0104627 -0.00695786 0)
(-0.00920532 -0.00808379 0)
(-0.00784271 -0.00884211 0)
(-0.00643077 -0.00930472 0)
(-0.00500887 -0.00955012 0)
(-0.0036128 -0.00965858 0)
(-0.00227592 -0.00969817 0)
(-0.00102695 -0.00971302 0)
(-0.00744831 0.0106583 0)
(-0.0211092 1.42899e-05 0)
(-0.0148769 -0.00352071 0)
(-0.00311006 -0.00441637 0)
(0.0113036 -0.0106189 0)
(0.0292381 -0.0154294 0)
(0.0480132 -0.0169325 0)
(0.0664973 -0.0153677 0)
(0.0807582 -0.00953474 0)
(0.0863169 0.00476719 0)
(0.0781031 0.0161742 0)
(0.0622963 0.0258115 0)
(0.0425122 0.031422 0)
(0.0236584 0.029581 0)
(0.00901715 0.0240644 0)
(-0.000995842 0.0182803 0)
(-0.00739673 0.0126093 0)
(-0.0112696 0.00749467 0)
(-0.01321 0.00305774 0)
(-0.0137966 -0.000632701 0)
(-0.0134774 -0.00361428 0)
(-0.0125839 -0.0059497 0)
(-0.0113509 -0.00772679 0)
(-0.00993022 -0.00903176 0)
(-0.00841567 -0.00994451 0)
(-0.00686782 -0.0105443 0)
(-0.00532901 -0.0109091 0)
(-0.00383522 -0.0111136 0)
(-0.00241558 -0.0112195 0)
(-0.00109337 -0.0112691 0)
(-0.00775237 0.0122099 0)
(-0.0218386 -6.19194e-05 0)
(-0.0151193 -0.00395685 0)
(-0.00336768 -0.00487352 0)
(0.010891 -0.0120815 0)
(0.0290177 -0.0175333 0)
(0.0480809 -0.0192326 0)
(0.0671362 -0.0176406 0)
(0.0823485 -0.0115349 0)
(0.0888285 0.00526735 0)
(0.0802823 0.0179941 0)
(0.0638659 0.0293055 0)
(0.0427371 0.0362166 0)
(0.0226715 0.0338924 0)
(0.00739461 0.0272716 0)
(-0.00286658 0.0206872 0)
(-0.0092779 0.0142736 0)
(-0.0131228 0.00851235 0)
(-0.0149457 0.00351611 0)
(-0.0153695 -0.000633265 0)
(-0.0148599 -0.00398178 0)
(-0.0137666 -0.006604 0)
(-0.0123377 -0.00860735 0)
(-0.0107298 -0.0100956 0)
(-0.00904178 -0.0111641 0)
(-0.00734025 -0.0118959 0)
(-0.00566971 -0.0123717 0)
(-0.00406485 -0.0126636 0)
(-0.00255435 -0.0128293 0)
(-0.00115859 -0.0129121 0)
(-0.00809821 0.0138382 0)
(-0.0226739 -0.00019021 0)
(-0.0153821 -0.00439306 0)
(-0.00365476 -0.00529697 0)
(0.0104178 -0.0135845 0)
(0.0287617 -0.0196786 0)
(0.0481331 -0.0215666 0)
(0.067825 -0.0199823 0)
(0.0841677 -0.0138296 0)
(0.0916994 0.00584859 0)
(0.0827456 0.0197826 0)
(0.0657436 0.0329966 0)
(0.0430077 0.0414796 0)
(0.0214879 0.0384929 0)
(0.0055349 0.0305515 0)
(-0.00498903 0.0231284 0)
(-0.0113847 0.0159404 0)
(-0.015203 0.00950014 0)
(-0.0168905 0.00391317 0)
(-0.0171286 -0.000719438 0)
(-0.0164015 -0.00445388 0)
(-0.0150866 -0.0073739 0)
(-0.0134412 -0.00961133 0)
(-0.0116295 -0.0112887 0)
(-0.00975392 -0.0125126 0)
(-0.00788288 -0.0133747 0)
(-0.00606692 -0.013955 0)
(-0.00433966 -0.0143243 0)
(-0.00272481 -0.0145389 0)
(-0.0012388 -0.0146433 0)
(-0.00848816 0.0155543 0)
(-0.0236224 -0.000376961 0)
(-0.0156601 -0.00482819 0)
(-0.00396795 -0.00568723 0)
(0.00987902 -0.0151357 0)
(0.0284679 -0.0218709 0)
(0.0481618 -0.0239387 0)
(0.0685434 -0.0223865 0)
(0.086245 -0.0164867 0)
(0.0949382 0.00656558 0)
(0.0854813 0.0215123 0)
(0.0679816 0.0369283 0)
(0.0433365 0.0473174 0)
(0.0200574 0.0434241 0)
(0.00342196 0.033897 0)
(-0.00738056 0.0255903 0)
(-0.0137223 0.017614 0)
(-0.0175228 0.0104553 0)
(-0.0190553 0.00424039 0)
(-0.0190831 -0.000903573 0)
(-0.0181114 -0.00504239 0)
(-0.0165491 -0.00827115 0)
(-0.0146716 -0.0107475 0)
(-0.0126378 -0.0126203 0)
(-0.0105623 -0.0140018 0)
(-0.00851192 -0.0149878 0)
(-0.00653492 -0.015665 0)
(-0.00466888 -0.016106 0)
(-0.00293544 -0.0163702 0)
(-0.00133878 -0.0165043 0)
(-0.00892555 0.0173695 0)
(-0.0246911 -0.00063229 0)
(-0.0159488 -0.00525782 0)
(-0.0043051 -0.00603986 0)
(0.00926801 -0.0167358 0)
(0.0281341 -0.0241164 0)
(0.0481579 -0.0263541 0)
(0.0692475 -0.0248428 0)
(0.0886175 -0.0195868 0)
(0.0985558 0.00749249 0)
(0.0885375 0.0231417 0)
(0.0707602 0.0411421 0)
(0.0437511 0.0538523 0)
(0.018314 0.0487339 0)
(0.0010355 0.0372947 0)
(-0.010064 0.0280367 0)
(-0.0162927 0.0193151 0)
(-0.0200984 0.0113733 0)
(-0.0214532 0.00449043 0)
(-0.0212448 -0.0011991 0)
(-0.019993 -0.00576295 0)
(-0.0181594 -0.00930489 0)
(-0.016035 -0.0120267 0)
(-0.0137785 -0.0140964 0)
(-0.0114749 -0.0156432 0)
(-0.00921678 -0.0167591 0)
(-0.00705495 -0.0175307 0)
(-0.0050238 -0.0180334 0)
(-0.00314404 -0.0183373 0)
(-0.00143145 -0.0184942 0)
(-0.00941346 0.0192967 0)
(-0.0258895 -0.000966579 0)
(-0.0162405 -0.0056757 0)
(-0.00466298 -0.00634797 0)
(0.00857912 -0.0183834 0)
(0.0277584 -0.0264215 0)
(0.0481119 -0.028821 0)
(0.0698294 -0.027342 0)
(0.0912884 -0.0232176 0)
(0.102558 0.0087276 0)
(0.0921389 0.0246479 0)
(0.0748848 0.0456386 0)
(0.044358 0.0612165 0)
(0.0162163 0.0544958 0)
(-0.00160166 0.040787 0)
(-0.0131069 0.0303828 0)
(-0.0190814 0.0211164 0)
(-0.0229484 0.012247 0)
(-0.0240994 0.00465352 0)
(-0.0236262 -0.00162248 0)
(-0.0220512 -0.0066293 0)
(-0.0199123 -0.0104897 0)
(-0.0175335 -0.0134594 0)
(-0.0150229 -0.0157351 0)
(-0.0125085 -0.0174382 0)
(-0.0100436 -0.0186852 0)
(-0.00768836 -0.0195581 0)
(-0.00547398 -0.0201358 0)
(-0.00342485 -0.0204751 0)
(-0.00155864 -0.0206334 0)
(-0.00995564 0.0213493 0)
(-0.0272267 -0.00139267 0)
(-0.016528 -0.00607255 0)
(-0.00503915 -0.00660923 0)
(0.00780716 -0.0200789 0)
(0.0273392 -0.028793 0)
(0.048015 -0.0313527 0)
(0.0700357 -0.0299008 0)
(0.0940015 -0.0274413 0)
(0.106858 0.0103893 0)
(0.0962995 0.0261068 0)
(0.0817795 0.0504289 0)
(0.0454316 0.0694 0)
(0.0136508 0.0607234 0)
(-0.00396767 0.0445964 0)
(-0.0164144 0.0326497 0)
(-0.0220238 0.0230832 0)
(-0.0260829 0.0130657 0)
(-0.0270103 0.00472451 0)
(-0.0262385 -0.00219516 0)
(-0.0242849 -0.00766314 0)
(-0.021829 -0.0118289 0)
(-0.0191305 -0.0150484 0)
(-0.016383 -0.0175265 0)
(-0.0135989 -0.0194241 0)
(-0.0108974 -0.0208029 0)
(-0.00833503 -0.0217691 0)
(-0.00594827 -0.0224104 0)
(-0.00374789 -0.0227943 0)
(-0.00171458 -0.0229839 0)
(-0.0105567 0.0235423 0)
(-0.028715 -0.00192548 0)
(-0.0168022 -0.00643578 0)
(-0.00543096 -0.00682725 0)
(0.0069473 -0.0218272 0)
(0.0268752 -0.0312379 0)
(0.0478694 -0.0339686 0)
(0.0695879 -0.0326313 0)
(0.095585 -0.0321726 0)
(0.11106 0.0125208 0)
(0.100244 0.0275276 0)
(0.0905757 0.0558188 0)
(0.0474764 0.0779071 0)
(0.00903441 0.0671354 0)
(-0.0051057 0.0492615 0)
(-0.0188333 0.0351768 0)
(-0.0251592 0.0250227 0)
(-0.029419 0.0138367 0)
(-0.0302396 0.00468466 0)
(-0.0290955 -0.00294528 0)
(-0.0266831 -0.00888753 0)
(-0.0238695 -0.0133453 0)
(-0.0209663 -0.0167982 0)
(-0.0179074 -0.0195285 0)
(-0.0148834 -0.0215837 0)
(-0.0119386 -0.0231011 0)
(-0.00911214 -0.02417 0)
(-0.00647904 -0.024869 0)
(-0.00405768 -0.0253095 0)
(-0.00184706 -0.0255519 0)
(-0.0112213 0.0258918 0)
(-0.0303671 -0.00258311 0)
(-0.0170552 -0.00674977 0)
(-0.00583174 -0.00699636 0)
(0.0059891 -0.0236878 0)
(0.0263656 -0.0337626 0)
(0.0477167 -0.0366774 0)
(0.0692126 -0.0357624 0)
(0.0936008 -0.0369411 0)
(0.113724 0.0148405 0)
(0.103767 0.0285016 0)
(0.0982874 0.0622774 0)
(0.0508197 0.0867045 0)
(0.00432366 0.0737473 0)
(-0.0069749 0.0535079 0)
(-0.0225457 0.037367 0)
(-0.0288997 0.0268744 0)
(-0.0330013 0.0145425 0)
(-0.0339132 0.00453538 0)
(-0.0321816 -0.00393532 0)
(-0.0292501 -0.0103233 0)
(-0.0260774 -0.0150098 0)
(-0.0227751 -0.018723 0)
(-0.0195412 -0.0216558 0)
(-0.0162617 -0.0239361 0)
(-0.0130095 -0.0256508 0)
(-0.00992873 -0.0268374 0)
(-0.0070248 -0.027613 0)
(-0.00435001 -0.0280725 0)
(-0.0019623 -0.028295 0)
(-0.011955 0.0284157 0)
(-0.0321983 -0.00338624 0)
(-0.0172781 -0.00699469 0)
(-0.00622936 -0.00710893 0)
(0.00491946 -0.0256682 0)
(0.02581 -0.0363736 0)
(0.0476074 -0.0394392 0)
(0.0709408 -0.0392746 0)
(0.086208 -0.0405863 0)
(0.110685 0.0163605 0)
(0.106572 0.0284505 0)
(0.105539 0.0692036 0)
(0.0527983 0.0975704 0)
(-0.00455391 0.08079 0)
(-0.0130553 0.054427 0)
(-0.0290581 0.0389975 0)
(-0.0338291 0.0289435 0)
(-0.0373572 0.0150085 0)
(-0.0373854 0.00433219 0)
(-0.0356135 -0.00518443 0)
(-0.0319321 -0.0120128 0)
(-0.0283708 -0.0168906 0)
(-0.0249601 -0.0207814 0)
(-0.0213394 -0.0240035 0)
(-0.0176388 -0.0265503 0)
(-0.014162 -0.0283795 0)
(-0.0108509 -0.0297061 0)
(-0.00772725 -0.030601 0)
(-0.00483577 -0.0310847 0)
(-0.00219106 -0.0312746 0)
(-0.0127639 0.0311333 0)
(-0.0342271 -0.00435841 0)
(-0.0174637 -0.00714533 0)
(-0.00660581 -0.00716392 0)
(0.0037229 -0.0277766 0)
(0.025208 -0.039077 0)
(0.0474715 -0.042217 0)
(0.0734546 -0.0423762 0)
(0.0735439 -0.0413719 0)
(0.0957949 0.0152452 0)
(0.106728 0.0265697 0)
(0.114423 0.0756084 0)
(0.0452678 0.112775 0)
(-0.0225522 0.0905272 0)
(-0.0217185 0.0551647 0)
(-0.0317002 0.0394782 0)
(-0.037457 0.0309193 0)
(-0.0416677 0.0151906 0)
(-0.0407148 0.00408135 0)
(-0.0391105 -0.00689384 0)
(-0.0341653 -0.0139734 0)
(-0.0306791 -0.0187955 0)
(-0.0271195 -0.0230148 0)
(-0.0233236 -0.0266379 0)
(-0.0195565 -0.0293188 0)
(-0.0156995 -0.0313772 0)
(-0.0119559 -0.0328499 0)
(-0.00854962 -0.0338087 0)
(-0.00542076 -0.0343909 0)
(-0.00247087 -0.034683 0)
(-0.0136546 0.0340661 0)
(-0.0364735 -0.00552747 0)
(-0.0176092 -0.00716793 0)
(-0.00693292 -0.00716794 0)
(0.00237961 -0.0300198 0)
(0.0245604 -0.0418809 0)
(0.047293 -0.0450865 0)
(0.0725853 -0.0441151 0)
(0.0574176 -0.038161 0)
(0.065478 0.0103463 0)
(0.0989965 0.0220313 0)
(0.128004 0.080694 0)
(0.0511025 0.125551 0)
(-0.0187027 0.103686 0)
(-0.032272 0.0531391 0)
(-0.0418804 0.0385227 0)
(-0.0437937 0.0337485 0)
(-0.0409406 0.0149183 0)
(-0.0461422 0.00481249 0)
(-0.0404586 -0.00987675 0)
(-0.0352604 -0.0154582 0)
(-0.0329324 -0.0206603 0)
(-0.0293566 -0.0252833 0)
(-0.0255183 -0.0291954 0)
(-0.0212665 -0.0323862 0)
(-0.0169523 -0.0347874 0)
(-0.0129211 -0.0363263 0)
(-0.00916994 -0.0373086 0)
(-0.0057196 -0.0379925 0)
(-0.00257648 -0.0384106 0)
(-0.0146345 0.0372374 0)
(-0.0389616 -0.00692564 0)
(-0.0177201 -0.0070181 0)
(-0.00716868 -0.00713535 0)
(0.000864103 -0.0324027 0)
(0.0238686 -0.0447916 0)
(0.0472426 -0.0480815 0)
(0.067776 -0.0443298 0)
(0.0413895 -0.0313817 0)
(0.0150407 0.00288533 0)
(0.0732377 0.0126884 0)
(0.139354 0.0829712 0)
(0.0490907 0.130497 0)
(-0.0280579 0.110081 0)
(-0.042695 0.054982 0)
(-0.0456916 0.0410581 0)
(-0.0443078 0.0333833 0)
(-0.0462067 0.016103 0)
(-0.0508543 0.00439786 0)
(-0.0432765 -0.01396 0)
(-0.0364348 -0.0163203 0)
(-0.0356853 -0.0219258 0)
(-0.0326547 -0.027672 0)
(-0.0279192 -0.0322917 0)
(-0.0230088 -0.0358212 0)
(-0.0185272 -0.0383163 0)
(-0.0141659 -0.0400878 0)
(-0.0099226 -0.0412461 0)
(-0.00604624 -0.0419162 0)
(-0.00267562 -0.0422493 0)
(-0.0157115 0.0406733 0)
(-0.0417199 -0.00859063 0)
(-0.017821 -0.00663149 0)
(-0.00724604 -0.00709456 0)
(-0.000868431 -0.034929 0)
(0.023126 -0.0478113 0)
(0.0471471 -0.0510873 0)
(0.0559844 -0.0432505 0)
(0.0264921 -0.0216045 0)
(-0.0408925 -0.00523385 0)
(0.0562098 -0.003108 0)
(0.112097 0.0845544 0)
(0.0331673 0.138661 0)
(-0.0419081 0.119923 0)
(-0.0520408 0.0573261 0)
(-0.0447028 0.046117 0)
(-0.0396947 0.0318325 0)
(-0.0474237 0.0197584 0)
(-0.0607089 0.00497287 0)
(-0.0571964 -0.0185618 0)
(-0.0433758 -0.0190875 0)
(-0.03883 -0.0226814 0)
(-0.0358268 -0.0303064 0)
(-0.0310052 -0.035821 0)
(-0.0259948 -0.0394576 0)
(-0.0208154 -0.0422674 0)
(-0.0157574 -0.0443812 0)
(-0.0110875 -0.0456798 0)
(-0.00684713 -0.0462636 0)
(-0.00304393 -0.0464399 0)
(-0.0168868 0.044403 0)
(-0.0447829 -0.0105682 0)
(-0.0179976 -0.00590964 0)
(-0.00702099 -0.00711419 0)
(-0.00299211 -0.0375977 0)
(0.0222649 -0.0509277 0)
(0.0458135 -0.0536662 0)
(0.0265995 -0.0406387 0)
(0.00831679 -0.0120662 0)
(0.00696347 -0.0110658 0)
(0.100433 -0.016784 0)
(-0.211571 0.148056 0)
(-0.00721721 0.182596 0)
(-0.0598986 0.127474 0)
(-0.0599327 0.0538348 0)
(-0.0429028 0.0493662 0)
(-0.0352441 0.0295452 0)
(-0.0604531 0.0282572 0)
(-0.0716115 0.00607314 0)
(-0.059551 -0.0251967 0)
(-0.0558895 -0.0241222 0)
(-0.0430467 -0.0240743 0)
(-0.039051 -0.0330594 0)
(-0.0340376 -0.0392152 0)
(-0.0283834 -0.0436192 0)
(-0.0224618 -0.046892 0)
(-0.0171408 -0.0490048 0)
(-0.0123573 -0.05034 0)
(-0.00784923 -0.0510671 0)
(-0.00352808 -0.0513718 0)
(-0.0180824 0.0484629 0)
(-0.0481946 -0.0129089 0)
(-0.0185774 -0.00464109 0)
(-0.0059938 -0.00741067 0)
(-0.00625054 -0.0404166 0)
(0.0207813 -0.0540547 0)
(0.0373858 -0.0542689 0)
(-0.0313525 -0.0362153 0)
(-0.0297446 -0.0114259 0)
(0.18674 -0.0243336 0)
(0.0383843 0.118765 0)
(-0.426402 -0.0234772 0)
(-0.0440275 0.178991 0)
(-0.0723765 0.137914 0)
(-0.0859357 0.0517832 0)
(-0.046913 0.0448271 0)
(-0.0459657 0.0288949 0)
(-0.0691141 0.0372881 0)
(-0.0632604 0.00392182 0)
(-0.0436038 -0.0300764 0)
(-0.0620288 -0.0257274 0)
(-0.0503311 -0.0276972 0)
(-0.0438058 -0.0364438 0)
(-0.0368937 -0.0433512 0)
(-0.0302379 -0.0483103 0)
(-0.0241219 -0.0516296 0)
(-0.018514 -0.0537358 0)
(-0.013293 -0.0552553 0)
(-0.00838158 -0.0563278 0)
(-0.00374837 -0.0569248 0)
(-0.0187896 0.0529062 0)
(-0.0520121 -0.0156721 0)
(-0.0205808 -0.00236806 0)
(-0.00245469 -0.00865206 0)
(-0.0120308 -0.0431269 0)
(0.0160215 -0.0567349 0)
(0.00658627 -0.0505686 0)
(-0.06849 -0.0305515 0)
(0.156673 -0.0470809 0)
(0.429826 -0.0221324 0)
(0.288426 0.194639 0)
(-0.979207 -0.0640448 0)
(-0.0612947 0.169138 0)
(-0.040419 0.134433 0)
(-0.0681922 0.0507021 0)
(-0.0773861 0.0413848 0)
(-0.054976 0.0276213 0)
(-0.0688872 0.0470625 0)
(-0.0581451 -0.00754193 0)
(-0.0401914 -0.0299974 0)
(-0.0631141 -0.0207622 0)
(-0.0570805 -0.0318372 0)
(-0.0487719 -0.041822 0)
(-0.0408959 -0.0485918 0)
(-0.0339997 -0.0532808 0)
(-0.0267942 -0.0569087 0)
(-0.0197635 -0.0592476 0)
(-0.0134965 -0.0608063 0)
(-0.00814073 -0.06188 0)
(-0.00358174 -0.06249 0)
(-0.0179716 0.0578009 0)
(-0.0563076 -0.0189356 0)
(-0.0248354 0.00161388 0)
(-0.000914168 -0.0120737 0)
(-0.0192544 -0.0447713 0)
(-0.0010227 -0.0574382 0)
(-0.0594519 -0.0406798 0)
(0.352955 -0.126674 0)
(0.920494 -0.0711483 0)
(0.568683 0.026211 0)
(0.515022 0.250115 0)
(0.438834 0.0151039 0)
(-0.172012 0.112656 0)
(-0.0790275 0.142244 0)
(-0.0640132 0.0510164 0)
(-0.0572473 0.0352231 0)
(-0.0354278 0.0371574 0)
(-0.0705497 0.0431355 0)
(-0.0468989 -0.0134133 0)
(-0.0526133 -0.0315377 0)
(-0.063947 -0.0111004 0)
(-0.056421 -0.0368156 0)
(-0.0519182 -0.0488527 0)
(-0.0461247 -0.0532476 0)
(-0.0378651 -0.0591479 0)
(-0.0284816 -0.0637195 0)
(-0.0201304 -0.0660073 0)
(-0.0131946 -0.0670795 0)
(-0.00765792 -0.0674976 0)
(-0.00332408 -0.0676454 0)
(-0.0158855 0.0631542 0)
(-0.0612531 -0.0228113 0)
(-0.00671947 0.00795492 0)
(-0.0706272 -0.0195497 0)
(-0.0276747 -0.0436668 0)
(-0.0444587 -0.0529914 0)
(-0.000471264 -0.0687602 0)
(0.942518 -0.228114 0)
(0.58311 -0.0497862 0)
(0.495273 0.0635584 0)
(0.478004 0.255968 0)
(0.24929 0.0877299 0)
(-0.196051 0.100351 0)
(-0.0955984 0.12986 0)
(-0.116347 0.046579 0)
(-0.0576453 0.0363772 0)
(-0.0574983 0.0311683 0)
(-0.114479 0.0359913 0)
(-0.0407594 -0.0129705 0)
(-0.0575114 -0.0354632 0)
(-0.0687248 -0.00114901 0)
(-0.0523328 -0.0437083 0)
(-0.0550794 -0.0545104 0)
(-0.048608 -0.0573734 0)
(-0.0375156 -0.0667258 0)
(-0.0272504 -0.0714859 0)
(-0.0193324 -0.0730222 0)
(-0.0128938 -0.0734054 0)
(-0.00759602 -0.072951 0)
(-0.00335331 -0.0724282 0)
(-0.0112748 0.0689541 0)
(-0.0681547 -0.026562 0)
(-0.0119785 0.013748 0)
(-0.0626602 -0.0254212 0)
(-0.0543943 -0.04206 0)
(-0.0906171 -0.0503929 0)
(0.255224 -0.182143 0)
(0.709558 -0.202424 0)
(0.423822 -0.0304353 0)
(0.324528 0.08097 0)
(0.303507 0.225783 0)
(0.147907 0.200821 0)
(-0.216944 0.133349 0)
(-0.128865 0.115725 0)
(-0.180561 0.0508148 0)
(-0.0987196 0.0143941 0)
(-0.0765435 0.0355842 0)
(-0.118329 0.0293727 0)
(-0.0472695 -0.0172586 0)
(-0.077384 -0.0223775 0)
(-0.0803574 -0.00281374 0)
(-0.0484285 -0.0509952 0)
(-0.0538555 -0.0582759 0)
(-0.043059 -0.0627187 0)
(-0.0320492 -0.0748847 0)
(-0.024181 -0.0781648 0)
(-0.0188488 -0.0787196 0)
(-0.0138181 -0.0790344 0)
(-0.00877184 -0.0783811 0)
(-0.00401976 -0.077615 0)
(-0.0035425 0.075186 0)
(-0.0771224 -0.0286731 0)
(0.0707226 0.0119452 0)
(-0.0339517 -0.0223862 0)
(-0.0819057 -0.0403432 0)
(0.405449 -0.0989469 0)
(0.778727 -0.249459 0)
(0.626702 -0.151965 0)
(0.30903 -0.00339066 0)
(0.182931 0.0852116 0)
(0.144037 0.184697 0)
(0.114521 0.258695 0)
(0.158691 0.218812 0)
(-0.190295 0.0685546 0)
(-0.197176 0.0608917 0)
(-0.135251 -0.00219676 0)
(-0.129806 0.0396976 0)
(-0.0673098 0.0305895 0)
(-0.121832 -0.0217421 0)
(-0.0905089 -0.00598099 0)
(-0.0896142 -0.0179863 0)
(-0.0457026 -0.0593459 0)
(-0.0437848 -0.0636571 0)
(-0.0328353 -0.0692846 0)
(-0.026996 -0.0809014 0)
(-0.0235794 -0.0816356 0)
(-0.0206814 -0.0824671 0)
(-0.0161666 -0.0840908 0)
(-0.0107161 -0.0843169 0)
(-0.00500771 -0.0840278 0)
(0.00713239 0.0810382 0)
(-0.0732578 -0.0321242 0)
(0.048399 0.0062351 0)
(-0.00274999 -0.0122649 0)
(0.0787577 -0.0553192 0)
(0.763698 -0.167003 0)
(0.605794 -0.219782 0)
(0.441714 -0.10493 0)
(0.186478 0.0243041 0)
(0.0946045 0.0828833 0)
(0.0570029 0.14712 0)
(-0.122495 0.425147 0)
(0.25494 -0.457981 0)
(-0.0143108 0.0899354 0)
(0.0309503 0.0582254 0)
(-0.0965462 0.0193665 0)
(-0.20574 0.0229286 0)
(-0.102844 0.0421365 0)
(-0.168694 -0.0406192 0)
(-0.117534 -0.000497676 0)
(-0.0923267 -0.0396506 0)
(-0.0757477 -0.0742295 0)
(-0.0356854 -0.0704494 0)
(-0.0325917 -0.0748131 0)
(-0.0283413 -0.0832496 0)
(-0.0255745 -0.082676 0)
(-0.0216926 -0.0860489 0)
(-0.0164796 -0.0895905 0)
(-0.0109202 -0.0910181 0)
(-0.00523114 -0.0914766 0)
(0.000333771 -0.000246464 0)
(0.00179172 -0.0002459 0)
(0.00339781 -0.000244117 0)
(0.00515596 -0.000241059 0)
(0.00706765 -0.000236815 0)
(0.00912925 -0.000231121 0)
(0.01133 -0.000223543 0)
(0.0136424 -0.000213226 0)
(0.0160185 -0.000200097 0)
(0.0183829 -0.000184592 0)
(0.0206336 -0.000168062 0)
(0.0226367 -0.000151757 0)
(0.0242218 -0.000135538 0)
(0.025166 -0.000114713 0)
(0.0251207 -8.63092e-05 0)
(0.0235719 -3.2525e-05 0)
(0.0197533 6.53504e-05 0)
(0.0128707 0.000214493 0)
(0.0027735 0.00034115 0)
(-0.00909104 0.000392794 0)
(-0.0203454 0.000340061 0)
(-0.0283648 0.000213786 0)
(-0.0307928 7.86488e-05 0)
(-0.0284965 -1.14448e-05 0)
(-0.0234545 -5.01387e-05 0)
(-0.0176039 -5.60344e-05 0)
(-0.0121266 -4.72732e-05 0)
(-0.00663921 -5.69758e-05 0)
(-0.00176578 -4.85946e-05 0)
(0.00148514 -2.75663e-05 0)
(0.000336966 -0.00305436 0)
(0.00219067 -0.00304446 0)
(0.00424112 -0.00301799 0)
(0.00650041 -0.00297251 0)
(0.00897926 -0.00290492 0)
(0.0116772 -0.00281074 0)
(0.0145737 -0.00267917 0)
(0.0176076 -0.00249529 0)
(0.0206635 -0.00224248 0)
(0.0235502 -0.00190697 0)
(0.0259827 -0.00147764 0)
(0.0275589 -0.000946596 0)
(0.0277389 -0.000305573 0)
(0.0258444 0.000443397 0)
(0.021074 0.00130548 0)
(0.0126435 0.00226377 0)
(6.23e-05 0.00320381 0)
(-0.0165 0.00392336 0)
(-0.0355059 0.0041543 0)
(-0.0536682 0.00361433 0)
(-0.0675084 0.00241028 0)
(-0.0731083 0.000752806 0)
(-0.0684951 -0.0005991 0)
(-0.0568014 -0.00126628 0)
(-0.0416664 -0.00139251 0)
(-0.0262911 -0.0012387 0)
(-0.0127724 -0.000974662 0)
(-0.00110131 -0.00081655 0)
(0.00705744 -0.000435733 0)
(0.00899597 0.000194267 0)
(6.4155e-05 -0.0045358 0)
(0.000764334 -0.00453442 0)
(0.00156909 -0.00452483 0)
(0.00251616 -0.00450368 0)
(0.00364303 -0.00445984 0)
(0.00497022 -0.00437151 0)
(0.00648474 -0.00420528 0)
(0.00812427 -0.00392361 0)
(0.00977449 -0.00349091 0)
(0.0112622 -0.00288137 0)
(0.0123432 -0.00206855 0)
(0.0126869 -0.00103654 0)
(0.0118458 0.000231791 0)
(0.00926525 0.00173045 0)
(0.00428912 0.00341646 0)
(-0.00374436 0.00518057 0)
(-0.0152558 0.00678511 0)
(-0.0302483 0.00786389 0)
(-0.0472056 0.00789624 0)
(-0.0628493 0.00650256 0)
(-0.0738722 0.00388439 0)
(-0.0766921 0.000551699 0)
(-0.0697516 -0.00195932 0)
(-0.056259 -0.00311187 0)
(-0.0396406 -0.00321613 0)
(-0.023094 -0.0027836 0)
(-0.00885188 -0.00213427 0)
(0.00301247 -0.00166918 0)
(0.0107046 -0.000746739 0)
(0.0113354 0.000722037 0)
(9.40452e-06 -0.00514368 0)
(0.00048911 -0.00516749 0)
(0.00105693 -0.00521694 0)
(0.0017536 -0.00528047 0)
(0.00261284 -0.00532623 0)
(0.00364324 -0.00530265 0)
(0.00481298 -0.00514767 0)
(0.0060449 -0.0048053 0)
(0.00722357 -0.00423349 0)
(0.00819275 -0.00340207 0)
(0.00874924 -0.00228516 0)
(0.00862887 -0.000857845 0)
(0.00747952 0.000899482 0)
(0.00483565 0.00297685 0)
(0.000128019 0.00532114 0)
(-0.00732125 0.00778281 0)
(-0.0180475 0.0100302 0)
(-0.0323158 0.0114704 0)
(-0.0487005 0.0113354 0)
(-0.0638041 0.00914324 0)
(-0.0744263 0.00515867 0)
(-0.0769873 0.000196338 0)
(-0.0696418 -0.0034183 0)
(-0.0558272 -0.00502256 0)
(-0.0389464 -0.00508436 0)
(-0.0222377 -0.00435301 0)
(-0.00796404 -0.00329551 0)
(0.00387027 -0.00250359 0)
(0.0114464 -0.0010213 0)
(0.0119107 0.00132203 0)
(5.95899e-05 -0.00586623 0)
(0.000771707 -0.00590818 0)
(0.00157461 -0.00599838 0)
(0.00248466 -0.00611431 0)
(0.00350909 -0.00620477 0)
(0.00463344 -0.00619403 0)
(0.00581689 -0.00600021 0)
(0.00698816 -0.00555831 0)
(0.00804971 -0.00482524 0)
(0.00886807 -0.00376973 0)
(0.00926483 -0.00236495 0)
(0.00899791 -0.000577993 0)
(0.00773906 0.00161601 0)
(0.00504575 0.00421543 0)
(0.00035319 0.00716046 0)
(-0.00705155 0.0102969 0)
(-0.0177728 0.0132057 0)
(-0.0322595 0.0150456 0)
(-0.0490519 0.0147907 0)
(-0.0644001 0.0118088 0)
(-0.0751826 0.00644271 0)
(-0.0777584 -0.000190032 0)
(-0.0700052 -0.00491421 0)
(-0.0558939 -0.00695964 0)
(-0.038819 -0.00696843 0)
(-0.0220276 -0.00592851 0)
(-0.00777531 -0.00445299 0)
(0.00407249 -0.00333769 0)
(0.0116567 -0.00129215 0)
(0.0122167 0.00193844 0)
(0.000110046 -0.00693167 0)
(0.00106562 -0.00697406 0)
(0.00211281 -0.00706092 0)
(0.00324355 -0.0071631 0)
(0.004441 -0.00722033 0)
(0.00567644 -0.00714786 0)
(0.00691128 -0.00685806 0)
(0.00809019 -0.00628225 0)
(0.00913778 -0.00537304 0)
(0.00993908 -0.00409391 0)
(0.0103276 -0.00240719 0)
(0.0100631 -0.000271239 0)
(0.00881076 0.00235036 0)
(0.00611796 0.00546802 0)
(0.00139947 0.00901432 0)
(-0.00609988 0.0128394 0)
(-0.0170237 0.0164427 0)
(-0.0320294 0.0187225 0)
(-0.049531 0.0183756 0)
(-0.0652612 0.0145627 0)
(-0.0762461 0.00775985 0)
(-0.078821 -0.000620898 0)
(-0.070509 -0.00645726 0)
(-0.056029 -0.00892816 0)
(-0.0387276 -0.00886766 0)
(-0.0218532 -0.00750668 0)
(-0.007646 -0.00560403 0)
(0.00421877 -0.0041753 0)
(0.0118271 -0.00156455 0)
(0.0125515 0.00256498 0)
(0.000135826 -0.00825314 0)
(0.0012453 -0.0082829 0)
(0.00244895 -0.00833393 0)
(0.00372606 -0.00837529 0)
(0.00504877 -0.00834659 0)
(0.00638381 -0.00816622 0)
(0.00769568 -0.00774885 0)
(0.00894016 -0.00702411 0)
(0.010053 -0.0059363 0)
(0.0109274 -0.00443607 0)
(0.0113984 -0.00247135 0)
(0.0112192 1.57803e-05 0)
(0.010042 0.00307097 0)
(0.00739757 0.00671842 0)
(0.00267459 0.0108842 0)
(-0.00493106 0.0154305 0)
(-0.0160967 0.019774 0)
(-0.0317733 0.0225425 0)
(-0.0501763 0.0221292 0)
(-0.066346 0.0174208 0)
(-0.0775519 0.00911238 0)
(-0.0801404 -0.00111017 0)
(-0.0711064 -0.00805958 0)
(-0.0561852 -0.0109365 0)
(-0.0386133 -0.0107855 0)
(-0.0216414 -0.00908705 0)
(-0.00749441 -0.00674602 0)
(0.0043893 -0.00501735 0)
(0.0120258 -0.00183941 0)
(0.0129631 0.00320312 0)
(0.000143935 -0.00972387 0)
(0.00134249 -0.00973547 0)
(0.00264361 -0.00973797 0)
(0.00402326 -0.0097003 0)
(0.00545116 -0.00956653 0)
(0.00689432 -0.00926195 0)
(0.00831927 -0.00870658 0)
(0.00968336 -0.00782811 0)
(0.0109229 -0.00655936 0)
(0.0119315 -0.00483649 0)
(0.0125389 -0.00258903 0)
(0.0124932 0.000255822 0)
(0.0114292 0.00375935 0)
(0.00886115 0.00795492 0)
(0.00415279 0.0127655 0)
(-0.00355702 0.0180746 0)
(-0.014976 0.0232167 0)