/*--------------------------------*- C++ -*----------------------------------*\
| =========                 |                                                 |
| \\      /  F ield         | OpenFOAM: The Open Source CFD Toolbox           |
|  \\    /   O peration     | Version:  2.4.0                                 |
|   \\  /    A nd           | Web:      www.OpenFOAM.org                      |
|    \\/     M anipulation  |                                                 |
\*---------------------------------------------------------------------------*/
FoamFile
{
    version     2.0;
    format      ascii;
    class       volScalarField;
    location    "0.064";
    object      alpha.water;
}
// * * * * * * * * * * * * * * * * * * * * * * * * * * * * * * * * * * * * * //

dimensions      [0 0 0 0 0 0 0];

internalField   nonuniform List<scalar> 
3600
(
1
1
1
1
1
1
1
1
1
1
1
1
1
1
1
1
1
1
0.999183
0.99532
0.979361
0.979361
0.983015
0.985354
0.979184
0.97914
0.97914
0.980317
0.997614
0.999992
1
1
1
1
1
1
1
1
1
1
1
1
1
1
1
1
1
1
0.99909
0.99596
0.990724
0.995023
0.999996
0.999995
0.990764
0.988141
0.993582
0.997673
0.99964
0.999996
1
1
1
1
1
1
1
1
1
1
1
1
1
1
1
1
1
1
0.999541
0.99602
0.999995
0.999996
0.999996
0.999996
0.999996
0.999998
0.999998
0.999999
1
0.999999
1
1
1
1
1
1
1
1
1
1
1
1
1
1
1
1
1
1
1
0.996684
0.998762
0.999867
0.999968
0.999989
0.997996
0.999211
0.999998
0.999999
1
1
1
1
1
1
1
1
1
1
1
1
1
1
1
1
1
1
1
1
1
0.998153
0.997911
0.997948
0.999799
0.999995
0.996167
0.996225
0.999816
1
1
1
1
1
1
1
1
1
1
1
1
1
1
1
1
1
1
1
1
1
1
0.999843
0.998283
0.998808
0.999899
1
0.996128
0.996117
0.998467
1
1
1
1
1
1
1
1
1
1
1
1
1
1
1
1
1
1
1
1
1
1
1
0.999918
0.999968
0.999995
1
0.996567
0.997939
1
0.999999
1
1
1
1
1
1
1
1
1
1
1
1
1
1
1
1
1
1
1
1
1
1
1
1
0.999999
1
0.999093
0.996949
1
1
1
1
1
1
1
1
1
1
1
1
1
1
1
1
1
1
1
1
1
1
1
1
1
1
0.999999
1
1
0.997003
0.998416
0.999991
1
1
1
1
1
1
1
1
1
1
1
1
1
1
1
1
1
1
1
1
1
1
1
1
1
1
1
0.998824
0.997972
0.999031
1
1
1
1
1
1
1
1
1
1
1
1
1
1
1
1
1
1
1
1
1
1
1
1
1
1
1
0.999836
0.997972
0.999231
1
1
1
1
1
1
1
1
1
1
1
1
1
1
1
1
1
1
1
1
1
1
1
1
1
1
1
1
0.999556
0.996959
0.999562
1
1
1
1
1
1
1
1
1
1
1
1
1
1
1
1
1
1
1
1
1
1
1
0.999942
0.999823
0.999829
0.999989
0.999603
0.996027
0.999335
0.999997
1
1
1
1
1
1
1
1
1
1
1
1
1
1
1
1
1
1
1
1
1
1
0.999992
0.999816
0.99982
0.999984
0.998936
0.99598
0.99869
0.999991
1
1
1
1
1
1
1
1
1
1
1
1
1
1
1
1
1
1
1
1
1
1
0.999999
0.999958
0.999967
0.999978
0.996307
0.995977
0.995981
0.999704
1
1
1
1
1
1
1
1
1
1
1
1
1
1
1
1
1
1
1
0.999999
0.999994
0.999999
0.999999
0.999994
0.999987
0.999982
0.99673
0.995966
0.995959
0.999228
1
1
1
1
1
1
1
1
1
1
1
1
1
1
1
1
1
1
1
0.999981
0.924313
0.946939
0.979818
0.999366
0.998817
0.999934
0.999155
0.995959
0.995966
0.999225
1
1
1
1
1
1
1
1
1
1
1
1
1
1
1
1
1
1
0.999996
0.956685
0.512294
0.620145
0.867238
0.943147
0.998216
0.999906
0.999979
0.996713
0.996805
0.999469
1
1
1
1
1
1
1
1
1
1
1
1
1
1
1
1
1
0.999999
0.999937
0.407008
0.121454
0.596942
0.917455
0.956056
0.997332
0.999968
0.999994
0.999685
0.999745
0.999854
1
1
1
1
1
1
1
1
1
1
1
1
1
1
1
1
1
0.999991
0.802125
0.0622034
0.0279724
0.408007
0.868713
0.998311
0.998857
0.999967
0.999998
0.999995
0.999991
0.999997
1
1
1
1
1
1
1
1
1
1
1
1
1
1
1
1
0.999997
0.99736
0.195273
0.000750102
0.00406305
0.0212524
0.744781
0.999925
0.999994
0.999995
0.999999
0.999998
0.999998
0.999999
1
1
1
1
1
1
1
1
1
1
1
1
1
1
1
0.999998
0.999948
0.488475
0.00309397
0.000311965
0.000699157
0.00336766
0.344184
0.99999
0.999998
0.999999
0.999999
0.999999
0.999999
0.999999
1
1
1
1
1
1
1
1
1
1
1
1
1
1
0.999999
0.999966
0.809736
0.03592
0.000220132
0.000243191
0.000223761
0.000835712
0.124467
0.812225
0.999999
0.999999
0.999999
0.999999
0.999999
0.999999
1
1
1
1
1
1
1
1
1
1
1
1
1
1
0.999983
0.976352
0.154787
0.000400027
5.96293e-05
2.83018e-05
7.04591e-05
0.000996298
0.0250433
0.224121
0.94191
0.999999
0.999999
0.999999
0.999999
0.999999
1
1
1
1
1
1
1
1
1
1
1
1
1
0.999994
0.999052
0.367196
0.0003933
5.26446e-05
2.52482e-05
2.11952e-05
2.64862e-05
0.00133591
0.00186914
0.00536521
0.288938
0.854875
0.997332
0.999999
0.999999
0.999999
1
1
1
1
1
1
1
1
1
1
1
1
0.999997
0.999879
0.577248
0.00164115
2.98559e-05
1.89074e-05
1.64683e-05
1.66529e-05
1.85628e-05
0.000805784
0.000276256
0.000767285
0.000979814
0.149978
0.456618
0.669167
0.763223
0.794453
1
1
1
1
1
1
1
1
1
1
1
0.999999
0.999948
0.756972
0.00471932
4.03811e-05
1.98571e-05
1.63306e-05
1.66482e-05
1.65138e-05
1.90852e-05
5.2269e-05
6.39068e-05
0.000153091
8.44092e-05
0.000355087
0.00692239
0.0463328
0.0907618
0.11357
1
1
1
1
1
1
1
1
1
1
1
0.999984
0.933584
0.0852331
0.000363084
6.65705e-05
1.75214e-05
1.70777e-05
1.65761e-05
1.70714e-05
2.28523e-05
2.3615e-05
2.54194e-05
3.50981e-05
2.14161e-05
7.43883e-05
0.000505238
0.00112833
0.00175536
0.00213299
1
1
1
1
1
1
1
1
1
1
0.999815
0.999723
0.300918
0.000305108
5.51549e-05
5.41943e-05
4.32555e-05
5.4844e-05
2.76229e-05
1.48852e-05
1.66843e-05
1.50406e-05
1.10675e-05
1.23353e-05
1.03282e-05
2.3584e-05
0.000110426
0.000293409
0.000479591
0.000613193
1
1
1
1
1
1
1
1
1
1
0.993683
0.656041
0.000310108
5.42039e-05
3.94278e-05
4.95835e-05
8.08292e-05
8.23076e-05
6.39765e-05
1.33548e-05
8.6843e-06
7.13456e-06
8.37562e-06
7.42746e-06
6.47984e-06
9.6797e-06
4.55711e-05
0.000134543
0.000237901
0.000310635
0.999993
0.997354
0.979958
0.979236
0.979236
0.97928
0.98547
0.982982
0.979592
0.979592
0.99535
0.999057
1
1
1
1
1
1
1
1
1
1
1
1
1
1
1
1
1
1
0.999998
0.999579
0.99742
0.99328
0.988218
0.991172
0.999996
0.999996
0.994933
0.991027
0.995935
0.999001
1
1
1
1
1
1
1
1
1
1
1
1
1
1
1
1
1
1
1
1
0.999999
0.999996
0.999996
0.999996
0.999996
0.999997
0.999997
0.999997
0.995979
0.999533
1
1
1
1
1
1
1
1
1
1
1
1
1
1
1
1
1
1
1
1
0.999999
0.999997
0.999198
0.99793
0.999992
0.999972
0.999874
0.998718
0.996603
1
1
1
1
1
1
1
1
1
1
1
1
1
1
1
1
1
1
1
1
1
1
0.999853
0.996168
0.996051
0.999996
0.999827
0.997978
0.997873
0.998102
1
1
1
1
1
1
1
1
1
1
1
1
1
1
1
1
1
1
1
1
1
1
0.998541
0.996003
0.996013
1
0.99991
0.998881
0.998343
0.999848
1
1
1
1
1
1
1
1
1
1
1
1
1
1
1
1
1
1
1
1
1
0.999999
1
0.997942
0.996414
1
0.999996
0.999978
0.99994
1
1
1
1
1
1
1
1
1
1
1
1
1
1
1
1
1
1
1
1
1
1
1
1
0.996959
0.999132
1
0.999999
1
1
1
1
1
1
1
1
1
1
1
1
1
1
1
1
1
1
1
1
1
1
1
1
1
0.998528
0.996996
1
1
0.999999
1
1
1
1
1
1
1
1
1
1
1
1
1
1
1
1
1
1
1
1
1
1
1
1
0.999114
0.998137
0.998892
1
1
1
1
1
1
1
1
1
1
1
1
1
1
1
1
1
1
1
1
1
1
1
1
1
1
1
0.999337
0.998137
0.999875
1
1
1
1
1
1
1
1
1
1
1
1
1
1
1
1
1
1
1
1
1
1
1
1
1
1
0.999587
0.99725
0.999619
1
1
1
1
1
1
1
1
1
1
1
1
1
1
1
1
1
1
1
1
1
1
1
1
1
1
0.999997
0.999407
0.996233
0.999652
0.999982
0.999803
0.9998
0.999941
1
1
1
1
1
1
1
1
1
1
1
1
1
1
1
1
1
1
1
1
1
1
0.999985
0.998555
0.996189
0.998965
0.999976
0.999792
0.999787
0.999994
1
1
1
1
1
1
1
1
1
1
1
1
1
1
1
1
1
1
1
1
1
1
0.9997
0.996173
0.996186
0.99647
0.99998
0.999961
0.999949
1
1
1
1
1
1
1
1
1
1
1
1
1
1
1
1
1
1
1
1
1
1
1
0.999204
0.996168
0.996173
0.996744
0.999986
0.999989
0.999994
0.999999
1
0.999995
0.999999
1
1
1
1
1
1
1
1
1
1
1
1
1
1
1
1
1
1
1
0.999207
0.996173
0.996167
0.999087
0.999908
0.999064
0.999989
0.978233
0.944987
0.918078
0.99998
1
1
1
1
1
1
1
1
1
1
1
1
1
1
1
1
1
1
1
0.999459
0.996831
0.996834
0.999978
0.9999
0.997395
0.941551
0.873277
0.622375
0.511944
0.945497
0.999996
1
1
1
1
1
1
1
1
1
1
1
1
1
1
1
1
1
1
0.999856
0.999703
0.999672
0.999994
0.999978
0.99653
0.954294
0.920776
0.603078
0.133368
0.38825
0.999936
0.999999
1
1
1
1
1
1
1
1
1
1
1
1
1
1
1
1
1
0.999997
0.99999
0.999995
0.999998
0.999969
0.998636
0.998103
0.851735
0.369276
0.0189194
0.0616952
0.779294
0.999991
1
1
1
1
1
1
1
1
1
1
1
1
1
1
1
1
1
0.999999
0.999998
0.999998
0.999999
0.999994
0.999994
0.999913
0.728011
0.0455687
0.0035122
0.000696388
0.186048
0.99787
0.999997
1
1
1
1
1
1
1
1
1
1
1
1
1
1
1
1
0.999999
0.999999
0.999999
0.999999
0.999999
0.999998
0.998178
0.315187
0.00299182
0.000639373
0.000298997
0.00542534
0.491199
0.999949
0.999998
1
1
1
1
1
1
1
1
1
1
1
1
1
1
1
0.999999
0.999999
0.999999
0.999999
0.999999
0.999999
0.81202
0.131796
0.000868728
0.000228829
0.000243014
0.000204739
0.0372541
0.820367
0.999968
0.999999
1
1
1
1
1
1
1
1
1
1
1
1
1
1
0.999999
0.999999
0.999999
0.999999
0.999999
0.956976
0.232265
0.0265434
0.0023796
8.11031e-05
2.69567e-05
5.34671e-05
0.000353967
0.161176
0.977477
0.999983
1
1
1
1
1
1
1
1
1
1
1
1
1
1
0.999999
0.999999
0.999999
0.99646
0.870013
0.291685
0.00686815
0.00206903
0.00229525
2.52807e-05
1.94173e-05
2.39418e-05
4.80542e-05
0.000350005
0.370714
0.999446
0.999994
1
1
1
1
1
1
1
1
1
1
1
1
1
0.79712
0.755384
0.666008
0.448516
0.174087
0.000229837
0.000357164
0.000142679
7.11216e-05
1.79127e-05
1.69737e-05
1.63668e-05
1.86817e-05
2.64752e-05
0.00190573
0.592401
0.999875
0.999997
1
1
1
1
1
1
1
1
1
1
1
1
0.11519
0.0857801
0.0440485
0.00640859
0.000104242
0.00011038
0.000163554
5.54265e-05
1.73244e-05
1.68836e-05
1.68122e-05
1.6975e-05
1.65148e-05
1.94488e-05
3.64956e-05
0.00704822
0.76207
0.999949
0.999999
1
1
1
1
1
1
1
1
1
1
1
0.00209444
0.00163186
0.0010197
0.000497679
3.90809e-05
1.90617e-05
5.19718e-05
3.44681e-05
1.68807e-05
1.67976e-05
1.67959e-05
1.68122e-05
1.71844e-05
1.60391e-05
5.60967e-05
0.000328962
0.0866707
0.930025
0.999984
1
1
1
1
1
1
1
1
1
1
1
0.000600649
0.000440614
0.000264108
0.000116893
2.02373e-05
1.24824e-05
2.2683e-05
4.96178e-05
7.99693e-05
2.6743e-05
1.67795e-05
1.68089e-05
3.37702e-05
4.49321e-05
4.67724e-05
5.53614e-05
0.000296972
0.297984
0.999727
0.999819
1
1
1
1
1
1
1
1
1
1
0.000303684
0.000217144
0.000122625
5.38463e-05
1.13448e-05
9.15807e-06
1.25949e-05
0.000111971
0.000150438
0.000122872
1.68085e-05
2.49761e-05
5.60659e-05
5.57698e-05
5.21925e-05
4.17922e-05
5.5883e-05
0.000299983
0.659317
0.993706
1
1
1
1
1
1
1
1
1
1
0.758857
0.955367
1
1
1
1
1
1
1
1
0.9897
0.0132458
8.2046e-05
3.25407e-05
3.41624e-05
4.05144e-05
9.23765e-05
8.76517e-05
7.25285e-05
9.01151e-06
8.06475e-06
7.13448e-06
6.3575e-06
5.73019e-06
4.08842e-06
6.31552e-06
1.97198e-05
5.53365e-05
9.93012e-05
0.000131744
0.120545
0.316696
0.864283
1
1
1
1
1
1
0.999997
0.997864
0.00632091
3.32542e-05
1.69725e-05
2.82589e-05
0.000107448
9.71286e-05
5.0274e-05
6.7871e-05
2.86153e-05
7.06681e-06
6.0371e-06
5.30292e-06
4.44517e-06
3.81673e-06
4.20249e-06
1.00817e-05
2.47773e-05
4.41258e-05
6.00559e-05
0.0977016
0.279433
0.456413
0.766346
0.939221
0.984549
0.997796
1
0.999804
0.999894
0.970497
0.00899828
-1.842e-06
1.55119e-05
2.25417e-05
0.000115703
9.73777e-05
4.96749e-06
3.08752e-05
3.35525e-05
6.14545e-06
5.30548e-06
4.52103e-06
3.90916e-06
3.10469e-06
3.04233e-06
4.34068e-06
9.42556e-06
1.69102e-05
2.2926e-05
0.00079233
0.147242
0.504679
0.725909
0.890144
0.966977
0.988937
0.997177
0.999087
0.995795
0.489953
9.5299e-05
4.53625e-05
1.09159e-05
9.2509e-05
0.000115958
3.44943e-05
2.72996e-06
2.36197e-06
2.70281e-05
2.92084e-05
6.04132e-06
9.5409e-06
5.03537e-06
3.82149e-06
3.46565e-06
3.15528e-06
3.27642e-06
6.30211e-06
9.1017e-06
5.45219e-05
0.00565552
0.156189
0.42499
0.776814
0.948861
0.988358
0.999301
0.999301
0.971621
0.119104
0.000214277
9.81376e-06
1.4345e-06
0.000115949
0.000115949
3.94192e-05
1.52194e-06
2.04852e-06
5.40423e-06
0.000319231
4.36178e-05
1.89111e-05
3.7431e-06
3.64552e-06
3.71149e-06
3.36492e-06
2.9273e-06
2.92143e-06
3.76016e-06
5.33038e-05
4.34737e-06
0.00352657
0.108755
0.457618
0.821608
0.97737
0.999301
0.999064
0.770129
0.0245406
-1.3837e-07
1.67444e-10
2.74596e-07
0.000115921
0.000115959
1.12022e-05
1.30929e-06
1.83817e-05
6.3493e-06
0.000380859
0.000347695
8.31649e-06
3.63246e-06
3.48347e-06
3.35124e-06
3.45582e-06
3.05013e-06
2.82453e-06
2.42861e-06
0.000130042
2.94728e-06
1.91345e-05
0.00959024
0.117833
0.443726
0.795252
0.963382
0.859818
0.0834727
-3.49584e-08
-2.6311e-06
-1.62116e-12
1.53222e-10
0.000100956
0.000115921
3.88818e-06
1.2701e-06
3.67993e-05
1.02384e-05
0.000382137
0.000381339
6.08612e-05
1.10814e-05
3.35131e-06
3.20429e-06
3.01968e-06
2.89064e-06
2.75892e-06
2.41522e-06
0.000128662
1.71527e-06
1.71528e-06
4.61609e-06
0.000113302
0.0350865
0.243603
0.433036
0.323965
-5.22713e-09
-4.59397e-08
-4.31831e-09
1.1197e-10
2.88162e-07
2.87987e-06
0.000115826
1.34371e-06
1.183e-06
3.69833e-05
5.33718e-05
0.000383111
0.000381326
0.000367614
1.95223e-05
3.57172e-06
4.72445e-06
2.88593e-06
2.79082e-06
2.63709e-06
2.59767e-06
1.93899e-05
2.60172e-06
1.32203e-05
1.02816e-05
-6.27413e-13
-1.14439e-12
-3.09311e-12
-8.63019e-12
-1.67565e-11
-9.4236e-10
-1.06273e-10
7.50716e-11
2.05006e-09
5.80465e-07
1.35044e-06
0.000115057
7.4745e-06
1.0665e-06
5.30143e-06
0.00010156
0.000386421
0.00038311
0.000381326
1.07955e-05
3.82653e-06
1.36929e-05
1.1717e-05
2.91779e-06
2.52121e-06
2.45608e-06
5.95949e-09
5.71405e-06
2.5822e-05
2.13986e-05
-3.94944e-11
-1.33146e-10
-3.48142e-10
-7.83792e-10
-3.97026e-10
-4.97539e-10
1.0822e-11
1.05597e-10
2.91884e-10
3.41819e-06
6.17899e-05
0.000115237
7.09396e-05
1.0015e-06
1.06585e-06
3.66703e-05
0.000219313
0.000381326
0.000111938
4.05586e-06
3.95514e-06
1.40856e-05
1.4091e-05
1.35098e-05
4.37705e-06
2.43018e-06
1.22844e-09
2.91154e-06
2.5822e-05
1.05075e-05
-4.58665e-11
-2.72723e-10
-1.04304e-09
-1.44995e-09
1.48981e-09
6.09182e-10
2.82923e-10
2.73827e-10
4.85917e-10
5.72352e-06
0.000115022
0.000114984
0.000112062
9.3524e-07
1.00152e-06
1.4356e-06
0.00011025
0.000377159
8.82217e-05
8.42709e-05
5.37848e-05
4.89781e-06
1.08574e-05
1.29089e-05
5.67837e-06
2.42119e-06
6.01975e-11
1.10399e-06
2.5822e-05
1.0489e-08
-2.29169e-12
-1.22152e-10
-9.92419e-10
-3.11434e-10
8.34199e-09
4.20102e-09
4.11946e-10
1.95268e-10
3.93163e-10
1.9679e-06
5.00759e-05
0.000114984
1.41397e-05
7.47834e-07
9.35273e-07
1.44664e-05
0.000144337
0.000297553
9.04605e-05
0.000234186
0.00020689
3.34946e-06
2.95547e-06
2.80016e-06
2.93535e-06
2.42053e-06
7.62619e-12
5.87425e-08
5.08609e-06
1.03756e-11
5.14304e-12
9.11568e-11
3.07339e-10
1.68708e-09
8.34337e-09
5.09548e-09
3.59374e-10
1.66518e-10
1.89318e-10
1.08774e-09
1.62158e-07
5.54297e-05
7.47827e-07
5.46508e-07
2.53417e-06
1.73915e-05
3.21276e-05
3.86719e-05
0.000233703
0.000235505
0.000233908
2.95544e-06
2.72543e-06
2.47972e-06
2.42042e-06
2.42031e-06
2.08424e-11
1.45573e-09
1.02567e-10
8.66509e-11
7.75793e-11
4.8181e-11
8.32812e-11
4.73805e-10
4.4257e-09
3.79991e-10
1.69017e-10
1.24414e-10
1.44935e-10
4.00826e-07
1.7572e-05
2.41492e-05
1.70243e-06
5.10398e-07
2.74241e-07
1.04922e-06
4.58937e-07
7.31192e-06
0.000187907
0.000235347
0.000235448
0.000161585
9.87369e-06
2.43696e-06
2.42025e-06
2.42035e-06
8.78534e-12
1.04791e-10
1.10577e-10
1.20578e-10
5.12314e-11
2.73283e-11
3.46653e-11
1.54541e-11
9.37405e-13
9.11551e-13
4.09245e-11
4.70787e-11
7.20961e-11
4.80398e-09
3.83809e-05
0.000103894
6.87481e-05
6.43437e-08
5.10426e-08
2.87102e-08
7.07204e-08
4.46608e-07
3.67596e-05
0.000211724
0.000234491
0.000234638
0.000112299
3.12222e-05
2.53941e-05
4.08019e-05
8.43976e-12
1.49914e-11
2.11672e-11
1.04448e-10
3.20702e-11
1.28214e-11
1.21408e-11
9.82165e-12
2.41938e-12
8.87293e-13
6.63461e-12
2.0157e-11
4.22066e-11
9.92243e-10
4.40418e-06
0.000104328
0.000159513
8.5818e-05
2.90515e-06
2.49624e-08
2.12214e-08
6.3462e-08
3.7886e-07
2.69657e-05
8.86465e-05
9.10478e-05
6.68992e-05
4.17373e-05
5.73804e-05
5.91241e-05
7.59091e-12
6.99184e-12
5.3435e-11
7.88983e-11
1.86855e-11
4.94602e-12
3.16604e-12
3.89654e-12
1.65653e-12
5.93907e-13
3.56681e-13
7.15052e-12
1.80416e-11
4.70127e-11
1.19929e-09
4.64845e-06
0.000161201
0.000189983
0.000189681
5.18444e-05
1.52325e-08
5.1994e-09
3.05554e-08
1.41224e-07
3.42514e-07
3.96418e-07
7.36348e-07
4.27786e-06
1.12467e-05
2.96231e-05
4.89938e-12
3.23445e-12
3.64248e-11
5.06058e-11
9.29112e-12
1.50664e-12
6.01195e-13
7.92791e-13
5.06075e-13
2.02092e-13
5.64402e-14
5.35443e-13
7.2754e-12
1.15809e-11
3.13721e-11
1.3386e-09
4.88716e-08
9.73326e-05
0.000190651
0.000190052
2.56393e-05
1.11453e-09
2.24326e-09
9.83203e-09
2.17558e-08
2.79901e-08
2.65229e-08
2.97017e-08
5.39767e-08
1.85982e-07
1.6027e-12
1.09783e-12
1.37497e-11
2.55073e-11
3.72208e-12
3.69265e-13
8.09282e-14
1.06291e-13
5.8605e-14
2.14297e-14
9.51214e-15
1.64852e-13
2.21813e-12
1.58401e-11
2.60997e-11
4.08253e-11
7.42525e-10
1.15104e-06
7.0264e-05
0.000155251
4.52961e-05
7.24696e-10
2.40136e-10
7.19556e-10
1.53625e-09
1.89882e-09
1.87635e-09
2.13452e-09
3.68857e-09
7.66912e-09
4.45119e-13
2.5885e-13
4.09304e-12
9.24002e-12
1.10958e-12
7.46399e-14
7.92491e-15
9.07726e-15
4.7775e-15
1.50999e-15
1.2047e-15
3.09304e-14
5.02055e-13
4.38144e-12
2.19933e-11
3.1784e-11
4.24671e-11
1.94211e-09
5.41901e-07
7.72072e-06
1.30031e-05
2.18859e-10
1.00276e-10
1.9668e-10
3.03256e-10
3.02869e-10
3.07979e-10
3.07627e-10
3.88381e-10
5.92404e-10
6.70076e-14
4.09593e-14
9.15618e-13
2.27731e-12
2.30051e-13
1.19745e-14
6.51277e-16
4.69565e-16
2.30105e-16
6.35367e-17
1.53325e-16
5.90515e-15
1.0735e-13
1.10528e-12
7.47872e-12
3.56625e-11
1.04645e-10
1.03838e-10
2.79118e-10
1.38547e-09
4.6668e-09
2.31371e-07
9.53197e-11
1.36651e-10
1.7256e-10
1.65178e-10
1.50984e-10
1.47114e-10
1.50919e-10
1.7208e-10
6.54112e-15
4.28098e-15
1.47537e-13
3.67981e-13
3.14865e-14
1.38015e-15
5.00634e-17
1.29564e-17
5.61819e-18
1.44652e-18
6.64929e-18
3.0362e-16
7.10634e-15
9.96593e-14
8.90885e-13
5.39916e-12
2.37539e-11
7.88409e-11
7.10378e-11
8.3435e-11
2.59482e-10
1.38464e-08
2.14486e-09
4.40082e-11
1.244e-10
1.23173e-10
1.04607e-10
9.48744e-11
9.87522e-11
1.25156e-10
4.13569e-16
2.87849e-16
1.64645e-14
3.73073e-14
2.70286e-15
1.02475e-16
3.00483e-18
1.86751e-19
5.24868e-20
1.51482e-20
2.83253e-19
1.44404e-17
3.79879e-16
6.17016e-15
6.94988e-14
5.79029e-13
3.59871e-12
1.67019e-11
5.33275e-11
4.96244e-11
7.15403e-11
8.07487e-11
5.18635e-10
2.40243e-11
3.92587e-11
3.71119e-11
2.64543e-11
1.8423e-11
1.33975e-11
1.1281e-11
1.69422e-17
1.21424e-17
1.22219e-15
2.20774e-15
1.36081e-16
4.44933e-18
1.10058e-19
2.65219e-21
2.37473e-22
1.34818e-22
4.18912e-21
2.67481e-19
9.19676e-18
2.01035e-16
3.03691e-15
3.37756e-14
2.90096e-13
1.94371e-12
8.95518e-12
2.49591e-11
4.83123e-11
6.61606e-11
7.29618e-11
8.4604e-12
9.49061e-12
8.85101e-12
5.53086e-12
2.85678e-12
1.03597e-12
-2.39665e-13
4.47371e-19
3.10598e-19
5.77561e-17
6.56979e-17
3.58854e-18
1.00971e-19
2.09371e-21
3.58316e-23
1.8826e-24
1.88249e-24
3.65326e-23
2.76846e-21
1.18777e-19
3.33518e-18
6.73297e-17
1.03842e-15
1.26287e-14
1.22965e-13
7.80917e-13
2.91464e-12
6.64349e-12
9.30893e-12
8.63984e-12
1.77465e-12
1.58881e-12
1.50603e-12
8.8842e-13
3.7848e-13
3.63445e-14
-2.0721e-13
7.56697e-21
4.62282e-21
1.64971e-18
7.94563e-19
3.95496e-20
9.69642e-22
1.67826e-23
2.33389e-25
2.39235e-26
2.28831e-26
1.30312e-25
1.22827e-23
7.13365e-22
2.78143e-20
7.92309e-19
1.74386e-17
3.07624e-16
4.41215e-15
3.85393e-14
1.86453e-13
5.21357e-13
8.24245e-13
7.74248e-13
2.2185e-13
1.73525e-13
1.69263e-13
9.86869e-14
3.91855e-14
1.6384e-16
-2.63129e-14
8.13034e-23
4.2693e-23
2.66433e-20
2.35132e-21
1.01535e-22
2.19449e-24
3.23497e-26
5.3564e-28
2.43723e-28
1.87787e-28
2.14718e-28
2.22266e-26
1.82492e-24
1.03244e-22
4.36457e-21
1.45179e-19
3.91622e-18
8.68376e-17
1.08849e-15
6.9336e-15
2.40558e-14
4.45965e-14
4.60829e-14
1.66619e-14
1.20252e-14
1.21168e-14
7.1276e-15
2.81163e-15
3.10169e-17
-1.74508e-15
5.55785e-25
2.65649e-25
2.20552e-22
9.14218e-25
5.53043e-27
5.05639e-29
4.50375e-30
1.97008e-30
1.82239e-30
9.66464e-31
2.43576e-31
1.249e-29
1.61366e-27
1.46552e-25
1.00675e-23
5.48407e-22
2.43921e-20
8.97524e-19
1.74216e-17
1.52011e-16
6.67955e-16
1.48544e-15
1.74296e-15
7.59769e-16
5.2491e-16
5.47207e-16
3.27632e-16
1.31314e-16
6.1132e-18
-6.93913e-17
2.47437e-27
1.13906e-27
8.00197e-25
1.8172e-27
7.71049e-30
2.27869e-31
3.52677e-32
1.34502e-32
9.59979e-33
3.10852e-33
3.51863e-34
1.18931e-33
2.90751e-31
5.11258e-29
6.80977e-27
7.19671e-25
6.21788e-23
4.45516e-21
1.55139e-19
1.98193e-18
1.14168e-17
3.1093e-17
4.21374e-17
2.1594e-17
1.46715e-17
1.58559e-17
9.70521e-18
3.97537e-18
3.29858e-19
-1.76281e-18
7.94785e-30
3.79592e-30
9.97094e-28
8.15125e-31
1.27532e-32
1.39708e-33
2.07558e-34
6.87673e-35
3.71634e-35
6.29055e-36
2.75416e-37
7.86636e-39
1.0783e-36
6.72986e-34
3.1676e-31
1.17739e-28
3.54522e-26
8.67506e-24
7.65032e-22
1.60006e-20
1.26914e-19
4.3321e-19
6.86571e-19
4.07849e-19
2.77954e-19
3.12305e-19
1.95959e-19
8.20801e-20
9.29789e-21
-3.08273e-20
0.000128191
9.06349e-05
4.96503e-05
2.33782e-05
8.42615e-06
6.2843e-06
3.29671e-05
0.00015141
0.000154301
0.000150287
1.71495e-05
2.09137e-05
3.67071e-05
4.57083e-05
5.25042e-05
3.58936e-05
3.74324e-05
8.65056e-05
0.015884
0.989734
1
1
1
1
1
1
1
1
0.955617
0.75924
5.86203e-05
4.00369e-05
2.16251e-05
9.97328e-06
5.76449e-06
4.22144e-06
3.65819e-05
0.000155274
0.000155431
0.000154301
3.10467e-05
1.48147e-05
1.32185e-05
1.4506e-05
7.63451e-05
3.25545e-05
2.34188e-05
3.94951e-05
0.0065474
0.997868
0.999997
1
1
1
1
1
0.999864
0.864007
0.317319
0.120904
2.22747e-05
1.51242e-05
7.8286e-06
4.40967e-06
2.72919e-06
3.50347e-06
1.52553e-05
8.92405e-05
0.000154987
0.000154987
6.73648e-05
1.74389e-05
1.3107e-05
1.37364e-05
7.6245e-05
2.7251e-05
2.12224e-05
3.46118e-06
0.00948518
0.972618
0.999895
0.999802
1
0.997875
0.984323
0.938492
0.764057
0.456698
0.281073
0.098443
8.61212e-06
5.93672e-06
3.41595e-06
2.45318e-06
2.66505e-06
2.91041e-06
3.51007e-06
1.00915e-05
0.000113324
8.64294e-05
2.80712e-05
1.32017e-05
1.21328e-05
3.11498e-05
7.57426e-05
6.60584e-05
1.66405e-05
5.40557e-05
0.000106708
0.498195
0.995996
0.999057
0.997098
0.988908
0.967091
0.89128
0.72875
0.509903
0.152961
0.00108344
3.79756e-06
2.78373e-06
2.01086e-06
1.94484e-06
2.22803e-06
2.78561e-06
3.03616e-06
4.87925e-06
9.36661e-06
1.32642e-05
1.13736e-05
1.12098e-05
1.15093e-05
6.80647e-05
7.57426e-05
7.57426e-05
2.86026e-06
1.08053e-05
0.000217915
0.122521
0.973347
0.999247
0.999247
0.988188
0.948143
0.776463
0.425095
0.157452
0.00580754
5.98837e-05
2.35786e-06
2.38229e-06
2.41845e-06
2.42444e-06
2.48028e-06
3.03534e-06
3.17283e-06
9.36808e-06
5.69068e-05
0.000200532
1.79474e-05
1.11986e-05
1.11938e-05
1.1295e-05
7.57426e-05
7.55245e-05
1.69436e-06
3.20691e-09
-1.14528e-07
0.0242345
0.775042
0.999034
0.999247
0.976575
0.817739
0.452334
0.106777
0.0034619
5.78711e-06
5.97121e-05
2.15178e-06
2.40598e-06
2.52298e-06
2.52242e-06
2.47426e-06
4.88669e-06
1.12022e-05
1.22375e-05
0.000327293
0.000331454
2.09711e-05
1.57109e-05
1.11938e-05
1.12556e-05
7.55245e-05
7.43747e-05
1.3958e-06
-1.50863e-11
-5.45228e-06
-8.39214e-08
0.0879335
0.864518
0.963609
0.791443
0.434039
0.112556
0.00918541
2.5447e-05
4.32509e-06
0.00013175
2.41312e-06
2.5058e-06
2.50575e-06
2.48943e-06
2.47423e-06
3.43037e-06
2.09188e-05
3.6481e-05
0.000338706
0.000334835
2.71423e-05
1.92387e-05
1.11938e-05
1.12884e-05
6.81009e-05
2.27723e-05
1.35e-07
7.69991e-12
-7.8641e-09
-9.68358e-08
-1.07509e-08
0.328685
0.435816
0.242397
0.0324186
2.58751e-05
4.91221e-06
2.0918e-06
2.0918e-06
0.000125032
2.49547e-06
2.49141e-06
3.19467e-06
2.48647e-06
2.48789e-06
2.48669e-06
1.00353e-05
0.000311838
0.000338706
0.000206436
1.45825e-05
1.17334e-05
1.12873e-05
8.56439e-05
8.27355e-06
2.03569e-07
1.11835e-07
2.32072e-09
1.801e-10
2.18692e-13
1.33413e-11
5.34824e-12
5.94027e-20
-2.31401e-13
-1.56363e-13
-1.36161e-13
1.05632e-05
1.41125e-05
3.31734e-06
3.87191e-06
2.4311e-06
3.06206e-06
3.34589e-06
2.82937e-06
2.48703e-06
2.49039e-06
2.52478e-06
0.000295281
0.000338706
1.81118e-05
1.20838e-05
1.20838e-05
3.85553e-05
0.000201742
3.33128e-05
5.66413e-07
3.4605e-07
1.01497e-07
1.08289e-09
5.25621e-10
9.29754e-10
4.77688e-11
1.41627e-11
-5.13483e-11
-1.94102e-11
-8.09413e-12
2.00518e-05
2.78709e-05
6.89027e-06
6.92033e-09
2.42674e-06
3.34571e-06
3.34589e-06
2.53178e-06
2.48843e-06
2.48877e-06
2.49465e-06
8.0378e-05
0.000338705
0.000202372
3.53384e-05
1.20838e-05
0.000208019
0.000205717
5.8523e-05
1.03907e-05
8.43477e-06
2.04853e-07
4.68151e-10
6.72763e-10
1.00015e-08
7.8038e-09
1.03909e-09
1.3233e-10
6.03657e-11
2.89945e-16
9.59503e-06
2.78709e-05
3.35187e-06
1.47741e-09
2.42145e-06
3.00248e-06
3.24888e-06
2.48848e-06
2.48497e-06
1.12624e-05
0.000130425
8.6219e-05
0.000335043
0.000327472
0.000307116
0.000237142
0.000253032
0.000154382
4.32352e-05
4.52437e-05
1.41286e-05
1.26747e-09
1.71596e-10
5.54982e-10
1.35264e-08
1.54876e-08
4.73635e-09
1.8745e-10
1.06686e-10
4.71045e-13
1.2849e-08
2.78709e-05
1.30849e-06
7.58127e-11
2.42043e-06
2.42145e-06
2.45018e-06
2.48302e-06
2.48114e-06
0.000126774
0.000174465
0.000131086
8.99133e-05
0.000208829
0.000240053
0.00025539
0.00025539
3.13601e-05
4.46946e-05
4.40397e-05
2.1491e-06
1.54749e-10
8.78121e-11
2.55587e-10
4.13717e-11
1.50697e-08
4.07015e-09
1.8074e-10
9.34101e-11
8.92145e-12
1.36692e-11
5.79943e-06
7.64567e-08
7.92755e-12
2.42042e-06
2.42042e-06
2.43383e-06
2.4623e-06
5.26259e-05
0.000174465
0.000174465
0.000132269
4.39401e-06
7.0685e-06
1.29368e-05
7.85102e-05
1.7305e-05
1.88448e-05
6.33936e-05
4.42631e-06
6.9781e-10
7.93576e-11
5.95227e-11
1.50276e-10
2.58877e-11
2.01369e-09
1.93055e-11
9.5112e-11
5.38589e-11
7.49523e-11
8.31888e-11
9.34406e-11
1.95205e-09
2.5231e-11
4.33413e-05
3.15987e-05
3.58488e-05
9.9395e-05
0.000172232
0.000173738
0.000174465
5.95201e-05
6.03385e-07
1.63599e-07
9.61541e-08
5.33708e-07
3.08948e-06
6.4527e-05
6.45715e-05
9.3132e-06
1.08619e-09
3.7289e-11
3.29842e-11
7.696e-11
1.12134e-12
1.16558e-12
1.57323e-11
3.75796e-11
3.08875e-11
5.11022e-11
1.17465e-10
1.164e-10
1.16017e-10
9.11311e-12
5.91242e-05
5.91242e-05
5.63933e-05
8.72097e-05
0.000129257
0.000122775
5.51082e-05
2.05186e-06
7.68072e-08
4.56084e-08
7.08041e-08
2.82316e-05
0.000156687
0.000155239
4.27741e-05
9.30886e-09
1.604e-10
3.06764e-11
1.88224e-11
2.2957e-11
1.01544e-12
2.71865e-12
9.5462e-12
1.31842e-11
1.45024e-11
3.35178e-11
1.10737e-10
2.25272e-11
1.63485e-11
8.42562e-12
2.87648e-05
1.10538e-05
7.75196e-06
5.64226e-06
4.60696e-06
3.13881e-06
2.2725e-07
4.58135e-08
8.30376e-09
3.01709e-08
6.03983e-05
0.00018014
0.000178757
3.3949e-05
1.23912e-08
2.05943e-10
2.91122e-11
3.03217e-11
2.51708e-12
1.91079e-13
6.30767e-13
1.68348e-12
3.75449e-12
3.42227e-12
5.55071e-12
1.99794e-11
8.59835e-11
5.05171e-11
7.31863e-12
7.32254e-12
1.6886e-07
5.21613e-08
4.45738e-08
4.35453e-08
4.81778e-08
3.53115e-08
1.6531e-08
3.63524e-09
1.17962e-09
2.28836e-05
0.000180094
0.000180289
5.31913e-05
2.74726e-08
5.57722e-10
5.60729e-11
2.86873e-11
6.52844e-12
3.88296e-13
5.02706e-14
2.11657e-13
5.19477e-13
7.42996e-13
6.45387e-13
1.66684e-12
9.94421e-12
5.41817e-11
4.08235e-11
3.30119e-12
4.62282e-12
7.48192e-09
3.55988e-09
3.04797e-09
2.91563e-09
3.07991e-09
2.2401e-09
1.15998e-09
3.9927e-10
3.78358e-10
2.84689e-05
0.000151735
8.02835e-05
1.28769e-06
9.76669e-10
8.3788e-11
2.99161e-11
1.88379e-11
2.13535e-12
1.33385e-13
8.08265e-15
2.03448e-14
5.51154e-14
9.93057e-14
8.66842e-14
4.02976e-13
3.96964e-12
2.66214e-11
1.60972e-11
1.13593e-12
1.59385e-12
5.79828e-10
3.69802e-10
3.42331e-10
3.35136e-10
3.39053e-10
2.99947e-10
2.25847e-10
1.7405e-10
2.83331e-10
8.23377e-06
7.49795e-06
1.23961e-06
1.12034e-08
7.5974e-11
3.36815e-11
2.2569e-11
3.6801e-12
3.6848e-13
2.05313e-14
8.2777e-16
1.40676e-15
4.42207e-15
8.39556e-15
8.57906e-15
8.14436e-14
1.19246e-12
9.5686e-12
4.94195e-12
2.68066e-13
4.16829e-13
1.68145e-10
1.42369e-10
1.46248e-10
1.54967e-10
1.61271e-10
1.56765e-10
1.22436e-10
1.4243e-10
8.08864e-08
3.37644e-09
1.54226e-09
6.89916e-10
1.02862e-10
5.94e-11
2.73837e-11
5.5517e-12
7.70295e-13
6.98518e-14
3.59648e-15
9.1556e-17
5.95499e-17
2.11463e-16
4.32637e-16
7.26718e-16
1.32998e-14
2.51842e-13
2.37629e-12
1.13752e-12
4.26711e-14
6.23853e-14
1.21047e-10
9.15611e-11
1.01427e-10
1.15419e-10
1.26548e-10
1.22593e-10
6.90996e-11
8.57654e-10
1.10012e-08
2.39245e-10
8.04702e-11
6.9491e-11
7.24758e-11
2.16145e-11
4.51754e-12
6.84025e-13
7.04259e-14
4.65494e-15
1.85958e-16
3.92738e-18
1.37027e-18
5.15159e-18
1.20695e-17
5.80536e-17
1.57594e-15
3.53039e-14
3.89871e-13
1.88805e-13
4.49685e-15
6.04309e-15
1.10782e-11
1.22363e-11
1.78848e-11
2.59428e-11
3.40803e-11
3.61672e-11
2.36705e-11
4.09244e-10
7.36958e-11
6.27601e-11
4.32686e-11
4.72357e-11
1.40897e-11
2.88674e-12
4.39605e-13
4.97016e-14
4.14931e-15
2.40423e-16
8.63662e-18
1.62331e-19
1.50431e-20
5.05382e-20
1.95809e-19
3.61287e-18
1.20741e-16
3.11092e-15
4.02319e-14
2.17678e-14
3.05247e-16
3.79368e-16
-2.56481e-13
7.09239e-13
2.35553e-12
4.81547e-12
7.53372e-12
8.34179e-12
7.01896e-12
7.64098e-11
5.6969e-11
3.95487e-11
2.08942e-11
7.35873e-12
1.48926e-12
2.12995e-13
2.37714e-14
2.0446e-15
1.29199e-16
5.63767e-18
1.56616e-19
2.37064e-21
1.52161e-22
2.6611e-22
3.27041e-21
1.37374e-19
5.42605e-18
1.61065e-16
2.42035e-15
1.67663e-15
1.29535e-17
1.54236e-17
-2.1504e-13
-2.95629e-14
2.65793e-13
7.20454e-13
1.234e-12
1.36068e-12
1.37432e-12
9.05461e-12
7.77314e-12
5.28647e-12
2.30394e-12
5.95929e-13
8.71941e-14
8.64438e-15
6.87104e-16
4.30119e-17
2.05351e-18
7.03767e-20
1.57767e-21
2.05226e-23
2.33639e-24
2.51154e-24
4.78646e-23
2.73092e-21
1.28164e-19
4.38653e-18
7.39538e-17
8.26718e-17
3.28621e-19
4.0454e-19
-2.7572e-14
-7.50805e-15
2.55948e-14
7.78369e-14
1.36348e-13
1.46063e-13
1.65592e-13
7.21927e-13
6.47826e-13
3.96641e-13
1.39413e-13
2.75105e-14
2.9107e-15
1.96874e-16
1.08614e-17
4.80642e-19
1.64297e-20
4.09936e-22
6.85838e-24
7.65378e-26
2.9828e-26
3.22729e-26
3.32009e-25
2.33438e-23
1.30841e-21
5.14716e-20
9.77448e-19
2.48237e-18
4.72847e-21
6.80235e-21
-1.8443e-15
-5.04218e-16
1.82896e-15
5.57865e-15
9.66951e-15
9.96165e-15
1.21166e-14
3.83927e-14
3.32408e-14
1.75033e-14
4.90683e-15
7.26379e-16
5.30247e-17
2.33019e-18
8.45179e-20
2.49096e-21
5.77877e-23
1.00068e-24
1.19179e-26
1.52574e-28
2.50007e-28
3.33504e-28
8.18739e-28
5.22159e-26
3.45229e-24
1.55151e-22
3.46273e-21
4.26171e-20
4.22774e-23
7.275e-23
-7.38789e-17
-1.70571e-17
8.71011e-17
2.5607e-16
4.3328e-16
4.27338e-16
5.40248e-16
1.33664e-15
1.06063e-15
4.64897e-16
1.01502e-16
1.078e-17
4.97435e-19
1.31744e-20
2.89747e-22
5.21396e-24
7.44495e-26
8.03438e-28
6.09665e-30
2.69296e-31
1.30175e-30
2.54218e-30
2.62299e-30
5.19627e-30
7.45284e-29
1.02211e-26
1.67409e-24
3.81751e-22
2.48218e-25
4.9344e-25
-1.88915e-18
-3.15562e-19
2.69516e-18
7.58005e-18
1.24472e-17
1.17131e-17
1.50207e-17
3.04241e-17
2.13544e-17
7.57338e-18
1.23916e-18
8.74804e-20
2.14677e-21
2.90774e-23
3.27268e-25