/*--------------------------------*- C++ -*----------------------------------*\
| =========                 |                                                 |
| \\      /  F ield         | OpenFOAM: The Open Source CFD Toolbox           |
|  \\    /   O peration     | Version:  2.4.0                                 |
|   \\  /    A nd           | Web:      www.OpenFOAM.org                      |
|    \\/     M anipulation  |                                                 |
\*---------------------------------------------------------------------------*/
FoamFile
{
    version     2.0;
    format      ascii;
    class       surfaceScalarField;
    location    "0.337";
    object      phi;
}
// * * * * * * * * * * * * * * * * * * * * * * * * * * * * * * * * * * * * * //

dimensions      [0 3 -1 0 0 0 0];

internalField   nonuniform List<scalar> 
19800
(
1.40336e-13
-1.40335e-13
5.45534e-13
-3.93983e-13
1.09281e-12
-5.34711e-13
1.71876e-12
-6.25982e-13
2.41487e-12
-6.99591e-13
3.17909e-12
-7.65357e-13
4.00641e-12
-8.26079e-13
4.88933e-12
-8.8116e-13
5.8192e-12
-9.28694e-13
6.78687e-12
-9.67087e-13
7.7829e-12
-9.9575e-13
8.79804e-12
-1.01502e-12
9.82381e-12
-1.02583e-12
1.08528e-11
-1.02934e-12
1.18789e-11
-1.02665e-12
1.28965e-11
-1.01852e-12
1.39004e-11
-1.00509e-12
1.48846e-11
-9.85727e-13
1.58417e-11
-9.58978e-13
1.67623e-11
-9.22657e-13
1.76343e-11
-8.74144e-13
1.84434e-11
-8.10876e-13
1.9173e-11
-7.31011e-13
1.98065e-11
-6.3422e-13
2.03288e-11
-5.22471e-13
2.07293e-11
-4.00391e-13
2.10056e-11
-2.75988e-13
2.11652e-11
-1.59352e-13
2.12277e-11
-6.23258e-14
2.12242e-11
3.59887e-15
2.11926e-11
3.1763e-14
2.11722e-11
2.07472e-14
2.11965e-11
-2.37809e-14
2.12876e-11
-9.051e-14
2.14606e-11
-1.72283e-13
2.17184e-11
-2.56951e-13
2.20567e-11
-3.37574e-13
2.2465e-11
-4.07506e-13
2.29262e-11
-4.60337e-13
2.34184e-11
-4.91585e-13
2.3917e-11
-4.98325e-13
2.43962e-11
-4.7946e-13
2.48312e-11
-4.35764e-13
2.51998e-11
-3.69725e-13
2.54839e-11
-2.85264e-13
2.56701e-11
-1.86906e-13
2.57488e-11
-7.89331e-14
2.57199e-11
2.91539e-14
2.55844e-11
1.36062e-13
2.3544e-13
2.53495e-11
3.73858e-13
-5.22844e-13
1.19669e-12
-1.23523e-12
2.28114e-12
-1.61691e-12
3.54937e-12
-1.88759e-12
4.98162e-12
-2.12789e-12
6.57186e-12
-2.35427e-12
8.31156e-12
-2.56511e-12
1.01861e-11
-2.75474e-12
1.21757e-11
-2.91728e-12
1.42575e-11
-3.04823e-12
1.64073e-11
-3.14545e-12
1.86012e-11
-3.20936e-12
2.08169e-11
-3.24241e-12
2.30343e-11
-3.24814e-12
2.52358e-11
-3.23003e-12
2.74054e-11
-3.19045e-12
2.95273e-11
-3.12981e-12
3.15842e-11
-3.04594e-12
3.35559e-11
-2.93406e-12
3.54171e-11
-2.78711e-12
3.71371e-11
-2.59682e-12
3.86796e-11
-2.35526e-12
4.00047e-11
-2.05709e-12
4.10722e-11
-1.70202e-12
4.18472e-11
-1.29717e-12
4.23063e-11
-8.59093e-13
4.24452e-11
-4.14537e-13
4.2284e-11
1.88948e-15
4.18718e-11
3.50012e-13
4.12827e-11
5.92936e-13
4.06087e-11
7.06305e-13
3.99443e-11
6.86112e-13
3.93699e-11
5.51733e-13
3.89429e-11
3.37715e-13
3.86938e-11
7.81123e-14
3.86339e-11
-1.95822e-13
3.87543e-11
-4.56825e-13
3.90291e-11
-6.81259e-13
3.94175e-11
-8.47924e-13
3.98677e-11
-9.4154e-13
4.03207e-11
-9.51819e-13
4.07149e-11
-8.74884e-13
4.09914e-11
-7.13923e-13
4.10977e-11
-4.77507e-13
4.0991e-11
-1.79323e-13
4.06404e-11
1.63691e-13
4.00298e-11
5.32316e-13
3.91536e-11
9.06422e-13
3.80224e-11
1.2683e-12
1.60129e-12
3.66575e-11
5.06775e-13
-1.01705e-12
1.58462e-12
-2.31991e-12
2.99521e-12
-3.03082e-12
4.66153e-12
-3.55262e-12
6.56154e-12
-4.02531e-12
8.68513e-12
-4.47604e-12
1.1019e-11
-4.8981e-12
1.35422e-11
-5.2776e-12
1.62265e-11
-5.60153e-12
1.90387e-11
-5.86056e-12
2.19429e-11
-6.05023e-12
2.49037e-11
-6.17107e-12
2.78877e-11
-6.22761e-12
3.08646e-11
-6.22657e-12
3.38075e-11
-6.17476e-12
3.6692e-11
-6.0769e-12
3.94941e-11
-5.93386e-12
4.21877e-11
-5.74155e-12
4.47424e-11
-5.49072e-12
4.71214e-11
-5.16767e-12
4.92797e-11
-4.75623e-12
5.11647e-11
-4.24087e-12
5.27183e-11
-3.61102e-12
5.38824e-11
-2.86614e-12
5.46053e-11
-2.02013e-12
5.48522e-11
-1.10612e-12
5.46144e-11
-1.77104e-13
5.39199e-11
6.95959e-13
5.28378e-11
1.43189e-12
5.14766e-11
1.95414e-12
4.99723e-11
2.21107e-12
4.84652e-11
2.19384e-12
4.70737e-11
1.94401e-12
4.58768e-11
1.53518e-12
4.49179e-11
1.03757e-12
4.42107e-11
5.11824e-13
4.3743e-11
1.13099e-14
4.34777e-11
-4.15452e-13
4.33569e-11
-7.26732e-13
4.33059e-11
-8.90328e-13
4.32396e-11
-8.85708e-13
4.307e-11
-7.05707e-13
4.27124e-11
-3.56711e-13
4.2092e-11
1.4277e-13
4.11487e-11
7.64266e-13
3.98409e-11
1.47228e-12
3.81467e-11
2.22749e-12
3.6064e-11
2.98994e-12
3.3611e-11
3.7218e-12
4.38932e-12
3.08232e-11
5.85687e-13
-1.59596e-12
1.85543e-12
-3.58717e-12
3.52795e-12
-4.70441e-12
5.51857e-12
-5.54347e-12
7.80116e-12
-6.30707e-12
1.03603e-11
-7.03427e-12
1.31761e-11
-7.71352e-12
1.62202e-11
-8.32189e-12
1.94559e-11
-8.83786e-12
2.28406e-11
-9.24613e-12
2.63288e-11
-9.5395e-12
2.98752e-11
-9.71887e-12
3.34376e-11
-9.79159e-12
3.69782e-11
-9.7687e-12
4.04634e-11
-9.66146e-12
4.38632e-11
-9.47791e-12
4.71483e-11
-9.21993e-12
5.02876e-11
-8.88146e-12
5.32445e-11
-8.44797e-12
5.59743e-11
-7.89762e-12
5.84222e-11
-7.20406e-12
6.05229e-11
-6.34147e-12
6.22032e-11
-5.29138e-12
6.33877e-11
-4.05092e-12
6.40077e-11
-2.64072e-12
6.40127e-11
-1.11198e-12
6.33845e-11
4.50309e-13
6.21501e-11
1.92962e-12
6.03922e-11
3.18935e-12
5.82499e-11
4.09642e-12
5.59033e-11
4.558e-12
5.35414e-11
4.556e-12
5.13184e-11
4.16723e-12
4.93262e-11
3.52727e-12
4.76117e-11
2.75187e-12
4.61884e-11
1.93484e-12
4.50409e-11
1.15872e-12
4.41237e-11
5.01914e-13
4.33641e-11
3.31932e-14
4.2668e-11
-1.93746e-13
4.19279e-11
-1.45034e-13
4.10321e-11
1.90684e-13
3.98741e-11
8.02073e-13
3.83606e-11
1.6573e-12
3.64179e-11
2.70807e-12
3.39965e-11
3.89477e-12
3.10729e-11
5.1519e-12
2.765e-11
6.41318e-12
2.37558e-11
7.61591e-12
8.70419e-12
1.94405e-11
6.50021e-13
-2.24631e-12
2.09475e-12
-5.02765e-12
4.02416e-12
-6.63256e-12
6.33768e-12
-7.85684e-12
8.99922e-12
-8.96857e-12
1.19847e-11
-1.00197e-11
1.52652e-11
-1.09943e-11
1.88032e-11
-1.18605e-11
2.25524e-11
-1.2588e-11
2.64606e-11
-1.31555e-11
3.0473e-11
-1.35533e-11
3.4536e-11
-1.37833e-11
3.86001e-11
-1.38572e-11
4.2622e-11
-1.3792e-11
4.65645e-11
-1.36049e-11
5.03951e-11
-1.33089e-11
5.40831e-11
-1.29079e-11
5.75963e-11
-1.23942e-11
6.08965e-11
-1.17474e-11
6.39355e-11
-1.09359e-11
6.66528e-11
-9.9208e-12
6.89736e-11
-8.66211e-12
7.08113e-11
-7.12931e-12
7.20727e-11
-5.31313e-12
7.26686e-11
-3.23766e-12
7.25266e-11
-9.71157e-13
7.1609e-11
1.36692e-12
6.99318e-11
3.60608e-12
6.7583e-11
5.5379e-12
6.47308e-11
6.94857e-12
6.16079e-11
7.68097e-12
5.84667e-11
7.6971e-12
5.55023e-11
7.13135e-12
5.28058e-11
6.22315e-12
5.04161e-11
5.14096e-12
4.83436e-11
4.00674e-12
4.65721e-11
2.92993e-12
4.50498e-11
2.02431e-12
4.36906e-11
1.39288e-12
4.23809e-11
1.11675e-12
4.09901e-11
1.24677e-12
3.93829e-11
1.79921e-12
3.74308e-11
2.75573e-12
3.50225e-11
4.06705e-12
3.20725e-11
5.65947e-12
2.85253e-11
7.44297e-12
2.43582e-11
9.31948e-12
1.95807e-11
1.11905e-11
1.42329e-11
1.29632e-11
1.45553e-11
8.38112e-12
7.1619e-13
-2.96437e-12
2.34022e-12
-6.6491e-12
4.54312e-12
-8.83358e-12
7.20445e-12
-1.05174e-11
1.02729e-11
-1.2037e-11
1.37116e-11
-1.34587e-11
1.74799e-11
-1.47631e-11
2.15287e-11
-1.591e-11
2.58005e-11
-1.68607e-11
3.02325e-11
-1.75885e-11
3.47603e-11
-1.80822e-11
3.93223e-11
-1.83465e-11
4.38631e-11
-1.83992e-11
4.83357e-11
-1.82655e-11
5.27018e-11
-1.79715e-11
5.693e-11
-1.7537e-11
6.09922e-11
-1.69697e-11
6.48598e-11
-1.62608e-11
6.84976e-11
-1.53842e-11
7.18595e-11
-1.42971e-11
7.48838e-11
-1.29448e-11
7.74899e-11
-1.12684e-11
7.95793e-11
-9.21933e-12
8.10404e-11
-6.77535e-12
8.17592e-11
-3.95761e-12
8.16331e-11
-8.46131e-13
8.05922e-11
2.40703e-12
7.86259e-11
5.57192e-12
7.58138e-11
8.34987e-12
7.2352e-11
1.04103e-11
6.85413e-11
1.14916e-11
6.47292e-11
1.15089e-11
6.11665e-11
1.06936e-11
5.79149e-11
9.47409e-12
5.49875e-11
8.06778e-12
5.23919e-11
6.60194e-12
5.0119e-11
5.20266e-12
4.81146e-11
4.02874e-12
4.62792e-11
3.22878e-12
4.44768e-11
2.91994e-12
4.25501e-11
3.17461e-12
4.03362e-11
4.01455e-12
3.76819e-11
5.4115e-12
3.44571e-11
7.29331e-12
3.05638e-11
9.55391e-12
2.59419e-11
1.20654e-11
2.05717e-11
1.46898e-11
1.44717e-11
1.72902e-11
7.69626e-12
1.97382e-11
2.19209e-11
3.30218e-13
7.88124e-13
-3.75277e-12
2.60562e-12
-8.46526e-12
5.10637e-12
-1.13328e-11
8.14887e-12
-1.3559e-11
1.16631e-11
-1.55509e-11
1.55956e-11
-1.73914e-11
1.98912e-11
-1.90589e-11
2.44866e-11
-2.05057e-11
2.93113e-11
-2.16857e-11
3.42903e-11
-2.25678e-11
3.93486e-11
-2.3141e-11
4.44163e-11
-2.34148e-11
4.94325e-11
-2.3416e-11
5.4348e-11
-2.31814e-11
5.91257e-11
-2.27494e-11
6.37387e-11
-2.215e-11
6.8166e-11
-2.13967e-11
7.2387e-11
-2.04815e-11
7.63755e-11
-1.93724e-11
8.00932e-11
-1.80148e-11
8.34831e-11
-1.6335e-11
8.64636e-11
-1.42495e-11
8.89269e-11
-1.16835e-11
9.07437e-11
-8.59314e-12
9.17719e-11
-4.98664e-12
9.18702e-11
-9.45081e-13
9.09206e-11
3.35617e-12
8.88626e-11
7.62971e-12
8.57424e-11
1.147e-11
8.17762e-11
1.43764e-11
7.73539e-11
1.59138e-11
7.29815e-11
1.58811e-11
6.89985e-11
1.46765e-11
6.53709e-11
1.31016e-11
6.20572e-11
1.13814e-11
5.90724e-11
9.58669e-12
5.64364e-11
7.83853e-12
5.40999e-11
6.36521e-12
5.19468e-11
5.38202e-12
4.98123e-11
5.05484e-12
4.75047e-11
5.48296e-12
4.48269e-11
6.69334e-12
4.15961e-11
8.6433e-12
3.766e-11
1.12303e-11
3.29075e-11
1.43069e-11
2.72752e-11
1.76978e-11
2.07483e-11
2.12168e-11
1.33575e-11
2.46809e-11
5.17476e-12
2.7921e-11
3.07894e-11
-3.69357e-12
8.6589e-13
-4.61749e-12
2.89422e-12
-1.04922e-11
5.71931e-12
-1.41565e-11
9.17784e-12
-1.70165e-11
1.31788e-11
-1.95513e-11
1.76499e-11
-2.18621e-11
2.25182e-11
-2.39269e-11
2.77043e-11
-2.56912e-11
3.31221e-11
-2.71029e-11
3.86826e-11
-2.81277e-11
4.42986e-11
-2.87565e-11
4.98906e-11
-2.90066e-11
5.53919e-11
-2.89172e-11
6.07517e-11
-2.85415e-11
6.59364e-11
-2.79345e-11
7.09266e-11
-2.71407e-11
7.57125e-11
-2.61832e-11
8.02868e-11
-2.50563e-11
8.46377e-11
-2.37239e-11
8.87418e-11
-2.21197e-11
9.25544e-11
-2.01484e-11
9.59991e-11
-1.7695e-11
9.89638e-11
-1.4649e-11
1.01305e-10
-1.09347e-11
1.02852e-10
-6.53445e-12
1.03421e-10
-1.5138e-12
1.02827e-10
3.94939e-12
1.00928e-10
9.52845e-12
9.76904e-11
1.47078e-11
9.33243e-11
1.87424e-11
8.83265e-11
2.09115e-11
8.34865e-11
2.07214e-11
7.93081e-11
1.88554e-11
7.55032e-11
1.69071e-11
7.19325e-11
1.49526e-11
6.86576e-11
1.28618e-11
6.57795e-11
1.07166e-11
6.32606e-11
8.88367e-12
6.09585e-11
7.68383e-12
5.8666e-11
7.34715e-12
5.61452e-11
8.00399e-12
5.31551e-11
9.6839e-12
4.94762e-11
1.23226e-11
4.493e-11
1.57767e-11
3.93915e-11
1.98453e-11
3.27952e-11
2.4294e-11
2.51343e-11
2.88778e-11
1.6456e-11
3.33596e-11
6.85403e-12
3.75238e-11
4.11842e-11
-3.53957e-12
9.49138e-13
-5.56508e-12
3.20509e-12
-1.27464e-11
6.38004e-12
-1.73302e-11
1.02879e-11
-2.09233e-11
1.48154e-11
-2.40779e-11
1.98694e-11
-2.69153e-11
2.53577e-11
-2.9414e-11
3.1182e-11
-3.15142e-11
3.72387e-11
-3.31581e-11
4.34221e-11
-3.43096e-11
4.96305e-11
-3.49636e-11
5.57726e-11
-3.51478e-11
6.17744e-11
-3.49188e-11
6.75836e-11
-3.43511e-11
7.3171e-11
-3.35228e-11
7.85281e-11
-3.2499e-11
8.36601e-11
-3.13164e-11
8.85772e-11
-2.99748e-11
9.32879e-11
-2.84358e-11
9.77917e-11
-2.66246e-11
1.02066e-10
-2.44232e-11
1.06047e-10
-2.16767e-11
1.09625e-10
-1.82282e-11
1.12651e-10
-1.39608e-11
1.14935e-10
-8.81832e-12
1.1625e-10
-2.82897e-12
1.16337e-10
3.86189e-12
1.1493e-10
1.0936e-11
1.11831e-10
1.78062e-11
1.07187e-10
2.33869e-11
1.01577e-10
2.65211e-11
9.63194e-11
2.598e-11
9.22743e-11
2.29016e-11
8.85083e-11
2.06741e-11
8.47407e-11
1.87211e-11
8.11927e-11
1.641e-11
7.81579e-11
1.37511e-11
7.56007e-11
1.14402e-11
7.33227e-11
9.96126e-12
7.10511e-11
9.6183e-12
6.84848e-11
1.05702e-11
6.53271e-11
1.28415e-11
6.13142e-11
1.63352e-11
5.62372e-11
2.08533e-11
4.99562e-11
2.61258e-11
4.2406e-11
3.1844e-11
3.35926e-11
3.76915e-11
2.35852e-11
4.3368e-11
1.25054e-11
4.86052e-11
5.31755e-11
5.15983e-13
1.03761e-12
-6.60134e-12
3.5359e-12
-1.52427e-11
7.08361e-12
-2.08765e-11
1.1471e-11
-2.53096e-11
1.65621e-11
-2.91679e-11
2.2242e-11
-3.2594e-11
2.83975e-11
-3.5568e-11
3.49101e-11
-3.80249e-11
4.16562e-11
-3.99021e-11
4.85107e-11
-4.1162e-11
5.53538e-11
-4.1805e-11
6.20792e-11
-4.18723e-11
6.86029e-11
-4.14424e-11
7.48694e-11
-4.06182e-11
8.08545e-11
-3.95092e-11
8.65627e-11
-3.82087e-11
9.20178e-11
-3.67732e-11
9.72516e-11
-3.521e-11
1.02296e-10
-3.34817e-11
1.07184e-10
-3.15128e-11
1.11925e-10
-2.91644e-11
1.16478e-10
-2.62309e-11
1.20746e-10
-2.24958e-11
1.24583e-10
-1.77977e-11
1.278e-10
-1.20355e-11
1.3015e-10
-5.17941e-12
1.31307e-10
2.70508e-12
1.30843e-10
1.13997e-11
1.2827e-10
2.03783e-11
1.23543e-10
2.81139e-11
1.17185e-10
3.288e-11
1.11469e-10
3.16969e-11
1.08123e-10
2.62488e-11
1.04608e-10
2.41897e-11
1.00541e-10
2.27888e-11
9.66005e-11
2.03506e-11
9.34678e-11
1.68833e-11
9.10312e-11
1.38762e-11
8.89685e-11
1.20235e-11
8.69047e-11
1.16818e-11
8.44567e-11
1.30182e-11
8.12621e-11
1.60358e-11
7.7006e-11
2.05907e-11
7.14449e-11
2.64134e-11
6.44246e-11
3.31453e-11
5.58839e-11
4.03846e-11
4.58482e-11
4.77279e-11
3.44166e-11
5.48012e-11
2.17462e-11
6.12777e-11
6.68864e-11
8.03736e-12
1.13083e-12
-7.7311e-12
3.88385e-12
-1.79939e-11
7.82388e-12
-2.48152e-11
1.27175e-11
-3.02021e-11
1.8406e-11
-3.48553e-11
2.47528e-11
-3.89395e-11
3.16234e-11
-4.24369e-11
3.88778e-11
-4.52774e-11
4.63703e-11
-4.73924e-11
5.39532e-11
-4.8743e-11
6.14846e-11
-4.93349e-11
6.88384e-11
-4.92255e-11
7.59155e-11
-4.85197e-11
8.26536e-11
-4.73572e-11
8.90327e-11
-4.58894e-11
9.5072e-11
-4.42492e-11
1.00818e-10
-4.252e-11
1.06325e-10
-4.07175e-11
1.1165e-10
-3.88071e-11
1.16867e-10
-3.67294e-11
1.22034e-10
-3.43321e-11
1.27144e-10
-3.13408e-11
1.32109e-10
-2.74607e-11
1.36809e-10
-2.24975e-11
1.41086e-10
-1.63132e-11
1.44719e-10
-8.8122e-12
1.47362e-10
6.10747e-14
1.48443e-10
1.03181e-11
1.47027e-10
2.1794e-11
1.42622e-10
3.25187e-11
1.35305e-10
4.0198e-11
1.28936e-10
3.80662e-11
1.27266e-10
2.79188e-11
1.24163e-10
2.7294e-11
1.19344e-10
2.76074e-11
1.14699e-10
2.49957e-11
1.11539e-10
2.00431e-11
1.09463e-10
1.59523e-11
1.07863e-10
1.36231e-11
1.06211e-10
1.3334e-11
1.04037e-10
1.51918e-11
1.00916e-10
1.91565e-11
9.64778e-11
2.50279e-11
9.04414e-11
3.24488e-11
8.26383e-11
4.09477e-11
7.30174e-11
5.00057e-11
6.16329e-11
5.91135e-11
4.8624e-11
6.78119e-11
3.41931e-11
7.57106e-11
8.24942e-11
1.8587e-11
1.22796e-12
-8.95819e-12
4.24556e-12
-2.10101e-11
8.59362e-12
-2.91622e-11
1.40158e-11
-3.56233e-11
2.0332e-11
-4.11705e-11
2.7385e-11
-4.59914e-11
3.50196e-11
-5.00701e-11
4.30741e-11
-5.33302e-11
5.13792e-11
-5.56959e-11
5.97616e-11
-5.71241e-11
6.80523e-11
-5.7625e-11
7.60987e-11
-5.72718e-11
8.37789e-11
-5.62004e-11
9.10173e-11
-5.45962e-11
9.77943e-11
-5.26668e-11
1.04145e-10
-5.06004e-11
1.10144e-10
-4.85184e-11
1.15867e-10
-4.64397e-11
1.2139e-10
-4.43291e-11
1.26838e-10
-4.21764e-11
1.3234e-10
-3.98337e-11
1.37921e-10
-3.69218e-11
1.43493e-10
-3.30327e-11
1.48976e-10
-2.79811e-11
1.5429e-10
-2.16278e-11
1.593e-10
-1.38225e-11
1.63761e-10
-4.40014e-12
1.67087e-10
6.99133e-12
1.67846e-10
2.1035e-11
1.64891e-10
3.54735e-11
1.56234e-10
4.88542e-11
1.49378e-10
4.49218e-11
1.49939e-10
2.73583e-11
1.47697e-10
2.95359e-11
1.40932e-10
3.43727e-11
1.34986e-10
3.09406e-11
1.32087e-10
2.29425e-11
1.309e-10
1.71396e-11
1.30113e-10
1.44111e-11
1.2908e-10
1.43665e-11
1.27312e-10
1.69601e-11
1.24342e-10
2.21265e-11
1.19747e-10
2.96221e-11
1.13201e-10
3.89932e-11
1.04523e-10
4.96264e-11
9.36755e-11
6.08533e-11
8.07556e-11
7.20348e-11
6.59562e-11
8.26129e-11
4.95377e-11
9.21306e-11
1.0023e-10
3.18034e-11
1.32772e-12
-1.02852e-11
4.61653e-12
-2.42977e-11
9.38359e-12
-3.39282e-11
1.53514e-11
-4.15903e-11
2.2321e-11
-4.81392e-11
3.01168e-11
-5.37864e-11
3.85651e-11
-5.85174e-11
4.74837e-11
-6.2248e-11
5.66796e-11
-6.48911e-11
6.59513e-11
-6.63956e-11
7.50975e-11
-6.67714e-11
8.39302e-11
-6.61051e-11
9.2294e-11
-6.45647e-11
1.00088e-10
-6.23901e-11
1.07285e-10
-5.98629e-11
1.13936e-10
-5.72509e-11
1.20153e-10
-5.4733e-11
1.26031e-10
-5.23155e-11
1.31644e-10
-4.99406e-11
1.37184e-10
-4.7715e-11
1.42877e-10
-4.5527e-11
1.4877e-10
-4.28145e-11
1.54724e-10
-3.89875e-11
1.60722e-10
-3.39791e-11
1.66824e-10
-2.77295e-11
1.73033e-10
-2.00321e-11
1.79323e-10
-1.06895e-11
1.85572e-10
7.41477e-13
1.89479e-10
1.71272e-11
1.9089e-10
3.40618e-11
1.81293e-10
5.84502e-11
1.72262e-10
5.39518e-11
1.78744e-10
2.08754e-11
1.7442e-10
3.38588e-11
1.63633e-10
4.51596e-11
1.55414e-10
3.91598e-11
1.54842e-10
2.35151e-11
1.55777e-10
1.62053e-11
1.56145e-10
1.4043e-11
1.55826e-10
1.46866e-11
1.54499e-10
1.82869e-11
1.51695e-10
2.49295e-11
1.46925e-10
3.4392e-11
1.39795e-10
4.61227e-11
1.30098e-10
5.9324e-11
1.17822e-10
7.31303e-11
1.0312e-10
8.67384e-11
8.62566e-11
9.94772e-11
6.75669e-11
1.10821e-10
1.20374e-10
4.74223e-11
1.42831e-12
-1.17128e-11
4.99041e-12
-2.78584e-11
1.01809e-11
-3.91176e-11
1.67041e-11
-4.81126e-11
2.43457e-11
-5.578e-11
3.2916e-11
-6.23562e-11
4.22267e-11
-6.78277e-11
5.20783e-11
-7.20995e-11
6.22559e-11
-7.50691e-11
7.25294e-11
-7.667e-11
8.26605e-11
-7.69034e-11
9.24162e-11
-7.58615e-11
1.01592e-10
-7.37405e-11
1.10042e-10
-7.08395e-11
1.17715e-10
-6.7534e-11
1.24674e-10
-6.42068e-11
1.31083e-10
-6.11388e-11
1.37065e-10
-5.82951e-11
1.42644e-10
-5.55181e-11
1.48102e-10
-5.31727e-11
1.53817e-10
-5.12416e-11
1.5981e-10
-4.88081e-11
1.65783e-10
-4.49612e-11
1.71784e-10
-3.99802e-11
1.78085e-10
-3.40302e-11
1.84895e-10
-2.6841e-11
1.92346e-10
-1.81413e-11
2.01497e-10
-8.40997e-12
2.11263e-10
7.36053e-12
2.18315e-10
2.7008e-11
2.18395e-10
5.83695e-11
1.96171e-10
7.6174e-11
2.09594e-10
7.45109e-12
1.92518e-10
5.09347e-11
1.78854e-10
5.8823e-11
1.74458e-10
4.35566e-11
1.82767e-10
1.52064e-11
1.86074e-10
1.28981e-11
1.87016e-10
1.31016e-11
1.87036e-10
1.46669e-11
1.85926e-10
1.9396e-11
1.83184e-10
2.76721e-11
1.78175e-10
3.94004e-11
1.70355e-10
5.39433e-11
1.59456e-10
7.0224e-11
1.45495e-10
8.7092e-11
1.28705e-10
1.0353e-10
1.09448e-10
1.18735e-10
8.81501e-11
1.32119e-10
1.43259e-10
6.52654e-11
1.52721e-12
-1.32393e-11
5.35819e-12
-3.16876e-11
1.09674e-11
-4.47253e-11
1.8045e-11
-5.51891e-11
2.63664e-11
-6.41006e-11
3.57336e-11
-7.1723e-11
4.59495e-11
-7.80438e-11
5.68036e-11
-8.29544e-11
6.80644e-11
-8.6331e-11
7.94758e-11
-8.80827e-11
9.07606e-11
-8.81894e-11
1.01633e-10
-8.6734e-11
1.1182e-10
-8.39272e-11
1.21105e-10
-8.01226e-11
1.29376e-10
-7.5803e-11
1.36683e-10
-7.15102e-11
1.4326e-10
-6.77129e-11
1.49301e-10
-6.43346e-11
1.54744e-10
-6.09603e-11
1.5991e-10
-5.83385e-11
1.65489e-10
-5.68206e-11
1.7141e-10
-5.47296e-11
1.76993e-10
-5.05443e-11
1.82301e-10
-4.52869e-11
1.87709e-10
-3.9438e-11
1.93836e-10
-3.29681e-11
2.01141e-10
-2.54465e-11
2.1048e-10
-1.77492e-11
2.26762e-10
-8.92295e-12
2.48665e-10
5.104e-12
2.6311e-10
4.39228e-11
2.97218e-10
4.20657e-11
1.86387e-10
1.18281e-10
2.09354e-10
2.79672e-11
1.82919e-10
8.52578e-11
2.15754e-10
1.07218e-11
2.23505e-10
7.45518e-12
2.23644e-10
1.27599e-11
2.23421e-10
1.33238e-11
2.22981e-10
1.51074e-11
2.21673e-10
2.07037e-11
2.18862e-10
3.0484e-11
2.13593e-10
4.46702e-11
2.05003e-10
6.2534e-11
1.92707e-10
8.25202e-11
1.76767e-10
1.03033e-10
1.57532e-10
1.22765e-10
1.35498e-10
1.40768e-10
1.1121e-10
1.56407e-10
1.69254e-10
8.52141e-11
1.62098e-12
-1.48593e-11
5.70767e-12
-3.57721e-11
1.17184e-11
-5.07343e-11
1.93345e-11
-6.28039e-11
2.83272e-11
-7.30924e-11
3.84975e-11
-8.1893e-11
4.96479e-11
-8.91945e-11
6.15661e-11
-9.48736e-11
7.40132e-11
-9.87793e-11
8.67155e-11
-1.00786e-10
9.93621e-11
-1.00837e-10
1.11611e-10
-9.89825e-11
1.23108e-10
-9.54226e-11
1.33528e-10
-9.05402e-11
1.42644e-10
-8.49163e-11
1.50422e-10
-7.92868e-11
1.57153e-10
-7.44416e-11
1.63108e-10
-7.02888e-11
1.68263e-10
-6.61159e-11
1.73042e-10
-6.31182e-11
1.78305e-10
-6.20836e-11
1.84054e-10
-6.04784e-11
1.88934e-10
-5.54239e-11
1.93095e-10
-4.94474e-11
1.96062e-10
-4.24042e-11
1.97634e-10
-3.45404e-11
1.99822e-10
-2.76346e-11
2.01136e-10
-1.9065e-11
1.97896e-10
-5.68365e-12
1.83862e-10
1.91371e-11
1.9563e-10
3.21549e-11
2.11657e-10
2.60382e-11
2.29444e-10
1.00494e-10
2.49776e-10
7.63463e-12
3.20475e-10
1.45591e-11
2.90543e-10
4.06534e-11
2.73325e-10
2.46726e-11
2.66999e-10
1.90861e-11
2.64228e-10
1.60943e-11
2.62695e-10
1.66408e-11
2.61009e-10
2.23895e-11
2.58324e-10
3.31699e-11
2.53062e-10
4.99337e-11
2.43772e-10
7.18242e-11
2.29926e-10
9.63661e-11
2.11694e-10
1.21265e-10
1.89618e-10
1.4484e-10
1.64387e-10
1.65998e-10
1.36693e-10
1.84102e-10
1.9876e-10
1.07187e-10
1.70517e-12
-1.65632e-11
6.02338e-12
-4.00879e-11
1.24027e-11
-5.71117e-11
2.05218e-11
-7.09215e-11
3.01546e-11
-8.27244e-11
4.11093e-11
-9.28474e-11
5.31983e-11
-1.01284e-10
6.62192e-11
-1.07895e-10
7.99403e-11
-1.12501e-10
9.40863e-11
-1.14932e-10
1.08328e-10
-1.15078e-10
1.22277e-10
-1.12931e-10
1.35497e-10
-1.0864e-10
1.47523e-10
-1.02565e-10
1.57944e-10
-9.53356e-11
1.66503e-10
-8.78447e-11
1.73528e-10
-8.14663e-11
1.79324e-10
-7.60858e-11
1.8375e-10
-7.05428e-11
1.88044e-10
-6.7413e-11
1.92956e-10
-6.69947e-11
1.98105e-10
-6.56273e-11
2.02254e-10
-5.95718e-11
2.05422e-10
-5.2615e-11
2.08683e-10
-4.56658e-11
2.06081e-10
-3.19397e-11
2.05884e-10
-2.74376e-11
2.10394e-10
-2.3576e-11
2.17798e-10
-1.30878e-11
2.28835e-10
8.10041e-12
2.46465e-10
1.4525e-11
2.62377e-10
1.0126e-11
2.26252e-10
1.36619e-10
2.58083e-10
-2.41963e-11
2.7229e-10
3.5137e-13
2.92331e-10
2.0612e-11
2.97315e-10
1.96884e-11
3.01094e-10
1.53075e-11
3.03145e-10
1.40427e-11
3.03343e-10
1.64433e-11
3.02262e-10
2.34715e-11
3.00689e-10
3.47429e-11
2.96272e-10
5.43517e-11
2.86602e-10
8.1494e-11
2.71113e-10
1.11854e-10
2.50277e-10
1.421e-10
2.24945e-10
1.70171e-10
1.96073e-10
1.94869e-10
1.64548e-10
2.15626e-10
2.3218e-10
1.31129e-10
1.77452e-12
-1.83362e-11
6.28732e-12
-4.45985e-11
1.29838e-11
-6.38064e-11
2.15463e-11
-7.94828e-11
3.1759e-11
-9.29363e-11
4.34451e-11
-1.04533e-10
5.64369e-11
-1.14275e-10
7.0556e-11
-1.22014e-10
8.5596e-11
-1.2754e-10
1.01304e-10
-1.30639e-10
1.17361e-10
-1.31133e-10
1.33365e-10
-1.28932e-10
1.48815e-10
-1.24088e-10
1.63108e-10
-1.16857e-10
1.75594e-10
-1.07822e-10
1.85618e-10
-9.78688e-11
1.93199e-10
-8.90495e-11
1.98695e-10
-8.1583e-11
2.02094e-10
-7.39416e-11
2.05303e-10
-7.06222e-11
2.11329e-10
-7.302e-11
2.15117e-10
-6.94149e-11
2.16696e-10
-6.1151e-11
2.18407e-10
-5.43264e-11
2.22831e-10
-5.00906e-11
2.22704e-10
-3.18142e-11
2.17214e-10
-2.19487e-11
2.20728e-10
-2.709e-11
2.28794e-10
-2.11531e-11
2.43118e-10
-6.22377e-12
2.60271e-10
-2.62711e-12
2.55378e-10
1.50193e-11
2.81432e-10
1.10565e-10
2.65529e-10
-8.29316e-12
2.96018e-10
-3.01378e-11
3.1539e-10
1.23977e-12
3.29491e-10
5.58728e-12
3.40412e-10
4.3869e-12
3.45846e-10
8.60872e-12
3.45811e-10
1.64783e-11
3.44658e-10
2.46248e-11
3.45402e-10
3.39992e-11
3.43108e-10
5.66456e-11
3.33459e-10
9.11416e-11
3.16179e-10
1.29132e-10
2.924e-10
1.65878e-10
2.63423e-10
1.99147e-10
2.30476e-10
2.27816e-10
1.94723e-10
2.5138e-10
2.69877e-10
1.57027e-10
1.82342e-12
-2.01582e-11
6.48063e-12
-4.92542e-11
1.3423e-11
-7.07477e-11
2.23435e-11
-8.84025e-11
3.3042e-11
-1.03634e-10
4.53635e-11
-1.16854e-10
5.91684e-11
-1.2808e-10
7.4314e-11
-1.37159e-10
9.06373e-11
-1.43862e-10
1.07936e-10
-1.47935e-10
1.25942e-10
-1.49137e-10
1.44295e-10
-1.47284e-10
1.62501e-10
-1.42292e-10
1.79878e-10
-1.34234e-10
1.95517e-10
-1.23462e-10
2.08392e-10
-1.10746e-10
2.17619e-10
-9.82781e-11
2.23059e-10
-8.70237e-11
2.24992e-10
-7.58749e-11
2.25218e-10
-7.0847e-11
2.31509e-10
-7.93099e-11
2.38212e-10
-7.61181e-11
2.36915e-10
-5.98546e-11
2.33835e-10
-5.12483e-11
2.3073e-10
-4.69877e-11
2.33061e-10
-3.41466e-11
2.33582e-10
-2.24701e-11
2.39565e-10
-3.30724e-11
2.49017e-10
-3.0605e-11
2.64813e-10
-2.20194e-11
2.74085e-10
-1.18987e-11
2.77992e-10
1.11129e-11
3.37375e-10
5.1182e-11
3.2669e-10
2.39174e-12
3.28657e-10
-3.21042e-11
3.54921e-10
-2.50237e-11
3.75053e-10
-1.45448e-11
3.87223e-10
-7.78274e-12
3.90159e-10
5.67277e-12
3.874e-10
1.92378e-11
3.85939e-10
2.60853e-11
3.91559e-10
2.83796e-11
3.93466e-10
5.47379e-11
3.84186e-10
1.0042e-10
3.64758e-10
1.48558e-10
3.37683e-10
1.92951e-10
3.04792e-10
2.32037e-10
2.67488e-10
2.6512e-10
2.27189e-10
2.91679e-10
3.12117e-10
1.84951e-10
1.84672e-12
-2.2004e-11
6.58612e-12
-5.39931e-11
1.3685e-11
-7.78464e-11
2.28528e-11
-9.75702e-11
3.3909e-11
-1.1469e-10
4.67235e-11
-1.29668e-10
6.11883e-11
-1.42543e-10
7.72018e-11
-1.5317e-10
9.46546e-11
-1.61312e-10
1.13413e-10
-1.66691e-10
1.33301e-10
-1.69022e-10
1.54067e-10
-1.68048e-10
1.75333e-10
-1.63556e-10
1.9651e-10
-1.55412e-10
2.16642e-10
-1.43595e-10
2.34224e-10
-1.28329e-10
2.47223e-10
-1.11278e-10
2.54961e-10
-9.47604e-11
2.56766e-10
-7.7679e-11
2.52199e-10
-6.62788e-11
2.5041e-10
-7.75203e-11
2.57391e-10
-8.31e-11
2.60163e-10
-6.26276e-11
2.60875e-10
-5.19629e-11
2.54503e-10
-4.06176e-11
2.53082e-10
-3.27267e-11
2.65048e-10
-3.44367e-11
2.69054e-10
-3.7078e-11
2.76416e-10
-3.79662e-11
2.8778e-10
-3.33839e-11
2.98903e-10
-2.30218e-11
3.17056e-10
-7.03995e-12
3.57386e-10
1.08518e-11
3.75225e-10
-1.54469e-11
3.81882e-10
-3.876e-11
3.99869e-10
-4.30102e-11
4.18162e-10
-3.28376e-11
4.29889e-10
-1.95097e-11
4.3163e-10
3.93089e-12
4.27613e-10
2.32554e-11
4.25648e-10
2.805e-11
4.38998e-10
1.50282e-11
4.47564e-10
4.6171e-11
4.38117e-10
1.09865e-10
4.15845e-10
1.70828e-10
3.8531e-10
2.23485e-10
3.48548e-10
2.68799e-10
3.06966e-10
3.06703e-10
2.61994e-10
3.36652e-10
3.59016e-10
2.15096e-10
1.84066e-12
-2.38444e-11
6.59132e-12
-5.87443e-11
1.37437e-11
-8.49994e-11
2.30284e-11
-1.06855e-10
3.42862e-11
-1.25948e-10
4.74103e-11
-1.42792e-10
6.23216e-11
-1.57453e-10
7.8955e-11
-1.69801e-10
9.72498e-11
-1.79604e-10
1.1714e-10
-1.86579e-10
1.38548e-10
-1.90428e-10
1.6136e-10
-1.90859e-10
1.85395e-10
-1.87591e-10
2.10345e-10
-1.80363e-10
2.3564e-10
-1.68892e-10
2.59969e-10
-1.52659e-10
2.79929e-10
-1.31238e-10
2.93968e-10
-1.08798e-10
2.99699e-10
-8.34075e-11
2.91819e-10
-5.83976e-11
2.81922e-10
-6.76234e-11
2.84138e-10
-8.53175e-11
2.89952e-10
-6.84435e-11
2.89299e-10
-5.13119e-11
2.79401e-10
-3.0722e-11
2.77471e-10
-3.07971e-11
2.86618e-10
-4.35839e-11
2.95814e-10
-4.62739e-11
3.08275e-10
-5.0427e-11
3.22367e-10
-4.74761e-11
3.35725e-10
-3.638e-11
3.5077e-10
-2.20856e-11
3.90229e-10
-2.86069e-11
4.14162e-10
-3.93797e-11
4.32687e-10
-5.72846e-11
4.50874e-10
-6.1197e-11
4.62712e-10
-4.46759e-11
4.71136e-10
-2.79345e-11
4.76976e-10
-1.90932e-12
4.73019e-10
2.72125e-11
4.67236e-10
3.38318e-11
4.92051e-10
-9.78681e-12
5.08279e-10
2.99413e-11
4.94656e-10
1.23487e-10
4.6797e-10
1.97512e-10
4.34025e-10
2.5743e-10
3.94007e-10
3.08818e-10
3.48635e-10
3.52076e-10
2.9935e-10
3.85939e-10
4.10453e-10
2.47914e-10
1.80378e-12
-2.56485e-11
6.49142e-12
-6.3433e-11
1.35887e-11
-9.20976e-11
2.28506e-11
-1.16118e-10
3.41384e-11
-1.37236e-10
4.73641e-11
-1.56017e-10
6.24686e-11
-1.72557e-10
7.94098e-11
-1.86741e-10
9.81566e-11
-1.98349e-10
1.18686e-10
-2.07106e-10
1.40978e-10
-2.1272e-10
1.65016e-10
-2.14897e-10
1.90782e-10
-2.13358e-10
2.18258e-10
-2.0784e-10
2.47324e-10
-1.97958e-10
2.77926e-10
-1.8326e-10
3.08322e-10
-1.61632e-10
3.29081e-10
-1.29555e-10
3.44128e-10
-9.84523e-11
3.4928e-10
-6.35497e-11
3.25393e-10
-4.37363e-11
3.19752e-10
-7.96787e-11
3.1438e-10
-6.30733e-11
3.09575e-10
-4.65077e-11
2.92861e-10
-1.40091e-11
2.90163e-10
-2.80992e-11
3.00309e-10
-5.37299e-11
3.22097e-10
-6.80621e-11
3.44402e-10
-7.27328e-11
3.67857e-10
-7.09318e-11
3.91319e-10
-5.98422e-11
4.15226e-10
-4.5993e-11
4.34525e-10
-4.7906e-11
4.59237e-10
-6.40921e-11
4.78756e-10
-7.68035e-11
4.92181e-10
-7.46228e-11
5.03485e-10
-5.59798e-11
5.13623e-10
-3.80735e-11
5.27859e-10
-1.61463e-11
5.37959e-10
1.71124e-11
5.06771e-10
6.50187e-11
5.50127e-10
-5.31434e-11
5.62122e-10
1.79458e-11
5.44852e-10
1.40758e-10
5.15112e-10
2.27253e-10
4.81633e-10
2.9091e-10
4.40236e-10
3.50216e-10
3.92225e-10
4.00088e-10
3.39874e-10
4.38291e-10
4.65796e-10
2.84531e-10
1.7375e-12
-2.73868e-11
6.29122e-12
-6.79878e-11
1.32289e-11
-9.90361e-11
2.23328e-11
-1.25222e-10
3.34822e-11
-1.48386e-10
4.66015e-11
-1.69136e-10
6.16401e-11
-1.87595e-10
7.85619e-11
-2.03662e-10
9.73402e-11
-2.17127e-10
1.17955e-10
-2.27721e-10
1.40389e-10
-2.35154e-10
1.64628e-10
-2.39137e-10
1.90673e-10
-2.39403e-10
2.18543e-10
-2.35711e-10
2.48715e-10
-2.2813e-10
2.81209e-10
-2.15752e-10
3.18171e-10
-1.98592e-10
3.54564e-10
-1.65946e-10
3.77153e-10
-1.2104e-10
4.02673e-10
-8.90698e-11
3.93724e-10
-3.47876e-11
3.56476e-10
-4.24321e-11
3.31607e-10
-3.82057e-11
3.15217e-10
-3.01178e-11
2.89757e-10
1.14505e-11
2.9897e-10
-3.73124e-11
3.254e-10
-8.01598e-11
3.57667e-10
-1.00329e-10
3.89501e-10
-1.04568e-10
4.21383e-10
-1.02815e-10
4.49251e-10
-8.771e-11
4.7729e-10
-7.40327e-11
4.90971e-10
-6.15878e-11
5.14331e-10
-8.74527e-11
5.30382e-10
-9.28544e-11
5.39137e-10
-8.3379e-11
5.42938e-10
-5.97814e-11
5.48058e-10
-4.3194e-11
5.65527e-10
-3.36168e-11
5.92666e-10
-1.00269e-11
6.02274e-10
5.54099e-11
5.87558e-10
-3.84282e-11
6.12578e-10
-7.07359e-12
5.79259e-10
1.74077e-10
5.63681e-10
2.42832e-10
5.30551e-10
3.24042e-10
4.87359e-10
3.93408e-10
4.38009e-10
4.49439e-10
3.8421e-10
4.9209e-10
5.23632e-10
3.26373e-10
1.64625e-12
-2.90338e-11
6.00555e-12
-7.23476e-11
1.26944e-11
-1.05725e-10
2.15239e-11
-1.34052e-10
3.23893e-11
-1.59251e-10
4.52212e-11
-1.81968e-10
5.99673e-11
-2.02341e-10
7.65824e-11
-2.20277e-10
9.50229e-11
-2.35567e-10
1.1524e-10
-2.47939e-10
1.37169e-10
-2.57083e-10
1.60714e-10
-2.62683e-10
1.85741e-10
-2.64431e-10
2.12169e-10
-2.62139e-10
2.3952e-10
-2.55479e-10
2.68318e-10
-2.44548e-10
3.02502e-10
-2.32775e-10
3.51969e-10
-2.15412e-10
3.71004e-10
-1.40076e-10
3.8813e-10
-1.06196e-10
3.67659e-10
-1.43181e-11
4.12351e-10
-8.71241e-11
2.87147e-10
8.69975e-11
3.25776e-10
-6.87464e-11
2.99193e-10
3.80332e-11
3.42802e-10
-8.09215e-11
3.82445e-10
-1.19803e-10
4.13977e-10
-1.31862e-10
4.45934e-10
-1.36526e-10
4.72143e-10
-1.29024e-10
5.06668e-10
-1.22236e-10
5.44323e-10
-1.11688e-10
5.76648e-10
-9.39136e-11
5.78285e-10
-8.90905e-11
5.84761e-10
-9.93311e-11
5.87219e-10
-8.58376e-11
5.77384e-10
-4.99471e-11
5.64038e-10
-2.98483e-11
5.44223e-10
-1.38029e-11
5.09712e-10
2.44828e-11
5.63173e-10
1.94824e-12
5.35933e-10
-1.11882e-11
5.80491e-10
-5.16316e-11
6.29298e-10
1.25271e-10
5.99191e-10