/*--------------------------------*- C++ -*----------------------------------*\
| =========                 |                                                 |
| \\      /  F ield         | OpenFOAM: The Open Source CFD Toolbox           |
|  \\    /   O peration     | Version:  2.4.0                                 |
|   \\  /    A nd           | Web:      www.OpenFOAM.org                      |
|    \\/     M anipulation  |                                                 |
\*---------------------------------------------------------------------------*/
FoamFile
{
    version     2.0;
    format      ascii;
    class       volVectorField;
    location    "0.059";
    object      U;
}
// * * * * * * * * * * * * * * * * * * * * * * * * * * * * * * * * * * * * * //

dimensions      [0 1 -1 0 0 0 0];

internalField   nonuniform List<vector> 
57600
(
(-0.000970358 7.29157e-05 0)
(-0.00226675 2.929e-05 0)
(-0.00437607 4.04133e-05 0)
(-0.00696127 5.49709e-05 0)
(-0.00996469 6.53746e-05 0)
(-0.0126886 4.78031e-05 0)
(-0.0135247 -2.45271e-05 0)
(-0.0107709 -0.000146129 0)
(-0.00383796 -0.000288857 0)
(0.00658454 -0.00041691 0)
(0.0190029 -0.000503176 0)
(0.0318321 -0.000538516 0)
(0.0437873 -0.000517889 0)
(0.0538061 -0.000430801 0)
(0.0610189 -0.000273338 0)
(0.0649078 -6.1818e-05 0)
(0.0654619 0.00016854 0)
(0.0631574 0.000380376 0)
(0.0587621 0.000546626 0)
(0.053073 0.000660178 0)
(0.0467515 0.000726632 0)
(0.0402805 0.000756477 0)
(0.0339839 0.000760856 0)
(0.0280537 0.000749727 0)
(0.0225857 0.000731707 0)
(0.0176042 0.000714187 0)
(0.0130892 0.00070245 0)
(0.00899952 0.000698407 0)
(0.00529355 0.000699989 0)
(0.00193539 0.000704131 0)
(-0.00119319 0.00027937 0)
(-0.00422345 0.000236393 0)
(-0.00768714 0.000311637 0)
(-0.0119444 0.000415814 0)
(-0.0167864 0.0004694 0)
(-0.0209869 0.000301216 0)
(-0.0221495 -0.000250484 0)
(-0.0180889 -0.00112429 0)
(-0.00833253 -0.0021033 0)
(0.00590818 -0.00294738 0)
(0.0226045 -0.00351749 0)
(0.0398284 -0.0037789 0)
(0.0560552 -0.00369989 0)
(0.0700263 -0.00322765 0)
(0.0807309 -0.00234883 0)
(0.0875645 -0.00114515 0)
(0.0904487 0.000223636 0)
(0.0897886 0.00157951 0)
(0.0862819 0.00280139 0)
(0.0806687 0.00384804 0)
(0.0735761 0.0047241 0)
(0.0655041 0.00544201 0)
(0.0568649 0.00601312 0)
(0.0480034 0.00645248 0)
(0.0392034 0.00677797 0)
(0.0307002 0.0070076 0)
(0.0226708 0.00715613 0)
(0.015245 0.00723628 0)
(0.00848883 0.00726266 0)
(0.00240617 0.00725146 0)
(-0.0012149 0.000500808 0)
(-0.00436041 0.000468823 0)
(-0.00796405 0.000622716 0)
(-0.012437 0.000836847 0)
(-0.0176081 0.000961095 0)
(-0.0222779 0.000670618 0)
(-0.0240119 -0.000352402 0)
(-0.0205379 -0.00199878 0)
(-0.011322 -0.00385213 0)
(0.00244901 -0.00546147 0)
(0.0187497 -0.0065697 0)
(0.0356553 -0.00711576 0)
(0.0516502 -0.00704558 0)
(0.0654628 -0.006259 0)
(0.0760464 -0.0047269 0)
(0.0827664 -0.0025864 0)
(0.0855384 -0.00011283 0)
(0.0847898 0.00238088 0)
(0.0812589 0.0046749 0)
(0.0757264 0.00669841 0)
(0.0688373 0.00846474 0)
(0.0610854 0.00999251 0)
(0.0528623 0.011286 0)
(0.0444853 0.0123475 0)
(0.0362122 0.0131803 0)
(0.0282557 0.0137875 0)
(0.0207736 0.0141751 0)
(0.0138772 0.0143645 0)
(0.00762043 0.0144004 0)
(0.00200284 0.0143397 0)
(-0.00121937 0.000724465 0)
(-0.00435925 0.000703942 0)
(-0.00796623 0.000938555 0)
(-0.0124569 0.00126737 0)
(-0.0176842 0.00147145 0)
(-0.0224828 0.00107112 0)
(-0.0243934 -0.000416558 0)
(-0.021067 -0.00283707 0)
(-0.0119213 -0.0055727 0)
(0.0018644 -0.0079545 0)
(0.0182328 -0.00960859 0)
(0.0352407 -0.010448 0)
(0.0513894 -0.0103984 0)
(0.0654115 -0.00930509 0)
(0.0762217 -0.00711506 0)
(0.0831199 -0.00401674 0)
(0.0859626 -0.00040633 0)
(0.0851556 0.00325402 0)
(0.0814744 0.00663105 0)
(0.0757567 0.00962052 0)
(0.06868 0.0122489 0)
(0.0607534 0.0145422 0)
(0.0523854 0.0164982 0)
(0.0439118 0.0181098 0)
(0.0355992 0.0193732 0)
(0.0276546 0.0202873 0)
(0.0202204 0.0208594 0)
(0.0133937 0.0211225 0)
(0.0072237 0.0211434 0)
(0.00171308 0.0210099 0)
(-0.00122403 0.000949719 0)
(-0.00434345 0.000938647 0)
(-0.00793861 0.00125401 0)
(-0.0124261 0.00169911 0)
(-0.0176865 0.00198861 0)
(-0.0226002 0.00148763 0)
(-0.0246815 -0.000462302 0)
(-0.0214884 -0.00366344 0)
(-0.012382 -0.00729458 0)
(0.00146897 -0.0104632 0)
(0.0179615 -0.0126692 0)
(0.0351326 -0.0138133 0)
(0.0515166 -0.0138045 0)
(0.0658669 -0.0124261 0)
(0.0770572 -0.00958701 0)
(0.0843064 -0.00551746 0)
(0.0873869 -0.000733568 0)
(0.0866654 0.00413772 0)
(0.0829615 0.00862593 0)
(0.0771919 0.0125918 0)
(0.0700574 0.0160935 0)
(0.0620468 0.0191685 0)
(0.0535559 0.0218015 0)
(0.0449217 0.0239725 0)
(0.0364136 0.0256744 0)
(0.0282381 0.0269057 0)
(0.0205426 0.0276725 0)
(0.0134472 0.0280043 0)
(0.00704324 0.0279755 0)
(0.001375 0.027706 0)
(-0.00123021 0.00117706 0)
(-0.00432245 0.00117251 0)
(-0.00790168 0.00156847 0)
(-0.0123833 0.00213149 0)
(-0.0176827 0.00251312 0)
(-0.0227403 0.00192322 0)
(-0.0250391 -0.000485967 0)
(-0.0220165 -0.00447587 0)
(-0.0129614 -0.00901934 0)
(0.000972655 -0.0129912 0)
(0.017622 -0.0157585 0)
(0.0349955 -0.0172215 0)
(0.0516736 -0.0172814 0)
(0.0664424 -0.0156496 0)
(0.0781262 -0.0121782 0)
(0.0858401 -0.00712622 0)
(0.0892449 -0.00112544 0)
(0.0886443 0.00501182 0)
(0.0849156 0.0106394 0)
(0.0790998 0.0155817 0)
(0.0719332 0.0199632 0)
(0.0638602 0.0238465 0)
(0.0552486 0.0271939 0)
(0.0464346 0.0299683 0)
(0.0376872 0.0321634 0)
(0.0292033 0.0337809 0)
(0.0211223 0.0348144 0)
(0.0135828 0.0352565 0)
(0.00674387 0.035146 0)
(0.000754407 0.0346181 0)
(-0.00123823 0.0014071 0)
(-0.00429646 0.00140528 0)
(-0.0078562 0.00188166 0)
(-0.01233 0.00256455 0)
(-0.0176748 0.00304658 0)
(-0.0229072 0.00238267 0)
(-0.0254742 -0.000481864 0)
(-0.0226623 -0.00527063 0)
(-0.0136726 -0.0107476 0)
(0.000363692 -0.015543 0)
(0.0172034 -0.0188827 0)
(0.0348165 -0.0206814 0)
(0.0518441 -0.0208453 0)
(0.0671223 -0.0190015 0)
(0.0794177 -0.0149213 0)
(0.0877184 -0.00887566 0)
(0.0915411 -0.00160286 0)
(0.0910887 0.00587701 0)
(0.0873042 0.012681 0)
(0.0814259 0.0185865 0)
(0.0742446 0.0238486 0)
(0.0661195 0.0285757 0)
(0.0573738 0.0326871 0)
(0.0483534 0.0361185 0)
(0.0393374 0.0388739 0)
(0.0305066 0.0409767 0)
(0.0219545 0.0424148 0)
(0.0137798 0.0431067 0)
(0.00618976 0.0429471 0)
(-0.000454961 0.0419678 0)
(-0.00124844 0.00164055 0)
(-0.00426538 0.00163669 0)
(-0.00780213 0.00219328 0)
(-0.0122657 0.00299828 0)
(-0.0176614 0.00359049 0)
(-0.0230996 0.00287095 0)
(-0.0259876 -0.000444106 0)
(-0.0234283 -0.00604367 0)
(-0.0145194 -0.0124798 0)
(-0.000360607 -0.0181232 0)
(0.0167037 -0.022048 0)
(0.0345895 -0.0242013 0)
(0.0520178 -0.024512 0)
(0.0678963 -0.0225086 0)
(0.0809284 -0.0178518 0)
(0.0899515 -0.0108024 0)
(0.0943039 -0.00218969 0)
(0.0940284 0.00673996 0)
(0.0901269 0.0147716 0)
(0.0841567 0.0216018 0)
(0.0770015 0.0277341 0)
(0.0688515 0.0333551 0)
(0.0599604 0.0382946 0)
(0.0507094 0.0424392 0)
(0.0414167 0.0458162 0)
(0.0322553 0.0485108 0)
(0.0232331 0.0505679 0)
(0.014267 0.051866 0)
(0.00538036 0.0519966 0)
(-0.00284007 0.0504029 0)
(-0.00126128 0.00187823 0)
(-0.00422903 0.00186643 0)
(-0.00773937 0.00250305 0)
(-0.0121901 0.00343259 0)
(-0.0176409 0.00414625 0)
(-0.0233156 0.00339325 0)
(-0.02658 -0.000366594 0)
(-0.0243171 -0.00679062 0)
(-0.0155066 -0.0142166 0)
(-0.00120325 -0.0207376 0)
(0.0161206 -0.0252602 0)
(0.0343086 -0.0277876 0)
(0.0521815 -0.028296 0)
(0.0687522 -0.0261988 0)
(0.0826537 -0.0210077 0)
(0.0925514 -0.012949 0)
(0.0975705 -0.00291619 0)
(0.0975078 0.00761398 0)
(0.0933788 0.0169504 0)
(0.0872635 0.0246155 0)
(0.0802198 0.0315864 0)
(0.0720999 0.0381784 0)
(0.0630494 0.0440329 0)
(0.0535353 0.048944 0)
(0.043969 0.0529724 0)
(0.0345658 0.0563137 0)
(0.0252835 0.0591965 0)
(0.0157517 0.0617439 0)
(0.00510689 0.0635346 0)
(-0.00586373 0.060125 0)
(-0.00127721 0.00212118 0)
(-0.00418722 0.00209418 0)
(-0.00766781 0.00281067 0)
(-0.0121027 0.00386736 0)
(-0.0176113 0.00471512 0)
(-0.0235529 0.00395496 0)
(-0.0272521 -0.000242962 0)
(-0.0253319 -0.00750677 0)
(-0.0166397 -0.0159585 0)
(-0.00216747 -0.0233926 0)
(0.0154526 -0.0285251 0)
(0.0339666 -0.0314457 0)
(0.0523198 -0.0322116 0)
(0.0696737 -0.0301012 0)
(0.0845863 -0.0244312 0)
(0.0955286 -0.0153648 0)
(0.101389 -0.00382304 0)
(0.101595 0.00851973 0)
(0.0970455 0.0192936 0)
(0.0906819 0.0275996 0)
(0.083926 0.0353409 0)
(0.0759321 0.0430362 0)
(0.0666902 0.0499303 0)
(0.0568482 0.0556573 0)
(0.0469866 0.0603138 0)
(0.0374505 0.0642168 0)
(0.0283331 0.0678402 0)
(0.0194024 0.0718852 0)
(0.00985097 0.0767345 0)
(0.000738332 0.0689152 0)
(-0.00129679 0.0023706 0)
(-0.00413975 0.00231958 0)
(-0.00758734 0.00311583 0)
(-0.0120029 0.00430238 0)
(-0.0175706 0.00529816 0)
(-0.023809 0.00456171 0)
(-0.0280052 -6.65617e-05 0)
(-0.0264758 -0.00818692 0)
(-0.0179256 -0.0177058 0)
(-0.00325735 -0.0260923 0)
(0.0146983 -0.0318479 0)
(0.0335559 -0.035179 0)
(0.0524136 -0.0362708 0)
(0.0706414 -0.0342463 0)
(0.0867161 -0.0281688 0)
(0.0988896 -0.018108 0)
(0.105818 -0.00496681 0)
(0.106394 0.00948195 0)
(0.101102 0.0219538 0)
(0.0942743 0.0304894 0)
(0.0881733 0.0388759 0)
(0.0804576 0.0479211 0)
(0.0709465 0.0560419 0)
(0.0606491 0.0626376 0)
(0.0503911 0.0678523 0)
(0.040702 0.0720788 0)
(0.031961 0.0758589 0)
(0.0245982 0.0799962 0)
(0.0194143 0.0845723 0)
(0.0174715 0.0741218 0)
(-0.00132064 0.002628 0)
(-0.00408639 0.00254219 0)
(-0.00749787 0.00341821 0)
(-0.0118903 0.0047373 0)
(-0.017516 0.0058962 0)
(-0.0240806 0.00521944 0)
(-0.0288403 0.000169516 0)
(-0.0277524 -0.00882525 0)
(-0.0193721 -0.0194592 0)
(-0.00447754 -0.0288458 0)
(0.013857 -0.0352339 0)
(0.0330689 -0.0389883 0)
(0.0524404 -0.0404835 0)
(0.0716315 -0.038666 0)
(0.08903 -0.0322731 0)
(0.102632 -0.0212522 0)
(0.110923 -0.00642615 0)
(0.112061 0.0105148 0)
(0.105525 0.0252563 0)
(0.0977464 0.0331279 0)
(0.0930893 0.0419688 0)
(0.0858591 0.0528483 0)
(0.0759015 0.0624718 0)
(0.0649306 0.0699979 0)
(0.0540687 0.0756984 0)
(0.0439728 0.0800049 0)
(0.0351736 0.0833063 0)
(0.0283803 0.0859137 0)
(0.0247318 0.0868817 0)
(0.0247712 0.073135 0)
(-0.00134946 0.00289522 0)
(-0.00402688 0.00276154 0)
(-0.00739925 0.00371749 0)
(-0.0117643 0.00517176 0)
(-0.0174451 0.00650988 0)
(-0.0243638 0.00593453 0)
(-0.0297593 0.000472439 0)
(-0.0291655 -0.00941532 0)
(-0.0209888 -0.0212188 0)
(-0.00583265 -0.0316617 0)
(0.0129291 -0.0386883 0)
(0.0324984 -0.0428718 0)
(0.0523727 -0.044857 0)
(0.0726161 -0.0433946 0)
(0.091517 -0.0368054 0)
(0.106741 -0.0249148 0)
(0.116759 -0.00830134 0)
(0.118771 0.0115816 0)
(0.110371 0.0299494 0)
(0.100445 0.0351009 0)
(0.0990008 0.0442322 0)
(0.0924344 0.0579088 0)
(0.0816556 0.0694004 0)
(0.0696891 0.0779101 0)
(0.0579389 0.0840604 0)
(0.0470449 0.0883733 0)
(0.0374088 0.0910897 0)
(0.029493 0.0921303 0)
(0.0238095 0.0901432 0)
(0.0207563 0.0734025 0)
(-0.00138402 0.0031745 0)
(-0.00396094 0.00297706 0)
(-0.0072914 0.00401333 0)
(-0.0116245 0.0056052 0)
(-0.0173546 0.00713945 0)
(-0.0246539 0.00671375 0)
(-0.0307639 0.000849589 0)
(-0.0307185 -0.00994968 0)
(-0.0227866 -0.0229851 0)
(-0.00732804 -0.0345497 0)
(0.011917 -0.0422162 0)
(0.0318381 -0.0468236 0)
(0.0521775 -0.0493938 0)
(0.0735606 -0.0484677 0)
(0.094175 -0.0418302 0)
(0.111213 -0.0293407 0)
(0.123253 -0.010714 0)
(0.126466 0.0124983 0)
(0.116152 0.0379002 0)
(0.100867 0.0352 0)
(0.106767 0.0450755 0)
(0.100635 0.063394 0)
(0.0883038 0.0771131 0)
(0.0749427 0.0865778 0)
(0.0620495 0.0931684 0)
(0.0500096 0.0976054 0)
(0.0389667 0.100134 0)
(0.0289906 0.100546 0)
(0.0201465 0.0973665 0)
(0.0129934 0.0796688 0)
(-0.00142516 0.00346864 0)
(-0.00388828 0.00318811 0)
(-0.00717416 0.00430541 0)
(-0.0114703 0.00603703 0)
(-0.0172413 0.00778484 0)
(-0.0249454 0.00756451 0)
(-0.031857 0.00130845 0)
(-0.0324149 -0.0104199 0)
(-0.0247789 -0.0247585 0)
(-0.00896931 -0.0375215 0)
(0.0108247 -0.0458233 0)
(0.0310835 -0.0508341 0)
(0.0518147 -0.0540907 0)
(0.0744232 -0.0539233 0)
(0.0970247 -0.0473874 0)
(0.116203 -0.0350121 0)
(0.12999 -0.0140774 0)
(0.134318 0.0125089 0)
(0.125512 0.0532608 0)
(0.100998 0.0300391 0)
(0.118802 0.044057 0)
(0.111052 0.0700227 0)
(0.095932 0.0860093 0)
(0.0806942 0.0962029 0)
(0.0665457 0.103157 0)
(0.0532008 0.107944 0)
(0.0406313 0.110933 0)
(0.0284903 0.111726 0)
(0.0166749 0.1088 0)
(0.00431961 0.0942124 0)
(-0.00147381 0.0037811 0)
(-0.00380856 0.00339398 0)
(-0.00704743 0.00459338 0)
(-0.0113016 0.00646654 0)
(-0.0171018 0.00844557 0)
(-0.0252315 0.0084949 0)
(-0.0330418 0.00185642 0)
(-0.0342573 -0.010816 0)
(-0.0269816 -0.0265392 0)
(-0.0107631 -0.0405919 0)
(0.00965889 -0.0495156 0)
(0.0302341 -0.0548884 0)
(0.051235 -0.0589353 0)
(0.0751493 -0.0598049 0)
(0.100064 -0.053404 0)
(0.123532 -0.0426727 0)
(0.139443 -0.0201825 0)
(0.147508 0.00711479 0)
(0.145316 0.0769262 0)
(0.141583 0.0176672 0)
(0.144576 0.0461329 0)
(0.124261 0.0791951 0)
(0.104825 0.0965821 0)
(0.08705 0.107078 0)
(0.0707498 0.113881 0)
(0.0571102 0.119202 0)
(0.0431589 0.123587 0)
(0.0283347 0.125571 0)
(0.0143257 0.124032 0)
(-0.000244684 0.113784 0)
(-0.00153094 0.00411613 0)
(-0.00372142 0.00359382 0)
(-0.00691111 0.00487692 0)
(-0.0111178 0.0068929 0)
(-0.0169323 0.00912069 0)
(-0.0255038 0.00951368 0)
(-0.0343233 0.0025004 0)
(-0.0362469 -0.0111265 0)
(-0.0294136 -0.0283282 0)
(-0.0127173 -0.0437794 0)
(0.00842934 -0.0532997 0)
(0.0292949 -0.0589662 0)
(0.050378 -0.0639012 0)
(0.0756673 -0.0661697 0)
(0.102999 -0.0598504 0)
(0.128729 -0.0494264 0)
(0.138853 -0.0200025 0)
(0.185769 -0.0104282 0)
(0.168835 0.0942101 0)
(0.201566 0.00112357 0)
(0.181536 0.0651813 0)
(0.139682 0.0930012 0)
(0.115976 0.10903 0)
(0.0943079 0.119969 0)
(0.0719907 0.12718 0)
(0.0592128 0.129056 0)
(0.0481957 0.136882 0)
(0.0327946 0.141898 0)
(0.0161517 0.141007 0)
(-0.000419469 0.134728 0)
(-0.00159761 0.00447901 0)
(-0.00362647 0.00378675 0)
(-0.00676504 0.0051557 0)
(-0.010919 0.00731522 0)
(-0.016729 0.00980882 0)
(-0.0257516 0.0106306 0)
(-0.0357078 0.0032462 0)
(-0.0383832 -0.0113375 0)
(-0.0320978 -0.0301267 0)
(-0.0148416 -0.0471082 0)
(0.0071494 -0.0571835 0)
(0.0282796 -0.0630416 0)
(0.0491697 -0.0689409 0)
(0.075888 -0.0731183 0)
(0.106488 -0.0665717 0)
(0.111275 -0.0540736 0)
(0.147417 -0.0299077 0)
(0.177415 -0.00147628 0)
(0.165079 0.0812303 0)
(0.220303 -0.000636213 0)
(0.179526 0.0895126 0)
(0.150948 0.10932 0)
(0.130476 0.122307 0)
(0.10473 0.137178 0)
(0.0762296 0.143763 0)
(0.057981 0.137289 0)
(0.0470576 0.14748 0)
(0.0347881 0.158531 0)
(0.0175642 0.16172 0)
(-0.000269316 0.157374 0)
(-0.00167492 0.00487633 0)
(-0.00352329 0.00397174 0)
(-0.00660912 0.00542942 0)
(-0.0107052 0.00773255 0)
(-0.0164883 0.0105082 0)
(-0.0259616 0.0118564 0)
(-0.0372047 0.0040976 0)
(-0.040662 -0.0114323 0)
(-0.035062 -0.0319379 0)
(-0.0171482 -0.050611 0)
(0.00583507 -0.061175 0)
(0.0272146 -0.067083 0)
(0.0475222 -0.0739728 0)
(0.0757283 -0.0808614 0)
(0.106797 -0.0713819 0)
(0.133451 -0.0647885 0)
(0.172071 -0.0511937 0)
(0.201123 0.0143508 0)
(0.214285 0.0273211 0)
(0.152433 0.0455171 0)
(0.124622 0.0930279 0)
(0.14225 0.11353 0)
(0.134345 0.135619 0)
(0.114609 0.155493 0)
(0.0904381 0.166054 0)
(0.0563032 0.154842 0)
(0.0330595 0.156562 0)
(0.0215098 0.170286 0)
(0.0103186 0.178852 0)
(-0.00206311 0.176577 0)
(-0.00176396 0.00531619 0)
(-0.00341146 0.00414769 0)
(-0.00644324 0.00569778 0)
(-0.0104766 0.0081439 0)
(-0.0162065 0.0112166 0)
(-0.0261165 0.0132028 0)
(-0.0388268 0.00505482 0)
(-0.0430738 -0.0113906 0)
(-0.0383401 -0.0337678 0)
(-0.0196539 -0.0543344 0)
(0.00450486 -0.0652828 0)
(0.0261438 -0.0710536 0)
(0.0453383 -0.07886 0)
(0.0752702 -0.0897155 0)
(0.0963326 -0.0787787 0)
(0.157386 -0.0782642 0)
(0.176687 -0.0667926 0)
(0.165795 0.0323316 0)
(0.076929 0.048271 0)
(0.078812 0.0535984 0)
(0.0766171 0.0769734 0)
(0.105925 0.104071 0)
(0.127053 0.134444 0)
(0.129767 0.15915 0)
(0.112858 0.180696 0)
(0.0821328 0.178988 0)
(0.0485405 0.177067 0)
(0.0211056 0.182407 0)
(0.00740086 0.188174 0)
(-0.00161178 0.187897 0)
(-0.00186581 0.00580872 0)
(-0.00329053 0.00431343 0)
(-0.00626728 0.00596053 0)
(-0.010234 0.00854838 0)
(-0.0158804 0.0119321 0)
(-0.0261933 0.0146822 0)
(-0.0405929 0.00611268 0)
(-0.0456014 -0.0111875 0)
(-0.0419739 -0.0356286 0)
(-0.0223823 -0.058348 0)
(0.00317682 -0.0695139 0)
(0.0251341 -0.0749113 0)
(0.0425329 -0.0833779 0)
(0.0746818 -0.0997346 0)
(0.110129 -0.0889058 0)
(0.147269 -0.064616 0)
(0.177179 -0.0667017 0)
(-0.0999371 0.0906546 0)
(0.724277 -0.0135366 0)
(0.560663 0.0677891 0)
(0.445637 0.130699 0)
(0.271109 0.117593 0)
(0.16658 0.140291 0)
(0.122185 0.169174 0)
(0.105674 0.224297 0)
(0.0824557 0.227889 0)
(0.0365556 0.212063 0)
(-0.00164802 0.193347 0)
(-0.00665663 0.191249 0)
(-0.00670048 0.188927 0)
(-0.00198148 0.00636647 0)
(-0.00316008 0.00446776 0)
(-0.00608113 0.00621746 0)
(-0.00997838 0.00894534 0)
(-0.0155077 0.0126535 0)
(-0.0261611 0.0163077 0)
(-0.0425298 0.00725884 0)
(-0.0482155 -0.0107916 0)
(-0.0460159 -0.037544 0)
(-0.0253686 -0.0627586 0)
(0.00186478 -0.0738684 0)
(0.0242771 -0.0786086 0)
(0.0390964 -0.0871683 0)
(0.0735636 -0.111467 0)
(0.0989496 -0.0793075 0)
(0.202024 -0.0698735 0)
(0.0856395 0.0351821 0)
(0.447662 -0.468746 0)
(0.43387 0.0370578 0)
(0.501314 0.0649408 0)
(0.544546 0.181407 0)
(0.463807 0.210993 0)
(0.31777 0.210926 0)
(0.198693 0.215465 0)
(0.12782 0.2245 0)
(0.0928287 0.237909 0)
(0.0692954 0.242393 0)
(0.0476594 0.232842 0)
(0.0224696 0.219144 0)
(-0.00288862 0.214104 0)
(-0.00211194 0.00700488 0)
(-0.00301973 0.00460943 0)
(-0.00588468 0.00646836 0)
(-0.00971146 0.00933452 0)
(-0.0150872 0.0133817 0)
(-0.025978 0.0180931 0)
(-0.044675 0.00847809 0)
(-0.0508688 -0.0101613 0)
(-0.0505317 -0.0395578 0)
(-0.028666 -0.0677301 0)
(0.000577022 -0.078356 0)
(0.0236785 -0.0820962 0)
(0.0352824 -0.0896903 0)
(0.0698969 -0.124185 0)
(0.126874 -0.07546 0)
(0.185326 -0.0864053 0)
(0.0563415 0.0156237 0)
(0.495244 -0.166768 0)
(0.216609 0.0142321 0)
(0.257896 0.0351202 0)
(0.333172 0.154398 0)
(0.383058 0.247461 0)
(0.334653 0.282947 0)
(0.247393 0.283143 0)
(0.164792 0.274769 0)
(0.100035 0.272941 0)
(0.0560384 0.268944 0)
(0.0251673 0.259013 0)
(-0.000974303 0.249454 0)
(-0.0262103 0.247516 0)
(-0.00225808 0.00774297 0)
(-0.00286923 0.0047373 0)
(-0.00567785 0.0067131 0)
(-0.00943561 0.00971654 0)
(-0.0146199 0.0141222 0)
(-0.0255878 0.0200537 0)
(-0.0470814 0.00976314 0)
(-0.0534858 -0.00923853 0)
(-0.0556066 -0.0417515 0)
(-0.0323596 -0.0735119 0)
(-0.000692516 -0.0829935 0)
(0.0234191 -0.0853482 0)
(0.032209 -0.0902543 0)
(0.0783963 -0.149787 0)
(0.197963 -0.129087 0)
(0.0606398 -0.0217692 0)
(0.674155 -0.474825 0)
(0.158234 0.0402864 0)
(0.0740137 0.0147546 0)
(0.0902616 0.0184359 0)
(0.138304 0.112744 0)
(0.204992 0.230224 0)
(0.219213 0.3086 0)
(0.20267 0.325922 0)
(0.15031 0.329202 0)
(0.0883336 0.322081 0)
(0.0394672 0.306375 0)
(0.00496563 0.289346 0)
(-0.0216403 0.278309 0)
(-0.0453245 0.278841 0)
(-0.00242028 0.0086162 0)
(-0.00270852 0.00485035 0)
(-0.00546054 0.00695157 0)
(-0.00915429 0.0100935 0)
(-0.0141096 0.0148896 0)
(-0.0249163 0.0222095 0)
(-0.0498229 0.011125 0)
(-0.0559459 -0.00793413 0)
(-0.0613479 -0.0442769 0)
(-0.0365924 -0.0804798 0)
(-0.0019738 -0.087798 0)
(0.023484 -0.0883865 0)
(0.0338037 -0.0885019 0)
(0.101533 -0.188878 0)
(0.248971 -0.159956 0)
(-0.0663689 0.00527491 0)
(0.22784 -0.444264 0)
(-0.0311927 0.0884479 0)
(-0.0254169 0.0124086 0)
(-0.014655 0.00971909 0)
(0.011799 0.0858136 0)
(0.0556431 0.205172 0)
(0.0758956 0.304156 0)
(0.109864 0.334244 0)
(0.0835979 0.366723 0)
(0.0484928 0.362932 0)
(0.0151352 0.340407 0)
(-0.0111855 0.318458 0)
(-0.0342283 0.304901 0)
(-0.0542454 0.306904 0)
(-0.00259749 0.00966041 0)
(-0.00253788 0.00494791 0)
(-0.00523274 0.00718359 0)
(-0.00887229 0.0104701 0)
(-0.0135651 0.0157126 0)
(-0.0238677 0.0245891 0)
(-0.0530021 0.0126033 0)
(-0.0580565 -0.00610358 0)
(-0.0678834 -0.0474241 0)
(-0.0416313 -0.0892131 0)
(-0.00334405 -0.0927961 0)
(0.0236638 -0.0912749 0)
(0.0563468 -0.0852896 0)
(0.148099 -0.246849 0)
(0.15724 -0.0921582 0)
(0.541089 -0.428736 0)
(-0.0957748 -0.0077688 0)
(-0.128236 0.0774553 0)
(-0.100423 0.00810337 0)
(-0.0955605 0.00500172 0)
(-0.0817916 0.0702641 0)
(-0.0486721 0.181993 0)
(0.011099 0.300977 0)
(-0.0305955 0.344184 0)
(-0.00281699 0.372306 0)
(-0.00488006 0.381634 0)
(-0.016594 0.360576 0)
(-0.0295967 0.339871 0)
(-0.0408613 0.323674 0)
(-0.0539528 0.327921 0)
(-0.00278811 0.0109213 0)
(-0.00235809 0.00502983 0)
(-0.00499442 0.00740894 0)
(-0.00859631 0.0108554 0)
(-0.0130023 0.0166393 0)
(-0.0223208 0.027232 0)
(-0.0567607 0.0142875 0)
(-0.0595109 -0.00350245 0)
(-0.0753521 -0.0517511 0)
(-0.048046 -0.100643 0)
(-0.00497857 -0.0980587 0)
(0.0234657 -0.0942219 0)
(0.102838 -0.0876095 0)
(0.150412 -0.286097 0)
(0.0165537 -0.043742 0)
(0.340909 -0.192166 0)
(-0.236377 0.0409789 0)
(-0.180631 0.0566054 0)
(-0.160603 0.00580059 0)
(-0.165174 0.00456346 0)
(-0.163016 0.0618756 0)
(-0.141621 0.160216 0)
(-0.0995698 0.270723 0)
(-0.0724264 0.343115 0)
(-0.0644965 0.365269 0)
(-0.0527298 0.38015 0)
(-0.0438893 0.36394 0)
(-0.0416419 0.34113 0)
(-0.0440733 0.335511 0)
(-0.047722 0.338589 0)
(-0.00299712 0.0124452 0)
(-0.00217092 0.00509683 0)
(-0.00474582 0.00762712 0)
(-0.00833567 0.0112661 0)
(-0.0124482 0.0177342 0)
(-0.0201219 0.0301871 0)
(-0.061289 0.0163736 0)
(-0.059829 0.000261749 0)
(-0.0839394 -0.0582858 0)
(-0.057233 -0.116308 0)
(-0.00725847 -0.10373 0)
(0.0221579 -0.0983039 0)
(0.116422 -0.0834808 0)
(0.153984 -0.279859 0)
(0.38071 -0.151167 0)
(-0.108205 0.00594885 0)
(-0.245994 0.0468833 0)
(-0.212603 0.0427528 0)
(-0.20622 0.00739675 0)
(-0.220232 0.00890596 0)
(-0.228669 0.0590492 0)
(-0.217862 0.146001 0)
(-0.187437 0.244342 0)
(-0.1464 0.315997 0)
(-0.11827 0.352123 0)
(-0.0903244 0.363625 0)
(-0.0672521 0.351239 0)
(-0.0550079 0.340624 0)
(-0.0466409 0.332106 0)
(-0.038612 0.334846 0)
(-0.00320135 0.0139553 0)
(-0.00198356 0.00515096 0)
(-0.0044904 0.00783708 0)
(-0.00810508 0.01173 0)
(-0.0119477 0.019071 0)
(-0.0170762 0.03351 0)
(-0.0668292 0.0192215 0)
(-0.0582921 0.00578657 0)
(-0.0941836 -0.0686825 0)
(-0.0719989 -0.138787 0)
(-0.0109532 -0.109995 0)
(0.0188257 -0.106451 0)
(0.112997 -0.0443582 0)
(0.0753316 -0.216232 0)
(-0.0369398 -0.020106 0)
(-0.223718 0.0533872 0)
(-0.245387 0.0473852 0)
(-0.232541 0.036543 0)
(-0.236536 0.0123212 0)
(-0.25614 0.0171849 0)
(-0.272231 0.061618 0)
(-0.269491 0.13613 0)
(-0.240635 0.219158 0)
(-0.198863 0.288076 0)
(-0.156565 0.324666 0)
(-0.114468 0.336116 0)
(-0.0823842 0.330081 0)
(-0.058714 0.325261 0)
(-0.0439811 0.318962 0)
(-0.0295933 0.319729 0)
(0.0133068 0.0123562 0)
(-0.00184776 0.00519769 0)
(-0.00426284 0.00803643 0)
(-0.00794845 0.0122911 0)
(-0.0115844 0.0207361 0)
(-0.0129435 0.0372715 0)
(-0.0736401 0.0234137 0)
(-0.0538696 0.0138738 0)
(-0.109414 -0.084713 0)
(-0.0902845 -0.171456 0)
(-0.0189744 -0.117922 0)
(0.0142994 -0.118515 0)
(0.0912268 -0.0197744 0)
(-0.0548855 -0.106641 0)
(-0.208887 0.0134378 0)
(-0.237839 0.0582135 0)
(-0.246079 0.048399 0)
(-0.243954 0.035218 0)
(-0.25307 0.01903 0)
(-0.273256 0.0268491 0)
(-0.28857 0.0665068 0)
(-0.288384 0.127439 0)
(-0.260912 0.195877 0)
(-0.220129 0.25859 0)
(-0.174886 0.288404 0)
(-0.129167 0.301669 0)
(-0.0934213 0.302543 0)
(-0.0646848 0.30091 0)
(-0.0410858 0.29926 0)
(-0.0211563 0.295227 0)
(-0.00113571 0.000706671 0)
(-0.00424352 0.000707662 0)
(-0.00766983 0.00070441 0)
(-0.0114265 0.000698001 0)
(-0.0155345 0.00069286 0)
(-0.0200292 0.00069472 0)
(-0.0249641 0.000706393 0)
(-0.0303785 0.000724095 0)
(-0.0362671 0.000737883 0)
(-0.0425234 0.000734437 0)
(-0.0489139 0.000700085 0)
(-0.0550501 0.000622622 0)
(-0.0603803 0.00049421 0)
(-0.0641971 0.000314053 0)
(-0.0656994 9.47067e-05 0)
(-0.0641804 -0.000132848 0)
(-0.0592784 -0.000330771 0)
(-0.0511632 -0.000466431 0)
(-0.0405129 -0.000529001 0)
(-0.0282973 -0.000528131 0)
(-0.0155963 -0.000478124 0)
(-0.00365733 -0.000383918 0)
(0.00600153 -0.000253778 0)
(0.0119765 -0.000113212 0)
(0.0137597 2.52928e-07 0)
(0.0122554 5.78226e-05 0)
(0.00932031 6.43384e-05 0)
(0.00636192 5.14714e-05 0)
(0.00386604 3.80118e-05 0)
(0.001768 3.29485e-05 0)
(-0.00324669 0.00721553 0)
(-0.00906913 0.00715783 0)
(-0.0154477 0.00707449 0)
(-0.0224127 0.00696323 0)
(-0.0299692 0.00681809 0)
(-0.0380665 0.00662946 0)
(-0.0465862 0.00637578 0)
(-0.0553197 0.00602412 0)
(-0.0639847 0.00553612 0)
(-0.0722137 0.00488163 0)
(-0.0795697 0.00404637 0)
(-0.0855461 0.00302994 0)
(-0.0895407 0.0018374 0)
(-0.0908477 0.000502473 0)
(-0.0887502 -0.000877118 0)
(-0.082752 -0.00213459 0)
(-0.0728107 -0.00309442 0)
(-0.0594462 -0.00364571 0)
(-0.0436466 -0.00378322 0)
(-0.0266486 -0.0035753 0)
(-0.00983366 -0.00308311 0)
(0.00511749 -0.00232688 0)
(0.0162148 -0.0013842 0)
(0.0218516 -0.000457588 0)
(0.0219048 0.000201037 0)
(0.0182001 0.000460449 0)
(0.0133117 0.000442702 0)
(0.00880196 0.000342144 0)
(0.00511364 0.000249732 0)
(0.00195983 0.000197446 0)
(-0.00320183 0.0142281 0)
(-0.00854311 0.0140809 0)
(-0.0143761 0.0138973 0)
(-0.0207415 0.0136678 0)
(-0.0276751 0.0133572 0)
(-0.0351661 0.0129133 0)
(-0.0431279 0.0122798 0)
(-0.0513696 0.0114082 0)
(-0.0596194 0.0102629 0)
(-0.0675235 0.00882843 0)
(-0.07466 0.00711026 0)
(-0.0805288 0.00512046 0)
(-0.08452 0.00286704 0)
(-0.0858996 0.000401858 0)
(-0.0839126 -0.00210121 0)
(-0.0780313 -0.00434817 0)
(-0.068207 -0.00603279 0)
(-0.0549852 -0.0069646 0)
(-0.0393948 -0.00714111 0)
(-0.0226993 -0.00669188 0)
(-0.00627258 -0.00572667 0)
(0.00822185 -0.00428119 0)
(0.0188002 -0.00249247 0)
(0.0238629 -0.000743661 0)
(0.0233343 0.000485663 0)
(0.0191271 0.00095068 0)
(0.0138754 0.000893514 0)
(0.00912466 0.000684754 0)
(0.00528191 0.000497175 0)
(0.00202139 0.000392519 0)
(-0.00335806 0.0207973 0)
(-0.00852614 0.0205376 0)
(-0.014145 0.0202472 0)
(-0.020288 0.01993 0)
(-0.027042 0.0195282 0)
(-0.0344394 0.0189324 0)
(-0.0424129 0.0180268 0)
(-0.0507636 0.0167276 0)
(-0.0591917 0.0149931 0)
(-0.0673062 0.0128231 0)
(-0.0746526 0.0102464 0)
(-0.0807124 0.00729216 0)
(-0.0848587 0.0039707 0)
(-0.0863181 0.000351862 0)
(-0.0842926 -0.00330662 0)
(-0.078255 -0.0065681 0)
(-0.0682046 -0.00898737 0)
(-0.0547568 -0.0102946 0)
(-0.0389968 -0.0104967 0)
(-0.0221973 -0.009795 0)
(-0.00570807 -0.00834995 0)
(0.00881272 -0.00620952 0)
(0.0193517 -0.00356714 0)
(0.0242892 -0.000992013 0)
(0.0235843 0.000804004 0)
(0.0192284 0.00146271 0)
(0.0139047 0.00135561 0)
(0.00912936 0.00103308 0)
(0.00528294 0.00074724 0)
(0.00202488 0.000588413 0)
(-0.00376177 0.027317 0)
(-0.00890734 0.0268813 0)
(-0.0144445 0.0264715 0)
(-0.0205348 0.0261225 0)
(-0.0273488 0.0257184 0)
(-0.0349263 0.0250446 0)
(-0.043148 0.0239047 0)
(-0.0517545 0.0221822 0)
(-0.0604012 0.0198393 0)
(-0.0686711 0.0169029 0)
(-0.0761075 0.0134397 0)
(-0.0822154 0.00950171 0)
(-0.0863788 0.00508899 0)
(-0.0877752 0.000277876 0)
(-0.0855493 -0.00457486 0)
(-0.079181 -0.00887206 0)
(-0.0687407 -0.0120229 0)
(-0.0549352 -0.013685 0)
(-0.0389163 -0.0138884 0)
(-0.0219539 -0.0129191 0)
(-0.0053495 -0.0109875 0)
(0.00925013 -0.00814329 0)
(0.0197896 -0.00463427 0)
(0.0246215 -0.00122318 0)
(0.0237462 0.00114023 0)
(0.0192511 0.00198392 0)
(0.0138773 0.00181979 0)
(0.0090995 0.0013813 0)
(0.00526684 0.000996264 0)
(0.00202414 0.000782252 0)
(-0.00451313 0.033873 0)
(-0.0095632 0.0330957 0)
(-0.0148474 0.0325454 0)
(-0.0207966 0.0323138 0)
(-0.0277451 0.0320712 0)
(-0.0356565 0.0313923 0)
(-0.0442688 0.0300081 0)
(-0.0532255 0.0278117 0)
(-0.0621352 0.0247985 0)
(-0.0705627 0.0210395 0)
(-0.0780645 0.0166549 0)
(-0.0841973 0.0117218 0)
(-0.0883693 0.0062001 0)
(-0.0896776 0.000151742 0)
(-0.0871785 -0.00594228 0)
(-0.0803702 -0.0112969 0)
(-0.069421 -0.0151707 0)
(-0.0551564 -0.0171563 0)
(-0.0388121 -0.0173269 0)
(-0.0216486 -0.0160702 0)
(-0.0049013 -0.0136441 0)
(0.00979919 -0.0100855 0)
(0.0203394 -0.00569308 0)
(0.0250358 -0.00143376 0)
(0.023943 0.00149798 0)
(0.0192724 0.00251544 0)
(0.0138383 0.00228559 0)
(0.00905938 0.00172881 0)
(0.00524546 0.00124361 0)
(0.00202324 0.000973175 0)
(-0.0060116 0.0404475 0)
(-0.0107035 0.038827 0)
(-0.0151088 0.0381328 0)
(-0.0207003 0.038505 0)
(-0.0279882 0.038747 0)
(-0.0364949 0.0381229 0)
(-0.0456825 0.0364313 0)
(-0.0551013 0.0336668 0)
(-0.0643325 0.0298896 0)
(-0.0729302 0.0252297 0)
(-0.0804761 0.0198815 0)
(-0.0866208 0.0139524 0)
(-0.0908181 0.00730555 0)
(-0.0920268 -4.11729e-05 0)
(-0.0891796 -0.00743909 0)
(-0.081814 -0.0138767 0)
(-0.0702303 -0.0184597 0)
(-0.0554028 -0.020728 0)
(-0.038669 -0.0208222 0)
(-0.0212704 -0.019254 0)
(-0.00435263 -0.0163242 0)
(0.0104723 -0.0120383 0)
(0.0210128 -0.0067413 0)
(0.0255412 -0.00161842 0)
(0.0241797 0.00188278 0)
(0.0192945 0.00305964 0)
(0.0137891 0.00275326 0)
(0.0090099 0.00207539 0)
(0.00521931 0.00148884 0)
(0.00202258 0.00116043 0)
(-0.00970551 0.0472319 0)
(-0.0136297 0.0427612 0)
(-0.0142169 0.0422944 0)
(-0.0195468 0.0450037 0)
(-0.0279513 0.0461238 0)
(-0.0374982 0.0454479 0)
(-0.0474683 0.0432778 0)
(-0.0574494 0.0397969 0)
(-0.067048 0.0351295 0)
(-0.0758099 0.0294631 0)
(-0.0833482 0.0231017 0)
(-0.0894796 0.0161978 0)
(-0.0937432 0.00841493 0)
(-0.0948513 -0.000316524 0)
(-0.091569 -0.00909888 0)
(-0.0835133 -0.0166485 0)
(-0.0711599 -0.0219204 0)
(-0.0556622 -0.024419 0)
(-0.0384792 -0.0243829 0)
(-0.0208162 -0.0224752 0)
(-0.00370191 -0.0190318 0)
(0.0112725 -0.0140043 0)
(0.021813 -0.00777645 0)
(0.026139 -0.00177154 0)
(0.0244554 0.00230038 0)
(0.0193157 0.00361883 0)
(0.0137293 0.00322296 0)
(0.00895096 0.00242081 0)
(0.00518847 0.00173151 0)
(0.00202248 0.00134324 0)
(-0.00556083 0.0506814 0)
(0.000810469 0.0434406 0)
(-0.00310977 0.0470173 0)
(-0.0166136 0.053693 0)
(-0.0278826 0.0548672 0)
(-0.0388912 0.0535836 0)
(-0.0497682 0.0506274 0)
(-0.0603669 0.0462383 0)
(-0.07036 0.0405249 0)
(-0.0792536 0.0337121 0)
(-0.0866799 0.0262786 0)
(-0.0927537 0.0184705 0)
(-0.0971719 0.00954953 0)
(-0.0981899 -0.000692146 0)
(-0.0943656 -0.0109619 0)
(-0.0854691 -0.019653 0)
(-0.0721986 -0.0255858 0)
(-0.0559197 -0.0282484 0)
(-0.0382332 -0.0280159 0)
(-0.0202833 -0.0257381 0)
(-0.00294767 -0.0217719 0)
(0.0122036 -0.015986 0)
(0.022744 -0.00879579 0)
(0.0268308 -0.0018873 0)
(0.0247689 0.00275681 0)