/*--------------------------------*- C++ -*----------------------------------*\
| =========                 |                                                 |
| \\      /  F ield         | OpenFOAM: The Open Source CFD Toolbox           |
|  \\    /   O peration     | Version:  2.4.0                                 |
|   \\  /    A nd           | Web:      www.OpenFOAM.org                      |
|    \\/     M anipulation  |                                                 |
\*---------------------------------------------------------------------------*/
FoamFile
{
    version     2.0;
    format      ascii;
    class       volVectorField;
    location    "0.039";
    object      U;
}
// * * * * * * * * * * * * * * * * * * * * * * * * * * * * * * * * * * * * * //

dimensions      [0 1 -1 0 0 0 0];

internalField   nonuniform List<vector> 
10000
(
(1.7708e-06 -1.75193e-06 0)
(1.146e-05 -4.17884e-06 0)
(2.79089e-05 -5.53377e-06 0)
(4.81002e-05 -6.21442e-06 0)
(7.02273e-05 -6.55553e-06 0)
(9.33755e-05 -6.70839e-06 0)
(0.000117105 -6.75901e-06 0)
(0.00014123 -6.76633e-06 0)
(0.000165726 -6.77658e-06 0)
(0.000190687 -6.82516e-06 0)
(0.000216283 -6.93227e-06 0)
(0.000242723 -7.10018e-06 0)
(0.000270212 -7.31583e-06 0)
(0.000298915 -7.55733e-06 0)
(0.000328946 -7.80167e-06 0)
(0.000360379 -8.03206e-06 0)
(0.000393269 -8.24252e-06 0)
(0.00042767 -8.43806e-06 0)
(0.000463644 -8.63043e-06 0)
(0.000501253 -8.83112e-06 0)
(0.000540529 -9.04374e-06 0)
(0.000581445 -9.25864e-06 0)
(0.000623887 -9.45138e-06 0)
(0.000667622 -9.58587e-06 0)
(0.000712298 -9.62159e-06 0)
(0.000757443 -9.52306e-06 0)
(0.000802484 -9.26735e-06 0)
(0.000846773 -8.84647e-06 0)
(0.000889607 -8.26374e-06 0)
(0.000930247 -7.52681e-06 0)
(0.000967918 -6.64082e-06 0)
(0.00100181 -5.60481e-06 0)
(0.00103109 -4.41238e-06 0)
(0.00105487 -3.05568e-06 0)
(0.00107228 -1.53091e-06 0)
(0.00108247 1.54612e-07 0)
(0.00108466 1.97137e-06 0)
(0.00107819 3.90904e-06 0)
(0.00106253 5.92452e-06 0)
(0.00103737 7.97007e-06 0)
(0.00100254 9.99708e-06 0)
(0.0009581 1.19613e-05 0)
(0.000904312 1.38214e-05 0)
(0.000841646 1.55381e-05 0)
(0.000770777 1.70778e-05 0)
(0.000692582 1.84102e-05 0)
(0.000608136 1.95012e-05 0)
(0.00051868 2.03189e-05 0)
(0.000425573 2.08428e-05 0)
(0.000330269 2.10549e-05 0)
(4.18488e-06 -1.135e-05 0)
(2.59572e-05 -2.59582e-05 0)
(5.97296e-05 -3.46377e-05 0)
(0.000100661 -3.9592e-05 0)
(0.00014565 -4.23878e-05 0)
(0.00019316 -4.399e-05 0)
(0.00024247 -4.50001e-05 0)
(0.000293309 -4.58114e-05 0)
(0.000345675 -4.66951e-05 0)
(0.000399736 -4.78364e-05 0)
(0.000455777 -4.93433e-05 0)
(0.000514163 -5.1248e-05 0)
(0.000575307 -5.3519e-05 0)
(0.000639638 -5.60849e-05 0)
(0.00070758 -5.88641e-05 0)
(0.000779532 -6.17906e-05 0)
(0.00085585 -6.48281e-05 0)
(0.00093683 -6.79671e-05 0)
(0.00102268 -7.12061e-05 0)
(0.0011135 -7.45244e-05 0)
(0.00120927 -7.78536e-05 0)
(0.0013098 -8.10622e-05 0)
(0.00141477 -8.39572e-05 0)
(0.00152363 -8.63044e-05 0)
(0.00163564 -8.78604e-05 0)
(0.00174983 -8.84051e-05 0)
(0.00186495 -8.77623e-05 0)
(0.00197954 -8.58038e-05 0)
(0.00209189 -8.24359e-05 0)
(0.00220007 -7.75811e-05 0)
(0.00230198 -7.11635e-05 0)
(0.00239535 -6.31061e-05 0)
(0.00247782 -5.33422e-05 0)
(0.00254699 -4.18365e-05 0)
(0.00260045 -2.86079e-05 0)
(0.00263593 -1.37507e-05 0)
(0.00265133 2.55143e-06 0)
(0.00264484 2.00558e-05 0)
(0.00261499 3.84389e-05 0)
(0.00256074 5.7325e-05 0)
(0.00248157 7.63079e-05 0)
(0.00237746 9.49715e-05 0)
(0.00224901 0.000112902 0)
(0.00209737 0.000129692 0)
(0.00192429 0.000144951 0)
(0.001732 0.000158316 0)
(0.00152323 0.000169451 0)
(0.00130109 0.000178064 0)
(0.001069 0.000183943 0)
(0.000830533 0.000186961 0)
(5.53874e-06 -2.76505e-05 0)
(3.47057e-05 -5.97683e-05 0)
(7.86819e-05 -7.84732e-05 0)
(0.000131476 -8.95305e-05 0)
(0.000189416 -9.62059e-05 0)
(0.000250807 -0.000100498 0)
(0.000314913 -0.000103673 0)
(0.000381507 -0.00010654 0)
(0.000450667 -0.000109619 0)
(0.000522665 -0.00011325 0)
(0.000597905 -0.000117642 0)
(0.000676901 -0.000122896 0)
(0.000760251 -0.000129026 0)
(0.000848618 -0.000135981 0)
(0.000942693 -0.000143669 0)
(0.00104315 -0.000151991 0)
(0.00115062 -0.000160852 0)
(0.0012656 -0.000170158 0)
(0.00138845 -0.000179801 0)
(0.00151934 -0.000189617 0)
(0.00165827 -0.000199363 0)
(0.001805 -0.000208699 0)
(0.00195906 -0.00021719 0)
(0.00211973 -0.000224338 0)
(0.00228597 -0.00022962 0)
(0.00245641 -0.000232525 0)
(0.00262928 -0.000232582 0)
(0.00280244 -0.000229362 0)
(0.00297337 -0.000222476 0)
(0.00313916 -0.000211572 0)
(0.0032966 -0.000196335 0)
(0.00344221 -0.000176501 0)
(0.00357233 -0.000151893 0)
(0.00368323 -0.000122451 0)
(0.00377118 -8.82702e-05 0)
(0.00383264 -4.96296e-05 0)
(0.0038643 -7.00039e-06 0)
(0.0038633 3.89433e-05 0)
(0.00382726 8.73748e-05 0)
(0.00375447 0.000137325 0)
(0.00364396 0.000187729 0)
(0.00349562 0.000237469 0)
(0.0033102 0.000285417 0)
(0.00308937 0.000330459 0)
(0.00283568 0.000371521 0)
(0.00255245 0.000407608 0)
(0.00224375 0.000437841 0)
(0.00191424 0.000461477 0)
(0.00156903 0.000477966 0)
(0.00121354 0.000486984 0)
(6.2151e-06 -4.77647e-05 0)
(3.9742e-05 -0.000100988 0)
(9.00205e-05 -0.00013145 0)
(0.000150108 -0.000149632 0)
(0.000215908 -0.000160977 0)
(0.000285666 -0.000168702 0)
(0.00035871 -0.000174828 0)
(0.000434922 -0.000180625 0)
(0.000514514 -0.000186894 0)
(0.000597913 -0.00019415 0)
(0.000685702 -0.000202725 0)
(0.000778584 -0.000212812 0)
(0.000877362 -0.000224492 0)
(0.00098291 -0.000237755 0)
(0.00109614 -0.000252523 0)
(0.00121793 -0.000268667 0)
(0.0013491 -0.000286024 0)
(0.00149035 -0.000304382 0)
(0.00164219 -0.000323462 0)
(0.00180494 -0.000342883 0)
(0.00197866 -0.000362143 0)
(0.00216316 -0.00038061 0)
(0.00235793 -0.000397532 0)
(0.00256208 -0.000412072 0)
(0.00277434 -0.000423344 0)
(0.00299296 -0.000430444 0)
(0.00321571 -0.000432476 0)
(0.00343987 -0.00042857 0)
(0.00366221 -0.000417893 0)
(0.00387899 -0.000399675 0)
(0.00408605 -0.000373239 0)
(0.00427887 -0.000338047 0)
(0.00445265 -0.000293754 0)
(0.00460245 -0.000240263 0)
(0.00472333 -0.000177773 0)
(0.00481055 -0.000106812 0)
(0.00485966 -2.82518e-05 0)
(0.00486675 5.66996e-05 0)
(0.00482856 0.000146544 0)
(0.00474269 0.000239511 0)
(0.00460773 0.000333639 0)
(0.00442335 0.000426833 0)
(0.00419039 0.000516935 0)
(0.00391089 0.000601792 0)
(0.00358803 0.000679326 0)
(0.0032261 0.000747617 0)
(0.00283032 0.000804986 0)
(0.00240677 0.000850058 0)
(0.00196218 0.000881822 0)
(0.0015037 0.000899677 0)
(6.56788e-06 -6.98647e-05 0)
(4.25786e-05 -0.000146403 0)
(9.66593e-05 -0.00018968 0)
(0.00016116 -0.000215515 0)
(0.000231648 -0.000231917 0)
(0.000306335 -0.000243496 0)
(0.000384633 -0.000253091 0)
(0.00046656 -0.000262466 0)
(0.000552488 -0.000272719 0)
(0.000643027 -0.000284559 0)
(0.000738958 -0.000298457 0)
(0.000841189 -0.000314717 0)
(0.000950732 -0.000333504 0)
(0.00106866 -0.000354861 0)
(0.00119608 -0.000378723 0)
(0.00133406 -0.000404932 0)
(0.00148361 -0.000433232 0)
(0.0016456 -0.000463259 0)
(0.00182073 -0.000494517 0)
(0.00200948 -0.000526365 0)
(0.00221204 -0.000557994 0)
(0.00242829 -0.000588433 0)
(0.0026577 -0.000616562 0)
(0.00289932 -0.000641134 0)
(0.00315166 -0.000660806 0)
(0.0034127 -0.000674165 0)
(0.00367983 -0.000679762 0)
(0.00394981 -0.000676147 0)
(0.0042188 -0.00066191 0)
(0.00448235 -0.000635744 0)
(0.00473544 -0.00059651 0)
(0.00497259 -0.000543312 0)
(0.00518793 -0.000475583 0)
(0.00537539 -0.000393151 0)
(0.00552885 -0.000296313 0)
(0.00564239 -0.000185866 0)
(0.00571041 -6.31354e-05 0)
(0.00572797 7.00367e-05 0)
(0.00569089 0.000211336 0)
(0.00559602 0.000358005 0)
(0.00544142 0.000506946 0)
(0.00522649 0.000654799 0)
(0.00495207 0.000798066 0)
(0.00462045 0.000933243 0)
(0.00423543 0.00105696 0)
(0.00380214 0.0011661 0)
(0.003327 0.00125798 0)
(0.00281747 0.00133039 0)
(0.00228183 0.00138173 0)
(0.00172896 0.00141104 0)
(6.75598e-06 -9.30221e-05 0)
(4.40986e-05 -0.00019418 0)
(0.000100241 -0.000250918 0)
(0.000167095 -0.000284674 0)
(0.000239995 -0.000306285 0)
(0.000317137 -0.000321902 0)
(0.000398021 -0.000335262 0)
(0.000482803 -0.000348657 0)
(0.000572026 -0.000363506 0)
(0.000666489 -0.000380728 0)
(0.000767171 -0.000400947 0)
(0.000875187 -0.000424586 0)
(0.000991746 -0.000451898 0)
(0.00111812 -0.000482985 0)
(0.0012556 -0.000517794 0)
(0.00140547 -0.000556122 0)
(0.00156891 -0.000597604 0)
(0.00174701 -0.000641699 0)
(0.00194067 -0.000687681 0)
(0.00215056 -0.000734621 0)
(0.00237702 -0.000781384 0)
(0.00262003 -0.000826625 0)
(0.00287912 -0.000868798 0)
(0.00315331 -0.000906168 0)
(0.00344102 -0.000936834 0)
(0.00374003 -0.000958758 0)
(0.00404742 -0.000969815 0)
(0.00435958 -0.000967852 0)
(0.00467212 -0.000950769 0)
(0.00497994 -0.000916606 0)
(0.00527723 -0.000863658 0)
(0.00555756 -0.000790574 0)
(0.00581405 -0.000696479 0)
(0.00603948 -0.000581062 0)
(0.00622658 -0.000444669 0)
(0.00636819 -0.000288358 0)
(0.00645755 -0.000113938 0)
(0.00648859 7.60264e-05 0)
(0.00645613 0.000278237 0)
(0.00635618 0.00048876 0)
(0.00618618 0.000703098 0)
(0.00594512 0.000916343 0)
(0.00563378 0.00112336 0)
(0.0052547 0.00131898 0)
(0.00481223 0.00149828 0)
(0.00431241 0.00165668 0)
(0.00376284 0.00179024 0)
(0.0031724 0.00189572 0)
(0.00255101 0.00197074 0)
(0.00190926 0.00201386 0)
(6.85416e-06 -0.000116701 0)
(4.47605e-05 -0.00024309 0)
(0.000101658 -0.000313551 0)
(0.00016925 -0.000355262 0)
(0.00024274 -0.000382036 0)
(0.00032033 -0.000401687 0)
(0.000401612 -0.00041892 0)
(0.000486879 -0.000436596 0)
(0.000576844 -0.000456477 0)
(0.000672493 -0.000479704 0)
(0.000774998 -0.000507065 0)
(0.000885669 -0.000539111 0)
(0.00100591 -0.000576193 0)
(0.00113719 -0.000618469 0)
(0.001281 -0.000665892 0)
(0.00143883 -0.000718201 0)
(0.0016121 -0.000774911 0)
(0.00180214 -0.000835304 0)
(0.00201006 -0.000898418 0)
(0.00223674 -0.000963041 0)
(0.00248272 -0.0010277 0)
(0.00274814 -0.00109064 0)
(0.00303266 -0.00114983 0)
(0.00333536 -0.00120297 0)
(0.00365466 -0.0012475 0)
(0.00398826 -0.00128065 0)
(0.00433305 -0.0012995 0)
(0.00468508 -0.00130108 0)
(0.00503952 -0.00128247 0)
(0.00539064 -0.00124094 0)
(0.00573187 -0.0011741 0)
(0.00605588 -0.00108 0)
(0.00635473 -0.000957344 0)
(0.00662006 -0.000805584 0)
(0.00684335 -0.00062504 0)
(0.00701616 -0.000417 0)
(0.00713045 -0.000183788 0)
(0.00717887 7.12076e-05 0)
(0.00715511 0.00034356 0)
(0.00705419 0.000627919 0)
(0.00687277 0.000918133 0)
(0.00660938 0.00120746 0)
(0.00626464 0.00148883 0)
(0.00584132 0.00175514 0)
(0.00534437 0.00199953 0)
(0.00478078 0.00221571 0)
(0.00415939 0.00239815 0)
(0.0034906 0.00254236 0)
(0.00278606 0.00264501 0)
(0.00205822 0.00270407 0)
(6.88817e-06 -0.000140542 0)
(4.47641e-05 -0.00029221 0)
(0.000101349 -0.00037628 0)
(0.000168306 -0.000425726 0)
(0.000240794 -0.000457412 0)
(0.000317051 -0.000480904 0)
(0.000396763 -0.000501937 0)
(0.000480367 -0.000523974 0)
(0.000568745 -0.000549139 0)
(0.000663065 -0.000578811 0)
(0.000764683 -0.000613951 0)
(0.000875093 -0.000655249 0)
(0.000995892 -0.000703157 0)
(0.00112875 -0.000757886 0)
(0.0012754 -0.00081939 0)
(0.00143756 -0.00088735 0)
(0.00161691 -0.000961167 0)
(0.00181502 -0.00103996 0)
(0.00203326 -0.00112256 0)
(0.00227278 -0.00120746 0)
(0.00253436 -0.00129286 0)
(0.00281838 -0.00137655 0)
(0.00312473 -0.00145596 0)
(0.00345265 -0.00152814 0)
(0.00380069 -0.00158979 0)
(0.00416654 -0.00163729 0)
(0.00454702 -0.00166684 0)
(0.00493791 -0.00167452 0)
(0.005334 -0.00165645 0)
(0.00572896 -0.00160897 0)
(0.00611549 -0.00152883 0)
(0.00648532 -0.00141335 0)
(0.00682942 -0.00126064 0)
(0.00713823 -0.00106978 0)
(0.00740187 -0.000840971 0)
(0.00761048 -0.000575696 0)
(0.00775454 -0.00027683 0)
(0.00782525 5.13152e-05 0)
(0.00781493 0.000403041 0)
(0.00771742 0.00077136 0)
(0.00752846 0.00114822 0)
(0.00724601 0.00152474 0)
(0.00687047 0.00189159 0)
(0.00640482 0.00223934 0)
(0.00585462 0.00255885 0)
(0.0052279 0.00284168 0)
(0.00453487 0.00308045 0)
(0.00378764 0.00326913 0)
(0.00299977 0.00340324 0)
(0.00218579 0.00348007 0)
(6.85895e-06 -0.000164246 0)
(4.41751e-05 -0.000340763 0)
(9.95079e-05 -0.000437975 0)
(0.00016459 -0.000494665 0)
(0.000234603 -0.000530795 0)
(0.000307851 -0.000557741 0)
(0.000384132 -0.000582315 0)
(0.000464032 -0.000608613 0)
(0.000548605 -0.000639137 0)
(0.000639189 -0.000675515 0)
(0.00073732 -0.000718895 0)
(0.000844676 -0.000770107 0)
(0.000963053 -0.000829706 0)
(0.00109435 -0.000897956 0)
(0.00124053 -0.000974816 0)
(0.00140358 -0.00105992 0)
(0.00158546 -0.0011526 0)
(0.00178801 -0.00125184 0)
(0.00201291 -0.00135628 0)
(0.00226162 -0.00146416 0)
(0.00253525 -0.00157329 0)
(0.00283454 -0.001681 0)
(0.0031597 -0.00178413 0)
(0.00351025 -0.00187903 0)
(0.00388498 -0.00196155 0)
(0.00428169 -0.00202717 0)
(0.0046972 -0.00207106 0)
(0.00512715 -0.00208819 0)
(0.00556594 -0.00207358 0)
(0.00600674 -0.00202245 0)
(0.00644146 -0.00193046 0)
(0.00686089 -0.00179402 0)
(0.00725485 -0.00161044 0)
(0.00761243 -0.00137827 0)
(0.00792223 -0.0010975 0)
(0.00817275 -0.000769749 0)
(0.00835274 -0.000398463 0)
(0.0084517 1.1062e-05 0)
(0.00846033 0.000451715 0)
(0.00837107 0.000914686 0)
(0.00817853 0.00138973 0)
(0.00787993 0.00186551 0)
(0.00747536 0.00232996 0)
(0.00696796 0.00277087 0)
(0.00636397 0.00317636 0)
(0.00567257 0.00353541 0)
(0.00490558 0.00383842 0)
(0.00407703 0.00407751 0)
(0.00320275 0.0042469 0)
(0.00229965 0.00434311 0)
(6.76124e-06 -0.000187527 0)
(4.30142e-05 -0.000388038 0)
(9.62297e-05 -0.000497597 0)
(0.000158276 -0.000560773 0)
(0.000224416 -0.000600648 0)
(0.000293045 -0.000630459 0)
(0.000364096 -0.00065813 0)
(0.000438315 -0.000688412 0)
(0.000516924 -0.000724199 0)
(0.000601433 -0.000767378 0)
(0.000693552 -0.000819283 0)
(0.000795148 -0.000880889 0)
(0.000908231 -0.000952852 0)
(0.00103493 -0.0010355 0)
(0.00117748 -0.00112882 0)
(0.00133812 -0.00123245 0)
(0.00151911 -0.00134568 0)
(0.00172261 -0.00146741 0)
(0.00195067 -0.0015961 0)
(0.00220512 -0.00172976 0)
(0.00248755 -0.00186581 0)
(0.00279912 -0.00200109 0)
(0.0031405 -0.00213183 0)
(0.00351163 -0.00225361 0)
(0.00391161 -0.00236142 0)
(0.00433854 -0.00244969 0)
(0.00478931 -0.00251242 0)
(0.00525949 -0.00254333 0)
(0.00574322 -0.00253609 0)
(0.00623314 -0.00248456 0)
(0.00672041 -0.00238312 0)
(0.00719481 -0.00222696 0)
(0.00764487 -0.00201241 0)
(0.00805816 -0.00173731 0)
(0.00842155 -0.00140129 0)
(0.00872162 -0.00100604 0)
(0.00894512 -0.000555506 0)
(0.00907954 -5.59821e-05 0)
(0.00911364 0.000483887 0)
(0.00903814 0.00105324 0)
(0.00884627 0.00163931 0)
(0.00853423 0.00222779 0)
(0.00810167 0.00280342 0)
(0.00755186 0.0033506 0)
(0.00689179 0.00385417 0)
(0.00613199 0.00430005 0)
(0.00528618 0.00467594 0)
(0.00437074 0.00497185 0)
(0.0034041 0.00518047 0)
(0.00240604 0.00529745 0)
(6.59553e-06 -0.000210103 0)
(4.13095e-05 -0.000433362 0)
(9.15953e-05 -0.000554162 0)
(0.000149505 -0.000622798 0)
(0.000210428 -0.000665493 0)
(0.000272886 -0.000697377 0)
(0.000336962 -0.000727517 0)
(0.000403574 -0.000761335 0)
(0.000474114 -0.000802125 0)
(0.000550263 -0.000852028 0)
(0.00063391 -0.000912567 0)
(0.000727121 -0.000984856 0)
(0.000832123 -0.00106966 0)
(0.000951286 -0.00116741 0)
(0.00108709 -0.00127815 0)
(0.00124206 -0.00140158 0)
(0.00141878 -0.001537 0)
(0.00161978 -0.00168326 0)
(0.00184754 -0.00183869 0)
(0.00210441 -0.00200105 0)
(0.00239249 -0.00216741 0)
(0.00271355 -0.00233415 0)
(0.00306879 -0.00249685 0)
(0.00345871 -0.00265034 0)
(0.00388293 -0.00278862 0)
(0.00433991 -0.00290497 0)
(0.00482679 -0.00299208 0)
(0.0053392 -0.00304217 0)
(0.00587107 -0.00304733 0)
(0.00641457 -0.00299979 0)
(0.00696005 -0.00289232 0)
(0.0074962 -0.00271864 0)
(0.00801012 -0.00247386 0)
(0.00848764 -0.00215489 0)
(0.00891365 -0.00176078 0)
(0.00927254 -0.0012931 0)
(0.00954871 -0.000756201 0)
(0.00972727 -0.000157373 0)
(0.00979463 0.000493084 0)
(0.00973936 0.00118198 0)
(0.00955288 0.00189357 0)
(0.00923011 0.00261007 0)
(0.00877003 0.00331235 0)
(0.00817602 0.0039808 0)
(0.00745593 0.00459627 0)
(0.00662192 0.00514101 0)
(0.00569002 0.00559954 0)
(0.00467939 0.00595936 0)
(0.00361163 0.00621139 0)
(0.00250991 0.00635028 0)
(6.37155e-06 -0.000231704 0)
(3.91132e-05 -0.000476092 0)
(8.57016e-05 -0.000606725 0)
(0.000138425 -0.000679538 0)
(0.000192843 -0.000723904 0)
(0.000247631 -0.000756873 0)
(0.000303045 -0.000788678 0)
(0.000360179 -0.000825417 0)
(0.0004206 -0.000870779 0)
(0.000486167 -0.000927154 0)
(0.000558955 -0.00099624 0)
(0.000641225 -0.0010793 0)
(0.000735415 -0.00117724 0)
(0.00084412 -0.00129061 0)
(0.000970068 -0.00141961 0)
(0.00111609 -0.00156403 0)
(0.00128511 -0.00172323 0)
(0.00148012 -0.00189604 0)
(0.00170411 -0.00208072 0)
(0.00196001 -0.00227482 0)
(0.00225058 -0.00247512 0)
(0.00257826 -0.00267757 0)
(0.00294499 -0.00287715 0)
(0.00335198 -0.00306786 0)
(0.00379951 -0.00324268 0)
(0.00428662 -0.00339361 0)
(0.00481087 -0.0035118 0)
(0.00536807 -0.00358774 0)
(0.00595205 -0.00361162 0)
(0.00655452 -0.00357371 0)
(0.007165 -0.00346485 0)
(0.00777094 -0.00327701 0)
(0.00835785 -0.00300372 0)
(0.00890964 -0.00264067 0)
(0.00940894 -0.00218604 0)
(0.00983765 -0.00164105 0)
(0.0101774 -0.00101026 0)
(0.0104105 -0.000301954 0)
(0.0105204 0.000471762 0)
(0.010493 0.00129506 0)
(0.0103174 0.00214874 0)
(0.00998685 0.0030109 0)
(0.00949941 0.00385779 0)
(0.00885848 0.00466493 0)
(0.00807294 0.0054084 0)
(0.00715689 0.00606602 0)
(0.00612917 0.00661843 0)
(0.00501237 0.00705013 0)
(0.00383185 0.00734999 0)
(0.00261487 0.00751153 0)
(6.1046e-06 -0.000252097 0)
(3.64941e-05 -0.000515624 0)
(7.866e-05 -0.000654381 0)
(0.000125197 -0.000729843 0)
(0.000171875 -0.000774519 0)
(0.000217559 -0.0008074 0)
(0.000262686 -0.000839892 0)
(0.000308537 -0.000878766 0)
(0.000356865 -0.00092809 0)
(0.000409708 -0.000990484 0)
(0.00046932 -0.00106782 0)
(0.000538147 -0.00116154 0)
(0.000618814 -0.00127271 0)
(0.000714124 -0.00140208 0)
(0.000827055 -0.00155003 0)
(0.000960763 -0.00171649 0)
(0.00111858 -0.00190094 0)
(0.00130398 -0.00210226 0)
(0.00152056 -0.00231868 0)
(0.00177193 -0.00254766 0)
(0.00206158 -0.00278579 0)
(0.0023928 -0.00302862 0)
(0.00276839 -0.00327059 0)
(0.00319049 -0.00350485 0)
(0.00366027 -0.00372327 0)
(0.00417758 -0.00391642 0)
(0.00474059 -0.00407369 0)
(0.00534547 -0.00418354 0)
(0.00598604 -0.00423393 0)
(0.00665358 -0.0042128 0)
(0.00733672 -0.00410868 0)
(0.00802155 -0.00391135 0)
(0.00869185 -0.0036124 0)
(0.00932939 -0.00320588 0)
(0.00991433 -0.00268878 0)
(0.0104257 -0.00206164 0)
(0.0108419 -0.00132906 0)
(0.0111418 -0.000500236 0)
(0.0113053 0.00041083 0)
(0.0113149 0.00138538 0)
(0.0111568 0.00240023 0)
(0.010822 0.0034286 0)
(0.0103073 0.00444119 0)
(0.00961602 0.00540764 0)
(0.0087582 0.00629814 0)
(0.00775027 0.00708508 0)
(0.00661449 0.00774444 0)
(0.00537766 0.00825704 0)
(0.00406974 0.00860937 0)
(0.0027229 0.00879385 0)
(5.80861e-06 -0.000271091 0)
(3.3517e-05 -0.000551396 0)
(7.05801e-05 -0.000696269 0)
(0.000109982 -0.000772616 0)
(0.000147749 -0.000816047 0)
(0.000182961 -0.000847491 0)
(0.000216256 -0.000879522 0)
(0.000249112 -0.000919566 0)
(0.000283466 -0.000972042 0)
(0.000321534 -0.00103979 0)
(0.000365728 -0.00112487 0)
(0.000418644 -0.00122891 0)
(0.000483068 -0.00135322 0)
(0.000562002 -0.00149878 0)
(0.000658685 -0.00166616 0)
(0.00077662 -0.00185552 0)
(0.00091958 -0.00206651 0)
(0.00109159 -0.00229815 0)
(0.00129687 -0.00254878 0)
(0.00153978 -0.00281589 0)
(0.00182471 -0.00309596 0)
(0.00215589 -0.00338427 0)
(0.00253724 -0.00367474 0)
(0.00297204 -0.0039597 0)
(0.00346261 -0.00422983 0)
(0.00400988 -0.0044741 0)
(0.0046129 -0.0046799 0)
(0.00526837 -0.00483335 0)
(0.00597024 -0.00491978 0)
(0.00670937 -0.00492433 0)
(0.00747346 -0.00483273 0)
(0.00824716 -0.00463207 0)
(0.00901234 -0.00431154 0)
(0.00974845 -0.00386315 0)
(0.0104329 -0.00328229 0)
(0.0110415 -0.00256848 0)
(0.011549 -0.00172605 0)
(0.01193 -0.00076487 0)
(0.0121603 0.000299165 0)
(0.0122181 0.00144415 0)
(0.0120858 0.00264228 0)
(0.0117513 0.00386103 0)
(0.0112098 0.00506436 0)
(0.0104642 0.00621464 0)
(0.00952596 0.0072748 0)
(0.00841421 0.00821052 0)
(0.00715542 0.00899204 0)
(0.00578161 0.00959584 0)
(0.00432849 0.0100057 0)
(0.00283415 0.0102128 0)
(5.49126e-06 -0.000288528 0)
(3.02261e-05 -0.000582886 0)
(6.15544e-05 -0.000731576 0)
(9.29312e-05 -0.000806829 0)
(0.000120686 -0.000847279 0)
(0.000144152 -0.000875773 0)
(0.000164178 -0.000906019 0)
(0.000182442 -0.000946074 0)
(0.000201064 -0.00100068 0)
(0.000222407 -0.00107291 0)
(0.000249003 -0.001165 0)
(0.000283566 -0.00127883 0)
(0.000329023 -0.00141595 0)
(0.000388568 -0.00157761 0)
(0.000465712 -0.00176465 0)
(0.000564315 -0.0019775 0)
(0.0006886 -0.00221607 0)
(0.00084315 -0.00247968 0)
(0.00103287 -0.00276689 0)
(0.00126295 -0.00307539 0)
(0.00153875 -0.0034017 0)
(0.00186569 -0.00374095 0)
(0.00224899 -0.00408662 0)
(0.00269335 -0.00443025 0)
(0.00320257 -0.00476126 0)
(0.00377895 -0.0050669 0)
(0.00442272 -0.00533232 0)
(0.00513136 -0.00554094 0)
(0.00589909 -0.00567491 0)
(0.00671644 -0.00571601 0)
(0.00757015 -0.00564653 0)
(0.00844328 -0.00545033 0)
(0.00931561 -0.00511374 0)
(0.0101641 -0.00462633 0)
(0.0109632 -0.00398151 0)
(0.0116853 -0.00317723 0)
(0.0123009 -0.00221702 0)
(0.0127799 -0.00111097 0)
(0.0130928 0.000123316 0)
(0.0132124 0.00146054 0)
(0.0131163 0.00286766 0)
(0.0127885 0.00430528 0)
(0.0122213 0.00572913 0)
(0.0114173 0.00709254 0)
(0.0103891 0.00834937 0)
(0.00915936 0.00945694 0)
(0.00775974 0.0103786 0)
(0.00622873 0.0110855 0)
(0.0046092 0.0115582 0)
(0.00294644 0.011787 0)
(5.15391e-06 -0.000304268 0)
(2.66391e-05 -0.000609612 0)
(5.16502e-05 -0.000759554 0)
(7.41827e-05 -0.000831542 0)
(9.09234e-05 -0.000867108 0)
(0.000101488 -0.00089097 0)
(0.000106952 -0.00091793 0)
(0.000109176 -0.000956641 0)
(0.000110442 -0.00101217 0)
(0.000113215 -0.00108777 0)
(0.000120109 -0.00118593 0)
(0.000133927 -0.00130876 0)
(0.000157717 -0.00145809 0)
(0.000194866 -0.00163545 0)
(0.000249144 -0.00184203 0)
(0.000324746 -0.0020786 0)
(0.000426335 -0.00234549 0)
(0.000559047 -0.00264244 0)
(0.0007285 -0.00296844 0)
(0.000940784 -0.00332153 0)
(0.00120238 -0.00369845 0)
(0.00152006 -0.00409435 0)
(0.00190058 -0.00450239 0)
(0.00235039 -0.0049134 0)
(0.00287508 -0.00531557 0)
(0.00347869 -0.00569431 0)
(0.00416298 -0.0060323 0)
(0.00492658 -0.00630971 0)
(0.00576421 -0.00650495 0)
(0.00666619 -0.00659561 0)
(0.00761818 -0.00655983 0)
(0.00860143 -0.00637768 0)
(0.0095934 -0.00603226 0)
(0.0105684 -0.00551037 0)
(0.0114981 -0.0048029 0)
(0.0123512 -0.00390555 0)
(0.0130938 -0.00282015 0)
(0.0136904 -0.00155631 0)
(0.0141049 -0.000132943 0)
(0.0143035 0.00142114 0)
(0.0142571 0.00306702 0)
(0.0139444 0.00475703 0)
(0.0133541 0.00643683 0)
(0.0124874 0.00804848 0)
(0.0113586 0.00953439 0)
(0.00999449 0.0108415 0)
(0.00843319 0.0119244 0)
(0.00672124 0.0127482 0)
(0.00491033 0.0132898 0)
(0.0030546 0.0135381 0)
(4.79268e-06 -0.000318156 0)
(2.27519e-05 -0.000631129 0)
(4.09149e-05 -0.000779537 0)
(5.38775e-05 -0.000845922 0)
(5.8732e-05 -0.000874548 0)
(5.54002e-05 -0.00089191 0)
(4.51825e-05 -0.00091391 0)
(3.0088e-05 -0.000949745 0)
(1.25214e-05 -0.00100477 0)
(-4.98863e-06 -0.00108246 0)
(-1.97861e-05 -0.0011855 0)
(-2.90078e-05 -0.00131626 0)
(-2.94937e-05 -0.00147684 0)
(-1.76972e-05 -0.00166912 0)
(1.03738e-05 -0.00189469 0)
(5.92099e-05 -0.00215481 0)
(0.000133868 -0.00245036 0)
(0.000240023 -0.00278168 0)
(0.000384026 -0.00314838 0)
(0.000572931 -0.00354903 0)
(0.000814462 -0.00398083 0)
(0.00111689 -0.00443915 0)
(0.00148879 -0.00491704 0)
(0.00193861 -0.00540481 0)
(0.00247412 -0.00588952 0)
(0.00310155 -0.00635468 0)
(0.00382468 -0.00678013 0)
(0.00464374 -0.00714226 0)
(0.00555433 -0.00741485 0)
(0.00654662 -0.00757041 0)
(0.00760495 -0.00758209 0)
(0.00870837 -0.00742557 0)
(0.00983177 -0.00708047 0)
(0.010947 -0.00653063 0)
(0.0120232 -0.0057639 0)
(0.0130259 -0.0047727 0)
(0.0139166 -0.00355598 0)
(0.0146533 -0.00212171 0)
(0.0151922 -0.000489303 0)
(0.0154909 0.00130901 0)
(0.0155118 0.0032278 0)
(0.0152261 0.00520961 0)
(0.0146173 0.00718766 0)
(0.0136843 0.00908984 0)
(0.0124431 0.0108441 0)
(0.0109259 0.0123839 0)
(0.00917879 0.0136535 0)
(0.00725827 0.0146102 0)
(0.005227 0.0152267 0)
(0.00314989 0.0154912 0)
(4.39812e-06 -0.000330013 0)
(1.85474e-05 -0.00064704 0)
(2.93904e-05 -0.000790976 0)
(3.21754e-05 -0.000849235 0)
(2.44703e-05 -0.000868717 0)
(6.43388e-06 -0.000877588 0)
(-2.04147e-05 -0.000892803 0)
(-5.39068e-05 -0.000924062 0)
(-9.15939e-05 -0.000976988 0)
(-0.000130929 -0.00105525 0)
(-0.000169237 -0.00116172 0)
(-0.000203615 -0.00129899 0)
(-0.000230828 -0.00146948 0)
(-0.000247224 -0.00167545 0)
(-0.000248661 -0.00191901 0)
(-0.000230422 -0.00220203 0)
(-0.000187114 -0.00252609 0)
(-0.000112549 -0.00289231 0)
(3.59468e-07 -0.00330112 0)
(0.000159678 -0.00375188 0)
(0.000374443 -0.00424247 0)
(0.000654568 -0.00476878 0)
(0.00101061 -0.00532413 0)
(0.00145332 -0.00589857 0)
(0.00199305 -0.00647822 0)
(0.00263877 -0.00704465 0)
(0.00339696 -0.00757451 0)
(0.00427008 -0.0080397 0)
(0.00525503 -0.00840834 0)
(0.00634183 -0.00864671 0)
(0.00751317 -0.00872187 0)
(0.00874523 -0.00860453 0)
(0.01001 -0.00827081 0)
(0.0112774 -0.00770175 0)
(0.0125149 -0.00688188 0)
(0.013686 -0.00579906 0)
(0.0147475 -0.00444745 0)
(0.0156502 -0.00283156 0)
(0.0163409 -0.000969923 0)
(0.0167662 0.00110241 0)
(0.0168773 0.00333303 0)
(0.0166351 0.00565294 0)
(0.0160155 0.00797999 0)
(0.0150141 0.010224 0)
(0.0136482 0.0122942 0)
(0.0119567 0.0141071 0)
(0.0099959 0.0155933 0)
(0.00783505 0.0167014 0)
(0.00555023 0.0173996 0)
(0.00321945 0.0176753 0)
(3.95764e-06 -0.000339646 0)
(1.40094e-05 -0.000657001 0)
(1.7181e-05 -0.000793406 0)
(9.34578e-06 -0.000840913 0)
(-1.14632e-05 -0.000848919 0)
(-4.47963e-05 -0.000847205 0)
(-8.89704e-05 -0.000853661 0)
(-0.000141726 -0.000878493 0)
(-0.000200605 -0.000927548 0)
(-0.000263069 -0.00100463 0)
(-0.000326452 -0.00111277 0)
(-0.000387849 -0.00125477 0)
(-0.000444013 -0.00143339 0)
(-0.000491269 -0.00165137 0)
(-0.000525414 -0.00191139 0)
(-0.00054159 -0.00221609 0)
(-0.00053413 -0.00256791 0)
(-0.000496384 -0.00296892 0)
(-0.000420558 -0.00342055 0)
(-0.000297597 -0.00392323 0)
(-0.000117141 -0.00447587 0)
(0.000132421 -0.00507531 0)
(0.000463746 -0.00571555 0)
(0.000890156 -0.00638682 0)
(0.00142503 -0.00707459 0)
(0.0020808 -0.00775849 0)
(0.00286741 -0.00841169 0)
(0.00379037 -0.00900082 0)
(0.00484843 -0.00948715 0)
(0.00603158 -0.00982906 0)
(0.00732024 -0.00998598 0)
(0.00868668 -0.00992285 0)
(0.0100993 -0.009613 0)
(0.0115268 -0.00903589 0)
(0.0129376 -0.00817292 0)
(0.0142946 -0.00700551 0)
(0.0155509 -0.00552011 0)
(0.0166491 -0.00371471 0)
(0.0175245 -0.00160469 0)
(0.0181098 0.000773336 0)
(0.0183412 0.00335981 0)
(0.0181656 0.0060723 0)
(0.0175479 0.00880947 0)
(0.016478 0.0114579 0)
(0.0149747 0.0139022 0)
(0.013085 0.0160369 0)
(0.010879 0.0177756 0)
(0.00844175 0.0190564 0)
(0.00586611 0.0198428 0)
(0.00324573 0.0201227 0)
(3.46955e-06 -0.000346874 0)
(9.17734e-06 -0.000660747 0)
(4.41232e-06 -0.000786486 0)
(-1.43186e-05 -0.000820575 0)
(-4.85354e-05 -0.00081469 0)
(-9.7523e-05 -0.000800166 0)
(-0.00015948 -0.0007958 0)
(-0.000232108 -0.000812229 0)
(-0.000312962 -0.000855458 0)
(-0.000399541 -0.000929362 0)
(-0.000489226 -0.00103708 0)
(-0.000579171 -0.00118165 0)
(-0.000666209 -0.00136619 0)
(-0.000746739 -0.00159397 0)
(-0.000816594 -0.0018684 0)
(-0.000870866 -0.00219294 0)
(-0.00090369 -0.00257102 0)
(-0.000908029 -0.00300584 0)
(-0.000875465 -0.00350007 0)
(-0.000796043 -0.0040555 0)
(-0.000658185 -0.00467249 0)
(-0.000448671 -0.00534935 0)
(-0.000152709 -0.00608131 0)
(0.000245832 -0.00685935 0)
(0.000763869 -0.00766863 0)
(0.00141794 -0.00848714 0)
(0.00222243 -0.00928443 0)
(0.00318691 -0.0100212 0)
(0.00431292 -0.0106501 0)
(0.00559077 -0.0111193 0)
(0.0069978 -0.0113782 0)
(0.00850022 -0.0113847 0)
(0.0100614 -0.0111118 0)
(0.0116502 -0.0105403 0)
(0.01324 -0.00965 0)
(0.0147975 -0.00841262 0)
(0.0162731 -0.00680207 0)
(0.0176004 -0.00480513 0)
(0.0187002 -0.00243044 0)
(0.0194877 0.000285938 0)
(0.0198792 0.00327753 0)
(0.0198023 0.00644654 0)
(0.0192059 0.00966773 0)
(0.0180711 0.0127972 0)
(0.0164174 0.0156872 0)
(0.014303 0.0182027 0)
(0.0118158 0.0202362 0)
(0.00906198 0.0217137 0)
(0.00615468 0.022595 0)
(0.00320598 0.0228696 0)
(2.93774e-06 -0.000351549 0)
(4.14163e-06 -0.000658107 0)
(-8.7017e-06 -0.000770067 0)
(-3.84271e-05 -0.000788007 0)
(-8.6115e-05 -0.000765771 0)
(-0.000150863 -0.000736174 0)
(-0.000230787 -0.000718853 0)
(-0.000323578 -0.000724784 0)
(-0.00042683 -0.000760044 0)
(-0.000538112 -0.000828512 0)
(-0.000654911 -0.000933411 0)
(-0.000774531 -0.001078 0)
(-0.00089398 -0.00126581 0)
(-0.00100984 -0.00150072 0)
(-0.00111807 -0.00178687 0)
(-0.00121381 -0.00212868 0)
(-0.00129108 -0.00253068 0)
(-0.00134257 -0.00299732 0)
(-0.0013594 -0.00353277 0)
(-0.00133092 -0.00414053 0)
(-0.00124456 -0.00482289 0)
(-0.00108567 -0.00558017 0)
(-0.000837375 -0.00640945 0)
(-0.000480657 -0.00730306 0)
(5.2057e-06 -0.00824667 0)
(0.000641522 -0.00921721 0)
(0.00144808 -0.0101808 0)
(0.00243999 -0.0110916 0)
(0.00362321 -0.0118918 0)
(0.00498932 -0.0125155 0)
(0.00651153 -0.0128978 0)
(0.00814584 -0.0129882 0)
(0.00984723 -0.0127638 0)
(0.0115871 -0.0122142 0)
(0.0133516 -0.0113205 0)
(0.0151188 -0.0100393 0)
(0.0168383 -0.00832377 0)
(0.0184325 -0.00614242 0)
(0.0198046 -0.0034923 0)
(0.0208473 -0.000405697 0)
(0.0214513 0.00304511 0)
(0.0215173 0.00674542 0)
(0.0209711 0.0105404 0)
(0.0197797 0.0142459 0)
(0.0179628 0.0176697 0)
(0.0155936 0.0206377 0)
(0.012785 0.0230154 0)
(0.0096707 0.0247161 0)
(0.00638883 0.0256976 0)
(0.00307226 0.0259541 0)
(2.38052e-06 -0.00035354 0)
(-9.96661e-07 -0.000649046 0)
(-2.18981e-05 -0.000744146 0)
(-6.24835e-05 -0.000743211 0)
(-0.000123476 -0.000702182 0)
(-0.000203816 -0.000655255 0)
(-0.000301565 -0.000622802 0)
(-0.000414427 -0.000616034 0)
(-0.000540064 -0.000641007 0)
(-0.00067617 -0.000701545 0)
(-0.000820419 -0.000800929 0)
(-0.000970359 -0.000942652 0)
(-0.00112328 -0.00113068 0)
(-0.00127603 -0.0013695 0)
(-0.0014248 -0.00166409 0)
(-0.00156485 -0.00201983 0)
(-0.0016902 -0.00244242 0)