/*--------------------------------*- C++ -*----------------------------------*\
| =========                 |                                                 |
| \\      /  F ield         | OpenFOAM: The Open Source CFD Toolbox           |
|  \\    /   O peration     | Version:  2.4.0                                 |
|   \\  /    A nd           | Web:      www.OpenFOAM.org                      |
|    \\/     M anipulation  |                                                 |
\*---------------------------------------------------------------------------*/
FoamFile
{
    version     2.0;
    format      ascii;
    class       volVectorField;
    location    "0.116";
    object      U;
}
// * * * * * * * * * * * * * * * * * * * * * * * * * * * * * * * * * * * * * //

dimensions      [0 1 -1 0 0 0 0];

internalField   nonuniform List<vector> 
10000
(
(1.96091e-06 -1.99448e-06 0)
(8.42664e-06 -2.47982e-06 0)
(1.41195e-05 -1.99832e-06 0)
(1.66592e-05 -1.01162e-06 0)
(1.46117e-05 5.77899e-08 0)
(8.02055e-06 1.00812e-06 0)
(-2.45862e-06 1.76109e-06 0)
(-1.59038e-05 2.29078e-06 0)
(-3.13338e-05 2.60428e-06 0)
(-4.77912e-05 2.72273e-06 0)
(-6.43864e-05 2.67076e-06 0)
(-8.03114e-05 2.47162e-06 0)
(-9.4843e-05 2.14538e-06 0)
(-0.000107341 1.70901e-06 0)
(-0.000117245 1.17855e-06 0)
(-0.000124074 5.73739e-07 0)
(-0.000127414 -7.76599e-08 0)
(-0.000126879 -7.64478e-07 0)
(-0.000122248 -1.55166e-06 0)
(-0.000113403 -2.36202e-06 0)
(-0.000100223 -3.16744e-06 0)
(-8.27104e-05 -3.96135e-06 0)
(-6.09605e-05 -4.73085e-06 0)
(-3.5155e-05 -5.45746e-06 0)
(-5.57156e-06 -6.11808e-06 0)
(2.7398e-05 -6.68468e-06 0)
(6.32288e-05 -7.12431e-06 0)
(0.000101233 -7.40423e-06 0)
(0.000140551 -7.48467e-06 0)
(0.00018016 -7.33101e-06 0)
(0.000218912 -6.92116e-06 0)
(0.000255603 -6.25336e-06 0)
(0.000289058 -5.34989e-06 0)
(0.000318217 -4.252e-06 0)
(0.000342179 -3.00778e-06 0)
(0.000360214 -1.65929e-06 0)
(0.000371734 -2.34669e-07 0)
(0.00037625 1.25146e-06 0)
(0.000373322 2.79206e-06 0)
(0.000362547 4.39396e-06 0)
(0.000343562 6.04583e-06 0)
(0.000316063 7.73318e-06 0)
(0.000279852 9.43444e-06 0)
(0.000234883 1.11206e-05 0)
(0.00018129 1.27559e-05 0)
(0.000119416 1.42991e-05 0)
(4.98224e-05 1.57064e-05 0)
(-2.67124e-05 1.69337e-05 0)
(-0.000109197 1.79407e-05 0)
(-0.000196448 1.86942e-05 0)
(2.61478e-06 -8.66036e-06 0)
(1.15622e-05 -1.11846e-05 0)
(1.67628e-05 -7.01294e-06 0)
(1.37269e-05 8.18436e-07 0)
(-5.03323e-08 9.65005e-06 0)
(-2.44653e-05 1.78041e-05 0)
(-5.80736e-05 2.44497e-05 0)
(-9.87771e-05 2.92541e-05 0)
(-0.000144225 3.21602e-05 0)
(-0.000192043 3.32479e-05 0)
(-0.000239956 3.26584e-05 0)
(-0.000285851 3.05538e-05 0)
(-0.000327811 2.70986e-05 0)
(-0.00036412 2.2453e-05 0)
(-0.000393271 1.67742e-05 0)
(-0.000413966 1.02214e-05 0)
(-0.000425122 2.95894e-06 0)
(-0.0004259 -4.85741e-06 0)
(-0.00041564 -1.31396e-05 0)
(-0.000393897 -2.16622e-05 0)
(-0.000360504 -3.02503e-05 0)
(-0.000315498 -3.8741e-05 0)
(-0.000259129 -4.69645e-05 0)
(-0.00019187 -5.47368e-05 0)
(-0.000114435 -6.1851e-05 0)
(-2.7816e-05 -6.80671e-05 0)
(6.66584e-05 -7.31055e-05 0)
(0.000167273 -7.66562e-05 0)
(0.00027189 -7.83865e-05 0)
(0.000377955 -7.79993e-05 0)
(0.000482569 -7.52975e-05 0)
(0.000582649 -7.02408e-05 0)
(0.000675139 -6.29651e-05 0)
(0.000757216 -5.37434e-05 0)
(0.000826415 -4.29049e-05 0)
(0.000880658 -3.0752e-05 0)
(0.0009182 -1.751e-05 0)
(0.000937528 -3.32149e-06 0)
(0.000937288 1.17234e-05 0)
(0.00091623 2.75492e-05 0)
(0.000873236 4.40466e-05 0)
(0.000807407 6.1042e-05 0)
(0.000718144 7.82881e-05 0)
(0.000605257 9.54651e-05 0)
(0.000469051 0.000112192 0)
(0.000310396 0.000128047 0)
(0.000130758 0.000142588 0)
(-6.77963e-05 0.000155388 0)
(-0.000282616 0.000166048 0)
(-0.000510528 0.000174229 0)
(2.25587e-06 -1.48447e-05 0)
(7.76683e-06 -1.64126e-05 0)
(5.12073e-06 -4.23942e-06 0)
(-1.02861e-05 1.55204e-05 0)
(-4.08861e-05 3.7318e-05 0)
(-8.62594e-05 5.74782e-05 0)
(-0.000144388 7.40028e-05 0)
(-0.000212359 8.59913e-05 0)
(-0.000286865 9.31873e-05 0)
(-0.0003645 9.56907e-05 0)
(-0.000441947 9.37834e-05 0)
(-0.000516076 8.78317e-05 0)
(-0.000584007 7.8235e-05 0)
(-0.000643138 6.54045e-05 0)
(-0.000691167 4.9756e-05 0)
(-0.000726102 3.17104e-05 0)
(-0.000746283 1.16954e-05 0)
(-0.000750404 -9.85484e-06 0)
(-0.000737476 -3.24821e-05 0)
(-0.000706862 -5.57434e-05 0)
(-0.000658309 -7.91886e-05 0)
(-0.00059189 -0.000102364 0)
(-0.000508006 -0.00012481 0)
(-0.000407385 -0.000146044 0)
(-0.000291103 -0.000165536 0)
(-0.000160629 -0.000182676 0)
(-1.78979e-05 -0.000196745 0)
(0.000134584 -0.000206924 0)
(0.000293674 -0.000212346 0)
(0.000455576 -0.000212218 0)
(0.000615919 -0.000205991 0)
(0.000770004 -0.000193514 0)
(0.000913135 -0.000175081 0)
(0.00104096 -0.000151335 0)
(0.00114967 -0.000123064 0)
(0.00123603 -9.10011e-05 0)
(0.00129725 -5.5707e-05 0)
(0.0013309 -1.7555e-05 0)
(0.00133469 2.31973e-05 0)
(0.00130651 6.62921e-05 0)
(0.00124448 0.000111401 0)
(0.00114701 0.000158021 0)
(0.00101302 0.000205446 0)
(0.00084208 0.000252773 0)
(0.000634578 0.00029893 0)
(0.0003918 0.000342732 0)
(0.000116008 0.000382954 0)
(-0.00018956 0.000418398 0)
(-0.00052072 0.000447962 0)
(-0.00087246 0.000470698 0)
(1.34328e-06 -1.80415e-05 0)
(1.14347e-07 -1.36361e-05 0)
(-1.46412e-05 1.11363e-05 0)
(-4.65142e-05 4.70671e-05 0)
(-9.71955e-05 8.56981e-05 0)
(-0.000165684 0.000121209 0)
(-0.000249371 0.000150293 0)
(-0.000344683 0.000171352 0)
(-0.000447583 0.000183843 0)
(-0.000553893 0.000187839 0)
(-0.000659502 0.000183759 0)
(-0.000760494 0.000172197 0)
(-0.000853224 0.000153839 0)
(-0.000934375 0.000129416 0)
(-0.00100099 9.96896e-05 0)
(-0.00105049 6.54454e-05 0)
(-0.00108074 2.74944e-05 0)
(-0.00109003 -1.33247e-05 0)
(-0.00107711 -5.61595e-05 0)
(-0.00104119 -0.000100145 0)
(-0.000981955 -0.000144426 0)
(-0.000899531 -0.000188154 0)
(-0.000794455 -0.000230482 0)
(-0.000667661 -0.000270549 0)
(-0.000520486 -0.000307415 0)
(-0.000354713 -0.000339999 0)
(-0.000172676 -0.000367003 0)
(2.25946e-05 -0.000386911 0)
(0.0002272 -0.000398081 0)
(0.000436297 -0.000398975 0)
(0.000644185 -0.000388491 0)
(0.000844624 -0.000366273 0)
(0.00103137 -0.000332828 0)
(0.00119869 -0.000289329 0)
(0.00134165 -0.000237218 0)
(0.00145612 -0.000177818 0)
(0.00153852 -0.000112112 0)
(0.0015856 -4.07428e-05 0)
(0.00159425 3.58481e-05 0)
(0.00156149 0.000117212 0)
(0.00148453 0.000202711 0)
(0.00136101 0.000291369 0)
(0.00118919 0.000381809 0)
(0.000968278 0.000472257 0)
(0.000698557 0.00056061 0)
(0.000381608 0.00064455 0)
(2.03773e-05 0.000721677 0)
(-0.000380809 0.000789653 0)
(-0.000816315 0.000846331 0)
(-0.00127937 0.000889867 0)
(2.85344e-07 -1.67397e-05 0)
(-8.89816e-06 8.41844e-09 0)
(-3.74584e-05 4.218e-05 0)
(-8.75162e-05 9.80612e-05 0)
(-0.000159586 0.000156523 0)
(-0.000251891 0.00020973 0)
(-0.000361179 0.000253099 0)
(-0.000483269 0.000284317 0)
(-0.000613521 0.000302526 0)
(-0.000747144 0.00030775 0)
(-0.000879407 0.000300536 0)
(-0.00100577 0.000281715 0)
(-0.001122 0.000252287 0)
(-0.00122417 0.000213346 0)
(-0.00130881 0.000166059 0)
(-0.00137286 0.00011165 0)
(-0.00141376 5.13982e-05 0)
(-0.00142952 -1.33644e-05 0)
(-0.00141864 -8.12385e-05 0)
(-0.00138022 -0.000150872 0)
(-0.00131395 -0.000220895 0)
(-0.00122001 -0.000289978 0)
(-0.00109908 -0.000356838 0)
(-0.000952239 -0.000420194 0)
(-0.000780964 -0.000478681 0)
(-0.00058716 -0.000530705 0)
(-0.000373286 -0.000574304 0)
(-0.000142601 -0.000607088 0)
(0.000100523 -0.000626364 0)
(0.000350373 -0.000629517 0)
(0.000599936 -0.000614595 0)
(0.000841356 -0.000580915 0)
(0.00106677 -0.000529298 0)
(0.00126914 -0.000461716 0)
(0.00144266 -0.000380545 0)
(0.00158262 -0.000287874 0)
(0.00168498 -0.000185146 0)
(0.00174591 -7.32044e-05 0)
(0.00176153 4.74255e-05 0)
(0.00172792 0.000176169 0)
(0.00164128 0.00031208 0)
(0.0014982 0.000453608 0)
(0.00129611 0.000598502 0)
(0.00103355 0.000743831 0)
(0.000710527 0.00088611 0)
(0.00032874 0.00102149 0)
(-0.000108312 0.00114599 0)
(-0.000595304 0.00125574 0)
(-0.0011252 0.00134719 0)
(-0.00168947 0.00141729 0)
(-7.10225e-07 -1.06996e-05 0)
(-1.78523e-05 2.51737e-05 0)
(-6.03721e-05 8.965e-05 0)
(-0.000128738 0.000169098 0)
(-0.000222152 0.000250037 0)
(-0.000337941 0.000322829 0)
(-0.000472162 0.000381737 0)
(-0.000620046 0.000423795 0)
(-0.000776413 0.000447847 0)
(-0.00093596 0.000453875 0)
(-0.00109345 0.00044255 0)
(-0.00124385 0.000414949 0)
(-0.00138241 0.000372398 0)
(-0.00150477 0.000316384 0)
(-0.00160697 0.00024852 0)
(-0.00168557 0.000170528 0)
(-0.00173768 8.42343e-05 0)
(-0.001761 -8.44305e-06 0)
(-0.0017539 -0.000105487 0)
(-0.00171544 -0.000204924 0)
(-0.0016453 -0.000304791 0)
(-0.0015438 -0.00040322 0)
(-0.00141173 -0.000498468 0)
(-0.0012503 -0.000588871 0)
(-0.00106101 -0.00067269 0)
(-0.00084564 -0.000747874 0)
(-0.000606439 -0.000811769 0)
(-0.000346498 -0.000860944 0)
(-7.0293e-05 -0.000891299 0)
(0.000215782 -0.000898639 0)
(0.000503311 -0.000879694 0)
(0.000782521 -0.000833258 0)
(0.00104365 -0.000760679 0)
(0.00127835 -0.000665211 0)
(0.00148025 -0.000550631 0)
(0.00164457 -0.000420016 0)
(0.00176724 -0.00027522 0)
(0.0018441 -0.000117069 0)
(0.00187058 5.40903e-05 0)
(0.00184166 0.00023777 0)
(0.00175226 0.000432784 0)
(0.00159766 0.000636951 0)
(0.00137403 0.000846955 0)
(0.00107897 0.0010584 0)
(0.000711924 0.00126603 0)
(0.000274492 0.00146401 0)
(-0.000229418 0.00164634 0)
(-0.000793557 0.00180715 0)
(-0.00140951 0.00194109 0)
(-0.00206695 0.00204358 0)
(-1.59274e-06 -2.04129e-07 0)
(-2.61539e-05 6.14227e-05 0)
(-8.19866e-05 0.000153116 0)
(-0.000167955 0.000259699 0)
(-0.000281948 0.000365641 0)
(-0.000420361 0.000459731 0)
(-0.000578543 0.000535241 0)
(-0.000751141 0.00058865 0)
(-0.000932478 0.000618561 0)
(-0.0011168 0.000624939 0)
(-0.00129844 0.00060859 0)
(-0.00147193 0.000570844 0)
(-0.00163214 0.000513364 0)
(-0.00177427 0.000438048 0)
(-0.001894 0.000346987 0)
(-0.00198753 0.000242451 0)
(-0.00205167 0.000126883 0)
(-0.00208389 2.87969e-06 0)
(-0.00208244 -0.000126864 0)
(-0.00204636 -0.000259611 0)
(-0.00197542 -0.000392719 0)
(-0.00187011 -0.000523743 0)
(-0.00173143 -0.000650501 0)
(-0.00156069 -0.000771042 0)
(-0.0013593 -0.000883429 0)
(-0.00112866 -0.000985333 0)
(-0.000870365 -0.0010735 0)
(-0.000586759 -0.0011433 0)
(-0.000281901 -0.00118874 0)
(3.7415e-05 -0.00120327 0)
(0.000361149 -0.00118149 0)
(0.000676934 -0.00112132 0)
(0.000972497 -0.00102508 0)
(0.00123809 -0.000898181 0)
(0.00146727 -0.000746584 0)
(0.00165597 -0.00057465 0)
(0.00180068 -0.000384437 0)
(0.00189728 -0.000176282 0)
(0.00194043 5.01394e-05 0)
(0.0019238 0.000294789 0)
(0.00184058 0.000556432 0)
(0.00168425 0.000832237 0)
(0.00144929 0.00111762 0)
(0.00113194 0.00140638 0)
(0.000730719 0.00169101 0)
(0.00024689 0.00196321 0)
(-0.000315386 0.00221436 0)
(-0.000949 0.0024361 0)
(-0.00164411 0.0026208 0)
(-0.0023885 0.00276196 0)
(-2.35763e-06 1.42977e-05 0)
(-3.36508e-05 0.000107956 0)
(-0.000101867 0.000231649 0)
(-0.00020441 0.000368893 0)
(-0.000337945 0.00050234 0)
(-0.000497962 0.000619418 0)
(-0.000679111 0.000712571 0)
(-0.000875477 0.000777842 0)
(-0.00108091 0.000813665 0)
(-0.00128925 0.000820026 0)
(-0.00149444 0.000797892 0)
(-0.00169068 0.00074885 0)
(-0.00187243 0.00067491 0)
(-0.00203456 0.000578389 0)
(-0.0021724 0.000461881 0)
(-0.00228181 0.000328241 0)
(-0.00235932 0.000180589 0)
(-0.00240219 2.22822e-05 0)
(-0.00240857 -0.000143152 0)
(-0.00237752 -0.00031214 0)
(-0.00230897 -0.000481251 0)
(-0.00220371 -0.000647405 0)
(-0.00206303 -0.000808031 0)
(-0.00188844 -0.000961076 0)
(-0.00168118 -0.00110473 0)
(-0.00144201 -0.00123677 0)
(-0.00117127 -0.00135363 0)
(-0.000869753 -0.00144941 0)
(-0.000540222 -0.00151557 0)
(-0.000189407 -0.00154194 0)
(0.000170623 -0.00151953 0)
(0.000523661 -0.00144481 0)
(0.000853711 -0.00132183 0)
(0.00114943 -0.00115985 0)
(0.00140522 -0.000968317 0)
(0.00161896 -0.000753248 0)
(0.0017887 -0.000516359 0)
(0.00191061 -0.000256621 0)
(0.00197843 2.77997e-05 0)
(0.00198399 0.000337871 0)
(0.00191818 0.000672609 0)
(0.001772 0.00102853 0)
(0.00153767 0.00139956 0)
(0.00120951 0.00177724 0)
(0.000784748 0.0021513 0)
(0.000263992 0.00251029 0)
(-0.000348488 0.00284234 0)
(-0.00104475 0.00313596 0)
(-0.00181342 0.00338066 0)
(-0.00264022 0.00356758 0)
(-3.02276e-06 3.2374e-05 0)
(-4.04139e-05 0.000163923 0)
(-0.000120097 0.000324219 0)
(-0.000238186 0.000495602 0)
(-0.000390246 0.000659087 0)
(-0.000570925 0.00080091 0)
(-0.000774216 0.000912841 0)
(-0.000993671 0.000990601 0)
(-0.0012227 0.00103254 0)
(-0.00145477 0.0010387 0)
(-0.00168348 0.00101025 0)
(-0.0019027 0.000949036 0)
(-0.00210657 0.000857414 0)
(-0.00228962 0.000738129 0)
(-0.00244684 0.000594284 0)
(-0.00257376 0.000429353 0)
(-0.00266662 0.000247185 0)
(-0.00272245 5.19909e-05 0)
(-0.00273929 -0.000151738 0)
(-0.00271625 -0.000359437 0)
(-0.00265354 -0.000566746 0)
(-0.00255236 -0.00076986 0)
(-0.00241452 -0.000965871 0)
(-0.00224191 -0.0011529 0)
(-0.0020357 -0.00132977 0)
(-0.00179574 -0.0014951 0)
(-0.00152042 -0.00164562 0)
(-0.00120774 -0.00177432 0)
(-0.000857759 -0.00186927 0)
(-0.000476177 -0.00191465 0)
(-7.77085e-05 -0.00189527 0)
(0.000315301 -0.00180493 0)
(0.000680881 -0.00165094 0)
(0.00100585 -0.00144953 0)
(0.00128714 -0.0012159 0)
(0.00152679 -0.000958002 0)
(0.00172573 -0.000675997 0)
(0.00188061 -0.000365917 0)
(0.00198372 -2.31202e-05 0)
(0.00202421 0.00035517 0)
(0.00198974 0.000768554 0)
(0.00186805 0.00121287 0)
(0.00164832 0.00168022 0)
(0.00132237 0.00215939 0)
(0.000885634 0.00263661 0)
(0.000337783 0.0030965 0)
(-0.000316961 0.00352316 0)
(-0.00106979 0.00390116 0)
(-0.00190767 0.00421648 0)
(-0.00281391 0.00445733 0)
(-3.61434e-06 5.36712e-05 0)
(-4.66113e-05 0.000228594 0)
(-0.00013701 0.000429913 0)
(-0.000269789 0.000638875 0)
(-0.000439543 0.000834983 0)
(-0.000640161 0.00100343 0)
(-0.000865038 0.00113544 0)
(-0.00110723 0.00122652 0)
(-0.00135977 0.001275 0)
(-0.00161575 0.00128105 0)
(-0.00186849 0.00124605 0)
(-0.00211155 0.00117212 0)
(-0.00233877 0.00106196 0)
(-0.00254436 0.000918717 0)
(-0.00272296 0.000746011 0)
(-0.00286975 0.000547943 0)
(-0.00298061 0.000329143 0)
(-0.00305233 9.47723e-05 0)
(-0.00308277 -0.00014957 0)
(-0.0030711 -0.000398112 0)
(-0.00301787 -0.000645337 0)
(-0.00292492 -0.000886547 0)
(-0.00279491 -0.0011185 0)
(-0.00263051 -0.0013398 0)
(-0.00243313 -0.0015507 0)
(-0.00220164 -0.00175179 0)
(-0.00193167 -0.0019414 0)
(-0.00161671 -0.00211201 0)
(-0.00125167 -0.00224746 0)
(-0.000839267 -0.00232304 0)
(-0.000397635 -0.00231244 0)
(4.06092e-05 -0.0022044 0)
(0.000443407 -0.00201247 0)
(0.00079547 -0.00176572 0)
(0.00109966 -0.00148883 0)
(0.00136589 -0.00119167 0)
(0.00159977 -0.000870128 0)
(0.00179813 -0.000514612 0)
(0.00195058 -0.000115791 0)
(0.0020422 0.000331837 0)
(0.00205627 0.000828741 0)
(0.0019762 0.00136993 0)
(0.00178732 0.00194522 0)
(0.00147828 0.00253993 0)
(0.0010422 0.00313594 0)
(0.00047749 0.00371302 0)
(-0.000211796 0.00425018 0)
(-0.00101593 0.00472711 0)
(-0.00191992 0.00512544 0)
(-0.00290431 0.00542972 0)
(-4.15874e-06 7.79378e-05 0)
(-5.24341e-05 0.000301427 0)
(-0.000153017 0.000548041 0)
(-0.000299877 0.000797991 0)
(-0.00048675 0.00102939 0)
(-0.000706855 0.00122649 0)
(-0.000953058 0.00138008 0)
(-0.00121799 0.00148554 0)
(-0.00149431 0.00154129 0)
(-0.00177483 0.00154766 0)
(-0.0020526 0.00150624 0)
(-0.00232091 0.00141945 0)
(-0.00257332 0.00129029 0)
(-0.00280373 0.00112232 0)
(-0.00300641 0.000919608 0)
(-0.00317614 0.000686892 0)
(-0.00330839 0.000429611 0)
(-0.00339955 0.000153964 0)
(-0.00344725 -0.000133159 0)
(-0.00345065 -0.000424504 0)
(-0.00341068 -0.000713048 0)
(-0.00333003 -0.000992865 0)
(-0.0032127 -0.00126022 0)
(-0.00306282 -0.0015145 0)
(-0.00288279 -0.00175835 0)
(-0.00267087 -0.0019962 0)
(-0.00241919 -0.00223023 0)
(-0.00211446 -0.00245414 0)
(-0.00174252 -0.00264704 0)
(-0.00129893 -0.00277057 0)
(-0.000805813 -0.00277783 0)
(-0.000313526 -0.00264763 0)
(0.000128255 -0.00240554 0)
(0.000502279 -0.00210468 0)
(0.000823927 -0.00178532 0)
(0.00111734 -0.00145783 0)
(0.00139466 -0.00110818 0)
(0.00165131 -0.000716811 0)
(0.00187179 -0.000267288 0)
(0.00203508 0.000249341 0)
(0.00211857 0.00083442 0)
(0.00210031 0.00148172 0)
(0.0019609 0.00217811 0)
(0.00168514 0.00290457 0)
(0.00126334 0.00363759 0)
(0.000692293 0.00435089 0)
(-2.42075e-05 0.00501722 0)
(-0.000875383 0.0056102 0)
(-0.00184394 0.00610603 0)
(-0.00290706 0.00648487 0)
(-4.67982e-06 0.000105024 0)
(-5.80575e-05 0.000382081 0)
(-0.000168504 0.000678155 0)
(-0.00032908 0.000972496 0)
(-0.000532753 0.00124192 0)
(-0.000772156 0.00146986 0)
(-0.0010397 0.00164676 0)
(-0.00132764 0.00176798 0)
(-0.00162835 0.00183205 0)
(-0.00193439 0.00183954 0)
(-0.00223859 0.00179227 0)
(-0.00253402 0.00169292 0)
(-0.00281398 0.00154478 0)
(-0.00307207 0.00135175 0)
(-0.00330218 0.00111832 0)
(-0.00349862 0.000849797 0)
(-0.00365635 0.00055242 0)
(-0.00377122 0.000233503 0)
(-0.0038404 -9.85957e-05 0)
(-0.0038629 -0.00043478 0)
(-0.00383993 -0.00076601 0)
(-0.00377524 -0.00108453 0)
(-0.00367469 -0.00138564 0)
(-0.003545 -0.00166953 0)
(-0.00339098 -0.00194234 0)
(-0.00321144 -0.00221493 0)
(-0.00299494 -0.00249729 0)
(-0.00271872 -0.00278806 0)
(-0.00235351 -0.00306278 0)
(-0.00187928 -0.00326283 0)
(-0.00132145 -0.00330269 0)
(-0.000761241 -0.00314109 0)
(-0.000279678 -0.00282688 0)
(0.000105487 -0.00245883 0)
(0.000435137 -0.00210185 0)
(0.000757666 -0.00176211 0)
(0.00109247 -0.0014041 0)
(0.00142902 -0.000992003 0)
(0.00174244 -0.000499755 0)
(0.0020029 8.48218e-05 0)
(0.00218058 0.000763313 0)
(0.00224726 0.00152749 0)
(0.00217811 0.0023604 0)
(0.00195345 0.00323768 0)
(0.00156025 0.00412921 0)
(0.000993369 0.00500125 0)
(0.000256222 0.0058188 0)
(-0.00063916 0.00654802 0)
(-0.00167268 0.00715844 0)
(-0.00281739 0.0076248 0)
(-5.19734e-06 0.000134869 0)
(-6.36218e-05 0.000470383 0)
(-0.000183784 0.000820022 0)
(-0.000357911 0.00116217 0)
(-0.000578271 0.00147245 0)
(-0.000836985 0.00173357 0)
(-0.00112608 0.00193575 0)
(-0.00143752 0.00207438 0)
(-0.00176344 0.0021482 0)
(-0.00209622 0.00215803 0)
(-0.00242853 0.00210593 0)
(-0.00275327 0.00199485 0)
(-0.00306354 0.0018283 0)
(-0.00335266 0.00161042 0)
(-0.00361412 0.00134605 0)
(-0.00384173 0.00104096 0)
(-0.00402978 0.000702125 0)
(-0.00417337 0.000337967 0)
(-0.00426894 -4.15197e-05 0)
(-0.00431494 -0.000425004 0)
(-0.00431262 -0.000800729 0)
(-0.00426673 -0.00115813 0)
(-0.00418556 -0.00149049 0)
(-0.00407977 -0.00179822 0)
(-0.003959 -0.00209172 0)
(-0.00382537 -0.00239165 0)
(-0.00366512 -0.00272207 0)
(-0.00344398 -0.00309385 0)
(-0.00310928 -0.00348429 0)
(-0.00260912 -0.00380747 0)
(-0.0019675 -0.00390473 0)
(-0.00131878 -0.0036939 0)
(-0.000799804 -0.00326865 0)
(-0.000423767 -0.00281446 0)
(-9.92895e-05 -0.00243344 0)
(0.000260252 -0.00211519 0)
(0.000677459 -0.00177979 0)
(0.00112588 -0.0013675 0)
(0.00156472 -0.0008415 0)
(0.00195282 -0.000189144 0)
(0.00225275 0.000589814 0)
(0.00242971 0.0014841 0)
(0.0024531 0.002472 0)
(0.00229821 0.00352273 0)
(0.00194813 0.00459821 0)
(0.00139535 0.00565568 0)
(0.000642818 0.00665062 0)
(-0.000295918 0.00753999 0)
(-0.00139731 0.00828511 0)
(-0.00262935 0.00885411 0)
(-5.72584e-06 0.00016748 0)
(-6.92245e-05 0.000566293 0)
(-0.000199068 0.000973571 0)
(-0.000386714 0.00136695 0)
(-0.000623776 0.001721 0)
(-0.000901934 0.00201781 0)
(-0.0012129 0.00224745 0)
(-0.00154842 0.00240546 0)
(-0.00190045 0.00249084 0)
(-0.0022613 0.00250467 0)
(-0.00262353 0.0024493 0)
(-0.00297996 0.00232787 0)
(-0.00332356 0.00214408 0)
(-0.00364739 0.00190221 0)
(-0.00394461 0.0016073 0)
(-0.00420846 0.0012654 0)
(-0.00443245 0.000884064 0)
(-0.00461069 0.00047271 0)
(-0.00473842 4.30229e-05 0)
(-0.00481299 -0.000391076 0)
(-0.00483499 -0.000814272 0)
(-0.00480968 -0.00121177 0)
(-0.00474794 -0.00157292 0)
(-0.00466583 -0.00189652 0)
(-0.00458132 -0.00219685 0)
(-0.00450492 -0.00250799 0)
(-0.00442452 -0.00287709 0)
(-0.00429487 -0.00333996 0)
(-0.00403133 -0.00389029 0)
(-0.00352137 -0.00441281 0)
(-0.00277346 -0.00461138 0)
(-0.0020099 -0.00431847 0)
(-0.0014642 -0.00371482 0)
(-0.00113084 -0.00314767 0)
(-0.000822048 -0.00277611 0)
(-0.00039989 -0.00254014 0)
(0.000144283 -0.00227095 0)
(0.000750498 -0.00188107 0)
(0.00135444 -0.0013271 0)
(0.00190371 -0.00060365 0)
(0.00235522 0.000286134 0)
(0.00266837 0.00132706 0)
(0.00280682 0.00249202 0)
(0.00274031 0.00374293 0)
(0.0024473 0.00503245 0)
(0.00191733 0.00630696 0)
(0.00115266 0.00751034 0)
(0.000168702 0.0085882 0)
(-0.00100681 0.00949169 0)
(-0.00233558 0.0101808 0)
(-6.27451e-06 0.000202914 0)
(-7.49195e-05 0.000669844 0)
(-0.000214462 0.00113881 0)
(-0.000415645 0.00158686 0)
(-0.000669457 0.00198767 0)
(-0.0009672 0.00232281 0)
(-0.00130034 0.00258232 0)
(-0.00166047 0.00276198 0)
(-0.0020395 0.00286109 0)
(-0.00242968 0.00288106 0)
(-0.00282362 0.00282451 0)
(-0.00321412 0.00269476 0)
(-0.00359412 0.0024956 0)
(-0.00395655 0.00223136 0)
(-0.00429425 0.00190706 0)
(-0.00459994 0.00152883 0)
(-0.00486628 0.00110445 0)
(-0.00508613 0.000644084 0)
(-0.00525305 0.000160912 0)
(-0.0053624 -0.000328402 0)
(-0.00541295 -0.000804182 0)
(-0.00540915 -0.00124563 0)
(-0.00536355 -0.00163517 0)
(-0.00529846 -0.00196608 0)
(-0.00524448 -0.00225344 0)
(-0.00522846 -0.00254736 0)
(-0.0052472 -0.00292954 0)
(-0.0052512 -0.00347841 0)
(-0.0051222 -0.00423735 0)
(-0.00464395 -0.00508282 0)
(-0.00377837 -0.00546278 0)
(-0.00288098 -0.00502823 0)
(-0.0023404 -0.00412871 0)
(-0.0020973 -0.00341746 0)
(-0.00178783 -0.00314556 0)
(-0.00123176 -0.00308929 0)
(-0.00048429 -0.00293555 0)
(0.000339111 -0.00258121 0)
(0.00114911 -0.00199446 0)
(0.00189056 -0.0011904 0)
(0.00252026 -0.000175154 0)
(0.0029934 0.0010324 0)
(0.00326792 0.00240011 0)
(0.00330721 0.00388229 0)
(0.00308388 0.0054211 0)
(0.00258348 0.00694998 0)
(0.00180715 0.00839861 0)
(0.000772413 0.00969846 0)
(-0.000487797 0.0107881 0)
(-0.00192739 0.0116174 0)
(-6.84761e-06 0.00024125 0)
(-8.07181e-05 0.000781091 0)
(-0.000229969 0.00131577 0)
(-0.000444668 0.00182194 0)
(-0.000715208 0.00227253 0)
(-0.00103257 0.00264876 0)
(-0.00138806 0.00294075 0)
(-0.00177318 0.00314458 0)
(-0.00217987 0.00325997 0)
(-0.00260046 0.00328867 0)
(-0.00302768 0.0032336 0)
(-0.00345444 0.00309821 0)
(-0.00387375 0.00288636 0)
(-0.00427855 0.00260225 0)
(-0.00466153 0.00225069 0)
(-0.00501499 0.00183756 0)
(-0.00533078 0.00137046 0)
(-0.00560036 0.000859725 0)
(-0.00581515 0.000319507 0)
(-0.00596749 -0.000231135 0)
(-0.00605256 -0.00076779 0)
(-0.00607143 -0.00126192 0)
(-0.00603561 -0.00168508 0)
(-0.0059722 -0.00201831 0)
(-0.00592874 -0.00226927 0)
(-0.00595866 -0.00250423 0)
(-0.00607495 -0.00285232 0)
(-0.00623938 -0.00344544 0)
(-0.00632518 -0.0044349 0)
(-0.00596855 -0.00578986 0)
(-0.00502763 -0.00649466 0)
(-0.00402821 -0.00581511 0)
(-0.00358078 -0.00442644 0)
(-0.00348078 -0.00358033 0)
(-0.00304961 -0.00365628 0)
(-0.00218104 -0.00387343 0)
(-0.00112261 -0.00385696 0)
(-2.78489e-05 -0.00351786 0)
(0.00101405 -0.0028764 0)
(0.00196661 -0.00197552 0)
(0.00279255 -0.000817011 0)
(0.00344398 0.000579291 0)
(0.00387234 0.00217805 0)
(0.00403282 0.00392657 0)
(0.00388991 0.00575545 0)
(0.00342332 0.0075826 0)
(0.00263215 0.00932 0)
(0.00153631 0.0108814 0)
(0.000175248 0.0121895 0)
(-0.00139523 0.0131818 0)
(-7.44525e-06 0.000282567 0)
(-8.65909e-05 0.000900053 0)
(-0.000245483 0.00150439 0)
(-0.000473553 0.00207209 0)
(-0.000760629 0.00257551 0)
(-0.00109744 0.00299567 0)
(-0.00147517 0.00332289 0)
(-0.00188536 0.00355368 0)
(-0.00232005 0.00368822 0)
(-0.00277176 0.00372869 0)
(-0.00323341 0.00367829 0)
(-0.00369817 0.00354064 0)
(-0.00415928 0.00331958 0)
(-0.00460985 0.00301909 0)
(-0.0050426 0.00264357 0)
(-0.00544969 0.00219828 0)
(-0.00582237 0.00169012 0)
(-0.00615081 0.00112879 0)
(-0.00642408 0.000528353 0)
(-0.00663061 -9.0888e-05 0)
(-0.00675986 -0.00070049 0)
(-0.00680571 -0.00126338 0)
(-0.00677287 -0.00173626 0)
(-0.00668737 -0.00207825 0)
(-0.00661659 -0.00227302 0)
(-0.00665299 -0.00240102 0)
(-0.00681739 -0.0026584 0)
(-0.0070866 -0.00320471 0)
(-0.00742098 -0.00432849 0)
(-0.00733461 -0.00641327 0)
(-0.00658376 -0.00757112 0)
(-0.00573195 -0.00658278 0)
(-0.0055859 -0.0043668 0)
(-0.00547641 -0.00387366 0)
(-0.00443269 -0.00464468 0)
(-0.0029931 -0.00506231 0)
(-0.00157162 -0.00509872 0)
(-0.000221625 -0.00471214 0)
(0.00103882 -0.00398521 0)
(0.00219926 -0.00297034 0)
(0.00322523 -0.00165265 0)
(0.00406495 -4.73469e-05 0)
(0.00466092 0.00181081 0)
(0.00495612 0.00386383 0)
(0.00490271 0.0060294 0)
(0.00447145 0.00820629 0)
(0.00365795 0.010284 0)
(0.00248475 0.0121537 0)
(0.000999545 0.013718 0)
(-0.000729466 0.0148987 0)
(-8.06383e-06 0.000326917 0)
(-9.2469e-05 0.00102666 0)
(-0.000260802 0.00170449 0)
(-0.000501895 0.00233704 0)
(-0.000805047 0.0028963 0)
(-0.0011608 0.00336325 0)
(-0.00156031 0.00372858 0)
(-0.00199523 0.0039893 0)
(-0.00245778 0.00414616 0)
(-0.00294075 0.00420181 0)
(-0.00343741 0.00415979 0)
(-0.00394126 0.0040239 0)
(-0.00444591 0.00379793 0)
(-0.00494484 0.00348558 0)
(-0.00543109 0.00309068 0)
(-0.00589696 0.00261758 0)
(-0.00633357 0.00207193 0)
(-0.00673033 0.00146186 0)
(-0.00707435 0.000799777 0)
(-0.00735001 0.000104987 0)
(-0.00753937 -0.000592659 0)
(-0.00762463 -0.00124917 0)
(-0.00759473 -0.00180437 0)
(-0.00746128 -0.00218434 0)
(-0.00731342 -0.00231855 0)
(-0.00730576 -0.00230075 0)
(-0.0074232 -0.00245271 0)
(-0.00754594 -0.00290272 0)
(-0.00778619 -0.00387306 0)
(-0.00807625 -0.00646401 0)
(-0.00837238 -0.00785369 0)
(-0.00864549 -0.00683745 0)
(-0.00851778 -0.00453533 0)
(-0.00708918 -0.00537526 0)
(-0.00497 -0.0062908 0)
(-0.00322223 -0.00667524 0)
(-0.00160247 -0.00661179 0)
(-9.96688e-05 -0.00611802 0)
(0.00131975 -0.00529438 0)
(0.00265542 -0.00416235 0)
(0.00386868 -0.00268193 0)
(0.00489953 -0.000856205 0)
(0.00567511 0.00128612 0)
(0.00611862 0.0036837 0)
(0.00616355 0.00623896 0)
(0.00576698 0.0088263 0)
(0.00491882 0.0113059 0)
(0.00364474 0.0135394 0)
(0.00200316 0.0154035 0)
(7.85267e-05 0.0168008 0)
(-8.69566e-06 0.000374302 0)
(-9.82446e-05 0.00116073 0)
(-0.00027563 0.00191567 0)
(-0.000529118 0.00261623 0)
(-0.000847541 0.00323425 0)
(-0.00122133 0.00375085 0)
(-0.00164169 0.00415719 0)
(-0.00210044 0.00445096 0)
(-0.00259011 0.00463352 0)
(-0.00310384 0.00470809 0)
(-0.0036353 0.00467859 0)
(-0.00417845 0.00454901 0)
(-0.00472738 0.00432311 0)
(-0.00527608 0.00400433 0)
(-0.00581812 0.00359586 0)
(-0.00634633 0.00310102 0)
(-0.00685229 0.00252384 0)
(-0.00732562 0.00187007 0)
(-0.00775285 0.00114874 0)
(-0.00811576 0.000374933 0)
(-0.00838944 -0.000425328 0)
(-0.00854122 -0.00120735 0)
(-0.00853323 -0.00189765 0)
(-0.00833932 -0.00237893 0)
(-0.00807657 -0.00246766 0)
(-0.00801219 -0.00227586 0)
(-0.00802311 -0.00244467 0)
(-0.00773745 -0.00300952 0)
(-0.00687296 -0.00413414 0)
(-0.00626694 -0.00619554 0)
(-0.00678896 -0.00712344 0)
(-0.00727 -0.00672417 0)
(-0.00706835 -0.00499909 0)
(-0.00606767 -0.00739284 0)
(-0.00435939 -0.0081793 0)
(-0.00266182 -0.00839667 0)
(-0.00110197 -0.00820824 0)
(0.000413531 -0.00762769 0)
(0.00190911 -0.00673703 0)
(0.00337054 -0.0055178 0)
(0.00475287 -0.00389551 0)
(0.00597901 -0.00185392 0)
(0.00695069 0.0005909 0)
(0.00756092 0.00337456 0)
(0.00771597 0.00638049 0)
(0.00735262 0.00945115 0)
(0.00645234 0.0124072 0)
(0.00504514 0.015071 0)
(0.00320407 0.0172861 0)
(0.00103507 0.0189309 0)
(-9.3281e-06 0.000424657 0)
(-0.000103773 0.00130188 0)
(-0.000289583 0.00213727 0)
(-0.000554505 0.00290878 0)
(-0.000886975 0.0035883 0)
(-0.00127739 0.00415729 0)
(-0.0017171 0.00460755 0)
(-0.0021982 0.00493754 0)
(-0.00271355 0.00514935 0)
(-0.00325675 0.0052468 0)
(-0.00382193 0.00523424 0)
(-0.00440358 0.0051159 0)
(-0.00499632 0.00489556 0)
(-0.00559468 0.00457639 0)
(-0.00619283 0.00416105 0)
(-0.00678435 0.00365193 0)
(-0.00736182 0.0030515 0)
(-0.00791621 0.00236295 0)
(-0.00843576 0.00159091 0)
(-0.00890355 0.000743106 0)
(-0.00929287 -0.000165586 0)
(-0.00955879 -0.00110263 0)
(-0.00962443 -0.00199907 0)
(-0.00938103 -0.0026926 0)
(-0.00898877 -0.00275112 0)
(-0.0089772 -0.00225199 0)
(-0.0090146 -0.00272353 0)
(-0.00825617 -0.00388782 0)
(-0.00681547 -0.00550728 0)
(-0.00568422 -0.0065194 0)
(-0.00531874 -0.00672754 0)
(-0.00522985 -0.00675849 0)
(-0.00434342 -0.00583823 0)
(-0.00321746 -0.00836294 0)
(-0.00248529 -0.00947205 0)
(-0.00141809 -0.00977959 0)
(-0.000150395 -0.00963243 0)
(0.00124739 -0.00911763 0)
(0.00276278 -0.00824802 0)
(0.00432684 -0.00700682 0)
(0.00587589 -0.00529018 0)
(0.00731492 -0.00305496 0)
(0.00851276 -0.000296583 0)
(0.00932094 0.0029177 0)
(0.00960559 0.0064477 0)
(0.00927462 0.0100919 0)
(0.00829891 0.0136165 0)
(0.00671567 0.0167916 0)
(0.00461858 0.0194179 0)
(0.00214234 0.0213439 0)
(-9.94314e-06 0.000477829 0)
(-0.000108878 0.00144955 0)
(-0.000302209 0.00236834 0)
(-0.000577216 0.00321339 0)
(-0.000922034 0.00395691 0)
(-0.00132713 0.00458086 0)
(-0.00178406 0.00507786 0)
(-0.0022853 0.00544725 0)
(-0.00282414 0.00569193 0)
(-0.0033947 0.00581635 0)
(-0.00399164 0.00582534 0)
(-0.00460996 0.00572336 0)
(-0.00524477 0.00551421 0)
(-0.00589106 0.00520086 0)
(-0.00654343 0.00478555 0)
(-0.00719601 0.00427002 0)
(-0.00784229 0.00365579 0)
(-0.00847517 0.00294449 0)
(-0.00908674 0.00213765 0)
(-0.00966739 0.00123582 0)
(-0.0102023 0.000238163 0)
(-0.0106589 -0.000850075 0)
(-0.0109335 -0.0020136 0)
(-0.0107437 -0.00311232 0)
(-0.0102987 -0.00307526 0)
(-0.0106522 -0.0016826 0)
(-0.0112309 -0.00280266 0)
(-0.0106051 -0.00510974 0)
(-0.0093957 -0.0068313 0)
(-0.00834954 -0.00743302 0)
(-0.00728356 -0.00748017 0)
(-0.00605713 -0.00754463 0)
(-0.00431942 -0.00758217 0)
(-0.00262261 -0.00923153 0)
(-0.00146084 -0.0104066 0)
(-0.00032049 -0.0109193 0)
(0.000901418 -0.0108927 0)
(0.00226112 -0.0105643 0)
(0.00380342 -0.00981718 0)
(0.00547759 -0.00863039 0)
(0.00721388 -0.00688411 0)
(0.00890486 -0.00449295 0)
(0.0103811 -0.00141604 0)
(0.011437 0.00228144 0)
(0.0118813 0.00642878 0)
(0.0115832 0.0107617 0)
(0.0105013 0.0149713 0)
(0.00868546 0.0187573 0)
(0.00625929 0.0218657 0)
(0.00339616 0.0241094 0)
(-1.05181e-05 0.000533563 0)
(-0.000113357 0.00160294 0)
(-0.000312997 0.00260756 0)