/*--------------------------------*- C++ -*----------------------------------*\
| =========                 |                                                 |
| \\      /  F ield         | OpenFOAM: The Open Source CFD Toolbox           |
|  \\    /   O peration     | Version:  2.4.0                                 |
|   \\  /    A nd           | Web:      www.OpenFOAM.org                      |
|    \\/     M anipulation  |                                                 |
\*---------------------------------------------------------------------------*/
FoamFile
{
    version     2.0;
    format      ascii;
    class       volScalarField;
    location    "0.174";
    object      p_rgh;
}
// * * * * * * * * * * * * * * * * * * * * * * * * * * * * * * * * * * * * * //

dimensions      [1 -1 -2 0 0 0 0];

internalField   nonuniform List<scalar> 
14400
(
97.825
95.6021
93.2605
90.4463
87.9509
87.4095
89.2087
92.3954
95.7596
98.3119
99.7797
100.309
100.192
99.6996
99.0329
98.3233
97.6464
97.0423
96.5259
96.0981
95.753
95.4806
95.27
95.1106
94.9927
94.9079
94.8492
94.8109
94.7883
94.7776
97.8337
95.5933
93.2578
90.4413
87.9382
87.3943
89.2012
92.3988
95.7774
98.3334
99.7957
100.319
100.196
99.7007
99.0313
98.3196
97.6412
97.0356
96.5184
96.0898
95.7446
95.4723
95.2618
95.1026
94.9847
94.9001
94.8417
94.8036
94.7812
94.7706
97.8542
95.5799
93.2559
90.4334
87.9073
87.3481
89.1634
92.3826
95.7948
98.373
99.8414
100.356
100.221
99.715
99.0369
98.3183
97.6344
97.0239
96.5034
96.072
95.7255
95.4522
95.2412
95.0816
94.9638
94.8793
94.8211
94.7833
94.7611
94.7507
97.8869
95.5614
93.254
90.4224
87.8591
87.2734
89.0994
92.3506
95.8161
98.4316
99.9178
100.422
100.268
99.744
99.0506
98.3199
97.6257
97.0069
96.4802
96.045
95.6951
95.4198
95.2076
95.0475
94.9294
94.845
94.7869
94.7493
94.7274
94.7173
97.9325
95.5377
93.252
90.4077
87.7934
87.1702
89.0101
92.3041
95.8428
98.5091
100.021
100.514
100.336
99.7878
99.0738
98.3246
97.6154
96.9852
96.4496
96.0082
95.6538
95.3755
95.1615
95.0003
94.8817
94.7971
94.7391
94.7016
94.6799
94.67
97.9912
95.5083
93.2503
90.3892
87.7099
87.0376
88.8953
92.2424
95.8752
98.6058
100.149
100.631
100.424
99.8454
99.1047
98.3322
97.6038
96.9586
96.4115
95.9618
95.6015
95.3193
95.1028
94.9401
94.8208
94.7358
94.6777
94.6403
94.6188
94.6092
98.0635
95.4725
93.249
90.3665
87.6082
86.8747
88.7543
92.1643
95.9133
98.7221
100.304
100.772
100.531
99.9163
99.1432
98.3425
97.5907
96.9271
96.3658
95.9057
95.5381
95.2509
95.0312
94.8666
94.7462
94.6607
94.6025
94.5653
94.544
94.5348
98.1502
95.4293
93.2485
90.3393
87.488
86.6802
88.5865
92.068
95.9574
98.8583
100.486
100.938
100.658
100
99.1894
98.3554
97.5759
96.8902
96.312
95.8394
95.4629
95.1695
94.946
94.779
94.6575
94.5716
94.5134
94.4764
94.4556
94.4468
98.2517
95.3778
93.249
90.3072
87.3489
86.4528
88.3915
91.9515
96.0077
99.0151
100.696
101.129
100.804
100.097
99.243
98.3706
97.5588
96.8475
96.2496
95.7624
95.3754
95.075
94.8467
94.6771
94.5542
94.4679
94.4099
94.3734
94.3531
94.345
98.3691
95.317
93.2508
90.2696
87.1905
86.1909
88.1689
91.8124
96.0646
99.1931
100.938
101.346
100.97
100.207
99.304
98.3877
97.5391
96.7984
96.178
95.674
95.2749
94.9661
94.7325
94.5599
94.4357
94.3492
94.2915
94.2558
94.2365
94.2293
98.5034
95.246
93.2545
90.2259
87.0125
85.8925
87.9185
91.6475
96.1286
99.3928
101.211
101.59
101.156
100.328
99.3723
98.4066
97.5163
96.7423
96.0965
95.5735
95.1606
94.8424
94.6028
94.427
94.3015
94.2149
94.158
94.1234
94.1054
94.0995
98.6559
95.1636
93.2611
90.1753
86.8144
85.5554
87.6408
91.4531
96.2007
99.6149
101.52
101.862
101.362
100.461
99.448
98.4267
97.4898
96.6787
96.0045
95.4601
95.0317
94.7027
94.4566
94.2773
94.1506
94.0644
94.0088
93.9759
93.9596
93.9554
98.8266
95.0679
93.2726
90.1171
86.5959
85.1768
87.3367
91.2243
96.282
99.8595
101.866
102.163
101.587
100.608
99.5309
98.4479
97.459
96.6065
95.901
95.333
94.887
94.5462
94.2927
94.1097
93.9821
93.8969
93.8432
93.8127
93.7989
93.7969
99.0162
94.9569
93.2919
90.0506
86.3567
84.7536
87.0081
90.9555
96.3745
100.126
102.249
102.493
101.833
100.767
99.6209
98.4696
97.4231
96.5251
95.7852
95.1909
94.7255
94.3714
94.1098
93.923
93.795
93.7114
93.6606
93.6335
93.623
93.624
99.2259
94.8277
93.3233
89.9757
86.0966
84.2821
86.6578
90.6396
96.4812
100.416
102.668
102.854
102.098
100.943
99.7174
98.4914
97.3815
96.4332
95.656
95.0329
94.5463
94.1769
93.9063
93.7156
93.5876
93.5067
93.4601
93.4376
93.4317
93.4367
99.4567
94.6763
93.3718
89.8934
85.8159
83.7579
86.2901
90.2677
96.6073
100.728
103.13
103.246
102.382
101.131
99.8202
98.513
97.3332
96.3298
95.5123
94.8573
94.3468
93.9608
93.6801
93.4854
93.3581
93.2813
93.2406
93.2246
93.2249
93.2354
99.7101
94.4973
93.4424
89.8057
85.5148
83.176
85.9121
89.8271
96.762
101.062
103.647
103.668
102.685
101.33
99.9297
98.534
97.2773
96.2133
95.3527
94.6622
94.1256
93.7211
93.429
93.23
93.1044
93.0334
93.0008
92.9937
93.0025
93.0204
99.9874
94.2902
93.5393
89.7168
85.1941
82.53
85.5344
89.3003
96.9616
101.412
104.221
104.121
103.004
101.538
100.047
98.5539
97.2126
96.082
95.1747
94.4436
93.8804
93.4555
93.15
92.9461
92.8234
92.7605
92.739
92.7441
92.7646
92.7928
100.29
94.053
93.6629
89.6344
84.8545
81.8117
85.1672
88.6657
97.2243
101.772
104.846
104.603
103.338
101.751
100.172
98.5726
97.1381
95.9339
94.9737
94.1948
93.6094
93.1618
92.8396
92.63
92.5114
92.4595
92.453
92.4745
92.5111
92.5536
100.621
93.7762
93.8018
89.5727
84.4974
81.0102
84.8159
87.903
97.557
102.148
105.526
105.109
103.679
101.966
100.309
98.5902
97.0527
95.765
94.7478
93.9174
93.3143
92.8375
92.4933
92.2766
92.1638
92.1264
92.1394
92.1832
92.2422
92.3047
100.981
93.4475
93.9135
89.569
84.125
80.1103
84.4929
87.0032
97.9456
102.564
106.263
105.637
104.02
102.173
100.459
98.6058
96.9551
95.5697
94.5059
93.6195
93.0003
92.4785
92.1045
91.8791
91.7749
91.7556
91.7931
91.8665
91.9571
92.0489
101.372
93.0522
93.9011
89.7452
83.7411
79.0939
84.2323
86.0102
98.353
103.06
107.042
106.174
104.349
102.359
100.629
98.6158
96.8457
95.3536
94.2534
93.284
92.6598
92.0752
91.6632
91.4293
91.3384
91.3401
91.4053
91.5168
91.6526
91.7886
101.797
92.5852
93.931
89.7962
83.3605
77.9603
84.0049
84.9645
98.7453
103.62
107.872
106.722
104.657
102.508
100.82
98.6111
96.7209
95.1493
93.9985
92.8264
92.2452
91.6079
91.1567
90.9175
90.8491
90.871
90.9607
91.1182
91.3199
91.5259
102.262
91.1049
94.2025
89.5066
83.0211
76.5729
79.7458
83.8992
99.1385
104.27
108.737
107.257
104.931
102.607
101.012
98.5843
96.5763
94.9401
93.6848
92.3178
91.7726
91.0507
90.5727
90.3361
90.3042
90.3371
90.4297
90.6362
90.94
91.2655
102.775
90.5283
94.6591
92.522
82.9023
59.088
76.2791
81.4674
99.5491
105.042
109.587
107.791
105.169
102.622
101.197
98.5516
96.3925
94.6209
93.2936
91.8798
91.0498
90.438
89.8998
89.6732
89.7071
89.7279
89.7513
89.99
90.4689
91.0205
103.33
90.7601
95.5968
87.7205
74.0181
1.04309
70.5236
77.9172
99.9952
105.958
110.501
108.287
105.363
102.474
101.356
98.5334
96.0706
94.2813
92.9097
91.2993
90.5045
89.9119
89.1113
88.8703
89.0883
89.0699
88.8021
88.9764
89.7973
90.8268
103.933
90.1094
95.1165
86.7923
0.885657
0.666003
16.6331
66.8559
100.127
106.977
111.406
108.804
105.495
101.921
101.414
98.5609
95.483
93.7317
92.4612
90.8447
89.943
89.3997
88.1394
87.7504
88.5916
88.587
87.3386
87.0314
88.646
90.8135
104.607
89.1783
94.4114
24.6557
0.209566
0.639515
1.08268
32.0947
99.9349
108.238
112.263
109.189
105.597
101.179
101.23
98.7145
94.9824
93.7289
92.2106
90.6027
89.2498
88.9885
84.3953
79.0928
79.9589
79.9666
75.4141
73.8919
80.2862
88.4803
105.298
80.6393
91.6547
0.0919667
0.181834
0.703518
-0.72612
7.58234
99.918
110.155
112.688
109.681
105.652
101.065
100.68
99.0197
94.096
94.1915
84.1673
43.0109
11.4113
2.20274
0.0544328
0.057507
0.0588656
0.0544026
0.061532
0.0814041
0.0961442
0.085962
105.81
12.9033
4.17578
0.101454
0.175613
0.221654
-0.684237
-0.302802
89.7539
111.874
113.232
110.304
105.919
100.803
101.089
99.4423
75.775
15.2817
0.0238706
0.0489929
0.0518489
0.04831
0.0493609
0.0520656
0.0518668
0.0527542
0.0572239
0.0603714
0.0574727
0.0469432
94.7759
94.7822
94.7988
94.8288
94.8764
94.9465
95.045
95.1791
95.3575
95.5901
95.8887
96.2645
96.7254
97.2779
97.9183
98.6269
99.3542
100.005
100.415
100.334
99.4355
97.3957
94.1469
90.2753
87.0945
85.9857
87.3367
90.0391
92.9786
95.7143
94.769
94.7753
94.7919
94.822
94.8695
94.9394
95.0379
95.1719
95.3503
95.5828
95.8809
96.2574
96.7187
97.272
97.9137
98.624
99.3537
100.007
100.422
100.348
99.4574
97.4192
94.1613
90.2751
87.0797
85.9681
87.3264
90.0345
92.9775
95.7133
94.7492
94.7557
94.7724
94.8025
94.8501
94.9201
95.0185
95.1528
95.3315
95.5646
95.8619
96.242
96.7054
97.2619
97.9085
98.6247
99.3621
100.026
100.453
100.393
99.5067
97.4557
94.169
90.2493
87.0311
85.9225
87.3044
90.0284
92.9794
95.718
94.7159
94.7226
94.7395
94.7698
94.8176
94.8879
94.9867
95.1215
95.3009
95.5353
95.8361
96.2169
96.6848
97.2476
97.9026
98.6296
99.3806
100.061
100.509
100.468
99.5838
97.5072
94.1736
90.2023
86.9515
85.8502
87.2709
90.0202
92.9835
95.7285
94.669
94.6759
94.6931
94.7238
94.7721
94.8429
94.9424
95.078
95.2587
95.4949
95.7988
96.1831
96.6575
97.2294
97.8962
98.6388
99.4093
100.114
100.589
100.571
99.6873
97.5752
94.1775
90.1355
86.8412
85.7508
87.2257
90.0098
92.9899
95.7446
94.6084
94.6158
94.6334
94.6647
94.7137
94.7853
94.8857
95.0225
95.2048
95.4434
95.751
96.1407
96.6235
97.2071
97.8895
98.6521
99.4474
100.182
100.691
100.7
99.8169
97.6602
94.1809
90.0484
86.6992
85.6237
87.1691
89.9974
92.9985
95.766
94.5345
94.5423
94.5606
94.5926
94.6424
94.7149
94.8165
94.9546
95.1389
95.3806
95.6927
96.0893
96.5826
97.1807
97.882
98.669
99.4945
100.265
100.815
100.856
99.9733
97.7627
94.1833
89.94
86.5243
85.4681
87.1014
89.9831
93.0092
95.7924
94.447
94.4554
94.4745
94.5073
94.558
94.6316
94.7343
94.8741
95.0606
95.3058
95.6235
96.0286
96.5344
97.1498
97.8736
98.6894
99.5504
100.363
100.96
101.04
100.158
97.8832
94.1845
89.8093
86.3149
85.283
87.0228
89.9671
93.0221
95.8232
94.3459
94.3551
94.375
94.4088
94.4605
94.5351
94.6391
94.7805
94.9695
95.2186
95.5429
95.9578
96.4783
97.1137
97.8638
98.7129
99.6148
100.476
101.127
101.251
100.371
98.0224
94.184
89.655
86.0692
85.0674
86.9338
89.9494
93.037
95.8577
94.2312
94.2412
94.2621
94.2969
94.3497
94.4254
94.5306
94.6736
94.8651
95.1185
95.4498
95.8762
96.4137
97.0724
97.8521
98.7393
99.6875
100.603
101.317
101.492
100.615
98.181
94.181
89.4754
85.7852
84.8199
86.8351
89.9304
93.054
95.8951
94.1025
94.1137
94.1358
94.1718
94.2256
94.3024
94.4086
94.553
94.7468
95.0045
95.3436
95.783
96.34
97.0251
97.8382
98.7681
99.7686
100.744
101.531
101.763
100.892
98.3597
94.1747
89.2687
85.4603
84.5392
86.7273
89.9103
93.0731
95.9342
93.9599
93.9726
93.9961
94.0334
94.0883
94.1659
94.2729
94.4182
94.614
94.8759
95.2232
95.6771
96.2564
96.9713
97.8214
98.7991
99.8578
100.901
101.764
102.064
101.203
98.5597
94.1637
89.0328
85.0917
84.2234
86.6112
89.8893
93.0943
95.9738
93.8034
93.8179
93.8432
93.8819
93.9379
94.0161
94.1232
94.2688
94.4658
94.7314
95.0873
95.5571
96.1618
96.9105
97.8012
98.8315
99.9558
101.077
102.021
102.397
101.551
98.782
94.1463
88.7653
84.6759
83.8706
86.488
89.8677
93.1177
96.0125
93.6331
93.65
93.6773
93.7177
93.7747
93.8529
93.9595
94.1042
94.3012
94.5697
94.9341
95.4216
96.0552
96.8421
97.7767
98.8645
100.064
101.262
102.3
102.764
101.938
99.028
94.1199
88.4635
84.2091
83.4786
86.3588
89.8455
93.1435
96.0484
93.4493
93.4692
93.4992
93.5414
93.5991
93.6768
93.7815
93.9237
94.119
94.3889
94.7616
95.2684
95.9352
96.7659
97.7474
98.8968
100.18
101.457
102.603
103.166
102.368
99.2994
94.081
88.1248
83.687
83.0451
86.225
89.8231
93.1717
96.0795
93.2525
93.2765
93.3097
93.354
93.412
93.488
93.5891
93.7267
93.9177
94.1869
94.567
95.0948
95.8001
96.6817
97.7122
98.9273
100.295
101.664
102.928
103.603
102.842
99.5977
94.0257
87.746
83.1048
82.5671
86.0883
89.8005
93.2023
96.1035
93.0438
93.073
93.1104
93.157
93.2146
93.2874
93.3825
93.5123
93.6957
93.9607
94.3465
94.897
95.6475
96.59
97.67
98.9548
100.417
101.883
103.274
104.076
103.363
99.9239
93.9502
87.3227
82.4559
82.0412
85.9505
89.7778
93.2353
96.1186
92.8246
92.8608
92.9035
92.9525
93.0089
93.076
93.1618
93.2797
93.4508
93.7067
94.0944
94.669
95.4737
96.4914
97.6196
98.9784
100.544
102.11
103.64
104.584
103.928
100.279
93.8504
86.8493
81.7316
81.4634
85.8137
89.7548
93.2704
96.1301
92.5971
92.6429
92.6925
92.7441
92.7973
92.8554
92.9272
93.028
93.1808
93.4203
93.8025
94.4002
95.2739
96.3871
97.5587
98.9968
100.672
102.343
104.023
105.125
104.537
100.662
93.7185
86.319
80.9226
80.8291
85.6803
89.7312
93.3076
96.1324
92.3648
92.4241
92.4828
92.5368
92.5839
92.6276
92.6788
92.7562
92.8835
93.0967
93.4622
94.0826
95.0449
96.2816
97.4849
99.0092
100.806
102.578
104.423
105.694
105.185
101.077
93.5473
85.722
80.0182
80.133
85.5533
89.7065
93.347
96.1203
92.1333
92.2119
92.2828
92.3379
92.3738
92.395
92.4167
92.4629
92.557
92.7324
93.0706
93.7213
94.7809
96.1855
97.3961
99.0121
100.945
102.81
104.835
106.291
105.868
101.532
93.3371
85.0484
79.009
79.3712
85.436
89.6795
93.3889
96.0887
91.9103
92.0178
92.105
92.1585
92.1738
92.1602
92.1399
92.1461
92.1999
92.3252
92.6211
93.3069
94.4334
96.0808
97.2841
99.0044
101.08
103.032
105.26
106.904
106.577
102.035
93.1018
84.3085
77.9021
78.5471
85.3325
89.6487
93.4337
96.0325
91.7077
91.8602
91.9697
92.0145
91.9921
91.9243
91.8467
91.803
91.8096
91.8706
92.0892
92.7937
93.7521
95.7864
97.1349
98.9801
101.219
103.232
105.703
107.533
107.307
102.592
92.8862
83.5477
76.7646
77.6956
85.251
89.6119
93.4822
95.9464
91.5503
91.7758
91.913
91.9289
91.8337
91.6812
91.533
91.4345
91.3795
91.347
91.4417
92.0939
92.6149
95.3228
96.947
98.9399
101.329
103.386
106.134
108.17
108.131
103.251
92.8165
82.8354
75.7356
76.9077
85.2168
89.5668
93.5353
95.825
91.4946
91.8396
92.0008
91.9341
91.6903
91.4016
91.1853
91.0507
90.9005
90.7
90.6185
91.1876
92.0947
94.7678
96.6858
98.908
101.367
103.469
106.587
108.8
108.937
103.887
92.4888
80.3681
43.5366
58.766
85.2736
89.5124
93.5937
95.6614
91.6712
92.212
92.3554
92.0787
91.5287
91.0046
90.7648
90.6703
90.3834
89.8964
89.4698
90.2015
92.061
94.4165
96.3361
98.9133
101.331
103.37
107.046
109.448
109.916
104.743
92.5993
77.7299
31.0972
3.949
81.4757
89.4568
93.6526
95.4397
92.3725
93.2003
93.1999
92.4222
91.2755
90.3033
90.2012
90.3526
89.9065
89.1059
88.1296
89.2635
92.2096
94.2936
96.1605
98.9461
100.922
102.924
107.547
110.071
110.983
105.493
92.6274
65.5336
2.84507
0.905448
10.7642
89.4113
93.6879
95.13
93.2481
95.1387
94.9953
92.876
90.8293
87.5051
88.3848
90.2409
89.6164
88.3333
86.4151
88.2031
92.4577
94.5474
96.2487
98.977
100.569
102.306
108.097
110.705
112.144
106.313
92.6782
26.7649
0.321461
0.0193154
-0.0137046
59.7136
93.6765
94.6721
0.130809
0.382216
0.573494
0.528317
0.463983
0.487727
0.429127
0.43522
0.604306
1.29018
5.70468
27.2463
86.1881
94.8018
96.4697
98.6461
101.451
102.336
108.694
111.338
113.411
106.882
86.4215
1.65156
0.34995
-0.263216
-0.0230907
-0.0828868
87.1742
94.087
0.0341882
0.0210756
0.00805946
-0.00338121
-0.0106488
-0.00795215
0.012925
0.05617
0.0809797
0.0425741
0.0378644
0.0489398
-0.0276348
20.427
88.5538
98.5145
101.602
103.171
109.399
111.994
114.442
107.437
57.2337
0.0823185
0.277191
-0.360261
-0.0342209
-0.0885127
-0.103462
93.4594
103.802
0.776267
0.0243217
0.109431
0.1574
0.157609
-0.650851
-0.236969
53.2709
112.861
114.422
110.574
106.434
101.232
101.233
69.6413
0.0410693
0.0223362
0.0358813
0.0461456
0.0426071
0.0445112
0.046492
0.0500911
0.0512463
0.0525027
0.05484
0.0557122
0.0513664
0.0396628
97.056
0.143046
0.0273214
0.110385
0.152517
0.142697
-0.62547
-0.230671
22.4156
113.537
115.295
110.65
106.575
101.402
92.2267
0.0507171
0.0465229
0.0255962
0.0373766
0.0435955
0.0418234
0.0414854
0.0440258
0.0482777
0.0499294
0.0511435
0.052453
0.0519568
0.0468554
0.0354426
0.00135704
0.140946
0.0336097
0.121025
0.154253
0.131956
-0.593192
-0.220041
3.5992
114.517
115.734
110.908
106.989
101.222
0.0571589
0.0303647
0.04445
0.0274404
0.0387299
0.043113
0.0430474
0.0460458
0.0406863
0.0459519
0.048081
0.0491683
0.0495895
0.0479823
0.0426207
0.0327324
-0.00275402
0.134054
0.0481739
0.194361
0.141289
0.123383
-0.553693
-0.222034
-0.0445678
116.018
115.849
111.897
107.363
6.41042
0.0529418
0.038326
0.0434103
0.0294747
0.0429035
0.0442213
0.0379064
0.038936
0.0417692
0.0434016
0.045857
0.0467497
0.0464585
0.0441496
0.0389872
0.0309108
0.00094662
0.128887
0.0657709
0.202583
0.135404
0.117864
-0.508142
-0.21476
-0.116035
83.0775
115.087
113.329
45.8616
-0.0242863
0.0600568
0.0471888
0.0413676
0.0315309
0.0407556
0.0405885
0.036479
0.0339251
0.035939
0.0409943
0.0434231
0.0440429
0.0432551
0.0406589
0.0359784
0.0294908
0.00425314
0.125928
0.095329
0.064004
0.128833
0.114217
-0.458662
-0.205401
-0.169654
6.27799
114.15
103.655
0.154399
0.0276219
0.0665898
0.037941
0.0388041
0.0296896
0.0419389
0.0384123
0.0351575
0.0322413
0.0342981
0.0389088
0.0410801
0.0413549
0.0402812
0.0377504
0.0337001
0.0284893
0.00778632
0.122832
0.0726223
0.074341
0.121671
0.10886
-0.410771
-0.18867
-0.149082
-0.0327305
28.4607
-0.0518152
0.0833543
0.0406297
0.0751725
0.0420574
0.0361151
0.0237183
0.041727
0.0378674
0.0370467
0.0315104
0.0332062
0.0374728
0.039213
0.0390138
0.0377596
0.0355569
0.032213
0.0280309
0.0103507
0.104795
0.108163
0.115118
0.114324
0.0969819
-0.372444
-0.178897
-0.138261
-0.0372919
-0.051987
-0.0523644
0.0840803
0.0473073
0.0725285
0.0439808
0.0328199
0.0108992
0.0411048
0.037183
0.0351286
0.0375979
0.0321454
0.0414479
0.0468715
0.0400351
0.0360055
0.0341083
0.0315196
0.0281646
0.0125686
0.0994773
0.0294729
0.0828958
0.106848
0.0783344
-0.348206
-0.189333
-0.145775
-0.038241
-0.0493126
-0.0572084
0.052249
0.0620332
0.0892693
0.043118
0.0291252
0.0327914
0.478875
0.032791
0.0356876
0.0334083
0.0353413
0.0435219
0.0465668
0.0461362
0.0356436
0.0346574
0.0317004
0.0289559
0.0141557
0.0933451
0.0385908
0.0788368
0.0989617
0.0593347
-0.32356
-0.188084
-0.147495
-0.0412303
-0.0578271
-0.063418
0.0425963
0.0691311
0.0940183
0.0476924
0.0267194
0.0733557
0.434686
0.0367556
0.0362994
0.0331157
0.0336799
0.036152
0.0367607
0.0367641
0.0365879
0.038039
0.0356199
0.0328308
0.0151076
0.0960274
0.0573571
0.0747855
0.0907736
0.0427747
-0.279818
-0.132654
-0.145767
-0.0444499
-0.0580088
-0.0634536
0.0178846
0.0653145
0.090405
0.0586266
0.0262107
0.161326
0.388244
0.0581466
0.0354645
0.0319027
0.033081
0.035129
0.0358368
0.0365608
0.036901
0.0348888
0.0342292
0.0344574
0.0154971
0.0759604
0.0418246
0.0708532
0.0823909
0.0247482
-0.23264
-0.155567
-0.142649
-0.0533409
-0.0557894
-0.0521805
-0.012592
0.0258019
0.068344
0.0583377
0.0294902
0.202517
0.425195
0.0330641
0.0265327
0.0289079
0.0313783
0.0336471
0.0347052
0.0347643
0.0342057
0.0340049
0.032831
0.031269
0.0153904
0.0689415
0.0398664
0.0658744
0.0738694
0.00834792
-0.208546
-0.132674
-0.124292
-0.063274
-0.0526363
-0.0518564
-0.0140929
0.0201041
0.0404633
0.02804
0.0262503
0.126786
0.436051
0.0197092
0.019852
0.0250056
0.0288339
0.0316339
0.0331622
0.0336994
0.0336018
0.0330809
0.0320135
0.0308057
0.0148589
0.0625016
0.0430674
0.0606839
0.0652477
-0.00160583
-0.217089
-0.0947522
-0.0988451
-0.0715657
-0.0573273
-0.0435945
-0.0145391
0.0171766
0.0310578
0.0225626
0.0306239
-0.000919047
0.430505
0.00881267
0.014551
0.0208851
0.0258043
0.0291794
0.0311596
0.0320914
0.032313
0.0320376
0.0314087
0.0306251
0.0139858
0.0564957
0.049493
0.0557913
0.0566622
-0.00619328
-0.242449
-0.0576666
-0.0693475
-0.0766598
-0.0552262
-0.0348121
-0.0070313
0.0111986
0.0198512
0.0153758
0.011141
-0.00931897
0.0742078
0.00294143
0.00804466
0.0164254
0.0224205
0.026388
0.0288203
0.030138
0.030709
0.0307838
0.0305354
0.0301065
0.012855
0.0508409
0.0404844
0.0509181
0.0483347
-0.00950445
-0.262115
-0.0231963
-0.0504577
-0.074817
-0.0480623
-0.0269085
-0.0176927
-0.000156811
0.00875873
0.00600747
-0.00180415
-0.0120377
-0.00994628
-0.00925977
0.0598911
0.0124421
0.0188828
0.023387
0.0263587
0.0281467
0.0291404
0.0296173
0.0297482
0.0296428
0.0115596
0.0454619
0.0403761
0.0460718
0.0405841
-0.013215
-0.257818
0.0144719
-0.0294652
-0.0733558
-0.0445008
-0.0239998
-0.0185192
-0.00601006
0.00308454
-0.00387824
-0.0153074
-0.0197475
-0.0162543
-0.00965843
0.0551779
0.0501164
0.0151475
0.0202739
0.0241036
0.0265662
0.028122
0.0290779
0.0296001
0.0297877
0.0101788
0.0404866
0.0409745
0.0411449
0.0335724
-0.0167822
-0.223637
0.0239282
-0.0186233
-0.0634226
-0.0384389
-0.023372
-0.0209593
-0.0128444
0.00926995
0.00225912
-0.0355725
-0.0336417
-0.0132513
-0.00987614
0.0225824
0.0794298
0.00871348
0.0173776
0.0226344
0.0259867
0.0282802
0.0298904
0.0309367
0.0314579
0.00876987
0.0362329
0.0866841
0.0360564
0.0276513
-0.0187553
-0.174556
0.0108388
-0.0130485
-0.0507061
-0.0352761
-0.0244057
-0.0252383
0.00681335
0.314368
0.295561
-0.0612353
-0.0230697
-0.00383173
0.00978446
0.00995953
0.0817101
0.00965691
0.0169105
0.0227143
0.0267843
0.0299264
0.0324733
0.0344989
0.0359626
0.00734883
0.0315702
0.112933
0.0309654
0.0220967
-0.0183673
-0.117928
0.00916291
-0.0145716
-0.0405089
-0.033358
-0.0268903
-0.0304018
0.0177562
0.31419
0.28852
0.0392172
-0.0538454
-0.0145519
-0.00198399
0.010521
0.0920047
0.00986668
0.0170593
0.0227233
0.027201
0.0309295
0.0341172
0.0368287
0.039233
0.00597388
0.0272447
0.11401
0.0267527
0.017101
-0.0180559
-0.076329
-0.0168263
-0.017779
-0.0347173
-0.0313565
-0.0283317
-0.0317354
-0.0121691
-0.0284364
-0.053494
0.134344
-0.0457248
-0.0444419
-0.0195093
0.037975
0.0756532
0.00892242
0.0147441
0.0197944
0.0239437
0.0272069
0.0294468
0.0302964
0.0294124
0.00466805
0.0245101
0.113107
0.0231254
0.012847
-0.0161211
-0.0471031
-0.0226366
-0.00694864
0.016308
-0.0295404
-0.0280249
-0.0342076
-0.0423692
-0.0571755
-0.075349
-0.0912112
0.0892713
-0.06245
-0.0142637
0.0609688
0.0125342
0.00369413
0.00944517
0.0141606
0.0179689
0.0209342
0.0230098
0.024205
0.0245416
0.00340585
0.0209979
0.0355054
0.0211731
0.00944465
-0.0137615
-0.0262663
-0.0241292
0.00969223
-0.0238272
-0.026334
-0.026185
-0.0335053
-0.0496522
-0.0725934
-0.0901366
-0.0966235
-0.0989148
-0.0746522
-0.0482972
-0.0360733
-0.0187824
-0.00638754
0.00214208
0.00873564
0.0140682
0.0183536
0.0217138
0.0249374
0.0274872
0.00219745
0.0185258
0.036793
0.0186596
0.00685304
-0.0110594
-0.0118196
-0.0223402
0.0121004
-0.0220972
-0.0214597
-0.0219714
-0.030303
-0.0513996
-0.0796825
-0.0963593
-0.100624
-0.0972297
-0.0804003
-0.060009
-0.0419239
-0.0251614
-0.0114805
-0.000867049
0.00731993
0.0149339
0.0199631
0.0233833
0.0241369
0.0249109
0.001034
0.0145673
0.189155
0.0147605
0.00502482
-0.00827868
-0.0119065
-0.0130595
-0.0206981
-0.020251
-0.0149518
-0.0151301
-0.0228215
-0.0452658
-0.0718079
-0.0894064
-0.0944624
-0.0859132
-0.071278
-0.0561217
-0.0382094
-0.022372
-0.00975717
0.00190706
0.00945729
0.0131544
0.0166688
0.0192211
0.0208322
0.0217713
-0.000106982
0.0121571
0.202973
0.0130581
0.00404008
-0.00562548
-0.00970999
-0.00844218
-0.0108893
-0.0118586
-0.00779768
-0.00665757
-0.0113041
-0.0289835
-0.0322886
-0.0626354
-0.0722547
-0.066173
-0.0572467
-0.0435297
-0.030036
-0.0185498
-0.00759734
-0.000296874
0.00510214
0.00936468
0.0123893
0.0145726
0.0158792
0.0167501
-0.00128987
0.0103967
0.2143
0.0120385
0.00343304
-0.00344981
-0.00609198
-0.00465152
-0.00632204
-0.00547518
-0.00204382
0.000733907
2.93501e-05
-0.00627775
-0.00807439
-0.0365878
-0.0420046
-0.0410477
-0.0394906
-0.0338381
-0.0272241
-0.0199201
-0.0127088
-0.00644733
-0.000963252
0.00279915
0.00524929
0.00736
0.00904682
0.0101051
-0.00264602
0.00711529
0.221203
0.00796063
0.00251491
-0.00187823
-0.00371878
-0.00377743
-0.00354238
-0.00186374
0.00108998
0.00432231
0.00611403
0.00119413
-0.00925696
-0.0148876
-0.0206003
-0.0253042
-0.0295874
-0.0300051
-0.0280311
0.00456358
0.0103139
0.0134163
0.0187734
0.0247399
0.0244961
0.0181299
0.0306292
0.0049022
-0.00381606
-0.00264435
0.634266
-0.000723659
0.000998017
-0.000885608
-0.0020511
-0.00210974
-0.00163778
-0.000336688
0.00181797
0.00384604
0.00382683
-0.00109988
0.0941279
0.0267607
-0.0103002
-0.0188622
-0.0241309
-0.0263134
-0.0258397
-0.0223227
-0.0140012
-0.0145781
-0.0125786
-0.00975481
-0.00682815
-0.00568907
-0.00357887
-0.00172883
-0.00332595
-0.0189444
0.455899
-0.0123224
-0.000432962
-0.000321748
-0.000813807
-0.000858144
-0.000573651
0.000103908
0.00117994
0.00213035
0.00183221
-0.000944613
0.0713205
0.167043
-0.0130607
-0.0108475
-0.00118877
0.000140395
-0.00278653
-0.000270167
-0.00310975
-0.00768517
-0.00647743
-0.00535231
-0.00435221
-0.00348271
-0.0027387
-0.00209996
0.026568
0.0171291
0.00801882
-0.00373501
-0.0160934
-0.019033
-0.00242285
0.0239515
0.0772982
0.0304026
0.0280936
0.0418614
-0.00133225
0.0114776
-0.0617567
73.3529
101.36
104.104
109.919
112.395
115.935
107.682
7.80515
0.000376897
0.2428
-0.369919
-0.0385534
-0.0930562
-0.107516
-0.0383889
0.0226514
0.0137618
0.00584479
-0.00593202
-0.0207881
-0.0253554
-0.00891928
0.0178093
0.0313612
0.0288538
0.0223109
0.0329141
-0.00426135
0.0190294
-0.0390012
0.0623847
98.0601
104.691
110.146
112.774
117.026
107.845
3.72436
0.0144658
0.226263
-0.364239
-0.0405993
-0.0951134
-0.109812
0.282989
0.0212869
0.0118392
0.00325254
-0.008627
-0.0234935
-0.027917
-0.0117931
0.0154426
0.0262891
0.0287338
0.0225507
0.0244463
-0.00960272
0.0266151
-0.031347
0.00678957
0.810434
105.513
110.315
113.319
117.958
96.8328
-0.0481673
0.0290919
0.206687
-0.346326
-0.0424283
-0.0968946
-0.109972
0.10533
0.0214373
0.0120854
0.00266519
-0.00879526
-0.021445
-0.0247806
-0.0100795
0.0143922
0.0227921
0.0265919
0.0268245
0.0175727
-0.0133179
0.0585371
-0.0291586
-0.00283412
0.0678249
40.3454
110.624
114.25
118.939
37.0176
-0.0547047
0.039394
0.179823
-0.316383
-0.043689
-0.0980892
-0.108519
-0.0237295
0.021983
0.0137939
0.00479359
-0.00527238
-0.0149155
-0.0168676
-0.00536005
0.0141147
0.0221969
0.0272743
0.0326088
0.0142723
-0.0140569
0.00764822
-0.0296705
-0.00574888
0.0562613
0.0482072
109.347
115.047
119.418
7.25062
-0.0587251
0.0452736
0.144733
-0.280115
-0.0450038
-0.0985804
-0.105658
-0.0190369
0.022573
0.0161912
0.00875569
0.000355144
-0.0064432
-0.00762366
0.000402444
0.0135816
0.021162
0.100037
0.0368037
0.0143387
-0.0108762
0.00898305
-0.0137064
0.0407485
0.0595422
0.0432291
1.31028
114.497
126.07
-0.139403
-0.087651
0.0452607
0.112421
-0.245577
-0.046341
-0.0982527
-0.102492
-0.014269
0.0233637
0.0184838
0.0124124
0.00589861
0.00111449
0.000215645
0.00542797
0.014958
0.0245428
0.0531807
0.0396118
0.0160994
-0.00479359
0.00823789
-0.0131822
0.0448051
0.0885837
0.0348316
0.0149798
4.31585
0.30691
-0.06546
-0.11037
0.0412447
0.0950088
-0.214481
-0.0481876
-0.0973666
-0.0991939
-0.0103837
0.0243044
0.0200174
0.0151536
0.0104329
0.00684002
0.0059606
0.00927518
0.0162289
0.0255411
0.0421053
0.053792
0.018043
-0.000649679
0.00588962
-0.00599797
0.0276858
0.0845879
0.0271249
0.0126235
0.0490346
0.0890753
0.0210618
-0.119407
0.0349284
0.0838598
-0.185819
-0.0505088
-0.0960758
-0.0958213
-0.00794313
0.0255881
0.0218784
0.0178594
0.0140278
0.0111091
0.0101386
0.0122965
0.0174242
0.024953
0.036203
0.118423
0.0121734
0.00254835
0.00424647
-0.00135874
0.00712205
0.0776533
0.0256607
0.0153783
0.0487909
0.0891709
-0.0204847
-0.118864
0.0268381
0.0703003
-0.160996
-0.0527996
-0.0943404
-0.0923649
-0.00695339
0.0279284
0.0236991
0.0204135
0.017291
0.0146751
0.0144612
0.0170695
0.01853
0.0241975
0.0308686
0.0317565
0.0105932
0.00446604
0.00310085
0.00121061
0.00778821
0.0260849
0.0179745
0.0210261
0.0526102
0.0237247
-0.0101177
-0.111934
0.0158158
0.0558661
-0.139326
-0.0545579
-0.0922238
-0.0887794
-0.00737932
0.0333057
0.0258948
0.022827
0.0206424
0.0182269
0.0181354
0.0196939
0.0204138
0.0479263
0.0491204
0.0226651
0.0129203
0.00568491
0.00317762
0.00279322
0.0093315
0.0183613
0.0171043
0.0262457
0.0538605
0.00274684
-0.00962806
-0.0990188
0.00195693
0.0422398
-0.119153
-0.0556635
-0.0897455
-0.0850678
-0.00894455
0.0288971
0.026667
0.0247811
0.0239943
0.0219996
0.0200096
0.0209712
0.022594
0.0701835
0.0734509
0.0249139
0.0164399
0.00667985
0.00359297
0.00398523
0.00773307
0.0144151
0.0151023
0.0316479
0.126032
0.0294262
-0.00563832
-0.0668015
-0.0122404
0.0299076
-0.100975
-0.0562362
-0.0869235
-0.0812415
-0.0114142
0.0296002
0.0281482
0.0266286
0.0249969
0.0241304
0.0224464
0.0268283
0.0249103
0.0309271
0.0348628
0.0279307
0.0649914
0.031504
0.00552922
0.00918109
0.00563618
0.00654605
0.0119631
0.0342997
0.174858
0.0130479
0.000175408
-0.0222836
0.0544076
0.0188572
-0.0852288
-0.0563114
-0.0837425
-0.0773128
-0.0144955
0.029776
0.028812
0.0276998
0.0264902
0.0252992
0.024518
0.0244246
0.0285349
0.0271354
0.0283464
0.0295651
0.0679034
0.0189582
0.00887893
0.00508427
0.000975578
-0.000604401
0.00685944
0.0370512
0.178683
0.0024863
0.0238399
-0.00789114
-0.0428787
0.00921314
-0.072026
-0.0558974
-0.0801946
-0.0732848
-0.0178395
0.0295864
0.0289591
0.0281844
0.0273108
0.026476
0.0259411
0.0259857
0.0265733
0.0302955
0.0281399
0.0425728
0.0726212
0.0179923
0.00904371
0.00357879
-0.00361787
-0.00963054
0.000345489
0.044054
0.173202
0.0105768
-0.00703755
0.0122143
-0.0466516
0.000736421
-0.0611761
-0.0550125
-0.0762715
-0.0691659
-0.0210498
0.0293746
0.0289548
0.0283662
0.0276667
0.0270111
0.0266434
0.0268506
0.0276856
0.0299523
0.0281643
0.0309985
0.0596588
0.0181755
0.00986259
0.000852759
-0.0101075
0.00370702
0.0103224
0.0767397
0.0450855
0.0207498
-0.00748034
0.0794436
-0.0471289
-0.00632151
-0.0522466
-0.0536836
-0.0719918
-0.0649664
-0.023759
0.0297049
0.0293544
0.0287133
0.027887
0.0271153
0.0267144
0.0269136
0.0302575
0.0304837
0.0298923
0.0285052
0.0239518
0.0191879
0.0101825
-0.00301043
-0.000159925
-0.0367834
-0.012037
0.119353
0.0465467
0.0276754
-0.00632449
0.0738066
-0.0466663
-0.0118862
-0.0449373
-0.051932
-0.0673966
-0.060696
-0.0256838
0.0314865
0.0309589
0.0297274
0.028139
0.0266167
0.027621
0.028126
0.0303008
0.0326017
0.0310912
0.0298596
0.026233
0.0206929
0.0105985
-0.00781444
-0.0120574
-0.0485061
-0.0378544
0.107493
0.0244905
0.0275221
-0.00776358
0.0524774
-0.0532913
-0.0157782
-0.0394961
-0.0497615
-0.0625643
-0.0563604
-0.0266697
0.0367239
0.0360942
0.0323373
0.0295217
0.0246887
0.0221839
0.0256053
0.0287845
0.0319649
0.0315332