/*--------------------------------*- C++ -*----------------------------------*\
| =========                 |                                                 |
| \\      /  F ield         | OpenFOAM: The Open Source CFD Toolbox           |
|  \\    /   O peration     | Version:  2.4.0                                 |
|   \\  /    A nd           | Web:      www.OpenFOAM.org                      |
|    \\/     M anipulation  |                                                 |
\*---------------------------------------------------------------------------*/
FoamFile
{
    version     2.0;
    format      ascii;
    class       volVectorField;
    location    "0.208";
    object      U;
}
// * * * * * * * * * * * * * * * * * * * * * * * * * * * * * * * * * * * * * //

dimensions      [0 1 -1 0 0 0 0];

internalField   nonuniform List<vector> 
60000
(
(-8.36423e-05 3.28145e-05 0)
(-0.0003011 3.38535e-05 0)
(-0.000532995 3.49948e-05 0)
(-0.000767385 3.53118e-05 0)
(-0.00100358 3.55461e-05 0)
(-0.00124184 3.57953e-05 0)
(-0.00148258 3.60871e-05 0)
(-0.00172624 3.64253e-05 0)
(-0.00197329 3.681e-05 0)
(-0.00222418 3.72405e-05 0)
(-0.00247936 3.77147e-05 0)
(-0.0027393 3.82293e-05 0)
(-0.00300443 3.87815e-05 0)
(-0.00327519 3.93669e-05 0)
(-0.003552 3.99811e-05 0)
(-0.00383527 4.06197e-05 0)
(-0.0041254 4.12773e-05 0)
(-0.00442276 4.19478e-05 0)
(-0.00472771 4.26242e-05 0)
(-0.00504058 4.32989e-05 0)
(-0.00536168 4.3964e-05 0)
(-0.00569129 4.46106e-05 0)
(-0.00602965 4.52287e-05 0)
(-0.00637697 4.58077e-05 0)
(-0.00673343 4.63362e-05 0)
(-0.00709915 4.68014e-05 0)
(-0.0074742 4.71902e-05 0)
(-0.00785863 4.74891e-05 0)
(-0.00825239 4.76829e-05 0)
(-0.00865541 4.77547e-05 0)
(-0.00906751 4.7687e-05 0)
(-0.00948848 4.74616e-05 0)
(-0.009918 4.70591e-05 0)
(-0.0103557 4.64584e-05 0)
(-0.010801 4.56383e-05 0)
(-0.0112535 4.45765e-05 0)
(-0.0117124 4.32495e-05 0)
(-0.0121769 4.16331e-05 0)
(-0.0126462 3.97026e-05 0)
(-0.0131191 3.74332e-05 0)
(-0.0135947 3.47993e-05 0)
(-0.0140716 3.1775e-05 0)
(-0.0145485 2.83346e-05 0)
(-0.0150237 2.44523e-05 0)
(-0.0154957 2.01027e-05 0)
(-0.0159627 1.5261e-05 0)
(-0.0164227 9.90255e-06 0)
(-0.0168737 4.00341e-06 0)
(-0.0173133 -2.45927e-06 0)
(-0.0177393 -9.50732e-06 0)
(-0.0181492 -1.71612e-05 0)
(-0.0185402 -2.54395e-05 0)
(-0.0189096 -3.43585e-05 0)
(-0.0192545 -4.39325e-05 0)
(-0.0195718 -5.41728e-05 0)
(-0.0198584 -6.50886e-05 0)
(-0.020111 -7.66873e-05 0)
(-0.0203264 -8.89759e-05 0)
(-0.0205011 -0.000101966 0)
(-0.0206318 -0.000115689 0)
(-0.0207151 -0.000130223 0)
(-0.0207483 -0.000145729 0)
(-0.0207281 -0.000160498 0)
(-0.0206509 -0.000174717 0)
(-0.020514 -0.000189256 0)
(-0.0203152 -0.000204099 0)
(-0.0200524 -0.000219159 0)
(-0.019724 -0.000234332 0)
(-0.0193287 -0.000249503 0)
(-0.0188658 -0.000264553 0)
(-0.0183353 -0.000279348 0)
(-0.017738 -0.000293762 0)
(-0.0170749 -0.000307841 0)
(-0.0163485 -0.000321049 0)
(-0.0155627 -0.000333202 0)
(-0.0147222 -0.000344254 0)
(-0.0138325 -0.000353965 0)
(-0.0129008 -0.000362103 0)
(-0.0119358 -0.000368433 0)
(-0.0109474 -0.000372686 0)
(-0.00994768 -0.000374539 0)
(-0.00895011 -0.0003737 0)
(-0.00797022 -0.000369843 0)
(-0.00702532 -0.000362568 0)
(-0.00613469 -0.000351462 0)
(-0.00531968 -0.000336033 0)
(-0.00460422 -0.000315538 0)
(-0.00401525 -0.000288769 0)
(-0.00358369 -0.00025315 0)
(-0.00334483 -0.000205053 0)
(-0.00335095 -0.000148384 0)
(-0.00361449 -8.92471e-05 0)
(-0.00415551 -2.38478e-05 0)
(-0.00499089 4.78904e-05 0)
(-0.0061266 0.000124259 0)
(-0.00755229 0.000204674 0)
(-0.00923191 0.000287345 0)
(-0.011087 0.000362161 0)
(-0.0129876 0.000407266 0)
(-0.0147923 0.000418743 0)
(-0.000130265 0.000162961 0)
(-0.000494866 0.000198659 0)
(-0.000875199 0.000203892 0)
(-0.00125853 0.00020561 0)
(-0.00164467 0.000207339 0)
(-0.0020347 0.000209409 0)
(-0.00242951 0.000211888 0)
(-0.00283001 0.000214789 0)
(-0.00323713 0.000218116 0)
(-0.00365178 0.00022187 0)
(-0.0040749 0.00022605 0)
(-0.00450741 0.000230649 0)
(-0.00495025 0.000235663 0)
(-0.00540435 0.000241087 0)
(-0.00587065 0.000246911 0)
(-0.00635007 0.000253126 0)
(-0.00684357 0.000259721 0)
(-0.00735204 0.000266684 0)
(-0.00787643 0.000273997 0)
(-0.00841763 0.000281645 0)
(-0.00897654 0.000289607 0)
(-0.00955405 0.000297862 0)
(-0.010151 0.000306385 0)
(-0.0107683 0.000315147 0)
(-0.0114067 0.000324119 0)
(-0.012067 0.000333266 0)
(-0.0127501 0.000342551 0)
(-0.0134565 0.000351934 0)
(-0.014187 0.00036137 0)
(-0.0149423 0.000370809 0)
(-0.0157229 0.000380196 0)
(-0.0165294 0.000389475 0)
(-0.0173621 0.000398581 0)
(-0.0182216 0.000407445 0)
(-0.019108 0.000415995 0)
(-0.0200217 0.000424153 0)
(-0.0209626 0.000431835 0)
(-0.021931 0.000438954 0)
(-0.0229265 0.000445417 0)
(-0.0239491 0.000451127 0)
(-0.0249983 0.000455984 0)
(-0.0260737 0.000459883 0)
(-0.0271747 0.000462713 0)
(-0.0283004 0.000464362 0)
(-0.0294499 0.000464716 0)
(-0.0306222 0.000463656 0)
(-0.0318158 0.00046106 0)
(-0.0330294 0.000456803 0)
(-0.0342612 0.000450759 0)
(-0.0355095 0.000442801 0)
(-0.0367719 0.000432799 0)
(-0.0380464 0.000420628 0)
(-0.0393303 0.000406162 0)
(-0.0406209 0.000389283 0)
(-0.0419151 0.000369878 0)
(-0.0432099 0.000347845 0)
(-0.0445017 0.000323091 0)
(-0.0457869 0.000295537 0)
(-0.0470619 0.000265116 0)
(-0.0483225 0.000231768 0)
(-0.0495649 0.000195417 0)
(-0.0507845 0.000156035 0)
(-0.0519771 0.000115155 0)
(-0.0531386 7.25634e-05 0)
(-0.054265 2.76046e-05 0)
(-0.0553518 -1.95802e-05 0)
(-0.0563952 -6.86889e-05 0)
(-0.0573916 -0.000119352 0)
(-0.0583377 -0.000171136 0)
(-0.0592308 -0.000223523 0)
(-0.0600687 -0.00027589 0)
(-0.06085 -0.000327464 0)
(-0.0615733 -0.000377154 0)
(-0.0622388 -0.000425731 0)
(-0.0628483 -0.000472085 0)
(-0.0634045 -0.000514508 0)
(-0.0639109 -0.000551826 0)
(-0.0643729 -0.000582838 0)
(-0.0647973 -0.000606217 0)
(-0.0651924 -0.000620565 0)
(-0.0655686 -0.000624439 0)
(-0.0659377 -0.000616239 0)
(-0.0663133 -0.000594353 0)
(-0.0667106 -0.000557252 0)
(-0.0671457 -0.00050344 0)
(-0.0676355 -0.000431367 0)
(-0.0681971 -0.000339204 0)
(-0.068847 -0.000224446 0)
(-0.0696002 -8.48894e-05 0)
(-0.0704686 8.14226e-05 0)
(-0.0714609 0.000270659 0)
(-0.0726105 0.000477941 0)
(-0.0739362 0.000702797 0)
(-0.0754395 0.000938417 0)
(-0.0770983 0.00117037 0)
(-0.0788595 0.00137646 0)
(-0.0806346 0.00152513 0)
(-0.0822945 0.00157919 0)
(-0.0836752 0.0015156 0)
(-0.0846257 0.00135394 0)
(-0.000142291 0.000333217 0)
(-0.000546161 0.00040295 0)
(-0.000963789 0.000410732 0)
(-0.00138534 0.000413844 0)
(-0.00180999 0.000417485 0)
(-0.00223908 0.000421999 0)
(-0.00267368 0.00042744 0)
(-0.00311485 0.000433825 0)
(-0.00356365 0.00044116 0)
(-0.00402116 0.000449451 0)
(-0.00448847 0.000458699 0)
(-0.00496666 0.000468902 0)
(-0.00545684 0.00048006 0)
(-0.00596012 0.00049217 0)
(-0.0064776 0.000505227 0)
(-0.00701042 0.000519224 0)
(-0.0075597 0.00053415 0)
(-0.00812656 0.000549994 0)
(-0.00871216 0.00056674 0)
(-0.00931761 0.000584372 0)
(-0.00994406 0.000602868 0)
(-0.0105926 0.000622202 0)
(-0.0112645 0.000642348 0)
(-0.0119607 0.000663273 0)
(-0.0126825 0.00068494 0)
(-0.0134308 0.000707307 0)
(-0.0142069 0.000730328 0)
(-0.0150117 0.000753951 0)
(-0.0158464 0.000778115 0)
(-0.016712 0.000802756 0)
(-0.0176094 0.0008278 0)
(-0.0185396 0.000853168 0)
(-0.0195036 0.000878769 0)
(-0.0205022 0.000904508 0)
(-0.0215362 0.000930278 0)
(-0.0226065 0.000955967 0)
(-0.0237136 0.000981453 0)
(-0.0248583 0.0010066 0)
(-0.026041 0.00103128 0)
(-0.0272622 0.00105534 0)
(-0.0285223 0.00107862 0)
(-0.0298216 0.00110096 0)
(-0.0311601 0.00112218 0)
(-0.032538 0.00114212 0)
(-0.033955 0.00116058 0)
(-0.0354111 0.00117736 0)
(-0.0369058 0.00119227 0)
(-0.0384387 0.00120509 0)
(-0.040009 0.0012156 0)
(-0.0416158 0.00122358 0)
(-0.0432582 0.0012288 0)
(-0.0449349 0.00123101 0)
(-0.0466444 0.00122999 0)
(-0.048385 0.00122549 0)
(-0.0501548 0.0012173 0)
(-0.0519517 0.0012052 0)
(-0.0537733 0.00118898 0)
(-0.055617 0.00116847 0)
(-0.0574798 0.00114352 0)
(-0.0593589 0.00111404 0)
(-0.0612509 0.00108001 0)
(-0.0631522 0.00104153 0)
(-0.0650593 0.000998192 0)
(-0.0669686 0.000950086 0)
(-0.0688763 0.00089758 0)
(-0.0707784 0.000840889 0)
(-0.0726711 0.000780357 0)
(-0.0745505 0.000716436 0)
(-0.0764129 0.000649688 0)
(-0.0782547 0.000580797 0)
(-0.0800726 0.000510592 0)
(-0.0818632 0.00044011 0)
(-0.0836243 0.000370734 0)
(-0.0853537 0.000302065 0)
(-0.0870488 0.000235571 0)
(-0.088708 0.00017339 0)
(-0.0903304 0.000117178 0)
(-0.0919152 6.865e-05 0)
(-0.0934623 2.96628e-05 0)
(-0.0949722 2.15468e-06 0)
(-0.0964462 -1.1856e-05 0)
(-0.0978863 -1.03251e-05 0)
(-0.0992949 8.58802e-06 0)
(-0.100675 4.64921e-05 0)
(-0.10203 0.000104788 0)
(-0.103365 0.00018466 0)
(-0.104686 0.000287196 0)
(-0.105998 0.000413759 0)
(-0.107309 0.000566043 0)
(-0.108623 0.000746205 0)
(-0.109943 0.000955061 0)
(-0.111264 0.00118782 0)
(-0.112562 0.00143128 0)
(-0.113793 0.00166469 0)
(-0.114886 0.00185921 0)
(-0.115755 0.00197928 0)
(-0.1163 0.00198335 0)
(-0.116416 0.00183091 0)
(-0.116004 0.00150747 0)
(-0.115017 0.00105069 0)
(-0.000145176 0.000506623 0)
(-0.000556804 0.000613144 0)
(-0.000981334 0.000624059 0)
(-0.00141048 0.000628698 0)
(-0.00184274 0.00063434 0)
(-0.00227957 0.000641406 0)
(-0.00272207 0.000649946 0)
(-0.00317134 0.000659977 0)
(-0.00362847 0.00067151 0)
(-0.00409459 0.000684554 0)
(-0.0045708 0.000699114 0)
(-0.00505826 0.000715196 0)
(-0.00555809 0.000732803 0)
(-0.00607145 0.000751937 0)
(-0.00659949 0.000772597 0)
(-0.0071434 0.000794779 0)
(-0.00770435 0.000818476 0)
(-0.00828351 0.000843681 0)
(-0.0088821 0.00087038 0)
(-0.00950129 0.000898559 0)
(-0.0101423 0.000928196 0)
(-0.0108063 0.000959267 0)
(-0.0114945 0.000991745 0)
(-0.0122082 0.0010256 0)
(-0.0129485 0.00106078 0)
(-0.0137166 0.00109725 0)
(-0.0145138 0.00113496 0)
(-0.0153411 0.00117384 0)
(-0.0161999 0.00121384 0)
(-0.0170911 0.00125486 0)
(-0.018016 0.00129683 0)
(-0.0189757 0.00133966 0)
(-0.0199712 0.00138322 0)
(-0.0210035 0.00142741 0)
(-0.0220738 0.0014721 0)
(-0.0231829 0.00151714 0)
(-0.0243317 0.00156238 0)
(-0.0255211 0.00160767 0)
(-0.0267519 0.00165282 0)
(-0.0280248 0.00169765 0)
(-0.0293404 0.00174197 0)
(-0.0306993 0.00178555 0)
(-0.0321019 0.00182819 0)
(-0.0335488 0.00186965 0)
(-0.03504 0.00190968 0)
(-0.0365759 0.00194804 0)
(-0.0381565 0.00198445 0)
(-0.0397817 0.00201863 0)
(-0.0414513 0.00205029 0)
(-0.0431651 0.00207911 0)
(-0.0449224 0.00210477 0)
(-0.0467227 0.00212695 0)
(-0.0485651 0.0021453 0)
(-0.0504484 0.00215948 0)
(-0.0523716 0.00216915 0)
(-0.054333 0.00217397 0)
(-0.056331 0.00217363 0)
(-0.0583637 0.00216783 0)
(-0.0604288 0.00215629 0)
(-0.062524 0.0021388 0)
(-0.0646467 0.00211517 0)
(-0.0667939 0.00208532 0)
(-0.0689627 0.00204898 0)
(-0.0711498 0.00200624 0)
(-0.0733518 0.00195729 0)
(-0.0755652 0.00190232 0)
(-0.077786 0.0018416 0)
(-0.0800105 0.00177553 0)
(-0.0822346 0.00170463 0)
(-0.0844542 0.00162956 0)
(-0.0866651 0.00155109 0)
(-0.0888629 0.00147008 0)
(-0.0910435 0.0013873 0)
(-0.0932024 0.00130462 0)
(-0.0953346 0.00122328 0)
(-0.0974354 0.00114446 0)
(-0.0995 0.0010698 0)
(-0.101523 0.00100105 0)
(-0.103501 0.000940138 0)
(-0.105427 0.000889158 0)
(-0.107299 0.000850312 0)
(-0.109111 0.00082571 0)
(-0.110861 0.000817425 0)
(-0.112546 0.000827612 0)
(-0.114163 0.000858509 0)
(-0.115716 0.000912385 0)
(-0.117206 0.000991405 0)
(-0.118637 0.00109742 0)
(-0.120014 0.00123188 0)
(-0.121333 0.00139375 0)
(-0.122581 0.0015768 0)
(-0.123734 0.00176707 0)
(-0.124746 0.00194173 0)
(-0.125556 0.00207069 0)
(-0.126095 0.00211963 0)
(-0.126289 0.00205304 0)
(-0.126075 0.00183506 0)
(-0.12539 0.00143502 0)
(-0.124172 0.000850417 0)
(-0.122405 0.000132736 0)
(-0.000145708 0.000680998 0)
(-0.000557963 0.000823965 0)
(-0.000982648 0.000838208 0)
(-0.00141237 0.000844422 0)
(-0.00184519 0.000852082 0)
(-0.00228261 0.000861718 0)
(-0.00272572 0.00087338 0)
(-0.00317561 0.000887086 0)
(-0.00363341 0.000902851 0)
(-0.00410024 0.000920689 0)
(-0.00457721 0.000940611 0)
(-0.00506547 0.000962627 0)
(-0.00556618 0.000986745 0)
(-0.00608048 0.00101297 0)
(-0.00660956 0.00104131 0)
(-0.00715459 0.00107176 0)
(-0.00771675 0.00110433 0)
(-0.00829724 0.00113899 0)
(-0.00889727 0.00117576 0)
(-0.00951805 0.00121461 0)
(-0.0101608 0.00125553 0)
(-0.0108267 0.00129848 0)
(-0.011517 0.00134346 0)
(-0.0122329 0.00139041 0)
(-0.0129757 0.00143931 0)
(-0.0137465 0.0014901 0)
(-0.0145466 0.00154273 0)
(-0.0153772 0.00159713 0)
(-0.0162394 0.00165323 0)
(-0.0171345 0.00171095 0)
(-0.0180636 0.00177018 0)
(-0.0190279 0.00183082 0)
(-0.0200284 0.00189275 0)
(-0.0210662 0.00195582 0)
(-0.0221424 0.0020199 0)
(-0.023258 0.00208481 0)
(-0.0244139 0.00215039 0)
(-0.025611 0.00221643 0)
(-0.0268502 0.00228274 0)
(-0.0281322 0.00234908 0)
(-0.0294577 0.00241524 0)
(-0.0308274 0.00248096 0)
(-0.0322419 0.00254598 0)
(-0.0337015 0.00261003 0)
(-0.0352067 0.00267281 0)
(-0.0367577 0.00273401 0)
(-0.0383548 0.00279332 0)
(-0.0399979 0.0028504 0)
(-0.0416871 0.00290487 0)
(-0.0434221 0.00295636 0)
(-0.0452025 0.00300447 0)
(-0.0470279 0.00304878 0)
(-0.0488975 0.00308887 0)
(-0.0508106 0.0031243 0)
(-0.0527659 0.00315462 0)
(-0.0547622 0.0031794 0)
(-0.056798 0.00319821 0)
(-0.0588716 0.00321064 0)
(-0.060981 0.00321631 0)
(-0.063124 0.00321488 0)
(-0.0652981 0.00320606 0)
(-0.0675006 0.00318962 0)
(-0.0697288 0.00316529 0)
(-0.0719794 0.003133 0)
(-0.0742491 0.00309282 0)
(-0.0765344 0.00304482 0)
(-0.0788314 0.0029892 0)
(-0.0811363 0.00292627 0)
(-0.0834447 0.00285644 0)
(-0.0857523 0.00278028 0)
(-0.0880544 0.00269843 0)
(-0.0903463 0.00261169 0)
(-0.092623 0.00252087 0)
(-0.0948791 0.00242734 0)
(-0.097109 0.00233218 0)
(-0.0993067 0.00223657 0)
(-0.101466 0.00214195 0)
(-0.103582 0.00205002 0)
(-0.105646 0.00196273 0)
(-0.107655 0.00188231 0)
(-0.109603 0.00181111 0)
(-0.111485 0.00175151 0)
(-0.113296 0.00170604 0)
(-0.115036 0.00167762 0)
(-0.116701 0.00166967 0)
(-0.118296 0.00168565 0)
(-0.119821 0.00172831 0)
(-0.12128 0.00179891 0)
(-0.12267 0.00189628 0)
(-0.123983 0.00201494 0)
(-0.125197 0.00214256 0)
(-0.126281 0.00225827 0)
(-0.127189 0.0023334 0)
(-0.127869 0.00233408 0)
(-0.128263 0.00222465 0)
(-0.128315 0.00197037 0)
(-0.127976 0.00153761 0)
(-0.127184 0.000898667 0)
(-0.125864 5.50976e-05 0)
(-0.123975 -0.000933076 0)
(-0.000145644 0.000855226 0)
(-0.000557028 0.0010343 0)
(-0.000980552 0.00105196 0)
(-0.00140935 0.00105978 0)
(-0.00184123 0.00106946 0)
(-0.00227772 0.00108166 0)
(-0.00271989 0.00109645 0)
(-0.00316885 0.00111383 0)
(-0.00362571 0.00113383 0)
(-0.00409158 0.00115646 0)
(-0.00456761 0.00118175 0)
(-0.00505493 0.0012097 0)
(-0.00555469 0.00124034 0)
(-0.00606805 0.00127366 0)
(-0.0065962 0.00130969 0)
(-0.0071403 0.00134842 0)
(-0.00770154 0.00138986 0)
(-0.00828113 0.00143401 0)
(-0.00888027 0.00148086 0)
(-0.00950018 0.0015304 0)
(-0.0101421 0.00158261 0)
(-0.0108072 0.00163748 0)
(-0.0114967 0.00169498 0)
(-0.0122118 0.00175506 0)
(-0.0129539 0.00181771 0)
(-0.013724 0.00188285 0)
(-0.0145235 0.00195044 0)
(-0.0153535 0.00202041 0)
(-0.0162152 0.00209267 0)
(-0.0171098 0.00216713 0)
(-0.0180385 0.00224369 0)
(-0.0190025 0.00232221 0)
(-0.0200028 0.00240257 0)
(-0.0210405 0.00248462 0)
(-0.0221167 0.00256817 0)
(-0.0232324 0.00265306 0)
(-0.0243885 0.00273906 0)
(-0.0255859 0.00282598 0)
(-0.0268256 0.00291356 0)
(-0.0281082 0.00300155 0)
(-0.0294345 0.00308969 0)
(-0.0308051 0.0031777 0)
(-0.0322206 0.00326526 0)
(-0.0336815 0.00335206 0)
(-0.035188 0.00343776 0)
(-0.0367406 0.00352201 0)
(-0.0383395 0.00360443 0)
(-0.0399845 0.00368461 0)
(-0.0416758 0.00376212 0)
(-0.0434131 0.00383652 0)
(-0.045196 0.00390733 0)
(-0.0470241 0.00397405 0)
(-0.0488966 0.00403616 0)
(-0.0508127 0.00409312 0)
(-0.0527713 0.00414439 0)
(-0.054771 0.00418942 0)
(-0.0568103 0.00422768 0)
(-0.0588875 0.00425862 0)
(-0.0610005 0.00428177 0)
(-0.063147 0.00429665 0)
(-0.0653247 0.00430285 0)
(-0.0675306 0.00430001 0)
(-0.0697618 0.0042878 0)
(-0.0720152 0.00426601 0)
(-0.0742872 0.00423456 0)
(-0.0765741 0.00419343 0)
(-0.078872 0.00414271 0)
(-0.0811768 0.00408257 0)
(-0.083484 0.00401335 0)
(-0.0857893 0.00393548 0)
(-0.0880877 0.00384952 0)
(-0.0903744 0.00375612 0)
(-0.0926444 0.00365607 0)
(-0.0948923 0.00355046 0)
(-0.0971127 0.00344031 0)
(-0.0993001 0.00332676 0)
(-0.101449 0.00321121 0)
(-0.103554 0.00309541 0)
(-0.10561 0.00298152 0)
(-0.107613 0.00287202 0)
(-0.109559 0.0027696 0)
(-0.111445 0.002677 0)
(-0.113268 0.00259729 0)
(-0.115027 0.00253413 0)
(-0.11672 0.00249184 0)
(-0.11835 0.00247451 0)
(-0.119917 0.00248465 0)
(-0.12142 0.00252194 0)
(-0.122854 0.00258196 0)
(-0.124205 0.00265454 0)
(-0.125453 0.00272208 0)
(-0.126566 0.00275881 0)
(-0.127503 0.00273237 0)
(-0.128218 0.00260652 0)
(-0.12866 0.00234406 0)
(-0.128776 0.00190897 0)
(-0.128515 0.00126659 0)
(-0.127807 0.000388055 0)
(-0.126551 -0.000725578 0)
(-0.124679 -0.00200687 0)
(-0.000145351 0.00102908 0)
(-0.000555427 0.00124395 0)
(-0.000977439 0.00126507 0)
(-0.00140485 0.0012745 0)
(-0.00183534 0.00128621 0)
(-0.00227044 0.00130098 0)
(-0.0027112 0.00131888 0)
(-0.00315875 0.00133994 0)
(-0.00361419 0.00136416 0)
(-0.00407863 0.00139159 0)
(-0.00455322 0.00142224 0)
(-0.00503909 0.00145613 0)
(-0.0055374 0.00149328 0)
(-0.0060493 0.0015337 0)
(-0.00657598 0.00157741 0)
(-0.00711861 0.00162442 0)
(-0.00767838 0.00167474 0)
(-0.0082565 0.00172837 0)
(-0.00885417 0.0017853 0)
(-0.00947262 0.00184553 0)
(-0.010113 0.00190905 0)
(-0.0107767 0.00197584 0)
(-0.0114648 0.00204586 0)
(-0.0121785 0.0021191 0)
(-0.0129192 0.0021955 0)
(-0.0136879 0.00227501 0)
(-0.0144861 0.00235758 0)
(-0.0153148 0.00244313 0)
(-0.0161752 0.00253157 0)
(-0.0170686 0.0026228 0)
(-0.0179962 0.0027167 0)
(-0.018959 0.00281314 0)
(-0.0199583 0.00291197 0)
(-0.020995 0.00301302 0)
(-0.0220703 0.00311609 0)
(-0.0231852 0.00322098 0)
(-0.0243406 0.00332746 0)
(-0.0255375 0.00343528 0)
(-0.0267766 0.00354418 0)
(-0.0280588 0.00365387 0)
(-0.0293848 0.00376404 0)
(-0.0307553 0.00387437 0)
(-0.0321707 0.00398451 0)
(-0.0336316 0.00409411 0)
(-0.0351384 0.00420277 0)
(-0.0366913 0.00431009 0)
(-0.0382905 0.00441564 0)
(-0.0399361 0.00451895 0)
(-0.041628 0.00461953 0)
(-0.043366 0.00471685 0)
(-0.0451498 0.00481036 0)
(-0.0469787 0.00489946 0)
(-0.0488522 0.00498356 0)
(-0.0507693 0.00506199 0)
(-0.0527289 0.00513412 0)
(-0.0547295 0.00519928 0)
(-0.0567697 0.00525682 0)
(-0.0588475 0.00530608 0)
(-0.0609609 0.00534644 0)
(-0.0631076 0.00537731 0)
(-0.0652848 0.00539816 0)
(-0.0674898 0.00540848 0)
(-0.0697193 0.00540785 0)
(-0.0719701 0.00539593 0)
(-0.0742385 0.0053725 0)
(-0.0765207 0.00533744 0)
(-0.0788124 0.00529071 0)
(-0.0811095 0.00523241 0)
(-0.0834075 0.00516276 0)
(-0.0857015 0.00508211 0)
(-0.087987 0.00499094 0)
(-0.0902588 0.00488986 0)
(-0.0925122 0.00477962 0)
(-0.094742 0.00466121 0)
(-0.0969432 0.00453566 0)
(-0.099111 0.00440418 0)
(-0.101241 0.00426829 0)
(-0.103328 0.00412992 0)
(-0.105369 0.0039915 0)
(-0.107361 0.00385585 0)
(-0.109302 0.00372595 0)
(-0.111188 0.00360478 0)
(-0.113019 0.0034956 0)
(-0.114792 0.00340244 0)
(-0.116507 0.00333 0)
(-0.118162 0.0032825 0)
(-0.119758 0.0032619 0)
(-0.121291 0.00326616 0)
(-0.122756 0.00328813 0)
(-0.124141 0.00331404 0)
(-0.125425 0.0033221 0)
(-0.126582 0.00328257 0)
(-0.127576 0.00315959 0)
(-0.128363 0.00291392 0)
(-0.128892 0.00250559 0)
(-0.129111 0.00189598 0)
(-0.128968 0.00104756 0)
(-0.128384 -7.39362e-05 0)
(-0.127235 -0.00147504 0)
(-0.125412 -0.00308362 0)
(-0.000144914 0.0012024 0)
(-0.0005534 0.00145281 0)
(-0.000973666 0.00147739 0)
(-0.00139939 0.00148845 0)
(-0.00182819 0.00150219 0)
(-0.0022616 0.00151952 0)
(-0.00270066 0.00154054 0)
(-0.00314649 0.00156525 0)
(-0.0036002 0.00159371 0)
(-0.0040629 0.00162592 0)
(-0.00453574 0.00166193 0)
(-0.00501985 0.00170174 0)
(-0.00551638 0.0017454 0)
(-0.0060265 0.00179292 0)
(-0.00655139 0.00184431 0)
(-0.00709222 0.0018996 0)
(-0.0076502 0.0019588 0)
(-0.00822652 0.00202191 0)
(-0.0088224 0.00208893 0)
(-0.00943904 0.00215985 0)
(-0.0100777 0.00223468 0)
(-0.0107395 0.00231339 0)
(-0.0114259 0.00239595 0)
(-0.0121379 0.00248234 0)
(-0.0128768 0.00257251 0)
(-0.0136439 0.00266641 0)
(-0.0144403 0.00276397 0)
(-0.0152674 0.00286512 0)
(-0.0161263 0.00296976 0)
(-0.0170182 0.00307779 0)
(-0.0179443 0.00318907 0)
(-0.0189057 0.00330346 0)
(-0.0199037 0.0034208 0)
(-0.0209392 0.00354089 0)
(-0.0220134 0.00366352 0)
(-0.0231273 0.00378847 0)
(-0.0242818 0.00391548 0)
(-0.0254779 0.00404428 0)
(-0.0267164 0.00417455 0)
(-0.0279981 0.004306 0)
(-0.0293238 0.00443826 0)
(-0.0306941 0.00457098 0)
(-0.0321096 0.00470378 0)
(-0.0335707 0.00483625 0)
(-0.0350778 0.00496795 0)
(-0.0366313 0.00509843 0)
(-0.0382313 0.00522719 0)
(-0.0398778 0.00535371 0)
(-0.041571 0.00547743 0)
(-0.0433104 0.00559776 0)
(-0.0450959 0.00571405 0)
(-0.0469268 0.00582562 0)
(-0.0488025 0.00593176 0)
(-0.050722 0.00603174 0)
(-0.0526842 0.00612478 0)
(-0.0546877 0.0062101 0)
(-0.056731 0.00628691 0)
(-0.058812 0.00635446 0)
(-0.0609287 0.00641197 0)
(-0.0630787 0.00645873 0)
(-0.0652592 0.00649407 0)
(-0.0674674 0.00651735 0)
(-0.0696999 0.00652802 0)
(-0.0719534 0.00652563 0)
(-0.074224 0.00650981 0)
(-0.0765079 0.00648032 0)
(-0.0788006 0.00643702 0)
(-0.0810979 0.00637992 0)
(-0.083395 0.00630915 0)
(-0.0856872 0.00622498 0)
(-0.0879697 0.00612785 0)
(-0.0902374 0.00601835 0)
(-0.0924855 0.00589724 0)
(-0.0947091 0.0057655 0)
(-0.0969033 0.00562427 0)
(-0.0990636 0.00547489 0)
(-0.101186 0.00531907 0)
(-0.103266 0.00515897 0)
(-0.105302 0.00499734 0)
(-0.10729 0.00483729 0)
(-0.109228 0.00468199 0)
(-0.111115 0.00453445 0)
(-0.112948 0.00439795 0)
(-0.114724 0.00427658 0)
(-0.116444 0.00417525 0)
(-0.118104 0.00409831 0)
(-0.119706 0.00404736 0)
(-0.121246 0.00401922 0)
(-0.122721 0.00400468 0)
(-0.124121 0.00398704 0)
(-0.125433 0.00394072 0)
(-0.126632 0.00383184 0)
(-0.127685 0.00362057 0)
(-0.128551 0.00326409 0)
(-0.129179 0.00271897 0)
(-0.129516 0.00194322 0)
(-0.12951 0.000895101 0)
(-0.129076 -0.000469429 0)
(-0.128063 -0.00217389 0)
(-0.12631 -0.00414964 0)
(-0.00014436 0.00137506 0)
(-0.000550991 0.00166076 0)
(-0.000969278 0.00168881 0)
(-0.00139304 0.00170149 0)
(-0.00181988 0.00171725 0)
(-0.00225131 0.00173715 0)
(-0.00268839 0.00176126 0)
(-0.00313223 0.00178964 0)
(-0.00358392 0.00182231 0)
(-0.0040446 0.00185931 0)
(-0.0045154 0.00190066 0)
(-0.00499745 0.0019464 0)
(-0.00549191 0.00199656 0)
(-0.00599996 0.00205117 0)
(-0.00652275 0.00211025 0)
(-0.00706149 0.00217381 0)
(-0.00761736 0.00224188 0)
(-0.00819158 0.00231447 0)
(-0.00878535 0.00239158 0)
(-0.00939989 0.0024732 0)
(-0.0100364 0.00255934 0)
(-0.0106962 0.00264998 0)
(-0.0113805 0.00274509 0)
(-0.0120904 0.00284464 0)
(-0.0128273 0.00294859 0)
(-0.0135924 0.00305689 0)
(-0.0143869 0.00316947 0)
(-0.015212 0.00328624 0)
(-0.016069 0.00340711 0)
(-0.0169591 0.00353197 0)
(-0.0178835 0.00366066 0)
(-0.0188433 0.00379305 0)
(-0.0198397 0.00392893 0)
(-0.0208737 0.00406812 0)
(-0.0219466 0.00421038 0)
(-0.0230592 0.00435545 0)
(-0.0242127 0.00450305 0)
(-0.0254078 0.00465289 0)
(-0.0266456 0.00480462 0)
(-0.0279267 0.00495791 0)
(-0.029252 0.00511235 0)
(-0.0306221 0.00526757 0)
(-0.0320375 0.00542312 0)
(-0.0334988 0.00557856 0)
(-0.0350064 0.0057334 0)
(-0.0365606 0.00588715 0)
(-0.0381615 0.00603925 0)
(-0.0398093 0.00618912 0)
(-0.041504 0.00633613 0)
(-0.0432453 0.00647961 0)
(-0.0450329 0.00661883 0)
(-0.0468664 0.00675304 0)
(-0.048745 0.0068814 0)
(-0.0506678 0.00700308 0)
(-0.0526337 0.0071172 0)
(-0.0546414 0.00722284 0)
(-0.0566891 0.0073191 0)
(-0.058775 0.00740507 0)
(-0.0608969 0.00747986 0)
(-0.0630524 0.00754262 0)
(-0.0652388 0.00759252 0)
(-0.067453 0.00762881 0)
(-0.0696918 0.0076508 0)
(-0.0719517 0.00765789 0)
(-0.0742288 0.0076496 0)
(-0.076519 0.00762555 0)
(-0.078818 0.0075855 0)
(-0.0811214 0.00752936 0)
(-0.0834243 0.00745717 0)
(-0.0857219 0.00736914 0)
(-0.0880092 0.00726568 0)
(-0.0902812 0.00714736 0)
(-0.0925329 0.00701499 0)
(-0.0947594 0.00686957 0)
(-0.096956 0.00671236 0)
(-0.099118 0.00654486 0)
(-0.101241 0.00636898 0)
(-0.103322 0.00618715 0)
(-0.105357 0.00600237 0)
(-0.107345 0.00581799 0)
(-0.109281 0.00563729 0)
(-0.111164 0.00546329 0)
(-0.112993 0.0052992 0)
(-0.114764 0.00514923 0)
(-0.116476 0.00501861 0)
(-0.118128 0.00491205 0)
(-0.119721 0.00483117 0)
(-0.121256 0.00477222 0)
(-0.122732 0.00472448 0)
(-0.124144 0.00466872 0)
(-0.125481 0.00457565 0)
(-0.126724 0.00440666 0)
(-0.127843 0.00411724 0)
(-0.128797 0.00366045 0)
(-0.129536 0.00298909 0)
(-0.130006 0.00205733 0)
(-0.130156 0.000817856 0)
(-0.129901 -0.000787716 0)
(-0.129063 -0.00281141 0)
(-0.127413 -0.00520422 0)
(-0.000143702 0.00154693 0)
(-0.000548219 0.00186767 0)
(-0.000964281 0.00189917 0)
(-0.00138582 0.00191348 0)
(-0.00181042 0.00193126 0)
(-0.00223961 0.00195371 0)
(-0.00267443 0.00198093 0)
(-0.00311599 0.00201296 0)
(-0.00356539 0.00204984 0)
(-0.00402376 0.00209161 0)
(-0.00449222 0.0021383 0)
(-0.00497193 0.00218996 0)
(-0.00546403 0.00224662 0)
(-0.0059697 0.00230831 0)
(-0.00649011 0.00237506 0)
(-0.00702645 0.0024469 0)
(-0.00757992 0.00252384 0)
(-0.00815172 0.0026059 0)
(-0.00874308 0.0026931 0)
(-0.00935521 0.00278542 0)
(-0.00998935 0.00288288 0)
(-0.0106467 0.00298545 0)
(-0.0113286 0.00309311 0)
(-0.0120362 0.00320584 0)
(-0.0127707 0.00332359 0)
(-0.0135335 0.0034463 0)
(-0.0143257 0.00357391 0)
(-0.0151486 0.00370634 0)
(-0.0160035 0.00384347 0)
(-0.0168915 0.00398518 0)
(-0.0178138 0.00413134 0)
(-0.0187717 0.00428176 0)
(-0.0197662 0.00443625 0)
(-0.0207986 0.00459459 0)
(-0.0218698 0.00475653 0)
(-0.022981 0.00492179 0)
(-0.0241331 0.00509007 0)
(-0.0253272 0.00526103 0)
(-0.026564 0.00543431 0)
(-0.0278443 0.00560952 0)
(-0.0291691 0.00578625 0)
(-0.0305388 0.00596406 0)
(-0.0319541 0.00614248 0)
(-0.0334155 0.00632101 0)
(-0.0349235 0.00649913 0)
(-0.0364783 0.00667629 0)
(-0.0380802 0.00685187 0)
(-0.0397293 0.00702524 0)
(-0.0414256 0.00719571 0)
(-0.0431689 0.00736252 0)
(-0.0449589 0.00752488 0)
(-0.0467952 0.00768191 0)
(-0.048677 0.00783271 0)
(-0.0506036 0.00797632 0)
(-0.0525737 0.00811173 0)
(-0.054586 0.00823792 0)
(-0.0566388 0.00835385 0)
(-0.0587304 0.00845847 0)
(-0.0608584 0.00855076 0)
(-0.0630205 0.00862971 0)
(-0.0652139 0.00869437 0)
(-0.0674356 0.00874384 0)
(-0.0696822 0.00877729 0)
(-0.0719502 0.00879398 0)
(-0.0742356 0.0087933 0)
(-0.0765344 0.00877475 0)
(-0.0788421 0.00873797 0)
(-0.0811542 0.00868275 0)
(-0.0834658 0.00860907 0)
(-0.085772 0.00851707 0)
(-0.0880677 0.00840711 0)
(-0.0903477 0.00827976 0)
(-0.092607 0.00813585 0)
(-0.0948406 0.00797644 0)
(-0.0970434 0.0078029 0)
(-0.0992109 0.00761686 0)
(-0.101339 0.00742043 0)
(-0.103423 0.00721627 0)
(-0.10546 0.00700762 0)
(-0.107446 0.00679805 0)
(-0.10938 0.00659093 0)
(-0.111259 0.0063893 0)
(-0.113079 0.00619643 0)
(-0.11484 0.00601679 0)
(-0.11654 0.0058562 0)
(-0.11818 0.00572004 0)
(-0.119762 0.00561034 0)
(-0.121289 0.00552318 0)
(-0.122765 0.00544683 0)
(-0.124188 0.00535985 0)
(-0.125554 0.00522914 0)
(-0.126848 0.00501082 0)
(-0.128042 0.00465478 0)
(-0.129095 0.00410945 0)
(-0.129958 0.00332384 0)
(-0.130577 0.00224849 0)
(-0.130905 0.000830025 0)
(-0.130864 -0.00100861 0)
(-0.130253 -0.0033635 0)
(-0.128761 -0.00623232 0)
(-0.000142948 0.0017179 0)
(-0.000545092 0.00207342 0)
(-0.000958677 0.00210836 0)
(-0.00137772 0.00212429 0)
(-0.00179982 0.00214409 0)
(-0.00222649 0.00216908 0)
(-0.00265878 0.00219939 0)
(-0.00309778 0.00223506 0)
(-0.00354461 0.00227614 0)
(-0.00400038 0.00232267 0)
(-0.00446623 0.0023747 0)
(-0.0049433 0.00243227 0)
(-0.00543275 0.00249541 0)
(-0.00593575 0.00256418 0)
(-0.00645347 0.0026386 0)
(-0.00698712 0.0027187 0)
(-0.00753788 0.00280452 0)
(-0.00810697 0.00289606 0)
(-0.00869561 0.00299334 0)
(-0.00930502 0.00309637 0)
(-0.00993644 0.00320514 0)
(-0.0105911 0.00331965 0)
(-0.0112703 0.00343987 0)
(-0.0119752 0.00356579 0)
(-0.0127071 0.00369734 0)
(-0.0134672 0.00383449 0)
(-0.0142569 0.00397716 0)
(-0.0150773 0.00412526 0)
(-0.0159296 0.00427868 0)
(-0.0168152 0.00443729 0)
(-0.0177352 0.00460094 0)
(-0.0186909 0.00476945 0)
(-0.0196833 0.0049426 0)
(-0.0207136 0.00512016 0)
(-0.021783 0.00530185 0)
(-0.0228925 0.00548738 0)
(-0.0240431 0.00567641 0)
(-0.0252358 0.00586859 0)
(-0.0264714 0.00606351 0)
(-0.0277508 0.00626076 0)
(-0.0290748 0.00645989 0)
(-0.030444 0.00666041 0)
(-0.0318591 0.00686181 0)
(-0.0333206 0.00706357 0)
(-0.0348288 0.00726511 0)
(-0.0363842 0.00746582 0)
(-0.0379871 0.00766505 0)
(-0.0396374 0.00786209 0)
(-0.0413354 0.0080562 0)
(-0.0430807 0.00824655 0)
(-0.0448733 0.00843225 0)
(-0.0467125 0.00861235 0)
(-0.0485978 0.00878583 0)
(-0.0505283 0.00895161 0)
(-0.052503 0.00910858 0)
(-0.0545203 0.00925558 0)
(-0.0565788 0.00939144 0)
(-0.0586766 0.00951497 0)
(-0.0608113 0.009625 0)
(-0.0629807 0.0097204 0)
(-0.0651819 0.00980005 0)
(-0.0674118 0.00986291 0)
(-0.0696671 0.009908 0)
(-0.0719441 0.00993447 0)
(-0.0742389 0.00994154 0)
(-0.0765474 0.0099286 0)
(-0.078865 0.00989516 0)
(-0.0811871 0.0098409 0)
(-0.0835087 0.00976572 0)
(-0.0858249 0.00966969 0)
(-0.0881304 0.00955312 0)
(-0.09042 0.00941658 0)
(-0.0926884 0.00926088 0)
(-0.0949304 0.00908717 0)
(-0.0971409 0.00889687 0)
(-0.0993151 0.00869177 0)
(-0.101448 0.00847413 0)
(-0.103536 0.00824681 0)
(-0.105575 0.00801331 0)
(-0.107562 0.00777738 0)
(-0.109493 0.00754253 0)
(-0.111366 0.00731189 0)
(-0.113179 0.0070889 0)
(-0.114929 0.00687853 0)
(-0.116617 0.00668739 0)
(-0.118244 0.00652185 0)
(-0.119814 0.00638473 0)
(-0.121334 0.00627237 0)
(-0.12281 0.00617256 0)
(-0.124247 0.00606212 0)
(-0.125647 0.005904 0)
(-0.126997 0.00564825 0)
(-0.128275 0.00523815 0)
(-0.129439 0.00461687 0)
(-0.13044 0.00373 0)
(-0.131222 0.00252576 0)
(-0.131749 0.000945859 0)
(-0.131963 -0.00110872 0)
(-0.131652 -0.00379744 0)
(-0.130406 -0.00720747 0)
(-0.000142103 0.00188785 0)
(-0.000541617 0.00227788 0)
(-0.000952469 0.00231624 0)
(-0.00136876 0.00233378 0)
(-0.00178809 0.00235559 0)
(-0.00221197 0.00238312 0)
(-0.00264144 0.00241651 0)
(-0.00307762 0.00245581 0)
(-0.00352159 0.00250108 0)
(-0.00397448 0.00255236 0)
(-0.00443743 0.00260971 0)
(-0.00491158 0.00267318 0)