/*--------------------------------*- C++ -*----------------------------------*\
| =========                 |                                                 |
| \\      /  F ield         | OpenFOAM: The Open Source CFD Toolbox           |
|  \\    /   O peration     | Version:  2.4.0                                 |
|   \\  /    A nd           | Web:      www.OpenFOAM.org                      |
|    \\/     M anipulation  |                                                 |
\*---------------------------------------------------------------------------*/
FoamFile
{
    version     2.0;
    format      ascii;
    class       surfaceScalarField;
    location    "0.034";
    object      phi;
}
// * * * * * * * * * * * * * * * * * * * * * * * * * * * * * * * * * * * * * //

dimensions      [0 3 -1 0 0 0 0];

internalField   nonuniform List<scalar> 
7080
(
-4.20483e-09
4.20483e-09
-1.4359e-09
-2.76893e-09
5.32804e-09
-6.76395e-09
2.60037e-09
2.72768e-09
1.00709e-08
-7.47054e-09
5.42352e-09
4.64738e-09
7.79745e-09
-2.37394e-09
-7.55284e-10
8.55275e-09
-1.24188e-08
1.16635e-08
-3.25721e-08
2.01534e-08
-6.16332e-08
2.90611e-08
-1.01661e-07
4.00282e-08
-1.54735e-07
5.30737e-08
-2.23386e-07
6.86507e-08
-3.10926e-07
8.75404e-08
-4.21889e-07
1.10962e-07
-5.62739e-07
1.4085e-07
-7.4288e-07
1.8014e-07
-9.75991e-07
2.33112e-07
-1.28194e-06
3.05948e-07
-1.68777e-06
4.05829e-07
-2.21404e-06
5.26268e-07
-2.81069e-06
5.9665e-07
-3.21879e-06
4.08099e-07
-3.01265e-06
-2.06139e-07
-2.09319e-06
-9.19454e-07
-1.04619e-06
-1.047e-06
-4.78511e-07
-5.6768e-07
-3.41038e-07
-1.37473e-07
-5.25785e-08
-2.88459e-07
-5.33913e-09
9.54396e-09
-4.2796e-09
-3.82845e-09
1.00981e-09
-1.20534e-08
-1.43362e-09
5.17113e-09
3.63086e-09
-1.2535e-08
-1.62371e-10
8.44064e-09
-9.68814e-10
-1.56751e-09
-1.0948e-08
1.8532e-08
-2.24746e-08
2.31901e-08
-4.41535e-08
4.18322e-08
-7.44204e-08
5.9328e-08
-1.15431e-07
8.10384e-08
-1.68921e-07
1.06564e-07
-2.36825e-07
1.36555e-07
-3.21419e-07
1.72134e-07
-4.25444e-07
2.14987e-07
-5.52491e-07
2.67898e-07
-7.07724e-07
3.35373e-07
-8.98824e-07
4.24212e-07
-1.1366e-06
5.43723e-07
-1.43418e-06
7.03414e-07
-1.79724e-06
8.89324e-07
-2.18492e-06
9.84327e-07
-2.49649e-06
7.19669e-07
-2.59443e-06
-1.08197e-07
-2.51608e-06
-9.97802e-07
-2.33159e-06
-1.23149e-06
-1.81528e-06
-1.08399e-06
-1.03153e-06
-9.21221e-07
-1.09785e-06
1.37408e-08
-5.60529e-09
1.51492e-08
-4.43802e-09
-4.99571e-09
9.09406e-10
-1.74008e-08
-1.57051e-09
7.65106e-09
3.72064e-09
-1.78262e-08
1.11357e-10
1.20499e-08
-3.85503e-10
-1.07066e-09
-9.37931e-09
2.75258e-08
-1.99085e-08
3.37193e-08
-4.02431e-08
6.21668e-08
-6.82528e-08
8.73377e-08
-1.06062e-07
1.18848e-07
-1.54811e-07
1.55314e-07
-2.15507e-07
1.97251e-07
-2.88899e-07
2.45526e-07
-3.74957e-07
3.01045e-07
-4.72264e-07
3.65205e-07
-5.76415e-07
4.39524e-07
-6.77766e-07
5.25563e-07
-7.59831e-07
6.25788e-07
-7.97542e-07
7.41125e-07
-7.63764e-07
8.55546e-07
-6.7984e-07
9.00402e-07
-6.47406e-07
6.87236e-07
-8.43552e-07
8.79486e-08
-1.19176e-06
-6.49592e-07
-1.45488e-06
-9.68375e-07
-1.01969e-06
-1.51918e-06
-3.15089e-07
-1.62582e-06
-1.61488e-06
2.01945e-07
-5.96353e-09
2.11128e-08
-4.57126e-09
-6.38797e-09
1.02023e-09
-2.29923e-08
-1.47375e-09
1.0145e-08
4.19564e-09
-2.34956e-08
7.90753e-10
1.54548e-08
1.34952e-09
-1.62944e-09
-6.4675e-09
3.53428e-08
-1.55297e-08
4.27814e-08
-3.37737e-08
8.04108e-08
-5.82515e-08
1.11815e-07
-9.13183e-08
1.51914e-07
-1.33322e-07
1.97317e-07
-1.84276e-07
2.48205e-07
-2.43544e-07
3.04794e-07
-3.08618e-07
3.66119e-07
-3.74016e-07
4.30602e-07
-4.29152e-07
4.9466e-07
-4.54569e-07
5.5098e-07
-4.1996e-07
5.91178e-07
-2.85211e-07
6.06376e-07
-1.29653e-08
5.833e-07
3.9905e-07
4.88387e-07
8.05863e-07
2.80423e-07
1.02518e-06
-1.31367e-07
1.10533e-06
-7.29742e-07
1.03161e-06
-8.94652e-07
1.05879e-06
-1.54637e-06
9.5459e-07
-1.52162e-06
-1.04384e-06
3.83547e-07
-6.44987e-09
2.75626e-08
-4.75656e-09
-8.08127e-09
1.16458e-09
-2.89135e-08
-1.3523e-09
1.26619e-08
4.81734e-09
-2.96653e-08
1.53154e-09
1.87406e-08
3.83535e-09
-3.93328e-09
-2.58291e-09
4.17611e-08
-9.99771e-09
5.01962e-08
-2.54927e-08
9.59057e-08
-4.55333e-08
1.31856e-07
-7.29009e-08
1.79282e-07
-1.07135e-07
2.31551e-07
-1.47443e-07
2.88513e-07
-1.92657e-07
3.50009e-07
-2.39784e-07
4.13245e-07
-2.84251e-07
4.7507e-07
-3.19102e-07
5.29511e-07
-3.34112e-07
5.6599e-07
-3.20908e-07
5.77973e-07
-2.73444e-07
5.58912e-07
-1.87758e-07
4.97614e-07
-6.94103e-08
3.70039e-07
8.53152e-08
1.25697e-07
2.36708e-07
-2.8276e-07
3.88899e-07
-8.81932e-07
5.77926e-07
-1.08368e-06
3.36877e-07
-1.30532e-06
1.35302e-07
-1.32005e-06
-1.02853e-06
1.19996e-07
-7.07553e-09
3.46381e-08
-5.00013e-09
-1.01567e-08
1.33636e-09
-3.525e-08
-1.21923e-09
1.52175e-08
5.54215e-09
-3.64267e-08
2.43221e-09
2.18506e-08
6.58733e-09
-8.08843e-09
1.80424e-09
4.65442e-08
-3.63147e-09
5.56319e-08
-1.53677e-08
1.07642e-07
-3.06022e-08
1.4709e-07
-5.17429e-08
2.00422e-07
-7.7532e-08
2.5734e-07
-1.06497e-07
3.17479e-07
-1.37806e-07
3.81317e-07
-1.69245e-07
4.44684e-07
-1.9928e-07
5.05106e-07
-2.27984e-07
5.58215e-07
-2.5938e-07
5.97386e-07
-3.00858e-07
6.19452e-07
-3.59859e-07
6.17913e-07
-4.43926e-07
5.81681e-07
-5.56711e-07
4.82824e-07
-6.59726e-07
2.28712e-07
-6.2704e-07
-3.15446e-07
-4.61043e-07
-1.04793e-06
-2.6123e-07
-1.28349e-06
-4.53831e-07
-1.11272e-06
-3.8427e-07
-1.38961e-06
-1.2257e-06
-1.87103e-07
-7.85457e-09
4.24927e-08
-5.30701e-09
-1.27042e-08
1.53352e-09
-4.20905e-08
-1.08265e-09
1.78336e-08
6.32642e-09
-4.38358e-08
3.43317e-09
2.47438e-08
9.66349e-09
-1.43188e-08
5.99025e-09
5.02174e-08
3.84043e-09
5.77817e-08
-3.49142e-09
1.14974e-07
-1.40425e-08
1.57642e-07
-2.84775e-08
2.14857e-07
-4.53856e-08
2.74248e-07
-6.32706e-08
3.35363e-07
-8.20567e-08
4.00103e-07
-1.00757e-07
4.63384e-07
-1.20521e-07
5.2487e-07
-1.45727e-07
5.83421e-07
-1.81632e-07
6.3329e-07
-2.43593e-07
6.81413e-07
-3.48107e-07
7.22427e-07
-5.22103e-07
7.55678e-07
-7.48512e-07
7.09233e-07
-9.10552e-07
3.90752e-07
-7.73852e-07
-4.52146e-07
-5.93818e-07
-1.22796e-06
-4.29573e-07
-1.44774e-06
-1.24168e-07
-1.41812e-06
6.50948e-08
-1.57887e-06
-1.07791e-06
-8.26931e-08
-8.80493e-09
5.12976e-08
-5.68115e-09
-1.5828e-08
1.7586e-09
-4.95303e-08
-9.52571e-10
2.05448e-08
7.12628e-09
-5.19147e-08
4.47798e-09
2.73921e-08
1.30134e-08
-2.28543e-08
1.06762e-08
5.25546e-08
1.25709e-08
5.5887e-08
8.83772e-09
1.18707e-07
3.28868e-09
1.63191e-07
-3.53146e-09
2.21677e-07
-1.14691e-08
2.82185e-07
-1.78217e-08
3.41716e-07
-2.21107e-08
4.04392e-07
-2.25707e-08
4.63844e-07
-2.03495e-08
5.22648e-07
-2.22504e-08
5.85322e-07
-3.66863e-08
6.47726e-07
-8.33129e-08
7.2804e-07
-1.73218e-07
8.12332e-07
-3.26091e-07
9.08551e-07
-5.03788e-07
8.8693e-07
-5.92532e-07
4.79495e-07
-5.42663e-07
-5.02015e-07
-6.01484e-07
-1.16914e-06
-6.00289e-07
-1.44893e-06
-2.23549e-07
-1.79486e-06
-1.8085e-07
-1.62157e-06
-1.32514e-06
6.63773e-08
-9.94743e-09
6.1245e-08
-6.13037e-09
-1.96451e-08
2.01264e-09
-5.76734e-08
-8.43476e-10
2.34009e-08
7.89022e-09
-6.06484e-08
5.50358e-09
2.97787e-08
1.65486e-08
-3.38993e-08
1.56154e-08
5.34878e-08
2.15769e-08
4.99254e-08
2.13996e-08
1.18884e-07
2.16744e-08
1.62916e-07
2.14624e-08
2.21889e-07
2.18745e-08
2.81773e-07
2.56445e-08
3.37946e-07
3.27112e-08
3.97325e-07
4.5538e-08
4.51017e-07
6.31402e-08
5.05046e-07
8.66068e-08
5.61856e-07
1.20938e-07
6.13395e-07
1.69963e-07
6.79014e-07
2.33589e-07
7.48706e-07
3.14431e-07
8.27709e-07
3.96344e-07
8.05018e-07
4.7087e-07
4.04969e-07
3.98382e-07
-4.29527e-07
2.86309e-07
-1.05707e-06
1.35757e-07
-1.29838e-06
-6.23011e-08
-1.5968e-06
-1.7766e-07
-1.50621e-06
-1.55277e-06
4.99665e-08
-1.13086e-08
7.25536e-08
-6.65722e-09
-2.42965e-08
2.30658e-09
-6.66372e-08
-8.26452e-10
2.65339e-08
8.56037e-09
-7.00353e-08
6.44369e-09
3.18953e-08
2.01784e-08
-4.76341e-08
2.06213e-08
5.30449e-08
3.0769e-08
3.97777e-08
3.42145e-08
1.15439e-07
4.00522e-08
1.57078e-07
4.60002e-08
2.15941e-07
5.40666e-08
2.73707e-07
6.79937e-08
3.24019e-07
8.82476e-08
3.77072e-07
1.20881e-07
4.18383e-07
1.67926e-07
4.58001e-07
2.31559e-07
4.98223e-07
3.27557e-07
5.17398e-07
4.50345e-07
5.56226e-07
6.51896e-07
5.47155e-07
9.32192e-07
5.47413e-07
1.17508e-06
5.62127e-07
1.33894e-06
2.41108e-07
1.25661e-06
-3.47197e-07
1.10699e-06
-9.07449e-07
8.5622e-07
-1.04761e-06
3.88458e-07
-1.12904e-06
1.58532e-07
-1.27629e-06
-1.33177e-06
-6.24677e-08
-1.29169e-08
8.54705e-08
-7.27065e-09
-2.99428e-08
2.65226e-09
-7.65601e-08
-8.53843e-10
3.00399e-08
9.07593e-09
-7.99651e-08
7.23263e-09
3.37386e-08
2.38111e-08
-6.42126e-08
2.55179e-08
5.13381e-08
3.9984e-08
2.53116e-08
4.69248e-08
1.08498e-07
5.79957e-08
1.46007e-07
6.95063e-08
2.04431e-07
8.3768e-08
2.59445e-07
1.05053e-07
3.02734e-07
1.32228e-07
3.49896e-07
1.73284e-07
3.77328e-07
2.28932e-07
4.02353e-07
3.01176e-07
4.25978e-07
4.09203e-07
4.09371e-07
5.4877e-07
4.16659e-07
7.1874e-07
3.77185e-07
9.43675e-07
3.22478e-07
1.14625e-06
3.59552e-07
1.36179e-06
2.55661e-08
1.34896e-06
-3.34363e-07
1.10535e-06
-6.6384e-07
8.36748e-07
-7.79007e-07
5.13437e-07
-8.05732e-07
1.69839e-07
-9.32687e-07
-1.01821e-06
-1.43713e-07
-1.48085e-08
1.00279e-07
-7.97175e-09
-3.67796e-08
3.07278e-09
-8.76047e-08
-9.29863e-10
3.40425e-08
9.36209e-09
-9.02571e-08
7.80401e-09
3.52967e-08
2.73588e-08
-8.37674e-08
3.01424e-08
4.85546e-08
4.90652e-08
6.38869e-09
5.92662e-08
9.82971e-08
7.52745e-08
1.29999e-07
9.18434e-08
1.87862e-07
1.11173e-07
2.40116e-07
1.39125e-07
2.74781e-07
1.71487e-07
3.17535e-07
2.18718e-07
3.30096e-07
2.77151e-07
3.4392e-07
3.37079e-07
3.6605e-07
4.45379e-07
3.01071e-07
4.86118e-07
3.75919e-07
6.60818e-07
2.02485e-07
8.09399e-07
1.73897e-07
8.43224e-07
3.25727e-07
1.00204e-06
-1.33251e-07
8.81788e-07
-2.1411e-07
6.03057e-07
-3.85109e-07
3.75062e-07
-5.51011e-07
2.7483e-07
-7.055e-07
7.24423e-08
-7.303e-07
-8.3772e-07
-1.08052e-07
-1.70253e-08
1.17304e-07
-8.77049e-09
-4.50344e-08
3.59652e-09
-9.99717e-08
-1.05842e-09
3.86974e-08
9.33379e-09
-1.00649e-07
8.09719e-09
3.65333e-08
3.07305e-08
-1.06401e-07
3.43359e-08
4.49492e-08
5.78667e-08
-1.71421e-08
7.0988e-08
8.51758e-08
9.16192e-08
1.09367e-07
1.12223e-07
1.67258e-07
1.34879e-07
2.17459e-07
1.66782e-07
2.42878e-07
2.00626e-07
2.83691e-07
2.50477e-07
2.80246e-07
3.11439e-07
2.82957e-07
3.57186e-07
3.20303e-07
4.82618e-07
1.75638e-07
4.64755e-07
3.93781e-07
6.36288e-07
3.09527e-08
6.31172e-07
1.79013e-07
6.69585e-07
2.87314e-07
6.77355e-07
-1.4102e-07
5.30932e-07
-6.76877e-08
4.38098e-07
-2.92275e-07
2.95496e-07
-4.08409e-07
2.85788e-07
-6.95793e-07
1.70631e-07
-6.15143e-07
-5.87524e-07
-7.95644e-08
-1.96175e-08
1.36922e-07
-9.66711e-09
-5.49849e-08
4.26392e-09
-1.13903e-07
-1.32192e-09
4.42832e-08
8.88666e-09
-1.10858e-07
8.05768e-09
3.73622e-08
3.3853e-08
-1.32196e-07
3.80041e-08
4.0798e-08
6.65974e-08
-4.57355e-08
8.25741e-08
6.9199e-08
1.07448e-07
8.44936e-08
1.31813e-07
1.42893e-07
1.57426e-07
1.91846e-07
1.89823e-07
2.1048e-07
2.21143e-07
2.52371e-07
2.70744e-07
2.30645e-07
2.98788e-07
2.54913e-07
3.86584e-07
2.32507e-07
3.75659e-07
1.86564e-07
4.93548e-07
2.75892e-07
5.02703e-07
2.17979e-08
4.65966e-07
2.15749e-07
6.80321e-07
7.29599e-08
5.45151e-07
-5.85007e-09
4.79296e-07
-1.83265e-09
6.23477e-07
-4.36455e-07
5.20613e-07
-3.05545e-07
4.57588e-07
-6.32768e-07
2.74227e-07
-4.31782e-07
-1.67672e-07
-1.45625e-07
-2.26429e-08
1.59565e-07
-1.06665e-08
-6.69614e-08
5.12565e-09
-1.29695e-07
-1.69263e-09
5.11015e-08
7.89338e-09
-1.20444e-07
7.64024e-09
3.76153e-08
3.6596e-08
-1.61152e-07
4.03838e-08
3.70102e-08
7.22615e-08
-7.76132e-08
8.99845e-08
5.14758e-08
1.19202e-07
5.52761e-08
1.45236e-07
1.16858e-07
1.70249e-07
1.66833e-07
2.06933e-07
1.73796e-07
2.34804e-07
2.245e-07
2.94446e-07
1.71003e-07
3.20196e-07
2.29162e-07
3.85525e-07
1.67178e-07
4.1544e-07
1.56649e-07
4.19535e-07
2.71797e-07
3.38125e-07
1.03208e-07
5.28468e-07
2.54065e-08
4.72027e-07
1.29401e-07
3.06315e-07
1.59863e-07
2.36607e-07
6.78754e-08
5.15327e-07
-7.15176e-07
6.59242e-07
-4.4946e-07
4.84269e-07
-4.57795e-07
2.81755e-07
-2.29267e-07
2.35346e-07
-1.21263e-07
-2.61703e-08
1.85735e-07
-1.17704e-08
-8.13612e-08
6.25655e-09
-1.47722e-07
-2.15248e-09
5.95105e-08
6.16451e-09
-1.28761e-07
6.83203e-09
3.69478e-08
3.90843e-08
-1.93404e-07
4.43379e-08
3.17565e-08
8.63516e-08
-1.19627e-07
1.06079e-07
3.17487e-08
1.4017e-07
2.11843e-08
1.69851e-07
8.71771e-08
1.97154e-07
1.3953e-07
2.22894e-07
1.48056e-07
2.52531e-07
1.94864e-07
2.91567e-07
1.31967e-07
2.93732e-07
2.26998e-07
4.08972e-07
5.19383e-08
3.70669e-07
1.94951e-07
2.35353e-07
4.07114e-07
3.98699e-07
-6.01386e-08
7.48164e-07
-3.24059e-07
5.50588e-07
3.26977e-07
3.3032e-07
3.80131e-07
3.76245e-07
2.19507e-08
4.60595e-07
-7.99526e-07
4.74195e-07
-4.6306e-07
2.06184e-07
-1.89783e-07
1.28297e-07
-1.5138e-07
3.42784e-07
2.08586e-08
-3.02796e-08
2.16015e-07
-1.29799e-08
-9.8661e-08
7.74847e-09
-1.6845e-07
-2.70823e-09
6.99672e-08
3.33511e-09
-1.34804e-07
5.41713e-09
3.48658e-08
4.04198e-08
-2.28407e-07
4.12392e-08
3.0937e-08
7.95325e-08
-1.5792e-07
1.00752e-07
1.0529e-08
1.36714e-07
-1.47782e-08
1.66189e-07
5.77029e-08
1.92109e-07
1.1361e-07
2.287e-07
1.11465e-07
2.46465e-07
1.77098e-07
3.30532e-07
4.79001e-08
3.27733e-07
2.29797e-07
5.22854e-07
-1.43183e-07
4.88067e-07
2.29739e-07
5.19023e-07
3.76158e-07
8.00984e-07
-3.421e-07
1.05181e-06
-5.74882e-07
1.33705e-06
4.1739e-08
8.88432e-07
8.28745e-07
6.33867e-07
2.76515e-07
2.46093e-07
-4.11752e-07
-9.12322e-08
-1.25735e-07
-8.4257e-08
-1.96758e-07
1.40807e-09
-2.37045e-07
2.91254e-07
5.29382e-08
-3.5067e-08
2.51082e-07
-1.42914e-08
-1.19437e-07
9.7299e-09
-1.92472e-07
-3.36714e-09
8.30642e-08
-1.10684e-10
-1.38061e-07
4.26939e-09
3.04857e-08
4.30055e-08
-2.67143e-07
4.82175e-08
2.57249e-08
1.07238e-07
-2.16941e-07
1.30014e-07
-1.2247e-08
1.80206e-07
-6.49699e-08
2.16054e-07
2.18553e-08
2.37035e-07
9.26285e-08
2.44967e-07
1.03533e-07
2.82188e-07
1.39877e-07
2.85791e-07
4.42967e-08
3.91771e-07
1.23817e-07
3.42951e-07
-9.43628e-08
5.49224e-07
2.3466e-08
8.42351e-07
8.30312e-08
9.37091e-07
-4.3684e-07
8.21291e-07
-4.59083e-07
6.68276e-07
1.94754e-07
6.58382e-07
8.38639e-07
8.018e-07
1.33097e-07
5.88147e-07
-1.98098e-07
2.44224e-07
2.18188e-07
4.65323e-08
9.33521e-10
-3.44096e-08
-1.56103e-07
4.05421e-07
-1.48576e-07
-4.0647e-08
2.91729e-07
-1.56967e-08
-1.44387e-07
1.23456e-08
-2.20514e-07
-4.22272e-09
9.96325e-08
-3.27892e-09
-1.39004e-07
1.19233e-09
2.60144e-08
4.1277e-08
-3.07228e-07
3.6825e-08
3.01768e-08
8.21368e-08
-2.62253e-07
1.01642e-07
-3.17525e-08
1.41848e-07
-1.05176e-07
1.71189e-07
-7.48523e-09
2.02699e-07
6.11183e-08
2.21168e-07
8.50644e-08
2.31298e-07
1.29747e-07
2.68368e-07
7.22625e-09
3.00206e-07
9.19799e-08
2.06599e-07
-7.56517e-10
2.98208e-07
-6.81432e-08
4.88428e-07
-1.07189e-07
3.52342e-07
-3.00754e-07
5.5483e-08
-1.62224e-07
-2.44587e-08
2.74696e-07
3.59639e-07
4.54541e-07
2.16922e-07
2.75814e-07
-2.39878e-08
4.28119e-08
-4.38059e-08
2.38006e-07
-2.06896e-07
1.64024e-07
-1.78522e-07
-1.84478e-07
1.71757e-07
5.5142e-08
-4.71546e-08
3.38883e-07
-1.71869e-08
-1.74355e-07
1.57549e-08
-2.53456e-07
-4.58166e-09
1.19969e-07
-6.79329e-09
-1.36793e-07
3.41914e-10
1.88791e-08
4.50516e-08
-3.51937e-07
4.68853e-08
2.8343e-08
1.25686e-07
-3.41054e-07
1.52419e-07
-5.84856e-08
2.2997e-07
-1.82727e-07
2.88232e-07
-6.57471e-08
2.85874e-07
6.34765e-08
2.57799e-07
1.1314e-07
2.81744e-07
1.05802e-07
2.39022e-07
4.99482e-08
2.59993e-07
7.10088e-08
1.72761e-07
8.64753e-08
7.4542e-08
3.0076e-08
-1.64144e-07
1.31497e-07
-4.68854e-07
3.95628e-09
-6.10384e-07
-2.06934e-08
-5.24655e-07
1.88967e-07
-5.83033e-07
5.12919e-07
-8.14064e-07
5.06846e-07
-7.95534e-07
2.42821e-08
-6.20154e-07
6.26253e-08
-2.58107e-07
-1.98023e-07
-1.82392e-07
-2.60192e-07
-1.76076e-07
1.6544e-07
-5.4749e-08
3.93632e-07
-1.87556e-08
-2.10348e-07
2.01379e-08
-2.92349e-07
-7.01369e-09
1.47121e-07
-1.26872e-08
-1.31119e-07
-9.13732e-09
1.53292e-08
3.90001e-08
-4.00075e-07
2.68576e-08
4.04855e-08
7.76275e-08
-3.91824e-07
9.37858e-08
-7.46438e-08
1.4435e-07
-2.33292e-07
1.59504e-07
-8.09002e-08
2.09792e-07
1.31878e-08
2.05145e-07
1.17787e-07
2.14233e-07
9.67136e-08
3.08364e-07
-4.41824e-08
2.78194e-07
1.01178e-07
2.43779e-07
1.2089e-07
2.21243e-07
5.26122e-08
1.60709e-07
1.92031e-07
-8.29491e-09
1.7296e-07
-1.25697e-07
9.67088e-08
-1.74217e-07
2.37488e-07
8.82228e-08
2.50479e-07
4.1309e-07
1.81978e-07
4.02773e-07
3.45987e-08
3.9827e-07
6.71287e-08
2.8452e-07
-8.42735e-08
9.90041e-08
-7.46761e-08
4.96853e-08
-1.26757e-07
-6.36226e-08
4.57255e-07
-2.0348e-08
-2.53623e-07
2.57721e-08
-3.38469e-07
-5.13984e-09
1.78033e-07
-1.76413e-08
-1.18618e-07
-8.56846e-09
6.25632e-09
4.45751e-08
-4.53218e-07
3.90805e-08
4.598e-08
1.4112e-07
-4.93864e-07
1.63953e-07
-9.74761e-08
2.89227e-07
-3.58566e-07
4.09235e-07
-2.00909e-07
3.67839e-07
5.45844e-08
2.89101e-07
1.96525e-07
3.07095e-07
7.87189e-08
2.51272e-07
1.1641e-08
3.24096e-07
2.83547e-08
3.30518e-07
1.14468e-07
2.4773e-07
1.354e-07
3.77459e-08
4.02016e-07
-2.62708e-07
4.73413e-07
-4.75078e-07
3.09079e-07
-1.15093e-07
-1.22497e-07
3.4781e-07
-2.12425e-07
3.54248e-07
1.7554e-07
4.73727e-07
-8.48801e-08
7.09867e-07
-1.69011e-07
5.60358e-07
6.52356e-08
3.86363e-07
9.93193e-08
1.67432e-07
2.68616e-07
-7.40021e-08
5.31257e-07
-2.20127e-08
-3.05612e-07
3.28995e-08
-3.93382e-07
-1.09917e-08
2.21924e-07
-2.86757e-08
-1.00934e-07
-2.24206e-08
1.27107e-12
3.37528e-08
-5.09392e-07
1.04274e-08
6.93055e-08
5.98546e-08
-5.43291e-07
7.41954e-08
-1.11817e-07
1.44352e-07
-4.28722e-07
1.53688e-07
-2.10245e-07
2.1686e-07
-8.58752e-09
1.37384e-07
2.76e-07
1.81751e-07
3.43518e-08
4.20359e-07
-2.26967e-07
3.21679e-07
1.27034e-07
2.39827e-07
1.96321e-07
2.61227e-07
1.13999e-07
3.3036e-07
3.32883e-07
2.01917e-07
6.01857e-07
-3.62106e-07
8.73102e-07
-7.18866e-07
2.34263e-07
-1.06883e-06
1.37537e-07
-9.10306e-07
1.70179e-08
-3.79689e-07
-6.15497e-07
1.94848e-07
-7.43548e-07
5.82121e-07
-3.22038e-07
2.79909e-07
4.01531e-07
-4.27498e-07
8.74839e-07
-8.61236e-08
6.1738e-07
-2.35298e-08
-3.68206e-07
4.20043e-08
-4.58916e-07
-5.10821e-09
2.69036e-07
-3.49443e-08
-7.10977e-08
-1.79478e-08
-1.69953e-08
4.26138e-08
-5.69954e-07
2.39108e-08
8.80085e-08
1.49122e-07
-6.68502e-07
1.47474e-07
-1.10169e-07
3.44086e-07
-6.25334e-07
6.04084e-07
-4.70243e-07
4.93645e-07
1.01851e-07
3.47062e-07
4.22584e-07
3.54214e-07
2.71999e-08
2.26677e-07
-9.94302e-08
4.67849e-07
-1.14138e-07
5.79852e-07
8.43171e-08
3.81498e-07
3.12354e-07
1.24774e-06
-5.33356e-07
1.14851e-06
7.0108e-07
4.37451e-07
1.58416e-06
-8.36151e-08
7.55329e-07
-4.12963e-07
4.66885e-07
-6.94233e-07
2.98287e-07
-2.01084e-07
-1.10865e-06
-2.59077e-08
-9.18724e-07
1.01184e-06
-1.35978e-06
1.10551e-06
3.07862e-07
-6.20802e-07
1.29881e-06
-1.00407e-07
7.17787e-07
-2.53072e-08
-4.43306e-07
5.33165e-08
-5.37539e-07
-1.56991e-08
3.38052e-07
-5.31555e-08
-3.36413e-08
-3.98522e-08
-3.02986e-08
2.77863e-08
-6.37592e-07
-1.61084e-08
1.31903e-07
1.85842e-08
-7.03195e-07
3.33732e-08
-1.24958e-07
1.6072e-07
-7.52681e-07
1.85801e-07
-4.95324e-07
2.35185e-07
5.2467e-08
-3.69174e-08
6.94686e-07
1.18154e-07
-1.27871e-07
5.60439e-07
-5.41716e-07
5.1329e-07
-6.69891e-08
9.27732e-07
-3.30124e-07
8.07832e-07
4.32253e-07
1.51472e-06
-1.24025e-06
1.69246e-06
5.23345e-07
-6.51251e-07
3.92787e-06
-1.98246e-06
2.08654e-06
-4.2857e-07
-1.08701e-06
-3.59525e-07
2.29242e-07
-4.16025e-07
-1.05215e-06
-2.87596e-07
-1.04715e-06
-3.69871e-07
-1.27751e-06
1.70802e-07
-2.32812e-07
-2.88198e-07
-1.61804e-07
-1.17071e-07
8.34858e-07
-2.59591e-08
-5.34418e-07
6.80949e-08
-6.31593e-07
-4.48124e-09
4.10628e-07
-6.2284e-08
2.41614e-08
-2.60817e-08
-6.65009e-08
4.06977e-08
-7.04371e-07
4.32342e-09
1.68277e-07
1.42697e-07
-8.41569e-07
6.51581e-08
-4.74191e-08
3.3153e-07
-1.01905e-06
9.37418e-07
-1.10121e-06
6.81088e-07
3.08797e-07
3.58251e-07
1.01752e-06
4.20789e-07
-1.90409e-07
6.23436e-07
-7.44363e-07
9.11946e-07
-3.55499e-07
-1.00541e-07
6.82363e-07
7.55882e-07
-4.2417e-07
1.11513e-06
-1.59949e-06
2.21847e-06
-5.79993e-07
8.91496e-07
5.25484e-06
1.86686e-07
2.79135e-06
2.08745e-06
-2.98777e-06
1.6007e-06
7.15991e-07
1.65015e-06
-1.1016e-06
4.91775e-07
1.11224e-07
-1.56975e-06
7.84021e-07
-1.77614e-07
-1.62495e-06
-1.62355e-06
1.15774e-06
-1.36744e-07
9.71602e-07
-2.92343e-08
-6.41927e-07
8.51043e-08
-7.45932e-07
-2.2029e-08
5.17761e-07
-8.90436e-08
9.1176e-08
-5.90733e-08
-9.64712e-08
3.62695e-08
-7.99714e-07
-3.3182e-08
2.37729e-07
-4.87325e-08
-8.26018e-07
-3.41009e-08
-6.20508e-08
1.23991e-07
-1.17714e-06
2.35059e-07
-1.21228e-06
3.04867e-07
2.3899e-07
-2.65122e-07
1.58751e-06
2.51129e-07
-7.0666e-07
1.07671e-06
-1.56994e-06
6.49416e-07
7.17903e-08
5.99506e-07
7.32273e-07
1.23209e-06
-1.05676e-06
-7.95776e-07
4.28377e-07
-2.79007e-06
1.4143e-06
-3.44878e-07
2.80965e-06
5.63266e-07
1.8832e-06
2.02454e-06
-4.44904e-06
2.35591e-06
3.84619e-07
2.93606e-06
-1.68175e-06
1.6581e-06
1.38918e-06
5.94234e-07
1.84788e-06
1.69039e-06
-2.72111e-06
-1.52503e-06
1.59187e-06
-1.57249e-07
1.12885e-06
-2.40196e-08
-7.75156e-07
1.10422e-07
-8.80373e-07
-3.39638e-09
6.31579e-07
-1.05902e-07
1.93682e-07
-3.37604e-08
-1.68613e-07
2.82495e-08
-8.61724e-07
3.36336e-08
2.32345e-07
1.64463e-07
-9.56847e-07
-1.60123e-07
2.62534e-07
-6.98338e-07
-6.3893e-07
4.09396e-07
-2.32001e-06
1.0114e-06
-3.6301e-07
1.51533e-06
1.08357e-06
2.14359e-06
-1.33491e-06
1.79809e-06
-1.22444e-06
2.99169e-07
1.57071e-06
9.04771e-07
1.26671e-07
-7.86942e-09
-1.44119e-07
-8.29336e-07
1.24984e-06
-1.70642e-06
2.29139e-06
-1.26481e-06
2.36803e-06
3.42421e-07
2.75974e-07
8.26932e-07
-4.93355e-06
2.16642e-06
-9.54867e-07
1.82659e-06
-1.34192e-06
1.61982e-06
1.59595e-06
3.21966e-06
2.48041e-07
1.84191e-06
-1.34336e-06
-7.00418e-07
1.0173e-06
-2.24274e-07
1.35313e-06
-2.89285e-08
-9.70502e-07
1.32902e-07
-1.0422e-06
-3.30232e-08
7.97505e-07
-1.43685e-07
3.04343e-07
-6.63279e-08
-2.4597e-07
1.14868e-07
-1.04292e-06
2.55722e-07
9.14907e-08
2.97901e-07
-9.99026e-07
4.14527e-08
5.18983e-07
-1.58826e-06
9.90779e-07
-6.27263e-07
-3.28101e-06
1.42708e-07
-1.13298e-06
7.26882e-07
4.994e-07
2.26346e-06
-2.87149e-06
3.82039e-07
6.56982e-07
9.12972e-07
1.03977e-06
8.9653e-07
1.43113e-07
5.987e-07
1.53712e-07
2.03052e-06
-1.81974e-07
6.16443e-06
-1.84253e-06
7.43869e-06
1.09377e-06
4.78231e-06
2.93236e-06
2.46006e-07
-3.9725e-07
-6.70483e-07
-3.83768e-08
-1.17796e-07
-1.8946e-06
1.23031e-06
2.47848e-07
1.84651e-06
-3.68162e-07
8.0327e-07
-3.00116e-07
-6.27381e-07
7.30233e-07
4.062e-07
9.46925e-07
7.25452e-08
-6.36847e-07
2.38933e-07
-1.20859e-06
1.49853e-08
1.02145e-06
-2.54011e-07
5.7334e-07
-1.56945e-07
-3.43036e-07
-6.70468e-07
-5.29397e-07
-6.41253e-07
6.22763e-08
-2.41525e-06
7.74972e-07
-2.79088e-07
-1.61718e-06
3.06954e-06
-2.35785e-06
5.90425e-07
-8.01895e-07
-1.4591e-06
9.16549e-07
-3.15624e-06
2.19654e-06
-3.91546e-06
-2.11227e-06
-1.13782e-06
-2.12066e-06
2.34839e-07
-3.32886e-07
1.04954e-08
3.67456e-07
7.58375e-07
-5.94168e-07
5.99584e-07
-2.31836e-08
-1.46659e-07
-1.09629e-06
1.08287e-06
-1.35765e-07
2.5451e-06
1.47013e-06
3.32176e-06
-1.1739e-06
3.07144e-06
2.1195e-07
1.51584e-06
-3.39003e-07
1.83183e-06
-6.8144e-08
1.22433e-06
2.39335e-07
9.79628e-07
-5.54122e-08
7.34693e-07
-3.82446e-07
-9.04863e-08
-1.97973e-07
2.6207e-07
-3.52557e-07
9.85235e-07
-7.23165e-07
2.1436e-06
-1.15836e-06
3.13042e-06
-9.86827e-07
3.35652e-06
-2.26097e-07
2.93027e-06
4.26255e-07
2.29943e-06
6.30832e-07
1.74165e-06
5.5778e-07
1.31313e-06
4.28523e-07
9.92451e-07
3.20679e-07
7.50422e-07
2.42029e-07
5.65465e-07
1.84956e-07
4.2268e-07
1.42785e-07
3.11783e-07
1.10898e-07
2.2565e-07
8.61327e-08
1.59252e-07
6.63985e-08
1.08864e-07
5.03882e-08
7.16811e-08
3.71827e-08
4.53161e-08
2.63651e-08
2.79928e-08
1.73233e-08
1.7716e-08
1.02769e-08
1.27205e-08
4.99558e-09
1.13063e-08
1.41425e-09
1.11082e-08
1.98188e-10
1.07197e-08
3.8844e-10
1.04191e-08
3.00695e-10
3.66202e-09
6.75705e-09
7.55878e-09
-3.89675e-09
7.55875e-09
1.07344e-06
-1.25768e-06
1.86887e-06
-1.14798e-06
2.38503e-06
-1.23933e-06
2.55469e-06
-1.32803e-06
2.6198e-06
-1.05193e-06
2.51432e-06
-1.20616e-07
2.20115e-06
7.39419e-07
1.81428e-06
1.01771e-06
1.44945e-06
9.22602e-07
1.14737e-06
7.30604e-07
9.04431e-07
5.63621e-07
7.09209e-07
4.37251e-07
5.51622e-07
3.42544e-07
4.23981e-07
2.70426e-07
3.20811e-07
2.14068e-07
2.38129e-07
1.68815e-07
1.72828e-07
1.317e-07
1.22272e-07
1.00944e-07
8.4311e-08
7.51434e-08
5.68481e-08
5.38281e-08
3.83834e-08
3.57882e-08
2.69402e-08
2.17202e-08
2.08195e-08
1.11164e-08
1.83364e-08
3.89745e-09
1.70663e-08
1.46833e-09
1.52775e-08
2.17725e-09
1.40871e-08
1.49108e-09
5.71023e-09
1.51339e-08
8.91926e-09
-7.10575e-09
1.6478e-08
5.87967e-07
-1.6437e-06
1.14349e-06
-1.7035e-06
1.54361e-06
-1.63945e-06
1.27956e-06
-1.06398e-06
8.88526e-07
-6.60891e-07
6.68759e-07
9.9151e-08
6.87029e-07
7.21149e-07
7.65378e-07
9.39358e-07
7.95709e-07
8.92272e-07
7.56134e-07
7.70178e-07
6.72767e-07
6.46988e-07
5.70859e-07
5.39159e-07
4.67071e-07
4.46332e-07
3.71003e-07
3.66493e-07
2.86973e-07
2.98098e-07
2.16209e-07
2.3958e-07
1.58543e-07
1.89365e-07
1.12939e-07
1.46549e-07
7.83033e-08
1.09779e-07
5.29987e-08
7.91327e-08
3.60887e-08
5.26982e-08
2.56685e-08
3.21405e-08
2.025e-08
1.65349e-08
1.82744e-08
5.87313e-09
1.72009e-08
2.5419e-09
1.55144e-08
3.86375e-09
1.43028e-08
2.70266e-09
5.66181e-09
2.37748e-08
9.10084e-09
-1.05448e-08
2.55788e-08
-4.10903e-07
-8.4925e-07
-7.72659e-07
-1.34174e-06
-8.14674e-07
-1.59743e-06
-9.18055e-07
-9.60599e-07
-9.33552e-07
-6.45393e-07
-7.80232e-07
-5.41692e-08
-3.94153e-07
3.3507e-07
2.98425e-09
5.4222e-07
2.70659e-07
6.24596e-07
4.03966e-07
6.36872e-07
4.39371e-07
6.11583e-07
4.16082e-07
5.62447e-07
3.6397e-07
4.98444e-07
3.01861e-07
4.28603e-07
2.40189e-07
3.59769e-07
1.8438e-07
2.95389e-07
1.36988e-07
2.36757e-07
9.8355e-08
1.85182e-07
6.8639e-08
1.39495e-07
4.65748e-08
1.01197e-07
3.20947e-08
6.71784e-08
2.3288e-08
4.09472e-08
1.90033e-08
2.08196e-08
1.78493e-08
7.02718e-09
1.71416e-08
3.24957e-09
1.56739e-08
5.33149e-09
1.44719e-08
3.90463e-09
5.49253e-09
3.27542e-08
9.32297e-09
-1.43752e-08
3.49018e-08
1.27068e-07
-8.56322e-07
-7.6779e-08
-1.1379e-06
-3.96649e-07
-1.27756e-06
-3.23262e-07
-1.03399e-06
-2.57868e-07
-7.10788e-07
-1.31995e-07
-1.80042e-07
4.19701e-09
1.98878e-07
1.27317e-07
4.191e-07
2.23352e-07
5.28561e-07
2.8203e-07
5.78193e-07
3.04908e-07
5.88705e-07
2.97502e-07
5.69853e-07
2.69165e-07
5.2678e-07
2.30191e-07
4.67576e-07
1.87931e-07
4.02029e-07
1.47063e-07
3.36257e-07
1.10946e-07
2.72874e-07
8.02185e-08
2.15909e-07
5.65199e-08
1.63193e-07
3.83507e-08
1.19366e-07
2.6987e-08
7.85421e-08
2.02237e-08
4.77105e-08
1.74064e-08
2.3637e-08
1.73132e-08
7.12042e-09
1.70857e-08
3.47703e-09
1.58969e-08
6.52035e-09
1.47009e-08
5.10057e-09
5.25792e-09
4.21971e-08
9.62204e-09
-1.87392e-08
4.45238e-08
1.8606e-07
-1.22948e-06
3.97494e-07
-1.34933e-06
2.01208e-07
-1.08128e-06
3.89367e-07
-1.22214e-06
5.12942e-07
-8.34363e-07
4.87975e-07
-1.55074e-07
3.99678e-07
2.87175e-07
3.2598e-07
4.92799e-07
2.74634e-07
5.79907e-07
2.40629e-07
6.12199e-07
2.17587e-07
6.11747e-07
1.99639e-07
5.87801e-07
1.80354e-07
5.46065e-07
1.57532e-07
4.90399e-07
1.32135e-07
4.27426e-07
1.0587e-07
3.62521e-07
8.16708e-08
2.97073e-07
5.9394e-08
2.38186e-07
4.25975e-08
1.7999e-07
2.86349e-08
1.33329e-07
2.10169e-08
8.61602e-08
1.66022e-08
5.21252e-08
1.55341e-08
2.47051e-08
1.67152e-08
5.93934e-09
1.70622e-08
3.13001e-09
1.62013e-08
7.38125e-09
1.49986e-08
6.30326e-09
4.95508e-09
5.22406e-08
1.00021e-08
-2.37862e-08
5.45258e-08
-1.72785e-07
-1.13939e-06
6.22179e-08
-1.58433e-06
2.95687e-07
-1.31475e-06
4.85727e-07
-1.41218e-06
7.01556e-07
-1.05019e-06
7.62939e-07
-2.16458e-07
5.76351e-07
4.73763e-07
3.84832e-07
6.84318e-07
2.52049e-07
7.1269e-07
1.77117e-07
6.87131e-07
1.35852e-07
6.53011e-07
1.14433e-07
6.09221e-07
9.96496e-08
5.60849e-07
8.8065e-08
5.01984e-07
7.61682e-08
4.39323e-07
6.28834e-08
3.75806e-07
5.01822e-08
3.09775e-07
3.66321e-08
2.51736e-07
2.70406e-08
1.89581e-07
1.77892e-08
1.4258e-07
1.42959e-08
8.96536e-08
1.25799e-08
5.38411e-08
1.34238e-08
2.38613e-08
1.61117e-08
3.25137e-09
1.71025e-08
2.13927e-09
1.66062e-08
7.87749e-09
1.53734e-08
7.53601e-09
4.5791e-09
6.3035e-08
1.04671e-08
-2.96742e-08
6.4993e-08
2.56323e-07
-1.32934e-06
2.76243e-07
-1.60425e-06
5.92314e-07
-1.63082e-06
5.3081e-07
-1.35068e-06
5.14446e-07
-1.03383e-06
5.64614e-07
-2.66626e-07
4.32204e-07
6.06173e-07
2.47532e-07
8.6899e-07
1.06447e-07
8.53775e-07
3.15837e-08
7.61995e-07
-2.56072e-09
6.87156e-07
-6.27607e-09
6.12936e-07
1.342e-09
5.53231e-07
1.09918e-08
4.92334e-07
1.71209e-08
4.33194e-07
1.84588e-08
3.74469e-07
1.73566e-08
3.10877e-07
1.2762e-08
2.56331e-07
1.01966e-08
1.92147e-07
6.35517e-09
1.46422e-07
6.76205e-09
8.92467e-08
8.15428e-09
5.24489e-08
1.11377e-08
2.08779e-08
1.55656e-08
-1.17648e-09
1.72439e-08
4.60907e-10
1.71336e-08
7.98776e-09
1.58342e-08
8.83547e-09
4.12313e-09
7.4746e-08
1.10227e-08
-3.65737e-08
7.60157e-08
2.32429e-07
-1.5118e-06
7.08863e-08
-1.44271e-06
-7.55551e-08
-1.48438e-06
-2.75412e-07
-1.15082e-06
-3.9379e-07
-9.15451e-07
-4.32179e-07
-2.28237e-07
-3.6334e-07
5.37334e-07
-3.04981e-07
8.10631e-07
-2.45297e-07
7.94091e-07
-1.89042e-07
7.0574e-07
-1.42562e-07
6.40675e-07
-1.05896e-07
5.76271e-07
-7.80234e-08
5.25358e-07
-5.45751e-08
4.68886e-07
-3.58654e-08
4.14484e-07
-2.33899e-08
3.61993e-07
-1.45262e-08
3.02013e-07
-1.05884e-08
2.52393e-07
-6.97417e-09
1.88533e-07
-5.42418e-09
1.44872e-07
-1.35916e-09
8.51817e-08
3.60813e-09
4.74816e-08
8.78656e-09
1.56995e-08
1.51417e-08
-7.53163e-09
1.75291e-08
-1.92645e-09
1.78085e-08
7.70834e-09
1.63915e-08
1.02525e-08
3.58061e-09
8.75568e-08
1.16742e-08
-4.46673e-08
8.76899e-08
-2.92726e-07
-1.28154e-06
-5.42817e-07
-1.19262e-06
-9.82626e-07
-1.04457e-06
-1.18797e-06
-9.4548e-07
-1.29113e-06
-8.12295e-07
-1.34195e-06
-1.77417e-07
-1.15408e-06
3.4947e-07
-9.05087e-07
5.61637e-07
-6.41314e-07
5.30319e-07
-4.55064e-07
5.19489e-07
-3.39777e-07
5.25389e-07
-2.44403e-07
4.80897e-07
-1.78358e-07
4.59313e-07
-1.2688e-07
4.17408e-07
-8.89452e-08
3.7655e-07
-6.37314e-08
3.3678e-07
-4.43816e-08
2.82664e-07
-3.38405e-08
2.41852e-07
-2.33039e-08
1.77996e-07
-1.77218e-08
1.3929e-07
-9.14869e-09
7.66087e-08
-7.71559e-10
3.91045e-08
6.4727e-09
8.45525e-09