/*--------------------------------*- C++ -*----------------------------------*\
| =========                 |                                                 |
| \\      /  F ield         | OpenFOAM: The Open Source CFD Toolbox           |
|  \\    /   O peration     | Version:  2.4.0                                 |
|   \\  /    A nd           | Web:      www.OpenFOAM.org                      |
|    \\/     M anipulation  |                                                 |
\*---------------------------------------------------------------------------*/
FoamFile
{
    version     2.0;
    format      ascii;
    class       volScalarField;
    location    "0.054";
    object      alpha.water;
}
// * * * * * * * * * * * * * * * * * * * * * * * * * * * * * * * * * * * * * //

dimensions      [0 0 0 0 0 0 0];

internalField   nonuniform List<scalar> 
60000
(
1
1
1
1
1
1
1
1
1
1
1
1
1
1
1
1
1
1
1
1
1
1
1
1
1
1
1
1
1
1
1
1
1
1
1
1
1
1
1
1
1
1
1
1
1
1
1
1
1
1
1
1
1
1
1
1
1
1
1
1
1
1
1
1
1
1
1
1
1
1
1
1
1
1
1
1
1
1
1
1
1
1
1
1
1
1
1
1
1
1
1
1
1
1
1
1
1
1
1
1
1
1
1
1
1
1
1
1
1
1
1
1
1
1
1
1
1
1
1
1
1
1
1
1
1
1
1
1
1
1
1
1
1
1
1
1
1
1
1
1
1
1
1
1
1
1
1
1
1
1
1
1
1
1
1
1
1
1
1
1
1
1
1
1
1
1
1
1
1
1
1
1
1
1
1
1
1
1
1
1
1
1
1
1
1
1
1
1
1
1
1
1
1
1
1
1
1
1
1
1
1
1
1
1
1
1
1
1
1
1
1
1
1
1
1
1
1
1
1
1
1
1
1
1
1
1
1
1
1
1
1
1
1
1
1
1
1
1
1
1
1
1
1
1
1
1
1
1
1
1
1
1
1
1
1
1
1
1
1
1
1
1
1
1
1
1
1
1
1
1
1
1
1
1
1
1
1
1
1
1
1
1
1
1
1
1
1
1
1
1
1
1
1
1
1
1
1
1
1
1
1
1
1
1
1
1
1
1
1
1
1
1
1
1
1
1
1
1
1
1
1
1
1
1
1
1
1
1
1
1
1
1
1
1
1
1
1
1
1
1
1
1
1
1
1
1
1
1
1
1
1
1
1
1
1
1
1
1
1
1
1
1
1
1
1
1
1
1
1
1
1
1
1
1
1
1
1
1
1
1
1
1
1
1
1
1
1
1
1
1
1
1
1
1
1
1
1
1
1
1
1
1
1
1
1
1
1
1
1
1
1
1
1
1
1
1
1
1
1
1
1
1
1
1
1
1
1
1
1
1
1
1
1
1
1
1
1
1
1
1
1
1
1
1
1
1
1
1
1
1
1
1
1
1
1
1
1
1
1
1
1
1
1
1
1
1
1
1
1
1
1
1
1
1
1
1
1
1
1
1
1
1
1
1
1
1
1
1
1
1
1
1
1
1
1
1
1
1
1
1
1
1
1
1
1
1
1
1
1
1
1
1
1
1
1
1
1
1
1
1
1
1
1
1
1
1
1
1
1
1
1
1
1
1
1
1
1
1
1
1
1
1
1
1
1
1
1
1
1
1
1
1
1
1
1
1
1
1
1
1
1
1
1
1
1
1
1
1
1
1
1
1
1
1
1
1
1
1
1
1
1
1
1
1
1
1
1
1
1
1
1
1
1
1
1
1
1
1
1
1
1
1
1
1
1
1
1
1
1
1
1
1
1
1
1
1
1
1
1
1
1
1
1
1
1
1
1
1
1
1
1
1
1
1
1
1
1
1
1
1
1
1
1
1
1
1
1
1
1
1
1
1
1
1
1
1
1
1
1
1
1
1
1
1
1
1
1
1
1
1
1
1
1
1
1
1
1
1
1
1
1
1
1
1
1
1
1
1
1
1
1
1
1
1
1
1
1
1
1
1
1
1
1
1
1
1
1
1
1
1
1
1
1
1
1
1
1
1
1
1
1
1
1
1
1
1
1
1
1
1
1
1
1
1
1
1
1
1
1
1
1
1
1
1
1
1
1
1
1
1
1
1
1
1
1
1
1
1
1
1
1
1
1
1
1
1
1
1
1
1
1
1
1
1
1
1
1
1
1
1
1
1
1
1
1
1
1
1
1
1
1
1
1
1
1
1
1
1
1
1
1
1
1
1
1
1
1
1
1
1
1
1
1
1
1
1
1
1
1
1
1
1
1
1
1
1
1
1
1
1
1
1
1
1
1
1
1
1
1
1
1
1
1
1
1
1
1
1
1
1
1
1
1
1
1
1
1
1
1
1
1
1
1
1
1
1
1
1
1
1
1
1
1
1
1
1
1
1
1
1
1
1
1
1
1
1
1
1
1
1
1
1
1
1
1
1
1
1
1
1
1
1
1
1
1
1
1
1
1
1
1
1
1
1
1
1
1
1
1
1
1
1
1
1
1
1
1
1
1
1
1
1
1
1
1
1
1
1
1
1
1
1
1
1
1
1
1
1
1
1
1
1
1
1
1
1
1
1
1
1
1
1
1
1
1
1
1
1
1
1
1
1
1
1
1
1
1
1
1
1
1
1
1
1
1
1
1
1
1
1
1
1
1
1
1
1
1
1
1
1
1
1
1
1
1
1
1
1
1
1
1
1
1
1
1
1
1
1
1
1
1
1
1
1
1
1
1
1
1
1
1
1
1
1
1
1
1
1
1
1
1
1
1
1
1
1
1
1
1
1
1
1
1
1
1
1
1
1
1
1
1
1
1
1
1
1
1
1
1
1
1
1
1
1
1
1
1
1
1
1
1
1
1
1
1
1
1
1
1
1
1
1
1
1
1
1
1
1
1
1
1
1
1
1
1
1
1
1
1
1
1
1
1
1
1
1
1
1
1
1
1
1
1
1
1
1
1
1
1
1
1
1
1
1
1
1
1
1
1
1
1
1
1
1
1
1
1
1
1
1
1
1
1
1
1
1
1
1
1
1
1
1
1
1
1
1
1
1
1
1
1
1
1
1
1
1
1
1
1
1
1
1
1
1
1
1
1
1
1
1
1
1
1
1
1
1
1
1
1
1
1
1
1
1
1
1
1
1
1
1
1
1
1
1
1
1
1
1
1
1
1
1
1
1
1
1
1
1
1
1
1
1
1
1
1
1
1
1
1
1
1
1
1
1
1
1
1
1
1
1
1
1
1
1
1
1
1
1
1
1
1
1
1
1
1
1
1
1
1
1
1
1
1
1
1
1
1
1
1
1
1
1
1
1
1
1
1
1
1
1
1
1
1
1
1
1
1
1
1
1
1
1
1
1
1
1
1
1
1
1
1
1
1
1
1
1
1
1
1
1
1
1
1
1
1
1
1
1
1
1
1
1
1
1
1
1
1
1
1
1
1
1
1
1
1
1
1
1
1
1
1
1
1
1
1
1
1
1
1
1
1
1
1
1
1
1
1
1
1
1
1
1
1
1
1
1
1
1
1
1
1
1
1
1
1
1
1
1
1
1
1
1
1
1
1
1
1
1
1
1
1
1
1
1
1
1
1
1
1
1
1
1
1
1
1
1
1
1
1
1
1
1
1
1
1
1
1
1
1
1
1
1
1
1
1
1
1
1
1
1
1
1
1
1
1
1
1
1
1
1
1
1
1
1
1
1
1
1
1
1
1
1
1
1
1
1
1
1
1
1
1
1
1
1
1
1
1
1
1
1
1
1
1
1
1
1
1
1
1
1
1
1
1
1
1
1
1
1
1
1
1
1
1
1
1
1
1
1
1
1
1
1
1
1
1
1
1
1
1
1
1
1
1
1
1
1
1
1
1
1
1
1
1
1
1
1
1
1
1
1
1
1
1
1
1
1
1
1
1
1
1
1
1
1
1
1
1
1
1
1
1
1
1
1
1
1
1
1
1
1
1
1
1
1
1
1
1
1
1
1
1
1
1
1
1
1
1
1
1
1
1
1
1
1
1
1
1
1
1
1
1
1
1
1
1
1
1
1
1
1
1
1
1
1
1
1
1
1
1
1
1
1
1
1
1
1
1
1
1
1
1
1
1
1
1
1
1
1
1
1
1
1
1
1
1
1
1
1
1
1
1
1
1
1
1
1
1
1
1
1
1
1
1
1
1
1
1
1
1
1
1
1
1
1
1
1
1
1
1
1
1
1
1
1
1
1
1
1
1
1
1
1
1
1
1
1
1
1
1
1
1
1
1
1
1
1
1
1
1
1
1
1
1
1
1
1
1
1
1
1
1
1
1
1
1
1
1
1
1
1
1
1
1
1
1
1
1
1
1
1
1
1
1
1
1
1
1
1
1
1
1
1
1
1
1
1
1
1
1
1
1
1
1
1
1
1
1
1
1
1
1
1
1
1
1
1
1
1
1
1
1
1
1
1
1
1
1
1
1
1
1
1
1
1
1
1
1
1
1
1
1
1
1
1
1
1
1
1
1
1
1
1
1
1
1
1
1
1
1
1
1
1
1
1
1
1
1
1
1
1
1
1
1
1
1
1
1
1
1
1
1
1
1
1
1
1
1
1
1
1
1
1
1
1
1
1
1
1
1
1
1
1
1
1
1
1
1
1
1
1
1
1
1
1
1
1
1
1
1
1
1
1
1
1
1
1
1
1
1
1
1
1
1
1
1
1
1
1
1
1
1
1
1
1
1
1
1
1
1
1
1
1
1
1
1
1
1
1
1
1
1
1
1
1
1
1
1
1
1
1
1
1
1
1
1
1
1
1
1
1
1
1
1
1
1
1
1
1
1
1
1
1
1
1
1
1
1
1
1
1
1
1
1
1
1
1
1
1
1
1
1
1
1
1
1
1
1
1
1
1
1
1
1
1
1
1
1
1
1
1
1
1
1
1
1
1
1
1
1
1
1
1
1
1
1
1
1
1
1
1
1
1
1
1
1
1
1
1
1
1
1
1
1
1
1
1
1
1
1
1
1
1
1
1
1
1
1
1
1
1
1
1
1
1
1
1
1
1
1
1
1
1
1
1
1
1
1
1
1
1
1
1
1
1
1
1
1
1
1
1
1
1
1
1
1
1
1
1
1
1
1
1
1
1
1
1
1
1
1
1
1
1
1
1
1
1
1
1
1
1
1
1
1
1
1
1
1
1
1
1
1
1
1
1
1
1
1
1
1
1
1
1
1
1
1
1
1
1
1
1
1
1
1
1
1
1
1
1
1
1
1
1
1
1
1
1
1
1
1
1
1
1
1
1
1
1
1
1
1
1
1
1
1
1
1
1
1
1
1
1
1
1
1
1
1
1
1
1
1
1
1
1
1
1
1
1
1
1
1
1
1
1
1
1
1
1
1
1
1
1
1
1
1
1
1
1
1
1
1
1
1
1
1
1
1
1
1
1
1
1
1
1
1
1
1
1
1
1
1
1
1
1
1
1
1
1
1
1
1
1
1
1
1
1
1
1
1
1
1
1
1
1
1
1
1
1
1
1
1
1
1
1
1
1
1
1
1
1
1
1
1
1
1
1
1
1
1
1
1
1
1
1
1
1
1
1
1
1
1
1
1
1
1
1
1
1
1
1
1
1
1
1
1
1
1
1
1
1
1
1
1
1
1
1
1
1
1
1
1
1
1
1
1
1
1
1
1
1
1
1
1
1
1
1
1
1
1
1
1
1
1
1
1
1
1
1
1
1
1
1
1
1
1
1
1
1
1
1
1
1
1
1
1
1
1
1
1
1
1
1
1
1
1
1
1
1
1
1
1
1
1
1
1
1
1
1
1
1
1
1
1
1
1
1
1
1
1
1
1
1
1
1
1
1
1
1
1
1
1
1
1
1
1
1
1
1
1
1
1
1
1
1
1
1
1
1
1
1
1
1
1
1
1
1
1
1
1
1
1
1
1
1
1
1
1
1
1
1
1
1
1
1
1
1
1
1
1
1
1
1
1
1
1
1
1
1
1
1
1
1
1
1
1
1
1
1
1
1
1
1
1
1
1
1
1
1
1
1
1
1
1
1
1
1
1
1
1
1
1
1
1
1
1
1
1
1
1
1
1
1
1
1
1
1
1
1
1
1
1
1
1
1
1
1
1
1
1
1
1
1
1
1
1
1
1
1
1
1
1
1
1
1
1
1
1
1
1
1
1
1
1
1
1
1
1
1
1
1
1
1
1
1
1
1
1
1
1
1
1
1
1
1
1
1
1
1
1
1
1
1
1
1
1
1
1
1
1
1
1
1
1
1
1
1
1
1
1
1
1
1
1
1
1
1
1
1
1
1
1
1
1
1
1
1
1
1
1
1
1
1
1
1
1
1
1
1
1
1
1
1
1
1
1
1
1
1
1
1
1
1
1
1
1
1
1
1
1
1
1
1
1
1
1
1
1
1
1
1
1
1
1
1
1
1
1
1
1
1
1
1
1
1
1
1
1
1
1
1
1
1
1
1
1
1
1
1
1
1
1
1
1
1
1
1
1
1
1
1
1
1
1
1
1
1
1
1
1
1
1
1
1
1
1
1
1
1
1
1
1
1
1
1
1
1
1
1
1
1
1
1
1
1
1
1
1
1
1
1
1
1
1
1
1
1
1
1
1
1
1
1
1
1
1
1
1
1
1
1
1
1
1
1
1
1
1
1
1
1
1
1
1
1
1
1
1
1
1
1
1
1
1
1
1
1
1
1
1
1
1
1
1
1
1
1
1
1
1
1
1
1
1
1
1
1
1
1
1
1
1
1
1
1
1
1
1
1
1
1
1
1
1
1
1
1
1
1
1
1
1
1
1
1
1
1
1
1
1
1
1
1
1
1
1
1
1
1
1
1
1
1
1
1
1
1
1
1
1
1
1
1
1
1
1
1
1
1
1
1
1
1
1
1
1
1
1
1
1
1
1
1
1
1
1
1
1
1
1
1
1
1
1
1
1
1
1
1
1
1
1
1
1
1
1
1
1
1
1
1
1
1
1
1
1
1
1
1
1
1
1
1
1
1
1
1
1
1
1
1
1
1
1
1
1
1
1
1
1
1
1
1
1
1
1
1
1
1
1
1
1
1
1
1
1
1
1
1
1
1
1
1
1
1
1
1
1
1
1
1
1
1
1
1
1
1
1
1
1
1
1
1
1
1
1
1
1
1
1
1
1
1
1
1
1
1
1
1
1
1
1
1
1
1
1
1
1
1
1
1
1
1
1
1
1
1
1
1
1
1
1
1
1
1
1
1
1
1
1
1
1
1
1
1
1
1
1
1
1
1
1
1
1
1
1
1
1
1
1
1
1
1
1
1
1
1
1
1
1
1
1
1
1
1
1
1
1
1
1
1
1
1
1
1
1
1
1
1
1
1
1
1
1
1
1
1
1
1
1
1
1
1
1
1
1
1
1
1
1
1
1
1
1
1
1
1
1
1
1
1
1
1
1
1
1
1
1
1
1
1
1
1
1
1
1
1
1
1
1
1
1
1
1
1
1
1
1
1
1
1
1
1
1
1
1
1
1
1
1
1
1
1
1
1
1
1
1
1
1
1
1
1
1
1
1
1
1
1
1
1
1
1
1
1
1
1
1
1
1
1
1
1
1
1
1
1
1
1
1
1
1
1
1
1
1
1
1
1
1
1
1
1
1
1
1
1
1
1
1
1
1
1
1
1
1
1
1
1
1
1
1
1
1
1
1
1
1
1
1
1
1
1
1
1
1
1
1
1
1
1
1
1
1
1
1
1
1
1
1
1
1
1
1
1
1
1
1
1
1
1
1
1
1
1
1
1
1
1
1
1
1
1
1
1
1
1
1
1
1
1
1
1
1
1
1
1
1
1
1
1
1
1
1
1
1
1
1
1
1
1
1
1
1
1
1
1
1
1
1
1
1
1
1
1
1
1
1
1
1
1
1
1
1
1
1
1
1
1
1
1
1
1
1
1
1
1
1
1
1
1
1
1
1
1
1
1
1
1
1
1
1
1
1
1
1
1
1
1
1
1
1
1
1
1
1
1
1
1
1
1
1
1
1
1
1
1
1
1
1
1
1
1
1
1
1
1
1
1
1
1
1
1
1
1
1
1
1
1
1
1
1
1
1
1
1
1
1
1
1
1
1
1
1
1
1
1
1
1
1
1
1
1
1
1
1
1
1
1
1
1
1
1
1
1
1
1
1
1
1
1
1
1
1
1
1
1
1
1
1
1
1
1
1
1
1
1
1
1
1
1
1
1
1
1
1
1
1
1
1
1
1
1
1
1
1
1
1
1
1
1
1
1
1
1
1
1
1
1
1
1
1
1
1
1
1
1
1
1
1
1
1
1
1
1
1
1
1
1
1
1
1
1
1
1
1
1
1
1
1
1
1
1
1
1
1
1
1
1
1
1
1
1
1
1
1
1
1
1
1
1
1
1
1
1
1
1
1
1
1
1
1
1
1
1
1
1
1
1
1
1
1
1
1
1
1
1
1
1
1
1
1
1
1
1
1
1
1
1
1
1
1
1
1
1
1
1
1
1
1
1
1
1
1
1
1
1
1
1
1
1
1
1
1
1
1
1
1
1
1
1
1
1
1
1
1
1
1
1
1
1
1
1
1
1
1
1
1
1
1
1
1
1
1
1
1
1
1
1
1
1
1
1
1
1
1
1
1
1
1
1
1
1
1
1
1
1
1
1
1
1
1
1
1
1
1
1
1
1
1
1
1
1
1
1
1
1
1
1
1
1
1
1
1
1
1
1
1
1
1
1
1
1
1
1
1
1
1
1
1
1
1
1
1
1
1
1
1
1
1
1
1
1
1
1
1
1
1
1
1
1
1
1
1
1
1
1
1
1
1
1
1
1
1
1
1
1
1
1
1
1
1
1
1
1
1
1
1
1
1
1
1
1
1
1
1
1
1
1
1
1
1
1
1
1
1
1
1
1
1
1
1
1
1
1
1
1
1
1
1
1
1
1
1
1
1
1
1
1
1
1
1
1
1
1
1
1
1
1
1
1
1
1
1
1
1
1
1
1
1
1
1
1
1
1
1
1
1
1
1
1
1
1
1
1
1
1
1
1
1
1
1
1
1
1
1
1
1
1
1
1
1
1
1
1
1
1
1
1
1
1
1
1
1
1
1
1
1
1
1
1
1
1
1
1
1
1
1
1
1
1
1
1
1
1
1
1
1
1
1
1
1
1
1
1
1
1
1
1
1
1
1
1
1
1
1
1
1
1
1
1
1
1
1
1
1
1
1
1
1
1
1
1
1
1
1
1
1
1
1
1
1
1
1
1
1
1
1
1
1
1
1
1
1
1
1
1
1
1
1
1
1
1
1
1
1
1
1
1
1
1
1
1
1
1
1
1
1
1
1
1
1
1
1
1
1
1
1
1
1
1
1
1
1
1
1
1
1
1
1
1
1
1
1
1
1
1
1
1
1
1
1
1
1
1
1
1
1
1
1
1
1
1
1
1
1
1
1
1
1
1
1
1
1
1
1
1
1
1
1
1
1
1
1
1
1
1
1
1
1
1
1
1
1
1
1
1
1
1
1
1
1
1
1
1
1
1
1
1
1
1
1
1
1
1
1
1
1
1
1
1
1
1
1
1
1
1
1
1
1
1
1
1
1
1
1
1
1
1
1
1
1
1
1
1
1
1
1
1
1
1
1
1
1
1
1
1
1
1
1
1
1
1
1
1
1
1
1
1
1
1
1
1
1
1
1
1
1
1
1
1
1
1
1
1
1
1
1
1
1
1
1
1
1
1
1
1
1
1
1
1
1
1
1
1
1
1
1
1
1
1
1
1
1
1
1
1
1
1
1
1
1
1
1
1
1
1
1
1
1
1
1
1
1
1
1
1
1
1
1
1
1
1
1
1
1
1
1
1
1
1
1
1
1
1
1
1
1
1
1
1
1
1
1
1
1
1
1
1
1
1
1
1
1
1
1
1
1
1
1
1
1
1
1
1
1
1
1
1
1
1
1
1
1
1
1
1
1
1
1
1
1
1
1
1
1
1
1
1
1
1
1
1
1
1
1
1
1
1
1
1
1
1
1
1
1
1
1
1
1
1
1
1
1
1
1
1
1
1
1
1
1
1
1
1
1
1
1
1
1
1
1
1
1
1
1
1
1
1
1
1
1
1
1
1
1
1
1
1
1
1
1
1
1
1
1
1
1
1
1
1
1
1
1
1
1
1
1
1
1
1
1
1
1
1
1
1
1
1
1
1
1
1
1
1
1
1
1
1
1
1
1
1
1
1
1
1
1
1
1
1
1
1
1
1
1
1
1
1
1
1
1
1
1
1
1
1
1
1
1
1
1
1
1
1
1
1
1
1
1
1
1
1
1
1
1
1
1
1
1
1
1
1
1
1
1
1
1
1
1
1
1
1
1
1
1
1
1
1
1
1
1
1
1
1
1
1
1
1
1
1
1
1
1
1
1
1
1
1
1
1
1
1
1
1
1
1
1
1
1
1
1
1
1
1
1
1
1
1
1
1
1
1
1
1
1
1
1
1
1
1
1
1
1
1
1
1
1
1
1
1
1
1
1
1
1
1
1
1
1
1
1
1
1
1
1
1
1
1
1
1
1
1
1
1
1
1
1
1
1
1
1
1
1
1
1
1
1
1
1
1
1
1
1
1
1
1
1
1
1
1
1
1
1
1
1
1
1
1
1
1
1
1
1
1
1
1
1
1
1
1
1
1
1
1
1
1
1
1
1
1
1
1
1
1
1
1
1
1
1
1
1
1
1
1
1
1
1
1
1
1
1
1
1
1
1
1
1
1
1
1
1
1
1
1
1
1
1
1
1
1
1
1
1
1
1
1
1
1
1
1
1
1
1
1
1
1
1
1
1
1
1
1
1
1
1
1
1
1
1
1
1
1
1
1
1
1
1
1
1
1
1
1
1
1
1
1
1
1
1
1
1
1
1
1
1
1
1
1
1
1
1
1
1
1
1
1
1
1
1
1
1
1
1
1
1
1
1
1
1
1
1
1
1
1
1
1
1
1
1
1
1
1
1
1
1
1
1
1
1
1
1
1
1
1
1
1
1
1
1
1
1
1
1
1
1
1
1
1
1
1
1
1
1
1
1
1
1
1
1
1
1
1
1
1
1
1
1
1
1
1
1
1
1
1
1
1
1
1
1
1
1
1
1
1
1
1
1
1
1
1
1
1
1
1
1
1
1
1
1
1
1
1
1
1
1
1
1
1
1
1
1
1
1
1
1
1
1
1
1
1
1
1
1
1
1
1
1
1
1
1
1
1
1
1
1
1
1
1
1
1
1
1
1
1
1
1
1
1
1
1
1
1
1
1
1
1
1
1
1
1
1
1
1
1
1
1
1
1
1
1
1
1
1
1
1
1
1
1
1
1
1
1
1
1
1
1
1
1
1
1
1
1
1
1
1
1
1
1
1
1
1
1
1
1
1
1
1
1
1
1
1
1
1
1
1
1
1
1
1
1
1
1
1
1
1
1
1
1
1
1
1
1
1
1
1
1
1
1
1
1
1
1
1
1
1
1
1
1
1
1
1
1
1
1
1
1
1
1
1
1
1
1
1
1
1
1
1
1
1
1
1
1
1
1
1
1
1
1
1
0.99998
0.999923
0.999862
0.999809
0.999771
0.999761
0.999774
0.999809
0.999868
0.999941
1
1
1
1
1
1
1
1
1
1
0.999981
0.999923
0.999834
0.999713
0.999562
0.999387
0.999189
0.998984
0.998786
0.998594
0.998406
0.99821
0.997999
0.997786
0.997585
0.99741
0.997279
0.997189
0.997133
0.997101
0.997072
0.997034
0.996987
0.996949
0.996913
0.996937
0.996981
0.99714
0.9973
0.997639
0.997876
0.998361
0.998602
0.000269634
0.000270544
0.000271987
0.000274317
0.000277197
0.000280914
0.000285191
0.000290297
0.000296036
0.000302519
0.000309749
0.00031772
0.000326494
0.000336009
0.000346456
0.000357595
0.000369721
0.000382603
0.000396431
0.000411035
0.00042661
0.000443132
0.000460771
0.000479651
0.000499587
0.000520093
0.000540484
0.000560327
0.00058011
0.000601725
0.000627832
0.000660121
0.000697846
0.000736731
0.000770141
0.000792185
0.000802359
0.000804987
0.00080956
0.000831155
0.000882687
0.000972998
0.00109777
0.00123551
0.00135822
0.0014446
0.00148097
0.00148044
0.00146408
0.00144014
0.00141341
0.00139362
0.00139695
0.00145098
0.00154764
0.00168663
0.00187641
0.00212568
0.00245985
0.00280817
0.00314697
0.00346011
0.0037404
0.00397444
0.00415189
0.00427306
0.0043311
0.00434865
0.00435107
0.00434261
0.00432154
0.00428914
0.00424754
0.00419553
0.00414023
0.00408484
0.00402904
0.00397177
0.00390642
0.00383049
0.00374637
0.00365869
0.00357127
0.00348624
0.00340755
0.0033228
0.00323679
0.00312685
0.00299926
0.00283798
0.00265387
0.00244583
0.00220533
0.00196955
0.00167483
0.0014239
0.00105869
0.000831829
0.000384031
0.000184137
1.09635e-10
1.30757e-10
1.09227e-10
1.08328e-10
1.0803e-10
1.07912e-10
1.07678e-10
1.07468e-10
1.07092e-10
1.06798e-10
1.06343e-10
1.05779e-10
1.05326e-10
1.04733e-10
1.04113e-10
1.03426e-10
1.02618e-10
1.0157e-10
1.00817e-10
1.00098e-10
9.94141e-11
9.8596e-11
9.78446e-11
9.71428e-11
9.67195e-11
9.62819e-11
9.6387e-11
9.65685e-11
9.60488e-11
9.44352e-11
9.24694e-11
9.10787e-11
9.05238e-11
9.08578e-11
9.25276e-11
9.76172e-11
1.49507e-10
2.61605e-10
1.03837e-10
9.09383e-11
8.87499e-11
8.9539e-11
9.2568e-11
9.65383e-11
9.96301e-11
1.0177e-10
1.40041e-11
1.39471e-11
1.3947e-11
1.3947e-11
1.3947e-11
1.39519e-11
1.01738e-10
1.01184e-10
1.06064e-10
1.18541e-10
1.41288e-10
1.79405e-10
2.28934e-10
2.82043e-10
3.33615e-10
3.79815e-10
4.18029e-10
4.44359e-10
3.77593e-10
1.27586e-10
4.16329e-11
4.16329e-11
4.16339e-11
4.16359e-11
4.16385e-11
4.16342e-11
4.16281e-11
4.16209e-11
4.16137e-11
4.16068e-11
4.16001e-11
4.15924e-11
4.15829e-11
4.15715e-11
4.15594e-11
4.15476e-11
4.15379e-11
4.15308e-11
4.15259e-11
4.15219e-11
4.15177e-11
4.15109e-11
4.15017e-11
4.14908e-11
4.14791e-11
4.14701e-11
4.14633e-11
4.146e-11
4.1459e-11
4.1459e-11
1.3336e-10
4.15859e-11
1.28911e-10
1.33284e-10
1.28799e-12
3.55403e-12
1.92538e-12
1.35044e-12
1.00132e-12
8.12362e-13
8.38985e-13
8.79306e-13
1.0154e-12
1.12873e-12
1.18608e-12
1.18538e-12
1.30104e-12
1.31394e-12
1.28775e-12
1.31952e-12
1.06381e-12
7.55159e-13
5.91991e-13
5.97973e-13
5.8339e-13
6.2764e-13
7.50952e-13
9.28244e-13
1.18286e-12
1.08223e-12
1.13417e-12
1.24968e-12
1.37616e-12
1.45485e-12
1.49798e-12
1.63725e-12
1.85296e-12
2.07786e-12
2.20236e-12
2.2053e-12
2.11427e-12
2.01372e-12
1.93856e-12
2.01816e-12
2.63372e-12
4.49237e-12
7.91263e-12
1.18984e-11
1.45874e-11
1.5567e-11
1.58434e-11
1.65149e-11
1.66605e-11
1.60328e-11
1.49553e-11
1.4603e-11
1.47258e-11
1.63222e-11
2.16925e-11
3.44319e-11
5.73597e-11
9.558e-11
1.4513e-10
1.98236e-10
2.49783e-10
2.95919e-10
3.3401e-10
3.60144e-10
3.76536e-10
3.86465e-10
3.9502e-10
4.04006e-10
4.12852e-10
4.2235e-10
4.31334e-10
4.41336e-10
4.49943e-10
4.60651e-10
4.70223e-10
4.80175e-10
4.92785e-10
5.00596e-10
5.17446e-10
5.19035e-10
5.42765e-10
5.32591e-10
5.65626e-10
5.36824e-10
5.81645e-10
5.29659e-10
5.84479e-10
5.06733e-10
5.66247e-10
4.67371e-10
5.21493e-10
4.11464e-10
4.45447e-10
3.4491e-10
3.50517e-10
2.79781e-10
2.56839e-10
1.89725e-10
9.5158e-11
4.52226e-11
3.89297e-15
2.0277e-15
6.80268e-16
3.63753e-16
1.98041e-16
1.2954e-16
1.26328e-16
1.40946e-16
1.87136e-16
2.32291e-16
2.68504e-16
2.87533e-16
3.34289e-16
3.55165e-16
3.67593e-16
3.94337e-16
3.32654e-16
2.36906e-16
1.79416e-16
1.82834e-16
1.76045e-16
1.93094e-16
2.47189e-16
3.27919e-16
4.49893e-16
3.94124e-16
4.17284e-16
4.76795e-16
5.46663e-16
5.83739e-16
5.8357e-16
6.10163e-16
6.60975e-16
7.19086e-16
7.67804e-16
7.9299e-16
7.89547e-16
7.74034e-16
7.85338e-16
8.35986e-16
9.77227e-16
1.33393e-15
2.14153e-15
3.49392e-15
4.96799e-15
6.10039e-15
6.59852e-15
6.89093e-15
6.93034e-15
6.59659e-15
6.18794e-15
5.99963e-15
6.1446e-15
7.25041e-15
1.00447e-14
1.63804e-14
3.02766e-14
5.85952e-14
1.0982e-13
1.8317e-13
2.72784e-13
3.70261e-13
4.69348e-13
5.55854e-13
6.26099e-13
6.69009e-13
6.90137e-13
7.05622e-13
7.23632e-13
7.39393e-13
7.56831e-13
7.72241e-13
7.88093e-13
8.03345e-13
8.21744e-13
8.33138e-13
8.60787e-13
8.66157e-13
9.05648e-13
8.94056e-13
9.48571e-13
9.10529e-13
9.8193e-13
9.06858e-13
9.96965e-13
8.81349e-13
9.83032e-13
8.23504e-13
9.27666e-13
7.41452e-13
8.43407e-13
6.60099e-13
7.71401e-13
6.60516e-13
9.36714e-13
1.22314e-12
2.40011e-12
2.71266e-12
2.20642e-12
8.18615e-13
1.64098e-17
1.61311e-18
1.91211e-19
6.95046e-20
2.5963e-20
1.29467e-20
1.14705e-20
1.3601e-20
2.12749e-20
3.05353e-20
3.9715e-20
4.62604e-20
5.71476e-20
6.4038e-20
7.0034e-20
7.84134e-20
7.02029e-20
5.2547e-20
4.08223e-20
4.26977e-20
4.18702e-20
4.71954e-20
6.29287e-20
8.69209e-20
1.23686e-19
1.09129e-19
1.18061e-19
1.39205e-19
1.65142e-19
1.81057e-19
1.83721e-19
1.9418e-19
2.12043e-19
2.30947e-19
2.47885e-19
2.58802e-19
2.63093e-19
2.63918e-19
2.76987e-19
3.01778e-19
3.5314e-19
4.50796e-19
6.44654e-19
9.8864e-19
1.43491e-18
1.86373e-18
2.1257e-18
2.22486e-18
2.24457e-18
2.14297e-18
2.05803e-18
1.99332e-18
2.10408e-18
2.59323e-18
3.84613e-18
6.60576e-18
1.31858e-17
2.81646e-17
6.09938e-17
1.19309e-16
2.06629e-16
3.17723e-16
4.48152e-16
5.75282e-16
6.91262e-16
7.68441e-16
8.11377e-16
8.28625e-16
8.54182e-16
8.7155e-16
8.96054e-16
9.1164e-16
9.34666e-16
9.48158e-16
9.73929e-16
9.80368e-16
1.02091e-15
1.01884e-15
1.07795e-15
1.05321e-15
1.13352e-15
1.07472e-15
1.17449e-15
1.07073e-15
1.19094e-15
1.04546e-15
1.17791e-15
9.90533e-16
1.13231e-15
9.3702e-16
1.11368e-15
9.69251e-16
1.31927e-15
1.56089e-15
3.79498e-15
8.847e-15
2.7591e-14
4.45567e-14
4.81713e-14
1.27195e-14
6.86087e-20
1.64739e-21
5.33923e-23
1.18074e-23
2.86714e-24
1.04281e-24
8.13772e-25
1.02129e-24
1.91825e-24
3.28774e-24
4.9102e-24
6.29104e-24
8.28009e-24
9.77875e-24
1.1252e-23
1.30767e-23
1.2378e-23
9.78681e-24
7.89034e-24
8.47669e-24
8.53536e-24
9.88954e-24
1.35574e-23
1.92263e-23
2.79499e-23
2.52343e-23
2.79955e-23
3.39737e-23
4.15489e-23
4.69329e-23
4.89298e-23
5.29987e-23
5.92172e-23
6.57733e-23
7.2005e-23
7.6765e-23
8.00407e-23
8.24445e-23
8.92957e-23
9.95664e-23
1.17581e-22
1.47437e-22
1.99479e-22
2.87302e-22
4.0552e-22
5.33309e-22
6.26309e-22
6.68693e-22
6.78872e-22
6.54578e-22
6.44569e-22
6.27363e-22
6.9857e-22
8.89582e-22
1.36308e-21
2.40419e-21
5.0257e-21
1.13748e-20
2.71432e-20
5.98657e-20
1.18349e-19
2.04153e-19
3.19356e-19
4.43842e-19
5.7077e-19
6.64308e-19
7.28354e-19
7.46757e-19
7.75409e-19
7.91064e-19
8.19861e-19
8.33342e-19
8.61504e-19
8.72323e-19
9.0368e-19
9.06557e-19
9.54572e-19
9.50241e-19
1.01975e-18
9.95643e-19
1.08839e-18
1.03366e-18
1.14629e-18
1.05298e-18
1.18861e-18
1.06445e-18
1.22079e-18
1.06998e-18
1.2641e-18
1.14387e-18
1.48343e-18
1.5721e-18
2.77401e-18
5.44365e-18
2.3177e-17
8.1973e-17
3.51702e-16
7.77993e-16
9.78085e-16
1.64094e-16
2.62074e-22
1.87309e-24
1.57349e-26
1.92728e-27
2.92803e-28
7.53889e-29
5.06667e-29
6.69447e-29
1.52889e-28
3.21556e-28
5.6111e-28
7.97574e-28
1.12051e-27
1.39222e-27
1.67706e-27
2.01251e-27
2.00212e-27
1.66818e-27
1.39627e-27
1.53584e-27
1.5891e-27
1.88878e-27
2.64136e-27
3.81445e-27
5.61839e-27
5.21922e-27
5.93861e-27
7.39568e-27
9.29156e-27
1.08099e-26
1.16208e-26
1.29481e-26
1.48596e-26
1.69352e-26
1.9035e-26
2.08676e-26
2.24344e-26
2.38464e-26
2.66957e-26
3.0562e-26
3.65789e-26
4.56525e-26
6.00665e-26
8.33882e-26
1.14384e-25
1.50354e-25
1.78696e-25
1.97171e-25
2.05596e-25
2.00239e-25
2.02062e-25
2.08924e-25
2.43752e-25
3.1546e-25
4.88176e-25
8.58672e-25
1.7995e-24
4.13204e-24
1.03718e-23
2.47532e-23
5.44526e-23
1.03825e-22
1.78959e-22
2.68703e-22
3.70589e-22
4.53632e-22
5.20458e-22
5.43165e-22
5.70046e-22
5.82933e-22
6.11466e-22
6.23604e-22
6.53608e-22
6.64182e-22
6.98113e-22
7.02427e-22
7.52036e-22
7.53243e-22
8.23408e-22
8.12904e-22
9.06902e-22
8.75855e-22
9.913e-22
9.35842e-22
1.08165e-21
1.01285e-21
1.20034e-21
1.13326e-21
1.42392e-21
1.47372e-21
2.20079e-21
3.07101e-21
8.04394e-21
2.78982e-20
1.65618e-19
8.37923e-19
4.63384e-18
1.32398e-17
1.77514e-17
1.74179e-18
8.69242e-25
2.22577e-27
4.92972e-30
3.11883e-31
2.89409e-32
5.1881e-33
2.96113e-33
4.09587e-33
1.14471e-32
3.01858e-32
6.23751e-32
9.89258e-32
1.48458e-31
1.93577e-31
2.42838e-31
2.99471e-31
3.11227e-31
2.72191e-31
2.35966e-31
2.64775e-31
2.81098e-31
3.41889e-31
4.85053e-31
7.09288e-31
1.05283e-30
1.00868e-30
1.17626e-30
1.49942e-30
1.92941e-30
2.30888e-30
2.56127e-30
2.93823e-30
3.46657e-30
4.06214e-30
4.69942e-30
5.31369e-30
5.90529e-30
6.49434e-30
7.51922e-30
8.85308e-30
1.07727e-29
1.34727e-29
1.74501e-29
2.37251e-29
3.18949e-29
4.1932e-29
5.01217e-29
5.69269e-29
6.28003e-29
6.42696e-29
6.93744e-29
7.51466e-29
9.08822e-29
1.19207e-28
1.83077e-28
3.15312e-28
6.41758e-28
1.43924e-27
3.6289e-27
8.97647e-27
2.12718e-26
4.39134e-26
8.24562e-26
1.3305e-25
1.96643e-25
2.53737e-25
3.06231e-25
3.30375e-25
3.52022e-25
3.62296e-25
3.86724e-25
3.97974e-25
4.25771e-25
4.3714e-25
4.69596e-25
4.78064e-25
5.23547e-25
5.33521e-25
5.97736e-25
6.04324e-25
6.9207e-25
6.9032e-25
8.03143e-25
7.93367e-25
9.49513e-25
9.49687e-25
1.1851e-24
1.23758e-24
1.70858e-24
2.10288e-24
3.8446e-24
7.77929e-24
3.32799e-23
1.62173e-22
1.24784e-21
8.51102e-21
5.86417e-20
2.05394e-19
2.81917e-19
1.50671e-20
2.41528e-27
2.91091e-30
1.67627e-33
5.06741e-35
2.83774e-36
3.52236e-37
1.69618e-37
2.44341e-37
8.36986e-37
2.81192e-36
6.94344e-36
1.23199e-35
1.97381e-35
2.69272e-35
3.49949e-35
4.41584e-35
4.76601e-35
4.35667e-35
3.90107e-35
4.45157e-35
4.84067e-35
6.01135e-35
8.61731e-35
1.27063e-34
1.89364e-34
1.87372e-34
2.23792e-34
2.91433e-34
3.83171e-34
4.70985e-34
5.38992e-34
6.36509e-34
7.71989e-34
9.3058e-34
1.10869e-33
1.2938e-33
1.48679e-33
1.69226e-33
2.02483e-33
2.45202e-33
3.03863e-33
3.82471e-33
4.91427e-33
6.60351e-33
8.76207e-33
1.15543e-32
1.3881e-32
1.61986e-32
1.87635e-32
2.01907e-32
2.30183e-32
2.60977e-32
3.29935e-32
4.46616e-32
6.91073e-32
1.17696e-31
2.32198e-31
5.00945e-31
1.22672e-30
3.02498e-30
7.44437e-30
1.62213e-29
3.2638e-29
5.61131e-29
8.85343e-29
1.20469e-28
1.53442e-28
1.72505e-28
1.8898e-28
1.97097e-28
2.15167e-28
2.24979e-28
2.47263e-28
2.587e-28
2.8593e-28
2.97794e-28
3.35572e-28
3.51667e-28
4.0639e-28
4.25779e-28
5.04069e-28
5.26526e-28
6.35546e-28
6.66364e-28
8.36938e-28
9.10341e-28
1.22114e-27
1.44433e-27
2.26874e-27
3.46471e-27
8.43302e-27
2.7083e-26
1.5125e-25
9.55742e-25
9.29425e-24
8.28645e-23
6.92685e-22
2.84893e-21
3.85631e-21
1.05324e-22
5.48374e-30
4.88884e-33
9.76537e-37
8.32932e-39
2.7989e-40
2.41296e-41
9.7981e-42
1.46371e-41
6.1348e-41
2.65565e-40
7.87438e-40
1.56272e-39
2.66799e-39
3.79507e-39
5.08408e-39
6.5391e-39
7.28869e-39
6.9349e-39
6.3981e-39
7.40835e-39
8.24046e-39
1.04315e-38
1.50649e-38
2.23293e-38
3.33263e-38
3.40963e-38
4.16941e-38
5.53876e-38
7.42688e-38
9.36411e-38
1.10467e-37
1.34204e-37
1.67234e-37
2.07306e-37
2.54224e-37
3.05963e-37
3.63184e-37
4.27374e-37
5.27607e-37
6.56611e-37
8.29296e-37
1.05369e-36
1.3507e-36
1.805e-36
2.37727e-36
3.15195e-36
3.80986e-36
4.5613e-36
5.51374e-36
6.19679e-36
7.41402e-36
8.75893e-36
1.15427e-35
1.61752e-35
2.54536e-35
4.34497e-35
8.41676e-35
1.75865e-34
4.13546e-34
9.9187e-34
2.45111e-33
5.48803e-33
1.15924e-32
2.09962e-32
3.51269e-32
5.03444e-32
6.77717e-32
7.98331e-32
9.12928e-32
9.71591e-32
1.09021e-31
1.16766e-31
1.32529e-31
1.42662e-31
1.63159e-31
1.75609e-31
2.04888e-31
2.22854e-31
2.67151e-31
2.93329e-31
3.61295e-31
3.99771e-31
5.05309e-31
5.70129e-31
7.61946e-31
9.15521e-31
1.35029e-30
1.85421e-30
3.44854e-30
6.94371e-30
2.46516e-29
1.01095e-28
6.84628e-28
5.51081e-27
6.6893e-26
7.5666e-25
7.47984e-24
3.48546e-23
4.49189e-23
5.91061e-25
1.00094e-32
1.01372e-35
2.02718e-39
1.53635e-42
2.79855e-44
1.69122e-45
5.81364e-46
8.97883e-46
4.58788e-45
2.57871e-44
9.19126e-44
2.03453e-43
3.69047e-43
5.45366e-43
7.49665e-43
9.79541e-43
1.12177e-42
1.10653e-42
1.04976e-42
1.23182e-42
1.4007e-42
1.80573e-42
2.62193e-42
3.89759e-42
5.816e-42
6.15887e-42
7.70934e-42
1.04356e-41
1.42485e-41
1.8402e-41
2.23533e-41
2.79092e-41
3.56999e-41
4.54706e-41
5.73325e-41
7.10587e-41
8.69748e-41
1.05629e-40
1.34282e-40
1.71537e-40
2.20854e-40
2.83846e-40
3.64592e-40
4.86792e-40
6.39372e-40
8.53972e-40
1.03999e-39
1.27526e-39
1.60058e-39
1.86811e-39
2.33249e-39
2.85769e-39
3.9082e-39
5.65644e-39
9.06855e-39
1.56211e-38
3.00485e-38
6.16367e-38
1.40028e-37
3.24725e-37
7.8838e-37
1.77328e-36
3.84878e-36
7.25031e-36
1.27441e-35
1.91905e-35
2.72904e-35
3.38328e-35
4.09061e-35
4.48094e-35
5.19653e-35
5.74334e-35
6.7597e-35
7.54803e-35
8.97625e-35
1.00639e-34
1.22256e-34
1.39148e-34
1.74008e-34
2.01827e-34
2.60715e-34
3.08458e-34
4.12751e-34
5.06532e-34
7.31403e-34
9.86745e-34
1.64031e-33
2.69454e-33
6.28583e-33
1.77739e-32
7.54814e-32
3.72023e-31
3.02817e-30
3.06035e-29
4.56946e-28
6.37273e-27
7.27361e-26
3.72544e-25
4.42128e-25
2.65011e-27
1.45593e-35
2.04518e-38
5.4176e-42
7.80789e-46
2.86073e-48
1.2226e-49
3.58265e-50
5.7099e-50
3.54128e-49
2.59762e-48
1.11054e-47
2.72864e-47
5.23832e-47
8.01242e-47
1.12556e-46
1.48995e-46
1.74514e-46
1.77818e-46
1.73212e-46
2.05894e-46
2.39364e-46
3.14157e-46
4.58069e-46
6.81831e-46
1.01625e-45
1.11473e-45
1.42815e-45
1.96802e-45
2.7322e-45
3.60879e-45
4.50736e-45
5.77628e-45
7.57583e-45
9.90273e-45
1.28194e-44
1.63334e-44
2.0573e-44
2.57353e-44
3.36221e-44
4.40283e-44
5.77824e-44
7.5227e-44
9.71445e-44
1.30048e-43
1.70995e-43
2.30413e-43
2.83097e-43
3.54914e-43
4.60508e-43
5.55493e-43
7.20239e-43
9.10985e-43
1.28743e-42
1.91796e-42
3.12939e-42
5.44956e-42
1.04705e-41
2.13046e-41
4.72972e-41
1.06752e-40
2.52899e-40
5.64038e-40
1.23569e-39
2.3921e-39
4.3717e-39
6.89269e-39
1.03303e-38
1.35191e-38
1.73346e-38
1.98744e-38
2.39373e-38
2.74411e-38
3.3628e-38
3.91592e-38
4.867e-38
5.71745e-38
7.26103e-38
8.71676e-38
1.14213e-37
1.40962e-37
1.92336e-37
2.45276e-37
3.51269e-37
4.74445e-37
7.52516e-37
1.16225e-36
2.24842e-36
4.66071e-36
1.40648e-35
4.63963e-35
2.27287e-34
1.33298e-33
1.29344e-32
1.61669e-31
2.92077e-30
4.8894e-29
6.30352e-28
3.45677e-27
3.66031e-27
9.46089e-30
1.68424e-38
3.49e-41
1.14354e-44
1.32495e-48
3.31291e-52
9.1523e-54
2.30647e-54
3.79049e-54
2.84109e-53
2.72882e-52
1.39277e-51
3.77443e-51
7.63423e-51
1.20425e-50
1.72277e-50
2.30536e-50
2.75119e-50
2.88649e-50
2.88417e-50
3.4742e-50
4.1326e-50
5.52321e-50
8.08243e-50
1.20334e-49
1.79066e-49
2.03529e-49
2.6682e-49
3.73966e-49
5.27145e-49
7.10835e-49
9.11304e-49
1.19692e-48
1.6075e-48
2.15349e-48
2.85768e-48
3.73589e-48
4.83249e-48
6.21398e-48
8.32692e-48
1.11629e-47
1.49292e-47
1.97074e-47
2.56495e-47
3.45189e-47
4.55737e-47
6.20214e-47
7.69706e-47
9.84895e-47
1.31617e-46
1.63421e-46
2.1907e-46
2.84893e-46
4.14454e-46
6.33431e-46
1.05e-45
1.84802e-45
3.55467e-45
7.21528e-45
1.58005e-44
3.50554e-44
8.13293e-44
1.79338e-43
3.92478e-43
7.73973e-43
1.45653e-42
2.3954e-42
3.76933e-42
5.21464e-42
7.0936e-42
8.65323e-42
1.08477e-41
1.29859e-41
1.65917e-41
2.02708e-41
2.63492e-41
3.26789e-41
4.35254e-41
5.53996e-41
7.65471e-41
1.01176e-40
1.46949e-40
2.0375e-40
3.16074e-40
4.75928e-40
8.47152e-40
1.53711e-39
3.63978e-39
9.22567e-39
3.13651e-38
1.18745e-37
6.66766e-37
4.61143e-36
5.28677e-35
8.04533e-34
1.7282e-32
3.38789e-31
4.83582e-30
2.77386e-29
2.54343e-29
2.68246e-32
1.55615e-41
4.86985e-44
1.87472e-47
2.2501e-51
9.60893e-56
7.10371e-58
1.55457e-58
2.63491e-58
2.37785e-57
2.99727e-56
1.81426e-55
5.3834e-55
1.14162e-54
1.85065e-54
2.6882e-54
3.63068e-54
4.4016e-54
4.74258e-54
4.85838e-54
5.93644e-54
7.23461e-54
9.85225e-54
1.4468e-53
2.15306e-53
3.19849e-53
3.76634e-53
5.05014e-53
7.19231e-53
1.02791e-52
1.41235e-52
1.85494e-52
2.49298e-52
3.42384e-52
4.69406e-52
6.37496e-52
8.53522e-52
1.13158e-51
1.49281e-51
2.04811e-51
2.80707e-51
3.82407e-51
5.1213e-51
6.73001e-51
9.12272e-51
1.21212e-50
1.66723e-50
2.0919e-50
2.72784e-50
3.74225e-50
4.76655e-50
6.58077e-50
8.76749e-50
1.30852e-49
2.04552e-49
3.43894e-49
6.11192e-49
1.17779e-48
2.39107e-48
5.19539e-48
1.14215e-47
2.61369e-47
5.71761e-47
1.24649e-46
2.4935e-46
4.79877e-46
8.20481e-46
1.34993e-45
1.97422e-45
2.84543e-45
3.70864e-45
4.90495e-45
6.1585e-45
8.21296e-45
1.05581e-44
1.44103e-44
1.89124e-44
2.65865e-44
3.60524e-44
5.28325e-44
7.52263e-44
1.17455e-43
1.78735e-43
3.04793e-43
5.2016e-43
1.06412e-42
2.33493e-42
6.31644e-42
1.80036e-41
6.85133e-41
2.96034e-40
1.89388e-39
1.53059e-38
2.05344e-37
3.74388e-36
9.3932e-35
2.1085e-33
3.27174e-32
1.9218e-31
1.48342e-31
6.02802e-35
1.15989e-44
5.58561e-47
2.4602e-50
3.0703e-54
9.14356e-59
5.71692e-62
1.09663e-62
1.91882e-62
2.07898e-61
3.4444e-60
2.45312e-59
7.90801e-59
1.74948e-58
2.9048e-58
4.27393e-58
5.81987e-58
7.15275e-58
7.89848e-58
8.29488e-58
1.02965e-57
1.28768e-57
1.78833e-57
2.63603e-57
3.91938e-57
5.81345e-57
7.08606e-57
9.71144e-57
1.40402e-56
2.03151e-56
2.83837e-56
3.81118e-56
5.23271e-56
7.33905e-56
1.02824e-55
1.42689e-55
1.95298e-55
2.64878e-55
3.57833e-55
5.01797e-55
7.02227e-55
9.73914e-55
1.32355e-54
1.75835e-54
2.40397e-54
3.21979e-54
4.47803e-54
5.68456e-54
7.54407e-54
1.05947e-53
1.38035e-53
1.95609e-53
2.66156e-53
4.06316e-53
6.47945e-53
1.10316e-52
1.97798e-52
3.81941e-52
7.76394e-52
1.67954e-51
3.67742e-51
8.35514e-51
1.82255e-50
3.96605e-50
8.04432e-50
1.57783e-49
2.79832e-49
4.79707e-49
7.4092e-49
1.12915e-48
1.57262e-48
2.21982e-48
2.94226e-48
4.11045e-48
5.57188e-48
8.00256e-48
1.11661e-47
1.66112e-47
2.41352e-47
3.77943e-47
5.84005e-47
9.89971e-47
1.67147e-46
3.18288e-46
6.2845e-46
1.47943e-45
3.61446e-45
1.07842e-44
3.43983e-44
1.4599e-43
7.15836e-43
5.18507e-42
4.85149e-41
7.54049e-40
1.62066e-38
4.66667e-37
1.17534e-35
1.94952e-34
1.14986e-33
7.27517e-34
1.07146e-37
7.0792e-48
5.35083e-50
2.66245e-53
3.41527e-57
9.53929e-62
4.79606e-66
8.08129e-67
1.46201e-66
1.89847e-65
4.13847e-64
3.43782e-63
1.1945e-62
2.74323e-62
4.6508e-62
6.91759e-62
9.49208e-62
1.18122e-61
1.33492e-61
1.43758e-61
1.81612e-61
2.33483e-61
3.30975e-61
4.89908e-61
7.27605e-61
1.07785e-60
1.35797e-60
1.90053e-60
2.78651e-60
4.07615e-60
5.77926e-60
7.91701e-60
1.10869e-59
1.58587e-59
2.26742e-59
3.21022e-59
4.48391e-59
6.21029e-59
8.57641e-59
1.22735e-58
1.75153e-58
2.47144e-58
3.40825e-58
4.58106e-58
6.32251e-58
8.54603e-58
1.20203e-57
1.5445e-57
2.08359e-57
2.9882e-57
3.97273e-57
5.76151e-57
7.98521e-57
1.2437e-56
2.01854e-56
3.47588e-56
6.28221e-56
1.21569e-55
2.47576e-55
5.34309e-55
1.16872e-54
2.64888e-54
5.78713e-54
1.26164e-53
2.59858e-53
5.19162e-53
9.53961e-53
1.70003e-52
2.76935e-52
4.45381e-52
6.62189e-52
9.96401e-52
1.41861e-51
2.08578e-51
2.99493e-51
4.53841e-51
6.75212e-51
1.06843e-50
1.67125e-50
2.8159e-50
4.75838e-50
8.86252e-50
1.68086e-49
3.60356e-49
7.92143e-49
2.03667e-48
5.49768e-48
1.80434e-47
6.41722e-47
3.02588e-46