/*--------------------------------*- C++ -*----------------------------------*\
| =========                 |                                                 |
| \\      /  F ield         | OpenFOAM: The Open Source CFD Toolbox           |
|  \\    /   O peration     | Version:  2.4.0                                 |
|   \\  /    A nd           | Web:      www.OpenFOAM.org                      |
|    \\/     M anipulation  |                                                 |
\*---------------------------------------------------------------------------*/
FoamFile
{
    version     2.0;
    format      ascii;
    class       volScalarField;
    location    "0.323";
    object      alpha.water;
}
// * * * * * * * * * * * * * * * * * * * * * * * * * * * * * * * * * * * * * //

dimensions      [0 0 0 0 0 0 0];

internalField   nonuniform List<scalar> 
10000
(
4.00062e-52
2.79422e-48
8.91872e-45
1.39802e-41
6.85903e-39
1.02781e-36
5.99364e-35
1.65378e-33
2.46105e-32
2.17896e-31
1.28865e-30
5.75411e-30
2.19633e-29
8.3205e-29
3.36334e-28
1.46958e-27
7.46134e-27
4.10863e-26
2.20096e-25
1.12724e-24
5.37639e-24
2.37235e-23
9.72508e-23
3.69333e-22
1.28404e-21
4.02236e-21
1.11706e-20
2.6959e-20
5.28923e-20
7.58377e-20
7.90152e-20
6.02601e-20
3.46497e-20
1.56693e-20
5.87243e-21
1.92305e-21
5.65598e-22
1.48712e-22
3.41345e-23
6.70723e-24
1.1153e-24
1.56849e-25
1.84901e-26
1.79559e-27
1.41634e-28
1.00643e-29
4.97936e-30
1.70398e-29
5.93554e-29
1.94732e-28
5.32148e-49
4.07421e-45
1.43317e-41
2.33567e-38
9.69807e-36
1.22911e-33
6.29824e-32
1.58099e-30
2.19897e-29
1.85225e-28
1.05043e-27
4.48657e-27
1.63685e-26
5.97289e-26
2.33807e-25
9.79846e-25
4.67768e-24
2.4194e-23
1.1972e-22
5.65635e-22
2.51017e-21
1.02798e-20
3.89933e-20
1.36839e-19
4.42022e-19
1.29144e-18
3.33521e-18
7.46899e-18
1.38348e-17
1.97772e-17
2.16164e-17
1.81702e-17
1.18897e-17
6.22108e-18
2.71014e-18
1.02331e-18
3.41786e-19
1.01077e-19
2.61468e-20
5.84286e-21
1.11502e-21
1.80894e-22
2.47214e-23
2.80633e-24
2.62462e-25
2.31264e-26
1.54618e-26
5.91773e-26
2.29384e-25
8.41016e-25
9.94549e-47
1.07045e-42
6.63729e-39
1.07764e-35
3.66396e-33
3.9178e-31
1.7684e-29
4.05015e-28
5.28148e-27
4.24913e-26
2.32188e-25
9.53062e-25
3.33855e-24
1.17284e-23
4.41641e-23
1.77057e-22
7.88425e-22
3.77652e-21
1.72432e-20
7.47707e-20
3.04797e-19
1.15093e-18
4.03476e-18
1.3114e-17
3.93369e-17
1.07679e-16
2.62577e-16
5.55876e-16
9.89666e-16
1.41264e-15
1.59673e-15
1.43482e-15
1.02865e-15
5.98687e-16
2.92457e-16
1.23776e-16
4.61489e-17
1.52056e-17
4.39544e-18
1.10194e-18
2.37251e-19
4.35971e-20
6.75885e-21
8.72838e-22
9.35243e-23
1.04399e-23
1.17684e-23
5.12168e-23
2.19899e-22
8.94692e-22
8.46232e-45
1.68462e-40
1.71673e-36
2.3001e-33
6.28947e-31
5.69662e-29
2.27478e-27
4.76967e-26
5.84906e-25
4.50942e-24
2.3821e-23
9.42806e-23
3.17185e-22
1.06555e-21
3.83749e-21
1.46202e-20
6.06069e-20
2.67398e-19
1.1302e-18
4.50169e-18
1.67643e-17
5.81258e-17
1.87823e-16
5.66003e-16
1.58353e-15
4.06428e-15
9.39789e-15
1.89999e-14
3.27901e-14
4.66979e-14
5.41476e-14
5.10596e-14
3.9172e-14
2.47108e-14
1.3173e-14
6.09518e-15
2.4869e-15
8.99156e-16
2.86234e-16
7.92652e-17
1.89226e-17
3.85956e-18
6.63306e-19
9.4893e-20
1.13299e-20
1.75325e-21
3.58151e-21
1.72081e-20
7.92813e-20
3.42209e-19
5.65268e-43
2.41885e-38
2.69301e-34
2.75023e-31
6.08231e-29
4.70314e-27
1.67074e-25
3.21935e-24
3.72373e-23
2.7597e-22
1.41358e-21
5.4137e-21
1.74961e-20
5.59047e-20
1.90985e-19
6.87172e-19
2.65452e-18
1.07846e-17
4.2209e-17
1.54847e-16
5.26257e-16
1.66994e-15
4.96893e-15
1.38922e-14
3.62951e-14
8.76027e-14
1.92056e-13
3.72617e-13
6.25246e-13
8.87336e-13
1.04939e-12
1.02841e-12
8.31507e-13
5.58208e-13
3.18551e-13
1.58357e-13
6.96858e-14
2.72788e-14
9.42935e-15
2.84263e-15
7.40436e-16
1.64303e-16
3.06037e-17
4.731e-18
6.16441e-19
1.52181e-19
4.92789e-19
2.43605e-18
1.11336e-17
4.6126e-17
2.99666e-41
3.09146e-36
2.66026e-32
2.0642e-29
3.72812e-27
2.48239e-25
7.89329e-24
1.4031e-22
1.53485e-21
1.09651e-20
5.46269e-20
2.03307e-19
6.31254e-19
1.9124e-18
6.14445e-18
2.07536e-17
7.48013e-17
2.80322e-16
1.01394e-15
3.42484e-15
1.06559e-14
3.0945e-14
8.48056e-14
2.19821e-13
5.36623e-13
1.21909e-12
2.5354e-12
4.72305e-12
7.71496e-12
1.08975e-11
1.30995e-11
1.32648e-11
1.11973e-11
7.89308e-12
4.75515e-12
2.50896e-12
1.17844e-12
4.94498e-13
1.83712e-13
5.96585e-14
1.67391e-14
3.98384e-15
7.92132e-16
1.30192e-16
1.84518e-17
7.65516e-18
3.07417e-17
1.45961e-16
6.20622e-16
2.35699e-15
1.40602e-39
2.93235e-34
1.75958e-30
1.0465e-27
1.56182e-25
9.03175e-24
2.58437e-22
4.25192e-21
4.40811e-20
3.04249e-19
1.47849e-18
5.37258e-18
1.60497e-17
4.60002e-17
1.38143e-16
4.35e-16
1.46346e-15
5.05316e-15
1.69229e-14
5.2629e-14
1.50114e-13
3.99363e-13
1.00826e-12
2.42628e-12
5.5333e-12
1.18302e-11
2.33192e-11
4.16555e-11
6.62723e-11
9.29888e-11
1.13348e-10
1.18231e-10
1.03576e-10
7.59206e-11
4.7802e-11
2.65465e-11
1.32064e-11
5.89609e-12
2.33852e-12
8.13434e-13
2.44304e-13
6.20755e-14
1.31212e-14
2.2829e-15
3.53503e-16
2.17404e-16
9.14443e-16
4.04684e-15
1.58622e-14
5.52501e-14
7.34656e-38
1.99507e-32
8.1807e-29
3.78305e-26
4.71543e-24
2.38495e-22
6.16893e-21
9.41867e-20
9.26851e-19
6.18978e-18
2.94131e-17
1.04846e-16
3.02334e-16
8.19377e-16
2.29027e-15
6.68459e-15
2.0895e-14
6.65013e-14
2.06521e-13
5.91799e-13
1.54809e-12
3.77842e-12
8.79865e-12
1.96758e-11
4.19945e-11
8.4405e-11
1.5738e-10
2.68895e-10
4.15925e-10
5.79053e-10
7.1527e-10
7.6795e-10
6.95549e-10
5.25327e-10
3.42747e-10
1.99116e-10
1.04476e-10
4.94427e-11
2.08811e-11
7.76295e-12
2.49427e-12
6.77834e-13
1.52738e-13
2.8206e-14
4.74028e-15
3.53054e-15
1.4449e-14
5.97405e-14
2.17765e-13
7.02419e-13
4.27411e-36
9.81865e-31
2.79216e-27
1.01604e-24
1.06684e-22
4.74652e-21
1.11385e-19
1.58124e-18
1.47815e-17
9.55781e-17
4.44925e-16
1.56191e-15
4.36957e-15
1.12154e-14
2.91153e-14
7.83778e-14
2.25956e-13
6.63295e-13
1.91102e-12
5.05182e-12
1.2139e-11
2.71949e-11
5.84801e-11
1.21778e-10
2.43513e-10
4.60308e-10
8.10914e-10
1.32098e-09
1.98047e-09
2.73451e-09
3.42961e-09
3.80094e-09
3.55069e-09
2.7308e-09
1.83085e-09
1.10729e-09
6.11281e-10
3.06692e-10
1.38143e-10
5.50076e-11
1.89738e-11
5.54378e-12
1.34274e-12
2.65713e-13
4.7654e-14
3.52338e-14
1.35542e-13
5.28892e-13
1.81553e-12
5.49713e-12
2.57405e-34
3.6134e-29
7.23568e-26
2.09374e-23
1.86484e-21
7.33222e-20
1.56527e-18
2.06835e-17
1.83662e-16
1.14942e-15
5.24602e-15
1.81841e-14
4.96713e-14
1.21198e-13
2.9239e-13
7.22711e-13
1.90794e-12
5.15143e-12
1.37765e-11
3.36885e-11
7.44786e-11
1.53251e-10
3.04796e-10
5.92261e-10
1.11131e-09
1.97708e-09
3.28914e-09
5.10177e-09
7.40682e-09
1.01925e-08
1.30772e-08
1.5086e-08
1.45361e-08
1.11591e-08
7.5821e-09
4.74672e-09
2.753e-09
1.46709e-09
7.0771e-10
3.03528e-10
1.1319e-10
3.58425e-11
9.42682e-12
2.02252e-12
3.81761e-13
2.36778e-13
8.28831e-13
3.09168e-12
1.01192e-11
2.91425e-11
1.40588e-32
1.025e-27
1.46544e-24
3.40165e-22
2.5844e-20
9.01101e-19
1.75296e-17
2.15633e-16
1.81666e-15
1.09861e-14
4.91362e-14
1.68331e-13
4.51985e-13
1.0543e-12
2.37233e-12
5.37029e-12
1.28964e-11
3.18961e-11
7.91566e-11
1.79597e-10
3.66184e-10
6.92883e-10
1.27654e-09
2.31705e-09
4.08185e-09
6.84058e-09
1.07618e-08
1.59365e-08
2.25677e-08
3.14875e-08
4.1925e-08
5.1211e-08
5.15943e-08
3.78677e-08
2.54796e-08
1.63677e-08
9.93762e-09
5.62679e-09
2.91619e-09
1.3536e-09
5.49604e-10
1.90281e-10
5.48641e-11
1.2905e-11
2.57389e-12
1.19021e-12
3.57278e-12
1.2844e-11
4.05816e-11
1.1245e-10
6.0258e-31
2.30438e-26
2.382e-23
4.46775e-21
2.90793e-19
9.01171e-18
1.59843e-16
1.82834e-15
1.45767e-14
8.48995e-14
3.71232e-13
1.25569e-12
3.33299e-12
7.48625e-12
1.58075e-11
3.28046e-11
7.12511e-11
1.60709e-10
3.69157e-10
7.79472e-10
1.4705e-09
2.56469e-09
4.38485e-09
7.42999e-09
1.22773e-08
1.93656e-08
2.87786e-08
4.0747e-08
5.70792e-08
8.3186e-08
1.16833e-07
1.60029e-07
1.82306e-07
1.13761e-07
7.21477e-08
4.72677e-08
2.99649e-08
1.79719e-08
9.98278e-09
5.01646e-09
2.22532e-09
8.47749e-10
2.70259e-10
7.03949e-11
1.51235e-11
5.06213e-12
1.15583e-11
4.02108e-11
1.23932e-10
3.34388e-10
2.05767e-29
4.2202e-25
3.18946e-22
4.86198e-20
2.71958e-18
7.49973e-17
1.2122e-15
1.2862e-14
9.66324e-14
5.39116e-13
2.29343e-12
7.63296e-12
2.00886e-11
4.38034e-11
8.74766e-11
1.67297e-10
3.27832e-10
6.69614e-10
1.42126e-09
2.79958e-09
4.90472e-09
7.90795e-09
1.25555e-08
1.98339e-08
3.06419e-08
4.51201e-08
6.24595e-08
8.32423e-08
1.17279e-07
1.91715e-07
2.9993e-07
5.42173e-07
7.62849e-07
3.4798e-07
1.84271e-07
1.20819e-07
7.9084e-08
4.96178e-08
2.91956e-08
1.57482e-08
7.60418e-09
3.19388e-09
1.13253e-09
3.2943e-10
7.78734e-11
2.05983e-11
2.98737e-11
9.92817e-11
3.01763e-10
8.0001e-10
5.72306e-28
6.46837e-24
3.6056e-21
4.48753e-19
2.16238e-17
5.30958e-16
7.81161e-15
7.66419e-14
5.39623e-13
2.86191e-12
1.17501e-11
3.82186e-11
9.95836e-11
2.12454e-10
4.0457e-10
7.19629e-10
1.27688e-09
2.34594e-09
4.5978e-09
8.46414e-09
1.37889e-08
2.05775e-08
3.04132e-08
4.47199e-08
6.40931e-08
8.73959e-08
1.13133e-07
1.45902e-07
2.10484e-07
3.77666e-07
8.07221e-07
1.43162e-06
2.04429e-06
1.21414e-06
6.13944e-07
3.3888e-07
1.99686e-07
1.22038e-07
7.35404e-08
4.19277e-08
2.18813e-08
1.01188e-08
4.01029e-09
1.31662e-09
3.49291e-10
8.45871e-11
6.71356e-11
2.00805e-10
6.07304e-10
1.59461e-09
1.32161e-26
8.46342e-23
3.50295e-20
3.57457e-18
1.48774e-16
3.25655e-15
4.35955e-14
3.94576e-13
2.59003e-12
1.29473e-11
5.07574e-11
1.5964e-10
4.08551e-10
8.57325e-10
1.56873e-09
2.62597e-09
4.26477e-09
7.02642e-09
1.27383e-08
2.20457e-08
3.3211e-08
4.58615e-08
6.32736e-08
8.61099e-08
1.12687e-07
1.39444e-07
1.66133e-07
2.14144e-07
3.71618e-07
8.26978e-07
1.13616e-06
8.92484e-06
1.42922e-05
2.51304e-06
1.14011e-06
6.20178e-07
3.49296e-07
2.15718e-07
1.38834e-07
8.67791e-08
5.02447e-08
2.6017e-08
1.16577e-08
4.37095e-09
1.33073e-09
3.37576e-10
1.4973e-10
3.44933e-10
1.03867e-09
2.72733e-09
2.54479e-25
9.48229e-22
2.93603e-19
2.46972e-17
8.91392e-16
1.74449e-14
2.12888e-13
1.77812e-12
1.0858e-11
5.08466e-11
1.88371e-10
5.65495e-10
1.40198e-09
2.88663e-09
5.10542e-09
8.12999e-09
1.22817e-08
1.82321e-08
3.04516e-08
5.08153e-08
6.96067e-08
8.90979e-08
1.14744e-07
1.43313e-07
1.68609e-07
1.89149e-07
2.18273e-07
2.99809e-07
5.46149e-07
9.85907e-07
9.453e-06
1.64633e-05
1.64617e-05
1.51661e-05
2.21052e-06
1.04691e-06
4.96279e-07
2.84431e-07
1.93243e-07
1.35508e-07
8.9518e-08
5.31067e-08
2.7344e-08
1.18451e-08
4.19291e-09
1.20231e-09
3.80466e-10
5.26466e-10
1.54348e-09
4.09206e-09
4.00815e-24
8.95538e-21
2.09929e-18
1.467e-16
4.61807e-15
8.11735e-14
9.06533e-13
7.01077e-12
3.9915e-11
1.74997e-10
6.09629e-10
1.72966e-09
4.09085e-09
8.15879e-09
1.3963e-08
2.13074e-08
3.03984e-08
4.07726e-08
5.04215e-08
9.68578e-08
1.25497e-07
1.46723e-07
1.65837e-07
2.03443e-07
2.12105e-07
1.97943e-07
2.31488e-07
2.71078e-07
3.99661e-07
8.49027e-07
1.54936e-06
1.24242e-05
1.64615e-05
5.28345e-06
1.33093e-06
8.76664e-07
5.00652e-07
3.19773e-07
2.34924e-07
1.81534e-07
1.34907e-07
9.10815e-08
5.37394e-08
2.68544e-08
1.10575e-08
3.67713e-09
1.08627e-09
7.88462e-10
2.02802e-09
5.48014e-09
4.98291e-23
6.95928e-20
1.2569e-17
7.37056e-16
2.03744e-14
3.23281e-13
3.31813e-12
2.38601e-11
1.27214e-10
5.24272e-10
1.72115e-09
4.60997e-09
1.03126e-08
1.96239e-08
3.23126e-08
4.73037e-08
6.4376e-08
6.86131e-08
1.19039e-07
1.81442e-07
1.94067e-07
1.89744e-07
1.93589e-07
2.56399e-07
2.38902e-07
4.65686e-07
2.58175e-07
2.67377e-07
2.95498e-07
3.98392e-07
8.30803e-07
2.17889e-06
4.01602e-06
1.97144e-06
9.91432e-07
5.84297e-07
3.95007e-07
3.0599e-07
2.58661e-07
2.22302e-07
1.83045e-07
1.3807e-07
9.20714e-08
5.26006e-08
2.50399e-08
9.68306e-09
3.08878e-09
1.3523e-09
2.43779e-09
6.61108e-09
4.74282e-22
4.35933e-19
6.19631e-17
3.08444e-15
7.54101e-14
1.0853e-12
1.0274e-11
6.8903e-11
3.45138e-10
1.34235e-09
4.17199e-09
1.06009e-08
2.24914e-08
4.07224e-08
6.43201e-08
9.01801e-08
1.17203e-07
1.26531e-07
1.87024e-07
2.48852e-07
2.23155e-07
3.14392e-07
2.36538e-07
2.94887e-07
3.29718e-07
3.30069e-07
7.65643e-07
2.81504e-07
2.92779e-07
3.11948e-07
3.93616e-07
7.82742e-07
1.20395e-06
8.43869e-07
5.4218e-07
3.75746e-07
3.1433e-07
2.92407e-07
2.79939e-07
2.63968e-07
2.35102e-07
1.92018e-07
1.40906e-07
9.0425e-08
4.92842e-08
2.21443e-08
8.08326e-09
2.87297e-09
2.88615e-09
7.29238e-09
3.39301e-21
2.1699e-18
2.48318e-16
1.06269e-14
2.31635e-13
3.03988e-12
2.6635e-11
1.66989e-10
7.87167e-10
2.89408e-09
8.53264e-09
2.06338e-08
4.17795e-08
7.24778e-08
1.10339e-07
1.50379e-07
1.88179e-07
2.10259e-07
2.97042e-07
3.36116e-07
2.98197e-07
2.83833e-07
7.99572e-07
4.73998e-07
4.02519e-07
3.63485e-07
3.19073e-07
3.11105e-07
3.12282e-07
3.14332e-07
3.34364e-07
3.94463e-07
4.66146e-07
4.38259e-07
4.03236e-07
7.04513e-07
3.23803e-07
3.27757e-07
3.42916e-07
3.57501e-07
3.37794e-07
2.78477e-07
2.08117e-07
1.42135e-07
8.60228e-08
4.42221e-08
1.87365e-08
6.80661e-09
3.88077e-09
7.54714e-09
1.81138e-20
8.48096e-18
8.0075e-16
2.99006e-14
5.86838e-13
7.07177e-12
5.76291e-11
3.3891e-10
1.50691e-09
5.24512e-09
1.46824e-08
3.38077e-08
6.54564e-08
1.09416e-07
1.6308e-07
2.24441e-07
2.94675e-07
3.79982e-07
5.32236e-07
5.02323e-07
4.97427e-07
4.60934e-07
6.14913e-07
5.71966e-07
4.84019e-07
4.14361e-07
3.69047e-07
3.41989e-07
3.14062e-07
3.78574e-07
3.74256e-07
3.77879e-07
4.07078e-07
4.22155e-07
4.2578e-07
4.27902e-07
4.37552e-07
4.55684e-07
5.18234e-07
6.33011e-07
6.7167e-07
5.29914e-07
3.63462e-07
2.34535e-07
1.43987e-07
8.02959e-08
3.85985e-08
1.56594e-08
6.701e-09
7.78621e-09
7.1157e-20
2.58082e-17
2.06828e-15
6.85898e-14
1.22721e-12
1.37038e-11
1.04583e-10
5.80015e-10
2.44301e-09
8.078e-09
2.15254e-08
4.72901e-08
8.77354e-08
1.4184e-07
2.08806e-07
2.95599e-07
4.23902e-07
6.51947e-07
8.45843e-07
1.00354e-06
8.8379e-07
8.56431e-07
9.07302e-07
8.29719e-07
6.83645e-07
5.48155e-07
4.50283e-07
3.88317e-07
3.6305e-07
3.58911e-07
3.58984e-07
5.75567e-07
5.47457e-07
5.17202e-07
5.08158e-07
5.10465e-07
5.29224e-07
5.74383e-07
6.43352e-07
7.87611e-07
1.56131e-06
1.08393e-06
6.6518e-07
4.29803e-07
2.58697e-07
1.45948e-07
7.49625e-08
3.37099e-08
1.38625e-08
9.24271e-09
2.06248e-19
6.12785e-17
4.29796e-15
1.29137e-13
2.13655e-12
2.23486e-11
1.61123e-10
8.48935e-10
3.40942e-09
1.0773e-08
2.74747e-08
5.7879e-08
1.03375e-07
1.62406e-07
2.37358e-07
3.38964e-07
4.78672e-07
8.04106e-07
1.06428e-06
1.25997e-06
2.94798e-06
2.70133e-06
2.07941e-06
1.50388e-06
9.56685e-07
6.85269e-07
5.30531e-07
4.34545e-07
3.8284e-07
3.7389e-07
4.00503e-07
4.78514e-07
5.22389e-07
5.35079e-07
5.41511e-07
5.38316e-07
5.40218e-07
5.43896e-07
5.44027e-07
2.07882e-06
1.39586e-05
1.26975e-05
2.26286e-06
6.22243e-07
4.93265e-07
2.90504e-07
1.52241e-07
7.18645e-08
3.06233e-08
1.46143e-08
4.49069e-19
1.14982e-16
7.27044e-15
2.01941e-13
3.13595e-12
3.10922e-11
2.1389e-10
1.08023e-09
4.17141e-09
1.27011e-08
3.12711e-08
6.37545e-08
1.10731e-07
1.7121e-07
2.53299e-07
3.47701e-07
3.5313e-07
1.30119e-06
1.28026e-06
1.3739e-06
3.68592e-06
8.19626e-06
9.16546e-06
2.49032e-06
1.22218e-06
8.50405e-07
6.26086e-07
4.79826e-07
4.00537e-07
3.67553e-07
6.58896e-07
6.14915e-07
1.34505e-06
7.68539e-07
6.04295e-07
5.69367e-07
5.59764e-07
5.49711e-07
5.44035e-07
1.0948e-05
1.41396e-05
1.41389e-05
1.22706e-05
1.05309e-06
5.37345e-07
3.70881e-07
2.29354e-07
1.24567e-07
5.98443e-08
2.73152e-08
7.52442e-19
1.73193e-16
1.0143e-14
2.65558e-13
3.92996e-12
3.73946e-11
2.48102e-10
1.21288e-09
4.54674e-09
1.34738e-08
3.23757e-08
6.46425e-08
1.10445e-07
1.68964e-07
2.50407e-07
2.53392e-07
8.90894e-07
7.63832e-07
5.90405e-07
3.56013e-06
2.6694e-05
2.99233e-05
2.99233e-05
2.21208e-05
1.45458e-06
6.49848e-07
5.0024e-07
4.15728e-07
3.79754e-07
3.72598e-07
3.74067e-07
4.64313e-07
6.45128e-07
7.61458e-07
7.68651e-07
5.94443e-07
9.69392e-07
5.94058e-07
5.44458e-07
4.06839e-06
1.41131e-05
1.41395e-05
7.98015e-06
5.83699e-07
5.70016e-07
4.43661e-07
3.00655e-07
1.82386e-07
9.95476e-08
4.95481e-08
9.9252e-19
2.12663e-16
1.18236e-14
2.97199e-13
4.25398e-12
3.93411e-11
2.54603e-10
1.2177e-09
4.47865e-09
1.3062e-08
3.10026e-08
6.13966e-08
1.04426e-07
1.58987e-07
2.32558e-07
3.25814e-07
7.14987e-07
7.24062e-07
5.50652e-07
1.48883e-05
2.99325e-05
2.99255e-05
2.99223e-05
2.99215e-05
9.12153e-06
4.63095e-07
4.55467e-07
6.9567e-07
3.80189e-07
3.77767e-07
4.13061e-07
4.48566e-07
7.6034e-07
1.15849e-06
1.02693e-06
8.56145e-07
5.21323e-07
8.11267e-07
7.6088e-07
5.91076e-07
4.78737e-06
5.33477e-06
3.58347e-06
9.84444e-07
9.33149e-07
6.90124e-07
4.58159e-07
2.85024e-07
1.6596e-07
8.93884e-08
1.05138e-18
2.16084e-16
1.1656e-14
2.86243e-13
4.02039e-12
3.6607e-11
2.33886e-10
1.10721e-09
4.04225e-09
1.17416e-08
2.78648e-08
5.53893e-08
9.47416e-08
1.44223e-07
2.06131e-07
2.17902e-07
6.73368e-07
6.9212e-07
5.49802e-07
1.44796e-05
2.99319e-05
2.99294e-05
2.99233e-05
2.99244e-05
8.80353e-06
4.67138e-07
4.59556e-07
3.7976e-07
3.74282e-07
3.75025e-07
3.77658e-07
4.54465e-07
5.0262e-07
5.19576e-07
5.45947e-07
5.25389e-07
4.91188e-07
4.2644e-07
4.96545e-07
5.88597e-07
4.97091e-07
5.04255e-07
5.31132e-07
7.10545e-07
7.52372e-07
6.70232e-07
5.27093e-07
3.78116e-07
2.49168e-07
1.50264e-07
9.06873e-19
1.83781e-16
9.81739e-15
2.39293e-13
3.34405e-12
3.03659e-11
1.93898e-10
9.19423e-10
3.37122e-09
9.86674e-09
2.36782e-08
4.7761e-08
8.30163e-08
1.27587e-07
1.78451e-07
2.36027e-07
2.45505e-07
4.63811e-07
5.49567e-07
5.50051e-07
2.20846e-05
2.99304e-05
2.99278e-05
1.83227e-05
8.1784e-07
5.82884e-07
4.81421e-07
4.303e-07
4.06095e-07
3.99594e-07
4.06683e-07
4.22574e-07
4.45155e-07
4.58098e-07
4.53452e-07
4.41866e-07
4.17897e-07
4.09013e-07
4.21612e-07
4.54346e-07
4.8281e-07
5.05517e-07
4.97936e-07
4.4155e-07
1.05497e-06
7.26641e-07
6.48803e-07
5.18258e-07
3.73849e-07
2.44856e-07
6.4157e-19
1.31466e-16
7.0831e-15
1.74135e-13
2.45585e-12
2.25223e-11
1.45458e-10
6.99099e-10
2.60483e-09
7.76931e-09
1.90582e-08
3.94086e-08
7.03411e-08
1.10821e-07
1.57233e-07
2.04405e-07
2.45382e-07
3.21547e-07
5.11015e-07
7.73589e-07
1.29334e-06
2.62864e-06
3.45695e-06
1.07051e-06
9.21189e-07
6.75336e-07
5.33096e-07
4.68437e-07
4.45725e-07
4.34196e-07
4.24994e-07
4.32033e-07
4.60253e-07
4.59271e-07
4.41305e-07
6.7913e-07
4.57035e-07
4.06769e-07
3.99179e-07
4.05896e-07
4.18902e-07
4.30293e-07
4.30952e-07
4.4054e-07
4.61366e-07
5.78703e-07
7.34371e-07
5.38812e-07
5.17185e-07
4.1504e-07
3.7192e-19
7.87591e-17
4.36218e-15
1.0993e-13
1.58614e-12
1.48811e-11
9.84525e-11
4.85634e-10
1.86129e-09
5.72421e-09
1.45107e-08
3.10606e-08
5.7407e-08
9.34537e-08
1.36138e-07
1.7941e-07
2.11823e-07
2.74344e-07
3.53918e-07
4.6085e-07
5.82993e-07
6.69825e-07
6.61073e-07
5.77158e-07
4.93629e-07
4.42864e-07
4.39884e-07
4.65753e-07
5.05768e-07
5.11491e-07
4.26749e-07
8.19213e-07
6.89325e-07
6.24153e-07
4.80407e-07
4.44427e-07
4.25877e-07
4.17377e-07
3.98794e-07
3.95954e-07
4.02689e-07
4.12138e-07
4.17167e-07
4.17175e-07
4.22928e-07
4.7183e-07
4.64435e-07
9.14353e-07
9.14711e-07
6.47116e-07
1.74851e-19
3.91974e-17
2.27942e-15
5.98537e-14
8.96641e-13
8.7252e-12
5.99211e-11
3.07296e-10
1.2268e-09
3.93683e-09
1.04271e-08
2.33323e-08
4.5046e-08
7.64433e-08
1.15786e-07
1.58482e-07
1.97608e-07
2.25341e-07
2.81458e-07
3.24611e-07
3.44801e-07
3.46906e-07
4.25931e-07
3.85737e-07
3.67705e-07
3.71821e-07
3.56473e-07
8.5722e-07
7.06113e-07
5.92027e-07
5.19389e-07
4.32036e-07
5.39163e-07
1.70143e-06
3.93992e-06
6.23651e-06
2.44612e-06
4.44823e-07
4.51305e-07
4.22311e-07
4.19677e-07
4.27812e-07
4.361e-07
4.38961e-07
4.3763e-07
4.44801e-07
4.62232e-07
4.8987e-07
6.00039e-07
9.08049e-07
6.65879e-20
1.61765e-17
1.00454e-15
2.79412e-14
4.41478e-13
4.52225e-12
3.26729e-11
1.76316e-10
7.41234e-10
2.50728e-09
7.00455e-09
1.6526e-08
3.35814e-08
5.9782e-08
9.45517e-08
1.34491e-07
1.71481e-07
1.99742e-07
2.49628e-07
2.71014e-07
2.83285e-07
2.8372e-07
6.06103e-07
2.95182e-07
3.07306e-07
3.44566e-07
3.55757e-07
3.33889e-07
3.67083e-07
3.88479e-07
3.71093e-07
3.28827e-07
3.35601e-07
3.06823e-05
5.36284e-05
5.36132e-05
4.31693e-05
5.86293e-06
4.44291e-07
4.37537e-07
5.63323e-07
5.92657e-07
5.72995e-07
5.43152e-07
5.12884e-07
4.91439e-07
4.83237e-07
4.83371e-07
5.88413e-07
6.15221e-07
2.0471e-20
5.50179e-18
3.71946e-16
1.11471e-14
1.88523e-13
2.0592e-12
1.58257e-11
9.07619e-11
4.05511e-10
1.45829e-09
4.33026e-09
1.08455e-08
2.33493e-08
4.39306e-08
7.31938e-08
1.09171e-07
1.39366e-07
1.57509e-07
2.77615e-07
2.85037e-07
2.84141e-07
2.97632e-07
2.71923e-07
2.79441e-07
3.15807e-07
3.25324e-07
3.24951e-07
3.32543e-07
3.38822e-07
3.37428e-07
3.29087e-07
3.2374e-07
2.14432e-05
5.36877e-05
5.36541e-05
5.36101e-05
5.36733e-05
3.88045e-05
1.74959e-06
4.42419e-07
4.56781e-07
6.65784e-07
6.82913e-07
5.22992e-07
5.56487e-07
5.08059e-07
5.00478e-07
4.93198e-07
4.71092e-07
4.92772e-07
5.06253e-21
1.52922e-18
1.14745e-16
3.76514e-15
6.91155e-14
8.14473e-13
6.73152e-12
4.14486e-11
1.98476e-10
7.63599e-10
2.42011e-09
6.45609e-09
1.47847e-08
2.95816e-08
5.24369e-08
8.31941e-08
1.02227e-07
1.05268e-07
6.62925e-07
3.06256e-07
2.91341e-07
2.74713e-07
2.68229e-07
2.52292e-07
6.63893e-07
3.43916e-07
3.28204e-07
3.17432e-07
3.18998e-07
3.22464e-07
3.2373e-07
3.2373e-07
2.23953e-05
5.36717e-05
5.3608e-05
5.3597e-05
5.36369e-05
4.3764e-05
2.54528e-06
4.64856e-07
5.22225e-07
5.15739e-07
5.10843e-07
5.07058e-07
5.00714e-07
4.94152e-07
4.81882e-07
4.8965e-07
4.41731e-07
3.13162e-07
9.90629e-22
3.46644e-19
2.94766e-17
1.07824e-15
2.18086e-14
2.81057e-13
2.52684e-12
1.68311e-11
8.66597e-11
3.56742e-10
1.20553e-09
3.4232e-09
8.34517e-09
1.78071e-08
3.37793e-08
5.75529e-08
6.32195e-08
1.48217e-07
6.47775e-08
2.47203e-07
2.81986e-07
2.74308e-07
6.39848e-07
2.49739e-07
2.19783e-07
2.76767e-07
2.90924e-07
3.0079e-07
3.13144e-07
3.21921e-07
3.24573e-07
3.23737e-07
2.25253e-05
5.37108e-05
5.36695e-05
5.36066e-05
5.36181e-05
4.18913e-05
2.88189e-06
4.95275e-07
6.78606e-07
5.51325e-07
5.15308e-07
4.9817e-07
4.89079e-07
4.82315e-07
4.67868e-07
4.5744e-07
4.50025e-07
1.79438e-05
1.45953e-22
6.21472e-20
6.25076e-18
2.63972e-16
6.06074e-15
8.74068e-14
8.65796e-13
6.24804e-12
3.43773e-11
1.5004e-10
5.35794e-10
1.60823e-09
4.15427e-09
9.42195e-09
1.90759e-08
3.48517e-08
5.76978e-08
5.75499e-08
6.08115e-08
3.34186e-07
3.03127e-07
2.73e-07
1.96926e-07
2.77142e-07
2.13105e-07
6.15816e-07
3.01726e-07
3.08448e-07
3.18972e-07
3.29287e-07
3.33852e-07
3.24886e-07
7.53878e-07
3.60855e-05
5.36709e-05
5.36362e-05
5.0422e-05
1.10869e-05
5.0941e-07
5.30994e-07
5.3321e-07
5.01296e-07
4.86764e-07
4.81043e-07
4.78196e-07
4.75869e-07
4.5741e-07
4.57006e-07
1.21097e-05
5.70512e-05
1.63938e-23
9.02581e-21
1.13528e-18
5.83941e-17
1.59073e-15
2.62786e-14
2.87763e-13
2.2313e-12
1.29462e-11
5.89689e-11
2.18874e-10
6.84067e-10
1.84855e-09
4.40861e-09
9.43929e-09
1.8361e-08
3.25986e-08
5.28645e-08
6.66379e-08
6.83296e-08
1.23739e-07
1.64549e-07
1.91362e-07
1.60927e-07
2.09961e-07
2.12918e-07
2.55485e-07
2.78316e-07
3.18705e-07
3.34641e-07
3.61137e-07
3.72517e-07
3.75949e-07
6.12497e-07
1.38469e-05
1.7806e-05
5.18623e-06
4.75134e-07
5.0174e-07
6.61706e-07
6.53792e-07
4.89446e-07
4.75719e-07
4.68625e-07
4.68627e-07
4.70261e-07
4.61458e-07
4.5696e-07
2.003e-05
5.77906e-05
1.42944e-24
1.08756e-21
1.86988e-19
1.26999e-17
4.27184e-16
8.13954e-15
9.76963e-14
8.02906e-13
4.83805e-12
2.26036e-11
8.55993e-11
2.73285e-10
7.5759e-10
1.8657e-09
4.15533e-09
8.47735e-09
1.59435e-08
2.76387e-08
3.39375e-08
6.46502e-08
8.23781e-08
1.01414e-07
1.26198e-07
1.53589e-07
1.92942e-07
2.30451e-07
2.57747e-07
2.51071e-07
3.58106e-07
3.33402e-07
3.76499e-07
5.58731e-07
4.78652e-07
4.36331e-07
4.3902e-07
4.42923e-07
4.48665e-07
4.68399e-07
4.67944e-07
4.52119e-07
4.54056e-07
5.90487e-07
4.29405e-07
4.48954e-07
4.54922e-07
4.61429e-07
4.59297e-07
4.57271e-07
2.91481e-06
5.32923e-05
1.00152e-25
1.15919e-22
3.0895e-20
2.94071e-18
1.21751e-16
2.61772e-15
3.37393e-14
2.89599e-13
1.79041e-12
8.48535e-12
3.24283e-11
1.04354e-10
2.92255e-10
7.31036e-10
1.66473e-09
3.49968e-09
6.85366e-09
1.25307e-08
2.13263e-08
2.56005e-08
4.02607e-08
6.22107e-08
8.41172e-08
1.06128e-07
1.50688e-07
1.9667e-07
2.28226e-07
2.4852e-07
2.1979e-07
2.70288e-07
3.02755e-07
3.277e-07
3.69611e-07
3.57898e-07
9.23974e-07
9.25284e-07
5.13418e-07
6.04934e-07
4.08724e-07
4.12032e-07
5.38576e-07
4.06697e-07
4.18098e-07
4.20728e-07
4.28384e-07
4.36653e-07
4.48934e-07
6.13918e-07
5.68554e-07
4.77157e-06
5.93573e-27
1.11484e-23
5.25255e-21
7.04387e-19
3.49803e-17
8.54923e-16
1.23415e-14
1.1568e-13
7.52223e-13
3.62246e-12
1.37401e-11
4.33099e-11
1.18385e-10
2.89954e-10
6.51885e-10
1.3679e-09
2.70863e-09
5.0858e-09
9.04814e-09
1.52245e-08
2.42102e-08
3.64836e-08
4.74206e-08
6.32085e-08
9.79811e-08
1.37029e-07
1.68119e-07
1.91125e-07
2.11843e-07
2.3632e-07
2.6772e-07
3.03654e-07
3.34794e-07
3.46957e-07
3.19134e-07
3.30255e-07
3.76742e-07
3.76142e-07
4.02504e-07
4.11938e-07
4.03702e-07
4.03381e-07
4.01576e-07
3.99819e-07
3.99203e-07
3.99981e-07
1.47199e-06
2.6365e-06
1.48063e-06
6.07278e-07
2.72098e-28
9.56869e-25
9.61963e-22
1.72772e-19
1.20103e-17
4.71762e-16
9.88471e-15
1.12477e-13
7.79595e-13
3.69708e-12
1.31537e-11
3.76612e-11
9.1552e-11
1.97088e-10
3.88878e-10
7.23062e-10
1.29405e-09
2.25949e-09
3.8674e-09
6.47426e-09
1.05428e-08
1.66168e-08
2.17712e-08
3.5005e-08
4.53149e-08
6.0297e-08
8.31149e-08
1.09887e-07
1.37555e-07
1.66023e-07
1.96205e-07
2.27993e-07
2.59664e-07
2.88961e-07
3.14803e-07
3.37533e-07
3.57586e-07
3.75186e-07
3.84652e-07
3.90405e-07
4.06272e-07
4.08816e-07
4.09189e-07
4.07341e-07
4.05505e-07
4.36918e-07
2.47192e-06
2.63526e-06
9.53036e-07
5.12389e-07
8.55831e-30
9.93682e-26
1.77375e-22
7.71378e-20
1.71798e-17
1.11419e-15
2.60279e-14
2.91132e-13
1.91448e-12
8.52495e-12
2.83356e-11
7.53171e-11
1.68176e-10
3.27393e-10
5.72119e-10
9.19374e-10
1.38796e-09
2.00933e-09
2.84565e-09
4.01583e-09
5.72554e-09
8.29082e-09
1.21362e-08
1.54399e-08
2.12081e-08
3.11265e-08
4.52229e-08
6.31834e-08
8.47685e-08
1.09855e-07
1.38285e-07
1.6952e-07
2.0253e-07
2.36276e-07
2.70109e-07
3.03336e-07
3.35686e-07
3.66714e-07
3.67824e-07
5.41571e-07
4.48204e-07
4.47306e-07
4.50753e-07
4.46787e-07
4.46755e-07
5.109e-07
5.20097e-07
6.24659e-07
5.44813e-07
4.68705e-07
1.43545e-31
1.07642e-26
9.28843e-23
2.48983e-19
6.85729e-17
4.01714e-15
8.35159e-14
8.46696e-13
5.14381e-12
2.1489e-11
6.77806e-11
1.72389e-10
3.7013e-10
6.94551e-10
1.16919e-09
1.80071e-09
2.57599e-09
3.46503e-09
4.42883e-09
5.43872e-09
6.50785e-09
7.72459e-09
9.2826e-09
1.15059e-08
1.48658e-08
1.99696e-08
2.7492e-08
3.8058e-08
5.21996e-08
7.04342e-08
9.32653e-08
1.20956e-07
1.53321e-07
1.90003e-07
2.3022e-07
2.72175e-07
3.16015e-07
3.62629e-07
4.02795e-07
4.12844e-07
4.53039e-07
4.91579e-07
5.37336e-07
4.57846e-07
4.6775e-07
4.89396e-07
4.93065e-07
4.84723e-07
4.70346e-07
4.68632e-07
1.19547e-33
2.57263e-27
4.76837e-22
1.23373e-18
2.74924e-16
1.35964e-14
2.48163e-13
2.27673e-12
1.28048e-11
5.03632e-11
1.51395e-10
3.70454e-10
7.70361e-10
1.4082e-09
2.32104e-09
3.51489e-09
4.95756e-09
6.57773e-09
8.26504e-09
9.88915e-09
1.13378e-08
1.25466e-08
1.35212e-08
1.43628e-08
1.53114e-08
1.67892e-08
1.94139e-08
2.39482e-08
3.12574e-08
4.23641e-08
5.8481e-08
8.08223e-08
1.1021e-07
1.47068e-07
1.90023e-07
2.37495e-07
2.91005e-07
3.58841e-07
4.18474e-07
4.48773e-07
4.5912e-07
5.0982e-07
8.37823e-07
1.54733e-06
9.00426e-07
4.97001e-07
4.9502e-07
4.79912e-07
4.69616e-07
4.68632e-07
1.83571e-35
1.64698e-26
2.95209e-21
5.6026e-18
9.96975e-16
4.17125e-14
6.71389e-13
5.60062e-12
2.92871e-11
1.08829e-10
3.12533e-10
7.37008e-10
1.48548e-09
2.64561e-09
4.27063e-09
6.36694e-09
8.88361e-09
1.17071e-08
1.46489e-08
1.74767e-08
1.99814e-08
2.20045e-08
2.34361e-08
2.4213e-08
2.43665e-08
2.40868e-08
2.37753e-08
2.40656e-08
2.58401e-08
3.03068e-08
3.90696e-08
5.40529e-08
7.70615e-08
1.09345e-07
1.48563e-07
1.99112e-07
2.58536e-07
2.74343e-07
5.71788e-07
5.28123e-07
4.24991e-07
4.31322e-07
2.70469e-06
3.57282e-06
1.08458e-06
5.06541e-07
4.94232e-07
4.85625e-07
4.71059e-07
4.68633e-07
3.38354e-36
1.4824e-25
1.64408e-20
2.28733e-17
3.26691e-15
1.16341e-13
1.66185e-12
1.26803e-11
6.19671e-11
2.18417e-10
6.00715e-10
1.36737e-09
2.67179e-09
4.63152e-09
7.30972e-09
1.07097e-08
1.47607e-08
1.93004e-08
2.4032e-08
2.85934e-08
3.26877e-08
3.61053e-08
3.8676e-08
4.02188e-08
4.06087e-08
3.98564e-08
3.8146e-08
3.58805e-08
3.37541e-08
3.28597e-08
3.4787e-08
4.17135e-08
5.61747e-08
8.01559e-08
1.12504e-07
1.66351e-07
2.45531e-07
3.21792e-07
3.47087e-07
3.90169e-07
4.15317e-07
6.75709e-07
1.60544e-06
3.652e-06
3.99703e-06
3.49676e-06
1.19354e-06
4.92909e-07
4.8252e-07
4.70094e-07
6.716e-35
1.19337e-24
8.2032e-20
8.41726e-17
9.71589e-15
2.96711e-13
3.78946e-12
2.66278e-11
1.22301e-10
4.10668e-10
1.08447e-09
2.38683e-09
4.52216e-09
7.62122e-09
1.1736e-08
1.68607e-08
2.29136e-08
2.96806e-08
3.6706e-08
4.34571e-08
4.95678e-08
5.48236e-08
5.90345e-08
6.19043e-08
6.31845e-08
6.27974e-08
6.07852e-08
5.73189e-08
5.28019e-08
4.80229e-08
4.43023e-08
4.3718e-08
4.92152e-08
6.37314e-08
9.25973e-08
1.32395e-07
1.93129e-07
2.63239e-07
3.30644e-07
3.37906e-07
9.64645e-07
5.6545e-07
4.70286e-07
1.09443e-06
1.9006e-05
2.08283e-05
1.11938e-05
7.16742e-07
4.79681e-07
4.74419e-07
1.34334e-33
8.5667e-24
3.67605e-19
2.80311e-16
2.63656e-14
6.96451e-13
8.0193e-12
5.22761e-11
2.27006e-10
7.29347e-10
1.85364e-09
3.95144e-09
7.26033e-09
1.18815e-08
1.78117e-08
2.50335e-08
3.34876e-08
4.2917e-08
5.26316e-08
6.19033e-08
7.0344e-08
7.77816e-08
8.40163e-08
8.85671e-08
9.10847e-08
9.15623e-08
9.00132e-08
8.64166e-08
8.08557e-08
7.37192e-08
6.59115e-08
5.91475e-08
5.62704e-08
6.10597e-08
7.90534e-08
1.10589e-07
1.59468e-07
2.11842e-07
2.31261e-07
6.21894e-07
9.65625e-07
6.08595e-07
4.69611e-07
1.19298e-05
2.0831e-05
2.083e-05
2.08302e-05
7.75523e-06
4.88856e-07
4.77844e-07
2.37553e-32
5.49297e-23
1.48434e-18
8.48722e-16
6.56713e-14
1.51493e-12
1.58667e-11
9.66724e-11
3.99186e-10
1.23213e-09
3.01945e-09
6.24332e-09
1.11257e-08
1.76609e-08
2.57184e-08
3.52783e-08
4.63837e-08
5.87536e-08
7.13627e-08
8.33495e-08
9.43744e-08
1.04307e-07
1.12886e-07
1.19247e-07
1.22998e-07
1.24557e-07
1.23994e-07
1.21078e-07
1.15589e-07
1.07531e-07
9.73311e-08
8.61181e-08
7.60074e-08
7.00231e-08
7.45563e-08
9.05666e-08
1.33159e-07
1.87675e-07
1.89901e-07
5.4966e-07
9.71812e-07
5.7659e-07
4.69367e-07
8.12686e-06
2.08312e-05
2.08293e-05
2.08309e-05
8.18317e-06
5.04444e-07