/*--------------------------------*- C++ -*----------------------------------*\
| =========                 |                                                 |
| \\      /  F ield         | OpenFOAM: The Open Source CFD Toolbox           |
|  \\    /   O peration     | Version:  2.4.0                                 |
|   \\  /    A nd           | Web:      www.OpenFOAM.org                      |
|    \\/     M anipulation  |                                                 |
\*---------------------------------------------------------------------------*/
FoamFile
{
    version     2.0;
    format      ascii;
    class       volVectorField;
    location    "0.323";
    object      U;
}
// * * * * * * * * * * * * * * * * * * * * * * * * * * * * * * * * * * * * * //

dimensions      [0 1 -1 0 0 0 0];

internalField   nonuniform List<vector> 
10000
(
(-1.4711e-06 1.46964e-06 0)
(-5.63009e-06 1.47809e-06 0)
(-8.4947e-06 1.02798e-06 0)
(-9.28185e-06 5.35978e-07 0)
(-7.67987e-06 8.65116e-08 0)
(-4.20124e-06 -2.76306e-07 0)
(6.339e-07 -5.3491e-07 0)
(6.42004e-06 -7.0128e-07 0)
(1.28469e-05 -7.99151e-07 0)
(1.96703e-05 -8.50271e-07 0)
(2.66995e-05 -8.69631e-07 0)
(3.37914e-05 -8.67042e-07 0)
(4.08461e-05 -8.50143e-07 0)
(4.78016e-05 -8.25964e-07 0)
(5.46281e-05 -8.00797e-07 0)
(6.13227e-05 -7.79535e-07 0)
(6.79017e-05 -7.65215e-07 0)
(7.43916e-05 -7.5869e-07 0)
(8.08179e-05 -7.58309e-07 0)
(8.71927e-05 -7.59727e-07 0)
(9.35025e-05 -7.55991e-07 0)
(9.96989e-05 -7.38132e-07 0)
(0.000105692 -6.96364e-07 0)
(0.000111354 -6.21846e-07 0)
(0.000116523 -5.08765e-07 0)
(0.000121027 -3.56504e-07 0)
(0.000124708 -1.71367e-07 0)
(0.000127452 3.30096e-08 0)
(0.000129225 2.36916e-07 0)
(0.000130096 4.13603e-07 0)
(0.000130225 5.30872e-07 0)
(0.000129857 5.86837e-07 0)
(0.000129303 5.77654e-07 0)
(0.000128872 5.05042e-07 0)
(0.000128867 3.73252e-07 0)
(0.000129533 1.85495e-07 0)
(0.000131037 -3.02654e-08 0)
(0.000133469 -2.51719e-07 0)
(0.000136819 -4.61088e-07 0)
(0.000140996 -6.42814e-07 0)
(0.000145846 -7.85117e-07 0)
(0.00015117 -8.81083e-07 0)
(0.000156746 -9.2899e-07 0)
(0.000162353 -9.31961e-07 0)
(0.000167787 -8.96905e-07 0)
(0.000172874 -8.32936e-07 0)
(0.000177481 -7.49849e-07 0)
(0.000181522 -6.56827e-07 0)
(0.000184953 -5.61856e-07 0)
(0.000187769 -4.7177e-07 0)
(-1.62423e-06 5.78673e-06 0)
(-6.07979e-06 5.9221e-06 0)
(-6.60102e-06 2.41072e-06 0)
(-2.17309e-06 -1.94801e-06 0)
(7.47514e-06 -5.90205e-06 0)
(2.15347e-05 -9.04613e-06 0)
(3.8963e-05 -1.13591e-05 0)
(5.88199e-05 -1.29586e-05 0)
(8.034e-05 -1.39923e-05 0)
(0.000102914 -1.45937e-05 0)
(0.000126058 -1.48712e-05 0)
(0.000149402 -1.49122e-05 0)
(0.000172671 -1.47913e-05 0)
(0.000195683 -1.45744e-05 0)
(0.000218338 -1.43187e-05 0)
(0.000240603 -1.40696e-05 0)
(0.000262494 -1.38569e-05 0)
(0.000284058 -1.36909e-05 0)
(0.000305342 -1.35595e-05 0)
(0.00032636 -1.34267e-05 0)
(0.000347074 -1.32346e-05 0)
(0.000367359 -1.29098e-05 0)
(0.000386996 -1.23734e-05 0)
(0.000405674 -1.15566e-05 0)
(0.00042301 -1.04173e-05 0)
(0.000438591 -8.95697e-06 0)
(0.000452043 -7.23424e-06 0)
(0.0004631 -5.36862e-06 0)
(0.00047168 -3.53116e-06 0)
(0.000477937 -1.92041e-06 0)
(0.000482283 -7.2708e-07 0)
(0.00048533 -6.76222e-08 0)
(0.000487798 6.01183e-09 0)
(0.000490433 -4.99938e-07 0)
(0.000493943 -1.53584e-06 0)
(0.000498939 -2.99388e-06 0)
(0.000505846 -4.7031e-06 0)
(0.000514857 -6.48275e-06 0)
(0.000525942 -8.16134e-06 0)
(0.000538869 -9.59258e-06 0)
(0.000553243 -1.06678e-05 0)
(0.000568557 -1.13228e-05 0)
(0.000584251 -1.15381e-05 0)
(0.000599758 -1.13335e-05 0)
(0.00061456 -1.07602e-05 0)
(0.000628213 -9.88922e-06 0)
(0.000640373 -8.80152e-06 0)
(0.000650808 -7.57991e-06 0)
(0.000659393 -6.30306e-06 0)
(0.000666101 -5.04205e-06 0)
(-1.21825e-06 8.7866e-06 0)
(-2.82429e-06 6.68427e-06 0)
(2.15421e-06 -2.42804e-06 0)
(1.42679e-05 -1.32213e-05 0)
(3.34071e-05 -2.29639e-05 0)
(5.85082e-05 -3.07712e-05 0)
(8.82753e-05 -3.6613e-05 0)
(0.000121479 -4.07441e-05 0)
(0.000157061 -4.34752e-05 0)
(0.00019415 -4.50947e-05 0)
(0.000232038 -4.58519e-05 0)
(0.00027017 -4.5963e-05 0)
(0.00030813 -4.56194e-05 0)
(0.000345631 -4.49928e-05 0)
(0.000382503 -4.42327e-05 0)
(0.000418681 -4.34591e-05 0)
(0.000454176 -4.27526e-05 0)
(0.000489041 -4.21439e-05 0)
(0.00052334 -4.16057e-05 0)
(0.000557095 -4.10501e-05 0)
(0.000590249 -4.03339e-05 0)
(0.000622629 -3.9274e-05 0)
(0.00065392 -3.76747e-05 0)
(0.000683673 -3.53656e-05 0)
(0.000711331 -3.2243e-05 0)
(0.00073629 -2.83132e-05 0)
(0.000757992 -2.37248e-05 0)
(0.000776036 -1.87804e-05 0)
(0.000790295 -1.39142e-05 0)
(0.000800997 -9.6248e-06 0)
(0.000808758 -6.37214e-06 0)
(0.000814496 -4.4854e-06 0)
(0.000819284 -4.09305e-06 0)
(0.0008242 -5.17615e-06 0)
(0.000830278 -7.61153e-06 0)
(0.000838409 -1.10941e-05 0)
(0.000849196 -1.5208e-05 0)
(0.000862904 -1.94932e-05 0)
(0.000879464 -2.35092e-05 0)
(0.00089851 -2.68806e-05 0)
(0.000919442 -2.93297e-05 0)
(0.0009415 -3.0692e-05 0)
(0.00096385 -3.09164e-05 0)
(0.00098566 -3.00524e-05 0)
(0.00100617 -2.82275e-05 0)
(0.00102473 -2.56219e-05 0)
(0.00104085 -2.2444e-05 0)
(0.0010542 -1.891e-05 0)
(0.00106461 -1.52283e-05 0)
(0.00107204 -1.15886e-05 0)
(-6.34518e-07 9.6247e-06 0)
(1.50872e-06 2.30063e-06 0)
(1.269e-05 -1.44765e-05 0)
(3.28376e-05 -3.33398e-05 0)
(6.13042e-05 -5.03e-05 0)
(9.6738e-05 -6.39805e-05 0)
(0.000137644 -7.43067e-05 0)
(0.000182605 -8.16702e-05 0)
(0.00023037 -8.65649e-05 0)
(0.000279881 -8.94601e-05 0)
(0.000330263 -9.0774e-05 0)
(0.000380812 -9.08813e-05 0)
(0.000430996 -9.01243e-05 0)
(0.000480441 -8.88155e-05 0)
(0.000528922 -8.7231e-05 0)
(0.000576348 -8.55952e-05 0)
(0.00062273 -8.40613e-05 0)
(0.000668142 -8.26923e-05 0)
(0.000712675 -8.1446e-05 0)
(0.000756379 -8.01693e-05 0)
(0.000799203 -7.86064e-05 0)
(0.00084095 -7.6427e-05 0)
(0.000881242 -7.32757e-05 0)
(0.000919514 -6.88384e-05 0)
(0.00095505 -6.292e-05 0)
(0.000987059 -5.55216e-05 0)
(0.00101479 -4.69045e-05 0)
(0.00103768 -3.76178e-05 0)
(0.00105552 -2.84622e-05 0)
(0.0010686 -2.03711e-05 0)
(0.00107775 -1.42099e-05 0)
(0.00108424 -1.05801e-05 0)
(0.00108949 -9.67948e-06 0)
(0.00109485 -1.1447e-05 0)
(0.00110164 -1.56811e-05 0)
(0.00111102 -2.18114e-05 0)
(0.00112372 -2.90559e-05 0)
(0.00114003 -3.65664e-05 0)
(0.00115979 -4.354e-05 0)
(0.00118249 -4.92979e-05 0)
(0.0012073 -5.3341e-05 0)
(0.00123322 -5.53778e-05 0)
(0.00125917 -5.53235e-05 0)
(0.00128408 -5.3275e-05 0)
(0.00130701 -4.94705e-05 0)
(0.00132716 -4.4244e-05 0)
(0.00134393 -3.79811e-05 0)
(0.00135693 -3.10816e-05 0)
(0.00136599 -2.39308e-05 0)
(0.00137111 -1.6879e-05 0)
(-1.39965e-07 8.31304e-06 0)
(5.48683e-06 -7.23042e-06 0)
(2.24164e-05 -3.35891e-05 0)
(4.98705e-05 -6.18092e-05 0)
(8.66734e-05 -8.69285e-05 0)
(0.000131165 -0.000107211 0)
(0.00018165 -0.000122575 0)
(0.000236545 -0.000133556 0)
(0.000294452 -0.000140835 0)
(0.000354165 -0.000145072 0)
(0.000414672 -0.000146869 0)
(0.000475149 -0.000146782 0)
(0.000534965 -0.000145328 0)
(0.000593672 -0.000142989 0)
(0.000651005 -0.000140199 0)
(0.000706862 -0.000137315 0)
(0.000761271 -0.000134586 0)
(0.000814349 -0.000132124 0)
(0.000866242 -0.000129875 0)
(0.000917054 -0.000127612 0)
(0.000966781 -0.000124944 0)
(0.00101523 -0.000121357 0)
(0.00106199 -0.000116285 0)
(0.00110639 -0.000109222 0)
(0.00114756 -9.98346e-05 0)
(0.00118449 -8.80917e-05 0)
(0.00121619 -7.43717e-05 0)
(0.00124186 -5.95253e-05 0)
(0.00126117 -4.48372e-05 0)
(0.00127443 -3.18428e-05 0)
(0.00128273 -2.19744e-05 0)
(0.00128781 -1.61933e-05 0)
(0.00129151 -1.46922e-05 0)
(0.00129542 -1.72915e-05 0)
(0.00130112 -2.37633e-05 0)
(0.00131006 -3.31644e-05 0)
(0.00132309 -4.42124e-05 0)
(0.00134043 -5.55609e-05 0)
(0.00136179 -6.59618e-05 0)
(0.00138643 -7.43733e-05 0)
(0.00141328 -8.00405e-05 0)
(0.00144105 -8.25357e-05 0)
(0.00146843 -8.17541e-05 0)
(0.00149413 -7.78724e-05 0)
(0.00151702 -7.12839e-05 0)
(0.00153621 -6.2526e-05 0)
(0.00155103 -5.22108e-05 0)
(0.0015611 -4.0968e-05 0)
(0.00156627 -2.93997e-05 0)
(0.0015666 -1.80501e-05 0)
(2.17059e-07 5.17221e-06 0)
(8.70454e-06 -2.11555e-05 0)
(3.0551e-05 -5.88377e-05 0)
(6.42993e-05 -9.75577e-05 0)
(0.00010829 -0.000131594 0)
(0.000160559 -0.000158992 0)
(0.000219196 -0.000179734 0)
(0.000282454 -0.000194523 0)
(0.000348787 -0.000204237 0)
(0.000416854 -0.000209735 0)
(0.00048552 -0.000211815 0)
(0.000553848 -0.000211229 0)
(0.000621115 -0.000208695 0)
(0.000686813 -0.000204895 0)
(0.000750646 -0.00020045 0)
(0.000812516 -0.000195882 0)
(0.000872493 -0.000191564 0)
(0.000930763 -0.000187675 0)
(0.000987563 -0.000184163 0)
(0.0010431 -0.000180723 0)
(0.00109745 -0.000176804 0)
(0.00115047 -0.000171662 0)
(0.00120175 -0.000164464 0)
(0.00125052 -0.000154442 0)
(0.00129575 -0.000141058 0)
(0.00133618 -0.000124189 0)
(0.0013705 -0.000104309 0)
(0.00139756 -8.26145e-05 0)
(0.00141675 -6.10192e-05 0)
(0.00142839 -4.19053e-05 0)
(0.00143391 -2.75257e-05 0)
(0.00143574 -1.93453e-05 0)
(0.00143635 -1.73308e-05 0)
(0.00143739 -2.1003e-05 0)
(0.0014407 -3.03254e-05 0)
(0.00144821 -4.37974e-05 0)
(0.00146077 -5.94358e-05 0)
(0.00147847 -7.52728e-05 0)
(0.00150078 -8.95392e-05 0)
(0.00152666 -0.000100782 0)
(0.00155472 -0.000107969 0)
(0.00158339 -0.000110544 0)
(0.00161104 -0.000108416 0)
(0.00163616 -0.000101894 0)
(0.0016575 -9.15861e-05 0)
(0.00167405 -7.82948e-05 0)
(0.00168516 -6.29141e-05 0)
(0.00169045 -4.63495e-05 0)
(0.00168987 -2.94561e-05 0)
(0.00168359 -1.29985e-05 0)
(4.69435e-07 5.73693e-07 0)
(1.12336e-05 -3.86815e-05 0)
(3.71948e-05 -8.92381e-05 0)
(7.63213e-05 -0.000139518 0)
(0.000126524 -0.000183166 0)
(0.000185545 -0.000218116 0)
(0.000251255 -0.000244481 0)
(0.00032173 -0.000263165 0)
(0.000395266 -0.00027526 0)
(0.000470382 -0.000281833 0)
(0.000545808 -0.000283891 0)
(0.000620495 -0.000282402 0)
(0.000693624 -0.000278309 0)
(0.000764624 -0.000272526 0)
(0.000833177 -0.000265901 0)
(0.000899207 -0.000259157 0)
(0.000962846 -0.000252826 0)
(0.00102438 -0.000247184 0)
(0.00108419 -0.000242198 0)
(0.00114261 -0.000237488 0)
(0.00119989 -0.00023232 0)
(0.00125599 -0.000225664 0)
(0.0013105 -0.000216347 0)
(0.00136261 -0.000203249 0)
(0.00141112 -0.000185528 0)
(0.00145448 -0.000162871 0)
(0.00149095 -0.000135776 0)
(0.00151887 -0.000105799 0)
(0.00153715 -7.56508e-05 0)
(0.00154594 -4.89363e-05 0)
(0.00154709 -2.91687e-05 0)
(0.00154426 -1.86241e-05 0)
(0.00154093 -1.64782e-05 0)
(0.00153834 -2.15156e-05 0)
(0.00153859 -3.45897e-05 0)
(0.00154443 -5.32493e-05 0)
(0.00155665 -7.44747e-05 0)
(0.00157498 -9.5548e-05 0)
(0.00159853 -0.000114125 0)
(0.00162592 -0.000128304 0)
(0.00165534 -0.000136768 0)
(0.00168485 -0.000138857 0)
(0.00171249 -0.000134552 0)
(0.00173653 -0.000124369 0)
(0.00175555 -0.000109216 0)
(0.00176853 -9.02341e-05 0)
(0.0017748 -6.8664e-05 0)
(0.00177411 -4.57348e-05 0)
(0.0017665 -2.25875e-05 0)
(0.00175231 -2.27661e-07 0)
(6.60928e-07 -5.1779e-06 0)
(1.32794e-05 -5.91802e-05 0)
(4.27325e-05 -0.000124005 0)
(8.65422e-05 -0.000186849 0)
(0.000142246 -0.000240789 0)
(0.000207311 -0.000283716 0)
(0.000279388 -0.000315921 0)
(0.000356359 -0.000338545 0)
(0.000436351 -0.000352909 0)
(0.000517722 -0.0003603 0)
(0.000599052 -0.000361949 0)
(0.000679157 -0.00035906 0)
(0.000757112 -0.000352832 0)
(0.000832273 -0.000344449 0)
(0.000904301 -0.00033503 0)
(0.000973149 -0.000325547 0)
(0.00103904 -0.000316737 0)
(0.00110239 -0.000309012 0)
(0.00116375 -0.000302387 0)
(0.00122369 -0.000296424 0)
(0.00128267 -0.00029018 0)
(0.00134082 -0.000282281 0)
(0.00139781 -0.000271113 0)
(0.00145282 -0.000255102 0)
(0.0015045 -0.000232973 0)
(0.001551 -0.000204067 0)
(0.00159006 -0.000168749 0)
(0.00161927 -0.000128858 0)
(0.00163667 -8.80623e-05 0)
(0.00164193 -5.17619e-05 0)
(0.0016373 -2.55127e-05 0)
(0.00162868 -1.31876e-05 0)
(0.00162137 -1.18007e-05 0)
(0.00161503 -1.83017e-05 0)
(0.00161197 -3.64681e-05 0)
(0.00161669 -6.1914e-05 0)
(0.00162955 -8.99804e-05 0)
(0.00164962 -0.000117131 0)
(0.00167552 -0.000140454 0)
(0.00170543 -0.000157583 0)
(0.00173709 -0.00016691 0)
(0.00176806 -0.000167716 0)
(0.00179605 -0.000160139 0)
(0.00181905 -0.000145009 0)
(0.00183553 -0.000123639 0)
(0.00184443 -9.76066e-05 0)
(0.0018452 -6.85691e-05 0)
(0.00183769 -3.81292e-05 0)
(0.00182216 -7.74277e-06 0)
(0.00179912 2.13299e-05 0)
(8.21849e-07 -1.18704e-05 0)
(1.50318e-05 -8.2218e-05 0)
(4.75605e-05 -0.000162598 0)
(9.55899e-05 -0.000238979 0)
(0.000156342 -0.000303901 0)
(0.000227029 -0.00035525 0)
(0.000305084 -0.000393531 0)
(0.000388191 -0.000420139 0)
(0.000474288 -0.00043664 0)
(0.000561548 -0.000444552 0)
(0.000648376 -0.000445342 0)
(0.000733425 -0.000440471 0)
(0.000815632 -0.000431429 0)
(0.000894263 -0.000419717 0)
(0.000968943 -0.000406778 0)
(0.00103967 -0.000393897 0)
(0.00110676 -0.000382072 0)
(0.0011708 -0.000371903 0)
(0.00123257 -0.000363501 0)
(0.00129291 -0.000356405 0)
(0.00135262 -0.000349452 0)
(0.00141208 -0.000340834 0)
(0.00147112 -0.00032839 0)
(0.00152893 -0.000309985 0)
(0.0015841 -0.000283764 0)
(0.00163456 -0.000248501 0)
(0.00167749 -0.000204137 0)
(0.00170947 -0.000152525 0)
(0.00172707 -9.83154e-05 0)
(0.00172875 -4.95263e-05 0)
(0.00171672 -1.51226e-05 0)
(0.00170103 -2.71389e-06 0)
(0.00169085 -3.95569e-06 0)
(0.00168128 -1.10916e-05 0)
(0.00167467 -3.6464e-05 0)
(0.0016796 -7.10215e-05 0)
(0.00169493 -0.000107405 0)
(0.0017185 -0.00014148 0)
(0.00174841 -0.000169921 0)
(0.00178238 -0.000189874 0)
(0.00181759 -0.000199428 0)
(0.00185107 -0.000197864 0)
(0.00188008 -0.000185595 0)
(0.00190237 -0.000163909 0)
(0.00191628 -0.000134662 0)
(0.00192082 -9.99771e-05 0)
(0.00191555 -6.20121e-05 0)
(0.00190057 -2.27922e-05 0)
(0.00187635 1.58881e-05 0)
(0.00184367 5.25136e-05 0)
(9.68505e-07 -1.9382e-05 0)
(1.66267e-05 -0.00010753 0)
(5.19893e-05 -0.000204686 0)
(0.000103969 -0.000295566 0)
(0.000169522 -0.000372189 0)
(0.000245637 -0.000432452 0)
(0.000329536 -0.000477088 0)
(0.000418702 -0.000507759 0)
(0.000510867 -0.000526278 0)
(0.000603996 -0.0005344 0)
(0.000696285 -0.000533834 0)
(0.000786181 -0.000526321 0)
(0.000872444 -0.000513673 0)
(0.00095421 -0.000497765 0)
(0.00103105 -0.000480439 0)
(0.00110298 -0.000463368 0)
(0.00117047 -0.000447883 0)
(0.00123427 -0.000434833 0)
(0.00129542 -0.000424498 0)
(0.00135515 -0.000416471 0)
(0.00141468 -0.000409365 0)
(0.00147481 -0.000400824 0)
(0.0015355 -0.000388002 0)
(0.00159605 -0.000368136 0)
(0.00165517 -0.000338673 0)
(0.00171074 -0.000297548 0)
(0.00175953 -0.000243821 0)
(0.00179694 -0.000178713 0)
(0.00181726 -0.000107404 0)
(0.00181641 -4.15852e-05 0)
(0.00179469 4.14297e-06 0)
(0.00176983 1.26081e-05 0)
(0.00175969 4.84824e-06 0)
(0.00174806 7.08338e-07 0)
(0.00173711 -3.56422e-05 0)
(0.00174448 -8.27041e-05 0)
(0.00176495 -0.000128866 0)
(0.00179425 -0.000170536 0)
(0.00183015 -0.000204323 0)
(0.00186997 -0.000226786 0)
(0.00191026 -0.000235646 0)
(0.0019474 -0.000230264 0)
(0.00197817 -0.000211494 0)
(0.00200005 -0.000181268 0)
(0.00201134 -0.000142153 0)
(0.00201115 -9.69504e-05 0)
(0.00199926 -4.84055e-05 0)
(0.00197607 9.85603e-07 0)
(0.00194236 4.9076e-05 0)
(0.00189921 9.41096e-05 0)
(1.10979e-06 -2.76588e-05 0)
(1.815e-05 -0.000134976 0)
(5.62264e-05 -0.000250091 0)
(0.000112026 -0.000356445 0)
(0.000182286 -0.000445529 0)
(0.000263798 -0.000515259 0)
(0.000353594 -0.0005666 0)
(0.000448954 -0.000601476 0)
(0.0005474 -0.000621942 0)
(0.000646664 -0.000629977 0)
(0.000744689 -0.000627531 0)
(0.000839668 -0.000616635 0)
(0.00093012 -0.000599464 0)
(0.00101499 -0.000578328 0)
(0.00109375 -0.000555562 0)
(0.00116645 -0.000533326 0)
(0.00123367 -0.000513378 0)
(0.00129641 -0.000496877 0)
(0.00135594 -0.000484361 0)
(0.00141394 -0.000475639 0)
(0.00147231 -0.000469124 0)
(0.00153234 -0.000461709 0)
(0.00159412 -0.000449682 0)
(0.00165704 -0.000429699 0)
(0.0017202 -0.000398501 0)
(0.00178186 -0.000352934 0)
(0.0018388 -0.000290577 0)
(0.00188549 -0.000210865 0)
(0.00191326 -0.000117907 0)
(0.00191345 -2.77482e-05 0)
(0.00187915 3.66424e-05 0)
(0.00184117 3.19156e-05 0)
(0.00183629 9.43683e-06 0)
(0.0018245 2.00271e-05 0)
(0.0018074 -3.54611e-05 0)
(0.0018207 -9.9926e-05 0)
(0.00184964 -0.0001568 0)
(0.00188699 -0.000206408 0)
(0.00193088 -0.000245625 0)
(0.00197841 -0.000270052 0)
(0.00202527 -0.00027693 0)
(0.00206709 -0.000265838 0)
(0.00210015 -0.000238299 0)
(0.00212169 -0.000197128 0)
(0.00213003 -0.000145802 0)
(0.00212446 -8.79479e-05 0)
(0.00210511 -2.69892e-05 0)
(0.00207274 3.4063e-05 0)
(0.00202853 9.27095e-05 0)
(0.00197394 0.000146981 0)
(1.25089e-06 -3.66862e-05 0)
(1.96488e-05 -0.000164499 0)
(6.03872e-05 -0.000298741 0)
(0.000119959 -0.000421561 0)
(0.000194923 -0.000523922 0)
(0.000281907 -0.000603755 0)
(0.000377778 -0.000662248 0)
(0.000479632 -0.00070157 0)
(0.000584775 -0.000723992 0)
(0.000690685 -0.000731693 0)
(0.000795015 -0.000726844 0)
(0.000895633 -0.000711759 0)
(0.000990734 -0.000689005 0)
(0.00107898 -0.000661406 0)
(0.00115968 -0.000631905 0)
(0.00123286 -0.000603292 0)
(0.00129928 -0.000577863 0)
(0.00136017 -0.000557125 0)
(0.001417 -0.000541976 0)
(0.00147199 -0.000532771 0)
(0.00152803 -0.000527772 0)
(0.00158704 -0.000522731 0)
(0.00164896 -0.000512746 0)
(0.00171315 -0.000494229 0)
(0.00177944 -0.000463475 0)
(0.00184714 -0.000416075 0)
(0.00191377 -0.00034755 0)
(0.00197393 -0.000254065 0)
(0.00201725 -0.000135806 0)
(0.00202874 -1.03384e-05 0)
(0.00198079 9.20585e-05 0)
(0.00192285 5.44938e-05 0)
(0.00192815 -7.44981e-07 0)
(0.00191717 5.35153e-05 0)
(0.00189198 -3.78194e-05 0)
(0.00191638 -0.000126269 0)
(0.00195756 -0.000193501 0)
(0.0020052 -0.000251102 0)
(0.00205909 -0.000295811 0)
(0.00211607 -0.000321373 0)
(0.00217074 -0.000324473 0)
(0.00221786 -0.000305217 0)
(0.00225326 -0.000266128 0)
(0.00227407 -0.000211166 0)
(0.00227868 -0.000144935 0)
(0.00226669 -7.20408e-05 0)
(0.00223864 3.31704e-06 0)
(0.00219577 7.75775e-05 0)
(0.00213975 0.000147902 0)
(0.00207251 0.000212154 0)
(1.394e-06 -4.64644e-05 0)
(2.11392e-05 -0.00019608 0)
(6.45095e-05 -0.000350609 0)
(0.000127834 -0.000490916 0)
(0.000207531 -0.000607438 0)
(0.00030011 -0.000698112 0)
(0.00040231 -0.00076433 0)
(0.000511068 -0.000808477 0)
(0.000623488 -0.000833 0)
(0.000736786 -0.000840225 0)
(0.000848282 -0.000832491 0)
(0.000955448 -0.000812369 0)
(0.00105604 -0.000782828 0)
(0.00114829 -0.000747278 0)
(0.00123122 -0.000709431 0)
(0.00130478 -0.000672913 0)
(0.00136998 -0.000640725 0)
(0.0014283 -0.000614676 0)
(0.00148128 -0.000596064 0)
(0.00153175 -0.000586491 0)
(0.0015841 -0.000584178 0)
(0.00164109 -0.000582836 0)
(0.00170176 -0.000575737 0)
(0.00176491 -0.00056011 0)
(0.00183179 -0.000532555 0)
(0.00190359 -0.000487364 0)
(0.00197936 -0.000417445 0)
(0.00205504 -0.000314559 0)
(0.00212377 -0.000174594 0)
(0.00216991 -6.43888e-06 0)
(0.00212291 0.000184536 0)
(0.00203624 8.57749e-05 0)
(0.00203929 -4.80847e-05 0)
(0.00202266 0.000117732 0)
(0.00199093 -4.49459e-05 0)
(0.00203444 -0.000168827 0)
(0.00209478 -0.000243455 0)
(0.00215673 -0.000307833 0)
(0.00222307 -0.000357317 0)
(0.00229081 -0.000382297 0)
(0.00235364 -0.000379 0)
(0.00240582 -0.000348472 0)
(0.00244293 -0.000294533 0)
(0.00246201 -0.000222526 0)
(0.00246161 -0.000138387 0)
(0.00244165 -4.78491e-05 0)
(0.0024032 4.40031e-05 0)
(0.00234809 0.000133028 0)
(0.0022786 0.000216066 0)
(0.00219718 0.000290872 0)
(1.53831e-06 -5.69927e-05 0)
(2.26095e-05 -0.000229699 0)
(6.85612e-05 -0.000405668 0)
(0.000135593 -0.000564517 0)
(0.00022003 -0.000696159 0)
(0.000318316 -0.000798533 0)
(0.000427111 -0.000873212 0)
(0.000543243 -0.000922755 0)
(0.000663645 -0.000949721 0)
(0.000785282 -0.000956506 0)
(0.000905119 -0.00094553 0)
(0.00102015 -0.00091954 0)
(0.00112755 -0.000881871 0)
(0.00122494 -0.000836588 0)
(0.0013108 -0.00078836 0)
(0.00138489 -0.000741967 0)
(0.00144852 -0.000701443 0)
(0.00150365 -0.000668702 0)
(0.00155157 -0.000645174 0)
(0.00159572 -0.000635153 0)
(0.00164298 -0.000637171 0)
(0.00169727 -0.000640895 0)
(0.00175517 -0.000636207 0)
(0.00181372 -0.000623813 0)
(0.0018761 -0.000602166 0)
(0.00194627 -0.000564386 0)
(0.00202581 -0.000500262 0)
(0.00211568 -0.000398101 0)
(0.00221888 -0.000252625 0)
(0.00232939 -5.13469e-05 0)
(0.0023586 0.00027962 0)
(0.00226624 0.000177267 0)
(0.00213133 -0.000138402 0)
(0.00205479 0.000177549 0)
(0.00209339 -8.99176e-05 0)
(0.00219047 -0.000246599 0)
(0.00228055 -0.000314031 0)
(0.00235845 -0.000379172 0)
(0.00243604 -0.00043082 0)
(0.0025123 -0.000452355 0)
(0.00258078 -0.000439493 0)
(0.00263589 -0.000394422 0)
(0.00267301 -0.000322223 0)
(0.00268874 -0.000229726 0)
(0.00268154 -0.000124468 0)
(0.00265164 -1.35254e-05 0)
(0.00260065 9.70013e-05 0)
(0.00253113 0.000202315 0)
(0.00244607 0.00029896 0)
(0.00234863 0.000384649 0)
(1.6799e-06 -6.82553e-05 0)
(2.40219e-05 -0.000265301 0)
(7.24451e-05 -0.000463847 0)
(0.000143064 -0.000642315 0)
(0.000232165 -0.000790118 0)
(0.000336191 -0.000905191 0)
(0.000451795 -0.000989265 0)
(0.000575758 -0.00104502 0)
(0.000704909 -0.00107506 0)
(0.000836009 -0.00108173 0)
(0.000965673 -0.0010674 0)
(0.00109037 -0.00103484 0)
(0.00120654 -0.000987651 0)
(0.00131093 -0.000930529 0)
(0.00140113 -0.000869311 0)
(0.0014763 -0.000810386 0)
(0.00153811 -0.000759526 0)
(0.00158933 -0.000718478 0)
(0.00163094 -0.000687873 0)
(0.00166677 -0.000676812 0)
(0.00170762 -0.000685828 0)
(0.00175965 -0.00069665 0)
(0.00181453 -0.000691539 0)
(0.00186479 -0.000679753 0)
(0.00191531 -0.000664733 0)
(0.00197218 -0.000638929 0)
(0.00203848 -0.000589591 0)
(0.00212793 -0.000514987 0)
(0.00227321 -0.000419837 0)
(0.00248756 -0.000243104 0)
(0.00269114 0.000283989 0)
(0.00280482 0.000281236 0)
(0.00236957 0.000358813 0)
(0.00203217 0.000184427 0)
(0.00226992 -0.000262007 0)
(0.00243356 -0.000383369 0)
(0.00253654 -0.000414957 0)
(0.00262399 -0.000467363 0)
(0.00270824 -0.000514117 0)
(0.00278706 -0.000527775 0)
(0.00285574 -0.00050241 0)
(0.00291019 -0.000440392 0)
(0.00294511 -0.000347128 0)
(0.00295573 -0.000230821 0)
(0.00293982 -0.000101106 0)
(0.00289776 3.32014e-05 0)
(0.00283174 0.000164675 0)
(0.00274519 0.000287762 0)
(0.00264206 0.000398736 0)
(0.00252631 0.000495324 0)
(1.81184e-06 -8.021e-05 0)
(2.5314e-05 -0.000302767 0)
(7.60032e-05 -0.000524983 0)
(0.000149963 -0.000724157 0)
(0.000243511 -0.000889238 0)
(0.000353161 -0.00101816 0)
(0.000475641 -0.00111279 0)
(0.000607786 -0.00117589 0)
(0.000746415 -0.00121 0)
(0.00088818 -0.00121731 0)
(0.00102942 -0.00119995 0)
(0.0011661 -0.00116048 0)
(0.00129384 -0.0011025 0)
(0.0014082 -0.00103121 0)
(0.00150536 -0.000953655 0)
(0.0015831 -0.000878349 0)
(0.00164299 -0.000814213 0)
(0.00168873 -0.000762597 0)
(0.00172158 -0.000722553 0)
(0.00174703 -0.000710087 0)
(0.00178096 -0.000729679 0)
(0.00183233 -0.000751403 0)
(0.00188673 -0.000741351 0)
(0.00192842 -0.000721385 0)
(0.0019599 -0.000704664 0)
(0.00198253 -0.000679501 0)
(0.00199901 -0.000635362 0)
(0.00201027 -0.0005681 0)
(0.0019767 -0.000474681 0)
(0.001873 -0.000319713 0)
(0.00209971 -9.11903e-05 0)
(0.00252877 0.000117552 0)
(0.0026793 0.000754702 0)
(0.00305064 -0.000198203 0)
(0.00329032 -0.000220324 0)
(0.0030759 -0.000333883 0)
(0.00297111 -0.000435755 0)
(0.0029889 -0.000523076 0)
(0.00304861 -0.000583771 0)
(0.00311423 -0.000595712 0)
(0.00317457 -0.000560883 0)
(0.00322532 -0.000483103 0)
(0.00325748 -0.000367451 0)
(0.00326244 -0.000224138 0)
(0.00323647 -6.62996e-05 0)
(0.00318013 9.47672e-05 0)
(0.00309634 0.000249749 0)
(0.00298974 0.000392122 0)
(0.00286553 0.000517984 0)
(0.00272873 0.00062515 0)
(1.92459e-06 -9.27771e-05 0)
(2.64029e-05 -0.000341887 0)
(7.90249e-05 -0.000588781 0)
(0.000155911 -0.000809732 0)
(0.000253485 -0.00099326 0)
(0.000368414 -0.00113732 0)
(0.000497595 -0.0012439 0)
(0.000638028 -0.00131582 0)
(0.000786663 -0.00135549 0)
(0.000940203 -0.0013648 0)
(0.00109488 -0.0013454 0)
(0.00124629 -0.00129936 0)
(0.00138929 -0.00122989 0)
(0.00151808 -0.00114219 0)
(0.00162683 -0.0010443 0)
(0.00171069 -0.000947029 0)
(0.00177026 -0.000865125 0)
(0.00180959 -0.000798803 0)
(0.00182909 -0.00074517 0)
(0.00183901 -0.000733652 0)
(0.00186632 -0.000770301 0)
(0.00191914 -0.000806244 0)
(0.00197553 -0.000790634 0)
(0.00201661 -0.000753061 0)
(0.00204557 -0.000726343 0)
(0.00205131 -0.000677707 0)
(0.00204212 -0.000639867 0)
(0.00207525 -0.000591164 0)
(0.00216531 -0.000478394 0)
(0.00229019 -0.000329835 0)
(0.00238727 -0.000413931 0)
(0.00245115 -9.5492e-05 0)
(0.00248082 0.000616734 0)
(0.00258291 -0.000652631 0)
(0.0028389 -0.000235841 0)
(0.00303401 -0.000275492 0)
(0.00315181 -0.000476489 0)
(0.00328364 -0.000595703 0)
(0.00339013 -0.000657469 0)
(0.00346274 -0.000658385 0)
(0.00351945 -0.000615282 0)
(0.00357138 -0.000524145 0)
(0.00360544 -0.00038457 0)
(0.00360691 -0.00020964 0)
(0.00357064 -1.87654e-05 0)
(0.00349828 0.000173492 0)
(0.00339384 0.000355266 0)
(0.00326364 0.000518654 0)
(0.00311475 0.000659812 0)
(0.00295355 0.000776919 0)
(2.00663e-06 -0.00010583 0)
(2.71912e-05 -0.000382336 0)
(8.12649e-05 -0.000654785 0)
(0.000160463 -0.000898517 0)
(0.000261392 -0.00110168 0)
(0.000380951 -0.00126226 0)
(0.0005163 -0.00138241 0)
(0.000664719 -0.00146498 0)
(0.000823458 -0.00151222 0)
(0.00098949 -0.00152561 0)
(0.00115923 -0.00150615 0)
(0.0013282 -0.00145503 0)
(0.00149081 -0.0013745 0)
(0.00164003 -0.00126901 0)
(0.00176761 -0.00114667 0)
(0.00186471 -0.00101989 0)
(0.00192761 -0.000912109 0)
(0.001959 -0.000823795 0)
(0.00196081 -0.000750601 0)
(0.001948 -0.000743606 0)
(0.00197063 -0.000816379 0)
(0.00203275 -0.000859668 0)
(0.00208059 -0.000830684 0)
(0.00211375 -0.000788499 0)
(0.0021599 -0.000764156 0)
(0.00218969 -0.000672118 0)
(0.00217281 -0.000625198 0)
(0.00218699 -0.000659943 0)
(0.0022745 -0.000595201 0)
(0.00238541 -0.000467173 0)
(0.00246801 -0.000414737 0)
(0.00248455 -9.92171e-05 0)
(0.0026722 0.000458887 0)
(0.00283822 -0.000725628 0)
(0.00299881 -0.000616356 0)
(0.00330447 -0.000471673 0)
(0.00350318 -0.000643514 0)
(0.00366598 -0.000738646 0)
(0.00378478 -0.000750756 0)
(0.00384105 -0.000714598 0)
(0.00388484 -0.000668593 0)
(0.0039437 -0.000569783 0)
(0.00398742 -0.000403274 0)
(0.00398871 -0.000188683 0)
(0.00394186 4.22639e-05 0)
(0.00385172 0.000271675 0)
(0.00372348 0.00048464 0)
(0.00356558 0.000671328 0)
(0.00338757 0.000828026 0)
(0.00319782 0.000954131 0)
(2.04561e-06 -0.000119191 0)
(2.75783e-05 -0.000423667 0)
(8.24706e-05 -0.000722354 0)
(0.000163156 -0.000989751 0)
(0.000266495 -0.00121368 0)
(0.000389679 -0.00139221 0)
(0.0005302 -0.00152767 0)
(0.000685723 -0.00162299 0)
(0.000853946 -0.0016803 0)
(0.00103236 -0.00170065 0)
(0.00121792 -0.00168426 0)
(0.00140665 -0.00163118 0)
(0.00159312 -0.00154209 0)
(0.00176979 -0.00141953 0)
(0.00192634 -0.00127005 0)
(0.00204998 -0.00110602 0)
(0.00212802 -0.000957763 0)
(0.00215456 -0.000832356 0)
(0.00213206 -0.000729988 0)
(0.00208019 -0.000728191 0)
(0.00208504 -0.000878688 0)
(0.00217746 -0.000934596 0)
(0.00224942 -0.000853067 0)
(0.0022674 -0.000811014 0)
(0.00227858 -0.000799058 0)
(0.00231054 -0.000699185 0)
(0.00235901 -0.000629745 0)
(0.00240786 -0.000716538 0)
(0.00247637 -0.000689941 0)
(0.00258073 -0.000580045 0)
(0.00267331 -0.000476687 0)
(0.00279376 -0.00019342 0)
(0.00313899 5.79535e-05 0)
(0.00334365 -0.000696711 0)
(0.00337685 -0.000883899 0)
(0.00363357 -0.000756897 0)
(0.00391296 -0.000838351 0)
(0.00410178 -0.000893 0)
(0.00420777 -0.000821437 0)
(0.00422594 -0.000743234 0)
(0.00425656 -0.000725786 0)
(0.00433883 -0.000632548 0)
(0.00440504 -0.000431641 0)
(0.00440933 -0.000162276 0)
(0.00435014 0.000117932 0)
(0.00423988 0.000391922 0)
(0.00408444 0.000641686 0)
(0.00389426 0.000854962 0)
(0.00368186 0.00102741 0)
(0.00345851 0.00116111 0)
(2.0302e-06 -0.000132632 0)
(2.74761e-05 -0.000465311 0)
(8.24223e-05 -0.000790668 0)
(0.000163583 -0.00108243 0)
(0.000268127 -0.00132812 0)
(0.00039357 -0.00152594 0)
(0.000537762 -0.00167844 0)
(0.000698793 -0.00178871 0)
(0.000874892 -0.00185886 0)
(0.00106423 -0.00188962 0)
(0.00126464 -0.00188055 0)
(0.00147324 -0.00183049 0)
(0.00168581 -0.00173821 0)
(0.00189588 -0.00160341 0)
(0.002093 -0.00142863 0)
(0.00226097 -0.00122285 0)
(0.00237665 -0.00101659 0)
(0.0024235 -0.000833042 0)
(0.00239288 -0.000675706 0)
(0.00228879 -0.000658021 0)
(0.00221672 -0.000919968 0)
(0.00229058 -0.001053 0)
(0.00242524 -0.000907336 0)
(0.00250952 -0.00084603 0)
(0.00253833 -0.000816084 0)
(0.0025664 -0.0007532 0)
(0.00266115 -0.000716268 0)
(0.0027551 -0.000769314 0)
(0.00281267 -0.000761458 0)
(0.00289689 -0.000689936 0)
(0.00300492 -0.000582691 0)
(0.00318728 -0.000431821 0)
(0.00350807 -0.0003315 0)
(0.00374173 -0.000737485 0)
(0.00382222 -0.00100032 0)
(0.00399482 -0.00104075 0)
(0.004261 -0.0010783 0)
(0.00449435 -0.00106549 0)
(0.00462726 -0.000877028 0)
(0.00463214 -0.000738878 0)
(0.00465647 -0.000803996 0)
(0.00477454 -0.000730489 0)
(0.00486786 -0.000477177 0)
(0.00487114 -0.00012744 0)
(0.00479431 0.000209782 0)
(0.00466155 0.000536983 0)
(0.00447539 0.000830396 0)
(0.00424864 0.00107456 0)
(0.0039965 0.00126372 0)
(0.00373365 0.00140318 0)
(1.95234e-06 -0.000145886 0)
(2.68267e-05 -0.000506605 0)
(8.0978e-05 -0.000858766 0)
(0.000161475 -0.00117534 0)
(0.00026583 -0.00144358 0)
(0.000391876 -0.0016618 0)
(0.00053779 -0.00183285 0)
(0.000702042 -0.00196007 0)
(0.000883344 -0.00204568 0)
(0.00108053 -0.00209033 0)
(0.00129236 -0.0020932 0)
(0.0015173 -0.0020523 0)
(0.00175303 -0.00196481 0)
(0.00199582 -0.00182755 0)
(0.00223894 -0.00163781 0)
(0.00246833 -0.00139583 0)
(0.00265267 -0.00111948 0)
(0.0027578 -0.000857359 0)
(0.00275583 -0.000601258 0)
(0.00261995 -0.000512614 0)
(0.00244419 -0.000870969 0)
(0.0024403 -0.00118974 0)
(0.00264909 -0.00107806 0)
(0.00281533 -0.000917191 0)
(0.00283066 -0.000827883 0)
(0.00285318 -0.000812085 0)
(0.00295623 -0.000840897 0)
(0.00307615 -0.000841666 0)
(0.00318117 -0.000841557 0)
(0.00329975 -0.00079652 0)
(0.00343143 -0.000715934 0)
(0.00361996 -0.000679272 0)
(0.00389612 -0.000641841 0)
(0.0041482 -0.000913047 0)
(0.00432942 -0.00113846 0)
(0.00454648 -0.00128744 0)
(0.00477526 -0.00130649 0)
(0.00496633 -0.00124433 0)
(0.00513525 -0.000963691 0)
(0.00515729 -0.0006925 0)
(0.00516704 -0.00090946 0)
(0.00530196 -0.000864958 0)
(0.00539806 -0.000523044 0)