/*--------------------------------*- C++ -*----------------------------------*\
| =========                 |                                                 |
| \\      /  F ield         | OpenFOAM: The Open Source CFD Toolbox           |
|  \\    /   O peration     | Version:  2.4.0                                 |
|   \\  /    A nd           | Web:      www.OpenFOAM.org                      |
|    \\/     M anipulation  |                                                 |
\*---------------------------------------------------------------------------*/
FoamFile
{
    version     2.0;
    format      ascii;
    class       surfaceScalarField;
    location    "0.039";
    object      phiAlpha;
}
// * * * * * * * * * * * * * * * * * * * * * * * * * * * * * * * * * * * * * //

dimensions      [0 3 -1 0 0 0 0];

internalField   nonuniform List<scalar> 
28560
(
-4.84623e-10
1.26951e-09
-7.84891e-10
1.07699e-09
-1.61475e-09
5.37761e-10
2.22962e-09
-2.87318e-09
6.43559e-10
3.61818e-09
-4.38623e-09
7.68056e-10
5.24524e-09
-6.08326e-09
8.38019e-10
6.92826e-09
-7.59062e-09
6.62366e-10
8.00185e-09
-7.96864e-09
-3.3206e-11
7.34747e-09
-6.09746e-09
-1.25001e-09
4.03624e-09
-1.36347e-09
-2.67277e-09
-2.14456e-09
5.98358e-09
-3.83902e-09
-1.05013e-08
1.51166e-08
-4.61527e-09
-2.01861e-08
2.50878e-08
-4.90169e-09
-3.02185e-08
3.49938e-08
-4.7753e-09
-3.98256e-08
4.41497e-08
-4.32409e-09
-4.83643e-08
5.19808e-08
-3.61647e-09
-5.53221e-08
5.80358e-08
-2.71371e-09
-6.03581e-08
6.20575e-08
-1.69943e-09
-6.32891e-08
6.39371e-08
-6.48007e-10
-6.40968e-08
6.37406e-08
3.56192e-10
-6.28688e-08
6.16202e-08
1.2486e-09
-5.98844e-08
5.78765e-08
2.00791e-09
-5.54341e-08
5.28467e-08
2.58738e-09
-4.98802e-08
4.68768e-08
3.00338e-09
-4.35682e-08
4.03235e-08
3.24468e-09
-3.68375e-08
3.34954e-08
3.34202e-09
-2.99778e-08
2.66629e-08
3.31484e-09
-2.32258e-08
2.00305e-08
3.19525e-09
-1.67585e-08
1.37481e-08
3.01045e-09
-1.06946e-08
7.9078e-09
2.78677e-09
-5.09938e-09
2.55643e-09
2.54295e-09
-2.1506e-09
3.05844e-09
-9.07838e-10
1.94078e-09
-2.95299e-09
-1.42992e-09
2.44213e-09
4.13805e-09
-5.41849e-09
-1.75072e-09
3.03116e-09
6.95508e-09
-8.60681e-09
-2.16173e-09
3.81346e-09
1.05484e-08
-1.25696e-08
-2.48575e-09
4.50688e-09
1.48258e-08
-1.69771e-08
-2.29703e-09
4.44839e-09
1.90896e-08
-2.07589e-08
-9.63076e-10
2.63236e-09
2.19736e-08
-2.24481e-08
1.59397e-09
-1.11944e-09
2.21347e-08
-2.10237e-08
4.71705e-09
-5.82814e-09
1.90321e-08
-1.64326e-08
7.45525e-09
-1.00548e-08
1.30871e-08
-9.46469e-09
9.32016e-09
-1.29426e-08
5.28194e-09
-1.07117e-09
1.00898e-08
-1.43006e-08
-3.5522e-09
7.9923e-09
1.00742e-08
-1.45143e-08
-1.27207e-08
1.71671e-08
9.35007e-09
-1.37965e-08
-2.17488e-08
2.59265e-08
8.04617e-09
-1.22238e-08
-3.01028e-08
3.37855e-08
6.3521e-09
-1.00348e-08
-3.729e-08
4.0258e-08
4.29818e-09
-7.26622e-09
-4.29164e-08
4.49718e-08
2.13619e-09
-4.19158e-09
-4.66414e-08
4.77103e-08
-1.9338e-11
-1.04961e-09
-4.83168e-08
4.84033e-08
-1.94547e-09
1.85897e-09
-4.80131e-08
4.72067e-08
-3.61068e-09
4.41711e-09
-4.59532e-08
4.43982e-08
-4.92e-09
6.47498e-09
-4.24587e-08
4.03349e-08
-5.88104e-09
8.00482e-09
-3.78699e-08
3.53477e-08
-6.47034e-09
8.99256e-09
-3.25477e-08
2.97902e-08
-6.7442e-09
9.50171e-09
-2.6818e-08
2.39707e-08
-6.74881e-09
9.59615e-09
-2.09712e-08
1.81479e-08
-6.54456e-09
9.36778e-09
-1.52273e-08
1.25188e-08
-6.1911e-09
8.89955e-09
-9.7541e-09
7.22009e-09
-5.74596e-09
8.27997e-09
-4.65792e-09
2.33434e-09
-5.24922e-09
7.5728e-09
-3.97141e-09
4.88356e-09
-9.12151e-10
2.01413e-09
-3.06848e-09
-3.48914e-09
4.5435e-09
4.30939e-09
-5.65733e-09
-4.3654e-09
5.71334e-09
7.28424e-09
-9.04463e-09
-5.55087e-09
7.31126e-09
1.11302e-08
-1.33229e-08
-6.66148e-09
8.85421e-09
1.58042e-08
-1.82178e-08
-6.79833e-09
9.21197e-09
2.06622e-08
-2.27024e-08
-4.57815e-09
6.61836e-09
2.43657e-08
-2.53193e-08
2.87515e-10
6.66102e-10
2.55632e-08
-2.50272e-08
6.50812e-09
-7.0441e-09
2.36849e-08
-2.17419e-08
1.21595e-08
-1.41024e-08
1.91185e-08
-1.61981e-08
1.6034e-08
-1.89544e-08
1.27614e-08
-9.23627e-09
1.79903e-08
-2.15154e-08
5.30311e-09
-1.39803e-09
1.85442e-08
-2.24493e-08
-2.84622e-09
6.94819e-09
1.79643e-08
-2.20662e-08
-1.1301e-08
1.53994e-08
1.63086e-08
-2.0407e-08
-1.96144e-08
2.34636e-08
1.37643e-08
-1.76135e-08
-2.72166e-08
3.05351e-08
1.04397e-08
-1.37583e-08
-3.36215e-08
3.61347e-08
6.55852e-09
-9.07179e-09
-3.82785e-08
3.98676e-08
2.49459e-09
-4.08367e-09
-4.09876e-08
4.16048e-08
-1.41011e-09
7.92981e-10
-4.17537e-08
4.14485e-08
-4.82956e-09
5.13484e-09
-4.07008e-08
3.96149e-08
-7.65435e-09
8.74018e-09
-3.81517e-08
3.6457e-08
-9.77853e-09
1.14733e-08
-3.4421e-08
3.22763e-08
-1.12e-08
1.33447e-08
-2.98506e-08
2.74197e-08
-1.199e-08
1.44209e-08
-2.47683e-08
2.21987e-08
-1.22037e-08
1.47733e-08
-1.94672e-08
1.68782e-08
-1.19788e-08
1.45677e-08
-1.41842e-08
1.16755e-08
-1.14199e-08
1.39286e-08
-9.10635e-09
6.74506e-09
-1.06469e-08
1.30082e-08
-4.35355e-09
2.18172e-09
-9.7477e-09
1.19195e-08
-5.79314e-09
6.69943e-09
-9.06288e-10
2.01392e-09
-3.0659e-09
-5.59761e-09
6.64959e-09
4.30596e-09
-5.65425e-09
-7.06388e-09
8.41217e-09
7.28309e-09
-9.04718e-09
-9.07651e-09
1.08406e-08
1.11399e-08
-1.33461e-08
-1.10566e-08
1.32628e-08
1.58525e-08
-1.83025e-08
-1.16482e-08
1.40982e-08
2.07988e-08
-2.28996e-08
-8.69548e-09
1.07963e-08
2.46343e-08
-2.56585e-08
-1.66402e-09
2.68819e-09
2.59756e-08
-2.55039e-08
7.53523e-09
-8.00693e-09
2.42208e-08
-2.2329e-08
1.60032e-08
-1.7895e-08
1.97544e-08
-1.68772e-08
2.18351e-08
-2.47123e-08
1.34877e-08
-1.00025e-08
2.50035e-08
-2.84887e-08
6.10042e-09
-2.21195e-09
2.63342e-08
-3.02227e-08
-2.02223e-09
6.16897e-09
2.61747e-08
-3.03215e-08
-1.05776e-08
1.47531e-08
2.45447e-08
-2.87202e-08
-1.90709e-08
2.30069e-08
2.14898e-08
-2.54259e-08
-2.69578e-08
3.03812e-08
1.71086e-08
-2.0532e-08
-3.36529e-08
3.63287e-08
1.16703e-08
-1.43462e-08
-3.86619e-08
4.03782e-08
5.75396e-09
-7.47022e-09
-4.16653e-08
4.23896e-08
-1.20489e-10
-6.03762e-10
-4.26557e-08
4.24559e-08
-5.38376e-09
5.58362e-09
-4.18043e-08
4.08057e-08
-9.77255e-09
1.07711e-08
-3.938e-08
3.77312e-08
-1.31408e-08
1.47896e-08
-3.57093e-08
3.35666e-08
-1.54758e-08
1.76186e-08
-3.11097e-08
2.86448e-08
-1.68656e-08
1.93306e-08
-2.59318e-08
2.32774e-08
-1.73729e-08
2.00274e-08
-2.04517e-08
1.77566e-08
-1.71988e-08
1.98939e-08
-1.49427e-08
1.2311e-08
-1.6486e-08
1.91177e-08
-9.60777e-09
7.1191e-09
-1.54214e-08
1.791e-08
-4.5959e-09
2.30186e-09
-1.41413e-08
1.64354e-08
-7.60191e-09
8.49998e-09
-8.98068e-10
2.00821e-09
-3.05353e-09
-7.69855e-09
8.74387e-09
4.28795e-09
-5.63132e-09
-9.75726e-09
1.11006e-08
7.25533e-09
-9.01542e-09
-1.26021e-08
1.43622e-08
1.11056e-08
-1.33152e-08
-1.54713e-08
1.76809e-08
1.58362e-08
-1.83131e-08
-1.65611e-08
1.9038e-08
2.08511e-08
-2.30017e-08
-1.29203e-08
1.50709e-08
2.47933e-08
-2.58691e-08
-3.73692e-09
4.81271e-09
2.62326e-08
-2.57918e-08
8.46357e-09
-8.90439e-09
2.45234e-08
-2.26316e-08
1.97857e-08
-2.16775e-08
2.00466e-08
-1.71561e-08
2.75948e-08
-3.04853e-08
1.37558e-08
-1.02618e-08
3.19775e-08
-3.54715e-08
6.34797e-09
-2.44328e-09
3.41191e-08
-3.80238e-08
-1.83532e-09
6.00737e-09
3.44734e-08
-3.86455e-08
-1.04516e-08
1.47198e-08
3.2936e-08
-3.72042e-08
-1.91415e-08
2.31965e-08
2.9419e-08
-3.34741e-08
-2.72855e-08
3.08881e-08
2.4029e-08
-2.76316e-08
-3.43266e-08
3.71805e-08
1.71049e-08
-1.99588e-08
-3.97018e-08
4.15852e-08
9.23437e-09
-1.11178e-08
-4.30393e-08
4.38917e-08
1.39159e-09
-2.24392e-09
-4.43143e-08
4.42357e-08
-5.72815e-09
5.80671e-09
-4.36899e-08
4.27598e-08
-1.17204e-08
1.26505e-08
-4.1423e-08
3.98048e-08
-1.64365e-08
1.80548e-08
-3.7796e-08
3.56396e-08
-1.97719e-08
2.19283e-08
-3.31465e-08
3.0597e-08
-2.18356e-08
2.43852e-08
-2.77875e-08
2.50132e-08
-2.27291e-08
2.55034e-08
-2.20235e-08
1.91608e-08
-2.26674e-08
2.55301e-08
-1.61509e-08
1.3323e-08
-2.18383e-08
2.46661e-08
-1.04105e-08
7.71879e-09
-2.04904e-08
2.31821e-08
-4.98382e-09
2.4952e-09
-1.88177e-08
2.13063e-08
-9.393e-09
1.02806e-08
-8.87636e-10
2.00044e-09
-3.03694e-09
-9.78494e-09
1.08214e-08
4.26383e-09
-5.60043e-09
-1.24414e-08
1.3778e-08
7.21777e-09
-8.97194e-09
-1.61203e-08
1.78745e-08
1.10577e-08
-1.32702e-08
-1.98917e-08
2.21042e-08
1.58081e-08
-1.83174e-08
-2.15304e-08
2.40397e-08
2.0907e-08
-2.31194e-08
-1.72509e-08
1.94633e-08
2.49822e-08
-2.61222e-08
-5.91875e-09
7.05876e-09
2.65432e-08
-2.61399e-08
9.32747e-09
-9.73069e-09
2.48882e-08
-2.29928e-08
2.35711e-08
-2.54665e-08
2.03912e-08
-1.74823e-08
3.33845e-08
-3.62935e-08
1.40678e-08
-1.05645e-08
3.89708e-08
-4.24741e-08
6.64156e-09
-2.72269e-09
4.1936e-08
-4.58549e-08
-1.58312e-09
5.79976e-09
4.28393e-08
-4.70559e-08
-1.03349e-08
1.46438e-08
4.14807e-08
-4.57895e-08
-1.91993e-08
2.33942e-08
3.75963e-08
-4.17912e-08
-2.76639e-08
3.14702e-08
3.13324e-08
-3.51387e-08
-3.51395e-08
3.82181e-08
2.2921e-08
-2.59996e-08
-4.09663e-08
4.31051e-08
1.31132e-08
-1.5252e-08
-4.47765e-08
4.58344e-08
3.23243e-09
-4.2903e-09
-4.64045e-08
4.64786e-08
-5.81237e-09
5.73824e-09
-4.61012e-08
4.53157e-08
-1.35117e-08
1.42972e-08
-4.40602e-08
4.24997e-08
-1.96313e-08
2.11918e-08
-4.05281e-08
3.83671e-08
-2.40845e-08
2.62455e-08
-3.58412e-08
3.32262e-08
-2.69544e-08
2.95695e-08
-3.02928e-08
2.73674e-08
-2.83517e-08
3.12772e-08
-2.41827e-08
2.10921e-08
-2.8498e-08
3.15886e-08
-1.78242e-08
1.47278e-08
-2.76191e-08
3.07155e-08
-1.1522e-08
8.54943e-09
-2.60022e-08
2.89747e-08
-5.522e-09
2.76293e-09
-2.39193e-08
2.66784e-08
-1.11623e-08
1.20372e-08
-8.74974e-10
1.99116e-09
-3.01696e-09
-1.18529e-08
1.28787e-08
4.23459e-09
-5.56303e-09
-1.51103e-08
1.64388e-08
7.1722e-09
-8.91916e-09
-1.96249e-08
2.13719e-08
1.09988e-08
-1.32142e-08
-2.43184e-08
2.65337e-08
1.5772e-08
-1.83204e-08
-2.6568e-08
2.91165e-08
2.09725e-08
-2.32608e-08
-2.17119e-08
2.40001e-08
2.52108e-08
-2.64296e-08
-8.23641e-09
9.45518e-09
2.69218e-08
-2.6565e-08
1.01119e-08
-1.04687e-08
2.53335e-08
-2.34324e-08
2.73643e-08
-2.92654e-08
2.0809e-08
-1.78776e-08
3.92134e-08
-4.21447e-08
1.44475e-08
-1.09366e-08
4.59815e-08
-4.94924e-08
7.00831e-09
-3.07861e-09
4.97799e-08
-5.37096e-08
-1.25238e-09
5.50506e-09
5.1295e-08
-5.55477e-08
-1.01276e-08
1.45628e-08
5.01696e-08
-5.46048e-08
-1.92068e-08
2.36039e-08
4.60951e-08
-5.04922e-08
-2.80714e-08
3.21182e-08
3.90604e-08
-4.31072e-08
-3.60533e-08
3.94587e-08
2.91939e-08
-3.25993e-08
-4.25419e-08
4.49342e-08
1.74773e-08
-1.98695e-08
-4.68463e-08
4.81707e-08
5.43316e-09
-6.75751e-09
-4.89848e-08
4.92672e-08
-5.55948e-09
5.27709e-09
-4.90786e-08
4.84485e-08
-1.50317e-08
1.56618e-08
-4.73199e-08
4.58758e-08
-2.27038e-08
2.41478e-08
-4.39624e-08
4.18341e-08
-2.83947e-08
3.05229e-08
-3.92852e-08
3.66196e-08
-3.22173e-08
3.48829e-08
-3.35664e-08
3.04856e-08
-3.42865e-08
3.73672e-08
-2.70629e-08
2.36983e-08
-3.48083e-08
3.8173e-08
-2.00876e-08
1.66387e-08
-3.39736e-08
3.74225e-08
-1.30362e-08
9.68161e-09
-3.21224e-08
3.5477e-08
-6.25488e-09
3.12762e-09
-2.96075e-08
3.27348e-08
-1.29051e-08
1.37653e-08
-8.60185e-10
1.97998e-09
-2.99295e-09
-1.38983e-08
1.49112e-08
4.19947e-09
-5.51811e-09
-1.77624e-08
1.90811e-08
7.11746e-09
-8.85517e-09
-2.31147e-08
2.48524e-08
1.09269e-08
-1.31442e-08
-2.87499e-08
3.09672e-08
1.57241e-08
-1.83176e-08
-3.16865e-08
3.42799e-08
2.1043e-08
-2.34209e-08
-2.63314e-08
2.87094e-08
2.54747e-08
-2.67873e-08
-1.07187e-08
1.20312e-08
2.73648e-08
-2.70647e-08
1.07985e-08
-1.10987e-08
2.58576e-08
-2.39482e-08
3.11702e-08
-3.30796e-08
2.12971e-08
-1.83389e-08
4.50886e-08
-4.80468e-08
1.48919e-08
-1.13765e-08
5.30058e-08
-5.65212e-08
7.44889e-09
-3.51411e-09
5.76425e-08
-6.15772e-08
-8.38804e-10
5.14939e-09
5.98353e-08
-6.41459e-08
-9.83804e-09
1.43827e-08
5.90935e-08
-6.36381e-08
-1.92088e-08
2.37682e-08
5.49581e-08
-5.95174e-08
-2.84812e-08
3.28118e-08
4.72897e-08
-5.16203e-08
-3.71245e-08
4.08804e-08
3.61855e-08
-3.99414e-08
-4.43287e-08
4.70688e-08
2.24279e-08
-2.51681e-08
-4.93439e-08
5.0906e-08
8.17649e-09
-9.73864e-09
-5.19986e-08
5.25284e-08
-4.86957e-09
4.33972e-09
-5.26042e-08
5.21964e-08
-1.61751e-08
1.6583e-08
-5.12861e-08
4.99698e-08
-2.55461e-08
2.68624e-08
-4.81663e-08
4.61025e-08
-3.2629e-08
3.46928e-08
-4.35994e-08
4.09214e-08
-3.75684e-08
4.02464e-08
-3.78043e-08
3.45673e-08
-4.05359e-08
4.37729e-08
-3.08967e-08
2.71925e-08
-4.16922e-08
4.53964e-08
-2.31456e-08
1.92152e-08
-4.10968e-08
4.50272e-08
-1.50761e-08
1.12011e-08
-3.90701e-08
4.29451e-08
-7.23396e-09
3.61134e-09
-3.60905e-08
3.97132e-08
-1.46171e-08
1.54602e-08
-8.43081e-10
1.96697e-09
-2.96505e-09
-1.5917e-08
1.69151e-08
4.15859e-09
-5.4656e-09
-2.03943e-08
2.17013e-08
7.05332e-09
-8.78024e-09
-2.65845e-08
2.83114e-08
1.08414e-08
-1.30594e-08
-3.31851e-08
3.54031e-08
1.56634e-08
-1.83077e-08
-3.68981e-08
3.95424e-08
2.1117e-08
-2.35991e-08
-3.11376e-08
3.36197e-08
2.57741e-08
-2.71959e-08
-1.33964e-08
1.48181e-08
2.78744e-08
-2.76415e-08
1.13666e-08
-1.15995e-08
2.64633e-08
-2.45423e-08
3.49943e-08
-3.69153e-08
2.18559e-08
-1.88648e-08
5.10206e-08
-5.40117e-08
1.53995e-08
-1.18836e-08
6.00374e-08
-6.35533e-08
7.9642e-09
-4.03258e-09
6.55117e-08
-6.94433e-08
-3.35359e-10
4.68674e-09
6.84776e-08
-7.2829e-08
-9.45665e-09
1.41119e-08
6.82453e-08
-7.29005e-08
-1.91075e-08
2.38709e-08
6.41769e-08
-6.89403e-08
-2.88625e-08
3.35228e-08
5.61099e-08
-6.07701e-08
-3.82579e-08
4.24304e-08
4.39075e-08
-4.80799e-08
-4.64064e-08
4.95608e-08
2.81076e-08
-3.1262e-08
-5.21923e-08
5.40498e-08
1.14659e-08
-1.33235e-08
-5.54468e-08
5.62727e-08
-3.65102e-09
2.82506e-09
-5.66841e-08
5.65827e-08
-1.68215e-08
1.69228e-08
-5.59645e-08
5.48312e-08
-2.80905e-08
2.92238e-08
-5.31746e-08
5.12443e-08
-3.66933e-08
3.86236e-08
-4.88623e-08
4.62932e-08
-4.28803e-08
4.54495e-08
-4.3226e-08
3.99278e-08
-4.70556e-08
5.03538e-08
-3.60336e-08
3.1948e-08
-4.92791e-08
5.33648e-08
-2.73247e-08
2.27327e-08
-4.92648e-08
5.38568e-08
-1.78193e-08
1.32162e-08
-4.7151e-08
5.17541e-08
-8.51117e-09
4.22814e-09
-4.36422e-08
4.79252e-08
-1.62938e-08
1.71174e-08
-8.23611e-10
1.95252e-09
-2.93375e-09
-1.79051e-08
1.88863e-08
4.11244e-09
-5.4066e-09
-2.30018e-08
2.4296e-08
6.98125e-09
-8.69562e-09
-3.00324e-08
3.17468e-08
1.07441e-08
-1.29613e-08
-3.76212e-08
3.98385e-08
1.55913e-08
-1.82923e-08
-4.22144e-08
4.49154e-08
2.11969e-08
-2.37987e-08
-3.61598e-08
3.87616e-08
2.61135e-08
-2.76608e-08
-1.63007e-08
1.7848e-08
2.8457e-08
-2.83039e-08
1.17942e-08
-1.19474e-08
2.71589e-08
-2.52214e-08
3.88437e-08
-4.07812e-08
2.24896e-08
-1.94571e-08
5.70226e-08
-6.0055e-08
1.59707e-08
-1.24584e-08
6.70681e-08
-7.05803e-08
8.55677e-09
-4.6382e-09
7.337e-08
-7.72886e-08
2.63935e-10
4.12278e-09
7.71992e-08
-8.15859e-08
-8.97596e-09
1.37525e-08
7.761e-08
-8.23866e-08
-1.88975e-08
2.38912e-08
7.38113e-08
-7.8805e-08
-2.91843e-08
3.42209e-08
6.56134e-08
-7.06499e-08
-3.94412e-08
4.42146e-08
5.25436e-08
-5.73169e-08
-4.87116e-08
5.24036e-08
3.46184e-08
-3.83103e-08
-5.54482e-08
5.76285e-08
1.53844e-08
-1.75647e-08
-5.93071e-08
6.04671e-08
-1.82869e-09
6.68733e-10
-6.13174e-08
6.16613e-08
-1.67857e-08
1.64418e-08
-6.14664e-08
6.05212e-08
-3.02601e-08
3.12053e-08
-5.90271e-08
5.73077e-08
-4.04589e-08
4.21783e-08
-5.51788e-08
5.2947e-08
-4.79003e-08
5.01321e-08
-5.02173e-08
4.70972e-08
-5.35993e-08
5.67193e-08
-4.31371e-08
3.86627e-08
-5.76518e-08
6.21263e-08
-3.32363e-08
2.75924e-08
-5.88877e-08
6.45317e-08
-2.1478e-08
1.57995e-08
-5.68383e-08
6.25168e-08
-1.00865e-08
4.95056e-09
-5.26138e-08
5.77498e-08
-1.79305e-08
1.87324e-08
-8.01853e-10
1.93639e-09
-2.89866e-09
-1.98581e-08
2.08204e-08
4.06058e-09
-5.33997e-09
-2.55834e-08
2.68628e-08
6.89991e-09
-8.6e-09
-3.34541e-08
3.51542e-08
1.06325e-08
-1.28467e-08
-4.20542e-08
4.42684e-08
1.55034e-08
-1.82663e-08
-4.76466e-08
5.04095e-08
2.1277e-08
-2.40143e-08
-4.14289e-08
4.41661e-08
2.64883e-08
-2.81779e-08
-1.94642e-08
2.11539e-08
2.91103e-08
-2.90505e-08
1.20557e-08
-1.21155e-08
2.7944e-08
-2.5984e-08
4.2729e-08
-4.46889e-08
2.31936e-08
-2.01097e-08
6.31117e-08
-6.61957e-08
1.65995e-08
-1.30968e-08
7.40883e-08
-7.7591e-08
9.22537e-09
-5.33388e-09
8.11953e-08
-8.50868e-08
9.66371e-10
3.46153e-09
8.59868e-08
-9.04147e-08
-8.37693e-09
1.32715e-08
8.72233e-08
-9.21179e-08
-1.86075e-08
2.38031e-08
8.38655e-08
-8.90612e-08
-2.93931e-08
3.48476e-08
7.58901e-08
-8.13445e-08
-4.062e-08
4.61122e-08
6.24267e-08
-6.79188e-08
-5.13909e-08
5.56683e-08
4.22277e-08
-4.65052e-08
-5.91449e-08
6.16243e-08
1.988e-08
-2.23593e-08
-6.35246e-08
6.50292e-08
6.65275e-10
-2.16991e-09
-6.64206e-08
6.74583e-08
-1.57848e-08
1.47471e-08
-6.79606e-08
6.71232e-08
-3.20886e-08
3.2926e-08
-6.56943e-08
6.44451e-08
-4.37232e-08
4.49725e-08
-6.27653e-08
6.15243e-08
-5.1994e-08
5.3235e-08
-5.96405e-08
5.71602e-08
-5.95691e-08
6.20493e-08
-5.35873e-08
4.87045e-08
-6.68531e-08
7.1736e-08
-4.19053e-08
3.43757e-08
-7.07855e-08
7.8315e-08
-2.61728e-08
1.88224e-08
-6.8876e-08
7.62265e-08
-1.17756e-08
5.64944e-09
-6.35501e-08
6.96763e-08
-1.95223e-08
2.02999e-08
-7.77599e-10
1.91864e-09
-2.85983e-09
-2.17725e-08
2.27137e-08
4.00273e-09
-5.26598e-09
-2.81338e-08
2.93971e-08
6.80934e-09
-8.49328e-09
-3.68465e-08
3.85304e-08
1.05061e-08
-1.27142e-08
-4.64802e-08
4.86882e-08
1.53979e-08
-1.82274e-08
-5.32052e-08
5.60348e-08
2.13551e-08
-2.42444e-08
-4.69772e-08
4.98665e-08
2.68987e-08
-2.87476e-08
-2.29211e-08
2.47699e-08
2.98361e-08
-2.98859e-08
1.21226e-08
-1.20728e-08
2.88238e-08
-2.68338e-08
4.66629e-08
-4.86529e-08
2.39683e-08
-2.08192e-08
6.93102e-08
-7.24592e-08
1.72814e-08
-1.37954e-08
8.10863e-08
-8.45722e-08
9.97026e-09
-6.1242e-09
8.89581e-08
-9.28042e-08
1.78087e-09
2.65006e-09
9.48385e-08
-9.92694e-08
-7.6469e-09
1.2657e-08
9.70718e-08
-1.02082e-07
-1.81491e-08
2.35638e-08
9.43631e-08
-9.97778e-08
-2.94493e-08
3.53169e-08
8.70157e-08
-9.28832e-08
-4.16934e-08
4.81184e-08
7.38473e-08
-8.02724e-08
-5.43842e-08
5.94758e-08
5.11429e-08
-5.62345e-08
-6.34063e-08
6.60782e-08
2.49446e-08
-2.76165e-08
-6.79836e-08
6.97777e-08
3.84456e-09
-5.63867e-09
-7.18886e-08
7.39427e-08
-1.32659e-08
1.12118e-08
-7.58899e-08
7.49572e-08
-3.38029e-08
3.47356e-08
-7.3358e-08
7.37436e-08
-4.56683e-08
4.52827e-08
-7.33718e-08
7.47889e-08
-5.34187e-08
5.20017e-08
-7.33981e-08
7.23406e-08
-6.38036e-08
6.48611e-08
-6.93375e-08
6.18748e-08
-7.74451e-08
8.49078e-08
-5.21301e-08
4.38268e-08
-8.65197e-08
9.4823e-08
-3.38782e-08
2.30568e-08
-8.39596e-08
9.4781e-08
-1.18913e-08
4.45996e-09
-7.72326e-08
8.46639e-08
-2.10645e-08
2.18152e-08
-7.50705e-10
1.89972e-09
-2.81786e-09
-2.36435e-08
2.45616e-08
3.93984e-09
-5.1852e-09
-3.06521e-08
3.18975e-08
6.71098e-09
-8.37719e-09
-4.02058e-08
4.1872e-08
1.03666e-08
-1.25651e-08
-5.0892e-08
5.30906e-08
1.52759e-08
-1.81765e-08
-5.88994e-08
6.17999e-08
2.14323e-08
-2.44919e-08
-5.28388e-08
5.58984e-08
2.73497e-08
-2.93751e-08
-2.67051e-08
2.87306e-08
3.06429e-08
-3.08211e-08
1.19614e-08
-1.17832e-08
2.98103e-08
-2.77799e-08
5.06618e-08
-5.26922e-08
2.48173e-08
-2.15847e-08
7.56476e-08
-7.88802e-08
1.80132e-08
-1.4552e-08
8.8047e-08
-9.15082e-08
1.07925e-08
-7.01355e-09
9.662e-08
-1.00399e-07
2.71477e-09
1.71775e-09
1.03709e-07
-1.08141e-07
-6.77367e-09
1.18937e-08
1.07148e-07
-1.12268e-07
-1.75563e-08
2.3149e-08
1.05277e-07
-1.1087e-07
-2.92657e-08
3.56124e-08
9.89999e-08
-1.05347e-07
-4.24914e-08
5.03327e-08
8.73491e-08
-9.51905e-08
-5.78213e-08
6.40892e-08
6.18174e-08
-6.80853e-08
-6.85714e-08
7.1279e-08
3.03367e-08
-3.30442e-08
-7.28147e-08
7.46307e-08
7.5054e-09
-9.32144e-09
-7.72563e-08
8.06789e-08
-8.48352e-09
5.06091e-09
-8.55318e-08
8.41089e-08
-3.58212e-08
3.7244e-08
-8.19514e-08
8.81407e-08
-4.29691e-08
3.67798e-08
-9.03465e-08
9.463e-08
-4.86413e-08
4.43578e-08
-8.84834e-08
7.92459e-08
-6.34474e-08
7.26849e-08
-6.09196e-08
4.9461e-08
-8.52965e-08
9.67551e-08
-4.61699e-08
4.15014e-08
-1.13878e-07
1.18547e-07
-3.47309e-08
2.45197e-08
-1.0096e-07
1.11171e-07
-1.36665e-08
6.06038e-09
-9.60641e-08
1.0367e-07
-2.25515e-08
2.32728e-08
-7.2129e-10
1.87943e-09
-2.7724e-09
-2.54676e-08
2.63606e-08
3.87095e-09
-5.09715e-09
-3.31329e-08
3.43591e-08
6.6034e-09
-8.25033e-09
-4.35285e-08
4.51755e-08
1.02113e-08
-1.23957e-08
-5.52826e-08
5.7467e-08
1.51325e-08
-1.81073e-08
-6.4737e-08
6.77118e-08
2.15017e-08
-2.47507e-08
-5.90498e-08
6.22988e-08
2.78367e-08
-3.00553e-08
-3.08504e-08
3.30689e-08
3.15278e-08
-3.18573e-08
1.15325e-08
-1.1203e-08
3.09061e-08
-2.88228e-08
5.47471e-08
-5.68305e-08
2.57358e-08
-2.23964e-08
8.21628e-08
-8.55022e-08
1.87841e-08
-1.53579e-08
9.4953e-08
-9.83792e-08
1.16884e-08
-8.00548e-09
1.04134e-07
-1.07816e-07
3.78016e-09
6.39187e-10
1.12611e-07
-1.17031e-07
-5.7405e-09
1.09759e-08
1.17435e-07
-1.2267e-07
-1.67721e-08
2.25253e-08
1.16546e-07
-1.22299e-07
-2.87561e-08
3.55616e-08
1.11924e-07
-1.1873e-07
-4.27868e-08
5.26913e-08
1.03954e-07
-1.13859e-07
-6.18683e-08
7.02303e-08
7.52174e-08
-8.35795e-08
-7.57367e-08
7.84713e-08
3.57179e-08
-3.84525e-08
-7.91218e-08
8.04133e-08
1.096e-08
-1.22514e-08
-8.19596e-08
8.64556e-08
-8.76263e-10
-3.61973e-09
-9.46268e-08
9.83484e-08
-3.90717e-08
3.53501e-08
-1.11343e-07
1.37575e-07
-2.03928e-08
-5.83856e-09
-1.41494e-07
1.21249e-07
-4.29416e-08
4.15527e-08
-9.13404e-08
6.2205e-08
-9.45635e-08
5.03427e-08
-6.45112e-08
5.68519e-08
-9.99824e-08
2.32838e-08
-4.41018e-08
3.68678e-08
-1.28667e-07
1.59837e-08
-2.91702e-08
2.11404e-08
-9.49e-08
6.93199e-09
-9.97358e-09
5.5566e-09
-8.65243e-08
3.82536e-09
-2.39783e-08
2.46673e-08
-6.88995e-10
1.85789e-09
-2.72353e-09
-2.724e-08
2.81056e-08
3.79616e-09
-5.00145e-09
-3.55754e-08
3.67807e-08
6.48691e-09
-8.11303e-09
-4.68122e-08
4.84384e-08
1.00401e-08
-1.22046e-08
-5.96421e-08
6.18066e-08
1.49656e-08
-1.8017e-08
-7.07246e-08
7.3776e-08
2.15598e-08
-2.50182e-08
-6.56502e-08
6.91086e-08
2.83605e-08
-3.07874e-08
-3.539e-08
3.78169e-08
3.2494e-08
-3.30015e-08
1.07882e-08
-1.02807e-08
3.21217e-08
-2.99695e-08
5.89462e-08
-6.10984e-08
2.67228e-08
-2.3246e-08
8.89059e-08
-9.23827e-08
1.95826e-08
-1.62042e-08
1.01783e-07
-1.05162e-07
1.26553e-08
-9.10395e-09
1.11439e-07
-1.1499e-07
4.98818e-09
-6.061e-10
1.21435e-07
-1.25817e-07
-4.53409e-09
9.89963e-09
1.2791e-07
-1.33276e-07
-1.57999e-08
2.16892e-08
1.28118e-07
-1.34007e-07
-2.7873e-08
3.50136e-08
1.25742e-07
-1.32883e-07
-4.21389e-08
5.53765e-08
1.25252e-07
-1.3849e-07
-6.70795e-08
8.00858e-08
9.37561e-08
-1.06762e-07
-8.79745e-08
9.10627e-08
4.13894e-08
-4.44777e-08
-9.01736e-08
8.95097e-08
1.28574e-08
-1.21935e-08
-8.7015e-08
9.1752e-08
1.04415e-08
-1.51785e-08
-9.82766e-08
1.54195e-07
-1.83796e-08
-4.69527e-08
-1.14207e-07
2.75114e-08
3.33293e-08
-4.91928e-09
-6.40186e-09
2.59239e-09
-3.77885e-09
-2.40526e-11
-1.40114e-09
2.59627e-09
-1.32886e-09
-1.57683e-11
-1.52739e-09
1.36815e-09
7.71933e-11
1.19963e-11
-1.10125e-09
7.33806e-10
2.73856e-10
-7.35661e-13
-4.93646e-10
3.57465e-10
1.11614e-10
1.77723e-12
-2.49484e-10
1.17612e-10
1.58712e-10
-9.06395e-12
-2.5339e-08
2.59928e-08
-6.53808e-10
1.83569e-09
-2.6721e-09
-2.8957e-08
2.97934e-08
3.71617e-09
-4.89918e-09
-3.79748e-08
3.91578e-08
6.3626e-09
-7.96714e-09
-5.00538e-08
5.16584e-08
9.85402e-09
-1.19923e-08
-6.3959e-08
6.60972e-08
1.47754e-08
-1.79056e-08
-7.68667e-08
7.9997e-08
2.16066e-08
-2.52966e-08
-7.26799e-08
7.63699e-08
2.89273e-08
-3.15752e-08
-4.03531e-08
4.30009e-08
3.355e-08
-3.42694e-08
9.67189e-09
-8.95248e-09
3.34747e-08
-3.1234e-08
6.32922e-08
-6.55328e-08
2.77819e-08
-2.41277e-08
9.59426e-08
-9.95968e-08
2.03986e-08
-1.70825e-08
1.08511e-07
-1.11827e-07
1.36913e-08
-1.03144e-08
1.1846e-07
-1.21837e-07
6.35076e-09
-2.03464e-09
1.30171e-07
-1.34487e-07
-3.14349e-09
8.63157e-09
1.3863e-07
-1.44118e-07
-1.4646e-08
2.0647e-08
1.39942e-07
-1.45942e-07
-2.66541e-08
3.37416e-08
1.40071e-07
-1.47159e-07
-4.01211e-08
5.87954e-08
1.54139e-07
-1.72813e-07
-7.57641e-08
9.8439e-08
1.23925e-07
-1.466e-07
-1.07707e-07
1.05586e-07
4.65473e-08
-4.44258e-08
-9.52184e-08
8.46158e-08
8.19564e-09
2.407e-09
-8.64149e-08
8.10405e-08
2.28467e-08
-3.26723e-08
-3.42691e-08
6.78017e-10
3.49839e-08
-1.45012e-09
-5.13292e-11
7.51669e-12
4.43026e-11
-6.44829e-13
-7.51081e-12
2.49998e-11
-2.19205e-11
1.84168e-12
-8.66004e-12
7.59694e-12
9.42483e-13
1.48026e-12
-8.501e-12
8.70885e-12
1.26328e-12
-2.03263e-12
-8.88729e-12
8.00614e-12
-1.83083e-12
8.95491e-13
-6.66924e-12
6.24955e-12
-2.17654e-12
1.18807e-12
-5.30275e-12
2.96307e-12
-1.08183e-12
1.83573e-12
-2.6628e-08
2.72436e-08
-6.15616e-10
1.81263e-09
-2.61757e-09
-3.06142e-08
3.14191e-08
3.63011e-09
-4.78939e-09
-4.03291e-08
4.14884e-08
6.22951e-09
-7.8118e-09
-5.32519e-08
5.48342e-08
9.65098e-09
-1.17551e-08
-6.82194e-08
7.03235e-08
1.45566e-08
-1.77662e-08
-8.31666e-08
8.63762e-08
2.16343e-08
-2.55793e-08
-8.01841e-08
8.4129e-08
2.95345e-08
-3.24101e-08
-4.57621e-08
4.86378e-08
3.46931e-08
-3.56652e-08
8.11245e-09
-7.14034e-09
3.49753e-08
-3.2622e-08
6.78264e-08
-7.01797e-08
2.89071e-08
-2.50233e-08
1.03358e-07
-1.07242e-07
2.1211e-08
-1.79745e-08
1.15106e-07
-1.18342e-07
1.47881e-08
-1.16397e-08
1.25107e-07
-1.28256e-07
7.88208e-09
-3.66961e-09
1.38756e-07
-1.42969e-07
-1.58424e-09
7.13343e-09
1.49621e-07
-1.5517e-07
-1.33512e-08
1.9405e-08
1.51861e-07
-1.57915e-07
-2.52111e-08
3.16114e-08
1.53986e-07
-1.60386e-07
-3.69715e-08
6.49277e-08
1.95332e-07
-2.23288e-07
-9.71757e-08
1.23211e-07
1.74252e-07
-2.00287e-07
-1.11278e-07
8.16648e-08
3.30239e-08
-3.41063e-09
-4.64457e-08
3.76721e-08
-1.68266e-08
1.535e-09
-1.78492e-09
7.10366e-11
2.06464e-09
-3.59244e-10
-7.33203e-12
4.60687e-13
9.79375e-12
-2.93554e-12
-2.30544e-13
1.95856e-13
5.1915e-14
-5.62608e-14
-3.41382e-12
9.12658e-12
-1.14462e-12
1.03213e-11
-4.3428e-12
-3.30777e-13
-2.26666e-13
2.05696e-12
-1.9361e-13
2.60629e-13
2.63926e-13
6.84077e-14
-1.09882e-13
1.14353e-13
-3.38817e-13
3.04835e-13
-9.88488e-14
9.33947e-14
-5.87277e-13
5.69355e-13
-6.74113e-14
4.64333e-14
-1.84059e-12
1.50198e-12
-2.78389e-08
2.84131e-08
-5.74171e-10
1.789e-09
-2.56046e-09
-3.22076e-08
3.2979e-08
3.53806e-09
-4.67205e-09
-4.26352e-08
4.37692e-08
6.08759e-09
-7.64787e-09
-5.64054e-08
5.79656e-08
9.43045e-09
-1.14913e-08
-7.24073e-08
7.44681e-08
1.43064e-08
-1.75944e-08
-8.96254e-08
9.29134e-08
2.16375e-08
-2.58641e-08
-8.82112e-08
9.24378e-08
3.01857e-08
-3.32865e-08
-5.16272e-08
5.47279e-08
3.59254e-08
-3.72023e-08
6.02296e-09
-4.74608e-09
3.66421e-08
-3.41477e-08
7.25998e-08
-7.50941e-08
3.00964e-08
-2.59153e-08
1.11265e-07
-1.15446e-07
2.19959e-08
-1.88607e-08
1.21531e-07
-1.24666e-07
1.59366e-08
-1.30831e-08
1.31266e-07
-1.34119e-07
9.60017e-09
-5.54512e-09
1.47109e-07
-1.51164e-07
3.29385e-10
5.46264e-09
1.60852e-07
-1.66644e-07
-1.2004e-08
1.8115e-08
1.63857e-07
-1.69968e-07
-2.39201e-08
2.9314e-08
1.66312e-07
-1.71706e-07
-3.95783e-08
8.99165e-08
2.60287e-07
-3.10625e-07
-1.20792e-07
8.55471e-08
2.07851e-07
-1.72606e-07
-2.25643e-08
1.43292e-08
-5.82043e-08
3.96964e-08
-2.37786e-09
5.51642e-10
5.21523e-09
-2.05888e-09
-9.15275e-11
1.00866e-11
9.92615e-11
-1.98154e-11
-1.17374e-12
5.72341e-13
7.32268e-13
-1.03455e-13
-5.26602e-13
1.14894e-11
5.7523e-13
-1.20497e-13
-1.31713e-11
1.09727e-11
-1.64328e-11
1.90622e-11
1.02554e-13
-7.84752e-15
-5.69569e-13
3.06551e-13
-6.72469e-16
4.31832e-17
-7.86916e-15
8.81541e-15
6.08367e-16
-8.27984e-16
-9.53799e-15
9.16844e-15
1.26541e-15
-1.02527e-14
-2.95419e-14
2.96083e-14
3.14485e-13
-4.03013e-13
-4.87349e-12
1.28785e-11
-2.89654e-08
2.94947e-08
-5.29346e-10
1.76529e-09
-2.50119e-09
-3.3733e-08
3.44689e-08
3.44041e-09
-4.54804e-09
-4.48902e-08
4.59978e-08
5.93804e-09
-7.47774e-09
-5.95154e-08
6.10551e-08
9.19356e-09
-1.12011e-08
-7.65037e-08
7.85112e-08
1.40242e-08
-1.73886e-08
-9.62402e-08
9.96046e-08
2.1614e-08
-2.61528e-08
-9.68167e-08
1.01355e-07
3.08928e-08
-3.42013e-08
-5.79361e-08
6.12446e-08
3.72558e-08
-3.89019e-08
3.29359e-09
-1.64753e-09
3.8506e-08
-3.58354e-08
7.7672e-08
-8.03426e-08
3.13534e-08
-2.67857e-08
1.19808e-07
-1.24376e-07
2.27278e-08
-1.97191e-08
1.27742e-07
-1.30751e-07
1.71286e-08
-1.46509e-08
1.36796e-07
-1.39274e-07
1.15269e-08
-7.69376e-09
1.55118e-07
-1.58951e-07
2.47742e-09
3.60277e-09
1.72618e-07
-1.78699e-07
-1.06777e-08
1.72622e-08
1.76149e-07
-1.82734e-07
-2.31353e-08
2.48725e-08
1.76195e-07
-1.77933e-07
-7.90115e-08
1.29702e-07
3.69353e-07
-4.20044e-07
-6.29672e-08
-2.43945e-08
9.59964e-08
-5.38231e-09
-2.44639e-08
5.68569e-09
1.80939e-08
-2.33877e-08
-1.09006e-09
7.42134e-11
1.10592e-09
-1.80427e-10
-4.21155e-12
3.68795e-13
4.06732e-12
-2.47057e-13
-2.77747e-14
1.86051e-14
2.84488e-15
5.17204e-15
-2.05851e-14
6.42778e-12
-3.45115e-12
8.7578e-12
-7.12811e-14
-2.77341e-12
-1.9173e-11
2.26828e-11
9.38714e-13
-5.60584e-15
-1.05926e-12
1.2519e-13
2.05898e-15
-1.76981e-15
-7.0563e-15
6.40742e-15
1.91119e-15
-3.45111e-15
-7.0222e-15
8.43003e-15
8.16942e-15
-3.68351e-13
-1.42611e-13
2.62216e-13
1.73995e-12
-1.02796e-12
-1.2872e-11
1.23514e-11
-3.00003e-08
3.04813e-08
-4.80967e-10
1.74158e-09
-2.43983e-09
-3.51861e-08
3.58844e-08
3.33654e-09
-4.41634e-09
-4.70919e-08
4.81717e-08
5.77972e-09
-7.30151e-09
-6.25853e-08
6.41071e-08
8.93782e-09
-1.08807e-08
-8.04877e-08
8.24307e-08
1.37043e-08
-1.714e-08
-1.03005e-07
1.06441e-07
2.15524e-08
-2.64377e-08
-1.06063e-07
1.10948e-07
3.166e-08
-3.51338e-08
-6.46427e-08
6.81166e-08
3.8679e-08
-4.07757e-08
-2.12425e-10
2.30918e-09
4.05899e-08
-3.77027e-08
8.31158e-08
-8.60029e-08
3.26705e-08
-2.76006e-08
1.29178e-07
-1.34248e-07
2.33648e-08
-2.05139e-08
1.33685e-07
-1.36535e-07
1.83475e-08
-1.63443e-08
1.41527e-07
-1.43531e-07
1.36844e-08
-1.01644e-08
1.62641e-07
-1.66161e-07
4.98445e-09
1.57348e-09
1.84965e-07
-1.91523e-07
-9.42851e-09
1.79676e-08
1.89969e-07
-1.98508e-07
-2.26209e-08
3.85894e-08
1.78115e-07
-1.94084e-07
-8.92161e-08
7.61946e-08
4.52404e-07
-4.37998e-07
-2.65225e-08
3.07436e-08
3.10809e-08
-6.04772e-08
-2.42972e-09
9.69013e-11
3.14955e-09
-8.59636e-10
-7.16766e-12
2.50857e-13
7.42009e-12
-7.89938e-13
-1.2187e-16
2.97776e-16
4.34752e-16
-5.88947e-17
1.76012e-16
-3.98872e-15
-8.94607e-16
5.4799e-15
1.11597e-12
-5.66466e-12
-1.01683e-11
1.24434e-13
2.23887e-12
-8.65629e-13
-3.24115e-12
8.06523e-14
6.94371e-14
-2.92919e-15
-1.15468e-14
1.07901e-14
3.22669e-15
-8.96984e-15
-5.93838e-15
1.15206e-14
4.61465e-15
1.29262e-15
-1.08213e-14
3.3169e-14
-1.12461e-14
-2.15866e-14
-2.2281e-13
1.12254e-13
1.33356e-13
-2.88537e-13