/*--------------------------------*- C++ -*----------------------------------*\
| =========                 |                                                 |
| \\      /  F ield         | OpenFOAM: The Open Source CFD Toolbox           |
|  \\    /   O peration     | Version:  2.4.0                                 |
|   \\  /    A nd           | Web:      www.OpenFOAM.org                      |
|    \\/     M anipulation  |                                                 |
\*---------------------------------------------------------------------------*/
FoamFile
{
    version     2.0;
    format      ascii;
    class       surfaceScalarField;
    location    "0.415";
    object      phi;
}
// * * * * * * * * * * * * * * * * * * * * * * * * * * * * * * * * * * * * * //

dimensions      [0 3 -1 0 0 0 0];

internalField   nonuniform List<scalar> 
19800
(
9.62659e-15
-9.62659e-15
-7.85049e-14
8.81729e-14
-2.74829e-13
1.96314e-13
-5.54739e-13
2.79922e-13
-8.89917e-13
3.35186e-13
-1.25531e-12
3.65374e-13
-1.63015e-12
3.7481e-13
-1.9977e-12
3.67555e-13
-2.3448e-12
3.47123e-13
-2.66126e-12
3.16488e-13
-2.93943e-12
2.78168e-13
-3.17375e-12
2.34313e-13
-3.36054e-12
1.86794e-13
-3.49785e-12
1.37316e-13
-3.58536e-12
8.75254e-14
-3.62446e-12
3.91037e-14
-3.61823e-12
-6.22554e-15
-3.5716e-12
-4.66291e-14
-3.49132e-12
-8.0282e-14
-3.38588e-12
-1.05447e-13
-3.26528e-12
-1.20607e-13
-3.14067e-12
-1.24616e-13
-3.02384e-12
-1.16827e-13
-2.92662e-12
-9.72191e-14
-2.86013e-12
-6.64793e-14
-2.83407e-12
-2.60469e-14
-2.85596e-12
2.1905e-14
-2.93051e-12
7.4573e-14
-3.05921e-12
1.28704e-13
-3.24006e-12
1.80852e-13
-3.4679e-12
2.27848e-13
-3.73544e-12
2.67538e-13
-4.03509e-12
2.99658e-13
-4.36171e-12
3.26625e-13
-4.71562e-12
3.53919e-13
-5.10453e-12
3.88909e-13
-5.54203e-12
4.37519e-13
-6.04182e-12
4.99799e-13
-6.6106e-12
5.68777e-13
-7.24398e-12
6.33364e-13
-7.92637e-12
6.82385e-13
-8.63384e-12
7.07476e-13
-9.33818e-12
7.04338e-13
-1.00108e-11
6.72611e-13
-1.06259e-11
6.15022e-13
-1.11622e-11
5.36347e-13
-1.16046e-11
4.42408e-13
-1.19438e-11
3.39144e-13
-1.21758e-11
2.31989e-13
1.2555e-13
-1.23013e-11
-8.84105e-14
7.874e-14
-4.06598e-13
4.06374e-13
-9.44046e-13
7.33726e-13
-1.65478e-12
9.90629e-13
-2.48342e-12
1.16385e-12
-3.3765e-12
1.25848e-12
-4.28655e-12
1.28487e-12
-5.17323e-12
1.25422e-12
-6.00331e-12
1.1772e-12
-6.75021e-12
1.06341e-12
-7.39339e-12
9.2138e-13
-7.91779e-12
7.58726e-13
-8.31334e-12
5.82348e-13
-8.57472e-12
3.98693e-13
-8.70122e-12
2.14025e-13
-8.69687e-12
3.47606e-14
-8.57034e-12
-1.32739e-13
-8.33544e-12
-2.81537e-13
-8.01073e-12
-4.04996e-13
-7.61939e-12
-4.96799e-13
-7.18849e-12
-5.51519e-13
-6.74799e-12
-5.65113e-13
-6.32943e-12
-5.35385e-13
-5.96425e-12
-4.62378e-13
-5.68205e-12
-3.48657e-13
-5.50867e-12
-1.99399e-13
-5.46451e-12
-2.22318e-14
-5.56294e-12
1.73026e-13
-5.80944e-12
3.75215e-13
-6.20115e-12
5.72565e-13
-6.72759e-12
7.54293e-13
-7.37306e-12
9.13005e-13
-8.12085e-12
1.04746e-12
-8.95934e-12
1.16514e-12
-9.88895e-12
1.28354e-12
-1.09265e-11
1.42644e-12
-1.21018e-11
1.61285e-12
-1.34441e-11
1.84209e-12
-1.49654e-11
2.09006e-12
-1.66511e-11
2.31911e-12
-1.84604e-11
2.49163e-12
-2.03325e-11
2.57958e-12
-2.21967e-11
2.56853e-12
-2.39814e-11
2.45727e-12
-2.56215e-11
2.2551e-12
-2.70635e-11
1.97831e-12
-2.82679e-11
1.64674e-12
-2.92096e-11
1.28091e-12
-2.98775e-11
8.99834e-13
5.19748e-13
-3.02716e-11
-1.95538e-13
2.74268e-13
-7.29927e-13
9.408e-13
-1.54657e-12
1.55038e-12
-2.57878e-12
2.0228e-12
-3.75503e-12
2.34007e-12
-5.0057e-12
2.50917e-12
-6.26717e-12
2.54638e-12
-7.48379e-12
2.47085e-12
-8.60845e-12
2.30187e-12
-9.60269e-12
2.05765e-12
-1.04363e-11
1.755e-12
-1.10869e-11
1.40935e-12
-1.15395e-11
1.03498e-12
-1.17863e-11
6.45489e-13
-1.18265e-11
2.54203e-13
-1.16664e-11
-1.25351e-13
-1.13199e-11
-4.79272e-13
-1.08082e-11
-7.93229e-13
-1.01601e-11
-1.05306e-12
-9.41139e-12
-1.24552e-12
-8.60357e-12
-1.35934e-12
-7.7825e-12
-1.38619e-12
-6.99625e-12
-1.32163e-12
-6.29272e-12
-1.16589e-12
-5.71699e-12
-9.2437e-13
-5.30859e-12
-6.07775e-13
-5.09907e-12
-2.3174e-13
-5.11003e-12
1.83992e-13
-5.35167e-12
6.16864e-13
-5.8222e-12
1.04309e-12
-6.50832e-12
1.44043e-12
-7.38815e-12
1.79284e-12
-8.43673e-12
2.09605e-12
-9.63454e-12
2.36297e-12
-1.09791e-11
2.6281e-12
-1.24939e-11
2.94131e-12
-1.42257e-11
3.34458e-12
-1.62206e-11
3.83701e-12
-1.84968e-11
4.36628e-12
-2.10298e-11
4.85214e-12
-2.37547e-11
5.21652e-12
-2.6578e-11
5.40282e-12
-2.93925e-11
5.38304e-12
-3.20914e-11
5.15615e-12
-3.45785e-11
4.74215e-12
-3.67748e-11
4.17469e-12
-3.86224e-11
3.49431e-12
-4.00843e-11
2.7428e-12
-4.11436e-11
1.95906e-12
1.17632e-12
-4.18002e-11
-2.75547e-13
5.49796e-13
-9.74061e-13
1.63933e-12
-1.99414e-12
2.5705e-12
-3.24625e-12
3.27491e-12
-4.6451e-12
3.73891e-12
-6.11031e-12
3.97437e-12
-7.56833e-12
4.00442e-12
-8.95406e-12
3.85661e-12
-1.02117e-11
3.5595e-12
-1.1295e-11
3.14099e-12
-1.21675e-11
2.62748e-12
-1.28019e-11
2.0437e-12
-1.31799e-11
1.41299e-12
-1.32921e-11
7.57741e-13
-1.3138e-11
1.00138e-13
-1.27262e-11
-5.37223e-13
-1.20745e-11
-1.13096e-12
-1.12106e-11
-1.65706e-12
-1.0172e-11
-2.09168e-12
-9.00492e-12
-2.41263e-12
-7.76314e-12
-2.60112e-12
-6.50593e-12
-2.64339e-12
-5.29532e-12
-2.53223e-12
-4.19302e-12
-2.26817e-12
-3.25713e-12
-1.86025e-12
-2.53877e-12
-1.32612e-12
-2.07921e-12
-6.91299e-13
-1.90759e-12
1.23729e-14
-2.03938e-12
7.48647e-13
-2.47505e-12
1.47877e-12
-3.19962e-12
2.16502e-12
-4.18491e-12
2.77815e-12
-5.39515e-12
3.30631e-12
-6.7973e-12
3.76514e-12
-8.38002e-12
4.21082e-12
-1.01736e-11
4.73488e-12
-1.22512e-11
5.42222e-12
-1.46895e-11
6.27534e-12
-1.75201e-11
7.19678e-12
-2.07085e-11
8.04056e-12
-2.41631e-11
8.67111e-12
-2.77555e-11
8.99521e-12
-3.1343e-11
8.97054e-12
-3.47867e-11
8.59987e-12
-3.79642e-11
7.91962e-12
-4.07768e-11
6.98727e-12
-4.31528e-11
5.87033e-12
-4.50476e-11
4.6376e-12
-4.64414e-11
3.35285e-12
2.07051e-12
-4.73356e-11
-3.23926e-13
8.73718e-13
-1.12369e-12
2.43907e-12
-2.26514e-12
3.71198e-12
-3.63862e-12
4.64843e-12
-5.14688e-12
5.24718e-12
-6.7015e-12
5.52898e-12
-8.22265e-12
5.52557e-12
-9.6397e-12
5.27368e-12
-1.0892e-11
4.81177e-12
-1.1929e-11
4.17803e-12
-1.27108e-11
3.40925e-12
-1.32075e-11
2.54039e-12
-1.33992e-11
1.60476e-12
-1.32761e-11
6.34622e-13
-1.28381e-11
-3.37884e-13
-1.20955e-11
-1.27981e-12
-1.10697e-11
-2.1568e-12
-9.79339e-12
-2.93333e-12
-8.31108e-12
-3.57398e-12
-6.67792e-12
-4.04578e-12
-4.95809e-12
-4.32094e-12
-3.22211e-12
-4.37936e-12
-1.54369e-12
-4.21064e-12
3.92807e-15
-3.81578e-12
1.35199e-12
-3.20831e-12
2.43995e-12
-2.41409e-12
3.21867e-12
-1.47002e-12
3.65241e-12
-4.21364e-13
3.7201e-12
6.80958e-13
3.41754e-12
1.78134e-12
2.76027e-12
2.8223e-12
1.78319e-12
3.75525e-12
5.37038e-13
4.55248e-12
-9.2117e-13
5.22335e-12
-2.55924e-12
5.84889e-12
-4.41299e-12
6.58864e-12
-6.60305e-12
7.61229e-12
-9.2629e-12
8.93519e-12
-1.24501e-11
1.03839e-11
-1.61178e-11
1.17083e-11
-2.01388e-11
1.26922e-11
-2.43428e-11
1.31993e-11
-2.85486e-11
1.31763e-11
-3.25864e-11
1.26377e-11
-3.63113e-11
1.16445e-11
-3.96097e-11
1.02857e-11
-4.24015e-11
8.66211e-12
-4.46386e-11
6.87468e-12
-4.63018e-11
5.0161e-12
3.16517e-12
-4.73965e-11
-3.43796e-13
1.21754e-12
-1.18354e-12
3.2788e-12
-2.36611e-12
4.89454e-12
-3.76768e-12
6.05002e-12
-5.28192e-12
6.76144e-12
-6.81471e-12
7.06179e-12
-8.28241e-12
6.99326e-12
-9.61165e-12
6.60291e-12
-1.07396e-11
5.93975e-12
-1.16144e-11
5.05283e-12
-1.2195e-11
3.98983e-12
-1.24511e-11
2.79647e-12
-1.23628e-11
1.5165e-12
-1.19207e-11
1.92451e-13
-1.11254e-11
-1.13313e-12
-9.98891e-12
-2.41631e-12
-8.53491e-12
-3.61079e-12
-6.80016e-12
-4.66808e-12
-4.83478e-12
-5.53935e-12
-2.70146e-12
-6.17909e-12
-4.73169e-13
-6.54922e-12
1.77004e-12
-6.62256e-12
3.94473e-12
-6.38532e-12
5.96833e-12
-5.83938e-12
7.76384e-12
-5.00382e-12
9.26404e-12
-3.9143e-12
1.04146e-11
-2.6206e-12
1.11751e-11
-1.18187e-12
1.15186e-11
3.37528e-13
1.14345e-11
1.86547e-12
1.09361e-11
3.32066e-12
1.00635e-11
4.62787e-12
8.88582e-12
5.73018e-12
7.50136e-12
6.60783e-12
5.98848e-12
7.36177e-12
4.31402e-12
8.26309e-12
2.27234e-12
9.65398e-12
-3.75493e-13
1.1583e-11
-3.73069e-12
1.37391e-11
-7.72289e-12
1.57005e-11
-1.21711e-11
1.71403e-11
-1.685e-11
1.78781e-11
-2.1535e-11
1.78614e-11
-2.60268e-11
1.71294e-11
-3.01625e-11
1.57802e-11
-3.38195e-11
1.39427e-11
-3.69145e-11
1.17571e-11
-3.94006e-11
9.36073e-12
-4.12628e-11
6.87837e-12
4.4155e-12
-4.25132e-11
-3.39686e-13
1.55726e-12
-1.16473e-12
4.10387e-12
-2.31506e-12
6.04485e-12
-3.65956e-12
7.39452e-12
-5.0866e-12
8.1885e-12
-6.49882e-12
8.47403e-12
-7.81085e-12
8.3053e-12
-8.94864e-12
7.74069e-12
-9.84948e-12
6.84058e-12
-1.04621e-11
5.66547e-12
-1.07467e-11
4.27443e-12
-1.06744e-11
2.72419e-12
-1.0227e-11
1.06904e-12
-9.39622e-12
-6.38319e-13
-8.18419e-12
-2.34516e-12
-6.6039e-12
-3.99661e-12
-4.68066e-12
-5.53402e-12
-2.45398e-12
-6.89476e-12
2.13946e-14
-8.01472e-12
2.67622e-12
-8.8339e-12
5.42978e-12
-9.30277e-12
8.19385e-12
-9.38663e-12
1.08769e-11
-9.06835e-12
1.3389e-11
-8.35148e-12
1.56476e-11
-7.26248e-12
1.75827e-11
-5.84933e-12
1.91391e-11
-4.17707e-12
2.02759e-11
-2.31865e-12
2.096e-11
-3.46589e-13
2.117e-11
1.65552e-12
2.09112e-11
3.57944e-12
2.02212e-11
5.3179e-12
1.91847e-11
6.76669e-12
1.79677e-11
7.82486e-12
1.6747e-11
8.58241e-12
1.55217e-11
9.48845e-12
1.39316e-11
1.1244e-11
1.15429e-11
1.39717e-11
8.18933e-12
1.70927e-11
3.99672e-12
1.98931e-11
-7.65254e-13
2.19023e-11
-5.79777e-12
2.29106e-11
-1.08295e-11
2.2893e-11
-1.5636e-11
2.1936e-11
-2.00443e-11
2.01885e-11
-2.393e-11
1.78283e-11
-2.72127e-11
1.50398e-11
-2.98513e-11
1.19993e-11
-3.18386e-11
8.86563e-12
5.77226e-12
-3.31953e-11
-3.16107e-13
1.87337e-12
-1.08006e-12
4.86786e-12
-2.13431e-12
7.09911e-12
-3.34689e-12
8.60709e-12
-4.60482e-12
9.44644e-12
-5.81e-12
9.67922e-12
-6.87719e-12
9.37249e-12
-7.73333e-12
8.59683e-12
-8.31753e-12
7.42477e-12
-8.58105e-12
5.92899e-12
-8.4871e-12
4.18048e-12
-8.01019e-12
2.24728e-12
-7.13525e-12
1.94106e-13
-5.85684e-12
-1.91673e-12
-4.17882e-12
-4.02317e-12
-2.11514e-12
-6.06028e-12
3.08178e-13
-7.95733e-12
3.05005e-12
-9.63662e-12
6.05186e-12
-1.10165e-11
9.23811e-12
-1.20201e-11
1.25207e-11
-1.25854e-11
1.58041e-11
-1.267e-11
1.89896e-11
-1.22539e-11
2.19816e-11
-1.13435e-11
2.4695e-11
-9.97586e-12
2.70617e-11
-8.21608e-12
2.90344e-11
-6.14971e-12
3.05798e-11
-3.86409e-12
3.16605e-11
-1.42726e-12
3.22358e-11
1.08024e-12
3.22945e-11
3.52067e-12
3.18532e-11
5.7592e-12
3.09882e-11
7.63176e-12
2.99673e-11
8.84572e-12
2.91713e-11
9.37845e-12
2.87156e-11
9.94411e-12
2.79532e-11
1.20064e-11
2.60846e-11
1.58403e-11
2.28629e-11
2.03145e-11
1.8548e-11
2.4208e-11
1.35594e-11
2.68909e-11
8.28966e-12
2.81804e-11
3.05196e-12
2.81307e-11
-1.91732e-12
2.69053e-11
-6.44748e-12
2.47186e-11
-1.04223e-11
2.18031e-11
-1.37712e-11
1.83886e-11
-1.64624e-11
1.46905e-11
-1.84983e-11
1.09016e-11
7.18444e-12
-1.99105e-11
-2.772e-13
2.15056e-12
-9.42334e-13
5.53302e-12
-1.84744e-12
8.00424e-12
-2.86496e-12
9.62462e-12
-3.88409e-12
1.04656e-11
-4.80824e-12
1.06034e-11
-5.55384e-12
1.01181e-11
-6.05016e-12
9.09314e-12
-6.23941e-12
7.61401e-12
-6.07689e-12
5.76646e-12
-5.5306e-12
3.63419e-12
-4.58034e-12
1.29701e-12
-3.21623e-12
-1.17e-12
-1.43723e-12
-3.69573e-12
7.49894e-13
-6.21029e-12
3.33012e-12
-8.6405e-12
6.27761e-12
-1.09048e-11
9.5509e-12
-1.29099e-11
1.30879e-11
-1.45535e-11
1.68063e-11
-1.57385e-11
2.06101e-11
-1.63891e-11
2.43963e-11
-1.64562e-11
2.80594e-11
-1.59169e-11
3.14979e-11
-1.47819e-11
3.46267e-11
-1.31047e-11
3.73868e-11
-1.09762e-11
3.97522e-11
-8.51505e-12
4.17166e-11
-5.82848e-12
4.3243e-11
-2.95366e-12
4.42579e-11
6.53344e-14
4.4726e-11
3.05258e-12
4.46108e-11
5.8744e-12
4.39014e-11
8.34115e-12
4.29938e-11
9.75331e-12
4.26725e-11
9.69972e-12
4.33982e-11
9.21838e-12
4.39656e-11
1.14391e-11
4.2881e-11
1.69249e-11
3.98364e-11
2.33591e-11
3.54091e-11
2.86352e-11
3.02625e-11
3.20376e-11
2.48893e-11
3.35536e-11
1.96179e-11
3.34021e-11
1.46693e-11
3.1854e-11
1.01919e-11
2.91959e-11
6.28244e-12
2.57126e-11
2.99656e-12
2.16745e-11
3.55157e-13
1.73319e-11
-1.6537e-12
1.29104e-11
8.60271e-12
-3.07199e-12
-2.2674e-13
2.37729e-12
-7.63927e-13
6.0702e-12
-1.47811e-12
8.71844e-12
-2.25002e-12
1.03965e-11
-2.97368e-12
1.11892e-11
-3.55568e-12
1.11854e-11
-3.91523e-12
1.04776e-11
-3.98466e-12
9.16257e-12
-3.71017e-12
7.33952e-12
-3.05216e-12
5.10845e-12
-1.985e-12
2.56703e-12
-4.95795e-13
-1.92188e-13
1.41769e-12
-3.08348e-12
3.74965e-12
-6.02768e-12
6.48841e-12
-8.94905e-12
9.61702e-12
-1.17691e-11
1.31106e-11
-1.43984e-11
1.69287e-11
-1.6728e-11
2.10061e-11
-1.86309e-11
2.52517e-11
-1.99842e-11
2.956e-11
-2.06974e-11
3.382e-11
-2.07162e-11
3.7917e-11
-2.00139e-11
4.17406e-11
-1.86056e-11
4.52061e-11
-1.65702e-11
4.82697e-11
-1.40398e-11
5.09506e-11
-1.11959e-11
5.33101e-11
-8.18802e-12
5.53256e-11
-4.96921e-12
5.68666e-11
-1.47562e-12
5.78737e-11
2.04545e-12
5.82304e-11
5.51771e-12
5.76452e-11
8.92632e-12
5.65931e-11
1.08054e-11
5.66089e-11
9.68397e-12
5.90911e-11
6.73618e-12
6.16943e-11
8.8359e-12
6.16088e-11
1.70104e-11
5.86127e-11
2.63552e-11
5.39947e-11
3.32531e-11
4.87709e-11
3.72614e-11
4.34902e-11
3.88343e-11
3.84246e-11
3.84677e-11
3.3732e-11
3.65465e-11
2.95157e-11
3.34123e-11
2.58425e-11
2.93857e-11
2.27528e-11
2.47643e-11
2.02602e-11
1.98245e-11
1.83477e-11
1.48228e-11
9.98513e-12
1.69653e-11
-1.68239e-13
2.54554e-12
-5.5678e-13
6.45872e-12
-1.04982e-12
9.21148e-12
-1.53876e-12
1.08855e-11
-1.92404e-12
1.15745e-11
-2.1163e-12
1.13776e-11
-2.0378e-12
1.03991e-11
-1.62405e-12
8.74881e-12
-8.25306e-13
6.54078e-12
3.92381e-13
3.89076e-12
2.04716e-12
9.12255e-13
4.1426e-12
-2.28762e-12
6.67039e-12
-5.61128e-12
9.61427e-12
-8.97156e-12
1.29542e-11
-1.22889e-11
1.66687e-11
-1.54837e-11
2.07341e-11
-1.84637e-11
2.51131e-11
-2.11071e-11
2.97376e-11
-2.32554e-11
3.45051e-11
-2.47517e-11
3.92982e-11
-2.54904e-11
4.39964e-11
-2.54144e-11
4.84699e-11
-2.44873e-11
5.25885e-11
-2.27242e-11
5.62609e-11
-2.02426e-11
5.94583e-11
-1.72373e-11
6.22804e-11
-1.4018e-11
6.49465e-11
-1.08541e-11
6.74833e-11
-7.50601e-12
6.96577e-11
-3.65004e-12
7.14142e-11
2.8898e-13
7.25513e-11
4.38059e-12
7.21659e-11
9.31167e-12
7.05321e-11
1.24393e-11
7.03291e-11
9.88694e-12
7.54047e-11
1.66061e-12
8.1043e-11
3.19758e-12
8.19707e-11
1.60828e-11
7.85768e-11
2.97491e-11
7.36005e-11
3.82294e-11
6.84724e-11
4.23896e-11
6.36242e-11
4.36824e-11
5.91193e-11
4.29726e-11
5.49892e-11
4.06765e-11
5.12757e-11
3.71259e-11
4.80178e-11
3.26436e-11
4.52489e-11
2.75332e-11
4.29881e-11
2.20853e-11
4.12244e-11
1.65865e-11
1.13059e-11
3.99036e-11
-1.05068e-13
2.65062e-12
-3.32674e-13
6.68632e-12
-5.86154e-13
9.46495e-12
-7.68587e-13
1.10679e-11
-7.87208e-13
1.15931e-11
-5.56525e-13
1.11469e-11
-1.23441e-15
9.84384e-12
9.40899e-13
7.80668e-12
2.31642e-12
5.16526e-12
4.15419e-12
2.05299e-12
6.46459e-12
-1.39814e-12
9.24031e-12
-5.06335e-12
1.24594e-11
-8.83033e-12
1.60902e-11
-1.26024e-11
2.00985e-11
-1.62972e-11
2.44531e-11
-1.98382e-11
2.91286e-11
-2.31392e-11
3.40939e-11
-2.60724e-11
3.92795e-11
-2.8441e-11
4.45688e-11
-3.0041e-11
4.98315e-11
-3.07531e-11
5.49366e-11
-3.05194e-11
5.97271e-11
-2.92778e-11
6.40302e-11
-2.70272e-11
6.77285e-11
-2.39409e-11
7.07794e-11
-2.02881e-11
7.3394e-11
-1.66325e-11
7.61375e-11
-1.35977e-11
7.91989e-11
-1.05674e-11
8.20801e-11
-6.53128e-12
8.49966e-11
-2.6275e-12
8.7603e-11
1.77418e-12
8.76678e-11
9.24686e-12
8.51151e-11
1.49919e-11
8.34228e-11
1.15792e-11
9.20219e-11
-6.93843e-12
1.02136e-10
-6.91686e-12
1.03542e-10
1.46772e-11
9.88419e-11
3.4449e-11
9.3323e-11
4.37483e-11
8.8769e-11
4.69436e-11
8.49695e-11
4.7482e-11
8.15307e-11
4.64114e-11
7.83317e-11
4.38755e-11
7.53763e-11
4.00814e-11
7.2696e-11
3.53239e-11
7.03392e-11
2.989e-11
6.8356e-11
2.40685e-11
6.67607e-11
1.81818e-11
1.2567e-11
6.54997e-11
-4.05772e-14
2.69121e-12
-1.03506e-13
6.74926e-12
-1.11232e-13
9.47267e-12
2.1842e-14
1.09348e-11
3.82456e-13
1.12325e-11
1.05349e-12
1.04759e-11
2.10952e-12
8.78781e-12
3.61264e-12
6.30356e-12
5.60847e-12
3.16942e-12
8.12291e-12
-4.61453e-13
1.11599e-11
-4.43512e-12
1.47011e-11
-8.60454e-12
1.87084e-11
-1.28376e-11
2.31295e-11
-1.70235e-11
2.79071e-11
-2.10748e-11
3.29892e-11
-2.49203e-11
3.83405e-11
-2.84906e-11
4.39351e-11
-3.16669e-11
4.97047e-11
-3.42106e-11
5.55214e-11
-3.58577e-11
6.12487e-11
-3.64803e-11
6.67507e-11
-3.60214e-11
7.18265e-11
-3.43537e-11
7.62212e-11
-3.14219e-11
7.97578e-11
-2.74775e-11
8.22719e-11
-2.28023e-11
8.40456e-11
-1.84062e-11
8.62932e-11
-1.58453e-11
8.98573e-11
-1.41315e-11
9.35046e-11
-1.01785e-11
9.74964e-11
-6.61932e-12
1.03615e-10
-4.34449e-12
1.06232e-10
6.62997e-12
1.005e-10
2.07243e-11
9.5842e-11
1.62367e-11
1.09899e-10
-2.09959e-11
1.25511e-10
-2.25283e-11
1.25679e-10
1.45095e-11
1.1756e-10
4.25678e-11
1.11878e-10
4.94304e-11
1.09319e-10
4.95027e-11
1.07638e-10
4.91627e-11
1.05883e-10
4.81662e-11
1.03956e-10
4.5803e-11
1.01942e-10
4.20945e-11
9.99216e-11
3.73447e-11
9.799e-11
3.18216e-11
9.6262e-11
2.57965e-11
9.48047e-11
1.9639e-11
1.38096e-11
9.35621e-11
2.18099e-14
2.66939e-12
1.18513e-13
6.65257e-12
3.50007e-13
9.24118e-12
7.92151e-13
1.04927e-11
1.52749e-12
1.04972e-11
2.63852e-12
9.36489e-12
4.20189e-12
7.22443e-12
6.28296e-12
4.2225e-12
8.93042e-12
5.2195e-13
1.21715e-11
-3.70249e-12
1.60076e-11
-8.27123e-12
2.04122e-11
-1.30092e-11
2.53313e-11
-1.77567e-11
3.06876e-11
-2.23799e-11
3.63906e-11
-2.67778e-11
4.23483e-11
-3.0878e-11
4.84938e-11
-3.46361e-11
5.47928e-11
-3.79659e-11
6.11778e-11
-4.05956e-11
6.75265e-11
-4.22064e-11
7.37247e-11
-4.26786e-11
7.96526e-11
-4.19493e-11
8.50473e-11
-3.97483e-11
8.95189e-11
-3.58935e-11
9.28077e-11
-3.07664e-11
9.43809e-11
-2.43754e-11
9.43699e-11
-1.83952e-11
9.48842e-11
-1.63596e-11
9.80483e-11
-1.72956e-11
1.04045e-10
-1.61753e-11
1.08647e-10
-1.12215e-11
1.16728e-10
-1.24254e-11
1.28113e-10
-4.75496e-12
1.29307e-10
1.953e-11
1.09487e-10
3.60567e-11
1.30723e-10
-4.22318e-11
1.46964e-10
-3.87688e-11
1.42193e-10
1.92806e-11
1.28251e-10
5.65095e-11
1.28449e-10
4.92326e-11
1.31183e-10
4.67683e-11
1.32838e-10
4.75074e-11
1.33092e-10
4.79125e-11
1.3249e-10
4.64054e-11
1.3139e-10
4.3194e-11
1.29935e-10
3.88001e-11
1.28286e-10
3.34709e-11
1.26672e-10
2.741e-11
1.25258e-10
2.1053e-11
1.51138e-11
1.23954e-10
7.85339e-14
2.59085e-12
3.20784e-13
6.41032e-12
7.71762e-13
8.79021e-12
1.50019e-12
9.76428e-12
2.58706e-12
9.41032e-12
4.11748e-12
7.83448e-12
6.17378e-12
5.16813e-12
8.82911e-12
1.56716e-12
1.2141e-11
-2.78994e-12
1.61448e-11
-7.70629e-12
2.08473e-11
-1.29737e-11
2.62212e-11
-1.83831e-11
3.22022e-11
-2.37377e-11
3.86887e-11
-2.88664e-11
4.5547e-11
-3.36361e-11
5.26226e-11
-3.79536e-11
5.97792e-11
-4.17927e-11
6.6934e-11
-4.51207e-11
7.39998e-11
-4.76614e-11
8.08805e-11
-4.90871e-11
8.75385e-11
-4.93366e-11
9.39369e-11
-4.83477e-11
9.97515e-11
-4.55629e-11
1.04412e-10
-4.05541e-11
1.07629e-10
-3.39837e-11
1.08044e-10
-2.47902e-11
1.05193e-10
-1.55435e-11
1.0263e-10
-1.37969e-11
1.02389e-10
-1.70549e-11
1.07785e-10
-2.15714e-11
1.18811e-10
-2.22472e-11
1.23921e-10
-1.75354e-11
1.38626e-10
-1.94595e-11
1.71244e-10
-1.3088e-11
1.52699e-10
5.46014e-11
1.50534e-10
-4.00672e-11
1.48027e-10
-3.62615e-11
1.2358e-10
4.37271e-11
1.39793e-10
4.02973e-11
1.5347e-10
3.55552e-11
1.60446e-10
3.97918e-11
1.63667e-10
4.42864e-11
1.64642e-10
4.69379e-11
1.64684e-10
4.63637e-11
1.64165e-10
4.37128e-11
1.63008e-10
3.9957e-11
1.61342e-10
3.51374e-11
1.59567e-10
2.91844e-11
1.58042e-10
2.2578e-11
1.65729e-11
1.56583e-10
1.25981e-13
2.46487e-12
4.90566e-13
6.04573e-12
1.12785e-12
8.15294e-12
2.10277e-12
8.78936e-12
3.49788e-12
8.01521e-12
5.40411e-12
5.92825e-12
7.91337e-12
2.65887e-12
1.11117e-11
-1.63121e-12
1.50725e-11
-6.75069e-12
1.98484e-11
-1.24822e-11
2.54633e-11
-1.85885e-11
3.19029e-11
-2.48227e-11
3.91064e-11
-3.09412e-11
4.69574e-11
-3.67174e-11
5.52813e-11
-4.19599e-11
6.38442e-11
-4.65166e-11
7.23909e-11
-5.03394e-11
8.07137e-11
-5.34435e-11
8.86428e-11
-5.55905e-11
9.60796e-11
-5.65239e-11
1.03108e-10
-5.63647e-11
1.09926e-10
-5.51657e-11
1.16223e-10
-5.18606e-11
1.21265e-10
-4.55956e-11
1.2505e-10
-3.77684e-11
1.24439e-10
-2.41795e-11
1.17794e-10
-8.89868e-12
1.12064e-10
-8.06644e-12
1.07936e-10
-1.29277e-11
1.07271e-10
-2.09064e-11
1.08161e-10
-2.31366e-11
1.06287e-10
-1.56613e-11
9.07142e-11
-3.887e-12
7.13005e-11
6.32573e-12
1.39571e-10
-1.36687e-11
1.45526e-10
-4.60225e-11
1.60622e-10
-5.13581e-11
2.10616e-10
-6.26612e-12
2.08569e-10
4.23442e-11
2.02244e-10
4.188e-11
2.00383e-10
4.16524e-11
1.99428e-10
4.52417e-11
1.99272e-10
4.70937e-11
1.99749e-10
4.58874e-11
1.99971e-10
4.34906e-11
1.99071e-10
4.08565e-11
1.97082e-10
3.71263e-11
1.94788e-10
3.1479e-11
1.93011e-10
2.43542e-11
1.82237e-11
1.91361e-10
1.60608e-13
2.30426e-12
6.15518e-13
5.59082e-12
1.39285e-12
7.37561e-12
2.55757e-12
7.62465e-12
4.19678e-12
6.37601e-12
6.41011e-12
3.71493e-12
9.30236e-12
-2.33387e-13
1.29771e-11
-5.30591e-12
1.75299e-11
-1.13036e-11
2.30413e-11
-1.79935e-11
2.95662e-11
-2.51134e-11
3.71231e-11
-3.23796e-11
4.56788e-11
-3.94969e-11
5.51292e-11
-4.61678e-11
6.52814e-11
-5.21121e-11
7.58284e-11
-5.70636e-11
8.63555e-11
-6.08664e-11
9.64304e-11
-6.35185e-11
1.05683e-10
-6.48434e-11
1.13858e-10
-6.4699e-11
1.21087e-10
-6.35932e-11
1.27972e-10
-6.20511e-11
1.34484e-10
-5.8372e-11
1.39697e-10
-5.08089e-11
1.45406e-10
-4.34772e-11
1.44449e-10
-2.32229e-11
1.3279e-10
2.76033e-12
1.24857e-10
-1.3341e-13
1.21045e-10
-9.1158e-12
1.16216e-10
-1.6077e-11
1.1365e-10
-2.05709e-11
1.11195e-10
-1.32059e-11
1.11135e-10
-3.82746e-12
1.16232e-10
1.22872e-12
1.7431e-10
-7.17463e-11
1.43989e-10
-1.57022e-11
1.1501e-10
-2.23785e-11
1.74653e-10
-6.5909e-11
1.94815e-10
2.21822e-11
2.10553e-10
2.61415e-11
2.18749e-10
3.34564e-11
2.26102e-10
3.78888e-11
2.31432e-10
4.17632e-11
2.35779e-10
4.15412e-11
2.38377e-10
4.08923e-11
2.38108e-10
4.11258e-11
2.35418e-10
3.98163e-11
2.3204e-10
3.48567e-11
2.29924e-10
2.64697e-11
1.9972e-11
2.28176e-10
1.79239e-13
2.12503e-12
6.84631e-13
5.08543e-12
1.54404e-12
6.5162e-12
2.82622e-12
6.34248e-12
4.62535e-12
4.57689e-12
7.0515e-12
1.28878e-12
1.0224e-11
-3.40587e-12
1.42661e-11
-9.34805e-12
1.93003e-11
-1.63377e-11
2.54417e-11
-2.4135e-11
3.27902e-11
-3.24619e-11
4.14188e-11
-4.10081e-11
5.13542e-11
-4.94323e-11
6.25495e-11
-5.73631e-11
7.48491e-11
-6.44118e-11
8.79264e-11
-7.01408e-11
1.01231e-10
-7.41714e-11
1.14028e-10
-7.63154e-11
1.25563e-10
-7.63781e-11
1.35137e-10
-7.42727e-11
1.42608e-10
-7.1065e-11
1.48924e-10
-6.83671e-11
1.54611e-10
-6.40588e-11
1.57991e-10
-5.41888e-11
1.65906e-10
-5.13924e-11
1.69623e-10
-2.69403e-11
1.49032e-10
2.33513e-11
1.42887e-10
6.01163e-12
1.40038e-10
-6.26651e-12
1.37255e-10
-1.32942e-11
1.36516e-10
-1.98318e-11
1.44633e-10
-2.13228e-11
1.66077e-10
-2.52717e-11
2.07674e-10
-4.03677e-11
1.945e-10
-5.85728e-11
1.71454e-10
7.34469e-12
1.38305e-10
1.07702e-11
1.12716e-10
-4.03206e-11
1.71893e-10
-3.69948e-11
2.06606e-10
-8.57151e-12
2.35021e-10
5.04209e-12
2.54274e-10
1.86357e-11
2.66431e-10
2.96066e-11
2.7556e-10
3.24114e-11
2.80637e-10
3.58157e-11
2.8053e-10
4.12328e-11
2.76242e-10
4.41037e-11
2.70798e-10
4.03014e-11
2.68427e-10
2.88404e-11
2.14979e-11
2.66901e-10
1.79414e-13
1.94561e-12
6.89436e-13
4.57541e-12
1.56383e-12
5.6418e-12
2.87863e-12
5.02768e-12
4.7366e-12
2.71892e-12
7.25833e-12
-1.23295e-12
1.05767e-11
-6.72428e-12
1.48336e-11
-1.36049e-11
2.01769e-11
-2.1681e-11
2.67577e-11
-3.07158e-11
3.47265e-11
-4.04307e-11
4.42247e-11
-5.05063e-11
5.53681e-11
-6.05757e-11
6.82196e-11
-7.02145e-11
8.27443e-11
-7.89365e-11
9.87222e-11
-8.61188e-11
1.15633e-10
-9.1082e-11
1.32493e-10
-9.31758e-11
1.47958e-10
-9.18425e-11
1.60641e-10
-8.69558e-11
1.69322e-10
-7.97466e-11
1.76e-10
-7.5045e-11
1.77281e-10
-6.53391e-11
1.7639e-10
-5.32984e-11
1.86019e-10
-6.10216e-11
1.92876e-10
-3.37973e-11
1.68002e-10
4.82256e-11
1.70997e-10
3.01674e-12
1.61881e-10
2.84977e-12
1.57527e-10
-8.94025e-12
1.60714e-10
-2.30192e-11
1.74058e-10
-3.46662e-11
1.93756e-10
-4.49703e-11
2.03534e-10
-5.01457e-11
1.91808e-10
-4.68462e-11
2.09771e-10
-1.06185e-11
2.28362e-10
-7.82113e-12
2.24206e-10
-3.61642e-11
2.2771e-10
-4.04987e-11
2.50156e-10
-3.10172e-11
2.73583e-10
-1.83853e-11
2.94652e-10
-2.4337e-12
3.08934e-10
1.53253e-11
3.18576e-10
2.27693e-11
3.25377e-10
2.90142e-11
3.25297e-10
4.13129e-11
3.19009e-10
5.03921e-11
3.10516e-10
4.87944e-11
3.08427e-10
3.09295e-11
2.2337e-11
3.07588e-10
1.59769e-13
1.78584e-12
6.25299e-13
4.10988e-12
1.4425e-12
4.82461e-12
2.69762e-12
3.77256e-12
4.50246e-12
9.14078e-13
6.98638e-12
-3.71686e-12
1.02921e-11
-1.003e-11
1.45741e-11
-1.78869e-11
1.99983e-11
-2.71051e-11
2.67429e-11
-3.74604e-11
3.5e-11
-4.86878e-11
4.49732e-11
-6.04795e-11
5.68721e-11
-7.24745e-11
7.08971e-11
-8.42395e-11
8.72065e-11
-9.52459e-11
1.0585e-10
-1.04763e-10
1.26617e-10
-1.11849e-10
1.48741e-10
-1.153e-10
1.70463e-10
-1.13565e-10
1.89163e-10
-1.05656e-10
2.0321e-10
-9.37934e-11
2.10066e-10
-8.19013e-11
2.0841e-10
-6.36826e-11
1.9124e-10
-3.61292e-11
1.74062e-10
-4.38433e-11
1.67077e-10
-2.68118e-11
2.27731e-10
-1.24289e-11
1.95545e-10
3.5203e-11
1.72346e-10
2.60482e-11
1.68805e-10
-5.39893e-12
1.75856e-10
-3.00702e-11
1.87912e-10
-4.67218e-11
2.01132e-10
-5.81905e-11
2.14037e-10
-6.30507e-11
2.24622e-10
-5.74317e-11
2.47541e-10
-3.35372e-11
2.71736e-10
-3.20162e-11
2.81741e-10
-4.61689e-11
2.90917e-10
-4.9675e-11
3.04464e-10
-4.4564e-11
3.23886e-10
-3.78075e-11
3.40928e-10
-1.94757e-11
3.47623e-10
8.63045e-12
3.60582e-10
9.81018e-12
3.71612e-10
1.79841e-11
3.73827e-10
3.90983e-11
3.66306e-10
5.79127e-11
3.5323e-10
6.18707e-11
3.51969e-10
3.21898e-11
2.27363e-11
3.5157e-10
1.20359e-13
1.66548e-12
4.92505e-13
3.73774e-12
1.18044e-12
4.13667e-12
2.28305e-12
2.66996e-12
3.92064e-12
-7.23515e-13
6.22819e-12
-6.02441e-12
9.3522e-12
-1.3154e-11
1.34503e-11
-2.19849e-11
1.86926e-11
-3.23474e-11
2.52658e-11
-4.40336e-11
3.33775e-11
-5.67995e-11
4.32611e-11
-7.03632e-11
5.5183e-11
-8.43964e-11
6.94496e-11
-9.85062e-11
8.6407e-11
-1.12203e-10
1.06431e-10
-1.24787e-10
1.29826e-10
-1.35244e-10
1.56566e-10
-1.4204e-10
1.87292e-10
-1.44291e-10
2.17148e-10
-1.35511e-10
2.4084e-10
-1.17485e-10
2.50783e-10
-9.18448e-11
2.6696e-10
-7.98598e-11
2.26877e-10
3.95388e-12
1.86852e-10
-3.81831e-12
1.79464e-10
-1.9424e-11
1.85379e-10
-1.83432e-11
1.54764e-10
6.58179e-11
1.5193e-10
2.88817e-11
1.65974e-10
-1.94423e-11
1.84133e-10
-4.82294e-11
2.02868e-10
-6.54572e-11
2.20432e-10
-7.57545e-11
2.36652e-10
-7.92707e-11
2.53359e-10
-7.41384e-11
2.81525e-10
-6.17027e-11
3.08451e-10
-5.89431e-11
3.27005e-10
-6.47227e-11
3.39641e-10
-6.23102e-11
3.50441e-10
-5.53648e-11
3.62876e-10
-5.0242e-11
3.76221e-10
-3.28209e-11
3.85398e-10
-5.47028e-13
4.0317e-10
-7.96115e-12
4.19085e-10
2.06886e-12
4.27738e-10
3.0445e-11
4.22123e-10
6.35279e-11
4.01189e-10
8.28045e-11
4.01471e-10
3.19082e-11
2.51419e-11
3.99065e-10
6.28352e-14
1.60265e-12
2.96829e-13
3.50375e-12
7.89421e-13
3.64408e-12
1.65402e-12
1.80535e-12
3.0186e-12
-2.08809e-12
5.02005e-12
-8.02585e-12
7.80176e-12
-1.59357e-11
1.15135e-11
-2.56966e-11
1.63131e-11
-3.71471e-11
2.23708e-11
-5.00913e-11
2.98739e-11
-6.43026e-11
3.90347e-11
-7.95239e-11
5.0104e-11
-9.54657e-11
6.33957e-11
-1.11798e-10
7.92984e-11
-1.28106e-10
9.82982e-11
-1.43786e-10
1.20962e-10
-1.57908e-10
1.48682e-10
-1.69759e-10
1.79069e-10
-1.74679e-10
2.21344e-10
-1.77786e-10
2.84754e-10
-1.80895e-10
3.22469e-10
-1.2956e-10
2.92444e-10
-4.98349e-11
2.69757e-10
2.66409e-11
2.29137e-10
3.68024e-11
1.17958e-10
9.17543e-11
1.26708e-10
-2.70931e-11
1.07045e-10
8.54811e-11
1.46235e-10
-1.03079e-11
1.74297e-10
-4.75046e-11
1.96599e-10
-7.05318e-11
2.20901e-10
-8.97587e-11
2.45192e-10
-1.00046e-10
2.67516e-10
-1.01594e-10
2.90904e-10
-9.75266e-11
3.19174e-10
-8.99726e-11
3.46596e-10
-8.63647e-11
3.66462e-10
-8.45892e-11
3.82191e-10
-7.80388e-11
3.94175e-10
-6.73493e-11
3.99171e-10
-5.52372e-11
4.09004e-10
-4.2654e-11
4.34005e-10
-2.55486e-11
4.41668e-10
-1.56234e-11
4.50991e-10
-7.25413e-12
4.74481e-10
6.95504e-12
5.06778e-10
3.12303e-11
4.79964e-10
1.09619e-10
4.68437e-10
4.34352e-11
5.04221e-11
4.43157e-10
-9.62623e-15
1.61228e-12
4.9325e-14
3.44481e-12
2.92181e-13
3.40123e-12
8.48495e-13
1.24904e-12
1.85321e-12
-3.09281e-12
3.44215e-12
-9.61479e-12
5.74985e-12
-1.82434e-11
8.90884e-12
-2.88555e-11
1.30503e-11
-4.12885e-11
1.83057e-11
-5.53468e-11
2.48094e-11
-7.08063e-11
3.27029e-11
-8.74174e-11
4.21435e-11
-1.04906e-10
5.33164e-11
-1.22971e-10
6.63989e-11
-1.41189e-10
8.14993e-11
-1.58887e-10
9.90361e-11
-1.75445e-10
1.15358e-10
-1.86081e-10
1.35141e-10
-1.94462e-10
1.66441e-10
-2.09085e-10
1.77822e-10
-1.92277e-10
1.70878e-10
-1.22616e-10
1.68322e-10
-4.72797e-11
1.39746e-10
5.52174e-11
1.6616e-10
1.03883e-11
2.1707e-10
4.08442e-11
2.00823e-10
-1.08461e-11
1.83341e-10
1.02963e-10
1.79808e-10
-6.77445e-12
1.97765e-10
-6.54615e-11
2.1712e-10
-8.98865e-11
2.45061e-10
-1.177e-10
2.72279e-10
-1.27263e-10
2.98268e-10
-1.27584e-10
3.24487e-10
-1.23746e-10
3.52471e-10
-1.17956e-10
3.78804e-10
-1.12698e-10
4.0077e-10
-1.06556e-10
4.18495e-10
-9.57637e-11
4.30859e-10
-7.9713e-11
4.37539e-10
-6.19179e-11
4.46521e-10
-5.16359e-11
4.5815e-10
-3.71775e-11
4.60959e-10
-1.84317e-11
4.66736e-10
-1.30315e-11
4.90027e-10
-1.63363e-11
5.45059e-10
-2.38013e-11
5.99191e-10
5.54868e-11
6.09996e-10
3.263e-11
1.5238e-10
5.08038e-10
-9.25415e-14
1.70482e-12
-2.34564e-13
3.58684e-12
-2.79573e-13
3.44625e-12
-8.02845e-14
1.04976e-12
5.053e-13
-3.67839e-12
1.61065e-12
-1.07201e-11
3.35857e-12
-1.99913e-11
5.85958e-12
-3.13565e-11
9.21056e-12
-4.46395e-11
1.34936e-11
-5.96299e-11
1.87746e-11
-7.60873e-11
2.51016e-11
-9.37443e-11
3.25022e-11
-1.12307e-10
4.097e-11
-1.31439e-10
5.04321e-11
-1.50651e-10
6.08274e-11
-1.69282e-10
6.98372e-11
-1.84455e-10
8.07102e-11
-1.96954e-10
9.82904e-11
-2.12042e-10
1.04449e-10
-2.15244e-10
1.01391e-10
-1.89219e-10
1.19877e-10
-1.41101e-10
1.59894e-10
-8.72969e-11
2.8409e-10
-6.89787e-11
1.93497e-10
1.00982e-10
1.48955e-10
8.53855e-11
4.81443e-11
8.9965e-11
1.10187e-10
4.09201e-11
1.58855e-10
-5.5442e-11
1.9364e-10
-1.00247e-10
2.32741e-10
-1.28987e-10
2.70574e-10
-1.55533e-10
3.0141e-10
-1.58099e-10
3.26881e-10
-1.53056e-10
3.51557e-10
-1.48421e-10
3.76115e-10