/*--------------------------------*- C++ -*----------------------------------*\
| =========                 |                                                 |
| \\      /  F ield         | OpenFOAM: The Open Source CFD Toolbox           |
|  \\    /   O peration     | Version:  2.4.0                                 |
|   \\  /    A nd           | Web:      www.OpenFOAM.org                      |
|    \\/     M anipulation  |                                                 |
\*---------------------------------------------------------------------------*/
FoamFile
{
    version     2.0;
    format      ascii;
    class       volVectorField;
    location    "0.085";
    object      U;
}
// * * * * * * * * * * * * * * * * * * * * * * * * * * * * * * * * * * * * * //

dimensions      [0 1 -1 0 0 0 0];

internalField   nonuniform List<vector> 
14400
(
(-0.00244103 0.000302679 0)
(-0.00650017 4.24254e-05 0)
(-0.0103245 9.99329e-05 0)
(-0.00916093 -1.50376e-05 0)
(-0.00644222 -7.83764e-05 0)
(-0.00180308 -0.000100562 0)
(0.00381964 -0.000107258 0)
(0.00993587 -0.000104997 0)
(0.0156287 -7.01274e-05 0)
(0.0196459 -7.62129e-06 0)
(0.021913 3.64501e-05 0)
(0.0235412 4.70621e-05 0)
(0.0249546 6.87753e-05 0)
(0.0254259 0.000133697 0)
(0.0241221 0.000224644 0)
(0.0209027 0.000308531 0)
(0.0162515 0.000348792 0)
(0.0110475 0.00032753 0)
(0.00612687 0.000252595 0)
(0.00206195 0.000146325 0)
(-0.000924341 3.66348e-05 0)
(-0.00283689 -6.41472e-05 0)
(-0.00386541 -0.000150863 0)
(-0.0042178 -0.000220987 0)
(-0.00408625 -0.000269565 0)
(-0.00362895 -0.000305755 0)
(-0.00297726 -0.000332929 0)
(-0.00222829 -0.000352424 0)
(-0.00145329 -0.000365064 0)
(-0.000702056 -0.000371221 0)
(-0.00295313 0.00105883 0)
(-0.0142635 0.000625428 0)
(-0.0227473 0.000851493 0)
(-0.0229361 1.49823e-06 0)
(-0.0212745 -0.000494884 0)
(-0.0157701 -0.000866335 0)
(-0.00669823 -0.00123249 0)
(0.00536452 -0.00154987 0)
(0.01862 -0.00158665 0)
(0.0305559 -0.00132387 0)
(0.0404057 -0.00114039 0)
(0.0492944 -0.00119948 0)
(0.057786 -0.00116488 0)
(0.0648771 -0.000724499 0)
(0.0692282 0.00011587 0)
(0.0702305 0.00112658 0)
(0.0680138 0.00206929 0)
(0.0633275 0.00275611 0)
(0.0570882 0.00310996 0)
(0.0501473 0.00315884 0)
(0.0431247 0.00298442 0)
(0.0364244 0.00267682 0)
(0.0302499 0.00231386 0)
(0.0246738 0.00195093 0)
(0.0196903 0.00161603 0)
(0.0152548 0.00132525 0)
(0.0113128 0.00108883 0)
(0.00780834 0.000911785 0)
(0.00468521 0.000795231 0)
(0.00189012 0.000734999 0)
(-0.00300339 0.00185254 0)
(-0.0151477 0.00136284 0)
(-0.0243377 0.00177907 0)
(-0.0250454 0.000160178 0)
(-0.0241154 -0.000812068 0)
(-0.0191203 -0.00163451 0)
(-0.0101036 -0.00251887 0)
(0.0023647 -0.00331509 0)
(0.0163069 -0.00355109 0)
(0.0289762 -0.00315486 0)
(0.0394927 -0.00286615 0)
(0.0490062 -0.00303758 0)
(0.0581824 -0.00305983 0)
(0.0660857 -0.00232591 0)
(0.0714017 -0.000815195 0)
(0.0735484 0.00106347 0)
(0.0726077 0.00293697 0)
(0.0692751 0.00446298 0)
(0.0643487 0.00548878 0)
(0.0585494 0.00604866 0)
(0.0523552 0.0062589 0)
(0.0460557 0.0062444 0)
(0.0398172 0.00611202 0)
(0.0337342 0.00594086 0)
(0.0278612 0.00577584 0)
(0.0222362 0.00563579 0)
(0.0168965 0.00552346 0)
(0.0118831 0.00543852 0)
(0.00723246 0.00538135 0)
(0.00296703 0.00535202 0)
(-0.00301093 0.00265107 0)
(-0.0152866 0.00211855 0)
(-0.0246392 0.00274842 0)
(-0.0252947 0.000354377 0)
(-0.0245446 -0.00109681 0)
(-0.0196829 -0.00238356 0)
(-0.0107105 -0.0038053 0)
(0.00182685 -0.00509695 0)
(0.0159272 -0.00554247 0)
(0.0286831 -0.00499768 0)
(0.0391369 -0.00458972 0)
(0.0486179 -0.00489424 0)
(0.0579303 -0.0050087 0)
(0.0660554 -0.00400418 0)
(0.0715271 -0.00182081 0)
(0.0737263 0.000932163 0)
(0.0726468 0.00372685 0)
(0.0690583 0.00607525 0)
(0.0638207 0.00774724 0)
(0.0577475 0.00879408 0)
(0.0513627 0.00938695 0)
(0.0449674 0.00969455 0)
(0.038723 0.00985192 0)
(0.0327097 0.00995465 0)
(0.0269633 0.0100561 0)
(0.0215006 0.0101701 0)
(0.0163363 0.0102848 0)
(0.0114935 0.0103828 0)
(0.00699822 0.0104523 0)
(0.00287165 0.0104897 0)
(-0.00301547 0.00345184 0)
(-0.015375 0.00288 0)
(-0.0248568 0.00375436 0)
(-0.0253213 0.000560305 0)
(-0.0246817 -0.00137076 0)
(-0.019895 -0.00312758 0)
(-0.0109505 -0.00509379 0)
(0.0016486 -0.00689672 0)
(0.0159231 -0.00755954 0)
(0.0287762 -0.00684143 0)
(0.0391186 -0.00629291 0)
(0.048527 -0.00676638 0)
(0.0580237 -0.00702775 0)
(0.0664954 -0.00577257 0)
(0.0722682 -0.00287852 0)
(0.0746867 0.000802906 0)
(0.0735671 0.00457717 0)
(0.0697629 0.00781287 0)
(0.0641712 0.0101686 0)
(0.0577027 0.0117138 0)
(0.0509231 0.0126807 0)
(0.0441662 0.0132805 0)
(0.0376299 0.0136758 0)
(0.0314274 0.0139815 0)
(0.0256169 0.0142641 0)
(0.0202196 0.0145429 0)
(0.0152335 0.014804 0)
(0.0106491 0.0150215 0)
(0.00645641 0.0151747 0)
(0.0026414 0.0152563 0)
(-0.00302063 0.00425502 0)
(-0.0154806 0.00364672 0)
(-0.0251213 0.0048062 0)
(-0.0253201 0.000776728 0)
(-0.0248124 -0.00163468 0)
(-0.0201168 -0.00386653 0)
(-0.0112145 -0.00638294 0)
(0.00145079 -0.00871665 0)
(0.0159451 -0.0096082 0)
(0.0289258 -0.00868487 0)
(0.0391125 -0.00796395 0)
(0.0484128 -0.00865591 0)
(0.0581425 -0.00914676 0)
(0.0670754 -0.0076765 0)
(0.0732447 -0.00402788 0)
(0.0760082 0.000639826 0)
(0.0749027 0.00545708 0)
(0.0709345 0.00965138 0)
(0.0650421 0.0127274 0)
(0.0582761 0.0147858 0)
(0.0512257 0.0161359 0)
(0.0442197 0.017029 0)
(0.0374606 0.0176461 0)
(0.0310762 0.0181144 0)
(0.0251446 0.0185119 0)
(0.019701 0.018872 0)
(0.0147444 0.0191907 0)
(0.0102498 0.0194505 0)
(0.00618693 0.0196313 0)
(0.00252361 0.0197255 0)
(-0.00302686 0.0050611 0)
(-0.01561 0.00441909 0)
(-0.0254481 0.00591494 0)
(-0.0253092 0.00100478 0)
(-0.0249677 -0.00188653 0)
(-0.0203877 -0.00459866 0)
(-0.0115421 -0.00767194 0)
(0.0011998 -0.0105609 0)
(0.0159719 -0.0116981 0)
(0.0291203 -0.010528 0)
(0.0390991 -0.00959029 0)
(0.0482506 -0.0105669 0)
(0.0582645 -0.0114009 0)
(0.0677841 -0.00976675 0)
(0.0744294 -0.00530381 0)
(0.0776706 0.000435344 0)
(0.0765895 0.00635504 0)
(0.072441 0.0115953 0)
(0.0661936 0.0154167 0)
(0.0591227 0.0179786 0)
(0.0518384 0.019702 0)
(0.0446485 0.020884 0)
(0.0377399 0.0217171 0)
(0.0312327 0.0223366 0)
(0.0252058 0.022824 0)
(0.0196955 0.0232314 0)
(0.0147044 0.0235645 0)
(0.0101983 0.0238218 0)
(0.00613297 0.024001 0)
(0.00249598 0.0241 0)
(-0.00303417 0.00587062 0)
(-0.0157641 0.00519699 0)
(-0.0258421 0.0070918 0)
(-0.0252859 0.00124529 0)
(-0.0251494 -0.00212433 0)
(-0.0207109 -0.00532216 0)
(-0.0119374 -0.00895988 0)
(0.00089033 -0.0124346 0)
(0.0160046 -0.0138395 0)
(0.0293697 -0.0123711 0)
(0.0390755 -0.0111558 0)
(0.0480293 -0.0125032 0)
(0.0583776 -0.013832 0)
(0.0686336 -0.0121009 0)
(0.0758189 -0.00674537 0)
(0.0797083 0.000176649 0)
(0.0786514 0.00726551 0)
(0.0742966 0.0136725 0)
(0.0675928 0.0182605 0)
(0.0601677 0.0212966 0)
(0.0526357 0.0233692 0)
(0.0452653 0.0248244 0)
(0.0382203 0.0258622 0)
(0.0316057 0.0266255 0)
(0.0254983 0.0271923 0)
(0.019913 0.0276402 0)
(0.0148644 0.0279798 0)
(0.0103273 0.0282241 0)
(0.00624894 0.0283884 0)
(0.00255967 0.028479 0)
(-0.00304266 0.00668408 0)
(-0.0159436 0.00597975 0)
(-0.0263071 0.00834842 0)
(-0.0252463 0.0014985 0)
(-0.0253571 -0.00234635 0)
(-0.0210867 -0.0060352 0)
(-0.0124025 -0.0102459 0)
(0.000517713 -0.0143419 0)
(0.016046 -0.0160453 0)
(0.029687 -0.0142147 0)
(0.0390382 -0.01264 0)
(0.047736 -0.0144677 0)
(0.0584666 -0.0164873 0)
(0.0696501 -0.0147383 0)
(0.077415 -0.0083944 0)
(0.0821672 -0.000119458 0)
(0.0811235 0.00817153 0)
(0.0765345 0.0159248 0)
(0.0692268 0.0212959 0)
(0.0613865 0.0247541 0)
(0.0535859 0.0271421 0)
(0.0460226 0.0288523 0)
(0.0388231 0.0300859 0)
(0.0320911 0.030975 0)
(0.025889 0.0316266 0)
(0.0202311 0.0320969 0)
(0.0150959 0.0324496 0)
(0.0104754 0.0327064 0)
(0.00630678 0.0328495 0)
(0.00256638 0.0329083 0)
(-0.00305237 0.00750204 0)
(-0.0161488 0.00676585 0)
(-0.0268485 0.00969687 0)
(-0.0251839 0.00176378 0)
(-0.0255899 -0.00255096 0)
(-0.0215152 -0.00673589 0)
(-0.0129399 -0.0115282 0)
(7.57016e-05 -0.0162877 0)
(0.0160982 -0.0183303 0)
(0.0300901 -0.0160589 0)
(0.0389813 -0.0140151 0)
(0.0473583 -0.01646 0)
(0.058508 -0.0194164 0)
(0.0708743 -0.0177275 0)
(0.0792338 -0.0102812 0)
(0.0851085 -0.000443412 0)
(0.0840513 0.00903963 0)
(0.0792031 0.0184187 0)
(0.0710731 0.0245717 0)
(0.0627558 0.0283664 0)
(0.05467 0.031027 0)
(0.0468977 0.0329751 0)
(0.0395288 0.0343982 0)
(0.0326641 0.0353979 0)
(0.0263282 0.0361284 0)
(0.020598 0.036641 0)
(0.0154259 0.0369771 0)
(0.010716 0.0372177 0)
(0.0064849 0.0373715 0)
(0.00266197 0.0374695 0)
(-0.00306325 0.00832501 0)
(-0.0163798 0.00755285 0)
(-0.0274715 0.0111499 0)
(-0.0250929 0.0020397 0)
(-0.0258471 -0.00273691 0)
(-0.0219964 -0.00742212 0)
(-0.0135523 -0.0128046 0)
(-0.000442866 -0.0182769 0)
(0.0161636 -0.0207124 0)
(0.0306019 -0.0179051 0)
(0.0388967 -0.0152454 0)
(0.0468821 -0.0184724 0)
(0.0584594 -0.0226673 0)
(0.0723486 -0.0210922 0)
(0.0813269 -0.0124077 0)
(0.0886015 -0.000724968 0)
(0.0875013 0.0097983 0)
(0.0823696 0.0212584 0)
(0.0730962 0.0281515 0)
(0.0642544 0.0321475 0)
(0.0558796 0.0350384 0)
(0.0479039 0.0372096 0)
(0.0403259 0.0387865 0)
(0.0332851 0.0399319 0)
(0.0268579 0.0406936 0)
(0.0209578 0.0412552 0)
(0.0156164 0.0416109 0)
(0.0108205 0.0418396 0)
(0.00648847 0.0419845 0)
(0.00263747 0.0420502 0)
(-0.0030754 0.00915351 0)
(-0.0166371 0.00833739 0)
(-0.0281832 0.0127211 0)
(-0.0249648 0.00232375 0)
(-0.0261281 -0.0029029 0)
(-0.0225303 -0.00809185 0)
(-0.0142428 -0.0140721 0)
(-0.00104673 -0.0203137 0)
(0.0162432 -0.0232124 0)
(0.0312523 -0.0197542 0)
(0.0387709 -0.016285 0)
(0.0462914 -0.0204847 0)
(0.0582414 -0.0262889 0)
(0.0740569 -0.0248158 0)
(0.0838568 -0.014731 0)
(0.0926896 -0.000828193 0)
(0.0915954 0.0103185 0)
(0.0861229 0.0246055 0)
(0.0752196 0.0321114 0)
(0.0658095 0.0360854 0)
(0.0572264 0.0391432 0)
(0.0490412 0.0416082 0)
(0.0413071 0.0432462 0)
(0.0339785 0.0445377 0)
(0.0273255 0.0454148 0)
(0.0213518 0.0459334 0)
(0.0159882 0.0463087 0)
(0.0111278 0.0465647 0)
(0.00676324 0.0467027 0)
(0.00278178 0.0467242 0)
(-0.00308863 0.00998809 0)
(-0.0169202 0.0091149 0)
(-0.0289906 0.0144254 0)
(-0.0247917 0.00261228 0)
(-0.026433 -0.0030478 0)
(-0.0231171 -0.00874287 0)
(-0.0150148 -0.0153264 0)
(-0.00174657 -0.0224014 0)
(0.0163374 -0.0258542 0)
(0.03208 -0.0216087 0)
(0.0385822 -0.0170765 0)
(0.0455669 -0.0224595 0)
(0.0577464 -0.0303446 0)
(0.0759609 -0.028806 0)
(0.0875273 -0.0172129 0)
(0.0971408 -0.000613802 0)
(0.0966398 0.010398 0)
(0.0905959 0.0287227 0)
(0.0773158 0.0365573 0)
(0.0673309 0.0401158 0)
(0.0587767 0.0432801 0)
(0.0501539 0.0461877 0)
(0.0424423 0.0479221 0)
(0.0350602 0.0491911 0)
(0.0279395 0.0501627 0)
(0.0216863 0.0507782 0)
(0.0161324 0.051137 0)
(0.0111662 0.0513016 0)
(0.00676114 0.0514246 0)
(0.00279176 0.0515765 0)
(-0.00310289 0.0108293 0)
(-0.0172288 0.00987947 0)
(-0.029902 0.0162789 0)
(-0.0245631 0.0029001 0)
(-0.0267613 -0.00317023 0)
(-0.0237565 -0.00937296 0)
(-0.015872 -0.016562 0)
(-0.0025554 -0.0245441 0)
(0.0164437 -0.0286637 0)
(0.0331372 -0.0234719 0)
(0.0382989 -0.0175501 0)
(0.0446902 -0.0243289 0)
(0.0570516 -0.0348823 0)
(0.0791693 -0.0328307 0)
(0.094533 -0.0198079 0)
(0.100904 -0.000387065 0)
(0.103596 0.00979335 0)
(0.0959072 0.0340683 0)
(0.0790968 0.0416665 0)
(0.0688226 0.0440759 0)
(0.0603342 0.0475601 0)
(0.0516509 0.0507841 0)
(0.042809 0.0530844 0)
(0.0350644 0.0543283 0)
(0.0284753 0.0550455 0)
(0.0222539 0.0556359 0)
(0.0165933 0.0559686 0)
(0.0114749 0.0561719 0)
(0.0067956 0.0563044 0)
(0.00270625 0.0563489 0)
(-0.00311795 0.0116777 0)
(-0.0175618 0.0106237 0)
(-0.0309268 0.0182995 0)
(-0.0242681 0.00318037 0)
(-0.027114 -0.00326904 0)
(-0.0244488 -0.00997986 0)
(-0.0168182 -0.0177718 0)
(-0.00348811 -0.0267452 0)
(0.016556 -0.0316732 0)
(0.0344928 -0.0253491 0)
(0.0378713 -0.0176235 0)
(0.0436381 -0.0259775 0)
(0.056338 -0.0396606 0)
(0.0867106 -0.0361837 0)
(0.106955 -0.0225556 0)
(0.103599 -0.00177733 0)
(0.114274 0.00853179 0)
(0.101814 0.0413839 0)
(0.0801256 0.0475556 0)
(0.0703135 0.047793 0)
(0.0625903 0.0516801 0)
(0.0530083 0.0557412 0)
(0.042986 0.0582732 0)
(0.0354689 0.0596298 0)
(0.028445 0.0604552 0)
(0.0222052 0.0607784 0)
(0.0165894 0.0610236 0)
(0.0114922 0.061242 0)
(0.00698161 0.0612969 0)
(0.00287839 0.0611744 0)
(-0.00313358 0.0125339 0)
(-0.0179183 0.0113386 0)
(-0.0320747 0.0205073 0)
(-0.0238937 0.00344406 0)
(-0.0274914 -0.00334276 0)
(-0.0251938 -0.0105615 0)
(-0.0178574 -0.0189465 0)
(-0.00456259 -0.0290065 0)
(0.0166618 -0.0349201 0)
(0.0362417 -0.0272479 0)
(0.0372295 -0.0172025 0)
(0.0423526 -0.0272939 0)
(0.0543188 -0.0444001 0)
(0.0930441 -0.0376614 0)
(0.116612 -0.0262549 0)
(0.112069 -0.00817507 0)
(0.127673 0.00827782 0)
(0.10532 0.0514651 0)
(0.0803661 0.0538546 0)
(0.0717611 0.0509419 0)
(0.064929 0.0561327 0)
(0.0554784 0.0603984 0)
(0.045893 0.0636135 0)
(0.037043 0.0651187 0)
(0.0296892 0.0654264 0)
(0.0230087 0.0657371 0)
(0.0169117 0.0660004 0)
(0.0117629 0.066106 0)
(0.00730675 0.0661677 0)
(0.00306511 0.0662977 0)
(-0.00314942 0.0133988 0)
(-0.0182958 0.0120129 0)
(-0.0333573 0.0229248 0)
(-0.0234261 0.00367963 0)
(-0.0278955 -0.00338973 0)
(-0.0259916 -0.0111151 0)
(-0.0189935 -0.0200746 0)
(-0.00579831 -0.0313311 0)
(0.0167378 -0.0384507 0)
(0.0385142 -0.0291777 0)
(0.0362848 -0.0161828 0)
(0.040838 -0.0282435 0)
(0.0512865 -0.0500999 0)
(0.0893079 -0.0394396 0)
(0.108871 -0.0320564 0)
(0.131927 -0.0179964 0)
(0.13677 0.0123549 0)
(0.103546 0.0638453 0)
(0.0834154 0.0585775 0)
(0.0773889 0.0537112 0)
(0.068365 0.0608286 0)
(0.0568158 0.0660517 0)
(0.0458566 0.0689222 0)
(0.0374612 0.0699359 0)
(0.0299954 0.0707386 0)
(0.022922 0.0712932 0)
(0.0169504 0.0712916 0)
(0.011681 0.0711097 0)
(0.00692768 0.0711309 0)
(0.00278785 0.0714662 0)
(-0.00316509 0.0142732 0)
(-0.0186924 0.0126332 0)
(-0.0347856 0.0255777 0)
(-0.022849 0.00387246 0)
(-0.0283283 -0.00340795 0)
(-0.0268424 -0.011639 0)
(-0.0202299 -0.0211414 0)
(-0.00721727 -0.033712 0)
(0.0167453 -0.0423213 0)
(0.0414839 -0.0311512 0)
(0.0349245 -0.01445 0)
(0.0392211 -0.0286784 0)
(0.0500047 -0.0564779 0)
(0.0819888 -0.0445128 0)
(0.111348 -0.0448841 0)
(0.142247 -0.0221141 0)
(0.136895 0.0181403 0)
(0.110993 0.0765766 0)
(0.0844183 0.0611936 0)
(0.085593 0.0561112 0)
(0.0743317 0.0670968 0)
(0.0595593 0.0721674 0)
(0.0487015 0.0754698 0)
(0.0378517 0.076345 0)
(0.0290088 0.0768466 0)
(0.0224054 0.0764346 0)
(0.0168911 0.0763321 0)
(0.0115632 0.0764203 0)
(0.00656582 0.0762965 0)
(0.00244236 0.0760841 0)
(-0.00318011 0.0151582 0)
(-0.0191043 0.0131835 0)
(-0.0363726 0.0284952 0)
(-0.0221444 0.00400406 0)
(-0.0287934 -0.00339493 0)
(-0.0277461 -0.0121308 0)
(-0.0215694 -0.0221316 0)
(-0.0088434 -0.0361335 0)
(0.0166247 -0.0466015 0)
(0.0452583 -0.0331786 0)
(0.0329625 -0.0118838 0)
(0.0374578 -0.0284582 0)
(0.0447234 -0.0611843 0)
(0.0804384 -0.0562364 0)
(0.116281 -0.0524396 0)
(0.131151 -0.020388 0)
(0.125512 0.018058 0)
(0.123243 0.086906 0)
(0.0908696 0.0715823 0)
(0.0739747 0.0544608 0)
(0.0791212 0.0743226 0)
(0.0601427 0.0802858 0)
(0.0466645 0.0825898 0)
(0.0379337 0.0832951 0)
(0.0307295 0.0822286 0)
(0.0239044 0.081561 0)
(0.0172713 0.0815681 0)
(0.0118972 0.0817785 0)
(0.00716947 0.0815495 0)
(0.00280399 0.0808079 0)
(-0.00319393 0.0160553 0)
(-0.0195277 0.0136447 0)
(-0.0381312 0.031711 0)
(-0.0212914 0.00405143 0)
(-0.0292955 -0.00334756 0)
(-0.0287028 -0.0125888 0)
(-0.0230139 -0.0230285 0)
(-0.0107019 -0.0385757 0)
(0.0162494 -0.0513671 0)
(0.0489396 -0.0352274 0)
(0.0299359 -0.00841452 0)
(0.0356633 -0.0279717 0)
(0.0451123 -0.0652354 0)
(0.0800787 -0.0704495 0)
(0.0826779 -0.049118 0)
(0.115614 -0.0315711 0)
(0.161072 0.0145923 0)
(0.135214 0.0963367 0)
(0.101328 0.084484 0)
(0.0714398 0.0550864 0)
(0.0691526 0.0761796 0)
(0.0628574 0.0904389 0)
(0.0488218 0.0900969 0)
(0.0382572 0.0881832 0)
(0.0306868 0.0877368 0)
(0.0229279 0.0877626 0)
(0.0165425 0.0872889 0)
(0.0114209 0.0864983 0)
(0.00729354 0.0863149 0)
(0.00315382 0.0863343 0)
(-0.00320597 0.0169661 0)
(-0.0199573 0.0139944 0)
(-0.0400752 0.0352644 0)
(-0.0202654 0.00398583 0)
(-0.0298409 -0.00326182 0)
(-0.029712 -0.0130123 0)
(-0.0245644 -0.0238152 0)
(-0.0128193 -0.0410098 0)
(0.0151182 -0.0565993 0)
(0.0469878 -0.0371729 0)
(0.0245239 -0.00430527 0)
(0.0335649 -0.0277731 0)
(0.0623472 -0.0701424 0)
(0.0466053 -0.0708632 0)
(0.0855134 -0.0637318 0)
(0.136114 -0.05464 0)
(0.206987 0.0061337 0)
(0.179351 0.113953 0)
(0.13539 0.0941373 0)
(0.106966 0.0704391 0)
(0.0602888 0.0754786 0)
(0.0579169 0.0941872 0)
(0.0508729 0.0978933 0)
(0.0389018 0.0953994 0)
(0.0276989 0.0938606 0)
(0.0204064 0.0931201 0)
(0.015383 0.0918427 0)
(0.0108256 0.0908908 0)
(0.00691836 0.0909677 0)
(0.00300503 0.0916746 0)
(-0.00321564 0.0178931 0)
(-0.0203863 0.014206 0)
(-0.0422193 0.039201 0)
(-0.0190397 0.00377111 0)
(-0.0304382 -0.00313257 0)
(-0.0307731 -0.0134018 0)
(-0.0262211 -0.0244733 0)
(-0.0152358 -0.0433824 0)
(0.0108831 -0.0616403 0)
(0.0253278 -0.0384715 0)
(0.0140193 -0.000867215 0)
(0.0280273 -0.0313344 0)
(0.0782663 -0.0690995 0)
(0.0279432 -0.0693809 0)
(0.0867089 -0.0855388 0)
(-0.0381687 -0.0697783 0)
(-0.297274 0.0169707 0)
(0.150263 0.143732 0)
(0.172463 0.0986384 0)
(0.126081 0.0870104 0)
(0.078136 0.0933418 0)
(0.0515817 0.0974656 0)
(0.0447229 0.102164 0)
(0.0372438 0.102839 0)
(0.0279168 0.100656 0)
(0.021331 0.0977699 0)
(0.0160431 0.096411 0)
(0.0107876 0.095881 0)
(0.00571571 0.095592 0)
(0.00190329 0.0961663 0)
(-0.00322232 0.018839 0)
(-0.0208077 0.0142485 0)
(-0.0445775 0.0435753 0)
(-0.0175829 0.00336258 0)
(-0.0310988 -0.00295276 0)
(-0.0318839 -0.0137596 0)
(-0.027983 -0.024984 0)
(-0.0180695 -0.0455439 0)
(-0.00323254 -0.0640715 0)
(-0.0270594 -0.0378901 0)
(-0.00251265 -0.00163255 0)
(0.0210363 -0.0445107 0)
(0.179224 -0.069911 0)
(0.280969 -0.074977 0)
(-0.274549 0.0345803 0)
(-0.92271 0.111757 0)
(0.428149 0.0171981 0)
(0.0851944 0.10971 0)
(0.0855795 0.106226 0)
(0.137467 0.0914614 0)
(0.111504 0.118646 0)
(0.0644816 0.112158 0)
(0.0392493 0.106682 0)
(0.031813 0.106517 0)
(0.0275882 0.105248 0)
(0.0228388 0.102931 0)
(0.015636 0.101834 0)
(0.00963676 0.101332 0)
(0.00502674 0.100502 0)
(0.00161699 0.100064 0)
(-0.00322553 0.0198076 0)
(-0.0212113 0.0140853 0)
(-0.0471645 0.0484507 0)
(-0.0158613 0.00270486 0)
(-0.0318375 -0.00271455 0)
(-0.0330418 -0.0140901 0)
(-0.029849 -0.0253261 0)
(-0.0216545 -0.047059 0)
(-0.0323801 -0.0603613 0)
(-0.0925869 -0.0351751 0)
(-0.0250777 -0.00916404 0)
(0.0675073 -0.0940229 0)
(0.928903 -0.139786 0)
(0.607978 0.0539518 0)
(-0.102431 0.187391 0)
(-0.432604 0.0265653 0)
(-0.206985 -0.307543 0)
(-0.086659 -0.130845 0)
(0.0227793 0.122544 0)
(0.105873 0.0867434 0)
(0.121351 0.129812 0)
(0.086656 0.136035 0)
(0.0496882 0.12025 0)
(0.0340548 0.110097 0)
(0.0264894 0.108484 0)
(0.0202377 0.108051 0)
(0.0143636 0.108135 0)
(0.00957997 0.107008 0)
(0.0049695 0.10521 0)
(0.00157968 0.103186 0)
(-0.00322492 0.0208035 0)
(-0.0215862 0.0136738 0)
(-0.0499909 0.0539036 0)
(-0.0138354 0.00172987 0)
(-0.0326732 -0.00240648 0)
(-0.0342417 -0.0143989 0)
(-0.0318186 -0.0254745 0)
(-0.0265307 -0.0471677 0)
(-0.0650207 -0.0505546 0)
(-0.133249 -0.0324467 0)
(-0.0979468 -0.0278033 0)
(0.308545 -0.386767 0)
(0.451063 -0.174498 0)
(0.755565 0.209617 0)
(0.478278 0.321334 0)
(0.317533 -0.0182856 0)
(-0.0710087 -0.315317 0)
(-0.575564 0.0524471 0)
(0.0165625 0.0416098 0)
(0.0301745 0.100432 0)
(0.0861069 0.114855 0)
(0.102044 0.158908 0)
(0.0628526 0.13757 0)
(0.0430349 0.120355 0)
(0.0266771 0.115611 0)
(0.0163651 0.114295 0)
(0.0100902 0.112346 0)
(0.00723352 0.110457 0)
(0.00493236 0.108819 0)
(0.00172985 0.107158 0)
(-0.00322032 0.0218327 0)
(-0.0219185 0.0129644 0)
(-0.053066 0.0600268 0)
(-0.0114565 0.000357088 0)
(-0.0336311 -0.00201624 0)
(-0.0354795 -0.0146959 0)
(-0.033894 -0.0253985 0)
(-0.0327591 -0.0454551 0)
(-0.0834001 -0.0391992 0)
(-0.110322 -0.0280539 0)
(0.43752 -0.172989 0)
(0.544535 -0.430415 0)
(0.488827 -0.16007 0)
(0.673824 0.260598 0)
(0.647043 0.289671 0)
(0.823858 0.0825488 0)
(-0.00951317 -0.0595094 0)
(-1.02851 -0.0850556 0)
(0.0873494 0.399248 0)
(0.0728663 0.105878 0)
(0.0170945 0.0707381 0)
(0.0947906 0.163705 0)
(0.069335 0.156152 0)
(0.0426558 0.134588 0)
(0.022453 0.125991 0)
(0.0128433 0.119442 0)
(0.00947049 0.115114 0)
(0.00684683 0.113165 0)
(0.00455072 0.11204 0)
(0.00195071 0.1101 0)
(-0.00321236 0.0229066 0)
(-0.0221929 0.0118989 0)
(-0.0564025 0.0669568 0)
(-0.00865331 -0.00155171 0)
(-0.0347433 -0.00152781 0)
(-0.0367507 -0.014998 0)
(-0.0360824 -0.0250641 0)
(-0.0397574 -0.0423017 0)
(-0.0856869 -0.0310235 0)
(-0.0794654 -0.0491675 0)
(1.03302 -0.238022 0)
(0.591107 -0.34443 0)
(0.412188 -0.10841 0)
(0.489049 0.240541 0)
(0.549341 0.15823 0)
(0.905324 0.172721 0)
(0.291131 0.13633 0)
(-0.468568 -0.0699032 0)
(0.495202 0.220636 0)
(-0.0187402 0.0697798 0)
(-0.0242009 0.0544853 0)
(0.0678254 0.15167 0)
(0.0695932 0.173915 0)
(0.0348646 0.149354 0)
(0.0164311 0.134429 0)
(0.00933418 0.122647 0)
(0.00796765 0.116226 0)
(0.0081036 0.114696 0)
(0.00685728 0.114773 0)
(0.00305442 0.115093 0)
(-0.00319017 0.0240714 0)
(-0.022391 0.0104095 0)
(-0.0601597 0.0751314 0)
(-0.00516637 -0.00430812 0)
(-0.036052 -0.000921512 0)
(-0.0380493 -0.0153297 0)
(-0.0384019 -0.0244346 0)
(-0.0477657 -0.0381886 0)
(-0.0913138 -0.0228005 0)
(0.318215 -0.244556 0)
(0.809257 -0.189613 0)
(0.333518 -0.28653 0)
(0.309942 -0.0435337 0)
(0.346283 0.142982 0)
(0.651411 0.13439 0)
(0.818359 0.22361 0)
(0.515273 0.358136 0)
(0.27016 -0.185985 0)
(-0.821566 0.0378114 0)
(0.0159746 0.105088 0)
(0.0397557 0.0646909 0)
(0.00911523 0.104506 0)
(0.0589047 0.181637 0)
(0.0398722 0.166568 0)
(0.0240038 0.143331 0)
(0.0180665 0.126447 0)
(0.0143923 0.117927 0)
(0.0102241 0.116623 0)
(0.0068629 0.117844 0)
(0.00331856 0.12015 0)
(-0.000952452 0.0255151 0)
(-0.0224957 0.00842696 0)
(-0.0657054 0.0862511 0)
(0.00106565 -0.00938768 0)
(-0.0376186 -0.000155027 0)
(-0.0393658 -0.0157206 0)
(-0.0408964 -0.0234578 0)
(-0.0584324 -0.0328138 0)
(-0.0743557 -0.0277032 0)
(0.43393 -0.547641 0)
(0.460615 -0.157767 0)
(0.145039 -0.23685 0)
(0.197905 -0.0247144 0)
(0.0929239 0.0571104 0)
(0.200012 0.158531 0)
(0.558409 0.175304 0)
(0.578092 0.465598 0)
(0.348299 -0.0426505 0)
(-0.244038 0.104411 0)
(0.0777663 0.0459381 0)
(-0.0264325 0.0504241 0)
(-0.0400185 0.0886344 0)
(0.029791 0.169997 0)
(0.0424337 0.173946 0)
(0.0371251 0.151775 0)
(0.0286386 0.130887 0)
(0.0212529 0.122912 0)
(0.0137716 0.12184 0)
(0.00828018 0.122377 0)
(0.00366965 0.126099 0)
(0.0714236 0.0264905 0)
(-0.0225114 0.00600126 0)
(-0.0181479 0.10235 0)
(-0.0272688 -0.0214575 0)
(-0.0395312 0.000794916 0)
(-0.0406953 -0.0162099 0)
(-0.0437204 -0.0220423 0)
(-0.0749711 -0.0245216 0)
(-0.123952 -0.0716895 0)
(-0.184128 -0.663086 0)
(0.29992 -0.105896 0)
(0.0811483 -0.192424 0)
(0.108335 -0.0371068 0)
(0.0212218 0.0459858 0)
(0.364752 0.145881 0)
(0.45912 0.0817515 0)
(0.380624 0.510561 0)
(0.331448 0.127486 0)
(-0.26435 -0.0334311 0)
(0.0410081 0.156695 0)
(-0.141441 -0.0390789 0)
(0.00309827 0.123756 0)
(0.00718796 0.151219 0)
(0.0299988 0.169464 0)
(0.0358006 0.153971 0)
(0.0322373 0.135945 0)
(0.0242839 0.130655 0)
(0.0145927 0.129287 0)
(0.00754988 0.129267 0)
(0.00295238 0.133379 0)
(1.20627e-05 -0.000372725 0)
(0.000739278 -0.000369289 0)
(0.00150896 -0.00036005 0)
(0.00228086 -0.000344529 0)
(0.00299592 -0.000321604 0)
(0.00357035 -0.000290911 0)
(0.00389207 -0.000250325 0)
(0.00381451 -0.000191073 0)
(0.00316764 -0.000113159 0)
(0.00174548 -2.069e-05 0)
(-0.000650671 8.11621e-05 0)
(-0.00413863 0.000194382 0)
(-0.00861564 0.000287595 0)
(-0.0136934 0.00033835 0)
(-0.0186546 0.000330337 0)
(-0.0226136 0.00026564 0)
(-0.0248551 0.000176863 0)
(-0.0251609 9.84448e-05 0)
(-0.0240844 5.75964e-05 0)
(-0.0225954 4.99434e-05 0)
(-0.0208718 2.52727e-05 0)
(-0.0178469 -3.71629e-05 0)
(-0.0127529 -9.18177e-05 0)
(-0.00643652 -0.000110296 0)
(-0.000387196 -0.000100526 0)
(0.00456693 -8.09247e-05 0)
(0.00795155 -5.53664e-05 0)
(0.00916673 -2.01001e-05 0)
(0.00776394 1.80945e-05 0)
(0.00417267 4.71105e-05 0)
(-0.000685679 0.000723596 0)
(-0.00333396 0.000757546 0)
(-0.00628766 0.000843977 0)
(-0.00959521 0.00098987 0)
(-0.0133128 0.0011965 0)
(-0.0174967 0.00146012 0)
(-0.0222044 0.001774 0)
(-0.0274847 0.00212427 0)
(-0.0333703 0.0024908 0)
(-0.0398328 0.00283167 0)
(-0.0467384 0.00307816 0)
(-0.0537855 0.00314954 0)
(-0.0604527 0.00295123 0)
(-0.0659899 0.00242365 0)
(-0.0694823 0.00159575 0)
(-0.0700617 0.000585516 0)
(-0.0672794 -0.000352586 0)
(-0.0613193 -0.00100333 0)
(-0.0532804 -0.00121634 0)
(-0.0445668 -0.00114025 0)
(-0.0353654 -0.00119478 0)
(-0.0244264 -0.00148892 0)
(-0.0112616 -0.00165423 0)
(0.00221807 -0.00146193 0)
(0.0133136 -0.00105904 0)
(0.0206327 -0.000628121 0)
(0.0237348 -0.000225503 0)
(0.0223458 0.000160098 0)
(0.0167993 0.000441392 0)
(0.00837912 0.000647892 0)
(-0.00100177 0.00534646 0)
(-0.00507017 0.00536367 0)
(-0.00953379 0.00540696 0)
(-0.0143747 0.00547841 0)
(-0.0195639 0.00557773 0)
(-0.0250608 0.00570444 0)
(-0.030828 0.00585824 0)
(-0.0368265 0.00602977 0)
(-0.0430152 0.00618824 0)
(-0.0493209 0.00627048 0)
(-0.055615 0.00618089 0)
(-0.0616671 0.00580073 0)
(-0.067089 0.00500552 0)
(-0.0712679 0.0037092 0)
(-0.0734217 0.00198297 0)
(-0.0727748 3.56533e-05 0)
(-0.0689444 -0.00166233 0)
(-0.0620905 -0.0028007 0)
(-0.0533052 -0.00311181 0)
(-0.0439592 -0.00290041 0)
(-0.0341314 -0.00295302 0)
(-0.0224869 -0.00343389 0)
(-0.0085878 -0.00361616 0)
(0.00548132 -0.00306706 0)
(0.0167911 -0.00210629 0)
(0.0238677 -0.00112983 0)
(0.0263685 -0.000269831 0)
(0.0242134 0.000496951 0)
(0.0179158 0.00101308 0)
(0.00885563 0.00139069 0)
(-0.000969932 0.0104978 0)
(-0.0049076 0.0104776 0)
(-0.0092241 0.0104262 0)
(-0.0139015 0.010344 0)
(-0.0189162 0.0102378 0)
(-0.0242416 0.0101231 0)
(-0.0298615 0.0100165 0)
(-0.0357599 0.009919 0)
(-0.0419158 0.00979772 0)
(-0.0482726 0.00957585 0)
(-0.0547116 0.00913436 0)
(-0.0609994 0.00831697 0)
(-0.0667194 0.00695068 0)
(-0.0711903 0.00490728 0)
(-0.0735424 0.00229784 0)
(-0.0729417 -0.000589084 0)
(-0.069017 -0.0030346 0)
(-0.0619426 -0.00464726 0)
(-0.0529508 -0.00503315 0)
(-0.0435704 -0.00466141 0)
(-0.0338338 -0.00471128 0)
(-0.0221864 -0.00539874 0)
(-0.00813843 -0.00560333 0)
(0.00606922 -0.00468496 0)
(0.0173983 -0.00314493 0)
(0.0243972 -0.00160799 0)
(0.0267742 -0.000286105 0)
(0.0244829 0.000859544 0)
(0.0180581 0.00160387 0)
(0.00892782 0.00214891 0)
(-0.000897521 0.0152729 0)
(-0.00452872 0.0152288 0)
(-0.00853334 0.0151156 0)
(-0.012924 0.0149317 0)
(-0.0177135 0.014693 0)
(-0.0229116 0.0144231 0)
(-0.0285278 0.0141453 0)
(-0.0345536 0.0138587 0)
(-0.0409544 0.0135202 0)
(-0.047645 0.0130357 0)
(-0.054471 0.0122615 0)
(-0.0611631 0.0110056 0)
(-0.0672663 0.00904242 0)
(-0.0720304 0.00619712 0)
(-0.0745022 0.00264499 0)
(-0.0738149 -0.00125612 0)
(-0.0696448 -0.00445178 0)
(-0.062189 -0.00654645 0)
(-0.0528898 -0.00698076 0)
(-0.0434854 -0.00640867 0)
(-0.0339046 -0.00645212 0)
(-0.0222734 -0.00737748 0)
(-0.00805058 -0.00761434 0)
(0.00630198 -0.00631341 0)
(0.0176518 -0.00418176 0)
(0.0246103 -0.00208005 0)
(0.0269384 -0.000296688 0)
(0.024593 0.00122861 0)
(0.0181069 0.00219911 0)
(0.00896954 0.00291099 0)
(-0.000858773 0.0197451 0)
(-0.00433489 0.0196942 0)
(-0.00819533 0.0195628 0)
(-0.0124728 0.0193441 0)
(-0.0171981 0.0190579 0)
(-0.022402 0.0187213 0)
(-0.0281022 0.0183491 0)
(-0.034282 0.0179283 0)
(-0.0408899 0.0174015 0)
(-0.0478228 0.0166619 0)
(-0.0549163 0.0155493 0)
(-0.0618999 0.013842 0)
(-0.0683104 0.0112571 0)
(-0.0733206 0.00754887 0)
(-0.075848 0.00299333 0)
(-0.0749944 -0.00200998 0)
(-0.0704761 -0.00593319 0)
(-0.0625023 -0.00851434 0)
(-0.0527997 -0.00895803 0)
(-0.0433817 -0.00813376 0)
(-0.0340225 -0.00816682 0)
(-0.022414 -0.00937318 0)
(-0.00796409 -0.00965334 0)
(0.00656406 -0.00795271 0)
(0.0179299 -0.00521579 0)
(0.024836 -0.00254662 0)
(0.0271109 -0.000303572 0)
(0.0247089 0.00160294 0)
(0.0181547 0.00279785 0)
(0.00901825 0.00367671 0)
(-0.000847711 0.0241221 0)
(-0.00428801 0.0240666 0)
(-0.00813588 0.023933 0)
(-0.012422 0.0237195 0)
(-0.0171664 0.0234308 0)
(-0.0224194 0.0230674 0)
(-0.0282017 0.0226309 0)
(-0.0344907 0.022095 0)
(-0.0412381 0.0213901 0)
(-0.0483435 0.0204003 0)
(-0.0556533 0.0189567 0)
(-0.0629155 0.0168075 0)
(-0.0696671 0.0135963 0)
(-0.0749679 0.00895868 0)
(-0.0775344 0.00333612 0)
(-0.0764653 -0.00289167 0)
(-0.0714972 -0.00748422 0)
(-0.0628558 -0.0105617 0)
(-0.0526441 -0.0109658 0)
(-0.0432336 -0.00982833 0)
(-0.0341759 -0.00984641 0)
(-0.0225931 -0.0113909 0)
(-0.00785213 -0.0117281 0)
(0.00689222 -0.00960462 0)
(0.0182721 -0.00624544 0)
(0.0251103 -0.0030061 0)
(0.0273192 -0.000306011 0)
(0.0248479 0.00198362 0)
(0.0182103 0.0034006 0)
(0.00907737 0.00444674 0)
(-0.000867966 0.0284975 0)
(-0.00438157 0.0284505 0)
(-0.00825666 0.0283259 0)
(-0.0125563 0.0281322 0)
(-0.0173442 0.0278483 0)
(-0.0226668 0.0274653 0)
(-0.028523 0.0269749 0)
(-0.0349072 0.0263329 0)
(-0.0417774 0.0254621 0)
(-0.0490484 0.0242353 0)
(-0.0565816 0.0224824 0)
(-0.0641572 0.0199183 0)
(-0.0713275 0.0160898 0)
(-0.077 0.0104325 0)
(-0.0795792 0.00367329 0)
(-0.078254 -0.00395515 0)
(-0.0727104 -0.00909914 0)
(-0.0632315 -0.0126985 0)
(-0.052394 -0.0130022 0)
(-0.0430277 -0.0114834 0)
(-0.0343735 -0.0114808 0)
(-0.0228175 -0.0134372 0)
(-0.00771136 -0.0138464 0)
(0.00729149 -0.0112715 0)
(0.0186823 -0.00726913 0)
(0.0254362 -0.00345674 0)
(0.0275651 -0.000303105 0)
(0.0250117 0.00237203 0)
(0.0182738 0.00400802 0)
(0.00914793 0.00522191 0)
(-0.000862931 0.0329221 0)
(-0.00439625 0.0328904 0)
(-0.00834897 0.0328053 0)
(-0.0127362 0.0326079 0)
(-0.0176097 0.032315 0)
(-0.0230138 0.0319179 0)
(-0.0289425 0.0313825 0)
(-0.0354417 0.0306408 0)
(-0.0424415 0.0296194 0)
(-0.0498972 0.028174 0)
(-0.0576751 0.026139 0)
(-0.0656085 0.0232027 0)
(-0.073302 0.0187848 0)
(-0.0794657 0.0119774 0)
(-0.0819996 0.00400903 0)
(-0.0804018 -0.00527857 0)
(-0.0741057 -0.0107655 0)
(-0.0636042 -0.0149427 0)
(-0.0520108 -0.0150621 0)
(-0.0427472 -0.0130897 0)
(-0.0346274 -0.0130573 0)
(-0.0230965 -0.0155205 0)
(-0.00754016 -0.0160176 0)