/*--------------------------------*- C++ -*----------------------------------*\
| =========                 |                                                 |
| \\      /  F ield         | OpenFOAM: The Open Source CFD Toolbox           |
|  \\    /   O peration     | Version:  2.4.0                                 |
|   \\  /    A nd           | Web:      www.OpenFOAM.org                      |
|    \\/     M anipulation  |                                                 |
\*---------------------------------------------------------------------------*/
FoamFile
{
    version     2.0;
    format      ascii;
    class       volScalarField;
    location    "0.082";
    object      p;
}
// * * * * * * * * * * * * * * * * * * * * * * * * * * * * * * * * * * * * * //

dimensions      [1 -1 -2 0 0 0 0];

internalField   nonuniform List<scalar> 
14400
(
95.7072
97.0729
97.1297
99.8849
101.797
101.458
99.2932
95.9045
91.9782
88.2833
85.3089
83.166
81.742
80.9314
80.696
81.0058
81.7727
82.8583
84.1076
85.383
86.5838
87.653
88.5537
89.2887
89.8671
90.3067
90.626
90.846
90.9857
91.0623
92.4529
93.8136
93.8523
96.6239
98.5478
98.2095
96.0411
92.6467
88.7107
85.0078
82.0288
79.8834
78.4566
77.6422
77.4043
77.7136
78.4855
79.581
80.8427
82.1309
83.3429
84.4182
85.3266
86.0661
86.6473
87.088
87.4088
87.6299
87.7703
87.8472
89.1992
90.5495
90.5456
93.3611
95.3159
94.9814
92.8071
89.4005
85.4404
81.7169
78.7253
76.5738
75.1403
74.3156
74.0657
74.3683
75.1428
76.2516
77.5348
78.8484
80.0855
81.1815
82.1073
82.86
83.451
83.8988
84.2245
84.4489
84.5915
84.6695
85.946
87.2809
87.2092
90.0964
92.1021
91.7745
89.5914
86.1655
82.1659
78.4084
75.3961
73.2349
71.7914
70.9514
70.6837
70.9753
71.7523
72.8787
74.1916
75.5409
76.8132
77.9396
78.8894
79.6598
80.2631
80.7191
81.0502
81.278
81.4226
81.5017
82.6936
84.0081
83.842
86.8302
88.9066
88.5891
86.3943
82.9427
78.8871
75.0822
72.0414
69.8667
68.41
67.5494
67.2569
67.5326
68.3112
69.4596
70.8107
72.207
73.5261
74.6927
75.6742
76.4676
77.0866
77.5527
77.89
78.1215
78.2682
78.3485
79.4418
80.7311
80.4422
83.5625
85.7295
85.4255
83.216
79.7332
75.604
71.7377
68.6607
66.4693
64.9963
64.1091
63.7834
64.0365
64.815
65.9889
67.3869
68.8424
70.2209
71.439
72.4609
73.284
73.9237
74.4034
74.7493
74.986
75.1358
75.2177
76.1908
77.4504
77.0077
80.2939
82.5713
82.2839
80.0567
76.5395
72.317
68.3743
65.2539
63.0427
61.5506
60.6302
60.2611
60.4832
61.2586
62.4612
63.9151
65.4434
66.8957
68.1775
69.2494
70.1095
70.7754
71.2731
71.6307
71.8749
72.0291
72.1134
72.9407
74.1665
73.5357
77.0249
79.4323
79.1645
76.9168
73.3411
69.0267
64.9914
61.8208
59.5869
58.0734
57.112
56.6873
56.8676
57.6359
58.8692
60.3887
62.0061
63.549
64.9084
66.0408
66.9455
67.6433
68.1633
68.5359
68.7899
68.9501
69.0377
69.6914
70.8799
70.0227
73.756
76.313
76.0677
73.7965
70.1524
65.7327
61.5877
58.3612
56.1017
54.5651
53.5535
53.0582
53.1825
53.9389
55.2037
56.7992
58.5254
60.1792
61.632
62.8363
63.7938
64.5294
65.0758
65.4667
65.7325
65.9001
65.9916
66.443
67.5914
66.4644
70.4883
73.2142
72.9938
70.6965
66.9765
62.4343
58.1619
54.8749
52.587
51.0264
49.9529
49.3683
49.4186
50.1582
51.4525
53.136
54.9956
56.7849
58.3495
59.638
60.6567
61.4359
62.0128
62.4248
62.7046
62.8807
62.9767
63.1954
64.3023
62.856
67.2229
70.1368
69.9433
67.6174
63.8149
59.1311
54.7121
51.3619
49.042
47.4573
46.3073
45.6105
45.5629
46.2826
47.6
49.3852
51.4106
53.3656
55.0627
56.4485
57.5369
58.3655
58.977
59.4126
59.7081
59.8939
59.9951
59.9489
61.0135
59.1913
63.9614
67.0817
66.9164
64.5595
60.6681
55.8221
51.236
47.8224
45.4648
43.8564
42.6132
41.7753
41.5963
42.2978
43.6246
45.529
47.7639
49.9212
51.774
53.2706
54.4372
55.3207
55.9705
56.4323
56.7451
56.9419
57.0495
56.7032
57.7269
55.4632
60.7061
64.05
63.9137
61.5235
57.5371
52.5069
47.7301
44.2569
41.8523
40.2206
38.8688
37.8546
37.4954
38.1832
39.4964
41.5446
44.0509
46.4542
48.4878
50.1087
51.3612
52.305
52.9964
53.4871
53.8193
54.0277
54.1408
53.4584
54.4442
51.6634
57.4598
61.0432
60.9356
58.51
54.4229
49.1843
44.19
40.6668
38.1987
36.5434
35.0751
33.8522
33.2416
33.9016
35.1706
37.4037
40.2702
42.9688
45.2101
46.9677
48.3121
49.3211
50.0581
50.5802
50.9333
51.1546
51.2748
50.2143
51.1676
47.7817
54.2258
58.0625
57.9824
55.5196
51.3264
45.8529
40.6093
37.0542
34.4947
32.8155
31.24
29.7957
28.8546
29.3759
30.5764
33.0745
36.426
39.4715
41.946
43.8476
45.2918
46.3706
47.1573
47.7134
48.0888
48.3251
48.4549
46.9708
47.8998
43.8061
51.0088
55.1096
55.0545
52.5526
48.2489
42.5112
36.9788
33.4234
30.7263
29.024
27.3784
25.7201
24.3371
24.5015
25.622
28.5327
32.5298
35.9776
38.6985
40.7459
42.3043
43.4613
44.3014
44.8939
45.2941
45.5454
45.6825
43.7276
44.6439
39.7224
47.8143
52.186
52.1523
49.6097
45.192
39.1574
33.2858
29.7807
26.8776
25.14
23.4718
21.6241
19.5175
19.2508
20.253
23.7809
28.5733
32.4899
35.478
37.6906
39.3658
40.5922
41.4869
42.1225
42.5525
42.8203
42.9635
40.4845
41.4033
35.5133
44.6488
49.2936
49.276
46.6911
42.1572
35.7888
29.5113
26.1354
22.9376
21.1292
19.5205
17.3517
14.3239
13.5718
14.3154
18.806
24.5112
28.9851
32.2718
34.6485
36.4472
37.7624
38.7279
39.4097
39.8683
40.1562
40.3122
37.2409
38.1819
31.1585
41.5208
46.4341
46.4259
43.7972
39.1463
32.4036
25.6282
22.5002
18.897
16.9864
15.59
12.7692
9.10554
7.65946
7.53721
13.6265
20.5716
25.4567
29.0523
31.6314
33.5673
34.9886
36.0296
36.757
37.2473
37.5593
37.7336
33.9964
34.9841
26.6335
38.4404
43.6095
43.6023
40.9288
36.1611
29.0005
21.5988
18.8922
14.7436
12.7178
11.5252
8.3667
4.21799
1.33244
-0.74423
8.35788
17.1468
22.163
25.8143
28.6533
30.7558
32.2767
33.3878
34.1739
34.7077
35.0423
35.2272
30.7502
31.8147
21.9092
35.4199
40.8215
40.8052
38.0867
33.2031
25.5805
17.3832
15.3345
10.4577
8.2827
7.55057
3.96823
-1.39634
-7.8463
-12.759
3.31642
13.6642
19.1072
22.7157
25.709
27.9612
29.6201
30.8278
31.6875
32.2656
32.62
32.8101
27.5012
28.6789
16.9514
32.4746
38.0716
38.0347
35.2727
30.2738
22.1456
13.0147
11.8744
6.00807
3.84897
4.04759
-0.684659
-1.25603
-7.1556
-28.5614
-1.07381
9.55372
15.5985
19.6777
22.8577
25.2379
27.0475
28.3668
29.3025
29.9242
30.3051
30.5067
24.2483
25.5828
11.7196
29.6237
35.3614
35.2912
32.489
27.3735
18.7163
8.79288
8.62176
1.37914
-0.715848
-0.0919479
0.430647
0.690767
0.0196446
-26.3512
-3.87689
5.61151
11.4525
16.3912
20.0577
22.6503
24.6011
26.0096
27.0144
27.6906
28.1127
28.3369
20.99
22.5327
6.16626
26.8908
32.691
32.5747
29.7379
24.4992
15.3608
5.09756
5.75354
-3.88694
0.041222
0.1638
0.40688
0.435721
-0.440815
-0.628749
-2.64348
2.90859
6.98181
12.6479
17.2276
20.2041
22.2919
23.7714
24.8405
25.5878
26.0688
26.33
17.7244
19.5367
0.23667
24.3063
30.0601
29.8855
27.022
21.6428
12.1251
1.7307
2.94766
-0.435614
-0.0268668
0.137107
0.351341
0.282042
-0.218504
-0.154452
-25.2205
-0.550596
3.42419
8.59383
14.3138
17.7763
20.0261
21.6321
22.825
23.6739
24.2156
24.5069
14.4492
16.6032
-6.13237
21.9086
27.4677
27.224
24.3438
18.7913
8.92663
-1.66992
-4.92463
-0.209106
-0.0626402
0.120737
0.274202
0.172885
-0.152333
0.40135
-5.2828
-3.58957
0.607288
4.83512
11.1994
15.2172
17.7584
19.6253
21.0177
21.9636
22.5663
22.9025
11.1621
13.7414
-13.0138
19.747
24.9119
24.5904
21.7058
15.9353
5.72811
-5.57127
-0.0322053
-0.140877
-0.0915646
0.154939
0.17795
0.0782114
-0.144017
0.0149559
-0.969627
-7.80173
-1.60327
2.32272
8.16227
12.7478
15.6585
17.8509
19.4706
20.5153
21.1541
21.5002
7.86032
10.9617
-20.4951
17.8863
22.3906
21.9849
19.1105
13.066
2.67701
-14.1033
-0.0037642
-0.109139
-0.0767321
0.000481337
0.0778467
-0.0370525
-0.137682
-0.129176
-0.56095
-2.31841
-5.04029
0.340581
6.07501
10.9153
14.0182
16.4858
18.2269
19.3239
19.9601
20.2917
4.54062
8.27734
-28.749
16.4392
19.9003
19.408
16.5598
10.1632
-0.604377
-0.135904
-0.0447784
-0.0945371
-0.061244
-0.0207311
-0.119333
-0.129998
-0.136192
-0.178863
-0.284001
-0.166174
-2.80259
-3.25003
4.50408
9.5221
12.6762
15.4268
17.2516
18.3797
18.9754
19.2557
1.17965
5.70681
-38.0208
15.6895
17.436
16.8599
14.054
7.18201
-4.40213
-0.337158
-0.0280186
-0.0890414
-0.0702027
-0.0385616
-0.0850424
0.160453
-0.132279
-0.154837
-0.160966
-0.35655
-11.6132
-9.01925
2.97751
7.89659
11.7253
14.6733
16.5602
17.6676
18.1369
18.3518
91.0906
91.0771
91.0118
90.8788
90.66
90.335
89.8825
89.2839
88.5216
87.5871
86.4934
85.278
84.0157
82.8226
81.8479
81.2512
81.1592
81.6491
82.7624
84.5954
87.3112
90.9643
95.2183
99.4292
102.928
105.341
106.434
106.078
104.583
102.888
87.8757
87.8622
87.7965
87.6629
87.4431
87.1171
86.6634
86.0612
85.2938
84.3532
83.2497
82.0223
80.7468
79.5416
78.5583
77.9582
77.8672
78.3599
79.4763
81.3116
84.0307
87.6912
91.9534
96.1723
99.6739
102.088
103.182
102.824
101.326
99.6265
84.6984
84.6846
84.6178
84.4821
84.2588
83.9275
83.4661
82.8533
82.0714
81.1122
79.9858
78.7328
77.4327
76.2083
75.2148
74.6147
74.5312
75.0343
76.1586
77.9992
80.7269
84.4072
88.6904
92.9281
96.4352
98.8492
99.9411
99.5771
98.0674
96.3585
81.5311
81.5171
81.4496
81.312
81.0853
80.7483
80.2778
79.6514
78.8498
77.8643
76.7055
75.4165
74.0823
72.8316
71.8241
71.2259
71.1524
71.6708
72.8068
74.6559
77.3976
81.1101
85.4311
89.6963
93.212
95.6253
96.7125
96.3364
94.8087
93.0835
78.3784
78.3645
78.2964
78.1571
77.9268
77.5831
77.1013
76.4571
75.6299
74.6097
73.4082
72.0718
70.693
69.4085
68.3837
67.7891
67.7296
68.269
69.4208
71.2817
74.0425
77.7999
82.1751
86.4774
90.0047
92.4163
93.4963
93.1026
91.5494
89.8015
75.2483
75.2344
75.1652
75.0232
74.7877
74.4347
73.9378
73.2706
72.4104
71.3462
70.0902
68.694
67.2597
65.9344
64.8892
64.302
64.2612
64.8282
66.0001
67.8766
70.661
74.476
78.922
83.2715
86.8132
89.2222
90.2923
89.8756
88.2894
86.5124
72.145
72.1308
72.0598
71.9136
71.6704
71.3047
70.7882
70.0921
69.191
68.0723
66.7489
65.2789
63.7772
62.4041
61.336
60.7623
60.7452
61.3474
62.544
64.4407
67.2523
71.1383
75.6719
80.0794
83.6379
86.0429
87.1007
86.6554
85.0287
83.2161
69.0705
69.0557
68.9819
68.8298
68.5766
68.1949
67.6541
66.9227
65.9722
64.7874
63.3817
61.8211
60.2386
58.8113
57.7177
57.167
57.1796
57.8253
59.0516
60.9744
63.8157
67.7862
72.4252
76.9016
80.479
82.8787
83.9217
83.4422
81.7673
79.9125
66.0258
66.0104
65.933
65.7737
65.508
65.1069
64.5373
63.7641
62.7551
61.4911
59.9856
58.3142
56.6353
55.1478
54.026
53.5125
53.5618
54.2606
55.5213
57.4783
60.3498
64.4191
69.1821
73.7388
77.3365
79.7294
80.7551
80.2358
78.505
76.6013
63.0125
62.9962
62.9148
62.747
62.4668
62.0432
61.4402
60.6187
59.5413
58.1836
56.5573
54.75
52.9557
51.4034
50.2506
49.7952
49.8901
50.6522
51.9513
53.9537
56.8532
61.0365
65.9431
70.5918
74.2108
76.5951
77.6013
77.0364
75.2417
73.2825
60.0328
60.0155
59.9294
59.752
59.4555
59.0066
58.3656
57.4891
56.3331
54.8654
53.0939
51.1184
49.1849
47.5651
46.3784
46.0114
46.163
46.9997
48.339
50.4026
53.3242
57.6374
62.7089
67.4616
71.1022
73.4759
74.4602
73.8441
71.9773
69.9559
57.0894
57.0706
56.9789
56.7909
56.4765
55.9995
55.3164
54.3782
53.1335
51.5384
49.5929
47.4074
45.303
43.6151
42.3962
42.1553
42.3786
43.3037
44.6813
46.8284
49.7601
54.2208
59.4799
64.3495
68.0108
70.3716
71.3321
70.6589
68.7118
66.6212
54.1828
54.1635
54.067
53.8672
53.5328
53.025
52.2963
51.2902
49.9468
48.2055
46.0535
43.6036
41.2825
39.5276
38.2891
38.2148
38.534
39.5655
40.9748
43.2358
46.1578
50.7854
56.2571
61.2566
64.9369
67.2823
68.217
67.4808
65.4449
63.2781
51.3194
51.2988
51.1962
50.9839
50.6281
50.0872
49.3085
48.2296
46.779
44.8723
42.4776
39.6952
37.0842
35.2608
34.0358
34.1651
34.625
35.7874
37.2154
39.6319
42.5131
47.3299
53.0414
58.1845
61.8809
64.2081
65.1153
64.3101
62.1766
59.9265
48.503
48.4796
48.3688
48.143
47.7646
47.1875
46.3549
45.1975
43.6336
41.5461
38.8706
35.6766
32.6496
30.737
29.5875
29.9807
30.6437
31.9723
33.3981
36.0267
38.8196
43.8523
49.8336
55.1349
58.8428
61.1488
62.027
61.1466
58.9066
56.566
45.7335
45.7096
45.5928
45.3525
44.9493
44.3339
43.443
42.1946
40.5067
38.2368
35.2434
31.5512
27.9032
25.8564
24.8829
25.6198
26.5787
28.1108
29.5166
32.4345
35.0686
40.3508
46.6349
52.1097
55.8228
58.1043
58.9524
57.9907
55.6347
53.1963
43.0171
42.9942
42.8723
42.6145
42.1813
41.5243
40.5809
39.2497
37.4219
34.9551
31.5993
27.3185
22.7941
20.6088
19.8303
21.0306
22.4368
24.186
25.5564
28.87
31.247
36.8229
43.4464
49.1111
52.8211
55.0746
55.8917
54.8425
52.3609
49.8171
40.3701
40.344
40.211
39.9362
39.474
38.7659
37.7481
36.327
34.3621
31.6898
27.8972
22.9474
17.2636
14.892
14.3796
16.1726
18.2802
20.2432
21.4965
25.3466
27.3354
33.2657
40.2694
46.1414
49.8375
52.0594
52.8452
51.702
49.0847
46.428
37.7979
37.7644
37.6158
37.3204
36.8298
36.0737
34.9746
33.4471
31.3172
28.4128
24.2281
18.6265
11.1765
8.52058
8.77725
11.0665
14.1271
16.3243
17.3095
21.8805
23.3049
29.6754
37.1051
43.2031
46.872
49.0586
49.8133
48.5695
45.8061
43.0287
35.2955
35.2608
35.1034
34.7833
34.2479
33.4392
32.2697
30.6373
28.3018
25.2137
21.0811
14.5255
4.32104
1.0998
3.02935
6.20511
9.93917
12.35
12.9175
18.4961
19.1128
26.0457
33.954
40.2991
43.9241
46.072
46.7965
45.4452
42.5248
39.6188
32.8807
32.8488
32.6871
32.3448
31.7577
30.8772
29.6055
27.8498
25.3825
22.2547
18.0622
10.5292
-3.34585
-10.8487
-4.64632
1.04512
5.97524
8.31071
8.37909
15.23
14.7086
22.3699
30.8163
37.4322
40.9929
43.0993
43.7949
42.3292
39.2403
36.1978
30.5815
30.5481
30.3739
30.0039
29.3717
28.4093
27.023
25.1406
22.5819
19.1893
14.3559
6.57012
-11.0787
-26.9679
-2.6444
-2.97062
2.52469
4.53408
3.82468
12.1297
10.1027
18.662
27.7049
34.6055
38.0774
40.14
40.8092
39.2217
35.9525
32.7654
28.4174
28.3742
28.1735
27.7612
27.0788
26.0474
24.5761
22.5302
19.6852
15.4013
10.3868
3.24891
-14.6903
-1.09876
0.246557
0.154507
0.0391997
0.166542
-0.913583
9.17496
5.48896
15.0145
24.6334
31.8221
35.1759
37.194
37.84
36.1231
32.6611
29.3212
26.4189
26.3564
26.1092
25.6346
24.8914
23.7998
22.2738
20.002
16.5325
10.9378
7.03098
0.127245
-30.2383
-0.192462
0.152132
0.149712
0.0433586
-0.0764726
-0.446392
6.18435
0.99582
11.5593
21.5984
29.0851
32.2861
34.2607
34.8877
33.0334
29.3656
25.8648
24.6016
24.5237
24.2344
23.6827
22.82
21.6139
19.9615
17.4234
13.0999
6.55673
4.43423
1.11233
-3.58229
-0.120407
0.0903875
0.131093
0.0206755
-0.0900465
0.0743699
-1.76795
-3.74677
8.21278
18.6097
26.398
29.4046
31.3399
31.9531
29.953
26.0658
22.3959
23.0074
22.8972
22.5553
21.9311
20.9251
19.4871
17.5446
14.6377
9.45245
4.12953
1.13054
5.81973
-1.53424
0.0249153
0.0511953
0.0828126
-0.0186832
-0.0902061
0.0448775
0.0423031
-9.76649
4.7158
15.6793
23.7634
26.5276
28.4316
29.0365
26.8821
22.761
18.9141
21.6079
21.495
21.1316
20.4413
19.2693
17.5479
15.2388
11.9177
6.42914
1.75403
-5.19958
-1.13726
-0.755897
0.0274193
0.0198769
0.00591233
-0.103177
-0.111504
0.00851288
0.00336578
-9.35482
0.96223
12.8097
21.1832
23.65
25.536
26.1384
23.8208
19.4509
15.4191
20.3915
20.2902
19.9294
19.225
17.9644
16.0206
13.4332
9.74464
4.70074
2.09223
-17.2052
0.692479
-0.0663695
0.033726
-0.00331009
-0.0247982
-0.136338
-0.113207
-0.0104997
-0.00559142
-0.464443
-4.70865
9.99074
18.6585
20.7662
22.654
23.259
20.7691
16.1347
11.9107
19.3486
19.2744
18.9716
18.2642
16.94
14.8098
12.4865
8.05812
2.93387
4.24381
-1.30108
0.670464
0.102187
0.0127153
-0.0239994
-0.0940077
-0.15233
-0.1108
-0.000169406
-0.0210966
-0.267122
-2.44238
7.2239
16.1874
17.8697
19.7875
20.3986
17.727
12.8122
8.38861
18.4425
18.3901
18.216
17.5841
16.2046
13.9052
10.5311
6.04883
0.871311
6.79363
-0.72547
0.499734
0.111128
0.0211686
-0.0231689
-0.1628
-0.209298
-0.112219
0.00450521
-0.0447178
-0.212608
-8.55825
4.48888
13.7602
14.9525
16.9399
17.5568
14.6941
9.48265
4.84896
-0.778705
3.56045
92.8586
16.3583
15.2953
14.6529
11.8937
4.41368
-8.0796
-0.049231
-0.00476616
-0.0520446
-0.0637156
-0.0529191
-0.0958207
-0.113167
-0.130797
-0.137732
-0.101894
-0.238624
-3.09739
-19.9842
0.420641
7.33787
11.2175
14.1339
16.1992
17.2132
17.5498
17.8157
-0.701097
2.35358
75.4506
14.3408
14.0383
13.3648
10.6337
2.70115
-0.467559
-0.0410822
-0.0125833
-0.0399327
-0.0654212
-0.0609344
-0.100551
-0.122457
-0.120959
-0.132884
-0.0857336
-0.315475
1.30775
-39.9842
-0.869689
7.40739
11.1351
14.0431
15.8905
16.8525
17.4015
17.7373
-0.149051
1.09892
29.7306
15.2572
12.6785
11.9758
9.25241
-9.30969
0.0926329
-0.0290986
-0.0229895
-0.0366745
-0.0676379
-0.0693465
-0.107836
-0.127379
-0.130997
-0.132241
-0.0928002
-0.47541
0.487322
-7.6863
0.334466
7.59096
11.1008
13.9601
15.6805
16.6304
17.3158
17.7103
-0.108904
-1.02167
15.8525
-3.04692
11.2129
10.4767
7.73101
-9.97438
0.0701179
-0.0255746
-0.0303895
-0.0534903
-0.0717014
-0.0779669
-0.11513
-0.131138
-0.131124
-0.135299
-0.135492
-0.354255
0.0996315
-0.822518
5.79707
8.08965
11.3077
14.0094
15.716
16.6589
17.3049
17.686
-0.110531
-0.844027
8.96112
0.383448
9.65004
8.83449
5.24968
-0.00307761
0.0302477
-0.0277016
-0.0393836
-0.0494124
-0.0762583
-0.0868975
-0.122336
-0.132924
-0.132311
-0.143334
-0.257589
-0.0309704
0.068009
0.213798
-18.7203
8.07542
11.5966
14.3516
15.9191
16.8384
17.4501
17.7621
-0.112422
-0.113313
0.974421
-2.79575
7.94126
6.99549
0.38289
-0.115856
0.00441259
-0.0336613
-0.0469766
-0.0604449
-0.0617889
-0.096508
-0.127858
-0.137537
-0.13404
-0.149566
-0.236129
-0.462835
-0.00339908
-0.0977073
-2.79768
3.70903
12.2739
14.9914
16.3597
17.1436
17.6836
17.877
-0.108661
-0.127423
0.0147412
-2.73289
6.0354
4.55028
-0.695982
-0.0994042
-0.0195438
-0.0418058
-0.0569482
-0.0496539
-0.119456
-0.107306
-0.133557
-0.139584
-0.135045
-0.151502
-0.214581
-0.338918
-0.0965893
-0.115199
-0.38307
-26.1374
13.2676
16.0946
17.2012
17.5577
17.8921
17.8906
-0.129717
-0.133949
0.0072
-0.268322
3.61689
1.53849
-0.212621
-0.117289
-0.039962
-0.0509795
-0.0635591
-0.0537684
-0.121853
-0.116933
-0.137142
-0.138752
-0.136135
-0.151891
-0.195577
-0.267334
-0.160932
-0.161177
-0.21399
-1.56322
12.6492
17.9175
18.4315
18.0957
18.1246
18.0766
-0.13375
-0.138586
-0.00326822
-0.142033
-0.0499315
-0.0632505
-0.19666
-0.126157
-0.0571719
-0.0606474
-0.07427
-0.0563025
-0.12356
-0.131459
-0.138303
-0.138773
-0.136023
-0.151288
-0.18127
-0.22551
-0.196249
-0.182597
-0.208176
-0.197316
0.12049
12.2722
20.7071
17.3899
18.6729
18.7514
-0.135361
-0.143006
-0.013054
-0.138885
-0.114566
-0.0847149
-0.187798
-0.131585
-0.0716677
-0.0706202
-0.0851611
-0.0515619
-0.125408
-0.141105
-0.140112
-0.138575
-0.135556
-0.151236
-0.175679
-0.208087
-0.209475
-0.196887
-0.189467
-0.17186
-0.119617
-0.0473993
-1.07314
6.49346
19.7302
19.9223
-0.143643
-0.146122
-0.0261431
-0.135099
-0.117851
-0.101284
-0.179521
-0.135316
-0.0839883
-0.0808194
-0.0946344
-0.0319987
-0.104006
-0.14378
-0.140824
-0.139298
-0.135058
-0.15322
-0.175801
-0.204906
-0.213188
-0.205321
-0.189476
-0.167176
-0.128257
-0.103166
-0.110644
-0.139619
-0.153442
-0.155358
-0.143164
-0.169522
-0.0402117
-0.132828
-0.120343
-0.112517
-0.172604
-0.137908
-0.0946449
-0.091568
-0.114284
-0.196812
-0.136981
-0.146608
-0.141824
-0.141852
-0.134661
-0.158454
-0.179396
-0.20918
-0.21675
-0.212221
-0.194764
-0.18103
-0.158755
-0.139204
-0.133395
-0.136462
-0.139168
-0.138722
-0.147454
-0.169669
-0.0582263
-0.132057
-0.123004
-0.121054
-0.167068
-0.13971
-0.103832
-0.102729
-0.138049
-0.16773
-0.159835
-0.152431
-0.144291
-0.144737
-0.134492
-0.126054
-0.155619
-0.217938
-0.222136
-0.221781
-0.213347
-0.201835
-0.187532
-0.170227
-0.152506
-0.141791
-0.137507
-0.136189
-0.150658
-0.157059
-0.0715417
-0.132451
-0.125864
-0.127773
-0.162874
-0.141072
-0.11212
-0.113968
-0.150855
-0.162025
-0.169965
-0.154686
-0.149168
-0.154176
-0.104108
-0.134667
-0.149724
-0.225716
-0.228483
-0.232099
-0.229701
-0.225544
-0.212204
-0.200514
-0.176556
-0.15833
-0.149112
-0.145777
-0.154093
-0.151376
-0.0876647
-0.134029
-0.129219
-0.133502
-0.160011
-0.142503
-0.119449
-0.125126
-0.163604
-0.14865
-0.16491
-0.156873
-0.156133
-0.162827
-0.120717
-0.1474
-0.197878
-0.226656
-0.23399
-0.243428
-0.247468
-0.245999
-0.232057
-0.226146
-0.201185
-0.181569
-0.170986
-0.166841
-0.158294
-0.181004
-0.103072
-0.136821
-0.133356
-0.138996
-0.158495
-0.144583
-0.126346
-0.134786
-0.173847
-0.158086
-0.173101
-0.165253
-0.164724
-0.170325
-0.176317
-0.191164
-0.210329
-0.226828
-0.238657
-0.253111
-0.261479
-0.262617
-0.256637
-0.239373
-0.217423
-0.200787
-0.191675
-0.188063
-0.162734
-0.181491
-0.117463
-0.140753
-0.138491
-0.144608
-0.15844
-0.147503
-0.133319
-0.141798
-0.192005
-0.177866
-0.185233
-0.177425
-0.176112
-0.178497
-0.185352
-0.198607
-0.214591
-0.226359
-0.240841
-0.256665
-0.265244
-0.264803
-0.255314
-0.238411
-0.220978
-0.208657
-0.201919
-0.199251
-0.167616
-0.182566
-0.13117
-0.145924
-0.144703
-0.150494
-0.159971
-0.151311
-0.14031
-0.147218
-0.187491
-0.199082
-0.209682
-0.197401
-0.188831
-0.187952
-0.193791
-0.204609
-0.215569
-0.224286
-0.237345
-0.249637
-0.254987
-0.251446
-0.240525
-0.226242
-0.21361
-0.205041
-0.200266
-0.198236
-0.173068
-0.183847
-0.144075
-0.152439
-0.151862
-0.156803
-0.162982
-0.156061
-0.147252
-0.150614
-0.17956
-0.213352
-0.239464
-0.219017
-0.202184
-0.197253
-0.199885
-0.206665
-0.213367
-0.219448
-0.227225
-0.233431
-0.234307
-0.228776
-0.219037
-0.208557
-0.200016
-0.194236
-0.190836
-0.189183
-0.179194
-0.186469
-0.15628
-0.160138
-0.159819
-0.163671
-0.167403
-0.161796
-0.154359
-0.155249
-0.173135
-0.227524
-0.261003
-0.242554
-0.215727
-0.204923
-0.203332
-0.205987
-0.209412
-0.212615
-0.214808
-0.215312
-0.212545
-0.206714
-0.199269
-0.19217
-0.186583
-0.182728
-0.180321
-0.179028
-0.186058
-0.190387
-0.16795
-0.168819
-0.168476
-0.171224
-0.173185
-0.168563
-0.162063
-0.160123
-0.171738
-0.239837
-0.294274
-0.263644
-0.227049
-0.210567
-0.205499
-0.204938
-0.205866
-0.206343
-0.205268
-0.202531
-0.198207
-0.192812
-0.187407
-0.182665
-0.178966
-0.176331
-0.174688
-0.17376
-0.193723
-0.195586
-0.179266
-0.178318
-0.17778
-0.179559
-0.180286
-0.176408
-0.170768
-0.167524
-0.174674
-0.243617
-0.305288
-0.273433
-0.232106
-0.214397
-0.207662
-0.205199
-0.204175
-0.202951
-0.20063
-0.197241
-0.193163
-0.188927
-0.185007
-0.181735
-0.179238
-0.177473
-0.176322
-0.17565
-0.202238
-0.202058
-0.19044
-0.188511
-0.187735
-0.188717
-0.188657
-0.185378
-0.180761
-0.178022
-0.184034
-0.233548
-0.286417
-0.266562
-0.23348
-0.21745
-0.210928
-0.207716
-0.205616
-0.203566
-0.20107
-0.19813
-0.195006
-0.192
-0.189349
-0.187182
-0.185527
-0.184347
-0.183568
-0.183111
-0.211647
-0.209775
-0.20168
-0.19932
-0.198386
-0.198779
-0.198249
-0.195515
-0.192065
-0.190703
-0.19708
-0.22738
-0.259398
-0.250124
-0.231851
-0.221383
-0.21606
-0.212849
-0.210445
-0.208239
-0.205986
-0.203686
-0.20146
-0.199437
-0.197712
-0.196323
-0.195265
-0.194508
-0.194005
-0.193708
-0.222012
-0.218724
-0.213198
-0.210787
-0.209812
-0.209826
-0.209029
-0.206842
-0.204543
-0.204423
-0.209985
-0.225427
-0.24205
-0.241217
-0.233243
-0.227174
-0.223218
-0.220407
-0.218159
-0.216167
-0.214311
-0.212584
-0.211026
-0.209677
-0.208561
-0.207679
-0.207014
-0.20654
-0.206225
-0.206039
-0.233374
-0.228904
-0.225196
-0.223023
-0.2221
-0.221875
-0.220994
-0.21935
-0.218015
-0.218692
-0.223198
-0.231949
-0.240381
-0.241396
-0.23831
-0.234937
-0.232177
-0.229944
-0.228072
-0.226445
-0.225006
-0.223744
-0.222661
-0.22176
-0.221035
-0.220473
-0.220054
-0.219758
-0.219563
-0.219448
-0.245806
-0.240323
-0.237895
-0.236143
-0.235345
-0.234992
-0.234171
-0.23301
-0.232363
-0.233372
-0.236768
-0.241972
-0.246433
-0.247531
-0.24636
-0.244507
-0.242687
-0.24106
-0.239643
-0.238417
-0.237363
-0.236471
-0.235732
-0.235134
-0.234663
-0.234305
-0.234041
-0.233856
-0.233735
-0.233665
-0.259374
-0.252997
-0.251503
-0.250256
-0.249642
-0.249267
-0.248588
-0.247809
-0.24756
-0.248524
-0.250875
-0.253929
-0.256339
-0.257158
-0.256732
-0.255738
-0.254613
-0.253528
-0.252554
-0.251707
-0.25099
-0.250396
-0.249914
-0.249531
-0.249234
-0.24901
-0.248847
-0.248734
-0.248661
-0.248618
-0.274149
-0.266954
-0.266186
-0.265475
-0.265098
-0.264793
-0.264289
-0.263778
-0.263681
-0.264343
-0.265745
-0.26743
-0.268684
-0.26918
-0.269038
-0.268539
-0.267911
-0.267274
-0.266688
-0.266177
-0.265748
-0.265396
-0.265116
-0.264896
-0.264728
-0.264603
-0.264513
-0.264451
-0.26441
-0.264387
-0.290204
-0.282229
-0.282081
-0.281921
-0.281826
-0.281662
-0.28134
-0.280999
-0.280876
-0.281123
-0.281691
-0.282351
-0.28284
-0.283056
-0.283026
-0.282837
-0.282579
-0.282306
-0.282053
-0.281833
-0.281653
-0.281514
-0.281403
-0.281317
-0.281251
-0.281201
-0.281165
-0.28114
-0.281124
-0.281115
17.9177
17.8714
17.7765
17.2267
15.8542
13.2729
9.71662
4.41519
-6.46593
-27.2082
-0.0922486
0.321826
0.0978202
0.025319
-0.00117274
-0.196282
-0.250305
-0.112463
-0.0227464
-0.0652869
-0.184937
-0.372393
-9.15983
11.6535
12.3718
14.465
15.0828
12.0446
6.55943
1.71438
17.8523
17.7837
17.5017
16.9201
15.6967
13.3048
9.69475
4.31468
-10.1808
4.11384
-0.0496579
0.217057
0.0815442
0.0241695
0.0031087
-0.204001
-0.280009
-0.151958
-0.0290334
-0.075002
-0.176569
-0.1965
-9.64435
10.4028
10.8446
13.0206
13.635
10.4898
4.83898
0.134032
17.8284
17.7329
17.3568
16.7617
15.6054
13.4604
9.98225
5.00986
-6.46079
2.40038
-0.179504
0.112942
0.0774652
0.0157808
0.416119
-0.200084
-0.315716
-0.156341
-0.0330061
-0.08598
-0.167976
-0.171308
-2.4313
8.8099
9.18163
11.4663
12.0728
8.80771
2.96573
0.0133835
17.7998
17.7156
17.3947
16.8594
15.7782
13.7337
10.5751
5.12617
-16.9664
2.46447
-0.20292
0.0333318
0.0196266
0.00890078
0.012004
-0.168767
-0.30737
-0.16075
-0.0325658
-0.09555
-0.159167
-0.153595
-0.361057
8.93922
7.36891
9.78677
10.3849
6.9819
1.39562
-0.22085
17.8582
17.82
17.5543
17.0752
16.2437
14.3227
11.301
6.82064
0.675704
1.3077
-0.386997
-0.0351114
-0.0063328
-0.00722523
0.000372276
-0.166379
-0.147943
-0.163797
-0.0426154
-0.0864386
-0.147813
-0.14425
-0.286312
-5.62543
5.45404
8.17297
8.4924
4.98312
0.47886
-0.0633611
17.9476
17.9842
17.7971
17.4453
16.9068
15.1165
11.4719
-21.4205
0.0646388
-0.604048
-0.380811
-0.087653
-0.0321371
-0.0173338
-0.00662304
-0.168716
-0.201429
-0.125704
-0.161605
-0.022113
-0.140698
-0.137709
-0.24658
-0.204575
2.81406
5.98408
6.32327
2.87936
-0.408741
-0.0852508
17.9442
18.0568
18.0293
18.0324
17.8905
16.3858
14.3439
-0.964907
-0.0592596
-0.403626
-0.301419
-0.117088
-0.0553817
-0.0306568
-0.0250829
-0.185842
-0.168846
-0.2351
-0.15542
-0.103477
-0.110964
-0.133525
-0.216052
-0.226374
0.532813
3.74494
3.59675
0.771366
-0.106326
-0.0824891
18.048
18.0646
18.4666
18.7144
19.7967
18.4691
-1.86941
-0.185261
-0.144784
-0.309342
-0.251302
-0.133299
-0.0750863
-0.0441054
-0.040756
-0.0452104
-0.158255
-0.221354
-0.152756
-0.106507
-0.117002
-0.131473
-0.193824
-0.182839
0.12584
0.365358
0.350024
-0.116244
-0.120855
-0.0834872
18.1773
18.4071
18.4598
18.4339
24.3097
11.7554
-0.115863
-0.269839
-0.197544
-0.258484
-0.231396
-0.144753
-0.0922622
-0.0581741
-0.0507514
-0.081647
-0.190504
-0.204888
-0.149738
-0.132295
-0.115023
-0.131349
-0.176872
-0.161197
0.0218718
-0.115738
-0.0914067
-0.127658
-0.127727
-0.0890395
15.9799
18.0232
18.4766
-3.44261
1.23904
-0.160626
-0.203297
-0.243394
-0.223204
-0.236266
-0.216158
-0.154708
-0.107357
-0.0720812
-0.0603465
-0.0888903
-0.170457
-0.190579
-0.142134
-0.0988753
-0.114729
-0.132908
-0.163961
-0.145761
-0.00456068
-0.119049
-0.10518
-0.12159
-0.135342
-0.101851
-0.143662
-0.15628
-0.16643
-0.134753
-0.134937
-0.173844
-0.215447
-0.236736
-0.23312
-0.217725
-0.208279
-0.162879
-0.121415
-0.0858736
-0.0706731
-0.0955503
-0.154978
-0.179258
-0.138782
-0.13453
-0.117566
-0.136013
-0.155433
-0.13584
-0.0271552
-0.122893
-0.107675
-0.122047
-0.142109
-0.105572
-0.138886
-0.143018
-0.148835
-0.151274
-0.165232
-0.195221
-0.224979
-0.24086
-0.243217
-0.23282
-0.208767
-0.172322
-0.135556
-0.0995531
-0.0819031
-0.104674
-0.146266
-0.171767
-0.137984
-0.0834191
-0.157834
-0.139533
-0.150299
-0.130126
-0.0485374
-0.124791
-0.111984
-0.127894
-0.148796
-0.108967
-0.136936
-0.139941
-0.146295
-0.160393
-0.189119
-0.220929
-0.243993
-0.256401
-0.254644
-0.240432
-0.214611
-0.182648
-0.151031
-0.113351
-0.091681
-0.111864
-0.144281
-0.168848
-0.144112
-0.125883
-0.151705
-0.143849
-0.147606
-0.127473
-0.0678015
-0.12566
-0.116587
-0.128965
-0.152518
-0.115348
-0.145963
-0.149404
-0.158698
-0.180332
-0.217308
-0.243573
-0.270833
-0.279139
-0.273149
-0.253819
-0.224509
-0.194003
-0.170282
-0.117287
-0.0958269
-0.147372
-0.150483
-0.170207
-0.153915
-0.157432
-0.158498
-0.148781
-0.147191
-0.127891
-0.0847998
-0.128618
-0.121305
-0.131215
-0.154782
-0.121186
-0.166796
-0.170707
-0.181538
-0.205403
-0.243676
-0.280147
-0.30109
-0.306463
-0.295072
-0.269876
-0.236036
-0.205002
-0.195234
-0.126949
-0.113589
-0.153852
-0.162841
-0.175898
-0.160151
-0.137731
-0.160603
-0.153916
-0.148793
-0.130953
-0.0997275
-0.131039
-0.126383
-0.134219
-0.153922
-0.127342
-0.188125
-0.191799
-0.201611
-0.22255
-0.257181
-0.294996
-0.32005
-0.325321
-0.310804
-0.282483
-0.245657
-0.214148
-0.202147
-0.150112
-0.140806
-0.165286
-0.17949
-0.186876
-0.161754
-0.156064
-0.164262
-0.158607
-0.151687
-0.135818
-0.112998
-0.134303
-0.131863
-0.137996
-0.1542
-0.133892
-0.199381
-0.202207
-0.209356
-0.224333
-0.250389
-0.283433
-0.310154
-0.319163
-0.3084
-0.282826
-0.249746
-0.220745
-0.206617
-0.189788
-0.175617
-0.177568
-0.190545
-0.195709
-0.172689
-0.160659
-0.168195
-0.163216
-0.155542
-0.141807
-0.12495
-0.138613
-0.137802
-0.142595
-0.156172
-0.140709
-0.198122
-0.199754
-0.203959
-0.212502
-0.227794
-0.249917
-0.272329
-0.285511
-0.28384
-0.268212
-0.244693
-0.222756
-0.209885
-0.198025
-0.188797
-0.190759
-0.205621
-0.207486
-0.185361
-0.165623
-0.173827
-0.168128
-0.160208
-0.148343
-0.135898
-0.144007
-0.144247
-0.148015
-0.159636
-0.147849
-0.188781
-0.189476
-0.191638
-0.196081
-0.204062
-0.216434
-0.231518
-0.244174
-0.248866
-0.243789
-0.23217
-0.219724
-0.210733
-0.203263
-0.199365
-0.204294
-0.222711
-0.23152
-0.198016
-0.172344
-0.181744
-0.173509
-0.165566
-0.155458
-0.146144
-0.15044
-0.151244
-0.154261
-0.164264
-0.155422
-0.17856
-0.178804
-0.179956
-0.1824
-0.186751
-0.193574
-0.202604
-0.211871
-0.218513
-0.220356
-0.218041
-0.213777
-0.209271
-0.205903
-0.206838
-0.215686
-0.237096
-0.24662
-0.21494
-0.193486
-0.189324
-0.179218
-0.171582
-0.163109
-0.155995
-0.157848
-0.15885
-0.161322
-0.169915
-0.163502
-0.173359
-0.173415
-0.17404
-0.175533
-0.178145
-0.182171
-0.187651
-0.194111