/*--------------------------------*- C++ -*----------------------------------*\
| =========                 |                                                 |
| \\      /  F ield         | OpenFOAM: The Open Source CFD Toolbox           |
|  \\    /   O peration     | Version:  2.4.0                                 |
|   \\  /    A nd           | Web:      www.OpenFOAM.org                      |
|    \\/     M anipulation  |                                                 |
\*---------------------------------------------------------------------------*/
FoamFile
{
    version     2.0;
    format      ascii;
    class       surfaceScalarField;
    location    "0.082";
    object      phiAlpha;
}
// * * * * * * * * * * * * * * * * * * * * * * * * * * * * * * * * * * * * * //

dimensions      [0 3 -1 0 0 0 0];

internalField   nonuniform List<scalar> 
28560
(
-4.84662e-09
1.33246e-08
-8.47801e-09
9.47767e-09
-1.30083e-08
3.5306e-09
1.50489e-08
-1.78568e-08
2.80792e-09
1.50553e-08
-1.44631e-08
-5.92227e-10
1.22119e-08
-9.81213e-09
-2.39981e-09
6.63122e-09
-3.13229e-09
-3.49893e-09
-9.84781e-10
5.27143e-09
-4.28665e-09
-1.00524e-08
1.47721e-08
-4.71964e-09
-1.94783e-08
2.3593e-08
-4.11471e-09
-2.72191e-08
3.00496e-08
-2.83057e-09
-3.24873e-08
3.4549e-08
-2.06172e-09
-3.66608e-08
3.86773e-08
-2.01641e-09
-4.0699e-08
4.2339e-08
-1.64e-09
-4.35102e-08
4.39522e-08
-4.41967e-10
-4.35458e-08
4.23174e-08
1.22841e-09
-4.01754e-08
3.73961e-08
2.77926e-09
-3.38426e-08
3.00509e-08
3.79172e-09
-2.58079e-08
2.17229e-08
4.08507e-09
-1.75254e-08
1.37707e-08
3.75467e-09
-1.01543e-08
7.10173e-09
3.05257e-09
-4.32232e-09
2.0996e-09
2.22271e-09
-1.84954e-10
-1.26168e-09
1.44663e-09
2.44109e-09
-3.25843e-09
8.17341e-10
3.84432e-09
-4.17795e-09
3.33635e-10
4.33169e-09
-4.33127e-09
-4.20103e-13
4.18826e-09
-3.95044e-09
-2.37823e-10
3.61853e-09
-3.24568e-09
-3.72852e-10
2.81151e-09
-2.37369e-09
-4.37826e-10
1.89962e-09
-1.4465e-09
-4.53129e-10
9.75808e-10
-5.41713e-10
-4.34095e-10
-2.29745e-08
3.29864e-08
-1.00119e-08
1.9159e-08
-2.67075e-08
-1.00189e-08
1.75674e-08
3.20957e-08
-3.8086e-08
-7.82376e-09
1.3814e-08
3.61665e-08
-3.74292e-08
1.93566e-10
1.06909e-09
3.63945e-08
-3.47357e-08
4.6754e-09
-6.33413e-09
3.14602e-08
-2.68456e-08
8.18189e-09
-1.27964e-08
2.03851e-08
-1.27168e-08
1.12901e-08
-1.89584e-08
3.29738e-09
6.6794e-09
1.34179e-08
-2.33947e-08
-1.76707e-08
2.81534e-08
1.28888e-08
-2.33715e-08
-3.86263e-08
4.79541e-08
1.03185e-08
-1.96463e-08
-5.71499e-08
6.55408e-08
8.63504e-09
-1.7026e-08
-7.42534e-08
8.24819e-08
8.48439e-09
-1.67129e-08
-9.09643e-08
9.85861e-08
7.49792e-09
-1.51197e-08
-1.05787e-07
1.11622e-07
4.47878e-09
-1.03141e-08
-1.16407e-07
1.1959e-07
1.61259e-10
-3.34439e-09
-1.21458e-07
1.21806e-07
-4.13137e-09
3.78359e-09
-1.20781e-07
1.18639e-07
-7.40693e-09
9.54836e-09
-1.15314e-07
1.11327e-07
-9.16669e-09
1.31535e-08
-1.06446e-07
1.01333e-07
-9.46394e-09
1.45773e-08
-9.55978e-08
8.99473e-08
-8.73318e-09
1.43837e-08
-8.3899e-08
7.81487e-08
-7.44206e-09
1.31923e-08
-7.21662e-08
6.66068e-08
-5.99471e-09
1.15541e-08
-6.09296e-08
5.57253e-08
-4.64144e-09
9.84569e-09
-5.04635e-08
4.56846e-08
-3.48497e-09
8.26379e-09
-4.08811e-08
3.65384e-08
-2.56964e-09
6.91234e-09
-3.2191e-08
2.82694e-08
-1.86573e-09
5.78732e-09
-2.43523e-08
2.08245e-08
-1.36033e-09
4.88821e-09
-1.73066e-08
1.41391e-08
-1.01295e-09
4.18044e-09
-1.09805e-08
8.13509e-09
-7.88891e-10
3.63432e-09
-5.29356e-09
2.73484e-09
-6.54018e-10
3.21274e-09
-4.31129e-08
5.32806e-08
-1.01677e-08
2.01541e-08
-2.81797e-08
-2.54721e-08
3.34977e-08
3.40382e-08
-4.06119e-08
-2.02054e-08
2.67792e-08
3.90119e-08
-4.09207e-08
-2.77454e-09
4.6833e-09
4.04612e-08
-3.93631e-08
7.61585e-09
-8.71397e-09
3.65537e-08
-3.22324e-08
1.72288e-08
-2.15501e-08
2.58924e-08
-1.81488e-08
2.6714e-08
-3.44577e-08
8.47793e-09
1.86591e-09
3.36723e-08
-4.40161e-08
-1.33567e-08
2.43584e-08
3.42754e-08
-4.5277e-08
-3.53781e-08
4.51955e-08
2.94048e-08
-3.92222e-08
-5.48606e-08
6.3669e-08
2.58099e-08
-3.46183e-08
-7.28193e-08
8.14938e-08
2.53308e-08
-3.40053e-08
-9.04656e-08
9.86142e-08
2.31737e-08
-3.13223e-08
-1.06385e-07
1.12844e-07
1.6664e-08
-2.31227e-08
-1.18305e-07
1.22213e-07
7.14547e-09
-1.10532e-08
-1.24901e-07
1.26074e-07
-2.72343e-09
1.54955e-09
-1.25974e-07
1.24757e-07
-1.09078e-08
1.21256e-08
-1.22433e-07
1.19413e-07
-1.63507e-08
1.93699e-08
-1.15547e-07
1.11371e-07
-1.89748e-08
2.31502e-08
-1.06569e-07
1.0172e-07
-1.94812e-08
2.43297e-08
-9.63971e-08
9.11963e-08
-1.86267e-08
2.38275e-08
-8.56277e-08
8.02933e-08
-1.70688e-08
2.24031e-08
-7.46695e-08
6.93451e-08
-1.52716e-08
2.0596e-08
-6.37835e-08
5.85652e-08
-1.34958e-08
1.87142e-08
-5.31492e-08
4.80956e-08
-1.18919e-08
1.69455e-08
-4.28855e-08
3.80523e-08
-1.04719e-08
1.5305e-08
-3.30967e-08
2.85272e-08
-9.25118e-09
1.38206e-08
-2.38738e-08
1.96094e-08
-8.2036e-09
1.2468e-08
-1.52939e-08
1.13619e-08
-7.31325e-09
1.12452e-08
-7.40245e-09
3.81964e-09
-6.55058e-09
1.01334e-08
-6.34683e-08
7.367e-08
-1.02017e-08
2.02923e-08
-2.83895e-08
-4.15699e-08
4.96671e-08
3.43052e-08
-4.10934e-08
-3.34668e-08
4.0255e-08
3.93322e-08
-4.14114e-08
-6.69511e-09
8.77437e-09
4.10415e-08
-4.00898e-08
9.72128e-09
-1.06731e-08
3.73946e-08
-3.31574e-08
2.5817e-08
-3.00542e-08
2.68728e-08
-1.91364e-08
4.21938e-08
-4.99303e-08
9.43305e-09
9.84261e-10
5.43993e-08
-6.48166e-08
-1.2605e-08
2.37234e-08
5.63361e-08
-6.74546e-08
-3.48086e-08
4.46382e-08
4.90476e-08
-5.88772e-08
-5.42441e-08
6.29917e-08
4.34003e-08
-5.2148e-08
-7.21154e-08
8.08497e-08
4.27081e-08
-5.14424e-08
-8.99303e-08
9.82663e-08
3.95498e-08
-4.78858e-08
-1.0619e-07
1.1285e-07
2.966e-08
-3.63193e-08
-1.18411e-07
1.22417e-07
1.49889e-08
-1.89952e-08
-1.25151e-07
1.2628e-07
-4.11232e-10
-7.18056e-10
-1.26067e-07
1.24681e-07
-1.34281e-08
1.4814e-08
-1.22119e-07
1.18836e-07
-2.25015e-08
2.57851e-08
-1.14675e-07
1.10223e-07
-2.74238e-08
3.18764e-08
-1.05146e-07
1.00063e-07
-2.92381e-08
3.43208e-08
-9.45294e-08
8.91684e-08
-2.90419e-08
3.44029e-08
-8.34753e-08
7.80655e-08
-2.77109e-08
3.31206e-08
-7.24056e-08
6.70881e-08
-2.58656e-08
3.11831e-08
-6.1573e-08
5.64331e-08
-2.38614e-08
2.90014e-08
-5.11312e-08
4.6211e-08
-2.19236e-08
2.68437e-08
-4.11622e-08
3.64963e-08
-2.00674e-08
2.47333e-08
-3.17266e-08
2.73375e-08
-1.83304e-08
2.27195e-08
-2.2875e-08
1.87885e-08
-1.66859e-08
2.07723e-08
-1.46554e-08
1.08905e-08
-1.51418e-08
1.89067e-08
-7.10014e-09
3.66969e-09
-1.36878e-08
1.71182e-08
-8.38866e-08
9.41189e-08
-1.02322e-08
2.03674e-08
-2.85016e-08
-5.77828e-08
6.5917e-08
3.44337e-08
-4.14438e-08
-4.71483e-08
5.41584e-08
3.93746e-08
-4.15731e-08
-1.09124e-08
1.31109e-08
4.12154e-08
-4.03589e-08
1.15781e-08
-1.24346e-08
3.77252e-08
-3.35374e-08
3.42673e-08
-3.84552e-08
2.72908e-08
-1.95571e-08
5.76666e-08
-6.54003e-08
9.82428e-09
6.95427e-10
7.5286e-08
-8.58057e-08
-1.24322e-08
2.369e-08
7.86417e-08
-8.98995e-08
-3.48446e-08
4.46763e-08
6.87075e-08
-7.85392e-08
-5.41833e-08
6.28234e-08
6.08454e-08
-6.94855e-08
-7.18926e-08
8.07059e-08
6.02137e-08
-6.9027e-08
-8.99366e-08
9.85639e-08
5.63548e-08
-6.4982e-08
-1.06732e-07
1.13749e-07
4.31396e-08
-5.01565e-08
-1.1952e-07
1.23788e-07
2.31163e-08
-2.73844e-08
-1.26731e-07
1.27943e-07
1.87619e-09
-3.0875e-09
-1.27747e-07
1.26303e-07
-1.6242e-08
1.76852e-08
-1.23593e-07
1.20099e-07
-2.91867e-08
3.26801e-08
-1.15676e-07
1.10949e-07
-3.64834e-08
4.12101e-08
-1.05564e-07
1.00177e-07
-3.95729e-08
4.496e-08
-9.43183e-08
8.86498e-08
-3.99306e-08
4.55991e-08
-8.26439e-08
7.69562e-08
-3.86738e-08
4.43615e-08
-7.10341e-08
6.55034e-08
-3.66032e-08
4.21339e-08
-5.98092e-08
5.45477e-08
-3.41899e-08
3.94514e-08
-4.91718e-08
4.42337e-08
-3.17552e-08
3.66933e-08
-3.922e-08
3.46352e-08
-2.93382e-08
3.3923e-08
-2.99954e-08
2.57656e-08
-2.70082e-08
3.12379e-08
-2.15004e-08
1.76231e-08
-2.47348e-08
2.86121e-08
-1.3725e-08
1.01903e-08
-2.25392e-08
2.60739e-08
-6.64334e-09
3.44023e-09
-2.04196e-08
2.36227e-08
-1.04367e-07
1.14635e-07
-1.02673e-08
2.04524e-08
-2.86256e-08
-7.40701e-08
8.22434e-08
3.45815e-08
-4.18638e-08
-6.12978e-08
6.85801e-08
3.93901e-08
-4.17228e-08
-1.53742e-08
1.77069e-08
4.13757e-08
-4.06336e-08
1.32369e-08
-1.3979e-08
3.80731e-08
-3.39471e-08
4.26142e-08
-4.67402e-08
2.77537e-08
-2.00315e-08
7.31288e-08
-8.08511e-08
1.02703e-08
3.43136e-10
9.63658e-08
-1.06979e-07
-1.22559e-08
2.36907e-08
1.01236e-07
-1.12671e-07
-3.49327e-08
4.47672e-08
8.83721e-08
-9.82067e-08
-5.41339e-08
6.26194e-08
7.8055e-08
-8.65405e-08
-7.16055e-08
8.05139e-08
7.78863e-08
-8.67947e-08
-8.99226e-08
9.89467e-08
7.37935e-08
-8.28176e-08
-1.07416e-07
1.14931e-07
5.74041e-08
-6.49194e-08
-1.20956e-07
1.25606e-07
3.18278e-08
-3.64783e-08
-1.28863e-07
1.30213e-07
4.36377e-09
-5.71373e-09
-1.301e-07
1.28658e-07
-1.91314e-08
2.05728e-08
-1.2584e-07
1.22175e-07
-3.62571e-08
3.99219e-08
-1.17543e-07
1.12615e-07
-4.60395e-08
5.09674e-08
-1.07018e-07
1.01429e-07
-5.04533e-08
5.60419e-08
-9.53562e-08
8.94853e-08
-5.13782e-08
5.72491e-08
-8.32682e-08
7.73842e-08
-5.01576e-08
5.60416e-08
-7.12629e-08
6.55552e-08
-4.77612e-08
5.34689e-08
-5.96927e-08
5.42924e-08
-4.47863e-08
5.01866e-08
-4.87959e-08
4.37706e-08
-4.16729e-08
4.66982e-08
-3.86954e-08
3.4081e-08
-3.85149e-08
4.31293e-08
-2.94386e-08
2.52305e-08
-3.54429e-08
3.9651e-08
-2.10089e-08
1.71898e-08
-3.24421e-08
3.62611e-08
-1.33675e-08
9.91547e-09
-2.95506e-08
3.30027e-08
-6.46259e-09
3.35199e-09
-2.67665e-08
2.98771e-08
-1.24922e-07
1.3523e-07
-1.03085e-08
2.0557e-08
-2.87748e-08
-9.0439e-08
9.86568e-08
3.4772e-08
-4.23825e-08
-7.60198e-08
8.36303e-08
3.94117e-08
-4.18974e-08
-2.01141e-08
2.25998e-08
4.15726e-08
-4.09717e-08
1.4654e-08
-1.52549e-08
3.85024e-08
-3.44549e-08
5.08291e-08
-5.48766e-08
2.83293e-08
-2.06244e-08
8.85661e-08
-9.62711e-08
1.08279e-08
-3.95429e-11
1.17652e-07
-1.2844e-07
-1.20429e-08
2.37007e-08
1.24214e-07
-1.35871e-07
-3.50572e-08
4.48996e-08
1.08045e-07
-1.17887e-07
-5.40806e-08
6.23543e-08
9.4927e-08
-1.03201e-07
-7.12228e-08
8.02503e-08
9.57595e-08
-1.04787e-07
-8.98564e-08
9.94037e-08
9.20863e-08
-1.01634e-07
-1.08221e-07
1.16399e-07
7.27438e-08
-8.0921e-08
-1.22691e-07
1.27866e-07
4.13717e-08
-4.65468e-08
-1.31543e-07
1.33062e-07
7.14629e-09
-8.66517e-09
-1.33073e-07
1.31658e-07
-2.20048e-08
2.34198e-08
-1.28713e-07
1.24837e-07
-4.36864e-08
4.75625e-08
-1.19962e-07
1.14816e-07
-5.6001e-08
6.11467e-08
-1.09008e-07
1.03233e-07
-6.17236e-08
6.7499e-08
-9.69748e-08
9.09357e-08
-6.32044e-08
6.92435e-08
-8.45483e-08
7.85109e-08
-6.20043e-08
6.80417e-08
-7.22378e-08
6.63951e-08
-5.92456e-08
6.50883e-08
-6.04016e-08
5.48886e-08
-5.56462e-08
6.11592e-08
-4.92836e-08
4.41662e-08
-5.17687e-08
5.6886e-08
-3.90078e-08
3.43275e-08
-4.77758e-08
5.24561e-08
-2.96273e-08
2.5374e-08
-4.3873e-08
4.81263e-08
-2.1109e-08
1.72486e-08
-4.00733e-08
4.39337e-08
-1.33894e-08
9.91753e-09
-3.64511e-08
3.9923e-08
-6.46018e-09
3.35544e-09
-3.29989e-08
3.61036e-08
-1.45563e-07
1.5592e-07
-1.03569e-08
2.06781e-08
-2.89421e-08
-1.06897e-07
1.15161e-07
3.50028e-08
-4.2997e-08
-9.1425e-08
9.94192e-08
3.94327e-08
-4.2087e-08
-2.51679e-08
2.78221e-08
4.18033e-08
-4.13704e-08
1.57749e-08
-1.62079e-08
3.90118e-08
-3.50596e-08
5.88784e-08
-6.28306e-08
2.90184e-08
-2.13393e-08
1.03963e-07
-1.11643e-07
1.15048e-08
-5.3148e-10
1.3932e-07
-1.50294e-07
-1.17839e-08
2.37187e-08
1.47658e-07
-1.59593e-07
-3.52241e-08
4.50806e-08
1.27735e-07
-1.37592e-07
-5.40179e-08
6.19993e-08
1.11338e-07
-1.19319e-07
-7.07105e-08
7.98772e-08
1.13882e-07
-1.23049e-07
-8.96873e-08
9.99056e-08
1.11496e-07
-1.21714e-07
-1.09115e-07
1.18136e-07
8.94966e-08
-9.85186e-08
-1.24683e-07
1.3056e-07
5.2048e-08
-5.79253e-08
-1.34798e-07
1.36497e-07
1.02734e-08
-1.19722e-08
-1.36683e-07
1.35336e-07
-2.48065e-08
2.61538e-08
-1.32226e-07
1.28064e-07
-5.15695e-08
5.57317e-08
-1.22879e-07
1.17478e-07
-6.6414e-08
7.1815e-08
-1.11437e-07
1.05458e-07
-7.33732e-08
7.93515e-08
-9.90025e-08
9.27848e-08
-7.53695e-08
8.15872e-08
-8.62177e-08
8.00208e-08
-7.41566e-08
8.03536e-08
-7.35925e-08
6.76124e-08
-7.09947e-08
7.69748e-08
-6.14866e-08
5.58611e-08
-6.673e-08
7.23555e-08
-5.01497e-08
4.49346e-08
-6.20453e-08
6.72604e-08
-3.96768e-08
3.49114e-08
-5.71787e-08
6.19442e-08
-3.01348e-08
2.58201e-08
-5.24144e-08
5.67291e-08
-2.15018e-08
1.76005e-08
-4.77891e-08
5.16904e-08
-1.36999e-08
1.01784e-08
-4.34101e-08
4.69315e-08
-6.6518e-09
3.46579e-09
-3.92635e-08
4.24495e-08
-1.66302e-07
1.76713e-07
-1.04112e-08
2.0816e-08
-2.91248e-08
-1.23448e-07
1.31757e-07
3.52761e-08
-4.37121e-08
-1.07627e-07
1.16063e-07
3.94526e-08
-4.22868e-08
-3.05653e-08
3.33995e-08
4.20697e-08
-4.18296e-08
1.65475e-08
-1.67876e-08
3.96017e-08
-3.57627e-08
6.67284e-08
-7.05674e-08
2.98235e-08
-2.21814e-08
1.19305e-07
-1.26947e-07
1.23086e-08
-1.13473e-09
1.61364e-07
-1.72538e-07
-1.14737e-08
2.3754e-08
1.71692e-07
-1.83973e-07
-3.54494e-08
4.53276e-08
1.47458e-07
-1.57337e-07
-5.39468e-08
6.15346e-08
1.27119e-07
-1.34706e-07
-7.00385e-08
7.93674e-08
1.32294e-07
-1.41623e-07
-8.93737e-08
1.00435e-07
1.32331e-07
-1.43392e-07
-1.10099e-07
1.20142e-07
1.08032e-07
-1.18075e-07
-1.26931e-07
1.33705e-07
6.42274e-08
-7.10008e-08
-1.38691e-07
1.40549e-07
1.37563e-08
-1.56139e-08
-1.40988e-07
1.39777e-07
-2.74451e-08
2.86556e-08
-1.36441e-07
1.31875e-07
-6.00773e-08
6.46441e-08
-1.26286e-07
1.20584e-07
-7.736e-08
8.30612e-08
-1.14285e-07
1.08087e-07
-8.54352e-08
9.16333e-08
-1.01417e-07
9.49984e-08
-8.79029e-08
9.43213e-08
-8.82275e-08
8.18407e-08
-8.664e-08
9.30268e-08
-7.52293e-08
6.90966e-08
-8.30309e-08
8.91636e-08
-6.28102e-08
5.70415e-08
-7.8046e-08
8.38147e-08
-5.1211e-08
4.5897e-08
-7.2526e-08
7.784e-08
-4.05231e-08
3.56425e-08
-6.67442e-08
7.16248e-08
-3.07551e-08
2.63462e-08
-6.1108e-08
6.55168e-08
-2.19411e-08
1.79652e-08
-5.56647e-08
5.96406e-08
-1.39846e-08
1.0383e-08
-5.05001e-08
5.41016e-08
-6.77851e-09
3.53508e-09
-4.56282e-08
4.88716e-08
-1.87154e-07
1.97625e-07
-1.04711e-08
2.09765e-08
-2.93249e-08
-1.40087e-07
1.48435e-07
3.5601e-08
-4.45414e-08
-1.24743e-07
1.33684e-07
3.94755e-08
-4.24976e-08
-3.6327e-08
3.93491e-08
4.23801e-08
-4.23568e-08
1.6922e-08
-1.69454e-08
4.028e-08
-3.65715e-08
7.43439e-08
-7.80524e-08
3.0752e-08
-2.31602e-08
1.34567e-07
-1.42158e-07
1.32499e-08
-1.84708e-09
1.83823e-07
-1.95226e-07
-1.11123e-08
2.38191e-08
1.96455e-07
-2.09162e-07
-3.57604e-08
4.56744e-08
1.67231e-07
-1.77145e-07
-5.38884e-08
6.0943e-08
1.42047e-07
-1.49101e-07
-6.91908e-08
7.86984e-08
1.5104e-07
-1.60547e-07
-8.88838e-08
1.0098e-07
1.54946e-07
-1.67042e-07
-1.11218e-07
1.22408e-07
1.28682e-07
-1.39872e-07
-1.29493e-07
1.37329e-07
7.82891e-08
-8.6126e-08
-1.43343e-07
1.45272e-07
1.75266e-08
-1.94559e-08
-1.46083e-07
1.45138e-07
-2.9754e-08
3.06991e-08
-1.41473e-07
1.36306e-07
-6.94819e-08
7.46493e-08
-1.30178e-07
1.24132e-07
-8.89311e-08
9.49774e-08
-1.17559e-07
1.11135e-07
-9.79386e-08
1.04362e-07
-1.04235e-07
9.75975e-08
-1.00848e-07
1.07486e-07
-9.05876e-08
8.39731e-08
-9.95106e-08
1.06125e-07
-7.71419e-08
7.08109e-08
-9.54067e-08
1.01738e-07
-6.43502e-08
5.8424e-08
-8.96419e-08
9.55682e-08
-5.24069e-08
4.6948e-08
-8.32425e-08
8.87014e-08
-4.14988e-08
3.65661e-08
-7.65376e-08
8.14704e-08
-3.15869e-08
2.70632e-08
-6.99667e-08
7.44904e-08
-2.25284e-08
1.84305e-08
-6.36467e-08
6.77446e-08
-1.43367e-08
1.06495e-08
-5.77248e-08
6.1412e-08
-6.96742e-09
3.64654e-09
-5.21878e-08
5.55087e-08
-2.08129e-07
2.18667e-07
-1.05382e-08
2.11562e-08
-2.95333e-08
-1.56799e-07
1.65176e-07
3.59729e-08
-4.54841e-08
-1.429e-07
1.52412e-07
3.94924e-08
-4.27058e-08
-4.24666e-08
4.568e-08
4.27282e-08
-4.29438e-08
1.6852e-08
-1.66363e-08
4.10401e-08
-3.74809e-08
8.16883e-08
-8.52474e-08
3.18013e-08
-2.42788e-08
1.49718e-07
-1.5724e-07
1.43357e-08
-2.6754e-09
2.06753e-07
-2.18413e-07
-1.06946e-08
2.39193e-08
2.22115e-07
-2.3534e-07
-3.61763e-08
4.61473e-08
1.87084e-07
-1.97055e-07
-5.3841e-08
6.01774e-08
1.55822e-07
-1.62159e-07
-6.81205e-08
7.78095e-08
1.70147e-07
-1.79836e-07
-8.81427e-08
1.01483e-07
1.79732e-07
-1.93072e-07
-1.12496e-07
1.24854e-07
1.51651e-07
-1.64009e-07
-1.3241e-07
1.41385e-07
9.45313e-08
-1.03506e-07
-1.48876e-07
1.50618e-07
2.13384e-08
-2.308e-08
-1.5205e-07
1.51598e-07
-3.14318e-08
3.1884e-08
-1.47408e-07
1.41327e-07
-8.02285e-08
8.63094e-08
-1.34483e-07
1.28046e-07
-1.01215e-07
1.07652e-07
-1.2122e-07
1.1459e-07
-1.10887e-07
1.17516e-07
-1.07443e-07
1.00587e-07
-1.14263e-07
1.21118e-07
-9.32903e-08
8.64128e-08
-1.1285e-07
1.19728e-07
-7.93108e-08
7.2718e-08
-1.08171e-07
1.14764e-07
-6.60491e-08
5.99689e-08
-1.01611e-07
1.07691e-07
-5.37907e-08
4.81538e-08
-9.42093e-08
9.98462e-08
-4.24877e-08
3.73743e-08
-8.65689e-08
9.16823e-08
-3.22636e-08
2.7639e-08
-7.90568e-08
8.36813e-08
-2.29921e-08
1.87854e-08
-7.18652e-08
7.60719e-08
-1.45835e-08
1.08065e-08
-6.51343e-08
6.89113e-08
-7.05176e-09
3.6917e-09
-5.8827e-08
6.21871e-08
-2.29241e-07
2.39852e-07
-1.0611e-08
2.13572e-08
-2.97463e-08
-1.73562e-07
1.81951e-07
3.63953e-08
-4.65488e-08
-1.62235e-07
1.72388e-07
3.94993e-08
-4.29022e-08
-4.89886e-08
5.23915e-08
4.31135e-08
-4.35903e-08
1.62928e-08
-1.5816e-08
4.18825e-08
-3.84916e-08
8.8725e-08
-9.21158e-08
3.29734e-08
-2.55452e-08
1.64719e-07
-1.72147e-07
1.55773e-08
-3.63044e-09
2.30214e-07
-2.4216e-07
-1.02144e-08
2.40666e-08
2.48863e-07
-2.62715e-07
-3.67319e-08
4.67906e-08
2.07066e-07
-2.17124e-07
-5.38178e-08
5.91943e-08
1.68051e-07
-1.73427e-07
-6.67933e-08
7.66336e-08
1.89607e-07
-1.99447e-07
-8.70824e-08
1.01907e-07
2.07121e-07
-2.21945e-07
-1.13959e-07
1.27362e-07
1.76915e-07
-1.90318e-07
-1.3582e-07
1.45786e-07
1.13016e-07
-1.22981e-07
-1.55402e-07
1.56507e-07
2.45629e-08
-2.5668e-08
-1.59089e-07
1.59474e-07
-3.19707e-08
3.15851e-08
-1.54389e-07
1.46893e-07
-9.30297e-08
1.00526e-07
-1.39096e-07
1.32237e-07
-1.14275e-07
1.21134e-07
-1.25231e-07
1.18481e-07
-1.24225e-07
1.30975e-07
-1.11084e-07
1.03907e-07
-1.28174e-07
1.35351e-07
-9.63888e-08
8.92839e-08
-1.26757e-07
1.33862e-07
-8.17826e-08
7.48546e-08
-1.21447e-07
1.28375e-07
-6.78702e-08
6.15362e-08
-1.13952e-07
1.20286e-07
-5.51909e-08
4.94291e-08
-1.0557e-07
1.11332e-07
-4.36295e-08
3.83695e-08
-9.67807e-08
1.02041e-07
-3.30992e-08
2.83515e-08
-8.83418e-08
9.30895e-08
-2.36262e-08
1.93959e-08
-8.02904e-08
8.45206e-08
-1.51823e-08
1.13579e-08
-7.27437e-08
7.65681e-08
-7.48526e-09
3.94732e-09
-6.56525e-08
6.91905e-08
-2.50501e-07
2.6119e-07
-1.0689e-08
2.15841e-08
-2.9964e-08
-1.90339e-07
1.98719e-07
3.68769e-08
-4.77542e-08
-1.82893e-07
1.93771e-07
3.95009e-08
-4.30863e-08
-5.58872e-08
5.94726e-08
4.35441e-08
-4.43037e-08
1.52007e-08
-1.44412e-08
4.28156e-08
-3.9612e-08
9.54155e-08
-9.86192e-08
3.42767e-08
-2.69733e-08
1.79518e-07
-1.86821e-07
1.69904e-08
-4.72683e-09
2.54263e-07
-2.66526e-07
-9.67322e-09
2.42783e-08
2.7693e-07
-2.91535e-07
-3.74761e-08
4.76717e-08
2.27244e-07
-2.3744e-07
-5.38413e-08
5.79474e-08
1.78213e-07
-1.82319e-07
-6.51846e-08
7.50964e-08
2.09338e-07
-2.1925e-07
-8.56286e-08
1.02258e-07
2.37627e-07
-2.54257e-07
-1.15594e-07
1.2974e-07
2.04144e-07
-2.1829e-07
-1.40164e-07
1.5053e-07
1.33265e-07
-1.43631e-07
-1.62549e-07
1.62959e-07
2.63461e-08
-2.67562e-08
-1.67742e-07
1.69331e-07
-3.06423e-08
2.90535e-08
-1.62638e-07
1.5292e-07
-1.09008e-07
1.18727e-07
-1.43844e-07
1.36586e-07
-1.28133e-07
1.35391e-07
-1.29563e-07
1.22901e-07
-1.37801e-07
1.44463e-07
-1.15352e-07
1.07664e-07
-1.42565e-07
1.50253e-07
-9.96383e-08
9.23686e-08
-1.41475e-07
1.48745e-07
-8.49379e-08
7.78284e-08
-1.35285e-07
1.42394e-07
-7.03281e-08
6.34471e-08
-1.26705e-07
1.33586e-07
-5.65696e-08
5.04622e-08
-1.17199e-07
1.23307e-07
-4.44534e-08
3.90732e-08
-1.07445e-07
1.12825e-07
-3.37114e-08
2.88786e-08
-9.7922e-08
1.02755e-07
-2.4029e-08
1.96266e-08
-8.88015e-08
9.32039e-08
-1.52291e-08
1.12902e-08
-8.0412e-08
8.43509e-08
-7.38588e-09
3.89162e-09
-7.27207e-08
7.62149e-08
-2.71921e-07
2.82696e-07
-1.07743e-08
2.18341e-08
-3.01755e-08
-2.07083e-07
2.15424e-07
3.74144e-08
-4.91039e-08
-2.05042e-07
2.16731e-07
3.94857e-08
-4.32384e-08
-6.31437e-08
6.68964e-08
4.40108e-08
-4.50756e-08
1.35319e-08
-1.2467e-08
4.38327e-08
-4.08358e-08
1.01722e-07
-1.04719e-07
3.57063e-08
-2.85697e-08
1.94047e-07
-2.01183e-07
1.85878e-08
-5.98158e-09
2.78957e-07
-2.91563e-07
-9.07835e-09
2.45624e-08
3.06564e-07
-3.22049e-07
-3.84585e-08
4.88621e-08
2.47728e-07
-2.58132e-07
-5.39297e-08
5.63642e-08
1.85644e-07
-1.88078e-07
-6.32544e-08
7.30622e-08
2.29139e-07
-2.38947e-07
-8.37185e-08
1.02369e-07
2.71905e-07
-2.90555e-07
-1.17544e-07
1.31733e-07
2.32606e-07
-2.46795e-07
-1.4623e-07
1.55499e-07
1.53703e-07
-1.62973e-07
-1.68227e-07
1.7068e-07
2.74918e-08
-2.99452e-08
-1.7955e-07
1.82075e-07
-2.6868e-08
2.43427e-08
-1.72293e-07
1.59132e-07
-1.29961e-07
1.43122e-07
-1.48265e-07
1.40863e-07
-1.42706e-07
1.50108e-07
-1.34223e-07
1.27771e-07
-1.51223e-07
1.57675e-07
-1.20139e-07
1.12198e-07
-1.57769e-07
1.65711e-07
-1.03619e-07
9.54592e-08
-1.56698e-07
1.64858e-07
-8.71415e-08
7.97165e-08
-1.50234e-07
1.57659e-07
-7.24601e-08
6.57812e-08
-1.40078e-07
1.46757e-07
-5.88094e-08
5.24174e-08
-1.29199e-07
1.35591e-07
-4.61307e-08
4.05567e-08
-1.18271e-07
1.23845e-07
-3.49682e-08
2.98813e-08
-1.07635e-07
1.12722e-07
-2.47911e-08
2.0201e-08
-9.76982e-08
1.02288e-07
-1.56288e-08
1.15404e-08
-8.84344e-08
9.25228e-08
-7.51616e-09
3.95601e-09
-7.97261e-08
8.32862e-08
-2.93514e-07
3.04379e-07
-1.08648e-08
2.21079e-08
-3.03736e-08
-2.23733e-07
2.31999e-07
3.80106e-08
-5.06116e-08
-2.28864e-07
2.41465e-07
3.94498e-08
-4.33463e-08
-7.07248e-08
7.46213e-08
4.45137e-08
-4.59065e-08
1.12412e-08
-9.84835e-09
4.49348e-08
-4.21638e-08
1.07605e-07
-1.10376e-07
3.72629e-08
-3.03464e-08
2.08218e-07
-2.15134e-07
2.0387e-08
-7.41494e-09
3.0435e-07
-3.17322e-07
-8.39735e-09
2.49307e-08
3.38042e-07
-3.54575e-07
-3.97475e-08
5.04669e-08
2.68678e-07
-2.79397e-07
-5.41095e-08
5.43763e-08
1.89498e-07
-1.89765e-07
-6.10007e-08
7.03723e-08
2.4859e-07
-2.57961e-07
-8.14504e-08
1.01395e-07
3.10013e-07
-3.29958e-07
-1.21169e-07
1.3249e-07
2.60174e-07
-2.71494e-07
-1.53025e-07
1.5992e-07
1.71007e-07
-1.77902e-07
-1.69747e-07
1.83483e-07
3.6509e-08
-5.02448e-08
-1.974e-07
1.97705e-07
-2.22216e-08
2.19169e-08
-1.82186e-07
1.64362e-07
-1.58541e-07
1.76365e-07
-1.51708e-07
1.44976e-07
-1.57334e-07
1.64066e-07
-1.39749e-07
1.3391e-07
-1.63857e-07
1.69696e-07
-1.25825e-07
1.17015e-07
-1.73842e-07
1.82652e-07
-1.07315e-07
9.79031e-08
-1.73093e-07
1.82505e-07
-8.81261e-08
7.96715e-08
-1.65001e-07
1.73455e-07
-7.17049e-08
6.47683e-08
-1.54408e-07
1.61345e-07
-5.81367e-08
5.22577e-08
-1.42198e-07
1.48077e-07
-4.62348e-08
4.0664e-08
-1.29453e-07
1.35024e-07
-3.50622e-08
3.00441e-08
-1.17752e-07
1.2277e-07
-2.50895e-08
2.06788e-08
-1.06775e-07
1.11185e-07
-1.6307e-08
1.23068e-08
-9.6544e-08
1.00544e-07
-8.18824e-09
4.36995e-09
-8.69732e-08
9.07915e-08
-3.15291e-07
3.26252e-07
-1.09607e-08
2.24104e-08
-3.05565e-08
-2.40211e-07
2.48357e-07
3.86752e-08
-5.23031e-08
-2.54564e-07
2.68192e-07
3.93953e-08
-4.34012e-08
-7.85777e-08
8.25835e-08
4.50592e-08
-4.68049e-08
8.28217e-09
-6.53644e-09
4.61309e-08
-4.36041e-08
1.13027e-07
-1.15554e-07
3.8951e-08
-3.23242e-08
2.21916e-07
-2.28543e-07
2.24125e-08
-9.05441e-09
3.30486e-07
-3.43844e-07
-7.62985e-09
2.53989e-08
3.717e-07
-3.89469e-07
-4.14506e-08
5.26368e-08
2.90329e-07
-3.01515e-07
-5.44255e-08
5.19104e-08
1.88726e-07
-1.8621e-07
-5.84224e-08
6.6967e-08
2.66957e-07
-2.75501e-07
-7.83801e-08
9.95837e-08
3.50271e-07
-3.71475e-07
-1.25983e-07
1.30896e-07
2.79487e-07
-2.844e-07
-1.56121e-07
1.64832e-07
1.84673e-07
-1.93384e-07
-1.75243e-07
2.06069e-07
7.32146e-08
-1.04041e-07
-2.18286e-07
2.09174e-07
-2.54769e-08
3.45892e-08
-1.86406e-07
1.67304e-07
-1.95694e-07
2.14797e-07
-1.56535e-07
1.52002e-07
-1.7e-07
1.74533e-07
-1.47743e-07
1.41562e-07
-1.75634e-07
1.81815e-07
-1.33566e-07
1.24696e-07
-1.91576e-07
2.00446e-07
-1.13374e-07
1.01963e-07
-1.89743e-07
2.01154e-07
-9.13463e-08
8.3147e-08
-1.82579e-07
1.90779e-07
-7.57386e-08
6.92542e-08
-1.69541e-07
1.76025e-07
-6.22252e-08
5.54643e-08
-1.5466e-07
1.61421e-07
-4.85213e-08
4.23312e-08
-1.41024e-07
1.47215e-07
-3.6251e-08
3.09341e-08
-1.27939e-07
1.33256e-07
-2.57409e-08
2.11416e-08
-1.15666e-07
1.20266e-07
-1.65795e-08
1.24402e-08
-1.0464e-07
1.08779e-07
-8.23726e-09
4.39241e-09
-9.46794e-08
9.85243e-08
-3.37264e-07
3.48328e-07
-1.10642e-08
2.27383e-08
-3.07086e-08
-2.56423e-07
2.64393e-07
3.94042e-08
-5.41893e-08
-2.8238e-07
2.97165e-07
3.9311e-08
-4.33782e-08
-8.66268e-08
9.0694e-08
4.56396e-08
-4.77642e-08
4.60483e-09
-2.48022e-09
4.74146e-08
-4.51504e-08
1.17952e-07
-1.20216e-07
4.07592e-08
-3.45151e-08
2.34991e-07
-2.41235e-07
2.46835e-08
-1.09283e-08
3.57399e-07
-3.71154e-07
-6.73645e-09
2.5969e-08
4.07935e-07
-4.27168e-07
-4.36973e-08
5.55526e-08
3.13006e-07
-3.24861e-07
-5.49048e-08
4.88511e-08
1.82031e-07
-1.75977e-07
-5.52974e-08
6.27932e-08
2.83552e-07
-2.91048e-07
-7.39393e-08
9.96868e-08
3.94636e-07
-4.20384e-07
-1.26748e-07
1.33609e-07
2.88867e-07
-2.95728e-07
-1.54712e-07
1.7863e-07
2.07286e-07
-2.31203e-07
-2.04497e-07
2.29587e-07
1.36425e-07
-1.61515e-07
-2.29458e-07
2.11585e-07
-4.96998e-08
6.75732e-08
-1.89866e-07
1.74252e-07
-2.31802e-07
2.47415e-07
-1.67961e-07
1.68478e-07
-1.76623e-07
1.76105e-07
-1.64774e-07
1.55111e-07
-1.89397e-07
1.9906e-07
-1.42655e-07
1.30372e-07
-2.11691e-07
2.23975e-07
-1.18142e-07
1.07228e-07
-2.11351e-07
2.22264e-07
-9.66082e-08
8.75277e-08
-1.99727e-07
2.08807e-07
-7.82146e-08
6.96296e-08
-1.83394e-07
1.91979e-07
-6.12346e-08
5.41109e-08
-1.6858e-07
1.75704e-07
-4.7456e-08
4.18931e-08
-1.53155e-07
1.58718e-07
-3.62409e-08
3.10747e-08
-1.38534e-07
1.43701e-07
-2.57208e-08
2.07884e-08
-1.25102e-07
1.30034e-07
-1.58132e-08
1.14856e-08
-1.13005e-07
1.17333e-07
-7.40143e-09
3.91991e-09
-1.02171e-07
1.05653e-07
-3.59445e-07
3.70619e-07
-1.11736e-08
2.30933e-08
-3.08201e-08
-2.72251e-07
2.79978e-07
4.01988e-08
-5.6292e-08
-3.12584e-07
3.28678e-07
3.91905e-08
-4.32551e-08
-9.47691e-08
9.88337e-08
4.62542e-08
-4.8786e-08
1.5564e-10
2.37619e-09
4.87871e-08
-4.68037e-08
1.22342e-07
-1.24325e-07
4.26805e-08
-3.69381e-08
2.47245e-07
-2.52987e-07
2.72258e-08
-1.30728e-08
3.85109e-07
-3.99262e-07
-5.70286e-09
2.66439e-08
4.47218e-07
-4.68159e-07
-4.66667e-08
5.94566e-08
3.37148e-07
-3.49938e-07
-5.55662e-08
4.50624e-08
1.67821e-07
-1.57317e-07
-5.13527e-08
5.72925e-08
2.97854e-07
-3.03794e-07
-6.99939e-08
9.74279e-08
4.4797e-07
-4.75404e-07
-1.21408e-07
1.36401e-07
3.05629e-07
-3.20622e-07
-1.60309e-07
2.09057e-07
2.70013e-07
-3.1876e-07
-2.31676e-07
2.26357e-07
1.72005e-07
-1.66685e-07
-2.28921e-07
2.26416e-07
-8.12104e-08
8.37154e-08
-2.19315e-07
2.01742e-07
-2.63892e-07
2.81466e-07
-1.78647e-07
1.69794e-07
-1.76213e-07
1.85066e-07
-1.7324e-07
1.70319e-07
-2.0814e-07
2.11062e-07
-1.56263e-07
1.40263e-07
-2.38406e-07
2.54406e-07
-1.24123e-07
1.1085e-07
-2.32831e-07
2.46103e-07
-9.87374e-08
8.84412e-08
-2.19338e-07
2.29634e-07
-7.82081e-08
6.98504e-08
-2.0138e-07
2.09738e-07
-6.2301e-08
5.58826e-08
-1.82645e-07
1.89064e-07
-4.94427e-08
4.34539e-08
-1.64395e-07
1.70384e-07
-3.73183e-08
3.18915e-08
-1.49042e-07
1.54469e-07
-2.64845e-08
2.1632e-08
-1.35066e-07
1.39919e-07
-1.67244e-08
1.22982e-08
-1.21737e-07
1.26163e-07
-7.96487e-09
4.22219e-09
-1.0914e-07
1.12883e-07
-3.8185e-07
3.93139e-07
-1.12896e-08
2.34808e-08
-3.08834e-08
-2.87554e-07
2.94957e-07
4.10675e-08
-5.86495e-08
-3.45491e-07
3.63073e-07
3.9036e-08
-4.30152e-08
-1.02867e-07
1.06847e-07
4.69121e-08
-4.98825e-08
-5.12334e-09
8.09375e-09
5.02589e-08
-4.85724e-08
1.26162e-07
-1.27849e-07
4.47207e-08
-3.96188e-08
2.58428e-07
-2.6353e-07
3.00726e-08
-1.55322e-08
4.13612e-07
-4.28152e-07
-4.45835e-09
2.74173e-08
4.90068e-07
-5.13027e-07
-5.05716e-08
6.45577e-08
3.63303e-07
-3.77289e-07
-5.63197e-08
4.03596e-08
1.44208e-07
-1.28248e-07
-4.6375e-08
5.07462e-08
3.08808e-07
-3.13179e-07
-6.4279e-08
8.48906e-08
5.0023e-07
-5.20842e-07
-1.09838e-07
1.54886e-07
3.4847e-07
-3.93518e-07
-1.83782e-07
1.95164e-07
3.58652e-07
-3.70034e-07
-2.05324e-07
1.96687e-07
1.52989e-07
-1.44352e-07
-2.06088e-07
2.31756e-07
-7.27048e-08
4.70372e-08
-2.43301e-07
2.26839e-07
-2.9872e-07
3.15183e-07
-1.97432e-07
1.69727e-07
-2.05584e-07
2.33271e-07
-1.54789e-07
1.56902e-07
-2.07061e-07
2.04948e-07
-1.56699e-07
1.45082e-07
-2.70125e-07
2.81742e-07
-1.27504e-07
1.10978e-07
-2.60661e-07
2.77187e-07
-9.68408e-08
8.7453e-08
-2.39846e-07
2.49234e-07
-7.98275e-08
7.34688e-08
-2.17485e-07
2.23844e-07
-6.61459e-08
5.86731e-08
-1.95678e-07
2.0315e-07
-5.11016e-08
4.40945e-08
-1.77294e-07
1.84301e-07
-3.73281e-08
3.17625e-08
-1.60158e-07
1.65724e-07
-2.66356e-08
2.2321e-08
-1.44608e-07
1.48923e-07
-1.80174e-08
1.38919e-08
-1.30438e-07
1.34564e-07
-9.40116e-09
5.09658e-09
-1.1692e-07
1.21224e-07
-4.04491e-07
4.15906e-07
-1.14148e-08
2.39005e-08
-3.08794e-08
-3.0216e-07
3.09139e-07
4.20028e-08
-6.12829e-08
-3.81475e-07
4.00755e-07
3.8833e-08
-4.26212e-08
-1.10745e-07
1.14533e-07
4.7606e-08
-5.10488e-08
-1.12957e-08
1.47385e-08
5.18237e-08
-5.0446e-08
1.29382e-07
-1.30759e-07
4.68743e-08
-4.25674e-08
2.68254e-07
-2.72561e-07
3.32483e-08
-1.83565e-08
4.42874e-07
-4.57766e-07
-2.95311e-09
2.81737e-08
5.37099e-07
-5.62319e-07
-5.51745e-08
7.01582e-08
3.91869e-07
-4.06853e-07
-5.63929e-08
3.43317e-08
1.09249e-07
-8.71882e-08
-4.01492e-08
4.52542e-08
3.17572e-07
-3.22677e-07
-5.6401e-08
7.71547e-08
5.38955e-07
-5.59709e-07
-1.17259e-07
1.51541e-07
4.43307e-07
-4.77589e-07
-1.45529e-07
1.40418e-07
3.58332e-07
-3.53221e-07
-1.76799e-07
2.25455e-07
1.57193e-07
-2.05849e-07
-2.58806e-07
2.9004e-07
-1.02285e-08
-2.10062e-08
-3.0879e-07
2.83417e-07
-3.35151e-07
3.60524e-07
-2.48513e-07
2.16442e-07
-2.62624e-07
2.94695e-07
-1.79595e-07
1.48626e-07
-2.16772e-07
2.47735e-07
-1.32002e-07
1.26679e-07
-2.84641e-07
2.89964e-07
-1.21328e-07
1.13807e-07
-2.90924e-07
2.98445e-07
-1.03472e-07
9.24216e-08
-2.61946e-07
2.72996e-07
-8.07535e-08
7.03723e-08
-2.32671e-07
2.43052e-07
-6.10429e-08
5.33471e-08
-2.10758e-07
2.18454e-07
-4.66884e-08
4.10693e-08
-1.90712e-07
1.96331e-07
-3.58266e-08
3.11521e-08
-1.70993e-07
1.75668e-07
-2.62627e-08
2.17893e-08
-1.53273e-07
1.57746e-07
-1.72656e-08
1.31218e-08
-1.38417e-07
1.42561e-07
-8.82991e-09