/*--------------------------------*- C++ -*----------------------------------*\
| =========                 |                                                 |
| \\      /  F ield         | OpenFOAM: The Open Source CFD Toolbox           |
|  \\    /   O peration     | Version:  2.4.0                                 |
|   \\  /    A nd           | Web:      www.OpenFOAM.org                      |
|    \\/     M anipulation  |                                                 |
\*---------------------------------------------------------------------------*/
FoamFile
{
    version     2.0;
    format      ascii;
    class       volScalarField;
    location    "0.139";
    object      alpha.water;
}
// * * * * * * * * * * * * * * * * * * * * * * * * * * * * * * * * * * * * * //

dimensions      [0 0 0 0 0 0 0];

internalField   nonuniform List<scalar> 
60000
(
1
1
1
1
1
1
1
1
1
1
1
1
1
1
1
1
1
1
1
1
1
1
1
1
1
1
1
1
1
1
1
1
1
1
1
1
1
1
1
1
1
1
1
1
1
1
1
1
1
1
1
1
1
1
1
1
1
1
1
1
1
1
1
1
1
1
1
1
1
1
1
1
1
1
1
1
1
1
1
1
1
1
1
1
1
1
1
1
1
1
1
1
1
1
1
1
1
1
1
1
1
1
1
1
1
1
1
1
1
1
1
1
1
1
1
1
1
1
1
1
1
1
1
1
1
1
1
1
1
1
1
1
1
1
1
1
1
1
1
1
1
1
1
1
1
1
1
1
1
1
1
1
1
1
1
1
1
1
1
1
1
1
1
1
1
1
1
1
1
1
1
1
1
1
1
1
1
1
1
1
1
1
1
1
1
1
1
1
1
1
1
1
1
1
1
1
1
1
1
1
1
1
1
1
1
1
1
1
1
1
1
1
1
1
1
1
1
1
1
1
1
1
1
1
1
1
1
1
1
1
1
1
1
1
1
1
1
1
1
1
1
1
1
1
1
1
1
1
1
1
1
1
1
1
1
1
1
1
1
1
1
1
1
1
1
1
1
1
1
1
1
1
1
1
1
1
1
1
1
1
1
1
1
1
1
1
1
1
1
1
1
1
1
1
1
1
1
1
1
1
1
1
1
1
1
1
1
1
1
1
1
1
1
1
1
1
1
1
1
1
1
1
1
1
1
1
1
1
1
1
1
1
1
1
1
1
1
1
1
1
1
1
1
1
1
1
1
1
1
1
1
1
1
1
1
1
1
1
1
1
1
1
1
1
1
1
1
1
1
1
1
1
1
1
1
1
1
1
1
1
1
1
1
1
1
1
1
1
1
1
1
1
1
1
1
1
1
1
1
1
1
1
1
1
1
1
1
1
1
1
1
1
1
1
1
1
1
1
1
1
1
1
1
1
1
1
1
1
1
1
1
1
1
1
1
1
1
1
1
1
1
1
1
1
1
1
1
1
1
1
1
1
1
1
1
1
1
1
1
1
1
1
1
1
1
1
1
1
1
1
1
1
1
1
1
1
1
1
1
1
1
1
1
1
1
1
1
1
1
1
1
1
1
1
1
1
1
1
1
1
1
1
1
1
1
1
1
1
1
1
1
1
1
1
1
1
1
1
1
1
1
1
1
1
1
1
1
1
1
1
1
1
1
1
1
1
1
1
1
1
1
1
1
1
1
1
1
1
1
1
1
1
1
1
1
1
1
1
1
1
1
1
1
1
1
1
1
1
1
1
1
1
1
1
1
1
1
1
1
1
1
1
1
1
1
1
1
1
1
1
1
1
1
1
1
1
1
1
1
1
1
1
1
1
1
1
1
1
1
1
1
1
1
1
1
1
1
1
1
1
1
1
1
1
1
1
1
1
1
1
1
1
1
1
1
1
1
1
1
1
1
1
1
1
1
1
1
1
1
1
1
1
1
1
1
1
1
1
1
1
1
1
1
1
1
1
1
1
1
1
1
1
1
1
1
1
1
1
1
1
1
1
1
1
1
1
1
1
1
1
1
1
1
1
1
1
1
1
1
1
1
1
1
1
1
1
1
1
1
1
1
1
1
1
1
1
1
1
1
1
1
1
1
1
1
1
1
1
1
1
1
1
1
1
1
1
1
1
1
1
1
1
1
1
1
1
1
1
1
1
1
1
1
1
1
1
1
1
1
1
1
1
1
1
1
1
1
1
1
1
1
1
1
1
1
1
1
1
1
1
1
1
1
1
1
1
1
1
1
1
1
1
1
1
1
1
1
1
1
1
1
1
1
1
1
1
1
1
1
1
1
1
1
1
1
1
1
1
1
1
1
1
1
1
1
1
1
1
1
1
1
1
1
1
1
1
1
1
1
1
1
1
1
1
1
1
1
1
1
1
1
1
1
1
1
1
1
1
1
1
1
1
1
1
1
1
1
1
1
1
1
1
1
1
1
1
1
1
1
1
1
1
1
1
1
1
1
1
1
1
1
1
1
1
1
1
1
1
1
1
1
1
1
1
1
1
1
1
1
1
1
1
1
1
1
1
1
1
1
1
1
1
1
1
1
1
1
1
1
1
1
1
1
1
1
1
1
1
1
1
1
1
1
1
1
1
1
1
1
1
1
1
1
1
1
1
1
1
1
1
1
1
1
1
1
1
1
1
1
1
1
1
1
1
1
1
1
1
1
1
1
1
1
1
1
1
1
1
1
1
1
1
1
1
1
1
1
1
1
1
1
1
1
1
1
1
1
1
1
1
1
1
1
1
1
1
1
1
1
1
1
1
1
1
1
1
1
1
1
1
1
1
1
1
1
1
1
1
1
1
1
1
1
1
1
1
1
1
1
1
1
1
1
1
1
1
1
1
1
1
1
1
1
1
1
1
1
1
1
1
1
1
1
1
1
1
1
1
1
1
1
1
1
1
1
1
1
1
1
1
1
1
1
1
1
1
1
1
1
1
1
1
1
1
1
1
1
1
1
1
1
1
1
1
1
1
1
1
1
1
1
1
1
1
1
1
1
1
1
1
1
1
1
1
1
1
1
1
1
1
1
1
1
1
1
1
1
1
1
1
1
1
1
1
1
1
1
1
1
1
1
1
1
1
1
1
1
1
1
1
1
1
1
1
1
1
1
1
1
1
1
1
1
1
1
1
1
1
1
1
1
1
1
1
1
1
1
1
1
1
1
1
1
1
1
1
1
1
1
1
1
1
1
1
1
1
1
1
1
1
1
1
1
1
1
1
1
1
1
1
1
1
1
1
1
1
1
1
1
1
1
1
1
1
1
1
1
1
1
1
1
1
1
1
1
1
1
1
1
1
1
1
1
1
1
1
1
1
1
1
1
1
1
1
1
1
1
1
1
1
1
1
1
1
1
1
1
1
1
1
1
1
1
1
1
1
1
1
1
1
1
1
1
1
1
1
1
1
1
1
1
1
1
1
1
1
1
1
1
1
1
1
1
1
1
1
1
1
1
1
1
1
1
1
1
1
1
1
1
1
1
1
1
1
1
1
1
1
1
1
1
1
1
1
1
1
1
1
1
1
1
1
1
1
1
1
1
1
1
1
1
1
1
1
1
1
1
1
1
1
1
1
1
1
1
1
1
1
1
1
1
1
1
1
1
1
1
1
1
1
1
1
1
1
1
1
1
1
1
1
1
1
1
1
1
1
1
1
1
1
1
1
1
1
1
1
1
1
1
1
1
1
1
1
1
1
1
1
1
1
1
1
1
1
1
1
1
1
1
1
1
1
1
1
1
1
1
1
1
1
1
1
1
1
1
1
1
1
1
1
1
1
1
1
1
1
1
1
1
1
1
1
1
1
1
1
1
1
1
1
1
1
1
1
1
1
1
1
1
1
1
1
1
1
1
1
1
1
1
1
1
1
1
1
1
1
1
1
1
1
1
1
1
1
1
1
1
1
1
1
1
1
1
1
1
1
1
1
1
1
1
1
1
1
1
1
1
1
1
1
1
1
1
1
1
1
1
1
1
1
1
1
1
1
1
1
1
1
1
1
1
1
1
1
1
1
1
1
1
1
1
1
1
1
1
1
1
1
1
1
1
1
1
1
1
1
1
1
1
1
1
1
1
1
1
1
1
1
1
1
1
1
1
1
1
1
1
1
1
1
1
1
1
1
1
1
1
1
1
1
1
1
1
1
1
1
1
1
1
1
1
1
1
1
1
1
1
1
1
1
1
1
1
1
1
1
1
1
1
1
1
1
1
1
1
1
1
1
1
1
1
1
1
1
1
1
1
1
1
1
1
1
1
1
1
1
1
1
1
1
1
1
1
1
1
1
1
1
1
1
1
1
1
1
1
1
1
1
1
1
1
1
1
1
1
1
1
1
1
1
1
1
1
1
1
1
1
1
1
1
1
1
1
1
1
1
1
1
1
1
1
1
1
1
1
1
1
1
1
1
1
1
1
1
1
1
1
1
1
1
1
1
1
1
1
1
1
1
1
1
1
1
1
1
1
1
1
1
1
1
1
1
1
1
1
1
1
1
1
1
1
1
1
1
1
1
1
1
1
1
1
1
1
1
1
1
1
1
1
1
1
1
1
1
1
1
1
1
1
1
1
1
1
1
1
1
1
1
1
1
1
1
1
1
1
1
1
1
1
1
1
1
1
1
1
1
1
1
1
1
1
1
1
1
1
1
1
1
1
1
1
1
1
1
1
1
1
1
1
1
1
1
1
1
1
1
1
1
1
1
1
1
1
1
1
1
1
1
1
1
1
1
1
1
1
1
1
1
1
1
1
1
1
1
1
1
1
1
1
1
1
1
1
1
1
1
1
1
1
1
1
1
1
1
1
1
1
1
1
1
1
1
1
1
1
1
1
1
1
1
1
1
1
1
1
1
1
1
1
1
1
1
1
1
1
1
1
1
1
1
1
1
1
1
1
1
1
1
1
1
1
1
1
1
1
1
1
1
1
1
1
1
1
1
1
1
1
1
1
1
1
1
1
1
1
1
1
1
1
1
1
1
1
1
1
1
1
1
1
1
1
1
1
1
1
1
1
1
1
1
1
1
1
1
1
1
1
1
1
1
1
1
1
1
1
1
1
1
1
1
1
1
1
1
1
1
1
1
1
1
1
1
1
1
1
1
1
1
1
1
1
1
1
1
1
1
1
1
1
1
1
1
1
1
1
1
1
1
1
1
1
1
1
1
1
1
1
1
1
1
1
1
1
1
1
1
1
1
1
1
1
1
1
1
1
1
1
1
1
1
1
1
1
1
1
1
1
1
1
1
1
1
1
1
1
1
1
1
1
1
1
1
1
1
1
1
1
1
1
1
1
1
1
1
1
1
1
1
1
1
1
1
1
1
1
1
1
1
1
1
1
1
1
1
1
1
1
1
1
1
1
1
1
1
1
1
1
1
1
1
1
1
1
1
1
1
1
1
1
1
1
1
1
1
1
1
1
1
1
1
1
1
1
1
1
1
1
1
1
1
1
1
1
1
1
1
1
1
1
1
1
1
1
1
1
1
1
1
1
1
1
1
1
1
1
1
1
1
1
1
1
1
1
1
1
1
1
1
1
1
1
1
1
1
1
1
1
1
1
1
1
1
1
1
1
1
1
1
1
1
1
1
1
1
1
1
1
1
1
1
1
1
1
1
1
1
1
1
1
1
1
1
1
1
1
1
1
1
1
1
1
1
1
1
1
1
1
1
1
1
1
1
1
1
1
1
1
1
1
1
1
1
1
1
1
1
1
1
1
1
1
1
1
1
1
1
1
1
1
1
1
1
1
1
1
1
1
1
1
1
1
1
1
1
1
1
1
1
1
1
1
1
1
1
1
1
1
1
1
1
1
1
1
1
1
1
1
1
1
1
1
1
1
1
1
1
1
1
1
1
1
1
1
1
1
1
1
1
1
1
1
1
1
1
1
1
1
1
1
1
1
1
1
1
1
1
1
1
1
1
1
1
1
1
1
1
1
1
1
1
1
1
1
1
1
1
1
1
1
1
1
1
1
1
1
1
1
1
1
1
1
1
1
1
1
1
1
1
1
1
1
1
1
1
1
1
1
1
1
1
1
1
1
1
1
1
1
1
1
1
1
1
1
1
1
1
1
1
1
1
1
1
1
1
1
1
1
1
1
1
1
1
1
1
1
1
1
1
1
1
1
1
1
1
1
1
1
1
1
1
1
1
1
1
1
1
1
1
1
1
1
1
1
1
1
1
1
1
1
1
1
1
1
1
1
1
1
1
1
1
1
1
1
1
1
1
1
1
1
1
1
1
1
1
1
1
1
1
1
1
1
1
1
1
1
1
1
1
1
1
1
1
1
1
1
1
1
1
1
1
1
1
1
1
1
1
1
1
1
1
1
1
1
1
1
1
1
1
1
1
1
1
1
1
1
1
1
1
1
1
1
1
1
1
1
1
1
1
1
1
1
1
1
1
1
1
1
1
1
1
1
1
1
1
1
1
1
1
1
1
1
1
1
1
1
1
1
1
1
1
1
1
1
1
1
1
1
1
1
1
1
1
1
1
1
1
1
1
1
1
1
1
1
1
1
1
1
1
1
1
1
1
1
1
1
1
1
1
1
1
1
1
1
1
1
1
1
1
1
1
1
1
1
1
1
1
1
1
1
1
1
1
1
1
1
1
1
1
1
1
1
1
1
1
1
1
1
1
1
1
1
1
1
1
1
1
1
1
1
1
1
1
1
1
1
1
1
1
1
1
1
1
1
1
1
1
1
1
1
1
1
1
1
1
1
1
1
1
1
1
1
1
1
1
1
1
1
1
1
1
1
1
1
1
1
1
1
1
1
1
1
1
1
1
1
1
1
1
1
1
1
1
1
1
1
1
1
1
1
1
1
1
1
1
1
1
1
1
1
1
1
1
1
1
1
1
1
1
1
1
1
1
1
1
1
1
1
1
1
1
1
1
1
1
1
1
1
1
1
1
1
1
1
1
1
1
1
1
1
1
1
1
1
1
1
1
1
1
1
1
1
1
1
1
1
1
1
1
1
1
1
1
1
1
1
1
1
1
1
1
1
1
1
1
1
1
1
1
1
1
1
1
1
1
1
1
1
1
1
1
1
1
1
1
1
1
1
1
1
1
1
1
1
1
1
1
1
1
1
1
1
1
1
1
1
1
1
1
1
1
1
1
1
1
1
1
1
1
1
1
1
1
1
1
1
1
1
1
1
1
1
1
1
1
1
1
1
1
1
1
1
1
1
1
1
1
1
1
1
1
1
1
1
1
1
1
1
1
1
1
1
1
1
1
1
1
1
1
1
1
1
1
1
1
1
1
1
1
1
1
1
1
1
1
1
1
1
1
1
1
1
1
1
1
1
1
1
1
1
1
1
1
1
1
1
1
1
1
1
1
1
1
1
1
1
1
1
1
1
1
1
1
1
1
1
1
1
1
1
1
1
1
1
1
1
1
1
1
1
1
1
1
1
1
1
1
1
1
1
1
1
1
1
1
1
1
1
1
1
1
1
1
1
1
1
1
1
1
1
1
1
1
1
1
1
1
1
1
1
1
1
1
1
1
1
1
1
1
1
1
1
1
1
1
1
1
1
1
1
1
1
1
1
1
1
1
1
1
1
1
1
1
1
1
1
1
1
1
1
1
1
1
1
1
1
1
1
1
1
1
1
1
1
1
1
1
1
1
1
1
1
1
1
1
1
1
1
1
1
1
1
1
1
1
1
1
1
1
1
1
1
1
1
1
1
1
1
1
1
1
1
1
1
1
1
1
1
1
1
1
1
1
1
1
1
1
1
1
1
1
1
1
1
1
1
1
1
1
1
1
1
1
1
1
1
1
1
1
1
1
1
1
1
1
1
1
1
1
1
1
1
1
1
1
1
1
1
1
1
1
1
1
1
1
1
1
1
1
1
1
1
1
1
1
1
1
1
1
1
1
1
1
1
1
1
1
1
1
1
1
1
1
1
1
1
1
1
1
1
1
1
1
1
1
1
1
1
1
1
1
1
1
1
1
1
1
1
1
1
1
1
1
1
1
1
1
1
1
1
1
1
1
1
1
1
1
1
1
1
1
1
1
1
1
1
1
1
1
1
1
1
1
1
1
1
1
1
1
1
1
1
1
1
1
1
1
1
1
1
1
1
1
1
1
1
1
1
1
1
1
1
1
1
1
1
1
1
1
1
1
1
1
1
1
1
1
1
1
1
1
1
1
1
1
1
1
1
1
1
1
1
1
1
1
1
1
1
1
1
1
1
1
1
1
1
1
1
1
1
1
1
1
1
1
1
1
1
1
1
1
1
1
1
1
1
1
1
1
1
1
1
1
1
1
1
1
1
1
1
1
1
1
1
1
1
1
1
1
1
1
1
1
1
1
1
1
1
1
1
1
1
1
1
1
1
1
1
1
1
1
1
1
1
1
1
1
1
1
1
1
1
1
1
1
1
1
1
1
1
1
1
1
1
1
1
1
1
1
1
1
1
1
1
1
1
1
1
1
1
1
1
1
1
1
1
1
1
1
1
1
1
1
1
1
1
1
1
1
1
1
1
1
1
1
1
1
1
1
1
1
1
1
1
1
1
1
1
1
1
1
1
1
1
1
1
1
1
1
1
1
1
1
1
1
1
1
1
1
1
1
1
1
1
1
1
1
1
1
1
1
1
1
1
1
1
1
1
1
1
1
1
1
1
1
1
1
1
1
1
1
1
1
1
1
1
1
1
1
1
1
1
1
1
1
1
1
1
1
1
1
1
1
1
1
1
1
1
1
1
1
1
1
1
1
1
1
1
1
1
1
1
1
1
1
1
1
1
1
1
1
1
1
1
1
1
1
1
1
1
1
1
1
1
1
1
1
1
1
1
1
1
1
1
1
1
1
1
1
1
1
1
1
1
1
1
1
1
1
1
1
1
1
1
1
1
1
1
1
1
1
1
1
1
1
1
1
1
1
1
1
1
1
1
1
1
1
1
1
1
1
1
1
1
1
1
1
1
1
1
1
1
1
1
1
1
1
1
1
1
1
1
1
1
1
1
1
1
1
1
1
1
1
1
1
1
1
1
1
1
1
1
1
1
1
1
1
1
1
1
1
1
1
1
1
1
1
1
1
1
1
1
1
1
1
1
1
1
1
1
1
1
1
1
1
1
1
1
1
1
1
1
1
1
1
1
1
1
1
1
1
1
1
1
1
1
1
1
1
1
1
1
1
1
1
1
1
1
1
1
1
1
1
1
1
1
1
1
1
1
1
1
1
1
1
1
1
1
1
1
1
1
1
1
1
1
1
1
1
1
1
1
1
1
1
1
1
1
1
1
1
1
1
1
1
1
1
1
1
1
1
1
1
1
1
1
1
1
1
1
1
1
1
1
1
1
1
1
1
1
1
1
1
1
1
1
1
1
1
1
1
1
1
1
1
1
1
1
1
1
1
1
1
1
1
1
1
1
1
1
1
1
1
1
1
1
1
1
1
1
1
1
1
1
1
1
1
1
1
1
1
1
1
1
1
1
1
1
1
1
1
1
1
1
1
1
1
1
1
1
1
1
1
1
1
1
1
1
1
1
1
1
1
1
1
1
1
1
1
1
1
1
1
1
1
1
1
1
1
1
1
1
1
1
1
1
1
1
1
1
1
1
1
1
1
1
1
1
1
1
1
1
1
1
1
1
1
1
1
1
1
1
1
1
1
1
1
1
1
1
1
1
1
1
1
1
1
1
1
1
1
1
1
1
1
1
1
1
1
1
1
1
1
1
1
1
1
1
1
1
1
1
1
1
1
1
1
1
1
1
1
1
1
1
1
1
1
1
1
1
1
1
1
1
1
1
1
1
1
1
1
1
1
1
1
1
1
1
1
1
1
1
1
1
1
1
1
1
1
1
1
1
1
1
1
1
1
1
1
1
1
1
1
1
1
1
1
1
1
1
1
1
1
1
1
1
1
1
1
1
1
1
1
1
1
1
1
1
1
1
1
1
1
1
1
1
1
1
1
1
1
1
1
1
1
1
1
1
1
1
1
1
1
1
1
1
1
1
1
1
1
1
1
1
1
1
1
1
1
1
1
1
1
1
1
1
1
1
1
1
1
1
1
1
1
1
1
1
1
1
1
1
1
1
1
1
1
1
1
1
1
1
1
1
1
1
1
1
1
1
1
1
1
1
1
1
1
1
1
1
1
1
1
1
1
1
1
1
1
1
1
1
1
1
1
1
1
1
1
1
1
1
1
1
1
1
1
1
1
1
1
1
1
1
1
1
1
1
1
1
1
1
1
1
1
1
1
1
1
1
1
1
1
1
1
1
1
1
1
1
1
1
1
1
1
1
1
1
1
1
1
1
1
1
1
1
1
1
1
1
1
1
1
1
1
1
1
1
1
1
1
1
1
1
1
1
1
1
1
1
1
1
1
1
1
1
1
1
1
1
1
1
1
1
1
1
1
1
1
1
1
1
1
1
1
1
1
1
1
1
1
1
1
1
1
1
1
1
1
1
1
1
1
1
1
1
1
1
1
1
1
1
1
1
1
1
1
1
1
1
1
1
1
1
1
1
1
1
1
1
1
1
1
1
1
1
1
1
1
1
1
1
1
1
1
1
1
1
1
1
1
1
1
1
1
1
1
1
1
1
1
1
1
1
1
1
1
1
1
1
1
1
1
1
1
1
1
1
1
1
1
1
1
1
1
1
1
1
1
1
1
1
1
1
1
1
1
1
1
1
1
1
1
1
1
1
1
1
1
1
1
1
1
1
1
1
1
1
1
1
1
1
1
1
1
1
1
1
1
1
1
1
1
1
1
1
1
1
1
1
1
1
1
1
1
1
1
1
1
1
1
1
1
1
1
1
1
1
1
1
1
1
1
1
1
1
1
1
1
1
1
1
1
1
1
1
1
1
1
1
1
1
1
1
1
1
1
1
1
1
1
1
1
1
1
1
1
1
1
1
1
1
1
1
1
1
1
1
1
1
1
1
1
1
1
1
1
1
1
1
1
1
1
1
1
1
1
1
1
1
1
1
1
1
1
1
1
1
1
1
1
1
1
1
1
1
1
1
1
1
1
1
1
1
1
1
1
1
1
1
1
1
1
1
1
1
1
1
1
1
1
1
1
1
1
1
1
1
1
1
1
1
1
1
1
1
1
1
1
1
1
1
1
1
1
1
1
1
1
1
1
1
1
1
1
1
1
1
1
1
1
1
1
1
1
1
1
1
1
1
1
1
1
1
1
1
1
1
1
1
1
1
1
1
1
1
1
1
1
1
1
1
1
1
1
1
1
1
1
1
1
1
1
1
1
1
1
1
1
1
1
1
1
1
1
1
1
1
1
1
1
1
1
1
1
1
1
1
1
1
1
1
1
1
1
1
1
1
1
1
1
1
1
1
1
1
1
1
1
1
1
1
1
1
1
1
1
1
1
1
1
1
1
1
1
1
1
1
1
1
1
1
1
1
1
1
1
1
1
1
1
1
1
1
1
1
1
1
1
1
1
1
1
1
1
1
1
1
1
1
1
1
1
1
1
1
1
1
1
1
1
1
1
1
1
1
1
1
1
1
1
1
1
1
1
1
1
1
1
1
1
0.999449
0.99954
0.999714
0.999942
1
1
1
1
1
1
1
1
1
1
1
1
1
1
1
0.999961
0.999786
0.999636
0.999537
0.99949
0.999477
0.999452
0.999307
0.99913
0.998943
0.998742
0.998498
0.998206
0.997887
0.997567
0.997255
0.996957
0.996689
0.996461
0.996277
0.996138
0.996041
0.99598
0.995946
0.995913
0.995863
0.995822
0.995796
0.995779
0.99576
0.995733
0.995682
0.995609
0.995519
0.995405
0.995261
0.995096
0.994917
0.994728
0.994538
0.994355
0.994185
0.994032
0.993895
0.993773
0.993673
0.993604
0.99356
0.993528
0.993507
0.993499
0.993502
0.993513
0.993532
0.993557
0.993587
0.993621
0.993661
0.993707
0.993762
0.993825
0.993893
0.993964
0.994037
0.994118
0.994207
0.994307
0.994408
0.99452
0.994639
0.99478
0.994937
0.995112
0.995321
0.995532
0.995802
0.996042
0.996394
0.996638
0.996807
0.9968
0.00328057
0.00325108
0.00319829
0.0031504
0.00331947
0.00359235
0.00389274
0.00421119
0.00451947
0.00480568
0.00504235
0.00521863
0.00531447
0.00533126
0.00527047
0.00514919
0.00498229
0.00479049
0.00458771
0.00442963
0.00441703
0.00440008
0.00434209
0.00424295
0.00410721
0.00397295
0.00393154
0.00388775
0.0038074
0.00369351
0.00357087
0.0034591
0.00334502
0.0032233
0.00310244
0.00299218
0.00289467
0.00281153
0.00274453
0.00269428
0.00265917
0.00263668
0.00262416
0.00263437
0.00266856
0.00269108
0.0026976
0.00268165
0.00265423
0.00262232
0.00259632
0.00257081
0.00254078
0.00250952
0.00248185
0.00245197
0.00241711
0.00237931
0.00233919
0.00229639
0.00225227
0.00221085
0.00217835
0.00216056
0.00215449
0.00215345
0.00216397
0.00220177
0.00225803
0.00233603
0.00243704
0.00255492
0.0026916
0.00284471
0.00300869
0.00318423
0.00336405
0.00354322
0.0037176
0.00388416
0.00404204
0.00419383
0.00433611
0.00446057
0.0045683
0.00465234
0.00472274
0.00476874
0.00479201
0.00478048
0.00474043
0.00466627
0.00454975
0.00441404
0.00421324
0.00402407
0.00371616
0.00349941
0.00334891
0.0033603
2.98268e-10
2.85439e-10
3.09496e-10
4.10407e-10
4.51215e-10
5.09448e-10
6.83203e-10
7.33902e-10
7.87349e-10
9.66823e-10
1.20803e-09
1.4962e-09
1.57151e-09
1.34679e-09
1.15732e-09
1.01035e-09
8.78176e-10
7.52266e-10
7.08613e-10
4.91646e-10
1.33903e-10
4.20945e-11
4.20945e-11
4.20945e-11
4.20945e-11
4.20945e-11
4.20945e-11
4.20945e-11
4.20945e-11
4.20945e-11
4.20945e-11
4.20945e-11
4.20945e-11
4.20945e-11
4.20945e-11
4.20945e-11
4.20945e-11
4.20945e-11
4.20945e-11
4.20945e-11
4.20953e-11
4.29688e-11
1.45776e-10
3.51243e-10
3.91191e-10
3.97121e-10
4.00946e-10
4.05712e-10
3.50902e-10
1.17699e-10
2.62174e-11
2.62174e-11
2.62174e-11
2.62174e-11
2.62174e-11
2.62174e-11
2.62174e-11
2.62174e-11
2.62174e-11
2.62176e-11
2.62183e-11
2.62192e-11
2.62201e-11
2.6221e-11
2.62239e-11
2.87431e-11
1.39e-10
4.13806e-10
5.04789e-10
5.13884e-10
5.24636e-10
5.35555e-10
5.45983e-10
5.57651e-10
5.67063e-10
5.76703e-10
5.88216e-10
5.97754e-10
6.14517e-10
6.25877e-10
6.48494e-10
6.52431e-10
6.72964e-10
6.62577e-10
6.92542e-10
6.71052e-10
6.99026e-10
6.48583e-10
6.14765e-10
3.8219e-10
2.91309e-10
2.91298e-10
2.91292e-10
2.91287e-10
2.91285e-10
2.91284e-10
2.91286e-10
2.93993e-10
3.43187e-10
2.57829e-10
2.12931e-10
1.99988e-10
2.25209e-10
3.26553e-10
3.67354e-10
4.25097e-10
6.05302e-10
6.49942e-10
7.0336e-10
8.94173e-10
1.18487e-09
1.47128e-09
1.52375e-09
1.28084e-09
1.07203e-09
9.24726e-10
7.91464e-10
6.66083e-10
6.2435e-10
5.93112e-10
5.06125e-10
4.9088e-10
4.48282e-10
3.93301e-10
3.60249e-10
3.77568e-10
3.43924e-10
3.34905e-10
3.1941e-10
3.06867e-10
2.99965e-10
2.95651e-10
2.90722e-10
2.85815e-10
2.82071e-10
2.79237e-10
2.77048e-10
2.75434e-10
2.74446e-10
2.74043e-10
2.7413e-10
2.74705e-10
2.78156e-10
2.93407e-10
3.0475e-10
3.12046e-10
3.16036e-10
3.18151e-10
3.18665e-10
3.16474e-10
3.17294e-10
3.18265e-10
3.10807e-10
3.07684e-10
3.15287e-10
3.25998e-10
3.32537e-10
3.36244e-10
3.39863e-10
3.43966e-10
3.4933e-10
3.56533e-10
3.64987e-10
3.71915e-10
3.79001e-10
3.86899e-10
3.95593e-10
4.0459e-10
4.13995e-10
4.24234e-10
4.34745e-10
4.46057e-10
4.57109e-10
4.69647e-10
4.80534e-10
4.9105e-10
5.02658e-10
5.13218e-10
5.301e-10
5.41915e-10
5.64535e-10
5.66384e-10
5.85233e-10
5.75026e-10
6.04589e-10
5.82606e-10
6.08174e-10
5.56737e-10
5.79645e-10
5.14168e-10
5.33286e-10
4.4891e-10
4.62025e-10
3.68206e-10
3.71909e-10
2.95018e-10
3.70777e-10
3.49666e-10
3.60215e-10
2.61028e-10
8.10151e-13
1.52321e-12
1.91941e-12
1.96227e-12
2.13261e-12
3.02184e-12
4.35074e-12
4.17229e-12
4.21104e-12
5.30318e-12
7.35286e-12
9.85416e-12
1.04883e-11
8.22653e-12
6.80655e-12
6.3063e-12
6.00354e-12
5.65034e-12
5.47266e-12
5.25053e-12
4.9258e-12
4.68074e-12
4.30249e-12
3.89602e-12
3.7541e-12
3.90182e-12
3.44939e-12
3.13095e-12
2.91852e-12
2.7998e-12
2.65542e-12
2.4186e-12
2.17764e-12
1.99845e-12
1.85144e-12
1.70572e-12
1.57949e-12
1.48537e-12
1.43213e-12
1.42338e-12
1.4417e-12
1.47349e-12
1.51222e-12
1.56209e-12
1.6031e-12
1.63094e-12
1.65094e-12
1.6726e-12
1.6933e-12
1.69801e-12
1.69635e-12
1.65061e-12
1.529e-12
1.40639e-12
1.30868e-12
1.19861e-12
1.04927e-12
8.82075e-13
7.56206e-13
7.05685e-13
6.88601e-13
6.86043e-13
6.85238e-13
6.7737e-13
6.77833e-13
6.8807e-13
7.01902e-13
7.12625e-13
7.27644e-13
7.42517e-13
7.58419e-13
7.73536e-13
7.89331e-13
8.06124e-13
8.23828e-13
8.39567e-13
8.60157e-13
8.70936e-13
8.93685e-13
8.95336e-13
9.24006e-13
9.12405e-13
9.45422e-13
9.10996e-13
9.48222e-13
8.85344e-13
9.22603e-13
8.2661e-13
8.618e-13
7.44574e-13
7.82043e-13
6.70224e-13
7.41695e-13
7.28006e-13
1.0518e-12
1.54871e-12
2.8489e-12
3.12564e-12
2.58298e-12
1.27021e-12
3.36036e-15
1.16523e-14
1.77501e-14
1.68886e-14
1.79785e-14
2.66165e-14
3.63519e-14
3.21404e-14
3.03916e-14
3.60634e-14
4.97021e-14
7.0069e-14
7.70471e-14
5.72074e-14
4.75112e-14
4.75402e-14
4.95393e-14
4.99468e-14
4.95535e-14
4.77061e-14
4.5274e-14
4.30558e-14
4.00656e-14
3.69742e-14
3.61511e-14
3.68812e-14
3.2283e-14
2.83946e-14
2.60034e-14
2.46329e-14
2.27857e-14
1.98754e-14
1.70775e-14
1.50334e-14
1.33469e-14
1.17047e-14
1.02722e-14
9.14471e-15
8.38316e-15
7.97316e-15
7.77598e-15
7.71858e-15
7.76256e-15
7.85358e-15
7.91739e-15
7.94321e-15
7.94761e-15
7.96459e-15
7.97498e-15
7.89982e-15
7.74538e-15
7.29621e-15
6.43454e-15
5.56077e-15
4.80599e-15
4.02729e-15
3.16027e-15
2.33028e-15
1.72121e-15
1.42128e-15
1.24238e-15
1.11278e-15
1.00607e-15
9.13163e-16
8.52976e-16
8.1978e-16
8.12376e-16
8.28457e-16
8.50278e-16
8.68517e-16
8.89114e-16
9.05731e-16
9.24955e-16
9.4067e-16
9.60462e-16
9.75271e-16
1.00298e-15
1.01609e-15
1.05069e-15
1.05295e-15
1.09328e-15
1.07564e-15
1.11831e-15
1.07354e-15
1.12076e-15
1.04818e-15
1.09537e-15
9.94802e-16
1.05062e-15
9.53677e-16
1.0569e-15
1.05442e-15
1.45506e-15
2.35701e-15
5.7584e-15
1.43533e-14
3.37947e-14
4.91437e-14
4.75786e-14
1.50695e-14
1.553e-17
9.40947e-17
1.70706e-16
1.6507e-16
1.76875e-16
2.5791e-16
3.33079e-16
2.81886e-16
2.54493e-16
2.82009e-16
3.76286e-16
5.45997e-16
6.19595e-16
4.42901e-16
3.71558e-16
3.9689e-16
4.4175e-16
4.64067e-16
4.66194e-16
4.48683e-16
4.28573e-16
4.10725e-16
3.86659e-16
3.60598e-16
3.52633e-16
3.5276e-16
3.07499e-16
2.66113e-16
2.40186e-16
2.23992e-16
2.02815e-16
1.7215e-16
1.43723e-16
1.22845e-16
1.0554e-16
8.90921e-17
7.48501e-17
6.34566e-17
5.52143e-17
4.9616e-17
4.56905e-17
4.31098e-17
4.16435e-17
4.07058e-17
3.98849e-17
3.90672e-17
3.8249e-17
3.7538e-17
3.68234e-17
3.57189e-17
3.41116e-17
3.09457e-17
2.59351e-17
2.10812e-17
1.69886e-17
1.31058e-17
9.30193e-18
6.09061e-18
3.91778e-18
2.82908e-18
2.17171e-18
1.70538e-18
1.34846e-18
1.06669e-18
8.77405e-19
7.63682e-19
7.30424e-19
7.4844e-19
7.71558e-19
7.89734e-19
8.12226e-19
8.28703e-19
8.50178e-19
8.65496e-19
8.87651e-19
9.02413e-19
9.33899e-19
9.48965e-19
9.89508e-19
9.9671e-19
1.04448e-18
1.03515e-18
1.08666e-18
1.05657e-18
1.11671e-18
1.06983e-18
1.14024e-18
1.08624e-18
1.19954e-18
1.21477e-18
1.53694e-18
2.11284e-18
4.6781e-18
1.44484e-17
5.33596e-17
1.77128e-16
4.9103e-16
8.66786e-16
9.02358e-16
1.90079e-16
7.83492e-20
8.00299e-19
1.7064e-18
1.71897e-18
1.87924e-18
2.66197e-18
3.27796e-18
2.72287e-18
2.3838e-18
2.48377e-18
3.17322e-18
4.64869e-18
5.41256e-18
3.78679e-18
3.21531e-18
3.60495e-18
4.19479e-18
4.51479e-18
4.56225e-18
4.38574e-18
4.21535e-18
4.07627e-18
3.87491e-18
3.6334e-18
3.53246e-18
3.47025e-18
3.01822e-18
2.58831e-18
2.30697e-18
2.11634e-18
1.87996e-18
1.56454e-18
1.27943e-18
1.06753e-18
8.91585e-19
7.28638e-19
5.89685e-19
4.78792e-19
3.96583e-19
3.36243e-19
2.90786e-19
2.58458e-19
2.36955e-19
2.21195e-19
2.08569e-19
1.97658e-19
1.8778e-19
1.79102e-19
1.70908e-19
1.61249e-19
1.49072e-19
1.29615e-19
1.02958e-19
7.86172e-20
5.90499e-20
4.19558e-20
2.698e-20
1.57355e-20
8.85335e-21
5.55015e-21
3.68972e-21
2.4892e-21
1.67379e-21
1.11028e-21
7.63997e-22
5.75259e-22
5.31188e-22
5.46601e-22
5.67734e-22
5.8421e-22
6.06126e-22
6.22423e-22
6.44911e-22
6.61024e-22
6.85039e-22
7.01771e-22
7.3548e-22
7.55376e-22
7.99516e-22
8.17513e-22
8.71639e-22
8.81122e-22
9.4376e-22
9.45112e-22
1.02618e-21
1.02995e-21
1.1453e-21
1.18471e-21
1.42786e-21
1.73535e-21
2.90264e-21
7.04156e-21
2.81595e-20
1.33524e-19
6.19483e-19
2.45753e-18
7.62159e-18
1.50647e-17
1.5738e-17
2.01004e-18
4.27116e-22
7.10202e-21
1.76672e-20
1.86921e-20
2.09694e-20
2.88518e-20
3.42008e-20
2.83024e-20
2.42905e-20
2.40872e-20
2.94413e-20
4.28867e-20
5.0799e-20
3.52743e-20
3.02888e-20
3.50347e-20
4.18985e-20
4.57022e-20
4.62766e-20
4.44244e-20
4.29366e-20
4.18674e-20
4.01088e-20
3.76962e-20
3.63499e-20
3.51387e-20
3.05099e-20
2.60127e-20
2.29227e-20
2.06858e-20
1.80525e-20
1.47831e-20
1.18842e-20
9.70382e-21
7.89776e-21
6.26892e-21
4.90691e-21
3.83273e-21
3.03355e-21
2.43379e-21
1.97849e-21
1.6524e-21
1.42775e-21
1.26169e-21
1.13522e-21
1.03267e-21
9.45236e-22
8.70708e-22
8.03519e-22
7.33173e-22
6.52712e-22
5.41698e-22
4.06745e-22
2.91204e-22
2.03521e-22
1.33022e-22
7.74664e-23
4.02481e-23
1.98219e-23
1.07278e-23
6.11054e-24
3.48484e-24
1.9482e-24
1.04998e-24
5.77791e-25
3.6106e-25
3.22826e-25
3.34791e-25
3.51747e-25
3.65635e-25
3.84816e-25
4.00216e-25
4.21615e-25
4.38246e-25
4.62389e-25
4.8125e-25
5.14653e-25
5.39505e-25
5.84413e-25
6.13202e-25
6.71265e-25
7.01323e-25
7.75099e-25
8.12633e-25
9.20916e-25
9.89648e-25
1.17777e-24
1.37116e-24
1.91976e-24
3.21129e-24
9.10103e-24
4.17521e-23
2.44466e-22
1.44202e-21
7.73143e-21
3.43728e-20
1.15178e-19
2.42852e-19
2.4842e-19
1.71459e-20
2.51498e-24
6.52145e-23
1.88583e-22
2.10319e-22
2.42666e-22
3.25462e-22
3.74562e-22
3.11348e-22
2.63902e-22
2.52111e-22
2.9624e-22
4.24619e-22
5.07018e-22
3.53038e-22
3.05836e-22
3.59543e-22
4.36186e-22
4.78634e-22
4.84407e-22
4.6429e-22
4.50756e-22
4.42617e-22
4.26546e-22
4.01032e-22
3.83277e-22
3.65266e-22
3.16595e-22
2.68738e-22
2.34289e-22
2.08042e-22
1.78529e-22
1.44095e-22
1.14051e-22
9.12474e-23
7.2476e-23
5.59908e-23
4.25041e-23
3.20439e-23
2.43196e-23
1.85385e-23
1.42162e-23
1.11652e-23
9.06024e-24
7.5335e-24
6.42359e-24
5.56996e-24
4.88225e-24
4.3204e-24
3.83664e-24
3.36905e-24
2.87545e-24
2.26987e-24
1.60708e-24
1.07656e-24
6.98705e-25
4.19381e-25
2.2091e-25
1.02142e-25
4.39942e-26
2.04636e-26
9.90437e-27
4.71495e-27
2.15229e-27
9.18168e-28
3.88579e-28
1.94295e-28
1.69481e-28
1.78032e-28
1.90172e-28
2.00978e-28
2.15801e-28
2.28915e-28
2.46925e-28
2.62456e-28
2.84166e-28
3.03358e-28
3.33526e-28
3.60283e-28
4.02748e-28
4.38258e-28
4.97338e-28
5.43817e-28
6.27577e-28
6.99104e-28
8.41203e-28
9.88905e-28
1.29841e-27
1.79234e-27
3.30915e-27
9.59247e-27
4.96109e-26
3.37404e-25
2.42611e-24
1.64287e-23
9.7272e-23
4.66594e-22
1.64619e-21
3.58152e-21
3.47417e-21
1.16059e-22
1.60418e-26
6.15833e-25
2.06661e-24
2.43518e-24
2.89185e-24
3.79649e-24
4.27204e-24
3.58187e-24
3.0136e-24
2.80197e-24
3.18679e-24
4.46785e-24
5.33373e-24
3.74837e-24
3.26664e-24
3.85781e-24
4.70157e-24
5.16254e-24
5.21249e-24
4.98683e-24
4.85717e-24
4.79559e-24
4.64128e-24
4.35945e-24
4.12942e-24
3.88581e-24
3.3609e-24
2.84135e-24
2.45151e-24
2.14287e-24
1.80931e-24
1.44038e-24
1.12312e-24
8.81027e-25
6.83601e-25
5.14716e-25
3.79681e-25
2.76957e-25
2.0214e-25
1.46991e-25
1.06776e-25
7.90477e-26
6.0183e-26
4.69136e-26
3.77034e-26
3.09768e-26
2.58622e-26
2.18839e-26
1.86206e-26
1.56701e-26
1.27737e-26
9.56244e-27
6.36923e-27
3.98423e-27
2.39652e-27
1.31864e-27
6.27388e-28
2.57806e-28
9.6964e-29
3.86229e-29
1.57813e-29
6.20909e-30
2.28128e-30
7.54076e-31
2.3765e-31
9.25892e-32
7.95168e-32
8.50874e-32
9.29026e-32
1.00475e-31
1.1074e-31
1.20714e-31
1.3422e-31
1.47126e-31
1.64638e-31
1.81878e-31
2.07078e-31
2.32448e-31
2.70245e-31
3.07983e-31
3.65513e-31
4.23019e-31
5.16013e-31
6.20018e-31
8.06814e-31
1.06351e-30
1.61453e-30
2.94659e-30
8.90733e-30
4.79926e-29
3.67881e-28
3.1029e-27
2.5515e-26
1.8981e-25
1.20292e-24
6.06076e-24
2.19734e-23
4.76713e-23
4.2279e-23
6.17046e-25
1.10788e-28
5.95462e-27
2.31713e-26
2.89018e-26
3.5325e-26
4.55721e-26
5.04238e-26
4.27246e-26
3.58051e-26
3.26538e-26
3.61855e-26
4.94944e-26
5.86893e-26
4.17664e-26
3.65158e-26
4.29574e-26
5.22159e-26
5.71481e-26
5.748e-26
5.48704e-26
5.3549e-26
5.30768e-26
5.15126e-26
4.8292e-26
4.53486e-26
4.21878e-26
3.63925e-26
3.06377e-26
2.61647e-26
2.25221e-26
1.87186e-26
1.47017e-26
1.1295e-26
8.69071e-27
6.59196e-27
4.84235e-27
3.47571e-27
2.45757e-27
1.72897e-27
1.20353e-27
8.31479e-28
5.81965e-28
4.16023e-28
3.03533e-28
2.29016e-28
1.77376e-28
1.40388e-28
1.1312e-28
9.18788e-29
7.38311e-29
5.72968e-29
4.05718e-29
2.53709e-29
1.47927e-29
8.23117e-30
4.1448e-30
1.77871e-30
6.48651e-31
2.12684e-31
7.23324e-32
2.48235e-32
8.009e-33
2.34136e-33
5.89478e-34
1.34873e-34
4.02832e-35
3.44529e-35
3.77752e-35
4.23812e-35
4.71915e-35
5.37124e-35
6.05602e-35
6.97975e-35
7.94717e-35
9.24682e-35
1.06482e-34
1.26377e-34
1.48523e-34
1.80846e-34
2.17658e-34
2.72712e-34
3.376e-34
4.41009e-34
5.80239e-34
8.35688e-34
1.28389e-33
2.47435e-33
7.2013e-33
3.9324e-32
3.24854e-31
3.12165e-30
3.00901e-29
2.69378e-28
2.12249e-27
1.39814e-26
7.2101e-26
2.63005e-25
5.59844e-25
4.42671e-25
2.56078e-27
8.22269e-31
5.87771e-29
2.65111e-28
3.50595e-28
4.40873e-28
5.60806e-28
6.12855e-28
5.25085e-28
4.39379e-28
3.95276e-28
4.2913e-28
5.72446e-28
6.71121e-28
4.84149e-28
4.23666e-28
4.93647e-28
5.9536e-28
6.47527e-28
6.47995e-28
6.16944e-28
6.02531e-28
5.98649e-28
5.81843e-28
5.44014e-28
5.06598e-28
4.66354e-28
4.00985e-28
3.36024e-28
2.84044e-28
2.40858e-28
1.97114e-28
1.52738e-28
1.15613e-28
8.72751e-29
6.47479e-29
4.64363e-29
3.2465e-29
2.22808e-29
1.51378e-29
1.0116e-29
6.67017e-30
4.42723e-30
2.97703e-30
2.03292e-30
1.43625e-30
1.04434e-30
7.80307e-31
5.96458e-31
4.60895e-31
3.52529e-31
2.59734e-31
1.7358e-31
1.01722e-31
5.5189e-32
2.83609e-32
1.30495e-32
5.04443e-33
1.63037e-33
4.65291e-34
1.34786e-34
3.86947e-35
1.01743e-35
2.34505e-36
4.43651e-37
7.2338e-38
1.64871e-38
1.4195e-38
1.6034e-38
1.85724e-38
2.14012e-38
2.52783e-38
2.9627e-38
3.55609e-38
4.22861e-38
5.14324e-38
6.20817e-38
7.72422e-38
9.56957e-38
1.22805e-37
1.57301e-37
2.09943e-37
2.8095e-37
3.98917e-37
5.86277e-37
9.68999e-37
1.8734e-36
5.36644e-36
2.76856e-35
2.36578e-34
2.50487e-33
2.7503e-32
2.86648e-31
2.69595e-30
2.19468e-29
1.47596e-28
7.68786e-28
2.79389e-27
5.77063e-27
3.95495e-27
8.33774e-30
6.47168e-33
5.91044e-31
3.08891e-30
4.33713e-30
5.60818e-30
7.05418e-30
7.63992e-30
6.61855e-30
5.53922e-30
4.9354e-30
5.27113e-30
6.86359e-30
7.93266e-30
5.79873e-30
5.0698e-30
5.82954e-30
6.94986e-30
7.49434e-30
7.45401e-30
7.0747e-30
6.90639e-30
6.8685e-30
6.67706e-30
6.22238e-30
5.74766e-30
5.2391e-30
4.48727e-30
3.74103e-30
3.12997e-30
2.61536e-30
2.10804e-30
1.61139e-30
1.20156e-30
8.90033e-31
6.46087e-31
4.52634e-31
3.08454e-31
2.05682e-31
1.35151e-31
8.69044e-32
5.48496e-32
3.46219e-32
2.1952e-32
1.40455e-32
9.27904e-33
6.3144e-33
4.43781e-33
3.2068e-33
2.35021e-33
1.70626e-33
1.19062e-33
7.49512e-34
4.1096e-34
2.07166e-34
9.81744e-35
4.12199e-35
1.43359e-35
4.1015e-36
1.01737e-36
2.50542e-37
5.9975e-38
1.27888e-38
2.30716e-39
3.24596e-40
3.72647e-41
6.52476e-42
5.70302e-42
6.66164e-42
7.99097e-42
9.5662e-42
1.17601e-41
1.43975e-41
1.80541e-41
2.25207e-41
2.87373e-41
3.65752e-41
4.79313e-41
6.29817e-41
8.58131e-41
1.17908e-40
1.69368e-40
2.48175e-40
3.9059e-40
6.61644e-40
1.33659e-39
3.64985e-39
1.73373e-38
1.4448e-37
1.63021e-36
1.98696e-35
2.35114e-34
2.56174e-33
2.47903e-32
2.05587e-31
1.39722e-30
7.29196e-30
2.62156e-29
5.209e-29
2.99925e-29
2.31882e-32
5.3202e-35
6.04591e-33
3.65941e-32
5.46207e-32
7.25791e-32
9.04892e-32
9.73825e-32
8.52679e-32
7.1459e-32
6.32345e-32
6.664e-32
8.48201e-32
9.64919e-32
7.13875e-32
6.2276e-32
7.0514e-32
8.28815e-32
8.84543e-32
8.73621e-32
8.26162e-32
8.05259e-32
8.00539e-32
7.77506e-32
7.21767e-32
6.61451e-32
5.97268e-32
5.09256e-32
4.22148e-32
3.49545e-32
2.87883e-32
2.28579e-32
1.72339e-32
1.2657e-32
9.20054e-33
6.53705e-33
4.47541e-33
2.97435e-33
1.92849e-33
1.22698e-33
7.60562e-34
4.60579e-34
2.77178e-34
1.66143e-34
9.97858e-35
6.16246e-35
3.91609e-35
2.58085e-35
1.75736e-35
1.21809e-35
8.37254e-36
5.52151e-36
3.26856e-36
1.67443e-36
7.83236e-37
3.41835e-37
1.30808e-37
4.08879e-38
1.03442e-38
2.22738e-39
4.65594e-40
9.27015e-41
1.59692e-41
2.24202e-42
2.32764e-43
1.86957e-44
2.55058e-45
2.27316e-45
2.7519e-45
3.42694e-45
4.27608e-45
5.48059e-45
7.0308e-45
9.23286e-45
1.21232e-44
1.62953e-44
2.19622e-44
3.05048e-44
4.2764e-44
6.2331e-44
9.2718e-44
1.45258e-43
2.37143e-43
4.25782e-43
8.71678e-43
2.33448e-42
9.86565e-42
7.59601e-41
8.75273e-40
1.15575e-38
1.52024e-37
1.87526e-36
2.09612e-35
2.0621e-34
1.72714e-33
1.17823e-32
6.12557e-32
2.16669e-31
4.11363e-31
1.92383e-31
5.10889e-35
4.50822e-37
6.28483e-35
4.40281e-34
6.99305e-34
9.54249e-34
1.18159e-33
1.2661e-33
1.11987e-33
9.40531e-34
8.28193e-34
8.63049e-34
1.07546e-33
1.20352e-33
8.99765e-34
7.82461e-34
8.71433e-34
1.00804e-33
1.06327e-33
1.04196e-33
9.81274e-34
9.53974e-34
9.46843e-34
9.17793e-34
8.48275e-34
7.71355e-34
6.9016e-34
5.85457e-34
4.8228e-34
3.95158e-34
3.20842e-34
2.50978e-34
1.8661e-34
1.34958e-34
9.62791e-35
6.69707e-35
4.48186e-35
2.90605e-35
1.83313e-35
1.13035e-35
6.76425e-36
3.93784e-36
2.26433e-36
1.2864e-36
7.26865e-37
4.1984e-37
2.48829e-37
1.5339e-37
9.81334e-38
6.41621e-38
4.16562e-38
2.59133e-38
1.44032e-38
6.8851e-39
2.98493e-39
1.19841e-39
4.17517e-40
1.17185e-40
2.61917e-41
4.89081e-42
8.66712e-43
1.43248e-43
1.98755e-44
2.16197e-45
1.64712e-46
9.2411e-48
9.99293e-49
9.09931e-49
1.14328e-48
1.47954e-48
1.9271e-48
2.58034e-48
3.47336e-48
4.7923e-48
6.64166e-48
9.43844e-48
1.35315e-47
2.00258e-47
3.01775e-47
4.75091e-47
7.73879e-47
1.34432e-46
2.50451e-46
5.3284e-46
1.38893e-45
5.27397e-45
3.53942e-44
3.95743e-43
5.50381e-42
7.89677e-41
1.08223e-39
1.3667e-38
1.5502e-37
1.53865e-36
1.29397e-35
8.81703e-35
4.54591e-34
1.57483e-33
2.84058e-33
1.04133e-33
8.80512e-38
3.90011e-39
6.63444e-37
5.37476e-36
9.09167e-36
1.27316e-35
1.56827e-35
1.67574e-35
1.49638e-35
1.26013e-35
1.10564e-35
1.141e-35
1.3941e-35
1.53477e-35
1.15759e-35
1.00287e-35
1.09808e-35
1.24862e-35
1.30027e-35
1.26341e-35
1.18428e-35
1.14724e-35
1.13551e-35
1.09746e-35
1.00941e-35
9.10799e-36
8.07616e-36
6.81206e-36
5.57345e-36
4.51819e-36
3.61708e-36
2.78781e-36
2.04377e-36
1.45523e-36
1.0189e-36
6.93977e-37
4.54081e-37
2.87334e-37
1.76414e-37
1.05506e-37
6.10225e-38
3.42029e-38
1.88268e-38
1.01617e-38
5.41462e-39
2.92844e-39
1.618e-39
9.31161e-40
5.58254e-40
3.43451e-40
2.1016e-40
1.23106e-40
6.41592e-41
2.85868e-41
1.14746e-41
4.2337e-42
1.34163e-42
3.3785e-43
6.66611e-44
1.07857e-44
1.61889e-45
2.21772e-46
2.47267e-47
2.0768e-48
1.1568e-49
4.54327e-51
3.95722e-52
3.67914e-52
4.80234e-52
6.46365e-52