/*--------------------------------*- C++ -*----------------------------------*\
| =========                 |                                                 |
| \\      /  F ield         | OpenFOAM: The Open Source CFD Toolbox           |
|  \\    /   O peration     | Version:  2.4.0                                 |
|   \\  /    A nd           | Web:      www.OpenFOAM.org                      |
|    \\/     M anipulation  |                                                 |
\*---------------------------------------------------------------------------*/
FoamFile
{
    version     2.0;
    format      ascii;
    class       volVectorField;
    location    "0.087";
    object      U;
}
// * * * * * * * * * * * * * * * * * * * * * * * * * * * * * * * * * * * * * //

dimensions      [0 1 -1 0 0 0 0];

internalField   nonuniform List<vector> 
3600
(
(4.27144e-05 -0.000118207 3.44501e-11)
(6.37724e-05 -8.66296e-05 -1.72538e-11)
(9.79086e-05 -5.56584e-05 -2.32403e-11)
(5.29911e-05 -4.59557e-05 -2.54716e-11)
(0.000103748 -4.16149e-05 -1.66806e-11)
(4.52644e-05 -3.40457e-05 -1.65688e-11)
(0.000101812 -2.75822e-05 -1.06665e-11)
(2.43579e-05 -2.30514e-05 -1.119e-11)
(8.91856e-05 -1.83985e-05 -7.01019e-12)
(-2.18828e-05 -1.66815e-05 -7.59355e-12)
(7.10981e-05 -1.20308e-05 -4.68566e-12)
(-0.000104214 -9.89904e-06 -4.98369e-12)
(2.16386e-05 -4.10066e-06 -3.16315e-12)
(-0.00021404 -7.34394e-07 -3.08083e-12)
(-0.000112618 3.33061e-06 -2.07003e-12)
(-0.000336805 1.15818e-05 -1.74642e-12)
(-0.000360156 1.43068e-05 -1.22125e-12)
(-0.000525147 2.25053e-05 -8.65384e-13)
(-0.000708968 3.36122e-05 -6.06299e-13)
(-0.00101723 3.61769e-05 -3.24011e-13)
(-0.00111628 1.112e-05 -1.69636e-13)
(-0.000822511 -8.95223e-06 3.27992e-15)
(-0.00043625 -2.14424e-05 2.89951e-14)
(1.4606e-05 -1.33716e-05 5.80292e-14)
(9.75924e-05 -6.00945e-06 3.41843e-14)
(0.000200058 -1.96249e-06 2.67097e-14)
(0.000135906 2.46762e-07 1.31557e-14)
(0.000121885 5.25674e-07 7.89578e-15)
(7.03556e-05 6.64595e-07 3.52334e-15)
(4.89161e-05 4.31661e-07 1.77727e-15)
(-1.49019e-05 -0.000137077 -7.37359e-11)
(-6.95583e-05 -8.16202e-05 -1.38627e-10)
(-6.81806e-05 -1.89655e-05 -9.36413e-11)
(-0.000165395 1.57635e-06 -6.94251e-11)
(-0.000137163 8.9486e-06 -4.44357e-11)
(-0.000271383 8.23627e-06 -3.84942e-11)
(-0.000204493 2.44061e-05 -2.51676e-11)
(-0.000377394 1.34525e-05 -2.39707e-11)
(-0.000267026 3.73361e-05 -1.52208e-11)
(-0.000512778 2.16538e-05 -1.54461e-11)
(-0.000346332 4.5748e-05 -9.54159e-12)
(-0.000678281 3.74732e-05 -9.68877e-12)
(-0.000470548 5.06816e-05 -6.0337e-12)
(-0.000839006 5.84062e-05 -5.63706e-12)
(-0.000669871 4.95553e-05 -3.6425e-12)
(-0.000951939 7.61454e-05 -2.9066e-12)
(-0.00092247 6.03352e-05 -1.92302e-12)
(-0.00104546 8.17606e-05 -1.22568e-12)
(-0.00118021 9.58055e-05 -7.90021e-13)
(-0.00135929 8.99461e-05 -3.13129e-13)
(-0.00135342 -9.91793e-07 -1.28586e-13)
(-0.000847701 -5.94863e-05 9.78944e-14)
(-0.000398766 -8.29126e-05 9.0763e-14)
(0.000143758 -4.98048e-05 1.11492e-13)
(0.000194264 -1.82185e-05 6.23138e-14)
(0.000296754 -4.94796e-06 4.49637e-14)
(0.000195298 3.18582e-06 2.18562e-14)
(0.000166624 3.06007e-06 1.26596e-14)
(9.51768e-05 3.27126e-06 5.5925e-15)
(6.52943e-05 2.09361e-06 2.80554e-15)
(-1.98478e-05 5.15841e-05 -8.99738e-11)
(-9.11278e-05 8.12568e-05 -1.63678e-10)
(-0.000100905 0.000112739 -1.07854e-10)
(-0.000195404 0.00011636 -7.69979e-11)
(-0.000173706 0.000123828 -4.84437e-11)
(-0.000311023 9.72693e-05 -4.18682e-11)
(-0.000258816 0.00012745 -2.72834e-11)
(-0.00044801 8.11072e-05 -2.61594e-11)
(-0.000345062 0.000137796 -1.65049e-11)
(-0.000621642 8.27671e-05 -1.68659e-11)
(-0.000444287 0.000139345 -1.02896e-11)
(-0.000812515 0.000100977 -1.04854e-11)
(-0.000580238 0.000125933 -6.43296e-12)
(-0.000974962 0.000128124 -5.98743e-12)
(-0.00077776 9.98249e-05 -3.80761e-12)
(-0.00105739 0.000142193 -2.98867e-12)
(-0.00100605 0.000100526 -1.94414e-12)
(-0.00109739 0.000132745 -1.18912e-12)
(-0.00121713 0.000148306 -7.52741e-13)
(-0.00137203 0.000135424 -2.56549e-13)
(-0.00135991 -2.0551e-05 -8.86674e-14)
(-0.000822017 -0.000116052 1.34758e-13)
(-0.00036972 -0.000145819 1.11961e-13)
(0.000180474 -8.65377e-05 1.25798e-13)
(0.000218311 -2.94833e-05 6.94795e-14)
(0.000315282 -7.05207e-06 4.90474e-14)
(0.000205967 6.8755e-06 2.37577e-14)
(0.000173591 6.08146e-06 1.36176e-14)
(9.87202e-05 6.14849e-06 5.9879e-15)
(6.78547e-05 3.76385e-06 3.01553e-15)
(3.9476e-06 9.32553e-05 -5.04592e-11)
(-4.1531e-05 0.000155378 -1.32793e-10)
(-5.4385e-05 0.000195787 -9.44604e-11)
(-0.000139971 0.000187538 -7.18478e-11)
(-0.00013668 0.000212536 -4.58785e-11)
(-0.000262173 0.000167313 -4.10241e-11)
(-0.000236945 0.000226519 -2.67871e-11)
(-0.000422107 0.000145676 -2.63056e-11)
(-0.000338043 0.000239819 -1.64965e-11)
(-0.000616894 0.000144143 -1.70976e-11)
(-0.000442459 0.000232201 -1.03457e-11)
(-0.000820087 0.000164648 -1.06016e-11)
(-0.000580353 0.000200025 -6.48159e-12)
(-0.000986791 0.000197303 -6.01444e-12)
(-0.000779819 0.000149501 -3.82586e-12)
(-0.00105912 0.000206316 -2.97144e-12)
(-0.00100726 0.000141251 -1.93563e-12)
(-0.00108659 0.000182822 -1.16382e-12)
(-0.00121186 0.000204062 -7.3923e-13)
(-0.00138203 0.000183793 -2.39745e-13)
(-0.00137721 -3.92537e-05 -7.69976e-14)
(-0.000824146 -0.000174168 1.45832e-13)
(-0.000360773 -0.000209896 1.18351e-13)
(0.000194521 -0.000123616 1.29415e-13)
(0.000227133 -4.04776e-05 7.11319e-14)
(0.000320002 -8.99695e-06 4.97769e-14)
(0.000208131 1.06955e-05 2.40636e-14)
(0.00017451 9.15048e-06 1.37458e-14)
(9.92278e-05 9.06418e-06 6.04478e-15)
(6.75449e-05 5.39969e-06 3.01155e-15)
(-3.06736e-06 0.000119676 -5.81417e-11)
(-3.82299e-05 0.00021707 -1.36523e-10)
(-6.11459e-05 0.00028171 -9.5583e-11)
(-0.000125283 0.000267929 -7.3083e-11)
(-0.00014445 0.000312063 -4.65287e-11)
(-0.00024039 0.000246074 -4.19526e-11)
(-0.000241824 0.000335539 -2.72438e-11)
(-0.000404642 0.000214694 -2.70217e-11)
(-0.000339565 0.000348995 -1.68128e-11)
(-0.000610619 0.000204595 -1.75497e-11)
(-0.000439177 0.000329281 -1.05565e-11)
(-0.000821981 0.000227626 -1.08129e-11)
(-0.000574382 0.000275998 -6.62419e-12)
(-0.000993301 0.000266538 -6.09609e-12)
(-0.000778094 0.000198824 -3.90491e-12)
(-0.00105789 0.00026892 -2.99342e-12)
(-0.00100921 0.000181639 -1.96369e-12)
(-0.00107603 0.000230959 -1.16485e-12)
(-0.00120989 0.000261888 -7.45981e-13)
(-0.0014055 0.000234847 -2.378e-13)
(-0.00140928 -5.83375e-05 -7.38741e-14)
(-0.000836838 -0.000234487 1.51709e-13)
(-0.000355606 -0.000275383 1.21978e-13)
(0.00020707 -0.0001609 1.31176e-13)
(0.000234792 -5.109e-05 7.17708e-14)
(0.000323198 -1.06029e-05 4.98963e-14)
(0.000209211 1.4638e-05 2.40765e-14)
(0.000174543 1.22633e-05 1.37223e-14)
(9.91727e-05 1.20023e-05 6.0345e-15)
(6.72534e-05 7.19126e-06 2.99118e-15)
(-1.37685e-05 0.000167057 -7.20813e-11)
(-3.74041e-05 0.000269305 -1.48594e-10)
(-7.87331e-05 0.000351595 -1.02319e-10)
(-0.000113409 0.000320008 -7.71869e-11)
(-0.000163853 0.000400292 -4.88409e-11)
(-0.000222056 0.000294351 -4.39857e-11)
(-0.000259448 0.000444825 -2.83762e-11)
(-0.000389697 0.000260489 -2.82382e-11)
(-0.000350151 0.000463171 -1.74178e-11)
(-0.000608475 0.000256403 -1.82523e-11)
(-0.000439205 0.000429775 -1.09139e-11)
(-0.000828752 0.000288543 -1.11382e-11)
(-0.000570013 0.000353863 -6.85153e-12)
(-0.00100521 0.000335968 -6.23016e-12)
(-0.000779587 0.000248416 -4.029e-12)
(-0.00105948 0.000330635 -3.03842e-12)
(-0.0010149 0.000222601 -2.01111e-12)
(-0.0010653 0.000277732 -1.17473e-12)
(-0.00120915 0.000323864 -7.59927e-13)
(-0.00143794 0.000290394 -2.39179e-13)
(-0.0014521 -7.75206e-05 -7.20219e-14)
(-0.000854286 -0.000297835 1.57768e-13)
(-0.000349709 -0.000342938 1.2581e-13)
(0.000222266 -0.000198596 1.32933e-13)
(0.000243928 -6.12767e-05 7.23311e-14)
(0.000326794 -1.19191e-05 4.99214e-14)
(0.000210331 1.87178e-05 2.40373e-14)
(0.000174429 1.54239e-05 1.36659e-14)
(9.89843e-05 1.49479e-05 6.00699e-15)
(6.69953e-05 8.95211e-06 2.97311e-15)
(-2.22194e-05 0.000250374 -8.45063e-11)
(-1.65275e-05 0.000366598 -1.59762e-10)
(-9.70114e-05 0.000464423 -1.10444e-10)
(-7.88615e-05 0.000420122 -8.18034e-11)
(-0.000186475 0.000519507 -5.18118e-11)
(-0.000188006 0.000387658 -4.64891e-11)
(-0.000280414 0.000569346 -2.98809e-11)
(-0.000370085 0.000341223 -2.98028e-11)
(-0.000357679 0.000586015 -1.82106e-11)
(-0.000608762 0.000320484 -1.91569e-11)
(-0.00043858 0.000534391 -1.13799e-11)
(-0.000839569 0.000347652 -1.15498e-11)
(-0.0005656 0.000433702 -7.14372e-12)
(-0.00102206 0.000406046 -6.40063e-12)
(-0.000783312 0.000297422 -4.186e-12)
(-0.00106261 0.000391666 -3.09653e-12)
(-0.00102307 0.000263129 -2.07057e-12)
(-0.00105235 0.000322533 -1.18783e-12)
(-0.00120762 0.000390384 -7.77501e-13)
(-0.00147822 0.000351314 -2.41421e-13)
(-0.00150516 -9.7001e-05 -6.99216e-14)
(-0.000875546 -0.000364927 1.65023e-13)
(-0.000342127 -0.000413026 1.30396e-13)
(0.000240889 -0.00023674 1.34989e-13)
(0.000254984 -7.09058e-05 7.29654e-14)
(0.000331038 -1.28152e-05 4.99293e-14)
(0.000211621 2.29644e-05 2.39813e-14)
(0.000174255 1.86426e-05 1.35941e-14)
(9.87314e-05 1.79e-05 5.97121e-15)
(6.67058e-05 1.07264e-05 2.95375e-15)
(-4.52128e-05 0.000259191 -1.1903e-10)
(-1.8637e-05 0.000366355 -1.84975e-10)
(-0.000125667 0.000492815 -1.2279e-10)
(-5.50707e-05 0.000413586 -8.78077e-11)
(-0.00021209 0.000588458 -5.54748e-11)
(-0.000159288 0.000377179 -4.95278e-11)
(-0.000308814 0.000682563 -3.17579e-11)
(-0.000351368 0.000329388 -3.17011e-11)
(-0.000382475 0.000715478 -1.92212e-11)
(-0.000612486 0.000335241 -2.02592e-11)
(-0.000445882 0.000643561 -1.19557e-11)
(-0.000854262 0.000403381 -1.20397e-11)
(-0.000560252 0.000516044 -7.49869e-12)
(-0.00104385 0.000477402 -6.60339e-12)
(-0.000789027 0.000345613 -4.37429e-12)
(-0.00106679 0.000451967 -3.16567e-12)
(-0.00103349 0.000303212 -2.14057e-12)
(-0.00103617 0.000365008 -1.20303e-12)
(-0.00120419 0.000462569 -7.98095e-13)
(-0.00152659 0.000419092 -2.44241e-13)
(-0.00156911 -0.000116912 -6.73116e-14)
(-0.000900638 -0.000436638 1.73673e-13)
(-0.000332506 -0.000486176 1.35846e-13)
(0.000263223 -0.00027542 1.37386e-13)
(0.000268066 -7.9856e-05 7.36915e-14)
(0.000335942 -1.32323e-05 4.99274e-14)
(0.000213083 2.74077e-05 2.39119e-14)
(0.000174027 2.19291e-05 1.35087e-14)
(9.84229e-05 2.08591e-05 5.92863e-15)
(6.63624e-05 1.24972e-05 2.93115e-15)
(-6.75831e-05 0.000472493 -1.47087e-10)
(2.42331e-05 0.000535853 -1.9716e-10)
(-0.000160834 0.000657696 -1.34806e-10)
(3.09185e-05 0.000559828 -9.25885e-11)
(-0.000247249 0.000764753 -5.99453e-11)
(-8.14252e-05 0.000522116 -5.27365e-11)
(-0.0003367 0.000857918 -3.39223e-11)
(-0.00031094 0.000458113 -3.39057e-11)
(-0.000381684 0.000867004 -2.03542e-11)
(-0.000616609 0.000433334 -2.1569e-11)
(-0.000431738 0.000758749 -1.26298e-11)
(-0.000872923 0.00046235 -1.26059e-11)
(-0.000552778 0.000601152 -7.92039e-12)
(-0.0010711 0.000550816 -6.83776e-12)
(-0.000797025 0.000392469 -4.59528e-12)
(-0.00107185 0.000511512 -3.24577e-12)
(-0.00104625 0.000341826 -2.22065e-12)
(-0.00101592 0.000404536 -1.22013e-12)
(-0.00119779 0.000541392 -8.2163e-13)
(-0.0015836 0.000495157 -2.47736e-13)
(-0.00164497 -0.0001374 -6.41233e-14)
(-0.000929752 -0.000513891 1.8381e-13)
(-0.000320534 -0.000562921 1.42207e-13)
(0.000289522 -0.000314691 1.40129e-13)
(0.000283238 -8.79794e-05 7.45064e-14)
(0.000341482 -1.30735e-05 4.99136e-14)
(0.000214697 3.20774e-05 2.38282e-14)
(0.000173737 2.52924e-05 1.34099e-14)
(9.80582e-05 2.38258e-05 5.87948e-15)
(6.59569e-05 1.4267e-05 2.90464e-15)
(-7.82076e-05 0.000414837 -1.61423e-10)
(6.20916e-05 0.000426891 -2.04994e-10)
(-0.000187176 0.000580103 -1.46455e-10)
(6.76484e-05 0.000428202 -1.00689e-10)
(-0.000292509 0.000782565 -6.58639e-11)
(-5.68047e-05 0.000393691 -5.72715e-11)
(-0.000380014 0.000956942 -3.67648e-11)
(-0.000299619 0.000331278 -3.66284e-11)
(-0.000428548 0.00100955 -2.19062e-11)
(-0.000633268 0.000366507 -2.31252e-11)
(-0.000462101 0.000877525 -1.34748e-11)
(-0.000896372 0.000499993 -1.32472e-11)
(-0.000545134 0.000689243 -8.41564e-12)
(-0.00110456 0.000626794 -7.10401e-12)
(-0.000807721 0.000437251 -4.85104e-12)
(-0.00107788 0.00057053 -3.33718e-12)
(-0.00106169 0.000379847 -2.31067e-12)
(-0.000990484 0.000440323 -1.239e-12)
(-0.00118716 0.00062809 -8.48104e-13)
(-0.00164997 0.00058131 -2.52091e-13)
(-0.00173396 -0.000158636 -6.03113e-14)
(-0.000963121 -0.000597728 1.95525e-13)
(-0.000305853 -0.000643808 1.49526e-13)
(0.000320076 -0.000354636 1.43215e-13)
(0.000300568 -9.51205e-05 7.54038e-14)
(0.000347626 -1.22523e-05 4.98841e-14)
(0.000216439 3.70025e-05 2.3729e-14)
(0.000173377 2.87409e-05 1.32972e-14)
(9.7635e-05 2.68005e-05 5.82379e-15)
(6.54859e-05 1.60354e-05 2.87401e-15)
(-0.000108444 0.000685988 -2.00047e-10)
(0.000161625 0.000671049 -2.08014e-10)
(-0.000269961 0.000860569 -1.6979e-10)
(0.000195739 0.000679318 -1.09871e-10)
(-0.000380309 0.00108609 -7.42255e-11)
(9.90354e-05 0.000635236 -6.06859e-11)
(-0.000407456 0.00123648 -3.94006e-11)
(-0.00021466 0.000561568 -3.94744e-11)
(-0.000405987 0.00123071 -2.33501e-11)
(-0.000639336 0.000546146 -2.49106e-11)
(-0.000407612 0.00100854 -1.43632e-11)
(-0.000923381 0.000578372 -1.39592e-11)
(-0.000527157 0.00078121 -8.98846e-12)
(-0.00114521 0.000707671 -7.40289e-12)
(-0.000821527 0.000478988 -5.14357e-12)
(-0.00108432 0.000629243 -3.44002e-12)
(-0.00108022 0.000408698 -2.41039e-12)
(-0.000958998 0.000471529 -1.25959e-12)
(-0.00117078 0.000723823 -8.77545e-13)
(-0.00172657 0.000679629 -2.57545e-13)
(-0.0018376 -0.000180814 -5.58355e-14)
(-0.001001 -0.000689319 2.08924e-13)
(-0.00028804 -0.000729558 1.57853e-13)
(0.000355211 -0.000395215 1.46644e-13)
(0.000320136 -0.000101095 7.6376e-14)
(0.000354337 -1.06627e-05 4.98345e-14)
(0.000218281 4.22113e-05 2.36127e-14)
(0.000172934 3.22819e-05 1.31705e-14)
(9.71501e-05 2.97836e-05 5.76151e-15)
(6.49481e-05 1.78022e-05 2.83921e-15)
(-0.000129856 0.000431115 -2.29663e-10)
(0.000228747 0.000395042 -2.03535e-10)
(-0.000308288 0.000663522 -1.84329e-10)
(0.000280089 0.000363183 -1.55473e-10)
(-0.000401443 0.000981592 -8.66326e-11)
(0.000158763 0.000273065 -6.70437e-11)
(-0.000451583 0.00128465 -4.34779e-11)
(-0.000232367 0.000240133 -4.3436e-11)
(-0.000491121 0.00136485 -2.58097e-11)
(-0.000694315 0.000334883 -2.70711e-11)
(-0.000491459 0.00112391 -1.56343e-11)
(-0.000959278 0.000568117 -1.47421e-11)
(-0.000522858 0.0008761 -9.65793e-12)
(-0.00119446 0.000792553 -7.735e-12)
(-0.000839425 0.000521543 -5.4756e-12)
(-0.00109336 0.000687423 -3.55556e-12)
(-0.00110237 0.000458147 -2.51962e-12)
(-0.000918219 0.000496682 -1.28147e-12)
(-0.00114687 0.000830376 -9.10052e-13)
(-0.00181439 0.00079239 -2.64396e-13)
(-0.00195768 -0.000204141 -5.06549e-14)
(-0.00104371 -0.000789996 2.24131e-13)
(-0.000266583 -0.00082108 1.67245e-13)
(0.000395314 -0.000436259 1.5041e-13)
(0.000342015 -0.000105706 7.74138e-14)
(0.000361568 -8.20646e-06 4.97597e-14)
(0.00022019 4.77311e-05 2.34777e-14)
(0.000172397 3.59219e-05 1.30293e-14)
(9.66001e-05 3.27748e-05 5.69262e-15)
(6.43435e-05 1.95665e-05 2.80031e-15)
(-0.00014779 0.000795265 -2.923e-10)
(0.000458672 0.000737379 3.93818e-11)
(-0.000346462 0.00110152 -2.15441e-10)
(0.000658462 0.000720035 -9.89735e-10)
(-0.000436736 0.00147515 -2.22646e-10)
(0.000496118 0.000678821 -9.19163e-11)
(-0.000474551 0.00178388 -4.73687e-11)
(-8.38341e-05 0.000662063 -4.70627e-11)
(-0.00042359 0.00172786 -2.74558e-11)
(-0.000693733 0.000663544 -2.94126e-11)
(-0.000358311 0.00129156 -1.67145e-11)
(-0.000990666 0.000696665 -1.55739e-11)
(-0.000474843 0.000976972 -1.04016e-11)
(-0.0012515 0.000887957 -8.10151e-12)
(-0.000861581 0.000540125 -5.84891e-12)
(-0.00109717 0.000742906 -3.68239e-12)
(-0.00112899 0.000444727 -2.63786e-12)
(-0.000873473 0.000514582 -1.30542e-12)
(-0.00111318 0.000948684 -9.45734e-13)
(-0.00191467 0.000922552 -2.73032e-13)
(-0.00209629 -0.000228842 -4.47317e-14)
(-0.0010916 -0.000901264 2.41288e-13)
(-0.000240861 -0.000919213 1.77765e-13)
(0.000440841 -0.000477679 1.54507e-13)
(0.000366275 -0.000108724 7.8506e-14)
(0.000369263 -4.78243e-06 4.96543e-14)
(0.000222131 5.35876e-05 2.33221e-14)
(0.000171755 3.9666e-05 1.28734e-14)
(9.59812e-05 3.57737e-05 5.61705e-15)
(6.36727e-05 2.13278e-05 2.75742e-15)
(-0.000175716 3.44693e-05 6.35399e-11)
(0.000675227 -5.0957e-06 7.61788e-09)
(-0.000315948 0.00053762 9.76063e-10)
(0.000885257 -1.16497e-05 -1.77471e-08)
(-0.000440406 0.00118056 -2.79569e-09)
(0.000557547 2.15288e-05 -5.23437e-10)
(-0.000545168 0.00177298 -7.28776e-11)
(-0.000171749 4.01592e-05 -5.25827e-11)
(-0.00057074 0.00181064 -3.14271e-11)
(-0.000836709 0.000227434 -3.24508e-11)
(-0.000547215 0.00136862 -1.87253e-11)
(-0.00105161 0.000599362 -1.64803e-11)
(-0.000487306 0.00108708 -1.12962e-11)
(-0.00132713 0.000990857 -8.50496e-12)
(-0.00089127 0.000608223 -6.26705e-12)
(-0.00111448 0.000811573 -3.82712e-12)
(-0.00116 0.000536803 -2.76484e-12)
(-0.000802776 0.000523234 -1.32856e-12)
(-0.00106711 0.00108223 -9.8484e-13)
(-0.00202863 0.00107294 -2.83898e-13)
(-0.00225597 -0.000255147 -3.80375e-14)
(-0.00114507 -0.00102487 2.60562e-13)
(-0.000210146 -0.00102476 1.89487e-13)
(0.00049231 -0.000519461 1.58928e-13)
(0.000392991 -0.000109887 7.96398e-14)
(0.000377356 -2.40968e-07 4.9512e-14)
(0.000224065 5.98055e-05 2.31443e-14)
(0.000170991 4.35183e-05 1.27024e-14)
(9.52894e-05 3.87792e-05 5.53477e-15)
(6.29369e-05 2.30858e-05 2.71069e-15)
(-0.000173051 0.000269912 4.11928e-08)
(0.0011878 0.000105266 2.37645e-07)
(-0.000360232 0.00117391 1.02593e-07)
(0.00151491 0.000398618 -2.54467e-07)
(-0.000527639 0.00209236 -4.43761e-08)
(0.0010762 0.000666303 -6.01997e-09)
(-0.000566424 0.00266303 -3.22568e-10)
(7.69672e-05 0.000752069 -4.37609e-11)
(-0.000422638 0.00242092 -3.20319e-11)
(-0.00082295 0.000798842 -3.54434e-11)
(-0.000279509 0.00159551 -1.99189e-11)
(-0.00106107 0.000810607 -1.73129e-11)
(-0.000369252 0.00117446 -1.21967e-11)
(-0.00139625 0.00109388 -8.93922e-12)
(-0.000923484 0.000549559 -6.72904e-12)
(-0.0011105 0.000834403 -3.97991e-12)
(-0.00120146 0.000441646 -2.9003e-12)
(-0.00074799 0.000518344 -1.35728e-12)
(-0.00100552 0.00123023 -1.02756e-12)
(-0.00215817 0.00124772 -2.97625e-13)
(-0.00243959 -0.000283253 -3.05412e-14)
(-0.00120457 -0.0011628 2.82139e-13)
(-0.000173577 -0.00113861 2.02493e-13)
(0.000550304 -0.000561517 1.63663e-13)
(0.000422244 -0.000108902 8.08e-14)
(0.00038577 5.52981e-06 4.93258e-14)
(0.000225945 6.6407e-05 2.29423e-14)
(0.000170093 4.74811e-05 1.2516e-14)
(9.45205e-05 4.17898e-05 5.44573e-15)
(6.21376e-05 2.48399e-05 2.6603e-15)
(-0.000192262 -0.00155436 -9.32159e-07)
(0.00211383 -0.00142025 1.79414e-07)
(-0.000195564 0.000178182 2.58757e-06)
(0.00207822 -0.00084964 -2.23677e-06)
(-0.000371372 0.00160929 -3.66354e-07)
(0.00120562 -0.000489845 -3.96511e-08)
(-0.000600288 0.00255289 -7.3948e-10)
(-0.000143187 -0.000291196 1.9878e-10)
(-0.000686088 0.00239629 -2.04337e-11)
(-0.00114469 3.93266e-05 -3.95412e-11)
(-0.000648901 0.00157911 -2.31313e-11)
(-0.00117579 0.000573998 -1.83147e-11)
(-0.000424399 0.00135231 -1.33884e-11)
(-0.00152 0.00127817 -9.43629e-12)
(-0.000975854 0.000692451 -7.24731e-12)
(-0.00113731 0.000957232 -4.16077e-12)
(-0.00123861 0.000603897 -3.04161e-12)
(-0.000622383 0.000517581 -1.37736e-12)
(-0.000924121 0.00140074 -1.0745e-12)
(-0.00230438 0.00145086 -3.14814e-13)
(-0.0026507 -0.000313565 -2.22416e-14)
(-0.00127062 -0.00131736 3.06231e-13)
(-0.000130152 -0.00126178 2.16869e-13)
(0.000615482 -0.000603743 1.687e-13)
(0.000454111 -0.000105434 8.19694e-14)
(0.000394411 1.2624e-05 4.90881e-14)
(0.000227721 7.34115e-05 2.27142e-14)
(0.000169045 5.1555e-05 1.23138e-14)
(9.36704e-05 4.48034e-05 5.34989e-15)
(6.12757e-05 2.65884e-05 2.6064e-15)
(0.000385559 -0.00266695 -7.58112e-05)
(0.00400442 -0.00262516 -0.000137478)
(-1.06621e-05 0.00134488 1.99788e-06)
(0.00334211 -0.000618923 -2.43626e-05)
(-0.000326333 0.00333468 6.16449e-07)
(0.00215729 0.000376785 -1.379e-07)
(-0.000524224 0.00414382 3.80774e-08)
(0.000156257 0.000857102 2.29735e-09)
(-0.000432475 0.00341852 8.8413e-11)
(-0.00111261 0.000975052 -4.36369e-11)
(-0.000181237 0.00187082 -2.38392e-11)
(-0.00109598 0.000899416 -1.88656e-11)
(-0.000154757 0.00136777 -1.43699e-11)
(-0.00159853 0.0013305 -9.93745e-12)
(-0.00102529 0.000487822 -7.80504e-12)
(-0.00112573 0.000895892 -4.34795e-12)
(-0.00131041 0.000387564 -3.19616e-12)
(-0.000564751 0.000424171 -1.41561e-12)
(-0.000822718 0.00158513 -1.12611e-12)
(-0.00247071 0.00168724 -3.36565e-13)
(-0.00289324 -0.000345713 -1.31193e-14)
(-0.00134376 -0.00149109 3.33076e-13)
(-7.87026e-05 -0.00139536 2.32712e-13)
(0.000688593 -0.000645987 1.74023e-13)
(0.000488673 -9.90681e-05 8.31285e-14)
(0.000403169 2.1194e-05 4.87905e-14)
(0.000229339 8.08357e-05 2.24579e-14)
(0.00016783 5.57391e-05 1.20956e-14)
(9.27349e-05 4.78173e-05 5.24724e-15)
(6.03512e-05 2.83295e-05 2.54905e-15)
(0.00215606 -0.00981547 -0.000877483)
(0.0105548 -0.00653229 -0.00170688)
(0.00131379 0.000247193 -0.000759291)
(0.00493986 -0.00292954 -0.000378311)
(0.000146501 0.00251524 -4.59375e-05)
(0.00239845 -0.0014369 -5.53127e-06)
(-0.000514873 0.00395421 -2.8431e-07)
(-0.000386426 -0.000626792 6.04597e-09)
(-0.000895933 0.00316451 -9.59457e-10)
(-0.00179032 -0.000240384 -4.6745e-11)
(-0.000848912 0.00167142 -2.26668e-11)
(-0.00132462 0.000447054 -2.00132e-11)
(-0.000312995 0.00169591 -1.59799e-11)
(-0.00179684 0.0017143 -1.05798e-11)
(-0.00110868 0.000769468 -8.43818e-12)
(-0.00115431 0.00112424 -4.56645e-12)
(-0.00135507 0.000646874 -3.34261e-12)
(-0.000348287 0.000500171 -1.42399e-12)
(-0.000676533 0.00180987 -1.18308e-12)
(-0.0026567 0.00196569 -3.63595e-13)
(-0.00317202 -0.000381946 -3.24901e-15)
(-0.00142474 -0.00168762 3.62931e-13)
(-1.78929e-05 -0.00154067 2.5012e-13)
(0.000770476 -0.000688073 1.79613e-13)
(0.000526005 -8.93408e-05 8.42546e-14)
(0.000411911 3.13813e-05 4.84232e-14)
(0.000230735 8.86919e-05 2.21709e-14)
(0.000166431 6.003e-05 1.18612e-14)
(9.171e-05 5.08285e-05 5.13777e-15)
(5.93626e-05 3.00608e-05 2.48822e-15)
(0.00353779 -0.029425 -0.00257268)
(0.0217505 -0.0165648 -0.00266369)
(0.0071389 0.00586364 -9.0794e-05)
(0.00974159 -0.00248473 -0.000610038)
(0.00175296 0.00620947 -8.73842e-05)
(0.00385983 -5.98643e-05 -1.80995e-05)
(-0.000169143 0.00691158 -1.86998e-08)
(-0.000219444 0.00114386 2.57428e-07)
(-0.00055863 0.00484888 4.37342e-08)
(-0.0016791 0.00123254 -1.08786e-10)
(-6.83316e-05 0.00199914 -6.61047e-11)
(-0.00101261 0.00089906 -2.5447e-11)
(0.000263944 0.00157377 -1.68106e-11)
(-0.00188718 0.00164425 -1.11534e-11)
(-0.00119945 0.00031492 -9.1184e-12)
(-0.00114378 0.000921774 -4.81055e-12)
(-0.00146407 0.000260138 -3.5289e-12)
(-0.000297748 0.000181864 -1.48258e-12)
(-0.000536882 0.00203409 -1.24842e-12)
(-0.00287103 0.00228308 -3.98317e-13)
(-0.00349308 -0.000417338 7.30765e-15)
(-0.00151398 -0.00190881 3.9612e-13)
(5.39368e-05 -0.00169868 2.69209e-13)
(0.000862092 -0.000729731 1.85445e-13)
(0.000566186 -7.56594e-05 8.53224e-14)
(0.00042048 4.33407e-05 4.79762e-14)
(0.000231837 9.69876e-05 2.18507e-14)
(0.000164832 6.44219e-05 1.16101e-14)
(9.05915e-05 5.38333e-05 5.02146e-15)
(5.83075e-05 3.17804e-05 2.42382e-15)
(-0.00673526 -0.0598337 -0.0142196)
(0.0138624 -0.0422716 -0.0194552)
(0.0034495 0.00435044 0.00249352)
(0.0126016 -0.00523537 -0.00276624)
(0.00268789 0.00639772 -3.22409e-05)
(0.00376009 -0.00218437 -0.000417437)
(-0.000645119 0.00653662 3.24317e-05)
(-0.00177376 -0.000713648 -7.53991e-06)
(-0.0013691 0.0040469 1.83244e-07)
(-0.00296098 -0.000665341 -1.98346e-08)
(-0.00122749 0.00146327 -4.13887e-09)
(-0.00146609 0.000153622 -1.41896e-10)
(-8.87694e-05 0.00216272 -2.28344e-11)
(-0.00219626 0.00241621 -1.17782e-11)
(-0.00131762 0.000828642 -1.00037e-11)
(-0.00114951 0.00130685 -5.03885e-12)
(-0.00153841 0.000656396 -3.66667e-12)
(5.7969e-05 0.000391428 -1.46638e-12)
(-0.000265953 0.00235123 -1.31778e-12)
(-0.00310535 0.00267274 -4.40754e-13)
(-0.00386135 -0.000463985 1.83392e-14)
(-0.00161311 -0.00216349 4.3288e-13)
(0.000138379 -0.00187215 2.90071e-13)
(0.000964469 -0.000770885 1.91483e-13)
(0.00060928 -5.75396e-05 8.63026e-14)
(0.000428688 5.72219e-05 4.74382e-14)
(0.000232568 0.000105723 2.14947e-14)
(0.000163015 6.89056e-05 1.13423e-14)
(8.93757e-05 5.68272e-05 4.89834e-15)
(5.71838e-05 3.34861e-05 2.35579e-15)
(-0.00395353 -0.0324911 -0.0283185)
(-0.00317743 -0.0468283 -0.0438586)
(-0.00113883 0.0047105 -0.00391581)
(0.0146441 -0.00964924 -0.00203097)
(0.00578601 0.0144548 -0.00312264)
(0.00621052 0.00078234 -0.00172923)
(-0.000181565 0.0123121 -0.0003168)
(-0.00219649 0.00185812 8.19104e-06)
(-0.00125357 0.00659432 -3.64849e-06)
(-0.00283067 0.00157971 3.24199e-07)
(-8.63704e-05 0.0017928 -6.91737e-08)
(-0.000657459 0.000644901 -5.11565e-10)
(0.00109124 0.00183235 -8.31402e-11)
(-0.00230029 0.00211704 -9.17699e-12)
(-0.00151171 -2.37425e-05 -1.26599e-11)
(-0.00116028 0.000906348 -5.18012e-12)
(-0.00169103 2.81508e-05 -3.96442e-12)
(9.01376e-05 -0.000200185 -1.56332e-12)
(-9.58713e-05 0.00260435 -1.40932e-12)
(-0.00338698 0.00308639 -4.9746e-13)
(-0.00428946 -0.000500576 2.93981e-14)
(-0.00172114 -0.00244565 4.73898e-13)
(0.000238307 -0.00205917 3.12914e-13)
(0.00107895 -0.000809842 1.97697e-13)
(0.000655376 -3.38886e-05 8.71641e-14)
(0.000436334 7.32367e-05 4.67979e-14)
(0.000232845 0.000114897 2.11004e-14)
(0.000160961 7.34698e-05 1.10576e-14)
(8.8059e-05 5.98062e-05 4.76843e-15)
(5.59914e-05 3.51769e-05 2.28419e-15)
(-0.00520031 -0.0411571 -0.0320512)
(-0.00818441 -0.0416146 -0.0478753)
(-0.0196743 -0.014625 0.00471723)
(0.00327264 -0.0227897 0.00532034)
(0.000704883 0.0106282 -0.00750707)
(-0.00273161 -0.00118036 -0.000944264)
(0.00363384 0.0118673 -0.000412348)
(-0.00445896 -0.000451421 0.000471838)
(-0.00202417 0.00461799 -6.7282e-06)
(-0.00505058 -0.00138726 6.39552e-07)
(-0.0019703 0.000570997 -8.68329e-07)
(-0.0014162 -0.000467518 -1.21637e-08)
(0.000443359 0.0028382 4.07086e-12)
(-0.00278704 0.00360508 -7.7397e-14)
(-0.00165796 0.000817205 -3.60436e-11)
(-0.0010943 0.00148119 -2.88309e-12)
(-0.00181671 0.000611328 -4.68667e-12)
(0.000646453 5.79686e-05 -1.49387e-12)
(0.000370691 0.00308359 -1.49666e-12)
(-0.0036772 0.00365608 -5.63551e-13)
(-0.00477498 -0.000555741 4.05844e-14)
(-0.00184277 -0.00278222 5.18696e-13)
(0.000354579 -0.00227058 3.37596e-13)
(0.00120643 -0.000850121 2.04006e-13)
(0.000704374 -5.45627e-06 8.78642e-14)
(0.000443122 9.14005e-05 4.60421e-14)
(0.00023257 0.000124459 2.06654e-14)
(0.000158654 7.80866e-05 1.07559e-14)
(8.66381e-05 6.27579e-05 4.63176e-15)
(5.47325e-05 3.68434e-05 2.20924e-15)
(0.00864885 0.00502676 -0.0268516)
(-0.00155797 -0.0168131 -0.0254622)
(-0.0191346 0.011585 0.0340634)
(0.00975844 -0.0292385 0.016785)
(-0.00463907 0.0222265 -0.000199103)
(-0.00540535 -0.000835444 -0.000950584)
(-0.00183005 0.0144819 0.000928396)
(-0.00837941 0.00658541 -0.00247749)
(-0.00212611 0.00868451 0.000531932)
(-0.00440486 0.00219785 -1.94545e-06)
(-0.00012327 0.00080674 -9.91827e-06)
(0.000293432 -0.000211086 -2.27079e-07)
(0.00269064 0.00225499 2.03359e-09)
(-0.00291281 0.00291299 1.55896e-10)
(-0.00209838 -0.000546987 -3.03388e-10)
(-0.00115108 0.000844061 2.2954e-11)
(-0.00205305 -0.000314726 -1.18577e-11)
(0.000651432 -0.000805039 -1.53905e-12)
(0.00059078 0.0033231 -1.67746e-12)
(-0.00405768 0.0041803 -6.59009e-13)
(-0.00535417 -0.000637457 4.96722e-14)
(-0.00197402 -0.00315049 5.69646e-13)
(0.000493407 -0.00248963 3.64884e-13)
(0.00134951 -0.00087886 2.1045e-13)
(0.000756753 3.25846e-05 8.83819e-14)
(0.000448923 0.000112392 4.51597e-14)
(0.000231656 0.000134608 2.01875e-14)
(0.000156078 8.28659e-05 1.04372e-14)
(8.51107e-05 6.57615e-05 4.48835e-15)
(5.34082e-05 3.8539e-05 2.131e-15)
(-0.0366713 -0.0718771 -0.0828146)
(-0.00503944 -0.00517947 -0.0174007)
(-0.0243276 -0.0113694 0.0282324)
(0.0005947 -0.0430861 0.0239782)
(0.00372758 0.0239526 -0.00468009)
(-0.00497927 -0.00347113 -0.00160392)
(0.000786055 0.0139204 0.00150143)
(-0.00750198 -0.000540451 0.00264636)
(-0.0063364 0.00286538 -0.00116167)
(-0.00798974 -0.00246107 0.000287724)
(-0.00295704 -0.0014654 -7.29534e-05)
(-0.000873284 -0.00200687 1.66354e-06)
(0.00147198 0.00396903 -4.38327e-07)
(-0.00369371 0.00569964 2.72364e-08)
(-0.00224278 0.000559239 -2.86869e-09)
(-0.000943097 0.00159317 2.4268e-10)
(-0.00224858 0.000437242 -7.77675e-11)
(0.00147028 -0.000480667 -1.18347e-12)
(0.00132052 0.00406166 -2.1943e-12)
(-0.00441589 0.00501991 -7.73856e-13)
(-0.00599375 -0.000611978 5.6817e-14)
(-0.00211712 -0.00354651 6.23807e-13)
(0.000653878 -0.00273933 3.9366e-13)
(0.00150756 -0.000920629 2.16699e-13)
(0.000811075 7.06449e-05 8.86044e-14)
(0.000452992 0.000134398 4.41303e-14)
(0.000229958 0.000144251 1.96636e-14)
(0.000153206 8.71588e-05 1.01009e-14)
(8.34695e-05 6.83644e-05 4.33816e-15)
(5.202e-05 3.99977e-05 2.04991e-15)
(-0.00124242 0.151075 -0.0107616)
(0.0116282 -0.0231097 -0.00759543)
(-0.0167717 0.0308361 0.0348108)
(-0.0160067 -0.0591898 0.0113067)
(0.00647495 0.0301732 0.00268475)
(-0.000982268 0.00262807 0.00188792)
(-0.00111683 0.019654 -0.00659952)
(0.00105603 0.0128176 -0.00174658)
(-0.00149159 0.0122846 0.0035877)
(-0.00812467 0.00160159 -0.000153364)
(0.000168707 -0.0015574 -0.000322651)
(0.00235904 -0.00181355 -1.87928e-05)
(0.00595182 0.00315764 2.95965e-06)
(-0.00388514 0.00430717 -2.01645e-07)
(-0.00321765 -0.00133041 -1.7715e-08)
(-0.00103086 0.000721322 1.75859e-09)
(-0.00260671 -0.000770693 -6.38925e-10)
(0.00146623 -0.00181813 -9.65668e-12)
(0.00162098 0.00424004 -6.54027e-12)
(-0.00492522 0.00568238 -1.20229e-12)
(-0.00677949 -0.000848304 2.7181e-14)
(-0.00228915 -0.00416364 6.85986e-13)
(0.000838684 -0.00304845 4.25955e-13)
(0.00168488 -0.00094024 2.23233e-13)
(0.000870308 0.000133973 8.86405e-14)
(0.000456021 0.000163958 4.29613e-14)
(0.000227492 0.000156852 1.90973e-14)
(0.000150074 9.29919e-05 9.75006e-15)
(8.17403e-05 7.20813e-05 4.18241e-15)
(5.05825e-05 4.21143e-05 1.96613e-15)
(0.0073431 -0.0947536 -0.0631319)
(-0.0529495 0.00405941 -0.033926)
(0.0120656 0.0311954 0.0243313)
(-0.0235161 -0.0558691 0.0279815)
(0.00851945 0.00705115 0.00291938)
(-0.0192663 0.001001 -0.0103962)
(-0.00354935 0.0105664 0.000504603)