/*--------------------------------*- C++ -*----------------------------------*\
| =========                 |                                                 |
| \\      /  F ield         | OpenFOAM: The Open Source CFD Toolbox           |
|  \\    /   O peration     | Version:  2.4.0                                 |
|   \\  /    A nd           | Web:      www.OpenFOAM.org                      |
|    \\/     M anipulation  |                                                 |
\*---------------------------------------------------------------------------*/
FoamFile
{
    version     2.0;
    format      ascii;
    class       volVectorField;
    location    "0.172";
    object      U;
}
// * * * * * * * * * * * * * * * * * * * * * * * * * * * * * * * * * * * * * //

dimensions      [0 1 -1 0 0 0 0];

internalField   nonuniform List<vector> 
3600
(
(0.00272828 -0.000259058 0)
(0.0116185 -0.000286127 0)
(0.0227476 -0.00019154 0)
(0.0289355 -6.37389e-05 0)
(0.0321372 7.20491e-05 0)
(0.0309049 0.000375994 0)
(0.0250349 0.000532966 0)
(0.0144085 0.000607277 0)
(0.00864985 0.000430998 0)
(-0.00205128 0.000299193 0)
(-0.00105491 9.4881e-05 0)
(-0.00799255 0.000218233 0)
(-0.00911763 0.000130666 0)
(-0.0125086 -0.000144267 0)
(-0.0180117 -5.84155e-05 0)
(-0.0134312 -0.00121517 0)
(-0.008989 -0.00231262 0)
(0.00253022 -0.000995762 0)
(0.00201401 -0.000350773 0)
(-0.000454883 0.000270346 0)
(-0.0222293 0.00550414 0)
(-0.06203 0.00807855 0)
(-0.0692984 0.000862743 0)
(-0.0540986 -0.00422015 0)
(-0.047785 -0.00247347 0)
(-0.0422368 -0.00152824 0)
(-0.034684 -0.00284171 0)
(-0.0234649 -0.0044223 0)
(-0.0136517 -0.0019981 0)
(-0.00577019 -0.00217165 0)
(0.000776995 -0.00073602 0)
(0.00983897 -0.00123467 0)
(0.0262462 -0.00118419 0)
(0.037055 -0.000758423 0)
(0.044316 -0.000350608 0)
(0.0470446 0.000623636 0)
(0.0446698 0.00141598 0)
(0.034077 0.00179731 0)
(0.031585 0.00180935 0)
(0.0141279 0.00142426 0)
(0.0208721 0.000923822 0)
(0.00498376 0.00160309 0)
(0.00684869 0.00109138 0)
(-0.000105484 0.00195324 0)
(-0.0151879 0.000902019 0)
(-0.00775027 -0.00159395 0)
(-0.0178108 -0.00386095 0)
(-0.0125857 -0.00298872 0)
(-0.0135212 0.00166234 0)
(-0.0310656 0.011525 0)
(-0.0694315 0.0269247 0)
(-0.101852 0.0181697 0)
(-0.093986 -0.00571278 0)
(-0.084043 -0.0106714 0)
(-0.0718644 -0.00783297 0)
(-0.0568052 -0.00788437 0)
(-0.043108 -0.0147992 0)
(-0.0297481 -0.0200307 0)
(-0.0181 -0.0163674 0)
(-0.00525844 -0.0161679 0)
(-0.000440295 -0.00100322 0)
(0.00766496 -0.00217132 0)
(0.0247496 -0.00229439 0)
(0.0362635 -0.00159903 0)
(0.0443494 -0.000980262 0)
(0.0482549 0.000599415 0)
(0.0473841 0.00203947 0)
(0.0376915 0.002609 0)
(0.0381252 0.00296841 0)
(0.0188744 0.00226509 0)
(0.0310541 0.0014699 0)
(0.0111592 0.00303556 0)
(0.0186056 0.00141023 0)
(0.0139964 0.00484194 0)
(-0.00416029 0.00221094 0)
(0.00575946 -0.00043416 0)
(-0.0107657 -0.000826356 0)
(-0.0191662 -0.00248538 0)
(-0.029539 0.00722923 0)
(-0.0556636 0.0264216 0)
(-0.0902164 0.0392425 0)
(-0.104183 0.0200135 0)
(-0.0870184 -0.0117452 0)
(-0.0834714 -0.0214055 0)
(-0.0681208 -0.022849 0)
(-0.0520902 -0.0257617 0)
(-0.0336475 -0.0301222 0)
(-0.0236224 -0.0305076 0)
(-0.016704 -0.0321933 0)
(-0.00568684 -0.0316617 0)
(-0.00087872 -0.00124007 0)
(0.00693515 -0.00311263 0)
(0.0241917 -0.00342174 0)
(0.0357525 -0.0024581 0)
(0.0439952 -0.00163302 0)
(0.0481037 0.000543478 0)
(0.0474368 0.00263826 0)
(0.0378808 0.0033224 0)
(0.039285 0.00414857 0)
(0.018889 0.00286452 0)
(0.0348016 0.00206217 0)
(0.00960064 0.00416027 0)
(0.0268051 0.000695803 0)
(0.0220788 0.00741274 0)
(0.00541133 0.00330735 0)
(0.0154761 0.000917934 0)
(-0.00400439 0.00507779 0)
(-0.0249822 0.00383972 0)
(-0.0450681 0.0170233 0)
(-0.0649175 0.0391704 0)
(-0.0857459 0.0479077 0)
(-0.0822654 0.0192916 0)
(-0.0655268 -0.0161747 0)
(-0.071497 -0.0270823 0)
(-0.061866 -0.033433 0)
(-0.048612 -0.0415689 0)
(-0.0351639 -0.0455749 0)
(-0.0223156 -0.0368772 0)
(-0.0133258 -0.0413628 0)
(-0.00679204 -0.0432084 0)
(-0.00104947 -0.00144484 0)
(0.00669566 -0.00405508 0)
(0.0241117 -0.00455426 0)
(0.0357215 -0.00332287 0)
(0.0440645 -0.00229517 0)
(0.0482649 0.000482958 0)
(0.0475268 0.00323969 0)
(0.0379115 0.00400353 0)
(0.0394313 0.00538564 0)
(0.0181249 0.00326779 0)
(0.0365044 0.00306293 0)
(0.0039313 0.00463373 0)
(0.0346527 -0.000962292 0)
(0.0238278 0.00953036 0)
(0.0145087 0.00432602 0)
(0.0232701 0.00255025 0)
(0.00516502 0.0131724 0)
(-0.0227195 0.0130421 0)
(-0.0482245 0.0251221 0)
(-0.0613364 0.0432311 0)
(-0.0658466 0.0478481 0)
(-0.0510616 0.0154966 0)
(-0.0386377 -0.0168071 0)
(-0.0423696 -0.0274502 0)
(-0.0372322 -0.0370262 0)
(-0.0248019 -0.0516695 0)
(-0.0212004 -0.0588942 0)
(-0.0130942 -0.0516746 0)
(-0.00603947 -0.0490159 0)
(-0.00479786 -0.0505706 0)
(-0.00116155 -0.00164524 0)
(0.00653598 -0.00500319 0)
(0.0241253 -0.00569459 0)
(0.035818 -0.00419667 0)
(0.0442712 -0.00296898 0)
(0.048589 0.00042626 0)
(0.0477363 0.00385323 0)
(0.038094 0.00469147 0)
(0.0393679 0.00668086 0)
(0.0177314 0.00355264 0)
(0.0371233 0.00458655 0)
(-0.00124817 0.00431016 0)
(0.0398032 -0.00321212 0)
(0.0170823 0.0113755 0)
(0.0249434 0.00414007 0)
(0.0289702 0.00332724 0)
(0.0163481 0.0209502 0)
(-0.0103953 0.0224232 0)
(-0.0352875 0.0319779 0)
(-0.0427024 0.0435588 0)
(-0.0421025 0.0427358 0)
(-0.0267432 0.00943779 0)
(-0.0130203 -0.02219 0)
(-0.00366369 -0.0313677 0)
(0.00124093 -0.0407846 0)
(0.0077467 -0.0530901 0)
(0.00160126 -0.0569272 0)
(-0.00125403 -0.0553226 0)
(-0.000360978 -0.0482224 0)
(-0.00338865 -0.0476722 0)
(-0.00127574 -0.00183644 0)
(0.00635954 -0.00595704 0)
(0.0241514 -0.00684406 0)
(0.0359492 -0.00508199 0)
(0.0445319 -0.00365733 0)
(0.0489983 0.000370754 0)
(0.0480006 0.00447811 0)
(0.0383992 0.00540363 0)
(0.0391453 0.00799954 0)
(0.0179604 0.00380471 0)
(0.0370522 0.00640378 0)
(-0.00270172 0.00357788 0)
(0.0401332 -0.0038882 0)
(-0.000830523 0.0122334 0)
(0.0351317 0.0020312 0)
(0.0280917 0.00424453 0)
(0.0224102 0.0265735 0)
(0.00392656 0.0317544 0)
(-0.0201687 0.0378006 0)
(-0.0224401 0.0418248 0)
(-0.014776 0.0373536 0)
(0.00479904 0.00343921 0)
(0.0165983 -0.0307569 0)
(0.0276001 -0.0397021 0)
(0.0333214 -0.0434289 0)
(0.0339017 -0.0476045 0)
(0.0242261 -0.0467072 0)
(0.0101352 -0.0459585 0)
(0.00226142 -0.0430598 0)
(-0.00255491 -0.042599 0)
(-0.00140761 -0.00201752 0)
(0.00614841 -0.00691728 0)
(0.0241794 -0.00800437 0)
(0.0361022 -0.00598136 0)
(0.0448374 -0.00436365 0)
(0.0494817 0.000319379 0)
(0.0483087 0.00511282 0)
(0.0388037 0.00615318 0)
(0.038733 0.00930577 0)
(0.0188868 0.00405137 0)
(0.0364183 0.0082294 0)
(0.000160849 0.0030004 0)
(0.0379158 -0.00197742 0)
(-0.0188235 0.0115954 0)
(0.0364757 -0.00269175 0)
(0.0165242 0.00621977 0)
(0.0208787 0.0306431 0)
(0.00916083 0.0376143 0)
(0.00796038 0.0440845 0)
(0.00841716 0.0399516 0)
(0.0149526 0.0289418 0)
(0.037922 -0.00484134 0)
(0.0444631 -0.0357683 0)
(0.0490095 -0.0457671 0)
(0.0501737 -0.0430111 0)
(0.0447887 -0.0413176 0)
(0.0366499 -0.0378381 0)
(0.0229067 -0.0336758 0)
(0.00913844 -0.0322126 0)
(0.000681033 -0.0335402 0)
(-0.0015611 -0.00218577 0)
(0.00589885 -0.00788477 0)
(0.0242082 -0.00917712 0)
(0.0362757 -0.00689745 0)
(0.0451886 -0.00509115 0)
(0.0500385 0.000272433 0)
(0.0486705 0.00575707 0)
(0.0392643 0.00696128 0)
(0.0381631 0.0105395 0)
(0.0204189 0.00441208 0)
(0.0343786 0.00972947 0)
(0.00715781 0.00264126 0)
(0.0366428 0.00157938 0)
(-0.0226147 0.0105664 0)
(0.0277131 -0.00571906 0)
(-0.000259764 0.00764681 0)
(0.0250673 0.0324049 0)
(0.0120258 0.0370649 0)
(0.0308679 0.0399028 0)
(0.0433082 0.0384074 0)
(0.0464544 0.0239566 0)
(0.0637341 -0.00732487 0)
(0.0616783 -0.0352772 0)
(0.0574779 -0.0469101 0)
(0.0540598 -0.0411772 0)
(0.0466984 -0.0347432 0)
(0.0382706 -0.0280808 0)
(0.0263273 -0.0203751 0)
(0.0128488 -0.0196607 0)
(0.00314193 -0.0244079 0)
(-0.00173753 -0.00233923 0)
(0.00560895 -0.00886052 0)
(0.0242371 -0.0103638 0)
(0.0364691 -0.00783331 0)
(0.0455869 -0.00584293 0)
(0.0506705 0.000227385 0)
(0.0490969 0.00641548 0)
(0.0397185 0.00782936 0)
(0.0376496 0.0116761 0)
(0.0217342 0.00501679 0)
(0.031 0.0105963 0)
(0.0151984 0.0022154 0)
(0.0342639 0.00563238 0)
(-0.0161294 0.0114606 0)
(0.0209101 -0.00719251 0)
(-0.00392659 0.00532818 0)
(0.0296331 0.0285545 0)
(0.0197451 0.0341827 0)
(0.032287 0.0311656 0)
(0.0538317 0.0331374 0)
(0.0587356 0.0185956 0)
(0.0700224 -0.00808186 0)
(0.0633228 -0.0317326 0)
(0.0549135 -0.0425292 0)
(0.0482427 -0.0353665 0)
(0.0401201 -0.0277342 0)
(0.0302604 -0.0197258 0)
(0.0216946 -0.00839115 0)
(0.0108048 -0.00686495 0)
(0.00291091 -0.0129346 0)
(-0.00193754 -0.00247629 0)
(0.00527698 -0.00984562 0)
(0.0242656 -0.0115653 0)
(0.0366821 -0.00879264 0)
(0.0460336 -0.0066223 0)
(0.0513816 0.000186584 0)
(0.0495844 0.0070989 0)
(0.0401679 0.00874998 0)
(0.0373139 0.0127543 0)
(0.0222366 0.00591561 0)
(0.0278953 0.0106136 0)
(0.0209276 0.00218377 0)
(0.027715 0.00926124 0)
(-0.00462997 0.012072 0)
(0.0190367 -0.00759126 0)
(0.00210029 0.00339146 0)
(0.0242685 0.0257988 0)
(0.0249418 0.0336117 0)
(0.0286648 0.0252752 0)
(0.0430291 0.0249239 0)
(0.0516018 0.0116408 0)
(0.0540566 -0.00852103 0)
(0.0532507 -0.030062 0)
(0.0485809 -0.0379003 0)
(0.0408343 -0.0298096 0)
(0.035295 -0.0192915 0)
(0.021338 -0.0106294 0)
(0.0148255 -0.000554142 0)
(0.00808859 0.00118005 0)
(0.00279701 -0.00592772 0)
(-0.00216174 -0.00259448 0)
(0.00490101 -0.0108412 0)
(0.0242928 -0.0127823 0)
(0.0369144 -0.00977988 0)
(0.0465305 -0.00743283 0)
(0.0521757 0.000147576 0)
(0.0501291 0.00781598 0)
(0.040652 0.00970308 0)
(0.0370871 0.0138736 0)
(0.0220126 0.00693127 0)
(0.026785 0.0101932 0)
(0.0227085 0.00275144 0)
(0.0209331 0.0121653 0)
(0.00618033 0.0132796 0)
(0.0196325 -0.00746256 0)
(0.0131542 0.00238563 0)
(0.0163769 0.0217966 0)
(0.0242545 0.0322514 0)
(0.0304281 0.0237453 0)
(0.035191 0.0211731 0)
(0.0454957 0.0103299 0)
(0.0475744 -0.00894511 0)
(0.0541308 -0.029375 0)
(0.0498889 -0.0318255 0)
(0.0371002 -0.0247289 0)
(0.031769 -0.0123928 0)
(0.014607 -0.00042048 0)
(0.0111469 0.00712073 0)
(0.00646122 0.00537445 0)
(0.0027801 -0.00215553 0)
(-0.0024108 -0.00269062 0)
(0.00447889 -0.0118482 0)
(0.0243176 -0.0140163 0)
(0.0371649 -0.0107987 0)
(0.0470786 -0.00827823 0)
(0.0530554 0.000114506 0)
(0.050735 0.00856658 0)
(0.0411972 0.0106989 0)
(0.0367687 0.0150484 0)
(0.0218516 0.00801256 0)
(0.0261374 0.00961207 0)
(0.0236936 0.00408533 0)
(0.0177556 0.0128903 0)
(0.0138698 0.0104107 0)
(0.0207377 -0.00825273 0)
(0.0208433 0.00327791 0)
(0.0150204 0.0235544 0)
(0.0185211 0.0272943 0)
(0.0327274 0.0211197 0)
(0.0374976 0.0178895 0)
(0.0441126 0.00747579 0)
(0.0517597 -0.0128451 0)
(0.0480302 -0.0291642 0)
(0.0435741 -0.0225872 0)
(0.0311695 -0.0145163 0)
(0.0258795 0.0021257 0)
(0.0189218 0.00894849 0)
(0.0146213 0.00718602 0)
(0.00262656 0.0119569 0)
(0.0040508 0.000552868 0)
(-0.00268548 -0.0027625 0)
(0.00400804 -0.0128679 0)
(0.0243387 -0.0152701 0)
(0.037433 -0.0118516 0)
(0.0476804 -0.00916254 0)
(0.0540253 8.82296e-05 0)
(0.0514107 0.00936043 0)
(0.0417661 0.0117363 0)
(0.0364299 0.0163028 0)
(0.0217125 0.0091226 0)
(0.0251219 0.00906153 0)
(0.0249379 0.00508838 0)
(0.0175393 0.015418 0)
(0.0132185 0.0124306 0)
(0.0223985 -0.00879899 0)
(0.0152167 0.00213424 0)
(0.0272971 0.0230461 0)
(0.0206843 0.0236676 0)
(0.0303732 0.017027 0)
(0.0375879 0.0164682 0)
(0.043637 0.00488539 0)
(0.0473724 -0.0120757 0)
(0.0339754 -0.0248773 0)
(0.0337541 -0.0210666 0)
(0.0283672 -0.0148601 0)
(0.0230952 -0.00459752 0)
(0.0203231 0.0101023 0)
(0.00238893 0.0237611 0)
(-0.00463462 0.0159074 0)
(0.00478142 -0.00648977 0)
(-0.00298658 -0.00280744 0)
(0.00348556 -0.0139017 0)
(0.0243549 -0.0165472 0)
(0.0377177 -0.0129401 0)
(0.0483372 -0.0100906 0)
(0.0550929 6.4287e-05 0)
(0.0521467 0.0102021 0)
(0.0423691 0.0128303 0)
(0.0361207 0.0175668 0)
(0.0216071 0.0103398 0)
(0.0226389 0.00810442 0)
(0.028035 0.00660619 0)
(0.0214145 0.0144695 0)
(0.017184 0.00772428 0)
(0.0216178 -0.00588959 0)
(0.0157305 0.000519437 0)
(0.0354584 0.0247284 0)
(0.0223406 0.0243731 0)
(0.0269568 0.013891 0)
(0.0372509 0.0105714 0)
(0.0333235 0.00234014 0)
(0.0321706 -0.0103044 0)
(0.024386 -0.0192136 0)
(0.0173919 -0.0137769 0)
(0.000559085 -0.00487002 0)
(-0.00939768 0.0116554 0)
(-0.00906274 0.0277662 0)
(-0.016214 0.0305512 0)
(-0.00457992 0.00571793 0)
(-0.00156436 -0.0121659 0)
(-0.00331504 -0.00282202 0)
(0.00290804 -0.0149507 0)
(0.024365 -0.0178509 0)
(0.0380179 -0.0140667 0)
(0.0490528 -0.0110677 0)
(0.0562602 4.54115e-05 0)
(0.0529388 0.0111111 0)
(0.0430148 0.0138964 0)
(0.0360518 0.019037 0)
(0.0207468 0.011872 0)
(0.0205381 0.00685357 0)
(0.0319539 0.00664372 0)
(0.0199168 0.0190715 0)
(-0.00977813 0.0104573 0)
(0.0205526 -0.0087267 0)
(0.0181789 -0.00455627 0)
(0.0459447 0.0241636 0)
(0.0370052 0.0259533 0)
(0.0328265 0.0125437 0)
(0.0328008 0.0150359 0)
(0.0241913 0.00659998 0)
(0.039082 -0.00814318 0)
(0.0298069 -0.015337 0)
(0.0214922 -0.00417592 0)
(0.00929285 0.00381065 0)
(-0.00467485 0.00772021 0)
(-0.00949302 0.0217882 0)
(-0.0104265 0.0212054 0)
(-0.00382105 -0.00178335 0)
(-0.0112651 -0.011947 0)
(-0.00367176 -0.00280957 0)
(0.00227174 -0.0160127 0)
(0.0243678 -0.0191847 0)
(0.0383321 -0.0152336 0)
(0.049833 -0.012099 0)
(0.0575155 3.79649e-05 0)
(0.0537891 0.012052 0)
(0.0438203 0.0151269 0)
(0.0359963 0.0203106 0)
(0.0192787 0.0130557 0)
(0.0209979 0.00535729 0)
(0.0346397 0.00751892 0)
(0.0235336 0.0222399 0)
(0.0107816 0.0075286 0)
(0.0211731 -0.010558 0)
(0.0280653 -0.00999968 0)
(0.0479538 0.0189256 0)
(0.0484825 0.0255503 0)
(0.0244712 0.0163351 0)
(0.0179667 0.0146902 0)
(0.0276701 -0.00138715 0)
(0.0360367 -0.013328 0)
(0.0165386 -0.00918315 0)
(0.0114154 0.00063824 0)
(0.0138849 0.0122054 0)
(0.0122143 0.0224734 0)
(0.00725799 0.0272123 0)
(0.00731057 0.0244435 0)
(0.00804006 0.010167 0)
(-0.00241809 0.00108678 0)
(-0.00405734 -0.00276298 0)
(0.00157273 -0.0170817 0)
(0.0243612 -0.0205518 0)
(0.0386587 -0.0164439 0)
(0.0506853 -0.0131885 0)
(0.058812 3.46685e-05 0)
(0.0547947 0.0131256 0)
(0.0446841 0.0158939 0)
(0.0362711 0.0226637 0)
(0.015952 0.0153651 0)
(0.0211701 0.00138525 0)
(0.0382014 0.00854062 0)
(0.0121365 0.0259033 0)
(-0.0102411 0.0099691 0)
(0.0101823 -0.0124294 0)
(0.0228658 -0.0141946 0)
(0.0416404 0.0229614 0)
(0.0188303 0.0335633 0)
(0.0283957 0.0225862 0)
(0.0192035 0.0166373 0)
(0.0273064 -0.00473746 0)
(0.00596109 0.000736561 0)
(-0.0164513 0.00173367 0)
(-0.0119168 -0.00081511 0)
(-0.000749198 0.00454018 0)
(0.0123705 0.0186025 0)
(0.0162493 0.0257603 0)
(0.0199515 0.0217936 0)
(0.0197531 0.0138955 0)
(0.012657 0.0138539 0)
(-0.00447282 -0.00268599 0)
(0.000806374 -0.0181635 0)
(0.0243394 -0.0219553 0)
(0.0389962 -0.017701 0)
(0.0515971 -0.0143384 0)
(0.0600782 4.76957e-05 0)
(0.0560047 0.0140634 0)
(0.0459223 0.0179038 0)
(0.0336682 0.0237997 0)
(0.0225221 0.0151448 0)
(0.016218 0.00136102 0)
(0.0421491 0.0113222 0)
(0.00531425 0.0325013 0)
(-0.0214153 0.00557392 0)
(0.0131851 -0.020779 0)
(0.0221242 -0.021192 0)
(0.0429403 0.0229051 0)
(0.0145499 0.030174 0)
(0.0271073 0.0170961 0)
(0.0214753 0.0170018 0)
(0.0133805 0.00494565 0)
(-0.0271716 0.00912721 0)
(-0.038056 0.00207784 0)
(-0.0285488 -0.00927365 0)
(-0.0226794 -0.00885236 0)
(-0.00793372 0.00839139 0)
(0.00275322 0.0183912 0)
(0.00786013 0.0174696 0)
(0.0132158 0.0196924 0)
(0.00968324 0.0256523 0)
(-0.00491807 -0.0025491 0)
(-2.91694e-05 -0.0192808 0)
(0.0242791 -0.0233989 0)
(0.0393425 -0.0190075 0)
(0.0524678 -0.015545 0)
(0.0611649 1.85203e-06 0)
(0.0575084 0.0152618 0)
(0.0456661 0.0175039 0)
(0.0384824 0.0264143 0)
(0.00218225 0.0197363 0)
(0.012398 -0.00511371 0)
(0.0506164 0.0132628 0)
(-0.0039991 0.0366438 0)
(-0.0024359 0.00669121 0)
(0.00542771 -0.0211379 0)
(0.017727 -0.0243822 0)
(0.0419634 0.0305697 0)
(0.016578 0.034762 0)
(0.021827 0.0200727 0)
(-0.0081907 0.0235454 0)
(0.0243808 0.0208918 0)
(-0.0149031 0.0281838 0)
(-0.0412446 0.00279616 0)
(-0.0361746 -0.0152452 0)
(-0.0394104 -0.0143565 0)
(-0.0275183 0.000797969 0)
(-0.0166545 0.0112264 0)
(-0.0114589 0.00904654 0)
(-0.00141728 0.0171227 0)
(0.000918951 0.0299083 0)
(-0.00540771 -0.00247024 0)
(-0.000924713 -0.0203885 0)
(0.0240844 -0.0248872 0)
(0.0396737 -0.0203598 0)
(0.0529223 -0.0168265 0)
(0.0616063 -6.28705e-05 0)
(0.0571974 0.0165635 0)
(0.045903 0.0214 0)
(0.0261333 0.0300431 0)
(0.0339285 0.0191437 0)
(-0.00608594 -0.00774092 0)
(0.0621078 0.0189931 0)
(0.00980039 0.0466663 0)
(-0.00022557 0.00362523 0)
(0.00663053 -0.0261325 0)
(0.00334922 -0.0382995 0)
(0.0518057 0.0250114 0)
(0.0423182 0.0382511 0)
(0.0166167 0.0265449 0)
(-0.0172088 0.0178135 0)
(0.000712319 0.00484461 0)
(0.0195506 0.0420532 0)
(-0.00912414 0.0165045 0)
(-0.00913425 -0.00700392 0)
(-0.023308 -0.0166692 0)
(-0.0255642 -0.00803015 0)
(-0.0209038 0.00299418 0)
(-0.014505 0.000135195 0)
(-0.0124864 0.00817704 0)
(-0.00402761 0.0214647 0)
(-0.0057851 -0.0020408 0)
(-0.00181667 -0.0214991 0)
(0.0234123 -0.0264181 0)
(0.0398348 -0.021735 0)
(0.0518791 -0.0181756 0)
(0.059047 -7.33788e-05 0)
(0.0515098 0.0169785 0)
(0.0340711 0.0187491 0)
(0.0495202 0.02768 0)
(0.0100508 0.0237888 0)
(0.0192954 -0.0153235 0)
(0.0552164 0.00951197 0)
(0.0230706 0.0477532 0)
(-0.00972227 0.00623837 0)
(0.032403 -0.0240393 0)
(0.00382574 -0.0395951 0)
(0.0419223 0.020081 0)
(0.0325384 0.0415835 0)
(0.00694972 0.0416527 0)
(0.0268062 0.0293405 0)
(-0.0160844 0.000670485 0)
(0.0357198 0.0424386 0)
(0.0111138 0.0256487 0)
(0.00893454 -0.00414218 0)
(-0.00234709 -0.00773046 0)
(-0.0057961 -0.00297834 0)
(-0.00841993 0.000336835 0)
(-0.00444959 0.000461193 0)
(-0.00848975 0.0036065 0)
(-0.00478286 0.00909005 0)
(-0.00717463 -0.00225317 0)
(-0.00251273 -0.0226753 0)
(0.0212513 -0.0279797 0)
(0.0391826 -0.023063 0)
(0.0466099 -0.0192604 0)
(0.0486824 0.00087697 0)
(0.0321521 0.0213787 0)
(0.0147279 0.0231473 0)
(-0.000969843 0.0356926 0)
(-0.00859296 0.0277548 0)
(0.00018799 -0.0155453 0)
(-0.0571772 0.0246364 0)
(0.0002015 0.0554032 0)
(-0.0331286 -0.000590496 0)
(0.0444339 -0.02601 0)
(0.0189182 -0.0366489 0)
(0.0186991 0.0217357 0)
(-0.00863985 0.0549589 0)
(-0.00312033 0.0322904 0)
(0.0331035 0.0331619 0)
(-0.00694285 -0.0020573 0)
(0.0244714 0.0287108 0)
(0.0237096 0.0312101 0)
(0.017443 0.00284905 0)
(0.00105532 -0.0035028 0)
(0.00188007 -0.0023971 0)
(0.00267017 0.00114008 0)
(0.00336314 0.00210921 0)
(-0.000347801 0.00682533 0)
(-0.00350703 0.010282 0)
(-0.0040543 -0.00120214 0)
(-0.00255026 -0.0232708 0)
(0.0152499 -0.0295473 0)
(0.0358205 -0.0241411 0)
(0.0333644 -0.0191359 0)
(0.030972 0.0019082 0)
(0.0141986 0.0200419 0)
(-0.000142688 0.0210543 0)
(0.0276473 0.0304471 0)
(0.00660424 0.0236305 0)
(-0.0653089 -0.00757218 0)
(-0.0419431 0.012891 0)
(0.00450017 0.053422 0)
(-0.0866288 -0.00574509 0)
(0.0353511 -0.0376924 0)
(0.0215997 -0.0315086 0)
(-0.0129535 0.0317724 0)
(-0.0539908 0.0510012 0)
(-0.0352677 0.016272 0)
(0.0348956 0.0353675 0)
(0.00647936 0.00439085 0)
(0.00689562 0.0167638 0)
(0.0273427 0.0327901 0)
(0.00986174 0.0120537 0)
(-0.00660979 0.00288311 0)
(0.00231516 -0.00470612 0)
(-7.99522e-05 -0.000713327 0)
(0.00115617 0.00379128 0)
(-0.0012311 0.0114452 0)
(-0.00463307 0.0159972 0)
(-0.0166315 -0.00206989 0)
(-0.00145163 -0.0250676 0)
(0.00174156 -0.0310219 0)
(0.0263943 -0.0246518 0)
(0.0165807 -0.0183744 0)
(0.0256276 0.00409996 0)
(-0.0399655 0.0265113 0)
(-0.108589 0.0188322 0)
(0.0398059 0.0346696 0)
(-0.0313049 0.0366713 0)
(-0.0746751 -0.0114284 0)
(-0.0811238 0.00947077 0)
(-0.0403957 0.0572325 0)
(-0.120512 -0.0163537 0)
(-0.00569851 -0.0600998 0)
(-0.0117155 -0.0241621 0)
(-0.0210921 0.0455347 0)
(-0.0414924 0.050993 0)
(-0.0161307 -0.00631264 0)
(0.0361833 0.0166494 0)
(0.00960421 0.0108515 0)
(-0.0169178 0.0193671 0)
(0.00869182 0.0316859 0)
(-0.00351355 0.0208503 0)
(-0.015046 0.00199166 0)
(-0.00279612 -0.00807985 0)
(-0.0110294 0.00199145 0)
(-0.00410625 0.00376425 0)
(-0.00443527 0.013451 0)
(-0.00301926 0.0199632 0)
(0.00881031 -9.64347e-05 0)
(-0.000611799 -0.0229873 0)
(-0.0209892 -0.0317941 0)
(0.0106049 -0.0254978 0)
(0.0273874 -0.0223974 0)
(0.0505917 0.00662904 0)
(-0.0813439 0.036006 0)
(-0.185021 0.00996628 0)
(-0.0722827 0.025839 0)
(-0.00331774 0.0469914 0)
(-0.0584395 0.000851395 0)
(-0.149485 0.0102198 0)
(-0.0476413 0.0631448 0)
(-0.0893851 -0.0243528 0)
(-0.0373526 -0.0659601 0)
(-0.0409654 -0.0278064 0)
(-0.043316 0.0439822 0)
(0.0115382 0.0523562 0)
(-0.0115413 -0.0107566 0)
(-0.00435284 0.0246535 0)
(-0.0376383 0.0282229 0)
(-0.0419426 0.0154894 0)
(0.0133338 0.0318948 0)
(-0.0062588 0.0301608 0)
(-0.0151449 0.00293906 0)
(-0.0106946 -0.00732403 0)
(-0.0124579 -0.000494847 0)
(-0.00500106 -0.00126541 0)
(-0.00557117 0.0099137 0)
(-0.000359081 0.0167355 0)
(-0.0329579 -0.00235074 0)
(-0.00218883 -0.0248467 0)
(-0.0441561 -0.0311893 0)
(0.00436242 -0.0297284 0)
(0.0985472 -0.0256048 0)
(-0.21124 0.0257419 0)
(-0.187631 0.0513495 0)
(-0.166509 0.00988566 0)
(-0.172839 0.00954225 0)
(0.0019516 0.0379073 0)
(-0.0632359 0.014025 0)
(-0.187157 0.00569095 0)
(0.01315 0.0601148 0)
(-0.0411351 -0.0202674 0)
(-0.0600606 -0.0616742 0)
(-0.102618 -0.0208466 0)
(-0.0778013 0.0322606 0)
(0.00778656 0.0385009 0)
(-0.0667198 0.000263897 0)
(-0.0395326 0.0316239 0)
(-0.0481498 0.023907 0)
(-0.029382 -0.00949807 0)
(0.000867166 0.00625299 0)
(0.0113612 0.0331616 0)
(-0.00469481 0.00661697 0)
(-0.00245976 -0.0132317 0)
(-0.00513089 -0.00565756 0)
(-0.00334383 -0.00260438 0)
(-0.00365458 0.00514255 0)
(0.000240637 0.0111541 0)
(0.00940318 0.00174772 0)
(-0.0189696 -0.0190295 0)
(-0.0384193 -0.033005 0)
(0.11651 -0.0362845 0)
(-0.952837 0.0150591 0)
(-0.37446 0.0306496 0)
(-0.231026 0.034549 0)
(-0.181893 0.0081777 0)
(-0.215726 0.0021191 0)
(-0.0764918 0.0250147 0)
(-0.0631813 0.0286028 0)
(-0.193766 -0.00694711 0)
(0.0342817 0.0368331 0)
(-0.0186407 -0.00802888 0)
(-0.0762972 -0.0454952 0)
(-0.144021 -0.0218202 0)
(-0.103004 0.0162244 0)
(-0.0191247 0.0363798 0)
(-0.0833838 0.00577316 0)
(-0.0365205 0.0249882 0)
(-0.0348942 0.0181839 0)
(-0.00750013 -0.0090958 0)
(-0.0364757 0.00662791 0)
(0.00500464 0.0410831 0)
(0.0219163 0.01523 0)
(0.0156334 0.000455974 0)
(0.00231077 0.000199169 0)
(-0.00117083 0.00010339 0)
(-0.00190894 0.00496207 0)
(0.000247622 0.0112648 0)
(-0.0480929 -0.00183074 0)
(-0.0241532 -0.0262085 0)
(0.146129 -0.0464146 0)
(0.31783 0.0410324 0)
(-0.2594 0.0218507 0)
(-0.179902 -0.0484723 0)
(-0.251888 0.0167863 0)
(-0.233226 0.00766902 0)
(-0.234686 -0.003224 0)
(-0.149312 0.0127852 0)
(-0.0821456 0.0354856 0)
(-0.182301 -0.0121751 0)
(-0.0342129 0.0170223 0)
(-0.0184999 0.00121935 0)
(-0.063618 -0.0309713 0)
(-0.141439 -0.017249 0)
(-0.124012 -0.0061969 0)
(-0.0337839 0.0309209 0)
(-0.057802 0.0071834 0)
(-0.0248476 0.0123984 0)
(-0.00217442 0.0063356 0)
(0.021177 0.000274791 0)
(-0.0230785 -0.00768862 0)
(0.000517736 -0.0048676 0)
(0.0361521 -0.00561793 0)
(0.0255495 0.00269986 0)
(0.0174751 0.00557863 0)
(0.00991546 0.00042435 0)
(-0.00238746 0.00270141 0)
(-0.00169016 0.00706116 0)
(0.0604821 0.00745463 0)
(-0.0406918 -0.0250775 0)
(0.209195 -0.0511528 0)
(0.711967 0.0150884 0)
(0.294926 0.0703371 0)
(-0.0272285 -0.00148206 0)
(-0.259768 0.0335159 0)
(-0.2538 0.00676832 0)
(-0.24027 -0.00978841 0)
(-0.187808 8.35883e-05 0)
(-0.127453 0.0322347 0)
(-0.172238 -0.0150267 0)
(-0.108046 -0.00101283 0)
(-0.0305606 -0.00257792 0)
(-0.0585647 -0.0118727 0)
(-0.139929 -0.00743974 0)
(-0.139963 -0.0121905 0)
(-0.0717101 0.010647 0)
(-0.0265356 0.00128956 0)
(0.0174464 0.00172754 0)
(0.0397764 -0.00862931 0)
(0.0496234 0.00505605 0)
(0.00487717 0.0134456 0)
(0.109166 -0.00302759 0)
(0.136881 0.00173354 0)
(0.0671432 0.0143566 0)
(0.0560069 0.0132753 0)
(0.0473348 0.0189982 0)
(0.0252125 0.0152179 0)
(0.00959438 0.0123902 0)
(0.00123354 -0.00232402 0)
(0.00969516 -0.00343772 0)
(0.0216165 -0.00509689 0)
(0.03126 -0.00155372 0)
(0.0360039 -0.00266338 0)
(0.044661 -0.00445944 0)
(0.0565244 -0.00637199 0)
(0.073992 0.000324373 0)
(0.06979 0.00813071 0)
(0.0291823 0.00612201 0)
(0.00376809 0.000702765 0)
(4.23762e-05 -0.000252914 0)
(-0.000786258 -0.000875036 0)
(0.0109436 -0.00239751 0)
(0.016145 -0.00127536 0)
(0.0207094 -5.71584e-05 0)
(0.0140941 -4.30281e-05 0)
(0.0103308 0.000138545 0)
(0.00824292 0.000329439 0)
(-0.000575566 0.000249966 0)
(-0.00125701 0.000427029 0)
(-0.0124532 0.00038281 0)
(-0.0159698 0.000498084 0)
(-0.0251312 0.000450488 0)
(-0.0303921 0.000376666 0)
(-0.0317742 6.94085e-05 0)
(-0.0286511 -4.75383e-05 0)
(-0.0226597 -0.000190444 0)
(-0.0115522 -0.000282218 0)
(-0.00276199 -0.00025925 0)
(0.00445205 -0.0166895 0)
(0.0170881 -0.017735 0)
(0.0275621 -0.0223391 0)
(0.0403377 -0.00886165 0)
(0.0541374 -0.00895816 0)
(0.0687803 -0.0127338 0)
(0.0836818 -0.0154495 0)
(0.0933356 -0.00724932 0)
(0.104126 0.0173439 0)
(0.0748063 0.0276713 0)
(0.036242 0.0130357 0)
(0.0173822 0.00226004 0)
(0.0157062 -0.0029854 0)
(0.0219829 -0.00432095 0)
(0.0124284 -0.00169243 0)
(0.0188047 0.00115607 0)
(0.00217783 0.00234887 0)
(-0.00555034 0.00127306 0)
(-0.00542776 0.0021297 0)
(-0.0236958 0.00142023 0)
(-0.0184413 0.001759 0)
(-0.0359493 0.00153356 0)
(-0.0355707 0.00140489 0)
(-0.0447622 0.0011641 0)
(-0.0465008 0.00063579 0)
(-0.043992 -0.000358003 0)
(-0.0367782 -0.000709183 0)
(-0.0261782 -0.00118168 0)
(-0.00977738 -0.00122384 0)
(-0.000820014 -0.000736322 0)
(0.00382817 -0.0320871 0)
(0.0138589 -0.0301972 0)
(0.0181749 -0.0297814 0)
(0.0286476 -0.0257529 0)
(0.05125 -0.0269833 0)
(0.0635725 -0.0274606 0)
(0.078844 -0.026209 0)
(0.0832225 -0.014607 0)
(0.101015 0.0178226 0)
(0.0930052 0.0377931 0)
(0.0628431 0.027238 0)
(0.0365755 0.00863764 0)
(0.0247088 -0.00235398 0)
(0.0163458 -0.00147153 0)
(-0.00060688 -0.00027511 0)
(0.00773599 0.00289369 0)
(-0.0119898 0.00559432 0)
(-0.017517 0.00186704 0)
(-0.0122483 0.00402269 0)
(-0.0342456 0.00221435 0)
(-0.0232521 0.00279847 0)
(-0.0423669 0.00244157 0)
(-0.0390766 0.00192918 0)
(-0.0474225 0.00162124 0)
(-0.0477118 0.000630903 0)
(-0.0440321 -0.000993683 0)
(-0.0359957 -0.00151573 0)
(-0.0246896 -0.00229085 0)
(-0.00760839 -0.00215459 0)
(0.000394831 -0.00100405 0)
(0.000824565 -0.0429208 0)
(0.00721387 -0.0382402 0)
(0.0169086 -0.0361918 0)
(0.0289115 -0.0450338 0)
(0.044424 -0.0431452 0)
(0.0559882 -0.035731 0)
(0.0624768 -0.0307623 0)
(0.0583707 -0.0196363 0)
(0.0763264 0.0166368 0)
(0.085122 0.0441893 0)
(0.0693235 0.0384664 0)
(0.0505726 0.0184003 0)
(0.0311599 0.00421557 0)
(0.0104153 0.00454139 0)
(-0.0102646 0.00150794 0)
(-0.001652 0.00439519 0)
(-0.0205114 0.00859043 0)
(-0.0258871 0.00138616 0)
(-0.0113238 0.00563145 0)
(-0.0381791 0.00301392 0)
(-0.0233192 0.00358289 0)
(-0.0435459 0.00336373 0)
(-0.0392201 0.00235027 0)
(-0.0474196 0.00205514 0)
(-0.0475335 0.000599207 0)
(-0.0436779 -0.00165124 0)
(-0.0354843 -0.00234038 0)
(-0.0241369 -0.00341723 0)
(-0.00687995 -0.00309023 0)
(0.000832012 -0.00124077 0)
(-0.00266286 -0.0501306 0)
(-0.00167829 -0.0472693 0)
(0.00601746 -0.0513528 0)
(0.0133788 -0.0564262 0)
(0.0169187 -0.0515387 0)
(0.0260875 -0.037569 0)
(0.0306636 -0.0310506 0)
(0.0304873 -0.0228054 0)
(0.0456566 0.0107151 0)
(0.0642032 0.0411858 0)
(0.063 0.0407217 0)
(0.0520525 0.0255158 0)
(0.0286916 0.0129085 0)
(0.00155505 0.0127639 0)
(-0.0182016 0.00366156 0)
(-0.0102871 0.00582806 0)
(-0.0231903 0.0112212 0)
(-0.0338746 3.30312e-05 0)
(-0.0060643 0.00661515 0)
(-0.0400521 0.00417596 0)
(-0.022679 0.00416757 0)
(-0.0438414 0.00433353 0)
(-0.0392129 0.00272727 0)
(-0.0474443 0.00249231 0)
(-0.0476534 0.000566765 0)
(-0.0437459 -0.00231664 0)
(-0.0354513 -0.00317018 0)
(-0.024062 -0.00454892 0)
(-0.00664096 -0.00402722 0)
(0.00100178 -0.00144624 0)
(-0.00589184 -0.0464175 0)
(-0.00817484 -0.046911 0)
(-0.00743522 -0.0544643 0)
(-0.0130133 -0.0543953 0)
(-0.0178403 -0.0506994 0)
(-0.0129307 -0.0411546 0)
(-0.0063232 -0.0356409 0)
(0.00373767 -0.0299841 0)
(0.0209143 0.00203829 0)
(0.0414191 0.0351546 0)
(0.0427755 0.040386 0)
(0.0377859 0.0314187 0)
(0.01554 0.0215462 0)
(-0.00990868 0.0205783 0)
(-0.0244549 0.00499761 0)
(-0.0201115 0.00616723 0)
(-0.0183405 0.0136732 0)
(-0.0393248 -0.00210597 0)
(-0.000814116 0.00683595 0)
(-0.0408387 0.00586479 0)
(-0.0224743 0.00463835 0)
(-0.0439759 0.00534571 0)
(-0.0393469 0.00309071 0)
(-0.0475694 0.0029419 0)
(-0.0479269 0.000543274 0)
(-0.0439505 -0.0029918 0)
(-0.0355458 -0.00400812 0)
(-0.0240814 -0.00568863 0)
(-0.00648181 -0.00497012 0)
(0.00111276 -0.00164731 0)
(-0.00754065 -0.0415064 0)
(-0.0119631 -0.0415506 0)
(-0.0216136 -0.0438332 0)
(-0.0356901 -0.0448558 0)
(-0.0415023 -0.0468057 0)
(-0.0412622 -0.0445935 0)
(-0.0346016 -0.0449087 0)
(-0.0245054 -0.0391015 0)
(-0.0123079 -0.00697831 0)
(0.0120766 0.0288599 0)
(0.0202807 0.0376461 0)
(0.0216883 0.03607 0)
(0.000400093 0.030223 0)
(-0.0171043 0.0262926 0)
(-0.024928 0.00616204 0)
(-0.0306127 0.00482257 0)
(-0.00244273 0.0152725 0)
(-0.0402548 -0.00313542 0)
(0.00143266 0.00661374 0)
(-0.0409079 0.00789844 0)
(-0.0229563 0.00508844 0)
(-0.0439737 0.00635646 0)
(-0.0395907 0.00345168 0)
(-0.0477278 0.00340173 0)
(-0.0482757 0.000530967 0)
(-0.0442092 -0.00367931 0)
(-0.035675 -0.00485652 0)
(-0.0241145 -0.00683788 0)
(-0.00630585 -0.00591903 0)
(0.00122576 -0.00183819 0)
(-0.00611293 -0.0322399 0)
(-0.0152322 -0.0303498 0)
(-0.0286987 -0.0321011 0)
(-0.0412952 -0.037611 0)
(-0.0477993 -0.0411017 0)
(-0.0534948 -0.0443916 0)
(-0.0518568 -0.0508433 0)
(-0.0488816 -0.0433064 0)
(-0.0447542 -0.0155202 0)
(-0.0195984 0.019762 0)
(-0.0121128 0.0348795 0)
(-0.00649535 0.0409285 0)
(-0.00616569 0.0353464 0)
(-0.0160358 0.0301428 0)
(-0.015593 0.00850176 0)
(-0.033612 0.000459149 0)
(0.0163489 0.0155918 0)
(-0.0382749 -0.00169414 0)
(-5.95307e-05 0.006406 0)
(-0.0404517 0.0100642 0)
(-0.0242091 0.00554533 0)
(-0.0438068 0.0073247 0)
(-0.0399173 0.00382309 0)
(-0.0479066 0.00387139 0)
(-0.0486881 0.000532446 0)
(-0.0445135 -0.0043819 0)
(-0.0358261 -0.00571771 0)
(-0.0241509 -0.00799855 0)
(-0.00609531 -0.00687465 0)
(0.00135631 -0.00201932 0)
(-0.0035838 -0.0228062 0)
(-0.0133781 -0.0175873 0)
(-0.0266585 -0.019455 0)
(-0.0382657 -0.0283415 0)
(-0.0446815 -0.0357527 0)