/*--------------------------------*- C++ -*----------------------------------*\
| =========                 |                                                 |
| \\      /  F ield         | OpenFOAM: The Open Source CFD Toolbox           |
|  \\    /   O peration     | Version:  2.4.0                                 |
|   \\  /    A nd           | Web:      www.OpenFOAM.org                      |
|    \\/     M anipulation  |                                                 |
\*---------------------------------------------------------------------------*/
FoamFile
{
    version     2.0;
    format      ascii;
    class       surfaceScalarField;
    location    "0.021";
    object      phi;
}
// * * * * * * * * * * * * * * * * * * * * * * * * * * * * * * * * * * * * * //

dimensions      [0 3 -1 0 0 0 0];

internalField   nonuniform List<scalar> 
7080
(
-1.4902e-08
1.4902e-08
-2.8943e-08
1.4041e-08
-4.26528e-08
1.37097e-08
-5.63437e-08
1.3691e-08
-7.02987e-08
1.39549e-08
-8.49524e-08
1.46537e-08
-1.00945e-07
1.59924e-08
-1.19161e-07
1.82164e-08
-1.40499e-07
2.13376e-08
-1.65814e-07
2.5315e-08
-1.95679e-07
2.98658e-08
-2.3032e-07
3.46407e-08
-2.69481e-07
3.91607e-08
-3.12319e-07
4.28381e-08
-3.57326e-07
4.50065e-08
-4.02344e-07
4.50188e-08
-4.44662e-07
4.2318e-08
-4.81274e-07
3.66119e-08
-5.09189e-07
2.79147e-08
-5.25776e-07
1.65867e-08
-5.29152e-07
3.37615e-09
-5.17082e-07
-1.20699e-08
-4.89038e-07
-2.80437e-08
-4.45458e-07
-4.35803e-08
-3.87882e-07
-5.75763e-08
-3.18975e-07
-6.89064e-08
-2.42391e-07
-7.65842e-08
-1.62057e-07
-8.0334e-08
-8.17163e-08
-8.03411e-08
-7.69031e-08
-4.81322e-09
-1.57798e-08
3.06818e-08
-3.06852e-08
2.89465e-08
-4.52777e-08
2.83022e-08
-5.98897e-08
2.8303e-08
-7.48004e-08
2.88657e-08
-9.04261e-08
3.02794e-08
-1.07377e-07
3.2943e-08
-1.26527e-07
3.7367e-08
-1.4875e-07
4.35604e-08
-1.74898e-07
5.1463e-08
-2.05538e-07
6.05059e-08
-2.40907e-07
7.00098e-08
-2.808e-07
7.90535e-08
-3.24479e-07
8.65169e-08
-3.70606e-07
9.11337e-08
-4.17272e-07
9.1685e-08
-4.62081e-07
8.71263e-08
-5.02347e-07
7.68781e-08
-5.35355e-07
6.09225e-08
-5.586e-07
3.98318e-08
-5.70058e-07
1.48341e-08
-5.67744e-07
-1.43837e-08
-5.49868e-07
-4.592e-08
-5.15599e-07
-7.78493e-08
-4.64622e-07
-1.08553e-07
-3.97234e-07
-1.36294e-07
-3.14622e-07
-1.59196e-07
-2.1959e-07
-1.75366e-07
-1.15466e-07
-1.84465e-07
-1.88136e-07
-4.23324e-09
-1.57535e-08
4.64353e-08
-3.06279e-08
4.3821e-08
-4.51888e-08
4.2863e-08
-5.97559e-08
4.28701e-08
-7.45799e-08
4.36898e-08
-9.00362e-08
4.57357e-08
-1.0668e-07
4.9587e-08
-1.25382e-07
5.60693e-08
-1.46982e-07
6.51599e-08
-1.7236e-07
7.68412e-08
-2.02123e-07
9.02694e-08
-2.36612e-07
1.04498e-07
-2.75815e-07
1.18257e-07
-3.19313e-07
1.30015e-07
-3.66225e-07
1.38045e-07
-4.15208e-07
1.40668e-07
-4.64538e-07
1.36456e-07
-5.122e-07
1.2454e-07
-5.56041e-07
1.04763e-07
-5.93913e-07
7.77032e-08
-6.23603e-07
4.45247e-08
-6.44791e-07
6.80384e-09
-6.53463e-07
-3.72484e-08
-6.47765e-07
-8.35469e-08
-6.24561e-07
-1.31758e-07
-5.79765e-07
-1.8109e-07
-5.07806e-07
-2.31154e-07
-4.00065e-07
-2.83107e-07
-2.38351e-07
-3.46179e-07
-4.25171e-07
-1.3161e-09
-1.56925e-08
6.21277e-08
-3.04985e-08
5.8627e-08
-4.49888e-08
5.73533e-08
-5.94639e-08
5.73452e-08
-7.41322e-08
5.83581e-08
-8.93099e-08
6.09134e-08
-1.0546e-07
6.57374e-08
-1.23457e-07
7.40658e-08
-1.44076e-07
8.5779e-08
-1.68247e-07
1.01013e-07
-1.9662e-07
1.18642e-07
-2.2967e-07
1.37549e-07
-2.67646e-07
1.56233e-07
-3.10556e-07
1.72925e-07
-3.58126e-07
1.85616e-07
-4.09761e-07
1.92302e-07
-4.64595e-07
1.9129e-07
-5.21532e-07
1.81476e-07
-5.79407e-07
1.62638e-07
-6.37103e-07
1.35399e-07
-6.93622e-07
1.01043e-07
-7.47736e-07
6.09182e-08
-8.01925e-07
1.69403e-08
-8.52233e-07
-3.3239e-08
-8.98023e-07
-8.5968e-08
-9.35162e-07
-1.43951e-07
-9.46731e-07
-2.19585e-07
-8.68152e-07
-3.61687e-07
-5.44328e-07
-6.70002e-07
-9.74505e-07
5.00559e-09
-1.56108e-08
7.77384e-08
-3.03247e-08
7.33409e-08
-4.47215e-08
7.175e-08
-5.90769e-08
7.17005e-08
-7.35446e-08
7.28259e-08
-8.83694e-08
7.57381e-08
-1.03872e-07
8.12403e-08
-1.20949e-07
9.11428e-08
-1.40266e-07
1.05096e-07
-1.6283e-07
1.23578e-07
-1.89304e-07
1.45115e-07
-2.2031e-07
1.68555e-07
-2.56365e-07
1.92288e-07
-2.97943e-07
2.14503e-07
-3.4546e-07
2.33133e-07
-3.99172e-07
2.46013e-07
-4.59194e-07
2.51312e-07
-5.25379e-07
2.47661e-07
-5.97485e-07
2.34744e-07
-6.75453e-07
2.13368e-07
-7.5997e-07
1.8556e-07
-8.53237e-07
1.54186e-07
-9.59076e-07
1.22779e-07
-1.08781e-06
9.54935e-08
-1.24762e-06
7.38448e-08
-1.42865e-06
3.70784e-08
-1.5647e-06
-8.35375e-08
-1.43595e-06
-4.90433e-07
-7.15623e-07
-1.39033e-06
-1.69153e-06
1.40295e-09
-1.55089e-08
9.32473e-08
-3.01072e-08
8.79393e-08
-4.43891e-08
8.60317e-08
-5.86007e-08
8.5912e-08
-7.28292e-08
8.70544e-08
-8.72442e-08
9.01529e-08
-1.01957e-07
9.59534e-08
-1.17927e-07
1.07113e-07
-1.35624e-07
1.22792e-07
-1.56194e-07
1.44148e-07
-1.80249e-07
1.6917e-07
-2.08527e-07
1.96833e-07
-2.41771e-07
2.25532e-07
-2.80878e-07
2.5361e-07
-3.26917e-07
2.79171e-07
-3.80934e-07
3.0003e-07
-4.43903e-07
3.14281e-07
-5.1638e-07
3.20138e-07
-5.98651e-07
3.17015e-07
-6.90748e-07
3.05464e-07
-7.92756e-07
2.87568e-07
-9.05688e-07
2.67117e-07
-1.03226e-06
2.49355e-07
-1.17675e-06
2.39975e-07
-1.33863e-06
2.35725e-07
-1.48685e-06
1.85302e-07
-1.48319e-06
-8.71992e-08
-1.19927e-06
-7.74354e-07
-3.06168e-07
-2.28343e-06
-1.98192e-06
-1.57836e-08
-1.53876e-08
1.08635e-07
-2.98468e-08
1.02399e-07
-4.39937e-08
1.00179e-07
-5.80415e-08
9.99598e-08
-7.19991e-08
1.01012e-07
-8.59645e-08
1.04118e-07
-9.97627e-08
1.09752e-07
-1.14482e-07
1.21832e-07
-1.30239e-07
1.38549e-07
-1.48456e-07
1.62366e-07
-1.69574e-07
1.90288e-07
-1.94401e-07
2.2166e-07
-2.23798e-07
2.54928e-07
-2.58978e-07
2.8879e-07
-3.01631e-07
3.21824e-07
-3.53603e-07
3.52003e-07
-4.17035e-07
3.77713e-07
-4.9313e-07
3.96233e-07
-5.8149e-07
4.05375e-07
-6.79165e-07
4.03138e-07
-7.79741e-07
3.88144e-07
-8.72007e-07
3.59383e-07
-9.37122e-07
3.1447e-07
-9.46148e-07
2.49001e-07
-8.63635e-07
1.53212e-07
-6.80319e-07
1.98552e-09
-4.2802e-07
-3.39498e-07
-1.8605e-07
-1.01632e-06
1.30952e-07
-2.60043e-06
-1.85662e-06
5.6577e-09
-1.52476e-08
1.23882e-07
-2.95438e-08
1.16695e-07
-4.35375e-08
1.14172e-07
-5.74067e-08
1.13829e-07
-7.10689e-08
1.14674e-07
-8.45639e-08
1.17613e-07
-9.73358e-08
1.22524e-07
-1.10727e-07
1.35224e-07
-1.24215e-07
1.52037e-07
-1.39786e-07
1.77936e-07
-1.57468e-07
2.0797e-07
-1.78128e-07
2.4232e-07
-2.02543e-07
2.79343e-07
-2.31961e-07
3.18207e-07
-2.68471e-07
3.58334e-07
-3.14036e-07
3.97568e-07
-3.71816e-07
4.35493e-07
-4.44156e-07
4.68573e-07
-5.33157e-07
4.94377e-07
-6.38359e-07
5.08339e-07
-7.5078e-07
5.00565e-07
-8.48747e-07
4.57351e-07
-8.9547e-07
3.61193e-07
-8.26249e-07
1.7978e-07
-5.36878e-07
-1.36159e-07
7.30675e-09
-5.42199e-07
3.9254e-07
-7.24731e-07
6.33845e-07
-1.25763e-06
1.91698e-07
-2.15829e-06
-1.72596e-06
6.10413e-08
-1.50899e-08
1.38972e-07
-2.91985e-08
1.30803e-07
-4.30228e-08
1.27996e-07
-5.67039e-08
1.2751e-07
-7.00544e-08
1.28025e-07
-8.30836e-08
1.30642e-07
-9.47048e-08
1.34145e-07
-1.06739e-07
1.47258e-07
-1.17664e-07
1.62961e-07
-1.30418e-07
1.90691e-07
-1.4422e-07
2.21771e-07
-1.60095e-07
2.58196e-07
-1.78505e-07
2.97753e-07
-2.00461e-07
3.40163e-07
-2.28839e-07
3.86712e-07
-2.65604e-07
4.34333e-07
-3.16927e-07
4.86816e-07
-3.87178e-07
5.38824e-07
-4.80397e-07
5.87596e-07
-6.03592e-07
6.31534e-07
-7.61941e-07
6.58915e-07
-9.74069e-07
6.69478e-07
-1.21529e-06
6.0241e-07
-1.30141e-06
2.65905e-07
-9.93532e-07
-4.44038e-07
-4.77444e-07
-1.05829e-06
-1.83897e-08
-1.18379e-06
5.49895e-07
-1.82591e-06
-1.30405e-08
-1.59535e-06
-1.78941e-06
5.04033e-08
-1.49157e-08
1.53888e-07
-2.88113e-08
1.44699e-07
-4.24517e-08
1.41637e-07
-5.59417e-08
1.41e-07
-6.8972e-08
1.41055e-07
-8.15746e-08
1.43245e-07
-9.19027e-08
1.44473e-07
-1.02608e-07
1.57963e-07
-1.1066e-07
1.71013e-07
-1.20506e-07
2.00537e-07
-1.30092e-07
2.31357e-07
-1.40646e-07
2.6875e-07
-1.5201e-07
3.09117e-07
-1.64141e-07
3.52294e-07
-1.7979e-07
4.02361e-07
-1.97833e-07
4.52377e-07
-2.25075e-07
5.14058e-07
-2.67478e-07
5.81227e-07
-3.38212e-07
6.58331e-07
-4.79656e-07
7.72978e-07
-7.16839e-07
8.96098e-07
-1.06813e-06
1.02076e-06
-1.40827e-06
9.42555e-07
-1.51383e-06
3.71464e-07
-1.3376e-06
-6.20269e-07
-1.0422e-06
-1.35368e-06
-5.38785e-07
-1.6872e-06
-2.02715e-07
-2.16198e-06
-2.91085e-07
-1.50698e-06
-2.05442e-06
-2.60693e-08
-1.47264e-08
1.68614e-07
-2.83818e-08
1.58354e-07
-4.18257e-08
1.55081e-07
-5.51284e-08
1.54302e-07
-6.78367e-08
1.53764e-07
-8.00947e-08
1.55503e-07
-8.89567e-08
1.53336e-07
-9.84796e-08
1.67486e-07
-1.03225e-07
1.75759e-07
-1.1022e-07
2.07532e-07
-1.15346e-07
2.36484e-07
-1.20297e-07
2.73701e-07
-1.24186e-07
3.13006e-07
-1.25778e-07
3.53886e-07
-1.28864e-07
4.05446e-07
-1.30095e-07
4.53609e-07
-1.3884e-07
5.22803e-07
-1.58241e-07
6.00628e-07
-1.86217e-07
6.86307e-07
-2.37717e-07
8.24477e-07
-2.81675e-07
9.40056e-07
-3.37951e-07
1.07704e-06
-3.68855e-07
9.73459e-07
-3.70302e-07
3.72911e-07
-3.47936e-07
-6.42634e-07
-2.00545e-07
-1.50107e-06
9.81012e-08
-1.98585e-06
-2.68232e-07
-1.79565e-06
1.73652e-08
-1.79258e-06
-1.99531e-06
-4.17467e-08
-1.45238e-08
1.83138e-07
-2.79094e-08
1.7174e-07
-4.11459e-08
1.68317e-07
-5.42723e-08
1.67429e-07
-6.66577e-08
1.66149e-07
-7.87061e-08
1.67551e-07
-8.5875e-08
1.60505e-07
-9.4517e-08
1.76128e-07
-9.54376e-08
1.7668e-07
-9.98844e-08
2.11978e-07
-1.00449e-07
2.37048e-07
-9.98176e-08
2.73069e-07
-9.59937e-08
3.09182e-07
-8.54106e-08
3.43303e-07
-7.11179e-08
3.91153e-07
-4.16407e-08
4.24132e-07
-2.56721e-09
4.8373e-07
6.26584e-08
5.35402e-07
1.57207e-07
5.91759e-07
3.03805e-07
6.77879e-07
5.77215e-07
6.66647e-07
8.89704e-07
7.64552e-07
1.31368e-06
5.49486e-07
1.49223e-06
1.94356e-07
1.3126e-06
-4.63001e-07
1.34217e-06
-1.53064e-06
1.30238e-06
-1.94606e-06
8.53314e-07
-1.34659e-06
6.7195e-07
-1.61121e-06
-1.27539e-06
-4.79744e-08
-1.43097e-08
1.97448e-07
-2.73928e-08
1.84823e-07
-4.04123e-08
1.81337e-07
-5.33811e-08
1.80397e-07
-6.54295e-08
1.78198e-07
-7.74695e-08
1.79591e-07
-8.27578e-08
1.65793e-07
-9.08832e-08
1.84253e-07
-8.75166e-08
1.73313e-07
-8.98454e-08
2.14307e-07
-8.5921e-08
2.33124e-07
-8.02998e-08
2.67448e-07
-6.99148e-08
2.98798e-07
-4.85065e-08
3.21895e-07
-2.31799e-08
3.65827e-07
2.59351e-08
3.75017e-07
8.22165e-08
4.27448e-07
1.75787e-07
4.41832e-07
3.08015e-07
4.59531e-07
4.54821e-07
5.31073e-07
6.99939e-07
4.21529e-07
8.81018e-07
5.83474e-07
1.29504e-06
1.35459e-07
1.43739e-06
5.20116e-08
1.37034e-06
-3.9595e-07
1.17193e-06
-1.33223e-06
7.56931e-07
-1.53106e-06
8.38827e-07
-1.42848e-06
4.93103e-07
-1.26549e-06
-7.17417e-07
-6.48678e-08
-1.40869e-08
2.11535e-07
-2.68297e-08
1.97566e-07
-3.96237e-08
1.94131e-07
-5.2462e-08
1.93236e-07
-6.41251e-08
1.89861e-07
-7.6431e-08
1.91897e-07
-7.98471e-08
1.69209e-07
-8.77061e-08
1.92112e-07
-7.98375e-08
1.65444e-07
-8.03797e-08
2.14849e-07
-7.20654e-08
2.2481e-07
-6.24371e-08
2.5782e-07
-4.71242e-08
2.83485e-07
-1.95786e-08
2.94349e-07
1.53558e-08
3.30893e-07
7.22909e-08
3.18082e-07
1.33614e-07
3.66125e-07
2.32381e-07
3.43065e-07
3.04258e-07
3.87655e-07
4.37617e-07
3.97715e-07
4.73862e-07
3.85284e-07
6.19691e-07
4.37645e-07
6.909e-07
6.42505e-08
5.79304e-07
1.63609e-07
6.07194e-07
-4.23841e-07
1.27486e-07
-8.52524e-07
-3.53913e-07
-1.04966e-06
-3.4804e-07
-1.43435e-06
-3.21133e-07
-1.2924e-06
-1.01584e-06
-2.27144e-08
-1.38585e-08
2.25393e-07
-2.62168e-08
2.09924e-07
-3.87769e-08
2.06691e-07
-5.15216e-08
2.0598e-07
-6.27987e-08
2.01138e-07
-7.5611e-08
2.04709e-07
-7.74148e-08
1.71013e-07
-8.50745e-08
1.99772e-07
-7.26219e-08
1.52992e-07
-7.16447e-08
2.13872e-07
-5.91761e-08
2.12341e-07
-4.67546e-08
2.45398e-07
-2.85675e-08
2.65297e-07
6.96771e-10
2.65085e-07
4.18875e-08
2.89702e-07
1.13173e-07
2.46796e-07
1.85829e-07
2.9347e-07
3.09675e-07
2.19218e-07
4.34584e-07
2.62746e-07
5.69121e-07
2.63178e-07
8.22148e-07
1.32258e-07
1.06518e-06
1.9461e-07
8.36015e-07
2.93418e-07
1.24451e-06
-2.44891e-07
1.28769e-06
-4.67013e-07
1.25073e-06
-8.15568e-07
1.12493e-06
-9.23865e-07
5.66418e-07
-8.75838e-07
3.19892e-08
-7.57967e-07
-9.50572e-07
-3.32744e-08
-1.36282e-08
2.39021e-07
-2.55493e-08
2.21845e-07
-3.78661e-08
2.19008e-07
-5.05604e-08
2.18674e-07
-6.15658e-08
2.12143e-07
-7.50133e-08
2.18156e-07
-7.56231e-08
1.71623e-07
-8.30829e-08
2.07231e-07
-6.59312e-08
1.3584e-07
-6.36726e-08
2.11613e-07
-4.80644e-08
1.96733e-07
-3.32151e-08
2.30549e-07
-1.06021e-08
2.42685e-07
1.71555e-08
2.37327e-07
6.05451e-08
2.46312e-07
1.21429e-07
1.85913e-07
1.96399e-07
2.18499e-07
3.27243e-07
8.8375e-08
3.80779e-07
2.0921e-07
6.09652e-07
3.43051e-08
9.99132e-07
-2.57222e-07
9.91552e-07
2.0219e-07
7.01094e-07
5.83876e-07
1.17427e-06
-7.18066e-07
1.55096e-06
-8.43701e-07
1.98173e-06
-1.24634e-06
1.77377e-06
-7.15911e-07
1.34577e-06
-4.47835e-07
7.43954e-07
-1.56153e-07
-9.90377e-08
-1.0758e-07
-1.34008e-08
2.52422e-07
-2.4821e-08
2.33266e-07
-3.68806e-08
2.31067e-07
-4.95645e-08
2.31358e-07
-6.05236e-08
2.23102e-07
-7.46434e-08
2.32276e-07
-7.45959e-08
1.71575e-07
-8.18521e-08
2.14488e-07
-5.9774e-08
1.13762e-07
-5.66633e-08
2.08503e-07
-4.01806e-08
1.8025e-07
-2.87532e-08
2.19121e-07
-1.43381e-08
2.28269e-07
5.55897e-09
2.1743e-07
4.54021e-08
2.06469e-07
1.15391e-07
1.15924e-07
1.78954e-07
1.54937e-07
3.34704e-07
-6.73754e-08
3.47704e-07
1.96211e-07
5.73155e-07
-1.91146e-07
8.87475e-07
-5.71542e-07
6.76838e-07
4.12826e-07
5.32283e-07
7.28431e-07
6.47532e-07
-8.33314e-07
1.21855e-06
-1.41472e-06
7.30294e-07
-7.58081e-07
9.22066e-08
-7.78239e-08
2.39943e-07
-5.95571e-07
4.54731e-07
-3.70941e-07
4.15766e-07
-6.00726e-08
-1.3182e-08
2.65604e-07
-2.40253e-08
2.44109e-07
-3.58097e-08
2.42851e-07
-4.85036e-08
2.44052e-07
-5.9695e-08
2.34294e-07
-7.45126e-08
2.47093e-07
-7.44877e-08
1.71551e-07
-8.15087e-08
2.21509e-07
-5.3974e-08
8.62274e-08
-4.83739e-08
2.02903e-07
-2.50074e-08
1.56884e-07
-5.70923e-09
1.99823e-07
1.95518e-08
2.03009e-07
3.30616e-08
2.03921e-07
6.53866e-08
1.74144e-07
8.56969e-08
9.56134e-08
1.67734e-07
7.28999e-08
1.92751e-07
-9.23923e-08
4.18831e-07
-2.98699e-08
4.98092e-07
-2.70407e-07
5.89314e-07
-6.62763e-07
7.15929e-07
2.86211e-07
1.00732e-06
4.37038e-07
1.11111e-06
-9.37105e-07
1.2027e-06
-1.50631e-06
8.25838e-07
-3.81218e-07
6.1737e-07
1.30644e-07
1.25548e-08
9.24365e-09
-5.72087e-08
-3.01177e-07
4.02393e-07
-4.38355e-08
-1.29786e-08
2.78583e-07
-2.31542e-08
2.54284e-07
-3.46546e-08
2.54352e-07
-4.73365e-08
2.56734e-07
-5.90605e-08
2.46018e-07
-7.46343e-08
2.62667e-07
-7.55003e-08
1.72417e-07
-8.23032e-08
2.28312e-07
-4.92e-08
5.31243e-08
-4.80649e-08
2.01768e-07
-3.6723e-08
1.45542e-07
-2.83921e-08
1.91492e-07
-2.87556e-08
2.03372e-07
-3.40004e-08
2.09165e-07
-5.98379e-09
1.46127e-07
2.47562e-08
6.48733e-08
9.72821e-08
3.73943e-10
1.0935e-07
-1.0446e-07
2.83376e-07
-2.03896e-07
3.17442e-07
-3.04473e-07
2.36306e-07
-5.81628e-07
5.80193e-07
-5.76756e-08
1.14376e-06
-1.26529e-07
9.93419e-07
-7.86765e-07
2.85317e-07
-7.98207e-07
8.6461e-08
-1.82362e-07
5.68577e-08
1.60248e-07
-4.00654e-07
4.66756e-07
-5.45539e-07
-1.56292e-07
-1.74976e-07
3.18297e-08
-1.27987e-08
2.91381e-07
-2.21973e-08
2.63683e-07
-3.34346e-08
2.65589e-07
-4.60192e-08
2.69318e-07
-5.85873e-08
2.58586e-07
-7.50171e-08
2.79097e-07
-7.78486e-08
1.75248e-07
-8.38611e-08
2.34324e-07
-4.2264e-08
1.15273e-08
-2.85438e-08
1.88047e-07
6.66672e-09
1.10331e-07
3.49672e-08
1.63192e-07
5.20649e-08
1.86274e-07
4.24445e-08
2.18786e-07
3.3923e-08
1.54649e-07
-5.71497e-09
1.04511e-07
-1.35077e-08
8.16686e-09
-6.58669e-08
-5.21011e-08
-5.14268e-08
-2.18336e-07
-1.55901e-07
-1.99999e-07
-2.10599e-07
-5.2693e-07
3.53316e-08
-3.03606e-07
1.58409e-07
-2.49607e-07
-4.46881e-07
-1.81475e-07
-8.23229e-07
-4.21858e-07
-9.73066e-07
-3.2525e-08
-7.55306e-07
-5.75118e-08
5.4312e-08
-3.42862e-07
3.92222e-08
-1.41203e-07
1.8307e-08
-1.54061e-07
-1.26508e-08
3.04032e-07
-2.11416e-08
2.72174e-07
-3.21522e-08
2.766e-07
-4.45088e-08
2.81675e-07
-5.82252e-08
2.72303e-07
-7.56784e-08
2.9655e-07
-8.19598e-08
1.8153e-07
-8.88765e-08
2.41241e-07
-4.21926e-08
-3.51567e-08
-4.66469e-08
1.92502e-07
-4.50766e-08
1.08761e-07
-4.09075e-08
1.59023e-07
-5.87679e-08
2.04134e-07
-1.02163e-07
2.62181e-07
-1.0562e-07
1.58105e-07
-6.81415e-08
6.70335e-08
-7.69504e-08
1.6976e-08
-5.6327e-08
-7.27245e-08
-7.2764e-08
-2.01899e-07
-9.94207e-08
-1.73342e-07
-2.43112e-07
-3.83239e-07
-1.23401e-07
-4.23317e-07
1.33197e-09
-3.7434e-07
4.55331e-09
-1.84696e-07
-1.05645e-07
-3.1166e-07
5.94127e-08
-1.97582e-07
3.73774e-07
-3.71873e-07
6.12756e-07
-5.81844e-07
4.8274e-07
-1.11871e-08
7.58012e-07
-2.56964e-07
-1.2544e-08
3.16576e-07
-1.99726e-08
2.79602e-07
-3.07939e-08
2.87421e-07
-4.2761e-08
2.93642e-07
-5.78915e-08
2.87433e-07
-7.65709e-08
3.15229e-07
-8.80956e-08
1.93055e-07
-8.93626e-08
2.42508e-07
-2.70378e-08
-9.74815e-08
-3.44497e-09
1.68909e-07
5.27038e-08
5.26118e-08
1.09695e-07
1.02032e-07
1.07345e-07
2.06484e-07
8.31369e-08
2.8639e-07
1.35114e-08
2.27731e-07
-7.13521e-08
1.51897e-07
-1.64548e-07
1.10172e-07
-2.13307e-07
-2.39654e-08
-3.69478e-07
-4.57292e-08
-4.60528e-07
-8.22918e-08
-4.29791e-07
-4.13977e-07
-1.39863e-07
-7.13245e-07
1.58714e-07
-6.72918e-07
6.57032e-07
-6.83013e-07
6.51147e-07
-3.05775e-07
6.36796e-07
-1.83231e-07
4.11721e-07
-1.46798e-07
-1.8426e-07
1.4137e-08
-1.15243e-07
-8.02037e-08
7.45751e-07
-1.02982e-07
-1.24878e-08
3.29064e-07
-1.86811e-08
2.85796e-07
-2.93414e-08
2.98082e-07
-4.07284e-08
3.05029e-07
-5.74641e-08
3.04169e-07
-7.78432e-08
3.35608e-07
-9.66835e-08
2.11895e-07
-1.06097e-07
2.51921e-07
-4.1424e-08
-1.62155e-07
-5.13344e-08
1.78819e-07
-5.65266e-08
5.78041e-08
-5.83656e-08
1.03871e-07
-8.03047e-08
2.28423e-07
-2.07077e-07
4.13163e-07
-2.14945e-07
2.35599e-07
-1.36782e-07
7.37341e-08
-3.1452e-07
2.8791e-07
-2.80186e-07
-5.83e-08
-4.34047e-07
1.08131e-07
-4.46193e-07
-7.01453e-08
-3.77663e-07
-4.82507e-07
-2.22692e-07
-8.68216e-07
-1.06733e-08
-8.84936e-07
-1.20041e-07
-5.73646e-07
-2.36652e-07
-1.89164e-07
-1.98813e-07
-2.2107e-07
-7.60588e-08
-2.69553e-07
1.53205e-08
-7.72422e-08
-7.26416e-07
6.61533e-07
6.97057e-07
-6.77722e-07
-1.249e-08
3.41554e-07
-1.72672e-08
2.90573e-07
-2.77731e-08
3.08588e-07
-3.83515e-08
3.15607e-07
-5.67475e-08
3.22565e-07
-7.89758e-08
3.57836e-07
-1.09783e-07
2.42702e-07
-9.7495e-08
2.39634e-07
-5.57678e-09
-2.54073e-07
1.69063e-08
1.56336e-07
9.94043e-08
-2.46938e-08
2.4798e-07
-4.4704e-08
2.04849e-07
2.71554e-07
1.8002e-07
4.37992e-07
4.80971e-08
3.67521e-07
-1.22702e-07
2.44533e-07
-2.10499e-07
3.75706e-07
-3.78351e-07
1.09552e-07
-8.22084e-07
5.51864e-07
-1.15628e-06
2.64051e-07
-9.58189e-07
-6.80598e-07
-1.27129e-06
-5.5512e-07
-2.00728e-06
-1.48946e-07
-1.73068e-06
-8.50245e-07
-1.63492e-06
-2.84924e-07
1.0143e-07
-1.95742e-06
6.76594e-07
-8.44717e-07
1.61853e-06
-1.01918e-06
3.80848e-07
1.89922e-06
3.49518e-08
1.04295e-06
-1.25715e-08
3.54125e-07
-1.57763e-08
2.93778e-07
-2.61005e-08
3.18912e-07
-3.55984e-08
3.25105e-07
-5.55196e-08
3.42486e-07
-8.15337e-08
3.8385e-07
-1.25682e-07
2.86851e-07
-1.35096e-07
2.49048e-07
-4.97473e-08
-3.39422e-07
-4.98886e-08
1.56477e-07
-7.45684e-08
-1.41151e-11
-5.9407e-08
-5.98652e-08
-8.20293e-08
2.94176e-07
-3.49168e-07
7.0513e-07
-1.84392e-07
2.02745e-07
-8.88146e-08
1.48956e-07
-4.85539e-07
7.72431e-07
1.50184e-07
-5.26171e-07
-6.97434e-08
7.71791e-07
6.99598e-08
1.24347e-07
2.67856e-07
-8.78494e-07
-1.53721e-06
1.24994e-06
-3.1497e-06
1.46354e-06
-4.73653e-07
-3.52629e-06
-7.22143e-08
-6.86364e-07
-1.24733e-06
-7.82298e-07
-9.01324e-07
-1.19073e-06
-1.57008e-07
-1.7635e-06
1.57264e-07
1.58494e-06
-8.46123e-07
1.03834e-06
-1.26885e-08
3.66814e-07
-1.40838e-08
2.95173e-07
-2.42227e-08
3.29051e-07
-3.22532e-08
3.33135e-07
-5.32435e-08
3.63477e-07
-8.12339e-08
4.11841e-07
-1.51274e-07
3.56892e-07
-1.07723e-07
2.05496e-07
2.78526e-08
-4.74997e-07
-1.03432e-08
1.94673e-07
1.42619e-07
-1.52976e-07
5.02212e-07
-4.19458e-07
3.11988e-07
4.844e-07
2.79002e-07
7.38116e-07
7.63046e-08
4.05442e-07
7.86214e-08
1.46639e-07
-7.51483e-08
9.26201e-07
-1.14154e-06
5.40226e-07
-6.50011e-07
2.80257e-07
1.33769e-06
-1.86335e-06
3.33917e-06
-2.87997e-06
6.0082e-06
-1.41909e-06
8.46866e-06
-9.96927e-07
5.37002e-06
-4.27648e-07
5.04027e-06
-3.56611e-07
3.23033e-06
1.02764e-06
2.1464e-06
-1.06791e-07
8.90181e-07
-5.07284e-07
1.38334e-06
1.09179e-06
-3.05399e-07
8.42616e-07
-1.30303e-08
3.79844e-07
-1.27807e-08
2.94923e-07
-2.2769e-08
3.3904e-07
-2.8692e-08
3.39058e-07
-4.98193e-08
3.84604e-07
-8.76968e-08
4.49718e-07
-1.83569e-07
4.52764e-07
-1.69576e-07
1.91503e-07
-4.98869e-08
-5.94687e-07
-2.20917e-08
1.66878e-07
-6.98891e-08
-1.05179e-07
9.06876e-09
-4.98416e-07
2.44347e-08
4.69035e-07
-3.65084e-07
1.12763e-06
3.30173e-07
-2.89814e-07
-3.71231e-08
5.13936e-07
-1.23542e-06
2.1245e-06
-7.67086e-07
7.18949e-08
-9.41582e-10
-4.85888e-07
-3.0443e-06
1.18e-06
-1.43589e-06
-4.48839e-06
-4.76941e-07
-2.37804e-06
-5.28719e-07
-9.45142e-07
-4.04786e-06
3.09149e-06
-3.85667e-06
-5.47805e-07
-6.4283e-07
-2.18619e-06
-1.20391e-06
4.54293e-07
-1.53022e-06
-1.8098e-07
-7.35774e-07
2.97343e-07
-8.76806e-07
-1.64367e-07
-1.32273e-08
3.93072e-07
-9.97208e-09
2.91668e-07
-1.99153e-08
3.48983e-07
-2.3636e-08
3.42779e-07
-4.3316e-08
4.04285e-07
-8.09944e-08
4.87397e-07
-2.25156e-07
5.96925e-07
-1.20122e-07
8.64687e-08
7.51506e-08
-7.89959e-07
-1.33027e-07
3.75055e-07
1.49779e-07
-3.87984e-07
9.41207e-07
-1.28984e-06
1.8133e-07
1.22891e-06
1.99782e-07
1.10918e-06
1.15311e-06
-1.24314e-06
1.46669e-06
2.00361e-07
1.5077e-06
2.08348e-06
1.38074e-06
1.9885e-07
-2.42273e-07
1.13713e-06
-1.1192e-06
2.05693e-06
-3.54153e-06
-2.06605e-06
-6.36637e-06
4.46809e-07
-7.53231e-06
2.20801e-07
-8.02535e-06
3.58454e-06
-7.19996e-06
-1.37319e-06
-4.40864e-06
-4.97752e-06
-2.79647e-06
-1.15788e-06
-2.24453e-06
-7.32917e-07
-7.98505e-07
-1.14868e-06
-2.17084e-06
4.95529e-07
-1.82577e-08
4.11329e-07
-1.11196e-08
2.8453e-07
-1.97081e-08
3.57571e-07
-1.93993e-08
3.4247e-07
-3.52381e-08
4.20123e-07
-9.77951e-08
5.49954e-07
-2.80061e-07
7.79191e-07
-1.91135e-07
-2.45759e-09
5.87956e-08
-1.03989e-06
4.1315e-07
2.07014e-08
-3.15055e-08
5.66707e-08
2.56804e-07
-1.57815e-06
2.48332e-07
1.23738e-06
8.04358e-07
5.53157e-07
1.69275e-07
-6.0806e-07
-6.82427e-07
1.05206e-06
1.303e-06
9.80531e-08
-1.12962e-06
2.63147e-06
-1.21002e-06
1.21752e-06
6.02545e-07
2.44363e-07
3.46096e-07
-1.8096e-06
1.10604e-06
-3.13135e-07
1.18328e-06
1.43566e-07
1.02226e-06
3.74554e-06
-4.46544e-07
9.56137e-08
-2.09687e-06
-3.32719e-06
-1.07932e-06
-2.17543e-06
-1.8075e-06
-4.73153e-09
-1.96126e-06
-9.94927e-07
-1.72027e-06
-2.41183e-06
1.03989e-07
3.0734e-07
-2.09777e-08
4.09497e-07
-1.02792e-08
3.46873e-07
-7.66563e-09
3.39856e-07
-1.59012e-08
4.28359e-07
-6.4863e-08
5.98915e-07
-3.74221e-07
1.08855e-06
1.06169e-07
-4.82847e-07
-2.18276e-06
1.24904e-06
-1.51155e-07
-2.0109e-06
3.15779e-09
-9.76425e-08
-3.48521e-06
1.91022e-06
-7.4825e-07
-1.49958e-06
2.70791e-06
-2.90301e-06
1.06332e-06
1.03653e-06
8.9937e-07
1.21602e-06
1.38332e-06
-3.85899e-07
2.53385e-06
1.48095e-06
4.98479e-06
-1.23343e-06
5.12342e-06
1.05739e-07
5.7805e-06
-2.46668e-06
5.03136e-06
4.36005e-07
3.69202e-06
1.4829e-06
6.12031e-06
1.31726e-06
6.0564e-06
1.59525e-07
3.23333e-06
-5.04129e-07
1.24662e-06
-1.88718e-07
1.11423e-06
1.27658e-07
3.71913e-07
-2.52609e-07
-7.33826e-07
-6.14533e-07
7.19736e-08
-7.67868e-08
1.52093e-07
-8.01192e-08
2.32135e-07
-8.00422e-08
3.08376e-07
-7.62412e-08
3.76907e-07
-6.85303e-08
4.3409e-07
-5.71836e-08
4.77279e-07
-4.3189e-08
5.04958e-07
-2.76791e-08
5.16725e-07
-1.17673e-08
5.13195e-07
3.5305e-09
4.96604e-07
1.65908e-08
4.68924e-07
2.76797e-08
4.32839e-07
3.60845e-08
3.91377e-07
4.14623e-08
3.47554e-07
4.3823e-08
3.04063e-07
4.34908e-08
2.63009e-07
4.10539e-08
2.25821e-07
3.71876e-08
1.93237e-07
3.25836e-08
1.65385e-07
2.78522e-08
1.41896e-07
2.34889e-08
1.22043e-07
1.98534e-08
1.04846e-07
1.71975e-08
8.93272e-08
1.55183e-08
7.46178e-08
1.47096e-08
6.016e-08
1.44577e-08
4.56767e-08
1.44833e-08
3.10242e-08
1.46527e-08
1.59663e-08
1.50577e-08
1.59664e-08
1.06283e-07
-1.87303e-07
2.09786e-07
-1.83622e-07
3.04274e-07
-1.7453e-07
3.86386e-07
-1.58353e-07
4.53307e-07
-1.35452e-07
5.03831e-07
-1.07708e-07
5.37658e-07
-7.70154e-08
5.55122e-07
-4.51436e-08
5.57102e-07
-1.37477e-08
5.45431e-07
1.52017e-08
5.22186e-07
3.98353e-08
4.89439e-07
6.04265e-08
4.49749e-07
7.57745e-08
4.05864e-07
8.53469e-08
3.60473e-07
8.92139e-08
3.15945e-07
8.80182e-08
2.74135e-07
8.28638e-08
2.36297e-07
7.5026e-08
2.03061e-07
6.58197e-08
1.74501e-07
5.64117e-08
1.50235e-07
4.77555e-08
1.29535e-07
4.05533e-08
1.11424e-07
3.53081e-08
9.49486e-08
3.19937e-08
7.92528e-08
3.04057e-08
6.38171e-08
2.98933e-08
4.83867e-08
2.99136e-08
3.28238e-08
3.02158e-08
1.68728e-08
3.1008e-08
3.28394e-08
2.31464e-07
-4.20084e-07
3.90676e-07
-3.42834e-07
4.97292e-07
-2.81146e-07
5.6864e-07
-2.29702e-07
6.12967e-07
-1.79779e-07
6.35704e-07
-1.30445e-07
6.40905e-07
-8.22166e-08
6.31748e-07
-3.59863e-08
6.10105e-07
7.89472e-09
5.80181e-07
4.51257e-08
5.42314e-07
7.77028e-08
4.98786e-07
1.03954e-07
4.51789e-07
1.22772e-07
4.03492e-07
1.33644e-07
3.55897e-07
1.36809e-07
3.10687e-07
1.33228e-07
2.69143e-07
1.24407e-07
2.32061e-07
1.12108e-07
1.99754e-07
9.81265e-08
1.72102e-07
8.4064e-08
1.4862e-07
7.12373e-08
1.28539e-07
6.06346e-08
1.10859e-07
5.29884e-08
9.46551e-08
4.81973e-08
7.90877e-08
4.59733e-08
6.37087e-08
4.52724e-08
4.83057e-08
4.53165e-08
3.27667e-08
4.5755e-08
1.68444e-08
4.69298e-08
4.9684e-08
5.43584e-07
-9.58663e-07
8.58695e-07
-6.57944e-07
9.34471e-07
-3.56923e-07
9.22769e-07
-2.18e-07
8.85725e-07
-1.42735e-07
8.39649e-07
-8.43693e-08
7.88722e-07
-3.12902e-08
7.33926e-07
1.88102e-08
6.79365e-07
6.24551e-08
6.2249e-07
1.02001e-07
5.64792e-07
1.35401e-07
5.07326e-07
1.6142e-07
4.51215e-07
1.78883e-07
3.97598e-07
1.87261e-07
3.47528e-07
1.86879e-07
3.01816e-07
1.78941e-07
2.60989e-07
1.65234e-07
2.2523e-07
1.47867e-07
1.9443e-07
1.28927e-07
1.6821e-07
1.10284e-07
1.45955e-07
9.34926e-08
1.26843e-07
7.97464e-08
1.0984e-07
6.99918e-08
9.40706e-08
6.39666e-08
7.8721e-08
6.1323e-08
6.34531e-08
6.05405e-08
4.81159e-08
6.06535e-08
3.26365e-08
6.12348e-08
1.67796e-08
6.27861e-08
6.64638e-08
7.14855e-07
-1.67211e-06
1.42997e-06
-1.37306e-06
1.55435e-06
-4.81304e-07
1.41691e-06
-8.05588e-08
1.23541e-06
3.87659e-08
1.07517e-06
7.58729e-08
9.45515e-07
9.83615e-08
8.38441e-07
1.25884e-07
7.44239e-07
1.56657e-07
6.59324e-07
1.86916e-07
5.81512e-07
2.13212e-07
5.10049e-07
2.32883e-07
4.44959e-07
2.43973e-07
3.86424e-07
2.45795e-07
3.34525e-07
2.38777e-07
2.89074e-07
2.24392e-07
2.49748e-07
2.0456e-07
2.16035e-07
1.81581e-07
1.87367e-07
1.57594e-07
1.63098e-07
1.34553e-07
1.42475e-07
1.14115e-07
1.24649e-07
9.7573e-08
1.08527e-07
8.61138e-08
9.3314e-08
7.91796e-08
7.82393e-08
7.63977e-08
6.31131e-08
7.56669e-08
4.78613e-08
7.59051e-08
3.24611e-08
7.66353e-08
1.66925e-08
7.85543e-08
8.31566e-08
2.87166e-07
-1.97506e-06
1.20163e-06
-2.28752e-06
1.49096e-06
-7.70637e-07
1.48995e-06
-7.95476e-08
1.33556e-06
1.93156e-07
1.1677e-06
2.43731e-07
1.01887e-06
2.47189e-07
8.89546e-07
2.5521e-07
7.75062e-07
2.71141e-07
6.7255e-07
2.89428e-07
5.80797e-07
3.04965e-07
4.99548e-07
3.14132e-07
4.28587e-07
3.14934e-07
3.67487e-07
3.06895e-07
3.15605e-07
2.90659e-07
2.7189e-07
2.68106e-07
2.35241e-07
2.41208e-07
2.04482e-07
2.1234e-07
1.78648e-07
1.83428e-07
1.56855e-07
1.56346e-07
1.38262e-07
1.32709e-07
1.22029e-07
1.13806e-07
1.06964e-07
1.01179e-07
9.24103e-08
9.37336e-08
7.76534e-08
9.11546e-08
6.26936e-08
9.06269e-08
4.75431e-08
9.10553e-08
3.22409e-08
9.19379e-08
1.65835e-08
9.42115e-08
9.97403e-08
-1.17366e-07
-1.85204e-06
2.18071e-07
-2.62296e-06
4.70125e-07
-1.02269e-06
7.08348e-07
-3.17771e-07
8.77165e-07
2.4339e-08
9.42171e-07
1.78725e-07
9.22624e-07
2.66735e-07
8.52238e-07
3.25596e-07
7.58052e-07
3.65327e-07
6.5751e-07
3.89969e-07
5.60974e-07
4.01501e-07
4.74398e-07
4.00708e-07
4.00453e-07
3.88879e-07
3.39391e-07
3.67957e-07
2.89948e-07
3.40102e-07
2.49911e-07
3.08144e-07
2.1743e-07
2.7369e-07
1.90669e-07
2.39101e-07
1.68407e-07
2.0569e-07
1.4961e-07
1.75143e-07
1.33416e-07
1.48903e-07
1.19081e-07
1.28141e-07
1.0519e-07
1.1507e-07
9.13862e-08
1.07537e-07
7.69753e-08
1.05565e-07
6.21991e-08
1.05403e-07
4.71624e-08
1.06092e-07
3.1976e-08
1.07125e-07
1.64528e-08
1.09734e-07
1.16193e-07
-8.89894e-08
-1.70201e-06
-5.46003e-07
-2.16594e-06
-3.26777e-07
-1.24192e-06
2.96565e-08
-6.74204e-07
5.39335e-07
-4.8534e-07
8.04086e-07
-8.60251e-08
8.66819e-07
2.04002e-07
8.18844e-07
3.7357e-07
7.21795e-07
4.62377e-07
6.11603e-07
5.0016e-07
5.09277e-07
5.03828e-07
4.23309e-07
4.86676e-07
3.53957e-07
4.58231e-07
2.99109e-07
4.22805e-07
2.56504e-07
3.82707e-07
2.22893e-07
3.41754e-07
1.96455e-07
3.00129e-07
1.74804e-07
2.60752e-07
1.56854e-07
2.23641e-07
1.41538e-07
1.90459e-07
1.28063e-07
1.62378e-07
1.1588e-07
1.40324e-07
1.03247e-07
1.27703e-07
9.02737e-08
1.20511e-07
7.62188e-08
1.1962e-07
6.16348e-08
1.19988e-07
4.67199e-08
1.21007e-07
3.16661e-08
1.22179e-07
1.63009e-08
1.251e-07
1.32494e-07
1.04874e-07
-1.75648e-06
-4.82268e-07
-1.5788e-06
3.56876e-08
-1.75987e-06
4.49938e-07
-1.08845e-06
9.54662e-07
-9.90064e-07
1.24613e-06
-3.77497e-07
1.15306e-06
2.97079e-07
9.21393e-07
6.05235e-07
7.20872e-07
6.62898e-07
5.70527e-07
6.50505e-07
4.52924e-07
6.21432e-07
3.64238e-07
5.75361e-07
2.9789e-07
5.2458e-07
2.50072e-07
4.70622e-07
2.16733e-07
4.16047e-07
1.91487e-07
3.67e-07
1.72856e-07
3.18759e-07
1.57281e-07
2.76327e-07
1.44307e-07
2.36615e-07
1.32873e-07
2.01893e-07
1.22336e-07
1.72916e-07
1.12495e-07
1.50165e-07
1.01186e-07
1.39012e-07
8.91127e-08
1.32584e-07
7.5399e-08
1.33334e-07
6.10062e-08
1.34381e-07
4.6216e-08
1.35797e-07
3.13109e-08
1.37084e-07
1.61281e-08
1.40282e-07
1.48622e-07
2.27721e-07
-2.01027e-06
1.34956e-07
-1.48604e-06
5.0766e-07
-2.13258e-06
1.00207e-06
-1.58286e-06
1.29787e-06
-1.28587e-06
1.46526e-06
-5.44885e-07
1.34634e-06
4.15999e-07
1.00712e-06
9.44457e-07
6.66994e-07
1.00302e-06
4.41547e-07
8.75953e-07
3.08756e-07
7.54222e-07
2.4373e-07
6.40388e-07
2.05701e-07
5.62609e-07
1.82101e-07
4.94222e-07
1.67769e-07
4.30379e-07
1.55368e-07
3.79401e-07
1.46995e-07
3.27132e-07
1.38425e-07
2.84896e-07