/*--------------------------------*- C++ -*----------------------------------*\
| =========                 |                                                 |
| \\      /  F ield         | OpenFOAM: The Open Source CFD Toolbox           |
|  \\    /   O peration     | Version:  2.4.0                                 |
|   \\  /    A nd           | Web:      www.OpenFOAM.org                      |
|    \\/     M anipulation  |                                                 |
\*---------------------------------------------------------------------------*/
FoamFile
{
    version     2.0;
    format      ascii;
    class       surfaceScalarField;
    location    "0.021";
    object      phiAlpha;
}
// * * * * * * * * * * * * * * * * * * * * * * * * * * * * * * * * * * * * * //

dimensions      [0 3 -1 0 0 0 0];

internalField   nonuniform List<scalar> 
7080
(
-1.49543e-08
1.49543e-08
-2.90516e-08
1.4097e-08
-4.28196e-08
1.37683e-08
-5.65738e-08
1.37542e-08
-7.05997e-08
1.40257e-08
-8.53292e-08
1.47299e-08
-1.01399e-07
1.60701e-08
-1.19686e-07
1.82868e-08
-1.41079e-07
2.13926e-08
-1.66423e-07
2.53442e-08
-1.96282e-07
2.98593e-08
-2.30869e-07
3.4587e-08
-2.69915e-07
3.90464e-08
-3.12565e-07
4.26493e-08
-3.57293e-07
4.47287e-08
-4.01934e-07
4.46406e-08
-4.43769e-07
4.18353e-08
-4.79802e-07
3.60323e-08
-5.07064e-07
2.72617e-08
-5.22967e-07
1.59027e-08
-5.25693e-07
2.72612e-09
-5.13023e-07
-1.26704e-08
-4.84548e-07
-2.8475e-08
-4.40777e-07
-4.37712e-08
-3.83313e-07
-5.74632e-08
-3.1486e-07
-6.84531e-08
-2.39055e-07
-7.58054e-08
-1.59752e-07
-7.93022e-08
-8.06203e-08
-7.91319e-08
-7.56142e-08
-5.00602e-09
-1.58293e-08
3.07839e-08
-3.07885e-08
2.90558e-08
-4.54367e-08
2.84168e-08
-6.01094e-08
2.84271e-08
-7.50885e-08
2.90045e-08
-9.07876e-08
3.04295e-08
-1.07814e-07
3.30963e-08
-1.27032e-07
3.75058e-08
-1.49309e-07
4.36685e-08
-1.75484e-07
5.15202e-08
-2.06117e-07
6.04924e-08
-2.41434e-07
6.99034e-08
-2.81216e-07
7.88292e-08
-3.24715e-07
8.61472e-08
-3.70577e-07
9.05909e-08
-4.16882e-07
9.09452e-08
-4.61224e-07
8.61769e-08
-5.00917e-07
7.57253e-08
-5.33253e-07
5.95981e-08
-5.55751e-07
3.84e-08
-5.66431e-07
1.34064e-08
-5.63329e-07
-1.57727e-08
-5.44721e-07
-4.70825e-08
-5.09879e-07
-7.86132e-08
-4.58593e-07
-1.08749e-07
-3.91279e-07
-1.35767e-07
-3.09258e-07
-1.57827e-07
-2.15431e-07
-1.73129e-07
-1.13138e-07
-1.81425e-07
-1.84292e-07
-4.45997e-09
-1.58024e-08
4.65866e-08
-3.07305e-08
4.39836e-08
-4.53466e-08
4.30331e-08
-5.99738e-08
4.30546e-08
-7.48659e-08
4.38963e-08
-9.03956e-08
4.59598e-08
-1.07117e-07
4.98173e-08
-1.25889e-07
5.62789e-08
-1.47546e-07
6.53252e-08
-1.72958e-07
7.69325e-08
-2.02725e-07
9.02585e-08
-2.37175e-07
1.04354e-07
-2.7629e-07
1.17944e-07
-3.19639e-07
1.29496e-07
-3.66327e-07
1.37279e-07
-4.14999e-07
1.39617e-07
-4.63916e-07
1.35093e-07
-5.11045e-07
1.22855e-07
-5.54217e-07
1.0277e-07
-5.91264e-07
7.5447e-08
-6.19951e-07
4.2093e-08
-6.40043e-07
4.31879e-09
-6.47379e-07
-3.97459e-08
-6.40213e-07
-8.57795e-08
-6.1552e-07
-1.33443e-07
-5.69403e-07
-1.81884e-07
-4.96629e-07
-2.30601e-07
-3.89365e-07
-2.80393e-07
-2.31384e-07
-3.39405e-07
-4.14024e-07
-1.65325e-09
-1.57406e-08
6.23274e-08
-3.06001e-08
5.88428e-08
-4.51452e-08
5.75783e-08
-5.96797e-08
5.75894e-08
-7.44157e-08
5.8632e-08
-8.96669e-08
6.12117e-08
-1.05897e-07
6.60472e-08
-1.23967e-07
7.43497e-08
-1.4465e-07
8.60077e-08
-1.68865e-07
1.01147e-07
-1.97254e-07
1.18648e-07
-2.30289e-07
1.37388e-07
-2.6821e-07
1.55865e-07
-3.11016e-07
1.72301e-07
-3.58425e-07
1.84688e-07
-4.09828e-07
1.9102e-07
-4.64343e-07
1.89609e-07
-5.20847e-07
1.79358e-07
-5.78134e-07
1.60057e-07
-6.35029e-07
1.32342e-07
-6.90449e-07
9.75122e-08
-7.43069e-07
5.69388e-08
-7.95399e-07
1.25833e-08
-8.42886e-07
-3.82923e-08
-8.84946e-07
-9.13829e-08
-9.17299e-07
-1.49532e-07
-9.24246e-07
-2.23654e-07
-8.45783e-07
-3.58857e-07
-5.34513e-07
-6.50675e-07
-9.53149e-07
4.61284e-09
-1.56577e-08
7.79854e-08
-3.04251e-08
7.361e-08
-4.4876e-08
7.20293e-08
-5.92897e-08
7.20035e-08
-7.38247e-08
7.31668e-08
-8.8723e-08
7.61106e-08
-1.04309e-07
8.16327e-08
-1.21464e-07
9.15055e-08
-1.40852e-07
1.05396e-07
-1.63472e-07
1.23767e-07
-1.89981e-07
1.45156e-07
-2.20998e-07
1.68405e-07
-2.57037e-07
1.91904e-07
-2.98569e-07
2.13833e-07
-3.46005e-07
2.32123e-07
-3.99592e-07
2.44607e-07
-4.59435e-07
2.49451e-07
-5.25364e-07
2.45287e-07
-5.97101e-07
2.31794e-07
-6.74524e-07
2.09765e-07
-7.58208e-07
1.81196e-07
-8.50154e-07
1.48885e-07
-9.53814e-07
1.16242e-07
-1.07938e-06
8.72712e-08
-1.23453e-06
6.37708e-08
-1.41019e-06
2.61241e-08
-1.54555e-06
-8.82948e-08
-1.42448e-06
-4.79927e-07
-7.23862e-07
-1.35129e-06
-1.67889e-06
1.87426e-09
-1.55545e-08
9.35401e-08
-3.02063e-08
8.82616e-08
-4.45413e-08
8.63644e-08
-5.88099e-08
8.62725e-08
-7.31051e-08
8.74618e-08
-8.75933e-08
9.05994e-08
-1.02393e-07
9.64321e-08
-1.18446e-07
1.07559e-07
-1.36224e-07
1.23173e-07
-1.56863e-07
1.44406e-07
-1.80973e-07
1.69266e-07
-2.09291e-07
1.96724e-07
-2.42564e-07
2.25176e-07
-2.8169e-07
2.52959e-07
-3.27739e-07
2.78172e-07
-3.81761e-07
2.98629e-07
-4.44731e-07
3.12421e-07
-5.17208e-07
3.17763e-07
-5.99481e-07
3.14067e-07
-6.91591e-07
3.01875e-07
-7.93659e-07
2.83264e-07
-9.06795e-07
2.6202e-07
-1.03392e-06
2.43371e-07
-1.17968e-06
2.33031e-07
-1.34418e-06
2.28265e-07
-1.49775e-06
1.79694e-07
-1.50219e-06
-8.38522e-08
-1.22428e-06
-7.57836e-07
-3.24483e-07
-2.25109e-06
-1.98814e-06
-1.52284e-08
-1.54314e-08
1.08972e-07
-2.99442e-08
1.02774e-07
-4.41431e-08
1.00563e-07
-5.82463e-08
1.00376e-07
-7.22698e-08
1.01485e-07
-8.6308e-08
1.04638e-07
-1.00197e-07
1.10321e-07
-1.15004e-07
1.22367e-07
-1.30854e-07
1.39023e-07
-1.49153e-07
1.62705e-07
-1.70346e-07
1.90459e-07
-1.95245e-07
2.21623e-07
-2.24715e-07
2.54645e-07
-2.59978e-07
2.88222e-07
-3.02733e-07
3.20926e-07
-3.54838e-07
3.50734e-07
-4.18446e-07
3.76029e-07
-4.94793e-07
3.9411e-07
-5.83547e-07
4.0282e-07
-6.81888e-07
4.00216e-07
-7.83637e-07
3.85013e-07
-8.77972e-07
3.56355e-07
-9.46781e-07
3.1218e-07
-9.62328e-07
2.48578e-07
-8.90528e-07
1.56465e-07
-7.16648e-07
5.814e-09
-4.72875e-07
-3.27625e-07
-2.29142e-07
-1.00157e-06
1.29649e-07
-2.60988e-06
-1.86222e-06
3.72434e-09
-1.52893e-08
1.24261e-07
-2.96393e-08
1.17124e-07
-4.36838e-08
1.14608e-07
-5.76061e-08
1.14299e-07
-7.13333e-08
1.15212e-07
-8.49001e-08
1.18205e-07
-9.77683e-08
1.23189e-07
-1.11251e-07
1.3585e-07
-1.24845e-07
1.52617e-07
-1.40511e-07
1.78371e-07
-1.58289e-07
2.08237e-07
-1.79048e-07
2.42382e-07
-2.03577e-07
2.79174e-07
-2.3314e-07
3.17785e-07
-2.69835e-07
3.57622e-07
-3.15656e-07
3.96555e-07
-3.73774e-07
4.34148e-07
-4.4655e-07
4.66886e-07
-5.36098e-07
4.92368e-07
-6.41999e-07
5.06118e-07
-7.55409e-07
4.98422e-07
-8.54637e-07
4.55582e-07
-9.02515e-07
3.60059e-07
-8.34655e-07
1.80718e-07
-5.48654e-07
-1.29536e-07
-1.24831e-08
-5.30357e-07
3.73141e-07
-7.13249e-07
6.14006e-07
-1.24243e-06
1.98248e-07
-2.19412e-06
-1.72285e-06
5.88814e-08
-1.5129e-08
1.3939e-07
-2.92922e-08
1.31287e-07
-4.31655e-08
1.28481e-07
-5.68972e-08
1.28031e-07
-7.03116e-08
1.28626e-07
-8.34107e-08
1.31305e-07
-9.51347e-08
1.34913e-07
-1.07264e-07
1.47979e-07
-1.18308e-07
1.63662e-07
-1.31169e-07
1.91232e-07
-1.45085e-07
2.22153e-07
-1.61084e-07
2.58382e-07
-1.79641e-07
2.97732e-07
-2.01792e-07
3.39936e-07
-2.30412e-07
3.86242e-07
-2.67505e-07
4.33647e-07
-3.19237e-07
4.85881e-07
-3.89967e-07
5.37615e-07
-4.83709e-07
5.8611e-07
-6.07245e-07
6.29654e-07
-7.65394e-07
6.56571e-07
-9.75773e-07
6.65961e-07
-1.21386e-06
5.98142e-07
-1.29728e-06
2.64139e-07
-9.85822e-07
-4.40992e-07
-4.62784e-07
-1.0534e-06
-1.64121e-09
-1.17439e-06
5.69719e-07
-1.81379e-06
-5.91246e-09
-1.61849e-06
-1.77986e-06
5.11019e-08
-1.49516e-08
1.54342e-07
-2.8903e-08
1.45239e-07
-4.25904e-08
1.42168e-07
-5.61278e-08
1.41569e-07
-6.92209e-08
1.41718e-07
-8.18902e-08
1.43975e-07
-9.23295e-08
1.45352e-07
-1.03132e-07
1.58781e-07
-1.11319e-07
1.7185e-07
-1.2128e-07
2.01193e-07
-1.30997e-07
2.3187e-07
-1.41698e-07
2.69083e-07
-1.53237e-07
3.09271e-07
-1.65609e-07
3.52308e-07
-1.81562e-07
4.02196e-07
-2.00022e-07
4.52106e-07
-2.2782e-07
5.13679e-07
-2.70866e-07
5.80662e-07
-3.42243e-07
6.57488e-07
-4.84015e-07
7.71427e-07
-7.21048e-07
8.93604e-07
-1.07237e-06
1.01728e-06
-1.41425e-06
9.4002e-07
-1.52187e-06
3.71765e-07
-1.34423e-06
-6.18635e-07
-1.04634e-06
-1.35128e-06
-5.43452e-07
-1.67728e-06
-1.86698e-07
-2.17055e-06
-2.97443e-07
-1.50774e-06
-2.053e-06
-2.43066e-08
-1.47585e-08
1.69101e-07
-2.84717e-08
1.58952e-07
-4.19601e-08
1.55656e-07
-5.53064e-08
1.54916e-07
-6.8076e-08
1.54488e-07
-8.03964e-08
1.56295e-07
-8.93807e-08
1.54336e-07
-9.89991e-08
1.684e-07
-1.03899e-07
1.7675e-07
-1.11014e-07
2.08308e-07
-1.16286e-07
2.37141e-07
-1.21397e-07
2.74193e-07
-1.25474e-07
3.13348e-07
-1.2733e-07
3.54164e-07
-1.30733e-07
4.056e-07
-1.32404e-07
4.53777e-07
-1.41769e-07
5.23044e-07
-1.62197e-07
6.0109e-07
-1.91636e-07
6.86926e-07
-2.45649e-07
8.25441e-07
-2.93487e-07
9.41442e-07
-3.5591e-07
1.0797e-06
-3.93244e-07
9.77355e-07
-3.98609e-07
3.77131e-07
-3.75318e-07
-6.41926e-07
-2.25316e-07
-1.50128e-06
7.60155e-08
-1.97862e-06
-2.8239e-07
-1.81214e-06
-2.39585e-09
-1.78774e-06
-2.01281e-06
-4.25821e-08
-1.45512e-08
1.83652e-07
-2.79977e-08
1.72398e-07
-4.12758e-08
1.68934e-07
-5.4441e-08
1.68081e-07
-6.68866e-08
1.66933e-07
-7.89912e-08
1.684e-07
-8.62958e-08
1.61641e-07
-9.503e-08
1.77134e-07
-9.61247e-08
1.77845e-07
-1.00693e-07
2.12876e-07
-1.01413e-07
2.37861e-07
-1.00949e-07
2.73729e-07
-9.73093e-08
3.09708e-07
-8.69988e-08
3.43853e-07
-7.29974e-08
3.91599e-07
-4.39401e-08
4.2472e-07
-5.41672e-09
4.8452e-07
5.92679e-08
5.36406e-07
1.52652e-07
5.93541e-07
2.97497e-07
6.80597e-07
5.67417e-07
6.71523e-07
8.77034e-07
7.70086e-07
1.29891e-06
5.55477e-07
1.47639e-06
1.99652e-07
1.30146e-06
-4.66993e-07
1.33833e-06
-1.53816e-06
1.30361e-06
-1.94389e-06
8.35842e-07
-1.34438e-06
6.66396e-07
-1.61829e-06
-1.29865e-06
-4.77696e-08
-1.43316e-08
1.97984e-07
-2.748e-08
1.85547e-07
-4.05376e-08
1.81992e-07
-5.35394e-08
1.81083e-07
-6.56478e-08
1.79041e-07
-7.77357e-08
1.80488e-07
-8.3169e-08
1.67074e-07
-9.1388e-08
1.85353e-07
-8.82068e-08
1.74664e-07
-9.06629e-08
2.15332e-07
-8.69012e-08
2.341e-07
-8.14475e-08
2.68276e-07
-7.12251e-08
2.99486e-07
-5.00783e-08
3.22707e-07
-2.49906e-08
3.66511e-07
2.3894e-08
3.75836e-07
7.98057e-08
4.28608e-07
1.72997e-07
4.43216e-07
3.04695e-07
4.61843e-07
4.52009e-07
5.33284e-07
6.97907e-07
4.25625e-07
8.83029e-07
5.84965e-07
1.30134e-06
1.37166e-07
1.44414e-06
5.68505e-08
1.38023e-06
-4.03078e-07
1.1901e-06
-1.34803e-06
7.86567e-07
-1.54036e-06
8.63746e-07
-1.42155e-06
5.14373e-07
-1.26892e-06
-7.18859e-07
-6.54164e-08
-1.4102e-08
2.12086e-07
-2.69165e-08
1.98361e-07
-3.97442e-08
1.94819e-07
-5.26086e-08
1.93948e-07
-6.43326e-08
1.90765e-07
-7.66763e-08
1.92832e-07
-8.02374e-08
1.70636e-07
-8.82025e-08
1.93318e-07
-8.05196e-08
1.66982e-07
-8.12024e-08
2.16015e-07
-7.3056e-08
2.25953e-07
-6.35982e-08
2.58818e-07
-4.84123e-08
2.843e-07
-2.10418e-08
2.95337e-07
1.3797e-08
3.31672e-07
7.05252e-08
3.19108e-07
1.31791e-07
3.67342e-07
2.30508e-07
3.44499e-07
3.02611e-07
3.89741e-07
4.36107e-07
3.99788e-07
4.72949e-07
3.88783e-07
6.18618e-07
4.39296e-07
6.88762e-07
6.70221e-08
5.80199e-07
1.65413e-07
6.06663e-07
-4.29543e-07
1.1956e-07
-8.6093e-07
-3.60823e-07
-1.05997e-06
-3.40327e-07
-1.44205e-06
-3.13546e-07
-1.2957e-06
-1.0086e-06
-2.38028e-08
-1.38652e-08
2.25951e-07
-2.63045e-08
2.108e-07
-3.88929e-08
2.07408e-07
-5.16551e-08
2.0671e-07
-6.29903e-08
2.021e-07
-7.5834e-08
2.05676e-07
-7.77754e-08
1.72577e-07
-8.55631e-08
2.01105e-07
-7.329e-08
1.54709e-07
-7.24717e-08
2.15197e-07
-6.01637e-08
2.13645e-07
-4.79067e-08
2.46562e-07
-2.98034e-08
2.66197e-07
-4.0191e-10
2.65935e-07
4.05007e-08
2.9077e-07
1.11716e-07
2.47894e-07
1.84431e-07
2.94627e-07
3.08454e-07
2.20476e-07
4.3353e-07
2.64666e-07
5.68591e-07
2.64727e-07
8.22476e-07
1.34899e-07
1.06363e-06
1.98141e-07
8.35251e-07
2.95401e-07
1.24415e-06
-2.43489e-07
1.28241e-06
-4.67802e-07
1.23776e-06
-8.16277e-07
1.1027e-06
-9.24917e-07
5.43603e-07
-8.82953e-07
1.73516e-08
-7.69448e-07
-9.59203e-07
-3.20471e-08
-1.36248e-08
2.39576e-07
-2.56397e-08
2.22815e-07
-3.79779e-08
2.19746e-07
-5.06798e-08
2.19412e-07
-6.17335e-08
2.13154e-07
-7.52119e-08
2.19154e-07
-7.59487e-08
1.73314e-07
-8.35639e-08
2.08721e-07
-6.65803e-08
1.37725e-07
-6.45057e-08
2.13123e-07
-4.90531e-08
1.98192e-07
-3.43736e-08
2.31883e-07
-1.1959e-08
2.43783e-07
1.56539e-08
2.38323e-07
5.91347e-08
2.47289e-07
1.20056e-07
1.86972e-07
1.95335e-07
2.19349e-07
3.26387e-07
8.94241e-08
3.81162e-07
2.09891e-07
6.12132e-07
3.3757e-08
1.00202e-06
-2.54986e-07
9.93605e-07
2.06553e-07
7.09985e-07
5.79021e-07
1.19152e-06
-7.25019e-07
1.56679e-06
-8.43078e-07
2.00098e-06
-1.25047e-06
1.79036e-06
-7.14292e-07
1.35273e-06
-4.45327e-07
7.44446e-07
-1.61161e-07
-1.07486e-07
-1.07271e-07
-1.33851e-08
2.52961e-07
-2.49164e-08
2.34347e-07
-3.69889e-08
2.31818e-07
-4.96695e-08
2.32093e-07
-6.06616e-08
2.24146e-07
-7.48137e-08
2.33306e-07
-7.48813e-08
1.73382e-07
-8.2325e-08
2.16164e-07
-6.03983e-08
1.15798e-07
-5.74947e-08
2.1022e-07
-4.11174e-08
1.81815e-07
-2.97964e-08
2.20562e-07
-1.55907e-08
2.29578e-07
4.1631e-09
2.18569e-07
4.41368e-08
2.07316e-07
1.14014e-07
1.17095e-07
1.77862e-07
1.55501e-07
3.33516e-07
-6.62306e-08
3.47217e-07
1.9619e-07
5.73398e-07
-1.92424e-07
8.86479e-07
-5.68067e-07
6.73419e-07
4.19613e-07
5.33332e-07
7.19107e-07
6.57606e-07
-8.49294e-07
1.22559e-06
-1.41106e-06
7.31709e-07
-7.56588e-07
9.78454e-08
-8.04275e-08
2.51708e-07
-5.9919e-07
4.62374e-07
-3.71827e-07
4.15998e-07
-6.11103e-08
-1.31513e-08
2.66112e-07
-2.41284e-08
2.45324e-07
-3.59146e-08
2.43604e-07
-4.85942e-08
2.44773e-07
-5.98001e-08
2.35351e-07
-7.46489e-08
2.48155e-07
-7.47277e-08
1.73461e-07
-8.19733e-08
2.23409e-07
-5.45727e-08
8.83976e-08
-4.92663e-08
2.04913e-07
-2.60876e-08
1.58637e-07
-6.85604e-09
2.0133e-07
1.82943e-08
2.04428e-07
3.16497e-08
2.05213e-07
6.4029e-08
1.74937e-07
8.43143e-08
9.68096e-08
1.66422e-07
7.33941e-08
1.91575e-07
-9.13843e-08
4.17538e-07
-2.97734e-08
4.95947e-07
-2.70833e-07
5.87942e-07
-6.60063e-07
7.15753e-07
2.91802e-07
1.00636e-06
4.28498e-07
1.11114e-06
-9.54068e-07
1.20953e-06
-1.50946e-06
8.2795e-07
-3.75009e-07
6.18562e-07
1.28961e-07
1.14257e-08
7.94605e-09
-5.76447e-08
-3.02757e-07
4.02178e-07
-4.38241e-08
-1.29298e-08
2.79042e-07
-2.32687e-08
2.55663e-07
-3.47552e-08
2.5509e-07
-4.74127e-08
2.57431e-07
-5.91302e-08
2.47069e-07
-7.47286e-08
2.63753e-07
-7.56897e-08
1.74422e-07
-8.27561e-08
2.30475e-07
-4.97487e-08
5.53903e-08
-4.88836e-08
2.04048e-07
-3.75929e-08
1.47346e-07
-2.93457e-08
1.93082e-07
-3.00301e-08
2.05113e-07
-3.52523e-08
2.10435e-07
-7.45988e-09
1.47144e-07
2.31391e-08
6.62108e-08
9.6119e-08
4.13988e-10
1.08765e-07
-1.0403e-07
2.83201e-07
-2.0421e-07
3.1705e-07
-3.04682e-07
2.38685e-07
-5.81698e-07
5.87146e-07
-5.6659e-08
1.14632e-06
-1.3068e-07
9.88134e-07
-7.95877e-07
2.89185e-07
-8.10509e-07
9.61956e-08
-1.82019e-07
6.33622e-08
1.61794e-07
-3.99331e-07
4.70639e-07
-5.45914e-07
-1.56173e-07
-1.74714e-07
3.0978e-08
-1.27281e-08
2.9177e-07
-2.23277e-08
2.65263e-07
-3.35302e-08
2.66293e-07
-4.60806e-08
2.69981e-07
-5.86191e-08
2.59607e-07
-7.50588e-08
2.80192e-07
-7.79833e-08
1.77347e-07
-8.43203e-08
2.36812e-07
-4.28194e-08
1.38895e-08
-2.95479e-08
1.90776e-07
5.4461e-09
1.12353e-07
3.36392e-08
1.64889e-07
5.0774e-08
1.87978e-07
4.10191e-08
2.2019e-07
3.26075e-08
1.55556e-07
-7.10173e-09
1.0592e-07
-1.49695e-08
8.28159e-09
-6.71217e-08
-5.18773e-08
-5.18072e-08
-2.19525e-07
-1.55181e-07
-2.01308e-07
-2.07156e-07
-5.29723e-07
4.09705e-08
-3.04785e-07
1.63031e-07
-2.52741e-07
-4.45291e-07
-1.87554e-07
-8.2547e-07
-4.3033e-07
-9.71812e-07
-3.56772e-08
-7.50633e-07
-5.93844e-08
6.24707e-08
-3.42465e-07
4.53316e-08
-1.39034e-07
2.35229e-08
-1.52906e-07
-1.25547e-08
3.04325e-07
-2.12929e-08
2.74001e-07
-3.22425e-08
2.77242e-07
-4.45545e-08
2.82293e-07
-5.82166e-08
2.7327e-07
-7.56531e-08
2.97628e-07
-8.20334e-08
1.83728e-07
-8.9287e-08
2.44066e-07
-4.25617e-08
-3.28356e-08
-4.7531e-08
1.95746e-07
-4.5948e-08
1.1077e-07
-4.16301e-08
1.60571e-07
-6.0186e-08
2.06534e-07
-1.03586e-07
2.6359e-07
-1.07263e-07
1.59232e-07
-7.02662e-08
6.89243e-08
-7.88488e-08
1.68642e-08
-5.80494e-08
-7.26765e-08
-7.44024e-08
-2.03172e-07
-1.00941e-07
-1.74769e-07
-2.4402e-07
-3.86644e-07
-1.23124e-07
-4.25681e-07
2.80522e-09
-3.7867e-07
2.15999e-09
-1.86909e-07
-1.11513e-07
-3.16657e-07
5.17774e-08
-1.98967e-07
3.69003e-07
-3.7661e-07
6.13261e-07
-5.86723e-07
4.83196e-07
-8.96953e-09
7.61175e-07
-2.54456e-07
-1.24184e-08
3.16743e-07
-2.01502e-08
2.81733e-07
-3.08794e-08
2.87971e-07
-4.279e-08
2.94204e-07
-5.78401e-08
2.8832e-07
-7.64611e-08
3.16249e-07
-8.81029e-08
1.9537e-07
-8.98677e-08
2.45831e-07
-2.75947e-08
-9.51086e-08
-4.64965e-09
1.72801e-07
5.18113e-08
5.43086e-08
1.0826e-07
1.04123e-07
1.06114e-07
2.0868e-07
8.17833e-08
2.87921e-07
1.21462e-08
2.2887e-07
-7.32664e-08
1.54337e-07
-1.67322e-07
1.1092e-07
-2.16604e-07
-2.33948e-08
-3.72622e-07
-4.71549e-08
-4.63071e-07
-8.43196e-08
-4.32233e-07
-4.17482e-07
-1.41179e-07
-7.16729e-07
1.5815e-07
-6.77992e-07
6.56725e-07
-6.85479e-07
6.55752e-07
-3.15693e-07
6.36357e-07
-1.79571e-07
4.01046e-07
-1.41298e-07
-1.93129e-07
7.44109e-09
-1.16423e-07
-8.56758e-08
7.47449e-07
-1.02697e-07
-1.23283e-08
3.29071e-07
-1.88891e-08
2.88294e-07
-2.94227e-08
2.98505e-07
-4.07402e-08
3.05521e-07
-5.73677e-08
3.04948e-07
-7.76213e-08
3.36503e-07
-9.66135e-08
2.14362e-07
-1.06494e-07
2.55711e-07
-4.12429e-08
-1.6036e-07
-5.2146e-08
1.83704e-07
-5.74808e-08
5.96433e-08
-5.92245e-08
1.05866e-07
-8.18486e-08
2.31304e-07
-2.08765e-07
4.14837e-07
-2.17146e-07
2.3725e-07
-1.40239e-07
7.74294e-08
-3.17328e-07
2.88008e-07
-2.82617e-07
-5.81051e-08
-4.38233e-07
1.0846e-07
-4.52807e-07
-6.97457e-08
-3.79701e-07
-4.83479e-07
-2.01094e-07
-6.34832e-07
-1.2015e-08
-5.26336e-07
-8.22969e-08
-2.95543e-07
-1.62755e-07
-8.53965e-08
-1.82392e-07
-1.0169e-07
-5.7058e-08
-2.00835e-07
1.08904e-08
-5.33392e-08
-7.53647e-07
4.40221e-07
6.76606e-07
-6.82804e-07
-1.22922e-08
3.41364e-07
-1.75076e-08
2.93509e-07
-2.78509e-08
3.08848e-07
-3.83463e-08
3.16016e-07
-5.66035e-08
3.23205e-07
-7.86183e-08
3.58517e-07
-1.09651e-07
2.45395e-07
-9.80986e-08
2.44158e-07
-6.47683e-09
-2.51981e-07
1.53236e-08
1.61904e-07
9.90363e-08
-2.40694e-08
2.46332e-07
-4.14296e-08
2.03853e-07
2.73784e-07
1.78955e-07
4.39736e-07
4.72184e-08
3.68986e-07
-1.24133e-07
2.4878e-07
-2.15033e-07
3.78908e-07
-3.82659e-07
1.09521e-07
-8.28529e-07
5.54331e-07
-1.16438e-06
2.66127e-07
-5.60388e-07
-3.18415e-07
-3.99189e-07
-3.44671e-08
-4.04032e-07
-3.30099e-09
-1.23855e-07
-3.46254e-09
-1.04379e-07
-6.43367e-10
3.68385e-08
-1.63289e-07
2.28071e-07
-1.84152e-07
2.6411e-07
-2.38766e-07
9.76739e-08
1.21599e-07
4.71091e-10
3.50362e-07
-1.23302e-08
3.53694e-07
-1.60496e-08
2.97228e-07
-2.6175e-08
3.18974e-07
-3.55776e-08
3.25419e-07
-5.53239e-08
3.42952e-07
-8.09672e-08
3.8416e-07
-1.25367e-07
2.89795e-07
-1.35819e-07
2.5461e-07
-4.90187e-08
-3.38782e-07
-5.08379e-08
1.63723e-07
-7.57725e-08
8.65427e-10
-6.0223e-08
-5.69788e-08
-8.33597e-08
2.9692e-07
-3.51541e-07
7.07917e-07
-1.88411e-07
2.05857e-07
-9.41867e-08
1.54555e-07
-4.89715e-07
7.74447e-07
1.44948e-07
-5.25057e-07
-7.55239e-08
7.74832e-07
3.89995e-08
1.16212e-07
1.9592e-08
-1.39966e-07
-1.21741e-09
-8.57947e-09
-1.99605e-09
-2.26631e-09
-1.15003e-10
-5.44608e-09
1.59279e-10
-6.8858e-10
-8.87774e-09
-4.08007e-10
-3.57803e-08
-1.58701e-09
-3.30592e-09
-1.70925e-07
1.27351e-08
1.79317e-07
-1.55425e-07
3.51602e-08
-1.23983e-08
3.66092e-07
-1.43906e-08
2.99221e-07
-2.42924e-08
3.28876e-07
-3.22223e-08
3.33349e-07
-5.29952e-08
3.63725e-07
-8.04622e-08
4.11627e-07
-1.50978e-07
3.60311e-07
-1.08651e-07
2.12283e-07
2.66241e-08
-4.74057e-07
-1.16986e-08
2.02045e-07
1.42901e-07
-1.53734e-07
5.00193e-07
-4.1427e-07
3.11048e-07
4.86065e-07
2.79153e-07
7.39811e-07
7.69872e-08
4.08022e-07
7.5269e-08
1.56273e-07
-8.08663e-08
9.30583e-07
-1.14179e-06
5.35863e-07
-6.22845e-07
2.88889e-07
1.59507e-07
-9.49601e-07
-7.06652e-08
-2.35713e-07
-3.50205e-08
-7.7876e-10
8.89325e-09
-7.00017e-10
3.53627e-09
-3.57104e-10
3.15868e-09
-3.86818e-10
2.18294e-09
7.47372e-10
1.79443e-08
-1.721e-08
3.31293e-07
-1.01609e-07
3.14755e-07
2.04658e-07
-2.20062e-07
2.79348e-07
-1.26824e-08
3.78774e-07
-1.31246e-08
2.99663e-07
-2.28289e-08
3.3858e-07
-2.86588e-08
3.39178e-07
-4.9509e-08
3.84575e-07
-8.64431e-08
4.48561e-07
-1.82607e-07
4.56474e-07
-1.70815e-07
2.00491e-07
-4.8458e-08
-5.96414e-07
-2.24907e-08
1.76078e-07
-7.19971e-08
-1.04227e-07
8.84971e-09
-4.95117e-07
2.46131e-08
4.70302e-07
-3.67415e-07
1.13184e-06
3.26203e-07
-2.85595e-07
-4.30107e-08
5.25487e-07
-1.2388e-06
2.12637e-06
-7.58551e-07
5.56659e-08
1.35658e-08
-4.75201e-07
-1.14762e-06
6.6261e-07
-7.69273e-10
-1.03552e-06
-1.92345e-10
-1.38433e-09
-1.33318e-10
-7.3629e-10
-2.23097e-09
1.71062e-09
-2.24609e-09
-5.87099e-10
-5.75465e-11
-1.39117e-08
-1.32474e-07
8.65979e-08
-2.74068e-07
-9.44495e-08
-4.97638e-07
1.44022e-07
-5.14183e-07
-5.6857e-08
-1.28184e-08
3.91593e-07
-1.03487e-08
2.97193e-07
-2.00003e-08
3.48232e-07
-2.36214e-08
3.42799e-07
-4.29558e-08
4.0391e-07
-7.95854e-08
4.85191e-07
-2.25436e-07
6.02325e-07
-1.20236e-07
9.52911e-08
7.36427e-08
-7.90292e-07
-1.34933e-07
3.84654e-07
1.51787e-07
-3.90947e-07
9.39716e-07
-1.28305e-06
1.77558e-07
1.23246e-06
2.0134e-07
1.10806e-06
1.15467e-06
-1.23892e-06
1.46438e-06
2.15774e-07
1.51091e-06
2.07984e-06
1.35883e-06
2.07747e-07
-2.38069e-07
1.1217e-06
-9.85005e-07
1.66498e-06
-2.47318e-09
-1.15094e-06
-4.0609e-09
1.84086e-10
-4.86184e-09
3.15221e-11
-6.83923e-09
3.75617e-09
-8.26028e-09
2.77524e-10
9.69207e-09
-3.67211e-08
-4.68332e-07
-2.26628e-08
-1.45854e-06
-1.41288e-07
-5.02309e-07
-3.73561e-07
-4.16599e-07
2.1893e-07
-1.76991e-08
4.09292e-07
-1.15473e-08
2.91041e-07
-1.97962e-08
3.56481e-07
-1.94272e-08
3.4243e-07
-3.4798e-08
4.19281e-07
-9.51095e-08
5.45502e-07
-2.79809e-07
7.87025e-07
-1.93764e-07
9.24597e-09
6.03055e-08
-1.04436e-06
4.14757e-07
3.02025e-08
-2.91334e-08
5.29487e-08
2.53284e-07
-1.56546e-06
2.53658e-07
1.23209e-06
8.00123e-07
5.61592e-07
1.4962e-07
-5.8829e-07
-6.95679e-07
1.06095e-06
1.29252e-06
9.16316e-08
-9.96002e-07
2.49627e-06
-9.58233e-07
6.09807e-07
2.88983e-07
1.67117e-07
1.80253e-07
-8.83795e-07
5.47498e-08
-1.51513e-07
2.46271e-09
5.23941e-08
2.95094e-10
6.523e-09
-7.12998e-09
-1.84753e-08
-2.89785e-08
-5.36439e-08
-6.95809e-09
-1.01426e-07
-4.17771e-07
5.87884e-09
-3.43753e-07
-1.75071e-07
-2.52953e-08
-8.42972e-08
1.04371e-07
3.04921e-07
-2.14096e-08
4.16822e-07
-1.04989e-08
3.4557e-07
-7.83605e-09
3.39767e-07
-1.54493e-08
4.26894e-07
-6.26403e-08
5.92693e-07
-3.71612e-07
1.096e-06
9.63777e-08
-4.58744e-07
-2.15511e-06
1.20713e-06
-1.22593e-07
-2.00231e-06
-8.02576e-09
-6.1676e-08
-2.72919e-06
1.42491e-06
-6.6748e-07
-4.49597e-07
2.73868e-06
-2.87669e-06
1.05339e-06
1.09713e-06
9.17707e-07
1.19671e-06
9.09578e-07
-2.22365e-07
1.72878e-06
3.91092e-07
3.50192e-06
-6.42686e-07
3.77183e-06
3.26415e-08
4.97512e-06
-2.41862e-06
4.40017e-06
5.69021e-07
2.96191e-06
1.45585e-06
2.09531e-06
1.02241e-06
7.77768e-07
9.61282e-08
5.75721e-07
-1.51239e-07
5.46808e-07
-1.08819e-07
2.60037e-07
9.90259e-08
4.29622e-08
-2.56901e-07
-5.22678e-08
-5.32532e-07
7.04994e-08
-7.55054e-08
1.49418e-07
-7.89184e-08
2.28436e-07
-7.9018e-08
3.03904e-07
-7.54683e-08
3.71985e-07
-6.80806e-08
4.29057e-07
-5.70723e-08
4.72437e-07
-4.33804e-08
5.00548e-07
-2.81107e-08
5.12917e-07
-1.23687e-08
5.10041e-07
2.87596e-09
4.94139e-07
1.59021e-08
4.6712e-07
2.7019e-08
4.31626e-07
3.54943e-08
3.9066e-07
4.09662e-08
3.47231e-07
4.34283e-08
3.04039e-07
4.31925e-08
2.63199e-07
4.08399e-08
2.26156e-07
3.70429e-08
1.93663e-07
3.2493e-08
1.6586e-07
2.78027e-08
1.42391e-07
2.34698e-08
1.22534e-07
1.98564e-08
1.05317e-07
1.72176e-08
8.97642e-08
1.55526e-08
7.50075e-08
1.47566e-08
6.04907e-08
1.45169e-08
4.59371e-08
1.45535e-08
3.12042e-08
1.4733e-08
1.60589e-08
1.51452e-08
1.60589e-08
1.03557e-07
-1.83522e-07
2.05259e-07
-1.8062e-07
2.98558e-07
-1.72317e-07
3.80086e-07
-1.56997e-07
4.46934e-07
-1.34929e-07
4.97765e-07
-1.07903e-07
5.32162e-07
-7.77774e-08
5.50357e-07
-4.63052e-08
5.53126e-07
-1.51372e-08
5.42235e-07
1.37673e-08
5.19745e-07
3.83919e-08
4.87678e-07
5.90856e-08
4.48572e-07
7.46003e-08
4.05167e-07
8.43708e-08
3.60154e-07
8.84413e-08
3.15912e-07
8.74349e-08
2.74307e-07
8.24444e-08
2.36609e-07
7.4741e-08
2.03463e-07
6.56401e-08
1.74954e-07
5.63122e-08
1.50708e-07
4.77157e-08
1.30007e-07
4.05575e-08
1.11879e-07
3.53459e-08
9.5371e-08
3.20603e-08
7.96302e-08
3.04972e-08
6.41378e-08
3.00094e-08
4.86394e-08
3.00518e-08
3.29985e-08
3.03739e-08
1.69626e-08
3.11811e-08
3.30214e-08
2.24044e-07
-4.09219e-07
3.79658e-07
-3.36235e-07
4.85823e-07
-2.78482e-07
5.57974e-07
-2.29148e-07
6.03602e-07
-1.80556e-07
6.2781e-07
-1.32111e-07
6.34469e-07
-8.44362e-08
6.26648e-07
-3.84834e-08
6.06093e-07
5.4177e-09
5.7718e-07
4.26794e-08
5.40146e-07
7.54257e-08
4.97298e-07
1.01934e-07
4.50845e-07
1.21053e-07
4.02975e-07
1.3224e-07
3.55708e-07
1.35709e-07
3.10741e-07
1.32401e-07
2.69372e-07
1.23813e-07
2.32409e-07
1.11705e-07
2.00177e-07
9.78723e-08
1.72566e-07
8.39235e-08
1.491e-07
7.1182e-08
1.29014e-07
6.06429e-08
1.11315e-07
5.30453e-08
9.50782e-08
4.82969e-08
7.94656e-08
4.61096e-08
6.40296e-08
4.54456e-08
4.85583e-08
4.5523e-08
3.29412e-08
4.5991e-08
1.69338e-08
4.71884e-08
4.99552e-08
5.33177e-07
-9.37783e-07
8.36019e-07
-6.39077e-07
9.11801e-07
-3.54263e-07
9.04686e-07
-2.22033e-07
8.72346e-07
-1.48215e-07
8.29949e-07
-8.97141e-08
7.81824e-07
-3.63111e-08
7.28875e-07
1.44653e-08
6.75824e-07
5.84687e-08
6.20055e-07
9.84479e-08
5.6317e-07
1.32311e-07
5.06304e-07
1.58799e-07
4.50639e-07
1.76718e-07
3.97355e-07
1.85525e-07
3.47533e-07
1.85531e-07
3.02001e-07
1.77933e-07
2.61304e-07
1.64512e-07
2.25632e-07
1.47377e-07
1.94885e-07
1.28619e-07
1.68693e-07
1.10116e-07
1.46445e-07
9.343e-08
1.27325e-07
7.97636e-08
1.103e-07
7.00703e-08
9.44958e-08
6.41008e-08
7.91004e-08
6.15048e-08
6.37748e-08
6.07715e-08
4.83689e-08
6.09288e-08
3.28108e-08
6.1549e-08
1.68686e-08
6.31305e-08
6.68238e-08
7.23494e-07
-1.6594e-06
1.41812e-06
-1.33371e-06
1.53466e-06
-4.70805e-07
1.39806e-06
-8.54329e-08
1.22189e-06
2.79633e-08
1.0663e-06
6.58714e-08
9.39815e-07
9.01739e-08
8.34934e-07
1.19346e-07
7.4208e-07
1.51323e-07
6.58022e-07
1.82506e-07
5.80775e-07
2.09559e-07
5.09695e-07
2.29879e-07
4.44873e-07
2.4154e-07
3.86531e-07
2.43867e-07
3.34772e-07
2.37291e-07
2.89422e-07
2.23283e-07
2.50167e-07
2.03767e-07
2.16501e-07
1.81043e-07
1.87862e-07
1.57259e-07
1.63604e-07
1.34374e-07
1.42979e-07
1.14055e-07
1.25138e-07
9.76048e-08
1.08991e-07
8.62169e-08
9.37421e-08
7.93501e-08
7.86208e-08
7.6626e-08
6.34359e-08
7.59566e-08
4.81146e-08
7.62501e-08
3.26352e-08
7.70284e-08
1.67809e-08
7.89849e-08
8.36048e-08
3.06368e-07
-1.981e-06
1.22641e-06
-2.25375e-06
1.5089e-06
-7.53299e-07
1.49974e-06
-7.6272e-08
1.34008e-06
1.87624e-07
1.1698e-06
2.36149e-07
1.01989e-06
2.40085e-07
8.90153e-07
2.49084e-07
7.75546e-07
2.6593e-07
6.73017e-07
2.85035e-07
5.81274e-07
3.01302e-07
5.00038e-07
3.11116e-07
4.29088e-07
3.1249e-07
3.67998e-07
3.04958e-07
3.16125e-07
2.89164e-07
2.72419e-07
2.66989e-07
2.35776e-07
2.40409e-07
2.05021e-07
2.11798e-07
1.79186e-07
1.83094e-07
1.57387e-07
1.56173e-07
1.3878e-07
1.32662e-07
1.22527e-07
1.13859e-07
1.07434e-07
1.0131e-07
9.28419e-08
9.39424e-08
7.80375e-08
9.14302e-08
6.30177e-08
9.09767e-08
4.77969e-08
9.14708e-08
3.24149e-08
9.24106e-08
1.66711e-08
9.47287e-08
1.00276e-07
-1.18823e-07
-1.85845e-06
2.5957e-07
-2.63214e-06
5.1392e-07
-1.00765e-06
7.44705e-07
-3.07057e-07
9.01913e-07
3.04162e-08
9.57168e-07
1.80894e-07
9.31597e-07
2.65656e-07
8.57738e-07
3.22945e-07
7.61569e-07
3.621e-07
6.59887e-07
3.86717e-07
5.62695e-07
3.98495e-07
4.75729e-07
3.98082e-07
4.01536e-07
3.86683e-07
3.40305e-07
3.66189e-07
2.90742e-07
3.38727e-07
2.50622e-07
3.0711e-07
2.18082e-07
2.72949e-07
1.91282e-07
2.38599e-07
1.6899e-07
2.05386e-07
1.50169e-07
1.74994e-07
1.33951e-07
1.48881e-07
1.19587e-07
1.28222e-07
1.05666e-07
1.15231e-07
9.18221e-08
1.07787e-07
7.73625e-08
1.0589e-07
6.25248e-08
1.05815e-07
4.74167e-08
1.06579e-07
3.21496e-08
1.07678e-07
1.65394e-08
1.10339e-07
1.16815e-07
-9.94692e-08
-1.7001e-06
-5.29179e-07
-2.20243e-06
-3.09257e-07
-1.22757e-06
4.72881e-08
-6.63602e-07
5.52031e-07
-4.74326e-07
8.12974e-07
-8.00493e-08
8.74028e-07
2.04603e-07
8.2464e-07
3.72332e-07
7.26199e-07
4.60542e-07
6.14968e-07
4.97947e-07
5.1191e-07
5.01553e-07
4.25377e-07
4.84615e-07
3.55584e-07
4.56476e-07
3.00402e-07
4.21372e-07
2.5755e-07
3.81579e-07
2.23773e-07
3.40887e-07
1.97214e-07
2.99508e-07
1.75488e-07
2.60326e-07
1.5748e-07
2.23394e-07
1.42124e-07
1.9035e-07
1.28614e-07
1.62391e-07
1.16396e-07
1.4044e-07
1.03731e-07
1.27896e-07
9.07143e-08
1.20803e-07
7.66095e-08
1.19994e-07
6.19622e-08
1.20462e-07
4.69747e-08
1.21566e-07
3.18394e-08
1.22813e-07
1.63862e-08
1.25792e-07
1.33202e-07
9.88351e-08
-1.74783e-06
-5.00915e-07
-1.60268e-06
1.88516e-08
-1.74734e-06
4.35899e-07
-1.08065e-06
9.4747e-07
-9.85897e-07
1.24255e-06
-3.75133e-07
1.15215e-06
2.95004e-07
9.23361e-07
6.01125e-07
7.24295e-07
6.59607e-07
5.73974e-07
6.48269e-07
4.55945e-07
6.19582e-07
3.66704e-07
5.73857e-07
2.99865e-07
5.23315e-07
2.51637e-07
4.69601e-07
2.17977e-07
4.15239e-07
1.92509e-07
3.66356e-07
1.73708e-07
3.18309e-07
1.58027e-07
2.76007e-07
1.4497e-07
2.36451e-07
1.33483e-07
2.01836e-07
1.22901e-07
1.72973e-07
1.13021e-07
1.50321e-07
1.01678e-07
1.39239e-07
8.95584e-08
1.32923e-07
7.57937e-08
1.33759e-07
6.13354e-08
1.34921e-07
4.64713e-08
1.3643e-07
3.14838e-08
1.37801e-07
1.62118e-08
1.41064e-07
1.49413e-07
2.37534e-07
-2.00967e-06
1.21909e-07
-1.48706e-06
5.13345e-07
-2.13877e-06
1.00565e-06
-1.57295e-06
1.30388e-06
-1.28413e-06
1.47268e-06
-5.43938e-07
1.35179e-06
4.15892e-07
1.0111e-06
9.41815e-07
6.7102e-07
9.9969e-07
4.45649e-07
8.7364e-07
3.12461e-07
7.5277e-07
2.46763e-07
6.39555e-07
2.08093e-07
5.61986e-07
1.83936e-07
4.93758e-07
1.69195e-07
4.2998e-07
1.56513e-07
3.79038e-07
1.47923e-07