/*--------------------------------*- C++ -*----------------------------------*\
| =========                 |                                                 |
| \\      /  F ield         | OpenFOAM: The Open Source CFD Toolbox           |
|  \\    /   O peration     | Version:  2.4.0                                 |
|   \\  /    A nd           | Web:      www.OpenFOAM.org                      |
|    \\/     M anipulation  |                                                 |
\*---------------------------------------------------------------------------*/
FoamFile
{
    version     2.0;
    format      ascii;
    class       volVectorField;
    location    "0.031";
    object      U;
}
// * * * * * * * * * * * * * * * * * * * * * * * * * * * * * * * * * * * * * //

dimensions      [0 1 -1 0 0 0 0];

internalField   nonuniform List<vector> 
60000
(
(4.66039e-08 -1.0527e-08 0)
(7.15586e-08 5.99387e-09 0)
(1.4932e-08 7.49565e-09 0)
(-1.43603e-08 8.21914e-09 0)
(-5.98106e-08 6.96202e-09 0)
(-9.19028e-08 7.38851e-09 0)
(-1.30423e-07 7.25966e-09 0)
(-1.67397e-07 7.34937e-09 0)
(-2.04358e-07 7.17194e-09 0)
(-2.40493e-07 6.96907e-09 0)
(-2.76299e-07 6.85724e-09 0)
(-3.12483e-07 7.01184e-09 0)
(-3.49953e-07 7.35208e-09 0)
(-3.89363e-07 7.74314e-09 0)
(-4.3054e-07 8.08169e-09 0)
(-4.7299e-07 8.28734e-09 0)
(-5.16217e-07 8.35277e-09 0)
(-5.59901e-07 8.40385e-09 0)
(-6.04163e-07 8.54969e-09 0)
(-6.49566e-07 8.8724e-09 0)
(-6.96753e-07 9.32892e-09 0)
(-7.46189e-07 9.86448e-09 0)
(-7.98101e-07 1.038e-08 0)
(-8.52195e-07 1.0769e-08 0)
(-9.0777e-07 1.09596e-08 0)
(-9.64133e-07 1.09196e-08 0)
(-1.02054e-06 1.06905e-08 0)
(-1.07641e-06 1.03822e-08 0)
(-1.13176e-06 1.00881e-08 0)
(-1.18729e-06 9.95197e-09 0)
(-1.24412e-06 1.01764e-08 0)
(-1.30355e-06 1.07244e-08 0)
(-1.36688e-06 1.15203e-08 0)
(-1.43478e-06 1.23501e-08 0)
(-1.50675e-06 1.30055e-08 0)
(-1.58159e-06 1.32065e-08 0)
(-1.65826e-06 1.30856e-08 0)
(-1.73678e-06 1.30511e-08 0)
(-1.8187e-06 1.36346e-08 0)
(-1.90629e-06 1.47079e-08 0)
(-2.00148e-06 1.61246e-08 0)
(-2.10473e-06 1.73623e-08 0)
(-2.21531e-06 1.82908e-08 0)
(-2.33292e-06 1.91534e-08 0)
(-2.45782e-06 1.99291e-08 0)
(-2.59176e-06 2.13716e-08 0)
(-2.73753e-06 2.32207e-08 0)
(-2.89684e-06 2.5202e-08 0)
(-3.07079e-06 2.74352e-08 0)
(-3.25953e-06 2.95097e-08 0)
(-3.46164e-06 3.11368e-08 0)
(-3.67526e-06 3.24159e-08 0)
(-3.89866e-06 3.32735e-08 0)
(-4.13034e-06 3.38718e-08 0)
(-4.36947e-06 3.43452e-08 0)
(-4.61549e-06 3.46524e-08 0)
(-4.86812e-06 3.49281e-08 0)
(-5.1275e-06 3.52153e-08 0)
(-5.39395e-06 3.54675e-08 0)
(-5.66796e-06 3.58271e-08 0)
(-5.95027e-06 3.63041e-08 0)
(-6.24145e-06 3.67764e-08 0)
(-6.54175e-06 3.72479e-08 0)
(-6.8509e-06 3.75832e-08 0)
(-7.16772e-06 3.75029e-08 0)
(-7.49011e-06 3.68888e-08 0)
(-7.81547e-06 3.56769e-08 0)
(-8.14088e-06 3.3762e-08 0)
(-8.46336e-06 3.11608e-08 0)
(-8.78018e-06 2.7986e-08 0)
(-9.08914e-06 2.435e-08 0)
(-9.38876e-06 2.04412e-08 0)
(-9.6784e-06 1.65123e-08 0)
(-9.95786e-06 1.25715e-08 0)
(-1.02266e-05 8.42852e-09 0)
(-1.04836e-05 4.06932e-09 0)
(-1.07278e-05 -4.03113e-10 0)
(-1.0958e-05 -5.15852e-09 0)
(-1.11726e-05 -1.02562e-08 0)
(-1.13706e-05 -1.54307e-08 0)
(-1.15523e-05 -2.04043e-08 0)
(-1.17192e-05 -2.48921e-08 0)
(-1.18745e-05 -2.85545e-08 0)
(-1.20226e-05 -3.10112e-08 0)
(-1.21693e-05 -3.20733e-08 0)
(-1.23206e-05 -3.18149e-08 0)
(-1.24824e-05 -3.02102e-08 0)
(-1.26606e-05 -2.73816e-08 0)
(-1.28607e-05 -2.34536e-08 0)
(-1.30871e-05 -1.85608e-08 0)
(-1.33436e-05 -1.29219e-08 0)
(-1.36327e-05 -6.79785e-09 0)
(-1.39553e-05 -4.39769e-10 0)
(-1.43117e-05 6.14656e-09 0)
(-1.46975e-05 1.20263e-08 0)
(-1.51302e-05 2.60799e-08 0)
(-1.5374e-05 -1.71177e-08 0)
(-1.65335e-05 1.45557e-07 0)
(-1.57244e-05 -1.12789e-07 0)
(-1.76325e-05 2.96671e-08 0)
(7.63571e-08 -5.652e-08 0)
(1.24651e-07 1.59345e-08 0)
(3.16914e-08 3.24438e-08 0)
(-1.00675e-08 3.25591e-08 0)
(-8.40898e-08 3.01542e-08 0)
(-1.36617e-07 3.04155e-08 0)
(-1.98537e-07 3.06929e-08 0)
(-2.57742e-07 3.07696e-08 0)
(-3.17492e-07 3.02614e-08 0)
(-3.77025e-07 2.97433e-08 0)
(-4.37076e-07 2.96457e-08 0)
(-4.9783e-07 3.04805e-08 0)
(-5.5979e-07 3.19633e-08 0)
(-6.23627e-07 3.35971e-08 0)
(-6.89184e-07 3.49751e-08 0)
(-7.56366e-07 3.58389e-08 0)
(-8.25197e-07 3.62342e-08 0)
(-8.95587e-07 3.656e-08 0)
(-9.67606e-07 3.7195e-08 0)
(-1.04162e-06 3.84667e-08 0)
(-1.11803e-06 4.02315e-08 0)
(-1.19708e-06 4.22989e-08 0)
(-1.27916e-06 4.43622e-08 0)
(-1.36419e-06 4.60307e-08 0)
(-1.4517e-06 4.70679e-08 0)
(-1.54153e-06 4.74543e-08 0)
(-1.63338e-06 4.73457e-08 0)
(-1.72683e-06 4.70562e-08 0)
(-1.82202e-06 4.70242e-08 0)
(-1.9199e-06 4.771e-08 0)
(-2.02134e-06 4.95779e-08 0)
(-2.12717e-06 5.2606e-08 0)
(-2.2386e-06 5.642e-08 0)
(-2.35627e-06 6.03481e-08 0)
(-2.47975e-06 6.3655e-08 0)
(-2.60839e-06 6.57727e-08 0)
(-2.74222e-06 6.72201e-08 0)
(-2.88209e-06 6.94364e-08 0)
(-3.02918e-06 7.37853e-08 0)
(-3.18489e-06 7.99713e-08 0)
(-3.35045e-06 8.7206e-08 0)
(-3.52641e-06 9.41813e-08 0)
(-3.71308e-06 1.00526e-07 0)
(-3.91088e-06 1.06949e-07 0)
(-4.12076e-06 1.14207e-07 0)
(-4.34432e-06 1.24034e-07 0)
(-4.58315e-06 1.3574e-07 0)
(-4.83868e-06 1.48531e-07 0)
(-5.11202e-06 1.62071e-07 0)
(-5.40334e-06 1.74982e-07 0)
(-5.71201e-06 1.86377e-07 0)
(-6.03708e-06 1.96374e-07 0)
(-6.37758e-06 2.04877e-07 0)
(-6.73266e-06 2.12425e-07 0)
(-7.10184e-06 2.1953e-07 0)
(-7.48495e-06 2.26238e-07 0)
(-7.88191e-06 2.32946e-07 0)
(-8.293e-06 2.39976e-07 0)
(-8.71886e-06 2.47388e-07 0)
(-9.16014e-06 2.5546e-07 0)
(-9.61743e-06 2.64239e-07 0)
(-1.00913e-05 2.73434e-07 0)
(-1.05821e-05 2.82766e-07 0)
(-1.10894e-05 2.91601e-07 0)
(-1.16123e-05 2.99065e-07 0)
(-1.21491e-05 3.04564e-07 0)
(-1.26978e-05 3.0773e-07 0)
(-1.32559e-05 3.0835e-07 0)
(-1.38211e-05 3.06557e-07 0)
(-1.43909e-05 3.02748e-07 0)
(-1.49632e-05 2.97446e-07 0)
(-1.55362e-05 2.91351e-07 0)
(-1.61083e-05 2.85118e-07 0)
(-1.66784e-05 2.78719e-07 0)
(-1.72451e-05 2.71637e-07 0)
(-1.78071e-05 2.63613e-07 0)
(-1.83629e-05 2.54597e-07 0)
(-1.89112e-05 2.44193e-07 0)
(-1.9451e-05 2.3245e-07 0)
(-1.99819e-05 2.20248e-07 0)
(-2.0505e-05 2.08717e-07 0)
(-2.10224e-05 1.99087e-07 0)
(-2.15376e-05 1.92623e-07 0)
(-2.20554e-05 1.90503e-07 0)
(-2.25817e-05 1.93363e-07 0)
(-2.3123e-05 2.01169e-07 0)
(-2.36864e-05 2.13872e-07 0)
(-2.42788e-05 2.31094e-07 0)
(-2.49066e-05 2.52367e-07 0)
(-2.55753e-05 2.77108e-07 0)
(-2.62891e-05 3.04365e-07 0)
(-2.70504e-05 3.32918e-07 0)
(-2.78596e-05 3.61422e-07 0)
(-2.87159e-05 3.88618e-07 0)
(-2.96097e-05 4.12319e-07 0)
(-3.05677e-05 4.36231e-07 0)
(-3.1217e-05 4.09678e-07 0)
(-3.33911e-05 6.09359e-07 0)
(-3.16782e-05 1.87263e-07 0)
(-3.627e-05 2.79565e-07 0)
(7.56199e-08 -1.08892e-07 0)
(1.18501e-07 3.5941e-08 0)
(2.14908e-08 6.74475e-08 0)
(-2.00517e-08 6.75924e-08 0)
(-9.91109e-08 6.51596e-08 0)
(-1.55005e-07 6.48477e-08 0)
(-2.20437e-07 6.51296e-08 0)
(-2.82814e-07 6.52507e-08 0)
(-3.46361e-07 6.49599e-08 0)
(-4.10692e-07 6.47522e-08 0)
(-4.76385e-07 6.494e-08 0)
(-5.42892e-07 6.62394e-08 0)
(-6.10091e-07 6.82648e-08 0)
(-6.78311e-07 7.05453e-08 0)
(-7.47534e-07 7.274e-08 0)
(-8.18257e-07 7.45035e-08 0)
(-8.91098e-07 7.58998e-08 0)
(-9.66251e-07 7.73062e-08 0)
(-1.04369e-06 7.90867e-08 0)
(-1.12346e-06 8.1658e-08 0)
(-1.20543e-06 8.47888e-08 0)
(-1.28946e-06 8.83168e-08 0)
(-1.37597e-06 9.19499e-08 0)
(-1.46518e-06 9.5215e-08 0)
(-1.55715e-06 9.7798e-08 0)
(-1.65242e-06 9.97399e-08 0)
(-1.75141e-06 1.01212e-07 0)
(-1.85404e-06 1.0247e-07 0)
(-1.96052e-06 1.04145e-07 0)
(-2.07152e-06 1.06788e-07 0)
(-2.18715e-06 1.10833e-07 0)
(-2.30736e-06 1.16456e-07 0)
(-2.43266e-06 1.23118e-07 0)
(-2.56352e-06 1.30099e-07 0)
(-2.69985e-06 1.36413e-07 0)
(-2.84191e-06 1.41588e-07 0)
(-2.99075e-06 1.46089e-07 0)
(-3.14749e-06 1.51774e-07 0)
(-3.3125e-06 1.60011e-07 0)
(-3.48556e-06 1.70526e-07 0)
(-3.66645e-06 1.82114e-07 0)
(-3.85558e-06 1.93834e-07 0)
(-4.05414e-06 2.05096e-07 0)
(-4.26313e-06 2.16509e-07 0)
(-4.48356e-06 2.29506e-07 0)
(-4.71552e-06 2.45189e-07 0)
(-4.95887e-06 2.63056e-07 0)
(-5.21455e-06 2.82578e-07 0)
(-5.48278e-06 3.02817e-07 0)
(-5.76353e-06 3.2258e-07 0)
(-6.05734e-06 3.4095e-07 0)
(-6.36455e-06 3.57911e-07 0)
(-6.6857e-06 3.73467e-07 0)
(-7.02127e-06 3.88051e-07 0)
(-7.37131e-06 4.02204e-07 0)
(-7.73613e-06 4.16111e-07 0)
(-8.11604e-06 4.30018e-07 0)
(-8.51119e-06 4.44394e-07 0)
(-8.92198e-06 4.59461e-07 0)
(-9.34873e-06 4.75263e-07 0)
(-9.79141e-06 4.91831e-07 0)
(-1.025e-05 5.08961e-07 0)
(-1.07244e-05 5.26119e-07 0)
(-1.12141e-05 5.42499e-07 0)
(-1.17186e-05 5.57267e-07 0)
(-1.22373e-05 5.69611e-07 0)
(-1.27693e-05 5.78903e-07 0)
(-1.33136e-05 5.84886e-07 0)
(-1.3869e-05 5.87582e-07 0)
(-1.4434e-05 5.87273e-07 0)
(-1.50068e-05 5.84544e-07 0)
(-1.55854e-05 5.80143e-07 0)
(-1.61675e-05 5.74627e-07 0)
(-1.67507e-05 5.68011e-07 0)
(-1.7333e-05 5.60045e-07 0)
(-1.79128e-05 5.5058e-07 0)
(-1.84889e-05 5.39528e-07 0)
(-1.90606e-05 5.26799e-07 0)
(-1.96282e-05 5.12829e-07 0)
(-2.01928e-05 4.98806e-07 0)
(-2.07563e-05 4.86322e-07 0)
(-2.13212e-05 4.77168e-07 0)
(-2.1891e-05 4.73185e-07 0)
(-2.24698e-05 4.75957e-07 0)
(-2.30624e-05 4.86501e-07 0)
(-2.36746e-05 5.05235e-07 0)
(-2.43126e-05 5.32157e-07 0)
(-2.49832e-05 5.66813e-07 0)
(-2.56929e-05 6.08411e-07 0)
(-2.64471e-05 6.55812e-07 0)
(-2.725e-05 7.07357e-07 0)
(-2.81044e-05 7.60866e-07 0)
(-2.9011e-05 8.13721e-07 0)
(-2.99697e-05 8.63098e-07 0)
(-3.09696e-05 9.05242e-07 0)
(-3.20487e-05 9.40666e-07 0)
(-3.27521e-05 9.21378e-07 0)
(-3.52063e-05 1.10032e-06 0)
(-3.31557e-05 6.79698e-07 0)
(-3.85939e-05 5.4092e-07 0)
(6.5771e-08 -1.56925e-07 0)
(1.01591e-07 5.05163e-08 0)
(1.2331e-08 9.60324e-08 0)
(-2.81962e-08 9.59182e-08 0)
(-1.06385e-07 9.38546e-08 0)
(-1.61819e-07 9.32285e-08 0)
(-2.26965e-07 9.35974e-08 0)
(-2.89169e-07 9.38467e-08 0)
(-3.52755e-07 9.39782e-08 0)
(-4.17475e-07 9.42972e-08 0)
(-4.83735e-07 9.49944e-08 0)
(-5.50781e-07 9.68485e-08 0)
(-6.18436e-07 9.93873e-08 0)
(-6.86845e-07 1.02214e-07 0)
(-7.56042e-07 1.05117e-07 0)
(-8.2671e-07 1.07691e-07 0)
(-8.99595e-07 1.10029e-07 0)
(-9.74949e-07 1.12425e-07 0)
(-1.05269e-06 1.15224e-07 0)
(-1.13283e-06 1.18828e-07 0)
(-1.21512e-06 1.22972e-07 0)
(-1.2992e-06 1.27607e-07 0)
(-1.38559e-06 1.32463e-07 0)
(-1.47463e-06 1.37059e-07 0)
(-1.56648e-06 1.41194e-07 0)
(-1.66201e-06 1.4493e-07 0)
(-1.76186e-06 1.48408e-07 0)
(-1.866e-06 1.51841e-07 0)
(-1.97469e-06 1.55877e-07 0)
(-2.08843e-06 1.6101e-07 0)
(-2.20714e-06 1.67481e-07 0)
(-2.33038e-06 1.75523e-07 0)
(-2.4585e-06 1.84786e-07 0)
(-2.59195e-06 1.94543e-07 0)
(-2.73064e-06 2.03854e-07 0)
(-2.8751e-06 2.12493e-07 0)
(-3.02648e-06 2.20855e-07 0)
(-3.18587e-06 2.30678e-07 0)
(-3.35375e-06 2.43219e-07 0)
(-3.52942e-06 2.58036e-07 0)
(-3.71204e-06 2.73821e-07 0)
(-3.90176e-06 2.90011e-07 0)
(-4.0997e-06 3.06158e-07 0)
(-4.30743e-06 3.22833e-07 0)
(-4.52549e-06 3.41403e-07 0)
(-4.7534e-06 3.62452e-07 0)
(-4.99092e-06 3.85756e-07 0)
(-5.23778e-06 4.10776e-07 0)
(-5.49391e-06 4.36436e-07 0)
(-5.75992e-06 4.61927e-07 0)
(-6.03671e-06 4.86368e-07 0)
(-6.32526e-06 5.09692e-07 0)
(-6.62648e-06 5.32046e-07 0)
(-6.94119e-06 5.53676e-07 0)
(-7.26996e-06 5.75023e-07 0)
(-7.6132e-06 5.96387e-07 0)
(-7.9713e-06 6.1789e-07 0)
(-8.34458e-06 6.39972e-07 0)
(-8.73309e-06 6.62909e-07 0)
(-9.13683e-06 6.86629e-07 0)
(-9.5557e-06 7.1109e-07 0)
(-9.98941e-06 7.36072e-07 0)
(-1.04376e-05 7.60934e-07 0)
(-1.09e-05 7.84795e-07 0)
(-1.13762e-05 8.06868e-07 0)
(-1.1866e-05 8.2629e-07 0)
(-1.23691e-05 8.42271e-07 0)
(-1.2885e-05 8.54417e-07 0)
(-1.34129e-05 8.62615e-07 0)
(-1.39515e-05 8.67022e-07 0)
(-1.44993e-05 8.68146e-07 0)
(-1.50541e-05 8.66597e-07 0)
(-1.56132e-05 8.62736e-07 0)
(-1.61741e-05 8.56608e-07 0)
(-1.67344e-05 8.4822e-07 0)
(-1.72922e-05 8.3763e-07 0)
(-1.78465e-05 8.24919e-07 0)
(-1.83968e-05 8.10405e-07 0)
(-1.89438e-05 7.94997e-07 0)
(-1.9489e-05 7.80276e-07 0)
(-2.00347e-05 7.68209e-07 0)
(-2.05834e-05 7.61007e-07 0)
(-2.11385e-05 7.61029e-07 0)
(-2.1704e-05 7.70231e-07 0)
(-2.22846e-05 7.89919e-07 0)
(-2.28857e-05 8.20876e-07 0)
(-2.35136e-05 8.63212e-07 0)
(-2.41751e-05 9.16411e-07 0)
(-2.48767e-05 9.79449e-07 0)
(-2.56243e-05 1.05071e-06 0)
(-2.64223e-05 1.12791e-06 0)
(-2.72739e-05 1.20791e-06 0)
(-2.81801e-05 1.28674e-06 0)
(-2.91416e-05 1.35988e-06 0)
(-3.01471e-05 1.4222e-06 0)
(-3.12441e-05 1.4715e-06 0)
(-3.19215e-05 1.46992e-06 0)
(-3.447e-05 1.59484e-06 0)
(-3.23248e-05 1.23358e-06 0)
(-3.78997e-05 8.13183e-07 0)
(6.08255e-08 -1.97965e-07 0)
(9.14156e-08 6.76794e-08 0)
(7.10604e-09 1.26598e-07 0)
(-3.21727e-08 1.27871e-07 0)
(-1.08921e-07 1.2629e-07 0)
(-1.63651e-07 1.25558e-07 0)
(-2.28299e-07 1.26041e-07 0)
(-2.90244e-07 1.26495e-07 0)
(-3.53599e-07 1.27139e-07 0)
(-4.18172e-07 1.28009e-07 0)
(-4.8419e-07 1.29246e-07 0)
(-5.50931e-07 1.31514e-07 0)
(-6.18355e-07 1.34388e-07 0)
(-6.86502e-07 1.37632e-07 0)
(-7.55501e-07 1.41204e-07 0)
(-8.26001e-07 1.44622e-07 0)
(-8.98672e-07 1.48079e-07 0)
(-9.73819e-07 1.51667e-07 0)
(-1.05125e-06 1.5567e-07 0)
(-1.13106e-06 1.60464e-07 0)
(-1.21309e-06 1.65722e-07 0)
(-1.29684e-06 1.71537e-07 0)
(-1.38294e-06 1.77708e-07 0)
(-1.47179e-06 1.83699e-07 0)
(-1.56342e-06 1.89509e-07 0)
(-1.65879e-06 1.95231e-07 0)
(-1.75863e-06 2.00872e-07 0)
(-1.86279e-06 2.06677e-07 0)
(-1.97152e-06 2.1317e-07 0)
(-2.08537e-06 2.20723e-07 0)
(-2.20418e-06 2.29461e-07 0)
(-2.32748e-06 2.39559e-07 0)
(-2.4557e-06 2.5106e-07 0)
(-2.58944e-06 2.63403e-07 0)
(-2.72854e-06 2.75659e-07 0)
(-2.87339e-06 2.87682e-07 0)
(-3.02484e-06 2.99731e-07 0)
(-3.18383e-06 3.13207e-07 0)
(-3.35116e-06 3.29308e-07 0)
(-3.5265e-06 3.47549e-07 0)
(-3.70877e-06 3.66817e-07 0)
(-3.89792e-06 3.86716e-07 0)
(-4.09501e-06 4.07052e-07 0)
(-4.30124e-06 4.28339e-07 0)
(-4.51737e-06 4.51535e-07 0)
(-4.74299e-06 4.77e-07 0)
(-4.97728e-06 5.04712e-07 0)
(-5.22015e-06 5.34037e-07 0)
(-5.47186e-06 5.64247e-07 0)
(-5.73285e-06 5.94648e-07 0)
(-6.00402e-06 6.24518e-07 0)
(-6.28646e-06 6.53737e-07 0)
(-6.58111e-06 6.82429e-07 0)
(-6.88889e-06 7.10802e-07 0)
(-7.21048e-06 7.39143e-07 0)
(-7.54627e-06 7.67701e-07 0)
(-7.89673e-06 7.96626e-07 0)
(-8.26215e-06 8.2621e-07 0)
(-8.64258e-06 8.56645e-07 0)
(-9.03799e-06 8.87883e-07 0)
(-9.44829e-06 9.19809e-07 0)
(-9.8732e-06 9.5212e-07 0)
(-1.03124e-05 9.842e-07 0)
(-1.07656e-05 1.01518e-06 0)
(-1.12326e-05 1.04427e-06 0)
(-1.17133e-05 1.07058e-06 0)
(-1.22074e-05 1.09321e-06 0)
(-1.27144e-05 1.11158e-06 0)
(-1.32336e-05 1.12545e-06 0)
(-1.37637e-05 1.13481e-06 0)
(-1.43032e-05 1.13997e-06 0)
(-1.48498e-05 1.14132e-06 0)
(-1.54008e-05 1.1391e-06 0)
(-1.59534e-05 1.13343e-06 0)
(-1.65053e-05 1.1245e-06 0)
(-1.70547e-05 1.11256e-06 0)
(-1.76002e-05 1.09801e-06 0)
(-1.81413e-05 1.08159e-06 0)
(-1.86787e-05 1.06471e-06 0)
(-1.92137e-05 1.04937e-06 0)
(-1.97485e-05 1.03789e-06 0)
(-2.02857e-05 1.0329e-06 0)
(-2.08289e-05 1.03716e-06 0)
(-2.13821e-05 1.05297e-06 0)
(-2.19499e-05 1.08196e-06 0)
(-2.25381e-05 1.12518e-06 0)
(-2.31534e-05 1.1829e-06 0)
(-2.38028e-05 1.25463e-06 0)
(-2.44929e-05 1.33925e-06 0)
(-2.52301e-05 1.43486e-06 0)
(-2.60194e-05 1.53859e-06 0)
(-2.68643e-05 1.64644e-06 0)
(-2.77665e-05 1.75323e-06 0)
(-2.87271e-05 1.85281e-06 0)
(-2.97345e-05 1.9384e-06 0)
(-3.0843e-05 2.00469e-06 0)
(-3.15042e-05 2.0212e-06 0)
(-3.41158e-05 2.0999e-06 0)
(-3.19535e-05 1.77872e-06 0)
(-3.75124e-05 1.07917e-06 0)
(5.66453e-08 -2.35612e-07 0)
(8.37687e-08 8.36955e-08 0)
(3.67742e-09 1.54827e-07 0)
(-3.45619e-08 1.57975e-07 0)
(-1.0993e-07 1.56866e-07 0)
(-1.6404e-07 1.56293e-07 0)
(-2.28289e-07 1.56982e-07 0)
(-2.90084e-07 1.57705e-07 0)
(-3.53265e-07 1.58806e-07 0)
(-4.17649e-07 1.60133e-07 0)
(-4.83294e-07 1.61955e-07 0)
(-5.49634e-07 1.64699e-07 0)
(-6.1678e-07 1.68035e-07 0)
(-6.84666e-07 1.71851e-07 0)
(-7.53572e-07 1.76173e-07 0)
(-8.2404e-07 1.80365e-07 0)
(-8.96546e-07 1.84857e-07 0)
(-9.71507e-07 1.89529e-07 0)
(-1.04863e-06 1.946e-07 0)
(-1.1281e-06 2.00526e-07 0)
(-1.20986e-06 2.06902e-07 0)
(-1.29336e-06 2.1386e-07 0)
(-1.3793e-06 2.2131e-07 0)
(-1.46814e-06 2.28668e-07 0)
(-1.55969e-06 2.36085e-07 0)
(-1.65492e-06 2.43781e-07 0)
(-1.75466e-06 2.5159e-07 0)
(-1.85857e-06 2.59758e-07 0)
(-1.96689e-06 2.68793e-07 0)
(-2.08032e-06 2.78813e-07 0)
(-2.19864e-06 2.89921e-07 0)
(-2.32138e-06 3.02248e-07 0)
(-2.44908e-06 3.16041e-07 0)
(-2.58261e-06 3.3113e-07 0)
(-2.72174e-06 3.46461e-07 0)
(-2.86656e-06 3.61913e-07 0)
(-3.01767e-06 3.77662e-07 0)
(-3.17575e-06 3.9483e-07 0)
(-3.34197e-06 4.1445e-07 0)
(-3.51656e-06 4.36271e-07 0)
(-3.69834e-06 4.59175e-07 0)
(-3.88689e-06 4.82957e-07 0)
(-4.08331e-06 5.07591e-07 0)
(-4.28855e-06 5.33354e-07 0)
(-4.50305e-06 5.61228e-07 0)
(-4.72687e-06 5.91133e-07 0)
(-4.95964e-06 6.23249e-07 0)
(-5.20131e-06 6.57112e-07 0)
(-5.45201e-06 6.91977e-07 0)
(-5.712e-06 7.27264e-07 0)
(-5.98205e-06 7.62502e-07 0)
(-6.26325e-06 7.97525e-07 0)
(-6.55655e-06 8.32432e-07 0)
(-6.86281e-06 8.67404e-07 0)
(-7.18269e-06 9.02584e-07 0)
(-7.51666e-06 9.38196e-07 0)
(-7.86517e-06 9.74407e-07 0)
(-8.22853e-06 1.01136e-06 0)
(-8.60681e-06 1.04919e-06 0)
(-9.00008e-06 1.08787e-06 0)
(-9.40829e-06 1.12721e-06 0)
(-9.83122e-06 1.16682e-06 0)
(-1.02687e-05 1.20611e-06 0)
(-1.07204e-05 1.24424e-06 0)
(-1.11864e-05 1.28038e-06 0)
(-1.16664e-05 1.31358e-06 0)
(-1.21601e-05 1.34279e-06 0)
(-1.26669e-05 1.36731e-06 0)
(-1.3186e-05 1.38678e-06 0)
(-1.37162e-05 1.40103e-06 0)
(-1.42556e-05 1.41012e-06 0)
(-1.4802e-05 1.41424e-06 0)
(-1.53527e-05 1.41356e-06 0)
(-1.5905e-05 1.40821e-06 0)
(-1.64565e-05 1.39854e-06 0)
(-1.7005e-05 1.38498e-06 0)
(-1.75493e-05 1.3682e-06 0)
(-1.80886e-05 1.34942e-06 0)
(-1.86234e-05 1.33047e-06 0)
(-1.91545e-05 1.31379e-06 0)
(-1.96842e-05 1.30221e-06 0)
(-2.0215e-05 1.29887e-06 0)
(-2.07505e-05 1.30687e-06 0)
(-2.12949e-05 1.32886e-06 0)
(-2.18532e-05 1.36687e-06 0)
(-2.24317e-05 1.4222e-06 0)
(-2.30373e-05 1.49529e-06 0)
(-2.36772e-05 1.58575e-06 0)
(-2.43589e-05 1.69233e-06 0)
(-2.50891e-05 1.81288e-06 0)
(-2.58732e-05 1.94397e-06 0)
(-2.67154e-05 2.08089e-06 0)
(-2.76181e-05 2.21749e-06 0)
(-2.85827e-05 2.34638e-06 0)
(-2.95979e-05 2.4587e-06 0)
(-3.0723e-05 2.54548e-06 0)
(-3.13853e-05 2.58031e-06 0)
(-3.40551e-05 2.62603e-06 0)
(-3.19046e-05 2.31883e-06 0)
(-3.7467e-05 1.34639e-06 0)
(5.28878e-08 -2.70761e-07 0)
(7.78892e-08 9.92659e-08 0)
(1.22184e-09 1.81605e-07 0)
(-3.61651e-08 1.87371e-07 0)
(-1.10437e-07 1.86926e-07 0)
(-1.64001e-07 1.8678e-07 0)
(-2.27893e-07 1.87764e-07 0)
(-2.89534e-07 1.88849e-07 0)
(-3.52543e-07 1.90417e-07 0)
(-4.16727e-07 1.92176e-07 0)
(-4.81982e-07 1.94577e-07 0)
(-5.47927e-07 1.97791e-07 0)
(-6.14798e-07 2.01588e-07 0)
(-6.824e-07 2.05992e-07 0)
(-7.51179e-07 2.11047e-07 0)
(-8.21594e-07 2.15984e-07 0)
(-8.93928e-07 2.21462e-07 0)
(-9.68683e-07 2.2719e-07 0)
(-1.04551e-06 2.3329e-07 0)
(-1.12465e-06 2.40305e-07 0)
(-1.20612e-06 2.47776e-07 0)
(-1.28936e-06 2.55831e-07 0)
(-1.37518e-06 2.64466e-07 0)
(-1.46392e-06 2.73237e-07 0)
(-1.55533e-06 2.82347e-07 0)
(-1.65039e-06 2.92043e-07 0)
(-1.74994e-06 3.02036e-07 0)
(-1.85355e-06 3.1248e-07 0)
(-1.9614e-06 3.23993e-07 0)
(-2.07436e-06 3.36435e-07 0)
(-2.19217e-06 3.49808e-07 0)
(-2.31422e-06 3.64318e-07 0)
(-2.44119e-06 3.80351e-07 0)
(-2.57422e-06 3.98203e-07 0)
(-2.71319e-06 4.16722e-07 0)
(-2.85782e-06 4.35601e-07 0)
(-3.00847e-06 4.55017e-07 0)
(-3.16559e-06 4.75826e-07 0)
(-3.33063e-06 4.98888e-07 0)
(-3.50431e-06 5.24249e-07 0)
(-3.68545e-06 5.50887e-07 0)
(-3.87327e-06 5.78545e-07 0)
(-4.06867e-06 6.07512e-07 0)
(-4.27284e-06 6.37752e-07 0)
(-4.48623e-06 6.70167e-07 0)
(-4.70901e-06 7.0464e-07 0)
(-4.94103e-06 7.41297e-07 0)
(-5.18195e-06 7.79746e-07 0)
(-5.43193e-06 8.19337e-07 0)
(-5.69143e-06 8.59595e-07 0)
(-5.96121e-06 9.00249e-07 0)
(-6.24228e-06 9.41127e-07 0)
(-6.53544e-06 9.82237e-07 0)
(-6.84142e-06 1.02375e-06 0)
(-7.1609e-06 1.06575e-06 0)
(-7.49437e-06 1.10839e-06 0)
(-7.8422e-06 1.15185e-06 0)
(-8.20476e-06 1.19617e-06 0)
(-8.58229e-06 1.24145e-06 0)
(-8.97487e-06 1.28765e-06 0)
(-9.38251e-06 1.33449e-06 0)
(-9.80514e-06 1.38156e-06 0)
(-1.02427e-05 1.42826e-06 0)
(-1.06951e-05 1.47376e-06 0)
(-1.11621e-05 1.51714e-06 0)
(-1.16435e-05 1.55738e-06 0)
(-1.2139e-05 1.59339e-06 0)
(-1.2648e-05 1.62426e-06 0)
(-1.31697e-05 1.64949e-06 0)
(-1.37025e-05 1.66871e-06 0)
(-1.42444e-05 1.68176e-06 0)
(-1.47932e-05 1.68865e-06 0)
(-1.53462e-05 1.68946e-06 0)
(-1.59006e-05 1.68431e-06 0)
(-1.6454e-05 1.67364e-06 0)
(-1.7004e-05 1.65811e-06 0)
(-1.75491e-05 1.63872e-06 0)
(-1.80885e-05 1.61712e-06 0)
(-1.86221e-05 1.5956e-06 0)
(-1.9151e-05 1.57706e-06 0)
(-1.96767e-05 1.56486e-06 0)
(-2.02019e-05 1.56259e-06 0)
(-2.07301e-05 1.57376e-06 0)
(-2.12659e-05 1.60138e-06 0)
(-2.18148e-05 1.64789e-06 0)
(-2.23833e-05 1.7149e-06 0)
(-2.29787e-05 1.80314e-06 0)
(-2.3609e-05 1.91239e-06 0)
(-2.42821e-05 2.04136e-06 0)
(-2.50052e-05 2.18766e-06 0)
(-2.57845e-05 2.34747e-06 0)
(-2.6625e-05 2.51541e-06 0)
(-2.75295e-05 2.68438e-06 0)
(-2.85004e-05 2.84553e-06 0)
(-2.95269e-05 2.98765e-06 0)
(-3.06723e-05 3.09819e-06 0)
(-3.13487e-05 3.15195e-06 0)
(-3.40767e-05 3.17678e-06 0)
(-3.19538e-05 2.8651e-06 0)
(-3.75561e-05 1.62658e-06 0)
(5.03133e-08 -3.04382e-07 0)
(7.43591e-08 1.14085e-07 0)
(-2.80168e-10 2.07225e-07 0)
(-3.70097e-08 2.16098e-07 0)
(-1.10563e-07 2.16532e-07 0)
(-1.63678e-07 2.17139e-07 0)
(-2.27281e-07 2.1849e-07 0)
(-2.88757e-07 2.19975e-07 0)
(-3.5158e-07 2.21967e-07 0)
(-4.15537e-07 2.24124e-07 0)
(-4.80399e-07 2.2706e-07 0)
(-5.4596e-07 2.30757e-07 0)
(-6.12513e-07 2.35064e-07 0)
(-6.79809e-07 2.40091e-07 0)
(-7.48418e-07 2.45842e-07 0)
(-8.18665e-07 2.51557e-07 0)
(-8.90789e-07 2.58006e-07 0)
(-9.65347e-07 2.64729e-07 0)
(-1.04179e-06 2.7191e-07 0)
(-1.12062e-06 2.80095e-07 0)
(-1.20182e-06 2.88707e-07 0)
(-1.28471e-06 2.98042e-07 0)
(-1.37036e-06 3.08035e-07 0)
(-1.45892e-06 3.18268e-07 0)
(-1.55e-06 3.29011e-07 0)
(-1.64486e-06 3.40502e-07 0)
(-1.74418e-06 3.52484e-07 0)
(-1.84741e-06 3.65062e-07 0)
(-1.95476e-06 3.78898e-07 0)
(-2.06726e-06 3.93837e-07 0)
(-2.18461e-06 4.09547e-07 0)
(-2.30598e-06 4.26344e-07 0)
(-2.43206e-06 4.44663e-07 0)
(-2.56435e-06 4.65263e-07 0)
(-2.70299e-06 4.87025e-07 0)
(-2.84734e-06 5.09296e-07 0)
(-2.9975e-06 5.32292e-07 0)
(-3.15373e-06 5.56674e-07 0)
(-3.31762e-06 5.83147e-07 0)
(-3.4904e-06 6.11998e-07 0)
(-3.67091e-06 6.4243e-07 0)
(-3.85819e-06 6.74018e-07 0)
(-4.05307e-06 7.07301e-07 0)
(-4.25648e-06 7.42054e-07 0)
(-4.46881e-06 7.78968e-07 0)
(-4.69045e-06 8.18092e-07 0)
(-4.92136e-06 8.59299e-07 0)
(-5.1613e-06 9.02334e-07 0)
(-5.41053e-06 9.46779e-07 0)
(-5.66959e-06 9.9217e-07 0)
(-5.93915e-06 1.03835e-06 0)
(-6.21999e-06 1.08514e-06 0)
(-6.51288e-06 1.13246e-06 0)
(-6.81854e-06 1.18052e-06 0)
(-7.13765e-06 1.22935e-06 0)
(-7.47069e-06 1.27901e-06 0)
(-7.81804e-06 1.32969e-06 0)
(-8.18006e-06 1.38144e-06 0)
(-8.55704e-06 1.43425e-06 0)
(-8.94916e-06 1.48805e-06 0)
(-9.35651e-06 1.54252e-06 0)
(-9.77914e-06 1.59724e-06 0)
(-1.02171e-05 1.65159e-06 0)
(-1.06703e-05 1.70467e-06 0)
(-1.11386e-05 1.75551e-06 0)
(-1.16219e-05 1.80305e-06 0)
(-1.21197e-05 1.84612e-06 0)
(-1.26315e-05 1.88364e-06 0)
(-1.31562e-05 1.91487e-06 0)
(-1.36922e-05 1.93924e-06 0)
(-1.42376e-05 1.95636e-06 0)
(-1.47897e-05 1.96605e-06 0)
(-1.5346e-05 1.96825e-06 0)
(-1.59035e-05 1.96313e-06 0)
(-1.64597e-05 1.95117e-06 0)
(-1.70121e-05 1.93325e-06 0)
(-1.75588e-05 1.91077e-06 0)
(-1.80985e-05 1.88582e-06 0)
(-1.86312e-05 1.86118e-06 0)
(-1.91573e-05 1.84025e-06 0)
(-1.96786e-05 1.82683e-06 0)
(-2.01975e-05 1.82497e-06 0)
(-2.07176e-05 1.83861e-06 0)
(-2.12438e-05 1.87119e-06 0)
(-2.1782e-05 1.92557e-06 0)
(-2.23392e-05 2.00376e-06 0)
(-2.29231e-05 2.10687e-06 0)
(-2.35421e-05 2.235e-06 0)
(-2.42048e-05 2.3869e-06 0)
(-2.49193e-05 2.56005e-06 0)
(-2.56923e-05 2.75025e-06 0)
(-2.65298e-05 2.95146e-06 0)
(-2.74357e-05 3.15546e-06 0)
(-2.84136e-05 3.35159e-06 0)
(-2.9454e-05 3.5264e-06 0)
(-3.06228e-05 3.66402e-06 0)
(-3.13232e-05 3.73899e-06 0)
(-3.4111e-05 3.75472e-06 0)
(-3.2029e-05 3.42933e-06 0)
(-3.77034e-05 1.92723e-06 0)
(4.95144e-08 -3.37178e-07 0)
(7.36292e-08 1.28692e-07 0)
(-6.29551e-10 2.3258e-07 0)
(-3.69806e-08 2.447e-07 0)
(-1.10224e-07 2.45939e-07 0)
(-1.63015e-07 2.47456e-07 0)
(-2.2646e-07 2.49182e-07 0)
(-2.8778e-07 2.51069e-07 0)
(-3.50422e-07 2.53425e-07 0)
(-4.14113e-07 2.55995e-07 0)
(-4.78577e-07 2.59417e-07 0)
(-5.43766e-07 2.63596e-07 0)
(-6.09935e-07 2.68451e-07 0)
(-6.76887e-07 2.74126e-07 0)
(-7.45324e-07 2.80513e-07 0)
(-8.1528e-07 2.87012e-07 0)
(-8.87109e-07 2.94449e-07 0)
(-9.61503e-07 3.02068e-07 0)
(-1.03748e-06 3.10362e-07 0)
(-1.11592e-06 3.198e-07 0)
(-1.19686e-06 3.29551e-07 0)
(-1.27931e-06 3.40263e-07 0)
(-1.36471e-06 3.51806e-07 0)
(-1.45314e-06 3.63484e-07 0)
(-1.54385e-06 3.75746e-07 0)
(-1.63838e-06 3.88958e-07 0)
(-1.73742e-06 4.02771e-07 0)
(-1.84014e-06 4.1739e-07 0)
(-1.94691e-06 4.33411e-07 0)
(-2.05893e-06 4.50878e-07 0)
(-2.17583e-06 4.69078e-07 0)
(-2.29657e-06 4.88336e-07 0)
(-2.42166e-06 5.08975e-07 0)
(-2.55299e-06 5.32211e-07 0)
(-2.69114e-06 5.57218e-07 0)
(-2.83515e-06 5.82823e-07 0)
(-2.98476e-06 6.09357e-07 0)
(-3.14025e-06 6.37287e-07 0)
(-3.30308e-06 6.67129e-07 0)
(-3.47491e-06 6.99534e-07 0)
(-3.65486e-06 7.33811e-07 0)
(-3.84168e-06 7.69395e-07 0)
(-4.03588e-06 8.0691e-07 0)
(-4.23831e-06 8.46085e-07 0)
(-4.44962e-06 8.87491e-07 0)
(-4.67012e-06 9.31189e-07 0)
(-4.89994e-06 9.76996e-07 0)
(-5.13912e-06 1.02473e-06 0)
(-5.38772e-06 1.07411e-06 0)
(-5.64622e-06 1.12474e-06 0)
(-5.91525e-06 1.17648e-06 0)
(-6.19552e-06 1.22918e-06 0)
(-6.48786e-06 1.28274e-06 0)
(-6.79296e-06 1.33733e-06 0)
(-7.11145e-06 1.39299e-06 0)
(-7.44392e-06 1.44972e-06 0)
(-7.79073e-06 1.50764e-06 0)
(-8.15218e-06 1.56681e-06 0)
(-8.52859e-06 1.62721e-06 0)
(-8.92022e-06 1.68869e-06 0)
(-9.32727e-06 1.75094e-06 0)
(-9.74989e-06 1.81347e-06 0)
(-1.01881e-05 1.87565e-06 0)
(-1.06421e-05 1.93655e-06 0)
(-1.11119e-05 1.99513e-06 0)
(-1.15972e-05 2.05023e-06 0)
(-1.20976e-05 2.10058e-06 0)
(-1.26123e-05 2.145e-06 0)
(-1.31403e-05 2.18248e-06 0)
(-1.368e-05 2.21221e-06 0)
(-1.42292e-05 2.23357e-06 0)
(-1.47854e-05 2.2461e-06 0)
(-1.53458e-05 2.24965e-06 0)
(-1.59073e-05 2.24437e-06 0)
(-1.6467e-05 2.23081e-06 0)
(-1.70223e-05 2.21007e-06 0)
(-1.75709e-05 2.18392e-06 0)
(-1.81112e-05 2.15492e-06 0)
(-1.86426e-05 2.12639e-06 0)
(-1.91655e-05 2.10223e-06 0)
(-1.96815e-05 2.08674e-06 0)
(-2.01932e-05 2.08442e-06 0)
(-2.07042e-05 2.09965e-06 0)
(-2.12196e-05 2.13642e-06 0)
(-2.17456e-05 2.19807e-06 0)
(-2.22897e-05 2.28707e-06 0)
(-2.28601e-05 2.40498e-06 0)
(-2.34659e-05 2.55221e-06 0)
(-2.41163e-05 2.72775e-06 0)
(-2.482e-05 2.92898e-06 0)
(-2.55851e-05 3.15134e-06 0)
(-2.64184e-05 3.38801e-06 0)
(-2.73251e-05 3.62946e-06 0)
(-2.83105e-05 3.86337e-06 0)
(-2.93663e-05 4.07427e-06 0)
(-3.05613e-05 4.24347e-06 0)
(-3.1293e-05 4.34452e-06 0)
(-3.41441e-05 4.36318e-06 0)
(-3.21157e-05 4.0227e-06 0)
(-3.7893e-05 2.25363e-06 0)
(5.04202e-08 -3.69703e-07 0)
(7.54407e-08 1.43645e-07 0)
(7.34681e-11 2.58328e-07 0)
(-3.62042e-08 2.73539e-07 0)
(-1.09519e-07 2.75422e-07 0)
(-1.62048e-07 2.7777e-07 0)
(-2.25453e-07 2.79879e-07 0)
(-2.86633e-07 2.82186e-07 0)
(-3.49101e-07 2.84857e-07 0)
(-4.12482e-07 2.8792e-07 0)
(-4.76527e-07 2.91811e-07 0)
(-5.41354e-07 2.96502e-07 0)
(-6.07099e-07 3.01933e-07 0)
(-6.73638e-07 3.08289e-07 0)
(-7.41883e-07 3.1531e-07 0)
(-8.11495e-07 3.22556e-07 0)
(-8.82954e-07 3.31e-07 0)
(-9.57149e-07 3.39447e-07 0)
(-1.03264e-06 3.48797e-07 0)
(-1.11063e-06 3.59444e-07 0)
(-1.19127e-06 3.70265e-07 0)
(-1.27325e-06 3.8222e-07 0)
(-1.35832e-06 3.95287e-07 0)
(-1.44658e-06 4.08431e-07 0)
(-1.53687e-06 4.22214e-07 0)
(-1.63095e-06 4.37273e-07 0)
(-1.72968e-06 4.52941e-07 0)
(-1.83184e-06 4.69513e-07 0)
(-1.93787e-06 4.87639e-07 0)
(-2.04933e-06 5.07596e-07 0)
(-2.16575e-06 5.28374e-07 0)
(-2.28592e-06 5.50222e-07 0)
(-2.41003e-06 5.73268e-07 0)
(-2.54017e-06 5.99003e-07 0)
(-2.67762e-06 6.27137e-07 0)
(-2.8212e-06 6.56081e-07 0)
(-2.9702e-06 6.86104e-07 0)
(-3.12479e-06 7.17574e-07 0)
(-3.28647e-06 7.50796e-07 0)
(-3.45706e-06 7.86726e-07 0)
(-3.63576e-06 8.24824e-07 0)
(-3.82159e-06 8.64481e-07 0)
(-4.01502e-06 9.06168e-07 0)
(-4.21667e-06 9.49732e-07 0)
(-4.42703e-06 9.95574e-07 0)
(-4.64641e-06 1.04376e-06 0)
(-4.8752e-06 1.09424e-06 0)
(-5.11349e-06 1.14673e-06 0)
(-5.36135e-06 1.20106e-06 0)
(-5.61922e-06 1.25695e-06 0)
(-5.88769e-06 1.31423e-06 0)
(-6.16738e-06 1.3728e-06 0)
(-6.45909e-06 1.43258e-06 0)
(-6.76357e-06 1.49368e-06 0)
(-7.08144e-06 1.55615e-06 0)
(-7.41327e-06 1.61993e-06 0)
(-7.75945e-06 1.68508e-06 0)
(-8.1203e-06 1.75165e-06 0)
(-8.49615e-06 1.81965e-06 0)
(-8.88734e-06 1.88889e-06 0)
(-9.29414e-06 1.95902e-06 0)
(-9.71678e-06 2.0295e-06 0)
(-1.01554e-05 2.09967e-06 0)
(-1.06103e-05 2.16864e-06 0)
(-1.10816e-05 2.23525e-06 0)
(-1.15691e-05 2.29813e-06 0)
(-1.20723e-05 2.35598e-06 0)
(-1.25903e-05 2.40754e-06 0)
(-1.31223e-05 2.45149e-06 0)
(-1.36663e-05 2.48676e-06 0)
(-1.42201e-05 2.51247e-06 0)
(-1.47811e-05 2.52792e-06 0)
(-1.53462e-05 2.53278e-06 0)
(-1.59124e-05 2.52715e-06 0)
(-1.64763e-05 2.51164e-06 0)
(-1.7035e-05 2.48758e-06 0)
(-1.75859e-05 2.4571e-06 0)
(-1.81268e-05 2.4232e-06 0)
(-1.86569e-05 2.3898e-06 0)
(-1.91764e-05 2.36135e-06 0)
(-1.96864e-05 2.34268e-06 0)
(-2.01899e-05 2.33881e-06 0)
(-2.06906e-05 2.35461e-06 0)
(-2.11937e-05 2.39465e-06 0)
(-2.17059e-05 2.46288e-06 0)
(-2.22349e-05 2.56227e-06 0)
(-2.27897e-05 2.69487e-06 0)
(-2.33799e-05 2.86148e-06 0)
(-2.40154e-05 3.06145e-06 0)
(-2.47062e-05 3.29216e-06 0)
(-2.54613e-05 3.54864e-06 0)
(-2.62891e-05 3.82315e-06 0)
(-2.71961e-05 4.10492e-06 0)
(-2.81891e-05 4.38023e-06 0)
(-2.92617e-05 4.63174e-06 0)
(-3.04852e-05 4.83837e-06 0)
(-3.12545e-05 4.97228e-06 0)
(-3.41737e-05 5.00629e-06 0)
(-3.22113e-05 4.65613e-06 0)
(-3.81215e-05 2.61336e-06 0)
(5.24529e-08 -4.03072e-07 0)
(7.89868e-08 1.58743e-07 0)
(1.64093e-09 2.84477e-07 0)
(-3.4753e-08 3.02478e-07 0)
(-1.08476e-07 3.04881e-07 0)
(-1.60799e-07 3.07816e-07 0)
(-2.24246e-07 3.1026e-07 0)
(-2.853e-07 3.12889e-07 0)
(-3.4758e-07 3.15698e-07 0)
(-4.10623e-07 3.1916e-07 0)
(-4.74234e-07 3.23367e-07 0)
(-5.38679e-07 3.28517e-07 0)
(-6.04013e-07 3.34437e-07 0)