/*--------------------------------*- C++ -*----------------------------------*\
| =========                 |                                                 |
| \\      /  F ield         | OpenFOAM: The Open Source CFD Toolbox           |
|  \\    /   O peration     | Version:  2.4.0                                 |
|   \\  /    A nd           | Web:      www.OpenFOAM.org                      |
|    \\/     M anipulation  |                                                 |
\*---------------------------------------------------------------------------*/
FoamFile
{
    version     2.0;
    format      ascii;
    class       surfaceScalarField;
    location    "0.053";
    object      phiAlpha;
}
// * * * * * * * * * * * * * * * * * * * * * * * * * * * * * * * * * * * * * //

dimensions      [0 3 -1 0 0 0 0];

internalField   nonuniform List<scalar> 
119500
(
-5.82273e-14
5.82273e-14
-1.30343e-13
7.20921e-14
-2.60533e-13
1.30177e-13
-3.88357e-13
1.27809e-13
-5.17306e-13
1.28928e-13
-6.47738e-13
1.30404e-13
-7.7781e-13
1.30034e-13
-9.08152e-13
1.30294e-13
-1.03826e-12
1.30059e-13
-1.1686e-12
1.30283e-13
-1.29984e-12
1.31183e-13
-1.43292e-12
1.33044e-13
-1.56867e-12
1.3573e-13
-1.70718e-12
1.38493e-13
-1.84809e-12
1.40917e-13
-1.99082e-12
1.42744e-13
-2.13523e-12
1.44446e-13
-2.28128e-12
1.46109e-13
-2.42983e-12
1.48637e-13
-2.58164e-12
1.51919e-13
-2.73684e-12
1.55322e-13
-2.89651e-12
1.59809e-13
-3.06035e-12
1.63962e-13
-3.22832e-12
1.68074e-13
-3.39984e-12
1.71603e-13
-3.57427e-12
1.74495e-13
-3.75073e-12
1.76503e-13
-3.92908e-12
1.78372e-13
-4.10912e-12
1.80064e-13
-4.29159e-12
1.82501e-13
-4.47762e-12
1.86075e-13
-4.66797e-12
1.90412e-13
-4.86317e-12
1.95278e-13
-5.0634e-12
2.00335e-13
-5.26819e-12
2.04897e-13
-5.47606e-12
2.07985e-13
-5.68584e-12
2.0988e-13
-5.89796e-12
2.12188e-13
-6.11436e-12
2.16447e-13
-6.33565e-12
2.21304e-13
-6.56351e-12
2.27834e-13
-6.79612e-12
2.32556e-13
-7.03322e-12
2.37038e-13
-7.27557e-12
2.42288e-13
-7.51968e-12
2.44067e-13
-7.77159e-12
2.51878e-13
-8.03051e-12
2.58912e-13
-8.29273e-12
2.62238e-13
-8.56239e-12
2.69687e-13
-8.83795e-12
2.75611e-13
-9.11568e-12
2.77789e-13
-9.39291e-12
2.773e-13
-9.66323e-12
2.70403e-13
-9.92319e-12
2.60041e-13
-1.01692e-11
2.46141e-13
-1.03949e-11
2.25769e-13
-1.05963e-11
2.01528e-13
-1.07694e-11
1.73185e-13
-1.09079e-11
1.38601e-13
-1.10077e-11
9.98806e-14
-1.1065e-11
5.74689e-14
-1.10757e-11
1.0896e-14
-1.10365e-11
-3.90698e-14
-1.09426e-11
-9.37078e-14
-1.079e-11
-1.52337e-13
-1.05761e-11
-2.13703e-13
-1.03e-11
-2.7592e-13
-9.96079e-12
-3.39044e-13
-9.55927e-12
-4.01351e-13
-9.09784e-12
-4.61264e-13
-8.58051e-12
-5.17151e-13
-8.01352e-12
-5.66783e-13
-7.40539e-12
-6.07873e-13
-6.76488e-12
-6.4018e-13
-6.09967e-12
-6.64803e-13
-5.41791e-12
-6.81289e-13
-4.72897e-12
-6.88411e-13
-4.04093e-12
-6.87477e-13
-3.36061e-12
-6.79755e-13
-2.69599e-12
-6.64092e-13
-2.05547e-12
-6.40031e-13
-1.44748e-12
-6.07561e-13
-8.80962e-13
-5.66139e-13
-3.65542e-13
-5.15063e-13
8.97769e-14
-4.54959e-13
4.77266e-13
-3.87103e-13
7.95732e-13
-3.18041e-13
1.03658e-12
-2.40388e-13
1.19531e-12
-1.58234e-13
1.26802e-12
-7.22033e-14
1.25247e-12
1.60574e-14
1.1499e-12
1.0304e-13
9.6282e-13
1.87516e-13
6.95067e-13
2.68141e-13
3.35722e-13
3.59693e-13
-3.12993e-14
3.67348e-13
-5.04847e-13
4.73881e-13
-1.16906e-12
6.64584e-13
-1.44958e-12
2.8093e-13
2.77671e-13
-1.7268e-12
3.13336e-14
2.68874e-14
-1.31514e-13
2.34895e-13
-3.42919e-13
3.41542e-13
-5.71561e-13
3.56399e-13
-7.91437e-13
3.48739e-13
-1.01077e-12
3.49655e-13
-1.2308e-12
3.49966e-13
-1.45149e-12
3.5088e-13
-1.67265e-12
3.51123e-13
-1.89457e-12
3.52111e-13
-2.11799e-12
3.54536e-13
-2.34451e-12
3.59518e-13
-2.57504e-12
3.66236e-13
-2.80995e-12
3.73414e-13
-3.04957e-12
3.80575e-13
-3.29365e-12
3.86901e-13
-3.54154e-12
3.92458e-13
-3.79372e-12
3.9844e-13
-4.05106e-12
4.06172e-13
-4.31397e-12
4.15058e-13
-4.58367e-12
4.25251e-13
-4.86106e-12
4.37411e-13
-5.1456e-12
4.48692e-13
-5.43758e-12
4.60192e-13
-5.73661e-12
4.70745e-13
-6.04075e-12
4.78703e-13
-6.35105e-12
4.86863e-13
-6.66637e-12
4.93728e-13
-6.98689e-12
5.00637e-13
-7.31486e-12
5.10536e-13
-7.6503e-12
5.21613e-13
-7.99632e-12
5.36551e-13
-8.35211e-12
5.51221e-13
-8.71905e-12
5.67439e-13
-9.09562e-12
5.81623e-13
-9.48076e-12
5.93258e-13
-9.87277e-12
6.01976e-13
-1.02736e-11
6.13071e-13
-1.06843e-11
6.27123e-13
-1.11086e-11
6.45464e-13
-1.15459e-11
6.65084e-13
-1.19969e-11
6.83391e-13
-1.24609e-11
7.00955e-13
-1.29348e-11
7.16144e-13
-1.34241e-11
7.33255e-13
-1.39313e-11
7.59137e-13
-1.44545e-11
7.82108e-13
-1.49959e-11
8.03733e-13
-1.55554e-11
8.293e-13
-1.61292e-11
8.49526e-13
-1.6715e-11
8.63747e-13
-1.73087e-11
8.71129e-13
-1.79043e-11
8.66262e-13
-1.84965e-11
8.52415e-13
-1.90799e-11
8.29787e-13
-1.96487e-11
7.94821e-13
-2.01958e-11
7.48944e-13
-2.07151e-11
6.92704e-13
-2.12009e-11
6.24687e-13
-2.16465e-11
5.45754e-13
-2.2045e-11
4.56363e-13
-2.23904e-11
3.56678e-13
-2.26761e-11
2.47055e-13
-2.28963e-11
1.26886e-13
-2.3044e-11
-4.2639e-15
-2.31134e-11
-1.43875e-13
-2.31007e-11
-2.88268e-13
-2.30023e-11
-4.3712e-13
-2.28175e-11
-5.85837e-13
-2.25477e-11
-7.30715e-13
-2.21963e-11
-8.68103e-13
-2.17699e-11
-9.92636e-13
-2.12774e-11
-1.09981e-12
-2.07291e-11
-1.18772e-12
-2.01362e-11
-1.25685e-12
-1.95106e-11
-1.30602e-12
-1.88635e-11
-1.33456e-12
-1.82067e-11
-1.34334e-12
-1.7553e-11
-1.33261e-12
-1.69151e-11
-1.30114e-12
-1.63069e-11
-1.24749e-12
-1.57438e-11
-1.17004e-12
-1.52415e-11
-1.06773e-12
-1.48162e-11
-9.39752e-13
-1.44836e-11
-7.86791e-13
-1.42591e-11
-6.10888e-13
-1.41599e-11
-4.16407e-13
-1.41956e-11
-2.0383e-13
-1.43756e-11
2.27152e-14
-1.47104e-11
2.63418e-13
-1.52022e-11
5.08691e-13
-1.58531e-11
7.54748e-13
-1.666e-11
9.95051e-13
-1.76155e-11
1.22438e-12
-1.86918e-11
1.43662e-12
-1.99439e-11
1.6201e-12
-2.11505e-11
1.68124e-12
-2.26629e-11
2.17782e-12
-2.36908e-11
1.3097e-12
6.93129e-13
-2.41052e-11
6.97027e-14
-4.28281e-14
-1.26321e-13
4.30845e-13
-3.70565e-13
5.85717e-13
-6.18472e-13
6.04228e-13
-8.65725e-13
5.95904e-13
-1.11097e-12
5.94798e-13
-1.35708e-12
5.95967e-13
-1.60443e-12
5.98113e-13
-1.85339e-12
5.9998e-13
-2.10408e-12
6.02709e-13
-2.35688e-12
6.0726e-13
-2.61271e-12
6.1531e-13
-2.87211e-12
6.2562e-13
-3.13585e-12
6.3716e-13
-3.40451e-12
6.49271e-13
-3.67844e-12
6.60911e-13
-3.95783e-12
6.71945e-13
-4.24309e-12
6.83842e-13
-4.53416e-12
6.97422e-13
-4.8318e-12
7.12883e-13
-5.1372e-12
7.30847e-13
-5.44995e-12
7.50341e-13
-5.77086e-12
7.69751e-13
-6.09981e-12
7.89254e-13
-6.43665e-12
8.07647e-13
-6.78096e-12
8.23054e-13
-7.13425e-12
8.40165e-13
-7.49545e-12
8.54915e-13
-7.86598e-12
8.71156e-13
-8.24662e-12
8.9116e-13
-8.63672e-12
9.11717e-13
-9.03929e-12
9.39136e-13
-9.45262e-12
9.64581e-13
-9.87892e-12
9.93768e-13
-1.03156e-11
1.01834e-12
-1.07643e-11
1.04196e-12
-1.12236e-11
1.06123e-12
-1.16955e-11
1.08486e-12
-1.21783e-11
1.10991e-12
-1.26772e-11
1.14418e-12
-1.31879e-11
1.17568e-12
-1.37152e-11
1.21055e-12
-1.4256e-11
1.24168e-12
-1.48085e-11
1.2685e-12
-1.5381e-11
1.30576e-12
-1.59677e-11
1.34589e-12
-1.65715e-11
1.38598e-12
-1.71973e-11
1.42958e-12
-1.78375e-11
1.46972e-12
-1.84911e-11
1.50338e-12
-1.91564e-11
1.52929e-12
-1.98291e-11
1.54409e-12
-2.05076e-11
1.54506e-12
-2.11867e-11
1.53186e-12
-2.18604e-11
1.50396e-12
-2.25247e-11
1.45949e-12
-2.31722e-11
1.3968e-12
-2.37958e-11
1.31674e-12
-2.43898e-11
1.21917e-12
-2.49463e-11
1.10274e-12
-2.54573e-11
9.67846e-13
-2.5916e-11
8.15806e-13
-2.63147e-11
6.46235e-13
-2.66462e-11
4.5888e-13
-2.69056e-11
2.55605e-13
-2.70878e-11
3.87988e-14
-2.7188e-11
-1.87763e-13
-2.72035e-11
-4.21262e-13
-2.71339e-11
-6.5509e-13
-2.69808e-11
-8.83482e-13
-2.67482e-11
-1.10042e-12
-2.6442e-11
-1.29846e-12
-2.60693e-11
-1.47202e-12
-2.56389e-11
-1.61759e-12
-2.51625e-11
-1.73262e-12
-2.46526e-11
-1.81532e-12
-2.4121e-11
-1.86552e-12
-2.35812e-11
-1.88248e-12
-2.30485e-11
-1.86471e-12
-2.25383e-11
-1.81082e-12
-2.20661e-11
-1.71914e-12
-2.1649e-11
-1.58661e-12
-2.13047e-11
-1.4115e-12
-2.10502e-11
-1.19375e-12
-2.09024e-11
-9.34048e-13
-2.08783e-11
-6.34318e-13
-2.09949e-11
-2.99182e-13
-2.12649e-11
6.6954e-14
-2.17007e-11
4.59213e-13
-2.23098e-11
8.73252e-13
-2.30989e-11
1.29847e-12
-2.40696e-11
1.72615e-12
-2.52186e-11
2.14485e-12
-2.65367e-11
2.54317e-12
-2.8004e-11
2.90462e-12
-2.96191e-11
3.23602e-12
-3.13029e-11
3.36577e-12
-3.30439e-11
3.91971e-12
-3.46125e-11
2.87919e-12
1.26872e-12
-3.51871e-11
1.78071e-15
-4.46418e-14
-1.51255e-13
5.8376e-13
-3.89401e-13
8.23752e-13
-6.41001e-13
8.5571e-13
-8.93006e-13
8.47783e-13
-1.14397e-12
8.45629e-13
-1.39562e-12
8.47484e-13
-1.64842e-12
8.50771e-13
-1.90334e-12
8.54778e-13
-2.16081e-12
8.60083e-13
-2.42128e-12
8.67656e-13
-2.68488e-12
8.7886e-13
-2.95184e-12
8.92572e-13
-3.22278e-12
9.08108e-13
-3.49825e-12
9.24785e-13
-3.77849e-12
9.4122e-13
-4.0646e-12
9.58158e-13
-4.35696e-12
9.76335e-13
-4.6556e-12
9.96222e-13
-4.96145e-12
1.0189e-12
-5.27452e-12
1.04407e-12
-5.59484e-12
1.07081e-12
-5.92353e-12
1.09855e-12
-6.26054e-12
1.12634e-12
-6.60587e-12
1.15301e-12
-6.9617e-12
1.17887e-12
-7.32646e-12
1.20487e-12
-7.70194e-12
1.23032e-12
-8.08856e-12
1.25769e-12
-8.48524e-12
1.28774e-12
-8.89411e-12
1.32048e-12
-9.31238e-12
1.3573e-12
-9.74322e-12
1.39532e-12
-1.01848e-11
1.43528e-12
-1.06393e-11
1.47268e-12
-1.11058e-11
1.50839e-12
-1.15865e-11
1.54171e-12
-1.20796e-11
1.57787e-12
-1.2587e-11
1.61707e-12
-1.3106e-11
1.66304e-12
-1.36391e-11
1.70856e-12
-1.41843e-11
1.75562e-12
-1.47437e-11
1.80098e-12
-1.5319e-11
1.84377e-12
-1.5907e-11
1.89376e-12
-1.65091e-11
1.94808e-12
-1.71255e-11
2.00259e-12
-1.77545e-11
2.0588e-12
-1.83962e-11
2.11165e-12
-1.90491e-11
2.1566e-12
-1.97113e-11
2.19196e-12
-2.03809e-11
2.21416e-12
-2.10552e-11
2.21992e-12
-2.1731e-11
2.20818e-12
-2.24034e-11
2.17693e-12
-2.30669e-11
2.12359e-12
-2.37157e-11
2.04621e-12
-2.43426e-11
1.94429e-12
-2.49398e-11
1.81704e-12
-2.54996e-11
1.66323e-12
-2.60139e-11
1.48282e-12
-2.64743e-11
1.27688e-12
-2.68733e-11
1.04585e-12
-2.72041e-11
7.90267e-13
-2.7461e-11
5.13056e-13
-2.76397e-11
2.17992e-13
-2.77366e-11
-9.04899e-14
-2.77504e-11
-4.07121e-13
-2.76809e-11
-7.24177e-13
-2.75301e-11
-1.03398e-12
-2.73019e-11
-1.32836e-12
-2.70017e-11
-1.59834e-12
-2.66364e-11
-1.83694e-12
-2.62148e-11
-2.03878e-12
-2.57477e-11
-2.1994e-12
-2.52468e-11
-2.31575e-12
-2.47257e-11
-2.38619e-12
-2.41995e-11
-2.40832e-12
-2.36834e-11
-2.38042e-12
-2.31945e-11
-2.29931e-12
-2.27499e-11
-2.16331e-12
-2.23668e-11
-1.96928e-12
-2.20627e-11
-1.71515e-12
-2.18551e-11
-1.40085e-12
-2.17611e-11
-1.0276e-12
-2.17968e-11
-5.97999e-13
-2.1978e-11
-1.17397e-13
-2.23188e-11
4.08308e-13
-2.28318e-11
9.72918e-13
-2.35256e-11
1.5677e-12
-2.4407e-11
2.1806e-12
-2.54782e-11
2.79812e-12
-2.67364e-11
3.40386e-12
-2.81728e-11
3.9804e-12
-2.97697e-11
4.50249e-12
-3.15064e-11
4.97356e-12
-3.33523e-11
5.21267e-12
-3.51624e-11
5.73073e-12
-3.69442e-11
4.66185e-12
2.02381e-12
-3.76983e-11
-1.05391e-14
-3.41637e-14
-1.72131e-13
7.45178e-13
-4.0278e-13
1.05424e-12
-6.51115e-13
1.10388e-12
-9.01712e-13
1.09821e-12
-1.15264e-12
1.09639e-12
-1.4046e-12
1.09927e-12
-1.65802e-12
1.10404e-12
-1.91384e-12
1.11045e-12
-2.17237e-12
1.11851e-12
-2.43399e-12
1.1292e-12
-2.6988e-12
1.14362e-12
-2.96692e-12
1.16068e-12
-3.23874e-12
1.17994e-12
-3.51496e-12
1.20104e-12
-3.79607e-12
1.2224e-12
-4.08298e-12
1.24515e-12
-4.37622e-12
1.26969e-12
-4.67613e-12
1.29627e-12
-4.98307e-12
1.32599e-12
-5.29715e-12
1.35828e-12
-5.61869e-12
1.39246e-12
-5.94824e-12
1.42816e-12
-6.28615e-12
1.46428e-12
-6.63316e-12
1.5e-12
-6.99036e-12
1.53601e-12
-7.35786e-12
1.57226e-12
-7.73665e-12
1.60896e-12
-8.12686e-12
1.64773e-12
-8.52851e-12
1.6892e-12
-8.94147e-12
1.73323e-12
-9.36518e-12
1.7808e-12
-9.80003e-12
1.82996e-12
-1.02463e-11
1.88136e-12
-1.07049e-11
1.93097e-12
-1.11765e-11
1.97976e-12
-1.16616e-11
2.02661e-12
-1.21605e-11
2.0765e-12
-1.26723e-11
2.12867e-12
-1.31963e-11
2.18682e-12
-1.3733e-11
2.24508e-12
-1.42816e-11
2.30409e-12
-1.48438e-11
2.36312e-12
-1.54206e-11
2.42055e-12
-1.60101e-11
2.48332e-12
-1.66112e-11
2.54932e-12
-1.72245e-11
2.61612e-12
-1.7849e-11
2.68361e-12
-1.84838e-11
2.74684e-12
-1.91284e-11
2.80168e-12
-1.97815e-11
2.84562e-12
-2.04412e-11
2.87454e-12
-2.11059e-11
2.88524e-12
-2.17721e-11
2.87519e-12
-2.24353e-11
2.84092e-12
-2.30904e-11
2.77944e-12
-2.37313e-11
2.68795e-12
-2.43506e-11
2.56447e-12
-2.49403e-11
2.40756e-12
-2.54921e-11
2.21595e-12
-2.59976e-11
1.98917e-12
-2.6448e-11
1.72808e-12
-2.68353e-11
1.43392e-12
-2.71529e-11
1.10849e-12
-2.73949e-11
7.55729e-13
-2.75571e-11
3.8069e-13
-2.76361e-11
-1.09141e-14
-2.7631e-11
-4.11802e-13
-2.75421e-11
-8.12691e-13
-2.73718e-11
-1.20403e-12
-2.71237e-11
-1.57612e-12
-2.6803e-11
-1.91871e-12
-2.64167e-11
-2.22299e-12
-2.59733e-11
-2.4819e-12
-2.54838e-11
-2.6887e-12
-2.49603e-11
-2.83897e-12
-2.44169e-11
-2.92936e-12
-2.38682e-11
-2.95678e-12
-2.3331e-11
-2.91726e-12
-2.28223e-11
-2.80776e-12
-2.23599e-11
-2.62529e-12
-2.19616e-11
-2.36719e-12
-2.16448e-11
-2.03151e-12
-2.14267e-11
-1.61852e-12
-2.13243e-11
-1.12947e-12
-2.13543e-11
-5.67453e-13
-2.15323e-11
6.11602e-14
-2.18731e-11
7.49639e-13
-2.23889e-11
1.48927e-12
-2.30894e-11
2.26892e-12
-2.3982e-11
3.07398e-12
-2.50697e-11
3.88666e-12
-2.63508e-11
4.68585e-12
-2.78166e-11
5.44721e-12
-2.94519e-11
6.13877e-12
-3.12281e-11
6.75084e-12
-3.31286e-11
7.11407e-12
-3.49794e-11
7.58255e-12
-3.67943e-11
6.4776e-12
2.69982e-12
-3.74693e-11
-1.65588e-14
-1.76972e-14
-1.83806e-13
9.12198e-13
-4.11536e-13
1.28177e-12
-6.56262e-13
1.34841e-12
-9.04521e-13
1.34627e-12
-1.15439e-12
1.34606e-12
-1.40569e-12
1.35039e-12
-1.65871e-12
1.35688e-12
-1.91414e-12
1.36573e-12
-2.17232e-12
1.37657e-12
-2.43357e-12
1.39037e-12
-2.69798e-12
1.40798e-12
-2.9658e-12
1.42846e-12
-3.23731e-12
1.45145e-12
-3.51309e-12
1.47685e-12
-3.79379e-12
1.50314e-12
-4.08035e-12
1.53177e-12
-4.37315e-12
1.56257e-12
-4.6727e-12
1.5959e-12
-4.97937e-12
1.63274e-12
-5.29308e-12
1.67206e-12
-5.61436e-12
1.71379e-12
-5.94369e-12
1.75752e-12
-6.2814e-12
1.80197e-12
-6.62842e-12
1.84696e-12
-6.98559e-12
1.89307e-12
-7.3534e-12
1.93993e-12
-7.73253e-12
1.98791e-12
-8.12325e-12
2.03823e-12
-8.52562e-12
2.09133e-12
-8.93939e-12
2.14674e-12
-9.3641e-12
2.20524e-12
-9.79994e-12
2.26552e-12
-1.02472e-11
2.32834e-12
-1.07068e-11
2.39031e-12
-1.11794e-11
2.45196e-12
-1.16656e-11
2.51255e-12
-1.21649e-11
2.5755e-12
-1.26773e-11
2.6409e-12
-1.32017e-11
2.71099e-12
-1.37382e-11
2.78146e-12
-1.42871e-11
2.85292e-12
-1.48491e-11
2.92506e-12
-1.54243e-11
2.99583e-12
-1.60125e-11
3.0716e-12
-1.6612e-11
3.14902e-12
-1.72232e-11
3.22765e-12
-1.78456e-11
3.30644e-12
-1.84781e-11
3.3798e-12
-1.91202e-11
3.44433e-12
-1.97708e-11
3.49697e-12
-2.04288e-11
3.53326e-12
-2.10921e-11
3.54941e-12
-2.17577e-11
3.54161e-12
-2.2421e-11
3.50513e-12
-2.30767e-11
3.43613e-12
-2.37187e-11
3.33091e-12
-2.43394e-11
3.1862e-12
-2.49307e-11
2.99986e-12
-2.54841e-11
2.77028e-12
-2.59905e-11
2.49659e-12
-2.64412e-11
2.17962e-12
-2.68277e-11
1.82126e-12
-2.71429e-11
1.42451e-12
-2.73811e-11
9.94544e-13
-2.75375e-11
5.37733e-13
-2.7609e-11
6.1202e-14
-2.75944e-11
-4.25945e-13
-2.7494e-11
-9.12661e-13
-2.73099e-11
-1.38764e-12
-2.70462e-11
-1.83948e-12
-2.67083e-11
-2.25632e-12
-2.63032e-11
-2.62782e-12
-2.58397e-11
-2.94522e-12
-2.53283e-11
-3.19994e-12
-2.47818e-11
-3.38531e-12
-2.42144e-11
-3.49656e-12
-2.36418e-11
-3.52916e-12
-2.30803e-11
-3.47848e-12
-2.25472e-11
-3.34051e-12
-2.20605e-11
-3.11153e-12
-2.16384e-11
-2.78891e-12
-2.12986e-11
-2.37075e-12
-2.10587e-11
-1.85795e-12
-2.09358e-11
-1.2518e-12
-2.09466e-11
-5.56116e-13
-2.11076e-11
2.22661e-13
-2.14338e-11
1.07635e-12
-2.19378e-11
1.99394e-12
-2.26305e-11
2.9623e-12
-2.35199e-11
3.96411e-12
-2.46101e-11
4.97771e-12
-2.59001e-11
5.97684e-12
-2.73826e-11
6.93072e-12
-2.90436e-11
7.80082e-12
-3.08533e-11
8.56152e-12
-3.27955e-11
9.05726e-12
-3.47062e-11
9.4941e-12
-3.65351e-11
8.30738e-12
3.37571e-12
-3.72101e-11
-2.20327e-14
4.21287e-15
-1.91533e-13
1.08142e-12
-4.17098e-13
1.50709e-12
-6.59128e-13
1.5902e-12
-9.05353e-13
1.59226e-12
-1.15406e-12
1.59454e-12
-1.40455e-12
1.60067e-12
-1.65697e-12
1.6091e-12
-1.91173e-12
1.62033e-12
-2.16924e-12
1.63395e-12
-2.42984e-12
1.65087e-12
-2.69353e-12
1.6716e-12
-2.96063e-12
1.69551e-12
-3.23154e-12
1.72233e-12
-3.50664e-12
1.75193e-12
-3.78663e-12
1.78313e-12
-4.07259e-12
1.81774e-12
-4.36477e-12
1.85477e-12
-4.6636e-12
1.89475e-12
-4.96964e-12
1.93879e-12
-5.28277e-12
1.9852e-12
-5.60352e-12
2.03452e-12
-5.93246e-12
2.08643e-12
-6.26995e-12
2.1394e-12
-6.61682e-12
2.19374e-12
-6.97378e-12
2.2499e-12
-7.34141e-12
2.30741e-12
-7.72019e-12
2.36651e-12
-8.11054e-12
2.42837e-12
-8.5125e-12
2.49306e-12
-8.92606e-12
2.56004e-12
-9.35062e-12
2.62953e-12
-9.7865e-12
2.70112e-12
-1.02338e-11
2.77534e-12
-1.06938e-11
2.85001e-12
-1.11662e-11
2.92408e-12
-1.16525e-11
2.9986e-12
-1.21515e-11
3.07421e-12
-1.26634e-11
3.15259e-12
-1.31875e-11
3.23492e-12
-1.37237e-11
3.31765e-12
-1.4272e-11
3.4011e-12
-1.48331e-11
3.48621e-12
-1.54077e-11
3.57054e-12
-1.59947e-11
3.65885e-12
-1.65941e-11
3.74865e-12
-1.72052e-11
3.83912e-12
-1.7827e-11
3.92868e-12
-1.84598e-11
4.01313e-12
-1.91031e-11
4.08821e-12
-1.97561e-11
4.15067e-12
-2.04175e-11
4.19553e-12
-2.10852e-11
4.21794e-12
-2.1756e-11
4.21328e-12
-2.24256e-11
4.1757e-12
-2.30884e-11
4.09994e-12
-2.37381e-11
3.9816e-12
-2.43671e-11
3.81624e-12
-2.4967e-11
3.60077e-12
-2.55289e-11
3.3332e-12
-2.60437e-11
3.01237e-12
-2.65022e-11
2.63906e-12
-2.68959e-11
2.21583e-12
-2.72171e-11
1.74657e-12
-2.74593e-11
1.23743e-12
-2.76174e-11
6.9651e-13
-2.76884e-11
1.32877e-13
-2.76709e-11
-4.42823e-13
-2.75649e-11
-1.01811e-12
-2.73723e-11
-1.57968e-12
-2.70972e-11
-2.11415e-12
-2.67451e-11
-2.608e-12
-2.63236e-11
-3.04902e-12
-2.58419e-11
-3.42661e-12
-2.53108e-11
-3.73081e-12
-2.47427e-11
-3.95316e-12
-2.41523e-11
-4.08671e-12
-2.35558e-11
-4.12545e-12
-2.29697e-11
-4.06413e-12
-2.24118e-11
-3.89804e-12
-2.18998e-11
-3.62302e-12
-2.14521e-11
-3.23598e-12
-2.10869e-11
-2.73538e-12
-2.08224e-11
-2.12189e-12
-2.06762e-11
-1.39736e-12
-2.06655e-11
-5.66277e-13
-2.08068e-11
3.64511e-13
-2.11159e-11
1.38598e-12
-2.16067e-11
2.48531e-12
-2.22906e-11
3.64688e-12
-2.31766e-11
4.85086e-12
-2.427e-11
6.07195e-12
-2.55711e-11
7.27877e-12
-2.70741e-11
8.43463e-12
-2.87662e-11
9.4938e-12
-3.06193e-11
1.04156e-11
-3.26147e-11
1.10534e-11
-3.46079e-11
1.14881e-11
-3.64856e-11
1.01858e-11
4.09817e-12
-3.72072e-11
-2.58032e-14
2.98673e-14
-1.9624e-13
1.25154e-12
-4.20365e-13
1.73093e-12
-6.60502e-13
1.83006e-12
-9.05171e-13
1.83667e-12
-1.15283e-12
1.84195e-12
-1.40246e-12
1.85007e-12
-1.65425e-12
1.86068e-12
-1.90831e-12
1.8742e-12
-2.16502e-12
1.8905e-12
-2.42478e-12
1.9105e-12
-2.68764e-12
1.93435e-12
-2.95382e-12
1.96159e-12
-3.22386e-12
1.99228e-12
-3.49815e-12
2.02615e-12
-3.77741e-12
2.06231e-12
-4.06266e-12
2.10292e-12
-4.35408e-12
2.14612e-12
-4.6521e-12
2.19271e-12
-4.95733e-12
2.24395e-12
-5.26976e-12
2.29756e-12
-5.58993e-12
2.35462e-12
-5.91842e-12
2.41484e-12
-6.25565e-12
2.47654e-12
-6.60231e-12
2.5403e-12
-6.95903e-12
2.60651e-12
-7.32635e-12
2.67461e-12
-7.70455e-12
2.74458e-12
-8.0943e-12
2.81796e-12
-8.49554e-12
2.89414e-12
-8.9086e-12
2.97293e-12
-9.33285e-12
3.05359e-12
-9.76851e-12
3.13659e-12
-1.02156e-11
3.22223e-12
-1.06754e-11
3.30965e-12
-1.11479e-11
3.39632e-12
-1.16337e-11
3.48419e-12
-1.21324e-11
3.57279e-12
-1.26438e-11
3.6639e-12
-1.31673e-11
3.75831e-12
-1.37033e-11
3.85366e-12
-1.42514e-11
3.94927e-12
-1.48121e-11
4.04706e-12
-1.53861e-11
4.14468e-12
-1.59726e-11
4.24552e-12
-1.65718e-11
4.34821e-12
-1.7183e-11
4.45068e-12
-1.78058e-11
4.55192e-12
-1.84403e-11
4.64814e-12
-1.90863e-11
4.73476e-12
-1.97432e-11
4.80828e-12
-2.04099e-11
4.86295e-12
-2.10841e-11
4.89289e-12
-2.17626e-11
4.89268e-12
-2.24413e-11
4.85525e-12
-2.31144e-11
4.77399e-12
-2.37753e-11
4.64342e-12
-2.44162e-11
4.45816e-12
-2.50287e-11
4.21421e-12
-2.56033e-11
3.90883e-12
-2.61305e-11
3.54053e-12
-2.66008e-11
3.11027e-12
-2.70053e-11
2.62112e-12
-2.73356e-11
2.07771e-12
-2.75849e-11
1.48749e-12
-2.77479e-11
8.60257e-13
-2.78209e-11
2.0662e-13
-2.7802e-11
-4.61038e-13
-2.76912e-11
-1.12812e-12
-2.74911e-11
-1.77917e-12
-2.72052e-11
-2.39939e-12
-2.68393e-11
-2.97335e-12
-2.6401e-11
-3.48679e-12
-2.59001e-11
-3.92702e-12
-2.53479e-11
-4.28268e-12
-2.47569e-11
-4.54374e-12
-2.4142e-11
-4.7012e-12
-2.35193e-11
-4.74766e-12
-2.2906e-11
-4.67695e-12
-2.232e-11
-4.48338e-12
-2.17797e-11
-4.16266e-12
-2.13034e-11
-3.71163e-12
-2.09094e-11
-3.12858e-12
-2.06167e-11
-2.41393e-12
-2.04435e-11
-1.56987e-12
-2.04076e-11
-6.01588e-13
-2.05259e-11
4.83423e-13
-2.08151e-11
1.67575e-12
-2.12902e-11
2.96095e-12
-2.19638e-11
4.32112e-12
-2.2846e-11
5.7337e-12
-2.39434e-11
7.17001e-12
-2.52581e-11
8.59417e-12
-2.67859e-11
9.96313e-12
-2.85156e-11
1.12241e-11
-3.0422e-11
1.23226e-11
-3.24844e-11
1.31165e-11
-3.45788e-11
1.35831e-11
-3.6542e-11
1.21498e-11
4.87666e-12
-3.73198e-11
-2.70021e-14
5.66993e-14
-1.97872e-13
1.42206e-12
-4.21552e-13
1.9543e-12
-6.60513e-13
2.06873e-12
-9.04085e-13
2.07995e-12
-1.15089e-12
2.08848e-12
-1.39973e-12
2.09864e-12
-1.65082e-12
2.11154e-12
-1.90412e-12
2.12728e-12
-2.15996e-12
2.14615e-12
-2.41869e-12
2.16906e-12
-2.68059e-12
2.19608e-12
-2.94574e-12
2.22657e-12
-3.21475e-12
2.26112e-12
-3.48813e-12
2.29937e-12
-3.76662e-12
2.34063e-12
-4.05104e-12
2.38717e-12
-4.34151e-12
2.43641e-12
-4.6387e-12
2.48974e-12
-4.94302e-12
2.54811e-12
-5.25464e-12
2.60904e-12
-5.57419e-12
2.67404e-12
-5.90214e-12
2.74269e-12
-6.23904e-12
2.81335e-12
-6.58532e-12
2.88651e-12
-6.94159e-12
2.96273e-12
-7.30853e-12
3.0415e-12
-7.68617e-12
3.12219e-12
-8.07515e-12
3.20691e-12
-8.47579e-12
3.29474e-12
-8.88806e-12
3.38516e-12
-9.31205e-12
3.47754e-12
-9.74727e-12
3.57177e-12
-1.01943e-11
3.66923e-12
-1.06536e-11
3.76881e-12
-1.1126e-11
3.86871e-12
-1.16114e-11
3.96952e-12
-1.21096e-11
4.07103e-12
-1.26205e-11
4.17476e-12
-1.31435e-11
4.28139e-12
-1.36792e-11
4.38949e-12
-1.42274e-11
4.49757e-12
-1.47881e-11
4.60797e-12
-1.53617e-11
4.71855e-12
-1.59482e-11
4.83221e-12
-1.65471e-11
4.94739e-12
-1.71587e-11
5.06265e-12
-1.77828e-11
5.17643e-12
-1.84194e-11
5.28515e-12
-1.90686e-11
5.38453e-12
-1.973e-11
5.47019e-12
-2.04023e-11
5.5359e-12
-2.10838e-11
5.57505e-12
-2.17714e-11
5.58096e-12
-2.24607e-11
5.54534e-12
-2.31462e-11
5.46021e-12
-2.38207e-11
5.31878e-12
-2.44763e-11
5.11462e-12
-2.5104e-11
4.84276e-12
-2.56941e-11
4.49976e-12
-2.62366e-11
4.08385e-12
-2.67213e-11
3.59583e-12
-2.71385e-11
3.03908e-12
-2.74796e-11
2.41961e-12
-2.77377e-11
1.7464e-12
-2.79068e-11
1.0301e-12
-2.79824e-11
2.83067e-13
-2.79626e-11
-4.79963e-13
-2.78474e-11
-1.24245e-12
-2.7639e-11
-1.9867e-12
-2.73413e-11
-2.69625e-12
-2.69604e-11
-3.3535e-12
-2.65039e-11
-3.94255e-12
-2.59817e-11
-4.44864e-12
-2.54054e-11
-4.85828e-12
-2.47885e-11
-5.1601e-12
-2.41457e-11
-5.34337e-12
-2.34933e-11
-5.39933e-12
-2.28488e-11
-5.32073e-12
-2.22308e-11
-5.10067e-12
-2.16577e-11
-4.73492e-12
-2.11484e-11
-4.22012e-12
-2.07218e-11
-3.55435e-12
-2.03968e-11
-2.73817e-12
-2.01923e-11
-1.77364e-12
-2.01269e-11
-6.66231e-13
-2.02186e-11
5.75666e-13
-2.04843e-11
1.9421e-12
-2.09405e-11
3.41761e-12
-2.16011e-11
4.9822e-12
-2.24775e-11
6.61059e-12
-2.35781e-11
8.27112e-12
-2.49069e-11
9.92341e-12
-2.64621e-11
1.15188e-11
-2.82346e-11
1.2997e-11
-3.02032e-11
1.42917e-11
-3.23471e-11
1.52609e-11
-3.45609e-11
1.57973e-11
-3.66458e-11
1.42353e-11
5.72489e-12
-3.74933e-11
-2.57427e-14
8.22533e-14
-1.96664e-13
1.59259e-12
-4.20821e-13
2.17811e-12
-6.59273e-13
2.30684e-12
-9.02143e-13
2.3225e-12
-1.14832e-12
2.33434e-12
-1.39644e-12
2.34646e-12
-1.64673e-12
2.36154e-12
-1.89912e-12
2.3794e-12
-2.15407e-12
2.40084e-12
-2.41169e-12
2.42642e-12
-2.67249e-12
2.45663e-12
-2.93655e-12
2.49038e-12
-3.2045e-12
2.52881e-12
-3.47689e-12
2.57149e-12
-3.75451e-12
2.61797e-12
-4.03804e-12
2.67042e-12
-4.32743e-12
2.72553e-12
-4.62371e-12
2.78577e-12
-4.92715e-12
2.8513e-12
-5.23782e-12
2.9195e-12
-5.55661e-12
2.99266e-12
-5.88391e-12
3.06987e-12
-6.22017e-12
3.14954e-12
-6.56588e-12
3.23219e-12
-6.92166e-12
3.31853e-12
-7.28795e-12
3.40785e-12
-7.66524e-12
3.49957e-12
-8.05332e-12
3.59509e-12
-8.45335e-12
3.6949e-12
-8.86485e-12
3.7968e-12
-9.28836e-12
3.90118e-12
-9.72312e-12
4.00666e-12
-1.017e-11
4.11623e-12
-1.06288e-11
4.22772e-12
-1.11008e-11
4.34085e-12
-1.15856e-11
4.4544e-12
-1.20831e-11
4.56871e-12
-1.25931e-11
4.68497e-12
-1.31155e-11
4.80391e-12
-1.36503e-11
4.9246e-12
-1.41984e-11
5.04589e-12
-1.47591e-11
5.16894e-12
-1.53329e-11
5.29254e-12
-1.59191e-11
5.41868e-12
-1.6518e-11
5.54661e-12
-1.71302e-11
5.67513e-12
-1.77555e-11
5.80216e-12
-1.83945e-11
5.92448e-12
-1.90473e-11
6.03774e-12
-1.97135e-11
6.13688e-12
-2.03924e-11
6.21531e-12
-2.10825e-11
6.26559e-12
-2.17805e-11
6.2795e-12
-2.24822e-11
6.24758e-12
-2.31819e-11
6.16053e-12
-2.38724e-11
6.00995e-12
-2.45452e-11
5.78814e-12
-2.51909e-11
5.48918e-12
-2.57995e-11
5.10901e-12
-2.63601e-11
4.64524e-12
-2.6862e-11
4.09841e-12
-2.72949e-11
3.47265e-12
-2.76498e-11
2.7753e-12
-2.79188e-11
2.01619e-12
-2.80949e-11
1.20711e-12
-2.81738e-11
3.62864e-13
-2.81534e-11
-4.99381e-13
-2.80336e-11
-1.36127e-12
-2.78162e-11
-2.20311e-12
-2.75049e-11
-3.0065e-12
-2.71068e-11
-3.75068e-12
-2.66293e-11
-4.41913e-12
-2.60829e-11
-4.99412e-12
-2.54794e-11
-5.46096e-12
-2.48326e-11
-5.80607e-12
-2.41578e-11
-6.01735e-12
-2.34717e-11
-6.08454e-12
-2.27918e-11
-5.9997e-12
-2.21372e-11
-5.75442e-12
-2.15267e-11
-5.34454e-12
-2.09798e-11
-4.76617e-12
-2.0516e-11
-4.01727e-12
-2.01545e-11
-3.09882e-12
-1.9914e-11
-2.01332e-12
-1.98153e-11
-7.64271e-13
-1.98763e-11
6.37317e-13
-2.01152e-11
2.1816e-12
-2.05493e-11
3.85222e-12
-2.11943e-11
5.62757e-12
-2.20635e-11
7.48006e-12
-2.31669e-11
9.37477e-12
-2.45108e-11
1.12675e-11
-2.60962e-11
1.31045e-11
-2.79169e-11
1.48179e-11
-2.99569e-11
1.6332e-11
-3.21971e-11
1.75015e-11
-3.45496e-11
1.81503e-11
-3.67919e-11
1.64782e-11
6.67832e-12
-3.77445e-11
-2.26105e-14
1.04655e-13
-1.93214e-13
1.76276e-12
-4.18446e-13
2.40295e-12
-6.56949e-13
2.54496e-12
-8.99438e-13
2.5646e-12
-1.14508e-12
2.5796e-12
-1.39254e-12
2.59356e-12
-1.64198e-12
2.61064e-12
-1.89339e-12
2.63047e-12
-2.14742e-12
2.65453e-12
-2.40395e-12
2.68262e-12
-2.66358e-12
2.7159e-12
-2.92644e-12
2.75289e-12
-3.19335e-12
2.79533e-12
-3.46471e-12
2.84247e-12
-3.74132e-12
2.8942e-12
-4.02391e-12
2.95264e-12
-4.31222e-12
3.01348e-12
-4.60739e-12
3.0806e-12
-4.90986e-12
3.15347e-12
-5.21952e-12
3.22892e-12
-5.53726e-12
3.31022e-12
-5.86381e-12
3.39631e-12
-6.19929e-12
3.48498e-12
-6.54412e-12
3.57707e-12
-6.89943e-12
3.67396e-12
-7.26492e-12
3.7735e-12
-7.64161e-12
3.87649e-12
-8.02902e-12
3.98276e-12
-8.4281e-12
4.09427e-12
-8.83899e-12
4.208e-12
-9.26163e-12
4.32413e-12
-9.69621e-12
4.44155e-12
-1.01424e-11
4.56271e-12
-1.06008e-11
4.68638e-12
-1.10719e-11
4.81231e-12
-1.15558e-11
4.93858e-12
-1.20524e-11
5.06559e-12
-1.25614e-11
5.19433e-12
-1.30828e-11
5.32559e-12
-1.36174e-11
5.45951e-12
-1.41654e-11
5.59428e-12
-1.4726e-11
5.72981e-12
-1.52992e-11
5.86609e-12
-1.58851e-11
6.00487e-12
-1.64842e-11
6.14602e-12
-1.70969e-11
6.28814e-12
-1.77235e-11
6.42909e-12
-1.83648e-11
6.56612e-12
-1.90213e-11
6.69459e-12
-1.9693e-11
6.80895e-12
-2.03795e-11
6.90212e-12
-2.10792e-11
6.96563e-12
-2.17891e-11
6.98983e-12
-2.25049e-11
6.96383e-12
-2.32208e-11
6.87694e-12
-2.39296e-11
6.71923e-12
-2.46224e-11
6.48154e-12
-2.52894e-11
6.15672e-12
-2.59195e-11
5.73973e-12
-2.65013e-11
5.22759e-12
-2.70233e-11
4.62101e-12
-2.74747e-11
3.92475e-12
-2.78456e-11
3.14693e-12
-2.81271e-11
2.29851e-12
-2.83122e-11
1.39308e-12
-2.83959e-11
4.47532e-13
-2.83752e-11
-5.19054e-13
-2.82501e-11
-1.48524e-12
-2.80231e-11
-2.42905e-12
-2.76968e-11
-3.33167e-12
-2.72793e-11
-4.16716e-12
-2.6778e-11
-4.91935e-12
-2.62043e-11
-5.5668e-12
-2.55702e-11
-6.09406e-12
-2.48896e-11
-6.48565e-12
-2.41789e-11
-6.72714e-12
-2.34546e-11
-6.80784e-12
-2.27353e-11
-6.71806e-12
-2.20397e-11
-6.44909e-12
-2.1387e-11
-5.99643e-12
-2.07974e-11
-5.35486e-12
-2.02912e-11
-4.52261e-12
-1.98878e-11
-3.50139e-12
-1.96075e-11
-2.2928e-12
-1.94699e-11
-9.01177e-13
-1.9496e-11
6.64095e-13
-1.97041e-11
2.39019e-12
-2.01124e-11
4.26101e-12
-2.07386e-11
6.25406e-12
-2.15982e-11
8.3398e-12
-2.2703e-11
1.04797e-11
-2.40622e-11
1.26268e-11
-2.56795e-11
1.47218e-11
-2.75527e-11
1.66912e-11
-2.9671e-11
1.84506e-11
-3.20194e-11
1.98503e-11
-3.45249e-11
2.06563e-11
-3.69494e-11
1.89034e-11
7.76314e-12
-3.80333e-11
-1.83176e-14
1.22738e-13
-1.88289e-13
1.93223e-12
-4.1482e-13
2.62903e-12
-6.53742e-13
2.78343e-12
-8.96086e-13
2.80649e-12
-1.14122e-12
2.82429e-12
-1.38802e-12
2.83992e-12
-1.63668e-12
2.85886e-12
-1.88717e-12
2.88054e-12
-2.14019e-12
2.90711e-12
-2.39561e-12
2.9376e-12
-2.65403e-12
2.97387e-12
-2.91557e-12
3.01396e-12
-3.18141e-12
3.06071e-12
-3.45176e-12
3.11234e-12
-3.72719e-12
3.16916e-12
-4.00858e-12
3.23358e-12
-4.29577e-12
3.30025e-12
-4.5897e-12
3.37415e-12
-4.89094e-12
3.45437e-12
-5.19965e-12
3.53737e-12
-5.5163e-12
3.62669e-12
-5.8418e-12
3.72172e-12
-6.17647e-12
3.81967e-12
-6.5203e-12
3.92101e-12
-6.87472e-12
4.02857e-12
-7.23961e-12
4.13867e-12
-7.61523e-12
4.25244e-12
-8.0021e-12
4.37002e-12
-8.40004e-12
4.49263e-12
-8.81034e-12
4.61874e-12
-9.23191e-12
4.74615e-12
-9.66606e-12
4.87613e-12
-1.01116e-11
5.00872e-12
-1.05697e-11
5.14486e-12
-1.10401e-11
5.28314e-12
-1.15236e-11
5.42245e-12
-1.202e-11
5.56246e-12
-1.2529e-11
5.70381e-12
-1.30502e-11
5.84722e-12
-1.35841e-11
5.99379e-12
-1.41312e-11
6.14179e-12
-1.46909e-11
6.28997e-12
-1.52636e-11
6.43915e-12
-1.58493e-11
6.59088e-12
-1.6448e-11
6.74513e-12
-1.7061e-11
6.90144e-12
-1.76888e-11
7.05725e-12
-1.83322e-11
7.20986e-12
-1.89923e-11
7.35509e-12
-1.96697e-11
7.48664e-12
-2.03639e-11
7.5967e-12
-2.10739e-11
7.67595e-12
-2.17967e-11
7.713e-12
-2.25279e-11
7.69541e-12
-2.32617e-11
7.61122e-12
-2.39908e-11
7.44869e-12
-2.47056e-11
7.19684e-12
-2.53955e-11
6.84709e-12
-2.60488e-11
6.39354e-12
-2.66535e-11
5.83285e-12
-2.71974e-11
5.16551e-12
-2.76686e-11
4.39663e-12
-2.80564e-11
3.53541e-12
-2.83515e-11
2.59439e-12
-2.85465e-11
1.58894e-12