/*--------------------------------*- C++ -*----------------------------------*\
| =========                 |                                                 |
| \\      /  F ield         | OpenFOAM: The Open Source CFD Toolbox           |
|  \\    /   O peration     | Version:  2.4.0                                 |
|   \\  /    A nd           | Web:      www.OpenFOAM.org                      |
|    \\/     M anipulation  |                                                 |
\*---------------------------------------------------------------------------*/
FoamFile
{
    version     2.0;
    format      ascii;
    class       volScalarField;
    location    "0.036";
    object      p;
}
// * * * * * * * * * * * * * * * * * * * * * * * * * * * * * * * * * * * * * //

dimensions      [1 -1 -2 0 0 0 0];

internalField   nonuniform List<scalar> 
3600
(
96.2936
96.2864
96.2788
96.2673
96.2528
96.2255
96.2031
96.1528
96.1267
96.0523
96.0346
95.9515
95.9712
95.9206
96.0115
96.0296
96.1676
96.1738
96.2636
96.21
96.2385
96.178
96.1703
96.1376
96.113
96.1078
96.0806
96.0884
96.0685
96.0766
93.0402
93.0378
93.03
93.0172
93.0017
92.9731
92.9496
92.8978
92.8702
92.794
92.7745
92.6895
92.7077
92.6568
92.7481
92.7683
92.9077
92.9147
93.0045
92.9508
92.9786
92.9185
92.9101
92.8779
92.8528
92.848
92.8206
92.8285
92.8086
92.8168
89.7897
89.7882
89.7814
89.7683
89.7529
89.7226
89.6986
89.6439
89.6146
89.5347
89.5124
89.4239
89.4402
89.3886
89.4813
89.5058
89.6485
89.657
89.7466
89.6922
89.719
89.659
89.65
89.6182
89.5927
89.5882
89.5606
89.5686
89.5487
89.5569
86.5511
86.5478
86.5406
86.5265
86.5104
86.4776
86.4521
86.3932
86.361
86.2755
86.2489
86.155
86.1684
86.1158
86.2111
86.2422
86.3901
86.4006
86.4898
86.4342
86.4598
86.3995
86.3899
86.3583
86.3327
86.3282
86.3007
86.3087
86.2889
86.2971
83.3179
83.3146
83.307
83.2913
83.2743
83.238
83.2104
83.1458
83.1094
83.0165
82.9838
82.8825
82.892
82.8382
82.9372
82.9775
83.1326
83.1455
83.2341
83.1768
83.2007
83.14
83.1297
83.0983
83.0726
83.0682
83.0407
83.0487
83.029
83.0371
80.0927
80.089
80.0812
80.0634
80.0453
80.0045
79.974
79.9023
79.8603
79.758
79.717
79.6063
79.6105
79.5552
79.659
79.7117
79.8762
79.892
79.9798
79.92
79.9419
79.8805
79.8696
79.8382
79.8125
79.808
79.7808
79.7886
79.7692
79.7772
76.8767
76.8728
76.8645
76.8442
76.8245
76.7782
76.744
76.6635
76.6142
76.5004
76.4486
76.3259
76.3233
76.2663
76.3763
76.4449
76.6213
76.6403
76.7267
76.6639
76.6834
76.6211
76.6094
76.5781
76.5524
76.5479
76.521
76.5286
76.5094
76.5172
73.672
73.6672
73.6585
73.635
73.6133
73.5603
73.5214
73.4303
73.3716
73.2441
73.1781
73.0411
73.0294
72.9707
73.0882
73.1771
73.3682
73.3904
73.475
73.4084
73.425
73.3616
73.3492
73.3178
73.2922
73.2876
73.2611
73.2684
73.2496
73.2572
70.4788
70.4746
70.4652
70.4377
70.4134
70.3527
70.3075
70.2042
70.1334
69.9901
69.9057
69.7511
69.7278
69.6673
69.7939
69.9084
70.1174
70.1429
70.2248
70.1535
70.1667
70.1022
70.0889
70.0574
70.032
70.0272
70.0012
70.0082
69.9898
69.9972
67.3025
67.2971
67.2868
67.254
67.2272
67.156
67.1041
66.9866
66.9007
66.7392
66.6312
66.4555
66.4173
66.3549
66.4926
66.6389
66.8698
66.8979
66.9763
66.8992
66.9086
66.8427
66.8285
66.797
66.7719
66.7668
66.7413
66.748
66.73
66.7372
64.1422
64.136
64.1253
64.0884
64.0573
63.9767
63.9132
63.7802
63.6746
63.4927
63.3545
63.1531
63.096
63.032
63.1827
63.3689
63.6252
63.6564
63.7294
63.6455
63.6505
63.5832
63.568
63.5365
63.5116
63.5063
63.4814
63.4877
63.4702
63.4771
61.0095
61.0005
60.99
60.9391
60.9079
60.8056
60.7383
60.5822
60.4567
60.2519
60.0758
59.8428
59.7621
59.6965
59.8627
60.0987
60.385
60.4188
60.4843
60.3924
60.3924
60.3236
60.3075
60.2759
60.2513
60.2457
60.2215
60.2273
60.2105
60.217
57.8874
57.878
57.8664
57.8158
57.7758
57.671
57.5765
57.4106
57.2481
57.0198
56.7951
56.5233
56.4131
56.3462
56.5301
56.829
57.1506
57.1857
57.2412
57.1397
57.1343
57.064
57.0468
57.0152
56.991
56.9852
56.9617
56.967
56.9507
56.9569
54.8174
54.8023
54.801
54.7114
54.6895
54.5313
54.4496
54.2366
54.0539
53.7944
53.5136
53.1914
53.0457
52.9777
53.1824
53.5603
53.9236
53.9577
54
53.8874
53.8761
53.8041
53.786
53.7544
53.7306
53.7245
53.7017
53.7066
53.691
53.6968
51.763
51.7374
51.7404
51.6547
51.6116
51.4608
51.3232
51.1184
50.8683
50.5908
50.2315
49.8463
49.6569
49.5882
49.8174
50.2928
50.7059
50.7357
50.761
50.6353
50.6175
50.5441
50.5251
50.4935
50.4701
50.4637
50.4418
50.4462
50.4312
50.4366
48.7249
48.7072
48.7703
48.5827
48.6153
48.3618
48.2662
47.9785
47.7092
47.3843
46.9538
46.4794
46.2409
46.1714
46.4321
47.0266
47.5001
47.5209
47.5241
47.3833
47.3587
47.2839
47.264
47.2326
47.2097
47.203
47.1819
47.1858
47.1715
47.1765
45.9547
45.8637
45.8548
45.6815
45.6373
45.3707
45.1986
44.9395
44.5509
44.245
43.685
43.0952
42.7953
42.7292
43.0222
43.7631
44.3096
44.3143
44.2893
44.1311
44.0994
44.0234
44.0027
43.9715
43.9491
43.9421
43.922
43.9253
43.9117
43.9163
42.5418
42.4759
42.988
42.5219
42.7399
42.3334
42.2146
41.8406
41.4391
41.0428
40.4394
39.6565
39.3074
39.2398
39.5817
40.502
41.138
41.1172
41.0565
40.8783
40.8393
40.7626
40.7413
40.7103
40.6885
40.6812
40.662
40.6647
40.652
40.6561
40.3509
40.4052
40.2551
40.0082
39.9279
39.4399
39.2592
38.8974
38.3716
38.0087
37.24
36.1987
35.7793
35.717
36.1056
37.2494
37.9898
37.9317
37.8255
37.6248
37.5786
37.5014
37.4797
37.4491
37.4279
37.4203
37.4021
37.4042
37.3923
37.3959
35.6329
35.1759
37.9237
36.6586
37.1363
36.5215
36.2806
35.8728
35.2209
34.7994
34.0429
32.615
32.1771
32.1146
32.582
34.0025
34.8682
34.7575
34.5953
34.3698
34.3167
34.2398
34.2178
34.1877
34.1672
34.1592
34.1421
34.1436
34.1325
34.1357
35.4657
34.839
34.2599
34.5842
34.5825
33.7797
33.6
33.007
32.4297
31.9198
31.0646
29.0303
28.5206
28.4782
29.0061
30.7662
31.7892
31.6037
31.3666
31.1127
31.0536
30.9777
30.9558
30.9261
30.9065
30.8982
30.8821
30.883
30.8727
30.8755
30.3596
31.1916
32.767
31.7393
31.4444
30.9021
30.4387
30.0757
29.1882
28.7359
27.9348
25.2502
24.7166
24.7199
25.3559
27.5355
28.7536
28.458
28.1328
27.8525
27.789
27.7152
27.6936
27.6646
27.6457
27.6371
27.6221
27.6224
27.613
27.6153
33.3136
32.5133
32.8227
30.2679
29.3236
28.2487
28.0653
27.1766
26.6476
25.9736
25.3924
21.4816
20.8097
20.9064
21.6325
24.321
25.7863
25.3537
24.9063
24.5885
24.5226
24.4521
24.4312
24.4028
24.3848
24.3759
24.3621
24.3618
24.3533
24.3551
25.9934
26.8461
29.2596
27.6606
25.9852
25.4816
24.7662
24.4573
23.4072
22.9713
22.5067
17.4401
16.6297
16.9164
17.8045
21.1165
22.886
22.2414
21.6578
21.3178
21.254
21.1884
21.1685
21.141
21.1239
21.1147
21.102
21.1011
21.0935
21.0948
31.0033
30.3188
29.034
31.1424
24.398
22.9204
22.3983
21.6709
21.0837
20.3948
20.5493
13.3975
12.1397
12.8253
13.8683
17.9335
20.0895
19.2166
18.4307
18.0429
17.9834
17.9244
17.9059
17.8791
17.863
17.8536
17.842
17.8405
17.8338
17.8346
15.4687
23.8586
27.7048
21.301
19.4054
19.7534
18.8703
19.1933
18.1021
17.9953
18.361
8.97547
7.30321
8.50207
9.78899
14.7684
17.4117
16.1601
15.1394
14.75
14.7093
14.6596
14.6428
14.617
14.6019
14.5922
14.5819
14.5798
14.574
14.5743
33.177
29.13
28.2001
22.943
15.7953
16.7587
16.5229
16.0051
15.3739
15.6631
17.0402
4.45052
1.52557
3.88539
5.54877
11.6004
14.8455
13.2515
11.9098
11.466
11.4346
11.3949
11.3802
11.3551
11.3411
11.331
11.3219
11.3191
11.3142
11.3141
29.0468
26.0334
33.8666
19.1353
8.77435
13.4181
15.6958
12.6646
12.7793
14.5974
16.8885
-0.528999
-4.47418
-0.639368
1.26626
8.52541
12.5631
10.2681
8.52292
8.12281
8.15108
8.12941
8.11645
8.09253
8.07958
8.06941
8.06162
8.05831
8.0544
8.0538
70.5663
55.5183
43.5657
18.2707
-4.26779
10.4641
10.6099
10.7968
10.2597
13.2669
16.2912
-2.25505
-10.1464
-5.70975
-3.44693
5.27766
10.2484
7.40032
5.27887
4.84228
4.87827
4.86502
4.85484
4.83104
4.81925
4.80847
4.80184
4.79778
4.79472
4.7936
42.1354
66.7078
54.6223
15.0397
-26.3869
8.77101
13.6498
7.91498
5.19555
9.50995
13.3026
0.282283
-0.573151
-1.15137
-1.87614
3.43272
8.68043
4.75304
1.72726
1.39995
1.57566
1.59853
1.58975
1.56733
1.55663
1.54626
1.54106
1.53669
1.5347
1.5332
96.0673
96.0725
96.068
96.0702
96.0684
96.0691
96.0684
96.0686
96.0683
96.0683
96.0681
96.0681
96.068
96.068
96.068
96.068
96.0679
96.0679
96.0679
96.0679
96.0679
96.0679
96.0679
96.0679
96.0679
96.0679
96.0678
96.0679
96.0678
96.0678
92.8072
92.8127
92.8081
92.8104
92.8085
92.8092
92.8085
92.8087
92.8084
92.8084
92.8083
92.8083
92.8082
92.8082
92.8081
92.8081
92.8081
92.8081
92.808
92.808
92.808
92.808
92.808
92.808
92.808
92.808
92.808
92.808
92.808
92.808
89.5473
89.5529
89.5483
89.5505
89.5486
89.5494
89.5486
89.5488
89.5485
89.5485
89.5484
89.5484
89.5483
89.5483
89.5483
89.5482
89.5482
89.5482
89.5482
89.5482
89.5482
89.5482
89.5481
89.5481
89.5481
89.5481
89.5481
89.5481
89.5481
89.5481
86.2874
86.293
86.2884
86.2906
86.2888
86.2895
86.2888
86.289
86.2887
86.2887
86.2886
86.2885
86.2885
86.2884
86.2884
86.2884
86.2884
86.2884
86.2883
86.2883
86.2883
86.2883
86.2883
86.2883
86.2883
86.2883
86.2883
86.2883
86.2883
86.2883
83.0275
83.033
83.0286
83.0307
83.0289
83.0296
83.0289
83.0291
83.0288
83.0288
83.0287
83.0287
83.0286
83.0286
83.0285
83.0285
83.0285
83.0285
83.0285
83.0284
83.0284
83.0284
83.0284
83.0284
83.0284
83.0284
83.0284
83.0284
83.0284
83.0284
79.7676
79.773
79.7688
79.7707
79.7691
79.7697
79.769
79.7692
79.7689
79.7689
79.7688
79.7688
79.7687
79.7687
79.7686
79.7686
79.7686
79.7686
79.7686
79.7686
79.7686
79.7685
79.7685
79.7685
79.7685
79.7685
79.7685
79.7685
79.7685
79.7685
76.5079
76.5131
76.509
76.5109
76.5093
76.5098
76.5092
76.5094
76.5091
76.5091
76.509
76.5089
76.5089
76.5089
76.5088
76.5088
76.5088
76.5088
76.5087
76.5087
76.5087
76.5087
76.5087
76.5087
76.5087
76.5087
76.5087
76.5087
76.5087
76.5087
73.248
73.2531
73.2492
73.2509
73.2494
73.2499
73.2493
73.2495
73.2492
73.2492
73.2491
73.2491
73.249
73.249
73.2489
73.2489
73.2489
73.2489
73.2489
73.2489
73.2488
73.2488
73.2488
73.2488
73.2488
73.2488
73.2488
73.2488
73.2488
73.2488
69.9882
69.9931
69.9893
69.991
69.9895
69.99
69.9895
69.9896
69.9893
69.9893
69.9892
69.9892
69.9891
69.9891
69.9891
69.989
69.989
69.989
69.989
69.989
69.989
69.989
69.9889
69.9889
69.9889
69.9889
69.9889
69.9889
69.9889
69.9889
66.7285
66.7331
66.7295
66.7311
66.7297
66.7302
66.7296
66.7297
66.7295
66.7295
66.7294
66.7293
66.7293
66.7293
66.7292
66.7292
66.7292
66.7292
66.7292
66.7291
66.7291
66.7291
66.7291
66.7291
66.7291
66.7291
66.7291
66.7291
66.7291
66.7291
63.4687
63.4731
63.4697
63.4711
63.4699
63.4703
63.4698
63.4698
63.4696
63.4696
63.4695
63.4695
63.4694
63.4694
63.4693
63.4693
63.4693
63.4693
63.4693
63.4693
63.4693
63.4692
63.4692
63.4692
63.4692
63.4692
63.4692
63.4692
63.4692
63.4692
60.2089
60.2131
60.2099
60.2112
60.21
60.2103
60.2099
60.2099
60.2097
60.2097
60.2096
60.2096
60.2095
60.2095
60.2095
60.2094
60.2094
60.2094
60.2094
60.2094
60.2094
60.2094
60.2094
60.2094
60.2093
60.2093
60.2093
60.2093
60.2093
60.2093
56.9491
56.9531
56.9501
56.9513
56.9502
56.9505
56.95
56.9501
56.9499
56.9499
56.9498
56.9497
56.9497
56.9497
56.9496
56.9496
56.9496
56.9496
56.9496
56.9496
56.9495
56.9495
56.9495
56.9495
56.9495
56.9495
56.9495
56.9495
56.9495
56.9495
53.6894
53.6931
53.6902
53.6913
53.6903
53.6906
53.6901
53.6902
53.69
53.69
53.6899
53.6899
53.6898
53.6898
53.6897
53.6897
53.6897
53.6897
53.6897
53.6897
53.6897
53.6897
53.6897
53.6896
53.6896
53.6896
53.6896
53.6896
53.6896
53.6896
50.4296
50.433
50.4304
50.4314
50.4304
50.4307
50.4303
50.4303
50.4301
50.4301
50.43
50.43
50.4299
50.4299
50.4299
50.4298
50.4298
50.4298
50.4298
50.4298
50.4298
50.4298
50.4298
50.4298
50.4298
50.4298
50.4297
50.4298
50.4297
50.4298
47.1698
47.173
47.1706
47.1715
47.1706
47.1708
47.1704
47.1704
47.1703
47.1702
47.1702
47.1701
47.1701
47.1701
47.17
47.17
47.17
47.17
47.17
47.17
47.17
47.1699
47.1699
47.1699
47.1699
47.1699
47.1699
47.1699
47.1699
47.1699
43.91
43.913
43.9107
43.9115
43.9107
43.9109
43.9105
43.9105
43.9104
43.9104
43.9103
43.9102
43.9102
43.9102
43.9101
43.9101
43.9101
43.9101
43.9101
43.9101
43.9101
43.9101
43.9101
43.9101
43.91
43.9101
43.91
43.9101
43.91
43.9101
40.6503
40.653
40.6508
40.6516
40.6508
40.651
40.6506
40.6506
40.6505
40.6505
40.6504
40.6504
40.6503
40.6503
40.6503
40.6503
40.6502
40.6502
40.6502
40.6502
40.6502
40.6502
40.6502
40.6502
40.6502
40.6502
40.6501
40.6502
40.6501
40.6502
37.3905
37.393
37.391
37.3917
37.391
37.3911
37.3908
37.3908
37.3907
37.3906
37.3906
37.3905
37.3905
37.3905
37.3904
37.3904
37.3904
37.3904
37.3904
37.3904
37.3904
37.3904
37.3904
37.3903
37.3903
37.3903
37.3903
37.3903
37.3903
37.3903
34.1307
34.1329
34.1312
34.1317
34.1311
34.1312
34.1309
34.1309
34.1308
34.1307
34.1307
34.1306
34.1306
34.1306
34.1306
34.1305
34.1305
34.1305
34.1305
34.1305
34.1305
34.1305
34.1305
34.1305
34.1305
34.1305
34.1304
34.1305
34.1304
34.1305
30.8709
30.8729
30.8713
30.8718
30.8712
30.8713
30.871
30.871
30.8709
30.8708
30.8708
30.8707
30.8707
30.8707
30.8707
30.8707
30.8706
30.8706
30.8706
30.8706
30.8706
30.8706
30.8706
30.8706
30.8706
30.8706
30.8705
30.8706
30.8705
30.8706
27.6112
27.6129
27.6115
27.6118
27.6113
27.6114
27.6112
27.6111
27.611
27.611
27.6109
27.6109
27.6109
27.6109
27.6108
27.6108
27.6108
27.6108
27.6108
27.6108
27.6108
27.6108
27.6108
27.6108
27.6107
27.6108
27.6107
27.6108
27.6107
27.6108
24.3514
24.3528
24.3516
24.3519
24.3514
24.3515
24.3513
24.3512
24.3511
24.3511
24.351
24.351
24.351
24.351
24.351
24.3509
24.3509
24.3509
24.3509
24.3509
24.3509
24.3509
24.3509
24.3509
24.3509
24.3509
24.3508
24.3509
24.3508
24.3509
21.0916
21.0927
21.0917
21.0919
21.0915
21.0915
21.0914
21.0913
21.0912
21.0912
21.0912
21.0911
21.0911
21.0911
21.0911
21.0911
21.091
21.091
21.091
21.091
21.091
21.091
21.091
21.091
21.091
21.091
21.0909
21.091
21.0909
21.091
17.8318
17.8327
17.8319
17.832
17.8317
17.8317
17.8315
17.8315
17.8314
17.8314
17.8313
17.8313
17.8313
17.8312
17.8312
17.8312
17.8312
17.8312
17.8312
17.8312
17.8312
17.8312
17.8312
17.8312
17.8312
17.8312
17.8311
17.8312
17.831
17.8312
14.572
14.5727
14.572
14.5721
14.5718
14.5717
14.5716
14.5716
14.5715
14.5715
14.5714
14.5714
14.5714
14.5714
14.5713
14.5713
14.5713
14.5713
14.5713
14.5713
14.5713
14.5713
14.5713
14.5713
14.5713
14.5713
14.5712
14.5713
14.5711
14.5714
11.3122
11.3127
11.3121
11.3121
11.3119
11.3118
11.3117
11.3117
11.3116
11.3116
11.3115
11.3115
11.3115
11.3115
11.3115
11.3115
11.3114
11.3114
11.3114
11.3114
11.3114
11.3114
11.3114
11.3114
11.3114
11.3114
11.3114
11.3114
11.3112
11.3115
8.05242
8.05264
8.05221
8.05219
8.05199
8.05195
8.05184
8.05181
8.05175
8.05173
8.05169
8.05167
8.05166
8.05164
8.05163
8.05162
8.05161
8.05161
8.0516
8.0516
8.05159
8.05159
8.05159
8.05158
8.05158
8.05157
8.05153
8.05158
8.0514
8.05171
4.79264
4.79264
4.79233
4.79226
4.7921
4.79205
4.79195
4.79192
4.79186
4.79184
4.79181
4.79179
4.79177
4.79176
4.79175
4.79174
4.79173
4.79172
4.79172
4.79171
4.79171
4.79171
4.79171
4.7917
4.7917
4.79169
4.79165
4.7917
4.79146
4.79176
1.53273
1.53254
1.53237
1.53227
1.53215
1.5321
1.53202
1.532
1.53195
1.53193
1.53191
1.53189
1.53188
1.53187
1.53186
1.53185
1.53185
1.53184
1.53184
1.53183
1.53183
1.53183
1.53183
1.53182
1.53183
1.53181
1.53179
1.53181
1.53162
1.53204
96.798
101.291
39.9831
-1.33058
-3.38044
0.36341
0.865652
0.271998
-0.0808552
-0.154473
-0.250149
-0.0743198
-0.00568276
-0.0157776
-0.0550812
0.740532
2.21029
0.83834
0.118027
-0.0268843
-0.0367847
-0.0633428
-0.0687661
-0.0826987
-0.0873548
-0.0935862
-0.0960688
-0.0987091
-0.0996428
-0.100599
-17.3773
3.37201
2.57498
-0.538337
-0.355577
-0.252304
-0.207614
-0.136063
-0.171755
-0.127353
-0.169596
-0.181938
-0.117848
-0.0945358
-0.101856
-0.116
-0.104036
-0.11633
-0.0932616
-0.112271
-0.0993813
-0.109817
-0.103981
-0.108168
-0.106255
-0.107736
-0.10713
-0.107797
-0.107517
-0.107844
-16.8399
-5.70744
2.01441
-2.01067
0.529376
-0.328483
-0.215591
-0.137766
-0.190555
-0.129026
-0.136633
-0.0953972
-0.0732199
-0.0791487
-0.0861834
-0.179305
-0.0998252
-0.130347
-0.101385
-0.118039
-0.106133
-0.115982
-0.110615
-0.114652
-0.112819
-0.114261
-0.113676
-0.114331
-0.114058
-0.114383
37.1648
-0.657852
0.347553
0.010425
-0.073595
-0.139384
-0.146436
-0.116053
-0.161179
-0.105159
-0.15086
-0.131351
-0.117055
-0.117158
-0.100406
-0.122447
-0.10391
-0.130128
-0.107106
-0.12606
-0.112954
-0.122822
-0.117247
-0.12119
-0.119396
-0.120811
-0.120227
-0.120879
-0.120602
-0.120927
33.02
-0.172475
-0.068478
-0.140838
-0.188818
-0.127356
-0.208235
-0.118414
-0.148498
-0.1243
-0.126533
-0.120341
-0.106641
-0.120134
-0.110832
-0.157851
-0.113102
-0.139991
-0.115368
-0.131573
-0.119896
-0.129031
-0.123927
-0.127679
-0.12598
-0.127342
-0.126778
-0.127418
-0.127145
-0.127467
10.7803
-0.17039
-0.22767
-0.198102
-0.189101
-0.114806
-0.128714
-0.0994665
-0.134103
-0.12186
-0.138356
-0.132223
-0.126212
-0.129686
-0.115819
-0.138534
-0.116881
-0.143347
-0.121654
-0.138723
-0.126843
-0.135603
-0.130635
-0.134177
-0.132572
-0.133884
-0.133332
-0.133964
-0.133691
-0.13401
0.0483013
0.0497873
-0.195276
-0.160931
-0.156225
-0.163163
-0.156003
-0.144104
-0.131552
-0.14074
-0.131889
-0.139877
-0.126224
-0.139686
-0.127866
-0.152732
-0.127801
-0.148556
-0.129867
-0.144091
-0.13391
-0.14187
-0.137372
-0.140661
-0.13917
-0.14042
-0.139887
-0.140506
-0.140237
-0.140552
0.0397235
0.0291861
-0.165664
-0.176396
-0.130511
-0.151006
-0.136619
-0.140766
-0.136238
-0.143624
-0.140047
-0.145667
-0.137228
-0.146498
-0.132164
-0.15379
-0.132637
-0.154374
-0.136711
-0.15081
-0.140973
-0.148234
-0.144129
-0.147144
-0.145775
-0.146959
-0.146446
-0.14705
-0.146784
-0.147094
0.0340071
-0.0616439
-0.116007
-0.131799
-0.149433
-0.156819
-0.145682
-0.156613
-0.142485
-0.154685
-0.142924
-0.152626
-0.141622
-0.153431
-0.142459
-0.158315
-0.142763
-0.158653
-0.144762
-0.156336
-0.148102
-0.154538
-0.150897
-0.153625
-0.152376
-0.153498
-0.153005
-0.153594
-0.153331
-0.153636
-2.18545
-0.632717
-0.0429597
-0.258729
-0.125139
-0.22959
-0.153333
-0.179895
-0.154064
-0.162461
-0.151817
-0.159361
-0.14985
-0.159987
-0.148041
-0.16422
-0.1484
-0.164829
-0.151926
-0.162529
-0.155214
-0.160841
-0.157672
-0.160109
-0.158988
-0.160039
-0.159567
-0.160138
-0.159881
-0.160178
-1.40319
-0.903273
0.0473128
-0.314006
-0.261362
-0.228412
-0.220528
-0.185419
-0.175555
-0.167648
-0.158363
-0.165
-0.155516
-0.166226
-0.156474
-0.168861
-0.158526
-0.169599
-0.159743
-0.168395
-0.162337
-0.167148
-0.164441
-0.166598
-0.165594
-0.16658
-0.166129
-0.166682
-0.166431
-0.166721
1.65185
0.0806367
1.60577
0.87842
-0.17697
-0.205912
-0.178571
-0.172278
-0.165062
-0.168774
-0.16177
-0.170455
-0.161827
-0.172311
-0.162915
-0.174757
-0.163983
-0.175413
-0.16704
-0.174382
-0.169423
-0.173469
-0.171208
-0.173094
-0.172203
-0.173123
-0.172693
-0.173226
-0.172982
-0.173263
2.76654
1.88963
2.09541
0.210232
-0.201328
-0.159171
-0.150597
-0.163062
-0.160719
-0.170258
-0.164664
-0.17564
-0.16728
-0.178432
-0.170212
-0.180425
-0.172906
-0.181064
-0.174571
-0.180425
-0.176476
-0.17982
-0.177948
-0.179601
-0.178808
-0.179667
-0.179259
-0.179771
-0.179534
-0.179806
-0.841251
-0.537489
-0.193684
-0.196886
-0.174284
-0.145809
-0.140608
-0.160328
-0.158415
-0.173481
-0.16787
-0.181427
-0.173123
-0.184588
-0.176969
-0.186288
-0.179528
-0.186878
-0.181757
-0.186542
-0.183465
-0.186203
-0.184677
-0.186117
-0.185412
-0.186213
-0.185825
-0.186315
-0.186087
-0.186348
-0.584399
-0.448964
-0.153963
-0.195454
-0.145885
-0.154803
-0.142044
-0.165042
-0.159224
-0.180244
-0.1712
-0.187651
-0.178954
-0.190924
-0.184095
-0.192355
-0.187197
-0.19287
-0.189048
-0.192754
-0.190398
-0.192627
-0.191382
-0.192642
-0.192014
-0.19276
-0.192393
-0.19286
-0.19264
-0.19289
-0.736259
-0.43678
-0.143753
-0.186016
-0.140411
-0.163244
-0.145631
-0.173188
-0.162849
-0.186488
-0.176397
-0.194164
-0.185434
-0.197364
-0.191101
-0.198555
-0.194346
-0.199003
-0.19615
-0.199055
-0.197276
-0.199087
-0.198072
-0.199177
-0.198615
-0.199308
-0.198962
-0.199405
-0.199195
-0.199433
-0.741857
-0.389989
-0.124401
-0.18706
-0.142716
-0.173772
-0.153289
-0.180878
-0.169235
-0.193433
-0.182925
-0.201069
-0.192498
-0.204039
-0.198462
-0.204928
-0.201628
-0.205289
-0.203194
-0.205446
-0.204097
-0.205582
-0.204745
-0.205719
-0.205215
-0.205857
-0.205532
-0.205949
-0.20575
-0.205975
-0.499174
-0.344187
-0.147566
-0.16901
-0.147199
-0.170783
-0.158799
-0.185552
-0.176372
-0.200612
-0.190575
-0.208374
-0.200111
-0.210936
-0.205874
-0.211445
-0.208827
-0.211696
-0.210157
-0.211909
-0.210877
-0.212103
-0.211406
-0.212268
-0.211813
-0.212407
-0.212102
-0.212494
-0.212306
-0.212518
-0.672556
-0.377216
-0.106249
-0.18336
-0.144682
-0.18099
-0.16855
-0.194976
-0.186683
-0.209747
-0.199748
-0.216537
-0.208381
-0.218149
-0.213494
-0.218124
-0.216008
-0.218216
-0.217057
-0.218431
-0.217621
-0.218647
-0.218057
-0.218823
-0.218412
-0.218958
-0.218674
-0.219039
-0.218863
-0.219061
-0.665974
-0.415548
-0.192582
-0.198903
-0.1886
-0.188359
-0.186324
-0.206208
-0.198723
-0.220669
-0.209748
-0.225506
-0.216966
-0.225696
-0.221166
-0.224943
-0.223152
-0.224815
-0.223911
-0.224995
-0.22434
-0.225207
-0.2247
-0.22538
-0.225009
-0.225509
-0.225247
-0.225583
-0.22542
-0.225603
-0.363089
-0.255805
-0.163395
-0.155565
-0.160257
-0.193242
-0.189367
-0.22187
-0.211582
-0.233716
-0.221413
-0.235464
-0.22599
-0.233605
-0.228835
-0.231895
-0.230242
-0.231475
-0.230726
-0.231587
-0.23104
-0.231777
-0.231337
-0.231941
-0.231607
-0.23206
-0.23182
-0.232128
-0.231978
-0.232146
-1.55228
-0.698508
-0.128657
-0.323093
-0.200052
-0.252726
-0.239458
-0.251314
-0.237418
-0.251039
-0.234626
-0.24642
-0.235062
-0.241774
-0.236407
-0.238931
-0.237271
-0.238168
-0.237512
-0.238195
-0.237726
-0.238355
-0.237971
-0.238504
-0.238205
-0.238612
-0.238395
-0.238673
-0.238537
-0.238689
-0.130668
-0.458883
-0.317004
-0.342341
-0.29417
-0.32839
-0.292112
-0.295694
-0.262751
-0.270752
-0.248364
-0.257763
-0.243938
-0.249977
-0.243792
-0.245985
-0.244221
-0.244872
-0.24427
-0.244811
-0.244402
-0.244937
-0.244602
-0.245067
-0.244803
-0.245164
-0.24497
-0.245217
-0.245096
-0.245231
0.528702
-0.61344
-0.263384
-0.400636
-0.314448
-0.355029
-0.346858
-0.323576
-0.290236
-0.287219
-0.260388
-0.268139
-0.252156
-0.257876
-0.250961
-0.25298
-0.25109
-0.251566
-0.251004
-0.251428
-0.251071
-0.25152
-0.25123
-0.251632
-0.251401
-0.251715
-0.251546
-0.251762
-0.251655
-0.251773
-0.54924
2.92947
-0.521681
-0.416488
-0.426299
-0.420046
-0.379915
-0.35538
-0.300606
-0.302928
-0.268079
-0.277262
-0.259467
-0.265249
-0.257895
-0.259844
-0.257878
-0.258236
-0.257715
-0.258042
-0.257734
-0.258105
-0.257859
-0.258197
-0.258
-0.258267
-0.258123
-0.258307
-0.258216
-0.258316
-2.9665
2.71329
-0.633429
-0.277997
-0.425477
-0.401223
-0.351477
-0.359768
-0.293835
-0.310273
-0.271492
-0.283807
-0.265975
-0.271873
-0.264645
-0.266518
-0.264595
-0.264871
-0.264405
-0.26465
-0.264391
-0.264689
-0.264485
-0.264761
-0.2646
-0.264819
-0.264699
-0.264851
-0.264776
-0.264859
0.32015
0.174555
-0.28181
-0.299958
-0.29342
-0.332268
-0.290336
-0.330493
-0.280699
-0.30702
-0.273717
-0.288395
-0.272078
-0.277755
-0.271276
-0.272982
-0.271254
-0.271467
-0.271075
-0.27125
-0.271043
-0.271271
-0.271112
-0.271326
-0.271199
-0.27137
-0.271277
-0.271395
-0.271336
-0.271401
-1.42322
-1.01563
-0.24448
-0.27775
-0.239401
-0.297308
-0.259065
-0.311414
-0.275126
-0.302611
-0.277607
-0.290991
-0.278023
-0.282948
-0.277856
-0.279244
-0.277876
-0.278027
-0.27773
-0.277844
-0.277693
-0.277853
-0.277738
-0.277891
-0.2778
-0.277922
-0.277855
-0.27794
-0.277897
-0.277944
-0.911941
-0.7458
-0.299596
-0.311149
-0.248589
-0.288208
-0.258688
-0.297683
-0.277932
-0.297628
-0.283227
-0.292471
-0.284358
-0.287703
-0.284447
-0.285354
-0.284472
-0.284557
-0.284371
-0.284433
-0.28434
-0.284434
-0.284364
-0.284455
-0.2844
-0.284473
-0.284433
-0.284484
-0.284458
-0.284486
-0.322711
-0.243315
-0.269557
-0.309463
-0.288405
-0.287377
-0.280568
-0.292389
-0.287451
-0.294506
-0.290298
-0.29369
-0.290945
-0.292213
-0.291055
-0.291366
-0.291057
-0.291069
-0.291005
-0.291018
-0.290985
-0.291014
-0.290989
-0.291019
-0.291
-0.291024
-0.291011
-0.291028
-0.291019
-0.291029
-0.100826
-0.100947
-0.101034
-0.1011
-0.101166
-0.101198
-0.101242
-0.101259
-0.101286
-0.101298
-0.101311
-0.101321
-0.101328
-0.101335
-0.10134
-0.101345
-0.101349
-0.101353
-0.101356
-0.101359
-0.101361
-0.101364
-0.101366
-0.101369
-0.10137
-0.101372
-0.101376
-0.101369
-0.101422
-0.101393
-0.107794
-0.107836
-0.107831
-0.107851
-0.107861
-0.107866
-0.107876
-0.107877
-0.107884
-0.107885
-0.107888
-0.10789
-0.107891
-0.107893
-0.107895
-0.107896
-0.107898
-0.107899
-0.107901
-0.107903
-0.107904
-0.107906
-0.107907
-0.107909
-0.10791
-0.107912
-0.107912
-0.107913
-0.107911
-0.107909
-0.114334
-0.114376
-0.114371
-0.114391
-0.1144
-0.114406
-0.114415
-0.114417
-0.114423
-0.114425
-0.114428
-0.11443
-0.114431
-0.114433
-0.114434
-0.114436
-0.114438
-0.114439
-0.114441
-0.114442
-0.114444
-0.114446
-0.114447
-0.114449
-0.11445
-0.114452
-0.114455
-0.114459
-0.114472
-0.114485
-0.120875
-0.120919
-0.120912
-0.120932
-0.120942
-0.120947
-0.120956
-0.120958
-0.120964
-0.120966
-0.120968
-0.12097
-0.120972
-0.120973
-0.120975
-0.120976
-0.120978
-0.12098
-0.120981
-0.120983
-0.120984
-0.120986
-0.120987
-0.120989
-0.12099
-0.120992
-0.120992
-0.120994
-0.120993
-0.120993
-0.127416
-0.127459
-0.127453
-0.127472
-0.127482
-0.127487
-0.127497
-0.127498
-0.127504
-0.127506
-0.127508
-0.12751
-0.127512
-0.127513
-0.127515
-0.127516
-0.127518
-0.12752
-0.127521
-0.127523
-0.127524
-0.127526
-0.127527
-0.127529
-0.12753
-0.127532
-0.127533
-0.127537
-0.127539
-0.127547
-0.133957
-0.134001
-0.133994
-0.134013
-0.134023
-0.134028
-0.134037
-0.134039
-0.134045
-0.134046
-0.134049
-0.13405
-0.134052
-0.134053
-0.134055
-0.134056
-0.134058
-0.13406
-0.134061
-0.134063
-0.134064
-0.134066
-0.134067
-0.134069
-0.134069
-0.134071
-0.134072
-0.134074
-0.134072
-0.134074
-0.140499
-0.140543
-0.140535
-0.140555
-0.140564
-0.140569
-0.140578
-0.140579
-0.140585
-0.140587
-0.140589
-0.140591
-0.140593
-0.140594
-0.140596
-0.140597
-0.140599
-0.1406
-0.140602
-0.140603
-0.140605
-0.140606
-0.140607
-0.140609
-0.14061
-0.140612
-0.140612
-0.140615
-0.140613
-0.140619
-0.147041
-0.147084
-0.147077
-0.147096
-0.147105
-0.147109
-0.147118
-0.14712
-0.147126
-0.147127
-0.14713
-0.147131
-0.147133
-0.147134
-0.147136
-0.147137
-0.147139
-0.14714
-0.147142
-0.147143
-0.147145
-0.147146
-0.147147
-0.147149
-0.147149
-0.147151
-0.147151
-0.147154
-0.147151
-0.147154
-0.153583
-0.153626
-0.153618
-0.153637
-0.153646
-0.15365
-0.153659
-0.15366
-0.153666
-0.153667
-0.15367
-0.153672
-0.153673
-0.153674
-0.153676
-0.153677
-0.153679
-0.15368
-0.153682
-0.153683
-0.153685
-0.153686
-0.153687
-0.153689
-0.153689
-0.153691
-0.153691
-0.153694
-0.153691
-0.153695
-0.160126
-0.160168
-0.160161
-0.160178
-0.160187
-0.160191
-0.1602
-0.160201
-0.160207
-0.160208
-0.160211
-0.160212
-0.160214
-0.160215
-0.160216
-0.160218
-0.160219
-0.160221
-0.160222
-0.160224
-0.160225
-0.160226
-0.160227
-0.160229
-0.160229
-0.160231
-0.160231
-0.160233
-0.16023
-0.160233
-0.166669
-0.16671
-0.166703
-0.16672
-0.166728
-0.166732
-0.166741
-0.166742
-0.166748
-0.166749
-0.166751
-0.166753
-0.166754
-0.166755
-0.166757
-0.166758
-0.166759
-0.166761
-0.166762
-0.166764
-0.166765
-0.166766
-0.166767
-0.166769
-0.166769
-0.166771
-0.16677
-0.166773
-0.16677
-0.166773
-0.173212
-0.173252
-0.173245
-0.173261
-0.17327
-0.173273
-0.173282
-0.173283
-0.173288
-0.173289
-0.173292
-0.173293
-0.173294
-0.173296
-0.173297
-0.173298
-0.1733
-0.173301
-0.173302
-0.173304
-0.173305
-0.173306
-0.173307
-0.173309
-0.173309
-0.173311
-0.17331
-0.173312
-0.173309
-0.173312
-0.179756
-0.179795
-0.179788
-0.179803
-0.179811
-0.179815
-0.179823
-0.179824
-0.179829
-0.17983
-0.179833
-0.179834
-0.179835
-0.179837
-0.179838
-0.179839
-0.17984
-0.179842
-0.179843
-0.179844
-0.179845
-0.179847
-0.179848
-0.179849
-0.179849
-0.179851
-0.17985
-0.179852
-0.17985
-0.179852
-0.186299
-0.186337
-0.18633
-0.186345
-0.186353
-0.186356
-0.186364
-0.186365
-0.18637
-0.186371
-0.186373
-0.186375
-0.186376
-0.186377
-0.186378
-0.186379
-0.186381
-0.186382
-0.186383
-0.186384
-0.186385
-0.186387
-0.186387
-0.186389
-0.186389
-0.18639
-0.18639
-0.186392
-0.18639
-0.186392
-0.192843
-0.192879
-0.192873
-0.192887
-0.192894
-0.192898
-0.192905
-0.192906
-0.192911
-0.192912
-0.192914
-0.192915
-0.192916
-0.192917
-0.192919
-0.19292
-0.192921
-0.192922
-0.192923
-0.192924
-0.192925
-0.192927
-0.192927
-0.192928
-0.192929
-0.19293
-0.192929
-0.192931
-0.192929
-0.192931
-0.199388
-0.199422
-0.199416
-0.19943
-0.199437
-0.19944
-0.199447
-0.199448
-0.199452
-0.199453
-0.199455
-0.199456
-0.199457
-0.199458
-0.199459
-0.199461
-0.199462
-0.199463
-0.199464
-0.199465
-0.199466
-0.199467
-0.199468
-0.199469
-0.199469
-0.19947
-0.19947
-0.199471
-0.19947
-0.199471
-0.205932
-0.205965
-0.205959
-0.205972
-0.205978
-0.205981
-0.205988
-0.205989
-0.205993
-0.205994
-0.205996
-0.205997
-0.205998
-0.205999
-0.206
-0.206001
-0.206002
-0.206003
-0.206004
-0.206005
-0.206006
-0.206007
-0.206008
-0.206009
-0.206009
-0.20601
-0.20601
-0.206011
-0.20601
-0.206011
-0.212477
-0.212508
-0.212502
-0.212514
-0.21252
-0.212523
-0.212529
-0.21253
-0.212534
-0.212534
-0.212536
-0.212537
-0.212538
-0.212539
-0.21254
-0.212541
-0.212542
-0.212543
-0.212544
-0.212545
-0.212546
-0.212547
-0.212548
-0.212549
-0.212549
-0.21255
-0.212549
-0.21255
-0.212549
-0.212551
-0.219023
-0.219051
-0.219046
-0.219057
-0.219063
-0.219065
-0.219071
-0.219072
-0.219075
-0.219076
-0.219078
-0.219079
-0.21908
-0.21908
-0.219081
-0.219082
-0.219083
-0.219084
-0.219085
-0.219086
-0.219087
-0.219088
-0.219088
-0.219089
-0.219089
-0.21909
-0.21909
-0.219091
-0.21909
-0.219091
-0.225568
-0.225594
-0.225589
-0.225599
-0.225605
-0.225607
-0.225612
-0.225613
-0.225616
-0.225617
-0.225618
-0.225619
-0.22562
-0.225621
-0.225622
-0.225623
-0.225624
-0.225624
-0.225625
-0.225626
-0.225627
-0.225628
-0.225628
-0.225629
-0.225629
-0.22563
-0.22563
-0.22563
-0.22563
-0.225631
-0.232113
-0.232137
-0.232133
-0.232142
-0.232147
-0.232149
-0.232154
-0.232154
-0.232157
-0.232158
-0.232159
-0.23216
-0.232161
-0.232162
-0.232162
-0.232163
-0.232164
-0.232165