/*--------------------------------*- C++ -*----------------------------------*\
| =========                 |                                                 |
| \\      /  F ield         | OpenFOAM: The Open Source CFD Toolbox           |
|  \\    /   O peration     | Version:  2.4.0                                 |
|   \\  /    A nd           | Web:      www.OpenFOAM.org                      |
|    \\/     M anipulation  |                                                 |
\*---------------------------------------------------------------------------*/
FoamFile
{
    version     2.0;
    format      ascii;
    class       surfaceScalarField;
    location    "0.036";
    object      phi;
}
// * * * * * * * * * * * * * * * * * * * * * * * * * * * * * * * * * * * * * //

dimensions      [0 3 -1 0 0 0 0];

internalField   nonuniform List<scalar> 
7080
(
-7.09843e-13
7.09756e-13
-3.72125e-12
3.01181e-12
-1.02506e-11
6.53123e-12
-2.10489e-11
1.0801e-11
-3.6869e-11
1.58255e-11
-5.978e-11
2.292e-11
-8.89459e-11
2.91731e-11
-1.29475e-10
4.05339e-11
-1.73055e-10
4.35907e-11
-2.33562e-10
6.05145e-11
-2.8298e-10
4.94264e-11
-3.50984e-10
6.80083e-11
-3.74664e-10
2.36971e-11
-4.03778e-10
2.91225e-11
-3.45943e-10
-5.78256e-11
-2.79468e-10
-6.64651e-11
-1.47146e-10
-1.32314e-10
-4.69667e-11
-1.00173e-10
4.21143e-11
-8.90769e-11
9.32792e-11
-5.11591e-11
1.10959e-10
-1.76809e-11
1.14141e-10
-3.17396e-12
9.90966e-11
1.50352e-11
8.40907e-11
1.50212e-11
6.39242e-11
2.01486e-11
4.75418e-11
1.6404e-11
3.25885e-11
1.4931e-11
2.1333e-11
1.12772e-11
1.28622e-11
8.45211e-12
6.03051e-12
6.8465e-12
-1.2768e-12
1.98709e-12
-5.61727e-12
7.35421e-12
-1.38732e-11
1.47915e-11
-2.71949e-11
2.41287e-11
-4.63109e-11
3.49513e-11
-7.31202e-11
4.97446e-11
-1.06446e-10
6.25117e-11
-1.5149e-10
8.55899e-11
-1.99147e-10
9.12659e-11
-2.63518e-10
1.249e-10
-3.13541e-10
9.94661e-11
-3.8074e-10
1.35218e-10
-3.95512e-10
3.84935e-11
-4.13282e-10
4.69079e-11
-3.34857e-10
-1.36235e-10
-2.48504e-10
-1.52804e-10
-9.80471e-11
-2.82759e-10
1.49195e-11
-2.13129e-10
1.06331e-10
-1.80486e-10
1.53686e-10
-9.85008e-11
1.63951e-10
-2.79545e-11
1.58191e-10
2.60677e-12
1.33732e-10
3.94688e-11
1.10195e-10
3.85941e-11
8.27949e-11
4.75095e-11
6.0473e-11
3.87683e-11
4.10955e-11
3.42682e-11
2.65494e-11
2.58591e-11
1.61335e-11
1.88394e-11
1.32087e-11
8.98132e-12
-1.29454e-12
3.28205e-12
-5.68783e-12
1.17491e-11
-1.38486e-11
2.2956e-11
-2.69312e-11
3.72165e-11
-4.57412e-11
5.37701e-11
-7.24368e-11
7.6454e-11
-1.05737e-10
9.58231e-11
-1.51206e-10
1.31069e-10
-1.99057e-10
1.39133e-10
-2.64287e-10
1.90142e-10
-3.14264e-10
1.49458e-10
-3.82034e-10
2.02998e-10
-3.95472e-10
5.19549e-11
-4.11225e-10
6.26743e-11
-3.28438e-10
-2.19009e-10
-2.36287e-10
-2.44941e-10
-8.23888e-11
-4.36647e-10
3.17012e-11
-3.27208e-10
1.21616e-10
-2.704e-10
1.66043e-10
-1.42914e-10
1.73295e-10
-3.52159e-11
1.64898e-10
1.10252e-11
1.38542e-10
6.57995e-11
1.13458e-10
6.37129e-11
8.5011e-11
7.5918e-11
6.19056e-11
6.19157e-11
4.1998e-11
5.41359e-11
2.70072e-11
4.08854e-11
1.64696e-11
2.93486e-11
1.87809e-11
1.09235e-11
-1.13633e-12
4.41884e-12
-5.31029e-12
1.59247e-11
-1.34361e-11
3.10856e-11
-2.66945e-11
5.04801e-11
-4.58573e-11
7.29417e-11
-7.33354e-11
1.03946e-10
-1.07528e-10
1.30027e-10
-1.54702e-10
1.78252e-10
-2.0391e-10
1.88358e-10
-2.71934e-10
2.58178e-10
-3.23496e-10
2.01033e-10
-3.94181e-10
2.73691e-10
-4.07734e-10
6.55305e-11
-4.22562e-10
7.75147e-11
-3.34734e-10
-3.06823e-10
-2.35145e-10
-3.44517e-10
-7.61607e-11
-5.95622e-10
4.04027e-11
-4.43761e-10
1.28696e-10
-3.58692e-10
1.71044e-10
-1.85249e-10
1.76048e-10
-4.02297e-11
1.66307e-10
2.07869e-11
1.39148e-10
9.2933e-11
1.13663e-10
8.92332e-11
8.50554e-11
1.04487e-10
6.18338e-11
8.51786e-11
4.19164e-11
7.4014e-11
2.69802e-11
5.58566e-11
1.63148e-11
3.99861e-11
2.56565e-11
9.46523e-12
-1.22647e-12
5.64577e-12
-5.58964e-12
2.02895e-11
-1.40458e-11
3.95457e-11
-2.78816e-11
6.43214e-11
-4.77629e-11
9.28321e-11
-7.64633e-11
1.32661e-10
-1.11933e-10
1.65509e-10
-1.61474e-10
2.27802e-10
-2.1259e-10
2.3949e-10
-2.84573e-10
3.30173e-10
-3.38404e-10
2.54878e-10
-4.13229e-10
3.48523e-10
-4.26989e-10
7.93137e-11
-4.40541e-10
9.10787e-11
-3.45751e-10
-4.016e-10
-2.35835e-10
-4.54421e-10
-6.96988e-11
-7.61747e-10
5.04148e-11
-5.63864e-10
1.36614e-10
-4.4489e-10
1.76405e-10
-2.25027e-10
1.78612e-10
-4.24459e-11
1.6732e-10
3.20991e-11
1.39312e-10
1.20916e-10
1.13467e-10
1.15113e-10
8.47843e-11
1.33132e-10
6.1559e-11
1.08444e-10
4.1702e-11
9.38327e-11
2.6833e-11
7.07598e-11
1.62024e-11
5.05892e-11
3.27284e-11
9.1561e-12
-1.32145e-12
6.96769e-12
-5.95184e-12
2.49217e-11
-1.48561e-11
4.8454e-11
-2.94346e-11
7.89056e-11
-5.02711e-11
1.13678e-10
-8.0559e-11
1.62964e-10
-1.17643e-10
2.02605e-10
-1.70225e-10
2.80393e-10
-2.23811e-10
2.93092e-10
-3.00917e-10
4.07291e-10
-3.57754e-10
3.11728e-10
-4.37922e-10
4.287e-10
-4.52046e-10
9.3461e-11
-4.63816e-10
1.02861e-10
-3.59897e-10
-5.05507e-10
-2.36391e-10
-5.77916e-10
-6.1162e-11
-9.36967e-10
6.32852e-11
-6.88301e-10
1.46579e-10
-5.28183e-10
1.83003e-10
-2.61438e-10
1.81672e-10
-4.11248e-11
1.68458e-10
4.53338e-11
1.39425e-10
1.49924e-10
1.13157e-10
1.41414e-10
8.44005e-11
1.61853e-10
6.11924e-11
1.31692e-10
4.14216e-11
1.13566e-10
2.66318e-11
8.55831e-11
1.6078e-11
6.11161e-11
3.97443e-11
9.08736e-12
-1.42242e-12
8.3906e-12
-6.35262e-12
2.98536e-11
-1.57903e-11
5.7896e-11
-3.12826e-11
9.44038e-11
-5.32834e-11
1.35688e-10
-8.55092e-11
1.95205e-10
-1.24605e-10
2.41714e-10
-1.80917e-10
3.36714e-10
-2.37533e-10
3.49725e-10
-3.21025e-10
4.90795e-10
-3.81716e-10
3.72432e-10
-4.68561e-10
5.15552e-10
-4.83282e-10
1.08206e-10
-4.92628e-10
1.12218e-10
-3.77191e-10
-6.20932e-10
-2.36398e-10
-7.18697e-10
-5.00504e-11
-1.1233e-09
7.94092e-11
-8.1775e-10
1.58786e-10
-6.07559e-10
1.90901e-10
-2.93541e-10
1.85262e-10
-3.54957e-11
1.69748e-10
6.08676e-11
1.39517e-10
1.80131e-10
1.12763e-10
1.68202e-10
8.39278e-11
1.90652e-10
6.0747e-11
1.54911e-10
4.10833e-11
1.33193e-10
2.63885e-11
1.0031e-10
1.59297e-11
7.15489e-11
4.67063e-11
8.99223e-12
-1.61707e-12
1.00082e-11
-6.93699e-12
3.51754e-11
-1.69504e-11
6.79138e-11
-3.35142e-11
1.10974e-10
-5.68825e-11
1.59067e-10
-9.13702e-11
2.29709e-10
-1.32763e-10
2.83119e-10
-1.93542e-10
3.97503e-10
-2.53828e-10
4.10027e-10
-3.45087e-10
5.82066e-10
-4.10663e-10
4.38023e-10
-5.0566e-10
6.10555e-10
-5.21373e-10
1.23944e-10
-5.27524e-10
1.1838e-10
-3.97864e-10
-7.50578e-10
-2.35488e-10
-8.81061e-10
-3.59046e-11
-1.32288e-09
9.91279e-11
-9.52771e-10
1.73343e-10
-6.81773e-10
2.00077e-10
-3.20262e-10
1.89341e-10
-2.47694e-11
1.7116e-10
7.90676e-11
1.39576e-10
2.11692e-10
1.12278e-10
1.95532e-10
8.3365e-11
2.1953e-10
6.02223e-11
1.78091e-10
4.0687e-11
1.52693e-10
2.6104e-11
1.14925e-10
1.5755e-11
8.18724e-11
5.35846e-11
8.90061e-12
-1.73086e-12
1.17395e-11
-7.4925e-12
4.09389e-11
-1.82518e-11
7.86777e-11
-3.60907e-11
1.28819e-10
-6.10545e-11
1.84041e-10
-9.81256e-11
2.66798e-10
-1.42171e-10
3.27178e-10
-2.08194e-10
4.63535e-10
-2.7277e-10
4.7462e-10
-3.73305e-10
6.82613e-10
-4.45017e-10
5.09748e-10
-5.49835e-10
7.15378e-10
-5.67123e-10
1.41258e-10
-5.69096e-10
1.20364e-10
-4.22138e-10
-8.97523e-10
-2.33177e-10
-1.07001e-09
-1.82128e-11
-1.53783e-09
1.22833e-10
-1.09381e-09
1.90349e-10
-7.49289e-10
2.10464e-10
-3.40365e-10
1.93829e-10
-8.14385e-12
1.72635e-10
1.00281e-10
1.39569e-10
2.44735e-10
1.11686e-10
2.23446e-10
8.27019e-11
2.48481e-10
5.96121e-11
2.01217e-10
4.02287e-11
1.72042e-10
2.57762e-11
1.29408e-10
1.55519e-11
9.2072e-11
6.03808e-11
8.77882e-12
-1.86418e-12
1.36043e-11
-8.16807e-12
4.72447e-11
-1.98335e-11
9.0348e-11
-3.93055e-11
1.48297e-10
-6.5928e-11
2.10675e-10
-1.05962e-10
3.0685e-10
-1.52866e-10
3.74096e-10
-2.24864e-10
5.35543e-10
-2.94443e-10
5.44216e-10
-4.05929e-10
7.9411e-10
-4.85351e-10
5.89184e-10
-6.01908e-10
8.3194e-10
-6.21618e-10
1.60994e-10
-6.1822e-10
1.16978e-10
-4.50428e-10
-1.0653e-09
-2.28897e-10
-1.29153e-09
3.8605e-12
-1.77058e-09
1.51001e-10
-1.24094e-09
2.09943e-10
-8.0823e-10
2.22014e-10
-3.52423e-10
1.98671e-10
1.51902e-11
1.74139e-10
1.2483e-10
1.39487e-10
2.79364e-10
1.10988e-10
2.51975e-10
8.19433e-11
2.77492e-10
5.89211e-11
2.24275e-10
3.97121e-11
1.91218e-10
2.54078e-11
1.43742e-10
1.53217e-11
1.02134e-10
6.70848e-11
8.63987e-12
-2.07835e-12
1.56832e-11
-9.16928e-12
5.43375e-11
-2.21473e-11
1.03331e-10
-4.32014e-11
1.69358e-10
-7.1545e-11
2.3903e-10
-1.13962e-10
3.49287e-10
-1.64184e-10
4.24332e-10
-2.43464e-10
6.14831e-10
-3.18823e-10
6.19594e-10
-4.43147e-10
9.18446e-10
-5.32339e-10
6.78388e-10
-6.6287e-10
9.62474e-10
-6.86168e-10
1.8432e-10
-6.75885e-10
1.06705e-10
-4.83259e-10
-1.25792e-09
-2.21873e-10
-1.55291e-09
3.34441e-11
-2.02589e-09
1.84204e-10
-1.39168e-09
2.32246e-10
-8.56272e-10
2.34636e-10
-3.54801e-10
2.03771e-10
4.60463e-11
1.75612e-10
1.53007e-10
1.39305e-10
3.15649e-10
1.10174e-10
2.81136e-10
8.10862e-11
3.06548e-10
5.81487e-11
2.47246e-10
3.91368e-11
2.10198e-10
2.49989e-11
1.57908e-10
1.50644e-11
1.12046e-10
7.3688e-11
8.48243e-12
-2.21617e-12
1.79e-11
-9.84404e-12
6.19673e-11
-2.32037e-11
1.16696e-10
-4.65249e-11
1.92686e-10
-7.59797e-11
2.68496e-10
-1.24255e-10
3.97582e-10
-1.78085e-10
4.78176e-10
-2.64788e-10
7.01543e-10
-3.46657e-10
7.01481e-10
-4.85133e-10
1.05693e-09
-5.86762e-10
7.8003e-10
-7.33828e-10
1.10954e-09
-7.62287e-10
2.12808e-10
-7.43257e-10
8.76846e-11
-5.21813e-10
-1.47935e-09
-2.11172e-10
-1.86354e-09
6.93579e-11
-2.30641e-09
2.23065e-10
-1.54538e-09
2.57318e-10
-8.90526e-10
2.48183e-10
-3.45655e-10
2.09002e-10
8.52179e-11
1.76974e-10
1.85053e-10
1.38982e-10
3.53619e-10
1.09223e-10
3.10923e-10
8.01203e-11
3.3562e-10
5.72889e-11
2.7011e-10
3.84993e-11
2.28956e-10
2.45477e-11
1.71887e-10
1.47792e-11
1.21793e-10
8.01802e-11
8.30731e-12
-2.69128e-12
2.05918e-11
-1.25802e-11
7.18579e-11
-2.89797e-11
1.33101e-10
-5.28837e-11
2.16597e-10
-8.53245e-11
3.00949e-10
-1.31947e-10
4.44226e-10
-1.90083e-10
5.36327e-10
-2.86065e-10
7.97533e-10
-3.74911e-10
7.90345e-10
-5.31625e-10
1.21366e-09
-6.49489e-10
8.97906e-10
-8.16325e-10
1.27638e-09
-8.51925e-10
2.48439e-10
-8.21784e-10
5.75529e-11
-5.67025e-10
-1.7341e-09
-1.95633e-10
-2.23492e-09
1.13468e-10
-2.61551e-09
2.68324e-10
-1.70022e-09
2.85246e-10
-9.07448e-10
2.62509e-10
-3.22906e-10
2.14252e-10
1.33466e-10
1.78171e-10
2.21151e-10
1.38502e-10
3.93268e-10
1.08134e-10
3.41319e-10
7.90499e-11
3.64675e-10
5.63468e-11
2.92844e-10
3.78033e-11
2.4747e-10
2.40567e-11
1.8566e-10
1.44682e-11
1.3136e-10
8.65559e-11
8.11188e-12
-2.96407e-12
2.35566e-11
-1.13207e-11
8.0216e-11
-2.36987e-11
1.45484e-10
-5.47092e-11
2.47615e-10
-8.61063e-11
3.32358e-10
-1.47159e-10
5.053e-10
-2.07932e-10
5.97115e-10
-3.13002e-10
9.0261e-10
-4.11971e-10
8.89332e-10
-5.82176e-10
1.38387e-09
-7.2219e-10
1.03793e-09
-9.11883e-10
1.46607e-09
-9.57463e-10
2.94052e-10
-9.133e-10
1.33982e-11
-6.16366e-10
-2.03102e-09
-1.7383e-10
-2.67744e-09
1.67706e-10
-2.95703e-09
3.20813e-10
-1.85331e-09
3.16061e-10
-9.02698e-10
2.77399e-10
-2.84233e-10
2.19367e-10
1.91489e-10
1.79124e-10
2.6141e-10
1.37834e-10
4.34538e-10
1.06896e-10
3.72283e-10
7.78716e-11
3.93671e-10
5.53218e-11
3.15424e-10
3.7049e-11
2.65715e-10
2.35262e-11
1.99208e-10
1.41321e-11
1.40734e-10
9.28123e-11
7.89406e-12
-3.00135e-12
2.65587e-11
-2.33504e-11
1.00566e-10
-4.92569e-11
1.71396e-10
-7.23124e-11
2.70677e-10
-1.06811e-10
3.6687e-10
-1.50044e-10
5.48556e-10
-2.17281e-10
6.64366e-10
-3.33416e-10
1.01875e-09
-4.41898e-10
9.97833e-10
-6.35307e-10
1.57729e-09
-8.03858e-10
1.20649e-09
-1.02294e-09
1.68514e-09
-1.08138e-09
3.52535e-10
-1.01946e-09
-4.8517e-11
-6.71127e-10
-2.37934e-09
-1.43926e-10
-3.20463e-09
2.3436e-10
-3.33531e-09
3.81441e-10
-2.00038e-09
3.49711e-10
-8.70969e-10
2.92552e-10
-2.27063e-10
2.24147e-10
2.59886e-10
1.79736e-10
3.05836e-10
1.36937e-10
4.77318e-10
1.05489e-10
4.03756e-10
7.65753e-11
4.22558e-10
5.42089e-11
3.37819e-10
3.62335e-11
2.83664e-10
2.29546e-11
2.1251e-10
1.37709e-11
1.49899e-10
9.89408e-11
7.6596e-12
-9.63472e-12
3.6193e-11
-1.6904e-11
1.07835e-10
-1.33072e-11
1.67804e-10
-6.29822e-11
3.20358e-10
-9.3901e-11
3.97801e-10
-1.7161e-10
6.26289e-10
-2.40468e-10
7.33238e-10
-3.66119e-10
1.14441e-09
-4.9313e-10
1.12486e-09
-6.96042e-10
1.7802e-09
-9.01575e-10
1.41203e-09
-1.15173e-09
1.93529e-09
-1.2281e-09
4.28943e-10
-1.14414e-09
-1.32471e-10
-7.32934e-10
-2.79054e-09
-1.03729e-10
-3.83383e-09
3.16106e-10
-3.75514e-09
4.51287e-10
-2.13555e-09
3.86114e-10
-8.05799e-10
3.07641e-10
-1.4858e-10
2.28403e-10
3.39117e-10
1.79933e-10
3.54321e-10
1.35795e-10
5.21438e-10
1.03911e-10
4.35664e-10
7.51649e-11
4.51279e-10
5.30134e-11
3.59997e-10
3.53609e-11
3.01291e-10
2.23445e-11
2.25549e-10
1.33867e-11
1.58839e-10
1.04927e-10
7.4166e-12
8.44874e-12
2.77476e-11
-5.22373e-11
1.68524e-10
-1.17038e-10
2.3261e-10
-1.03767e-10
3.07092e-10
-1.26318e-10
4.20368e-10
-1.5704e-10
6.57037e-10
-2.36446e-10
8.12656e-10
-3.86446e-10
1.29441e-09
-5.20031e-10
1.25846e-09
-7.61311e-10
2.02149e-09
-1.00552e-09
1.65626e-09
-1.30322e-09
2.23297e-09
-1.39886e-09
5.24625e-10
-1.28867e-09
-2.42661e-10
-8.01795e-10
-3.2774e-09
-4.99992e-11
-4.58561e-09
4.16476e-10
-4.22161e-09
5.31566e-10
-2.25062e-09
4.25058e-10
-6.99293e-10
3.22234e-10
-4.57454e-11
2.31903e-10
4.29441e-10
1.7962e-10
4.06617e-10
1.34378e-10
5.66663e-10
1.02154e-10
4.67911e-10
7.36378e-11
4.79771e-10
5.17351e-11
3.81925e-10
3.44317e-11
3.18571e-10
2.16965e-11
2.38305e-10
1.29805e-11
1.67539e-10
1.10756e-10
7.16646e-12
-3.76389e-11
6.53828e-11
-7.02576e-11
2.01137e-10
-6.2646e-12
1.68622e-10
-8.80446e-11
3.88878e-10
-1.18917e-10
4.51261e-10
-1.92212e-10
7.30364e-10
-2.78962e-10
8.99421e-10
-4.14399e-10
1.42985e-09
-5.85525e-10
1.42961e-09
-8.29817e-10
2.26578e-09
-1.13682e-09
1.96326e-09
-1.48211e-09
2.57826e-09
-1.60742e-09
6.49972e-10
-1.46005e-09
-3.90022e-10
-8.79887e-10
-3.85756e-09
1.90173e-11
-5.48451e-09
5.38834e-10
-4.74142e-09
6.23447e-10
-2.33522e-09
4.66063e-10
-5.41913e-10
3.35743e-10
8.45846e-11
2.34355e-10
5.30821e-10
1.78682e-10
4.62303e-10
1.32647e-10
6.12682e-10
1.00201e-10
5.00378e-10
7.19847e-11
5.07965e-10
5.0369e-11
4.03564e-10
3.34433e-11
3.35475e-10
2.10094e-11
2.50758e-10
1.25522e-11
1.7598e-10
1.16415e-10
6.90704e-12
-3.81319e-11
1.03508e-10
-1.17202e-10
2.80204e-10
-1.85834e-10
2.3726e-10
-2.31407e-11
2.26191e-10
-3.69229e-11
4.65063e-10
-1.33064e-10
8.26555e-10
-2.15689e-10
9.82061e-10
-4.56268e-10
1.67043e-09
-6.0752e-10
1.58088e-09
-9.00909e-10
2.55917e-09
-1.25421e-09
2.31657e-09
-1.69228e-09
3.01631e-09
-1.8403e-09
7.98044e-10
-1.65572e-09
-5.746e-10
-9.65199e-10
-4.54807e-09
1.07725e-10
-6.55742e-09
6.89661e-10
-5.32336e-09
7.28926e-10
-2.37446e-09
5.08702e-10
-3.21692e-10
3.47537e-10
2.45759e-10
2.35463e-10
6.42888e-10
1.77038e-10
5.2074e-10
1.30589e-10
6.59116e-10
9.80557e-11
5.32931e-10
7.02105e-11
5.35789e-10
4.89196e-11
4.24877e-10
3.23992e-11
3.51975e-10
2.0286e-11
2.62889e-10
1.21039e-11
1.84148e-10
1.21895e-10
6.637e-12
-3.9178e-11
1.42688e-10
-2.99198e-10
5.40202e-10
-3.03404e-10
2.41472e-10
-2.05995e-10
1.28788e-10
-1.94213e-10
4.53312e-10
-2.18146e-10
8.50553e-10
-3.56222e-10
1.12016e-09
-4.54945e-10
1.76915e-09
-6.8851e-10
1.81446e-09
-9.76914e-10
2.84758e-09
-1.43786e-09
2.77752e-09
-1.95487e-09
3.53329e-09
-2.14842e-09
9.91646e-10
-1.89181e-09
-8.31214e-10
-1.06382e-09
-5.37605e-09
2.21878e-10
-7.84312e-09
8.70738e-10
-5.97221e-09
8.47594e-10
-2.3513e-09
5.51409e-10
-2.55114e-11
3.56647e-10
4.4053e-10
2.34881e-10
7.64647e-10
1.74597e-10
5.81035e-10
1.28186e-10
7.05513e-10
9.57143e-11
5.6542e-10
6.83141e-11
5.6317e-10
4.73869e-11
4.45824e-10
3.12998e-11
3.68044e-10
1.95271e-11
2.74678e-10
1.16332e-11
1.92029e-10
1.27185e-10
6.35461e-12
7.46207e-11
6.80847e-11
2.44397e-10
3.70419e-10
7.70653e-10
-2.84779e-10
4.73044e-10
4.26411e-10
2.95585e-10
6.30787e-10
1.96476e-10
9.49722e-10
-1.99851e-10
1.51651e-09
-5.51726e-10
2.121e-09
-7.21472e-10
1.98423e-09
-1.02733e-09
3.15343e-09
-1.54466e-09
3.29485e-09
-2.23521e-09
4.22381e-09
-2.45991e-09
1.2164e-09
-2.15495e-09
-1.13618e-09
-1.16724e-09
-6.36376e-09
3.74371e-10
-9.38472e-09
1.09775e-09
-6.6956e-09
9.8704e-10
-2.24056e-09
5.9529e-10
3.66234e-10
3.62331e-10
6.73497e-10
2.3225e-10
8.94723e-10
1.71263e-10
6.42032e-10
1.25414e-10
7.5135e-10
9.31664e-11
5.97685e-10
6.62894e-11
5.9003e-10
4.57675e-11
4.66364e-10
3.0143e-11
3.83651e-10
1.87317e-11
2.86104e-10
1.11343e-11
1.99615e-10
1.32275e-10
6.05548e-12
7.16691e-11
-3.58212e-12
3.06687e-10
1.3545e-10
1.2697e-10
-1.05054e-10
-2.24191e-10
7.77581e-10
-6.11313e-10
1.01796e-09
-3.34154e-10
6.72709e-10
3.44436e-11
1.14794e-09
-5.15326e-10
2.67076e-09
-7.54014e-10
2.22294e-09
-1.13477e-09
3.53418e-09
-1.82595e-09
3.98604e-09
-2.64983e-09
5.04765e-09
-2.92125e-09
1.48788e-09
-2.48919e-09
-1.56824e-09
-1.29142e-09
-7.56153e-09
5.60751e-10
-1.12369e-08
1.36293e-09
-7.49778e-09
1.13223e-09
-2.00984e-09
6.31224e-10
8.67238e-10
3.6251e-10
9.42218e-10
2.27123e-10
1.03011e-09
1.66984e-10
7.02179e-10
1.2228e-10
7.96043e-10
9.04211e-11
6.29558e-10
6.41436e-11
6.16292e-10
4.40669e-11
4.86456e-10
2.89327e-11
3.9877e-10
1.79026e-11
2.97147e-10
1.06133e-11
2.06894e-10
1.37149e-10
5.74836e-12
-1.17117e-10
1.13502e-10
2.09008e-10
-1.90663e-10
5.94303e-10
-4.90341e-10
5.76917e-10
7.94985e-10
2.15621e-10
1.37927e-09
-2.59345e-10
1.14777e-09
-7.36734e-10
1.62536e-09
-1.06858e-09
3.00257e-09
-9.74272e-10
2.12867e-09
-1.05405e-09
3.61394e-09
-1.84915e-09
4.78113e-09
-2.99997e-09
6.19844e-09
-3.35005e-09
1.83803e-09
-2.85123e-09
-2.06706e-09
-1.41494e-09
-8.99781e-09
8.08717e-10
-1.34605e-08
1.70588e-09
-8.39494e-09
1.31999e-09
-1.62393e-09
6.6869e-10
1.51854e-09
3.57352e-10
1.25356e-09
2.19249e-10
1.1682e-09
1.6173e-10
7.59706e-10
1.18793e-10
8.3897e-10
8.74838e-11
6.6088e-10
6.18792e-11
6.41882e-10
4.22873e-11
5.06063e-10
2.76698e-11
4.13375e-10
1.70403e-11
3.07788e-10
1.00679e-11
2.13857e-10
1.41804e-10
5.42132e-12
-4.94481e-11
1.62941e-10
1.14117e-11
-2.51485e-10
-6.76166e-11
-4.11301e-10
-5.60011e-11
7.83383e-10
5.05198e-10
8.18056e-10
-8.25235e-11
1.7355e-09
1.46896e-10
1.39597e-09
4.01436e-10
2.74805e-09
-1.06056e-09
3.59071e-09
-1.14447e-09
3.69782e-09
-2.30224e-09
5.93888e-09
-3.70109e-09
7.59723e-09
-4.06393e-09
2.20095e-09
-3.32881e-09
-2.80219e-09
-1.56945e-09
-1.07572e-08
1.1038e-09
-1.61338e-08
2.09143e-09
-9.38258e-09
1.48608e-09
-1.01855e-09
6.79658e-10
2.32495e-09
3.41198e-10
1.59203e-09
2.07969e-10
1.30143e-09
1.55425e-10
8.12257e-10
1.1494e-10
8.79445e-10
8.43351e-11
6.91497e-10
5.94806e-11
6.66725e-10
4.04184e-11
5.25137e-10
2.63481e-11
4.27434e-10
1.61422e-11
3.18004e-10
9.50589e-12
2.20486e-10
1.46219e-10
5.09722e-12
2.16489e-11
1.41309e-10
-3.60589e-10
1.30738e-10
-3.41621e-10
-4.30253e-10
-1.58059e-11
4.57594e-10
-1.21581e-09
2.01813e-09
-1.95637e-09
2.47629e-09
-1.79573e-09
1.23537e-09
-8.52144e-10
1.80444e-09
-5.46024e-10
3.2846e-09
-8.89715e-10
4.04146e-09
-1.99408e-09
7.04322e-09
-4.1477e-09
9.75077e-09
-4.70364e-09
2.75698e-09
-3.82765e-09
-3.6782e-09
-1.71423e-09
-1.28706e-08
1.49933e-09
-1.93473e-08
2.60598e-09
-1.04892e-08
1.74039e-09
-1.52923e-10
7.14394e-10
3.35094e-09
3.20228e-10
1.9862e-09
1.93615e-10
1.42804e-09
1.48272e-10
8.57605e-10
1.10854e-10
9.16856e-10
8.1073e-11
7.21288e-10
5.70095e-11
6.90778e-10
3.85071e-11
5.4365e-10
2.49991e-11
4.40932e-10
1.52272e-11
3.27784e-10
8.92686e-12
2.2678e-10
1.50403e-10
4.74858e-12
-1.58897e-10
3.00152e-10
3.29349e-10
-3.57459e-10
8.94326e-10
-9.95214e-10
1.2455e-09
1.06446e-10
-4.87178e-11
3.31234e-09
-1.10077e-09
3.52846e-09
-1.3185e-09
1.45313e-09
-1.22989e-09
1.71577e-09
-6.13225e-10
2.66796e-09
-1.23238e-09
4.66059e-09
-2.79559e-09
8.60641e-09
-5.35566e-09
1.23108e-08
-5.79699e-09
3.19842e-09
-4.47603e-09
-4.99917e-09
-1.90084e-09
-1.54458e-08
1.96175e-09
-2.32099e-08
3.17203e-09
-1.16995e-08
1.92058e-09
1.09857e-09
6.7742e-10
4.59409e-09
2.74093e-10
2.38953e-09
1.74231e-10
1.5279e-09
1.39999e-10
8.91842e-10
1.06365e-10
9.50484e-10
7.74811e-11
7.50179e-10
5.43035e-11
7.13948e-10
3.64234e-11
5.61538e-10
2.35328e-11
4.53815e-10
1.42375e-11
3.37086e-10
8.31137e-12
2.32701e-10
1.54318e-10
4.40125e-12
4.26915e-11
2.57437e-10
3.76365e-10
-6.91063e-10
1.80506e-10
-7.99337e-10
2.92134e-10
-5.16484e-12
9.15923e-10
2.68855e-09
8.62159e-10
3.58207e-09
3.01769e-10
2.01354e-09
1.79791e-09
2.19673e-10
5.65201e-10
3.90067e-09
-1.29078e-10
5.35485e-09
-1.8276e-09
1.03049e-08
-5.97443e-09
1.64575e-08
-6.77735e-09
4.00143e-09
-5.1282e-09
-6.64834e-09
-2.02848e-09
-1.85455e-08
2.57937e-09
-2.78178e-08
3.91865e-09
-1.30389e-08
2.24449e-09
2.77278e-09
6.96349e-10
6.14222e-09
2.34907e-10
2.85098e-09
1.53569e-10
1.60923e-09
1.31598e-10
9.13817e-10
1.02034e-10
9.80042e-10
7.41222e-11
7.78098e-10
5.17695e-11
7.36294e-10
3.44975e-11
5.78816e-10
2.21816e-11
4.66126e-10
1.33288e-11
3.45943e-10
7.73402e-12
2.38292e-10
1.58003e-10
4.05258e-12
3.16296e-10
-5.87731e-11
2.42852e-11
-3.99013e-10
4.38011e-10
-1.21303e-09
1.69134e-09
-1.25846e-09
1.1958e-09
3.18406e-09
-3.01058e-10
5.0789e-09
-1.42539e-09
3.13788e-09
-2.37715e-09
1.17141e-09
-1.35363e-09
2.87718e-09
-1.94881e-10
4.19608e-09
-4.13005e-09
1.42401e-08
-8.21861e-09
2.0546e-08
-8.11771e-09
3.9006e-09
-5.61627e-09
-9.14981e-09
-2.00356e-09
-2.21582e-08
3.32534e-09
-3.31467e-08
4.78792e-09
-1.45015e-08
2.46818e-09
5.09257e-09
5.68223e-10
8.04217e-09
1.33839e-10
3.28536e-09
1.2247e-10
1.6206e-09
1.22343e-10
9.13946e-10
9.73712e-11
1.00501e-09
7.01735e-11
8.05299e-10
4.87481e-11
7.57715e-10
3.21602e-11
5.95408e-10
2.05306e-11
4.77751e-10
1.22135e-11
3.54264e-10
7.04232e-12
2.4346e-10
1.61389e-10
3.65816e-12
8.28281e-10
-8.86899e-10
3.35827e-10
9.35634e-11
-7.05738e-10
-1.7143e-10
6.76515e-10
-2.64068e-09
1.36553e-09
2.49501e-09
1.82308e-09
4.62132e-09
3.80262e-09
1.15831e-09
3.315e-09
1.65912e-09
4.57116e-09
1.62105e-09
5.27835e-09
3.4893e-09
1.12962e-09
1.83889e-08
-6.8674e-09
2.85428e-08
-1.06522e-08
7.68557e-09
-6.00634e-09
-1.37957e-08
-7.69406e-10
-2.73951e-08
4.45508e-09
-3.83712e-08
5.76414e-09
-1.58106e-08
2.81342e-09
8.04335e-09
5.62114e-10
1.02935e-08
9.13874e-11
3.75609e-09
1.08637e-10
1.60335e-09
1.21721e-10
9.00862e-10
9.86118e-11
1.02812e-09
7.09546e-11
8.32959e-10
4.91154e-11
7.79552e-10
3.21919e-11
6.12334e-10
2.0431e-11
4.8951e-10
1.20554e-11
3.62641e-10
6.91831e-12
2.48596e-10
1.64816e-10
3.49285e-12
6.7497e-10
-1.56167e-09
-3.89888e-10
1.15849e-09
-2.47707e-09
1.91573e-09
-1.19424e-09
-3.92353e-09
1.01883e-09
2.81911e-10
1.48538e-09
4.15461e-09
1.59815e-09
1.04552e-09
3.43489e-09
-1.77653e-10
5.69346e-09
-6.37158e-10
1.05157e-08
-1.33414e-09
3.21977e-08
-3.29394e-09
4.08324e-08
1.99065e-08
5.04171e-09
4.34759e-08
-1.15173e-08
2.76324e-09
2.91194e-09
-4.18241e-08
7.80907e-09
-4.32683e-08
7.16458e-09
-1.51661e-08
3.05187e-09
1.21561e-08
3.65534e-10
1.29798e-08
2.44799e-12
4.11918e-09
1.47116e-10
1.45868e-09
1.88024e-10
8.59954e-10
1.51983e-10
1.06416e-09
1.10089e-10
8.74855e-10
7.61292e-11
8.13511e-10
5.00849e-11
6.3838e-10
3.14666e-11
5.08129e-10
1.84938e-11
3.75615e-10
1.04846e-11
2.56606e-10
5.40922e-12
1.69892e-10
5.93224e-12
8.97489e-13
5.76532e-12
1.90504e-13
5.2034e-12
5.44271e-13
3.94926e-12
1.26578e-12
2.9384e-12
1.00347e-12
2.45129e-12
4.91684e-13
2.0136e-12
4.34874e-13
1.6317e-12
3.836e-13
1.25617e-12
3.74487e-13
1.10117e-12
1.55621e-13
9.65198e-13
1.35593e-13
6.88464e-13
2.76956e-13
4.60808e-13
2.2753e-13
3.57943e-13
1.02952e-13
2.61311e-13
9.65998e-14
2.39311e-13
2.20453e-14
1.43185e-13
9.61325e-14
1.09574e-13
3.36441e-14
2.01623e-13
-9.20287e-14
1.4307e-13
5.85841e-14
9.67261e-14
4.63702e-14
9.14604e-14
5.29547e-15
5.26273e-14
3.88624e-14
4.32124e-14
9.44424e-15
5.89719e-14
-1.57294e-14
1.28354e-14
4.61658e-14
-7.97464e-14
9.26115e-14
5.19986e-14
-1.31716e-13
1.50335e-13
-9.83072e-14
1.50363e-13
7.53355e-12
2.31171e-12
6.90548e-12
8.52602e-13
5.47522e-12
1.9509e-12
3.8943e-12
2.8619e-12
3.2531e-12
1.63513e-12
2.66916e-12
1.08149e-12
2.15437e-12
9.46055e-13
1.80742e-12
7.32712e-13
1.44097e-12
7.39616e-13
1.28472e-12
3.12652e-13
1.11063e-12
3.09223e-13
6.66849e-13
7.21022e-13
4.6508e-13
4.29153e-13
4.6389e-13
1.04267e-13
3.73881e-13
1.86586e-13
2.94483e-13
1.01518e-13
2.47667e-13
1.42975e-13
1.993e-13
8.20716e-14
1.81613e-13
-7.42952e-14
1.73453e-13
6.68011e-14
1.41581e-13
7.82957e-14
1.23551e-13
2.33827e-14
1.23554e-13
3.8916e-14
1.31228e-13
1.82625e-15
9.87911e-14
1.67652e-14
8.41938e-14
6.08193e-14
3.77968e-14
1.39064e-13
2.41108e-14
-1.17974e-13
-1.08114e-14
-6.3331e-14
1.39579e-13
8.86319e-12
4.33913e-12
5.37057e-12
4.37797e-12
3.84844e-12
3.45077e-12
3.64187e-12
3.08266e-12
3.24634e-12
2.02177e-12
2.65736e-12
1.67591e-12
2.14726e-12
1.45282e-12
1.89922e-12
9.82752e-13
1.62638e-12
1.01123e-12
1.10433e-12
8.35423e-13
6.87516e-13
7.25606e-13
6.54111e-13
7.54694e-13
5.8913e-13
4.94e-13
4.99968e-13
1.93544e-13
3.93362e-13
2.93171e-13
2.80981e-13
2.13967e-13
2.949e-13
1.29082e-13
2.39892e-13
1.37136e-13
8.84369e-14
7.7203e-14
1.08214e-13
4.70778e-14
1.58925e-13
2.76361e-14
1.39835e-13
4.25259e-14
1.78757e-13
4.79353e-17
2.03922e-13
-2.32865e-14
9.82649e-14
1.22476e-13
9.75152e-14
6.16219e-14
5.05086e-14
1.86124e-13
-7.23522e-14
4.93845e-15
-1.1579e-13
-1.98427e-14
2.38143e-14
7.71459e-12
6.05775e-12
5.94804e-12
6.1759e-12
4.84891e-12
4.52895e-12
4.06167e-12
3.88315e-12
3.33421e-12
2.74097e-12
2.67468e-12
2.34048e-12
2.14684e-12
1.97757e-12
1.77621e-12
1.35524e-12
1.44974e-12
1.33657e-12
1.08386e-12
1.20197e-12
8.16784e-13
9.92285e-13
6.90558e-13
8.81167e-13
5.99474e-13
5.84961e-13
5.3604e-13
2.57084e-13
4.13708e-13
4.15486e-13
3.25005e-13
3.02735e-13
2.83661e-13
1.7045e-13
2.20884e-13
1.99967e-13
1.7303e-13
1.25098e-13
1.59594e-13
6.05656e-14
1.51833e-13
3.54452e-14
1.37807e-13
5.66027e-14
1.31993e-13
5.91266e-15
1.28195e-13
-1.94377e-14
1.03826e-13
1.46896e-13
1.04035e-13
6.14638e-14
5.73546e-14
2.32854e-13
3.08131e-14
3.15296e-14
-3.02277e-14
4.12465e-14
-6.38915e-15
7.48989e-12
7.69297e-12
6.0601e-12
7.63575e-12
5.01768e-12
5.5516e-12
4.10722e-12
4.80601e-12
3.30358e-12
3.53691e-12
2.65286e-12
2.99589e-12
2.14052e-12
2.48704e-12
1.7206e-12
1.77687e-12
1.38602e-12
1.6701e-12
1.09539e-12
1.49322e-12
8.46765e-13
1.24054e-12
7.10482e-13
1.01768e-12
6.48355e-13
6.46976e-13
5.27086e-13
3.78454e-13
3.9586e-13
5.46697e-13
3.23664e-13
3.74992e-13
2.67237e-13
2.26901e-13
2.08989e-13
2.58267e-13
1.78341e-13
1.55786e-13
1.62249e-13
7.67076e-14
1.44986e-13
5.2755e-14
1.36296e-13
6.53411e-14
1.22828e-13
1.94305e-14
1.06172e-13
-2.7338e-15
1.01255e-13
1.51862e-13
1.03284e-13
5.94833e-14
6.8619e-14
2.67567e-13
7.29566e-14
2.72397e-14
-2.49158e-14
1.39165e-13
-3.12816e-14
7.45087e-12
9.29955e-12
6.02494e-12
9.09048e-12
4.95845e-12
6.59938e-12
4.0784e-12
5.6977e-12
3.25831e-12
4.34981e-12
2.62604e-12
3.63252e-12
2.12749e-12
2.98291e-12
1.66097e-12
2.24499e-12
1.33328e-12
1.99681e-12
1.07756e-12
1.74952e-12
8.63955e-13
1.4538e-12
7.61031e-13
1.12082e-12
6.65718e-13
7.42186e-13
4.86609e-13
5.57657e-13
3.79186e-13
6.54107e-13
3.21092e-13
4.33145e-13
2.64705e-13
2.83312e-13
2.24293e-13
2.9873e-13
1.89192e-13
1.90927e-13
1.64055e-13
1.01893e-13
1.44372e-13
7.24835e-14
1.35644e-13
7.41159e-14
1.23204e-13
3.19193e-14
1.02521e-13
1.79961e-14
9.67026e-14
1.57728e-13
9.80462e-14
5.81868e-14
8.69459e-14
2.78714e-13
9.34874e-14
2.07446e-14
-5.88495e-14
2.91547e-13
-9.01084e-14
7.38242e-12
1.08805e-11
6.0072e-12
1.04933e-11
4.8901e-12
7.69875e-12
3.99681e-12
6.60195e-12
3.19032e-12
5.14956e-12
2.59782e-12
4.2291e-12
2.11286e-12
3.46538e-12
1.60721e-12
2.75212e-12
1.28314e-12
2.31998e-12
1.0539e-12
1.97928e-12
8.86465e-13
1.62093e-12
7.77284e-13
1.23019e-12
6.48506e-13
8.70869e-13
4.62501e-13
7.4375e-13
3.71096e-13
7.45502e-13
3.10139e-13
4.94159e-13
2.47512e-13
3.45965e-13
2.18753e-13
3.27536e-13
1.88583e-13
2.21136e-13
1.56885e-13
1.33638e-13
1.33193e-13
9.62201e-14
1.25993e-13
8.13621e-14
1.22257e-13
3.57022e-14
1.10257e-13
3.00419e-14
1.14259e-13
1.53774e-13
1.13327e-13
5.91649e-14
1.18192e-13
2.73895e-13
1.3273e-13
6.25128e-15
-8.77282e-14
5.1205e-13
-1.77815e-13
7.31177e-12
1.24416e-11
5.94775e-12
1.18837e-11
4.78942e-12
8.84029e-12
3.90477e-12
7.49689e-12
3.1217e-12
5.92632e-12
2.53626e-12
4.81834e-12
2.07135e-12
3.92798e-12
1.63186e-12
3.19299e-12
1.28576e-12
2.66524e-12
1.03064e-12
2.2349e-12
9.20907e-13
1.73037e-12
7.7912e-13
1.37217e-12
6.12936e-13
1.03697e-12
4.5698e-13
8.99791e-13
3.82698e-13
8.19776e-13
3.21068e-13
5.55843e-13
2.58511e-13
4.08547e-13
2.29219e-13
3.56876e-13
1.96589e-13
2.53804e-13
1.62737e-13
1.67535e-13
1.36364e-13
1.22637e-13
1.24888e-13
9.2883e-14
1.22327e-13
3.83093e-14
1.13517e-13
3.88973e-14
1.25217e-13
1.42119e-13
1.21243e-13
6.3184e-14
9.5641e-14
2.99541e-13
1.27954e-13
-2.60182e-14
-4.2738e-14
6.82785e-13
-2.20531e-13
7.20534e-12
1.39885e-11
5.87756e-12
1.32367e-11
4.70466e-12
9.9973e-12
3.82441e-12
8.38681e-12
3.06129e-12
6.68355e-12
2.48365e-12
5.39952e-12
2.03256e-12
4.37692e-12
1.62941e-12
3.59742e-12
1.29771e-12
2.99616e-12
1.04359e-12
2.48948e-12
8.97781e-13
1.8759e-12
7.35787e-13
1.53433e-12
5.75587e-13
1.19709e-12
4.45685e-13
1.02977e-12
3.71743e-13
8.93713e-13
3.11128e-13
6.16511e-13
2.50106e-13
4.69595e-13
2.14749e-13
3.92279e-13
1.85078e-13
2.83512e-13
1.54448e-13
1.98211e-13
1.29858e-13
1.4727e-13
1.1876e-13
1.04025e-13
1.19795e-13
3.73185e-14
1.18604e-13
4.01319e-14
1.47442e-13
1.13325e-13
1.40794e-13
6.9876e-14
1.03598e-13
3.36781e-13
1.74774e-13
-9.71511e-14
4.58782e-15
8.53013e-13
-2.15923e-13
7.07807e-12
1.55248e-11
5.78291e-12
1.45559e-11
4.61774e-12
1.11475e-11
3.74803e-12
9.26558e-12
3.01046e-12
7.41562e-12
2.44146e-12
5.97182e-12
1.99459e-12
4.82179e-12
1.60568e-12
3.98751e-12
1.29041e-12
3.31071e-12
1.04662e-12
2.73369e-12
8.67989e-13
2.05429e-12
7.04633e-13
1.69785e-12
5.52084e-13
1.34957e-12
4.44045e-13
1.13789e-12
3.67631e-13
9.70124e-13
3.11804e-13
6.72389e-13
2.60303e-13
5.21122e-13
2.23035e-13
4.29592e-13
1.93811e-13
3.12773e-13
1.63211e-13
2.28855e-13
1.38872e-13
1.71651e-13
1.23868e-13
1.19072e-13
1.18115e-13
4.3115e-14
1.17686e-13
4.06039e-14
1.33618e-13
9.74367e-14
1.24719e-13
7.88183e-14
7.94957e-14
3.82046e-13
1.10325e-13
-1.27938e-13
-3.49122e-14
9.98292e-13
-2.50815e-13
6.93186e-12
1.7051e-11
5.66998e-12
1.58406e-11