/*--------------------------------*- C++ -*----------------------------------*\
| =========                 |                                                 |
| \\      /  F ield         | OpenFOAM: The Open Source CFD Toolbox           |
|  \\    /   O peration     | Version:  2.4.0                                 |
|   \\  /    A nd           | Web:      www.OpenFOAM.org                      |
|    \\/     M anipulation  |                                                 |
\*---------------------------------------------------------------------------*/
FoamFile
{
    version     2.0;
    format      ascii;
    class       volScalarField;
    location    "0.298";
    object      alpha.water;
}
// * * * * * * * * * * * * * * * * * * * * * * * * * * * * * * * * * * * * * //

dimensions      [0 0 0 0 0 0 0];

internalField   nonuniform List<scalar> 
10000
(
3.41351e-53
3.32405e-49
1.21488e-45
1.9917e-42
1.00159e-39
1.54934e-37
9.46529e-36
2.77951e-34
4.47336e-33
4.37402e-32
2.9301e-31
1.5204e-30
6.8134e-30
2.98534e-29
1.37327e-28
6.80538e-28
3.88338e-27
2.34391e-26
1.35627e-25
7.35577e-25
3.64695e-24
1.66156e-23
7.00131e-23
2.73151e-22
9.74591e-22
3.13951e-21
8.99741e-21
2.24041e-20
4.50116e-20
6.50337e-20
6.72792e-20
5.01194e-20
2.76621e-20
1.17725e-20
4.05756e-21
1.19162e-21
3.06515e-22
6.85249e-23
1.29136e-23
1.99462e-24
2.48442e-25
2.50845e-26
2.05672e-27
1.33793e-28
6.61872e-30
2.52764e-31
4.93896e-32
1.64407e-31
6.40441e-31
2.57223e-30
5.31188e-50
5.74722e-46
2.32168e-42
3.73933e-39
1.55895e-36
2.03626e-34
1.09194e-32
2.91029e-31
4.36205e-30
4.03437e-29
2.57199e-28
1.27087e-27
5.42394e-27
2.30546e-26
1.04531e-25
5.00488e-25
2.70999e-24
1.54798e-23
8.24789e-23
4.11492e-22
1.89862e-21
7.99634e-21
3.10301e-20
1.11134e-19
3.66448e-19
1.09285e-18
2.88057e-18
6.57361e-18
1.23132e-17
1.75803e-17
1.89546e-17
1.55036e-17
9.72425e-18
4.79752e-18
1.93801e-18
6.67169e-19
1.99198e-19
5.14126e-20
1.12618e-20
2.05706e-21
3.09326e-22
3.83608e-23
3.89744e-24
3.16902e-25
2.01722e-26
1.07383e-27
3.92703e-28
1.57758e-27
6.96321e-27
3.19187e-26
1.16096e-47
1.81585e-43
1.17692e-39
1.88929e-36
6.50356e-34
7.15333e-32
3.3746e-30
8.19397e-29
1.14813e-27
1.00932e-26
6.16436e-26
2.91091e-25
1.19088e-24
4.90764e-24
2.15267e-23
9.91882e-23
5.00755e-22
2.6443e-21
1.29026e-20
5.88073e-20
2.48531e-19
9.62636e-19
3.4425e-18
1.13799e-17
3.46947e-17
9.65347e-17
2.38836e-16
5.11066e-16
9.14325e-16
1.2972e-15
1.44186e-15
1.25957e-15
8.66709e-16
4.77726e-16
2.18327e-16
8.54177e-17
2.90147e-17
8.53839e-18
2.15069e-18
4.57661e-19
8.14359e-20
1.21155e-20
1.48396e-21
1.46313e-22
1.1437e-23
8.4677e-25
8.36751e-25
4.27515e-24
2.4409e-23
1.55571e-22
1.05551e-45
2.79281e-41
3.37978e-37
4.49051e-34
1.2337e-31
1.14585e-29
4.77798e-28
1.06125e-26
1.39537e-25
1.17043e-24
6.87291e-24
3.10812e-23
1.21789e-22
4.81953e-22
2.02729e-21
8.8952e-21
4.16258e-20
2.01408e-19
9.04515e-19
3.76317e-18
1.44726e-17
5.13559e-17
1.68865e-16
5.16296e-16
1.46355e-15
3.80497e-15
8.89157e-15
1.80949e-14
3.1276e-14
4.41823e-14
5.02917e-14
4.61173e-14
3.40515e-14
2.04451e-14
1.02706e-14
4.43652e-15
1.67049e-15
5.48866e-16
1.55751e-16
3.76831e-17
7.71104e-18
1.32677e-18
1.8739e-19
2.12204e-20
1.91138e-21
2.44434e-22
7.49618e-22
4.82024e-21
3.00388e-20
1.7292e-19
6.64086e-44
5.23855e-39
5.99015e-35
5.9368e-32
1.31156e-29
1.0392e-27
3.85572e-26
7.86898e-25
9.74581e-24
7.82989e-23
4.43472e-22
1.92529e-21
7.22251e-21
2.71854e-20
1.08787e-19
4.49951e-19
1.9511e-18
8.63637e-18
3.57589e-17
1.36323e-16
4.75888e-16
1.54046e-15
4.65083e-15
1.31609e-14
3.47602e-14
8.47582e-14
1.87359e-13
3.65239e-13
6.12631e-13
8.61886e-13
1.00085e-12
9.54755e-13
7.44686e-13
4.77914e-13
2.58548e-13
1.20917e-13
4.95911e-14
1.7863e-14
5.59761e-15
1.50334e-15
3.43786e-16
6.57563e-17
1.02523e-17
1.27474e-18
1.27757e-19
4.19209e-20
2.17659e-19
1.31446e-18
7.18177e-18
3.43179e-17
3.81152e-42
8.22758e-37
6.53897e-33
4.88055e-30
8.80264e-28
6.00913e-26
1.99645e-24
3.75924e-23
4.40049e-22
3.39844e-21
1.86255e-20
7.79192e-20
2.79486e-19
9.94954e-19
3.74576e-18
1.45142e-17
5.83605e-17
2.3699e-16
9.01629e-16
3.14752e-15
1.00115e-14
2.95498e-14
8.19667e-14
2.14508e-13
5.28204e-13
1.20956e-12
2.53244e-12
4.73696e-12
7.73061e-12
1.08289e-11
1.2799e-11
1.26343e-11
1.03093e-11
6.97218e-12
4.00072e-12
1.99804e-12
8.81344e-13
3.4384e-13
1.17219e-13
3.44036e-14
8.60057e-15
1.78106e-15
2.99253e-16
3.98363e-17
4.54896e-18
3.59151e-18
1.98801e-17
1.06786e-16
5.00464e-16
2.0476e-15
2.92054e-40
8.73556e-35
4.71524e-31
2.6975e-28
4.02453e-26
2.38771e-24
7.14298e-23
1.24539e-21
1.38145e-20
1.02872e-19
5.47383e-19
2.21708e-18
7.5986e-18
2.54839e-17
8.95084e-17
3.22427e-16
1.20477e-15
4.48058e-15
1.56871e-14
5.01305e-14
1.45526e-13
3.92083e-13
9.99621e-13
2.42322e-12
5.56207e-12
1.19651e-11
2.37117e-11
4.25166e-11
6.75993e-11
9.4215e-11
1.13155e-10
1.15258e-10
9.77849e-11
6.8945e-11
4.15196e-11
2.19361e-11
1.03122e-11
4.31107e-12
1.58253e-12
5.02948e-13
1.35905e-13
3.0294e-14
5.44462e-15
7.71956e-16
1.03964e-16
1.38176e-16
7.21471e-16
3.44234e-15
1.4285e-14
5.18774e-14
2.25809e-38
6.44289e-33
2.37802e-29
1.05907e-26
1.32127e-24
6.86232e-23
1.85722e-21
3.00711e-20
3.16708e-19
2.27933e-18
1.18117e-17
4.65664e-17
1.52686e-16
4.8127e-16
1.56748e-15
5.21709e-15
1.80529e-14
6.14705e-14
1.98455e-13
5.81321e-13
1.54082e-12
3.79505e-12
8.89875e-12
2.00091e-11
4.28929e-11
8.65732e-11
1.62106e-10
2.78001e-10
4.30204e-10
5.9613e-10
7.2738e-10
7.64149e-10
6.71102e-10
4.88446e-10
3.05934e-10
1.69873e-10
8.46536e-11
3.77059e-11
1.48252e-11
5.07143e-12
1.47592e-12
3.54709e-13
6.83291e-14
1.03566e-14
1.61308e-15
2.64618e-15
1.27996e-14
5.55151e-14
2.09467e-13
6.92179e-13
1.8343e-36
3.41632e-31
8.76027e-28
3.07591e-25
3.23737e-23
1.4808e-21
3.63968e-20
5.48513e-19
5.49185e-18
3.82517e-17
1.93553e-16
7.46669e-16
2.34987e-15
6.9575e-15
2.09286e-14
6.40291e-14
2.03688e-13
6.35929e-13
1.89568e-12
5.09389e-12
1.23456e-11
2.7823e-11
6.00978e-11
1.25544e-10
2.51675e-10
4.76761e-10
8.4231e-10
1.3772e-09
2.06918e-09
2.85219e-09
3.54389e-09
3.84779e-09
3.4875e-09
2.58702e-09
1.6703e-09
9.70212e-10
5.10764e-10
2.42164e-10
1.01996e-10
3.75457e-11
1.1785e-11
3.06508e-12
6.39308e-13
1.04482e-13
1.77339e-14
2.88694e-14
1.29593e-13
5.21714e-13
1.82705e-12
5.61126e-12
1.30442e-34
1.34688e-29
2.43682e-26
6.81783e-24
6.0979e-22
2.46873e-20
5.528e-19
7.76598e-18
7.39533e-17
4.98711e-16
2.46827e-15
9.35535e-15
2.84212e-14
7.91955e-14
2.19683e-13
6.14509e-13
1.78432e-12
5.09908e-12
1.40491e-11
3.47317e-11
7.70909e-11
1.5904e-10
3.17174e-10
6.17112e-10
1.15841e-09
2.06062e-09
3.432e-09
5.34151e-09
7.78807e-09
1.07482e-08
1.37111e-08
1.54993e-08
1.44691e-08
1.06938e-08
7.02378e-09
4.24369e-09
2.35636e-09
1.19087e-09
5.39145e-10
2.14562e-10
7.31206e-11
2.07185e-11
4.73352e-12
8.45953e-13
1.47141e-13
2.00018e-13
8.38821e-13
3.1927e-12
1.05626e-11
3.06218e-11
7.41006e-33
4.06173e-28
5.25735e-25
1.18277e-22
9.04448e-21
3.25409e-19
6.65381e-18
8.72063e-17
7.89537e-16
5.15156e-15
2.49555e-14
9.31429e-14
2.75148e-13
7.24268e-13
1.85629e-12
4.72641e-12
1.24401e-11
3.24431e-11
8.267e-11
1.8878e-10
3.84582e-10
7.26844e-10
1.34088e-09
2.43434e-09
4.28008e-09
7.15566e-09
1.12483e-08
1.67139e-08
2.38477e-08
3.36169e-08
4.46682e-08
5.3328e-08
5.17833e-08
3.62253e-08
2.37843e-08
1.48203e-08
8.6431e-09
4.65869e-09
2.27492e-09
9.8357e-10
3.66589e-10
1.14149e-10
2.87898e-11
5.69194e-12
9.99244e-13
9.69992e-13
3.7795e-12
1.38081e-11
4.37667e-11
1.21298e-10
3.30965e-31
9.60198e-27
9.00637e-24
1.64187e-21
1.07874e-19
3.45986e-18
6.46976e-17
7.90994e-16
6.79913e-15
4.28404e-14
2.02965e-13
7.46256e-13
2.15943e-12
5.40096e-12
1.28477e-11
2.97433e-11
7.04795e-11
1.67255e-10
3.93711e-10
8.33805e-10
1.56378e-09
2.71324e-09
4.63799e-09
7.85348e-09
1.2926e-08
2.02985e-08
3.00971e-08
4.2787e-08
6.06833e-08
9.02867e-08
1.26803e-07
1.68753e-07
1.84587e-07
1.03699e-07
6.70074e-08
4.30341e-08
2.62523e-08
1.50344e-08
7.90324e-09
3.7178e-09
1.52375e-09
5.25527e-10
1.47478e-10
3.24913e-11
5.90636e-12
3.62127e-12
1.26318e-11
4.48832e-11
1.37971e-10
3.6969e-10
1.16987e-29
1.82377e-25
1.254e-22
1.864e-20
1.0561e-18
3.02527e-17
5.17524e-16
5.89471e-15
4.79737e-14
2.90855e-13
1.34403e-12
4.8603e-12
1.38569e-11
3.31819e-11
7.37504e-11
1.55701e-10
3.30754e-10
7.09417e-10
1.54383e-09
3.04245e-09
5.27302e-09
8.42107e-09
1.33497e-08
2.10459e-08
3.23369e-08
4.72567e-08
6.50005e-08
8.67275e-08
1.25024e-07
2.1373e-07
3.36034e-07
5.94393e-07
8.0664e-07
2.70659e-07
1.60723e-07
1.07706e-07
6.85934e-08
4.14114e-08
2.32054e-08
1.18007e-08
5.30617e-09
2.03484e-09
6.40936e-10
1.58585e-10
3.09651e-11
1.16834e-11
3.29674e-11
1.14987e-10
3.46888e-10
9.07537e-10
3.34533e-28
2.86343e-24
1.45656e-21
1.77313e-19
8.68176e-18
2.22206e-16
3.47345e-15
3.67531e-14
2.81901e-13
1.63492e-12
7.3294e-12
2.59578e-11
7.31206e-11
1.69018e-10
3.53544e-10
6.85743e-10
1.30752e-09
2.51724e-09
5.07541e-09
9.331e-09
1.49624e-08
2.20199e-08
3.24661e-08
4.75586e-08
6.7651e-08
9.13449e-08
1.17424e-07
1.51716e-07
2.22872e-07
4.23087e-07
9.74459e-07
2.25339e-06
3.00987e-06
1.11499e-06
5.36921e-07
2.9164e-07
1.7001e-07
1.01885e-07
5.89901e-08
3.18682e-08
1.55578e-08
6.60851e-09
2.34151e-09
6.58522e-10
1.42741e-10
3.7202e-11
7.03347e-11
2.40923e-10
7.21523e-10
1.86052e-09
7.93955e-27
3.83559e-23
1.45216e-20
1.45167e-18
6.14765e-17
1.40471e-15
2.0016e-14
1.95894e-13
1.40673e-12
7.73745e-12
3.3347e-11
1.14763e-10
3.18154e-10
7.16754e-10
1.42043e-09
2.56e-09
4.41773e-09
7.59277e-09
1.4272e-08
2.4618e-08
3.62395e-08
4.91689e-08
6.77675e-08
9.15765e-08
1.1838e-07
1.4446e-07
1.70412e-07
2.21556e-07
4.03297e-07
9.53962e-07
2.44514e-06
1.22552e-05
1.42833e-05
2.09621e-06
9.29215e-07
5.08556e-07
2.84468e-07
1.8065e-07
1.14618e-07
6.83982e-08
3.70764e-08
1.76445e-08
7.08192e-09
2.28387e-09
5.66534e-10
1.25634e-10
1.29707e-10
4.25036e-10
1.27733e-09
3.27791e-09
1.591e-25
4.48294e-22
1.2702e-19
1.04592e-17
3.83603e-16
7.82302e-15
1.01417e-13
9.14304e-13
6.10378e-12
3.15089e-11
1.28881e-10
4.25546e-10
1.14823e-09
2.53357e-09
4.78858e-09
8.10767e-09
1.28629e-08
1.97549e-08
3.5203e-08
5.79068e-08
7.57519e-08
9.56491e-08
1.23738e-07
1.51852e-07
1.75362e-07
1.94655e-07
2.24861e-07
3.19e-07
5.94851e-07
1.34177e-06
1.25732e-05
1.63558e-05
1.63562e-05
1.23775e-05
1.588e-06
6.85161e-07
3.32413e-07
2.23796e-07
1.62218e-07
1.11641e-07
6.95877e-08
3.80001e-08
1.75367e-08
6.55844e-09
1.89618e-09
4.30348e-10
2.27351e-10
6.46072e-10
1.96703e-09
5.07697e-09
2.66132e-24
4.54635e-21
9.74955e-19
6.65773e-17
2.12427e-15
3.87783e-14
4.58017e-13
3.80186e-12
2.35151e-11
1.13024e-10
4.33271e-10
1.35075e-09
3.48592e-09
7.46896e-09
1.35396e-08
2.17221e-08
3.21864e-08
4.46472e-08
5.20432e-08
1.17305e-07
1.36124e-07
1.56347e-07
1.74628e-07
2.17693e-07
2.14277e-07
1.95878e-07
2.40313e-07
2.78952e-07
4.2945e-07
9.44465e-07
2.64818e-06
1.32906e-05
1.50934e-05
2.58706e-06
1.1492e-06
6.97228e-07
3.68595e-07
2.5584e-07
2.01175e-07
1.55654e-07
1.10531e-07
6.90821e-08
3.6622e-08
1.58579e-08
5.37055e-09
1.37787e-09
4.41027e-10
8.6585e-10
2.67792e-09
7.0321e-09
3.55287e-23
3.87342e-20
6.41403e-18
3.67469e-16
1.02818e-14
1.69023e-13
1.82768e-12
1.40251e-11
8.05984e-11
3.606e-10
1.28918e-09
3.75608e-09
9.10347e-09
1.85429e-08
3.21434e-08
4.9088e-08
6.88506e-08
6.79324e-08
1.48327e-07
2.12612e-07
1.99705e-07
2.21962e-07
1.90932e-07
2.84784e-07
2.94522e-07
4.49886e-07
2.41552e-07
2.71702e-07
2.99455e-07
4.11667e-07
8.80091e-07
2.38899e-06
3.01572e-06
1.45923e-06
6.58784e-07
4.51638e-07
3.23766e-07
2.67934e-07
2.34091e-07
1.99608e-07
1.5761e-07
1.10731e-07
6.67967e-08
3.32902e-08
1.31287e-08
3.92745e-09
1.03795e-09
1.07399e-09
3.25181e-09
8.82035e-09
3.62934e-22
2.67999e-19
3.51712e-17
1.71443e-15
4.24315e-14
6.31786e-13
6.28275e-12
4.47628e-11
2.40121e-10
1.005e-09
3.36432e-09
9.17809e-09
2.07724e-08
3.97241e-08
6.54672e-08
9.44467e-08
1.25956e-07
1.28269e-07
2.24498e-07
2.80604e-07
2.41469e-07
2.96205e-07
3.18112e-07
3.13235e-07
3.4366e-07
3.51726e-07
6.89167e-07
2.81554e-07
2.95007e-07
3.14552e-07
3.98746e-07
7.55298e-07
1.09915e-06
6.59856e-07
4.02533e-07
3.05403e-07
2.89181e-07
2.77174e-07
2.6542e-07
2.44047e-07
2.0717e-07
1.59511e-07
1.07729e-07
6.12541e-08
2.81503e-08
9.97237e-09
2.73632e-09
1.40367e-09
3.55749e-09
1.00754e-08
2.76405e-21
1.47394e-18
1.57552e-16
6.62995e-15
1.4641e-13
1.98499e-12
1.82141e-11
1.2075e-10
6.05741e-10
2.37739e-09
7.47676e-09
1.91921e-08
4.08758e-08
7.36743e-08
1.14855e-07
1.57942e-07
1.98975e-07
2.16919e-07
3.61568e-07
3.53841e-07
2.65503e-07
2.89501e-07
9.21445e-07
4.28472e-07
3.80153e-07
3.4902e-07
3.15651e-07
3.04874e-07
3.15319e-07
3.16697e-07
3.3911e-07
3.89882e-07
4.53579e-07
4.06799e-07
3.74491e-07
6.0406e-07
3.00424e-07
3.15632e-07
3.38121e-07
3.35676e-07
2.80456e-07
2.16999e-07
1.5717e-07
1.00039e-07
5.29302e-08
2.2183e-08
7.11784e-09
2.37696e-09
3.62006e-09
1.05103e-08
1.56087e-20
6.33403e-18
5.66042e-16
2.08867e-14
4.15614e-13
5.16486e-12
4.39198e-11
2.71697e-10
1.27697e-09
4.70594e-09
1.39183e-08
3.3653e-08
6.77019e-08
1.16011e-07
1.7474e-07
2.40617e-07
3.19222e-07
4.28323e-07
6.73543e-07
4.47127e-07
5.30375e-07
4.3785e-07
6.55781e-07
5.34785e-07
4.37699e-07
3.79254e-07
3.454e-07
3.27512e-07
3.16076e-07
4.05682e-07
3.56422e-07
3.98492e-07
4.1384e-07
4.12965e-07
4.07086e-07
4.38446e-07
4.09352e-07
4.55922e-07
5.99286e-07
7.07461e-07
5.31716e-07
3.49464e-07
2.30358e-07
1.50792e-07
8.8959e-08
4.34783e-08
1.66435e-08
5.28796e-09
3.8342e-09
1.00795e-08
6.41959e-20
2.09431e-17
1.61055e-15
5.30476e-14
9.63089e-13
1.10707e-11
8.78384e-11
5.09699e-10
2.25376e-09
7.82603e-09
2.18322e-08
4.98628e-08
9.51349e-08
1.56204e-07
2.31302e-07
3.31354e-07
4.95866e-07
8.24571e-07
1.00683e-06
1.2402e-06
1.4305e-06
9.26619e-07
9.30784e-07
7.99798e-07
5.94466e-07
4.65985e-07
3.91202e-07
3.51669e-07
3.55087e-07
3.55295e-07
5.46092e-07
5.41915e-07
5.11921e-07
4.9867e-07
4.96486e-07
5.13454e-07
5.59633e-07
6.56143e-07
6.95551e-07
1.52323e-06
8.57458e-07
6.65027e-07
4.14435e-07
2.44132e-07
1.4373e-07
7.7419e-08
3.46767e-08
1.24413e-08
5.34453e-09
9.16972e-09
1.92749e-19
5.32316e-17
3.63225e-15
1.09012e-13
1.83276e-12
1.97091e-11
1.47217e-10
8.07385e-10
3.38121e-09
1.11285e-08
2.94334e-08
6.37872e-08
1.15857e-07
1.82588e-07
2.65099e-07
3.85935e-07
6.10912e-07
1.04292e-06
1.2417e-06
2.80911e-06
6.15249e-06
5.57654e-06
2.69765e-06
7.13407e-07
6.89892e-07
5.34587e-07
4.27597e-07
3.70722e-07
3.5273e-07
3.88713e-07
4.37172e-07
5.27414e-07
5.34528e-07
5.51332e-07
5.34461e-07
5.22635e-07
5.41795e-07
5.4612e-07
2.92287e-06
1.32826e-05
1.21077e-05
2.00295e-06
9.9015e-07
5.07112e-07
2.63092e-07
1.37611e-07
6.68367e-08
2.75347e-08
1.03026e-08
8.93369e-09
4.31026e-19
1.05557e-16
6.58241e-15
1.83772e-13
2.90553e-12
2.95924e-11
2.1032e-10
1.10062e-09
4.4047e-09
1.38611e-08
3.5063e-08
7.27761e-08
1.27291e-07
1.96744e-07
2.91964e-07
4.5127e-07
6.77611e-07
1.37446e-06
1.28141e-06
4.10721e-06
8.1309e-06
9.88886e-06
4.30725e-06
1.05578e-06
9.57304e-07
6.42291e-07
4.52061e-07
3.72647e-07
3.50501e-07
3.47263e-07
1.22142e-06
8.10412e-07
9.79265e-07
5.61084e-07
5.58568e-07
5.56278e-07
6.18592e-07
5.46265e-07
1.0574e-05
1.3503e-05
1.34982e-05
1.06346e-05
9.04046e-07
5.69634e-07
3.67326e-07
2.14392e-07
1.14632e-07
5.4057e-08
2.19459e-08
1.13448e-08
7.37204e-19
1.66345e-16
9.7328e-15
2.57848e-13
3.89548e-12
3.8073e-11
2.60409e-10
1.31394e-09
5.07621e-09
1.54349e-08
3.77724e-08
7.6044e-08
1.29683e-07
1.97517e-07
2.96544e-07
3.84357e-07
1.1017e-06
8.11013e-07
3.22884e-06
2.14525e-05
2.92107e-05
2.92052e-05
2.28181e-05
2.58132e-06
5.27725e-07
5.14775e-07
4.09914e-07
3.6368e-07
3.52377e-07
3.83734e-07
3.99415e-07
6.75213e-07
8.16452e-07
7.56042e-07
6.38275e-07
5.57985e-07
8.19928e-07
5.47574e-07
6.3167e-06
1.35069e-05
1.35052e-05
8.61409e-06
5.99297e-07
5.70736e-07
4.24999e-07
2.77256e-07
1.6722e-07
9.11336e-08
4.30251e-08
1.94151e-08
9.88275e-19
2.11996e-16
1.19217e-14
3.05295e-13
4.47531e-12
4.25276e-11
2.83209e-10
1.39279e-09
5.25081e-09
1.56064e-08
3.74336e-08
7.41742e-08
1.25179e-07
1.89357e-07
2.81843e-07
4.61225e-07
9.18313e-07
7.08833e-07
9.66416e-06
2.92131e-05
2.9208e-05
2.91969e-05
2.9195e-05
1.18828e-05
4.47671e-07
4.33142e-07
3.7398e-07
5.87425e-07
3.58296e-07
3.94444e-07
5.14639e-07
5.16054e-07
1.68197e-06
1.19802e-06
8.39451e-07
6.21292e-07
4.5807e-07
9.79853e-07
7.30327e-07
5.93421e-06
6.62632e-06
2.2141e-06
2.81425e-06
9.11455e-07
6.46076e-07
4.05819e-07
2.4965e-07
1.46997e-07
7.83413e-08
3.74032e-08
1.06074e-18
2.22276e-16
1.22667e-14
3.09117e-13
4.4636e-12
4.18067e-11
2.74515e-10
1.33215e-09
4.96229e-09
1.46048e-08
3.48021e-08
6.87681e-08
1.15989e-07
1.74441e-07
2.53675e-07
2.90191e-07
1.08517e-06
7.05698e-07
1.07712e-05
2.92158e-05
2.92011e-05
2.91955e-05
2.91959e-05
1.28048e-05
4.38322e-07
4.23339e-07
3.73813e-07
3.52982e-07
3.57351e-07
3.91093e-07
4.68038e-07
5.7443e-07
6.31943e-07
6.29623e-07
5.36332e-07
4.69254e-07
4.5418e-07
5.1966e-07
7.26014e-07
5.83833e-07
5.391e-07
7.25759e-07
7.60793e-07
7.23884e-07
6.32021e-07
4.88895e-07
3.47087e-07
2.2726e-07
1.3513e-07
7.16296e-08
9.24922e-19
1.94348e-16
1.07437e-14
2.70712e-13
3.90611e-12
3.65592e-11
2.39917e-10
1.1639e-09
4.33877e-09
1.28062e-08
3.06945e-08
6.11865e-08
1.04102e-07
1.55799e-07
2.13413e-07
2.84161e-07
3.52252e-07
7.04457e-07
7.05192e-07
1.79335e-05
2.92012e-05
2.91958e-05
2.11556e-05
1.31057e-06
5.93226e-07
4.35634e-07
3.8482e-07
3.7437e-07
3.83647e-07
4.02464e-07
4.3384e-07
4.73254e-07
4.8681e-07
4.61519e-07
4.22904e-07
4.01835e-07
3.96712e-07
4.17477e-07
4.87037e-07
5.20359e-07
5.23068e-07
5.32928e-07
4.02742e-07
1.22063e-06
9.07249e-07
6.48088e-07
4.97555e-07
3.35855e-07
2.11086e-07
1.22318e-07
6.60716e-19
1.42647e-16
8.04581e-15
2.06172e-13
3.01959e-12
2.86398e-11
1.90295e-10
9.34886e-10
3.53267e-09
1.05869e-08
2.58236e-08
5.25346e-08
9.14063e-08
1.39576e-07
1.92039e-07
2.4398e-07
2.92657e-07
3.91527e-07
8.16502e-07
2.12445e-06
3.86773e-06
5.05033e-06
2.0393e-06
9.77213e-07
5.94379e-07
4.43002e-07
4.00339e-07
4.08416e-07
4.24185e-07
4.24594e-07
4.31527e-07
4.36187e-07
4.34814e-07
4.21861e-07
3.99093e-07
6.74579e-07
3.84599e-07
3.9305e-07
4.12978e-07
4.29403e-07
4.33219e-07
4.24398e-07
4.00608e-07
4.28203e-07
4.83999e-07
1.22488e-06
8.79612e-07
6.83526e-07
4.31564e-07
2.54122e-07
3.8653e-19
8.75674e-17
5.13723e-15
1.36188e-13
2.05454e-12
2.00261e-11
1.36642e-10
6.89217e-10
2.67492e-09
8.24159e-09
2.0697e-08
4.34111e-08
7.78756e-08
1.22144e-07
1.70386e-07
2.13427e-07
2.2915e-07
3.8754e-07
4.65064e-07
6.74377e-07
7.9958e-07
8.56221e-07
6.09964e-07
4.85371e-07
4.22825e-07
4.21984e-07
4.50092e-07
4.67872e-07
4.48945e-07
5.3011e-07
4.33686e-07
9.65215e-07
4.45431e-07
4.37076e-07
4.13793e-07
3.88063e-07
3.77868e-07
3.7475e-07
4.05848e-07
4.134e-07
4.26027e-07
4.20446e-07
4.02434e-07
3.89975e-07
4.58401e-07
5.18643e-07
8.54175e-07
1.09554e-06
9.93852e-07
6.46707e-07
1.83211e-19
4.45731e-17
2.78016e-15
7.75808e-14
1.22468e-12
1.24508e-11
8.85167e-11
4.652e-10
1.8823e-09
6.04919e-09
1.58486e-08
3.46714e-08
6.48034e-08
1.05734e-07
1.53303e-07
2.0009e-07
2.37608e-07
2.51298e-07
3.93733e-07
4.06944e-07
3.83167e-07
3.68028e-07
3.77556e-07
3.73761e-07
3.9427e-07
3.96284e-07
9.62898e-07
6.45625e-07
6.20559e-07
5.86005e-07
5.23252e-07
5.41436e-07
4.4953e-07
5.53926e-07
4.27746e-07
4.15429e-07
3.96297e-07
3.87439e-07
3.86613e-07
4.62058e-07
4.32919e-07
4.54014e-07
4.45143e-07
4.23412e-07
4.20479e-07
4.32348e-07
5.63556e-07
7.34826e-07
9.98197e-07
7.71342e-07
7.02986e-20
1.87928e-17
1.26735e-15
3.78656e-14
6.36234e-13
6.86116e-12
5.16483e-11
2.87133e-10
1.22827e-09
4.17121e-09
1.15402e-08
2.66193e-08
5.22924e-08
8.9182e-08
1.34244e-07
1.81005e-07
2.21701e-07
2.50406e-07
2.66051e-07
2.85781e-07
3.01748e-07
3.01083e-07
7.36559e-07
3.2943e-07
3.72809e-07
4.20479e-07
4.41662e-07
4.97444e-07
4.83069e-07
4.25877e-07
9.33255e-07
1.89303e-05
3.97051e-05
3.47789e-05
1.19293e-05
4.32067e-07
4.67987e-07
4.36196e-07
4.30359e-07
4.3024e-07
8.44337e-07
5.50753e-07
5.14933e-07
4.74477e-07
4.83814e-07
4.84516e-07
5.0026e-07
5.18431e-07
7.42217e-07
8.37125e-07
2.17666e-20
6.52539e-18
4.8529e-16
1.58109e-14
2.87471e-13
3.33894e-12
2.69704e-11
1.60514e-10
7.34241e-10
2.66573e-09
7.88096e-09
1.9384e-08
4.04378e-08
7.27586e-08
1.14456e-07
1.59437e-07
1.97432e-07
2.20653e-07
2.68268e-07
2.80633e-07
2.90585e-07
3.00728e-07
2.94641e-07
3.15981e-07
3.30776e-07
3.61716e-07
3.79529e-07
3.68407e-07
3.38883e-07
3.2588e-07
2.42242e-05
4.91944e-05
4.91777e-05
4.91756e-05
4.91893e-05
1.28405e-05
4.76319e-07
4.99623e-07
4.44591e-07
6.14758e-07
6.50701e-07
6.29563e-07
5.6934e-07
5.07217e-07
5.31186e-07
4.92004e-07
4.86007e-07
1.32506e-06
8.33671e-07
7.67767e-07
5.42058e-21
1.85005e-18
1.5468e-16
5.58518e-15
1.11506e-13
1.41233e-12
1.23905e-11
7.99363e-11
3.95788e-10
1.55311e-09
4.94999e-09
1.30831e-08
2.92256e-08
5.60983e-08
9.36843e-08
1.37368e-07
1.65367e-07
1.6818e-07
8.45762e-07
2.85151e-07
2.81735e-07
2.86533e-07
2.93205e-07
2.90944e-07
7.72085e-07
3.08314e-07
3.23858e-07
3.28813e-07
3.25827e-07
3.25556e-07
4.20773e-05
4.91917e-05
4.91711e-05
4.91668e-05
4.91759e-05
3.43597e-05
1.26371e-06
5.00846e-07
4.94177e-07
4.88777e-07
5.01411e-07
5.07459e-07
4.93409e-07
4.72323e-07
4.72004e-07
3.07717e-05
5.0888e-05
5.09163e-05
2.00577e-05
7.84377e-07
1.06826e-21
4.28175e-19
4.10755e-17
1.67157e-15
3.71173e-14
5.18405e-13
4.99033e-12
3.52138e-11
1.90081e-10
8.10464e-10
2.79628e-09
7.97583e-09
1.91918e-08
3.97094e-08
7.1663e-08
1.13638e-07
1.18319e-07
2.54824e-07
1.42291e-07
2.52899e-07
2.74906e-07
2.72616e-07
4.31921e-07
2.89791e-07
2.83437e-07
2.93312e-07
3.13312e-07
3.24345e-07
3.2555e-07
3.2555e-07
3.85841e-05
4.92004e-05
4.91778e-05
4.91683e-05
4.9167e-05
3.09229e-05
8.32472e-07
5.18785e-07
9.71115e-07
4.97097e-07
5.48479e-07
4.75923e-07
4.74045e-07
4.70047e-07
2.62181e-05
5.09853e-05
5.09541e-05
5.09152e-05
5.09134e-05
2.25281e-05
1.58428e-22
7.82514e-20
8.9771e-18
4.25106e-16
1.0767e-14
1.69102e-13
1.80799e-12
1.39868e-11
8.18713e-11
3.76358e-10
1.39725e-09
4.28896e-09
1.11191e-08
2.48341e-08
4.85398e-08
8.36813e-08
1.27366e-07
1.33059e-07
1.35197e-07
8.42934e-07
3.22707e-07
2.95394e-07
2.67303e-07
3.01583e-07
2.81699e-07
5.57393e-07
3.20908e-07
3.32646e-07
3.29611e-07
3.25556e-07
2.98949e-05
4.92181e-05
4.92062e-05
4.91755e-05
4.91878e-05
2.59032e-05
6.41934e-07
5.43642e-07
5.39879e-07
5.11247e-07
4.93636e-07
4.80998e-07
4.72368e-07
4.70042e-07
2.21147e-05
5.09509e-05
5.09138e-05
5.09074e-05
5.09539e-05
2.70574e-05
1.79072e-23
1.15766e-20
1.67515e-18
9.68645e-17
2.91255e-15
5.25646e-14
6.25627e-13
5.2524e-12
3.28186e-11
1.5983e-10
6.2769e-10
2.04561e-09
5.66782e-09
1.35981e-08
2.8714e-08
5.38836e-08
8.97804e-08
1.32537e-07
1.56264e-07
1.59868e-07
3.79745e-07
2.80616e-07
2.65521e-07
2.6268e-07
2.80636e-07
2.82264e-07
3.16247e-07
3.44204e-07
3.58248e-07
3.47366e-07
9.99458e-07
2.52622e-05
4.82197e-05
4.83074e-05
2.34543e-05
6.75441e-07
5.54679e-07
9.12298e-07
5.26562e-07
6.52265e-07
4.822e-07
4.78669e-07
4.72058e-07
4.70042e-07
2.63877e-05
5.09235e-05
5.0909e-05
5.08881e-05
5.0904e-05
3.43686e-05
1.57096e-24
1.41889e-21
2.81784e-19
2.14875e-17
7.99474e-16
1.67741e-14
2.21436e-13
1.99641e-12
1.31328e-11
6.64763e-11
2.69745e-10
9.11016e-10
2.63219e-09
6.64224e-09
1.4899e-08
3.00388e-08
5.44719e-08
8.81141e-08
8.51641e-08
2.33291e-07
1.38862e-07
1.97225e-07
2.32775e-07
2.59067e-07
2.77652e-07
2.9511e-07
3.20927e-07
3.569e-07
4.10316e-07
5.23558e-07
5.69361e-07
8.11644e-07
5.65519e-07
5.62795e-07
5.62545e-07
1.04407e-06
5.50339e-07
4.95382e-07
5.00827e-07
4.66665e-07
4.84877e-07
4.83779e-07
4.76808e-07
4.7045e-07
4.70535e-07
3.36411e-05
5.08978e-05
5.0887e-05
4.33633e-05
5.7603e-06
1.10732e-25
1.53911e-22
4.75367e-20
5.10128e-18
2.36344e-16
5.67585e-15
8.14524e-14
7.74916e-13
5.28171e-12
2.74009e-11
1.13473e-10
3.91006e-10
1.15605e-09
3.00655e-09
7.00246e-09
1.48058e-08
2.86153e-08
5.02665e-08
7.93477e-08
7.26274e-08
1.23889e-07
1.68465e-07
1.98452e-07
2.39239e-07
2.70015e-07
2.81755e-07
2.99979e-07
3.31822e-07
3.81931e-07
4.71083e-07
5.17475e-07
8.62505e-07
1.23217e-06
1.23106e-06
5.98179e-07
5.04284e-07
4.93132e-07
4.69763e-07
4.50426e-07
4.29209e-07
5.8237e-07
4.70481e-07
4.76914e-07
4.77593e-07
4.85353e-07
1.40209e-06
1.55714e-06
1.73161e-06
5.82681e-07
5.93544e-07
6.60826e-27
1.50893e-23
8.22289e-21
1.2613e-18
7.09039e-17
1.89491e-15
2.88727e-14
2.84279e-13
1.9797e-12
1.04367e-11
4.39093e-11
1.53926e-10
4.64555e-10
1.23882e-09
2.97592e-09
6.5299e-09
1.32173e-08
2.4705e-08
4.23594e-08
6.64131e-08
9.55978e-08
1.27828e-07
1.4308e-07
1.78148e-07
3.38428e-07
2.77737e-07
2.74969e-07
2.93653e-07
3.37775e-07
4.07132e-07
4.73399e-07
4.79408e-07
5.31136e-07
5.27654e-07
5.38273e-07
4.93578e-07
4.48076e-07
4.16802e-07
3.96249e-07
4.24663e-07
4.19024e-07
4.18185e-07
3.97435e-07
4.01014e-07
1.94399e-06
4.11816e-06
2.28513e-06
5.11823e-07
4.9303e-07
4.905e-07
3.05251e-28
1.3092e-24
1.5495e-21
3.151e-19
2.00726e-17
5.74134e-16
9.13204e-15
9.26102e-14
6.57743e-13
3.51772e-12
1.4997e-11
5.33542e-11
1.6413e-10
4.48402e-10
1.1099e-09
2.52386e-09
5.32793e-09
1.04922e-08
1.92378e-08
3.27069e-08
5.15142e-08
7.54891e-08
7.33285e-08
2.01581e-07
2.15318e-07
2.34654e-07
2.33591e-07
2.45657e-07
2.72911e-07
3.10181e-07
3.48211e-07
3.77832e-07
3.86828e-07
3.87594e-07
3.88096e-07
3.89321e-07
3.91421e-07
3.92478e-07
3.90698e-07
3.85651e-07
3.82775e-07
3.80499e-07
3.792e-07
1.98539e-06
8.87388e-06
8.87011e-06
6.36114e-06
1.90752e-06
8.47352e-07
4.81986e-07
9.68143e-30
1.38232e-25
2.84347e-22
6.99217e-20
5.0584e-18
1.66138e-16
3.02992e-15
3.38071e-14
2.5059e-13
1.34066e-12
5.57705e-12
1.919e-11
5.72887e-11
1.53563e-10
3.78546e-10
8.70967e-10
1.88719e-09
3.86659e-09
7.48639e-09
1.36472e-08
2.33363e-08
3.73678e-08
5.59457e-08
5.55483e-08
7.92214e-08
1.12228e-07
1.46021e-07
1.79605e-07
2.14904e-07
2.52298e-07
2.88465e-07
3.18969e-07
3.42463e-07
3.60883e-07
3.757e-07
3.89418e-07
4.04501e-07
4.13828e-07
3.95731e-07
4.81807e-07
3.87235e-07
3.85934e-07
3.7951e-07
1.30908e-06
6.16648e-06
4.00666e-06
4.05575e-06
3.79337e-05
0.000114493
0.000108665
1.63716e-31
1.51626e-26
4.48347e-23
1.61654e-20
2.37916e-18
1.45643e-16
3.69179e-15
4.62737e-14
3.41203e-13
1.69144e-12
6.22072e-12
1.82739e-11
4.54334e-11
1.00128e-10
2.03889e-10
3.97448e-10
7.60818e-10
1.44767e-09
2.73498e-09
5.07695e-09
9.13366e-09
1.57338e-08
2.57283e-08
3.9812e-08
5.8314e-08
8.09031e-08
1.06672e-07
1.35088e-07
1.66811e-07
2.02164e-07
2.39137e-07
2.74766e-07
3.08609e-07
3.42115e-07
3.73128e-07
4.01988e-07
4.32268e-07
4.47559e-07
4.47038e-07
4.49808e-07
4.21233e-07
4.16347e-07
4.46775e-07
4.48281e-07
4.50762e-07
4.52361e-07
4.74321e-05
0.000133341
0.000133343
0.000133132
1.3725e-33
1.42199e-27
1.24887e-23
2.81653e-20
8.45824e-18
5.66894e-16
1.35447e-14
1.56043e-13
1.05902e-12
4.85557e-12
1.65442e-11
4.48276e-11
1.01487e-10
1.98829e-10
3.47099e-10
5.54122e-10
8.29879e-10
1.19955e-09
1.72904e-09
2.56643e-09
3.9961e-09
6.49177e-09
1.07402e-08
1.7609e-08
2.80305e-08
4.27332e-08
6.19486e-08
8.5446e-08
1.14035e-07
1.49195e-07
1.90406e-07
2.35143e-07
2.82634e-07
3.34805e-07
3.83653e-07
4.19798e-07
4.58623e-07
4.78681e-07
4.57245e-07
5.02521e-07
9.46038e-07
9.36959e-07
5.00841e-07
4.80846e-07
4.94729e-07
4.53897e-07
9.19145e-05
0.000133267
0.00013316
0.000133044
2.10876e-35
3.49127e-28
6.33829e-23
1.7062e-19
4.24435e-17
2.39856e-15
5.00027e-14
5.17437e-13
3.22768e-12
1.38459e-11
4.47435e-11
1.16159e-10
2.53765e-10
4.81822e-10
8.15291e-10
1.25361e-09
1.7781e-09
2.35508e-09
2.94674e-09
3.53566e-09
4.16464e-09
4.98952e-09
6.34492e-09
8.81183e-09
1.32539e-08
2.07538e-08
3.23265e-08
4.83682e-08
7.0422e-08
1.01777e-07
1.44058e-07
1.95196e-07
2.527e-07
3.24886e-07
3.9492e-07
4.15111e-07
5.74607e-07
5.11625e-07
4.58355e-07
8.89556e-07
2.76325e-06
1.62639e-06
5.10685e-07
6.14551e-07
4.80061e-07
4.55887e-07
9.25072e-05
0.000132978
0.000133044
0.00013284
5.35938e-37
3.15494e-27
4.90124e-22
9.63582e-19
1.90042e-16
9.00791e-15
1.64062e-13
1.52962e-12
8.79981e-12
3.54381e-11
1.08979e-10
2.72111e-10
5.76585e-10
1.06983e-09
1.78038e-09
2.70635e-09
3.80907e-09
5.01283e-09
6.20902e-09
7.27669e-09
8.11698e-09
8.68582e-09
9.04095e-09
9.42096e-09
1.03518e-08
1.27359e-08
1.77923e-08
2.65636e-08
4.09693e-08
6.49059e-08
1.01544e-07
1.50816e-07
2.06841e-07
2.87402e-07
3.82128e-07
5.5769e-07
4.70702e-07
4.46078e-07
4.51083e-07
2.87067e-06
3.28933e-06
2.30969e-06
5.33534e-07
5.55611e-07
5.4506e-07
4.58546e-07
4.2466e-05
0.000130631
0.000132936
0.000132846
1.62547e-36
3.49925e-26
3.34069e-21
4.77999e-18
7.50063e-16
2.99596e-14
4.79109e-13
4.04369e-12
2.15421e-11
8.16977e-11
2.39593e-10
5.76063e-10
1.18426e-09
2.14693e-09
3.51285e-09
5.27907e-09
7.3821e-09
9.69801e-09
1.20389e-08
1.41841e-08
1.59342e-08
1.7121e-08
1.76168e-08
1.73903e-08
1.66315e-08
1.58884e-08
1.61821e-08
1.89592e-08
2.60712e-08
4.04925e-08
6.53559e-08
1.05487e-07
1.53559e-07
1.75948e-07
4.44066e-07
5.52346e-07
4.73836e-07
4.04765e-07
1.62121e-06
3.09254e-06
2.96774e-06
2.42935e-06
5.66299e-06
3.76831e-06
9.96206e-07
5.39918e-07
8.26622e-07
3.88306e-05
7.66873e-05
8.20732e-05
4.3909e-35
3.39241e-25
1.99575e-20
2.08893e-17
2.62342e-15
8.88686e-14
1.25586e-12
9.65148e-12
4.78459e-11
1.71519e-10
4.80895e-10
1.1149e-09
2.22398e-09
3.93697e-09
6.32644e-09
9.38336e-09
1.30068e-08
1.70092e-08
2.10909e-08
2.49071e-08
2.81893e-08
3.07017e-08
3.21838e-08
3.23731e-08
3.11811e-08
2.88062e-08
2.58891e-08
2.36792e-08
2.41136e-08
2.9994e-08
4.43608e-08
7.68347e-08
1.34924e-07
2.05875e-07
2.6197e-07
3.36307e-07
4.02542e-07
4.02934e-07
2.5053e-06
3.09083e-06
1.10724e-06
5.15407e-06
2.081e-05
1.77883e-05
4.09253e-06
1.30045e-06
1.25652e-06
1.28465e-06
1.31777e-06
1.33218e-06
1.03531e-33
2.87369e-24
1.04848e-19
8.08472e-17
8.18849e-15
2.37127e-13
2.98402e-12
2.10245e-11
9.75339e-11
3.31911e-10
8.92215e-10
1.99779e-09
3.86747e-09
6.68062e-09
1.05311e-08
1.53927e-08
2.11059e-08
2.73959e-08
3.37849e-08
3.97596e-08
4.50693e-08
4.95031e-08
5.27074e-08
5.41522e-08
5.35565e-08
5.08324e-08
4.61798e-08
4.03724e-08
3.50381e-08
3.26373e-08
3.68333e-08
5.53913e-08
9.33148e-08
1.57258e-07
2.88592e-07
3.67706e-07
4.56349e-07
4.07096e-07
2.50855e-06
1.59107e-06
7.64793e-07
1.82453e-05
2.08116e-05
2.08087e-05
7.47435e-06
1.3858e-06
1.61338e-06
1.4002e-06
1.65855e-06
1.44425e-06