/*--------------------------------*- C++ -*----------------------------------*\
| =========                 |                                                 |
| \\      /  F ield         | OpenFOAM: The Open Source CFD Toolbox           |
|  \\    /   O peration     | Version:  2.4.0                                 |
|   \\  /    A nd           | Web:      www.OpenFOAM.org                      |
|    \\/     M anipulation  |                                                 |
\*---------------------------------------------------------------------------*/
FoamFile
{
    version     2.0;
    format      ascii;
    class       volScalarField;
    location    "0.116";
    object      p;
}
// * * * * * * * * * * * * * * * * * * * * * * * * * * * * * * * * * * * * * //

dimensions      [1 -1 -2 0 0 0 0];

internalField   nonuniform List<scalar> 
3600
(
105.535
105.277
103.563
100.667
97.5531
93.7125
90.0262
86.4674
83.4571
81.151
80.6346
80.6921
82.8646
84.9658
87.6868
90.6291
92.6463
94.2582
95.9735
96.562
95.8516
95.1452
95.5293
96.0306
96.5486
96.8242
97.3995
98.6841
99.442
98.3727
102.281
102.024
100.308
97.4085
94.2964
90.4485
86.7619
83.1967
80.174
77.8541
77.3291
77.3822
79.5401
81.6606
84.3994
87.3687
89.41
91.1084
92.5645
93.3424
92.1799
91.5924
91.6978
92.1604
92.6987
93.156
93.7088
95.0674
96.1263
96.3667
99.0279
98.775
97.0612
94.153
91.0455
87.1839
83.4966
79.919
76.8694
74.5256
73.9776
74.0246
76.155
78.2865
81.0728
84.0849
86.0924
87.8319
89.3236
90.1241
88.6821
87.5666
87.4491
88.0398
88.8063
89.6519
90.8293
94.2232
94.0419
93.9959
95.7762
95.5327
93.8223
90.9022
87.7997
83.9189
80.2304
76.6339
73.5429
71.1637
70.5824
70.6201
72.7247
74.8627
77.7046
80.763
82.6902
84.4651
85.976
86.8921
84.9741
83.1529
82.6567
83.2935
84.5413
85.9584
87.2711
89.0779
89.6774
90.0752
92.526
92.2964
90.5917
87.656
84.5591
80.6534
76.9633
73.3415
70.1942
67.7675
67.1404
67.1649
69.2889
71.4218
74.2861
77.381
79.2376
81.067
82.4727
83.2678
81.1873
78.8004
77.6344
78.2681
79.9701
81.9606
83.7313
85.0406
85.857
86.3727
89.2773
89.0661
87.3696
84.4145
81.3238
77.3873
73.6958
70.0422
66.8232
64.3361
63.6476
63.6467
65.8349
67.9874
70.8173
73.9419
75.8202
77.6977
78.9257
79.5026
77.5968
75.0105
73.6376
74.3084
76.0089
78.1032
79.905
81.2073
82.1304
82.5747
86.0299
85.8418
84.1559
81.1775
78.0937
74.1206
70.4284
66.7365
63.4295
60.8696
60.1042
60.045
62.3136
64.5548
67.4745
70.4927
72.4792
74.3982
75.4422
75.9107
74.3678
72.0516
70.8587
71.2918
72.8656
74.9784
76.6881
77.8387
78.6822
79.1006
82.7838
82.6234
80.951
77.945
74.869
70.8529
67.1617
63.4249
60.0132
57.3689
56.5098
56.3699
58.7005
61.0868
64.2028
67.1107
69.2149
71.1421
72.0385
72.748
71.6858
69.7273
68.6289
69.1012
70.4542
72.4428
74.1428
75.2003
75.9074
76.3243
79.5388
79.411
77.7548
74.717
71.6495
67.5842
63.8964
60.108
56.5741
53.8341
52.8635
52.6637
55.0022
57.5545
60.9141
63.7905
65.9465
67.8963
68.7799
69.6412
69.0634
68.2112
66.9716
67.1868
68.7883
70.3716
71.9908
72.9646
73.3844
73.5807
76.2947
76.2045
74.5677
71.4934
68.4353
64.3142
60.6335
56.7867
53.1119
50.2639
49.1631
48.923
51.2301
53.9609
57.5412
60.4889
62.6818
64.727
65.6919
66.549
66.4692
65.9389
65.4989
65.7278
67.0189
68.4792
69.5955
70.4864
70.7833
70.8299
73.0513
73.0039
71.3898
68.2742
65.2262
61.0425
57.3738
53.462
49.6264
46.657
45.4061
45.0918
47.3714
50.3088
54.1087
57.2609
59.5138
61.6372
62.638
63.5205
63.7981
63.5851
63.9195
64.3823
65.3828
66.5321
67.2161
67.9208
68.3499
68.3924
69.8084
69.809
68.2214
65.0595
62.0221
57.769
54.1186
50.1351
46.1172
43.0133
41.5898
41.1551
43.4237
46.5998
50.6363
54.124
56.4264
58.5545
59.6654
60.5253
60.8078
61.1044
61.8201
62.8874
63.7165
64.1683
64.7713
65.3366
66.0663
66.2496
66.5655
66.6199
65.0625
61.8494
58.8228
54.4929
50.8693
46.8072
42.5839
39.3337
37.7086
37.1354
39.3786
42.8381
47.1678
51.0185
53.397
55.5033
56.835
57.8533
58.3635
58.7716
59.5693
60.3234
60.7083
61.0164
62.0258
63.1803
63.6686
63.443
63.3226
63.4364
61.9135
58.6439
55.6282
51.214
47.6273
43.4795
39.0264
35.6173
33.7587
33.0272
35.2216
39.0126
43.7196
47.9116
50.4015
52.5648
53.9075
54.9395
55.3865
56.0168
57.1985
58.6813
59.0753
58.1073
58.1423
58.8253
59.5047
59.8905
60.0791
60.2585
58.7745
55.4432
52.4379
47.9317
44.3945
40.1532
35.4444
31.8636
29.7375
28.8449
30.9146
35.115
40.2346
44.8544
47.472
49.5632
51.2313
52.3671
52.8789
53.3305
54.5178
55.234
55.1144
55.2527
55.2678
54.8073
55.6339
57.2608
56.8347
57.086
55.6457
52.2477
49.2517
44.6455
41.1724
36.8296
31.8377
28.0738
25.6487
24.4958
26.4208
31.0871
36.7787
41.8496
44.5954
46.5409
48.2772
49.7214
50.3975
51.1441
51.9607
52.3105
51.8394
51.744
52.4636
53.4205
54.8059
56.6773
53.589
53.9189
52.5273
49.0575
46.0693
41.355
37.9627
33.5101
28.2057
24.2549
21.4843
19.9289
21.7545
26.8413
33.3273
38.9347
41.7219
43.5036
45.4881
46.781
47.5767
48.1143
49.19
49.3684
48.7109
48.6266
49.7956
51.3424
52.6138
53.5896
50.3415
50.757
49.4195
45.8732
42.8902
38.0602
34.7667
30.1958
24.5484
20.4139
17.228
15.2586
16.9303
22.5692
29.8788
36.1761
38.9584
40.4467
43.2658
44.8207
45.4723
45.5357
46.2173
46.0687
45.8048
45.9079
47.0049
48.4503
49.2539
50.0598
47.0915
47.6001
46.3223
42.6954
39.7139
34.761
31.5858
26.8878
20.8663
16.5543
12.8834
10.533
11.7224
17.9129
26.4564
33.6821
36.4016
37.2482
39.8466
41.6769
42.0004
41.7626
42.3889
42.9026
43.0476
43.7718
44.839
45.8041
46.5072
47.0418
43.8385
44.4482
43.236
39.5245
36.54
31.4576
28.4208
23.5874
17.1593
12.6867
8.4711
5.63905
6.65323
13.6101
23.0736
31.1513
33.7274
33.9027
37.6938
40.001
39.0617
37.626
38.6907
39.6813
40.7742
42.6762
43.4652
43.4198
43.9063
44.2981
40.5819
41.301
40.1606
36.3612
33.3677
28.1506
25.2726
20.2959
13.4319
8.83534
3.99625
-0.0876722
-0.309725
7.93549
19.3865
29.1321
30.7373
30.891
34.3452
36.2238
35.3781
32.9869
35.6271
36.5987
38.7599
40.5142
41.1345
40.9056
41.0905
41.3941
37.3209
38.1583
37.0965
33.2064
30.1966
24.8403
22.1421
17.0196
9.70136
5.02593
-0.210286
-2.03541
-1.84193
3.78068
15.374
26.4867
28.1185
28.2366
30.4666
33.643
32.7032
28.3219
32.4231
33.4872
36.5694
38.2821
38.7152
38.539
38.6393
38.9271
34.0545
35.0198
34.0437
30.0608
27.026
21.5269
19.0307
13.7857
5.95924
1.41034
-1.07177
-2.32536
-3.92064
2.44613
14.1853
25.4956
26.8578
25.435
27.3193
31.1183
26.6298
24.2848
29.5963
31.2459
33.9661
35.8187
36.5275
36.6128
36.462
36.6112
30.7826
31.8866
31.0024
26.9252
23.8555
18.2101
15.9403
10.625
1.93018
-0.0923437
-0.0831663
-0.558189
-2.68486
3.9846
11.2282
19.3601
22.4836
22.3345
23.9591
29.4265
19.6205
19.4149
26.5905
28.7181
31.172
33.2111
34.2406
34.4148
34.1098
34.2155
27.5021
28.7355
27.9732
23.8006
20.6848
14.888
12.8598
7.46381
-1.13506
0.0394662
0.0928527
0.19369
-1.2711
3.32204
5.54789
16.6331
19.8747
20.3186
22.8523
26.538
13.2288
13.3484
22.9969
25.9463
28.3315
30.2282
31.4152
31.7239
31.6788
31.7793
24.2158
25.6929
24.9558
20.6882
17.5153
11.5583
9.72034
2.45174
-1.24954
0.0674658
0.0770107
0.184828
-0.416317
0.977163
-1.42373
14.0789
16.4482
17.1024
20.5027
23.2206
6.45097
5.01754
17.9569
23.1776
25.3888
27.0121
28.1968
28.9203
29.2173
29.3839
20.9187
22.3951
21.9514
17.5885
14.3314
8.24425
6.31344
-0.897383
-0.214198
0.021477
0.0428248
0.152597
-0.0798182
-0.499544
-3.51442
11.2693
12.6609
13.8016
16.3877
17.2191
1.36735
0.645362
13.4275
21.0401
22.579
24.2103
25.3252
26.2147
26.7143
26.9846
17.5981
19.5246
18.9588
14.5018
11.1365
4.88291
2.24044
-0.24847
-0.147468
-0.0208654
-0.000997402
0.080743
0.00266526
-0.540574
-0.450817
5.333
8.74044
10.271
11.7087
11.0359
-0.725986
0.973836
10.767
19.5754
20.5165
21.9958
22.8729
23.6487
24.1424
24.409
14.3258
16.1913
15.9878
11.4243
7.94613
0.92905
-0.537506
-0.128417
-0.13863
-0.0523584
-0.0442693
0.0149666
-0.142868
-0.503276
-0.183868
0.659546
3.82362
7.01113
7.31751
5.86613
-1.04307
2.94972
11.6763
19.3153
19.5369
20.2487
20.7563
21.2183
21.5283
21.6907
10.9218
13.2013
13.0228
8.34447
4.91357
-1.84578
-0.0799909
-0.123389
-0.128796
-0.0728275
-0.0803177
-0.0388826
-0.182478
-0.473997
-0.18815
-0.00154941
0.671521
3.9645
3.04745
1.50809
-1.38943
5.14117
12.775
18.2059
18.7729
19.2095
18.6101
18.8619
18.9184
18.9141
98.412
99.3984
98.6175
97.3774
96.7716
96.5166
95.9267
95.3567
94.9044
95.5402
96.2046
95.6303
93.8918
92.2368
90.195
87.2504
84.5534
82.5151
80.3296
80.3403
80.9802
83.4242
86.4838
90.0603
93.7435
97.5787
100.688
103.571
105.273
105.524
96.2936
96.0892
95.0523
93.6767
93.1101
92.6593
92.0563
91.5169
91.3487
91.878
92.9916
92.2304
90.7405
88.9976
86.9313
83.9598
81.2482
79.1922
77.0189
77.0335
77.6834
80.1428
83.2137
86.7963
90.4794
94.322
97.4293
100.317
102.019
102.27
94.0294
94.0396
94.2311
90.7675
89.6026
88.7482
87.9281
87.2645
87.3135
88.3734
89.7535
88.9918
87.4595
85.6726
83.6404
80.6276
77.8742
75.8111
73.6595
73.6795
74.3551
76.8416
79.937
83.5316
87.2147
91.0715
94.1735
97.0698
98.7706
99.0166
90.0774
89.5468
89.0179
87.2566
85.918
84.4641
83.1631
82.4686
82.8934
84.6463
86.4803
85.6661
84.0847
82.2576
80.3073
77.2507
74.4514
72.3869
70.2523
70.2827
70.9935
73.5206
76.6534
80.2661
83.9496
87.826
90.9225
93.8309
95.5282
95.7648
86.3789
85.8298
85.0138
83.7108
81.9223
79.8797
78.1191
77.4383
78.5069
80.8494
82.8902
82.1219
80.6672
78.7883
76.9094
73.8186
71.0125
68.9607
66.7931
66.834
67.5978
70.1793
73.3632
77.0002
80.684
84.5857
87.6762
90.6003
92.2918
92.5145
82.5802
82.1267
81.1988
79.9008
78.0841
75.931
74.1665
73.4453
74.7078
77.2512
79.1532
78.5515
77.2747
75.3499
73.449
70.3524
67.5815
65.516
63.2707
63.3325
64.1673
66.8177
70.0665
73.7341
77.4178
81.3507
84.4345
87.3781
89.0614
89.2656
79.1079
78.6967
77.8508
76.6999
74.9791
72.8169
71.1943
70.6787
71.7869
74.0304
75.5448
75.0495
73.95
71.9839
69.9711
66.9919
64.1536
62.0062
59.6624
59.7779
60.7022
63.4358
66.7638
70.4683
74.1508
78.1209
81.1975
84.1645
85.8369
86.0181
76.336
75.922
75.2182
74.1639
72.4492
70.431
69.0426
68.4862
69.4842
71.3244
72.3872
71.6309
70.6667
68.6872
66.5537
63.7105
60.6931
58.4106
55.9815
56.1695
57.2035
60.0334
63.4556
67.2034
70.8829
74.8965
77.9649
80.9596
82.6184
82.7718
73.5892
73.3903
72.9809
72.0042
70.3518
68.7359
67.1099
66.8163
67.9857
68.7715
69.2866
68.3544
67.3919
65.3866
63.1874
60.3974
57.1719
54.7394
52.2702
52.5042
53.6718
56.6107
60.1425
63.9402
67.6137
71.6774
74.7368
77.7635
79.4058
79.5266
70.8267
70.7449
70.4405
69.5344
68.4252
66.9831
65.6931
65.4042
65.7818
66.1783
66.2029
65.2534
64.1941
62.0793
59.8421
56.9903
53.5963
51.0047
48.5209
48.7806
50.1059
53.1677
56.8254
60.6794
64.3431
68.4634
71.5132
74.5764
76.1991
76.2822
68.3666
68.2457
67.7689
67.1145
66.4754
65.3434
64.3127
63.8177
63.3943
63.5158
63.1686
62.1953
61.0817
58.8629
56.5541
53.5201
49.9701
47.1955
44.6766
44.9943
46.505
49.7041
53.5052
57.4222
61.0708
65.2547
68.2941
71.3986
72.9982
73.0385
66.2185
65.8229
65.0833
64.6579
64.0812
63.5414
62.8142
61.7765
60.9959
60.6268
60.1976
59.2177
57.9759
55.7138
53.3515
49.9914
46.3007
43.3142
40.7193
41.1415
42.8695
46.2197
50.1832
54.1695
57.7963
62.0508
65.0794
68.2302
69.803
69.7952
63.4247
63.5913
63.1371
62.1038
61.1988
60.8647
60.3782
59.5798
58.6508
58.0698
57.4926
56.353
54.8997
52.6277
50.1345
46.4655
42.5881
39.3628
36.6798
37.2154
39.2008
42.7142
46.8605
50.9226
54.5191
58.8519
61.8693
65.0714
66.6136
66.552
59.8028
59.3749
58.6944
58.1014
58.0816
58.8937
58.8336
57.2951
55.9734
55.2525
54.5831
53.4564
51.9157
49.5333
46.9222
42.9181
38.8366
35.3302
32.5383
33.2113
35.4993
39.1874
43.5386
47.6831
51.2388
55.6575
58.6638
61.9225
63.4297
63.3087
57.1375
55.6841
55.1818
55.8739
55.655
55.5078
55.4375
54.5796
53.3736
52.6659
51.9088
50.6887
48.9122
46.5371
43.7268
39.326
35.0287
31.1951
28.2854
29.1248
31.7653
35.6389
40.219
44.4524
47.9549
52.4674
55.4632
58.7837
60.2514
60.0648
56.6253
54.8897
53.637
52.7183
52.0683
52.3221
52.7709
52.1097
50.8668
50.0902
49.1401
47.8073
45.8179
43.5276
40.5475
35.6806
31.1404
26.9486
23.8668
24.9559
28.0017
32.0679
36.9036
41.2319
44.6669
49.2815
52.2677
55.6552
57.0786
56.82
53.5318
52.5598
51.2955
49.6911
48.5986
48.8525
49.9294
49.5696
48.0787
47.7937
46.4206
44.7453
42.7742
40.5769
37.5392
32.0584
27.1074
22.6444
19.2493
20.6948
24.2172
28.4732
33.5942
38.0229
41.3745
46.0992
49.0776
52.5371
53.911
53.5738
49.9623
49.2517
48.3872
46.798
45.8293
46.1734
47.2301
46.7745
45.0889
44.8732
43.7867
42.2933
39.8203
37.8173
34.4644
28.3419
23.1589
18.3052
14.4403
16.3264
20.4215
24.8538
30.2929
34.8265
38.0776
42.9201
45.8933
49.4296
50.7486
50.3258
47.0214
46.4801
45.7445
44.7314
43.8127
43.181
43.637
43.3654
41.9988
42.7087
41.1227
39.4644
37.3712
35.0471
31.4146
24.5138
18.8311
13.7867
9.81903
11.8567
16.6207
21.209
27.0018
31.6436
34.7763
39.7439
42.7155
46.3328
47.5913
47.0753
44.3001
43.9184
43.4258
43.4666
42.5971
40.9762
40.513
39.924
38.1243
38.8945
37.9196
36.3219
34.1415
32.1667
28.5248
20.7079
14.937
9.3808
4.80835
7.29748
12.8304
17.5374
23.7236
28.4746
31.4707
36.5699
39.5447
43.2469
44.4388
43.8218
41.4077
41.1333
40.9468
41.1821
40.5046
38.7865
37.333
36.9823
33.9629
36.9514
35.444
32.7247
30.9326
29.1494
25.4268
16.4595
10.2895
4.35421
-1.49746
2.62297
9.0929
13.8435
20.4614
25.3197
28.1615
33.3975
36.3817
40.1721
41.291
40.5646
38.9394
38.6988
38.6139
38.813
38.4708
36.7393
34.456
33.9656
31.668
32.9573
31.9533
30.9321
28.3794
26.2237
22.7415
12.1293
8.83298
3.50689
-5.96719
-1.97372
5.45664
10.1543
17.2219
22.1794
24.8488
30.2262
33.2271
37.1084
38.1477
37.303
36.624
36.5112
36.6023
36.6075
36.1676
34.3462
32.1625
30.5626
29.022
26.362
27.3793
27.1069
25.7079
23.9478
19.151
10.9779
7.80094
2.66222
-2.98547
-2.0104
2.26938
6.47682
14.0237
19.0544
21.5329
27.0552
30.0818
34.0562
35.0086
34.036
34.2441
34.1941
34.409
34.4958
33.6999
31.7187
29.5758
26.9855
22.7827
20.2845
27.1183
24.0056
22.7801
21.1392
16.3122
8.39434
4.49675
1.58274
-0.880894
0.0761084
1.61728
2.43989
10.8768
15.9466
18.2131
23.8843
26.9467
31.0157
31.8747
30.7634
31.8468
31.7396
31.974
31.9274
31.0539
29.1387
26.9298
23.1614
16.3143
17.0318
26.0412
24.6682
20.677
18.4264
13.3582
4.12657
2.4681
1.64078
0.225524
0.204719
-0.0683033
-1.04882
7.69
12.8473
14.8877
20.7134
23.8227
27.9872
28.7229
27.4823
29.4588
29.2992
29.1945
28.9255
28.1412
26.4035
24.2878
18.6192
8.98684
13.0438
24.6285
21.5074
18.0739
15.234
10.6784
-1.30187
-1.0122
0.114978
0.26522
0.146312
-0.166009
-0.71968
2.68925
9.69372
11.5544
17.5437
20.7109
24.9707
25.6791
24.1953
27.058
26.8571
26.5676
26.0314
25.2206
23.6347
22.1238
14.0253
2.07372
8.32763
19.6118
18.7109
15.0136
11.9243
6.13738
-2.28711
-0.470021
-0.125524
0.169714
0.091294
-0.166933
-0.0669704
-0.813089
6.27662
8.23622
14.3596
17.6122
21.9672
22.381
20.8975
24.4758
24.2696
23.9182
23.2968
22.6022
21.1041
20.3559
11.2679
-0.982555
5.18175
14.2649
14.2733
11.6002
9.52207
-0.0291196
-1.7482
-0.151242
-0.128593
0.0534357
0.0560919
-0.142214
-0.0480605
-0.19053
2.20463
4.87123
11.1645
14.5264
18.9755
19.5092
17.5763
21.7091
21.5576
21.2791
20.7425
20.2511
19.1691
18.8293
9.94876
0.385267
1.98297
8.84355
9.44997
8.2597
5.06435
-0.685853
-0.543091
-0.252744
-0.144788
0.0109959
0.0303701
-0.134503
-0.0575797
-0.0869538
-0.566887
0.901518
7.97346
11.4502
16.0055
16.1746
14.3031
18.8771
18.7783
18.6499
18.0536
18.3816
17.6446
17.0343
11.7085
3.16532
1.15147
4.00806
4.43405
5.44991
0.823038
-0.195331
-0.409409
-0.270353
-0.158479
-0.00999401
0.00386426
-0.120262
-0.0600747
-0.0859363
-0.0846513
-1.86774
4.94129
8.37171
13.0415
13.1842
10.8981
8.50623
10.8189
10.7907
5.95646
1.77515
-0.125199
-0.0593486
-0.11857
-0.127668
-0.0799549
-0.0957581
-0.0731303
-0.200491
-0.452676
-0.18037
-0.00235751
-0.0730968
0.379533
-0.443199
-2.88256
-2.12013
6.09709
13.0205
17.4208
17.7856
17.9595
16.7153
17.2749
16.9785
16.8895
6.86143
9.19771
9.24244
4.06628
-0.87672
-0.018827
-0.0600549
-0.116663
-0.126695
-0.0830122
-0.103019
-0.0874821
-0.21022
-0.439884
-0.174681
-0.00438228
-0.0214173
-0.197705
-1.073
-5.5275
-2.50476
7.30808
13.0189
16.3971
16.421
17.1687
15.484
16.0873
15.6856
15.9904
5.12186
7.42653
7.61111
1.77056
-1.21573
-0.144157
-0.0639636
-0.115205
-0.125721
-0.0849949
-0.107808
-0.0953568
-0.217497
-0.425932
-0.169815
-0.01114
-0.0222422
-0.167538
-0.191912
-3.70015
-6.55124
8.96373
15.1963
14.4094
14.3901
16.1209
14.293
14.6231
14.066
14.331
3.28877
5.42735
5.69515
0.257607
-0.267927
-0.134725
-0.0695204
-0.114023
-0.125015
-0.0860865
-0.109718
-0.0987103
-0.222999
-0.409511
-0.165635
-0.02218
-0.0479372
-0.171874
-0.124558
-1.44303
-9.25145
12.7311
18.2973
12.4901
12.8231
14.5918
12.7338
13.0756
12.3719
12.2997
1.63839
3.29346
3.6429
-0.761973
-0.159203
-0.133249
-0.0763848
-0.114254
-0.124775
-0.0868321
-0.1096
-0.0985984
-0.225084
-0.387827
-0.164222
-0.0352888
-0.0617108
-0.176241
-0.153874
-0.0948144
-1.87561
11.494
20.1918
11.4695
10.8792
12.6601
11.1335
11.3297
10.5845
10.2843
0.413312
1.13209
1.70305
-0.0131719
-0.153853
-0.136111
-0.0827921
-0.115427
-0.124863
-0.0878731
-0.109011
-0.0968605
-0.220086
-0.360755
-0.164458
-0.0550812
-0.073254
-0.168047
-0.1603
-0.113066
-0.161203
2.365
20.7984
10.0795
8.39101
10.951
9.46562
9.34566
8.53372
8.04485
-0.0856857
0.0105327
0.0166119
0.017217
-0.149273
-0.138245
-0.0887398
-0.117174
-0.125376
-0.0896523
-0.110203
-0.0961468
-0.20729
-0.329873
-0.165675
-0.0730022
-0.0992124
-0.162174
-0.157455
-0.119805
-0.156719
-0.253162
2.86415
0.0875146
4.93595
8.84381
7.72403
7.32296
6.0902
5.48142
-0.11897
-0.123017
-0.12314
-0.0946748
-0.148121
-0.139627
-0.094446
-0.119273
-0.126361
-0.0924282
-0.116005
-0.0987485
-0.189538
-0.297257
-0.168028
-0.085416
-0.105146
-0.15226
-0.154165
-0.11829
-0.138499
-0.139774
0.00559692
-0.0503916
0.19888
0.828609
1.06179
1.59795
1.30204
1.03625
-0.121577
-0.12607
-0.126048
-0.100301
-0.147196
-0.140509
-0.100049
-0.121673
-0.127824
-0.0962651
-0.128009
-0.106459
-0.172244
-0.265128
-0.171495
-0.107995
-0.110707
-0.137462
-0.143958
-0.120077
-0.133738
-0.105663
-0.0282021
-0.0837416
-0.13735
-0.109417
-0.100993
-0.0962695
-0.0899712
-0.0893152
-0.124899
-0.129687
-0.131077
-0.106374
-0.146934
-0.141674
-0.105694
-0.124358
-0.129713
-0.101209
-0.145235
-0.118231
-0.15923
-0.234484
-0.174799
-0.110337
-0.116491
-0.128886
-0.137195
-0.125711
-0.127544
-0.10585
-0.0563491
-0.0887285
-0.110489
-0.103217
-0.0986041
-0.0946219
-0.0929525
-0.0929971
-0.12818
-0.133559
-0.136016
-0.112605
-0.147209
-0.143085
-0.11146
-0.127322
-0.131917
-0.107013
-0.161336
-0.131047
-0.148572
-0.206317
-0.175306
-0.133569
-0.115648
-0.133623
-0.130749
-0.126175
-0.123612
-0.106798
-0.0785995
-0.0951402
-0.105588
-0.103293
-0.1016
-0.0985448
-0.0977247
-0.0981937
-0.131711
-0.137719
-0.141066
-0.118878
-0.148044
-0.144803
-0.117363
-0.130564
-0.134313
-0.113183
-0.170707
-0.138764
-0.136138
-0.185691
-0.172956
-0.13781
-0.127436
-0.129287
-0.131533
-0.130816
-0.121487
-0.108001
-0.0930941
-0.0950462
-0.0929608
-0.101925
-0.101127
-0.0992136
-0.0989641
-0.0995879
-0.135605
-0.142118
-0.146115
-0.125198
-0.149493
-0.146855
-0.123416
-0.134085
-0.13684
-0.119303
-0.169565
-0.13773
-0.121749
-0.177994
-0.169467
-0.142142
-0.131202
-0.138372
-0.140657
-0.133419
-0.122448
-0.110653
-0.102411
-0.102013
-0.0768525
-0.0988103
-0.098931
-0.0986983
-0.0993877
-0.100054
-0.139832
-0.146328
-0.151146
-0.131501
-0.151562
-0.149287
-0.129631
-0.137899
-0.139556
-0.125194
-0.161569
-0.130219
-0.10808
-0.175106
-0.165492
-0.148142
-0.129181
-0.142586
-0.14415
-0.13753
-0.126174
-0.115316
-0.109448
-0.106822
-0.077834
-0.0958731
-0.0955628
-0.0957774
-0.0997608
-0.0978041
-0.144425
-0.151001
-0.156081
-0.137663
-0.154264
-0.152154
-0.136028
-0.14204
-0.142615
-0.130889
-0.151686
-0.124807
-0.0977792
-0.167503
-0.162475
-0.126937
-0.150035
-0.147503
-0.146187
-0.142823
-0.132726
-0.123147
-0.11762
-0.110614
-0.0916948
-0.0990925
-0.0870661
-0.0911984
-0.0946729
-0.0927907
-0.149468
-0.155811
-0.160912
-0.143788
-0.157622
-0.155529
-0.142621
-0.146564
-0.146204
-0.136559
-0.144702
-0.124962
-0.095301
-0.159957
-0.136199
-0.117002
-0.166674
-0.153528
-0.148353
-0.144064
-0.131122
-0.131828
-0.126846
-0.115502
-0.108045
-0.117576
-0.0791236
-0.0859219
-0.0720281
-0.0919135
-0.154954
-0.160555
-0.165595
-0.149986
-0.161643
-0.159491
-0.14942
-0.151543
-0.150467
-0.142409
-0.143285
-0.128867
-0.103011
-0.158844
-0.116722
-0.137703
-0.165355
-0.157361
-0.153028
-0.150668
-0.136398
-0.134985
-0.138399
-0.140474
-0.118047
-0.12336
-0.0836554
-0.0909878
-0.0455893
-0.0951695
-0.1609
-0.165537
-0.17044
-0.156407
-0.166343
-0.164113
-0.156427
-0.157061
-0.155487
-0.148648
-0.146401
-0.135633
-0.115587
-0.155397
-0.144955
-0.15854
-0.164282
-0.16093
-0.158044
-0.156148
-0.153086
-0.150042
-0.14648
-0.144804
-0.140589
-0.119947
-0.109412
-0.117093
-0.0702713
-0.0871186
-0.167329
-0.171004
-0.175699
-0.163243
-0.171724
-0.169452
-0.16366
-0.163205
-0.16131
-0.15546
-0.151971
-0.144074
-0.129702
-0.15555
-0.155748
-0.16251
-0.16596
-0.16541
-0.163851
-0.162042
-0.159972
-0.157849
-0.155206
-0.154816
-0.158159
-0.119735
-0.117449
-0.128694
-0.0950363
-0.102921
-0.174279
-0.177135
-0.181539
-0.170683
-0.177746
-0.17555
-0.171193
-0.17004
-0.167967
-0.162984
-0.159271
-0.153576
-0.143876
-0.160641
-0.159785
-0.168054
-0.171349
-0.172149
-0.171125
-0.169466
-0.167314
-0.164545
-0.161144
-0.157669
-0.153828
-0.147271
-0.142746
-0.139223
-0.137864
-0.127808
-0.181802
-0.184028
-0.188046
-0.178682
-0.184573
-0.182434
-0.179145
-0.177614
-0.175487
-0.17131
-0.167898
-0.163906
-0.15778
-0.16901
-0.167977
-0.175591
-0.179023
-0.180468
-0.180237
-0.178959
-0.176806
-0.173596
-0.169781
-0.165886
-0.162369
-0.159959
-0.160103
-0.160962
-0.1639
-0.14128
-0.189959
-0.191719
-0.195274
-0.187372
-0.192159
-0.190143
-0.187632
-0.185967
-0.183898
-0.180501
-0.177839
-0.174998
-0.171567
-0.179198
-0.179021
-0.185215
-0.189036
-0.191341
-0.192253
-0.192027
-0.190719
-0.18802
-0.184456
-0.180561
-0.176915
-0.174559
-0.174401
-0.174782
-0.17547
-0.163224
-0.198813
-0.200231
-0.203269
-0.196789
-0.200555
-0.198719
-0.196763
-0.195139
-0.19323
-0.19056
-0.188541
-0.186794
-0.185406
-0.190676
-0.191964
-0.197147
-0.201596
-0.205396
-0.208311
-0.210209
-0.21121
-0.210817
-0.206391
-0.2038
-0.201519
-0.199053
-0.198366
-0.199105
-0.196518
-0.194807
-0.208429
-0.209591
-0.212087
-0.20697
-0.209811
-0.208206
-0.20664
-0.205168
-0.203508
-0.201501
-0.200141
-0.199267
-0.199368
-0.203264
-0.205893
-0.210891
-0.216516
-0.222744
-0.229334
-0.23564
-0.24068
-0.242534
-0.242993
-0.241292
-0.238704
-0.236388
-0.231955
-0.230409
-0.22863
-0.227451
-0.218875
-0.219837
-0.221801
-0.21796
-0.219982
-0.218642
-0.217364
-0.216104
-0.214747
-0.213325
-0.212572
-0.212395
-0.213464
-0.216736
-0.220299
-0.225641
-0.232504
-0.241282
-0.251794
-0.264268
-0.276222
-0.284558
-0.288761
-0.28805
-0.285084
-0.280925
-0.276469
-0.271214
-0.267087
-0.263809
-0.23022
-0.231014
-0.232495
-0.229808
-0.231131
-0.230068
-0.22903
-0.228001
-0.22696
-0.22603
-0.225764
-0.226102
-0.227671
-0.230737
-0.234737
-0.240342
-0.247798
-0.257867
-0.271134
-0.286672
-0.302339
-0.314545
-0.321652
-0.322899
-0.321028
-0.318616
-0.313676
-0.309489
-0.306702
-0.305395
-0.242539
-0.243181
-0.244259
-0.242569
-0.243331
-0.242544
-0.241716
-0.240915
-0.240167
-0.239616
-0.239672
-0.240321
-0.242007
-0.244821
-0.248678
-0.253946
-0.26051
-0.269604
-0.281504
-0.29567
-0.310612
-0.323182
-0.330946
-0.333875
-0.330777
-0.328272
-0.32121
-0.317158
-0.313874
-0.311431
-0.255911
-0.256408
-0.257179
-0.256301
-0.256665
-0.256131
-0.255497
-0.254906
-0.254402
-0.254109
-0.254317
-0.25504
-0.256482
-0.258742
-0.26176
-0.265678
-0.270586
-0.276828
-0.284515
-0.293309
-0.302411
-0.309966
-0.315221
-0.317575
-0.317725
-0.315277
-0.310608
-0.307896
-0.305589
-0.304056
-0.270421
-0.270773
-0.271333
-0.271078
-0.271227
-0.270907
-0.270458
-0.270045
-0.269725
-0.26957
-0.269757
-0.270293
-0.271286
-0.272734
-0.27458
-0.276807
-0.279402
-0.282426
-0.285833
-0.289417
-0.292768
-0.295599
-0.297521
-0.298327
-0.298202
-0.297006
-0.29523
-0.293111
-0.290667
-0.288976
-0.28616
-0.286357
-0.286776
-0.287033
-0.287091
-0.286958
-0.286687
-0.286432
-0.286248
-0.286146
-0.286185
-0.286351
-0.286644
-0.287029
-0.287457
-0.287905
-0.288344
-0.288877
-0.289407
-0.289741
-0.28993
-0.289953
-0.289896
-0.28986
-0.289859
-0.290018
-0.290416
-0.290685
-0.290752
-0.290633
16.8894
16.6993
16.8032
16.0292
16.8886
16.1328
14.5549
11.5607
5.78312
1.77305
0.599991
0.24168
1.20831
-0.429963
-0.0894713
-0.352421
-0.26578
-0.166533
-0.0188158
-0.0142815
-0.114246
-0.065794
-0.0828782
-0.0609294
-0.112489
1.80308
5.98468
10.8104
10.8014
8.48222
15.9123
15.2975
15.3906
14.6858
15.7616
14.4423
12.3769
10.4152
5.92563
1.86152
-2.24302
-1.74509
-0.236192
-0.371727
-0.117076
-0.323683
-0.26587
-0.172765
-0.0249867
-0.0264473
-0.110993
-0.0692109
-0.0820763
-0.0604058
-0.0118979
-0.852061
4.08886
9.26274
9.17976
6.83666
14.2278
13.5908
13.7617
13.2202
14.445
11.9898
10.4802
11.1496
5.87557
1.4825
-4.30199
-0.995192
-0.131323
-0.326364
-0.1587
-0.31147
-0.264306
-0.179932
-0.0332818
-0.0389693
-0.108642
-0.0726405
-0.0820101
-0.063182
-0.138539
-1.20702
1.79747
7.63188
7.40753
5.09569
12.1496
11.8382
12.0792
11.5244
12.7956
10.7986
9.18551
14.4174
6.74013
-1.7482
-1.76308
-0.12523
-0.135997
-0.288492
-0.153851
-0.301352
-0.260394
-0.1876
-0.0436362
-0.051254
-0.107118
-0.0762811
-0.0822501
-0.0677978
-0.128793
-0.260027
0.268042
5.7175
5.4074
3.26256
10.1129
9.95995
10.1611
9.78384
10.8947
9.57632
8.522
18.6812
7.11889
-2.48463
-0.220091
-0.114399
-0.133792
-0.262618
-0.158746
-0.293082
-0.254716
-0.195176
-0.055774
-0.0623057
-0.106523
-0.0801332
-0.0839976
-0.0737854
-0.127098
-0.151793
-0.762118
3.66158
3.27399
1.61399
7.82097
7.71565
7.9888
7.80129
9.17449
7.07314
7.84229
21.8186
4.09702
-0.0818436
-0.19228
-0.142825
-0.138906
-0.240149
-0.16333
-0.285288
-0.248122
-0.201207
-0.0693209
-0.0711309
-0.106742
-0.0841159
-0.0867296
-0.0790988
-0.129997
-0.146419
-0.013055
1.7059
1.11624
0.399512
5.24895
5.00791
5.74616
5.6261
6.94476
3.7624
-0.501785
9.75128
-0.273416
-0.112197
-0.182039
-0.146491
-0.148291
-0.216727
-0.166368
-0.276603
-0.240709
-0.203164
-0.0834554
-0.0771035
-0.107617
-0.0882127
-0.0901484
-0.0839102
-0.132127
-0.141843
0.0183472
0.0191267
0.00722236
-0.0880448
0.934912
0.874584
1.09507
0.795243
0.470811
0.274552
-0.130978
-0.1198
-0.170598
-0.12085
-0.159887
-0.150582
-0.155236
-0.200164
-0.1708
-0.265421
-0.231255
-0.198452
-0.097809
-0.0810695
-0.109042
-0.0924346
-0.093978
-0.0885781
-0.133635
-0.140844
-0.0928865
-0.120399
-0.122514
-0.118289
-0.0911099
-0.0933364
-0.102756
-0.109161
-0.120017
-0.151391
-0.12864
-0.129638
-0.185177
-0.141278
-0.148434
-0.150757
-0.160469
-0.188583
-0.176555
-0.252208
-0.218403
-0.185999
-0.112298
-0.0848139
-0.11101
-0.0968172
-0.0981345
-0.0932648
-0.134741
-0.140126
-0.098413
-0.12337
-0.125603
-0.120945
-0.0945322
-0.0975493
-0.102721
-0.11019
-0.120659
-0.136945
-0.141145
-0.151101
-0.191779
-0.157225
-0.153063
-0.15806
-0.165197
-0.182621
-0.181786
-0.236829
-0.201616
-0.166932
-0.126936
-0.0892651
-0.113519
-0.101401
-0.102586
-0.098151
-0.136125
-0.140091
-0.104406
-0.128502
-0.129243
-0.124296
-0.0995369
-0.101935
-0.106014
-0.111864
-0.12008
-0.132095
-0.144711
-0.162474
-0.181969
-0.165669
-0.161796
-0.167546
-0.169931
-0.180617
-0.181552
-0.216291
-0.182261
-0.145473
-0.14096
-0.0947308
-0.116521
-0.106224
-0.107326
-0.103322
-0.137758
-0.140606
-0.110578
-0.133567
-0.133149
-0.127597
-0.100766
-0.10275
-0.105977
-0.110875
-0.118086
-0.128396
-0.141692
-0.15738
-0.171077
-0.167358
-0.170237
-0.175695
-0.175179
-0.178464
-0.176933
-0.193547
-0.164359
-0.128186
-0.15131
-0.101106
-0.119917
-0.111312
-0.112362
-0.108802
-0.1397
-0.141689
-0.11681
-0.138765
-0.137345
-0.131115
-0.101045
-0.102537
-0.105107
-0.109166
-0.115722
-0.125386
-0.137238
-0.149949
-0.161266
-0.167191
-0.176733
-0.181905
-0.180185
-0.17591
-0.170059
-0.172327
-0.150051
-0.117878
-0.154135
-0.107914
-0.123619
-0.116689
-0.117699
-0.114608
-0.141978
-0.143398
-0.123116
-0.143968
-0.141775
-0.13503
-0.102461
-0.103383
-0.104981
-0.10832
-0.113824
-0.121834
-0.132305
-0.144089
-0.156143
-0.168011
-0.181448
-0.187575
-0.184049
-0.173396
-0.163558
-0.157419
-0.139577
-0.1151
-0.150565
-0.11483
-0.12764
-0.122374
-0.123343
-0.120755
-0.144636
-0.145749
-0.12939
-0.149174
-0.14605
-0.139282
-0.0981326
-0.103834
-0.105488
-0.109239
-0.114435
-0.121791
-0.131375
-0.142821
-0.155363
-0.170025
-0.184773
-0.191838
-0.185472
-0.171478
-0.159724
-0.150143
-0.135001
-0.116942
-0.14739
-0.121917
-0.132098
-0.128389
-0.129312
-0.127263
-0.147726
-0.148774
-0.135548
-0.154257
-0.150713
-0.143884
-0.0933889
-0.10157
-0.10351
-0.113072
-0.117224
-0.124798
-0.134404
-0.145706
-0.158134
-0.172005
-0.184677
-0.188582
-0.184238
-0.171189
-0.159482
-0.149095
-0.1362
-0.122936
-0.147322
-0.12932
-0.137131
-0.134758
-0.13563
-0.134149
-0.15131
-0.152506
-0.141708
-0.159144
-0.155636
-0.148943
-0.0898734
-0.0967874
-0.105656
-0.111701
-0.119785
-0.129599
-0.139944
-0.150932
-0.161962
-0.1735
-0.182878
-0.186425
-0.182896
-0.173104
-0.16258
-0.152279
-0.141263
-0.13161
-0.149888
-0.137135
-0.14285
-0.141516
-0.142332
-0.141428
-0.155462
-0.15696
-0.147933
-0.163865
-0.160338
-0.154442
-0.0954433
-0.0994546
-0.111328
-0.117228
-0.125351
-0.134322
-0.143856
-0.15661
-0.166019
-0.174853
-0.182001
-0.18534
-0.183601
-0.176927
-0.167886
-0.158258
-0.148604
-0.141528
-0.154567
-0.145427
-0.149323
-0.148711
-0.149466
-0.14911
-0.160265
-0.162112
-0.154391
-0.168739
-0.16526
-0.160404
-0.109039
-0.114504
-0.120073
-0.130331
-0.136028
-0.143131
-0.152326
-0.164445
-0.172256
-0.179114
-0.184588
-0.187659
-0.187216
-0.182613
-0.174963
-0.166215
-0.15766
-0.152437
-0.160631
-0.154245
-0.156585
-0.156409
-0.15708
-0.157198
-0.165803
-0.167783
-0.161417
-0.174026
-0.170672
-0.166852
-0.13472
-0.138342
-0.139612
-0.144109
-0.152062
-0.157529
-0.166843
-0.174397
-0.18096
-0.186719
-0.191289
-0.194012
-0.193945
-0.190298
-0.183648
-0.175698
-0.168064
-0.163801
-0.167827
-0.163657
-0.164658
-0.16467
-0.165231
-0.165694
-0.172145
-0.174151
-0.168997
-0.179906
-0.176754
-0.173826
-0.146716
-0.15343
-0.157576
-0.161744
-0.167051