/*--------------------------------*- C++ -*----------------------------------*\
| =========                 |                                                 |
| \\      /  F ield         | OpenFOAM: The Open Source CFD Toolbox           |
|  \\    /   O peration     | Version:  2.4.0                                 |
|   \\  /    A nd           | Web:      www.OpenFOAM.org                      |
|    \\/     M anipulation  |                                                 |
\*---------------------------------------------------------------------------*/
FoamFile
{
    version     2.0;
    format      ascii;
    class       volScalarField;
    location    "0.06";
    object      p;
}
// * * * * * * * * * * * * * * * * * * * * * * * * * * * * * * * * * * * * * //

dimensions      [1 -1 -2 0 0 0 0];

internalField   nonuniform List<scalar> 
3600
(
96.9299
96.921
96.9163
96.904
96.8908
96.8644
96.8378
96.7904
96.7451
96.6717
96.6038
96.5039
96.4159
96.295
96.2008
96.0784
96.0106
95.9486
96.0106
96.0715
96.1765
96.189
96.2095
96.174
96.1595
96.1273
96.1122
96.0939
96.0849
96.0768
93.677
93.6733
93.6672
93.6547
93.6404
93.6138
93.5861
93.5382
93.4916
93.4175
93.3482
93.2477
93.1583
93.0367
92.9413
92.8178
92.7482
92.6855
92.7485
92.8111
92.9173
92.9297
92.95
92.9142
92.8997
92.8674
92.8523
92.834
92.8251
92.817
90.4311
90.429
90.4241
90.4118
90.3974
90.37
90.3414
90.2921
90.2437
90.1678
90.0964
89.9942
89.9026
89.7791
89.6818
89.556
89.4833
89.4195
89.4845
89.5507
89.659
89.6712
89.6908
89.6546
89.6398
89.6075
89.5924
89.5741
89.5652
89.5571
87.2026
87.1987
87.1931
87.1801
87.1647
87.1357
87.1052
87.0535
87.0023
86.9235
86.8486
86.7437
86.6489
86.5225
86.4225
86.293
86.2156
86.15
86.2185
86.2903
86.4016
86.4134
86.432
86.3951
86.3799
86.3476
86.3324
86.3141
86.3053
86.2972
83.9829
83.9788
83.9728
83.9587
83.9419
83.9106
83.8775
83.8223
83.7672
83.6843
83.6048
83.4961
83.3972
83.2668
83.1632
83.0289
82.945
82.877
82.9504
83.0299
83.1452
83.1565
83.1736
83.1357
83.12
83.0876
83.0724
83.0542
83.0453
83.0373
80.7745
80.7701
80.7636
80.748
80.7294
80.695
80.6584
80.5986
80.5384
80.4502
80.3648
80.2514
80.1474
80.0119
79.9041
79.7637
79.6712
79.6001
79.6801
79.7697
79.8898
79.9004
79.9155
79.8765
79.8601
79.8276
79.8123
79.7942
79.7853
79.7774
77.5785
77.5739
77.5665
77.549
77.528
77.4897
77.4485
77.3829
77.3162
77.2214
77.1287
77.0096
76.8996
76.758
76.6453
76.4975
76.3939
76.3192
76.4074
76.5096
76.6358
76.6453
76.6579
76.6174
76.6002
76.5676
76.5523
76.5342
76.5254
76.5175
74.3965
74.3909
74.3826
74.3624
74.3384
74.295
74.2482
74.1754
74.1006
73.9978
73.8963
73.7706
73.6536
73.5048
73.3868
73.2304
73.1129
73.0336
73.1321
73.2499
73.3831
73.391
73.4005
73.3583
73.3402
73.3076
73.2921
73.2742
73.2654
73.2575
71.2289
71.2237
71.2139
71.1907
71.162
71.113
71.0582
70.9771
70.8919
70.7796
70.6674
70.5342
70.4096
70.2525
70.129
69.9628
69.8275
69.7429
69.8538
69.9907
70.132
70.1378
70.1435
70.0993
70.0802
70.0475
70.0319
70.0141
70.0053
69.9976
68.0766
68.0705
68.0595
68.0315
67.9996
67.9416
67.8794
67.7869
67.6901
67.5667
67.4418
67.3005
67.1676
67.0011
66.8719
66.695
66.5372
66.4463
66.5723
66.7324
66.8828
66.8857
66.8869
66.8405
66.8202
66.7874
66.7717
66.7541
66.7453
66.7377
64.9519
64.9447
64.9302
64.8986
64.8565
64.7914
64.7127
64.6109
64.4953
64.3604
64.219
64.0693
63.9274
63.7504
63.6159
63.4276
63.2412
63.143
63.287
63.4752
63.6356
63.6347
63.6306
63.5816
63.56
63.5272
63.5114
63.494
63.4852
63.4777
61.8347
61.8251
61.8103
61.7709
61.7236
61.6459
61.5575
61.439
61.3071
61.1575
60.9983
60.8401
60.6892
60.5005
60.3613
60.1617
59.9383
59.832
59.9973
60.2196
60.3908
60.3849
60.3746
60.3227
60.2998
60.2669
60.251
60.2338
60.2251
60.2177
58.7711
58.7597
58.7375
58.6915
58.6271
58.5417
58.422
58.2945
58.1264
57.9665
57.7789
57.6133
57.4531
57.2513
57.1087
56.8982
56.6276
56.5122
56.7026
56.9661
57.149
57.1366
57.1188
57.0639
57.0396
57.0067
56.9907
56.9737
56.965
56.9577
55.7003
55.6852
55.6609
55.6048
55.5257
55.4319
55.2827
55.1475
54.9421
54.7754
54.5561
54.3871
54.2188
54.0027
53.8583
53.6378
53.3084
53.1817
53.4019
53.7156
53.9103
53.8896
53.8633
53.805
53.7792
53.7463
53.7303
53.7135
53.7049
53.6977
52.7331
52.714
52.6773
52.6137
52.489
52.4137
52.1702
52.0678
51.7627
51.6148
51.3319
51.1655
50.9867
50.7544
50.6108
50.3821
49.9791
49.8391
50.0947
50.4687
50.6752
50.6441
50.6079
50.546
50.5187
50.4859
50.4698
50.4533
50.4447
50.4377
49.7321
49.7068
49.655
49.6013
49.4079
49.3636
49.033
48.9595
48.561
48.4425
48.0928
47.9412
47.7561
47.5062
47.3673
47.1333
46.639
46.4818
46.7803
47.2261
47.4445
47.4003
47.3526
47.2869
47.2582
47.2255
47.2093
47.1931
47.1846
47.1777
46.9244
46.9018
46.8023
46.762
46.4377
46.4681
45.9527
45.9756
45.3709
45.3259
44.8506
44.7252
44.5278
44.2576
44.1252
43.8942
43.2849
43.1074
43.4577
43.9885
44.2189
44.1581
44.0973
44.0276
43.9975
43.965
43.9487
43.9329
43.9244
43.9177
44.0605
44.0169
43.8397
43.8901
43.3855
43.5159
42.8101
42.8822
42.1499
42.1621
41.583
41.5009
41.3042
41.0106
40.8967
40.6705
39.9168
39.7117
40.1259
40.757
40.9992
40.9178
40.8419
40.768
40.7366
40.7044
40.6881
40.6726
40.6642
40.6577
41.4808
41.5258
41.1827
41.2531
40.5948
40.7651
39.8035
39.9944
38.9556
39.0942
38.3062
38.2852
38.0729
37.7511
37.6475
37.4631
36.5283
36.2923
36.7837
37.5328
37.7867
37.6793
37.5862
37.5082
37.4756
37.4438
37.4274
37.4123
37.404
37.3977
39.2364
39.0465
38.1498
38.6571
37.4816
37.9928
36.6065
36.9234
35.7145
35.9098
34.9998
35.0534
34.8692
34.5118
34.4558
34.2883
33.1222
32.8416
33.4294
34.3173
34.5823
34.4427
34.3301
34.2479
34.2143
34.183
34.1667
34.152
34.1437
34.1376
37.3186
37.0952
36.067
36.3694
34.9446
35.4076
33.6878
34.1712
32.5235
32.897
31.6673
31.8249
31.6329
31.2253
31.1879
31.1289
29.6851
29.3552
30.0612
31.113
31.388
31.2082
31.0732
30.9872
30.9529
30.9222
30.9059
30.8916
30.8834
30.8775
34.3838
35.547
33.1179
34.4332
31.6191
32.6765
30.4557
31.0477
29.2494
29.6522
28.3006
28.5616
28.4665
27.9916
28.0656
28.0347
26.2314
25.8254
26.6767
27.9213
28.2047
27.9748
27.8154
27.7259
27.6913
27.6613
27.6452
27.6312
27.6232
27.6175
35.3194
35.1919
32.4253
33.483
29.0398
30.3166
27.4742
28.4743
26.0767
26.6953
24.875
25.3062
25.2399
24.6574
24.7835
24.9491
22.7289
22.2251
23.2731
24.7464
25.0355
24.7452
24.5563
24.464
24.4294
24.4003
24.3843
24.3708
24.3628
24.3574
22.1306
39.6335
26.8882
33.202
25.3505
27.7784
24.1311
25.2351
22.7268
23.3245
21.3658
21.9547
22.1433
21.4174
21.7558
21.9798
19.2155
18.608
19.8483
21.5912
21.8813
21.5141
21.2952
21.2014
21.1673
21.1392
21.1234
21.1104
21.1025
21.0973
29.6748
31.6965
25.97
32.6039
24.4764
25.8084
21.1111
22.8476
19.659
20.4312
17.8759
18.6696
18.9698
17.9975
18.4986
19.0213
15.6182
14.7757
16.3894
18.4559
18.7464
18.2914
18.0327
17.938
17.905
17.8781
17.8625
17.85
17.8422
17.8373
-71.6984
47.0843
9.52321
30.4786
19.0218
22.7747
17.5046
19.2666
16.3444
16.9079
13.8204
15.1124
15.9821
14.7351
15.4955
16.2363
12.0295
11.0718
12.9154
15.3628
15.6359
15.0586
14.7656
14.6732
14.6423
14.6169
14.6014
14.5895
14.5818
14.5772
0.691512
40.8609
26.3034
33.172
20.878
20.8061
15.273
16.6686
13.5225
13.9244
10.3758
11.78
12.9632
11.1532
12.3274
13.5081
8.29428
6.85149
9.36851
12.2729
12.536
11.837
11.4985
11.4078
11.3796
11.3556
11.3405
11.329
11.3214
11.3171
36.1144
12.0135
41.9074
30.6276
19.6167
16.6019
10.8966
13.1002
10.3054
10.5048
5.44409
7.75125
10.1485
7.87942
9.42511
11.001
4.5851
3.00582
5.82124
9.29286
9.50028
8.60443
8.22058
8.13961
8.11625
8.09418
8.07928
8.06844
8.06103
8.05695
65.6122
-0.733949
52.5143
33.874
14.9006
11.4983
8.30895
10.1726
8.04659
7.24497
1.81218
4.42172
7.30543
4.07887
6.21617
8.60218
0.732737
-1.56459
2.13231
6.24203
6.42713
5.37969
4.94944
4.87308
4.85368
4.83301
4.81845
4.80804
4.80074
4.79689
107.018
101.448
35.9982
68.7278
-4.4696
6.33753
2.96545
7.11736
6.1317
4.11494
-3.31844
-0.0077331
5.77268
1.23108
3.48153
6.3686
-0.41734
-1.69577
0.160436
3.54207
3.54671
2.14584
1.64732
1.59687
1.58872
1.57093
1.55669
1.54714
1.54002
1.53662
96.0746
96.0731
96.0723
96.0714
96.0708
96.0702
96.0698
96.0694
96.0692
96.0689
96.0687
96.0686
96.0684
96.0683
96.0682
96.0682
96.0681
96.068
96.068
96.068
96.0679
96.0679
96.0679
96.0679
96.0678
96.0678
96.0678
96.0678
96.0677
96.0678
92.8147
92.8132
92.8125
92.8115
92.8109
92.8104
92.8099
92.8096
92.8093
92.809
92.8089
92.8087
92.8086
92.8084
92.8084
92.8083
92.8082
92.8082
92.8081
92.8081
92.8081
92.808
92.808
92.808
92.8079
92.808
92.8079
92.8079
92.8079
92.8079
89.5548
89.5534
89.5526
89.5516
89.5511
89.5505
89.5501
89.5497
89.5494
89.5492
89.549
89.5488
89.5487
89.5486
89.5485
89.5484
89.5484
89.5483
89.5483
89.5482
89.5482
89.5482
89.5481
89.5481
89.5481
89.5481
89.548
89.5481
89.548
89.548
86.2949
86.2935
86.2927
86.2918
86.2912
86.2906
86.2902
86.2899
86.2896
86.2893
86.2891
86.289
86.2888
86.2887
86.2886
86.2886
86.2885
86.2885
86.2884
86.2884
86.2884
86.2883
86.2883
86.2883
86.2882
86.2883
86.2882
86.2882
86.2882
86.2882
83.035
83.0336
83.0328
83.0319
83.0313
83.0307
83.0303
83.03
83.0297
83.0294
83.0293
83.0291
83.029
83.0289
83.0288
83.0287
83.0286
83.0286
83.0285
83.0285
83.0285
83.0285
83.0284
83.0284
83.0284
83.0284
83.0283
83.0283
83.0283
83.0283
79.7751
79.7737
79.7729
79.772
79.7714
79.7708
79.7704
79.7701
79.7698
79.7696
79.7694
79.7692
79.7691
79.769
79.7689
79.7688
79.7688
79.7687
79.7687
79.7686
79.7686
79.7686
79.7685
79.7685
79.7685
79.7685
79.7684
79.7685
79.7684
79.7684
76.5152
76.5138
76.513
76.5121
76.5116
76.511
76.5106
76.5102
76.51
76.5097
76.5095
76.5094
76.5092
76.5091
76.5091
76.509
76.5089
76.5089
76.5088
76.5088
76.5088
76.5087
76.5087
76.5087
76.5086
76.5087
76.5086
76.5086
76.5086
76.5086
73.2553
73.2539
73.2531
73.2522
73.2516
73.2511
73.2507
73.2503
73.2501
73.2498
73.2496
73.2495
73.2494
73.2493
73.2492
73.2491
73.249
73.249
73.2489
73.2489
73.2489
73.2489
73.2488
73.2488
73.2488
73.2488
73.2487
73.2488
73.2487
73.2487
69.9953
69.994
69.9932
69.9923
69.9917
69.9912
69.9908
69.9904
69.9902
69.9899
69.9898
69.9896
69.9895
69.9894
69.9893
69.9892
69.9892
69.9891
69.9891
69.989
69.989
69.989
69.9889
69.9889
69.9889
69.9889
69.9888
69.9889
69.9888
69.9889
66.7354
66.7341
66.7333
66.7324
66.7319
66.7313
66.7309
66.7306
66.7303
66.7301
66.7299
66.7298
66.7296
66.7295
66.7294
66.7294
66.7293
66.7293
66.7292
66.7292
66.7292
66.7291
66.7291
66.7291
66.7291
66.7291
66.729
66.7291
66.7289
66.729
63.4755
63.4741
63.4734
63.4725
63.472
63.4714
63.471
63.4707
63.4704
63.4702
63.47
63.4699
63.4697
63.4696
63.4696
63.4695
63.4694
63.4694
63.4694
63.4693
63.4693
63.4693
63.4692
63.4692
63.4692
63.4692
63.4691
63.4692
63.4691
63.4692
60.2155
60.2142
60.2134
60.2126
60.212
60.2115
60.2111
60.2108
60.2105
60.2103
60.2101
60.21
60.2099
60.2098
60.2097
60.2096
60.2096
60.2095
60.2095
60.2094
60.2094
60.2094
60.2094
60.2093
60.2093
60.2093
60.2092
60.2093
60.2092
60.2093
56.9555
56.9543
56.9535
56.9527
56.9522
56.9516
56.9513
56.9509
56.9507
56.9505
56.9503
56.9501
56.95
56.9499
56.9498
56.9498
56.9497
56.9497
56.9496
56.9496
56.9496
56.9496
56.9495
56.9495
56.9495
56.9495
56.9494
56.9495
56.9493
56.9495
53.6956
53.6943
53.6936
53.6928
53.6922
53.6917
53.6914
53.691
53.6908
53.6906
53.6904
53.6902
53.6901
53.69
53.69
53.6899
53.6898
53.6898
53.6898
53.6897
53.6897
53.6897
53.6896
53.6896
53.6896
53.6896
53.6895
53.6896
53.6894
53.6896
50.4356
50.4343
50.4336
50.4328
50.4323
50.4318
50.4314
50.4311
50.4309
50.4307
50.4305
50.4304
50.4302
50.4301
50.4301
50.43
50.43
50.4299
50.4299
50.4298
50.4298
50.4298
50.4298
50.4298
50.4297
50.4297
50.4296
50.4297
50.4295
50.4297
47.1756
47.1744
47.1737
47.1729
47.1724
47.1719
47.1716
47.1713
47.171
47.1708
47.1706
47.1705
47.1704
47.1703
47.1702
47.1702
47.1701
47.1701
47.17
47.17
47.17
47.17
47.1699
47.1699
47.1699
47.1699
47.1698
47.1699
47.1697
47.1699
43.9156
43.9144
43.9137
43.913
43.9125
43.912
43.9116
43.9113
43.9111
43.9109
43.9107
43.9106
43.9105
43.9104
43.9103
43.9103
43.9102
43.9102
43.9102
43.9101
43.9101
43.9101
43.9101
43.91
43.91
43.91
43.9099
43.91
43.9098
43.91
40.6556
40.6545
40.6537
40.653
40.6525
40.6521
40.6517
40.6514
40.6512
40.651
40.6508
40.6507
40.6506
40.6505
40.6505
40.6504
40.6504
40.6503
40.6503
40.6503
40.6502
40.6502
40.6502
40.6502
40.6501
40.6501
40.65
40.6501
40.6499
40.6502
37.3956
37.3945
37.3938
37.3931
37.3926
37.3922
37.3918
37.3916
37.3913
37.3911
37.391
37.3909
37.3908
37.3907
37.3906
37.3906
37.3905
37.3905
37.3904
37.3904
37.3904
37.3904
37.3903
37.3903
37.3903
37.3903
37.3902
37.3903
37.39
37.3904
34.1356
34.1345
34.1338
34.1332
34.1327
34.1323
34.1319
34.1316
34.1314
34.1312
34.1311
34.131
34.1309
34.1308
34.1307
34.1307
34.1306
34.1306
34.1306
34.1305
34.1305
34.1305
34.1305
34.1305
34.1304
34.1304
34.1303
34.1304
34.1301
34.1305
30.8755
30.8745
30.8738
30.8732
30.8727
30.8723
30.872
30.8717
30.8715
30.8713
30.8712
30.8711
30.871
30.8709
30.8708
30.8708
30.8707
30.8707
30.8707
30.8707
30.8706
30.8706
30.8706
30.8706
30.8705
30.8705
30.8704
30.8706
30.8702
30.8707
27.6155
27.6146
27.6139
27.6133
27.6128
27.6124
27.6121
27.6119
27.6116
27.6115
27.6113
27.6112
27.6111
27.6111
27.611
27.6109
27.6109
27.6109
27.6108
27.6108
27.6108
27.6108
27.6108
27.6107
27.6107
27.6107
27.6105
27.6107
27.6103
27.6109
24.3555
24.3545
24.3539
24.3533
24.3529
24.3525
24.3522
24.3519
24.3517
24.3516
24.3514
24.3513
24.3512
24.3512
24.3511
24.3511
24.351
24.351
24.351
24.3509
24.3509
24.3509
24.3509
24.3509
24.3508
24.3508
24.3507
24.3509
24.3503
24.351
21.0954
21.0945
21.0939
21.0933
21.0929
21.0925
21.0922
21.092
21.0918
21.0917
21.0915
21.0914
21.0913
21.0913
21.0912
21.0912
21.0911
21.0911
21.0911
21.0911
21.091
21.091
21.091
21.091
21.0909
21.091
21.0908
21.091
21.0904
21.0912
17.8354
17.8346
17.8339
17.8334
17.833
17.8326
17.8324
17.8321
17.8319
17.8318
17.8317
17.8316
17.8315
17.8314
17.8314
17.8313
17.8313
17.8313
17.8312
17.8312
17.8312
17.8312
17.8312
17.8312
17.8311
17.8311
17.8309
17.8312
17.8304
17.8314
14.5753
14.5745
14.5739
14.5734
14.573
14.5727
14.5724
14.5722
14.572
14.5719
14.5718
14.5717
14.5716
14.5715
14.5715
14.5714
14.5714
14.5714
14.5714
14.5713
14.5713
14.5713
14.5713
14.5713
14.5712
14.5713
14.5711
14.5713
14.5705
14.5717
11.3152
11.3145
11.3139
11.3134
11.313
11.3127
11.3125
11.3123
11.3121
11.312
11.3119
11.3118
11.3117
11.3116
11.3116
11.3116
11.3115
11.3115
11.3115
11.3115
11.3115
11.3114
11.3114
11.3114
11.3114
11.3114
11.3112
11.3114
11.3104
11.3118
8.05517
8.05449
8.05392
8.05348
8.0531
8.05281
8.05257
8.05238
8.05222
8.0521
8.052
8.05192
8.05185
8.0518
8.05175
8.05172
8.05169
8.05166
8.05164
8.05162
8.05162
8.05159
8.05159
8.05156
8.05155
8.05154
8.05136
8.05157
8.05049
8.05229
4.79513
4.79449
4.79393
4.79351
4.79315
4.79287
4.79264
4.79246
4.79231
4.79219
4.79209
4.79202
4.79195
4.7919
4.79186
4.79183
4.7918
4.79178
4.79176
4.79174
4.79174
4.79171
4.79171
4.79168
4.79168
4.79166
4.79147
4.79167
4.79031
4.79222
1.53491
1.53437
1.53383
1.53345
1.53312
1.53287
1.53265
1.5325
1.53236
1.53226
1.53217
1.5321
1.53204
1.532
1.53196
1.53193
1.53191
1.53189
1.53187
1.53185
1.53186
1.53183
1.53184
1.5318
1.53185
1.53178
1.53173
1.53178
1.53059
1.53313
-22.9564
-3.33746
-27.3026
-24.6874
-9.08426
-1.24832
0.319129
0.805543
0.527281
0.394917
0.0593196
-0.0199545
0.154167
0.0388879
0.250141
0.58634
-0.00627518
-0.100901
0.00878839
0.322921
0.284442
0.0765814
-0.0167396
-0.0551416
-0.0695352
-0.0802551
-0.0884891
-0.0930066
-0.0971474
-0.0987026
-67.2936
-11.5979
0.334087
-2.31994
0.374033
-0.252655
0.103897
-0.165505
-0.00605405
-0.137322
-0.0531206
-0.118541
-0.100681
-0.109819
-0.111261
-0.112625
-0.108599
-0.105124
-0.106418
-0.108854
-0.109656
-0.10529
-0.108115
-0.105739
-0.108328
-0.106589
-0.108303
-0.107182
-0.108137
-0.107621
76.892
-1.82648
-0.527293
-0.23221
0.216066
-0.345504
0.0498392
-0.265399
-0.0066548
-0.186597
-0.06248
-0.13077
-0.101531
-0.115722
-0.112267
-0.1167
-0.111019
-0.11022
-0.114121
-0.107442
-0.116555
-0.111668
-0.114735
-0.112292
-0.114875
-0.113136
-0.114842
-0.113725
-0.114675
-0.11416
55.6667
-1.001
-1.36724
0.0268182
-0.374341
-0.12176
-0.112005
-0.162811
-0.0803438
-0.15383
-0.0858535
-0.135717
-0.111192
-0.121976
-0.122046
-0.122056
-0.119872
-0.118641
-0.118776
-0.119847
-0.122045
-0.118416
-0.121386
-0.118906
-0.121444
-0.11969
-0.121389
-0.120271
-0.121218
-0.120703
-4.29893
3.14387
-0.00809071
-0.175505
0.0133163
-0.183011
-0.0264612
-0.190098
-0.0623969
-0.163646
-0.0982103
-0.13945
-0.118036
-0.12788
-0.125817
-0.127499
-0.12502
-0.123971
-0.127321
-0.122738
-0.128999
-0.124875
-0.127963
-0.125498
-0.127996
-0.126248
-0.12793
-0.126818
-0.127759
-0.127244
-2.79153
-0.828133
-0.308179
-0.0844991
-0.230336
-0.214682
-0.135985
-0.181135
-0.111833
-0.162266
-0.113271
-0.143544
-0.127584
-0.133702
-0.133562
-0.133726
-0.132914
-0.132207
-0.132639
-0.132114
-0.13475
-0.131583
-0.134562
-0.132103
-0.134548
-0.132812
-0.13447
-0.133367
-0.134299
-0.133787
-0.027313
2.07444
0.480298
4.21358
0.63921
-0.221138
-0.0768994
-0.181511
-0.102641
-0.161324
-0.122697
-0.14746
-0.134495
-0.139767
-0.1392
-0.139715
-0.138926
-0.137696
-0.140399
-0.136982
-0.141494
-0.138142
-0.141106
-0.138707
-0.141095
-0.139379
-0.141008
-0.139919
-0.140839
-0.140331
8.48353
8.21474
7.9756
0.957003
0.154279
-0.200088
-0.112095
-0.177191
-0.125763
-0.161302
-0.13524
-0.15055
-0.143659
-0.145885
-0.145862
-0.146057
-0.146093
-0.14532
-0.146362
-0.145033
-0.147774
-0.144811
-0.147685
-0.145315
-0.147639
-0.14595
-0.147545
-0.146473
-0.147377
-0.146875
13.7274
6.60283
-0.226552
-0.142967
-0.155767
-0.162994
-0.137901
-0.159041
-0.139571
-0.158517
-0.145578
-0.154534
-0.150781
-0.152131
-0.152325
-0.152392
-0.152497
-0.151274
-0.153468
-0.150688
-0.154279
-0.151428
-0.154205
-0.151924
-0.154179
-0.152525
-0.154079
-0.153029
-0.153914
-0.15342
1.48917
0.584353
-0.396094
-0.032549
-0.214099
-0.14799
-0.152916
-0.162053
-0.152701
-0.161268
-0.155945
-0.159374
-0.158047
-0.158654
-0.158859
-0.158802
-0.159365
-0.158346
-0.15985
-0.158098
-0.16076
-0.158083
-0.16077
-0.158537
-0.160717
-0.159103
-0.160613
-0.159588
-0.16045
-0.159967
-0.234203
-0.172536
-0.192211
-0.133801
-0.167942
-0.159507
-0.15947
-0.16388
-0.16108
-0.165082
-0.163185
-0.16499
-0.164892
-0.165124
-0.165527
-0.165254
-0.165914
-0.164751
-0.166576
-0.164366
-0.167242
-0.164723
-0.167284
-0.165151
-0.167251
-0.165683
-0.167145
-0.166148
-0.166985
-0.166514
-0.183649
-0.218048
-0.201771
-0.125009
-0.16035
-0.159427
-0.16535
-0.169212
-0.169362
-0.171322
-0.170985
-0.171574
-0.171687
-0.171641
-0.172188
-0.171726
-0.172638
-0.171409
-0.173169
-0.171233
-0.173765
-0.171373
-0.173829
-0.171767
-0.173782
-0.172266
-0.173675
-0.17271
-0.173519
-0.173062
-0.223531
-0.25375
-0.217662
-0.204649
-0.205689
-0.191236
-0.184532
-0.183516
-0.179766
-0.179276
-0.178385
-0.178083
-0.178539
-0.178113
-0.178915
-0.17822
-0.17929
-0.178024
-0.17976
-0.177863
-0.180258
-0.178019
-0.180346
-0.178386
-0.18031
-0.178852
-0.180204
-0.179274
-0.180053
-0.179612
-0.272761
-0.259983
-0.19744
-0.245216
-0.215312
-0.200527
-0.190122
-0.188045
-0.185724
-0.184983
-0.185051
-0.184486
-0.185321
-0.184563
-0.185661
-0.184723
-0.185975
-0.184636
-0.186374
-0.184531
-0.186793
-0.18467
-0.186876
-0.185005
-0.186836
-0.18544
-0.186731
-0.185839
-0.186586
-0.186162
0.00824683
-0.205695
-0.193969
-0.205656
-0.186988
-0.190734
-0.191814
-0.193831
-0.192311
-0.191751
-0.191911
-0.190871
-0.192174
-0.190982
-0.192436
-0.19123
-0.192652
-0.191243
-0.192951
-0.19119
-0.193301
-0.191319
-0.193395
-0.191626
-0.193359
-0.192029
-0.193257
-0.192406
-0.193117
-0.192712
14.5683
3.44077
2.39062
-0.210656
-0.217828
-0.206849
-0.201497
-0.198947
-0.197394
-0.197086
-0.198207
-0.196948
-0.198986
-0.197355
-0.199243
-0.197741
-0.199342
-0.197853
-0.199559
-0.197848
-0.199835
-0.197967
-0.199916
-0.198248
-0.199881
-0.198621
-0.199782
-0.198974
-0.199649
-0.199264
10.2512
10.6656
2.08632
-0.21839
-0.196719
-0.201709
-0.197154
-0.199636
-0.201753
-0.201932
-0.204961
-0.202913
-0.206
-0.2037
-0.206099
-0.204254
-0.206036
-0.204462
-0.206138
-0.204501
-0.206355
-0.204615
-0.206433
-0.20487
-0.206401
-0.205214
-0.206306
-0.205543
-0.206179
-0.205816
14.1018
5.82277
0.803441
-0.21071
-0.195664
-0.199341
-0.200073
-0.200001
-0.207625
-0.206453
-0.212114
-0.208761
-0.213186
-0.21003
-0.213005
-0.210774
-0.212735
-0.211074
-0.21273
-0.211152
-0.212884
-0.211262
-0.212949
-0.211493
-0.212918
-0.211808
-0.212828
-0.212113
-0.212709
-0.212368
4.76286
0.241586
0.165063
-0.183623
-0.213511
-0.201694
-0.198144
-0.206885
-0.216842
-0.211804
-0.220465
-0.214732
-0.220697
-0.216378
-0.219964
-0.217306
-0.219433
-0.21769
-0.219313
-0.217802
-0.21941
-0.217908
-0.219464
-0.218117
-0.219435
-0.218404
-0.21935
-0.218685
-0.219238
-0.218921
5.05635
-0.212325
-0.170354
-0.168454
-0.156686
-0.183577
-0.182883
-0.216721
-0.228666
-0.218331
-0.229613
-0.220852
-0.228398
-0.222755
-0.226946
-0.223855
-0.226122
-0.224311
-0.225889
-0.224451
-0.225935
-0.224554
-0.225977
-0.224741
-0.22595
-0.225
-0.22587
-0.225257
-0.225767
-0.225475
10.6321
-0.0647096
-0.0352721
-0.108196
-0.13931
-0.159386
-0.210848
-0.220739
-0.239817
-0.223908
-0.239203
-0.226985
-0.236225
-0.229178
-0.233912
-0.230426
-0.232793
-0.230939
-0.232457
-0.231099
-0.232458
-0.231198
-0.232489
-0.231366
-0.232463
-0.231597
-0.23239
-0.23183
-0.232295
-0.232028
13.5105
0.0938649
-0.169927
-0.0543254
-0.068506
-0.193243
-0.271031
-0.221606
-0.258332
-0.228749
-0.249993
-0.233102
-0.243959
-0.23567
-0.240807
-0.237029
-0.239435
-0.237576
-0.239016
-0.237749
-0.23898
-0.237843
-0.239
-0.23799
-0.238975
-0.238196
-0.238909
-0.238404
-0.238823
-0.238583
11.9498
-0.0129444
0.0798307
-0.231292
-0.333999
-0.233368
-0.310807
-0.232157
-0.277124
-0.235545
-0.259657
-0.239708
-0.251297
-0.242311
-0.247568
-0.243668
-0.246037
-0.244221
-0.245562
-0.244398
-0.245498
-0.244486
-0.245509
-0.244615
-0.245486
-0.244795
-0.245427
-0.244979
-0.245351
-0.245137
12.0884
-0.198503
0.973291
0.281053
-0.349114
-0.245347
-0.318056
-0.243762
-0.283323
-0.243982
-0.266586
-0.24649
-0.258058
-0.249077
-0.254155
-0.250347
-0.252592
-0.250876
-0.252096
-0.251049
-0.252013
-0.251129
-0.252017
-0.251239
-0.251997
-0.251394
-0.251945
-0.251553
-0.251878
-0.251691
9.66816
-0.20832
1.13486
0.104215
-0.319155
-0.277527
-0.299793
-0.26125
-0.282959
-0.253758
-0.270863
-0.253903
-0.264097
-0.255987
-0.260562
-0.257062
-0.2591
-0.257541
-0.258617
-0.257701
-0.258526
-0.257772
-0.258524
-0.257864
-0.258506
-0.257994
-0.258462
-0.258129
-0.258405
-0.258246
0.946935
0.903688
1.01199
-0.276867
-0.310892
-0.292017
-0.287307
-0.268962
-0.278635
-0.262403
-0.273383
-0.261569
-0.269476
-0.262927
-0.266819
-0.263801
-0.265562
-0.264213
-0.265125
-0.264353
-0.265035
-0.264414
-0.26503
-0.264489
-0.265015
-0.264595
-0.264978
-0.264705
-0.264931
-0.264801
-0.180426
-0.211954
-0.201484
-0.228624
-0.24229
-0.255618
-0.266029
-0.265813
-0.274516
-0.268097
-0.276198
-0.268801
-0.274768
-0.269868
-0.272983
-0.270559
-0.271989
-0.270891
-0.271623
-0.271007
-0.271542
-0.271055
-0.271535
-0.271114
-0.271523
-0.271195
-0.271495
-0.271281
-0.271458
-0.271356
-0.114233
-0.175508
-0.160281
-0.214684
-0.228247
-0.252123
-0.265629
-0.268216
-0.278482
-0.273916
-0.280894
-0.275906
-0.280241
-0.276811
-0.2791
-0.27733
-0.278388
-0.277576
-0.278112
-0.277662
-0.278047
-0.277697
-0.278041
-0.277739
-0.278031
-0.277797
-0.278011
-0.277858
-0.277985
-0.277912
-0.120249
-0.216704
-0.168262
-0.158476
-0.243439
-0.260792
-0.268032
-0.274736
-0.280306
-0.280959
-0.285088
-0.28307
-0.285724
-0.283761
-0.285194
-0.284112
-0.284767
-0.284265
-0.284593
-0.284318
-0.28455
-0.284339
-0.284545
-0.284363
-0.284539
-0.284398
-0.284526
-0.284435
-0.284511
-0.284467
0.565106
0.145576
-0.21414
-0.233805
-0.273412
-0.258382
-0.289674
-0.279216
-0.292805
-0.288043
-0.292387
-0.290361
-0.291559
-0.290794
-0.291286
-0.290906
-0.291136
-0.290957
-0.29107
-0.290974
-0.291052
-0.29098
-0.291048
-0.290988
-0.291046
-0.290999
-0.291042
-0.291011
-0.291037
-0.291022
-0.099682
-0.0999639
-0.100253
-0.100457
-0.100636
-0.100772
-0.100889
-0.100977
-0.101054
-0.10111
-0.101162
-0.1012
-0.101233
-0.101259
-0.101281
-0.1013
-0.101315
-0.101329
-0.101339
-0.10135
-0.101359
-0.101367
-0.101379
-0.101381
-0.101388
-0.101386
-0.101403
-0.101362
-0.101593
-0.101526
-0.107806
-0.107775
-0.107803
-0.10781
-0.107817
-0.107828
-0.107834
-0.107844
-0.107849
-0.107858
-0.107863
-0.10787
-0.107876
-0.107882
-0.107886
-0.107892
-0.107896
-0.107901
-0.107904
-0.107908
-0.107912
-0.107916
-0.107919
-0.107924
-0.107927
-0.107935
-0.107937
-0.107955
-0.107944
-0.107984
-0.114346
-0.114314
-0.114344
-0.114349
-0.114357
-0.114368
-0.114374
-0.114384
-0.114389
-0.114398
-0.114403
-0.11441
-0.114415
-0.114422
-0.114426
-0.114432
-0.114436
-0.11444
-0.114444
-0.114448
-0.114451
-0.114456
-0.114459
-0.114464
-0.114468
-0.114476
-0.114483
-0.114508
-0.114533
-0.114661
-0.12089
-0.120855
-0.120887
-0.12089
-0.120899
-0.120909
-0.120915
-0.120924
-0.12093
-0.120938
-0.120944
-0.120951
-0.120956
-0.120962
-0.120967
-0.120972
-0.120976
-0.120981
-0.120984
-0.120989
-0.120992
-0.120996
-0.120999
-0.121004
-0.121007
-0.121014
-0.121016
-0.121033
-0.121015
-0.121069
-0.127434
-0.127395
-0.12743
-0.12743
-0.12744
-0.127449
-0.127456
-0.127465
-0.127471
-0.127479
-0.127484
-0.127491
-0.127496
-0.127502
-0.127507
-0.127512
-0.127516
-0.127521
-0.127524
-0.127528
-0.127532
-0.127536
-0.127539
-0.127543
-0.127546
-0.127554
-0.127557
-0.127578
-0.127563
-0.127633
-0.133979
-0.133936
-0.133973
-0.133971
-0.133982
-0.13399
-0.133997
-0.134006
-0.134012
-0.134019
-0.134025
-0.134032
-0.134037
-0.134043
-0.134047
-0.134052
-0.134056
-0.134061
-0.134064
-0.134068
-0.134071
-0.134075
-0.134078
-0.134083
-0.134085
-0.134092
-0.134091
-0.134107
-0.134084
-0.134127
-0.140524
-0.140478
-0.140517
-0.140512
-0.140524
-0.140532
-0.140539
-0.140547
-0.140553
-0.140561
-0.140566
-0.140573
-0.140578
-0.140583
-0.140588
-0.140593
-0.140597
-0.140601
-0.140605
-0.140609
-0.140612
-0.140615
-0.140618
-0.140622
-0.140625
-0.140631
-0.14063
-0.140647
-0.140624
-0.140666
-0.14707
-0.147019
-0.147061
-0.147053
-0.147066
-0.147074
-0.14708
-0.147088
-0.147094
-0.147101
-0.147107
-0.147113
-0.147118
-0.147124
-0.147128
-0.147133
-0.147137
-0.147141
-0.147144
-0.147148
-0.147151
-0.147155
-0.147157
-0.147162
-0.147163
-0.147169
-0.147167
-0.14718
-0.147158
-0.147187
-0.153614
-0.15356
-0.153604
-0.153595
-0.153608
-0.153615
-0.153622
-0.15363
-0.153635
-0.153642
-0.153648
-0.153654
-0.153659
-0.153664
-0.153668
-0.153673
-0.153677
-0.153681
-0.153684
-0.153688
-0.153691
-0.153695
-0.153697
-0.153701
-0.153702
-0.153708
-0.153705
-0.153717
-0.153697
-0.153722
-0.160159
-0.160103
-0.160149
-0.160137
-0.160151
-0.160158
-0.160164
-0.160172
-0.160177
-0.160184
-0.160189
-0.160195
-0.1602
-0.160205
-0.160209
-0.160214
-0.160218
-0.160222
-0.160225
-0.160228
-0.160231
-0.160235
-0.160237
-0.16024
-0.160241
-0.160246
-0.160243
-0.160253
-0.160235
-0.160254
-0.166703
-0.166646
-0.166694
-0.166679
-0.166694
-0.1667
-0.166706
-0.166713
-0.166719
-0.166725
-0.16673
-0.166736
-0.166741
-0.166746
-0.16675
-0.166754
-0.166758
-0.166762
-0.166765
-0.166768
-0.166771
-0.166774
-0.166776
-0.16678
-0.16678
-0.166785
-0.166781
-0.16679
-0.166774
-0.166789
-0.173246
-0.17319
-0.173238
-0.173222
-0.173237
-0.173242
-0.173248
-0.173255
-0.17326
-0.173267
-0.173272
-0.173277
-0.173282
-0.173286
-0.17329
-0.173295
-0.173298
-0.173302
-0.173305
-0.173308
-0.17331
-0.173314
-0.173315
-0.173319
-0.173319
-0.173323
-0.17332
-0.173327
-0.173313
-0.173325
-0.179789
-0.179734
-0.179782
-0.179765
-0.17978
-0.179785
-0.179791
-0.179798
-0.179803
-0.179809
-0.179813
-0.179819
-0.179823
-0.179828
-0.179831
-0.179836
-0.179839
-0.179842
-0.179845
-0.179848
-0.179851
-0.179854
-0.179855
-0.179858
-0.179858
-0.179862
-0.179859
-0.179865
-0.179853
-0.179862
-0.186332
-0.18628
-0.186325
-0.186309
-0.186323
-0.186328
-0.186333
-0.18634
-0.186345
-0.18635
-0.186355
-0.18636
-0.186364
-0.186368
-0.186372
-0.186376
-0.186379
-0.186383
-0.186385
-0.186388
-0.18639
-0.186393
-0.186395
-0.186397
-0.186397
-0.186401
-0.186397
-0.186402
-0.186392
-0.1864
-0.192874
-0.192825
-0.192868
-0.192853
-0.192866
-0.192871
-0.192876
-0.192882
-0.192887
-0.192892
-0.192896
-0.192901
-0.192905
-0.192909
-0.192913
-0.192916
-0.192919
-0.192923
-0.192925
-0.192928
-0.19293
-0.192933
-0.192934
-0.192937
-0.192936
-0.19294
-0.192936
-0.192941
-0.192932
-0.192938
-0.199417
-0.199371
-0.199411
-0.199397
-0.199409
-0.199414
-0.199419
-0.199425
-0.199429
-0.199434
-0.199438
-0.199443
-0.199447
-0.199451
-0.199454
-0.199457
-0.19946
-0.199463
-0.199466
-0.199468
-0.19947
-0.199473
-0.199474
-0.199476
-0.199476
-0.199479
-0.199476
-0.199479
-0.199472
-0.199476
-0.20596
-0.205917
-0.205954
-0.205942
-0.205953
-0.205958
-0.205962
-0.205967
-0.205971
-0.205976
-0.20598
-0.205984
-0.205988
-0.205992
-0.205995
-0.205998
-0.206001
-0.206004
-0.206006
-0.206008
-0.20601
-0.206012
-0.206013
-0.206016
-0.206015
-0.206018
-0.206015
-0.206018
-0.206012
-0.206015
-0.212502
-0.212464
-0.212497
-0.212486
-0.212496
-0.212501
-0.212505
-0.21251
-0.212514
-0.212518
-0.212522
-0.212526
-0.212529
-0.212533
-0.212535
-0.212539
-0.212541
-0.212544
-0.212546
-0.212548
-0.21255
-0.212552
-0.212553
-0.212555
-0.212554
-0.212557
-0.212554
-0.212557
-0.212551
-0.212554
-0.219046
-0.219011
-0.21904
-0.219032
-0.21904
-0.219045
-0.219048
-0.219053
-0.219056
-0.219061
-0.219064
-0.219068
-0.219071
-0.219074
-0.219077
-0.21908
-0.219082
-0.219085
-0.219086
-0.219089
-0.21909
-0.219092
-0.219093
-0.219095
-0.219094
-0.219096
-0.219094
-0.219096
-0.219091
-0.219094
-0.225588
-0.225557
-0.225583
-0.225577
-0.225583
-0.225588
-0.225591
-0.225596
-0.225599
-0.225603
-0.225606
-0.225609
-0.225612
-0.225615
-0.225618
-0.22562
-0.225622
-0.225625
-0.225627
-0.225629
-0.22563
-0.225632
-0.225632
-0.225634
-0.225634
-0.225635
-0.225633
-0.225635
-0.225631
-0.225633
-0.232131
-0.232104
-0.232126
-0.232122
-0.232127
-0.232132
-0.232135
-0.232139
-0.232141
-0.232145
-0.232148
-0.232151
-0.232154
-0.232156
-0.232159