/*--------------------------------*- C++ -*----------------------------------*\
| =========                 |                                                 |
| \\      /  F ield         | OpenFOAM: The Open Source CFD Toolbox           |
|  \\    /   O peration     | Version:  2.4.0                                 |
|   \\  /    A nd           | Web:      www.OpenFOAM.org                      |
|    \\/     M anipulation  |                                                 |
\*---------------------------------------------------------------------------*/
FoamFile
{
    version     2.0;
    format      ascii;
    class       volScalarField;
    location    "0.047";
    object      p;
}
// * * * * * * * * * * * * * * * * * * * * * * * * * * * * * * * * * * * * * //

dimensions      [1 -1 -2 0 0 0 0];

internalField   nonuniform List<scalar> 
14400
(
96.595
98.6951
99.6661
100.956
102.503
104.268
106.062
107.371
107.582
106.343
103.675
99.863
95.3123
90.4249
85.5569
80.9962
76.9456
73.5205
70.7567
68.622
67.0372
65.901
65.1093
64.5695
64.208
63.9704
63.818
63.7246
63.6724
63.6492
93.3326
95.434
96.4053
97.6957
99.2418
101.007
102.805
104.119
104.335
103.099
100.43
96.6153
92.0597
87.1654
82.2886
77.718
73.6576
70.2242
67.4533
65.3146
63.7295
62.5965
61.8099
61.276
60.9202
60.6875
60.5389
60.4482
60.3976
60.3752
90.0674
92.1701
93.1419
94.4319
95.9773
97.7437
99.5509
100.884
101.117
99.8906
97.2251
93.4041
88.8372
83.926
79.0275
74.4315
70.3446
66.886
64.0929
61.9373
60.3421
59.2047
58.4183
57.8869
57.5345
57.305
57.159
57.0701
57.0206
56.9986
86.7996
88.9033
89.8758
91.1649
92.709
94.4772
96.3013
97.6656
97.9284
96.7208
94.061
90.2311
85.6462
80.7074
75.7728
71.1347
67.0032
63.5016
60.6707
58.4853
56.8704
55.7233
54.9343
54.4045
54.0553
53.8291
53.6861
53.5994
53.5511
53.5297
83.529
85.6339
86.6071
87.8948
89.437
91.2077
93.0557
94.4646
94.7708
93.5897
90.9389
87.0969
82.4873
77.51
72.5244
67.8266
63.6317
60.068
57.1821
54.9526
53.3079
52.1454
51.3521
50.8242
50.4793
50.258
50.1191
50.0355
49.9892
49.9688
80.2559
82.3615
83.3356
84.6214
86.1612
87.9347
89.8136
91.2807
91.6437
90.4978
87.8597
84.0019
79.3611
74.3344
69.2829
64.5074
60.2292
56.5837
53.6241
51.3344
49.6481
48.464
47.6648
47.1398
46.8011
46.5865
46.4535
46.3745
46.3311
46.3122
76.98
79.0864
80.0615
81.3447
82.8817
84.6581
86.5745
88.1138
88.5476
87.4457
84.8246
80.9468
76.2686
71.1817
66.0492
61.1775
56.7955
53.0472
49.9936
47.6248
45.8829
44.6699
43.8636
43.3435
43.0136
42.808
42.6834
42.6107
42.5716
42.5547
73.7016
75.8085
76.7848
78.0648
79.5984
81.3774
83.338
84.964
85.4828
84.4344
81.8279
77.9322
73.211
68.0533
62.8244
57.8376
53.3302
49.4567
46.2864
43.8167
42.0011
40.7502
39.9364
39.4247
39.1073
38.9141
38.8007
38.737
38.7038
38.6897
70.4205
72.5278
73.5053
74.7815
76.3112
78.0919
80.1031
81.8308
82.4496
81.4646
78.87
74.9589
70.1894
64.9506
59.61
54.4885
49.8332
45.8104
42.4983
39.9008
37.9878
36.6869
35.8664
35.3694
35.0699
34.8932
34.7952
34.7441
34.7189
34.7088
67.1368
69.2443
70.2232
71.4948
73.0202
74.8011
76.869
78.7141
79.4483
78.5368
75.9573
72.028
67.2058
61.8757
56.408
51.1315
46.3045
42.1068
38.625
35.8664
33.8229
32.455
31.63
31.1596
30.8858
30.7313
30.6555
30.6215
30.6052
30.598
63.8506
65.958
66.9384
68.2046
69.7255
71.5044
73.6347
75.6138
76.4796
75.6517
73.0905
69.1408
64.2619
58.8311
53.2206
47.7687
42.7448
38.3446
34.6628
31.7017
29.4789
28.0185
27.1933
26.7714
26.5348
26.4117
26.3687
26.3542
26.3462
26.3383
60.5618
62.669
63.6509
64.9107
66.427
68.2008
70.3987
72.5294
73.5437
72.8102
70.2703
66.2983
61.3601
55.8195
50.0501
44.4021
39.155
34.5235
30.6092
27.3946
24.918
23.3249
22.5032
22.1708
21.9896
21.9167
21.9165
21.9199
21.9242
21.9288
57.2705
59.3771
60.3606
61.6129
63.1251
64.8894
67.1596
69.4606
70.6414
70.0133
67.4975
63.5019
58.503
52.8441
46.9
41.0344
35.5362
30.644
26.4643
22.9359
20.0882
18.2978
17.4745
17.3096
17.2106
17.2484
17.3476
17.3708
17.3316
17.293
53.9767
56.0825
57.0676
58.3111
59.8201
61.5694
63.9158
66.4072
67.7733
67.2623
64.7729
60.7528
55.6937
49.9088
43.7749
37.6697
31.8883
26.7055
22.232
18.3231
14.9115
12.8195
11.9773
12.1203
12.1977
12.4334
12.5879
12.4798
12.3893
12.2862
50.6806
52.7851
53.7716
55.0048
56.5121
58.2397
60.6651
63.3686
64.94
64.5582
62.0977
58.0522
52.9357
47.0177
40.6782
34.3117
28.2079
22.7008
17.9174
13.5541
9.25031
6.62728
5.82016
6.22246
6.90412
7.7339
8.04548
7.63342
7.05723
6.75628
47.382
49.4849
50.4725
51.6936
53.2019
54.8993
57.4053
60.3444
62.1422
61.9026
59.4731
55.4013
50.2329
44.1761
37.6145
30.9649
24.4861
18.6092
13.5071
8.61148
2.95308
-0.992564
-0.771454
-0.248619
1.61233
2.6433
3.45037
2.48593
1.03018
0.496168
44.0811
46.1821
47.1701
48.377
49.8903
51.5473
54.1338
57.3342
59.3807
59.2967
56.9005
52.8012
47.5902
41.3889
34.5917
27.6351
20.7168
14.3636
9.06223
3.56746
-3.58468
-10.6647
-4.70096
-0.401832
-0.0265639
0.0785269
0.152544
0.14293
0.149832
0.187422
40.7779
42.8765
43.864
45.0541
46.5781
48.1827
50.8474
54.3373
56.6562
56.7418
54.3819
50.253
45.0132
38.6626
31.6146
24.325
16.9994
8.85463
4.53424
-0.705602
-1.88205
0.1324
0.0720603
0.0281736
0.00826047
0.0447013
0.0758847
0.105133
0.127229
0.135681
37.4725
39.5682
40.5537
41.7242
43.2669
44.8049
47.5427
51.3531
53.9696
54.2394
51.9153
47.7575
42.5082
36.0046
28.6893
21.0394
13.3209
2.89049
-1.63392
-0.517865
-0.0113408
0.0463733
0.0351062
0.019905
0.0145089
0.0335471
0.0596296
0.0824725
0.0968488
0.102363
34.1649
36.2573
37.2386
38.3859
39.9584
41.4136
44.2157
48.3808
51.3213
51.7907
49.4926
45.3151
40.083
33.4221
25.8247
17.7644
10.3209
1.34838
-3.54052
-0.10107
-0.0343624
-0.012365
0.00726631
0.00591288
0.0103105
0.024716
0.0428312
0.0607327
0.0718591
0.07717
30.8553
32.9438
33.9178
35.0377
36.6552
38.0091
40.8617
45.4194
48.7119
49.3966
47.1195
42.9236
37.7473
30.9246
23.0218
14.4293
4.47832
2.04879
-0.0150362
-0.0659987
-0.0451126
-0.0374706
-0.014926
-0.00426636
0.00650914
0.0310276
0.029827
0.0427655
0.0519844
0.0566907
27.5437
29.6277
30.5905
31.6779
33.3604
34.5927
37.4757
42.4675
46.1411
47.0577
44.7942
40.58
35.5127
28.521
20.2826
11.5214
-0.834032
-5.89722
-0.088112
-0.0879438
-0.0647764
-0.0478479
-0.0286753
-0.0119552
0.00247518
0.0174415
0.0224571
0.0309424
0.0378181
0.0415787
24.2302
26.3092
27.2554
28.3044
30.0782
31.1677
34.0516
39.5233
43.6086
44.7742
42.51
38.2776
33.3929
26.2243
17.5905
8.99055
4.1312
-0.23126
-0.0700845
-0.103747
-0.0753951
-0.0529896
-0.036444
-0.00161607
-0.00196442
0.00577196
0.0156309
0.0227113
0.0282674
0.0315051
20.915
22.9882
23.9114
24.9146
26.814
27.7396
30.5828
36.584
41.1128
42.5447
40.245
36.0055
31.4052
24.0529
14.7823
7.11726
-8.74427
-0.321999
-0.0214734
-0.0929969
-0.0731235
-0.0536244
-0.0391071
-0.0268792
-0.0119577
0.000860494
0.0101575
0.0169751
0.0235965
0.0277274
17.598
19.6649
20.557
21.5061
23.5748
24.3178
27.0623
33.6459
38.6509
40.3664
37.9826
33.7438
29.5705
22.04
11.9082
0.709745
-0.667057
-0.279848
0.00829986
-0.0729419
-0.066728
-0.0521871
-0.0390504
-0.0265874
-0.0134455
-0.00218601
0.00644827
0.0128026
0.0223175
0.0231411
14.2796
16.3395
17.1917
18.0766
20.3691
20.9178
23.483
30.7043
36.2186
38.233
35.7496
31.4606
27.9135
20.2294
9.44343
-19.3118
-0.263449
-0.176498
-0.0432358
-0.0647921
-0.0615706
-0.0502297
-0.0381982
-0.0262188
-0.0145957
-0.00477943
0.00325089
0.00886168
0.0128501
0.014897
10.9597
13.012
13.8148
14.6239
17.2071
17.5628
19.8393
27.7528
33.8089
36.1332
33.5208
29.1128
26.4618
18.6704
6.7145
-4.52245
-0.111085
-0.121905
-0.064018
-0.0638976
-0.058918
-0.0489885
-0.0378066
-0.0266821
-0.01636
-0.00778019
-0.000720353
0.00424216
0.00746917
0.00921699
7.63869
9.68259
10.4271
11.147
14.0995
14.2889
16.1315
24.7824
31.4117
34.0474
31.2639
26.6381
25.2516
17.3448
3.09162
-0.334877
-0.0841211
-0.0952528
-0.0705388
-0.064801
-0.0582028
-0.0487354
-0.0382966
-0.0280943
-0.018895
-0.0113047
-0.00544199
-0.00112023
0.00179799
0.00320975
4.31818
6.35173
7.03079
7.64501
11.0565
11.1496
12.3768
21.7798
29.0124
31.9429
28.9323
23.9365
24.3229
16.3267
-2.46757
-0.070283
-0.0761172
-0.0851627
-0.0733827
-0.0664196
-0.0588573
-0.0495665
-0.0397414
-0.030379
-0.0221235
-0.0153657
-0.0101692
-0.00642463
-0.0040278
-0.00289397
1.02501
3.01954
3.62935
4.1173
8.08421
8.2228
8.62145
18.724
26.5894
29.7418
26.4651
20.8161
23.7229
15.8723
-9.37472
-0.0601281
-0.0797805
-0.0821516
-0.0755823
-0.0685934
-0.0605392
-0.0513608
-0.0420455
-0.0334052
-0.0259417
-0.0199062
-0.0153166
-0.0120712
-0.0100445
-0.00909794
63.6471
63.6639
63.7061
63.7836
63.9115
64.1117
64.4169
64.8737
65.5471
66.5215
67.898
69.7829
72.2704
75.4219
79.2366
83.6423
88.478
93.4932
98.3611
102.703
106.117
108.254
108.939
108.28
106.636
104.49
102.319
100.487
99.1572
98.3692
60.3731
60.3895
60.4304
60.5056
60.6302
60.826
61.1257
61.5766
62.2442
63.2144
64.5893
66.4764
68.9695
72.1286
75.9532
80.3693
85.2145
90.2376
95.1113
99.4572
102.873
105.008
105.69
105.027
103.38
101.23
99.0578
97.2248
95.8956
95.1078
56.9965
57.0126
57.0525
57.1261
57.2482
57.4407
57.737
58.1845
58.8505
59.8225
61.2045
63.1053
65.619
68.8017
72.6529
77.0957
81.9651
87.008
91.8955
96.2492
99.6659
101.796
102.465
101.787
100.126
97.968
95.7914
93.9583
92.6303
91.8432
53.5277
53.543
53.5818
53.6534
53.7725
53.9614
54.2538
54.6984
55.3644
56.3421
57.7389
59.6646
62.2126
65.4367
69.3329
73.8204
78.7301
83.8054
88.7152
93.0811
96.4979
98.6172
99.2649
98.5599
96.8768
94.7036
92.5201
90.6871
89.3614
88.5756
49.9668
49.9813
50.0182
50.0867
50.2016
50.3854
50.6724
51.1132
51.7796
52.7666
54.1859
56.1491
58.7474
62.0313
65.9918
70.5428
75.5097
80.6305
85.5711
89.9535
93.3694
95.474
96.0894
95.346
93.6308
91.4369
89.244
87.4113
86.0889
85.3048
46.3102
46.3236
46.3578
46.4219
46.5307
46.7073
46.9869
47.4221
48.0889
49.0889
50.5399
52.5549
55.2212
58.5842
62.6292
67.2632
72.3044
77.484
82.4637
86.8666
90.2803
92.3659
92.9387
92.1451
90.3881
88.1675
85.9628
84.1308
82.8127
82.0309
42.5529
42.5648
42.5952
42.6532
42.7536
42.9202
43.1896
43.6166
44.283
45.3002
46.7938
48.8775
51.6317
55.0945
59.2454
63.9827
69.1155
74.3669
79.3939
83.8208
87.2304
89.2934
89.8128
88.9568
87.1486
84.8955
82.6766
80.8456
79.5329
78.7538
38.6884
38.6982
38.7236
38.7732
38.8619
39.0151
39.2705
39.6852
40.3491
41.388
42.9385
45.1114
47.9761
51.5611
55.8403
60.702
65.9442
71.2807
76.3628
80.8164
84.2263
86.2568
86.7116
85.7809
83.9119
81.6206
79.3851
77.5557
76.2495
75.4736
34.7079
34.7155
34.7343
34.7725
34.845
34.98
35.2164
35.6123
36.269
37.3353
38.9617
41.2503
44.2515
47.9826
52.4142
57.4222
62.7922
68.2271
73.3713
77.8539
81.2669
83.2564
83.6351
82.6169
80.6776
78.3424
76.0881
74.2611
72.9625
72.1903
30.5969
30.6042
30.6167
30.6415
30.6899
30.7998
31.0103
31.3768
32.0171
33.1186
34.8484
37.2873
40.4551
44.3574
48.9675
54.1453
59.6619
65.2081
70.421
74.9344
78.3496
80.2929
80.5831
79.4643
77.4452
75.0607
72.7854
70.9617
69.6718
68.9038
26.335
26.3476
26.3557
26.3683
26.382
26.4558
26.6303
26.9497
27.5562
28.705
30.5796
33.2158
36.5846
40.6836
45.5007
50.8731
56.5558
62.2263
67.5136
72.0589
75.4752
77.3666
77.5556
76.3227
74.2143
71.775
69.4769
67.6576
66.3776
65.6141
21.9284
21.9358
21.932
21.9308
21.9066
21.9256
22.0457
22.2896
22.8291
24.0473
26.1322
29.0312
32.6377
36.9585
42.0146
47.6077
53.4769
59.2845
64.6506
69.2283
72.6443
74.478
74.5523
73.1913
70.9841
68.4848
66.162
64.3487
63.0798
62.3213
17.2906
17.3223
17.3807
17.3933
17.2964
17.1883
17.2158
17.3312
17.7468
19.0759
21.478
24.7342
28.6128
33.179
38.5103
44.3522
50.4286
56.3863
61.8343
66.4433
69.8583
71.6279
71.5729
70.0693
67.7539
65.1897
62.8407
61.035
59.7785
59.0253
12.2815
12.3671
12.4924
12.5674
12.5592
12.2323
12.0805
11.9638
12.1673
13.6784
16.5812
20.3361
24.5076
29.341
34.9902
41.1102
47.4157
53.5355
59.067
63.7047
67.118
68.8169
68.6172
66.9557
64.5231
61.8893
59.5124
57.7167
56.4737
55.7262
6.73953
6.9448
7.43269
7.97004
8.01493
7.15528
6.45986
5.88873
5.93408
7.66383
11.3945
15.8668
20.3173
25.4391
31.4594
37.8862
44.4428
50.7366
56.351
61.0128
64.4245
66.0458
65.6847
63.8494
61.2906
58.5827
56.1767
54.3936
53.1654
52.4238
0.569382
0.879907
2.06398
3.60873
3.45873
0.455319
1.28645
-0.802601
-0.983975
0.738326
5.81064
11.3783
16.0191
21.4618
27.9272
34.6852
41.5155
47.995
53.6892
58.3677
61.7787
63.3153
62.7748
60.7491
58.0554
55.2692
52.8331
51.0658
49.8536
49.1183
0.194878
0.172457
0.146138
0.156603
0.196859
0.114879
-0.178558
-2.32218
-6.6589
-7.04421
0.187727
7.05959
11.5039
17.372
24.4115
31.5146
38.6407
45.3165
51.0847
55.769
59.1815
60.6263
59.8868
57.6535
54.8165
51.9482
49.481
47.7336
46.5384
45.8095
0.136321
0.13082
0.115084
0.0888129
0.0572745
0.0304045
0.00808229
0.0576957
0.062669
0.146555
-3.60434
3.76993
5.99572
13.3168
20.9306
28.3824
35.8251
42.7082
48.5409
53.2149
56.6333
57.9795
57.0199
54.5608
51.5724
48.6184
46.1197
44.3971
43.2197
42.4975
0.102844
0.099615
0.0891979
0.0701108
0.0446145
0.0215176
0.0114415
0.0276611
0.0437332
0.0263632
-0.0276609
1.3793
-2.1677
9.36908
17.5157
25.2964
33.077
40.1778
46.0618
50.7072
54.1345
55.3758
54.1731
51.469
48.3216
45.2786
42.7483
41.0565
39.8977
39.1822
0.0778462
0.074444
0.0656974
0.0506758
0.0320004
0.0153482
0.00390311
0.0058594
0.0021031
-0.0262378
-0.0487566
-0.210514
-5.67307
4.38297
13.8795
22.2653
30.4047
37.7347
43.6519
48.2477
51.6849
52.8159
51.3449
48.3759
45.0624
41.9274
39.3658
37.7123
36.5724
35.8637
0.0573123
0.0541203
0.046565
0.0346776
0.0410974
0.0107764
-0.00155821
-0.0106435
-0.0239439
-0.0437129
-0.0608213
-0.0243714
-6.54466
6.0792
10.5507
19.3312
27.8159
35.389
41.3165
45.8285
49.2842
50.3004
48.5337
45.2787
41.7923
38.5628
35.971
34.3648
33.2437
32.5418
0.0420481
0.0393713
0.0334752
0.0248911
0.025396
0.00897371
-0.00415517
-0.0222851
-0.0370736
-0.055698
-0.0846169
-0.0792514
-0.0883831
6.92083
5.26842
16.5026
25.3173
33.1533
39.0621
43.4462
46.9313
47.8298
45.7375
42.1743
38.5085
35.1825
32.5625
31.0149
29.9117
29.2165
0.031908
0.029351
0.0245563
0.017834
0.0102351
0.0020089
0.000682393
-0.0308585
-0.043617
-0.0631985
-0.0893566
-0.0849045
-0.0974336
-4.59739
0.443971
13.8227
22.9148
31.0428
36.8971
41.0973
44.6238
45.4045
42.9541
39.0588
35.2077
31.7836
29.1385
27.6636
26.5765
25.8879
0.0271077
0.0240501
0.0184668
0.0123608
0.00422031
-0.00753872
-0.0224205
-0.0340043
-0.0460143
-0.0630063
-0.0857423
-0.065512
-0.0703032
-0.674775
-2.40207
11.4676
20.6152
29.0762
34.8325
38.7843
42.3576
43.0242
40.1806
35.9276
31.8851
28.3624
25.6968
24.3122
23.238
22.5557
0.0230811
0.0232802
0.0143295
0.00848955
0.000681902
-0.00964575
-0.0223205
-0.0344266
-0.0461718
-0.0602741
-0.073765
-0.0536049
-0.0474015
-0.413902
-15.2569
8.84305
18.4175
27.2749
32.8826
36.5116
40.127
40.6883
37.4137
32.7757
28.5354
24.9149
22.2345
20.9623
19.8963
19.22
0.0156164
0.014268
0.00982971
0.00539429
-0.00233255
-0.0113283
-0.0223476
-0.0339531
-0.0454919
-0.0576302
-0.0670089
-0.060828
-0.100981
-0.218647
-0.617595
3.49099
16.2033
25.6688
31.0645
34.2236
37.9245
38.3951
34.6495
29.5972
25.1522
21.4364
18.7486
17.6165
16.5515
15.8807
0.00946308
0.00803447
0.00552229
0.00103339
-0.00569605
-0.0135843
-0.0233186
-0.0340855
-0.0451421
-0.0561122
-0.0647695
-0.0669835
-0.0859968
-0.120926
-0.0902929
-3.72127
14.4
24.2905
29.396
31.8927
35.7358
36.1419
31.8852
26.3858
21.7291
17.9225
15.2353
14.2778
13.2036
12.5376
0.00332934
0.00219419
-0.000345799
-0.00418717
-0.0095596
-0.0165808
-0.0252492
-0.0351048
-0.0455241
-0.0558826
-0.0647427
-0.0707465
-0.0837597
-0.0992531
-0.0751346
-9.52521
13.6254
23.1739
27.8986
29.467
33.5379
33.9243
29.1116
23.1351
18.2617
14.3707
11.6915
10.9501
9.85262
9.19065
-0.00282362
-0.00374872
-0.00584009
-0.00920246
-0.01397
-0.0202401
-0.0280167
-0.0370315
-0.0468188
-0.0567814
-0.065962
-0.0738165
-0.0848907
-0.0926406
-0.05583
-0.43765
12.6562
22.2962
26.5953
26.8605
31.2964
31.736
26.3236
19.839
14.7503
10.7815
8.11504
7.6389
6.49879
5.83981
-0.00905521
-0.00985994
-0.0116677
-0.0146201
-0.0188495
-0.0244595
-0.0314787
-0.0397563
-0.0489637
-0.0586217
-0.0680434
-0.0768748
-0.0874268
-0.0960349
-0.0311303
-4.89693
13.1611
21.6589
25.4957
23.9783
28.9744
29.5636
23.5138
16.4918
11.2034
7.1599
4.50624
4.35068
3.14186
2.48327
-0.10193
0.237127
0.678268
1.00054
5.53977
5.92903
5.39935
15.9829
24.4207
27.4475
23.7738
17.2712
23.4773
16.0046
-25.7529
-0.00630396
-0.0835018
-0.0824345
-0.0777484
-0.0709829
-0.06272
-0.0536313
-0.0446969
-0.0365981
-0.0297351
-0.0242731
-0.0201816
-0.0173332
-0.0155778
-0.0147657
-0.0998978
-0.0816548
0.181546
-0.18774
4.24479
4.7258
3.56706
14.3454
23.1115
25.7375
21.5972
15.0075
23.4298
16.4215
44.6853
-0.116924
-0.0876727
-0.083517
-0.079254
-0.0725907
-0.0642673
-0.0552551
-0.0465313
-0.0387267
-0.0322055
-0.0270853
-0.0233001
-0.0207041
-0.0191354
-0.0184325
-0.102081
-0.0834175
0.204101
-0.303376
12.2811
3.88651
1.68617
12.5538
21.6353
23.4243
19.0233
13.614
23.4753
16.7884
5.94471
-0.248354
-0.0932557
-0.0851914
-0.0810854
-0.0744636
-0.0661104
-0.0571907
-0.04867
-0.0411672
-0.0349992
-0.0302257
-0.0267505
-0.024418
-0.0230552
-0.0224797
-0.103986
-0.0854994
0.155931
-0.226464
-0.451184
7.92904
11.9687
13.2869
19.9467
20.419
16.3112
12.9199
23.6132
16.7008
-9.76397
-0.210373
-0.0980307
-0.0872924
-0.0832789
-0.0766691
-0.0682986
-0.0594578
-0.0511318
-0.0439339
-0.038115
-0.0336779
-0.0305019
-0.0284208
-0.0272477
-0.0267839
-0.106092
-0.0876493
0.115951
-0.225667
-0.0806899
0.332116
1.73392
8.19159
17.8536
16.7672
12.3999
12.2707
23.819
16.0189
1.22481
-0.171617
-0.100327
-0.0896851
-0.0858907
-0.0792968
-0.0708969
-0.0621037
-0.0539634
-0.0470653
-0.0415854
-0.0374717
-0.0345767
-0.0327172
-0.0316938
-0.0313077
-0.108388
-0.0899687
0.0545404
-0.232167
-0.0630933
-0.311808
-0.781632
5.59328
15.2349
12.3724
6.94273
12.2917
23.9763
15.7479
-3.43062
-0.152747
-0.0999465
-0.0922771
-0.0889927
-0.0824424
-0.0739682
-0.0651787
-0.057208
-0.050596
-0.0454402
-0.0416334
-0.0389945
-0.0373204
-0.0364086
-0.0360739
-0.11088
-0.0931594
-0.100584
-0.208831
-0.0696111
-0.165657
-0.80953
2.29769
12.5302
7.26643
0.309634
14.9051
23.9294
14.3662
-1.19919
-0.123732
-0.0983983
-0.0951324
-0.0927239
-0.0862325
-0.0775946
-0.0687492
-0.0609204
-0.0545727
-0.0497213
-0.0462006
-0.0437922
-0.0422773
-0.0414584
-0.0411661
-0.113601
-0.0962817
-0.109168
-0.226741
-0.0726535
-0.176371
-0.206766
-0.253437
9.63781
1.41367
-6.68023
17.4395
24.1332
14.3849
-0.189619
-0.106799
-0.0967199
-0.0985254
-0.0973251
-0.0908448
-0.081894
-0.0728992
-0.0651594
-0.0590422
-0.0544701
-0.0512132
-0.0490169
-0.047651
-0.046923
-0.0466757
-0.116574
-0.0996023
-0.111194
-0.188347
-0.0767352
-0.183351
-0.179585
-0.0344593
5.33869
-1.11259
-10.5376
16.1
26.0246
1.39698
-0.0800232
-0.0920663
-0.0960946
-0.102983
-0.103201
-0.0965611
-0.0870483
-0.0777392
-0.0699962
-0.0640611
-0.0597406
-0.0567301
-0.0547371
-0.0535196
-0.0528863
-0.052688
-0.11982
-0.103392
-0.112414
-0.230748
-0.0857979
-0.189652
-0.178384
-0.157275
-0.174204
-0.136845
-1.68249
9.79163
29.9018
-7.95798
-0.0530326
-0.0775334
-0.0975004
-0.10943
-0.111039
-0.103833
-0.0933216
-0.0834082
-0.0755148
-0.0696967
-0.0655995
-0.0628226
-0.0610283
-0.0599586
-0.0594214
-0.0592741
-0.123364
-0.107687
-0.114252
-0.213444
-0.0959746
-0.191229
-0.178864
-0.155151
-0.167316
-0.177169
-0.348232
12.8399
35.7486
-0.642162
-0.0627023
-0.0759145
-0.103463
-0.119427
-0.122053
-0.113432
-0.101113
-0.0900977
-0.081826
-0.0760368
-0.0721298
-0.0695726
-0.0679691
-0.0670418
-0.0665971
-0.0664989
-0.127231
-0.112484
-0.116902
-0.217976
-0.10856
-0.195463
-0.17943
-0.153612
-0.171387
-0.243139
-0.223978
-1.5367
40.178
-0.535164
-0.153587
-0.0948725
-0.117075
-0.135428
-0.138403
-0.126684
-0.111052
-0.0980734
-0.0890694
-0.0831824
-0.0794187
-0.0770579
-0.0756296
-0.0748326
-0.0744717
-0.0744169
-0.131447
-0.11776
-0.120697
-0.207939
-0.120593
-0.195905
-0.180884
-0.154837
-0.175993
-0.266318
-0.215688
-0.104876
-0.0378704
-0.245497
-0.279079
-0.134526
-0.141789
-0.161162
-0.163881
-0.145942
-0.124139
-0.107696
-0.0974013
-0.091231
-0.0875421
-0.0853413
-0.0840619
-0.0833758
-0.0830851
-0.0830651
-0.13604
-0.12349
-0.125919
-0.199947
-0.132307
-0.194366
-0.182483
-0.158883
-0.182229
-0.26335
-0.204023
-0.16338
-0.200491
-0.333513
-0.280694
-0.182679
-0.179189
-0.201201
-0.20347
-0.174791
-0.141781
-0.119366
-0.106947
-0.100251
-0.0965498
-0.0944603
-0.0932928
-0.0926886
-0.0924468
-0.0924479
-0.141036
-0.129647
-0.132386
-0.194258
-0.143075
-0.191814
-0.184418
-0.164568
-0.186502
-0.247422
-0.202082
-0.179517
-0.219732
-0.388931
-0.359325
-0.226788
-0.227075
-0.25485
-0.24767
-0.219444
-0.164331
-0.132921
-0.117639
-0.11021
-0.10642
-0.104389
-0.103288
-0.102728
-0.102505
-0.102507
-0.146465
-0.136212
-0.139731
-0.190631
-0.15292
-0.18979
-0.186531
-0.171009
-0.188725
-0.228184
-0.200559
-0.186366
-0.223133
-0.370187
-0.340258
-0.255963
-0.277498
-0.309977
-0.328146
-0.26652
-0.186582
-0.147266
-0.129021
-0.120911
-0.117026
-0.115015
-0.113935
-0.113378
-0.113144
-0.113123
-0.152355
-0.14317
-0.14762
-0.188813
-0.161995
-0.189301
-0.188894
-0.177371
-0.190056
-0.212981
-0.197575
-0.189169
-0.217049
-0.295768
-0.285463
-0.265754
-0.317247
-0.348291
-0.334519
-0.298077
-0.197816
-0.159209
-0.140459
-0.13201
-0.128139
-0.126149
-0.12506
-0.124472
-0.124195
-0.124126
-0.158737
-0.150524
-0.1558
-0.18861
-0.170457
-0.190391
-0.191639
-0.183362
-0.19152
-0.203451
-0.19415
-0.187826
-0.205087
-0.233668
-0.239047
-0.249626
-0.308957
-0.34298
-0.323453
-0.284357
-0.220727
-0.159086
-0.150852
-0.14313
-0.139555
-0.137632
-0.13651
-0.135856
-0.135505
-0.135362
-0.165646
-0.158282
-0.16412
-0.189884
-0.178456
-0.1928
-0.194842
-0.189025
-0.193588
-0.198713
-0.191639
-0.184532
-0.18971
-0.202773
-0.200195
-0.221091
-0.2758
-0.29509
-0.296018
-0.261567
-0.221491
-0.168467
-0.161326
-0.15484
-0.15152
-0.149538
-0.148288
-0.147503
-0.147033
-0.146785
-0.173119
-0.166465
-0.172527
-0.192532
-0.186152
-0.196328
-0.198595
-0.194548
-0.196442
-0.197424
-0.190718
-0.182094
-0.17709
-0.17045
-0.17107
-0.191766
-0.224292
-0.239442
-0.265665
-0.226812
-0.206793
-0.18412
-0.174522
-0.167992
-0.164224
-0.161894
-0.16039
-0.159415
-0.158798
-0.15843
-0.181196
-0.175106
-0.181065
-0.196484
-0.193717
-0.200871
-0.202998
-0.200149
-0.200178
-0.198687
-0.19188
-0.182327
-0.171426
-0.15166
-0.145323
-0.16981
-0.188764
-0.190822
-0.197274
-0.206407
-0.211412
-0.195573
-0.185981
-0.180176
-0.176501
-0.174083
-0.172466
-0.171389
-0.170684
-0.170242
-0.189922
-0.184244
-0.18983
-0.201676
-0.201331
-0.20636
-0.208137
-0.206048
-0.204867
-0.201989
-0.195235
-0.185741
-0.173721
-0.157563
-0.153325
-0.16557
-0.15319
-0.164016
-0.200167
-0.206959
-0.205607
-0.199642
-0.194323
-0.190354
-0.187498
-0.185471
-0.18405
-0.183071
-0.182415
-0.181993
-0.199345
-0.193921
-0.198954
-0.208056
-0.209174
-0.212742
-0.214087
-0.212454
-0.210584
-0.207064
-0.200702
-0.192146
-0.181949
-0.171667
-0.169128
-0.176855
-0.191601
-0.20099
-0.204408
-0.206693
-0.206218
-0.204029
-0.201508
-0.199258
-0.197439
-0.196048
-0.195025
-0.194298
-0.193801
-0.193477
-0.209517
-0.204186
-0.208572
-0.215566
-0.217422
-0.219988
-0.220914
-0.219555
-0.217388
-0.21375
-0.2081
-0.201015
-0.193453
-0.187446
-0.186574
-0.191722
-0.199828
-0.206001
-0.209289
-0.210878
-0.211034
-0.210305
-0.209215
-0.208091
-0.207095
-0.206286
-0.205669
-0.205221
-0.20491
-0.204706
-0.220501
-0.215098
-0.218804
-0.224162
-0.22624
-0.228111
-0.228688
-0.227511
-0.22534
-0.221945
-0.217212
-0.211721
-0.206507
-0.203085
-0.202944
-0.206062
-0.210572
-0.214331
-0.216759
-0.218062
-0.218517
-0.218427
-0.218051
-0.217576
-0.217113
-0.21672
-0.216412
-0.216185
-0.216026
-0.215922
-0.23236
-0.226723
-0.229753
-0.233811
-0.23578
-0.237148
-0.237469
-0.236452
-0.234483
-0.231562
-0.227809
-0.223783
-0.220333
-0.218372
-0.218443
-0.220231
-0.222732
-0.224972
-0.226585
-0.227581
-0.228082
-0.228242
-0.228201
-0.228067
-0.227911
-0.227769
-0.227655
-0.22757
-0.227511
-0.227473
-0.245171
-0.239139
-0.241514
-0.244509
-0.246172
-0.24716
-0.247316
-0.246479
-0.24485
-0.242528
-0.239727
-0.23692
-0.234703
-0.233555
-0.23362
-0.234603
-0.235972
-0.237273
-0.23829
-0.238985
-0.239404
-0.239621
-0.239712
-0.239736
-0.239731
-0.239718
-0.239705
-0.239695
-0.239689
-0.239685
-0.259013
-0.252434
-0.254174
-0.25627
-0.257526
-0.258207
-0.25828
-0.257663
-0.25646
-0.25479
-0.252862
-0.251023
-0.24965
-0.248967
-0.248981
-0.24949
-0.250219
-0.250943
-0.251543
-0.251984
-0.252281
-0.25247
-0.252588
-0.252663
-0.252714
-0.25275
-0.252775
-0.252793
-0.252806
-0.252815
-0.27398
-0.266713
-0.267825
-0.269129
-0.269936
-0.270354
-0.270411
-0.270057
-0.269336
-0.268327
-0.26718
-0.266106
-0.265326
-0.264933
-0.264911
-0.265146
-0.265501
-0.265867
-0.266182
-0.266425
-0.266603
-0.266732
-0.266825
-0.266895
-0.266946
-0.266984
-0.267012
-0.267032
-0.267046
-0.267056
-0.290173
-0.282093
-0.282576
-0.283135
-0.283478
-0.283656
-0.283745
-0.283698
-0.283501
-0.283157
-0.28272
-0.282285
-0.281952
-0.281768
-0.281728
-0.281793
-0.28191
-0.282038
-0.282152
-0.282246
-0.282319
-0.282377
-0.282422
-0.282457
-0.282484
-0.282503
-0.282518
-0.282529
-0.282537
-0.282543
-0.0147463
-0.0154762
-0.0170883
-0.0197196
-0.0235113
-0.0285897
-0.0350207
-0.0427269
-0.0514705
-0.0608814
-0.0704339
-0.0797959
-0.0908777
-0.105695
-0.0498754
1.23632
13.7044
21.2372
24.7041
21.1706
26.4247
27.6048
21.0271
13.5128
8.08162
3.96772
1.31735
1.4938
0.292698
-0.0224678
-0.0184359
-0.0191025
-0.020571
-0.0229898
-0.0265083
-0.0312652
-0.0373513
-0.0447326
-0.0532137
-0.0624607
-0.0720352
-0.0816052
-0.0929721
-0.111403
-0.0414557
0.832648
16.4095
21.0167
24.2903
19.3384
24.4416
26.3343
19.5544
11.7437
6.24959
2.08606
0.0116967
0.741979
-0.0481655
-0.0904288
-0.0225116
-0.0231043
-0.0244101
-0.0266014
-0.0298411
-0.0342738
-0.0400056
-0.0470472
-0.0552598
-0.0643374
-0.0738821
-0.0836077
-0.0950074
-0.1145
0.0140215
-0.967053
14.8121
20.7892
23.8353
17.5043
21.787
24.7495
17.9446
9.82166
4.27871
4.36345
-0.872367
0.751969
-0.0491657
-0.0924649
-0.0268409
-0.0273726
-0.0285344
-0.0305132
-0.0334862
-0.0376058
-0.0429902
-0.0496873
-0.0576217
-0.0665295
-0.0760188
-0.0858423
-0.0970389
-0.114756
-0.166347
-0.194918
12.1865
20.5341
23.2039
14.1332
18.1856
22.7226
16.1823
11.7419
10.2178
1.21165
-0.189828
-0.0620012
-0.0519693
-0.0943292
-0.0313824
-0.031877
-0.0329365
-0.0347407
-0.0374714
-0.0412931
-0.0463408
-0.0526954
-0.0603424
-0.0690763
-0.0785047
-0.0883521
-0.0991347
-0.114443
-0.157738
-0.387851
6.46504
20.1679
22.0104
7.98813
13.5106
20.0861
14.647
5.28989
2.18522
-0.176983
-0.262123
-0.0957339
-0.0560919
-0.0963139
-0.0361609
-0.0366366
-0.0376295
-0.0392995
-0.0418205
-0.0453651
-0.0500895
-0.0561081
-0.0634625
-0.0720156
-0.0813848
-0.091183
-0.101381
-0.114478
-0.146
-0.258013
-2.26726
19.5519
20.3707
3.59134
8.08685
16.8135
12.5956
2.68178
0.0244489
-0.151429
-0.260121
-0.10771
-0.0611727
-0.0985164
-0.0412646
-0.0417276
-0.0426694
-0.0442303
-0.0465703
-0.0498623
-0.0542802
-0.0599729
-0.0670338
-0.0753971
-0.0847122
-0.0944123
-0.103865
-0.11422
-0.131342
-0.0678741
-8.86422
18.4749
20.1772
2.33614
2.15354
13.2547
10.9057
-0.344137
-0.152725
-0.14501
-0.261392
-0.117892
-0.069481
-0.100945
-0.0467872
-0.0472368
-0.0481281
-0.0495875
-0.0517633
-0.0548244
-0.0589563
-0.0643395
-0.0711161
-0.0792913
-0.0885638
-0.0981585
-0.106736
-0.113854
-0.119915
-0.0917181
-6.34839
17.5439
21.9902
1.2195
-4.3501
9.64066
9.11696
-0.72602
-0.0980177
-0.142669
-0.264549
-0.125743
-0.0754446
-0.103626
-0.0528141
-0.0532485
-0.0540865
-0.055444
-0.0574617
-0.060306
-0.0641717
-0.0692672
-0.0757842
-0.0838009
-0.0930731
-0.102622
-0.110296
-0.113735
-0.111783
-0.124284
-1.87451
14.3054
25.0334
0.257613
-2.00396
5.24203
2.78446
-0.116027
-0.122063
-0.141928
-0.271224
-0.133249
-0.0814238
-0.106593
-0.0594155
-0.0598337
-0.0606174
-0.0618734
-0.0637366
-0.0663738
-0.0699904
-0.0748255
-0.0811284
-0.0890621
-0.0984522
-0.108157
-0.115124
-0.114565
-0.102628
-0.118471
-0.373833
10.2918
29.2942
-13.5947
0.0734623
-0.108122
-0.107221
-0.122099
-0.138403
-0.143264
-0.273062
-0.139467
-0.0875371
-0.109873
-0.0666549
-0.0670572
-0.0677881
-0.0689472
-0.0706636
-0.0731056
-0.0764933
-0.0811053
-0.0872687
-0.0952675
-0.105045
-0.115391
-0.122301
-0.117772
-0.0950079
-0.0761025
0.197709
-5.55461
35.1748
-3.4579
-0.0931367
-0.143442
-0.11168
-0.123244
-0.150582
-0.145755
-0.274987
-0.144399
-0.0939194
-0.1135
-0.0745849
-0.0749718
-0.0756537
-0.0767235
-0.0783066
-0.0805738
-0.0837656
-0.0882144
-0.0943613
-0.102694
-0.113402
-0.125432
-0.133833
-0.125987
-0.0938703
-0.0548944
0.031608
-0.714053
30.7432
-0.773551
-0.166639
-0.160386
-0.116753
-0.126829
-0.158931
-0.148872
-0.209361
-0.148174
-0.100615
-0.117499
-0.0832403
-0.0836104
-0.0842465
-0.0852365
-0.0867046
-0.0888286
-0.091877
-0.0962579
-0.102592
-0.111734
-0.12439
-0.14029
-0.153445
-0.14361
-0.108568
-0.105977
-0.174197
-0.55153
-0.186639
-0.256095
-0.20653
-0.174278
-0.124198
-0.130384
-0.164188
-0.157171
-0.224244
-0.149284
-0.107661
-0.121901
-0.0926226
-0.0929725
-0.0935654
-0.0944862
-0.0958613
-0.097882
-0.100856
-0.105301
-0.112128
-0.122872
-0.139188
-0.163221
-0.18708
-0.176213
-0.144661
-0.176401
-0.318291
-0.405035
-0.216317
-0.234016
-0.223684
-0.182018
-0.133503
-0.135666
-0.168039
-0.164755
-0.225729
-0.153523
-0.115028
-0.126731
-0.102669
-0.102993
-0.103543
-0.104404
-0.105707
-0.107661
-0.110627
-0.115273
-0.122947
-0.136341
-0.158605
-0.195276
-0.234735
-0.224649
-0.191436
-0.216754
-0.319458
-0.360965
-0.225192
-0.224395
-0.22229
-0.184767
-0.142691
-0.142177
-0.171135
-0.172349
-0.24468
-0.156875
-0.122717
-0.132016
-0.113255
-0.11354
-0.11404
-0.11484
-0.116077
-0.117975
-0.120949
-0.125827
-0.134459
-0.15118
-0.164429
-0.248201
-0.308982
-0.284823
-0.240499
-0.255921
-0.443142
-0.326235
-0.22624
-0.212202
-0.211472
-0.182738
-0.151019
-0.149266
-0.174052
-0.177664
-0.231815
-0.160855
-0.130721
-0.137774
-0.124207
-0.124435
-0.124867
-0.125585
-0.126726
-0.128518
-0.131395
-0.136268
-0.145216
-0.163613
-0.20929
-0.3008
-0.346536
-0.336327
-0.281466
-0.256297
-0.390555
-0.292668
-0.220844
-0.204015
-0.200132
-0.18031
-0.158506
-0.156676
-0.177116
-0.182427