/*--------------------------------*- C++ -*----------------------------------*\
| =========                 |                                                 |
| \\      /  F ield         | OpenFOAM: The Open Source CFD Toolbox           |
|  \\    /   O peration     | Version:  2.4.0                                 |
|   \\  /    A nd           | Web:      www.OpenFOAM.org                      |
|    \\/     M anipulation  |                                                 |
\*---------------------------------------------------------------------------*/
FoamFile
{
    version     2.0;
    format      ascii;
    class       volVectorField;
    location    "0.047";
    object      U;
}
// * * * * * * * * * * * * * * * * * * * * * * * * * * * * * * * * * * * * * //

dimensions      [0 1 -1 0 0 0 0];

internalField   nonuniform List<vector> 
14400
(
(-0.00037345 5.61496e-05 0)
(-0.00138065 1.28679e-05 0)
(-0.00258481 1.69045e-05 0)
(-0.00405976 2.3034e-05 0)
(-0.00577123 2.52088e-05 0)
(-0.00717935 1.02899e-05 0)
(-0.00729793 -3.03892e-05 0)
(-0.00520295 -9.58026e-05 0)
(-0.000507272 -0.000172721 0)
(0.00640684 -0.000236164 0)
(0.0145525 -0.000279992 0)
(0.0229121 -0.000294093 0)
(0.0307393 -0.000285437 0)
(0.0375791 -0.000256349 0)
(0.0431065 -0.000205317 0)
(0.0470812 -0.00013063 0)
(0.0493618 -3.4625e-05 0)
(0.0499225 8.15591e-05 0)
(0.0488406 0.000195546 0)
(0.0463117 0.000319122 0)
(0.0426325 0.000433137 0)
(0.0381461 0.000525757 0)
(0.0332054 0.000595413 0)
(0.028108 0.000641448 0)
(0.0230823 0.000669109 0)
(0.0182794 0.000683262 0)
(0.0137847 0.000688817 0)
(0.00963921 0.000689853 0)
(0.00585166 0.000688655 0)
(0.00241189 0.000687098 0)
(-0.000425255 0.000170263 0)
(-0.0023948 0.000134734 0)
(-0.00457643 0.000181527 0)
(-0.00735031 0.000253042 0)
(-0.0107323 0.000303278 0)
(-0.0140406 0.000229722 0)
(-0.0158759 -5.75352e-05 0)
(-0.01479 -0.000567774 0)
(-0.0100286 -0.00120684 0)
(-0.00198267 -0.00179186 0)
(0.00803324 -0.00221371 0)
(0.0186524 -0.0024298 0)
(0.0289243 -0.00248282 0)
(0.0383068 -0.00238068 0)
(0.0464087 -0.00210937 0)
(0.0528941 -0.00166149 0)
(0.0575078 -0.00102156 0)
(0.0600801 -0.000214815 0)
(0.0605631 0.000727832 0)
(0.0590323 0.00174531 0)
(0.0557351 0.0027675 0)
(0.0510254 0.00371371 0)
(0.0453295 0.00453276 0)
(0.0390498 0.00519729 0)
(0.0325384 0.00570981 0)
(0.0260687 0.00608729 0)
(0.0198303 0.00635111 0)
(0.0139494 0.00652471 0)
(0.00849703 0.00662759 0)
(0.00350514 0.00667643 0)
(-0.000426684 0.000288337 0)
(-0.00248326 0.000278358 0)
(-0.00476316 0.000379422 0)
(-0.00769176 0.00053585 0)
(-0.0113203 0.000661683 0)
(-0.014997 0.000560718 0)
(-0.0173274 5.1326e-05 0)
(-0.0168366 -0.000890098 0)
(-0.0127232 -0.00208745 0)
(-0.00534806 -0.00320151 0)
(0.00395711 -0.0039802 0)
(0.0138619 -0.00440294 0)
(0.0234864 -0.00454875 0)
(0.0323875 -0.00443965 0)
(0.0402347 -0.00404486 0)
(0.0467003 -0.00332997 0)
(0.0514882 -0.00226661 0)
(0.0543777 -0.00086294 0)
(0.0552771 0.000825898 0)
(0.054204 0.00270483 0)
(0.0513839 0.00462019 0)
(0.0471631 0.0064293 0)
(0.0419609 0.00801875 0)
(0.0361779 0.00933513 0)
(0.0301579 0.0103699 0)
(0.0241653 0.0111445 0)
(0.0183839 0.0116976 0)
(0.0129325 0.0120664 0)
(0.00787848 0.012288 0)
(0.00325087 0.012395 0)
(-0.000422597 0.000406005 0)
(-0.00248464 0.000423103 0)
(-0.00476369 0.000579786 0)
(-0.00769915 0.000823958 0)
(-0.0113597 0.00103086 0)
(-0.0151104 0.00091053 0)
(-0.0175521 0.000188106 0)
(-0.0171861 -0.00117922 0)
(-0.0131684 -0.00293401 0)
(-0.00583108 -0.00457337 0)
(0.00346256 -0.0057086 0)
(0.0133589 -0.00633502 0)
(0.0229842 -0.0065816 0)
(0.0319252 -0.00648467 0)
(0.0398685 -0.00599237 0)
(0.0464832 -0.00503596 0)
(0.0514564 -0.00356915 0)
(0.0545562 -0.00159245 0)
(0.0556567 0.000834767 0)
(0.0547435 0.00357491 0)
(0.0520149 0.00639538 0)
(0.0478103 0.00907337 0)
(0.0425654 0.0114349 0)
(0.0367008 0.0133968 0)
(0.0305873 0.0149411 0)
(0.0245015 0.0161001 0)
(0.0186337 0.0169277 0)
(0.0131054 0.0174808 0)
(0.00798237 0.0178142 0)
(0.00329284 0.0179748 0)
(-0.000416757 0.000522912 0)
(-0.0024784 0.000567149 0)
(-0.00474606 0.000779561 0)
(-0.00767402 0.0011124 0)
(-0.0113512 0.00140362 0)
(-0.0151625 0.00126872 0)
(-0.0177011 0.000336696 0)
(-0.0174382 -0.00145748 0)
(-0.0134756 -0.00377788 0)
(-0.00610561 -0.00595346 0)
(0.00326906 -0.00744934 0)
(0.0132435 -0.00827778 0)
(0.022942 -0.00862994 0)
(0.0319795 -0.00855483 0)
(0.0400666 -0.00798076 0)
(0.0468762 -0.00679736 0)
(0.0520939 -0.00494415 0)
(0.0554806 -0.0024089 0)
(0.0568708 0.000764624 0)
(0.0562028 0.00438167 0)
(0.0536144 0.0081467 0)
(0.0494313 0.0117403 0)
(0.0440979 0.0149249 0)
(0.0380672 0.0175676 0)
(0.0317466 0.0196444 0)
(0.0254399 0.021201 0)
(0.0193523 0.022312 0)
(0.0136125 0.0230555 0)
(0.00829148 0.0235033 0)
(0.00341939 0.0237193 0)
(-0.000409292 0.00063876 0)
(-0.00247001 0.000710098 0)
(-0.0047224 0.000978446 0)
(-0.00763931 0.00140104 0)
(-0.0113358 0.00178022 0)
(-0.0152219 0.00163671 0)
(-0.017882 0.000499353 0)
(-0.0177493 -0.00172326 0)
(-0.0138558 -0.00462012 0)
(-0.00644111 -0.00734677 0)
(0.00304429 -0.00920871 0)
(0.0131181 -0.0102393 0)
(0.0229053 -0.0106974 0)
(0.0320596 -0.0106563 0)
(0.040319 -0.0100165 0)
(0.0473733 -0.00863482 0)
(0.0529012 -0.00642468 0)
(0.0566584 -0.00334866 0)
(0.0584391 0.000554977 0)
(0.0581074 0.00508009 0)
(0.0557231 0.00984623 0)
(0.0515822 0.0144308 0)
(0.0461393 0.0185083 0)
(0.0398888 0.0218916 0)
(0.0332918 0.0245411 0)
(0.0266913 0.0265191 0)
(0.0203127 0.0279308 0)
(0.0142922 0.0288766 0)
(0.00870614 0.029448 0)
(0.00358935 0.0297241 0)
(-0.000400113 0.000753355 0)
(-0.00245982 0.00085172 0)
(-0.00469323 0.0011761 0)
(-0.00759603 0.0016897 0)
(-0.0113146 0.00216148 0)
(-0.0152914 0.00201684 0)
(-0.0181 0.00067955 0)
(-0.0181282 -0.00197304 0)
(-0.0143223 -0.00546021 0)
(-0.00685245 -0.00875675 0)
(0.00277268 -0.0109878 0)
(0.0129647 -0.0122161 0)
(0.0228531 -0.0127872 0)
(0.0321413 -0.0127945 0)
(0.0406031 -0.0121151 0)
(0.0479504 -0.0105695 0)
(0.0538543 -0.00803158 0)
(0.0580668 -0.00444639 0)
(0.0603466 0.000172935 0)
(0.0604625 0.00563655 0)
(0.0583577 0.0114721 0)
(0.0542877 0.0171439 0)
(0.0487125 0.0222129 0)
(0.0421781 0.0264167 0)
(0.0352231 0.0296878 0)
(0.0282518 0.0321165 0)
(0.0215107 0.0338479 0)
(0.015142 0.0350124 0)
(0.00922568 0.0357187 0)
(0.00380201 0.0360617 0)
(-0.000389104 0.000866409 0)
(-0.00244787 0.000991707 0)
(-0.0046586 0.00137234 0)
(-0.00754375 0.00197839 0)
(-0.0112872 0.00254816 0)
(-0.0153704 0.00241151 0)
(-0.0183548 0.000881 0)
(-0.0185762 -0.00220346 0)
(-0.0148782 -0.0062974 0)
(-0.00734254 -0.0101871 0)
(0.00245439 -0.0127951 0)
(0.0127831 -0.0142174 0)
(0.0227822 -0.0149026 0)
(0.0322186 -0.0149759 0)
(0.0409119 -0.0142872 0)
(0.0485959 -0.0126125 0)
(0.0549415 -0.00978872 0)
(0.0596888 -0.00574944 0)
(0.062598 -0.000436797 0)
(0.0632916 0.0059911 0)
(0.06157 0.0129927 0)
(0.057612 0.019875 0)
(0.0518812 0.0260698 0)
(0.0449836 0.0312017 0)
(0.0375686 0.0351527 0)
(0.0301382 0.0380563 0)
(0.0229645 0.0401289 0)
(0.0161784 0.0415348 0)
(0.00985667 0.0423969 0)
(0.00405943 0.042823 0)
(-0.000376127 0.000977711 0)
(-0.00243431 0.00112981 0)
(-0.00461861 0.00156686 0)
(-0.00748222 0.002267 0)
(-0.0112525 0.00294096 0)
(-0.015458 0.00282311 0)
(-0.0186459 0.00110741 0)
(-0.0190947 -0.00241063 0)
(-0.0155272 -0.00713071 0)
(-0.00791377 -0.011642 0)
(0.00208912 -0.0146394 0)
(0.0125742 -0.0162413 0)
(0.0226907 -0.0170457 0)
(0.0322855 -0.0172046 0)
(0.0412343 -0.0165407 0)
(0.0493002 -0.0147799 0)
(0.056147 -0.0117206 0)
(0.0615069 -0.00728416 0)
(0.065189 -0.00133386 0)
(0.0666296 0.0060881 0)
(0.065422 0.0143661 0)
(0.0616388 0.0226168 0)
(0.0557372 0.0301161 0)
(0.0483684 0.036327 0)
(0.0403528 0.0410213 0)
(0.0323619 0.0444063 0)
(0.024688 0.0468523 0)
(0.0174311 0.0485233 0)
(0.0105856 0.0495903 0)
(0.0043468 0.0501662 0)
(-0.000361028 0.00108697 0)
(-0.00241926 0.00126576 0)
(-0.00457326 0.00175944 0)
(-0.00741094 0.0025555 0)
(-0.0112097 0.00334048 0)
(-0.015553 0.00325408 0)
(-0.0189725 0.00136268 0)
(-0.0196849 -0.00259053 0)
(-0.0162739 -0.0079591 0)
(-0.0085694 -0.0131265 0)
(0.00167776 -0.0165209 0)
(0.0123391 -0.0182915 0)
(0.0225757 -0.0192157 0)
(0.0323353 -0.019483 0)
(0.0415587 -0.018883 0)
(0.0500496 -0.0170908 0)
(0.0574552 -0.0138567 0)
(0.0634883 -0.00910593 0)
(0.0681129 -0.00258798 0)
(0.0705113 0.0058378 0)
(0.0699922 0.0155367 0)
(0.0664784 0.0253519 0)
(0.0604095 0.0343936 0)
(0.0524203 0.0419126 0)
(0.0435825 0.047414 0)
(0.0349125 0.0512207 0)
(0.0266531 0.0541811 0)
(0.018881 0.0561075 0)
(0.011345 0.0574015 0)
(0.00452767 0.0583346 0)
(-0.000343616 0.00119395 0)
(-0.0024029 0.00139927 0)
(-0.00452268 0.00194981 0)
(-0.00732957 0.00284378 0)
(-0.0111575 0.00374722 0)
(-0.0156543 0.00370687 0)
(-0.0193339 0.00165079 0)
(-0.0203483 -0.00273875 0)
(-0.0171236 -0.00878112 0)
(-0.00931376 -0.0146465 0)
(0.00122202 -0.0184442 0)
(0.012079 -0.0203687 0)
(0.0224352 -0.021415 0)
(0.0323597 -0.021814 0)
(0.0418726 -0.0213231 0)
(0.050828 -0.01956 0)
(0.0588545 -0.0162313 0)
(0.0655888 -0.0112748 0)
(0.0713445 -0.00428753 0)
(0.0749731 0.00513643 0)
(0.0753799 0.016429 0)
(0.0722735 0.0280498 0)
(0.0660917 0.0389417 0)
(0.0572756 0.0481596 0)
(0.0472122 0.0545119 0)
(0.0377158 0.058483 0)
(0.0287128 0.0622469 0)
(0.0191867 0.0645931 0)
(0.012027 0.0657824 0)
(0.00412205 0.0671205 0)
(-0.0003237 0.00129836 0)
(-0.00238541 0.00153009 0)
(-0.00446699 0.00213774 0)
(-0.00723752 0.00313177 0)
(-0.0110946 0.00416166 0)
(-0.0157604 0.00418392 0)
(-0.019729 0.00197585 0)
(-0.0210865 -0.0028506 0)
(-0.0180826 -0.00959499 0)
(-0.0101522 -0.0162085 0)
(0.000723778 -0.0204184 0)
(0.0117971 -0.0224714 0)
(0.0222653 -0.0236434 0)
(0.0323506 -0.0241971 0)
(0.0421603 -0.0238667 0)
(0.0516237 -0.0222133 0)
(0.0603429 -0.0188859 0)
(0.0677363 -0.013871 0)
(0.0748469 -0.00653593 0)
(0.0800691 0.00380801 0)
(0.0817023 0.0169522 0)
(0.0792146 0.0306561 0)
(0.0730885 0.0437089 0)
(0.0632843 0.0554239 0)
(0.0511827 0.0626542 0)
(0.0407664 0.0662077 0)
(0.0315178 0.0689025 0)
(0.0205629 0.0737332 0)
(0.0138769 0.0756311 0)
(0.00534883 0.0762426 0)
(-0.000301022 0.00139995 0)
(-0.00236696 0.00165789 0)
(-0.00440628 0.00232304 0)
(-0.00713435 0.00341937 0)
(-0.0110196 0.00458406 0)
(-0.0158698 0.0046877 0)
(-0.0201563 0.00234211 0)
(-0.0219009 -0.00292165 0)
(-0.0191583 -0.0103985 0)
(-0.011091 -0.0178201 0)
(0.000186417 -0.0224502 0)
(0.0114963 -0.0246013 0)
(0.0220639 -0.0258952 0)
(0.0322993 -0.0266306 0)
(0.042405 -0.0265163 0)
(0.0524223 -0.025072 0)
(0.0619463 -0.021891 0)
(0.0698248 -0.0170416 0)
(0.0785601 -0.00945401 0)
(0.0859066 0.00161178 0)
(0.0891657 0.0169731 0)
(0.087638 0.0331584 0)
(0.0817441 0.0482435 0)
(0.0711738 0.0639219 0)
(0.0559891 0.0720514 0)
(0.0454505 0.0741805 0)
(0.0384192 0.0769365 0)
(0.0305238 0.0823153 0)
(0.0187684 0.0855868 0)
(0.0071237 0.085989 0)
(-0.000275348 0.00149839 0)
(-0.00234781 0.00178246 0)
(-0.00434089 0.0025055 0)
(-0.00701936 0.00370648 0)
(-0.0109306 0.00501463 0)
(-0.0159807 0.00522058 0)
(-0.0206141 0.00275389 0)
(-0.0227932 -0.00294496 0)
(-0.0203594 -0.0111888 0)
(-0.0121375 -0.0194902 0)
(-0.000384932 -0.0245492 0)
(0.011181 -0.0267576 0)
(0.0218274 -0.0281715 0)
(0.0321976 -0.0291138 0)
(0.042587 -0.0292728 0)
(0.0532123 -0.0281643 0)
(0.0637418 -0.0253361 0)
(0.0717087 -0.020986 0)
(0.0824549 -0.013189 0)
(0.0929766 -0.00186498 0)
(0.0984603 0.0162008 0)
(0.0990853 0.0359954 0)
(0.0927849 0.0519784 0)
(0.0788965 0.0746211 0)
(0.0598539 0.0816362 0)
(0.0501559 0.0795053 0)
(0.0422613 0.080357 0)
(0.0338419 0.0946412 0)
(0.0200094 0.100648 0)
(0.00858469 0.101137 0)
(-0.000246346 0.00159341 0)
(-0.00232815 0.00190344 0)
(-0.00427094 0.00268504 0)
(-0.00689189 0.00399309 0)
(-0.0108259 0.0054533 0)
(-0.0160911 0.00578495 0)
(-0.0211006 0.00321565 0)
(-0.0237647 -0.00291654 0)
(-0.021696 -0.0119622 0)
(-0.0133012 -0.0212294 0)
(-0.000984497 -0.0267269 0)
(0.0108584 -0.0289361 0)
(0.0215518 -0.0304672 0)
(0.0320369 -0.0316416 0)
(0.0426858 -0.0321322 0)
(0.0539744 -0.031516 0)
(0.065873 -0.0293045 0)
(0.0732657 -0.0259026 0)
(0.0870239 -0.0180033 0)
(0.1031 -0.00747625 0)
(0.11043 0.0129589 0)
(0.107673 0.0407749 0)
(0.112335 0.0505839 0)
(0.0842086 0.0936706 0)
(0.0753837 0.0910247 0)
(0.0567529 0.0857927 0)
(0.0365286 0.094646 0)
(0.0208639 0.102874 0)
(0.0134434 0.108984 0)
(0.00579351 0.110735 0)
(-0.000213725 0.00168466 0)
(-0.00230837 0.00202059 0)
(-0.00419689 0.00286158 0)
(-0.00675116 0.00427918 0)
(-0.0107034 0.0058998 0)
(-0.0161991 0.00638306 0)
(-0.0216131 0.00373174 0)
(-0.0248164 -0.00283034 0)
(-0.0231801 -0.0127144 0)
(-0.014593 -0.0230503 0)
(-0.00160341 -0.0289965 0)
(0.0105359 -0.0311309 0)
(0.0212331 -0.0327766 0)
(0.0318104 -0.034209 0)
(0.0426783 -0.035086 0)
(0.0546595 -0.0351313 0)
(0.0686007 -0.0338434 0)
(0.0749616 -0.0319584 0)
(0.0962856 -0.0249131 0)
(0.11704 -0.0149097 0)
(0.127357 0.00801598 0)
(0.130981 0.0405082 0)
(0.113124 0.0663852 0)
(0.119341 0.0839998 0)
(0.102642 0.0949817 0)
(0.0766161 0.103098 0)
(0.0519308 0.106801 0)
(0.0306761 0.110225 0)
(0.0177711 0.113599 0)
(0.00682068 0.115167 0)
(-0.000177073 0.00177184 0)
(-0.00228866 0.00213357 0)
(-0.00411915 0.00303519 0)
(-0.00659637 0.00456485 0)
(-0.0105608 0.00635352 0)
(-0.0163023 0.00701714 0)
(-0.0221484 0.00430655 0)
(-0.0259493 -0.00268047 0)
(-0.0248255 -0.0134395 0)
(-0.0160268 -0.0249679 0)
(-0.00223033 -0.0313749 0)
(0.0102239 -0.0333329 0)
(0.0208677 -0.0350953 0)
(0.0315115 -0.0368073 0)
(0.0425395 -0.0381103 0)
(0.0551384 -0.0389542 0)
(0.0726833 -0.0388797 0)
(0.0842804 -0.0413783 0)
(0.117834 -0.0319788 0)
(0.118107 -0.0201286 0)
(0.107403 0.00890038 0)
(0.158597 0.0208298 0)
(0.167086 0.0638195 0)
(0.163255 0.0839742 0)
(0.129727 0.102007 0)
(0.105246 0.127194 0)
(0.0859447 0.137774 0)
(0.0699805 0.13758 0)
(0.0545838 0.139878 0)
(0.0281379 0.143387 0)
(-0.000136011 0.00185457 0)
(-0.00226951 0.00224207 0)
(-0.00403827 0.00320605 0)
(-0.00642657 0.00485032 0)
(-0.0103954 0.00681352 0)
(-0.0163984 0.0076894 0)
(-0.0227029 0.00494418 0)
(-0.0271633 -0.00245993 0)
(-0.0266488 -0.0141302 0)
(-0.0176197 -0.0270004 0)
(-0.00284985 -0.0338827 0)
(0.00993465 -0.0355272 0)
(0.0204482 -0.0374162 0)
(0.0311418 -0.0394313 0)
(0.0422461 -0.0411842 0)
(0.0550946 -0.0428901 0)
(0.0757535 -0.0406373 0)
(0.128637 -0.0737927 0)
(0.127877 -0.0149662 0)
(0.0540638 0.00170208 0)
(0.136193 -0.0273679 0)
(0.384047 0.0645389 0)
(0.394816 0.0349846 0)
(0.400547 0.106415 0)
(0.390638 0.102609 0)
(0.323131 0.173708 0)
(0.257888 0.186834 0)
(0.184758 0.194887 0)
(0.10947 0.222009 0)
(0.041485 0.237199 0)
(-9.00567e-05 0.0019325 0)
(-0.00225116 0.00234577 0)
(-0.00395498 0.00337454 0)
(-0.00624067 0.00513594 0)
(-0.0102045 0.00727836 0)
(-0.0164851 0.00840181 0)
(-0.0232718 0.00564836 0)
(-0.0284576 -0.0021677 0)
(-0.0286689 -0.0147772 0)
(-0.0193929 -0.0291695 0)
(-0.00344247 -0.0365403 0)
(0.00968555 -0.0376948 0)
(0.0199676 -0.0397329 0)
(0.0306986 -0.0420835 0)
(0.0418019 -0.0442812 0)
(0.054077 -0.0474896 0)
(0.0494989 -0.0460184 0)
(0.155892 -0.0907174 0)
(0.0890309 0.0281705 0)
(0.132595 -0.0571372 0)
(0.506103 -0.174368 0)
(0.46447 0.0206945 0)
(0.407471 0.0553679 0)
(0.35317 0.104684 0)
(0.288049 0.173187 0)
(0.22775 0.226534 0)
(0.172838 0.248243 0)
(0.116587 0.265991 0)
(0.0664096 0.285596 0)
(0.0245426 0.29745 0)
(-3.87044e-05 0.00200521 0)
(-0.00223417 0.0024443 0)
(-0.00387015 0.00354128 0)
(-0.00603749 0.00542232 0)
(-0.00998474 0.00774597 0)
(-0.0165598 0.0091562 0)
(-0.0238493 0.00642257 0)
(-0.0298298 -0.00179907 0)
(-0.030909 -0.0153688 0)
(-0.0213731 -0.0315013 0)
(-0.00398211 -0.0393864 0)
(0.00949776 -0.0398084 0)
(0.0194104 -0.0420414 0)
(0.0301957 -0.0447623 0)
(0.0412317 -0.0473493 0)
(0.0552586 -0.0531458 0)
(0.0778237 -0.0723309 0)
(0.0539797 -0.0172821 0)
(0.0760161 -0.0790109 0)
(0.568578 -0.275929 0)
(0.442072 -0.192817 0)
(0.373102 0.0576703 0)
(0.294225 0.119126 0)
(0.206943 0.155697 0)
(0.157589 0.211393 0)
(0.139767 0.256573 0)
(0.101953 0.289989 0)
(0.0729493 0.310294 0)
(0.0440559 0.328681 0)
(0.0156646 0.34088 0)
(1.86078e-05 0.00207232 0)
(-0.00221902 0.00253732 0)
(-0.00378493 0.00370708 0)
(-0.00581565 0.00571025 0)
(-0.00973246 0.00821357 0)
(-0.0166202 0.00995413 0)
(-0.0244285 0.00727126 0)
(-0.0312753 -0.00135419 0)
(-0.0333964 -0.0158891 0)
(-0.0235944 -0.0340273 0)
(-0.00443298 -0.042459 0)
(0.00939593 -0.0418324 0)
(0.0187596 -0.044332 0)
(0.0296442 -0.0474745 0)
(0.0403711 -0.0502546 0)
(0.0516236 -0.0537262 0)
(0.122681 -0.0832091 0)
(-0.127443 0.00351713 0)
(0.524074 -0.320162 0)
(0.533762 -0.244275 0)
(0.334046 -0.101344 0)
(0.182075 0.0868807 0)
(0.131534 0.16691 0)
(0.0706512 0.197389 0)
(0.0511164 0.222498 0)
(0.0313011 0.283924 0)
(0.0213786 0.299999 0)
(0.0260195 0.325262 0)
(0.0175322 0.351585 0)
(0.00508195 0.367356 0)
(8.2536e-05 0.00213336 0)
(-0.00220624 0.00262439 0)
(-0.00370065 0.0038732 0)
(-0.00557354 0.00600083 0)
(-0.00944354 0.00867733 0)
(-0.0166641 0.0107968 0)
(-0.025001 0.00820048 0)
(-0.0327862 -0.000828413 0)
(-0.0361635 -0.0163213 0)
(-0.0260999 -0.0367851 0)
(-0.00474878 -0.0458036 0)
(0.00941152 -0.0437088 0)
(0.017985 -0.046608 0)
(0.0290498 -0.0502701 0)
(0.0393858 -0.0532348 0)
(0.0375305 -0.0617016 0)
(0.048703 -0.0254874 0)
(0.258229 -0.178573 0)
(0.705935 -0.37864 0)
(0.410198 -0.168912 0)
(0.19083 0.0373807 0)
(0.031827 0.131581 0)
(0.00771781 0.189612 0)
(-0.00214432 0.211929 0)
(-0.00190059 0.231036 0)
(-0.0149662 0.290432 0)
(-0.0097324 0.29291 0)
(-0.00940666 0.32525 0)
(-0.00792341 0.356542 0)
(-0.00582375 0.373896 0)
(0.000153764 0.00218789 0)
(-0.00219651 0.00270514 0)
(-0.00361899 0.00404106 0)
(-0.00530939 0.00629532 0)
(-0.00911326 0.00913215 0)
(-0.0166895 0.0116846 0)
(-0.0255574 0.00921974 0)
(-0.0343513 -0.000214942 0)
(-0.0392472 -0.016634 0)
(-0.0289446 -0.0398195 0)
(-0.00486987 -0.0494799 0)
(0.00958448 -0.045356 0)
(0.0170482 -0.0488755 0)
(0.0284182 -0.05318 0)
(0.039395 -0.0551089 0)
(0.079419 -0.0660715 0)
(-0.0223458 0.000613382 0)
(0.487568 -0.135621 0)
(0.481834 -0.330551 0)
(0.171602 -0.0647903 0)
(-0.0478049 0.113514 0)
(-0.0898421 0.151348 0)
(-0.0767082 0.18251 0)
(-0.0416502 0.199407 0)
(-0.0546169 0.247078 0)
(-0.0576578 0.2828 0)
(-0.0467058 0.294696 0)
(-0.041395 0.321425 0)
(-0.0305016 0.347938 0)
(-0.0155311 0.361758 0)
(0.000233098 0.0022354 0)
(-0.0021905 0.00277905 0)
(-0.00354184 0.00421253 0)
(-0.00502091 0.00659512 0)
(-0.00873609 0.00957123 0)
(-0.0166956 0.0126177 0)
(-0.0260871 0.010345 0)
(-0.0359542 0.000503771 0)
(-0.04269 -0.0167946 0)
(-0.0321992 -0.0431838 0)
(-0.00471962 -0.0535443 0)
(0.00996474 -0.0466459 0)
(0.015887 -0.0511262 0)
(0.0277752 -0.0563577 0)
(0.0369589 -0.0549858 0)
(0.0643182 -0.0732624 0)
(0.298187 -0.258841 0)
(0.930034 -0.119644 0)
(0.299715 -0.163626 0)
(-0.134585 0.0538542 0)
(-0.184402 0.131618 0)
(-0.170734 0.146334 0)
(-0.152283 0.166616 0)
(-0.14172 0.197124 0)
(-0.129616 0.24425 0)
(-0.106016 0.269632 0)
(-0.0859323 0.28459 0)
(-0.0669663 0.306529 0)
(-0.0434515 0.325868 0)
(-0.018719 0.334984 0)
(0.000321388 0.00227539 0)
(-0.00218912 0.00284566 0)
(-0.00347155 0.00438959 0)
(-0.00470572 0.0069014 0)
(-0.00830579 0.00998563 0)
(-0.0166827 0.0135943 0)
(-0.0265787 0.011603 0)
(-0.0375713 0.00133927 0)
(-0.0465396 -0.0167604 0)
(-0.0359542 -0.0469407 0)
(-0.00420276 -0.0581172 0)
(0.0106199 -0.0473941 0)
(0.0144591 -0.0533529 0)
(0.0272908 -0.0600098 0)
(0.0284902 -0.0644708 0)
(0.0498555 -0.0663618 0)
(0.82353 -0.0303692 0)
(1.23385 -0.0579291 0)
(-0.14472 -0.0274037 0)
(-0.260192 0.0801031 0)
(-0.241268 0.118803 0)
(-0.217705 0.136252 0)
(-0.201732 0.157941 0)
(-0.1888 0.189023 0)
(-0.165206 0.224583 0)
(-0.135312 0.247475 0)
(-0.108394 0.263302 0)
(-0.0794798 0.27873 0)
(-0.0467128 0.291965 0)
(-0.0188991 0.30462 0)
(0.00041957 0.00230735 0)
(-0.00219326 0.00290437 0)
(-0.00341069 0.00457437 0)
(-0.00436067 0.00721489 0)
(-0.00781492 0.0103639 0)
(-0.0166537 0.0146112 0)
(-0.027021 0.0130362 0)
(-0.0391691 0.00231647 0)
(-0.0508478 -0.0164691 0)
(-0.0403257 -0.0511618 0)
(-0.00318622 -0.063364 0)
(0.0116263 -0.0473463 0)
(0.0127713 -0.055541 0)
(0.0278772 -0.0640301 0)
(0.0361086 -0.0809847 0)
(0.0816936 -0.0758144 0)
(0.79505 0.139931 0)
(-0.451048 -0.113286 0)
(-0.274876 0.0491485 0)
(-0.282625 0.0801704 0)
(-0.258325 0.10394 0)
(-0.236855 0.12547 0)
(-0.219053 0.148407 0)
(-0.199985 0.175253 0)
(-0.172969 0.202285 0)
(-0.141782 0.222212 0)
(-0.110484 0.235569 0)
(-0.0793206 0.245413 0)
(-0.0506441 0.259886 0)
(-0.0222942 0.268863 0)
(0.000526005 0.00233085 0)
(-0.00220406 0.00295457 0)
(-0.00336221 0.00476883 0)
(-0.0039824 0.00753555 0)
(-0.00725469 0.0106918 0)
(-0.016615 0.0156612 0)
(-0.0274046 0.0147072 0)
(-0.0406996 0.00346622 0)
(-0.0556718 -0.0158435 0)
(-0.0454634 -0.0559282 0)
(-0.00150262 -0.0694944 0)
(0.0130627 -0.0461379 0)
(0.0103196 -0.057655 0)
(0.0283936 -0.0678612 0)
(0.0862357 -0.0920137 0)
(0.130471 -0.155822 0)
(-0.129216 -0.0790147 0)
(-0.385056 -0.0512333 0)
(-0.290811 0.0336559 0)
(-0.280036 0.0731187 0)
(-0.259802 0.0920057 0)
(-0.238994 0.114068 0)
(-0.218322 0.136121 0)
(-0.195182 0.158666 0)
(-0.167323 0.179673 0)
(-0.136666 0.19583 0)
(-0.106092 0.206877 0)
(-0.0784127 0.216287 0)
(-0.0504707 0.227444 0)
(-0.0217533 0.233388 0)
(0.00054076 0.00234298 0)
(-0.00222281 0.00299539 0)
(-0.00332928 0.00497448 0)
(-0.0035668 0.00786232 0)
(-0.00661474 0.0109531 0)
(-0.0165768 0.0167301 0)
(-0.0277252 0.0166953 0)
(-0.0420952 0.00483151 0)
(-0.0610699 -0.0147849 0)
(-0.0515619 -0.0613209 0)
(0.000800968 -0.0768031 0)
(0.0150016 -0.0432985 0)
(0.00663238 -0.059873 0)
(0.0255698 -0.0699083 0)
(0.0757349 -0.124213 0)
(-0.139799 -0.0971377 0)
(-0.197947 -0.105669 0)
(-0.31557 -0.0375208 0)
(-0.28341 0.0243287 0)
(-0.270985 0.0634979 0)
(-0.254215 0.0817361 0)
(-0.233079 0.102267 0)
(-0.210567 0.122043 0)
(-0.185622 0.140913 0)
(-0.15797 0.15768 0)
(-0.129021 0.17082 0)
(-0.100745 0.180659 0)
(-0.0737795 0.188636 0)
(-0.0470193 0.195413 0)
(-0.0204132 0.199049 0)
(-0.00194707 0.00248393 0)
(-0.00225386 0.00302686 0)
(-0.0033178 0.00519291 0)
(-0.00311089 0.00819247 0)
(-0.00588287 0.0111308 0)
(-0.0165528 0.0177878 0)
(-0.0279897 0.0190747 0)
(-0.0432624 0.00647622 0)
(-0.0671015 -0.0131736 0)
(-0.0590228 -0.06733 0)
(-0.000520924 -0.0858367 0)
(0.0175689 -0.0381663 0)
(0.00275631 -0.062073 0)
(0.0231195 -0.0715113 0)
(0.0303616 -0.12211 0)
(-0.156039 -0.0821217 0)
(-0.198849 -0.0631952 0)
(-0.278902 -0.0257726 0)
(-0.270834 0.0204137 0)
(-0.260878 0.0542537 0)
(-0.24563 0.0720363 0)
(-0.22448 0.0901702 0)
(-0.201087 0.107176 0)
(-0.175567 0.122908 0)
(-0.148481 0.136559 0)
(-0.120942 0.147401 0)
(-0.0940424 0.155623 0)
(-0.068102 0.161783 0)
(-0.0429888 0.166029 0)
(-0.0189559 0.168089 0)
(-0.0395807 0.00391889 0)
(-0.00234102 0.00308324 0)
(-0.00337791 0.00543225 0)
(-0.00265161 0.0085374 0)
(-0.00506344 0.0112221 0)
(-0.0165657 0.0187804 0)
(-0.0282305 0.0218763 0)
(-0.0440802 0.00848872 0)
(-0.0738222 -0.0108584 0)
(-0.0707627 -0.0727333 0)
(-0.0379982 -0.0985894 0)
(0.0211377 -0.0293987 0)
(-0.00380608 -0.0652085 0)
(0.0214346 -0.0765206 0)
(0.0489192 -0.122377 0)
(-0.0973933 -0.0389466 0)
(-0.205 -0.0396862 0)
(-0.256444 -0.0138436 0)
(-0.258878 0.0199907 0)
(-0.251634 0.0465009 0)
(-0.23667 0.062496 0)
(-0.215579 0.0777876 0)
(-0.191745 0.0919987 0)
(-0.166129 0.105012 0)
(-0.139645 0.116188 0)
(-0.113204 0.125075 0)
(-0.0875141 0.131707 0)
(-0.0628967 0.136319 0)
(-0.0395161 0.13909 0)
(-0.0176429 0.140269 0)
(-0.00077639 0.000686555 0)
(-0.00404828 0.000688018 0)
(-0.00766059 0.000689589 0)
(-0.0116271 0.000689933 0)
(-0.0159503 0.000687122 0)
(-0.0206069 0.00067791 0)
(-0.0255365 0.000657702 0)
(-0.0306214 0.000621313 0)
(-0.0356752 0.000564123 0)
(-0.0404305 0.000482683 0)
(-0.0445584 0.000378533 0)
(-0.0477044 0.000257946 0)
(-0.0495427 0.00013664 0)
(-0.0498198 2.15202e-05 0)
(-0.0484089 -8.4202e-05 0)
(-0.0452774 -0.000170073 0)
(-0.0405101 -0.000233447 0)
(-0.0342994 -0.000273451 0)
(-0.0269248 -0.000291961 0)
(-0.0187625 -0.000290134 0)
(-0.010398 -0.000261179 0)
(-0.00273849 -0.000202941 0)
(0.00314949 -0.000134133 0)
(0.00654021 -6.1113e-05 0)
(0.00746295 -7.92793e-06 0)
(0.00659214 2.06665e-05 0)
(0.00493085 2.57605e-05 0)
(0.0032878 2.05088e-05 0)
(0.00193018 1.51433e-05 0)
(0.000783706 1.34744e-05 0)
(-0.00113558 0.00668564 0)
(-0.00589312 0.00665784 0)
(-0.0111175 0.00658345 0)
(-0.0167894 0.00644699 0)
(-0.0228598 0.00623088 0)
(-0.029231 0.00591357 0)
(-0.0357475 0.00547113 0)
(-0.0421778 0.00488336 0)
(-0.0482137 0.00414089 0)
(-0.0534645 0.00325495 0)
(-0.0575151 0.00226156 0)
(-0.0599654 0.00122796 0)
(-0.0605042 0.000235028 0)
(-0.0589808 -0.0006367 0)
(-0.0553818 -0.00135682 0)
(-0.049814 -0.00190201 0)
(-0.0424921 -0.00226673 0)
(-0.0337221 -0.00245125 0)
(-0.0238526 -0.0024753 0)
(-0.0133246 -0.00234376 0)
(-0.00285987 -0.00201898 0)
(0.00634562 -0.00151613 0)
(0.0128443 -0.000876438 0)
(0.0157161 -0.000286869 0)
(0.0152028 0.000112153 0)
(0.0124618 0.000288605 0)
(0.00899016 0.000286726 0)
(0.00587207 0.000217646 0)
(0.00339431 0.00015638 0)
(0.00136051 0.000132347 0)
(-0.00105187 0.0124136 0)
(-0.00546284 0.0123534 0)
(-0.010305 0.0121921 0)
(-0.015563 0.0119005 0)
(-0.0211893 0.0114436 0)
(-0.0270928 0.010785 0)
(-0.0331236 0.00988384 0)
(-0.0390594 0.00871128 0)
(-0.0445998 0.00725533 0)
(-0.0493571 0.00554631 0)
(-0.0529236 0.00366878 0)
(-0.0549027 0.00174846 0)
(-0.0550061 -5.12696e-05 0)
(-0.0531074 -0.00160266 0)
(-0.0492492 -0.00283147 0)
(-0.0435952 -0.00372211 0)
(-0.0364148 -0.00427808 0)
(-0.028017 -0.0045249 0)
(-0.0187229 -0.0045076 0)
(-0.00889037 -0.00423249 0)
(0.000857484 -0.00362933 0)
(0.00937465 -0.00267165 0)
(0.0152119 -0.0014657 0)
(0.0174546 -0.000367586 0)
(0.0163915 0.000357352 0)
(0.0132179 0.000652444 0)
(0.00944161 0.000613076 0)
(0.00612768 0.000456643 0)
(0.00352599 0.000324189 0)
(0.00140952 0.00027083 0)
(-0.00106664 0.0180027 0)
(-0.00553572 0.0179126 0)
(-0.0104439 0.0176699 0)
(-0.015774 0.0172314 0)
(-0.0214824 0.0165473 0)
(-0.0274747 0.0155608 0)
(-0.0336011 0.0142151 0)
(-0.0396265 0.0124668 0)
(-0.04523 0.0102995 0)
(-0.0500056 0.0077644 0)
(-0.0535188 0.00498947 0)
(-0.0553711 0.0021825 0)
(-0.0552866 -0.000424839 0)
(-0.0531802 -0.0026439 0)
(-0.0491199 -0.00436209 0)
(-0.0432949 -0.00556873 0)
(-0.0359934 -0.00628801 0)
(-0.0275289 -0.00657362 0)
(-0.0182177 -0.00650103 0)
(-0.00839328 -0.00607922 0)
(0.00134796 -0.00520877 0)
(0.00984685 -0.00379362 0)
(0.0156158 -0.00202062 0)
(0.0177409 -0.000417025 0)
(0.0165567 0.000625553 0)
(0.0132895 0.00103103 0)
(0.009461 0.000947014 0)
(0.00613017 0.000699129 0)
(0.00352503 0.000493759 0)
(0.0014087 0.000410809 0)
(-0.00111016 0.0237582 0)
(-0.00575351 0.0236354 0)
(-0.010852 0.0233083 0)
(-0.0163872 0.0227201 0)
(-0.0223108 0.0218005 0)
(-0.0285245 0.0204766 0)
(-0.034867 0.0186683 0)
(-0.0410822 0.0163134 0)
(-0.0468177 0.0133922 0)
(-0.0516295 0.00998118 0)
(-0.0550629 0.00626719 0)
(-0.056718 0.00252856 0)
(-0.0563572 -0.000895667 0)
(-0.0539548 -0.00376734 0)
(-0.0496291 -0.00595893 0)
(-0.0435836 -0.00746444 0)
(-0.0361133 -0.00832635 0)
(-0.0275316 -0.00864183 0)
(-0.0181382 -0.00850496 0)
(-0.00824184 -0.00793952 0)
(0.00158429 -0.00679751 0)
(0.0101495 -0.00491869 0)
(0.0159048 -0.0025675 0)
(0.0179414 -0.000454159 0)
(0.0166538 0.000903917 0)
(0.0133065 0.00141568 0)
(0.00944016 0.0012825 0)
(0.00610792 0.000941414 0)
(0.00351095 0.000662854 0)
(0.00140297 0.000551018 0)
(-0.00116862 0.0297729 0)
(-0.00604577 0.0296162 0)
(-0.011399 0.0291991 0)
(-0.0172077 0.0284488 0)
(-0.0234171 0.02728 0)
(-0.0299233 0.0255978 0)
(-0.0365536 0.023297 0)
(-0.0430227 0.0202869 0)
(-0.0489286 0.0165463 0)
(-0.053779 0.0121842 0)
(-0.0570873 0.00745879 0)
(-0.0584662 0.00275834 0)
(-0.0577314 -0.00149627 0)
(-0.0549381 -0.00500161 0)
(-0.0502719 -0.0076413 0)
(-0.0439511 -0.00942354 0)
(-0.0362721 -0.0104077 0)
(-0.0275492 -0.0107345 0)
(-0.018058 -0.010527 0)
(-0.00807029 -0.00981532 0)
(0.00186725 -0.00840421 0)
(0.0105227 -0.00605004 0)
(0.0162626 -0.00310552 0)
(0.0181871 -0.000476789 0)
(0.0167693 0.00119421 0)
(0.0133224 0.00180737 0)
(0.00941006 0.00161942 0)
(0.00607784 0.00118298 0)
(0.00349204 0.000831093 0)
(0.00139538 0.00069146 0)
(-0.0012418 0.0361224 0)
(-0.0064117 0.0359269 0)
(-0.0120843 0.0354103 0)
(-0.0182331 0.0344841 0)
(-0.0247972 0.0330477 0)
(-0.0316689 0.0309844 0)
(-0.0386669 0.0281538 0)
(-0.0454656 0.0244252 0)
(-0.0515888 0.0197718 0)
(-0.0564739 0.014357 0)
(-0.059607 0.00853644 0)
(-0.0606131 0.00281545 0)
(-0.0593879 -0.00227194 0)
(-0.0561072 -0.00637671 0)
(-0.0510235 -0.00942956 0)
(-0.0443708 -0.0114517 0)
(-0.0364464 -0.0125386 0)
(-0.027559 -0.012856 0)
(-0.0179563 -0.0125689 0)
(-0.00786274 -0.0117127 0)
(0.00221139 -0.0100335 0)
(0.010981 -0.00718924 0)
(0.0167002 -0.00363212 0)
(0.0184846 -0.000481033 0)
(0.0169074 0.00149934 0)
(0.0133392 0.00220772 0)
(0.00937163 0.00195806 0)
(0.00604054 0.00142367 0)
(0.00346882 0.000998292 0)
(0.00138606 0.000832174 0)
(-0.00133126 0.042898 0)
(-0.00685547 0.0426551 0)
(-0.0129196 0.0420174 0)
(-0.0194826 0.0408942 0)
(-0.0264672 0.0391648 0)
(-0.0337813 0.0367022 0)
(-0.0412436 0.0333049 0)
(-0.0484693 0.0287745 0)
(-0.0548625 0.0230851 0)
(-0.0597733 0.0164875 0)
(-0.0626588 0.0094593 0)
(-0.0631709 0.00265536 0)
(-0.0613201 -0.00326442 0)
(-0.0574457 -0.00791839 0)
(-0.051873 -0.011343 0)
(-0.0448332 -0.013571 0)
(-0.0366284 -0.0147236 0)
(-0.0275569 -0.0150093 0)
(-0.0178322 -0.014632 0)
(-0.00761863 -0.0136347 0)
(0.00261811 -0.0116869 0)
(0.0115277 -0.00833791 0)
(0.0172201 -0.00414438 0)
(0.0188344 -0.000463044 0)
(0.0170674 0.00182225 0)
(0.013356 0.00261844 0)
(0.00932449 0.00229851 0)
(0.00599603 0.00166322 0)
(0.00344109 0.00116417 0)
(0.00137507 0.000973227 0)
(-0.00143101 0.0502515 0)
(-0.00735395 0.0499413 0)
(-0.0139178 0.0491008 0)
(-0.0209814 0.0477705 0)
(-0.0284407 0.0456949 0)
(-0.0362736 0.0428263 0)
(-0.0443253 0.0388389 0)
(-0.052114 0.0334002 0)
(-0.058843 0.0264995 0)
(-0.0637522 0.0185446 0)
(-0.0662929 0.0101704 0)
(-0.0661541 0.00221293 0)