/*--------------------------------*- C++ -*----------------------------------*\
| =========                 |                                                 |
| \\      /  F ield         | OpenFOAM: The Open Source CFD Toolbox           |
|  \\    /   O peration     | Version:  2.4.0                                 |
|   \\  /    A nd           | Web:      www.OpenFOAM.org                      |
|    \\/     M anipulation  |                                                 |
\*---------------------------------------------------------------------------*/
FoamFile
{
    version     2.0;
    format      ascii;
    class       surfaceScalarField;
    location    "0.189";
    object      phi;
}
// * * * * * * * * * * * * * * * * * * * * * * * * * * * * * * * * * * * * * //

dimensions      [0 3 -1 0 0 0 0];

internalField   nonuniform List<scalar> 
12835
(
-2.30445e-07
2.30445e-07
-4.23782e-07
1.93337e-07
-3.97089e-07
-2.6693e-08
-1.47257e-07
-2.49832e-07
-1.02361e-07
-4.48956e-08
-6.66671e-08
-3.56944e-08
3.11176e-07
-3.77843e-07
3.289e-07
-1.77235e-08
-6.20026e-08
3.90903e-07
3.56401e-07
-4.18404e-07
1.8858e-06
-1.5294e-06
2.31958e-06
-4.33773e-07
7.41998e-07
1.57758e-06
1.12385e-07
6.29612e-07
4.72273e-07
-3.59888e-07
6.99786e-07
-2.27513e-07
7.83462e-07
-8.36766e-08
-2.77899e-07
1.06136e-06
-2.95182e-07
1.72829e-08
5.623e-07
-8.57482e-07
1.29422e-06
-7.31923e-07
1.6783e-06
-3.84075e-07
1.14494e-06
5.33353e-07
3.81398e-07
7.63546e-07
-8.58397e-07
1.23979e-06
-2.32614e-06
1.46774e-06
-2.37981e-06
5.36724e-08
-1.04177e-06
-1.33805e-06
-3.53416e-07
-6.88352e-07
2.04538e-07
-5.57955e-07
7.7992e-07
-5.75382e-07
3.95712e-07
3.84209e-07
-1.64489e-07
5.60201e-07
1.57502e-07
-3.2199e-07
7.35453e-07
-5.77952e-07
1.20536e-06
-4.69908e-07
8.51219e-07
3.54142e-07
4.2868e-07
4.22538e-07
1.21729e-07
3.06951e-07
-3.46313e-09
1.25192e-07
-7.35304e-08
7.00675e-08
-1.4238e-07
6.88493e-08
-2.17606e-07
7.52266e-08
-2.3072e-07
1.31139e-08
-2.09419e-07
-2.13017e-08
-1.73228e-07
-3.6191e-08
-1.26861e-07
-4.63671e-08
-7.91332e-08
-4.77281e-08
-3.9781e-08
-3.93527e-08
-8.37398e-09
-3.14072e-08
-2.86214e-07
5.16659e-07
-4.33797e-07
3.4092e-07
-3.74216e-07
-8.62731e-08
-1.68141e-07
-4.55908e-07
-1.398e-07
-7.32363e-08
-1.262e-07
-4.92944e-08
2.38098e-08
-5.27853e-07
3.11048e-08
-2.50185e-08
-5.37491e-07
9.59499e-07
-1.33432e-06
3.78429e-07
2.00458e-07
-3.06419e-06
1.52182e-06
-1.75514e-06
1.05142e-06
2.04799e-06
3.30456e-07
1.35057e-06
3.25406e-07
-3.54839e-07
7.11481e-07
-6.13588e-07
1.14206e-06
-5.14256e-07
5.71752e-07
1.63167e-06
4.50767e-07
1.38268e-07
9.15616e-07
-1.32233e-06
1.39651e-06
-1.21282e-06
1.56234e-06
-5.49907e-07
1.38303e-06
7.12667e-07
6.09036e-07
1.53754e-06
-9.11489e-07
2.76032e-06
-1.46687e-06
2.02313e-06
-6.16503e-07
-7.96696e-07
1.88462e-07
-2.14301e-06
1.18057e-07
-6.17946e-07
8.68733e-08
-5.26771e-07
7.17679e-07
-1.20619e-06
7.10126e-07
3.91762e-07
6.98082e-07
5.72244e-07
7.7208e-07
-3.95988e-07
7.31586e-07
-5.37457e-07
5.65703e-07
-3.04025e-07
4.76211e-07
4.43635e-07
4.69676e-07
4.29073e-07
3.29266e-07
4.47361e-07
1.637e-07
2.90757e-07
-2.54637e-09
2.36315e-07
-1.37086e-07
2.03388e-07
-2.48113e-07
1.86253e-07
-2.65725e-07
3.07265e-08
-2.41664e-07
-4.53631e-08
-1.91134e-07
-8.67222e-08
-1.29976e-07
-1.07525e-07
-6.22734e-08
-1.1543e-07
5.74953e-09
-1.07376e-07
-2.16474e-08
1.90225e-08
-2.79973e-07
7.96632e-07
-4.02335e-07
4.63282e-07
-3.44203e-07
-1.44405e-07
-1.66731e-07
-6.33379e-07
-1.44306e-07
-9.56623e-08
-1.95918e-07
2.31837e-09
5.81545e-08
-7.81926e-07
2.1909e-07
-1.85954e-07
9.63389e-07
2.152e-07
3.58141e-07
9.83677e-07
5.62341e-07
-3.26838e-06
1.41002e-06
-2.60282e-06
1.20118e-06
2.25683e-06
5.47562e-07
2.0042e-06
1.05879e-07
8.68446e-08
4.2325e-07
-9.30959e-07
1.1299e-06
-1.2209e-06
6.37081e-07
2.12448e-06
6.44958e-08
7.10853e-07
5.51495e-07
-1.80933e-06
1.18313e-06
-1.84446e-06
1.13133e-06
-4.98108e-07
1.25287e-06
5.9113e-07
5.11198e-07
2.27921e-06
-5.1596e-07
3.78748e-06
-7.63315e-08
1.5835e-06
7.48539e-07
-1.62157e-06
5.59762e-07
-1.95423e-06
2.43715e-07
-3.01898e-07
-1.20484e-07
-1.62572e-07
6.54729e-08
-1.39214e-06
6.20778e-07
-1.63543e-07
1.0527e-06
1.4032e-07
9.29105e-07
-2.72391e-07
7.31374e-07
-3.39726e-07
2.99572e-07
1.27777e-07
2.92816e-07
4.50391e-07
4.6912e-07
2.5277e-07
5.37429e-07
3.79052e-07
4.24024e-07
4.04162e-07
2.00726e-07
4.59613e-07
3.16363e-08
3.72478e-07
-1.07608e-07
3.25498e-07
-1.69245e-07
9.2363e-08
-1.93324e-07
-2.12845e-08
-1.71666e-07
-1.08381e-07
-1.15647e-07
-1.63545e-07
-3.5516e-08
-1.95561e-07
8.04385e-08
-2.23331e-07
-8.81609e-08
1.46952e-07
-2.65823e-07
1.06246e-06
-3.73036e-07
5.70494e-07
-3.15848e-07
-2.01592e-07
-1.48271e-07
-8.00956e-07
-1.25205e-07
-1.18729e-07
-2.31049e-07
1.08163e-07
-7.85494e-08
-9.34426e-07
1.20928e-07
-3.85431e-07
3.76482e-07
-4.03546e-08
1.48628e-07
1.21153e-06
2.88199e-07
-3.40796e-06
1.00217e-06
-3.3168e-06
1.08639e-06
2.17261e-06
3.11517e-07
2.77907e-06
-7.01096e-07
1.09946e-06
-1.56271e-07
-1.47578e-06
1.13492e-06
-2.51209e-06
7.23171e-07
2.53623e-06
2.24004e-07
1.21002e-06
6.57324e-07
-2.24265e-06
1.07272e-06
-2.25985e-06
9.14141e-07
-3.39533e-07
6.00029e-07
9.05243e-07
1.26801e-07
2.75244e-06
-1.59963e-07
4.07424e-06
6.50842e-07
7.72695e-07
1.00999e-06
-1.98071e-06
6.06296e-07
-1.55054e-06
3.30257e-07
-2.58582e-08
3.36095e-07
-1.6841e-07
5.22667e-07
-1.57872e-06
1.26785e-06
-9.08722e-07
1.39878e-06
9.38487e-09
9.67193e-07
1.59196e-07
6.78499e-07
-5.1032e-08
7.22379e-07
8.3897e-08
1.07906e-06
9.37095e-08
8.13707e-07
5.18122e-07
7.13531e-07
4.79228e-07
6.32475e-07
4.85218e-07
4.50321e-07
6.41767e-07
2.75417e-07
5.47382e-07
8.10815e-08
5.19833e-07
-4.83021e-08
2.21746e-07
-1.52639e-07
8.30523e-08
-1.71309e-07
-8.97118e-08
-1.42622e-07
-1.92231e-07
-8.51613e-08
-2.53022e-07
5.91828e-08
-3.67675e-07
-1.8934e-07
1.60362e-07
-2.494e-07
1.31186e-06
-3.46843e-07
6.67937e-07
-2.95148e-07
-2.53287e-07
-1.32053e-07
-9.64051e-07
-1.04451e-07
-1.46331e-07
-2.22114e-07
2.25826e-07
-2.08067e-07
-9.48473e-07
-3.37582e-08
-5.5974e-07
6.75589e-07
-7.49702e-07
5.11649e-07
1.37547e-06
2.95646e-07
-3.19195e-06
8.61846e-07
-3.883e-06
9.15204e-07
2.11925e-06
4.45017e-07
3.24926e-06
6.76307e-07
8.68167e-07
2.88571e-07
-1.08805e-06
8.67314e-07
-3.09083e-06
8.65122e-07
2.53843e-06
5.46566e-07
1.52858e-06
6.18889e-07
-2.31497e-06
6.74073e-07
-2.31503e-06
8.03472e-07
-4.68933e-07
7.64928e-07
9.43787e-07
9.85651e-08
3.4188e-06
3.65868e-07
3.80694e-06
9.04595e-07
2.33968e-07
8.90528e-07
-1.96664e-06
6.02327e-07
-1.26234e-06
4.62109e-07
1.1436e-07
5.4811e-07
-2.5441e-07
5.67838e-07
-1.59844e-06
5.38165e-07
-8.79049e-07
7.56828e-07
-2.09278e-07
8.03467e-07
1.12557e-07
6.47954e-07
1.04481e-07
7.24813e-07
7.03839e-09
8.35843e-07
-1.73207e-08
7.80672e-07
5.73293e-07
6.61234e-07
5.98666e-07
7.03377e-07
4.43075e-07
7.7584e-07
5.69305e-07
5.78821e-07
7.44401e-07
3.41807e-07
7.56847e-07
1.10793e-07
4.5276e-07
-7.49458e-08
2.68792e-07
-1.44626e-07
-2.00321e-08
-1.69638e-07
-1.67219e-07
-2.01799e-07
-2.20861e-07
-1.07313e-07
-4.62162e-07
-2.24275e-07
-7.23774e-08
-2.26974e-07
1.53883e-06
-3.09052e-07
7.50014e-07
-2.71489e-07
-2.9085e-07
-1.25663e-07
-1.10988e-06
-8.75037e-08
-1.8449e-07
-1.54759e-07
2.93081e-07
-1.17038e-07
-9.86194e-07
-1.23514e-07
-5.53263e-07
1.50511e-07
-1.02373e-06
3.42069e-07
1.18391e-06
5.80311e-07
-3.43019e-06
1.10888e-06
-4.41157e-06
7.81103e-07
2.44703e-06
5.88083e-07
3.44228e-06
6.49124e-07
8.07126e-07
2.33462e-07
-6.72387e-07
6.34284e-07
-3.49166e-06
6.94532e-07
2.47818e-06
8.01649e-07
1.42146e-06
3.55928e-07
-1.86925e-06
2.71789e-07
-2.23089e-06
4.57585e-07
-6.54729e-07
1.03832e-06
3.63056e-07
5.0516e-07
3.95196e-06
1.0368e-06
3.2753e-06
8.61642e-07
4.09121e-07
7.24313e-07
-1.82931e-06
3.13126e-07
-8.51156e-07
3.54687e-07
7.2799e-08
6.49018e-07
-5.48741e-07
8.45866e-07
-1.79529e-06
1.18341e-06
-1.2166e-06
9.77473e-07
-3.33745e-09
7.32703e-07
3.57327e-07
5.92046e-07
2.45138e-07
5.13426e-07
8.56585e-08
2.61366e-07
2.34739e-07
5.09371e-07
3.25288e-07
4.94824e-07
6.13213e-07
6.19397e-07
3.18502e-07
8.10115e-07
3.78586e-07
7.10513e-07
8.44003e-07
4.11906e-07
1.05545e-06
2.41021e-07
6.23644e-07
6.34704e-08
4.46342e-07
-2.02977e-08
6.37358e-08
-9.07006e-08
-9.68166e-08
-2.24602e-07
-8.69601e-08
-1.31805e-07
-5.54959e-07
-2.86076e-07
-7.00039e-08
-2.08205e-07
1.74703e-06
-2.8683e-07
8.2864e-07
-2.60044e-07
-3.17636e-07
-1.20782e-07
-1.24914e-06
-7.18697e-08
-2.33402e-07
-9.04582e-08
3.11669e-07
3.87968e-08
-1.11545e-06
-2.94887e-08
-4.84978e-07
-3.36464e-07
-7.16752e-07
-4.90335e-07
1.33778e-06
7.47487e-07
-4.66802e-06
1.29095e-06
-4.95503e-06
6.70421e-07
3.06756e-06
3.64705e-07
3.748e-06
4.97195e-07
6.74636e-07
4.5243e-07
-6.27622e-07
5.52854e-07
-3.59208e-06
9.71623e-07
2.05941e-06
9.8646e-07
1.40662e-06
5.40583e-07
-1.42338e-06
4.94843e-07
-2.18515e-06
5.56389e-07
-7.16275e-07
7.95325e-07
1.2412e-07
6.6459e-07
4.0827e-06
3.42033e-07
3.59786e-06
7.90435e-07
-3.92812e-08
6.46886e-07
-1.68577e-06
3.52376e-07
-5.56646e-07
5.05035e-07
-7.986e-08
8.04937e-07
-8.48644e-07
8.66187e-07
-1.85654e-06
1.06536e-06
-1.41577e-06
8.49351e-07
2.12669e-07
5.89135e-07
6.17543e-07
4.17667e-07
4.16606e-07
1.54468e-07
3.48857e-07
9.5566e-08
2.93641e-07
3.16082e-07
1.04772e-07
4.05078e-07
5.24218e-07
5.11258e-07
2.12321e-07
6.32934e-07
2.5691e-07
7.07289e-07
7.69648e-07
5.77812e-07
1.18493e-06
5.02506e-07
6.9895e-07
3.6282e-07
5.86028e-07
2.45848e-07
1.80708e-07
1.46811e-07
2.22049e-09
1.79516e-08
4.18991e-08
1.74098e-08
-5.54417e-07
-2.81685e-07
1.30185e-08
-1.87044e-07
1.93408e-06
-2.68083e-07
9.09678e-07
-2.58254e-07
-3.27465e-07
-1.25567e-07
-1.38183e-06
-5.4615e-08
-3.04355e-07
1.71821e-08
2.39872e-07
1.71274e-07
-1.26954e-06
1.33884e-09
-3.15043e-07
-7.62449e-07
4.70361e-08
-8.50424e-07
1.42576e-06
5.1161e-07
-6.03005e-06
8.25894e-07
-5.26932e-06
6.35926e-07
3.25753e-06
4.37993e-07
3.94593e-06
7.33274e-07
3.79355e-07
7.27389e-07
-6.21737e-07
6.69015e-07
-3.53371e-06
1.19023e-06
1.5382e-06
1.12123e-06
1.47562e-06
6.03399e-07
-9.05546e-07
5.80371e-07
-2.16213e-06
9.13087e-07
-1.04899e-06
8.68661e-07
1.68546e-07
8.20079e-07
4.13128e-06
1.24142e-06
3.17652e-06
7.90496e-07
4.1164e-07
5.49073e-07
-1.44434e-06
5.88222e-07
-5.95795e-07
8.87519e-07
-3.79158e-07
9.24029e-07
-8.85154e-07
8.6424e-07
-1.79675e-06
7.1491e-07
-1.26644e-06
7.77923e-07
1.49656e-07
5.20918e-07
8.74548e-07
2.69164e-07
6.6836e-07
-1.81142e-08
6.36135e-07
-1.05152e-07
3.80679e-07
2.00514e-07
-2.00894e-07
3.47262e-07
3.7747e-07
4.27912e-07
1.31671e-07
4.94343e-07
1.90479e-07
5.32289e-07
7.31703e-07
5.39916e-07
1.1773e-06
4.64653e-07
7.74214e-07
4.70433e-07
5.80247e-07
4.15508e-07
2.35633e-07
3.81455e-07
3.6273e-08
6.40069e-07
-2.16715e-07
2.09703e-07
-1.24051e-07
-8.27943e-08
1.08117e-08
-1.68443e-07
2.10252e-06
-2.47799e-07
9.89034e-07
-2.59459e-07
-3.15804e-07
-1.35808e-07
-1.50548e-06
-4.01625e-08
-4e-07
9.57424e-08
1.03967e-07
2.76791e-07
-1.45059e-06
1.10952e-07
-1.49204e-07
-1.9883e-07
3.56818e-07
-4.68128e-07
1.69506e-06
6.74433e-08
-6.56562e-06
7.08848e-07
-5.91072e-06
6.3357e-07
3.3328e-06
7.39075e-07
3.84042e-06
9.94294e-07
1.24136e-07
1.05708e-06
-6.84523e-07
9.36643e-07
-3.41327e-06
1.11965e-06
1.35519e-06
1.00788e-06
1.58739e-06
7.61383e-07
-6.59045e-07
2.90249e-07
-1.69099e-06
6.58059e-07
-1.4168e-06
8.891e-07
-6.24949e-08
8.44564e-07
4.17581e-06
8.71837e-07
3.14925e-06
7.43632e-07
5.39845e-07
4.96263e-07
-1.19697e-06
6.1845e-07
-7.17983e-07
8.12844e-07
-5.73551e-07
1.02811e-06
-1.10042e-06
9.48287e-07
-1.71693e-06
4.51537e-07
-7.69686e-07
4.42833e-07
1.5836e-07
4.2709e-07
8.90291e-07
1.80615e-07
9.14835e-07
1.6367e-07
6.5308e-07
6.48033e-08
4.79546e-07
1.77269e-07
-3.1336e-07
2.7837e-07
2.76368e-07
3.42262e-07
6.77793e-08
3.58092e-07
1.74649e-07
3.42244e-07
7.47551e-07
3.44265e-07
1.17528e-06
4.46399e-07
6.72079e-07
4.47774e-07
5.78872e-07
4.66382e-07
2.17025e-07
4.06822e-07
9.58334e-08
2.53607e-07
-6.35006e-08
1.81282e-07
-5.17251e-08
6.00464e-09
9.24828e-08
-1.54949e-07
2.25747e-06
-2.34775e-07
1.06886e-06
-2.59109e-07
-2.9147e-07
-1.43402e-07
-1.62119e-06
-6.11779e-08
-4.82224e-07
-1.25389e-07
1.68178e-07
1.01038e-07
-1.67702e-06
8.28654e-08
-1.31031e-07
-1.29046e-08
4.52588e-07
-4.02681e-09
1.68618e-06
-9.39763e-08
-6.47567e-06
4.63003e-07
-6.4677e-06
6.21571e-07
3.17424e-06
8.38806e-07
3.62319e-06
1.18768e-06
-2.2474e-07
1.08841e-06
-5.85254e-07
1.12406e-06
-3.44892e-06
9.58045e-07
1.5212e-06
9.72449e-07
1.57299e-06
4.28759e-07
-1.15355e-07
5.81939e-08
-1.32043e-06
5.01186e-07
-1.85979e-06
7.58004e-07
-3.19312e-07
8.19919e-07
4.1139e-06
7.69547e-07
3.19962e-06
6.90352e-07
6.1904e-07
6.61413e-07
-1.16803e-06
6.21502e-07
-6.78072e-07
7.68051e-07
-7.201e-07
1.37998e-06
-1.71236e-06
1.02154e-06
-1.35849e-06
1.88734e-07
6.3121e-08
-9.62841e-08
4.43377e-07
3.03801e-07
4.90206e-07
3.50462e-07
8.68174e-07
8.06627e-07
1.96916e-07
4.17509e-07
8.68664e-07
2.05805e-07
-1.01656e-07
2.00721e-07
2.81452e-07
2.57171e-07
1.13298e-08
2.61489e-07
1.7033e-07
2.24019e-07
7.85022e-07
2.19621e-07
1.17968e-06
2.52912e-07
6.38788e-07
4.02626e-07
4.29158e-07
4.76383e-07
1.43268e-07
4.92283e-07
7.99328e-08
3.61074e-07
6.77087e-08
2.83202e-07
2.61467e-08
1.34517e-07
1.5469e-07
-1.42726e-07
2.4002e-06
-2.22161e-07
1.14829e-06
-2.47257e-07
-2.66373e-07
-1.42804e-07
-1.72564e-06
-1.52836e-07
-4.72192e-07
-6.77307e-07
6.9265e-07
-2.10943e-07
-2.14338e-06
1.04947e-09
-3.43024e-07
-3.73635e-08
4.91001e-07
1.37157e-07
1.51166e-06
4.39498e-07
-6.77801e-06
5.48368e-07
-6.57657e-06
6.02054e-07
3.12055e-06
8.0603e-07
3.41921e-06
1.08504e-06
-5.03754e-07
1.23645e-06
-7.36656e-07
1.1884e-06
-3.40088e-06
9.81935e-07
1.72767e-06
6.62881e-07
1.89204e-06
-4.18464e-08
5.89372e-07
-1.5145e-07
-1.21082e-06
1.76908e-07
-2.18815e-06
3.42341e-07
-4.84746e-07
8.45217e-07
3.61102e-06
7.24933e-07
3.3199e-06
5.98143e-07
7.4583e-07
7.70549e-07
-1.34044e-06
1.34803e-06
-1.25556e-06
1.302e-06
-6.74063e-07
1.45981e-06
-1.87016e-06
1.01396e-06
-9.12639e-07
1.81929e-07
8.9515e-07
-1.03509e-07
7.28816e-07
2.17011e-07
1.69686e-07
2.56562e-07
8.28623e-07
3.52189e-07
1.01288e-07
3.49076e-07
8.71777e-07
6.11891e-08
1.86232e-07
1.3374e-07
2.08901e-07
1.88548e-07
-4.34784e-08
1.97932e-07
1.60946e-07
1.7481e-07
8.08144e-07
2.17667e-07
1.13682e-06
2.08367e-07
6.48088e-07
3.53346e-07
2.84179e-07
4.34526e-07
6.20876e-08
4.5694e-07
5.75193e-08
4.1662e-07
1.08028e-07
2.95905e-07
1.46862e-07
2.57972e-07
1.7245e-07
-1.3206e-07
2.53226e-06
-2.14149e-07
1.23038e-06
-2.38684e-07
-2.41838e-07
-1.25872e-07
-1.83845e-06
-1.14127e-07
-4.83937e-07
-6.62093e-07
1.24062e-06
-4.62036e-07
-2.34344e-06
-8.35769e-08
-7.21482e-07
-3.18588e-07
7.26012e-07
2.95148e-07
8.97922e-07
1.06363e-06
-7.5465e-06
6.24194e-07
-6.13713e-06
5.60887e-07
3.18386e-06
9.1178e-07
3.06832e-06
1.06152e-06
-6.53493e-07
9.27416e-07
-6.02553e-07
1.04277e-06
-3.51623e-06
9.43128e-07
1.82732e-06
3.44848e-07
2.49032e-06
-1.82302e-07
1.11652e-06
-1.46227e-07
-1.2469e-06
8.62751e-08
-2.42065e-06
2.84405e-07
-6.82876e-07
7.25507e-07
3.16992e-06
7.39266e-07
3.30615e-06
6.88564e-07
7.96532e-07
5.7506e-07
-1.22694e-06
7.38967e-07
-1.41946e-06
7.97979e-07
-7.33076e-07
9.79984e-07
-2.05217e-06
7.68093e-07
-7.00748e-07
4.05259e-07
1.25798e-06
7.98397e-08
1.05424e-06
1.51983e-07
9.75429e-08
3.12632e-07
6.67973e-07
3.60702e-08
3.7785e-07
-6.20371e-08
9.69884e-07
7.69619e-08
4.7233e-08
7.0914e-08
2.14949e-07
1.33492e-07
-1.06056e-07
1.57711e-07
1.36727e-07
1.45991e-07
8.19865e-07
2.43737e-07
1.03908e-06
2.33336e-07
6.58489e-07
3.12891e-07
2.04624e-07
3.91683e-07
-1.67041e-08
4.31084e-07
1.81179e-08
4.20831e-07
1.18282e-07
3.2676e-07
2.40933e-07
3.82411e-07
2.0232e-07
-1.22136e-07
2.65439e-06
-2.06479e-07
1.31473e-06
-2.36656e-07
-2.11661e-07
-9.50832e-08
-1.98002e-06
1.88218e-07
-7.67238e-07
-4.55624e-07
1.88446e-06
-6.03798e-07
-2.19526e-06
-2.27111e-07
-1.09817e-06
-1.27129e-07
6.26031e-07
1.04837e-06
-2.77581e-07
9.22276e-07
-7.4204e-06
5.10644e-07
-5.7255e-06
5.70154e-07
3.12435e-06
9.29796e-07
2.70868e-06
1.07334e-06
-7.97032e-07
6.49858e-07
-1.79076e-07
6.296e-07
-3.49597e-06
7.71985e-07
1.68493e-06
2.65342e-07
2.99696e-06
-7.831e-08
1.46017e-06
3.47401e-07
-1.67261e-06
5.89997e-08
-2.13225e-06
1.86314e-07
-8.1019e-07
5.48581e-07
2.80766e-06
5.72785e-07
3.28194e-06
6.14461e-07
7.54855e-07
4.52934e-07
-1.06541e-06
3.29885e-07
-1.29642e-06
4.78224e-07
-8.81415e-07
4.65122e-07
-2.03907e-06
4.28308e-07
-6.63934e-07
4.82724e-07
1.20357e-06
-2.31676e-07
1.76864e-06
-8.16022e-07
6.81889e-07
6.83681e-08
-2.16417e-07
1.55972e-07
2.90246e-07
2.71023e-07
8.54834e-07
1.248e-07
1.93457e-07
-6.99922e-09
3.46747e-07
1.09609e-07
-2.22665e-07
1.44726e-07
1.0161e-07
1.26286e-07
8.38305e-07
2.40898e-07
9.24465e-07
2.24804e-07
6.74584e-07
2.88062e-07
1.41365e-07
3.57523e-07
-8.61648e-08
4.07361e-07
-3.17208e-08
4.19522e-07
1.06121e-07
3.36343e-07
3.24112e-07
4.9746e-07
2.21293e-07
-1.11292e-07
2.76568e-06
-1.9942e-07
1.40286e-06
-2.29508e-07
-1.81574e-07
-9.49658e-08
-2.11457e-06
3.60416e-07
-1.22262e-06
-2.67769e-08
2.27165e-06
-2.74577e-07
-1.94746e-06
-6.92504e-08
-1.3035e-06
4.27838e-08
5.13996e-07
1.14148e-06
-1.37628e-06
6.05372e-07
-6.88429e-06
6.29434e-07
-5.74956e-06
6.31707e-07
3.12208e-06
8.19874e-07
2.52051e-06
8.49325e-07
-8.26482e-07
5.40627e-07
1.29622e-07
4.81315e-07
-3.43666e-06
6.55985e-07
1.51026e-06
2.6134e-07
3.39161e-06
7.10126e-08
1.6505e-06
4.70131e-07
-2.07173e-06
9.47006e-08
-1.75682e-06
9.50407e-08
-8.10531e-07
4.41288e-07
2.46141e-06
5.10432e-07
3.2128e-06
5.70155e-07
6.95133e-07
4.24298e-07
-9.19553e-07
2.74274e-07
-1.14639e-06
2.6164e-07
-8.6878e-07
1.0131e-08
-1.78756e-06
3.58707e-08
-6.89674e-07
5.0795e-08
1.18864e-06
-1.74901e-07
1.99433e-06
-7.76644e-08
5.84653e-07
4.35179e-07
-7.2926e-07
3.0196e-07
4.23465e-07
2.93999e-07
8.62795e-07
-6.70943e-08
5.5455e-07
-1.26681e-07
4.06334e-07
1.25464e-07
-4.7481e-07
1.65678e-07
6.13956e-08
9.39728e-08
9.1001e-07
6.28256e-08
9.55612e-07
2.07641e-07
5.29769e-07
2.78024e-07
7.09817e-08
3.33703e-07
-1.41843e-07
3.69027e-07
-6.70451e-08
3.95134e-07
8.00145e-08
3.205e-07
3.98746e-07
6.03193e-07
2.14768e-07
-1.02515e-07
2.8682e-06
-1.84751e-07
1.48509e-06
-2.03408e-07
-1.62917e-07
-1.40263e-07
-2.17771e-06
2.75654e-07
-1.63854e-06
-3.20771e-08
2.57938e-06
-5.11678e-07
-1.46786e-06
-1.59666e-07
-1.65551e-06
3.29745e-08
3.21356e-07
-1.8614e-07
-1.15717e-06
7.84347e-08
-7.14886e-06
5.98988e-07
-6.27012e-06
6.21897e-07
3.09917e-06
7.86023e-07
2.35638e-06
4.57361e-07
-4.97821e-07
3.23269e-07
2.63714e-07
4.39622e-07
-3.55301e-06
5.59595e-07
1.39029e-06
3.27417e-07
3.62379e-06
1.6949e-07
1.80843e-06
3.65411e-07
-2.26765e-06
1.05101e-07
-1.49651e-06
1.02975e-07
-8.08404e-07
4.13981e-07
2.1504e-06
4.52198e-07
3.17458e-06
5.38926e-07
6.08405e-07
3.63278e-07
-7.43905e-07
4.01899e-07
-1.18501e-06
7.77252e-08
-5.44606e-07
-2.16527e-07
-1.49331e-06
-3.56463e-07
-5.49738e-07
-2.68115e-07
1.10029e-06
-8.54184e-09
1.73476e-06
1.77371e-07
3.9874e-07
2.31436e-07
-7.83325e-07
1.30708e-07
5.24193e-07
4.25542e-08
9.50948e-07
-2.03186e-07
8.0029e-07
-7.90008e-08
2.82149e-07
1.56243e-07
-7.10053e-07
2.23499e-07
-5.86074e-09
1.68408e-07
9.65101e-07
7.24089e-08
1.05161e-06
2.76403e-07
3.25774e-07
3.10179e-07
3.72065e-08
3.20669e-07
-1.52334e-07
3.42405e-07
-8.87808e-08
3.4964e-07
7.27786e-08
2.92014e-07
4.56371e-07
6.96989e-07
1.98217e-07
-9.42339e-08
2.96243e-06
-1.68464e-07
1.55932e-06
-1.68816e-07
-1.62565e-07
-1.20368e-07
-2.22616e-06
1.5523e-07
-1.91414e-06
-1.68765e-07
2.90338e-06
-6.55682e-07
-9.80946e-07
-2.5541e-07
-2.05578e-06
-6.7602e-08
1.33548e-07
-1.81202e-07
-1.04357e-06
1.85821e-07
-7.51589e-06
5.11826e-07
-6.59612e-06
5.25956e-07
3.08504e-06
5.15912e-07
2.36643e-06
2.36984e-08
-5.60695e-09
1.6315e-07
1.24262e-07
3.39115e-07
-3.72898e-06
4.21773e-07
1.30763e-06
3.87374e-07
3.65819e-06
3.27715e-07
1.86809e-06
2.30186e-07
-2.17012e-06
1.23748e-07
-1.39007e-06
1.15698e-07
-8.00355e-07
3.55902e-07
1.9102e-06
3.54034e-07
3.17645e-06
5.22955e-07
4.39484e-07
1.79757e-07
-4.00707e-07
-1.97904e-08
-9.85464e-07
-1.24243e-07
-4.40153e-07
-3.36216e-07
-1.28133e-06
-7.346e-07
-1.51354e-07
-5.23886e-07
8.8958e-07
-2.42492e-08
1.23512e-06
2.19106e-07
1.55385e-07
1.26577e-07
-6.90796e-07
2.7699e-07
3.7378e-07
-7.35137e-08
1.30145e-06
-4.55926e-07
1.1827e-06
-5.03259e-08
-1.23452e-07
1.77017e-07
-9.37396e-07
2.85909e-07
-1.14753e-07
4.52999e-07
7.98011e-07
6.49982e-07
8.54628e-07
5.06241e-07
4.69515e-07
3.97858e-07
1.4559e-07
3.05512e-07
-5.99886e-08
2.45864e-07
-2.9132e-08
2.82331e-07
3.63106e-08
2.53254e-07
4.85449e-07
7.74839e-07
1.75404e-07
-8.68321e-08
3.04927e-06
-1.52737e-07
1.62523e-06
-1.42942e-07
-1.7236e-07
-7.7997e-08
-2.2911e-06
3.81654e-08
-2.0303e-06
-3.48256e-07
3.2898e-06
-5.73831e-07
-7.55371e-07
-6.10418e-07
-2.01919e-06
-1.44953e-07
-3.31917e-07
1.27265e-07
-1.31578e-06
4.25585e-07
-7.81421e-06
3.83004e-07
-6.55354e-06
3.57386e-07
3.11065e-06
3.28058e-07
2.39576e-06
1.55529e-07
1.66922e-07
2.05999e-07
7.37924e-08
3.31624e-07
-3.8546e-06
4.39486e-07
1.19977e-06
4.69192e-07
3.62848e-06
1.79299e-07
2.15798e-06
9.52817e-08
-2.0861e-06
1.65453e-07
-1.46025e-06
8.44713e-08
-7.19373e-07
2.63673e-07
1.731e-06
4.61888e-07
2.97823e-06
5.71329e-07
3.30043e-07
2.65458e-07
-9.48364e-08
1.74636e-07
-8.94642e-07
1.04086e-07
-3.69603e-07
-3.22291e-07
-8.54957e-07
-4.43269e-07
-3.03763e-08
-5.43609e-07
9.8992e-07
3.5054e-08
6.56459e-07
1.62365e-07
2.80744e-08
2.59893e-07
-7.88324e-07
5.98672e-07
3.50005e-08
5.44841e-08
1.84564e-06
-3.07636e-08
1.26795e-06
1.72383e-07
-3.26599e-07
1.90178e-07
-9.5519e-07
2.99596e-07
-2.24171e-07
5.12539e-07
5.85068e-07
6.57529e-07
7.09638e-07
5.61736e-07
5.65308e-07
4.01317e-07
3.06009e-07
3.14181e-07
2.71473e-08
2.48897e-07
3.61523e-08
2.71045e-07
1.41628e-08
2.28581e-07
5.27913e-07
8.50283e-07
1.53138e-07
-8.00035e-08
3.12927e-06
-1.37617e-07
1.68284e-06
-1.27121e-07
-1.82856e-07
-5.8051e-08
-2.36017e-06
-7.05182e-08
-2.01783e-06
-2.546e-07
3.47388e-06
-4.0273e-07
-6.07241e-07
-2.26607e-07
-2.19532e-06
-9.91129e-08
-4.59411e-07
2.26818e-07
-1.64172e-06
2.33588e-07
-7.82098e-06
1.63243e-07
-6.4832e-06
1.61661e-07
3.11224e-06
1.48533e-07
2.40888e-06
9.7881e-08
2.17574e-07
2.20535e-07
-4.88618e-08
3.18145e-07
-3.95221e-06
4.79532e-07
1.03838e-06
5.55308e-07
3.5527e-06
2.69917e-07
2.44337e-06
1.14344e-07
-1.93053e-06
2.33796e-08
-1.36928e-06
9.90396e-08
-7.95032e-07
1.96007e-07
1.63403e-06
3.87939e-07
2.7863e-06
5.5989e-07
1.58093e-07
3.27234e-07
1.37819e-07
4.78938e-07
-1.04635e-06
4.02413e-07
-2.93077e-07
-2.42053e-07
-2.10491e-07
-3.89618e-07
1.17188e-07
-2.88588e-07
8.88891e-07
-2.71395e-07
6.39266e-07
9.99336e-08
-3.43255e-07
1.89281e-07
-8.77672e-07
3.26527e-07
-1.02246e-07
2.67548e-07
1.90462e-06
2.70638e-07
1.26486e-06
2.7053e-07
-3.26491e-07
2.01142e-07
-8.85802e-07
2.5446e-07
-2.77488e-07
4.2409e-07
4.15437e-07
4.58232e-07
6.75496e-07
4.16988e-07
6.06551e-07
3.08076e-07
4.14921e-07
3.24719e-07
1.05049e-08
2.63735e-07
9.71366e-08
2.42256e-07
3.56416e-08
1.96753e-07
5.73415e-07
9.19703e-07
1.27333e-07
-7.33634e-08
3.20263e-06
-1.23465e-07
1.73294e-06
-1.19363e-07
-1.86957e-07
-5.92012e-08
-2.42034e-06
-8.05864e-08
-1.99645e-06
-2.20296e-07
3.61359e-06
1.67685e-08
-8.44306e-07
2.49113e-07
-2.42766e-06
-1.12091e-08
-1.99089e-07
1.00164e-07
-1.75309e-06
1.32343e-07
-7.85315e-06
-6.78064e-09
-6.34407e-06
-3.34489e-08
3.1389e-06
-5.35161e-08
2.42895e-06
-5.26693e-08
2.16727e-07
2.48065e-07
-3.49596e-07
3.06959e-07
-4.01111e-06
5.22497e-07
8.22842e-07
8.1248e-07
3.26272e-06
2.11296e-07
3.04455e-06
2.10304e-07
-1.92954e-06
3.3781e-07
-1.49679e-06
1.07166e-07
-5.64389e-07
1.54012e-07
1.58718e-06
2.48457e-07
2.69186e-06
3.06434e-07
1.00115e-07
3.24758e-07
1.19496e-07
5.42784e-07
-1.26437e-06
4.75641e-07
-2.25934e-07
-1.79847e-07
4.44997e-07
-2.17093e-07
1.54434e-07
-1.34117e-07
8.05915e-07
5.98733e-08
4.45275e-07
1.48239e-07
-4.31621e-07
1.1449e-07
-8.43922e-07
2.38266e-07
-2.26022e-07
6.16226e-07
1.52666e-06
5.34573e-07
1.34651e-06
3.42939e-07
-1.34856e-07
1.97511e-07
-7.40375e-07
2.04513e-07
-2.84489e-07
3.11968e-07
3.07983e-07
3.07648e-07
6.79817e-07
2.44377e-07
6.69822e-07
1.22856e-07
5.36443e-07
2.76846e-07
-1.43485e-07
2.54946e-07
1.19036e-07
1.32027e-07
1.58561e-07
1.26843e-07
5.786e-07
9.5165e-07
9.48957e-08
-6.66826e-08
3.26932e-06
-1.05884e-07
1.77214e-06
-1.0856e-07
-1.84281e-07
-6.71402e-08
-2.46176e-06
-8.55159e-09
-2.05503e-06
1.05557e-08
3.59448e-06
-7.00248e-09
-8.26748e-07
-2.56549e-09
-2.4321e-06
8.17521e-09
-2.0983e-07
1.2513e-07
-1.87004e-06
6.54724e-08
-7.7935e-06
-3.88946e-08
-6.23971e-06
1.21818e-07
2.97819e-06
-2.71299e-07
2.82207e-06
-7.624e-08
2.16679e-08
2.23723e-07
-6.49559e-07
2.97285e-07
-4.08467e-06
5.38009e-07
5.82118e-07
5.27935e-07
3.2728e-06
2.78072e-07
3.29442e-06
7.17206e-08
-1.72319e-06
2.29839e-08
-1.44805e-06
1.37372e-08
-5.55142e-07
8.6701e-08
1.51422e-06
1.5083e-07
2.62773e-06
1.03166e-07
1.47779e-07
1.68171e-07
5.44914e-08
3.91975e-07
-1.48818e-06
3.49913e-07
-1.83872e-07
-7.87229e-08
8.73633e-07
-2.12616e-07
2.88328e-07
2.03783e-08
5.7292e-07
1.76843e-07
2.8881e-07
1.68425e-07
-4.23202e-07
3.72818e-08
-7.12779e-07
6.60473e-08
-2.54787e-07
4.18628e-07
1.17408e-06
5.18441e-07
1.2467e-06
3.17379e-07
6.62058e-08
1.82318e-07
-6.05314e-07
1.65177e-07
-2.67349e-07
2.29622e-07
2.43538e-07
2.28272e-07
6.81167e-07
1.2084e-07
7.77253e-07
-1.00874e-09
6.58292e-07
8.14093e-08
-2.25903e-07
1.8515e-07
1.52954e-08
7.20774e-08
2.71633e-07
6.617e-08
5.84507e-07
5.7241e-08
9.60579e-07
-7.84226e-08
4.7015e-08
-7.92007e-08
7.77813e-10
3.43238e-08
-1.13525e-07
-2.48324e-08
5.91562e-08
-1.16973e-07
9.21404e-08
-1.29323e-07
1.23502e-08
-1.0798e-07
-2.13435e-08
-9.08743e-08
-1.71054e-08
-7.68677e-08
-1.40065e-08
-5.72161e-08
-1.96515e-08
-7.73925e-08
2.01766e-08
-1.12837e-07
3.54441e-08
-3.77699e-08
-7.50668e-08
-4.29727e-08
5.20285e-09
-2.24824e-08
-2.04904e-08
7.79218e-08
-1.00404e-07
1.41794e-07
-6.38722e-08
-1.56061e-08
1.574e-07
-7.53252e-07
7.37646e-07
5.40456e-07
-1.29371e-06
1.97445e-06
-1.43399e-06
1.40753e-06
5.66916e-07
3.09852e-07
1.09768e-06
2.91253e-08
2.80727e-07
1.42686e-07
-1.13561e-07
-9.51031e-08
2.37789e-07
-2.19525e-07
1.24422e-07
-3.14456e-07
9.49314e-08
2.02642e-07
-5.17099e-07
8.78622e-07
-6.7598e-07
5.75977e-07
3.02645e-07
3.10346e-07
2.65631e-07
-5.71989e-07
8.82334e-07
-1.83822e-08
-5.53607e-07
3.50556e-07
-3.68939e-07
-2.17979e-07
5.68535e-07
-1.52471e-07
-6.5508e-08
-8.0271e-08
-7.22001e-08
-4.11079e-07
3.30808e-07
-1.25858e-06
8.47502e-07
-2.66065e-07
-9.92517e-07
1.57808e-06
-1.84415e-06
1.42277e-06
1.55317e-07
3.57152e-07
1.06561e-06
-8.21405e-08
4.39293e-07
-8.99217e-08
7.78111e-09
7.19987e-08
-1.6192e-07
2.48833e-07
-1.76835e-07
2.14221e-07
3.46121e-08
2.14221e-07
-8.76973e-08
1.53734e-07
-1.45518e-07
5.85985e-08
-4.21556e-08
-2.16888e-07
-1.30496e-07
1.47497e-07
-2.44557e-07
2.06201e-07
-2.16856e-07
-1.5351e-08
-1.58911e-07
-7.92888e-08
-1.29139e-07
-4.68768e-08
-1.17918e-07
-2.5227e-08
-6.98811e-08
-6.76889e-08
-9.37462e-09
-4.033e-08
-6.02002e-08
8.62697e-08
1.55415e-08
-1.50808e-07
-2.80685e-08
4.88128e-08
-1.37129e-07
8.85696e-08
-1.77828e-07
-5.97043e-08
-1.60782e-07
-8.09182e-08
-4.10885e-08
3.77062e-08
-1.25122e-07
8.21679e-07
6.10194e-07
-2.02902e-06
1.55094e-06
-2.37473e-06
1.63054e-06
4.8731e-07
7.69744e-07
1.95847e-06
3.05232e-07
7.4524e-07
2.46091e-07
-5.44201e-08
8.12278e-08
4.02652e-07
-2.0929e-07
4.1494e-07
-4.40586e-07
3.26228e-07
-1.41753e-07
-8.15932e-07
2.51399e-07
-1.06913e-06
2.23011e-07
3.31033e-07
5.43173e-07
-5.45309e-08
3.27454e-07
1.09805e-06
4.83177e-07
-7.09329e-07
5.32249e-07
-4.18011e-07
6.77551e-08
1.03303e-06
4.17737e-08
-3.95266e-08
-4.47921e-07
4.17495e-07
-9.24991e-07
8.07878e-07
-1.02701e-06
9.49518e-07
-2.64639e-07
-1.75488e-06
7.3758e-07
-2.84637e-06
1.66299e-06
-7.70091e-07
2.44975e-06
2.78854e-07
4.05832e-07
2.48321e-06
2.94539e-08
3.8416e-07
8.03748e-08
-2.12841e-07
2.49698e-07
-3.46158e-07
2.41764e-07
4.25466e-08
4.55985e-07
4.62641e-08
2.54422e-07
-1.07937e-08
1.15656e-07
-2.06491e-07
-2.11902e-08
-1.8152e-07
1.22526e-07
-2.83746e-07
3.08427e-07
-2.05367e-07
-9.373e-08
-1.18115e-07
-1.6654e-07
-9.68673e-08
-6.81249e-08
-1.42797e-07
2.07027e-08
-1.77132e-07
-3.33538e-08
-1.08737e-07
-1.08725e-07
1.12965e-07
-1.35431e-07
5.72689e-08
-9.51126e-08
-4.31465e-08
1.49228e-07
-8.8407e-08
1.3383e-07
-9.88336e-08
-4.92777e-08
-1.13945e-07
-6.58069e-08
4.62339e-08
-1.22473e-07
2.6171e-07
6.06203e-07
5.52488e-07
-2.3198e-06
4.60846e-07
-2.28309e-06
7.86409e-07
1.61747e-07
6.10034e-07
2.13485e-06
3.65296e-07
9.89977e-07
3.33116e-07
-2.22391e-08
5.17989e-08
6.83969e-07
-2.1545e-07
6.82188e-07
-3.55475e-07
4.66253e-07
-1.43814e-07
-1.02759e-06
3.50376e-07
-1.56332e-06
2.36475e-07
4.44934e-07
6.70264e-09
1.75242e-07
-6.70659e-08
1.17182e-06
1.76938e-07
-9.53333e-07
-2.50015e-07
8.94173e-09
-7.75933e-08
8.60608e-07
9.04616e-08
-2.07582e-07
-7.48217e-07
1.25617e-06
-1.1273e-06
1.18696e-06
-7.20021e-07
5.42239e-07
9.4547e-07
-3.42037e-06
2.64078e-06
-4.54168e-06
2.42131e-06
-5.50614e-07
2.26982e-06
4.30344e-07
3.23003e-07
4.43002e-06
3.07219e-08
6.76441e-07
8.68661e-08
-2.68985e-07
2.40714e-07
-5.00006e-07
2.36231e-07
4.70295e-08
6.92216e-07
8.58546e-10
4.13925e-07
-5.0027e-08
1.66542e-07
-2.58459e-07
1.87241e-07
-6.49517e-08
-7.09813e-08
-1.06754e-07
3.50229e-07
-5.53945e-08
-1.45089e-07
-3.69136e-09
-2.18243e-07
1.0946e-08
-8.27621e-08
-2.36524e-08
5.53013e-08
-5.38932e-08
-3.11291e-09
2.00855e-08
-1.82704e-07
1.11383e-07
-2.26729e-07
5.40195e-08
-3.7749e-08
-3.10323e-08
2.3428e-07
-5.98216e-09
1.0878e-07
2.65556e-09
-5.79155e-08
-9.36494e-08
3.0498e-08
-8.03042e-08
-1.35818e-07
2.60075e-07
2.65824e-07
6.21496e-07
-2.68122e-06
-1.35535e-07
-1.52606e-06
5.92582e-08
-3.30462e-08
3.89737e-07
1.80437e-06
3.30938e-07
1.04878e-06
2.892e-07
1.94988e-08
-2.01547e-07
1.17472e-06
-4.22411e-07
9.03052e-07
-4.94974e-07
5.38816e-07
-1.75481e-07
-1.34709e-06
4.53822e-07
-2.19262e-06
5.59579e-07
3.39177e-07
2.22466e-07
5.12355e-07
-1.67327e-07
1.56162e-06
1.97932e-07
-1.31859e-06
-1.72586e-07
3.7946e-07
-2.36508e-07
9.24529e-07
-6.50941e-08
-3.78995e-07
-7.37426e-07
1.92851e-06
-9.47842e-07