/*--------------------------------*- C++ -*----------------------------------*\
| =========                 |                                                 |
| \\      /  F ield         | OpenFOAM: The Open Source CFD Toolbox           |
|  \\    /   O peration     | Version:  2.4.0                                 |
|   \\  /    A nd           | Web:      www.OpenFOAM.org                      |
|    \\/     M anipulation  |                                                 |
\*---------------------------------------------------------------------------*/
FoamFile
{
    version     2.0;
    format      ascii;
    class       volVectorField;
    location    "0.303";
    object      U;
}
// * * * * * * * * * * * * * * * * * * * * * * * * * * * * * * * * * * * * * //

dimensions      [0 1 -1 0 0 0 0];

internalField   nonuniform List<vector> 
10000
(
(-6.20574e-07 5.90902e-07 0)
(-2.78391e-06 8.73543e-07 0)
(-4.21511e-06 5.26197e-07 0)
(-3.56289e-06 4.79676e-08 0)
(-9.26831e-07 -3.59197e-07 0)
(3.2078e-06 -6.57669e-07 0)
(8.37475e-06 -8.50947e-07 0)
(1.41872e-05 -9.56775e-07 0)
(2.0312e-05 -9.93652e-07 0)
(2.64567e-05 -9.75674e-07 0)
(3.23713e-05 -9.13373e-07 0)
(3.7854e-05 -8.16451e-07 0)
(4.27544e-05 -6.95428e-07 0)
(4.69781e-05 -5.6195e-07 0)
(5.04899e-05 -4.28154e-07 0)
(5.33146e-05 -3.05689e-07 0)
(5.55345e-05 -2.04629e-07 0)
(5.72839e-05 -1.32421e-07 0)
(5.8742e-05 -9.62117e-08 0)
(6.01001e-05 -1.12448e-07 0)
(6.15405e-05 -1.77702e-07 0)
(6.32394e-05 -2.75302e-07 0)
(6.53437e-05 -3.91491e-07 0)
(6.79463e-05 -5.14718e-07 0)
(7.10791e-05 -6.32542e-07 0)
(7.47182e-05 -7.33748e-07 0)
(7.87966e-05 -8.11034e-07 0)
(8.32255e-05 -8.62885e-07 0)
(8.79207e-05 -8.93951e-07 0)
(9.28267e-05 -9.13604e-07 0)
(9.79307e-05 -9.3301e-07 0)
(0.000103264 -9.62916e-07 0)
(0.000108899 -1.0135e-06 0)
(0.000114948 -1.09715e-06 0)
(0.000121564 -1.22453e-06 0)
(0.000128909 -1.39162e-06 0)
(0.000137094 -1.58378e-06 0)
(0.000146158 -1.78072e-06 0)
(0.000156049 -1.96187e-06 0)
(0.000166637 -2.11017e-06 0)
(0.000177733 -2.2141e-06 0)
(0.00018911 -2.26806e-06 0)
(0.000200532 -2.27152e-06 0)
(0.000211768 -2.22751e-06 0)
(0.000222608 -2.1411e-06 0)
(0.000232874 -2.01851e-06 0)
(0.000242419 -1.86646e-06 0)
(0.000251124 -1.69177e-06 0)
(0.0002589 -1.50087e-06 0)
(0.000265681 -1.299e-06 0)
(-8.68963e-07 2.65148e-06 0)
(-3.37163e-06 3.43547e-06 0)
(-2.66781e-06 2.30346e-07 0)
(2.65034e-06 -3.64022e-06 0)
(1.2375e-05 -6.93867e-06 0)
(2.55674e-05 -9.39699e-06 0)
(4.12088e-05 -1.10435e-05 0)
(5.83756e-05 -1.19725e-05 0)
(7.62476e-05 -1.22821e-05 0)
(9.40979e-05 -1.20636e-05 0)
(0.000111296 -1.14056e-05 0)
(0.000127321 -1.04012e-05 0)
(0.000141777 -9.15266e-06 0)
(0.000154409 -7.77099e-06 0)
(0.000165111 -6.37274e-06 0)
(0.00017393 -5.07307e-06 0)
(0.000181064 -3.97753e-06 0)
(0.000186834 -3.17309e-06 0)
(0.00019166 -2.72187e-06 0)
(0.000196025 -2.66085e-06 0)
(0.000200433 -2.97554e-06 0)
(0.000205342 -3.60515e-06 0)
(0.000211122 -4.46117e-06 0)
(0.000218026 -5.43826e-06 0)
(0.000226173 -6.42693e-06 0)
(0.000235549 -7.33255e-06 0)
(0.000246037 -8.09396e-06 0)
(0.000257466 -8.69633e-06 0)
(0.000269678 -9.17283e-06 0)
(0.000282575 -9.59263e-06 0)
(0.000296159 -1.0039e-05 0)
(0.000310526 -1.05918e-05 0)
(0.000325853 -1.13252e-05 0)
(0.0003424 -1.23175e-05 0)
(0.000360514 -1.36218e-05 0)
(0.000380549 -1.51946e-05 0)
(0.000402737 -1.69149e-05 0)
(0.00042712 -1.86205e-05 0)
(0.000453529 -2.01485e-05 0)
(0.000481609 -2.13637e-05 0)
(0.000510865 -2.21744e-05 0)
(0.000540722 -2.25356e-05 0)
(0.000570577 -2.24431e-05 0)
(0.000599853 -2.19234e-05 0)
(0.000628019 -2.1023e-05 0)
(0.00065462 -1.97986e-05 0)
(0.000679273 -1.83103e-05 0)
(0.000701673 -1.66162e-05 0)
(0.000721582 -1.47682e-05 0)
(0.000738827 -1.28092e-05 0)
(-5.08974e-07 3.92168e-06 0)
(-2.49031e-07 2.9208e-06 0)
(5.58767e-06 -5.49902e-06 0)
(1.7805e-05 -1.48926e-05 0)
(3.58499e-05 -2.28446e-05 0)
(5.85269e-05 -2.88183e-05 0)
(8.45176e-05 -3.28574e-05 0)
(0.000112561 -3.51334e-05 0)
(0.000141494 -3.58367e-05 0)
(0.000170263 -3.51658e-05 0)
(0.000197944 -3.33348e-05 0)
(0.000223763 -3.05814e-05 0)
(0.000247125 -2.71715e-05 0)
(0.000267637 -2.3396e-05 0)
(0.00028513 -1.95608e-05 0)
(0.000299659 -1.59705e-05 0)
(0.000311503 -1.29065e-05 0)
(0.000321136 -1.06042e-05 0)
(0.000329183 -9.2279e-06 0)
(0.000336369 -8.8476e-06 0)
(0.000343447 -9.43688e-06 0)
(0.00035112 -1.08716e-05 0)
(0.000359971 -1.29412e-05 0)
(0.000370408 -1.53806e-05 0)
(0.000382642 -1.79126e-05 0)
(0.000396684 -2.02967e-05 0)
(0.000412389 -2.23748e-05 0)
(0.000429528 -2.41039e-05 0)
(0.000447882 -2.55606e-05 0)
(0.000467328 -2.6911e-05 0)
(0.000487883 -2.83521e-05 0)
(0.000509692 -3.00665e-05 0)
(0.000532987 -3.22161e-05 0)
(0.000558107 -3.49811e-05 0)
(0.000585546 -3.84875e-05 0)
(0.000615822 -4.26072e-05 0)
(0.000649248 -4.70189e-05 0)
(0.000685832 -5.13073e-05 0)
(0.000725261 -5.50626e-05 0)
(0.000766952 -5.79506e-05 0)
(0.000810125 -5.97487e-05 0)
(0.000853898 -6.03512e-05 0)
(0.000897366 -5.9754e-05 0)
(0.000939667 -5.803e-05 0)
(0.000980023 -5.53023e-05 0)
(0.00101776 -5.17208e-05 0)
(0.00105233 -4.74431e-05 0)
(0.00108329 -4.26208e-05 0)
(0.00111029 -3.73889e-05 0)
(0.00113311 -3.18596e-05 0)
(-2.91113e-08 3.11762e-06 0)
(3.54408e-06 -2.27372e-06 0)
(1.48584e-05 -1.76337e-05 0)
(3.40026e-05 -3.39124e-05 0)
(5.99407e-05 -4.76161e-05 0)
(9.12143e-05 -5.79282e-05 0)
(0.000126283 -6.48888e-05 0)
(0.000163649 -6.87424e-05 0)
(0.000201898 -6.97782e-05 0)
(0.000239728 -6.83173e-05 0)
(0.000275978 -6.47255e-05 0)
(0.000309666 -5.94248e-05 0)
(0.000340027 -5.28966e-05 0)
(0.000366549 -4.56729e-05 0)
(0.000388998 -3.8317e-05 0)
(0.000407433 -3.13921e-05 0)
(0.0004222 -2.54218e-05 0)
(0.000433902 -2.08462e-05 0)
(0.000443349 -1.7978e-05 0)
(0.00045149 -1.69648e-05 0)
(0.000459319 -1.77698e-05 0)
(0.000467775 -2.01725e-05 0)
(0.000477649 -2.37956e-05 0)
(0.000489509 -2.81588e-05 0)
(0.000503656 -3.27539e-05 0)
(0.000520122 -3.7133e-05 0)
(0.000538719 -4.09955e-05 0)
(0.000559134 -4.4253e-05 0)
(0.000581063 -4.70428e-05 0)
(0.000604343 -4.96692e-05 0)
(0.000629008 -5.24827e-05 0)
(0.000655248 -5.57826e-05 0)
(0.000683309 -5.98161e-05 0)
(0.000713542 -6.49184e-05 0)
(0.00074662 -7.13775e-05 0)
(0.000783306 -7.89296e-05 0)
(0.000824022 -8.69437e-05 0)
(0.000868733 -9.46302e-05 0)
(0.000916955 -0.000101233 0)
(0.000967845 -0.000106152 0)
(0.00102033 -0.000109002 0)
(0.00107322 -0.000109616 0)
(0.00112535 -0.000108008 0)
(0.00117559 -0.00010433 0)
(0.00122298 -9.88187e-05 0)
(0.00126669 -9.17563e-05 0)
(0.00130602 -8.34352e-05 0)
(0.00134046 -7.41339e-05 0)
(0.00136961 -6.41004e-05 0)
(0.00139319 -5.35419e-05 0)
(3.7441e-07 3.99279e-07 0)
(6.88564e-06 -1.19177e-05 0)
(2.30772e-05 -3.57652e-05 0)
(4.83819e-05 -5.99348e-05 0)
(8.12649e-05 -8.00847e-05 0)
(0.000119975 -9.51979e-05 0)
(0.000162753 -0.000105324 0)
(0.000207898 -0.000110777 0)
(0.000253788 -0.000111944 0)
(0.00029891 -0.000109274 0)
(0.000341902 -0.000103301 0)
(0.000381599 -9.46573e-05 0)
(0.000417081 -8.40786e-05 0)
(0.00044772 -7.23867e-05 0)
(0.00047322 -6.0459e-05 0)
(0.000493635 -4.9179e-05 0)
(0.000509368 -3.93749e-05 0)
(0.000521148 -3.17501e-05 0)
(0.000529966 -2.68145e-05 0)
(0.000537001 -2.48235e-05 0)
(0.000543501 -2.57399e-05 0)
(0.000550661 -2.9232e-05 0)
(0.000559496 -3.47158e-05 0)
(0.000570746 -4.14365e-05 0)
(0.000584808 -4.85823e-05 0)
(0.000601722 -5.54226e-05 0)
(0.000621214 -6.14541e-05 0)
(0.000642828 -6.65183e-05 0)
(0.00066611 -7.08377e-05 0)
(0.00069082 -7.49208e-05 0)
(0.000717022 -7.93236e-05 0)
(0.000744979 -8.44558e-05 0)
(0.000774883 -9.05916e-05 0)
(0.000806978 -9.83173e-05 0)
(0.000842216 -0.000108318 0)
(0.00088182 -0.000120105 0)
(0.000926392 -0.00013257 0)
(0.000975842 -0.000144385 0)
(0.00102946 -0.000154331 0)
(0.00108609 -0.000161483 0)
(0.00114431 -0.000165281 0)
(0.00120262 -0.000165513 0)
(0.00125956 -0.000162251 0)
(0.00131381 -0.00015577 0)
(0.00136421 -0.000146469 0)
(0.00140981 -0.000134801 0)
(0.00144987 -0.000121229 0)
(0.00148379 -0.000106188 0)
(0.00151115 -9.00648e-05 0)
(0.00153168 -7.31823e-05 0)
(6.72617e-07 -3.82267e-06 0)
(9.59783e-06 -2.52764e-05 0)
(2.99637e-05 -5.90624e-05 0)
(6.0617e-05 -9.2039e-05 0)
(9.95691e-05 -0.000119203 0)
(0.000144767 -0.000139436 0)
(0.000194225 -0.000152837 0)
(0.000246035 -0.0001598 0)
(0.000298382 -0.00016081 0)
(0.000349558 -0.00015645 0)
(0.000398011 -0.000147431 0)
(0.000442398 -0.000134618 0)
(0.000481644 -0.00011903 0)
(0.000515003 -0.000101821 0)
(0.000542106 -8.42371e-05 0)
(0.000562994 -6.75418e-05 0)
(0.000578123 -5.29325e-05 0)
(0.000588344 -4.14404e-05 0)
(0.000594842 -3.38293e-05 0)
(0.000599048 -3.05033e-05 0)
(0.0006025 -3.1441e-05 0)
(0.000606688 -3.61859e-05 0)
(0.000612892 -4.39043e-05 0)
(0.000622053 -5.34983e-05 0)
(0.000634684 -6.37607e-05 0)
(0.00065082 -7.35748e-05 0)
(0.000670051 -8.21425e-05 0)
(0.000691674 -8.91911e-05 0)
(0.000714971 -9.50676e-05 0)
(0.00073956 -0.000100605 0)
(0.000765576 -0.000106663 0)
(0.000793448 -0.000113725 0)
(0.000823202 -0.000121888 0)
(0.000854663 -0.000132164 0)
(0.000889277 -0.000146224 0)
(0.000929171 -0.000163145 0)
(0.000975217 -0.000181036 0)
(0.00102722 -0.000197791 0)
(0.00108415 -0.000211585 0)
(0.00114442 -0.000221109 0)
(0.0012062 -0.000225634 0)
(0.00126762 -0.000224953 0)
(0.00132692 -0.000219262 0)
(0.00138259 -0.000209022 0)
(0.00143332 -0.000194848 0)
(0.0014781 -0.000177413 0)
(0.00151611 -0.000157382 0)
(0.00154676 -0.000135376 0)
(0.00156964 -0.00011194 0)
(0.0015845 -8.75343e-05 0)
(8.9066e-07 -9.2557e-06 0)
(1.18039e-05 -4.17303e-05 0)
(3.57684e-05 -8.68022e-05 0)
(7.11286e-05 -0.000129479 0)
(0.000115495 -0.000164206 0)
(0.000166525 -0.000189846 0)
(0.000221998 -0.000206592 0)
(0.000279798 -0.000214934 0)
(0.000337911 -0.000215462 0)
(0.000394431 -0.000208896 0)
(0.000447614 -0.000196132 0)
(0.000495928 -0.000178281 0)
(0.000538133 -0.000156675 0)
(0.000573346 -0.000132841 0)
(0.00060111 -0.000108443 0)
(0.000621438 -8.51906e-05 0)
(0.00063483 -6.47207e-05 0)
(0.000642257 -4.84671e-05 0)
(0.000645116 -3.75197e-05 0)
(0.000645125 -3.24887e-05 0)
(0.000644171 -3.33943e-05 0)
(0.000644097 -3.96427e-05 0)
(0.000646507 -5.01029e-05 0)
(0.000652603 -6.32549e-05 0)
(0.00066306 -7.73808e-05 0)
(0.000677916 -9.08302e-05 0)
(0.000696571 -0.000102361 0)
(0.000717934 -0.000111498 0)
(0.000740816 -0.000118763 0)
(0.000764572 -0.000125543 0)
(0.000789499 -0.00013321 0)
(0.000816476 -0.000142242 0)
(0.000845161 -0.000151969 0)
(0.000874172 -0.000164118 0)
(0.000905878 -0.000182796 0)
(0.000944244 -0.000206052 0)
(0.000990431 -0.000230655 0)
(0.00104399 -0.000253369 0)
(0.00110338 -0.000271592 0)
(0.00116644 -0.000283591 0)
(0.00123082 -0.000288515 0)
(0.00129423 -0.000286251 0)
(0.00135461 -0.000277212 0)
(0.00141026 -0.000262136 0)
(0.00145977 -0.000241919 0)
(0.00150208 -0.0002175 0)
(0.00153637 -0.000189782 0)
(0.00156206 -0.000159594 0)
(0.00157877 -0.00012766 0)
(0.00158628 -9.4589e-05 0)
(1.06149e-06 -1.56958e-05 0)
(1.36679e-05 -6.08408e-05 0)
(4.0808e-05 -0.00011845 0)
(8.04134e-05 -0.000171709 0)
(0.000129746 -0.000214568 0)
(0.000186192 -0.000245927 0)
(0.000247302 -0.000266105 0)
(0.00031075 -0.000275707 0)
(0.000374313 -0.000275433 0)
(0.000435883 -0.00026614 0)
(0.000493502 -0.000248912 0)
(0.000545434 -0.000225121 0)
(0.000590247 -0.000196432 0)
(0.000626895 -0.000164786 0)
(0.000654805 -0.000132319 0)
(0.000673936 -0.000101253 0)
(0.000684815 -7.37464e-05 0)
(0.00068853 -5.17244e-05 0)
(0.0006867 -3.66969e-05 0)
(0.00068138 -2.95629e-05 0)
(0.000674875 -3.04252e-05 0)
(0.000669469 -3.85414e-05 0)
(0.000667166 -5.24336e-05 0)
(0.000669515 -7.00791e-05 0)
(0.00067744 -8.91121e-05 0)
(0.000691049 -0.000107143 0)
(0.000709518 -0.000122243 0)
(0.000731184 -0.00013354 0)
(0.00075404 -0.000141767 0)
(0.000776908 -0.000149297 0)
(0.000800401 -0.00015848 0)
(0.000826594 -0.000169724 0)
(0.000854514 -0.000179994 0)
(0.000879633 -0.000192135 0)
(0.000906168 -0.00021627 0)
(0.000941864 -0.000247694 0)
(0.000987858 -0.000280799 0)
(0.00104306 -0.000310773 0)
(0.00110514 -0.000334084 0)
(0.00117116 -0.000348589 0)
(0.00123811 -0.000353425 0)
(0.00130324 -0.000348717 0)
(0.00136422 -0.000335236 0)
(0.00141918 -0.000314101 0)
(0.00146668 -0.000286566 0)
(0.00150565 -0.000253881 0)
(0.00153529 -0.000217214 0)
(0.00155506 -0.000177617 0)
(0.00156464 -0.000136007 0)
(0.00156385 -9.31555e-05 0)
(1.20833e-06 -2.3005e-05 0)
(1.53182e-05 -8.23119e-05 0)
(4.53385e-05 -0.00015364 0)
(8.88681e-05 -0.000218357 0)
(0.000142871 -0.000269954 0)
(0.00020449 -0.000307393 0)
(0.00027106 -0.000331146 0)
(0.000340048 -0.000341939 0)
(0.000409021 -0.000340585 0)
(0.00047565 -0.000328071 0)
(0.00053775 -0.000305667 0)
(0.00059335 -0.000275009 0)
(0.000640788 -0.000238119 0)
(0.000678819 -0.000197383 0)
(0.000706711 -0.00015547 0)
(0.000724337 -0.000115189 0)
(0.000732219 -7.93072e-05 0)
(0.000731544 -5.03469e-05 0)
(0.00072415 -3.03613e-05 0)
(0.000712481 -2.06614e-05 0)
(0.00069936 -2.14936e-05 0)
(0.000687605 -3.19538e-05 0)
(0.000679702 -5.01699e-05 0)
(0.000677655 -7.35565e-05 0)
(0.000682802 -9.89616e-05 0)
(0.000695474 -0.000122988 0)
(0.000714672 -0.000142629 0)
(0.000737968 -0.000156211 0)
(0.000761964 -0.000164587 0)
(0.000784351 -0.000171894 0)
(0.000806151 -0.000182523 0)
(0.000832459 -0.000197068 0)
(0.000861547 -0.000206078 0)
(0.000881292 -0.000213759 0)
(0.000899764 -0.000245177 0)
(0.000932455 -0.000287791 0)
(0.000979084 -0.000331872 0)
(0.00103714 -0.000370682 0)
(0.00110308 -0.000399731 0)
(0.001173 -0.000416587 0)
(0.00124311 -0.000420585 0)
(0.00131021 -0.000412309 0)
(0.00137175 -0.000393069 0)
(0.00142578 -0.000364491 0)
(0.00147091 -0.000328259 0)
(0.00150609 -0.000285965 0)
(0.00153062 -0.000239054 0)
(0.00154401 -0.000188808 0)
(0.00154597 -0.000136341 0)
(0.00153641 -8.26032e-05 0)
(1.34331e-06 -3.10945e-05 0)
(1.68365e-05 -0.000105946 0)
(4.95323e-05 -0.000192121 0)
(9.67611e-05 -0.000269177 0)
(0.000155238 -0.000330158 0)
(0.000221898 -0.000374109 0)
(0.000293883 -0.000401661 0)
(0.000368465 -0.000413663 0)
(0.000443 -0.000411026 0)
(0.000514932 -0.000394856 0)
(0.000581824 -0.000366596 0)
(0.000641436 -0.000328142 0)
(0.000691835 -0.000281883 0)
(0.000731519 -0.00023069 0)
(0.00075955 -0.000177819 0)
(0.000775664 -0.000126745 0)
(0.000780336 -8.09422e-05 0)
(0.000774802 -4.36462e-05 0)
(0.000761094 -1.76149e-05 0)
(0.000742091 -4.75736e-06 0)
(0.000721264 -5.55517e-06 0)
(0.000702067 -1.89078e-05 0)
(0.000687516 -4.25014e-05 0)
(0.000680181 -7.31988e-05 0)
(0.000682062 -0.000106973 0)
(0.000694017 -0.00013911 0)
(0.000715102 -0.000164951 0)
(0.000742035 -0.000181208 0)
(0.000769201 -0.000188256 0)
(0.000791866 -0.000193344 0)
(0.000811015 -0.000205315 0)
(0.000838706 -0.000226859 0)
(0.000873259 -0.000231939 0)
(0.000885559 -0.000224802 0)
(0.000891786 -0.000268403 0)
(0.000922756 -0.000327266 0)
(0.000972582 -0.000385487 0)
(0.00103599 -0.000434794 0)
(0.00110787 -0.000469989 0)
(0.00118316 -0.000488639 0)
(0.00125734 -0.00049062 0)
(0.00132682 -0.000477289 0)
(0.00138898 -0.000450714 0)
(0.00144196 -0.000413151 0)
(0.00148449 -0.00036676 0)
(0.00151567 -0.000313483 0)
(0.00153487 -0.000255028 0)
(0.00154166 -0.000192891 0)
(0.00153581 -0.000128383 0)
(0.00151728 -6.26478e-05 0)
(1.47152e-06 -3.99108e-05 0)
(1.82648e-05 -0.000131605 0)
(5.34822e-05 -0.000233716 0)
(0.000104236 -0.000323996 0)
(0.000167041 -0.000395056 0)
(0.000238668 -0.000446033 0)
(0.000316098 -0.00047771 0)
(0.000396428 -0.000491052 0)
(0.000476818 -0.000487045 0)
(0.000554477 -0.000466883 0)
(0.000626697 -0.000432157 0)
(0.000690933 -0.000385003 0)
(0.000744923 -0.000328181 0)
(0.000786846 -0.000265075 0)
(0.000815493 -0.000199591 0)
(0.0008304 -0.000135951 0)
(0.000831941 -7.84348e-05 0)
(0.000821324 -3.10993e-05 0)
(0.000800678 2.38589e-06 0)
(0.000773362 1.92066e-05 0)
(0.000743676 1.85269e-05 0)
(0.000715813 1.7514e-06 0)
(0.000693254 -2.82969e-05 0)
(0.000679183 -6.80963e-05 0)
(0.000676606 -0.000112795 0)
(0.00068738 -0.000156071 0)
(0.000711112 -0.000190929 0)
(0.000744036 -0.000211084 0)
(0.00077762 -0.000214457 0)
(0.000802148 -0.000212937 0)
(0.000815846 -0.000225065 0)
(0.000845122 -0.000264414 0)
(0.000892181 -0.00026301 0)
(0.000893992 -0.00021685 0)
(0.000882806 -0.000286133 0)
(0.000916914 -0.000369081 0)
(0.000975109 -0.000444823 0)
(0.00104788 -0.000505938 0)
(0.00112858 -0.000547005 0)
(0.00121103 -0.000566113 0)
(0.00129011 -0.000564232 0)
(0.00136217 -0.000543888 0)
(0.00142479 -0.000508126 0)
(0.00147643 -0.000459916 0)
(0.00151607 -0.000401888 0)
(0.00154303 -0.000336285 0)
(0.00155677 -0.000265024 0)
(0.00155692 -0.000189779 0)
(0.00154323 -0.000112049 0)
(0.00151568 -3.31885e-05 0)
(1.5942e-06 -4.94176e-05 0)
(1.96143e-05 -0.000159181 0)
(5.72111e-05 -0.000278276 0)
(0.000111322 -0.00038267 0)
(0.000178315 -0.000464555 0)
(0.000254844 -0.00052316 0)
(0.000337771 -0.000559418 0)
(0.000424056 -0.000574377 0)
(0.000510683 -0.000569068 0)
(0.000594636 -0.000544726 0)
(0.00067292 -0.00050304 0)
(0.000742646 -0.000446351 0)
(0.000801162 -0.000377775 0)
(0.000846248 -0.000301232 0)
(0.000876335 -0.000221341 0)
(0.000890696 -0.000143164 0)
(0.000889553 -7.187e-05 0)
(0.000873965 -1.23978e-05 0)
(0.000845954 3.04225e-05 0)
(0.00080938 5.23261e-05 0)
(0.000769675 5.19836e-05 0)
(0.000731856 3.14249e-05 0)
(0.000699541 -5.86076e-06 0)
(0.000676405 -5.64739e-05 0)
(0.000666912 -0.000115051 0)
(0.000674512 -0.000173443 0)
(0.000699974 -0.00022174 0)
(0.000740294 -0.000249159 0)
(0.000785646 -0.000247339 0)
(0.000817569 -0.000229992 0)
(0.000821022 -0.000234378 0)
(0.000846342 -0.000316537 0)
(0.000910554 -0.000309915 0)
(0.000898224 -0.000176271 0)
(0.00086849 -0.000302915 0)
(0.00091756 -0.000420045 0)
(0.000993294 -0.000515368 0)
(0.00108126 -0.000588274 0)
(0.0011742 -0.000633449 0)
(0.00126534 -0.000650345 0)
(0.00134956 -0.000641794 0)
(0.00142373 -0.000611931 0)
(0.00148609 -0.000564912 0)
(0.00153569 -0.000504386 0)
(0.00157194 -0.000433345 0)
(0.00159439 -0.000354207 0)
(0.00160259 -0.000268995 0)
(0.00159612 -0.000179491 0)
(0.00157469 -8.73642e-05 0)
(0.00153819 5.78772e-06 0)
(1.71003e-06 -5.95793e-05 0)
(2.08717e-05 -0.000188561 0)
(6.06816e-05 -0.000325639 0)
(0.000117947 -0.000445035 0)
(0.000188945 -0.000538541 0)
(0.000270269 -0.000605481 0)
(0.000358721 -0.000646919 0)
(0.00045117 -0.000663958 0)
(0.000544463 -0.000657618 0)
(0.000635383 -0.000629114 0)
(0.00072065 -0.000580159 0)
(0.000796994 -0.00051323 0)
(0.000861301 -0.00043176 0)
(0.000910851 -0.000340216 0)
(0.000943607 -0.000244001 0)
(0.000958501 -0.000149132 0)
(0.000955588 -6.17549e-05 0)
(0.000935643 1.24115e-05 0)
(0.000900174 6.71424e-05 0)
(0.000853534 9.56568e-05 0)
(0.000802827 9.59992e-05 0)
(0.000753942 7.16883e-05 0)
(0.000709815 2.72834e-05 0)
(0.000674222 -3.52793e-05 0)
(0.000653788 -0.000110806 0)
(0.000654206 -0.000188985 0)
(0.000677319 -0.000256484 0)
(0.000721939 -0.000297903 0)
(0.000784088 -0.000297508 0)
(0.000839862 -0.000253773 0)
(0.000839256 -0.00021879 0)
(0.000841017 -0.000373352 0)
(0.000891944 -0.000369948 0)
(0.000859956 -8.78674e-05 0)
(0.000835653 -0.000334969 0)
(0.000925426 -0.000497418 0)
(0.0010358 -0.000608306 0)
(0.00114735 -0.00068823 0)
(0.00125556 -0.000732195 0)
(0.00135533 -0.000741931 0)
(0.00144327 -0.000722733 0)
(0.00151779 -0.000680411 0)
(0.00157831 -0.000620057 0)
(0.00162465 -0.000545769 0)
(0.00165673 -0.000460636 0)
(0.00167431 -0.000367038 0)
(0.00167693 -0.000266938 0)
(0.00166403 -0.000162137 0)
(0.00163511 -5.44473e-05 0)
(0.00158986 5.424e-05 0)
(1.81539e-06 -7.03467e-05 0)
(2.20029e-05 -0.000219599 0)
(6.3804e-05 -0.000375594 0)
(0.000123947 -0.000510868 0)
(0.000198681 -0.000616836 0)
(0.000284605 -0.000692924 0)
(0.000378527 -0.000740311 0)
(0.000477294 -0.000760112 0)
(0.000577677 -0.000753276 0)
(0.000676302 -0.00072091 0)
(0.000769627 -0.000664647 0)
(0.000853983 -0.000586994 0)
(0.000925725 -0.000491614 0)
(0.000981498 -0.000383503 0)
(0.00101864 -0.000268937 0)
(0.00103562 -0.000155063 0)
(0.00103241 -4.91666e-05 0)
(0.00100942 4.26796e-05 0)
(0.000966962 0.000112914 0)
(0.000909739 0.000150089 0)
(0.000847514 0.000151391 0)
(0.000787194 0.000123878 0)
(0.000729413 7.43973e-05 0)
(0.000677098 1.82013e-07 0)
(0.000639967 -9.49483e-05 0)
(0.000626448 -0.000197451 0)
(0.000638398 -0.000289682 0)
(0.000678226 -0.000355831 0)
(0.000756644 -0.00037929 0)
(0.000858992 -0.000315654 0)
(0.000909995 -0.000198858 0)
(0.000865606 -0.000356367 0)
(0.000755681 -0.00034979 0)
(0.000708743 -4.28793e-05 0)
(0.000808299 -0.000429557 0)
(0.000975979 -0.000632049 0)
(0.00113578 -0.000736587 0)
(0.00127135 -0.000808779 0)
(0.00138967 -0.00084188 0)
(0.001492 -0.000837906 0)
(0.00157837 -0.000803986 0)
(0.00164935 -0.000746791 0)
(0.00170536 -0.000671681 0)
(0.00174676 -0.000582832 0)
(0.00177376 -0.000483106 0)
(0.00178617 -0.000374584 0)
(0.00178337 -0.000258982 0)
(0.00176448 -0.000138001 0)
(0.00172859 -1.35789e-05 0)
(0.00167503 0.000112028 0)
(1.90462e-06 -8.16465e-05 0)
(2.29557e-05 -0.000252092 0)
(6.64441e-05 -0.000427849 0)
(0.000129079 -0.000579841 0)
(0.000207149 -0.00069915 0)
(0.000297337 -0.000785309 0)
(0.000396536 -0.000839596 0)
(0.000501652 -0.000863099 0)
(0.000609468 -0.000856624 0)
(0.000716533 -0.000821066 0)
(0.000819101 -0.000757845 0)
(0.000913128 -0.000669335 0)
(0.000994386 -0.000559274 0)
(0.00105873 -0.000433105 0)
(0.00110263 -0.00029805 0)
(0.00112382 -0.000162657 0)
(0.00112229 -3.58237e-05 0)
(0.00109828 7.68802e-05 0)
(0.00105024 0.000167338 0)
(0.000982562 0.00021629 0)
(0.000909023 0.0002182 0)
(0.000838492 0.000187917 0)
(0.000766956 0.000138306 0)
(0.000694276 5.59876e-05 0)
(0.00063412 -5.99615e-05 0)
(0.000597563 -0.000188951 0)
(0.000581347 -0.000306013 0)
(0.000590437 -0.000410955 0)
(0.00065523 -0.000500504 0)
(0.000791475 -0.000473036 0)
(0.000898317 -0.000157988 0)
(0.000848958 -0.000218241 0)
(0.000621714 -0.000133176 0)
(0.000594782 -5.49817e-05 0)
(0.000879807 -0.000655027 0)
(0.00114297 -0.00084202 0)
(0.00133127 -0.000901572 0)
(0.00147374 -0.000942342 0)
(0.00158761 -0.000953101 0)
(0.00168091 -0.000930052 0)
(0.0017577 -0.000879506 0)
(0.00182026 -0.000807062 0)
(0.00186892 -0.000717285 0)
(0.0019038 -0.000614185 0)
(0.0019251 -0.000500187 0)
(0.00193241 -0.000376879 0)
(0.00192478 -0.000245563 0)
(0.00190081 -0.000107713 0)
(0.00185895 3.46385e-05 0)
(0.00179793 0.000178767 0)
(1.97029e-06 -9.33728e-05 0)
(2.36636e-05 -0.000285757 0)
(6.84322e-05 -0.000481999 0)
(0.000133035 -0.000651493 0)
(0.000213877 -0.000785035 0)
(0.000307802 -0.000882285 0)
(0.000411877 -0.000944609 0)
(0.000523168 -0.000973034 0)
(0.000638578 -0.000968157 0)
(0.000754702 -0.000930552 0)
(0.000867707 -0.000861262 0)
(0.000973271 -0.000762312 0)
(0.00106661 -0.000637261 0)
(0.00114266 -0.00049177 0)
(0.00119668 -0.000333959 0)
(0.00122505 -0.00017406 0)
(0.00122763 -2.37623e-05 0)
(0.00120431 0.000113385 0)
(0.00115202 0.00022886 0)
(0.00107581 0.000293216 0)
(0.000993143 0.000295704 0)
(0.000914362 0.000262107 0)
(0.000831994 0.000217789 0)
(0.000740112 0.000137903 0)
(0.000652985 6.26475e-06 0)
(0.000583288 -0.000140848 0)
(0.000524082 -0.000263413 0)
(0.000454909 -0.00036256 0)
(0.000319227 -0.000432018 0)
(4.26239e-05 -0.00043162 0)
(0.000126278 -0.000348413 0)
(0.000438015 -0.00024363 0)
(0.000486326 -9.75863e-05 0)
(0.00104459 -0.000641273 0)
(0.0016198 -0.000861421 0)
(0.00163797 -0.000956988 0)
(0.0016763 -0.00101347 0)
(0.00175973 -0.00104481 0)
(0.00184358 -0.00104268 0)
(0.00191455 -0.00100539 0)
(0.00197516 -0.000942361 0)
(0.00202691 -0.000857733 0)
(0.00206748 -0.0007551 0)
(0.00209568 -0.000639118 0)
(0.00211163 -0.000511914 0)
(0.00211472 -0.000374523 0)
(0.00210355 -0.000227686 0)
(0.0020761 -7.24902e-05 0)
(0.00202999 8.90352e-05 0)
(0.00196308 0.000253575 0)
(2.00373e-06 -0.000105382 0)
(2.40515e-05 -0.000320224 0)
(6.9578e-05 -0.000537507 0)
(0.000135468 -0.000725194 0)
(0.000218322 -0.000873848 0)
(0.000315224 -0.000983276 0)
(0.0004235 -0.00105494 0)
(0.000540485 -0.00108979 0)
(0.000663334 -0.00108816 0)
(0.000788848 -0.00105021 0)
(0.0009133 -0.000976453 0)
(0.00103229 -0.000868303 0)
(0.00114066 -0.000728786 0)
(0.00123248 -0.000563333 0)
(0.00130147 -0.000380589 0)
(0.00134169 -0.000192396 0)
(0.00135269 -1.61473e-05 0)
(0.00133346 0.000150377 0)
(0.00127673 0.000297733 0)
(0.00119231 0.00037756 0)
(0.00110693 0.000379394 0)
(0.00102222 0.000346988 0)
(0.000926814 0.000306997 0)
(0.000825885 0.000235957 0)
(0.000734748 9.36005e-05 0)
(0.000660749 -6.80485e-05 0)
(0.000611221 -0.000208785 0)
(0.000621473 -0.000323345 0)
(0.000701352 -0.000364339 0)
(0.000824948 -0.00038415 0)
(0.000919515 -0.00056471 0)
(0.000911913 -0.000320776 0)
(0.000915251 -0.000251805 0)
(0.00107699 -0.00129287 0)
(0.00136369 -0.00107956 0)
(0.00163766 -0.00107692 0)
(0.00184891 -0.00114265 0)
(0.00201044 -0.00114913 0)
(0.00210813 -0.00111961 0)
(0.00216673 -0.00106472 0)
(0.00221558 -0.000993432 0)
(0.00226148 -0.000900321 0)
(0.00229751 -0.000786267 0)
(0.00232105 -0.000658687 0)
(0.00233345 -0.000519523 0)
(0.00233428 -0.000369033 0)
(0.00232177 -0.000207162 0)
(0.00229331 -3.43876e-05 0)
(0.00224562 0.000147565 0)
(0.0021754 0.000334717 0)
(1.99577e-06 -0.000117489 0)
(2.40439e-05 -0.000355025 0)
(6.96926e-05 -0.0005937 0)
(0.000136034 -0.000800135 0)
(0.000219937 -0.000964714 0)
(0.000318792 -0.00108743 0)
(0.000430265 -0.00116985 0)
(0.000552054 -0.00121286 0)
(0.000681703 -0.00121653 0)
(0.000816412 -0.00118055 0)
(0.000952815 -0.00110476 0)
(0.00108676 -0.000989767 0)
(0.00121311 -0.000837632 0)
(0.00132538 -0.000652858 0)
(0.00141578 -0.000443731 0)
(0.00147509 -0.000222552 0)
(0.00149936 -1.59885e-05 0)
(0.00148651 0.00018563 0)
(0.00142873 0.000372448 0)
(0.00133781 0.000467647 0)
(0.00125888 0.000455505 0)
(0.00117758 0.000446807 0)
(0.00104686 0.000423885 0)
(0.000921876 0.000329393 0)
(0.000861459 0.000154103 0)
(0.000832817 -1.53729e-05 0)
(0.000804059 -0.000183824 0)
(0.000836206 -0.000402292 0)
(0.000954088 -0.000507507 0)
(0.00108555 -0.000549398 0)
(0.00116798 -0.000577935 0)
(0.0012274 -0.000321564 0)
(0.00141425 -0.000416707 0)
(0.00160296 -0.00140301 0)
(0.0017784 -0.00137336 0)
(0.00201293 -0.00129702 0)
(0.00219555 -0.0013328 0)
(0.0023393 -0.00127841 0)
(0.00241158 -0.00118357 0)
(0.00243682 -0.00110729 0)
(0.00247277 -0.00103755 0)
(0.00252062 -0.000940616 0)
(0.00255766 -0.000814304 0)
(0.00257913 -0.000675376 0)
(0.00259053 -0.00052539 0)
(0.00259205 -0.000362977 0)
(0.00258145 -0.000186717 0)
(0.00255538 3.57003e-06 0)
(0.00250984 0.000207011 0)
(0.00244023 0.00041919 0)
(1.93797e-06 -0.000129474 0)
(2.3577e-05 -0.000389607 0)
(6.86185e-05 -0.000649775 0)
(0.000134441 -0.000875331 0)
(0.000218246 -0.00105653 0)
(0.000317777 -0.00119356 0)
(0.000431083 -0.00128818 0)
(0.000556293 -0.00134121 0)
(0.00069145 -0.00135253 0)
(0.000834331 -0.00132137 0)
(0.000982223 -0.0012469 0)
(0.00113167 -0.00112875 0)
(0.00127812 -0.000967688 0)
(0.00141535 -0.000766471 0)
(0.00153476 -0.0005316 0)
(0.00162521 -0.000274223 0)
(0.00167414 -2.68368e-05 0)
(0.00167075 0.000220896 0)
(0.00161031 0.000451787 0)
(0.0015148 0.000561338 0)
(0.00144317 0.000509913 0)
(0.00138462 0.000538582 0)
(0.00124114 0.000591574 0)
(0.00107533 0.000435425 0)
(0.00100517 0.000186545 0)
(0.00101556 -1.59495e-05 0)
(0.00107112 -0.000203974 0)
(0.00114585 -0.000486673 0)
(0.00123803 -0.000631029 0)
(0.00135 -0.000669962 0)
(0.001445 -0.000652023 0)
(0.00160847 -0.000497603 0)
(0.00191008 -0.000711527 0)
(0.00204701 -0.00143097 0)
(0.00210914 -0.00159728 0)
(0.00236136 -0.00153626 0)
(0.0025869 -0.00148549 0)
(0.00269868 -0.00137316 0)
(0.00271835 -0.00119609 0)
(0.00269918 -0.00112594 0)
(0.00273447 -0.00108525 0)
(0.00280234 -0.000989516 0)
(0.0028483 -0.000843361 0)
(0.0028694 -0.000691727 0)
(0.00288256 -0.000532458 0)
(0.00288874 -0.000359927 0)
(0.00288452 -0.000170145 0)
(0.00286525 3.74121e-05 0)
(0.00282655 0.00026288 0)
(0.00276282 0.000502397 0)
(1.82427e-06 -0.000141088 0)
(2.26121e-05 -0.000423354 0)
(6.62651e-05 -0.000704834 0)
(0.000130521 -0.000949656 0)
(0.000212955 -0.00114797 0)
(0.00031168 -0.00130022 0)
(0.000425131 -0.00140833 0)
(0.000551874 -0.00147319 0)
(0.000690472 -0.00149455 0)
(0.000839355 -0.00147134 0)
(0.000996665 -0.00140219 0)
(0.00116007 -0.00128589 0)
(0.00132641 -0.00112185 0)
(0.00149109 -0.000910616 0)
(0.00164658 -0.000655199 0)
(0.00178101 -0.000363319 0)
(0.00187483 -6.46773e-05 0)
(0.00190986 0.000242414 0)
(0.00186432 0.000539571 0)
(0.00176748 0.00066243 0)
(0.00167159 0.000573048 0)
(0.00156842 0.000625841 0)
(0.00141841 0.00077378 0)
(0.00129114 0.000531281 0)
(0.00127119 0.000193191 0)
(0.0013338 -7.98984e-05 0)
(0.00145815 -0.000310507 0)
(0.00157766 -0.000568857 0)
(0.00166026 -0.000719228 0)
(0.00174183 -0.000772782 0)
(0.00183589 -0.000765443 0)
(0.00202379 -0.000767006 0)
(0.00229969 -0.000990295 0)
(0.00246903 -0.00146061 0)
(0.00253016 -0.00172274 0)
(0.00266616 -0.00177819 0)
(0.00286536 -0.00164479 0)
(0.00300237 -0.00144558 0)
(0.00300368 -0.00115754 0)
(0.00295564 -0.00113181 0)
(0.00300659 -0.00116112 0)
(0.00311374 -0.00106401 0)
(0.00317189 -0.000874422 0)
(0.00319013 -0.000709626 0)
(0.0032083 -0.000544546 0)
(0.00322457 -0.000364856 0)
(0.00323267 -0.000162686 0)
(0.00322568 6.22585e-05 0)
(0.00319916 0.000309632 0)
(0.0031477 0.00057795 0)
(1.65304e-06 -0.000152072 0)
(2.11504e-05 -0.000455628 0)
(6.26441e-05 -0.000757941 0)
(0.00012429 -0.00102192 0)
(0.00020406 -0.0012376 0)
(0.000300416 -0.00140569 0)
(0.000412135 -0.00152832 0)
(0.000538143 -0.0016065 0)
(0.000677422 -0.00163994 0)
(0.00082893 -0.00162747 0)
(0.000991552 -0.0015675 0)
(0.00116403 -0.00145838 0)
(0.00134484 -0.00129873 0)
(0.0015321 -0.00108744 0)
(0.00172258 -0.000823717 0)
(0.00190849 -0.000508397 0)
(0.00206575 -0.000156729 0)
(0.00216996 0.00021113 0)
(0.0021861 0.000610516 0)
(0.00213608 0.000763136 0)
(0.00200497 0.000714521 0)
(0.00179156 0.000763597 0)
(0.00163941 0.000900119 0)
(0.00157651 0.000586018 0)
(0.00160184 0.00014399 0)
(0.00172377 -0.000197504 0)
(0.00188528 -0.000465749 0)
(0.00203084 -0.000672318 0)
(0.00215049 -0.000815415 0)
(0.00225626 -0.00085844 0)