/*--------------------------------*- C++ -*----------------------------------*\
| =========                 |                                                 |
| \\      /  F ield         | OpenFOAM: The Open Source CFD Toolbox           |
|  \\    /   O peration     | Version:  2.4.0                                 |
|   \\  /    A nd           | Web:      www.OpenFOAM.org                      |
|    \\/     M anipulation  |                                                 |
\*---------------------------------------------------------------------------*/
FoamFile
{
    version     2.0;
    format      ascii;
    class       volScalarField;
    location    "0.179";
    object      p_rgh;
}
// * * * * * * * * * * * * * * * * * * * * * * * * * * * * * * * * * * * * * //

dimensions      [1 -1 -2 0 0 0 0];

internalField   nonuniform List<scalar> 
60000
(
99.1986
99.2023
99.2098
99.2215
99.2372
99.257
99.2811
99.3095
99.3423
99.3796
99.4217
99.4685
99.5203
99.5774
99.6398
99.7079
99.7818
99.8619
99.9485
100.042
100.142
100.25
100.366
100.489
100.622
100.764
100.915
101.077
101.249
101.433
101.629
101.837
102.059
102.295
102.546
102.813
103.096
103.398
103.717
104.057
104.417
104.8
105.205
105.635
106.091
106.574
107.086
107.628
108.202
108.809
109.451
110.131
110.849
111.607
112.408
113.254
114.146
115.086
116.077
117.12
118.218
119.372
120.585
121.858
123.193
124.592
126.056
127.586
129.184
130.85
132.584
134.387
136.258
138.197
140.202
142.272
144.403
146.593
148.838
151.133
153.473
155.853
158.266
160.705
163.162
165.629
168.099
170.563
173.013
175.443
177.844
180.211
182.541
184.829
187.075
189.28
191.446
193.579
195.693
197.799
99.1981
99.2016
99.2092
99.2208
99.2365
99.2563
99.2804
99.3088
99.3416
99.3789
99.4209
99.4677
99.5195
99.5765
99.6389
99.707
99.7809
99.8609
99.9474
100.041
100.141
100.249
100.364
100.488
100.621
100.762
100.914
101.075
101.247
101.431
101.627
101.835
102.057
102.293
102.544
102.81
103.094
103.395
103.715
104.054
104.414
104.796
105.202
105.632
106.087
106.57
107.082
107.624
108.197
108.804
109.446
110.125
110.843
111.601
112.402
113.247
114.139
115.079
116.07
117.113
118.211
119.365
120.578
121.851
123.186
124.585
126.049
127.58
129.178
130.844
132.579
134.383
136.255
138.195
140.201
142.271
144.404
146.596
148.842
151.139
153.482
155.864
158.279
160.719
163.179
165.648
168.12
170.586
173.037
175.468
177.869
180.237
182.565
184.852
187.096
189.298
191.459
193.587
195.694
197.795
99.1965
99.2
99.2076
99.2192
99.2348
99.2547
99.2787
99.307
99.3398
99.377
99.419
99.4657
99.5175
99.5744
99.6367
99.7046
99.7784
99.8584
99.9447
100.038
100.138
100.246
100.361
100.485
100.617
100.758
100.91
101.071
101.243
101.426
101.622
101.83
102.051
102.287
102.537
102.804
103.087
103.387
103.707
104.046
104.405
104.787
105.192
105.621
106.077
106.559
107.07
107.611
108.184
108.79
109.432
110.11
110.827
111.584
112.384
113.229
114.12
115.059
116.049
117.091
118.188
119.342
120.554
121.826
123.16
124.559
126.022
127.552
129.149
130.815
132.55
134.354
136.226
138.166
140.173
142.244
144.378
146.571
148.819
151.118
153.462
155.847
158.264
160.708
163.17
165.643
168.118
170.587
173.042
175.475
177.879
180.248
182.578
184.866
187.109
189.31
191.47
193.593
195.696
197.792
99.1938
99.1974
99.205
99.2165
99.2322
99.2519
99.2759
99.3042
99.3368
99.374
99.4158
99.4625
99.5141
99.5709
99.633
99.7008
99.7744
99.8542
99.9403
100.033
100.133
100.24
100.356
100.479
100.611
100.752
100.903
101.064
101.236
101.419
101.614
101.821
102.042
102.277
102.527
102.793
103.075
103.375
103.694
104.032
104.391
104.772
105.176
105.604
106.059
106.54
107.05
107.59
108.162
108.767
109.407
110.084
110.799
111.556
112.354
113.197
114.087
115.024
116.013
117.054
118.149
119.301
120.511
121.782
123.115
124.511
125.973
127.502
129.098
130.763
132.497
134.3
136.172
138.112
140.119
142.191
144.325
146.519
148.769
151.07
153.417
155.805
158.226
160.673
163.139
165.617
168.096
170.57
173.03
175.468
177.876
180.249
182.583
184.872
187.117
189.318
191.476
193.597
195.694
197.785
99.1902
99.1938
99.2013
99.2128
99.2284
99.2481
99.272
99.3002
99.3327
99.3698
99.4115
99.4579
99.5094
99.566
99.6279
99.6955
99.7689
99.8484
99.9342
100.027
100.126
100.233
100.348
100.471
100.603
100.743
100.894
101.054
101.225
101.408
101.602
101.809
102.029
102.263
102.513
102.778
103.059
103.358
103.676
104.013
104.371
104.751
105.153
105.581
106.034
106.513
107.022
107.56
108.131
108.734
109.372
110.048
110.761
111.515
112.312
113.153
114.04
114.976
115.962
117
118.093
119.243
120.451
121.719
123.05
124.444
125.904
127.431
129.025
130.688
132.421
134.223
136.094
138.033
140.04
142.112
144.247
146.443
148.694
150.998
153.348
155.739
158.164
160.616
163.088
165.571
168.057
170.537
173.004
175.448
177.862
180.241
182.579
184.872
187.12
189.321
191.478
193.596
195.689
197.773
99.1856
99.1892
99.1967
99.2081
99.2236
99.2433
99.2671
99.2951
99.3275
99.3644
99.4059
99.4522
99.5034
99.5598
99.6215
99.6887
99.7618
99.8409
99.9264
100.019
100.118
100.224
100.339
100.461
100.592
100.732
100.882
101.042
101.212
101.394
101.587
101.793
102.013
102.246
102.494
102.758
103.038
103.336
103.653
103.989
104.345
104.723
105.125
105.55
106.001
106.479
106.986
107.523
108.091
108.692
109.328
110.001
110.712
111.464
112.258
113.096
113.98
114.913
115.896
116.932
118.022
119.168
120.373
121.638
122.966
124.357
125.814
127.338
128.93
130.591
132.321
134.121
135.991
137.929
139.936
142.008
144.144
146.34
148.594
150.9
153.254
155.649
158.08
160.538
163.016
165.506
168
170.488
172.962
175.415
177.837
180.223
182.567
184.866
187.116
189.32
191.476
193.591
195.679
197.756
99.18
99.1836
99.191
99.2024
99.2178
99.2374
99.261
99.2889
99.3212
99.3579
99.3991
99.4452
99.4961
99.5522
99.6136
99.6805
99.7532
99.8319
99.917
100.009
100.107
100.213
100.327
100.449
100.579
100.719
100.868
101.027
101.196
101.377
101.569
101.774
101.993
102.225
102.472
102.734
103.013
103.31
103.625
103.959
104.314
104.69
105.09
105.513
105.962
106.438
106.942
107.476
108.042
108.64
109.274
109.944
110.652
111.401
112.191
113.026
113.907
114.836
115.816
116.847
117.934
119.076
120.278
121.539
122.863
124.251
125.704
127.224
128.813
130.471
132.198
133.996
135.864
137.801
139.806
141.878
144.015
146.212
148.468
150.777
153.135
155.535
157.972
160.437
162.923
165.421
167.924
170.422
172.906
175.368
177.8
180.195
182.547
184.852
187.107
189.313
191.47
193.582
195.665
197.733
99.1734
99.177
99.1843
99.1957
99.211
99.2304
99.2539
99.2816
99.3137
99.3502
99.3912
99.4369
99.4876
99.5433
99.6043
99.6708
99.743
99.8213
99.9058
99.997
100.095
100.2
100.313
100.435
100.564
100.703
100.851
101.009
101.177
101.357
101.548
101.752
101.969
102.2
102.445
102.706
102.984
103.279
103.592
103.924
104.277
104.651
105.048
105.469
105.916
106.389
106.891
107.422
107.984
108.58
109.21
109.876
110.581
111.326
112.113
112.944
113.82
114.745
115.721
116.748
117.83
118.968
120.164
121.421
122.74
124.124
125.573
127.089
128.674
130.328
132.052
133.846
135.712
137.647
139.651
141.722
143.859
146.058
148.316
150.629
152.991
155.397
157.84
160.313
162.807
165.316
167.829
170.338
172.834
175.308
177.751
180.157
182.518
184.831
187.092
189.302
191.459
193.569
195.645
197.705
99.1659
99.1694
99.1767
99.1879
99.2032
99.2224
99.2458
99.2733
99.3051
99.3413
99.382
99.4275
99.4777
99.533
99.5936
99.6596
99.7314
99.8091
99.893
99.9835
100.081
100.186
100.298
100.418
100.547
100.684
100.831
100.988
101.156
101.334
101.524
101.726
101.942
102.171
102.415
102.674
102.95
103.243
103.553
103.884
104.234
104.606
105
105.419
105.863
106.333
106.831
107.359
107.918
108.51
109.136
109.799
110.499
111.24
112.022
112.848
113.721
114.641
115.611
116.633
117.709
118.842
120.033
121.285
122.599
123.977
125.421
126.932
128.512
130.161
131.881
133.673
135.535
137.468
139.47
141.541
143.678
145.878
148.138
150.454
152.821
155.233
157.684
160.165
162.67
165.19
167.715
170.237
172.746
175.234
177.69
180.108
182.481
184.803
187.072
189.285
191.444
193.551
195.622
197.67
99.1573
99.1608
99.1681
99.1792
99.1943
99.2134
99.2366
99.2639
99.2954
99.3313
99.3717
99.4168
99.4666
99.5215
99.5816
99.647
99.7182
99.7953
99.8785
99.9683
100.065
100.169
100.28
100.399
100.527
100.664
100.809
100.965
101.131
101.308
101.497
101.697
101.911
102.139
102.381
102.638
102.911
103.202
103.51
103.838
104.186
104.555
104.947
105.362
105.802
106.269
106.764
107.288
107.843
108.431
109.053
109.711
110.407
111.142
111.92
112.741
113.607
114.522
115.486
116.503
117.573
118.7
119.885
121.13
122.438
123.81
125.248
126.753
128.328
129.972
131.687
133.474
135.333
137.263
139.263
141.333
143.47
145.671
147.934
150.254
152.626
155.044
157.503
159.994
162.51
165.042
167.582
170.118
172.642
175.145
177.616
180.048
182.434
184.767
187.045
189.264
191.424
193.529
195.593
197.63
99.1478
99.1512
99.1584
99.1695
99.1845
99.2034
99.2263
99.2534
99.2846
99.3202
99.3602
99.4049
99.4543
99.5086
99.5681
99.633
99.7035
99.7799
99.8624
99.9514
100.047
100.15
100.26
100.379
100.505
100.64
100.785
100.939
101.104
101.279
101.466
101.665
101.877
102.103
102.342
102.597
102.869
103.157
103.462
103.787
104.132
104.498
104.887
105.298
105.735
106.198
106.689
107.209
107.76
108.343
108.96
109.613
110.303
111.034
111.805
112.62
113.481
114.389
115.347
116.357
117.421
118.541
119.719
120.957
122.258
123.623
125.054
126.553
128.121
129.759
131.469
133.251
135.106
137.032
139.03
141.098
143.234
145.437
147.702
150.026
152.403
154.829
157.297
159.799
162.327
164.873
167.427
169.98
172.521
175.041
177.529
179.978
182.378
184.724
187.011
189.237
191.4
193.502
195.558
197.584
99.1373
99.1407
99.1479
99.1588
99.1736
99.1923
99.215
99.2418
99.2727
99.3079
99.3476
99.3917
99.4406
99.4945
99.5534
99.6176
99.6874
99.763
99.8447
99.9328
100.028
100.129
100.239
100.356
100.481
100.615
100.758
100.911
101.074
101.247
101.433
101.63
101.84
102.063
102.3
102.553
102.821
103.107
103.41
103.731
104.073
104.436
104.82
105.228
105.661
106.12
106.606
107.122
107.667
108.245
108.857
109.505
110.189
110.914
111.679
112.488
113.341
114.243
115.194
116.196
117.252
118.365
119.535
120.766
122.059
123.416
124.839
126.331
127.892
129.524
131.227
133.003
134.853
136.775
138.77
140.836
142.972
145.175
147.442
149.77
152.153
154.587
157.064
159.578
162.12
164.681
167.252
169.823
172.383
174.921
177.429
179.895
182.313
184.673
186.971
189.204
191.37
193.471
195.519
197.531
99.1259
99.1293
99.1363
99.1471
99.1618
99.1803
99.2027
99.2292
99.2598
99.2946
99.3338
99.3774
99.4258
99.479
99.5373
99.6008
99.6698
99.7446
99.8253
99.9125
100.006
100.107
100.215
100.331
100.455
100.587
100.729
100.88
101.041
101.213
101.396
101.591
101.798
102.019
102.254
102.504
102.77
103.052
103.352
103.67
104.008
104.367
104.748
105.152
105.58
106.035
106.516
107.026
107.567
108.139
108.745
109.386
110.065
110.782
111.541
112.342
113.189
114.082
115.025
116.02
117.068
118.172
119.333
120.556
121.84
123.189
124.604
126.087
127.64
129.264
130.961
132.73
134.574
136.492
138.483
140.546
142.681
144.885
147.155
149.486
151.876
154.318
156.805
159.331
161.888
164.465
167.055
169.645
172.226
174.786
177.314
179.801
182.237
184.613
186.925
189.166
191.336
193.434
195.474
197.47
99.1135
99.1169
99.1238
99.1345
99.149
99.1673
99.1894
99.2155
99.2457
99.2801
99.3188
99.362
99.4097
99.4623
99.5198
99.5826
99.6507
99.7246
99.8044
99.8905
99.9831
100.083
100.189
100.304
100.426
100.557
100.697
100.846
101.005
101.175
101.356
101.549
101.754
101.972
102.205
102.452
102.714
102.993
103.289
103.604
103.938
104.293
104.67
105.069
105.493
105.942
106.418
106.923
107.458
108.024
108.623
109.258
109.93
110.64
111.391
112.185
113.023
113.908
114.843
115.828
116.867
117.962
119.114
120.327
121.602
122.941
124.347
125.821
127.365
128.981
130.67
132.432
134.269
136.182
138.168
140.229
142.362
144.566
146.838
149.174
151.57
154.02
156.519
159.058
161.63
164.226
166.835
169.446
172.05
174.633
177.185
179.694
182.15
184.545
186.871
189.122
191.296
193.392
195.422
197.402
99.1003
99.1035
99.1104
99.121
99.1352
99.1532
99.1751
99.2009
99.2307
99.2646
99.3028
99.3453
99.3924
99.4443
99.5011
99.563
99.6302
99.7031
99.7819
99.8668
99.9582
100.056
100.162
100.275
100.395
100.525
100.663
100.81
100.967
101.135
101.313
101.504
101.706
101.922
102.151
102.395
102.654
102.93
103.222
103.533
103.863
104.214
104.585
104.98
105.398
105.842
106.313
106.812
107.34
107.9
108.492
109.12
109.784
110.486
111.229
112.014
112.844
113.72
114.645
115.621
116.65
117.735
118.877
120.08
121.344
122.673
124.069
125.533
127.067
128.674
130.354
132.108
133.938
135.844
137.826
139.883
142.014
144.218
146.492
148.832
151.234
153.693
156.203
158.757
161.346
163.96
166.591
169.226
171.853
174.462
177.039
179.573
182.053
184.467
186.809
189.072
191.25
193.344
195.364
197.326
99.0861
99.0893
99.0961
99.1064
99.1205
99.1383
99.1598
99.1852
99.2145
99.248
99.2856
99.3275
99.374
99.4251
99.481
99.542
99.6083
99.6802
99.7578
99.8415
99.9316
100.028
100.132
100.243
100.363
100.49
100.626
100.771
100.926
101.092
101.268
101.455
101.655
101.868
102.094
102.334
102.59
102.862
103.15
103.457
103.783
104.128
104.495
104.885
105.298
105.736
106.2
106.692
107.214
107.767
108.352
108.972
109.628
110.322
111.056
111.832
112.652
113.519
114.434
115.399
116.418
117.492
118.623
119.814
121.068
122.385
123.77
125.223
126.747
128.343
130.013
131.759
133.58
135.479
137.455
139.508
141.637
143.84
146.115
148.459
150.868
153.336
155.859
158.427
161.033
163.669
166.322
168.982
171.636
174.272
176.877
179.438
181.943
184.38
186.74
189.015
191.199
193.291
195.3
197.241
99.071
99.0741
99.0808
99.091
99.1048
99.1223
99.1435
99.1685
99.1974
99.2303
99.2673
99.3086
99.3543
99.4046
99.4597
99.5198
99.5851
99.6558
99.7322
99.8146
99.9033
99.9986
100.101
100.21
100.328
100.453
100.587
100.73
100.883
101.046
101.219
101.404
101.601
101.81
102.033
102.27
102.521
102.789
103.074
103.376
103.697
104.037
104.399
104.783
105.19
105.622
106.08
106.565
107.08
107.625
108.203
108.814
109.461
110.146
110.871
111.638
112.448
113.304
114.208
115.162
116.17
117.232
118.351
119.53
120.771
122.077
123.449
124.89
126.402
127.987
129.647
131.383
133.196
135.087
137.056
139.104
141.23
143.432
145.708
148.056
150.471
152.949
155.483
158.067
160.692
163.349
166.027
168.713
171.397
174.063
176.698
179.289
181.821
184.282
186.662
188.951
191.142
193.231
195.228
197.146
99.055
99.0581
99.0646
99.0747
99.0883
99.1055
99.1263
99.1509
99.1793
99.2116
99.248
99.2886
99.3335
99.383
99.4371
99.4962
99.5604
99.6299
99.7051
99.7861
99.8733
99.9671
100.068
100.175
100.291
100.414
100.546
100.687
100.837
100.997
101.168
101.349
101.543
101.749
101.968
102.201
102.449
102.713
102.992
103.29
103.606
103.941
104.297
104.675
105.076
105.501
105.952
106.431
106.938
107.475
108.044
108.647
109.285
109.96
110.675
111.431
112.23
113.075
113.968
114.91
115.905
116.955
118.062
119.228
120.456
121.748
123.107
124.536
126.035
127.608
129.256
130.98
132.783
134.665
136.628
138.67
140.791
142.992
145.269
147.62
150.041
152.528
155.076
157.676
160.321
163
165.704
168.42
171.134
173.832
176.5
179.123
181.685
184.173
186.575
188.88
191.078
193.165
195.148
197.042
99.0381
99.0412
99.0476
99.0575
99.0708
99.0877
99.1081
99.1322
99.1601
99.1919
99.2276
99.2674
99.3116
99.3601
99.4133
99.4713
99.5344
99.6027
99.6765
99.7561
99.8417
99.9338
100.033
100.138
100.252
100.373
100.502
100.641
100.788
100.946
101.113
101.292
101.482
101.685
101.9
102.129
102.373
102.632
102.907
103.199
103.51
103.84
104.19
104.561
104.956
105.374
105.818
106.288
106.787
107.316
107.876
108.469
109.098
109.763
110.467
111.212
112
112.833
113.713
114.643
115.625
116.661
117.754
118.907
120.121
121.399
122.744
124.158
125.644
127.204
128.839
130.551
132.343
134.216
136.169
138.205
140.321
142.519
144.796
147.15
149.578
152.075
154.635
157.252
159.918
162.621
165.352
168.098
170.845
173.578
176.282
178.94
181.535
184.053
186.479
188.8
191.007
193.092
195.061
196.927
99.0204
99.0234
99.0297
99.0394
99.0525
99.069
99.089
99.1127
99.14
99.1711
99.2062
99.2452
99.2885
99.3361
99.3883
99.4452
99.507
99.574
99.6464
99.7245
99.8085
99.8988
99.9957
100.1
100.211
100.33
100.457
100.592
100.737
100.892
101.056
101.231
101.418
101.617
101.828
102.053
102.292
102.546
102.817
103.104
103.409
103.733
104.076
104.441
104.829
105.24
105.676
106.138
106.629
107.148
107.699
108.283
108.901
109.556
110.248
110.982
111.757
112.578
113.445
114.362
115.33
116.351
117.43
118.567
119.766
121.03
122.36
123.759
125.23
126.775
128.396
130.095
131.875
133.736
135.681
137.708
139.819
142.014
144.29
146.647
149.08
151.587
154.16
156.795
159.481
162.21
164.97
167.749
170.531
173.301
176.043
178.738
181.37
183.92
186.372
188.713
190.929
193.012
194.965
196.801
99.0018
99.0048
99.011
99.0204
99.0332
99.0494
99.069
99.0922
99.1189
99.1494
99.1837
99.222
99.2644
99.311
99.3621
99.4178
99.4784
99.544
99.6149
99.6914
99.7737
99.8622
99.9571
100.059
100.168
100.284
100.409
100.542
100.684
100.835
100.996
101.168
101.351
101.546
101.753
101.974
102.208
102.457
102.722
103.004
103.303
103.62
103.958
104.316
104.696
105.099
105.527
105.981
106.462
106.973
107.514
108.087
108.694
109.337
110.019
110.739
111.502
112.309
113.163
114.065
115.018
116.025
117.088
118.21
119.393
120.64
121.953
123.336
124.791
126.321
127.927
129.612
131.378
133.227
135.161
137.18
139.284
141.475
143.75
146.108
148.547
151.062
153.649
156.301
159.009
161.765
164.555
167.368
170.188
172.998
175.78
178.517
181.187
183.773
186.255
188.617
190.844
192.925
194.861
196.664
98.9825
98.9854
98.9914
99.0006
99.0131
99.029
99.0481
99.0708
99.0969
99.1267
99.1603
99.1977
99.2391
99.2848
99.3347
99.3892
99.4484
99.5126
99.582
99.6568
99.7374
99.8239
99.9168
100.016
100.123
100.237
100.359
100.489
100.628
100.776
100.934
101.102
101.281
101.472
101.674
101.89
102.12
102.364
102.623
102.899
103.192
103.503
103.834
104.184
104.557
104.952
105.372
105.816
106.288
106.789
107.319
107.882
108.478
109.109
109.778
110.485
111.235
112.028
112.867
113.754
114.691
115.682
116.729
117.834
119
120.229
121.526
122.891
124.329
125.842
127.431
129.101
130.853
132.688
134.61
136.619
138.715
140.9
143.173
145.533
147.976
150.5
153.101
155.77
158.501
161.284
164.106
166.955
169.814
172.667
175.494
178.274
180.987
183.611
186.125
188.511
190.75
192.83
194.748
196.515
98.9623
98.9651
98.971
98.98
98.9922
99.0077
99.0264
99.0485
99.074
99.1031
99.1359
99.1724
99.2129
99.2574
99.3062
99.3594
99.4173
99.4799
99.5477
99.6208
99.6995
99.784
99.8748
99.9721
100.076
100.188
100.307
100.434
100.57
100.714
100.868
101.033
101.208
101.394
101.593
101.804
102.028
102.267
102.52
102.79
103.076
103.381
103.704
104.047
104.412
104.799
105.209
105.645
106.107
106.597
107.117
107.667
108.251
108.87
109.526
110.22
110.955
111.733
112.557
113.428
114.349
115.323
116.352
117.439
118.587
119.799
121.076
122.424
123.843
125.337
126.909
128.562
130.298
132.119
134.027
136.024
138.112
140.29
142.56
144.919
147.367
149.899
152.512
155.2
157.954
160.765
163.62
166.507
169.408
172.306
175.18
178.008
180.767
183.433
185.983
188.395
190.649
192.727
194.626
196.353
98.9413
98.9441
98.9498
98.9586
98.9705
98.9856
99.0038
99.0253
99.0502
99.0786
99.1105
99.1461
99.1856
99.229
99.2766
99.3284
99.3849
99.446
99.5121
99.5834
99.6601
99.7426
99.8311
99.926
100.028
100.136
100.252
100.377
100.509
100.65
100.801
100.961
101.132
101.314
101.507
101.713
101.933
102.166
102.413
102.677
102.956
103.254
103.569
103.905
104.261
104.639
105.04
105.466
105.918
106.397
106.905
107.444
108.016
108.621
109.263
109.943
110.663
111.426
112.233
113.088
113.991
114.947
115.958
117.027
118.155
119.347
120.605
121.933
123.333
124.807
126.361
127.995
129.713
131.518
133.411
135.396
137.473
139.643
141.908
144.266
146.717
149.257
151.883
154.588
157.366
160.205
163.096
166.022
168.968
171.914
174.838
177.717
180.526
183.238
185.827
188.269
190.538
192.616
194.495
196.178
98.9196
98.9223
98.9279
98.9364
98.948
98.9626
98.9804
99.0013
99.0255
99.0531
99.0842
99.1189
99.1572
99.1995
99.2458
99.2963
99.3513
99.4108
99.4751
99.5445
99.6193
99.6996
99.7858
99.8783
99.9772
100.083
100.196
100.317
100.446
100.584
100.73
100.887
101.053
101.23
101.419
101.62
101.833
102.061
102.302
102.559
102.832
103.121
103.429
103.757
104.104
104.473
104.864
105.28
105.721
106.189
106.685
107.212
107.77
108.362
108.99
109.655
110.359
111.106
111.896
112.733
113.619
114.556
115.547
116.596
117.704
118.876
120.113
121.419
122.798
124.252
125.785
127.399
129.098
130.885
132.762
134.732
136.797
138.958
141.217
143.573
146.026
148.573
151.21
153.933
156.734
159.603
162.529
165.497
168.49
171.487
174.465
177.399
180.262
183.024
185.656
188.13
190.419
192.497
194.354
195.991
98.8972
98.8998
98.9052
98.9135
98.9247
98.9389
98.9562
98.9765
99
99.0268
99.057
99.0907
99.128
99.169
99.214
99.2631
99.3165
99.3744
99.4369
99.5044
99.577
99.6551
99.739
99.8289
99.9251
100.028
100.138
100.256
100.381
100.515
100.658
100.81
100.972
101.144
101.328
101.523
101.731
101.952
102.187
102.437
102.702
102.985
103.284
103.603
103.941
104.301
104.682
105.087
105.517
105.974
106.458
106.971
107.516
108.094
108.706
109.356
110.044
110.773
111.546
112.364
113.231
114.148
115.119
116.147
117.234
118.384
119.599
120.883
122.239
123.671
125.181
126.774
128.453
130.22
132.079
134.033
136.084
138.234
140.485
142.838
145.291
147.843
150.492
153.232
156.057
158.956
161.919
164.93
167.971
171.022
174.057
177.051
179.972
182.789
185.468
187.979
190.289
192.37
194.204
195.79
98.874
98.8765
98.8817
98.8898
98.9007
98.9144
98.9312
98.9509
98.9737
98.9996
99.0289
99.0616
99.0977
99.1376
99.1812
99.2288
99.2806
99.3367
99.3974
99.4629
99.5334
99.6092
99.6906
99.7778
99.8712
99.9712
100.078
100.192
100.314
100.444
100.582
100.73
100.887
101.055
101.233
101.423
101.625
101.84
102.068
102.311
102.569
102.843
103.135
103.444
103.773
104.123
104.494
104.888
105.306
105.75
106.222
106.722
107.253
107.815
108.412
109.045
109.717
110.428
111.182
111.982
112.828
113.725
114.675
115.68
116.745
117.871
119.063
120.323
121.656
123.064
124.551
126.12
127.777
129.522
131.362
133.297
135.333
137.47
139.712
142.058
144.511
147.068
149.727
152.483
155.331
158.261
161.261
164.317
167.409
170.517
173.613
176.67
179.654
182.53
185.262
187.814
190.149
192.233
194.045
195.576
98.8501
98.8525
98.8576
98.8654
98.8759
98.8892
98.9054
98.9245
98.9465
98.9717
99
99.0316
99.0666
99.1051
99.1474
99.1935
99.2436
99.298
99.3568
99.4202
99.4885
99.5619
99.6407
99.7252
99.8157
99.9126
100.016
100.127
100.245
100.371
100.505
100.648
100.801
100.963
101.136
101.32
101.515
101.724
101.945
102.181
102.431
102.697
102.98
103.281
103.6
103.939
104.299
104.682
105.089
105.52
105.978
106.464
106.98
107.528
108.108
108.725
109.378
110.071
110.806
111.585
112.411
113.286
114.213
115.196
116.237
117.339
118.506
119.741
121.048
122.43
123.892
125.437
127.069
128.792
130.609
132.525
134.542
136.665
138.895
141.234
143.684
146.243
148.911
151.683
154.554
157.514
160.553
163.655
166.801
169.968
173.129
176.253
179.305
182.246
185.036
187.633
189.997
192.088
193.877
195.35
98.8255
98.8279
98.8328
98.8403
98.8505
98.8633
98.8789
98.8973
98.9186
98.9429
98.9702
99.0007
99.0345
99.0718
99.1126
99.1571
99.2056
99.2581
99.3149
99.3762
99.4422
99.5132
99.5894
99.6711
99.7586
99.8523
99.9524
100.059
100.174
100.295
100.425
100.564
100.711
100.868
101.035
101.213
101.403
101.604
101.819
102.047
102.289
102.547
102.821
103.112
103.421
103.75
104.099
104.47
104.864
105.282
105.727
106.198
106.699
107.231
107.795
108.393
109.028
109.702
110.417
111.175
111.979
112.831
113.735
114.694
115.709
116.786
117.927
119.135
120.416
121.771
123.206
124.724
126.33
128.027
129.821
131.714
133.711
135.817
138.033
140.363
142.808
145.368
148.043
150.83
153.723
156.713
159.791
162.94
166.141
169.371
172.6
175.797
178.922
181.934
184.787
187.436
189.833
191.933
193.7
195.112
98.8003
98.8026
98.8073
98.8145
98.8243
98.8367
98.8517
98.8694
98.8899
98.9133
98.9396
98.969
99.0016
99.0375
99.0769
99.1198
99.1665
99.2171
99.2719
99.331
99.3947
99.4632
99.5367
99.6155
99.7
99.7903
99.8869
99.9901
100.1
100.218
100.343
100.477
100.619
100.771
100.932
101.104
101.287
101.482
101.689
101.909
102.143
102.392
102.657
102.938
103.237
103.555
103.893
104.252
104.633
105.038
105.468
105.924
106.409
106.924
107.471
108.051
108.667
109.321
110.015
110.751
111.533
112.361
113.241
114.174
115.164
116.213
117.327
118.507
119.759
121.086
122.492
123.981
125.559
127.229
128.996
130.864
132.839
134.925
137.125
139.443
141.881
144.44
147.12
149.92
152.833
155.854
158.971
162.168
165.426
168.722
172.024
175.297
178.501
181.59
184.514
187.22
189.656
191.769
193.514
194.862
98.7745
98.7767
98.7812
98.7882
98.7975
98.8094
98.8238
98.8409
98.8606
98.883
98.9083
98.9366
98.9679
99.0024
99.0402
99.0815
99.1264
99.1751
99.2278
99.2847
99.346
99.4119
99.4826
99.5585
99.6398
99.7268
99.8198
99.9192
100.025
100.138
100.259
100.388
100.525
100.671
100.827
100.992
101.168
101.356
101.555
101.767
101.993
102.233
102.488
102.76
103.048
103.355
103.681
104.027
104.395
104.786
105.202
105.643
106.112
106.609
107.138
107.7
108.296
108.929
109.601
110.315
111.072
111.876
112.73
113.637
114.599
115.621
116.705
117.856
119.078
120.374
121.749
123.208
124.755
126.395
128.134
129.975
131.925
133.989
136.17
138.472
140.901
143.456
146.14
148.95
151.883
154.933
158.088
161.334
164.652
168.015
171.394
174.749
178.038
181.21
184.211
186.982
189.464
191.595
193.32
194.602
98.7481
98.7502
98.7545
98.7611
98.7701
98.7815
98.7953
98.8116
98.8305
98.852
98.8762
98.9033
98.9333
98.9664
99.0027
99.0423
99.0854
99.1321
99.1827
99.2373
99.2961
99.3593
99.4272
99.5001
99.5782
99.6617
99.751
99.8465
99.9484
100.057
100.173
100.297
100.428
100.569
100.718
100.877
101.047
101.227
101.418
101.623
101.84
102.07
102.316
102.577
102.854
103.15
103.463
103.797
104.151
104.528
104.928
105.354
105.806
106.286
106.796
107.338
107.914
108.525
109.175
109.865
110.598
111.377
112.204
113.083
114.016
115.008
116.062
117.182
118.372
119.636
120.978
122.404
123.919
125.527
127.234
129.046
130.968
133.006
135.165
137.45
139.865
142.414
145.098
147.917
150.868
153.946
157.139
160.435
163.813
167.247
170.706
174.148
177.528
180.792
183.878
186.721
189.255
191.41
193.119
194.334
98.7211
98.7231
98.7272
98.7336
98.7421
98.753
98.7662
98.7817
98.7997
98.8203
98.8434
98.8693
98.898
98.9296
98.9643
99.0022
99.0434
99.0882
99.1365
99.1888
99.2451
99.3056
99.3706
99.4404
99.5151
99.5951
99.6807
99.7721
99.8697
99.9739
100.085
100.203
100.33
100.464
100.607
100.76
100.922
101.095
101.279
101.474
101.682
101.904
102.139
102.39
102.656
102.939
103.24
103.561
103.901
104.263
104.648
105.057
105.492
105.954
106.445
106.966
107.521
108.11
108.737
109.402
110.11
110.862
111.661
112.511
113.415
114.376
115.398
116.485
117.642
118.871
120.179
121.571
123.05
124.624
126.297
128.076
129.967
131.976
134.11
136.374
138.773
141.312
143.993
146.818
149.784
152.888
156.119
159.464
162.904
166.411
169.954
173.488
176.966
180.328
183.507
186.432
189.027
191.213
192.91
194.057
98.6935
98.6954
98.6994
98.7054
98.7136
98.7239
98.7364
98.7512
98.7684
98.7879
98.81
98.8346
98.862
98.8921
98.9252
98.9613
99.0006
99.0432
99.0894
99.1392
99.193
99.2507
99.3128
99.3794
99.4508
99.5272
99.6089
99.6962
99.7894
99.8889
99.995
100.108
100.229
100.357
100.494
100.64
100.795
100.96
101.135
101.322
101.521
101.733
101.958
102.198
102.453
102.724
103.012
103.319
103.645
103.992
104.361
104.753
105.17
105.613
106.085
106.586
107.118
107.685
108.287
108.927
109.609
110.333
111.104
111.924
112.796
113.725
114.714
115.766
116.887
118.081
119.352
120.706
122.148
123.684
125.321
127.064
128.92
130.898
133.002
135.241
137.621
140.146
142.821
145.649
148.628
151.755
155.022
158.416
161.918
165.501
169.131
172.763
176.345
179.814
183.096
186.112
188.777
191.002
192.694
193.775
98.6654
98.6672
98.671
98.6767
98.6845
98.6942
98.7061
98.7201
98.7364
98.7549
98.7759
98.7992
98.8252
98.8538
98.8852
98.9196
98.9569
98.9975
99.0413
99.0887
99.1398
99.1948
99.2538
99.3172
99.3851
99.4578
99.5356
99.6187
99.7074
99.8022
99.9032
100.011
100.126
100.248
100.378
100.517
100.665
100.822
100.989
101.168
101.357
101.559
101.774
102.002
102.246
102.504
102.779
103.072
103.384
103.715
104.067
104.442
104.841
105.265
105.716
106.196
106.706
107.249
107.826
108.44
109.094
109.79
110.531
111.32
112.16
113.055
114.008
115.025
116.109
117.264
118.496
119.811
121.213
122.709
124.305
126.009
127.828
129.77
131.842
134.051
136.407
138.914
141.579
144.405
147.394
150.542
153.843
157.285
160.85
164.51
168.231
171.966
175.659
179.243
182.638
185.755
188.501
190.776
192.469
193.487
98.6369
98.6386
98.6421
98.6475
98.6548
98.6641
98.6753
98.6885
98.7038
98.7213
98.7411
98.7632
98.7878
98.8148
98.8446
98.8771
98.9124
98.9508
98.9924
99.0373
99.0857
99.1378
99.1938
99.2539
99.3182
99.3872
99.461
99.5398
99.624
99.7138
99.8097
99.9119
100.021
100.137
100.26
100.392
100.532
100.682
100.841
101.01
101.19
101.382
101.586
101.803
102.034
102.28
102.542
102.82
103.117
103.432
103.768
104.125
104.505
104.909
105.339
105.797
106.284
106.802
107.354
107.942
108.567
109.233
109.943
110.699
111.506
112.365
113.283
114.261
115.306
116.421
117.613
118.885
120.244
121.697
123.251
124.912
126.689
128.591
130.626
132.802
135.129
137.614
140.264
143.084
146.077
149.243
152.576
156.064
159.691
163.43
167.244
171.088
174.899
178.607
182.125
185.356
188.195
190.531
192.235
193.195
98.6078
98.6094
98.6128
98.6178
98.6247
98.6334
98.6439
98.6563
98.6707
98.6872
98.7058
98.7266
98.7497
98.7752
98.8032
98.8338
98.8672
98.9034
98.9426
98.985
99.0306
99.0798
99.1327
99.1894
99.2502
99.3153
99.385
99.4595
99.539
99.6239
99.7145
99.8111
99.914
100.024
100.141
100.265
100.398
100.539
100.689
100.849
101.019
101.201
101.394
101.599
101.818
102.051
102.299
102.563
102.844
103.144
103.462
103.801
104.162
104.546
104.954
105.39
105.853
106.346
106.872
107.431
108.027
108.663
109.341
110.063
110.834
111.658
112.537
113.476
114.48
115.553
116.701
117.928
119.242
120.649
122.156
123.771
125.503
127.36
129.353
131.491
133.784
136.241
138.871
141.681
144.674
147.853
151.214
154.746
158.434
162.252
166.164
170.119
174.057
177.898
181.551
184.907