/*--------------------------------*- C++ -*----------------------------------*\
| =========                 |                                                 |
| \\      /  F ield         | OpenFOAM: The Open Source CFD Toolbox           |
|  \\    /   O peration     | Version:  2.4.0                                 |
|   \\  /    A nd           | Web:      www.OpenFOAM.org                      |
|    \\/     M anipulation  |                                                 |
\*---------------------------------------------------------------------------*/
FoamFile
{
    version     2.0;
    format      ascii;
    class       volScalarField;
    location    "0.19";
    object      p;
}
// * * * * * * * * * * * * * * * * * * * * * * * * * * * * * * * * * * * * * //

dimensions      [1 -1 -2 0 0 0 0];

internalField   nonuniform List<scalar> 
3600
(
92.2347
89.6975
87.1314
86.2041
87.2696
89.4209
92.093
93.2263
94.4522
94.7983
95.2113
94.93
94.9373
94.9468
94.6092
94.6902
94.7454
94.4531
94.0606
93.1954
93.077
94.2767
94.6399
95.356
96.3698
95.9958
96.4045
97.0723
97.2078
97.2545
88.9785
86.4344
83.8595
82.9299
83.9982
86.1616
88.842
89.9777
91.2025
91.5491
91.9589
91.6735
91.6834
91.6955
91.3422
91.434
91.4854
91.0902
90.4643
89.8988
89.2196
89.2609
89.7315
90.4401
91.4053
92.1285
92.5684
92.7278
92.8382
92.927
85.7305
83.1713
80.5781
79.6421
80.7142
82.9005
85.6002
86.7321
87.9594
88.3104
88.7096
88.412
88.4268
88.4377
88.0793
88.1949
88.143
87.7915
87.2451
86.6333
85.6296
85.0176
85.7948
86.676
87.4463
88.3668
88.9659
89.2229
89.3034
89.3774
82.4905
79.9082
77.2865
76.3392
77.4171
79.6373
82.3668
83.4902
84.7226
85.0828
85.4669
85.1471
85.1653
85.1768
84.828
84.9752
84.9435
84.5787
84.0491
83.0487
80.8057
80.5076
81.8418
82.9424
83.8612
84.6092
85.1636
85.5169
85.6266
85.6473
79.2586
76.6452
73.9846
73.0217
74.1069
76.3725
79.1423
80.2522
81.4915
81.8662
82.2353
81.8822
81.8928
81.9094
81.577
81.7628
81.7577
81.5003
80.7686
79.3929
76.7267
76.0187
77.3956
78.6773
79.7363
80.8867
81.656
82.0539
82.0303
82.0331
76.0351
73.3821
70.6723
69.6894
70.783
73.1062
75.9269
77.0179
78.2657
78.6599
79.0147
78.6205
78.6013
78.6295
78.3218
78.5207
78.4773
78.2977
77.5711
76.0612
73.0258
72.1574
73.7983
75.397
76.3871
77.4142
78.0777
78.4067
78.5458
78.5872
72.82
70.119
67.3492
66.3417
67.445
69.8388
72.7211
73.7872
75.0452
75.4632
75.8012
75.3616
75.3261
75.3444
75.0566
75.2157
75.0909
74.9711
74.2639
72.7543
69.7197
68.852
70.4061
71.9042
73.1671
74.0375
74.5606
74.9287
75.1201
75.1841
69.6138
66.8559
64.0153
62.9785
64.0924
66.5705
69.5254
70.5598
71.83
72.2757
72.5937
72.1003
72.1087
72.079
71.7511
71.8619
71.6207
71.5832
70.7115
69.3933
66.702
66.0537
67.4084
68.8611
69.9034
70.608
71.1098
71.4342
71.6215
71.6938
66.4164
63.5929
60.6702
59.5993
60.7244
63.3019
66.3403
67.3355
68.6209
69.0992
69.3936
68.8298
68.936
68.8317
68.4091
68.535
68.2112
68.1891
67.3445
66.0937
64.0778
63.5507
64.8461
65.9204
66.7807
67.352
67.7391
67.99
68.1522
68.2583
63.2283
60.33
57.3138
56.2034
57.3403
60.0335
63.1665
64.1139
65.4184
65.9376
66.2037
65.547
65.7661
65.5815
65.0709
65.2347
64.9123
64.8314
64.123
63.1064
61.7981
61.452
62.2175
63.0261
63.6748
64.1347
64.4273
64.6058
64.7188
64.8143
60.0497
57.0673
53.9457
52.7903
53.939
56.766
60.0046
60.8948
62.2226
62.7928
63.0234
62.25
62.5803
62.3269
61.7381
61.9146
61.6399
61.505
60.9651
60.2585
59.5183
59.1871
59.5868
60.0793
60.546
60.916
61.1644
61.2847
61.3513
61.4086
56.8809
53.8047
50.5657
49.3593
50.5195
53.5003
56.8554
57.6775
59.0328
59.6657
59.8513
58.9392
59.3907
59.0972
58.4087
58.5712
58.3061
58.1823
57.8042
57.358
56.8312
56.6134
56.7991
57.0991
57.3949
57.6459
57.8389
57.9536
58.0041
58.0061
53.7224
50.5424
47.1733
45.9096
47.0806
50.2373
53.7193
54.4617
55.8478
56.557
56.6842
55.6163
56.198
55.8878
55.0817
55.2335
54.9196
54.8845
54.6255
54.3367
53.9808
53.8616
53.9494
54.0812
54.2099
54.3604
54.5102
54.6195
54.6742
54.673
50.5745
47.2804
43.7683
42.44
43.6207
46.9783
50.5968
51.2467
52.6665
53.4691
53.5182
52.2746
53.0254
52.6986
51.7529
51.8848
51.5364
51.6113
51.4268
51.2597
51.0726
50.9927
51.014
51.0136
50.9717
50.9328
51.0408
51.2578
51.3674
51.3322
47.4377
44.0188
40.3503
38.9496
40.1382
43.7248
47.4879
48.0322
49.4877
50.394
50.3603
48.9098
49.8691
49.534
48.4537
48.5193
48.1529
48.3037
48.2032
48.1426
48.0696
47.9897
47.9636
47.9693
47.9099
47.762
47.7168
47.8837
48.0287
47.9684
44.3125
40.7575
36.9188
35.4371
36.6312
40.4786
44.3927
44.8168
46.3123
47.3732
47.1962
45.5183
46.7342
46.3565
45.0725
45.0514
44.7715
44.9763
44.9434
44.9948
45.0187
44.9067
44.8082
44.7972
44.8357
44.8434
44.7245
44.6639
44.6977
44.6379
41.1994
37.4967
33.4734
31.901
33.0975
37.242
41.3106
41.6013
43.1407
44.3389
44.0292
42.0864
43.615
43.2095
41.682
41.4874
41.283
41.6611
41.7465
41.8293
41.9839
41.7899
41.609
41.495
41.4585
41.4659
41.4864
41.3494
41.3246
41.3763
38.0991
34.2366
30.0136
28.3399
29.5347
34.0176
38.2417
38.3792
39.967
41.3795
40.8425
38.5979
40.5279
40.1138
38.2538
37.8466
37.7556
38.3556
38.5604
38.6459
38.8467
38.6841
38.4029
38.2286
38.1283
38.1399
38.2157
38.1495
38.1417
38.2609
35.0122
30.9769
26.5389
24.7519
25.9399
30.8086
35.1836
35.1648
36.803
38.3943
37.6445
35.0798
37.4441
36.989
34.7207
34.1617
34.2762
35.0605
35.3377
35.4635
35.7148
35.5594
35.1997
35.041
34.8634
34.8595
35.0006
35.0238
34.9893
35.0481
31.9393
27.718
23.0487
21.1353
22.3104
27.6188
32.1371
31.9283
33.6239
35.5131
34.4052
31.4231
34.3562
33.943
31.1772
30.5253
30.8903
31.749
32.0454
32.2014
32.5227
32.2675
31.7316
31.65
31.6655
31.7019
31.8358
31.8381
31.7802
31.8001
28.8816
24.4601
19.5427
17.4887
18.6432
24.4523
29.0993
28.7179
30.4441
32.5724
31.1986
27.8572
31.2939
30.7943
27.5091
26.6784
27.561
28.4504
28.733
28.9182
29.2445
28.7669
28.1171
28.2759
28.5143
28.6216
28.6723
28.6456
28.6005
28.6195
25.8393
21.2045
16.0212
13.8121
14.9366
21.3126
26.0549
25.4877
27.2915
29.7593
27.792
24.0396
28.2303
27.785
24.4077
22.6163
24.2484
25.2751
25.4172
25.6692
26.309
25.3985
24.9063
25.0523
25.3643
25.4857
25.4957
25.4622
25.4461
25.4618
22.8148
17.9522
12.4862
10.1105
11.1927
18.2009
23.0768
22.2818
24.1081
26.8452
25.2637
20.2653
24.5782
24.5362
20.1518
18.3261
20.6864
22.132
22.0888
22.3235
23.0041
22.5313
21.915
21.9572
22.2041
22.2166
22.2375
22.2321
22.2411
22.2422
19.809
14.702
8.94298
6.3993
7.41874
15.1143
20.0163
19.1229
20.9189
23.7676
21.7331
19.1772
20.5646
20.8544
16.2445
13.5924
16.5281
19.0407
18.8978
19.0629
19.8572
20.3729
19.1336
19.0103
19.0644
19.0575
19.0408
19.0176
18.9975
18.9989
16.8226
11.4614
5.39394
2.68238
3.62631
12.0296
17.1335
17.7127
17.8213
21.5375
18.5219
15.7862
16.7736
17.1472
11.997
9.95773
13.1193
16.1498
15.4761
16.7253
16.7522
16.4737
15.8648
15.8882
15.8415
15.7536
15.7394
15.722
15.7407
15.7425
13.856
8.22845
1.8986
-0.159291
1.2893
9.06728
16.5978
14.8422
14.6043
18.5989
15.6502
12.2397
13.4677
13.6021
8.99627
6.85235
9.90499
13.1304
12.5174
12.7497
13.4804
12.8749
12.7176
12.6858
12.5661
12.5147
12.52
12.5
12.5182
12.5015
10.9009
4.98467
0.157002
-0.098142
2.47065
7.23735
13.0758
13.5875
11.4883
15.5419
13.1615
9.50098
10.811
10.0815
6.4861
4.4129
6.97168
10.2106
8.16457
9.17439
10.081
9.56077
9.59719
9.29565
9.12171
9.13378
9.25845
9.24379
9.28484
9.27648
7.95157
1.49546
0.150028
-0.181704
1.46874
5.23359
8.54186
6.25716
8.22568
12.4293
11.1389
6.65729
8.11505
7.08762
4.04917
2.56154
4.55027
7.19827
5.04083
6.64973
6.79837
6.21272
6.42003
5.90182
5.95262
5.95769
6.07826
6.02754
6.04639
6.05576
4.73454
-0.281302
-0.0173968
-0.0709856
0.127088
2.7124
4.22929
3.28963
5.06423
9.34956
8.77457
3.63432
5.41726
4.53049
1.25284
-0.420134
1.84125
4.31425
1.84398
3.85005
3.57955
3.12514
3.27354
2.83182
2.77789
2.77786
2.83087
2.8158
2.88185
2.93649
1.53188
-0.00930809
-0.0661659
-0.0855361
0.0246787
0.537886
0.879956
0.38637
2.00321
6.36888
5.81879
0.451083
2.43982
1.59517
0.151475
-0.16087
0.335209
1.3163
0.170763
1.16266
0.795369
0.942229
0.614408
0.250789
0.416528
0.386726
0.493406
0.722837
0.831182
0.84478
97.2829
97.2366
96.7277
96.4352
96.7032
96.3384
95.2489
94.5965
94.103
92.646
92.8617
93.6328
93.894
94.283
94.1251
94.0179
94.1904
94.0302
93.847
93.7736
93.0096
92.8
91.958
91.6192
89.6483
87.7877
86.5276
87.2316
89.9588
92.3186
92.9019
92.869
92.8432
92.6325
92.212
91.5338
90.6208
89.7978
88.9914
88.853
89.5451
89.9715
90.4821
90.9564
90.871
90.7549
90.9419
90.7773
90.5947
90.522
89.7543
89.5417
88.7034
88.3682
86.3939
84.5207
83.2542
83.9584
86.6964
89.0622
89.3565
89.3644
89.2108
88.9369
88.4991
87.7763
87.0347
86.1002
84.4609
84.7845
86.0725
86.6958
87.1899
87.6209
87.6306
87.4962
87.689
87.5208
87.3408
87.2708
86.4987
86.2815
85.4486
85.1262
83.1437
81.246
79.9672
80.6741
83.4346
85.8134
85.6201
85.6447
85.6198
85.2764
84.8649
84.3046
83.4038
82.0008
80.093
80.2082
82.3712
83.4292
84.0086
84.433
84.4085
84.2573
84.4328
84.258
84.0873
84.0225
83.2442
83.0192
82.1945
81.8924
79.8976
77.9629
76.6662
77.378
80.1736
82.5724
82.085
82.1561
81.9242
81.5544
81.0363
80.1601
79.2104
77.7377
75.7008
76.255
78.7114
80.1352
80.9365
81.2514
81.203
81.0214
81.1721
80.9858
80.8385
80.7799
79.9913
79.755
78.9413
78.6672
76.6559
74.6713
73.351
74.0701
76.9132
79.3391
78.5803
78.5172
78.3429
77.9644
77.4416
76.7226
75.7456
74.1805
72.2526
72.7674
75.4622
77.3151
77.7094
77.9802
77.9692
77.7835
77.9021
77.6936
77.5986
77.544
76.7393
76.4885
75.689
75.4509
73.4192
71.3711
70.0212
70.7499
73.6534
76.1138
75.1528
75.0225
74.7766
74.4024
74.0611
73.4251
72.4129
70.8253
69.2018
69.6339
72.128
73.7642
74.4219
74.621
74.6806
74.5407
74.6245
74.4
74.3697
74.3116
73.4872
73.2192
72.4374
72.244
70.1879
68.0619
66.6763
67.4173
70.3944
72.8967
71.6643
71.5355
71.293
70.9696
70.5701
70.0132
69.2183
68.0171
66.4909
66.7595
68.7838
70.2353
71.0637
71.1796
71.3404
71.2661
71.3679
71.1561
71.1489
71.0812
70.2339
69.9464
69.186
69.0468
66.9629
64.7435
63.316
64.072
67.1361
69.6879
68.1935
68.0774
67.8638
67.6012
67.2825
66.8499
66.2374
65.33
64.1567
64.2774
65.6694
66.9435
67.7006
67.7747
68.0159
67.958
68.1357
67.9642
67.9294
67.8534
66.9795
66.6699
65.9349
65.8601
63.745
61.4152
59.9397
60.7136
63.8786
66.4877
64.7338
64.6582
64.5048
64.3071
64.0497
63.7022
63.2465
62.6461
61.9496
61.9731
62.8146
63.7626
64.384
64.4694
64.7255
64.6504
64.9049
64.7855
64.7083
64.633
63.7252
63.389
62.6837
62.6844
60.5353
58.0766
56.5467
57.3417
60.6219
63.2964
61.3505
61.3056
61.1856
61.033
60.8258
60.5416
60.2148
59.8252
59.4568
59.5606
60.0494
60.6138
61.1061
61.2196
61.442
61.3559
61.6632
61.5942
61.4825
61.4225
60.4724
60.1031
59.432
59.5206
57.335
54.7269
53.1362
53.9559
57.366
60.1142
57.9928
57.96
57.8763
57.7444
57.5673
57.3548
57.1693
56.9448
56.6971
56.7183
57.0924
57.4469
57.8286
57.9433
58.1585
58.0701
58.4427
58.384
58.2534
58.2225
57.2213
56.811
56.1792
56.3697
54.1457
51.3653
49.7076
50.5558
54.1112
56.9415
54.6764
54.6284
54.4967
54.347
54.237
54.1335
54.0895
54.0011
53.8135
53.8161
53.9998
54.2522
54.5625
54.6341
54.8927
54.8177
55.2427
55.1561
55.028
55.0304
53.9703
53.5111
52.9244
53.2324
50.9691
47.9909
46.2596
47.1407
50.8573
53.7787
51.283
51.1975
51.0992
50.9948
50.9342
50.9487
50.9835
50.9573
50.8253
50.8296
50.8927
51.0289
51.3073
51.3105
51.611
51.5525
52.0654
51.9319
51.7988
51.8469
50.7187
50.2018
49.6669
50.1099
47.8069
44.603
42.7911
43.7102
47.6046
50.6261
47.8389
47.81
47.8588
47.8993
47.8728
47.8756
47.8797
47.8312
47.7397
47.7549
47.7575
47.777
48.0211
47.9782
48.3398
48.3565
48.9124
48.7122
48.5893
48.6704
47.465
46.8811
46.4056
47.0032
44.661
41.2005
39.3007
40.2636
44.3529
47.4843
44.5031
44.4705
44.6175
44.6827
44.6251
44.6365
44.7217
44.6664
44.5928
44.5495
44.5594
44.4843
44.7136
44.6589
44.9832
45.1479
45.7774
45.4948
45.3435
45.5065
44.2143
43.5471
43.1394
43.9135
41.5335
37.7826
35.7869
36.8003
41.1025
44.3537
41.3312
41.3007
41.3152
41.1845
41.1221
41.2767
41.5275
41.5178
41.4892
41.4443
41.3748
41.2466
41.4147
41.2813
41.6098
41.8276
42.5933
42.2979
42.1621
42.3539
40.9476
40.1943
39.8691
40.8388
38.4265
34.3487
32.2479
33.3197
37.8534
41.2349
38.2855
38.214
38.0715
37.8125
37.7862
38.0132
38.3181
38.2382
38.1617
37.8706
38.0257
37.9811
38.1116
37.8526
38.1893
38.6547
39.5952
39.0744
38.8743
39.1956
37.6916
36.8369
36.5785
37.7877
35.342
30.898
28.6817
29.8209
34.6058
38.1285
35.0719
34.9828
34.8833
34.6216
34.5469
34.7326
34.8922
35.0028
35.5441
34.9689
34.6356
34.6969
34.7963
34.4325
34.7322
35.3033
36.3677
35.8529
35.7205
36.1205
34.4177
33.4164
33.3039
34.7573
32.2822
27.4301
25.086
26.3031
31.3595
35.0351
31.83
31.7962
31.7243
31.6496
31.5276
31.5166
31.5223
31.689
32.7821
32.0676
31.3466
31.3774
31.4947
31.0183
31.2129
31.979
33.3094
32.6351
32.4811
32.9144
31.1482
30.0365
29.9883
31.751
29.2492
23.9445
21.4584
22.7656
28.1147
31.9554
28.6468
28.6631
28.6387
28.6196
28.4859
28.2596
28.1564
28.8553
29.6133
29.1355
28.0753
28.086
28.1955
27.5577
27.6554
28.6924
30.3644
29.3934
29.2017
29.8699
27.8761
26.5489
26.6747
28.7693
26.2439
20.4415
17.7968
19.2077
24.8721
28.8907
25.4888
25.5007
25.5156
25.4961
25.3448
25.137
25.0413
26.2414
26.0313
25.5517
24.8275
25.197
24.9269
23.9894
24.0984
25.3812
27.4014
26.265
25.9238
26.7949
24.6141
23.0675
23.3518
25.8158
23.2699
16.9203
14.1004
15.6292
21.6328
25.8411
22.2499
22.2549
22.2439
22.2054
22.1456
22.0226
21.8309
22.03
22.3983
22.3154
21.4301
21.6318
21.6466
20.3339
20.4909
21.9212
24.3558
23.0848
22.7269
23.6642
21.3397
19.6044
20.0501
22.892
20.3129
13.3855
10.3715
12.032
18.3985
22.809
18.9929
18.9794
18.9554
18.8857
18.8855
18.8861
18.5508
18.5369
19.3123
19.3492
18.5447
18.2505
18.4514
17.193
16.5194
18.7631
21.2278
19.7711
19.5381
20.4837
18.0394
16.1695
16.6162
19.9631
17.3853
9.83411
6.62726
8.42143
15.1691
19.7954
15.7306
15.6997
15.6858
15.5986
15.6121
15.6985
15.1955
14.9906
15.9544
15.5406
14.4921
14.2546
15.1004
13.0232
12.2119
15.187
19.2516
16.6489
16.7483
17.7331
14.8529
14.2813
15.2658
17.0752
14.4479
6.29135
2.90178
4.80085
11.9532
16.801
12.4911
12.4393
12.4173
12.3101
12.2622
12.5058
11.79
11.5643
12.4772
11.7563
11.176
11.1429
11.9815
9.41791
7.76365
11.1081
16.8955
13.3918
13.4891
16.3328
12.4517
9.78783
11.5903
14.3132
11.7596
3.52039
-0.30943
1.26468
8.7493
13.8259
9.26587
9.23459
9.1711
9.12187
8.9108
9.03593
8.51729
8.40734
8.84119
8.70871
8.21613
7.7767
8.88086
5.82434
4.81928
7.40628
13.7932
10.3744
9.67491
12.3953
9.00417
6.82139
9.49843
10.9233
10.202
4.61537
-0.209577
-0.0899929
5.54281
10.859
6.05842
6.05016
5.97008
6.00046
5.82844
5.75976
5.57607
5.38116
5.49463
5.55752
5.49339
5.00699
5.46368
2.81188
1.80511
4.70217
10.9698
7.47929
6.7641
9.86142
6.18125
3.59427
6.25084
8.00705
7.77083
2.93746
-0.399338
0.357374
1.9023
7.89693
2.96179
2.95842
2.86816
2.90365
2.70211
2.50148
2.70553
2.40955
2.22547
2.24217
2.59009
1.79612
2.14247
-0.165584
-1.33721
2.32768
8.29367
5.52306
4.11718
6.8474
2.97811
0.233347
2.69453
4.64771
4.93787
1.07618
-0.0951404
0.0965636
-0.167576
4.73176
0.805908
0.771674
0.708314
0.423208
0.463924
0.313153
0.154425
0.476637
0.68363
0.31664
0.243166
0.0484582
0.159911
-0.0613828
-0.767809
1.18971
5.58507
2.60963
0.995818
3.92612
1.28994
-0.296325
0.507266
1.24334
1.06276
0.146653
-0.103863
-0.0485956
-0.00580119
1.54828
-0.0803754
-0.0756423
-0.0707834
-0.0891356
-0.118408
-0.0982927
-0.109312
-0.176997
0.593348
3.75601
3.42266
-0.569645
-0.210789
0.245484
0.0833329
-0.019721
-0.0511993
-0.0637813
-0.0665836
-0.0697416
-0.0814443
-0.0752369
-0.0823438
-0.082321
-0.080386
-0.0804676
-0.0799711
-0.0794483
-0.0802635
-0.0799833
-0.0795974
-0.0785961
-0.0741459
-0.0915499
-0.119419
-0.106014
-0.110628
-0.109158
0.105365
1.25837
1.47321
-0.0149234
-0.0483453
0.388196
0.0860897
-0.019662
-0.0517672
-0.0398851
-0.0828755
-0.0766232
-0.0818965
-0.0827203
-0.0823849
-0.0835031
-0.0832348
-0.0828146
-0.0828373
-0.082769
-0.0826869
-0.082436
-0.0831648
-0.0815867
-0.0778407
-0.0940292
-0.120848
-0.107888
-0.112221
-0.111509
-0.103556
-0.0983708
-0.108425
-0.044778
0.0164569
0.209614
0.070989
-0.0161258
-0.0527219
-0.0692389
-0.0718514
-0.0785836
-0.083563
-0.0840382
-0.0847765
-0.0853
-0.0851245
-0.0847597
-0.0846668
-0.0844998
-0.0843
-0.0840227
-0.0851166
-0.0842804
-0.0818483
-0.0966295
-0.122531
-0.109814
-0.113929
-0.113402
-0.104373
-0.107784
-0.10659
-0.0621848
-0.123385
-0.373831
-0.0593264
-0.0133791
-0.0565334
-0.0707942
-0.0750806
-0.0814505
-0.0854768
-0.0861658
-0.0865616
-0.0874367
-0.0871636
-0.086829
-0.0866164
-0.0863589
-0.0861044
-0.0857951
-0.0899879
-0.0874205
-0.0861065
-0.0994362
-0.124431
-0.111814
-0.115699
-0.115307
-0.106718
-0.110374
-0.110711
-0.0679324
-0.13736
-0.3515
-0.0911878
-0.0456539
-0.0621739
-0.0739155
-0.0783976
-0.0841135
-0.0876545
-0.0877496
-0.0888105
-0.0896204
-0.0894239
-0.0890955
-0.0888117
-0.0884862
-0.088183
-0.0878913
-0.0928761
-0.0904864
-0.0904656
-0.102516
-0.126445
-0.113884
-0.117458
-0.117243
-0.108472
-0.113212
-0.114094
-0.076035
-0.149044
-0.314799
-0.159167
-0.0677814
-0.0692718
-0.0778849
-0.0818804
-0.086943
-0.0899764
-0.0906035
-0.0913407
-0.0919697
-0.0918626
-0.0915604
-0.0912324
-0.0908408
-0.0904567
-0.0902576
-0.0959632
-0.0938073
-0.0947174
-0.105825
-0.128405
-0.116024
-0.119133
-0.119187
-0.110852
-0.115843
-0.117587
-0.0851565
-0.155469
-0.278915
-0.156382
-0.0837638
-0.0774419
-0.0813419
-0.0846406
-0.0899316
-0.0924684
-0.0932758
-0.0939419
-0.0945113
-0.094479
-0.0942405
-0.0939046
-0.0934205
-0.0927419
-0.0922641
-0.0992575
-0.0973711
-0.0987437
-0.109316
-0.130135
-0.118295
-0.120857
-0.121184
-0.113518
-0.11876
-0.121495
-0.0949289
-0.157747
-0.246458
-0.152998
-0.0983391
-0.0859043
-0.0864177
-0.0885752
-0.0929244
-0.095076
-0.0960497
-0.0967151
-0.0972478
-0.0973002
-0.0971742
-0.0966288
-0.0956863
-0.095447
-0.0953495
-0.102797
-0.101174
-0.102635
-0.112962
-0.13189
-0.120778
-0.122558
-0.12341
-0.116627
-0.122017
-0.125924
-0.10491
-0.157741
-0.219414
-0.151459
-0.111009
-0.0932
-0.090512
-0.0927475
-0.095927
-0.0978758
-0.0989547
-0.0996584
-0.100197
-0.100355
-0.100397
-0.0993184
-0.0987114
-0.0997766
-0.0995421
-0.10661
-0.105229
-0.106593
-0.116747
-0.13381
-0.123628
-0.124412
-0.126084
-0.121133
-0.125448
-0.130981
-0.114641
-0.156809
-0.19856
-0.150778
-0.107277
-0.0950318
-0.0932926
-0.0967616
-0.0993541
-0.100825
-0.102007
-0.102798
-0.103395
-0.103696
-0.103733
-0.103855
-0.103868
-0.103596
-0.103303
-0.110724
-0.109557
-0.110778
-0.120625
-0.135993
-0.127012
-0.126672
-0.129473
-0.126747
-0.12991
-0.136754
-0.122955
-0.155874
-0.183833
-0.151216
-0.110208
-0.101719
-0.0901507
-0.101215
-0.102857
-0.103907
-0.105197
-0.106094
-0.106826
-0.107269
-0.107577
-0.107689
-0.107683
-0.107641
-0.107604
-0.115164
-0.114177
-0.115267
-0.124569
-0.138499
-0.131012
-0.129563
-0.133821
-0.133664
-0.135625
-0.143301
-0.132394
-0.155586
-0.174309
-0.152127
-0.135587
-0.116286
-0.0997738
-0.10545
-0.106389
-0.107421
-0.108822
-0.109883
-0.110741
-0.111404
-0.111745
-0.111994
-0.112225
-0.112259
-0.112248
-0.119957
-0.119104
-0.120099
-0.128711
-0.141294
-0.135445
-0.133168
-0.139212
-0.141454
-0.141409
-0.149544
-0.140176
-0.155663
-0.168894
-0.154954
-0.140717
-0.119821
-0.107716
-0.108726
-0.109935
-0.111246
-0.11281
-0.114091
-0.115156
-0.115948
-0.116487
-0.116869
-0.117115
-0.117257
-0.117332
-0.125126
-0.124366
-0.125298
-0.133157
-0.144429
-0.139897
-0.137356
-0.145189
-0.148714
-0.147362
-0.154992
-0.146998
-0.156568
-0.166503
-0.15928
-0.148036
-0.130215
-0.110199
-0.114872
-0.113959
-0.115711
-0.117388
-0.118839
-0.120061
-0.121017
-0.121658
-0.12214
-0.12248
-0.122691
-0.12281
-0.1307
-0.129996
-0.130885
-0.13799
-0.147982
-0.144292
-0.14221
-0.151424
-0.154422
-0.153347
-0.159569
-0.153631
-0.159727
-0.165918
-0.162814
-0.154506
-0.139692
-0.1138
-0.118052
-0.119163
-0.121262
-0.122781
-0.124269
-0.125585
-0.12664
-0.127446
-0.12798
-0.128339
-0.128548
-0.12867
-0.136702
-0.136023
-0.136887
-0.143265
-0.152035
-0.148993
-0.147781
-0.157873
-0.158717
-0.159319
-0.163366
-0.159696
-0.163059
-0.167315
-0.164806
-0.156872
-0.148538
-0.130539
-0.122833
-0.125733
-0.127997
-0.129158
-0.130431
-0.131772
-0.13288
-0.133732
-0.134319
-0.134677
-0.134858
-0.134922
-0.14316
-0.142479
-0.143332
-0.149018
-0.156641
-0.15425
-0.153932
-0.164556
-0.163709
-0.165516
-0.166964
-0.165332
-0.167208
-0.16975
-0.167573
-0.16052
-0.152732
-0.14759
-0.125798
-0.119168
-0.135983
-0.13664
-0.137176
-0.138354
-0.139487
-0.140442
-0.141128
-0.141581
-0.141656
-0.141621
-0.1501
-0.149398
-0.150246
-0.155276
-0.161837
-0.16011
-0.160306
-0.170915
-0.1703
-0.172035
-0.171412
-0.170735
-0.172163
-0.173702
-0.171519
-0.164858
-0.157724
-0.153489
-0.136867
-0.127197
-0.144423
-0.145101
-0.144253
-0.145511
-0.14632
-0.146379
-0.14701
-0.147531
-0.148222
-0.148033
-0.157551
-0.156818
-0.157659
-0.162073
-0.167667
-0.166562
-0.167039
-0.176375
-0.178205
-0.178788
-0.176871
-0.176838
-0.178747
-0.179331
-0.177563
-0.17193
-0.166745
-0.165861
-0.167012
-0.165832
-0.148785
-0.15346
-0.151261
-0.152425
-0.154001
-0.154434
-0.154972
-0.155143
-0.155116
-0.155817
-0.165544
-0.164778
-0.165606
-0.169444
-0.174157
-0.173635
-0.174309
-0.181486
-0.186627
-0.184908
-0.182699
-0.184472
-0.186425
-0.186859
-0.185757
-0.180814
-0.176192
-0.174473
-0.174722
-0.174508
-0.17272
-0.143131
-0.155527
-0.160089
-0.16106
-0.161707
-0.162076
-0.16257
-0.164596
-0.142455
-0.174116
-0.17332
-0.174126
-0.177428
-0.18136
-0.181333
-0.182157
-0.187407
-0.194078
-0.189723
-0.187625
-0.190869
-0.194496
-0.196464
-0.195846
-0.190814
-0.185736
-0.18276
-0.181408
-0.18035
-0.178803
-0.176441
-0.162438
-0.171755
-0.169668
-0.169962
-0.169955
-0.164566
-0.161191
-0.159507
-0.183305
-0.182488
-0.183265
-0.18607
-0.189318
-0.18968
-0.190575
-0.194329
-0.199763
-0.194413
-0.19176
-0.196669
-0.203507
-0.207495
-0.206919
-0.201192
-0.195201
-0.191011
-0.188348
-0.186432
-0.184785
-0.182831
-0.181368
-0.181909
-0.180314
-0.180409
-0.179895
-0.174411
-0.172457
-0.171394
-0.193154
-0.192333
-0.193072
-0.195415
-0.198072
-0.198709
-0.199591
-0.20225
-0.205428
-0.200978
-0.197912
-0.203816
-0.213771
-0.219426
-0.218656
-0.211637
-0.204737
-0.199806
-0.196627
-0.19468
-0.193115
-0.192832
-0.192653
-0.192648
-0.192638
-0.193238
-0.19403
-0.194929
-0.171466
-0.178677
-0.203713
-0.202916
-0.203599
-0.205518
-0.207665
-0.208467
-0.209282
-0.211203
-0.21287
-0.209932
-0.207382
-0.213149
-0.223809
-0.229482
-0.228113
-0.221051
-0.214484
-0.209743
-0.206689
-0.204818
-0.20401
-0.203656
-0.203397
-0.203171
-0.202918
-0.202776
-0.202713
-0.202763
-0.202742
-0.202531
-0.215039
-0.214298
-0.214903
-0.216439
-0.218149
-0.219015
-0.219729
-0.221169
-0.222111
-0.220549
-0.218933
-0.223076
-0.231997
-0.234985
-0.233477
-0.228384
-0.22367
-0.22002
-0.217664
-0.216302
-0.215511
-0.215004
-0.214597
-0.214213
-0.213845
-0.213525
-0.213265
-0.213052
-0.212857
-0.212584
-0.227198
-0.226548
-0.227051
-0.228246
-0.229576
-0.230421
-0.231012
-0.232083
-0.232572
-0.231889
-0.231112
-0.23359
-0.237386
-0.23978
-0.238698
-0.235893
-0.233203
-0.230899
-0.229335
-0.228304
-0.227608
-0.227089
-0.226658
-0.226269
-0.225907
-0.225514
-0.225199
-0.224909
-0.224593
-0.224282
-0.240268
-0.239726
-0.240131
-0.241012
-0.24201
-0.242757
-0.243216
-0.243987
-0.244225
-0.243998
-0.24371
-0.245017
-0.247454
-0.248344
-0.247299
-0.245668
-0.244194
-0.242829
-0.241813
-0.241061
-0.240511
-0.240089
-0.239749
-0.239461
-0.23921
-0.238884
-0.238687
-0.238579
-0.2384
-0.238277
-0.254337
-0.253918
-0.254224
-0.254817
-0.255517
-0.256102
-0.256411
-0.256967
-0.257046
-0.257007
-0.256889
-0.257538
-0.258925
-0.259443
-0.258679
-0.257721
-0.256851
-0.256025
-0.255355
-0.254818
-0.254399
-0.25405
-0.253733
-0.25342
-0.253096
-0.252726
-0.25238
-0.251954
-0.251633
-0.251326
-0.269505
-0.269218
-0.269425
-0.269749
-0.27017
-0.270548
-0.270722
-0.27106
-0.271084
-0.271079
-0.271035
-0.271328
-0.271944
-0.272222
-0.271783
-0.271316
-0.270852
-0.270385
-0.269954
-0.269557
-0.269189
-0.268838
-0.268486
-0.268138
-0.267799
-0.267484
-0.267243
-0.267108
-0.266966
-0.267077
-0.285888
-0.285738
-0.285843
-0.285909
-0.286053
-0.28619
-0.286228
-0.28634
-0.286275
-0.286304
-0.286303
-0.286396
-0.28659
-0.286685
-0.286536
-0.286416
-0.286296
-0.286174
-0.286054
-0.285934
-0.285814
-0.285699
-0.285595
-0.285516
-0.28548
-0.285512
-0.285631
-0.28574
-0.286024
-0.286427
-0.0790584
-0.079185
-0.0774098
-0.0771958
-0.0782267
-0.0754425
-0.0754716
-0.0794609
-0.0815095
-0.0844419
-0.0909889
-0.0938286
-0.102475
-0.101343
-0.0859321
-0.0909006
0.696453
0.0746465
-0.0691095
0.888641
-0.0203584
-0.104482
-0.104007
-0.0720694
-0.0778581
-0.122913
-0.109095
-0.0594286
-0.084686
-0.0763678
-0.0820431
-0.081601
-0.0808812
-0.0804545
-0.0800017
-0.0793879
-0.0794295
-0.0803517
-0.0831679
-0.0869068
-0.0916459
-0.095722
-0.101335
-0.101337
-0.0912909
-0.0942212
-0.0998144
-0.0997289
-0.106057
-0.0768946
-0.111129
-0.106659
-0.109408
-0.108486
-0.093488
-0.121868
-0.111087
-0.0628021
-0.0870317
-0.0756006
-0.0836565
-0.0832418
-0.0826398
-0.0821573
-0.0819249
-0.0814261
-0.0814816
-0.0827077
-0.0851442
-0.0887583
-0.0937218
-0.0979604
-0.103206
-0.103219
-0.0938226
-0.0951795
-0.0994187
-0.100884
-0.107792
-0.107458
-0.109682
-0.108604
-0.111249
-0.11006
-0.0951311
-0.122911
-0.11271
-0.0657754
-0.0897979
-0.0785558
-0.0854257
-0.085072
-0.0845117
-0.084144
-0.0840277
-0.0835659
-0.0836441
-0.0850027
-0.0873005
-0.0908358
-0.0959728
-0.100467
-0.105432
-0.105471
-0.0962954
-0.0970657
-0.101483
-0.103357
-0.110079
-0.10939
-0.111986
-0.110536
-0.11306
-0.11184
-0.0970959
-0.123641
-0.114103
-0.0689027
-0.0921402
-0.0805325
-0.0875492
-0.0872647
-0.0871344
-0.0867393
-0.0863792
-0.0859509
-0.0861845
-0.0874608
-0.0897074
-0.0932289
-0.0985079
-0.103352
-0.108026
-0.108079
-0.0994643
-0.098964
-0.103315
-0.105646
-0.112464
-0.111583
-0.114137
-0.112512
-0.114895
-0.113654
-0.0993531
-0.124218
-0.115404
-0.0724517
-0.0944428
-0.0852113
-0.0895092
-0.0886963
-0.0878957
-0.0889773
-0.0888968
-0.0886499
-0.088926
-0.090189
-0.0924617
-0.0960389
-0.101474
-0.106675
-0.111121
-0.1111
-0.102605
-0.100933
-0.105186
-0.10826
-0.11515
-0.11433
-0.116319
-0.114587
-0.116778
-0.115429
-0.101886
-0.12527
-0.116818
-0.076511
-0.096904
-0.0881813
-0.0918851
-0.0913214
-0.0921533
-0.0921999
-0.091789
-0.0916047
-0.0919696
-0.0932656
-0.0956365
-0.0993255
-0.10481
-0.110268
-0.114517
-0.114506
-0.105799
-0.103102
-0.107211
-0.110912
-0.117933
-0.116976
-0.118738
-0.116843
-0.118653
-0.11721
-0.104629
-0.126907
-0.118506
-0.0812373
-0.0997745
-0.0913687
-0.0958653
-0.0957349
-0.0954721
-0.0952189
-0.0949612
-0.0949002
-0.0953631
-0.0967284
-0.0992409
-0.103063
-0.108574
-0.11415
-0.118098
-0.118124
-0.109062
-0.105492
-0.109487
-0.11385
-0.120922
-0.11988
-0.12159
-0.119385
-0.120646
-0.119044
-0.107549
-0.129009
-0.120525
-0.0861825
-0.103043
-0.0947841
-0.0992949
-0.0990696
-0.0988489
-0.0986848
-0.0985319
-0.0985863
-0.099142
-0.100574
-0.103191
-0.106741
-0.112797
-0.118492
-0.122459
-0.121753
-0.112467
-0.108284
-0.111932
-0.117183
-0.124089
-0.123061
-0.125011
-0.122366
-0.123049
-0.121015
-0.110666
-0.131363
-0.122823
-0.0911009
-0.106612
-0.0984713
-0.103115
-0.102979
-0.102812
-0.102642
-0.102568
-0.102705
-0.10332
-0.104779
-0.107481
-0.111199
-0.117138
-0.122774
-0.126314
-0.12522
-0.116067
-0.111542
-0.114972
-0.120761
-0.127394
-0.126545
-0.129162
-0.125883
-0.125943
-0.123266
-0.114097
-0.133838
-0.125386
-0.0958981
-0.110432
-0.102453
-0.107484
-0.107341
-0.107187
-0.107083
-0.107059
-0.107259
-0.107882
-0.109301
-0.11185
-0.115836
-0.121339
-0.126806
-0.129912
-0.128493
-0.119865
-0.115325
-0.118473
-0.124872
-0.130837
-0.130347
-0.134164
-0.129946
-0.129485
-0.12602
-0.117978
-0.136441
-0.1281
-0.100896
-0.114499
-0.106756
-0.112212
-0.112155
-0.112088
-0.112014
-0.112015
-0.112201
-0.112784
-0.11407
-0.116502
-0.120258
-0.125162
-0.130335
-0.133059
-0.131559
-0.123916
-0.119733
-0.122859
-0.129116
-0.134408
-0.134509
-0.13999
-0.134474
-0.133609
-0.129414
-0.122316
-0.139243
-0.131105
-0.106176
-0.118829
-0.111409
-0.117367
-0.117373
-0.117342
-0.117315
-0.117317
-0.117463
-0.117944
-0.118975
-0.121078
-0.124038
-0.128521
-0.13325
-0.135761
-0.13453
-0.128425
-0.124948
-0.127772
-0.133405
-0.13798
-0.139072
-0.146323
-0.139408
-0.137885
-0.133423
-0.126934
-0.142305
-0.13438
-0.111821
-0.123432
-0.116437
-0.122883
-0.122914
-0.122926
-0.122896
-0.122869
-0.122931
-0.123236
-0.123968
-0.125624
-0.128083
-0.131553
-0.135688
-0.138299
-0.137728
-0.133616
-0.130861
-0.13295
-0.137519
-0.141461
-0.14407
-0.152495
-0.144623
-0.142026
-0.13784
-0.131737
-0.14572
-0.137924
-0.117856
-0.128333
-0.121866
-0.128727
-0.128742
-0.128754
-0.128694
-0.128625
-0.128604
-0.128743
-0.12915
-0.130219
-0.132114
-0.134692
-0.137867
-0.141046
-0.141629
-0.139443
-0.137356
-0.138065
-0.141341
-0.144882
-0.149599
-0.15806
-0.150151
-0.146279
-0.142588
-0.136801
-0.149511
-0.141856
-0.124285
-0.133568
-0.127721
-0.134926
-0.134891
-0.134867
-0.134804
-0.134694
-0.134566
-0.134509
-0.134665
-0.135281
-0.136607
-0.138758
-0.141629
-0.144649
-0.146502
-0.14589
-0.144023
-0.143088
-0.144982
-0.148443
-0.155897
-0.163461
-0.156175
-0.151254
-0.147776
-0.142274
-0.153746
-0.146258
-0.131124
-0.139171
-0.134024
-0.141621
-0.141593
-0.141465
-0.141256
-0.141025
-0.14081
-0.140662
-0.140679
-0.14103
-0.141938
-0.143654
-0.146303
-0.149587
-0.152255
-0.152538
-0.150495
-0.148175
-0.148824
-0.152357
-0.163103
-0.170041
-0.162732
-0.156912
-0.153469
-0.148232
-0.158467
-0.151192
-0.138389
-0.145183
-0.140794
-0.147793
-0.147821
-0.147671
-0.147581
-0.147472
-0.147356
-0.147266
-0.147288
-0.147577
-0.148325
-0.149782
-0.152196
-0.155434
-0.158428
-0.158972
-0.156693
-0.153659
-0.153463
-0.156829
-0.170736
-0.177948
-0.169173
-0.162751
-0.159634
-0.1547
-0.163714
-0.156704
-0.146098
-0.151649
-0.148053
-0.15593
-0.154896
-0.155125
-0.155699
-0.155254
-0.15485
-0.154609
-0.154568
-0.154849
-0.155579
-0.156904
-0.159008
-0.161793
-0.16447
-0.16495
-0.162759
-0.159869
-0.159481
-0.162173
-0.17732
-0.184723
-0.17495
-0.168792
-0.166265
-0.161692
-0.169525
-0.162843
-0.154263
-0.158616