/*--------------------------------*- C++ -*----------------------------------*\
| =========                 |                                                 |
| \\      /  F ield         | OpenFOAM: The Open Source CFD Toolbox           |
|  \\    /   O peration     | Version:  2.4.0                                 |
|   \\  /    A nd           | Web:      www.OpenFOAM.org                      |
|    \\/     M anipulation  |                                                 |
\*---------------------------------------------------------------------------*/
FoamFile
{
    version     2.0;
    format      ascii;
    class       surfaceScalarField;
    location    "0.19";
    object      phiAlpha;
}
// * * * * * * * * * * * * * * * * * * * * * * * * * * * * * * * * * * * * * //

dimensions      [0 3 -1 0 0 0 0];

internalField   nonuniform List<scalar> 
7080
(
3.99947e-08
-3.99947e-08
7.30607e-08
-3.3066e-08
8.78753e-08
-1.48146e-08
8.25026e-08
5.37271e-09
6.59469e-08
1.65557e-08
4.13354e-08
2.46115e-08
2.21385e-08
1.91968e-08
5.44721e-09
1.66914e-08
-7.15242e-09
1.25996e-08
-1.17015e-08
4.54908e-09
-1.03515e-08
-1.34996e-09
-2.07467e-08
1.03952e-08
-2.48758e-08
4.1291e-09
-3.10184e-08
6.14255e-09
-3.45675e-08
3.54921e-09
-1.3472e-08
-2.10956e-08
2.31395e-08
-3.65797e-08
3.3697e-08
-1.05577e-08
2.63012e-08
7.39561e-09
-2.32063e-08
4.96091e-08
-1.23687e-07
1.01833e-07
-1.91614e-07
6.79274e-08
-1.96017e-07
4.40284e-09
-2.06823e-07
1.0806e-08
-1.7463e-07
-3.28143e-08
-1.22265e-07
-5.32655e-08
-8.50747e-08
-3.73995e-08
-5.56143e-08
-2.97029e-08
-2.80172e-08
-2.78149e-08
-2.37381e-08
-4.4756e-09
4.20395e-08
-8.20342e-08
8.97143e-08
-8.07408e-08
1.2229e-07
-4.73901e-08
1.29733e-07
-2.07015e-09
1.22761e-07
2.35277e-08
1.03491e-07
4.38816e-08
8.52805e-08
3.7407e-08
6.65729e-08
3.5399e-08
4.66378e-08
3.25347e-08
3.76176e-08
1.35693e-08
3.48526e-08
1.41493e-09
1.42351e-08
3.10127e-08
6.96749e-09
1.13967e-08
-2.0072e-08
3.31821e-08
-2.97793e-08
1.32565e-08
-2.29161e-08
-2.79548e-08
-9.50961e-09
-4.99506e-08
2.51066e-10
-2.03247e-08
-5.44235e-08
6.21837e-08
-1.75261e-07
1.70758e-07
-2.8677e-07
2.14291e-07
-2.95544e-07
7.71433e-08
-2.70276e-07
-2.10764e-08
-2.43412e-07
-1.62508e-08
-1.8645e-07
-8.97674e-08
-1.34851e-07
-1.04851e-07
-8.92324e-08
-8.30051e-08
-5.94752e-08
-5.9449e-08
-3.16602e-08
-5.56476e-08
-5.23071e-08
-3.09314e-09
3.73434e-08
-1.19378e-07
8.60583e-08
-1.29456e-07
1.22284e-07
-8.36162e-08
1.33379e-07
-1.3165e-08
1.30579e-07
2.63283e-08
1.1643e-07
5.80302e-08
1.02106e-07
5.17311e-08
8.90525e-08
4.84525e-08
6.94841e-08
5.2103e-08
6.45347e-08
1.85188e-08
6.43747e-08
1.57491e-09
4.42233e-08
5.11641e-08
4.69906e-08
8.62937e-09
1.72808e-08
6.28919e-08
5.41733e-09
2.512e-08
2.16975e-10
-2.27547e-08
-2.69104e-08
-2.28923e-08
-5.14628e-08
4.10657e-09
-1.38068e-07
1.48787e-07
-2.56266e-07
2.88993e-07
-3.14867e-07
2.72939e-07
-2.85751e-07
4.81069e-08
-2.50419e-07
-5.64841e-08
-2.03917e-07
-6.27168e-08
-1.52217e-07
-1.41485e-07
-1.14056e-07
-1.43086e-07
-7.73276e-08
-1.19752e-07
-4.90285e-08
-8.77394e-08
-2.90815e-08
-7.55928e-08
-7.35791e-08
-7.80783e-09
3.54997e-08
-1.54877e-07
8.42468e-08
-1.78203e-07
1.20967e-07
-1.20336e-07
1.32522e-07
-2.47207e-08
1.30319e-07
2.85318e-08
1.173e-07
7.10495e-08
1.04165e-07
6.48655e-08
9.38228e-08
5.87949e-08
7.35674e-08
7.23584e-08
7.3216e-08
1.88702e-08
7.138e-08
3.41083e-09
5.75584e-08
6.49857e-08
7.57225e-08
-9.53467e-09
4.92409e-08
8.93735e-08
3.44123e-08
3.99486e-08
2.01778e-08
-8.52036e-09
-3.61284e-08
3.3415e-08
-8.67617e-08
5.47305e-08
-1.7198e-07
2.33902e-07
-2.51487e-07
3.68535e-07
-2.71921e-07
2.93244e-07
-2.57486e-07
3.35716e-08
-2.17411e-07
-9.66515e-08
-1.52754e-07
-1.27458e-07
-1.20837e-07
-1.73487e-07
-9.70782e-08
-1.67154e-07
-6.84958e-08
-1.48352e-07
-3.8842e-08
-1.17424e-07
-2.47386e-08
-8.96882e-08
-8.50934e-08
-1.32064e-08
3.50328e-08
-1.8991e-07
8.40456e-08
-2.27216e-07
1.21023e-07
-1.57313e-07
1.32657e-07
-3.63552e-08
1.30271e-07
3.0918e-08
1.17101e-07
8.422e-08
1.04203e-07
7.77636e-08
9.45177e-08
6.84797e-08
7.26027e-08
9.42735e-08
7.56841e-08
1.57888e-08
6.5785e-08
1.33098e-08
6.22294e-08
6.85413e-08
9.50265e-08
-4.23318e-08
7.08221e-08
1.13578e-07
5.98023e-08
5.09684e-08
4.12274e-08
1.00544e-08
-3.79586e-08
1.12601e-07
-1.10191e-07
1.26961e-07
-1.69219e-07
2.92824e-07
-1.95202e-07
3.94187e-07
-1.80863e-07
2.78877e-07
-1.51025e-07
3.40169e-09
-1.022e-07
-1.45723e-07
-4.20912e-08
-1.87656e-07
-1.00486e-08
-2.05512e-07
-4.51501e-10
-1.76733e-07
-1.19125e-08
-1.36935e-07
-1.65828e-08
-1.12791e-07
-1.52467e-08
-9.10179e-08
-8.01607e-08
-2.01637e-08
3.48966e-08
-2.24807e-07
8.42525e-08
-2.76572e-07
1.21565e-07
-1.94626e-07
1.33321e-07
-4.81114e-08
1.30645e-07
3.35944e-08
1.17071e-07
9.7794e-08
1.04408e-07
9.04266e-08
9.45639e-08
7.83241e-08
7.13348e-08
1.17503e-07
7.62915e-08
1.08322e-08
5.71758e-08
3.24255e-08
6.28849e-08
6.28323e-08
9.91556e-08
-7.86026e-08
8.14106e-08
1.31323e-07
8.34882e-08
4.88908e-08
6.89623e-08
2.45804e-08
-1.13412e-08
1.92905e-07
-8.42886e-08
1.99909e-07
-1.12558e-07
3.20901e-07
-1.16529e-07
3.98127e-07
-1.05246e-07
2.67568e-07
-7.24445e-08
-2.95551e-08
-2.55204e-08
-1.92611e-07
2.83294e-08
-2.41484e-07
5.1095e-08
-2.28238e-07
5.64912e-08
-1.82092e-07
3.91195e-08
-1.19671e-07
1.15991e-08
-8.5361e-08
-4.60736e-09
-7.48338e-08
-6.7405e-08
-1.74118e-08
3.48006e-08
-2.59607e-07
8.45501e-08
-3.26321e-07
1.22281e-07
-2.32357e-07
1.34204e-07
-6.00344e-08
1.31188e-07
3.66102e-08
1.17111e-07
1.11871e-07
1.0488e-07
1.02657e-07
9.44478e-08
8.87566e-08
7.08212e-08
1.41129e-07
7.67411e-08
4.91228e-09
5.39994e-08
5.51672e-08
6.1382e-08
5.54497e-08
7.60502e-08
-9.32708e-08
7.3179e-08
1.34194e-07
9.99091e-08
2.21607e-08
9.15947e-08
3.28948e-08
2.74884e-08
2.57011e-07
-4.32124e-08
2.70609e-07
-5.22e-08
3.30484e-07
-3.16947e-08
3.77592e-07
-9.3595e-09
2.45206e-07
2.47341e-08
-6.36278e-08
5.0034e-08
-2.1784e-07
6.64527e-08
-2.57954e-07
6.97804e-08
-2.31612e-07
6.90341e-08
-1.81388e-07
6.55623e-08
-1.16169e-07
4.59191e-08
-6.57183e-08
1.60761e-08
-4.49914e-08
-4.12034e-08
-1.01365e-08
3.46845e-08
-2.94292e-07
8.48893e-08
-3.76526e-07
1.23122e-07
-2.70589e-07
1.35251e-07
-7.21636e-08
1.31832e-07
4.00296e-08
1.17157e-07
1.26545e-07
1.05567e-07
1.14247e-07
9.41457e-08
1.00178e-07
7.12029e-08
1.64072e-07
7.77266e-08
-1.61144e-09
5.8744e-08
7.41498e-08
6.02813e-08
5.39124e-08
3.85172e-08
-7.15067e-08
4.79071e-08
1.24804e-07
9.31538e-08
-2.3086e-08
8.54868e-08
4.05617e-08
5.36565e-08
2.88841e-07
-4.14622e-09
3.28412e-07
-1.83921e-08
3.4515e-07
2.12616e-08
3.38851e-07
7.88356e-08
1.88135e-07
1.12031e-07
-9.67675e-08
1.21441e-07
-2.27306e-07
1.14159e-07
-2.50723e-07
9.84213e-08
-2.1597e-07
7.9187e-08
-1.62246e-07
6.64231e-08
-1.03415e-07
4.95812e-08
-4.88769e-08
2.57163e-08
-2.1127e-08
-1.88229e-08
3.33951e-09
3.45355e-08
-3.28827e-07
8.52633e-08
-4.27254e-07
1.24085e-07
-3.09411e-07
1.36462e-07
-8.45408e-08
1.32561e-07
4.39306e-08
1.17208e-07
1.41898e-07
1.06423e-07
1.25033e-07
9.35763e-08
1.13024e-07
7.24165e-08
1.85232e-07
7.79889e-08
-7.18382e-09
6.8335e-08
8.38037e-08
6.64454e-08
5.5802e-08
2.18356e-08
-2.6897e-08
2.46559e-08
1.21984e-07
5.6829e-08
-5.52591e-08
5.80199e-08
3.93709e-08
6.16225e-08
2.85239e-07
4.26389e-08
3.47396e-07
4.6878e-08
3.40911e-07
9.03078e-08
2.95849e-07
1.51203e-07
1.27588e-07
1.73626e-07
-1.19261e-07
1.58645e-07
-2.12381e-07
1.32424e-07
-2.24567e-07
1.09134e-07
-1.9268e-07
8.48053e-08
-1.37917e-07
6.46706e-08
-8.32824e-08
4.54257e-08
-2.96325e-08
2.59688e-08
-1.67042e-09
-9.36904e-10
8.08039e-09
3.43489e-08
-3.63176e-07
8.56696e-08
-4.78575e-07
1.2517e-07
-3.48911e-07
1.37844e-07
-9.72146e-08
1.33368e-07
4.84065e-08
1.17283e-07
1.57984e-07
1.07355e-07
1.3496e-07
9.28851e-08
1.27494e-07
7.34803e-08
2.04636e-07
7.56699e-08
-9.3734e-09
7.77701e-08
8.17034e-08
7.56643e-08
5.79078e-08
2.57195e-08
2.30478e-08
1.92944e-08
1.28409e-07
3.2783e-08
-6.87477e-08
5.12728e-08
2.0881e-08
7.29566e-08
2.63555e-07
7.56256e-08
3.44727e-07
1.17091e-07
2.99445e-07
1.68741e-07
2.442e-07
2.10423e-07
8.57852e-08
1.94577e-07
-1.03481e-07
1.60084e-07
-1.78007e-07
1.28126e-07
-1.92625e-07
1.01992e-07
-1.66546e-07
7.72749e-08
-1.132e-07
5.38247e-08
-5.98333e-08
3.51923e-08
-1.10006e-08
1.98147e-08
1.37065e-08
1.22607e-08
6.6147e-09
3.41211e-08
-3.97297e-07
8.61056e-08
-5.30559e-07
1.26377e-07
-3.89182e-07
1.39403e-07
-1.10241e-07
1.3425e-07
5.35595e-08
1.17382e-07
1.74852e-07
1.08329e-07
1.44013e-07
9.23321e-08
1.43491e-07
7.33249e-08
2.23644e-07
7.1535e-08
-7.58348e-09
8.44893e-08
6.87491e-08
7.85658e-08
6.38313e-08
3.58567e-08
6.5757e-08
3.21508e-08
1.32115e-07
3.80084e-08
-7.46053e-08
6.2106e-08
-3.21669e-09
8.6382e-08
2.39279e-07
9.35123e-08
3.37596e-07
1.40564e-07
2.52394e-07
1.96535e-07
1.88229e-07
2.12513e-07
6.9718e-08
1.70929e-07
-6.19345e-08
1.48258e-07
-1.55335e-07
1.29502e-07
-1.73869e-07
1.06503e-07
-1.43547e-07
7.82651e-08
-8.49648e-08
4.86755e-08
-3.02461e-08
2.76219e-08
1.00533e-08
1.57723e-08
2.55553e-08
1.91846e-08
8.85082e-09
3.38485e-08
-4.31146e-07
8.65682e-08
-5.83279e-07
1.27702e-07
-4.30316e-07
1.41146e-07
-1.23685e-07
1.35202e-07
5.95037e-08
1.17493e-07
1.92561e-07
1.09395e-07
1.5211e-07
9.20435e-08
1.60843e-07
7.16581e-08
2.44029e-07
6.89418e-08
-4.8672e-09
8.85569e-08
4.9134e-08
7.30815e-08
7.93067e-08
4.50038e-08
9.38348e-08
5.14297e-08
1.25689e-07
6.03279e-08
-8.35035e-08
7.46503e-08
-1.75392e-08
9.10131e-08
2.22916e-07
1.08054e-07
3.20555e-07
1.35566e-07
2.24882e-07
1.74603e-07
1.4919e-07
1.83323e-07
6.10048e-08
1.64611e-07
-4.32225e-08
1.56345e-07
-1.47068e-07
1.3911e-07
-1.56634e-07
1.13862e-07
-1.18299e-07
7.76396e-08
-4.8744e-08
4.03409e-08
7.05055e-09
2.27143e-08
2.76808e-08
1.50593e-08
3.32094e-08
2.33285e-08
1.09175e-08
3.35266e-08
-4.64672e-07
8.70525e-08
-6.36805e-07
1.2915e-07
-4.72413e-07
1.43082e-07
-1.37617e-07
1.36217e-07
6.63682e-08
1.17604e-07
2.11174e-07
1.10656e-07
1.59059e-07
9.17812e-08
1.79717e-07
6.93001e-08
2.6651e-07
6.79509e-08
-3.51795e-09
9.17747e-08
2.53102e-08
6.6942e-08
1.04139e-07
5.39486e-08
1.06828e-07
7.03371e-08
1.093e-07
7.75784e-08
-9.07449e-08
7.91405e-08
-1.91012e-08
7.60656e-08
2.25991e-07
1.03456e-07
2.93164e-07
1.30462e-07
1.97876e-07
1.52295e-07
1.27358e-07
1.65658e-07
4.76416e-08
1.66653e-07
-4.42174e-08
1.4495e-07
-1.25365e-07
1.17396e-07
-1.2908e-07
9.22491e-08
-9.31522e-08
6.83149e-08
-2.48098e-08
4.65948e-08
2.87706e-08
3.09001e-08
4.33755e-08
1.81264e-08
4.59823e-08
2.46436e-08
1.68113e-08
3.31504e-08
-4.97823e-07
8.75532e-08
-6.91208e-07
1.30732e-07
-5.15591e-07
1.45217e-07
-1.52103e-07
1.37284e-07
7.43015e-08
1.17729e-07
2.30729e-07
1.12108e-07
1.6468e-07
9.14776e-08
2.00348e-07
6.63423e-08
2.91645e-07
6.70861e-08
-4.2617e-09
9.42786e-08
-1.88226e-09
6.37815e-08
1.34636e-07
5.432e-08
1.1629e-07
7.97641e-08
8.38562e-08
7.63237e-08
-8.73046e-08
7.83208e-08
-2.10983e-08
7.42654e-08
2.30046e-07
9.7912e-08
2.69518e-07
1.23316e-07
1.72472e-07
1.39106e-07
1.11568e-07
1.54501e-07
3.22468e-08
1.50895e-07
-4.06111e-08
1.23998e-07
-9.84683e-08
9.74662e-08
-1.02549e-07
7.80989e-08
-7.37849e-08
6.5769e-08
-1.24772e-08
4.83559e-08
4.6184e-08
2.0291e-08
7.14405e-08
1.44608e-08
5.18116e-08
1.31143e-08
2.59908e-08
3.2714e-08
-5.30537e-07
8.80645e-08
-7.46558e-07
1.32456e-07
-5.59982e-07
1.47562e-07
-1.6721e-07
1.38394e-07
8.34693e-08
1.1786e-07
2.51264e-07
1.13759e-07
1.68781e-07
9.11917e-08
2.22916e-07
6.34501e-08
3.19387e-07
6.43338e-08
-5.14547e-09
9.63553e-08
-3.39037e-08
6.87812e-08
1.62211e-07
6.48186e-08
1.20252e-07
8.88798e-08
5.9795e-08
7.73389e-08
-7.57637e-08
8.93917e-08
-3.31511e-08
8.15164e-08
2.37921e-07
8.52764e-08
2.65758e-07
1.09558e-07
1.4819e-07
1.27304e-07
9.38217e-08
1.33026e-07
2.65256e-08
1.27519e-07
-3.51043e-08
1.04571e-07
-7.5521e-08
6.13107e-08
-5.92879e-08
1.81584e-08
-3.06353e-08
-6.5198e-10
6.33093e-09
-1.51797e-08
6.07118e-08
-1.87297e-08
7.49906e-08
3.00315e-09
3.00798e-08
-2.40885e-09
1.85266e-08
3.22108e-08
-5.62747e-07
8.85796e-08
-8.02927e-07
1.34327e-07
-6.0573e-07
1.50131e-07
-1.83013e-07
1.39534e-07
9.40661e-08
1.1799e-07
2.72809e-07
1.15566e-07
1.71204e-07
9.12877e-08
2.47194e-07
6.00348e-08
3.5064e-07
6.14954e-08
-6.60605e-09
1.00835e-07
-7.32432e-08
7.18574e-08
1.91188e-07
3.29459e-08
1.59164e-07
5.83205e-08
3.44205e-08
7.93697e-08
-9.6813e-08
1.09082e-07
-6.28632e-08
9.68703e-08
2.50133e-07
9.0144e-08
2.72484e-07
1.18412e-07
1.19922e-07
1.13144e-07
9.90893e-08
1.19396e-07
2.02744e-08
1.32894e-07
-4.86028e-08
1.15226e-07
-5.78524e-08
7.67137e-08
-2.0776e-08
2.33607e-08
2.27176e-08
-1.53423e-08
4.50317e-08
-3.02043e-08
7.5564e-08
-2.82177e-08
7.30042e-08
-1.87393e-08
2.06004e-08
-3.99423e-09
-1.71512e-08
3.16338e-08
-5.94381e-07
8.90871e-08
-8.6038e-07
1.36344e-07
-6.52986e-07
1.52942e-07
-1.99611e-07
1.40679e-07
1.06329e-07
1.18052e-07
2.95436e-07
1.17724e-07
1.71531e-07
9.1073e-08
2.73846e-07
5.50444e-08
3.86668e-07
6.10519e-08
-1.26135e-08
1.08146e-07
-1.20337e-07
8.08269e-08
2.18507e-07
5.60644e-08
1.83926e-07
7.54387e-08
1.50463e-08
9.14695e-08
-1.12844e-07
1.26359e-07
-9.77523e-08
1.39765e-07
2.36727e-07
1.37315e-07
2.74934e-07
1.13277e-07
1.43959e-07
8.93018e-08
1.23065e-07
1.10361e-07
-7.8526e-10
1.0787e-07
-4.61117e-08
7.2703e-08
-2.2685e-08
5.75757e-08
-5.64869e-09
3.98588e-08
4.04346e-08
6.1821e-09
7.87089e-08
-9.43804e-09
9.11843e-08
-1.05388e-08
7.40975e-08
-2.15217e-08
3.15805e-08
1.05759e-08
-3.60895e-08
3.098e-08
-6.25361e-07
8.95556e-08
-9.18956e-07
1.38483e-07
-7.01913e-07
1.56015e-07
-2.17144e-07
1.41723e-07
1.20621e-07
1.18127e-07
3.19032e-07
1.20012e-07
1.69646e-07
9.37053e-08
3.00152e-07
4.98213e-08
4.30552e-07
5.74174e-08
-2.02096e-08
1.15393e-07
-1.78313e-07
7.58103e-08
2.5809e-07
2.75804e-08
2.32156e-07
5.2149e-08
-9.5223e-09
8.15285e-08
-1.42223e-07
1.19791e-07
-1.36015e-07
1.3333e-07
2.23188e-07
1.27901e-07
2.80364e-07
9.44891e-08
1.77371e-07
7.90974e-08
1.38456e-07
7.9631e-08
-1.31889e-09
2.82844e-08
5.23445e-09
-1.03004e-08
1.58999e-08
3.48161e-09
-1.94299e-08
2.88664e-08
1.50494e-08
3.1269e-08
7.63069e-08
3.32786e-08
8.9175e-08
3.60268e-08
7.1348e-08
2.22214e-08
4.53847e-08
3.56195e-08
-2.81982e-09
3.02651e-08
-6.55626e-07
8.98794e-08
-9.7857e-07
1.4064e-07
-7.52674e-07
1.59288e-07
-2.35791e-07
1.4248e-07
1.37429e-07
1.17922e-07
3.43589e-07
1.24212e-07
1.63356e-07
8.68457e-08
3.37519e-07
4.86876e-08
4.6871e-07
5.87838e-08
-3.03058e-08
1.1448e-07
-2.3401e-07
7.03792e-08
3.02191e-07
2.67553e-09
2.9986e-07
4.83073e-08
-5.5154e-08
8.67422e-08
-1.80658e-07
1.12335e-07
-1.61537e-07
1.13454e-07
2.22136e-07
1.00357e-07
2.93461e-07
9.97586e-08
1.77969e-07
7.20852e-08
1.6613e-07
7.52645e-09
6.32399e-08
-5.19168e-08
6.46777e-08
-6.73554e-08
3.13379e-08
-4.88867e-08
-3.78991e-08
-1.48819e-08
-1.89569e-08
1.46108e-08
4.68144e-08
3.503e-08
6.87609e-08
4.96851e-08
5.66915e-08
4.3717e-08
5.13612e-08
5.45109e-08
2.48266e-08
2.95726e-08
-6.85199e-07
8.97173e-08
-1.03871e-06
1.42414e-07
-8.05371e-07
1.62403e-07
-2.5578e-07
1.42289e-07
1.57543e-07
1.18372e-07
3.67506e-07
1.25729e-07
1.55999e-07
1.0099e-07
3.62258e-07
3.56747e-08
5.34025e-07
2.51511e-08
-1.97821e-08
1.11711e-07
-3.20569e-07
5.7106e-08
3.56796e-07
8.00924e-09
3.48956e-07
8.235e-08
-1.29495e-07
8.63927e-08
-1.84701e-07
9.62067e-08
-1.71527e-07
7.2624e-08
2.45969e-07
5.93676e-08
3.06717e-07
7.06067e-08
1.6673e-07
6.33588e-08
1.73378e-07
4.6263e-09
1.21972e-07
-8.0643e-08
1.49946e-07
-1.00664e-07
5.13613e-08
-9.49836e-08
-4.35814e-08
-6.65274e-08
-4.74147e-08
-3.11224e-08
1.14069e-08
-3.49839e-09
4.11334e-08
2.07724e-08
3.24264e-08
2.75735e-08
4.45622e-08
6.22453e-08
1.98377e-08
2.91641e-08
-7.14363e-07
8.81055e-08
-1.09766e-06
1.42485e-07
-8.5975e-07
1.64053e-07
-2.77348e-07
1.39985e-07
1.81611e-07
1.16215e-07
3.91276e-07
1.32999e-07
1.39216e-07
7.17631e-08
4.23494e-07
3.6555e-08
5.69233e-07
4.55043e-08
-2.87313e-08
1.07615e-07
-3.79361e-07
3.57862e-08
4.28753e-07
-2.37865e-08
4.08529e-07
1.24064e-07
-2.77346e-07
1.4764e-07
-2.081e-07
9.23908e-08
-1.16459e-07
6.87674e-08
2.69367e-07
5.76044e-08
3.17881e-07
1.80162e-08
2.06309e-07
1.6142e-08
1.75252e-07
2.96945e-08
1.07333e-07
-2.82113e-08
2.07822e-07
-5.31587e-08
7.63088e-08
-6.59832e-08
-3.07569e-08
-7.06958e-08
-4.27021e-08
-5.36024e-08
-5.68641e-09
-3.12678e-08
1.8799e-08
-1.50368e-08
1.61955e-08
-3.10966e-09
3.26333e-08
5.44139e-08
4.7202e-09
2.95586e-08
-7.43922e-07
8.28313e-08
-1.15093e-06
1.37408e-07
-9.14327e-07
1.60851e-07
-3.00791e-07
1.31018e-07
2.11444e-07
1.09803e-07
4.12491e-07
1.2011e-07
1.28909e-07
1.01661e-07
4.41943e-07
6.63795e-08
6.04515e-07
4.09107e-08
-3.26235e-09
1.69213e-07
-5.00786e-07
1.35072e-07
4.6333e-07
-3.40081e-08
5.77609e-07
1.06808e-07
-4.18161e-07
2.12095e-07
-3.12945e-07
1.10131e-07
-1.46779e-08
7.10599e-08
3.08018e-07
7.62413e-08
3.12451e-07
3.07015e-08
2.51877e-07
-1.24485e-08
2.18468e-07
4.12204e-08
5.34654e-08
5.38881e-08
1.95154e-07
1.79738e-08
1.12223e-07
-2.25906e-09
-1.0524e-08
-2.08744e-08
-2.40867e-08
-2.44939e-08
-2.06689e-09
-2.02375e-08
1.45426e-08
-2.03359e-08
1.62942e-08
-1.50998e-08
2.73986e-08
4.15307e-08
-2.21496e-09
3.11813e-08
-7.75103e-07
7.00972e-08
-1.18984e-06
1.20607e-07
-9.64837e-07
1.45943e-07
-3.26127e-07
1.0662e-07
2.50767e-07
7.55047e-08
4.43606e-07
6.82623e-08
1.36151e-07
4.55866e-08
4.64619e-07
4.27002e-09
6.45831e-07
-3.90402e-08
4.0957e-08
-3.80322e-09
-5.37809e-07
1.01304e-08
4.44967e-07
-1.33072e-07
7.20665e-07
-3.16674e-09
-5.48067e-07
1.91943e-07
-5.10596e-07
1.166e-07
6.04903e-08
8.38446e-08
3.40611e-07
1.00716e-07
2.96331e-07
7.50171e-08
2.77585e-07
2.49566e-08
2.67243e-07
3.42161e-08
4.41667e-08
7.57185e-08
1.52989e-07
5.30364e-08
1.34674e-07
2.72805e-08
1.5232e-08
8.48488e-09
-5.29104e-09
6.46492e-09
-4.75321e-11
5.46312e-09
1.55433e-08
-1.60411e-09
2.33589e-08
-8.00645e-09
3.3802e-08
4.05617e-08
-7.03637e-09
3.44831e-08
-8.09586e-07
4.61608e-08
-1.20152e-06
8.51576e-08
-1.00383e-06
1.13233e-07
-3.54201e-07
5.63246e-08
3.07676e-07
2.90112e-08
4.7092e-07
6.0125e-08
1.05037e-07
8.89669e-09
5.07842e-07
-3.71107e-08
6.91839e-07
-1.02834e-07
1.08324e-07
-1.30207e-07
-5.16676e-07
-1.23242e-07
4.32103e-07
-2.00385e-07
7.96537e-07
-1.10618e-07
-6.37831e-07
6.09545e-08
-6.82166e-07
3.91239e-08
8.25937e-08
1.44216e-08
3.67581e-07
8.88714e-09
3.02345e-07
4.77427e-08
2.38739e-07
5.38215e-08
2.59027e-07
2.84414e-08
6.95102e-08
6.42458e-08
1.17149e-07
7.20457e-08
1.27477e-07
3.57663e-08
5.15105e-08
1.21558e-08
1.83131e-08
1.25616e-08
-4.56068e-10
9.9167e-09
1.81857e-08
3.4047e-09
2.98709e-08
-7.95889e-09
4.51658e-08
5.01545e-08
-1.75515e-08
2.6997e-08
-8.36583e-07
1.24839e-08
-1.18701e-06
3.5189e-08
-1.02654e-06
7.38314e-08
-3.83161e-07
2.01561e-08
3.61353e-07
-5.47998e-08
5.45875e-07
-1.25493e-07
1.76526e-07
-8.4721e-08
4.5905e-07
-3.58266e-08
6.41131e-07
-1.2238e-07
1.93744e-07
-1.23523e-07
-5.15697e-07
-1.15261e-07
4.28167e-07
-1.39594e-07
8.20235e-07
-1.50124e-07
-6.27281e-07
-9.91657e-08
-7.32045e-07
-1.03312e-07
8.64151e-08
-1.6408e-07
4.28486e-07
-7.39595e-08
2.12152e-07
7.57732e-08
8.88181e-08
1.21142e-07
2.13616e-07
8.48822e-08
1.05732e-07
6.18895e-08
1.41734e-07
4.91106e-08
1.40777e-07
1.03069e-08
9.03177e-08
-5.23287e-09
3.38461e-08
-8.73938e-09
3.05195e-09
-9.06993e-09
1.85198e-08
-6.1214e-09
2.69269e-08
-9.35437e-09
4.83984e-08
5.66484e-08
-1.58486e-08
2.84452e-08
-8.65028e-07
-1.66826e-08
-1.14188e-06
-5.85455e-09
-8.47518e-07
8.21656e-09
-4.10986e-08
-5.50201e-08
6.01326e-08
-2.69491e-07
6.36787e-07
-3.94743e-07
3.01143e-07
-1.38335e-07
1.97102e-07
-2.77794e-08
5.3133e-07
-1.86113e-07
3.50955e-07
-2.21605e-07
-4.80416e-07
-1.94071e-07
4.04216e-07
-9.61109e-08
7.22841e-07
-1.41852e-07
-5.81517e-07
-1.79587e-07
-6.93942e-07
-1.59209e-07
6.51275e-08
-1.73408e-07
4.4275e-07
-6.93124e-08
1.08058e-07
4.79966e-08
-2.88028e-08
4.27053e-08
2.20659e-07
-1.5641e-08
1.65426e-07
1.50476e-08
1.11272e-07
2.61128e-08
1.29712e-07
-1.329e-08
1.29719e-07
-2.52876e-08
4.58455e-08
-2.26581e-08
4.22338e-10
-1.44967e-08
1.03587e-08
-8.23645e-09
2.06664e-08
-3.28594e-09
4.34478e-08
5.30404e-08
3.21998e-10
-4.3814e-08
-8.21214e-07
-6.88884e-09
-1.1788e-06
-1.01065e-08
-1.66979e-07
-1.56575e-07
-5.00053e-11
-3.58422e-07
1.27805e-08
-3.46625e-07
2.56797e-07
-3.90974e-07
3.33593e-07
-2.35787e-07
4.4822e-08
-1.02312e-07
3.98359e-07
-1.9758e-07
4.48567e-07
-3.28743e-07
-3.49523e-07
-2.76247e-07
3.50521e-07
-1.20302e-07
5.66773e-07
-1.86846e-07
-5.15087e-07
-3.0752e-07
-5.73367e-07
-2.39603e-07
-3.56991e-09
-1.31254e-07
3.34466e-07
-1.01787e-07
7.84274e-08
-8.92949e-08
-4.13016e-08
-6.46541e-08
1.96123e-07
-5.7333e-08
1.58185e-07
1.35009e-08
4.04387e-08
4.75033e-08
9.57095e-08
1.17567e-08
1.65471e-07
-6.30594e-09
6.39105e-08
-1.65285e-08
1.06448e-08
-1.4496e-08
8.32596e-09
-9.79279e-09
1.5963e-08
-4.09954e-10
3.40651e-08
4.30905e-08
9.53979e-09
-3.63244e-08
-7.84883e-07
1.286e-07
-7.23537e-07
-2.35637e-08
-5.86868e-10
-1.43699e-07
1.44428e-08
-3.9664e-07
-1.10462e-07
-4.57181e-07
5.49679e-08
-5.15636e-07
3.51334e-07
-4.92705e-07
8.80245e-09
-2.07981e-07
1.11836e-07
-1.81423e-07
4.22023e-07
-3.93136e-07
-1.38768e-07
-1.92584e-07
1.48494e-07
2.10455e-09
3.71122e-07
-1.84506e-07
-3.28585e-07
-3.55914e-07
-4.02049e-07
-2.88053e-07
-7.27135e-08
-1.02095e-07
1.46397e-07
-9.64817e-08
7.28125e-08
-1.21319e-07
-1.6472e-08
-7.70552e-08
1.51859e-07
-4.193e-08
1.23059e-07
-3.65662e-08
3.5075e-08
2.33172e-09
5.68116e-08
4.48365e-08
1.22969e-07
5.13061e-08
5.74409e-08
3.02511e-08
3.16998e-08
7.88431e-09
3.06928e-08
-1.85607e-09
2.57034e-08
1.52175e-09
3.06873e-08
3.40547e-08
1.05575e-08
-1.75608e-08
-7.5848e-07
8.81698e-09
-1.46437e-07
4.75374e-10
2.31733e-09
-1.87881e-09
-2.21764e-09
-1.95026e-07
-1.02737e-08
-6.13124e-07
1.87282e-08
-6.51543e-07
2.6093e-07
-6.23211e-07
-5.99282e-08
-3.45783e-07
-1.65576e-07
-2.07746e-07
2.84e-07
-3.53214e-07
6.89262e-09
-1.45199e-07
-5.93965e-08
4.49856e-08
1.79098e-07
-1.46421e-07
-1.37277e-07
-3.38687e-07
-1.73773e-07
-3.33805e-07
-5.90873e-08
-1.0195e-07
-6.80569e-08
-3.77622e-08
8.6243e-09
-9.45709e-08
4.03367e-08
-3.28621e-08
9.01501e-08
2.70619e-08
6.31355e-08
-8.17985e-09
5.45701e-08
-9.53179e-09
4.55539e-08
5.3484e-08
5.99543e-08
7.10417e-08
2.98735e-08
5.4241e-08
3.65135e-08
4.32783e-08
3.02979e-08
2.87799e-08
2.86513e-08
1.85654e-08
2.87689e-08
2.61676e-08
1.48568e-08
1.20255e-07
-4.00441e-12
-3.59929e-10
-1.11068e-11
8.72134e-11
-1.02513e-12
2.70505e-10
2.32639e-12
-5.06223e-08
-3.3731e-10
-3.60783e-07
-7.49129e-10
-4.34772e-07
5.37283e-08
-5.60412e-07
-4.75531e-08
-4.85812e-07
-2.85413e-07
-2.90771e-07
8.89737e-08
-2.89111e-07
1.8068e-08
-2.82965e-07
-6.04061e-08
-1.01129e-07
7.58628e-09
-8.03628e-08
-1.42553e-08
-1.15548e-07
-3.56644e-09
-8.73581e-08
-1.77153e-12
-7.29387e-08
-9.14287e-11
-3.57819e-09
-8.79141e-11
9.68267e-10
1.78378e-11
2.03208e-08
5.18702e-09
2.61957e-08
-2.56262e-10
3.21871e-08
3.65177e-09
3.907e-08
-3.38008e-11
4.41399e-08
3.67858e-10
3.43327e-08
-5.58571e-11
3.27441e-08
9.47721e-11
2.63999e-08
8.55224e-11
2.03767e-08
3.82703e-10
1.67537e-08
3.59272e-10
1.29828e-08
3.0322e-10
2.19397e-08
-2.66129e-08
4.71208e-08
-2.54009e-08
7.96271e-08
-3.26087e-08
1.18942e-07
-3.98975e-08
1.63812e-07
-4.57363e-08
1.88783e-07
-2.4977e-08
1.85924e-07
2.85196e-09
2.14783e-07
-2.88649e-08
1.73169e-07
4.16069e-08
6.06261e-08
1.14209e-07
-7.13493e-09
6.77525e-08
-2.39224e-08
1.67874e-08
-1.70404e-08
-6.88202e-09
1.907e-08
-3.59917e-08
4.19223e-08
-2.28398e-08
3.94724e-08
2.44985e-09
3.17873e-08
7.6851e-09
2.58964e-08
5.89091e-09
1.30505e-08
1.28459e-08
6.4502e-09
6.6003e-09
-8.69079e-09
1.5141e-08
-2.26347e-08
1.39439e-08
-3.46444e-08
1.20097e-08
-4.53758e-08
1.07314e-08
-6.38841e-08
1.85084e-08
-7.78694e-08
1.39852e-08
-8.52973e-08
7.42789e-09
-7.25045e-08
-1.27927e-08
-3.94522e-08
-3.30523e-08
-3.94522e-08
2.14053e-08
-5.11106e-08
4.72742e-08
-5.1269e-08
8.09241e-08
-6.62577e-08
1.23913e-07
-8.28849e-08
1.75666e-07
-9.74877e-08
2.29762e-07
-7.9254e-08
2.65176e-07
-3.2686e-08
3.06235e-07
-7.01188e-08
3.16407e-07
3.17413e-08
2.15739e-07
2.15589e-07
8.47402e-08
1.98863e-07
1.561e-08
8.59705e-08
2.14473e-08
-1.27501e-08
3.7287e-08
-5.18068e-08
4.424e-08
-2.97594e-08
3.3124e-08
1.35658e-08
2.64401e-09
3.81651e-08
-9.23389e-09
1.77688e-08
-3.48195e-08
3.84315e-08
-4.72864e-08
1.90671e-08
-6.92111e-08
3.70657e-08
-8.78226e-08
3.25553e-08
-9.90734e-08
2.32606e-08
-1.07385e-07
1.90427e-08
-1.20012e-07
3.11353e-08
-1.24429e-07
1.84029e-08
-1.19453e-07
2.45203e-09
-8.91151e-08
-4.31312e-08
-4.14716e-08
-8.06957e-08
-8.09238e-08
8.14586e-09
-6.70627e-08
2.80147e-08
-7.11153e-08
5.55074e-08
-9.3679e-08
8.99576e-08
-1.17352e-07
1.30292e-07
-1.37803e-07
1.86252e-07
-1.35171e-07
2.41117e-07
-8.75723e-08
2.76254e-07
-1.05281e-07
3.08471e-07
-6.46782e-10
2.63574e-07
2.60523e-07
1.58885e-07
3.03571e-07
7.42869e-08
1.70589e-07
4.64971e-08
1.4949e-08
1.98886e-08
-2.5287e-08
1.11257e-08
-2.0986e-08
-2.6862e-09
2.73778e-08
-3.75407e-08
7.30196e-08
-4.11955e-08
2.14235e-08
-6.67533e-08
6.39893e-08
-7.57209e-08
2.80347e-08
-9.29206e-08
5.42655e-08
-1.10054e-07
4.9689e-08
-1.15282e-07
2.84886e-08
-1.19927e-07
2.36869e-08
-1.27622e-07
3.88305e-08
-1.28043e-07
1.88238e-08
-1.19473e-07
-6.11746e-09
-8.54938e-08
-7.71105e-08
-3.67902e-08
-1.29399e-07
-1.17714e-07
-1.8718e-09
-7.8361e-08
1.84135e-08
-9.13574e-08
4.35624e-08
-1.18973e-07
6.56351e-08
-1.39586e-07
8.42773e-08
-1.56705e-07
1.19749e-07
-1.70778e-07
1.87723e-07
-1.55702e-07
2.3182e-07
-1.49557e-07
2.51558e-07
-2.04786e-08
2.50387e-07
2.61589e-07
1.91883e-07
3.62136e-07
1.16303e-07
2.46189e-07
6.18896e-08
6.93537e-08
2.73816e-09
3.38652e-08
-1.77339e-08
-5.13583e-10
-3.54381e-08
4.5082e-08
-6.73819e-08
1.04963e-07
-5.66631e-08
1.07047e-08
-7.57898e-08
8.3116e-08
-8.50091e-08
3.7254e-08
-9.74646e-08
6.67211e-08
-1.14827e-07
6.70515e-08
-1.17081e-07
3.07427e-08
-1.20611e-07
2.7217e-08
-1.27174e-07
4.53931e-08
-1.27116e-07
1.87656e-08
-1.18138e-07
-1.50952e-08
-8.37136e-08
-1.11535e-07
-3.49519e-08
-1.78161e-07
-1.52666e-07
-1.92974e-08
-7.92124e-08
-1.96649e-08
-9.10852e-08
-3.5584e-08
-1.03174e-07
-4.56035e-08
-1.29552e-07
-3.04226e-08
-1.71871e-07
6.20119e-09
-2.07487e-07
6.5139e-08
-2.1471e-07
1.1694e-07
-2.01308e-07
1.52938e-07
-5.68381e-08
1.80389e-07
2.34034e-07
1.73402e-07
3.68998e-07
1.27857e-07
2.91432e-07
6.30729e-08
1.34138e-07
-1.58888e-08
1.12827e-07
-4.26513e-08
2.62489e-08
-5.81983e-08
6.0629e-08
-8.85744e-08
1.3534e-07
-6.29126e-08
-1.49572e-08
-7.15942e-08
9.17976e-08
-8.78143e-08
5.3474e-08
-9.71814e-08
7.60882e-08
-1.16005e-07
8.58753e-08
-1.17123e-07
3.18605e-08
-1.20319e-07
3.04125e-08
-1.26888e-07
5.19628e-08
-1.27145e-07
1.90225e-08
-1.18162e-07
-2.4078e-08
-8.35541e-08
-1.46143e-07
-3.44885e-08
-2.27227e-07
-1.87154e-07
-3.30148e-08
-6.36475e-08
-5.74858e-08
-6.66145e-08
-8.26027e-08
-7.80687e-08
-9.16674e-08
-1.2047e-07
-7.92785e-08
-1.84198e-07
-5.15226e-08
-2.35219e-07
-6.36906e-09
-2.59872e-07
3.28978e-08
-2.40525e-07
6.95293e-08
-9.34515e-08
9.94184e-08
2.04052e-07
1.05636e-07
3.62722e-07
9.4716e-08
3.02604e-07
3.48348e-08
1.94136e-07
-4.43806e-08
1.92043e-07
-6.72458e-08
4.91141e-08
-7.21197e-08
6.55028e-08
-9.74592e-08
1.60679e-07
-6.45046e-08
-4.79118e-08
-6.29089e-08
9.02019e-08
-8.86547e-08
7.92199e-08
-9.6778e-08
8.42115e-08
-1.16767e-07
1.05864e-07
-1.17401e-07
3.24942e-08
-1.20186e-07
3.3198e-08
-1.26956e-07
5.87324e-08
-1.27679e-07
1.97457e-08
-1.1867e-07
-3.30865e-08
-8.38154e-08
-1.80998e-07
-3.43565e-08
-2.76685e-07
-2.21511e-07
-3.55624e-08
-3.82217e-08
-6.08718e-08
-4.13052e-08
-7.32209e-08
-6.57197e-08
-7.74187e-08
-1.16259e-07
-8.67417e-08
-1.74971e-07
-8.84376e-08
-2.33567e-07
-7.76969e-08
-2.70654e-07
-6.33287e-08
-2.54947e-07
-2.5231e-08
-1.31531e-07
2.84484e-08
1.50698e-07
6.25097e-08
3.28598e-07
5.57705e-08
3.10064e-07
-7.9277e-09
2.57896e-07
-7.23516e-08
2.56467e-07
-8.73563e-08
6.41188e-08
-7.04056e-08
4.85521e-08
-8.23271e-08
1.72601e-07
-6.35665e-08
-6.66724e-08
-5.73189e-08
8.39543e-08
-8.9135e-08
1.11036e-07
-9.72901e-08
9.23667e-08
-1.17489e-07
1.26063e-07
-1.17961e-07
3.29661e-08
-1.2009e-07
3.53273e-08
-1.2712e-07
6.57621e-08
-1.28408e-07
2.10339e-08
-1.19348e-07
-4.21463e-08
-8.41794e-08
-2.16167e-07
-3.42658e-08
-3.26599e-07
-2.55777e-07
-1.90705e-08
-1.58115e-08
-4.19378e-08
-1.84379e-08
-6.12048e-08
-4.64527e-08
-7.88769e-08
-9.85872e-08
-9.9261e-08
-1.54587e-07
-1.2002e-07
-2.12934e-07
-1.29676e-07
-2.61098e-07
-1.30266e-07
-2.54398e-07
-9.56936e-08
-1.66084e-07
-2.53281e-08
8.05045e-08
1.89007e-08
2.85458e-07
1.11483e-08
3.18032e-07
-3.91439e-08
3.08194e-07
-7.52787e-08
2.92602e-07
-8.8874e-08
7.77141e-08
-4.8551e-08
8.22907e-09
-4.65272e-08
1.70577e-07
-6.13401e-08
-5.18595e-08
-5.82184e-08
8.08326e-08
-9.01528e-08
1.4297e-07
-9.88518e-08
1.01066e-07
-1.18126e-07
1.45337e-07
-1.18743e-07
3.35826e-08
-1.19966e-07
3.65507e-08
-1.27309e-07
7.31049e-08
-1.29273e-07
2.29983e-08
-1.20147e-07
-5.12725e-08
-8.45975e-08
-2.51717e-07
-3.41561e-08
-3.7704e-07
-2.89933e-07
-9.19257e-09
1.46199e-09
-2.94854e-08
1.85499e-09
-5.03348e-08
-2.56028e-08
-6.90945e-08
-7.98278e-08
-9.01646e-08
-1.33516e-07
-1.13357e-07
-1.89742e-07
-1.39333e-07
-2.35122e-07
-1.61738e-07
-2.32082e-07
-1.64129e-07
-1.638e-07
-1.08105e-07
2.44208e-08
-5.79001e-08
2.35292e-07
-3.78241e-08
2.97956e-07
-4.83453e-08
3.18715e-07
-5.08091e-08
2.95066e-07
-5.61832e-08
8.30881e-08
-2.08797e-08
-2.70744e-08
-2.12478e-08
1.70945e-07
-6.38115e-08
-9.29582e-09
-6.49426e-08
8.19637e-08
-9.10207e-08
1.69048e-07
-1.01603e-07
1.11648e-07
-1.18623e-07
1.62357e-07
-1.19671e-07
3.46308e-08
-1.19816e-07
3.6696e-08
-1.275e-07
8.07888e-08
-1.30271e-07
2.57695e-08
-1.21065e-07
-6.04784e-08
-8.50631e-08
-2.87719e-07
-3.40146e-08
-4.28089e-07
-3.23947e-07
-3.90315e-09
1.19811e-08
-1.73624e-08
1.53146e-08
-3.45181e-08
-8.44696e-09
-5.64329e-08
-5.79138e-08
-7.72362e-08
-1.12713e-07
-1.01169e-07
-1.6581e-07
-1.29811e-07
-2.06479e-07
-1.61461e-07
-2.00437e-07
-2.00484e-07
-1.24889e-07
-1.77846e-07
1.62638e-09
-1.20001e-07
1.77446e-07
-7.09134e-08
2.48869e-07
-5.97998e-08
3.07602e-07
-3.66667e-08
2.71932e-07
-2.31333e-08
6.95547e-08
-4.77789e-09
-4.54298e-08
-1.51453e-08
1.81312e-07
-7.03072e-08
4.58661e-08
-7.34293e-08
8.50859e-08