/*--------------------------------*- C++ -*----------------------------------*\
| =========                 |                                                 |
| \\      /  F ield         | OpenFOAM: The Open Source CFD Toolbox           |
|  \\    /   O peration     | Version:  2.4.0                                 |
|   \\  /    A nd           | Web:      www.OpenFOAM.org                      |
|    \\/     M anipulation  |                                                 |
\*---------------------------------------------------------------------------*/
FoamFile
{
    version     2.0;
    format      ascii;
    class       volVectorField;
    location    "0.19";
    object      U;
}
// * * * * * * * * * * * * * * * * * * * * * * * * * * * * * * * * * * * * * //

dimensions      [0 1 -1 0 0 0 0];

internalField   nonuniform List<vector> 
3600
(
(0.00565328 -0.00036642 0)
(0.016934 -0.000235762 0)
(0.02539 -2.77011e-05 0)
(0.0261767 0.000188775 0)
(0.023078 0.000327357 0)
(0.0161642 0.000437544 0)
(0.00998626 0.000301917 0)
(0.00266341 0.000263254 0)
(0.000974877 0.000119159 0)
(-0.00536641 -1.76931e-05 0)
(-0.00128391 -0.000172332 0)
(-0.00522449 0.000110048 0)
(-0.0066666 -3.31515e-05 0)
(-0.00746562 -0.000242984 0)
(-0.0118548 3.86846e-06 0)
(-0.00800561 -0.00119315 0)
(0.000408828 -0.00223471 0)
(0.0118106 -0.000283745 0)
(0.00975809 -0.000678387 0)
(0.00623622 -0.000121826 0)
(-0.0184549 0.00641675 0)
(-0.0574463 0.00953645 0)
(-0.0590159 0.00195285 0)
(-0.0620691 0.00271512 0)
(-0.0604285 -0.00103076 0)
(-0.0439689 -0.00521855 0)
(-0.030849 -0.00378515 0)
(-0.0212151 -0.00347357 0)
(-0.0127519 -0.00323169 0)
(-0.00499209 -0.00288359 0)
(0.00508822 -0.00123372 0)
(0.0186399 -0.00122448 0)
(0.0333184 -0.000694007 0)
(0.0385581 0.000106259 0)
(0.0388113 0.00066026 0)
(0.0341857 0.00119322 0)
(0.0298445 0.00108968 0)
(0.0202522 0.00111611 0)
(0.0207573 0.0010281 0)
(0.00677999 0.000465416 0)
(0.0162575 2.95206e-05 0)
(0.0042416 0.00120167 0)
(0.0046328 0.000622033 0)
(0.000147679 0.00121983 0)
(-0.0123675 0.000542697 0)
(-0.00482835 -0.00278695 0)
(-0.00796968 -0.00550179 0)
(0.00145826 -0.00236175 0)
(-0.000953491 0.00268215 0)
(-0.0294646 0.0147933 0)
(-0.0765384 0.0261942 0)
(-0.0969405 0.0144853 0)
(-0.0800423 -0.000439312 0)
(-0.082272 0.00132022 0)
(-0.0618341 -0.0145603 0)
(-0.0481854 -0.0216187 0)
(-0.0324588 -0.0181305 0)
(-0.0226585 -0.0149653 0)
(-0.0139093 -0.0154772 0)
(-0.00481665 -0.015473 0)
(0.00402981 -0.00198296 0)
(0.0169764 -0.0022686 0)
(0.032772 -0.00154666 0)
(0.0390785 -0.000176651 0)
(0.0404336 0.000756613 0)
(0.037208 0.00167615 0)
(0.0346469 0.001611 0)
(0.0254743 0.00170369 0)
(0.0290684 0.00187323 0)
(0.0121448 0.000833829 0)
(0.0270678 9.13021e-05 0)
(0.0109876 0.00251463 0)
(0.0158901 0.000940235 0)
(0.0133472 0.00363661 0)
(-0.00293392 0.00157547 0)
(0.00615404 -0.00243696 0)
(-0.00534108 -0.00448023 0)
(-0.0102211 -0.00202969 0)
(-0.0204009 0.0127125 0)
(-0.0590768 0.0322313 0)
(-0.0982484 0.0378856 0)
(-0.092182 0.0101927 0)
(-0.0764016 -0.00758694 0)
(-0.0745634 -0.00777751 0)
(-0.0483822 -0.0286216 0)
(-0.0405655 -0.0332536 0)
(-0.0284098 -0.0292741 0)
(-0.0189919 -0.0229134 0)
(-0.0114984 -0.0243849 0)
(-0.00544498 -0.0259418 0)
(0.00361346 -0.00269226 0)
(0.0163209 -0.00331976 0)
(0.032337 -0.00241854 0)
(0.0387268 -0.000473438 0)
(0.0402394 0.000832569 0)
(0.0372491 0.00210867 0)
(0.035147 0.00209217 0)
(0.0261753 0.00215157 0)
(0.0312062 0.00274227 0)
(0.0125528 0.000962047 0)
(0.0317374 3.53992e-05 0)
(0.0107031 0.00360762 0)
(0.0238513 0.000258405 0)
(0.0227819 0.00577355 0)
(0.00625977 0.00269385 0)
(0.0149936 -0.00164899 0)
(-0.00153236 -9.4263e-05 0)
(-0.0185986 0.00283578 0)
(-0.032745 0.0248223 0)
(-0.0651159 0.0458873 0)
(-0.092383 0.042733 0)
(-0.0764005 0.00534036 0)
(-0.0721127 -0.0152485 0)
(-0.057899 -0.0206593 0)
(-0.0376976 -0.039351 0)
(-0.0315132 -0.042786 0)
(-0.0257961 -0.0411881 0)
(-0.0156458 -0.0340588 0)
(-0.00884415 -0.0300903 0)
(-0.00578669 -0.0326906 0)
(0.0034854 -0.00337774 0)
(0.0161747 -0.00437379 0)
(0.0323485 -0.00329484 0)
(0.0387471 -0.000773494 0)
(0.0402602 0.000906097 0)
(0.0372082 0.00253376 0)
(0.0351037 0.00255714 0)
(0.0261961 0.00254299 0)
(0.0315928 0.00367515 0)
(0.011695 0.000876217 0)
(0.0339448 0.000310722 0)
(0.00556066 0.00420473 0)
(0.03115 -0.00149803 0)
(0.0273574 0.00757218 0)
(0.0141919 0.00399654 0)
(0.022646 0.000164587 0)
(0.00308205 0.00724344 0)
(-0.023541 0.010303 0)
(-0.0404716 0.0345159 0)
(-0.0566949 0.0549209 0)
(-0.0677773 0.0455169 0)
(-0.0458828 0.00477222 0)
(-0.0398827 -0.0221153 0)
(-0.0207249 -0.0325956 0)
(-0.00641551 -0.0427539 0)
(0.00133394 -0.0440043 0)
(-0.00110726 -0.0428365 0)
(-0.00540842 -0.04061 0)
(-0.00470651 -0.0336509 0)
(-0.00511587 -0.0334481 0)
(0.00343744 -0.00406297 0)
(0.0161411 -0.00543526 0)
(0.0324872 -0.00417777 0)
(0.0389284 -0.00107546 0)
(0.0404279 0.000987369 0)
(0.0372755 0.00297008 0)
(0.0350688 0.00301496 0)
(0.0262917 0.00292645 0)
(0.0315334 0.00468001 0)
(0.0110719 0.000644854 0)
(0.0348635 0.00114222 0)
(-0.000108415 0.00413871 0)
(0.0364158 -0.00444154 0)
(0.0250478 0.00909427 0)
(0.0222545 0.00457048 0)
(0.029155 0.00177679 0)
(0.0123863 0.015539 0)
(-0.0171862 0.0182867 0)
(-0.0306123 0.0391348 0)
(-0.0349356 0.0558452 0)
(-0.0413458 0.0416212 0)
(-0.0246676 -0.00354671 0)
(-0.0159399 -0.0342019 0)
(0.00113095 -0.0462632 0)
(0.0138032 -0.0509447 0)
(0.0175541 -0.045381 0)
(0.0167685 -0.03376 0)
(0.00748592 -0.0296344 0)
(0.000172626 -0.0297509 0)
(-0.00296051 -0.0289739 0)
(0.00340367 -0.00474661 0)
(0.0161171 -0.0065048 0)
(0.0326667 -0.0050695 0)
(0.0391718 -0.00138095 0)
(0.0406542 0.0010792 0)
(0.0373885 0.00342046 0)
(0.0350424 0.00346084 0)
(0.02652 0.00332623 0)
(0.0312605 0.00572261 0)
(0.0110764 0.000353556 0)
(0.0351204 0.0023391 0)
(-0.00215412 0.00360024 0)
(0.0374213 -0.00647059 0)
(0.0108058 0.0101159 0)
(0.0305988 0.00381388 0)
(0.0311292 0.00254579 0)
(0.0230123 0.02296 0)
(-0.00394074 0.0259797 0)
(-0.0198884 0.0401088 0)
(-0.010588 0.0549764 0)
(-0.0113347 0.0401755 0)
(0.00395427 -0.00719913 0)
(0.0127687 -0.0398494 0)
(0.018303 -0.054716 0)
(0.0208788 -0.0548725 0)
(0.0203565 -0.0479883 0)
(0.0211672 -0.0344612 0)
(0.0186258 -0.02331 0)
(0.00922754 -0.0207782 0)
(0.000697327 -0.0214243 0)
(0.00336706 -0.00542873 0)
(0.0160845 -0.00758355 0)
(0.0328756 -0.00597213 0)
(0.0394606 -0.00169112 0)
(0.040923 0.00118233 0)
(0.0375239 0.00388903 0)
(0.0350083 0.00388732 0)
(0.0268663 0.00375671 0)
(0.030776 0.00676716 0)
(0.0117884 2.96919e-05 0)
(0.0350491 0.00353522 0)
(0.000478737 0.00326485 0)
(0.034834 -0.00590195 0)
(-0.00866119 0.0100689 0)
(0.0340293 -0.000170363 0)
(0.0242761 0.00309651 0)
(0.0254164 0.0277442 0)
(0.0095741 0.033861 0)
(-0.0111927 0.0415807 0)
(0.000748582 0.0490024 0)
(0.00956935 0.0345484 0)
(0.0332762 -0.0135258 0)
(0.0385262 -0.0419866 0)
(0.0367622 -0.0533617 0)
(0.0315454 -0.052019 0)
(0.0267437 -0.0444112 0)
(0.0214972 -0.0319784 0)
(0.0185508 -0.0186428 0)
(0.011608 -0.0110669 0)
(0.00410019 -0.0107487 0)
(0.0033236 -0.00610813 0)
(0.0160396 -0.00867288 0)
(0.0331134 -0.00688774 0)
(0.0397938 -0.002007 0)
(0.0412342 0.00129838 0)
(0.037674 0.00437879 0)
(0.0349729 0.00428608 0)
(0.0272945 0.00424011 0)
(0.030068 0.00776121 0)
(0.0131822 -0.000298775 0)
(0.0339564 0.00437594 0)
(0.00667927 0.00336717 0)
(0.0331714 -0.00347512 0)
(-0.0169856 0.00884773 0)
(0.0285283 -0.00377378 0)
(0.00834973 0.00437314 0)
(0.0241712 0.0307161 0)
(0.015431 0.0393867 0)
(0.00939668 0.0446069 0)
(0.0192189 0.0439939 0)
(0.0300351 0.0240575 0)
(0.0556171 -0.0191684 0)
(0.0533669 -0.041555 0)
(0.0448144 -0.0494503 0)
(0.0352897 -0.0474498 0)
(0.0296341 -0.0389586 0)
(0.022046 -0.0271681 0)
(0.0171553 -0.0126626 0)
(0.0108998 -0.00390816 0)
(0.00479458 -0.00371018 0)
(0.00327232 -0.00678433 0)
(0.015981 -0.00977425 0)
(0.03338 -0.00781844 0)
(0.040173 -0.00232975 0)
(0.0415895 0.00143074 0)
(0.0378343 0.00489048 0)
(0.0349512 0.00465269 0)
(0.0277329 0.00478815 0)
(0.0292817 0.00866812 0)
(0.0145897 -0.000528865 0)
(0.031362 0.00467369 0)
(0.0141142 0.00341919 0)
(0.0321381 -0.000126393 0)
(-0.0139871 0.00920999 0)
(0.0227841 -0.00536257 0)
(-0.000501516 0.00308627 0)
(0.0283355 0.0284244 0)
(0.0179891 0.0394975 0)
(0.0258776 0.0416718 0)
(0.0424633 0.039556 0)
(0.0541994 0.0171501 0)
(0.0673941 -0.0193247 0)
(0.0539667 -0.0364657 0)
(0.0444521 -0.0431391 0)
(0.0335665 -0.041289 0)
(0.0281089 -0.0318103 0)
(0.0190399 -0.0205293 0)
(0.0135682 -0.00633617 0)
(0.00827373 0.00269795 0)
(0.00355665 0.00308751 0)
(0.00321294 -0.00745697 0)
(0.0159069 -0.0108893 0)
(0.0336757 -0.0087663 0)
(0.0405997 -0.00266073 0)
(0.0419905 0.00158187 0)
(0.0380032 0.00542701 0)
(0.0349451 0.00498776 0)
(0.0281533 0.00540371 0)
(0.028591 0.00950168 0)
(0.0152664 -0.000512141 0)
(0.0283672 0.00423379 0)
(0.020385 0.00359719 0)
(0.0284692 0.00299179 0)
(-0.00505554 0.00950663 0)
(0.0217289 -0.00592014 0)
(0.00353424 0.000751753 0)
(0.0309081 0.0260541 0)
(0.0230547 0.0383346 0)
(0.0315429 0.0341154 0)
(0.0507881 0.0301022 0)
(0.0643046 0.0108 0)
(0.0604384 -0.0145212 0)
(0.0457065 -0.0316576 0)
(0.0438597 -0.0385504 0)
(0.0351907 -0.036434 0)
(0.0297575 -0.025899 0)
(0.0183305 -0.0128602 0)
(0.0109351 -0.00038393 0)
(0.00616299 0.00725288 0)
(0.00333557 0.00668853 0)
(0.00314533 -0.00812505 0)
(0.0158154 -0.0120194 0)
(0.0340003 -0.00973335 0)
(0.0410761 -0.00300161 0)
(0.042439 0.00175548 0)
(0.0381791 0.00598828 0)
(0.0349484 0.00529231 0)
(0.0285857 0.00607057 0)
(0.0280425 0.0103631 0)
(0.0150186 -0.000381606 0)
(0.0270907 0.00325565 0)
(0.0236218 0.00416318 0)
(0.0226117 0.00568284 0)
(0.00537366 0.0103966 0)
(0.0229131 -0.00620054 0)
(0.0156096 -0.00141561 0)
(0.0271166 0.022251 0)
(0.0289975 0.0375899 0)
(0.0345658 0.0294275 0)
(0.0460636 0.0222718 0)
(0.0563384 0.00946156 0)
(0.0524385 -0.00778514 0)
(0.0475496 -0.0283601 0)
(0.046615 -0.0345422 0)
(0.0379591 -0.0302413 0)
(0.0312096 -0.0185047 0)
(0.0167644 -0.00489482 0)
(0.00824428 0.00681021 0)
(0.00538411 0.0106563 0)
(0.00358319 0.00820732 0)
(0.00306934 -0.00878726 0)
(0.0157043 -0.0131662 0)
(0.0343534 -0.0107219 0)
(0.0416039 -0.00335411 0)
(0.0429367 0.00195439 0)
(0.0383581 0.00657838 0)
(0.0349579 0.00555688 0)
(0.0290887 0.00679782 0)
(0.0274417 0.0113019 0)
(0.0145408 -0.000274672 0)
(0.0269367 0.00197383 0)
(0.0253675 0.00563837 0)
(0.0176504 0.00651832 0)
(0.0149902 0.008164 0)
(0.0246419 -0.00737583 0)
(0.0242705 -0.00168262 0)
(0.0215706 0.0225988 0)
(0.0255459 0.0353183 0)
(0.0350222 0.0270072 0)
(0.0431799 0.018325 0)
(0.0464613 0.00834697 0)
(0.053103 -0.00735447 0)
(0.047082 -0.0266483 0)
(0.0397921 -0.0306242 0)
(0.0311533 -0.0241001 0)
(0.0250342 -0.00585165 0)
(0.0166425 0.00921962 0)
(0.0121167 0.0109864 0)
(0.00648498 0.0128481 0)
(0.00435641 0.0105388 0)
(0.00298477 -0.00944298 0)
(0.015571 -0.0143312 0)
(0.0347345 -0.0117347 0)
(0.0421851 -0.00371995 0)
(0.0434858 0.00218389 0)
(0.0385351 0.00719869 0)
(0.0349842 0.00577872 0)
(0.0296542 0.00758194 0)
(0.0267416 0.0123823 0)
(0.0140416 -0.00024633 0)
(0.0268523 0.000554657 0)
(0.0266257 0.00714834 0)
(0.0148721 0.00794453 0)
(0.0176894 0.00820265 0)
(0.0273511 -0.00789991 0)
(0.0212212 -0.00179645 0)
(0.0235691 0.023227 0)
(0.0228157 0.0315654 0)
(0.0341078 0.0228715 0)
(0.0400068 0.0172609 0)
(0.0428271 0.00666658 0)
(0.0501851 -0.0072974 0)
(0.0409522 -0.0203325 0)
(0.0333148 -0.0247145 0)
(0.0251904 -0.0211014 0)
(0.0205669 -0.00830147 0)
(0.0194389 0.00591136 0)
(0.0113577 0.016608 0)
(0.00176324 0.0200882 0)
(0.00629335 0.00879421 0)
(0.00289147 -0.0100911 0)
(0.0154125 -0.0155159 0)
(0.0351433 -0.0127748 0)
(0.042822 -0.00410074 0)
(0.0440883 0.0024486 0)
(0.0387084 0.0078492 0)
(0.0350237 0.00594017 0)
(0.0302934 0.0084759 0)
(0.0259145 0.0135156 0)
(0.0136364 -0.000455985 0)
(0.025604 -0.000880171 0)
(0.0286403 0.00935624 0)
(0.0162275 0.00737552 0)
(0.0223999 0.00464579 0)
(0.0280893 -0.00569718 0)
(0.021155 -0.00175693 0)
(0.0296381 0.023568 0)
(0.0216068 0.0286827 0)
(0.0280001 0.0200283 0)
(0.0375771 0.0133483 0)
(0.0393628 0.00287594 0)
(0.0403534 -0.00699044 0)
(0.0360554 -0.0165374 0)
(0.0279034 -0.0168502 0)
(0.0105668 -0.012007 0)
(0.000296027 0.00145164 0)
(-0.000607598 0.0190845 0)
(-0.00729689 0.0270125 0)
(-0.00309715 0.0159134 0)
(0.00432663 0.00127991 0)
(0.00278919 -0.0107304 0)
(0.0152253 -0.0167227 0)
(0.0355793 -0.0138454 0)
(0.0435173 -0.00449819 0)
(0.0447493 0.00275045 0)
(0.0388709 0.00852593 0)
(0.0350778 0.00606961 0)
(0.0309852 0.009336 0)
(0.0251738 0.0149117 0)
(0.0127332 -0.000180234 0)
(0.0246193 -0.00307303 0)
(0.0317691 0.0106772 0)
(0.0155176 0.00891254 0)
(0.00459243 0.00384023 0)
(0.0271626 -0.00723568 0)
(0.0230826 -0.00434918 0)
(0.0390099 0.0259756 0)
(0.0219387 0.0315691 0)
(0.0300663 0.0163049 0)
(0.0402074 0.0127984 0)
(0.0294822 0.00484524 0)
(0.0404931 -0.00538919 0)
(0.0383355 -0.0125647 0)
(0.0309923 -0.00762866 0)
(0.0169587 -0.00124988 0)
(-0.0019189 0.00247496 0)
(-0.00725381 0.0177855 0)
(-0.0112968 0.0219929 0)
(-0.00494475 0.00497746 0)
(-0.00569597 -0.0031455 0)
(0.00267766 -0.0113607 0)
(0.0150061 -0.017951 0)
(0.0360391 -0.0149501 0)
(0.0442726 -0.0049145 0)
(0.0454766 0.00310018 0)
(0.0390091 0.00924397 0)
(0.035116 0.00606418 0)
(0.031874 0.0105731 0)
(0.0241972 0.0162335 0)
(0.0108954 -0.000861301 0)
(0.0259393 -0.00490715 0)
(0.0343123 0.0125978 0)
(0.0188403 0.0119398 0)
(0.0148708 0.00121437 0)
(0.027161 -0.00816054 0)
(0.0299189 -0.00731231 0)
(0.0424984 0.0238049 0)
(0.0438853 0.0297267 0)
(0.0373384 0.0145179 0)
(0.0299268 0.0143391 0)
(0.0258094 0.00180479 0)
(0.0380355 -0.0116497 0)
(0.0264422 -0.00982959 0)
(0.0172846 -0.00181484 0)
(0.0176584 0.0106154 0)
(0.00674826 0.0187339 0)
(-0.00223883 0.0235169 0)
(-0.00407312 0.0226894 0)
(-0.00255412 0.00865708 0)
(-0.00926035 -4.99629e-05 0)
(0.00255659 -0.0119776 0)
(0.0147536 -0.0191997 0)
(0.0365063 -0.0160923 0)
(0.0450912 -0.00535301 0)
(0.0462765 0.00350879 0)
(0.0390648 0.00997281 0)
(0.0352386 0.0061378 0)
(0.0327405 0.0110714 0)
(0.0249239 0.0180121 0)
(0.00751342 -0.000480531 0)
(0.0264763 -0.00866201 0)
(0.037513 0.0139089 0)
(0.0133543 0.0130847 0)
(0.00362877 0.0011858 0)
(0.0244434 -0.00963086 0)
(0.0263585 -0.0103426 0)
(0.0421416 0.0240734 0)
(0.0410028 0.0317697 0)
(0.0351486 0.0214814 0)
(0.0208631 0.0197551 0)
(0.0281214 -0.00209842 0)
(0.0192596 -0.00361404 0)
(-0.00177717 0.00127158 0)
(-0.00389663 -0.00074669 0)
(0.00545342 0.00819192 0)
(0.011327 0.0217663 0)
(0.00853086 0.0274553 0)
(0.0100868 0.0248831 0)
(0.0104951 0.0143992 0)
(0.00392314 0.00896009 0)
(0.00242562 -0.0125813 0)
(0.0144774 -0.0204786 0)
(0.0369117 -0.0172766 0)
(0.0459761 -0.00581891 0)
(0.0471099 0.00397978 0)
(0.0389783 0.0107713 0)
(0.035317 0.00580826 0)
(0.0347173 0.0133788 0)
(0.0193835 0.0204297 0)
(0.011953 -0.00210691 0)
(0.0227647 -0.0105613 0)
(0.0399933 0.0184166 0)
(0.0082307 0.018358 0)
(-0.00576237 -0.00295203 0)
(0.0307491 -0.0144652 0)
(0.023182 -0.0139198 0)
(0.0416324 0.0205523 0)
(0.0300939 0.0322389 0)
(0.0291022 0.0227603 0)
(0.0290795 0.0195584 0)
(0.0167456 0.00178344 0)
(-0.0108138 0.00556125 0)
(-0.021058 0.00535156 0)
(-0.0180697 -0.00665492 0)
(-0.0123687 -0.00105377 0)
(0.00239408 0.0166508 0)
(0.00702163 0.0235887 0)
(0.0129863 0.0213081 0)
(0.0156673 0.0176104 0)
(0.0116311 0.0177703 0)
(0.00228418 -0.0131731 0)
(0.0142264 -0.0217857 0)
(0.0370161 -0.0185089 0)
(0.0469112 -0.00632221 0)
(0.0477874 0.00453446 0)
(0.0385528 0.0115318 0)
(0.0360861 0.00568115 0)
(0.0345479 0.0129803 0)
(0.0277932 0.0207849 0)
(-0.00293692 -0.000842502 0)
(0.0163978 -0.015809 0)
(0.0438244 0.0169075 0)
(-0.00283245 0.0207234 0)
(0.00726482 -0.00488202 0)
(0.037333 -0.0142947 0)
(0.0176391 -0.0151255 0)
(0.0380978 0.0249326 0)
(0.00923701 0.032857 0)
(0.0247892 0.0211469 0)
(0.016688 0.0255309 0)
(0.0232535 0.0181979 0)
(-0.0186027 0.0169194 0)
(-0.0314793 0.00584393 0)
(-0.0271759 -0.0102245 0)
(-0.0284767 -0.00791083 0)
(-0.0130572 0.00803809 0)
(-0.00475153 0.0162802 0)
(0.00236277 0.0141435 0)
(0.0091941 0.0173902 0)
(0.00807723 0.023672 0)
(0.00213217 -0.0137762 0)
(0.0141491 -0.0230871 0)
(0.0361351 -0.0197902 0)
(0.0477553 -0.00687846 0)
(0.0476986 0.00520198 0)
(0.0376936 0.0122789 0)
(0.0356943 0.00547021 0)
(0.0386654 0.0166774 0)
(0.00767697 0.026234 0)
(0.0157499 -0.00179798 0)
(0.01074 -0.017548 0)
(0.0462127 0.0287329 0)
(-0.0180836 0.0265317 0)
(0.00271247 -0.0158832 0)
(0.0643882 -0.0154709 0)
(0.0236174 -0.0153576 0)
(0.0353288 0.0263518 0)
(0.00879431 0.0367606 0)
(0.0234751 0.0211254 0)
(-0.01133 0.0221716 0)
(0.0206946 0.019702 0)
(-0.00274771 0.0313786 0)
(-0.0155653 0.0117121 0)
(-0.0145281 -0.00875683 0)
(-0.0233117 -0.0133418 0)
(-0.0199638 -0.00161543 0)
(-0.0124702 0.00760246 0)
(-0.00686937 0.00640232 0)
(-0.00271394 0.0143836 0)
(0.00099722 0.0254158 0)
(0.00195413 -0.0142632 0)
(0.0145505 -0.0243346 0)
(0.0327353 -0.0211085 0)
(0.047919 -0.00750778 0)
(0.0454691 0.00590102 0)
(0.0350943 0.0129021 0)
(0.0343617 0.00387219 0)
(0.032589 0.0164539 0)
(0.0305095 0.0244827 0)
(0.0132251 -0.00112868 0)
(0.00939708 -0.0272912 0)
(0.0832349 0.0217597 0)
(0.00908791 0.0309773 0)
(-0.027468 -0.0238718 0)
(0.0805771 -0.0175437 0)
(0.0450223 -0.00489275 0)
(0.0267188 0.0298265 0)
(0.0190553 0.0349362 0)
(0.0231597 0.0295123 0)
(-0.00447649 0.0270652 0)
(-0.00221059 0.0121074 0)
(0.0239297 0.0377547 0)
(0.00706418 0.018607 0)
(0.0045553 -0.00398287 0)
(-0.00523305 -0.00682223 0)
(-0.00756995 -0.00107665 0)
(-0.00756137 0.00345498 0)
(-0.00513818 0.0041505 0)
(-0.00680988 0.00916329 0)
(-0.00256607 0.0176631 0)
(0.0016788 -0.0150758 0)
(0.0157295 -0.025322 0)
(0.0244124 -0.0224243 0)
(0.0458169 -0.00820482 0)
(0.038709 0.00711038 0)
(0.0278529 0.0137195 0)
(0.0207754 0.00574316 0)
(0.0163629 0.0187573 0)
(0.0131104 0.02859 0)
(-0.00786902 0.000468838 0)
(-0.0197333 -0.0297568 0)
(0.0155368 0.0314553 0)
(-0.00554453 0.0447519 0)
(-0.0685076 -0.0372721 0)
(0.05857 -0.0334475 0)
(0.0517521 0.00370012 0)
(0.0242567 0.0315472 0)
(0.0301791 0.032642 0)
(0.0261751 0.0338526 0)
(0.0205427 0.0314825 0)
(-0.00641714 0.0042853 0)
(0.0276057 0.0318321 0)
(0.0161605 0.0246788 0)
(0.0157712 -0.000477604 0)
(0.00231675 -0.00476506 0)
(0.00224221 -0.000264183 0)
(0.00162067 0.00450231 0)
(0.00146557 0.00601352 0)
(-0.00224617 0.0096812 0)
(-0.00266294 0.014238 0)
(0.00201418 -0.0153285 0)
(0.0172243 -0.0259735 0)
(0.00955632 -0.0235839 0)
(0.0390312 -0.00869289 0)
(0.0262361 0.00802428 0)
(0.0106287 0.0148283 0)
(0.00849031 0.00291563 0)
(0.0231653 0.018558 0)
(-0.0149986 0.0293645 0)
(-0.00565975 0.00302444 0)
(-0.0570376 -0.0280531 0)
(-0.0318556 0.0274766 0)
(-0.0335975 0.0501004 0)
(-0.0816342 -0.0469384 0)
(0.00494089 -0.0544494 0)
(0.0258907 0.00635368 0)
(0.00245288 0.0357092 0)
(0.00800669 0.0369418 0)
(-0.00246839 0.0380193 0)
(0.0289466 0.0417967 0)
(0.00419127 0.0102992 0)
(0.013489 0.0205821 0)
(0.023952 0.0261033 0)
(0.0197312 0.00756121 0)
(0.00249284 0.00245281 0)
(0.00441887 0.00027228 0)
(0.00310831 0.00415988 0)
(0.00276271 0.00846498 0)
(-0.000488816 0.0136394 0)
(-0.00403594 0.0169464 0)
(-0.00179117 -0.016612 0)
(0.0164876 -0.0261745 0)
(-0.00835816 -0.024317 0)
(0.0269202 -0.00927074 0)
(0.015117 0.0102976 0)
(-0.000709164 0.0157367 0)
(-0.0283196 0.00501039 0)
(-0.0536811 0.0234998 0)
(0.00418323 0.0305164 0)
(-0.0237967 0.00636248 0)
(-0.049554 -0.0309891 0)
(-0.0331426 0.0250756 0)
(-0.0304703 0.0530393 0)
(-0.0460562 -0.0495851 0)
(-0.0508752 -0.0620967 0)
(-0.0150059 0.0109061 0)
(-0.0411875 0.0393838 0)
(-0.0493867 0.0292277 0)
(-0.00101163 0.0226785 0)
(0.0424232 0.0338271 0)
(0.0343386 0.0104774 0)
(0.0169575 0.0193453 0)
(0.0204279 0.0221453 0)
(0.0106227 0.0129636 0)
(-0.00353329 0.0058574 0)
(-7.33469e-05 -0.000605548 0)
(-0.00454534 0.00586928 0)
(-0.00129734 0.00993617 0)
(-0.00206926 0.0174367 0)
(-0.003638 0.0215478 0)
(0.0079264 -0.0161862 0)
(0.00783151 -0.0245615 0)
(-0.0171816 -0.0253222 0)
(0.00876995 -0.0135602 0)
(-0.00235221 0.0097724 0)
(-0.0283397 0.0200909 0)
(-0.124623 0.00776826 0)
(-0.128839 0.013667 0)
(0.0368387 0.0274803 0)
(-0.0471525 0.0133956 0)
(-0.0683424 -0.0282171 0)
(-0.0716487 0.0251881 0)
(-0.0389476 0.0544911 0)
(-0.0142714 -0.0460158 0)
(-0.0743829 -0.0594668 0)
(-0.0411755 0.00646931 0)
(-0.0503441 0.0456842 0)
(-0.0462064 0.0179545 0)
(-0.00278822 -0.00191767 0)
(0.0311606 0.0253333 0)
(-0.000220407 0.0238755 0)
(-0.00962256 0.0285262 0)
(0.0181207 0.0310333 0)
(-0.000554312 0.0257892 0)
(-0.0076918 0.0103091 0)
(-0.00669172 0.00256629 0)
(-0.00685193 0.00521556 0)
(-0.0024559 0.00775194 0)
(-0.00214718 0.017124 0)
(-0.000113954 0.0228037 0)
(-0.0148021 -0.0176538 0)
(-0.0134246 -0.0249304 0)
(0.00651312 -0.0251911 0)
(-0.212736 -0.00490053 0)
(-0.24899 0.0152293 0)
(-0.123067 0.0258723 0)
(-0.106649 0.0135802 0)
(-0.120845 0.00190263 0)
(-0.0328492 0.0217908 0)
(-0.0225124 0.0210004 0)
(-0.0948278 -0.0235957 0)
(-0.11096 0.0269465 0)
(-0.0495138 0.0455602 0)
(-0.021079 -0.0440947 0)
(-0.0939902 -0.0507033 0)
(-0.095689 0.00535943 0)
(-0.0510838 0.0426487 0)
(-0.0217955 0.00729795 0)
(-0.0456413 -0.00434614 0)
(-0.00562448 0.0316373 0)
(-0.0281467 0.0249232 0)
(-0.0103032 0.00903351 0)
(0.0183406 0.0180682 0)
(0.00911499 0.0264055 0)
(-0.00183104 0.00939028 0)
(-0.00223146 -0.00243107 0)
(-0.00659614 0.000206178 0)
(-0.00300469 0.00479896 0)
(-0.0024615 0.0130952 0)
(0.00191234 0.0184752 0)
(0.00157011 -0.0144266 0)
(-0.0251766 -0.024435 0)
(0.122054 -0.0062422 0)
(-0.561113 0.0104613 0)
(-0.324256 0.00254081 0)
(-0.163616 0.00759066 0)
(-0.139254 0.0113501 0)
(-0.179105 0.00181689 0)
(-0.12649 0.0127762 0)
(0.00347341 0.0223158 0)
(-0.105089 -0.0131048 0)
(-0.140536 0.0171217 0)
(0.0239582 0.0335203 0)
(-0.0206217 -0.0301071 0)
(-0.091386 -0.0397375 0)
(-0.127858 -0.00481166 0)
(-0.0432572 0.0294199 0)
(-0.0130182 0.00853346 0)
(-0.0506165 -0.00471068 0)
(-0.0172641 0.0261998 0)
(-0.0267846 0.0231438 0)
(-0.00228725 0.0041351 0)
(-0.0159059 0.0172985 0)
(0.0155191 0.0401359 0)
(0.0131349 0.0218607 0)
(0.0159874 0.00860454 0)
(0.00396411 0.00503431 0)
(0.00038563 0.00588952 0)
(-0.00129849 0.0113 0)
(0.00198434 0.0154385 0)
(-0.0596022 -0.0175162 0)
(0.0190543 -0.0413119 0)
(0.126881 0.0123422 0)
(-0.0785874 0.0360943 0)
(-0.206258 -0.0291853 0)
(-0.217065 0.000367143 0)
(-0.20822 0.0150039 0)
(-0.211898 -0.00102756 0)
(-0.169826 -0.00265557 0)
(-0.0341743 0.018623 0)
(-0.0836754 -0.00260064 0)
(-0.13782 -0.00011257 0)
(0.0490698 0.017879 0)
(-0.0173133 -0.0148318 0)
(-0.0747544 -0.0253425 0)
(-0.139686 -0.00749623 0)
(-0.0626873 0.00127741 0)
(0.00516899 0.00636903 0)
(-0.0309766 0.00127462 0)
(-0.0197851 0.0158969 0)
(-0.0025635 0.0146233 0)
(0.0158035 0.008861 0)
(-0.0179496 0.00524043 0)
(0.00984593 0.0147403 0)
(0.0221378 0.00604361 0)
(0.0208953 0.00777138 0)
(0.0139832 0.0116589 0)
(0.0119672 0.0102156 0)
(0.00627098 0.0100648 0)
(0.00532882 0.0105688 0)
(-0.11036 -0.0082753 0)
(0.165314 -0.0171404 0)
(0.0955279 0.00601464 0)
(0.317544 0.0521816 0)
(-0.224219 0.0146432 0)
(-0.233789 0.00685241 0)
(-0.235237 0.0116096 0)
(-0.221697 -0.00480304 0)
(-0.183444 -0.0122844 0)
(-0.100817 0.0104229 0)
(-0.0706408 0.00228766 0)
(-0.122813 -0.00662655 0)
(-0.0423838 0.00588566 0)
(-0.0274371 -0.00753533 0)
(-0.0764379 -0.00846292 0)
(-0.139355 -0.00835701 0)
(-0.0650445 -0.0196969 0)
(-0.0111053 -0.0039666 0)
(-0.000934757 0.0073071 0)
(0.00382883 0.00796345 0)
(0.0149684 0.00462924 0)
(0.0286267 0.0135052 0)
(0.0151081 0.0152598 0)
(0.0378826 0.0107906 0)
(0.0325565 0.0110378 0)
(0.0236365 0.0153177 0)
(0.0227561 0.0129822 0)
(0.019084 0.0144191 0)
(0.0132911 0.0170162 0)
(0.012502 0.0174535 0)
(0.00256898 -0.00378082 0)
(0.0105635 -0.00297003 0)
(0.0187535 -0.00418769 0)
(0.0296975 -0.00398071 0)
(0.0429281 -0.00424543 0)
(0.0550417 -0.000486477 0)
(0.0573282 0.00152751 0)
(0.0578341 -0.00233607 0)
(0.0707862 0.0079158 0)
(0.0348854 0.00841793 0)
(0.000785502 0.00107582 0)
(-0.00570012 -0.000345337 0)
(-0.00987521 -7.06771e-06 0)
(0.0011422 -0.00210567 0)
(0.00978953 -0.00126299 0)
(0.0145158 -7.94203e-05 0)
(0.00985886 -0.000217808 0)
(0.00841654 -1.79619e-05 0)
(0.00663617 0.000130664 0)
(0.00148313 1.09768e-05 0)
(0.00195603 0.000222063 0)
(-0.00702604 0.000188262 0)
(-0.00727244 0.000210361 0)
(-0.0124779 0.000167484 0)
(-0.0160817 0.000341465 0)
(-0.0220326 0.00028754 0)
(-0.0250753 0.00021191 0)
(-0.0250392 -4.63008e-06 0)
(-0.0167754 -0.000236343 0)
(-0.0055888 -0.000361343 0)
(0.00268934 -0.0162831 0)
(0.0105297 -0.0141553 0)
(0.019307 -0.0172411 0)
(0.0288367 -0.0184798 0)
(0.0459594 -0.0188021 0)
(0.057649 -0.0113185 0)
(0.0792885 -0.000321244 0)
(0.0796633 -0.00914466 0)
(0.101723 0.0068849 0)
(0.0902923 0.0264755 0)
(0.0408168 0.018687 0)
(0.00729012 0.00494366 0)
(0.00195262 -0.00174807 0)
(0.0121079 -0.00556809 0)
(0.00918805 -0.00304289 0)
(0.0166204 0.000452487 0)
(0.00353551 0.0014308 0)
(-0.00241628 0.000855052 0)
(-0.00334309 0.00148414 0)
(-0.0172487 0.000744957 0)
(-0.0121242 0.00131317 0)
(-0.0285867 0.00108373 0)
(-0.0253082 0.000784649 0)
(-0.0324891 0.000600994 0)
(-0.0338731 0.000878331 0)
(-0.0376051 0.000542718 0)
(-0.0373168 0.000189898 0)
(-0.0329467 -0.000616985 0)
(-0.0184601 -0.00122413 0)
(-0.00503389 -0.00121705 0)
(0.000240785 -0.0240715 0)
(0.00513722 -0.0219454 0)
(0.0126862 -0.0245489 0)
(0.0207913 -0.0290584 0)
(0.0333406 -0.0320681 0)
(0.0431127 -0.0271378 0)
(0.0699684 -0.0129016 0)
(0.0733151 -0.0176591 0)
(0.0888019 0.00236144 0)
(0.0994187 0.0372245 0)
(0.0633918 0.0353807 0)
(0.0280811 0.0158983 0)
(0.0161994 -0.0010983 0)
(0.0115048 -0.00482852 0)
(-0.000774281 -0.0025283 0)
(0.00734245 0.00167556 0)
(-0.00950411 0.00417253 0)
(-0.0139703 0.00157767 0)
(-0.0109908 0.00311357 0)
(-0.0286066 0.00129385 0)
(-0.0179086 0.00229989 0)
(-0.0369541 0.0018287 0)
(-0.0302866 0.00106568 0)
(-0.0371322 0.000771021 0)
(-0.0368174 0.00114726 0)
(-0.0391963 0.000563568 0)
(-0.0378411 -2.59839e-05 0)
(-0.0324126 -0.00141561 0)
(-0.0168023 -0.00226849 0)
(-0.00397713 -0.00195545 0)
(-0.00257994 -0.0294979 0)
(0.00183357 -0.0295535 0)
(0.00957343 -0.0359537 0)
(0.0168202 -0.0400726 0)
(0.0212123 -0.040795 0)
(0.0273365 -0.0375642 0)
(0.0482901 -0.0256276 0)
(0.0626975 -0.0243904 0)
(0.0696622 -0.0029572 0)
(0.0880586 0.0396759 0)
(0.0692466 0.0470245 0)
(0.0412839 0.0275109 0)
(0.0265966 0.00466071 0)
(0.00951419 -0.00014208 0)
(-0.00907003 -0.00132103 0)
(-0.00178702 0.00297419 0)
(-0.019341 0.00670932 0)
(-0.022204 0.00134427 0)
(-0.0116929 0.0045258 0)
(-0.0334857 0.00170413 0)
(-0.0185039 0.00303663 0)
(-0.0391534 0.00258164 0)
(-0.0309054 0.00119635 0)
(-0.0375621 0.000903496 0)
(-0.0368059 0.00136615 0)
(-0.0389637 0.000568862 0)
(-0.0374728 -0.000252991 0)
(-0.0319855 -0.00223217 0)
(-0.0161521 -0.00332014 0)
(-0.00355996 -0.00265358 0)
(-0.00635918 -0.0324584 0)
(-0.00492364 -0.0352431 0)
(-0.0077001 -0.0385296 0)
(-0.0142949 -0.0385256 0)
(-0.0135031 -0.0406377 0)
(-0.00570337 -0.0422334 0)
(0.0106204 -0.0386054 0)
(0.0274981 -0.0330162 0)
(0.0377522 -0.00498837 0)
(0.0592654 0.0396947 0)
(0.0563115 0.0525899 0)
(0.0442764 0.0350693 0)
(0.0301256 0.0117311 0)
(0.00552053 0.00735547 0)
(-0.0166364 0.00120416 0)
(-0.00951901 0.00456362 0)
(-0.0248944 0.00893677 0)
(-0.0296341 0.000160178 0)
(-0.00729521 0.00542914 0)
(-0.035774 0.0023577 0)
(-0.0177924 0.00356723 0)
(-0.0397801 0.00338891 0)
(-0.0309529 0.00125545 0)
(-0.0375053 0.00101916 0)
(-0.0367041 0.00157464 0)
(-0.0389331 0.000574283 0)
(-0.0374662 -0.000483714 0)
(-0.0320063 -0.00305166 0)
(-0.0160126 -0.00437533 0)
(-0.00343032 -0.00332851 0)
(-0.00718748 -0.0280763 0)
(-0.0125968 -0.0271432 0)
(-0.0223655 -0.026203 0)
(-0.0286711 -0.0343994 0)
(-0.0259091 -0.0468149 0)
(-0.0207067 -0.0532611 0)
(-0.00789253 -0.052082 0)
(0.00416666 -0.0444565 0)
(0.0131292 -0.0140959 0)
(0.0322063 0.0333588 0)
(0.0326248 0.051455 0)
(0.0314361 0.0378558 0)
(0.0225889 0.0182745 0)
(-0.00389138 0.01546 0)
(-0.023909 0.00369049 0)
(-0.0172596 0.00556192 0)
(-0.0250701 0.0109816 0)
(-0.0352352 -0.00227794 0)
(-0.00161025 0.00566988 0)
(-0.036704 0.00353188 0)
(-0.0173221 0.00397231 0)
(-0.0400588 0.00426067 0)
(-0.031112 0.00128386 0)
(-0.0374623 0.00112345 0)
(-0.036694 0.00178795 0)
(-0.039034 0.000593549 0)
(-0.0376161 -0.000714057 0)
(-0.0321574 -0.00387576 0)
(-0.0159877 -0.00543893 0)
(-0.00338034 -0.00400318 0)
(-0.00650264 -0.0198603 0)
(-0.0149208 -0.0184578 0)
(-0.0217403 -0.022884 0)
(-0.0225767 -0.0349707 0)
(-0.0240263 -0.0472345 0)
(-0.0263351 -0.0557542 0)
(-0.0253258 -0.0577186 0)
(-0.0234199 -0.0468672 0)
(-0.0181751 -0.0182222 0)
(0.00603493 0.0285073 0)
(0.013738 0.0487858 0)
(0.0230805 0.0374843 0)
(0.00917616 0.0249743 0)
(-0.0156751 0.0229787 0)
(-0.0277694 0.00511002 0)
(-0.0257723 0.00556231 0)
(-0.0147673 0.0124985 0)
(-0.0371047 -0.00446485 0)
(0.00159704 0.00534805 0)
(-0.0368229 0.00512723 0)
(-0.0175153 0.00434901 0)
(-0.0401726 0.00516161 0)
(-0.0314236 0.00129914 0)
(-0.0374194 0.00120824 0)
(-0.0367121 0.00200889 0)
(-0.0391785 0.000626827 0)
(-0.037823 -0.00094503 0)
(-0.032352 -0.0047063 0)
(-0.0159744 -0.00651178 0)
(-0.00334404 -0.0046757 0)
(-0.00203513 -0.00968782 0)
(-0.00952061 -0.0103873 0)
(-0.016358 -0.0182593 0)
(-0.0209755 -0.030709 0)
(-0.026403 -0.0421979 0)
(-0.0321863 -0.0520016 0)
(-0.0385605 -0.0555357 0)
(-0.0416842 -0.0479383 0)
(-0.0408957 -0.0262488 0)
(-0.0124654 0.0179054 0)
(0.000102767 0.0415491 0)
(0.011539 0.0388691 0)
(-0.00562868 0.0320029 0)
(-0.0200208 0.0277454 0)
(-0.024381 0.00615937 0)
(-0.0305795 0.0024322 0)
(0.00411184 0.0133515 0)
(-0.0351205 -0.00446093 0)
(0.000858808 0.0049528 0)
(-0.0365783 0.00689049 0)
(-0.0184557 0.0047282 0)
(-0.0401134 0.00605611 0)
(-0.0318685 0.00131422 0)
(-0.0373606 0.0012643 0)
(-0.0367347 0.00223912 0)
(-0.0393503 0.00067851 0)
(-0.0380697 -0.00117725 0)
(-0.0325792 -0.00554499 0)
(-0.0159546 -0.00759533 0)
(-0.00330436 -0.00534702 0)
(0.00016395 -0.00245036 0)
(-0.00577066 -0.00258255 0)
(-0.0127611 -0.0113883 0)
(-0.017867 -0.0258202 0)
(-0.0237076 -0.0375621 0)