/*--------------------------------*- C++ -*----------------------------------*\
| =========                 |                                                 |
| \\      /  F ield         | OpenFOAM: The Open Source CFD Toolbox           |
|  \\    /   O peration     | Version:  2.4.0                                 |
|   \\  /    A nd           | Web:      www.OpenFOAM.org                      |
|    \\/     M anipulation  |                                                 |
\*---------------------------------------------------------------------------*/
FoamFile
{
    version     2.0;
    format      ascii;
    class       surfaceScalarField;
    location    "0.176";
    object      phi;
}
// * * * * * * * * * * * * * * * * * * * * * * * * * * * * * * * * * * * * * //

dimensions      [0 3 -1 0 0 0 0];

internalField   nonuniform List<scalar> 
28560
(
7.9401e-09
-1.92349e-08
1.12948e-08
-1.49417e-08
2.1449e-08
-6.50726e-09
-2.53211e-08
2.98859e-08
-4.56483e-09
-3.52738e-08
3.76718e-08
-2.39799e-09
-3.89128e-08
3.65014e-08
2.41143e-09
-3.28214e-08
2.58103e-08
7.01108e-09
-1.77683e-08
9.33468e-09
8.43361e-09
1.73894e-10
-8.4046e-09
8.23071e-09
1.61747e-08
-2.14107e-08
5.23607e-09
2.51281e-08
-2.67499e-08
1.62184e-09
2.66162e-08
-2.49632e-08
-1.65298e-09
2.2323e-08
-1.9324e-08
-2.99894e-09
1.6053e-08
-1.30353e-08
-3.01775e-09
1.00579e-08
-7.55106e-09
-2.50689e-09
5.22074e-09
-3.33917e-09
-1.88157e-09
1.65202e-09
-3.09044e-10
-1.34298e-09
-8.61836e-10
1.79105e-09
-9.29215e-10
-2.58334e-09
3.18144e-09
-5.98099e-10
-3.669e-09
4.01423e-09
-3.45233e-10
-4.26982e-09
4.42413e-09
-1.54301e-10
-4.5058e-09
4.52271e-09
-1.69078e-11
-4.48096e-09
4.39592e-09
8.50405e-11
-4.2666e-09
4.11194e-09
1.54659e-10
-3.92148e-09
3.71947e-09
2.02009e-10
-3.48872e-09
3.25672e-09
2.32e-10
-3.00246e-09
2.7549e-09
2.47564e-10
-2.49134e-09
2.24036e-09
2.50974e-10
-1.97906e-09
1.73462e-09
2.44432e-10
-1.4848e-09
1.25446e-09
2.30337e-10
-1.02073e-09
8.07861e-10
2.12864e-10
2.95402e-08
-3.81319e-08
8.59171e-09
-2.2381e-08
3.96296e-08
2.09335e-08
-3.81821e-08
-5.22508e-08
6.34045e-08
1.3948e-08
-2.51016e-08
-7.90877e-08
8.71321e-08
8.5139e-09
-1.65583e-08
-9.45018e-08
9.6053e-08
-3.09337e-09
1.54208e-09
-9.48882e-08
8.86637e-08
-1.52097e-08
2.14343e-08
-7.95923e-08
6.86305e-08
-2.06299e-08
3.15917e-08
-5.37025e-08
3.97989e-08
-2.23123e-08
3.62159e-08
-2.34081e-08
9.07811e-09
-1.81946e-08
3.25246e-08
4.58672e-09
-1.58621e-08
-9.79956e-09
2.10749e-08
2.48495e-08
-3.01443e-08
-1.73608e-10
5.46838e-09
3.298e-08
-3.361e-08
4.99243e-09
-4.36249e-09
3.29027e-08
-3.13725e-08
6.25312e-09
-7.7833e-09
2.92268e-08
-2.70197e-08
5.71802e-09
-7.92516e-09
2.45658e-08
-2.2274e-08
4.6531e-09
-6.94488e-09
1.98795e-08
-1.76727e-08
3.65672e-09
-5.86354e-09
1.5446e-08
-1.34439e-08
2.81313e-09
-4.81528e-09
1.14716e-08
-9.73907e-09
2.10021e-09
-3.83279e-09
8.0702e-09
-6.63505e-09
1.50537e-09
-2.94051e-09
5.2794e-09
-4.13287e-09
1.01969e-09
-2.16622e-09
3.06681e-09
-2.17641e-09
6.33882e-10
-1.52427e-09
1.36293e-09
-6.9744e-10
3.3886e-10
-1.00435e-09
1.01969e-10
3.7091e-10
1.0821e-10
-5.81089e-10
-7.81163e-10
1.09283e-09
-7.08224e-11
-2.40845e-10
-1.34517e-09
1.52162e-09
-2.02019e-10
2.5574e-11
-1.64692e-09
1.71682e-09
-2.92416e-10
2.2251e-10
-1.74726e-09
1.74282e-09
-3.4428e-10
3.48721e-10
-1.71085e-09
1.65993e-09
-3.63656e-10
4.14572e-10
-1.59123e-09
1.51691e-09
-3.59966e-10
4.34288e-10
-1.43302e-09
1.35142e-09
-3.40869e-10
4.22473e-10
4.54133e-08
-5.18984e-08
6.48511e-09
-1.79545e-08
3.58344e-08
5.60354e-08
-7.39152e-08
-4.91253e-08
6.08727e-08
3.67336e-08
-4.8481e-08
-7.87537e-08
8.773e-08
2.53418e-08
-3.4318e-08
-9.69142e-08
1.00489e-07
1.39676e-09
-4.97196e-09
-1.01372e-07
9.77149e-08
-2.59613e-08
2.96182e-08
-9.10863e-08
8.29825e-08
-4.07917e-08
4.88954e-08
-7.09947e-08
6.01983e-08
-4.83934e-08
5.91899e-08
-4.69829e-08
3.52439e-08
-4.5727e-08
5.7466e-08
-2.3805e-08
1.40467e-08
-3.21079e-08
4.18662e-08
-5.04535e-09
-1.65086e-09
-1.22181e-08
1.89143e-08
6.78604e-09
-9.87442e-09
1.96975e-09
1.11864e-09
1.16561e-08
-1.22813e-08
7.88203e-09
-7.25689e-09
1.20931e-08
-1.14535e-08
9.13068e-09
-9.77036e-09
1.03722e-08
-9.1734e-09
8.58458e-09
-9.78333e-09
7.76278e-09
-6.3705e-09
7.652e-09
-9.04428e-09
4.90361e-09
-3.5582e-09
6.53821e-09
-7.88363e-09
2.22723e-09
-1.06554e-09
5.3597e-09
-6.52139e-09
-3.28303e-11
9.56319e-10
4.21097e-09
-5.13446e-09
-1.80679e-09
2.49542e-09
3.17297e-09
-3.8616e-09
-3.11239e-09
3.59425e-09
2.29086e-09
-2.77271e-09
-4.00188e-09
4.30099e-09
1.56071e-09
-1.85982e-09
-4.53472e-09
4.68038e-09
9.54984e-10
-1.10065e-09
-4.76042e-09
4.76973e-09
4.53822e-10
-4.63133e-10
-4.71502e-09
4.60439e-09
5.01098e-11
6.05209e-11
-4.43258e-09
4.22282e-09
-2.56096e-10
4.65855e-10
-3.96002e-09
3.67811e-09
-4.60831e-10
7.42739e-10
-3.35531e-09
3.03162e-09
-5.74284e-10
8.97974e-10
-2.68129e-09
2.34546e-09
-6.15103e-10
9.50932e-10
-1.99476e-09
1.67008e-09
-6.03734e-10
9.2841e-10
5.79371e-08
-6.37154e-08
5.77829e-09
-1.63169e-08
3.4205e-08
9.17779e-08
-1.09666e-07
-4.72897e-08
5.91109e-08
6.02784e-08
-7.20995e-08
-7.73255e-08
8.63549e-08
4.33237e-08
-5.2353e-08
-9.57968e-08
9.973e-08
8.7934e-09
-1.27266e-08
-1.00986e-07
9.7715e-08
-3.29582e-08
3.62294e-08
-9.15579e-08
8.40814e-08
-5.65188e-08
6.39953e-08
-7.2758e-08
6.29754e-08
-6.92548e-08
7.90374e-08
-5.10637e-08
4.07754e-08
-6.82221e-08
7.85104e-08
-3.12742e-08
2.3616e-08
-5.03584e-08
5.80166e-08
-1.65414e-08
1.10707e-08
-2.50145e-08
3.04852e-08
-6.55754e-09
3.59197e-09
-4.28264e-09
7.24821e-09
-1.68371e-09
7.78041e-10
6.38865e-09
-5.48298e-09
-6.37514e-10
9.62388e-10
1.01669e-08
-1.04918e-08
-1.65238e-09
2.46337e-09
1.07307e-08
-1.15417e-08
-3.3796e-09
4.23968e-09
1.0119e-08
-1.09791e-08
-5.09271e-09
5.81524e-09
8.88007e-09
-9.6026e-09
-6.47526e-09
6.99277e-09
7.32803e-09
-7.84554e-09
-7.4331e-09
7.74336e-09
5.71959e-09
-6.02985e-09
-7.97452e-09
8.10665e-09
4.24045e-09
-4.37258e-09
-8.16609e-09
8.15237e-09
2.97217e-09
-2.95845e-09
-8.07769e-09
7.95587e-09
1.91707e-09
-1.79525e-09
-7.78087e-09
7.57331e-09
1.0401e-09
-8.32541e-10
-7.31628e-09
7.03708e-09
2.98238e-10
-1.90324e-11
-6.70756e-09
6.36315e-09
-3.203e-10
6.64718e-10
-5.96865e-09
5.56621e-09
-8.06535e-10
1.20898e-09
-5.11707e-09
4.67105e-09
-1.14446e-09
1.59048e-09
-4.18668e-09
3.71844e-09
-1.33246e-09
1.8007e-09
-3.22342e-09
2.7571e-09
-1.39052e-09
1.85684e-09
-2.27525e-09
1.83115e-09
-1.34877e-09
1.79286e-09
6.93161e-08
-7.47652e-08
5.44914e-09
-1.58853e-08
3.38858e-08
1.27605e-07
-1.45605e-07
-4.69956e-08
5.87665e-08
8.39103e-08
-9.56812e-08
-7.71987e-08
8.63677e-08
6.14382e-08
-7.06072e-08
-9.58282e-08
9.99542e-08
1.67497e-08
-2.08757e-08
-1.01295e-07
9.79685e-08
-3.95161e-08
4.28421e-08
-9.18664e-08
8.4376e-08
-7.14579e-08
7.89483e-08
-7.29384e-08
6.31931e-08
-8.87579e-08
9.85031e-08
-5.12118e-08
4.10282e-08
-8.86619e-08
9.88456e-08
-3.18973e-08
2.47896e-08
-6.52599e-08
7.23675e-08
-1.84607e-08
1.37121e-08
-3.54983e-08
4.02469e-08
-9.83358e-09
7.29852e-09
-9.97892e-09
1.2514e-08
-5.73039e-09
4.99675e-09
4.65348e-09
-3.91985e-09
-4.9569e-09
5.26907e-09
1.07904e-08
-1.11025e-08
-5.88964e-09
6.55994e-09
1.22628e-08
-1.29331e-08
-7.26595e-09
7.87207e-09
1.1678e-08
-1.22841e-08
-8.41412e-09
8.83166e-09
1.01334e-08
-1.05509e-08
-9.1588e-09
9.3704e-09
8.17295e-09
-8.38454e-09
-9.49228e-09
9.52236e-09
6.16033e-09
-6.19041e-09
-9.46797e-09
9.34176e-09
4.34334e-09
-4.21713e-09
-9.14408e-09
8.90464e-09
2.80573e-09
-2.5663e-09
-8.60449e-09
8.28546e-09
1.55337e-09
-1.23434e-09
-7.91985e-09
7.55116e-09
5.29183e-10
-1.60488e-10
-7.14718e-09
6.7522e-09
-3.29903e-10
7.2488e-10
-6.32688e-09
5.91701e-09
-1.05192e-09
1.46179e-09
-5.48103e-09
5.06453e-09
-1.62753e-09
2.04403e-09
-4.62473e-09
4.20783e-09
-2.03191e-09
2.44881e-09
-3.77181e-09
3.3626e-09
-2.2497e-09
2.65892e-09
-2.93994e-09
2.54788e-09
-2.29698e-09
2.68903e-09
-2.14752e-09
1.78119e-09
-2.20848e-09
2.57481e-09
8.00627e-08
-8.51978e-08
5.13514e-09
-1.56242e-08
3.37591e-08
1.63671e-07
-1.81806e-07
-4.70125e-08
5.86342e-08
1.07388e-07
-1.19009e-07
-7.73861e-08
8.67577e-08
7.98745e-08
-8.92461e-08
-9.62092e-08
1.00596e-07
2.51228e-08
-2.95098e-08
-1.02012e-07
9.85881e-08
-4.62147e-08
4.96385e-08
-9.25173e-08
8.49511e-08
-8.64756e-08
9.40418e-08
-7.32876e-08
6.343e-08
-1.083e-07
1.18158e-07
-5.10748e-08
4.06452e-08
-1.09135e-07
1.19565e-07
-3.14328e-08
2.42329e-08
-7.9488e-08
8.66879e-08
-1.79226e-08
1.33284e-08
-4.48745e-08
4.94686e-08
-9.69046e-09
7.40138e-09
-1.49052e-08
1.71942e-08
-6.08652e-09
5.54157e-09
3.28254e-09
-2.73759e-09
-5.6772e-09
6.07578e-09
1.1449e-08
-1.18476e-08
-6.75376e-09
7.42391e-09
1.35885e-08
-1.42587e-08
-8.09573e-09
8.64647e-09
1.28461e-08
-1.33968e-08
-9.11656e-09
9.45785e-09
1.09079e-08
-1.12492e-08
-9.70518e-09
9.83967e-09
8.53883e-09
-8.67331e-09
-9.88703e-09
9.84179e-09
6.16614e-09
-6.1209e-09
-9.70745e-09
9.50525e-09
4.04005e-09
-3.83784e-09
-9.2256e-09
8.9021e-09
2.27289e-09
-1.94938e-09
-8.51497e-09
8.11048e-09
8.63419e-10
-4.58931e-10
-7.65732e-09
7.20986e-09
-2.53759e-10
7.01214e-10
-6.72915e-09
6.27233e-09
-1.15486e-09
1.61168e-09
-5.79584e-09
5.35349e-09
-1.88906e-09
2.33141e-09
-4.90213e-09
4.4899e-09
-2.4564e-09
2.86863e-09
-4.07426e-09
3.69716e-09
-2.84156e-09
3.21866e-09
-3.31905e-09
2.97742e-09
-3.02889e-09
3.37053e-09
-2.63516e-09
2.32554e-09
-3.03384e-09
3.34346e-09
-2.01471e-09
1.73344e-09
-2.89256e-09
3.17383e-09
9.01535e-08
-9.49106e-08
4.75708e-09
-1.53187e-08
3.36108e-08
2.00015e-07
-2.18308e-07
-4.7087e-08
5.84883e-08
1.30531e-07
-1.41932e-07
-7.76744e-08
8.72615e-08
9.87259e-08
-1.08313e-07
-9.67116e-08
1.01437e-07
3.40561e-08
-3.87814e-08
-1.02942e-07
9.93975e-08
-5.31199e-08
5.66649e-08
-9.33643e-08
8.57121e-08
-1.0165e-07
1.09302e-07
-7.37817e-08
6.37858e-08
-1.28082e-07
1.38078e-07
-5.09534e-08
4.01846e-08
-1.30156e-07
1.40925e-07
-3.08419e-08
2.34175e-08
-9.39949e-08
1.01419e-07
-1.6928e-08
1.22848e-08
-5.40762e-08
5.87193e-08
-8.70055e-09
6.54692e-09
-1.94085e-08
2.15621e-08
-5.42012e-09
5.05457e-09
2.28235e-09
-1.9168e-09
-5.39937e-09
5.93237e-09
1.23075e-08
-1.28405e-08
-6.742e-09
7.49084e-09
1.49589e-08
-1.57077e-08
-8.22124e-09
8.80366e-09
1.39554e-08
-1.45379e-08
-9.30344e-09
9.66478e-09
1.15933e-08
-1.19546e-08
-9.93081e-09
1.00855e-08
8.81189e-09
-8.96657e-09
-1.01439e-08
1.01049e-08
6.07308e-09
-6.03405e-09
-9.97004e-09
9.75869e-09
3.62862e-09
-3.41727e-09
-9.46256e-09
9.11537e-09
1.61123e-09
-1.26405e-09
-8.69609e-09
8.25564e-09
3.29018e-11
4.07551e-10
-7.7624e-09
7.27477e-09
-1.17233e-09
1.65996e-09
-6.75232e-09
6.25724e-09
-2.09057e-09
2.58566e-09
-5.74534e-09
5.27593e-09
-2.78818e-09
3.25758e-09
-4.8039e-09
4.37944e-09
-3.28535e-09
3.7098e-09
-3.95958e-09
3.58714e-09
-3.58942e-09
3.96186e-09
-3.22168e-09
2.89806e-09
-3.69759e-09
4.02121e-09
-2.58004e-09
2.29665e-09
-3.63327e-09
3.91665e-09
-2.01561e-09
1.76276e-09
-3.43389e-09
3.68673e-09
9.94495e-08
-1.03749e-07
4.29976e-09
-1.49277e-08
3.34394e-08
2.36698e-07
-2.55209e-07
-4.71849e-08
5.82815e-08
1.53192e-07
-1.64289e-07
-7.80231e-08
8.78192e-08
1.18005e-07
-1.27801e-07
-9.72838e-08
1.02428e-07
4.37057e-08
-4.885e-08
-1.04043e-07
1.0035e-07
-6.02802e-08
6.39736e-08
-9.43616e-08
8.66123e-08
-1.17001e-07
1.2475e-07
-7.43846e-08
6.42258e-08
-1.48151e-07
1.5831e-07
-5.08087e-08
3.96332e-08
-1.51888e-07
1.63063e-07
-3.0179e-08
2.25026e-08
-1.08967e-07
1.16643e-07
-1.57879e-08
1.10471e-08
-6.34083e-08
6.81491e-08
-7.4611e-09
5.41398e-09
-2.36617e-08
2.57088e-08
-4.46469e-09
4.29142e-09
1.64452e-09
-1.47126e-09
-4.87993e-09
5.58113e-09
1.34571e-08
-1.41583e-08
-6.56902e-09
7.43485e-09
1.65123e-08
-1.73781e-08
-8.25765e-09
8.91642e-09
1.51568e-08
-1.58156e-08
-9.47615e-09
9.88525e-09
1.23389e-08
-1.2748e-08
-1.02027e-08
1.03976e-08
9.13797e-09
-9.3329e-09
-1.04974e-08
1.04885e-08
6.01006e-09
-6.00113e-09
-1.03813e-08
1.01859e-08
3.21436e-09
-3.01898e-09
-9.89592e-09
9.54911e-09
9.16344e-10
-5.69535e-10
-9.12141e-09
8.66922e-09
-8.55047e-10
1.30724e-09
-8.15717e-09
7.64831e-09
-2.15928e-09
2.66815e-09
-7.10278e-09
6.58543e-09
-3.09286e-09
3.6102e-09
-6.0499e-09
5.55687e-09
-3.739e-09
4.23203e-09
-5.06079e-09
4.61431e-09
-4.14454e-09
4.59101e-09
-4.17249e-09
3.78001e-09
-4.34231e-09
4.7348e-09
-3.39509e-09
3.05399e-09
-4.35048e-09
4.69157e-09
-2.71829e-09
2.41903e-09
-4.20396e-09
4.50322e-09
-2.1221e-09
1.85518e-09
-3.94274e-09
4.20965e-09
1.07788e-07
-1.11545e-07
3.75696e-09
-1.44394e-08
3.32698e-08
2.73867e-07
-2.92697e-07
-4.73118e-08
5.8001e-08
1.75195e-07
-1.85885e-07
-7.84278e-08
8.84199e-08
1.37698e-07
-1.4769e-07
-9.79167e-08
1.03563e-07
5.4235e-08
-5.98816e-08
-1.05317e-07
1.01445e-07
-6.77524e-08
7.16241e-08
-9.55073e-08
8.76507e-08
-1.32553e-07
1.40409e-07
-7.51093e-08
6.47568e-08
-1.68562e-07
1.78914e-07
-5.06217e-08
3.89712e-08
-1.74468e-07
1.86119e-07
-2.94434e-08
2.14887e-08
-1.24455e-07
1.32409e-07
-1.45108e-08
9.65524e-09
-7.29455e-08
7.7801e-08
-6.04565e-09
4.10813e-09
-2.77024e-08
2.964e-08
-3.35082e-09
3.39981e-09
1.40383e-09
-1.45283e-09
-4.27099e-09
5.16967e-09
1.4955e-08
-1.58537e-08
-6.37331e-09
7.38078e-09
1.83128e-08
-1.93202e-08
-8.31909e-09
9.06243e-09
1.65166e-08
-1.726e-08
-9.69563e-09
1.01599e-08
1.31873e-08
-1.36515e-08
-1.05324e-08
1.07871e-08
9.55657e-09
-9.81128e-09
-1.09388e-08
1.0975e-08
6.01755e-09
-6.05379e-09
-1.09057e-08
1.07356e-08
2.83637e-09
-2.66625e-09
-1.04631e-08
1.01227e-08
2.24419e-10
1.16066e-10
-9.69471e-09
9.23512e-09
-1.76374e-09
2.22333e-09
-8.71224e-09
8.18948e-09
-3.18368e-09
3.70643e-09
-7.62691e-09
7.09066e-09
-4.1363e-09
4.67256e-09
-6.53245e-09
6.01702e-09
-4.73614e-09
5.25157e-09
-5.49466e-09
5.0208e-09
-5.05043e-09
5.52429e-09
-4.54775e-09
4.12387e-09
-5.1419e-09
5.56578e-09
-3.7036e-09
3.32775e-09
-5.0489e-09
5.42475e-09
-2.95476e-09
2.61984e-09
-4.81888e-09
5.15379e-09
-2.28598e-09
1.98456e-09
-4.49227e-09
4.7937e-09
1.14997e-07
-1.18121e-07
3.12357e-09
-1.38446e-08
3.3117e-08
3.11734e-07
-3.31006e-07
-4.74892e-08
5.76552e-08
1.96328e-07
-2.06494e-07
-7.88974e-08
8.90699e-08
1.57774e-07
-1.67947e-07
-9.86199e-08
1.04859e-07
6.58129e-08
-7.20519e-08
-1.0679e-07
1.02708e-07
-7.5597e-08
7.96785e-08
-9.68151e-08
8.88462e-08
-1.48322e-07
1.56291e-07
-7.59926e-08
6.54072e-08
-1.89378e-07
1.99964e-07
-5.03845e-08
3.81909e-08
-1.98033e-07
2.10227e-07
-2.8653e-08
2.03801e-08
-1.40518e-07
1.4879e-07
-1.30819e-08
8.09362e-09
-8.27207e-08
8.7709e-08
-4.4352e-09
2.61966e-09
-3.15184e-08
3.3334e-08
-2.08026e-09
2.38803e-09
1.62692e-09
-1.93469e-09
-3.59496e-09
4.7229e-09
1.68612e-08
-1.79892e-08
-6.1853e-09
7.35558e-09
2.04067e-08
-2.1577e-08
-8.42081e-09
9.25042e-09
1.80441e-08
-1.88737e-08
-9.96221e-09
1.04867e-08
1.41483e-08
-1.46728e-08
-1.09254e-08
1.12423e-08
1.00955e-08
-1.04124e-08
-1.14589e-08
1.15489e-08
6.11691e-09
-6.20686e-09
-1.15262e-08
1.13919e-08
2.5131e-09
-2.3788e-09
-1.11378e-08
1.08084e-08
-4.51406e-10
7.80883e-10
-1.03803e-08
9.91452e-09
-2.68511e-09
3.15085e-09
-9.37738e-09
8.83755e-09
-4.23509e-09
4.77492e-09
-8.25377e-09
7.69414e-09
-5.21915e-09
5.77879e-09
-7.10958e-09
6.56577e-09
-5.78033e-09
6.32414e-09
-6.01079e-09
5.50382e-09
-6.01433e-09
6.5213e-09
-4.99316e-09
4.53085e-09
-6.00817e-09
6.47047e-09
-4.06851e-09
3.65068e-09
-5.82082e-09
6.23865e-09
-3.23329e-09
2.8563e-09
-5.5095e-09
5.88649e-09
-2.47835e-09
2.13703e-09
-5.11516e-09
5.45648e-09
1.20893e-07
-1.2329e-07
2.397e-09
-1.31257e-08
3.29659e-08
3.50545e-07
-3.70385e-07
-4.77339e-08
5.72321e-08
2.16347e-07
-2.25845e-07
-7.94079e-08
8.97438e-08
1.78202e-07
-1.88538e-07
-9.93687e-08
1.063e-07
7.86234e-08
-8.55548e-08
-1.0845e-07
1.04132e-07
-8.38751e-08
8.81925e-08
-9.82561e-08
9.01848e-08
-1.64313e-07
1.72384e-07
-7.70576e-08
6.61865e-08
-2.10683e-07
2.21554e-07
-5.00633e-08
3.72702e-08
-2.22713e-07
2.35506e-07
-2.78295e-08
1.9181e-08
-1.57242e-07
1.6589e-07
-1.14825e-08
6.33802e-09
-9.27713e-08
9.79158e-08
-2.59844e-09
9.15664e-10
-3.5083e-08
3.67657e-08
-6.44403e-10
1.25154e-09
2.38876e-09
-2.99589e-09
-2.85397e-09
4.24471e-09
1.92446e-08
-2.06353e-08
-6.01272e-09
7.37423e-09
2.28388e-08
-2.42003e-08
-8.56656e-09
9.50036e-09
1.97564e-08
-2.06902e-08
-1.02788e-08
1.08582e-08
1.52256e-08
-1.5805e-08
-1.13664e-08
1.17584e-08
1.07651e-08
-1.1157e-08
-1.20516e-08
1.22125e-08
6.33457e-09
-6.49549e-09
-1.22491e-08
1.21554e-08
2.26445e-09
-2.17075e-09
-1.19274e-08
1.16066e-08
-1.10745e-09
1.42826e-09
-1.11737e-08
1.06923e-08
-3.62257e-09
4.10398e-09
-1.01344e-08
9.57088e-09
-5.32476e-09
5.88832e-09
-8.95719e-09
8.36708e-09
-6.35254e-09
6.94265e-09
-7.74764e-09
7.16931e-09
-6.88514e-09
7.46347e-09
-6.57466e-09
6.02884e-09
-7.04721e-09
7.59303e-09
-5.47473e-09
4.96973e-09
-6.95361e-09
7.45861e-09
-4.46139e-09
3.99957e-09
-6.67813e-09
7.13994e-09
-3.53526e-09
3.11434e-09
-6.28532e-09
6.70623e-09
-2.69094e-09
2.3068e-09
-5.81853e-09
6.20266e-09
1.25293e-07
-1.26895e-07
1.60235e-09
-1.22625e-08
3.28029e-08
3.90559e-07
-4.11099e-07
-4.80525e-08
5.67244e-08
2.34947e-07
-2.43619e-07
-7.99346e-08
9.04287e-08
1.98953e-07
-2.09447e-07
-1.00155e-07
1.07895e-07
9.28752e-08
-1.00615e-07
-1.10301e-07
1.05744e-07
-9.26321e-08
9.71898e-08
-9.97958e-08
9.16634e-08
-1.80495e-07
1.88627e-07
-7.83687e-08
6.7113e-08
-2.326e-07
2.43856e-07
-4.96166e-08
3.61922e-08
-2.48614e-07
2.62038e-07
-2.70239e-08
1.79064e-08
-1.74759e-07
1.83876e-07
-9.6934e-09
4.35376e-09
-1.03151e-07
1.08491e-07
-5.01982e-10
-9.49355e-10
-3.83701e-08
3.98214e-08
9.26791e-10
5.43727e-12
3.75756e-09
-4.68979e-09
-2.04243e-09
3.75128e-09
2.21786e-08
-2.38875e-08
-5.87251e-09
7.44542e-09
2.5663e-08
-2.72359e-08
-8.7668e-09
9.80682e-09
2.16707e-08
-2.27107e-08
-1.06486e-08
1.12709e-08
1.64072e-08
-1.70295e-08
-1.18573e-08
1.23333e-08
1.15919e-08
-1.20679e-08
-1.27149e-08
1.29695e-08
6.69744e-09
-6.95201e-09
-1.30854e-08
1.30417e-08
2.09866e-09
-2.05488e-09
-1.28425e-08
1.25275e-08
-1.74517e-09
2.06018e-09
-1.20833e-08
1.15819e-08
-4.5945e-09
5.09589e-09
-1.09904e-08
1.03913e-08
-6.46839e-09
7.06752e-09
-9.73654e-09
9.1051e-09
-7.55131e-09
8.18274e-09
-8.44176e-09
7.81919e-09
-8.06301e-09
8.68557e-09
-7.17846e-09
6.5874e-09
-8.16057e-09
8.75163e-09
-5.98539e-09
5.43485e-09
-7.98583e-09
8.53637e-09
-4.87793e-09
4.37034e-09
-7.6245e-09
8.13208e-09
-3.85855e-09
3.39242e-09
-7.14985e-09
7.61598e-09
-2.92253e-09
2.49608e-09
-6.60798e-09
7.03444e-09
1.28076e-07
-1.28827e-07
7.50608e-10
-1.12286e-08
3.2619e-08
4.32045e-07
-4.53436e-07
-4.8414e-08
5.61261e-08
2.51829e-07
-2.59542e-07
-8.04465e-08
9.1126e-08
2.20028e-07
-2.30707e-07
-1.00988e-07
1.09676e-07
1.08811e-07
-1.17499e-07
-1.12366e-07
1.07617e-07
-1.01854e-07
1.06603e-07
-1.01359e-07
9.33014e-08
-1.96751e-07
2.04809e-07
-8.00721e-08
6.81835e-08
-2.5538e-07
2.67269e-07
-4.89776e-08
3.49454e-08
-2.75776e-07
2.89809e-07
-2.63412e-08
1.65856e-08
-1.9329e-07
2.03045e-07
-7.69182e-09
2.08005e-09
-1.13956e-07
1.19568e-07
1.82363e-09
-3.0407e-09
-4.11553e-08
4.23724e-08
2.71314e-09
-1.36763e-09
5.82478e-09
-7.17029e-09
-1.16878e-09
3.24093e-09
2.57738e-08
-2.7846e-08
-5.78652e-09
7.5976e-09
2.89233e-08
-3.07344e-08
-9.03811e-09
1.01933e-08
2.38039e-08
-2.4959e-08
-1.10762e-08
1.1721e-08
1.76703e-08
-1.83151e-08
-1.23954e-08
1.29644e-08
1.25882e-08
-1.31572e-08
-1.34558e-08
1.38294e-08
7.25992e-09
-7.63355e-09
-1.4052e-08
1.40708e-08
2.03802e-09
-2.05673e-09
-1.39028e-08
1.35892e-08
-2.3732e-09
2.68677e-09
-1.3126e-08
1.25896e-08
-5.6123e-09
6.14863e-09
-1.1955e-08
1.1307e-08
-7.68901e-09
8.33703e-09
-1.05993e-08
9.91624e-09
-8.83818e-09
9.52123e-09
-9.19701e-09
8.52176e-09
-9.33312e-09
1.00084e-08
-7.82593e-09
7.18209e-09
-9.36834e-09
1.00122e-08
-6.52583e-09
5.92303e-09
-9.11221e-09
9.71501e-09
-5.31228e-09
4.75517e-09
-8.66379e-09
9.2209e-09
-4.19307e-09
3.68159e-09
-8.10446e-09
8.61593e-09
-3.16693e-09
2.7003e-09
-7.48121e-09
7.94783e-09
1.29152e-07
-1.28958e-07
-1.94836e-10
-9.98307e-09
3.23918e-08
4.75311e-07
-4.9772e-07
-4.88082e-08
5.53879e-08
2.66713e-07
-2.73292e-07
-8.08525e-08
9.17994e-08
2.41504e-07
-2.52451e-07
-1.01853e-07
1.1164e-07
1.26719e-07
-1.36506e-07
-1.14637e-07
1.09797e-07
-1.11409e-07
1.16248e-07
-1.02721e-07
9.51838e-08
-2.12695e-07
2.20231e-07
-8.23848e-08
6.92306e-08
-2.79674e-07
2.92828e-07
-4.79853e-08
3.35132e-08
-3.04096e-07
3.18569e-07
-2.58329e-08
1.52573e-08
-2.13212e-07
2.23788e-07
-5.4425e-09
-5.30352e-10
-1.25376e-07
1.31349e-07
4.47162e-09
-5.41449e-09
-4.3442e-08
4.43848e-08
4.7239e-09
-2.89358e-09
8.75326e-09
-1.05836e-08
-2.21194e-10
2.73457e-09
3.01325e-08
-3.26459e-08
-5.78048e-09
7.8507e-09
3.26735e-08
-3.47437e-08
-9.39504e-09
1.06768e-08
2.61723e-08
-2.74541e-08
-1.15581e-08
1.21964e-08
1.89703e-08
-1.96086e-08
-1.29656e-08
1.36433e-08
1.37805e-08
-1.44581e-08
-1.42678e-08
1.48149e-08
8.08515e-09
-8.63225e-09
-1.51847e-08
1.52745e-08
2.11076e-09
-2.20054e-09
-1.51339e-08
1.4813e-08
-3.00189e-09
3.32272e-09
-1.43167e-08
1.37347e-08
-6.70682e-09
7.28883e-09
-1.3039e-08
1.23292e-08
-9.01475e-09
9.72459e-09
-1.15524e-08
1.08065e-08
-1.02347e-08
1.09806e-08
-1.00209e-08
9.28442e-09
-1.07126e-08
1.14491e-08
-8.52577e-09
7.8247e-09
-1.06837e-08
1.13848e-08
-7.10997e-09
6.45375e-09
-1.03446e-08
1.10008e-08
-5.78803e-09
5.17944e-09
-9.8042e-09
1.04128e-08
-4.56447e-09
4.00476e-09
-9.15094e-09
9.71064e-09
-3.44104e-09
2.92954e-09
-8.43564e-09
8.94714e-09
1.28224e-07
-1.2694e-07
-1.28414e-09
-8.46863e-09
3.20963e-08
5.20711e-07
-5.44339e-07
-4.92529e-08
5.44422e-08
2.79217e-07
-2.84407e-07
-8.1034e-08
9.24258e-08
2.63591e-07
-2.74982e-07
-1.02775e-07
1.13792e-07
1.46893e-07
-1.5791e-07
-1.17188e-07
1.12234e-07
-1.21123e-07
1.26077e-07
-1.03671e-07
9.76989e-08
-2.27154e-07
2.33125e-07
-8.54316e-08
6.97876e-08
-3.07046e-07
3.2269e-07
-4.63775e-08
3.19326e-08
-3.33116e-07
3.47561e-07
-2.55717e-08
1.39758e-08
-2.3488e-07
2.46476e-07
-2.90606e-09
-3.29375e-09
-1.37524e-07
1.43724e-07
7.52516e-09
-8.12804e-09
-4.50996e-08
4.57025e-08
6.97292e-09
-4.58467e-09
1.27311e-08
-1.51193e-08
7.09317e-10
2.29277e-09
3.53576e-08
-3.83597e-08
-5.89858e-09
8.23782e-09
3.69621e-08
-3.93013e-08
-9.86648e-09
1.12899e-08
2.88094e-08
-3.02328e-08
-1.209e-08
1.26773e-08
2.02366e-08
-2.08239e-08
-1.35756e-08
1.4365e-08
1.5189e-08
-1.59783e-08
-1.5139e-08
1.59552e-08
9.29925e-09
-1.01154e-08
-1.65342e-08
1.67015e-08
2.32788e-09
-2.49522e-09
-1.65716e-08
1.62255e-08
-3.65264e-09
3.99872e-09
-1.56766e-08
1.50299e-08
-7.90044e-09
8.54721e-09
-1.42536e-08
1.34633e-08
-1.04724e-08
1.12627e-08
-1.26028e-08
1.1776e-08
-1.17659e-08
1.25927e-08
-1.09099e-08
1.01015e-08
-1.22203e-08
1.30287e-08
-9.27175e-09
8.5071e-09
-1.21159e-08
1.28806e-08
-7.72987e-09
7.01849e-09
-1.16837e-08
1.23951e-08
-6.29782e-09
5.63885e-09
-1.10461e-08
1.1705e-08
-4.97162e-09
4.36224e-09
-1.02953e-08
1.09047e-08
-3.74544e-09
3.18439e-09
-9.48355e-09
1.00446e-08
1.25082e-07
-1.22626e-07
-2.45574e-09
-6.59595e-09
3.16987e-08
5.68668e-07
-5.93771e-07
-4.97955e-08
5.31702e-08
2.88756e-07
-2.92131e-07
-8.08176e-08
9.29953e-08
2.86711e-07
-2.98889e-07
-1.03788e-07
1.16164e-07
1.6959e-07
-1.81966e-07
-1.20164e-07
1.14714e-07
-1.31212e-07
1.36663e-07
-1.04505e-07
1.01324e-07
-2.37813e-07
2.40994e-07
-8.86649e-08
6.93109e-08
-3.40097e-07
3.59452e-07
-4.39965e-08
3.04364e-08
-3.61698e-07
3.75258e-07
-2.5868e-08
1.28459e-08
-2.58791e-07
2.71814e-07
2.54383e-11
-6.43737e-09
-1.50235e-07
1.56647e-07
1.10173e-08
-1.12156e-08
-4.5956e-08
4.61543e-08
9.57106e-09
-6.46853e-09
1.79894e-08
-2.10919e-08
1.84273e-09
1.82973e-09
4.15605e-08
-4.52329e-08
-6.11898e-09
8.76343e-09
4.18206e-08
-4.44651e-08
-1.0501e-08
1.20646e-08
3.17415e-08
-3.33051e-08
-1.26432e-08
1.31562e-08
2.13735e-08
-2.18865e-08
-1.42611e-08
1.51407e-08
1.68227e-08
-1.77023e-08
-1.60757e-08
1.73392e-08
1.11241e-08
-1.23876e-08
-1.82624e-08
1.84806e-08
2.69751e-09
-2.9158e-09
-1.82898e-08
1.78674e-08
-4.37033e-09
4.79269e-09
-1.7239e-08
1.65038e-08
-9.23504e-09
9.97025e-09
-1.56248e-08
1.47304e-08
-1.21039e-08
1.29983e-08
-1.37666e-08
1.2846e-08
-1.34643e-08
1.4385e-08
-1.1885e-08
1.09918e-08
-1.3878e-08
1.47712e-08
-1.00777e-08
9.23688e-09
-1.36812e-08
1.4522e-08
-8.38186e-09
7.59917e-09
-1.31399e-08
1.39226e-08
-6.80784e-09
6.08699e-09
-1.23929e-08
1.31138e-08
-5.36089e-09
4.70181e-09
-1.15393e-08
1.21984e-08
-4.03986e-09
3.44125e-09
-1.06266e-08
1.12252e-08
1.19547e-07
-1.15817e-07
-3.72955e-09
-4.20482e-09
3.11253e-08
6.1973e-07
-6.4665e-07
-5.04896e-08
5.12962e-08
2.94348e-07
-2.95155e-07
-7.98465e-08
9.34647e-08
3.11672e-07
-3.2529e-07
-1.04886e-07
1.18775e-07
1.95076e-07
-2.08965e-07
-1.23569e-07
1.17151e-07
-1.42556e-07
1.48974e-07
-1.05834e-07
1.05503e-07
-2.42655e-07
2.42986e-07
-9.12159e-08
6.84467e-08
-3.80681e-07
4.03451e-07
-4.15808e-08
2.98396e-08
-3.88013e-07
3.99754e-07
-2.7043e-08
1.18489e-08
-2.85973e-07
3.01167e-07
3.40973e-09
-1.03859e-08
-1.63415e-07
1.70392e-07
1.46548e-08
-1.43786e-08
-4.57147e-08
4.54385e-08
1.26539e-08
-8.4272e-09
2.46571e-08
-2.88838e-08
2.77034e-09
1.52014e-09
4.90941e-08
-5.33845e-08
-6.46696e-09
9.44277e-09
4.72837e-08
-5.02595e-08
-1.12804e-08
1.29801e-08
3.49342e-08
-3.66338e-08
-1.31992e-08
1.37222e-08
2.23785e-08
-2.29015e-08
-1.51842e-08
1.59998e-08
1.85817e-08
-1.93973e-08
-1.71469e-08
1.93329e-08
1.40261e-08
-1.62122e-08
-2.08626e-08
2.09531e-08
3.11295e-09
-3.20349e-09
-2.0456e-08
1.98158e-08
-5.29623e-09
5.93649e-09
-1.90281e-08
1.81658e-08
-1.07649e-08
1.16273e-08
-1.71526e-08
1.6121e-08
-1.39539e-08
1.49855e-08
-1.50219e-08
1.39788e-08
-1.53636e-08
1.64067e-08
-1.2905e-08
1.19203e-08
-1.57096e-08
1.66942e-08
-1.0923e-08
1.0009e-08
-1.54008e-08
1.63147e-08
-9.07918e-09
8.22566e-09
-1.47426e-08
1.55961e-08
-7.36136e-09
6.57447e-09
-1.38687e-08
1.46556e-08
-5.78503e-09
5.07223e-09
-1.28825e-08
1.35953e-08
-4.36e-09
3.71883e-09
-1.18416e-08
1.24827e-08
1.11413e-07
-1.0631e-07
-5.10289e-09
-9.25237e-10
3.02493e-08
6.74665e-07
-7.0399e-07
-5.14383e-08
4.81313e-08
2.94183e-07
-2.90876e-07
-7.73214e-08
9.38544e-08
3.40091e-07
-3.56624e-07
-1.06098e-07
1.21633e-07
2.23668e-07
-2.39203e-07
-1.27366e-07
1.19833e-07
-1.55941e-07
1.63474e-07
-1.07254e-07
1.08956e-07
-2.42246e-07
2.40545e-07
-9.41206e-08
6.95717e-08
-4.27289e-07
4.51838e-07
-4.10813e-08
3.12147e-08
-4.10481e-07
4.20348e-07
-2.91328e-08
1.08222e-08
-3.17741e-07
3.36051e-07
7.70385e-09
-1.51893e-08
-1.77676e-07
1.85162e-07
1.9368e-08
-1.76857e-08
-4.44601e-08
4.27779e-08
1.55419e-08
-1.06068e-08
3.32485e-08
-3.81836e-08
3.91783e-09
1.17322e-09
5.81217e-08
-6.32127e-08
-7.04211e-09
1.04645e-08
5.34836e-08
-5.6906e-08
-1.2364e-08
1.40309e-08
3.83269e-08
-3.99938e-08
-1.38128e-08
1.475e-08
2.35674e-08
-2.45047e-08
-1.66336e-08
1.69506e-08
2.00425e-08
-2.03595e-08
-1.85395e-08
2.23949e-08
1.91591e-08
-2.30145e-08
-2.47777e-08
2.43318e-08
3.07151e-09
-2.62562e-09
-2.31648e-08
2.21249e-08
-6.76685e-09
7.80681e-09
-2.10752e-08
2.00614e-08
-1.25632e-08
1.3577e-08
-1.88905e-08
1.76792e-08
-1.61041e-08
1.73154e-08
-1.64144e-08
1.52324e-08
-1.75218e-08
1.87038e-08
-1.4037e-08
1.29524e-08
-1.77249e-08
1.88095e-08
-1.18583e-08
1.08646e-08
-1.72647e-08
1.82584e-08
-9.86425e-09
8.95389e-09
-1.64778e-08
1.73881e-08
-8.03395e-09
7.19307e-09
-1.54707e-08
1.63115e-08
-6.34028e-09
5.56073e-09
-1.43407e-08
1.51203e-08
-4.77165e-09
4.05551e-09
-1.31579e-08
1.3874e-08
1.00485e-07
-9.39131e-08
-6.57211e-09
2.78246e-09
2.88342e-08
7.34458e-07
-7.66075e-07
-5.28386e-08
4.18743e-08
2.84382e-07
-2.73418e-07
-7.12598e-08
9.43588e-08
3.75763e-07
-3.98862e-07
-1.07549e-07
1.24633e-07
2.55553e-07
-2.72637e-07
-1.31709e-07
1.22659e-07
-1.71662e-07
1.80712e-07
-1.07695e-07
1.12238e-07
-2.37675e-07
2.33132e-07
-9.95206e-08
7.30608e-08
-4.77108e-07
5.03567e-07
-4.29176e-08
3.3758e-08
-4.29607e-07
4.38767e-07
-2.97151e-08
9.76658e-09
-3.5601e-07
3.75958e-07
1.12728e-08
-1.91549e-08
-1.92296e-07
2.00178e-07
2.42186e-08
-2.22737e-08
-4.11771e-08
3.92322e-08
1.9107e-08
-1.30406e-08
4.39892e-08
-5.00557e-08
5.33218e-09
1.19435e-09
6.87644e-08
-7.5291e-08
-7.79562e-09
1.13317e-08
6.04506e-08
-6.39866e-08
-1.34116e-08
1.52195e-08
4.16974e-08
-4.35053e-08
-1.50559e-08
1.69086e-08
2.5824e-08
-2.76767e-08
-1.86196e-08
1.75549e-08
2.0144e-08
-1.90792e-08
-1.91056e-08
2.42974e-08
2.77048e-08
-3.28966e-08
-2.7623e-08
2.69571e-08
1.93497e-09
-1.2691e-09
-2.57818e-08
2.46578e-08
-9.00026e-09
1.01243e-08
-2.32985e-08
2.20812e-08
-1.46857e-08
1.59031e-08
-2.07655e-08
1.93478e-08
-1.86205e-08
2.00382e-08
-1.7896e-08
1.6547e-08
-1.99629e-08
2.1312e-08
-1.52038e-08
1.40016e-08
-1.99563e-08
2.11584e-08
-1.27965e-08
1.17101e-08
-1.92991e-08
2.03854e-08
-1.06196e-08
9.63109e-09
-1.83321e-08
1.93206e-08
-8.63788e-09
7.7323e-09
-1.71813e-08
1.80869e-08
-6.81659e-09
5.97968e-09
-1.59313e-08
1.67682e-08
-5.13304e-09
4.36441e-09
-1.46241e-08
1.53927e-08
8.65648e-08
-7.84078e-08
-8.15698e-09
8.19405e-09
2.65291e-08
7.991e-07
-8.33823e-07
-5.48674e-08
2.88083e-08
2.56134e-07
-2.30075e-07
-5.7572e-08
9.53809e-08
4.27932e-07
-4.65741e-07
-1.09636e-07
1.27537e-07
2.90276e-07
-3.08178e-07
-1.36678e-07
1.24694e-07
-1.90978e-07
2.02962e-07
-1.06385e-07
1.15611e-07
-2.26352e-07
2.17125e-07
-1.05133e-07
7.44916e-08
-5.32058e-07
5.62699e-07
-4.40006e-08
3.37581e-08
-4.48078e-07
4.58321e-07
-2.50182e-08
4.07086e-09
-3.96951e-07
4.17898e-07
2.00945e-08
-2.60397e-08
-2.0789e-07
2.13835e-07
2.95371e-08
-2.59294e-08
-3.5574e-08
3.19663e-08
2.28966e-08
-1.62251e-08
5.60979e-08
-6.27694e-08
7.27094e-09
1.38396e-09
8.30454e-08
-9.17003e-08
-8.64802e-09
1.26122e-08
6.75616e-08
-7.15258e-08
-1.52759e-08
1.68373e-08
4.52174e-08
-4.67788e-08
-1.73214e-08
1.99849e-08
3.0106e-08
-3.27695e-08
-2.00338e-08
1.66426e-08
1.68367e-08
-1.34456e-08
-1.7359e-08
2.23387e-08
3.81509e-08
-4.31306e-08
-2.57167e-08
2.5577e-08
9.24519e-10
-7.84832e-10
-2.67159e-08
2.73582e-08
-1.07153e-08
1.0073e-08
-2.6119e-08
2.45528e-08
-1.7269e-08
1.88352e-08
-2.29886e-08
2.11774e-08
-2.16174e-08
2.34285e-08
-1.93879e-08
1.78256e-08
-2.27667e-08
2.4329e-08
-1.63678e-08
1.51116e-08
-2.23967e-08
2.36529e-08
-1.3845e-08
1.26769e-08
-2.15148e-08
2.26829e-08
-1.14745e-08
1.03661e-08
-2.03638e-08
2.14722e-08
-9.24562e-09
8.23177e-09
-1.90398e-08
2.00537e-08
-7.22165e-09
6.3175e-09
-1.76327e-08
1.85368e-08
-5.42161e-09
4.62242e-09
-1.61714e-08
1.69706e-08
6.94058e-08
-5.95265e-08