/*--------------------------------*- C++ -*----------------------------------*\
| =========                 |                                                 |
| \\      /  F ield         | OpenFOAM: The Open Source CFD Toolbox           |
|  \\    /   O peration     | Version:  2.4.0                                 |
|   \\  /    A nd           | Web:      www.OpenFOAM.org                      |
|    \\/     M anipulation  |                                                 |
\*---------------------------------------------------------------------------*/
FoamFile
{
    version     2.0;
    format      ascii;
    class       surfaceScalarField;
    location    "0.322";
    object      phi;
}
// * * * * * * * * * * * * * * * * * * * * * * * * * * * * * * * * * * * * * //

dimensions      [0 3 -1 0 0 0 0];

internalField   nonuniform List<scalar> 
19800
(
-2.11473e-13
2.11473e-13
-3.20334e-13
8.56856e-14
-1.36114e-13
-1.85844e-13
3.20909e-13
-4.4893e-13
9.8595e-13
-6.60879e-13
1.80225e-12
-8.17491e-13
2.72674e-12
-9.27501e-13
3.72654e-12
-1.0021e-12
4.77584e-12
-1.05053e-12
5.8544e-12
-1.07922e-12
6.94663e-12
-1.09274e-12
8.04103e-12
-1.09488e-12
9.12969e-12
-1.08915e-12
1.0208e-11
-1.07887e-12
1.12745e-11
-1.06697e-12
1.23298e-11
-1.05584e-12
1.33766e-11
-1.04709e-12
1.4418e-11
-1.04137e-12
1.54566e-11
-1.03818e-12
1.64931e-11
-1.03576e-12
1.75253e-11
-1.03117e-12
1.8547e-11
-1.02053e-12
1.95479e-11
-9.99557e-13
2.05137e-11
-9.64307e-13
2.14272e-11
-9.12119e-13
2.22711e-11
-8.42536e-13
2.30303e-11
-7.58048e-13
2.36954e-11
-6.64373e-13
2.42657e-11
-5.69977e-13
2.47506e-11
-4.84746e-13
2.51687e-11
-4.17971e-13
2.55456e-11
-3.76489e-13
2.591e-11
-3.63657e-13
2.62912e-11
-3.80156e-13
2.67166e-11
-4.244e-13
2.72082e-11
-4.90828e-13
2.77794e-11
-5.71072e-13
2.84345e-11
-6.55496e-13
2.91684e-11
-7.34618e-13
2.99682e-11
-8.00256e-13
3.08145e-11
-8.46352e-13
3.16842e-11
-8.69386e-13
3.25529e-11
-8.68349e-13
3.33973e-11
-8.44351e-13
3.41969e-11
-8.00034e-13
3.4935e-11
-7.38977e-13
3.55993e-11
-6.65229e-13
3.61817e-11
-5.83001e-13
3.66779e-11
-4.9646e-13
-4.09533e-13
3.70871e-11
-8.78817e-14
3.24731e-13
2.29767e-13
-2.26734e-13
1.17085e-12
-1.13711e-12
2.705e-12
-1.98955e-12
4.71993e-12
-2.67766e-12
7.09927e-12
-3.19769e-12
9.74464e-12
-3.57464e-12
1.25773e-11
-3.83711e-12
1.55344e-11
-4.00949e-12
1.85648e-11
-4.11093e-12
2.16282e-11
-4.15682e-12
2.4693e-11
-4.1604e-12
2.7737e-11
-4.13388e-12
3.0746e-11
-4.08869e-12
3.37134e-11
-4.03514e-12
3.6639e-11
-3.98177e-12
3.95267e-11
-3.93454e-12
4.23821e-11
-3.896e-12
4.52099e-11
-3.86471e-12
4.80108e-11
-3.83487e-12
5.07783e-11
-3.79662e-12
5.3497e-11
-3.73697e-12
5.61416e-11
-3.6417e-12
5.86775e-11
-3.49783e-12
6.10643e-11
-3.29673e-12
6.32608e-11
-3.03714e-12
6.52316e-11
-2.72758e-12
6.69553e-11
-2.38739e-12
6.8431e-11
-2.04521e-12
6.96813e-11
-1.73465e-12
7.07517e-11
-1.48756e-12
7.17043e-11
-1.32761e-12
7.26092e-11
-1.26659e-12
7.35379e-11
-1.30693e-12
7.45579e-11
-1.44301e-12
7.57228e-11
-1.6554e-12
7.70664e-11
-1.91509e-12
7.8599e-11
-2.18901e-12
8.03085e-11
-2.4449e-12
8.21632e-11
-2.65508e-12
8.41161e-11
-2.79897e-12
8.61114e-11
-2.86428e-12
8.80899e-11
-2.84696e-12
8.99948e-11
-2.75013e-12
9.17756e-11
-2.58239e-12
9.33912e-11
-2.35615e-12
9.48106e-11
-2.08589e-12
9.60137e-11
-1.78683e-12
9.69904e-11
-1.4738e-12
-1.16036e-12
9.77401e-11
1.77444e-13
1.45663e-13
1.12204e-12
-1.15951e-12
2.91911e-12
-2.934e-12
5.49778e-12
-4.57228e-12
8.72074e-12
-5.9043e-12
1.24436e-11
-6.92283e-12
1.65376e-11
-7.67023e-12
2.0895e-11
-8.19574e-12
2.54264e-11
-8.54189e-12
3.00582e-11
-8.74327e-12
3.47299e-11
-8.82902e-12
3.93945e-11
-8.8253e-12
4.40169e-11
-8.75682e-12
4.85747e-11
-8.64697e-12
5.30562e-11
-8.51707e-12
5.74592e-11
-8.38494e-12
6.1788e-11
-8.26319e-12
6.60502e-11
-8.15757e-12
7.02519e-11
-8.06563e-12
7.43943e-11
-7.97609e-12
7.84684e-11
-7.86932e-12
8.24522e-11
-7.71931e-12
8.63096e-11
-7.49735e-12
8.99908e-11
-7.17723e-12
9.3437e-11
-6.74128e-12
9.65878e-11
-6.18656e-12
9.93912e-11
-5.53006e-12
1.01815e-10
-4.81101e-12
1.03859e-10
-4.08824e-12
1.05557e-10
-3.43141e-12
1.06977e-10
-2.90653e-12
1.08213e-10
-2.56194e-12
1.09369e-10
-2.41973e-12
1.10548e-10
-2.48379e-12
1.1185e-10
-2.74397e-12
1.13355e-10
-3.15957e-12
1.15109e-10
-3.67018e-12
1.17128e-10
-4.20788e-12
1.19389e-10
-4.70711e-12
1.21846e-10
-5.11195e-12
1.24428e-10
-5.38097e-12
1.27053e-10
-5.48956e-12
1.29636e-10
-5.42977e-12
1.32093e-10
-5.20822e-12
1.34351e-10
-4.84288e-12
1.36353e-10
-4.3595e-12
1.38055e-10
-3.78816e-12
1.39427e-10
-3.16028e-12
1.40459e-10
-2.50634e-12
-1.85406e-12
1.41152e-10
4.33721e-13
-2.96791e-13
1.95278e-12
-2.67547e-12
4.52543e-12
-5.50519e-12
8.01525e-12
-8.06372e-12
1.22535e-11
-1.01453e-11
1.7075e-11
-1.17466e-11
2.23321e-11
-1.29286e-11
2.78977e-11
-1.37621e-11
3.36641e-11
-1.43085e-11
3.95401e-11
-1.46194e-11
4.54502e-11
-1.47392e-11
5.13341e-11
-1.47093e-11
5.71468e-11
-1.45697e-11
6.28585e-11
-1.43589e-11
6.84535e-11
-1.41123e-11
7.39285e-11
-1.38601e-11
7.92892e-11
-1.36238e-11
8.45457e-11
-1.34139e-11
8.97077e-11
-1.32273e-11
9.47785e-11
-1.30464e-11
9.97493e-11
-1.28394e-11
1.04595e-10
-1.25636e-11
1.0927e-10
-1.21714e-11
1.13712e-10
-1.16184e-11
1.17846e-10
-1.08739e-11
1.21592e-10
-9.93107e-12
1.24879e-10
-8.81642e-12
1.27663e-10
-7.59457e-12
1.29941e-10
-6.36521e-12
1.31759e-10
-5.24837e-12
1.33213e-10
-4.35767e-12
1.34427e-10
-3.77371e-12
1.35536e-10
-3.52603e-12
1.36672e-10
-3.61713e-12
1.37965e-10
-4.03604e-12
1.39517e-10
-4.71167e-12
1.41386e-10
-5.53959e-12
1.43583e-10
-6.40544e-12
1.46077e-10
-7.2009e-12
1.48799e-10
-7.83467e-12
1.51658e-10
-8.23999e-12
1.54547e-10
-8.37815e-12
1.57354e-10
-8.23807e-12
1.59977e-10
-7.83262e-12
1.62326e-10
-7.19323e-12
1.64329e-10
-6.36378e-12
1.65934e-10
-5.39485e-12
1.67113e-10
-4.33879e-12
1.67852e-10
-3.24588e-12
-2.16172e-12
1.68159e-10
6.39047e-13
-9.39789e-13
2.62781e-12
-4.66731e-12
5.8473e-12
-8.72535e-12
1.0098e-11
-1.23155e-11
1.51749e-11
-1.52239e-11
2.08905e-11
-1.74637e-11
2.70805e-11
-1.91195e-11
3.36028e-11
-2.02846e-11
4.03346e-11
-2.10403e-11
4.71709e-11
-2.14554e-11
5.4023e-11
-2.15911e-11
6.08197e-11
-2.15059e-11
6.75074e-11
-2.12574e-11
7.40504e-11
-2.0902e-11
8.04305e-11
-2.04926e-11
8.66447e-11
-2.00745e-11
9.27016e-11
-1.96809e-11
9.86166e-11
-1.9329e-11
1.04405e-10
-1.90162e-11
1.10077e-10
-1.87178e-11
1.15626e-10
-1.8388e-11
1.21026e-10
-1.79631e-11
1.26226e-10
-1.7371e-11
1.31152e-10
-1.65435e-11
1.3571e-10
-1.54307e-11
1.39797e-10
-1.40174e-11
1.4332e-10
-1.23384e-11
1.46215e-10
-1.04887e-11
1.48474e-10
-8.62178e-12
1.50155e-10
-6.92793e-12
1.51388e-10
-5.58772e-12
1.52341e-10
-4.72371e-12
1.53177e-10
-4.36002e-12
1.54051e-10
-4.4896e-12
1.55132e-10
-5.11599e-12
1.56543e-10
-6.12294e-12
1.58347e-10
-7.34393e-12
1.60547e-10
-8.6049e-12
1.63091e-10
-9.74562e-12
1.6589e-10
-1.06334e-11
1.68823e-10
-1.1173e-11
1.71756e-10
-1.13119e-11
1.74555e-10
-1.10385e-11
1.77098e-10
-1.03767e-11
1.7928e-10
-9.37671e-12
1.81022e-10
-8.10642e-12
1.82268e-10
-6.64218e-12
1.82991e-10
-5.06184e-12
1.83184e-10
-3.43931e-12
-1.84108e-12
1.82863e-10
7.92861e-13
-1.73253e-12
3.15606e-12
-7.03459e-12
6.90491e-12
-1.24764e-11
1.17882e-11
-1.72001e-11
1.75655e-11
-2.10022e-11
2.40252e-11
-2.39242e-11
3.09853e-11
-2.608e-11
3.82885e-11
-2.75878e-11
4.57983e-11
-2.85498e-11
5.33961e-11
-2.90529e-11
6.09815e-11
-2.91763e-11
6.84728e-11
-2.89971e-11
7.58086e-11
-2.85931e-11
8.29483e-11
-2.80418e-11
8.98724e-11
-2.74169e-11
9.658e-11
-2.67823e-11
1.03085e-10
-2.61864e-11
1.09411e-10
-2.56555e-11
1.15584e-10
-2.5189e-11
1.21622e-10
-2.4756e-11
1.27528e-10
-2.42936e-11
1.33278e-10
-2.3713e-11
1.38819e-10
-2.29109e-11
1.44062e-10
-2.17867e-11
1.48895e-10
-2.02631e-11
1.53187e-10
-1.83083e-11
1.56811e-10
-1.59609e-11
1.59673e-10
-1.33494e-11
1.6175e-10
-1.06968e-11
1.63118e-10
-8.29385e-12
1.63953e-10
-6.41986e-12
1.64487e-10
-5.25653e-12
1.64915e-10
-4.78643e-12
1.65399e-10
-4.97202e-12
1.66162e-10
-5.87917e-12
1.67356e-10
-7.31673e-12
1.69039e-10
-9.0267e-12
1.71194e-10
-1.076e-11
1.73745e-10
-1.22962e-11
1.76568e-10
-1.34563e-11
1.7951e-10
-1.41151e-11
1.82406e-10
-1.42082e-11
1.85095e-10
-1.37288e-11
1.87436e-10
-1.27186e-11
1.89313e-10
-1.12545e-11
1.90641e-10
-9.43543e-12
1.91368e-10
-7.36945e-12
1.91471e-10
-5.16465e-12
1.90954e-10
-2.92205e-12
-7.31439e-13
1.89844e-10
9.08372e-13
-2.64042e-12
3.57441e-12
-9.70337e-12
7.76448e-12
-1.66688e-11
1.31864e-11
-2.26234e-11
1.95675e-11
-2.7384e-11
2.66718e-11
-3.10288e-11
3.42979e-11
-3.37062e-11
4.22723e-11
-3.55621e-11
5.04433e-11
-3.67207e-11
5.86786e-11
-3.72882e-11
6.68651e-11
-3.73627e-11
7.49103e-11
-3.70423e-11
8.27447e-11
-3.64276e-11
9.03233e-11
-3.56206e-11
9.7626e-11
-3.47198e-11
1.04656e-10
-3.38123e-11
1.11434e-10
-3.29655e-11
1.17997e-10
-3.22186e-11
1.24384e-10
-3.1576e-11
1.30629e-10
-3.1001e-11
1.36749e-10
-3.04126e-11
1.42726e-10
-2.96904e-11
1.48507e-10
-2.86916e-11
1.53995e-10
-2.72738e-11
1.59053e-10
-2.53201e-11
1.63515e-10
-2.27695e-11
1.67208e-10
-1.96529e-11
1.6999e-10
-1.61301e-11
1.71807e-10
-1.25112e-11
1.72749e-10
-9.23448e-12
1.73065e-10
-6.73418e-12
1.731e-10
-5.29145e-12
1.7307e-10
-4.75581e-12
1.73103e-10
-5.00478e-12
1.73528e-10
-6.30402e-12
1.74526e-10
-8.3152e-12
1.76139e-10
-1.06381e-11
1.78314e-10
-1.29343e-11
1.80937e-10
-1.49185e-11
1.83843e-10
-1.63617e-11
1.86836e-10
-1.71088e-11
1.89715e-10
-1.70876e-11
1.9229e-10
-1.63044e-11
1.94399e-10
-1.48287e-11
1.95919e-10
-1.27741e-11
1.96762e-10
-1.02791e-11
1.96883e-10
-7.49069e-12
1.96271e-10
-4.55195e-12
1.94943e-10
-1.5941e-12
1.26808e-12
1.92943e-10
1.00016e-12
-3.64126e-12
3.92079e-12
-1.26255e-11
8.49319e-12
-2.12427e-11
1.43922e-11
-2.85235e-11
2.13166e-11
-3.43089e-11
2.90066e-11
-3.8719e-11
3.72406e-11
-4.19402e-11
4.58268e-11
-4.41485e-11
5.45972e-11
-4.54912e-11
6.34037e-11
-4.60948e-11
7.21187e-11
-4.6078e-11
8.06374e-11
-4.55612e-11
8.88809e-11
-4.46713e-11
9.67991e-11
-4.3539e-11
1.04372e-10
-4.22925e-11
1.11607e-10
-4.10475e-11
1.18537e-10
-3.98957e-11
1.25212e-10
-3.88939e-11
1.31692e-10
-3.80557e-11
1.38033e-10
-3.73418e-11
1.44273e-10
-3.66513e-11
1.50408e-10
-3.58254e-11
1.56388e-10
-3.46716e-11
1.62109e-10
-3.29948e-11
1.67415e-10
-3.06245e-11
1.72097e-10
-2.74509e-11
1.75921e-10
-2.34755e-11
1.78666e-10
-1.88738e-11
1.80212e-10
-1.40558e-11
1.80657e-10
-9.67801e-12
1.80354e-10
-6.43201e-12
1.79872e-10
-4.80983e-12
1.7942e-10
-4.30424e-12
1.78977e-10
-4.56329e-12
1.79103e-10
-6.42921e-12
1.80012e-10
-9.22368e-12
1.8169e-10
-1.23149e-11
1.84032e-10
-1.5275e-11
1.86873e-10
-1.77585e-11
1.89996e-10
-1.94846e-11
1.93155e-10
-2.02683e-11
1.96104e-10
-2.00369e-11
1.98621e-10
-1.88209e-11
2.00524e-10
-1.67314e-11
2.01682e-10
-1.39316e-11
2.02013e-10
-1.06103e-11
2.01483e-10
-6.96091e-12
2.00097e-10
-3.1665e-12
1.97894e-10
6.0902e-13
4.22511e-12
1.94938e-10
1.07921e-12
-4.72176e-12
4.22509e-12
-1.57723e-11
9.14406e-12
-2.61624e-11
1.54841e-11
-3.48641e-11
2.29189e-11
-4.1744e-11
3.1166e-11
-4.69664e-11
3.9983e-11
-5.07576e-11
4.9159e-11
-5.33249e-11
5.8507e-11
-5.48398e-11
6.78611e-11
-5.54494e-11
7.70765e-11
-5.52938e-11
8.60332e-11
-5.45182e-11
9.46404e-11
-5.32787e-11
1.02841e-10
-5.17398e-11
1.10614e-10
-5.00657e-11
1.17974e-10
-4.84074e-11
1.24966e-10
-4.68872e-11
1.31658e-10
-4.55858e-11
1.38135e-10
-4.4532e-11
1.44484e-10
-4.36904e-11
1.50773e-10
-4.29398e-11
1.57022e-10
-4.20736e-11
1.63188e-10
-4.08374e-11
1.69168e-10
-3.89745e-11
1.74791e-10
-3.62468e-11
1.79811e-10
-3.24697e-11
1.83914e-10
-2.75773e-11
1.8676e-10
-2.1719e-11
1.88101e-10
-1.53952e-11
1.87997e-10
-9.57437e-12
1.86944e-10
-5.38023e-12
1.85982e-10
-3.84972e-12
1.85257e-10
-3.5815e-12
1.84298e-10
-3.60445e-12
1.84204e-10
-6.33531e-12
1.85209e-10
-1.0227e-11
1.87161e-10
-1.4265e-11
1.89874e-10
-1.79873e-11
1.93129e-10
-2.10128e-11
1.96649e-10
-2.30043e-11
2.00127e-10
-2.37461e-11
2.03264e-10
-2.31736e-11
2.05802e-10
-2.13581e-11
2.07541e-10
-1.847e-11
2.08348e-10
-1.47379e-11
2.08151e-10
-1.04136e-11
2.06935e-10
-5.74521e-12
2.04729e-10
-9.60444e-13
2.01596e-10
3.74239e-12
8.19756e-12
1.97624e-10
1.15226e-12
-5.87506e-12
4.50763e-12
-1.91281e-11
9.75391e-12
-3.14089e-11
1.65171e-11
-4.16275e-11
2.44489e-11
-4.96761e-11
3.32458e-11
-5.57636e-11
4.2645e-11
-6.01574e-11
5.24153e-11
-6.30959e-11
6.23493e-11
-6.47745e-11
7.226e-11
-6.53607e-11
8.19818e-11
-6.50161e-11
9.13753e-11
-6.39121e-11
1.00334e-10
-6.22376e-11
1.08791e-10
-6.01965e-11
1.16722e-10
-5.7997e-11
1.24149e-10
-5.5834e-11
1.31131e-10
-5.38686e-11
1.37757e-10
-5.22112e-11
1.44141e-10
-5.09151e-11
1.50412e-10
-4.99615e-11
1.56683e-10
-4.92102e-11
1.63001e-10
-4.8392e-11
1.69339e-10
-4.71753e-11
1.75605e-10
-4.52405e-11
1.81633e-10
-4.22742e-11
1.87154e-10
-3.79893e-11
1.91774e-10
-3.21962e-11
1.94983e-10
-2.49273e-11
1.96292e-10
-1.67035e-11
1.95622e-10
-8.906e-12
1.93561e-10
-3.32104e-12
1.92216e-10
-2.50698e-12
1.91573e-10
-2.94045e-12
1.89934e-10
-1.96599e-12
1.89743e-10
-6.1434e-12
1.91127e-10
-1.16091e-11
1.93618e-10
-1.67548e-11
1.96941e-10
-2.13091e-11
2.0083e-10
-2.49019e-11
2.04945e-10
-2.71182e-11
2.08903e-10
-2.7704e-11
2.12347e-10
-2.66166e-11
2.1498e-10
-2.39901e-11
2.16587e-10
-2.00768e-11
2.17039e-10
-1.51902e-11
2.16284e-10
-9.65871e-12
2.14333e-10
-3.7942e-12
2.11246e-10
2.1269e-12
2.07118e-10
7.87145e-12
1.32509e-11
2.02066e-10
1.22292e-12
-7.09843e-12
4.78063e-12
-2.26858e-11
1.03456e-11
-3.69738e-11
1.75258e-11
-4.88077e-11
2.59541e-11
-5.81047e-11
3.53081e-11
-6.51182e-11
4.53056e-11
-7.01557e-11
5.5695e-11
-7.3486e-11
6.62465e-11
-7.53267e-11
7.67492e-11
-7.5864e-11
8.70123e-11
-7.52795e-11
9.68713e-11
-7.37713e-11
1.06198e-10
-7.15641e-11
1.14909e-10
-6.89078e-11
1.22976e-10
-6.60647e-11
1.30428e-10
-6.32848e-11
1.37337e-10
-6.07778e-11
1.43816e-10
-5.86896e-11
1.5001e-10
-5.71082e-11
1.56106e-10
-5.60565e-11
1.62276e-10
-5.53803e-11
1.68603e-10
-5.47196e-11
1.75069e-10
-5.36419e-11
1.81612e-10
-5.17836e-11
1.88105e-10
-4.87665e-11
1.94293e-10
-4.41769e-11
1.99736e-10
-3.76383e-11
2.03744e-10
-2.89341e-11
2.05405e-10
-1.83651e-11
2.04266e-10
-7.7683e-12
2.00721e-10
2.22715e-13
1.99099e-10
-8.87525e-13
1.99262e-10
-3.10434e-12
1.96489e-10
8.06062e-13
1.96434e-10
-6.08728e-12
1.98593e-10
-1.37673e-11
2.01912e-10
-2.00718e-11
2.06086e-10
-2.54825e-11
2.10835e-10
-2.96514e-11
2.15737e-10
-3.20195e-11
2.20322e-10
-3.22883e-11
2.24166e-10
-3.04597e-11
2.26937e-10
-2.67597e-11
2.2841e-10
-2.15498e-11
2.2847e-10
-1.52499e-11
2.27091e-10
-8.28077e-12
2.24323e-10
-1.0265e-12
2.20266e-10
6.18443e-12
2.15054e-10
1.30853e-11
1.94693e-11
2.08836e-10
1.29289e-12
-8.39128e-12
5.05011e-12
-2.64426e-11
1.09307e-11
-4.2854e-11
1.8528e-11
-5.64049e-11
2.74597e-11
-6.70367e-11
3.73873e-11
-7.50464e-11
4.80112e-11
-8.07803e-11
5.90598e-11
-8.45353e-11
7.02803e-11
-8.65477e-11
8.14348e-11
-8.70186e-11
9.23018e-11
-8.61465e-11
1.02684e-10
-8.4154e-11
1.12424e-10
-8.13032e-11
1.21413e-10
-7.78974e-11
1.29614e-10
-7.42656e-11
1.37059e-10
-7.07295e-11
1.43841e-10
-6.75601e-11
1.50091e-10
-6.4939e-11
1.55983e-10
-6.29993e-11
1.6178e-10
-6.18537e-11
1.67746e-10
-6.13466e-11
1.73993e-10
-6.0967e-11
1.80485e-10
-6.01348e-11
1.87206e-10
-5.85056e-11
1.94126e-10
-5.56859e-11
2.0107e-10
-5.11204e-11
2.07619e-10
-4.41864e-11
2.1303e-10
-3.43442e-11
2.15993e-10
-2.13291e-11
2.14824e-10
-6.59944e-12
2.09101e-10
5.94394e-12
2.07296e-10
9.16004e-13
2.08872e-10
-4.68081e-12
2.04448e-10
5.23037e-12
2.04943e-10
-6.58165e-12
2.08334e-10
-1.71576e-11
2.12772e-10
-2.45094e-11
2.18045e-10
-3.07556e-11
2.23878e-10
-3.54843e-11
2.29739e-10
-3.78802e-11
2.35057e-10
-3.76042e-11
2.39344e-10
-3.47456e-11
2.42242e-10
-2.96566e-11
2.43527e-10
-2.28345e-11
2.43105e-10
-1.48287e-11
2.40991e-10
-6.16793e-12
2.37282e-10
2.68218e-12
2.32128e-10
1.13389e-11
2.25709e-10
1.95048e-11
2.69614e-11
2.18217e-10
1.36247e-12
-9.75342e-12
5.31715e-12
-3.03965e-11
1.15113e-11
-4.90477e-11
1.95272e-11
-6.44208e-11
2.89715e-11
-7.64812e-11
3.94933e-11
-8.55688e-11
5.07789e-11
-9.20664e-11
6.25388e-11
-9.62955e-11
7.44974e-11
-9.85063e-11
8.63872e-11
-9.89083e-11
9.79509e-11
-9.77098e-11
1.0895e-10
-9.51527e-11
1.19182e-10
-9.15351e-11
1.28503e-10
-8.72197e-11
1.36856e-10
-8.26189e-11
1.44277e-10
-7.81508e-11
1.50886e-10
-7.41691e-11
1.56826e-10
-7.0878e-11
1.62284e-10
-6.84575e-11
1.67638e-10
-6.72074e-11
1.73282e-10
-6.69915e-11
1.79334e-10
-6.70194e-11
1.85663e-10
-6.64652e-11
1.92317e-10
-6.516e-11
1.99452e-10
-6.28212e-11
2.07075e-10
-5.87429e-11
2.14902e-10
-5.20129e-11
2.22183e-10
-4.16247e-11
2.2796e-10
-2.71057e-11
2.29878e-10
-8.51727e-12
2.19725e-10
1.60963e-11
2.17296e-10
3.34439e-12
2.21519e-10
-8.90392e-12
2.13149e-10
1.36002e-11
2.151e-10
-8.53338e-12
2.20714e-10
-2.27717e-11
2.26857e-10
-3.06523e-11
2.33594e-10
-3.74923e-11
2.40725e-10
-4.26147e-11
2.47638e-10
-4.47919e-11
2.53698e-10
-4.36628e-11
2.58387e-10
-3.94328e-11
2.61329e-10
-3.25983e-11
2.62309e-10
-2.38142e-11
2.61261e-10
-1.37818e-11
2.58248e-10
-3.15624e-12
2.53425e-10
7.50411e-12
2.47004e-10
1.77597e-11
2.39221e-10
2.72872e-11
3.58641e-11
2.30317e-10
1.43079e-12
-1.11837e-11
5.57854e-12
-3.45434e-11
1.20811e-11
-5.55497e-11
2.05137e-11
-7.28533e-11
3.04767e-11
-8.64445e-11
4.16123e-11
-9.67048e-11
5.35971e-11
-1.04051e-10
6.61279e-11
-1.08826e-10
7.89085e-11
-1.11286e-10
9.16416e-11
-1.11641e-10
1.04029e-10
-1.10096e-10
1.15779e-10
-1.06903e-10
1.26631e-10
-1.02387e-10
1.36384e-10
-9.69732e-11
1.44939e-10
-9.11755e-11
1.52334e-10
-8.55458e-11
1.58733e-10
-8.05689e-11
1.64292e-10
-7.64369e-11
1.69163e-10
-7.33276e-11
1.73906e-10
-7.19505e-11
1.79127e-10
-7.22129e-11
1.84884e-10
-7.2778e-11
1.90779e-10
-7.2361e-11
1.96919e-10
-7.13015e-11
2.03744e-10
-6.9647e-11
2.11507e-10
-6.65067e-11
2.204e-10
-6.09046e-11
2.30353e-10
-5.15767e-11
2.40818e-10
-3.75701e-11
2.49142e-10
-1.68408e-11
2.46213e-10
1.90253e-11
2.28206e-10
2.13511e-11
2.28259e-10
-8.9566e-12
2.20064e-10
2.17948e-11
2.27463e-10
-1.59334e-11
2.37644e-10
-3.29532e-11
2.45979e-10
-3.89871e-11
2.54192e-10
-4.57048e-11
2.62486e-10
-5.09088e-11
2.70219e-10
-5.25231e-11
2.76793e-10
-5.02351e-11
2.81696e-10
-4.43354e-11
2.84518e-10
-3.542e-11
2.85018e-10
-2.43141e-11
2.83149e-10
-1.19144e-11
2.79025e-10
9.66672e-13
2.72868e-10
1.36588e-11
2.64966e-10
2.56606e-11
2.55623e-10
3.66283e-11
4.63445e-11
2.45141e-10
1.49573e-12
-1.26789e-11
5.82696e-12
-3.88737e-11
1.26254e-11
-6.23477e-11
2.14643e-11
-8.16922e-11
3.19435e-11
-9.6924e-11
4.37048e-11
-1.08466e-10
5.64221e-11
-1.16769e-10
6.97848e-11
-1.22188e-10
8.34816e-11
-1.24982e-10
9.71884e-11
-1.25346e-10
1.10564e-10
-1.23471e-10
1.23256e-10
-1.19595e-10
1.34922e-10
-1.14054e-10
1.45274e-10
-1.07326e-10
1.54139e-10
-1.00041e-10
1.61526e-10
-9.29335e-11
1.67671e-10
-8.67142e-11
1.72788e-10
-8.15531e-11
1.76936e-10
-7.74753e-11
1.80837e-10
-7.58512e-11
1.856e-10
-7.6976e-11
1.91127e-10
-7.83059e-11
1.96347e-10
-7.75826e-11
2.01361e-10
-7.63171e-11
2.06909e-10
-7.51965e-11
2.13589e-10
-7.31864e-11
2.21325e-10
-6.86403e-11
2.3215e-10
-6.24008e-11
2.50422e-10
-5.58411e-11
2.78083e-10
-4.45009e-11
2.84592e-10
1.2517e-11
2.92183e-10
1.37603e-11
2.1134e-10
7.18855e-11
2.25659e-10
7.47512e-12
2.51145e-10
-4.142e-11
2.62686e-10
-4.4495e-11
2.72059e-10
-4.83604e-11
2.81239e-10
-5.48841e-11
2.90027e-10
-5.96963e-11
2.97956e-10
-6.04506e-11
3.04597e-10
-5.68755e-11
3.09441e-10
-4.91791e-11
3.11952e-10
-3.79312e-11
3.11785e-10
-2.41483e-11
3.08881e-10
-9.01205e-12
3.034e-10
6.44606e-12
2.9565e-10
2.14071e-11
2.8601e-10
3.52985e-11
2.74872e-10
4.77647e-11
5.86038e-11
2.62612e-10
1.55401e-12
-1.42324e-11
6.05117e-12
-4.33702e-11
1.31217e-11
-6.94179e-11
2.23426e-11
-9.09133e-11
3.33206e-11
-1.07902e-10
4.57044e-11
-1.2085e-10
5.91742e-11
-1.30238e-10
7.34216e-11
-1.36435e-10
8.81298e-11
-1.39689e-10
1.02956e-10
-1.40172e-10
1.17522e-10
-1.38036e-10
1.3141e-10
-1.33482e-10
1.4418e-10
-1.26825e-10
1.55416e-10
-1.18563e-10
1.64804e-10
-1.09431e-10
1.72262e-10
-1.00393e-10
1.78084e-10
-9.2536e-11
1.8253e-10
-8.59982e-11
1.85786e-10
-8.07306e-11
1.8875e-10
-7.88142e-11
1.9298e-10
-8.12062e-11
1.98571e-10
-8.38978e-11
2.03285e-10
-8.22979e-11
2.06827e-10
-7.98612e-11
2.09626e-10
-7.79964e-11
2.11859e-10
-7.54197e-11
2.14199e-10
-7.09804e-11
2.15788e-10
-6.39888e-11
2.11139e-10
-5.11912e-11
1.96744e-10
-3.01049e-11
2.54191e-10
-4.49301e-11
2.68161e-10
-2.09202e-13
2.78224e-10
6.18215e-11
3.45845e-10
-6.0147e-11
3.21805e-10
-1.73805e-11
3.1004e-10
-3.2731e-11
3.10753e-10
-4.90734e-11
3.16312e-10
-6.04433e-11
3.23503e-10
-6.68873e-11
3.30484e-10
-6.74317e-11
3.36689e-10
-6.30801e-11
3.4135e-10
-5.38404e-11
3.43518e-10
-4.00992e-11
3.4259e-10
-2.32219e-11
3.38471e-10
-4.89461e-12
3.3138e-10
1.35352e-11
3.21742e-10
3.10442e-11
3.10065e-10
4.69734e-11
2.96853e-10
6.09767e-11
7.28842e-11
2.82573e-10
1.60128e-12
-1.58332e-11
6.23653e-12
-4.8005e-11
1.35405e-11
-7.67218e-11
2.31009e-11
-1.00474e-10
3.45384e-11
-1.1934e-10
4.75178e-11
-1.3383e-10
6.17352e-11
-1.44455e-10
7.68971e-11
-1.51596e-10
9.2696e-11
-1.55486e-10
1.08788e-10
-1.56262e-10
1.24771e-10
-1.54018e-10
1.40172e-10
-1.48884e-10
1.54451e-10
-1.41105e-10
1.67025e-10
-1.31138e-10
1.77358e-10
-1.19764e-10
1.8511e-10
-1.08145e-10
1.90689e-10
-9.81153e-11
1.94314e-10
-8.9622e-11
1.95991e-10
-8.24064e-11
1.97908e-10
-8.07306e-11
2.01769e-10
-8.50669e-11
2.07243e-10
-8.93725e-11
2.12469e-10
-8.75246e-11
2.15552e-10
-8.29461e-11
2.17868e-10
-8.03139e-11
2.16975e-10
-7.4527e-11
2.18214e-10
-7.22198e-11
2.24436e-10
-7.02095e-11
2.3474e-10
-6.14952e-11
2.53664e-10
-4.9028e-11
2.47804e-10
-3.90696e-11
2.5848e-10
-1.08858e-11
2.64319e-10
5.59823e-11
2.77534e-10
-7.33634e-11
3.10181e-10
-5.00285e-11
3.22267e-10
-4.48179e-11
3.36933e-10
-6.374e-11
3.49154e-10
-7.2665e-11
3.58491e-10
-7.62247e-11
3.65386e-10
-7.43273e-11
3.71637e-10
-6.93326e-11
3.76677e-10
-5.88809e-11
3.78885e-10
-4.23077e-11
3.77296e-10
-2.16336e-11
3.71862e-10
5.38786e-13
3.6292e-10
2.24761e-11
3.51062e-10
4.29009e-11
3.36998e-10
6.10376e-11
3.21378e-10
7.65961e-11
8.94806e-11
3.04783e-10
1.63253e-12
-1.74654e-11
6.36613e-12
-5.27385e-11
1.38476e-11
-8.42034e-11
2.36826e-11
-1.10309e-10
3.5513e-11
-1.31171e-10
4.90278e-11
-1.47344e-10
6.39497e-11
-1.59376e-10
8.00136e-11
-1.67658e-10
9.69407e-11
-1.72412e-10
1.1441e-10
-1.7373e-10
1.32028e-10
-1.71635e-10
1.49296e-10
-1.66153e-10
1.65593e-10
-1.57402e-10
1.80158e-10
-1.45704e-10
1.92168e-10
-1.31775e-10
2.00783e-10
-1.16761e-10
2.06147e-10
-1.03478e-10
2.08629e-10
-9.2103e-11
2.08413e-10
-8.21884e-11
2.08448e-10
-8.07653e-11
2.13464e-10
-9.00829e-11
2.18578e-10
-9.44863e-11
2.21646e-10
-9.05938e-11
2.25577e-10
-8.68774e-11
2.31333e-10
-8.60712e-11
2.3233e-10
-7.55241e-11
2.29313e-10
-6.92029e-11
2.36476e-10
-7.73725e-11
2.46956e-10
-7.19751e-11
2.55607e-10
-5.76777e-11
2.64236e-10
-4.76986e-11
2.64485e-10
-1.11356e-11
2.99416e-10
2.10499e-11
3.01012e-10
-7.49608e-11
3.35719e-10
-8.47366e-11
3.55928e-10
-6.50275e-11
3.73206e-10
-8.10195e-11
3.88392e-10
-8.78513e-11
3.97304e-10
-8.5138e-11
4.02171e-10
-7.91961e-11
4.08656e-10
-7.58195e-11
4.15014e-10
-6.52398e-11
4.17914e-10
-4.52077e-11
4.15835e-10
-1.95548e-11
4.08997e-10
7.37711e-12
3.97953e-10
3.35209e-11
3.83509e-10
5.73449e-11
3.66631e-10
7.79156e-11
3.48206e-10
9.50217e-11
1.08759e-10
3.28928e-10
1.6426e-12
-1.91079e-11
6.4227e-12
-5.75186e-11
1.4008e-11
-9.1789e-11
2.40288e-11
-1.2033e-10
3.61544e-11
-1.43296e-10
5.01041e-11
-1.61294e-10
6.56354e-11
-1.74907e-10
8.25241e-11
-1.84546e-10
1.00539e-10
-1.90426e-10
1.19414e-10
-1.92603e-10
1.38806e-10
-1.91026e-10
1.58254e-10
-1.85601e-10
1.77122e-10
-1.76271e-10
1.94527e-10
-1.63109e-10
2.09299e-10
-1.46547e-10
2.20172e-10
-1.27634e-10
2.26163e-10
-1.09469e-10
2.27075e-10
-9.3014e-11
2.23941e-10
-7.90532e-11
2.20181e-10
-7.70047e-11
2.26442e-10
-9.63439e-11
2.35607e-10
-1.03651e-10
2.38146e-10
-9.31321e-11
2.39691e-10
-8.84233e-11
2.41977e-10
-8.83581e-11
2.48013e-10
-8.15603e-11
2.52839e-10
-7.4029e-11
2.58284e-10
-8.28172e-11
2.6667e-10
-8.0361e-11
2.78924e-10
-6.99315e-11
2.87116e-10
-5.58913e-11
3.0917e-10
-3.31907e-11
3.52401e-10
-2.21821e-11
3.49182e-10
-7.17428e-11
3.651e-10
-1.00656e-10
3.97938e-10
-9.78666e-11
4.1641e-10
-9.94929e-11
4.31358e-10
-1.028e-10
4.36531e-10
-9.03129e-11
4.38425e-10
-8.10919e-11
4.46657e-10
-8.40531e-11
4.56217e-10
-7.48e-11
4.60745e-10
-4.97355e-11
4.5825e-10
-1.70592e-11
4.49827e-10
1.5802e-11
4.36381e-10
4.69672e-11
4.18965e-10
7.47615e-11
3.98773e-10
9.81071e-11
3.77055e-10
1.1674e-10
1.31156e-10
3.54658e-10
1.62699e-12
-2.07349e-11
6.39134e-12
-6.2283e-11
1.39911e-11
-9.93889e-11
2.40871e-11
-1.30427e-10
3.63798e-11
-1.55589e-10
5.06213e-11
-1.75535e-10
6.66069e-11
-1.90891e-10
8.41591e-11
-2.02097e-10
1.03107e-10
-2.09373e-10
1.23259e-10
-2.12755e-10
1.44373e-10
-2.1214e-10
1.66104e-10
-2.07332e-10
1.87927e-10
-1.98094e-10
2.09026e-10
-1.84209e-10
2.28076e-10
-1.65597e-10
2.43107e-10
-1.42664e-10
2.51913e-10
-1.18274e-10
2.53716e-10
-9.48167e-11
2.48067e-10
-7.3403e-11
2.3767e-10
-6.66075e-11
2.37628e-10
-9.6302e-11
2.50533e-10
-1.16556e-10
2.58513e-10
-1.01111e-10
2.66222e-10
-9.61323e-11
2.69279e-10
-9.14153e-11
2.75061e-10
-8.73422e-11
2.88578e-10
-8.75466e-11
2.94409e-10
-8.86485e-11
3.01277e-10
-8.72284e-11
3.12257e-10
-8.09125e-11
3.26457e-10
-7.00912e-11
3.53687e-10
-6.04219e-11
3.84499e-10
-5.29958e-11
3.98645e-10
-8.58899e-11
4.06716e-10
-1.08727e-10
4.28712e-10
-1.19863e-10
4.54522e-10
-1.25303e-10
4.71574e-10
-1.19854e-10
4.76293e-10
-9.50331e-11
4.75173e-10
-7.99735e-11
4.87069e-10
-9.595e-11
5.01369e-10
-8.91001e-11
5.08031e-10
-5.63962e-11
5.04599e-10
-1.36264e-11
4.94224e-10
2.6179e-11
4.78042e-10
6.31496e-11
4.57248e-10
9.55554e-11
4.33288e-10
1.22066e-10
4.07722e-10
1.42305e-10
1.57182e-10
3.81695e-10
1.58281e-12
-2.23177e-11
6.26258e-12
-6.69628e-11
1.37773e-11
-1.06904e-10
2.38231e-11
-1.40472e-10
3.61317e-11
-1.67897e-10
5.04861e-11
-1.89888e-10
6.67151e-11
-2.07119e-10
8.46829e-11
-2.20063e-10
1.04274e-10
-2.28963e-10
1.25374e-10
-2.33855e-10
1.47855e-10
-2.3462e-10
1.7153e-10
-2.31007e-10
1.96098e-10
-2.22662e-10
2.21047e-10
-2.09157e-10
2.45429e-10
-1.89979e-10
2.67219e-10
-1.64454e-10
2.81713e-10
-1.32767e-10
2.88888e-10
-1.01992e-10
2.83104e-10
-6.76187e-11
2.6608e-10
-4.95838e-11
2.55438e-10
-8.56596e-11
2.65023e-10
-1.26141e-10
2.88823e-10
-1.24911e-10
2.96777e-10
-1.04085e-10
2.99112e-10
-9.37507e-11
3.07016e-10
-9.52458e-11
3.20601e-10
-1.01131e-10
3.30872e-10
-9.89201e-11
3.4282e-10
-9.91767e-11
3.55819e-10
-9.39123e-11
3.70934e-10
-8.52077e-11
3.95421e-10
-8.49099e-11
4.24197e-10
-8.17729e-11
4.44219e-10
-1.05913e-10
4.61634e-10
-1.26142e-10
4.85819e-10
-1.44047e-10
5.02182e-10
-1.41666e-10
5.17836e-10
-1.35508e-10
5.25862e-10
-1.0306e-10
5.2036e-10
-7.44726e-11
5.35686e-10
-1.11277e-10
5.55648e-10
-1.09061e-10
5.61553e-10
-6.22999e-11
5.54585e-10
-6.65713e-12
5.41958e-10
3.88069e-11
5.22678e-10
8.24299e-11
4.98121e-10
1.20112e-10
4.70095e-10
1.50092e-10
4.40139e-10
1.7226e-10
1.87401e-10
4.09919e-10
1.50961e-12
-2.38273e-11
6.03536e-12
-7.14883e-11
1.33645e-11
-1.14233e-10
2.32309e-11
-1.50338e-10
3.53958e-11
-1.80061e-10
4.96664e-11
-2.04158e-10
6.5895e-11
-2.23347e-10
8.39719e-11
-2.38139e-10
1.03816e-10
-2.48806e-10
1.25366e-10
-2.55405e-10
1.48569e-10
-2.57824e-10
1.73363e-10
-2.55801e-10
1.99653e-10
-2.48952e-10
2.27292e-10
-2.36795e-10
2.55913e-10
-2.18599e-10
2.8486e-10
-1.934e-10
3.10516e-10
-1.58423e-10
3.22155e-10
-1.13631e-10
3.26306e-10
-7.17705e-11
3.10571e-10
-3.38494e-11
2.8345e-10
-5.85379e-11
2.87499e-10
-1.3019e-10
3.12993e-10
-1.50403e-10
3.18246e-10
-1.09338e-10
3.21316e-10
-9.68206e-11
3.3295e-10
-1.06879e-10
3.47609e-10
-1.15791e-10
3.67301e-10
-1.18612e-10
3.87446e-10
-1.19323e-10
4.10209e-10
-1.16676e-10
4.34244e-10
-1.09244e-10
4.5504e-10
-1.05708e-10
4.73268e-10
-1.00001e-10
4.90177e-10
-1.22822e-10
5.08999e-10
-1.44963e-10
5.23846e-10
-1.58893e-10
5.43167e-10
-1.60986e-10
5.66479e-10
-1.5882e-10
5.98391e-10
-1.34972e-10
5.80193e-10
-5.62753e-11
5.97923e-10
-1.29007e-10
6.10751e-10
-1.21889e-10
6.14246e-10
-6.57943e-11
6.05458e-10
2.13121e-12
5.92046e-10
5.22196e-11
5.69468e-10
1.05007e-10
5.41153e-10
1.48426e-10
5.09008e-10
1.82236e-10
4.74589e-10
2.06677e-10
2.22261e-10
4.39728e-10
1.40995e-12
-2.52372e-11
5.71888e-12
-7.57968e-11
1.27714e-11
-1.21285e-10
2.23406e-11
-1.59907e-10
3.42135e-11
-1.91933e-10
4.82135e-11
-2.18157e-10
6.42025e-11
-2.39335e-10
8.20775e-11
-2.56014e-10
1.01765e-10
-2.68494e-10
1.23216e-10
-2.76856e-10
1.46394e-10
-2.81002e-10
1.7127e-10
-2.80676e-10
1.97812e-10
-2.75494e-10
2.25979e-10
-2.64961e-10
2.56144e-10
-2.48763e-10
2.88308e-10
-2.25563e-10
3.22043e-10
-1.92158e-10
3.46799e-10
-1.38387e-10
3.63311e-10
-8.8283e-11
3.58763e-10
-2.93019e-11
3.33506e-10
-3.32814e-11
3.11175e-10
-1.07859e-10
3.30368e-10
-1.69595e-10
3.32991e-10
-1.11961e-10
3.39569e-10
-1.03398e-10
3.57032e-10
-1.24343e-10
3.80566e-10
-1.39326e-10
4.07176e-10
-1.45224e-10
4.36156e-10
-1.48305e-10
4.63755e-10
-1.44276e-10
4.93549e-10
-1.39039e-10
5.16803e-10
-1.28964e-10
5.24111e-10
-1.07309e-10
5.44181e-10
-1.42892e-10
5.59724e-10
-1.60503e-10
5.68825e-10
-1.67992e-10
5.77076e-10
-1.69236e-10
5.96617e-10
-1.7836e-10
6.37198e-10
-1.75553e-10
6.6703e-10
-8.61075e-11
6.92704e-10
-1.54681e-10
6.78773e-10
-1.07958e-10
6.71862e-10
-5.8883e-11
6.69228e-10
4.76525e-12
6.48863e-10
7.25834e-11
6.20812e-10
1.33057e-10
5.87352e-10
1.81886e-10
5.50631e-10
2.18956e-10
5.11904e-10
2.45403e-10
2.61996e-10
4.72168e-10
1.28946e-12
-2.65263e-11
5.33275e-12
-7.98396e-11
1.20384e-11
-1.2799e-10
2.12192e-11
-1.69087e-10
3.26843e-11
-2.03397e-10
4.62648e-11
-2.31736e-10
6.18206e-11
-2.5489e-10
7.92385e-11
-2.73432e-10
9.843e-11
-2.87686e-10
1.19324e-10
-2.97751e-10
1.41855e-10
-3.03533e-10
1.65943e-10
-3.04763e-10
1.91473e-10
-3.01023e-10
2.18358e-10
-2.91845e-10
2.46156e-10
-2.76558e-10
2.75421e-10
-2.54828e-10
3.14723e-10
-2.31459e-10
3.51188e-10
-1.74853e-10
3.79024e-10
-1.1612e-10
3.60918e-10
-1.11963e-11
3.66829e-10
-3.91924e-11
3.3216e-10
-7.31902e-11
3.53945e-10
-1.91379e-10
3.4727e-10
-1.05286e-10
3.64912e-10
-1.2104e-10
3.89086e-10
-1.48518e-10
4.26336e-10
-1.76577e-10
4.5763e-10
-1.76519e-10
4.8398e-10
-1.74656e-10