/*--------------------------------*- C++ -*----------------------------------*\
| =========                 |                                                 |
| \\      /  F ield         | OpenFOAM: The Open Source CFD Toolbox           |
|  \\    /   O peration     | Version:  2.4.0                                 |
|   \\  /    A nd           | Web:      www.OpenFOAM.org                      |
|    \\/     M anipulation  |                                                 |
\*---------------------------------------------------------------------------*/
FoamFile
{
    version     2.0;
    format      ascii;
    class       surfaceScalarField;
    location    "0.08";
    object      phiAlpha;
}
// * * * * * * * * * * * * * * * * * * * * * * * * * * * * * * * * * * * * * //

dimensions      [0 3 -1 0 0 0 0];

internalField   nonuniform List<scalar> 
19800
(
-6.17825e-101
3.20159e-105
-6.19714e-97
3.44681e-101
-1.49686e-93
-1.18716e-94
-1.26427e-90
-3.5202e-90
-1.97553e-88
-7.03439e-87
9.41864e-88
-7.41586e-84
1.6142e-84
-5.96623e-81
1.76092e-81
-4.36881e-78
1.63852e-78
-3.17182e-75
1.40852e-75
-2.30426e-72
1.15138e-72
-1.63337e-69
8.74378e-70
-1.06515e-66
5.73481e-67
-5.86214e-64
2.99341e-64
-2.49941e-61
1.22293e-61
-8.19927e-59
4.09406e-59
-2.17627e-56
1.09982e-56
-4.64333e-54
2.30711e-54
-7.85938e-52
3.51963e-52
-9.79852e-50
3.79013e-50
-8.70845e-48
2.87919e-48
-5.50484e-46
1.53546e-46
-2.46374e-44
5.73589e-45
-7.79441e-43
1.48328e-43
-1.72452e-41
2.61017e-42
-2.6237e-40
3.0664e-41
-2.69418e-39
2.3479e-40
-1.82433e-38
1.14712e-39
-7.98594e-38
3.56297e-39
-2.26515e-37
6.51625e-39
-3.80591e-37
7.07787e-39
-3.85036e-37
4.57652e-39
-2.35888e-37
1.73558e-39
-8.64568e-38
3.73002e-40
-1.83564e-38
4.28603e-41
-2.12826e-39
2.41445e-42
-1.1992e-40
5.97963e-44
-2.37051e-42
1.01979e-45
4.77256e-48
1.93196e-47
3.00818e-49
3.5596e-49
9.70873e-51
5.91336e-51
2.3668e-52
8.58288e-53
4.64888e-54
1.07615e-54
7.5536e-56
1.15815e-56
1.02892e-57
1.06017e-58
1.17964e-59
8.11849e-61
1.13145e-61
5.0517e-63
8.91664e-64
2.43738e-65
5.59021e-66
8.47777e-68
2.65455e-68
8.89068e-71
1.88416e-70
-2.61213e-97
2.42206e-101
-1.21093e-93
8.4836e-98
3.08483e-93
-1.13203e-89
2.57548e-89
-5.03757e-86
5.93407e-86
-7.54521e-83
7.59471e-83
-6.95814e-80
7.2479e-80
-5.19065e-77
6.02798e-77
-3.61474e-74
4.75449e-74
-2.51814e-71
3.62517e-71
-1.7369e-68
2.64015e-68
-1.13171e-65
1.75095e-65
-6.5455e-63
9.77232e-63
-3.10234e-60
4.23044e-60
-1.1148e-57
1.41348e-57
-3.0409e-55
3.83589e-55
-6.61081e-53
8.40178e-53
-1.15648e-50
1.4657e-50
-1.63028e-48
1.8907e-48
-1.7269e-46
1.7453e-46
-1.32591e-44
1.15034e-44
-7.33559e-43
5.38982e-43
-2.90875e-41
1.79285e-41
-8.25691e-40
4.19076e-40
-1.66261e-38
6.77266e-39
-2.33758e-37
7.43385e-38
-2.25553e-36
5.42042e-37
-1.46184e-35
2.57768e-36
-6.25496e-35
8.02883e-36
-1.78667e-34
1.50147e-35
-3.06647e-34
1.72022e-35
-3.25026e-34
1.22134e-35
-2.15241e-34
5.35789e-36
-8.84697e-35
1.42918e-36
-2.19891e-35
2.25766e-37
-3.13576e-36
2.04333e-38
-2.2772e-37
1.09897e-39
-5.21904e-39
5.49129e-41
4.88258e-43
2.76135e-42
6.60849e-44
1.28703e-43
5.16922e-45
5.37031e-45
3.11174e-46
1.98285e-46
1.54212e-47
6.45059e-48
6.47507e-49
1.83842e-49
2.3321e-50
4.52941e-51
7.19767e-52
9.39944e-53
1.87435e-53
1.57442e-54
3.99157e-55
1.99831e-56
6.62766e-57
1.75251e-58
8.03291e-59
6.48262e-61
9.1483e-61
-1.78096e-94
3.18662e-98
9.39249e-94
-1.37522e-90
3.04033e-89
-4.97608e-86
1.42363e-85
-1.65505e-82
2.54695e-82
-2.09896e-79
2.81873e-79
-1.74739e-76
2.46257e-76
-1.22754e-73
1.93853e-73
-8.21265e-71
1.47291e-70
-5.48164e-68
1.07653e-67
-3.54855e-65
7.29053e-65
-2.09453e-62
4.33631e-62
-1.06469e-59
2.1044e-59
-4.33467e-57
7.73921e-57
-1.31895e-54
2.16414e-54
-3.01318e-52
4.83615e-52
-5.3918e-50
8.72394e-50
-7.73377e-48
1.27234e-47
-9.02253e-46
1.39905e-45
-8.09203e-44
1.11889e-43
-5.36872e-42
6.47063e-42
-2.6053e-40
2.69209e-40
-9.17715e-39
8.05116e-39
-2.34332e-37
1.7159e-37
-4.30362e-36
2.56699e-36
-5.60267e-35
2.65184e-35
-5.08935e-34
1.85367e-34
-3.16271e-33
8.63094e-34
-1.32493e-32
2.7124e-33
-3.82293e-32
5.19342e-33
-6.69516e-32
6.25258e-33
-7.40467e-32
4.81855e-33
-5.25705e-32
2.38529e-33
-2.38797e-32
7.52464e-34
-6.77949e-33
1.49051e-34
-1.14231e-33
1.82311e-35
-1.0047e-34
1.48304e-36
-2.39405e-36
1.16711e-37
1.69078e-39
8.93804e-39
3.18866e-40
6.29703e-40
3.69275e-41
3.99601e-41
3.35378e-42
2.27002e-42
2.54912e-43
1.1505e-43
1.66659e-44
5.15851e-45
9.45604e-46
2.00674e-46
4.62249e-47
6.54398e-48
1.90148e-48
1.69828e-49
6.3258e-50
3.25678e-51
1.60834e-51
4.13614e-53
2.89079e-53
3.28529e-55
2.88861e-55
2.43036e-96
2.25641e-95
2.86013e-90
-4.58804e-87
7.20913e-86
-1.05449e-82
2.77003e-82
-2.85682e-79
4.23179e-79
-3.12282e-76
4.20506e-76
-2.34326e-73
3.43638e-73
-1.53151e-70
2.58816e-70
-9.63715e-68
1.88308e-67
-5.981e-65
1.29461e-64
-3.52609e-62
7.97286e-62
-1.84349e-59
4.18617e-59
-8.12916e-57
1.75267e-56
-2.82704e-54
5.48004e-54
-7.29059e-52
1.28809e-51
-1.40092e-49
2.37707e-49
-2.07487e-47
3.52625e-47
-2.44322e-45
4.26754e-45
-2.3438e-43
3.9828e-43
-1.76838e-41
2.75851e-41
-1.01033e-39
1.40215e-39
-4.2957e-38
5.19211e-38
-1.34416e-36
1.39926e-36
-3.08791e-35
2.72449e-35
-5.17262e-34
3.78e-34
-6.23498e-33
3.68184e-33
-5.33178e-32
2.47146e-32
-3.177e-31
1.1284e-31
-1.30314e-30
3.58813e-31
-3.80714e-30
7.02352e-31
-6.78969e-30
8.84317e-31
-7.80239e-30
7.32774e-31
-5.89835e-30
4.02564e-31
-2.9302e-30
1.46033e-31
-9.3569e-31
3.4615e-32
-1.82221e-31
5.29776e-33
-1.88771e-32
5.69492e-34
-4.57002e-34
5.96492e-35
1.23233e-36
5.99183e-36
2.91804e-37
5.53642e-37
4.38495e-38
4.63995e-38
5.23963e-39
3.51393e-39
5.30436e-40
2.39446e-40
4.66639e-41
1.45011e-41
3.58419e-42
7.61054e-43
2.37274e-43
3.32382e-44
1.31483e-44
1.13988e-45
5.8324e-46
2.82653e-47
1.9457e-47
4.46276e-49
4.46557e-49
6.16713e-51
3.55834e-51
4.19331e-93
1.21689e-92
4.30841e-87
-8.04396e-84
9.84316e-83
-1.4139e-79
3.21496e-79
-3.20314e-76
4.269e-76
-3.0588e-73
3.82121e-73
-2.06497e-70
2.89734e-70
-1.23633e-67
2.04836e-67
-7.14346e-65
1.38545e-64
-4.01244e-62
8.68808e-62
-2.10324e-59
4.75275e-59
-9.58175e-57
2.1725e-56
-3.63031e-54
7.7994e-54
-1.07411e-51
2.07479e-51
-2.34966e-49
4.11724e-49
-3.81336e-47
6.31099e-47
-4.71064e-45
7.71103e-45
-4.57642e-43
7.69702e-43
-3.60274e-41
6.06021e-41
-2.27213e-39
3.62395e-39
-1.11185e-37
1.61784e-37
-4.12893e-36
5.33366e-36
-1.14596e-34
1.29591e-34
-2.36637e-33
2.30595e-33
-3.61213e-32
2.96764e-32
-4.02711e-31
2.72585e-31
-3.23848e-30
1.75734e-30
-1.84844e-29
7.86881e-30
-7.41773e-29
2.53761e-29
-2.1993e-28
5.06682e-29
-3.98368e-28
6.64107e-29
-4.73658e-28
5.87277e-29
-3.79043e-28
3.53901e-29
-2.04319e-28
1.4505e-29
-7.26385e-29
4.00664e-30
-1.61475e-29
7.37775e-31
-1.94745e-30
9.82034e-32
-5.04223e-32
1.27159e-32
3.41492e-34
1.56796e-33
9.75421e-35
1.78179e-34
1.79532e-35
1.84837e-35
2.65274e-36
1.7456e-36
3.3504e-37
1.49141e-37
3.70109e-38
1.13413e-38
3.57855e-39
7.45192e-40
2.97709e-40
4.04738e-41
2.06302e-41
1.70845e-42
1.13597e-42
5.1279e-44
4.65153e-44
9.47444e-46
1.28277e-45
2.0329e-47
8.10375e-48
3.17674e-90
4.30463e-90
4.57674e-84
-9.5073e-81
9.1136e-80
-1.31022e-76
2.55939e-76
-2.52841e-73
2.99434e-73
-2.13423e-70
2.41594e-70
-1.29617e-67
1.67751e-67
-7.03004e-65
1.08861e-64
-3.66593e-62
6.66885e-62
-1.83078e-59
3.726e-59
-8.39612e-57
1.78182e-56
-3.29644e-54
7.02582e-54
-1.06533e-51
2.15537e-51
-2.67318e-49
4.88565e-49
-4.96347e-47
8.22512e-47
-6.82792e-45
1.05605e-44
-7.093e-43
1.06887e-42
-5.73051e-41
8.78847e-41
-3.7153e-39
5.80405e-39
-1.94954e-37
2.98226e-37
-8.11739e-36
1.16628e-35
-2.61998e-34
3.41973e-34
-6.43131e-33
7.48733e-33
-1.19156e-31
1.21685e-31
-1.65465e-30
1.45154e-30
-1.70319e-29
1.25628e-29
-1.28565e-28
7.77244e-29
-7.01671e-28
3.41074e-28
-2.75061e-27
1.1181e-27
-8.29732e-27
2.27105e-27
-1.5215e-26
3.0848e-27
-1.86358e-26
2.89263e-27
-1.57012e-26
1.89514e-27
-9.12315e-27
8.67021e-28
-3.58381e-27
2.74539e-28
-9.0246e-28
5.94625e-29
-1.26239e-28
9.44829e-30
-3.84978e-30
1.45267e-30
4.72858e-32
2.12078e-31
1.60202e-32
2.86122e-32
3.50442e-33
3.5435e-33
6.18904e-34
4.01683e-34
9.39633e-35
4.1319e-35
1.2521e-35
3.78205e-36
1.46093e-36
2.98216e-37
1.4636e-37
1.93433e-38
1.21723e-38
9.68528e-40
8.00983e-40
3.4086e-41
3.89362e-41
7.18836e-43
1.2557e-42
2.23525e-44
6.454e-45
2.04362e-87
8.361e-88
3.5694e-81
-8.08934e-78
6.00656e-77
-8.85864e-74
1.46832e-73
-1.4768e-70
1.5314e-70
-1.11137e-67
1.11516e-67
-6.07332e-65
7.0231e-65
-2.96185e-62
4.1176e-62
-1.37786e-59
2.24694e-59
-6.04805e-57
1.10178e-56
-2.40011e-54
4.56008e-54
-8.05839e-52
1.54154e-51
-2.2083e-49
4.03294e-49
-4.68506e-47
7.80348e-47
-7.38477e-45
1.11978e-44
-8.63302e-43
1.21552e-42
-7.59777e-41
1.02823e-40
-5.15273e-39
6.99506e-39
-2.7741e-37
3.86015e-37
-1.21005e-35
1.69431e-35
-4.26017e-34
5.77959e-34
-1.18754e-32
1.50375e-32
-2.56699e-31
2.96285e-31
-4.25507e-30
4.39247e-30
-5.36251e-29
4.84955e-29
-5.08392e-28
3.94864e-28
-3.59309e-27
2.34073e-27
-1.87042e-26
1.00525e-26
-7.14669e-26
3.35838e-26
-2.19968e-25
6.91635e-26
-4.06707e-25
9.69114e-26
-5.10746e-25
9.57959e-26
-4.50631e-25
6.7728e-26
-2.80542e-25
3.42691e-26
-1.20997e-25
1.23e-26
-3.43252e-26
3.08984e-27
-5.56658e-27
5.73398e-28
-2.18455e-28
1.02143e-28
3.80327e-30
1.72724e-29
1.521e-30
2.70709e-30
3.88691e-31
3.9118e-31
8.03392e-32
5.1926e-32
1.43163e-32
6.26377e-33
2.24214e-33
6.71796e-34
3.07297e-34
6.19277e-35
3.61027e-35
4.68254e-36
3.51485e-36
2.72289e-37
2.70287e-37
1.10501e-38
1.53083e-38
2.63497e-40
5.69997e-40
1.13394e-41
2.48149e-42
1.19202e-84
-4.23865e-82
2.04576e-78
-5.16995e-75
2.89826e-74
-4.55438e-71
6.24131e-71
-6.62671e-68
5.85412e-68
-4.47351e-65
3.852e-65
-2.19949e-62
2.18686e-62
-9.5908e-60
1.14673e-59
-3.94688e-57
5.51969e-57
-1.51027e-54
2.3536e-54
-5.14469e-52
8.38207e-52
-1.46881e-49
2.41975e-49
-3.39635e-47
5.39265e-47
-6.07362e-45
8.92475e-45
-8.12319e-43
1.09627e-42
-8.08172e-41
1.01509e-40
-6.06025e-39
7.25402e-39
-3.48199e-37
4.12186e-37
-1.57375e-35
1.90087e-35
-5.72905e-34
7.08883e-34
-1.69865e-32
2.09755e-32
-4.06138e-31
4.82478e-31
-7.68567e-30
8.53544e-30
-1.13519e-28
1.15211e-28
-1.29425e-27
1.17493e-27
-1.12666e-26
8.98029e-27
-7.43184e-26
5.08923e-26
-3.67817e-25
2.13467e-25
-1.3659e-24
7.2896e-25
-4.30414e-24
1.51601e-24
-7.98418e-24
2.18067e-24
-1.02275e-23
2.25938e-24
-9.3978e-24
1.7122e-24
-6.23144e-24
9.50732e-25
-2.93317e-24
3.83493e-25
-9.32894e-25
1.10686e-25
-1.75402e-25
2.36806e-26
-9.29784e-27
4.8095e-27
1.94379e-28
9.28652e-28
9.21011e-29
1.66645e-28
2.72199e-29
2.76545e-29
6.49262e-30
4.22437e-30
1.33561e-30
5.86676e-31
2.41434e-31
7.23828e-32
3.81586e-32
7.66607e-33
5.1648e-33
6.65196e-34
5.79048e-34
4.43268e-35
5.12829e-35
2.05397e-36
3.34391e-36
5.51979e-38
1.42717e-37
3.17633e-39
5.50172e-40
4.91319e-82
-6.45446e-79
8.513e-76
-2.56494e-72
1.03285e-71
-1.83737e-68
1.98404e-68
-2.35183e-65
1.68625e-65
-1.43149e-62
1.00397e-62
-6.33181e-60
5.11938e-60
-2.45711e-57
2.38708e-57
-8.88441e-55
1.00847e-54
-2.94342e-52
3.7231e-52
-8.55234e-50
1.13886e-49
-2.06678e-47
2.80435e-47
-4.01619e-45
5.32623e-45
-6.03571e-43
7.55977e-43
-6.84165e-41
7.98261e-41
-5.79479e-39
6.35641e-39
-3.71612e-37
3.88083e-37
-1.82282e-35
1.86532e-35
-6.99437e-34
7.22824e-34
-2.14285e-32
2.28398e-32
-5.35155e-31
5.82832e-31
-1.09112e-29
1.17938e-29
-1.79519e-28
1.8672e-28
-2.34988e-27
2.2889e-27
-2.41365e-26
2.15072e-26
-1.9221e-25
1.5389e-25
-1.17885e-24
8.31372e-25
-5.52543e-24
3.39703e-24
-1.98711e-23
1.18998e-23
-6.43637e-23
2.48692e-23
-1.19047e-22
3.65339e-23
-1.54675e-22
3.94496e-23
-1.47176e-22
3.18381e-23
-1.03312e-22
1.92636e-23
-5.27525e-23
8.66864e-24
-1.87173e-23
2.85436e-24
-4.07636e-24
6.99633e-25
-2.94812e-25
1.60216e-25
6.66968e-27
3.49764e-26
3.78965e-27
7.11304e-27
1.28825e-27
1.3399e-27
3.51166e-28
2.32498e-28
8.23893e-29
3.66733e-29
1.69648e-29
5.13655e-30
3.05148e-30
6.17397e-31
4.69907e-31
6.0807e-32
5.99727e-32
4.60022e-33
6.05408e-33
2.41718e-34
4.50532e-34
7.30779e-36
2.19204e-35
5.46928e-37
7.79832e-38
-2.90807e-75
-4.30963e-76
2.39157e-73
-1.01585e-69
2.62936e-69
-5.96559e-66
4.59631e-66
-6.76381e-63
3.57613e-63
-3.73242e-60
1.93406e-60
-1.48655e-57
8.85981e-58
-5.11568e-55
3.67249e-55
-1.61553e-52
1.36323e-52
-4.6026e-50
4.36746e-50
-1.13372e-47
1.15211e-47
-2.30769e-45
2.4294e-45
-3.75397e-43
3.94825e-43
-4.72661e-41
4.82945e-41
-4.53197e-39
4.4074e-39
-3.2658e-37
3.04189e-37
-1.79398e-35
1.60441e-35
-7.55242e-34
6.61544e-34
-2.48398e-32
2.17721e-32
-6.4729e-31
5.84128e-31
-1.36862e-29
1.2801e-29
-2.37322e-28
2.2661e-28
-3.37166e-27
3.19696e-27
-3.88534e-26
3.54763e-26
-3.57611e-25
3.06232e-25
-2.59336e-24
2.04482e-24
-1.47229e-23
1.04953e-23
-6.50554e-23
4.16439e-23
-2.25599e-22
1.50291e-22
-7.54669e-22
3.1375e-22
-1.38107e-21
4.68123e-22
-1.80883e-21
5.23783e-22
-1.77175e-21
4.47339e-22
-1.30845e-21
2.92919e-22
-7.20196e-22
1.46054e-22
-2.83525e-22
5.45324e-23
-7.13437e-23
1.5258e-23
-6.95128e-24
3.91239e-24
1.5816e-25
9.59069e-25
1.10366e-25
2.19383e-25
4.30707e-26
4.65033e-26
1.333e-26
9.07848e-27
3.53644e-27
1.61049e-27
8.21747e-28
2.53629e-28
1.66638e-28
3.42863e-29
2.89302e-29
3.80097e-30
4.1667e-30
3.24027e-31
4.75516e-31
1.91919e-32
4.00907e-32
6.51137e-34
2.2117e-33
6.18745e-35
7.50473e-36
-1.75648e-71
-4.3582e-74
2.85861e-71
-3.35394e-67
3.96721e-67
-1.60131e-63
6.7456e-64
-1.61671e-60
4.94218e-61
-8.14463e-58
2.46939e-58
-2.93044e-55
1.03165e-55
-8.93167e-53
3.86752e-53
-2.45039e-50
1.28602e-50
-5.95631e-48
3.64767e-48
-1.23417e-45
8.45536e-46
-2.0999e-43
1.55178e-43
-2.84353e-41
2.18675e-41
-2.98603e-39
2.33054e-39
-2.41386e-37
1.85569e-37
-1.4775e-35
1.12072e-35
-6.94942e-34
5.16537e-34
-2.51763e-32
1.85367e-32
-7.14515e-31
5.25683e-31
-1.59982e-29
1.20741e-29
-2.88963e-28
2.272e-28
-4.27038e-27
3.50181e-27
-5.21382e-26
4.38029e-26
-5.25108e-25
4.38273e-25
-4.3024e-24
3.46362e-24
-2.82555e-23
2.15073e-23
-1.4772e-22
1.04476e-22
-6.12085e-22
4.01065e-22
-2.0364e-21
1.49898e-21
-7.07403e-21
3.10301e-21
-1.26861e-20
4.67449e-21
-1.66357e-20
5.38849e-21
-1.66732e-20
4.83951e-21
-1.2872e-20
3.40648e-21
-7.58697e-21
1.86947e-21
-3.29391e-21
7.86946e-22
-9.53647e-22
2.50495e-22
-1.22853e-22
7.15927e-23
2.60179e-24
1.96049e-23
2.33053e-24
5.01424e-24
1.04531e-24
1.18841e-24
3.65906e-25
2.59323e-25
1.09193e-25
5.14027e-26
2.84662e-26
9.04381e-27
6.46823e-27
1.36623e-27
1.25805e-27
1.6941e-28
2.03161e-28
1.61758e-29
2.60433e-29
1.07424e-30
2.47229e-30
4.07683e-32
1.53847e-31
4.81714e-33
5.09692e-34
-1.16556e-68
3.42844e-73
-3.38391e-65
-9.40023e-65
-1.30904e-62
-3.69423e-61
5.09868e-63
-3.35434e-58
1.1293e-59
-1.55355e-55
7.58552e-57
-5.07937e-53
3.85621e-54
-1.3734e-50
1.67525e-51
-3.2559e-48
6.0705e-49
-6.68173e-46
1.75891e-46
-1.14945e-43
3.95316e-44
-1.60971e-41
6.7529e-42
-1.7957e-39
8.63292e-40
-1.55887e-37
8.26845e-38
-1.05576e-35
5.87369e-36
-5.46916e-34
3.15594e-34
-2.19615e-32
1.29029e-32
-6.8488e-31
4.09415e-31
-1.68228e-29
1.01763e-29
-3.26089e-28
2.0297e-28
-5.08197e-27
3.29981e-27
-6.44415e-26
4.42133e-26
-6.75698e-25
4.8809e-25
-5.91057e-24
4.38344e-24
-4.27855e-23
3.15936e-23
-2.52762e-22
1.8174e-22
-1.20961e-21
8.32046e-22
-4.67173e-21
3.07724e-21
-1.48252e-20
1.19846e-20
-5.3815e-20
2.43792e-20
-9.34435e-20
3.68476e-20
-1.21777e-19
4.35151e-20
-1.24155e-19
4.08465e-20
-9.95597e-20
3.07017e-20
-6.24085e-20
1.84212e-20
-2.96817e-20
8.69186e-21
-9.83152e-21
3.14629e-21
-1.64766e-21
9.99856e-22
2.88587e-23
3.04589e-22
3.63161e-23
8.66862e-23
1.8812e-23
2.28592e-23
7.43614e-24
5.54809e-24
2.48775e-24
1.22255e-24
7.24545e-25
2.3902e-25
1.83583e-25
4.01295e-26
3.97927e-26
5.53533e-27
7.16643e-27
5.8889e-28
1.0264e-27
4.36415e-29
1.09148e-28
1.84567e-30
7.62558e-30
2.66357e-31
2.50231e-32
-5.37301e-66
4.43483e-70
-2.31514e-62
-2.24394e-62
-2.42962e-59
-7.38071e-59
-1.34246e-56
-6.0715e-56
-5.13533e-54
-2.5844e-53
-1.5181e-51
-7.67258e-51
-3.55112e-49
-1.84398e-48
-6.30488e-47
-3.80006e-46
-7.77752e-45
-6.6401e-44
-5.14445e-43
-9.51576e-42
1.92247e-43
-1.09003e-39
1.20284e-40
-9.8413e-38
1.93075e-38
-6.95001e-36
1.91594e-36
-3.88804e-34
1.30965e-34
-1.69021e-32
6.54094e-33
-5.75575e-31
2.44411e-31
-1.54161e-29
7.0145e-30
-3.27353e-28
1.56085e-28
-5.51531e-27
2.75741e-27
-7.47402e-26
3.92777e-26
-8.20689e-25
4.59705e-25
-7.42288e-24
4.46963e-24
-5.62189e-23
3.58773e-23
-3.56925e-22
2.3486e-22
-1.88209e-21
1.24662e-21
-8.18696e-21
5.35504e-21
-2.92716e-20
1.89935e-20
-8.80343e-20
7.76409e-20
-3.36233e-19
1.53477e-19
-5.56911e-19
2.31194e-19
-7.15464e-19
2.78266e-19
-7.38094e-19
2.71418e-19
-6.11032e-19
2.16434e-19
-4.04413e-19
1.41035e-19
-2.09193e-19
7.41514e-20
-7.87459e-20
3.06439e-20
-1.68026e-20
1.08448e-20
1.88364e-22
3.66113e-21
4.2301e-22
1.15345e-21
2.55351e-22
3.36852e-22
1.13958e-22
9.05496e-23
4.26476e-23
2.20854e-23
1.38321e-23
4.77598e-24
3.89276e-24
8.86911e-25
9.36266e-25
1.35457e-25
1.87218e-25
1.59869e-26
2.9833e-26
1.31684e-27
3.5398e-27
6.18309e-29
2.76594e-28
1.07411e-29
9.05844e-31
-1.96164e-63
3.32397e-67
-8.46687e-60
-4.2283e-60
-9.19749e-57
-1.21745e-56
-5.04279e-54
-9.05716e-54
-1.82603e-51
-3.48742e-51
-4.95373e-49
-9.22355e-49
-1.05658e-46
-1.94464e-46
-1.75675e-44
-3.46243e-44
-2.21656e-42
-5.17818e-42
-2.06782e-40
-6.3104e-40
-1.37953e-38
-6.10671e-38
-6.09489e-37
-4.62693e-36
-1.32325e-35
-2.72769e-34
9.25748e-36
-1.25009e-32
1.47303e-33
-4.4815e-31
8.58999e-32
-1.27698e-29
3.24599e-30
-2.91653e-28
8.89393e-29
-5.32234e-27
1.83826e-27
-7.7947e-26
2.96052e-26
-9.2138e-25
3.78258e-25
-8.83138e-24
3.92362e-24
-6.94458e-23
3.37428e-23
-4.56204e-22
2.41648e-22
-2.52746e-21
1.43162e-21
-1.18013e-20
6.98503e-21
-4.62864e-20
2.80293e-20
-1.52034e-19
9.49026e-20
-4.30493e-19
4.10565e-19
-1.7422e-18
7.77907e-19
-2.70244e-18
1.15982e-18
-3.39365e-18
1.41685e-18
-3.52758e-18
1.4288e-18
-2.9993e-18
1.20117e-18
-2.07974e-18
8.44523e-19
-1.16103e-18
4.9184e-19
-4.93104e-19
2.31417e-19
-1.31204e-19
9.1144e-20
9.66743e-23
3.40464e-20
3.64479e-21
1.18542e-20
2.61824e-21
3.8266e-21
1.32499e-21
1.13666e-21
5.54966e-22
3.06067e-22
2.0023e-22
7.30171e-23
6.24822e-23
1.49607e-23
1.66438e-23
2.52406e-24
3.68829e-24
3.29699e-25
6.52587e-25
3.01029e-26
8.61942e-26
1.56335e-27
7.50867e-27
3.22722e-28
2.45632e-29
-5.72608e-61
1.69908e-64
-2.2848e-57
-5.88787e-58
-2.35327e-54
-1.55951e-54
-1.1966e-51
-1.03837e-51
-3.89373e-49
-3.53582e-49
-9.26126e-47
-8.20209e-47
-1.70291e-44
-1.50699e-44
-2.43726e-42
-2.32295e-42
-2.67885e-40
-2.99601e-40
-2.2318e-38
-3.14223e-38
-1.39607e-36
-2.61077e-36
-6.48086e-35
-1.69582e-34
-2.18629e-33
-8.56908e-33
-5.11342e-32
-3.36608e-31
-7.03317e-31
-1.03035e-29
3.90318e-32
-2.47611e-28
1.99881e-29
-4.73854e-27
7.03931e-28
-7.34238e-26
1.52104e-26
-9.29527e-25
2.37765e-25
-9.5591e-24
2.84282e-24
-8.02793e-23
2.69181e-23
-5.52882e-22
2.08123e-22
-3.16963e-21
1.33662e-21
-1.53141e-20
7.16213e-21
-6.2921e-20
3.20359e-20
-2.20599e-19
1.19639e-19
-6.6013e-19
3.85211e-19
-1.74975e-18
1.7797e-18
-7.54874e-18
3.17869e-18
-1.07247e-17
4.65924e-18
-1.307e-17
5.76276e-18
-1.36208e-17
5.98765e-18
-1.18664e-17
5.27439e-18
-8.55313e-18
3.97565e-18
-5.10826e-18
2.55011e-18
-2.43038e-18
1.35992e-18
-7.92284e-19
5.99316e-19
-6.35713e-20
2.47255e-19
2.29399e-20
9.52271e-20
2.04366e-20
3.39827e-20
1.18395e-20
1.11476e-20
5.56829e-21
3.31144e-21
2.23773e-21
8.71001e-22
7.74747e-22
1.96794e-22
2.28618e-22
3.66433e-23
5.61258e-23
5.2883e-24
1.10132e-23
5.33592e-25
1.61529e-24
3.04919e-26
1.56239e-25
7.3823e-27
5.0744e-28
-1.34463e-58
6.26788e-62
-4.77809e-55
-4.87301e-56
-4.47494e-52
-1.38921e-52
-2.03322e-49
-8.27998e-50
-5.79146e-47
-2.47117e-47
-1.18259e-44
-5.0392e-45
-1.84108e-42
-8.19776e-43
-2.22655e-40
-1.11886e-40
-2.08376e-38
-1.26997e-38
-1.49683e-36
-1.1661e-36
-8.21983e-35
-8.44448e-35
-3.44064e-33
-4.7637e-33
-1.0926e-31
-2.08846e-31
-2.61055e-30
-7.12702e-30
-4.6261e-29
-1.90025e-28
-5.87068e-28
-3.98453e-27
-4.66384e-27
-6.62796e-26
-4.41382e-27
-8.82135e-25
5.59612e-26
-9.50286e-24
1.19024e-24
-8.41841e-23
1.51395e-23
-6.1787e-22
1.40134e-22
-3.73569e-21
1.0149e-21
-1.88187e-20
5.97065e-21
-7.96212e-20
2.91782e-20
-2.8729e-19
1.19817e-19
-8.93542e-19
4.1585e-19
-2.41573e-18
1.27177e-18
-5.97491e-18
6.33163e-18
-2.75611e-17
1.04517e-17
-3.49141e-17
1.49921e-17
-4.1288e-17
1.8731e-17
-4.24065e-17
2.00591e-17
-3.79282e-17
1.84174e-17
-2.83825e-17
1.47861e-17
-1.79533e-17
1.03922e-17
-9.5065e-18
6.25602e-18
-3.74313e-18
3.1281e-18
-6.37043e-19
1.42686e-18
1.01868e-19
6.09214e-19
1.22758e-19
2.40418e-19
8.26644e-20
8.69326e-20
4.38167e-20
2.8403e-20
1.96078e-20
8.20968e-21
7.51866e-21
2.03853e-21
2.45193e-21
4.17413e-22
6.64946e-22
6.62832e-23
1.44201e-22
7.35455e-24
2.33884e-23
4.59435e-25
2.49931e-24
1.28909e-25
7.97425e-27
-2.49302e-56
1.75741e-59
-7.67816e-53
2.92619e-57
-6.36527e-50
-6.41288e-51
-2.53962e-47
-3.67931e-48
-6.27305e-45
-9.73243e-46
-1.09343e-42
-1.80598e-43
-1.43393e-40
-2.78758e-41
-1.45529e-38
-3.62999e-39
-1.15089e-36
-3.83451e-37
-7.06135e-35
-3.19183e-35
-3.3514e-33
-2.06216e-33
-1.23027e-31
-1.02772e-31
-3.49223e-30
-3.96047e-30
-7.65811e-29
-1.18627e-28
-1.29591e-27
-2.778e-27
-1.6859e-26
-5.12258e-26
-1.66299e-25
-7.50341e-25
-1.19912e-24
-8.80442e-24
-5.56234e-24
-8.33883e-23
-4.35018e-24
-6.42142e-22
3.56125e-23
-4.06224e-21
4.58879e-22
-2.14309e-20
3.55439e-21
-9.50949e-20
2.04535e-20
-3.54345e-19
9.42215e-20
-1.12661e-18
3.60279e-19
-3.0976e-18
1.1686e-18
-7.51661e-18
3.4125e-18
-1.73663e-17
1.84495e-17
-8.54758e-17
2.74971e-17
-9.2902e-17
3.87479e-17
-1.07842e-16
4.82658e-17
-1.05583e-16
5.35928e-17
-9.61427e-17
5.14297e-17
-7.57773e-17
4.36836e-17
-5.07808e-17
3.34993e-17
-2.97485e-17
2.26939e-17
-1.40013e-17
1.299e-17
-3.79332e-18
6.58354e-18
2.71071e-19
3.11769e-18
5.61985e-19
1.3594e-18
4.50766e-19
5.41023e-19
2.71085e-19
1.94027e-19
1.35303e-19
6.14613e-20
5.74187e-20
1.67141e-20
2.06468e-20
3.748e-21
6.16498e-21
6.51834e-22
1.4718e-21
7.91274e-23
2.62875e-22
5.36966e-24
3.08964e-23
1.72899e-24
9.55278e-26
-3.54504e-54
3.61742e-57
-9.39036e-51
8.00835e-54
-6.83009e-48
2.84008e-51
-2.38043e-45
6.45716e-49
-5.08054e-43
1.25117e-46
-7.53825e-41
8.17499e-46
-8.32102e-39
-2.82156e-40
-7.08244e-37
-6.20509e-38
-4.72126e-35
-7.54504e-36
-2.46878e-33
-6.25068e-34
-1.00936e-31
-3.76254e-32
-3.22665e-30
-1.69899e-30
-8.07289e-29
-5.8509e-29
-1.58246e-27
-1.55644e-27
-2.43469e-26
-3.23002e-26
-2.94725e-25
-5.27536e-25
-2.80704e-24
-6.84346e-24
-2.09252e-23
-7.11475e-23
-1.20233e-22
-5.97509e-22
-5.1252e-22
-4.08324e-21
-1.42228e-21
-2.28705e-20
-6.24273e-22
-1.05812e-19
5.64369e-21
-4.09087e-19
4.50198e-20
-1.34327e-18
2.21965e-19
-3.78654e-18
8.36716e-19
-9.23295e-18
2.60586e-18
-2.0079e-17
7.40598e-18
-4.35148e-17
4.37683e-17
-2.27102e-16
5.69615e-17
-1.94168e-16
8.02018e-17
-1.97138e-16
9.69116e-17
-2.39541e-16
1.11286e-16
-2.10542e-16
1.139e-16
-1.35306e-16
1.02921e-16
-1.17633e-16
8.58252e-17
-7.45464e-17
6.53695e-17
-4.16293e-17
4.34181e-17
-1.58744e-17
2.46299e-17
6.05029e-22
1.29098e-17
1.93003e-18
6.20205e-18
1.92728e-18
2.71173e-18
1.3286e-18
1.06559e-18
7.41938e-19
3.69039e-19
3.48477e-19
1.09566e-19
1.37929e-19
2.68057e-20
4.52192e-20
5.08471e-21
1.18447e-20
6.72254e-22
2.32139e-21
4.92735e-23
2.98981e-22
1.80705e-23
8.81238e-25
-3.8167e-52
5.37187e-55
-8.86262e-49
1.58265e-51
-5.72891e-46
1.11109e-48
-1.77463e-43
4.10955e-46
-3.28286e-41
9.00969e-44
-4.07899e-39
1.18549e-41
-3.71535e-37
8.95486e-40
-2.63469e-35
2.57709e-38
-1.48103e-33
-5.87999e-35
-6.59015e-32
-7.81288e-33
-2.32052e-30
-4.95289e-31
-6.45156e-29
-2.12563e-29
-1.41723e-27
-6.70918e-28
-2.46321e-26
-1.60985e-26
-3.39481e-25
-2.99235e-25
-3.7234e-24
-4.36339e-24
-3.26099e-23
-5.04413e-23
-2.28421e-22
-4.66867e-22
-1.27822e-21
-3.48972e-21
-5.68102e-21
-2.12313e-20
-1.97406e-20
-1.05944e-19
-5.15137e-20
-4.37105e-19
-8.72515e-20
-1.5046e-18
-8.05544e-21
-4.36746e-18
2.59258e-19
-1.08629e-17
1.31224e-18
-2.36841e-17
4.38581e-18
-4.64525e-17
1.27817e-17
-9.44027e-17
8.337e-17
-5.17751e-16
8.77289e-17
-2.85491e-16
1.10565e-16
4.03367e-16
1.69829e-16
-4.26645e-16
1.92788e-16
-3.44597e-16
1.64491e-16
3.89254e-16
1.9518e-16
-2.97891e-16
1.73899e-16
-1.52183e-16
1.49265e-16
-9.74745e-17
1.14731e-16
-4.84572e-17
7.46395e-17
-9.40122e-18
4.35114e-17
4.70443e-18
2.31455e-17
6.49678e-18
1.11288e-17
5.23412e-18
4.7825e-18
3.28503e-18
1.80479e-18
1.70703e-18
5.82747e-19
7.42062e-19
1.5494e-19
2.66338e-19
3.19291e-20
7.63049e-20
4.57874e-21
1.63574e-20
3.60606e-22
2.30143e-21
1.4979e-22
6.34199e-24
-3.1303e-50
5.74753e-53
-6.49517e-47
1.83847e-49
-3.75696e-44
1.35327e-46
-1.0289e-41
4.70205e-44
-1.65219e-39
9.21577e-42
-1.75181e-37
1.10108e-39
-1.33122e-35
8.3447e-38
-7.73883e-34
3.9751e-36
-3.61102e-32
9.67049e-35
-1.36951e-30
-2.85484e-32
-4.15444e-29
-4.184e-30
-1.00551e-27
-1.94544e-28
-1.93888e-26
-5.89949e-27
-2.98135e-25
-1.30739e-25
-3.66244e-24
-2.2079e-24
-3.60589e-23
-2.9024e-23
-2.85749e-22
-3.01141e-22
-1.82927e-21
-2.49477e-21
-9.48539e-21
-1.66651e-20
-3.98958e-20
-9.05517e-20
-1.35999e-19
-4.03616e-19
-3.73659e-19
-1.48901e-18
-8.13454e-19
-4.59246e-18
-1.33502e-18
-1.19837e-17
-1.33158e-18
-2.68502e-17
3.9592e-19
-5.26583e-17
4.55053e-18
-9.35865e-17
1.69317e-17
-1.76834e-16
1.23144e-16
-9.73893e-16
1.46961e-16
-3.97083e-16
1.29392e-15
-5.40459e-15
2.93444e-15
-1.67664e-14
2.47869e-15
-1.57211e-14
3.57205e-16
-5.46363e-15
3.89013e-16
-1.29322e-15
2.81335e-16
-2.64221e-16
2.66221e-16
-1.82189e-16
2.35642e-16
-1.08497e-16
1.81487e-16
-3.92198e-17
1.2025e-16
6.71186e-18
7.14305e-17
1.72469e-17
3.78769e-17
1.67533e-17
1.78039e-17
1.19167e-17
7.31327e-18
6.86736e-18
2.56357e-18
3.27879e-18
7.38948e-19
1.28661e-18
1.64926e-19
4.02222e-19
2.55559e-20
9.40259e-20
2.15178e-21
1.44058e-20
1.00858e-21
3.62937e-23
-1.87999e-48
4.36805e-51
-3.51225e-45
1.41065e-47
-1.82892e-42
9.97152e-45
-4.46204e-40
3.1678e-42
-6.29972e-38
5.54744e-40
-5.79138e-36
5.91665e-38
-3.76184e-34
4.08082e-36
-1.8372e-32
1.88319e-34
-7.09725e-31
5.74338e-33
-2.24996e-29
9.56538e-32
-5.88289e-28
-9.42289e-30
-1.24063e-26
-1.16569e-27
-2.10198e-25
-3.84969e-26
-2.85988e-24
-8.24035e-25
-3.12735e-23
-1.29234e-23
-2.75492e-22
-1.55161e-22
-1.9629e-21
-1.458e-21
-1.13616e-20
-1.08817e-20
-5.36458e-20
-6.52733e-20
-2.07446e-19
-3.17924e-19
-6.59393e-19
-1.26971e-18
-1.72782e-18
-4.20137e-18
-3.73445e-18
-1.16567e-17
-6.62007e-18
-2.75167e-17
-9.39058e-18
-5.62814e-17
-9.71828e-18
-1.01968e-16
-3.47628e-18
-1.68763e-16
1.33286e-17
-2.96293e-16
4.84632e-16
-1.63065e-15
1.88117e-15
-9.2627e-15
3.47537e-15
-1.88148e-14
5.66452e-15
-1.86586e-14
6.69476e-15
-1.64842e-14
3.10966e-15
-1.61314e-14
3.90202e-16
-7.72504e-15
3.75592e-16
-4.64448e-16
3.77231e-16
-3.00644e-16
3.72398e-16
-1.91156e-16
3.35948e-16
-9.22183e-17
2.59074e-16
-2.48557e-18
1.7483e-16
3.39055e-17
1.03697e-16
4.21611e-17
5.39048e-17
3.47228e-17
2.42838e-17
2.24476e-17
9.28142e-18
1.18452e-17
2.90584e-18
5.09653e-18
7.02528e-19
1.73984e-18
1.17527e-19
4.43329e-19
1.05636e-20
7.39391e-20
5.59457e-21
1.66903e-22
-8.13729e-47
2.34099e-49
-1.37867e-43
7.39424e-46
-6.45558e-41
4.89771e-43
-1.40329e-38
1.40845e-40
-1.75345e-36
2.19987e-38
-1.42278e-34
2.09229e-36
-8.11094e-33
1.30376e-34
-3.43718e-31
5.56772e-33
-1.13248e-29
1.66096e-31
-3.01424e-28
3.3704e-30
-6.67744e-27
3.75994e-29
-1.22684e-25
-2.12865e-27
-1.82922e-24
-1.68831e-25
-2.20419e-23
-3.91026e-24
-2.14592e-22
-5.93337e-23
-1.69016e-21
-6.64137e-22
-1.08025e-20
-5.72313e-21
-5.62763e-20
-3.88148e-20
-2.40143e-19
-2.10375e-19
-8.43889e-19
-9.22876e-19
-2.45705e-18
-3.31576e-18
-5.96868e-18
-9.88097e-18
-1.21917e-17
-2.47905e-17
-2.11017e-17
-5.3359e-17
-3.10572e-17
-1.00887e-16
-3.85625e-17
-1.72118e-16
-4.18671e-17
-2.75029e-16
-4.85963e-17
-5.14286e-16
1.13403e-15
-2.53676e-15
3.49996e-15
-1.84843e-14
4.67295e-15
-1.95974e-14
4.7973e-15
-1.85158e-14
5.55129e-15
-1.69249e-14
4.88709e-15
-1.48804e-14
8.41e-16
-4.94613e-15
5.12451e-16
-4.55827e-16
4.83045e-16
-3.96966e-16
4.86986e-16
-2.82483e-16
4.77974e-16
-1.60257e-16
4.28901e-16
-4.01873e-17
3.34434e-16
4.6732e-17
2.2611e-16
8.23462e-17
1.31879e-16
8.07362e-17
6.58124e-17
5.94139e-17
2.76095e-17
3.49565e-17
9.42956e-18
1.65805e-17
2.47669e-18
6.20118e-18
4.4841e-19
1.72631e-18
4.31588e-20
3.14305e-19
2.60086e-20
6.29006e-22
-2.51401e-45
8.827e-48
-3.86384e-42
2.68113e-44
-1.62914e-39
1.64141e-41
-3.1722e-37
4.26414e-39
-3.55229e-35
5.96808e-37
-2.58279e-33
5.11007e-35
-1.3165e-31
2.89261e-33
-4.96102e-30
1.13729e-31
-1.43826e-28
3.19669e-30
-3.31447e-27
6.46124e-29
-6.24649e-26
9.0119e-28
-9.86216e-25
6.75137e-27
-1.29239e-23
-2.65861e-25
-1.38038e-22
-1.27184e-23
-1.19756e-21
-2.07519e-22
-8.4373e-21
-2.25236e-21
-4.83595e-20
-1.81603e-20
-2.26379e-19
-1.13341e-19
-8.70203e-19
-5.59992e-19
-2.76483e-18
-2.22749e-18
-7.32007e-18
-7.24112e-18
-1.632e-17
-1.95445e-17
-3.10626e-17
-4.46374e-17
-5.13446e-17
-8.83743e-17
-7.50306e-17
-1.56322e-16
-9.93136e-17
-2.54785e-16
-1.45769e-16
-3.90922e-16
-4.90345e-16
-5.60048e-16
-2.58804e-16
-4.31233e-16
2.00005e-15
-4.30089e-15
3.34185e-15
-1.51315e-14
2.60516e-15
-5.13537e-16
1.67225e-15
-5.42782e-16
6.02718e-16
-5.59918e-16
3.84249e-16
-5.61129e-16
4.1644e-16
-5.25256e-16
5.17219e-16
-5.1677e-16
5.62754e-16
-3.72058e-16
5.80577e-16
-2.38794e-16
5.72953e-16
-9.48879e-17
5.07602e-16
4.05488e-17
3.91613e-16
1.23733e-16
2.58824e-16
1.48642e-16
1.44808e-16
1.26747e-16
6.74118e-17
8.42716e-17
2.53374e-17
4.45016e-17
7.28026e-18
1.83627e-17
1.43548e-18
5.61422e-18
1.49191e-19
1.12208e-18
1.03094e-19
2.01813e-21
-5.51042e-44
2.33641e-46
-7.70971e-41
6.76476e-43
-2.94217e-38
3.81373e-40
-5.18799e-36
8.98195e-38
-5.26696e-34
1.13853e-35
-3.47254e-32
8.86459e-34
-1.60342e-30
4.59145e-32
-5.45837e-29
1.66586e-30
-1.42171e-27
4.37629e-29
-2.91518e-26
8.46519e-28
-4.81878e-25
1.19979e-26
-6.55722e-24
1.18009e-25
-7.49157e-23
6.00946e-25
-7.09821e-22
-1.6773e-23
-5.49534e-21
-5.06354e-22
-3.46748e-20
-5.88833e-21
-1.78405e-19
-4.61689e-20
-7.50651e-19
-2.7067e-19
-2.59765e-18
-1.23587e-18
-7.45017e-18
-4.50358e-18
-1.7892e-17
-1.3362e-17
-3.649e-17
-3.29346e-17
-6.44338e-17
-6.90382e-17
-1.00994e-16
-1.267e-16
-1.44027e-16
-2.10464e-16
-1.89317e-16
-3.24407e-16
-2.24556e-16
-5.13789e-16
-4.8239e-16
-4.65529e-16
-3.55532e-16
-3.45214e-15
-3.36676e-16
-7.1925e-15