/*--------------------------------*- C++ -*----------------------------------*\
| =========                 |                                                 |
| \\      /  F ield         | OpenFOAM: The Open Source CFD Toolbox           |
|  \\    /   O peration     | Version:  2.4.0                                 |
|   \\  /    A nd           | Web:      www.OpenFOAM.org                      |
|    \\/     M anipulation  |                                                 |
\*---------------------------------------------------------------------------*/
FoamFile
{
    version     2.0;
    format      ascii;
    class       volScalarField;
    location    "0.127";
    object      alpha.water;
}
// * * * * * * * * * * * * * * * * * * * * * * * * * * * * * * * * * * * * * //

dimensions      [0 0 0 0 0 0 0];

internalField   nonuniform List<scalar> 
14400
(
1
1
1
1
1
1
1
1
1
1
1
1
1
1
1
1
1
1
1
1
1
1
1
1
1
1
1
1
1
1
1
1
1
1
1
1
1
1
1
1
1
1
1
1
1
1
1
1
1
1
1
1
1
1
1
1
1
1
1
1
1
1
1
1
1
1
1
1
1
1
1
1
1
1
1
1
1
1
1
1
1
1
1
1
1
1
1
1
1
1
1
1
1
1
1
1
1
1
1
1
1
1
1
1
1
1
1
1
1
1
1
1
1
1
1
1
1
1
1
1
1
1
1
1
1
1
1
1
1
1
1
1
1
1
1
1
1
1
1
1
1
1
1
1
1
1
1
1
1
1
1
1
1
1
1
1
1
1
1
1
1
1
1
1
1
1
1
1
1
1
1
1
1
1
1
1
1
1
1
1
1
1
1
1
1
1
1
1
1
1
1
1
1
1
1
1
1
1
1
1
1
1
1
1
1
1
1
1
1
1
1
1
1
1
1
1
1
1
1
1
1
1
1
1
1
1
1
1
1
1
1
1
1
1
1
1
1
1
1
1
1
1
1
1
1
1
1
1
1
1
1
1
1
1
1
1
1
1
1
1
1
1
1
1
1
1
1
1
1
1
1
1
1
1
1
1
1
1
1
1
1
1
1
1
1
1
1
1
1
1
1
1
1
1
1
1
1
1
1
1
1
1
1
1
1
1
1
1
1
1
1
1
1
1
1
1
1
1
1
1
1
1
1
1
1
1
1
1
1
1
1
1
1
1
1
1
1
1
1
1
1
1
1
1
1
1
1
1
1
1
1
1
1
1
1
1
1
1
1
1
1
1
1
1
1
1
1
1
1
1
1
1
1
1
1
1
1
1
1
1
1
1
1
1
1
1
1
1
1
1
1
1
1
1
1
1
1
1
1
1
1
1
1
1
1
1
1
1
1
1
1
1
1
1
1
1
1
1
1
1
1
1
1
1
1
1
1
1
1
1
1
1
1
1
1
1
1
1
1
1
1
1
1
1
1
1
1
1
1
1
1
1
1
1
1
1
1
1
1
1
1
1
1
1
1
1
1
1
1
1
1
1
1
1
1
1
1
1
1
1
1
1
1
1
1
1
1
1
1
1
1
1
1
1
1
1
1
1
1
1
1
1
1
1
1
1
1
1
1
1
1
1
1
1
1
1
1
1
0.999997
1
1
1
1
1
1
1
1
1
1
1
1
1
1
1
1
1
1
1
1
1
1
1
1
1
1
1
1
1
0.999993
0.999997
1
1
1
1
1
1
1
1
1
1
1
1
1
1
1
1
1
1
1
1
1
1
1
1
1
1
1
1
1
0.999993
1
1
1
1
1
1
1
1
1
1
1
1
1
1
1
1
1
1
1
1
1
1
1
1
1
1
1
1
1
0.999993
1
1
1
1
1
1
1
1
1
1
1
1
1
1
1
1
1
1
1
1
1
1
1
1
1
1
1
1
1
0.999999
0.999999
0.842369
1
1
1
1
1
1
1
1
1
1
1
1
1
1
1
1
1
1
1
1
1
1
1
1
1
1
1
0.999454
0.216205
0.155122
0.984262
1
1
1
1
1
0.999996
0.99995
1
1
1
1
1
1
1
1
1
1
1
1
1
1
1
1
1
1
0.98267
0.0678615
5.49748e-06
0.00272249
0.98721
1
1
1
1
1
0.999936
0.999969
0.999998
1
1
1
1
1
1
1
1
1
1
1
1
1
1
1
1
0.989906
0.00546864
4.10888e-07
3.84646e-08
1.6973e-06
0.945463
0.998577
0.999877
1
1
0.999993
0.999954
0.999996
0.999977
1
1
1
1
1
1
1
1
1
1
1
0.99803
1
1
1
0.999995
0.0496226
3.59195e-06
1.42102e-08
6.25221e-11
1.40061e-06
0.648032
0.999302
0.999654
0.999787
0.999954
0.999978
0.999983
0.999647
0.999984
1
1
1
1
1
1
1
1
1
1
1
0.982492
1
1
1
0.58847
8.24961e-06
-3.41213e-08
6.74381e-10
5.70836e-10
6.14777e-06
0.329058
0.99999
0.999365
0.999365
0.999986
0.999999
0.99933
0.998808
0.999998
1
1
1
1
1
1
1
1
1
1
1
0.969095
1
1
0.994347
9.31709e-05
-1.02349e-06
7.45593e-10
7.27172e-10
5.45303e-10
-1.79337e-09
0.120725
0.99999
0.99999
0.99999
0.999915
0.999998
0.99943
0.999713
0.999988
0.999947
1
1
1
1
1
1
1
1
1
0.999811
0.954031
1
0.999986
0.0145232
6.25402e-07
1.06419e-09
3.40134e-10
3.97532e-10
4.90387e-10
6.73254e-06
0.00177311
0.99999
0.999881
0.99999
0.999962
0.999719
0.99983
0.999949
0.999973
1
1
1
0.999999
1
1
1
1
1
1
0.997937
0.984951
0.998504
0.184779
2.51151e-06
7.53981e-08
6.20006e-10
4.46843e-10
3.40063e-10
4.0391e-10
9.32328e-05
0.00176123
0.970476
0.999686
0.999543
0.999056
0.999917
0.999852
0.999835
0.999941
0.99976
1
0.999998
0.999993
1
1
1
1
1
1
1
1
1
1
1
1
1
1
1
1
1
1
1
1
1
1
1
1
1
1
1
1
1
1
1
1
1
1
1
1
1
1
1
1
1
1
1
1
1
1
1
1
1
1
1
1
1
1
1
1
1
1
1
1
1
1
1
1
1
1
1
1
1
1
1
1
1
1
1
1
1
1
1
1
1
1
1
1
1
1
1
1
1
1
1
1
1
1
1
1
1
1
1
1
1
1
1
1
1
1
1
1
1
1
1
1
1
1
1
1
1
1
1
1
1
1
1
1
1
1
1
1
1
1
1
1
1
1
1
1
1
1
1
1
1
1
1
1
1
1
1
1
1
1
1
1
1
1
1
1
1
1
1
1
1
1
1
1
1
1
1
1
1
1
1
1
1
1
1
1
1
1
1
1
1
1
1
1
1
1
1
1
1
1
1
1
1
1
1
1
1
1
1
1
1
1
1
1
1
1
1
1
1
1
1
1
1
1
1
1
1
1
1
1
1
1
1
1
1
1
1
1
1
1
1
1
1
1
1
1
1
1
1
1
1
1
1
1
1
1
1
1
1
1
1
1
1
1
1
1
1
1
1
1
1
1
1
1
1
1
1
1
1
1
1
1
1
1
1
1
1
1
1
1
1
1
1
1
1
1
1
1
1
1
1
1
1
1
1
1
1
1
1
1
1
1
1
1
1
1
1
1
1
1
1
1
1
1
1
1
1
1
1
1
1
1
1
1
1
1
1
1
1
1
1
1
1
1
1
1
1
1
1
1
1
1
1
1
1
1
1
1
1
1
1
1
1
1
1
1
1
1
1
1
1
1
1
1
1
1
1
1
1
1
1
1
1
1
1
1
1
1
1
1
1
1
1
1
1
1
1
1
1
1
1
1
1
1
1
1
1
1
1
1
1
1
1
1
1
1
1
1
1
1
1
1
1
1
1
1
1
1
1
1
1
1
1
1
1
1
1
1
1
1
1
1
1
1
1
1
1
1
1
1
1
1
1
1
1
1
1
1
1
1
1
1
1
1
1
1
1
1
1
1
1
1
1
1
1
1
1
1
1
1
1
1
1
1
1
1
1
1
1
1
1
1
1
1
1
1
1
1
1
1
1
1
1
1
1
1
1
1
1
1
1
1
1
1
1
1
1
1
1
1
1
1
1
1
1
1
1
1
1
1
1
1
1
1
1
1
1
1
1
1
1
1
1
1
1
1
1
1
1
1
1
1
1
1
1
1
1
1
1
1
1
1
1
1
1
1
1
1
1
1
1
1
1
1
1
1
0.999994
1
1
1
1
1
1
1
1
1
1
1
1
1
1
1
1
1
1
1
1
1
1
1
1
1
1
1
1
1
0.999994
0.999999
1
1
1
1
1
1
1
1
1
1
1
1
1
1
1
1
1
1
1
1
1
1
1
1
1
1
1
1
0.999999
1
1
1
1
1
1
1
1
1
1
1
1
1
1
1
1
1
1
1
1
1
1
1
1
1
1
0.987617
0.889521
1
1
1
1
1
1
1
1
1
1
1
1
1
1
1
1
1
1
1
1
1
0.999995
1
1
1
1
1
1
0.830556
0.0016969
0.709533
0.999998
1
1
1
1
1
1
1
1
1
1
1
1
1
1
1
1
1
1
0.999997
0.99998
0.999997
1
0.999998
1
1
1
0.0971018
0.00023656
1.91768e-05
0.313206
0.999983
1
1
1
1
1
1
1
1
1
1
1
1
1
1
1
1
0.999998
0.999998
0.999984
0.999991
1
1
1
1
0.999989
0.0423571
6.69419e-06
2.92228e-07
1.61653e-06
0.188378
0.999997
1
1
1
1
1
1
1
1
1
1
1
1
1
1
1
1
0.99988
0.998894
0.999992
1
0.999532
0.999602
0.999298
0.999994
0.0447113
3.88404e-06
1.59908e-07
1.37569e-07
1.35471e-05
0.559571
1
1
1
1
1
1
1
1
1
1
1
1
1
1
1
1
0.999241
0.998894
0.999461
0.999935
1
0.999365
0.999596
0.999997
0.00622345
1.60537e-07
1.6105e-07
1.82174e-08
-5.7561e-07
0.000903115
0.98413
1
1
1
1
1
1
1
1
1
1
1
1
1
0.99999
0.999979
0.999999
0.999606
0.999951
0.999998
1
1
1
0.950639
0.000434533
2.04291e-07
3.38664e-06
4.9069e-09
8.08159e-09
3.82314e-06
0.220205
1
1
1
1
1
1
1
1
1
1
1
1
1
1
0.999982
0.999989
0.999972
0.999799
1
1
0.999999
1
0.782311
2.60602e-06
3.23776e-07
2.14687e-05
8.38915e-09
1.12971e-09
-3.44174e-08
0.00129121
0.979269
1
1
1
1
1
1
1
1
1
0.999997
0.999991
1
1
0.999999
0.999954
0.999966
0.999929
0.999302
0.999177
1
1
0.278463
0.00109866
6.04133e-06
0.000232181
6.65229e-10
7.479e-10
1.20342e-09
2.83423e-06
0.167159
0.999998
1
1
1
1
0.999567
0.97932
0.951472
7.7136e-05
1.00212e-05
0.000143689
3.44171e-09
3.48922e-10
4.50178e-10
3.54385e-10
7.21532e-05
0.000430603
0.373965
0.999965
0.994443
0.996464
0.99994
0.999969
0.999972
0.998893
0.997662
0.999685
0.999996
1
1
1
1
1
1
0.999999
0.997221
0.984244
0.939578
8.24212e-05
0.000153276
0.00015362
9.46155e-07
4.18623e-10
7.20429e-10
3.77544e-10
3.36456e-07
0.000110796
0.0485279
0.999945
0.99877
0.994391
0.994422
0.995331
0.999879
0.999157
0.999939
0.998479
1
1
1
1
1
1
1
0.999999
0.992422
0.992299
0.430471
5.65431e-05
0.000147429
7.51075e-05
2.98838e-06
4.89666e-10
2.79777e-09
1.68113e-11
-2.10094e-07
0.000153757
0.000149595
0.44925
0.999946
0.999944
0.99952
0.995492
0.998508
0.998677
0.999977
0.999996
1
1
1
1
1
1
1
0.999995
0.997812
0.999661
0.140075
2.59924e-06
2.26153e-09
1.05383e-09
1.47531e-07
3.62209e-10
6.36538e-08
2.60514e-07
-9.11353e-09
0.000120548
8.41982e-06
0.000205674
0.945851
0.994893
0.992643
0.999608
0.999237
0.999717
0.999896
0.999948
0.999981
0.999984
0.999987
0.999986
0.999983
0.999979
0.999972
0.937953
0.999824
0.94978
0.0239031
-6.59442e-07
4.48272e-09
1.37456e-09
7.86973e-09
3.83765e-10
2.68476e-08
1.77569e-07
3.67032e-11
-6.73579e-09
5.47518e-06
1.0456e-05
0.000284394
0.00894338
0.204507
0.477589
0.558473
0.642364
0.765767
0.910124
0.972726
0.987705
0.99288
0.993035
0.989231
0.980292
0.968344
0.299829
0.99528
0.832303
0.0072442
2.81707e-08
2.86651e-09
2.21119e-09
3.88297e-10
5.1914e-10
1.29546e-09
5.67187e-11
-2.65159e-09
3.27233e-11
1.33254e-05
1.39601e-05
1.87109e-06
2.29659e-06
3.92076e-06
3.50295e-06
1.2961e-06
9.9032e-08
3.63711e-08
3.55858e-08
3.55858e-08
5.01473e-08
8.99274e-08
-6.11671e-09
-3.01876e-10
2.32588e-18
-3.95362e-10
0.00973842
0.988452
0.591778
2.49927e-06
2.05631e-08
1.01598e-09
2.07684e-10
3.40474e-10
7.37323e-10
2.37444e-09
7.46313e-08
-9.22055e-10
2.49949e-06
0.000104711
0.000577969
1.86936e-06
1.58444e-06
1.32238e-06
1.321e-06
6.9176e-06
4.59449e-05
1.37254e-06
5.79221e-08
5.45307e-08
2.13131e-07
5.34277e-07
1.70335e-10
1.26838e-09
3.47606e-10
4.54982e-10
3.03179e-05
0.780342
1.00303e-05
3.76187e-06
4.11768e-06
8.59903e-11
1.36196e-10
6.17712e-10
9.78105e-10
6.98889e-10
2.97491e-06
-3.94948e-10
4.31392e-05
0.000341183
0.000577969
0.000191912
0.000212073
0.000119947
1.46296e-06
1.4264e-06
4.92311e-06
4.33652e-05
1.73292e-07
1.48341e-07
2.0259e-06
3.45931e-05
3.22639e-05
7.42462e-06
1.66872e-09
1.89814e-09
2.25815e-05
0.0667671
0.00269144
3.14458e-07
4.03511e-11
5.86155e-11
1.96453e-10
1.52122e-09
1.03038e-09
1.04748e-09
6.8098e-06
-8.33905e-11
1.46699e-05
4.924e-06
3.19056e-05
1.86136e-06
1.86366e-06
0.000165745
0.00034339
0.000201566
3.02967e-06
2.26293e-06
2.11816e-05
3.77817e-06
3.27597e-07
1.8449e-05
3.46469e-05
3.46294e-05
2.59942e-05
3.04372e-09
6.50368e-08
0.00123477
0.00103045
6.95503e-10
3.99743e-11
3.81905e-11
1.84644e-10
1.91782e-09
2.28153e-07
1.10709e-09
2.25929e-06
1.78192e-07
8.1442e-08
2.53597e-06
3.8128e-05
1.85257e-06
1.86346e-06
1.85835e-06
3.12929e-05
0.000464734
5.01989e-05
1.82883e-06
1.68336e-06
2.32957e-05
3.87486e-06
3.96522e-07
4.24256e-07
7.48727e-06
4.51981e-07
2.21376e-06
8.37734e-12
0.000617538
0.000151151
1.0142e-07
2.77042e-11
1.72224e-11
1.4941e-10
6.79175e-10
2.9329e-06
1.37517e-05
4.48499e-07
8.83047e-09
0.00116741
0.00118504
2.29049e-06
1.87021e-06
1.8422e-06
1.86061e-06
4.88453e-05
0.00050904
0.000513132
7.53903e-06
1.52495e-06
1.32665e-06
6.08726e-05
3.05004e-05
3.07872e-06
4.56588e-07
4.51838e-07
4.58137e-07
5.57974e-06
7.85102e-07
0.000380734
1.31576e-11
9.97239e-12
8.76259e-12
1.15751e-10
1.06056e-09
1.32501e-06
5.368e-05
6.90904e-09
6.48229e-09
0.00188294
0.00110686
2.35068e-06
1.93596e-06
2.43624e-05
3.4174e-06
0.000379831
0.000512535
0.000512956
0.000309869
1.86383e-06
1.15725e-06
1.08546e-06
7.33648e-05
7.33412e-05
3.27481e-05
4.97305e-07
0.000111413
3.42434e-22
3.00829e-07
4.13478e-05
1.05739e-11
2.26956e-12
9.60146e-12
1.24923e-10
2.28305e-10
1.89438e-05
5.368e-05
6.90665e-09
6.45211e-09
0.0019496
0.000591542
4.89263e-06
4.75894e-05
0.00011615
3.87083e-07
3.8648e-07
0.000299899
0.000509602
0.000509313
3.12507e-06
1.04555e-06
1.04194e-06
1.05751e-06
7.29636e-05
1.26401e-06
5.69762e-07
0.000237943
8.58326e-25
8.29484e-06
0.000199835
-4.55623e-11
6.59218e-13
1.41931e-11
8.2987e-11
4.42485e-07
3.09496e-05
2.62692e-08
2.33238e-08
6.75584e-08
0.00133337
0.000120116
0.000407342
0.000405028
3.22542e-07
3.22199e-07
3.65808e-07
3.83456e-07
0.00050475
4.73147e-05
1.75977e-06
1.01703e-06
1.03675e-06
1.04534e-06
8.92637e-07
1.33047e-06
6.50509e-07
0.000103062
2.62109e-18
4.17562e-06
0.000199835
-1.60127e-11
5.52218e-13
2.10907e-11
1.06829e-10
4.30915e-06
4.20307e-05
2.87248e-08
4.09669e-07
4.68609e-06
3.56568e-05
0.000339351
0.000465115
2.12941e-05
1.38589e-07
4.51645e-07
9.90171e-07
4.06609e-07
0.000211301
9.56468e-06
1.13274e-06
1.06699e-06
3.12936e-06
1.14618e-06
3.16265e-06
6.56098e-07
6.47132e-07
6.37568e-07
4.79646e-18
1.64121e-06
7.14676e-05
-9.69227e-13
6.94699e-13
2.88917e-11
1.43919e-10
6.72001e-06
4.42126e-05
2.47338e-08
5.04678e-08
5.25807e-08
0.000127997
0.000458923
4.32444e-05
2.03825e-09
1.36001e-07
8.96867e-06
8.9695e-06
4.10317e-06
4.56762e-06
0.000118149
4.96368e-06
8.27131e-06
1.54523e-06
8.99137e-07
1.05656e-06
0.000223864
3.90905e-05
1.08861e-06
3.82816e-14
1.42062e-11
0.000188063
8.81022e-13
8.01501e-13
4.07301e-11
2.29122e-10
2.94106e-05
6.44945e-05
6.40399e-08
1.49957e-07
3.29774e-08
1.47753e-07
1.62808e-08
2.49789e-09
2.21446e-09
1.07624e-07
3.77144e-06
6.71587e-06
3.11688e-06
2.2425e-08
2.20743e-08
1.23511e-05
2.50346e-05
3.84459e-07
4.00183e-07
0.000243717
0.000242196
0.000246875
3.44996e-05
4.29887e-14
9.23291e-11
9.50069e-05
1.16559e-12
8.60785e-13
4.82267e-11
2.71901e-10
4.85677e-05
0.000129027
2.62162e-08
4.11996e-08
4.58573e-08
4.94958e-09
1.54956e-09
7.87802e-09
4.27543e-09
9.86093e-10
9.71746e-10
9.42522e-10
2.87421e-07
2.20128e-08
8.88966e-08
1.02863e-07
1.62737e-07
2.36501e-07
2.36804e-07
0.000226853
0.00024146
0.000117275
9.67403e-07
3.78573e-15
3.89924e-13
3.31129e-05
1.44285e-12
8.40092e-13
3.89215e-11
7.21598e-11
3.53687e-05
0.000111155
2.62316e-08
5.05083e-06
2.25033e-09
2.27256e-09
1.31681e-09
1.99056e-10
3.39168e-10
7.53054e-10
1.05343e-09
9.98309e-10
5.82144e-09
1.29735e-08
6.72719e-09
1.84327e-05
2.04807e-05
1.88928e-05
1.4093e-07
1.16887e-07
9.53435e-07
2.47685e-06
4.22405e-07
2.02457e-16
1.82015e-13
5.84647e-09
4.31107e-13
6.21363e-13
4.48476e-11
1.41655e-10
1.04239e-05
1.88128e-06
9.72549e-05
7.06256e-05
2.82995e-08
9.31577e-11
1.37957e-09
1.96964e-10
2.20905e-10
4.69645e-10
8.66716e-10
1.09323e-09
1.43623e-07
2.66143e-07
6.72752e-09
2.04875e-05
2.04839e-05
1.36812e-05
7.77087e-09
1.21357e-07
6.05625e-07
1.74118e-07
2.92235e-07
5.76614e-18
1.99988e-15
0.00982574
1.93868e-14
4.41934e-13
4.92533e-11
1.81064e-10
1.62562e-05
1.6706e-06
0.000218854
2.09461e-08
1.97471e-06
4.24146e-11
4.63754e-10
7.57862e-11
1.275e-10
3.27527e-10
5.83223e-10
1.34101e-09
1.44921e-09
1.94482e-07
1.69872e-07
6.12888e-06
2.50054e-06
1.61505e-08
3.94803e-09
4.79383e-08
2.32953e-08
2.43462e-08
1.51543e-06
7.54799e-20
3.24921e-12
0.00986537
3.90137e-12
1.85813e-13
2.52087e-11
1.01303e-10
5.74366e-05
2.55365e-06
0.000220325
3.32223e-08
2.05348e-06
4.2096e-11
6.54553e-11
2.32963e-11
1.09733e-10
2.25009e-10
2.35528e-08
8.47415e-06
3.19284e-09
1.58005e-09
8.55806e-08
3.09585e-09
8.48528e-08
3.91801e-08
3.95335e-09
5.0705e-07
7.32034e-06
1.55306e-06
1.14849e-06
4.0827e-22
3.54733e-12
6.58721e-05
3.20401e-09
3.92224e-14
7.73314e-12
6.7809e-11
1.85139e-05
3.2074e-06
0.000220331
3.19316e-05
2.05348e-06
4.16576e-11
2.89556e-11
1.53318e-11
1.55253e-10
2.74463e-10
1.59799e-05
1.56742e-05
1.43883e-09
2.13101e-09
1.86912e-09
2.2529e-09
1.53029e-08
4.51604e-09
9.25146e-09
3.53351e-07
0.000120993
0.000246147
1.574e-05
8.52688e-25
1.23195e-11
9.03414e-10
9.36974e-12
4.3878e-15
1.15197e-12
6.17193e-11
2.74389e-10
7.64949e-05
0.000148286
8.12393e-07
6.03631e-07
5.39929e-11
1.78527e-11
1.64951e-11
1.77882e-10
1.08356e-08
9.43968e-06
3.20881e-07
1.41459e-09
7.59642e-07
1.85348e-06
1.31469e-08
-1.34094e-10
8.34492e-05
5.48944e-07
2.12554e-06
0.000251101
0.000253773
0.000101196
6.72816e-28
9.49224e-15
6.96256e-12
5.27044e-14
1.64172e-16
8.15844e-14
8.83648e-12
5.04937e-10
8.23997e-08
1.02449e-06
7.63249e-07
1.05782e-10
4.62737e-11
6.24599e-12
1.28129e-11
1.58354e-10
7.10015e-10
9.57377e-07
0.000196768
3.65815e-05
2.40887e-07
2.72747e-07
5.56465e-07
0.00052103
0.00129176
0.00128903
0.00114982
1.31072e-05
0.000212098
0.000250748
1.99105e-31
4.55685e-17
2.2581e-12
2.86067e-16
1.79827e-18
2.00402e-15
5.72743e-13
5.58583e-11
1.8867e-10
3.65431e-08
7.07473e-09
9.47387e-11
1.49604e-11
1.31168e-12
9.38373e-12
8.07408e-11
1.32934e-08
0.000469332
0.00211535
0.00211359
4.29865e-07
2.21435e-05
8.16085e-07
4.54302e-06
1.91977e-05
5.33571e-06
1.69208e-05
1.63056e-05
1.26284e-05
0.000119096
2.5356e-35
4.38089e-20
9.42184e-15
3.58653e-19
3.04807e-21
7.91231e-18
5.8615e-15
1.75124e-12
6.12742e-11
5.98191e-11
8.89669e-11
1.26248e-11
1.13094e-12
3.90687e-14
6.19552e-13
2.46222e-11
1.03586e-10
4.15856e-09
0.000208781
3.09769e-10
1.11601e-08
4.22593e-05
5.07073e-05
3.08968e-06
9.24165e-07
9.19579e-07
2.42338e-06
4.45445e-05
5.29162e-05
4.82776e-05
2.52061e-39
6.24067e-24
8.26255e-18
7.7249e-23
5.67732e-25
4.08878e-21
9.58041e-18
1.09274e-14
1.29129e-12
4.75754e-12
4.08345e-13
6.59477e-14
1.17051e-15
4.67115e-17
1.02747e-14
6.61599e-13
1.61825e-11
8.6284e-11
1.04096e-10
2.25209e-10
6.24097e-09
2.35259e-09
1.03132e-06
4.37208e-06
1.65949e-06
2.44954e-06
1.47038e-06
2.77251e-07
5.51197e-08
8.13467e-09
2.79783e-43
9.30327e-29
1.16778e-21
2.13363e-27
5.00031e-30
1.41816e-25
1.5302e-21
1.05605e-17
3.62549e-15
3.00959e-15
1.31239e-16
4.95928e-18
4.44296e-21
8.67766e-20
4.67106e-17
7.31235e-15
4.21654e-13
7.62942e-12
4.13943e-11
9.88997e-11
2.55922e-10
2.31997e-10
3.39992e-10
5.01191e-10
5.98057e-10
5.69058e-10
3.98841e-10
8.06176e-09
1.15848e-08
4.77324e-09
5.62371e-47
1.24662e-41
2.20573e-26
3.87439e-33
4.36263e-37
9.63401e-32
1.02291e-26
1.14529e-21
1.09996e-18
7.30956e-20
5.56618e-22
4.67124e-25
1.10657e-27
1.78252e-23
4.5049e-20
3.18399e-17
4.51376e-15
1.62511e-13
1.91477e-12
9.34989e-12
3.02103e-11
7.20065e-11
1.14419e-10
1.47231e-10
1.92939e-10
2.21295e-10
2.38221e-10
3.27287e-10
4.81329e-10
8.98389e-10
1
1
1
1
1
1
1
0.998642
0.999076
0.998443
0.999986
0.998417
0.999386
0.999669
0.999987
0.999826
1
0.0463382
0.00119587
5.90636e-05
0.000226286
7.5724e-10
8.61795e-10
8.16014e-10
-1.12247e-07
6.94367e-05
0.927665
1
1
1
1
1
1
1
1
1
1
0.99914
0.998484
0.998444
0.999967
0.999465
0.999054
0.999998
0.999263
0.99848
0.791259
0.00109085
3.68815e-05
2.90204e-05
7.72228e-06
1.38586e-05
7.63166e-09
6.00047e-10
1.81526e-09
-1.29807e-05
0.465527
1
1
1
1
1
1
1
1
1
1
0.999999
0.999995
0.99998
0.998635
0.999426
0.999317
0.999999
0.999992
0.664952
0.000848468
0.000519863
3.30085e-05
4.95571e-05
0.000301806
3.6836e-05
4.62045e-07
4.5829e-10
1.44464e-09
1.59445e-07
0.0355537
0.997614
1
1
0.999967
0.999963
0.999961
0.999961
0.999961
0.999965
0.999966
0.999978
0.999927
0.999879
0.999026
0.999622
0.999999
0.999999
0.763526
0.000215166
0.000628063
0.000395489
0.00061157
0.000382815
2.76681e-05
1.36898e-09
1.01361e-09
2.21317e-10
1.9651e-06
5.55458e-06
4.34269e-05
0.944665
0.999999
1
0.958209
0.951707
0.949096
0.94696
0.941713
0.936084
0.930334
0.91582
0.825065
0.632358
0.355305
0.134267
0.213183
0.157933
4.08349e-05
3.12104e-05
3.91431e-05
0.000293478
0.000619353
3.56359e-05
8.32749e-06
8.37588e-09
3.09517e-08
1.97304e-10
4.09664e-11
3.37189e-08
-2.23132e-06
0.00290561
0.99992
0.994216
-4.37731e-11
4.40196e-19
-7.1484e-11
-8.80977e-12
-5.23827e-09
4.95628e-19
5.36183e-11
1.00655e-09
1.54294e-09
1.53919e-09
1.52914e-09
1.53239e-09
-2.31871e-07
2.02353e-07
1.5853e-06
5.02913e-05
5.66911e-05
1.37139e-05
0.000666195
2.54314e-05
0.000158607
2.11553e-05
4.89401e-10
2.65919e-10
3.34593e-11
4.20991e-11
-5.34999e-09
1.6979e-06
0.645985
0.999805
3.10848e-10
4.78931e-10
3.93896e-10
6.80648e-10
8.94282e-10
1.7622e-09
2.18085e-09
1.40609e-08
2.08999e-09
1.85515e-09
1.8316e-09
1.80259e-09
4.98926e-09
2.03706e-08
3.82073e-05
2.04338e-05
5.58948e-05
2.03999e-05
0.000144119
0.000428613
6.05193e-05
6.68229e-06
5.09989e-10
3.54975e-10
3.69818e-11
2.74679e-10
3.79305e-10
9.32931e-09
3.74198e-05
0.331156
7.38051e-08
1.94229e-07
6.58522e-09
1.96507e-09
1.98941e-09
2.34511e-09
1.731e-06
1.82033e-06
2.05351e-07
1.10067e-08
1.21704e-08
4.8915e-09
1.62118e-05
3.89598e-05
2.21515e-05
1.992e-05
6.167e-05
7.04718e-06
1.69207e-06
1.58918e-05
3.32129e-05
4.14639e-09
1.1702e-08
6.28105e-10
4.41582e-11
2.761e-10
3.07237e-10
5.38758e-10
1.8526e-09
8.23316e-07
1.42733e-08
6.99443e-07
6.99456e-07
1.15393e-07
3.17621e-09
2.75134e-09
1.26872e-06
8.62312e-07
2.06779e-08
3.11401e-05
2.64121e-05
1.92523e-05
3.10773e-05
1.97126e-05
1.96935e-05
0.000126782
0.000148768
2.61931e-06
2.63422e-06
0.000107807
6.78782e-06
1.81193e-05
1.74338e-09
1.62672e-09
6.06107e-11
1.5913e-10
2.00134e-10
2.2882e-10
5.971e-06
8.51e-05
1.636e-07
5.48447e-07
7.18695e-07
7.10197e-07
1.06539e-08
3.13276e-09
2.85996e-09
4.30409e-09
4.89346e-09
6.18511e-05
3.36481e-05
2.94261e-05
1.97407e-05
1.97299e-05
5.8919e-05
6.25664e-06
3.38014e-05
5.26417e-06
5.06762e-06
9.5665e-05
2.69495e-05
0.000106587
5.18614e-07
1.72756e-09
4.52134e-11
7.68652e-11
1.51932e-10
2.32706e-10
1.01268e-07
2.67581e-07
0.000491163
0.000113576
4.52964e-07
1.51619e-07
7.90373e-09
3.84537e-09
7.20421e-09
3.23644e-08
5.44945e-05
6.16313e-05
6.55296e-05
1.97289e-05
6.31438e-05
1.97808e-05
7.47645e-05
5.79682e-06
7.10628e-06
2.47964e-06
5.30921e-06
5.23832e-05
3.31829e-06
0.00010656
2.08172e-05
1.60444e-10
2.41638e-11
3.6814e-11
9.34195e-11
3.45602e-10
9.79843e-05
2.53166e-05
0.000504018
0.000505151
5.99252e-06
1.53128e-07
2.47567e-07
8.77421e-08
2.92294e-06
2.93166e-08
5.0442e-05
2.65782e-06
6.63416e-05
1.86806e-05
0.000335591
0.000284691
5.659e-06
8.51039e-05
5.06989e-06
2.38364e-06
2.47346e-06
6.31617e-05
3.21973e-06
9.31984e-05
5.25551e-10
2.63629e-10
1.66473e-11
1.81439e-11
4.95781e-11
4.23958e-10
2.48205e-09
1.56242e-05
0.000504633
0.000504859
1.23024e-05
6.34604e-07
1.15612e-07
3.93356e-06
1.23665e-06
2.93496e-08
4.13087e-08
2.41897e-06
6.65958e-05
4.42948e-05
0.000361255
0.000219641
5.67592e-06
2.54673e-05
2.40748e-06
2.39407e-06
3.29666e-06
1.81781e-05
3.38276e-05
9.17882e-05
1.54513e-06
1.02975e-10
1.6443e-11
9.51214e-12
2.33898e-11
3.55421e-10
9.82968e-06
6.31656e-14
0.00050355
0.000504819
1.95955e-05
0.000481436
0.00114122
0.000812782
2.82907e-06
1.32585e-07
4.13494e-08
2.09576e-07
6.52962e-05
2.11005e-05
0.000285695
8.7662e-06
1.6378e-05
1.57779e-05
0.000382395
0.000171801
2.67973e-06
5.06751e-05
1.60933e-05
5.71001e-05
1.55774e-05
1.52565e-10
2.10769e-11
4.71092e-12
1.00403e-11
1.51071e-10
7.48163e-12
7.05934e-12
0.000496114
0.000451493
0.000148177
0.00201941
0.00201917
0.00201945
0.00201514
4.75498e-06
1.30116e-07
2.09585e-07
3.04189e-05
0.000231485
0.000646706
8.91648e-06
2.57312e-05
5.12331e-07
0.000870146
0.000496039
2.68113e-06
3.42079e-05
4.57945e-07
9.88054e-06
2.18912e-06
1.28963e-10
2.06742e-11
2.12149e-12
4.02442e-12
2.19803e-11
5.30714e-11
3.83767e-11
0.000364219
5.5499e-05
5.46308e-07
0.000309843
0.000691676
0.000542555
0.00133104
0.00114495
0.00189952
9.15043e-05
2.65708e-06
2.87058e-06
0.000653354
0.000155474
4.86734e-05
1.19745e-07
0.000870246
0.000874633
0.00086206
1.34329e-06
1.58629e-06
4.16895e-07
8.48195e-07
5.42877e-10
2.9838e-11
8.60992e-13
1.49719e-12
7.77976e-12
3.18217e-11
1.64722e-11
1.12845e-06
7.81979e-06
9.55062e-08
1.36509e-08
9.34038e-09
9.73605e-09
1.04026e-05
0.00483371
0.00483466
0.00122418
0.00236397
0.00228352
0.000170421
0.000843213
8.07583e-10
8.97905e-09
0.000546151
0.000869146
1.82113e-05
9.84933e-07
6.45018e-07
2.53397e-08
1.91776e-06
1.74139e-10
1.78512e-11
3.06032e-13
4.84018e-13
2.47427e-12
1.47461e-11
6.53819e-12
5.99525e-08
2.95089e-08
4.55661e-07
9.81916e-09
9.32166e-09
1.76376e-07
9.32039e-07
1.49224e-06
0.00264436
0.0023762
0.0023778
0.00210437
4.99686e-05
0.000844913
4.22841e-10
2.10792e-10
2.49484e-05
6.58234e-05
1.59426e-06
1.88694e-09
1.77003e-09
6.41665e-10
7.5404e-06
7.77938e-11
8.49238e-12
1.12463e-13
1.26881e-13
5.92677e-13
4.42737e-12
1.03814e-12
1.58094e-08
1.40699e-08
3.03304e-08
5.63431e-08
1.13179e-06
1.13558e-06
4.84759e-06
1.36041e-06
7.66201e-07
0.000302646
0.0015714
1.41367e-05
2.8766e-06
2.7193e-10
1.06941e-09
1.60987e-10
9.58313e-09
5.05806e-09
7.71672e-09
8.61423e-10
7.34568e-10
5.43539e-05
1.08386e-06
6.774e-11
5.51081e-12
5.21243e-14
2.54657e-14
9.5058e-14
7.08588e-13
7.24678e-14
1.41339e-08
1.4022e-08
9.65444e-07
4.87328e-08
2.09145e-07
4.1177e-05
3.19585e-07
6.39584e-09
2.52153e-08
4.27231e-08
9.32235e-09
5.79869e-10
5.90675e-10
3.91036e-10
1.9928e-10
9.61742e-11
8.68969e-09
2.32729e-09
1.08512e-07
4.97803e-08
1.46422e-05
5.48137e-05
4.93044e-10
2.25788e-10
4.9762e-12
2.96359e-14
3.67648e-15
9.87472e-15
5.29861e-14
2.75151e-15
2.23233e-07
7.91273e-07
1.85309e-06
6.2046e-05
5.81898e-05
2.06165e-08
1.79371e-09
4.16104e-09
7.65586e-08
1.03102e-09
6.55759e-10
5.87613e-10
4.56136e-10
2.27429e-10
7.88351e-11
7.59203e-11
1.53815e-08
4.32917e-08
1.16215e-06
8.48888e-07
1.52492e-06
6.59744e-06
2.24419e-07
1.53906e-10
1.57324e-12
1.07705e-14
3.58774e-16
6.97315e-16
1.62382e-15
6.14296e-17
5.77062e-05
6.23141e-05
6.23141e-05
3.91386e-05
7.10993e-07
1.73788e-09
1.64027e-09
1.64781e-09
1.7576e-09
5.60232e-10
4.67928e-10
4.1022e-10
2.23568e-10
8.61464e-11
4.08027e-11
2.10455e-10
8.76449e-10
1.39117e-05
5.90084e-07
7.73702e-06
6.81475e-08
9.35756e-06
5.95122e-11
2.51541e-11
5.74611e-13
3.58164e-15
2.41569e-17
3.3793e-17
2.02762e-17
7.49463e-19
1.6108e-07
1.11524e-05
7.61333e-06
1.30329e-08
4.02281e-08
7.97174e-09
1.59643e-05
2.47379e-05
2.45518e-05
4.79182e-10
5.41707e-10
4.29276e-10
1.67407e-10
4.4482e-11
1.10286e-10
4.33103e-10
9.20873e-05
0.000160686
2.11904e-06
8.28198e-06
5.38818e-07
5.28147e-07
1.95705e-10
1.20532e-11
1.79824e-13
7.82822e-16
1.39265e-18
9.84516e-19
1.69457e-19
5.28359e-21
2.83062e-08
8.03282e-09
7.30031e-09
6.81611e-09
7.97868e-09
9.44939e-07
1.58882e-05
2.46634e-05
8.35892e-06
5.29009e-10
6.9868e-10
5.71278e-10
1.14138e-10
2.76591e-11
8.26233e-11
5.61125e-09
0.000160829
0.000102041
2.16621e-06
5.906e-05
0.0001055
1.53987e-10
5.0882e-11
2.08334e-12
2.68848e-14
9.89373e-17
8.8368e-20
1.50479e-20
1.44322e-21
2.84998e-23
0.000128272
6.76616e-09
6.77573e-09
6.73725e-09
6.72679e-09
6.77784e-09
8.08224e-09
2.49124e-06
1.46499e-05
1.42938e-05
3.28027e-10
5.39652e-10
6.97251e-11
1.16213e-11
5.88445e-11
2.11011e-09
0.000147144
0.000161378
6.12674e-05
0.000106192
6.33294e-07
9.19331e-11
9.16165e-12
2.42971e-13
2.15643e-15
5.71036e-18
3.33241e-21
1.13153e-22
7.35657e-24
7.66894e-26
2.81139e-05
6.74239e-09
6.7501e-09
1.51378e-08
1.44615e-08
7.235e-09
2.53705e-06
5.4903e-06
2.98059e-06
4.7875e-08
3.28541e-10
1.74864e-10
2.06724e-11
1.90667e-12
3.91632e-11
9.64221e-11
2.80388e-05
0.000161377
0.000134981
2.12238e-09
1.05491e-10
2.9842e-11
1.15338e-12
1.39539e-14
6.40301e-17
1.00535e-19
3.64549e-23
4.06709e-25
1.8616e-26
1.01071e-28
3.62158e-05
1.98488e-05
2.95325e-06
1.64219e-08
8.58422e-10
8.288e-06
7.69165e-08
6.83525e-06
9.14726e-06
4.0234e-10
2.15825e-10
7.01426e-11
6.192e-12
1.16625e-13
1.03487e-12
2.7041e-11
8.97257e-11
9.28772e-06
6.88468e-10
1.92014e-10
5.02538e-11
2.09275e-12
3.12428e-14
1.32695e-16
2.7664e-19
2.53885e-22
5.59091e-26
6.98069e-28
2.32976e-29
6.6576e-32
1.70757e-08
3.13061e-08
2.67334e-06
3.27964e-09
4.35526e-10
9.21768e-06
7.78931e-06
6.2825e-08
8.76994e-08
1.69198e-10
1.13013e-10
1.36096e-11
5.64503e-13
4.74095e-15
6.62747e-15
7.888e-13
2.3035e-11
6.32835e-11
1.80678e-10
1.38459e-10
2.27331e-12
3.03647e-14
1.54671e-16
1.60763e-19
9.18629e-23
3.97961e-26
4.97813e-30
5.95682e-31
1.48296e-32
2.336e-35
1.80596e-08
5.66109e-09
6.85279e-10
1.3196e-09
3.88918e-10
4.94069e-07
3.23717e-10
3.04193e-10
1.36246e-10
3.84119e-11
5.51782e-12
3.67348e-13
9.59849e-15
6.25388e-17
2.88165e-19
2.49052e-16
5.98414e-14
5.72421e-12
1.53626e-11
2.08819e-12
1.57812e-14
8.42629e-17
1.3752e-19
2.36015e-23
1.0793e-27
1.13557e-31
2.60451e-34
2.76115e-34
5.30109e-36
4.86515e-39
7.96185e-10
4.00809e-10
2.54456e-10
2.04658e-10
5.16096e-10
2.73441e-10
7.3008e-11
2.33566e-11
6.37957e-12
9.72549e-13
7.61081e-14
2.78495e-15
3.99134e-17
1.5786e-19
7.2656e-23
2.75094e-21
7.8488e-18
9.09301e-15
1.34814e-13
6.43575e-15
2.66124e-17
5.96778e-20
2.86018e-23
6.57631e-28
1.30543e-33
4.49656e-38
8.64323e-38
8.12949e-38
1.29671e-39
7.29798e-43
1
1
1
1
1
1
1
1
1
1
1
1
1
1
1
1
1
1
1
1
1
1
1
1
1
1
1
1
1
1
1
1
1
1
1
1
1
1
1
1
1
1
1
1
1
1
1
1
1
1
1
1
1
1
1
1
1
1
1
1
1
1
1
1
1
1
1
1
1
1
1
1
1
1
1
1
1
1
1
1
1
1
1
1
1
1
1
1
1
1
1
1
1
1
1
1
1
1
1
1
1
1
1
1
1
1
1
1
1
1
1
1
1
1
1
1
1
1
1
1
1
1
1
1
1
1
1
1
1
1
1
1
1
1
1
1
1
1
1
1
1
1
1
1
1
1
1
1
1
1
1
1
1
1
1
1
1
1
1
1
1
1
1
1
1
1
1
1
1
1
1
1
1
1
1
1
1
1
1
1
1
1
1
1
1
1
1
1
1
1
1
1
1
1
1
1
1
1
1
1
1
1
1
1
1
1
1
1
1
1
1
1
1
1
1
1
1
1
1
1
1
1
1
1
1
1
1
1
1
1
1
1
1
1
1
1
1
1
1
1
1
1
1
1
1
1
1
1
1
1
1
1
1
1
1
1
1
1
1
1
1
1
1
1
1
1
1
1
1
1
1
1
1
1
1
1
1
1
1
1
1
1
1
1
1
1
1
1
1
1
1
1
1
1
1
1
1
1
1
1
1
1
1
1
1
1
1
1
1
1
1
1
1
1
1
1
1
1
1
1
1
1
1
1
1
1
1
1
1
1
1
1
1
1
1
1
1
1
1
1
1
1
1
1
1
1
1
1
1
1
1
1
1
1
1
1
1
1
1
1
1
1
1
1
1
1
1
1
1
1
1
1
1
1
1
1
1
1
1
1
1
1
1
1
1
1
1
1
1
1
1
1
1
1
1
1
1
1
1
1
1
1
1
1
1
1
1
1
1
1
1
1
1
1
1
1
1
1
1
1
1
1
1
1
1
1
1
1
1
1
1
1
1
1
1
1
1
1
1
1
1
1
1
1
1
1
1
1
1
1
1
1
1
1
1
1
1
1
1
1
1
1
1
1
1
1
1
1
1
1
1
1
1
1
1
1
1
1
1
1
1
1
1
1
1
1
1
1
1
1
1
1
1
1
1
1
1
1
1
1
1
1
1
1
1
1
1
1
1
1
1
1
1
1
1
1
1
1
0.999999
1
1
1
1
1
1
1
1
1
1
1
1
1
1
1
1
1
1
1
1
1
1
1
1
1
1
1
1
0.999998
0.999992
1
1
1
1
1
1
1
1
1
1
1
1
1
1
1
1
1
1
1
1
1
1
1
1
1
1
1
1
1
0.999993
0.999999
1
1
1
1
1
1
1
1
1
1
1
1
1
1
1
1
1
1
1
1
1
1
1
1
1
1
1
1
1
0.999998
1
1
1
1
1
1
1
1
1
1
1
1
1
1
1
1
1
1
1
1
1
1
1
1
1
1
1
1
1
0.999999
0.935651
0.998335
1
1
1
1
1
1
1
1
1
1
1
1
1
1
1
1
1
1
1
1
1
1
1
1
1
1
1
0.928213
0.00254316
0.845996
1
1
1
1
1
1
0.99996
0.99999
1
1
1
1
1
1
1
1
1
1
1
1
1
1
1
1
1
0.999997
0.416982
1.39491e-06
7.92301e-05
0.293811
0.999121
1
1
1
1
0.999994
0.999928
0.999986
1
1
1
1
1
1
1
1
1
1
1
1
1
1
1
1
0.999999
0.422211
7.51087e-06
3.77904e-08
8.51882e-06
0.0955562
0.999972
0.999534
0.999999
1
1
0.999951
0.999996
0.999986
0.999985
1
1
1
1
1
1
1
1
1
1
0.999952
0.96727
1
1
1
0.874371
5.97911e-05
1.57002e-07
1.31351e-09
-5.04925e-09
0.0500291
0.999989
0.999464
0.999493
0.999857
0.999997
0.999976
0.999834
0.999989
1
1
1
1
1
1
1
1
1
1
1
0.999598
0.956495
1
1
0.999282
0.00015743
4.47984e-07
2.52812e-09
6.00357e-10
3.75117e-10
0.000607656
0.99999
0.999944
0.999366
0.999895
0.999999
0.99999
0.998808
0.999495
0.999998
1
1
1
1
1
1
1
1
1
1
0.999375
0.971175
1
0.999998
0.2813
5.12959e-06
9.36353e-09
3.71278e-10
5.59374e-10
-1.23114e-11
-4.00221e-07
0.969511
0.999987
0.999988
0.999982
0.999988
0.999921
0.99883
0.99995
0.999947
0.99998
1
1
1
1
1
1
1
1
1
0.997654
0.954263
0.999999
0.83225
8.98289e-06
4.23366e-09
4.36563e-10
3.14578e-10
4.04285e-10
-1.55431e-09
0.00141282
0.89397
0.999964
0.99999
0.999973
0.999722
0.999707
0.999927
0.999965
0.999999
1
1
1
1
1
1
1
1
1
1
0.985111
0.997649
0.995265
8.75095e-06
6.63297e-07
4.24597e-09
4.54413e-10
3.17169e-10
3.45712e-10
-1.06728e-09
0.00267487
0.234724
0.999978
0.999966
0.998574
0.999939
0.999895
0.999836
0.999948
0.999341
1
1
0.999993
0.999998
1
1
1
1
1
1
1
1
1
1
1
1
1
1
1
1
1
1
1
1
1
1
1
1
1
1
1
1
1
1
1
1
1
1
1
1
1
1
1
1
1
1
1
1
1
1
1
1
1
1
1
1
1
1
1
1
1
1
1
1
1
1
1
1
1
1
1
1
1
1
1
1
1
1
1
1
1
1
1
1
1
1
1
1
1
1
1
1
1
1
1
1
1
1
1
1
1
1
1
1
1
1
1
1
1
1
1
1
1
1
1
1
1
1
1
1
1
1
1
1
1
1
1
1
1
1
1
1
1
1
1
1
1
1
1
1
1
1
1
1
1
1
1
1
1
1
1
1
1
1
1
1
1
1
1
1
1
1
1
1
1
1
1
1
1
1
1
1
1
1
1
1
1
1
1
1
1
1
1
1
1
1
1
1
1
1
1
1
1
1
1
1
1
1
1
1
1
1
1
1
1
1
1
1
1
1
1
1
1
1
1
1
1
1
1
1
1
1
1
1
1
1
1
1
1
1
1
1
1
1
1
1
1
1
1