/*--------------------------------*- C++ -*----------------------------------*\
| =========                 |                                                 |
| \\      /  F ield         | OpenFOAM: The Open Source CFD Toolbox           |
|  \\    /   O peration     | Version:  2.4.0                                 |
|   \\  /    A nd           | Web:      www.OpenFOAM.org                      |
|    \\/     M anipulation  |                                                 |
\*---------------------------------------------------------------------------*/
FoamFile
{
    version     2.0;
    format      ascii;
    class       volScalarField;
    location    "0.127";
    object      p;
}
// * * * * * * * * * * * * * * * * * * * * * * * * * * * * * * * * * * * * * //

dimensions      [1 -1 -2 0 0 0 0];

internalField   nonuniform List<scalar> 
14400
(
106.038
106.497
102.949
98.5996
94.7772
91.4019
88.14
85.2673
83.4386
83.151
84.6312
87.5394
91.125
94.5793
97.4355
99.6413
101.32
102.601
103.587
104.352
104.945
105.403
105.753
106.017
106.212
106.353
106.452
106.518
106.559
106.58
102.789
103.246
99.6893
95.334
91.5118
88.1342
84.8681
81.9894
80.1547
79.8609
81.3418
84.2632
87.8727
91.3442
94.208
96.4084
98.0807
99.3542
100.335
101.096
101.685
102.14
102.488
102.75
102.943
103.083
103.181
103.246
103.286
103.308
99.5421
100.006
96.4378
92.0684
88.2435
84.8637
81.5869
78.6918
76.8363
76.5153
77.9817
80.9189
84.5804
88.0998
90.9899
93.2012
94.8731
96.1408
97.1138
97.8671
98.4496
98.8984
99.2409
99.4985
99.6888
99.826
99.9219
99.9858
100.025
100.046
96.2988
96.7793
93.1926
88.8044
84.9705
81.5888
78.2948
75.3733
73.4857
73.1199
74.558
77.513
81.2528
84.8519
87.7885
90.0199
91.6953
92.9584
93.9239
94.6666
95.2397
95.68
96.0153
96.2673
96.4533
96.5874
96.6811
96.7436
96.7821
96.8024
93.0585
93.5659
89.9538
85.5429
81.6929
78.3095
74.9917
72.0334
70.1029
69.6752
71.0715
74.0458
77.8921
81.6019
84.6022
86.8601
88.5406
89.7993
90.7556
91.4878
92.0504
92.4814
92.809
93.0549
93.2365
93.3675
93.4592
93.5204
93.5581
93.5779
89.8209
90.366
86.7213
82.2836
78.4107
75.026
71.6774
68.6717
66.6875
66.1797
67.5189
70.5126
74.4963
78.3506
81.4312
83.7207
85.4069
86.6606
87.607
88.3279
88.8794
89.3007
89.6204
89.8603
90.0375
90.1655
90.2552
90.3152
90.3521
90.3713
86.5854
87.18
83.4949
79.0265
75.124
71.7386
68.3521
65.2877
63.2395
62.6318
63.8968
66.9061
71.0627
75.0994
78.2768
80.6021
82.2939
83.5422
84.4778
85.1865
85.7263
86.1375
86.4491
86.6828
86.8555
86.9805
87.0681
87.1266
87.1626
87.1814
83.3514
84.0083
80.2744
75.7713
71.8332
68.4479
65.0159
61.8808
59.7588
59.0296
60.2005
63.2172
67.5876
71.8501
75.1408
77.5056
79.2027
80.444
81.3676
82.0631
82.5907
82.9914
83.2945
83.5218
83.6898
83.8115
83.8968
83.9537
83.9886
84.0067
80.1183
80.8514
77.0593
72.518
68.5384
65.154
61.669
58.45
56.2451
55.371
56.425
59.4336
64.0658
68.6055
72.0253
74.4318
76.1329
77.3656
78.2758
78.9572
79.4717
79.8614
80.1558
80.3764
80.5395
80.6574
80.7401
80.7952
80.8289
80.8461
76.885
77.7099
73.8492
69.2668
65.2403
61.8577
58.3115
54.9945
52.698
51.6535
52.5646
55.5392
60.491
65.3695
68.933
71.3819
73.0845
74.3066
75.2018
75.8678
76.3684
76.7465
77.0318
77.2455
77.4033
77.5174
77.5972
77.6503
77.6825
77.6988
73.6506
74.5844
70.6434
66.0182
61.94
58.5597
54.9439
51.5128
49.1166
47.8748
48.6136
51.5132
56.8554
62.1471
65.8669
68.356
70.0572
71.2662
72.1445
72.7938
73.2794
73.6453
73.9211
74.1276
74.2801
74.3901
74.4669
74.5177
74.5484
74.5637
70.4137
71.4755
67.4406
62.7737
58.6392
55.2607
51.5665
48.0035
45.4991
44.0317
44.5662
47.3285
53.149
58.9448
62.8294
65.3555
67.0502
68.2431
69.1027
69.7338
70.2033
70.5562
70.8222
71.0213
71.1682
71.2741
71.3477
71.3962
71.4252
71.4393
67.1728
68.3837
64.2395
59.5356
55.3395
51.9614
48.1798
44.4647
41.8425
40.1209
40.4178
42.9502
49.3593
55.7708
59.8225
62.3813
64.0623
65.2358
66.0747
66.6859
67.1379
67.4772
67.7331
67.9248
68.0661
68.1678
68.2382
68.2842
68.3115
68.3243
63.9262
65.3096
61.0387
56.3057
52.041
48.6632
44.7845
40.8946
38.1412
36.1384
36.1666
38.3326
45.4706
52.6344
56.8517
59.4338
61.0919
62.2422
63.0583
63.6482
64.0812
64.4061
64.6518
64.8361
64.9719
65.0693
65.1365
65.1801
65.2056
65.2172
60.6718
62.2541
57.8372
53.0828
48.7441
45.3669
41.3811
37.2905
34.3869
32.0793
31.8174
33.4172
41.4666
49.5449
53.9241
56.5145
58.1361
59.2593
60.051
60.6178
61.0302
61.3402
61.5757
61.753
61.8834
61.9767
62.0406
62.0818
62.1054
62.1158
57.4069
59.2179
54.6337
49.8644
45.437
42.0739
37.9705
33.6491
30.5702
27.9395
27.3812
28.132
37.3493
46.5166
51.0572
53.6216
55.1912
56.2832
57.0497
57.592
57.9815
58.2762
58.5022
58.6729
58.7984
58.8877
58.9485
58.9871
59.0088
59.0178
54.1289
56.2023
51.4279
46.6492
42.124
38.7859
34.5535
29.9654
26.6948
23.7263
22.8715
22.3601
33.1464
43.5669
48.2235
50.7466
52.2532
53.3082
54.0508
54.5674
54.9312
55.2108
55.4284
55.5932
55.7141
55.7995
55.8572
55.8934
55.9131
55.9204
50.8343
53.2082
48.2191
43.4355
38.8075
35.5046
31.1306
26.2355
22.814
19.4948
18.3158
15.8945
28.8959
40.703
45.4483
47.8951
49.315
50.3271
51.0529
51.5396
51.8738
52.1398
52.3511
52.5113
52.6279
52.7095
52.7638
52.7973
52.8149
52.8209
47.5191
50.2367
45.0072
40.2219
35.4889
32.2322
27.7022
22.4613
19.0488
15.4
13.7614
8.42807
24.6455
37.9252
42.7683
45.0487
46.3629
47.3346
48.0502
48.5035
48.8029
49.0592
49.2667
49.4233
49.5362
49.6142
49.6648
49.695
49.7105
49.715
44.1788
47.289
41.7922
37.0068
32.1673
28.9713
24.2678
18.6511
15.4796
11.6201
9.26971
-0.504446
20.385
35.1152
40.0973
42.2372
43.3892
44.333
45.0446
45.4575
45.7188
45.9685
46.1745
46.3273
46.4355
46.5089
46.5558
46.5827
46.5951
46.5972
40.8078
44.3658
38.5735
33.7882
28.8376
25.7253
20.8261
14.8064
12.0629
8.17581
4.84131
-11.7777
16.5154
32.7013
37.5217
39.4431
40.385
41.3372
42.0298
42.3981
42.6208
42.8656
43.0705
43.2196
43.3221
43.3902
43.4328
43.4557
43.4641
43.4629
37.3998
41.4676
35.3502
30.564
25.4902
22.4982
17.3739
10.9215
8.70367
4.98227
0.392018
-25.0275
13.8652
29.9595
34.9119
36.6612
37.3483
38.3629
38.9395
39.2563
39.4922
39.743
39.9472
40.0902
40.1878
40.2515
40.2884
40.3062
40.311
40.3074
33.9474
38.5941
32.1197
27.3325
22.1153
19.2935
13.9084
7.02159
5.287
1.79556
0.152246
-9.65553
12.6154
27.4712
32.18
33.8928
34.255
35.3338
35.6297
35.9481
36.3238
36.5936
36.802
36.9338
37.0252
37.083
37.113
37.1252
37.1267
37.1211
30.4416
35.7444
28.8751
24.0946
18.7005
16.114
10.4302
3.22038
1.89812
-0.151831
0.263651
-0.213206
9.89163
25.1153
29.6484
31.2301
31.007
32.1991
32.2404
32.5781
33.1404
33.4033
33.6228
33.7445
33.8294
33.8806
33.903
33.9068
33.9009
33.8898
26.8722
32.9164
25.5987
20.8608
15.2426
12.9653
6.94933
-0.416381
0.0766174
0.0895872
0.232088
0.108669
6.97969
24.4551
27.2733
28.5406
27.6051
28.9303
28.836
29.2076
29.9593
30.1636
30.3764
30.4958
30.5883
30.6403
30.6543
30.6441
30.6235
30.6016
23.2266
30.1064
22.2715
17.6507
11.7585
9.85386
3.54562
-1.03202
0.0727979
0.0749878
0.17693
0.105441
-1.59806
22.9287
25.0171
26.0074
24.0238
25.8841
25.531
25.6462
26.7386
26.8575
27.0319
27.1665
27.2846
27.3439
27.3495
27.3242
27.2872
27.2522
19.4911
27.311
18.9294
14.4287
8.26832
6.82574
-1.74703
-0.293406
0.0468424
0.0556251
0.119124
0.149004
-14.5277
22.8495
22.3184
23.5998
19.7303
22.9892
22.1196
22.01
23.4062
23.4706
23.602
23.7662
23.9088
23.9755
23.9743
23.9379
23.8881
23.8414
15.649
24.5229
15.3161
11.152
4.62625
3.08681
-0.272239
-0.22434
0.0228803
0.0369662
0.0684045
0.16611
-2.46709
22.1584
18.1808
20.8871
14.9983
19.1405
18.0053
18.4084
19.9972
20.0193
20.1134
20.3201
20.475
20.5479
20.5404
20.4934
20.431
20.3713
11.681
21.6787
18.5048
7.82195
0.772812
-0.506237
-0.227235
-0.191205
0.00343424
0.0205847
0.0279296
0.144028
3.21099
15.9372
12.577
18.1056
10.2763
17.3105
13.9013
14.833
16.2303
16.3432
16.5721
16.8915
17.0528
17.1174
17.0912
17.0149
16.9198
16.8315
7.60737
19.2812
14.9855
4.24995
-1.25873
0.129954
-0.201358
-0.174661
-0.0134359
0.00592071
-0.000356284
0.108931
-1.17188
9.2601
8.47359
15.6897
7.96091
12.3912
9.85983
11.3989
11.2901
12.3329
13.1173
13.5439
13.7103
13.7376
13.6638
13.5133
13.3355
13.1798
106.587
106.582
106.561
106.519
106.449
106.345
106.194
105.986
105.704
105.331
104.842
104.209
103.389
102.324
100.921
99.0556
96.5747
93.3916
89.7049
86.1843
83.7194
82.9361
83.8955
86.3056
89.7426
93.7224
97.8606
101.819
104.911
106.883
103.315
103.309
103.288
103.247
103.178
103.074
102.925
102.719
102.439
102.068
101.583
100.954
100.14
99.0803
97.6857
95.8268
93.3474
90.152
86.442
82.9001
80.4276
79.6474
80.6128
83.0291
86.4724
90.4569
94.5978
98.5586
101.652
103.63
100.053
100.047
100.027
99.9862
99.9189
99.8171
99.6706
99.4674
99.1922
98.827
98.3487
97.7274
96.9214
95.87
94.4807
92.6216
90.1277
86.8934
83.1251
79.5432
77.07
76.3122
77.3011
79.7354
83.1949
87.19
91.3369
95.3047
98.4
100.382
96.809
96.8037
96.7835
96.7435
96.6776
96.5779
96.4347
96.236
95.9669
95.6093
95.1402
94.529
93.7336
92.6911
91.305
89.4404
86.9189
83.6199
79.7606
76.1208
73.6535
72.9346
73.9601
76.423
79.9083
83.9206
88.0774
92.057
95.1536
97.1397
93.5842
93.5789
93.5588
93.5194
93.4545
93.3568
93.2168
93.0227
92.76
92.4108
91.9518
91.3522
90.5684
89.536
88.1552
86.2809
83.7219
80.3342
76.35
72.6331
70.1783
69.5146
70.5898
73.0917
76.6128
80.649
84.8192
88.8155
91.913
93.9039
90.3774
90.3719
90.352
90.3129
90.2489
90.153
90.0158
89.8263
89.5701
89.2294
88.7811
88.1938
87.423
86.4019
85.0275
83.1424
80.5377
77.0368
72.8894
69.0754
66.6426
66.0513
67.1897
69.7411
73.3082
77.3753
81.5625
85.5804
88.6783
90.6742
87.1871
87.1814
87.1615
87.1228
87.0597
86.9655
86.8312
86.6462
86.3965
86.0647
85.6275
85.0535
84.2969
83.2887
81.9221
80.0261
77.3685
73.7281
69.3736
65.4416
63.0439
62.5437
63.7595
66.3714
69.9948
74.0995
78.3072
82.3515
85.4493
87.4505
84.012
84.0061
83.9862
83.948
83.8859
83.7934
83.6622
83.4818
83.2387
82.9159
82.4905
81.9307
81.1897
80.1964
78.8389
76.9334
74.2169
70.4089
65.7958
61.7237
59.3799
58.991
60.299
62.9824
66.6728
70.822
75.0536
79.1291
82.2261
84.233
80.8509
80.8449
80.8251
80.7873
80.7263
80.6358
80.5077
80.3319
80.0957
79.7823
79.3691
78.8244
78.1007
77.1245
75.7784
73.8659
71.0864
67.0806
62.1467
57.9118
55.6481
55.3916
56.8076
59.574
63.342
67.5429
71.8017
75.9131
79.0082
81.0213
77.7031
77.6967
77.677
77.6398
77.58
77.4915
77.3665
77.1955
76.9661
76.6624
76.2623
75.7339
75.0292
74.0725
72.7414
70.8259
67.9811
63.7456
58.4139
53.9937
51.8462
51.7436
53.2851
56.1459
60.0027
64.2627
68.5519
72.7037
75.7956
77.8154
74.5673
74.5606
74.541
74.5043
74.4457
74.3592
74.2373
74.0711
73.8487
73.555
73.1686
72.6578
71.974
71.0395
69.7276
67.8144
64.9063
60.4076
54.5822
49.9541
47.9724
48.0446
49.7311
52.6977
56.6548
60.982
65.3046
69.501
72.5882
74.6152
71.4423
71.4352
71.4155
71.3794
71.3219
71.2373
71.1185
70.9569
70.7415
70.4581
70.0862
69.5945
68.9336
68.0242
66.7368
64.8321
61.8683
57.0715
50.6315
45.774
44.0261
44.2909
46.1454
49.2286
53.2979
57.7012
62.0603
66.3053
69.3857
71.4205
68.3265
68.319
68.2993
68.2635
68.207
68.1241
68.0082
67.8511
67.6425
67.3696
67.013
66.5419
65.906
65.0248
63.7678
61.8786
58.8763
53.744
46.5356
41.4284
40.0097
40.4776
42.5283
45.7377
49.932
54.4216
58.82
63.1169
66.188
68.2313
65.2185
65.2105
65.1905
65.1549
65.0992
65.0179
64.9046
64.7516
64.5496
64.2871
63.9467
63.4979
62.8891
62.0389
60.819
58.9613
55.9386
50.4346
42.2581
36.885
35.9293
36.5975
38.8807
42.224
46.5564
51.1445
55.5843
59.9363
62.9948
65.0473
62.1162
62.1075
62.0872
62.0516
61.9965
61.9165
61.8054
61.6559
61.4598
61.2075
60.8842
60.4596
59.8799
59.0631
57.8878
56.0853
53.0375
47.1572
37.7435
32.1028
31.7974
32.6408
35.2033
38.6858
43.1705
47.8719
52.3541
56.764
59.8058
61.8681
59.0172
59.0078
58.9871
58.9515
58.8967
58.8177
58.7081
58.5615
58.3703
58.1276
57.8221
57.4236
56.8753
56.0933
54.9701
53.2526
50.19
43.9315
32.9084
27.0315
27.6368
28.5958
31.4979
35.1216
39.7736
44.6066
49.1301
53.6006
56.6207
58.6938
55.9187
55.9087
55.8875
55.8517
55.7971
55.7186
55.6103
55.4656
55.2779
55.0433
54.7563
54.3917
53.8712
53.1233
52.0594
50.4534
47.4074
40.7747
27.6441
21.615
23.4872
24.463
27.7678
31.5293
36.3647
41.3524
45.9126
50.4472
53.4394
55.5238
52.8181
52.807
52.785
52.7489
52.6945
52.6166
52.5091
52.3653
52.179
51.9497
51.6814
51.3541
50.8632
50.1432
49.1504
47.6797
44.7041
37.7096
21.8002
15.7982
19.4182
20.2954
24.0206
27.9059
32.9429
38.1142
42.701
47.3046
50.2614
52.358
49.711
49.6987
49.6757
49.6395
49.5856
49.5083
49.401
49.2572
49.0702
48.8417
48.5893
48.3118
47.8504
47.1467
46.2277
44.9171
42.2061
34.7352
15.1649
9.54368
15.5443
16.2466
20.2714
24.2473
29.5075
34.8988
39.5099
44.1735
47.0864
49.196
46.5916
46.5786
46.5556
46.5194
46.4658
46.3894
46.2833
46.1396
45.9501
45.7178
45.4784
45.2678
44.8427
44.1194
43.2975
42.1688
39.6877
31.445
7.35419
2.86322
12.0072
12.5011
16.5398
20.5505
26.0581
31.7149
36.3468
41.0552
43.914
46.0374
43.4554
43.4419
43.4194
43.3839
43.3309
43.2557
43.1519
43.0089
42.8161
42.5789
42.3499
42.2235
41.8358
41.0615
40.3415
39.3836
37.2714
28.3889
-2.14718
-4.18288
8.90934
9.12447
12.8337
16.8156
22.5934
28.5718
33.2141
37.9509
40.7437
42.8815
40.2981
40.283
40.2595
40.2245
40.1738
40.101
39.9986
39.8583
39.6647
39.4166
39.1731
39.1069
38.8125
37.9787
37.3557
36.5316
34.7932
24.9786
-11.4947
-10.7089
6.16308
5.91081
9.14928
13.0509
19.1119
25.4785
30.1194
34.8622
37.575
39.7278
37.1097
37.092
37.0664
37.0316
36.9838
36.9152
36.816
36.6817
36.4903
36.2174
35.901
35.8135
35.6684
34.8394
34.3687
33.676
32.3216
21.236
-23.5847
0.231824
3.25391
2.59696
5.51814
9.28135
15.6103
22.4415
27.0669
31.7908
34.4076
36.5756
33.8751
33.856
33.8311
33.7992
33.7557
33.6918
33.5973
33.4707
33.2819
32.9789
32.5673
32.451
32.4263
31.5478
31.2992
30.7636
30.2562
18.2718
-8.75361
0.0271226
0.164324
0.093957
2.16865
5.56031
12.0817
19.4666
24.0531
28.7386
31.2405
33.4236
30.5815
30.5626
30.5432
30.5199
30.4839
30.4226
30.3234
30.195
30.0116
29.7178
29.1013
28.8445
29.1921
28.1989
28.1541
27.6808
28.3707
19.4306
-1.02422
0.0661464
0.14322
0.00739057
0.0687988
1.90784
8.51496
16.5598
21.0823
25.7076
28.0731
30.2704
27.2249
27.2045
27.189
27.1731
27.1454
27.088
26.9787
26.8324
26.6492
26.4082
25.3831
24.8162
26.3371
24.6445
24.9554
24.458
27.108
19.0041
0.658663
0.0666047
0.114318
-0.0014275
0.00844914
-3.00693
4.91938
13.7209
18.1689
22.7001
24.9044
27.114
23.8047
23.777
23.7569
23.74
23.7172
23.6686
23.5608
23.4148
23.2191
23.0002
21.7339
19.7989
23.2163
20.454
20.8445
20.9931
25.3865
20.4875
0.130284
0.0760769
0.0777653
-0.0207576
-0.00631403
-0.144998
0.974944
10.9038
15.2669
19.7184
21.7331
23.952
20.3212
20.2792
20.2454
20.22
20.1992
20.1686
20.0851
19.9915
19.8177
19.6232
17.9215
14.8291
19.3592
16.8856
16.7886
16.2567
24.545
17.2267
0.338687
0.0817032
0.0497181
-0.0352346
-0.0223331
-0.0526636
-4.96593
8.11504
12.3861
16.7656
18.5577
20.7796
16.7592
16.7003
16.6565
16.6312
16.6231
16.6331
16.6272
16.5961
16.4655
16.316
14.3091
10.7747
17.009
13.9811
12.9813
10.1284
21.701
8.3972
0.326601
0.0758779
0.0333691
-0.0439902
-0.0348077
-0.0563548
-0.26432
4.43175
9.554
13.8448
15.3762
17.5906
13.068
12.9976
12.9674
12.972
13.0078
13.0935
13.2394
13.2441
12.9214
12.9191
10.9803
7.94908
12.8503
11.5301
10.4039
5.52085
21.6171
2.43732
0.271708
0.0696491
0.0292735
-0.0494213
-0.0447749
-0.0592986
-0.179381
-1.43348
6.90052
10.9593
12.1854
14.3851
5.17696
16.9049
11.8352
10.8669
0.0232286
0.0932262
-0.183056
-0.167133
-0.0265433
-0.00595037
-0.016523
0.0401751
-0.361525
-10.5199
5.56655
17.2677
5.85741
6.11312
5.42138
8.81785
8.06583
9.34135
10.2537
10.6595
10.8296
10.8355
10.7112
10.4438
10.1161
9.83859
3.39739
15.2317
10.1816
-1.76123
0.0098896
0.0753128
-0.171089
-0.163279
-0.0334804
-0.0125298
-0.0235939
0.00237002
-0.386114
-0.379038
1.07302
14.8327
4.95792
5.93364
3.28246
7.15836
6.86669
7.14593
8.74204
8.92557
9.13949
9.15726
9.0234
8.66513
8.19754
7.80272
1.72128
14.9853
9.02237
-11.3919
-0.00454429
0.0517576
-0.161862
-0.158016
-0.0403226
-0.0193214
-0.0300802
-0.0232781
-0.351333
-0.867658
-2.68276
13.6002
3.68744
5.1114
1.89062
5.39345
5.10871
4.75754
5.9429
7.12691
7.29934
7.36737
7.26785
6.79186
6.1016
5.51135
0.113095
12.897
7.87413
-8.26348
-0.0112771
0.0346303
-0.15327
-0.153397
-0.0470727
-0.026306
-0.0363789
-0.0470245
-0.317208
-0.726328
-0.328178
11.7125
0.373036
2.29289
4.34845
2.79417
1.86505
1.788
3.62786
5.34014
5.26512
5.44714
5.49761
4.88529
3.82633
2.88581
-1.51323
12.0938
5.3586
1.95538
-0.0284942
0.018932
-0.145338
-0.147355
-0.0536937
-0.0335091
-0.0426422
-0.0643176
-0.277429
-0.65052
-0.290192
-0.200797
-0.102713
0.0882613
1.38892
-0.276488
-1.2682
-1.55981
1.47099
3.60929
2.85551
3.37284
3.89211
3.1105
1.32282
-0.352592
-1.44761
9.76133
4.11638
0.228561
-0.039666
0.00351781
-0.13799
-0.141115
-0.0601797
-0.0408053
-0.0494628
-0.0757622
-0.244263
-0.622692
-0.29703
-0.19005
-0.112746
-0.135566
-0.166694
-0.163355
-0.143408
-0.135693
-0.157711
-0.158345
-0.136236
-0.132158
-0.133355
-0.142954
-0.128542
-0.119009
-0.506543
7.49545
2.78403
-0.144839
-0.0508517
-0.0114608
-0.131366
-0.135289
-0.066591
-0.0481421
-0.0566258
-0.0808524
-0.221984
-0.607156
-0.279999
-0.190787
-0.121407
-0.141502
-0.170829
-0.171121
-0.153151
-0.147009
-0.153766
-0.147707
-0.138943
-0.136689
-0.137101
-0.137383
-0.132865
-0.127406
-0.130005
2.99549
1.85631
-0.122285
-0.0598214
-0.0259017
-0.125832
-0.130279
-0.0729199
-0.0554841
-0.0634591
-0.0806831
-0.207673
-0.51719
-0.279224
-0.167736
-0.0762321
-0.150351
-0.178609
-0.172338
-0.160133
-0.13871
-0.151813
-0.146628
-0.141971
-0.132178
-0.136804
-0.137886
-0.137084
-0.134153
-0.133627
0.576709
0.642017
-0.123905
-0.0703874
-0.0396534
-0.121621
-0.126361
-0.0791616
-0.0627476
-0.0689239
-0.0805492
-0.207287
-0.538097
-0.311381
-0.232725
-0.15346
-0.161809
-0.12497
-0.170232
-0.164184
-0.149674
-0.147197
-0.146102
-0.143696
-0.139893
-0.138484
-0.138243
-0.139433
-0.143143
-0.138106
0.085213
0.0117231
-0.125102
-0.078611
-0.0524885
-0.118791
-0.123642
-0.0853034
-0.0698505
-0.0764107
-0.0842961
-0.203667
-0.491795
-0.313155
-0.238402
-0.173781
-0.179921
-0.17466
-0.160867
-0.164146
-0.151738
-0.150155
-0.14619
-0.147642
-0.145426
-0.145222
-0.14678
-0.149301
-0.151354
-0.142208
-0.191385
-0.0328302
-0.127456
-0.0865055
-0.0643176
-0.11732
-0.122097
-0.0910644
-0.0766889
-0.0826356
-0.0881215
-0.204179
-0.417709
-0.311845
-0.241721
-0.192307
-0.192658
-0.198787
-0.181145
-0.179114
-0.167322
-0.159518
-0.156927
-0.141659
-0.15028
-0.148851
-0.149205
-0.147407
-0.149503
-0.145459
-0.191927
-0.10376
-0.130413
-0.0943009
-0.0752776
-0.117116
-0.121627
-0.0960273
-0.082739
-0.0885175
-0.0960324
-0.0724653
-0.459963
-0.301318
-0.242136
-0.20566
-0.202622
-0.156531
-0.189405
-0.195012
-0.190996
-0.179746
-0.168585
-0.162379
-0.149697
-0.144562
-0.145758
-0.141361
-0.13075
-0.150883
-0.19306
-0.0932212
-0.133268
-0.102146
-0.0855567
-0.118082
-0.122151
-0.102131
-0.0901284
-0.0942505
-0.104191
-0.0477233
-0.498136
-0.283252
-0.238984
-0.195682
-0.210645
-0.211499
-0.208875
-0.199793
-0.175337
-0.204168
-0.185086
-0.172826
-0.163891
-0.144446
-0.148813
-0.141727
-0.128995
-0.156474
-0.195008
-0.132418
-0.137172
-0.110155
-0.0953954
-0.12011
-0.123689
-0.106897
-0.0966409
-0.0989916
-0.130497
-0.112049
-0.290698
-0.251977
-0.16193
-0.212239
-0.217776
-0.220607
-0.21998
-0.204353
-0.22392
-0.219818
-0.201386
-0.186271
-0.174564
-0.164376
-0.153967
-0.145905
-0.139707
-0.162808
-0.197281
-0.116537
-0.140855
-0.118374
-0.104958
-0.123109
-0.125848
-0.111909
-0.103734
-0.102555
-0.121532
-0.057509
-0.18068
-0.197628
-0.219601
-0.215096
-0.223884
-0.231162
-0.238109
-0.252382
-0.259975
-0.24309
-0.219652
-0.19978
-0.186173
-0.174914
-0.16542
-0.158031
-0.15142
-0.169875
-0.197747
-0.0925257
-0.145538
-0.126845
-0.114375
-0.127003
-0.128923
-0.118029
-0.1118
-0.106949
-0.103312
-0.00617202
-0.0779231
-0.173596
-0.203671
-0.215255
-0.227525
-0.239033
-0.250579
-0.263468
-0.248896
-0.256192
-0.235499
-0.215412
-0.19925
-0.188776
-0.135972
-0.167707
-0.162555
-0.177445
-0.199016
-0.0839653
-0.152264
-0.135672
-0.123712
-0.131776
-0.13233
-0.123778
-0.121655
-0.11356
-0.0983741
-0.0309784
-0.0838295
-0.155235
-0.192932
-0.214337
-0.231373
-0.245166
-0.258239
-0.268409
-0.271931
-0.263313
-0.244478
-0.231168
-0.216836
-0.183894
-0.168102
-0.155281
-0.161992
-0.185015
-0.202512
-0.0833267
-0.16114
-0.144974
-0.133042
-0.137354
-0.136031
-0.126156
-0.13467
-0.123273
-0.102043
-0.0558124
-0.0928723
-0.149168
-0.18802
-0.214065
-0.233748
-0.249422
-0.262623
-0.272671
-0.277129
-0.273261
-0.262023
-0.247902
-0.231737
-0.198119
-0.178723
-0.176659
-0.167399
-0.192233
-0.210216
-0.0686188
-0.173834
-0.154802
-0.142433
-0.143696
-0.141815
-0.138815
-0.151387
-0.136977
-0.111996
-0.0833523
-0.109543
-0.152251
-0.188123
-0.215574
-0.236984
-0.253675
-0.266436
-0.275978
-0.282233
-0.281783
-0.275423
-0.26377
-0.250103
-0.233781
-0.218531
-0.199185
-0.181854
-0.199019
-0.223591
-0.0540387
-0.192977
-0.165055
-0.151966
-0.150917
-0.148255
-0.151633
-0.173715
-0.150765
-0.126997
-0.110061
-0.128224
-0.160454
-0.191945
-0.219254
-0.241998
-0.259489
-0.271218
-0.278459
-0.283094
-0.283651
-0.280573
-0.271959
-0.259617
-0.244979
-0.229896
-0.214668
-0.199911
-0.205299
-0.2419
0.0115639
-0.220141
-0.175307
-0.161723
-0.159126
-0.155645
-0.1631
-0.191255
-0.176395
-0.145417
-0.134265
-0.146954
-0.171168
-0.198222
-0.225054
-0.249668
-0.268622
-0.279184
-0.283059
-0.283659
-0.282255
-0.279062
-0.272857
-0.265535
-0.258454
-0.251478
-0.242832
-0.231393
-0.211081
-0.246365
-0.0986985
-0.229224
-0.184868
-0.171797
-0.168319
-0.16136
-0.17368
-0.210026
-0.195365
-0.164533
-0.155614
-0.164413
-0.182468
-0.205526
-0.232353
-0.260668
-0.282755
-0.293282
-0.293768
-0.29042
-0.28577
-0.280689
-0.276594
-0.274399
-0.274411
-0.27296
-0.270503
-0.262795
-0.216939
-0.237186
-0.18636
-0.222777
-0.193833
-0.182316
-0.178346
-0.176048
-0.182139
-0.218452
-0.209566
-0.181161
-0.173781
-0.179616
-0.192773
-0.211868
-0.238944
-0.272609
-0.301575
-0.311891
-0.307124
-0.299711
-0.2919
-0.281264
-0.27014
-0.269178
-0.269021
-0.267008
-0.251901
-0.266885
-0.223502
-0.232529
-0.186537
-0.220755
-0.20296
-0.193468
-0.189347
-0.186892
-0.188774
-0.222651
-0.214648
-0.193739
-0.188709
-0.192317
-0.201036
-0.214856
-0.238203
-0.274132
-0.31204
-0.325597
-0.31492
-0.307096
-0.307536
-0.309573
-0.299545
-0.297005
-0.268875
-0.263466
-0.270279
-0.280279
-0.231166
-0.233381
-0.195881
-0.223603
-0.212823
-0.205415
-0.201474
-0.199047
-0.202189
-0.217104
-0.214308
-0.204242
-0.201543
-0.203396
-0.207907
-0.215123
-0.227724
-0.244434
-0.274332
-0.287056
-0.265707
-0.262801
-0.258584
-0.241469
-0.147107
-0.181606
-0.231067
-0.248193
-0.266314
-0.275912
-0.240147
-0.238114
-0.210042
-0.23008
-0.223853
-0.218235
-0.214765
-0.212652
-0.213554
-0.218808
-0.219033
-0.215451
-0.214089
-0.2146
-0.215875
-0.217058
-0.218604
-0.211678
-0.129563
-0.13963
-0.225308
-0.232792
-0.24279
-0.254025
-0.2659
-0.270908
-0.27312
-0.279256
-0.281621
-0.277997
-0.250553
-0.245894
-0.226538
-0.239643
-0.236192
-0.23204
-0.229225
-0.227539
-0.227646
-0.22946
-0.2298
-0.22853
-0.227733
-0.227571
-0.227664
-0.227893
-0.229137
-0.234895
-0.239073
-0.246436
-0.236999
-0.234853
-0.238026
-0.246056
-0.251627
-0.255744
-0.26167
-0.268693
-0.275157
-0.283766
-0.262425
-0.256171
-0.243936
-0.251687
-0.249838
-0.246943
-0.244852
-0.243622
-0.243459
-0.24405
-0.244167
-0.243623
-0.243088
-0.242748
-0.242631
-0.24295
-0.244127
-0.246293
-0.247743
-0.246115
-0.244289
-0.244744
-0.247829
-0.250631
-0.254152
-0.257764
-0.261871
-0.265918
-0.269869
-0.273282
-0.275765
-0.268546
-0.261722
-0.265779
-0.264859
-0.263057
-0.2617
-0.260922
-0.260723
-0.260854
-0.260863
-0.260608
-0.260257
-0.25993
-0.25974
-0.259829
-0.260256
-0.260827
-0.261105
-0.260842
-0.26052
-0.260797
-0.261785
-0.26317
-0.264724
-0.266368
-0.268007
-0.269572
-0.271015
-0.272306
-0.290524
-0.282722
-0.280034
-0.281626
-0.281311
-0.280496
-0.279864
-0.279539
-0.27943
-0.279417
-0.279437
-0.279374
-0.279202
-0.27897
-0.278816
-0.27872
-0.278772
-0.278887
-0.27898
-0.279037
-0.279143
-0.279381
-0.27976
-0.280232
-0.280743
-0.281259
-0.281755
-0.282217
-0.282639
-0.283018
9.66702
9.60102
9.62751
9.70093
9.79123
9.95298
10.2527
10.7892
10.0338
9.28251
8.04145
6.1659
7.63339
10.4193
6.97279
-1.51495
24.1325
-2.71408
0.310039
0.0684289
0.0239184
-0.0526013
-0.0521567
-0.0643149
-0.168837
-0.00984686
3.61288
8.45072
9.37399
11.5897
7.57893
7.53061
7.62669
7.7652
7.87924
8.07788
8.48803
8.81611
8.91562
7.2091
6.28865
3.76895
5.49658
9.92661
4.99857
1.34769
7.08692
-0.549054
0.330994
0.0664848
0.0497523
-0.054028
-0.0559407
-0.067692
-0.163766
0.0112022
-2.25284
6.9463
7.71404
9.93262
5.2072
5.20665
5.43848
5.67638
5.78021
5.99077
6.57472
7.03244
6.84552
5.19962
4.21953
1.2151
3.90055
8.93905
4.42781
-3.08591
-0.508197
-0.468456
0.270391
0.0494477
-0.0399963
-0.0532594
-0.059416
-0.071188
-0.15758
0.00358201
0.0915178
5.05383
5.9242
8.15686
2.44795
2.56562
3.07791
3.46833
3.44757
3.58984
4.4706
5.46316
4.61502
2.70655
1.51385
-2.309
3.57251
8.04108
2.05656
-0.0889257
-0.503367
-0.436015
0.177113
0.111469
-0.0468659
-0.071056
-0.0631488
-0.0746771
-0.150837
-0.00235549
-0.13393
2.42011
4.02306
6.26508
-1.01889
-0.564963
0.618649
1.29689
0.856664
0.687063
2.048
3.99187
2.46299
-0.400897
-0.154184
-0.579506
0.40496
0.518953
-0.075426
-0.118867
-0.391705
-0.469674
0.0604662
-0.0011101
-0.0538599
-0.0736567
-0.0668384
-0.0781381
-0.14518
-0.0131218
-0.109755
1.23627
1.94971
5.3803
-0.114206
-0.111518
-0.109467
-0.10585
-0.0999495
-0.0935495
-0.0827964
-0.0835889
-0.0647987
-0.0746985
-0.0542206
-0.055421
-0.0781726
-0.102513
-0.0825426
-0.129568
-0.369129
-0.431527
0.038539
-0.00267356
-0.0488773
-0.0714476
-0.0707537
-0.0815978
-0.138395
-0.0237754
-0.108095
-0.105623
-0.80502
3.1934
-0.122556
-0.117649
-0.112253
-0.106206
-0.0996409
-0.0932782
-0.0860448
-0.0799463
-0.0704182
-0.0721716
-0.0650498
-0.066365
-0.0854285
-0.102101
-0.0890346
-0.157889
-0.35699
-0.377742
-0.0930047
0.064331
-0.0970349
-0.0836438
-0.0749766
-0.0851052
-0.132099
-0.0344505
-0.107795
-0.0930605
0.0328188
0.427175
-0.129751
-0.123636
-0.116137
-0.108594
-0.101934
-0.0962834
-0.0897091
-0.082198
-0.073711
-0.0742134
-0.0740538
-0.0783174
-0.0957447
-0.100435
-0.0994073
-0.169339
-0.362478
-0.350174
-0.150023
-0.110967
-0.106584
-0.085822
-0.0795571
-0.0887205
-0.126694
-0.0449397
-0.1073
-0.0983913
-0.21629
-0.0815557
-0.139838
-0.131582
-0.120597
-0.110605
-0.103605
-0.0992298
-0.0939144
-0.0863783
-0.0786324
-0.0783814
-0.0811604
-0.0895765
-0.106279
-0.1087
-0.101267
-0.15572
-0.33968
-0.334538
-0.192448
-0.138618
-0.114241
-0.0910464
-0.0845052
-0.0924883
-0.12241
-0.0548833
-0.106548
-0.105731
-0.216026
-0.110458
-0.153896
-0.143339
-0.125778
-0.112407
-0.105123
-0.101658
-0.0977424
-0.0908787
-0.0836436
-0.0831711
-0.0852998
-0.097781
-0.118799
-0.114705
-0.107354
-0.190955
-0.351394
-0.325658
-0.209677
-0.145838
-0.125419
-0.0950606
-0.0898258
-0.0964522
-0.119389
-0.0643001
-0.106209
-0.112734
-0.211579
-0.127091
-0.0326697
-0.135028
-0.125944
-0.113185
-0.106474
-0.103257
-0.100084
-0.0947892
-0.0866871
-0.0913586
-0.0897678
-0.102452
-0.126238
-0.121071
-0.111112
-0.203491
-0.335424
-0.303334
-0.1991
-0.149261
-0.131397
-0.102031
-0.0911614
-0.100637
-0.117686
-0.0733139
-0.106613
-0.119223
-0.178838
-0.140598
-0.096027
-0.0893104
-0.119027
-0.112601
-0.107939
-0.104956
-0.101425
-0.0973411
-0.0887502
-0.0898937
-0.0922208
-0.10497
-0.109828
-0.111781
-0.132727
-0.198096
-0.305083
-0.259264
-0.179268
-0.151692
-0.135361
-0.110373
-0.101028
-0.105049
-0.117297
-0.082074
-0.10802
-0.125274
-0.200276
-0.147947
-0.113527
-0.106297
-0.115534
-0.113007
-0.109683
-0.10819
-0.106414
-0.0985453
-0.0943029
-0.0926914
-0.0923947
-0.109653
-0.102964
-0.139244
-0.158953
-0.214664
-0.262606
-0.206026
-0.158175
-0.155344
-0.139279
-0.111879
-0.107194
-0.109718
-0.118183
-0.0906813
-0.110617
-0.131006
-0.197175
-0.149556
-0.127313
-0.117065
-0.0853964
-0.103532
-0.0551351
-0.0893928
-0.11434
-0.0984646
-0.0870529
-0.0876987
-0.090956
-0.111763
-0.123737
-0.154717
-0.182208
-0.211182
-0.217231
-0.163299
-0.140971
-0.16167
-0.146905
-0.122111
-0.111186
-0.114648
-0.120273
-0.0992215
-0.114454
-0.136522
-0.194819
-0.152632
-0.137441
-0.175139
-0.0770994
0.07701
0.0344922
0.0037358
0.024798
-0.0764989
-0.0742074
-0.0775113
-0.0914746
-0.125959
-0.0853012
-0.162036
-0.198577
-0.201974
-0.179831
-0.153483
-0.130275
-0.170762
-0.148144
-0.127032
-0.119039
-0.119824
-0.123471
-0.107762
-0.119442
-0.141925
-0.191122
-0.155989
-0.0767225
-0.154265
-0.127561
-0.1252
-0.0741222
-0.0744303
-0.131635
-0.131062
0.0156928
-0.0845526
-0.0759414
-0.0692745
-0.117455
-0.167843
-0.191505
-0.181883
-0.173957
-0.125915
-0.0698626
-0.177791
-0.149474
-0.131204
-0.124673
-0.125308
-0.127668
-0.116354
-0.125423
-0.147341
-0.188382
-0.159746
-0.151276
-0.144191
-0.137111
-0.128099
-0.106772
-0.0968488
-0.108997
0.393199
0.436825
-0.019498
-0.110159
0.00786333
-0.0997617
-0.102831
-0.172704
-0.16693
-0.157793
-0.102373
-0.134292
-0.171167
-0.150506
-0.135203
-0.130495
-0.131172
-0.132767
-0.12503
-0.132258
-0.152896
-0.186864
-0.163977
-0.15573
-0.144549
-0.13254
-0.119289
-0.105312
-0.0982005
-0.104052
-0.108759
-0.0475009
-0.0840779
-0.0476455
-0.0764708
-0.101744
-0.123514
-0.184186
-0.157977
-0.13691
-0.136635
-0.127493
-0.162156
-0.151669
-0.139287
-0.13626
-0.137489
-0.138696
-0.133817
-0.139824
-0.158732
-0.186653
-0.168707
-0.166508
-0.151994
-0.137564
-0.124252
-0.114474
-0.109776
-0.104759
-0.108792
-0.112976
-0.148777
-0.0681197
-0.152299
-0.136855
-0.173827
-0.174311
-0.155931
-0.133789
-0.133259
-0.129525
-0.158173
-0.154142
-0.142479
-0.143242
-0.14432
-0.145424
-0.14276
-0.148022
-0.165008
-0.187694
-0.173946
-0.185601
-0.170599
-0.154638
-0.139909
-0.129095
-0.119497
-0.127702
-0.130107
-0.131621
-0.145589
-0.152635
-0.153542
-0.156439
-0.168585
-0.170571
-0.160062
-0.143711
-0.1406
-0.142573
-0.160546
-0.157716
-0.147903
-0.150063
-0.151768
-0.152952
-0.15194
-0.15678
-0.171939
-0.189925
-0.179716
-0.217696
-0.201663
-0.186071
-0.171271
-0.161168
-0.158666