/*--------------------------------*- C++ -*----------------------------------*\
| =========                 |                                                 |
| \\      /  F ield         | OpenFOAM: The Open Source CFD Toolbox           |
|  \\    /   O peration     | Version:  2.4.0                                 |
|   \\  /    A nd           | Web:      www.OpenFOAM.org                      |
|    \\/     M anipulation  |                                                 |
\*---------------------------------------------------------------------------*/
FoamFile
{
    version     2.0;
    format      ascii;
    class       surfaceScalarField;
    location    "0.127";
    object      phiAlpha;
}
// * * * * * * * * * * * * * * * * * * * * * * * * * * * * * * * * * * * * * //

dimensions      [0 3 -1 0 0 0 0];

internalField   nonuniform List<scalar> 
28560
(
-3.24506e-09
1.25682e-08
-9.32316e-09
3.77545e-09
-1.45119e-09
-2.32427e-09
-2.96302e-09
6.19184e-09
-3.22882e-09
-1.12701e-08
1.30641e-08
-1.79404e-09
-1.91723e-08
2.2531e-08
-3.35868e-09
-2.95729e-08
3.45338e-08
-4.96097e-09
-4.09246e-08
4.58355e-08
-4.91087e-09
-4.98658e-08
5.25211e-08
-2.65533e-09
-5.29311e-08
5.15095e-08
1.42164e-09
-4.71268e-08
4.09114e-08
6.21543e-09
-3.24987e-08
2.37722e-08
8.72651e-09
-1.36675e-08
4.1671e-09
9.50043e-09
5.5192e-09
-1.39718e-08
8.45262e-09
2.16332e-08
-2.76021e-08
5.96892e-09
3.25026e-08
-3.59664e-08
3.4638e-09
3.85249e-08
-4.00752e-08
1.55028e-09
4.09704e-08
-4.12398e-08
2.69357e-10
4.10273e-08
-4.04354e-08
-5.91878e-10
3.94868e-08
-3.83307e-08
-1.15604e-09
3.68918e-08
-3.53556e-08
-1.53619e-09
3.36001e-08
-3.18327e-08
-1.76741e-09
2.98972e-08
-2.80123e-08
-1.8849e-09
2.60035e-08
-2.40906e-08
-1.91291e-09
2.20889e-08
-2.02146e-08
-1.8743e-09
1.82786e-08
-1.64841e-08
-1.79454e-09
1.4649e-08
-1.29611e-08
-1.68794e-09
1.1245e-08
-9.67445e-09
-1.57055e-09
8.08595e-09
-6.6374e-09
-1.44854e-09
5.17808e-09
-3.852e-09
-1.32608e-09
2.51961e-09
-1.31492e-09
-1.20469e-09
-2.56267e-08
4.06275e-08
-1.50007e-08
2.07211e-08
-2.08548e-08
3.61449e-09
-3.4808e-09
1.53142e-08
-1.07619e-08
8.13629e-09
-1.26886e-08
5.50909e-10
5.38542e-09
6.48151e-09
-1.24178e-08
-1.85137e-08
2.91581e-08
1.1848e-08
-2.24923e-08
-4.47086e-08
5.86309e-08
1.63213e-08
-3.02435e-08
-7.39808e-08
8.77242e-08
1.60302e-08
-2.97735e-08
-1.00661e-07
1.11384e-07
1.06331e-08
-2.13562e-08
-1.1927e-07
1.23948e-07
4.77589e-10
-5.15562e-09
-1.24073e-07
1.20044e-07
-1.2471e-08
1.65005e-08
-1.11655e-07
1.01246e-07
-2.0359e-08
3.07674e-08
-8.75117e-08
7.34118e-08
-2.39077e-08
3.80076e-08
-5.74094e-08
4.21935e-08
-2.31061e-08
3.8322e-08
-2.6807e-08
1.324e-08
-1.83462e-08
3.19132e-08
-4.79312e-10
-1.00975e-08
-1.25683e-08
2.31451e-08
1.95933e-08
-2.69566e-08
-7.30292e-09
1.46663e-08
3.30983e-08
-3.74976e-08
-3.23479e-09
7.63407e-09
4.07798e-08
-4.27784e-08
-2.46874e-10
2.24546e-09
4.38712e-08
-4.41016e-08
1.82912e-09
-1.59873e-09
4.36359e-08
-4.26477e-08
3.23085e-09
-4.21898e-09
4.11545e-08
-3.94055e-08
4.10242e-09
-5.8514e-09
3.73003e-08
-3.51253e-08
4.57038e-09
-6.7454e-09
3.2714e-08
-3.03583e-08
4.73683e-09
-7.09259e-09
2.78524e-08
-2.54841e-08
4.69007e-09
-7.05844e-09
2.30247e-08
-2.07433e-08
4.51271e-09
-6.79408e-09
1.84124e-08
-1.62746e-08
4.25382e-09
-6.39159e-09
1.4109e-08
-1.21355e-08
3.96081e-09
-5.93422e-09
1.01472e-08
-8.342e-09
3.65291e-09
-5.4581e-09
6.52896e-09
-4.88668e-09
3.34327e-09
-4.98555e-09
3.24014e-09
-1.75388e-09
3.03608e-09
-4.52234e-09
-5.65658e-08
7.29652e-08
-1.63994e-08
2.59219e-08
-2.72482e-08
2.50735e-09
-1.18106e-09
2.24176e-08
-1.8225e-08
1.69691e-08
-2.11618e-08
7.14847e-09
-1.39151e-09
1.84133e-08
-2.41703e-08
-1.22018e-08
2.37224e-08
3.38187e-08
-4.53392e-08
-3.99642e-08
5.48958e-08
4.49532e-08
-5.98848e-08
-7.12459e-08
8.61459e-08
4.44018e-08
-5.93018e-08
-1.00399e-07
1.12551e-07
3.31474e-08
-4.52993e-08
-1.22082e-07
1.28642e-07
1.11986e-08
-1.7759e-08
-1.30934e-07
1.291e-07
-1.8986e-08
2.08206e-08
-1.22988e-07
1.14837e-07
-3.97277e-08
4.78785e-08
-1.03252e-07
9.11959e-08
-5.08993e-08
6.29559e-08
-7.72171e-08
6.37247e-08
-5.26167e-08
6.6109e-08
-5.00045e-08
3.78064e-08
-4.48654e-08
5.70635e-08
-2.62471e-08
1.66333e-08
-3.34013e-08
4.30151e-08
-7.92769e-09
1.02372e-09
-2.20393e-08
2.89433e-08
4.90306e-09
-9.4068e-09
-1.22848e-08
1.67885e-08
1.30242e-08
-1.55377e-08
-4.67578e-09
7.18928e-09
1.73421e-08
-1.83714e-08
8.2768e-10
2.01686e-10
1.88664e-08
-1.8877e-08
4.59331e-09
-4.58272e-09
1.84949e-08
-1.78452e-08
6.94896e-09
-7.59868e-09
1.693e-08
-1.59044e-08
8.24464e-09
-9.27026e-09
1.4715e-08
-1.35207e-08
8.764e-09
-9.95831e-09
1.22367e-08
-1.10234e-08
8.74286e-09
-9.9561e-09
9.77744e-09
-8.64415e-09
8.39209e-09
-9.52539e-09
7.51845e-09
-6.52192e-09
7.85105e-09
-8.84758e-09
5.55175e-09
-4.70495e-09
7.24133e-09
-8.08813e-09
3.88898e-09
-3.17787e-09
6.62062e-09
-7.33172e-09
2.49027e-09
-1.88661e-09
6.02147e-09
-6.62513e-09
1.29531e-09
-7.69746e-10
5.44946e-09
-5.97503e-09
-8.96285e-08
1.06487e-07
-1.68588e-08
2.71441e-08
-2.85579e-08
-2.43809e-10
1.65767e-09
2.38009e-08
-1.95821e-08
2.53567e-08
-2.95755e-08
8.49924e-09
-2.97575e-09
2.97805e-08
-3.5304e-08
-1.073e-08
2.23605e-08
5.69283e-08
-6.85588e-08
-3.86947e-08
5.37713e-08
7.49018e-08
-8.99784e-08
-7.02982e-08
8.53699e-08
7.43059e-08
-8.93776e-08
-9.98595e-08
1.12276e-07
5.76014e-08
-7.00178e-08
-1.2206e-07
1.28997e-07
2.45328e-08
-3.14701e-08
-1.31534e-07
1.29893e-07
-2.24798e-08
2.41211e-08
-1.23952e-07
1.1619e-07
-5.57201e-08
6.34827e-08
-1.04885e-07
9.32807e-08
-7.4646e-08
8.62503e-08
-7.97208e-08
6.66699e-08
-7.92209e-08
9.22717e-08
-5.35137e-08
4.18822e-08
-6.88276e-08
8.04591e-08
-3.09696e-08
2.19925e-08
-5.21864e-08
6.11636e-08
-1.39131e-08
7.50271e-09
-3.5518e-08
4.19284e-08
-1.96214e-09
-2.26015e-09
-2.10993e-08
2.53216e-08
5.75476e-09
-8.28425e-09
-9.70853e-09
1.2238e-08
1.02314e-08
-1.14865e-08
-1.37943e-09
2.63453e-09
1.23052e-08
-1.26719e-08
4.34735e-09
-3.98058e-09
1.27117e-08
-1.24774e-08
7.98342e-09
-8.21775e-09
1.2009e-08
-1.13986e-08
1.00253e-08
-1.06358e-08
1.06276e-08
-9.81548e-09
1.08965e-08
-1.17086e-08
8.90684e-09
-8.02326e-09
1.09329e-08
-1.18164e-08
7.0995e-09
-6.24872e-09
1.04428e-08
-1.12936e-08
5.39768e-09
-4.64535e-09
9.64152e-09
-1.03938e-08
3.91849e-09
-3.29353e-09
8.73812e-09
-9.36307e-09
2.70171e-09
-2.1987e-09
7.84838e-09
-8.35139e-09
1.72471e-09
-1.31835e-09
7.0418e-09
-7.44816e-09
9.28347e-10
-5.8667e-10
6.32619e-09
-6.66787e-09
-1.23532e-07
1.40772e-07
-1.724e-08
2.77319e-08
-2.9009e-08
-3.01422e-09
4.2914e-09
2.41466e-08
-1.98855e-08
3.38168e-08
-3.80779e-08
8.82116e-09
-3.44321e-09
4.07554e-08
-4.61334e-08
-1.0247e-08
2.19555e-08
8.02262e-08
-9.19347e-08
-3.83559e-08
5.35492e-08
1.05111e-07
-1.20304e-07
-7.02195e-08
8.54191e-08
1.04511e-07
-1.19711e-07
-1.00127e-07
1.12802e-07
8.25553e-08
-9.52301e-08
-1.22829e-07
1.30181e-07
3.85952e-08
-4.59466e-08
-1.32884e-07
1.31227e-07
-2.57716e-08
2.74283e-08
-1.25111e-07
1.17363e-07
-7.1234e-08
7.8982e-08
-1.05777e-07
9.40567e-08
-9.78901e-08
1.0961e-07
-8.01467e-08
6.67716e-08
-1.05439e-07
1.18814e-07
-5.3369e-08
4.15353e-08
-9.21419e-08
1.03976e-07
-3.05223e-08
2.15237e-08
-7.01091e-08
7.91077e-08
-1.34544e-08
7.06821e-09
-4.82953e-08
5.46815e-08
-1.55235e-09
-2.66561e-09
-2.95149e-08
3.37328e-08
6.1799e-09
-8.75055e-09
-1.47848e-08
1.73555e-08
1.07601e-08
-1.21161e-08
-3.95923e-09
5.31526e-09
1.30411e-08
-1.35288e-08
3.53286e-09
-3.0452e-09
1.36985e-08
-1.35948e-08
8.36649e-09
-8.4702e-09
1.32584e-08
-1.27675e-08
1.11655e-08
-1.16563e-08
1.21132e-08
-1.13937e-08
1.24607e-08
-1.31802e-08
1.05612e-08
-9.72632e-09
1.26634e-08
-1.34983e-08
8.82267e-09
-7.95894e-09
1.2142e-08
-1.30057e-08
7.06025e-09
-6.2294e-09
1.11759e-08
-1.20068e-08
5.38779e-09
-4.62609e-09
1.00447e-08
-1.08064e-08
3.86817e-09
-3.18987e-09
8.9283e-09
-9.6066e-09
2.51915e-09
-1.91997e-09
7.93523e-09
-8.53441e-09
1.32578e-09
-7.93626e-10
7.08953e-09
-7.62169e-09
-1.58226e-07
1.75921e-07
-1.76947e-08
2.83542e-08
-2.94267e-08
-5.47369e-09
6.5462e-09
2.44019e-08
-2.0106e-08
4.23567e-08
-4.66526e-08
9.06162e-09
-3.85712e-09
5.14296e-08
-5.66341e-08
-9.77323e-09
2.15787e-08
1.03689e-07
-1.15494e-07
-3.80461e-08
5.33771e-08
1.35563e-07
-1.50894e-07
-7.02118e-08
8.55581e-08
1.34981e-07
-1.50327e-07
-1.00538e-07
1.13531e-07
1.08057e-07
-1.2105e-07
-1.23876e-07
1.31794e-07
5.3562e-08
-6.14802e-08
-1.34747e-07
1.3308e-07
-2.90888e-08
3.07558e-08
-1.2676e-07
1.19039e-07
-8.67198e-08
9.44406e-08
-1.07084e-07
9.51562e-08
-1.21428e-07
1.33356e-07
-8.0705e-08
6.67701e-08
-1.32449e-07
1.46383e-07
-5.28915e-08
4.06187e-08
-1.16012e-07
1.28285e-07
-2.92951e-08
2.0102e-08
-8.81959e-08
9.7389e-08
-1.18763e-08
5.395e-09
-6.11115e-08
6.75929e-08
1.76096e-10
-4.43671e-09
-3.79737e-08
4.22343e-08
7.98095e-09
-1.05755e-08
-1.99388e-08
2.25334e-08
1.25987e-08
-1.39509e-08
-6.67775e-09
8.03e-09
1.48778e-08
-1.53673e-08
2.54598e-09
-2.05642e-09
1.55415e-08
-1.54451e-08
8.56093e-09
-8.65736e-09
1.51214e-08
-1.46452e-08
1.21288e-08
-1.2605e-08
1.40055e-08
-1.32955e-08
1.38877e-08
-1.45977e-08
1.24679e-08
-1.16258e-08
1.43315e-08
-1.51736e-08
1.06971e-08
-9.78987e-09
1.38898e-08
-1.4797e-08
8.82104e-09
-7.89765e-09
1.28862e-08
-1.38096e-08
6.93156e-09
-6.02694e-09
1.16447e-08
-1.25493e-08
5.09544e-09
-4.2351e-09
1.03832e-08
-1.12436e-08
3.3596e-09
-2.55858e-09
9.2426e-09
-1.00436e-08
1.75e-09
-1.01701e-09
8.26239e-09
-8.99539e-09
-1.9388e-07
2.12129e-07
-1.82486e-08
2.9123e-08
-2.99303e-08
-7.49434e-09
8.30162e-09
2.4698e-08
-2.03661e-08
5.09664e-08
-5.52983e-08
9.34607e-09
-4.35465e-09
6.17373e-08
-6.67288e-08
-9.19124e-09
2.11247e-08
1.2736e-07
-1.39293e-07
-3.76726e-08
5.31731e-08
1.66306e-07
-1.81807e-07
-7.0205e-08
8.57217e-08
1.65757e-07
-1.81274e-07
-1.01045e-07
1.14413e-07
1.34225e-07
-1.47593e-07
-1.25152e-07
1.33806e-07
6.97439e-08
-7.83976e-08
-1.37081e-07
1.35377e-07
-3.24362e-08
3.41405e-08
-1.28828e-07
1.21156e-07
-1.0214e-07
1.09811e-07
-1.0879e-07
9.65989e-08
-1.45409e-07
1.57599e-07
-8.14958e-08
6.6821e-08
-1.60664e-07
1.75339e-07
-5.23501e-08
3.95088e-08
-1.40826e-07
1.53668e-07
-2.77991e-08
1.83712e-08
-1.06697e-07
1.16125e-07
-9.95651e-09
3.36301e-09
-7.41299e-08
8.07234e-08
2.27849e-09
-6.57976e-09
-4.65283e-08
5.08295e-08
1.01187e-08
-1.26901e-08
-2.51093e-08
2.76807e-08
1.46784e-08
-1.59798e-08
-9.36768e-09
1.06691e-08
1.68459e-08
-1.72698e-08
1.59178e-09
-1.16792e-09
1.73742e-08
-1.7212e-08
8.78028e-09
-8.94247e-09
1.68193e-08
-1.62825e-08
1.31038e-08
-1.36406e-08
1.55823e-08
-1.48185e-08
1.53264e-08
-1.60902e-08
1.3934e-08
-1.30369e-08
1.60371e-08
-1.69342e-08
1.20462e-08
-1.10742e-08
1.57331e-08
-1.67052e-08
1.00285e-08
-9.02218e-09
1.47742e-08
-1.57805e-08
7.95732e-09
-6.94844e-09
1.35098e-08
-1.45187e-08
5.89723e-09
-4.91514e-09
1.21717e-08
-1.31538e-08
3.90588e-09
-2.97519e-09
1.0918e-08
-1.18487e-08
2.02976e-09
-1.16926e-09
9.80066e-09
-1.06612e-08
-2.30696e-07
2.4961e-07
-1.89132e-08
3.00578e-08
-3.05282e-08
-8.95024e-09
9.42062e-09
2.50411e-08
-2.06725e-08
5.96484e-08
-6.4017e-08
9.68548e-09
-4.94831e-09
7.15978e-08
-7.6335e-08
-8.48454e-09
2.05803e-08
1.51302e-07
-1.63398e-07
-3.72202e-08
5.29216e-08
1.97403e-07
-2.13104e-07
-7.01795e-08
8.58828e-08
1.96881e-07
-2.12584e-07
-1.01625e-07
1.1541e-07
1.61164e-07
-1.7495e-07
-1.26629e-07
1.36214e-07
8.74896e-08
-9.70749e-08
-1.39884e-07
1.38085e-07
-3.5883e-08
3.76825e-08
-1.31285e-07
1.23687e-07
-1.17448e-07
1.25046e-07
-1.10893e-07
9.83726e-08
-1.69945e-07
1.82466e-07
-8.25144e-08
6.68782e-08
-1.90462e-07
2.06098e-07
-5.17088e-08
3.81645e-08
-1.66841e-07
1.80386e-07
-2.60124e-08
1.63297e-08
-1.25677e-07
1.3536e-07
-7.70781e-09
1.00004e-09
-8.73734e-08
9.40811e-08
4.70134e-09
-9.02127e-09
-5.51351e-08
5.94551e-08
1.2559e-08
-1.50927e-08
-3.02291e-08
3.27628e-08
1.70075e-08
-1.8234e-08
-1.19402e-08
1.31667e-08
1.90019e-08
-1.93274e-08
7.92168e-10
-4.66687e-10
1.93151e-08
-1.90417e-08
9.15696e-09
-9.4303e-09
1.8531e-08
-1.78847e-08
1.42283e-08
-1.48747e-08
1.70692e-08
-1.6197e-08
1.69028e-08
-1.7775e-08
1.52034e-08
-1.42058e-08
1.78775e-08
-1.88751e-08
1.31127e-08
-1.20458e-08
1.77208e-08
-1.87877e-08
1.09032e-08
-9.80657e-09
1.68303e-08
-1.79269e-08
8.64804e-09
-7.55122e-09
1.55719e-08
-1.66688e-08
6.40859e-09
-5.34101e-09
1.41809e-08
-1.52485e-08
4.24344e-09
-3.23129e-09
1.28237e-08
-1.38359e-08
2.20368e-09
-1.26879e-09
1.15635e-08
-1.24984e-08
-2.68896e-07
2.88587e-07
-1.96914e-08
3.11726e-08
-3.12211e-08
-9.69151e-09
9.74002e-09
2.54261e-08
-2.10242e-08
6.8403e-08
-7.28049e-08
1.00836e-08
-5.64002e-09
8.09301e-08
-8.53737e-08
-7.64444e-09
1.99436e-08
1.7559e-07
-1.8789e-07
-3.66857e-08
5.26216e-08
2.28919e-07
-2.44855e-07
-7.01311e-08
8.60318e-08
2.28385e-07
-2.44285e-07
-1.02277e-07
1.16508e-07
1.88957e-07
-2.03188e-07
-1.28302e-07
1.39052e-07
1.07211e-07
-1.17961e-07
-1.4319e-07
1.41201e-07
-3.95625e-08
4.1552e-08
-1.34134e-07
1.26646e-07
-1.32594e-07
1.40082e-07
-1.13449e-07
1.00516e-07
-1.95181e-07
2.08113e-07
-8.38043e-08
6.69228e-08
-2.22318e-07
2.39199e-07
-5.09412e-08
3.65416e-08
-1.94338e-07
2.08738e-07
-2.3896e-08
1.39457e-08
-1.45176e-07
1.55126e-07
-5.09965e-09
-1.72313e-09
-1.00846e-07
1.07669e-07
7.4809e-09
-1.18044e-08
-6.37778e-08
6.81013e-08
1.53323e-08
-1.78174e-08
-3.52726e-08
3.77577e-08
1.96554e-08
-2.07806e-08
-1.43416e-08
1.54669e-08
2.14292e-08
-2.16237e-08
2.0188e-10
-7.3084e-12
2.14762e-08
-2.10618e-08
9.77301e-09
-1.01874e-08
2.04012e-08
-1.96107e-08
1.55918e-08
-1.63823e-08
1.86468e-08
-1.76365e-08
1.87111e-08
-1.97214e-08
1.65005e-08
-1.53726e-08
1.99349e-08
-2.10628e-08
1.41474e-08
-1.29618e-08
1.99115e-08
-2.10971e-08
1.17007e-08
-1.04996e-08
1.90741e-08
-2.02752e-08
9.23938e-09
-8.05417e-09
1.78092e-08
-1.89944e-08
6.82669e-09
-5.68487e-09
1.63537e-08
-1.74955e-08
4.51529e-09
-3.43907e-09
1.48803e-08
-1.59565e-08
2.34749e-09
-1.3548e-09
1.34623e-08
-1.4455e-08
-3.08713e-07
3.29303e-07
-2.05903e-08
3.24775e-08
-3.20152e-08
-9.5441e-09
9.08178e-09
2.58513e-08
-2.14214e-08
7.72217e-08
-8.16517e-08
1.05438e-08
-6.42823e-09
8.96572e-08
-9.37727e-08
-6.66245e-09
1.92168e-08
2.0031e-07
-2.12864e-07
-3.60735e-08
5.22818e-08
2.60923e-07
-2.77131e-07
-7.00669e-08
8.61845e-08
2.60293e-07
-2.7641e-07
-1.03016e-07
1.17705e-07
2.17649e-07
-2.32337e-07
-1.30198e-07
1.42393e-07
1.29395e-07
-1.41589e-07
-1.47066e-07
1.44738e-07
-4.36885e-08
4.60169e-08
-1.37397e-07
1.30076e-07
-1.47495e-07
1.54816e-07
-1.16545e-07
1.03101e-07
-2.21288e-07
2.34732e-07
-8.54284e-08
6.69527e-08
-2.56832e-07
2.75307e-07
-5.00201e-08
3.46007e-08
-2.23627e-07
2.39046e-07
-2.14139e-08
1.11935e-08
-1.65212e-07
1.75433e-07
-2.10652e-09
-4.82991e-09
-1.14548e-07
1.21485e-07
1.06256e-08
-1.4974e-08
-7.24424e-08
7.67907e-08
1.84786e-08
-2.09027e-08
-4.02053e-08
4.26294e-08
2.26355e-08
-2.3653e-08
-1.6539e-08
1.75565e-08
2.41628e-08
-2.42135e-08
-1.20625e-10
1.71301e-10
2.38992e-08
-2.33219e-08
1.06783e-08
-1.12557e-08
2.24907e-08
-2.15359e-08
1.72528e-08
-1.82077e-08
2.04013e-08
-1.92327e-08
2.08086e-08
-2.19772e-08
1.79334e-08
-1.66564e-08
2.22637e-08
-2.35408e-08
1.52806e-08
-1.39591e-08
2.23493e-08
-2.36707e-08
1.25648e-08
-1.12461e-08
2.1533e-08
-2.28518e-08
9.87161e-09
-8.58633e-09
2.02271e-08
-2.15124e-08
7.26222e-09
-6.03728e-09
1.86773e-08
-1.99022e-08
4.78864e-09
-3.6449e-09
1.70655e-08
-1.82092e-08
2.48903e-09
-1.44087e-09
1.54761e-08
-1.65243e-08
-3.50393e-07
3.72014e-07
-2.16211e-08
3.39662e-08
-3.29041e-08
-8.33094e-09
7.26883e-09
2.63039e-08
-2.18422e-08
8.60954e-08
-9.05572e-08
1.10684e-08
-7.3069e-09
9.77135e-08
-1.01475e-07
-5.51983e-09
1.83945e-08
2.25568e-07
-2.38443e-07
-3.53737e-08
5.1892e-08
2.93488e-07
-3.10007e-07
-6.99677e-08
8.63228e-08
2.92643e-07
-3.08998e-07
-1.03822e-07
1.1895e-07
2.47248e-07
-2.62377e-07
-1.32302e-07
1.46276e-07
1.54626e-07
-1.686e-07
-1.51535e-07
1.48633e-07
-4.85954e-08
5.14967e-08
-1.41033e-07
1.33976e-07
-1.62019e-07
1.69076e-07
-1.20236e-07
1.0617e-07
-2.48472e-07
2.62538e-07
-8.74104e-08
6.69449e-08
-2.94724e-07
3.1519e-07
-4.88815e-08
3.22759e-08
-2.55036e-07
2.71642e-07
-1.8516e-08
8.04081e-09
-1.85783e-07
1.96258e-07
1.2893e-09
-8.34861e-09
-1.28483e-07
1.35542e-07
1.41645e-08
-1.85174e-08
-8.11379e-08
8.54908e-08
2.2005e-08
-2.436e-08
-4.50152e-08
4.73702e-08
2.59874e-08
-2.68682e-08
-1.85053e-08
1.9386e-08
2.722e-08
-2.71052e-08
-1.42407e-10
2.76164e-11
2.66023e-08
-2.58437e-08
1.19204e-08
-1.26791e-08
2.48184e-08
-2.36819e-08
1.92509e-08
-2.03874e-08
2.23594e-08
-2.10168e-08
2.32311e-08
-2.45737e-08
1.95402e-08
-1.81012e-08
2.48985e-08
-2.63375e-08
1.65626e-08
-1.50937e-08
2.50635e-08
-2.65325e-08
1.35519e-08
-1.21026e-08
2.42352e-08
-2.56845e-08
1.06015e-08
-9.20593e-09
2.28529e-08
-2.42485e-08
7.77532e-09
-6.45713e-09
2.11729e-08
-2.24911e-08
5.11776e-09
-3.89433e-09
1.93907e-08
-2.06141e-08
2.66066e-09
-1.54364e-09
1.76028e-08
-1.87198e-08
-3.942e-07
4.1699e-07
-2.27899e-08
3.56465e-08
-3.38879e-08
-5.87101e-09
4.11247e-09
2.67717e-08
-2.2297e-08
9.50319e-08
-9.95066e-08
1.1659e-08
-8.25943e-09
1.05055e-07
-1.08454e-07
-4.19811e-09
1.74758e-08
2.51508e-07
-2.64786e-07
-3.45837e-08
5.1452e-08
3.26695e-07
-3.43563e-07
-6.98253e-08
8.64456e-08
3.25482e-07
-3.42102e-07
-1.0468e-07
1.20207e-07
2.77711e-07
-2.93238e-07
-1.3463e-07
1.50789e-07
1.83612e-07
-1.99771e-07
-1.56655e-07
1.52834e-07
-5.48103e-08
5.8631e-08
-1.45015e-07
1.38371e-07
-1.75949e-07
1.82593e-07
-1.2461e-07
1.09816e-07
-2.76956e-07
2.9175e-07
-8.98072e-08
6.68911e-08
-3.36818e-07
3.59734e-07
-4.74504e-08
2.9488e-08
-2.88905e-07
3.06868e-07
-1.51578e-08
4.45504e-09
-2.06851e-07
2.17554e-07
5.14822e-09
-1.22989e-08
-1.42648e-07
1.49798e-07
1.80906e-08
-2.24571e-08
-8.98527e-08
9.42193e-08
2.59343e-08
-2.82158e-08
-4.96892e-08
5.19707e-08
2.97124e-08
-3.04454e-08
-2.01972e-08
2.09302e-08
3.06174e-08
-3.03108e-08
1.80052e-10
-4.86615e-10
2.9598e-08
-2.86321e-08
1.35363e-08
-1.45022e-08
2.73933e-08
-2.60598e-08
2.16219e-08
-2.29555e-08
2.45369e-08
-2.30049e-08
2.60056e-08
-2.75376e-08
2.13352e-08
-1.97211e-08
2.78637e-08
-2.94777e-08
1.80084e-08
-1.63834e-08
2.80806e-08
-2.97057e-08
1.46864e-08
-1.3098e-08
2.7201e-08
-2.87894e-08
1.14582e-08
-9.93944e-09
2.57014e-08
-2.72202e-08
8.38931e-09
-6.96696e-09
2.38588e-08
-2.52811e-08
5.52534e-09
-4.20865e-09
2.18833e-08
-2.32e-08
2.87856e-09
-1.67149e-09
1.98829e-08
-2.109e-08
-4.4042e-07
4.64528e-07
-2.41079e-08
3.75347e-08
-3.49727e-08
-1.96652e-09
-5.95424e-10
2.72483e-08
-2.28229e-08
1.03966e-07
-1.08391e-07
1.23264e-08
-9.27952e-09
1.11678e-07
-1.14724e-07
-2.76394e-09
1.6463e-08
2.78282e-07
-2.91981e-07
-3.3707e-08
5.09703e-08
3.60624e-07
-3.77888e-07
-6.96431e-08
8.65709e-08
3.58871e-07
-3.75798e-07
-1.05583e-07
1.21455e-07
3.08944e-07
-3.24816e-07
-1.37249e-07
1.56066e-07
2.17198e-07
-2.36015e-07
-1.62527e-07
1.57363e-07
-6.30624e-08
6.82264e-08
-1.49362e-07
1.43285e-07
-1.88965e-07
1.95041e-07
-1.29829e-07
1.14296e-07
-3.06928e-07
3.22461e-07
-9.27197e-08
6.68016e-08
-3.84082e-07
4.1e-07
-4.5642e-08
2.61426e-08
-3.25581e-07
3.4508e-07
-1.12935e-08
4.21997e-10
-2.28367e-07
2.39239e-07
9.48282e-09
-1.67084e-08
-1.56973e-07
1.64198e-07
2.24468e-08
-2.68119e-08
-9.8594e-08
1.02959e-07
3.02962e-08
-3.24976e-08
-5.42092e-08
5.64106e-08
3.38471e-08
-3.44112e-08
-2.15871e-08
2.21513e-08
3.43825e-08
-3.38602e-08
8.95697e-10
-1.41794e-09
3.29028e-08
-3.17079e-08
1.55794e-08
-1.67743e-08
3.0231e-08
-2.86811e-08
2.43949e-08
-2.59448e-08
2.6942e-08
-2.52234e-08
2.91655e-08
-3.08841e-08
2.33619e-08
-2.15598e-08
3.11771e-08
-3.29791e-08
1.96484e-08
-1.78409e-08
3.1418e-08
-3.32255e-08
1.59626e-08
-1.42105e-08
3.04607e-08
-3.22128e-08
1.24093e-08
-1.07468e-08
2.88117e-08
-3.04742e-08
9.05371e-09
-7.50257e-09
2.67653e-08
-2.83164e-08
5.93492e-09
-4.51046e-09
2.45673e-08
-2.59918e-08
3.08067e-09
-1.79051e-09
2.23377e-08
-2.36278e-08
-4.89358e-07
5.14949e-07
-2.55915e-08
3.9641e-08
-3.61512e-08
3.60431e-09
-7.09411e-09
2.77131e-08
-2.34222e-08
1.12762e-07
-1.17053e-07
1.30913e-08
-1.04018e-08
1.17592e-07
-1.20282e-07
-1.26592e-09
1.53519e-08
3.05877e-07
-3.19963e-07
-3.27346e-08
5.04365e-08
3.95363e-07
-4.13065e-07
-6.93981e-08
8.66935e-08
3.929e-07
-4.10195e-07
-1.06443e-07
1.22658e-07
3.40849e-07
-3.57064e-07
-1.40231e-07
1.62165e-07
2.5634e-07
-2.78274e-07
-1.69187e-07
1.62104e-07
-7.42694e-08
8.13521e-08
-1.54117e-07
1.48454e-07
-2.00856e-07
2.0652e-07
-1.36274e-07
1.20228e-07
-3.38279e-07
3.54326e-07
-9.60323e-08
6.67861e-08
-4.37585e-07
4.66832e-07
-4.33946e-08
2.21315e-08
-3.65445e-07
3.86708e-07
-6.81459e-09
-3.9894e-09
-2.5027e-07
2.61074e-07
1.42457e-08
-2.16235e-08
-1.71283e-07
1.78661e-07
2.71911e-08
-3.15658e-08
-1.07401e-07
1.11776e-07
3.51092e-08
-3.72357e-08
-5.85548e-08
6.06813e-08
3.84115e-08
-3.8791e-08
-2.26261e-08
2.30056e-08
3.85319e-08
-3.77603e-08
2.06161e-09
-2.83324e-09
3.65246e-08
-3.50612e-08
1.8093e-08
-1.95564e-08
3.33175e-08
-3.15427e-08
2.76145e-08
-2.93893e-08
2.95814e-08
-2.76443e-08
3.27225e-08
-3.46596e-08
2.55577e-08
-2.35646e-08
3.48811e-08
-3.68742e-08
2.1471e-08
-1.94946e-08
3.51073e-08
-3.70837e-08
1.74393e-08
-1.55246e-08
3.40361e-08
-3.59509e-08
1.35572e-08
-1.17404e-08
3.22082e-08
-3.4025e-08
9.88825e-09
-8.19055e-09
2.99401e-08
-3.16378e-08
6.47488e-09
-4.91685e-09
2.74817e-08
-2.90397e-08
3.35483e-09
-1.94678e-09
2.4971e-08
-2.6379e-08
-5.41345e-07
5.68595e-07
-2.72495e-08
4.19847e-08
-3.74201e-08
1.11015e-08
-1.56661e-08
2.81438e-08
-2.41074e-08
1.21234e-07
-1.2527e-07
1.40295e-08
-1.1662e-08
1.22807e-07
-1.25174e-07
4.19568e-10
1.4139e-08
3.34211e-07
-3.4877e-07
-3.16639e-08
4.98493e-08
4.31004e-07
-4.49189e-07
-6.90798e-08
8.68387e-08
4.27708e-07
-4.45467e-07
-1.07097e-07
1.23953e-07
3.73525e-07
-3.90381e-07
-1.43734e-07
1.68869e-07
3.01854e-07
-3.26989e-07
-1.76517e-07
1.66954e-07
-8.96242e-08
9.91873e-08
-1.59155e-07
1.53478e-07
-2.12176e-07
2.17853e-07
-1.44704e-07
1.27553e-07
-3.70702e-07
3.87853e-07
-9.87416e-08
6.72407e-08
-4.97409e-07
5.2891e-07
-4.05852e-08
1.71304e-08
-4.08877e-07
4.32331e-07
-1.68884e-09
-8.12674e-09
-2.72684e-07
2.82499e-07
1.91162e-08
-2.68042e-08
-1.85278e-07
1.92966e-07
3.20645e-08
-3.66983e-08
-1.16299e-07
1.20933e-07
4.04132e-08
-4.24481e-08
-6.27101e-08
6.47449e-08
4.34464e-08
-4.36134e-08
-2.32934e-08
2.34605e-08
4.30901e-08
-4.2018e-08
3.7512e-09
-4.82333e-09
4.04597e-08
-3.87144e-08
2.11557e-08
-2.2901e-08
3.66961e-08
-3.46463e-08
3.12868e-08
-3.33366e-08
3.24006e-08
-3.02421e-08
3.67054e-08
-3.88639e-08
2.79515e-08
-2.57551e-08
3.8956e-08
-4.11525e-08
2.34282e-08
-2.12363e-08
3.91713e-08
-4.13632e-08
1.89737e-08
-1.68764e-08
3.79634e-08
-4.00607e-08
1.47296e-08
-1.27561e-08
3.59232e-08
-3.78967e-08
1.07552e-08
-8.9294e-09
3.34011e-08
-3.52269e-08
7.08476e-09
-5.39929e-09
3.06612e-08
-3.23466e-08
3.6929e-09
-2.1401e-09
2.78586e-08
-2.94114e-08
-5.96744e-07
6.25843e-07
-2.90986e-08
4.45992e-08
-3.87838e-08
2.08324e-08
-2.66478e-08
2.85236e-08
-2.48977e-08
1.29123e-07
-1.32749e-07
1.5107e-08
-1.30777e-08
1.27379e-07
-1.29408e-07
2.55491e-09
1.28212e-08
3.63742e-07
-3.79118e-07
-3.04991e-08
4.92145e-08
4.67635e-07
-4.8635e-07
-6.86958e-08
8.70342e-08
4.63505e-07
-4.81843e-07
-1.07335e-07
1.25873e-07
4.07898e-07
-4.26435e-07
-1.47627e-07
1.74593e-07
3.53367e-07
-3.80333e-07
-1.83575e-07
1.71645e-07
-1.10034e-07
1.21964e-07
-1.63822e-07
1.59166e-07
-2.23294e-07
2.2795e-07
-1.54986e-07
1.34495e-07
-4.06454e-07
4.26945e-07
-1.00841e-07
6.8834e-08
-5.60815e-07
5.92821e-07
-3.54172e-08
1.00581e-08
-4.56149e-07
4.81508e-07
2.54439e-09
-1.05767e-08
-2.95127e-07
3.03159e-07
2.26117e-08
-3.1046e-08
-1.98443e-07
2.06877e-07
3.69591e-08
-4.23628e-08
-1.25283e-07
1.30687e-07
4.62385e-08
-4.80753e-08
-6.66785e-08
6.85153e-08
4.90092e-08
-4.89432e-08
-2.35299e-08
2.34638e-08
4.80839e-08
-4.66692e-08
6.05902e-09
-7.47373e-09
4.47179e-08
-4.26083e-08
2.48241e-08
-2.69337e-08
4.02699e-08
-3.80109e-08
3.55121e-08
-3.7771e-08
3.55922e-08
-3.3222e-08
4.11226e-08
-4.34929e-08
3.06542e-08
-2.82052e-08
4.3488e-08
-4.5937e-08
2.5663e-08
-2.32882e-08
4.36451e-08
-4.60199e-08
2.08199e-08
-1.85119e-08
4.22496e-08
-4.45576e-08
1.61397e-08
-1.3959e-08
3.99609e-08
-4.21416e-08
1.17502e-08
-9.73593e-09
3.71333e-08
-3.91476e-08
7.70426e-09
-5.85594e-09
3.41074e-08
-3.59557e-08
3.99512e-09
-2.31044e-09
3.10343e-08
-3.2719e-08
-6.55946e-07
6.87107e-07
-3.11607e-08
4.75036e-08
-4.023e-08
3.31637e-08
-4.04373e-08
2.88287e-08
-2.5807e-08
1.36099e-07
-1.39121e-07
1.62532e-08
-1.46404e-08
1.31237e-07
-1.32849e-07
4.85667e-09
1.1397e-08
3.94918e-07
-4.11171e-07
-2.92339e-08
4.8518e-08
5.05344e-07
-5.24628e-07
-6.82532e-08
8.71196e-08
5.00473e-07
-5.19339e-07
-1.07462e-07
1.28827e-07
4.46342e-07
-4.67706e-07
-1.4973e-07
1.742e-07
4.06806e-07
-4.31276e-07
-1.86333e-07
1.74485e-07
-1.34421e-07
1.46269e-07
-1.67504e-07
1.6625e-07
-2.31184e-07
2.32437e-07
-1.65424e-07
1.43572e-07
-4.48923e-07
4.70775e-07
-1.0634e-07
7.10787e-08
-6.2774e-07
6.63001e-07
-2.90831e-08
6.19384e-09
-5.07676e-07
5.30565e-07
3.02988e-09
-1.40695e-08
-3.15438e-07
3.26478e-07
2.77459e-08
-3.72049e-08
-2.09932e-07
2.19391e-07
4.35985e-08
-4.88869e-08
-1.35308e-07
1.40596e-07
5.25972e-08
-5.39398e-08
-7.03293e-08
7.16719e-08
5.50588e-08
-5.49017e-08
-2.32857e-08
2.31286e-08
5.3507e-08
-5.16675e-08
9.1255e-09
-1.0965e-08
4.9268e-08
-4.68173e-08
2.92236e-08
-3.16744e-08
4.41687e-08
-4.15807e-08
4.01655e-08
-4.27535e-08
3.88068e-08
-3.61781e-08
4.59995e-08
-4.86281e-08
3.34523e-08
-3.08777e-08
4.84384e-08
-5.1013e-08
2.81329e-08
-2.5505e-08
4.8502e-08
-5.11298e-08
2.27674e-08
-2.02292e-08
4.69911e-08
-4.95293e-08
1.76311e-08
-1.52333e-08
4.44408e-08
-4.68386e-08
1.27861e-08
-1.0544e-08
4.12804e-08
-4.35225e-08
8.28914e-09
-6.26019e-09
3.78956e-08
-3.99246e-08
4.24791e-09
-2.45064e-09
3.44574e-08
-3.62546e-08
-7.1938e-07
7.5283e-07
-3.34501e-08
5.07265e-08
-4.17529e-08
4.85287e-08
-5.75023e-08
2.90366e-08
-2.68604e-08
1.41754e-07
-1.4393e-07
1.7515e-08
-1.63394e-08
1.34242e-07
-1.35417e-07
7.39629e-09
9.8684e-09
4.27912e-07
-4.45177e-07
-2.78686e-08
4.77544e-08
5.4421e-07
-5.64096e-07
-6.77845e-08
8.68313e-08
5.38342e-07
-5.57389e-07
-1.08874e-07
1.30918e-07
4.90025e-07
-5.12069e-07
-1.44509e-07
1.5899e-07
4.5185e-07
-4.66329e-07
-1.7486e-07
1.70787e-07
-1.5557e-07
1.59642e-07
-1.68456e-07
1.73245e-07
-2.31124e-07
2.26336e-07
-1.76311e-07
1.59388e-07
-4.91404e-07
5.08327e-07
-1.15057e-07
6.81125e-08
-7.06199e-07
7.53143e-07
-2.04695e-08
-1.66401e-09
-5.59202e-07
5.81335e-07
1.20045e-08
-2.61968e-08
-3.34773e-07
3.48965e-07
4.0848e-08
-4.56699e-08
-2.22246e-07
2.27068e-07
5.04208e-08
-5.68612e-08
-1.46592e-07
1.53032e-07
6.01271e-08
-6.01112e-08
-7.31785e-08
7.31627e-08
6.04648e-08
-6.10587e-08
-2.24383e-08
2.30322e-08
5.96654e-08
-5.72233e-08
1.30085e-08
-1.54506e-08
5.41801e-08
-5.11867e-08
3.43927e-08
-3.73861e-08
4.81671e-08
-4.53779e-08
4.54927e-08
-4.82819e-08
4.24917e-08
-3.97115e-08
5.13143e-08
-5.40944e-08
3.66718e-08
-3.36933e-08
5.37516e-08
-5.67302e-08
3.0563e-08
-2.76749e-08
5.39082e-08
-5.67963e-08
2.474e-08
-2.20309e-08
5.21467e-08
-5.48559e-08
1.92461e-08
-1.66654e-08
4.93198e-08
-5.19006e-08
1.4029e-08
-1.1611e-08
4.58565e-08
-4.82744e-08
9.16778e-09
-6.94846e-09
4.20444e-08
-4.42637e-08
4.72174e-09
-2.71295e-09
3.81381e-08
-4.01469e-08
-7.87518e-07
8.23507e-07
-3.59888e-08
5.43118e-08
-4.33556e-08
6.74294e-08
-7.83856e-08
2.91277e-08
-2.81012e-08
1.45574e-07
-1.46601e-07
1.89492e-08
-1.81645e-08
1.36387e-07
-1.37172e-07
1.02028e-08
8.23913e-09
4.6301e-07
-4.81451e-07
-2.64078e-08
4.69337e-08
5.84297e-07
-6.04823e-07
-6.72577e-08
8.65093e-08
5.76478e-07
-5.95729e-07
-1.1117e-07
1.27666e-07
5.32147e-07
-5.48642e-07
-1.27973e-07
1.237e-07
4.7241e-07
-4.68137e-07
-1.38769e-07
1.52744e-07
-1.5565e-07
1.41676e-07
-1.62186e-07
1.77142e-07
-2.17019e-07
2.02063e-07
-1.88215e-07
1.80945e-07
-5.22174e-07
5.29444e-07
-1.18075e-07
5.2563e-08
-8.07464e-07
8.72976e-07
9.24142e-09
-2.38628e-08
-6.07535e-07
6.22156e-07
2.30782e-08
-3.94987e-08
-3.60485e-07
3.76906e-07
4.75436e-08
-5.354e-08
-2.31347e-07
2.37344e-07
5.96873e-08
-6.3717e-08
-1.58426e-07
1.62455e-07
6.75203e-08
-6.77161e-08
-7.41725e-08
7.43683e-08
6.68681e-08
-6.77385e-08
-2.2243e-08
2.31134e-08
6.66152e-08
-6.24127e-08
1.81998e-08
-2.24022e-08
5.82719e-08
-5.50753e-08
4.05772e-08
-4.37738e-08
5.20693e-08
-4.92669e-08
5.10511e-08
-5.38534e-08
4.62671e-08
-4.3284e-08
5.69865e-08
-5.99696e-08
4.00464e-08
-3.69789e-08
5.98454e-08
-6.29129e-08
3.37901e-08
-3.07573e-08
5.97439e-08
-6.27767e-08
2.75232e-08
-2.44514e-08
5.77163e-08
-6.0788e-08
2.12929e-08
-1.84191e-08
5.46172e-08
-5.7491e-08
1.55417e-08
-1.29327e-08
5.07823e-08
-5.33914e-08
1.02899e-08
-7.85229e-09
4.65923e-08
-4.90299e-08
5.35517e-09
-3.06084e-09
4.23047e-08
-4.45991e-08
-8.6087e-07
8.99677e-07
-3.88068e-08
5.82872e-08
-4.5019e-08
9.04525e-08
-1.03721e-07
2.90704e-08
-2.959e-08
1.46911e-07
-1.46391e-07
2.06085e-08
-2.00947e-08
1.37801e-07
-1.38315e-07
1.33013e-08
6.47009e-09
5.00541e-07
-5.20312e-07
-2.48444e-08
4.60455e-08
6.25682e-07
-6.46883e-07
-6.66309e-08
8.66444e-08
6.15318e-07
-6.35332e-07
-1.1113e-07
1.18072e-07
5.6051e-07
-5.67452e-07
-1.04405e-07
7.78445e-08
4.52583e-07
-4.26022e-07
-8.23408e-08
1.14362e-07
-1.17705e-07
8.56848e-08
-1.41082e-07
1.71935e-07
-1.80603e-07
1.49749e-07
-2.01959e-07
2.08917e-07
-5.31933e-07
5.24975e-07
-1.2536e-07
3.43666e-08
-9.26479e-07
1.01747e-06
1.68646e-08
-2.6444e-08
-6.74945e-07
6.84524e-07
4.14193e-08
-5.97868e-08
-3.72046e-07
3.90414e-07
6.85979e-08
-6.88848e-08
-2.39629e-07
2.39916e-07
6.98951e-08
-7.06656e-08
-1.72242e-07
1.73013e-07
6.8624e-08
-7.00244e-08
-7.28097e-08
7.421e-08
7.47556e-08
-7.45253e-08
-2.51633e-08
2.4933e-08
6.99501e-08
-6.3685e-08
2.77677e-08
-3.40328e-08
5.92104e-08
-5.74793e-08
4.64336e-08
-4.81647e-08
5.5467e-08
-5.2993e-08
5.65956e-08
-5.90696e-08
4.99355e-08
-4.69296e-08
6.29642e-08
-6.59702e-08
4.37203e-08
-4.0543e-08
6.59206e-08
-6.90979e-08
3.70055e-08
-3.35226e-08
6.60072e-08
-6.94901e-08
2.98617e-08
-2.64821e-08
6.40624e-08
-6.74419e-08
2.30557e-08
-1.99264e-08
6.05075e-08
-6.36368e-08
1.67618e-08
-1.38769e-08
5.61222e-08
-5.90071e-08
1.09669e-08
-8.31657e-09
5.15715e-08
-5.42219e-08
5.64314e-09
-3.21753e-09
4.69821e-08
-4.94077e-08
-9.4e-07