/*--------------------------------*- C++ -*----------------------------------*\
| =========                 |                                                 |
| \\      /  F ield         | OpenFOAM: The Open Source CFD Toolbox           |
|  \\    /   O peration     | Version:  2.4.0                                 |
|   \\  /    A nd           | Web:      www.OpenFOAM.org                      |
|    \\/     M anipulation  |                                                 |
\*---------------------------------------------------------------------------*/
FoamFile
{
    version     2.0;
    format      ascii;
    class       surfaceScalarField;
    location    "0.067";
    object      phi;
}
// * * * * * * * * * * * * * * * * * * * * * * * * * * * * * * * * * * * * * //

dimensions      [0 3 -1 0 0 0 0];

internalField   nonuniform List<scalar> 
7080
(
2.27223e-13
-2.27192e-13
5.4616e-13
-3.19585e-13
2.67098e-13
2.77254e-13
-5.76337e-13
8.40402e-13
-2.01036e-12
1.42948e-12
-4.8306e-12
2.81435e-12
-8.50321e-12
3.66405e-12
-1.61519e-11
7.63736e-12
-2.37773e-11
7.61243e-12
-4.1333e-11
1.75404e-11
-5.70824e-11
1.57336e-11
-9.38687e-11
3.67692e-11
-1.26229e-10
3.23481e-11
-1.94717e-10
6.84748e-11
-2.526e-10
5.78725e-11
-3.55776e-10
1.03168e-10
-4.42851e-10
8.70713e-11
-5.35055e-10
9.21899e-11
-4.97777e-10
-3.72806e-11
-3.66772e-10
-1.3101e-10
-1.5314e-10
-2.13638e-10
1.95562e-11
-1.72696e-10
1.15206e-10
-9.56534e-11
1.5692e-10
-4.17146e-11
1.46496e-10
1.04195e-11
1.27042e-10
1.94523e-11
9.49366e-11
3.21014e-11
6.94238e-11
2.55107e-11
4.50752e-11
2.43467e-11
1.75625e-11
2.75118e-11
-4.54502e-13
2.26584e-13
-2.00855e-12
1.23177e-12
-4.91306e-12
3.177e-12
-9.79864e-12
5.71852e-12
-1.64768e-11
8.09747e-12
-2.64856e-11
1.28108e-11
-3.80857e-11
1.52462e-11
-5.64913e-11
2.60199e-11
-7.5481e-11
2.65783e-11
-1.09085e-10
5.11172e-11
-1.39325e-10
4.59469e-11
-1.97696e-10
9.51127e-11
-2.44164e-10
7.87982e-11
-3.34678e-10
1.58969e-10
-3.98309e-10
1.21487e-10
-5.09754e-10
2.146e-10
-5.81099e-10
1.58407e-10
-6.46208e-10
1.57281e-10
-5.55902e-10
-1.27594e-10
-3.66433e-10
-3.20484e-10
-1.09831e-10
-4.7025e-10
9.0715e-11
-3.73244e-10
1.88865e-10
-1.93811e-10
2.26438e-10
-7.92895e-11
2.01546e-10
3.5304e-11
1.70543e-10
5.04501e-11
1.25211e-10
7.74279e-11
9.03887e-11
6.03302e-11
5.83779e-11
5.63549e-11
3.9831e-11
3.61079e-11
-5.14139e-13
7.4008e-13
-2.3146e-12
3.02969e-12
-5.42142e-12
6.27929e-12
-1.04061e-11
1.06961e-11
-1.72893e-11
1.49711e-11
-2.77956e-11
2.33059e-11
-4.02664e-11
2.77006e-11
-5.99374e-11
4.56699e-11
-8.05467e-11
4.71662e-11
-1.16012e-10
8.65575e-11
-1.4788e-10
7.77924e-11
-2.08241e-10
1.55448e-10
-2.55318e-10
1.2586e-10
-3.46867e-10
2.505e-10
-4.08714e-10
1.8332e-10
-5.18267e-10
3.24141e-10
-5.87182e-10
2.27315e-10
-6.48937e-10
2.19019e-10
-5.52698e-10
-2.2384e-10
-3.52569e-10
-5.20617e-10
-9.08292e-11
-7.32e-10
1.11111e-10
-5.75186e-10
2.05758e-10
-2.88466e-10
2.39451e-10
-1.12984e-10
2.10691e-10
6.40567e-11
1.76981e-10
8.41549e-11
1.29428e-10
1.24976e-10
9.29937e-11
9.67613e-11
6.00299e-11
8.93163e-11
6.02479e-11
3.96116e-11
-2.7238e-13
1.01176e-12
-1.56627e-12
4.3207e-12
-4.26097e-12
8.96868e-12
-8.83343e-12
1.52604e-11
-1.54047e-11
2.15316e-11
-2.56847e-11
3.35733e-11
-3.8225e-11
4.02234e-11
-5.7936e-11
6.53592e-11
-7.87275e-11
6.79362e-11
-1.1417e-10
1.21976e-10
-1.46233e-10
1.09833e-10
-2.06818e-10
2.16009e-10
-2.54358e-10
1.73387e-10
-3.46626e-10
3.42751e-10
-4.09093e-10
2.45775e-10
-5.19373e-10
4.34412e-10
-5.92878e-10
3.00812e-10
-6.57926e-10
2.8405e-10
-5.60785e-10
-3.20987e-10
-3.51142e-10
-7.30264e-10
-8.30702e-11
-1.00008e-09
1.20434e-10
-7.78691e-10
2.12449e-10
-3.80489e-10
2.43324e-10
-1.4386e-10
2.12637e-10
9.47363e-11
1.77801e-10
1.18987e-10
1.29769e-10
1.73002e-10
9.31587e-11
1.33368e-10
5.9915e-11
1.22558e-10
8.25354e-11
3.76261e-11
-3.18405e-13
1.3293e-12
-1.62286e-12
5.62165e-12
-4.27605e-12
1.16155e-11
-8.80505e-12
1.97797e-11
-1.52593e-11
2.79733e-11
-2.5372e-11
4.36716e-11
-3.78273e-11
5.26596e-11
-5.732e-11
8.48289e-11
-7.82177e-11
8.88117e-11
-1.13396e-10
1.57131e-10
-1.45756e-10
1.42171e-10
-2.06614e-10
2.76844e-10
-2.55028e-10
2.21789e-10
-3.48588e-10
4.36295e-10
-4.12496e-10
3.09672e-10
-5.24132e-10
5.46038e-10
-6.04443e-10
3.81116e-10
-6.74309e-10
3.539e-10
-5.75467e-10
-4.19836e-10
-3.53089e-10
-9.52646e-10
-7.59438e-11
-1.27723e-09
1.29914e-10
-9.84551e-10
2.18882e-10
-4.69463e-10
2.46451e-10
-1.71431e-10
2.13729e-10
1.27452e-10
1.77877e-10
1.54835e-10
1.29565e-10
2.2131e-10
9.28983e-11
1.70032e-10
5.96601e-11
1.55793e-10
1.05269e-10
3.69251e-11
-3.58936e-13
1.68717e-12
-1.71936e-12
6.97782e-12
-4.40335e-12
1.42918e-11
-8.95856e-12
2.43236e-11
-1.54192e-11
3.44194e-11
-2.54427e-11
5.36787e-11
-3.7965e-11
6.5161e-11
-5.69993e-11
1.03839e-10
-7.83905e-11
1.1018e-10
-1.12879e-10
1.91595e-10
-1.4595e-10
1.7522e-10
-2.07056e-10
3.37928e-10
-2.56723e-10
2.71445e-10
-3.5195e-10
5.31508e-10
-4.17695e-10
3.75406e-10
-5.30675e-10
6.59009e-10
-6.19861e-10
4.70295e-10
-6.96007e-10
4.3003e-10
-5.94193e-10
-5.21657e-10
-3.5582e-10
-1.19102e-09
-6.70376e-11
-1.56602e-09
1.41678e-10
-1.19327e-09
2.26697e-10
-5.54487e-10
2.50089e-10
-1.94825e-10
2.14874e-10
1.6266e-10
1.7783e-10
1.91875e-10
1.29222e-10
2.69913e-10
9.24981e-11
2.06753e-10
5.93558e-11
1.88933e-10
1.27969e-10
3.66544e-11
-3.73714e-13
2.05957e-12
-1.7547e-12
8.35375e-12
-4.45819e-12
1.69862e-11
-9.01171e-12
2.8864e-11
-1.55591e-11
4.09502e-11
-2.5358e-11
6.34593e-11
-3.8504e-11
7.82843e-11
-5.61305e-11
1.21439e-10
-7.94301e-11
1.33456e-10
-1.11696e-10
2.23836e-10
-1.46706e-10
2.10209e-10
-2.07647e-10
3.98848e-10
-2.59074e-10
3.22861e-10
-3.56301e-10
6.28721e-10
-4.24307e-10
4.43402e-10
-5.38045e-10
7.72739e-10
-6.3873e-10
5.70974e-10
-7.22946e-10
5.1423e-10
-6.16907e-10
-6.27703e-10
-3.58939e-10
-1.44899e-09
-5.58452e-11
-1.86913e-09
1.56156e-10
-1.40527e-09
2.36156e-10
-6.34493e-10
2.54399e-10
-2.13069e-10
2.16189e-10
2.00864e-10
1.77739e-10
2.30321e-10
1.28794e-10
3.18852e-10
9.20059e-11
2.43538e-10
5.89922e-11
2.21945e-10
1.5057e-10
3.63899e-11
-5.00665e-13
2.55866e-12
-1.97971e-12
9.82689e-12
-4.6023e-12
1.95984e-11
-9.065e-12
3.33118e-11
-1.58522e-11
4.77189e-11
-2.48829e-11
7.24697e-11
-3.9444e-11
9.2821e-11
-5.50439e-11
1.37012e-10
-8.06868e-11
1.59074e-10
-1.10152e-10
2.53277e-10
-1.48579e-10
2.48615e-10
-2.08019e-10
4.58268e-10
-2.62037e-10
3.7687e-10
-3.61559e-10
7.28231e-10
-4.32436e-10
5.1427e-10
-5.44821e-10
8.85116e-10
-6.61048e-10
6.87195e-10
-7.55545e-10
6.08711e-10
-6.4404e-10
-7.39215e-10
-3.62336e-10
-1.7307e-09
-4.21163e-11
-2.18935e-09
1.73559e-10
-1.62095e-09
2.47317e-10
-7.08254e-10
2.5937e-10
-2.25124e-10
2.17661e-10
2.42568e-10
1.77597e-10
2.70381e-10
1.28281e-10
3.68163e-10
9.14255e-11
2.80391e-10
5.85628e-11
2.54805e-10
1.73027e-10
3.61047e-11
-5.37971e-13
3.09481e-12
-2.05909e-12
1.13413e-11
-4.71034e-12
2.2238e-11
-8.71599e-12
3.7301e-11
-1.63115e-11
5.52941e-11
-2.42124e-11
8.03488e-11
-4.00047e-11
1.08588e-10
-5.39554e-11
1.50936e-10
-8.14491e-11
1.86543e-10
-1.09049e-10
2.80853e-10
-1.5e-10
2.89546e-10
-2.07392e-10
5.1564e-10
-2.65654e-10
4.35124e-10
-3.67666e-10
8.30231e-10
-4.42731e-10
5.89327e-10
-5.53615e-10
9.95992e-10
-6.86783e-10
8.20356e-10
-7.94322e-10
7.16233e-10
-6.76015e-10
-8.57529e-10
-3.65892e-10
-2.04083e-09
-2.56473e-11
-2.5296e-09
1.94095e-10
-1.84069e-09
2.6019e-10
-7.74352e-10
2.64942e-10
-2.29877e-10
2.19241e-10
2.88262e-10
1.77376e-10
3.12243e-10
1.27667e-10
4.17868e-10
9.0748e-11
3.17307e-10
5.80596e-11
2.87492e-10
1.95328e-10
3.57569e-11
-5.13897e-13
3.60667e-12
-2.00639e-12
1.28265e-11
-4.83466e-12
2.50537e-11
-9.09146e-12
4.15402e-11
-1.7085e-11
6.32661e-11
-2.46934e-11
8.79344e-11
-4.13265e-11
1.25194e-10
-5.36559e-11
1.63237e-10
-8.30664e-11
2.15929e-10
-1.08209e-10
3.05972e-10
-1.50916e-10
3.32234e-10
-2.06939e-10
5.71645e-10
-2.70276e-10
4.98455e-10
-3.74494e-10
9.34438e-10
-4.5507e-10
6.69896e-10
-5.63709e-10
1.10462e-09
-7.15986e-10
9.72626e-10
-8.40053e-10
8.40285e-10
-7.13433e-10
-9.84158e-10
-3.69524e-10
-2.38474e-09
-6.5115e-12
-2.89262e-09
2.18061e-10
-2.06526e-09
2.7483e-10
-8.31122e-10
2.7109e-10
-2.26138e-10
2.20914e-10
3.38433e-10
1.77076e-10
3.56078e-10
1.26956e-10
4.67983e-10
8.99807e-11
3.5428e-10
5.74862e-11
3.19984e-10
2.17455e-10
3.53585e-11
-5.33606e-13
4.13804e-12
-2.22381e-12
1.45089e-11
-5.68275e-12
2.84994e-11
-9.36603e-12
4.52052e-11
-1.78372e-11
7.17152e-11
-2.23053e-11
9.23792e-11
-4.07131e-11
1.43576e-10
-5.09086e-11
1.73406e-10
-8.22947e-11
2.47291e-10
-1.0673e-10
3.30386e-10
-1.50764e-10
3.7625e-10
-2.07221e-10
6.28085e-10
-2.76269e-10
5.67498e-10
-3.81618e-10
1.03978e-09
-4.67403e-10
7.55676e-10
-5.74053e-10
1.21127e-09
-7.48633e-10
1.1472e-09
-8.93642e-10
9.85277e-10
-7.5695e-10
-1.12086e-09
-3.73062e-10
-2.76863e-09
1.93516e-11
-3.28504e-09
2.45842e-10
-2.29176e-09
2.91266e-10
-8.76546e-10
2.77757e-10
-2.1263e-10
2.22638e-10
3.93546e-10
1.76677e-10
4.02035e-10
1.26143e-10
5.18513e-10
8.91217e-11
3.91299e-10
5.68413e-11
3.52263e-10
2.39384e-10
3.49109e-11
-5.82498e-13
4.71821e-12
-2.40799e-12
1.63264e-11
-6.0141e-12
3.20921e-11
-1.00608e-11
4.92335e-11
-1.84151e-11
8.00477e-11
-2.38838e-11
9.78252e-11
-4.37034e-11
1.63369e-10
-5.2786e-11
1.82462e-10
-8.66455e-11
2.81128e-10
-1.06989e-10
3.50709e-10
-1.5217e-10
4.21414e-10
-2.07694e-10
6.83594e-10
-2.82618e-10
6.42417e-10
-3.89567e-10
1.14672e-09
-4.80164e-10
8.46267e-10
-5.84196e-10
1.31529e-09
-7.84578e-10
1.34757e-09
-9.5604e-10
1.15672e-09
-8.07297e-10
-1.26961e-09
-3.76304e-10
-3.19962e-09
4.9617e-11
-3.71096e-09
2.77839e-10
-2.51998e-09
3.09483e-10
-9.08189e-10
2.84843e-10
-1.87991e-10
2.24346e-10
4.54038e-10
1.76145e-10
4.50233e-10
1.25209e-10
5.69444e-10
8.81617e-11
4.28344e-10
5.61195e-11
3.84303e-10
2.61089e-10
3.4413e-11
-4.16515e-13
5.13235e-12
-2.13382e-12
1.8036e-11
-5.3378e-12
3.52831e-11
-6.45973e-12
5.0338e-11
-1.55757e-11
8.91431e-11
-1.58263e-11
9.80538e-11
-4.02803e-11
1.878e-10
-4.56054e-11
1.87764e-10
-8.15949e-11
3.17096e-10
-1.0285e-10
3.71946e-10
-1.47861e-10
4.66409e-10
-2.07598e-10
7.43318e-10
-2.88367e-10
7.23183e-10
-3.99621e-10
1.25796e-09
-4.9353e-10
9.4017e-10
-5.93323e-10
1.41508e-09
-8.23924e-10
1.57816e-09
-1.02888e-09
1.36167e-09
-8.65484e-10
-1.43302e-09
-3.79075e-10
-3.68604e-09
8.49834e-11
-4.17502e-09
3.14669e-10
-2.74967e-09
3.29516e-10
-9.23032e-10
2.92287e-10
-1.50762e-10
2.26003e-10
5.20317e-10
1.75474e-10
5.0076e-10
1.24159e-10
6.20755e-10
8.7107e-11
4.65394e-10
5.53269e-11
4.16081e-10
2.82553e-10
3.38621e-11
-7.34134e-13
5.86416e-12
-2.27556e-12
1.95701e-11
-5.25043e-12
3.82462e-11
-8.4828e-12
5.35546e-11
-1.95149e-11
1.00157e-10
-2.29555e-11
1.01476e-10
-4.95653e-11
2.14388e-10
-5.34481e-11
1.91626e-10
-9.29534e-11
3.56583e-10
-1.07596e-10
3.86573e-10
-1.53067e-10
5.11866e-10
-2.08614e-10
7.98852e-10
-2.95245e-10
8.09811e-10
-4.12237e-10
1.37494e-09
-5.07893e-10
1.03582e-09
-6.01197e-10
1.50838e-09
-8.66374e-10
1.84333e-09
-1.11374e-09
1.60901e-09
-9.32703e-10
-1.61407e-09
-3.81099e-10
-4.23764e-09
1.26454e-10
-4.68257e-09
3.56751e-10
-2.97997e-09
3.51364e-10
-9.17639e-10
2.99984e-10
-9.93829e-11
2.27549e-10
5.92747e-10
1.74642e-10
5.53664e-10
1.22986e-10
6.72407e-10
8.5956e-11
5.02421e-10
5.44664e-11
4.47569e-10
3.03763e-10
3.32556e-11
-2.3252e-13
6.09459e-12
-2.62518e-12
2.19568e-11
-7.21912e-12
4.28303e-11
-3.64805e-12
4.99708e-11
-1.53332e-11
1.11828e-10
-5.93937e-12
9.20653e-11
-3.83332e-11
2.46765e-10
-3.67887e-11
1.90065e-10
-7.86039e-11
3.98382e-10
-9.66387e-11
4.04595e-10
-1.37639e-10
5.52853e-10
-2.04057e-10
8.65258e-10
-2.99151e-10
9.04903e-10
-4.27314e-10
1.5031e-09
-5.22186e-10
1.13069e-09
-6.05778e-10
1.59197e-09
-9.12156e-10
2.14969e-09
-1.2134e-09
1.91024e-09
-1.01018e-09
-1.8173e-09
-3.81992e-10
-4.86584e-09
1.75062e-10
-5.23962e-09
4.03892e-10
-3.20881e-09
3.74977e-10
-8.88718e-10
3.07783e-10
-3.21887e-11
2.28892e-10
6.71633e-10
1.73609e-10
6.08945e-10
1.21672e-10
7.2434e-10
8.46995e-11
5.39392e-10
5.35375e-11
4.78729e-10
3.24698e-10
3.26016e-11
-2.75826e-12
8.85059e-12
-4.82913e-12
2.4022e-11
-7.38387e-12
4.53782e-11
-6.69364e-12
4.92715e-11
-2.41473e-11
1.29272e-10
-1.94474e-11
8.73551e-11
-5.82687e-11
2.85575e-10
-5.6659e-11
1.88444e-10
-1.04998e-10
4.46709e-10
-1.12458e-10
4.12046e-10
-1.53133e-10
5.93516e-10
-2.07962e-10
9.20078e-10
-3.09691e-10
1.00663e-09
-4.46508e-10
1.63991e-09
-5.38116e-10
1.22229e-09
-6.074e-10
1.66124e-09
-9.60036e-10
2.50231e-09
-1.3295e-09
2.27969e-09
-1.09981e-09
-2.047e-09
-3.81329e-10
-5.58433e-09
2.32011e-10
-5.85295e-09
4.56677e-10
-3.43348e-09
4.00348e-10
-8.3238e-10
3.15566e-10
5.25935e-11
2.29975e-10
7.5722e-10
1.72366e-10
6.66552e-10
1.20222e-10
7.76481e-10
8.3344e-11
5.76268e-10
5.25487e-11
5.09523e-10
3.4533e-10
3.19159e-11
8.64227e-13
7.98518e-12
-2.83649e-12
2.77197e-11
-1.9014e-11
6.15529e-11
5.82042e-12
2.44336e-11
-6.14504e-12
1.41235e-10
2.24532e-11
5.87515e-11
-3.02987e-11
3.38323e-10
-2.63138e-11
1.84456e-10
-7.54301e-11
4.95817e-10
-8.79608e-11
4.24572e-10
-1.14247e-10
6.19792e-10
-1.91025e-10
9.96849e-10
-3.08361e-10
1.12397e-09
-4.66564e-10
1.7981e-09
-5.53673e-10
1.3094e-09
-6.03106e-10
1.71067e-09
-1.01184e-09
2.91103e-09
-1.46728e-09
2.73511e-09
-1.20342e-09
-2.31088e-09
-3.78512e-10
-6.40925e-09
2.98714e-10
-6.53016e-09
5.15826e-10
-3.6506e-09
4.27426e-10
-7.43967e-10
3.23147e-10
1.56872e-10
2.30712e-10
8.49652e-10
1.70887e-10
7.26375e-10
1.18629e-10
8.28735e-10
8.18884e-11
6.13007e-10
5.15004e-11
5.39909e-10
3.65628e-10
3.12016e-11
-6.19578e-12
1.41795e-11
-1.59662e-11
3.74889e-11
-3.41414e-11
7.97305e-11
-4.96113e-12
-4.74293e-12
-3.02451e-11
1.66527e-10
-6.87355e-12
3.53887e-11
-7.39159e-11
4.0537e-10
-6.91422e-11
1.79686e-10
-1.30458e-10
5.5713e-10
-1.28232e-10
4.22346e-10
-1.53071e-10
6.44621e-10
-2.04327e-10
1.0481e-09
-3.29713e-10
1.24936e-09
-4.98117e-10
1.9665e-09
-5.67974e-10
1.37925e-09
-5.88555e-10
1.73125e-09
-1.06205e-09
3.3845e-09
-1.62417e-09
3.29721e-09
-1.32362e-09
-2.61144e-09
-3.72819e-10
-7.36006e-09
3.7674e-10
-7.2797e-09
5.82031e-10
-3.8559e-09
4.56048e-10
-6.1797e-10
3.30304e-10
2.82616e-10
2.30987e-10
9.48965e-10
1.6913e-10
7.8823e-10
1.16877e-10
8.80984e-10
8.03243e-11
6.49558e-10
5.03871e-11
5.69845e-10
3.85561e-10
3.04532e-11
1.06971e-11
3.48224e-12
5.48357e-11
-6.63787e-12
2.06522e-11
1.13923e-10
9.55661e-11
-7.96433e-11
5.14754e-11
2.10636e-10
8.74221e-11
-5.34776e-13
-7.67346e-12
5.00481e-10
-2.48882e-11
1.96915e-10
-7.94992e-11
6.11744e-10
-7.5299e-11
4.18153e-10
-6.36929e-11
6.33006e-10
-1.53579e-10
1.13798e-09
-3.13338e-10
1.40912e-09
-5.26753e-10
2.1799e-09
-5.91135e-10
1.44364e-09
-5.74183e-10
1.7143e-09
-1.1207e-09
3.93098e-09
-1.81359e-09
3.99008e-09
-1.46353e-09
-2.96151e-09
-3.63181e-10
-8.46043e-09
4.68172e-10
-8.11103e-09
6.56212e-10
-4.04395e-09
4.86095e-10
-4.47835e-10
3.36835e-10
4.31877e-10
2.30719e-10
1.05508e-09
1.67082e-10
8.51865e-10
1.1497e-10
9.33093e-10
7.86588e-11
6.85868e-10
4.92121e-11
5.9929e-10
4.05102e-10
2.967e-11
2.73475e-11
-2.38619e-11
1.10196e-10
-8.94609e-11
4.15343e-12
2.19984e-10
1.37108e-10
-2.1257e-10
4.45885e-12
3.4332e-10
1.20231e-11
-8.05252e-12
-1.286e-10
6.41135e-10
-1.18342e-10
1.86679e-10
-1.84954e-10
6.78365e-10
-1.60711e-10
3.93926e-10
-1.51933e-10
6.24217e-10
-1.96413e-10
1.18246e-09
-3.59435e-10
1.57215e-09
-5.74906e-10
2.39536e-09
-5.93403e-10
1.46213e-09
-5.21109e-10
1.642e-09
-1.16353e-09
4.57337e-09
-2.0213e-09
4.84782e-09
-1.62592e-09
-3.3569e-09
-3.48972e-10
-9.73741e-09
5.74833e-10
-9.03481e-09
7.39007e-10
-4.20814e-09
5.17258e-10
-2.26067e-10
3.42456e-10
6.06679e-10
2.29795e-10
1.16774e-09
1.64717e-10
9.16942e-10
1.12902e-10
9.84904e-10
7.68912e-11
7.21878e-10
4.79745e-11
6.28206e-10
4.24228e-10
2.88482e-11
6.3741e-11
-8.7605e-11
4.33461e-10
-4.59123e-10
4.2127e-10
2.32203e-10
5.65828e-10
-3.5708e-10
3.24833e-10
5.84345e-10
3.49165e-10
-3.2355e-11
2.0691e-12
9.88276e-10
-7.55362e-11
2.64322e-10
-1.27867e-10
7.3071e-10
-6.72807e-11
3.33366e-10
2.89357e-11
5.27988e-10
-6.39135e-11
1.27532e-09
-3.07141e-10
1.81538e-09
-6.25932e-10
2.71414e-09
-6.38918e-10
1.47512e-09
-4.99194e-10
1.50229e-09
-1.23421e-09
5.30835e-09
-2.28586e-09
5.89945e-09
-1.81879e-09
-3.82398e-09
-3.27759e-10
-1.12285e-08
7.0051e-10
-1.0063e-08
8.3218e-10
-4.33982e-09
5.49204e-10
5.69305e-11
3.46852e-10
8.09031e-10
2.28077e-10
1.28651e-09
1.61995e-10
9.83022e-10
1.1066e-10
1.03624e-09
7.50146e-11
7.57522e-10
4.66697e-11
6.5655e-10
4.42915e-10
2.79815e-11
-1.16421e-10
2.87711e-11
3.98528e-10
-9.74021e-10
2.83796e-10
3.46966e-10
2.85113e-10
-3.58338e-10
-7.71852e-11
9.46702e-10
-4.14521e-12
-1.05323e-10
7.58561e-11
9.08328e-10
-1.67637e-10
5.07865e-10
-2.73637e-10
8.36731e-10
-2.26139e-10
2.85908e-10
-1.37104e-10
4.38935e-10
-1.71667e-10
1.30989e-09
-4.02496e-10
2.04623e-09
-6.94647e-10
3.00627e-09
-6.13495e-10
1.39397e-09
-3.63008e-10
1.25181e-09
-1.24895e-09
6.19425e-09
-2.55742e-09
7.20789e-09
-2.03872e-09
-4.34269e-09
-2.99816e-10
-1.29674e-08
8.45628e-10
-1.12084e-08
9.3434e-10
-4.42855e-09
5.79567e-10
4.11727e-10
3.4959e-10
1.03901e-09
2.25459e-10
1.41064e-09
1.58911e-10
1.04957e-09
1.08251e-10
1.08689e-09
7.30363e-11
7.92736e-10
4.53039e-11
6.84281e-10
4.61141e-10
2.70772e-11
-1.68924e-10
1.97657e-10
-1.80833e-10
-9.62088e-10
-3.22463e-10
4.88638e-10
4.49779e-11
-7.25702e-10
-1.92214e-10
1.18397e-09
-1.56026e-10
-1.41415e-10
-3.60488e-10
1.11286e-09
-5.52877e-10
7.00305e-10
-2.64839e-10
5.48724e-10
-4.09681e-11
6.20933e-11
2.11931e-10
1.86011e-10
1.48691e-10
1.37314e-09
-2.79167e-10
2.47411e-09
-7.98593e-10
3.52568e-09
-7.03489e-10
1.29887e-09
-3.26191e-10
8.74524e-10
-1.34308e-09
7.21109e-09
-2.93848e-09
8.80325e-09
-2.31283e-09
-4.96833e-09
-2.59943e-10
-1.50203e-08
1.01965e-09
-1.2488e-08
1.05254e-09
-4.46145e-09
6.1061e-10
8.53677e-10
3.50424e-10
1.29919e-09
2.21839e-10
1.53922e-09
1.55449e-10
1.11596e-09
1.05675e-10
1.13667e-09
7.09573e-11
8.27453e-10
4.38768e-11
7.11361e-10
4.78883e-10
2.61342e-11
1.01452e-10
9.62769e-11
-4.18892e-10
-4.4177e-10
-5.26657e-10
5.9646e-10
-3.00566e-10
-9.51693e-10
3.17392e-10
5.6611e-10
-2.80199e-11
2.04061e-10
-1.45243e-11
1.09944e-09
-2.89521e-10
9.75395e-10
-6.22285e-10
8.81517e-10
-2.79131e-10
-2.80986e-10
-5.85851e-11
-3.45769e-11
-1.21144e-10
1.43571e-09
-4.83811e-10
2.8368e-09
-8.93092e-10
3.93494e-09
-6.33117e-10
1.0389e-09
-2.68865e-11
2.68313e-10
-1.29607e-09
8.48023e-09
-3.29247e-09
1.07996e-08
-2.61087e-09
-5.64992e-09
-2.08887e-10
-1.74224e-08
1.21706e-09
-1.39139e-08
1.17669e-09
-4.42109e-09
6.38513e-10
1.39187e-09
3.48406e-10
1.5893e-09
2.17037e-10
1.67058e-09
1.51561e-10
1.18143e-09
1.02907e-10
1.18532e-09
6.87626e-11
8.61596e-10
4.23832e-11
7.37739e-10
4.96109e-10
2.51575e-11
1.09657e-10
-1.32942e-11
-6.61216e-10
3.29051e-10
-7.89478e-10
7.24748e-10
-5.33327e-10
-1.20777e-09
2.50285e-10
-2.17391e-10
-2.30101e-10
6.84555e-10
-7.19461e-11
9.41374e-10
1.46394e-10
7.57169e-10
-2.69282e-10
1.29721e-09
-2.85891e-11
-5.21579e-10
6.61185e-10
-7.24404e-10
6.0318e-10
1.49373e-09
-1.93836e-10
3.63385e-09
-1.10987e-09
4.85095e-09
-8.01937e-10
7.30966e-10
4.43524e-11
-5.77952e-10
-1.42688e-09
9.9514e-09
-3.85032e-09
1.3223e-08
-3.01172e-09
-6.48849e-09
-1.44288e-10
-2.02898e-08
1.45615e-09
-1.55143e-08
1.32709e-09
-4.29204e-09
6.71265e-10
2.04772e-09
3.44099e-10
1.91647e-09
2.11125e-10
1.80356e-09
1.47337e-10
1.24522e-09
1.00022e-10
1.23263e-09
6.65062e-11
8.95111e-10
4.08533e-11
7.63392e-10
5.12801e-10
2.41609e-11
-1.6454e-10
1.5125e-10
-7.3326e-10
8.97665e-10
-4.67573e-10
4.58995e-10
-3.79072e-10
-1.29631e-09
-3.12448e-10
-2.83974e-10
-1.28749e-09
1.65978e-09
-9.88026e-10
6.41992e-10
-9.77954e-10
7.4717e-10
-5.40428e-10
8.59712e-10
-4.26179e-10
-6.35682e-10
2.43047e-10
-1.39369e-09
-2.51419e-11
1.76191e-09
-6.27381e-10
4.23615e-09
-1.22752e-09
5.45107e-09
-6.50777e-10
1.54222e-10
4.98695e-10
-1.7274e-09
-1.28656e-09
1.17366e-08
-4.32459e-09
1.6261e-08
-3.41706e-09
-7.39599e-09
-3.66091e-11
-2.36703e-08
1.73424e-09
-1.72851e-08
1.47872e-09
-4.03652e-09
6.93176e-10
2.83328e-09
3.34207e-10
2.27544e-09
2.03664e-10
1.9341e-09
1.4254e-10
1.30634e-09
9.68241e-11
1.27834e-09
6.40536e-11
9.27881e-10
3.92019e-11
7.88243e-10
5.28895e-10
2.3107e-11
-8.07662e-10
9.58694e-10
7.73998e-11
1.26519e-11
2.47548e-10
2.88882e-10
1.42199e-10
-1.19104e-09
-2.15586e-10
7.36762e-11
-1.26699e-09
2.71129e-09
-8.04227e-11
-5.4461e-10
4.19821e-10
2.46968e-10
6.0729e-10
6.72253e-10
6.87588e-11
-9.69681e-11
1.43117e-09
-2.75617e-09
1.28975e-09
1.90332e-09
-3.16764e-10
5.84271e-09
-1.64786e-09
6.78214e-09
-9.21352e-10
-5.72292e-10
6.93249e-10
-3.34197e-09
-1.40155e-09
1.38313e-08
-5.10258e-09
1.99619e-08
-3.99677e-09
-8.50175e-09
2.82261e-11
-2.76954e-08
2.04178e-09
-1.92986e-08
1.66091e-09
-3.65565e-09
7.25471e-10
3.76875e-09
3.24023e-10
2.67688e-09
1.95731e-10
2.06239e-09
1.37838e-10
1.36424e-09
9.37986e-11
1.32238e-09
6.17691e-11
9.5991e-10
3.76632e-11
8.12348e-10
5.44453e-10
2.21046e-11
-6.00321e-10
1.55892e-09
-3.59779e-10
-2.28166e-10
8.88453e-10
-9.59601e-10
3.37547e-10
-6.40537e-10
4.07179e-10
3.65922e-12
-1.32738e-09
4.4458e-09
-5.99685e-10
-1.2724e-09
1.50823e-11
-3.67793e-10
-1.41264e-11
7.0157e-10
3.84364e-10
-4.95198e-10
6.76353e-10
-3.04818e-09
1.5846e-09
9.95054e-10
8.42034e-10
6.58526e-09
-1.39335e-09
9.01748e-09
-2.44713e-10
-1.72094e-09
1.60645e-09
-5.19311e-09
-9.64666e-10
1.64024e-08
-5.5291e-09
2.45263e-08
-4.39441e-09
-9.63635e-09
2.18674e-10
-3.23085e-08
2.47439e-09
-2.15543e-08
1.87146e-09
-3.05272e-09
7.3962e-10
4.9006e-09
3.02495e-10
3.11401e-09
1.86122e-10
2.17876e-09
1.33046e-10
1.41731e-09
9.07868e-11
1.36464e-09
5.94021e-11
9.91295e-10
3.60363e-11
8.35714e-10
5.59495e-10
2.09946e-11
3.61973e-11
1.52279e-09
-1.91447e-10
-6.69424e-13
3.02636e-11
-1.18133e-09
7.84724e-12
-6.18304e-10
1.94275e-09
-1.93169e-09
9.34877e-10
5.45344e-09
2.23904e-09
-2.5765e-09
2.8692e-09
-9.97945e-10
2.3311e-09
1.23951e-09
2.52658e-09
-6.90459e-10
-6.59815e-10
1.38252e-10
-4.30166e-09
4.63669e-09
-3.28779e-09
5.5716e-09
-1.29185e-09
7.02152e-09
1.04011e-09
-4.0529e-09
2.54776e-09
-6.70074e-09
-4.01801e-10
1.93519e-08
-5.38374e-09
2.95082e-08
-4.33158e-09
-1.06883e-08
5.28825e-10
-3.71689e-08
2.87754e-09
-2.39031e-08
2.08173e-09
-2.25696e-09
7.8409e-10
6.19824e-09
3.07285e-10
3.59082e-09
1.91979e-10
2.29406e-09
1.39202e-10
1.47009e-09
9.52932e-11
1.40855e-09
6.20394e-11
1.02455e-09
3.74846e-11
8.60269e-10
5.75359e-10
2.16202e-11
7.29171e-11
1.4497e-09
1.56281e-10
-8.4205e-11
-4.03129e-09
3.00572e-09
-3.17423e-09
-1.47546e-09
-3.85487e-09
-1.25121e-09
-3.226e-09
4.82434e-09
1.2837e-09
-7.08599e-09
3.35928e-09
-3.07332e-09
3.17343e-09
1.42529e-09
3.30156e-09
-8.18708e-10
1.29274e-09
2.14708e-09
9.07707e-10
5.0216e-09
8.16575e-09
-1.68649e-09
1.34579e-08
1.7294e-09
1.0636e-08
-1.23103e-09
9.89059e-09
-5.95532e-09
6.80978e-09
2.24327e-08
-1.76841e-09
3.80864e-08
-2.26281e-09
-1.01941e-08
2.52893e-09
-4.19605e-08
4.27003e-09
-2.56442e-08
2.69426e-09
-6.81219e-10
9.82917e-10
7.90959e-09
4.10891e-10
4.16285e-09
2.83069e-10
2.42189e-09
2.14921e-10
1.53824e-09
1.48427e-10
1.47504e-09
9.79797e-11
1.07499e-09
5.95319e-11
8.98714e-10
3.45908e-11
6.00298e-10
2.38707e-11
3.63998e-12
2.15095e-11
2.36029e-12
1.87604e-11
2.74824e-12
1.51752e-11
3.58475e-12
1.22213e-11
2.95358e-12
1.02884e-11
1.93276e-12
8.597e-12
1.6914e-12
7.1528e-12
1.44419e-12
5.8773e-12
1.27545e-12
5.06748e-12
8.09742e-13
4.2969e-12
7.70452e-13
3.45499e-12
8.41755e-13
2.74523e-12
7.09596e-13
2.33043e-12
4.14647e-13
1.95162e-12
3.78681e-13
1.7312e-12
2.20323e-13
1.36782e-12
3.63325e-13
1.13073e-12
2.37077e-13
1.15544e-12
-2.4668e-14
9.60282e-13
1.95246e-13
8.34321e-13
1.26096e-13
7.82456e-13
5.2041e-14
7.15277e-13
6.73948e-14
7.14383e-13
1.1389e-15
6.88978e-13
2.56804e-14
6.60377e-13
2.88867e-14
2.09034e-13
4.51661e-13
4.96129e-13
-2.8681e-13
4.31256e-14
4.53359e-13
4.33737e-14
3.07704e-11
8.97554e-12
2.70995e-11
6.02993e-12
2.24268e-11
7.41984e-12
1.78982e-11
8.11288e-12
1.51684e-11
5.68301e-12
1.26651e-11
4.43599e-12
1.05671e-11
3.78934e-12
8.91589e-12
3.09527e-12
7.37229e-12
2.81887e-12
6.30183e-12
1.87997e-12
5.35351e-12
1.7185e-12
4.03899e-12
2.15598e-12
3.25425e-12
1.49405e-12
2.86668e-12
8.01987e-13
2.38978e-12
8.55393e-13
1.98657e-12
6.2344e-13
1.69209e-12
6.57793e-13
1.43435e-12
4.94898e-13
1.26782e-12
1.42029e-13
1.14656e-12
3.1676e-13
1.04111e-12
2.31887e-13
9.6154e-13
1.32015e-13
9.40908e-13
8.84985e-14
9.43528e-13
-9.72117e-16
7.96757e-13
1.73019e-13
8.00307e-13
2.58862e-14
3.36074e-13
9.16538e-13
4.67537e-13
-4.17758e-13
-2.01408e-13
1.12305e-12
-1.57808e-13
3.33929e-11
1.51923e-11
2.50926e-11
1.4329e-11
2.04387e-11
1.20727e-11
1.78384e-11
1.07127e-11
1.54397e-11
8.08142e-12
1.29032e-11
6.97241e-12
1.075e-11
5.94246e-12
9.22102e-12
4.62417e-12
7.81164e-12
4.22809e-12
6.15144e-12
3.53995e-12
4.76242e-12
3.10726e-12
4.12237e-12
2.79576e-12
3.48029e-12
2.13586e-12
2.95883e-12
1.32323e-12
2.42945e-12
1.38461e-12
1.95639e-12
1.0964e-12
1.76196e-12
8.52217e-13
1.50918e-12
7.47752e-13
1.13639e-12
5.14978e-13
1.07019e-12
3.83199e-13
1.08341e-12
2.1898e-13
9.98742e-13
2.17069e-13
1.0357e-12
5.19855e-14
1.05832e-12
-2.31109e-14
7.87941e-13
4.4393e-13
8.14374e-13
-3.28592e-17
3.4884e-13
1.38268e-12
3.11703e-13
-3.80146e-13
-3.8115e-13
1.81661e-12
-5.38748e-13
3.17068e-11
2.11099e-11
2.58993e-11
2.01353e-11
2.17528e-11
1.62182e-11
1.84509e-11
1.40142e-11
1.55407e-11
1.09913e-11
1.29294e-11
9.58358e-12
1.07409e-11
8.13091e-12
9.03072e-12
6.33429e-12
7.5227e-12
5.73595e-12
6.07632e-12
4.98612e-12
4.9206e-12
4.26273e-12
4.14911e-12
3.56699e-12
3.51574e-12
2.76898e-12
3.0212e-12
1.81755e-12
2.45592e-12
1.94972e-12
2.02758e-12
1.52465e-12
1.74637e-12
1.13342e-12
1.46699e-12
1.02721e-12
1.25179e-12
7.30328e-13
1.12997e-12
5.05241e-13
1.06967e-12
2.79583e-13
9.93347e-13
2.93757e-13
9.72919e-13
7.28367e-14
9.48469e-13
1.79399e-15
8.05078e-13
5.87833e-13
8.35183e-13
-2.96504e-14
3.69298e-13
1.84915e-12
4.81628e-13
-4.92029e-13
-2.92516e-13
2.59143e-12
-8.31069e-13
3.11911e-11
2.68421e-11
2.60571e-11
2.52681e-11
2.20537e-11
2.02207e-11
1.85388e-11
1.75286e-11
1.54577e-11
1.40721e-11
1.28635e-11
1.21777e-11
1.06975e-11
1.02969e-11
8.89217e-12
8.13951e-12
7.37285e-12
7.25512e-12
6.06674e-12
6.29203e-12
4.96104e-12
5.36819e-12
4.16993e-12
4.35784e-12
3.60615e-12
3.33251e-12
2.98215e-12
2.44135e-12
2.4241e-12
2.50761e-12
2.02583e-12
1.92284e-12
1.72141e-12
1.43783e-12
1.45194e-12
1.29675e-12
1.26813e-12
9.14283e-13
1.13773e-12
6.35859e-13
1.05846e-12
3.5915e-13
9.8994e-13
3.62623e-13
9.54708e-13
1.08478e-13
9.0415e-13
5.27899e-14
8.04812e-13
6.87666e-13
8.39444e-13
-6.38143e-14
3.93273e-13
2.2959e-12
5.66638e-13
-6.64971e-13
-3.18353e-13
3.47708e-12
-1.14924e-12
3.09953e-11
3.24995e-11
2.59702e-11
3.02921e-11
2.19375e-11
2.42525e-11
1.84415e-11
2.10242e-11
1.53163e-11
1.71971e-11
1.27718e-11
1.4722e-11
1.06422e-11
1.24264e-11
8.74455e-12
1.00371e-11
7.23897e-12
8.76055e-12
6.01221e-12
7.5186e-12
4.97924e-12
6.40093e-12
4.24074e-12
5.0961e-12
3.62122e-12
3.95179e-12
2.89579e-12
3.16658e-12
2.38098e-12
3.02227e-12
2.00682e-12
2.29691e-12
1.69901e-12
1.74563e-12
1.45804e-12
1.53778e-12
1.27354e-12
1.09893e-12
1.13005e-12
7.79563e-13
1.04623e-12
4.43252e-13
9.80895e-13
4.28299e-13
9.53677e-13
1.36094e-13
8.98061e-13
1.08831e-13
8.15437e-13
7.70773e-13
8.48185e-13
-9.61095e-14
4.36391e-13
2.70825e-12
6.31163e-13
-8.59339e-13
-4.19514e-13
4.52841e-12
-1.56858e-12
3.07955e-11
3.80922e-11
2.58452e-11
3.52414e-11
2.17332e-11
2.83636e-11
1.82367e-11
2.45202e-11
1.51392e-11
2.02943e-11
1.26632e-11
1.71979e-11
1.05783e-11
1.45113e-11
8.61022e-12
1.20051e-11
7.11915e-12
1.02515e-11
5.93863e-12
8.69892e-12
4.99907e-12
7.34026e-12
4.25403e-12
5.84089e-12
3.57202e-12
4.63357e-12
2.83479e-12
3.90361e-12
2.36076e-12
3.49615e-12
1.98611e-12
2.67148e-12
1.67069e-12
2.06103e-12
1.45137e-12
1.75716e-12
1.2713e-12
1.27913e-12
1.11752e-12
9.33555e-13
1.02915e-12
5.31899e-13
9.6379e-13
4.93995e-13
9.53694e-13
1.46579e-13
9.09376e-13
1.53565e-13
8.50656e-13
8.29967e-13
8.78589e-13
-1.23604e-13
4.8702e-13
3.10037e-12
7.03961e-13
-1.07589e-12
-5.26123e-13
5.75915e-12
-2.09454e-12
3.05604e-11
4.36349e-11
2.56506e-11
4.01501e-11
2.14733e-11
3.25401e-11
1.79927e-11
2.80004e-11
1.49477e-11
2.33391e-11
1.24965e-11
1.9649e-11
1.04338e-11
1.6574e-11
8.59743e-12
1.38414e-11
7.07654e-12
1.17722e-11
5.86068e-12
9.91459e-12
5.03817e-12
8.16255e-12
4.2267e-12
6.65212e-12
3.47996e-12
5.38007e-12
2.79922e-12
4.58416e-12
2.35527e-12
3.93995e-12
1.98037e-12
3.0463e-12
1.66257e-12
2.37883e-12
1.44318e-12
1.9766e-12
1.26438e-12
1.45806e-12
1.10905e-12
1.08909e-12
1.02017e-12
6.21051e-13
9.50981e-13
5.63512e-13
9.54069e-13
1.43872e-13
9.20345e-13
1.87696e-13
8.94014e-13
8.56764e-13
9.16062e-13
-1.45225e-13
4.76861e-13
3.54012e-12
7.37041e-13
-1.33571e-12
-5.30911e-13
7.02775e-12
-2.62531e-12
3.02548e-11
4.91354e-11
2.54076e-11
4.49963e-11
2.12133e-11
3.67336e-11
1.7754e-11
3.14592e-11
1.47601e-11
2.63327e-11
1.2329e-11
2.208e-11
1.02976e-11
1.86053e-11
8.54102e-12
1.55979e-11
7.04595e-12
1.32671e-11
5.84282e-12
1.11175e-11
4.96063e-12
9.04452e-12
4.12369e-12
7.48882e-12
3.38429e-12
6.11925e-12
2.76229e-12
5.20597e-12
2.32603e-12
4.37606e-12
1.95912e-12
3.41312e-12
1.64713e-12
2.69082e-12
1.42032e-12
2.20347e-12
1.24571e-12
1.63281e-12
1.09488e-12
1.24012e-12
1.01061e-12
7.05591e-13
9.39342e-13
6.35097e-13
9.52315e-13
1.31273e-13
9.27925e-13
2.12483e-13
9.39343e-13
8.45804e-13
9.54652e-13
-1.6012e-13
4.90657e-13
4.00466e-12
8.11822e-13
-1.65652e-12
-5.57222e-13
8.39745e-12
-3.18239e-12
2.98909e-11
5.46015e-11
2.51109e-11
4.97753e-11
2.09412e-11
4.09025e-11
1.75096e-11
3.48904e-11
1.45795e-11
2.92626e-11
1.2171e-11
2.44884e-11
1.01565e-11
2.06196e-11
8.43763e-12
1.73167e-11
6.98371e-12
1.47209e-11
5.80607e-12
1.2295e-11
4.8656e-12
9.98476e-12
4.03008e-12
8.32411e-12
3.29867e-12
6.85044e-12
2.72147e-12
5.78298e-12
2.28095e-12
4.81644e-12
1.92873e-12
3.76526e-12
1.63365e-12
2.98589e-12
1.40283e-12
2.43434e-12
1.23393e-12
1.80183e-12
1.0856e-12
1.38864e-12
1.00894e-12
7.82517e-13
9.35455e-13
7.08895e-13
9.48332e-13
1.18763e-13
9.31742e-13
2.29462e-13
9.5131e-13
8.26687e-13
9.58612e-13
-1.67022e-13
4.82244e-13
4.48157e-12