/*--------------------------------*- C++ -*----------------------------------*\
| =========                 |                                                 |
| \\      /  F ield         | OpenFOAM: The Open Source CFD Toolbox           |
|  \\    /   O peration     | Version:  2.4.0                                 |
|   \\  /    A nd           | Web:      www.OpenFOAM.org                      |
|    \\/     M anipulation  |                                                 |
\*---------------------------------------------------------------------------*/
FoamFile
{
    version     2.0;
    format      ascii;
    class       surfaceScalarField;
    location    "0.122";
    object      phi;
}
// * * * * * * * * * * * * * * * * * * * * * * * * * * * * * * * * * * * * * //

dimensions      [0 3 -1 0 0 0 0];

internalField   nonuniform List<scalar> 
28560
(
-4.09849e-09
1.44714e-08
-1.03729e-08
5.73748e-09
-4.78491e-09
-9.52573e-10
1.30614e-09
1.58267e-09
-2.88881e-09
-5.94079e-09
8.15002e-09
-2.20922e-09
-1.52675e-08
1.89722e-08
-3.70478e-09
-2.67376e-08
3.22839e-08
-5.54634e-09
-3.92592e-08
4.49718e-08
-5.71261e-09
-5.004e-08
5.37855e-08
-3.74547e-09
-5.55445e-08
5.54154e-08
1.29127e-10
-5.25445e-08
4.78919e-08
4.65255e-09
-4.12515e-08
3.41066e-08
7.14489e-09
-2.53904e-08
1.67617e-08
8.62879e-09
-7.1621e-09
-1.69509e-09
8.85719e-09
1.04985e-08
-1.79575e-08
7.459e-09
2.46165e-08
-2.9678e-08
5.0615e-09
3.3787e-08
-3.65915e-08
2.80443e-09
3.85835e-08
-3.97063e-08
1.1228e-09
4.02131e-08
-4.01696e-08
-4.35359e-11
3.9667e-08
-3.88367e-08
-8.30302e-10
3.76643e-08
-3.63189e-08
-1.34542e-09
3.47077e-08
-3.30337e-08
-1.67407e-09
3.11583e-08
-2.93001e-08
-1.85827e-09
2.72928e-08
-2.53603e-08
-1.9325e-09
2.33199e-08
-2.13946e-08
-1.92531e-09
1.93927e-08
-1.75266e-08
-1.8661e-09
1.56086e-08
-1.38364e-08
-1.77221e-09
1.20277e-08
-1.03667e-08
-1.66097e-09
8.68205e-09
-7.14225e-09
-1.5398e-09
5.58801e-09
-4.17372e-09
-1.41428e-09
2.75114e-09
-1.46408e-09
-1.28706e-09
-2.84132e-08
4.4115e-08
-1.57018e-08
2.32458e-08
-2.5714e-08
9.45871e-11
2.37366e-09
2.21424e-08
-1.91652e-08
6.29514e-09
-9.27237e-09
9.35676e-09
-3.89589e-09
7.36334e-09
-1.28242e-08
-9.68452e-09
2.06857e-08
1.26311e-08
-2.36322e-08
-3.65653e-08
5.07562e-08
1.73948e-08
-3.15857e-08
-6.64628e-08
8.08642e-08
1.76568e-08
-3.20583e-08
-9.48389e-08
1.06769e-07
1.30582e-08
-2.49885e-08
-1.1632e-07
1.22698e-07
3.57507e-09
-9.95297e-09
-1.24996e-07
1.23468e-07
-8.394e-09
9.92201e-09
-1.18259e-07
1.11088e-07
-1.57858e-08
2.29567e-08
-1.00847e-07
8.98549e-08
-2.048e-08
3.14721e-08
-7.64332e-08
6.28923e-08
-2.26369e-08
3.61778e-08
-4.84063e-08
3.49063e-08
-2.05533e-08
3.40532e-08
-2.15302e-08
9.99848e-09
-1.57725e-08
2.73043e-08
6.7962e-10
-9.46544e-09
-1.03374e-08
1.91232e-08
1.71644e-08
-2.30487e-08
-5.66542e-09
1.15497e-08
2.78311e-08
-3.1171e-08
-2.06384e-09
5.40373e-09
3.35689e-08
-3.49345e-08
5.45455e-10
8.20157e-10
3.55514e-08
-3.54886e-08
2.32125e-09
-2.38403e-09
3.48651e-08
-3.38519e-08
3.48725e-09
-4.50039e-09
3.24341e-08
-3.08382e-08
4.17237e-09
-5.76818e-09
2.89675e-08
-2.70674e-08
4.49751e-09
-6.39766e-09
2.49878e-08
-2.29805e-08
4.56517e-09
-6.57252e-09
2.08604e-08
-1.88677e-08
4.46829e-09
-6.46098e-09
1.68099e-08
-1.49061e-08
4.26525e-09
-6.16904e-09
1.29634e-08
-1.11826e-08
4.00785e-09
-5.78865e-09
9.37923e-09
-7.73529e-09
3.72011e-09
-5.36405e-09
6.07866e-09
-4.5744e-09
3.41867e-09
-4.92293e-09
3.06361e-09
-1.69839e-09
3.11112e-09
-4.47633e-09
-6.06312e-08
7.75356e-08
-1.69045e-08
2.79849e-08
-3.16782e-08
-5.70936e-09
9.40267e-09
2.89344e-08
-2.63375e-08
1.19568e-08
-1.45537e-08
1.60615e-08
-1.10394e-08
1.80406e-08
-2.30627e-08
-2.99605e-09
1.49015e-08
3.53087e-08
-4.72141e-08
-3.12539e-08
4.63171e-08
4.64616e-08
-6.15248e-08
-6.2895e-08
7.83351e-08
4.72555e-08
-6.26956e-08
-9.35099e-08
1.06735e-07
3.78886e-08
-5.11136e-08
-1.17765e-07
1.25784e-07
1.75407e-08
-2.55599e-08
-1.2991e-07
1.30214e-07
-1.01193e-08
9.81534e-09
-1.26939e-07
1.21734e-07
-2.88176e-08
3.40233e-08
-1.13416e-07
1.04383e-07
-4.12391e-08
5.02727e-08
-9.29314e-08
8.12049e-08
-4.86305e-08
6.0357e-08
-6.85792e-08
5.67476e-08
-4.66321e-08
5.84637e-08
-4.50319e-08
3.49246e-08
-3.81519e-08
4.82591e-08
-2.54311e-08
1.76261e-08
-2.75083e-08
3.53133e-08
-1.06528e-08
5.15717e-09
-1.73727e-08
2.28682e-08
-4.77575e-10
-3.02227e-09
-9.00802e-09
1.25079e-08
5.84276e-09
-7.7886e-09
-2.63778e-09
4.58362e-09
9.17859e-09
-9.99129e-09
1.85848e-09
-1.04579e-09
1.03914e-08
-1.04328e-08
4.84828e-09
-4.80692e-09
1.01904e-08
-9.75796e-09
6.64423e-09
-7.07668e-09
9.15033e-09
-8.46903e-09
7.54937e-09
-8.23066e-09
7.68962e-09
-6.92436e-09
7.81976e-09
-8.58501e-09
6.12149e-09
-5.38436e-09
7.68556e-09
-8.42269e-09
4.65255e-09
-4.01037e-09
7.30606e-09
-7.94823e-09
3.39411e-09
-2.86648e-09
6.81407e-09
-7.34169e-09
2.36998e-09
-1.94751e-09
6.27835e-09
-6.70082e-09
1.54893e-09
-1.2066e-09
5.73849e-09
-6.08082e-09
8.76828e-10
-5.87099e-10
5.20628e-09
-5.49601e-09
-9.466e-08
1.11948e-07
-1.72885e-08
2.9041e-08
-3.28515e-08
-1.32057e-08
1.70162e-08
3.02145e-08
-2.75887e-08
1.7154e-08
-1.97797e-08
1.73669e-08
-1.25427e-08
2.79658e-08
-3.279e-08
-1.5102e-09
1.3576e-08
5.92191e-08
-7.12849e-08
-2.99895e-08
4.51699e-08
7.66584e-08
-9.18388e-08
-6.18899e-08
7.74907e-08
7.82321e-08
-9.3833e-08
-9.28918e-08
1.06376e-07
6.44826e-08
-7.79668e-08
-1.17657e-07
1.25992e-07
3.3755e-08
-4.20905e-08
-1.30278e-07
1.3069e-07
-9.39993e-09
8.98813e-09
-1.27519e-07
1.22628e-07
-3.89911e-08
4.38828e-08
-1.1453e-07
1.05932e-07
-5.89889e-08
6.75876e-08
-9.47626e-08
8.33352e-08
-7.18003e-08
8.32277e-08
-7.10608e-08
5.95785e-08
-6.99696e-08
8.14519e-08
-4.83306e-08
3.87411e-08
-5.79637e-08
6.75532e-08
-2.98229e-08
2.25349e-08
-4.27447e-08
5.00327e-08
-1.60489e-08
1.09249e-08
-2.81045e-08
3.32285e-08
-6.51271e-09
3.1512e-09
-1.59096e-08
1.92712e-08
-3.71333e-10
-1.62392e-09
-6.58081e-09
8.57606e-09
3.19126e-09
-4.21662e-09
9.65529e-11
9.28813e-10
4.9168e-09
-5.27117e-09
4.56282e-09
-4.20845e-09
5.3882e-09
-5.30183e-09
7.27933e-09
-7.3657e-09
5.05188e-09
-4.71061e-09
8.68011e-09
-9.02139e-09
4.27187e-09
-3.81186e-09
9.12412e-09
-9.58413e-09
3.31453e-09
-2.8512e-09
8.9459e-09
-9.40922e-09
2.38999e-09
-1.99348e-09
8.38292e-09
-8.77942e-09
1.62649e-09
-1.3303e-09
7.66217e-09
-7.95835e-09
1.07137e-09
-8.72272e-10
6.91488e-09
-7.11399e-09
7.05352e-10
-5.78574e-10
6.2206e-09
-6.34738e-09
4.7013e-10
-3.83182e-10
5.59546e-09
-5.68241e-09
-1.29395e-07
1.47009e-07
-1.76144e-08
2.95592e-08
-3.32835e-08
-2.07925e-08
2.45168e-08
3.05829e-08
-2.79044e-08
2.24321e-08
-2.51107e-08
1.77374e-08
-1.30546e-08
3.75452e-08
-4.2228e-08
-1.00389e-09
1.31779e-08
8.34024e-08
-9.55763e-08
-2.96571e-08
4.49227e-08
1.07061e-07
-1.22326e-07
-6.17513e-08
7.7471e-08
1.09491e-07
-1.25211e-07
-9.30794e-08
1.06826e-07
9.15737e-08
-1.0532e-07
-1.18366e-07
1.27062e-07
5.05893e-08
-5.92849e-08
-1.31454e-07
1.31825e-07
-8.59679e-09
8.22518e-09
-1.2852e-07
1.23718e-07
-4.87324e-08
5.35346e-08
-1.15481e-07
1.06991e-07
-7.61292e-08
8.46198e-08
-9.55663e-08
8.38612e-08
-9.47651e-08
1.0647e-07
-7.12656e-08
5.94258e-08
-9.30713e-08
1.04911e-07
-4.79087e-08
3.81498e-08
-7.7189e-08
8.69478e-08
-2.91135e-08
2.17651e-08
-5.73179e-08
6.46662e-08
-1.52515e-08
1.01122e-08
-3.83379e-08
4.34771e-08
-5.68078e-09
2.29273e-09
-2.26372e-08
2.60253e-08
5.12615e-10
-2.5932e-09
-1.06112e-08
1.26917e-08
4.22888e-09
-5.35116e-09
-2.01667e-09
3.13896e-09
6.14987e-09
-6.61132e-09
3.78682e-09
-3.32538e-09
6.83789e-09
-6.85296e-09
7.38343e-09
-7.36836e-09
6.70454e-09
-6.44232e-09
9.31343e-09
-9.57564e-09
6.06697e-09
-5.64577e-09
1.00141e-08
-1.04353e-08
5.15831e-09
-4.6719e-09
9.87684e-09
-1.03633e-08
4.15318e-09
-3.66818e-09
9.21131e-09
-9.69631e-09
3.17596e-09
-2.7328e-09
8.31569e-09
-8.75885e-09
2.29705e-09
-1.91264e-09
7.39113e-09
-7.77554e-09
1.53852e-09
-1.20926e-09
6.55848e-09
-6.88775e-09
8.86809e-10
-6.00457e-10
5.85228e-09
-6.13863e-09
-1.64808e-07
1.82813e-07
-1.8005e-08
3.01157e-08
-3.37023e-08
-2.81776e-08
3.17642e-08
3.08931e-08
-2.81597e-08
2.78158e-08
-3.05492e-08
1.80565e-08
-1.35474e-08
4.68294e-08
-5.13385e-08
-4.92391e-10
1.28099e-08
1.07816e-07
-1.20134e-07
-2.93564e-08
4.47173e-08
1.37638e-07
-1.52998e-07
-6.16669e-08
7.75207e-08
1.40996e-07
-1.5685e-07
-9.33855e-08
1.07457e-07
1.19221e-07
-1.33293e-07
-1.19337e-07
1.28524e-07
6.82093e-08
-7.73956e-08
-1.33076e-07
1.33396e-07
-7.8756e-09
7.55536e-09
-1.29934e-07
1.25258e-07
-5.8278e-08
6.29531e-08
-1.16859e-07
1.085e-07
-9.30505e-08
1.01409e-07
-9.67271e-08
8.4588e-08
-1.18377e-07
1.30516e-07
-7.14978e-08
5.90784e-08
-1.1702e-07
1.29439e-07
-4.70964e-08
3.70092e-08
-9.68624e-08
1.06949e-07
-2.76929e-08
2.0159e-08
-7.21026e-08
7.96365e-08
-1.35138e-08
8.28771e-09
-4.86599e-08
5.3886e-08
-3.79804e-09
3.76659e-10
-2.94337e-08
3.28551e-08
2.4637e-09
-4.54133e-09
-1.47773e-08
1.6855e-08
6.1833e-09
-7.30945e-09
-4.27291e-09
5.39906e-09
8.11464e-09
-8.58423e-09
2.85239e-09
-2.38279e-09
8.82413e-09
-8.85497e-09
7.33455e-09
-7.30371e-09
8.72166e-09
-8.46806e-09
9.82718e-09
-1.00808e-08
8.09831e-09
-7.66934e-09
1.08553e-08
-1.12842e-08
7.15446e-09
-6.62187e-09
1.08718e-08
-1.14044e-08
6.02866e-09
-5.44525e-09
1.02332e-08
-1.08166e-08
4.82082e-09
-4.22587e-09
9.2834e-09
-9.87835e-09
3.6054e-09
-3.02719e-09
8.26441e-09
-8.84262e-09
2.43504e-09
-1.89063e-09
7.33283e-09
-7.87725e-09
1.33939e-09
-8.38736e-10
6.54027e-09
-7.04093e-09
-2.01045e-07
2.19525e-07
-1.84801e-08
3.08024e-08
-3.42107e-08
-3.52671e-08
3.86754e-08
3.12607e-08
-2.84618e-08
3.33139e-08
-3.61127e-08
1.84399e-08
-1.41462e-08
5.57453e-08
-6.0039e-08
7.28546e-11
1.23742e-08
1.3256e-07
-1.45007e-07
-2.89949e-08
4.44712e-08
1.68415e-07
-1.83891e-07
-6.15648e-08
7.75731e-08
1.72779e-07
-1.88787e-07
-9.37598e-08
1.08222e-07
1.47552e-07
-1.62014e-07
-1.20533e-07
1.30353e-07
8.68801e-08
-9.67003e-08
-1.35106e-07
1.35331e-07
-7.27551e-09
7.05095e-09
-1.31681e-07
1.27165e-07
-6.75527e-08
7.20693e-08
-1.18616e-07
1.10436e-07
-1.09685e-07
1.17865e-07
-9.82765e-08
8.55571e-08
-1.42924e-07
1.55644e-07
-7.18572e-08
5.86792e-08
-1.42214e-07
1.55392e-07
-4.61225e-08
3.56464e-08
-1.17225e-07
1.27701e-07
-2.59975e-08
1.82515e-08
-8.72746e-08
9.50205e-08
-1.14676e-08
6.16003e-09
-5.91542e-08
6.44618e-08
-1.62829e-09
-1.79146e-09
-3.62749e-08
3.96946e-08
4.62084e-09
-6.65835e-09
-1.89265e-08
2.0964e-08
8.24716e-09
-9.31151e-09
-6.50374e-09
7.56809e-09
1.0049e-08
-1.04534e-08
1.93928e-09
-1.53492e-09
1.06228e-08
-1.05919e-08
7.29573e-09
-7.32664e-09
1.03968e-08
-1.00891e-08
1.03523e-08
-1.066e-08
9.66082e-09
-9.17526e-09
1.17351e-08
-1.22206e-08
8.59651e-09
-7.99654e-09
1.1967e-08
-1.25669e-08
7.32319e-09
-6.65279e-09
1.14432e-08
-1.21136e-08
5.92381e-09
-5.21813e-09
1.05327e-08
-1.12383e-08
4.46987e-09
-3.76087e-09
9.49351e-09
-1.02025e-08
3.0246e-09
-2.34018e-09
8.5007e-09
-9.18512e-09
1.64092e-09
-1.00222e-09
7.61953e-09
-8.25822e-09
-2.38279e-07
2.57328e-07
-1.90494e-08
3.16311e-08
-3.48144e-08
-4.19773e-08
4.51605e-08
3.16897e-08
-2.88118e-08
3.89491e-08
-4.1827e-08
1.88975e-08
-1.48627e-08
6.42085e-08
-6.82433e-08
6.49257e-10
1.18618e-08
1.57472e-07
-1.69983e-07
-2.85596e-08
4.41698e-08
1.99431e-07
-2.15041e-07
-6.14266e-08
7.76016e-08
2.04877e-07
-2.21052e-07
-9.41796e-08
1.09088e-07
1.76692e-07
-1.91601e-07
-1.2193e-07
1.32548e-07
1.06897e-07
-1.17515e-07
-1.37542e-07
1.37594e-07
-6.90092e-09
6.84905e-09
-1.33726e-07
1.29395e-07
-7.64962e-08
8.08273e-08
-1.20743e-07
1.12797e-07
-1.25935e-07
1.33881e-07
-1.00248e-07
8.67544e-08
-1.68722e-07
1.82216e-07
-7.233e-08
5.81718e-08
-1.69028e-07
1.83186e-07
-4.49338e-08
3.40159e-08
-1.38391e-07
1.49309e-07
-2.39878e-08
1.60114e-08
-1.02878e-07
1.10855e-07
-9.08864e-09
3.70618e-09
-6.98072e-08
7.51896e-08
8.45999e-10
-4.27212e-09
-4.31153e-08
4.65414e-08
7.04027e-09
-9.01566e-09
-2.298e-08
2.49554e-08
1.05119e-08
-1.14817e-08
-8.58528e-09
9.5551e-09
1.20998e-08
-1.23908e-08
1.18422e-09
-8.93217e-10
1.24385e-08
-1.22938e-08
7.41051e-09
-7.55525e-09
1.19784e-08
-1.15561e-08
1.10193e-08
-1.14417e-08
1.10132e-08
-1.04222e-08
1.27549e-08
-1.33459e-08
9.73639e-09
-9.03675e-09
1.32123e-08
-1.3912e-08
8.26183e-09
-7.4966e-09
1.28296e-08
-1.35949e-08
6.6689e-09
-5.86965e-09
1.19913e-08
-1.27905e-08
5.02361e-09
-4.22275e-09
1.09597e-08
-1.17606e-08
3.39085e-09
-2.61785e-09
9.91758e-09
-1.06906e-08
1.82897e-09
-1.10895e-09
8.94307e-09
-9.66308e-09
-2.76696e-07
2.96411e-07
-1.97144e-08
3.26111e-08
-3.55146e-08
-4.82116e-08
5.11151e-08
3.21758e-08
-2.92018e-08
4.47503e-08
-4.77242e-08
1.9435e-08
-1.57051e-08
7.21315e-08
-7.58614e-08
1.38386e-09
1.127e-08
1.82558e-07
-1.95211e-07
-2.80487e-08
4.38116e-08
2.30726e-07
-2.46489e-07
-6.12479e-08
7.75957e-08
2.37313e-07
-2.53661e-07
-9.46415e-08
1.10044e-07
2.06751e-07
-2.22154e-07
-1.23534e-07
1.35145e-07
1.28603e-07
-1.40214e-07
-1.40411e-07
1.40174e-07
-6.9244e-09
7.16171e-09
-1.36051e-07
1.31935e-07
-8.50553e-08
8.91722e-08
-1.23274e-07
1.15632e-07
-1.41684e-07
1.49326e-07
-1.02726e-07
8.82074e-08
-1.96188e-07
2.10707e-07
-7.29287e-08
5.7516e-08
-1.97935e-07
2.13348e-07
-4.34875e-08
3.20773e-08
-1.60467e-07
1.71877e-07
-2.1623e-08
1.33981e-08
-1.18954e-07
1.27179e-07
-6.33701e-09
8.81927e-10
-8.06095e-08
8.60646e-08
3.69492e-09
-7.09379e-09
-4.99522e-08
5.33511e-08
9.80425e-09
-1.16843e-08
-2.68803e-08
2.87603e-08
1.30642e-08
-1.39004e-08
-1.04643e-08
1.13006e-08
1.43838e-08
-1.45281e-08
6.75113e-10
-5.30764e-10
1.44189e-08
-1.41224e-08
7.7748e-09
-8.07123e-09
1.365e-08
-1.30822e-08
1.19303e-08
-1.24982e-08
1.23889e-08
-1.16602e-08
1.40024e-08
-1.47311e-08
1.08348e-08
-1.00106e-08
1.46712e-08
-1.54955e-08
9.11047e-09
-8.23451e-09
1.44136e-08
-1.52896e-08
7.29877e-09
-6.40555e-09
1.36362e-08
-1.45294e-08
5.46911e-09
-4.58928e-09
1.2602e-08
-1.34818e-08
3.68054e-09
-2.83899e-09
1.14985e-08
-1.23401e-08
1.98155e-09
-1.19941e-09
1.04141e-08
-1.11962e-08
-3.16496e-07
3.36976e-07
-2.04808e-08
3.37624e-08
-3.6319e-08
-5.38544e-08
5.64111e-08
3.27197e-08
-2.96133e-08
5.07572e-08
-5.38636e-08
2.00599e-08
-1.66819e-08
7.94213e-08
-8.27994e-08
2.25901e-09
1.06006e-08
2.07961e-07
-2.2082e-07
-2.74662e-08
4.34036e-08
2.62337e-07
-2.78274e-07
-6.10337e-08
7.75654e-08
2.701e-07
-2.86631e-07
-9.51557e-08
1.11091e-07
2.37819e-07
-2.53755e-07
-1.25371e-07
1.38212e-07
1.52408e-07
-1.65249e-07
-1.43776e-07
1.43077e-07
-7.60456e-09
8.30396e-09
-1.38658e-07
1.34792e-07
-9.31694e-08
9.70351e-08
-1.26271e-07
1.19019e-07
-1.56784e-07
1.64036e-07
-1.05823e-07
8.99768e-08
-2.25849e-07
2.41696e-07
-7.36656e-08
5.66823e-08
-2.29505e-07
2.46488e-07
-4.1742e-08
2.97972e-08
-1.83551e-07
1.95496e-07
-1.88675e-08
1.03802e-08
-1.35534e-07
1.44022e-07
-3.18604e-09
-2.32753e-09
-9.15274e-08
9.70409e-08
6.9387e-09
-1.02999e-08
-5.67203e-08
6.00816e-08
1.29134e-08
-1.46937e-08
-3.05912e-08
3.23715e-08
1.59361e-08
-1.66274e-08
-1.20713e-08
1.27627e-08
1.69376e-08
-1.69106e-08
4.65632e-10
-4.92646e-10
1.66232e-08
-1.61527e-08
8.45237e-09
-8.92287e-09
1.54993e-08
-1.47636e-08
1.31473e-08
-1.3883e-08
1.38974e-08
-1.30117e-08
1.55373e-08
-1.6423e-08
1.20273e-08
-1.10594e-08
1.63901e-08
-1.7358e-08
1.00191e-08
-9.02012e-09
1.62251e-08
-1.7224e-08
7.96526e-09
-6.96771e-09
1.54719e-08
-1.64695e-08
5.93048e-09
-4.96344e-09
1.44035e-08
-1.53705e-08
3.97155e-09
-3.05845e-09
1.32164e-08
-1.41295e-08
2.13226e-09
-1.2902e-09
1.20098e-08
-1.28519e-08
-3.57882e-07
3.7924e-07
-2.13579e-08
3.50926e-08
-3.72223e-08
-5.87646e-08
6.08943e-08
3.33084e-08
-2.99509e-08
5.70781e-08
-6.04356e-08
2.07769e-08
-1.77985e-08
8.59834e-08
-8.89618e-08
3.27517e-09
9.85094e-09
2.33805e-07
-2.46931e-07
-2.68054e-08
4.29366e-08
2.94305e-07
-3.10436e-07
-6.07666e-08
7.749e-08
3.03257e-07
-3.1998e-07
-9.56992e-08
1.12188e-07
2.69964e-07
-2.86453e-07
-1.27434e-07
1.41789e-07
1.78807e-07
-1.93162e-07
-1.47661e-07
1.4624e-07
-9.32521e-09
1.0746e-08
-1.41476e-07
1.3792e-07
-1.00755e-07
1.04311e-07
-1.29761e-07
1.23003e-07
-1.71055e-07
1.77813e-07
-1.09633e-07
9.2114e-08
-2.58331e-07
2.75851e-07
-7.45098e-08
5.56069e-08
-2.64384e-07
2.83287e-07
-3.96243e-08
2.71245e-08
-2.07716e-07
2.20216e-07
-1.56676e-08
6.91991e-09
-1.5264e-07
1.61388e-07
3.70181e-10
-5.96305e-09
-1.02584e-07
1.08177e-07
1.05941e-08
-1.39045e-08
-6.34114e-08
6.67218e-08
1.64241e-08
-1.80659e-08
-3.40815e-08
3.57233e-08
1.91485e-08
-1.9671e-08
-1.33732e-08
1.38957e-08
1.97838e-08
-1.95664e-08
6.10776e-10
-8.2811e-10
1.90722e-08
-1.84089e-08
9.48732e-09
-1.01506e-08
1.75548e-08
-1.66328e-08
1.4709e-08
-1.56309e-08
1.55776e-08
-1.45206e-08
1.73946e-08
-1.84515e-08
1.33657e-08
-1.22438e-08
1.84006e-08
-1.95226e-08
1.10485e-08
-9.91097e-09
1.82914e-08
-1.9429e-08
8.72129e-09
-7.60635e-09
1.75261e-08
-1.8641e-08
6.45582e-09
-5.38993e-09
1.63864e-08
-1.74523e-08
4.30242e-09
-3.30684e-09
1.50818e-08
-1.60774e-08
2.30189e-09
-1.39188e-09
1.37237e-08
-1.46337e-08
-4.01078e-07
4.23427e-07
-2.23497e-08
3.6612e-08
-3.82262e-08
-6.27774e-08
6.43916e-08
3.39329e-08
-3.03679e-08
6.39149e-08
-6.74799e-08
2.15939e-08
-1.9062e-08
9.17224e-08
-9.42542e-08
4.4355e-09
9.02231e-09
2.60215e-07
-2.73672e-07
-2.60658e-08
4.24099e-08
3.26672e-07
-3.43016e-07
-6.04376e-08
7.73648e-08
3.36804e-07
-3.53731e-07
-9.6259e-08
1.13308e-07
3.03223e-07
-3.20272e-07
-1.29743e-07
1.45955e-07
2.08399e-07
-2.24611e-07
-1.52122e-07
1.49627e-07
-1.2656e-08
1.51512e-08
-1.44446e-07
1.41275e-07
-1.07684e-07
1.10855e-07
-1.33812e-07
1.27683e-07
-1.84277e-07
1.90405e-07
-1.14317e-07
9.47331e-08
-2.94353e-07
3.13936e-07
-7.54352e-08
5.42055e-08
-3.03298e-07
3.24527e-07
-3.70551e-08
2.40054e-08
-2.32993e-07
2.46043e-07
-1.19629e-08
2.97917e-09
-1.70256e-07
1.7924e-07
4.38918e-09
-1.00381e-08
-1.13801e-07
1.1945e-07
1.46906e-08
-1.79422e-08
-7.00046e-08
7.32562e-08
2.03322e-08
-2.18228e-08
-3.72959e-08
3.87865e-08
2.27212e-08
-2.30432e-08
-1.4321e-08
1.4643e-08
2.29368e-08
-2.24988e-08
1.14914e-09
-1.58718e-09
2.17753e-08
-2.08994e-08
1.0921e-08
-1.17969e-08
1.98335e-08
-1.87113e-08
1.66447e-08
-1.77669e-08
1.74489e-08
-1.62028e-08
1.96003e-08
-2.08465e-08
1.48618e-08
-1.35753e-08
2.07306e-08
-2.20171e-08
1.22192e-08
-1.09403e-08
2.06366e-08
-2.19155e-08
9.61103e-09
-8.37181e-09
1.98138e-08
-2.1053e-08
7.10034e-09
-5.92867e-09
1.85689e-08
-1.97405e-08
4.73677e-09
-3.64433e-09
1.71208e-08
-1.82132e-08
2.53713e-09
-1.52949e-09
1.55923e-08
-1.65999e-08
-4.46319e-07
4.69784e-07
-2.34646e-08
3.83279e-08
-3.93391e-08
-6.57152e-08
6.67263e-08
3.45957e-08
-3.0921e-08
7.11068e-08
-7.47815e-08
2.25382e-08
-2.04844e-08
9.65492e-08
-9.86029e-08
5.74653e-09
8.11731e-09
2.87324e-07
-3.01188e-07
-2.52514e-08
4.18302e-08
3.59476e-07
-3.76055e-07
-6.00478e-08
7.72e-08
3.70768e-07
-3.8792e-07
-9.68274e-08
1.14441e-07
3.37603e-07
-3.55217e-07
-1.32359e-07
1.5084e-07
2.41903e-07
-2.60384e-07
-1.57263e-07
1.53247e-07
-1.83431e-08
2.23591e-08
-1.47551e-07
1.44728e-07
-1.13829e-07
1.16651e-07
-1.3868e-07
1.333e-07
-1.96161e-07
2.01541e-07
-1.20051e-07
9.81651e-08
-3.3468e-07
3.56566e-07
-7.64389e-08
5.23841e-08
-3.47103e-07
3.71158e-07
-3.39432e-08
2.03715e-08
-2.59361e-07
2.72933e-07
-7.67971e-09
-1.59341e-09
-1.88332e-07
1.97605e-07
8.91704e-09
-1.45804e-08
-1.25113e-07
1.30776e-07
1.9263e-08
-2.24416e-08
-7.64695e-08
7.9648e-08
2.4678e-08
-2.599e-08
-4.02009e-08
4.15129e-08
2.66823e-08
-2.67816e-08
-1.48602e-08
1.49594e-08
2.64151e-08
-2.57305e-08
2.14453e-09
-2.82911e-09
2.47483e-08
-2.36387e-08
1.27866e-08
-1.38962e-08
2.23383e-08
-2.10206e-08
1.89989e-08
-2.03166e-08
1.95664e-08
-1.81307e-08
2.21772e-08
-2.36129e-08
1.65812e-08
-1.5098e-08
2.33898e-08
-2.48731e-08
1.35457e-08
-1.2089e-08
2.32808e-08
-2.47375e-08
1.05852e-08
-9.1933e-09
2.23696e-08
-2.37615e-08
7.77333e-09
-6.47083e-09
2.09753e-08
-2.22778e-08
5.15237e-09
-3.95205e-09
1.93566e-08
-2.05569e-08
2.74443e-09
-1.65255e-09
1.76508e-08
-1.87427e-08
-4.93857e-07
5.18573e-07
-2.47159e-08
4.02351e-08
-4.05554e-08
-6.74032e-08
6.77235e-08
3.52893e-08
-3.15504e-08
7.84952e-08
-8.22341e-08
2.3679e-08
-2.20684e-08
1.0042e-07
-1.02031e-07
7.2135e-09
7.13662e-09
3.15283e-07
-3.29633e-07
-2.43578e-08
4.11885e-08
3.92756e-07
-4.09587e-07
-5.95748e-08
7.69794e-08
4.05194e-07
-4.22598e-07
-9.7344e-08
1.15552e-07
3.73118e-07
-3.91327e-07
-1.35316e-07
1.56519e-07
2.80168e-07
-3.01371e-07
-1.6314e-07
1.57017e-07
-2.7349e-08
3.34715e-08
-1.50732e-07
1.47845e-07
-1.19435e-07
1.22322e-07
-1.44968e-07
1.39758e-07
-2.06657e-07
2.11867e-07
-1.26641e-07
1.03368e-07
-3.79388e-07
4.02661e-07
-7.73836e-08
5.00074e-08
-3.96838e-07
4.24214e-07
-3.01903e-08
1.61861e-08
-2.86807e-07
3.00811e-07
-2.77771e-09
-6.72871e-09
-2.06867e-07
2.16373e-07
1.39259e-08
-1.95779e-08
-1.36522e-07
1.42174e-07
2.43323e-08
-2.74423e-08
-8.27689e-08
8.5879e-08
2.94851e-08
-3.05989e-08
-4.273e-08
4.38438e-08
3.10507e-08
-3.08935e-08
-1.49327e-08
1.47755e-08
3.0237e-08
-2.92612e-08
3.64287e-09
-4.61867e-09
2.79762e-08
-2.66107e-08
1.51419e-08
-1.65074e-08
2.50682e-08
-2.35108e-08
2.17724e-08
-2.33298e-08
2.17979e-08
-2.0143e-08
2.51634e-08
-2.68183e-08
1.84018e-08
-1.67547e-08
2.64299e-08
-2.8077e-08
1.50331e-08
-1.34198e-08
2.62612e-08
-2.78745e-08
1.17535e-08
-1.02078e-08
2.52223e-08
-2.6768e-08
8.62486e-09
-7.16773e-09
2.36542e-08
-2.51113e-08
5.69116e-09
-4.35037e-09
2.18244e-08
-2.31651e-08
3.00945e-09
-1.80455e-09
1.98844e-08
-2.10893e-08
-5.43966e-07
5.70076e-07
-2.61097e-08
4.23409e-08
-4.18749e-08
-6.76634e-08
6.71973e-08
3.59602e-08
-3.22469e-08
8.59743e-08
-8.96876e-08
2.50486e-08
-2.38171e-08
1.03478e-07
-1.0471e-07
8.84255e-09
6.08316e-09
3.4426e-07
-3.59186e-07
-2.3386e-08
4.04836e-08
4.2655e-07
-4.43648e-07
-5.90073e-08
7.6705e-08
4.40144e-07
-4.57841e-07
-9.77164e-08
1.16706e-07
4.09882e-07
-4.28872e-07
-1.38696e-07
1.62951e-07
3.24083e-07
-3.48338e-07
-1.6976e-07
1.60917e-07
-4.08826e-08
4.97256e-08
-1.53669e-07
1.50612e-07
-1.2537e-07
1.28428e-07
-1.52647e-07
1.45519e-07
-2.17785e-07
2.24913e-07
-1.34179e-07
1.1135e-07
-4.2578e-07
4.48608e-07
-7.68028e-08
4.61652e-08
-4.5335e-07
4.83987e-07
-2.55308e-08
1.17316e-08
-3.15501e-07
3.293e-07
2.62463e-09
-1.25211e-08
-2.25367e-07
2.35264e-07
1.92013e-08
-2.49884e-08
-1.48064e-07
1.53851e-07
2.99389e-08
-3.2964e-08
-8.88644e-08
9.18895e-08
3.48008e-08
-3.56752e-08
-4.48628e-08
4.57373e-08
3.58582e-08
-3.5393e-08
-1.44661e-08
1.40009e-08
3.43876e-08
-3.31016e-08
5.74788e-09
-7.03386e-09
3.15276e-08
-2.98676e-08
1.79965e-08
-1.96565e-08
2.79963e-08
-2.61816e-08
2.50073e-08
-2.68219e-08
2.42642e-08
-2.24281e-08
2.85531e-08
-3.03891e-08
2.04617e-08
-1.8585e-08
2.98374e-08
-3.1714e-08
1.66349e-08
-1.48237e-08
2.95958e-08
-3.1407e-08
1.29673e-08
-1.12564e-08
2.84034e-08
-3.01144e-08
9.51662e-09
-7.92625e-09
2.66417e-08
-2.8232e-08
6.31889e-09
-4.84996e-09
2.45729e-08
-2.60418e-08
3.36245e-09
-2.00836e-09
2.23666e-08
-2.37207e-08
-5.9694e-07
6.24599e-07
-2.76586e-08
4.46752e-08
-4.33063e-08
-6.62958e-08
6.49269e-08
3.65831e-08
-3.30212e-08
9.33428e-08
-9.69047e-08
2.64038e-08
-2.57301e-08
1.05675e-07
-1.06348e-07
1.06422e-08
4.96192e-09
3.74437e-07
-3.90042e-07
-2.23422e-08
3.97208e-08
4.60885e-07
-4.78264e-07
-5.83457e-08
7.63945e-08
4.75708e-07
-4.93757e-07
-9.77975e-08
1.18231e-07
4.48457e-07
-4.6889e-07
-1.42416e-07
1.69277e-07
3.74053e-07
-4.00914e-07
-1.76716e-07
1.64795e-07
-6.01025e-08
7.20238e-08
-1.55877e-07
1.53858e-07
-1.31139e-07
1.33158e-07
-1.59853e-07
1.5238e-07
-2.32955e-07
2.40428e-07
-1.46352e-07
1.20441e-07
-4.71937e-07
4.97848e-07
-7.2654e-08
4.01661e-08
-5.15359e-07
5.47847e-07
-2.11903e-08
8.76841e-09
-3.45813e-07
3.58235e-07
7.22177e-09
-1.76037e-08
-2.43229e-07
2.53611e-07
2.41779e-08
-3.0959e-08
-1.59617e-07
1.66398e-07
3.61608e-08
-3.88858e-08
-9.47437e-08
9.74687e-08
4.06583e-08
-4.13035e-08
-4.65018e-08
4.7147e-08
4.11286e-08
-4.03271e-08
-1.33753e-08
1.25738e-08
3.89171e-08
-3.72178e-08
8.51383e-09
-1.02131e-08
3.5241e-08
-3.33056e-08
2.14904e-08
-2.34258e-08
3.12465e-08
-2.92338e-08
2.87425e-08
-3.07551e-08
2.70213e-08
-2.48726e-08
3.23777e-08
-3.45263e-08
2.26334e-08
-2.05594e-08
3.36927e-08
-3.57667e-08
1.84178e-08
-1.64144e-08
3.32995e-08
-3.53029e-08
1.4348e-08
-1.24446e-08
3.19051e-08
-3.38085e-08
1.05168e-08
-8.75958e-09
2.98901e-08
-3.16473e-08
6.9837e-09
-5.3592e-09
2.75801e-08
-2.92046e-08
3.7112e-09
-2.20855e-09
2.5152e-08
-2.66547e-08
-6.53097e-07
6.82477e-07
-2.93803e-08
4.7255e-08
-4.48412e-08
-6.30551e-08
6.06413e-08
3.71335e-08
-3.38831e-08
1.00333e-07
-1.03584e-07
2.78659e-08
-2.77848e-08
1.06723e-07
-1.06804e-07
1.26207e-08
3.77717e-09
4.06026e-07
-4.22424e-07
-2.12254e-08
3.88898e-08
4.95784e-07
-5.13448e-07
-5.75754e-08
7.59959e-08
5.11995e-07
-5.30415e-07
-9.75477e-08
1.20532e-07
4.90483e-07
-5.13468e-07
-1.44986e-07
1.71626e-07
4.28244e-07
-4.54884e-07
-1.81366e-07
1.67507e-07
-8.52625e-08
9.91209e-08
-1.57013e-07
1.56753e-07
-1.3433e-07
1.3459e-07
-1.66359e-07
1.65902e-07
-2.45187e-07
2.45644e-07
-1.6272e-07
1.27749e-07
-5.27796e-07
5.62767e-07
-6.82228e-08
3.60119e-08
-5.78882e-07
6.11093e-07
-2.14969e-08
8.37281e-09
-3.79456e-07
3.9258e-07
9.02736e-09
-2.17709e-08
-2.59214e-07
2.71958e-07
3.07425e-08
-3.81081e-08
-1.71579e-07
1.78945e-07
4.30278e-08
-4.47617e-08
-1.00282e-07
1.02016e-07
4.68898e-08
-4.76853e-08
-4.75215e-08
4.8317e-08
4.69126e-08
-4.56359e-08
-1.15784e-08
1.03018e-08
4.37507e-08
-4.16566e-08
1.21436e-08
-1.42378e-08
3.93384e-08
-3.70634e-08
2.5496e-08
-2.7771e-08
3.46062e-08
-3.22534e-08
3.2916e-08
-3.52688e-08
2.98219e-08
-2.75738e-08
3.67415e-08
-3.89897e-08
2.52117e-08
-2.29367e-08
3.79191e-08
-4.01941e-08
2.0528e-08
-1.82658e-08
3.74382e-08
-3.97005e-08
1.59394e-08
-1.37937e-08
3.58409e-08
-3.79866e-08
1.16071e-08
-9.60363e-09
3.35274e-08
-3.55308e-08
7.58601e-09
-5.76774e-09
3.09268e-08
-3.27451e-08
3.96263e-09
-2.34945e-09
2.82168e-08
-2.983e-08
-7.12784e-07
7.44069e-07
-3.12848e-08
5.01061e-08
-4.64773e-08
-5.76431e-08
5.40143e-08
3.75901e-08
-3.48597e-08
1.06604e-07
-1.09334e-07
2.95002e-08
-2.99508e-08
1.0661e-07
-1.0616e-07
1.47922e-08
2.53731e-09
4.39269e-07
-4.56598e-07
-2.00398e-08
3.79868e-08
5.31256e-07
-5.49203e-07
-5.67047e-08
7.53521e-08
5.4898e-07
-5.67628e-07
-9.77439e-08
1.2256e-07
5.37737e-07
-5.62553e-07
-1.41351e-07
1.60959e-07
4.79119e-07
-4.98727e-07
-1.75201e-07
1.65374e-07
-1.12141e-07
1.21968e-07
-1.55267e-07
1.57888e-07
-1.33672e-07
1.31051e-07
-1.73759e-07
1.83227e-07
-2.41143e-07
2.31676e-07
-1.77241e-07
1.34995e-07
-6.04682e-07
6.46927e-07
-7.13867e-08
3.80899e-08
-6.48689e-07
6.81986e-07
-2.09183e-08
-1.95021e-09
-4.12775e-07
4.35643e-07
2.17125e-08
-3.29151e-08
-2.72338e-07
2.8354e-07
4.03448e-08
-4.73073e-08
-1.85848e-07
1.92811e-07
5.11484e-08
-5.08816e-08
-1.04671e-07
1.04405e-07
5.17625e-08
-5.37605e-08
-4.77228e-08
4.97208e-08
5.34399e-08
-5.16297e-08
-9.13043e-09
7.32014e-09
4.91427e-08
-4.63781e-08
1.66659e-08
-1.94305e-08
4.34927e-08
-4.08265e-08
3.02833e-08
-3.29495e-08
3.812e-08
-3.56208e-08
3.7702e-08
-4.02011e-08
3.29892e-08
-3.04095e-08
4.13199e-08
-4.38996e-08
2.76261e-08
-2.50057e-08
4.26388e-08
-4.52592e-08
2.2347e-08
-1.99207e-08
4.20562e-08
-4.44825e-08
1.74415e-08
-1.51337e-08
4.02149e-08
-4.25227e-08
1.27554e-08
-1.05583e-08
3.76395e-08
-3.98366e-08
8.33602e-09
-6.33046e-09
3.4656e-08
-3.66615e-08
4.33973e-09
-2.56265e-09
3.15061e-08
-3.32832e-08
-7.7638e-07
8.09769e-07
-3.33886e-08
5.32678e-08
-4.82199e-08
-4.97036e-08
4.46556e-08
3.79377e-08
-3.59979e-08
1.11708e-07
-1.13648e-07
3.13625e-08
-3.23301e-08
1.05453e-07
-1.04485e-07
1.71798e-08
1.25769e-09
4.74457e-07
-4.92895e-07
-1.87943e-08
3.7017e-08
5.67289e-07
-5.85512e-07
-5.57381e-08
7.44549e-08
5.86307e-07
-6.05024e-07
-9.89656e-08
1.20207e-07
5.86484e-07
-6.07725e-07
-1.25077e-07
1.27967e-07
5.11186e-07
-5.14077e-07
-1.45121e-07
1.50501e-07
-1.25606e-07
1.20225e-07
-1.4629e-07
1.54132e-07
-1.26143e-07
1.18301e-07
-1.81347e-07
2.02478e-07
-2.17177e-07
1.96046e-07
-1.98489e-07
1.45477e-07
-6.98581e-07
7.51593e-07
-8.17218e-08
2.57405e-08
-7.33257e-07
7.89238e-07
8.74507e-09
-2.12802e-08
-4.48278e-07
4.60813e-07
3.22665e-08
-3.91334e-08
-2.88171e-07
2.95038e-07
4.86692e-08
-5.58339e-08
-1.98152e-07
2.05317e-07
5.93586e-08
-5.97745e-08
-1.05961e-07
1.06377e-07
5.78798e-08
-5.96557e-08
-4.93195e-08
5.10954e-08
6.11093e-08
-5.82465e-08
-5.74516e-09
2.88242e-09
5.42374e-08
-5.07255e-08
2.264e-08
-2.61518e-08
4.75279e-08
-4.47952e-08
3.56261e-08
-3.83588e-08
4.208e-08
-3.94191e-08
4.27484e-08
-4.54093e-08
3.64389e-08
-3.3545e-08
4.67431e-08
-4.9637e-08
3.05796e-08
-2.78665e-08
4.79725e-08
-5.06856e-08
2.50402e-08
-2.23492e-08
4.70046e-08
-4.96956e-08
1.95413e-08
-1.69511e-08
4.49472e-08
-4.75375e-08
1.43342e-08
-1.19519e-08
4.21237e-08
-4.45061e-08
9.538e-09
-7.3147e-09
3.87728e-08
-4.09961e-08
5.04128e-09
-2.95565e-09
3.52036e-08
-3.72892e-08
-8.44293e-07
8.80008e-07
-3.57152e-08
5.67617e-08
-5.00532e-08
-3.88107e-08
3.21022e-08
3.81466e-08
-3.736e-08
1.15063e-07
-1.1585e-07
3.35027e-08
-3.4982e-08
1.03257e-07
-1.01778e-07
1.98109e-08
-9.73901e-11
5.11967e-07
-5.31681e-07
-1.74898e-08
3.59736e-08
6.03866e-07
-6.2235e-07
-5.46277e-08
7.37041e-08
6.23864e-07
-6.4294e-07
-9.87896e-08
1.10675e-07
6.24705e-07
-6.36591e-07
-9.82844e-08
7.79774e-08
5.05677e-07
-4.8537e-07
-8.87666e-08
1.14633e-07
-1.04305e-07
7.84384e-08
-1.22004e-07
1.4202e-07
-1.06007e-07
8.59914e-08
-1.86377e-07
2.15699e-07
-1.70271e-07
1.40949e-07
-2.23206e-07
1.57984e-07
-8.18349e-07
8.8357e-07
-5.217e-08
-3.94294e-09
-8.50236e-07
9.06349e-07
1.43585e-08
-4.13262e-08
-4.72661e-07
4.99629e-07
5.29143e-08
-6.56557e-08
-2.94471e-07
3.07212e-07
6.81808e-08
-6.14191e-08
-2.15041e-07
2.08279e-07
5.79345e-08
-6.00274e-08
-1.03231e-07
1.05324e-07
6.64163e-08
-6.78417e-08
-5.58845e-08
5.73099e-08
6.57862e-08
-6.06875e-08
1.40204e-09
-6.5007e-09
5.52841e-08
-5.28491e-08
2.94579e-08
-3.18929e-08
5.0597e-08
-4.81565e-08
4.10221e-08
-4.34626e-08
4.52856e-08
-4.25276e-08
4.81418e-08
-5.08998e-08
3.97249e-08
-3.70848e-08
5.23726e-08
-5.50127e-08
3.41685e-08
-3.11929e-08
5.34639e-08
-5.64395e-08
2.79043e-08
-2.47646e-08
5.2631e-08
-5.57708e-08
2.15541e-08
-1.86496e-08
5.0309e-08
-5.32135e-08
1.57545e-08
-1.314e-08
4.69931e-08
-4.96075e-08
1.04986e-08
-8.06101e-09
4.33263e-08
-4.57639e-08
5.55632e-09
-3.24556e-09
3.95158e-08