/*--------------------------------*- C++ -*----------------------------------*\
| =========                 |                                                 |
| \\      /  F ield         | OpenFOAM: The Open Source CFD Toolbox           |
|  \\    /   O peration     | Version:  2.4.0                                 |
|   \\  /    A nd           | Web:      www.OpenFOAM.org                      |
|    \\/     M anipulation  |                                                 |
\*---------------------------------------------------------------------------*/
FoamFile
{
    version     2.0;
    format      ascii;
    class       surfaceScalarField;
    location    "0.166";
    object      phi;
}
// * * * * * * * * * * * * * * * * * * * * * * * * * * * * * * * * * * * * * //

dimensions      [0 3 -1 0 0 0 0];

internalField   nonuniform List<scalar> 
19800
(
3.32692e-13
-3.32694e-13
9.48818e-13
-6.12865e-13
1.60022e-12
-6.50821e-13
2.17641e-12
-5.76825e-13
2.66477e-12
-4.88926e-13
3.08692e-12
-4.2229e-13
3.47267e-12
-3.85508e-13
3.85235e-12
-3.79324e-13
4.25651e-12
-4.0401e-13
4.71641e-12
-4.60218e-13
5.26377e-12
-5.48048e-13
5.92899e-12
-6.65845e-13
6.73851e-12
-8.09664e-13
7.71225e-12
-9.73237e-13
8.86167e-12
-1.14852e-12
1.01889e-11
-1.32623e-12
1.16865e-11
-1.49685e-12
1.3339e-11
-1.65177e-12
1.51244e-11
-1.78452e-12
1.70172e-11
-1.89175e-12
1.89917e-11
-1.97353e-12
2.10252e-11
-2.03293e-12
2.31004e-11
-2.07488e-12
2.52047e-11
-2.10434e-12
2.73291e-11
-2.12434e-12
2.94632e-11
-2.13369e-12
3.15889e-11
-2.12512e-12
3.36737e-11
-2.08418e-12
3.56642e-11
-1.99029e-12
3.74848e-11
-1.82086e-12
3.90424e-11
-1.55819e-12
4.02379e-11
-1.19621e-12
4.09798e-11
-7.42666e-13
4.11954e-11
-2.16062e-13
4.08255e-11
3.69889e-13
3.98381e-11
9.8785e-13
3.82034e-11
1.63544e-12
3.59009e-11
2.30337e-12
3.29141e-11
2.98742e-12
2.92314e-11
3.68316e-12
2.48476e-11
4.38429e-12
1.97661e-11
5.08196e-12
1.40015e-11
5.7648e-12
7.58227e-12
6.41922e-12
5.5156e-13
7.03012e-12
-7.03149e-12
7.5818e-12
-1.50913e-11
8.05867e-12
-2.3537e-11
8.44572e-12
-3.22656e-11
8.72895e-12
8.89683e-12
-4.11627e-11
6.08876e-13
-9.4265e-13
1.65137e-12
-1.65403e-12
2.70108e-12
-1.69927e-12
3.60615e-12
-1.48183e-12
4.36541e-12
-1.24861e-12
5.03955e-12
-1.09663e-12
5.70593e-12
-1.05174e-12
6.44268e-12
-1.11611e-12
7.32638e-12
-1.28831e-12
8.43248e-12
-1.56737e-12
9.83348e-12
-1.94991e-12
1.15952e-11
-2.42763e-12
1.37714e-11
-2.98502e-12
1.63993e-11
-3.5997e-12
1.94957e-11
-4.24348e-12
2.30558e-11
-4.88502e-12
2.70536e-11
-5.49327e-12
3.14448e-11
-6.04132e-12
3.61721e-11
-6.51e-12
4.11724e-11
-6.89031e-12
4.63841e-11
-7.18402e-12
5.17538e-11
-7.40212e-12
5.724e-11
-7.56092e-12
6.28124e-11
-7.67633e-12
6.84456e-11
-7.75678e-12
7.41087e-11
-7.79576e-12
7.97496e-11
-7.76521e-12
8.5278e-11
-7.61262e-12
9.05516e-11
-7.26468e-12
9.53714e-11
-6.64185e-12
9.94935e-11
-5.6814e-12
1.02657e-10
-4.36021e-12
1.04616e-10
-2.70198e-12
1.05164e-10
-7.63545e-13
1.04145e-10
1.38976e-12
1.01435e-10
3.69967e-12
9.69431e-11
6.12832e-12
9.05983e-11
8.64931e-12
8.2344e-11
1.12424e-11
7.21416e-11
1.3886e-11
5.99747e-11
1.65516e-11
4.58549e-11
1.9202e-11
2.98278e-11
2.17912e-11
1.19786e-11
2.42669e-11
-7.56403e-12
2.65714e-11
-2.86277e-11
2.86448e-11
-5.09979e-11
3.04284e-11
-7.44186e-11
3.18665e-11
-9.85969e-11
3.29076e-11
3.35091e-11
-1.23211e-10
6.75766e-13
-1.61784e-12
1.7524e-12
-2.73113e-12
2.76267e-12
-2.7096e-12
3.55799e-12
-2.27735e-12
4.1605e-12
-1.85146e-12
4.66404e-12
-1.60053e-12
5.18419e-12
-1.57228e-12
5.83975e-12
-1.77227e-12
6.74919e-12
-2.19857e-12
8.0292e-12
-2.84819e-12
9.79178e-12
-3.7129e-12
1.2138e-11
-4.77367e-12
1.51508e-11
-5.99726e-12
1.88882e-11
-7.33623e-12
2.33773e-11
-8.73174e-12
2.86122e-11
-1.01189e-11
3.45541e-11
-1.14337e-11
4.11356e-11
-1.26209e-11
4.82681e-11
-1.36406e-11
5.58527e-11
-1.44735e-11
6.37915e-11
-1.5122e-11
7.19971e-11
-1.56074e-11
8.0399e-11
-1.59623e-11
8.89426e-11
-1.62191e-11
9.75822e-11
-1.63954e-11
1.06266e-10
-1.64786e-11
1.14912e-10
-1.64119e-11
1.23386e-10
-1.60877e-11
1.31474e-10
-1.53532e-11
1.38871e-10
-1.40395e-11
1.45201e-10
-1.20113e-11
1.5006e-10
-9.21758e-12
1.53067e-10
-5.70784e-12
1.53907e-10
-1.60246e-12
1.52336e-10
2.96164e-12
1.48166e-10
7.87038e-12
1.4125e-10
1.30447e-11
1.31468e-10
1.84318e-11
1.18722e-10
2.39883e-11
1.02943e-10
2.96647e-11
8.40974e-11
3.53965e-11
6.21994e-11
4.10994e-11
3.73189e-11
4.66712e-11
9.5894e-12
5.19957e-11
-2.0786e-11
5.69466e-11
-5.35344e-11
6.1394e-11
-8.83163e-11
6.52107e-11
-1.24727e-10
6.82765e-11
-1.62305e-10
7.04837e-11
7.1742e-11
-2.0054e-10
6.3628e-13
-2.25308e-12
1.5573e-12
-3.65249e-12
2.30822e-12
-3.46104e-12
2.76456e-12
-2.73433e-12
2.9805e-12
-2.06816e-12
3.08487e-12
-1.70576e-12
3.23069e-12
-1.71894e-12
3.57668e-12
-2.11907e-12
4.28233e-12
-2.9049e-12
5.50543e-12
-4.07176e-12
7.39715e-12
-5.60488e-12
1.00941e-11
-7.4707e-12
1.37087e-11
-9.6119e-12
1.83201e-11
-1.19474e-11
2.39661e-11
-1.43773e-11
3.06395e-11
-1.67912e-11
3.82875e-11
-1.90801e-11
4.68171e-11
-2.11488e-11
5.61054e-11
-2.29274e-11
6.60131e-11
-2.43804e-11
7.64012e-11
-2.55096e-11
8.71445e-11
-2.63501e-11
9.81412e-11
-2.6958e-11
1.09314e-10
-2.73913e-11
1.20605e-10
-2.76855e-11
1.31954e-10
-2.78278e-11
1.43273e-10
-2.77318e-11
1.54407e-10
-2.7222e-11
1.6509e-10
-2.60362e-11
1.74925e-10
-2.38739e-11
1.83402e-10
-2.04861e-11
1.89964e-10
-1.57779e-11
1.941e-10
-9.84215e-12
1.95398e-10
-2.89961e-12
1.9355e-10
4.81012e-12
1.88322e-10
1.30986e-11
1.79523e-10
2.18435e-11
1.66989e-10
3.09662e-11
1.50577e-10
4.03992e-11
1.30181e-10
5.00592e-11
1.05745e-10
5.98321e-11
7.72748e-11
6.95686e-11
4.48587e-11
7.90878e-11
8.67032e-12
8.81847e-11
-3.1022e-11
9.66393e-11
-7.38546e-11
1.04227e-10
-1.19373e-10
1.10729e-10
-1.67037e-10
1.15939e-10
-2.16229e-10
1.19673e-10
1.2178e-10
-2.6627e-10
5.55773e-13
-2.80836e-12
1.22754e-12
-4.32413e-12
1.59172e-12
-3.82573e-12
1.56004e-12
-2.70367e-12
1.22502e-12
-1.73443e-12
7.55727e-13
-1.23774e-12
3.46939e-13
-1.31118e-12
2.00616e-13
-1.97344e-12
5.20576e-13
-3.2253e-12
1.50882e-12
-5.06039e-12
3.35892e-12
-7.45548e-12
6.24593e-12
-1.03584e-11
1.03143e-11
-1.36809e-11
1.56658e-11
-1.72993e-11
2.23494e-11
-2.10607e-11
3.03549e-11
-2.4796e-11
3.96121e-11
-2.83362e-11
4.99964e-11
-3.15321e-11
6.13418e-11
-3.42722e-11
7.34593e-11
-3.64976e-11
8.61589e-11
-3.82087e-11
9.927e-11
-3.94602e-11
1.12656e-10
-4.03431e-11
1.26222e-10
-4.09559e-11
1.39906e-10
-4.13688e-11
1.53662e-10
-4.15841e-11
1.67424e-10
-4.14948e-11
1.81053e-10
-4.08508e-11
1.94262e-10
-3.92444e-11
2.06569e-10
-3.61783e-11
2.17305e-10
-3.12202e-11
2.25733e-10
-2.42046e-11
2.31193e-10
-1.53012e-11
2.33191e-10
-4.89704e-12
2.31383e-10
6.61784e-12
2.25516e-10
1.89658e-11
2.1537e-10
3.19895e-11
2.00737e-10
4.55984e-11
1.81426e-10
5.97093e-11
1.57282e-10
7.42021e-11
1.28212e-10
8.8901e-11
9.42087e-11
1.03572e-10
5.5366e-11
1.17931e-10
1.18919e-11
1.3166e-10
-3.58862e-11
1.44417e-10
-8.75207e-11
1.55861e-10
-1.42448e-10
1.65656e-10
-2e-10
1.73489e-10
-2.59414e-10
1.79084e-10
1.82212e-10
-3.19847e-10
4.50307e-13
-3.25862e-12
7.96079e-13
-4.66959e-12
6.54599e-13
-3.68473e-12
-1.88662e-14
-2.03147e-12
-1.08478e-12
-6.70105e-13
-2.32638e-12
2.43332e-15
-3.50015e-12
-1.38363e-13
-4.35425e-12
-1.11989e-12
-4.6342e-12
-2.94583e-12
-4.08752e-12
-5.60779e-12
-2.47209e-12
-9.072e-12
4.31483e-13
-1.32632e-11
4.80483e-12
-1.80555e-11
1.07764e-11
-2.32718e-11
1.8408e-11
-2.86927e-11
2.76857e-11
-3.40737e-11
3.85174e-11
-3.91678e-11
5.07385e-11
-4.37532e-11
6.41277e-11
-4.76615e-11
7.84314e-11
-5.08012e-11
9.33936e-11
-5.31705e-11
1.08787e-10
-5.48523e-11
1.24434e-10
-5.59891e-11
1.40221e-10
-5.67419e-11
1.56095e-10
-5.72418e-11
1.72046e-10
-5.75349e-11
1.88069e-10
-5.75177e-11
2.04093e-10
-5.68737e-11
2.19854e-10
-5.50044e-11
2.34792e-10
-5.1114e-11
2.48035e-10
-4.44621e-11
2.58597e-10
-3.47664e-11
2.65635e-10
-2.23392e-11
2.68593e-10
-7.85594e-12
2.67141e-10
8.07031e-12
2.61041e-10
2.50659e-11
2.50062e-10
4.29689e-11
2.33949e-10
6.17108e-11
2.12446e-10
8.12116e-11
1.85333e-10
1.01315e-10
1.52463e-10
1.2177e-10
1.13801e-10
1.42234e-10
6.94389e-11
1.62293e-10
1.96134e-11
1.81485e-10
-3.52928e-11
1.99323e-10
-9.47511e-11
2.15318e-10
-1.58093e-10
2.28997e-10
-2.24524e-10
2.39919e-10
-2.93137e-10
2.47696e-10
2.52007e-10
-3.62933e-10
3.11336e-13
-3.56991e-12
2.37555e-13
-4.59558e-12
-5.56527e-13
-2.89127e-12
-2.06136e-12
-5.28018e-13
-4.08127e-12
1.34818e-12
-6.34227e-12
2.26211e-12
-8.5432e-12
2.06169e-12
-1.03737e-11
7.09958e-13
-1.15202e-11
-1.80027e-12
-1.1671e-11
-5.45819e-12
-1.05271e-11
-1.02175e-11
-7.81643e-12
-1.59757e-11
-3.31222e-12
-2.25614e-11
3.14746e-12
-2.97329e-11
1.16419e-11
-3.71883e-11
2.21544e-11
-4.45871e-11
3.45665e-11
-5.15807e-11
4.8664e-11
-5.78512e-11
6.41545e-11
-6.31523e-11
8.06998e-11
-6.73466e-11
9.79582e-11
-7.04286e-11
1.15628e-10
-7.25217e-11
1.33483e-10
-7.38423e-11
1.51386e-10
-7.46435e-11
1.69297e-10
-7.51521e-11
1.87264e-10
-7.55009e-11
2.05386e-10
-7.56387e-11
2.23737e-10
-7.52239e-11
2.42152e-10
-7.34189e-11
2.60011e-10
-6.89724e-11
2.76154e-10
-6.06055e-11
2.89223e-10
-4.78357e-11
2.9813e-10
-3.12467e-11
3.02306e-10
-1.20323e-11
3.01512e-10
8.86432e-12
2.95587e-10
3.09927e-11
2.84297e-10
5.42599e-11
2.67326e-10
7.86824e-11
2.44323e-10
1.04215e-10
2.14972e-10
1.30666e-10
1.79053e-10
1.57688e-10
1.36487e-10
1.84799e-10
8.73572e-11
2.11421e-10
3.19228e-11
2.36918e-10
-2.93787e-11
2.60625e-10
-9.59372e-11
2.81878e-10
-1.66979e-10
3.00039e-10
-2.41581e-10
3.14522e-10
-3.18691e-10
3.24805e-10
3.30465e-10
-3.97151e-10
1.3178e-13
-3.70153e-12
-4.82342e-13
-3.98146e-12
-2.10746e-12
-1.26694e-12
-4.67018e-12
2.03337e-12
-7.90783e-12
4.58443e-12
-1.1479e-11
5.83208e-12
-1.50149e-11
5.59666e-12
-1.81373e-11
3.83124e-12
-2.04636e-11
5.24604e-13
-2.16134e-11
-4.31013e-12
-2.122e-11
-1.06128e-11
-1.89477e-11
-1.825e-11
-1.45139e-11
-2.69971e-11
-7.71308e-12
-3.65355e-11
1.55959e-12
-4.64626e-11
1.32887e-11
-5.63174e-11
2.73276e-11
-6.56204e-11
4.34013e-11
-7.39255e-11
6.1128e-11
-8.08796e-11
8.00601e-11
-8.62793e-11
9.9744e-11
-9.01128e-11
1.19784e-10
-9.25612e-11
1.39888e-10
-9.39456e-11
1.5989e-10
-9.46443e-11
1.79758e-10
-9.50187e-11
1.99601e-10
-9.53428e-11
2.1966e-10
-9.56977e-11
2.40272e-10
-9.58357e-11
2.61502e-10
-9.46487e-11
2.82723e-10
-9.01934e-11
3.02337e-10
-8.02206e-11
3.18392e-10
-6.38925e-11
3.2946e-10
-4.23149e-11
3.35069e-10
-1.76405e-11
3.3522e-10
8.71505e-12
3.29899e-10
3.63158e-11
3.18871e-10
6.52891e-11
3.01715e-10
9.58394e-11
2.77934e-10
1.27997e-10
2.47074e-10
1.61525e-10
2.08816e-10
1.95944e-10
1.6302e-10
2.30593e-10
1.09753e-10
2.64686e-10
4.92987e-11
2.97372e-10
-1.78505e-11
3.27775e-10
-9.0999e-11
3.55028e-10
-1.69263e-10
3.78305e-10
-2.51589e-10
3.96847e-10
-3.3677e-10
4.09986e-10
4.17177e-10
-4.23483e-10
-1.11224e-13
-3.59013e-12
-1.39008e-12
-2.70277e-12
-4.04357e-12
1.3858e-12
-7.91438e-12
5.9031e-12
-1.26595e-11
9.32842e-12
-1.78592e-11
1.10307e-11
-2.30675e-11
1.08038e-11
-2.78285e-11
8.59072e-12
-3.1681e-11
4.37534e-12
-3.4165e-11
-1.82801e-12
-3.48345e-11
-9.94524e-12
-3.32771e-11
-1.98094e-11
-2.91398e-11
-3.11364e-11
-2.21591e-11
-4.3518e-11
-1.21925e-11
-5.64307e-11
7.54462e-13
-6.92652e-11
1.65079e-11
-8.13743e-11
3.47235e-11
-9.21416e-11
5.49086e-11
-1.01066e-10
7.64752e-11
-1.07847e-10
9.88246e-11
-1.12463e-10
1.21443e-10
-1.1518e-10
1.43963e-10
-1.16464e-10
1.66174e-10
-1.16855e-10
1.88032e-10
-1.16876e-10
2.0968e-10
-1.16991e-10
2.31503e-10
-1.17521e-10
2.54256e-10
-1.18589e-10
2.78479e-10
-1.18872e-10
3.03662e-10
-1.15377e-10
3.27525e-10
-1.04085e-10
3.47145e-10
-8.35126e-11
3.60584e-10
-5.57536e-11
3.67736e-10
-2.47913e-11
3.69095e-10
7.3587e-12
3.64875e-10
4.05373e-11
3.54792e-10
7.53732e-11
3.38231e-10
1.12401e-10
3.14468e-10
1.5176e-10
2.82859e-10
1.93132e-10
2.42953e-10
2.35849e-10
1.94538e-10
2.79006e-10
1.37665e-10
3.21558e-10
7.26444e-11
3.62394e-10
3.07122e-14
4.00391e-10
-7.93888e-11
4.3445e-10
-1.64614e-10
4.63531e-10
-2.5445e-10
4.86682e-10
-3.47533e-10
5.03068e-10
5.12004e-10
-4.4236e-10
-3.93256e-13
-3.19678e-12
-2.49024e-12
-6.0588e-13
-6.38175e-12
5.27682e-12
-1.18199e-11
1.13406e-11
-1.83716e-11
1.58793e-11
-2.55291e-11
1.81873e-11
-3.27602e-11
1.80336e-11
-3.95228e-11
1.53516e-11
-4.52679e-11
1.01187e-11
-4.94455e-11
2.34776e-12
-5.15174e-11
-7.87516e-12
-5.09793e-11
-2.03492e-11
-4.73906e-11
-3.47269e-11
-4.04112e-11
-5.04988e-11
-2.9842e-11
-6.70007e-11
-1.56647e-11
-8.34426e-11
1.92655e-12
-9.89657e-11
2.25127e-11
-1.12728e-10
4.54677e-11
-1.24022e-10
7.0023e-11
-1.32404e-10
9.53922e-11
-1.37833e-10
1.2092e-10
-1.40708e-10
1.46166e-10
-1.4171e-10
1.70874e-10
-1.41563e-10
1.94946e-10
-1.40947e-10
2.18474e-10
-1.40519e-10
2.41885e-10
-1.40932e-10
2.66523e-10
-1.43226e-10
2.93838e-10
-1.46187e-10
3.2373e-10
-1.4527e-10
3.52827e-10
-1.33183e-10
3.76627e-10
-1.07312e-10
3.92399e-10
-7.15244e-11
4.01029e-10
-3.34202e-11
4.03879e-10
4.50971e-12
4.01424e-10
4.29934e-11
3.93173e-10
8.36252e-11
3.78163e-10
1.27411e-10
3.5533e-10
1.74593e-10
3.23782e-10
2.2468e-10
2.8291e-10
2.7672e-10
2.32431e-10
3.29485e-10
1.72385e-10
3.81605e-10
1.03119e-10
4.31662e-10
2.52661e-11
4.78247e-10
-6.02882e-11
5.20005e-10
-1.52418e-10
5.5566e-10
-2.49781e-10
5.84045e-10
-3.50846e-10
6.04132e-10
6.15075e-10
-4.53918e-10
-7.39584e-13
-2.45712e-12
-3.78559e-12
2.44029e-12
-9.11681e-12
1.0608e-11
-1.6376e-11
1.85996e-11
-2.5028e-11
2.4531e-11
-3.44685e-11
2.76271e-11
-4.4072e-11
2.76359e-11
-5.32033e-11
2.44813e-11
-6.12178e-11
1.81316e-11
-6.74658e-11
8.59415e-12
-7.13042e-11
-4.03833e-12
-7.21207e-11
-1.95342e-11
-6.9367e-11
-3.74818e-11
-6.26027e-11
-5.72638e-11
-5.15476e-11
-7.8056e-11
-3.61364e-11
-9.88539e-11
-1.65675e-11
-1.18535e-10
6.66569e-12
-1.35962e-10
3.27808e-11
-1.50138e-10
6.07748e-11
-1.60399e-10
8.96122e-11
-1.66672e-10
1.1848e-10
-1.69578e-10
1.46903e-10
-1.70133e-10
1.74619e-10
-1.6928e-10
2.01449e-10
-1.67778e-10
2.27248e-10
-1.66317e-10
2.52115e-10
-1.65798e-10
2.78231e-10
-1.69342e-10
3.08423e-10
-1.76379e-10
3.43854e-10
-1.807e-10
3.79241e-10
-1.6857e-10
4.07691e-10
-1.3576e-10
4.25264e-10
-8.90964e-11
4.3511e-10
-4.32655e-11
4.39936e-10
-3.17026e-13
4.40288e-10
4.26416e-11
4.35108e-10
8.88055e-11
4.22864e-10
1.39656e-10
4.02022e-10
1.95435e-10
3.714e-10
2.55302e-10
3.30235e-10
3.17885e-10
2.78181e-10
3.8154e-10
2.15287e-10
4.445e-10
1.41964e-10
5.04987e-10
5.89363e-11
5.61277e-10
-3.27959e-11
6.11737e-10
-1.31976e-10
6.54839e-10
-2.37109e-10
6.89178e-10
-3.46486e-10
7.13508e-10
7.26793e-10
-4.58206e-10
-1.13811e-12
-1.31881e-12
-5.26364e-12
6.56626e-12
-1.22242e-11
1.75688e-11
-2.15417e-11
2.79173e-11
-3.25702e-11
3.55597e-11
-4.4603e-11
3.96597e-11
-5.69164e-11
3.99486e-11
-6.87775e-11
3.63413e-11
-7.94411e-11
2.87937e-11
-8.81496e-11
1.73012e-11
-9.41435e-11
1.95456e-12
-9.66864e-11
-1.69922e-11
-9.51004e-11
-3.90682e-11
-8.88181e-11
-6.35463e-11
-7.74463e-11
-8.94279e-11
-6.0839e-11
-1.15461e-10
-3.91711e-11
-1.40203e-10
-1.29975e-11
-1.62136e-10
1.67231e-11
-1.79859e-10
4.86738e-11
-1.92351e-10
8.14694e-11
-1.99469e-10
1.14126e-10
-2.02235e-10
1.46252e-10
-2.0226e-10
1.77716e-10
-2.00745e-10
2.08329e-10
-1.98391e-10
2.37534e-10
-1.95521e-10
2.63923e-10
-1.92185e-10
2.90866e-10
-1.96286e-10
3.23716e-10
-2.09229e-10
3.64695e-10
-2.21678e-10
4.0705e-10
-2.10924e-10
4.39984e-10
-1.68694e-10
4.58174e-10
-1.07286e-10
4.68962e-10
-5.40547e-11
4.77052e-10
-8.40776e-12
4.8203e-10
3.76637e-11
4.8168e-10
8.91565e-11
4.73719e-10
1.47617e-10
4.56078e-10
2.13077e-10
4.27292e-10
2.84088e-10
3.86473e-10
3.58704e-10
3.33251e-10
4.34764e-10
2.6772e-10
5.10033e-10
1.90383e-10
5.82324e-10
1.02086e-10
6.49573e-10
3.95932e-12
7.09864e-10
-1.0261e-10
7.61408e-10
-2.15977e-10
8.02544e-10
-3.34245e-10
8.31776e-10
8.4784e-10
-4.55291e-10
-1.58473e-12
2.66273e-13
-6.90549e-12
1.18876e-11
-1.56638e-11
2.63277e-11
-2.72508e-11
3.9505e-11
-4.09041e-11
4.92137e-11
-5.58111e-11
5.45672e-11
-7.11489e-11
5.5286e-11
-8.60857e-11
5.12772e-11
-9.97727e-11
4.24797e-11
-1.1134e-10
2.88676e-11
-1.19903e-10
1.05173e-11
-1.24586e-10
-1.23091e-11
-1.24561e-10
-3.90934e-11
-1.19103e-10
-6.90045e-11
-1.07668e-10
-1.00863e-10
-8.99873e-11
-1.33142e-10
-6.61677e-11
-1.64022e-10
-3.67913e-11
-1.91512e-10
-2.99709e-12
-2.13653e-10
3.34602e-11
-2.28808e-10
7.06529e-11
-2.36662e-10
1.07399e-10
-2.38982e-10
1.43635e-10
-2.38496e-10
1.7966e-10
-2.3677e-10
2.15587e-10
-2.34317e-10
2.50896e-10
-2.3083e-10
2.8074e-10
-2.22029e-10
3.06454e-10
-2.21999e-10
3.41081e-10
-2.43854e-10
3.86278e-10
-2.66874e-10
4.34178e-10
-2.58824e-10
4.70689e-10
-2.05205e-10
4.86808e-10
-1.23406e-10
4.99635e-10
-6.68821e-11
5.14665e-10
-2.34374e-11
5.27419e-10
2.49101e-11
5.34186e-10
8.23892e-11
5.32219e-10
1.49584e-10
5.19047e-10
2.2625e-10
4.93001e-10
3.10135e-10
4.53112e-10
3.98594e-10
3.99023e-10
4.88853e-10
3.30929e-10
5.78127e-10
2.49476e-10
6.63776e-10
1.55665e-10
7.43384e-10
5.07682e-11
8.14762e-10
-6.37043e-11
8.7588e-10
-1.8597e-10
9.24809e-10
-3.13948e-10
9.59754e-10
9.79168e-10
-4.45274e-10
-2.07305e-12
2.33969e-12
-8.68544e-12
1.85004e-11
-1.93811e-11
3.70241e-11
-3.34133e-11
5.35385e-11
-4.99006e-11
6.57025e-11
-6.79256e-11
7.25931e-11
-8.65677e-11
7.39282e-11
-1.04899e-10
6.96078e-11
-1.21968e-10
5.95489e-11
-1.36793e-10
4.36922e-11
-1.48358e-10
2.20834e-11
-1.55638e-10
-5.02842e-12
-1.57635e-10
-3.7097e-11
-1.53437e-10
-7.32031e-11
-1.4231e-10
-1.1199e-10
-1.23811e-10
-1.51641e-10
-9.79191e-11
-1.89914e-10
-6.51738e-11
-2.24256e-10
-2.68457e-11
-2.51981e-10
1.46837e-11
-2.70338e-10
5.65408e-11
-2.7852e-10
9.72387e-11
-2.7968e-10
1.37505e-10
-2.78762e-10
1.78577e-10
-2.77842e-10
2.21299e-10
-2.77039e-10
2.66563e-10
-2.76095e-10
3.0848e-10
-2.63946e-10
3.34105e-10
-2.47622e-10
3.69052e-10
-2.788e-10
4.10787e-10
-3.08609e-10
4.47917e-10
-2.95956e-10
4.89928e-10
-2.47217e-10
4.99539e-10
-1.33017e-10
5.23881e-10
-9.12233e-11
5.53737e-10
-5.32926e-11
5.78478e-10
1.69495e-13
5.9434e-10
6.65268e-11
5.99971e-10
1.43951e-10
5.92503e-10
2.33718e-10
5.70023e-10
3.32616e-10
5.3154e-10
4.37075e-10
4.76762e-10
5.4363e-10
4.0603e-10
6.48859e-10
3.20209e-10
7.49598e-10
2.20503e-10
8.43089e-10
1.08334e-10
9.26931e-10
-1.46904e-11
9.98905e-10
-1.46687e-10
1.05681e-09
-2.85411e-10
1.09848e-09
1.122e-09
-4.28243e-10
-2.59441e-12
4.93434e-12
-1.05704e-11
2.6477e-11
-2.33063e-11
4.97612e-11
-3.99143e-11
7.01484e-11
-5.93954e-11
8.51855e-11
-8.07311e-11
9.393e-11
-1.0291e-10
9.6107e-11
-1.24913e-10
9.16114e-11
-1.45695e-10
8.03314e-11
-1.64163e-10
6.21608e-11
-1.79171e-10
3.70935e-11
-1.89539e-10
5.34027e-12
-1.94082e-10
-3.25541e-11
-1.91678e-10
-7.56074e-11
-1.81366e-10
-1.22302e-10
-1.62479e-10
-1.70526e-10
-1.34797e-10
-2.17594e-10
-9.86948e-11
-2.60358e-10
-5.54001e-11
-2.95275e-10
-8.16864e-12
-3.1757e-10
3.83547e-11
-3.25043e-10
8.20589e-11
-3.23383e-10
1.2527e-10
-3.21972e-10
1.70816e-10
-3.23389e-10
2.20255e-10
-3.26479e-10
2.75822e-10
-3.31662e-10
3.38417e-10
-3.26539e-10
3.86198e-10
-2.95403e-10
4.07647e-10
-3.00248e-10
4.31058e-10
-3.32021e-10
4.59148e-10
-3.24047e-10
4.67615e-10
-2.55684e-10
4.89519e-10
-1.54919e-10
5.51745e-10
-1.53449e-10
6.01539e-10
-1.03087e-10
6.38353e-10
-3.66444e-11
6.63642e-10
4.12384e-11
6.78558e-10
1.29035e-10
6.77959e-10
2.34317e-10
6.59794e-10
3.5078e-10
6.23079e-10
4.73789e-10
5.67605e-10
5.99103e-10
4.93979e-10
7.22485e-10
4.03386e-10
8.40193e-10
2.97304e-10
9.4917e-10
1.773e-10
1.04693e-09
4.5009e-11
1.1312e-09
-9.76688e-11
1.19948e-09
-2.48371e-10
1.24918e-09
1.27783e-09
-4.04203e-10
-3.13769e-12
8.07216e-12
-1.25195e-11
3.58598e-11
-2.7354e-11
6.45976e-11
-4.66133e-11
8.94102e-11
-6.91859e-11
1.0776e-10
-9.39609e-11
1.18706e-10
-1.19845e-10
1.21992e-10
-1.45742e-10
1.17509e-10
-1.7052e-10
1.05111e-10
-1.92983e-10
8.46268e-11
-2.11864e-10
5.59764e-11
-2.25824e-10
1.93006e-11
-2.33484e-10
-2.48948e-11
-2.33488e-10
-7.56022e-11
-2.24617e-10
-1.31172e-10
-2.0595e-10
-1.89192e-10
-1.77032e-10
-2.4651e-10
-1.37889e-10
-2.99501e-10
-8.92433e-11
-3.43921e-10
-3.55095e-11
-3.71302e-10
1.54293e-11
-3.7598e-10
6.02506e-11
-3.68204e-10
1.04091e-10
-3.65813e-10
1.52082e-10
-3.71381e-10
2.05994e-10
-3.80391e-10
2.6729e-10
-3.92956e-10
3.31624e-10
-3.90872e-10
4.15062e-10
-3.7884e-10
4.77705e-10
-3.62893e-10
4.24639e-10
-2.78957e-10
3.62528e-10
-2.61935e-10
3.90624e-10
-2.83779e-10
5.20662e-10
-2.84956e-10
5.88123e-10
-2.20909e-10
6.58241e-10
-1.73205e-10
7.03023e-10
-8.14262e-11
7.43083e-10
1.17863e-12
7.69688e-10
1.0243e-10
7.7689e-10
2.27113e-10
7.6375e-10
3.63918e-10
7.28997e-10
5.08543e-10
6.72581e-10
6.55521e-10
5.95558e-10
7.99509e-10
4.99628e-10
9.36124e-10
3.86648e-10
1.06215e-09
2.58287e-10
1.17529e-09
1.16048e-10
1.27344e-09
-3.83114e-11
1.35384e-09
-2.02388e-10
1.41326e-09
1.44844e-09
-3.72997e-10
-3.68904e-12
1.17615e-11
-1.44832e-11
4.66558e-11
-3.1422e-11
8.15391e-11
-5.33427e-11
1.11334e-10
-7.90307e-11
1.3345e-10
-1.07295e-10
1.46971e-10
-1.36975e-10
1.51673e-10
-1.66912e-10
1.47447e-10
-1.95901e-10
1.34102e-10
-2.2266e-10
1.11388e-10
-2.45804e-10
7.91217e-11
-2.63841e-10
3.73386e-11
-2.75196e-10
-1.35402e-11
-2.78262e-10
-7.25345e-11
-2.71517e-10
-1.37916e-10
-2.5374e-10
-2.06968e-10
-2.24356e-10
-2.75894e-10
-1.83105e-10
-3.40752e-10
-1.28921e-10
-3.98104e-10
-6.74576e-11
-4.32764e-10
-1.34466e-11
-4.29989e-10
3.07817e-11
-4.12432e-10
7.26983e-11
-4.0773e-10
1.21207e-10
-4.19889e-10
1.79353e-10
-4.38536e-10
2.44423e-10
-4.58025e-10
3.19583e-10
-4.66031e-10
4.16546e-10
-4.75803e-10
4.33117e-10
-3.79464e-10
4.3209e-10
-2.7793e-10
4.30129e-10
-2.59973e-10
4.38472e-10
-2.92121e-10
5.45192e-10
-3.91677e-10
6.42567e-10
-3.18285e-10
7.07556e-10
-2.38193e-10
7.82108e-10
-1.55978e-10
8.40382e-10
-5.70954e-11
8.7641e-10
6.64005e-11
8.91752e-10
2.1177e-10
8.83713e-10
3.71956e-10
8.50568e-10
5.41691e-10
7.92526e-10
7.13565e-10
7.113e-10
8.80736e-10
6.0933e-10
1.03809e-09
4.88991e-10
1.18249e-09
3.51963e-10
1.31232e-09
1.99285e-10
1.42611e-09
3.22856e-11
1.52084e-09
-1.46719e-10
1.59226e-09
1.63594e-09
-3.34217e-10
-4.23202e-12
1.59943e-11
-1.64041e-11
5.88306e-11
-3.5392e-11
1.0053e-10
-5.99083e-11
1.35852e-10
-8.86491e-11
1.62192e-10
-1.2036e-10
1.78683e-10
-1.53834e-10
1.85147e-10
-1.87863e-10
1.81478e-10
-2.21193e-10
1.67434e-10
-2.52469e-10
1.42665e-10
-2.802e-10
1.06854e-10
-3.02751e-10
5.98898e-11
-3.18346e-10
2.05692e-12
-3.25119e-10
-6.57602e-11
-3.2118e-10
-1.41853e-10
-3.04801e-10
-2.23347e-10
-2.75165e-10
-3.05529e-10
-2.33421e-10
-3.82495e-10
-1.74424e-10
-4.571e-10
-1.04942e-10
-5.02244e-10
-5.00754e-11
-4.84855e-10
-1.23885e-11
-4.50118e-10
2.71481e-11
-4.47266e-10
7.65447e-11
-4.69284e-10
1.35388e-10
-4.97378e-10
1.95216e-10
-5.17852e-10
2.57355e-10
-5.2817e-10
3.0209e-10
-5.20539e-10
3.78703e-10
-4.56076e-10
4.7018e-10
-3.69405e-10
5.56734e-10
-3.46527e-10
6.52023e-10
-3.87411e-10
6.91704e-10
-4.31359e-10
7.67889e-10
-3.94468e-10
8.46665e-10
-3.16967e-10
9.14948e-10
-2.24261e-10
9.65749e-10
-1.07898e-10
1.00396e-09
2.8192e-11
1.02491e-09
1.90821e-10
1.02086e-09
3.76007e-10
9.88432e-10
5.74118e-10
9.27706e-10
7.74293e-10
8.41241e-10
9.67201e-10
7.3253e-10
1.1468e-09
6.04668e-10
1.31035e-09
4.59166e-10
1.45782e-09
2.95988e-10
1.58929e-09
1.15528e-10
1.7013e-09
-8.01515e-11
1.78794e-09
1.84288e-09
-2.8709e-10
-4.74783e-12
2.07436e-11
-1.82169e-11
7.23029e-11
-3.91302e-11
1.21446e-10
-6.60906e-11
1.62814e-10
-9.77244e-11
1.93827e-10
-1.32736e-10
2.13695e-10
-1.6989e-10
2.22303e-10
-2.0796e-10
2.1955e-10
-2.45659e-10
2.05134e-10
-2.81576e-10
1.78583e-10
-3.14133e-10
1.39411e-10
-3.41555e-10
8.73128e-11
-3.61875e-10
2.23784e-11
-3.72963e-10
-5.46707e-11
-3.72575e-10
-1.4224e-10
-3.58289e-10
-2.37632e-10
-3.27404e-10
-3.36413e-10
-2.81491e-10
-4.28406e-10
-2.21362e-10
-5.17227e-10
-1.46772e-10
-5.76832e-10
-9.33711e-11
-5.38255e-10
-6.65969e-11
-4.76891e-10
-3.46918e-11
-4.79168e-10
3.13796e-11
-5.35353e-10
8.91056e-11
-5.55103e-10
1.45575e-10
-5.74321e-10
2.05744e-10
-5.88339e-10
2.65431e-10
-5.80225e-10
3.54387e-10
-5.45031e-10
4.83455e-10
-4.98474e-10
6.20014e-10
-4.83087e-10
7.3397e-10
-5.01367e-10
8.15949e-10
-5.13338e-10
8.94324e-10
-4.72843e-10
9.70588e-10
-3.93231e-10
1.04269e-09
-2.96362e-10
1.09508e-09
-1.60288e-10
1.14201e-09
-1.87339e-11
1.17149e-09
1.61337e-10
1.17308e-09
3.74415e-10
1.14148e-09
6.0572e-10
1.07727e-09
8.38501e-10
9.84663e-10
1.05981e-09
8.68809e-10
1.26266e-09
7.33959e-10
1.4452e-09
5.81186e-10
1.6106e-09
4.08209e-10
1.76227e-09
2.13677e-10
1.89583e-09
-7.48383e-13
2.00237e-09
2.07247e-09
-2.30341e-10
-5.21568e-12
2.59611e-11
-1.98495e-11
8.69395e-11
-4.24888e-11
1.44087e-10
-7.16481e-11
1.91974e-10
-1.05907e-10
2.28087e-10
-1.43955e-10
2.51744e-10
-1.84559e-10
2.62908e-10
-2.26498e-10
2.61491e-10
-2.68482e-10
2.47119e-10
-3.09068e-10
2.1917e-10
-3.46602e-10
1.76945e-10
-3.79171e-10
1.19884e-10
-4.04613e-10
4.78214e-11
-4.20557e-10
-3.87248e-11
-4.24565e-10
-1.38231e-10
-4.14211e-10
-2.47984e-10
-3.86432e-10
-3.64191e-10
-3.33774e-10
-4.81063e-10
-2.68281e-10
-5.82718e-10
-1.67524e-10
-6.77589e-10
-2.09511e-10
-4.96266e-10
-1.64868e-10
-5.21531e-10
-5.95892e-11
-5.84445e-10
1.16634e-12
-5.96107e-10
5.02523e-11
-6.04189e-10
9.78229e-11
-6.21891e-10
1.55685e-10
-6.46201e-10
2.36146e-10
-6.60684e-10
3.47594e-10
-6.56479e-10
4.92315e-10
-6.43196e-10
6.45993e-10
-6.36765e-10
7.87683e-10
-6.43057e-10
9.01027e-10
-6.26681e-10
1.00346e-09
-5.75275e-10
1.09063e-09
-4.804e-10
1.15604e-09
-3.61773e-10
1.22058e-09
-2.24826e-10
1.28292e-09
-8.10755e-11
1.32775e-09
1.16511e-10
1.33804e-09
3.64121e-10
1.30779e-09
6.35977e-10
1.2395e-09
9.0679e-10
1.14018e-09
1.15914e-09
1.01741e-09
1.38542e-09
8.77368e-10
1.58524e-09
7.20307e-10
1.76766e-09
5.39429e-10
1.94314e-09
3.30384e-10
2.10488e-09
9.44804e-11
2.23827e-09
2.32901e-09
-1.62056e-10
-5.61317e-12
3.15759e-11
-2.12244e-11
1.02553e-10
-4.53094e-11
1.68173e-10
-7.63212e-11
2.22987e-10
-1.12822e-10
2.64588e-10
-1.53516e-10
2.92438e-10
-1.97205e-10
3.06598e-10
-2.42713e-10
3.06999e-10
-2.88783e-10
2.93189e-10
-3.33976e-10
2.64364e-10
-3.76573e-10
2.19543e-10
-4.14492e-10
1.57804e-10
-4.45238e-10
7.85684e-11
-4.65903e-10
-1.80589e-11
-4.7324e-10
-1.30893e-10
-4.64167e-10
-2.57055e-10
-4.35302e-10
-3.93054e-10
-3.79233e-10
-5.37131e-10
-2.74536e-10
-6.87414e-10
-1.91759e-10
-7.60365e-10
-1.03355e-10
-5.84667e-10
-3.6263e-11
-5.88621e-10
-1.31364e-11
-6.0757e-10
3.33217e-12
-6.12576e-10
2.01335e-11
-6.2099e-10
5.02861e-11
-6.52043e-10
1.09856e-10
-7.05769e-10
2.04161e-10
-7.54989e-10
3.35107e-10
-7.87426e-10
4.96481e-10
-8.04569e-10
6.63938e-10
-8.04222e-10
8.26572e-10
-8.0569e-10
9.72015e-10
-7.72124e-10
1.09785e-09
-7.01112e-10
1.20382e-09
-5.8637e-10
1.28288e-09
-4.40828e-10
1.3451e-09
-2.87047e-10
1.4256e-09
-1.61572e-10
1.49223e-09
4.98765e-11
1.51322e-09
3.43133e-10
1.48441e-09
6.64789e-10
1.41192e-09
9.79283e-10
1.30621e-09
1.26484e-09
1.1778e-09
1.51383e-09
1.0363e-09
1.72675e-09
8.80892e-10
1.92306e-09
6.9559e-10
2.12844e-09
4.71364e-10
2.3291e-09
2.09848e-10
2.49979e-09
2.61856e-09
-7.97067e-11
-5.91689e-12
3.7494e-11
-2.22608e-11
1.18897e-10
-4.7427e-11
1.93339e-10
-7.98388e-11
2.55398e-10
-1.18073e-10
3.02823e-10
-1.60883e-10
3.35248e-10
-2.07146e-10
3.52861e-10
-2.55777e-10
3.55632e-10
-3.05616e-10
3.43028e-10
-3.55298e-10
3.14047e-10
-4.03115e-10
2.67361e-10
-4.46857e-10
2.01546e-10
-4.83624e-10
1.15336e-10
-5.09668e-10
7.98644e-12
-5.20246e-10
-1.20313e-10
-5.08929e-10
-2.6837e-10
-4.70257e-10
-4.31726e-10
-4.04527e-10
-6.02861e-10
-2.52008e-10
-8.39932e-10
-1.27869e-10
-8.84502e-10
-8.36906e-11
-6.28842e-10
-5.83129e-11
-6.13997e-10
-3.00842e-11
-6.35799e-10
-3.57746e-11
-6.06886e-10
-4.46544e-11
-6.12109e-10
-2.41691e-11
-6.72527e-10
3.95598e-11
-7.69498e-10
1.52669e-10
-8.68099e-10
3.06389e-10
-9.41146e-10
4.91007e-10
-9.89186e-10
6.73318e-10
-9.86531e-10
8.57232e-10
-9.89604e-10
1.03077e-09
-9.4566e-10
1.18393e-09
-8.5427e-10
1.31508e-09
-7.17523e-10
1.39995e-09
-5.25699e-10
1.45661e-09
-3.43701e-10
1.56338e-09
-2.6835e-10
1.65944e-09
-4.61843e-11
1.69156e-09
3.11016e-10
1.66541e-09
6.90937e-10
1.59125e-09
1.05345e-09
1.48201e-09
1.37408e-09
1.35093e-09
1.64491e-09
1.21449e-09
1.86318e-09
1.07125e-09
2.0663e-09
8.86528e-10
2.31317e-09
6.4499e-10
2.57064e-09
3.50936e-10
2.79384e-09
2.95008e-09
1.94149e-11
-6.10338e-12
4.35977e-11
-2.28782e-11
1.35672e-10
-4.86768e-11
2.19138e-10
-8.19274e-11
2.88649e-10
-1.21254e-10
3.4215e-10
-1.65494e-10
3.79487e-10
-2.13643e-10
4.01011e-10
-2.64768e-10
4.06758e-10
-3.17891e-10
3.96152e-10
-3.71849e-10
3.68006e-10
-4.25136e-10
3.20648e-10
-4.75673e-10
2.52083e-10
-5.20507e-10
1.60171e-10
-5.55388e-10
4.28697e-11
-5.74407e-10
-1.01293e-10
-5.70553e-10
-2.72224e-10
-5.33382e-10
-4.68897e-10
-4.51244e-10
-6.84999e-10
-3.99201e-10
-8.91972e-10
-3.86717e-10
-8.96984e-10
-2.29606e-10
-7.85952e-10
-1.32711e-10
-7.10892e-10
-1.17766e-10
-6.50745e-10
-1.35402e-10
-5.8925e-10
-1.64212e-10
-5.83298e-10
-1.47394e-10
-6.89344e-10
-7.07137e-11
-8.46179e-10
6.33425e-11
-1.00215e-09
2.54508e-10
-1.13231e-09
4.8089e-10
-1.21557e-09
6.98011e-10
-1.20365e-09
9.09268e-10
-1.20086e-09
1.02947e-09
-1.06586e-09
1.2468e-09
-1.0716e-09
1.43047e-09
-9.01193e-10
1.55949e-09
-6.54718e-10
1.51456e-09
-2.98769e-10
1.68975e-09
-4.43542e-10
1.81007e-09
-1.66511e-10
1.85043e-09
2.70661e-10
1.844e-09
6.97371e-10
1.78076e-09
1.11669e-09
1.67696e-09
1.47788e-09
1.54539e-09
1.77648e-09
1.42199e-09
1.98658e-09
1.30676e-09
2.18154e-09
1.12745e-09
2.49248e-09
8.62044e-10
2.83604e-09
5.23339e-10
3.13254e-09
3.33657e-09
1.36856e-10
-6.15087e-12
4.97484e-11
-2.3002e-11
1.52523e-10
-4.89051e-11
2.45041e-10
-8.23272e-11
3.22071e-10
-1.21969e-10
3.81791e-10
-1.66779e-10
4.24297e-10
-2.1591e-10
4.50143e-10
-2.68635e-10
4.59485e-10
-3.2425e-10
4.51768e-10
-3.81952e-10
4.25708e-10
-4.40698e-10
3.79394e-10
-4.99015e-10
3.104e-10
-5.54733e-10
2.1589e-10
-6.04665e-10
9.28039e-11
-6.4426e-10
-6.16984e-11
-6.67299e-10
-2.49185e-10
-6.69363e-10
-4.66833e-10
-6.54092e-10
-7.00268e-10
-6.43152e-10
-9.02909e-10
-5.46812e-10
-9.93323e-10
-4.00846e-10
-9.31919e-10
-2.97927e-10
-8.13812e-10
-2.73212e-10
-6.75459e-10
-3.08031e-10
-5.5443e-10
-3.5546e-10
-5.35869e-10
-3.29658e-10
-7.15147e-10
-2.24079e-10
-9.51757e-10
-5.90892e-11
-1.16714e-09
1.57092e-10