/*--------------------------------*- C++ -*----------------------------------*\
| =========                 |                                                 |
| \\      /  F ield         | OpenFOAM: The Open Source CFD Toolbox           |
|  \\    /   O peration     | Version:  2.4.0                                 |
|   \\  /    A nd           | Web:      www.OpenFOAM.org                      |
|    \\/     M anipulation  |                                                 |
\*---------------------------------------------------------------------------*/
FoamFile
{
    version     2.0;
    format      ascii;
    class       volScalarField;
    location    "0.303";
    object      p;
}
// * * * * * * * * * * * * * * * * * * * * * * * * * * * * * * * * * * * * * //

dimensions      [1 -1 -2 0 0 0 0];

internalField   nonuniform List<scalar> 
60000
(
126.833
126.791
126.702
126.567
126.386
126.159
125.887
125.57
125.207
124.801
124.35
123.855
123.317
122.737
122.115
121.452
120.748
120.005
119.223
118.404
117.548
116.657
115.732
114.775
113.786
112.767
111.72
110.646
109.547
108.424
107.28
106.117
104.936
103.739
102.529
101.308
100.078
98.843
97.6043
96.3652
95.129
93.8988
92.6781
91.4704
90.2796
89.1094
87.9638
86.8468
85.7624
84.7146
83.707
82.7434
81.8268
80.96
80.1453
79.3843
78.6778
78.0261
77.4286
76.8841
76.3906
75.9457
75.5467
75.1904
74.8735
74.593
74.3457
74.129
73.9403
73.7778
73.6398
73.5252
73.4333
73.3637
73.3167
73.2926
73.292
73.3163
73.365
73.4411
73.5457
73.6803
73.8465
74.046
74.2806
74.552
74.8622
75.2127
75.6053
76.0415
76.5231
77.0514
77.6282
78.2549
78.9331
79.6642
80.4495
81.2899
82.1861
83.1381
124.875
124.833
124.745
124.61
124.429
124.202
123.93
123.613
123.25
122.843
122.392
121.898
121.36
120.779
120.157
119.493
118.79
118.046
117.264
116.445
115.589
114.698
113.773
112.815
111.826
110.807
109.759
108.685
107.586
106.463
105.319
104.155
102.974
101.777
100.566
99.3451
98.1152
96.8792
95.64
94.4005
93.1636
91.9328
90.7113
89.5028
88.311
87.1399
85.9932
84.8752
83.7899
82.741
81.7326
80.7681
79.8507
78.9833
78.168
77.4065
76.6997
76.0479
75.4504
74.906
74.4129
73.9684
73.5699
73.2141
72.8978
72.6178
72.3711
72.1549
71.9666
71.8045
71.6668
71.5524
71.4606
71.3912
71.3442
71.3201
71.3194
71.3429
71.3926
71.4689
71.5735
71.7082
71.8747
72.0747
72.3096
72.5816
72.8922
73.2432
73.6363
74.0731
74.5551
75.0839
75.661
76.288
76.9664
77.6977
78.4832
79.3238
80.2204
81.1726
122.929
122.887
122.798
122.663
122.482
122.255
121.983
121.665
121.303
120.896
120.444
119.949
119.411
118.83
118.208
117.544
116.84
116.096
115.314
114.494
113.637
112.746
111.82
110.862
109.872
108.853
107.805
106.73
105.63
104.507
103.362
102.198
101.015
99.8176
98.6065
97.3842
96.1533
94.9164
93.676
92.4353
91.1971
89.9648
88.7418
87.5317
86.3383
85.1653
84.0168
82.8969
81.8096
80.7589
79.7486
78.7824
77.8634
76.9946
76.1782
75.4159
74.7087
74.0567
73.4593
72.9154
72.4229
71.9794
71.5819
71.2272
70.9122
70.6333
70.3877
70.1724
69.985
69.8235
69.6863
69.5723
69.4807
69.4114
69.3643
69.3399
69.3389
69.3622
69.4112
69.4869
69.5908
69.7246
69.8901
70.0894
70.3237
70.5951
70.9054
71.2561
71.649
72.0856
72.5674
73.096
73.6729
74.2996
74.9776
75.7084
76.4933
77.3333
78.2293
79.1809
120.995
120.952
120.863
120.728
120.546
120.319
120.047
119.729
119.366
118.958
118.507
118.011
117.473
116.891
116.268
115.604
114.899
114.155
113.372
112.551
111.694
110.802
109.875
108.916
107.925
106.905
105.856
104.78
103.679
102.555
101.409
100.244
99.0601
97.8611
96.6486
95.4249
94.1924
92.9536
91.7114
90.4686
89.2283
87.9936
86.7681
85.5553
84.3591
83.1832
82.0317
80.9087
79.8184
78.7647
77.7515
76.7826
75.8612
74.9903
74.1722
73.4087
72.7007
72.0485
71.4514
70.9082
70.4168
69.9747
69.5789
69.2261
68.9129
68.6359
68.392
68.1783
67.9922
67.8318
67.6954
67.582
67.4907
67.4215
67.3743
67.3496
67.3482
67.3709
67.419
67.4938
67.5968
67.7296
67.8941
68.0918
68.3252
68.5955
68.9047
69.2545
69.6465
70.0822
70.5632
71.091
71.6669
72.2925
72.9694
73.6989
74.4824
75.3211
76.2158
77.1663
119.072
119.028
118.939
118.804
118.622
118.395
118.122
117.804
117.44
117.032
116.58
116.084
115.545
114.963
114.339
113.673
112.968
112.222
111.438
110.617
109.758
108.865
107.937
106.977
105.985
104.963
103.913
102.836
101.734
100.608
99.4604
98.2931
97.108
95.9071
94.6926
93.4668
92.232
90.9909
89.7461
88.5004
87.257
86.0191
84.7902
83.5737
82.3736
81.1937
80.0381
78.9109
77.8164
76.7585
75.7414
74.7688
73.8441
72.9703
72.1499
71.3847
70.6757
70.0231
69.4264
68.8842
68.3944
67.9543
67.5608
67.2106
66.9
66.6255
66.384
66.1725
65.9884
65.8295
65.6944
65.5818
65.4912
65.4223
65.3751
65.3502
65.3483
65.3704
65.4178
65.4917
65.5937
65.7254
65.8886
66.0852
66.3172
66.5862
66.8941
67.2426
67.6333
68.0677
68.5474
69.0736
69.648
70.2718
70.9468
71.6743
72.4558
73.2925
74.1854
75.1345
117.16
117.116
117.027
116.891
116.709
116.482
116.208
115.889
115.526
115.117
114.664
114.167
113.627
113.044
112.419
111.752
111.046
110.299
109.514
108.691
107.831
106.936
106.007
105.045
104.052
103.028
101.976
100.897
99.7929
98.6651
97.5156
96.3462
95.1588
93.9555
92.7385
91.51
90.2723
89.0281
87.7799
86.5306
85.2834
84.0413
82.8079
81.5868
80.3818
79.1968
78.0359
76.9034
75.8035
74.7405
73.7183
72.741
71.812
70.9345
70.1112
69.3437
68.6334
67.9804
67.3841
66.8432
66.3554
65.9179
65.5274
65.1804
64.8732
64.6021
64.3637
64.155
63.9733
63.8166
63.6831
63.5718
63.482
63.4135
63.3665
63.3415
63.3392
63.3607
63.4073
63.4802
63.5811
63.7116
63.8735
64.0688
64.2993
64.5668
64.8732
65.2202
65.6094
66.0422
66.5201
67.0444
67.6167
68.2382
68.9107
69.6356
70.4145
71.2486
72.1393
73.0867
115.26
115.216
115.126
114.99
114.808
114.58
114.306
113.986
113.622
113.212
112.758
112.261
111.719
111.135
110.509
109.841
109.133
108.385
107.598
106.773
105.912
105.015
104.084
103.12
102.125
101.099
100.045
98.9636
97.857
96.7268
95.5747
94.4027
93.2125
92.0063
90.7862
89.5543
88.3131
87.0651
85.8128
84.5592
83.3073
82.0602
80.8215
79.5947
78.3837
77.1925
76.0253
74.8863
73.7799
72.7104
71.6821
70.699
69.7648
68.8828
68.0557
67.2856
66.5736
65.9201
65.3243
64.785
64.2996
63.8653
63.4785
63.1356
62.8325
62.5655
62.331
62.1258
61.9472
61.793
61.6616
61.5518
61.4631
61.3952
61.3485
61.3234
61.3208
61.3417
61.3874
61.4593
61.559
61.6882
61.8487
62.0424
62.2713
62.5372
62.8419
63.1872
63.5746
64.0054
64.4812
65.0032
65.5728
66.1915
66.8608
67.5825
68.3581
69.1892
70.0772
71.0226
113.371
113.327
113.237
113.101
112.918
112.689
112.415
112.095
111.729
111.319
110.864
110.365
109.822
109.237
108.609
107.94
107.23
106.48
105.691
104.865
104.001
103.102
102.169
101.203
100.205
99.1763
98.1195
97.0355
95.9261
94.793
93.6379
92.4626
91.2692
90.0595
88.8356
87.5999
86.3545
85.102
83.845
82.5862
81.3288
80.0758
78.8308
77.5974
76.3794
75.1809
74.0062
72.8595
71.7455
70.6684
69.6328
68.6428
67.7024
66.8149
65.9835
65.2101
64.4961
63.8419
63.2468
62.7093
62.2269
61.7964
61.4141
61.076
60.7779
60.5158
60.2859
60.0849
59.91
59.7588
59.6299
59.5219
59.4345
59.3674
59.321
59.2959
59.2929
59.3132
59.3581
59.4289
59.5273
59.6551
59.814
60.006
60.2331
60.4972
60.8
61.1433
61.5285
61.9571
62.4304
62.9496
63.5161
64.1313
64.7969
65.5146
66.2864
67.1138
67.9986
68.9415
111.494
111.449
111.359
111.223
111.04
110.81
110.535
110.214
109.848
109.436
108.98
108.48
107.936
107.349
106.72
106.049
105.337
104.585
103.794
102.965
102.099
101.197
100.261
99.2919
98.291
97.2599
96.1999
95.1128
94.0001
92.8636
91.7049
90.526
89.3287
88.115
86.887
85.6467
84.3966
83.1389
81.8764
80.6118
79.348
78.0883
76.8361
75.595
74.369
73.1621
71.9787
70.8232
69.7002
68.6144
67.5702
66.5722
65.6245
64.7307
63.894
63.1168
62.4005
61.7455
61.1512
60.6159
60.137
59.711
59.334
59.0016
58.7093
58.453
58.2285
58.0324
57.8618
57.7142
57.5881
57.4823
57.3963
57.3302
57.2842
57.2591
57.2558
57.2754
57.3193
57.3889
57.486
57.6122
57.7694
57.9595
58.1846
58.4466
58.7473
59.0884
59.4712
59.8972
60.3676
60.8836
61.4464
62.0575
62.7187
63.4318
64.1989
65.022
65.9031
66.8429
109.628
109.584
109.493
109.356
109.173
108.943
108.667
108.345
107.978
107.565
107.107
106.606
106.06
105.471
104.84
104.167
103.453
102.698
101.905
101.073
100.204
99.2999
98.3608
97.3885
96.3843
95.3497
94.2862
93.1955
92.0791
90.9387
89.776
88.5929
87.3913
86.173
84.9402
83.6949
82.4393
81.1759
79.9072
78.6359
77.3651
76.0977
74.8374
73.5877
72.3525
71.1361
69.9429
68.7773
67.6442
66.5482
65.4943
64.4871
63.5309
62.6298
61.7871
61.0054
60.2864
59.6305
59.0371
58.5044
58.0296
57.6088
57.2379
56.9121
56.6267
56.3771
56.1589
55.9684
55.8027
55.6592
55.5363
55.4329
55.3486
55.2835
55.238
55.2129
55.2091
55.228
55.2709
55.3393
55.4349
55.5593
55.7146
55.9027
56.1257
56.3854
56.6837
57.0223
57.4025
57.8257
58.2929
58.8051
59.3638
59.9702
60.6262
61.334
62.0957
62.9137
63.7903
64.7266
107.775
107.73
107.639
107.501
107.317
107.087
106.81
106.487
106.118
105.705
105.246
104.742
104.195
103.604
102.971
102.295
101.578
100.821
100.025
99.1903
98.3184
97.4106
96.4681
95.4922
94.4843
93.4459
92.3784
91.2836
90.163
89.0182
87.8511
86.6634
85.4569
84.2336
82.9954
81.7444
80.4829
79.2131
77.9375
76.6589
75.3801
74.1043
72.8349
71.5755
70.3302
69.1031
67.8988
66.7219
65.5773
64.47
63.405
62.3872
61.4214
60.5119
59.6623
58.8755
58.1533
57.4964
56.9041
56.3744
55.9042
55.4896
55.1257
54.8076
54.53
54.288
54.077
53.893
53.7328
53.5939
53.4746
53.3739
53.2915
53.2274
53.1824
53.1572
53.1531
53.1712
53.213
53.28
53.3739
53.4965
53.6497
53.8356
54.0561
54.3133
54.6091
54.945
55.3224
55.7424
56.206
56.7142
57.2681
57.8692
58.5194
59.2209
59.9764
60.7884
61.6599
62.5921
105.932
105.887
105.796
105.658
105.474
105.242
104.964
104.64
104.271
103.855
103.395
102.89
102.34
101.747
101.111
100.433
99.7137
98.9537
98.1541
97.3161
96.4408
95.5293
94.5829
93.603
92.591
91.5484
90.4765
89.3772
88.2519
87.1023
85.9302
84.7374
83.5255
82.2967
81.0526
79.7954
78.5273
77.2505
75.9674
74.6807
73.3932
72.1081
70.8287
69.5587
68.3021
67.0632
65.8466
64.657
63.4996
62.3795
61.302
60.2724
59.2957
58.3766
57.5191
56.7265
56.0007
55.3427
54.7515
54.2253
53.7605
53.3528
52.9971
52.6877
52.4191
52.1858
51.9829
51.8062
51.6523
51.5185
51.4032
51.3054
51.2249
51.162
51.1175
51.0922
51.0875
51.1047
51.1453
51.2108
51.3029
51.4234
51.5744
51.7578
51.9758
52.2303
52.5233
52.8563
53.2307
53.6473
54.1071
54.6108
55.1595
55.7546
56.3981
57.0925
57.8408
58.6461
59.5115
60.439
104.102
104.057
103.965
103.827
103.641
103.409
103.13
102.805
102.434
102.017
101.555
101.048
100.496
99.9007
99.2622
98.5813
97.8587
97.0954
96.2924
95.4507
94.5715
93.656
92.7054
91.7211
90.7046
89.6572
88.5805
87.4762
86.3458
85.191
84.0134
82.8149
81.5973
80.3624
79.1119
77.848
76.5728
75.2883
73.9971
72.7016
71.4047
70.1094
68.8191
67.5375
66.2685
65.0165
63.7863
62.5827
61.4111
60.2768
59.1854
58.1425
57.1535
56.2235
55.3571
54.5578
53.828
53.1686
52.5788
52.0565
51.598
51.1983
50.8518
50.5524
50.2939
50.0705
49.8768
49.7082
49.5612
49.4331
49.3222
49.2276
49.1491
49.0874
49.0432
49.0177
49.0124
49.0285
49.0677
49.1316
49.2218
49.3401
49.4886
49.6693
49.8844
50.1361
50.4261
50.7561
51.1272
51.5403
51.996
52.4949
53.0379
53.6263
54.2623
54.9487
55.6888
56.4862
57.3447
58.2667
102.283
102.238
102.146
102.007
101.821
101.588
101.308
100.982
100.609
100.19
99.726
99.2167
98.6628
98.0648
97.4234
96.7393
96.0134
95.2466
94.4398
93.5941
92.7106
91.7907
90.8355
89.8464
88.8249
87.7724
86.6905
85.5807
84.4447
83.2841
82.1007
80.8962
79.6723
78.4307
77.1735
75.9023
74.6194
73.3267
72.0267
70.7218
69.4146
68.1083
66.8062
65.5119
64.2295
62.9633
61.7181
60.4992
59.3118
58.1618
57.0549
55.9971
54.9943
54.0522
53.1756
52.3688
51.6343
50.9734
50.3853
49.8675
49.416
49.0254
48.6894
48.4013
48.1544
47.9421
47.7587
47.5992
47.4599
47.338
47.2318
47.1405
47.0642
47.0035
46.9596
46.9338
46.9276
46.9426
46.9803
47.0423
47.1303
47.2462
47.392
47.5698
47.7819
48.0304
48.3173
48.6441
49.0119
49.4213
49.8728
50.3665
50.9033
51.4844
52.112
52.7893
53.5201
54.3086
55.1592
56.0748
100.477
100.431
100.339
100.199
100.012
99.7782
99.4971
99.1693
98.795
98.3745
97.9083
97.3967
96.8402
96.2393
95.5948
94.9074
94.1779
93.4072
92.5963
91.7462
90.8582
89.9334
88.9732
87.9789
86.952
85.894
84.8064
83.6907
82.5487
81.3819
80.1922
78.9811
77.7504
76.5019
75.2372
73.9584
72.6672
71.3658
70.0564
68.7414
67.4233
66.1052
64.7903
63.4823
62.1853
60.9036
59.6423
58.4065
57.2019
56.0344
54.9104
53.8361
52.8179
51.862
50.9741
50.1587
49.419
48.7563
48.1701
47.6575
47.214
46.8337
46.5097
46.2344
46.0004
45.8006
45.6287
45.4794
45.3486
45.2334
45.1322
45.0444
44.9702
44.9105
44.8668
44.8404
44.8332
44.8468
44.8827
44.9427
45.0284
45.1417
45.2845
45.4591
45.6679
45.913
46.1966
46.5201
46.8845
47.2902
47.7373
48.2257
48.7558
49.3288
49.9472
50.6142
51.3344
52.1127
52.9542
53.8626
98.6816
98.6354
98.5431
98.4029
98.2152
97.9801
97.6978
97.3685
96.9925
96.5701
96.1017
95.5876
95.0283
94.4245
93.7766
93.0856
92.3522
91.5773
90.7619
89.9071
89.0142
88.0842
87.1186
86.1188
85.0861
84.022
82.9282
81.8062
80.6577
79.4843
78.2878
77.0697
75.8318
74.5758
73.3034
72.0163
70.7165
69.4058
68.0865
66.7606
65.4309
64.1002
62.7717
61.449
60.1362
58.8378
57.5588
56.3047
55.0813
53.8948
52.7518
51.6592
50.6238
49.6525
48.7517
47.9266
47.181
46.5164
45.9322
45.4255
44.9912
44.6227
44.3122
44.0514
43.832
43.6462
43.4871
43.349
43.2274
43.1196
43.0237
42.9395
42.8674
42.8085
42.7646
42.7375
42.729
42.7409
42.775
42.8327
42.9159
43.0262
43.1658
43.3369
43.542
43.7836
44.0636
44.3838
44.7449
45.1469
45.5896
46.0724
46.5954
47.1597
47.7677
48.4233
49.1315
49.8982
50.7294
51.6295
96.8986
96.8521
96.7594
96.6186
96.4301
96.1939
95.9102
95.5794
95.2015
94.7771
94.3063
93.7895
93.2273
92.6202
91.9688
91.2739
90.5363
89.7569
88.9368
88.0769
87.1787
86.2432
85.2718
84.2659
83.2269
82.1565
81.0561
79.9273
78.7718
77.5914
76.3876
75.1621
73.9165
72.6526
71.372
70.0763
68.7673
67.4468
66.117
64.7798
63.4377
62.0936
60.7506
59.4122
58.0825
56.7661
55.4681
54.1941
52.9501
51.7428
50.579
49.4661
48.4116
47.423
46.5077
45.6717
44.9193
44.2525
43.6708
43.1708
42.7469
42.3917
42.0964
41.8519
41.6489
41.4788
41.334
41.2082
41.0969
40.9969
40.9067
40.826
40.7558
40.6976
40.6533
40.625
40.6149
40.6249
40.6568
40.7121
40.7924
40.8996
41.0356
41.2028
41.404
41.6416
41.9181
42.2349
42.5926
42.9912
43.4295
43.9067
44.4223
44.9772
45.5738
46.2165
46.9112
47.6646
48.484
49.3747
95.1277
95.0808
94.9877
94.8462
94.6567
94.4194
94.1343
93.8018
93.4221
92.9954
92.5221
92.0026
91.4373
90.8267
90.1715
89.4724
88.7303
87.9461
87.1209
86.2557
85.3517
84.4103
83.4327
82.4204
81.3748
80.2974
79.1899
78.0539
76.8911
75.7031
74.4916
73.2582
72.0046
70.7324
69.4431
68.1383
66.8197
65.489
64.1482
62.799
61.444
60.0858
58.7273
57.3722
56.0245
54.6888
53.3703
52.0748
50.8086
49.5785
48.3918
47.2565
46.1807
45.1729
44.2412
43.3927
42.6327
41.9635
41.3845
40.8921
40.48
40.1399
39.862
39.6358
39.4512
39.2986
39.1696
39.0575
38.9572
38.8657
38.7813
38.7043
38.6358
38.5778
38.5327
38.5029
38.4909
38.4986
38.528
38.5805
38.6578
38.7614
38.8935
39.0565
39.2533
39.4868
39.7594
40.0728
40.4276
40.8228
41.2572
41.7288
42.2367
42.7814
43.3654
43.9937
44.6731
45.4115
46.2174
47.0973
93.3688
93.3216
93.228
93.0858
92.8954
92.6568
92.3702
92.0359
91.6542
91.2252
90.7493
90.2268
89.6581
89.0439
88.3847
87.6812
86.9343
86.145
85.3143
84.4433
83.5333
82.5856
81.6014
80.5822
79.5295
78.4448
77.3298
76.1861
75.0154
73.8194
72.5998
71.3582
70.0961
68.8152
67.5168
66.2026
64.874
63.5327
62.1803
60.8187
59.4501
58.077
56.7023
55.3295
53.9626
52.6063
51.2658
49.9471
48.6568
47.4019
46.1903
45.0302
43.9307
42.9012
41.9511
41.0886
40.3199
39.6478
39.072
38.5883
38.1896
37.8666
37.6082
37.4028
37.2388
37.1058
36.9944
36.8973
36.8091
36.7264
36.6482
36.5747
36.5076
36.4494
36.403
36.3712
36.3567
36.3618
36.3883
36.4378
36.5117
36.6114
36.7392
36.8975
37.0894
37.3184
37.587
37.8972
38.2492
38.6417
39.0724
39.5387
40.0387
40.5725
41.1428
41.7549
42.4169
43.1382
43.9287
44.7965
91.622
91.5744
91.4804
91.3375
91.1459
90.9061
90.6179
90.2818
89.8979
89.4665
88.9878
88.4622
87.8901
87.2719
86.6084
85.9002
85.1483
84.3535
83.5171
82.64
81.7236
80.7691
79.7779
78.7514
77.6912
76.5988
75.4758
74.3239
73.1449
71.9404
70.7123
69.4619
68.191
66.901
65.5933
64.2692
62.9303
61.5779
60.2136
58.8391
57.4564
56.0677
54.676
53.2844
51.8971
50.5188
49.1549
47.8114
46.495
45.2133
43.9743
42.787
41.6611
40.6074
39.6364
38.7579
37.9793
37.304
36.7317
36.2579
35.8745
35.5708
35.3345
35.1524
35.0117
34.9005
34.8086
34.728
34.6528
34.5797
34.5077
34.4375
34.3714
34.3125
34.2641
34.2296
34.2122
34.2142
34.2376
34.2837
34.3538
34.4493
34.5722
34.7252
34.9118
35.1357
35.4002
35.7073
36.057
36.4475
36.8753
37.3367
37.8288
38.3511
38.9062
39.5002
40.1425
40.8442
41.6172
42.4711
89.8873
89.8394
89.7449
89.6012
89.4086
89.1673
88.8776
88.5394
88.1533
87.7194
87.2378
86.7089
86.1331
85.5108
84.8428
84.1296
83.3723
82.5718
81.7292
80.8457
79.9225
78.9609
77.9623
76.9281
75.8599
74.7592
73.6278
72.4673
71.2795
70.0661
68.829
67.5695
66.2894
64.9899
63.6725
62.3383
60.9887
59.6249
58.2484
56.8605
55.4631
54.0583
52.6486
51.2374
49.8286
48.427
47.038
45.6678
44.3234
43.0126
41.7438
40.5265
39.3714
38.2904
37.2958
36.3992
35.6092
34.9302
34.362
33.8994
33.5333
33.2516
33.0403
32.8845
32.7698
32.6829
32.6127
32.5502
32.4892
32.4262
32.3604
32.2933
32.2276
32.1671
32.116
32.0782
32.0572
32.0556
32.0754
32.1177
32.1837
32.2745
32.392
32.539
32.7196
32.9379
33.1981
33.5023
33.8504
34.2398
34.6658
35.1231
35.6073
36.1174
36.6559
37.2297
37.8496
38.5289
39.2818
40.12
88.165
88.1167
88.0217
87.877
87.6833
87.4406
87.1491
86.809
86.4205
85.9839
85.4992
84.9669
84.3873
83.7607
83.0879
82.3695
81.6065
80.7999
79.9509
79.0605
78.1301
77.161
76.1546
75.1123
74.0356
72.9263
71.7859
70.6163
69.4193
68.1965
66.9499
65.681
64.3912
63.082
61.7546
60.41
59.0494
57.674
56.2849
54.8833
53.4708
52.0492
50.6209
49.189
47.7575
46.3312
44.9155
43.5169
42.1424
40.8001
39.4988
38.2487
37.0611
35.9494
34.928
34.0106
33.2076
32.5244
31.9607
31.5109
31.1646
30.9079
30.7248
30.5986
30.513
30.4534
30.4072
30.3647
30.319
30.2666
30.2071
30.1425
30.0764
30.0136
29.9588
29.9168
29.8915
29.8857
29.9013
29.9396
30.0011
30.0866
30.198
30.3383
30.5118
30.7239
30.9794
31.281
31.6285
32.0182
32.4439
32.898
33.3748
33.8721
34.3924
34.9435
35.538
36.1916
36.9215
37.742
86.4549
86.4062
86.3107
86.1651
85.9702
85.7259
85.4326
85.0904
84.6995
84.2601
83.7723
83.2364
82.6527
82.0216
81.3437
80.6199
79.8509
79.0379
78.182
77.2845
76.3465
75.3695
74.3549
73.304
72.2185
71.0999
69.9501
68.7709
67.5641
66.3316
65.075
63.7962
62.4965
61.1772
59.8395
58.4843
57.1126
55.7253
54.3234
52.9078
51.4798
50.0409
48.5932
47.1398
45.6844
44.232
42.788
41.359
39.9524
38.5762
37.2396
35.9533
34.7295
33.5834
32.5315
31.5902
30.7722
30.0841
29.5257
29.0905
28.7666
28.5382
28.3871
28.2943
28.2415
28.2123
28.1928
28.1723
28.1432
28.1018
28.0484
27.9857
27.9183
27.852
27.7925
27.7453
27.7147
27.7039
27.715
27.7487
27.8052
27.885
27.9895
28.1219
28.2873
28.4922
28.7427
29.0421
29.3902
29.782
30.2093
30.6619
31.1319
31.6159
32.1163
32.6419
33.2073
33.8316
34.535
35.3355
84.7572
84.708
84.6121
84.4655
84.2692
84.0234
83.7281
83.3837
82.9903
82.548
82.057
81.5174
80.9295
80.2936
79.6105
78.8808
78.1056
77.2858
76.4227
75.5176
74.5718
73.5865
72.5632
71.5033
70.4084
69.2802
68.1204
66.9311
65.7141
64.4712
63.2044
61.9152
60.6053
59.2756
57.9274
56.5614
55.1783
53.7791
52.3642
50.9345
49.4907
48.034
46.5663
45.0903
43.61
42.1299
40.656
39.1948
37.7538
36.3412
34.9664
33.6404
32.3764
31.1913
30.1046
29.1358
28.3005
27.6066
27.0542
26.6357
26.3374
26.1412
26.0263
25.9712
25.9553
25.96
25.9702
25.9739
25.9627
25.9329
25.8852
25.8236
25.7538
25.6827
25.6171
25.5634
25.5266
25.5101
25.5159
25.5446
25.5957
25.6691
25.7656
25.8887
26.0445
26.241
26.4859
26.7837
27.134
27.5305
27.962
28.4153
28.8795
29.3497
29.8284
30.3252
30.8574
31.4478
32.121
32.899
83.072
83.0223
82.9259
82.7782
82.5806
82.333
82.0358
81.6891
81.293
80.8478
80.3534
79.8099
79.2176
78.5769
77.8882
77.1524
76.3706
75.5437
74.6731
73.7601
72.8059
71.8119
70.7795
69.7101
68.6054
67.4671
66.2969
65.097
63.8692
62.6155
61.3379
60.038
58.7174
57.3772
56.0182
54.6412
53.2468
51.8355
50.4076
48.9636
47.5038
46.029
44.5406
43.0413
41.5348
40.0258
38.5202
37.0248
35.5472
34.0956
32.6794
31.31
30.0012
28.772
27.6455
26.645
25.7894
25.0888
24.5433
24.1439
23.8749
23.7152
23.6415
23.629
23.6544
23.6971
23.7403
23.7708
23.7789
23.761
23.7186
23.6571
23.5834
23.5059
23.4327
23.3711
23.3268
23.3038
23.3038
23.3269
23.3722
23.4385
23.526
23.6381
23.7823
23.9687
24.2072
24.5039
24.8585
25.2628
25.7023
26.1591
26.619
27.0752
27.53
27.9943
28.4882
29.0394
29.6778
30.4304
81.3993
81.3493
81.252
81.1033
80.9042
80.6549
80.3556
80.0065
79.6077
79.1594
78.6615
78.1141
77.5173
76.8714
76.177
75.4348
74.646
73.8116
72.9332
72.0118
71.0489
70.0459
69.004
67.9247
66.8097
65.6607
64.4796
63.2684
62.0293
60.7643
59.4754
58.1645
56.8329
55.4819
54.1121
52.724
51.3182
49.8948
48.454
46.9957
45.5199
44.0266
42.5171
40.9935
39.4596
37.9202
36.3813
34.8498
33.3333
31.84
30.3792
28.9624
27.6036
26.3246
25.1522
24.1148
23.2356
22.5273
21.9895
21.612
21.3765
21.2585
21.2314
21.2671
21.339
21.4241
21.5041
21.5642
21.5934
21.5876
21.5498
21.487
21.4077
21.3219
21.2392
21.1681
21.1152
21.0845
21.078
21.0953
21.1346
21.1934
21.2708
21.3702
21.5005
21.6747
21.9059
22.2021
22.5634
22.9796
23.4314
23.8955
24.3528
24.7947
25.2232
25.6505
26.0999
26.6055
27.2038
27.9277
79.7393
79.6889
79.5907
79.4409
79.2402
78.989
78.6875
78.3359
77.9344
77.4829
76.9815
76.43
75.8286
75.1773
74.4768
73.728
72.9318
72.0897
71.203
70.2729
69.301
68.2884
67.2366
66.147
65.0212
63.861
62.6684
61.4455
60.1944
58.9175
57.6169
56.2945
54.9517
53.5896
52.2088
50.8097
49.3924
47.9571
46.5036
45.0313
43.5394
42.0276
40.4963
38.9477
37.3852
35.8139
34.24
32.6704
31.1129
29.5751
28.0665
26.598
25.1836
23.8479
22.6227
21.542
20.635
19.9176
19.3887
19.0364
18.8393
18.7689
18.7947
18.8849
19.0091
19.1417
19.2627
19.3557
19.4077
19.414
19.3798
19.3139
19.2269
19.1305
19.0362
18.9538
18.8905
18.8511
18.8373
18.8485
18.8817
18.9328
18.9994
19.0844
19.1986
19.3585
19.5814
19.8779
20.2489
20.6819
21.152
21.628
22.0848
22.5118
22.9112
23.2958
23.6931
24.145
24.6965
25.3882
78.0918
78.0412
77.942
77.7909
77.5886
77.3354
77.0316
76.6775
76.2731
75.8184
75.3134
74.7577
74.1515
73.4947
72.788
72.0321
71.2283
70.378
69.4826
68.5435
67.5621
66.5397
65.4775
64.3771
63.24
62.0681
60.8634
59.6281
58.3645
57.0752
55.7623
54.428
53.0737
51.7003
50.3085
48.8983
47.4697
46.0227
44.5568
43.0707
41.5631
40.0327
38.4794
36.9048
35.3126
33.7079
32.0972
30.4875
28.8868
27.3019
25.7421
24.2176
22.7411
21.3409
20.0545
18.9228
17.9826
17.2547
16.7361
16.4128
16.2601
16.2437
16.3297
16.4818
16.6649
16.8503
17.017
17.1469
17.2238
17.2422
17.2101
17.1393
17.0419
16.9323
16.824
16.728
16.6527
16.603
16.5808
16.5851
16.6119
16.6548
16.7089
16.7769
16.8718
17.0151
17.2291
17.5277
17.9128
18.3696
18.8658
19.3599
19.8187
20.2307
20.5979
20.9332
21.2686
21.6568
22.1534
22.8084
76.4572
76.4063
76.3059
76.1535
75.9494
75.6941
75.3879
75.0311
74.6238
74.1659
73.6572
73.0973
72.4862
71.8237
71.1104
70.3472
69.5353
68.6764
67.772
66.8236
65.8324
64.7997
63.7268
62.6151
61.4663
60.2821
59.0646
57.8163
56.5396
55.2371
53.9115
52.5647
51.1986
49.8138
48.4109
46.9897
45.55
44.0916
42.6138
41.1146
39.5917
38.0428
36.4671
34.8659
33.2427
31.603
29.9538
28.302
26.6559
25.0214
23.4072
21.8221
20.2766
18.8027
17.4454
16.253
15.2728
14.5337
14.027
13.7374
13.6363
13.6813
13.8353
14.0576
14.307
14.5515
14.7693
14.9414
15.0463
15.0765
15.0451
14.9671
14.8567
14.7308
14.6055
14.4935
14.4042
14.3428
14.3113
14.3086
14.329
14.3626
14.4005
14.4449
14.5128
14.6333
14.836
15.1383
15.5441
16.0351
16.5688
17.0893
17.5534
17.9505
18.2834
18.5623
18.8246
19.1372
19.5693
20.1828
74.8353
74.7842
74.6827
74.5287
74.3227
74.0651
73.7563
73.3968
72.9866
72.5254
72.013
71.4489
70.8327
70.1644
69.4443
68.6734
67.8531
66.9852
66.0714
65.1132
64.1118
63.0685
61.9845
60.8611
59.6999
58.5029
57.2721
56.01
54.7194
53.4032
52.0642
50.7046
49.3262
47.93
46.516
45.0839
43.6333
42.164
40.6749
39.1635
37.626
36.0589
34.4606
32.832
31.1766
29.5002
27.8106
26.1148
24.4215
22.7348
21.063
19.4131
17.7908
16.2325
14.7937
13.5286
12.5002
11.7497
11.256
11.0047
10.9636
11.0775
11.3088
11.6115
11.9364
12.2475
12.5235
12.7455
12.8829
12.9246
12.8917
12.8038
12.6762
12.5299
12.3836
12.2519
12.1461
12.0714
12.0307
12.0228
12.04
12.0668
12.0862
12.0981
12.1249
12.2078
12.3896
12.6913
13.122
13.6625
14.2537
14.8154
15.2903
15.6741
15.9711
16.1858
16.361
16.5832
16.939
17.5043
73.2265
73.1749
73.0722
72.9166
72.7084
72.4484
72.137
71.7746
71.3613
70.8969
70.3808
69.8124
69.1912
68.5169
67.7898
67.0109
66.1816
65.3043
64.3808
63.4124
62.4006
61.3463
60.2507
59.1152
57.9412
56.7306
55.4858
54.2093
52.9041
51.5734
50.2202
48.8473
47.4564
46.0485
44.6234
43.1806
41.7195
40.2398
38.7404
37.2179
35.6668
34.0822
32.4612
30.8043
29.1152
27.4005
25.6685
23.927
22.1846
20.4435
18.7112
16.9928
15.2852
13.6298
12.0987
10.7441
9.65428
8.89219
8.40992
8.20198
8.23269
8.42436
8.74475
9.14211
9.55497
9.94248
10.2853
10.5674
10.7429
10.7932
10.7541
10.6515
10.5004
10.3273
10.1543
9.99782
9.87198
9.78187
9.73212
9.72289
9.74396
9.77177
9.77721
9.75471
9.72936
9.75503
9.8986
10.1933
10.6412
11.2289
11.8917
12.5114
13.0044
13.3812
13.6473
13.7929
13.8674
13.9848
14.2531
14.7634
71.6308
71.5786
71.4746
71.3171
71.1066
70.8439
70.5297
70.1644
69.7481
69.2804
68.7607
68.1881
67.5618
66.8813
66.147
65.3598
64.5209
63.6338
62.7001
61.7214
60.6987
59.633
58.5256
57.3774
56.1901
54.9654
53.7059
52.4142
51.0935
49.7475
48.3795
46.9925
45.5887
44.169
42.7329
41.2796
39.8083
38.319
36.8105
35.2783
33.7152
32.1138
30.4702
28.7842
27.06
25.3048
23.5286
21.7393
19.9466
18.1488
16.3528
14.5634
12.7614
10.9917
9.35737
7.88825
6.7179
5.95169
5.4823
5.32947
5.45164
5.73056
6.15315
6.66188
7.17612
7.64841
8.06381
8.4162
8.63441
8.68537
8.63247
8.51001
8.32885
8.12363
7.92009
7.73575
7.58803
7.47938
7.4179
7.40774
7.43713
7.47182
7.4659
7.41203
7.33724
7.2981
7.38064
7.64628
8.17473
8.81722
9.56411
10.2454
10.7445
11.1094
11.3429
11.4052
11.3545
11.3442
11.5091
11.9539
70.0482
69.9954
69.8899
69.7304
69.5173
69.2517
68.9344
68.5661
68.1467
67.6758
67.1525
66.5758
65.9445
65.2578
64.5159
63.7203
62.871
61.9735
61.0295
60.04
59.0062
57.9289
56.8092
55.648
54.4468
53.2074
51.9324
50.6245
49.2875
47.9252
46.5415
45.1399
43.7229
42.2912
40.8442
39.3805
37.8993
36.4012
34.8852
33.3456
31.7722
30.1553
28.4893
26.7734
25.0123
23.2143
21.3914
19.5528
17.7084
15.851
13.9884
12.1267
10.2203
8.31391
6.57285
4.95471
3.68058
2.93079
2.46681
2.38123
2.61984
2.99008
3.52779
4.16715
4.79518
5.35623
5.84179
6.272
6.53662
6.5758
6.50231
6.35897
6.14508
5.90862
5.67715
5.46707
5.29971
5.16507
5.0756
5.04671
5.07166
5.10214
5.06416
4.9637
4.85216
4.78484
4.82932
4.95861
5.4052
6.22592
7.14216
7.92867
8.43581
8.80778
9.03097
9.00756
8.80879
8.6517
8.70123
9.06758
68.479
68.4253
68.3182
68.1563
67.9404
67.6716
67.3511
66.9795
66.557
66.083
65.5564
64.9758
64.3395
63.6465
62.8967
62.0916
61.2329
60.3237
59.3689
58.3684
57.3232
56.2341
55.1017
53.9271
52.7114
51.4567
50.1654
48.8405
47.4861
46.1065
44.7061
43.2891
41.8583
40.4145
38.9567
37.4829
35.992
34.486
32.9646
31.4202
29.8391
28.2084
26.5202
24.7735
22.9735
21.1301
19.2578
17.3679
15.4712
13.5502
11.618
9.68682
7.67122
5.60076
3.77148
1.93323
0.499986
-0.243924
-0.765225
-0.784975
-0.382361
0.0809015
0.764383
1.57487
2.33631
2.98814
3.53364
4.05281
4.36393
4.36509
4.26321
4.0967
3.84195
3.57475
3.31709
3.08237
2.90148
2.72541
2.56191
2.45976
2.43369
2.4217
2.28357
2.04322
1.81355
1.72615
2.01438
2.57038
2.94789
3.79724
4.91375
5.80701
6.2303
6.57864
6.78432
6.64229
6.24134
5.89825
5.80663
6.07173
66.9231
66.8685
66.7595
66.595
66.3758
66.1035
65.7794
65.4045
64.9789
64.5019
63.9722
63.3879
62.7468
62.0475
61.2896
60.4747
59.606
58.6839
57.7183
56.7067
55.6499
54.5486
53.4033
52.2148
50.9842
49.7134
48.405
47.0621
45.6891
44.291
42.8729
41.4396
39.9944
38.5384
37.0699
35.586
34.0855
32.5725
31.0484
29.5029
27.9174
26.2749
24.5652
22.7865
20.9454
19.0533
17.1281
15.1853
13.2367
11.25
9.24658
7.26159
5.13657
2.84329
0.969803
-1.28217
-3.00431
-3.59399
-3.95298
-3.39344
-2.3564
-1.66825
-0.954144
-0.212766
0.425565
0.954018
1.39413
1.88829
2.17987
2.1149
1.9939
1.82825
1.5718
1.33683
1.11033
0.859657
0.708439
0.662417
0.603994
0.512293
0.470419
0.442694
0.321633
0.11102
-0.169861
-0.58587
-1.10675
-1.3507
-0.688529
0.333731
1.82452
3.22661
3.69903
4.21596
4.53112
4.28015
3.63477
3.1148
2.87399
3.00783
65.3807
65.3251
65.2139
65.0463
64.8235
64.5472
64.2192
63.8408
63.4121
62.9323
62.3998
61.8121
61.1667
60.4612
59.6948
58.8694
57.991
57.0536
56.0779
55.0549
53.9863
52.8727
51.7142
50.5114
49.2654
47.9778
46.6513
45.2894
43.8967
42.4787
41.0415
39.5907
38.1306
36.6621
35.1829
33.6889
32.1785
30.6597
29.1362
27.5944
26.0089
24.3572
22.6268
20.815
18.93
16.985
15.0023
13.0052
11.0079
8.96115
6.89078
4.88172
2.61717
-0.0529061
-1.83989
-4.68908
-6.21302
-3.07795
-0.443832
0.0289085
0.221348
0.270091
0.284689
0.293284
0.301462
0.311983
0.325913
0.345718
0.359869
0.357607
0.349317
0.333892
0.314179
0.297786
0.283473
0.273529
0.277616
0.264453
0.245431
0.232344
0.221301
0.209027
0.194575
0.177483
0.158058
0.138449
0.11125
0.0701922
0.0340172
-0.0049208
-0.0347683
-0.137481
0.266406
1.39041
1.90442
1.76609
0.97667
0.209756
-0.329904
-0.485791
63.852
63.7951
63.6815
63.5104
63.2834
63.0027
62.6701
62.2882
61.8563
61.3738
60.8389
60.2485
59.599
58.8876
58.1124
57.2755
56.3834
55.4372
54.448
53.4131
52.3326
51.2064
50.0346
48.8172
47.5552
46.2501
44.9047
43.5225
42.1086
40.6692
39.2113
37.7419
36.2659
34.7847
33.295
31.7906
30.2692
28.7454
27.2272
25.6956
24.1156
22.4582
20.708
18.8618
16.9294
14.9266
12.8794
10.8253
8.79017
6.70335
4.57003
2.57755
0.118946
-3.54201
-4.81732
-2.54124
0.333511
0.297005
0.284921
0.282129
0.281303
0.282443
0.283794
0.284783
0.284591
0.283509
0.281995
0.279625
0.277164
0.276166
0.275319
0.272701
0.269154
0.26675
0.265213
0.26473