/*--------------------------------*- C++ -*----------------------------------*\
| =========                 |                                                 |
| \\      /  F ield         | OpenFOAM: The Open Source CFD Toolbox           |
|  \\    /   O peration     | Version:  2.4.0                                 |
|   \\  /    A nd           | Web:      www.OpenFOAM.org                      |
|    \\/     M anipulation  |                                                 |
\*---------------------------------------------------------------------------*/
FoamFile
{
    version     2.0;
    format      ascii;
    class       surfaceScalarField;
    location    "0.37";
    object      phi;
}
// * * * * * * * * * * * * * * * * * * * * * * * * * * * * * * * * * * * * * //

dimensions      [0 3 -1 0 0 0 0];

internalField   nonuniform List<scalar> 
19800
(
-1.03947e-12
1.03947e-12
-2.87287e-12
1.83333e-12
-4.85526e-12
1.98229e-12
-6.61849e-12
1.76312e-12
-8.03143e-12
1.41278e-12
-9.06876e-12
1.0372e-12
-9.73642e-12
6.67676e-13
-1.00609e-11
3.24654e-13
-1.00711e-11
1.03287e-14
-9.83742e-12
-2.33692e-13
-9.39616e-12
-4.41327e-13
-8.78764e-12
-6.08576e-13
-8.04491e-12
-7.42709e-13
-7.19407e-12
-8.50772e-13
-6.25515e-12
-9.38871e-13
-5.24302e-12
-1.01212e-12
-4.16889e-12
-1.07417e-12
-3.0423e-12
-1.12663e-12
-1.87358e-12
-1.16877e-12
-6.76282e-13
-1.19733e-12
5.30199e-13
-1.2065e-12
1.71854e-12
-1.18834e-12
2.85158e-12
-1.13304e-12
3.88169e-12
-1.0301e-12
4.75154e-12
-8.69837e-13
5.39697e-12
-6.45407e-13
5.75219e-12
-3.55188e-13
5.76343e-12
-1.12137e-14
5.37524e-12
3.88214e-13
4.57612e-12
7.99139e-13
3.38212e-12
1.19402e-12
1.84521e-12
1.53693e-12
5.26329e-14
1.79258e-12
-1.88382e-12
1.93647e-12
-3.84282e-12
1.95903e-12
-5.70737e-12
1.86459e-12
-7.37675e-12
1.6694e-12
-8.77381e-12
1.39704e-12
-9.85012e-12
1.07627e-12
-1.05873e-11
7.37184e-13
-1.09951e-11
4.07793e-13
-1.11048e-11
1.09696e-13
-1.09636e-11
-1.41167e-13
-1.06287e-11
-3.34957e-13
-1.01578e-11
-4.70896e-13
-9.60619e-12
-5.51583e-13
-9.02275e-12
-5.83369e-13
-8.44815e-12
-5.74564e-13
-7.91395e-12
-5.34225e-13
-4.71356e-13
-7.44265e-12
-1.81312e-12
2.85259e-12
-4.78257e-12
4.80286e-12
-7.76777e-12
4.96756e-12
-1.02156e-11
4.21112e-12
-1.18413e-11
3.03868e-12
-1.25448e-11
1.74068e-12
-1.23335e-11
4.56167e-13
-1.127e-11
-7.39088e-13
-9.46138e-12
-1.79822e-12
-6.99661e-12
-2.69828e-12
-3.99014e-12
-3.44765e-12
-5.38843e-13
-4.05982e-12
3.27348e-12
-4.55507e-12
7.37717e-12
-4.95451e-12
1.1716e-11
-5.27776e-12
1.62447e-11
-5.54083e-12
2.09251e-11
-5.75453e-12
2.57216e-11
-5.9232e-12
3.05965e-11
-6.04369e-12
3.5504e-11
-6.10488e-12
4.03852e-11
-6.08774e-12
4.5163e-11
-5.96608e-12
4.97383e-11
-5.70839e-12
5.39896e-11
-5.28132e-12
5.77745e-11
-4.65472e-12
6.09376e-11
-3.80843e-12
6.33226e-11
-2.74022e-12
6.47853e-11
-1.47384e-12
6.52335e-11
-5.99937e-14
6.46224e-11
1.41031e-12
6.29947e-11
2.82182e-12
6.04798e-11
4.05187e-12
5.72893e-11
4.98307e-12
5.36924e-11
5.53338e-12
4.99811e-11
5.67039e-12
4.64365e-11
5.40913e-12
4.33025e-11
4.80348e-12
4.07663e-11
3.93321e-12
3.89474e-11
2.89521e-12
3.78931e-11
1.79138e-12
3.75839e-11
7.16987e-13
3.79458e-11
-2.52218e-13
3.88647e-11
-1.05997e-12
4.02056e-11
-1.67583e-12
4.18258e-11
-2.09102e-12
4.35878e-11
-2.3136e-12
4.53681e-11
-2.36372e-12
4.70624e-11
-2.26887e-12
4.85881e-11
-2.05995e-12
-1.76848e-12
4.98852e-11
-1.92903e-12
4.78152e-12
-4.94439e-12
7.81809e-12
-7.70262e-12
7.72559e-12
-9.57444e-12
6.08283e-12
-1.02416e-11
3.70595e-12
-9.58062e-12
1.07985e-12
-7.60059e-12
-1.5238e-12
-4.39118e-12
-3.94857e-12
-8.13935e-14
-6.10812e-12
5.18379e-12
-7.9635e-12
1.12524e-11
-9.51617e-12
1.79832e-11
-1.07906e-11
2.52515e-11
-1.18234e-11
3.29517e-11
-1.26547e-11
4.09965e-11
-1.33225e-11
4.93136e-11
-1.3858e-11
5.78412e-11
-1.42822e-11
6.65216e-11
-1.46036e-11
7.5294e-11
-1.48161e-11
8.40872e-11
-1.48981e-11
9.28117e-11
-1.48123e-11
1.01353e-10
-1.45072e-11
1.09565e-10
-1.39208e-11
1.17271e-10
-1.29871e-11
1.24263e-10
-1.16466e-11
1.30314e-10
-9.85907e-12
1.35193e-10
-7.61921e-12
1.38691e-10
-4.97257e-12
1.40659e-10
-2.02732e-12
1.4103e-10
1.03936e-12
1.39856e-10
3.99542e-12
1.37326e-10
6.5825e-12
1.33748e-10
8.56053e-12
1.29522e-10
9.75976e-12
1.25077e-10
1.01155e-11
1.20825e-10
9.66049e-12
1.17123e-10
8.50568e-12
1.14243e-10
6.81281e-12
1.1236e-10
4.77909e-12
1.11538e-10
2.61255e-12
1.11749e-10
5.06764e-13
1.12877e-10
-1.3804e-12
1.14754e-10
-2.93735e-12
1.1718e-10
-4.10187e-12
1.19945e-10
-4.85589e-12
1.22848e-10
-5.21599e-12
1.25707e-10
-5.22321e-12
1.28372e-10
-4.93347e-12
1.30722e-10
-4.40997e-12
-3.71753e-12
1.32671e-10
-1.74801e-12
6.52957e-12
-4.23522e-12
1.03054e-11
-6.14162e-12
9.63194e-12
-6.82423e-12
6.76526e-12
-5.97298e-12
2.85456e-12
-3.47414e-12
-1.41897e-12
6.50543e-13
-5.64838e-12
6.29314e-12
-9.59111e-12
1.3296e-11
-1.3111e-11
2.14804e-11
-1.6148e-11
3.0663e-11
-1.86988e-11
4.06696e-11
-2.07972e-11
5.13443e-11
-2.2498e-11
6.25532e-11
-2.38636e-11
7.41843e-11
-2.49537e-11
8.61444e-11
-2.5818e-11
9.83532e-11
-2.6491e-11
1.10737e-10
-2.69871e-11
1.23219e-10
-2.7298e-11
1.35711e-10
-2.73904e-11
1.48105e-10
-2.72061e-11
1.60261e-10
-2.66632e-11
1.72002e-10
-2.5662e-11
1.8311e-10
-2.4095e-11
1.93326e-10
-2.18628e-11
2.02362e-10
-1.8895e-11
2.09919e-10
-1.51761e-11
2.15718e-10
-1.07717e-11
2.19543e-10
-5.85213e-12
2.21286e-10
-7.03431e-13
2.20993e-10
4.28839e-12
2.18891e-10
8.68415e-12
2.15382e-10
1.20696e-11
2.1099e-10
1.41522e-11
2.06276e-10
1.48297e-11
2.01773e-10
1.41633e-11
1.97934e-10
1.2344e-11
1.95109e-10
9.63852e-12
1.93513e-10
6.375e-12
1.93224e-10
2.90095e-12
1.94192e-10
-4.60968e-13
1.96261e-10
-3.44896e-12
1.99205e-10
-5.88151e-12
2.02763e-10
-7.65978e-12
2.06665e-10
-8.75799e-12
2.10656e-10
-9.20699e-12
2.14509e-10
-9.07684e-12
2.18037e-10
-8.46111e-12
2.21092e-10
-7.46457e-12
-6.19433e-12
2.23568e-10
-1.45332e-12
7.9828e-12
-3.1569e-12
1.20091e-11
-3.90265e-12
1.03778e-11
-3.09631e-12
5.95893e-12
-4.68466e-13
2.26599e-13
4.06631e-12
-5.95387e-12
1.0465e-11
-1.20471e-11
1.85972e-11
-1.77233e-11
2.8281e-11
-2.27948e-11
3.93106e-11
-2.71777e-11
5.14764e-11
-3.08645e-11
6.45787e-11
-3.38995e-11
7.84378e-11
-3.63571e-11
9.28981e-11
-3.83239e-11
1.07829e-10
-3.98848e-11
1.23123e-10
-4.11114e-11
1.38687e-10
-4.20548e-11
1.54438e-10
-4.27383e-11
1.70293e-10
-4.31531e-11
1.86158e-10
-4.32556e-11
2.01917e-10
-4.29652e-11
2.17421e-10
-4.21668e-11
2.32475e-10
-4.07164e-11
2.46835e-10
-3.84551e-11
2.60203e-10
-3.52307e-11
2.72236e-10
-3.09274e-11
2.82563e-10
-2.55034e-11
2.90823e-10
-1.90317e-11
2.96711e-10
-1.17403e-11
3.00047e-10
-4.0393e-12
3.00841e-10
3.49386e-12
2.99346e-10
1.01795e-11
2.96058e-10
1.53578e-11
2.91647e-10
1.85629e-11
2.8682e-10
1.96566e-11
2.82234e-10
1.87492e-11
2.78436e-10
1.61425e-11
2.75847e-10
1.22279e-11
2.74724e-10
7.49827e-12
2.75146e-10
2.47854e-12
2.77031e-10
-2.34577e-12
2.80169e-10
-6.58675e-12
2.84269e-10
-9.98236e-12
2.89007e-10
-1.23971e-11
2.94052e-10
-1.38039e-11
2.99103e-10
-1.42572e-11
3.03892e-10
-1.38665e-11
3.08204e-10
-1.2773e-11
3.11872e-10
-1.1132e-11
-9.10067e-12
3.14778e-10
-1.11429e-12
9.09701e-12
-1.95088e-12
1.28456e-11
-1.42907e-12
9.85609e-12
9.65441e-13
3.56453e-12
5.44776e-12
-4.25569e-12
1.20588e-11
-1.2565e-11
2.07229e-11
-2.07112e-11
3.12836e-11
-2.82841e-11
4.35347e-11
-3.50459e-11
5.72464e-11
-4.08893e-11
7.21857e-11
-4.58039e-11
8.81317e-11
-4.98456e-11
1.04885e-10
-5.31108e-11
1.22274e-10
-5.5713e-11
1.40155e-10
-5.77653e-11
1.58409e-10
-5.93655e-11
1.7694e-10
-6.05851e-11
1.95662e-10
-6.14604e-11
2.14495e-10
-6.1986e-11
2.3335e-10
-6.21103e-11
2.52117e-10
-6.17324e-11
2.70652e-10
-6.0702e-11
2.88761e-10
-5.88253e-11
3.06187e-10
-5.58816e-11
3.22606e-10
-5.16497e-11
3.37626e-10
-4.59467e-11
3.50801e-10
-3.86783e-11
3.61666e-10
-2.98974e-11
3.69796e-10
-1.98699e-11
3.7489e-10
-9.13373e-12
3.76881e-10
1.50334e-12
3.76019e-10
1.10412e-11
3.72915e-10
1.84618e-11
3.68436e-10
2.30428e-11
3.6346e-10
2.46324e-11
3.58785e-10
2.34242e-11
3.55046e-10
1.98811e-11
3.52748e-10
1.45264e-11
3.52188e-10
8.05838e-12
3.53437e-10
1.22878e-12
3.56364e-10
-5.27202e-12
3.60683e-10
-1.09062e-11
3.66026e-10
-1.53253e-11
3.71993e-10
-1.83638e-11
3.78195e-10
-2.00064e-11
3.84284e-10
-2.03457e-11
3.89961e-10
-1.95435e-11
3.94987e-10
-1.77996e-11
3.99184e-10
-1.53287e-11
-1.23449e-11
4.02428e-10
-7.77551e-13
9.87464e-12
-7.54476e-13
1.28224e-11
1.02621e-12
8.07532e-12
4.9909e-12
-4.00131e-13
1.12926e-11
-1.05573e-11
1.99205e-11
-2.1193e-11
3.07591e-11
-3.15498e-11
4.36208e-11
-4.11458e-11
5.82731e-11
-4.96983e-11
7.44625e-11
-5.70787e-11
9.19341e-11
-6.32755e-11
1.10447e-10
-6.83588e-11
1.29786e-10
-7.24491e-11
1.49763e-10
-7.56905e-11
1.70226e-10
-7.82281e-11
1.91051e-10
-8.01905e-11
2.12141e-10
-8.16752e-11
2.33417e-10
-8.27365e-11
2.54809e-10
-8.33781e-11
2.76245e-10
-8.35457e-11
2.97635e-10
-8.31223e-11
3.18856e-10
-8.19238e-11
3.39734e-10
-7.97029e-11
3.60018e-10
-7.61661e-11
3.79374e-10
-7.10051e-11
3.9737e-10
-6.39427e-11
4.13486e-10
-5.47947e-11
4.27137e-10
-4.35479e-11
4.37726e-10
-3.04591e-11
4.4477e-10
-1.61781e-11
4.4805e-10
-1.77667e-12
4.47771e-10
1.13208e-11
4.44683e-10
2.1549e-11
4.39949e-10
2.77772e-11
4.34665e-10
2.99161e-11
4.29791e-10
2.82985e-11
4.26035e-10
2.36372e-11
4.24008e-10
1.65538e-11
4.24056e-10
8.0096e-12
4.2623e-10
-9.45126e-13
4.30318e-10
-9.35943e-12
4.35932e-10
-1.65205e-11
4.42602e-10
-2.19958e-11
4.49846e-10
-2.56073e-11
4.57213e-10
-2.73734e-11
4.64312e-10
-2.7445e-11
4.70821e-10
-2.60522e-11
4.76486e-10
-2.34649e-11
4.81123e-10
-1.99654e-11
-1.58303e-11
4.84608e-10
-4.6947e-13
1.03442e-11
3.55305e-13
1.19976e-11
3.31982e-12
5.11072e-12
8.76702e-12
-5.84739e-12
1.67848e-11
-1.85751e-11
2.73095e-11
-3.17177e-11
4.01823e-11
-4.44225e-11
5.51807e-11
-5.61442e-11
7.20435e-11
-6.65611e-11
9.04921e-11
-7.55273e-11
1.10249e-10
-8.30326e-11
1.31054e-10
-8.91635e-11
1.52672e-10
-9.40678e-11
1.74906e-10
-9.79237e-11
1.97591e-10
-1.00914e-10
2.20604e-10
-1.03203e-10
2.43849e-10
-1.04921e-10
2.67261e-10
-1.06148e-10
2.90785e-10
-1.06902e-10
3.14376e-10
-1.07137e-10
3.3798e-10
-1.06726e-10
3.61513e-10
-1.05457e-10
3.84839e-10
-1.03029e-10
4.07739e-10
-9.90662e-11
4.2989e-10
-9.31558e-11
4.50844e-10
-8.48969e-11
4.70019e-10
-7.39694e-11
4.86695e-10
-6.02244e-11
5.00057e-10
-4.38209e-11
5.09347e-10
-2.54678e-11
5.14077e-10
-6.50679e-12
5.14303e-10
1.10947e-11
5.10959e-10
2.48936e-11
5.0569e-10
3.30455e-11
4.99863e-10
3.57432e-11
4.94633e-10
3.35282e-11
4.90724e-10
2.75469e-11
4.88915e-10
1.83629e-11
4.8962e-10
7.30463e-12
4.92838e-10
-4.1638e-12
4.98233e-10
-1.47542e-11
5.05272e-10
-2.35589e-11
5.13356e-10
-3.00802e-11
5.21911e-10
-3.41627e-11
5.30431e-10
-3.58928e-11
5.38491e-10
-3.55054e-11
5.45755e-10
-3.33158e-11
5.51964e-10
-2.96745e-11
5.56937e-10
-2.49378e-11
-1.94486e-11
5.60555e-10
-1.93058e-13
1.05373e-11
1.34248e-12
1.04622e-11
5.37975e-12
1.07346e-12
1.21836e-11
-1.26513e-11
2.17777e-11
-2.81692e-11
3.40468e-11
-4.39868e-11
4.87887e-11
-5.91643e-11
6.57447e-11
-7.31002e-11
8.46226e-11
-8.5439e-11
1.05117e-10
-9.60213e-11
1.26925e-10
-1.04841e-10
1.49764e-10
-1.12003e-10
1.73382e-10
-1.17686e-10
1.97563e-10
-1.22105e-10
2.22137e-10
-1.25487e-10
2.46975e-10
-1.28041e-10
2.71989e-10
-1.29936e-10
2.97127e-10
-1.31285e-10
3.22356e-10
-1.32132e-10
3.47665e-10
-1.32446e-10
3.73047e-10
-1.32108e-10
3.98477e-10
-1.30887e-10
4.2388e-10
-1.28432e-10
4.49094e-10
-1.24281e-10
4.73841e-10
-1.17903e-10
4.97694e-10
-1.0875e-10
5.20044e-10
-9.63194e-11
5.40057e-10
-8.02375e-11
5.56646e-10
-6.04094e-11
5.68669e-10
-3.74912e-11
5.75188e-10
-1.30251e-11
5.75878e-10
1.04042e-11
5.71882e-10
2.88892e-11
5.65736e-10
3.91917e-11
5.59083e-10
4.2397e-11
5.53352e-10
3.92591e-11
5.49111e-10
3.17877e-11
5.47476e-10
1.99978e-11
5.48947e-10
5.83349e-12
5.53413e-10
-8.62953e-12
5.60326e-10
-2.16674e-11
5.68948e-10
-3.21807e-11
5.78528e-10
-3.96608e-11
5.88403e-10
-4.40373e-11
5.98024e-10
-4.55133e-11
6.06954e-10
-4.44363e-11
6.14859e-10
-4.12204e-11
6.21488e-10
-3.63036e-11
6.2667e-10
-3.01191e-11
-2.30763e-11
6.30297e-10
3.60117e-14
1.05012e-11
2.19397e-12
8.30426e-12
7.18183e-12
-3.91434e-12
1.52009e-11
-2.06703e-11
2.62174e-11
-3.91857e-11
4.00679e-11
-5.78373e-11
5.65089e-11
-7.56053e-11
7.52457e-11
-9.1837e-11
9.59542e-11
-1.06147e-10
1.18299e-10
-1.18366e-10
1.41952e-10
-1.28493e-10
1.66603e-10
-1.36654e-10
1.91976e-10
-1.43059e-10
2.17837e-10
-1.47966e-10
2.44002e-10
-1.51652e-10
2.70339e-10
-1.54378e-10
2.96765e-10
-1.56362e-10
3.2324e-10
-1.5776e-10
3.49756e-10
-1.58648e-10
3.76336e-10
-1.59026e-10
4.0303e-10
-1.58802e-10
4.2989e-10
-1.57747e-10
4.56925e-10
-1.55466e-10
4.84058e-10
-1.51414e-10
5.11093e-10
-1.44938e-10
5.37677e-10
-1.35334e-10
5.63253e-10
-1.21896e-10
5.86946e-10
-1.0393e-10
6.07374e-10
-8.08377e-11
6.22915e-10
-5.3032e-11
6.31914e-10
-2.20238e-11
6.33174e-10
9.14361e-12
6.27961e-10
3.41025e-11
6.20563e-10
4.65896e-11
6.12727e-10
5.02333e-11
6.06422e-10
4.55645e-11
6.01606e-10
3.6603e-11
6.00168e-10
2.14358e-11
6.0268e-10
3.32182e-12
6.08765e-10
-1.47148e-11
6.17519e-10
-3.04217e-11
6.2792e-10
-4.25814e-11
6.39054e-10
-5.0795e-11
6.50196e-10
-5.51788e-11
6.60796e-10
-5.6113e-11
6.7044e-10
-5.40809e-11
6.78818e-10
-4.9598e-11
6.85701e-10
-4.31863e-11
6.90935e-10
-3.53533e-11
-2.65727e-11
6.94431e-10
2.2112e-13
1.028e-11
2.91584e-12
5.60944e-12
8.7329e-12
-9.7314e-12
1.7825e-11
-2.97624e-11
3.01107e-11
-5.14714e-11
4.53837e-11
-7.31102e-11
6.33626e-11
-9.35841e-11
8.37186e-11
-1.12193e-10
1.06096e-10
-1.28525e-10
1.30129e-10
-1.42399e-10
1.55457e-10
-1.53822e-10
1.81741e-10
-1.62938e-10
2.08677e-10
-1.69994e-10
2.36002e-10
-1.75292e-10
2.63515e-10
-1.79165e-10
2.91073e-10
-1.81936e-10
3.18597e-10
-1.83885e-10
3.46055e-10
-1.85218e-10
3.73457e-10
-1.86049e-10
4.00858e-10
-1.86426e-10
4.2837e-10
-1.86315e-10
4.56137e-10
-1.85514e-10
4.84267e-10
-1.83596e-10
5.12791e-10
-1.79939e-10
5.41629e-10
-1.73776e-10
5.7056e-10
-1.64265e-10
5.99205e-10
-1.5054e-10
6.26825e-10
-1.3155e-10
6.51808e-10
-1.0582e-10
6.72041e-10
-7.32655e-11
6.84875e-10
-3.48577e-11
6.87223e-10
6.79607e-12
6.80013e-10
4.13128e-11
6.71012e-10
5.55903e-11
6.61363e-10
5.9882e-11
6.5457e-10
5.23576e-11
6.48765e-10
4.24076e-11
6.47723e-10
2.24782e-11
6.51896e-10
-8.50818e-13
6.60269e-10
-2.30879e-11
6.71342e-10
-4.1495e-11
6.83733e-10
-5.49726e-11
6.96402e-10
-6.3464e-11
7.08642e-10
-6.74189e-11
7.19983e-10
-6.74541e-11
7.30089e-10
-6.41865e-11
7.38699e-10
-5.82077e-11
7.45617e-10
-5.01045e-11
7.50714e-10
-4.04507e-11
-2.97777e-11
7.53919e-10
3.79008e-13
9.90102e-12
3.52458e-12
2.46376e-12
1.00559e-11
-1.62627e-11
2.0087e-11
-3.97935e-11
3.34981e-11
-6.48825e-11
5.00468e-11
-8.96588e-11
6.94187e-11
-1.12956e-10
9.12544e-11
-1.34029e-10
1.15168e-10
-1.52438e-10
1.40762e-10
-1.67993e-10
1.67644e-10
-1.80704e-10
1.95439e-10
-1.90734e-10
2.23805e-10
-1.9836e-10
2.52447e-10
-2.03934e-10
2.8113e-10
-2.07849e-10
3.09695e-10
-2.10501e-10
3.38059e-10
-2.12248e-10
3.66197e-10
-2.13356e-10
3.94122e-10
-2.13974e-10
4.21908e-10
-2.14212e-10
4.49731e-10
-2.14138e-10
4.77831e-10
-2.13614e-10
5.06424e-10
-2.12189e-10
5.35655e-10
-2.09169e-10
5.65567e-10
-2.03688e-10
5.96106e-10
-1.94805e-10
6.27225e-10
-1.81659e-10
6.58649e-10
-1.62974e-10
6.88734e-10
-1.35905e-10
7.15185e-10
-9.97168e-11
7.34433e-10
-5.41052e-11
7.3945e-10
1.7793e-12
7.29468e-10
5.12949e-11
7.18549e-10
6.65095e-11
7.05422e-10
7.30082e-11
6.98549e-10
5.92305e-11
6.90878e-10
5.00789e-11
6.90968e-10
2.23886e-11
6.98134e-10
-8.01688e-12
7.09924e-10
-3.48785e-11
7.23935e-10
-5.5506e-11
7.38438e-10
-6.94748e-11
7.52427e-10
-7.74533e-11
7.65386e-10
-8.03782e-11
7.77053e-10
-7.91203e-11
7.87236e-10
-7.43704e-11
7.9575e-10
-6.67214e-11
8.02429e-10
-5.67838e-11
8.07165e-10
-4.51864e-11
-3.25141e-11
8.09901e-10
5.09304e-13
9.39173e-12
4.03378e-12
-1.06076e-12
1.11764e-11
-2.34054e-11
2.20244e-11
-5.06416e-11
3.64298e-11
-7.92878e-11
5.4122e-11
-1.07351e-10
7.47603e-11
-1.33594e-10
9.79594e-11
-1.57228e-10
1.23307e-10
-1.77785e-10
1.50375e-10
-1.95062e-10
1.78739e-10
-2.09068e-10
2.07984e-10
-2.19978e-10
2.37722e-10
-2.28098e-10
2.67611e-10
-2.33822e-10
2.97372e-10
-2.3761e-10
3.26814e-10
-2.39942e-10
3.55838e-10
-2.41273e-10
3.84423e-10
-2.41942e-10
4.12569e-10
-2.4212e-10
4.40345e-10
-2.41988e-10
4.67985e-10
-2.41778e-10
4.95828e-10
-2.41457e-10
5.24187e-10
-2.40548e-10
5.5331e-10
-2.38292e-10
5.83331e-10
-2.33709e-10
6.14283e-10
-2.25756e-10
6.4655e-10
-2.13926e-10
6.80851e-10
-1.97276e-10
7.15696e-10
-1.7075e-10
7.4973e-10
-1.33751e-10
7.79408e-10
-8.37829e-11
7.92362e-10
-1.1175e-11
7.77974e-10
6.56826e-11
7.66159e-10
7.83246e-11
7.46251e-10
9.29165e-11
7.38269e-10
6.7212e-11
7.27111e-10
6.12375e-11
7.30956e-10
1.85432e-11
7.43826e-10
-2.0887e-11
7.60771e-10
-5.18229e-11
7.78257e-10
-7.29919e-11
7.94595e-10
-8.58133e-11
8.09244e-10
-9.21022e-11
8.22169e-10
-9.33034e-11
8.33487e-10
-9.04377e-11
8.43213e-10
-8.40971e-11
8.51218e-10
-7.47259e-11
8.57334e-10
-6.28995e-11
8.61454e-10
-4.93068e-11
-3.45915e-11
8.63531e-10
6.14774e-13
8.77692e-12
4.45442e-12
-4.9004e-12
1.21156e-11
-3.10666e-11
2.36694e-11
-6.21953e-11
3.89488e-11
-9.45672e-11
5.76646e-11
-1.26067e-10
7.94574e-11
-1.55387e-10
1.03923e-10
-1.81693e-10
1.30628e-10
-2.0449e-10
1.59121e-10
-2.23555e-10
1.88944e-10
-2.3889e-10
2.1964e-10
-2.50675e-10
2.50773e-10
-2.5923e-10
2.81938e-10
-2.64988e-10
3.12795e-10
-2.68467e-10
3.43092e-10
-2.70239e-10
3.72701e-10
-2.70882e-10
4.01594e-10
-2.70835e-10
4.2974e-10
-2.70266e-10
4.57184e-10
-2.69433e-10
4.84212e-10
-2.68805e-10
5.11255e-10
-2.68501e-10
5.38705e-10
-2.67997e-10
5.669e-10
-2.66487e-10
5.95971e-10
-2.6278e-10
6.25735e-10
-2.5552e-10
6.56831e-10
-2.45022e-10
6.9163e-10
-2.32075e-10
7.29373e-10
-2.08493e-10
7.69727e-10
-1.74105e-10
8.13478e-10
-1.27534e-10
8.46794e-10
-4.44908e-11
8.31222e-10
8.12545e-11
8.20195e-10
8.93523e-11
7.77414e-10
1.35697e-10
7.67386e-10
7.72404e-11
7.54371e-10
7.4252e-11
7.70877e-10
2.03772e-12
7.94589e-10
-4.45988e-11
8.18161e-10
-7.53947e-11
8.38422e-10
-9.32532e-11
8.55185e-10
-1.02576e-10
8.69007e-10
-1.05925e-10
8.80594e-10
-1.0489e-10
8.90566e-10
-1.0041e-10
8.99155e-10
-9.26859e-11
9.06187e-10
-8.1758e-11
9.11394e-10
-6.81068e-11
9.14633e-10
-5.25458e-11
-3.58145e-11
9.15856e-10
6.97119e-13
8.07973e-12
4.79312e-12
-8.99639e-12
1.28863e-11
-3.91598e-11
2.50408e-11
-7.43498e-11
4.10801e-11
-1.10607e-10
6.07055e-11
-1.45692e-10
8.35478e-11
-1.78229e-10
1.09193e-10
-2.07339e-10
1.37196e-10
-2.32493e-10
1.67087e-10
-2.53447e-10
1.98385e-10
-2.70188e-10
2.30597e-10
-2.82887e-10
2.63232e-10
-2.91865e-10
2.95818e-10
-2.97573e-10
3.27927e-10
-3.00576e-10
3.59213e-10
-3.01525e-10
3.89477e-10
-3.01146e-10
4.18659e-10
-3.00017e-10
4.46684e-10
-2.9829e-10
4.73583e-10
-2.96332e-10
4.99695e-10
-2.94917e-10
5.25518e-10
-2.94324e-10
5.51497e-10
-2.93977e-10
5.78134e-10
-2.93124e-10
6.05476e-10
-2.90123e-10
6.3253e-10
-2.82573e-10
6.59459e-10
-2.71951e-10
6.8998e-10
-2.62595e-10
7.27346e-10
-2.45859e-10
7.66509e-10
-2.13268e-10
8.16329e-10
-1.77354e-10
8.94195e-10
-1.22358e-10
9.19286e-10
5.61637e-11
9.04505e-10
1.04133e-10
7.77607e-10
2.62595e-10
7.89883e-10
6.49647e-11
7.81305e-10
8.28296e-11
8.29299e-10
-4.59562e-11
8.64647e-10
-7.99466e-11
8.89739e-10
-1.00487e-10
9.08458e-10
-1.11972e-10
9.22466e-10
-1.16584e-10
9.33109e-10
-1.16568e-10
9.41602e-10
-1.13382e-10
9.49045e-10
-1.07853e-10
9.55806e-10
-9.94468e-11
9.61457e-10
-8.74093e-11
9.65455e-10
-7.21051e-11
9.67569e-10
-5.46595e-11
-3.59917e-11
9.67746e-10
7.56801e-13
7.3229e-12
5.05157e-12
-1.32912e-11
1.34913e-11
-4.75995e-11
2.61415e-11
-8.7e-11
4.28255e-11
-1.27291e-10
6.32435e-11
-1.6611e-10
8.70265e-11
-2.02012e-10
1.13761e-10
-2.34073e-10
1.43e-10
-2.61732e-10
1.74272e-10
-2.8472e-10
2.07083e-10
-3.02999e-10
2.40915e-10
-3.16719e-10
2.75235e-10
-3.26185e-10
3.095e-10
-3.31839e-10
3.43183e-10
-3.34259e-10
3.75801e-10
-3.34143e-10
4.07018e-10
-3.32362e-10
4.36671e-10
-3.2967e-10
4.64593e-10
-3.26212e-10
4.90852e-10
-3.22591e-10
5.15906e-10
-3.19971e-10
5.40264e-10
-3.18682e-10
5.64359e-10
-3.18072e-10
5.89089e-10
-3.17854e-10
6.14665e-10
-3.15699e-10
6.38246e-10
-3.06155e-10
6.59238e-10
-2.92943e-10
6.79777e-10
-2.83134e-10
7.03021e-10
-2.69103e-10
7.2895e-10
-2.39198e-10
7.37749e-10
-1.86153e-10
7.31772e-10
-1.1638e-10
8.47499e-10
-5.95636e-11
8.18484e-10
1.33148e-10
8.46065e-10
2.35015e-10
8.33591e-10
7.74382e-11
9.46282e-10
-2.98613e-11
9.52674e-10
-5.23478e-11
9.64783e-10
-9.20553e-11
9.77262e-10
-1.12967e-10
9.87667e-10
-1.22377e-10
9.95646e-10
-1.24563e-10
1.00114e-09
-1.22062e-10
1.00495e-09
-1.17192e-10
1.00885e-09
-1.1175e-10
1.01337e-09
-1.0397e-10
1.01748e-09
-9.15208e-11
1.02011e-09
-7.47286e-11
1.02093e-09
-5.54799e-11
-3.49543e-11
1.01989e-09
7.93074e-13
6.52984e-12
5.22693e-12
-1.7725e-11
1.39241e-11
-5.62967e-11
2.69597e-11
-1.00036e-10
4.41642e-11
-1.44495e-10
6.52457e-11
-1.87192e-10
8.98441e-11
-2.26611e-10
1.17556e-10
-2.61785e-10
1.47949e-10
-2.92124e-10
1.80562e-10
-3.17332e-10
2.14908e-10
-3.37345e-10
2.50469e-10
-3.5228e-10
2.86692e-10
-3.62407e-10
3.22983e-10
-3.6813e-10
3.5872e-10
-3.69997e-10
3.93264e-10
-3.68687e-10
4.26057e-10
-3.65155e-10
4.56709e-10
-3.60323e-10
4.84839e-10
-3.54342e-10
5.1049e-10
-3.48242e-10
5.34448e-10
-3.4393e-10
5.57317e-10
-3.4155e-10
5.79304e-10
-3.40059e-10
6.01777e-10
-3.40326e-10
6.26514e-10
-3.40436e-10
6.4744e-10
-3.27081e-10
6.65463e-10
-3.10966e-10
6.80527e-10
-2.98198e-10
6.98624e-10
-2.872e-10
7.17074e-10
-2.57647e-10
7.35418e-10
-2.04497e-10
7.7033e-10
-1.51293e-10
7.9092e-10
-8.01537e-11
8.5343e-10
7.06387e-11
9.26281e-10
1.62164e-10
9.89828e-10
1.38912e-11
1.00556e-09
-4.55948e-11
1.03518e-09
-8.1968e-11
1.04844e-09
-1.0531e-10
1.05799e-09
-1.22525e-10
1.06579e-09
-1.30169e-10
1.07089e-09
-1.2967e-10
1.07146e-09
-1.2263e-10
1.06949e-09
-1.15221e-10
1.06919e-09
-1.11447e-10
1.07162e-09
-1.06402e-10
1.07446e-09
-9.43577e-11
1.07572e-09
-7.59942e-11
1.07518e-09
-5.49425e-11
-3.26011e-11
1.07283e-09
8.04289e-13
5.7256e-12
5.31315e-12
-2.22338e-11
1.4172e-11
-6.51556e-11
2.74725e-11
-1.13336e-10
4.50594e-11
-1.62082e-10
6.6655e-11
-2.08787e-10
9.19156e-11
-2.51872e-10
1.20458e-10
-2.90328e-10
1.51872e-10
-3.23539e-10
1.85727e-10
-3.51187e-10
2.21567e-10
-3.73184e-10
2.58902e-10
-3.89615e-10
2.97198e-10
-4.00703e-10
3.35857e-10
-4.0679e-10
3.74208e-10
-4.08347e-10
4.11485e-10
-4.05964e-10
4.46855e-10
-4.00526e-10
4.79558e-10
-3.93026e-10
5.08799e-10
-3.83583e-10
5.34121e-10
-3.73563e-10
5.56783e-10
-3.66592e-10
5.7819e-10
-3.62957e-10
5.98505e-10
-3.60374e-10
6.17721e-10
-3.59542e-10
6.40194e-10
-3.62909e-10
6.63059e-10
-3.49947e-10
6.74213e-10
-3.2212e-10
6.93754e-10
-3.17739e-10
7.12185e-10
-3.05631e-10
7.32059e-10
-2.77521e-10
7.62212e-10
-2.3465e-10
7.9872e-10
-1.87801e-10
8.46299e-10
-1.27732e-10
9.0951e-10
7.42762e-12
9.91012e-10
8.06621e-11
1.02658e-09
-2.16766e-11
1.06932e-09
-8.83364e-11
1.09432e-09
-1.0697e-10
1.11662e-09
-1.2761e-10
1.13283e-09
-1.3873e-10
1.14426e-09
-1.416e-10
1.14807e-09
-1.33479e-10
1.14293e-09
-1.17491e-10
1.13365e-09
-1.05938e-10
1.12887e-09
-1.06671e-10
1.13023e-09
-1.07765e-10
1.13262e-09
-9.67438e-11
1.13262e-09
-7.5999e-11
1.1307e-09
-5.30171e-11
-2.89303e-11
1.12703e-09
7.88448e-13
4.93719e-12
5.30312e-12
-2.67484e-11
1.42202e-11
-7.40726e-11
2.7654e-11
-1.2677e-10
4.54685e-11
-1.79897e-10
6.74047e-11
-2.30724e-10
9.31394e-11
-2.77606e-10
1.22314e-10
-3.19502e-10
1.5455e-10
-3.55775e-10
1.89455e-10
-3.86092e-10
2.26622e-10
-4.10351e-10
2.65622e-10
-4.28615e-10
3.05985e-10
-4.41066e-10
3.47176e-10
-4.47981e-10
3.88567e-10
-4.49739e-10
4.29382e-10
-4.46778e-10
4.68622e-10
-4.39766e-10
5.05127e-10
-4.29531e-10
5.3741e-10
-4.15865e-10
5.63508e-10
-3.99662e-10
5.84248e-10
-3.87332e-10
6.03625e-10
-3.82334e-10
6.22742e-10
-3.79491e-10
6.41695e-10
-3.78495e-10
6.59297e-10
-3.8051e-10
6.75151e-10
-3.658e-10
6.91604e-10
-3.38574e-10
7.16855e-10
-3.42989e-10
7.37517e-10
-3.26293e-10
7.6097e-10
-3.00975e-10
7.93187e-10
-2.66866e-10
8.30559e-10
-2.25173e-10
8.68381e-10
-1.65555e-10
9.44796e-10
-6.89865e-11
1.04716e-09
-2.1706e-11
1.09562e-09
-7.0134e-11
1.1246e-09
-1.17312e-10
1.15556e-09
-1.37937e-10
1.18346e-09
-1.55504e-10
1.20594e-09
-1.61217e-10
1.21998e-09
-1.55636e-10
1.223e-09
-1.365e-10
1.21322e-09
-1.07715e-10
1.19627e-09
-8.89855e-11
1.18745e-09
-9.78438e-11
1.18983e-09
-1.10152e-10
1.19296e-09
-9.98691e-11
1.19118e-09
-7.42196e-11
1.18772e-09
-4.95603e-11
-2.40667e-11
1.18286e-09
7.4402e-13
4.1932e-12
5.19134e-12
-3.11957e-11
1.4057e-11
-8.29383e-11
2.74833e-11
-1.40196e-10
4.53567e-11
-1.9777e-10
6.74382e-11
-2.52805e-10
9.34254e-11
-3.03594e-10
1.22984e-10
-3.49061e-10
1.55765e-10
-3.88556e-10
1.91417e-10
-4.21744e-10
2.29585e-10
-4.48519e-10
2.69911e-10
-4.68941e-10
3.12015e-10
-4.8317e-10
3.55479e-10
-4.91445e-10
3.99824e-10
-4.94084e-10
4.44446e-10
-4.914e-10
4.8856e-10
-4.8388e-10
5.30957e-10
-4.71929e-10
5.69697e-10
-4.54605e-10
6.00185e-10
-4.3015e-10
6.19057e-10
-4.06204e-10
6.33669e-10
-3.96947e-10
6.51679e-10
-3.97501e-10
6.68707e-10
-3.95523e-10
6.80403e-10
-3.92206e-10
6.97929e-10
-3.83326e-10
7.29847e-10
-3.70492e-10
7.47684e-10
-3.60826e-10
7.67104e-10
-3.45713e-10
7.93747e-10
-3.27618e-10
8.25377e-10
-2.98496e-10
8.62647e-10
-2.62443e-10
9.08125e-10
-2.11033e-10
9.85682e-10
-1.46543e-10
1.07983e-09
-1.15856e-10
1.13763e-09
-1.27935e-10
1.17771e-09
-1.5739e-10
1.21511e-09
-1.75331e-10
1.24602e-09
-1.86418e-10
1.26891e-09
-1.84105e-10
1.28718e-09
-1.73914e-10
1.29898e-09
-1.48299e-10
1.28694e-09
-9.56705e-11
1.26488e-09
-6.69306e-11
1.25216e-09
-8.5119e-11
1.25571e-09
-1.13704e-10
1.25783e-09
-1.01985e-10
1.25117e-09
-6.75632e-11
1.24644e-09
-4.48312e-11
-1.83658e-11
1.24074e-09
6.70665e-13
3.52255e-12
4.97646e-12
-3.55015e-11
1.36795e-11
-9.16414e-11
2.69545e-11
-1.53471e-10
4.47114e-11
-2.15527e-10
6.67305e-11
-2.74824e-10
9.27266e-11
-3.2959e-10
1.22384e-10
-3.78718e-10
1.55375e-10
-4.21547e-10
1.91375e-10
-4.57744e-10
2.30069e-10
-4.87213e-10
2.71147e-10
-5.10018e-10
3.143e-10
-5.26322e-10
3.59208e-10
-5.36354e-10
4.05545e-10
-5.40421e-10
4.52984e-10
-5.38839e-10
5.0117e-10
-5.32066e-10
5.4987e-10
-5.20628e-10
5.98619e-10
-5.03354e-10
6.41684e-10
-4.73215e-10
6.66236e-10
-4.30755e-10
6.71785e-10
-4.02496e-10
6.82e-10
-4.07716e-10
7.06404e-10
-4.19927e-10
7.15402e-10
-4.01205e-10
7.40798e-10
-4.08722e-10
7.52548e-10
-3.82242e-10
7.67498e-10
-3.75776e-10
7.95772e-10
-3.73987e-10
8.29455e-10
-3.61301e-10
8.68346e-10
-3.37387e-10
9.10483e-10
-3.0458e-10
9.61946e-10
-2.62496e-10
1.03178e-09
-2.16373e-10
1.1095e-09
-1.9358e-10
1.17795e-09
-1.96383e-10
1.22243e-09
-2.01867e-10
1.26044e-09
-2.13346e-10
1.29416e-09
-2.20133e-10
1.3246e-09
-2.14549e-10
1.35198e-09
-2.01294e-10
1.37657e-09
-1.72886e-10
1.38563e-09
-1.04733e-10
1.35002e-09
-3.13168e-11
1.32842e-09
-6.35191e-11
1.32849e-09
-1.13779e-10
1.31898e-09
-9.24764e-11
1.31139e-09
-5.9973e-11
1.30734e-09
-4.07744e-11
-1.24617e-11
1.30143e-09
5.69701e-13
2.95287e-12
4.66333e-12
-3.95952e-11
1.30977e-11
-1.00076e-10
2.60831e-11
-1.66457e-10
4.35536e-11
-2.32998e-10
6.53056e-11
-2.96576e-10
9.10661e-11
-3.5535e-10
1.20528e-10
-4.0818e-10
1.53372e-10
-4.54392e-10
1.89283e-10
-4.93655e-10
2.27953e-10
-5.25883e-10
2.69082e-10
-5.51148e-10
3.12372e-10
-5.69613e-10
3.57518e-10
-5.815e-10
4.04206e-10
-5.87109e-10
4.52167e-10
-5.868e-10
5.01197e-10
-5.81095e-10
5.52546e-10
-5.71978e-10
6.07504e-10
-5.58311e-10
6.6481e-10
-5.30521e-10
7.18874e-10
-4.84819e-10
7.36891e-10
-4.20513e-10
7.24214e-10
-3.95039e-10
7.39205e-10
-4.34918e-10
7.29237e-10
-3.91237e-10
7.52834e-10
-4.32318e-10
7.53358e-10
-3.82766e-10
7.86083e-10
-4.08501e-10
8.27739e-10
-4.15643e-10
8.71483e-10
-4.05045e-10
9.18841e-10
-3.84745e-10
9.68746e-10
-3.54485e-10
1.02611e-09
-3.19859e-10
1.09401e-09
-2.84274e-10
1.16111e-09
-2.60684e-10
1.21559e-09
-2.50861e-10
1.26039e-09
-2.46669e-10
1.2991e-09
-2.52049e-10
1.33459e-09
-2.55631e-10
1.36979e-09
-2.49743e-10
1.40467e-09
-2.36177e-10
1.44208e-09
-2.10294e-10
1.49127e-09
-1.53924e-10
1.50775e-09
-4.78003e-11
1.4329e-09
1.13308e-11
1.38828e-09
-6.91574e-11
1.39088e-09
-9.50802e-11
1.38316e-09
-5.22474e-11
1.37546e-09
-3.3079e-11
-5.41262e-12
1.36841e-09
4.44479e-13
2.5084e-12
4.2639e-12
-4.34147e-11
1.23362e-11
-1.08148e-10
2.49102e-11
-1.79031e-10
4.19435e-11
-2.50031e-10
6.3246e-11
-3.17879e-10
8.85504e-11
-3.80655e-10
1.1755e-10
-4.37179e-10
1.49919e-10
-4.86761e-10
1.85333e-10
-5.29069e-10
2.23468e-10
-5.64017e-10
2.63999e-10
-5.91679e-10
3.06594e-10
-6.12208e-10
3.50896e-10
-6.25802e-10
3.96466e-10
-6.32679e-10
4.42667e-10
-6.33001e-10
4.89915e-10
-6.28344e-10
5.3556e-10
-6.17623e-10
5.86506e-10
-6.09257e-10
6.41413e-10
-5.85428e-10
6.77159e-10
-5.20565e-10
7.34397e-10
-4.7775e-10
7.95654e-10
-4.56297e-10
8.01177e-10
-4.4044e-10
6.75966e-10
-2.66027e-10
7.27184e-10
-4.83536e-10
7.70048e-10
-4.25629e-10
8.26333e-10
-4.64787e-10
8.70369e-10
-4.59679e-10
9.19708e-10
-4.54384e-10
9.7187e-10
-4.36907e-10
1.02496e-09
-4.07576e-10
1.08234e-09
-3.7724e-10
1.14778e-09
-3.49714e-10
1.21047e-09
-3.23371e-10
1.2601e-09
-3.00497e-10
1.30002e-09
-2.86589e-10
1.33198e-09
-2.84e-10
1.36507e-09
-2.88723e-10
1.39595e-09
-2.80624e-10
1.42511e-09
-2.65337e-10
1.45554e-09
-2.4073e-10
1.49998e-09
-1.98363e-10
1.54775e-09
-9.55705e-11
1.55137e-09
7.71876e-12
1.51183e-09
-2.96195e-11
1.49732e-09
-8.05708e-11
1.46175e-09
-1.66771e-11
1.45592e-09
-2.72515e-11
8.80887e-12
1.4417e-09
3.00308e-13
2.20806e-12
3.79716e-12
-4.69116e-11
1.14343e-11
-1.15785e-10
2.35014e-11
-1.91098e-10
3.99796e-11
-2.66509e-10
6.06898e-11
-3.38589e-10
8.53664e-11
-4.05331e-10
1.13696e-10
-4.65508e-10
1.45339e-10
-5.18405e-10
1.79949e-10
-5.63678e-10
2.17172e-10
-6.01241e-10
2.56649e-10
-6.31156e-10
2.98002e-10
-6.53561e-10
3.40807e-10
-6.68607e-10
3.84442e-10
-6.76313e-10
4.2871e-10
-6.77269e-10
4.70268e-10
-6.69902e-10
5.09106e-10
-6.56461e-10
5.46716e-10
-6.46868e-10
5.68469e-10
-6.07181e-10
5.76677e-10
-5.28773e-10
5.58585e-10
-4.59657e-10
5.13353e-10
-4.11065e-10
6.18252e-10
-5.45339e-10
8.1639e-10
-4.64165e-10
8.87768e-10
-5.54914e-10
8.92967e-10
-4.30828e-10
9.10481e-10
-4.82301e-10
9.44129e-10
-4.93327e-10
9.78919e-10
-4.89174e-10
1.02612e-09