/*--------------------------------*- C++ -*----------------------------------*\
| =========                 |                                                 |
| \\      /  F ield         | OpenFOAM: The Open Source CFD Toolbox           |
|  \\    /   O peration     | Version:  2.4.0                                 |
|   \\  /    A nd           | Web:      www.OpenFOAM.org                      |
|    \\/     M anipulation  |                                                 |
\*---------------------------------------------------------------------------*/
FoamFile
{
    version     2.0;
    format      ascii;
    class       volScalarField;
    location    "0.087";
    object      alpha.water;
}
// * * * * * * * * * * * * * * * * * * * * * * * * * * * * * * * * * * * * * //

dimensions      [0 0 0 0 0 0 0];

internalField   nonuniform List<scalar> 
10000
(
3.95994e-89
5.92955e-85
2.69441e-81
6.21724e-78
9.03582e-75
9.49386e-72
8.13155e-69
6.16594e-66
4.24262e-63
2.66076e-60
1.46105e-57
6.89336e-55
2.67238e-52
8.10083e-50
1.87009e-47
3.24775e-45
4.30333e-43
4.45777e-41
3.64375e-39
2.31184e-37
1.10561e-35
3.88897e-34
9.91683e-33
1.806e-31
2.30474e-30
2.02261e-29
1.19285e-28
4.64279e-28
1.22183e-27
1.88466e-27
1.76593e-27
1.0171e-27
3.55677e-28
7.264e-29
7.9525e-30
4.20978e-31
1.27316e-32
2.28839e-34
5.97826e-36
1.44879e-37
3.04316e-39
5.56015e-41
8.86962e-43
1.22583e-44
1.43689e-46
1.37858e-48
1.02541e-50
5.40991e-53
1.73568e-55
2.71101e-58
2.12807e-84
2.44003e-80
8.99132e-77
1.7294e-73
2.12387e-70
1.89653e-67
1.37762e-64
8.77646e-62
5.00991e-59
2.52508e-56
1.12496e-53
4.30976e-51
1.37393e-48
3.43445e-46
6.54051e-44
9.46029e-42
1.04963e-39
9.08673e-38
6.21826e-36
3.33904e-34
1.37492e-32
4.23663e-31
9.61262e-30
1.58215e-28
1.85605e-27
1.52557e-26
8.60639e-26
3.28405e-25
8.79536e-25
1.40822e-24
1.41367e-24
9.09575e-25
3.75167e-25
9.74653e-26
1.53197e-26
1.39268e-27
9.08134e-29
5.97689e-30
4.03256e-31
2.45404e-32
1.32493e-33
6.34345e-35
2.68241e-36
9.8962e-38
3.117e-39
8.11362e-41
1.66326e-42
2.48122e-44
2.29202e-46
8.25426e-49
7.01418e-81
8.03413e-77
2.89794e-73
5.27898e-70
5.91079e-67
4.6879e-64
2.99378e-61
1.66735e-58
8.32182e-56
3.7878e-53
1.52829e-50
5.24226e-48
1.46576e-45
3.21237e-43
5.42679e-41
6.85583e-39
6.5521e-37
4.80743e-35
2.76442e-33
1.25565e-31
4.44757e-30
1.20141e-28
2.43176e-27
3.62931e-26
3.92593e-25
3.03079e-24
1.63957e-23
6.14516e-23
1.67963e-22
2.78469e-22
2.97036e-22
2.09958e-22
9.90607e-23
3.09721e-23
6.2868e-24
8.10325e-25
8.19158e-26
8.61894e-27
8.722e-28
7.98315e-29
6.55265e-30
4.81328e-31
3.14454e-32
1.80324e-33
8.88757e-35
3.65175e-36
1.19599e-37
2.90248e-39
4.51589e-41
2.84132e-43
7.61643e-78
9.18014e-74
3.39598e-70
6.10665e-67
6.43186e-64
4.66375e-61
2.73044e-58
1.38706e-55
6.37239e-53
2.61344e-50
9.44601e-48
2.88184e-45
7.25867e-43
1.41069e-40
2.06504e-38
2.25008e-36
1.8355e-34
1.14585e-32
5.58398e-31
2.15835e-29
6.58788e-28
1.56074e-26
2.81999e-25
3.81982e-24
3.81339e-23
2.76675e-22
1.43567e-21
5.2844e-21
1.47629e-20
2.52535e-20
2.83974e-20
2.17558e-20
1.14881e-20
4.17276e-21
1.03041e-21
1.7053e-22
2.29882e-23
3.17932e-24
4.15116e-25
4.92646e-26
5.28273e-27
5.10372e-28
4.41078e-29
3.36456e-30
2.21958e-31
1.23005e-32
5.48753e-34
1.83927e-35
4.05212e-37
3.96944e-39
4.72788e-75
6.07173e-71
2.34232e-67
4.21665e-64
4.26118e-61
2.9377e-58
1.58025e-55
7.22796e-53
2.99419e-50
1.10624e-47
3.58789e-45
9.66643e-43
2.10725e-40
3.52414e-38
4.40276e-36
4.11946e-34
2.89359e-32
1.55297e-30
6.47752e-29
2.14344e-27
5.64687e-26
1.17254e-24
1.88963e-23
2.32188e-22
2.13829e-21
1.45713e-20
7.24565e-20
2.61566e-19
7.47779e-19
1.31455e-18
1.54712e-18
1.27081e-18
7.39171e-19
3.04663e-19
8.82829e-20
1.77761e-20
2.95267e-21
4.9527e-22
7.79329e-23
1.11991e-23
1.463e-24
1.73151e-25
1.84237e-26
1.73886e-27
1.42717e-28
9.90403e-30
5.57622e-31
2.3828e-32
6.80979e-34
9.20723e-36
2.16845e-72
2.93814e-68
1.17838e-64
2.12147e-61
2.06325e-58
1.32188e-55
6.39663e-53
2.65799e-50
9.79554e-48
3.24588e-45
9.08614e-43
2.12333e-40
3.91443e-38
5.56968e-36
5.96185e-34
4.8099e-32
2.92541e-30
1.36007e-28
4.89742e-27
1.39627e-25
3.18216e-24
5.78608e-23
8.30193e-22
9.23822e-21
7.83647e-20
5.00744e-19
2.3815e-18
8.41324e-18
2.4643e-17
4.43262e-17
5.42334e-17
4.73298e-17
2.99576e-17
1.37827e-17
4.57971e-18
1.08682e-18
2.12808e-19
4.14972e-20
7.58166e-21
1.27058e-21
1.94553e-22
2.71164e-23
3.41271e-24
3.82673e-25
3.74957e-26
3.12328e-27
2.12347e-28
1.10361e-29
3.88066e-31
6.71767e-33
8.61142e-70
1.1959e-65
4.84282e-62
8.44116e-59
7.66785e-56
4.39998e-53
1.91016e-50
7.12725e-48
2.349e-45
6.69607e-43
1.62216e-40
3.21001e-38
5.01744e-36
6.0859e-34
5.59176e-32
3.89764e-30
2.05935e-28
8.33666e-27
2.60995e-25
6.45267e-24
1.27631e-22
2.03117e-21
2.58859e-20
2.60188e-19
2.02799e-18
1.21209e-17
5.49816e-17
1.89518e-16
5.69525e-16
1.04313e-15
1.31808e-15
1.2124e-15
8.26933e-16
4.19527e-16
1.57376e-16
4.31641e-17
9.70397e-18
2.14625e-18
4.45247e-19
8.50711e-20
1.4916e-20
2.39023e-21
3.47186e-22
4.51074e-23
5.14253e-24
5.00613e-25
3.99596e-26
2.45055e-27
1.02456e-28
2.16303e-30
3.18818e-67
4.3315e-63
1.68282e-59
2.70078e-56
2.21066e-53
1.12642e-50
4.37409e-48
1.43807e-45
4.15175e-43
1.0182e-40
2.11307e-38
3.55306e-36
4.72062e-34
4.886e-32
3.85601e-30
2.32343e-28
1.06804e-26
3.77627e-25
1.03337e-23
2.22883e-22
3.84205e-21
5.3538e-20
6.04613e-19
5.47116e-18
3.9054e-17
2.17604e-16
9.38102e-16
3.14349e-15
9.70748e-15
1.80043e-14
2.33381e-14
2.24592e-14
1.63691e-14
9.06979e-15
3.79836e-15
1.18812e-15
3.01965e-16
7.46131e-17
1.73386e-17
3.72418e-18
7.36698e-19
1.33633e-19
2.2044e-20
3.2636e-21
4.25482e-22
4.75355e-23
4.36992e-24
3.09774e-25
1.50495e-26
3.75313e-28
1.11594e-64
1.4088e-60
4.96294e-57
7.0129e-54
5.05613e-51
2.28383e-48
7.85013e-46
2.26169e-43
5.61958e-41
1.18881e-38
2.10004e-36
3.0096e-34
3.40665e-32
3.01113e-30
2.04147e-28
1.06303e-26
4.25224e-25
1.31482e-23
3.15598e-22
5.96828e-21
9.00755e-20
1.10081e-18
1.0996e-17
8.9254e-17
5.81126e-16
3.00624e-15
1.22642e-14
3.97783e-14
1.26479e-13
2.35989e-13
3.11594e-13
3.11477e-13
2.40745e-13
1.44499e-13
6.69756e-14
2.36695e-14
6.74062e-15
1.84281e-15
4.75625e-16
1.13825e-16
2.51575e-17
5.11222e-18
9.47229e-19
1.57954e-19
2.32609e-20
2.94383e-21
3.07418e-22
2.48269e-23
1.37958e-24
3.97953e-26
3.62372e-62
4.07816e-58
1.24689e-54
1.50619e-51
9.38784e-49
3.73477e-46
1.12868e-43
2.84129e-41
6.07373e-39
1.09896e-36
1.64701e-34
2.01495e-32
1.94725e-30
1.47127e-28
8.5704e-27
3.85459e-25
1.34086e-23
3.62555e-22
7.64669e-21
1.27245e-19
1.68888e-18
1.81494e-17
1.60231e-16
1.16252e-15
6.87265e-15
3.28507e-14
1.26187e-13
3.94199e-13
1.29355e-12
2.40904e-12
3.2151e-12
3.31445e-12
2.6971e-12
1.74068e-12
8.86384e-13
3.51439e-13
1.11592e-13
3.35461e-14
9.56359e-15
2.53492e-15
6.21846e-16
1.40533e-16
2.90188e-17
5.40456e-18
8.90938e-19
1.2651e-19
1.48574e-20
1.35281e-21
8.504e-23
2.79776e-24
1.05848e-59
1.03301e-55
2.67502e-52
2.72301e-49
1.45267e-46
5.04808e-44
1.34314e-41
2.95486e-39
5.45467e-37
8.37892e-35
1.06236e-32
1.09648e-30
9.03495e-29
5.83971e-27
2.9238e-25
1.13535e-23
3.43122e-22
8.1054e-21
1.50243e-19
2.20427e-18
2.58221e-17
2.448e-16
1.91095e-15
1.23574e-14
6.60218e-14
2.90021e-13
1.043e-12
3.12117e-12
1.05992e-11
1.95143e-11
2.60997e-11
2.75436e-11
2.34301e-11
1.61448e-11
8.97072e-12
3.96663e-12
1.40071e-12
4.61543e-13
1.44829e-13
4.23279e-14
1.14638e-14
2.86446e-15
6.55101e-16
1.35388e-16
2.48159e-17
3.92618e-18
5.14867e-19
5.24726e-20
3.7034e-21
1.37665e-22
2.71435e-57
2.2479e-53
4.85681e-50
4.19133e-47
1.93024e-44
5.84638e-42
1.35904e-39
2.60975e-37
4.17248e-35
5.47805e-33
5.85727e-31
5.05272e-29
3.49936e-27
1.92088e-25
8.26165e-24
2.76883e-22
7.26287e-21
1.49701e-19
2.43654e-18
3.15302e-17
3.26726e-16
2.74097e-15
1.89474e-14
1.09019e-13
5.24084e-13
2.10361e-12
7.03875e-12
2.00618e-11
7.0725e-11
1.27209e-10
1.68868e-10
1.81059e-10
1.59879e-10
1.16799e-10
7.03436e-11
3.44931e-11
1.35771e-11
4.89739e-12
1.68696e-12
5.41598e-13
1.61232e-13
4.43337e-14
1.11743e-14
2.5494e-15
5.16777e-16
9.05865e-17
1.31878e-17
1.49553e-18
1.17795e-19
4.91256e-21
6.15271e-55
4.24294e-51
7.55459e-48
5.51561e-45
2.21658e-42
5.94741e-40
1.21679e-37
2.03733e-35
2.80591e-33
3.13504e-31
2.833e-29
2.04868e-27
1.17978e-25
5.41112e-24
1.97225e-22
5.67995e-21
1.29113e-19
2.31885e-18
3.30893e-17
3.77382e-16
3.46128e-15
2.57536e-14
1.57967e-13
8.08345e-13
3.48435e-12
1.27066e-11
3.92985e-11
1.0608e-10
3.89518e-10
6.7437e-10
8.78858e-10
9.50471e-10
8.65284e-10
6.65468e-10
4.31452e-10
2.33267e-10
1.02875e-10
4.07112e-11
1.53607e-11
5.39973e-12
1.76115e-12
5.31074e-13
1.46952e-13
3.68508e-14
8.22156e-15
1.5887e-15
2.55443e-16
3.20672e-17
2.80442e-18
1.30467e-19
1.2438e-52
7.08625e-49
1.04099e-45
6.45776e-43
2.26724e-40
5.40371e-38
9.78648e-36
1.42968e-33
1.69651e-31
1.61639e-29
1.22609e-27
7.38886e-26
3.54484e-24
1.35829e-22
4.13346e-21
1.00365e-19
1.95605e-18
3.05048e-17
3.80823e-16
3.82152e-15
3.09971e-14
2.04745e-13
1.11629e-12
5.08338e-12
1.96044e-11
6.46242e-11
1.83542e-10
4.66851e-10
1.79078e-09
2.92925e-09
3.70066e-09
4.01548e-09
3.74552e-09
3.00982e-09
2.08527e-09
1.23558e-09
6.12566e-10
2.65738e-10
1.09466e-10
4.20316e-11
1.4991e-11
4.94756e-12
1.49939e-12
4.1213e-13
1.00889e-13
2.14208e-14
3.7912e-15
5.25139e-16
5.08302e-17
2.62792e-18
2.24746e-50
1.06113e-46
1.30213e-43
6.96041e-41
2.14705e-38
4.53832e-36
7.21338e-34
9.08437e-32
9.20358e-30
7.43317e-28
4.7383e-26
2.38914e-24
9.56013e-23
3.0483e-21
7.7514e-20
1.58343e-18
2.60544e-17
3.46626e-16
3.75512e-15
3.30504e-14
2.36572e-13
1.38654e-12
6.72423e-12
2.728e-11
9.40523e-11
2.79189e-10
7.23977e-10
1.72855e-09
6.93435e-09
1.0474e-08
1.26378e-08
1.37611e-08
1.30904e-08
1.08983e-08
7.99431e-09
5.15762e-09
2.86288e-09
1.36863e-09
6.1468e-10
2.58088e-10
1.00687e-10
3.63452e-11
1.20479e-11
3.62375e-12
9.7155e-13
2.26214e-13
4.39865e-14
6.70996e-15
7.17347e-16
4.10829e-17
3.55624e-48
1.40886e-44
1.46273e-41
6.77873e-39
1.83441e-36
3.41013e-34
4.72934e-32
5.10513e-30
4.37673e-28
2.98226e-26
1.60156e-24
6.77642e-23
2.27063e-21
6.06343e-20
1.29553e-18
2.22712e-17
3.09495e-16
3.50101e-15
3.24708e-14
2.46892e-13
1.54986e-12
8.04305e-12
3.46715e-11
1.25425e-10
3.86664e-10
1.03159e-09
2.4322e-09
5.43911e-09
2.27201e-08
3.08868e-08
3.50028e-08
3.84724e-08
3.72551e-08
3.19372e-08
2.44748e-08
1.70614e-08
1.05596e-08
5.61297e-09
2.75483e-09
1.26902e-09
5.42722e-10
2.14432e-10
7.77119e-11
2.55383e-11
7.48047e-12
1.904e-12
4.05256e-13
6.78091e-14
7.97162e-15
5.02887e-16
4.70122e-46
1.58276e-42
1.40503e-39
5.65014e-37
1.33187e-34
2.14465e-32
2.56442e-30
2.36075e-28
1.70713e-26
9.82327e-25
4.47997e-23
1.60995e-21
4.5821e-20
1.03824e-18
1.8824e-17
2.74532e-16
3.24413e-15
3.13296e-14
2.48592e-13
1.6264e-12
8.84813e-12
4.01987e-11
1.53479e-10
4.95232e-10
1.36612e-09
3.27647e-09
7.01157e-09
1.4671e-08
6.26201e-08
7.5079e-08
7.90629e-08
8.49438e-08
8.43867e-08
7.50143e-08
6.013e-08
4.48967e-08
3.08997e-08
1.8585e-08
1.00364e-08
5.07527e-09
2.37685e-09
1.02635e-09
4.05912e-10
1.45412e-10
4.64027e-11
1.28681e-11
2.98659e-12
5.45799e-13
7.02181e-14
4.84928e-15
5.11349e-44
1.46767e-40
1.11438e-37
3.86471e-35
7.872e-33
1.08718e-30
1.10723e-28
8.67601e-27
5.31796e-25
2.58164e-23
1.00006e-21
3.07438e-20
7.50254e-19
1.46076e-17
2.28049e-16
2.86929e-15
2.92593e-14
2.43439e-13
1.6633e-12
9.39996e-12
4.43196e-11
1.75445e-10
5.87438e-10
1.68077e-09
4.15221e-09
8.9766e-09
1.74638e-08
3.40774e-08
1.41312e-07
1.48701e-07
1.52022e-07
9.51289e-08
9.20018e-08
8.3405e-08
1.18971e-07
9.45366e-08
7.19789e-08
4.97129e-08
2.98908e-08
1.66236e-08
8.5363e-09
4.02897e-09
1.73673e-09
6.76664e-10
2.34544e-10
7.06209e-11
1.78051e-11
3.53909e-12
4.95959e-13
3.72705e-14
4.49235e-42
1.09563e-38
7.08138e-36
2.10518e-33
3.68434e-31
4.36075e-29
3.77987e-27
2.51108e-25
1.30852e-23
5.39437e-22
1.77639e-20
4.6861e-19
9.86265e-18
1.66105e-16
2.24977e-15
2.46266e-14
2.18984e-13
1.59042e-12
9.48834e-12
4.67987e-11
1.92388e-10
6.6514e-10
1.95455e-09
4.9426e-09
1.08745e-08
2.12471e-08
3.78177e-08
6.7936e-08
2.50867e-07
1.83357e-07
1.86874e-07
1.95479e-06
3.22186e-06
1.49039e-06
1.70299e-07
1.70664e-07
1.36829e-07
1.05244e-07
7.17311e-08
4.42316e-08
2.51191e-08
1.30292e-08
6.13749e-09
2.60215e-09
9.78718e-10
3.19264e-10
8.71666e-11
1.8772e-11
2.8526e-12
2.31885e-13
3.09405e-40
6.43743e-37
3.55714e-34
9.08536e-32
1.36717e-29
1.38637e-27
1.02567e-25
5.79469e-24
2.5641e-22
9.02367e-21
2.53823e-19
5.7459e-18
1.04772e-16
1.53358e-15
1.80997e-14
1.73061e-13
1.34719e-12
8.58295e-12
4.50085e-11
1.95498e-10
7.0849e-10
2.16089e-09
5.60767e-09
1.25704e-08
2.47398e-08
4.37472e-08
7.15562e-08
1.16589e-07
3.57114e-07
9.42732e-07
6.16875e-06
1.04984e-05
1.04946e-05
1.04098e-05
5.5728e-06
4.06231e-07
2.12971e-07
1.78292e-07
1.37975e-07
9.58178e-08
6.06278e-08
3.478e-08
1.79989e-08
8.33489e-09
3.40826e-09
1.20484e-09
3.55832e-10
8.28438e-11
1.3607e-11
1.19049e-12
1.63488e-38
2.93855e-35
1.40615e-32
3.11184e-30
4.04181e-28
3.51731e-26
2.22302e-24
1.07126e-22
4.04675e-21
1.21684e-19
2.94125e-18
5.73363e-17
9.05875e-16
1.15756e-14
1.19544e-13
1.00219e-12
6.85231e-12
3.84059e-11
1.77467e-10
6.80549e-10
2.18286e-09
5.91287e-09
1.36913e-08
2.75214e-08
4.89785e-08
7.91867e-08
1.19937e-07
1.8814e-07
1.93022e-07
6.98611e-06
1.04768e-05
1.04938e-05
1.05028e-05
1.04766e-05
1.0391e-05
1.54159e-06
2.25227e-07
2.21318e-07
1.97282e-07
1.58408e-07
1.13863e-07
7.34846e-08
4.23885e-08
2.16957e-08
9.73586e-09
3.75581e-09
1.20557e-09
3.04233e-10
5.40457e-11
5.08066e-12
6.49473e-37
1.02241e-33
4.29673e-31
8.35502e-29
9.4868e-27
7.15693e-25
3.88693e-23
1.6012e-21
5.1731e-20
1.33581e-18
2.78099e-17
4.69452e-16
6.43561e-15
7.19381e-14
6.5274e-13
4.81616e-12
2.90222e-11
1.43539e-10
5.86076e-10
1.98945e-09
5.66346e-09
1.36713e-08
2.8388e-08
5.16514e-08
8.42901e-08
1.26985e-07
1.77869e-07
1.92284e-07
2.0989e-07
7.13316e-06
9.93237e-06
9.08752e-06
7.56376e-06
5.1648e-06
1.19349e-06
2.57703e-07
3.7634e-07
2.26277e-07
2.23932e-07
2.04434e-07
1.67584e-07
1.22772e-07
7.97962e-08
4.56456e-08
2.27123e-08
9.64692e-09
3.38932e-09
9.31808e-10
1.79579e-10
1.81611e-11
1.90751e-35
2.67614e-32
1.00387e-29
1.74126e-27
1.75549e-25
1.16545e-23
5.50904e-22
1.95668e-20
5.42503e-19
1.20376e-17
2.16534e-16
3.17367e-15
3.79837e-14
3.71287e-13
2.96917e-12
1.93583e-11
1.03197e-10
4.51988e-10
1.63625e-09
4.9336e-09
1.25128e-08
2.70419e-08
5.06508e-08
8.40377e-08
1.27037e-07
1.8166e-07
1.86185e-07
6.56023e-07
2.8172e-06
7.06086e-07
2.56374e-07
2.49499e-07
2.49599e-07
2.49823e-07
2.49968e-07
2.49844e-07
2.4864e-07
2.47904e-07
2.43072e-07
2.31999e-07
2.07303e-07
1.68934e-07
1.23027e-07
7.87913e-08
4.36939e-08
2.05617e-08
7.95601e-09
2.39572e-09
5.03007e-10
5.48826e-11
4.04672e-34
5.13897e-31
1.74813e-28
2.74819e-26
2.50055e-24
1.48715e-22
6.23791e-21
1.94545e-19
4.69005e-18
8.99466e-17
1.4e-15
1.78701e-14
1.87237e-13
1.60993e-12
1.13542e-11
6.56772e-11
3.11077e-10
1.21175e-09
3.90642e-09
1.05109e-08
2.38733e-08
4.64672e-08
7.90384e-08
1.2036e-07
1.69327e-07
2.03983e-07
9.04356e-07
6.54142e-06
7.99259e-06
3.40331e-06
2.57333e-07
2.4949e-07
2.59046e-07
2.62053e-07
2.66123e-07
2.56184e-07
2.64007e-07
2.46363e-07
2.44108e-07
2.39342e-07
2.27029e-07
2.0158e-07
1.62322e-07
1.15618e-07
7.13107e-08
3.72059e-08
1.58882e-08
5.25395e-09
1.20515e-09
1.42374e-10
6.13747e-33
7.15685e-30
2.23996e-27
3.23834e-25
2.69944e-23
1.46151e-21
5.53751e-20
1.54663e-18
3.30969e-17
5.58769e-16
7.60623e-15
8.47507e-14
7.79505e-13
5.9156e-12
3.69692e-11
1.90111e-10
8.04121e-10
2.80075e-09
8.08632e-09
1.95357e-08
4.00061e-08
7.0646e-08
1.09837e-07
1.5325e-07
1.68438e-07
8.87792e-07
6.84762e-06
7.99692e-06
8.00125e-06
7.60874e-06
3.17828e-07
2.54535e-07
2.89403e-07
2.79579e-07
2.96755e-07
2.69041e-07
2.5675e-07
2.53061e-07
2.51058e-07
2.46967e-07
2.38448e-07
2.22134e-07
1.92744e-07
1.50286e-07
1.02165e-07
5.88127e-08
2.76514e-08
1.00318e-08
2.51454e-09
3.23073e-10
6.60206e-32
7.15339e-29
2.08127e-26
2.79285e-24
2.15487e-22
1.07685e-20
3.75497e-19
9.60955e-18
1.87114e-16
2.84838e-15
3.46285e-14
3.41905e-13
2.77499e-12
1.86428e-11
1.03662e-10
4.76154e-10
1.80658e-09
5.66359e-09
1.47514e-08
3.22557e-08
6.00823e-08
9.71443e-08
1.39081e-07
1.78663e-07
1.89764e-07
2.61751e-06
7.99424e-06
8.00113e-06
7.48379e-06
9.26935e-07
2.80214e-07
2.67626e-07
3.44037e-07
5.63543e-07
3.40621e-07
2.78465e-07
2.62922e-07
2.59529e-07
2.59361e-07
2.57608e-07
2.5181e-07
2.39453e-07
2.00856e-07
1.64388e-07
1.23919e-07
8.00165e-08
4.19584e-08
1.68248e-08
4.62709e-09
6.52478e-10
4.98572e-31
5.07484e-28
1.3863e-25
1.74437e-23
1.26052e-21
5.89434e-20
1.92064e-18
4.58228e-17
8.28781e-16
1.16545e-14
1.29864e-13
1.16395e-12
8.49657e-12
5.10292e-11
2.53864e-10
1.04737e-09
3.58301e-09
1.01864e-08
2.41473e-08
4.82605e-08
8.26463e-08
1.23797e-07
1.65808e-07
2.02527e-07
2.08364e-07
1.89463e-06
7.84377e-06
7.65602e-06
8.42425e-07
2.71009e-07
2.73564e-07
2.85377e-07
4.46335e-07
5.63575e-07
3.67683e-07
2.75758e-07
2.6374e-07
2.61332e-07
2.64802e-07
2.64913e-07
2.6138e-07
2.45632e-07
2.3152e-07
1.81863e-07
1.45477e-07
1.00006e-07
5.72836e-08
2.52276e-08
7.60626e-09
1.18524e-09
2.62246e-30
2.54323e-27
6.61349e-25
7.91477e-23
5.43578e-21
2.41343e-19
7.45487e-18
1.68231e-16
2.86989e-15
3.79294e-14
3.95406e-13
3.29517e-12
2.2182e-11
1.21713e-10
5.49145e-10
2.05344e-09
6.38539e-09
1.65714e-08
3.60914e-08
6.65842e-08
1.05876e-07
1.48423e-07
1.88541e-07
2.23923e-07
2.7286e-07
2.6119e-07
5.14969e-07
1.01819e-06
2.85607e-07
2.77769e-07
2.78252e-07
2.86126e-07
4.22128e-07
4.12383e-07
3.18219e-07
2.6643e-07
2.6376e-07
2.85003e-07
2.68249e-07
2.69081e-07
2.6336e-07
3.43205e-07
3.96005e-07
2.77432e-07
1.27859e-07
1.12888e-07
7.08639e-08
3.42125e-08
1.12891e-08
1.95319e-09
9.50026e-30
8.93563e-27
2.25129e-24
2.60788e-22
1.73169e-20
7.42144e-19
2.208e-17
4.78643e-16
7.81895e-15
9.86056e-14
9.77108e-13
7.70799e-12
4.888e-11
2.5108e-10
1.05192e-09
3.62363e-09
1.03659e-08
2.47802e-08
4.99638e-08
8.5802e-08
1.27634e-07
1.68443e-07
2.02839e-07
2.28985e-07
2.46725e-07
2.56134e-07
2.56871e-07
2.63163e-07
2.78031e-07
3.01193e-07
3.54021e-07
2.73513e-07
2.64555e-07
2.63745e-07
2.65203e-07
2.65312e-07
2.65894e-07
2.66212e-07
2.67775e-07
2.70542e-07
2.7109e-07
2.70116e-07
3.96003e-07
2.56207e-07
1.19299e-07
1.13688e-07
7.99065e-08
4.23638e-08
1.52152e-08
2.93217e-09
2.33001e-29
2.17263e-26
5.41838e-24
6.20362e-22
4.06378e-20
1.71402e-18
5.00417e-17
1.06091e-15
1.68848e-14
2.06596e-13
1.97763e-12
1.50046e-11
9.11274e-11
4.46437e-10
1.77545e-09
5.76767e-09
1.54336e-08
3.44588e-08
6.48435e-08
1.04433e-07
1.46476e-07
1.83524e-07
2.11782e-07
2.32074e-07
2.48117e-07
2.67019e-07
2.73852e-07
6.02366e-07
4.59413e-06
9.21822e-06
1.02701e-05
1.2631e-06
2.6644e-07
2.64483e-07
2.68243e-07
2.67774e-07
2.66678e-07
2.68444e-07
2.72533e-07
2.76512e-07
2.76641e-07
2.75442e-07
2.71078e-07
2.38468e-07
1.97982e-07
1.00571e-07
8.61621e-08
4.89476e-08
1.87086e-08
3.99045e-09
3.77695e-29
3.5845e-26
9.07482e-24
1.05219e-21
6.96122e-20
2.956e-18
8.65686e-17
1.83329e-15
2.90108e-14
3.51183e-13
3.30846e-12
2.45728e-11
1.45332e-10
6.89997e-10
2.64781e-09
8.26545e-09
2.11377e-08
4.47359e-08
7.96836e-08
1.21448e-07
1.62147e-07
1.95081e-07
2.18538e-07
2.35166e-07
2.49383e-07
2.65928e-07
2.68679e-07
9.10387e-07
1.40451e-05
1.6722e-05
1.67206e-05
1.23915e-05
2.68617e-07
2.64691e-07
2.73094e-07
2.68686e-07
2.70324e-07
2.77126e-07
2.90853e-07
2.96496e-07
2.85336e-07
2.81375e-07
2.93796e-07
4.17357e-07
4.21606e-07
1.16375e-07
9.44222e-08
5.29269e-08
2.07492e-08
4.85511e-09
3.91817e-29
3.90697e-26
1.03406e-23
1.24851e-21
8.56918e-20
3.75985e-18
1.13268e-16
2.45537e-15
3.95576e-14
4.84666e-13
4.59274e-12
3.40899e-11
2.00173e-10
9.37468e-10
3.52724e-09
1.0738e-08
2.66561e-08
5.44883e-08
9.30739e-08
1.35978e-07
1.74536e-07
2.03442e-07
2.22849e-07
2.3609e-07
2.46898e-07
2.58196e-07
2.58596e-07
3.21421e-07
9.05783e-06
1.6722e-05
1.66985e-05
1.66766e-05
2.7611e-06
2.64928e-07
2.75408e-07
2.74988e-07
2.81131e-07
3.15015e-07
4.4346e-07
4.1165e-07
3.31774e-07
5.57739e-07
1.39244e-06
2.97338e-06
4.36263e-07
1.02365e-07
9.38093e-08
5.12379e-08
2.03424e-08
5.19443e-09
2.49139e-29
2.7148e-26
7.77505e-24
1.00907e-21
7.40429e-20
3.45537e-18
1.10131e-16
2.51152e-15
4.2306e-14
5.38376e-13
5.26124e-12
3.99693e-11
2.38315e-10
1.12416e-09
4.22598e-09
1.27562e-08
3.11872e-08
6.24448e-08
1.04005e-07
1.4759e-07
1.84328e-07
2.10031e-07
2.26107e-07
2.36159e-07
2.43192e-07
2.48992e-07
2.5441e-07
2.52969e-07
2.56226e-07
7.16422e-06
1.66769e-05
1.64115e-05
4.44535e-06
2.66511e-07
2.77241e-07
2.93254e-07
3.52557e-07
6.68279e-07
1.98949e-06
3.64107e-06
5.21511e-06
7.3364e-05
6.59216e-06
5.82804e-06
1.33368e-07
1.14954e-07
7.17242e-08
2.63056e-08
1.39877e-08
4.8317e-09
9.19831e-30
1.15145e-26
3.71511e-24
5.3702e-22
4.35391e-20
2.23019e-18
7.75367e-17
1.91665e-15
3.47632e-14
4.72912e-13
4.90186e-12
3.91649e-11
2.43376e-10
1.18508e-09
4.55357e-09
1.39113e-08
3.41044e-08
6.79307e-08
1.11866e-07
1.56146e-07
1.91361e-07
2.14139e-07
2.26954e-07
2.3413e-07
2.38768e-07
2.42271e-07
2.44805e-07
2.46259e-07
2.48708e-07
2.52097e-07
8.73652e-07
5.97634e-06
6.20218e-06
2.7645e-07
3.11948e-07
4.76494e-06
1.7012e-05
4.27784e-05
9.51671e-05
2.73588e-05
1.46539e-05
0.000258982
4.08729e-05
4.3343e-08
5.30685e-09
3.19346e-10
-1.02877e-07
-2.04091e-07
-2.5085e-07
2.16981e-14
1.85798e-30
2.85203e-27
1.08572e-24
1.81572e-22
1.6831e-20
9.77431e-19
3.82583e-17
1.05774e-15
2.13128e-14
3.19758e-13
3.62589e-12
3.14094e-11
2.09524e-10
1.08339e-09
4.36952e-09
1.38431e-08
3.47672e-08
7.01259e-08
1.15767e-07
1.60713e-07
1.94588e-07
2.14795e-07
2.25269e-07
2.31252e-07
2.35864e-07
2.39859e-07
2.42827e-07
2.44254e-07
2.45676e-07
2.48359e-07
2.57273e-07
1.14343e-06
4.08484e-06
5.64255e-07
1.24399e-05
4.37908e-05
9.73024e-05
0.000228341
0.000436156
0.000587577
0.00125819
0.00371243
0.000824858
-1.35651e-07
3.39206e-08
1.42762e-09
3.29741e-12
7.67143e-11
2.05517e-09
2.96937e-09
1.91544e-31
3.95847e-28
1.87648e-25
3.77593e-23
4.1364e-21
2.80798e-19
1.27502e-17
4.06406e-16
9.38537e-15
1.60364e-13
2.05585e-12
1.99608e-11
1.47738e-10
8.37769e-10
3.65736e-09
1.23638e-08
3.26352e-08
6.81242e-08
1.14691e-07
1.60371e-07
1.93956e-07
2.13045e-07
2.22806e-07
2.29126e-07
2.34568e-07
2.38882e-07
2.41542e-07
2.43061e-07
2.45028e-07
2.46203e-07
2.52602e-07
2.65497e-07
3.74498e-07
1.82625e-05
8.32807e-05
0.000213195
0.000277194
0.000384081
0.000664515
0.00234654
0.00160077
0.00265851
0.0217501
0.0574248
0.176565
0.374134
0.557426
0.687979
0.771154
0.785593
9.07444e-33
2.96127e-29
1.87252e-26
4.72593e-24
6.30935e-22
5.14007e-20
2.77599e-18
1.04652e-16
2.84667e-15
5.70655e-14
8.54126e-13
9.61811e-12
8.18286e-11
5.27286e-10
2.57922e-09
9.61065e-09
2.74578e-08
6.08635e-08
1.06805e-07
1.53213e-07
1.88057e-07
2.08615e-07
2.19997e-07
2.28141e-07
2.35004e-07
2.39122e-07
2.40681e-07
2.41573e-07
2.4535e-07
2.4647e-07
2.54732e-07
2.84575e-07
3.84877e-06
6.31161e-05
0.000125013
0.000237198
0.000462539
0.000678181
0.00133796
0.0016541
0.0119785
0.152439
0.370489
0.697522
0.918293
0.996583
1
1
1
1
1.92859e-34
1.22977e-30
1.1093e-27
3.62683e-25
6.01397e-23
5.9645e-21
3.88454e-19
1.75875e-17
5.74081e-16
1.3805e-14
2.47724e-13
3.33846e-12
3.38369e-11
2.57622e-10
1.47059e-09
6.29003e-09
2.0218e-08
4.92972e-08
9.29861e-08
1.40367e-07
1.78275e-07
2.02415e-07
2.17485e-07
2.2881e-07
2.36543e-07
2.38163e-07
2.60964e-07
2.36378e-07
2.43e-07
2.44218e-07
2.49844e-07
2.6977e-07
4.49403e-07
0.000103193
0.000302958
0.00053352
0.000665594
0.000830361
0.00121484
0.0296084
0.370457
0.676813
0.934621
0.999531
1
1
1
1
1
1
2.97695e-36
4.1472e-32
5.58225e-29
2.4273e-26
5.06022e-24
6.0836e-22
4.68303e-20
2.46123e-18
9.23774e-17
2.54182e-15
5.20529e-14
8.10442e-13
9.92043e-12
9.20854e-11
6.39783e-10
3.29341e-09
1.25153e-08
3.52148e-08
7.45129e-08
1.2251e-07
1.65084e-07
1.95326e-07
2.1636e-07
2.30251e-07
2.32087e-07
2.69807e-07
2.35273e-07
2.35908e-07
2.37279e-07
2.39901e-07
2.4843e-07
2.81473e-07
2.07322e-05
0.000205567
0.000417889
0.000922594
0.000804574
0.00102447
0.0663862
0.537928
0.865978
0.999659
0.999831
0.999984
1
1
1
1
1
1
3.77756e-38
1.22684e-33
2.56796e-30
1.52435e-27
4.04812e-25
5.9318e-23
5.40314e-21
3.29661e-19
1.42209e-17
4.47113e-16
1.04351e-14
1.85386e-13
2.57568e-12
2.71455e-11
2.16909e-10
1.30442e-09
6.11764e-09
2.09038e-08
5.25309e-08
9.85638e-08
1.43023e-07
1.69595e-07
1.85541e-07
2.24067e-07
2.33166e-07
2.36257e-07
2.35035e-07
2.32384e-07
2.3525e-07
2.38533e-07
2.52467e-07
3.52188e-07
6.97738e-05
0.000287017
0.000715252
0.00079864
0.00102447
0.0541189
0.612729
0.946897
0.999982
0.999985
0.999992
1
1
1
1
1
1
1
4.1421e-40
3.33182e-35
1.12876e-31
9.33133e-29
3.17814e-26
5.68269e-24
6.11814e-22
4.32549e-20
2.1381e-18
7.65261e-17
2.0294e-15
4.09227e-14
6.39126e-13
7.61832e-12
6.95807e-11
4.81572e-10
2.58162e-09
1.01994e-08
3.02853e-08
6.95947e-08
1.18183e-07
1.73976e-07
3.40527e-07
1.96028e-07
2.13479e-07
2.74187e-07
2.28988e-07
2.29262e-07
2.3235e-07
2.36722e-07
2.55601e-07
4.08116e-07
0.000110196
0.00034495
0.00105043
0.00224423
0.0459362
0.538146
0.941115
0.999998
0.999999
0.999999
1
1
1
1
1
1
1
1
4.02732e-42
8.58307e-37
4.85362e-33
5.62531e-30
2.45032e-27
5.32202e-25
6.74547e-23
5.50793e-21
3.10723e-19
1.26069e-17
3.78543e-16
8.64146e-15
1.51685e-13
2.04247e-12
2.11862e-11
1.67376e-10
1.01699e-09
4.60872e-09
1.58541e-08
4.19203e-08
8.30871e-08
1.3247e-07
2.16022e-07
1.86043e-07
2.13234e-07
2.24006e-07
2.30841e-07
2.30488e-07
2.33175e-07
2.44132e-07
3.03741e-07
1.78998e-06
0.000210352
0.000936806
0.000993205
0.0254913
0.399219
0.862778
0.999998
0.999999
0.999999
1
1
1
1
1
1
1
1
1
3.52818e-44
2.13687e-38
2.03883e-34
3.28595e-31
1.81237e-28
4.74391e-26
7.0403e-24
6.61512e-22
4.24528e-20
1.9471e-18
6.60311e-17
1.70378e-15
3.36616e-14
5.11876e-13
6.00418e-12
5.38758e-11
3.70712e-10
1.91588e-09
7.54643e-09
2.27584e-08
5.2211e-08
9.43551e-08
1.22708e-07
2.60135e-07
1.98911e-07
2.10513e-07
2.20064e-07
2.32546e-07
2.28682e-07
2.55699e-07
5.9828e-07
6.42977e-06
4.98144e-05
0.000235766
0.0011408
0.173339
0.686414
0.996151
0.999989
1
1
1
1
1
1
1
1
1
1
1
2.81041e-46
5.11424e-40
8.12217e-36
1.78838e-32
1.2337e-29
3.86028e-27
6.67516e-25
7.19843e-23
5.24873e-21
2.72044e-19
1.04143e-17
3.03588e-16
6.76247e-15
1.16209e-13
1.53988e-12
1.56603e-11
1.22081e-10
7.17449e-10
3.21721e-09
1.10358e-08
2.90521e-08
6.04008e-08
8.24219e-08
6.7074e-08
3.45171e-07
2.14672e-07
2.05197e-07
2.05349e-07
2.16977e-07
2.30447e-07
7.94258e-07
6.03098e-06
7.09331e-07
-5.53695e-06
0.0247062
0.398469
0.939122
0.999896
0.999996
1
1
1
1
1
1
1
1
1
1
1
2.04046e-48
1.13195e-41
2.89947e-37
8.54804e-34
7.29615e-31
2.71329e-28
5.45252e-26
6.74689e-24
5.59794e-22
3.28705e-20
1.42352e-18
4.69541e-17
1.18262e-15
2.30259e-14
3.45525e-13
3.98681e-12
3.52745e-11
2.35789e-10
1.20241e-09
4.68993e-09
1.41053e-08
3.37678e-08
5.14801e-08
5.29383e-08
8.06878e-08
9.54102e-08
1.0762e-06
1.22121e-06
2.26009e-07
2.45951e-07
9.69905e-07
8.63347e-06
9.77191e-07
7.47028e-07
0.0619259
0.724919
0.999646
0.999991
1
1
1
1
1
1
1
1
1
1
1
1
1.33736e-50
2.15706e-43
8.54411e-39
3.30942e-35
3.46731e-32
1.52894e-29
3.57492e-27
5.09397e-25
4.83481e-23
3.23608e-21
1.59473e-19
5.98231e-18
1.71369e-16
3.80255e-15
6.50102e-14
8.55125e-13
8.6265e-12
6.58365e-11
3.82934e-10
1.70259e-09
5.84981e-09
1.61159e-08
2.81814e-08
3.33079e-08
2.73981e-08
1.85903e-07
2.51314e-06
2.51069e-06
1.60308e-06
4.22092e-07
5.05829e-07
1.486e-06
4.59626e-07
5.66194e-07
0.198873
0.934796
1
1
1
1
1
1
1
1
1
1
1
1
1
1
7.62943e-53
3.23194e-45
1.87022e-40
9.23894e-37
1.1786e-33
6.17198e-31
1.69057e-28
2.80139e-26
3.07715e-24
2.37709e-22
1.34934e-20
5.82296e-19
1.91921e-17
4.90786e-16
9.6655e-15
1.46373e-13
1.69911e-12
1.49299e-11
9.97862e-11
5.09009e-10
2.00684e-09
6.37514e-09
1.28987e-08
1.78021e-08
1.3806e-08
2.05364e-08
5.98051e-07
2.17084e-06
3.80719e-06
3.83245e-06
3.82818e-06
2.95101e-06
6.56906e-08
3.26983e-07
0.407045
0.998997
1
1
1
1
1
1
1
1
1
1
1
1
1
1
3.50974e-55
3.41674e-47
2.68898e-42
1.60581e-38
2.39193e-35
1.45748e-32
4.70673e-30
9.28324e-28
1.2129e-25
1.1126e-23
7.47686e-22
3.80769e-20
1.47917e-18
4.4572e-17
1.03232e-15
1.83432e-14
2.49318e-13
2.56235e-12
1.99589e-11
1.1829e-10
5.40765e-10
1.99457e-09
4.69346e-09
7.6452e-09
7.86781e-09
2.736e-08
3.21237e-08
1.15461e-07
6.5611e-07
1.47403e-06
2.5785e-06
7.93617e-07
2.61097e-09
6.23008e-08
0.605529
1
1
1
1
1
1
1
1
1
1
1
1
1
1
1
1.50246e-57
2.17128e-48
7.40745e-43
8.393e-39
1.47654e-35
7.69951e-33
1.67414e-30
1.89309e-28
1.3132e-26
6.61388e-25
3.04063e-23
1.43237e-21
6.28287e-20
2.3e-18
6.55139e-17
1.42519e-15
2.35434e-14
2.92319e-13
2.72954e-12
1.92693e-11
1.0431e-10
4.53801e-10
1.25381e-09
2.43198e-09
3.36242e-09
9.30749e-09
2.182e-08
2.99433e-08
2.18639e-08
2.42291e-08
1.0781e-08
3.42137e-09
2.30369e-09
3.77433e-09
0.749562
1
1
1
1
1
1
1
1
1
1
1
1
1
1
1
8.13505e-56
2.26266e-46
5.83913e-41
5.7559e-37
9.38907e-34
4.66142e-31
9.91374e-29
1.1085e-26
7.43652e-25
3.24938e-23
9.80164e-22
2.12331e-20
3.37294e-19
3.993e-18
3.59863e-17
2.64861e-16
2.06703e-15
2.01537e-14
2.05772e-13
1.76433e-12
1.17725e-11
6.26306e-11
2.0837e-10
4.8985e-10
8.78616e-10
2.18599e-09
5.30877e-09
9.00185e-09
1.15391e-08
1.20164e-08
1.00258e-08
7.23413e-09
1.83391e-09
0.0140122
0.82091
1
1
1
1
1
1
1
1
1
1
1
1
1
1
1
1.06818e-57
3.76309e-55
8.05782e-53
1.20166e-50
1.34138e-48
1.16966e-46
8.17436e-45
4.64649e-43
2.16333e-41
8.26074e-40
2.58203e-38
6.62976e-37
1.47465e-35
3.6986e-34
1.39202e-32
2.3728e-31
2.2904e-30
1.17915e-29
3.46517e-29
6.216e-29
7.16433e-29
5.5111e-29
2.89687e-29
1.05823e-29
2.74675e-30
5.15469e-31
7.09053e-32
7.23384e-33
5.52241e-34
3.1899e-35
1.40636e-36
4.79212e-38
1.27119e-39
2.64101e-41
4.33902e-43
5.69604e-45
6.02911e-47
5.24676e-49
3.81269e-51
2.35278e-53
1.25328e-55
5.81832e-58
2.27891e-60
6.92532e-63
1.39091e-65
1.64743e-68
1.13698e-71
4.11685e-75
7.18383e-79
3.89319e-83
8.10103e-49
1.20302e-46
1.04675e-44
6.25201e-43
2.78631e-41
9.73736e-40
2.75305e-38
6.4234e-37
1.25221e-35
2.05517e-34
2.85618e-33
3.39759e-32
3.59328e-31
3.82841e-30
5.17323e-29
5.34584e-28
3.55235e-27
1.40582e-26
3.4563e-26
5.50244e-26
5.88087e-26
4.34191e-26
2.25493e-26
8.34811e-27
2.24396e-27
4.44007e-28
6.53885e-29
7.24009e-30
6.07725e-31
3.90289e-32
1.93063e-33
7.42716e-35
2.23504e-36
5.28672e-38
9.91902e-40
1.49029e-41
1.8055e-43