/*--------------------------------*- C++ -*----------------------------------*\
| =========                 |                                                 |
| \\      /  F ield         | OpenFOAM: The Open Source CFD Toolbox           |
|  \\    /   O peration     | Version:  2.4.0                                 |
|   \\  /    A nd           | Web:      www.OpenFOAM.org                      |
|    \\/     M anipulation  |                                                 |
\*---------------------------------------------------------------------------*/
FoamFile
{
    version     2.0;
    format      ascii;
    class       surfaceScalarField;
    location    "0.087";
    object      phiAlpha;
}
// * * * * * * * * * * * * * * * * * * * * * * * * * * * * * * * * * * * * * //

dimensions      [0 3 -1 0 0 0 0];

internalField   nonuniform List<scalar> 
19800
(
-6.94022e-97
4.6349e-101
-9.2651e-93
1.33691e-96
-3.80593e-89
7.19542e-93
-7.95832e-86
1.67131e-89
-1.0757e-82
2.28452e-86
-1.10864e-79
2.18875e-83
-9.68222e-77
1.68148e-80
-7.43823e-74
1.12677e-77
-5.08545e-71
6.69875e-75
-2.98434e-68
3.49192e-72
-1.47812e-65
1.48521e-69
-5.91311e-63
4.72141e-67
-1.81743e-60
8.26757e-65
-4.17526e-58
-3.69687e-59
-7.06587e-56
-3.72744e-56
-8.90073e-54
-1.01473e-53
-8.50169e-52
-1.69095e-51
-6.15481e-50
-1.97961e-49
-3.26475e-48
-1.72082e-47
-1.18878e-46
-1.1245e-45
-2.63791e-45
-5.45594e-44
-2.20926e-44
-1.9298e-42
2.86127e-44
-4.91477e-41
1.53704e-42
-8.89903e-40
3.36136e-41
-1.1271e-38
4.25219e-40
-9.82137e-38
3.30709e-39
-5.76739e-37
1.60485e-38
-2.24749e-36
5.05983e-38
-6.02218e-36
9.06666e-38
-9.4301e-36
9.62262e-38
-9.02188e-36
6.14233e-38
-5.3657e-36
2.33471e-38
-1.9697e-36
5.09089e-39
-4.3306e-37
5.85096e-40
-5.34935e-38
3.19887e-41
-3.36262e-39
9.83143e-43
-1.1212e-40
1.76657e-44
5.46628e-48
4.5356e-46
7.94993e-48
1.06068e-47
3.85021e-49
2.10687e-49
1.21073e-50
3.55666e-51
2.92788e-52
5.09767e-53
5.75947e-54
6.10918e-55
9.36092e-56
5.91512e-57
1.24595e-57
4.35466e-59
1.32031e-59
2.1789e-61
1.05998e-61
5.5784e-64
5.91637e-64
-2.8567e-70
1.97235e-66
3.14808e-69
-1.35302e-68
-5.20889e-92
7.06448e-96
-5.46303e-88
1.51738e-91
-1.83262e-84
6.46443e-88
-3.19242e-81
1.23068e-84
-3.61418e-78
1.39137e-81
-3.10615e-75
1.09913e-78
-2.23454e-72
6.86127e-76
-1.39157e-69
3.63482e-73
-7.43991e-67
1.63556e-70
-3.42809e-64
5.8598e-68
-1.32439e-61
1.43337e-65
-4.14133e-59
4.24876e-64
-9.82559e-57
-1.79217e-57
-1.70176e-54
-8.66379e-55
-2.10613e-52
-2.347e-52
-1.80958e-50
-4.17762e-50
-9.86884e-49
-5.23342e-48
-1.89868e-47
-4.79893e-46
3.87385e-47
-3.33045e-44
5.67947e-45
-1.77618e-42
4.02484e-43
-7.21892e-41
1.82059e-41
-2.19297e-39
5.57687e-40
-4.90103e-38
1.17498e-38
-7.93787e-37
1.69887e-37
-9.16228e-36
1.67164e-36
-7.42021e-35
1.10253e-35
-4.13743e-34
4.82051e-35
-1.56859e-33
1.45327e-34
-4.2484e-33
2.57741e-34
-6.81969e-33
2.82348e-34
-6.85622e-33
1.95455e-34
-4.42115e-33
8.556e-35
-1.82517e-33
2.32775e-35
-4.7127e-34
3.78119e-36
-7.21978e-35
3.50543e-37
-5.91566e-36
2.29958e-38
-2.25301e-37
1.50127e-39
1.23536e-41
9.8982e-41
2.84362e-42
5.79188e-42
2.96937e-43
2.95306e-43
2.26664e-44
1.30788e-44
1.39378e-45
4.99138e-46
7.13353e-47
1.61145e-47
3.05586e-48
4.26294e-49
1.08288e-49
8.78184e-51
3.09154e-51
1.29186e-52
6.80268e-53
1.12964e-54
1.06884e-54
2.81841e-57
1.02212e-56
3.7495e-59
-1.74298e-59
-2.00554e-88
4.07068e-92
-2.01944e-84
8.59788e-88
-6.30424e-81
3.52634e-84
-9.85193e-78
6.25104e-81
-9.73822e-75
6.29758e-78
-7.21409e-72
4.27414e-75
-4.43066e-69
2.23181e-72
-2.34336e-66
9.54678e-70
-1.09095e-63
3.24986e-67
-4.34305e-61
7.33154e-65
-1.41006e-58
-2.32297e-60
-3.53376e-56
-7.75326e-57
-6.39261e-54
-3.94194e-54
-7.65997e-52
-1.19637e-51
-4.52726e-50
-2.44391e-49
1.90524e-50
-3.4817e-47
9.27372e-48
-3.55344e-45
1.32757e-45
-2.68598e-43
1.19484e-43
-1.54412e-41
7.65857e-42
-6.88811e-40
3.59783e-40
-2.38023e-38
1.23552e-38
-6.27341e-37
3.08041e-37
-1.24044e-35
5.52306e-36
-1.80969e-34
7.02977e-35
-1.91509e-33
6.27212e-34
-1.44901e-32
3.85945e-33
-7.70747e-32
1.62163e-32
-2.8546e-31
4.90189e-32
-7.86119e-31
8.87287e-32
-1.29492e-30
1.02057e-31
-1.36406e-30
7.68494e-32
-9.46326e-31
3.81664e-32
-4.32939e-31
1.24116e-32
-1.27969e-31
2.58894e-33
-2.32422e-32
3.38723e-34
-2.30273e-33
3.43177e-35
-8.46417e-35
3.57094e-36
5.76637e-38
3.52323e-37
1.51907e-38
3.09568e-38
2.25686e-39
2.39731e-39
2.55754e-40
1.62857e-40
2.38149e-41
9.60802e-42
1.86778e-42
4.8297e-43
1.23681e-43
2.00603e-44
6.83126e-45
6.56435e-46
3.06946e-46
1.56243e-47
1.07662e-47
2.29519e-49
2.74687e-49
1.16717e-51
4.41768e-51
2.82769e-53
-3.41351e-54
-2.29003e-85
6.31438e-89
-2.34045e-81
1.38603e-84
-7.10946e-78
5.74652e-81
-1.0276e-74
9.87885e-78
-9.10244e-72
9.12959e-75
-6.03208e-69
5.45194e-72
-3.27591e-66
2.45145e-69
-1.53142e-63
8.51321e-67
-6.07779e-61
1.99248e-64
-2.00045e-58
-1.59706e-60
-5.08769e-56
-1.35275e-56
-9.08436e-54
-7.56816e-54
-7.86214e-52
-2.60695e-51
4.7455e-52
-6.13768e-49
2.99125e-49
-1.0106e-46
6.29161e-47
-1.19251e-44
8.06533e-45
-1.02251e-42
7.1655e-43
-6.52765e-41
4.67999e-41
-3.16923e-39
2.32635e-39
-1.19783e-37
8.8544e-38
-3.54327e-36
2.55263e-36
-8.13048e-35
5.49977e-35
-1.42597e-33
8.73003e-34
-1.8783e-32
1.00569e-32
-1.82618e-31
8.30289e-32
-1.29311e-30
4.8394e-31
-6.5699e-30
1.97649e-30
-2.37923e-29
6.05535e-30
-6.68507e-29
1.12306e-29
-1.12816e-28
1.35397e-29
-1.23946e-28
1.09983e-29
-9.17959e-29
6.0894e-30
-4.59874e-29
2.2932e-30
-1.52852e-29
5.80425e-31
-3.20386e-30
9.73074e-32
-3.70207e-31
1.31264e-32
-1.2028e-32
1.79335e-33
4.33182e-35
2.28133e-34
1.32503e-35
2.5982e-35
2.4848e-36
2.62882e-36
3.63478e-37
2.35004e-37
4.42221e-38
1.83601e-38
4.56949e-39
1.22985e-39
4.01427e-40
6.85704e-41
2.96223e-41
3.04115e-42
1.79283e-42
9.95e-44
8.55701e-44
2.06277e-45
3.0128e-45
1.65204e-47
6.85638e-47
6.82881e-49
-2.713e-50
-1.42711e-82
5.03115e-86
-1.50582e-78
1.16413e-81
-4.51435e-75
4.96542e-78
-6.14755e-72
8.39055e-75
-5.05986e-69
7.24019e-72
-2.99054e-66
3.93339e-69
-1.40475e-63
1.49911e-66
-5.59109e-61
3.88375e-64
-1.82911e-58
2.95058e-62
-4.62089e-56
-1.23399e-56
-7.27963e-54
-8.28607e-54
-6.02567e-53
-3.2006e-51
1.91251e-51
-8.50659e-49
7.32313e-49
-1.62179e-46
1.54293e-46
-2.21884e-44
2.14501e-44
-2.21128e-42
2.08416e-42
-1.61757e-40
1.47603e-40
-8.84733e-39
7.85099e-39
-3.6771e-37
3.22626e-37
-1.18954e-35
1.03299e-35
-3.02807e-34
2.5597e-34
-6.05875e-33
4.8451e-33
-9.42812e-32
6.8937e-32
-1.12147e-30
7.25634e-31
-1.00195e-29
5.58375e-30
-6.63959e-29
3.09954e-29
-3.22097e-28
1.23537e-28
-1.13981e-27
3.85753e-28
-3.27677e-27
7.32879e-28
-5.65026e-27
9.22403e-28
-6.44325e-27
8.01729e-28
-5.05982e-27
4.88206e-28
-2.75054e-27
2.08391e-28
-1.01576e-27
6.1846e-29
-2.41966e-28
1.26088e-29
-3.21645e-29
2.09537e-30
-9.40861e-31
3.47227e-31
1.09902e-32
5.3251e-32
3.87438e-33
7.3481e-33
8.69066e-34
9.06541e-34
1.54042e-34
9.94002e-35
2.28947e-35
9.57702e-36
2.90807e-36
7.95555e-37
3.15806e-37
5.53644e-38
2.89774e-38
3.09025e-39
2.19537e-39
1.28733e-40
1.32208e-40
3.4707e-42
5.93331e-42
3.92905e-44
1.75122e-43
2.4068e-45
-3.72923e-47
-6.43753e-80
2.78328e-83
-6.98431e-76
6.73041e-79
-2.06516e-72
2.94654e-75
-2.65858e-69
4.88976e-72
-1.98652e-66
3.9477e-69
-1.02304e-63
1.89741e-66
-4.16731e-61
5.86578e-64
-1.36967e-58
9.76838e-62
-3.49774e-56
-5.22342e-57
-5.35065e-54
-5.81929e-54
8.04778e-55
-2.57831e-51
2.07734e-51
-7.6944e-49
8.24253e-49
-1.65591e-46
1.94729e-46
-2.61832e-44
3.08517e-44
-3.01977e-42
3.44598e-42
-2.56736e-40
2.77455e-40
-1.61646e-38
1.65246e-38
-7.64508e-37
7.42956e-37
-2.74788e-35
2.58988e-35
-7.67694e-34
7.08953e-34
-1.69063e-32
1.52449e-32
-2.95328e-31
2.55114e-31
-4.07408e-30
3.2693e-30
-4.37089e-29
3.15633e-29
-3.5843e-28
2.27005e-28
-2.22e-27
1.20223e-27
-1.0267e-26
4.68067e-27
-3.54404e-26
1.49558e-26
-1.0452e-25
2.90494e-26
-1.83513e-25
3.79912e-26
-2.16117e-25
3.50773e-26
-1.78852e-25
2.32456e-26
-1.04724e-25
1.10786e-26
-4.2604e-26
3.77183e-27
-1.14309e-26
9.06839e-28
-1.74373e-27
1.77786e-28
-5.29021e-29
3.42804e-29
1.30833e-30
6.11068e-30
5.29369e-31
9.84576e-31
1.38086e-31
1.42581e-31
2.86631e-32
1.8442e-32
5.01614e-33
2.10592e-33
7.53756e-34
2.08359e-34
9.7281e-35
1.73686e-35
1.06603e-35
1.16931e-36
9.6976e-37
5.93023e-38
7.05423e-38
1.97885e-39
3.85127e-39
2.95046e-41
1.39875e-40
2.46125e-42
-1.6654e-44
-2.478e-77
1.28385e-80
-2.69165e-73
3.15621e-76
-7.62637e-70
1.37924e-72
-9.04915e-67
2.17907e-69
-5.94962e-64
1.59903e-66
-2.67994e-61
6.53906e-64
-9.41762e-59
1.59548e-61
-2.57295e-56
1.00708e-59
-4.75058e-54
-2.52616e-54
-2.33374e-52
-1.46089e-51
1.01424e-51
-4.98373e-49
5.21497e-49
-1.20671e-46
1.44635e-46
-2.15178e-44
2.69494e-44
-2.85725e-42
3.51675e-42
-2.80003e-40
3.30964e-40
-2.04212e-38
2.27707e-38
-1.11238e-36
1.16749e-36
-4.57587e-35
4.52686e-35
-1.43314e-33
1.3604e-33
-3.48487e-32
3.21827e-32
-6.67698e-31
6.03846e-31
-1.02008e-29
8.95643e-30
-1.24605e-28
1.0353e-28
-1.20309e-27
9.17686e-28
-9.03503e-27
6.1715e-27
-5.21828e-26
3.11774e-26
-2.29483e-25
1.18489e-25
-7.70662e-25
3.88712e-25
-2.33783e-24
7.69529e-25
-4.16115e-24
1.04052e-24
-5.03345e-24
1.01383e-24
-4.36407e-24
7.24925e-25
-2.73481e-24
3.81487e-25
-1.21751e-24
1.46832e-25
-3.65825e-25
4.0858e-26
-6.41215e-26
9.21032e-27
-2.41786e-27
2.01738e-27
8.73512e-29
4.08984e-28
4.06168e-29
7.52577e-29
1.21304e-29
1.25023e-29
2.89063e-30
1.86289e-30
5.82715e-31
2.46054e-31
1.01216e-31
2.82792e-32
1.51557e-32
2.75154e-33
1.93452e-33
2.17439e-34
2.05854e-34
1.30379e-35
1.75931e-35
5.20766e-37
1.13396e-36
9.71702e-39
4.89853e-38
1.05139e-39
-3.39144e-42
-8.72089e-75
5.39482e-78
-9.07394e-71
1.28944e-73
-2.36078e-67
5.35598e-70
-2.51537e-64
7.68402e-67
-1.46188e-61
4.96365e-64
-5.84991e-59
1.7186e-61
-1.78947e-56
3.24609e-59
-4.17197e-54
-2.22442e-55
-6.11908e-52
-5.68995e-52
-2.10657e-51
-2.40837e-49
1.67984e-49
-6.64345e-47
6.55103e-47
-1.33778e-44
1.49552e-44
-2.00398e-42
2.34524e-42
-2.25224e-40
2.61072e-40
-1.8847e-38
2.11638e-38
-1.18289e-36
1.26461e-36
-5.59029e-35
5.65929e-35
-2.00685e-33
1.91812e-33
-5.50528e-32
5.03152e-32
-1.17266e-30
1.0383e-30
-1.96621e-29
1.70792e-29
-2.63421e-28
2.24808e-28
-2.84686e-27
2.34343e-27
-2.46697e-26
1.90591e-26
-1.69132e-25
1.19734e-25
-9.07969e-25
5.76127e-25
-3.78382e-24
2.13346e-24
-1.23198e-23
7.20953e-24
-3.85522e-23
1.44881e-23
-6.91792e-23
2.0146e-23
-8.54393e-23
2.05863e-23
-7.71515e-23
1.57665e-23
-5.1435e-23
9.08211e-24
-2.49131e-23
3.91105e-24
-8.34648e-24
1.24378e-24
-1.68412e-24
3.17623e-25
-8.77153e-26
7.78845e-26
3.63419e-27
1.77236e-26
1.95691e-27
3.67406e-27
6.63844e-28
6.90091e-28
1.79459e-28
1.16654e-28
4.11028e-29
1.75391e-29
8.13059e-30
2.30287e-30
1.39033e-30
2.56991e-31
2.03297e-31
2.33963e-32
2.48619e-32
1.62502e-33
2.44976e-33
7.58737e-35
1.82665e-34
1.70749e-36
9.17394e-36
2.32661e-37
-3.85267e-40
-2.8438e-72
2.11336e-75
-2.70344e-68
4.67645e-71
-6.2373e-65
1.75055e-67
-5.90681e-62
2.19075e-64
-3.08071e-59
1.22661e-61
-1.11026e-56
3.63376e-59
-3.05543e-54
5.32743e-57
-6.42336e-52
-8.70596e-53
-9.15562e-50
-8.41534e-50
-4.34374e-48
-2.84553e-47
1.21118e-47
-6.50095e-45
4.85643e-45
-1.10459e-42
1.00114e-42
-1.40352e-40
1.38136e-40
-1.34303e-38
1.34622e-38
-9.63207e-37
9.55864e-37
-5.21325e-35
5.02157e-35
-2.14055e-33
1.98162e-33
-6.7165e-32
5.93257e-32
-1.61883e-30
1.37277e-30
-3.03495e-29
2.49374e-29
-4.47761e-28
3.61549e-28
-5.27938e-27
4.22906e-27
-5.04823e-26
3.97195e-26
-3.91557e-25
2.95919e-25
-2.44146e-24
1.73322e-24
-1.21335e-23
7.92431e-24
-4.77132e-23
2.85178e-23
-1.49991e-22
9.96156e-23
-4.8572e-22
2.02166e-22
-8.72596e-22
2.87419e-22
-1.09295e-21
3.0617e-22
-1.02164e-21
2.49505e-22
-7.20334e-22
1.56182e-22
-3.77506e-22
7.46558e-23
-1.40438e-22
2.68983e-23
-3.26464e-23
7.71723e-24
-2.39773e-24
2.09918e-24
1.00385e-25
5.31915e-25
6.35579e-26
1.23165e-25
2.44201e-26
2.59121e-26
7.43814e-27
4.91913e-27
1.91884e-27
8.32804e-28
4.28019e-28
1.23477e-28
8.26868e-29
1.56083e-29
1.36895e-29
1.61505e-30
1.89996e-30
1.28027e-31
2.12967e-31
6.86908e-33
1.811e-32
1.8162e-34
1.04106e-33
3.05509e-35
-2.75904e-38
-8.50164e-70
7.61716e-73
-7.1282e-66
1.50173e-68
-1.42888e-62
4.86797e-65
-1.19306e-59
5.19041e-62
-5.62166e-57
2.49748e-59
-1.84387e-54
6.42176e-57
-4.66282e-52
7.74279e-55
-9.16984e-50
-1.29377e-50
-1.33721e-47
-9.15627e-48
-1.20893e-45
-2.57418e-45
-5.76829e-45
-4.94281e-43
1.88503e-43
-7.06812e-41
4.27723e-41
-7.65134e-39
5.58068e-39
-6.26288e-37
4.9393e-37
-3.86192e-35
3.13883e-35
-1.80572e-33
1.47043e-33
-6.44627e-32
5.17087e-32
-1.76872e-30
1.38067e-30
-3.75065e-29
2.84579e-29
-6.20725e-28
4.59367e-28
-8.09438e-27
5.90949e-27
-8.43317e-26
6.15866e-26
-7.14349e-25
5.20829e-25
-4.94883e-24
3.54729e-24
-2.79518e-23
1.93204e-23
-1.27996e-22
8.36765e-23
-4.72584e-22
2.91714e-22
-1.4276e-21
1.05745e-21
-4.80104e-21
2.15346e-21
-8.55977e-21
3.11028e-21
-1.07904e-20
3.43318e-21
-1.03747e-20
2.95862e-21
-7.69027e-21
1.99948e-21
-4.33622e-21
1.05393e-21
-1.78327e-21
4.27488e-22
-4.77063e-22
1.372e-22
-4.84207e-23
4.11663e-23
1.90525e-24
1.15576e-23
1.45638e-24
2.97296e-24
6.34346e-25
6.96232e-25
2.16925e-25
1.47405e-25
6.2687e-26
2.78869e-26
1.56634e-26
4.63027e-27
3.39271e-27
6.56978e-28
6.30652e-28
7.65048e-29
9.84335e-29
6.84721e-30
1.24302e-29
4.16984e-31
1.19328e-30
1.27179e-32
7.76672e-32
2.60079e-33
-1.34274e-36
-2.27873e-67
2.45823e-70
-1.65443e-63
4.21476e-66
-2.85706e-60
1.15957e-62
-2.09467e-57
1.0453e-59
-8.89458e-55
4.32944e-57
-2.67232e-52
9.82886e-55
-6.22877e-50
1.08035e-52
-1.14393e-47
-1.17105e-48
-1.61873e-45
-7.6941e-46
-1.67997e-43
-1.87513e-43
-1.10729e-41
-3.06005e-41
-1.61071e-40
-3.67728e-39
8.62445e-40
-3.35983e-37
1.41938e-37
-2.34355e-35
1.25469e-35
-1.24496e-33
7.46726e-34
-5.03656e-32
3.19991e-32
-1.56413e-30
1.01906e-30
-3.75275e-29
2.45613e-29
-7.00231e-28
4.55757e-28
-1.02436e-26
6.60414e-27
-1.18426e-25
7.60229e-26
-1.09444e-24
7.09203e-25
-8.23067e-24
5.40409e-24
-5.0875e-23
3.35901e-23
-2.59332e-22
1.69644e-22
-1.08861e-21
6.93593e-22
-3.75277e-21
2.33423e-21
-1.08387e-20
8.82064e-21
-3.80001e-20
1.78813e-20
-6.64994e-20
2.60522e-20
-8.36387e-20
2.96193e-20
-8.21741e-20
2.68338e-20
-6.36524e-20
1.94603e-20
-3.839e-20
1.1244e-20
-1.73635e-20
5.10763e-21
-5.32932e-21
1.83024e-21
-7.27312e-22
6.04236e-22
2.50516e-23
1.87416e-22
2.42437e-23
5.33472e-23
1.20195e-23
1.38404e-23
4.60681e-24
3.25038e-24
1.48567e-24
6.83139e-25
4.13823e-25
1.26227e-25
9.99446e-26
1.99695e-26
2.07331e-26
2.59849e-27
3.61579e-27
2.60582e-28
5.10931e-28
1.78579e-29
5.49842e-29
6.20505e-31
4.0222e-30
1.52273e-31
-4.60017e-35
-5.34153e-65
6.94851e-68
-3.31882e-61
1.01735e-63
-4.97877e-58
2.3504e-60
-3.23655e-55
1.81386e-57
-1.23524e-52
6.59448e-55
-3.36261e-50
1.34964e-52
-7.15628e-48
1.45721e-50
-1.20763e-45
-6.04371e-47
-1.59026e-43
-5.15026e-44
-1.60187e-41
-1.12592e-41
-1.18816e-39
-1.58871e-39
-5.98806e-38
-1.62218e-37
-1.47858e-36
-1.24379e-35
9.94794e-37
-7.29844e-34
1.81493e-34
-3.30311e-32
1.19377e-32
-1.15331e-30
5.01477e-31
-3.11539e-29
1.49954e-29
-6.53462e-28
3.33448e-28
-1.07233e-26
5.65739e-27
-1.38672e-25
7.45474e-26
-1.42328e-24
7.76409e-25
-1.17021e-23
6.5332e-24
-7.83423e-23
4.4998e-23
-4.32148e-22
2.55158e-22
-1.98238e-21
1.19203e-21
-7.58953e-21
4.58494e-21
-2.42819e-20
1.48455e-20
-6.67102e-20
5.87836e-20
-2.44798e-19
1.17448e-19
-4.14645e-19
1.71263e-19
-5.15197e-19
1.99374e-19
-5.14042e-19
1.88831e-19
-4.13659e-19
1.46109e-19
-2.65214e-19
9.20137e-20
-1.31144e-19
4.6585e-20
-4.59543e-20
1.86956e-20
-8.23139e-21
6.78784e-21
2.2169e-22
2.32153e-21
2.9901e-22
7.29038e-22
1.70081e-22
2.08751e-22
7.30732e-23
5.41534e-23
2.62404e-23
1.25871e-23
8.12081e-24
2.57571e-24
2.17803e-24
4.51967e-25
5.01898e-25
6.53468e-26
9.7304e-26
7.29798e-27
1.53024e-26
5.59036e-28
1.83569e-27
2.19267e-29
1.50041e-28
6.37717e-30
-1.09373e-33
-1.09912e-62
1.73443e-65
-5.7764e-59
2.1348e-61
-7.50916e-56
4.10684e-58
-4.36757e-53
2.72284e-55
-1.51725e-50
8.85997e-53
-3.7467e-48
1.68707e-50
-7.19852e-46
1.85736e-48
-1.09123e-43
1.20131e-47
-1.29046e-41
-2.72888e-42
-1.18393e-39
-5.70394e-40
-8.27017e-38
-7.05037e-38
-4.3005e-36
-6.14002e-36
-1.60031e-34
-3.98094e-34
-3.79779e-33
-1.97219e-32
-2.84616e-32
-7.51153e-31
7.75079e-32
-2.22515e-29
4.80175e-30
-5.18029e-28
1.53242e-28
-9.47779e-27
3.33462e-27
-1.36625e-25
5.34683e-26
-1.56058e-24
6.54823e-25
-1.42185e-23
6.2738e-24
-1.04176e-22
4.82092e-23
-6.22348e-22
3.02334e-22
-3.0675e-21
1.56795e-21
-1.26433e-20
6.76958e-21
-4.39479e-20
2.44279e-20
-1.29713e-19
7.58983e-20
-3.37416e-19
3.16768e-19
-1.30048e-18
6.15992e-19
-2.09461e-18
8.91236e-19
-2.54186e-18
1.05697e-18
-2.56506e-18
1.04141e-18
-2.13329e-18
8.55011e-19
-1.44417e-18
5.83582e-19
-7.75163e-19
3.27732e-19
-3.08117e-19
1.48208e-19
-7.08731e-20
5.93642e-20
1.12929e-21
2.23608e-20
2.76052e-21
7.72885e-21
1.82731e-21
2.43645e-21
8.82544e-22
6.96236e-22
3.52803e-22
1.78372e-22
1.21079e-22
4.0261e-23
3.59514e-23
7.80033e-24
9.16691e-24
1.24691e-24
1.96691e-24
1.54264e-25
3.42623e-25
1.31335e-26
4.5593e-26
5.77321e-28
4.14339e-27
1.96604e-28
-1.556e-32
-2.01561e-60
3.86008e-63
-8.96124e-57
3.97384e-59
-1.01187e-53
6.39402e-56
-5.25568e-51
3.67303e-53
-1.65901e-48
1.07676e-50
-3.71464e-46
1.92496e-48
-6.39193e-44
2.15461e-46
-8.59929e-42
9.38965e-45
-8.98247e-40
-1.03123e-40
-7.23115e-38
-2.36999e-38
-4.46862e-36
-2.65358e-36
-2.11305e-34
-2.00609e-34
-7.59032e-33
-1.10927e-32
-2.01665e-31
-4.64226e-31
-3.79525e-30
-1.49369e-29
-4.38893e-29
-3.75401e-28
-6.514e-29
-7.42902e-27
7.20401e-28
-1.16622e-25
2.1074e-26
-1.46631e-24
3.57498e-25
-1.47595e-23
4.30095e-24
-1.1921e-22
3.91936e-23
-7.78513e-22
2.81278e-22
-4.15602e-21
1.63019e-21
-1.83363e-20
7.79559e-21
-6.78939e-20
3.11865e-20
-2.13577e-19
1.05502e-19
-5.78419e-19
3.14298e-19
-1.41943e-18
1.39118e-18
-5.75441e-18
2.59195e-18
-8.62072e-18
3.685e-18
-1.00822e-17
4.44143e-18
-1.03085e-17
4.53599e-18
-8.82979e-18
3.93044e-18
-6.26268e-18
2.89043e-18
-3.61328e-18
1.79178e-18
-1.61642e-18
9.17152e-19
-4.66004e-19
4.05465e-19
-1.147e-21
1.67857e-19
1.8839e-20
6.37748e-20
1.49009e-20
2.21128e-20
8.1454e-21
6.95188e-21
3.63288e-21
1.95954e-21
1.38268e-21
4.86714e-22
4.53964e-22
1.03822e-22
1.27815e-22
1.82908e-23
3.0273e-23
2.49825e-24
5.8241e-24
2.35534e-25
8.57151e-25
1.155e-26
8.63474e-26
4.5572e-27
9.60297e-33
-3.32574e-58
7.67934e-61
-1.26373e-54
6.64781e-57
-1.25376e-51
9.07961e-54
-5.82921e-49
4.5949e-51
-1.66239e-46
1.22324e-48
-3.32874e-44
2.0486e-46
-5.03583e-42
2.25798e-44
-5.90856e-40
1.39267e-42
-5.35896e-38
-1.44859e-39
-3.73021e-36
-7.53187e-37
-1.99831e-34
-8.18182e-35
-8.25647e-33
-5.50552e-33
-2.63322e-31
-2.63418e-31
-6.44705e-30
-9.4286e-30
-1.20644e-28
-2.58689e-28
-1.69059e-27
-5.53177e-27
-1.68788e-26
-9.32591e-26
-1.01514e-25
-1.25374e-24
2.61724e-27
-1.35797e-23
1.16068e-24
-1.18754e-22
1.81856e-23
-8.45692e-22
1.75543e-22
-4.91602e-21
1.24362e-21
-2.3452e-20
6.88611e-21
-9.27682e-20
3.09755e-20
-3.08864e-19
1.16027e-19
-8.78123e-19
3.69512e-19
-2.17378e-18
1.0584e-18
-5.02072e-18
4.9958e-18
-2.13111e-17
8.74658e-18
-2.89623e-17
1.20869e-17
-3.21717e-17
1.48691e-17
-3.35942e-17
1.57251e-17
-2.96285e-17
1.43032e-17
-2.19024e-17
1.12495e-17
-1.33814e-17
7.65834e-18
-6.67238e-18
4.42589e-18
-2.36403e-18
2.17453e-18
-2.45382e-19
9.89619e-19
9.27938e-20
4.14318e-19
9.26928e-20
1.58225e-19
5.81213e-20
5.47338e-20
2.90681e-20
1.69621e-20
1.22915e-20
4.63031e-21
4.46308e-21
1.08569e-21
1.38657e-21
2.10411e-22
3.62077e-22
3.16651e-23
7.68215e-23
3.29867e-24
1.24839e-23
1.79872e-25
1.39137e-24
8.14226e-26
1.22491e-28
-4.86831e-56
1.338e-58
-1.59742e-52
9.87779e-55
-1.3973e-49
1.1617e-51
-5.78903e-47
5.2169e-49
-1.47389e-44
1.25907e-46
-2.6134e-42
1.94984e-44
-3.43978e-40
2.05352e-42
-3.46914e-38
1.38926e-40
-2.70039e-36
3.49006e-39
-1.61469e-34
-1.47201e-35
-7.42816e-33
-1.89452e-33
-2.6441e-31
-1.19805e-31
-7.32392e-30
-5.1168e-30
-1.5818e-28
-1.60084e-28
-2.66842e-27
-3.80167e-27
-3.50855e-26
-6.99596e-26
-3.57603e-25
-1.01394e-24
-2.77696e-24
-1.17401e-23
-1.55121e-23
-1.09605e-22
-5.16739e-23
-8.30247e-22
5.78391e-24
-5.15608e-21
3.96057e-22
-2.63994e-20
3.60869e-21
-1.12231e-19
2.12102e-20
-3.98489e-19
9.4713e-20
-1.19485e-18
3.42173e-19
-3.07324e-18
1.04198e-18
-6.94473e-18
2.89753e-18
-1.50728e-17
1.46138e-17
-6.56551e-17
2.35297e-17
-7.93049e-17
3.12496e-17
-8.30229e-17
3.97023e-17
-8.59968e-17
4.36298e-17
-7.88531e-17
4.15937e-17
-6.12904e-17
3.46014e-17
-3.95736e-17
2.57154e-17
-2.17549e-17
1.67449e-17
-9.34391e-18
9.24599e-18
-1.95562e-18
4.64567e-18
3.08111e-19
2.15377e-18
4.42046e-19
9.08955e-19
3.25432e-19
3.46519e-19
1.8411e-19
1.18073e-19
8.67921e-20
3.53803e-20
3.48751e-20
9.09785e-21
1.19414e-20
1.93353e-21
3.42968e-21
3.1939e-22
7.99921e-22
3.66041e-23
1.42997e-22
2.20743e-24
1.75575e-23
1.13291e-24
3.02473e-27
-6.01975e-54
1.94754e-56
-1.71941e-50
1.24318e-52
-1.32402e-47
1.27318e-49
-4.84069e-45
5.07786e-47
-1.0806e-42
1.10114e-44
-1.67136e-40
1.54342e-42
-1.89782e-38
1.50363e-40
-1.63364e-36
1.00368e-38
-1.08751e-34
3.92397e-37
-5.60008e-33
-1.78358e-35
-2.22351e-31
-2.91826e-32
-6.85155e-30
-1.93674e-30
-1.64797e-28
-7.68777e-29
-3.1089e-27
-2.1584e-27
-4.6188e-26
-4.53526e-26
-5.43035e-25
-7.33634e-25
-5.07446e-24
-9.30341e-24
-3.76151e-23
-9.38173e-23
-2.1905e-22
-7.61011e-22
-9.84497e-22
-5.01864e-21
-3.22082e-21
-2.72068e-20
-6.16578e-21
-1.22228e-19
1.50481e-21
-4.58921e-19
3.52172e-20
-1.45548e-18
1.97956e-19
-3.93805e-18
7.59047e-19
-9.19863e-18
2.31546e-18
-1.90186e-17
6.40297e-18
-3.86297e-17
3.42418e-17
-1.63759e-16
4.98721e-17
-1.74534e-16
6.34252e-17
-1.80608e-16
8.12372e-17
-1.50619e-16
9.42159e-17
-1.59487e-16
9.54311e-17
-1.0698e-16
8.4322e-17
-9.37835e-17
6.79875e-17
-5.63949e-17
4.99094e-17
-2.90284e-17
3.16213e-17
-9.51808e-18
1.77073e-17
4.91545e-19
9.11184e-18
1.61044e-18
4.24988e-18
1.4426e-18
1.78406e-18
9.32295e-19
6.67432e-19
4.91488e-19
2.19074e-19
2.18598e-19
6.1609e-20
8.23744e-20
1.43093e-20
2.59549e-20
2.58404e-21
6.63215e-21
3.24283e-22
1.29894e-21
2.15007e-23
1.74874e-22
1.23655e-23
4.38821e-26
-6.12249e-52
2.33159e-54
-1.51943e-48
1.29165e-50
-1.0215e-45
1.15241e-47
-3.26215e-43
4.05329e-45
-6.30776e-41
7.81333e-43
-8.38739e-39
9.75157e-41
-8.18025e-37
8.54409e-39
-6.02351e-35
5.33523e-37
-3.41558e-33
2.23456e-35
-1.50966e-31
4.63716e-34
-5.18818e-30
-2.02192e-31
-1.38941e-28
-2.18176e-29
-2.91765e-27
-8.67178e-28
-4.83071e-26
-2.25349e-26
-6.33795e-25
-4.27031e-25
-6.62168e-24
-6.16313e-24
-5.5369e-23
-6.938e-23
-3.71904e-22
-6.19042e-22
-2.01137e-21
-4.43246e-21
-8.76157e-21
-2.5748e-20
-3.04682e-20
-1.22726e-19
-8.25808e-20
-4.85391e-19
-1.62732e-19
-1.61247e-18
-1.68065e-19
-4.55856e-18
1.26404e-19
-1.10848e-17
1.05319e-18
-2.36186e-17
3.82976e-18
-4.5041e-17
1.11998e-17
-8.44405e-17
6.16617e-17
-3.17734e-16
8.13449e-17
-2.64702e-16
1.04076e-16
-3.92824e-16
1.09625e-16
-2.14982e-16
1.4986e-16
-2.77072e-16
1.33492e-16
5.25137e-17
1.62409e-16
-2.46581e-16
1.41858e-16
-1.28082e-16
1.17527e-16
-7.32754e-17
8.71446e-17
-3.27952e-17
5.52005e-17
-3.21388e-18
3.16382e-17
4.33605e-18
1.6344e-17
5.08335e-18
7.55928e-18
3.81453e-18
3.10169e-18
2.2597e-18
1.11268e-18
1.11302e-18
3.41164e-19
4.60876e-19
8.62825e-20
1.58884e-19
1.69643e-20
4.43283e-20
2.32034e-21
9.47425e-21
1.68155e-22
1.39217e-21
1.07229e-22
4.45334e-25
-4.98884e-50
2.25291e-52
-1.06847e-46
1.07966e-48
-6.22218e-44
8.34754e-46
-1.72273e-41
2.57002e-43
-2.87799e-39
4.36568e-41
-3.28164e-37
4.81929e-39
-2.73324e-35
3.74935e-37
-1.72346e-33
2.11821e-35
-8.36174e-32
8.54643e-34
-3.16731e-30
2.2253e-32
-9.42422e-29
2.03005e-31
-2.19871e-27
-1.42127e-28
-4.04025e-26
-7.08517e-27
-5.88212e-25
-1.80116e-25
-6.82173e-24
-3.15405e-24
-6.33456e-23
-4.11881e-23
-4.73287e-22
-4.15618e-22
-2.85822e-21
-3.30944e-21
-1.40116e-20
-2.11081e-20
-5.60095e-20
-1.09178e-19
-1.83064e-19
-4.63214e-19
-4.88955e-19
-1.63108e-18
-1.05717e-18
-4.82963e-18
-1.78022e-18
-1.22245e-17
-2.0475e-18
-2.68843e-17
-3.35447e-19
-5.24577e-17
3.76701e-18
-9.2986e-17
1.51828e-17
-1.59355e-16
8.222e-17
-4.9292e-16
8.55565e-17
2.42247e-16
3.7901e-16
-1.41793e-15
2.11862e-15
-1.41704e-14
2.47276e-15
-1.4072e-14
6.20938e-16
-6.69712e-15
3.36546e-16
-7.9432e-16
2.54752e-16
-1.22842e-16
2.24427e-16
-1.61454e-16
1.90128e-16
-8.52161e-17
1.39044e-16
-2.43754e-17
8.9574e-17
7.70232e-18
5.17088e-17
1.41186e-17
2.64945e-17
1.26625e-17
1.19536e-17
8.51242e-18
4.68847e-18
4.65974e-18
1.56544e-18
2.12115e-18
4.30033e-19
7.9891e-19
9.17312e-20
2.42692e-19
1.36143e-20
5.63939e-20
1.07207e-21
9.00408e-21
7.50936e-22
3.35601e-24
-3.18079e-48
1.70455e-50
-5.89432e-45
7.0922e-47
-2.97536e-42
4.76861e-44
-7.13662e-40
1.28586e-41
-1.02832e-37
1.9204e-39
-1.00698e-35
1.86493e-37
-7.17488e-34
1.28034e-35
-3.86432e-32
6.44612e-34
-1.61021e-30
2.38578e-32
-5.24353e-29
6.26158e-31
-1.34829e-27
1.00257e-29
-2.74659e-26
1.58636e-29
-4.42497e-25
-3.73567e-26
-5.66974e-24
-1.07348e-24
-5.80949e-23
-1.81493e-23
-4.78549e-22
-2.18944e-22
-3.18569e-21
-2.00473e-21
-1.72284e-20
-1.43625e-20
-7.6094e-20
-8.20838e-20
-2.75977e-19
-3.79856e-19
-8.26378e-19
-1.44266e-18
-2.0537e-18
-4.55891e-18
-4.2552e-18
-1.21712e-17
-7.31614e-18
-2.79417e-17
-1.01935e-17
-5.62957e-17
-1.03709e-17
-1.01928e-16
-3.34847e-18
-1.69794e-16
1.29569e-17
-2.83466e-16
2.69417e-16
-2.98957e-16
1.21627e-15
-6.12427e-15
2.76866e-15
-1.52874e-14
5.67801e-15
-1.6453e-14
7.0207e-15
-1.4859e-14
4.57457e-15
-1.40071e-14
7.56101e-16
-1.09878e-14
-1.36656e-16
-1.7722e-15
3.71121e-16
-2.49401e-16
3.33775e-16
-1.5391e-16
2.82223e-16
-6.90613e-17
2.07461e-16
5.21671e-18
1.34766e-16
3.05796e-17
7.6959e-17
3.41528e-17
3.83743e-17
2.64159e-17
1.65143e-17
1.61816e-17
6.01456e-18
8.12497e-18
1.79454e-18
3.34657e-18
4.14672e-19
1.10604e-18
6.65888e-20
2.78829e-19
5.67059e-21
4.82161e-20
4.33205e-21
1.93718e-23
-1.56501e-46
9.87746e-49
-2.53771e-43
3.61122e-45
-1.11836e-40
2.13661e-42
-2.33007e-38
5.0798e-40
-2.89744e-36
6.6768e-38
-2.4364e-34
5.68888e-36
-1.48799e-32
3.42631e-34
-6.8751e-31
1.52365e-32
-2.46002e-29
5.07124e-31
-6.92026e-28
1.24738e-29
-1.5411e-26
2.147e-28
-2.73714e-25
2.07166e-27
-3.8762e-24
-5.49291e-26
-4.37909e-23
-4.40834e-24
-3.96771e-22
-7.97863e-23
-2.89821e-21
-9.21882e-22
-1.71577e-20
-7.80025e-21
-8.27896e-20
-5.08428e-20
-3.27595e-19
-2.62367e-19
-1.07034e-18
-1.09259e-18
-2.91014e-18
-3.73263e-18
-6.64209e-18
-1.0637e-17
-1.28408e-17
-2.57631e-17
-2.11703e-17
-5.42137e-17
-2.97259e-17
-1.01674e-16
-3.44245e-17
-1.74676e-16
-3.03953e-17
-2.74126e-16
1.01943e-19
-3.59358e-16
2.24904e-16
-5.04289e-16
3.26077e-15
-1.16043e-14
5.87183e-15
-1.7136e-14
5.81845e-15
-1.58406e-14
6.2565e-15
-1.45774e-14
6.74447e-15
-1.36133e-14
5.6358e-15
-9.51768e-15
1.79777e-16
-5.70877e-16
4.36254e-16
-4.38977e-16
4.34181e-16
-2.17784e-16
4.28482e-16
-1.25446e-16
3.68172e-16
-1.99999e-17
2.74156e-16
4.79157e-17
1.77434e-16
7.16591e-17
9.91999e-17
6.53615e-17
4.73957e-17
4.54985e-17
1.90027e-17
2.54754e-17
6.19939e-18
1.15634e-17
1.55849e-18
4.17869e-18
2.71314e-19
1.14595e-18
2.49626e-20
2.14745e-19
2.07485e-20
8.60131e-23
-5.82477e-45
4.29387e-47
-8.37028e-42
1.39736e-43
-3.26233e-39
7.36948e-41
-5.97415e-37
1.5638e-38
-6.47085e-35
1.82749e-36
-4.69612e-33
1.37515e-34
-2.46198e-31
7.2712e-33
-9.76909e-30
2.83912e-31
-3.01455e-28
8.38791e-30
-7.33676e-27
1.87889e-28
-1.4216e-25
3.11463e-27
-2.2021e-24
3.5436e-26
-2.74317e-23
1.97019e-25
-2.7393e-22
-8.51778e-24
-2.19868e-21
-2.53489e-22
-1.42547e-20
-3.03477e-21
-7.50427e-20
-2.44717e-20
-3.22672e-19
-1.47549e-19
-1.14101e-18
-6.94915e-19
-3.34539e-18
-2.62479e-18
-8.21489e-18
-8.11935e-18
-1.71042e-17
-2.0996e-17
-3.06349e-17
-4.64438e-17
-4.79099e-17
-9.02835e-17
-6.60942e-17
-1.59323e-16
-7.74546e-17
-2.6533e-16
-6.63192e-17
-3.5327e-16
-4.99831e-17
2.65384e-16
1.21336e-16
3.11272e-16
3.49881e-15
-7.5543e-15
4.94838e-15
-8.07721e-15
3.89478e-15
-4.5342e-16
3.01811e-15
-4.73608e-16
1.98358e-15
-4.98433e-16
5.1149e-16
-4.94721e-16
4.00384e-16
-4.50777e-16
4.42299e-16
-4.21624e-16
4.71836e-16
-3.06765e-16
5.16097e-16
-1.96358e-16
5.09717e-16
-6.64524e-17
4.36953e-16
5.14102e-17
3.23551e-16
1.16283e-16
2.05123e-16
1.28213e-16
1.10056e-16
1.03004e-16
4.90853e-17
6.5107e-17
1.7663e-17
3.28867e-17
4.86329e-18
1.30903e-17
9.21928e-19
3.92492e-18
9.17872e-20
7.99426e-19
8.31576e-20
2.91521e-22
-1.61714e-43
1.37635e-45
-2.09073e-40
4.05316e-42
-7.31004e-38
1.93416e-39
-1.19416e-35
3.7126e-37
-1.14293e-33
3.9091e-35
-7.24667e-32
2.62944e-33
-3.28748e-30
1.23148e-31
-1.12351e-28
4.2342e-30
-2.99027e-27
1.10375e-28
-6.31275e-26
2.21229e-27
-1.06644e-24
3.38842e-26
-1.44858e-23
3.83466e-25
-1.58539e-22
2.8959e-24
-1.4022e-21
8.28503e-24
-9.99647e-21
-4.68191e-22
-5.7643e-20
-7.52604e-21
-2.70217e-19
-6.15503e-20
-1.03605e-18
-3.52741e-19
-3.27359e-18
-1.54052e-18
-8.60613e-18
-5.3371e-18
-1.90606e-17
-1.50836e-17
-3.61379e-17
-3.56779e-17
-5.98156e-17
-7.26079e-17
-8.84733e-17
-1.3115e-16
-1.20127e-16
-2.18315e-16
-1.24001e-16
-3.55986e-16
-1.35617e-16
-2.30469e-16
-7.31799e-16
-4.33946e-15
-5.63782e-16
-1.41006e-14
9.37949e-18
-2.66988e-15
6.18233e-17
-5.34862e-16
1.04334e-16
-5.04913e-16
1.65274e-16
-5.33567e-16
2.27208e-16
-5.62102e-16
2.96245e-16
-5.78454e-16
3.70451e-16
-5.38798e-16
4.51055e-16
-5.00728e-16
5.29031e-16
-3.84468e-16
5.89331e-16
-2.68108e-16
6.16507e-16
-1.24288e-16
5.82505e-16
3.19705e-17
4.843e-16
1.50395e-16
3.46669e-16
2.03699e-16
2.09438e-16
1.90382e-16
1.04484e-16
1.36913e-16
4.17302e-17
7.75343e-17
1.26583e-17
3.42165e-17
2.62587e-18
1.12769e-17
2.83802e-19
2.50675e-18
2.81524e-19
7.42503e-22
-3.26295e-42
3.17679e-44
-3.85249e-39
8.58951e-41
-1.22694e-36
3.76337e-38
-1.81636e-34
6.62888e-36
-1.56298e-32
6.37989e-34
-8.82312e-31
3.89574e-32
-3.52607e-29
1.64271e-30
-1.05124e-27
5.0444e-29
-2.42645e-26
1.16819e-27
-4.44819e-25
2.08443e-26
-6.56888e-24
2.88883e-25
-7.84239e-23
3.07514e-24
-7.58116e-22
2.40213e-23
-5.93868e-21
1.1986e-22
-3.77249e-20
1.14991e-22
-1.94106e-19
-1.23593e-20
-8.12604e-19
-1.21611e-19
-2.78518e-18
-6.96634e-19
-7.88015e-18
-2.89183e-18
-1.86085e-17
-9.33829e-18
-3.72236e-17
-2.44122e-17
-6.43109e-17
-5.33527e-17
-9.82856e-17
-1.00579e-16
-1.3695e-16
-1.68187e-16
-1.83062e-16
-2.39238e-16
7.64529e-17
-3.32727e-16
-1.76096e-15
-5.82855e-15