/*--------------------------------*- C++ -*----------------------------------*\
| =========                 |                                                 |
| \\      /  F ield         | OpenFOAM: The Open Source CFD Toolbox           |
|  \\    /   O peration     | Version:  2.4.0                                 |
|   \\  /    A nd           | Web:      www.OpenFOAM.org                      |
|    \\/     M anipulation  |                                                 |
\*---------------------------------------------------------------------------*/
FoamFile
{
    version     2.0;
    format      ascii;
    class       volScalarField;
    location    "0.083";
    object      alpha.water;
}
// * * * * * * * * * * * * * * * * * * * * * * * * * * * * * * * * * * * * * //

dimensions      [0 0 0 0 0 0 0];

internalField   nonuniform List<scalar> 
57600
(
1
1
1
1
1
1
1
1
1
1
1
1
1
1
1
1
1
1
1
1
1
1
1
1
1
1
1
1
1
1
1
1
1
1
1
1
1
1
1
1
1
1
1
1
1
1
1
1
1
1
1
1
1
1
1
1
1
1
1
1
1
1
1
1
1
1
1
1
1
1
1
1
1
1
1
1
1
1
1
1
1
1
1
1
1
1
1
1
1
1
1
1
1
1
1
1
1
1
1
1
1
1
1
1
1
1
1
1
1
1
1
1
1
1
1
1
1
1
1
1
1
1
1
1
1
1
1
1
1
1
1
1
1
1
1
1
1
1
1
1
1
1
1
1
1
1
1
1
1
1
1
1
1
1
1
1
1
1
1
1
1
1
1
1
1
1
1
1
1
1
1
1
1
1
1
1
1
1
1
1
1
1
1
1
1
1
1
1
1
1
1
1
1
1
1
1
1
1
1
1
1
1
1
1
1
1
1
1
1
1
1
1
1
1
1
1
1
1
1
1
1
1
1
1
1
1
1
1
1
1
1
1
1
1
1
1
1
1
1
1
1
1
1
1
1
1
1
1
1
1
1
1
1
1
1
1
1
1
1
1
1
1
1
1
1
1
1
1
1
1
1
1
1
1
1
1
1
1
1
1
1
1
1
1
1
1
1
1
1
1
1
1
1
1
1
1
1
1
1
1
1
1
1
1
1
1
1
1
1
1
1
1
1
1
1
1
1
1
1
1
1
1
1
1
1
1
1
1
1
1
1
1
1
1
1
1
1
1
1
1
1
1
1
1
1
1
1
1
1
1
1
1
1
1
1
1
1
1
1
1
1
1
1
1
1
1
1
1
1
1
1
1
1
1
1
1
1
1
1
1
1
1
1
1
1
1
1
1
1
1
1
1
1
1
1
1
1
1
1
1
1
1
1
1
1
1
1
1
1
1
1
1
1
1
1
1
1
1
1
1
1
1
1
1
1
1
1
1
1
1
1
1
1
1
1
1
1
1
1
1
1
1
1
1
1
1
1
1
1
0.999959
1
1
1
1
1
1
1
1
1
1
1
1
1
1
1
1
1
1
1
1
1
1
1
1
1
1
1
1
1
1
1
1
1
1
1
1
1
1
1
1
1
1
1
1
1
1
1
1
1
1
1
1
1
1
1
1
1
1
1
1
1
1
1
1
1
1
1
1
1
1
1
1
1
1
1
1
1
1
1
1
1
1
1
1
1
1
1
1
1
1
1
1
1
1
1
1
1
1
1
1
1
1
1
1
1
1
1
1
1
1
1
1
1
1
1
1
1
1
1
1
1
1
1
1
1
1
1
1
1
1
1
1
1
1
1
1
1
1
1
1
1
1
1
1
1
1
1
1
1
1
1
1
1
1
1
1
1
1
1
1
0.999976
1
1
1
1
1
1
1
0.999999
1
1
1
1
1
1
1
1
1
1
1
1
1
1
1
1
1
1
1
1
1
0.999995
1
1
0.999999
0.999999
1
1
1
1
0.999544
1
1
1
1
1
1
1
1
1
1
1
1
1
1
1
1
1
1
1
0.999999
1
0.999997
0.999588
0.0526954
8.96242e-10
0.640798
0.99477
1
1
0.999998
0.999968
1
1
1
1
1
1
1
1
1
1
1
1
1
1
1
1
1
0.999975
0.999993
0.999888
2.77217e-08
7.11736e-10
7.92688e-10
2.18105e-06
2.63741e-06
1.2317e-05
0.6943
0.999994
1
1
1
1
1
1
1
1
1
1
1
1
1
1
1
1
1
1
1
0.999969
0.999999
8.11026e-05
5.27985e-09
1.4649e-09
1.34697e-09
1.38735e-07
4.59401e-09
8.74025e-06
0.000245169
0.999993
1
1
1
1
1
1
1
1
1
1
1
1
1
1
1
1
1
1
1
0.999977
0.973655
1.72566e-06
6.17712e-06
1.99027e-09
4.79074e-07
1.83505e-08
4.69667e-09
0.000136706
0.000197773
0.793979
0.998887
0.999999
1
1
1
1
1
1
1
1
1
1
1
1
1
1
1
1
1
0.999984
0.0220744
3.22205e-07
6.17748e-05
3.3174e-09
1.95659e-07
0.0001906
1.67815e-06
4.95033e-05
0.000448293
1.69887e-05
0.999947
0.999944
1
1
0.999999
0.999998
1
1
1
1
1
1
1
1
1
1
1
1
1
0.999991
-5.34902e-06
4.0844e-09
7.49746e-05
2.97647e-08
1.55591e-06
2.85671e-07
4.02738e-09
2.89284e-09
4.90003e-09
2.30105e-05
0.969442
0.999913
0.999254
1
1
1
1
1
1
1
1
1
1
1
1
1
1
1
0.999951
0.746285
3.92319e-10
1.88259e-05
8.89428e-05
3.21249e-07
9.5052e-07
6.18051e-05
3.44134e-09
3.29411e-09
2.69402e-09
2.33472e-09
0.000283635
1
1
1
1
1
1
1
1
1
1
1
1
1
1
1
1
1
0.999996
0.00226623
1.13582e-09
2.68021e-05
0.000194795
2.27286e-07
3.89389e-06
7.15041e-05
2.17474e-09
3.70254e-07
2.80328e-09
2.32708e-09
0.00194669
0.997745
1
0.999997
0.999997
0.996034
1
1
1
1
1
1
1
1
1
1
1
1
1
1
1
1
1
1
1
1
1
1
1
1
1
1
1
1
1
1
1
1
1
1
1
1
1
1
1
1
1
1
1
1
1
1
1
1
1
1
1
1
1
1
1
1
1
1
1
1
1
1
1
1
1
1
1
1
1
1
1
1
1
1
1
1
1
1
1
1
1
1
1
1
1
1
1
1
1
1
1
1
1
1
1
1
1
1
1
1
1
1
1
1
1
1
1
1
1
1
1
1
1
1
1
1
1
1
1
1
1
1
1
1
1
1
1
1
1
1
1
1
1
1
1
1
1
1
1
1
1
1
1
1
1
1
1
1
1
1
1
1
1
1
1
1
1
1
1
1
1
1
1
1
1
1
1
1
1
1
1
1
1
1
1
1
1
1
1
1
1
1
1
1
1
1
1
1
1
1
1
1
1
1
1
1
1
1
1
1
1
1
1
1
1
1
1
1
1
1
1
1
1
1
1
1
1
1
1
1
1
1
1
1
1
1
1
1
1
1
1
1
1
1
1
1
1
1
1
1
1
1
1
1
1
1
1
1
1
1
1
1
1
1
1
1
1
1
1
1
1
1
1
1
1
1
1
1
1
1
1
1
1
1
1
1
1
1
1
1
1
1
1
1
1
1
1
1
1
1
1
1
1
1
1
1
1
1
1
1
1
1
1
1
1
1
1
1
1
1
1
1
1
1
1
1
1
1
1
1
1
1
1
1
1
1
1
1
1
1
1
1
1
1
1
1
1
1
1
1
1
1
1
1
1
1
1
1
1
1
1
1
1
1
1
1
1
1
1
1
1
1
1
1
1
0.999848
0.999365
1
1
1
1
1
1
1
1
1
1
1
1
1
1
1
1
1
1
1
1
1
1
1
1
1
1
1
1
0.999999
0.999902
1
1
1
1
1
1
1
1
1
1
1
1
1
1
1
1
1
1
1
1
1
1
1
1
1
1
1
1
1
0.999963
0.999996
1
1
1
1
1
1
1
1
1
1
1
1
1
1
1
1
1
1
1
1
1
1
1
1
1
1
1
1
1
1
1
1
1
1
1
1
1
1
1
1
1
1
1
1
1
1
1
1
1
1
1
1
1
1
1
1
1
1
1
0.999999
1
1
1
1
1
1
1
1
1
1
1
1
1
1
1
1
1
1
1
1
1
1
1
1
1
1
1
1
0.999996
1
1
1
1
1
1
1
1
1
1
1
0.999999
0.999998
1
1
1
1
1
1
1
1
1
1
1
1
1
1
1
1
1
1
1
1
1
1
1
1
1
1
1
1
1
1
0.999998
1
1
1
1
1
1
1
1
1
1
1
1
1
1
1
1
1
1
1
1
1
1
1
1
1
1
1
1
1
1
1
1
1
1
1
1
1
1
1
1
1
1
1
1
0.999786
0.976864
1
1
1
1
1
1
1
1
1
1
1
1
1
1
1
1
1
0.999995
1
1
1
1
1
1
1
1
1
1
0.999999
1
1
1
1
1
1
1
1
1
1
1
1
1
1
0.999999
0.999999
1
1
0.999989
0.999998
1
1
1
1
1
1
1
1
1
1
1
1
1
1
1
0.999998
0.999999
1
1
1
0.99902
1
1
0.831405
5.72104e-09
5.60196e-09
0.995699
0.999999
1
0.99998
0.999996
1
1
1
1
1
1
1
1
1
1
1
1
1
1
1
0.999999
1
1
1
0.999908
0.999621
1.33148e-08
2.46746e-08
5.801e-07
5.56007e-09
5.6365e-09
5.63602e-09
0.948885
0.999986
1
1
1
1
1
1
1
1
1
1
1
1
1
1
1
0.999999
1
1
1
1
0.99999
0.021231
3.00564e-06
1.19739e-06
7.37141e-07
5.02029e-09
5.85843e-09
6.33199e-09
1.32173e-05
0.999966
1
1
1
1
1
1
1
1
1
1
1
1
1
1
1
0.99998
1
0.999999
1
1
0.99275
0.000173074
5.37883e-08
6.666e-08
0.000861743
1.06195e-08
6.12235e-09
6.19101e-09
1.31025e-07
0.0621182
1
1
1
1
1
1
1
1
1
1
1
1
1
1
0.998796
1
1
1
1
1
0.0459031
0.000273727
2.30916e-07
7.55875e-05
0.000500907
0.000230662
1.64971e-07
1.18171e-08
2.70397e-06
1.08496e-05
0.999999
0.999999
1
1
1
1
1
1
1
1
1
1
1
1
1
1
1
0.999997
0.999998
0.99999
8.76152e-07
3.53746e-05
0.000333442
1.24187e-05
1.00047e-06
7.80339e-05
1.23096e-08
2.2089e-07
0.000115925
-1.64136e-08
0.999995
0.99994
1
1
1
1
1
1
1
1
1
1
1
0.999999
1
0.999994
0.999991
1
1
0.440763
2.35815e-05
9.46255e-09
3.34567e-06
0.000330007
8.11233e-06
3.05447e-05
2.76703e-07
5.64283e-07
2.37729e-08
2.11684e-09
0.083274
0.999993
0.999998
1
1
1
1
1
1
1
1
1
1
1
0.993406
1
1
1
0.999942
0.0026415
2.32374e-05
2.36468e-09
2.4463e-09
0.000134037
5.90568e-06
2.48502e-06
5.45264e-06
3.35054e-06
2.98852e-09
2.07576e-09
1.69481e-05
0.999999
0.999999
1
1
1
1
1
1
1
1
1
1
1
1
0.999999
0.999999
2.83263e-06
2.40177e-09
4.17102e-09
2.34107e-06
6.60514e-07
5.20159e-06
1.97004e-07
2.12651e-09
4.53678e-09
2.86028e-09
2.35674e-09
0.000107976
0.764182
1
1
1
0.995625
1
1
1
1
1
2.17104e-10
1
1
1
1
0.999993
1
0.999999
-7.26151e-06
1.48876e-09
2.0911e-05
3.98296e-06
1.12499e-05
1.10709e-05
1.80735e-05
4.16318e-09
4.88288e-09
1.33228e-07
2.42047e-09
0.000267299
0.0011874
1
1
1
1
1
1
1
1
1
5.36246e-07
0.130563
1
1
1
0.99989
1
0.999997
2.89207e-05
2.72311e-10
4.49691e-09
0.00014246
9.39201e-06
0.000110098
0.00013154
3.98248e-09
1.94446e-06
1.1823e-08
2.54981e-09
0.000104562
0.000875712
0.991459
1
1
1
1
1
1
1
1
2.43257e-08
3.76069e-05
0.871332
1
1
0.998497
0.999926
0.999276
6.4822e-06
3.38273e-10
1.73655e-08
4.05279e-05
6.53493e-07
0.000151984
1.33021e-07
2.72622e-09
1.78405e-08
5.97743e-09
2.84516e-08
-1.74716e-08
0.000818331
0.00438362
1
1
1
1
1
1
1
1
5.72453e-07
9.35676e-05
0.18493
0.993932
1
0.999917
0.999818
0.00832271
0.000267162
3.68496e-10
5.57516e-10
2.82786e-05
6.65146e-07
0.0004366
1.357e-05
2.25765e-09
8.11672e-09
6.58607e-06
4.35476e-09
3.50265e-09
0.0013206
3.40677e-05
0.902569
1
1
1
1
1
1
1
2.76433e-06
0.000225208
2.71507e-05
0.608273
0.999999
0.999997
0.999774
3.28343e-06
0.000267543
2.32598e-10
9.04326e-10
1.117e-09
0.000720112
0.00011988
9.31122e-06
1.6668e-09
4.43713e-09
7.03709e-06
2.04528e-07
3.46208e-09
0.000618504
2.12376e-06
0.000463614
1
1
1
1
1
1
1
4.09874e-07
0.000234709
0.000141256
0.0110546
0.99956
0.998785
0.947802
8.0624e-07
0.000126365
3.2536e-10
7.93267e-10
3.33226e-06
7.49619e-06
0.000450254
1.53668e-06
1.0815e-09
3.3124e-09
5.49361e-09
1.48344e-07
2.74487e-09
5.57196e-10
0.000212766
6.17363e-09
0.00162832
1
1
1
1
1
1
1.56274e-07
0.000172017
2.13174e-05
1.37911e-05
1
1
5.57731e-05
6.1683e-08
3.65957e-07
6.55416e-09
5.52521e-10
5.29303e-05
0.000390733
2.9012e-05
3.36641e-10
9.91959e-10
7.91408e-09
6.0011e-09
6.87546e-09
2.47869e-07
4.42498e-15
1.56774e-05
5.42194e-08
1.76797e-08
0.0448185
1
1
1
1
1
4.37328e-10
0.000196433
3.12827e-05
0.000162454
0.954368
0.802818
1.25881e-07
6.03461e-08
3.20553e-07
2.32426e-10
1.02347e-09
1.93351e-09
4.90253e-07
0.000334129
2.41703e-07
7.92752e-10
3.00565e-09
1.67806e-06
6.37666e-09
9.1213e-09
4.83604e-07
4.51667e-07
4.67477e-09
1.27658e-08
3.34583e-07
4.55e-05
0.000994322
0.11617
0.248532
0.257291
2.11836e-09
1.13918e-05
0.000117369
8.20638e-05
3.75039e-05
2.2729e-06
4.89873e-09
5.02076e-05
2.62609e-06
8.67409e-10
9.77566e-10
2.44072e-06
4.01212e-05
3.33109e-05
6.17895e-07
6.04378e-10
2.79157e-09
2.5152e-06
5.66104e-09
6.05436e-09
0.000140148
2.02967e-06
9.06164e-09
7.5805e-09
7.2858e-09
7.92073e-09
2.73023e-08
1.92509e-07
3.26898e-07
2.74873e-07
2.26015e-08
0.000163891
2.9878e-05
1.58518e-07
7.91254e-06
1.09021e-07
1.9029e-09
8.47041e-06
3.2704e-06
3.78159e-08
3.72473e-07
5.74587e-08
1.22263e-05
0.00014872
3.38256e-11
4.10374e-10
1.88401e-09
1.53942e-06
5.55356e-09
1.38726e-08
1.30662e-08
1.26242e-08
1.96611e-06
7.29289e-09
7.10466e-09
7.32647e-09
6.85549e-09
7.89387e-09
8.13909e-09
8.2756e-09
2.6629e-11
2.78189e-09
5.82578e-09
6.10946e-09
5.03576e-05
1.26966e-07
2.09479e-10
4.60058e-09
9.86065e-06
3.22686e-10
6.76019e-10
1.35515e-08
0.000444926
2.05658e-05
2.12249e-11
2.01213e-10
1.10207e-09
3.01178e-09
4.89234e-09
6.03152e-09
6.48504e-09
1.72462e-06
7.13906e-09
5.6371e-08
6.73238e-09
7.04818e-09
6.27714e-09
7.71627e-09
7.52883e-09
7.47223e-09
2.92051e-11
3.71906e-08
1.58975e-07
2.6986e-08
2.76561e-05
1.99228e-10
1.75775e-10
4.97282e-09
3.21647e-05
2.24116e-09
2.87515e-06
6.48452e-06
1.71668e-05
9.31379e-08
6.55468e-12
7.17982e-11
5.67591e-10
2.00395e-09
8.12774e-07
5.26363e-09
5.78839e-09
9.08076e-07
6.76038e-09
9.31699e-08
6.31058e-09
6.69126e-09
5.97581e-09
7.45187e-09
7.01895e-09
6.93185e-09
5.35635e-12
6.79395e-09
1.21428e-08
1.01895e-06
6.72338e-08
2.81692e-10
1.07526e-10
1.49373e-10
3.81386e-05
2.31393e-08
2.40887e-10
7.31913e-10
9.8832e-10
3.57958e-10
3.8762e-12
1.872e-11
2.13414e-10
1.30277e-09
2.02238e-07
6.64084e-09
1.77547e-07
5.59692e-09
6.5051e-09
7.07921e-09
5.98431e-09
6.32272e-09
5.86637e-09
7.21996e-09
6.79143e-09
6.67504e-09
5.05092e-13
8.50843e-07
4.84248e-06
4.02819e-11
8.60861e-11
7.52823e-11
4.78616e-11
1.24096e-10
1.84599e-05
1.60773e-10
1.91026e-10
1.3961e-07
3.59252e-05
1.18212e-10
1.01283e-10
6.26896e-11
5.0799e-11
5.06151e-10
2.6485e-09
2.12724e-06
4.8516e-09
7.49567e-09
5.97862e-09
5.26174e-09
5.95077e-09
6.09104e-09
5.9973e-09
6.09308e-09
6.78263e-09
6.52526e-09
2.05443e-14
1.88259e-10
6.26967e-10
2.01482e-11
5.96881e-11
1.48766e-11
1.45012e-11
3.62408e-11
9.41245e-06
3.68089e-11
4.8988e-09
7.09218e-06
9.87141e-05
6.51695e-09
3.25141e-09
5.85628e-09
1.19896e-10
9.40802e-11
6.77756e-10
2.06157e-09
2.0442e-06
2.02339e-06
3.77292e-09
6.10463e-08
6.09284e-09
6.28492e-09
1.83386e-08
6.67318e-09
7.0942e-09
6.55605e-09
4.553e-16
2.26427e-11
3.8024e-11
2.58532e-12
1.36725e-11
2.64208e-12
2.78266e-12
5.63044e-12
2.27589e-11
1.36834e-11
1.37553e-06
1.50926e-06
5.07015e-09
0.000121818
5.0574e-07
0.000164931
1.09139e-09
1.42679e-10
8.61074e-11
4.92807e-10
1.31948e-09
1.81701e-09
3.34303e-09
4.28556e-09
5.02644e-09
1.85704e-07
1.4905e-06
5.34265e-07
7.8923e-07
7.7601e-07
3.91966e-18
9.93679e-13
2.6946e-12
2.18641e-13
9.21363e-13
2.60037e-13
3.21301e-13
4.92329e-13
6.88076e-13
2.62343e-11
1.02442e-06
3.03166e-08
5.07995e-09
5.10634e-06
1.27072e-06
0.000340739
5.18401e-10
3.62955e-10
6.43889e-11
2.92197e-11
1.41487e-10
4.22823e-10
8.40451e-10
1.31159e-09
1.67148e-09
1.88736e-09
1.47687e-09
2.14314e-09
2.18953e-09
2.43967e-09
8.69963e-21
1.3889e-14
2.79239e-14
7.75111e-15
1.69747e-14
1.42886e-14
2.19616e-14
2.44999e-14
2.51182e-12
6.27698e-11
3.42734e-06
3.7137e-07
5.49383e-08
7.85519e-10
6.61976e-10
4.51853e-10
4.25922e-10
4.54187e-10
2.26093e-10
4.56212e-11
5.31588e-12
9.34627e-12
2.73062e-11
5.55311e-11
8.76942e-11
1.19704e-10
1.51704e-10
1.49143e-10
1.42667e-10
1.32838e-10
4.75772e-24
4.3615e-17
4.10647e-17
7.75414e-17
1.46621e-16
4.4875e-16
8.50597e-16
1.47062e-15
1.57532e-11
1.97872e-10
2.09156e-05
1.42205e-09
1.13012e-06
1.72006e-05
2.16618e-05
6.72461e-10
3.65258e-10
9.08863e-11
7.72695e-11
5.4647e-11
1.57584e-11
2.06107e-12
2.44614e-13
2.15521e-13
3.99536e-13
6.20037e-13
8.16075e-13
8.35674e-13
7.42358e-13
6.19106e-13
1.0288e-27
2.58116e-20
2.35429e-20
2.39424e-19
9.23971e-19
7.84738e-18
1.73204e-17
2.05164e-14
4.0349e-11
1.72231e-08
3.62238e-05
5.31992e-09
9.4487e-09
7.4569e-09
3.4154e-09
1.13723e-06
1.40797e-05
2.47282e-10
3.12332e-11
9.67372e-12
3.62871e-12
1.01995e-12
1.9735e-13
2.60927e-14
2.59203e-15
3.34062e-16
2.01491e-16
1.92715e-16
1.56751e-16
1.13892e-16
1.34226e-31
3.5014e-24
1.4211e-23
3.43395e-22
3.92422e-21
6.5304e-20
1.91728e-19
3.00396e-13
7.61663e-11
3.3257e-05
1.15709e-07
2.03516e-05
8.4812e-09
7.27448e-08
4.29656e-06
1.55736e-07
6.49426e-06
5.77827e-05
1.22108e-10
1.68923e-11
1.89748e-12
4.40343e-13
7.18256e-14
8.37464e-15
7.07927e-16
4.51899e-17
2.32906e-18
1.06078e-19
4.83003e-21
2.94306e-22
6.89136e-36
2.28931e-28
3.72009e-27
2.7835e-25
8.18167e-24
2.32386e-22
7.08299e-19
2.33322e-12
6.79568e-08
7.56769e-05
7.336e-06
1.94183e-05
1.8331e-05
1.11747e-08
1.12469e-05
7.93829e-06
7.57437e-06
4.91953e-05
1.54494e-10
1.07035e-10
2.83058e-12
1.98436e-13
2.49007e-14
2.13862e-15
1.26875e-16
5.42355e-18
1.76642e-19
4.7624e-21
1.17747e-22
2.77105e-24
1.60209e-40
6.5861e-33
4.99927e-31
1.04322e-28
6.89944e-27
3.4309e-25
2.49384e-17
1.02373e-11
1.42667e-10
9.53345e-09
3.90746e-07
8.43333e-09
1.4112e-06
1.94926e-08
8.49808e-06
8.96983e-10
1.71265e-09
6.83472e-05
1.69037e-10
2.16879e-10
8.39415e-12
1.46319e-13
6.24239e-15
3.36611e-16
1.22723e-17
3.15885e-19
6.09517e-21
9.32413e-23
1.22216e-24
1.62038e-26
1.89926e-45
7.11396e-38
3.10833e-35
1.50317e-32
2.22878e-30
2.15192e-28
4.7627e-16
3.26637e-11
6.71068e-06
0.000108556
2.03805e-08
6.71677e-09
3.46306e-08
0.000239258
1.28287e-05
6.97277e-10
2.85468e-07
2.53336e-10
3.59963e-09
1.04723e-10
6.06532e-12
1.22668e-13
1.57152e-15
3.39901e-17
7.26448e-19
1.06978e-20
1.11723e-22
8.85458e-25
5.96968e-27
4.55443e-29
8.72636e-51
3.43767e-43
7.53102e-40
8.28696e-37
2.84857e-34
4.60243e-27
3.41856e-15
5.21962e-11
0.000241569
6.303e-07
3.15037e-07
4.38536e-09
6.03536e-05
3.16992e-06
1.27178e-05
3.79365e-10
4.09583e-10
1.90219e-11
1.74306e-11
7.09168e-12
6.23018e-13
1.81226e-14
2.03551e-16
1.47679e-18
1.34918e-20
1.1544e-22
7.22216e-25
3.25147e-27
1.09271e-29
2.9112e-32
1.44487e-56
7.33797e-49
7.37366e-45
1.98398e-41
1.90854e-38
3.97269e-24
2.79073e-15
5.72509e-11
0.000175129
7.81781e-06
6.65169e-08
4.59263e-07
3.62053e-06
5.38434e-08
8.31329e-07
1.37624e-10
4.21618e-11
4.78696e-12
4.97887e-13
6.34317e-14
4.3637e-15
1.3572e-16
1.54135e-18
6.70107e-21
1.62442e-23
3.94754e-26
9.41787e-29
1.58814e-31
1.6292e-34
9.23631e-38
1.06978e-62
9.2142e-55
3.90048e-50
3.39869e-46
1.41828e-42
2.92897e-25
3.49751e-17
2.18891e-12
2.71193e-11
9.20383e-07
5.17791e-06
7.53813e-06
4.72556e-06
9.79313e-06
1.51461e-10
1.85268e-11
2.34566e-12
9.93839e-14
1.07968e-15
8.36725e-18
5.66786e-20
3.40261e-22
1.28466e-24
2.30277e-27
1.86035e-30
7.14285e-34
1.49685e-37
2.12158e-41
2.14696e-45
1.18032e-49
7.74434e-69
1.42791e-60
2.62796e-55
8.78763e-51
1.09711e-46
7.78822e-29
2.6447e-20
1.71145e-14
3.94848e-11
3.28923e-07
3.35361e-05
3.25544e-05
6.14393e-08
2.28989e-10
1.09512e-11
1.92781e-13
2.92091e-15
7.1569e-18
2.51056e-21
5.18078e-25
9.00803e-29
1.08569e-32
7.64148e-37
2.86314e-41
5.36526e-46
4.71457e-51
1.79634e-56
2.62836e-62
1.14734e-65
2.32951e-60
1.3047e-74
5.05065e-66
2.92836e-60
2.28664e-55
4.8993e-51
6.97101e-36
1.08143e-25
4.48086e-18
4.49739e-13
7.74449e-11
1.16911e-10
1.38863e-10
7.75695e-11
1.59593e-12
3.91985e-15
6.50397e-18
2.18061e-21
6.56488e-26
1.43764e-31
9.81123e-38
7.20956e-44
5.43073e-50
3.27177e-56
1.31151e-62
3.08128e-69
3.75733e-76
2.06848e-83
4.29215e-91
1.17364e-89
1.11849e-82
1
1
1
1
1
0.995307
1
1
1
0.971241
0.000940296
6.11037e-09
2.38698e-09
2.17328e-09
2.40578e-09
2.62431e-06
9.91954e-06
6.47557e-07
2.00087e-07
9.3724e-10
6.29854e-10
-2.93951e-06
0.999996
0.999998
1
1
1
1
1
1
1
1
1
1
1
1
1
1
1
0.0976192
1.25807e-05
3.06249e-09
2.61255e-09
2.36705e-09
1.11793e-09
0.000198361
1.88953e-06
7.44586e-06
2.64051e-06
1.34296e-07
4.86229e-10
6.6881e-08
0.990266
0.999999
0.999906
1
1
1
1
0.242295
1
1
1
1
1
1
1
1
0.999842
5.91109e-05
1.34419e-08
3.36434e-09
2.9324e-09
2.79448e-09
9.12784e-10
3.88525e-05
1.00014e-05
3.57785e-06
2.62378e-07
4.77025e-10
6.0041e-10
5.20583e-09
0.108894
1
0.99831
1
1
1
0.489896
0.00559137
1
1
1
1
1
1
1
1
0.000495873
0.000198525
8.61954e-06
3.3717e-09
3.16877e-09
2.97134e-09
9.603e-10
0.000461875
9.51704e-05
2.4497e-07
0.000199335
4.33131e-10
7.7353e-10
3.93059e-08
5.47321e-05
0.999999
0.998898
1
1
0.990615
0.02
2.14261e-06
1
1
1
1
1
1
1
0.609221
7.84652e-07
2.22294e-06
2.24891e-09
3.05635e-09
3.90628e-09
3.11152e-09
1.06954e-09
4.18664e-09
7.48602e-06
0.000100035
2.48179e-05
2.19395e-07
9.934e-10
1.80734e-05
6.39527e-06
0.996446
0.998787
1
0.999356
0.629441
2.63887e-05
0.000763844
1
1
1
1
1
1
1
1.40431e-08
4.44177e-05
7.11093e-08
7.7345e-10
3.31354e-07
4.28392e-09
8.35495e-09
1.31398e-09
2.89058e-10
0.000198079
5.22292e-07
3.52961e-05
4.54562e-09
1.05156e-09
9.44204e-10
3.95005e-06
0.838934
0.999999
0.999992
0.879241
3.24805e-05
0.000159705
0.00148543
1
1
0.99998
1
1
1
1.5222e-05
5.13457e-07
5.19866e-07
3.56261e-07
4.16651e-07
3.89329e-09
4.45093e-06
3.11843e-09
1.30301e-09
2.52914e-10
4.73639e-05
4.15931e-05
1.12295e-06
4.67537e-06
1.04418e-09
6.62132e-06
6.41127e-06
0.156698
0.999999
0.999898
0.164047
2.98851e-05
2.31887e-05
5.76978e-08
1
1
1
1
0.701177
0.00074892
5.15333e-09
7.76062e-09
5.8022e-09
6.71539e-09
5.21004e-06
6.92553e-06
4.44947e-09
2.98696e-09
1.01205e-09
2.47702e-10
5.8381e-10
4.06314e-05
1.08066e-05
1.69264e-06
1.05827e-09
2.32357e-05
1.39099e-06
1.18409e-05
0.999998
0.999999
0.000115885
6.43338e-05
3.69682e-05
4.63832e-09
0.160796
0.0363117
0.000645422
0.000100744
7.18682e-06
2.39857e-08
4.93935e-09
1.44539e-07
5.48883e-09
2.72235e-07
1.12717e-08
1.56765e-06
4.08053e-09
2.28878e-09
7.00533e-10
1.93822e-10
1.10341e-08
1.24065e-05
0.000166997
9.55328e-05
4.95397e-09
2.51678e-05
6.03872e-05
1.61549e-07
0.0582263
0.999999
0.000286758
1.28224e-05
0.000112852
2.66837e-08
1.66652e-07
5.94781e-08
2.01963e-08
6.95068e-09
5.40605e-09
4.43473e-09
4.92186e-09
1.87721e-08
2.11996e-06
8.83161e-09
8.91928e-07
4.84577e-09
3.47269e-09
1.45384e-09
4.19946e-10
1.45618e-10
5.99728e-10
1.58161e-06
0.000373769
9.56713e-05
3.27005e-06
2.25454e-05
6.04815e-05
1.7972e-05
9.77584e-06
0.605049
0.000289654
2.8219e-06
7.49706e-05
2.15363e-09
8.31786e-09
7.77076e-09
6.80947e-09
5.98751e-09
5.10525e-09
4.21497e-09
1.39059e-07
1.70988e-07
8.01456e-09
7.22733e-09
6.00647e-09
4.14733e-09
2.13578e-09
7.78823e-10
2.02476e-10
6.62453e-11
4.44815e-10
1.16383e-05
0.000378003
7.48782e-05
4.97451e-09
1.84935e-05
1.52225e-05
5.41009e-05
9.36269e-09
1.7616e-05
4.32562e-06
3.24809e-07
3.33052e-05
7.11009e-09
7.40212e-09
6.9198e-09
6.14204e-09
5.75969e-09
5.26172e-09
1.09135e-07
6.36262e-09
6.73221e-09
2.35149e-05
9.11014e-05
5.35119e-09
3.221e-09
1.3554e-09
3.7619e-10
7.85004e-11
1.88819e-11
2.83591e-07
2.5552e-05
0.000282879
1.07962e-08
5.21942e-05
1.78715e-06
8.96417e-06
3.26612e-07
1.44209e-07
1.46475e-06
4.24793e-11
7.55236e-10
0.000221148
3.56304e-08
6.78525e-09
6.04971e-09
5.55263e-09
5.49414e-09
5.83762e-09
5.68366e-09
5.61854e-09
1.36557e-08
2.23703e-08
2.95485e-08
5.17454e-09
2.64808e-09
7.68351e-10
1.46897e-10
2.29553e-11
7.3587e-12
8.70779e-07
6.54509e-05
3.94098e-05
1.0281e-05
9.19315e-09
2.07674e-05
3.23636e-09
1.35644e-09
1.83936e-09
2.78802e-10
2.40259e-11
1.43348e-10
2.74942e-05
4.63447e-07
6.74763e-09
6.6245e-09
2.89229e-08
5.21987e-09
5.36765e-09
1.02713e-07
1.2812e-07
8.75403e-09
6.66774e-09
5.67353e-09
4.06304e-09
1.52837e-09
3.00592e-10
3.88455e-11
5.60543e-12
2.32038e-11
3.73975e-11
7.04243e-06
0.000118396
7.57845e-05
1.09984e-07
2.95205e-05
1.17911e-10
2.2854e-08
8.2947e-11
1.79925e-09
2.22592e-11
2.36958e-06
0.000188525
5.46586e-10
6.62829e-09
6.95395e-09
7.44794e-09
6.4953e-09
1.20138e-06
9.67018e-07
5.29737e-09
4.91133e-09
4.88367e-09
3.98407e-09
1.91775e-09
4.64295e-10
6.0491e-11
5.81834e-12
6.20914e-12
4.93726e-11
4.11778e-11
0.00202011
2.90895e-08
2.93321e-05
6.08813e-10
3.73794e-05
9.88902e-11
2.82451e-10
4.07464e-11
3.77128e-11
4.66961e-12
3.45185e-07
0.00025576
2.63328e-11
6.58331e-09
6.45539e-09
6.39769e-09
6.36778e-09
6.94079e-09
8.16833e-09
4.81006e-09
1.72208e-06
2.07675e-09
1.47344e-09
4.12162e-10
5.87272e-11
5.24341e-12
3.58653e-12
2.05056e-11
7.49914e-11
4.46074e-09
0.00202103
2.65283e-08
0.000194253
1.49915e-10
4.58307e-05
3.10419e-11
3.77612e-11
1.61419e-11
7.6267e-12
5.11705e-13
6.46774e-11
7.60667e-11
1.83178e-12
7.78083e-07
4.34198e-09
1.40759e-08
1.29586e-06
2.47799e-09
1.62138e-06
1.85045e-09
1.73486e-09
7.6531e-10
1.97766e-10
2.80639e-11
2.56889e-12
3.62761e-12
2.07152e-11
7.55999e-11
1.39273e-10
2.92496e-05
0.000321255
7.26743e-08
0.000101596
7.86717e-11
6.09616e-12
6.20498e-12
7.12218e-12
3.89196e-12
7.14693e-13
2.97056e-14
9.91244e-12
1.80552e-11
5.14928e-14
2.11205e-09
1.95753e-09
1.62074e-09
1.41686e-09
1.13609e-09
8.48265e-10
4.40313e-10
1.59486e-10
3.67569e-11
4.97244e-12
4.97733e-13
1.90391e-12
1.63089e-11
7.66431e-11
2.22594e-10
5.525e-10
0.000899492
9.111e-07
8.93383e-07
4.02006e-07
1.74044e-07
5.33888e-13
6.69542e-13
7.39859e-13
4.97413e-13
3.64255e-14
1.04195e-15
4.02158e-13
7.02369e-12
5.5944e-16
1.15435e-10
9.62006e-11
7.75837e-11
5.96099e-11
3.98838e-11
2.04986e-11
6.89668e-12
1.49927e-12
1.9726e-13
2.46969e-14
1.3573e-13
1.12151e-12
6.34143e-12
2.99307e-11
1.28118e-10
2.5094e-10
0.0164558
1.03179e-06
3.28883e-05
8.24115e-05
2.75919e-10
4.22337e-13
3.50596e-14
4.00919e-14
2.80514e-14
1.17283e-15
2.15674e-17
3.75909e-15
2.03028e-13
1.68831e-18
4.87665e-13
3.71998e-13
2.67929e-13
1.71653e-13
8.81395e-14
3.11196e-14
6.74804e-15
8.68268e-16
4.16781e-16
4.69251e-15
3.95043e-14
2.28254e-13
9.34467e-13
3.16095e-12
1.32754e-11
7.88136e-11
0.000769148
2.74445e-05
1.04021e-05
2.41458e-05
2.84818e-10
1.2756e-12
8.83878e-16
1.0415e-15
6.68812e-16
2.14802e-17
2.374e-19
4.53271e-18
5.33406e-16
1.18516e-21
7.89161e-17
5.21979e-17
3.10754e-17
1.51467e-17
5.22364e-18
1.06311e-18
2.55144e-19
4.78211e-18
9.70473e-17
1.25903e-15
1.02486e-14
5.73445e-14
3.14019e-13
1.90574e-12
9.06306e-12
3.64928e-11
1.06413e-10
0.000118157
5.81062e-10
0.000345204
2.5489e-10
2.66108e-12
2.55779e-17
1.12904e-17
6.63703e-18
1.89316e-19
1.4296e-21
8.92067e-22
2.04918e-19
1.88083e-25
5.20562e-23
1.38329e-23
2.93756e-24
1.04557e-25
1.94164e-24
2.65106e-22
2.01129e-20
8.55475e-19
2.14867e-17
3.25564e-16
3.30356e-15
3.40672e-14
3.25723e-13
2.41197e-12
1.22898e-11
3.55324e-11
7.63961e-11
1.31919e-07
4.99328e-10
0.000913356
3.96176e-10
5.28899e-12
5.25102e-17
5.44871e-20
2.26294e-20
6.49762e-22
3.89674e-24
1.71165e-25
1.38479e-23
8.1788e-30
1.64142e-25
9.68553e-27
5.27039e-28
1.71595e-28
6.92519e-26
1.56845e-23
1.85391e-21
1.35328e-19
5.45941e-18
1.16141e-16
2.02994e-15
3.14541e-14
7.65016e-13
1.55087e-11
1.08593e-10
2.42548e-10
2.23411e-10
3.74611e-10
3.61121e-10
0.00288312
7.0819e-10
1.24763e-11
1.28579e-16
1.99488e-22
2.60084e-23
6.91877e-25
3.56513e-27
4.29389e-29
1.81747e-28
1.44103e-34
4.56252e-28
1.53434e-29
4.46472e-31
1.16678e-30
1.1591e-27
5.9762e-25
2.15406e-22
3.07978e-20
1.58049e-18
5.15342e-17
1.42207e-15
1.3425e-13
1.06436e-11
1.21565e-10
5.09242e-10
1.05927e-09
1.09275e-09
4.33252e-10
1.45929e-08
0.000852985
5.71947e-08
1.04675e-11
1.42538e-16
2.90737e-24
1.75117e-26
2.41775e-28
9.28781e-31
5.03422e-33
7.79432e-34
1.48881e-39
4.21747e-31
4.23189e-33
4.56999e-35
3.3834e-33
1.61699e-29
4.28406e-26
2.68157e-23
4.40737e-21
3.6958e-19
2.26089e-17
7.41317e-15
2.5292e-12
1.26465e-10
2.35053e-10
1.42003e-05
1.90469e-09
6.03123e-09
1.07044e-09
2.5324e-07
1.05841e-05
2.96486e-10
7.80619e-12
8.03453e-17
6.6832e-25
2.22268e-29
5.32408e-32
8.57335e-35
1.76451e-37
2.34068e-39
8.55619e-45
6.06661e-35
7.82686e-38
3.93453e-40
8.83984e-36
2.65661e-31
1.07302e-27
9.27341e-25
3.39618e-22
1.0279e-19
1.98918e-16
2.14362e-13
3.93133e-11
5.17857e-10
1.26776e-05
1.09767e-06
3.23653e-09
1.43986e-09
1.20569e-05
1.75417e-07
9.00758e-07
5.37235e-10
4.11213e-12
2.15093e-17
8.86669e-26
3.89491e-32
2.29842e-35
7.86206e-39
2.81527e-42
4.76448e-45
1.8354e-50
2.44754e-41
2.93765e-43
1.69934e-39
7.62338e-36
2.33906e-32
5.36243e-29
2.29446e-25
1.83112e-21
8.67461e-18
1.47318e-14
5.49906e-12
2.57871e-10
8.01646e-10
0.000106799
3.25595e-05
6.97655e-07
6.29461e-07
0.0001782
2.71288e-05
3.54511e-06
1.86603e-10
1.19897e-12
2.03121e-18
2.64128e-27
3.46108e-35
9.4811e-39
1.24973e-42
8.88092e-47
6.51288e-51
1.88821e-56
4.00898e-50
9.40033e-46
2.44645e-41
6.41922e-37
1.54451e-32
3.01626e-28
4.06543e-24
3.03552e-20
9.48982e-17
8.63313e-14
1.48525e-11
3.35345e-10
1.57985e-08
2.12677e-06
1.21453e-07
0.000320035
5.10334e-06
1.03198e-07
5.44055e-08
1.2388e-07
8.7423e-11
1.18426e-13
3.86433e-20
8.13428e-30
1.28687e-38
1.80594e-42
1.20367e-46
3.68292e-51
4.57852e-56
5.54125e-62
2.56654e-55
2.20682e-50
1.89271e-45
1.50777e-40
1.01584e-35
5.08819e-31
1.60113e-26
2.55564e-22
1.62429e-18
3.12253e-15
1.32171e-12
8.79702e-11
7.18813e-10
0.000207701
0.000220585
0.000928201
9.64466e-08
5.4366e-06
8.4887e-06
1.68962e-10
8.4978e-12
6.91524e-16
2.23057e-23
3.67458e-34
2.00501e-42
1.54716e-46
5.46807e-51
8.24214e-56
3.6355e-61
1.55167e-67
5.60491e-76
2.14878e-69
8.05157e-63
2.70678e-56
7.34596e-50
1.41226e-43
1.65213e-37
9.83481e-32
2.4517e-26
2.04878e-21
4.43853e-17
1.8249e-13
4.44112e-11
2.88453e-10
0.000100905
0.00026552
0.000276245
2.14651e-09
2.35356e-10
3.79774e-11
3.86623e-14
3.57558e-20
1.13575e-29
3.49531e-42
1.32366e-46
6.71147e-51
1.42284e-55
1.11149e-60
1.98298e-66
2.68958e-73
1
1
1
1
1
1
1
1
1
1
1
1
1
1
1
1
1
1
1
1
1
1
1
1
1
1
1
1
1
1
1
1
1
1
1
1
1
1
1
1
1
1
1
1
1
1
1
1
1
1
1
1
1
1
1
1
1
1
1
1
1
1
1
1
1
1
1
1
1
1
1
1
1
1
1
1
1
1
1
1
1
1
1
1
1
1
1
1
1
1
1
1
1
1
1
1
1
1
1
1
1
1
1
1
1
1
1
1
1
1
1
1
1
1
1
1
1
1
1
1
1
1
1
1
1
1
1
1
1
1
1
1
1
1
1
1
1
1
1
1
1
1
1
1
1
1
1
1
1
1
1
1
1
1
1
1
1
1
1
1
1
1
1
1
1
1
1
1
1
1
1
1
1
1
1
1
1
1
1
1
1
1
1
1
1
1
1
1
1
1
1
1
1
1
1
1
1
1
1
1
1
1
1
1
1
1
1
1
1
1
1
1
1
1
1
1
1
1
1
1
1
1
1
1
1
1
1
1
1
1
1
1
1
1
1
1
1
1
1
1
1
1
1
1
1
1
1
1
1
1
1
1
1
1
1
1
1
1
1
1
1
1
1
1
1
1
1
1
1
1
1
1
1
1
1
1
1
1
1
1
1
1
1
1
1
1
1
1
1
1
1
1
1
1
1
1
1
1
1
1
1
1
1
1
1
1
1
1
1
1
1
1
1
1
1
1
1
1
1
1
1
1
1
1
1
1
1
1
1
1
1
1
1
1
1
1
1
1
1
1
1
1
1
1
1
1
1
1
1
1
1
1
1
1
1
1
1
1
1
1
1
1
1
1
1
1
1
1
1
1
1
1
1
1
1
1
1
1
1
1
1
1
1
1
1
1
1
1
1
1
1
1
1
1
1
1
1
1
1
1
1
1
1
1
1
1
1
1
1
1
1
1
1
1
1
1
1
1
1
0.999897
1
1
1
1
1
1
1
1
1
1
1
1
1
1
1
1
1
1
1
1
1
1
1
1
1
1
1
1
1
0.999783
1
1
1
1
1
1
1
1
1
1
1
1
1
1
1
1
1
1
1
1
1
1
1
1
1
1
1
1
1
1
1
1
1
1
1
1
1
1
1
1
1
1
1
1
1
1
1
1
1
1
1
1
1
1
1
1
1
1
1
1
1
1
1
1
1
1
1
1
1
1
1
1
1
1
1
1
1
1
1
1
1
1
1
1
1
1
1
1
1
1
1
1
1
1
1
1
1
1
1
1
1
1
1
1
1
1
1
1
1
1
1
1
1
1
1
1
1
1
1
1
1
1
1
1
1
1
1
1
1
1
1
1
1
1
1
1
1
1
1
1
1
1
1
1
1
1
1
1
1
1
1
1
1
1
1
1
1
1
1
1
0.999996
1
1
1
1
1
1
1
1
1
1
1
1
1
1
1
1
1
1
1
1
1
1
1
1
1
1
1
1
1
0.999998
1
1
1
1
1
1
1
1
0.999987
1
1
1
1
1
1
1
1
1
1
1
1
1
1
1
1
1
1
1
0.99999
1
1
0.99987
0.467181
0.649849
0.999926
1
1
1
0.999534
1
1
1
1
1
1
1
1
1
1
1
1
1
1
1
1
1
1
0.999978
0.999981
0.999832
0.0648232
6.07566e-10
6.13595e-10
2.93431e-06
1.54205e-08
3.20329e-06
0.999998
0.999994
1
0.999998
1
1
1
1
1
1
1
1
1
1
1
1
1
1
1
1
1
0.999999
0.999991
9.85659e-06
1.72836e-09
1.2381e-09
9.14575e-10
5.8112e-06
4.38867e-06
0.00014535
0.139771
0.999899
1
1
1
1
1
1
1
1
1
1
1
1
1
1
1
1
1
1
1
1
0.530592
2.22181e-06
2.31559e-09
1.93495e-09
5.75336e-07
6.39954e-09
4.61392e-09
1.16516e-05
0.000270745
0.998521
0.99961
1
1
1
1
1
1
1
1
1
1
1
1
1
1
1
1
1
1
0.999999
0.000150835
8.86831e-07
8.47572e-06
2.18702e-09
2.41811e-07
0.000191055
7.37636e-09
0.000160999
6.17474e-05
0.125634
0.998895
1
1
1
0.999998
1
1
1
1
1
1
1
1
1
1
1
1
1
1
0.990538
-4.99826e-07
3.81244e-05
2.46378e-05
2.50709e-07
1.11851e-05
0.000189533
3.7485e-09
6.69824e-09
1.09266e-08
1.02072e-05
0.999997
0.999152
1
1
0.999998
1
1
1
1
1
1
1
1
1
1
1
1
0.999999
1
0.0732485
1.41059e-09
1.03556e-05
0.000109569
1.68771e-07
1.91833e-06
2.49373e-05
5.60431e-09
2.7378e-09
2.69707e-09
1.37263e-07
0.988131
1
1
1
1
1
1
1
1
1
1
1
1
1
1
1
1
0.999999
0.999969
1.72422e-06
1.84792e-09
0.000178878
2.70453e-05
4.09808e-07
2.18418e-07
3.43603e-05
2.34094e-09
2.89781e-08
2.61027e-09
2.39835e-09
0.0142403
0.999935
1
0.999997
1
0.996186
1
1
1
1
1
1
1
1
1
1
1
1
1
1
1
1
1
1
1
1
1
1
1
1
1
1
1
1
1
1
1
1
1
1
1
1
1
1
1
1
1
1
1
1
1
1
1
1
1
1
1
1
1
1
1
1
1
1
1
1
1
1
1
1
1
1
1
1
1
1
1
1
1
1
1
1
1
1
1
1
1
1
1
1
1
1
1
1
1
1
1
1
1
1
1
1
1
1
1
1
1
1
1
1
1
1
1
1
1
1
1
1
1
1
1
1
1
1
1
1
1
1
1
1
1
1
1
1
1
1
1
1
1
1
1
1
1
1
1
1
1
1
1
1
1
1
1
1
1
1
1
1
1
1
1
1
1
1
1
1
1
1
1
1
1
1
1
1
1
1
1
1
1
1
1
1
1
1
1
1
1
1
1
1
1
1
1
1
1
1
1
1
1
1
1
1
1
1
1
1
1
1
1
1
1
1
1
1
1
1
1
1
1
1
1
1
1
1
1
1
1
1
1
1
1
1
1
1
1
1
1
1
1
1
1
1
1
1
1
1
1
1
1
1
1
1
1
1
1
1
1
1
1
1
1
1
1
1
1
1
1
1
1
1
1
1
1
1
1
1
1
1
1
1
1
1
1
1
1
1
1
1
1
1
1
1
1
1
1
1
1
1
1
1
1
1
1
1
1
1
1
1
1
1
1
1
1
1
1
1
1
1
1
1
1
1
1
1
1
1
1
1
1
1
1
1
1
1
1
1
1
1
1
1
1
1
1
1
1
1
1
1
1
1
1
1
1
1
1
1
1
1
1
1
1
1
1
1
1
1
1
1
1
1
1
0.999365
1
1
1
1
1
1
1
1
1
1
1
1
1
1
1
1
1
1
1
1
1
1
1
1
1
1
1
1
1
0.999999
0.99937
1
1
1
1
1
1
1
1
1
1
1
1
1
1
1
1
1
1
1
1
1
1
1
1
1
1
1
1
0.999992
1
1
1
1
1
1
1
1
1
1
1
1
1
1
1
1
1
1
1
1
1
1
1
1
1
1
1
1
1
1
1
1
1
1
1
1
1
1
1
1
1
1
1
1
1
1
1
1
1
1
1
1
1
1
1
1
1
1
1
1
1
1
1
1
1
1
1
1
1
1
1
1
0.999999
0.999998
1
1
1
1
1
1
1
1
1
1
1
1
1
1
1
1
0.999999
1
1
1
1
1
1
1
1
1
1
1
0.999999
1
1
1
1
1
1
1
1
1
1
1
1
1
1
1
1
1
1
1
1
1
1
1