/*--------------------------------*- C++ -*----------------------------------*\
| =========                 |                                                 |
| \\      /  F ield         | OpenFOAM: The Open Source CFD Toolbox           |
|  \\    /   O peration     | Version:  2.4.0                                 |
|   \\  /    A nd           | Web:      www.OpenFOAM.org                      |
|    \\/     M anipulation  |                                                 |
\*---------------------------------------------------------------------------*/
FoamFile
{
    version     2.0;
    format      ascii;
    class       volVectorField;
    location    "0.083";
    object      U;
}
// * * * * * * * * * * * * * * * * * * * * * * * * * * * * * * * * * * * * * //

dimensions      [0 1 -1 0 0 0 0];

internalField   nonuniform List<vector> 
57600
(
(-0.00262283 0.000177589 0)
(-0.00555628 5.77524e-05 0)
(-0.00960244 5.26366e-05 0)
(-0.01283 3.12662e-05 0)
(-0.0141806 -2.5788e-05 0)
(-0.0124431 -9.04836e-05 0)
(-0.00851584 -0.000116256 0)
(-0.00365197 -0.000126583 0)
(0.00206089 -0.000147265 0)
(0.00894096 -0.000189928 0)
(0.0170684 -0.000243031 0)
(0.0256017 -0.000256153 0)
(0.0330219 -0.000202801 0)
(0.0379734 -7.79473e-05 0)
(0.0396583 9.48906e-05 0)
(0.0381429 0.000264026 0)
(0.034195 0.000386032 0)
(0.0288266 0.000447775 0)
(0.0230144 0.000450035 0)
(0.0175298 0.000405191 0)
(0.0128234 0.000332223 0)
(0.00905477 0.00024858 0)
(0.0061929 0.000164385 0)
(0.00411707 8.59682e-05 0)
(0.00268105 1.62109e-05 0)
(0.00173621 -4.19557e-05 0)
(0.00114295 -8.73559e-05 0)
(0.000772087 -0.000115858 0)
(0.000517367 -0.000128153 0)
(0.000305604 -0.000128032 0)
(-0.00339806 0.000733829 0)
(-0.0113217 0.000539713 0)
(-0.0188372 0.000525554 0)
(-0.0256135 0.000412161 0)
(-0.0295853 4.36095e-06 0)
(-0.0284911 -0.000513883 0)
(-0.0228627 -0.000921915 0)
(-0.0136433 -0.00135017 0)
(-0.00112937 -0.00187402 0)
(0.0141566 -0.0024605 0)
(0.0312731 -0.00294204 0)
(0.048482 -0.00304486 0)
(0.0638003 -0.00266099 0)
(0.075657 -0.00178928 0)
(0.0831341 -0.000580731 0)
(0.0862032 0.000709901 0)
(0.0854346 0.00190669 0)
(0.0815491 0.00289559 0)
(0.0753565 0.00358099 0)
(0.0677246 0.00394022 0)
(0.0594421 0.0040273 0)
(0.0511044 0.0039296 0)
(0.0430893 0.00372659 0)
(0.0355907 0.00347805 0)
(0.0286819 0.00322517 0)
(0.0223725 0.00300125 0)
(0.016631 0.00283345 0)
(0.011417 0.0027379 0)
(0.00668876 0.00271005 0)
(0.00240758 0.00272569 0)
(-0.00348079 0.00134098 0)
(-0.0118026 0.00111144 0)
(-0.0197577 0.00112733 0)
(-0.0271365 0.000961383 0)
(-0.0317955 0.00019417 0)
(-0.0312109 -0.000876278 0)
(-0.0257881 -0.00181443 0)
(-0.0164541 -0.0028176 0)
(-0.00361254 -0.00396437 0)
(0.0120495 -0.00516732 0)
(0.0295546 -0.00613822 0)
(0.0471581 -0.00640348 0)
(0.0628966 -0.00578668 0)
(0.0752391 -0.00428052 0)
(0.0832721 -0.00213741 0)
(0.0870188 0.000192559 0)
(0.0871481 0.0024396 0)
(0.0843927 0.0044543 0)
(0.0794727 0.0060835 0)
(0.0730953 0.00725299 0)
(0.065858 0.00800027 0)
(0.0582041 0.00842547 0)
(0.0504356 0.00863995 0)
(0.0427381 0.00873758 0)
(0.0352194 0.00878352 0)
(0.0279572 0.0088187 0)
(0.0210189 0.00886332 0)
(0.0144873 0.00891744 0)
(0.00844562 0.00896656 0)
(0.00294503 0.00899958 0)
(-0.0035041 0.00195477 0)
(-0.0118416 0.00169344 0)
(-0.0198522 0.00174628 0)
(-0.0273544 0.00153987 0)
(-0.0321934 0.000414697 0)
(-0.0317067 -0.00121913 0)
(-0.0263312 -0.00269836 0)
(-0.0170192 -0.00429097 0)
(-0.0041596 -0.00606971 0)
(0.011539 -0.00789456 0)
(0.0291659 -0.00936784 0)
(0.0469661 -0.00980127 0)
(0.0629333 -0.00895695 0)
(0.0754979 -0.00681083 0)
(0.0836274 -0.00370633 0)
(0.0872929 -0.000319633 0)
(0.0871999 0.00297734 0)
(0.0840566 0.00601177 0)
(0.0785998 0.00855873 0)
(0.0716462 0.0104937 0)
(0.0639163 0.0118596 0)
(0.0559304 0.0127891 0)
(0.0480117 0.0134318 0)
(0.0403386 0.0139144 0)
(0.0329977 0.0143225 0)
(0.0260342 0.0146959 0)
(0.0194775 0.0150304 0)
(0.0133716 0.0152897 0)
(0.0077616 0.0154395 0)
(0.00267028 0.0154866 0)
(-0.00352816 0.00257187 0)
(-0.0118342 0.00227646 0)
(-0.0198559 0.00236874 0)
(-0.0274294 0.00212989 0)
(-0.0323964 0.000645254 0)
(-0.0319368 -0.00156061 0)
(-0.0265731 -0.0035786 0)
(-0.0173092 -0.00576134 0)
(-0.00448618 -0.00817396 0)
(0.011194 -0.0106286 0)
(0.0289437 -0.0126311 0)
(0.0470023 -0.0132508 0)
(0.0633098 -0.0121973 0)
(0.0762632 -0.00941168 0)
(0.0846697 -0.00530437 0)
(0.0884429 -0.000824616 0)
(0.0883877 0.00356237 0)
(0.0851554 0.00769503 0)
(0.0794163 0.0112474 0)
(0.0720186 0.0140084 0)
(0.0637632 0.0160081 0)
(0.0552493 0.017412 0)
(0.0468698 0.0184116 0)
(0.0388612 0.0191697 0)
(0.0313523 0.0197984 0)
(0.0244107 0.0203503 0)
(0.0180557 0.0208201 0)
(0.0122845 0.0211639 0)
(0.00707281 0.0213471 0)
(0.00238112 0.0213874 0)
(-0.00355915 0.00319296 0)
(-0.0118189 0.00285941 0)
(-0.0198485 0.00299339 0)
(-0.0275029 0.00273146 0)
(-0.0326263 0.000884953 0)
(-0.0321946 -0.00190321 0)
(-0.0268489 -0.0044532 0)
(-0.017658 -0.00722383 0)
(-0.00488935 -0.0102721 0)
(0.0107548 -0.0133666 0)
(0.028657 -0.0159368 0)
(0.0470432 -0.0167677 0)
(0.0637826 -0.0155338 0)
(0.077248 -0.0121201 0)
(0.0860297 -0.00695873 0)
(0.0899507 -0.00135819 0)
(0.0900143 0.00412928 0)
(0.0868038 0.00941921 0)
(0.080901 0.0140526 0)
(0.0732131 0.0176997 0)
(0.0646211 0.0203713 0)
(0.0557715 0.0222662 0)
(0.0470821 0.0236141 0)
(0.0388067 0.0246077 0)
(0.031095 0.0253808 0)
(0.0240327 0.0260028 0)
(0.0176454 0.0264875 0)
(0.0119168 0.0268135 0)
(0.00679429 0.0269677 0)
(0.00221081 0.0269771 0)
(-0.00359842 0.00381907 0)
(-0.0117987 0.00344206 0)
(-0.0198368 0.00362047 0)
(-0.0275882 0.00334736 0)
(-0.0329081 0.00113617 0)
(-0.0325097 -0.00224738 0)
(-0.0271875 -0.00532011 0)
(-0.0180889 -0.00867605 0)
(-0.00538353 -0.0123628 0)
(0.0102068 -0.0161077 0)
(0.0282941 -0.0192961 0)
(0.0470785 -0.0203674 0)
(0.06434 -0.0189907 0)
(0.0784491 -0.0149754 0)
(0.0877124 -0.00868086 0)
(0.0917858 -0.00192893 0)
(0.0920287 0.00465088 0)
(0.0888988 0.0111648 0)
(0.082828 0.0169599 0)
(0.074823 0.0215384 0)
(0.0658922 0.024896 0)
(0.0567455 0.0272796 0)
(0.0478129 0.0289683 0)
(0.0393402 0.0301854 0)
(0.0314644 0.0310837 0)
(0.0242616 0.031748 0)
(0.0177527 0.0322135 0)
(0.011921 0.032488 0)
(0.00671676 0.0325849 0)
(0.00207554 0.0325414 0)
(-0.00364721 0.00445141 0)
(-0.0117733 0.0040242 0)
(-0.0198205 0.00425027 0)
(-0.0276849 0.00398071 0)
(-0.0332453 0.00140168 0)
(-0.0328841 -0.00259388 0)
(-0.027589 -0.0061774 0)
(-0.0186032 -0.0101159 0)
(-0.00596804 -0.0144452 0)
(0.00954186 -0.0188495 0)
(0.0278477 -0.0227212 0)
(0.0471017 -0.0240645 0)
(0.0649742 -0.0225899 0)
(0.0798708 -0.0180342 0)
(0.0897479 -0.0104761 0)
(0.0939381 -0.00253765 0)
(0.09444 0.0050938 0)
(0.0914719 0.0129234 0)
(0.0852077 0.0199887 0)
(0.0768084 0.0255504 0)
(0.0674664 0.0295973 0)
(0.0579743 0.0324519 0)
(0.0487747 0.0344594 0)
(0.0400969 0.0358848 0)
(0.0320514 0.0369037 0)
(0.0246895 0.0376163 0)
(0.018017 0.0380731 0)
(0.0120181 0.0383013 0)
(0.00665755 0.0383309 0)
(0.00188918 0.0382099 0)
(-0.00370701 0.00509131 0)
(-0.011742 0.00460555 0)
(-0.0197991 0.00488299 0)
(-0.0277914 0.00463481 0)
(-0.0336403 0.00168447 0)
(-0.0333174 -0.00294392 0)
(-0.0280519 -0.00702302 0)
(-0.0192019 -0.0115409 0)
(-0.00664176 -0.016519 0)
(0.00875026 -0.021587 0)
(0.0273099 -0.0262261 0)
(0.0471056 -0.0278726 0)
(0.0656755 -0.026346 0)
(0.0815171 -0.0213886 0)
(0.0921861 -0.0123384 0)
(0.096381 -0.00317271 0)
(0.0972596 0.00540628 0)
(0.0945768 0.0146842 0)
(0.0880785 0.0231704 0)
(0.0791761 0.0297793 0)
(0.0693242 0.0345131 0)
(0.0594148 0.0378109 0)
(0.0498986 0.0401067 0)
(0.0409803 0.04172 0)
(0.0327374 0.0428564 0)
(0.0251888 0.0436331 0)
(0.018318 0.0441087 0)
(0.0121043 0.0443137 0)
(0.0065287 0.0442761 0)
(0.00157636 0.0440429 0)
(-0.00377966 0.00574032 0)
(-0.0117043 0.0051858 0)
(-0.0197719 0.00551878 0)
(-0.0279057 0.00531315 0)
(-0.0340964 0.00198773 0)
(-0.0338093 -0.00329932 0)
(-0.0285747 -0.00785479 0)
(-0.019886 -0.0129486 0)
(-0.00740226 -0.0185846 0)
(0.00781899 -0.0243119 0)
(0.0266719 -0.0298288 0)
(0.0470825 -0.031804 0)
(0.0664313 -0.0302511 0)
(0.0834018 -0.0251955 0)
(0.0951116 -0.0142382 0)
(0.0990541 -0.00379528 0)
(0.100504 0.00550413 0)
(0.0982912 0.0164338 0)
(0.0914931 0.0265519 0)
(0.0819372 0.0342831 0)
(0.0714525 0.0396905 0)
(0.061044 0.043392 0)
(0.051158 0.0459373 0)
(0.0419645 0.0477124 0)
(0.0335007 0.0489611 0)
(0.0257458 0.0498212 0)
(0.0186503 0.0503564 0)
(0.0121738 0.0505866 0)
(0.00630039 0.0505102 0)
(0.00106923 0.0501318 0)
(-0.00386731 0.00640014 0)
(-0.0116593 0.00576455 0)
(-0.0197381 0.00615765 0)
(-0.028025 0.0060194 0)
(-0.0346173 0.00231497 0)
(-0.0343591 -0.00366265 0)
(-0.0291552 -0.00867021 0)
(-0.0206573 -0.0143359 0)
(-0.00824537 -0.0206441 0)
(0.00673106 -0.0270098 0)
(0.025926 -0.0335546 0)
(0.047025 -0.0358689 0)
(0.0672172 -0.0342474 0)
(0.0855924 -0.0297089 0)
(0.0986649 -0.0160983 0)
(0.101827 -0.00430377 0)
(0.104205 0.00524718 0)
(0.102729 0.0181567 0)
(0.0955191 0.030202 0)
(0.0850963 0.0391372 0)
(0.0738282 0.0451833 0)
(0.0628352 0.0492317 0)
(0.0525286 0.0519764 0)
(0.0430337 0.0538774 0)
(0.0343411 0.0552264 0)
(0.0263823 0.0561894 0)
(0.019062 0.0568385 0)
(0.012297 0.0571893 0)
(0.00599375 0.0572107 0)
(3.59712e-05 0.056752 0)
(-0.0039725 0.00707283 0)
(-0.0116062 0.00634128 0)
(-0.0196969 0.00679946 0)
(-0.0281464 0.00675744 0)
(-0.0352076 0.00267007 0)
(-0.0349659 -0.0040374 0)
(-0.029791 -0.00946657 0)
(-0.0215181 -0.015699 0)
(-0.00916528 -0.0227031 0)
(0.00546485 -0.0296566 0)
(0.0250675 -0.0374456 0)
(0.0469295 -0.040075 0)
(0.0679685 -0.0381969 0)
(0.0883202 -0.0352948 0)
(0.10305 -0.0177421 0)
(0.104414 -0.00444856 0)
(0.108447 0.00440274 0)
(0.108058 0.0198416 0)
(0.100242 0.0342269 0)
(0.0886473 0.0444408 0)
(0.0764184 0.0510505 0)
(0.0647522 0.0553662 0)
(0.0539785 0.0582447 0)
(0.0441663 0.0602211 0)
(0.0352563 0.0616441 0)
(0.0271263 0.0627192 0)
(0.0196253 0.0635371 0)
(0.0126351 0.0641137 0)
(0.00609262 0.0645011 0)
(-2.88349e-05 0.0648029 0)
(-0.00409823 0.00776078 0)
(-0.0115438 0.00691541 0)
(-0.0196477 0.00744395 0)
(-0.0282658 0.00753145 0)
(-0.0358732 0.00305744 0)
(-0.0356285 -0.0044283 0)
(-0.0304793 -0.0102408 0)
(-0.0224714 -0.0170332 0)
(-0.010154 -0.0247724 0)
(0.00399026 -0.0322126 0)
(0.0241006 -0.041579 0)
(0.046803 -0.0444273 0)
(0.068458 -0.0419415 0)
(0.0913918 -0.0422578 0)
(0.108283 -0.0188368 0)
(0.106124 -0.00363878 0)
(0.113499 0.0026037 0)
(0.11452 0.0214887 0)
(0.105768 0.0387926 0)
(0.0925579 0.0503226 0)
(0.0791695 0.0573527 0)
(0.0667498 0.0618298 0)
(0.0554658 0.0647603 0)
(0.045326 0.0667404 0)
(0.0362294 0.0681854 0)
(0.0279983 0.0693593 0)
(0.0204069 0.0703887 0)
(0.013246 0.0712518 0)
(0.00650933 0.0716765 0)
(0.00126812 0.0702691 0)
(-0.00424813 0.00846681 0)
(-0.0114708 0.00748619 0)
(-0.0195899 0.00809065 0)
(-0.0283781 0.00834577 0)
(-0.036621 0.00348203 0)
(-0.0363451 -0.00484163 0)
(-0.0312173 -0.0109893 0)
(-0.0235204 -0.0183318 0)
(-0.0112016 -0.0268713 0)
(0.00226531 -0.0346146 0)
(0.023053 -0.0460933 0)
(0.0466752 -0.0489264 0)
(0.0681718 -0.0456634 0)
(0.0926019 -0.0501277 0)
(0.114489 -0.019667 0)
(0.105321 -0.000906208 0)
(0.120157 -0.000611499 0)
(0.122433 0.0231136 0)
(0.112224 0.044163 0)
(0.0967417 0.0569435 0)
(0.0820042 0.0641394 0)
(0.0687744 0.0686527 0)
(0.0569364 0.0715408 0)
(0.0464587 0.0734266 0)
(0.0372175 0.074802 0)
(0.0289931 0.076012 0)
(0.0214907 0.0772737 0)
(0.0143241 0.0786858 0)
(0.00683808 0.0799314 0)
(-0.00109643 0.0774711 0)
(-0.00442651 0.00919429 0)
(-0.0113859 0.00805278 0)
(-0.0195229 0.00873893 0)
(-0.0284774 0.00920502 0)
(-0.0374597 0.00394962 0)
(-0.0371132 -0.00528555 0)
(-0.0320016 -0.0117079 0)
(-0.0246691 -0.0195856 0)
(-0.0122963 -0.029033 0)
(0.00023309 -0.0367714 0)
(0.0220088 -0.0512037 0)
(0.0466174 -0.0535739 0)
(0.0674492 -0.0500898 0)
(0.0952807 -0.0571243 0)
(0.125228 -0.0222169 0)
(0.104512 0.00306708 0)
(0.127167 -0.00553461 0)
(0.132065 0.0245621 0)
(0.119785 0.0507833 0)
(0.101006 0.0644927 0)
(0.0848262 0.0714279 0)
(0.0707734 0.0758615 0)
(0.0583241 0.0786104 0)
(0.0474836 0.0802731 0)
(0.0381349 0.081436 0)
(0.0300386 0.0825347 0)
(0.0229036 0.0838891 0)
(0.0164149 0.0858145 0)
(0.0101825 0.0885048 0)
(0.0035769 0.0864225 0)
(-0.00463845 0.00994729 0)
(-0.0112874 0.00861418 0)
(-0.0194465 0.00938795 0)
(-0.0285559 0.010114 0)
(-0.0383997 0.00446696 0)
(-0.0379296 -0.00577067 0)
(-0.0328294 -0.0123914 0)
(-0.0259212 -0.0207809 0)
(-0.0134272 -0.0313131 0)
(-0.00219922 -0.0385427 0)
(0.0211865 -0.0571953 0)
(0.0467584 -0.0583777 0)
(0.0711742 -0.0546655 0)
(0.0918885 -0.0626632 0)
(0.137276 -0.0234122 0)
(0.105394 0.0108841 0)
(0.130182 -0.0164143 0)
(0.146492 0.0252316 0)
(0.128756 0.0595918 0)
(0.104936 0.0731403 0)
(0.0875443 0.0791571 0)
(0.0727122 0.0834913 0)
(0.0595499 0.0860109 0)
(0.0482908 0.0872853 0)
(0.0388458 0.0880412 0)
(0.0309521 0.0887947 0)
(0.0243502 0.0898884 0)
(0.0188956 0.0916183 0)
(0.0146232 0.0941607 0)
(0.0110714 0.0935007 0)
(-0.00488997 0.0107307 0)
(-0.0111732 0.00916927 0)
(-0.0193609 0.0100366 0)
(-0.0286042 0.0110777 0)
(-0.0394539 0.00504201 0)
(-0.0387899 -0.00631047 0)
(-0.0336985 -0.013033 0)
(-0.0272791 -0.0218974 0)
(-0.0145889 -0.0338026 0)
(-0.00518577 -0.0396764 0)
(0.0210975 -0.0644492 0)
(0.0474693 -0.0633488 0)
(0.0791494 -0.0562052 0)
(0.0966912 -0.0840878 0)
(0.158497 -0.0237909 0)
(0.109754 0.0200885 0)
(0.155802 -0.0372671 0)
(0.170551 0.0273087 0)
(0.137692 0.0727297 0)
(0.107554 0.0827483 0)
(0.0901744 0.0871288 0)
(0.0745957 0.0916168 0)
(0.0605149 0.0938178 0)
(0.0487382 0.094488 0)
(0.0391775 0.0946024 0)
(0.0314824 0.0947525 0)
(0.0253568 0.095222 0)
(0.0206854 0.0961448 0)
(0.0175256 0.097494 0)
(0.0156194 0.0970635 0)
(-0.00518813 0.0115504 0)
(-0.0110409 0.00971683 0)
(-0.0192665 0.0106836 0)
(-0.0286103 0.0121011 0)
(-0.040638 0.00568434 0)
(-0.039688 -0.00692261 0)
(-0.0346086 -0.013624 0)
(-0.0287412 -0.0229048 0)
(-0.0157912 -0.0366494 0)
(-0.00896792 -0.0398152 0)
(0.0229881 -0.073489 0)
(0.0507981 -0.0677053 0)
(0.0873263 -0.0568371 0)
(0.129387 -0.133665 0)
(0.195087 -0.0245644 0)
(0.136732 0.0145096 0)
(0.212664 -0.0560003 0)
(0.198343 0.0396254 0)
(0.141901 0.0916193 0)
(0.109218 0.092151 0)
(0.0932397 0.0950694 0)
(0.0764796 0.100442 0)
(0.0610794 0.102157 0)
(0.0486472 0.101919 0)
(0.0389492 0.101129 0)
(0.0314132 0.10046 0)
(0.0255972 0.100093 0)
(0.0213005 0.0999969 0)
(0.0184603 0.100037 0)
(0.0168265 0.0990887 0)
(-0.00554123 0.0124137 0)
(-0.0108878 0.0102556 0)
(-0.0191647 0.0113274 0)
(-0.0285596 0.0131891 0)
(-0.0419714 0.00640546 0)
(-0.0406165 -0.00762868 0)
(-0.0355625 -0.0141513 0)
(-0.0302973 -0.0237584 0)
(-0.0170732 -0.0400962 0)
(-0.0139408 -0.0383909 0)
(0.0294679 -0.0849008 0)
(0.0555338 -0.0653151 0)
(0.110097 -0.0492225 0)
(0.116714 -0.186776 0)
(0.225653 -0.0115963 0)
(0.216265 -0.0112898 0)
(0.277784 -0.057619 0)
(0.217815 0.0664572 0)
(0.143583 0.113899 0)
(0.115079 0.100256 0)
(0.0986355 0.103736 0)
(0.0783895 0.110467 0)
(0.0609706 0.111196 0)
(0.0477708 0.109607 0)
(0.0379897 0.107613 0)
(0.030624 0.105983 0)
(0.0249804 0.104746 0)
(0.0207384 0.10368 0)
(0.0178132 0.102553 0)
(0.0162169 0.100718 0)
(-0.00595896 0.0133296 0)
(-0.0107105 0.0107842 0)
(-0.0190576 0.0119661 0)
(-0.0284336 0.0143462 0)
(-0.0434774 0.00721935 0)
(-0.0415657 -0.00845649 0)
(-0.0365692 -0.0145965 0)
(-0.03192 -0.0243934 0)
(-0.0185145 -0.0445496 0)
(-0.0207614 -0.034506 0)
(0.0357384 -0.0989103 0)
(0.0415728 -0.0611264 0)
(0.0963944 -0.0263682 0)
(0.139319 -0.176936 0)
(0.204581 -0.00282528 0)
(0.289383 -0.0548614 0)
(0.288004 -0.0417256 0)
(0.21907 0.10071 0)
(0.149464 0.136106 0)
(0.11984 0.105998 0)
(0.105314 0.11455 0)
(0.0798511 0.122505 0)
(0.059921 0.121096 0)
(0.0458953 0.117527 0)
(0.0361562 0.11396 0)
(0.0291089 0.111322 0)
(0.0236066 0.109355 0)
(0.0191733 0.107569 0)
(0.0156639 0.105447 0)
(0.0134713 0.101229 0)
(-0.00645258 0.0143092 0)
(-0.0105051 0.0113016 0)
(-0.0189483 0.012598 0)
(-0.0282093 0.0155764 0)
(-0.0451847 0.00814324 0)
(-0.0425241 -0.00944118 0)
(-0.0376479 -0.0149335 0)
(-0.0335503 -0.02472 0)
(-0.0202232 -0.0507205 0)
(-0.0304806 -0.0268027 0)
(0.0105778 -0.115294 0)
(0.0405553 -0.0913402 0)
(-0.00917881 -0.0409128 0)
(0.146765 -0.147449 0)
(0.105824 -0.0235361 0)
(0.299964 -0.0901471 0)
(0.235867 -0.014185 0)
(0.196033 0.122548 0)
(0.162926 0.152702 0)
(0.128076 0.113106 0)
(0.107819 0.126164 0)
(0.0793312 0.136775 0)
(0.0568868 0.131885 0)
(0.042203 0.125493 0)
(0.0332921 0.119889 0)
(0.0270016 0.116347 0)
(0.0217686 0.113974 0)
(0.017128 0.111962 0)
(0.0127819 0.109863 0)
(0.00800318 0.106471 0)
(-0.00703517 0.0153666 0)
(-0.0102668 0.0118068 0)
(-0.0188414 0.0132209 0)
(-0.0278579 0.0168829 0)
(-0.047128 0.00919833 0)
(-0.043478 -0.010628 0)
(-0.0388334 -0.0151271 0)
(-0.0350742 -0.0246224 0)
(-0.0236068 -0.0592606 0)
(-0.0447908 -0.0137559 0)
(-0.0791929 -0.136142 0)
(0.0243392 -0.123333 0)
(0.0689969 -0.102854 0)
(0.0600226 -0.134183 0)
(0.074789 -0.0767537 0)
(0.197586 -0.0841902 0)
(0.165923 0.00255782 0)
(0.172625 0.124021 0)
(0.188008 0.152228 0)
(0.166115 0.133569 0)
(0.110656 0.14146 0)
(0.0758689 0.152058 0)
(0.0523273 0.144223 0)
(0.0363251 0.132832 0)
(0.0294863 0.124688 0)
(0.0246523 0.12078 0)
(0.0198952 0.118518 0)
(0.0151397 0.116692 0)
(0.0106772 0.11479 0)
(0.00705374 0.111618 0)
(-0.00772172 0.0165194 0)
(-0.0099901 0.0122992 0)
(-0.0187433 0.0138334 0)
(-0.0273431 0.0182668 0)
(-0.0493492 0.0104109 0)
(-0.0444117 -0.0120764 0)
(-0.0401852 -0.015131 0)
(-0.0362858 -0.0239655 0)
(-0.0446503 -0.0641167 0)
(-0.0642771 0.00326482 0)
(-0.0668758 -0.159169 0)
(-0.024411 -0.110596 0)
(-0.0510532 -0.106406 0)
(-0.108141 -0.126398 0)
(-0.0333526 -0.122956 0)
(0.107935 -0.0713905 0)
(0.0860427 -0.0210632 0)
(0.200981 0.126908 0)
(0.229166 0.133272 0)
(0.204328 0.172288 0)
(0.113806 0.167936 0)
(0.0726714 0.167569 0)
(0.0506293 0.157769 0)
(0.0319469 0.140172 0)
(0.0259173 0.12771 0)
(0.0227904 0.124356 0)
(0.0185075 0.122997 0)
(0.0135228 0.121702 0)
(0.0085686 0.119835 0)
(0.00396577 0.116591 0)
(-0.00852932 0.0177904 0)
(-0.00966848 0.0127788 0)
(-0.0186624 0.0144347 0)
(-0.0266197 0.0197269 0)
(-0.0518985 0.0118135 0)
(-0.0453076 -0.0138672 0)
(-0.0417995 -0.0148846 0)
(-0.0368281 -0.0226114 0)
(-0.0967974 -0.0515488 0)
(-0.074893 0.0151314 0)
(-0.0116144 -0.132108 0)
(0.0223507 -0.0653821 0)
(0.0195752 -0.0847352 0)
(0.030182 -0.137375 0)
(0.185345 -0.173504 0)
(0.217334 -0.0603529 0)
(-0.117363 -0.0642206 0)
(0.212219 0.214798 0)
(0.137758 0.0985526 0)
(0.172135 0.207645 0)
(0.109852 0.197847 0)
(0.075378 0.182456 0)
(0.0561412 0.171097 0)
(0.0341989 0.15009 0)
(0.025494 0.129766 0)
(0.0225975 0.127307 0)
(0.0181981 0.127581 0)
(0.0126645 0.127327 0)
(0.00668657 0.126027 0)
(0.000460078 0.124085 0)
(-0.0094772 0.0192091 0)
(-0.00929444 0.0132461 0)
(-0.0186098 0.0150277 0)
(-0.0256308 0.0212577 0)
(-0.0548357 0.0134469 0)
(-0.0461456 -0.0161111 0)
(-0.0438271 -0.0143062 0)
(-0.0360924 -0.0204779 0)
(-0.133941 -0.0286065 0)
(-0.0543506 0.006791 0)
(1.54633 -0.312336 0)
(0.987637 0.0333323 0)
(0.403465 -0.0545601 0)
(0.228806 -0.136756 0)
(0.276605 -0.215564 0)
(0.282107 -0.0469214 0)
(-0.0027763 0.273493 0)
(-0.82323 -0.127694 0)
(0.018788 0.0594597 0)
(0.0869308 0.206943 0)
(0.0896699 0.218346 0)
(0.074055 0.190238 0)
(0.0676514 0.182925 0)
(0.0452068 0.163449 0)
(0.0307495 0.134111 0)
(0.0248515 0.1308 0)
(0.0194025 0.132701 0)
(0.0128076 0.13406 0)
(0.0055046 0.133775 0)
(-0.00198869 0.133382 0)
(-0.0105864 0.0208145 0)
(-0.0088597 0.0137021 0)
(-0.0185997 0.0156204 0)
(-0.0243047 0.0228469 0)
(-0.0582304 0.0153608 0)
(-0.046902 -0.0189672 0)
(-0.0464978 -0.0132765 0)
(-0.0331602 -0.0177161 0)
(-0.118992 -0.0104006 0)
(-0.153032 -0.0182173 0)
(0.713226 -0.315863 0)
(0.938309 0.0449214 0)
(0.617555 0.0357331 0)
(0.346461 -0.114881 0)
(0.29408 -0.219486 0)
(0.241431 -0.021625 0)
(0.256579 0.312982 0)
(0.109227 -0.120145 0)
(0.0435834 0.16556 0)
(0.0330207 0.177623 0)
(0.0657454 0.219507 0)
(0.0648252 0.191279 0)
(0.0746283 0.187158 0)
(0.0586769 0.180431 0)
(0.0372951 0.142119 0)
(0.0293765 0.135872 0)
(0.0222832 0.139042 0)
(0.0141764 0.142188 0)
(0.00553952 0.142984 0)
(-0.00270179 0.143426 0)
(-0.0118797 0.0226586 0)
(-0.00835518 0.0141478 0)
(-0.0186498 0.0162278 0)
(-0.0225507 0.0244718 0)
(-0.0621635 0.0176163 0)
(-0.0475432 -0.0226856 0)
(-0.0501509 -0.0116061 0)
(-0.0275377 -0.0148316 0)
(-0.0610324 -0.0132406 0)
(0.451416 -0.357531 0)
(0.408715 -0.259499 0)
(0.741372 0.030668 0)
(0.56412 0.111414 0)
(0.378571 -0.0937075 0)
(0.342621 -0.18967 0)
(0.124603 -0.0164188 0)
(0.249336 0.248902 0)
(0.0653251 0.21979 0)
(-1.76581 0.901312 0)
(0.00351304 0.142945 0)
(0.0678987 0.21292 0)
(0.0727137 0.192014 0)
(0.077928 0.181142 0)
(0.0720774 0.199004 0)
(0.0479352 0.152875 0)
(0.0368441 0.14259 0)
(0.0264539 0.147315 0)
(0.0164661 0.151759 0)
(0.006779 0.153336 0)
(-0.00203086 0.153789 0)
(-0.0133857 0.0248046 0)
(-0.00777232 0.0145881 0)
(-0.0187812 0.0168749 0)
(-0.0202531 0.0260953 0)
(-0.0667258 0.0202864 0)
(-0.0480093 -0.0276581 0)
(-0.0552887 -0.00895573 0)
(-0.0263907 -0.012605 0)
(-0.0129067 -0.0186802 0)
(1.09234 -0.198826 0)
(0.359744 -0.334584 0)
(0.548177 0.0565773 0)
(0.398874 0.144629 0)
(0.374051 -0.0897313 0)
(0.208953 -0.121448 0)
(0.119548 -0.0119026 0)
(0.234228 0.162782 0)
(0.369259 0.258822 0)
(0.350072 -0.332958 0)
(-0.00818828 0.162546 0)
(0.0271705 0.173211 0)
(0.0640268 0.192276 0)
(0.0703421 0.173491 0)
(0.0832032 0.209429 0)
(0.0675006 0.167619 0)
(0.0481759 0.154205 0)
(0.0313419 0.158812 0)
(0.0192296 0.162569 0)
(0.00889461 0.164558 0)
(-0.000690119 0.164695 0)
(-0.0151902 0.0271939 0)
(-0.00710693 0.0150335 0)
(-0.0190204 0.0175995 0)
(-0.0172631 0.0276601 0)
(-0.0720149 0.0234552 0)
(-0.0481685 -0.0344847 0)
(-0.0627552 -0.00460358 0)
(-0.0651889 -0.0135746 0)
(0.0405544 -0.06428 0)
(0.245701 -0.267102 0)
(0.257098 -0.388938 0)
(0.315852 0.0883318 0)
(0.26437 0.128813 0)
(0.389621 -0.0766256 0)
(0.21035 -0.0687789 0)
(0.0849471 0.00314235 0)
(0.159346 0.0978486 0)
(0.364955 0.220423 0)
(0.18462 -0.08453 0)
(0.199546 1.1776 0)
(-0.0143017 0.141427 0)
(0.0218285 0.167039 0)
(0.0565708 0.166204 0)
(0.0756514 0.20244 0)
(0.081358 0.18098 0)
(0.0560048 0.17341 0)
(0.0334579 0.173715 0)
(0.0208853 0.173931 0)
(0.0104876 0.176523 0)
(0.000356417 0.176326 0)
(-0.016308 0.0284291 0)
(-0.00638246 0.0154937 0)
(-0.0194049 0.0184478 0)
(-0.0133897 0.0290842 0)
(-0.078129 0.0272119 0)
(-0.0478999 -0.0440807 0)
(-0.0739276 0.00328009 0)
(-0.153111 -0.0220011 0)
(-0.108988 -0.340426 0)
(0.118085 -0.21085 0)
(0.172248 -0.406653 0)
(-0.00240561 0.12304 0)
(0.226169 0.0740985 0)
(0.453549 -0.0580647 0)
(0.16809 0.0261876 0)
(0.0509749 0.0170503 0)
(0.0808501 0.0575722 0)
(0.224921 0.176042 0)
(0.0920479 0.157222 0)
(-1.00939 0.628656 0)
(-0.143007 0.0487534 0)
(-0.0217937 0.133847 0)
(0.0408731 0.148862 0)
(0.0716395 0.188095 0)
(0.0714231 0.192534 0)
(0.0449493 0.198764 0)
(0.0282704 0.187685 0)
(0.0190221 0.183827 0)
(0.0103029 0.188291 0)
(0.000668422 0.188421 0)
(9.89734e-05 -0.000121309 0)
(-0.000138524 -0.000111523 0)
(-0.000443478 -9.83474e-05 0)
(-0.000842338 -7.96343e-05 0)
(-0.00138277 -5.17065e-05 0)
(-0.00214598 -1.18721e-05 0)
(-0.00324683 3.95368e-05 0)
(-0.00482532 0.000103587 0)
(-0.00703973 0.000177392 0)
(-0.0100463 0.000257768 0)
(-0.0139624 0.000337247 0)
(-0.0187896 0.000403042 0)
(-0.0243029 0.000436916 0)
(-0.0299621 0.000421276 0)
(-0.0349376 0.000348948 0)
(-0.0382875 0.000224613 0)
(-0.0391527 6.37014e-05 0)
(-0.0369668 -9.07802e-05 0)
(-0.0317562 -0.000203301 0)
(-0.0242179 -0.000253696 0)
(-0.0156621 -0.000238264 0)
(-0.007642 -0.000184377 0)
(-0.000970161 -0.000141335 0)
(0.00460278 -0.000127116 0)
(0.00959265 -0.000120944 0)
(0.0134204 -8.07677e-05 0)
(0.0144281 -6.55246e-06 0)
(0.0123996 3.97242e-05 0)
(0.0088486 5.77166e-05 0)
(0.00448773 7.06484e-05 0)
(-0.00160868 0.00276058 0)
(-0.00578686 0.00280227 0)
(-0.0104051 0.00284914 0)
(-0.0154859 0.00291196 0)
(-0.0210534 0.00301265 0)
(-0.027138 0.00316623 0)
(-0.0337826 0.00336942 0)
(-0.0410084 0.00359967 0)
(-0.048792 0.00381735 0)
(-0.0569989 0.00396061 0)
(-0.0653148 0.0039436 0)
(-0.0731826 0.00366731 0)
(-0.0798041 0.00305752 0)
(-0.0842625 0.00212353 0)
(-0.0857404 0.000978442 0)
(-0.0836584 -0.000234744 0)
(-0.0775744 -0.00139379 0)
(-0.067314 -0.00232677 0)
(-0.0533148 -0.00288247 0)
(-0.0367287 -0.00298179 0)
(-0.0194114 -0.00263128 0)
(-0.00341847 -0.00204346 0)
(0.00995373 -0.00148959 0)
(0.0203391 -0.0010819 0)
(0.0275229 -0.000688883 0)
(0.0302911 -0.000150578 0)
(0.0275139 0.000347598 0)
(0.02108 0.00052046 0)
(0.0135777 0.000532786 0)
(0.0055011 0.00052961 0)
(-0.00219724 0.00901563 0)
(-0.00750374 0.00901008 0)
(-0.0133018 0.00896873 0)
(-0.0195698 0.00888599 0)
(-0.0262553 0.00878318 0)
(-0.0332894 0.00869048 0)
(-0.0406161 0.00861758 0)
(-0.0481732 0.00853868 0)
(-0.05588 0.00839056 0)
(-0.0635779 0.0080705 0)
(-0.0709878 0.00744746 0)
(-0.0776692 0.00639355 0)
(-0.0830029 0.00484178 0)
(-0.0862532 0.00286495 0)
(-0.0867339 0.000680557 0)
(-0.0839095 -0.00150937 0)
(-0.0772617 -0.0035601 0)
(-0.0665236 -0.00518615 0)
(-0.0521033 -0.00612121 0)
(-0.0351171 -0.00622467 0)
(-0.0174036 -0.0054977 0)
(-0.00103421 -0.00430829 0)
(0.012668 -0.00312819 0)
(0.0232314 -0.00217514 0)
(0.0303221 -0.00125239 0)
(0.0326723 -0.000115984 0)
(0.0292257 0.000847304 0)
(0.022145 0.00113318 0)
(0.014165 0.00111121 0)
(0.00572293 0.00107952 0)
(-0.00208369 0.0154642 0)
(-0.0069866 0.0153823 0)
(-0.0123463 0.0152171 0)
(-0.0181642 0.0149464 0)
(-0.0244278 0.0145891 0)
(-0.0311155 0.014196 0)
(-0.0382147 0.0137997 0)
(-0.0456996 0.0133789 0)
(-0.0535124 0.0128511 0)
(-0.0615038 0.0120761 0)
(-0.069381 0.0108787 0)
(-0.0766452 0.0090875 0)
(-0.0825548 0.0066195 0)
(-0.086231 0.00360249 0)
(-0.086935 0.000377392 0)
(-0.0841953 -0.00279232 0)
(-0.0775095 -0.0057539 0)
(-0.0666154 -0.00808268 0)
(-0.0519946 -0.0093985 0)
(-0.0347988 -0.00950466 0)
(-0.0169199 -0.00838978 0)
(-0.000486824 -0.00658685 0)
(0.0132177 -0.00477217 0)
(0.023763 -0.00326504 0)
(0.0308352 -0.00180151 0)
(0.0331153 -5.33141e-05 0)
(0.0294917 0.00137914 0)
(0.0222631 0.00176566 0)
(0.0142205 0.00170056 0)
(0.00574914 0.00163562 0)
(-0.00199215 0.0213306 0)
(-0.00651101 0.0211922 0)
(-0.0114787 0.02095 0)
(-0.0169364 0.0205833 0)
(-0.0229332 0.0201082 0)
(-0.0295089 0.0195733 0)
(-0.0366848 0.0190066 0)
(-0.0444322 0.0183708 0)
(-0.0526613 0.0175527 0)
(-0.0611715 0.0163717 0)
(-0.0696043 0.0146019 0)
(-0.0773752 0.0120257 0)
(-0.0836413 0.00855011 0)
(-0.0874358 0.0043917 0)
(-0.0880559 7.11475e-05 0)
(-0.0851819 -0.00409648 0)
(-0.078295 -0.00799841 0)
(-0.067096 -0.011039 0)
(-0.0521613 -0.0127293 0)
(-0.0346759 -0.012827 0)
(-0.0166021 -0.0112993 0)
(-0.000141685 -0.00886468 0)
(0.0135047 -0.00640982 0)
(0.0239963 -0.00435337 0)
(0.031076 -0.0023515 0)
(0.0333514 1.71146e-05 0)
(0.0296027 0.00192485 0)
(0.0222771 0.00240276 0)
(0.0142217 0.00229033 0)
(0.00575984 0.00218924 0)
(-0.00205014 0.0268858 0)
(-0.00645188 0.0267082 0)
(-0.0113022 0.0264294 0)
(-0.0166627 0.0260404 0)
(-0.0226136 0.0255524 0)
(-0.029225 0.0249902 0)
(-0.0365323 0.0243498 0)
(-0.0445014 0.0235633 0)
(-0.0530263 0.0224853 0)
(-0.0618866 0.0208986 0)
(-0.0706981 0.0185311 0)
(-0.0788276 0.0151152 0)
(-0.0853338 0.0105454 0)
(-0.0891245 0.00515286 0)
(-0.0895322 -0.000291297 0)
(-0.0864605 -0.00544797 0)
(-0.0793091 -0.0103229 0)
(-0.0677074 -0.0140794 0)
(-0.052372 -0.0161313 0)
(-0.034517 -0.0162039 0)
(-0.0161948 -0.0142277 0)
(0.00028976 -0.011137 0)
(0.0138515 -0.0080349 0)
(0.0242639 -0.00543819 0)
(0.0313486 -0.00290444 0)
(0.0336224 9.39146e-05 0)
(0.0297198 0.00248507 0)
(0.0222802 0.00304312 0)
(0.0142164 0.00287915 0)
(0.00577214 0.00273848 0)
(-0.00222148 0.032401 0)
(-0.00664306 0.0321772 0)
(-0.0115013 0.0318669 0)
(-0.0168674 0.0314773 0)
(-0.022839 0.0310148 0)
(-0.0295054 0.0304716 0)
(-0.0369188 0.0298008 0)
(-0.0450563 0.0288978 0)
(-0.0538219 0.0275848 0)
(-0.063001 0.0256071 0)
(-0.0721997 0.0226399 0)
(-0.0807309 0.0183468 0)
(-0.0875118 0.0125912 0)
(-0.0912477 0.00584824 0)
(-0.0913223 -0.000737329 0)
(-0.0880171 -0.0068526 0)
(-0.0805502 -0.0127533 0)
(-0.0684404 -0.017226 0)
(-0.0526191 -0.0196222 0)
(-0.0343117 -0.0196499 0)
(-0.0156826 -0.0171784 0)
(0.000822496 -0.0134016 0)
(0.0142783 -0.00964345 0)
(0.0245919 -0.0065183 0)
(0.0316832 -0.00346104 0)
(0.0339556 0.000178701 0)
(0.029859 0.00306348 0)
(0.0222804 0.00368716 0)
(0.0142086 0.00346668 0)
(0.00578778 0.003282 0)
(-0.0024974 0.0379868 0)
(-0.00697143 0.037683 0)
(-0.0118472 0.037318 0)
(-0.0172145 0.0369261 0)
(-0.0232026 0.0365081 0)
(-0.0299266 0.0360145 0)
(-0.037455 0.0353492 0)
(-0.0457802 0.0343667 0)
(-0.0548218 0.0328553 0)
(-0.0643781 0.0305173 0)
(-0.0740492 0.0269606 0)
(-0.0830871 0.0217543 0)
(-0.090219 0.0146945 0)
(-0.0938388 0.00643331 0)
(-0.0934042 -0.0012967 0)
(-0.089855 -0.00830598 0)
(-0.0820281 -0.0153228 0)
(-0.0692917 -0.0205018 0)
(-0.0529005 -0.0232202 0)
(-0.0340547 -0.0231798 0)
(-0.0150549 -0.0201538 0)
(0.00145914 -0.0156561 0)
(0.0147851 -0.0112312 0)
(0.0249795 -0.00759287 0)
(0.0320812 -0.0040223 0)
(0.0343549 0.000273233 0)
(0.0300204 0.00366432 0)
(0.0222775 0.00433527 0)
(0.0141984 0.00405265 0)
(0.00580743 0.00381837 0)
(-0.00293174 0.0436726 0)
(-0.0074421 0.043211 0)
(-0.0122687 0.042741 0)
(-0.0175665 0.0423563 0)
(-0.0235418 0.0420278 0)
(-0.030337 0.0416331 0)
(-0.0380203 0.041018 0)
(-0.0465867 0.0399995 0)
(-0.0559705 0.0383331 0)
(-0.0659885 0.0356736 0)
(-0.0762444 0.0315471 0)
(-0.0859276 0.0253896 0)
(-0.0935276 0.0168707 0)
(-0.0969514 0.00684012 0)
(-0.0957312 -0.00200481 0)
(-0.0919773 -0.00978814 0)
(-0.0837553 -0.0180774 0)
(-0.0702563 -0.0239288 0)
(-0.0532147 -0.0269455 0)
(-0.033741 -0.0268102 0)
(-0.0142986 -0.0231549 0)
(0.00220209 -0.0178983 0)
(0.0153714 -0.0127933 0)
(0.0254247 -0.00866119 0)
(0.0325424 -0.00458958 0)
(0.0348233 0.000379246 0)
(0.030203 0.00429215 0)
(0.0222704 0.00498773 0)
(0.0141856 0.00463687 0)
(0.00583185 0.00434601 0)
(-0.00362394 0.0494833 0)
(-0.0081485 0.0486635 0)