/*--------------------------------*- C++ -*----------------------------------*\
| =========                 |                                                 |
| \\      /  F ield         | OpenFOAM: The Open Source CFD Toolbox           |
|  \\    /   O peration     | Version:  2.4.0                                 |
|   \\  /    A nd           | Web:      www.OpenFOAM.org                      |
|    \\/     M anipulation  |                                                 |
\*---------------------------------------------------------------------------*/
FoamFile
{
    version     2.0;
    format      ascii;
    class       surfaceScalarField;
    location    "0.346";
    object      phi;
}
// * * * * * * * * * * * * * * * * * * * * * * * * * * * * * * * * * * * * * //

dimensions      [0 3 -1 0 0 0 0];

internalField   nonuniform List<scalar> 
19800
(
-1.82891e-13
1.82891e-13
-3.67024e-13
1.7318e-13
-4.41558e-13
7.44718e-14
-3.70388e-13
-6.67755e-14
-1.52448e-13
-2.15257e-13
1.97517e-13
-3.49593e-13
6.57339e-13
-4.60264e-13
1.20353e-12
-5.46431e-13
1.81448e-12
-6.10818e-13
2.47187e-12
-6.5705e-13
3.16104e-12
-6.88679e-13
3.87068e-12
-7.08992e-13
4.59238e-12
-7.20945e-13
5.32019e-12
-7.2706e-13
6.05007e-12
-7.29314e-13
6.77937e-12
-7.29037e-13
7.50613e-12
-7.26821e-13
8.22827e-12
-7.22454e-13
8.94272e-12
-7.14883e-13
9.64455e-12
-7.02223e-13
1.03261e-11
-6.81842e-13
1.09766e-11
-6.50558e-13
1.15816e-11
-6.04983e-13
1.21235e-11
-5.42016e-13
1.25827e-11
-4.59466e-13
1.29388e-11
-3.56789e-13
1.31739e-11
-2.35867e-13
1.32747e-11
-1.01667e-13
1.3237e-11
3.70751e-14
1.30667e-11
1.70149e-13
1.27835e-11
2.8352e-13
1.24183e-11
3.6597e-13
1.201e-11
4.0927e-13
1.16002e-11
4.10605e-13
1.12291e-11
3.71688e-13
1.09306e-11
2.98769e-13
1.07285e-11
2.02176e-13
1.06337e-11
9.48864e-14
1.06445e-11
-1.03496e-14
1.07469e-11
-1.01783e-13
1.09191e-11
-1.71387e-13
1.11339e-11
-2.14086e-13
1.13626e-11
-2.28151e-13
1.15774e-11
-2.14659e-13
1.17542e-11
-1.76865e-13
1.18737e-11
-1.19562e-13
1.19222e-11
-4.84729e-14
1.18924e-11
2.98893e-14
1.17821e-11
1.10392e-13
1.86385e-13
1.15954e-11
-1.74584e-13
3.70101e-13
-2.57975e-13
2.59648e-13
-8.17496e-14
-1.04986e-13
4.3317e-13
-5.82871e-13
1.29887e-12
-1.07999e-12
2.48597e-12
-1.53542e-12
3.94658e-12
-1.92023e-12
5.62817e-12
-2.2278e-12
7.48086e-12
-2.46322e-12
9.46082e-12
-2.63634e-12
1.15314e-11
-2.7582e-12
1.3663e-11
-2.83948e-12
1.5833e-11
-2.88987e-12
1.80243e-11
-2.91765e-12
2.02245e-11
-2.92935e-12
2.24247e-11
-2.92943e-12
2.46171e-11
-2.91995e-12
2.67943e-11
-2.90036e-12
2.89461e-11
-2.86738e-12
3.10584e-11
-2.81497e-12
3.31111e-11
-2.73469e-12
3.50768e-11
-2.61627e-12
3.69204e-11
-2.44879e-12
3.86002e-11
-2.22236e-12
4.007e-11
-1.93019e-12
4.1283e-11
-1.5711e-12
4.2198e-11
-1.15209e-12
4.2786e-11
-6.905e-13
4.30378e-11
-2.14941e-13
4.29719e-11
2.36637e-13
4.26356e-11
6.21128e-13
4.21036e-11
8.99511e-13
4.14694e-11
1.04486e-12
4.08323e-11
1.04867e-12
4.02871e-11
9.17455e-13
3.99135e-11
6.727e-13
3.97663e-11
3.4979e-13
3.98698e-11
-7.83133e-15
4.02165e-11
-3.55875e-13
4.0772e-11
-6.55983e-13
4.14814e-11
-8.79611e-13
4.22775e-11
-1.00948e-12
4.3089e-11
-1.03943e-12
4.38473e-11
-9.73062e-13
4.44919e-11
-8.2168e-13
4.49745e-11
-6.02113e-13
4.52606e-11
-3.34519e-13
4.53309e-11
-4.04212e-14
4.51815e-11
2.59263e-13
5.44987e-13
4.48219e-11
-7.6953e-14
4.46992e-13
1.05318e-13
8.42528e-14
6.91498e-13
-6.89393e-13
1.76052e-12
-1.65185e-12
3.323e-12
-2.64239e-12
5.34084e-12
-3.55292e-12
7.75084e-12
-4.32995e-12
1.0482e-11
-4.9589e-12
1.34657e-11
-5.44676e-12
1.66398e-11
-5.81024e-12
1.99514e-11
-6.06939e-12
2.33568e-11
-6.24444e-12
2.68214e-11
-6.35419e-12
3.03187e-11
-6.415e-12
3.3829e-11
-6.44e-12
3.73373e-11
-6.43835e-12
4.08312e-11
-6.41461e-12
4.42985e-11
-6.36821e-12
4.77239e-11
-6.29318e-12
5.1087e-11
-6.1781e-12
5.4359e-11
-6.00662e-12
5.75016e-11
-5.75869e-12
6.04656e-11
-5.41279e-12
6.31922e-11
-4.94922e-12
6.56156e-11
-4.35429e-12
6.76688e-11
-3.62513e-12
6.92909e-11
-2.77499e-12
7.04377e-11
-1.83775e-12
7.10931e-11
-8.70243e-13
7.12802e-11
5.02174e-14
7.10661e-11
8.36294e-13
7.05599e-11
1.40686e-12
6.98993e-11
1.70654e-12
6.92291e-11
1.71955e-12
6.8688e-11
1.45906e-12
6.83926e-11
9.68457e-13
6.84224e-11
3.20638e-13
6.88096e-11
-3.94188e-13
6.95398e-11
-1.08505e-12
7.05583e-11
-1.67361e-12
7.17813e-11
-2.10203e-12
7.31079e-11
-2.33589e-12
7.44319e-11
-2.36358e-12
7.5652e-11
-2.19334e-12
7.66793e-11
-1.8491e-12
7.74433e-11
-1.36588e-12
7.78944e-11
-7.85303e-13
7.80056e-11
-1.5153e-13
7.77725e-11
4.92151e-13
1.10604e-12
7.72109e-11
6.56936e-14
3.78169e-13
5.89666e-13
-4.35994e-13
1.67061e-12
-1.7676e-12
3.36033e-12
-3.34043e-12
5.65371e-12
-4.9355e-12
8.50006e-12
-6.3993e-12
1.18234e-11
-7.65349e-12
1.55394e-11
-8.6751e-12
1.95653e-11
-9.47289e-12
2.38257e-11
-1.00708e-11
2.82549e-11
-1.04988e-11
3.2798e-11
-1.07879e-11
3.74111e-11
-1.09677e-11
4.206e-11
-1.10645e-11
4.67192e-11
-1.10999e-11
5.13696e-11
-1.10895e-11
5.5996e-11
-1.10416e-11
6.0584e-11
-1.09566e-11
6.51168e-11
-1.0826e-11
6.95713e-11
-1.06325e-11
7.39156e-11
-1.03506e-11
7.81054e-11
-9.94817e-12
8.20828e-11
-9.39007e-12
8.57766e-11
-8.64318e-12
8.91049e-11
-7.68302e-12
9.19809e-11
-6.50157e-12
9.43216e-11
-5.116e-12
9.6061e-11
-3.57719e-12
9.71665e-11
-1.97539e-12
9.7656e-11
-4.38671e-13
9.76087e-11
8.84314e-13
9.71648e-11
1.85167e-12
9.65058e-11
2.36625e-12
9.58205e-11
2.40551e-12
9.52906e-11
1.98949e-12
9.50715e-11
1.18819e-12
9.52669e-11
1.25941e-13
9.59152e-11
-1.04167e-12
9.69906e-11
-2.15981e-12
9.84151e-11
-3.09761e-12
1.00074e-10
-3.76059e-12
1.01832e-10
-4.09445e-12
1.03551e-10
-4.08303e-12
1.05101e-10
-3.74286e-12
1.06368e-10
-3.11583e-12
1.07264e-10
-2.26156e-12
1.07729e-10
-1.2499e-12
1.07732e-10
-1.54462e-13
1.07271e-10
9.52926e-13
2.00648e-12
1.06371e-10
2.19591e-13
1.57946e-13
1.10981e-12
-1.3249e-12
2.71334e-12
-3.36922e-12
5.04389e-12
-5.66975e-12
8.0714e-12
-7.9626e-12
1.17277e-11
-1.00557e-11
1.5923e-11
-1.18491e-11
2.05604e-11
-1.33129e-11
2.55454e-11
-1.44583e-11
3.07912e-11
-1.5317e-11
3.62214e-11
-1.59295e-11
4.17718e-11
-1.6339e-11
4.73907e-11
-1.65873e-11
5.30379e-11
-1.67125e-11
5.8684e-11
-1.67468e-11
6.43081e-11
-1.67142e-11
6.98948e-11
-1.66287e-11
7.54311e-11
-1.6493e-11
8.09024e-11
-1.62972e-11
8.62887e-11
-1.60185e-11
9.15597e-11
-1.56214e-11
9.66713e-11
-1.50596e-11
1.01562e-10
-1.42807e-11
1.06152e-10
-1.32334e-11
1.10345e-10
-1.18762e-11
1.14033e-10
-1.01891e-11
1.17103e-10
-8.18618e-12
1.19457e-10
-5.93061e-12
1.21029e-10
-3.54751e-12
1.21819e-10
-1.22818e-12
1.21909e-10
7.95174e-13
1.21471e-10
2.29049e-12
1.2074e-10
3.09705e-12
1.19954e-10
3.1926e-12
1.19343e-10
2.60062e-12
1.19114e-10
1.4188e-12
1.19398e-10
-1.58201e-13
1.2024e-10
-1.88276e-12
1.21595e-10
-3.51414e-12
1.23353e-10
-4.8553e-12
1.25361e-10
-5.76919e-12
1.27448e-10
-6.1814e-12
1.2944e-10
-6.07484e-12
1.31177e-10
-5.4801e-12
1.32526e-10
-4.46405e-12
1.33383e-10
-3.11823e-12
1.33682e-10
-1.54802e-12
1.33391e-10
1.36796e-13
1.32514e-10
1.82975e-12
3.43355e-12
1.31087e-10
3.6611e-13
-2.0669e-13
1.61386e-12
-2.57195e-12
3.73026e-12
-5.48467e-12
6.68815e-12
-8.62688e-12
1.04282e-11
-1.17023e-11
1.48611e-11
-1.44887e-11
1.9881e-11
-1.68693e-11
2.53776e-11
-1.88098e-11
3.12444e-11
-2.03254e-11
3.73834e-11
-2.14564e-11
4.37082e-11
-2.22549e-11
5.01459e-11
-2.27773e-11
5.66376e-11
-2.30797e-11
6.31385e-11
-2.32141e-11
6.96167e-11
-2.32257e-11
7.60517e-11
-2.31496e-11
8.24309e-11
-2.30081e-11
8.87464e-11
-2.28085e-11
9.49907e-11
-2.25415e-11
1.01152e-10
-2.218e-11
1.07209e-10
-2.16783e-11
1.13123e-10
-2.09739e-11
1.18835e-10
-1.99932e-11
1.24262e-10
-1.86602e-11
1.29294e-10
-1.69084e-11
1.338e-10
-1.46944e-11
1.3763e-10
-1.20162e-11
1.40637e-10
-8.93686e-12
1.42701e-10
-5.61103e-12
1.4378e-10
-2.30663e-12
1.43944e-10
6.30527e-13
1.43407e-10
2.82856e-12
1.42481e-10
4.02319e-12
1.41454e-10
4.22034e-12
1.40621e-10
3.43407e-12
1.4026e-10
1.78102e-12
1.40546e-10
-4.4371e-13
1.41521e-10
-2.85734e-12
1.4311e-10
-5.10264e-12
1.45156e-10
-6.90175e-12
1.47459e-10
-8.07189e-12
1.498e-10
-8.52226e-12
1.51968e-10
-8.24208e-12
1.53773e-10
-7.28481e-12
1.55061e-10
-5.75138e-12
1.55717e-10
-3.77412e-12
1.55671e-10
-1.50198e-12
1.54896e-10
9.11834e-13
1.53406e-10
3.31996e-12
5.58867e-12
1.51251e-10
4.98387e-13
-7.03401e-13
2.08122e-12
-4.15404e-12
4.6847e-12
-8.08775e-12
8.24216e-12
-1.2184e-11
1.26639e-11
-1.61238e-11
1.78374e-11
-1.9662e-11
2.36387e-11
-2.26703e-11
2.99421e-11
-2.5113e-11
3.66278e-11
-2.70109e-11
4.35858e-11
-2.84143e-11
5.07188e-11
-2.9388e-11
5.79444e-11
-3.00032e-11
6.51966e-11
-3.03322e-11
7.2426e-11
-3.04438e-11
7.95996e-11
-3.03994e-11
8.66988e-11
-3.02488e-11
9.37165e-11
-3.00259e-11
1.00653e-10
-2.97458e-11
1.07514e-10
-2.94027e-11
1.14301e-10
-2.89678e-11
1.21008e-10
-2.83865e-11
1.27612e-10
-2.75783e-11
1.34062e-10
-2.64437e-11
1.40277e-10
-2.48754e-11
1.46141e-10
-2.27714e-11
1.51497e-10
-2.005e-11
1.56155e-10
-1.66727e-11
1.59896e-10
-1.26779e-11
1.62516e-10
-8.23098e-12
1.63898e-10
-3.68888e-12
1.64077e-10
4.51687e-13
1.63313e-10
3.59268e-12
1.62053e-10
5.28351e-12
1.60626e-10
5.64788e-12
1.5941e-10
4.65139e-12
1.58797e-10
2.39427e-12
1.59027e-10
-6.7281e-13
1.60126e-10
-3.95641e-12
1.61964e-10
-6.94023e-12
1.64316e-10
-9.25302e-12
1.66915e-10
-1.06698e-11
1.69487e-10
-1.10935e-11
1.71778e-10
-1.05322e-11
1.73567e-10
-9.0743e-12
1.74683e-10
-6.8665e-12
1.75001e-10
-4.09223e-12
1.74452e-10
-9.53148e-13
1.73017e-10
2.34646e-12
1.70725e-10
5.61208e-12
8.66834e-12
1.67646e-10
6.17742e-13
-1.32023e-12
2.51212e-12
-6.04791e-12
5.57572e-12
-1.11512e-11
9.70522e-12
-1.63134e-11
1.47811e-11
-2.11994e-11
2.06668e-11
-2.55472e-11
2.72184e-11
-2.92211e-11
3.42933e-11
-3.21871e-11
4.17564e-11
-3.44732e-11
4.94837e-11
-3.61409e-11
5.7365e-11
-3.72689e-11
6.5307e-11
-3.79449e-11
7.32349e-11
-3.82599e-11
8.1094e-11
-3.83028e-11
8.88502e-11
-3.81555e-11
9.64879e-11
-3.78867e-11
1.04008e-10
-3.7546e-11
1.11422e-10
-3.71607e-11
1.18751e-10
-3.67329e-11
1.26018e-10
-3.62369e-11
1.33242e-10
-3.56119e-11
1.40421e-10
-3.47582e-11
1.47523e-10
-3.3546e-11
1.54478e-10
-3.18301e-11
1.61171e-10
-2.94628e-11
1.67429e-10
-2.63074e-11
1.73018e-10
-2.22604e-11
1.77635e-10
-1.72943e-11
1.80942e-10
-1.1539e-11
1.82702e-10
-5.44831e-12
1.82854e-10
2.98729e-13
1.81723e-10
4.72421e-12
1.80005e-10
7.00142e-12
1.78019e-10
7.63404e-12
1.76246e-10
6.42543e-12
1.75286e-10
3.35519e-12
1.75469e-10
-8.5506e-13
1.76775e-10
-5.26131e-12
1.78969e-10
-9.1336e-12
1.81724e-10
-1.20074e-11
1.84689e-10
-1.36336e-11
1.87527e-10
-1.39295e-11
1.89935e-10
-1.29403e-11
1.91667e-10
-1.08055e-11
1.92531e-10
-7.73082e-12
1.924e-10
-3.9626e-12
1.91212e-10
2.34913e-13
1.8896e-10
4.59839e-12
1.85692e-10
8.87995e-12
1.28577e-11
1.81503e-10
7.28304e-13
-2.04835e-12
2.91647e-12
-8.23603e-12
6.41982e-12
-1.46546e-11
1.11016e-11
-2.0995e-11
1.68138e-11
-2.6911e-11
2.33959e-11
-3.21284e-11
3.06833e-11
-3.65072e-11
3.85148e-11
-4.00173e-11
4.6738e-11
-4.26952e-11
5.52122e-11
-4.4614e-11
6.38117e-11
-4.58676e-11
7.2429e-11
-4.65616e-11
8.0978e-11
-4.68084e-11
8.93966e-11
-4.67212e-11
9.76483e-11
-4.64072e-11
1.05721e-10
-4.59594e-11
1.13623e-10
-4.5449e-11
1.2138e-10
-4.49196e-11
1.29033e-10
-4.43872e-11
1.36631e-10
-4.38373e-11
1.44227e-10
-4.32086e-11
1.51849e-10
-4.23817e-11
1.59494e-10
-4.11912e-11
1.67115e-10
-3.94499e-11
1.74611e-10
-3.69577e-11
1.81813e-10
-3.35088e-11
1.88457e-10
-2.89036e-11
1.9415e-10
-2.29862e-11
1.98363e-10
-1.57521e-11
2.00667e-10
-7.75323e-12
2.00795e-10
1.70316e-13
1.99123e-10
6.39587e-12
1.96883e-10
9.24179e-12
1.94192e-10
1.03265e-11
1.91663e-10
8.95511e-12
1.90297e-10
4.72145e-12
1.90557e-10
-1.1142e-12
1.92285e-10
-6.98818e-12
1.9506e-10
-1.19078e-11
1.98409e-10
-1.5355e-11
2.01879e-10
-1.71019e-11
2.05065e-10
-1.71145e-11
2.07625e-10
-1.54996e-11
2.09284e-10
-1.24651e-11
2.09842e-10
-8.28986e-12
2.09174e-10
-3.29525e-12
2.07227e-10
2.18174e-12
2.04015e-10
7.81079e-12
1.9961e-10
1.32848e-11
1.83308e-11
1.94137e-10
8.3434e-13
-2.88289e-12
3.30629e-12
-1.07083e-11
7.23801e-12
-1.85864e-11
1.24623e-11
-2.62189e-11
1.88047e-11
-3.32527e-11
2.60816e-11
-3.94041e-11
3.41073e-11
-4.45316e-11
4.27013e-11
-4.86099e-11
5.16916e-11
-5.16843e-11
6.09183e-11
-5.38397e-11
7.02363e-11
-5.51848e-11
7.95198e-11
-5.58445e-11
8.86667e-11
-5.5955e-11
9.76038e-11
-5.56583e-11
1.06289e-10
-5.50932e-11
1.14713e-10
-5.4384e-11
1.22892e-10
-5.36293e-11
1.30865e-10
-5.28944e-11
1.38692e-10
-5.22156e-11
1.46456e-10
-5.16028e-11
1.54251e-10
-5.10047e-11
1.62149e-10
-5.02801e-11
1.70179e-10
-4.92215e-11
1.78329e-10
-4.75991e-11
1.86535e-10
-4.51621e-11
1.94661e-10
-4.1634e-11
2.02455e-10
-3.66966e-11
2.09455e-10
-2.99863e-11
2.14882e-10
-2.11793e-11
2.18047e-10
-1.09188e-11
2.18235e-10
-1.75783e-14
2.15781e-10
8.85015e-12
2.13106e-10
1.19176e-11
2.09566e-10
1.38664e-11
2.06006e-10
1.2516e-11
2.04246e-10
6.48259e-12
2.04903e-10
-1.77011e-12
2.07463e-10
-9.5471e-12
2.11183e-10
-1.56262e-11
2.15399e-10
-1.95705e-11
2.1956e-10
-2.12612e-11
2.23206e-10
-2.07598e-11
2.25966e-10
-1.82596e-11
2.27552e-10
-1.40514e-11
2.27759e-10
-8.49828e-12
2.26471e-10
-2.00817e-12
2.23654e-10
4.99929e-12
2.19346e-10
1.21192e-11
2.13651e-10
1.89801e-11
2.52542e-11
2.06728e-10
9.39235e-13
-3.82245e-12
3.69182e-12
-1.34613e-11
8.04863e-12
-2.29431e-11
1.38148e-11
-3.19846e-11
2.07917e-11
-4.02288e-11
2.87741e-11
-4.73855e-11
3.75565e-11
-5.3313e-11
4.69382e-11
-5.79906e-11
5.67266e-11
-6.14719e-11
6.67393e-11
-6.38519e-11
7.68075e-11
-6.52528e-11
8.67812e-11
-6.58182e-11
9.65361e-11
-6.57103e-11
1.05982e-10
-6.51043e-11
1.15066e-10
-6.41784e-11
1.23778e-10
-6.30975e-11
1.32142e-10
-6.19951e-11
1.40208e-10
-6.09611e-11
1.48048e-10
-6.00578e-11
1.55786e-10
-5.93419e-11
1.63571e-10
-5.879e-11
1.71524e-10
-5.82328e-11
1.79708e-10
-5.74053e-11
1.88151e-10
-5.6041e-11
1.96842e-10
-5.38515e-11
2.05719e-10
-5.05106e-11
2.14623e-10
-4.55995e-11
2.23109e-10
-3.84719e-11
2.30116e-10
-2.8187e-11
2.3469e-10
-1.5493e-11
2.35229e-10
-5.56263e-13
2.31635e-10
1.24449e-11
2.28925e-10
1.46283e-11
2.24391e-10
1.84013e-11
2.19346e-10
1.75613e-11
2.17351e-10
8.47885e-12
2.19052e-10
-3.46991e-12
2.23118e-10
-1.36126e-11
2.28286e-10
-2.07932e-11
2.33694e-10
-2.49775e-11
2.38734e-10
-2.63e-11
2.42937e-10
-2.49626e-11
2.45932e-10
-2.12547e-11
2.4743e-10
-1.55506e-11
2.47234e-10
-8.30244e-12
2.4524e-10
-1.4338e-14
2.41438e-10
8.80149e-12
2.359e-10
1.76583e-11
2.28765e-10
2.61158e-11
3.37887e-11
2.20231e-10
1.04519e-12
-4.86793e-12
4.07962e-12
-1.64958e-11
8.86354e-12
-2.77268e-11
1.51768e-11
-3.82974e-11
2.27997e-11
-4.7851e-11
3.15079e-11
-5.60932e-11
4.10778e-11
-6.28825e-11
5.12897e-11
-6.82023e-11
6.19293e-11
-7.21115e-11
7.27893e-11
-7.47122e-11
8.36723e-11
-7.61362e-11
9.43969e-11
-7.65436e-11
1.04808e-10
-7.6122e-11
1.14786e-10
-7.50844e-11
1.24264e-10
-7.36578e-11
1.33225e-10
-7.206e-11
1.41699e-10
-7.04702e-11
1.49739e-10
-6.90017e-11
1.57423e-10
-6.77427e-11
1.64915e-10
-6.68344e-11
1.72438e-10
-6.6313e-11
1.80168e-10
-6.59619e-11
1.88186e-10
-6.54222e-11
1.96551e-10
-6.44058e-11
2.05308e-10
-6.26073e-11
2.14488e-10
-5.96898e-11
2.24148e-10
-5.52594e-11
2.34074e-10
-4.83981e-11
2.42854e-10
-3.6967e-11
2.49852e-10
-2.24899e-11
2.51535e-10
-2.23938e-12
2.46547e-10
1.74345e-11
2.4412e-10
1.70556e-11
2.38685e-10
2.38374e-11
2.31321e-10
2.49264e-11
2.29644e-10
1.0157e-11
2.3361e-10
-7.43571e-12
2.40225e-10
-2.0227e-11
2.47429e-10
-2.79969e-11
2.543e-10
-3.18479e-11
2.60325e-10
-3.23251e-11
2.65108e-10
-2.97456e-11
2.68317e-10
-2.44642e-11
2.6968e-10
-1.69132e-11
2.69003e-10
-7.62517e-12
2.662e-10
2.78846e-12
2.61292e-10
1.3711e-11
2.54385e-10
2.45657e-11
2.45662e-10
3.48397e-11
4.40893e-11
2.35362e-10
1.15303e-12
-6.02108e-12
4.47173e-12
-1.98142e-11
9.68602e-12
-3.29406e-11
1.65533e-11
-4.51643e-11
2.4836e-11
-5.61335e-11
3.4295e-11
-6.55522e-11
4.46915e-11
-7.32793e-11
5.57892e-11
-7.93005e-11
6.73531e-11
-8.36761e-11
7.91493e-11
-8.65093e-11
9.0947e-11
-8.79352e-11
1.02525e-10
-8.81232e-11
1.13685e-10
-8.72833e-11
1.24267e-10
-8.56682e-11
1.34171e-10
-8.35639e-11
1.4337e-10
-8.12601e-11
1.519e-10
-7.90006e-11
1.59811e-10
-7.69133e-11
1.67163e-10
-7.50942e-11
1.74166e-10
-7.38374e-11
1.81146e-10
-7.32919e-11
1.88329e-10
-7.31448e-11
1.95775e-10
-7.28675e-11
2.03561e-10
-7.21919e-11
2.11772e-10
-7.08173e-11
2.20464e-10
-6.83814e-11
2.29913e-10
-6.47078e-11
2.40831e-10
-5.9316e-11
2.50867e-10
-4.70025e-11
2.60998e-10
-3.26198e-11
2.66576e-10
-7.81631e-12
2.59167e-10
2.4845e-11
2.59488e-10
1.67357e-11
2.51491e-10
3.18351e-11
2.40145e-10
3.62735e-11
2.40571e-10
9.73212e-12
2.49594e-10
-1.64592e-11
2.60348e-10
-3.09811e-11
2.69995e-10
-3.76435e-11
2.78298e-10
-4.0152e-11
2.8518e-10
-3.92067e-11
2.9041e-10
-3.49756e-11
2.93721e-10
-2.7775e-11
2.94845e-10
-1.80372e-11
2.9358e-10
-6.35877e-12
2.89848e-10
6.52099e-12
2.837e-10
1.98603e-11
2.75285e-10
3.29808e-11
2.64831e-10
4.52946e-11
5.63e-11
2.52621e-10
1.26209e-12
-7.28305e-12
4.86518e-12
-2.34167e-11
1.05097e-11
-3.85846e-11
1.79337e-11
-5.25881e-11
2.68868e-11
-6.50868e-11
3.71196e-11
-7.57855e-11
4.83837e-11
-8.45443e-11
6.04305e-11
-9.13483e-11
7.30073e-11
-9.62542e-11
8.58545e-11
-9.93579e-11
9.87048e-11
-1.00787e-10
1.11289e-10
-1.00709e-10
1.23349e-10
-9.93459e-11
1.34665e-10
-9.6986e-11
1.45083e-10
-9.39837e-11
1.54547e-10
-9.07254e-11
1.63108e-10
-8.75608e-11
1.70815e-10
-8.46198e-11
1.77662e-10
-8.19411e-11
1.83921e-10
-8.00956e-11
1.90072e-10
-7.94424e-11
1.96388e-10
-7.94604e-11
2.02829e-10
-7.93089e-11
2.09459e-10
-7.88212e-11
2.16369e-10
-7.77281e-11
2.23568e-10
-7.55793e-11
2.31087e-10
-7.2227e-11
2.40759e-10
-6.89865e-11
2.52729e-10
-5.89716e-11
2.64025e-10
-4.39142e-11
2.75239e-10
-1.90295e-11
2.68011e-10
3.20752e-11
2.70363e-10
1.43849e-11
2.48429e-10
5.37702e-11
2.39812e-10
4.48912e-11
2.51001e-10
-1.45606e-12
2.71691e-10
-3.71493e-11
2.86937e-10
-4.62278e-11
2.9797e-10
-4.86774e-11
3.0687e-10
-4.90529e-11
3.1403e-10
-4.63663e-11
3.19318e-10
-4.02637e-11
3.22498e-10
-3.09549e-11
3.23239e-10
-1.8777e-11
3.21257e-10
-4.37565e-12
3.16464e-10
1.13147e-11
3.0894e-10
2.73857e-11
2.98882e-10
4.30386e-11
2.86567e-10
5.76095e-11
7.05437e-11
2.72324e-10
1.37009e-12
-8.65278e-12
5.25178e-12
-2.72976e-11
1.13178e-11
-4.46503e-11
1.92913e-11
-6.05618e-11
2.89145e-11
-7.47104e-11
3.99345e-11
-8.68064e-11
5.21005e-11
-9.67112e-11
6.51585e-11
-1.04407e-10
7.88451e-11
-1.09942e-10
9.28794e-11
-1.13394e-10
1.06958e-10
-1.14868e-10
1.20758e-10
-1.14511e-10
1.33949e-10
-1.12538e-10
1.46218e-10
-1.09257e-10
1.57323e-10
-1.0509e-10
1.67142e-10
-1.00545e-10
1.75733e-10
-9.61516e-11
1.83176e-10
-9.20613e-11
1.89375e-10
-8.81396e-11
1.94629e-10
-8.53491e-11
1.99705e-10
-8.45183e-11
2.04919e-10
-8.46744e-11
2.10044e-10
-8.44346e-11
2.15056e-10
-8.38337e-11
2.19828e-10
-8.25003e-11
2.24367e-10
-8.01185e-11
2.28945e-10
-7.68037e-11
2.33523e-10
-7.35638e-11
2.42662e-10
-6.81094e-11
2.57016e-10
-5.82661e-11
2.80657e-10
-4.26695e-11
3.09827e-10
2.90698e-12
2.27149e-10
9.70652e-11
2.37421e-10
4.34995e-11
2.33667e-10
4.86452e-11
2.8783e-10
-5.56184e-11
3.11079e-10
-6.03989e-11
3.2301e-10
-5.81594e-11
3.32311e-10
-5.79795e-11
3.40436e-10
-5.71784e-11
3.47047e-10
-5.29771e-11
3.51875e-10
-4.50916e-11
3.54667e-10
-3.37461e-11
3.54907e-10
-1.90157e-11
3.52107e-10
-1.5746e-12
3.46136e-10
1.72867e-11
3.37109e-10
3.64129e-11
3.2529e-10
5.48574e-11
3.11012e-10
7.1887e-11
8.69082e-11
2.94648e-10
1.47321e-12
-1.01255e-11
5.61829e-12
-3.14423e-11
1.20836e-11
-5.11156e-11
2.05827e-11
-6.90612e-11
3.08569e-11
-8.49854e-11
4.26583e-11
-9.86087e-11
5.57423e-11
-1.09796e-10
6.98602e-11
-1.18526e-10
8.47485e-11
-1.24831e-10
1.00116e-10
-1.28762e-10
1.15631e-10
-1.30385e-10
1.30919e-10
-1.29801e-10
1.45565e-10
-1.27185e-10
1.59137e-10
-1.22831e-10
1.71246e-10
-1.17199e-10
1.81627e-10
-1.10926e-10
1.90302e-10
-1.04826e-10
1.97368e-10
-9.91268e-11
2.02719e-10
-9.34905e-11
2.06793e-10
-8.94236e-11
2.1055e-10
-8.82757e-11
2.14543e-10
-8.86676e-11
2.18235e-10
-8.8128e-11
2.21781e-10
-8.73797e-11
2.23792e-10
-8.45124e-11
2.22855e-10
-7.91806e-11
2.20918e-10
-7.48662e-11
2.15337e-10
-6.7982e-11
2.02354e-10
-5.51242e-11
1.7215e-10
-2.80609e-11
1.26456e-10
3.02604e-12
1.44059e-10
-1.46939e-11
1.8624e-10
5.48854e-11
2.59622e-10
-2.98814e-11
3.82495e-10
-7.42267e-11
3.64578e-10
-3.77006e-11
3.60152e-10
-5.59735e-11
3.63802e-10
-6.18103e-11
3.70719e-10
-6.48972e-11
3.77742e-10
-6.42011e-11
3.83369e-10
-5.86048e-11
3.8741e-10
-4.91315e-11
3.89785e-10
-3.61194e-11
3.89613e-10
-1.8843e-11
3.85999e-10
2.03994e-12
3.78785e-10
2.45014e-11
3.6816e-10
4.70377e-11
3.54489e-10
6.85278e-11
3.38187e-10
8.81884e-11
1.05427e-10
3.19669e-10
1.56625e-12
-1.16914e-11
5.94702e-12
-3.58231e-11
1.27713e-11
-5.79403e-11
2.17491e-11
-7.80397e-11
3.26288e-11
-9.58659e-11
4.51756e-11
-1.11156e-10
5.91618e-11
-1.23782e-10
7.4357e-11
-1.33721e-10
9.05131e-11
-1.40987e-10
1.07347e-10
-1.45596e-10
1.24518e-10
-1.47557e-10
1.41616e-10
-1.469e-10
1.58147e-10
-1.43717e-10
1.7354e-10
-1.38225e-10
1.87197e-10
-1.30857e-10
1.98578e-10
-1.22306e-10
2.07585e-10
-1.13833e-10
2.14253e-10
-1.05794e-10
2.1837e-10
-9.76077e-11
2.21068e-10
-9.21223e-11
2.23296e-10
-9.05049e-11
2.2567e-10
-9.10428e-11
2.28125e-10
-9.05834e-11
2.31049e-10
-9.0304e-11
2.34225e-10
-8.7689e-11
2.29587e-10
-7.45417e-11
2.25333e-10
-7.06119e-11
2.23771e-10
-6.64189e-11
2.23564e-10
-5.49158e-11
2.21751e-10
-2.62466e-11
2.38323e-10
-1.35444e-11
2.48179e-10
-2.45475e-11
2.44375e-10
5.869e-11
2.96775e-10
-8.22794e-11
3.16385e-10
-9.38358e-11
3.58048e-10
-7.93636e-11
3.77277e-10
-7.52017e-11
3.94159e-10
-7.86933e-11
4.07427e-10
-7.81656e-11
4.16509e-10
-7.32834e-11
4.21485e-10
-6.35804e-11
4.24688e-10
-5.23342e-11
4.27059e-10
-3.84888e-11
4.26951e-10
-1.87345e-11
4.22683e-10
6.30889e-12
4.14227e-10
3.29566e-11
4.01956e-10
5.93088e-11
3.86374e-10
8.41087e-11
3.68036e-10
1.06527e-10
1.26063e-10
3.47401e-10
1.64309e-12
-1.33344e-11
6.21717e-12
-4.03979e-11
1.33385e-11
-6.50625e-11
2.27205e-11
-8.74226e-11
3.41259e-11
-1.07272e-10
4.73413e-11
-1.24372e-10
6.21666e-11
-1.38608e-10
7.84033e-11
-1.49957e-10
9.58382e-11
-1.58422e-10
1.14221e-10
-1.63978e-10
1.33236e-10
-1.66572e-10
1.52473e-10
-1.66137e-10
1.71391e-10
-1.62635e-10
1.89293e-10
-1.56128e-10
2.05341e-10
-1.46906e-10
2.1858e-10
-1.35545e-10
2.28455e-10
-1.23709e-10
2.3479e-10
-1.12129e-10
2.37311e-10
-1.0013e-10
2.37984e-10
-9.27963e-11
2.39812e-10
-9.23336e-11
2.39653e-10
-9.08849e-11
2.39889e-10
-9.08206e-11
2.42113e-10
-9.25285e-11
2.4766e-10
-9.32358e-11
2.48323e-10
-7.5204e-11
2.4117e-10
-6.34587e-11
2.42517e-10
-6.7765e-11
2.49133e-10
-6.15307e-11
2.68503e-10
-4.56151e-11
2.95408e-10
-4.04479e-11
3.10318e-10
-3.94561e-11
3.35553e-10
3.34557e-11
3.19372e-10
-6.60972e-11
3.50172e-10
-1.24634e-10
3.82603e-10
-1.11794e-10
4.09685e-10
-1.02284e-10
4.3336e-10
-1.02368e-10
4.50509e-10
-9.53151e-11
4.58888e-10
-8.16622e-11
4.60861e-10
-6.55536e-11
4.62575e-10
-5.40477e-11
4.65805e-10
-4.17178e-11
4.66675e-10
-1.96037e-11
4.61958e-10
1.10271e-11
4.5225e-10
4.26641e-11
4.3832e-10
7.32379e-11
4.20822e-10
1.01607e-10
4.00471e-10
1.26877e-10
1.48695e-10
3.77839e-10
1.69726e-12
-1.50319e-11
6.40689e-12
-4.51089e-11
1.37405e-11
-7.23973e-11
2.34221e-11
-9.71052e-11
3.52347e-11
-1.19085e-10
4.89931e-11
-1.3813e-10
6.45326e-11
-1.54147e-10
8.16984e-11
-1.67123e-10
1.0033e-10
-1.77053e-10
1.20238e-10
-1.83886e-10
1.41175e-10
-1.87508e-10
1.62788e-10
-1.87751e-10
1.84569e-10
-1.84416e-10
2.05777e-10
-1.77336e-10
2.25358e-10
-1.66487e-10
2.41971e-10
-1.52158e-10
2.54128e-10
-1.35867e-10
2.60942e-10
-1.18944e-10
2.61887e-10
-1.01076e-10
2.5847e-10
-8.93808e-11
2.58299e-10
-9.21635e-11
2.59271e-10
-9.18574e-11
2.57561e-10
-8.91112e-11
2.57118e-10
-9.20851e-11
2.56901e-10
-9.3019e-11
2.60414e-10
-7.87169e-11
2.61473e-10
-6.4517e-11
2.70015e-10
-7.63067e-11
2.82266e-10
-7.37803e-11
3.04649e-10
-6.79972e-11
3.27581e-10
-6.3379e-11
3.43096e-10
-5.49702e-11
4.0183e-10
-2.52775e-11
4.05963e-10
-7.02283e-11
4.04561e-10
-1.23231e-10
4.29502e-10
-1.36734e-10
4.59398e-10
-1.32179e-10
4.83444e-10
-1.26413e-10
4.97965e-10
-1.09836e-10
5.0156e-10
-8.52573e-11
4.98947e-10
-6.29412e-11
4.99313e-10
-5.44126e-11
5.05477e-10
-4.78813e-11
5.08932e-10
-2.30579e-11
5.03756e-10
1.62037e-11
4.92616e-10
5.38041e-11
4.77042e-10
8.88104e-11
4.57736e-10
1.20912e-10
4.35431e-10
1.49181e-10
1.73148e-10
4.10978e-10
1.72282e-12
-1.67555e-11
6.49614e-12
-4.98839e-11
1.39363e-11
-7.98388e-11
2.3784e-11
-1.06954e-10
3.58469e-11
-1.31148e-10
4.9971e-11
-1.52254e-10
6.60304e-11
-1.70206e-10
8.39188e-11
-1.85011e-10
1.03538e-10
-1.96671e-10
1.24778e-10
-2.05126e-10
1.47496e-10
-2.10225e-10
1.71466e-10
-2.1172e-10
1.96319e-10
-2.0927e-10
2.21442e-10
-2.0246e-10
2.45806e-10
-1.90852e-10
2.67733e-10
-1.74086e-10
2.84608e-10
-1.52743e-10
2.94502e-10
-1.28839e-10
2.95939e-10
-1.02514e-10
2.87089e-10
-8.05307e-11
2.76005e-10
-8.10807e-11
2.75265e-10
-9.11169e-11
2.78593e-10
-9.24401e-11
2.84836e-10
-9.83278e-11
2.84071e-10
-9.22542e-11
2.85315e-10
-7.99603e-11
3.00592e-10
-7.97941e-11
3.05486e-10
-8.11996e-11
3.16865e-10
-8.51586e-11
3.36261e-10
-8.73929e-11
3.59724e-10
-8.68414e-11
3.8652e-10
-8.17649e-11
4.31824e-10
-7.05802e-11
4.56353e-10
-9.4756e-11
4.65988e-10
-1.32866e-10
4.83989e-10
-1.54734e-10
5.06647e-10
-1.54837e-10
5.28246e-10
-1.48011e-10
5.40872e-10
-1.22463e-10
5.44162e-10
-8.8547e-11
5.3635e-10
-5.51293e-11
5.36128e-10
-5.41898e-11
5.46912e-10
-5.86643e-11
5.54794e-10
-3.09392e-11
5.47908e-10
2.30898e-11
5.34971e-10
6.67401e-11
5.17892e-10
1.05889e-10
4.96997e-10
1.41806e-10
4.72926e-10
1.73252e-10
1.99237e-10
4.46837e-10
1.71532e-12
-1.84719e-11
6.46992e-12
-5.46401e-11
1.38948e-11
-8.72649e-11
2.37529e-11
-1.16813e-10
3.58778e-11
-1.43274e-10
5.01459e-11
-1.66523e-10
6.64664e-11
-1.86527e-10
8.47772e-11
-2.03322e-10
1.05037e-10
-2.16931e-10
1.27217e-10
-2.27306e-10
1.51282e-10
-2.3429e-10
1.77163e-10
-2.37603e-10
2.0471e-10
-2.36818e-10
2.33607e-10
-2.31357e-10
2.63222e-10
-2.20467e-10
2.92206e-10
-2.03072e-10
3.1748e-10
-1.78017e-10
3.3504e-10
-1.46398e-10
3.41469e-10
-1.08943e-10
3.30304e-10
-6.93662e-11
3.08447e-10
-5.92231e-11
2.98672e-10
-8.13427e-11
3.04339e-10
-9.8107e-11
3.15443e-10
-1.09432e-10
3.16132e-10
-9.29428e-11
3.16542e-10
-8.03701e-11
3.24123e-10
-8.73749e-11
3.33335e-10
-9.04108e-11
3.49983e-10
-1.01806e-10
3.7212e-10
-1.09529e-10
3.97732e-10
-1.12453e-10
4.24034e-10
-1.08066e-10
4.65719e-10
-1.12265e-10
4.93328e-10
-1.22364e-10
5.11062e-10
-1.50598e-10
5.3026e-10
-1.73931e-10
5.48109e-10
-1.72685e-10
5.65584e-10
-1.65486e-10
5.84781e-10
-1.4166e-10
5.92544e-10
-9.63102e-11
5.84813e-10
-4.7398e-11
5.78457e-10
-4.78332e-11
5.95688e-10
-7.58946e-11
6.06758e-10
-4.20098e-11
5.94719e-10
3.51287e-11
5.79462e-10
8.19974e-11
5.60874e-10
1.24476e-10
5.38599e-10
1.64081e-10
5.13153e-10
1.98698e-10
2.26773e-10
4.85618e-10
1.67272e-12
-2.01456e-11
6.3214e-12
-5.929e-11
1.3602e-11
-9.45464e-11
2.33033e-11
-1.26515e-10
3.52848e-11
-1.55256e-10
4.94479e-11
-1.80687e-10
6.57284e-11
-2.02808e-10
8.40943e-11
-2.21688e-10
1.04544e-10
-2.37382e-10
1.27103e-10
-2.49866e-10
1.51819e-10
-2.59006e-10
1.78745e-10
-2.64529e-10
2.07923e-10
-2.65996e-10
2.39343e-10
-2.62779e-10
2.72857e-10
-2.53981e-10
3.08128e-10
-2.38344e-10
3.43718e-10
-2.13608e-10
3.7212e-10
-1.748e-10
3.90323e-10
-1.27146e-10
3.91693e-10
-7.07358e-11
3.57211e-10
-2.47411e-11
3.32679e-10
-5.6811e-11
3.29127e-10
-9.45545e-11
3.43923e-10
-1.24228e-10
3.38586e-10
-8.76059e-11
3.31652e-10
-7.34354e-11
3.35511e-10
-9.1233e-11
3.56102e-10
-1.11001e-10
3.81481e-10
-1.27184e-10
4.12415e-10
-1.40463e-10
4.46498e-10
-1.46535e-10
4.81949e-10
-1.43517e-10
5.12576e-10
-1.42893e-10
5.32455e-10
-1.42243e-10
5.49407e-10
-1.6755e-10
5.64949e-10
-1.89472e-10
5.81733e-10
-1.89468e-10
6.01088e-10
-1.84841e-10
6.30192e-10
-1.70762e-10
6.56156e-10
-1.22275e-10
6.56321e-10
-4.75624e-11
6.26764e-10
-1.82772e-11
6.52223e-10
-1.01353e-10
6.60409e-10
-5.01964e-11
6.43468e-10
5.20698e-11
6.24616e-10
1.00849e-10
6.05466e-10
1.43626e-10
5.82263e-10
1.87285e-10
5.55898e-10
2.25063e-10
2.55262e-10
5.27409e-10
1.59596e-12
-2.17423e-11
6.05412e-12
-6.37488e-11
1.30649e-11
-1.01558e-10
2.24463e-11
-1.35897e-10
3.40813e-11
-1.66892e-10
4.78892e-11
-1.94496e-10
6.382e-11
-2.1874e-10
8.1854e-11
-2.39724e-10
1.02004e-10
-2.57532e-10
1.24314e-10
-2.72177e-10
1.48864e-10
-2.83557e-10
1.75759e-10
-2.91426e-10
2.05135e-10
-2.95372e-10
2.37133e-10
-2.94778e-10
2.72105e-10
-2.88954e-10
3.10106e-10
-2.76345e-10
3.52478e-10
-2.55981e-10
3.97531e-10
-2.19852e-10
4.29246e-10
-1.5886e-10
4.53462e-10
-9.49517e-11
4.33399e-10
-4.67717e-12
3.75496e-10
1.09167e-12
3.56912e-10
-7.59706e-11
3.61642e-10
-1.28958e-10
3.36468e-10
-6.24312e-11
3.35908e-10
-7.28751e-11
3.5362e-10
-1.08945e-10
3.84299e-10
-1.4168e-10
4.19191e-10
-1.62076e-10
4.55463e-10
-1.76733e-10
4.90266e-10
-1.81338e-10
5.27883e-10
-1.81135e-10
5.59926e-10
-1.74936e-10
5.667e-10
-1.49017e-10
5.88603e-10
-1.89453e-10
6.01303e-10
-2.02172e-10
6.13782e-10
-2.01946e-10
6.27906e-10
-1.98964e-10
6.58106e-10
-2.00962e-10
7.13436e-10
-1.77603e-10
7.40842e-10
-7.49688e-11
7.33367e-10
-1.08032e-11
7.01606e-10
-6.95925e-11
7.20439e-10
-6.90301e-11
6.81987e-10
9.05228e-11
6.72575e-10
1.10261e-10
6.52507e-10
1.63696e-10
6.27836e-10
2.11957e-10
6.0109e-10
2.5181e-10
2.83353e-10
5.72998e-10
1.48924e-12
-2.32319e-11
5.68273e-12
-6.79424e-11
1.23139e-11
-1.08189e-10
2.12322e-11
-1.44816e-10
3.23412e-11
-1.78003e-10
4.5571e-11
-2.07727e-10
6.08733e-11
-2.34044e-10
7.82226e-11
-2.57075e-10
9.76198e-11
-2.76931e-10
1.19096e-10
-2.93654e-10
1.42711e-10
-3.07173e-10
1.68562e-10
-3.17277e-10
1.96783e-10
-3.23594e-10
2.27616e-10
-3.25611e-10
2.61079e-10
-3.22418e-10
2.97913e-10
-3.13179e-10
3.40358e-10
-2.98425e-10
3.96745e-10
-2.76239e-10
4.31063e-10
-1.93179e-10
4.64782e-10
-1.2867e-10
4.46264e-10
1.38407e-11
4.64457e-10
-1.71009e-11
3.40615e-10
4.78709e-11
3.63992e-10
-1.52335e-10
3.46236e-10
-4.46741e-11
3.69737e-10
-9.63757e-11
4.01584e-10
-1.40792e-10
4.32866e-10
-1.7296e-10
4.68702e-10
-1.97911e-10
4.98449e-10
-2.0648e-10
5.28582e-10
-2.11471e-10
5.53257e-10
-2.0581e-10
5.72454e-10
-1.94133e-10
6.20315e-10
-1.96879e-10
6.3435e-10