/*--------------------------------*- C++ -*----------------------------------*\
| =========                 |                                                 |
| \\      /  F ield         | OpenFOAM: The Open Source CFD Toolbox           |
|  \\    /   O peration     | Version:  2.4.0                                 |
|   \\  /    A nd           | Web:      www.OpenFOAM.org                      |
|    \\/     M anipulation  |                                                 |
\*---------------------------------------------------------------------------*/
FoamFile
{
    version     2.0;
    format      ascii;
    class       surfaceScalarField;
    location    "0.046";
    object      phi;
}
// * * * * * * * * * * * * * * * * * * * * * * * * * * * * * * * * * * * * * //

dimensions      [0 3 -1 0 0 0 0];

internalField   nonuniform List<scalar> 
28560
(
-7.79764e-10
2.00775e-09
-1.22799e-09
1.72406e-09
-2.5658e-09
8.41737e-10
3.54709e-09
-4.58482e-09
1.03773e-09
5.81293e-09
-7.11023e-09
1.2973e-09
8.55714e-09
-9.89817e-09
1.34103e-09
1.11007e-08
-1.18276e-08
7.2698e-10
1.19493e-08
-1.127e-08
-6.79329e-10
9.58328e-09
-6.96531e-09
-2.61797e-09
3.13164e-09
1.47158e-09
-4.60322e-09
-7.08005e-09
1.30502e-08
-5.9701e-09
-1.97553e-08
2.63267e-08
-6.57136e-09
-3.32669e-08
3.97365e-08
-6.46961e-09
-4.62888e-08
5.21885e-08
-5.89965e-09
-5.79823e-08
6.30159e-08
-5.03359e-09
-6.77701e-08
7.17075e-08
-3.93741e-09
-7.51974e-08
7.78696e-08
-2.67216e-09
-7.9966e-08
8.12786e-08
-1.31269e-09
-8.19381e-08
8.18999e-08
3.82011e-11
-8.11704e-08
7.98543e-08
1.31615e-09
-7.78714e-08
7.54808e-08
2.39064e-09
-7.24877e-08
6.92619e-08
3.22581e-09
-6.55403e-08
6.17689e-08
3.77133e-09
-5.76177e-08
5.35642e-08
4.05349e-09
-4.92422e-08
4.5134e-08
4.10816e-09
-4.08431e-08
3.68349e-08
4.00823e-09
-3.2714e-08
2.89115e-08
3.80248e-09
-2.50401e-08
2.14974e-08
3.54271e-09
-1.79176e-08
1.46593e-08
3.25832e-09
-1.13828e-08
8.41173e-09
2.97111e-09
-5.43144e-09
2.73994e-09
2.69151e-09
-3.37242e-09
4.77642e-09
-1.404e-09
2.99836e-09
-4.51588e-09
-2.19469e-09
3.71221e-09
6.29312e-09
-8.20266e-09
-2.72212e-09
4.63166e-09
1.04933e-08
-1.29506e-08
-3.4342e-09
5.89146e-09
1.57754e-08
-1.85547e-08
-3.68214e-09
6.46148e-09
2.13597e-08
-2.3613e-08
-2.42712e-09
4.68042e-09
2.52481e-08
-2.58139e-08
7.41099e-10
-1.75362e-10
2.51382e-08
-2.31162e-08
5.2804e-09
-7.30234e-09
1.94907e-08
-1.46779e-08
1.0029e-08
-1.48417e-08
8.35011e-09
-1.39697e-09
1.34668e-08
-2.04199e-08
-6.58055e-09
1.4526e-08
1.50314e-08
-2.29769e-08
-2.30455e-08
3.10957e-08
1.50094e-08
-2.30596e-08
-3.94427e-08
4.7092e-08
1.39081e-08
-2.15573e-08
-5.48034e-08
6.16999e-08
1.21021e-08
-1.89987e-08
-6.84509e-08
7.42935e-08
9.74192e-09
-1.55845e-08
-7.97928e-08
8.43323e-08
6.98833e-09
-1.15278e-08
-8.83318e-08
9.13707e-08
3.93544e-09
-6.97434e-09
-9.37228e-08
9.5131e-08
8.3778e-10
-2.24596e-09
-9.57611e-08
9.55403e-08
-2.14637e-09
2.36716e-09
-9.44849e-08
9.27389e-08
-4.74653e-09
6.49247e-09
-9.01857e-08
8.71468e-08
-6.84242e-09
9.88124e-09
-8.33944e-08
7.93772e-08
-8.31131e-09
1.23285e-08
-7.4779e-08
7.01232e-08
-9.17253e-09
1.38283e-08
-6.50092e-08
6.0021e-08
-9.49029e-09
1.44785e-08
-5.46942e-08
4.96207e-08
-9.41167e-09
1.44852e-08
-4.43113e-08
3.93412e-08
-9.04654e-09
1.40167e-08
-3.42141e-08
2.94702e-08
-8.51334e-09
1.32573e-08
-2.46311e-08
2.0194e-08
-7.88579e-09
1.23228e-08
-1.57041e-08
1.16158e-08
-7.22353e-09
1.13119e-08
-7.50103e-09
3.77993e-09
-6.55674e-09
1.02778e-08
-6.1892e-09
7.60162e-09
-1.41242e-09
3.10944e-09
-4.68852e-09
-5.27969e-09
6.85878e-09
6.54641e-09
-8.5515e-09
-6.61584e-09
8.62093e-09
1.09688e-08
-1.35789e-08
-8.46469e-09
1.10749e-08
1.6606e-08
-1.96244e-08
-9.41691e-09
1.24353e-08
2.27355e-08
-2.53318e-08
-7.18074e-09
9.77699e-09
2.73817e-08
-2.83889e-08
-7.05515e-10
1.71274e-09
2.82218e-08
-2.67139e-08
8.9555e-09
-1.04633e-08
2.36535e-08
-1.93938e-08
1.92515e-08
-2.35112e-08
1.36641e-08
-7.30496e-09
2.6932e-08
-3.32912e-08
-6.18948e-11
7.39413e-09
3.04211e-08
-3.77533e-08
-1.52785e-08
2.2761e-08
3.06953e-08
-3.81778e-08
-3.05233e-08
3.77032e-08
2.88565e-08
-3.60365e-08
-4.499e-08
5.15772e-08
2.56543e-08
-3.22415e-08
-5.81063e-08
6.38424e-08
2.13267e-08
-2.70628e-08
-6.93321e-08
7.39541e-08
1.60833e-08
-2.07053e-08
-7.81125e-08
8.1383e-08
1.01507e-08
-1.34212e-08
-8.40324e-08
8.57736e-08
3.88076e-09
-5.6219e-09
-8.67651e-08
8.69358e-08
-2.30353e-09
2.13282e-09
-8.62854e-08
8.49523e-08
-7.94216e-09
9.2752e-09
-8.28321e-08
8.02041e-08
-1.25928e-08
1.52209e-08
-7.68795e-08
7.32706e-08
-1.60158e-08
1.96247e-08
-6.91008e-08
6.48494e-08
-1.81573e-08
2.24087e-08
-6.01592e-08
5.55674e-08
-1.91507e-08
2.37425e-08
-5.06551e-08
4.59668e-08
-1.92618e-08
2.39501e-08
-4.10572e-08
3.6457e-08
-1.87053e-08
2.33055e-08
-3.1709e-08
2.73143e-08
-1.77385e-08
2.21332e-08
-2.28304e-08
1.87191e-08
-1.65171e-08
2.06284e-08
-1.45589e-08
1.07695e-08
-1.51789e-08
1.89683e-08
-6.9562e-09
3.50608e-09
-1.37998e-08
1.72499e-08
-9.01097e-09
1.04156e-08
-1.40459e-09
3.1116e-09
-4.68738e-09
-8.43781e-09
1.00136e-08
6.54522e-09
-8.55175e-09
-1.06299e-08
1.26365e-08
1.09741e-08
-1.35968e-08
-1.36957e-08
1.63185e-08
1.66486e-08
-1.97067e-08
-1.54781e-08
1.85362e-08
2.28781e-08
-2.55465e-08
-1.24157e-08
1.50841e-08
2.76854e-08
-2.87865e-08
-2.77589e-09
3.87698e-09
2.87227e-08
-2.73074e-08
1.19135e-08
-1.33288e-08
2.43307e-08
-2.0129e-08
2.77265e-08
-3.19282e-08
1.4438e-08
-8.09909e-09
3.96208e-08
-4.59596e-08
7.5448e-10
6.59918e-09
4.50684e-08
-5.24221e-08
-1.44684e-08
2.1917e-08
4.56371e-08
-5.30858e-08
-2.9674e-08
3.68617e-08
4.31986e-08
-5.03863e-08
-4.41698e-08
5.08171e-08
3.88428e-08
-4.54901e-08
-5.74252e-08
6.32607e-08
3.28418e-08
-3.86773e-08
-6.88795e-08
7.36237e-08
2.53728e-08
-3.0117e-08
-7.79773e-08
8.1392e-08
1.67459e-08
-2.01605e-08
-8.42386e-08
8.61603e-08
7.44782e-09
-9.36946e-09
-8.73492e-08
8.76701e-08
-1.88546e-09
1.5645e-09
-8.71806e-08
8.59553e-08
-1.05589e-08
1.17843e-08
-8.39243e-08
8.13532e-08
-1.78191e-08
2.03902e-08
-7.80552e-08
7.4449e-08
-2.32216e-08
2.68278e-08
-7.02386e-08
6.59422e-08
-2.66696e-08
3.09661e-08
-6.11815e-08
5.65175e-08
-2.83497e-08
3.30138e-08
-5.15164e-08
4.67495e-08
-2.86598e-08
3.34267e-08
-4.17548e-08
3.70707e-08
-2.79247e-08
3.26088e-08
-3.22414e-08
2.77713e-08
-2.65434e-08
3.10136e-08
-2.32122e-08
1.90308e-08
-2.47532e-08
2.89346e-08
-1.48001e-08
1.09469e-08
-2.27693e-08
2.66225e-08
-7.06962e-09
3.56195e-09
-2.07099e-08
2.42175e-08
-1.18149e-08
1.32082e-08
-1.39331e-09
3.10448e-09
-4.66957e-09
-1.15847e-08
1.31498e-08
6.51919e-09
-8.51782e-09
-1.46386e-08
1.66372e-08
1.09335e-08
-1.35571e-08
-1.8941e-08
2.15647e-08
1.66207e-08
-1.97073e-08
-2.16081e-08
2.46947e-08
2.29284e-08
-2.56586e-08
-1.77817e-08
2.05119e-08
2.78736e-08
-2.90544e-08
-5.01566e-09
6.19646e-09
2.90758e-08
-2.77291e-08
1.47113e-08
-1.6058e-08
2.48024e-08
-2.06146e-08
3.61224e-08
-4.03102e-08
1.49025e-08
-8.51615e-09
5.23191e-08
-5.87054e-08
1.10745e-09
6.28022e-09
5.97777e-08
-6.71654e-08
-1.42123e-08
2.17391e-08
6.05737e-08
-6.81005e-08
-2.9544e-08
3.67883e-08
5.76006e-08
-6.48448e-08
-4.41793e-08
5.09058e-08
5.2171e-08
-5.88976e-08
-5.76164e-08
6.3592e-08
4.45767e-08
-5.05523e-08
-6.93756e-08
7.42992e-08
3.49452e-08
-3.98687e-08
-7.88569e-08
8.25015e-08
2.36766e-08
-2.73212e-08
-8.55856e-08
8.77484e-08
1.14023e-08
-1.35651e-08
-8.91942e-08
8.97436e-08
-1.15378e-09
6.04368e-10
-8.94712e-08
8.84077e-08
-1.29338e-08
1.39973e-08
-8.65181e-08
8.4026e-08
-2.29261e-08
2.54182e-08
-8.07559e-08
7.71218e-08
-3.04382e-08
3.40723e-08
-7.28564e-08
6.84547e-08
-3.53167e-08
3.97184e-08
-6.35565e-08
5.87399e-08
-3.77488e-08
4.25654e-08
-5.35661e-08
4.86163e-08
-3.82772e-08
4.3227e-08
-4.3435e-08
3.85719e-08
-3.73704e-08
4.22335e-08
-3.355e-08
2.89031e-08
-3.55652e-08
4.02121e-08
-2.41603e-08
1.98093e-08
-3.31929e-08
3.75439e-08
-1.54065e-08
1.13952e-08
-3.0547e-08
3.45583e-08
-7.3576e-09
3.70505e-09
-2.77904e-08
3.14429e-08
-1.45948e-08
1.59737e-08
-1.37893e-09
3.09455e-09
-4.6455e-09
-1.4708e-08
1.6259e-08
6.48402e-09
-8.47173e-09
-1.86313e-08
2.0619e-08
1.08776e-08
-1.3501e-08
-2.41891e-08
2.68124e-08
1.65778e-08
-1.96985e-08
-2.77973e-08
3.0918e-08
2.29812e-08
-2.5788e-08
-2.32783e-08
2.60851e-08
2.80982e-08
-2.93789e-08
-7.42458e-09
8.70528e-09
2.95079e-08
-2.8248e-08
1.73641e-08
-1.8624e-08
2.53842e-08
-2.12129e-08
4.44902e-08
-4.86615e-08
1.54707e-08
-9.01968e-09
6.51223e-08
-7.15733e-08
1.52465e-09
5.94583e-09
7.46162e-08
-8.20867e-08
-1.39546e-08
2.1533e-08
7.56641e-08
-8.32425e-08
-2.94097e-08
3.67183e-08
7.21207e-08
-7.94293e-08
-4.41959e-08
5.1027e-08
6.56742e-08
-7.25053e-08
-5.78885e-08
6.40018e-08
5.65869e-08
-6.27002e-08
-6.99932e-08
7.51405e-08
4.48986e-08
-5.00459e-08
-7.99596e-08
8.38851e-08
3.10999e-08
-3.50254e-08
-8.72825e-08
8.97586e-08
1.58767e-08
-1.83529e-08
-9.15358e-08
9.24146e-08
9.387e-11
-9.72627e-10
-9.24412e-08
9.16225e-08
-1.49289e-08
1.57475e-08
-8.99057e-08
8.75265e-08
-2.78585e-08
3.02377e-08
-8.43182e-08
8.06797e-08
-3.77084e-08
4.13469e-08
-7.63219e-08
7.17862e-08
-4.41752e-08
4.87109e-08
-6.67067e-08
6.16843e-08
-4.74759e-08
5.24983e-08
-5.62773e-08
5.10963e-08
-4.82785e-08
5.34595e-08
-4.56607e-08
4.0559e-08
-4.72093e-08
5.2311e-08
-3.52888e-08
3.04051e-08
-4.49699e-08
4.98536e-08
-2.5422e-08
2.08465e-08
-4.20006e-08
4.65762e-08
-1.62139e-08
1.19921e-08
-3.8668e-08
4.28898e-08
-7.742e-09
3.89626e-09
-3.51869e-08
3.90326e-08
-1.73443e-08
1.87058e-08
-1.3615e-09
3.08273e-09
-4.61664e-09
-1.78021e-08
1.9336e-08
6.44157e-09
-8.41606e-09
-2.25999e-08
2.45744e-08
1.08096e-08
-1.34324e-08
-2.94353e-08
3.20581e-08
1.65244e-08
-1.96863e-08
-3.40587e-08
3.72206e-08
2.30441e-08
-2.59445e-08
-2.89366e-08
3.1837e-08
2.83708e-08
-2.97742e-08
-1.00444e-08
1.14478e-08
3.00363e-08
-2.88839e-08
1.98329e-08
-2.09853e-08
2.60997e-08
-2.19494e-08
5.28231e-08
-5.69734e-08
1.61688e-08
-9.63544e-09
7.80634e-08
-8.45967e-08
2.03127e-09
5.5608e-09
8.96008e-08
-9.71929e-08
-1.36327e-08
2.12887e-08
9.08414e-08
-9.84974e-08
-2.92342e-08
3.66212e-08
8.67743e-08
-9.41613e-08
-4.41978e-08
5.11451e-08
7.93953e-08
-8.63425e-08
-5.81751e-08
6.44949e-08
6.89184e-08
-7.52382e-08
-7.07002e-08
7.61354e-08
5.53379e-08
-6.07731e-08
-8.12613e-08
8.55249e-08
3.91132e-08
-4.33768e-08
-8.92939e-08
9.21854e-08
2.10055e-08
-2.3897e-08
-9.44105e-08
9.56808e-08
2.01791e-09
-3.28826e-09
-9.60884e-08
9.56042e-08
-1.64291e-08
1.69133e-08
-9.41588e-08
9.19465e-08
-3.25373e-08
3.47496e-08
-8.88147e-08
8.51595e-08
-4.50052e-08
4.86604e-08
-8.0696e-08
7.60026e-08
-5.3323e-08
5.80164e-08
-7.06815e-08
6.5395e-08
-5.76441e-08
6.29306e-08
-5.9677e-08
5.41977e-08
-5.87824e-08
6.42617e-08
-4.84406e-08
4.30434e-08
-5.75562e-08
6.29535e-08
-3.74614e-08
3.22889e-08
-5.48744e-08
6.00469e-08
-2.70043e-08
2.21503e-08
-5.12836e-08
5.61376e-08
-1.72307e-08
1.27444e-08
-4.72361e-08
5.17223e-08
-8.226e-09
4.13685e-09
-4.29938e-08
4.70829e-08
-2.00577e-08
2.13988e-08
-1.34114e-09
3.06844e-09
-4.58203e-09
-2.086e-08
2.23736e-08
6.39068e-09
-8.34911e-09
-2.65414e-08
2.84998e-08
1.07275e-08
-1.33483e-08
-3.46802e-08
3.73009e-08
1.64568e-08
-1.96657e-08
-4.0405e-08
4.36138e-08
2.31119e-08
-2.61225e-08
-3.47904e-08
3.78011e-08
2.86858e-08
-3.02349e-08
-1.29211e-08
1.44702e-08
3.06568e-08
-2.96345e-08
2.20756e-08
-2.30978e-08
2.69485e-08
-2.28256e-08
6.11107e-08
-6.52337e-08
1.69991e-08
-1.03652e-08
9.11774e-08
-9.78113e-08
2.62837e-09
5.08385e-09
1.04814e-07
-1.12526e-07
-1.32832e-08
2.09951e-08
1.06211e-07
-1.13923e-07
-2.90185e-08
3.64856e-08
1.01588e-07
-1.09055e-07
-4.41696e-08
5.12578e-08
9.33614e-08
-1.0045e-07
-5.84631e-08
6.50008e-08
8.16637e-08
-8.82014e-08
-7.15e-08
7.72322e-08
6.63461e-08
-7.20783e-08
-8.27255e-08
8.73841e-08
4.78305e-08
-5.24891e-08
-9.16206e-08
9.49901e-08
2.70243e-08
-3.03938e-08
-9.77445e-08
9.95336e-08
4.80375e-09
-6.59288e-09
-1.0047e-07
1.00393e-07
-1.72177e-08
1.72948e-08
-9.93048e-08
9.73232e-08
-3.68521e-08
3.88337e-08
-9.43221e-08
9.06706e-08
-5.23087e-08
5.59602e-08
-8.61058e-08
8.11979e-08
-6.28177e-08
6.77256e-08
-7.55701e-08
6.99323e-08
-6.83822e-08
7.402e-08
-6.38217e-08
5.79583e-08
-6.99231e-08
7.57864e-08
-5.18115e-08
4.60493e-08
-6.85274e-08
7.42896e-08
-4.01003e-08
3.4581e-08
-6.53824e-08
7.09017e-08
-2.89386e-08
2.37442e-08
-6.11547e-08
6.63491e-08
-1.84734e-08
1.36626e-08
-5.6361e-08
6.11718e-08
-8.81635e-09
4.43006e-09
-5.13143e-08
5.57006e-08
-2.27284e-08
2.4046e-08
-1.31758e-09
3.05176e-09
-4.54189e-09
-2.38759e-08
2.53661e-08
6.33148e-09
-8.271e-09
-3.0449e-08
3.23885e-08
1.06305e-08
-1.32482e-08
-3.992e-08
4.25377e-08
1.63739e-08
-1.96352e-08
-4.68483e-08
5.01096e-08
2.31832e-08
-2.63208e-08
-4.08732e-08
4.40108e-08
2.90419e-08
-3.07601e-08
-1.61009e-08
1.78191e-08
3.13705e-08
-3.05023e-08
2.40461e-08
-2.49144e-08
2.79358e-08
-2.38475e-08
6.93403e-08
-7.34285e-08
1.7967e-08
-1.12122e-08
1.04503e-07
-1.11258e-07
3.31626e-09
4.53817e-09
1.20278e-07
-1.28132e-07
-1.28347e-08
2.06653e-08
1.217e-07
-1.29531e-07
-2.87546e-08
3.63074e-08
1.16566e-07
-1.24118e-07
-4.41024e-08
5.13331e-08
1.07608e-07
-1.14839e-07
-5.87373e-08
6.55148e-08
9.48603e-08
-1.01638e-07
-7.23294e-08
7.84136e-08
7.79811e-08
-8.40652e-08
-8.43233e-08
8.94391e-08
5.73679e-08
-6.24836e-08
-9.41873e-08
9.81212e-08
3.40397e-08
-3.79737e-08
-1.01561e-07
1.03997e-07
8.68782e-09
-1.11239e-08
-1.05574e-07
1.06047e-07
-1.7106e-08
1.66325e-08
-1.05437e-07
1.03777e-07
-4.06592e-08
4.23188e-08
-1.00978e-07
9.73638e-08
-5.95836e-08
6.31975e-08
-9.26898e-08
8.75276e-08
-7.27543e-08
7.79165e-08
-8.14935e-08
7.53907e-08
-7.98702e-08
8.5973e-08
-6.87544e-08
6.24063e-08
-8.18727e-08
8.82209e-08
-5.5782e-08
4.96007e-08
-8.0252e-08
8.64334e-08
-4.32301e-08
3.73271e-08
-7.66091e-08
8.25121e-08
-3.1278e-08
2.56736e-08
-7.17302e-08
7.73346e-08
-1.99468e-08
1.47266e-08
-6.61638e-08
7.1384e-08
-9.49225e-09
4.76746e-09
-6.02698e-08
6.49946e-08
-2.53507e-08
2.66415e-08
-1.29077e-09
3.03336e-09
-4.497e-09
-2.68435e-08
2.83071e-08
6.26493e-09
-8.18311e-09
-3.4318e-08
3.62362e-08
1.05203e-08
-1.31337e-08
-4.51537e-08
4.77671e-08
1.62773e-08
-1.95965e-08
-5.33994e-08
5.67186e-08
2.32606e-08
-2.65427e-08
-4.72185e-08
5.05005e-08
2.94429e-08
-3.13544e-08
-1.9631e-08
2.15425e-08
3.2184e-08
-3.14954e-08
2.5696e-08
-2.63847e-08
2.90721e-08
-2.50271e-08
7.74966e-08
-8.15416e-08
1.90828e-08
-1.21823e-08
1.18083e-07
-1.24983e-07
4.09542e-09
3.92705e-09
1.36038e-07
-1.4406e-07
-1.23524e-08
2.02662e-08
1.37394e-07
-1.45308e-07
-2.84686e-08
3.60888e-08
1.31714e-07
-1.39334e-07
-4.39955e-08
5.13741e-08
1.22141e-07
-1.29519e-07
-5.89916e-08
6.60341e-08
1.08542e-07
-1.15585e-07
-7.31817e-08
7.96701e-08
9.03423e-08
-9.68306e-08
-8.60358e-08
9.168e-08
6.78547e-08
-7.34989e-08
-9.69615e-08
1.01614e-07
4.22553e-08
-4.69084e-08
-1.05802e-07
1.09057e-07
1.39185e-08
-1.71728e-08
-1.11459e-07
1.1266e-07
-1.57993e-08
1.4599e-08
-1.12676e-07
1.11459e-07
-4.37717e-08
4.49881e-08
-1.08981e-07
1.05468e-07
-6.67522e-08
7.02654e-08
-1.00705e-07
9.52369e-08
-8.32264e-08
8.86944e-08
-8.86551e-08
8.18948e-08
-9.23739e-08
9.91342e-08
-7.45319e-08
6.75347e-08
-9.48706e-08
1.01868e-07
-6.03454e-08
5.36887e-08
-9.28206e-08
9.94773e-08
-4.68373e-08
4.05446e-08
-8.86351e-08
9.49278e-08
-3.40899e-08
2.79759e-08
-8.31145e-08
8.92286e-08
-2.15939e-08
1.57758e-08
-7.67727e-08
8.25908e-08
-1.00625e-08
5.02257e-09
-7.00217e-08
7.50616e-08
-2.79177e-08
2.91785e-08
-1.26079e-09
3.01283e-09
-4.4468e-09
-2.97561e-08
3.11901e-08
6.19021e-09
-8.08395e-09
-3.81424e-08
4.00361e-08
1.03945e-08
-1.30018e-08
-5.03775e-08
5.29848e-08
1.61626e-08
-1.95442e-08
-6.00681e-08
6.34497e-08
2.33379e-08
-2.67816e-08
-5.38611e-08
5.73047e-08
2.98818e-08
-3.2011e-08
-2.35598e-08
2.5689e-08
3.30927e-08
-3.26113e-08
2.69733e-08
-2.74547e-08
3.03598e-08
-2.63686e-08
8.55609e-08
-8.95521e-08
2.03513e-08
-1.3278e-08
1.31966e-07
-1.39039e-07
4.96474e-09
3.22765e-09
1.52148e-07
-1.60341e-07
-1.18247e-08
1.98346e-08
1.53267e-07
-1.61277e-07
-2.80943e-08
3.58099e-08
1.47013e-07
-1.54729e-07
-4.38334e-08
5.13653e-08
1.36972e-07
-1.44504e-07
-5.91924e-08
6.65149e-08
1.22766e-07
-1.30088e-07
-7.40423e-08
8.09651e-08
1.03512e-07
-1.10435e-07
-8.78068e-08
9.40637e-08
7.9437e-08
-8.56939e-08
-9.98451e-08
1.05349e-07
5.19639e-08
-5.74677e-08
-1.10468e-07
1.14686e-07
2.08561e-08
-2.50747e-08
-1.18116e-07
1.20277e-07
-1.29614e-08
1.08004e-08
-1.2113e-07
1.20514e-07
-4.59255e-08
4.65409e-08
-1.18545e-07
1.15246e-07
-7.36854e-08
7.69836e-08
-1.10471e-07
1.04684e-07
-9.43291e-08
1.00116e-07
-9.73209e-08
8.96005e-08
-1.06334e-07
1.14055e-07
-8.11069e-08
7.32215e-08
-1.0927e-07
1.17155e-07
-6.54223e-08
5.82508e-08
-1.06222e-07
1.13394e-07
-5.07459e-08
4.33576e-08
-1.01281e-07
1.08669e-07
-3.57609e-08
2.94125e-08
-9.55883e-08
1.01937e-07
-2.30252e-08
1.65365e-08
-8.83828e-08
9.48715e-08
-9.82324e-09
4.4993e-09
-8.07659e-08
8.60898e-08
-3.04231e-08
3.16505e-08
-1.22742e-09
2.99034e-09
-4.39134e-09
-3.26083e-08
3.40093e-08
6.10714e-09
-7.97373e-09
-4.19166e-08
4.37832e-08
1.02526e-08
-1.28516e-08
-5.55882e-08
5.81873e-08
1.60281e-08
-1.94761e-08
-6.68643e-08
7.03124e-08
2.34131e-08
-2.70355e-08
-6.08356e-08
6.4458e-08
3.03565e-08
-3.2728e-08
-2.79362e-08
3.03077e-08
3.40977e-08
-3.38531e-08
2.78215e-08
-2.80661e-08
3.18064e-08
-2.78826e-08
9.35115e-08
-9.74352e-08
2.17822e-08
-1.45047e-08
1.4621e-07
-1.53488e-07
5.9229e-09
2.4921e-09
1.68663e-07
-1.77078e-07
-1.12553e-08
1.93619e-08
1.69312e-07
-1.77418e-07
-2.76839e-08
3.5473e-08
1.62488e-07
-1.70277e-07
-4.35949e-08
5.12658e-08
1.52104e-07
-1.59774e-07
-5.93173e-08
6.69302e-08
1.37556e-07
-1.45169e-07
-7.48436e-08
8.22662e-08
1.17597e-07
-1.2502e-07
-8.96025e-08
9.65708e-08
9.22954e-08
-9.92638e-08
-1.02691e-07
1.09278e-07
6.34776e-08
-7.00651e-08
-1.15413e-07
1.2084e-07
2.98592e-08
-3.52871e-08
-1.25558e-07
1.28987e-07
-8.05561e-09
4.6262e-09
-1.30924e-07
1.31125e-07
-4.67748e-08
4.65732e-08
-1.30027e-07
1.27072e-07
-8.01385e-08
8.30937e-08
-1.22491e-07
1.16552e-07
-1.06007e-07
1.11946e-07
-1.08089e-07
9.89003e-08
-1.22485e-07
1.31674e-07
-8.83753e-08
7.93277e-08
-1.25645e-07
1.34692e-07
-7.10287e-08
6.38778e-08
-1.20447e-07
1.27598e-07
-5.58484e-08
4.58083e-08
-1.13023e-07
1.23063e-07
-3.57936e-08
2.99369e-08
-1.09939e-07
1.15796e-07
-2.46985e-08
1.83867e-08
-1.02029e-07
1.08341e-07
-1.10764e-08
5.11584e-09
-9.27705e-08
9.87311e-08
-3.28598e-08
3.40502e-08
-1.19037e-09
2.96656e-09
-4.3316e-09
-3.53926e-08
3.67576e-08
6.01702e-09
-7.85367e-09
-4.56354e-08
4.74721e-08
1.0096e-08
-1.26847e-08
-6.07817e-08
6.33704e-08
1.58749e-08
-1.93933e-08
-7.37952e-08
7.73136e-08
2.34882e-08
-2.73074e-08
-6.81768e-08
7.1996e-08
3.08701e-08
-3.35091e-08
-3.28101e-08
3.54491e-08
3.52062e-08
-3.523e-08
2.81806e-08
-2.81568e-08
3.34272e-08
-2.95867e-08
1.0132e-07
-1.0516e-07
2.33915e-08
-1.58712e-08
1.60882e-07
-1.68402e-07
6.96892e-09
1.74087e-09
1.85625e-07
-1.94335e-07
-1.06535e-08
1.88575e-08
1.85543e-07
-1.93747e-07
-2.72262e-08
3.50782e-08
1.78075e-07
-1.85927e-07
-4.3287e-08
5.10921e-08
1.67505e-07
-1.75311e-07
-5.93512e-08
6.7258e-08
1.52929e-07
-1.60836e-07
-7.55848e-08
8.35595e-08
1.32706e-07
-1.40681e-07
-9.13812e-08
9.9257e-08
1.06667e-07
-1.14543e-07
-1.05317e-07
1.13426e-07
7.73573e-08
-8.54661e-08
-1.20553e-07
1.27467e-07
4.14007e-08
-4.8314e-08
-1.33871e-07
1.3906e-07
-3.94753e-10
-4.794e-09
-1.42386e-07
1.4377e-07
-4.58427e-08
4.44584e-08
-1.44032e-07
1.41623e-07
-8.58435e-08
8.82527e-08
-1.37202e-07
1.31928e-07
-1.17535e-07
1.2281e-07
-1.22181e-07
1.10844e-07
-1.4186e-07
1.53197e-07
-9.68077e-08
8.75252e-08
-1.44287e-07
1.53569e-07
-7.89846e-08
7.27328e-08
-1.35164e-07
1.41416e-07
-6.83366e-08
6.53597e-08
-1.2954e-07
1.32517e-07
-5.88534e-08
4.93422e-08
-1.25111e-07
1.34623e-07
-3.86665e-08
2.85859e-08
-1.16443e-07
1.26523e-07
-1.80257e-08
8.68571e-09
-1.04673e-07
1.14012e-07
-3.52209e-08
3.63709e-08
-1.14993e-09
2.94125e-09
-4.26699e-09
-3.81036e-08
3.94294e-08
5.91874e-09
-7.72289e-09
-4.92926e-08
5.10967e-08
9.92205e-09
-1.24977e-08
-6.59525e-08
6.85282e-08
1.5698e-08
-1.9289e-08
-8.0868e-08
8.4459e-08
2.35568e-08
-2.75899e-08
-7.59197e-08
7.99528e-08
3.14141e-08
-3.43454e-08
-3.82309e-08
4.11621e-08
3.64134e-08
-3.67386e-08
2.79868e-08
-2.76616e-08
3.52273e-08
-3.14907e-08
1.08951e-07
-1.12688e-07
2.51896e-08
-1.73821e-08
1.7606e-07
-1.83867e-07
8.10003e-09
8.89993e-10
2.03165e-07
-2.12155e-07
-1.0026e-08
1.83215e-08
2.01955e-07
-2.1025e-07
-2.67139e-08
3.46088e-08
1.93786e-07
-2.01681e-07
-4.28888e-08
5.08101e-08
1.83174e-07
-1.91095e-07
-5.92563e-08
6.74546e-08
1.68883e-07
-1.77082e-07
-7.61839e-08
8.47878e-08
1.4896e-07
-1.57564e-07
-9.31231e-08
1.02095e-07
1.22942e-07
-1.31914e-07
-1.07526e-07
1.17677e-07
9.45243e-08
-1.04676e-07
-1.25781e-07
1.34649e-07
5.61198e-08
-6.4988e-08
-1.43553e-07
1.51438e-07
1.11631e-08
-1.90484e-08
-1.56426e-07
1.60098e-07
-4.2161e-08
3.84888e-08
-1.62514e-07
1.60322e-07
-9.07892e-08
9.29812e-08
-1.54411e-07
1.52829e-07
-1.26795e-07
1.28378e-07
-1.39738e-07
1.22352e-07
-1.65174e-07
1.8256e-07
-1.05683e-07
9.37022e-08
-1.64874e-07
1.76854e-07
-8.67433e-08
8.20398e-08
-1.45347e-07
1.50051e-07
-7.2178e-08
6.05587e-08
-1.34708e-07
1.46327e-07
-5.0707e-08
4.17711e-08
-1.4565e-07
1.54586e-07
-3.19231e-08
2.36569e-08
-1.37807e-07
1.46073e-07
-1.55781e-08
8.19777e-09
-1.23346e-07
1.30726e-07
-3.74989e-08
3.86044e-08
-1.10549e-09
2.91458e-09
-4.19765e-09
-4.0734e-08
4.20171e-08
5.81235e-09
-7.58125e-09
-5.28837e-08
5.46526e-08
9.73019e-09
-1.229e-08
-7.10964e-08
7.36562e-08
1.54953e-08
-1.91602e-08
-8.80868e-08
9.17517e-08
2.36165e-08
-2.78806e-08
-8.40994e-08
8.83636e-08
3.19853e-08
-3.52325e-08
-4.42488e-08
4.74961e-08
3.77198e-08
-3.83816e-08
2.71724e-08
-2.65105e-08
3.72191e-08
-3.36115e-08
1.16364e-07
-1.19971e-07
2.71941e-08
-1.90464e-08
1.91838e-07
-1.99985e-07
9.31052e-09
3.79261e-11
2.21325e-07
-2.30673e-07
-9.38895e-09
1.77455e-08
2.18532e-07
-2.26889e-07
-2.61423e-08
3.4054e-08
2.09574e-07
-2.17485e-07
-4.23891e-08
5.04037e-08
1.99066e-07
-2.07081e-07
-5.90038e-08
6.74784e-08
1.85388e-07
-1.93863e-07
-7.65938e-08
8.58827e-08
1.66504e-07
-1.75793e-07
-9.49226e-08
1.05127e-07
1.41495e-07
-1.51699e-07
-1.09258e-07
1.21939e-07
1.16056e-07
-1.28738e-07
-1.31631e-07
1.43672e-07
7.5183e-08
-8.72241e-08
-1.5699e-07
1.68601e-07
2.88218e-08
-4.04332e-08
-1.75096e-07
1.8445e-07
-3.22226e-08
2.28687e-08
-1.84537e-07
1.89612e-07
-9.55334e-08
9.04583e-08
-1.87216e-07
1.66193e-07
-1.29019e-07
1.50042e-07
-1.46888e-07
1.37106e-07
-2.04584e-07
2.14365e-07
-1.43402e-07
1.32459e-07
-1.84163e-07
1.95106e-07
-1.11236e-07
8.74952e-08
-1.63031e-07
1.86772e-07
-6.83706e-08
5.23556e-08
-1.63439e-07
1.79454e-07
-3.94611e-08
2.94184e-08
-1.60924e-07
1.70967e-07
-2.2851e-08
1.64507e-08
-1.51114e-07
1.57514e-07
-1.03371e-08
5.11858e-09
-1.3633e-07
1.41549e-07
-3.96864e-08
4.07435e-08
-1.05713e-09
2.8875e-09
-4.12479e-09
-4.32779e-08
4.45152e-08
5.69911e-09
-7.43064e-09
-5.6403e-08
5.81346e-08
9.5213e-09
-1.20626e-08
-7.62071e-08
7.87484e-08
1.5267e-08
-1.90062e-08
-9.54539e-08
9.91932e-08
2.36689e-08
-2.81827e-08
-9.27504e-08
9.72642e-08
3.25857e-08
-3.61719e-08
-5.091e-08
5.44962e-08
3.91333e-08
-4.01668e-08
2.56671e-08
-2.46336e-08
3.94235e-08
-3.59762e-08
1.23503e-07
-1.2695e-07
2.94305e-08
-2.08779e-08
2.08327e-07
-2.1688e-07
1.05956e-08
-8.16751e-10
2.40228e-07
-2.50006e-07
-8.76198e-09
1.71532e-08
2.35225e-07
-2.43616e-07
-2.55147e-08
3.34162e-08
2.25383e-07
-2.33284e-07
-4.17882e-08
4.98677e-08
2.15142e-07
-2.23221e-07
-5.85774e-08
6.72723e-08
2.02416e-07
-2.11111e-07
-7.67567e-08
8.67271e-08
1.85422e-07
-1.95393e-07
-9.70206e-08
1.08481e-07
1.6255e-07
-1.7401e-07
-1.11154e-07
1.27694e-07
1.42884e-07
-1.59425e-07
-1.43315e-07
1.60377e-07
1.01818e-07
-1.1888e-07
-1.77622e-07
1.88444e-07
5.25259e-08
-6.33481e-08
-1.95434e-07
2.02134e-07
-1.41268e-08
7.42689e-09
-2.08844e-07
2.11704e-07
-8.30525e-08
8.01923e-08
-2.11821e-07
2.29155e-07
-1.68301e-07
1.50967e-07
-2.02208e-07
2.09377e-07
-2.08051e-07
2.00882e-07
-2.1128e-07
1.66184e-07
-2.28127e-07
2.73223e-07
-1.47819e-07
1.30964e-07
-2.06003e-07
2.22858e-07
-9.77877e-08
8.73248e-08
-1.93983e-07
2.04446e-07
-5.59927e-08
5.02118e-08
-1.8147e-07
1.87251e-07
-2.84156e-08
2.30446e-08
-1.64745e-07
1.70116e-07
-1.03958e-08
5.87597e-09
-1.46679e-07
1.51199e-07
-4.1775e-08
4.27796e-08
-1.00463e-09
2.85969e-09
-4.0476e-09
-4.57281e-08
4.6916e-08
5.57793e-09
-7.27013e-09
-5.98466e-08
6.15388e-08
9.29294e-09
-1.18127e-08
-8.12793e-08
8.37991e-08
1.50076e-08
-1.88196e-08
-1.02969e-07
1.06781e-07
2.37071e-08
-2.84891e-08
-1.01909e-07
1.06691e-07
3.32056e-08
-3.715e-08
-5.82591e-08
6.22035e-08
4.06484e-08
-4.2087e-08
2.34016e-08
-2.19629e-08
4.18505e-08
-3.86031e-08
1.30303e-07
-1.3355e-07
3.19207e-08
-2.28864e-08
2.25662e-07
-2.34696e-07
1.19457e-08
-1.65317e-09
2.6003e-07
-2.70322e-07
-8.16838e-09
1.65412e-08
2.5198e-07
-2.60353e-07
-2.48249e-08
3.269e-08
2.41174e-07
-2.49039e-07
-4.10958e-08
4.92141e-08
2.31324e-07
-2.39442e-07
-5.79534e-08
6.67603e-08
2.19861e-07
-2.28668e-07
-7.65494e-08
8.70461e-08
2.05617e-07
-2.16114e-07
-9.98944e-08
1.10997e-07
1.85834e-07
-1.96937e-07
-1.17937e-07
1.55798e-07
1.82182e-07
-2.20043e-07
-1.81426e-07
1.80441e-07
1.33492e-07
-1.32507e-07
-1.84516e-07
1.81332e-07
6.92825e-08
-6.60985e-08
-1.64443e-07
1.68874e-07
-8.94309e-09
4.51188e-09
-2.50273e-07
4.22051e-07
-2.50467e-08
-1.46731e-07
-2.75118e-07
4.06231e-07
-1.87564e-07
5.64507e-08
-3.86124e-07
3.91694e-07
-2.46955e-07
2.41385e-07
-4.13029e-07
4.44792e-07
-3.48339e-07
3.16576e-07
-4.21274e-07
4.48584e-07
-2.91425e-07
2.64114e-07
-4.07567e-07
3.90025e-07
-2.65669e-07
2.83211e-07
-3.28462e-07
2.83785e-07
-2.30048e-07
2.74724e-07
-2.16087e-07
1.66337e-07
-1.99073e-07
2.48823e-07
-1.02387e-07
4.96003e-08
-1.67649e-07
2.20435e-07
-4.37564e-08
4.47041e-08
-9.47709e-10
2.83164e-09
-3.96672e-09
-4.8078e-08
4.92131e-08
5.44896e-09
-7.10038e-09
-6.32108e-08
6.48622e-08
9.04404e-09
-1.15396e-08
-8.63072e-08
8.88028e-08
1.47142e-08
-1.85954e-08
-1.10628e-07
1.14509e-07
2.37282e-08
-2.87981e-08
-1.11615e-07
1.16685e-07
3.384e-08
-3.8158e-08
-6.63333e-08
7.06513e-08
4.22656e-08
-4.41373e-08
2.0311e-08
-1.84393e-08
4.45183e-08
-4.15206e-08
1.3668e-07
-1.39677e-07
3.46956e-08
-2.50881e-08
2.44005e-07
-2.53612e-07
1.33504e-08
-2.44173e-09
2.80909e-07
-2.91818e-07
-7.64171e-09
1.59375e-08
2.6869e-07
-2.76986e-07
-2.407e-08
3.18958e-08
2.56847e-07
-2.64672e-07
-4.0208e-08
4.83369e-08
2.47564e-07
-2.55693e-07
-5.70705e-08
6.59544e-08
2.37534e-07
-2.46418e-07
-7.57887e-08
8.68101e-08
2.26748e-07
-2.3777e-07
-1.02936e-07
1.03108e-07
2.04311e-07
-2.04484e-07
-1.52637e-07
2.30043e-07
2.8178e-07
-3.59185e-07
-2.2122e-07
1.49046e-07
1.00219e-07
-2.80451e-08
-1.00186e-07
7.20921e-08
2.39971e-08
4.09721e-09
-1.98553e-07
4.66576e-07
9.0378e-08
-3.58401e-07
-4.86266e-07
5.46348e-07
2.25173e-07
-2.85255e-07
-6.68443e-07
7.22873e-07
-1.30796e-07
7.63651e-08
-7.02423e-07
6.70909e-07
-2.9232e-07
3.23834e-07
-5.89859e-07
5.38089e-07
-3.40562e-07
3.92332e-07
-4.67582e-07
4.01009e-07
-3.20472e-07
3.87045e-07
-3.41349e-07
2.94243e-07
-3.31373e-07
3.78479e-07
-2.49144e-07
2.08313e-07
-3.22607e-07
3.63438e-07
-1.64147e-07
1.22259e-07
-2.96714e-07
3.38602e-07
-7.70772e-08
3.47793e-08
-2.68318e-07
3.10616e-07
-4.56216e-08
4.65077e-08
-8.86115e-10
2.80417e-09
-3.88283e-09
-5.03205e-08
5.13991e-08
5.31313e-09
-6.92361e-09
-6.64931e-08
6.81035e-08
8.77524e-09
-1.12447e-08
-9.12856e-08
9.3755e-08
1.43865e-08
-1.83317e-08
-1.18423e-07
1.22369e-07
2.37334e-08
-2.91134e-08
-1.21907e-07
1.27287e-07
3.44894e-08
-3.91903e-08
-7.51601e-08
7.98611e-08
4.39929e-08
-4.63143e-08
1.63432e-08
-1.40217e-08
4.74565e-08
-4.47702e-08
1.42528e-07
-1.45215e-07
3.78004e-08
-2.75074e-08
2.63548e-07
-2.73841e-07
1.47982e-08
-3.14564e-09
3.03081e-07
-3.14734e-07
-7.20301e-09
1.53581e-08
2.85218e-07
-2.93373e-07
-2.32489e-08
3.09292e-08
2.72412e-07
-2.80092e-07
-3.92339e-08
4.73813e-08
2.63827e-07
-2.71975e-07
-5.59871e-08
6.48539e-08
2.55304e-07
-2.64171e-07
-7.41734e-08
8.7759e-08
2.49766e-07
-2.63351e-07
-9.20065e-08
1.34476e-07
2.0866e-07
-2.5113e-07
-2.24465e-07
2.03932e-07
4.15205e-07
-3.94672e-07
-1.27975e-07
4.46155e-08
-7.49964e-08
1.58356e-07
-1.09084e-07
4.32048e-07
1.02272e-07
-4.25236e-07
-7.68513e-07
8.3769e-07
5.28508e-07
-5.97685e-07
-7.56617e-07
6.21285e-07
2.48562e-07
-1.1323e-07
-5.54845e-07
5.01576e-07
-7.09018e-08
1.2417e-07
-4.49735e-07
4.16698e-07
-3.54507e-07
3.87543e-07
-3.76466e-07
3.4984e-07
-4.34521e-07
4.61146e-07
-3.1715e-07
2.97137e-07
-4.28164e-07
4.48176e-07
-2.65085e-07
2.30051e-07
-4.17901e-07
4.52935e-07
-1.95619e-07
1.63196e-07
-4.0047e-07
4.32893e-07
-1.28128e-07
9.43808e-08
-3.76799e-07
4.10546e-07
-5.85003e-08
2.48124e-08
-3.48769e-07
3.82457e-07
-4.73613e-08
4.8181e-08
-8.19651e-10
2.77735e-09
-3.79583e-09
-5.2448e-08
5.34665e-08
5.16952e-09
-6.73964e-09
-6.96939e-08
7.1264e-08
8.48377e-09
-1.09253e-08
-9.62106e-08
9.86522e-08
1.40183e-08
-1.80188e-08
-1.26342e-07
1.30343e-07
2.37153e-08
-2.94291e-08
-1.3283e-07
1.38544e-07
3.51407e-08
-4.0232e-08
-8.47559e-08
8.98472e-08
4.5822e-08
-4.85895e-08
1.14762e-08
-8.70868e-09
5.06815e-08
-4.83851e-08
1.47717e-07
-1.50013e-07
4.1277e-08
-3.01657e-08
2.84524e-07
-2.95635e-07
1.62689e-08
-3.71424e-09
3.26814e-07
-3.39369e-07
-6.9212e-09
1.48149e-08
3.01409e-07
-3.09303e-07
-2.23617e-08
2.99138e-08
2.87717e-07
-2.95269e-07
-3.81339e-08
4.62663e-08
2.80111e-07
-2.88243e-07
-5.46822e-08
6.33445e-08
2.72975e-07
-2.81637e-07
-7.30826e-08
8.61739e-08
2.77804e-07
-2.90896e-07
-8.79275e-08
1.57763e-07
3.36324e-07
-4.0616e-07
-1.65038e-07
-2.8661e-09
2.27878e-07
-5.99741e-08
-1.36507e-08
4.1985e-07
6.51061e-08
-4.71306e-07
-8.57553e-07
1.01868e-06
8.75743e-07
-1.03687e-06
-9.16916e-07
7.91853e-07
5.18908e-07
-3.93845e-07
-6.58451e-07
5.18654e-07
-4.72016e-08
1.86999e-07
-3.93148e-07
2.96827e-07
-2.13173e-07
3.09494e-07
-2.24901e-07
1.90985e-07
-4.22923e-07
4.56839e-07
-1.80716e-07
1.79835e-07
-4.68774e-07
4.69654e-07
-1.7065e-07
1.34398e-07
-4.78717e-07
5.14969e-07
-1.16562e-07
1.12426e-07
-4.72682e-07
4.76818e-07
-1.04429e-07
9.17474e-08
-4.56046e-07
4.68727e-07
-7.39906e-08
5.45077e-08
-4.3781e-07
4.57293e-07
-3.26991e-08
1.17799e-08
-4.1052e-07
4.31439e-07