/*--------------------------------*- C++ -*----------------------------------*\
| =========                 |                                                 |
| \\      /  F ield         | OpenFOAM: The Open Source CFD Toolbox           |
|  \\    /   O peration     | Version:  2.4.0                                 |
|   \\  /    A nd           | Web:      www.OpenFOAM.org                      |
|    \\/     M anipulation  |                                                 |
\*---------------------------------------------------------------------------*/
FoamFile
{
    version     2.0;
    format      ascii;
    class       surfaceScalarField;
    location    "0.193";
    object      phi;
}
// * * * * * * * * * * * * * * * * * * * * * * * * * * * * * * * * * * * * * //

dimensions      [0 3 -1 0 0 0 0];

internalField   nonuniform List<scalar> 
114720
(
1.18046e-09
-3.82312e-09
-2.59391e-09
5.23657e-09
-3.69979e-09
5.24276e-09
4.43766e-10
-1.98673e-09
-1.18493e-08
1.47322e-08
1.30098e-09
-4.18394e-09
-2.0619e-08
2.14433e-08
2.80057e-10
-1.10435e-09
-2.11016e-08
2.01701e-08
-5.6095e-10
1.49241e-09
-1.49546e-08
1.26505e-08
-1.15205e-09
3.45614e-09
-4.60682e-09
2.07604e-09
-1.00295e-09
3.53373e-09
4.88293e-09
-6.57433e-09
-4.41319e-10
2.13272e-09
9.97474e-09
-1.04316e-08
7.55572e-11
3.81329e-10
1.03152e-08
-9.88382e-09
3.71996e-10
-8.03385e-10
7.68358e-09
-6.78776e-09
4.9003e-10
-1.38585e-09
3.61743e-09
-2.57276e-09
5.02166e-10
-1.54684e-09
-5.90567e-10
1.50736e-09
4.17455e-10
-1.33424e-09
-4.0102e-09
4.66889e-09
2.88843e-10
-9.47541e-10
-6.33535e-09
6.73884e-09
1.68342e-10
-5.71834e-10
-7.66581e-09
7.8616e-09
7.21077e-11
-2.67904e-10
-8.22614e-09
8.27095e-09
2.66011e-12
-4.74761e-11
-8.22483e-09
8.15734e-09
-4.82834e-11
1.15774e-10
-7.80711e-09
7.65952e-09
-8.42958e-11
2.3188e-10
-7.10488e-09
6.90727e-09
-1.06826e-10
3.04438e-10
-6.23738e-09
6.01541e-09
-1.1814e-10
3.40108e-10
-5.29893e-09
5.07009e-09
-1.21202e-10
3.50043e-10
-4.35075e-09
4.1254e-09
-1.19393e-10
3.44741e-10
-3.42584e-09
3.20904e-09
-1.14681e-10
3.31481e-10
-2.5402e-09
2.33404e-09
-1.08606e-10
3.14765e-10
-1.70281e-09
1.50956e-09
-1.01361e-10
2.94607e-10
-9.22002e-10
7.43516e-10
-9.33225e-11
2.71809e-10
-2.05275e-10
4.30002e-11
-8.47495e-11
2.47024e-10
4.42758e-10
-5.88123e-10
-7.61112e-11
2.21476e-10
1.0213e-09
-1.14998e-09
-6.77353e-11
1.96421e-10
-4.47714e-09
-9.39451e-09
7.77519e-09
6.09645e-09
-1.25656e-08
5.82111e-09
1.49563e-08
-8.21181e-09
-3.16981e-08
1.57678e-08
3.66156e-08
-2.06853e-08
-4.68472e-08
3.85165e-09
4.87068e-08
-5.71119e-09
-5.06076e-08
-5.51717e-09
5.0011e-08
6.11385e-09
-4.44291e-08
-1.31011e-08
4.15518e-08
1.59784e-08
-3.04448e-08
-1.50897e-08
2.63589e-08
1.91757e-08
-1.35973e-08
-1.14315e-08
9.65615e-09
1.53726e-08
3.38286e-10
-4.68551e-09
-2.81945e-09
7.16668e-09
7.94353e-09
6.30826e-10
-8.88145e-09
3.07097e-10
9.88415e-09
3.83113e-09
-9.71643e-09
-3.99885e-09
8.26477e-09
4.88625e-09
-7.60477e-09
-5.54625e-09
5.40854e-09
4.33175e-09
-4.68741e-09
-5.05288e-09
2.60709e-09
3.17992e-09
-1.98111e-09
-3.80589e-09
2.74346e-10
2.0371e-09
2.1081e-10
-2.52225e-09
-1.47707e-09
1.10488e-09
1.82034e-09
-1.44815e-09
-2.66055e-09
3.92748e-10
2.86627e-09
-5.98467e-10
-3.29282e-09
-1.70067e-10
3.36994e-09
9.29517e-11
-3.44052e-09
-5.78607e-10
3.41677e-09
6.02353e-10
-3.23377e-09
-8.3034e-10
3.14486e-09
9.19248e-10
-2.81105e-09
-9.53375e-10
2.68648e-09
1.07795e-09
-2.27542e-09
-9.92726e-10
2.13337e-09
1.13477e-09
-1.68385e-09
-9.89533e-10
1.53249e-09
1.14089e-09
-1.05961e-09
-9.67912e-10
9.01705e-10
1.12581e-09
-4.12162e-10
-9.34912e-10
2.50241e-10
1.09683e-09
2.45243e-10
-8.88081e-10
-4.06643e-10
1.04948e-09
8.91889e-10
-8.2653e-10
-1.0469e-09
9.81539e-10
1.5031e-09
-7.52211e-10
-1.64597e-09
8.9509e-10
2.05866e-09
-6.71636e-10
-2.18572e-09
7.98702e-10
2.54716e-09
-5.8874e-10
-2.65679e-09
6.98369e-10
-4.11449e-09
-1.4631e-08
1.34741e-08
5.27139e-09
-1.12293e-08
1.57281e-08
1.37397e-08
-1.82385e-08
-3.14273e-08
3.62737e-08
3.67372e-08
-4.15836e-08
-4.82507e-08
1.22806e-08
5.05817e-08
-1.46117e-08
-5.41307e-08
-6.69133e-09
5.41524e-08
6.66961e-09
-5.06055e-08
-2.33327e-08
4.84353e-08
2.55029e-08
-3.96265e-08
-3.0163e-08
3.63401e-08
3.34495e-08
-2.58508e-08
-2.65264e-08
2.25053e-08
2.9872e-08
-1.36454e-08
-1.48727e-08
1.12929e-08
1.72252e-08
-5.93104e-09
-4.00014e-09
4.72729e-09
5.20389e-09
-2.39291e-09
3.2343e-09
1.97308e-09
-2.81447e-09
-1.36683e-09
6.18686e-09
1.31994e-09
-6.13997e-09
-1.4534e-09
6.13191e-09
1.5681e-09
-6.2466e-09
-2.09456e-09
5.0067e-09
2.31411e-09
-5.22625e-09
-3.04741e-09
3.62937e-09
3.28699e-09
-3.86895e-09
-3.94309e-09
2.30208e-09
4.11941e-09
-2.4784e-09
-4.5039e-09
1.10531e-09
4.57379e-09
-1.17521e-09
-4.6193e-09
6.10856e-11
4.58329e-09
-2.50757e-11
-4.34455e-09
-7.21745e-10
4.23189e-09
8.34398e-10
-3.81417e-09
-1.20783e-09
3.65974e-09
1.36226e-09
-3.15698e-09
-1.45349e-09
2.98631e-09
1.62416e-09
-2.45824e-09
-1.55071e-09
2.28471e-09
1.72424e-09
-1.75625e-09
-1.57963e-09
1.58368e-09
1.7522e-09
-1.05689e-09
-1.58403e-09
8.8408e-10
1.75684e-09
-3.5376e-10
-1.57129e-09
1.79492e-10
1.74556e-09
3.52468e-10
-1.52768e-09
-5.25527e-10
1.70074e-09
1.04571e-09
-1.44424e-09
-1.21186e-09
1.61039e-09
1.70031e-09
-1.32227e-09
-1.85276e-09
1.47473e-09
2.29116e-09
-1.17743e-09
-2.42545e-09
1.31172e-09
2.80462e-09
-1.0223e-09
-2.91855e-09
1.13623e-09
-4.17695e-09
-1.8732e-08
1.77641e-08
5.14484e-09
-1.03263e-08
2.56941e-08
1.27844e-08
-2.81523e-08
-3.0889e-08
5.76366e-08
3.62786e-08
-6.30261e-08
-4.78534e-08
2.16746e-08
5.02087e-08
-2.40299e-08
-5.39086e-08
-6.4358e-09
5.40025e-08
6.34189e-09
-5.07154e-08
-3.17395e-08
4.86549e-08
3.38e-08
-4.03426e-08
-4.2762e-08
3.73149e-08
4.57897e-08
-2.78174e-08
-3.91204e-08
2.48739e-08
4.20639e-08
-1.74084e-08
-2.34577e-08
1.55316e-08
2.53345e-08
-1.1548e-08
-8.20432e-09
1.07433e-08
9.00904e-09
-9.37218e-09
1.77988e-09
9.16607e-09
-1.57377e-09
-8.91907e-09
5.9107e-09
8.90788e-09
-5.89951e-09
-8.94864e-09
6.34253e-09
8.97358e-09
-6.36746e-09
-9.06195e-09
5.54424e-09
9.08968e-09
-5.57197e-09
-9.1319e-09
4.19878e-09
9.12044e-09
-4.18732e-09
-8.96729e-09
2.59526e-09
8.87305e-09
-2.50102e-09
-8.44577e-09
9.91842e-10
8.26246e-09
-8.08533e-10
-7.58908e-09
-4.25457e-10
7.3371e-09
6.77444e-10
-6.49997e-09
-1.4557e-09
6.21044e-09
1.74524e-09
-5.30532e-09
-2.05529e-09
5.00782e-09
2.3528e-09
-4.11367e-09
-2.31947e-09
3.82906e-09
2.60408e-09
-2.99418e-09
-2.38569e-09
2.73323e-09
2.64664e-09
-1.97489e-09
-2.37384e-09
1.73885e-09
2.60988e-09
-1.05176e-09
-2.34753e-09
8.36845e-10
2.56244e-09
-2.06627e-10
-2.31552e-09
8.21587e-12
2.51394e-09
5.74858e-10
-2.24861e-09
-7.58242e-10
2.43199e-09
1.29387e-09
-2.12438e-09
-1.46048e-09
2.291e-09
1.93967e-09
-1.93855e-09
-2.08628e-09
2.08516e-09
2.49954e-09
-1.71423e-09
-2.6237e-09
1.83839e-09
2.9684e-09
-1.47334e-09
-3.07023e-09
1.57517e-09
-4.50084e-09
-2.23084e-08
2.14595e-08
5.34976e-09
-9.85691e-09
3.54315e-08
1.22469e-08
-3.78215e-08
-3.09162e-08
7.93363e-08
3.64078e-08
-8.4828e-08
-4.80044e-08
3.10831e-08
5.03522e-08
-3.34309e-08
-5.40765e-08
-6.04374e-09
5.41846e-08
5.93567e-09
-5.08577e-08
-4.00373e-08
4.8755e-08
4.214e-08
-4.0284e-08
-5.48538e-08
3.72546e-08
5.78831e-08
-2.76533e-08
-5.08328e-08
2.4707e-08
5.37791e-08
-1.74365e-08
-3.06946e-08
1.56861e-08
3.2445e-08
-1.22267e-08
-1.10452e-08
1.16256e-08
1.16462e-08
-1.09474e-08
1.36464e-09
1.0985e-08
-1.40221e-09
-1.14719e-08
6.20064e-09
1.1679e-08
-6.40777e-09
-1.22308e-08
6.57279e-09
1.23517e-08
-6.69361e-09
-1.24701e-08
5.52044e-09
1.24245e-08
-5.47484e-09
-1.20583e-08
3.86164e-09
1.18751e-08
-3.67845e-09
-1.11638e-08
1.90746e-09
1.08901e-08
-1.63384e-09
-9.96006e-09
-2.90063e-12
9.63041e-09
3.32549e-10
-8.56324e-09
-1.63909e-09
8.19805e-09
2.00428e-09
-7.05165e-09
-2.77698e-09
6.67112e-09
3.1575e-09
-5.5109e-09
-3.37939e-09
5.13714e-09
3.75314e-09
-4.03164e-09
-3.56665e-09
3.68407e-09
3.91421e-09
-2.67631e-09
-3.51476e-09
2.36533e-09
3.82574e-09
-1.47584e-09
-3.37805e-09
1.20427e-09
3.64962e-09
-4.32878e-10
-3.2402e-09
1.98585e-10
3.47449e-09
4.64733e-10
-3.11453e-09
-6.65542e-10
3.31534e-09
1.23192e-09
-2.9634e-09
-1.40256e-09
3.13404e-09
1.88069e-09
-2.75456e-09
-2.02336e-09
2.89723e-09
2.41794e-09
-2.47768e-09
-2.53393e-09
2.59368e-09
2.84939e-09
-2.15998e-09
-2.94056e-09
2.25115e-09
3.1838e-09
-1.82971e-09
-3.25269e-09
1.89861e-09
-4.98661e-09
-2.53359e-08
2.46412e-08
5.68134e-09
-9.36532e-09
4.48599e-08
1.16615e-08
-4.71561e-08
-3.10747e-08
1.01497e-07
3.67013e-08
-1.07124e-07
-4.83372e-08
4.04671e-08
5.06799e-08
-4.28098e-08
-5.44565e-08
-5.56925e-09
5.45958e-08
5.42992e-09
-5.12579e-08
-4.85207e-08
4.91066e-08
5.0672e-08
-4.04002e-08
-6.69915e-08
3.7365e-08
7.00267e-08
-2.74305e-08
-6.27699e-08
2.43755e-08
6.58249e-08
-1.69131e-08
-3.77042e-08
1.51465e-08
3.94708e-08
-1.17584e-08
-1.33445e-08
1.12129e-08
1.389e-08
-1.07942e-08
1.71792e-09
1.09481e-08
-1.87174e-09
-1.18601e-08
7.27626e-09
1.22141e-08
-7.63029e-09
-1.31533e-08
7.19902e-09
1.33618e-08
-7.40747e-09
-1.35848e-08
5.30062e-09
1.35217e-08
-5.23759e-09
-1.29939e-08
2.99433e-09
1.27381e-08
-2.73855e-09
-1.18053e-08
6.8933e-10
1.14674e-08
-3.51496e-10
-1.03778e-08
-1.40573e-09
1.00067e-08
1.77686e-09
-8.83206e-09
-3.16301e-09
8.43465e-09
3.56042e-09
-7.18924e-09
-4.35881e-09
6.77516e-09
4.77289e-09
-5.51244e-09
-4.93347e-09
5.1046e-09
5.34131e-09
-3.89573e-09
-5.01068e-09
3.51587e-09
5.39054e-09
-2.41706e-09
-4.80375e-09
2.0791e-09
5.14171e-09
-1.1175e-09
-4.49773e-09
8.26097e-10
4.78913e-09
-6.71106e-12
-4.1962e-09
-2.38998e-10
4.44191e-09
9.23883e-10
-3.92105e-09
-1.12753e-09
4.1247e-09
1.69114e-09
-3.63556e-09
-1.85763e-09
3.80205e-09
2.31528e-09
-3.30502e-09
-2.44919e-09
3.43893e-09
2.81232e-09
-2.91576e-09
-2.9168e-09
3.02025e-09
3.19351e-09
-2.49493e-09
-3.27083e-09
2.57225e-09
3.46839e-09
-2.07379e-09
-3.52118e-09
2.12658e-09
-5.63222e-09
-2.75887e-08
2.71138e-08
6.10711e-09
-8.75476e-09
5.38691e-08
1.0927e-08
-5.60413e-08
-3.1294e-08
1.2424e-07
3.70839e-08
-1.3003e-07
-4.8757e-08
4.98288e-08
5.10932e-08
-5.21649e-08
-5.49379e-08
-4.94886e-09
5.51219e-08
4.76482e-09
-5.17918e-08
-5.72056e-08
4.95852e-08
5.94122e-08
-4.05907e-08
-7.90843e-08
3.76021e-08
8.20729e-08
-2.72501e-08
-7.51849e-08
2.40605e-08
7.83745e-08
-1.63367e-08
-4.48283e-08
1.45305e-08
4.66345e-08
-1.11384e-08
-1.54853e-08
1.06203e-08
1.60035e-08
-1.03493e-08
2.43894e-09
1.0571e-08
-2.66063e-09
-1.17346e-08
8.83458e-09
1.21772e-08
-9.27714e-09
-1.33557e-08
8.12508e-09
1.36215e-08
-8.39086e-09
-1.39355e-08
5.05228e-09
1.38773e-08
-4.9941e-09
-1.33179e-08
1.93601e-09
1.30448e-08
-1.66286e-09
-1.20659e-08
-6.84272e-10
1.1719e-08
1.03125e-09
-1.06213e-08
-2.89504e-09
1.02513e-08
3.26504e-09
-9.0746e-09
-4.7645e-09
8.67172e-09
5.16737e-09
-7.39134e-09
-6.04224e-09
6.9602e-09
6.47338e-09
-5.6332e-09
-6.60026e-09
5.20204e-09
7.03141e-09
-3.92071e-09
-6.56499e-09
3.51829e-09
6.96741e-09
-2.35674e-09
-6.18353e-09
2.00114e-09
6.53913e-09
-9.95746e-10
-5.68192e-09
6.93216e-10
5.98445e-09
1.51528e-10
-5.18958e-09
-4.03321e-10
5.44137e-09
1.10344e-09
-4.7426e-09
-1.31178e-09
4.95094e-09
1.89214e-09
-4.30947e-09
-2.06558e-09
4.48291e-09
2.55079e-09
-3.85247e-09
-2.69604e-09
3.99773e-09
3.09916e-09
-3.34789e-09
-3.21785e-09
3.46658e-09
3.53695e-09
-2.81539e-09
-3.62673e-09
2.90518e-09
3.85197e-09
-2.2868e-09
-3.90981e-09
2.34464e-09
-6.47335e-09
-2.8753e-08
2.85847e-08
6.64163e-09
-7.9981e-09
6.23286e-08
1.00087e-08
-6.43392e-08
-3.15664e-08
1.47673e-07
3.7544e-08
-1.5365e-07
-4.92368e-08
5.91594e-08
5.15631e-08
-6.14856e-08
-5.54868e-08
-4.12972e-09
5.57293e-08
3.8872e-09
-5.24227e-08
-6.61283e-08
5.01489e-08
6.8402e-08
-4.07815e-08
-9.08628e-08
3.79357e-08
9.37086e-08
-2.70484e-08
-8.81721e-08
2.37007e-08
9.15199e-08
-1.56799e-08
-5.21163e-08
1.38305e-08
5.39658e-08
-1.04446e-08
-1.75104e-08
9.96008e-09
1.7995e-08
-9.85558e-09
3.42664e-09
1.0147e-08
-3.71805e-09
-1.15469e-08
1.07203e-08
1.20676e-08
-1.1241e-08
-1.34504e-08
9.26079e-09
1.37647e-08
-9.57514e-09
-1.41623e-08
4.83428e-09
1.4114e-08
-4.78599e-09
-1.35563e-08
8.3797e-10
1.32799e-08
-5.61534e-10
-1.22979e-08
-2.06633e-09
1.19553e-08
2.40892e-09
-1.08889e-08
-4.35766e-09
1.0532e-08
4.71458e-09
-9.38339e-09
-6.37454e-09
8.98207e-09
6.77586e-09
-7.67712e-09
-7.7906e-09
7.22972e-09
8.238e-09
-5.83635e-09
-8.36078e-09
5.38039e-09
8.81674e-09
-4.02361e-09
-8.2086e-09
3.59781e-09
8.6344e-09
-2.37519e-09
-7.62931e-09
2.00371e-09
8.00078e-09
-9.63349e-10
-6.90335e-09
6.53574e-10
7.21312e-09
2.03471e-10
-6.20078e-09
-4.57177e-10
6.45448e-09
1.16232e-09
-5.58144e-09
-1.37353e-09
5.79265e-09
1.97235e-09
-5.01911e-09
-2.15622e-09
5.20297e-09
2.69073e-09
-4.46492e-09
-2.85809e-09
4.63228e-09
3.34676e-09
-3.86747e-09
-3.49837e-09
4.01908e-09
3.92409e-09
-3.21932e-09
-4.04822e-09
3.34344e-09
4.36263e-09
-2.54415e-09
-4.44105e-09
2.62257e-09
-7.56061e-09
-2.84086e-08
2.86644e-08
7.30479e-09
-7.08017e-09
7.00745e-08
8.88185e-09
-7.18762e-08
-3.19162e-08
1.71894e-07
3.81054e-08
-1.78084e-07
-4.9793e-08
6.8446e-08
5.21061e-08
-7.07591e-08
-5.61199e-08
-3.05237e-09
5.64378e-08
2.73443e-09
-5.31751e-08
-7.53424e-08
5.08184e-08
7.76991e-08
-4.09563e-08
-1.01859e-07
3.84076e-08
1.04408e-07
-2.68147e-08
-1.01834e-07
2.32813e-08
1.05367e-07
-1.49178e-08
-5.9586e-08
1.3019e-08
6.14849e-08
-9.65305e-09
-1.93874e-08
9.21116e-09
1.98293e-08
-9.31103e-09
4.71279e-09
9.68574e-09
-5.08751e-09
-1.13628e-08
1.29332e-08
1.19738e-08
-1.35442e-08
-1.35912e-08
1.0597e-08
1.39601e-08
-1.09659e-08
-1.44457e-08
4.65391e-09
1.44051e-08
-4.6133e-09
-1.38375e-08
-2.76579e-10
1.35535e-08
5.60641e-10
-1.25582e-08
-3.43045e-09
1.2219e-08
3.76968e-09
-1.11935e-08
-5.75829e-09
1.08564e-08
6.09536e-09
-9.75684e-09
-7.97346e-09
9.36069e-09
8.36961e-09
-8.03097e-09
-9.60847e-09
7.56395e-09
1.00755e-08
-6.08849e-09
-1.02285e-08
5.60177e-09
1.07152e-08
-4.15031e-09
-9.95321e-09
3.6952e-09
1.04083e-08
-2.39636e-09
-9.14271e-09
2.00553e-09
9.53355e-09
-9.25228e-10
-8.15247e-09
6.08587e-10
8.46911e-09
2.53709e-10
-7.21374e-09
-5.05195e-10
7.46522e-09
1.19853e-09
-6.42382e-09
-1.406e-09
6.63129e-09
2.00155e-09
-5.76416e-09
-2.18877e-09
5.95138e-09
2.75341e-09
-5.16635e-09
-2.93836e-09
5.3513e-09
3.50781e-09
-4.53114e-09
-3.69466e-09
4.71799e-09
4.25087e-09
-3.78658e-09
-4.42211e-09
3.95782e-09
4.8713e-09
-2.90479e-09
-4.98385e-09
3.01735e-09
-8.96181e-09
-2.59785e-08
2.68208e-08
8.11951e-09
-5.97699e-09
7.6899e-08
7.51002e-09
-7.8432e-08
-3.23594e-08
1.9699e-07
3.87769e-08
-2.03408e-07
-5.04242e-08
7.7675e-08
5.2721e-08
-7.99718e-08
-5.68338e-08
-1.64303e-09
5.72484e-08
1.22841e-09
-5.40607e-08
-8.49174e-08
5.16e-08
8.73781e-08
-4.1089e-08
-1.11363e-07
3.90507e-08
1.13401e-07
-2.65336e-08
-1.16275e-07
2.27912e-08
1.20017e-07
-1.40359e-08
-6.72658e-08
1.20784e-08
6.92232e-08
-8.74673e-09
-2.10813e-08
8.35552e-09
2.14725e-08
-8.69629e-09
6.35355e-09
9.16849e-09
-6.82575e-09
-1.11751e-08
1.55355e-08
1.18959e-08
-1.62564e-08
-1.38029e-08
1.21685e-08
1.42387e-08
-1.26043e-08
-1.48215e-08
4.49734e-09
1.47835e-08
-4.45929e-09
-1.41775e-08
-1.4361e-09
1.38755e-08
1.73816e-09
-1.28407e-08
-4.78732e-09
1.25003e-08
5.12779e-09
-1.15243e-08
-7.06515e-09
1.12177e-08
7.37181e-09
-1.01998e-08
-9.54419e-09
9.81423e-09
9.92972e-09
-8.45694e-09
-1.15117e-08
7.96524e-09
1.20034e-08
-6.38583e-09
-1.22316e-08
5.85942e-09
1.2758e-08
-4.28189e-09
-1.18287e-08
3.78772e-09
1.23229e-08
-2.3867e-09
-1.07427e-08
1.96963e-09
1.11598e-08
-8.35894e-10
-9.43084e-09
5.10982e-10
9.75576e-09
3.50529e-10
-8.20999e-09
-5.94205e-10
8.45366e-09
1.24646e-09
-7.23282e-09
-1.43639e-09
7.42274e-09
1.97223e-09
-6.49277e-09
-2.13916e-09
6.65971e-09
2.64413e-09
-5.89636e-09
-2.81148e-09
6.06371e-09
3.33733e-09
-5.28773e-09
-3.51433e-09
5.46473e-09
4.0562e-09
-4.50391e-09
-4.22736e-09
4.67507e-09
4.68737e-09
-3.40167e-09
-4.80742e-09
3.52172e-09
-1.07657e-08
-2.06619e-08
2.2316e-08
9.11158e-09
-4.65537e-09
8.25416e-08
5.84531e-09
-8.37315e-08
-3.29013e-08
2.23009e-07
3.95523e-08
-2.2966e-07
-5.11107e-08
8.68329e-08
5.33876e-08
-8.91098e-08
-5.76031e-08
1.91061e-10
5.8141e-08
-7.29003e-10
-5.50759e-08
-9.49496e-08
5.24809e-08
9.75446e-08
-4.11439e-08
-1.18444e-07
3.98813e-08
1.19706e-07
-2.61742e-08
-1.31571e-07
2.22141e-08
1.35531e-07
-1.30189e-08
-7.51972e-08
1.09904e-08
7.72257e-08
-7.71332e-09
-2.25613e-08
7.38e-09
2.28946e-08
-7.99778e-09
8.40457e-09
8.58091e-09
-8.98771e-09
-1.09718e-08
1.86097e-08
1.18248e-08
-1.94627e-08
-1.40887e-08
1.40301e-08
1.46071e-08
-1.45485e-08
-1.5297e-08
4.34032e-09
1.52538e-08
-4.29713e-09
-1.45721e-08
-2.68703e-09
1.42384e-08
3.02068e-09
-1.31284e-08
-6.1593e-09
1.27791e-08
6.50856e-09
-1.18645e-08
-8.22688e-09
1.16055e-08
8.48585e-09
-1.07262e-08
-1.10606e-08
1.03603e-08
1.14265e-08
-8.97078e-09
-1.3524e-08
8.44656e-09
1.40483e-08
-6.73126e-09
-1.44103e-08
6.15289e-09
1.49887e-08
-4.41259e-09
-1.38781e-08
3.86654e-09
1.44241e-08
-2.32559e-09
-1.2463e-08
1.87155e-09
1.29171e-08
-6.62341e-10
-1.07464e-08
3.25744e-10
1.1083e-08
5.30214e-10
-9.16471e-09
-7.59168e-10
9.39366e-09
1.33091e-09
-7.94335e-09
-1.48384e-09
8.09628e-09
1.87785e-09
-7.08815e-09
-1.98943e-09
7.19973e-09
2.29921e-09
-6.47227e-09
-2.39418e-09
6.56724e-09
2.67396e-09
-5.88205e-09
-2.76227e-09
5.97035e-09
3.00797e-09
-5.04562e-09
-3.07449e-09
5.11214e-09
3.20393e-09
-3.69488e-09
-3.21939e-09
3.71034e-09
-1.30895e-08
-1.13525e-08
1.4129e-08
1.03131e-08
-3.08047e-09
8.66886e-08
3.83479e-09
-8.7443e-08
-3.35679e-08
2.49969e-07
4.04557e-08
-2.56856e-07
-5.18678e-08
9.59094e-08
5.41237e-08
-9.81654e-08
-5.84413e-08
2.5669e-09
5.91365e-08
-3.2621e-09
-5.62619e-08
-1.05586e-07
5.34834e-08
1.08365e-07
-4.11135e-08
-1.21951e-07
4.09579e-08
1.22106e-07
-2.57233e-08
-1.47731e-07
2.15534e-08
1.51901e-07
-1.18624e-08
-8.34391e-08
9.7445e-09
8.5557e-08
-6.54833e-09
-2.38007e-08
6.27874e-09
2.40703e-08
-7.21127e-09
1.09192e-08
7.91835e-09
-1.16263e-08
-1.07521e-08
2.22497e-08
1.17626e-08
-2.32602e-08
-1.44655e-08
1.62499e-08
1.50859e-08
-1.68703e-08
-1.5892e-08
4.14754e-09
1.58328e-08
-4.08834e-09
-1.50269e-08
-4.08771e-09
1.46453e-08
4.46924e-09
-1.34113e-08
-7.58452e-09
1.30397e-08
7.95612e-09
-1.21961e-08
-9.15937e-09
1.20137e-08
9.34175e-09
-1.13715e-08
-1.24804e-08
1.10379e-08
1.2814e-08
-9.6012e-09
-1.56832e-08
9.03256e-09
1.62518e-08
-7.13996e-09
-1.68188e-08
6.4951e-09
1.74636e-08
-4.54128e-09
-1.616e-08
3.92578e-09
1.67755e-08
-2.19187e-09
-1.43512e-08
1.68605e-09
1.4857e-08
-3.64924e-10
-1.21178e-08
9.76071e-12
1.24729e-08
8.43496e-10
-1.00512e-08
-1.05202e-09
1.02598e-08
1.50483e-09
-8.47634e-09
-1.60153e-09
8.57304e-09
1.77664e-09
-7.41447e-09
-1.80246e-09
7.44029e-09
1.81243e-09
-6.69778e-09
-1.79791e-09
6.68326e-09
1.71383e-09
-6.05489e-09
-1.67617e-09
6.01722e-09
1.55016e-09
-5.17042e-09
-1.51485e-09
5.13511e-09
1.5034e-09
-3.86244e-09
-1.55779e-09
3.91683e-09
-1.60887e-08
3.47084e-09
8.54415e-10
1.17634e-08
-1.31276e-09
8.88102e-08
1.40824e-09
-8.89057e-08
-3.43884e-08
2.77861e-07
4.14921e-08
-2.84964e-07
-5.26855e-08
1.04905e-07
5.49233e-08
-1.07143e-07
-5.93323e-08
5.63321e-09
6.02277e-08
-6.52863e-09
-5.7641e-08
-1.17057e-07
5.46081e-08
1.2009e-07
-4.09612e-08
-1.20422e-07
4.23384e-08
1.19045e-07
-2.51619e-08
-1.6471e-07
2.07944e-08
1.69078e-07
-1.05532e-08
-9.20693e-08
8.32611e-09
9.42964e-08
-5.2407e-09
-2.47768e-08
5.0409e-09
2.49766e-08
-6.32835e-09
1.39481e-08
7.17141e-09
-1.47912e-08
-1.05091e-08
2.65619e-08
1.17059e-08
-2.77587e-08
-1.49492e-08
1.89135e-08
1.56969e-08
-1.96611e-08
-1.66264e-08
3.8691e-09
1.65356e-08
-3.77829e-09
-1.55426e-08
-5.70888e-09
1.50935e-08
6.15801e-09
-1.36715e-08
-9.13176e-09
1.32526e-08
9.55067e-09
-1.24738e-08
-9.72135e-09
1.24162e-08
9.77895e-09
-1.21904e-08
-1.37486e-08
1.19043e-08
1.40348e-08
-1.03781e-08
-1.80446e-08
9.74705e-09
1.86756e-08
-7.62815e-09
-1.95184e-08
6.89942e-09
2.02471e-08
-4.67045e-09
-1.87531e-08
3.96218e-09
1.94613e-08
-1.96238e-09
-1.64797e-08
1.3808e-09
1.70613e-08
1.10141e-10
-1.35808e-08
-4.97245e-10
1.39679e-08
1.36606e-09
-1.08519e-08
-1.55262e-09
1.10385e-08
1.86058e-09
-8.75983e-09
-1.88638e-09
8.78563e-09
1.78348e-09
-7.35897e-09
-1.70052e-09
7.27601e-09
1.33338e-09
-6.43983e-09
-1.18294e-09
6.28938e-09
6.56219e-10
-5.6782e-09
-4.67559e-10
5.48954e-09
-1.25799e-10
-4.78551e-09
3.16696e-10
4.59462e-09
-8.61244e-10
-3.7185e-09
1.03086e-09
3.54889e-09
-1.99763e-08
2.59082e-08
-1.94404e-08
1.35085e-08
6.99913e-10
8.78039e-08
-1.5376e-09
-8.69663e-08
-3.54269e-08
3.06514e-07
4.26678e-08
-3.13755e-07
-5.35585e-08
1.13839e-07
5.57886e-08
-1.1607e-07
-6.02634e-08
9.57695e-09
6.14122e-08
-1.07258e-08
-5.92652e-08
-1.29686e-07
5.58693e-08
1.33082e-07
-4.06395e-08
-1.12008e-07
4.40757e-08
1.08572e-07
-2.44587e-08
-1.82481e-07
1.98869e-08
1.87053e-07
-9.07577e-09
-1.0116e-07
6.72591e-09
1.03509e-07
-3.7734e-09
-2.54564e-08
3.65893e-09
2.55709e-08
-5.34085e-09
1.75369e-08
6.33009e-09
-1.85262e-08
-1.02347e-08
3.1667e-08
1.16505e-08
-3.30827e-08
-1.55629e-08
2.21339e-08
1.64722e-08
-2.30432e-08
-1.75292e-08
3.43249e-09
1.73837e-08
-3.28703e-09
-1.61212e-08
-7.63249e-09
1.55827e-08
8.171e-09
-1.38941e-08
-1.09274e-08
1.33831e-08
1.14385e-08
-1.26049e-08
-9.67583e-09
1.27535e-08
9.52726e-09
-1.32965e-08
-1.48056e-08
1.3069e-08
1.50331e-08
-1.13307e-08
-2.0693e-08
1.06101e-08
2.14136e-08
-8.21604e-09
-2.25806e-08
7.38564e-09
2.3411e-08
-4.81168e-09
-2.176e-08
3.98047e-09
2.25913e-08
-1.61151e-09
-1.8957e-08
9.1971e-10
1.96488e-08
8.33049e-10
-1.52027e-08
-1.27541e-09
1.56451e-08
2.20411e-09
-1.15709e-08
-2.37443e-09
1.17412e-08
2.53653e-09
-8.75141e-09
-2.48835e-09
8.70323e-09
2.10463e-09
-6.86391e-09
-1.91718e-09
6.67647e-09
1.21179e-09
-5.6508e-09
-9.48089e-10
5.3871e-09
8.27295e-11
-4.73958e-09
2.11345e-10
4.44551e-09
-1.1017e-09
-3.88068e-09
1.38233e-09
3.60005e-09
-2.19155e-09
-3.07297e-09
2.45159e-09
2.81293e-09
-2.50483e-08
5.89469e-08
-4.94824e-08
1.55838e-08
3.17719e-09
8.28181e-08
-5.19078e-09
-8.08045e-08
-3.67197e-08
3.35553e-07
4.39845e-08
-3.42818e-07
-5.44795e-08
1.22775e-07
5.67265e-08
-1.25022e-07
-6.12182e-08
1.46273e-08
6.26854e-08
-1.60945e-08
-6.12646e-08
-1.44103e-07
5.72138e-08
1.48154e-07
-4.00647e-08
-9.43379e-08
4.63434e-08
8.80592e-08
-2.35336e-08
-2.01098e-07
1.87415e-08
2.0589e-07
-7.40725e-09
-1.10749e-07
4.93085e-09
1.13226e-07
-2.12222e-09
-2.57382e-08
2.13898e-09
2.57214e-08
-4.23948e-09
2.17224e-08
5.38206e-09
-2.2865e-08
-9.91637e-09
3.77013e-08
1.15876e-08
-3.93725e-08
-1.63364e-08
2.60699e-08
1.74573e-08
-2.71908e-08
-1.86386e-08
2.73034e-09
1.84043e-08
-2.496e-09
-1.67628e-08
-9.94662e-09
1.61132e-08
1.05962e-08
-1.40795e-08
-1.31944e-08
1.34004e-08
1.38734e-08
-1.24095e-08
-8.60795e-09
1.29208e-08
8.09666e-09
-1.4973e-08
-1.56592e-08
1.47587e-08
1.58735e-08
-1.24576e-08
-2.37518e-08
1.1613e-08
2.45965e-08
-8.93318e-09
-2.60725e-08
7.98726e-09
2.70185e-08
-4.99302e-09
-2.53139e-08
4.00004e-09
2.63068e-08
-1.11887e-09
-2.19437e-08
2.67455e-10
2.27951e-08
1.89056e-09
-1.70975e-08
-2.42622e-09
1.76332e-08
3.48998e-09
-1.22403e-08
-3.65473e-09
1.24051e-08
3.67407e-09
-8.44717e-09
-3.54947e-09
8.32257e-09
2.8988e-09
-5.98154e-09
-2.62496e-09
5.7077e-09
1.69493e-09
-4.4967e-09
-1.37541e-09
4.17718e-09
3.99879e-10
-3.51086e-09
-8.80287e-11
3.19901e-09
-8.18164e-10
-2.72326e-09
1.09687e-09
2.44456e-09
-1.88623e-09
-2.01095e-09
2.1242e-09
1.77297e-09
-3.17672e-08
1.0702e-07
-9.32693e-08
1.80161e-08
5.99454e-09
7.2462e-08
-9.66284e-09
-6.87937e-08
-3.82931e-08
3.64487e-07
4.54431e-08
-3.71637e-07
-5.54467e-08
1.3184e-07
5.77588e-08
-1.34152e-07
-6.21823e-08
2.10698e-08
6.40521e-08
-2.29396e-08
-6.38285e-08
-1.62074e-07
5.84104e-08
1.67492e-07
-3.94882e-08
-6.31057e-08
5.03799e-08
5.2214e-08
-2.22965e-08
-2.20583e-07
1.73011e-08
2.25578e-07
-5.50785e-09
-1.20839e-07
2.91307e-09
1.23433e-07
-2.4097e-10
-2.53711e-08
4.9259e-10
2.51195e-08
-3.01418e-09
2.6527e-08
4.31274e-09
-2.78256e-08
-9.53595e-09
4.48167e-08
1.15029e-08
-4.67836e-08
-1.73098e-08
3.09566e-08
1.87198e-08
-3.23666e-08
-2.00071e-08
1.602e-09
1.96324e-08
-1.22728e-09
-1.74602e-08
-1.27353e-08
1.66798e-08
1.35158e-08
-1.42794e-08
-1.62907e-08
1.33216e-08
1.72485e-08
-1.16515e-08
-5.62715e-09
1.29048e-08
4.37384e-09
-1.77234e-08
-1.67656e-08
1.72549e-08
1.72341e-08
-1.36579e-08
-2.73374e-08
1.26832e-08
2.83121e-08
-9.82863e-09
-3.00337e-08
8.7665e-09
3.10958e-08
-5.27312e-09
-2.95852e-08
4.06949e-09
3.07888e-08
-4.814e-10
-2.56701e-08
-6.00143e-10
2.67517e-08
3.37286e-09
-1.94454e-08
-4.05967e-09
2.01322e-08
5.37323e-09
-1.29066e-08
-5.54658e-09
1.30799e-08
5.40718e-09
-7.81654e-09
-5.19064e-09
7.59999e-09
4.24345e-09
-4.76271e-09
-3.88891e-09
4.40817e-09
2.81773e-09
-3.1902e-09
-2.49087e-09
2.86334e-09
1.60518e-09
-2.32966e-09
-1.35477e-09
2.07925e-09
7.10621e-10
-1.739e-09
-5.37641e-10
1.56602e-09
1.20501e-10
-1.24059e-09
-1.95596e-11
1.13965e-09
-4.09885e-08
1.77215e-07
-1.57037e-07
2.08109e-08
9.18004e-09
5.44914e-08
-1.5241e-08
-4.84304e-08
-4.01448e-08
3.92719e-07
4.70142e-08
-3.99588e-07
-5.64527e-08
1.41271e-07
5.89026e-08
-1.43721e-07
-6.31355e-08
2.92737e-08
6.55112e-08
-3.16494e-08
-6.70105e-08
-1.86782e-07
5.94641e-08
1.94328e-07
-3.9995e-08
-9.00401e-09
5.8595e-08
-9.59601e-09
-2.07169e-08
-2.40833e-07
1.5534e-08
2.46016e-07
-3.35583e-09
-1.31384e-07
6.23257e-10
1.34116e-07
1.80336e-09
-2.40472e-08
-1.33989e-09
2.35837e-08
-1.65194e-09
3.1949e-08
3.10079e-09
-3.33978e-08
-9.06266e-09
5.31773e-08
1.13677e-08
-5.54823e-08
-1.85252e-08
3.71719e-08
2.03549e-08
-3.90016e-08
-2.16946e-08
-1.93805e-10
2.11024e-08
7.86028e-10
-1.81782e-08
-1.60766e-08
1.72456e-08
1.70092e-08
-1.46609e-08
-2.06714e-08
1.33247e-08
2.20077e-08
-1.04724e-08
1.33074e-09
1.31557e-08
-4.01409e-09
-2.0581e-08
-1.94869e-08
1.95497e-08
2.05183e-08
-1.46524e-08
-3.12811e-08
1.37166e-08
3.22168e-08
-1.09922e-08
-3.44301e-08
9.83948e-09
3.55828e-08
-5.77254e-09
-3.47783e-08
4.30628e-09
3.62445e-08
2.08256e-10
-3.04462e-08
-1.60454e-09
3.18425e-08
5.22472e-09
-2.2499e-08
-6.12263e-09
2.33969e-08
7.79366e-09
-1.36313e-08
-7.98525e-09
1.38229e-08
7.65789e-09
-6.79096e-09
-7.33132e-09
6.46439e-09
6.06362e-09
-3.23787e-09
-5.6417e-09
2.81595e-09
4.54961e-09
-1.94573e-09
-4.27721e-09
1.67333e-09
3.70728e-09
-1.51795e-09
-3.59673e-09
1.4074e-09
3.43779e-09
-1.29068e-09
-3.43257e-09
1.28547e-09
3.51943e-09
-1.08485e-09
-3.57494e-09
1.14036e-09
-5.47566e-08
2.82602e-07
-2.51777e-07
2.39316e-08
1.26967e-08
2.53307e-08
-2.23433e-08
-1.56842e-08
-4.22412e-08
4.1956e-07
4.8651e-08
-4.2597e-07
-5.75929e-08
1.5132e-07
6.01871e-08
-1.53914e-07
-6.42429e-08
3.96435e-08
6.72006e-08
-4.26013e-08
-7.09449e-08
-2.20532e-07
6.09583e-08
2.30519e-07
-4.25163e-08
8.00365e-08
7.11351e-08
-1.08655e-07
-1.86219e-08
-2.62007e-07
1.3071e-08
2.67558e-07
-1.16636e-09
-1.4285e-07
-2.02062e-09
1.46037e-07
4.17245e-09
-2.16859e-08
-3.32274e-09
2.08362e-08
-1.1984e-10
3.79633e-08
1.71828e-09
-3.95618e-08
-8.45677e-09
6.2954e-08
1.11412e-08
-6.56385e-08
-2.00304e-08
4.53805e-08
2.2522e-08
-4.78721e-08
-2.37813e-08
-3.01701e-09
2.28582e-08
3.94009e-09
-1.88467e-08
-2.00813e-08
1.77157e-08
2.12123e-08
-1.56283e-08
-2.65476e-08
1.39884e-08
2.81875e-08
-1.00477e-08
1.38398e-08
1.33189e-08
-1.71109e-08
-1.9122e-08
-2.37783e-08
1.82766e-08
2.46237e-08
-1.52832e-08
-3.44203e-08
1.48641e-08
3.48394e-08
-1.26384e-08
-3.91187e-08
1.14456e-08
4.03115e-08
-6.78854e-09
-4.10802e-08
5.0347e-09
4.28341e-08
4.81059e-10
-3.65353e-08
-2.19197e-09
3.82462e-08
6.51337e-09
-2.63441e-08
-7.52494e-09
2.73557e-08
9.22455e-09
-1.43523e-08
-9.35862e-09
1.44864e-08
8.79852e-09
-5.33507e-09
-8.4022e-09
4.93875e-09
7.01452e-09
-1.50867e-09
-6.59957e-09
1.09372e-09
5.70349e-09
-1.01023e-09
-5.55102e-09
8.57753e-10
5.46621e-09
-1.3379e-09
-5.53595e-09
1.40764e-09
5.92652e-09
-1.52405e-09
-6.08795e-09
1.68549e-09
6.60041e-09
-1.47569e-09
-6.76104e-09
1.63632e-09
-8.24655e-08
4.58246e-07
-4.03291e-07
2.75105e-08
1.65297e-08
-2.06273e-08
-3.14786e-08
3.55763e-08
-4.44464e-08
4.44345e-07
5.02786e-08
-4.50177e-07
-5.90309e-08
1.61585e-07
6.1435e-08
-1.63989e-07
-6.61118e-08
5.21946e-08
6.94317e-08
-5.55145e-08
-7.58622e-08
-2.64712e-07
6.29546e-08
2.7762e-07
-5.21224e-08
2.11434e-07
9.31037e-08
-2.52415e-07
-1.54943e-08
-2.85267e-07
9.17469e-09
2.91587e-07
1.05616e-09
-1.56882e-07
-5.09661e-09
1.60922e-07
6.91206e-09
-1.74164e-08
-5.43549e-09
1.59399e-08
1.56913e-09
4.44825e-08
1.23527e-10
-4.61752e-08
-7.67448e-09
7.43035e-08
1.077e-08
-7.7399e-08
-2.18648e-08
5.68527e-08
2.54961e-08
-6.04841e-08
-2.63677e-08
-7.38469e-09
2.4958e-08
8.79438e-09
-1.93966e-08
-2.50298e-08
1.79491e-08
2.64773e-08
-1.78707e-08
-3.30692e-08
1.64046e-08
3.45353e-08
-1.06051e-08
2.35852e-08
1.10992e-08
-2.40793e-08
-1.32971e-08
-2.53247e-08
1.37836e-08
2.48382e-08
-1.64968e-08
-3.4882e-08
1.68651e-08
3.45137e-08
-1.52527e-08
-4.38705e-08
1.40936e-08
4.50296e-08
-9.07561e-09
-4.84434e-08
7.13184e-09
5.03871e-08
-1.12061e-09
-4.35747e-08
-6.40338e-10
4.53356e-08
4.65118e-09
-3.01349e-08
-5.43909e-09
3.09228e-08
6.47811e-09
-1.47007e-08
-6.50362e-09
1.47262e-08
6.1718e-09
-3.96842e-09
-6.00347e-09
3.80009e-09
5.4277e-09
-1.57203e-10
-5.27768e-09
7.18614e-12
5.12953e-09
-7.07911e-10
-5.20586e-09
7.84236e-10
5.79628e-09
-1.92514e-09
-6.07901e-09
2.20786e-09
7.07327e-09
-2.42302e-09
-7.41182e-09
2.76157e-09
8.38494e-09
-2.27879e-09
-8.66817e-09
2.56202e-09
-1.64054e-07
8.47941e-07
-7.1798e-07
3.40924e-08
2.10765e-08
-9.01935e-08
-4.25123e-08
1.11629e-07
-4.63276e-08
4.66933e-07
5.175e-08
-4.72356e-07
-6.03237e-08
1.70337e-07
6.21732e-08
-1.72186e-07
-6.86289e-08
6.48499e-08
7.11861e-08
-6.74071e-08
-8.12024e-08
-3.20602e-07
6.58401e-08
3.35964e-07
-5.65727e-08
4.08015e-07
1.21931e-07
-4.73374e-07
-1.08031e-08
-3.11681e-07
3.8735e-09
3.18611e-07
3.49483e-09
-1.74578e-07
-8.5896e-09
1.79673e-07
9.94665e-09
-1.04092e-08
-7.75747e-09
8.22003e-09
3.55424e-09
5.14299e-08
-1.74155e-09
-5.32425e-08
-6.68764e-09
8.73003e-08
1.01818e-08
-9.07945e-08
-2.40407e-08
7.40927e-08
2.97414e-08
-7.97934e-08
-2.95418e-08
-1.39762e-08
2.74563e-08
1.60618e-08
-2.00606e-08
-3.14427e-08
1.82262e-08
3.32771e-08
-2.20838e-08
-3.76669e-08
2.16703e-08
3.80804e-08
-1.35784e-08
1.98946e-08
1.03948e-08
-1.67109e-08
-1.13934e-08
-2.13173e-08