/*--------------------------------*- C++ -*----------------------------------*\
| =========                 |                                                 |
| \\      /  F ield         | OpenFOAM: The Open Source CFD Toolbox           |
|  \\    /   O peration     | Version:  2.4.0                                 |
|   \\  /    A nd           | Web:      www.OpenFOAM.org                      |
|    \\/     M anipulation  |                                                 |
\*---------------------------------------------------------------------------*/
FoamFile
{
    version     2.0;
    format      ascii;
    class       volVectorField;
    location    "0.258";
    object      U;
}
// * * * * * * * * * * * * * * * * * * * * * * * * * * * * * * * * * * * * * //

dimensions      [0 1 -1 0 0 0 0];

internalField   nonuniform List<vector> 
60000
(
(-0.000166216 1.98601e-05 0)
(-0.000775548 2.31816e-05 0)
(-0.00145892 3.48504e-05 0)
(-0.00217374 4.39729e-05 0)
(-0.00291605 5.46695e-05 0)
(-0.0036902 6.66827e-05 0)
(-0.00449864 7.95574e-05 0)
(-0.00534189 9.26955e-05 0)
(-0.00621845 0.000105521 0)
(-0.00712496 0.000117466 0)
(-0.00805641 0.00012806 0)
(-0.00900645 0.000136938 0)
(-0.0099677 0.000143823 0)
(-0.0109322 0.000148599 0)
(-0.0118917 0.000151141 0)
(-0.0128376 0.000151421 0)
(-0.0137615 0.000149522 0)
(-0.0146553 0.000145544 0)
(-0.0155116 0.000139635 0)
(-0.0163231 0.00013199 0)
(-0.0170836 0.000122797 0)
(-0.017787 0.000112221 0)
(-0.0184282 0.00010044 0)
(-0.0190021 8.76286e-05 0)
(-0.0195046 7.39386e-05 0)
(-0.0199318 5.94853e-05 0)
(-0.0202799 4.41805e-05 0)
(-0.0205452 2.79818e-05 0)
(-0.0207238 1.12665e-05 0)
(-0.0208131 -5.60113e-06 0)
(-0.02081 -2.19374e-05 0)
(-0.0207134 -3.87647e-05 0)
(-0.0205218 -5.58452e-05 0)
(-0.0202329 -7.30764e-05 0)
(-0.0198445 -9.04427e-05 0)
(-0.0193546 -0.000107935 0)
(-0.0187614 -0.000125552 0)
(-0.0180631 -0.000143278 0)
(-0.0172579 -0.000161106 0)
(-0.0163442 -0.00017903 0)
(-0.0153207 -0.000197036 0)
(-0.0141859 -0.000215111 0)
(-0.012939 -0.000233233 0)
(-0.011579 -0.00025137 0)
(-0.0101056 -0.000269469 0)
(-0.00851872 -0.000287478 0)
(-0.00681872 -0.000305322 0)
(-0.00500651 -0.000322933 0)
(-0.0030835 -0.000340254 0)
(-0.00105279 -0.000357389 0)
(0.00108365 -0.000373075 0)
(0.00332326 -0.000388043 0)
(0.00566084 -0.000402119 0)
(0.00809002 -0.000415346 0)
(0.0106056 -0.000427322 0)
(0.0132011 -0.000437532 0)
(0.0158679 -0.000445924 0)
(0.0185979 -0.000452321 0)
(0.0213818 -0.000456905 0)
(0.0242094 -0.000459439 0)
(0.0270704 -0.00045982 0)
(0.0299538 -0.000457906 0)
(0.0328482 -0.000453665 0)
(0.0357425 -0.000447083 0)
(0.0386253 -0.000438259 0)
(0.0414858 -0.000427247 0)
(0.0443136 -0.000414218 0)
(0.0470991 -0.000399402 0)
(0.0498338 -0.00038305 0)
(0.0525105 -0.000365457 0)
(0.0551232 -0.00034696 0)
(0.0576677 -0.000327959 0)
(0.0601413 -0.000308842 0)
(0.0625432 -0.000289951 0)
(0.0648737 -0.000271616 0)
(0.0671347 -0.000254119 0)
(0.0693292 -0.000237673 0)
(0.0714607 -0.000222427 0)
(0.0735334 -0.000208433 0)
(0.0755513 -0.000195644 0)
(0.0775183 -0.000183933 0)
(0.0794374 -0.0001731 0)
(0.0813108 -0.00016288 0)
(0.0831394 -0.000152947 0)
(0.0849227 -0.000142941 0)
(0.0866586 -0.000132518 0)
(0.0883434 -0.000121421 0)
(0.0899723 -0.000109564 0)
(0.0915396 -9.71818e-05 0)
(0.0930407 -8.48996e-05 0)
(0.0944731 -7.36634e-05 0)
(0.0958382 -6.4425e-05 0)
(0.0971412 -5.77872e-05 0)
(0.0983899 -5.36206e-05 0)
(0.0995925 -5.07734e-05 0)
(0.100753 -4.65885e-05 0)
(0.101868 -3.72613e-05 0)
(0.102914 -1.79983e-05 0)
(0.103864 1.29559e-05 0)
(0.104636 5.39054e-05 0)
(-0.000478038 0.00047063 0)
(-0.00202755 0.000665062 0)
(-0.00364773 0.000699775 0)
(-0.00528713 0.000718231 0)
(-0.00693481 0.000738196 0)
(-0.00859339 0.000759897 0)
(-0.0102626 0.000782161 0)
(-0.0119407 0.000803526 0)
(-0.0136245 0.000822613 0)
(-0.0153098 0.00083811 0)
(-0.0169911 0.000848991 0)
(-0.0186623 0.000854463 0)
(-0.0203166 0.000853957 0)
(-0.0219469 0.000847201 0)
(-0.0235454 0.000833969 0)
(-0.0251046 0.00081433 0)
(-0.0266169 0.000788502 0)
(-0.0280751 0.000756766 0)
(-0.0294722 0.000719519 0)
(-0.0308014 0.000677199 0)
(-0.0320564 0.000630215 0)
(-0.0332309 0.000578945 0)
(-0.0343193 0.000523776 0)
(-0.0353158 0.000465054 0)
(-0.0362151 0.000403081 0)
(-0.0370119 0.000338098 0)
(-0.0377011 0.000270173 0)
(-0.0382786 0.000199406 0)
(-0.0387403 0.000126117 0)
(-0.0390802 5.05767e-05 0)
(-0.0392927 -2.68886e-05 0)
(-0.0393713 -0.000107126 0)
(-0.039313 -0.000189087 0)
(-0.0391133 -0.000272796 0)
(-0.038768 -0.000358355 0)
(-0.0382727 -0.000445708 0)
(-0.0376234 -0.000534786 0)
(-0.0368162 -0.000625507 0)
(-0.0358475 -0.000717777 0)
(-0.0347139 -0.000811464 0)
(-0.0334124 -0.000906425 0)
(-0.0319404 -0.00100247 0)
(-0.0302959 -0.00109938 0)
(-0.0284771 -0.00119686 0)
(-0.0264832 -0.00129461 0)
(-0.0243139 -0.00139227 0)
(-0.0219696 -0.00148944 0)
(-0.0194515 -0.0015857 0)
(-0.0167617 -0.0016806 0)
(-0.0139036 -0.00177385 0)
(-0.0108808 -0.00186318 0)
(-0.00769735 -0.0019494 0)
(-0.00435979 -0.00203195 0)
(-0.000876277 -0.00211038 0)
(0.00274658 -0.00218278 0)
(0.00649978 -0.00224937 0)
(0.0103722 -0.00230886 0)
(0.0143538 -0.0023609 0)
(0.0184325 -0.00240523 0)
(0.0225957 -0.00244127 0)
(0.0268306 -0.0024685 0)
(0.0311237 -0.00248685 0)
(0.0354609 -0.00249605 0)
(0.0398284 -0.00249611 0)
(0.0442125 -0.00248729 0)
(0.0485996 -0.00246987 0)
(0.052977 -0.00244438 0)
(0.0573326 -0.0024116 0)
(0.0616558 -0.00237234 0)
(0.0659369 -0.00232767 0)
(0.0701683 -0.00227876 0)
(0.0743437 -0.0022269 0)
(0.0784586 -0.00217337 0)
(0.0825106 -0.00211938 0)
(0.0864988 -0.00206604 0)
(0.0904236 -0.00201432 0)
(0.0942869 -0.00196492 0)
(0.0980913 -0.00191832 0)
(0.10184 -0.0018747 0)
(0.105535 -0.00183395 0)
(0.109181 -0.00179565 0)
(0.112778 -0.00175919 0)
(0.116328 -0.00172374 0)
(0.119831 -0.00168829 0)
(0.123284 -0.00165165 0)
(0.126684 -0.00161256 0)
(0.130026 -0.0015698 0)
(0.133302 -0.00152244 0)
(0.136503 -0.00147026 0)
(0.139618 -0.00141413 0)
(0.142639 -0.00135619 0)
(0.14556 -0.00129935 0)
(0.148378 -0.0012465 0)
(0.151097 -0.00119937 0)
(0.153725 -0.0011575 0)
(0.156269 -0.00111716 0)
(0.15874 -0.00107068 0)
(0.161138 -0.0010066 0)
(0.163464 -0.000911657 0)
(0.16567 -0.000775145 0)
(-0.000563849 0.00119462 0)
(-0.00238926 0.00157888 0)
(-0.00427447 0.00162471 0)
(-0.00618074 0.00164573 0)
(-0.00809119 0.00166839 0)
(-0.0100088 0.00169268 0)
(-0.0119332 0.00171685 0)
(-0.0138626 0.0017389 0)
(-0.0157943 0.00175696 0)
(-0.0177245 0.00176926 0)
(-0.0196485 0.00177444 0)
(-0.0215609 0.00177136 0)
(-0.0234556 0.00175917 0)
(-0.0253261 0.0017374 0)
(-0.0271655 0.00170575 0)
(-0.0289666 0.00166426 0)
(-0.0307225 0.00161316 0)
(-0.0324263 0.00155277 0)
(-0.034071 0.00148358 0)
(-0.0356499 0.00140608 0)
(-0.0371564 0.00132078 0)
(-0.038584 0.00122813 0)
(-0.0399266 0.00112858 0)
(-0.0411777 0.00102253 0)
(-0.0423312 0.000910323 0)
(-0.0433811 0.000792314 0)
(-0.0443212 0.000668831 0)
(-0.0451456 0.000540024 0)
(-0.0458484 0.000405846 0)
(-0.0464242 0.000266203 0)
(-0.046868 0.000120795 0)
(-0.0471739 -2.98802e-05 0)
(-0.0473335 -0.00018477 0)
(-0.0473421 -0.000343865 0)
(-0.0471947 -0.000507335 0)
(-0.0468861 -0.000675014 0)
(-0.0464113 -0.000846746 0)
(-0.0457659 -0.00102231 0)
(-0.0449454 -0.00120142 0)
(-0.043946 -0.00138377 0)
(-0.0427643 -0.00156898 0)
(-0.0413972 -0.0017566 0)
(-0.0398423 -0.00194611 0)
(-0.038098 -0.00213692 0)
(-0.0361631 -0.00232834 0)
(-0.0340373 -0.00251962 0)
(-0.0317213 -0.00270996 0)
(-0.0292165 -0.00289846 0)
(-0.0265253 -0.00308421 0)
(-0.0236513 -0.00326617 0)
(-0.0205984 -0.00344257 0)
(-0.0173719 -0.00361301 0)
(-0.0139783 -0.00377639 0)
(-0.0104256 -0.00393167 0)
(-0.00672188 -0.0040762 0)
(-0.00287653 -0.00421052 0)
(0.00109945 -0.00433263 0)
(0.0051952 -0.00444146 0)
(0.00939815 -0.00453632 0)
(0.0136953 -0.0046163 0)
(0.0180735 -0.00468051 0)
(0.0225186 -0.00472899 0)
(0.0270164 -0.00476121 0)
(0.0315528 -0.00477729 0)
(0.0361135 -0.00477758 0)
(0.040685 -0.00476267 0)
(0.045254 -0.00473338 0)
(0.0498083 -0.00469101 0)
(0.0543368 -0.00463701 0)
(0.0588298 -0.00457314 0)
(0.0632792 -0.00450142 0)
(0.0676783 -0.00442405 0)
(0.0720226 -0.00434316 0)
(0.0763091 -0.00426081 0)
(0.0805366 -0.00417896 0)
(0.0847055 -0.00409922 0)
(0.0888171 -0.00402282 0)
(0.0928736 -0.00395054 0)
(0.0968775 -0.00388267 0)
(0.100831 -0.00381897 0)
(0.104737 -0.00375877 0)
(0.108595 -0.003701 0)
(0.112407 -0.00364427 0)
(0.11617 -0.00358687 0)
(0.119881 -0.0035268 0)
(0.123534 -0.00346184 0)
(0.127124 -0.00338974 0)
(0.130639 -0.00330851 0)
(0.134067 -0.00321713 0)
(0.137396 -0.0031163 0)
(0.140612 -0.00300888 0)
(0.143706 -0.00289943 0)
(0.146674 -0.0027932 0)
(0.149516 -0.00269462 0)
(0.152241 -0.00260565 0)
(0.154864 -0.00252444 0)
(0.157406 -0.00244444 0)
(0.159887 -0.00235404 0)
(0.162337 -0.00223765 0)
(0.164757 -0.00207593 0)
(-0.000584197 0.00194592 0)
(-0.0024739 0.0025375 0)
(-0.00442081 0.00259901 0)
(-0.00639437 0.00262442 0)
(-0.00837399 0.00265143 0)
(-0.0103637 0.0026802 0)
(-0.0123633 0.00270842 0)
(-0.0143716 0.00273353 0)
(-0.016386 0.00275309 0)
(-0.0184029 0.00276482 0)
(-0.0204178 0.0027669 0)
(-0.0224252 0.00275781 0)
(-0.0244189 0.00273642 0)
(-0.0263926 0.00270203 0)
(-0.028339 0.00265427 0)
(-0.0302511 0.00259311 0)
(-0.0321219 0.00251876 0)
(-0.0339441 0.00243161 0)
(-0.0357108 0.00233218 0)
(-0.037415 0.00222104 0)
(-0.03905 0.00209873 0)
(-0.040609 0.00196578 0)
(-0.0420855 0.00182267 0)
(-0.0434727 0.00166981 0)
(-0.0447642 0.00150757 0)
(-0.0459535 0.00133624 0)
(-0.0470338 0.00115612 0)
(-0.0479988 0.000967405 0)
(-0.0488418 0.00077019 0)
(-0.0495566 0.000564595 0)
(-0.0501372 0.000350719 0)
(-0.0505775 0.000129034 0)
(-0.0508716 -0.000100358 0)
(-0.0510121 -0.000337242 0)
(-0.0509937 -0.000581104 0)
(-0.0508108 -0.000831796 0)
(-0.0504581 -0.00108901 0)
(-0.0499307 -0.00135239 0)
(-0.049224 -0.00162144 0)
(-0.048334 -0.00189564 0)
(-0.0472569 -0.00217435 0)
(-0.0459897 -0.00245685 0)
(-0.0445299 -0.00274231 0)
(-0.0428757 -0.00302978 0)
(-0.041026 -0.00331821 0)
(-0.0389805 -0.00360642 0)
(-0.0367398 -0.00389315 0)
(-0.0343056 -0.00417706 0)
(-0.0316802 -0.00445668 0)
(-0.0288674 -0.00473046 0)
(-0.0258716 -0.00499647 0)
(-0.0226982 -0.00525338 0)
(-0.0193541 -0.00549958 0)
(-0.0158472 -0.00573333 0)
(-0.0121862 -0.00595232 0)
(-0.00838089 -0.00615563 0)
(-0.00444232 -0.00634131 0)
(-0.000382067 -0.00650762 0)
(0.00378743 -0.00665363 0)
(0.00805284 -0.00677798 0)
(0.0124004 -0.00687978 0)
(0.0168157 -0.00695846 0)
(0.0212845 -0.00701361 0)
(0.0257919 -0.00704549 0)
(0.0303239 -0.00705451 0)
(0.0348666 -0.00704157 0)
(0.0394064 -0.00700774 0)
(0.0439309 -0.00695499 0)
(0.0484288 -0.00688542 0)
(0.0528904 -0.00680138 0)
(0.0573073 -0.00670584 0)
(0.0616728 -0.00660185 0)
(0.065982 -0.00649239 0)
(0.070232 -0.00638045 0)
(0.0744214 -0.00626875 0)
(0.07855 -0.00615955 0)
(0.082619 -0.00605453 0)
(0.0866301 -0.00595473 0)
(0.0905852 -0.00586041 0)
(0.0944859 -0.00577117 0)
(0.0983331 -0.00568592 0)
(0.102127 -0.00560301 0)
(0.105865 -0.00552025 0)
(0.109544 -0.00543505 0)
(0.113159 -0.00534432 0)
(0.116701 -0.00524464 0)
(0.120159 -0.00513247 0)
(0.123519 -0.00500455 0)
(0.126765 -0.00485899 0)
(0.129879 -0.00469643 0)
(0.132844 -0.00452086 0)
(0.135649 -0.00433927 0)
(0.138287 -0.00416029 0)
(0.140761 -0.00399212 0)
(0.143084 -0.00384035 0)
(0.145274 -0.00370659 0)
(0.147358 -0.00358765 0)
(0.149368 -0.00347382 0)
(0.151344 -0.00335005 0)
(0.153317 -0.00318496 0)
(-0.00058895 0.00270546 0)
(-0.00249433 0.00350735 0)
(-0.00445566 0.00358707 0)
(-0.00644792 0.00361833 0)
(-0.00844822 0.00365118 0)
(-0.0104615 0.00368611 0)
(-0.0124877 0.00372021 0)
(-0.0145256 0.00375028 0)
(-0.0165729 0.00377324 0)
(-0.0186258 0.00378628 0)
(-0.0206796 0.00378705 0)
(-0.0227285 0.00377365 0)
(-0.0247663 0.00374468 0)
(-0.0267863 0.00369922 0)
(-0.0287811 0.00363679 0)
(-0.0307435 0.00355733 0)
(-0.0326663 0.00346107 0)
(-0.0345422 0.00334843 0)
(-0.0363642 0.00321999 0)
(-0.0381253 0.00307638 0)
(-0.0398186 0.00291819 0)
(-0.0414373 0.00274599 0)
(-0.0429746 0.0025603 0)
(-0.0444238 0.00236155 0)
(-0.0457784 0.00215009 0)
(-0.0470314 0.00192625 0)
(-0.0481762 0.00169028 0)
(-0.049206 0.00144241 0)
(-0.0501141 0.00118278 0)
(-0.0508938 0.000911566 0)
(-0.0515385 0.000629021 0)
(-0.0520419 0.000335497 0)
(-0.0523978 3.09409e-05 0)
(-0.0525999 -0.000284324 0)
(-0.0526417 -0.0006095 0)
(-0.0525174 -0.00094427 0)
(-0.0522215 -0.00128816 0)
(-0.0517489 -0.00164061 0)
(-0.0510947 -0.00200097 0)
(-0.0502547 -0.00236845 0)
(-0.0492251 -0.00274216 0)
(-0.0480025 -0.00312108 0)
(-0.0465845 -0.00350405 0)
(-0.0449692 -0.00388976 0)
(-0.0431554 -0.00427678 0)
(-0.0411428 -0.00466351 0)
(-0.0389321 -0.00504824 0)
(-0.0365247 -0.00542912 0)
(-0.0339232 -0.00580417 0)
(-0.0311313 -0.00617131 0)
(-0.0281535 -0.00652825 0)
(-0.0249955 -0.00687292 0)
(-0.0216642 -0.00720317 0)
(-0.0181676 -0.00751668 0)
(-0.0145148 -0.00781095 0)
(-0.0107158 -0.00808412 0)
(-0.00678169 -0.00833396 0)
(-0.00272445 -0.00855843 0)
(0.00144314 -0.00875595 0)
(0.00570773 -0.008925 0)
(0.0100551 -0.00906447 0)
(0.0144708 -0.00917357 0)
(0.0189397 -0.00925155 0)
(0.0234472 -0.00929916 0)
(0.0279785 -0.00931669 0)
(0.0325198 -0.00930542 0)
(0.037057 -0.00926661 0)
(0.0415773 -0.00920297 0)
(0.0460695 -0.00911716 0)
(0.0505232 -0.00901227 0)
(0.0549298 -0.00889208 0)
(0.0592826 -0.0087605 0)
(0.0635763 -0.00862143 0)
(0.0678077 -0.00847873 0)
(0.0719752 -0.00833584 0)
(0.0760785 -0.00819564 0)
(0.0801182 -0.00806022 0)
(0.0840959 -0.00793079 0)
(0.0880129 -0.00780758 0)
(0.0918704 -0.00768989 0)
(0.0956684 -0.00757609 0)
(0.099406 -0.00746375 0)
(0.10308 -0.00734977 0)
(0.106685 -0.00723041 0)
(0.110215 -0.00710131 0)
(0.113657 -0.00695757 0)
(0.116999 -0.00679403 0)
(0.120223 -0.00660598 0)
(0.123308 -0.00639047 0)
(0.126232 -0.00614816 0)
(0.128975 -0.00588465 0)
(0.13152 -0.00561037 0)
(0.133863 -0.00533842 0)
(0.136006 -0.00508163 0)
(0.137966 -0.00485002 0)
(0.139764 -0.0046492 0)
(0.141433 -0.00447989 0)
(0.14301 -0.00433494 0)
(0.144543 -0.00420177 0)
(0.146072 -0.00403821 0)
(-0.000588812 0.00346704 0)
(-0.00249684 0.00447921 0)
(-0.00445976 0.00457833 0)
(-0.00645651 0.00461651 0)
(-0.00846278 0.00465634 0)
(-0.0104843 0.00469866 0)
(-0.012521 0.00473995 0)
(-0.0145718 0.00477628 0)
(-0.0166341 0.0048039 0)
(-0.0187041 0.00481938 0)
(-0.0207768 0.00481988 0)
(-0.0228462 0.00480305 0)
(-0.0249057 0.00476728 0)
(-0.0269485 0.00471143 0)
(-0.0289669 0.00463492 0)
(-0.0309536 0.00453767 0)
(-0.0329013 0.00441995 0)
(-0.0348025 0.00428224 0)
(-0.0366503 0.00412518 0)
(-0.0384375 0.00394946 0)
(-0.0401573 0.00375575 0)
(-0.0418028 0.00354465 0)
(-0.0433674 0.00331669 0)
(-0.0448443 0.00307232 0)
(-0.0462267 0.00281189 0)
(-0.047508 0.00253569 0)
(-0.0486813 0.00224397 0)
(-0.0497397 0.00193694 0)
(-0.0506764 0.00161477 0)
(-0.0514846 0.00127765 0)
(-0.0521575 0.000925877 0)
(-0.0526885 0.000559776 0)
(-0.0530711 0.000179569 0)
(-0.0532993 -0.000214208 0)
(-0.0533664 -0.000621125 0)
(-0.0532664 -0.00104055 0)
(-0.0529937 -0.00147184 0)
(-0.0525429 -0.00191423 0)
(-0.051909 -0.00236683 0)
(-0.0510876 -0.00282862 0)
(-0.0500747 -0.00329845 0)
(-0.048867 -0.00377496 0)
(-0.0474618 -0.00425667 0)
(-0.0458571 -0.00474191 0)
(-0.0440517 -0.00522881 0)
(-0.0420452 -0.00571538 0)
(-0.0398382 -0.00619941 0)
(-0.0374323 -0.00667858 0)
(-0.0348299 -0.00715039 0)
(-0.0320346 -0.00761223 0)
(-0.0290512 -0.00806133 0)
(-0.0258854 -0.00849499 0)
(-0.022544 -0.00891046 0)
(-0.0190354 -0.0093049 0)
(-0.0153684 -0.0096754 0)
(-0.0115534 -0.0100194 0)
(-0.00760171 -0.0103343 0)
(-0.00352537 -0.0106176 0)
(0.000662532 -0.0108673 0)
(0.00494851 -0.0110815 0)
(0.00931807 -0.011259 0)
(0.0137565 -0.0113988 0)
(0.0182484 -0.0114998 0)
(0.0227784 -0.011563 0)
(0.0273321 -0.0115889 0)
(0.0318949 -0.0115787 0)
(0.0364525 -0.0115346 0)
(0.0409916 -0.0114593 0)
(0.0455007 -0.0113563 0)
(0.0499691 -0.0112294 0)
(0.0543878 -0.0110833 0)
(0.0587498 -0.0109227 0)
(0.0630498 -0.0107525 0)
(0.0672842 -0.0105773 0)
(0.0714514 -0.0104015 0)
(0.0755511 -0.0102284 0)
(0.079584 -0.0100606 0)
(0.0835518 -0.00989944 0)
(0.0874559 -0.00974517 0)
(0.0912976 -0.00959668 0)
(0.0950768 -0.00945173 0)
(0.0987922 -0.00930706 0)
(0.102441 -0.0091585 0)
(0.106016 -0.00900112 0)
(0.109511 -0.00882917 0)
(0.112913 -0.00863604 0)
(0.116208 -0.00841471 0)
(0.119376 -0.00815856 0)
(0.122394 -0.0078631 0)
(0.125235 -0.00752883 0)
(0.127874 -0.00716342 0)
(0.130292 -0.00678147 0)
(0.132483 -0.00640146 0)
(0.134451 -0.00604182 0)
(0.136213 -0.00571767 0)
(0.137795 -0.00543909 0)
(0.139236 -0.00521109 0)
(0.140577 -0.00503012 0)
(0.141878 -0.00488616 0)
(0.143189 -0.0047238 0)
(-0.000586188 0.00422786 0)
(-0.00249122 0.00544993 0)
(-0.00445047 0.00556917 0)
(-0.00644592 0.00561515 0)
(-0.00845233 0.00566296 0)
(-0.0104762 0.00571375 0)
(-0.0125175 0.00576333 0)
(-0.0145752 0.00580698 0)
(-0.0166464 0.00584024 0)
(-0.0187271 0.00585903 0)
(-0.0208121 0.00585997 0)
(-0.0228951 0.00584029 0)
(-0.0249691 0.00579813 0)
(-0.027027 0.00573217 0)
(-0.0290609 0.00564178 0)
(-0.0310633 0.00552686 0)
(-0.0330266 0.00538774 0)
(-0.0349436 0.00522497 0)
(-0.0368069 0.0050393 0)
(-0.0386095 0.00483149 0)
(-0.0403446 0.00460227 0)
(-0.0420054 0.00435229 0)
(-0.0435852 0.00408211 0)
(-0.0450774 0.00379215 0)
(-0.0464751 0.00348277 0)
(-0.0477717 0.00315424 0)
(-0.0489602 0.00280678 0)
(-0.0500339 0.00244057 0)
(-0.0509858 0.0020558 0)
(-0.0518091 0.00165269 0)
(-0.0524969 0.00123156 0)
(-0.0530424 0.000792761 0)
(-0.053439 0.000336646 0)
(-0.0536804 -0.000136226 0)
(-0.0537602 -0.000625321 0)
(-0.0536723 -0.00112989 0)
(-0.0534108 -0.00164912 0)
(-0.0529702 -0.00218205 0)
(-0.0523455 -0.00272759 0)
(-0.0515321 -0.00328445 0)
(-0.0505259 -0.0038512 0)
(-0.0493235 -0.00442618 0)
(-0.047922 -0.00500756 0)
(-0.0463194 -0.00559328 0)
(-0.0445143 -0.00618109 0)
(-0.0425064 -0.00676853 0)
(-0.0402961 -0.00735294 0)
(-0.0378849 -0.00793148 0)
(-0.0352754 -0.00850115 0)
(-0.032471 -0.00905878 0)
(-0.0294764 -0.00960109 0)
(-0.0262975 -0.0101248 0)
(-0.0229412 -0.0106265 0)
(-0.0194156 -0.0111029 0)
(-0.01573 -0.0115505 0)
(-0.0118947 -0.0119663 0)
(-0.00792097 -0.012347 0)
(-0.00382127 -0.0126898 0)
(0.000391197 -0.0129923 0)
(0.00470274 -0.0132522 0)
(0.00909857 -0.013468 0)
(0.0135639 -0.0136382 0)
(0.0180828 -0.0137629 0)
(0.0226394 -0.0138412 0)
(0.0272192 -0.013875 0)
(0.0318073 -0.0138654 0)
(0.0363886 -0.0138152 0)
(0.0409498 -0.0137272 0)
(0.0454788 -0.0136058 0)
(0.0499645 -0.0134556 0)
(0.0543977 -0.0132821 0)
(0.0587711 -0.0130909 0)
(0.0630793 -0.0128878 0)
(0.0673187 -0.0126785 0)
(0.0714879 -0.012468 0)
(0.0755869 -0.0122606 0)
(0.079617 -0.0120591 0)
(0.0835802 -0.0118652 0)
(0.0874787 -0.0116789 0)
(0.0913142 -0.0114989 0)
(0.0950873 -0.0113222 0)
(0.0987967 -0.0111446 0)
(0.102439 -0.0109609 0)
(0.10601 -0.0107649 0)
(0.109499 -0.0105494 0)
(0.112898 -0.0103062 0)
(0.116189 -0.0100259 0)
(0.119354 -0.00969943 0)
(0.122365 -0.00932011 0)
(0.125193 -0.00888791 0)
(0.127806 -0.00841267 0)
(0.130183 -0.00791381 0)
(0.132315 -0.00741629 0)
(0.134208 -0.00694516 0)
(0.13588 -0.00652131 0)
(0.137362 -0.00615985 0)
(0.138695 -0.0058708 0)
(0.139928 -0.00565589 0)
(0.141133 -0.00550996 0)
(0.142387 -0.00536317 0)
(-0.000581945 0.00498582 0)
(-0.00248087 0.0064178 0)
(-0.00443374 0.00655783 0)
(-0.00642516 0.00661253 0)
(-0.00842923 0.00666941 0)
(-0.0104533 0.00672984 0)
(-0.0124974 0.00678889 0)
(-0.0145603 0.00684099 0)
(-0.016639 0.00688091 0)
(-0.0187294 0.00690388 0)
(-0.0208256 0.00690597 0)
(-0.0229211 0.00688398 0)
(-0.0250086 0.00683578 0)
(-0.0270804 0.00675989 0)
(-0.0291286 0.00665569 0)
(-0.0311452 0.00652306 0)
(-0.0331226 0.00636244 0)
(-0.0350533 0.00617449 0)
(-0.03693 0.00596007 0)
(-0.0387458 0.00572003 0)
(-0.0404937 0.00545518 0)
(-0.0421671 0.00516623 0)
(-0.0437594 0.00485375 0)
(-0.0452638 0.00451816 0)
(-0.0466737 0.0041598 0)
(-0.0479824 0.00377889 0)
(-0.049183 0.00337564 0)
(-0.0502686 0.00295021 0)
(-0.0512324 0.00250278 0)
(-0.0520674 0.00203358 0)
(-0.0527667 0.00154294 0)
(-0.0533235 0.00103126 0)
(-0.0537311 0.000498983 0)
(-0.0539829 -5.32757e-05 0)
(-0.0540726 -0.000624858 0)
(-0.053994 -0.00121492 0)
(-0.0537411 -0.00182248 0)
(-0.0533085 -0.00244641 0)
(-0.0526908 -0.00308537 0)
(-0.0518835 -0.00373786 0)
(-0.0508824 -0.00440214 0)
(-0.0496837 -0.00507626 0)
(-0.0482848 -0.00575803 0)
(-0.0466832 -0.00644502 0)
(-0.0448777 -0.00713455 0)
(-0.0428678 -0.00782371 0)
(-0.0406537 -0.00850939 0)
(-0.038237 -0.00918822 0)
(-0.03562 -0.00985668 0)
(-0.0328063 -0.0105111 0)
(-0.0298005 -0.0111475 0)
(-0.0266084 -0.0117622 0)
(-0.023237 -0.0123511 0)
(-0.0196944 -0.0129104 0)
(-0.01599 -0.013436 0)
(-0.012134 -0.0139242 0)
(-0.00813809 -0.0143715 0)
(-0.00401468 -0.0147745 0)
(0.000222766 -0.0151303 0)
(0.00456031 -0.0154363 0)
(0.00898301 -0.0156906 0)
(0.0134754 -0.0158916 0)
(0.0180217 -0.0160397 0)
(0.0226056 -0.0161329 0)
(0.0272117 -0.0161741 0)
(0.0318248 -0.0161645 0)
(0.0364298 -0.0161071 0)
(0.0410126 -0.0160054 0)
(0.0455606 -0.0158643 0)
(0.0500626 -0.0156893 0)
(0.0545089 -0.0154868 0)
(0.058892 -0.0152633 0)
(0.0632064 -0.0150257 0)
(0.0674489 -0.0147808 0)
(0.0716182 -0.0145343 0)
(0.075715 -0.0142914 0)
(0.0797413 -0.0140555 0)
(0.0837001 -0.0138285 0)
(0.0875944 -0.0136104 0)
(0.0914268 -0.0133993 0)
(0.0951983 -0.0131915 0)
(0.0989084 -0.0129819 0)
(0.102554 -0.012764 0)
(0.10613 -0.0125305 0)
(0.109629 -0.0122729 0)
(0.11304 -0.011981 0)
(0.116349 -0.0116431 0)
(0.119534 -0.0112468 0)
(0.122567 -0.0107825 0)
(0.125413 -0.010249 0)
(0.128036 -0.00965812 0)
(0.130408 -0.00903494 0)
(0.132519 -0.00841223 0)
(0.134375 -0.00782278 0)
(0.135998 -0.00729381 0)
(0.137422 -0.0068457 0)
(0.13869 -0.00649429 0)
(0.139857 -0.00624893 0)
(0.141007 -0.00611523 0)
(0.142266 -0.00601163 0)
(-0.00057644 0.00573951 0)
(-0.00246722 0.00738174 0)
(-0.004412 0.00754331 0)
(-0.00639789 0.00760776 0)
(-0.00839844 0.00767499 0)
(-0.010422 0.00774642 0)
(-0.0124685 0.00781631 0)
(-0.0145366 0.00787821 0)
(-0.0166234 0.00792594 0)
(-0.0187241 0.0079541 0)
(-0.0208325 0.00795813 0)
(-0.0229417 0.00793441 0)
(-0.0250438 0.00788051 0)
(-0.0271308 0.00779487 0)
(-0.0291943 0.0076769 0)
(-0.0312262 0.00752646 0)
(-0.0332186 0.00734418 0)
(-0.0351639 0.00713085 0)
(-0.0370548 0.00688746 0)
(-0.0388843 0.006615 0)
(-0.0406456 0.00631437 0)
(-0.042332 0.00598631 0)
(-0.0439371 0.00563143 0)
(-0.0454541 0.00525013 0)
(-0.0468765 0.00484273 0)
(-0.0481976 0.00440941 0)
(-0.0494106 0.00395033 0)
(-0.0505085 0.00346563 0)
(-0.0514844 0.00295547 0)
(-0.0523315 0.0024201 0)
(-0.0530427 0.00185984 0)
(-0.0536111 0.00127512 0)
(-0.0540299 0.000666491 0)
(-0.0542926 3.46095e-05 0)
(-0.0543927 -0.000619725 0)
(-0.0543239 -0.00129558 0)
(-0.0540803 -0.00199182 0)
(-0.0536561 -0.00270712 0)
(-0.0530461 -0.00343995 0)
(-0.0522455 -0.00418855 0)
(-0.05125 -0.00495092 0)
(-0.0500559 -0.00572479 0)
(-0.0486601 -0.00650762 0)
(-0.0470603 -0.0072966 0)
(-0.0452549 -0.00808864 0)
(-0.0432434 -0.00888037 0)
(-0.041026 -0.00966819 0)
(-0.038604 -0.0104482 0)
(-0.0359798 -0.0112164 0)
(-0.0331568 -0.0119685 0)
(-0.0301396 -0.0127001 0)
(-0.026934 -0.0134068 0)
(-0.023547 -0.0140839 0)
(-0.0199867 -0.014727 0)
(-0.0162625 -0.0153315 0)
(-0.0123848 -0.0158931 0)
(-0.00836525 -0.0164078 0)
(-0.00421657 -0.0168717 0)
(4.75941e-05 -0.0172814 0)
(0.00441306 -0.017634 0)
(0.00886457 -0.0179272 0)
(0.0133862 -0.0181592 0)
(0.0179621 -0.0183299 0)
(0.0225752 -0.0184383 0)
(0.0272095 -0.0184864 0)
(0.0318497 -0.0184759 0)
(0.0364799 -0.0184103 0)
(0.0410857 -0.0182937 0)
(0.0456539 -0.0181315 0)
(0.0501728 -0.0179302 0)
(0.0546325 -0.0176969 0)
(0.0590252 -0.0174393 0)
(0.0633456 -0.0171656 0)
(0.0675905 -0.0168833 0)
(0.0717591 -0.0165997 0)
(0.0758528 -0.0163204 0)
(0.0798747 -0.0160496 0)
(0.0838287 -0.0157897 0)
(0.087719 -0.0155403 0)
(0.0915492 -0.0152991 0)
(0.0953213 -0.0150615 0)
(0.0990348 -0.0148212 0)
(0.102687 -0.0145708 0)
(0.106274 -0.0143017 0)
(0.109788 -0.0140041 0)
(0.113219 -0.0136661 0)
(0.116554 -0.0132732 0)
(0.119772 -0.012809 0)
(0.122842 -0.0122597 0)
(0.125721 -0.0116219 0)
(0.128368 -0.0109094 0)
(0.130748 -0.010154 0)
(0.132849 -0.00939796 0)
(0.134677 -0.00868307 0)
(0.136258 -0.00804333 0)
(0.137629 -0.00750427 0)
(0.138835 -0.00708771 0)
(0.139932 -0.00681389 0)
(0.141017 -0.00670978 0)
(0.14229 -0.00669018 0)
(-0.000569754 0.00648788 0)
(-0.00245064 0.00834093 0)
(-0.00438586 0.00852489 0)
(-0.00636506 0.00860028 0)
(-0.0083613 0.00867935 0)
(-0.0103841 0.0087634 0)
(-0.0124331 0.00884575 0)
(-0.0145072 0.00891896 0)
(-0.016603 0.00897588 0)
(-0.0187153 0.00901038 0)
(-0.0208377 0.00901723 0)
(-0.0229623 0.00899241 0)
(-0.0250809 0.00893321 0)
(-0.027185 0.00883801 0)
(-0.0292657 0.00870624 0)
(-0.0313147 0.00853788 0)
(-0.0333238 0.00833373 0)
(-0.0352853 0.00809477 0)
(-0.0371919 0.00782217 0)
(-0.0390365 0.00751706 0)
(-0.0408126 0.00718045 0)
(-0.0425134 0.00681314 0)
(-0.0441327 0.00641574 0)
(-0.0456637 0.00598866 0)
(-0.0471 0.00553216 0)
(-0.0484349 0.00504639 0)
(-0.0496616 0.00453144 0)
(-0.0507732 0.00398742 0)
(-0.0517627 0.00341448 0)
(-0.0526232 0.00281285 0)
(-0.0533476 0.00218286 0)
(-0.053929 0.00152498 0)
(-0.0543605 0.000839814 0)
(-0.0546354 0.000128097 0)
(-0.0547473 -0.000609264 0)
(-0.0546897 -0.00137121 0)
(-0.0544566 -0.00215648 0)
(-0.0540422 -0.00296355 0)
(-0.0534411 -0.00379071 0)
(-0.0526483 -0.00463594 0)
(-0.0516595 -0.00549698 0)
(-0.0504707 -0.00637124 0)
(-0.0490789 -0.00725585 0)
(-0.0474814 -0.0081476 0)
(-0.0456766 -0.00904299 0)
(-0.0436639 -0.0099382 0)
(-0.0414432 -0.0108291 0)
(-0.0390158 -0.0117114 0)
(-0.036384 -0.0125804 0)
(-0.0335511 -0.0134313 0)
(-0.0305217 -0.0142592 0)
(-0.0273014 -0.0150589 0)
(-0.0238973 -0.0158253 0)
(-0.0203175 -0.0165533 0)
(-0.0165714 -0.0172378 0)
(-0.0126696 -0.0178739 0)
(-0.00862389 -0.0184569 0)
(-0.0044471 -0.0189825 0)
(-0.00015314 -0.0194468 0)
(0.00424345 -0.0198465 0)
(0.00872721 -0.0201791 0)
(0.0132817 -0.0204422 0)
(0.0178905 -0.0206356 0)
(0.0225364 -0.0207588 0)
(0.0272027 -0.0208133 0)
(0.0318733 -0.0208011 0)
(0.036532 -0.0207263 0)
(0.0411637 -0.0205934 0)
(0.0457546 -0.0204085 0)
(0.0502926 -0.020179 0)
(0.0547674 -0.019913 0)
(0.059171 -0.0196195 0)
(0.0634979 -0.0193076 0)
(0.0677453 -0.0189863 0)
(0.071913 -0.0186639 0)
(0.0760031 -0.0183473 0)
(0.0800197 -0.0180413 0)
(0.0839682 -0.0177485 0)
(0.0878543 -0.0174686 0)
(0.0916825 -0.0171986 0)
(0.0954557 -0.0169328 0)
(0.0991741 -0.0166637 0)
(0.102835 -0.0163826 0)
(0.106435 -0.0160801 0)
(0.109966 -0.0157452 0)
(0.113422 -0.0153644 0)
(0.11679 -0.0149202 0)
(0.120049 -0.0143911 0)
(0.123166 -0.0137575 0)
(0.126091 -0.013012 0)
(0.128771 -0.0121706 0)
(0.131164 -0.0112734 0)
(0.133255 -0.0103743 0)
(0.135052 -0.00952561 0)
(0.136588 -0.00876841 0)
(0.137899 -0.0081325 0)
(0.139031 -0.00764487 0)
(0.140038 -0.00734036 0)
(0.141023 -0.00728422 0)
(0.14229 -0.00740296 0)
(-0.000561864 0.00722989 0)
(-0.00243102 0.00929457 0)
(-0.00435508 0.00950192 0)
(-0.00632641 0.00958963 0)
(-0.00831757 0.00968226 0)
(-0.0103393 0.00978077 0)
(-0.0123912 0.00987747 0)
(-0.0144721 0.00996375 0)
(-0.0165782 0.0100314 0)
(-0.0187038 0.0100736 0)
(-0.020842 0.0100842 0)
(-0.0229841 0.010059 0)
(-0.0251214 0.00999493 0)
(-0.0272447 0.00989034 0)
(-0.0293447 0.00974473 0)
(-0.0314128 0.00955829 0)
(-0.0334405 0.00933201 0)
(-0.03542 0.00906713 0)
(-0.037344 0.00876503 0)
(-0.0392055 0.00842701 0)
(-0.0409979 0.0080542 0)
(-0.0427147 0.00764748 0)
(-0.0443497 0.00720746 0)
(-0.0458963 0.00673453 0)
(-0.0473481 0.00622889 0)
(-0.0486985 0.00569064 0)
(-0.0499406 0.0051198 0)
(-0.0510675 0.00451643 0)
(-0.0520723 0.00388064 0)
(-0.0529479 0.00321266 0)
(-0.0536873 0.00251283 0)
(-0.0542833 0.00178164 0)
(-0.0547291 0.00101975 0)
(-0.0550179 0.000227965 0)
(-0.055143 -0.000592701 0)
(-0.0550981 -0.00144107 0)
(-0.054877 -0.00231574 0)
(-0.0544737 -0.00321503 0)
(-0.0538827 -0.00413701 0)
(-0.0530989 -0.00507945 0)
(-0.0521178 -0.00603979 0)
(-0.0509353 -0.00701517 0)
(-0.049548 -0.00800236 0)
(-0.0479534 -0.00899776 0)
(-0.0461496 -0.00999746 0)
(-0.0441356 -0.0109972 0)
(-0.0419115 -0.0119923 0)
(-0.0394783 -0.0129779 0)
(-0.0368382 -0.013949 0)
(-0.0339943 -0.0148999 0)
(-0.0309513 -0.0158253 0)
(-0.0277148 -0.0167194 0)
(-0.0242916 -0.0175764 0)
(-0.0206901 -0.0183906 0)
(-0.0169196 -0.0191562 0)
(-0.0129909 -0.0198679 0)
(-0.0089159 -0.0205203 0)
(-0.00470761 -0.0211086 0)
(-0.000380246 -0.0216283 0)
(0.00405129 -0.0220758 0)
(0.00857136 -0.0224481 0)
(0.0131628 -0.0227426 0)
(0.0178088 -0.0229588 0)
(0.0224917 -0.0230964 0)
(0.027194 -0.0231566 0)
(0.031899 -0.023142 0)
(0.0365899 -0.0230567 0)
(0.041251 -0.022906 0)
(0.0458678 -0.0226967 0)
(0.0504275 -0.022437 0)
(0.0549195 -0.0221362 0)
(0.0593354 -0.0218043 0)
(0.0636697 -0.021452 0)
(0.0679199 -0.0210897 0)
(0.0720861 -0.0207269 0)
(0.0761716 -0.0203718 0)
(0.0801819 -0.02003 0)
(0.0841239 -0.0197047 0)
(0.0880047 -0.0193952 0)
(0.0918304 -0.0190978 0)
(0.095605 -0.0188057 0)
(0.0993289 -0.0185098 0)
(0.103 -0.0182003 0)
(0.106614 -0.0178668 0)
(0.110166 -0.0174976 0)
(0.113649 -0.0170781 0)
(0.117055 -0.0165874 0)
(0.120364 -0.0159978 0)
(0.123539 -0.0152812 0)
(0.126521 -0.0144243 0)
(0.129244 -0.013445 0)
(0.131655 -0.0123939 0)
(0.133734 -0.0113397 0)
(0.135495 -0.0103473 0)
(0.136976 -0.00946479 0)
(0.138217 -0.00872456 0)
(0.139262 -0.00815588 0)
(0.140154 -0.00781107 0)
(0.140987 -0.00781842 0)
(0.142193 -0.00814263 0)
(-0.000552692 0.00796437 0)
(-0.00240801 0.0102417 0)
(-0.00431906 0.0104736 0)
(-0.00628118 0.0105753 0)
(-0.00826637 0.0106835 0)
(-0.0102868 0.0107986 0)
(-0.0123419 0.0109118 0)
(-0.0144305 0.0110132 0)
(-0.0165484 0.0110934 0)
(-0.0186892 0.0111446 0)
(-0.0208452 0.0111602 0)
(-0.0230071 0.0111354 0)
(-0.0251653 0.0110668 0)
(-0.0273101 0.010953 0)
(-0.0294318 0.0107934 0)
(-0.031521 0.0105887 0)
(-0.0335693 0.01034 0)
(-0.0355686 0.0100488 0)
(-0.0375117 0.00971687 0)
(-0.0393917 0.00934566 0)
(-0.0412021 0.00893644 0)
(-0.0429365 0.00849014 0)
(-0.0445888 0.0080074 0)