/*--------------------------------*- C++ -*----------------------------------*\
| =========                 |                                                 |
| \\      /  F ield         | OpenFOAM: The Open Source CFD Toolbox           |
|  \\    /   O peration     | Version:  2.4.0                                 |
|   \\  /    A nd           | Web:      www.OpenFOAM.org                      |
|    \\/     M anipulation  |                                                 |
\*---------------------------------------------------------------------------*/
FoamFile
{
    version     2.0;
    format      ascii;
    class       volScalarField;
    location    "0.121";
    object      alpha.water;
}
// * * * * * * * * * * * * * * * * * * * * * * * * * * * * * * * * * * * * * //

dimensions      [0 0 0 0 0 0 0];

internalField   nonuniform List<scalar> 
60000
(
1
1
1
1
1
1
1
1
1
1
1
1
1
1
1
1
1
1
1
1
1
1
1
1
1
1
1
1
1
1
1
1
1
1
1
1
1
1
1
1
1
1
1
1
1
1
1
1
1
1
1
1
1
1
1
1
1
1
1
1
1
1
1
1
1
1
1
1
1
1
1
1
1
1
1
1
1
1
1
1
1
1
1
1
1
1
1
1
1
1
1
1
1
1
1
1
1
1
1
1
1
1
1
1
1
1
1
1
1
1
1
1
1
1
1
1
1
1
1
1
1
1
1
1
1
1
1
1
1
1
1
1
1
1
1
1
1
1
1
1
1
1
1
1
1
1
1
1
1
1
1
1
1
1
1
1
1
1
1
1
1
1
1
1
1
1
1
1
1
1
1
1
1
1
1
1
1
1
1
1
1
1
1
1
1
1
1
1
1
1
1
1
1
1
1
1
1
1
1
1
1
1
1
1
1
1
1
1
1
1
1
1
1
1
1
1
1
1
1
1
1
1
1
1
1
1
1
1
1
1
1
1
1
1
1
1
1
1
1
1
1
1
1
1
1
1
1
1
1
1
1
1
1
1
1
1
1
1
1
1
1
1
1
1
1
1
1
1
1
1
1
1
1
1
1
1
1
1
1
1
1
1
1
1
1
1
1
1
1
1
1
1
1
1
1
1
1
1
1
1
1
1
1
1
1
1
1
1
1
1
1
1
1
1
1
1
1
1
1
1
1
1
1
1
1
1
1
1
1
1
1
1
1
1
1
1
1
1
1
1
1
1
1
1
1
1
1
1
1
1
1
1
1
1
1
1
1
1
1
1
1
1
1
1
1
1
1
1
1
1
1
1
1
1
1
1
1
1
1
1
1
1
1
1
1
1
1
1
1
1
1
1
1
1
1
1
1
1
1
1
1
1
1
1
1
1
1
1
1
1
1
1
1
1
1
1
1
1
1
1
1
1
1
1
1
1
1
1
1
1
1
1
1
1
1
1
1
1
1
1
1
1
1
1
1
1
1
1
1
1
1
1
1
1
1
1
1
1
1
1
1
1
1
1
1
1
1
1
1
1
1
1
1
1
1
1
1
1
1
1
1
1
1
1
1
1
1
1
1
1
1
1
1
1
1
1
1
1
1
1
1
1
1
1
1
1
1
1
1
1
1
1
1
1
1
1
1
1
1
1
1
1
1
1
1
1
1
1
1
1
1
1
1
1
1
1
1
1
1
1
1
1
1
1
1
1
1
1
1
1
1
1
1
1
1
1
1
1
1
1
1
1
1
1
1
1
1
1
1
1
1
1
1
1
1
1
1
1
1
1
1
1
1
1
1
1
1
1
1
1
1
1
1
1
1
1
1
1
1
1
1
1
1
1
1
1
1
1
1
1
1
1
1
1
1
1
1
1
1
1
1
1
1
1
1
1
1
1
1
1
1
1
1
1
1
1
1
1
1
1
1
1
1
1
1
1
1
1
1
1
1
1
1
1
1
1
1
1
1
1
1
1
1
1
1
1
1
1
1
1
1
1
1
1
1
1
1
1
1
1
1
1
1
1
1
1
1
1
1
1
1
1
1
1
1
1
1
1
1
1
1
1
1
1
1
1
1
1
1
1
1
1
1
1
1
1
1
1
1
1
1
1
1
1
1
1
1
1
1
1
1
1
1
1
1
1
1
1
1
1
1
1
1
1
1
1
1
1
1
1
1
1
1
1
1
1
1
1
1
1
1
1
1
1
1
1
1
1
1
1
1
1
1
1
1
1
1
1
1
1
1
1
1
1
1
1
1
1
1
1
1
1
1
1
1
1
1
1
1
1
1
1
1
1
1
1
1
1
1
1
1
1
1
1
1
1
1
1
1
1
1
1
1
1
1
1
1
1
1
1
1
1
1
1
1
1
1
1
1
1
1
1
1
1
1
1
1
1
1
1
1
1
1
1
1
1
1
1
1
1
1
1
1
1
1
1
1
1
1
1
1
1
1
1
1
1
1
1
1
1
1
1
1
1
1
1
1
1
1
1
1
1
1
1
1
1
1
1
1
1
1
1
1
1
1
1
1
1
1
1
1
1
1
1
1
1
1
1
1
1
1
1
1
1
1
1
1
1
1
1
1
1
1
1
1
1
1
1
1
1
1
1
1
1
1
1
1
1
1
1
1
1
1
1
1
1
1
1
1
1
1
1
1
1
1
1
1
1
1
1
1
1
1
1
1
1
1
1
1
1
1
1
1
1
1
1
1
1
1
1
1
1
1
1
1
1
1
1
1
1
1
1
1
1
1
1
1
1
1
1
1
1
1
1
1
1
1
1
1
1
1
1
1
1
1
1
1
1
1
1
1
1
1
1
1
1
1
1
1
1
1
1
1
1
1
1
1
1
1
1
1
1
1
1
1
1
1
1
1
1
1
1
1
1
1
1
1
1
1
1
1
1
1
1
1
1
1
1
1
1
1
1
1
1
1
1
1
1
1
1
1
1
1
1
1
1
1
1
1
1
1
1
1
1
1
1
1
1
1
1
1
1
1
1
1
1
1
1
1
1
1
1
1
1
1
1
1
1
1
1
1
1
1
1
1
1
1
1
1
1
1
1
1
1
1
1
1
1
1
1
1
1
1
1
1
1
1
1
1
1
1
1
1
1
1
1
1
1
1
1
1
1
1
1
1
1
1
1
1
1
1
1
1
1
1
1
1
1
1
1
1
1
1
1
1
1
1
1
1
1
1
1
1
1
1
1
1
1
1
1
1
1
1
1
1
1
1
1
1
1
1
1
1
1
1
1
1
1
1
1
1
1
1
1
1
1
1
1
1
1
1
1
1
1
1
1
1
1
1
1
1
1
1
1
1
1
1
1
1
1
1
1
1
1
1
1
1
1
1
1
1
1
1
1
1
1
1
1
1
1
1
1
1
1
1
1
1
1
1
1
1
1
1
1
1
1
1
1
1
1
1
1
1
1
1
1
1
1
1
1
1
1
1
1
1
1
1
1
1
1
1
1
1
1
1
1
1
1
1
1
1
1
1
1
1
1
1
1
1
1
1
1
1
1
1
1
1
1
1
1
1
1
1
1
1
1
1
1
1
1
1
1
1
1
1
1
1
1
1
1
1
1
1
1
1
1
1
1
1
1
1
1
1
1
1
1
1
1
1
1
1
1
1
1
1
1
1
1
1
1
1
1
1
1
1
1
1
1
1
1
1
1
1
1
1
1
1
1
1
1
1
1
1
1
1
1
1
1
1
1
1
1
1
1
1
1
1
1
1
1
1
1
1
1
1
1
1
1
1
1
1
1
1
1
1
1
1
1
1
1
1
1
1
1
1
1
1
1
1
1
1
1
1
1
1
1
1
1
1
1
1
1
1
1
1
1
1
1
1
1
1
1
1
1
1
1
1
1
1
1
1
1
1
1
1
1
1
1
1
1
1
1
1
1
1
1
1
1
1
1
1
1
1
1
1
1
1
1
1
1
1
1
1
1
1
1
1
1
1
1
1
1
1
1
1
1
1
1
1
1
1
1
1
1
1
1
1
1
1
1
1
1
1
1
1
1
1
1
1
1
1
1
1
1
1
1
1
1
1
1
1
1
1
1
1
1
1
1
1
1
1
1
1
1
1
1
1
1
1
1
1
1
1
1
1
1
1
1
1
1
1
1
1
1
1
1
1
1
1
1
1
1
1
1
1
1
1
1
1
1
1
1
1
1
1
1
1
1
1
1
1
1
1
1
1
1
1
1
1
1
1
1
1
1
1
1
1
1
1
1
1
1
1
1
1
1
1
1
1
1
1
1
1
1
1
1
1
1
1
1
1
1
1
1
1
1
1
1
1
1
1
1
1
1
1
1
1
1
1
1
1
1
1
1
1
1
1
1
1
1
1
1
1
1
1
1
1
1
1
1
1
1
1
1
1
1
1
1
1
1
1
1
1
1
1
1
1
1
1
1
1
1
1
1
1
1
1
1
1
1
1
1
1
1
1
1
1
1
1
1
1
1
1
1
1
1
1
1
1
1
1
1
1
1
1
1
1
1
1
1
1
1
1
1
1
1
1
1
1
1
1
1
1
1
1
1
1
1
1
1
1
1
1
1
1
1
1
1
1
1
1
1
1
1
1
1
1
1
1
1
1
1
1
1
1
1
1
1
1
1
1
1
1
1
1
1
1
1
1
1
1
1
1
1
1
1
1
1
1
1
1
1
1
1
1
1
1
1
1
1
1
1
1
1
1
1
1
1
1
1
1
1
1
1
1
1
1
1
1
1
1
1
1
1
1
1
1
1
1
1
1
1
1
1
1
1
1
1
1
1
1
1
1
1
1
1
1
1
1
1
1
1
1
1
1
1
1
1
1
1
1
1
1
1
1
1
1
1
1
1
1
1
1
1
1
1
1
1
1
1
1
1
1
1
1
1
1
1
1
1
1
1
1
1
1
1
1
1
1
1
1
1
1
1
1
1
1
1
1
1
1
1
1
1
1
1
1
1
1
1
1
1
1
1
1
1
1
1
1
1
1
1
1
1
1
1
1
1
1
1
1
1
1
1
1
1
1
1
1
1
1
1
1
1
1
1
1
1
1
1
1
1
1
1
1
1
1
1
1
1
1
1
1
1
1
1
1
1
1
1
1
1
1
1
1
1
1
1
1
1
1
1
1
1
1
1
1
1
1
1
1
1
1
1
1
1
1
1
1
1
1
1
1
1
1
1
1
1
1
1
1
1
1
1
1
1
1
1
1
1
1
1
1
1
1
1
1
1
1
1
1
1
1
1
1
1
1
1
1
1
1
1
1
1
1
1
1
1
1
1
1
1
1
1
1
1
1
1
1
1
1
1
1
1
1
1
1
1
1
1
1
1
1
1
1
1
1
1
1
1
1
1
1
1
1
1
1
1
1
1
1
1
1
1
1
1
1
1
1
1
1
1
1
1
1
1
1
1
1
1
1
1
1
1
1
1
1
1
1
1
1
1
1
1
1
1
1
1
1
1
1
1
1
1
1
1
1
1
1
1
1
1
1
1
1
1
1
1
1
1
1
1
1
1
1
1
1
1
1
1
1
1
1
1
1
1
1
1
1
1
1
1
1
1
1
1
1
1
1
1
1
1
1
1
1
1
1
1
1
1
1
1
1
1
1
1
1
1
1
1
1
1
1
1
1
1
1
1
1
1
1
1
1
1
1
1
1
1
1
1
1
1
1
1
1
1
1
1
1
1
1
1
1
1
1
1
1
1
1
1
1
1
1
1
1
1
1
1
1
1
1
1
1
1
1
1
1
1
1
1
1
1
1
1
1
1
1
1
1
1
1
1
1
1
1
1
1
1
1
1
1
1
1
1
1
1
1
1
1
1
1
1
1
1
1
1
1
1
1
1
1
1
1
1
1
1
1
1
1
1
1
1
1
1
1
1
1
1
1
1
1
1
1
1
1
1
1
1
1
1
1
1
1
1
1
1
1
1
1
1
1
1
1
1
1
1
1
1
1
1
1
1
1
1
1
1
1
1
1
1
1
1
1
1
1
1
1
1
1
1
1
1
1
1
1
1
1
1
1
1
1
1
1
1
1
1
1
1
1
1
1
1
1
1
1
1
1
1
1
1
1
1
1
1
1
1
1
1
1
1
1
1
1
1
1
1
1
1
1
1
1
1
1
1
1
1
1
1
1
1
1
1
1
1
1
1
1
1
1
1
1
1
1
1
1
1
1
1
1
1
1
1
1
1
1
1
1
1
1
1
1
1
1
1
1
1
1
1
1
1
1
1
1
1
1
1
1
1
1
1
1
1
1
1
1
1
1
1
1
1
1
1
1
1
1
1
1
1
1
1
1
1
1
1
1
1
1
1
1
1
1
1
1
1
1
1
1
1
1
1
1
1
1
1
1
1
1
1
1
1
1
1
1
1
1
1
1
1
1
1
1
1
1
1
1
1
1
1
1
1
1
1
1
1
1
1
1
1
1
1
1
1
1
1
1
1
1
1
1
1
1
1
1
1
1
1
1
1
1
1
1
1
1
1
1
1
1
1
1
1
1
1
1
1
1
1
1
1
1
1
1
1
1
1
1
1
1
1
1
1
1
1
1
1
1
1
1
1
1
1
1
1
1
1
1
1
1
1
1
1
1
1
1
1
1
1
1
1
1
1
1
1
1
1
1
1
1
1
1
1
1
1
1
1
1
1
1
1
1
1
1
1
1
1
1
1
1
1
1
1
1
1
1
1
1
1
1
1
1
1
1
1
1
1
1
1
1
1
1
1
1
1
1
1
1
1
1
1
1
1
1
1
1
1
1
1
1
1
1
1
1
1
1
1
1
1
1
1
1
1
1
1
1
1
1
1
1
1
1
1
1
1
1
1
1
1
1
1
1
1
1
1
1
1
1
1
1
1
1
1
1
1
1
1
1
1
1
1
1
1
1
1
1
1
1
1
1
1
1
1
1
1
1
1
1
1
1
1
1
1
1
1
1
1
1
1
1
1
1
1
1
1
1
1
1
1
1
1
1
1
1
1
1
1
1
1
1
1
1
1
1
1
1
1
1
1
1
1
1
1
1
1
1
1
1
1
1
1
1
1
1
1
1
1
1
1
1
1
1
1
1
1
1
1
1
1
1
1
1
1
1
1
1
1
1
1
1
1
1
1
1
1
1
1
1
1
1
1
1
1
1
1
1
1
1
1
1
1
1
1
1
1
1
1
1
1
1
1
1
1
1
1
1
1
1
1
1
1
1
1
1
1
1
1
1
1
1
1
1
1
1
1
1
1
1
1
1
1
1
1
1
1
1
1
1
1
1
1
1
1
1
1
1
1
1
1
1
1
1
1
1
1
1
1
1
1
1
1
1
1
1
1
1
1
1
1
1
1
1
1
1
1
1
1
1
1
1
1
1
1
1
1
1
1
1
1
1
1
1
1
1
1
1
1
1
1
1
1
1
1
1
1
1
1
1
1
1
1
1
1
1
1
1
1
1
1
1
1
1
1
1
1
1
1
1
1
1
1
1
1
1
1
1
1
1
1
1
1
1
1
1
1
1
1
1
1
1
1
1
1
1
1
1
1
1
1
1
1
1
1
1
1
1
1
1
1
1
1
1
1
1
1
1
1
1
1
1
1
1
1
1
1
1
1
1
1
1
1
1
1
1
1
1
1
1
1
1
1
1
1
1
1
1
1
1
1
1
1
1
1
1
1
1
1
1
1
1
1
1
1
1
1
1
1
1
1
1
1
1
1
1
1
1
1
1
1
1
1
1
1
1
1
1
1
1
1
1
1
1
1
1
1
1
1
1
1
1
1
1
1
1
1
1
1
1
1
1
1
1
1
1
1
1
1
1
1
1
1
1
1
1
1
1
1
1
1
1
1
1
1
1
1
1
1
1
1
1
1
1
1
1
1
1
1
1
1
1
1
1
1
1
1
1
1
1
1
1
1
1
1
1
1
1
1
1
1
1
1
1
1
1
1
1
1
1
1
1
1
1
1
1
1
1
1
1
1
1
1
1
1
1
1
1
1
1
1
1
1
1
1
1
1
1
1
1
1
1
1
1
1
1
1
1
1
1
1
1
1
1
1
1
1
1
1
1
1
1
1
1
1
1
1
1
1
1
1
1
1
1
1
1
1
1
1
1
1
1
1
1
1
1
1
1
1
1
1
1
1
1
1
1
1
1
1
1
1
1
1
1
1
1
1
1
1
1
1
1
1
1
1
1
1
1
1
1
1
1
1
1
1
1
1
1
1
1
1
1
1
1
1
1
1
1
1
1
1
1
1
1
1
1
1
1
1
1
1
1
1
1
1
1
1
1
1
1
1
1
1
1
1
1
1
1
1
1
1
1
1
1
1
1
1
1
1
1
1
1
1
1
1
1
1
1
1
1
1
1
1
1
1
1
1
1
1
1
1
1
1
1
1
1
1
1
1
1
1
1
1
1
1
1
1
1
1
1
1
1
1
1
1
1
1
1
1
1
1
1
1
1
1
1
1
1
1
1
1
1
1
1
1
1
1
1
1
1
1
1
1
1
1
1
1
1
1
1
1
1
1
1
1
1
1
1
1
1
1
1
1
1
1
1
1
1
1
1
1
1
1
1
1
1
1
1
1
1
1
1
1
1
1
1
1
1
1
1
1
1
1
1
1
1
1
1
1
1
1
1
1
1
1
1
1
1
1
1
1
1
1
1
1
1
1
1
1
1
1
1
1
1
1
1
1
1
1
1
1
1
1
1
1
1
1
1
1
1
1
1
1
1
1
1
1
1
1
1
1
1
1
1
1
1
1
1
1
1
1
1
1
1
1
1
1
1
1
1
1
1
1
1
1
1
1
1
1
1
1
1
1
1
1
1
1
1
1
1
1
1
1
1
1
1
1
1
1
1
1
1
1
1
1
1
1
1
1
1
1
1
1
1
1
1
1
1
1
1
1
1
1
1
1
1
1
1
1
1
1
1
1
1
1
1
1
1
1
1
1
1
1
1
1
1
1
1
1
1
1
1
1
1
1
1
1
1
1
1
1
1
1
1
1
1
1
1
1
1
1
1
1
1
1
1
1
1
1
1
1
1
1
1
1
1
1
1
1
1
1
1
1
1
1
1
1
1
1
1
1
1
1
1
1
1
1
1
1
1
1
1
1
1
1
1
1
1
1
1
1
1
1
1
1
1
1
1
1
1
1
1
1
1
1
1
1
1
1
1
1
1
1
1
1
1
1
1
1
1
1
1
1
1
1
1
1
1
1
1
1
1
1
1
1
1
1
1
1
1
1
1
1
1
1
1
1
1
1
1
1
1
1
1
1
1
1
1
1
1
1
1
1
1
1
1
1
1
1
1
1
1
1
1
1
1
1
1
1
1
1
1
1
1
1
1
1
1
1
1
1
1
1
1
1
1
1
1
1
1
1
1
1
1
1
1
1
1
1
1
1
1
1
1
1
1
1
1
1
1
1
1
1
1
1
1
1
1
1
1
1
1
1
1
1
1
1
1
1
1
1
1
1
1
1
1
1
1
1
1
1
1
1
1
1
1
1
1
1
1
1
1
1
1
1
1
1
1
1
1
1
1
1
1
1
1
1
1
1
1
1
1
1
1
1
1
1
1
1
1
1
1
1
1
1
1
1
1
1
1
1
1
1
1
1
1
1
1
1
1
1
1
1
1
1
1
1
1
1
1
1
1
1
1
1
1
1
1
1
1
1
1
1
1
1
1
1
1
1
1
1
1
1
1
1
1
1
1
1
1
1
1
1
1
1
1
1
1
1
1
1
1
1
1
1
1
1
1
1
1
1
1
1
1
1
1
1
1
1
1
1
1
1
1
1
1
1
1
1
1
1
1
1
1
1
1
1
1
1
1
1
1
1
1
1
1
1
1
1
1
1
1
1
1
1
1
1
1
1
1
1
1
1
1
1
1
1
1
1
1
1
1
1
1
1
1
1
1
1
1
1
1
1
1
1
1
1
1
1
1
1
1
1
1
1
1
1
1
1
1
1
1
1
1
1
1
1
1
1
1
1
1
1
1
1
1
1
1
1
1
1
1
1
1
1
1
1
1
1
1
1
1
1
1
1
1
1
1
1
1
1
1
1
1
1
1
1
1
1
1
1
1
1
1
1
1
1
1
1
1
1
1
1
1
1
1
1
1
1
1
1
1
1
1
1
1
1
1
1
1
1
1
1
1
1
1
1
1
1
1
1
1
1
1
1
1
1
1
1
1
1
1
1
1
1
1
1
1
1
1
1
1
1
1
1
1
1
1
1
1
1
1
1
1
1
1
1
1
1
1
1
1
1
1
1
1
1
1
1
1
1
1
1
1
1
1
1
1
1
1
1
1
1
1
1
1
1
1
1
1
1
1
1
1
1
1
1
1
1
1
1
1
1
1
1
1
1
1
1
1
1
1
1
1
1
1
1
1
1
1
1
1
1
1
1
1
1
1
1
1
1
1
1
1
1
1
1
1
1
1
1
1
1
1
1
1
1
1
1
1
1
1
1
1
1
1
1
1
1
1
1
1
1
1
1
1
1
1
1
1
1
1
1
1
1
1
1
1
1
1
1
1
1
1
1
1
1
1
1
1
1
1
1
1
1
1
1
1
1
1
1
1
1
1
1
1
1
1
1
1
1
1
1
1
1
1
1
1
1
1
1
1
1
1
1
1
1
1
1
1
1
1
1
1
1
1
1
1
1
1
1
1
1
1
1
1
1
1
1
1
1
1
1
1
1
1
1
1
1
1
1
1
1
1
1
1
1
1
1
1
1
1
1
1
1
1
1
1
1
1
1
1
1
1
1
1
1
1
1
1
1
1
1
1
1
1
1
1
1
1
1
1
1
1
1
1
1
1
1
1
1
1
1
1
1
1
1
1
1
1
1
1
1
1
1
1
1
1
1
1
1
1
1
1
1
1
1
1
1
1
1
1
1
1
1
1
1
1
1
1
1
1
1
1
1
1
1
1
1
1
1
1
1
1
1
1
1
1
1
1
1
1
1
1
1
1
1
1
1
1
1
1
1
1
1
1
1
1
1
1
1
1
1
1
1
1
1
1
1
1
1
1
1
1
1
1
1
1
1
1
1
1
1
1
1
1
1
1
1
1
1
1
1
1
1
1
1
1
1
1
1
1
1
1
1
1
1
1
1
1
1
1
1
1
1
1
1
1
1
1
1
1
1
1
1
1
1
1
1
1
1
1
1
1
1
1
1
1
1
1
1
1
1
1
1
1
1
1
1
1
1
1
1
1
1
1
1
1
1
1
1
1
1
1
1
1
1
1
1
1
1
1
1
1
1
1
1
1
1
1
1
1
1
1
1
1
1
1
1
1
1
1
1
1
1
1
1
1
1
1
1
1
1
1
1
1
1
1
1
1
1
1
1
1
1
1
1
1
1
1
1
1
1
1
1
1
1
1
1
1
1
1
1
1
1
1
1
1
1
1
1
1
1
1
1
1
1
1
1
1
1
1
1
1
1
1
1
1
1
1
1
1
1
1
1
1
1
1
1
1
1
1
1
1
1
1
1
1
1
1
1
1
1
1
1
1
1
1
1
1
1
1
1
1
1
1
1
1
1
1
1
1
1
1
1
1
1
1
1
1
1
1
1
1
1
1
1
1
1
1
1
0.999895
0.999718
0.999612
0.999597
0.999669
0.999813
0.999934
0.999915
0.99991
0.999948
1
1
1
1
1
1
1
1
1
1
0.999992
0.999953
0.999908
0.999857
0.999774
0.999651
0.999512
0.999372
0.999231
0.999085
0.99893
0.998769
0.998592
0.998395
0.998178
0.997937
0.997679
0.99741
0.997135
0.996866
0.996611
0.996378
0.996172
0.996
0.995862
0.995759
0.995681
0.995628
0.995598
0.995577
0.995559
0.995542
0.995525
0.995502
0.995464
0.995406
0.995321
0.995203
0.995061
0.994903
0.994729
0.994543
0.994352
0.994163
0.99398
0.993808
0.993652
0.993517
0.993405
0.993321
0.99327
0.993251
0.993254
0.993273
0.993309
0.993356
0.993414
0.99349
0.993583
0.993692
0.993811
0.993946
0.994094
0.994268
0.99446
0.994673
0.994922
0.995174
0.995486
0.995766
0.996165
0.996455
0.996675
0.996718
0.00336256
0.00329322
0.00315737
0.00296951
0.00274418
0.00250965
0.00239091
0.00238032
0.00235273
0.00230057
0.00223036
0.00214841
0.00213822
0.00230284
0.00248092
0.00262899
0.00277357
0.00296891
0.00316433
0.00335307
0.00353426
0.00370188
0.00385386
0.00398178
0.00408193
0.00414511
0.00416928
0.00417502
0.0041441
0.00408083
0.00401261
0.00395996
0.00390839
0.00384816
0.00378592
0.00372749
0.00366868
0.00360798
0.003543
0.00347207
0.00339509
0.00331049
0.00322001
0.00312563
0.00302959
0.0029347
0.00284485
0.00276154
0.0026876
0.00262526
0.00257563
0.0025417
0.00253108
0.00253568
0.00255201
0.00258179
0.00261904
0.00265364
0.00267795
0.00268998
0.00269069
0.00268145
0.00266645
0.00265029
0.00262986
0.00259813
0.00255991
0.00251955
0.00247545
0.00243088
0.00238725
0.00234688
0.00231201
0.00228471
0.00226578
0.00225705
0.00225588
0.00226346
0.00229158
0.0023362
0.00240045
0.00248627
0.0025869
0.00269635
0.00281136
0.00292264
0.00304159
0.00315229
0.00325496
0.00333495
0.00339501
0.00342769
0.00342294
0.00340166
0.00331566
0.00324397
0.00304288
0.00293222
0.0028784
0.00298048
2.9436e-10
2.78091e-10
2.64332e-10
2.03764e-10
1.7366e-10
1.7646e-10
1.73601e-10
1.75362e-10
1.69892e-10
1.54065e-10
1.41424e-10
1.43756e-10
1.72538e-10
1.57415e-10
1.63552e-10
1.99418e-10
2.60252e-10
3.16575e-10
3.55237e-10
3.77482e-10
4.04196e-10
4.2692e-10
4.36913e-10
4.32275e-10
3.62125e-10
1.33885e-10
4.20945e-11
4.20945e-11
4.2095e-11
4.2096e-11
4.20968e-11
4.20972e-11
4.20976e-11
4.20983e-11
4.2099e-11
4.20998e-11
4.21009e-11
4.21026e-11
4.21049e-11
4.21078e-11
4.21113e-11
4.21153e-11
4.212e-11
4.21251e-11
4.21306e-11
4.21363e-11
4.2142e-11
4.21476e-11
4.21528e-11
4.21574e-11
4.21612e-11
4.21641e-11
4.2166e-11
4.88071e-11
1.36031e-10
3.56251e-10
3.9828e-10
1.85903e-10
5.25266e-11
2.61963e-11
2.61963e-11
2.61969e-11
2.61984e-11
2.62009e-11
2.62047e-11
2.62096e-11
2.62155e-11
2.62218e-11
2.62288e-11
2.62362e-11
2.6244e-11
2.62517e-11
2.62592e-11
2.62663e-11
2.62728e-11
2.62785e-11
2.63944e-11
1.18409e-10
4.45836e-10
6.02819e-10
6.24611e-10
6.19296e-10
6.50424e-10
6.3045e-10
6.74831e-10
6.38383e-10
6.90036e-10
6.2564e-10
6.75855e-10
5.92691e-10
6.37598e-10
5.32384e-10
5.67418e-10
4.53795e-10
4.73663e-10
3.71142e-10
4.60697e-10
4.28332e-10
4.45483e-10
3.2792e-10
2.09821e-10
1.9244e-10
1.7899e-10
1.17773e-10
8.82952e-11
9.21698e-11
8.91e-11
8.92284e-11
8.26805e-11
6.72829e-11
5.51299e-11
5.91727e-11
8.84081e-11
7.24846e-11
7.73847e-11
1.14063e-10
1.75399e-10
2.31583e-10
2.70716e-10
2.93635e-10
3.20354e-10
3.42645e-10
3.51425e-10
3.4586e-10
3.4194e-10
3.44671e-10
3.45925e-10
3.37702e-10
3.21813e-10
3.08408e-10
3.01045e-10
2.96747e-10
2.91747e-10
2.86604e-10
2.82686e-10
2.79728e-10
2.77434e-10
2.75706e-10
2.74621e-10
2.74171e-10
2.74237e-10
2.74758e-10
2.75707e-10
2.76802e-10
2.7776e-10
2.78823e-10
2.80139e-10
2.82926e-10
2.88233e-10
2.95309e-10
3.03313e-10
3.05918e-10
3.02071e-10
3.00738e-10
3.09567e-10
3.22626e-10
3.31057e-10
3.35312e-10
3.3893e-10
3.42845e-10
3.47849e-10
3.54742e-10
3.6373e-10
3.70768e-10
3.77778e-10
3.85564e-10
3.94227e-10
4.02779e-10
4.11407e-10
4.20601e-10
4.29438e-10
4.39195e-10
4.47835e-10
4.58479e-10
4.68122e-10
4.78293e-10
4.90435e-10
4.98621e-10
5.14115e-10
5.17019e-10
5.39479e-10
5.34284e-10
5.65619e-10
5.45763e-10
5.90305e-10
5.54174e-10
6.05974e-10
5.41584e-10
5.91779e-10
5.08629e-10
5.53143e-10
4.48139e-10
4.8318e-10
3.69468e-10
3.89501e-10
2.84756e-10
3.76589e-10
3.44219e-10
3.61521e-10
2.43383e-10
2.95453e-13
4.0265e-13
4.15984e-13
2.80288e-13
2.39601e-13
2.44859e-13
2.45966e-13
2.26173e-13
1.9021e-13
1.58116e-13
1.49017e-13
1.74801e-13
2.18608e-13
1.90869e-13
1.90478e-13
2.48847e-13
3.50737e-13
4.48605e-13
5.19717e-13
5.57305e-13
6.30433e-13
7.35646e-13
8.38319e-13
9.04428e-13
9.57261e-13
1.00839e-12
1.02529e-12
1.00552e-12
9.68497e-13
9.36073e-13
8.95006e-13
8.26761e-13
7.50936e-13
6.95106e-13
6.55703e-13
6.20239e-13
5.91048e-13
5.67402e-13
5.53331e-13
5.43317e-13
5.35751e-13
5.29278e-13
5.23556e-13
5.17463e-13
5.09897e-13
5.01605e-13
4.93998e-13
4.90403e-13
4.94903e-13
5.05882e-13
5.23181e-13
5.28511e-13
5.17891e-13
5.17082e-13
5.4463e-13
5.8341e-13
6.04334e-13
6.07511e-13
6.02621e-13
6.02355e-13
6.13385e-13
6.28042e-13
6.44637e-13
6.51479e-13
6.62246e-13
6.76968e-13
6.9538e-13
7.09216e-13
7.25488e-13
7.40201e-13
7.56662e-13
7.71836e-13
7.87609e-13
8.04249e-13
8.23272e-13
8.37175e-13
8.62219e-13
8.68284e-13
8.99934e-13
8.91169e-13
9.35574e-13
9.07159e-13
9.65161e-13
9.04871e-13
9.76967e-13
8.79439e-13
9.6055e-13
8.21923e-13
9.04605e-13
7.40372e-13
8.22721e-13
6.60758e-13
7.63195e-13
6.73819e-13
9.85819e-13
1.3007e-12
2.82632e-12
3.25482e-12
2.86235e-12
1.33839e-12
3.59576e-16
7.75552e-16
9.26219e-16
6.7684e-16
6.51754e-16
6.70191e-16
6.73542e-16
6.14933e-16
5.17391e-16
4.38831e-16
4.30818e-16
5.18188e-16
6.04883e-16
5.24054e-16
4.99031e-16
5.99983e-16
7.81418e-16
9.49765e-16
1.08272e-15
1.17488e-15
1.36458e-15
1.67055e-15
2.01098e-15
2.26426e-15
2.47129e-15
2.67197e-15
2.78583e-15
2.79792e-15
2.74526e-15
2.67178e-15
2.54818e-15
2.34347e-15
2.11757e-15
1.92411e-15
1.74656e-15
1.55782e-15
1.37329e-15
1.20242e-15
1.07089e-15
9.5236e-16
8.41261e-16
7.54111e-16
7.16882e-16
6.90606e-16
6.6361e-16
6.37475e-16
6.14644e-16
6.00528e-16
6.00715e-16
6.11977e-16
6.34001e-16
6.43976e-16
6.27206e-16
6.2111e-16
6.55003e-16
7.03383e-16
7.21701e-16
7.11423e-16
6.90841e-16
6.99142e-16
7.09876e-16
7.1743e-16
7.31472e-16
7.46377e-16
7.6899e-16
7.84453e-16
8.06253e-16
8.23773e-16
8.47849e-16
8.65387e-16
8.88397e-16
9.04256e-16
9.25828e-16
9.40109e-16
9.63546e-16
9.72946e-16
1.00879e-15
1.01226e-15
1.06278e-15
1.04789e-15
1.11459e-15
1.07057e-15
1.1511e-15
1.06795e-15
1.16401e-15
1.0436e-15
1.14812e-15
9.89644e-16
1.10323e-15
9.39625e-16
1.09067e-15
9.86533e-16
1.33134e-15
1.7319e-15
4.21945e-15
1.03316e-14
3.09681e-14
4.98927e-14
5.53515e-14
1.79291e-14
5.4594e-19
1.55049e-18
2.16077e-18
1.76439e-18
1.84851e-18
1.89626e-18
1.91228e-18
1.78886e-18
1.53865e-18
1.33025e-18
1.32272e-18
1.56847e-18
1.7602e-18
1.52034e-18
1.41682e-18
1.61035e-18
1.95727e-18
2.25419e-18
2.50878e-18
2.7499e-18
3.22061e-18
4.00117e-18
4.93503e-18
5.69553e-18
6.35518e-18
7.01278e-18
7.48161e-18
7.68082e-18
7.66521e-18
7.51845e-18
7.18853e-18
6.63348e-18
5.99878e-18
5.40091e-18
4.81468e-18
4.19138e-18
3.58812e-18
3.02937e-18
2.55096e-18
2.10889e-18
1.70226e-18
1.38596e-18
1.12694e-18
9.02567e-19
7.66578e-19
6.89092e-19
6.37071e-19
6.06542e-19
5.99332e-19
6.1072e-19
6.40611e-19
6.52527e-19
6.23763e-19
6.03044e-19
6.24953e-19
6.6023e-19
6.6206e-19
6.36082e-19
6.13466e-19
6.26053e-19
6.36048e-19
6.41731e-19
6.54631e-19
6.6675e-19
6.89526e-19
7.04051e-19
7.26928e-19
7.42965e-19
7.69491e-19
7.85992e-19
8.12434e-19
8.26978e-19
8.52646e-19
8.65166e-19
8.92941e-19
9.00169e-19
9.41975e-19
9.44914e-19
1.0039e-18
9.91558e-19
1.06838e-18
1.03048e-18
1.12161e-18
1.05117e-18
1.16055e-18
1.06393e-18
1.19031e-18
1.07265e-18
1.23716e-18
1.15973e-18
1.47767e-18
1.67248e-18
3.06188e-18
7.30359e-18
3.01944e-17
1.10625e-16
4.13048e-16
8.67217e-16
1.09127e-15
2.36354e-16
1.43624e-21
3.36223e-21
5.39747e-21
4.9609e-21
5.47849e-21
5.58015e-21
5.66576e-21
5.45564e-21
4.81539e-21
4.23983e-21
4.23542e-21
4.90078e-21
5.34697e-21
4.64445e-21
4.29748e-21
4.7006e-21
5.39748e-21
5.91326e-21
6.39477e-21
7.00668e-21
8.14764e-21
1.00591e-20
1.24776e-20
1.46048e-20
1.65644e-20
1.85446e-20
2.01494e-20
2.10635e-20
2.13315e-20
2.10911e-20
2.02511e-20
1.87733e-20
1.70046e-20
1.52149e-20
1.3401e-20
1.14878e-20
9.65309e-21
7.95581e-21
6.45791e-21
5.10684e-21
3.92382e-21
2.99356e-21
2.22981e-21
1.6206e-21
1.20239e-21
8.94841e-22
7.10167e-22
6.25572e-22
5.88728e-22
5.81187e-22
5.9629e-22
5.928e-22
5.46622e-22
5.06888e-22
5.05447e-22
5.14357e-22
4.95814e-22
4.59553e-22
4.39753e-22
4.48421e-22
4.56168e-22
4.59527e-22
4.69823e-22
4.77968e-22
4.96596e-22
5.08058e-22
5.28116e-22
5.41096e-22
5.65756e-22
5.79929e-22
6.05952e-22
6.19629e-22
6.46797e-22
6.59501e-22
6.89519e-22
6.98442e-22
7.41925e-22
7.50219e-22
8.10628e-22
8.11018e-22
8.90427e-22
8.74695e-22
9.70838e-22
9.36349e-22
1.05856e-21
1.01601e-21
1.17634e-21
1.14525e-21
1.41112e-21
1.52873e-21
2.28465e-21
3.65967e-21
1.1035e-20
4.81819e-20
2.73493e-19
1.35408e-18
5.9798e-18
1.51183e-17
1.96793e-17
2.55738e-18
5.72575e-24
8.04311e-24
1.44854e-23
1.48777e-23
1.69121e-23
1.70678e-23
1.74487e-23
1.72381e-23
1.56088e-23
1.39836e-23
1.39965e-23
1.58048e-23
1.6892e-23
1.48234e-23
1.3712e-23
1.4593e-23
1.59964e-23
1.67746e-23
1.76059e-23
1.90979e-23
2.18271e-23
2.64558e-23
3.26053e-23
3.83836e-23
4.3997e-23
4.96636e-23
5.46737e-23
5.79617e-23
5.94131e-23
5.91723e-23
5.70643e-23
5.31162e-23
4.81722e-23
4.28814e-23
3.73987e-23
3.16546e-23
2.61843e-23
2.11478e-23
1.6705e-23
1.28065e-23
9.51695e-24
6.92339e-24
4.86019e-24
3.30091e-24
2.21946e-24
1.46382e-24
1.0132e-24
7.49207e-25
6.21627e-25
5.64311e-25
5.4463e-25
5.12489e-25
4.45452e-25
3.8823e-25
3.64217e-25
3.48479e-25
3.16094e-25
2.78087e-25
2.607e-25
2.65161e-25
2.69956e-25
2.71831e-25
2.78715e-25
2.8375e-25
2.9663e-25
3.04994e-25
3.20221e-25
3.29984e-25
3.4962e-25
3.61198e-25
3.83575e-25
3.96367e-25
4.21693e-25
4.35074e-25
4.64187e-25
4.76505e-25
5.1719e-25
5.32807e-25
5.89548e-25
6.04665e-25
6.8119e-25
6.9153e-25
7.89453e-25
7.97172e-25
9.34717e-25
9.59285e-25
1.17339e-24
1.26926e-24
1.73299e-24
2.28111e-24
4.40794e-24
1.19011e-23
6.11283e-23
3.8492e-22
2.75159e-21
1.70242e-20
8.59874e-20
2.46594e-19
3.19195e-19
2.21725e-20
2.54939e-26
2.11789e-26
4.15378e-26
4.70292e-26
5.41608e-26
5.40981e-26
5.55816e-26
5.60526e-26
5.19919e-26
4.73465e-26
4.74403e-26
5.24387e-26
5.52343e-26
4.90396e-26
4.54698e-26
4.74038e-26
4.99977e-26
5.04899e-26
5.14894e-26
5.4959e-26
6.13929e-26
7.25712e-26
8.81387e-26
1.03618e-25
1.19352e-25
1.35004e-25
1.49822e-25
1.60433e-25
1.65987e-25
1.66279e-25
1.60925e-25
1.5023e-25
1.363e-25
1.2074e-25
1.04365e-25
8.73074e-26
7.11685e-26
5.64212e-26
4.3554e-26
3.25404e-26
2.3515e-26
1.64712e-26
1.10641e-26
7.13758e-27
4.4621e-27
2.70077e-27
1.66834e-27
1.06932e-27
7.63932e-28
5.97e-28
5.19299e-28
4.461e-28
3.55439e-28
2.83859e-28
2.44582e-28
2.14183e-28
1.78065e-28
1.457e-28
1.31576e-28
1.33315e-28
1.35797e-28
1.36741e-28
1.4083e-28
1.43781e-28
1.51652e-28
1.57114e-28
1.67378e-28
1.74351e-28
1.88017e-28
1.97093e-28
2.13834e-28
2.24853e-28
2.45426e-28
2.58394e-28
2.83333e-28
2.97878e-28
3.32494e-28
3.52576e-28
4.0234e-28
4.27846e-28
4.98541e-28
5.30008e-28
6.28691e-28
6.74159e-28
8.31886e-28
9.29991e-28
1.22917e-27
1.51799e-27
2.39811e-27
4.13519e-27
1.20113e-26
5.66814e-26
4.04081e-25
3.32749e-24
2.88627e-23
2.12012e-22
1.19207e-21
3.71952e-21
4.55993e-21
1.52195e-22
1.11744e-28
6.05657e-29
1.2605e-28
1.55111e-28
1.79241e-28
1.77096e-28
1.82411e-28
1.86833e-28
1.77189e-28
1.63838e-28
1.64282e-28
1.78378e-28
1.86026e-28
1.67051e-28
1.55347e-28
1.59339e-28
1.62645e-28
1.58969e-28
1.57865e-28
1.65333e-28
1.80079e-28
2.06957e-28
2.46367e-28
2.87529e-28
3.31024e-28
3.73025e-28
4.15294e-28
4.47457e-28
4.65915e-28
4.68561e-28
4.5445e-28
4.24868e-28
3.85196e-28
3.39489e-28
2.90914e-28
2.40613e-28
1.93361e-28
1.50594e-28
1.1382e-28
8.30491e-29
5.84713e-29
3.96356e-29
2.56645e-29
1.58601e-29
9.36462e-30
5.30365e-30
2.99153e-30
1.71907e-30
1.06614e-30
7.13591e-31
5.34225e-31
4.03119e-31
2.88048e-31
2.06283e-31
1.59314e-31
1.24253e-31
9.20567e-32
6.83044e-32
5.82585e-32
5.86713e-32
5.97989e-32
6.03102e-32
6.25077e-32
6.42146e-32
6.8539e-32
7.18555e-32
7.79899e-32
8.25973e-32
9.10869e-32
9.75444e-32
1.08701e-31
1.17235e-31
1.32037e-31
1.43169e-31
1.62348e-31
1.76504e-31
2.03951e-31
2.24589e-31
2.66029e-31
2.9644e-31
3.59882e-31
4.05179e-31
5.04542e-31
5.82564e-31
7.67913e-31
9.51393e-31
1.3935e-30
2.02949e-30
3.9503e-30
1.00741e-29
4.6993e-29
3.14832e-28
2.90628e-27
3.01118e-26
3.07645e-25
2.58803e-24
1.58408e-23
5.11536e-23
5.64378e-23
8.19781e-25
4.67127e-31
1.85064e-31
4.00587e-31
5.29495e-31
6.10825e-31
5.96938e-31
6.14952e-31
6.36809e-31
6.16225e-31
5.77844e-31
5.79729e-31
6.20225e-31
6.42566e-31
5.82936e-31
5.43481e-31
5.50028e-31
5.4573e-31
5.18307e-31
5.02407e-31
5.15904e-31
5.47685e-31
6.11433e-31
7.11145e-31
8.20047e-31
9.39108e-31
1.04862e-30
1.16588e-30
1.25927e-30
1.31576e-30
1.32553e-30
1.28615e-30
1.20226e-30
1.08785e-30
9.53379e-31
8.09819e-31
6.62195e-31
5.24666e-31
4.01574e-31
2.9742e-31
2.12119e-31
1.45609e-31
9.57638e-32
5.99735e-32
3.56569e-32
2.00649e-32
1.0752e-32
5.63531e-33
2.96764e-33
1.63147e-33
9.50739e-34
6.03829e-34
3.89235e-34
2.41434e-34
1.5232e-34
1.03664e-34
7.06688e-35
4.53074e-35
2.95471e-35
2.33509e-35
2.33031e-35
2.37827e-35
2.40527e-35
2.51601e-35
2.60916e-35
2.82741e-35
3.01321e-35
3.34645e-35
3.62546e-35
4.10859e-35
4.52162e-35
5.20508e-35
5.7984e-35
6.76981e-35
7.61931e-35
8.98238e-35
1.01768e-34
1.22461e-34
1.41146e-34
1.746e-34
2.0551e-34
2.62147e-34
3.15567e-34
4.17247e-34
5.24821e-34
7.51387e-34
1.05154e-33
1.75961e-33
3.17581e-33
8.40986e-33
3.35727e-32
2.13172e-31
1.89443e-30
2.22177e-29
2.78908e-28
3.24636e-27
2.99822e-26
1.91477e-25
6.23444e-25
5.99351e-25
3.4449e-27
1.8522e-33
5.95851e-34
1.32083e-33
1.85926e-33
2.13675e-33
2.06616e-33
2.12477e-33
2.21596e-33
2.18326e-33
2.07349e-33
2.081e-33
2.19899e-33
2.26844e-33
2.07584e-33
1.93878e-33
1.93985e-33
1.87702e-33
1.7375e-33
1.64753e-33
1.65955e-33
1.71844e-33
1.86468e-33
2.11572e-33
2.40216e-33
2.72531e-33
3.00094e-33
3.31814e-33
3.58013e-33
3.74286e-33
3.76853e-33
3.6512e-33
3.40681e-33
3.07242e-33
2.67555e-33
2.25191e-33
1.82002e-33
1.42153e-33
1.06935e-33
7.76353e-34
5.41373e-34
3.62424e-34
2.31545e-34
1.40455e-34
8.05155e-35
4.3394e-35
2.21392e-35
1.09075e-35
5.33722e-36
2.65589e-36
1.37262e-36
7.47486e-37
4.07465e-37
2.13993e-37
1.16178e-37
6.84998e-38
4.03542e-38
2.20324e-38
1.21389e-38
8.76419e-39
8.60905e-39
8.80922e-39
8.94295e-39
9.46145e-39
9.94625e-39
1.09806e-38
1.19479e-38
1.36157e-38
1.51751e-38
1.77527e-38
2.01788e-38
2.41128e-38
2.78863e-38
3.38953e-38
3.98103e-38
4.90453e-38
5.82337e-38
7.3316e-38
8.91079e-38
1.15695e-37
1.44893e-37
1.95687e-37
2.54031e-37
3.60871e-37
5.01024e-37
7.94048e-37
1.28761e-36
2.58e-36
6.25636e-36
2.36145e-35
1.2677e-34
1.04172e-33
1.21184e-32
1.7457e-31
2.53375e-30
3.23168e-29
3.16768e-28
2.07493e-27
6.68674e-27
5.42294e-27
1.1353e-29
6.97721e-36
2.00143e-36
4.4847e-36
6.68402e-36
7.6512e-36
7.32587e-36
7.5101e-36
7.86291e-36
7.87054e-36
7.56018e-36
7.5885e-36
7.93469e-36
8.16238e-36
7.52217e-36
7.03154e-36
6.96507e-36
6.5893e-36
5.95839e-36
5.53679e-36
5.47644e-36
5.53851e-36
5.84946e-36
6.47282e-36
7.21907e-36
8.08775e-36
8.74575e-36
9.5805e-36
1.0292e-35
1.07358e-35
1.07782e-35
1.04067e-35
9.67604e-36
8.6857e-36
7.50915e-36
6.25895e-36
4.99765e-36
3.8468e-36
2.84379e-36
2.02391e-36
1.37998e-36
9.0098e-37
5.59461e-37
3.289e-37
1.81984e-37
9.41836e-38
4.59082e-38
2.1412e-38
9.82091e-39
4.49521e-39
2.09323e-39
9.96721e-40
4.62315e-40
2.03685e-40
9.32164e-41
4.67259e-41
2.3456e-41
1.08358e-41
4.86641e-42
3.1612e-42
3.04269e-42
3.12192e-42
3.18841e-42
3.41885e-42
3.65392e-42
4.12102e-42
4.59795e-42
5.38934e-42
6.20545e-42
7.51163e-42
8.85935e-42
1.10046e-41
1.32921e-41
1.68544e-41
2.0768e-41
2.67853e-41
3.3561e-41
4.437e-41
5.71738e-41
7.84385e-41
1.05222e-40
1.51725e-40
2.14428e-40
3.31627e-40
5.16273e-40
9.29712e-40
1.81549e-39
4.62791e-39
1.53073e-38
7.4282e-38
5.05942e-37
5.41034e-36
7.99049e-35
1.35077e-33
2.17416e-32
2.95638e-31
3.01694e-30
2.00123e-29
6.28593e-29
4.16151e-29
3.19506e-32
2.50626e-38
6.96865e-39
1.55908e-38
2.45138e-38
2.79757e-38
2.65504e-38
2.71095e-38
2.84203e-38
2.88408e-38
2.79819e-38
2.80824e-38
2.90949e-38
2.98722e-38
2.76804e-38
2.58734e-38
2.53968e-38
2.35374e-38
2.08267e-38
1.89928e-38
1.8468e-38
1.8269e-38
1.88132e-38
2.0315e-38
2.2226e-38
2.45296e-38
2.59585e-38
2.80776e-38
2.99402e-38
3.10777e-38
3.10389e-38
2.98064e-38
2.757e-38
2.45995e-38
2.10939e-38
1.73999e-38
1.3719e-38
1.04024e-38
7.55544e-39
5.27047e-39
3.51339e-39
2.23685e-39
1.35019e-39
7.69391e-40
4.11112e-40
2.04581e-40
9.54506e-41
4.23188e-41
1.82953e-41
7.78689e-42
3.30821e-42
1.40354e-42
5.62653e-43
2.09051e-43
7.98259e-44
3.3491e-44
1.41033e-44
5.45811e-45
1.98164e-45
1.12542e-45
1.05387e-45
1.08359e-45
1.11604e-45
1.21393e-45
1.32273e-45
1.52462e-45
1.74939e-45
2.11281e-45
2.51873e-45
3.15939e-45
3.88395e-45
5.01685e-45
6.35335e-45
8.41692e-45
1.09142e-44
1.47936e-44
1.96187e-44
2.74079e-44
3.76318e-44
5.48882e-44
7.94003e-44
1.23521e-43
1.92131e-43
3.28951e-43
5.86371e-43
1.23997e-42
3.03986e-42
9.87992e-42
4.13244e-41
2.42459e-40
2.12031e-39
2.92077e-38
5.23279e-37
9.95312e-36
1.72447e-34
2.45443e-33
2.57217e-32
1.70985e-31
5.1649e-31
2.70014e-31
7.12205e-35
8.62133e-41
2.50566e-41
5.52604e-41
9.14703e-41
1.04227e-40
9.8162e-41
9.97872e-41
1.04539e-40
1.07335e-40
1.05047e-40
1.05377e-40
1.08283e-40
1.11013e-40
1.03282e-40
9.64501e-41
9.38788e-41
8.53642e-41
7.4005e-41
6.63044e-41
6.34527e-41
6.1488e-41
6.18556e-41
6.52521e-41
6.99927e-41
7.59704e-41
7.84612e-41
8.35509e-41
8.81894e-41
9.08587e-41
9.00727e-41
8.58571e-41
7.88734e-41
6.98584e-41
5.93559e-41
4.84188e-41
3.76737e-41
2.81269e-41
2.00647e-41
1.37156e-41
8.93701e-42
5.54733e-42
3.25479e-42
1.79764e-42
9.2775e-43
4.44189e-43
1.98567e-43
8.38788e-44
3.42979e-44
1.36682e-44
5.34778e-45
2.05179e-45
7.23765e-46
2.30082e-46
7.34567e-47
2.55858e-47
8.93313e-48
2.86348e-48
8.48171e-49
4.03439e-49
3.6447e-49
3.75809e-49
3.90626e-49
4.30415e-49
4.78713e-49
5.64209e-49
6.67109e-49
8.30602e-49
1.0269e-48
1.33557e-48
1.71298e-48
2.30669e-48
3.06268e-48
4.25398e-48
5.81754e-48
8.30979e-48
1.17151e-47
1.73534e-47
2.5544e-47
3.99254e-47
6.27929e-47
1.06554e-46
1.84813e-46
3.57325e-46
7.50067e-46
1.91703e-45
5.81502e-45
2.30956e-44
1.13829e-43
8.17413e-43
9.23345e-42
1.58967e-40
3.29854e-39
6.83428e-38
1.24848e-36
1.83523e-35
1.95443e-34
1.29045e-33
3.70181e-33
1.47806e-33
1.24171e-37
2.8522e-43
9.28451e-44
1.99079e-43
3.46527e-43
3.94937e-43
3.69578e-43
3.7401e-43
3.90965e-43
4.05384e-43
3.99705e-43
4.0067e-43
4.08644e-43
4.18396e-43
3.90313e-43
3.63868e-43
3.51353e-43
3.13836e-43
2.66823e-43
2.35053e-43
2.21608e-43
2.10647e-43
2.07382e-43
2.14019e-43
2.25084e-43
2.40027e-43
2.41429e-43
2.5248e-43
2.63132e-43
2.68441e-43
2.63577e-43
2.48903e-43
2.26732e-43
1.99079e-43
1.67436e-43
1.34965e-43
1.03566e-43
7.60939e-44
5.32938e-44
3.56874e-44
2.27233e-44
1.37477e-44
7.83929e-45
4.19576e-45
2.09143e-45
9.63628e-46
4.12937e-46
1.66403e-46
6.44925e-47
2.41656e-47
8.76626e-48
3.07453e-48
9.6974e-49
2.68542e-49
7.25451e-50
2.10028e-50
6.04926e-51
1.5973e-51
3.81847e-52
1.47664e-52
1.2769e-52
1.31862e-52
1.38126e-52
1.54139e-52
1.75138e-52
2.10901e-52
2.56597e-52
3.29369e-52
4.22887e-52
5.7001e-52