/*--------------------------------*- C++ -*----------------------------------*\
| =========                 |                                                 |
| \\      /  F ield         | OpenFOAM: The Open Source CFD Toolbox           |
|  \\    /   O peration     | Version:  2.4.0                                 |
|   \\  /    A nd           | Web:      www.OpenFOAM.org                      |
|    \\/     M anipulation  |                                                 |
\*---------------------------------------------------------------------------*/
FoamFile
{
    version     2.0;
    format      ascii;
    class       surfaceScalarField;
    location    "0.005";
    object      phi;
}
// * * * * * * * * * * * * * * * * * * * * * * * * * * * * * * * * * * * * * //

dimensions      [0 3 -1 0 0 0 0];

internalField   nonuniform List<scalar> 
114720
(
-9.14624e-11
5.7911e-11
1.51854e-10
-1.18303e-10
2.37925e-10
-3.06712e-10
-4.32096e-11
1.11997e-10
5.83286e-10
-6.95792e-10
-7.06199e-11
1.83125e-10
1.15848e-09
-1.3462e-09
-1.17721e-10
3.05443e-10
2.10321e-09
-2.40341e-09
-1.88038e-10
4.88235e-10
3.58126e-09
-4.03636e-09
-2.84586e-10
7.39692e-10
5.77341e-09
-6.42769e-09
-4.08187e-10
1.06247e-09
8.85939e-09
-9.75273e-09
-5.55565e-10
1.44891e-09
1.29881e-08
-1.41474e-08
-7.17855e-10
1.87715e-09
1.82371e-08
-1.96653e-08
-8.79271e-10
2.30742e-09
2.45643e-08
-2.62277e-08
-1.01665e-09
2.68006e-09
3.17634e-08
-3.35847e-08
-1.10349e-09
2.92482e-09
3.94413e-08
-4.12996e-08
-1.11502e-09
2.9733e-09
4.70412e-08
-4.87853e-08
-1.03633e-09
2.78043e-09
5.39159e-08
-5.53891e-08
-8.67776e-10
2.34096e-09
5.94414e-08
-6.05105e-08
-6.25451e-10
1.69457e-09
6.31333e-08
-6.37126e-08
-3.3704e-10
9.16336e-10
6.4726e-08
-6.47884e-08
-3.44868e-11
9.69081e-11
6.41964e-08
-6.37697e-08
2.52665e-10
-6.79322e-10
6.17326e-08
-6.08865e-08
5.01597e-10
-1.34768e-09
5.76681e-08
-5.6496e-08
6.98091e-10
-1.87014e-09
5.24066e-08
-5.1009e-08
8.37068e-10
-2.23462e-09
4.6359e-08
-4.48293e-08
9.21079e-10
-2.45085e-09
3.98912e-08
-3.831e-08
9.5642e-10
-2.53765e-09
3.33088e-08
-3.17351e-08
9.5553e-10
-2.5293e-09
2.68391e-08
-2.53196e-08
9.25308e-10
-2.44481e-09
2.06444e-08
-1.92077e-08
8.76799e-10
-2.31351e-09
1.48266e-08
-1.34906e-08
8.16578e-10
-2.1526e-09
9.44293e-09
-8.21645e-09
7.50338e-10
-1.97682e-09
4.51357e-09
-3.39756e-09
6.83152e-10
-1.79916e-09
5.84536e-11
3.9585e-10
-3.3489e-10
-1.19414e-10
3.32986e-10
-3.83646e-10
-4.1844e-10
4.69099e-10
7.5545e-10
-6.38254e-10
-8.97645e-10
7.8045e-10
1.46182e-09
-1.0568e-09
-1.69733e-09
1.2923e-09
2.61037e-09
-1.66878e-09
-2.98236e-09
2.04078e-09
4.38533e-09
-2.49714e-09
-4.94226e-09
3.05407e-09
6.98656e-09
-3.54566e-09
-7.77791e-09
4.337e-09
1.06075e-08
-4.78403e-09
-1.16763e-08
5.85286e-09
1.54007e-08
-6.13518e-09
-1.67733e-08
7.50786e-09
2.14317e-08
-7.4607e-09
-2.31042e-08
9.13319e-09
2.86245e-08
-8.57337e-09
-3.05512e-08
1.05001e-08
3.67159e-08
-9.24314e-09
-3.87994e-08
1.13266e-08
4.52336e-08
-9.26027e-09
-4.73279e-08
1.13545e-08
5.35307e-08
-8.49595e-09
-5.54585e-08
1.04237e-08
6.08755e-08
-6.95514e-09
-6.24586e-08
8.53827e-09
6.65851e-08
-4.78938e-09
-6.76786e-08
5.88285e-09
7.01581e-08
-2.2607e-09
-7.06769e-08
2.77954e-09
7.13557e-08
3.30204e-10
-7.12848e-08
-4.01115e-10
7.02163e-08
2.71653e-09
-6.96028e-08
-3.33006e-09
6.70047e-08
4.70974e-09
-6.59392e-08
-5.77531e-09
6.2129e-08
6.2139e-09
-6.07238e-08
-7.61909e-09
5.6053e-08
7.21534e-09
-5.44228e-08
-8.84551e-09
4.92273e-08
7.76407e-09
-4.7475e-08
-9.51636e-09
4.20425e-08
7.93673e-09
-4.02529e-08
-9.72632e-09
3.48094e-08
7.8248e-09
-3.30464e-08
-9.58774e-09
2.77613e-08
7.50704e-09
-2.6071e-08
-9.19736e-09
2.10538e-08
7.06425e-09
-1.94639e-08
-8.65409e-09
1.47841e-08
6.54578e-09
-1.33113e-08
-8.01857e-09
9.00281e-09
6.00165e-09
-7.65275e-09
-7.35171e-09
3.72171e-09
5.44329e-09
-2.49738e-09
-6.66762e-09
5.81393e-11
6.38885e-10
-5.78251e-10
-1.18773e-10
3.31424e-10
-7.24943e-10
-4.16474e-10
8.09992e-10
7.51885e-10
-1.20614e-09
-8.93405e-10
1.34766e-09
1.45492e-09
-1.99733e-09
-1.68931e-09
2.23172e-09
2.59807e-09
-3.15448e-09
-2.96833e-09
3.52474e-09
4.36483e-09
-4.7215e-09
-4.91921e-09
5.27588e-09
6.95439e-09
-6.7065e-09
-7.74229e-09
7.49439e-09
1.056e-08
-9.05379e-09
-1.16246e-08
1.01184e-08
1.53354e-08
-1.162e-08
-1.67036e-08
1.29883e-08
2.13494e-08
-1.41462e-08
-2.30185e-08
1.58152e-08
2.85322e-08
-1.62799e-08
-3.04585e-08
1.82062e-08
3.66299e-08
-1.75842e-08
-3.87187e-08
1.9673e-08
4.51812e-08
-1.76551e-08
-4.72889e-08
1.97628e-08
5.35474e-08
-1.62373e-08
-5.5498e-08
1.8188e-08
6.09981e-08
-1.33287e-08
-6.26123e-08
1.49429e-08
6.68425e-08
-9.21061e-09
-6.79719e-08
1.034e-08
7.05627e-08
-4.38337e-09
-7.11175e-08
4.93815e-09
7.19e-08
5.72855e-10
-7.18602e-08
-6.12681e-10
7.08743e-08
5.14116e-09
-7.02832e-08
-5.73224e-09
6.7738e-08
8.95639e-09
-6.66843e-08
-1.001e-08
6.28938e-08
1.18333e-08
-6.14898e-08
-1.32373e-08
5.68075e-08
1.3747e-08
-5.51691e-08
-1.53854e-08
4.99364e-08
1.4794e-08
-4.81684e-08
-1.65619e-08
4.26795e-08
1.51225e-08
-4.08691e-08
-1.69328e-08
3.53568e-08
1.4908e-08
-3.357e-08
-1.66948e-08
2.82097e-08
1.43014e-08
-2.64943e-08
-1.60168e-08
2.14001e-08
1.34569e-08
-1.97852e-08
-1.50719e-08
1.50301e-08
1.24686e-08
-1.35333e-08
-1.39654e-08
9.1535e-09
1.14317e-08
-7.78095e-09
-1.28043e-08
3.78433e-09
1.03679e-08
-2.53943e-09
-1.16128e-08
5.76676e-11
8.80214e-10
-8.20071e-10
-1.17811e-10
3.28994e-10
-1.06427e-09
-4.13413e-10
1.14869e-09
7.46336e-10
-1.77074e-09
-8.86804e-10
1.9112e-09
1.44417e-09
-2.93244e-09
-1.67682e-09
3.1651e-09
2.57892e-09
-4.63172e-09
-2.94648e-09
4.99928e-09
4.33289e-09
-6.93347e-09
-4.88331e-09
7.48389e-09
6.90426e-09
-9.85051e-09
-7.68678e-09
1.0633e-08
1.04861e-08
-1.33028e-08
-1.1544e-08
1.43608e-08
1.52336e-08
-1.7083e-08
-1.65948e-08
1.84441e-08
2.12207e-08
-2.08146e-08
-2.28843e-08
2.24781e-08
2.83874e-08
-2.39841e-08
-3.0313e-08
2.59097e-08
3.64946e-08
-2.59506e-08
-3.85917e-08
2.80477e-08
4.50981e-08
-2.61152e-08
-4.72271e-08
2.82442e-08
5.35729e-08
-2.40896e-08
-5.55596e-08
2.60763e-08
6.11912e-08
-1.98536e-08
-6.28548e-08
2.15172e-08
6.725e-08
-1.38073e-08
-6.84366e-08
1.49939e-08
7.12053e-08
-6.68177e-09
-7.18175e-08
7.29401e-09
7.27661e-08
6.63327e-10
-7.27762e-08
-6.53266e-10
7.19229e-08
7.45594e-09
-7.13678e-08
-8.01104e-09
6.89073e-08
1.31445e-08
-6.78728e-08
-1.4179e-08
6.41143e-08
1.74466e-08
-6.27123e-08
-1.88487e-08
5.80123e-08
2.03187e-08
-5.63607e-08
-2.19702e-08
5.10687e-08
2.19002e-08
-4.92758e-08
-2.36932e-08
4.36969e-08
2.24096e-08
-4.18533e-08
-2.42532e-08
3.62311e-08
2.21075e-08
-3.44062e-08
-2.39324e-08
2.89259e-08
2.12182e-08
-2.71704e-08
-2.29737e-08
2.19533e-08
1.99718e-08
-2.02984e-08
-2.16267e-08
1.54232e-08
1.85088e-08
-1.38879e-08
-2.0044e-08
9.39465e-09
1.69715e-08
-7.98611e-09
-1.838e-08
3.88415e-09
1.53929e-08
-2.60631e-09
-1.66708e-08
5.70429e-11
1.11919e-09
-1.05969e-09
-1.16538e-10
3.25612e-10
-1.40071e-09
-4.09152e-10
1.48425e-09
7.38613e-10
-2.33052e-09
-8.77619e-10
2.46952e-09
1.4292e-09
-3.85963e-09
-1.65945e-09
4.08988e-09
2.55226e-09
-6.09659e-09
-2.91605e-09
6.46038e-09
4.28841e-09
-9.1273e-09
-4.83332e-09
9.67221e-09
6.83438e-09
-1.29699e-08
-7.60938e-09
1.37449e-08
1.03828e-08
-1.75214e-08
-1.14315e-08
1.85701e-08
1.50911e-08
-2.25135e-08
-1.64423e-08
2.38647e-08
2.10397e-08
-2.74574e-08
-2.26952e-08
2.91129e-08
2.81817e-08
-3.16842e-08
-3.01056e-08
3.36081e-08
3.62984e-08
-3.43536e-08
-3.84058e-08
3.64609e-08
4.49692e-08
-3.46706e-08
-4.71261e-08
3.68275e-08
5.35884e-08
-3.21051e-08
-5.56237e-08
3.41404e-08
6.14335e-08
-2.66028e-08
-6.31643e-08
2.83335e-08
6.77853e-08
-1.8665e-08
-6.90507e-08
1.99304e-08
7.20651e-08
-9.24315e-09
-7.2757e-08
9.93508e-09
7.3937e-08
5.25453e-10
-7.40166e-08
-4.45888e-10
7.33497e-08
9.60445e-09
-7.28456e-08
-1.01085e-08
7.05061e-08
1.72438e-08
-6.94993e-08
-1.82506e-08
6.57889e-08
2.30493e-08
-6.43908e-08
-2.44473e-08
5.96695e-08
2.6949e-08
-5.80009e-08
-2.86177e-08
5.26296e-08
2.91197e-08
-5.08029e-08
-3.09464e-08
4.51015e-08
2.98479e-08
-4.32125e-08
-3.17369e-08
3.74396e-08
2.94806e-08
-3.55625e-08
-3.13578e-08
2.99167e-08
2.83181e-08
-2.81059e-08
-3.01289e-08
2.27192e-08
2.66693e-08
-2.10089e-08
-2.83796e-08
1.59678e-08
2.47245e-08
-1.43793e-08
-2.63129e-08
9.7285e-09
2.26756e-08
-8.2702e-09
-2.4134e-08
4.02256e-09
2.05684e-08
-2.69913e-09
-2.18918e-08
5.62714e-11
1.35517e-09
-1.29648e-09
-1.14966e-10
3.21393e-10
-1.73331e-09
-4.03837e-10
1.81576e-09
7.28978e-10
-2.88393e-09
-8.6616e-10
3.02111e-09
1.41053e-09
-4.77633e-09
-1.63777e-09
5.00358e-09
2.519e-09
-7.54507e-09
-2.8781e-09
7.90417e-09
4.2329e-09
-1.12971e-08
-4.77092e-09
1.18351e-08
6.74716e-09
-1.60565e-08
-7.51276e-09
1.68221e-08
1.02538e-08
-2.16995e-08
-1.12908e-08
2.27365e-08
1.49129e-08
-2.79006e-08
-1.62516e-08
2.92393e-08
2.08128e-08
-3.40652e-08
-2.24582e-08
3.57105e-08
2.79233e-08
-3.93767e-08
-2.98447e-08
4.12982e-08
3.60506e-08
-4.28018e-08
-3.81707e-08
4.49218e-08
4.48048e-08
-4.33489e-08
-4.69966e-08
4.55407e-08
5.36054e-08
-4.03343e-08
-5.5702e-08
4.24309e-08
6.17381e-08
-3.36487e-08
-6.35545e-08
3.54651e-08
6.84648e-08
-2.38716e-08
-6.98314e-08
2.52382e-08
7.31629e-08
-1.21584e-08
-7.39582e-08
1.29537e-08
7.54396e-08
7.77612e-11
-7.56103e-08
9.28557e-11
7.51885e-08
1.1525e-08
-7.47519e-08
-1.19617e-08
7.25739e-08
2.12182e-08
-7.16046e-08
-2.21875e-08
6.7961e-08
2.86329e-08
-6.65695e-08
-3.00243e-08
6.18244e-08
3.36544e-08
-6.01347e-08
-3.53442e-08
5.46632e-08
3.64886e-08
-5.27933e-08
-3.83584e-08
4.69344e-08
3.74879e-08
-4.49868e-08
-3.94355e-08
3.90187e-08
3.70866e-08
-3.70735e-08
-3.90317e-08
3.12124e-08
3.56641e-08
-2.93295e-08
-3.7547e-08
2.37214e-08
3.36134e-08
-2.1939e-08
-3.53958e-08
1.66806e-08
3.11774e-08
-1.50226e-08
-3.28354e-08
1.01658e-08
2.86019e-08
-8.64229e-09
-3.01254e-08
4.20367e-09
2.59472e-08
-2.82068e-09
-2.73302e-08
5.53346e-11
1.58753e-09
-1.52981e-09
-1.13059e-10
3.16348e-10
-2.0612e-09
-3.97482e-10
2.14233e-09
7.17453e-10
-3.42948e-09
-8.52455e-10
3.56449e-09
1.38819e-09
-5.68009e-09
-1.61184e-09
5.90374e-09
2.4792e-09
-8.97332e-09
-2.83268e-09
9.3268e-09
4.16649e-09
-1.34372e-08
-4.69625e-09
1.39669e-08
6.64273e-09
-1.91025e-08
-7.39707e-09
1.98569e-08
1.00993e-08
-2.58273e-08
-1.11223e-08
2.68503e-08
1.4699e-08
-3.32335e-08
-1.60225e-08
3.45571e-08
2.05399e-08
-4.06283e-08
-2.21726e-08
4.22611e-08
2.76107e-08
-4.70577e-08
-2.95287e-08
4.89757e-08
3.57483e-08
-5.1303e-08
-3.78827e-08
5.34375e-08
4.45994e-08
-5.21762e-08
-4.68325e-08
5.44093e-08
5.36161e-08
-4.8827e-08
-5.57863e-08
5.09971e-08
6.20959e-08
-4.10647e-08
-6.40166e-08
4.29854e-08
6.92808e-08
-2.95176e-08
-7.07721e-08
3.10088e-08
7.44962e-08
-1.55242e-08
-7.54201e-08
1.64481e-08
7.72786e-08
-7.68977e-10
-7.7564e-08
1.05438e-09
7.74532e-08
1.31484e-08
-7.71028e-08
-1.34988e-08
7.51334e-08
2.50255e-08
-7.42134e-08
-2.59455e-08
7.06608e-08
3.41844e-08
-6.928e-08
-3.55653e-08
6.45121e-08
4.04492e-08
-6.27979e-08
-4.21633e-08
5.72065e-08
4.40438e-08
-5.52841e-08
-4.59662e-08
4.92318e-08
4.53826e-08
-4.72117e-08
-4.74027e-08
4.10012e-08
4.49887e-08
-3.89714e-08
-4.70185e-08
3.28413e-08
4.33249e-08
-3.08683e-08
-4.52979e-08
2.49825e-08
4.0873e-08
-2.31094e-08
-4.27461e-08
1.7578e-08
3.79346e-08
-1.58326e-08
-3.968e-08
1.07165e-08
3.48133e-08
-9.11095e-09
-3.64189e-08
4.43198e-09
3.15873e-08
-2.97364e-09
-3.30456e-08
5.42544e-11
1.81566e-09
-1.75905e-09
-1.10863e-10
3.10377e-10
-2.38348e-09
-3.89961e-10
2.46306e-09
7.03812e-10
-3.96572e-09
-8.36234e-10
4.09814e-09
1.36175e-09
-6.56849e-09
-1.58115e-09
6.78789e-09
2.43209e-09
-1.03775e-08
-2.77892e-09
1.07244e-08
4.08783e-09
-1.5542e-08
-4.60781e-09
1.60619e-08
6.51897e-09
-2.21004e-08
-7.25991e-09
2.28413e-08
9.91585e-09
-2.98949e-08
-1.09221e-08
3.09012e-08
1.44443e-08
-3.8501e-08
-1.57495e-08
3.98062e-08
2.0213e-08
-4.71366e-08
-2.18301e-08
4.87537e-08
2.72326e-08
-5.47217e-08
-2.9145e-08
5.66341e-08
3.53749e-08
-5.98626e-08
-3.75241e-08
6.20118e-08
4.43305e-08
-6.11762e-08
-4.66096e-08
6.34554e-08
5.35916e-08
-5.76308e-08
-5.58463e-08
5.98855e-08
6.24736e-08
-4.89245e-08
-6.45163e-08
5.09672e-08
7.01987e-08
-3.56973e-08
-7.18383e-08
3.73369e-08
7.60334e-08
-1.9444e-08
-7.71127e-08
2.05234e-08
7.94307e-08
-2.11329e-09
-7.98569e-08
2.53956e-09
8.01312e-08
1.4395e-08
-7.98888e-08
-1.46374e-08
7.81845e-08
2.86145e-08
-7.73285e-08
-2.94704e-08
7.38996e-08
3.96843e-08
-7.25358e-08
-4.10481e-08
6.77523e-08
4.73442e-08
-6.60122e-08
-4.90844e-08
6.0285e-08
5.18218e-08
-5.83016e-08
-5.38052e-08
5.20212e-08
5.35877e-08
-4.99149e-08
-5.56941e-08
4.34142e-08
5.3255e-08
-4.12824e-08
-5.53867e-08
3.48275e-08
5.13744e-08
-3.27452e-08
-5.34567e-08
2.65222e-08
4.85241e-08
-2.45388e-08
-5.05075e-08
1.86748e-08
4.50698e-08
-1.68226e-08
-4.6922e-08
1.13899e-08
4.13798e-08
-9.68403e-09
-4.30857e-08
4.71102e-09
3.75528e-08
-3.16078e-09
-3.9103e-08
5.30271e-11
2.03895e-09
-1.98361e-09
-1.08372e-10
3.0361e-10
-2.69926e-09
-3.81437e-10
2.77709e-09
6.8835e-10
-4.49114e-09
-8.17847e-10
4.62064e-09
1.33178e-09
-7.43906e-09
-1.54636e-09
7.65364e-09
2.37868e-09
-1.17538e-08
-2.71796e-09
1.20931e-08
3.99862e-09
-1.76057e-08
-4.5075e-09
1.81146e-08
6.37852e-09
-2.5042e-08
-7.10424e-09
2.57677e-08
9.70744e-09
-3.38922e-08
-1.06946e-08
3.48794e-08
1.41544e-08
-4.36912e-08
-1.54384e-08
4.49753e-08
1.98393e-08
-5.35782e-08
-2.14379e-08
5.51768e-08
2.67973e-08
-6.23607e-08
-2.87021e-08
6.42655e-08
3.49393e-08
-6.84824e-08
-3.71035e-08
7.06467e-08
4.40065e-08
-7.03681e-08
-4.63364e-08
7.26979e-08
5.35399e-08
-6.679e-08
-5.58901e-08
6.91402e-08
6.28797e-08
-5.73005e-08
-6.50629e-08
5.94837e-08
7.12307e-08
-4.25082e-08
-7.30439e-08
4.43214e-08
7.77946e-08
-2.40292e-08
-7.90588e-08
2.52934e-08
8.19276e-08
-4.06446e-09
-8.25244e-08
4.66129e-09
8.32684e-08
1.5173e-08
-8.31592e-08
-1.52822e-08
8.17864e-08
3.1922e-08
-8.10122e-08
-3.26962e-08
7.77471e-08
4.51044e-08
-7.6409e-08
-4.64426e-08
7.16213e-08
5.43454e-08
-6.98544e-08
-5.61123e-08
6.39761e-08
5.98576e-08
-6.19228e-08
-6.19109e-08
5.5377e-08
6.21607e-08
-5.31692e-08
-6.43684e-08
4.63246e-08
6.1958e-08
-4.40714e-08
-6.42111e-08
3.72279e-08
5.98936e-08
-3.50144e-08
-6.21071e-08
2.83857e-08
5.66501e-08
-2.62692e-08
-5.87666e-08
2.00034e-08
5.26651e-08
-1.80221e-08
-5.46464e-08
1.2206e-08
4.83787e-08
-1.03787e-08
-5.02061e-08
5.0493e-09
4.3915e-08
-3.38751e-09
-4.55768e-08
5.16549e-11
2.25683e-09
-2.2029e-09
-1.05592e-10
2.96064e-10
-3.0077e-09
-3.71932e-10
3.08357e-09
6.71104e-10
-5.00434e-09
-7.97338e-10
5.13057e-09
1.29835e-09
-8.28948e-09
-1.50755e-09
8.49867e-09
2.31909e-09
-1.30986e-08
-2.64994e-09
1.34294e-08
3.89906e-09
-1.9623e-08
-4.39553e-09
2.01195e-08
6.22167e-09
-2.79198e-08
-6.93033e-09
2.86285e-08
9.47434e-09
-3.78093e-08
-1.044e-08
3.87749e-08
1.38292e-08
-4.87924e-08
-1.50892e-08
5.00524e-08
1.94184e-08
-5.9941e-08
-2.09953e-08
6.1518e-08
2.63028e-08
-6.99654e-08
-2.81974e-08
7.186e-08
3.44367e-08
-7.71617e-08
-3.66155e-08
7.93405e-08
4.36187e-08
-7.97679e-08
-4.60028e-08
8.21519e-08
5.34476e-08
-7.63461e-08
-5.59033e-08
7.88018e-08
6.3298e-08
-6.62656e-08
-6.56399e-08
6.86074e-08
7.23615e-08
-5.00525e-08
-7.43747e-08
5.20657e-08
7.97714e-08
-2.94007e-08
-8.12525e-08
3.08818e-08
8.47736e-08
-6.74608e-09
-8.5574e-08
7.54653e-09
8.68856e-08
1.53752e-08
-8.69394e-08
-1.53214e-08
8.59778e-08
3.48711e-08
-8.53072e-08
-3.55417e-08
8.22578e-08
5.04054e-08
-8.09569e-08
-5.17063e-08
7.61846e-08
6.14524e-08
-7.4392e-08
-6.3245e-08
6.83508e-08
6.81856e-08
-6.62192e-08
-7.03172e-08
5.93699e-08
7.11627e-08
-5.70447e-08
-7.34879e-08
4.97985e-08
7.11776e-08
-4.74027e-08
-7.35734e-08
4.01e-08
6.89729e-08
-3.77309e-08
-7.1342e-08
3.06193e-08
6.53455e-08
-2.83441e-08
-6.76208e-08
2.15979e-08
6.08136e-08
-1.94619e-08
-6.29496e-08
1.31861e-08
5.58988e-08
-1.12129e-08
-5.7872e-08
5.45551e-09
5.07556e-08
-3.65971e-09
-5.25514e-08
5.01407e-11
2.46873e-09
-2.41634e-09
-1.0253e-10
2.87652e-10
-3.30796e-09
-3.61337e-10
3.38164e-09
6.51878e-10
-5.50392e-09
-7.74475e-10
5.62651e-09
1.26108e-09
-9.11744e-09
-1.46427e-09
9.32064e-09
2.25264e-09
-1.44081e-08
-2.5741e-09
1.47296e-08
3.788e-09
-2.15885e-08
-4.2706e-09
2.20711e-08
6.04653e-09
-3.07264e-08
-6.73609e-09
3.1416e-08
9.2136e-09
-4.16362e-08
-1.0155e-08
4.25776e-08
1.34642e-08
-5.37923e-08
-1.46968e-08
5.5025e-08
1.89428e-08
-6.62118e-08
-2.04943e-08
6.77633e-08
2.57378e-08
-7.75242e-08
-2.76185e-08
7.94049e-08
3.38498e-08
-8.58958e-08
-3.60408e-08
8.80868e-08
4.31418e-08
-8.93867e-08
-4.55812e-08
9.18262e-08
5.32803e-08
-8.63363e-08
-5.58494e-08
8.89054e-08
6.36862e-08
-7.58909e-08
-6.62036e-08
7.84084e-08
7.35458e-08
-5.84363e-08
-7.57856e-08
6.06761e-08
8.19227e-08
-3.56905e-08
-8.3655e-08
3.74228e-08
8.79398e-08
-1.0297e-08
-8.89814e-08
1.13386e-08
9.0973e-08
1.48745e-08
-9.12245e-08
-1.46231e-08
9.07705e-08
3.73667e-08
-9.02307e-08
-3.79066e-08
8.7464e-08
5.55344e-08
-8.62167e-08
-5.67817e-08
8.14911e-08
6.86566e-08
-7.96771e-08
-7.04706e-08
7.34687e-08
7.68376e-08
-7.12519e-08
-7.90544e-08
6.40638e-08
8.06581e-08
-6.16053e-08
-8.31166e-08
5.38981e-08
8.10011e-08
-5.13371e-08
-8.35621e-08
4.34996e-08
7.87136e-08
-4.09483e-08
-8.12649e-08
3.32691e-08
7.47175e-08
-3.08066e-08
-7.718e-08
2.34922e-08
6.96224e-08
-2.11729e-08
-7.19417e-08
1.43516e-08
6.40421e-08
-1.2205e-08
-6.61886e-08
5.93872e-09
5.81691e-08
-3.98355e-09
-6.01242e-08
4.84873e-11
2.6741e-09
-2.62339e-09
-9.91954e-11
2.78506e-10
-3.5992e-09
-3.49814e-10
3.67051e-09
6.30967e-10
-5.98849e-09
-7.49607e-10
6.10713e-09
1.22053e-09
-9.92065e-09
-1.4172e-09
1.01173e-08
2.18035e-09
-1.56789e-08
-2.49157e-09
1.59901e-08
3.66711e-09
-2.34967e-08
-4.13461e-09
2.39642e-08
5.85575e-09
-3.3454e-08
-6.52444e-09
3.41227e-08
8.92911e-09
-4.53627e-08
-9.84385e-09
4.62774e-08
1.30647e-08
-5.86782e-08
-1.42668e-08
5.98803e-08
1.84194e-08
-7.23755e-08
-1.99418e-08
7.38979e-08
2.51098e-08
-8.50223e-08
-2.69729e-08
8.68854e-08
3.31858e-08
-9.46753e-08
-3.53862e-08
9.68757e-08
4.25807e-08
-9.92291e-08
-4.50762e-08
1.01725e-07
5.30401e-08
-9.67914e-08
-5.57295e-08
9.94808e-08
6.40443e-08
-8.62447e-08
-6.67542e-08
8.89547e-08
7.4786e-08
-6.77692e-08
-7.72806e-08
7.02638e-08
8.42603e-08
-4.30415e-08
-8.62818e-08
4.50631e-08
9.14558e-08
-1.48756e-08
-9.27815e-08
1.62013e-08
9.55837e-08
1.35232e-08
-9.60742e-08
-1.30326e-08
9.62434e-08
3.92915e-08
-9.58677e-08
-3.96672e-08
9.34676e-08
6.04197e-08
-9.22947e-08
-6.15925e-08
8.76587e-08
7.59374e-08
-8.58303e-08
-7.77658e-08
7.94555e-08
8.58404e-08
-7.71473e-08
-8.81486e-08
6.95835e-08
9.0713e-08
-6.69743e-08
-9.33222e-08
5.87397e-08
9.15234e-08
-5.59879e-08
-9.42752e-08
4.75284e-08
8.92287e-08
-4.47639e-08
-9.19932e-08
3.64175e-08
8.48881e-08
-3.37341e-08
-8.75715e-08
2.57473e-08
7.92143e-08
-2.32106e-08
-8.17509e-08
1.57404e-08
7.2927e-08
-1.33874e-08
-7.528e-08
6.51453e-09
6.62649e-08
-4.36919e-09
-6.84102e-08
4.66968e-11
2.87243e-09
-2.82353e-09
-9.55978e-11
2.68615e-10
-3.88065e-09
-3.37352e-10
3.94939e-09
6.08346e-10
-6.45675e-09
-7.22704e-10
6.57111e-09
1.17666e-09
-1.0697e-08
-1.36627e-09
1.08866e-08
2.10212e-09
-1.69075e-08
-2.40226e-09
1.72076e-08
3.53625e-09
-2.53426e-08
-3.98737e-09
2.57937e-08
5.64904e-09
-3.60954e-08
-6.29502e-09
3.67414e-08
8.62029e-09
-4.89789e-08
-9.50587e-09
4.98644e-08
1.26296e-08
-6.34373e-08
-1.37979e-08
6.46056e-08
1.78457e-08
-7.8417e-08
-1.93349e-08
7.99062e-08
2.44138e-08
-9.24433e-08
-2.62546e-08
9.42841e-08
3.24351e-08
-1.03487e-07
-3.46407e-08
1.05692e-07
4.19189e-08
-1.09294e-07
-4.44688e-08
1.11844e-07
5.27011e-08
-1.07736e-07
-5.55157e-08
1.10551e-07
6.43383e-08
-9.73925e-08
-6.72562e-08
1.0031e-07
7.60446e-08
-7.81648e-08
-7.88228e-08
8.09431e-08
8.67527e-08
-5.16103e-08
-8.91046e-08
5.39622e-08
9.53069e-08
-2.06618e-08
-9.69654e-08
2.23203e-08
1.00729e-07
1.11444e-08
-1.01508e-07
-1.0366e-08
1.02439e-07
4.05006e-08
-1.02269e-07
-4.0671e-08
1.00342e-07
6.49677e-08
-9.92713e-08
-6.60383e-08
9.47853e-08
8.326e-08
-9.29542e-08
-8.50911e-08
8.64241e-08
9.52159e-08
-8.40205e-08
-9.76194e-08
7.60474e-08
1.01397e-07
-7.32702e-08
-1.04174e-07
6.44382e-08
1.0285e-07
-6.14679e-08
-1.0582e-07
5.22901e-08
1.00648e-07
-4.92778e-08
-1.0366e-07
4.0151e-08
9.59991e-08
-3.72079e-08
-9.89422e-08
2.84277e-08
8.97342e-08
-2.56335e-08
-9.25283e-08
1.73935e-08
8.26942e-08
-1.47952e-08
-8.52925e-08
7.20028e-09
7.51739e-08
-4.82849e-09
-7.75457e-08
4.47767e-11
3.06324e-09
-3.01626e-09
-9.17588e-11
2.58006e-10
-4.15153e-09
-3.23983e-10
4.21751e-09
5.84078e-10
-6.9074e-09
-6.93842e-10
7.01716e-09
1.1296e-09
-1.14442e-08
-1.31162e-09
1.16262e-08
2.01816e-09
-1.80905e-08
-2.3064e-09
1.83787e-08
3.39575e-09
-2.71211e-08
-3.82925e-09
2.75546e-08
5.42689e-09
-3.86432e-08
-6.04838e-09
3.92647e-08
8.28777e-09
-5.24746e-08
-9.1417e-09
5.33285e-08
1.21594e-08
-6.8056e-08
-1.32905e-08
6.91871e-08
1.72218e-08
-8.43189e-08
-1.86733e-08
8.57704e-08
2.36481e-08
-9.9767e-08
-2.54612e-08
1.0158e-07
3.15921e-08
-1.12311e-07
-3.37973e-08
1.14516e-07
4.11441e-08
-1.19571e-07
-4.37448e-08
1.22172e-07
5.22422e-08
-1.19186e-07
-5.51845e-08
1.22129e-07
6.45379e-08
-1.09393e-07
-6.76774e-08
1.12533e-07
7.7287e-08
-8.9738e-08
-8.03778e-08
9.28288e-08
8.93708e-08
-6.15658e-08
-9.20975e-08
6.42925e-08
9.94828e-08
-2.78596e-08
-1.01529e-07
2.9906e-08
1.0643e-07
7.53251e-09
-1.07554e-07
-6.40855e-09
1.09416e-07
4.08161e-08
-1.09502e-07
-4.07308e-08
1.08182e-07
6.90557e-08
-1.07249e-07
-6.99881e-08
1.02996e-07
9.0569e-08
-1.01179e-07
-9.23854e-08
9.45182e-08
1.04975e-07
-9.20181e-08
-1.07476e-07
8.36064e-08
1.12779e-07
-8.06439e-08
-1.15741e-07
7.11412e-08
1.15095e-07
-6.79224e-08
-1.18313e-07
5.79193e-08
1.13115e-07
-5.46199e-08
-1.16415e-07
4.45832e-08
1.08214e-07
-4.13353e-08
-1.11462e-07
3.16196e-08
1.01352e-07
-2.85206e-08
-1.04451e-07
1.93659e-08
9.35102e-08
-1.64753e-08
-9.64008e-08
8.01866e-09
8.50519e-08
-5.37632e-09
-8.76942e-08
4.27178e-11
3.24608e-09
-3.20113e-09
-8.76674e-11
2.4671e-10
-4.41109e-09
-3.09746e-10
4.47412e-09
5.58227e-10
-7.33921e-09
-6.63096e-10
7.44408e-09
1.07946e-09
-1.21604e-08
-1.2534e-09
1.23343e-08
1.9287e-09
-1.92247e-08
-2.20425e-09
1.95002e-08
3.24597e-09
-2.88273e-08
-3.66067e-09
2.9242e-08
5.18984e-09
-4.10904e-08
-5.78509e-09
4.16857e-08
7.93224e-09
-5.584e-08
-8.75206e-09
5.66599e-08
1.16547e-08
-7.25209e-08
-1.27452e-08
7.36114e-08
1.65476e-08
-9.00633e-08
-1.79569e-08
9.14726e-08
2.28111e-08
-1.06971e-07
-2.45904e-08
1.0875e-07
3.06514e-08
-1.21123e-07
-3.28492e-08
1.23321e-07
4.02438e-08
-1.30044e-07
-4.28893e-08
1.32689e-07
5.16402e-08
-1.31147e-07
-5.47097e-08
1.34217e-07
6.46085e-08
-1.22298e-07
-6.79812e-08
1.25671e-07
7.84718e-08
-1.02605e-07
-8.19041e-08
1.06037e-07
9.20776e-08
-7.30913e-08
-9.52269e-08
7.62405e-08
1.03966e-07
-3.67007e-08
-1.06463e-07
3.91977e-08
1.12705e-07
2.44194e-09
-1.14241e-07
-9.0608e-10
1.17236e-07
4.002e-08
-1.17639e-07
-3.96171e-08
1.17095e-07
7.25248e-08
-1.16347e-07
-7.32726e-08
1.12436e-07
9.77842e-08
-1.10659e-07
-9.95608e-08
1.03909e-07
1.15119e-07
-1.01315e-07
-1.17712e-07
9.2443e-08
1.24927e-07
-8.92784e-08
-1.28092e-07
7.90294e-08
1.28381e-07
-7.553e-08
-1.3188e-07
6.45848e-08
1.26795e-07
-6.09544e-08
-1.30426e-07
4.98598e-08
1.21724e-07
-4.6255e-08
-1.25328e-07
3.54361e-08
1.14272e-07
-3.19755e-08
-1.17732e-07
2.17308e-08
1.05578e-07
-1.84904e-08
-1.08818e-07
9.00065e-09
9.60901e-08
-6.03337e-09
-9.90573e-08
4.05212e-11
3.42054e-09
-3.37772e-09
-8.33377e-11
2.34785e-10
-4.65862e-09
-2.94713e-10
4.71855e-09
5.30928e-10
-7.75101e-09
-6.30627e-10
7.85071e-09
1.02651e-09
-1.28435e-08
-1.19191e-09
1.30089e-08
1.83419e-09
-2.03069e-08
-2.09633e-09
2.05691e-08
3.08766e-09
-3.04566e-08
-3.48246e-09
3.08514e-08
4.93905e-09
-4.34301e-08
-5.50646e-09
4.39975e-08
7.55536e-09
-5.90653e-08
-8.33873e-09
5.98487e-08
1.11178e-08
-7.68181e-08
-1.21643e-08
7.78647e-08
1.58255e-08
-9.56312e-08
-1.71877e-08
9.69934e-08
2.1904e-08
-1.1403e-07
-2.3643e-08
1.15769e-07
2.96112e-08
-1.29893e-07
-3.17933e-08
1.32076e-07
3.92095e-08
-1.40684e-07
-4.18916e-08
1.43366e-07
5.08761e-08
-1.43613e-07
-5.40693e-08
1.46806e-07
6.45189e-08
-1.36149e-07
-6.81333e-08
1.39764e-07
7.95595e-08
-1.1688e-07
-8.33614e-08
1.20682e-07
9.48371e-08
-8.63827e-08
-9.84603e-08
9.00059e-08
1.08742e-07
-4.74474e-08
-1.11761e-07
5.04659e-08
1.19578e-07
-4.41469e-09
-1.21608e-07
6.4449e-09
1.25979e-07
3.78429e-08
-1.26776e-07
-3.70458e-08
1.27218e-07
7.51704e-08
-1.26714e-07
-7.5674e-08
1.23291e-07
1.04791e-07
-1.21589e-07
-1.06494e-07
1.14814e-07
1.25626e-07
-1.12135e-07
-1.28306e-07
1.02788e-07
1.37907e-07
-9.94058e-08
-1.41289e-07
8.83336e-08
1.42839e-07
-8.45198e-08
-1.46653e-07
7.2506e-08
1.4187e-07
-6.84962e-08
-1.4588e-07
5.61765e-08
1.36749e-07
-5.21543e-08
-1.40771e-07
4.00331e-08
1.28736e-07
-3.6142e-08
-1.32627e-07
2.45909e-08
1.19146e-07
-2.09292e-08
-1.22808e-07
1.01896e-08
1.08526e-07
-6.8284e-09
-1.11887e-07
3.8201e-11
3.58629e-09
-3.54568e-09
-7.88142e-11
2.22207e-10
-4.89343e-09
-2.78856e-10
4.95008e-09
5.02125e-10
-8.14166e-09
-5.96368e-10
8.23591e-09
9.70629e-10
-1.34917e-08
-1.12702e-09
1.36481e-08
1.73444e-09
-2.13344e-08
-1.98241e-09
2.15823e-08
2.92049e-09
-3.20044e-08
-3.29423e-09
3.23781e-08
4.67395e-09
-4.56557e-08
-5.21179e-09
4.61936e-08
7.15614e-09
-6.21408e-08
-7.90054e-09
6.28852e-08
1.05467e-08
-8.09337e-08
-1.15457e-08
8.19327e-08
1.50521e-08
-1.01002e-07
-1.63619e-08
1.02312e-07
2.09206e-08
-1.20916e-07
-2.26116e-08
1.22607e-07
2.84592e-08
-1.38585e-07
-3.06153e-08
1.40741e-07
3.80186e-08
-1.51453e-07
-4.07257e-08
1.5416e-07
4.9911e-08
-1.56561e-07
-5.32197e-08
1.5987e-07
6.42099e-08
-1.50973e-07
-6.80697e-08
1.54833e-07
8.04733e-08
-1.32671e-07
-8.46702e-08
1.36868e-07
9.75671e-08
-1.01648e-07
-1.01717e-07
1.05798e-07
1.13746e-07
-6.03945e-08
-1.17365e-07
6.40132e-08
1.27026e-07
-1.33846e-08
-1.29643e-07
1.60023e-08
1.3568e-07
3.39561e-08
-1.36964e-07
-3.26715e-08
1.38656e-07
7.673e-08
-1.38474e-07
-7.69129e-08
1.35731e-07
1.11434e-07
-1.34151e-07
-1.13014e-07
1.27448e-07
1.36457e-07
-1.24697e-07
-1.39207e-07
1.14878e-07
1.51775e-07
-1.11266e-07
-1.55387e-07
9.92986e-08
1.58603e-07
-9.51376e-08
-1.62764e-07
8.19289e-08
1.58536e-07
-7.74904e-08
-1.62974e-07
6.37689e-08
1.5354e-07
-5.92629e-08
-1.58046e-07
4.56113e-08
1.4504e-07
-4.12077e-08
-1.49443e-07
2.80844e-08
1.34527e-07
-2.3911e-08
-1.387e-07
1.16449e-08
1.22662e-07
-7.8006e-09
-1.26506e-07
3.57365e-11
3.74304e-09
-3.7047e-09
-7.40736e-11
2.09016e-10
-5.1149e-09
-2.62221e-10
5.1681e-09
4.71905e-10
-8.51011e-09
-5.60423e-10
8.59863e-09
9.11994e-10
-1.41032e-08
-1.05893e-09
1.42502e-08
1.62974e-09
-2.23041e-08
-1.86283e-09
2.25372e-08
2.74495e-09
-3.34664e-08
-3.09654e-09
3.3818e-08
4.39528e-09
-4.77608e-08
-4.90194e-09
4.82674e-08
6.73561e-09
-6.5057e-08
-7.43863e-09
6.57601e-08
9.94289e-09
-8.48537e-08
-1.08906e-08
8.58014e-08
1.42285e-08
-1.06156e-07
-1.54803e-08
1.07408e-07
1.98606e-08
-1.27598e-07
-2.14952e-08
1.29232e-07
2.71915e-08
-1.47156e-07
-2.93096e-08
1.49274e-07
3.66586e-08
-1.62301e-07
-3.93759e-08
1.65019e-07
4.87174e-08
-1.69954e-07
-5.21286e-08
1.73365e-07
6.36332e-08
-1.66779e-07
-6.77369e-08
1.70883e-07
8.1145e-08
-1.50078e-07
-8.57589e-08
1.54692e-07
1.00192e-07
-1.19104e-07
-1.04924e-07
1.23836e-07
1.18919e-07
-7.58721e-08
-1.23225e-07
8.01787e-08
1.35035e-07
-2.48629e-08
-1.3835e-07
2.81773e-08
1.464e-07
2.79559e-08
-1.48285e-07
-2.60713e-08
1.51555e-07
7.68683e-08
-1.51791e-07
-7.66324e-08
1.49981e-07
1.17497e-07
-1.48588e-07
-1.1889e-07
1.42091e-07
1.47538e-07
-1.39294e-07
-1.50335e-07
1.29018e-07
1.6658e-07
-1.25165e-07
-1.70433e-07
1.12234e-07
1.75805e-07
-1.07694e-07
-1.80345e-07
9.31724e-08
1.76988e-07
-8.82594e-08
-1.81901e-07
7.29675e-08
1.72371e-07
-6.791e-08
-1.77429e-07
5.24755e-08
1.63536e-07
-4.74614e-08
-1.6855e-07
3.24296e-08
1.52123e-07
-2.76254e-08
-1.56927e-07
1.3461e-08
1.389e-07
-9.01231e-09
-1.43349e-07
3.31377e-11
3.89061e-09
-3.85458e-09
-6.91631e-11
1.953e-10
-5.32239e-09
-2.4492e-10
5.37201e-09
4.40469e-10
-8.85534e-09
-5.23029e-10
8.9379e-09
8.50989e-10
-1.46764e-08
-9.88076e-10
1.48135e-08
1.52078e-09
-2.32134e-08
-1.73837e-09
2.3431e-08
2.56217e-09
-3.48385e-08
-2.89067e-09
3.5167e-08
4.10485e-09
-4.9739e-08
-4.57888e-09
5.02131e-08
6.29645e-09
-6.78046e-08
-6.95589e-09
6.84641e-08
9.30987e-09
-8.85638e-08
-1.02029e-08
8.94569e-08
1.33593e-08
-1.1107e-07
-1.45478e-08
1.12259e-07
1.87288e-08
-1.34042e-07
-2.02984e-08
1.35611e-07
2.58111e-08
-1.55557e-07
-2.78783e-08
1.57624e-07
3.51264e-08
-1.73167e-07
-3.78365e-08
1.75877e-07
4.72784e-08
-1.83733e-07
-5.07744e-08
1.87229e-07
6.27513e-08
-1.83554e-07
-6.70916e-08
1.87894e-07
8.15156e-08
-1.69182e-07
-8.65644e-08
1.74231e-07
1.02644e-07
-1.38973e-07
-1.08014e-07
1.44342e-07
1.2421e-07
-9.42457e-08
-1.29301e-07
9.93376e-08
1.43611e-07
-3.93162e-08
-1.4775e-07
4.34556e-08
1.58229e-07
1.93551e-08
-1.60853e-07
-1.67313e-08
1.66111e-07
7.51561e-08
-1.6689e-07
-7.43769e-08
1.66343e-07
1.22691e-07
-1.65224e-07
-1.23811e-07
1.59119e-07
1.58761e-07
-1.56308e-07
-1.61572e-07
1.45602e-07
1.82366e-07
-1.41496e-07
-1.86472e-07
1.27524e-07
1.94574e-07
-1.22571e-07
-1.99527e-07
1.0663e-07
1.97395e-07
-1.0121e-07
-2.02815e-07
8.424e-08
1.93495e-07
-7.85817e-08
-1.99154e-07
6.11214e-08
1.84644e-07
-5.53817e-08
-1.90384e-07
3.79969e-08
1.72475e-07
-3.23948e-08
-1.78077e-07
1.57966e-08
1.578e-07
-1.05675e-08
-1.63029e-07
3.03976e-11
4.02889e-09
-3.99518e-09
-6.41035e-11
1.8107e-10
-5.51532e-09
-2.26967e-10
5.56122e-09
4.07841e-10
-9.17637e-09
-4.84218e-10
9.25275e-09
7.87664e-10
-1.52095e-08
-9.14526e-10
1.53364e-08
1.40764e-09
-2.40598e-08
-1.60913e-09
2.42613e-08
2.37232e-09
-3.61168e-08
-2.67677e-09
3.64212e-08
3.80287e-09
-5.15845e-08
-4.24284e-09
5.20245e-08
5.83888e-09
-7.03745e-08
-6.45255e-09
7.09882e-08
8.64783e-09
-9.205e-08
-9.48277e-09
9.2885e-08
1.24441e-08
-1.15723e-07
-1.35636e-08
1.16842e-07
1.75233e-08
-1.40212e-07
-1.90188e-08
1.41708e-07
2.43119e-08
-1.63733e-07
-2.63136e-08
1.65735e-07
3.34062e-08
-1.83972e-07
-3.60882e-08
1.86654e-07
4.55593e-08
-1.97817e-07
-4.9116e-08
2.01374e-07
6.14992e-08
-2.01253e-07
-6.60602e-08
2.05814e-07
8.14854e-08
-1.90044e-07
-8.69792e-08
1.95538e-07
1.04798e-07
-1.61474e-07
-1.10859e-07
1.67535e-07
1.295e-07
-1.15916e-07
-1.35483e-07
1.21898e-07