/*--------------------------------*- C++ -*----------------------------------*\
| =========                 |                                                 |
| \\      /  F ield         | OpenFOAM: The Open Source CFD Toolbox           |
|  \\    /   O peration     | Version:  2.4.0                                 |
|   \\  /    A nd           | Web:      www.OpenFOAM.org                      |
|    \\/     M anipulation  |                                                 |
\*---------------------------------------------------------------------------*/
FoamFile
{
    version     2.0;
    format      ascii;
    class       surfaceScalarField;
    location    "0.195";
    object      phiAlpha;
}
// * * * * * * * * * * * * * * * * * * * * * * * * * * * * * * * * * * * * * //

dimensions      [0 3 -1 0 0 0 0];

internalField   nonuniform List<scalar> 
114720
(
1.10579e-09
-4.12244e-09
-2.4404e-09
5.45705e-09
-3.64735e-09
4.90702e-09
3.2199e-10
-1.58167e-09
-1.12801e-08
1.41938e-08
1.29142e-09
-4.20507e-09
-2.00951e-08
2.09e-08
2.5621e-10
-1.06111e-09
-2.03205e-08
1.92269e-08
-6.44002e-10
1.73765e-09
-1.33336e-08
1.08492e-08
-1.22185e-09
3.70622e-09
-2.72268e-09
3.32852e-10
-9.04606e-10
3.29444e-09
5.91347e-09
-7.35491e-09
-3.22684e-10
1.76413e-09
1.00661e-08
-1.03514e-08
1.35653e-10
1.49659e-10
9.8399e-09
-9.32481e-09
3.88153e-10
-9.03241e-10
6.96124e-09
-6.03941e-09
4.83923e-10
-1.40575e-09
2.8422e-09
-1.80142e-09
4.86948e-10
-1.52773e-09
-1.32982e-09
2.23269e-09
4.01801e-10
-1.30468e-09
-4.69015e-09
5.3355e-09
2.76131e-10
-9.21484e-10
-6.96595e-09
7.36021e-09
1.60146e-10
-5.544e-10
-8.26416e-09
8.4544e-09
6.80558e-11
-2.58297e-10
-8.80531e-09
8.84677e-09
1.76507e-12
-4.32275e-11
-8.79229e-09
8.7226e-09
-4.68884e-11
1.16576e-10
-8.36592e-09
8.21621e-09
-8.1513e-11
2.31222e-10
-7.65373e-09
7.45312e-09
-1.03506e-10
3.04123e-10
-6.77148e-09
6.54505e-09
-1.14957e-10
3.41385e-10
-5.81194e-09
5.57708e-09
-1.18547e-10
3.53411e-10
-4.83661e-09
4.60399e-09
-1.17389e-10
3.50003e-10
-3.8801e-09
3.65529e-09
-1.13266e-10
3.38082e-10
-2.96048e-09
2.74599e-09
-1.07673e-10
3.22161e-10
-2.08848e-09
1.88696e-09
-1.00793e-10
3.02306e-10
-1.27368e-09
1.08721e-09
-9.30293e-11
2.79505e-10
-5.24372e-10
3.54508e-10
-8.46787e-11
2.54542e-10
1.54474e-10
-3.06949e-10
-7.62277e-11
2.28703e-10
7.61857e-10
-8.97163e-10
-6.79887e-11
2.03295e-10
-4.89693e-09
-8.98348e-09
7.41733e-09
6.46309e-09
-1.21051e-08
4.9268e-09
1.42698e-08
-7.09146e-09
-3.11171e-08
1.59955e-08
3.61413e-08
-2.10198e-08
-4.64714e-08
3.61576e-09
4.82832e-08
-5.42764e-09
-4.96676e-08
-6.67727e-09
4.87717e-08
7.57317e-09
-4.21195e-08
-1.39655e-08
3.89539e-08
1.71312e-08
-2.7518e-08
-1.43002e-08
2.35142e-08
1.8304e-08
-1.13374e-08
-1.01519e-08
7.65965e-09
1.38296e-08
1.45576e-09
-3.66945e-09
-3.64735e-09
5.86105e-09
7.9604e-09
1.24584e-09
-8.66794e-09
-5.38309e-10
9.09333e-09
4.12373e-09
-8.7774e-09
-4.43966e-09
6.97817e-09
4.99079e-09
-6.23305e-09
-5.7359e-09
3.84122e-09
4.3543e-09
-3.07343e-09
-5.12209e-09
8.90524e-10
3.17201e-09
-2.42374e-10
-3.82016e-09
-1.50446e-09
2.01781e-09
1.99578e-09
-2.50913e-09
-3.25608e-09
1.07592e-09
3.59151e-09
-1.41135e-09
-4.39153e-09
3.53896e-10
4.58007e-09
-5.42436e-10
-4.94363e-09
-2.17828e-10
4.99735e-09
1.64107e-10
-4.98886e-09
-6.36158e-10
4.93708e-09
6.87944e-10
-4.66278e-09
-8.98072e-10
4.54238e-09
1.01847e-09
-4.10865e-09
-1.0302e-09
3.95038e-09
1.18847e-09
-3.43464e-09
-1.07599e-09
3.25801e-09
1.25262e-09
-2.70293e-09
-1.07586e-09
2.51725e-09
1.26155e-09
-1.9411e-09
-1.05403e-09
1.75005e-09
1.24508e-09
-1.16179e-09
-1.01832e-09
9.68491e-10
1.21162e-09
-3.80422e-10
-9.67056e-10
1.89824e-10
1.15765e-09
3.81093e-10
-9.00189e-10
-5.62962e-10
1.08206e-09
1.09756e-09
-8.2017e-10
-1.26492e-09
9.8753e-10
1.74878e-09
-7.33919e-10
-1.898e-09
8.83138e-10
2.32379e-09
-6.45423e-10
-2.45337e-09
7.75003e-10
-4.59411e-09
-1.39892e-08
1.29004e-08
5.6829e-09
-1.08972e-08
1.39379e-08
1.31831e-08
-1.62239e-08
-3.10234e-08
3.69599e-08
3.64564e-08
-4.2393e-08
-4.8129e-08
1.19005e-08
5.04382e-08
-1.42097e-08
-5.35566e-08
-9.00583e-09
5.33056e-08
9.25683e-09
-4.87497e-08
-2.5348e-08
4.63018e-08
2.77959e-08
-3.71546e-08
-2.91151e-08
3.3932e-08
3.23377e-08
-2.38844e-08
-2.43486e-08
2.0728e-08
2.7505e-08
-1.24967e-08
-1.28188e-08
1.03587e-08
1.49568e-08
-5.63666e-09
-2.49504e-09
4.62956e-09
3.50214e-09
-2.83325e-09
4.15153e-09
2.56611e-09
-3.88439e-09
-2.35063e-09
6.67852e-09
2.40762e-09
-6.73551e-09
-2.79129e-09
6.37494e-09
2.96773e-09
-6.55138e-09
-3.62789e-09
5.10367e-09
3.87522e-09
-5.35101e-09
-4.6556e-09
3.63293e-09
4.90029e-09
-3.87762e-09
-5.54853e-09
2.23775e-09
5.71624e-09
-2.40546e-09
-6.06083e-09
9.95384e-10
6.11442e-09
-1.04897e-09
-6.10198e-09
-8.02631e-11
6.04486e-09
1.37387e-10
-5.73604e-09
-8.88993e-10
5.59876e-09
1.02627e-09
-5.10126e-09
-1.39756e-09
4.91935e-09
1.57947e-09
-4.3292e-09
-1.66038e-09
4.12899e-09
1.86059e-09
-3.50869e-09
-1.7674e-09
3.30454e-09
1.97155e-09
-2.68212e-09
-1.79843e-09
2.47883e-09
2.00172e-09
-1.85925e-09
-1.7982e-09
1.65655e-09
2.0009e-09
-1.03701e-09
-1.77589e-09
8.3435e-10
1.97855e-09
-2.18555e-10
-1.71934e-09
1.90598e-11
1.91884e-09
5.78591e-10
-1.62144e-09
-7.69017e-10
1.81186e-09
1.32817e-09
-1.48446e-09
-1.50271e-09
1.65899e-09
2.00506e-09
-1.32503e-09
-2.15932e-09
1.47929e-09
2.59624e-09
-1.15569e-09
-2.72806e-09
1.28752e-09
-4.72055e-09
-1.7691e-08
1.68446e-08
5.56698e-09
-9.98227e-09
2.29911e-08
1.22039e-08
-2.52127e-08
-3.05053e-08
5.8824e-08
3.60236e-08
-6.43423e-08
-4.77636e-08
2.12188e-08
5.01033e-08
-2.35584e-08
-5.33951e-08
-9.83048e-09
5.32188e-08
1.00067e-08
-4.89162e-08
-3.48514e-08
4.65807e-08
3.71868e-08
-3.79819e-08
-4.14045e-08
3.50536e-08
4.43328e-08
-2.60796e-08
-3.61746e-08
2.33391e-08
3.8915e-08
-1.64926e-08
-2.05892e-08
1.48123e-08
2.22695e-08
-1.13878e-08
-5.96993e-09
1.07491e-08
6.60856e-09
-9.82763e-09
3.26957e-09
9.7505e-09
-3.19244e-09
-9.84411e-09
6.8046e-09
9.92716e-09
-6.88765e-09
-1.02028e-08
6.8299e-09
1.02875e-08
-6.91455e-09
-1.05094e-08
5.75383e-09
1.05665e-08
-5.81093e-09
-1.06639e-08
4.22678e-09
1.06612e-08
-4.22414e-09
-1.05141e-08
2.50349e-09
1.04162e-08
-2.40564e-09
-9.96483e-09
8.24521e-10
9.77001e-09
-6.29705e-10
-9.05245e-09
-6.43853e-10
8.78337e-09
9.12926e-10
-7.8868e-09
-1.71537e-09
7.57564e-09
2.02654e-09
-6.59841e-09
-2.35019e-09
6.27553e-09
2.67308e-09
-5.29913e-09
-2.64107e-09
4.98627e-09
2.95393e-09
-4.06213e-09
-2.72255e-09
3.77122e-09
3.01345e-09
-2.92016e-09
-2.71406e-09
2.65359e-09
2.98063e-09
-1.87363e-09
-2.68061e-09
1.62862e-09
2.92562e-09
-9.08018e-10
-2.63362e-09
6.80672e-10
2.86097e-09
-1.17173e-11
-2.54632e-09
-1.98881e-10
2.75692e-09
8.14641e-10
-2.39916e-09
-1.00645e-09
2.59098e-09
1.55924e-09
-2.18954e-09
-1.72886e-09
2.35916e-09
2.20898e-09
-1.94218e-09
-2.35398e-09
2.08718e-09
2.75912e-09
-1.67895e-09
-2.87975e-09
1.79957e-09
-5.13661e-09
-2.06012e-08
1.99489e-08
5.78894e-09
-9.49029e-09
3.17525e-08
1.16218e-08
-3.3884e-08
-3.05366e-08
8.10484e-08
3.61639e-08
-8.66757e-08
-4.79309e-08
3.05719e-08
5.02685e-08
-3.29095e-08
-5.35954e-08
-1.05308e-08
5.34249e-08
1.07013e-08
-4.90179e-08
-4.42743e-08
4.66208e-08
4.66715e-08
-3.78569e-08
-5.30549e-08
3.49559e-08
5.59558e-08
-2.59366e-08
-4.70457e-08
2.32106e-08
4.97717e-08
-1.65979e-08
-2.70298e-08
1.50519e-08
2.85759e-08
-1.21577e-08
-8.15652e-09
1.17191e-08
8.59507e-09
-1.14672e-08
3.351e-09
1.16238e-08
-3.50754e-09
-1.2423e-08
7.45935e-09
1.27176e-08
-7.75387e-09
-1.34934e-08
7.2976e-09
1.36736e-08
-7.47773e-09
-1.39316e-08
5.85295e-09
1.3919e-08
-5.84034e-09
-1.36205e-08
3.93173e-09
1.34501e-08
-3.76126e-09
-1.27544e-08
1.80612e-09
1.24794e-08
-1.5311e-09
-1.15294e-08
-2.13982e-10
1.11889e-08
5.54496e-10
-1.0078e-08
-1.92531e-09
9.6956e-09
2.30776e-09
-8.48866e-09
-3.12349e-09
8.08596e-09
3.52619e-09
-6.85171e-09
-3.77693e-09
6.45175e-09
4.17689e-09
-5.26124e-09
-4.00264e-09
4.88446e-09
4.37942e-09
-3.78423e-09
-3.97309e-09
3.4422e-09
4.31513e-09
-2.45654e-09
-3.8421e-09
2.15331e-09
4.14533e-09
-1.28561e-09
-3.69545e-09
1.0201e-09
3.96096e-09
-2.63036e-10
-3.55019e-09
3.21987e-11
3.78102e-09
6.23392e-10
-3.37193e-09
-8.22333e-10
3.57087e-09
1.38394e-09
-3.13212e-09
-1.55288e-09
3.30106e-09
2.02438e-09
-2.82273e-09
-2.16445e-09
2.9628e-09
2.55e-09
-2.47325e-09
-2.66307e-09
2.58632e-09
2.96975e-09
-2.11216e-09
-3.05837e-09
2.20077e-09
-5.74843e-09
-2.25942e-08
2.21996e-08
6.14306e-09
-8.97171e-09
4.01019e-08
1.09773e-08
-4.21075e-08
-3.06993e-08
1.03764e-07
3.64703e-08
-1.09535e-07
-4.82858e-08
3.99265e-08
5.06265e-08
-4.22672e-08
-5.40235e-08
-1.11855e-08
5.38741e-08
1.13349e-08
-4.93706e-08
-5.39755e-08
4.68969e-08
5.64491e-08
-3.78716e-08
-6.46289e-08
3.50014e-08
6.74991e-08
-2.56878e-08
-5.80852e-08
2.28633e-08
6.09098e-08
-1.60826e-08
-3.32105e-08
1.45274e-08
3.47657e-08
-1.17221e-08
-9.80105e-09
1.13426e-08
1.01806e-08
-1.13525e-08
4.17667e-09
1.16238e-08
-4.44791e-09
-1.28404e-08
8.8802e-09
1.32795e-08
-9.31931e-09
-1.44405e-08
8.16242e-09
1.47093e-08
-8.43115e-09
-1.50781e-08
5.76928e-09
1.50504e-08
-5.7416e-09
-1.45957e-08
3.11742e-09
1.43536e-08
-2.87529e-09
-1.34361e-08
5.81589e-10
1.3096e-08
-2.41442e-10
-1.19823e-08
-1.66241e-09
1.15989e-08
2.04585e-09
-1.0377e-08
-3.51979e-09
9.96147e-09
3.93535e-09
-8.65379e-09
-4.79489e-09
8.21716e-09
5.23152e-09
-6.87929e-09
-5.43671e-09
6.44492e-09
5.87108e-09
-5.14962e-09
-5.5647e-09
4.73994e-09
5.97438e-09
-3.54627e-09
-5.38777e-09
3.17634e-09
5.75771e-09
-2.11549e-09
-5.09004e-09
1.79133e-09
5.4142e-09
-8.72312e-10
-4.77788e-09
5.94348e-10
5.05584e-09
1.8722e-10
-4.47803e-09
-4.21732e-10
4.71254e-09
1.07668e-09
-4.15814e-09
-1.27202e-09
4.35348e-09
1.81437e-09
-3.78821e-09
-1.97483e-09
3.94867e-09
2.41537e-09
-3.35736e-09
-2.54402e-09
3.48601e-09
2.89089e-09
-2.89579e-09
-2.99012e-09
2.99502e-09
3.25122e-09
-2.43527e-09
-3.32372e-09
2.50778e-09
-6.56032e-09
-2.33018e-08
2.32708e-08
6.59134e-09
-8.32759e-09
4.78874e-08
1.01657e-08
-4.97255e-08
-3.09253e-08
1.27099e-07
3.68691e-08
-1.33043e-07
-4.87321e-08
4.92952e-08
5.10768e-08
-5.16398e-08
-5.45679e-08
-1.17369e-08
5.44516e-08
1.18532e-08
-4.98495e-08
-6.39993e-08
4.72858e-08
6.6563e-08
-3.79368e-08
-7.59843e-08
3.51694e-08
7.87517e-08
-2.54793e-08
-6.95639e-08
2.25302e-08
7.2513e-08
-1.55061e-08
-3.94805e-08
1.39169e-08
4.10697e-08
-1.11229e-08
-1.12729e-08
1.07741e-08
1.16218e-08
-1.09368e-08
5.36738e-09
1.1276e-08
-5.7065e-09
-1.27418e-08
1.07776e-08
1.32688e-08
-1.13046e-08
-1.46698e-08
9.33114e-09
1.49968e-08
-9.65823e-09
-1.54602e-08
5.6638e-09
1.54381e-08
-5.64172e-09
-1.49522e-08
2.11291e-09
1.46921e-08
-1.85282e-09
-1.37254e-08
-8.03351e-10
1.33747e-08
1.15401e-09
-1.22489e-08
-3.20257e-09
1.18656e-08
3.58588e-09
-1.06402e-08
-5.194e-09
1.02193e-08
5.61492e-09
-8.87781e-09
-6.56787e-09
8.42471e-09
7.02096e-09
-7.0244e-09
-7.2091e-09
6.56719e-09
7.66632e-09
-5.2001e-09
-7.23862e-09
4.76771e-09
7.67102e-09
-3.51004e-09
-6.89658e-09
3.12175e-09
7.28487e-09
-2.0141e-09
-6.40694e-09
1.67768e-09
6.74337e-09
-7.2938e-10
-5.90216e-09
4.43955e-10
6.18758e-09
3.56632e-10
-5.42464e-09
-5.97003e-10
5.66502e-09
1.27179e-09
-4.94857e-09
-1.47494e-09
5.15172e-09
2.04684e-09
-4.44241e-09
-2.21914e-09
4.61471e-09
2.70057e-09
-3.88623e-09
-2.84356e-09
4.02922e-09
3.23288e-09
-3.30364e-09
-3.34449e-09
3.41526e-09
3.6329e-09
-2.72713e-09
-3.71042e-09
2.80466e-09
-7.61752e-09
-2.22163e-08
2.26891e-08
7.14475e-09
-7.53036e-09
5.49283e-08
9.14876e-09
-5.65467e-08
-3.12083e-08
1.51162e-07
3.73494e-08
-1.57303e-07
-4.92421e-08
5.86781e-08
5.15896e-08
-6.10256e-08
-5.51958e-08
-1.21383e-08
5.51248e-08
1.22093e-08
-5.04153e-08
-7.44121e-08
4.77411e-08
7.70863e-08
-3.79719e-08
-8.6767e-08
3.5426e-08
8.9313e-08
-2.52486e-08
-8.15707e-08
2.21544e-08
8.46649e-08
-1.48514e-08
-4.58924e-08
1.32247e-08
4.75192e-08
-1.04529e-08
-1.26161e-08
1.01408e-08
1.29282e-08
-1.04738e-08
6.82437e-09
1.08823e-08
-7.23282e-09
-1.25817e-08
1.30003e-08
1.31863e-08
-1.36049e-08
-1.47932e-08
1.07136e-08
1.51699e-08
-1.10904e-08
-1.57191e-08
5.5905e-09
1.5707e-08
-5.57843e-09
-1.52217e-08
1.06599e-09
1.49575e-08
-8.01862e-10
-1.39845e-08
-2.20199e-09
1.36371e-08
2.54945e-09
-1.25391e-08
-4.71953e-09
1.21681e-08
5.09052e-09
-1.09705e-08
-6.87553e-09
1.05518e-08
7.2943e-09
-9.18905e-09
-8.40225e-09
8.72099e-09
8.87031e-09
-7.25812e-09
-9.07246e-09
6.77714e-09
9.55344e-09
-5.33672e-09
-9.00169e-09
4.88129e-09
9.45713e-09
-3.56202e-09
-8.47411e-09
3.15722e-09
8.87891e-09
-2.01157e-09
-7.76589e-09
1.6666e-09
8.11086e-09
-7.01495e-10
-7.04997e-09
4.12582e-10
7.33888e-09
3.98043e-10
-6.39385e-09
-6.4288e-10
6.63869e-09
1.34074e-09
-5.7789e-09
-1.55569e-09
5.99385e-09
2.18062e-09
-5.16434e-09
-2.376e-09
5.35972e-09
2.94537e-09
-4.50363e-09
-3.12179e-09
4.68005e-09
3.61831e-09
-3.79467e-09
-3.76412e-09
3.94048e-09
4.14064e-09
-3.06269e-09
-4.23828e-09
3.16033e-09
-8.98258e-09
-1.86724e-08
1.98325e-08
7.82257e-09
-6.5639e-09
6.09971e-08
7.89679e-09
-6.23299e-08
-3.15733e-08
1.76052e-07
3.7935e-08
-1.82414e-07
-4.98314e-08
6.80722e-08
5.21812e-08
-7.04221e-08
-5.59261e-08
-1.23366e-08
5.59158e-08
1.23469e-08
-5.10907e-08
-8.53063e-08
4.82786e-08
8.81184e-08
-3.79561e-08
-9.64218e-08
3.5805e-08
9.85729e-08
-2.49815e-08
-9.41923e-08
2.17204e-08
9.74534e-08
-1.40926e-08
-5.2462e-08
1.24229e-08
5.41317e-08
-9.68995e-09
-1.37981e-08
9.42388e-09
1.40642e-08
-9.96445e-09
8.57742e-09
1.04552e-08
-9.06822e-09
-1.24275e-08
1.55479e-08
1.31218e-08
-1.62422e-08
-1.49656e-08
1.23016e-08
1.53986e-08
-1.27345e-08
-1.6039e-08
5.5552e-09
1.60347e-08
-5.55097e-09
-1.55382e-08
-3.95254e-13
1.52657e-08
2.72841e-10
-1.42766e-08
-3.58748e-09
1.39311e-08
3.9329e-09
-1.28696e-08
-6.1779e-09
1.25173e-08
6.53013e-09
-1.13685e-08
-8.54294e-09
1.09558e-08
8.95561e-09
-9.57304e-09
-1.03001e-08
9.0872e-09
1.0786e-08
-7.54784e-09
-1.10381e-08
7.03767e-09
1.15482e-08
-5.50609e-09
-1.08641e-08
5.02198e-09
1.13482e-08
-3.62658e-09
-1.01216e-08
3.20185e-09
1.05464e-08
-2.01294e-09
-9.15807e-09
1.65957e-09
9.51144e-09
-6.83643e-10
-8.20657e-09
3.94954e-10
8.49526e-09
4.10338e-10
-7.37375e-09
-6.53565e-10
7.61698e-09
1.35451e-09
-6.65105e-09
-1.57479e-09
6.87134e-09
2.23549e-09
-5.98018e-09
-2.45017e-09
6.19486e-09
3.10472e-09
-5.26782e-09
-3.31748e-09
5.48057e-09
3.94612e-09
-4.44821e-09
-4.13883e-09
4.64092e-09
4.647e-09
-3.49823e-09
-4.77704e-09
3.62826e-09
-1.07389e-08
-1.17986e-08
1.38863e-08
8.65118e-09
-5.4016e-09
6.58057e-08
6.36755e-09
-6.67716e-08
-3.20363e-08
2.01849e-07
3.86336e-08
-2.08446e-07
-5.04978e-08
7.74746e-08
5.28496e-08
-7.98265e-08
-5.67589e-08
-1.2264e-08
5.68291e-08
1.21938e-08
-5.18866e-08
-9.68037e-08
4.88993e-08
9.9791e-08
-3.78618e-08
-1.04173e-07
3.63324e-08
1.05702e-07
-2.46616e-08
-1.07505e-07
2.12198e-08
1.10947e-07
-1.32141e-08
-5.92142e-08
1.14935e-08
6.09348e-08
-8.81744e-09
-1.47836e-08
8.60552e-09
1.49955e-08
-9.39002e-09
1.06803e-08
9.9767e-09
-1.1267e-08
-1.22719e-08
1.84816e-08
1.30749e-08
-1.92846e-08
-1.52121e-08
1.41326e-08
1.57145e-08
-1.4635e-08
-1.6457e-08
5.54445e-09
1.64556e-08
-5.54301e-09
-1.59194e-08
-1.11451e-09
1.56282e-08
1.40568e-09
-1.45965e-08
-4.97149e-09
1.42481e-08
5.3198e-09
-1.32295e-08
-7.54792e-09
1.29058e-08
7.87165e-09
-1.18377e-08
-1.0178e-08
1.14369e-08
1.05788e-08
-1.00331e-08
-1.2275e-08
9.52505e-09
1.2783e-08
-7.88929e-09
-1.31318e-08
7.34168e-09
1.36794e-08
-5.68957e-09
-1.28542e-08
5.16745e-09
1.33763e-08
-3.6706e-09
-1.18581e-08
3.2191e-09
1.23096e-08
-1.97271e-09
-1.05861e-08
1.60912e-09
1.09497e-08
-6.2687e-10
-9.35534e-09
3.43369e-10
9.63884e-09
4.29209e-10
-8.32974e-09
-6.57667e-10
8.5582e-09
1.30735e-09
-7.51579e-09
-1.51008e-09
7.71852e-09
2.11946e-09
-6.83285e-09
-2.31927e-09
7.03266e-09
2.93868e-09
-6.13146e-09
-3.14431e-09
6.33709e-09
3.7663e-09
-5.25319e-09
-3.96097e-09
5.44785e-09
4.48316e-09
-4.06206e-09
-4.62021e-09
4.1991e-09
-1.29956e-08
-4.45292e-10
3.77978e-09
9.66106e-09
-4.00526e-09
6.90139e-08
4.50698e-09
-6.95156e-08
-3.26003e-08
2.286e-07
3.944e-08
-2.35439e-07
-5.12199e-08
8.68841e-08
5.35735e-08
-8.92377e-08
-5.76727e-08
-1.18334e-08
5.78488e-08
1.16572e-08
-5.27998e-08
-1.09076e-07
4.95833e-08
1.12292e-07
-3.76472e-08
-1.09028e-07
3.7027e-08
1.09649e-07
-2.42621e-08
-1.21543e-07
2.06417e-08
1.25163e-07
-1.22002e-08
-6.61847e-08
1.04183e-08
6.79667e-08
-7.82352e-09
-1.55412e-08
7.67304e-09
1.56917e-08
-8.73721e-09
1.31859e-08
9.43238e-09
-1.3881e-08
-1.21021e-08
2.18819e-08
1.30354e-08
-2.28152e-08
-1.55349e-08
1.62658e-08
1.61237e-08
-1.68546e-08
-1.69806e-08
5.53442e-09
1.69744e-08
-5.52823e-09
-1.63609e-08
-2.32293e-09
1.60375e-08
2.64637e-09
-1.49272e-08
-6.37774e-09
1.45682e-08
6.73682e-09
-1.36006e-08
-8.78225e-09
1.33214e-08
9.06151e-09
-1.23897e-08
-1.17527e-08
1.20106e-08
1.21319e-08
-1.05836e-08
-1.43479e-08
1.00465e-08
1.4885e-08
-8.28525e-09
-1.53906e-08
7.68891e-09
1.5987e-08
-5.88177e-09
-1.50132e-08
5.30948e-09
1.55854e-08
-3.67461e-09
-1.37171e-08
3.1854e-09
1.42063e-08
-1.85877e-09
-1.20598e-08
1.4811e-09
1.24374e-08
-4.95156e-10
-1.04741e-08
2.22987e-10
1.07463e-08
4.79801e-10
-9.19946e-09
-6.74787e-10
9.39444e-09
1.19302e-09
-8.25916e-09
-1.34365e-09
8.4098e-09
1.76731e-09
-7.54341e-09
-1.89776e-09
7.67385e-09
2.28031e-09
-6.8456e-09
-2.40044e-09
6.96574e-09
2.73847e-09
-5.89778e-09
-2.83425e-09
5.99357e-09
3.0564e-09
-4.44841e-09
-3.10644e-09
4.49846e-09
-1.58969e-08
1.69327e-08
-1.19196e-08
1.08837e-08
-2.41837e-09
7.00955e-08
2.25107e-09
-6.99282e-08
-3.33057e-08
2.56318e-07
4.03785e-08
-2.63391e-07
-5.20115e-08
9.63043e-08
5.43697e-08
-9.86626e-08
-5.86857e-08
-1.09323e-08
5.90006e-08
1.06174e-08
-5.3871e-08
-1.22381e-07
5.03408e-08
1.25911e-07
-3.72871e-08
-1.09716e-07
3.79522e-08
1.09051e-07
-2.37796e-08
-1.36282e-07
1.99883e-08
1.40074e-07
-1.10443e-08
-7.34205e-08
9.18771e-09
7.52771e-08
-6.70417e-09
-1.60435e-08
6.62138e-09
1.61263e-08
-8.00269e-09
1.61439e-08
8.81842e-09
-1.69596e-08
-1.19168e-08
2.58393e-08
1.30048e-08
-2.69273e-08
-1.59511e-08
1.87754e-08
1.66479e-08
-1.94722e-08
-1.76312e-08
5.49004e-09
1.76092e-08
-5.46802e-09
-1.68691e-08
-3.68402e-09
1.6497e-08
4.05615e-09
-1.52606e-08
-7.84539e-09
1.48771e-08
8.22893e-09
-1.3965e-08
-9.80376e-09
1.37564e-08
1.00124e-08
-1.30581e-08
-1.32213e-08
1.27144e-08
1.3565e-08
-1.12536e-08
-1.65525e-08
1.06763e-08
1.71298e-08
-8.75135e-09
-1.78647e-08
8.09292e-09
1.85231e-08
-6.08387e-09
-1.73964e-08
5.44483e-09
1.80354e-08
-3.62062e-09
-1.57461e-08
3.07921e-09
1.62875e-08
-1.63468e-09
-1.36e-08
1.23517e-09
1.39995e-08
-2.39635e-10
-1.15398e-08
-1.6556e-11
1.1796e-08
6.14313e-10
-9.90696e-09
-7.57477e-10
1.00501e-08
1.06926e-09
-8.74691e-09
-1.13777e-09
8.81542e-09
1.27114e-09
-7.91443e-09
-1.29465e-09
7.93794e-09
1.31978e-09
-7.1484e-09
-1.31582e-09
7.14444e-09
1.28756e-09
-6.14149e-09
-1.28283e-09
6.13676e-09
1.35861e-09
-4.73372e-09
-1.43773e-09
4.81284e-09
-1.96377e-08
4.24573e-08
-3.51682e-08
1.23486e-08
-6.1718e-10
6.81105e-08
-5.10402e-10
-6.69829e-08
-3.42027e-08
2.84903e-07
4.14533e-08
-2.92154e-07
-5.286e-08
1.05752e-07
5.52301e-08
-1.08122e-07
-5.97872e-08
-9.41557e-09
6.02834e-08
8.91935e-09
-5.51231e-08
-1.37111e-07
5.11576e-08
1.41077e-07
-3.67241e-08
-1.04557e-07
3.91718e-08
1.02109e-07
-2.31998e-08
-1.5171e-07
1.92292e-08
1.55681e-07
-9.73033e-09
-8.09731e-08
7.78838e-09
8.2915e-08
-5.4484e-09
-1.6265e-08
5.44096e-09
1.62724e-08
-7.17882e-09
1.9601e-08
8.12594e-09
-2.05481e-08
-1.17083e-08
3.04551e-08
1.2978e-08
-3.17248e-08
-1.64758e-08
2.17573e-08
1.73092e-08
-2.25906e-08
-1.84295e-08
5.36012e-09
1.83756e-08
-5.30614e-09
-1.74443e-08
-5.26866e-09
1.70038e-08
5.70916e-09
-1.558e-08
-9.44273e-09
1.51478e-08
9.87487e-09
-1.42767e-08
-1.04852e-08
1.41817e-08
1.05802e-08
-1.38936e-08
-1.45219e-08
1.36035e-08
1.4812e-08
-1.20723e-08
-1.8941e-08
1.14377e-08
1.95755e-08
-9.30364e-09
-2.061e-08
8.56751e-09
2.13461e-08
-6.3004e-09
-2.00778e-08
5.57291e-09
2.08053e-08
-3.48935e-09
-1.80171e-08
2.87215e-09
1.86343e-08
-1.25012e-09
-1.52466e-08
8.14273e-10
1.56825e-08
2.13372e-10
-1.25396e-08
-4.53635e-10
1.27799e-08
9.24728e-10
-1.03843e-08
-1.00258e-09
1.04622e-08
1.05165e-09
-8.86875e-09
-1.01581e-09
8.8329e-09
7.84146e-10
-7.81397e-09
-6.75327e-10
7.70515e-09
2.68163e-10
-6.91127e-09
-1.16423e-10
6.75953e-09
-3.69801e-10
-5.88328e-09
5.27344e-10
5.72574e-09
-9.72799e-10
-4.69845e-09
1.10731e-09
4.56394e-09
-2.44944e-08
7.91063e-08
-6.86935e-08
1.40815e-08
1.54554e-09
6.19048e-08
-3.84067e-09
-5.96097e-08
-3.53414e-08
3.14058e-07
4.26685e-08
-3.21385e-07
-5.37567e-08
1.15268e-07
5.61549e-08
-1.17667e-07
-6.0971e-08
-7.09647e-09
6.17025e-08
6.36503e-09
-5.66053e-08
-1.53819e-07
5.20296e-08
1.58395e-07
-3.58917e-08
-9.1374e-08
4.07432e-08
8.65225e-08
-2.24881e-08
-1.67903e-07
1.83016e-08
1.72089e-07
-8.23878e-09
-8.88727e-08
6.21022e-09
9.09013e-08
-4.04094e-09
-1.61623e-08
4.12805e-09
1.60752e-08
-6.25859e-09
2.35975e-08
7.34592e-09
-2.46849e-08
-1.1467e-08
3.58415e-08
1.29482e-08
-3.73227e-08
-1.71307e-08
2.53411e-08
1.81409e-08
-2.63513e-08
-1.94063e-08
5.06886e-09
1.9296e-08
-4.95852e-09
-1.80878e-08
-7.15928e-09
1.75568e-08
7.69029e-09
-1.58728e-08
-1.12904e-08
1.53501e-08
1.18132e-08
-1.44435e-08
-1.06178e-08
1.45321e-08
1.05292e-08
-1.50032e-08
-1.55784e-08
1.47847e-08
1.5797e-08
-1.30702e-08
-2.15963e-08
1.23504e-08
2.23162e-08
-9.96136e-09
-2.36899e-08
9.13218e-09
2.45191e-08
-6.54551e-09
-2.31521e-08
5.70211e-09
2.39955e-08
-3.26133e-09
-2.06369e-08
2.53458e-09
2.13636e-08
-6.40939e-10
-1.70718e-08
1.4365e-10
1.75691e-08
9.67468e-10
-1.34852e-08
-1.19994e-09
1.37176e-08
1.54973e-09
-1.0594e-08
-1.56062e-09
1.06049e-08
1.34587e-09
-8.56839e-09
-1.2096e-09
8.43212e-09
6.48032e-10
-7.19489e-09
-4.27592e-10
6.97445e-09
-3.15386e-10
-6.12256e-09
5.72102e-10
5.86584e-09
-1.35451e-09
-5.114e-09
1.6013e-09
4.86721e-09
-2.31001e-09
-4.17167e-09
2.53801e-09
3.94368e-09
-3.0876e-08
1.31207e-07
-1.16422e-07
1.60907e-08
4.07059e-09
5.05187e-08
-7.94406e-09
-4.66452e-08
-3.67496e-08
3.43332e-07
4.40232e-08
-3.50605e-07
-5.46901e-08
1.24938e-07
5.71477e-08
-1.27395e-07
-6.22274e-08
-3.74031e-09
6.32618e-08
2.70593e-09
-5.84335e-08
-1.73408e-07
5.28882e-08
1.78954e-07
-3.47216e-08
-6.74415e-08
4.28119e-08
5.93512e-08
-2.1566e-08
-1.85024e-07
1.71235e-08
1.89467e-07
-6.53822e-09
-9.71034e-08
4.43795e-09
9.92037e-08
-2.46263e-09
-1.56241e-08
2.6883e-09
1.53985e-08
-5.23421e-09
2.81645e-08
6.4673e-09
-2.93976e-08
-1.11789e-08
4.21209e-08
1.29034e-08
-4.38454e-08
-1.79438e-08
2.97145e-08
1.91911e-08
-3.09618e-08
-2.06023e-08
4.50175e-09
2.03987e-08
-4.29815e-09
-1.87985e-08
-9.44612e-09
1.81543e-08
1.00903e-08
-1.61422e-08
-1.35939e-08
1.54607e-08
1.42754e-08
-1.42883e-08
-9.85116e-09
1.46901e-08
9.44938e-09
-1.66597e-08
-1.63589e-08
1.64847e-08
1.65339e-08
-1.42503e-08
-2.4651e-08
1.3405e-08
2.54963e-08
-1.07506e-08
-2.71595e-08
9.8186e-09
2.80915e-08
-6.8506e-09
-2.67394e-08
5.85677e-09
2.77333e-08
-2.92476e-09
-2.37626e-08
2.03977e-09
2.46475e-08
2.71832e-10
-1.91974e-08
-8.70927e-10
1.97965e-08
2.1526e-09
-1.44206e-08
-2.39233e-09
1.46604e-08
2.6362e-09
-1.05401e-08
-2.58095e-09
1.04848e-08
2.12275e-09
-7.89753e-09
-1.90508e-09
7.67985e-09
1.12655e-09
-6.2143e-09
-8.50709e-10
5.93845e-09
-6.10631e-12
-5.03988e-09
2.82996e-10
4.76299e-09
-1.09108e-09
-4.08634e-09
1.33983e-09
3.83759e-09
-2.04285e-09
-3.22814e-09
2.25399e-09
3.017e-09
-3.94978e-08
2.05425e-07
-1.84294e-07
1.83664e-08
6.93855e-09
3.19465e-08
-1.30263e-08
-2.58588e-08
-3.84442e-08
3.72169e-07
4.55127e-08
-3.79237e-07
-5.56531e-08
1.34919e-07
5.82266e-08
-1.37493e-07
-6.35477e-08
9.56407e-10
6.49778e-08
-2.38648e-09
-6.07727e-08
-1.97893e-07
5.35015e-08
2.05164e-07
-3.35735e-08
-2.84711e-08
4.65802e-08
1.54644e-08
-2.03279e-08
-2.03192e-07
1.56249e-08
2.07895e-07
-4.59095e-09
-1.05573e-07
2.44377e-09
1.07721e-07
-6.82125e-10
-1.44285e-08
1.12661e-09
1.3984e-08
-4.09774e-09
3.33175e-08
5.47733e-09
-3.46971e-08
-1.08244e-08
4.94226e-08
1.28248e-08
-5.1423e-08
-1.89514e-08
3.51668e-08
2.05337e-08
-3.67491e-08
-2.20732e-08
3.4844e-09
2.17199e-08
-3.13109e-09
-1.95677e-08
-1.22195e-08
1.87877e-08
1.29995e-08
-1.64412e-08
-1.66668e-08
1.55084e-08
1.75996e-08
-1.35798e-08
-7.45053e-09
1.46121e-08
6.41822e-09
-1.93656e-08
-1.72204e-08
1.90034e-08
1.75825e-08
-1.55161e-08
-2.82597e-08
1.45223e-08
2.92535e-08
-1.17133e-08
-3.10381e-08
1.06848e-08
3.20667e-08
-7.27853e-09
-3.09895e-08
6.09216e-09
3.21758e-08
-2.48953e-09
-2.76197e-08
1.37619e-09
2.8733e-08
1.56604e-09
-2.18176e-08
-2.32988e-09
2.25814e-08
3.91702e-09
-1.54142e-08
-4.18542e-09
1.56826e-08
4.32728e-09
-1.02083e-08
-4.1955e-09
1.00765e-08
3.47484e-09
-6.91332e-09
-3.18326e-09
6.62174e-09
2.27269e-09
-5.08295e-09
-1.98933e-09
4.79959e-09
1.2151e-09
-3.99365e-09
-9.95671e-10
3.77422e-09
4.3474e-10
-3.21495e-09
-2.86376e-10
3.06659e-09
-5.99101e-11
-2.55965e-09
1.38348e-10
2.48121e-09
-5.19714e-08
3.1327e-07
-2.82177e-07
2.08787e-08
1.01374e-08
3.16852e-09
-1.94382e-08
6.13226e-09
-4.0401e-08
3.99932e-07
4.70956e-08
-4.06627e-07
-5.6634e-08
1.45486e-07
5.94092e-08
-1.48261e-07
-6.49158e-08
7.4144e-09
6.68688e-08
-9.36747e-09
-6.36438e-08
-2.30537e-07
5.39015e-08
2.40279e-07
-3.37549e-08
3.46186e-08
5.49501e-08
-5.58138e-08
-1.86932e-08
-2.2235e-07
1.37648e-08
2.27279e-07
-2.46845e-09
-1.14314e-07
1.57386e-10
1.16625e-07
1.28076e-09
-1.22149e-08
-5.77779e-10
1.15119e-08
-2.83856e-09
3.90471e-08
4.35663e-09
-4.05651e-08
-1.03711e-08
5.78736e-08
1.26773e-08
-6.01798e-08
-2.01869e-08
4.21849e-08
2.22769e-08
-4.42748e-08
-2.38819e-08
1.75065e-09
2.32931e-08
-1.1618e-09
-2.03583e-08
-1.55738e-08
1.94143e-08
1.65178e-08
-1.69274e-08
-2.08689e-08
1.56774e-08
2.2119e-08
-1.24643e-08
-1.63032e-09
1.47532e-08
-6.58572e-10
-2.2241e-08
-1.93923e-08
2.13886e-08
2.02447e-08
-1.65486e-08
-3.23327e-08
1.5558e-08
3.33234e-08
-1.29256e-08
-3.52594e-08
1.18363e-08
3.63488e-08
-7.95062e-09
-3.60763e-08
6.52806e-09
3.74989e-08
-2.05244e-09
-3.25111e-08
6.3165e-10
3.39319e-08
3.19179e-09
-2.52099e-08
-4.19069e-09
2.62088e-08
6.22841e-09
-1.65616e-08
-6.5462e-09
1.68794e-08
6.58043e-09
-9.55075e-09
-6.35833e-09
9.32865e-09
5.35558e-09
-5.64994e-09
-5.0024e-09
5.29676e-09
4.0713e-09
-4.00757e-09
-3.83799e-09
3.77427e-09
3.35746e-09
-3.29413e-09
-3.26868e-09
3.20536e-09
3.16281e-09
-2.85145e-09
-3.17204e-09
2.86067e-09
3.29917e-09
-2.48179e-09
-3.36764e-09
2.55026e-09
-7.45054e-08
4.81558e-07
-4.30688e-07
2.3635e-08
1.3572e-08
-4.06604e-08
-2.77264e-08
5.48147e-08
-4.25353e-08
4.25954e-07
4.87006e-08
-4.32119e-07
-5.77287e-08
1.5696e-07
6.07367e-08
-1.59968e-07
-6.6504e-08
1.61918e-08
6.91268e-08
-1.88146e-08
-6.70431e-08
-2.73484e-07
5.46295e-08
2.85898e-07
-3.67628e-08
1.35989e-07
6.96162e-08
-1.68843e-07
-1.6479e-08
-2.42424e-07
1.12778e-08
2.47625e-07
-2.79404e-10
-1.24083e-07
-2.46577e-09
1.26829e-07
3.52153e-09
-8.90946e-09
-2.43734e-09
7.82527e-09
-1.43768e-09
4.53079e-08
3.07828e-09
-4.69485e-08
-9.78017e-09
6.75843e-08
1.24131e-08
-7.02172e-08
-2.16814e-08
5.16599e-08
2.46088e-08
-5.45873e-08
-2.61107e-08
-1.10109e-09
2.5159e-08
2.05279e-09
-2.11025e-08
-1.96573e-08
1.99341e-08
2.08257e-08
-1.79671e-08
-2.62548e-08
1.65204e-08
2.77014e-08
-1.2158e-08
9.09124e-09
1.4933e-08
-1.18663e-08
-2.08921e-08
-2.29679e-08
2.0195e-08
2.36651e-08
-1.70371e-08
-3.5711e-08
1.65708e-08
3.61773e-08
-1.45832e-08
-3.96367e-08
1.34944e-08
4.07255e-08
-9.14191e-09
-4.21548e-08
7.46357e-09
4.38332e-08
-2.03377e-09
-3.87037e-08
2.89263e-10
4.04482e-08
4.33235e-09
-2.95261e-08
-5.49807e-09
3.06918e-08
7.73021e-09
-1.78498e-08
-8.03348e-09
1.81531e-08
7.91348e-09
-8.53613e-09
-7.63296e-09
8.25561e-09
6.51637e-09
-4.1948e-09
-6.16523e-09
3.84365e-09
5.40173e-09
-3.21313e-09
-5.27561e-09
3.08701e-09
5.23591e-09
-3.18099e-09
-5.31231e-09
3.25739e-09
5.71035e-09
-3.12201e-09
-5.87185e-09
3.28351e-09
6.38258e-09
-2.90419e-09
-6.54278e-09
3.06439e-09
-1.46341e-07
8.27584e-07
-7.09472e-07
2.82289e-08
1.713e-08
-1.07304e-07
-3.84348e-08
1.28609e-07
-4.45579e-08
4.49783e-07
5.02118e-08
-4.55437e-07
-5.909e-08
1.69031e-07
6.19972e-08
-1.71938e-07
-6.89462e-08
2.77042e-08
7.21717e-08
-3.09297e-08
-7.12059e-08
-3.27433e-07
5.58598e-08
3.42779e-07
-5.20537e-08
2.8942e-07
1.01698e-07
-3.39064e-07
-1.31894e-08
-2.63927e-07
7.47226e-09
2.69644e-07
2.17233e-09
-1.35907e-07
-5.52048e-09
1.39256e-07
6.11012e-09
-3.69774e-09
-4.3955e-09
1.98311e-09
1.51285e-10
5.20563e-08
1.60038e-09
-5.3808e-08
-9.01666e-09
7.86093e-08
1.19722e-08
-8.15649e-08
-2.34485e-08
6.53247e-08
2.78624e-08
-6.97386e-08
-2.88572e-08
-5.65744e-09
2.73634e-08
7.15125e-09
-2.1738e-08
-2.48221e-08
2.02026e-08
2.63575e-08
-2.01632e-08
-3.17887e-08
1.90426e-08
3.29093e-08
-1.30711e-08
1.68939e-08
1.30991e-08
-1.69219e-08
-1.49877e-08
-2.41551e-08
1.54416e-08
2.37011e-08
-1.78336e-08
-3.61982e-08
1.82867e-08
3.5745e-08
-1.71331e-08
-4.39097e-08
1.61171e-08
4.49258e-08
-1.15053e-08
-4.91806e-08
9.65387e-09
5.1032e-08
-3.70647e-09
-4.59273e-08
1.86902e-09
4.77647e-08
2.6092e-09
-3.40443e-08
-3.61597e-09
3.50511e-08
5.37056e-09
-1.89402e-08
-5.61277e-09
1.91824e-08
5.77977e-09
-7.62501e-09
-5.72681e-09
7.57199e-09
5.36009e-09
-3.06316e-09
-5.24523e-09
2.9483e-09
5.13479e-09
-2.97745e-09
-5.20697e-09
3.04963e-09
5.75773e-09
-3.76185e-09
-6.02278e-09
4.02691e-09
6.96038e-09
-3.99557e-09
-7.28116e-09
4.31635e-09
8.20628e-09
-3.68656e-09
-8.47644e-09
3.95672e-09
-7.73201e-08
1.27484e-06
-1.22508e-06
3.35036e-08
2.11526e-08
-2.04663e-07
-4.99305e-08
2.33441e-07
-4.56854e-08
4.72209e-07
5.14279e-08
-4.77951e-07
-6.02746e-08
1.79761e-07
6.2545e-08
-1.82032e-07
-7.22077e-08
4.05524e-08
7.50749e-08
-4.34196e-08
-7.58467e-08
-3.93051e-07
5.80768e-08
4.10821e-07
-5.15566e-09
5.17058e-07
6.18924e-08
-4.78306e-07
-8.26083e-09
-2.87619e-07
2.09477e-09
2.93785e-07
4.74152e-09
-1.50611e-07
-8.98841e-09
1.54858e-07
8.97679e-09
4.27145e-09
-6.54156e-09
-6.70668e-09
1.97128e-09
5.91869e-08
-1.25763e-10
-6.10324e-08
-8.0732e-09
9.08456e-08
1.12773e-08
-9.40496e-08
-2.54829e-08
8.65497e-08
3.26187e-08
-9.36856e-08
-3.21883e-08
-1.27085e-08
2.99266e-08
1.49702e-08
-2.24668e-08
-3.17034e-08
2.0457e-08
3.37133e-08
-2.41075e-08
-3.47269e-08
2.42292e-08
3.46052e-08
-1.66455e-08
1.13608e-08
1.30176e-08
-7.7329e-09
-1.25783e-08