/*--------------------------------*- C++ -*----------------------------------*\
| =========                 |                                                 |
| \\      /  F ield         | OpenFOAM: The Open Source CFD Toolbox           |
|  \\    /   O peration     | Version:  2.4.0                                 |
|   \\  /    A nd           | Web:      www.OpenFOAM.org                      |
|    \\/     M anipulation  |                                                 |
\*---------------------------------------------------------------------------*/
FoamFile
{
    version     2.0;
    format      ascii;
    class       volScalarField;
    location    "0.049";
    object      alpha.water;
}
// * * * * * * * * * * * * * * * * * * * * * * * * * * * * * * * * * * * * * //

dimensions      [0 0 0 0 0 0 0];

internalField   nonuniform List<scalar> 
3600
(
1
1.00002
1.00002
1.00002
1.00002
1.00001
1.00001
1.00001
1.00001
1.00001
1
1
1
1
1
1
1
1
1
1
1
1
1
1
1
1
1
1
1
1
1.00005
1.00004
1.00004
1.00003
1.00003
1.00002
1.00002
1.00001
1.00001
1.00001
1.00001
1.00001
1
1
1
1
1
1
1
1
1
1
1
1
1
1
1
1
1
1
1.00003
1.00003
1.00003
1.00003
1.00002
1.00002
1.00002
1.00001
1.00001
1.00001
1.00001
1
1
1
1
1
1
1
1
1
1
1
1
1
1
1
1
1
1
1
1.00003
1.00003
1.00003
1.00002
1.00002
1.00001
1.00001
1.00001
1.00001
1.00001
1
1
1
1
1
1
1
1
1
1
1
1
1
1
1
1
1
1
1
1
1.00003
1.00002
1.00002
1.00002
1.00001
1.00001
1.00001
1.00001
1.00001
1
1
1
1
1
1
1
1
1
1
1
1
1
1
1
1
1
1
1
1
1
1.00002
1.00002
1.00001
1.00001
1.00001
1.00001
1.00001
1
1
1
1
1
1
1
1
1
1
1
1
1
1
1
1
1
1
1
1
1
1
1
1.00001
1.00001
1.00001
1.00001
1
1
1
1
1
1
1
1
1
1
1
1
1
1
1
1
1
1
1
1
1
1
1
1
1
1
1.00001
1
1
0.999999
0.999999
1
1
1
1
1
1
1
1
1
1
1
1
1
1
1
1
1
1
1
1
1
1
1
1
1
0.999998
0.999996
0.999996
0.999997
0.999998
0.999999
0.999999
1
1
1
1
1
1
1
1
1
1
1
1
1
1
1
1
1
1
1
1
1
1
1
0.999992
0.999991
0.999994
0.999995
0.999995
0.999996
0.999998
0.999999
0.999999
1
1
1
1
1
1
1
1
1
1
1
1
1
1
1
1
1
1
1
1
1
0.999988
0.999989
0.999986
0.999987
0.999989
0.999994
0.999997
0.999998
0.999999
0.999999
0.999999
1
1
1
1
1
1
1
1
1
1
1
1
1
1
1
1
1
1
1
0.999986
0.999986
0.999985
0.999985
0.999991
0.999995
0.999997
0.999997
0.999998
0.999999
0.999999
1
1
1
1
1
1
1
1
1
1
1
1
1
1
1
1
1
1
1
0.999985
0.999985
0.999986
0.999991
0.999996
0.999996
0.999996
0.999996
0.999997
0.999998
0.999999
0.999999
1
1
1
1
1
1
1
1
1
1
1
1
1
1
1
1
1
1
0.999987
0.999985
0.999994
0.999995
0.999995
0.999995
0.999994
0.999996
0.999997
0.999998
0.999998
0.999999
1
1
1
1
1
1
1
1
1
1
1
1
1
1
1
1
1
1
0.999988
0.999993
0.999995
0.999995
0.99999
0.99999
0.999993
0.999995
0.999996
0.999997
0.999998
0.999999
1
1
1
1
1
1
1
1
1
1
1
1
1
1
1
1
1
1
0.999989
0.999991
0.999982
0.99999
0.999987
0.999988
0.999993
0.999994
0.999995
0.999997
0.999998
0.999999
1
1
1
1
1
1
1
1
1
1
1
1
1
1
1
1
1
1
0.999988
0.999978
0.999978
0.999989
0.99999
0.99999
0.999989
0.999992
0.999993
0.999995
0.999997
0.999999
1
1
1
1
1
1
1
1
1
1
1
1
1
1
1
1
1
1
0.99999
0.99999
0.999981
0.999986
0.999989
0.99999
0.99999
0.999987
0.99999
0.999992
0.999996
0.999998
0.999999
1
1
1
1
1
1
1
1
1
1
1
1
1
1
1
1
1
0.999989
0.999988
0.999988
0.999965
0.999942
0.999939
0.999954
0.999987
0.999981
0.999993
0.999996
0.999998
0.999999
1
1
1
1
1
1
1
1
1
1
1
1
1
1
1
1
1
0.999938
0.999795
0.999944
0.999924
0.999907
0.999907
0.999907
0.999929
0.99998
0.999993
0.999995
0.999996
0.999999
1
1
1
1
1
1
1
1
1
1
1
1
1
1
1
1
1
0.999953
0.999926
0.999005
0.998904
0.999844
0.999914
0.999907
0.999932
0.999975
0.999975
0.999988
0.999997
0.999999
1
1
1
1
1
1
1
1
1
1
1
1
1
1
1
1
1
0.99986
0.999932
0.99511
0.99939
0.999984
0.99998
0.999968
0.999991
0.99999
0.999981
0.999981
0.999997
0.999999
0.999999
1
1
1
1
1
1
1
1
1
1
1
1
1
1
1
1
0.999345
0.995468
0.989432
0.996263
1
1
1
1
1
0.999995
0.99999
0.999991
0.999998
0.999999
1
1
1
1
1
1
1
1
1
1
1
1
1
1
1
1
0.997506
0.989981
0.989432
0.990586
1
1
1
1
1
1
0.999996
0.999992
0.999993
1
1
1
1
1
1
1
1
1
1
1
1
1
1
1
1
1
0.998478
0.993144
0.990452
0.99013
0.999722
1
1
1
1
1
0.999999
0.999997
0.999997
0.999999
1
1
1
1
1
1
1
1
1
1
1
1
1
1
1
1
0.99921
0.998178
0.999534
0.994535
0.998523
1
1
1
1
1
1
1
1
1
1
1
1
1
1
1
1
1
1
1
1
1
1
1
1
1
0.999743
0.999252
0.999534
0.999611
0.998519
0.999965
1
0.999995
1
1
1
1
1
1
1
1
1
1
1
1
1
1
1
1
1
1
1
1
1
1
0.999745
0.999745
0.999745
0.999726
0.998636
0.999848
0.999971
0.999932
1
1
1
1
1
1
1
1
1
1
1
1
1
1
1
1
1
1
1
1
1
1
0.999746
0.998612
0.973137
0.987037
0.999977
0.999981
0.999993
1
1
1
1
1
0.987609
0.971221
0.978338
0.887077
0.935294
1
1
1
1
1
1
1
1
1
1
1
1
1
0.998008
0.990079
0.894219
0.626778
0.807041
0.975932
0.815755
0.876978
0.995103
0.970075
0.997027
0.929409
0.764239
0.805157
0.592125
0.205593
0.286219
0.753596
0.981605
1
1
1
1
1
1
1
1
1
1
1
1
0.999999
1
1
1
1
1
1
1
1
1
1
1
1
1
1
1
1
1
1
1
1
1
1
1
1
1
1
1
1
1
0.999999
1
1
1
1
1
1
1
1
1
1
1
1
1
1
1
1
1
1
1
1
1
1
1
1
1
1
1
1
1
0.999999
1
1
1
1
1
1
1
1
1
1
1
1
1
1
1
1
1
1
1
1
1
1
1
1
1
1
1
1
1
0.999999
1
1
1
1
1
1
1
1
1
1
1
1
1
1
1
1
1
1
1
1
1
1
1
1
1
1
1
1
1
0.999999
1
1
1
1
1
1
1
1
1
1
1
1
1
1
1
1
1
1
1
1
1
1
1
1
1
1
1
1
1
0.999999
1
1
1
1
1
1
1
1
1
1
1
1
1
1
1
1
1
1
1
1
1
1
1
1
1
1
1
1
1
0.999999
1
1
1
1
1
1
1
1
1
1
1
1
1
1
1
1
1
1
1
1
1
1
1
1
1
1
1
1
1
0.999999
1
1
1
1
1
1
1
1
1
1
1
1
1
1
1
1
1
1
1
1
1
1
1
1
1
1
1
1
1
0.999999
1
1
1
1
1
1
1
1
1
1
1
1
1
1
1
1
1
1
1
1
1
1
1
1
1
1
1
1
1
0.999999
1
1
1
1
1
1
1
1
1
1
1
1
1
1
1
1
1
1
1
1
1
1
1
1
1
1
1
1
1
0.999999
1
1
1
1
1
1
1
1
1
1
1
1
1
1
1
1
1
1
1
1
1
1
1
1
1
1
1
1
1
0.999999
1
1
1
1
1
1
1
1
1
1
1
1
1
1
1
1
1
1
1
1
1
1
1
1
1
1
1
1
1
1
1
1
1
1
1
1
1
1
1
1
1
1
1
1
1
1
1
1
1
1
1
1
1
1
1
1
1
1
1
1
1
1
1
1
1
1
1
1
1
1
1
1
1
1
1
1
1
1
1
1
1
1
1
1
1
1
1
1
1
1
1
1
1
1
1
1
1
1
1
1
1
1
1
1
1
1
1
1
1
1
1
1
1
1
1
1
1
1
1
1
1
1
1
1
1
1
1
1
1
1
1
1
1
1
1
1
1
1
1
1
1
1
1
1
1
1
1
1
1
1
1
1
1
1
1
1
1
1
1
1
1
1
1
1
1
1
1
1
1
1
1
1
1
1
1
1
1
1
1
1
1
1
1
1
1
1
1
1
1
1
1
1
1
1
1
1
1
1
1
1
1
1
1
1
1
1
1
1
1
1
1
1
1
1
1
1
1
1
1
1
1
1
1
1
1
1
1
1
1
1
1
1
1
1
1
1
1
1
1
1
1
1
1
1
1
1
1
1
1
1
1
1
1
1
1
1
1
1
1
1
1
1
1
1
1
1
1
1
1
1
1
1
1
1
1
1
1
1
1
1
1
1
1
1
1
1
1
1
1
1
1
1
1
1
1
1
1
1
1
1
1
1
1
1
1
1
1
1
1
1
1
1
1
1
1
1
1
1
1
1
1
1
1
1
1
1
1
1
1
1
1
1
1
1
1
1
1
1
1
1
1
1
1
1
1
1
1
1
1
1
1
1
1
1
1
1
1
1
1
1
1
1
1
1
1
1
1
1
1
1
1
1
1
1
1
1
1
1
1
1
1
1
1
1
1
1
1
1
1
1
1
1
1
1
1
1
1
1
1
1
1
1
1
1
1
1
1
1
1
1
1
1
1
1
1
1
1
1
1
1
1
1
1
1
1
1
1
1
1
1
1
1
1
1
1
1
1
1
1
1
1
1
1
1
1
1
1
1
1
1
1
1
1
1
1
1
1
1
1
1
1
1
1
1
1
1
1
1
1
1
1
1
1
1
1
1
1
1
1
1
1
1
1
1
1
1
1
1
1
1
1
1
1
1
1
1
1
1
1
1
1
1
1
1
1
1
1
1
1
1
1
1
1
1
1
1
1
1
1
1
1
1
1
1
1
1
1
1
1
1
1
1
1
1
1
1
1
1
1
1
1
1
1
1
1
1
1
1
1
1
1
1
1
1
1
1
1
1
1
1
0.999999
1
0.99999
1
0.999973
1
0.999952
1
0.267935
0.584011
0.451657
0.0825896
0.0580986
0.175437
0.0540547
0.0564766
0.0978596
0.0909851
0.118155
0.0426012
-1.94122e-11
0.0705044
0.0415021
3.27258e-05
3.03884e-07
0.0990136
0.192445
0.121312
0.0527113
0.0212316
0.0143609
0.00923456
0.00655739
0.00405612
0.00255289
0.00146962
0.000807245
0.000432163
0.0371779
0.0264436
0.0124455
5.90784e-07
2.92136e-07
-2.61208e-07
4.81739e-10
2.11341e-10
1.1142e-11
3.29379e-12
2.89231e-12
1.47458e-12
1.73351e-13
7.79427e-14
-2.19485e-11
1.62045e-09
3.03827e-07
2.11288e-10
2.50627e-10
4.07463e-10
9.89714e-11
1.6365e-11
5.83975e-10
3.19555e-10
1.14204e-10
2.49112e-11
7.61575e-12
1.4899e-12
5.66862e-13
1.87919e-13
0.292729
0.04118
-9.57723e-07
5.89913e-07
3.46189e-06
6.01001e-07
6.01452e-07
1.13648e-06
1.24902e-06
5.70474e-07
6.82205e-12
3.52063e-09
1.11084e-08
1.36176e-09
1.70988e-10
3.22087e-09
2.11312e-10
2.11288e-10
2.1428e-10
1.76906e-10
2.19849e-11
1.11232e-11
1.14503e-09
4.46329e-10
1.90815e-10
3.61074e-11
1.25326e-11
1.74745e-12
4.66599e-13
4.86711e-14
0.250338
0.00240903
1.51689e-07
5.83789e-07
2.81529e-06
4.21206e-06
8.31591e-07
8.60656e-07
1.80156e-07
5.95396e-07
2.40358e-07
2.59158e-10
1.43429e-09
7.82963e-10
1.67596e-10
2.30293e-10
4.2099e-10
1.84173e-10
1.27425e-09
3.32675e-10
4.60951e-11
9.54807e-12
2.24433e-11
1.73786e-12
7.38295e-13
4.32287e-14
1.69393e-14
5.56343e-16
2.10027e-16
4.03976e-18
0.256005
0.00957601
-1.31384e-07
5.87409e-07
8.42802e-07
3.10651e-06
3.97379e-06
3.6314e-06
2.46151e-10
2.46292e-10
2.46307e-10
2.5896e-10
3.68038e-10
1.13852e-10
1.43515e-10
1.32253e-10
2.11926e-10
1.11744e-10
5.90059e-11
1.30196e-11
1.65005e-12
1.65346e-13
2.19608e-13
3.76323e-15
2.47919e-15
2.23415e-17
2.04649e-17
5.18419e-20
8.81817e-20
5.58361e-23
0.279506
0.220206
0.012059
-1.76192e-07
5.68683e-09
4.77226e-07
3.97376e-06
2.55742e-06
2.46159e-10
4.17124e-10
2.7551e-10
6.82003e-11
7.39396e-11
1.01873e-11
1.33496e-11
4.54745e-12
1.6376e-11
5.17292e-12
1.78327e-12
3.55278e-13
4.36508e-14
1.44036e-15
1.63539e-15
5.06463e-18
6.74684e-18
5.76365e-21
2.07148e-20
1.31416e-24
3.24496e-23
2.87092e-28
0.156157
9.92285e-05
0.00618467
1.78658e-05
6.51149e-09
1.14787e-07
4.53149e-07
1.00814e-07
2.72863e-10
3.23827e-10
1.31069e-10
7.59915e-12
8.06307e-12
4.22185e-13
2.77391e-13
1.24932e-13
6.45667e-13
1.1268e-13
4.59611e-14
5.30538e-15
6.97257e-16
7.47381e-18
9.5149e-18
4.5152e-21
1.49656e-20
7.92182e-25
1.77781e-23
2.12385e-29
1.05711e-26
1.05064e-32
0.0546085
-2.90234e-07
0.000374928
6.79275e-05
6.51778e-09
1.71783e-08
1.29867e-09
9.91247e-09
4.25195e-10
1.7441e-10
2.03579e-11
1.82609e-13
6.19301e-14
7.47486e-15
6.59959e-15
1.30499e-15
1.08184e-14
8.4333e-16
1.00464e-15
5.17284e-17
8.17011e-18
2.5403e-20
4.44741e-20
2.73626e-24
2.76596e-23
5.88396e-29
1.32207e-26
1.76617e-33
3.10684e-30
3.68036e-37
0.00385215
3.54121e-10
-1.01021e-07
3.96342e-05
7.15614e-07
1.30718e-09
1.29802e-09
1.75313e-09
6.62755e-10
7.42898e-11
4.88289e-12
9.52219e-14
4.70364e-16
5.99534e-17
8.53955e-17
1.41985e-17
1.29954e-16
4.24717e-18
1.62265e-17
2.81501e-19
7.60916e-20
5.66856e-23
1.68318e-22
1.13283e-27
4.32176e-26
3.70449e-33
8.66381e-30
1.50122e-37
8.36202e-34
1.23997e-41
-2.92361e-06
5.0928e-07
1.00582e-08
1.01938e-07
4.5607e-08
1.56668e-09
1.18374e-09
1.14541e-09
7.73841e-10
7.25194e-11
4.73404e-12
8.94952e-14
4.7713e-16
9.58005e-19
5.25106e-19
6.05891e-20
6.99219e-19
1.37171e-20
2.01397e-19
9.05417e-22
5.71839e-22
8.31557e-26
5.62451e-25
3.3662e-31
5.80956e-29
1.00541e-36
5.07786e-33
1.44071e-41
2.08517e-37
4.03455e-46
1.5059e-06
2.42163e-07
0.000437282
-3.89564e-11
5.6863e-09
2.00143e-09
1.10594e-08
1.09202e-09
8.01334e-10
7.56995e-11
3.04092e-12
5.38749e-14
4.01586e-16
1.18764e-18
1.82452e-21
1.88991e-22
2.44419e-21
7.19143e-23
1.81114e-21
1.33047e-24
3.3156e-24
7.95057e-29
1.58675e-27
1.01829e-34
6.77971e-32
3.96818e-40
2.6912e-36
1.73227e-45
4.85895e-41
1.27262e-50
-9.34876e-05
0.0335089
0.0053312
-5.6844e-08
1.91594e-09
8.81584e-09
2.33515e-08
1.15254e-09
1.14534e-09
1.36576e-10
4.52108e-12
5.11474e-14
3.70997e-16
1.34037e-18
1.09711e-21
4.09488e-25
3.68724e-24
3.98979e-25
1.16525e-23
7.22074e-28
1.52687e-26
5.28796e-32
3.75109e-30
5.15809e-38
6.94424e-35
1.62791e-43
1.30142e-39
2.59516e-49
1.06461e-44
3.90173e-55
0.17322
0.1744
0.0193609
-4.26694e-07
1.63364e-09
7.32905e-09
1.75846e-08
1.51674e-09
1.46813e-09
2.02156e-10
7.15101e-12
4.24625e-14
2.6097e-16
1.38819e-18
2.0866e-21
5.8635e-25
2.11142e-27
1.50405e-27
5.02975e-26
5.93453e-31
5.36398e-29
3.15427e-35
7.38354e-33
4.12336e-41
6.27031e-38
6.42261e-47
5.78326e-43
4.35001e-53
2.20453e-48
1.16573e-59
0.208594
0.012221
0.00387283
2.63117e-05
7.44525e-07
1.99196e-08
6.34682e-09
1.02197e-09
2.41214e-09
2.70241e-10
1.16901e-11
8.56682e-14
2.71319e-16
1.45664e-18
3.0581e-21
1.71034e-24
7.22859e-29
3.51568e-30
1.3505e-28
1.38515e-33
1.43016e-31
3.33974e-38
1.20592e-35
3.07651e-44
5.02523e-41
2.37654e-50
2.37588e-46
7.43974e-57
4.33185e-52
3.40091e-64
0.175719
-6.90739e-07
1.93812e-06
3.86448e-06
5.87302e-07
3.29753e-10
2.85228e-10
2.85261e-10
4.90032e-10
1.97553e-10
1.55255e-11
2.57639e-13
5.31888e-16
1.69125e-18
4.4123e-21
4.08506e-24
4.33755e-28
8.57021e-33
2.03221e-31
2.41678e-36
2.76363e-34
4.06804e-41
1.61601e-38
2.01555e-47
3.57908e-44
8.16517e-54
9.06091e-50
1.24141e-60
8.09956e-56
9.70004e-69
0.121713
1.48446e-08
7.46037e-06
9.07122e-08
9.31575e-08
-2.93918e-10
0.000184029
2.97718e-06
2.54929e-10
2.54894e-10
1.86011e-11
3.98832e-13
2.08174e-15
2.09259e-18
7.37609e-21
7.38885e-24
1.32554e-27
2.65931e-32
1.33611e-34
2.89002e-39
3.65479e-37
4.00972e-44
1.75925e-41
1.16786e-50
2.27372e-47
2.60449e-57
3.22013e-53
1.98822e-64
1.44477e-59
2.70819e-73
0.114408
3.49373e-08
1.40421e-05
8.70031e-08
8.70187e-08
0.000248669
0.000607887
2.66222e-05
2.58159e-10
5.37854e-10
2.02703e-11
4.51104e-13
3.19035e-15
2.03039e-18
6.7127e-21
9.86801e-24
2.68209e-27
1.30642e-31
3.73526e-38
2.16679e-42
3.02127e-40
3.12501e-47
1.52992e-44
5.95938e-54
1.28921e-50
7.71581e-61
1.06961e-56
3.04037e-68
2.46367e-63
7.40975e-78
0.10479
3.49878e-08
0.00031967
0.00272896
0.00140632
0.00190968
0.000524837
1.80399e-10
2.22925e-10
1.85951e-10
1.33269e-11
4.2975e-13
5.13591e-15
3.62062e-18
8.66104e-21
1.42455e-23
5.97122e-27
4.13731e-31
2.55596e-37
3.96214e-45
1.22263e-43
1.90219e-50
1.04433e-47
2.68573e-57
6.53282e-54
2.12523e-64
3.32728e-60
4.43011e-72
4.02096e-67
1.9882e-82
0.0475606
0.000639385
0.00260838
0.00327527
0.00327474
0.00162631
4.11673e-05
4.70555e-10
1.65065e-09
1.0768e-10
8.46489e-12
3.10477e-13
4.31846e-15
7.64195e-18
7.91083e-21
1.4627e-23
7.70571e-27
9.60035e-31
2.09174e-36
5.41509e-44
8.97736e-48
8.77713e-54
5.45833e-51
1.06697e-60
2.95958e-57
5.44703e-68
9.71202e-64
6.14804e-76
6.28946e-71
5.23829e-87
0.00243888
0.000932088
0.00229668
0.00327526
0.00146111
0.000142322
4.74945e-10
4.63579e-10
3.43279e-10
5.95352e-11
5.5717e-12
2.17259e-13
3.3198e-15
1.03727e-17
8.26695e-21
1.48719e-23
9.49197e-27
1.53379e-30
6.38594e-36
6.87067e-43
6.54291e-60
2.99244e-57
2.12294e-54
3.74021e-64
1.19976e-60
1.29999e-71
2.66424e-67
8.12291e-80
9.43812e-75
1.35704e-91
0.0103561
0.0100438
0.000891437
0.00116365
6.07716e-05
6.82602e-10
8.78323e-10
7.95723e-10
2.16621e-10
4.46405e-11
4.19407e-12
1.54859e-13
2.28248e-15
8.69989e-18
7.00659e-21
6.31003e-24
3.08297e-27
6.09246e-31
5.46487e-36
5.73138e-42
1.00672e-63
7.22099e-61
5.90321e-58
1.15546e-67
4.35237e-64
2.88773e-75
6.87451e-71
1.02046e-83
1.35926e-78
3.45999e-96
0.016219
0.0099072
6.4286e-05
-7.35557e-09
1.75609e-09
1.74037e-09
1.65754e-09
3.82686e-10
1.97144e-10
4.39475e-11
4.17426e-12
1.51115e-13
2.32066e-15
1.17986e-17
1.49626e-20
9.10537e-24
2.84718e-27
6.52866e-31
1.13169e-35
2.44096e-41
1.19563e-67
1.17181e-64
1.11435e-61
3.14564e-71
1.41418e-67
5.96708e-79
1.67026e-74
1.21727e-87
1.87992e-82
8.69467e-101
0.0162189
0.00231754
2.47115e-09
3.12072e-09
2.59021e-09
2.45843e-09
1.18887e-09
3.26965e-10
2.40756e-10
5.74907e-11
5.62703e-12
2.13881e-13
3.35437e-15
1.85134e-17
2.84629e-20
1.633e-23
1.60095e-27
3.12082e-31
5.38546e-36
2.65042e-41
9.54037e-72
1.18616e-68
1.32588e-65
7.54038e-75
4.11983e-71
1.14525e-82
3.82474e-78
1.37559e-91
2.49804e-86
2.15649e-105
0.0152255
-7.10636e-08
3.31138e-09
3.56444e-09
3.15023e-09
1.7709e-09
1.28792e-09
3.53942e-10
2.91884e-10
7.30516e-11
6.98932e-12
2.68694e-13
4.05401e-15
2.42183e-17
4.1421e-20
2.46527e-23
1.14358e-27
2.67005e-31
8.2628e-36
8.74239e-41
4.35904e-76
6.70115e-73
8.89125e-70
1.58876e-78
1.07708e-74
2.03503e-86
8.25743e-82
1.46673e-95
3.18887e-90
5.28166e-110
0.00629806
3.18864e-09
7.01389e-09
8.69014e-09
2.49819e-09
1.99749e-09
1.56308e-09
3.83838e-10
3.06533e-10
7.1905e-11
6.41205e-12
2.34048e-13
3.45702e-15
1.98799e-17
3.48219e-20
2.021e-23
3.37843e-28
7.33847e-32
2.18218e-36
2.84227e-41
9.2632e-81
1.74895e-77
2.77446e-74
2.93347e-82
2.5313e-78
3.33165e-90
1.68204e-85
1.46711e-99
3.91158e-94
1.27788e-114
3.01498e-05
5.87459e-06
7.03481e-09
8.45485e-09
2.77357e-09
2.38478e-09
1.37838e-09
3.81278e-10
2.84724e-10
6.11515e-11
4.87241e-12
1.42289e-13
1.71292e-15
7.85731e-18
1.14952e-20
6.69432e-24
1.61877e-28
4.41101e-32
1.51481e-36
2.4675e-41
5.98348e-86
1.37538e-82
2.61435e-79
4.71828e-86
5.35879e-82
4.9827e-94
3.23501e-89
1.36377e-103
4.61112e-98
3.05231e-119
3.38142e-08
1.44614e-06
1.79141e-08
7.58197e-09
3.46462e-09
2.6171e-09
9.22557e-10
3.88493e-10
3.07023e-10
6.33236e-11
4.16918e-12
9.61834e-14
9.33072e-16
3.44908e-18
4.55568e-21
2.53165e-24
8.29489e-29
1.69462e-32
5.76423e-37
9.99311e-42
3.56752e-92
7.57553e-89
1.72213e-85
6.52222e-90
1.02391e-85
6.69785e-98
5.87563e-93
1.15796e-107
5.22193e-102
7.17819e-124
3.51606e-08
2.18968e-08
2.14785e-08
7.2682e-09
4.38468e-09
3.7247e-09
4.40207e-09
4.62886e-10
4.92385e-10
7.94278e-11
3.65175e-12
6.52818e-14
4.83525e-16
1.32584e-18
1.32173e-21
5.15671e-25
8.23771e-30
9.12125e-34
1.48669e-38
1.47387e-43
8.19389e-98
2.15456e-97
6.98721e-98
7.52272e-94
1.7707e-89
7.83395e-102
1.00847e-96
8.69127e-112
5.681e-106
1.65436e-128
4.30183e-08
2.76299e-08
1.92474e-08
9.06168e-09
1.28195e-08
1.59071e-08
1.4331e-09
6.21105e-10
1.09647e-09
1.03263e-10
3.84873e-12
5.01006e-14
2.93498e-16
5.63516e-19
4.41679e-22
1.3993e-25
4.98861e-30
2.04754e-34
2.6065e-39
1.98323e-44
5.29296e-103
8.26894e-102
3.52876e-102
6.68787e-98
2.78023e-93
7.38976e-106
1.63682e-100
5.39352e-116
5.93698e-110
3.71713e-133
3.41976e-08
2.72588e-08
2.11947e-08
2.04355e-08
4.61305e-08
1.09846e-07
1.09805e-07
5.18695e-10
7.82518e-10
4.7421e-11
1.03586e-12
1.03237e-14
4.46143e-17
5.65643e-20
1.99064e-23
1.56204e-27
3.16565e-34
2.01757e-38
9.31518e-44
4.74341e-49
2.68327e-108
2.95884e-106
1.019e-106
3.59795e-102
3.97687e-97
4.91535e-110
2.51327e-104
2.81571e-120
5.95726e-114
8.29567e-138
0.000276984
0.000223613
0.000172953
0.000139166
0.000107478
8.65262e-05
6.67261e-05
5.41833e-05
4.16337e-05
3.38779e-05
2.61878e-05
2.12206e-05
1.66324e-05
1.3355e-05
1.06629e-05
8.41452e-06
6.77517e-06
5.27365e-06
4.2634e-06
3.29113e-06
2.64905e-06
1.72634e-06
3.33534e-07
5.71743e-07
1.49492e-13
1.28687e-06
1.44459e-13
8.44257e-06
1.70087e-13
3.85652e-05
4.39715e-13
4.23627e-13
4.21936e-13
4.09442e-13
4.35843e-13
4.26032e-13
7.25516e-13
5.13518e-13
5.00688e-10
3.89962e-10
5.22918e-10
3.7524e-10
2.05965e-10
1.5673e-10
8.24253e-11
6.55181e-11
3.33475e-11
2.69997e-11
1.45595e-11
8.78542e-12
2.64473e-12
2.08254e-12
6.84184e-13
9.81718e-13
1.49491e-13
5.2187e-12
1.44531e-13
2.1609e-13
1.70015e-13
1.00933e-19
2.50083e-14
1.39122e-14
7.69527e-15
4.99902e-15
3.18021e-15
9.80798e-15
1.48592e-14
2.19548e-14
2.1271e-14
1.43084e-14
6.59704e-15
4.71944e-15
1.55137e-15
1.25709e-15
3.73567e-16
3.11192e-16
8.2122e-17
6.6844e-17
1.24117e-17
2.79357e-18
9.64396e-20
7.16484e-20
2.33996e-20
2.00121e-19
2.06992e-20
2.77377e-20
4.09406e-20
5.77082e-20
4.00581e-20
1.00579e-19
4.69752e-18
1.12194e-18
9.48563e-19
2.95046e-19
2.56473e-19
5.06912e-19
7.27344e-19
5.91331e-19
3.72829e-19
1.91463e-19
5.0418e-20
3.57494e-20
6.29974e-21
5.83316e-21
7.84374e-22
7.22188e-22
6.38235e-23
4.29406e-23
1.95801e-25
9.51093e-26
8.211e-26
1.88374e-26
5.0298e-27
6.37318e-26
2.55856e-27
5.96104e-27
7.33015e-27
9.78248e-27
9.42076e-27
1.71408e-26
5.53531e-22
4.35542e-23
6.63349e-23
8.10952e-24
1.0792e-23
9.79455e-24
1.70879e-23
6.58686e-24
3.91839e-24
1.26201e-24
2.55667e-25
1.46343e-25
1.48338e-26
1.44089e-26
6.18491e-28
7.37013e-28
4.85069e-30
7.37819e-31
1.7272e-31
9.2116e-32
7.43057e-32
9.67039e-33
2.17982e-33
1.24694e-32
6.11604e-34
1.14258e-33
1.29762e-33
1.49389e-33
1.82085e-33
1.94259e-33
4.30634e-26
7.22574e-28
2.94477e-27
1.01072e-28
2.77864e-28
8.57606e-29
2.39348e-28
3.68144e-29
2.60318e-29
4.51557e-30
8.13551e-31
3.26276e-31
2.0289e-32
1.79816e-32
1.1725e-34
2.55121e-34
1.57396e-36
4.41139e-37
2.09531e-37
9.9818e-38
7.17879e-38
5.82823e-39
1.15354e-39
2.65961e-39
1.54945e-40
1.84063e-40
1.56418e-40
2.02072e-40
2.93277e-40
1.56116e-40
2.38345e-30
3.96873e-33
9.07507e-32
4.89382e-34
4.83635e-33
3.17631e-34
2.22049e-33
9.89941e-35
1.1598e-34
8.4349e-36
1.66999e-36
3.7729e-37
1.52068e-38
9.92315e-39
3.46198e-41
1.12497e-41
2.8287e-42
7.65594e-43
2.85623e-43
1.15004e-43
7.01579e-44
4.22854e-45
6.45986e-46
3.86886e-46
4.07393e-47
3.71641e-47
3.69044e-47
3.71517e-47
4.01504e-47
9.44612e-48
9.91541e-35
4.59137e-39
2.06051e-36
4.361e-40
6.06792e-38
2.73733e-40
1.45356e-38
9.51696e-41
3.60298e-40
6.67243e-42
2.25529e-42
1.79413e-43
6.61102e-45
1.45506e-45
6.92477e-47
1.88914e-47
5.48311e-48
1.37406e-48
4.14328e-49
1.38137e-49
6.88909e-50
3.34002e-51
4.07864e-52
1.1058e-52
1.21514e-53
9.10264e-54
1.24755e-53
7.53957e-54
6.40899e-54
4.54884e-55
3.21577e-39
7.56953e-44
3.58243e-41
3.71997e-45
5.71178e-43
1.04161e-46
6.95815e-44
1.04082e-47
7.95439e-46
8.92444e-49
2.04131e-48
2.59617e-50
5.24925e-51
9.63847e-52
1.84742e-52
4.49703e-53
1.11414e-53
2.52644e-54
6.28703e-55
1.72234e-55
7.02496e-56
2.83429e-57
2.64035e-58
3.08072e-59
4.85123e-60
2.66446e-60
4.54191e-60
1.34273e-60
9.06558e-61
1.82582e-62
8.33886e-44
1.28426e-48
4.89842e-46
4.84e-50
4.14651e-48
8.97995e-52
2.48837e-49
4.76724e-53
1.25933e-51
2.02001e-54
1.54988e-54
7.65103e-56
1.57729e-56
2.90695e-57
5.14411e-58
1.09698e-58
2.33417e-59
4.71164e-60
9.77889e-61
2.19707e-61
7.22014e-62
2.50433e-63
1.91293e-64
1.47214e-65
2.49882e-66
7.1429e-67
1.46329e-66
1.66471e-67
8.1581e-68
6.34923e-70
1.76054e-48
2.16126e-53
5.36504e-51
6.28465e-55
2.36835e-53
8.53175e-57
6.73307e-55
3.4076e-58
1.47993e-57
1.07199e-59
2.54164e-60
3.14045e-61
5.63789e-62
9.30506e-63
1.46677e-63
2.72508e-64
5.00911e-65
8.91356e-66
1.55957e-66
2.88102e-67
7.69166e-68
2.36301e-69
1.47376e-70
7.23243e-72
1.10587e-72
1.40114e-73
3.55871e-73
1.63191e-74
4.99443e-75
1.97273e-77
3.06461e-53
3.60488e-58
4.76701e-56
8.11399e-60
1.08615e-58
8.15378e-62
1.40718e-60
2.49828e-63
1.71399e-63
5.96786e-65
9.57582e-66
1.34114e-66
2.09382e-67
3.04471e-68
4.24077e-69
6.84864e-70
1.09085e-70
1.69893e-71
2.52111e-72
3.83768e-73
8.2827e-74
2.29689e-75
1.2128e-76
4.34591e-78
6.24176e-79
2.15947e-80
6.36309e-80
2.0813e-81
4.24831e-82
5.61021e-85
4.44081e-58
5.96578e-63
3.47332e-61
1.04222e-64
4.16516e-64
7.80568e-67
2.52264e-66
1.84039e-68
4.26879e-69
3.36244e-70
4.33268e-71
5.80522e-72
7.8995e-73
1.00802e-73
1.2393e-74
1.73759e-75
2.40475e-76
3.2654e-77
4.13452e-78
5.21314e-79
9.17453e-80
2.34532e-81
1.04871e-82
2.66472e-84
3.22159e-85
4.10596e-87
9.82537e-87
2.67402e-88
3.51366e-89
1.48908e-92
5.39729e-63
9.80546e-68
2.10293e-66
1.33285e-69
1.49355e-69
7.46789e-72
5.85918e-72
1.35684e-73
2.00782e-74
1.90128e-75
2.06972e-76
2.52722e-77
3.01119e-78
3.36153e-79
3.6488e-80
4.43722e-81
5.33897e-82
6.30685e-83
6.84534e-84
7.19004e-85
1.03112e-85
2.46789e-87
9.2617e-89
1.73298e-90
1.85594e-91
8.77082e-94
1.46268e-93
3.74038e-95
2.75506e-96
3.74821e-100
5.53885e-68
1.59989e-72
1.08746e-71
1.69552e-74
6.36069e-75
7.12506e-77
2.63772e-77
9.99046e-79
1.12069e-79
1.07519e-80
1.01552e-81
1.10268e-82
1.1526e-83
1.12623e-84
1.07958e-85
1.13926e-86
1.19194e-87
1.22392e-88
1.14198e-89
1.00625e-90
1.17823e-91
2.66943e-93
8.34824e-95
1.19367e-96
1.09005e-97
1.99717e-100
2.22244e-100
5.18364e-102
2.09151e-103
9.07376e-108
4.84669e-73
2.58965e-77
5.1743e-77
2.14328e-79
3.83672e-80
6.77013e-82
1.62753e-82
7.33616e-84
6.71042e-85
6.07178e-86
5.03345e-87
4.81359e-88
4.41827e-89
3.78367e-90
3.2013e-91
2.93568e-92
2.6673e-93
2.38186e-94
1.91493e-95
1.42441e-96
1.36469e-97
2.94487e-99
7.61128e-101
8.85899e-103
6.43991e-104
6.53219e-107
3.99711e-107
7.09862e-109
1.55667e-110
2.14704e-115
3.68874e-78
4.1563e-82
2.68253e-82
2.68925e-84
2.89705e-85
6.39936e-87
1.0957e-87
5.36581e-89
4.19814e-90
3.41945e-91
2.49959e-92
2.0994e-93
1.69383e-94
1.27304e-95
9.49604e-97
7.58069e-98
5.97848e-99
4.64621e-100
3.22416e-101
2.03312e-102
1.60083e-103
3.2904e-105
7.00617e-107
6.9176e-109
3.86068e-110
3.00584e-113
9.8409e-114
9.64086e-116
1.13651e-117
5.08236e-123
2.56058e-83
6.60763e-87
1.83386e-87
3.34469e-89
2.34006e-90
6.00817e-92
7.98468e-93
3.90265e-94
2.66023e-95
1.91729e-96
1.2376e-97
9.13402e-99
6.4826e-100
4.28158e-101
2.81228e-102
1.95885e-103
1.33886e-104
9.06852e-106
5.4331e-107
2.91949e-108
1.89463e-109
3.70505e-111
6.46089e-113
5.65022e-115
2.36813e-116
1.567e-119
2.91215e-120
1.30643e-122
8.19557e-125
1.25594e-130
1.80558e-88
1.03957e-91
1.62534e-92
4.11937e-94
1.91515e-95
5.59717e-97
6.179e-98
2.81949e-99
1.68302e-100
1.06913e-101
6.10106e-103
3.96036e-104
2.4738e-105
1.43723e-106
8.30458e-108
5.05961e-109
2.9923e-110
1.76825e-111
9.14696e-113
4.20591e-114
2.2567e-115
4.19012e-117
5.96901e-119
4.7304e-121
1.50326e-122
9.21392e-126
9.4371e-127
1.77215e-129
6.02297e-132
3.48558e-138
1.51962e-93
1.61707e-96
1.61691e-97
5.01888e-99
1.6222e-100
5.16824e-102
4.92552e-103
2.02121e-104
1.05747e-105
5.92302e-107
2.99166e-108
1.70972e-109
9.4036e-111
4.81069e-112
2.44339e-113
1.303e-114
6.66424e-116
3.44093e-117
1.53608e-118
6.06248e-120
2.69721e-121
4.73705e-123
5.52109e-125
4.01794e-127
9.76026e-129
5.61036e-132
3.31007e-133
2.42818e-136
4.52402e-139
1.17006e-145
1.64507e-98
2.48531e-101
1.66501e-102
6.04083e-104
1.47432e-105
4.72306e-107
3.95001e-108
1.43551e-109
6.58427e-111
3.25536e-112
1.45717e-113
7.34014e-115
3.55692e-116
1.60264e-117
7.15296e-119
3.33815e-120
1.47734e-121
6.66582e-123
2.56681e-124
8.72148e-126
3.22535e-127
5.33958e-129
5.10542e-131
3.44873e-133
6.50958e-135
3.45149e-138
1.19492e-139
3.65552e-143
3.38039e-146
4.80245e-153
2.11085e-103
3.7718e-106
1.73411e-107
7.17666e-109
1.41566e-110
4.26751e-112
3.14502e-113
1.00896e-114
4.05877e-116
1.77327e-117
7.04362e-119
3.13095e-120
1.33746e-121
5.31013e-123
2.08354e-124
8.48542e-126
3.2572e-127
1.28268e-128
4.26129e-130
1.24842e-131
3.85222e-133
5.9848e-135
4.71088e-137
2.96673e-139
4.36676e-141
2.1573e-144
4.40642e-146
7.05739e-150
2.5188e-153
2.43033e-160
2.91382e-108
5.64886e-111
1.82202e-112
8.4073e-114
1.39298e-115
3.80895e-117
2.47391e-118
7.00989e-120
2.47458e-121
9.56432e-123
3.37577e-124
1.32581e-125
4.99496e-127
1.749e-128
6.0317e-130
2.13891e-131
7.13321e-133
2.44538e-134
7.01944e-136
1.77175e-137
4.59506e-139
6.65596e-141
4.33175e-143
2.5501e-145
2.93044e-147
1.38364e-150
1.62611e-152
1.81427e-156
2.00467e-160
1.47689e-167
4.14098e-113
8.33832e-116
1.97758e-117
9.69837e-119
1.38315e-120
3.35362e-122
1.91905e-123
4.8064e-125
1.49006e-126
5.10067e-128
1.60208e-129
5.56683e-131
1.85082e-132
5.72175e-134
1.7321e-135
5.34058e-137
1.54862e-138
4.60577e-140
1.14527e-141
2.48592e-143
5.46005e-145
7.32115e-147
3.96811e-149
2.1846e-151
1.96088e-153
8.98785e-157
5.93606e-159
5.14173e-163
1.78677e-167
9.65225e-175
5.98073e-118
1.21231e-120
2.24881e-122
1.10067e-123
1.3664e-125
2.90976e-127
1.46639e-128
3.24849e-130
8.85211e-132
2.68706e-133
7.52283e-135
2.31611e-136
6.80059e-138
1.85811e-139
4.92928e-141
1.32037e-142
3.32649e-144
8.55211e-146
1.84799e-147
3.44298e-149
6.45471e-151
7.94498e-153
3.62129e-155
1.86115e-157
1.30506e-159
5.84938e-163
2.13948e-165
1.53135e-169
1.74319e-174
5.7816e-182
8.75226e-123
1.73467e-125
2.64927e-127
1.22779e-128
1.33142e-130
2.48524e-132
1.10245e-133
2.16152e-135
5.18281e-137
1.39697e-138
3.49237e-140
9.54262e-142
2.47691e-143
5.98557e-145
1.38948e-146
3.22713e-148
7.05731e-150
1.5622e-151
2.94062e-153
4.69755e-155
7.57266e-157
8.49469e-159
3.29043e-161
1.56812e-163
8.66282e-166
3.72064e-169
7.9849e-172
4.75026e-176
1.76518e-181
2.14235e-189
1.29609e-127
2.44022e-130
3.1321e-132
1.34431e-133
1.27826e-135
2.0862e-137
8.14076e-139
1.41352e-140
2.98591e-142
7.15742e-144
1.60133e-145
3.89107e-147
8.94125e-149
1.91132e-150
3.87579e-152
7.78252e-154
1.47559e-155
2.80234e-157
4.60217e-159
6.297e-161
8.79653e-163
8.94357e-165
2.97264e-167
1.30392e-169
5.71221e-172
2.28522e-175
3.01437e-178
1.4179e-182
1.66802e-188
3.45462e-197
1.94084e-132
3.37236e-135
3.68736e-137
1.44331e-138
1.20493e-140
1.7188e-142
5.89509e-144
9.07006e-146
1.69027e-147
3.6098e-149
7.24702e-151
1.57017e-152
3.19944e-154
6.05076e-156
1.07015e-157
1.85049e-159
3.03377e-161
4.92548e-163
7.0654e-165
8.28283e-167
1.00944e-168
9.27868e-171
2.67336e-173
1.07002e-175
3.75849e-178
1.3631e-181
1.17365e-184
4.07096e-189
1.46822e-195
1.64412e-204
2.93596e-137
4.57469e-140
4.31167e-142
1.51832e-143
1.11381e-145
1.3883e-147
4.18109e-149
5.7033e-151
9.39074e-153
1.79043e-154
3.23495e-156
6.26692e-158
1.13405e-159
1.89656e-161
2.91851e-163
4.32953e-165
6.11825e-167
8.46265e-169
1.06107e-170
1.06702e-172
1.14194e-174
9.47178e-177
2.3831e-179
8.65976e-182
2.43846e-184
7.85374e-188
4.60152e-191
1.12915e-195
1.20223e-202
6.95514e-212
4.49856e-142
6.08562e-145
4.98675e-147
1.56288e-148
1.00784e-150
1.097e-152
2.89746e-154
3.5064e-156
5.11242e-158
8.73078e-160
1.4263e-161
2.48166e-163
3.99914e-165
5.91399e-167
7.88743e-169
9.97165e-171
1.20723e-172
1.41505e-174
1.55273e-176
1.34376e-178
1.27332e-180
9.56764e-183
2.12069e-185
6.97657e-188
1.5747e-190
4.41867e-194
1.75393e-197
2.80362e-202
9.41586e-210
2.19984e-219
)
;

boundaryField
{
    symmetryAxis
    {
        type            symmetryPlane;
    }
    rightWall
    {
        type            zeroGradient;
    }
    lowerWall
    {
        type            zeroGradient;
    }
    atmosphere
    {
        type            inletOutlet;
        inletValue      uniform 0;
        value           nonuniform List<scalar> 
90
(
3.41976e-08
2.72588e-08
2.11947e-08
2.04355e-08
4.61305e-08
1.09846e-07
1.09805e-07
5.18695e-10
0
0
0
0
0
0
0
0
0
0
0
0
0
0
0
0
3.97687e-97
0
2.51327e-104
0
5.95726e-114
0
4.49856e-142
0
4.98675e-147
0
0
0
0
0
0
0
0
0
0
0
0
0
0
0
0
0
0
0
0
0
0
0
0
0
0
0
3.85652e-05
1.00933e-19
0
0
0
0
0
0
0
0
0
0
0
0
0
0
0
0
0
0
0
0
0
0
0
0
0
0
0
0
)
;
    }
    frontAndBack
    {
        type            empty;
    }
    frontAndBack_pos
    {
        type            wedge;
    }
    frontAndBack_neg
    {
        type            wedge;
    }
}


// ************************************************************************* //
