/*--------------------------------*- C++ -*----------------------------------*\
| =========                 |                                                 |
| \\      /  F ield         | OpenFOAM: The Open Source CFD Toolbox           |
|  \\    /   O peration     | Version:  2.4.0                                 |
|   \\  /    A nd           | Web:      www.OpenFOAM.org                      |
|    \\/     M anipulation  |                                                 |
\*---------------------------------------------------------------------------*/
FoamFile
{
    version     2.0;
    format      ascii;
    class       volScalarField;
    location    "0.103";
    object      p_rgh;
}
// * * * * * * * * * * * * * * * * * * * * * * * * * * * * * * * * * * * * * //

dimensions      [1 -1 -2 0 0 0 0];

internalField   nonuniform List<scalar> 
10000
(
-0.0294948
-0.0294994
-0.0295047
-0.0295092
-0.0295152
-0.0295272
-0.0295498
-0.0295876
-0.0296442
-0.0297217
-0.029821
-0.0299412
-0.0300803
-0.0302352
-0.0304022
-0.0305775
-0.0307572
-0.0309381
-0.0311172
-0.0312921
-0.0314609
-0.0316221
-0.0317741
-0.0319159
-0.0320464
-0.0321647
-0.0322704
-0.0323636
-0.0324446
-0.0325145
-0.0325745
-0.032626
-0.0326704
-0.0327084
-0.0327404
-0.0327661
-0.0327844
-0.0327938
-0.0327924
-0.0327783
-0.0327497
-0.0327051
-0.0326436
-0.0325646
-0.0324677
-0.0323532
-0.0322214
-0.0320728
-0.031908
-0.0317279
-0.0294819
-0.0294864
-0.0294898
-0.029492
-0.0294963
-0.0295073
-0.0295298
-0.0295683
-0.0296261
-0.0297054
-0.0298067
-0.029929
-0.03007
-0.0302265
-0.0303948
-0.0305709
-0.0307512
-0.0309322
-0.0311115
-0.0312866
-0.0314558
-0.0316177
-0.0317708
-0.031914
-0.0320463
-0.0321666
-0.0322746
-0.0323702
-0.0324537
-0.032526
-0.0325881
-0.0326414
-0.0326869
-0.0327254
-0.0327569
-0.0327811
-0.0327971
-0.0328035
-0.0327986
-0.0327809
-0.0327489
-0.0327015
-0.0326377
-0.0325571
-0.0324594
-0.0323447
-0.0322131
-0.032065
-0.031901
-0.0317217
-0.0294564
-0.0294615
-0.0294648
-0.0294669
-0.0294718
-0.0294843
-0.029509
-0.0295502
-0.0296111
-0.0296935
-0.0297975
-0.029922
-0.0300645
-0.0302216
-0.0303897
-0.0305649
-0.0307437
-0.0309231
-0.0311007
-0.0312745
-0.031443
-0.0316049
-0.0317589
-0.0319038
-0.0320385
-0.0321621
-0.032274
-0.032374
-0.0324623
-0.0325393
-0.0326059
-0.032663
-0.0327111
-0.0327508
-0.0327819
-0.0328042
-0.0328168
-0.0328189
-0.0328094
-0.0327873
-0.0327515
-0.0327013
-0.0326359
-0.0325549
-0.0324579
-0.0323445
-0.0322148
-0.0320688
-0.0319068
-0.0317294
-0.0294196
-0.0294259
-0.0294311
-0.0294358
-0.0294442
-0.0294609
-0.0294905
-0.0295367
-0.0296023
-0.0296887
-0.0297957
-0.0299218
-0.0300646
-0.0302205
-0.0303862
-0.030558
-0.0307331
-0.0309087
-0.0310829
-0.0312542
-0.0314212
-0.0315828
-0.0317377
-0.0318848
-0.0320228
-0.0321508
-0.032268
-0.0323741
-0.0324688
-0.0325525
-0.0326252
-0.0326874
-0.0327392
-0.0327807
-0.0328117
-0.0328321
-0.0328415
-0.0328395
-0.0328257
-0.0327998
-0.0327612
-0.0327094
-0.0326437
-0.0325634
-0.0324679
-0.0323566
-0.032229
-0.0320851
-0.0319251
-0.0317493
-0.0293739
-0.0293823
-0.0293906
-0.0293999
-0.0294141
-0.0294376
-0.0294741
-0.029527
-0.0295984
-0.0296891
-0.0297987
-0.0299255
-0.0300668
-0.0302196
-0.0303807
-0.0305473
-0.0307168
-0.0308875
-0.0310577
-0.0312263
-0.0313921
-0.0315539
-0.0317105
-0.0318606
-0.0320027
-0.0321359
-0.0322591
-0.0323718
-0.0324737
-0.0325644
-0.0326438
-0.0327117
-0.0327678
-0.032812
-0.0328441
-0.0328641
-0.032872
-0.032868
-0.0328523
-0.0328247
-0.0327852
-0.0327331
-0.0326677
-0.0325881
-0.0324933
-0.0323827
-0.0322557
-0.0321122
-0.0319525
-0.0317769
-0.0293218
-0.0293326
-0.0293452
-0.0293606
-0.0293824
-0.0294142
-0.0294591
-0.0295197
-0.0295973
-0.0296922
-0.0298035
-0.0299294
-0.0300674
-0.0302151
-0.0303699
-0.0305297
-0.030693
-0.0308586
-0.0310253
-0.0311921
-0.0313579
-0.0315213
-0.0316807
-0.0318345
-0.0319812
-0.0321195
-0.0322486
-0.0323678
-0.0324764
-0.032574
-0.0326601
-0.032734
-0.0327954
-0.0328437
-0.0328789
-0.032901
-0.0329105
-0.0329077
-0.032893
-0.0328664
-0.0328275
-0.0327759
-0.0327105
-0.0326305
-0.0325348
-0.0324229
-0.0322946
-0.0321498
-0.0319889
-0.0318124
-0.0292647
-0.0292783
-0.0292959
-0.0293186
-0.0293493
-0.0293907
-0.029445
-0.0295136
-0.0295972
-0.0296954
-0.029807
-0.0299301
-0.0300629
-0.0302037
-0.0303509
-0.0305035
-0.0306609
-0.0308222
-0.0309869
-0.0311536
-0.0313211
-0.0314873
-0.0316503
-0.0318082
-0.0319594
-0.0321027
-0.0322372
-0.0323623
-0.0324774
-0.0325818
-0.0326748
-0.0327555
-0.0328232
-0.0328773
-0.0329178
-0.0329448
-0.0329586
-0.0329596
-0.0329481
-0.0329239
-0.0328866
-0.0328355
-0.0327697
-0.0326885
-0.0325911
-0.0324775
-0.0323475
-0.0322014
-0.0320394
-0.0318619
-0.0292036
-0.0292203
-0.0292436
-0.0292744
-0.0293149
-0.0293666
-0.0294306
-0.0295071
-0.0295959
-0.029696
-0.029806
-0.0299245
-0.0300504
-0.0301831
-0.0303223
-0.0304682
-0.0306207
-0.0307796
-0.0309441
-0.0311125
-0.0312828
-0.0314526
-0.0316195
-0.0317815
-0.031937
-0.0320851
-0.0322251
-0.0323565
-0.0324786
-0.0325906
-0.0326914
-0.0327798
-0.0328549
-0.0329161
-0.0329631
-0.0329961
-0.0330154
-0.0330212
-0.0330136
-0.0329923
-0.0329568
-0.0329065
-0.0328407
-0.0327592
-0.0326617
-0.0325481
-0.0324184
-0.0322728
-0.0321112
-0.0319336
-0.0291389
-0.0291589
-0.0291883
-0.0292278
-0.0292785
-0.0293408
-0.0294143
-0.029498
-0.0295907
-0.029691
-0.0297976
-0.0299099
-0.0300278
-0.0301522
-0.0302842
-0.0304246
-0.0305742
-0.0307326
-0.0308984
-0.0310695
-0.0312431
-0.0314164
-0.0315869
-0.0317528
-0.0319129
-0.0320666
-0.0322135
-0.0323528
-0.0324836
-0.0326046
-0.0327143
-0.0328112
-0.0328941
-0.0329622
-0.0330155
-0.0330541
-0.0330783
-0.0330884
-0.0330843
-0.0330658
-0.0330326
-0.0329844
-0.0329208
-0.0328418
-0.0327472
-0.0326368
-0.0325105
-0.0323676
-0.0322078
-0.0320306
-0.0290703
-0.0290938
-0.0291296
-0.029178
-0.0292391
-0.0293117
-0.029394
-0.0294838
-0.0295789
-0.0296777
-0.0297795
-0.0298846
-0.0299946
-0.0301116
-0.0302378
-0.0303749
-0.0305235
-0.0306828
-0.0308507
-0.0310243
-0.0312006
-0.0313766
-0.0315503
-0.0317204
-0.0318864
-0.0320477
-0.0322039
-0.0323538
-0.0324955
-0.0326271
-0.0327464
-0.0328519
-0.032942
-0.033016
-0.0330742
-0.0331171
-0.0331451
-0.0331586
-0.0331577
-0.0331425
-0.0331129
-0.0330688
-0.0330101
-0.0329367
-0.0328481
-0.0327436
-0.0326222
-0.0324831
-0.0323254
-0.0321486
-0.0289976
-0.0290246
-0.0290667
-0.0291239
-0.0291949
-0.0292771
-0.0293672
-0.0294615
-0.0295576
-0.0296537
-0.02975
-0.0298483
-0.0299515
-0.030063
-0.0301857
-0.0303216
-0.0304707
-0.0306314
-0.0308009
-0.0309759
-0.0311534
-0.0313312
-0.0315081
-0.0316835
-0.0318575
-0.0320293
-0.0321978
-0.0323606
-0.0325149
-0.0326577
-0.0327867
-0.0329004
-0.032997
-0.0330761
-0.0331385
-0.0331852
-0.0332167
-0.0332336
-0.0332364
-0.0332253
-0.0332007
-0.0331624
-0.0331104
-0.033044
-0.0329623
-0.0328639
-0.0327475
-0.0326117
-0.0324559
-0.0322798
-0.02892
-0.0289504
-0.0289985
-0.0290639
-0.0291442
-0.0292348
-0.0293311
-0.0294287
-0.0295244
-0.0296173
-0.0297086
-0.0298014
-0.0299
-0.0300086
-0.0301304
-0.0302667
-0.0304168
-0.0305783
-0.030748
-0.0309226
-0.0311
-0.0312792
-0.03146
-0.0316428
-0.0318273
-0.0320121
-0.0321948
-0.0323716
-0.0325387
-0.0326923
-0.0328306
-0.0329531
-0.0330572
-0.0331424
-0.0332103
-0.0332621
-0.0332981
-0.0333191
-0.033326
-0.0333196
-0.0333001
-0.0332677
-0.0332219
-0.0331617
-0.0330857
-0.0329922
-0.0328798
-0.0327473
-0.0325943
-0.0324207
-0.028837
-0.0288705
-0.028924
-0.0289968
-0.0290849
-0.0291824
-0.0292833
-0.0293827
-0.0294775
-0.0295676
-0.0296554
-0.0297452
-0.0298422
-0.0299507
-0.0300736
-0.0302112
-0.0303619
-0.0305227
-0.0306906
-0.0308633
-0.0310402
-0.0312214
-0.031408
-0.0316
-0.0317967
-0.0319953
-0.0321919
-0.0323819
-0.0325607
-0.0327242
-0.0328723
-0.0330073
-0.0331229
-0.0332176
-0.0332941
-0.0333537
-0.0333954
-0.0334206
-0.0334314
-0.0334286
-0.0334132
-0.033385
-0.0333437
-0.033288
-0.0332162
-0.0331269
-0.0330189
-0.0328915
-0.032744
-0.032576
-0.0287483
-0.0287844
-0.0288425
-0.0289212
-0.0290152
-0.0291176
-0.0292215
-0.0293217
-0.0294157
-0.0295043
-0.029591
-0.029681
-0.0297794
-0.0298904
-0.0300155
-0.0301542
-0.0303042
-0.0304628
-0.0306277
-0.0307984
-0.0309755
-0.0311606
-0.0313546
-0.0315569
-0.0317653
-0.0319759
-0.0321841
-0.0323851
-0.0325743
-0.0327474
-0.0329077
-0.0330633
-0.0331971
-0.0333062
-0.0333947
-0.0334647
-0.0335119
-0.0335397
-0.0335524
-0.0335517
-0.0335387
-0.0335136
-0.0334758
-0.033424
-0.0333569
-0.0332731
-0.033172
-0.0330528
-0.0329143
-0.032755
-0.0286539
-0.0286919
-0.0287533
-0.028836
-0.0289338
-0.0290389
-0.0291441
-0.0292446
-0.0293386
-0.0294278
-0.0295164
-0.0296097
-0.0297123
-0.0298271
-0.0299546
-0.0300935
-0.0302416
-0.030397
-0.0305592
-0.0307293
-0.030909
-0.0310999
-0.0313021
-0.0315136
-0.0317311
-0.03195
-0.0321664
-0.0323767
-0.0325752
-0.0327592
-0.0329345
-0.0331246
-0.0332845
-0.0334115
-0.0335116
-0.0335934
-0.0336452
-0.0336728
-0.0336853
-0.0336857
-0.0336751
-0.0336535
-0.0336201
-0.0335739
-0.0335138
-0.033439
-0.0333485
-0.0332412
-0.0331147
-0.0329658
-0.0285538
-0.0285931
-0.0286564
-0.0287408
-0.0288398
-0.0289453
-0.0290505
-0.0291511
-0.0292465
-0.0293387
-0.0294322
-0.0295313
-0.0296397
-0.0297587
-0.0298879
-0.0300259
-0.0301715
-0.0303244
-0.0304861
-0.0306584
-0.0308433
-0.0310414
-0.0312509
-0.0314688
-0.031691
-0.0319141
-0.0321365
-0.0323561
-0.032565
-0.0327607
-0.0329552
-0.0331967
-0.0333919
-0.0335321
-0.0336422
-0.0337369
-0.0337915
-0.0338131
-0.033825
-0.0338278
-0.0338213
-0.033805
-0.0337784
-0.0337407
-0.0336915
-0.0336299
-0.0335543
-0.0334626
-0.033351
-0.0332144
-0.0284486
-0.0284883
-0.0285516
-0.0286355
-0.028733
-0.0288367
-0.0289408
-0.0290419
-0.0291401
-0.0292377
-0.0293382
-0.0294448
-0.0295592
-0.0296817
-0.0298116
-0.0299482
-0.0300921
-0.0302451
-0.0304095
-0.0305876
-0.0307799
-0.0309849
-0.0311994
-0.0314195
-0.0316421
-0.0318669
-0.0320966
-0.0323299
-0.0325537
-0.0327475
-0.0329476
-0.0332873
-0.0335544
-0.033643
-0.033772
-0.0338966
-0.0339432
-0.033953
-0.0339669
-0.0339756
-0.0339753
-0.0339662
-0.0339485
-0.0339227
-0.0338889
-0.0338459
-0.0337907
-0.0337192
-0.0336265
-0.0335061
-0.0283388
-0.0283779
-0.0284396
-0.0285202
-0.0286137
-0.0287138
-0.0288159
-0.028918
-0.0290204
-0.029125
-0.0292337
-0.0293478
-0.0294676
-0.0295924
-0.0297223
-0.0298583
-0.0300029
-0.0301594
-0.0303306
-0.0305173
-0.0307177
-0.0309283
-0.0311445
-0.031363
-0.0315834
-0.0318104
-0.0320533
-0.0323087
-0.0325588
-0.03278
-0.0327434
-0.0327575
-0.0320475
-0.0329517
-0.0336798
-0.0340506
-0.0340795
-0.034086
-0.034107
-0.0341237
-0.0341307
-0.0341301
-0.0341242
-0.0341147
-0.0341023
-0.0340849
-0.0340572
-0.0340126
-0.0339452
-0.0338477
-0.0282246
-0.0282623
-0.0283205
-0.0283957
-0.028483
-0.028578
-0.0286777
-0.0287811
-0.0288885
-0.0290005
-0.0291173
-0.029238
-0.0293616
-0.0294878
-0.0296179
-0.0297551
-0.0299039
-0.0300679
-0.030249
-0.0304457
-0.0306538
-0.0308678
-0.0310829
-0.0312975
-0.0315149
-0.0317462
-0.0320127
-0.0322995
-0.0326342
-0.0323992
-0.0295287
-0.0294329
-0.0298142
-0.0295206
-0.0297501
-0.0339029
-0.034133
-0.0342029
-0.0342361
-0.0342627
-0.0342782
-0.0342886
-0.0342989
-0.0343126
-0.0343295
-0.0343459
-0.0343541
-0.0343448
-0.0343111
-0.0342455
-0.0281061
-0.0281416
-0.0281949
-0.0282628
-0.0283423
-0.0284311
-0.028528
-0.0286327
-0.0287451
-0.028864
-0.0289873
-0.0291127
-0.0292388
-0.0293661
-0.0294979
-0.0296393
-0.0297958
-0.0299704
-0.030163
-0.0303696
-0.0305841
-0.0307999
-0.0310128
-0.0312222
-0.0314336
-0.0316701
-0.0319741
-0.0322928
-0.0325877
-0.0300225
-0.0287023
-0.0299719
-0.0303797
-0.0303979
-0.0323693
-0.0339559
-0.0342132
-0.0343137
-0.034354
-0.0343908
-0.0344146
-0.0344386
-0.0344709
-0.0345152
-0.0345696
-0.034628
-0.0346809
-0.0347173
-0.0347284
-0.0347055
-0.027983
-0.0280156
-0.0280629
-0.0281223
-0.028193
-0.028275
-0.0283689
-0.0284746
-0.0285908
-0.0287148
-0.0288425
-0.0289707
-0.0290983
-0.0292275
-0.0293633
-0.0295121
-0.0296789
-0.0298655
-0.0300694
-0.030285
-0.0305051
-0.0307233
-0.0309358
-0.0311392
-0.031326
-0.0315596
-0.0319413
-0.0323511
-0.0328472
-0.0331975
-0.0331528
-0.0322073
-0.0323031
-0.0328223
-0.0336331
-0.034145
-0.0343013
-0.0344052
-0.0344698
-0.0345124
-0.0345448
-0.0345837
-0.034641
-0.0347209
-0.0348197
-0.034929
-0.035038
-0.0351336
-0.0352037
-0.0352363
-0.0278544
-0.0278838
-0.0279245
-0.027975
-0.0280367
-0.0281119
-0.0282023
-0.0283079
-0.0284262
-0.0285527
-0.0286824
-0.0288119
-0.0289411
-0.0290738
-0.0292163
-0.0293747
-0.0295529
-0.0297508
-0.0299647
-0.0301885
-0.0304156
-0.0306401
-0.0308579
-0.0310481
-0.0311851
-0.0311594
-0.0305237
-0.0293103
-0.0331449
-0.0327987
-0.0328806
-0.0328434
-0.0329492
-0.0332905
-0.033784
-0.0341677
-0.0343358
-0.0345397
-0.0346102
-0.03465
-0.0346825
-0.0347298
-0.0348084
-0.0349252
-0.0350757
-0.0352488
-0.0354302
-0.0356027
-0.0357483
-0.03585
-0.0277192
-0.0277452
-0.0277794
-0.0278212
-0.0278744
-0.027943
-0.0280296
-0.0281336
-0.0282517
-0.0283781
-0.0285077
-0.0286378
-0.0287696
-0.0289079
-0.0290589
-0.0292276
-0.0294162
-0.0296235
-0.0298457
-0.0300785
-0.0303181
-0.0305591
-0.0307995
-0.031015
-0.0310275
-0.0296957
-0.0291887
-0.0296131
-0.0320518
-0.0326482
-0.0329401
-0.0331093
-0.0333161
-0.0336534
-0.0340376
-0.0343596
-0.034587
-0.0347248
-0.0347924
-0.0348186
-0.0348357
-0.0348766
-0.0349675
-0.0351223
-0.0353367
-0.0355934
-0.0358688
-0.0361376
-0.0363756
-0.0365616
-0.027576
-0.0275987
-0.027627
-0.0276613
-0.0277071
-0.0277697
-0.0278518
-0.0279527
-0.028068
-0.0281921
-0.0283203
-0.0284512
-0.028587
-0.0287324
-0.0288925
-0.0290703
-0.0292666
-0.0294803
-0.0297095
-0.0299533
-0.0302123
-0.0304861
-0.0307741
-0.0310365
-0.0304934
-0.0287702
-0.0290638
-0.0310906
-0.0324945
-0.032752
-0.0330741
-0.0333465
-0.03352
-0.0339892
-0.0343386
-0.0346404
-0.0348607
-0.0349924
-0.0350411
-0.0350329
-0.0350089
-0.0350202
-0.0351105
-0.0353077
-0.0356058
-0.0359728
-0.0363674
-0.0367522
-0.0370991
-0.0373877
-0.0274233
-0.0274432
-0.0274666
-0.0274949
-0.0275348
-0.0275922
-0.0276695
-0.0277656
-0.0278762
-0.0279964
-0.0281229
-0.0282554
-0.0283964
-0.0285493
-0.0287172
-0.0289012
-0.0291016
-0.0293185
-0.0295532
-0.0298084
-0.030088
-0.030395
-0.030736
-0.0311337
-0.0304893
-0.0284231
-0.0303208
-0.0317383
-0.0323725
-0.0328263
-0.0331974
-0.0335487
-0.0337924
-0.0343233
-0.0346901
-0.0350061
-0.0352405
-0.0353688
-0.0353841
-0.0353122
-0.0352085
-0.0351563
-0.0352283
-0.0354749
-0.0358842
-0.0363967
-0.0369395
-0.0374614
-0.0379358
-0.0383483
-0.02726
-0.0272775
-0.0272974
-0.0273218
-0.0273576
-0.0274106
-0.0274829
-0.0275731
-0.0276778
-0.0277935
-0.0279186
-0.0280535
-0.0281998
-0.0283591
-0.028532
-0.0287184
-0.0289192
-0.0291367
-0.0293747
-0.0296373
-0.0299279
-0.0302482
-0.0306028
-0.0310098
-0.0315283
-0.0317412
-0.0320056
-0.0320514
-0.0324936
-0.0329278
-0.0333521
-0.0337821
-0.0342262
-0.0346818
-0.0351072
-0.0354752
-0.0357502
-0.0358901
-0.0358631
-0.0356935
-0.0354533
-0.0352833
-0.0353054
-0.0356142
-0.0361739
-0.0368775
-0.0376055
-0.0382874
-0.0389074
-0.0394651
-0.0270852
-0.0271009
-0.0271188
-0.0271412
-0.0271749
-0.0272246
-0.0272919
-0.0273758
-0.0274743
-0.0275857
-0.02771
-0.0278474
-0.0279981
-0.0281612
-0.0283354
-0.0285208
-0.0287197
-0.0289365
-0.029176
-0.029441
-0.0297315
-0.0300467
-0.030387
-0.0307548
-0.0310767
-0.0311604
-0.0315227
-0.0320986
-0.0326093
-0.0329904
-0.0334893
-0.0339983
-0.0345369
-0.0350852
-0.0356032
-0.0360615
-0.0364251
-0.036618
-0.0365519
-0.0362445
-0.0357794
-0.035402
-0.0353078
-0.0356939
-0.0364744
-0.0374491
-0.0384069
-0.0392647
-0.0400364
-0.0407524
-0.0268984
-0.026913
-0.0269304
-0.0269528
-0.0269859
-0.0270333
-0.0270961
-0.0271741
-0.0272669
-0.0273749
-0.0274986
-0.0276377
-0.0277904
-0.0279538
-0.0281261
-0.0283084
-0.028505
-0.0287214
-0.0289618
-0.0292266
-0.0295132
-0.0298188
-0.0301445
-0.0304777
-0.030868
-0.0312324
-0.0317898
-0.0321748
-0.0327441
-0.0330932
-0.033593
-0.0341945
-0.034852
-0.0355273
-0.0361737
-0.0367742
-0.0373114
-0.0376494
-0.037568
-0.0370798
-0.0362423
-0.0355106
-0.0351752
-0.035564
-0.03673
-0.0381767
-0.0394125
-0.0404374
-0.0413315
-0.042201
-0.0267001
-0.026714
-0.026732
-0.026756
-0.0267899
-0.026836
-0.0268952
-0.0269682
-0.0270565
-0.0271618
-0.0272846
-0.0274236
-0.027575
-0.0277352
-0.0279034
-0.0280823
-0.0282777
-0.0284947
-0.0287355
-0.0289982
-0.0292798
-0.02958
-0.0299021
-0.0302465
-0.0305948
-0.0303813
-0.0264805
-0.0266094
-0.0323595
-0.0329513
-0.0336034
-0.0343403
-0.0351431
-0.0359868
-0.036806
-0.0376107
-0.0384517
-0.0391293
-0.0391239
-0.0384547
-0.0369898
-0.0356497
-0.0348062
-0.0354133
-0.0371399
-0.0391796
-0.0407446
-0.0418515
-0.0427659
-0.0437498
-0.0264912
-0.0265048
-0.0265242
-0.0265506
-0.0265862
-0.0266319
-0.0266886
-0.026758
-0.026843
-0.026946
-0.027067
-0.0272031
-0.0273499
-0.0275045
-0.0276678
-0.0278445
-0.0280403
-0.0282585
-0.0284986
-0.0287581
-0.0290363
-0.0293354
-0.029661
-0.0300107
-0.0302524
-0.0271022
-0.0256599
-0.0263422
-0.0303389
-0.0326785
-0.0335126
-0.0344005
-0.0353733
-0.0364311
-0.037461
-0.0385317
-0.0398658
-0.0412649
-0.0415756
-0.0408691
-0.0383861
-0.0359491
-0.0338685
-0.0347527
-0.0375416
-0.0407623
-0.0426455
-0.0435654
-0.0442448
-0.0452361
-0.0262732
-0.0262865
-0.0263075
-0.0263366
-0.0263742
-0.0264201
-0.0264753
-0.0265426
-0.0266255
-0.0267261
-0.0268435
-0.026974
-0.0271136
-0.0272614
-0.0274208
-0.0275971
-0.0277946
-0.0280136
-0.0282519
-0.0285081
-0.0287853
-0.0290896
-0.029423
-0.0297775
-0.0299796
-0.0254391
-0.0256078
-0.026296
-0.0299704
-0.0324421
-0.0333601
-0.0343617
-0.0355094
-0.0368175
-0.0380064
-0.0392692
-0.0415317
-0.0442943
-0.0453186
-0.0449037
-0.0409949
-0.036412
-0.0315116
-0.0327805
-0.0375553
-0.043216
-0.0454616
-0.0456939
-0.0455635
-0.0463138
-0.0260477
-0.0260606
-0.0260829
-0.0261141
-0.0261533
-0.0261997
-0.0262545
-0.0263208
-0.0264022
-0.0264998
-0.0266118
-0.0267344
-0.0268655
-0.0270071
-0.0271642
-0.0273418
-0.0275412
-0.0277598
-0.027995
-0.0282485
-0.0285274
-0.0288382
-0.0291849
-0.0295666
-0.0299545
-0.0281573
-0.0250055
-0.0261521
-0.0313712
-0.0322036
-0.0331194
-0.0341634
-0.0355126
-0.0372563
-0.0382997
-0.0389801
-0.0417786
-0.0461616
-0.0503068
-0.0506713
-0.0440397
-0.0358207
-0.027674
-0.0283871
-0.0195516
-0.0438501
-0.0490576
-0.0479728
-0.0461453
-0.0462483
-0.0258166
-0.0258285
-0.0258511
-0.0258834
-0.0259234
-0.02597
-0.0260248
-0.0260909
-0.0261709
-0.0262647
-0.0263697
-0.0264835
-0.0266064
-0.0267433
-0.0269
-0.0270794
-0.0272794
-0.0274956
-0.027727
-0.0279787
-0.0282599
-0.0285769
-0.0289301
-0.0293197
-0.0297817
-0.0300541
-0.0299123
-0.0305967
-0.0315701
-0.0319387
-0.0327481
-0.033707
-0.0351994
-0.0381039
-0.0394004
-0.0385275
-0.0401388
-0.0490934
-0.0506755
-0.0599397
-0.043028
-0.033578
-0.0221989
-0.0246047
-0.0384923
-0.0515009
-0.053352
-0.0494379
-0.0450785
-0.0440989
-0.0255812
-0.0255915
-0.025613
-0.0256447
-0.025684
-0.0257302
-0.0257851
-0.0258511
-0.0259294
-0.0260186
-0.0261161
-0.0262213
-0.0263377
-0.0264719
-0.0266292
-0.0268095
-0.0270078
-0.0272197
-0.0274466
-0.0276961
-0.0279761
-0.0282888
-0.0286304
-0.029
-0.0294004
-0.0298104
-0.0301426
-0.0305549
-0.0309858
-0.0312852
-0.0318477
-0.0328829
-0.0338691
-0.0369111
-0.0220086
-0.0273757
-0.0405608
-0.0422171
-0.0466889
-0.0714072
-0.010692
-0.0396744
0.0124077
0.0121812
-0.0299486
-0.0551058
-0.0549286
-0.0479421
-0.0411524
-0.039414
-0.0253424
-0.0253501
-0.025369
-0.025398
-0.025435
-0.0254799
-0.0255343
-0.0255999
-0.0256759
-0.0257601
-0.0258506
-0.0259489
-0.026061
-0.0261941
-0.0263518
-0.0265308
-0.0267248
-0.026931
-0.0271534
-0.0274
-0.0276757
-0.0279784
-0.0283026
-0.028646
-0.0290075
-0.0293741
-0.0297261
-0.030067
-0.0303863
-0.030722
-0.0311186
-0.0319648
-0.0310218
-0.0321787
0.00264673
-0.00403786
-0.0390603
-0.0474029
-0.0246211
-0.078874
0.127836
0.0236896
0.288042
0.170229
0.0513834
-0.126153
-0.177029
-0.120682
-0.0203306
0.351512
-0.0251003
-0.0251045
-0.0251191
-0.0251434
-0.0251763
-0.0252186
-0.0252717
-0.025336
-0.0254094
-0.0254888
-0.0255737
-0.0256675
-0.0257775
-0.0259102
-0.0260666
-0.0262415
-0.0264292
-0.0266292
-0.0268473
-0.0270904
-0.0273599
-0.0276516
-0.0279609
-0.0282865
-0.0286256
-0.0289655
-0.0292848
-0.0295688
-0.0297984
-0.0299752
-0.0301123
-0.0299488
-0.0251886
-0.0285272
-0.0309187
-0.0292007
-0.0255401
-0.0243313
-0.0300567
-0.0586731
0.139174
0.117182
1.23526
0.844837
-0.881611
-0.391809
8.6768
22.1426
27.1262
28.0917
-0.0248543
-0.0248541
-0.0248629
-0.0248807
-0.0249079
-0.0249462
-0.0249969
-0.0250591
-0.0251295
-0.025205
-0.0252863
-0.0253781
-0.0254875
-0.0256189
-0.0257716
-0.02594
-0.0261203
-0.0263145
-0.0265289
-0.0267679
-0.0270307
-0.0273136
-0.027614
-0.0279309
-0.0282578
-0.028579
-0.0288698
-0.0291148
-0.0292648
-0.0292807
-0.0291075
-0.0270877
-0.0257388
-0.0215395
-0.0188586
-0.0135956
-0.0167523
-0.0208664
0.00398896
-0.0372802
-0.162677
5.30417
6.94619
7.60081
21.4652
35.3762
38.4484
39.7828
39.2927
38.3357
-0.024603
-0.0245977
-0.0245994
-0.0246095
-0.0246298
-0.024663
-0.0247102
-0.0247694
-0.0248367
-0.0249095
-0.0249891
-0.0250806
-0.0251897
-0.0253184
-0.0254646
-0.0256246
-0.0257976
-0.0259872
-0.0261984
-0.0264332
-0.0266905
-0.0269683
-0.0272665
-0.0275815
-0.0279052
-0.0282233
-0.0284945
-0.0287427
-0.0288635
-0.0288075
-0.0283922
-0.0273148
-0.0252885
-0.0223801
-0.0130908
-0.0115035
-0.0359835
-0.0295727
-0.0176598
0.340807
10.2423
15.6793
27.0154
37.1999
37.7647
37.9678
38.5249
39.1433
39.2339
39.1078
-0.0243447
-0.0243338
-0.0243278
-0.0243295
-0.0243423
-0.0243696
-0.0244123
-0.0244679
-0.0245323
-0.0246033
-0.0246827
-0.0247747
-0.0248827
-0.0250066
-0.0251444
-0.0252951
-0.0254612
-0.0256469
-0.0258552
-0.0260866
-0.0263403
-0.0266168
-0.0269181
-0.027237
-0.0275659
-0.0278951
-0.0282062
-0.0284591
-0.028597
-0.0285261
-0.0281448
-0.0274155
-0.0223634
-0.00879807
-0.0103972
-0.000105921
-0.00593116
-0.0286364
-1.24061
11.4813
22.239
38.6492
39.5349
38.4112
38.102
38.316
38.715
39.1092
39.3126
39.3991
-0.0240773
-0.0240606
-0.0240469
-0.0240404
-0.0240456
-0.0240667
-0.0241043
-0.0241558
-0.0242173
-0.0242872
-0.0243669
-0.0244591
-0.0245646
-0.0246821
-0.0248106
-0.0249523
-0.025112
-0.0252938
-0.0254989
-0.0257276
-0.0259797
-0.0262605
-0.0265627
-0.0268899
-0.0272326
-0.0275843
-0.0279284
-0.0282097
-0.028351
-0.0282488
-0.0278304
-0.0270397
-0.0129194
-0.0117687
-0.00976534
-0.0151797
-0.00362164
0.353717
16.379
40.1386
43.0546
41.0142
39.8465
38.8862
38.5701
38.7097
38.9929
39.2995
39.5017
39.622
-0.0237988
-0.0237765
-0.0237557
-0.0237418
-0.0237402
-0.0237552
-0.0237874
-0.0238343
-0.0238928
-0.0239616
-0.0240413
-0.0241324
-0.0242339
-0.0243442
-0.0244639
-0.0245975
-0.0247512
-0.0249283
-0.0251295
-0.0253549
-0.025609
-0.0258903
-0.0261085
-0.0265357
-0.0269005
-0.0272775
-0.0276647
-0.0279926
-0.028116
-0.0280539
-0.0276331
-0.026259
-0.0237494
-0.0228754
0.00301942
0.0020583
-0.899949
13.6919
40.2776
43.3066
42.4004
41.1259
40.112
39.3484
39.0872
39.1619
39.3708
39.5981
39.7768
39.8889
-0.0235076
-0.0234802
-0.0234535
-0.0234336
-0.0234263
-0.0234356
-0.0234623
-0.0235043
-0.0235594
-0.0236265
-0.0237051
-0.0237937
-0.0238901
-0.0239933
-0.0241055
-0.0242323
-0.0243797
-0.0245509
-0.0247473
-0.0249708
-0.0252255
-0.0255104
-0.0258263
-0.0261825
-0.0265708
-0.0268714
-0.0274123
-0.0277942
-0.0280781
-0.0279814
-0.0277554
-0.0269092
-0.0271266
-0.0183166
0.00921161
0.260028
7.98575
28.1185
43.3672
42.5996
42.02
41.0378
40.2813
39.7875
39.6072
39.6495
39.7954
39.962
40.1021
40.1936
-0.0232026
-0.023171
-0.0231398
-0.0231157
-0.0231041
-0.0231085
-0.0231297
-0.0231666
-0.0232177
-0.023282
-0.0233579
-0.0234426
-0.0235336
-0.0236306
-0.0237368
-0.0238577
-0.0239982
-0.0241621
-0.0243529
-0.0245744
-0.0248292
-0.0251161
-0.0254365
-0.0257915
-0.0261528
-0.0265845
-0.0271258
-0.0276062
-0.0279987
-0.0281279
-0.0276788
-0.0262271
-0.0223494
-0.021739
-0.067421
4.01262
15.1822
40.4782
41.5711
41.5925
41.4143
40.9182
40.4858
40.2138
40.1075
40.1273
40.2156
40.3241
40.4205
40.4873
-0.0228835
-0.0228486
-0.0228145
-0.022788
-0.0227735
-0.0227738
-0.0227899
-0.0228214
-0.0228677
-0.022928
-0.0229997
-0.0230797
-0.0231656
-0.0232576
-0.0233591
-0.0234742
-0.023607
-0.0237627
-0.0239476
-0.0241665
-0.0244205
-0.0247085
-0.025032
-0.0254008
-0.0258348
-0.026319
-0.0268622
-0.0274189
-0.0279951
-0.0284613
-0.0281661
-0.0263041
-0.0203326
-0.000377743
0.170033
5.55841
30.3992
39.9539
40.4327
40.6839
40.7708
40.7159
40.6174
40.5428
40.5129
40.5265
40.5693
40.6261
40.6804
40.7196
-0.0225505
-0.0225133
-0.0224778
-0.0224505
-0.0224344
-0.0224314
-0.0224427
-0.0224687
-0.0225096
-0.0225646
-0.0226312
-0.0227061
-0.0227875
-0.0228758
-0.0229731
-0.0230821
-0.0232069
-0.0233544
-0.023533
-0.0237479
-0.0239991
-0.0242856
-0.0246117
-0.0249889
-0.0254272
-0.0259461
-0.026567
-0.0272555
-0.0281309
-0.0292501
-0.0302681
-0.0303402
-0.0242953
-0.0025305
-0.064589
11.4593
38.6512
39.1005
39.6576
40.0481
40.332
40.5412
40.6745
40.7503
40.7879
40.8058
40.8194
40.836
40.8542
40.8677
-0.0222045
-0.022166
-0.0221303
-0.0221034
-0.0220866
-0.022081
-0.0220879
-0.0221084
-0.0221436
-0.0221926
-0.0222535
-0.0223235
-0.0224012
-0.0224863
-0.0225793
-0.0226819
-0.0227988
-0.0229389
-0.0231114
-0.0233209
-0.0235664
-0.0238475
-0.0241693
-0.024543
-0.0249816
-0.0255059
-0.0261625
-0.0270114
-0.0281473
-0.0298518
-0.0323484
-0.03478
-0.0313566
-0.061394
-0.746818
28.7787
38.7115
38.9335
39.3463
39.7511
40.1268
40.4566
40.7073
40.8667
40.9451
40.968
40.9641
40.9545
40.9453
40.9368
-0.0218468
-0.0218076
-0.0217725
-0.0217467
-0.0217298
-0.0217222
-0.0217252
-0.0217408
-0.0217701
-0.0218129
-0.021868
-0.0219335
-0.022008
-0.02209
-0.0221783
-0.0222741
-0.0223838
-0.0225178
-0.0226848
-0.0228877
-0.0231255
-0.0233981
-0.02371
-0.0240698
-0.0244888
-0.0249862
-0.0255984
-0.0263808
-0.0274865
-0.0293351
-0.0321711
-0.0349091
-0.0329504
-0.150275
3.85297
39.8919
39.1391
39.1474
39.3971
39.7293
40.0984
40.4524
40.7374
40.9252
41.0183
41.042
41.028
41.001
40.9753
40.9513
-0.0214786
-0.0214393
-0.0214053
-0.0213806
-0.0213638
-0.0213547
-0.0213547
-0.0213658
-0.0213897
-0.0214266
-0.0214762
-0.0215377
-0.0216092
-0.0216878
-0.0217709
-0.0218603
-0.0219638
-0.0220924
-0.0222538
-0.0224499
-0.0226795
-0.0229429
-0.0232424
-0.0235814
-0.0239655
-0.0244018
-0.0248989
-0.0254694
-0.0261816
-0.0272777
-0.0286398
-0.0289458
-0.0247563
-0.128526
15.6903
39.9468
39.3922
39.3587
39.5327
39.8182
40.1585
40.4951
40.7709
40.9543
41.0442
41.0637
41.0439
41.0087
40.9709
40.9333
-0.0211015
-0.0210623
-0.0210292
-0.0210054
-0.0209887
-0.0209785
-0.0209763
-0.020984
-0.0210031
-0.0210347
-0.0210794
-0.021137
-0.0212053
-0.0212801
-0.0213583
-0.0214424
-0.0215411
-0.021665
-0.0218209
-0.0220101
-0.0222326
-0.0224883
-0.0227766
-0.0230959
-0.0234441
-0.0238147
-0.024186
-0.0245086
-0.0247152
-0.0247202
-0.0240258
-0.0212418
-0.0127595
-0.0518292
25.4577
39.2521
39.2807
39.4097
39.6246
39.9112
40.2372
40.5521
40.8059
40.9715
41.0504
41.0612
41.0373
40.9984
40.9561
40.9136
-0.0207165
-0.0206776
-0.0206449
-0.0206215
-0.0206047
-0.0205939
-0.0205904
-0.0205957
-0.0206111
-0.0206381
-0.0206784
-0.0207322
-0.0207968
-0.0208672
-0.0209406
-0.0210205
-0.0211158
-0.0212361
-0.0213873
-0.0215714
-0.021789
-0.0220397
-0.0223209
-0.0226287
-0.0229573
-0.0232913
-0.0235939
-0.0237871
-0.0237273
-0.0231805
-0.0215921
-0.0182123
-0.0145893
0.282951
28.2408
38.4257
39.077
39.3989
39.6767
39.9778
40.2994
40.5994
40.8345
40.9827
41.0484
41.0533
41.0236
40.9828
40.9387
40.8942
-0.0315333
-0.0313252
-0.0311047
-0.0308732
-0.0306318
-0.0303821
-0.0301255
-0.0298632
-0.0295965
-0.0293263
-0.0290534
-0.0287782
-0.028501
-0.0282214
-0.0279391
-0.027654
-0.0273656
-0.0270738
-0.0267786
-0.0264812
-0.0261833
-0.0258873
-0.0255963
-0.0253141
-0.0250449
-0.0247923
-0.024559
-0.0243464
-0.0241545
-0.0239817
-0.0238247
-0.02368
-0.0235448
-0.0234168
-0.0232936
-0.0231734
-0.0230562
-0.0229431
-0.0228348
-0.0227301
-0.0226277
-0.0225283
-0.0224359
-0.0223561
-0.0222929
-0.0222463
-0.0222126
-0.0221871
-0.0221689
-0.0221601
-0.0315279
-0.0313206
-0.031101
-0.0308703
-0.0306299
-0.0303811
-0.0301253
-0.029864
-0.0295982
-0.0293288
-0.0290566
-0.028782
-0.0285052
-0.0282259
-0.0279437
-0.0276582
-0.0273693
-0.0270767
-0.0267805
-0.0264819
-0.0261828
-0.0258861
-0.0255947
-0.0253124
-0.0250434
-0.0247914
-0.0245588
-0.0243465
-0.0241546
-0.0239814
-0.0238237
-0.0236776
-0.0235407
-0.0234114
-0.023288
-0.0231683
-0.0230516
-0.0229383
-0.0228293
-0.0227242
-0.0226216
-0.0225222
-0.0224293
-0.0223484
-0.0222843
-0.0222376
-0.0222046
-0.0221808
-0.0221646
-0.0221572
-0.0315372
-0.0313314
-0.0311129
-0.0308831
-0.0306432
-0.0303948
-0.030139
-0.0298772
-0.0296106
-0.0293401
-0.0290662
-0.0287897
-0.0285107
-0.028229
-0.0279441
-0.0276556
-0.0273636
-0.0270681
-0.0267693
-0.0264684
-0.0261677
-0.0258702
-0.0255791
-0.0252978
-0.0250301
-0.0247795
-0.0245481
-0.0243363
-0.0241437
-0.0239691
-0.0238097
-0.0236615
-0.023522
-0.0233908
-0.0232669
-0.023148
-0.0230317
-0.0229178
-0.0228071
-0.0227006
-0.0225983
-0.0225007
-0.0224106
-0.0223322
-0.0222699
-0.0222243
-0.0221921
-0.0221691
-0.0221548
-0.0221488
-0.0315586
-0.0313538
-0.0311361
-0.0309066
-0.0306667
-0.0304177
-0.0301607
-0.0298971
-0.0296281
-0.0293547
-0.0290775
-0.0287971
-0.028514
-0.0282282
-0.0279391
-0.0276463
-0.0273501
-0.0270508
-0.0267489
-0.0264456
-0.0261434
-0.0258455
-0.0255552
-0.0252755
-0.0250096
-0.0247606
-0.0245302
-0.0243185
-0.0241246
-0.0239478
-0.0237858
-0.023635
-0.0234927
-0.0233585
-0.0232324
-0.0231119
-0.0229941
-0.0228779
-0.0227648
-0.022657
-0.0225561
-0.0224632
-0.02238
-0.0223087
-0.0222516
-0.0222082
-0.0221756
-0.0221518
-0.022137
-0.0221311
-0.0315863
-0.0313816
-0.0311636
-0.0309336
-0.0306926
-0.030442
-0.0301829
-0.0299165
-0.0296442
-0.0293672
-0.029086
-0.0288012
-0.0285134
-0.0282231
-0.0279296
-0.0276325
-0.0273321
-0.027029
-0.0267239
-0.0264181
-0.026114
-0.0258152
-0.0255252
-0.0252465
-0.0249818
-0.024734
-0.0245046
-0.0242931
-0.024098
-0.0239188
-0.0237542
-0.0236007