/*--------------------------------*- C++ -*----------------------------------*\
| =========                 |                                                 |
| \\      /  F ield         | OpenFOAM: The Open Source CFD Toolbox           |
|  \\    /   O peration     | Version:  2.4.0                                 |
|   \\  /    A nd           | Web:      www.OpenFOAM.org                      |
|    \\/     M anipulation  |                                                 |
\*---------------------------------------------------------------------------*/
FoamFile
{
    version     2.0;
    format      ascii;
    class       volVectorField;
    location    "0.07";
    object      U;
}
// * * * * * * * * * * * * * * * * * * * * * * * * * * * * * * * * * * * * * //

dimensions      [0 1 -1 0 0 0 0];

internalField   nonuniform List<vector> 
3600
(
(-0.00266332 0.000150795 0)
(-0.00764944 0.000125812 0)
(-0.0115568 8.98372e-05 0)
(-0.0143397 5.67771e-05 0)
(-0.0159411 -3.78479e-06 0)
(-0.0157244 -0.000101991 0)
(-0.0131705 -0.000238442 0)
(-0.00782096 -0.000414823 0)
(0.000391849 -0.000612802 0)
(0.0112683 -0.000791373 0)
(0.0237904 -0.000920352 0)
(0.0360835 -0.000952155 0)
(0.0496525 -0.00101319 0)
(0.0549926 -0.000502215 0)
(0.0716633 -0.00132443 0)
(0.0668429 0.00198675 0)
(0.0618574 -0.00142667 0)
(0.0749778 0.00644098 0)
(0.0350271 0.00539039 0)
(-0.0201465 -0.00117568 0)
(-0.0769641 0.0154284 0)
(-0.147842 0.00117713 0)
(-0.101392 -0.0312206 0)
(-0.0430379 -0.0330992 0)
(0.00432208 -0.0216867 0)
(0.0536097 -0.0089314 0)
(0.0672855 0.00391582 0)
(0.0622381 0.0059941 0)
(0.052908 0.00318416 0)
(0.0303336 0.023796 0)
(-0.00341688 0.000564092 0)
(-0.00993553 0.000540535 0)
(-0.0153636 0.00044315 0)
(-0.0196577 0.000348887 0)
(-0.0226566 0.000145286 0)
(-0.0235194 -0.000214148 0)
(-0.0215194 -0.000750641 0)
(-0.0159652 -0.00147186 0)
(-0.00668968 -0.00232355 0)
(0.00613717 -0.0031503 0)
(0.0212873 -0.00376514 0)
(0.0364757 -0.00408105 0)
(0.0532464 -0.00427381 0)
(0.0605162 -0.00299871 0)
(0.081827 -0.00546794 0)
(0.075365 0.00520382 0)
(0.0796034 -0.00610907 0)
(0.089078 0.00890675 0)
(0.0623788 0.0325151 0)
(-0.0209683 0.0438199 0)
(-0.081547 0.0506283 0)
(-0.104285 0.0116702 0)
(-0.0860549 -0.0367231 0)
(-0.0768982 -0.0574685 0)
(-0.0234791 -0.0646624 0)
(0.0207683 -0.0402552 0)
(0.045266 -0.0127958 0)
(0.0521771 0.00979553 0)
(0.0293504 0.0281026 0)
(0.0116778 0.0644436 0)
(-0.00351584 0.00102735 0)
(-0.0102514 0.000988029 0)
(-0.0159286 0.000838997 0)
(-0.0205218 0.000698357 0)
(-0.0238619 0.000365497 0)
(-0.0250796 -0.000246769 0)
(-0.0234169 -0.0011751 0)
(-0.0181424 -0.00243579 0)
(-0.00905322 -0.00394519 0)
(0.003689 -0.00543302 0)
(0.0188135 -0.00649966 0)
(0.0339684 -0.00707838 0)
(0.0507347 -0.00731679 0)
(0.057438 -0.00546412 0)
(0.0807955 -0.00864056 0)
(0.0666161 0.0067468 0)
(0.0936573 -0.0100266 0)
(0.0673882 0.0161813 0)
(0.0845107 0.0511995 0)
(-0.00667567 0.0649555 0)
(-0.0502593 0.0582044 0)
(-0.0583894 0.0103817 0)
(-0.0619643 -0.0434344 0)
(-0.0434967 -0.08409 0)
(-0.0296888 -0.0915069 0)
(-0.0100497 -0.0605869 0)
(0.00371948 -0.0183771 0)
(0.0104666 0.030183 0)
(-0.00101357 0.0556725 0)
(-0.00336593 0.0835352 0)
(-0.0035294 0.00149301 0)
(-0.0102991 0.00144388 0)
(-0.016017 0.00124369 0)
(-0.0206697 0.00105836 0)
(-0.0240988 0.000596729 0)
(-0.0254256 -0.000272148 0)
(-0.0238807 -0.00159755 0)
(-0.0187129 -0.00341017 0)
(-0.00968024 -0.00559475 0)
(0.00309426 -0.0077676 0)
(0.0183192 -0.00930483 0)
(0.0335899 -0.0101713 0)
(0.0506781 -0.0103647 0)
(0.0565424 -0.00836177 0)
(0.0842765 -0.0107814 0)
(0.0567454 0.00549167 0)
(0.113311 -0.0097902 0)
(0.0448472 0.0165988 0)
(0.106455 0.0650397 0)
(0.0378967 0.0855771 0)
(0.0148287 0.0752136 0)
(0.00711993 0.0240022 0)
(0.00307233 -0.0445225 0)
(0.000151146 -0.089284 0)
(-0.012996 -0.0952499 0)
(-0.00443214 -0.0681736 0)
(-0.0101455 -0.0280829 0)
(0.000252054 0.0185437 0)
(-0.00510395 0.0496181 0)
(-0.0085495 0.0610715 0)
(-0.00353265 0.00195884 0)
(-0.0103141 0.00190113 0)
(-0.0160433 0.00164999 0)
(-0.0207187 0.00142224 0)
(-0.0241989 0.000834292 0)
(-0.0255973 -0.000286709 0)
(-0.0241402 -0.00200772 0)
(-0.0190631 -0.00437486 0)
(-0.010085 -0.00724289 0)
(0.00272353 -0.0101148 0)
(0.0180604 -0.012128 0)
(0.0334775 -0.0133066 0)
(0.050905 -0.0133458 0)
(0.0561647 -0.0117824 0)
(0.0880569 -0.011294 0)
(0.0466819 0.00122589 0)
(0.130487 -0.00633648 0)
(0.0177017 0.0189704 0)
(0.126067 0.0638008 0)
(0.0874185 0.109208 0)
(0.0964534 0.0827001 0)
(0.0702508 0.0216045 0)
(0.083132 -0.0297685 0)
(0.0696428 -0.0555361 0)
(0.00732683 -0.0820111 0)
(0.00834874 -0.0569167 0)
(-0.0101309 -0.025231 0)
(0.0026666 0.0229903 0)
(-0.00321798 0.0565175 0)
(-0.00233346 0.0562846 0)
(-0.00353498 0.00242494 0)
(-0.0103273 0.00235913 0)
(-0.0160651 0.00205691 0)
(-0.020761 0.00178933 0)
(-0.024296 0.0010781 0)
(-0.0257747 -0.000292688 0)
(-0.0244205 -0.00240699 0)
(-0.0194568 -0.00532946 0)
(-0.0105564 -0.0088914 0)
(0.00228201 -0.0124786 0)
(0.0177448 -0.0149819 0)
(0.0333564 -0.0165006 0)
(0.0510763 -0.0163186 0)
(0.0563467 -0.0156343 0)
(0.0907297 -0.0108468 0)
(0.0422717 -0.00443632 0)
(0.138971 -0.003474 0)
(0.0319518 0.0230247 0)
(0.118431 0.0366815 0)
(0.121617 0.0912514 0)
(0.135281 0.0953727 0)
(0.141677 0.0468724 0)
(0.101463 -0.0339769 0)
(0.0604269 -0.0455937 0)
(0.00942488 -0.0639062 0)
(0.00876828 -0.0642627 0)
(-0.0070793 -0.028767 0)
(0.00666025 0.0131844 0)
(0.00810854 0.0567931 0)
(0.0049551 0.0595586 0)
(-0.00353746 0.00289152 0)
(-0.0103422 0.00281804 0)
(-0.0160895 0.00246451 0)
(-0.0208089 0.00216028 0)
(-0.0244088 0.00132957 0)
(-0.0259834 -0.000287452 0)
(-0.0247538 -0.00279089 0)
(-0.0199301 -0.00626893 0)
(-0.0111285 -0.010537 0)
(0.00174356 -0.0148573 0)
(0.0173561 -0.0178708 0)
(0.0332252 -0.0197496 0)
(0.0511469 -0.019342 0)
(0.0573222 -0.0198156 0)
(0.0919674 -0.0100405 0)
(0.0447797 -0.0111252 0)
(0.142314 -0.00423554 0)
(0.058153 0.0295861 0)
(0.0868567 0.022158 0)
(0.127316 0.0873361 0)
(0.148428 0.0811337 0)
(0.156632 0.0345301 0)
(0.140127 0.0173844 0)
(0.0601575 -0.0133913 0)
(-0.0121967 -0.0320241 0)
(-0.0322496 -0.0339386 0)
(-0.0338428 -0.023359 0)
(-0.0136179 0.00314094 0)
(0.00270653 0.0553291 0)
(0.00593089 0.067485 0)
(-0.00354019 0.00335865 0)
(-0.0103593 0.00327806 0)
(-0.0161171 0.00287289 0)
(-0.0208634 0.00253583 0)
(-0.0245394 0.00159017 0)
(-0.0262263 -0.000269159 0)
(-0.0251437 -0.00315682 0)
(-0.0204874 -0.00719018 0)
(-0.0118063 -0.0121792 0)
(0.00110335 -0.0172537 0)
(0.01689 -0.0208031 0)
(0.0330793 -0.023051 0)
(0.051056 -0.0225297 0)
(0.0594891 -0.0239748 0)
(0.0893545 -0.0101609 0)
(0.0628896 -0.0173381 0)
(0.129461 -0.0111436 0)
(0.0965387 0.0431421 0)
(0.0672983 0.0107255 0)
(0.0939266 0.056945 0)
(0.145925 0.0824246 0)
(0.154462 0.0653963 0)
(0.131868 0.0286283 0)
(0.0945357 0.0476809 0)
(0.0460416 0.00423193 0)
(-0.0163093 -0.0441068 0)
(-0.0323524 -0.0414001 0)
(-0.0316365 -0.0210444 0)
(-0.00801185 0.0487005 0)
(-0.00185587 0.0739296 0)
(-0.00354317 0.0038264 0)
(-0.0103785 0.00373934 0)
(-0.0161479 0.00328213 0)
(-0.0209244 0.00291669 0)
(-0.0246874 0.00186136 0)
(-0.0265032 -0.000236373 0)
(-0.0255903 -0.00350158 0)
(-0.0211301 -0.0080896 0)
(-0.0125925 -0.0138155 0)
(0.000357279 -0.0196712 0)
(0.0163447 -0.0237838 0)
(0.0329034 -0.0264004 0)
(0.0508323 -0.0260269 0)
(0.0624985 -0.0272771 0)
(0.0819265 -0.0138874 0)
(0.0903643 -0.0185129 0)
(0.106489 -0.0219539 0)
(0.108304 0.0495304 0)
(0.113222 0.0317146 0)
(0.0713471 0.0368346 0)
(0.129811 0.0524834 0)
(0.163513 0.0512694 0)
(0.167376 0.0508419 0)
(0.131157 0.0520315 0)
(0.116618 0.0425169 0)
(0.0714505 0.0284679 0)
(0.0209166 -0.00463143 0)
(-0.00480071 -0.0207628 0)
(-0.0119695 0.0220483 0)
(0.00162932 0.0622988 0)
(-0.00354637 0.00429484 0)
(-0.0104 0.00420204 0)
(-0.0161818 0.00369222 0)
(-0.0209914 0.00330355 0)
(-0.0248525 0.00214462 0)
(-0.0268136 -0.000185052 0)
(-0.0260929 -0.00382166 0)
(-0.0218592 -0.00896329 0)
(-0.0134904 -0.0154449 0)
(-0.000498652 -0.0221112 0)
(0.0157182 -0.0268224 0)
(0.0326639 -0.0298113 0)
(0.050713 -0.0298125 0)
(0.0645699 -0.0297246 0)
(0.0772271 -0.0209655 0)
(0.106798 -0.0192989 0)
(0.0900856 -0.0212334 0)
(0.0924505 0.0498623 0)
(0.140905 0.0342605 0)
(0.120557 0.0301155 0)
(0.136143 0.0362766 0)
(0.165123 0.0468726 0)
(0.170987 0.0553726 0)
(0.144432 0.0748914 0)
(0.127 0.0641962 0)
(0.0959881 0.0379411 0)
(0.0666106 0.0177827 0)
(0.0275635 0.0110084 0)
(-0.00506725 0.0264543 0)
(0.00509766 0.055367 0)
(-0.00354976 0.00476402 0)
(-0.0104237 0.00466631 0)
(-0.0162185 0.00410316 0)
(-0.0210639 0.00369709 0)
(-0.0250338 0.00244144 0)
(-0.0271567 -0.000113626 0)
(-0.0266514 -0.00411382 0)
(-0.022676 -0.00980719 0)
(-0.0145036 -0.0170679 0)
(-0.00147041 -0.0245741 0)
(0.015007 -0.0299255 0)
(0.0323464 -0.0333153 0)
(0.0508118 -0.0336625 0)
(0.0649145 -0.0323091 0)
(0.081076 -0.0293212 0)
(0.105883 -0.0174489 0)
(0.0905304 -0.0204825 0)
(0.10869 0.0270116 0)
(0.152585 0.0308963 0)
(0.161966 0.0314222 0)
(0.126548 0.0288725 0)
(0.140153 0.0498783 0)
(0.126381 0.0590313 0)
(0.122089 0.0821636 0)
(0.110375 0.0833115 0)
(0.068413 0.0751452 0)
(0.0424182 0.0704632 0)
(0.017837 0.0511283 0)
(-0.00427925 0.0420655 0)
(0.00214218 0.0551061 0)
(-0.00355332 0.00523401 0)
(-0.0104495 0.0051323 0)
(-0.0162577 0.00451489 0)
(-0.0211413 0.00409797 0)
(-0.025231 0.00275327 0)
(-0.0275316 -2.07771e-05 0)
(-0.0272649 -0.00437467 0)
(-0.0235819 -0.0106172 0)
(-0.0156358 -0.0186823 0)
(-0.00256385 -0.0270631 0)
(0.0142057 -0.0330993 0)
(0.0319676 -0.0369294 0)
(0.0509604 -0.0374002 0)
(0.0645163 -0.0361959 0)
(0.0889832 -0.0341051 0)
(0.0894906 -0.020421 0)
(0.121921 -0.0221802 0)
(0.122026 0.0153014 0)
(0.161421 0.0207152 0)
(0.149616 0.0377626 0)
(0.125887 0.0492689 0)
(0.122369 0.0566813 0)
(0.0966557 0.0741097 0)
(0.0933714 0.0886305 0)
(0.108539 0.092011 0)
(0.0793049 0.0783015 0)
(0.0669048 0.0726484 0)
(0.0545266 0.0639742 0)
(0.0212658 0.0557288 0)
(0.00524465 0.0619742 0)
(-0.00355701 0.00570484 0)
(-0.0104776 0.00560016 0)
(-0.0162994 0.00492731 0)
(-0.0212228 0.00450683 0)
(-0.025443 0.00308164 0)
(-0.0279375 9.65711e-05 0)
(-0.0279327 -0.0046014 0)
(-0.0245785 -0.0113878 0)
(-0.0168915 -0.0202831 0)
(-0.00378608 -0.0295801 0)
(0.0133098 -0.0363543 0)
(0.0315444 -0.0406394 0)
(0.0509061 -0.0411408 0)
(0.0652632 -0.0406698 0)
(0.0898263 -0.0378012 0)
(0.0904282 -0.0254797 0)
(0.123271 -0.0301006 0)
(0.157916 0.00222874 0)
(0.150886 0.0296382 0)
(0.135452 0.0382076 0)
(0.126464 0.0489556 0)
(0.122058 0.0660144 0)
(0.139406 0.069025 0)
(0.105807 0.0852017 0)
(0.06474 0.114112 0)
(0.0269972 0.102435 0)
(0.0339415 0.0894401 0)
(0.0441335 0.086542 0)
(0.0225188 0.084068 0)
(0.00674829 0.0810506 0)
(-0.00356079 0.00617659 0)
(-0.0105079 0.00607004 0)
(-0.0163431 0.00534027 0)
(-0.0213079 0.0049242 0)
(-0.0256691 0.00342807 0)
(-0.0283734 0.000239397 0)
(-0.0286537 -0.0047891 0)
(-0.0256668 -0.0121142 0)
(-0.0182755 -0.0218708 0)
(-0.00514513 -0.0321267 0)
(0.0123181 -0.0397026 0)
(0.031071 -0.0444335 0)
(0.0507438 -0.0449527 0)
(0.0657438 -0.0453537 0)
(0.0906443 -0.0408559 0)
(0.0831754 -0.032105 0)
(0.155425 -0.0441358 0)
(0.155959 -0.000108941 0)
(0.122103 0.039622 0)
(0.145095 0.0483817 0)
(0.182533 0.0461304 0)
(0.179148 0.0542531 0)
(0.1488 0.0908076 0)
(0.0785663 0.135611 0)
(0.0822301 0.145348 0)
(0.0966623 0.103651 0)
(0.0870026 0.0763563 0)
(0.0756672 0.0889504 0)
(0.0379271 0.108131 0)
(0.00740728 0.105037 0)
(-0.00356463 0.00664928 0)
(-0.0105405 0.00654207 0)
(-0.0163886 0.00575361 0)
(-0.0213955 0.00535059 0)
(-0.0259084 0.00379417 0)
(-0.0288378 0.000410306 0)
(-0.0294268 -0.00493166 0)
(-0.026849 -0.0127908 0)
(-0.0197933 -0.023442 0)
(-0.0066498 -0.0347087 0)
(0.0112308 -0.0431506 0)
(0.0305452 -0.0483016 0)
(0.0502764 -0.0488294 0)
(0.0664054 -0.0499349 0)
(0.0846931 -0.0432629 0)
(0.0956397 -0.0462483 0)
(0.161474 -0.0513937 0)
(0.116411 0.0120272 0)
(0.133413 0.0313335 0)
(0.199047 0.0163159 0)
(0.226031 0.0388799 0)
(0.195354 0.0845492 0)
(0.196089 0.124217 0)
(0.189871 0.132751 0)
(0.201115 0.114734 0)
(0.171957 0.0963148 0)
(0.118751 0.0998289 0)
(0.0868674 0.128197 0)
(0.0377697 0.150054 0)
(0.008802 0.137955 0)
(-0.00356847 0.00712297 0)
(-0.0105753 0.00701639 0)
(-0.0164356 0.00616707 0)
(-0.0214849 0.00578641 0)
(-0.02616 0.00418155 0)
(-0.0293295 0.000611312 0)
(-0.0302504 -0.00502708 0)
(-0.0281264 -0.0134111 0)
(-0.0214512 -0.0249929 0)
(-0.00830959 -0.0373348 0)
(0.0100429 -0.046699 0)
(0.0299165 -0.0522142 0)
(0.0493554 -0.0527658 0)
(0.065413 -0.0532601 0)
(0.0738571 -0.0490043 0)
(0.120752 -0.0585225 0)
(0.126247 -0.044221 0)
(0.0728739 0.0118206 0)
(0.221827 -0.00637365 0)
(0.243228 0.00953892 0)
(0.250806 0.0351 0)
(0.253303 0.0503261 0)
(0.240187 0.0857029 0)
(0.180099 0.133135 0)
(0.129123 0.157456 0)
(0.0819667 0.149106 0)
(0.0521704 0.148764 0)
(0.0471883 0.177384 0)
(0.0197169 0.18826 0)
(0.00782804 0.164131 0)
(-0.00357228 0.00759771 0)
(-0.0106125 0.00749311 0)
(-0.0164838 0.00658035 0)
(-0.0215751 0.00623216 0)
(-0.0264228 0.00459174 0)
(-0.0298469 0.000844364 0)
(-0.0311229 -0.00507192 0)
(-0.0295007 -0.0139684 0)
(-0.0232569 -0.0265194 0)
(-0.0101334 -0.0400041 0)
(0.00874145 -0.0503637 0)
(0.0290406 -0.0560995 0)
(0.0476207 -0.0564815 0)
(0.0607081 -0.055515 0)
(0.0673188 -0.0592798 0)
(0.12728 -0.0595266 0)
(0.0693571 -0.0377226 0)
(0.132843 -0.0346439 0)
(0.238566 -0.0309283 0)
(0.262187 -0.000903631 0)
(0.29154 0.050962 0)
(0.216823 0.137583 0)
(0.187055 0.204336 0)
(0.138255 0.21265 0)
(0.0976059 0.194144 0)
(0.0600726 0.167583 0)
(0.0315462 0.152723 0)
(0.024165 0.185875 0)
(0.0134237 0.203192 0)
(0.00800817 0.177199 0)
(-0.00357601 0.00807354 0)
(-0.010652 0.00797234 0)
(-0.0165328 0.00699318 0)
(-0.0216649 0.00668833 0)
(-0.0266957 0.0050261 0)
(-0.0303884 0.00111135 0)
(-0.0320419 -0.00506037 0)
(-0.0309731 -0.0144558 0)
(-0.0252177 -0.0280153 0)
(-0.0121366 -0.0427112 0)
(0.00729696 -0.0541427 0)
(0.0276486 -0.0598231 0)
(0.0446913 -0.0594477 0)
(0.0521903 -0.058262 0)
(0.0740391 -0.0684114 0)
(0.0963942 -0.0573148 0)
(0.0755128 -0.0409575 0)
(0.194436 -0.0792185 0)
(0.151712 -0.0409815 0)
(0.296087 -0.0277427 0)
(0.278458 0.0461435 0)
(0.353613 0.0489611 0)
(0.334039 0.119758 0)
(0.269157 0.184738 0)
(0.199143 0.212018 0)
(0.136025 0.192481 0)
(0.0759789 0.172537 0)
(0.0377679 0.19339 0)
(0.0212464 0.20861 0)
(0.0104982 0.190083 0)
(-0.0035796 0.00855051 0)
(-0.010694 0.00845419 0)
(-0.0165824 0.0074053 0)
(-0.0217534 0.00715539 0)
(-0.0269775 0.00548584 0)
(-0.0309521 0.00141394 0)
(-0.0330052 -0.00498731 0)
(-0.032545 -0.0148624 0)
(-0.0273428 -0.0294769 0)
(-0.014339 -0.0454564 0)
(0.00564443 -0.0579692 0)
(0.0254999 -0.063243 0)
(0.0409036 -0.0615464 0)
(0.0446085 -0.0627685 0)
(0.0840942 -0.0702761 0)
(0.0480307 -0.0640331 0)
(0.163219 -0.060548 0)
(0.125076 -0.0754974 0)
(0.227949 -0.0818552 0)
(0.237823 -0.0884056 0)
(0.248525 0.0333136 0)
(0.0525137 0.170013 0)
(0.136031 0.219962 0)
(0.180115 0.257552 0)
(0.184063 0.262433 0)
(0.147241 0.253389 0)
(0.0968899 0.228253 0)
(0.0525577 0.22703 0)
(0.0266083 0.228016 0)
(0.0103928 0.212838 0)
(-0.00358301 0.00902868 0)
(-0.0107385 0.00893874 0)
(-0.0166321 0.00781644 0)
(-0.0218392 0.00763387 0)
(-0.0272671 0.00597202 0)
(-0.0315358 0.00175351 0)
(-0.0340092 -0.00484797 0)
(-0.034218 -0.0151816 0)
(-0.0296436 -0.0308953 0)
(-0.0167654 -0.0482345 0)
(0.00369499 -0.0617684 0)
(0.0228173 -0.0663807 0)
(0.0379055 -0.0635726 0)
(0.0449021 -0.0685393 0)
(0.0804996 -0.0694304 0)
(0.0485246 -0.0794358 0)
(0.144227 -0.0670485 0)
(0.078039 -0.0934047 0)
(0.381159 -0.152911 0)
(-0.0148481 0.0804237 0)
(-0.141666 0.108684 0)
(-0.124763 0.140069 0)
(-0.0469862 0.116587 0)
(0.0276443 0.204055 0)
(0.116053 0.293703 0)
(0.114354 0.293226 0)
(0.0828864 0.271974 0)
(0.0454346 0.263763 0)
(0.0213337 0.255579 0)
(0.00801135 0.239445 0)
(-0.00358617 0.00950811 0)
(-0.0107857 0.00942604 0)
(-0.0166816 0.00822623 0)
(-0.0219212 0.00812438 0)
(-0.0275631 0.00648569 0)
(-0.0321373 0.00213134 0)
(-0.035051 -0.00463618 0)
(-0.0359934 -0.0154004 0)
(-0.0321331 -0.0322611 0)
(-0.0194446 -0.0510374 0)
(0.00144142 -0.0655349 0)
(0.0205687 -0.0694823 0)
(0.0368281 -0.0664746 0)
(0.0512941 -0.073034 0)
(0.0627349 -0.0744395 0)
(0.0912936 -0.078252 0)
(0.0335776 -0.0763554 0)
(0.24806 -0.179028 0)
(0.0529724 0.0175757 0)
(-0.410805 0.144359 0)
(-0.221941 0.0816257 0)
(-0.0560301 0.114081 0)
(-0.0188943 0.0914357 0)
(-0.013546 0.131929 0)
(0.0610323 0.240668 0)
(0.0777803 0.295452 0)
(0.0569521 0.296968 0)
(0.0317745 0.29039 0)
(0.015514 0.276849 0)
(0.00690805 0.259696 0)
(-0.00358904 0.00998889 0)
(-0.0108356 0.00991613 0)
(-0.0167303 0.00863421 0)
(-0.021998 0.00862738 0)
(-0.0278644 0.00702733 0)
(-0.0327538 0.00254712 0)
(-0.0361259 -0.00434829 0)
(-0.037873 -0.0155089 0)
(-0.0348282 -0.033556 0)
(-0.0223936 -0.0538676 0)
(-0.000896937 -0.0693541 0)
(0.0196903 -0.0727678 0)
(0.0358861 -0.0704001 0)
(0.0529082 -0.0749162 0)
(0.0513577 -0.0813595 0)
(0.0754268 -0.0715675 0)
(0.0720798 -0.109053 0)
(0.218342 -0.150635 0)
(0.525199 0.104245 0)
(0.236207 0.259546 0)
(-0.141242 -0.1439 0)
(-0.0570116 -0.00110337 0)
(0.00139921 0.0685818 0)
(-0.0097299 0.112438 0)
(0.0228495 0.21686 0)
(0.0376786 0.285361 0)
(0.0328409 0.308215 0)
(0.0218917 0.303653 0)
(0.0136838 0.289956 0)
(0.00804919 0.275913 0)
(-0.00359157 0.0104711 0)
(-0.0108884 0.010409 0)
(-0.016778 0.00904005 0)
(-0.0220682 0.00914406 0)
(-0.0281699 0.00759947 0)
(-0.0333831 0.00300514 0)
(-0.03723 -0.00396775 0)
(-0.0398562 -0.0154843 0)
(-0.0377418 -0.0347749 0)
(-0.0255805 -0.0567592 0)
(-0.00297923 -0.0734604 0)
(0.0197454 -0.0762683 0)
(0.0324516 -0.0743741 0)
(0.0479758 -0.0766407 0)
(0.0563251 -0.0807443 0)
(0.0273377 -0.0808791 0)
(0.207087 -0.171831 0)
(1.19155 -0.236702 0)
(0.158262 0.193753 0)
(0.38056 0.406009 0)
(-0.306803 0.261682 0)
(-0.113137 -0.00749916 0)
(-0.0439811 0.0884005 0)
(-0.0341031 0.109967 0)
(-0.0189695 0.201972 0)
(0.00395909 0.28349 0)
(0.00508978 0.307547 0)
(0.00415814 0.30856 0)
(0.00454523 0.293475 0)
(0.0041207 0.287468 0)
(-0.00359371 0.0109549 0)
(-0.0109442 0.0109047 0)
(-0.0168241 0.00944227 0)
(-0.0221303 0.00967284 0)
(-0.028478 0.00819647 0)
(-0.0340203 0.00349205 0)
(-0.0383544 -0.00352609 0)
(-0.0419461 -0.0153643 0)
(-0.040894 -0.0358983 0)
(-0.0289605 -0.0598125 0)
(-0.0047711 -0.0779855 0)
(0.0194199 -0.079456 0)
(0.0281745 -0.0775771 0)
(0.0470137 -0.0800325 0)
(0.049745 -0.0800311 0)
(0.0902206 -0.113993 0)
(0.0460828 -0.506568 0)
(0.0538345 0.0348366 0)
(0.285694 0.0971992 0)
(-0.0256147 0.469683 0)
(-0.0399891 0.141765 0)
(-0.0918964 -0.0834202 0)
(-0.0768255 0.00492655 0)
(-0.0803376 0.0989338 0)
(-0.0618832 0.205612 0)
(-0.0334586 0.269023 0)
(-0.0240307 0.307359 0)
(-0.0225561 0.304636 0)
(-0.0134313 0.290184 0)
(-0.00585155 0.284818 0)
(-0.00359541 0.01144 0)
(-0.0110033 0.0114028 0)
(-0.0168682 0.00984401 0)
(-0.0221833 0.0102223 0)
(-0.0287889 0.00884092 0)
(-0.0346669 0.00405271 0)
(-0.0395015 -0.00290731 0)
(-0.0441378 -0.01497 0)
(-0.0442773 -0.0368691 0)
(-0.0325081 -0.0630784 0)
(-0.00658237 -0.0823047 0)
(0.0182268 -0.0817896 0)
(0.0260242 -0.0798988 0)
(0.044392 -0.0809008 0)
(0.0343201 -0.0966108 0)
(0.245734 -0.109482 0)
(0.763814 -0.327718 0)
(0.727074 -0.204569 0)
(0.491627 0.209677 0)
(0.112446 0.639381 0)
(0.227621 0.227441 0)
(-0.0816206 0.00655391 0)
(-0.110605 0.0567683 0)
(-0.0942777 0.120799 0)
(-0.0995643 0.190839 0)
(-0.0855283 0.247218 0)
(-0.0535719 0.299117 0)
(-0.0429958 0.28878 0)
(-0.0249115 0.276753 0)
(-0.00878392 0.266305 0)
(-0.00359659 0.0119301 0)
(-0.0110655 0.0119081 0)
(-0.0169091 0.0102311 0)
(-0.022224 0.0107687 0)
(-0.029097 0.00946513 0)
(-0.0353061 0.00455586 0)
(-0.040642 -0.00238614 0)
(-0.0464377 -0.014699 0)
(-0.0479782 -0.0378943 0)
(-0.0363028 -0.0662423 0)
(-0.00878652 -0.0866708 0)
(0.0148826 -0.0855979 0)
(0.0206198 -0.0820391 0)
(0.0346121 -0.0866056 0)
(0.36692 -0.138553 0)
(0.70625 -0.325716 0)
(0.447191 -0.429991 0)
(0.381421 -0.0228941 0)
(0.440451 0.274183 0)
(0.356978 0.627925 0)
(0.150379 0.276381 0)
(-0.00303078 0.055319 0)
(-0.0812185 0.0118999 0)
(-0.0897308 0.0896928 0)
(-0.11483 0.196171 0)
(-0.111609 0.221636 0)
(-0.0684537 0.260082 0)
(-0.0416648 0.268492 0)
(-0.0258854 0.253727 0)
(-0.00351432 0.244971 0)
(-0.0036008 0.0124073 0)
(-0.0111331 0.0123856 0)
(-0.0169494 0.0106491 0)
(-0.0222578 0.0113767 0)
(-0.0294168 0.0102496 0)
(-0.035962 0.00532181 0)
(-0.0418021 -0.00137781 0)
(-0.0487969 -0.0136997 0)
(-0.0518024 -0.0382107 0)
(-0.0403388 -0.0701426 0)
(-0.0121779 -0.0918394 0)
(0.00575219 -0.0886329 0)
(0.00689477 -0.092703 0)
(0.513279 -0.183607 0)
(0.777993 -0.262752 0)
(0.651957 -0.236087 0)
(0.691728 -0.2604 0)
(0.481632 -0.0954575 0)
(0.410119 0.251107 0)
(0.506028 0.663964 0)
(0.315835 0.441068 0)
(-0.271544 0.142476 0)
(-0.134528 0.0872909 0)
(-0.120387 0.124931 0)
(-0.115298 0.221765 0)
(-0.104141 0.194543 0)
(-0.0637194 0.212329 0)
(-0.0217411 0.246884 0)
(-0.0155063 0.23705 0)
(0.0018505 0.231583 0)
(-0.00348019 0.0129769 0)
(-0.0111828 0.0130772 0)
(-0.0169567 0.0109664 0)
(-0.0222222 0.0119236 0)
(-0.0296559 0.010823 0)
(-0.036567 0.00574159 0)
(-0.0429326 -0.000793651 0)
(-0.0513339 -0.0132643 0)
(-0.0564761 -0.0395565 0)
(-0.0453322 -0.0745387 0)
(-0.0222945 -0.0924295 0)
(0.00433026 -0.0911697 0)
(0.300098 -0.224566 0)
(1.10718 -0.225184 0)
(0.852557 -0.180677 0)
(0.421122 -0.269031 0)
(0.37653 -0.240775 0)
(0.383927 -0.0164625 0)
(0.437469 0.276395 0)
(0.451964 0.583843 0)
(0.643799 0.706309 0)
(0.142046 0.300185 0)
(-0.629834 0.109999 0)
(-0.111064 0.0620153 0)
(-0.0878298 0.180891 0)
(-0.0785437 0.186848 0)
(-0.0541509 0.17548 0)
(-0.0137954 0.227995 0)
(-0.0118706 0.233971 0)
(0.00207528 0.229713 0)
(-0.0068171 0.013165 0)
(-0.0115479 0.0127029 0)
(-0.0173939 0.0114584 0)
(-0.0227421 0.0125017 0)
(-0.030497 0.0117542 0)
(-0.0373291 0.00669316 0)
(-0.0439489 0.000568154 0)
(-0.0539804 -0.0118645 0)
(-0.0602124 -0.0387903 0)
(-0.0502383 -0.0755923 0)
(-0.0460965 -0.0993983 0)
(0.0925913 -0.140003 0)
(0.696868 -0.346578 0)
(0.194193 -0.23738 0)
(0.275085 -0.156931 0)
(0.416372 -0.209079 0)
(0.475088 -0.225071 0)
(0.382248 -0.0640157 0)
(0.44222 0.26959 0)
(0.430987 0.401092 0)
(0.770408 0.797999 0)
(0.680456 0.647991 0)
(-0.266613 0.31829 0)
(-0.124982 -0.405021 0)
(-0.10976 0.190291 0)
(-0.0631803 0.169102 0)
(-0.0563882 0.160127 0)
(-0.0275024 0.217646 0)
(-0.0175705 0.225373 0)
(0.00114761 0.221162 0)
(0.0431608 0.0142701 0)
(-0.00996992 0.0155522 0)
(-0.0135229 0.0117132 0)
(-0.0195302 0.01329 0)
(-0.0284555 0.0124605 0)
(-0.0374345 0.00726007 0)
(-0.045799 0.00145402 0)
(-0.0560706 -0.0106832 0)
(-0.0643547 -0.0391632 0)
(-0.0546228 -0.0785113 0)
(-0.0711855 -0.124276 0)
(0.315371 -0.319516 0)
(0.401541 -0.258125 0)
(0.338387 -0.130308 0)
(0.316444 -0.193066 0)
(0.309215 -0.276458 0)
(0.368571 -0.216325 0)
(0.416656 -0.0381233 0)
(0.409717 0.257441 0)
(0.480296 0.299019 0)
(0.709894 0.784695 0)
(0.91665 0.823534 0)
(0.446632 0.597793 0)
(0.263532 -0.0331847 0)
(-0.176612 0.0940241 0)
(-0.0584942 0.126682 0)
(-0.0450609 0.147887 0)
(-0.0283658 0.202284 0)
(-0.0214897 0.210675 0)
(-0.00161622 0.208021 0)
(-0.0274496 0.0291783 0)
(-0.0532306 0.00562484 0)
(-0.0617883 0.0068995 0)
(-0.0672765 0.0049648 0)
(-0.0542196 -0.0088101 0)
(-0.00460799 -0.0215833 0)
(0.0425253 -0.0332729 0)
(0.101608 -0.0312087 0)
(0.147506 0.00142078 0)
(0.0766503 0.0155282 0)
(0.0201907 -0.00118464 0)
(-0.0352893 0.00540327 0)
(-0.07505 0.00641804 0)
(-0.0619431 -0.00142368 0)
(-0.0668516 0.0019758 0)
(-0.0716988 -0.00131786 0)
(-0.0549985 -0.000510586 0)
(-0.0496346 -0.0010108 0)
(-0.0360729 -0.000954123 0)
(-0.0237712 -0.000920002 0)
(-0.0112479 -0.000792148 0)
(-0.000368612 -0.000612735 0)
(0.00783731 -0.000414366 0)
(0.0131692 -0.00023747 0)
(0.0157046 -0.000101155 0)
(0.0159105 -3.50096e-06 0)
(0.0143137 5.64807e-05 0)
(0.011543 8.9473e-05 0)
(0.00764665 0.000125405 0)
(0.00266622 0.000150868 0)
(-0.0137918 0.0647379 0)
(-0.0284124 0.0260896 0)
(-0.0529124 0.00940793 0)
(-0.0456517 -0.0128758 0)
(-0.0217785 -0.039707 0)
(0.022834 -0.0649298 0)
(0.075965 -0.0576733 0)
(0.0856267 -0.0367469 0)
(0.103944 0.0116791 0)
(0.0816963 0.0502456 0)
(0.0212862 0.043853 0)
(-0.0624814 0.0325572 0)
(-0.0891277 0.00887804 0)
(-0.0797418 -0.00610144 0)
(-0.0753371 0.00516609 0)
(-0.0818609 -0.00544425 0)
(-0.0605107 -0.00302681 0)
(-0.0532167 -0.00426551 0)
(-0.0364554 -0.00408696 0)
(-0.0212588 -0.00376358 0)
(-0.00610966 -0.0031522 0)
(0.00671765 -0.00232248 0)
(0.0159818 -0.00146938 0)
(0.0215122 -0.000746841 0)
(0.0234912 -0.000211644 0)
(0.0226172 0.000145908 0)
(0.0196265 0.00034743 0)
(0.0153488 0.000441739 0)
(0.00993295 0.000539186 0)
(0.00342059 0.000564337 0)
(0.00655672 0.0838507 0)
(0.00280458 0.0579731 0)
(-0.00899807 0.0322977 0)
(-0.00369586 -0.0166192 0)
(0.00964246 -0.0600472 0)
(0.028783 -0.0917441 0)
(0.0425955 -0.0845642 0)
(0.0617579 -0.0435624 0)
(0.0580496 0.010308 0)
(0.0498744 0.0579692 0)
(0.0068917 0.0649692 0)
(-0.0848655 0.051342 0)
(-0.0673035 0.0160978 0)
(-0.0938786 -0.00998697 0)
(-0.066537 0.0066599 0)
(-0.0808265 -0.00859061 0)
(-0.0574347 -0.00551323 0)
(-0.0507 -0.00730199 0)
(-0.0339479 -0.00708848 0)
(-0.0187832 -0.00649715 0)
(-0.0036606 -0.00543557 0)
(0.00908247 -0.00394306 0)
(0.0181597 -0.00243129 0)
(0.0234094 -0.00116834 0)
(0.0250503 -0.000242301 0)
(0.0238211 0.00036642 0)
(0.0204897 0.00069561 0)
(0.0159136 0.00083652 0)
(0.0102489 0.000985703 0)
(0.00351969 0.00102782 0)
(0.00822645 0.0619984 0)
(0.00465394 0.0510218 0)
(-0.00108433 0.0187565 0)
(0.0104049 -0.0269868 0)
(0.00467316 -0.0671667 0)
(0.0128633 -0.0955614 0)
(-0.000674915 -0.0902421 0)
(-0.00268252 -0.0448797 0)
(-0.00714919 0.0238522 0)
(-0.0153502 0.07462 0)
(-0.038373 0.0857187 0)
(-0.106514 0.0650863 0)
(-0.0448209 0.0165306 0)
(-0.113509 -0.00975168 0)
(-0.0566319 0.00534726 0)
(-0.0842914 -0.010695 0)
(-0.0565468 -0.00843378 0)
(-0.050637 -0.0103427 0)
(-0.0335708 -0.0101861 0)
(-0.0182874 -0.00930113 0)
(-0.00306535 -0.00777076 0)
(0.00971049 -0.00559168 0)
(0.0187309 -0.00340352 0)
(0.0238733 -0.00158753 0)
(0.0253958 -0.000265404 0)
(0.0240575 0.000597961 0)
(0.0206373 0.00105428 0)
(0.0160021 0.00124011 0)
(0.0102967 0.00144056 0)
(0.00353336 0.00149371 0)
(0.000371408 0.0569947 0)
(0.00260295 0.0584632 0)
(-0.000918967 0.0242272 0)
(0.0116807 -0.0242293 0)
(-0.00490889 -0.0562391 0)
(-0.00599977 -0.0807027 0)
(-0.0689298 -0.0564897 0)
(-0.0828619 -0.0300353 0)
(-0.0702862 0.0220758 0)
(-0.0969959 0.0825217 0)
(-0.0869873 0.109149 0)
(-0.126507 0.0638512 0)
(-0.0174818 0.0188251 0)
(-0.130622 -0.00622533 0)
(-0.0465826 0.0010209 0)
(-0.0880434 -0.0111651 0)
(-0.0561827 -0.0118783 0)
(-0.0508555 -0.0133154 0)
(-0.0334604 -0.0133264 0)
(-0.0180276 -0.0121227 0)
(-0.00269482 -0.0101189 0)
(0.0101162 -0.00723888 0)
(0.0190816 -0.00436603 0)
(0.0241329 -0.00199436 0)
(0.025567 -0.000277894 0)
(0.0241569 0.000835812 0)
(0.020686 0.00141681 0)
(0.0160285 0.00164529 0)
(0.0103119 0.00189681 0)
(0.00353678 0.0019598 0)
(-0.00516053 0.0587705 0)
(-0.00712345 0.0558277 0)
(-0.00538739 0.0117643 0)
(0.0100812 -0.0283734 0)
(-0.00645254 -0.0626326 0)
(-0.00719596 -0.061986 0)
(-0.0598027 -0.0455613 0)
(-0.101882 -0.0337159 0)
(-0.141508 0.0472474 0)
(-0.135065 0.0945514 0)
(-0.122074 0.0912266 0)
(-0.117812 0.0364579 0)
(-0.0326982 0.0228662 0)
(-0.138869 -0.00336482 0)
(-0.0423321 -0.0046885 0)
(-0.0906727 -0.0106825 0)
(-0.056388 -0.0157547 0)
(-0.0510163 -0.0162784 0)
(-0.033342 -0.0165265 0)
(-0.0177107 -0.0149754 0)
(-0.0022537 -0.0124831 0)
(0.0105885 -0.00888646 0)
(0.0194761 -0.00531828 0)
(0.0244132 -0.00239032 0)
(0.0257436 -0.000281969 0)
(0.0242533 0.00107989 0)
(0.020728 0.00178251 0)
(0.0160503 0.00205107 0)
(0.0103253 0.0023538 0)
(0.00353931 0.00242616 0)
(-0.0046043 0.0675938 0)
(-0.00229886 0.0545863 0)
(0.0134342 0.00248494 0)
(0.0346762 -0.0238559 0)
(0.0335743 -0.0337593 0)
(0.0142113 -0.0303361 0)
(-0.0570293 -0.0124163 0)
(-0.141549 0.0176044 0)
(-0.155168 0.0351259 0)
(-0.148883 0.080551 0)
(-0.12585 0.0876192 0)
(-0.0870538 0.022475 0)
(-0.0588736 0.0295161 0)
(-0.142029 -0.00427222 0)
(-0.0450219 -0.0113799 0)
(-0.0918612 -0.00986295 0)
(-0.0573924 -0.0199595 0)
(-0.0510745 -0.0192913 0)
(-0.0332143 -0.0197827 0)
(-0.0173196 -0.0178626 0)
(-0.00171511 -0.0148624 0)
(0.0111619 -0.0105312 0)
(0.0199502 -0.00625532 0)
(0.0247466 -0.00277095 0)
(0.0259515 -0.00027483 0)
(0.0243652 0.00133159 0)
(0.0207755 0.00215203 0)
(0.0160747 0.0024575 0)
(0.0103404 0.00281168 0)
(0.00354203 0.00289302 0)
(-0.000904302 0.0738169 0)
(0.00698283 0.0473341 0)
(0.0303548 -0.0232556 0)
(0.0311367 -0.0427711 0)
(0.0142263 -0.0436303 0)
(-0.0472532 0.0058282 0)
(-0.0933053 0.0489464 0)
(-0.133315 0.0297545 0)
(-0.153076 0.0654349 0)
(-0.145181 0.0814518 0)
(-0.0934936 0.0568713 0)
(-0.066428 0.0115049 0)
(-0.0974047 0.0426629 0)
(-0.128947 -0.0111074 0)
(-0.0633166 -0.017609 0)
(-0.0891862 -0.00997707 0)
(-0.0595891 -0.0241418 0)
(-0.0509696 -0.0224674 0)
(-0.0330726 -0.0230931 0)
(-0.0168508 -0.0207918 0)
(-0.00107493 -0.0172603 0)
(0.0118411 -0.0121728 0)
(0.0205085 -0.00717428 0)
(0.0251364 -0.00313348 0)
(0.0261933 -0.000254129 0)
(0.0244946 0.00159239 0)
(0.0208296 0.00252609 0)
(0.0161025 0.0028647 0)
(0.0103578 0.00327065 0)
(0.00354506 0.00336047 0)
(-0.00161159 0.0609608 0)
(0.0135099 0.0202935 0)
(0.00670865 -0.0218897 0)
(-0.0195702 -0.00397452 0)
(-0.0711044 0.0289321 0)
(-0.11724 0.0427798 0)
(-0.129583 0.0540193 0)
(-0.168657 0.0510209 0)
(-0.162235 0.0507199 0)
(-0.130037 0.0517584 0)
(-0.0706676 0.0371199 0)
(-0.112492 0.0324764 0)
(-0.108921 0.0494698 0)
(-0.105786 -0.0220405 0)
(-0.0909009 -0.0187305 0)
(-0.081679 -0.0137148 0)
(-0.0626221 -0.0274641 0)
(-0.0507306 -0.025949 0)
(-0.0329014 -0.0264543 0)
(-0.0163028 -0.0237695 0)
(-0.00032975 -0.0196796 0)
(0.0126291 -0.0138081 0)
(0.0211525 -0.00807122 0)
(0.0255829 -0.00347464 0)
(0.0264691 -0.000217895 0)
(0.0246413 0.00186373 0)
(0.02089 0.00290539 0)
(0.0161334 0.00327271 0)
(0.0103775 0.00373086 0)