/*--------------------------------*- C++ -*----------------------------------*\
| =========                 |                                                 |
| \\      /  F ield         | OpenFOAM: The Open Source CFD Toolbox           |
|  \\    /   O peration     | Version:  2.4.0                                 |
|   \\  /    A nd           | Web:      www.OpenFOAM.org                      |
|    \\/     M anipulation  |                                                 |
\*---------------------------------------------------------------------------*/
FoamFile
{
    version     2.0;
    format      ascii;
    class       surfaceScalarField;
    location    "0.33";
    object      phiAlpha;
}
// * * * * * * * * * * * * * * * * * * * * * * * * * * * * * * * * * * * * * //

dimensions      [0 3 -1 0 0 0 0];

internalField   nonuniform List<scalar> 
119500
(
3.7125e-09
-3.7125e-09
8.45261e-09
-4.74011e-09
1.30444e-08
-4.59181e-09
1.75084e-08
-4.46396e-09
2.19388e-08
-4.43038e-09
2.63551e-08
-4.41631e-09
3.0752e-08
-4.39691e-09
3.51235e-08
-4.37155e-09
3.94647e-08
-4.34117e-09
4.377e-08
-4.30533e-09
4.80333e-08
-4.26331e-09
5.22477e-08
-4.21433e-09
5.64054e-08
-4.15775e-09
6.04986e-08
-4.0932e-09
6.45191e-08
-4.02045e-09
6.84587e-08
-3.93968e-09
7.23101e-08
-3.85136e-09
7.60664e-08
-3.75631e-09
7.9722e-08
-3.65563e-09
8.32726e-08
-3.55055e-09
8.67149e-08
-3.44231e-09
9.00469e-08
-3.332e-09
9.32676e-08
-3.22067e-09
9.63767e-08
-3.1091e-09
9.93744e-08
-2.99771e-09
1.02261e-07
-2.88664e-09
1.05037e-07
-2.77575e-09
1.07701e-07
-2.6646e-09
1.10254e-07
-2.55255e-09
1.12693e-07
-2.43877e-09
1.15015e-07
-2.32234e-09
1.17217e-07
-2.20222e-09
1.19295e-07
-2.07736e-09
1.21241e-07
-1.94673e-09
1.23051e-07
-1.80942e-09
1.24716e-07
-1.66481e-09
1.26228e-07
-1.5126e-09
1.27581e-07
-1.35289e-09
1.28767e-07
-1.1862e-09
1.29781e-07
-1.01342e-09
1.30617e-07
-8.3584e-10
1.31272e-07
-6.55099e-10
1.31744e-07
-4.72779e-10
1.32035e-07
-2.90874e-10
1.32143e-07
-1.0776e-10
1.32062e-07
8.12285e-11
1.31797e-07
2.64353e-10
1.31369e-07
4.2829e-10
1.30794e-07
5.75017e-10
1.30082e-07
7.11667e-10
1.29242e-07
8.4096e-10
1.28278e-07
9.63255e-10
1.27199e-07
1.07969e-09
1.26006e-07
1.19225e-09
1.24703e-07
1.30337e-09
1.23287e-07
1.41548e-09
1.21757e-07
1.53089e-09
1.20105e-07
1.6513e-09
1.18328e-07
1.77762e-09
1.16418e-07
1.90983e-09
1.14371e-07
2.047e-09
1.12183e-07
2.18745e-09
1.09854e-07
2.32909e-09
1.07385e-07
2.46975e-09
1.04777e-07
2.60758e-09
1.02036e-07
2.74135e-09
9.91648e-08
2.87076e-09
9.61685e-08
2.99637e-09
9.30489e-08
3.11959e-09
8.98066e-08
3.24225e-09
8.64403e-08
3.3663e-09
8.29469e-08
3.4934e-09
7.93225e-08
3.62447e-09
7.5563e-08
3.75951e-09
7.16655e-08
3.89748e-09
6.7629e-08
4.03653e-09
6.34548e-08
4.17418e-09
5.9147e-08
4.30779e-09
5.4712e-08
4.43496e-09
5.01584e-08
4.55365e-09
4.54963e-08
4.6621e-09
4.07375e-08
4.75877e-09
3.58952e-08
4.84229e-09
3.09839e-08
4.91136e-09
2.60191e-08
4.96475e-09
2.10178e-08
5.00128e-09
1.59979e-08
5.01995e-09
1.09779e-08
5.01994e-09
5.97733e-09
5.00061e-09
1.01616e-09
4.96117e-09
-3.88516e-09
4.90132e-09
-8.71928e-09
4.83411e-09
-1.3469e-08
4.74975e-09
-1.81113e-08
4.64228e-09
-2.26433e-08
4.53195e-09
-2.70481e-08
4.40484e-09
-3.13155e-08
4.26741e-09
-3.54387e-08
4.12315e-09
-3.94108e-08
3.97218e-09
3.82844e-09
-4.32393e-08
5.81278e-09
-9.52528e-09
1.30686e-08
-1.19959e-08
2.00145e-08
-1.15377e-08
2.67563e-08
-1.12057e-08
3.3448e-08
-1.1122e-08
4.01284e-08
-1.10967e-08
4.67965e-08
-1.1065e-08
5.34465e-08
-1.10216e-08
6.00735e-08
-1.09681e-08
6.66718e-08
-1.09037e-08
7.32351e-08
-1.08266e-08
7.97556e-08
-1.07349e-08
8.62248e-08
-1.06269e-08
9.26333e-08
-1.05017e-08
9.89712e-08
-1.03583e-08
1.05228e-07
-1.01969e-08
1.11395e-07
-1.00181e-08
1.17462e-07
-9.82354e-09
1.23422e-07
-9.61525e-09
1.29267e-07
-9.39568e-09
1.34992e-07
-9.16732e-09
1.40593e-07
-8.93257e-09
1.46066e-07
-8.69358e-09
1.51409e-07
-8.45199e-09
1.5662e-07
-8.20876e-09
1.61697e-07
-7.96422e-09
1.66639e-07
-7.71806e-09
1.71444e-07
-7.46938e-09
1.76108e-07
-7.21678e-09
1.80628e-07
-6.95848e-09
1.84998e-07
-6.69237e-09
1.89212e-07
-6.41618e-09
1.93262e-07
-6.12747e-09
1.97139e-07
-5.82385e-09
2.00833e-07
-5.50312e-09
2.04332e-07
-5.16353e-09
2.07623e-07
-4.80395e-09
2.10694e-07
-4.42416e-09
2.13533e-07
-4.02488e-09
2.16128e-07
-3.60782e-09
2.18467e-07
-3.17567e-09
2.20544e-07
-2.73194e-09
2.22352e-07
-2.28082e-09
2.23888e-07
-1.82683e-09
2.25155e-07
-1.37462e-09
2.26165e-07
-9.28328e-10
2.26925e-07
-4.95613e-10
2.27431e-07
-7.79609e-11
2.27683e-07
3.22453e-10
2.27691e-07
7.04127e-10
2.27468e-07
1.06357e-09
2.27029e-07
1.40248e-09
2.26386e-07
1.72279e-09
2.2555e-07
2.02861e-09
2.24528e-07
2.32468e-09
2.23328e-07
2.61621e-09
2.2195e-07
2.90819e-09
2.20397e-07
3.20455e-09
2.18667e-07
3.50755e-09
2.16759e-07
3.8175e-09
2.14674e-07
4.13261e-09
2.12412e-07
4.4494e-09
2.09978e-07
4.76326e-09
2.07378e-07
5.06936e-09
2.04622e-07
5.36355e-09
2.0172e-07
5.64315e-09
1.98684e-07
5.90757e-09
1.95522e-07
6.15837e-09
1.92242e-07
6.39914e-09
1.88849e-07
6.63474e-09
1.85345e-07
6.87059e-09
1.81727e-07
7.11171e-09
1.77989e-07
7.36198e-09
1.74125e-07
7.6236e-09
1.70126e-07
7.89695e-09
1.65981e-07
8.18108e-09
1.61681e-07
8.47396e-09
1.57216e-07
8.77344e-09
1.52573e-07
9.07782e-09
1.47741e-07
9.38593e-09
1.42706e-07
9.69665e-09
1.37456e-07
1.00086e-08
1.31979e-07
1.03199e-08
1.26263e-07
1.06276e-08
1.20299e-07
1.09279e-08
1.14085e-07
1.12161e-08
1.07618e-07
1.1487e-08
1.00902e-07
1.17351e-08
9.3948e-08
1.19551e-08
8.67669e-08
1.21422e-08
7.93748e-08
1.22935e-08
7.17969e-08
1.24119e-08
6.40552e-08
1.24915e-08
5.61679e-08
1.25295e-08
4.8166e-08
1.25339e-08
4.0069e-08
1.25018e-08
3.19007e-08
1.24357e-08
2.36814e-08
1.23425e-08
1.54314e-08
1.22221e-08
1.21019e-08
7.15798e-09
6.08033e-09
-1.56056e-08
1.34797e-08
-1.93953e-08
2.05034e-08
-1.85615e-08
2.73228e-08
-1.80251e-08
3.41016e-08
-1.79009e-08
4.08793e-08
-1.78744e-08
4.7657e-08
-1.78427e-08
5.44311e-08
-1.77957e-08
6.11983e-08
-1.77353e-08
6.79545e-08
-1.76599e-08
7.46944e-08
-1.75665e-08
8.14112e-08
-1.74517e-08
8.80971e-08
-1.73128e-08
9.4743e-08
-1.71476e-08
1.01339e-07
-1.69547e-08
1.07876e-07
-1.67338e-08
1.14344e-07
-1.64859e-08
1.20733e-07
-1.62129e-08
1.27036e-07
-1.59179e-08
1.33245e-07
-1.56046e-08
1.39354e-07
-1.52766e-08
1.4536e-07
-1.49378e-08
1.51257e-07
-1.45915e-08
1.57046e-07
-1.42401e-08
1.62722e-07
-1.38853e-08
1.68285e-07
-1.35276e-08
1.73734e-07
-1.31666e-08
1.79066e-07
-1.28009e-08
1.84277e-07
-1.24286e-08
1.89366e-07
-1.20468e-08
1.94325e-07
-1.16523e-08
1.99151e-07
-1.12415e-08
2.03834e-07
-1.08106e-08
2.08366e-07
-1.03559e-08
2.12737e-07
-9.87375e-09
2.16934e-07
-9.36118e-09
2.20946e-07
-8.81603e-09
2.2476e-07
-8.23744e-09
2.28361e-07
-7.62603e-09
2.31737e-07
-6.98402e-09
2.34877e-07
-6.31521e-09
2.37769e-07
-5.62485e-09
2.40408e-07
-4.91944e-09
2.42787e-07
-4.20624e-09
2.44906e-07
-3.49299e-09
2.46765e-07
-2.78797e-09
2.4837e-07
-2.10048e-09
2.49732e-07
-1.43982e-09
2.50864e-07
-8.0964e-10
2.51774e-07
-2.05152e-10
2.52462e-07
3.75183e-10
2.52936e-07
9.28308e-10
2.53206e-07
1.45315e-09
2.53279e-07
1.9556e-09
2.53162e-07
2.44124e-09
2.52861e-07
2.91727e-09
2.52378e-07
3.39095e-09
2.51715e-07
3.86826e-09
2.50869e-07
4.35298e-09
2.49841e-07
4.84587e-09
2.48629e-07
5.34434e-09
2.47236e-07
5.84289e-09
2.45665e-07
6.33404e-09
2.43925e-07
6.80968e-09
2.42025e-07
7.26263e-09
2.39981e-07
7.68798e-09
2.37804e-07
8.08414e-09
2.35509e-07
8.45303e-09
2.33109e-07
8.8e-09
2.30611e-07
9.13252e-09
2.28022e-07
9.45932e-09
2.25345e-07
9.78856e-09
2.2258e-07
1.01268e-08
2.19726e-07
1.04783e-08
2.16778e-07
1.08444e-08
2.13734e-07
1.12251e-08
2.10589e-07
1.16188e-08
2.07338e-07
1.20248e-08
2.03973e-07
1.24431e-08
2.00483e-07
1.28754e-08
1.96856e-07
1.33239e-08
1.93074e-07
1.37908e-08
1.89117e-07
1.42772e-08
1.84962e-07
1.47824e-08
1.80586e-07
1.53037e-08
1.75966e-07
1.58364e-08
1.71079e-07
1.63739e-08
1.65905e-07
1.69086e-08
1.60428e-07
1.74323e-08
1.54633e-07
1.79369e-08
1.48511e-07
1.84157e-08
1.42059e-07
1.88645e-08
1.35274e-07
1.9276e-08
1.28159e-07
1.96448e-08
1.20722e-07
1.9971e-08
1.12972e-07
2.02515e-08
1.04923e-07
2.04848e-08
9.65914e-08
2.06739e-08
8.79964e-08
2.08172e-08
2.09283e-08
7.917e-08
5.97859e-09
-2.15842e-08
1.30839e-08
-2.65006e-08
1.97905e-08
-2.52681e-08
2.63108e-08
-2.45454e-08
3.28051e-08
-2.43952e-08
3.93081e-08
-2.43774e-08
4.58209e-08
-2.43554e-08
5.23414e-08
-2.43163e-08
5.88676e-08
-2.42615e-08
6.53963e-08
-2.41886e-08
7.19225e-08
-2.40927e-08
7.844e-08
-2.39692e-08
8.49412e-08
-2.38139e-08
9.14169e-08
-2.36233e-08
9.78575e-08
-2.33953e-08
1.04253e-07
-2.31292e-08
1.10593e-07
-2.28259e-08
1.16868e-07
-2.24882e-08
1.2307e-07
-2.21202e-08
1.29193e-07
-2.17266e-08
1.35229e-07
-2.13128e-08
1.41175e-07
-2.08839e-08
1.47028e-07
-2.04445e-08
1.52786e-07
-1.99981e-08
1.58447e-07
-1.95468e-08
1.64011e-07
-1.90916e-08
1.69477e-07
-1.8632e-08
1.74842e-07
-1.81663e-08
1.80105e-07
-1.76915e-08
1.85262e-07
-1.7204e-08
1.9031e-07
-1.66995e-08
1.95241e-07
-1.61729e-08
2.00049e-07
-1.56191e-08
2.04726e-07
-1.50328e-08
2.09262e-07
-1.44092e-08
2.13645e-07
-1.3744e-08
2.17863e-07
-1.3034e-08
2.21903e-07
-1.22777e-08
2.25752e-07
-1.14755e-08
2.29399e-07
-1.06302e-08
2.3283e-07
-9.74644e-09
2.36036e-07
-8.83127e-09
2.3901e-07
-7.89338e-09
2.41747e-07
-6.9427e-09
2.44244e-07
-5.98992e-09
2.46502e-07
-5.04629e-09
2.48524e-07
-4.12312e-09
2.50316e-07
-3.23094e-09
2.51882e-07
-2.37582e-09
2.53236e-07
-1.55922e-09
2.54392e-07
-7.80855e-10
2.55358e-07
-3.74808e-11
2.5614e-07
6.70484e-10
2.56745e-07
1.3514e-09
2.57175e-07
2.01109e-09
2.57433e-07
2.65924e-09
2.57518e-07
3.30525e-09
2.5743e-07
3.95715e-09
2.57162e-07
4.62011e-09
2.56713e-07
5.29528e-09
2.56078e-07
5.97913e-09
2.55257e-07
6.66387e-09
2.54253e-07
7.3386e-09
2.53071e-07
7.99131e-09
2.51723e-07
8.61097e-09
2.50221e-07
9.18963e-09
2.48581e-07
9.72392e-09
2.46819e-07
1.02155e-08
2.44948e-07
1.06708e-08
2.42981e-07
1.10995e-08
2.40927e-07
1.15132e-08
2.38793e-07
1.19227e-08
2.36583e-07
1.23366e-08
2.34301e-07
1.27602e-08
2.31951e-07
1.31952e-08
2.29535e-07
1.3641e-08
2.27058e-07
1.40958e-08
2.24524e-07
1.45589e-08
2.21935e-07
1.50321e-08
2.1929e-07
1.55197e-08
2.16587e-07
1.60277e-08
2.13814e-07
1.65629e-08
2.10961e-07
1.71308e-08
2.08009e-07
1.77346e-08
2.04938e-07
1.83747e-08
2.01726e-07
1.90485e-08
1.98349e-07
1.9751e-08
1.94782e-07
2.04753e-08
1.91001e-07
2.12136e-08
1.8698e-07
2.19577e-08
1.82696e-07
2.26999e-08
1.78126e-07
2.34339e-08
1.7325e-07
2.41521e-08
1.68047e-07
2.48473e-08
1.62503e-07
2.55155e-08
1.56603e-07
2.61511e-08
1.5034e-07
2.67482e-08
1.43711e-07
2.7303e-08
1.3672e-07
2.78085e-08
2.82555e-08
1.29392e-07
5.89566e-09
-2.74799e-08
1.27886e-08
-3.33935e-08
1.92716e-08
-3.1751e-08
2.55824e-08
-3.08563e-08
3.18784e-08
-3.06912e-08
3.81903e-08
-3.06892e-08
4.45184e-08
-3.06836e-08
5.08614e-08
-3.06592e-08
5.72177e-08
-3.06178e-08
6.35844e-08
-3.05552e-08
6.99568e-08
-3.04651e-08
7.63287e-08
-3.03411e-08
8.2692e-08
-3.01772e-08
8.90376e-08
-2.99689e-08
9.5355e-08
-2.97128e-08
1.01634e-07
-2.94079e-08
1.07863e-07
-2.90553e-08
1.14033e-07
-2.86586e-08
1.20136e-07
-2.82227e-08
1.26164e-07
-2.77542e-08
1.32111e-07
-2.72598e-08
1.37973e-07
-2.67464e-08
1.43748e-07
-2.62198e-08
1.49435e-07
-2.56847e-08
1.55032e-07
-2.51438e-08
1.60539e-07
-2.45986e-08
1.65955e-07
-2.40482e-08
1.71279e-07
-2.34906e-08
1.7651e-07
-2.29221e-08
1.81644e-07
-2.2338e-08
1.86677e-07
-2.17325e-08
1.91603e-07
-2.10994e-08
1.96416e-07
-2.0432e-08
2.01107e-07
-1.97235e-08
2.05666e-07
-1.89677e-08
2.10081e-07
-1.8159e-08
2.1434e-07
-1.72933e-08
2.18431e-07
-1.63684e-08
2.2234e-07
-1.53845e-08
2.26054e-07
-1.4345e-08
2.29564e-07
-1.32556e-08
2.32858e-07
-1.21252e-08
2.35929e-07
-1.09647e-08
2.38773e-07
-9.78678e-09
2.41388e-07
-8.6051e-09
2.43775e-07
-7.4336e-09
2.45938e-07
-6.2858e-09
2.47881e-07
-5.17367e-09
2.4961e-07
-4.10546e-09
2.51136e-07
-3.08496e-09
2.52468e-07
-2.11282e-09
2.53618e-07
-1.18738e-09
2.54594e-07
-3.05625e-10
2.55404e-07
5.4203e-10
2.56049e-07
1.36517e-09
2.56533e-07
2.17592e-09
2.56852e-07
2.98651e-09
2.57001e-07
3.80757e-09
2.56975e-07
4.64591e-09
2.56768e-07
5.50309e-09
2.56372e-07
6.37448e-09
2.55786e-07
7.24956e-09
2.55012e-07
8.11351e-09
2.54053e-07
8.94971e-09
2.52921e-07
9.74268e-09
2.5163e-07
1.04809e-08
2.50196e-07
1.11586e-08
2.48634e-07
1.1777e-08
2.46961e-07
1.23435e-08
2.45191e-07
1.28702e-08
2.43333e-07
1.33714e-08
2.41395e-07
1.38606e-08
2.39383e-07
1.43485e-08
2.37302e-07
1.48409e-08
2.35158e-07
1.53392e-08
2.32958e-07
1.58413e-08
2.30709e-07
1.63441e-08
2.28422e-07
1.68466e-08
2.26102e-07
1.73512e-08
2.23757e-07
1.78649e-08
2.21388e-07
1.83974e-08
2.18991e-07
1.89598e-08
2.1656e-07
1.95619e-08
2.14083e-07
2.02108e-08
2.11548e-07
2.09099e-08
2.08938e-07
2.16584e-08
2.06236e-07
2.24527e-08
2.03425e-07
2.32869e-08
2.00484e-07
2.41539e-08
1.97396e-07
2.50463e-08
1.94139e-07
2.59571e-08
1.90692e-07
2.68803e-08
1.87035e-07
2.78099e-08
1.83142e-07
2.87399e-08
1.78992e-07
2.96658e-08
1.74561e-07
3.05815e-08
1.6983e-07
3.14797e-08
1.64781e-07
3.23516e-08
1.59404e-07
3.31853e-08
3.39546e-08
1.53705e-07
5.86577e-09
-3.33456e-08
1.26588e-08
-4.01865e-08
1.90342e-08
-3.81265e-08
2.52449e-08
-3.7067e-08
3.14476e-08
-3.68939e-08
3.7671e-08
-3.69126e-08
4.39147e-08
-3.69273e-08
5.01775e-08
-3.6922e-08
5.64578e-08
-3.68982e-08
6.27532e-08
-3.68506e-08
6.9059e-08
-3.67709e-08
7.53687e-08
-3.66508e-08
8.16742e-08
-3.64827e-08
8.79655e-08
-3.62602e-08
9.4232e-08
-3.59792e-08
1.00462e-07
-3.56381e-08
1.06645e-07
-3.52382e-08
1.1277e-07
-3.47837e-08
1.18829e-07
-3.42811e-08
1.24813e-07
-3.37386e-08
1.30718e-07
-3.31647e-08
1.36539e-07
-3.2568e-08
1.42276e-07
-3.19559e-08
1.47925e-07
-3.13341e-08
1.53487e-07
-3.07063e-08
1.58963e-07
-3.00741e-08
1.64351e-07
-2.94365e-08
1.69652e-07
-2.8791e-08
1.74863e-07
-2.81331e-08
1.79982e-07
-2.74567e-08
1.85004e-07
-2.6755e-08
1.89925e-07
-2.602e-08
1.94736e-07
-2.52434e-08
1.9943e-07
-2.4417e-08
2.03995e-07
-2.35329e-08
2.0842e-07
-2.25842e-08
2.12692e-07
-2.15659e-08
2.16799e-07
-2.0475e-08
2.20726e-07
-1.93117e-08
2.24461e-07
-1.80797e-08
2.27992e-07
-1.67862e-08
2.31308e-07
-1.54419e-08
2.34404e-07
-1.40601e-08
2.37274e-07
-1.26566e-08
2.39916e-07
-1.1248e-08
2.42334e-07
-9.85102e-09
2.4453e-07
-8.48167e-09
2.4651e-07
-7.15376e-09
2.48282e-07
-5.87745e-09
2.49855e-07
-4.65833e-09
2.5124e-07
-3.49805e-09
2.52448e-07
-2.39481e-09
2.53486e-07
-1.34352e-09
2.54362e-07
-3.3384e-10
2.55079e-07
6.47374e-10
2.5564e-07
1.61564e-09
2.5604e-07
2.58665e-09
2.56273e-07
3.5741e-09
2.56332e-07
4.58691e-09
2.56208e-07
5.62719e-09
2.55893e-07
6.68909e-09
2.55384e-07
7.75897e-09
2.5468e-07
8.81745e-09
2.53787e-07
9.84258e-09
2.52716e-07
1.08137e-08
2.51482e-07
1.17151e-08
2.50102e-07
1.25386e-08
2.48594e-07
1.32848e-08
2.46975e-07
1.39625e-08
2.45259e-07
1.45864e-08
2.43456e-07
1.51742e-08
2.41574e-07
1.57428e-08
2.39617e-07
1.63048e-08
2.37591e-07
1.68669e-08
2.35501e-07
1.74294e-08
2.33354e-07
1.79881e-08
2.3116e-07
1.85379e-08
2.2893e-07
1.90766e-08
2.26674e-07
1.96074e-08
2.24399e-07
2.01396e-08
2.2211e-07
2.06871e-08
2.19804e-07
2.12655e-08
2.17477e-07
2.18894e-08
2.15118e-07
2.25695e-08
2.12716e-07
2.33114e-08
2.10259e-07
2.4116e-08
2.07731e-07
2.49801e-08
2.0512e-07
2.58978e-08
2.02412e-07
2.68619e-08
1.99594e-07
2.78649e-08
1.96651e-07
2.89e-08
1.9357e-07
2.99614e-08
1.90335e-07
3.10443e-08
1.86931e-07
3.21442e-08
1.83339e-07
3.32577e-08
1.79541e-07
3.438e-08
1.75517e-07
3.55037e-08
1.7125e-07
3.66183e-08
1.66726e-07
3.77091e-08
3.87436e-08
1.61937e-07
5.86342e-09
-3.92091e-08
1.2616e-08
-4.6939e-08
1.89457e-08
-4.44562e-08
2.51146e-08
-4.32359e-08
3.12795e-08
-4.30588e-08
3.74684e-08
-4.31014e-08
4.36805e-08
-4.31395e-08
4.99144e-08
-4.31559e-08
5.61691e-08
-4.31529e-08
6.2442e-08
-4.31235e-08
6.87285e-08
-4.30575e-08
7.50222e-08
-4.29445e-08
8.13144e-08
-4.27748e-08
8.75946e-08
-4.25405e-08
9.38516e-08
-4.22361e-08
1.00073e-07
-4.18596e-08
1.06247e-07
-4.14124e-08
1.12363e-07
-4.08998e-08
1.18412e-07
-4.03296e-08
1.24385e-07
-3.9712e-08
1.30278e-07
-3.90576e-08
1.36087e-07
-3.8377e-08
1.4181e-07
-3.76791e-08
1.47447e-07
-3.6971e-08
1.52998e-07
-3.62571e-08
1.58463e-07
-3.55392e-08
1.63843e-07
-3.48164e-08
1.69137e-07
-3.40853e-08
1.74345e-07
-3.33406e-08
1.79463e-07
-3.2575e-08
1.84488e-07
-3.178e-08
1.89414e-07
-3.09461e-08
1.94234e-07
-3.00634e-08
1.98939e-07
-2.91217e-08
2.03518e-07
-2.81116e-08
2.07958e-07
-2.70249e-08
2.12247e-07
-2.58552e-08
2.16371e-07
-2.45988e-08
2.20315e-07
-2.32558e-08
2.24066e-07
-2.18303e-08
2.27611e-07
-2.0331e-08
2.30939e-07
-1.87705e-08
2.34044e-07
-1.7165e-08
2.36921e-07
-1.55333e-08
2.39568e-07
-1.38953e-08
2.41988e-07
-1.2271e-08
2.44185e-07
-1.06788e-08
2.46166e-07
-9.13487e-09
2.4794e-07
-7.65127e-09
2.49517e-07
-6.23528e-09
2.50909e-07
-4.8894e-09
2.52125e-07
-3.61154e-09
2.53177e-07
-2.39495e-09
2.5407e-07
-1.22738e-09
2.5481e-07
-9.24117e-11
2.55397e-07
1.02917e-09
2.55826e-07
2.15721e-09
2.56091e-07
3.30896e-09
2.56182e-07
4.49602e-09
2.56088e-07
5.72124e-09
2.558e-07
6.97743e-09
2.55311e-07
8.24735e-09
2.54622e-07
9.50626e-09
2.53739e-07
1.0726e-08
2.52673e-07
1.18798e-08
2.51441e-07
1.29473e-08
2.50062e-07
1.39175e-08
2.48556e-07
1.47904e-08
2.46942e-07
1.55767e-08
2.45234e-07
1.62947e-08
2.43442e-07
1.69663e-08
2.41572e-07
1.76121e-08
2.3963e-07
1.82477e-08
2.37616e-07
1.88802e-08
2.35537e-07
1.95087e-08
2.33399e-07
2.0126e-08
2.31213e-07
2.07242e-08
2.2899e-07
2.12992e-08
2.26743e-07
2.18545e-08
2.2448e-07
2.24023e-08
2.22206e-07
2.29611e-08
2.1992e-07
2.35521e-08
2.17614e-07
2.4195e-08
2.15279e-07
2.49042e-08
2.12903e-07
2.56882e-08
2.1047e-07
2.65486e-08
2.07968e-07
2.74823e-08
2.05383e-07
2.84829e-08
2.02702e-07
2.95425e-08
1.99914e-07
3.06529e-08
1.97008e-07
3.18067e-08
1.93971e-07
3.29977e-08
1.90794e-07
3.42215e-08
1.87464e-07
3.54744e-08
1.83968e-07
3.67538e-08
1.80292e-07
3.80556e-08
1.76423e-07
3.93729e-08
1.72347e-07
4.06944e-08
1.68053e-07
4.20035e-08
4.32671e-08
1.63529e-07
5.8706e-09
-4.50797e-08
1.26058e-08
-5.36742e-08
1.89148e-08
-5.07653e-08
2.5066e-08
-4.93871e-08
3.1216e-08
-4.92089e-08
3.73925e-08
-4.92779e-08
4.35945e-08
-4.93415e-08
4.98211e-08
-4.93825e-08
5.60712e-08
-4.9403e-08
6.23425e-08
-4.93948e-08
6.86306e-08
-4.93456e-08
7.49287e-08
-4.92425e-08
8.12277e-08
-4.90738e-08
8.75166e-08
-4.88295e-08
9.37832e-08
-4.85027e-08
1.00014e-07
-4.80908e-08
1.06198e-07
-4.75956e-08
1.12321e-07
-4.70233e-08
1.18375e-07
-4.63837e-08
1.24352e-07
-4.56889e-08
1.30246e-07
-4.49519e-08
1.36055e-07
-4.41855e-08
1.41776e-07
-4.34006e-08
1.47411e-07
-4.26055e-08
1.52959e-07
-4.18055e-08
1.58423e-07
-4.10027e-08
1.63802e-07
-4.01959e-08
1.69098e-07
-3.93811e-08
1.74309e-07
-3.85517e-08
1.79434e-07
-3.76994e-08
1.84468e-07
-3.68139e-08
1.89405e-07
-3.5884e-08
1.9424e-07
-3.48978e-08
1.98962e-07
-3.38435e-08
2.0356e-07
-3.27097e-08
2.08022e-07
-3.14866e-08
2.12333e-07
-3.01664e-08
2.16478e-07
-2.87445e-08
2.20443e-07
-2.72208e-08
2.24213e-07
-2.55999e-08
2.27774e-07
-2.38917e-08
2.31114e-07
-2.21112e-08
2.34227e-07
-2.02778e-08
2.37107e-07
-1.84134e-08
2.39754e-07
-1.65416e-08
2.42168e-07
-1.46858e-08
2.44357e-07
-1.28675e-08
2.46328e-07
-1.11053e-08
2.4809e-07
-9.41328e-09
2.49655e-07
-7.80045e-09
2.51035e-07
-6.27016e-09
2.52244e-07
-4.82002e-09
2.53291e-07
-3.44175e-09
2.54184e-07
-2.12074e-09
2.54929e-07
-8.36948e-10
2.55525e-07
4.32974e-10
2.55968e-07
1.71392e-09
2.5625e-07
3.02738e-09
2.56357e-07
4.38829e-09
2.56278e-07
5.80054e-09
2.56e-07
7.25549e-09
2.55516e-07
8.7317e-09
2.54824e-07
1.01981e-08
2.53931e-07
1.16191e-08
2.5285e-07
1.29609e-08
2.516e-07
1.41974e-08
2.50203e-07
1.53145e-08
2.48681e-07
1.6312e-08
2.47055e-07
1.72029e-08
2.45339e-07
1.80101e-08
2.43545e-07
1.87606e-08
2.41677e-07
1.94804e-08
2.39737e-07
2.01879e-08
2.37725e-07
2.08914e-08
2.35646e-07
2.15879e-08
2.33506e-07
2.22663e-08
2.31316e-07
2.29143e-08
2.2909e-07
2.35252e-08
2.26841e-07
2.41028e-08
2.24581e-07
2.46624e-08
2.22314e-07
2.52281e-08
2.20039e-07
2.58276e-08
2.17747e-07
2.64865e-08
2.15428e-07
2.72238e-08
2.13066e-07
2.80503e-08
2.10646e-07
2.89685e-08
2.08153e-07
2.9975e-08
2.05573e-07
3.10625e-08
2.02894e-07
3.22222e-08
2.00102e-07
3.34449e-08
1.97186e-07
3.47223e-08
1.94136e-07
3.60479e-08
1.9094e-07
3.74172e-08
1.87587e-07
3.88275e-08
1.84064e-07
4.02763e-08
1.8036e-07
4.17604e-08
1.7646e-07
4.32729e-08
1.72352e-07
4.48016e-08
1.68028e-07
4.63278e-08
4.78179e-08
1.63477e-07
5.87993e-09
-5.09596e-08
1.26044e-08
-6.03986e-08
1.89012e-08
-5.70621e-08
2.50433e-08
-5.55291e-08
3.11866e-08
-5.53522e-08
3.73585e-08
-5.54498e-08
4.35585e-08
-5.55415e-08
4.97857e-08
-5.56097e-08
5.60395e-08
-5.56568e-08
6.23177e-08
-5.5673e-08
6.8616e-08
-5.56439e-08
7.49274e-08
-5.55539e-08
8.12423e-08
-5.53888e-08
8.75491e-08
-5.51363e-08
9.38344e-08
-5.4788e-08
1.00084e-07
-5.43405e-08
1.06285e-07
-5.3796e-08
1.12423e-07
-5.31618e-08
1.18489e-07
-5.24499e-08
1.24475e-07
-5.16748e-08
1.30376e-07
-5.08524e-08
1.36188e-07
-4.99977e-08
1.41911e-07
-4.91239e-08
1.47546e-07
-4.82406e-08
1.53095e-07
-4.73542e-08
1.58559e-07
-4.64669e-08
1.6394e-07
-4.55772e-08
1.6924e-07
-4.46804e-08
1.74457e-07
-4.37688e-08
1.7959e-07
-4.28324e-08
1.84635e-07
-4.18593e-08
1.89588e-07
-4.08364e-08
1.9444e-07
-3.97498e-08
1.99182e-07
-3.85857e-08
2.03803e-07
-3.73307e-08
2.08289e-07
-3.5973e-08
2.12626e-07
-3.45033e-08
2.16798e-07
-3.2916e-08
2.20787e-07
-3.12104e-08
2.24579e-07
-2.93915e-08
2.28158e-07
-2.74708e-08
2.31512e-07
-2.54657e-08
2.34633e-07
-2.33988e-08
2.37516e-07
-2.1296e-08
2.40159e-07
-1.91849e-08
2.42566e-07
-1.70924e-08
2.44742e-07
-1.50436e-08
2.46697e-07
-1.30597e-08
2.48441e-07
-1.11573e-08
2.49987e-07
-9.34696e-09
2.5135e-07
-7.63301e-09
2.52543e-07
-6.01284e-09
2.53578e-07
-4.47668e-09
2.54464e-07
-3.00723e-09
2.55208e-07
-1.58052e-09
2.55809e-07
-1.68071e-10
2.56262e-07
1.26037e-09
2.56557e-07
2.7323e-09
2.5668e-07
4.26616e-09
2.56612e-07
5.86783e-09
2.56341e-07
7.52686e-09
2.55856e-07
9.21694e-09
2.55154e-07
1.08994e-08
2.54244e-07
1.25299e-08
2.53138e-07
1.4066e-08
2.51861e-07
1.5475e-08
2.50436e-07
1.67392e-08
2.4889e-07
1.78584e-08
2.47244e-07
1.88485e-08
2.45516e-07
1.97384e-08
2.43715e-07
2.05618e-08
2.41844e-07
2.13508e-08
2.39904e-07
2.21283e-08
2.37892e-07
2.29034e-08
2.35809e-07
2.36704e-08
2.33663e-07
2.4413e-08
2.31464e-07
2.51126e-08
2.29231e-07
2.5759e-08
2.26978e-07
2.63556e-08
2.24719e-07
2.69215e-08
2.22459e-07
2.74876e-08
2.20198e-07
2.80896e-08
2.17924e-07
2.876e-08
2.15625e-07
2.95228e-08
2.13284e-07
3.03915e-08
2.10884e-07
3.13688e-08
2.08408e-07
3.24506e-08
2.05842e-07
3.36283e-08
2.03173e-07
3.48917e-08
2.00387e-07
3.62306e-08
1.97473e-07
3.76358e-08
1.94421e-07
3.91004e-08
1.91218e-07
4.06202e-08
1.87852e-07
4.21934e-08
1.8431e-07
4.38187e-08
1.80576e-07
4.54938e-08
1.76637e-07
4.7212e-08
1.72478e-07
4.89605e-08
1.68088e-07
5.07184e-08
5.245e-08
1.63456e-07
5.88914e-09
-5.68487e-08
1.26034e-08
-6.71129e-08
1.88897e-08
-6.33485e-08
2.50254e-08
-6.16648e-08
3.11647e-08
-6.14915e-08
3.73346e-08
-6.16197e-08
4.3535e-08
-6.17419e-08
4.97656e-08
-6.18403e-08
5.60262e-08
-6.19174e-08
6.2315e-08
-6.19618e-08
6.86277e-08
-6.19565e-08
7.49571e-08
-6.18833e-08
8.12931e-08
-6.17247e-08
8.76229e-08
-6.14661e-08
9.39321e-08
-6.10972e-08
1.00205e-07
-6.06137e-08
1.06427e-07
-6.00181e-08
1.12585e-07
-5.93193e-08
1.18667e-07
-5.85315e-08
1.24664e-07
-5.76723e-08
1.30572e-07
-5.67607e-08
1.36389e-07
-5.58147e-08
1.42115e-07
-5.48496e-08
1.47751e-07
-5.38767e-08
1.533e-07
-5.29034e-08
1.58765e-07
-5.19319e-08
1.64149e-07
-5.09606e-08
1.69452e-07
-4.99838e-08
1.74676e-07
-4.89924e-08
1.79818e-07
-4.79749e-08
1.84876e-07
-4.69175e-08
1.89845e-07
-4.5805e-08
1.94717e-07
-4.46215e-08
1.99482e-07
-4.33509e-08
2.04129e-07
-4.19775e-08
2.08643e-07
-4.04876e-08
2.1301e-07
-3.88698e-08
2.17211e-07
-3.71171e-08
2.21229e-07
-3.52282e-08
2.25046e-07
-3.32085e-08
2.28646e-07
-3.10709e-08
2.32016e-07
-2.88357e-08
2.35146e-07
-2.6529e-08
2.38031e-07
-2.41812e-08
2.4067e-07
-2.1824e-08
2.43067e-07
-1.94887e-08
2.45227e-07
-1.72041e-08
2.47162e-07
-1.49945e-08
2.48884e-07
-1.2879e-08
2.50407e-07
-1.08702e-08
2.51747e-07
-8.9733e-09
2.5292e-07
-7.18562e-09
2.53939e-07
-5.4959e-09
2.54816e-07
-3.88394e-09
2.55557e-07
-2.32129e-09
2.56162e-07
-7.73549e-10
2.56627e-07
7.95716e-10
2.56937e-07
2.42201e-09
2.57076e-07
4.12744e-09
2.57022e-07
5.92127e-09
2.56758e-07
7.79084e-09
2.56271e-07
9.70409e-09
2.55557e-07
1.16133e-08
2.54624e-07
1.34633e-08
2.53488e-07
1.52016e-08
2.52176e-07
1.67874e-08
2.50716e-07
1.81989e-08
2.49139e-07
1.94359e-08
2.47469e-07
2.05186e-08
2.45724e-07
2.14828e-08
2.43915e-07
2.23713e-08
2.42042e-07
2.32239e-08
2.40101e-07
2.40689e-08
2.38087e-07
2.49168e-08
2.36e-07
2.57583e-08
2.33843e-07
2.65691e-08
2.31633e-07
2.73232e-08
2.29387e-07
2.80044e-08
2.27127e-07
2.86157e-08
2.24868e-07
2.91807e-08
2.22617e-07
2.97387e-08
2.20372e-07
3.03351e-08
2.1812e-07
3.10111e-08
2.15847e-07
3.1796e-08
2.13533e-07
3.27059e-08
2.11158e-07
3.37434e-08
2.08706e-07
3.49026e-08
2.06161e-07
3.61731e-08
2.0351e-07
3.75432e-08
2.00739e-07
3.90012e-08
1.97838e-07
4.05367e-08
1.94796e-07
4.21424e-08
1.91602e-07
4.38148e-08
1.88242e-07
4.55534e-08
1.84702e-07
4.73589e-08
1.80965e-07
4.92305e-08
1.77014e-07
5.11628e-08
1.72832e-07
5.31426e-08
1.68403e-07
5.5147e-08
5.71373e-08
1.63716e-07
5.89778e-09
-6.27465e-08
1.26001e-08
-7.38152e-08
1.88756e-08
-6.9624e-08
2.50051e-08
-6.77943e-08
3.1141e-08
-6.76273e-08
3.73093e-08
-6.77881e-08
4.35107e-08
-6.79433e-08
4.97455e-08
-6.80751e-08
5.60143e-08
-6.81861e-08
6.23155e-08
-6.82631e-08
6.86451e-08
-6.82861e-08
7.49956e-08
-6.82338e-08
8.13562e-08
-6.80854e-08
8.77132e-08
-6.78231e-08
9.40506e-08
-6.74347e-08
1.00351e-07
-6.69146e-08
1.06599e-07
-6.62657e-08
1.12779e-07
-6.54987e-08
1.18878e-07
-6.46308e-08
1.24888e-07
-6.36829e-08
1.30806e-07
-6.26778e-08
1.36628e-07
-6.16367e-08
1.42355e-07
-6.05774e-08
1.47992e-07
-5.95133e-08
1.53541e-07
-5.84523e-08
1.59006e-07
-5.73972e-08
1.64391e-07
-5.63456e-08
1.69699e-07
-5.5291e-08
1.74929e-07
-5.42227e-08
1.80081e-07
-5.31275e-08
1.85154e-07
-5.19896e-08
1.9014e-07
-5.07915e-08
1.95034e-07
-4.95151e-08
1.99825e-07
-4.81418e-08
2.04501e-07
-4.66536e-08
2.09047e-07
-4.5034e-08
2.13447e-07
-4.32698e-08
2.17682e-07
-4.1352e-08
2.21732e-07
-3.92784e-08
2.25578e-07
-3.70547e-08
2.29203e-07
-3.46953e-08
2.32591e-07
-3.22235e-08
2.35731e-07
-2.96697e-08
2.38619e-07
-2.70688e-08
2.41253e-07
-2.44579e-08
2.43637e-07
-2.18728e-08
2.45779e-07
-1.93463e-08
2.47691e-07
-1.69063e-08
2.49387e-07
-1.45747e-08
2.50882e-07
-1.23661e-08
2.52196e-07
-1.02869e-08
2.53345e-07
-8.33458e-09
2.54346e-07
-6.49635e-09
2.5521e-07
-4.74889e-09
2.55948e-07
-3.05873e-09
2.56559e-07
-1.38452e-09
2.57037e-07
3.17418e-10
2.57367e-07
2.09243e-09
2.57526e-07
3.96797e-09
2.57491e-07
5.95689e-09
2.57237e-07
8.04492e-09
2.56748e-07
1.01928e-08
2.56019e-07
1.23419e-08
2.55058e-07
1.44241e-08
2.53886e-07
1.63742e-08
2.52531e-07
1.81421e-08
2.51029e-07
1.9701e-08
2.49414e-07
2.1051e-08
2.47715e-07
2.22177e-08
2.45952e-07
2.32461e-08
2.44133e-07
2.41898e-08
2.42258e-07
2.5099e-08
2.40318e-07
2.60087e-08
2.38304e-07
2.69313e-08
2.3621e-07
2.78527e-08
2.34041e-07
2.87381e-08
2.31813e-07
2.95507e-08
2.29551e-07
3.02664e-08
2.2728e-07
3.0887e-08
2.25019e-07
3.14418e-08
2.22776e-07
3.19808e-08
2.2055e-07
3.25616e-08
2.18326e-07
3.32355e-08
2.16083e-07
3.40385e-08
2.13801e-07
3.49884e-08
2.11457e-07
3.60873e-08
2.09033e-07
3.73264e-08
2.06513e-07
3.86925e-08
2.03884e-07
4.01723e-08
2.01134e-07
4.1752e-08
1.98251e-07
4.34197e-08
1.95225e-07
4.51677e-08
1.92047e-07
4.69933e-08
1.88702e-07
4.88979e-08
1.85177e-07
5.08846e-08
1.81452e-07
5.29554e-08
1.77508e-07
5.51068e-08
1.73324e-07
5.7326e-08
1.68883e-07
5.95887e-08
6.18525e-08
1.64168e-07
5.90583e-09
-6.86524e-08
1.25937e-08
-8.0503e-08
1.88569e-08
-7.58872e-08
2.49798e-08
-7.39173e-08
3.11117e-08
-7.37593e-08
3.72781e-08
-7.39545e-08
4.34802e-08
-7.41454e-08
4.97195e-08
-7.43144e-08
5.5997e-08
-7.44636e-08
6.23119e-08
-7.4578e-08
6.86604e-08
-7.46345e-08
7.50348e-08
-7.46082e-08
8.14236e-08
-7.44742e-08
8.78119e-08
-7.42114e-08
9.41818e-08
-7.38046e-08
1.00514e-07
-7.32472e-08
1.06791e-07
-7.25425e-08
1.12996e-07
-7.17031e-08
1.19115e-07
-7.07499e-08
1.2514e-07
-6.97079e-08
1.31066e-07
-6.86041e-08
1.36893e-07
-6.74635e-08
1.42622e-07
-6.63068e-08
1.48258e-07
-6.51494e-08
1.53806e-07
-6.40001e-08
1.59271e-07
-6.28619e-08
1.64657e-07
-6.17318e-08
1.69968e-07
-6.06018e-08
1.75205e-07
-5.946e-08
1.80369e-07
-5.8291e-08
1.85456e-07
-5.70768e-08
1.90462e-07
-5.57977e-08
1.9538e-07
-5.4433e-08
2.002e-07
-5.29615e-08
2.04908e-07
-5.13624e-08
2.09491e-07
-4.96165e-08
2.13929e-07
-4.77078e-08
2.18202e-07
-4.56255e-08
2.2229e-07
-4.33657e-08
2.26169e-07
-4.09344e-08
2.29822e-07
-3.83475e-08
2.3323e-07
-3.56317e-08
2.36382e-07
-3.28221e-08
2.39273e-07
-2.99592e-08
2.419e-07
-2.70857e-08
2.4427e-07
-2.42427e-08
2.46391e-07
-2.14673e-08
2.48276e-07
-1.87915e-08
2.49942e-07
-1.62401e-08
2.51406e-07
-1.38301e-08
2.52688e-07
-1.15694e-08
2.5381e-07
-9.45568e-09
2.54788e-07
-7.47479e-09
2.55639e-07
-5.60011e-09
2.56373e-07
-3.7926e-09
2.56992e-07
-2.00303e-09
2.57486e-07
-1.77389e-10
2.57841e-07
1.73807e-09
2.58027e-07
3.78193e-09
2.58014e-07
5.96937e-09
2.57774e-07
8.28532e-09
2.57285e-07
1.0682e-08
2.56539e-07
1.30873e-08
2.55546e-07
1.54169e-08
2.5433e-07
1.75909e-08
2.52924e-07
1.95475e-08
2.51372e-07
2.12538e-08
2.49712e-07
2.27107e-08
2.47979e-07
2.39508e-08
2.46194e-07
2.50304e-08
2.44367e-07
2.60171e-08
2.42492e-07
2.69741e-08
2.40555e-07
2.79452e-08
2.38541e-07
2.89456e-08
2.36439e-07
2.99546e-08
2.34254e-07
3.09237e-08
2.32004e-07
3.18007e-08
2.29719e-07
3.25509e-08
2.27432e-07
3.31744e-08
2.25166e-07
3.37072e-08
2.22934e-07
3.42134e-08
2.20729e-07
3.47658e-08
2.18536e-07
3.54285e-08
2.1633e-07
3.62446e-08
2.14085e-07
3.72338e-08
2.11776e-07
3.83958e-08
2.09385e-07
3.97177e-08
2.06895e-07
4.11829e-08
2.04291e-07
4.27756e-08
2.01564e-07
4.44798e-08
1.98701e-07
4.62817e-08
1.95696e-07
4.81731e-08
1.92538e-07
5.01518e-08
1.89214e-07
5.22217e-08
1.85709e-07
5.43894e-08
1.82004e-07
5.66606e-08
1.78076e-07
5.90347e-08
1.73902e-07