/*--------------------------------*- C++ -*----------------------------------*\
| =========                 |                                                 |
| \\      /  F ield         | OpenFOAM: The Open Source CFD Toolbox           |
|  \\    /   O peration     | Version:  2.4.0                                 |
|   \\  /    A nd           | Web:      www.OpenFOAM.org                      |
|    \\/     M anipulation  |                                                 |
\*---------------------------------------------------------------------------*/
FoamFile
{
    version     2.0;
    format      ascii;
    class       surfaceScalarField;
    location    "0.203";
    object      phi;
}
// * * * * * * * * * * * * * * * * * * * * * * * * * * * * * * * * * * * * * //

dimensions      [0 3 -1 0 0 0 0];

internalField   nonuniform List<scalar> 
19800
(
2.01717e-13
-2.01718e-13
5.61752e-13
-3.63583e-13
1.05222e-12
-4.9225e-13
1.72274e-12
-6.72199e-13
2.60153e-12
-8.80592e-13
3.68418e-12
-1.08449e-12
4.94991e-12
-1.26756e-12
6.37459e-12
-1.42637e-12
7.93588e-12
-1.56249e-12
9.61412e-12
-1.67862e-12
1.13916e-11
-1.77702e-12
1.32516e-11
-1.8592e-12
1.51779e-11
-1.92587e-12
1.71543e-11
-1.97695e-12
1.91645e-11
-2.01164e-12
2.11912e-11
-2.02846e-12
2.32154e-11
-2.0254e-12
2.52153e-11
-2.00003e-12
2.71659e-11
-1.94966e-12
2.90389e-11
-1.87162e-12
3.08036e-11
-1.76374e-12
3.24288e-11
-1.62518e-12
3.38853e-11
-1.45722e-12
3.51484e-11
-1.26402e-12
3.6201e-11
-1.05299e-12
3.70366e-11
-8.35125e-13
3.76632e-11
-6.25509e-13
3.81051e-11
-4.40635e-13
3.8402e-11
-2.96057e-13
3.86023e-11
-2e-13
3.87536e-11
-1.51226e-13
3.88831e-11
-1.29131e-13
3.89899e-11
-1.05717e-13
3.90453e-11
-5.39061e-14
3.90036e-11
4.30681e-14
3.88127e-11
1.91719e-13
3.84197e-11
3.93249e-13
3.77721e-11
6.47434e-13
3.68179e-11
9.54145e-13
3.55053e-11
1.31294e-12
3.37839e-11
1.72188e-12
3.16075e-11
2.17656e-12
2.89371e-11
2.66968e-12
2.57443e-11
3.19126e-12
2.20134e-11
3.72907e-12
1.77427e-11
4.26918e-12
1.29452e-11
4.79651e-12
7.649e-12
5.2955e-12
1.89156e-12
5.75696e-12
6.1607e-12
-4.26949e-12
3.7497e-13
-5.79314e-13
1.0591e-12
-1.05349e-12
2.0567e-12
-1.49391e-12
3.48785e-12
-2.10632e-12
5.41912e-12
-2.8146e-12
7.84985e-12
-3.51807e-12
1.07432e-11
-4.16361e-12
1.40507e-11
-4.73583e-12
1.77238e-11
-5.23632e-12
2.17168e-11
-5.67122e-12
2.59865e-11
-6.04591e-12
3.04909e-11
-6.36335e-12
3.51877e-11
-6.62384e-12
4.00336e-11
-6.82534e-12
4.49831e-11
-6.96387e-12
4.99868e-11
-7.03386e-12
5.49898e-11
-7.02842e-12
5.99306e-11
-6.93925e-12
6.47401e-11
-6.75698e-12
6.9342e-11
-6.47206e-12
7.36553e-11
-6.07701e-12
7.75986e-11
-5.56958e-12
8.10958e-11
-4.95581e-12
8.40835e-11
-4.25208e-12
8.65175e-11
-3.48613e-12
8.83817e-11
-2.69754e-12
8.9695e-11
-1.93675e-12
9.05167e-11
-1.26101e-12
9.09431e-11
-7.21775e-13
9.10931e-11
-3.49716e-13
9.10787e-11
-1.36053e-13
9.09706e-11
-1.94845e-14
9.07715e-11
9.5684e-14
9.04194e-11
3.00361e-13
8.98118e-11
6.52143e-13
8.88292e-11
1.17495e-12
8.73475e-11
1.87516e-12
8.52415e-11
2.75382e-12
8.2385e-11
3.81147e-12
7.86517e-11
5.04705e-12
7.39193e-11
6.45436e-12
6.80757e-11
8.01878e-12
6.10273e-11
9.71553e-12
5.27057e-11
1.15099e-11
4.30736e-11
1.33586e-11
3.21282e-11
1.52129e-11
1.99027e-11
1.7021e-11
6.46556e-12
1.87319e-11
-8.07009e-12
2.02921e-11
2.16674e-11
-2.35767e-11
5.10967e-13
-1.09206e-12
1.51677e-12
-2.06237e-12
3.03081e-12
-3.01064e-12
5.1897e-12
-4.26753e-12
8.07044e-12
-5.69756e-12
1.16741e-11
-7.12406e-12
1.59591e-11
-8.45064e-12
2.08674e-11
-9.6457e-12
2.63386e-11
-1.07081e-11
3.23126e-11
-1.16452e-11
3.87304e-11
-1.24637e-11
4.55322e-11
-1.31658e-11
5.26558e-11
-1.37491e-11
6.00354e-11
-1.42072e-11
6.76002e-11
-1.45304e-11
7.52721e-11
-1.47064e-11
8.29651e-11
-1.47205e-11
9.05826e-11
-1.45551e-11
9.80178e-11
-1.41905e-11
1.05153e-10
-1.36065e-11
1.11863e-10
-1.27874e-11
1.18021e-10
-1.17288e-11
1.23508e-10
-1.04438e-11
1.28222e-10
-8.96602e-12
1.32088e-10
-7.35141e-12
1.35072e-10
-5.67921e-12
1.37187e-10
-4.05084e-12
1.38509e-10
-2.58225e-12
1.39173e-10
-1.38533e-12
1.39352e-10
-5.28813e-13
1.39221e-10
-4.34522e-15
1.3889e-10
3.12208e-13
1.38365e-10
6.23116e-13
1.37548e-10
1.11876e-12
1.36288e-10
1.91425e-12
1.34411e-10
3.05267e-12
1.31743e-10
4.54453e-12
1.28106e-10
6.39302e-12
1.23317e-10
8.60211e-12
1.17192e-10
1.11726e-11
1.09553e-10
1.40937e-11
1.00234e-10
1.73359e-11
8.91e-11
2.08475e-11
7.60524e-11
2.45554e-11
6.10409e-11
2.83687e-11
4.4068e-11
3.21849e-11
2.51922e-11
3.58963e-11
4.52732e-12
3.93963e-11
-1.77648e-11
4.25841e-11
4.53722e-11
-4.14688e-11
7.00074e-13
-1.79391e-12
2.15727e-12
-3.52117e-12
4.33238e-12
-5.1873e-12
7.34009e-12
-7.27683e-12
1.1247e-11
-9.60622e-12
1.60507e-11
-1.19295e-11
2.17081e-11
-1.41097e-11
2.81601e-11
-1.60991e-11
3.53433e-11
-1.78921e-11
4.31923e-11
-1.94947e-11
5.16395e-11
-2.09116e-11
6.06137e-11
-2.21409e-11
7.00374e-11
-2.31743e-11
7.98265e-11
-2.39976e-11
8.98882e-11
-2.45928e-11
1.0012e-10
-2.49383e-11
1.1041e-10
-2.50092e-11
1.20633e-10
-2.47765e-11
1.3065e-10
-2.42067e-11
1.40308e-10
-2.32652e-11
1.49444e-10
-2.19236e-11
1.57886e-10
-2.01724e-11
1.65474e-10
-1.80314e-11
1.72061e-10
-1.5553e-11
1.77534e-10
-1.28239e-11
1.81824e-10
-9.9676e-12
1.84921e-10
-7.14684e-12
1.86895e-10
-4.55612e-12
1.87904e-10
-2.39406e-12
1.88183e-10
-8.08299e-13
1.87983e-10
1.96088e-13
1.87471e-10
8.25393e-13
1.86648e-10
1.44799e-12
1.85367e-10
2.40179e-12
1.83414e-10
3.86929e-12
1.8057e-10
5.89882e-12
1.76621e-10
8.49505e-12
1.71353e-10
1.16631e-11
1.64541e-10
1.54164e-11
1.5595e-10
1.9764e-11
1.4535e-10
2.46934e-11
1.32528e-10
3.01567e-11
1.17309e-10
3.6066e-11
9.95679e-11
4.22952e-11
7.92477e-11
4.86884e-11
5.63616e-11
5.50707e-11
3.09977e-11
6.12598e-11
3.31751e-12
6.70764e-11
-2.64502e-11
7.23524e-11
7.69386e-11
-5.80151e-11
9.18231e-13
-2.71344e-12
2.88981e-12
-5.49363e-12
5.79178e-12
-8.09008e-12
9.69426e-12
-1.11802e-11
1.46419e-11
-1.4555e-11
2.06244e-11
-1.79134e-11
2.75992e-11
-2.10859e-11
3.55105e-11
-2.40117e-11
4.42977e-11
-2.66802e-11
5.3896e-11
-2.90938e-11
6.42352e-11
-3.12514e-11
7.52363e-11
-3.31427e-11
8.68104e-11
-3.47491e-11
9.88572e-11
-3.6045e-11
1.11265e-10
-3.70008e-11
1.23911e-10
-3.7584e-11
1.36661e-10
-3.77586e-11
1.49368e-10
-3.74834e-11
1.61871e-10
-3.67098e-11
1.7399e-10
-3.53838e-11
1.85523e-10
-3.34578e-11
1.96262e-10
-3.09115e-11
2.05999e-10
-2.77685e-11
2.14545e-10
-2.40984e-11
2.21737e-10
-2.00149e-11
2.27453e-10
-1.56823e-11
2.31634e-10
-1.13274e-11
2.3432e-10
-7.2417e-12
2.35679e-10
-3.75225e-12
2.36018e-10
-1.14821e-12
2.35712e-10
5.02426e-13
2.35023e-10
1.51494e-12
2.33943e-10
2.52922e-12
2.32238e-10
4.10862e-12
2.29608e-10
6.50101e-12
2.25793e-10
9.71652e-12
2.20558e-10
1.37317e-11
2.13668e-10
1.85549e-11
2.04863e-10
2.42229e-11
1.9386e-10
3.07672e-11
1.80373e-10
3.81805e-11
1.64135e-10
4.63949e-11
1.44925e-10
5.52756e-11
1.22592e-10
6.46275e-11
9.70705e-11
7.42096e-11
6.83872e-11
8.37537e-11
3.66649e-11
9.2982e-11
2.11803e-12
1.01624e-10
-3.49545e-11
1.09426e-10
1.16166e-10
-7.41804e-11
1.12484e-12
-3.8389e-12
3.58954e-12
-7.95887e-12
7.18352e-12
-1.16845e-11
1.19255e-11
-1.59227e-11
1.7834e-11
-2.04642e-11
2.48902e-11
-2.49704e-11
3.3053e-11
-2.92496e-11
4.2273e-11
-3.32327e-11
5.24968e-11
-3.69048e-11
6.36645e-11
-4.0262e-11
7.57066e-11
-4.32934e-11
8.85394e-11
-4.59755e-11
1.02064e-10
-4.82734e-11
1.16164e-10
-5.01456e-11
1.3071e-10
-5.15473e-11
1.4556e-10
-5.24343e-11
1.60563e-10
-5.27615e-11
1.75558e-10
-5.24784e-11
1.9037e-10
-5.15222e-11
2.04801e-10
-4.98149e-11
2.18623e-10
-4.72793e-11
2.31586e-10
-4.3875e-11
2.43445e-10
-3.96271e-11
2.53966e-10
-3.46186e-11
2.62932e-10
-2.89792e-11
2.70149e-10
-2.28976e-11
2.75476e-10
-1.66531e-11
2.78879e-10
-1.06446e-11
2.80506e-10
-5.37907e-12
2.80763e-10
-1.4056e-12
2.80228e-10
1.03599e-12
2.79347e-10
2.39606e-12
2.78088e-10
3.78875e-12
2.76058e-10
6.14023e-12
2.72828e-10
9.7321e-12
2.68113e-10
1.44329e-11
2.61692e-10
2.01538e-11
2.53329e-10
2.6919e-11
2.42734e-10
3.48186e-11
2.29568e-10
4.39334e-11
2.13474e-10
5.42752e-11
1.94114e-10
6.57551e-11
1.71211e-10
7.81788e-11
1.44577e-10
9.12615e-11
1.14133e-10
1.04653e-10
7.99216e-11
1.17965e-10
4.2101e-11
1.30803e-10
9.44118e-13
1.42782e-10
-4.31751e-11
1.53547e-10
1.62789e-10
-8.97958e-11
1.29706e-12
-5.13616e-12
4.18088e-12
-1.0843e-11
8.36552e-12
-1.58693e-11
1.38225e-11
-2.13797e-11
2.05465e-11
-2.71883e-11
2.85117e-11
-3.2936e-11
3.76813e-11
-3.84199e-11
4.80156e-11
-4.35677e-11
5.9472e-11
-4.83614e-11
7.19991e-11
-5.27888e-11
8.55304e-11
-5.68241e-11
9.99794e-11
-6.04236e-11
1.15236e-10
-6.35296e-11
1.31167e-10
-6.60768e-11
1.4762e-10
-6.80017e-11
1.64433e-10
-6.92482e-11
1.8144e-10
-6.9768e-11
1.98473e-10
-6.95111e-11
2.15358e-10
-6.84072e-11
2.31894e-10
-6.63505e-11
2.47833e-10
-6.32179e-11
2.62892e-10
-5.89346e-11
2.76795e-10
-5.35294e-11
2.89277e-10
-4.70988e-11
3.00069e-10
-3.97692e-11
3.08889e-10
-3.17156e-11
3.15467e-10
-2.32301e-11
3.19628e-10
-1.48046e-11
3.21419e-10
-7.17118e-12
3.21362e-10
-1.35019e-12
3.20393e-10
2.00373e-12
3.19308e-10
3.48054e-12
3.18021e-10
5.07515e-12
3.15834e-10
8.3281e-12
3.12118e-10
1.34476e-11
3.0662e-10
1.99313e-11
2.99193e-10
2.75808e-11
2.89631e-10
3.64812e-11
2.77613e-10
4.6838e-11
2.6272e-10
5.88267e-11
2.44497e-10
7.24992e-11
2.22508e-10
8.77438e-11
1.96398e-10
1.04288e-10
1.65928e-10
1.21731e-10
1.31001e-10
1.39579e-10
9.16702e-11
1.57297e-10
4.81335e-11
1.7434e-10
7.26704e-13
1.9019e-10
-5.00951e-11
2.04371e-10
2.16471e-10
-1.03776e-10
1.42545e-12
-6.5617e-12
4.62939e-12
-1.40472e-11
9.26842e-12
-2.05084e-11
1.52772e-11
-2.73883e-11
2.26331e-11
-3.45442e-11
3.13086e-11
-4.16117e-11
4.12754e-11
-4.8387e-11
5.25081e-11
-5.48004e-11
6.49789e-11
-6.08317e-11
7.86489e-11
-6.64576e-11
9.34577e-11
-7.16315e-11
1.09316e-10
-7.62808e-11
1.261e-10
-8.03134e-11
1.43653e-10
-8.36307e-11
1.61793e-10
-8.61426e-11
1.80327e-10
-8.77823e-11
1.99069e-10
-8.85093e-11
2.17853e-10
-8.82945e-11
2.36528e-10
-8.70808e-11
2.54912e-10
-8.47332e-11
2.72748e-10
-8.1054e-11
2.89726e-10
-7.59119e-11
3.05553e-10
-6.9356e-11
3.19968e-10
-6.15112e-11
3.32674e-10
-5.24731e-11
3.43294e-10
-4.23337e-11
3.51374e-10
-3.13089e-11
3.56479e-10
-1.99107e-11
3.58389e-10
-9.08356e-12
3.57701e-10
-6.63293e-13
3.55961e-10
3.74256e-12
3.54679e-10
4.76173e-12
3.53634e-10
6.1195e-12
3.51525e-10
1.04367e-11
3.47416e-10
1.75551e-11
3.41236e-10
2.61109e-11
3.33026e-10
3.57899e-11
3.22644e-10
4.68641e-11
3.09714e-10
5.97685e-11
2.93699e-10
7.48419e-11
2.73997e-10
9.22009e-11
2.50038e-10
1.11703e-10
2.21357e-10
1.32968e-10
1.87649e-10
1.55439e-10
1.48787e-10
1.7844e-10
1.04836e-10
2.01249e-10
5.60357e-11
2.23141e-10
2.79234e-12
2.43434e-10
-5.43506e-11
2.61515e-10
2.76854e-10
-1.14733e-10
1.50747e-12
-8.06933e-12
4.92177e-12
-1.74616e-11
9.86159e-12
-2.5448e-11
1.6238e-11
-3.37644e-11
2.40209e-11
-4.23269e-11
3.31883e-11
-5.07793e-11
4.37273e-11
-5.89261e-11
5.56326e-11
-6.67055e-11
6.88978e-11
-7.40958e-11
8.35014e-11
-8.10596e-11
9.93933e-11
-8.7522e-11
1.16482e-10
-9.33688e-11
1.34627e-10
-9.84582e-11
1.53636e-10
-1.0264e-10
1.73278e-10
-1.05785e-10
1.93309e-10
-1.07813e-10
2.1351e-10
-1.08708e-10
2.3372e-10
-1.08502e-10
2.5384e-10
-1.07199e-10
2.73749e-10
-1.04642e-10
2.93199e-10
-1.00504e-10
3.11841e-10
-9.4553e-11
3.29401e-10
-8.69137e-11
3.45683e-10
-7.77913e-11
3.60429e-10
-6.72168e-11
3.73184e-10
-5.5088e-11
3.83262e-10
-4.13885e-11
3.8981e-10
-2.646e-11
3.9199e-10
-1.12655e-11
3.90268e-10
1.05762e-12
3.87168e-10
6.84234e-12
3.85714e-10
6.21502e-12
3.85352e-10
6.48148e-12
3.83598e-10
1.21897e-11
3.79054e-10
2.20971e-11
3.72203e-10
3.29615e-11
3.63452e-10
4.45407e-11
3.5273e-10
5.75857e-11
3.39552e-10
7.29466e-11
3.23184e-10
9.12095e-11
3.02812e-10
1.12572e-10
2.77678e-10
1.36836e-10
2.47177e-10
1.63468e-10
2.10915e-10
1.91701e-10
1.68731e-10
2.20625e-10
1.207e-10
2.49281e-10
6.71127e-11
2.76729e-10
8.45219e-12
3.02095e-10
-5.46382e-11
3.24606e-10
3.43605e-10
-1.21387e-10
1.54252e-12
-9.61203e-12
5.05264e-12
-2.09715e-11
1.01305e-11
-3.05253e-11
1.66782e-11
-4.03117e-11
2.46694e-11
-5.03181e-11
3.40976e-11
-6.02078e-11
4.49734e-11
-6.9802e-11
5.73203e-11
-7.90518e-11
7.11615e-11
-8.79357e-11
8.65018e-11
-9.63984e-11
1.03308e-10
-1.04327e-10
1.21491e-10
-1.11551e-10
1.40886e-10
-1.17853e-10
1.6125e-10
-1.23005e-10
1.82275e-10
-1.26808e-10
2.03622e-10
-1.29158e-10
2.25001e-10
-1.30084e-10
2.46251e-10
-1.29749e-10
2.67374e-10
-1.28321e-10
2.88389e-10
-1.25656e-10
3.0907e-10
-1.21184e-10
3.28988e-10
-1.1447e-10
3.47932e-10
-1.05855e-10
3.65902e-10
-9.57598e-11
3.82796e-10
-8.411e-11
3.98148e-10
-7.04409e-11
4.11061e-10
-5.43029e-11
4.20113e-10
-3.55143e-11
4.23137e-10
-1.42903e-11
4.20008e-10
4.18698e-12
4.14491e-10
1.23606e-11
4.12853e-10
7.8537e-12
4.13821e-10
5.51217e-12
4.12655e-10
1.33553e-11
4.07314e-10
2.74365e-11
3.99642e-10
4.06332e-11
3.9064e-10
5.35433e-11
3.8022e-10
6.80051e-11
3.67645e-10
8.55202e-11
3.51873e-10
1.06981e-10
3.31791e-10
1.32652e-10
3.06399e-10
1.62227e-10
2.74915e-10
1.94953e-10
2.3684e-10
2.29776e-10
1.91975e-10
2.65489e-10
1.40412e-10
3.00844e-10
8.25027e-11
3.34639e-10
1.8819e-11
3.6578e-10
-4.98852e-11
3.93312e-10
4.16435e-10
-1.22714e-10
1.53015e-12
-1.11422e-11
5.01855e-12
-2.4459e-11
1.00655e-11
-3.55715e-11
1.65794e-11
-4.68252e-11
2.455e-11
-5.82889e-11
3.39967e-11
-6.96548e-11
4.49639e-11
-8.07693e-11
5.75144e-11
-9.16017e-11
7.1713e-11
-1.02133e-10
8.76037e-11
-1.12288e-10
1.05183e-10
-1.21906e-10
1.24371e-10
-1.30739e-10
1.4498e-10
-1.38462e-10
1.66697e-10
-1.44721e-10
1.89088e-10
-1.49197e-10
2.11651e-10
-1.51718e-10
2.33942e-10
-1.52373e-10
2.55759e-10
-1.51564e-10
2.77286e-10
-1.49847e-10
2.98832e-10
-1.472e-10
3.20215e-10
-1.42566e-10
3.40796e-10
-1.35049e-10
3.60488e-10
-1.25545e-10
3.79714e-10
-1.14986e-10
3.9873e-10
-1.03126e-10
4.17153e-10
-8.88652e-11
4.33972e-10
-7.11229e-11
4.47547e-10
-4.90901e-11
4.53077e-10
-1.98196e-11
4.4832e-10
8.94584e-12
4.3882e-10
2.18618e-11
4.36619e-10
1.00555e-11
4.39685e-10
2.44573e-12
4.3907e-10
1.39702e-11
4.31965e-10
3.45416e-11
4.23172e-10
4.94254e-11
4.1444e-10
6.22751e-11
4.05261e-10
7.71833e-11
3.944e-10
9.63801e-11
3.80374e-10
1.21006e-10
3.61694e-10
1.51331e-10
3.37062e-10
1.86859e-10
3.05494e-10
2.26521e-10
2.66377e-10
2.68893e-10
2.19477e-10
3.12388e-10
1.64914e-10
3.55407e-10
1.03114e-10
3.9644e-10
3.47548e-11
4.34141e-10
-3.92841e-11
4.67352e-10
4.95123e-10
-1.17971e-10
1.46953e-12
-1.26114e-11
4.81574e-12
-2.78038e-11
9.65784e-12
-4.04125e-11
1.59253e-11
-5.30924e-11
2.36363e-11
-6.60002e-11
3.28468e-11
-7.88659e-11
4.36464e-11
-9.1569e-11
5.61497e-11
-1.04105e-10
7.04785e-11
-1.16461e-10
8.67349e-11
-1.28544e-10
1.04966e-10
-1.40137e-10
1.2512e-10
-1.50893e-10
1.46996e-10
-1.60338e-10
1.70195e-10
-1.67918e-10
1.94099e-10
-1.731e-10
2.17931e-10
-1.75547e-10
2.40934e-10
-1.75375e-10
2.62739e-10
-1.73368e-10
2.83821e-10
-1.70928e-10
3.05093e-10
-1.68471e-10
3.26473e-10
-1.63944e-10
3.46754e-10
-1.55327e-10
3.6607e-10
-1.4486e-10
3.85677e-10
-1.34591e-10
4.06473e-10
-1.23923e-10
4.28276e-10
-1.10669e-10
4.49881e-10
-9.27278e-11
4.70252e-10
-6.94605e-11
4.83738e-10
-3.3303e-11
4.7797e-10
1.47149e-11
4.61659e-10
3.81741e-11
4.58032e-10
1.36829e-11
4.63377e-10
-2.8985e-12
4.62106e-10
1.52416e-11
4.51175e-10
4.54723e-11
4.41545e-10
5.90551e-11
4.3442e-10
6.93999e-11
4.2791e-10
8.36929e-11
4.20156e-10
1.04132e-10
4.09212e-10
1.3195e-10
3.93166e-10
1.67377e-10
3.70387e-10
2.09637e-10
3.39671e-10
2.57237e-10
3.00289e-10
3.08274e-10
2.51983e-10
3.60694e-10
1.9492e-10
4.12471e-10
1.29617e-10
4.61744e-10
5.68791e-11
5.0688e-10
-2.22741e-11
5.46506e-10
5.7951e-10
-1.06662e-10
1.35935e-12
-1.39699e-11
4.43992e-12
-3.08825e-11
8.8985e-12
-4.48701e-11
1.46997e-11
-5.88935e-11
2.19012e-11
-7.32022e-11
3.0606e-11
-8.7571e-11
4.09593e-11
-1.01922e-10
5.31412e-11
-1.16286e-10
6.7349e-11
-1.30669e-10
8.37675e-11
-1.44963e-10
1.02527e-10
-1.58897e-10
1.23639e-10
-1.72006e-10
1.46922e-10
-1.83619e-10
1.71895e-10
-1.9289e-10
1.9771e-10
-1.98913e-10
2.23152e-10
-2.00988e-10
2.46865e-10
-1.99088e-10
2.67992e-10
-1.94493e-10
2.87399e-10
-1.90334e-10
3.07245e-10
-1.88314e-10
3.27726e-10
-1.84422e-10
3.46226e-10
-1.73825e-10
3.63321e-10
-1.61953e-10
3.81828e-10
-1.53098e-10
4.03598e-10
-1.45691e-10
4.28449e-10
-1.3552e-10
4.5558e-10
-1.19857e-10
4.83502e-10
-9.73815e-11
5.09867e-10
-5.96663e-11
5.19582e-10
5.00047e-12
4.85602e-10
7.21547e-11
4.79161e-10
2.01245e-11
4.80888e-10
-4.62523e-12
4.74436e-10
2.16942e-11
4.59093e-10
6.08153e-11
4.53231e-10
6.49167e-11
4.50569e-10
7.20615e-11
4.48539e-10
8.57234e-11
4.45394e-10
1.07277e-10
4.38907e-10
1.38437e-10
4.26754e-10
1.79529e-10
4.06942e-10
2.29448e-10
3.78017e-10
2.8616e-10
3.39133e-10
3.47158e-10
2.90021e-10
4.09806e-10
2.30915e-10
4.71579e-10
1.62453e-10
5.30207e-10
8.55843e-11
5.83749e-10
1.48601e-12
6.30604e-10
6.69496e-10
-8.85007e-11
1.19822e-12
-1.51669e-11
3.88717e-12
-3.35699e-11
7.77984e-12
-4.87621e-11
1.28885e-11
-6.40022e-11
1.93195e-11
-7.96335e-11
2.72307e-11
-9.54821e-11
3.68315e-11
-1.11522e-10
4.838e-11
-1.27834e-10
6.21679e-11
-1.44456e-10
7.84922e-11
-1.61287e-10
9.76087e-11
-1.78014e-10
1.19654e-10
-1.94052e-10
1.44529e-10
-2.08493e-10
1.71733e-10
-2.20093e-10
2.00181e-10
-2.27361e-10
2.28068e-10
-2.28874e-10
2.52987e-10
-2.24007e-10
2.72836e-10
-2.1434e-10
2.88783e-10
-2.06279e-10
3.05477e-10
-2.05006e-10
3.23922e-10
-2.02864e-10
3.38406e-10
-1.88306e-10
3.5056e-10
-1.74105e-10
3.65959e-10
-1.68495e-10
3.8752e-10
-1.67251e-10
4.13896e-10
-1.61893e-10
4.4439e-10
-1.50349e-10
4.77572e-10
-1.30563e-10
5.13878e-10
-9.59722e-11
5.55006e-10
-3.61274e-11
5.46188e-10
8.09729e-11
5.04961e-10
6.13515e-11
4.64432e-10
3.59036e-11
4.6207e-10
2.40567e-11
4.61458e-10
6.14267e-11
4.62935e-10
6.34404e-11
4.65637e-10
6.93592e-11
4.68647e-10
8.27145e-11
4.70958e-10
1.04966e-10
4.70001e-10
1.39393e-10
4.62877e-10
1.86653e-10
4.47099e-10
2.45225e-10
4.20883e-10
3.12375e-10
3.83231e-10
3.84811e-10
3.33874e-10
4.59164e-10
2.73146e-10
5.32308e-10
2.01832e-10
6.01522e-10
1.21048e-10
6.64534e-10
3.21396e-11
7.19512e-10
7.6502e-10
-6.33841e-11
9.85086e-13
-1.61508e-11
3.1557e-12
-3.57396e-11
6.29886e-12
-5.19052e-11
1.04846e-11
-6.81882e-11
1.58742e-11
-8.5023e-11
2.26839e-11
-1.02291e-10
3.11917e-11
-1.2003e-10
4.17411e-11
-1.38383e-10
5.47329e-11
-1.57448e-10
7.06047e-11
-1.77159e-10
8.97873e-11
-1.97197e-10
1.1262e-10
-2.16884e-10
1.39202e-10
-2.35075e-10
1.69152e-10
-2.50043e-10
2.01274e-10
-2.59482e-10
2.33165e-10
-2.60764e-10
2.60886e-10
-2.51726e-10
2.79455e-10
-2.32908e-10
2.89434e-10
-2.16256e-10
3.00204e-10
-2.15774e-10
3.14897e-10
-2.17554e-10
3.21831e-10
-1.95238e-10
3.25644e-10
-1.77916e-10
3.36334e-10
-1.79182e-10
3.57186e-10
-1.88101e-10
3.84242e-10
-1.88947e-10
4.13187e-10
-1.79293e-10
4.42951e-10
-1.60328e-10
4.77183e-10
-1.30205e-10
5.17455e-10
-7.64007e-11
5.36872e-10
6.15562e-11
5.28977e-10
6.92462e-11
5.07407e-10
5.74736e-11
4.78884e-10
5.25795e-11
4.70493e-10
6.98171e-11
4.77382e-10
5.65518e-11
4.81511e-10
6.52314e-11
4.88573e-10
7.56523e-11
4.96809e-10
9.67303e-11
5.02399e-10
1.33802e-10
5.01496e-10
1.87555e-10
4.90886e-10
2.55834e-10
4.68318e-10
3.34944e-10
4.32616e-10
4.20514e-10
3.83547e-10
5.08234e-10
3.21591e-10
5.94265e-10
2.4772e-10
6.75394e-10
1.63232e-10
7.49022e-10
6.96477e-11
8.13096e-10
8.6603e-10
-3.13627e-11
7.20302e-13
-1.68704e-11
2.24845e-12
-3.7268e-11
4.46188e-12
-5.41192e-11
7.49597e-12
-7.12226e-11
1.15679e-11
-8.90946e-11
1.69509e-11
-1.07673e-10
2.39883e-11
-1.27066e-10
3.31067e-11
-1.47501e-10
4.48194e-11
-1.69161e-10
5.97204e-11
-1.9206e-10
7.84555e-11
-2.15932e-10
1.01649e-10
-2.40077e-10
1.29744e-10
-2.63169e-10
1.62709e-10
-2.83007e-10
1.9956e-10
-2.96331e-10
2.3767e-10
-2.98873e-10
2.71763e-10
-2.85818e-10
2.91613e-10
-2.52755e-10
2.92518e-10
-2.1716e-10
2.92446e-10
-2.15701e-10
2.99026e-10
-2.24132e-10
2.93055e-10
-1.89265e-10
2.84565e-10
-1.69423e-10
2.91147e-10
-1.85762e-10
3.15653e-10
-2.12605e-10
3.43958e-10
-2.17251e-10
3.71304e-10
-2.0664e-10
3.9485e-10
-1.83875e-10
4.13519e-10
-1.48874e-10
4.16554e-10
-7.94358e-11
5.11649e-10
-3.35388e-11
4.90455e-10
9.04399e-11
4.6457e-10
8.33577e-11
4.69716e-10
4.74338e-11
4.98491e-10
4.10415e-11
4.89016e-10
6.60271e-11
4.93257e-10
6.09901e-11
5.05363e-10
6.35463e-11
5.20919e-10
8.11743e-11
5.3475e-10
1.1997e-10
5.41814e-10
1.8049e-10
5.37847e-10
2.59801e-10
5.19999e-10
3.52792e-10
4.86976e-10
4.53538e-10
4.38707e-10
5.56504e-10
3.75917e-10
6.57056e-10
2.9981e-10
7.51501e-10
2.11877e-10
8.36956e-10
1.13794e-10
9.11179e-10
9.72448e-10
7.37599e-12
4.06024e-13
-1.72764e-11
1.17506e-12
-3.80382e-11
2.29034e-12
-5.52354e-11
3.95446e-12
-7.28869e-11
6.4378e-12
-9.15773e-11
1.00615e-11
-1.11296e-10
1.5221e-11
-1.32224e-10
2.24102e-11
-1.54689e-10
3.22376e-11
-1.78987e-10
4.54419e-11
-2.05264e-10
6.28899e-11
-2.33379e-10
8.55341e-11
-2.6272e-10
1.14283e-10
-2.91917e-10
1.49706e-10
-3.18428e-10
1.91477e-10
-3.381e-10
2.375e-10
-3.44894e-10
2.82743e-10
-3.31059e-10
3.13486e-10
-2.83496e-10
3.0832e-10
-2.11994e-10
2.78449e-10
-1.85829e-10
2.76453e-10
-2.22135e-10
2.40929e-10
-1.53739e-10
2.17942e-10
-1.46434e-10
2.32813e-10
-2.00632e-10
2.69998e-10
-2.49789e-10
3.024e-10
-2.49653e-10
3.34892e-10
-2.39132e-10
3.62054e-10
-2.11037e-10
3.79016e-10
-1.65837e-10
4.00443e-10
-1.00863e-10
4.07807e-10
-4.09029e-11
4.27946e-10
7.03004e-11
4.38369e-10
7.29341e-11
4.37345e-10
4.84586e-11
4.5197e-10
2.64158e-11
4.71154e-10
4.68426e-11
4.89962e-10
4.2182e-11
5.12967e-10
4.05404e-11
5.39994e-10
5.41475e-11
5.65409e-10
9.45545e-11
5.82998e-10
1.629e-10
5.87433e-10
2.55366e-10
5.75366e-10
3.6486e-10
5.45645e-10
4.83261e-10
4.9862e-10
6.0353e-10
4.35409e-10
7.20268e-10
3.57481e-10
8.29429e-10
2.66483e-10
9.27954e-10
1.64196e-10
1.01347e-09
1.08411e-09
5.25342e-11
4.79826e-14
-1.73251e-11
-4.21816e-14
-3.79497e-11
-1.73686e-13
-5.51048e-11
-7.3948e-14
-7.29866e-11
5.71473e-13
-9.22222e-11
2.11615e-12
-1.1284e-10
4.9843e-12
-1.35092e-10
9.7004e-12
-1.59404e-10
1.69283e-11
-1.86214e-10
2.74992e-11
-2.15834e-10
4.24446e-11
-2.48323e-10
6.30008e-11
-2.83275e-10
9.05382e-11
-3.19453e-10
1.26327e-10
-3.54216e-10
1.70996e-10
-3.82767e-10
2.23587e-10
-3.97484e-10
2.8078e-10
-3.88251e-10
3.30823e-10
-3.33538e-10
3.41739e-10
-2.2291e-10
2.97875e-10
-1.41964e-10
2.07367e-10
-1.31626e-10
1.30555e-10
-7.6925e-11
1.32186e-10
-1.48065e-10
1.74036e-10
-2.42481e-10
2.15817e-10
-2.91569e-10
2.64647e-10
-2.98482e-10
3.07118e-10
-2.81603e-10
3.45385e-10
-2.49303e-10
3.75884e-10
-1.96336e-10
4.0479e-10
-1.29769e-10
4.23687e-10
-5.98001e-11
4.6422e-10
2.97672e-11
4.76096e-10
6.10579e-11
4.7593e-10
4.86245e-11
4.62857e-10
3.9488e-11
4.72393e-10
3.73061e-11
4.88892e-10
2.56827e-11
5.17592e-10
1.18408e-11
5.56567e-10
1.51723e-11
5.95478e-10
5.56434e-11
6.25461e-10
1.32916e-10
6.39477e-10
2.4135e-10
6.33671e-10
3.70666e-10
6.07462e-10
5.09471e-10
5.61981e-10
6.49012e-10
4.98848e-10
7.83401e-10
4.19734e-10
9.08543e-10
3.26311e-10
1.02138e-09
2.2034e-10
1.11944e-09
1.2007e-09
1.0375e-10
-3.43959e-13
-1.69822e-11
-1.3725e-12
-3.69227e-11
-2.86405e-12
-5.36138e-11
-4.48194e-12
-7.13688e-11
-5.87926e-12
-9.08248e-11
-6.69173e-12
-1.12027e-10
-6.49986e-12
-1.35283e-10
-4.7897e-12
-1.61114e-10
-9.15384e-13
-1.90088e-10
5.95315e-12
-2.22701e-10
1.68868e-11
-2.59255e-10
3.32468e-11
-2.99634e-10
5.66897e-11
-3.42894e-10
8.90399e-11
-3.86565e-10
1.31795e-10
-4.25521e-10
1.84888e-10
-4.50576e-10
2.46214e-10
-4.49577e-10
3.13437e-10
-4.00761e-10
3.37508e-10
-2.46981e-10
2.8755e-10
-9.20056e-11
1.17745e-10
3.81784e-11
5.33131e-11
-1.24928e-11
8.79166e-11
-1.82668e-10
1.39218e-10
-2.93782e-10
1.89979e-10
-3.42328e-10
2.40945e-10
-3.49446e-10
2.92209e-10
-3.32865e-10
3.37382e-10
-2.94475e-10
3.73158e-10
-2.32111e-10
4.01804e-10
-1.58415e-10
4.27478e-10
-8.54744e-11
4.66689e-10
-9.44346e-12
4.92148e-10
3.55988e-11
4.90792e-10
4.99798e-11
4.7544e-10
5.48394e-11
4.7735e-10
3.53967e-11
4.85524e-10
1.75085e-11
5.18693e-10
-2.13279e-11
5.71522e-10
-3.7657e-11
6.25655e-10
1.50898e-12
6.6915e-10
8.94206e-11
6.93056e-10
2.17443e-10
6.93088e-10
3.70635e-10
6.70144e-10
5.32415e-10
6.26509e-10
6.92648e-10
5.64295e-10
8.45615e-10
4.85132e-10
9.87705e-10
3.90414e-10
1.11609e-09
2.81654e-10
1.2282e-09
1.32167e-09
1.60687e-10
-7.57809e-13
-1.62254e-11
-2.7703e-12
-3.4911e-11
-5.68916e-12
-5.06953e-11
-9.11849e-12
-6.79399e-11
-1.26929e-11
-8.7251e-11
-1.60595e-11
-1.08661e-10
-1.88379e-11
-1.32505e-10
-2.05821e-11
-1.59369e-10
-2.0741e-11
-1.89927e-10
-1.86061e-11
-2.24835e-10
-1.32427e-11
-2.64618e-10
-3.40837e-12
-3.09468e-10
1.25335e-11
-3.58836e-10
3.66387e-11
-4.10669e-10
7.13038e-11
-4.60186e-10
1.18601e-10
-4.97873e-10
1.78091e-10
-5.09066e-10
2.39639e-10
-4.62309e-10
3.5545e-10
-3.62793e-10
2.67377e-10
-3.93199e-12
6.53198e-11
2.40235e-10
1.3941e-11
3.88859e-11
6.628e-11
-2.35007e-10
1.23948e-10
-3.51449e-10
1.85179e-10
-4.03557e-10
2.42382e-10
-4.06648e-10
2.94117e-10
-3.84599e-10
3.36704e-10
-3.37061e-10
3.72027e-10
-2.67435e-10
4.03099e-10
-1.89487e-10
4.30879e-10
-1.13255e-10
4.66769e-10
-4.53341e-11
4.93677e-10
8.69047e-12
5.01465e-10
4.21912e-11
4.86955e-10
6.93495e-11
4.6777e-10
5.45831e-11
4.76814e-10
8.46513e-12
5.15965e-10
-6.04785e-11
5.85388e-10
-1.07081e-10
6.55518e-10
-6.86217e-11
7.12557e-10
3.23808e-11
7.44854e-10
1.85146e-10
7.49537e-10
3.65952e-10
7.29464e-10
5.52489e-10
6.88478e-10
7.33635e-10
6.28932e-10
9.05161e-10
5.51835e-10
1.0648e-09
4.57787e-10
1.21014e-09
3.47705e-10
1.33828e-09
1.44616e-09
2.23213e-10
-1.17706e-12
-1.5049e-11
-4.18094e-12
-3.19076e-11
-8.53646e-12
-4.63404e-11
-1.37955e-11
-6.26819e-11
-1.95862e-11
-8.14614e-11
-2.55869e-11
-1.02661e-10
-3.14857e-11
-1.26606e-10
-3.69502e-11
-1.53904e-10
-4.1599e-11
-1.85278e-10
-4.49644e-11
-2.21469e-10
-4.64418e-11
-2.6314e-10
-4.52083e-11
-3.10701e-10
-4.01097e-11
-3.63935e-10
-2.94909e-11
-4.21288e-10
-1.0952e-11
-4.78725e-10
1.90718e-11
-5.27897e-10
6.35933e-11
-5.53588e-10
1.38788e-10
-5.37503e-10
2.21806e-10
-4.4581e-10
2.13412e-10
4.46239e-12
-6.74316e-11
5.21078e-10
-3.65483e-11
8.00275e-12
6.30989e-11
-3.34653e-10
1.34215e-10
-4.22563e-10
1.86389e-10
-4.55728e-10
2.37069e-10
-4.57327e-10
2.85696e-10
-4.33225e-10
3.30001e-10
-3.81367e-10
3.66461e-10
-3.03896e-10
3.9707e-10
-2.20097e-10
4.26203e-10
-1.42388e-10
4.5695e-10
-7.60823e-11
4.86268e-10
-2.06277e-11
5.00937e-10
2.7523e-11
4.94777e-10
7.55102e-11
4.77938e-10
7.14239e-11
4.81877e-10
4.52711e-12
5.17574e-10
-9.61751e-11
6.02275e-10
-1.91783e-10
6.82428e-10
-1.48776e-10
7.48065e-10
-3.32567e-11
7.87164e-10
1.46046e-10
7.95593e-10
3.57523e-10
7.78288e-10
5.69794e-10
7.42371e-10
7.69553e-10
6.8914e-10
9.58392e-10
6.17893e-10
1.13605e-09
5.27724e-10
1.30031e-09
4.18546e-10
1.44746e-09
1.57302e-09
2.91685e-10
-1.58417e-12
-1.3465e-11
-5.54389e-12
-2.79482e-11
-1.12813e-11
-4.06039e-11
-1.83025e-11
-5.56622e-11
-2.6238e-11
-7.35275e-11
-3.48074e-11
-9.40928e-11
-4.37831e-11
-1.1763e-10
-5.29704e-11
-1.44716e-10
-6.21987e-11
-1.76049e-10
-7.13171e-11
-2.1235e-10
-8.01894e-11
-2.54268e-10
-8.86874e-11
-3.02204e-10
-9.67204e-11
-3.55902e-10
-1.04334e-10
-4.13675e-10
-1.1198e-10
-4.7108e-10
-1.2095e-10
-5.18927e-10
-1.33565e-10
-5.40971e-10
-1.59865e-10
-5.11203e-10
-2.30573e-10
-3.75102e-10
-1.67121e-10
-5.89888e-11
1.70535e-10
1.83422e-10
2.37044e-10
-5.85065e-11
2.11388e-10
-3.08996e-10
1.92981e-10
-4.04155e-10
1.97902e-10
-4.60648e-10
2.26378e-10
-4.85803e-10
2.64851e-10
-4.71698e-10
3.07292e-10
-4.23809e-10
3.49297e-10
-3.45902e-10
3.77716e-10
-2.48518e-10
4.01744e-10
-1.66417e-10
4.27429e-10
-1.01768e-10
4.55282e-10
-4.84802e-11
4.8979e-10
-6.98477e-12
5.45919e-10
1.93826e-11
5.30502e-10
8.68427e-11
5.35306e-10
-2.75716e-13
5.37152e-10
-9.80207e-11
6.37516e-10
-2.92147e-10
6.91699e-10
-2.0296e-10
7.61113e-10
-1.02672e-10
8.10402e-10
9.67567e-11
8.17128e-10
3.50798e-10
8.05991e-10
5.80932e-10
7.81338e-10
7.94207e-10
7.41173e-10
9.98558e-10
6.82016e-10
1.1952e-09
6.0053e-10
1.3818e-09
4.95286e-10
1.5527e-09
1.70097e-09
3.67337e-10
-1.96172e-12
-1.15035e-11
-6.79915e-12
-2.31113e-11
-1.37998e-11
-3.36045e-11
-2.243e-11
-4.70336e-11
-3.23252e-11
-6.36337e-11
-4.32457e-11
-8.31728e-11
-5.5043e-11
-1.05833e-10
-6.76484e-11
-1.3211e-10
-8.10807e-11
-1.62617e-10
-9.54668e-11
-1.97964e-10
-1.11063e-10
-2.38672e-10
-1.28286e-10
-2.84981e-10
-1.47761e-10
-3.36427e-10
-1.7039e-10
-3.91046e-10
-1.97375e-10
-4.44094e-10
-2.29932e-10
-4.8637e-10
-2.68615e-10
-5.02287e-10
-3.14e-10
-4.65817e-10
-3.28481e-10
-3.60621e-10
-1.90138e-10
-1.97332e-10
4.15745e-11
-4.82913e-11
2.01876e-10
-2.18809e-10
2.13523e-10
-3.20643e-10
1.56496e-10
-3.47128e-10
1.57021e-10
-4.61173e-10
1.8294e-10
-5.11723e-10
2.20083e-10
-5.08842e-10
2.60604e-10
-4.64332e-10
3.03163e-10
-3.88464e-10
3.34243e-10
-2.796e-10
3.44975e-10
-1.77149e-10
3.66385e-10
-1.23178e-10
3.90707e-10
-7.28018e-11
4.40027e-10
-5.63035e-11
5.014e-10
-4.19895e-11
6.46446e-10
-5.82015e-11
7.00665e-10
-5.44928e-11
7.28466e-10
-1.25821e-10
6.62731e-10
-2.26413e-10
6.69709e-10
-2.0994e-10
7.35169e-10
-1.68132e-10
7.74947e-10
5.69792e-11
7.90466e-10
3.3528e-10
7.98075e-10
5.73325e-10
7.97384e-10
7.94898e-10
7.82426e-10
1.01352e-09
7.45012e-10
1.23262e-09
6.78619e-10
1.44819e-09
5.80811e-10
1.65051e-09
1.82899e-09
4.52794e-10
-2.29443e-12
-9.20928e-12
-7.89395e-12
-1.75126e-11
-1.59836e-11
-2.5516e-11
-2.59954e-11
-3.7023e-11
-3.75679e-11
-5.20619e-11
-5.04928e-11
-7.02481e-11
-6.4679e-11
-9.1647e-11
-8.01451e-11
-1.16644e-10
-9.70337e-11
-1.45728e-10
-1.15638e-10
-1.79361e-10
-1.36425e-10
-2.17884e-10
-1.60056e-10
-2.61349e-10
-1.87351e-10
-3.09131e-10
-2.19145e-10
-3.59251e-10
-2.55893e-10
-4.07346e-10
-2.9669e-10
-4.45572e-10
-3.36922e-10
-4.62055e-10
-3.59015e-10
-4.43723e-10
-3.37128e-10
-3.82509e-10
-1.96372e-10
-3.38088e-10
-9.15577e-11
-1.53107e-10
3.42953e-12
-3.13797e-10
2.35288e-11
-3.40744e-10
3.04779e-11
-3.54078e-10
6.93791e-11
-5.00074e-10
1.11555e-10
-5.53899e-10
1.52777e-10
-5.50064e-10
1.90054e-10
-5.01612e-10
2.18699e-10
-4.1711e-10
2.51559e-10
-3.12461e-10
2.72649e-10
-1.98238e-10
2.69338e-10
-1.19866e-10
2.76994e-10
-8.04576e-11
3.04945e-10
-8.42539e-11
3.63529e-10
-1.00573e-10
4.89185e-10
-1.83855e-10
5.12232e-10
-7.7539e-11
4.82531e-10
-9.61204e-11