/*--------------------------------*- C++ -*----------------------------------*\
| =========                 |                                                 |
| \\      /  F ield         | OpenFOAM: The Open Source CFD Toolbox           |
|  \\    /   O peration     | Version:  2.4.0                                 |
|   \\  /    A nd           | Web:      www.OpenFOAM.org                      |
|    \\/     M anipulation  |                                                 |
\*---------------------------------------------------------------------------*/
FoamFile
{
    version     2.0;
    format      ascii;
    class       surfaceScalarField;
    location    "0.016";
    object      phiAlpha;
}
// * * * * * * * * * * * * * * * * * * * * * * * * * * * * * * * * * * * * * //

dimensions      [0 3 -1 0 0 0 0];

internalField   nonuniform List<scalar> 
119500
(
3.07996e-13
-3.07996e-13
2.74434e-13
3.33234e-14
1.94283e-13
7.99593e-14
1.15051e-13
7.90637e-14
4.79627e-14
6.69501e-14
-2.41702e-14
7.20255e-14
-9.70714e-14
7.28247e-14
-1.69568e-13
7.24516e-14
-2.37997e-13
6.8416e-14
-3.0171e-13
6.37311e-14
-3.62508e-13
6.08443e-14
-4.24699e-13
6.22575e-14
-4.91771e-13
6.71459e-14
-5.64493e-13
7.27855e-14
-6.41368e-13
7.69153e-14
-7.19811e-13
7.84473e-14
-7.97164e-13
7.73161e-14
-8.7292e-13
7.56723e-14
-9.48567e-13
7.55169e-14
-1.02721e-12
7.84611e-14
-1.11164e-12
8.41994e-14
-1.20334e-12
9.14173e-14
-1.30231e-12
9.8639e-14
-1.40624e-12
1.03534e-13
-1.51167e-12
1.04982e-13
-1.61452e-12
1.02337e-13
-1.7118e-12
9.67213e-14
-1.80205e-12
8.96324e-14
-1.88629e-12
8.35731e-14
-1.96837e-12
8.13416e-14
-2.05463e-12
8.54663e-14
-2.1521e-12
9.66103e-14
-2.26529e-12
1.12262e-13
-2.39468e-12
1.28398e-13
-2.53581e-12
1.40083e-13
-2.68116e-12
1.44262e-13
-2.82653e-12
1.44274e-13
-2.976e-12
1.48366e-13
-3.14094e-12
1.63863e-13
-3.3326e-12
1.90606e-13
-3.55605e-12
2.2245e-13
-3.81021e-12
2.53207e-13
-4.09091e-12
2.79795e-13
-4.3967e-12
3.04931e-13
-4.73407e-12
3.36553e-13
-5.11444e-12
3.79589e-13
-5.54881e-12
4.33633e-13
-6.04568e-12
4.96165e-13
-6.60689e-12
5.60548e-13
-7.22863e-12
6.21119e-13
-7.90338e-12
6.74158e-13
-8.62344e-12
7.19502e-13
-9.38243e-12
7.58476e-13
-1.01759e-11
7.92998e-13
-1.10017e-11
8.25307e-13
-1.18591e-11
8.5701e-13
-1.27492e-11
8.89692e-13
-1.36745e-11
9.24917e-13
-1.46388e-11
9.63957e-13
-1.56473e-11
1.00819e-12
-1.67057e-11
1.05814e-12
-1.78191e-11
1.11308e-12
-1.89911e-11
1.17171e-12
-2.02228e-11
1.23141e-12
-2.15118e-11
1.28877e-12
-2.28532e-11
1.34112e-12
-2.42403e-11
1.38677e-12
-2.5666e-11
1.42536e-12
-2.71248e-11
1.45843e-12
-2.86142e-11
1.48898e-12
-3.0135e-11
1.52042e-12
-3.16916e-11
1.55609e-12
-3.32906e-11
1.59836e-12
-3.49385e-11
1.64724e-12
-3.66394e-11
1.70027e-12
-3.83939e-11
1.75381e-12
-4.01988e-11
1.80407e-12
-4.20469e-11
1.84739e-12
-4.39294e-11
1.88175e-12
-4.58378e-11
1.9077e-12
-4.77662e-11
1.92772e-12
-4.97124e-11
1.94563e-12
-5.16783e-11
1.96528e-12
-5.36685e-11
1.98963e-12
-5.5689e-11
2.02001e-12
-5.77449e-11
2.05549e-12
-5.98396e-11
2.09429e-12
-6.19739e-11
2.134e-12
-6.41464e-11
2.17226e-12
-6.63532e-11
2.20659e-12
-6.8587e-11
2.23374e-12
-7.08368e-11
2.24979e-12
-7.30872e-11
2.25049e-12
-7.53194e-11
2.2324e-12
-7.75115e-11
2.1923e-12
-7.96477e-11
2.13643e-12
-8.16075e-11
1.96003e-12
-8.42922e-11
2.68495e-12
-8.45011e-11
2.0911e-13
1.62358e-12
-8.61245e-11
3.13432e-13
-6.21646e-13
2.63162e-13
8.32128e-14
1.70227e-13
1.72594e-13
7.94036e-14
1.69636e-13
-1.08166e-14
1.56972e-13
-9.85864e-14
1.5965e-13
-1.87498e-13
1.61644e-13
-2.76005e-13
1.60918e-13
-3.63661e-13
1.56082e-13
-4.50683e-13
1.50803e-13
-5.37024e-13
1.47263e-13
-6.24358e-13
1.49673e-13
-7.13578e-13
1.56426e-13
-8.05004e-13
1.64227e-13
-8.98716e-13
1.70579e-13
-9.94227e-13
1.73835e-13
-1.09121e-12
1.74094e-13
-1.18966e-12
1.73831e-13
-1.28999e-12
1.75474e-13
-1.39369e-12
1.81695e-13
-1.50128e-12
1.91226e-13
-1.61337e-12
2.02859e-13
-1.73063e-12
2.15144e-13
-1.8527e-12
2.24757e-13
-1.97857e-12
2.29905e-13
-2.10821e-12
2.30933e-13
-2.24078e-12
2.28166e-13
-2.37638e-12
2.23999e-13
-2.51596e-12
2.21819e-13
-2.66088e-12
2.24823e-13
-2.81395e-12
2.36982e-13
-2.97723e-12
2.58236e-13
-3.15291e-12
2.86183e-13
-3.34087e-12
3.14515e-13
-3.54008e-12
3.37397e-13
-3.749e-12
3.51265e-13
-3.96764e-12
3.61005e-13
-4.19947e-12
3.78319e-13
-4.44979e-12
4.12362e-13
-4.72107e-12
4.60136e-13
-5.01452e-12
5.14237e-13
-5.33023e-12
5.67331e-13
-5.66858e-12
6.16637e-13
-6.03202e-12
6.66929e-13
-6.4231e-12
7.26263e-13
-6.84612e-12
8.01297e-13
-7.30465e-12
8.90916e-13
-7.80049e-12
9.90829e-13
-8.33575e-12
1.09468e-12
-8.9113e-12
1.19562e-12
-9.52567e-12
1.28753e-12
-1.01779e-11
1.37082e-12
-1.08675e-11
1.44715e-12
-1.1594e-11
1.51869e-12
-1.23579e-11
1.58843e-12
-1.31601e-11
1.65845e-12
-1.4002e-11
1.73088e-12
-1.48857e-11
1.80805e-12
-1.58141e-11
1.89168e-12
-1.67898e-11
1.98338e-12
-1.78163e-11
2.08402e-12
-1.88965e-11
2.19282e-12
-2.00332e-11
2.30786e-12
-2.12281e-11
2.42569e-12
-2.24821e-11
2.54226e-12
-2.37956e-11
2.65404e-12
-2.51683e-11
2.75883e-12
-2.65999e-11
2.85623e-12
-2.80904e-11
2.9481e-12
-2.96404e-11
3.03816e-12
-3.1252e-11
3.13104e-12
-3.29281e-11
3.2311e-12
-3.4672e-11
3.34108e-12
-3.64866e-11
3.46063e-12
-3.83742e-11
3.58658e-12
-4.03358e-11
3.71412e-12
-4.2371e-11
3.83799e-12
-4.44781e-11
3.95323e-12
-4.66546e-11
4.05698e-12
-4.88977e-11
4.14963e-12
-5.12053e-11
4.23419e-12
-5.3576e-11
4.31532e-12
-5.60093e-11
4.39773e-12
-5.85055e-11
4.48494e-12
-6.10645e-11
4.57831e-12
-6.36863e-11
4.67657e-12
-6.63696e-11
4.77708e-12
-6.91122e-11
4.87617e-12
-7.19098e-11
4.96962e-12
-7.4756e-11
5.0527e-12
-7.76415e-11
5.11922e-12
-8.05533e-11
5.16179e-12
-8.34747e-11
5.17216e-12
-8.63841e-11
5.14211e-12
-8.92539e-11
5.06249e-12
-9.20459e-11
4.92875e-12
-9.47555e-11
4.67e-12
-9.71902e-11
5.11997e-12
-9.9544e-11
2.56323e-12
3.1192e-12
-1.01039e-10
2.86643e-13
-9.08482e-13
2.22498e-13
1.47002e-13
1.30894e-13
2.63911e-13
4.47651e-14
2.55512e-13
-4.42026e-14
2.4572e-13
-1.2974e-13
2.44999e-13
-2.14805e-13
2.46553e-13
-2.99577e-13
2.45566e-13
-3.85697e-13
2.42109e-13
-4.73488e-13
2.38527e-13
-5.619e-13
2.35621e-13
-6.50706e-13
2.38423e-13
-7.39186e-13
2.44826e-13
-8.27481e-13
2.52401e-13
-9.16755e-13
2.5968e-13
-1.00787e-12
2.6471e-13
-1.10176e-12
2.67687e-13
-1.19874e-12
2.70447e-13
-1.29872e-12
2.75022e-13
-1.40161e-12
2.84097e-13
-1.50682e-12
2.95873e-13
-1.6147e-12
3.10106e-13
-1.72594e-12
3.2568e-13
-1.84122e-12
3.39274e-13
-1.96158e-12
3.49438e-13
-2.08856e-12
3.57028e-13
-2.22284e-12
3.61506e-13
-2.36508e-12
3.6524e-13
-2.51577e-12
3.71444e-13
-2.67512e-12
3.83045e-13
-2.84251e-12
4.03163e-13
-3.01754e-12
4.31991e-13
-3.20132e-12
4.68623e-13
-3.3941e-12
5.05909e-13
-3.59717e-12
5.39042e-13
-3.81251e-12
5.65159e-13
-4.04179e-12
5.88843e-13
-4.28601e-12
6.2113e-13
-4.54594e-12
6.70913e-13
-4.82008e-12
7.32945e-13
-5.10834e-12
8.01208e-13
-5.4116e-12
8.6936e-13
-5.73273e-12
9.36578e-13
-6.07434e-12
1.00739e-12
-6.43629e-12
1.08711e-12
-6.81868e-12
1.18262e-12
-7.22146e-12
1.29267e-12
-7.64411e-12
1.41249e-12
-8.08768e-12
1.53731e-12
-8.55427e-12
1.66129e-12
-9.04656e-12
1.77895e-12
-9.56714e-12
1.89056e-12
-1.01182e-11
1.99735e-12
-1.07017e-11
2.10146e-12
-1.13194e-11
2.20542e-12
-1.1973e-11
2.3113e-12
-1.2664e-11
2.42122e-12
-1.3394e-11
2.53739e-12
-1.41645e-11
2.66155e-12
-1.4977e-11
2.79525e-12
-1.58328e-11
2.93929e-12
-1.67336e-11
3.09305e-12
-1.76811e-11
3.25472e-12
-1.86772e-11
3.42124e-12
-1.97246e-11
3.58911e-12
-2.08264e-11
3.75522e-12
-2.19857e-11
3.91745e-12
-2.32054e-11
4.07533e-12
-2.44884e-11
4.23034e-12
-2.58369e-11
4.38588e-12
-2.7253e-11
4.54634e-12
-2.87385e-11
4.71567e-12
-3.02943e-11
4.89592e-12
-3.19211e-11
5.08645e-12
-3.36199e-11
5.28428e-12
-3.53917e-11
5.48494e-12
-3.72378e-11
5.68305e-12
-3.91591e-11
5.8736e-12
-4.11567e-11
6.05361e-12
-4.3231e-11
6.22309e-12
-4.53821e-11
6.38442e-12
-4.7609e-11
6.54144e-12
-4.99102e-11
6.69825e-12
-5.22834e-11
6.85751e-12
-5.47255e-11
7.01986e-12
-5.72337e-11
7.18429e-12
-5.98051e-11
7.34813e-12
-6.24366e-11
7.50736e-12
-6.51239e-11
7.65677e-12
-6.78611e-11
7.78977e-12
-7.06401e-11
7.89817e-12
-7.345e-11
7.97182e-12
-7.6277e-11
7.99924e-12
-7.91031e-11
7.96837e-12
-8.19032e-11
7.86266e-12
-8.46407e-11
7.6664e-12
-8.7299e-11
7.32837e-12
-8.95421e-11
7.36317e-12
-9.219e-11
5.21132e-12
4.41172e-12
-9.34823e-11
2.55804e-13
-1.16448e-12
2.0302e-13
1.99416e-13
1.17312e-13
3.49304e-13
3.36644e-14
3.38861e-13
-5.23075e-14
3.31409e-13
-1.36183e-13
3.28603e-13
-2.20228e-13
3.30338e-13
-3.0411e-13
3.29202e-13
-3.89285e-13
3.27052e-13
-4.75724e-13
3.24745e-13
-5.62914e-13
3.22592e-13
-6.5065e-13
3.2593e-13
-7.38202e-13
3.32123e-13
-8.25679e-13
3.39585e-13
-9.14222e-13
3.47883e-13
-1.00438e-12
3.54478e-13
-1.0971e-12
3.59965e-13
-1.19273e-12
3.65593e-13
-1.29125e-12
3.73007e-13
-1.3924e-12
3.84669e-13
-1.49594e-12
3.98792e-13
-1.60218e-12
4.1568e-13
-1.71164e-12
4.34425e-13
-1.82488e-12
4.51772e-13
-1.94343e-12
4.6722e-13
-2.06871e-12
4.81505e-13
-2.20226e-12
4.94241e-13
-2.34464e-12
5.06768e-13
-2.49636e-12
5.223e-13
-2.65757e-12
5.43349e-13
-2.82637e-12
5.71014e-13
-3.00197e-12
6.06616e-13
-3.18489e-12
6.50529e-13
-3.37686e-12
6.96836e-13
-3.57908e-12
7.40192e-13
-3.79425e-12
7.79252e-13
-4.02363e-12
8.17141e-13
-4.26741e-12
8.63847e-13
-4.52532e-12
9.27769e-13
-4.79684e-12
1.00343e-12
-5.08091e-12
1.08426e-12
-5.37889e-12
1.16634e-12
-5.69286e-12
1.24956e-12
-6.02511e-12
1.33867e-12
-6.37639e-12
1.43744e-12
-6.74527e-12
1.55056e-12
-7.13184e-12
1.67832e-12
-7.53513e-12
1.81488e-12
-7.95571e-12
1.95701e-12
-8.39594e-12
2.10065e-12
-8.85885e-12
2.24101e-12
-9.34746e-12
2.37832e-12
-9.86461e-12
2.51368e-12
-1.04126e-11
2.64861e-12
-1.09934e-11
2.78545e-12
-1.16089e-11
2.92608e-12
-1.22607e-11
3.07224e-12
-1.29502e-11
3.22609e-12
-1.36787e-11
3.38934e-12
-1.44475e-11
3.56334e-12
-1.52578e-11
3.74889e-12
-1.6111e-11
3.94559e-12
-1.70089e-11
4.15197e-12
-1.79537e-11
4.36535e-12
-1.89482e-11
4.58291e-12
-1.99958e-11
4.80209e-12
-2.10999e-11
5.02087e-12
-2.2264e-11
5.2387e-12
-2.34912e-11
5.45686e-12
-2.47844e-11
5.67828e-12
-2.61456e-11
5.90677e-12
-2.75765e-11
6.14567e-12
-2.90778e-11
6.39641e-12
-3.06503e-11
6.65807e-12
-3.22947e-11
6.92787e-12
-3.40122e-11
7.2016e-12
-3.58039e-11
7.47401e-12
-3.76713e-11
7.74019e-12
-3.96156e-11
7.99726e-12
-4.16381e-11
8.24489e-12
-4.37389e-11
8.48464e-12
-4.59174e-11
8.71932e-12
-4.81718e-11
8.95214e-12
-5.04995e-11
9.18481e-12
-5.28973e-11
9.41726e-12
-5.53619e-11
9.64857e-12
-5.78904e-11
9.87632e-12
-6.04794e-11
1.00961e-11
-6.31249e-11
1.03021e-11
-6.58214e-11
1.04862e-11
-6.8562e-11
1.06387e-11
-7.13373e-11
1.0747e-11
-7.41344e-11
1.07962e-11
-7.69362e-11
1.07701e-11
-7.97189e-11
1.06453e-11
-8.24473e-11
1.03947e-11
-8.50952e-11
9.97615e-12
-8.7397e-11
9.66483e-12
-8.99643e-11
7.7787e-12
5.71752e-12
-9.12701e-11
2.45306e-13
-1.40999e-12
1.93578e-13
2.50741e-13
1.12752e-13
4.29768e-13
3.04313e-14
4.20822e-13
-5.40446e-14
4.15518e-13
-1.37485e-13
4.11669e-13
-2.21054e-13
4.13525e-13
-3.04766e-13
4.12529e-13
-3.89668e-13
4.11569e-13
-4.75394e-13
4.10084e-13
-5.62326e-13
4.09132e-13
-6.49574e-13
4.12769e-13
-7.36687e-13
4.18802e-13
-8.23991e-13
4.26421e-13
-9.12515e-13
4.359e-13
-1.00233e-12
4.43753e-13
-1.09469e-12
4.51748e-13
-1.18984e-12
4.6013e-13
-1.28765e-12
4.70177e-13
-1.38808e-12
4.84439e-13
-1.49095e-12
5.00975e-13
-1.59652e-12
5.20545e-13
-1.70546e-12
5.42645e-13
-1.81819e-12
5.63775e-13
-1.93612e-12
5.84417e-13
-2.06102e-12
6.05691e-13
-2.19418e-12
6.26676e-13
-2.33649e-12
6.48377e-13
-2.48846e-12
6.73561e-13
-2.64935e-12
7.03538e-13
-2.81761e-12
7.38566e-13
-2.99189e-12
7.8018e-13
-3.17261e-12
8.30512e-13
-3.36285e-12
8.86342e-13
-3.56453e-12
9.41118e-13
-3.77945e-12
9.93412e-13
-4.00876e-12
1.04567e-12
-4.25152e-12
1.10583e-12
-4.5073e-12
1.18275e-12
-4.77602e-12
1.27136e-12
-5.05747e-12
1.3649e-12
-5.35322e-12
1.46126e-12
-5.66492e-12
1.56044e-12
-5.99407e-12
1.66699e-12
-6.34192e-12
1.78444e-12
-6.70712e-12
1.91492e-12
-7.08883e-12
2.05917e-12
-7.48756e-12
2.21276e-12
-7.90425e-12
2.37284e-12
-8.3404e-12
2.53593e-12
-8.79918e-12
2.69893e-12
-9.2833e-12
2.86157e-12
-9.79529e-12
3.02481e-12
-1.03377e-11
3.19012e-12
-1.09123e-11
3.35923e-12
-1.1521e-11
3.53387e-12
-1.21654e-11
3.7158e-12
-1.2847e-11
3.90685e-12
-1.35672e-11
4.10869e-12
-1.43273e-11
4.32269e-12
-1.51289e-11
4.54958e-12
-1.59732e-11
4.78913e-12
-1.68622e-11
5.04016e-12
-1.77982e-11
5.30056e-12
-1.87841e-11
5.56804e-12
-1.9823e-11
5.84027e-12
-2.09183e-11
6.11536e-12
-2.20732e-11
6.39278e-12
-2.32909e-11
6.67379e-12
-2.45744e-11
6.96096e-12
-2.59258e-11
7.25745e-12
-2.73468e-11
7.5659e-12
-2.88384e-11
7.88725e-12
-3.04015e-11
8.22049e-12
-3.20372e-11
8.56288e-12
-3.37464e-11
8.91012e-12
-3.55301e-11
9.25711e-12
-3.73897e-11
9.59922e-12
-3.93266e-11
9.93358e-12
-4.13416e-11
1.02595e-11
-4.34353e-11
1.05778e-11
-4.5607e-11
1.08906e-11
-4.78551e-11
1.11998e-11
-5.01768e-11
1.15061e-11
-5.2569e-11
1.18092e-11
-5.50286e-11
1.2108e-11
-5.75526e-11
1.24001e-11
-6.01376e-11
1.2681e-11
-6.27799e-11
1.29442e-11
-6.54751e-11
1.31811e-11
-6.82172e-11
1.33805e-11
-7.09983e-11
1.35278e-11
-7.38071e-11
1.36047e-11
-7.66271e-11
1.35896e-11
-7.94334e-11
1.34512e-11
-8.21949e-11
1.31559e-11
-8.48771e-11
1.26581e-11
-8.72899e-11
1.20774e-11
-8.98006e-11
1.02894e-11
7.09144e-12
-9.11745e-11
2.32724e-13
-1.64293e-12
1.84661e-13
2.98359e-13
1.0889e-13
5.05126e-13
2.80443e-14
5.01238e-13
-5.48713e-14
4.97981e-13
-1.37957e-13
4.94277e-13
-2.21327e-13
4.96396e-13
-3.05115e-13
4.95802e-13
-3.89845e-13
4.95773e-13
-4.7498e-13
4.94685e-13
-5.61364e-13
4.9497e-13
-6.48062e-13
4.98904e-13
-7.34837e-13
5.04991e-13
-8.22142e-13
5.13114e-13
-9.10742e-13
5.23862e-13
-1.00035e-12
5.32703e-13
-1.09232e-12
5.43036e-13
-1.18686e-12
5.53971e-13
-1.28377e-12
5.66387e-13
-1.38334e-12
5.83292e-13
-1.48565e-12
6.02565e-13
-1.5909e-12
6.25084e-13
-1.69986e-12
6.50893e-13
-1.81291e-12
6.76129e-13
-1.93088e-12
7.01703e-13
-2.05552e-12
7.29684e-13
-2.18809e-12
7.58624e-13
-2.32944e-12
7.8913e-13
-2.48044e-12
8.24004e-13
-2.64018e-12
8.62733e-13
-2.80718e-12
9.05045e-13
-2.98024e-12
9.52738e-13
-3.15956e-12
1.00933e-12
-3.34864e-12
1.07493e-12
-3.54979e-12
1.14176e-12
-3.76418e-12
1.20728e-12
-3.99263e-12
1.27359e-12
-4.23433e-12
1.34697e-12
-4.48766e-12
1.43548e-12
-4.75366e-12
1.53673e-12
-5.03287e-12
1.64345e-12
-5.32636e-12
1.75405e-12
-5.63636e-12
1.86971e-12
-5.96335e-12
1.99322e-12
-6.30798e-12
2.12829e-12
-6.67014e-12
2.27628e-12
-7.04937e-12
2.43758e-12
-7.44636e-12
2.60891e-12
-7.86182e-12
2.78745e-12
-8.29724e-12
2.97048e-12
-8.7553e-12
3.1561e-12
-9.23861e-12
3.34398e-12
-9.7495e-12
3.5348e-12
-1.02903e-11
3.73e-12
-1.08629e-11
3.93092e-12
-1.14692e-11
4.13918e-12
-1.21108e-11
4.35651e-12
-1.27893e-11
4.5844e-12
-1.35061e-11
4.82458e-12
-1.42629e-11
5.07849e-12
-1.5061e-11
5.34676e-12
-1.5902e-11
5.6293e-12
-1.67881e-11
5.9253e-12
-1.77215e-11
6.23308e-12
-1.8705e-11
6.55068e-12
-1.97416e-11
6.87603e-12
-2.08345e-11
7.20735e-12
-2.19868e-11
7.5442e-12
-2.32017e-11
7.8879e-12
-2.44823e-11
8.24072e-12
-2.58307e-11
8.60513e-12
-2.72487e-11
8.98317e-12
-2.87376e-11
9.37548e-12
-3.02986e-11
9.78078e-12
-3.19325e-11
1.01962e-11
-3.36404e-11
1.06175e-11
-3.54232e-11
1.10395e-11
-3.72824e-11
1.14579e-11
-3.92191e-11
1.18699e-11
-4.12343e-11
1.22743e-11
-4.33283e-11
1.26715e-11
-4.55006e-11
1.30626e-11
-4.77494e-11
1.34483e-11
-5.00721e-11
1.38286e-11
-5.24659e-11
1.42028e-11
-5.49277e-11
1.45696e-11
-5.74544e-11
1.49266e-11
-6.00429e-11
1.52693e-11
-6.26902e-11
1.55912e-11
-6.53927e-11
1.58833e-11
-6.81458e-11
1.61333e-11
-7.0943e-11
1.63246e-11
-7.37743e-11
1.64355e-11
-7.66235e-11
1.64383e-11
-7.94688e-11
1.6296e-11
-8.22803e-11
1.59669e-11
-8.50187e-11
1.53961e-11
-8.75481e-11
1.46066e-11
-9.00596e-11
1.28008e-11
8.55244e-12
-9.15206e-11
2.21242e-13
-1.86442e-12
1.77324e-13
3.41794e-13
1.05869e-13
5.76118e-13
2.62155e-14
5.80401e-13
-5.54854e-14
5.79155e-13
-1.38184e-13
5.76413e-13
-2.2133e-13
5.78951e-13
-3.05131e-13
5.7899e-13
-3.89676e-13
5.7969e-13
-4.74423e-13
5.78794e-13
-5.60308e-13
5.80204e-13
-6.46544e-13
5.84478e-13
-7.33057e-13
5.90825e-13
-8.2037e-13
5.99733e-13
-9.08668e-13
6.11452e-13
-9.9795e-13
6.21269e-13
-1.08939e-12
6.33761e-13
-1.18307e-12
6.46929e-13
-1.27893e-12
6.61533e-13
-1.3777e-12
6.81349e-13
-1.47935e-12
7.03508e-13
-1.58437e-12
7.29407e-13
-1.69342e-12
7.59266e-13
-1.80671e-12
7.88768e-13
-1.92487e-12
8.19236e-13
-2.04932e-12
8.53551e-13
-2.18111e-12
8.89863e-13
-2.32103e-12
9.2854e-13
-2.47021e-12
9.72716e-13
-2.62853e-12
1.02061e-12
-2.79424e-12
1.07036e-12
-2.96628e-12
1.1244e-12
-3.14456e-12
1.18725e-12
-3.33245e-12
1.26248e-12
-3.53274e-12
1.34169e-12
-3.74625e-12
1.42042e-12
-3.97336e-12
1.50031e-12
-4.21355e-12
1.58671e-12
-4.46486e-12
1.6863e-12
-4.72791e-12
1.79924e-12
-5.00475e-12
1.91969e-12
-5.29604e-12
2.04469e-12
-5.60372e-12
2.17671e-12
-5.92849e-12
2.31727e-12
-6.27047e-12
2.46951e-12
-6.63011e-12
2.63513e-12
-7.00709e-12
2.81374e-12
-7.40189e-12
3.00287e-12
-7.8157e-12
3.20039e-12
-8.25001e-12
3.40389e-12
-8.70719e-12
3.61238e-12
-9.18963e-12
3.82549e-12
-9.69944e-12
4.04367e-12
-1.02388e-11
4.26836e-12
-1.08095e-11
4.50074e-12
-1.14135e-11
4.74213e-12
-1.20523e-11
4.99435e-12
-1.27277e-11
5.25886e-12
-1.34414e-11
5.53724e-12
-1.41948e-11
5.8309e-12
-1.49895e-11
6.14056e-12
-1.58275e-11
6.46632e-12
-1.67108e-11
6.80763e-12
-1.76418e-11
7.16303e-12
-1.86229e-11
7.53081e-12
-1.9657e-11
7.90924e-12
-2.07475e-11
8.29683e-12
-2.18974e-11
8.69321e-12
-2.311e-11
9.09957e-12
-2.4388e-11
9.51788e-12
-2.57338e-11
9.95019e-12
-2.71494e-11
1.0398e-11
-2.86361e-11
1.08616e-11
-3.01953e-11
1.13394e-11
-3.18279e-11
1.18283e-11
-3.35349e-11
1.2324e-11
-3.53174e-11
1.28216e-11
-3.71767e-11
1.33169e-11
-3.91142e-11
1.38069e-11
-4.11307e-11
1.42904e-11
-4.32264e-11
1.47669e-11
-4.54003e-11
1.52363e-11
-4.76509e-11
1.56987e-11
-4.99757e-11
1.61532e-11
-5.23721e-11
1.6599e-11
-5.4837e-11
1.70344e-11
-5.73675e-11
1.74569e-11
-5.9961e-11
1.78626e-11
-6.26152e-11
1.82451e-11
-6.53277e-11
1.85954e-11
-6.80952e-11
1.89003e-11
-7.09123e-11
1.91411e-11
-7.37702e-11
1.92927e-11
-7.66551e-11
1.93226e-11
-7.9548e-11
1.91885e-11
-8.24209e-11
1.88393e-11
-8.5234e-11
1.82089e-11
-8.78853e-11
1.72576e-11
-9.04482e-11
1.53636e-11
1.01151e-11
-9.20109e-11
2.14131e-13
-2.07882e-12
1.73006e-13
3.82405e-13
1.04115e-13
6.4451e-13
2.53518e-14
6.58628e-13
-5.56211e-14
6.59552e-13
-1.38069e-13
6.58247e-13
-2.21126e-13
6.61364e-13
-3.04962e-13
6.62162e-13
-3.89279e-13
6.63331e-13
-4.73767e-13
6.62599e-13
-5.59191e-13
6.6494e-13
-6.44985e-13
6.69578e-13
-7.31248e-13
6.7639e-13
-8.18419e-13
6.86203e-13
-9.06161e-13
6.98495e-13
-9.94918e-13
7.09332e-13
-1.08576e-12
7.23919e-13
-1.17833e-12
7.38826e-13
-1.27321e-12
7.55743e-13
-1.37144e-12
7.7892e-13
-1.47245e-12
8.03877e-13
-1.5771e-12
8.33416e-13
-1.68585e-12
8.67405e-13
-1.7988e-12
9.01116e-13
-1.91713e-12
9.36994e-13
-2.04164e-12
9.77512e-13
-2.17267e-12
1.02038e-12
-2.31087e-12
1.06627e-12
-2.45747e-12
1.11887e-12
-2.61364e-12
1.17638e-12
-2.77828e-12
1.23464e-12
-2.94977e-12
1.29554e-12
-3.12746e-12
1.36462e-12
-3.31401e-12
1.44871e-12
-3.51308e-12
1.54044e-12
-3.72526e-12
1.63227e-12
-3.95083e-12
1.7255e-12
-4.18904e-12
1.82448e-12
-4.43817e-12
1.93494e-12
-4.69893e-12
2.05945e-12
-4.97328e-12
2.19343e-12
-5.2625e-12
2.33325e-12
-5.56806e-12
2.48157e-12
-5.8903e-12
2.63876e-12
-6.22961e-12
2.80803e-12
-6.58648e-12
2.99118e-12
-6.96069e-12
3.1871e-12
-7.35311e-12
3.39441e-12
-7.76495e-12
3.61133e-12
-8.19773e-12
3.83575e-12
-8.65355e-12
4.06725e-12
-9.13448e-12
4.30547e-12
-9.64255e-12
4.55079e-12
-1.01799e-11
4.8047e-12
-1.07483e-11
5.06818e-12
-1.13495e-11
5.34241e-12
-1.19854e-11
5.6292e-12
-1.26575e-11
5.93002e-12
-1.33677e-11
6.24639e-12
-1.41175e-11
6.57969e-12
-1.49086e-11
6.93075e-12
-1.57432e-11
7.29986e-12
-1.66232e-11
7.68661e-12
-1.75509e-11
8.08973e-12
-1.85288e-11
8.5077e-12
-1.95598e-11
8.9392e-12
-2.06471e-11
9.38308e-12
-2.17939e-11
9.83902e-12
-2.30033e-11
1.0308e-11
-2.42781e-11
1.07918e-11
-2.56209e-11
1.12922e-11
-2.70337e-11
1.18101e-11
-2.8518e-11
1.23452e-11
-3.00751e-11
1.28959e-11
-3.17061e-11
1.34588e-11
-3.3412e-11
1.40294e-11
-3.5194e-11
1.46032e-11
-3.70535e-11
1.5176e-11
-3.89917e-11
1.57448e-11
-4.10097e-11
1.6308e-11
-4.31072e-11
1.68641e-11
-4.52833e-11
1.74122e-11
-4.75363e-11
1.79514e-11
-4.98639e-11
1.84805e-11
-5.22633e-11
1.89982e-11
-5.47317e-11
1.95026e-11
-5.72664e-11
1.99914e-11
-5.98654e-11
2.04613e-11
-6.25274e-11
2.09067e-11
-6.5251e-11
2.13186e-11
-6.8034e-11
2.16829e-11
-7.08728e-11
2.19793e-11
-7.37607e-11
2.21801e-11
-7.66871e-11
2.22485e-11
-7.96361e-11
2.2137e-11
-8.25816e-11
2.17845e-11
-8.5485e-11
2.11121e-11
-8.82688e-11
2.00413e-11
-9.09348e-11
1.80296e-11
1.18039e-11
-9.26236e-11
2.13121e-13
-2.29222e-12
1.72976e-13
4.22018e-13
1.0453e-13
7.12437e-13
2.60569e-14
7.36545e-13
-5.47588e-14
7.39774e-13
-1.37441e-13
7.40304e-13
-2.20674e-13
7.43949e-13
-3.04612e-13
7.4544e-13
-3.88586e-13
7.46643e-13
-4.72978e-13
7.46331e-13
-5.58017e-13
7.49323e-13
-6.43405e-13
7.54315e-13
-7.29355e-13
7.61696e-13
-8.16139e-13
7.72353e-13
-9.03291e-13
7.85027e-13
-9.91315e-13
7.96752e-13
-1.08147e-12
8.1349e-13
-1.17288e-12
8.29656e-13
-1.26685e-12
8.49155e-13
-1.36433e-12
8.75847e-13
-1.46447e-12
9.03467e-13
-1.56827e-12
9.36663e-13
-1.6769e-12
9.7549e-13
-1.78999e-12
1.01366e-12
-1.90799e-12
1.05446e-12
-2.03215e-12
1.10115e-12
-2.16229e-12
1.15002e-12
-2.29871e-12
1.2022e-12
-2.44254e-12
1.26222e-12
-2.59598e-12
1.32936e-12
-2.7589e-12
1.39713e-12
-2.93046e-12
1.4667e-12
-3.10806e-12
1.54183e-12
-3.29338e-12
1.63365e-12
-3.49094e-12
1.73762e-12
-3.70131e-12
1.84222e-12
-3.92485e-12
1.94858e-12
-4.16103e-12
2.06015e-12
-4.40781e-12
2.18115e-12
-4.66629e-12
2.3173e-12
-4.93844e-12
2.46489e-12
-5.2256e-12
2.61967e-12
-5.52864e-12
2.78381e-12
-5.84828e-12
2.95758e-12
-6.18502e-12
3.14391e-12
-6.53882e-12
3.34408e-12
-6.91038e-12
3.55775e-12
-7.30042e-12
3.78351e-12
-7.70992e-12
4.01987e-12
-8.14062e-12
4.26548e-12
-8.59427e-12
4.51994e-12
-9.0729e-12
4.78314e-12
-9.57863e-12
5.05556e-12
-1.01133e-11
5.33841e-12
-1.06788e-11
5.63271e-12
-1.12769e-11
5.93962e-12
-1.19094e-11
6.26073e-12
-1.2578e-11
6.59759e-12
-1.32843e-11
6.95175e-12
-1.40302e-11
7.32458e-12
-1.48175e-11
7.71701e-12
-1.5648e-11
8.12942e-12
-1.6524e-11
8.56158e-12
-1.74478e-11
9.0125e-12
-1.8422e-11
9.48085e-12
-1.94492e-11
9.96531e-12
-2.05324e-11
1.04652e-11
-2.1675e-11
1.09806e-11
-2.28804e-11
1.15124e-11
-2.41514e-11
1.2062e-11
-2.54907e-11
1.26306e-11
-2.69002e-11
1.32188e-11
-2.83817e-11
1.3826e-11
-2.99364e-11
1.445e-11
-3.15654e-11
1.50872e-11
-3.32699e-11
1.57334e-11
-3.50511e-11
1.63839e-11
-3.69106e-11
1.7035e-11
-3.88496e-11
1.76835e-11
-4.08691e-11
1.83271e-11
-4.29689e-11
1.89635e-11
-4.51478e-11
1.95908e-11
-4.74039e-11
2.02072e-11
-4.97346e-11
2.0811e-11
-5.21372e-11
2.14005e-11
-5.4609e-11
2.19741e-11
-5.7148e-11
2.25301e-11
-5.97529e-11
2.30658e-11
-6.24231e-11
2.35766e-11
-6.51587e-11
2.40537e-11
-6.79587e-11
2.44824e-11
-7.08214e-11
2.48415e-11
-7.3743e-11
2.51013e-11
-7.67162e-11
2.52214e-11
-7.97276e-11
2.51481e-11
-8.27542e-11
2.48109e-11
-8.57618e-11
2.41196e-11
-8.86933e-11
2.29728e-11
-9.1515e-11
2.08513e-11
1.36558e-11
-9.33668e-11
2.18039e-13
-2.51055e-12
1.76777e-13
4.62747e-13
1.06498e-13
7.82198e-13
2.76219e-14
8.14873e-13
-5.33471e-14
8.20166e-13
-1.36531e-13
8.22892e-13
-2.20104e-13
8.26917e-13
-3.04188e-13
8.28921e-13
-3.87735e-13
8.29594e-13
-4.72172e-13
8.30185e-13
-5.56828e-13
8.33411e-13
-6.41867e-13
8.38801e-13
-7.27407e-13
8.46703e-13
-8.13537e-13
8.5797e-13
-9.00089e-13
8.7109e-13
-9.87285e-13
8.83483e-13
-1.07662e-12
9.02377e-13
-1.16703e-12
9.19641e-13
-1.26007e-12
9.41762e-13
-1.35657e-12
9.71925e-13
-1.45578e-12
1.00223e-12
-1.55863e-12
1.03907e-12
-1.66668e-12
1.08307e-12
-1.7796e-12
1.12609e-12
-1.89699e-12
1.17134e-12
-2.02046e-12
1.22411e-12
-2.14984e-12
1.27885e-12
-2.2846e-12
1.33642e-12
-2.42594e-12
1.40302e-12
-2.57694e-12
1.47981e-12
-2.73792e-12
1.55757e-12
-2.90846e-12
1.63671e-12
-3.08626e-12
1.71911e-12
-3.27098e-12
1.81785e-12
-3.46617e-12
1.93227e-12
-3.67448e-12
2.04997e-12
-3.8954e-12
2.16889e-12
-4.12884e-12
2.29294e-12
-4.37346e-12
2.42505e-12
-4.62943e-12
2.57249e-12
-4.8988e-12
2.73344e-12
-5.18359e-12
2.90359e-12
-5.48416e-12
3.08348e-12
-5.8013e-12
3.27379e-12
-6.1351e-12
3.47675e-12
-6.48589e-12
3.69389e-12
-6.8545e-12
3.92535e-12
-7.24169e-12
4.16968e-12
-7.64859e-12
4.42576e-12
-8.07683e-12
4.6927e-12
-8.52802e-12
4.97013e-12
-9.00406e-12
5.2582e-12
-9.507e-12
5.55753e-12
-1.00386e-11
5.86911e-12
-1.06008e-11
6.19397e-12
-1.11954e-11
6.53327e-12
-1.18241e-11
6.88846e-12
-1.24886e-11
7.26112e-12
-1.31907e-11
7.65288e-12
-1.39322e-11
8.06514e-12
-1.4715e-11
8.49886e-12
-1.55411e-11
8.95446e-12
-1.64124e-11
9.43192e-12
-1.73316e-11
9.93062e-12
-1.83011e-11
1.04493e-11
-1.93237e-11
1.09868e-11
-2.04022e-11
1.15427e-11
-2.15403e-11
1.21177e-11
-2.27412e-11
1.27123e-11
-2.40079e-11
1.33278e-11
-2.53431e-11
1.39649e-11
-2.67488e-11
1.46238e-11
-2.82269e-11
1.53034e-11
-2.97786e-11
1.60011e-11
-3.14051e-11
1.67132e-11
-3.31078e-11
1.74355e-11
-3.48882e-11
1.81638e-11
-3.67478e-11
1.88941e-11
-3.8688e-11
1.96233e-11
-4.07095e-11
2.03482e-11
-4.28119e-11
2.10655e-11
-4.49939e-11
2.17725e-11
-4.72532e-11
2.24662e-11
-4.95871e-11
2.31445e-11
-5.19928e-11
2.3806e-11
-5.44682e-11
2.44491e-11
-5.70116e-11
2.50731e-11
-5.96226e-11
2.56764e-11
-6.23017e-11
2.62553e-11
-6.50499e-11
2.68015e-11
-6.78683e-11
2.73004e-11
-7.07571e-11
2.773e-11
-7.37152e-11
2.80592e-11
-7.67383e-11
2.82443e-11
-7.98161e-11
2.82259e-11
-8.29304e-11
2.79253e-11
-8.60547e-11
2.7244e-11
-8.915e-11
2.60682e-11
-9.21724e-11
2.38738e-11
1.57081e-11
-9.42246e-11
2.26508e-13
-2.73735e-12
1.83137e-13
5.05603e-13
1.09961e-13
8.54876e-13
3.01399e-14
8.94177e-13
-5.13495e-14
9.01126e-13
-1.35219e-13
9.06228e-13
-2.19162e-13
9.10333e-13
-3.03296e-13
9.12542e-13
-3.86645e-13
9.1245e-13
-4.71027e-13
9.14096e-13
-5.5526e-13
9.17195e-13
-6.40046e-13
9.23163e-13
-7.25124e-13
9.31384e-13
-8.10577e-13
9.43054e-13
-8.96523e-13
9.56697e-13
-9.8306e-13
9.69707e-13
-1.07172e-12
9.90744e-13
-1.16142e-12
1.00905e-12
-1.25361e-12
1.03367e-12
-1.34888e-12
1.06689e-12
-1.44671e-12
1.09974e-12
-1.54841e-12
1.1404e-12
-1.65532e-12
1.18958e-12
-1.76726e-12
1.2376e-12
-1.88392e-12
1.28751e-12
-2.00656e-12
1.34622e-12
-2.13519e-12
1.4069e-12
-2.26868e-12
1.4693e-12
-2.40792e-12
1.54161e-12
-2.5565e-12
1.62773e-12
-2.71557e-12
1.71597e-12
-2.88447e-12
1.80493e-12
-3.06199e-12
1.89596e-12
-3.24652e-12
2.0017e-12
-3.43894e-12
2.124e-12
-3.64452e-12
2.25484e-12
-3.86262e-12
2.38622e-12
-4.09287e-12
2.52238e-12
-4.33504e-12
2.66636e-12
-4.58849e-12
2.82503e-12
-4.85553e-12
2.99953e-12
-5.13793e-12
3.18499e-12
-5.43577e-12
3.3803e-12
-5.7497e-12
3.58668e-12
-6.08023e-12
3.80622e-12
-6.42787e-12
4.04045e-12
-6.79324e-12
4.28963e-12
-7.17726e-12
4.5526e-12
-7.58119e-12
4.82859e-12
-8.00655e-12
5.11698e-12
-8.45491e-12
5.41744e-12
-8.9281e-12
5.73036e-12
-9.42793e-12
6.05638e-12
-9.95616e-12
6.39638e-12
-1.05146e-11
6.75146e-12
-1.11051e-11
7.12286e-12
-1.17296e-11
7.51197e-12
-1.23897e-11
7.92032e-12
-1.30872e-11
8.34948e-12
-1.38239e-11
8.8009e-12
-1.46017e-11
9.27568e-12
-1.54226e-11
9.7744e-12
-1.62889e-11
1.02972e-11
-1.72028e-11
1.08435e-11
-1.81668e-11
1.14123e-11
-1.9184e-11
1.20029e-11
-2.02574e-11
1.26151e-11
-2.13903e-11
1.32496e-11
-2.25861e-11
1.39071e-11
-2.38478e-11
1.45886e-11
-2.51782e-11
1.52944e-11
-2.65794e-11
1.60243e-11
-2.80533e-11
1.67766e-11
-2.96014e-11
1.75485e-11
-3.1225e-11
1.83362e-11
-3.29258e-11
1.91357e-11
-3.47053e-11
1.99428e-11
-3.65654e-11
2.07537e-11
-3.85073e-11
2.15647e-11
-4.05311e-11
2.23716e-11
-4.26364e-11
2.31704e-11
-4.48214e-11
2.39572e-11
-4.7084e-11
2.47284e-11
-4.94212e-11
2.54814e-11
-5.18304e-11
2.62148e-11
-5.43098e-11
2.6928e-11
-5.6858e-11
2.7621e-11
-5.94753e-11
2.82932e-11
-6.2163e-11
2.89426e-11
-6.4924e-11
2.95622e-11
-6.77611e-11
3.01372e-11
-7.06767e-11
3.06455e-11
-7.36722e-11
3.10547e-11
-7.67464e-11
3.13185e-11
-7.98932e-11
3.13728e-11
-8.31009e-11
3.11331e-11
-8.63524e-11
3.04957e-11
-8.96225e-11
2.93384e-11
-9.28719e-11
2.71232e-11
1.79814e-11
-9.51452e-11
2.36693e-13
-2.97433e-12
1.90793e-13
5.51018e-13
1.14328e-13
9.30882e-13
3.29345e-14
9.75106e-13
-4.94696e-14
9.83067e-13
-1.34059e-13
9.90366e-13
-2.18646e-13
9.94489e-13
-3.02824e-13
9.96313e-13
-3.86454e-13
9.95698e-13
-4.7065e-13
9.97937e-13
-5.5426e-13
1.00048e-12
-6.38612e-13
1.00722e-12
-7.22894e-13
1.0154e-12
-8.07538e-13
1.02746e-12
-8.92396e-13
1.04135e-12
-9.77886e-13
1.05501e-12
-1.06547e-12
1.07817e-12
-1.15369e-12
1.0971e-12
-1.24498e-12
1.12478e-12
-1.33971e-12
1.16142e-12
-1.43661e-12
1.19638e-12
-1.53737e-12
1.24087e-12
-1.64307e-12
1.29492e-12
-1.7535e-12
1.34761e-12
-1.86925e-12
1.40278e-12
-1.99104e-12
1.46746e-12
-2.11865e-12
1.53389e-12
-2.25105e-12
1.60101e-12
-2.38898e-12
1.67881e-12
-2.53491e-12
1.7729e-12
-2.69212e-12
1.8724e-12
-2.85898e-12
1.971e-12
-3.03521e-12
2.07138e-12
-3.2185e-12
2.18418e-12
-3.40931e-12
2.31397e-12
-3.61204e-12
2.45671e-12
-3.82715e-12
2.60043e-12
-4.05449e-12
2.74878e-12
-4.29421e-12
2.9051e-12
-4.54539e-12
3.07518e-12
-4.80981e-12
3.2629e-12
-5.0892e-12
3.4633e-12
-5.38391e-12
3.6739e-12
-5.69463e-12
3.89626e-12
-6.02183e-12
4.13226e-12
-6.36591e-12
4.38335e-12
-6.72781e-12
4.65034e-12
-7.10846e-12
4.93206e-12
-7.50907e-12
5.22803e-12
-7.93116e-12
5.53792e-12
-8.37622e-12
5.86139e-12
-8.84597e-12
6.19905e-12
-9.34223e-12
6.55161e-12
-9.86659e-12
6.91975e-12
-1.04208e-11
7.3047e-12
-1.10068e-11
7.70792e-12
-1.16265e-11
8.13075e-12
-1.22817e-11
8.57462e-12
-1.29742e-11
9.041e-12
-1.37055e-11
9.53132e-12
-1.44777e-11
1.0047e-11
-1.5293e-11
1.05887e-11
-1.61535e-11
1.11567e-11
-1.70615e-11
1.17504e-11
-1.80195e-11
1.23694e-11
-1.90307e-11
1.3013e-11
-2.0098e-11
1.36815e-11
-2.1225e-11
1.43756e-11
-2.24148e-11
1.50961e-11
-2.36708e-11
1.58438e-11
-2.49956e-11
1.66185e-11
-2.63916e-11
1.74196e-11
-2.78608e-11
1.82451e-11
-2.94047e-11
1.90917e-11
-3.1025e-11
1.99559e-11
-3.27234e-11
2.08336e-11
-3.4502e-11
2.17209e-11
-3.63625e-11