/*--------------------------------*- C++ -*----------------------------------*\
| =========                 |                                                 |
| \\      /  F ield         | OpenFOAM: The Open Source CFD Toolbox           |
|  \\    /   O peration     | Version:  2.4.0                                 |
|   \\  /    A nd           | Web:      www.OpenFOAM.org                      |
|    \\/     M anipulation  |                                                 |
\*---------------------------------------------------------------------------*/
FoamFile
{
    version     2.0;
    format      ascii;
    class       volVectorField;
    location    "0.016";
    object      U;
}
// * * * * * * * * * * * * * * * * * * * * * * * * * * * * * * * * * * * * * //

dimensions      [0 1 -1 0 0 0 0];

internalField   nonuniform List<vector> 
60000
(
(1.06501e-07 -3.02917e-08 0)
(1.83565e-07 1.37302e-08 0)
(1.01003e-07 1.84649e-08 0)
(8.07901e-08 1.91562e-08 0)
(3.75273e-08 1.64825e-08 0)
(5.23792e-09 1.73944e-08 0)
(-3.1505e-08 1.73951e-08 0)
(-6.76641e-08 1.73176e-08 0)
(-1.02844e-07 1.65752e-08 0)
(-1.35601e-07 1.56203e-08 0)
(-1.6684e-07 1.49183e-08 0)
(-1.97806e-07 1.49203e-08 0)
(-2.30069e-07 1.55704e-08 0)
(-2.64958e-07 1.64466e-08 0)
(-3.02092e-07 1.7172e-08 0)
(-3.40468e-07 1.75403e-08 0)
(-3.79139e-07 1.7506e-08 0)
(-4.17433e-07 1.74177e-08 0)
(-4.55524e-07 1.76089e-08 0)
(-4.94381e-07 1.83247e-08 0)
(-5.35281e-07 1.95532e-08 0)
(-5.79229e-07 2.10407e-08 0)
(-6.26665e-07 2.24818e-08 0)
(-6.7696e-07 2.34625e-08 0)
(-7.28702e-07 2.37395e-08 0)
(-7.80351e-07 2.31065e-08 0)
(-8.30235e-07 2.17742e-08 0)
(-8.77066e-07 2.00166e-08 0)
(-9.20752e-07 1.83103e-08 0)
(-9.62801e-07 1.72761e-08 0)
(-1.00555e-06 1.74606e-08 0)
(-1.05181e-06 1.90745e-08 0)
(-1.10449e-06 2.16413e-08 0)
(-1.16495e-06 2.43747e-08 0)
(-1.23189e-06 2.62156e-08 0)
(-1.30257e-06 2.6427e-08 0)
(-1.3749e-06 2.55161e-08 0)
(-1.44919e-06 2.50027e-08 0)
(-1.52845e-06 2.6405e-08 0)
(-1.61761e-06 2.99209e-08 0)
(-1.72089e-06 3.44392e-08 0)
(-1.83939e-06 3.86736e-08 0)
(-1.97204e-06 4.18655e-08 0)
(-2.11786e-06 4.43049e-08 0)
(-2.27806e-06 4.73183e-08 0)
(-2.45665e-06 5.1676e-08 0)
(-2.65909e-06 5.71961e-08 0)
(-2.8903e-06 6.38012e-08 0)
(-3.15284e-06 7.08162e-08 0)
(-3.44615e-06 7.73635e-08 0)
(-3.76733e-06 8.28317e-08 0)
(-4.11266e-06 8.71343e-08 0)
(-4.47881e-06 9.04379e-08 0)
(-4.86319e-06 9.30155e-08 0)
(-5.26419e-06 9.51772e-08 0)
(-5.68113e-06 9.71359e-08 0)
(-6.1141e-06 9.90953e-08 0)
(-6.56399e-06 1.01256e-07 0)
(-7.03237e-06 1.03789e-07 0)
(-7.52142e-06 1.06902e-07 0)
(-8.03374e-06 1.10686e-07 0)
(-8.57188e-06 1.15076e-07 0)
(-9.13789e-06 1.19927e-07 0)
(-9.73284e-06 1.24901e-07 0)
(-1.03564e-05 1.29527e-07 0)
(-1.10067e-05 1.33415e-07 0)
(-1.1681e-05 1.36292e-07 0)
(-1.23761e-05 1.38056e-07 0)
(-1.30892e-05 1.38879e-07 0)
(-1.38184e-05 1.39154e-07 0)
(-1.45634e-05 1.39363e-07 0)
(-1.53253e-05 1.40003e-07 0)
(-1.61065e-05 1.41468e-07 0)
(-1.69099e-05 1.43831e-07 0)
(-1.7738e-05 1.46799e-07 0)
(-1.85917e-05 1.49883e-07 0)
(-1.94704e-05 1.52523e-07 0)
(-2.03716e-05 1.54148e-07 0)
(-2.12916e-05 1.54393e-07 0)
(-2.22265e-05 1.53268e-07 0)
(-2.31729e-05 1.51098e-07 0)
(-2.41289e-05 1.4847e-07 0)
(-2.50943e-05 1.46047e-07 0)
(-2.60704e-05 1.44418e-07 0)
(-2.70597e-05 1.43949e-07 0)
(-2.80646e-05 1.44644e-07 0)
(-2.90874e-05 1.46321e-07 0)
(-3.01293e-05 1.48632e-07 0)
(-3.11903e-05 1.51202e-07 0)
(-3.22692e-05 1.53644e-07 0)
(-3.33632e-05 1.55489e-07 0)
(-3.44679e-05 1.56228e-07 0)
(-3.55769e-05 1.55357e-07 0)
(-3.66825e-05 1.52618e-07 0)
(-3.7774e-05 1.47821e-07 0)
(-3.8848e-05 1.43534e-07 0)
(-3.97927e-05 1.04324e-07 0)
(-4.17315e-05 3.09388e-07 0)
(-3.98885e-05 -2.50716e-07 0)
(-4.51689e-05 1.92299e-07 0)
(1.0831e-07 -1.28289e-07 0)
(1.88458e-07 3.78744e-09 0)
(8.90094e-08 2.24857e-08 0)
(6.99718e-08 2.14811e-08 0)
(1.36976e-08 1.81072e-08 0)
(-2.72768e-08 1.95566e-08 0)
(-7.29194e-08 2.00865e-08 0)
(-1.16539e-07 1.99662e-08 0)
(-1.60548e-07 1.86336e-08 0)
(-2.04269e-07 1.71786e-08 0)
(-2.48627e-07 1.63934e-08 0)
(-2.93123e-07 1.71231e-08 0)
(-3.37618e-07 1.89929e-08 0)
(-3.82836e-07 2.10251e-08 0)
(-4.28569e-07 2.24328e-08 0)
(-4.75047e-07 2.28456e-08 0)
(-5.22863e-07 2.23048e-08 0)
(-5.72114e-07 2.15461e-08 0)
(-6.22723e-07 2.12687e-08 0)
(-6.74821e-07 2.20779e-08 0)
(-7.28451e-07 2.37978e-08 0)
(-7.83591e-07 2.60244e-08 0)
(-8.40752e-07 2.83067e-08 0)
(-9.00049e-07 2.98684e-08 0)
(-9.61176e-07 3.03344e-08 0)
(-1.02451e-06 2.96517e-08 0)
(-1.09005e-06 2.81073e-08 0)
(-1.1573e-06 2.62539e-08 0)
(-1.22653e-06 2.48908e-08 0)
(-1.29884e-06 2.48069e-08 0)
(-1.37491e-06 2.68337e-08 0)
(-1.45508e-06 3.09966e-08 0)
(-1.5404e-06 3.65434e-08 0)
(-1.63143e-06 4.21363e-08 0)
(-1.72735e-06 4.63357e-08 0)
(-1.82788e-06 4.83055e-08 0)
(-1.93438e-06 4.9271e-08 0)
(-2.04875e-06 5.197e-08 0)
(-2.17189e-06 5.86478e-08 0)
(-2.30406e-06 6.89182e-08 0)
(-2.44564e-06 8.07987e-08 0)
(-2.59722e-06 9.23574e-08 0)
(-2.75998e-06 1.02806e-07 0)
(-2.93593e-06 1.13331e-07 0)
(-3.12639e-06 1.2645e-07 0)
(-3.33202e-06 1.43859e-07 0)
(-3.554e-06 1.65097e-07 0)
(-3.79345e-06 1.88992e-07 0)
(-4.05137e-06 2.13781e-07 0)
(-4.32863e-06 2.37555e-07 0)
(-4.62526e-06 2.58811e-07 0)
(-4.94094e-06 2.77497e-07 0)
(-5.27558e-06 2.94053e-07 0)
(-5.62907e-06 3.09122e-07 0)
(-6.00145e-06 3.23502e-07 0)
(-6.39303e-06 3.3777e-07 0)
(-6.8044e-06 3.52498e-07 0)
(-7.23649e-06 3.68272e-07 0)
(-7.69047e-06 3.8556e-07 0)
(-8.16759e-06 4.0481e-07 0)
(-8.66917e-06 4.26212e-07 0)
(-9.19656e-06 4.49512e-07 0)
(-9.75094e-06 4.74174e-07 0)
(-1.03332e-05 4.9923e-07 0)
(-1.09438e-05 5.23509e-07 0)
(-1.15833e-05 5.4606e-07 0)
(-1.22519e-05 5.66313e-07 0)
(-1.29499e-05 5.84204e-07 0)
(-1.36779e-05 6.00319e-07 0)
(-1.44364e-05 6.15727e-07 0)
(-1.52262e-05 6.31676e-07 0)
(-1.60481e-05 6.49328e-07 0)
(-1.6903e-05 6.69431e-07 0)
(-1.77919e-05 6.91892e-07 0)
(-1.87155e-05 7.15807e-07 0)
(-1.96743e-05 7.39866e-07 0)
(-2.06684e-05 7.62713e-07 0)
(-2.16977e-05 7.83118e-07 0)
(-2.27618e-05 8.0045e-07 0)
(-2.386e-05 8.14962e-07 0)
(-2.49917e-05 8.27571e-07 0)
(-2.61562e-05 8.39585e-07 0)
(-2.73526e-05 8.52244e-07 0)
(-2.85803e-05 8.66405e-07 0)
(-2.98386e-05 8.82333e-07 0)
(-3.11272e-05 8.99585e-07 0)
(-3.24458e-05 9.17492e-07 0)
(-3.3794e-05 9.35251e-07 0)
(-3.51705e-05 9.52088e-07 0)
(-3.65728e-05 9.67191e-07 0)
(-3.79967e-05 9.79407e-07 0)
(-3.94364e-05 9.87301e-07 0)
(-4.0885e-05 9.89269e-07 0)
(-4.23344e-05 9.83821e-07 0)
(-4.37715e-05 9.69384e-07 0)
(-4.51933e-05 9.46086e-07 0)
(-4.64141e-05 8.96136e-07 0)
(-4.90898e-05 1.03899e-06 0)
(-4.59115e-05 3.64537e-07 0)
(-5.48836e-05 6.58525e-07 0)
(1.03908e-07 -1.86425e-07 0)
(1.67303e-07 3.57118e-08 0)
(6.86155e-08 6.17642e-08 0)
(5.22257e-08 6.1057e-08 0)
(-4.32607e-09 5.82224e-08 0)
(-4.38601e-08 5.82556e-08 0)
(-8.76592e-08 5.85822e-08 0)
(-1.2913e-07 5.83516e-08 0)
(-1.718e-07 5.73473e-08 0)
(-2.15566e-07 5.62616e-08 0)
(-2.60995e-07 5.5362e-08 0)
(-3.06557e-07 5.58385e-08 0)
(-3.51325e-07 5.72882e-08 0)
(-3.95529e-07 5.90778e-08 0)
(-4.39182e-07 6.07782e-08 0)
(-4.83335e-07 6.19678e-08 0)
(-5.293e-07 6.26405e-08 0)
(-5.77503e-07 6.3279e-08 0)
(-6.2775e-07 6.43796e-08 0)
(-6.79706e-07 6.66099e-08 0)
(-7.32721e-07 6.95484e-08 0)
(-7.86233e-07 7.30283e-08 0)
(-8.40797e-07 7.67648e-08 0)
(-8.96969e-07 7.99215e-08 0)
(-9.55135e-07 8.20308e-08 0)
(-1.01652e-06 8.32577e-08 0)
(-1.08199e-06 8.35109e-08 0)
(-1.15145e-06 8.33986e-08 0)
(-1.22513e-06 8.37496e-08 0)
(-1.30363e-06 8.53627e-08 0)
(-1.38666e-06 8.92629e-08 0)
(-1.47341e-06 9.54549e-08 0)
(-1.56404e-06 1.03524e-07 0)
(-1.6589e-06 1.11728e-07 0)
(-1.75776e-06 1.18717e-07 0)
(-1.86139e-06 1.23562e-07 0)
(-1.972e-06 1.27413e-07 0)
(-2.09163e-06 1.33158e-07 0)
(-2.22026e-06 1.43087e-07 0)
(-2.35603e-06 1.56209e-07 0)
(-2.4975e-06 1.70987e-07 0)
(-2.64504e-06 1.85698e-07 0)
(-2.80073e-06 1.99819e-07 0)
(-2.96728e-06 2.14424e-07 0)
(-3.14546e-06 2.31133e-07 0)
(-3.33425e-06 2.51834e-07 0)
(-3.53273e-06 2.76395e-07 0)
(-3.74039e-06 3.03486e-07 0)
(-3.95732e-06 3.31771e-07 0)
(-4.18449e-06 3.59741e-07 0)
(-4.4234e-06 3.85912e-07 0)
(-4.67573e-06 4.10308e-07 0)
(-4.94297e-06 4.33242e-07 0)
(-5.22635e-06 4.5523e-07 0)
(-5.52681e-06 4.76951e-07 0)
(-5.84517e-06 4.98909e-07 0)
(-6.18224e-06 5.21618e-07 0)
(-6.53881e-06 5.45629e-07 0)
(-6.91561e-06 5.71356e-07 0)
(-7.31323e-06 5.99182e-07 0)
(-7.73213e-06 6.29329e-07 0)
(-8.17276e-06 6.61648e-07 0)
(-8.63566e-06 6.95705e-07 0)
(-9.12154e-06 7.30726e-07 0)
(-9.63146e-06 7.65796e-07 0)
(-1.01669e-05 8.00093e-07 0)
(-1.07298e-05 8.33061e-07 0)
(-1.13223e-05 8.64555e-07 0)
(-1.19463e-05 8.94934e-07 0)
(-1.26036e-05 9.25043e-07 0)
(-1.32953e-05 9.55982e-07 0)
(-1.40219e-05 9.88809e-07 0)
(-1.47834e-05 1.02417e-06 0)
(-1.55794e-05 1.06199e-06 0)
(-1.641e-05 1.10158e-06 0)
(-1.72752e-05 1.14179e-06 0)
(-1.81759e-05 1.18129e-06 0)
(-1.91127e-05 1.21878e-06 0)
(-2.00871e-05 1.25341e-06 0)
(-2.11001e-05 1.28515e-06 0)
(-2.21523e-05 1.31461e-06 0)
(-2.32435e-05 1.34283e-06 0)
(-2.43728e-05 1.37104e-06 0)
(-2.55383e-05 1.40022e-06 0)
(-2.67382e-05 1.43087e-06 0)
(-2.79706e-05 1.46286e-06 0)
(-2.92344e-05 1.49553e-06 0)
(-3.05286e-05 1.52782e-06 0)
(-3.18518e-05 1.55834e-06 0)
(-3.32017e-05 1.58549e-06 0)
(-3.45743e-05 1.60729e-06 0)
(-3.59645e-05 1.62138e-06 0)
(-3.73665e-05 1.62512e-06 0)
(-3.8774e-05 1.61592e-06 0)
(-4.01749e-05 1.591e-06 0)
(-4.15702e-05 1.54836e-06 0)
(-4.27158e-05 1.47263e-06 0)
(-4.55231e-05 1.53745e-06 0)
(-4.20096e-05 9.45986e-07 0)
(-5.14643e-05 9.10794e-07 0)
(9.28568e-08 -2.5711e-07 0)
(1.51567e-07 3.92245e-08 0)
(6.23867e-08 7.27706e-08 0)
(4.53724e-08 6.96407e-08 0)
(-9.17421e-09 6.74163e-08 0)
(-4.74197e-08 6.70194e-08 0)
(-9.05568e-08 6.74883e-08 0)
(-1.31628e-07 6.72205e-08 0)
(-1.73884e-07 6.64759e-08 0)
(-2.17256e-07 6.57371e-08 0)
(-2.6209e-07 6.51366e-08 0)
(-3.06901e-07 6.60503e-08 0)
(-3.51122e-07 6.78124e-08 0)
(-3.94828e-07 6.98414e-08 0)
(-4.37994e-07 7.18406e-08 0)
(-4.81724e-07 7.32515e-08 0)
(-5.27205e-07 7.41554e-08 0)
(-5.74773e-07 7.49995e-08 0)
(-6.24196e-07 7.6302e-08 0)
(-6.75279e-07 7.87386e-08 0)
(-7.27467e-07 8.1849e-08 0)
(-7.80091e-07 8.56454e-08 0)
(-8.33823e-07 8.98554e-08 0)
(-8.89284e-07 9.36474e-08 0)
(-9.46788e-07 9.67653e-08 0)
(-1.00758e-06 9.94234e-08 0)
(-1.07271e-06 1.01505e-07 0)
(-1.14203e-06 1.03519e-07 0)
(-1.21562e-06 1.063e-07 0)
(-1.29415e-06 1.10567e-07 0)
(-1.37721e-06 1.1684e-07 0)
(-1.46404e-06 1.2528e-07 0)
(-1.55507e-06 1.35752e-07 0)
(-1.6506e-06 1.4645e-07 0)
(-1.75015e-06 1.5618e-07 0)
(-1.85413e-06 1.64504e-07 0)
(-1.96427e-06 1.72562e-07 0)
(-2.08259e-06 1.83121e-07 0)
(-2.20984e-06 1.98304e-07 0)
(-2.34461e-06 2.16455e-07 0)
(-2.48497e-06 2.35902e-07 0)
(-2.63075e-06 2.55327e-07 0)
(-2.78371e-06 2.74744e-07 0)
(-2.94608e-06 2.95407e-07 0)
(-3.11894e-06 3.18414e-07 0)
(-3.30141e-06 3.45189e-07 0)
(-3.49232e-06 3.75555e-07 0)
(-3.69103e-06 4.08205e-07 0)
(-3.89735e-06 4.42096e-07 0)
(-4.11213e-06 4.75976e-07 0)
(-4.33699e-06 5.08551e-07 0)
(-4.57384e-06 5.39919e-07 0)
(-4.82442e-06 5.70393e-07 0)
(-5.09022e-06 6.00439e-07 0)
(-5.37234e-06 6.30682e-07 0)
(-5.67176e-06 6.61617e-07 0)
(-5.98933e-06 6.93732e-07 0)
(-6.32578e-06 7.27587e-07 0)
(-6.68174e-06 7.63617e-07 0)
(-7.05769e-06 8.02181e-07 0)
(-7.454e-06 8.43478e-07 0)
(-7.87104e-06 8.8737e-07 0)
(-8.30935e-06 9.33429e-07 0)
(-8.76971e-06 9.8092e-07 0)
(-9.2533e-06 1.02904e-06 0)
(-9.7618e-06 1.07708e-06 0)
(-1.02973e-05 1.12451e-06 0)
(-1.0862e-05 1.1712e-06 0)
(-1.14581e-05 1.21751e-06 0)
(-1.20875e-05 1.26422e-06 0)
(-1.27513e-05 1.31241e-06 0)
(-1.345e-05 1.36299e-06 0)
(-1.41836e-05 1.41644e-06 0)
(-1.49519e-05 1.47255e-06 0)
(-1.57548e-05 1.53057e-06 0)
(-1.65926e-05 1.58939e-06 0)
(-1.7466e-05 1.64758e-06 0)
(-1.83761e-05 1.70383e-06 0)
(-1.9324e-05 1.75733e-06 0)
(-2.03111e-05 1.80801e-06 0)
(-2.13381e-05 1.85636e-06 0)
(-2.24046e-05 1.90334e-06 0)
(-2.35096e-05 1.95014e-06 0)
(-2.46513e-05 1.9977e-06 0)
(-2.58278e-05 2.04641e-06 0)
(-2.70373e-05 2.09602e-06 0)
(-2.82787e-05 2.14568e-06 0)
(-2.95512e-05 2.19395e-06 0)
(-3.08535e-05 2.23909e-06 0)
(-3.21833e-05 2.27901e-06 0)
(-3.35371e-05 2.31122e-06 0)
(-3.49101e-05 2.33254e-06 0)
(-3.62969e-05 2.33915e-06 0)
(-3.76913e-05 2.3271e-06 0)
(-3.90816e-05 2.29295e-06 0)
(-4.0471e-05 2.23457e-06 0)
(-4.15825e-05 2.14013e-06 0)
(-4.44772e-05 2.10806e-06 0)
(-4.08849e-05 1.61807e-06 0)
(-5.03254e-05 1.25759e-06 0)
(8.94247e-08 -3.19139e-07 0)
(1.44453e-07 5.70755e-08 0)
(5.99861e-08 9.84686e-08 0)
(4.31719e-08 9.62018e-08 0)
(-1.03884e-08 9.46757e-08 0)
(-4.80495e-08 9.37319e-08 0)
(-9.08962e-08 9.41547e-08 0)
(-1.32009e-07 9.38925e-08 0)
(-1.74197e-07 9.35863e-08 0)
(-2.17555e-07 9.32097e-08 0)
(-2.62118e-07 9.28266e-08 0)
(-3.06484e-07 9.36463e-08 0)
(-3.50422e-07 9.50582e-08 0)
(-3.9387e-07 9.68327e-08 0)
(-4.36929e-07 9.90136e-08 0)
(-4.80649e-07 1.00875e-07 0)
(-5.26036e-07 1.02663e-07 0)
(-5.73428e-07 1.04547e-07 0)
(-6.22457e-07 1.06856e-07 0)
(-6.73091e-07 1.10171e-07 0)
(-7.24933e-07 1.14044e-07 0)
(-7.77153e-07 1.18635e-07 0)
(-8.30642e-07 1.23787e-07 0)
(-8.86105e-07 1.28659e-07 0)
(-9.43566e-07 1.33228e-07 0)
(-1.00436e-06 1.37713e-07 0)
(-1.06956e-06 1.4197e-07 0)
(-1.13871e-06 1.4627e-07 0)
(-1.2119e-06 1.51347e-07 0)
(-1.28986e-06 1.57693e-07 0)
(-1.37219e-06 1.65454e-07 0)
(-1.45811e-06 1.75023e-07 0)
(-1.54845e-06 1.86763e-07 0)
(-1.64395e-06 1.99485e-07 0)
(-1.74385e-06 2.11707e-07 0)
(-1.84809e-06 2.2312e-07 0)
(-1.95775e-06 2.3441e-07 0)
(-2.07451e-06 2.47844e-07 0)
(-2.20005e-06 2.65576e-07 0)
(-2.33381e-06 2.86149e-07 0)
(-2.47359e-06 3.07914e-07 0)
(-2.61885e-06 3.30194e-07 0)
(-2.77105e-06 3.52985e-07 0)
(-2.93194e-06 3.77465e-07 0)
(-3.10274e-06 4.04498e-07 0)
(-3.28306e-06 4.34917e-07 0)
(-3.47164e-06 4.68882e-07 0)
(-3.66797e-06 5.05078e-07 0)
(-3.87226e-06 5.42796e-07 0)
(-4.08517e-06 5.8113e-07 0)
(-4.30808e-06 6.1908e-07 0)
(-4.54283e-06 6.56642e-07 0)
(-4.791e-06 6.94066e-07 0)
(-5.05406e-06 7.31703e-07 0)
(-5.33318e-06 7.70063e-07 0)
(-5.62928e-06 8.0958e-07 0)
(-5.94322e-06 8.50683e-07 0)
(-6.27578e-06 8.93866e-07 0)
(-6.62755e-06 9.39547e-07 0)
(-6.99907e-06 9.8806e-07 0)
(-7.3908e-06 1.0396e-06 0)
(-7.80319e-06 1.0941e-06 0)
(-8.23684e-06 1.15122e-06 0)
(-8.69265e-06 1.21036e-06 0)
(-9.1719e-06 1.27089e-06 0)
(-9.67625e-06 1.3322e-06 0)
(-1.02076e-05 1.39378e-06 0)
(-1.07681e-05 1.45547e-06 0)
(-1.13597e-05 1.51757e-06 0)
(-1.19842e-05 1.58079e-06 0)
(-1.26429e-05 1.64602e-06 0)
(-1.33361e-05 1.71404e-06 0)
(-1.40642e-05 1.78518e-06 0)
(-1.48271e-05 1.85919e-06 0)
(-1.56251e-05 1.93534e-06 0)
(-1.64586e-05 2.0125e-06 0)
(-1.73282e-05 2.08931e-06 0)
(-1.82349e-05 2.16446e-06 0)
(-1.91799e-05 2.23717e-06 0)
(-2.01639e-05 2.30727e-06 0)
(-2.11876e-05 2.37512e-06 0)
(-2.22505e-05 2.44151e-06 0)
(-2.33516e-05 2.50747e-06 0)
(-2.44892e-05 2.57375e-06 0)
(-2.56616e-05 2.6405e-06 0)
(-2.68674e-05 2.70732e-06 0)
(-2.81056e-05 2.77322e-06 0)
(-2.93757e-05 2.83669e-06 0)
(-3.06765e-05 2.89591e-06 0)
(-3.20059e-05 2.94866e-06 0)
(-3.33609e-05 2.99205e-06 0)
(-3.47371e-05 3.02241e-06 0)
(-3.61293e-05 3.03514e-06 0)
(-3.75315e-05 3.02512e-06 0)
(-3.89314e-05 2.98772e-06 0)
(-4.03341e-05 2.91845e-06 0)
(-4.14445e-05 2.80582e-06 0)
(-4.44168e-05 2.69956e-06 0)
(-4.08069e-05 2.25294e-06 0)
(-5.02333e-05 1.59368e-06 0)
(8.45236e-08 -3.78079e-07 0)
(1.37206e-07 6.90542e-08 0)
(5.80306e-08 1.18008e-07 0)
(4.13532e-08 1.16138e-07 0)
(-1.10781e-08 1.14939e-07 0)
(-4.82687e-08 1.13865e-07 0)
(-9.09018e-08 1.14332e-07 0)
(-1.32176e-07 1.14098e-07 0)
(-1.74384e-07 1.13972e-07 0)
(-2.17726e-07 1.13663e-07 0)
(-2.6193e-07 1.13596e-07 0)
(-3.0583e-07 1.14585e-07 0)
(-3.49497e-07 1.16147e-07 0)
(-3.92702e-07 1.18158e-07 0)
(-4.35756e-07 1.20752e-07 0)
(-4.79589e-07 1.22899e-07 0)
(-5.24913e-07 1.25246e-07 0)
(-5.72158e-07 1.27724e-07 0)
(-6.20823e-07 1.30601e-07 0)
(-6.71021e-07 1.34556e-07 0)
(-7.2253e-07 1.39096e-07 0)
(-7.74431e-07 1.44404e-07 0)
(-8.27827e-07 1.5038e-07 0)
(-8.83437e-07 1.56128e-07 0)
(-9.40929e-07 1.61907e-07 0)
(-1.00167e-06 1.68104e-07 0)
(-1.0668e-06 1.74421e-07 0)
(-1.13564e-06 1.81045e-07 0)
(-1.20826e-06 1.88647e-07 0)
(-1.28558e-06 1.9733e-07 0)
(-1.36716e-06 2.07107e-07 0)
(-1.45214e-06 2.18384e-07 0)
(-1.54164e-06 2.31836e-07 0)
(-1.63692e-06 2.47019e-07 0)
(-1.73706e-06 2.62136e-07 0)
(-1.84143e-06 2.76817e-07 0)
(-1.95054e-06 2.9167e-07 0)
(-2.06574e-06 3.08476e-07 0)
(-2.18949e-06 3.29333e-07 0)
(-2.32221e-06 3.53207e-07 0)
(-2.46159e-06 3.78281e-07 0)
(-2.60636e-06 4.04144e-07 0)
(-2.75784e-06 4.30964e-07 0)
(-2.91763e-06 4.59707e-07 0)
(-3.08666e-06 4.91293e-07 0)
(-3.26505e-06 5.26118e-07 0)
(-3.4521e-06 5.64325e-07 0)
(-3.64739e-06 6.04935e-07 0)
(-3.85107e-06 6.4724e-07 0)
(-4.06366e-06 6.9047e-07 0)
(-4.28637e-06 7.34006e-07 0)
(-4.52085e-06 7.77778e-07 0)
(-4.76861e-06 8.21993e-07 0)
(-5.03102e-06 8.67012e-07 0)
(-5.30926e-06 9.13215e-07 0)
(-5.60426e-06 9.61015e-07 0)
(-5.91691e-06 1.01084e-06 0)
(-6.24793e-06 1.06312e-06 0)
(-6.59797e-06 1.11826e-06 0)
(-6.96763e-06 1.17664e-06 0)
(-7.35744e-06 1.23841e-06 0)
(-7.76797e-06 1.30353e-06 0)
(-8.19994e-06 1.37175e-06 0)
(-8.65433e-06 1.44258e-06 0)
(-9.13247e-06 1.51547e-06 0)
(-9.63594e-06 1.58985e-06 0)
(-1.01665e-05 1.66522e-06 0)
(-1.07262e-05 1.74146e-06 0)
(-1.13168e-05 1.8189e-06 0)
(-1.19399e-05 1.8982e-06 0)
(-1.25967e-05 1.98013e-06 0)
(-1.3288e-05 2.06536e-06 0)
(-1.4014e-05 2.15411e-06 0)
(-1.47752e-05 2.24606e-06 0)
(-1.55719e-05 2.34042e-06 0)
(-1.64047e-05 2.43596e-06 0)
(-1.72743e-05 2.53126e-06 0)
(-1.81815e-05 2.62508e-06 0)
(-1.91272e-05 2.71661e-06 0)
(-2.0112e-05 2.80566e-06 0)
(-2.11361e-05 2.89254e-06 0)
(-2.2199e-05 2.97798e-06 0)
(-2.32998e-05 3.06285e-06 0)
(-2.44369e-05 3.14766e-06 0)
(-2.56088e-05 3.23238e-06 0)
(-2.68146e-05 3.31642e-06 0)
(-2.80534e-05 3.39864e-06 0)
(-2.9325e-05 3.47749e-06 0)
(-3.06283e-05 3.55107e-06 0)
(-3.19617e-05 3.617e-06 0)
(-3.33224e-05 3.67215e-06 0)
(-3.47065e-05 3.71252e-06 0)
(-3.61091e-05 3.73323e-06 0)
(-3.75243e-05 3.72866e-06 0)
(-3.89401e-05 3.69243e-06 0)
(-4.03633e-05 3.61631e-06 0)
(-4.14891e-05 3.48728e-06 0)
(-4.453e-05 3.32253e-06 0)
(-4.0928e-05 2.88217e-06 0)
(-5.03792e-05 1.94722e-06 0)
(7.94916e-08 -4.34886e-07 0)
(1.31178e-07 8.02851e-08 0)
(5.64582e-08 1.35814e-07 0)
(3.9979e-08 1.35741e-07 0)
(-1.16161e-08 1.3517e-07 0)
(-4.84178e-08 1.34296e-07 0)
(-9.08048e-08 1.34903e-07 0)
(-1.32186e-07 1.34877e-07 0)
(-1.74416e-07 1.35032e-07 0)
(-2.17742e-07 1.34845e-07 0)
(-2.6161e-07 1.35116e-07 0)
(-3.05129e-07 1.36191e-07 0)
(-3.48548e-07 1.37784e-07 0)
(-3.91465e-07 1.39952e-07 0)
(-4.3448e-07 1.42827e-07 0)
(-4.78378e-07 1.45201e-07 0)
(-5.23578e-07 1.48087e-07 0)
(-5.70664e-07 1.51134e-07 0)
(-6.18977e-07 1.54501e-07 0)
(-6.68767e-07 1.59017e-07 0)
(-7.19915e-07 1.64066e-07 0)
(-7.71457e-07 1.69843e-07 0)
(-8.24716e-07 1.76389e-07 0)
(-8.80255e-07 1.83098e-07 0)
(-9.37501e-07 1.90474e-07 0)
(-9.9799e-07 1.98698e-07 0)
(-1.06295e-06 2.07207e-07 0)
(-1.13147e-06 2.16112e-07 0)
(-1.20361e-06 2.2614e-07 0)
(-1.2805e-06 2.36989e-07 0)
(-1.36153e-06 2.48446e-07 0)
(-1.4456e-06 2.61102e-07 0)
(-1.53399e-06 2.76005e-07 0)
(-1.62865e-06 2.93627e-07 0)
(-1.72878e-06 3.119e-07 0)
(-1.83316e-06 3.30006e-07 0)
(-1.94174e-06 3.48398e-07 0)
(-2.05551e-06 3.68504e-07 0)
(-2.17753e-06 3.92147e-07 0)
(-2.30912e-06 4.19017e-07 0)
(-2.44791e-06 4.47434e-07 0)
(-2.59208e-06 4.76863e-07 0)
(-2.74262e-06 5.07795e-07 0)
(-2.90116e-06 5.40789e-07 0)
(-3.0686e-06 5.76713e-07 0)
(-3.24536e-06 6.15935e-07 0)
(-3.43108e-06 6.58449e-07 0)
(-3.6253e-06 7.03521e-07 0)
(-3.82815e-06 7.50515e-07 0)
(-4.04022e-06 7.98795e-07 0)
(-4.26261e-06 8.48009e-07 0)
(-4.49679e-06 8.98074e-07 0)
(-4.74413e-06 9.49128e-07 0)
(-5.00595e-06 1.00153e-06 0)
(-5.2834e-06 1.0556e-06 0)
(-5.57739e-06 1.11169e-06 0)
(-5.88875e-06 1.17026e-06 0)
(-6.21825e-06 1.23167e-06 0)
(-6.56662e-06 1.29634e-06 0)
(-6.93446e-06 1.36463e-06 0)
(-7.3224e-06 1.43672e-06 0)
(-7.73114e-06 1.51261e-06 0)
(-8.16153e-06 1.59209e-06 0)
(-8.61463e-06 1.67476e-06 0)
(-9.09172e-06 1.76013e-06 0)
(-9.59431e-06 1.84768e-06 0)
(-1.01242e-05 1.93699e-06 0)
(-1.06831e-05 2.02793e-06 0)
(-1.12728e-05 2.12087e-06 0)
(-1.18947e-05 2.21638e-06 0)
(-1.25499e-05 2.31514e-06 0)
(-1.32393e-05 2.41769e-06 0)
(-1.39636e-05 2.52415e-06 0)
(-1.47232e-05 2.63412e-06 0)
(-1.5519e-05 2.74671e-06 0)
(-1.63514e-05 2.86066e-06 0)
(-1.72213e-05 2.97456e-06 0)
(-1.81293e-05 3.08721e-06 0)
(-1.90761e-05 3.19784e-06 0)
(-2.0062e-05 3.30622e-06 0)
(-2.10871e-05 3.41257e-06 0)
(-2.21506e-05 3.51744e-06 0)
(-2.32516e-05 3.62139e-06 0)
(-2.43887e-05 3.72463e-06 0)
(-2.5561e-05 3.82696e-06 0)
(-2.67674e-05 3.92768e-06 0)
(-2.80077e-05 4.02569e-06 0)
(-2.92815e-05 4.1196e-06 0)
(-3.05883e-05 4.20759e-06 0)
(-3.19267e-05 4.28733e-06 0)
(-3.32942e-05 4.35567e-06 0)
(-3.46873e-05 4.4085e-06 0)
(-3.61017e-05 4.44057e-06 0)
(-3.7532e-05 4.44517e-06 0)
(-3.89672e-05 4.41321e-06 0)
(-4.04159e-05 4.33299e-06 0)
(-4.15694e-05 4.1884e-06 0)
(-4.46753e-05 3.97581e-06 0)
(-4.10989e-05 3.51786e-06 0)
(-5.06096e-05 2.32526e-06 0)
(7.60917e-08 -4.90864e-07 0)
(1.27746e-07 8.94906e-08 0)
(5.54094e-08 1.51774e-07 0)
(3.93008e-08 1.54196e-07 0)
(-1.18243e-08 1.54757e-07 0)
(-4.83938e-08 1.54706e-07 0)
(-9.06025e-08 1.55557e-07 0)
(-1.32097e-07 1.55756e-07 0)
(-1.7438e-07 1.56081e-07 0)
(-2.17666e-07 1.5593e-07 0)
(-2.61203e-07 1.56467e-07 0)
(-3.0439e-07 1.57637e-07 0)
(-3.47525e-07 1.59336e-07 0)
(-3.90136e-07 1.61743e-07 0)
(-4.33092e-07 1.64826e-07 0)
(-4.76935e-07 1.67473e-07 0)
(-5.21942e-07 1.70913e-07 0)
(-5.68892e-07 1.74487e-07 0)
(-6.16793e-07 1.78431e-07 0)
(-6.66192e-07 1.83763e-07 0)
(-7.17052e-07 1.89558e-07 0)
(-7.68194e-07 1.96255e-07 0)
(-8.21177e-07 2.0389e-07 0)
(-8.76347e-07 2.1175e-07 0)
(-9.33078e-07 2.20441e-07 0)
(-9.93294e-07 2.3018e-07 0)
(-1.05806e-06 2.40363e-07 0)
(-1.12618e-06 2.51156e-07 0)
(-1.19783e-06 2.63399e-07 0)
(-1.27442e-06 2.76594e-07 0)
(-1.3551e-06 2.9002e-07 0)
(-1.43832e-06 3.04291e-07 0)
(-1.52534e-06 3.20791e-07 0)
(-1.61895e-06 3.40829e-07 0)
(-1.71886e-06 3.6235e-07 0)
(-1.82316e-06 3.83834e-07 0)
(-1.93128e-06 4.05638e-07 0)
(-2.04386e-06 4.28948e-07 0)
(-2.16418e-06 4.5532e-07 0)
(-2.29454e-06 4.85093e-07 0)
(-2.43263e-06 5.16955e-07 0)
(-2.57609e-06 5.50094e-07 0)
(-2.72574e-06 5.85193e-07 0)
(-2.883e-06 6.22476e-07 0)
(-3.04884e-06 6.6274e-07 0)
(-3.22392e-06 7.06423e-07 0)
(-3.40813e-06 7.5331e-07 0)
(-3.60111e-06 8.02924e-07 0)
(-3.803e-06 8.54771e-07 0)
(-4.01437e-06 9.08285e-07 0)
(-4.23622e-06 9.633e-07 0)
(-4.4698e-06 1.01972e-06 0)
(-4.71643e-06 1.07765e-06 0)
(-4.97737e-06 1.13745e-06 0)
(-5.25378e-06 1.19938e-06 0)
(-5.54655e-06 1.26377e-06 0)
(-5.8565e-06 1.33106e-06 0)
(-6.18437e-06 1.40163e-06 0)
(-6.5309e-06 1.47587e-06 0)
(-6.89677e-06 1.55412e-06 0)
(-7.28268e-06 1.63659e-06 0)
(-7.68945e-06 1.72332e-06 0)
(-8.11803e-06 1.81417e-06 0)
(-8.56953e-06 1.90877e-06 0)
(-9.04524e-06 2.00669e-06 0)
(-9.54665e-06 2.10751e-06 0)
(-1.00754e-05 2.21089e-06 0)
(-1.06332e-05 2.31673e-06 0)
(-1.12216e-05 2.42533e-06 0)
(-1.18419e-05 2.53722e-06 0)
(-1.24953e-05 2.65295e-06 0)
(-1.31827e-05 2.77293e-06 0)
(-1.3905e-05 2.89714e-06 0)
(-1.4663e-05 3.02512e-06 0)
(-1.54577e-05 3.15594e-06 0)
(-1.62897e-05 3.28833e-06 0)
(-1.71599e-05 3.42096e-06 0)
(-1.80686e-05 3.55271e-06 0)
(-1.90164e-05 3.68285e-06 0)
(-2.00033e-05 3.81106e-06 0)
(-2.10292e-05 3.93738e-06 0)
(-2.20935e-05 4.06202e-06 0)
(-2.3195e-05 4.18515e-06 0)
(-2.43328e-05 4.30668e-06 0)
(-2.55059e-05 4.42624e-06 0)
(-2.67137e-05 4.54315e-06 0)
(-2.79558e-05 4.65657e-06 0)
(-2.92323e-05 4.76541e-06 0)
(-3.05427e-05 4.86815e-06 0)
(-3.1886e-05 4.96272e-06 0)
(-3.32602e-05 5.04608e-06 0)
(-3.46625e-05 5.11391e-06 0)
(-3.60893e-05 5.1601e-06 0)
(-3.75366e-05 5.17615e-06 0)
(-3.89948e-05 5.15043e-06 0)
(-4.04743e-05 5.06802e-06 0)
(-4.16654e-05 4.90975e-06 0)
(-4.48368e-05 4.65996e-06 0)
(-4.13013e-05 4.17302e-06 0)
(-5.09077e-05 2.73294e-06 0)
(7.52216e-08 -5.46312e-07 0)
(1.27688e-07 9.82676e-08 0)
(5.54221e-08 1.67729e-07 0)
(3.9635e-08 1.72789e-07 0)
(-1.13813e-08 1.74202e-07 0)
(-4.79937e-08 1.75224e-07 0)
(-9.0266e-08 1.76266e-07 0)
(-1.31916e-07 1.76643e-07 0)
(-1.743e-07 1.77014e-07 0)
(-2.1751e-07 1.76892e-07 0)
(-2.60717e-07 1.77611e-07 0)
(-3.03623e-07 1.78851e-07 0)
(-3.4642e-07 1.80671e-07 0)
(-3.88716e-07 1.83297e-07 0)
(-4.31631e-07 1.86481e-07 0)
(-4.75289e-07 1.89373e-07 0)
(-5.20028e-07 1.93358e-07 0)
(-5.66871e-07 1.97336e-07 0)
(-6.14238e-07 2.0196e-07 0)
(-6.63117e-07 2.0828e-07 0)
(-7.13625e-07 2.14941e-07 0)
(-7.64185e-07 2.22849e-07 0)
(-8.1688e-07 2.31978e-07 0)
(-8.71915e-07 2.41007e-07 0)
(-9.28166e-07 2.5068e-07 0)
(-9.8796e-07 2.6166e-07 0)
(-1.0524e-06 2.73234e-07 0)
(-1.1199e-06 2.85656e-07 0)
(-1.19088e-06 2.99901e-07 0)
(-1.26717e-06 3.15562e-07 0)
(-1.34766e-06 3.31333e-07 0)
(-1.43017e-06 3.47632e-07 0)
(-1.51569e-06 3.65741e-07 0)
(-1.60784e-06 3.87948e-07 0)
(-1.7073e-06 4.12673e-07 0)
(-1.81151e-06 4.37418e-07 0)
(-1.91918e-06 4.62563e-07 0)
(-2.03077e-06 4.89044e-07 0)
(-2.14952e-06 5.18116e-07 0)
(-2.27844e-06 5.50849e-07 0)
(-2.4156e-06 5.86195e-07 0)
(-2.55831e-06 6.23157e-07 0)
(-2.70695e-06 6.62374e-07 0)
(-2.86285e-06 7.03904e-07 0)
(-3.02715e-06 7.4852e-07 0)
(-3.20054e-06 7.96599e-07 0)
(-3.3832e-06 8.47944e-07 0)
(-3.57497e-06 9.02215e-07 0)
(-3.77582e-06 9.59005e-07 0)
(-3.98625e-06 1.01788e-06 0)
(-4.2072e-06 1.07874e-06 0)
(-4.43979e-06 1.14153e-06 0)
(-4.68535e-06 1.20634e-06 0)
(-4.94513e-06 1.27352e-06 0)
(-5.22021e-06 1.3433e-06 0)
(-5.51152e-06 1.41598e-06 0)
(-5.81986e-06 1.49198e-06 0)
(-6.14593e-06 1.57168e-06 0)
(-6.49046e-06 1.65546e-06 0)
(-6.85418e-06 1.74369e-06 0)
(-7.23788e-06 1.83656e-06 0)
(-7.64246e-06 1.93417e-06 0)
(-8.06892e-06 2.03642e-06 0)
(-8.51849e-06 2.14301e-06 0)
(-8.99255e-06 2.25354e-06 0)
(-9.4925e-06 2.36768e-06 0)
(-1.00198e-05 2.48517e-06 0)
(-1.0576e-05 2.60597e-06 0)
(-1.11625e-05 2.73033e-06 0)
(-1.17808e-05 2.8587e-06 0)
(-1.2432e-05 2.99151e-06 0)
(-1.31172e-05 3.12899e-06 0)
(-1.38374e-05 3.27104e-06 0)
(-1.45938e-05 3.4171e-06 0)
(-1.53873e-05 3.56622e-06 0)
(-1.62189e-05 3.71718e-06 0)
(-1.70891e-05 3.86873e-06 0)
(-1.79983e-05 4.01983e-06 0)
(-1.89468e-05 4.16976e-06 0)
(-1.99346e-05 4.31812e-06 0)
(-2.09613e-05 4.46465e-06 0)
(-2.20265e-05 4.60917e-06 0)
(-2.31291e-05 4.75148e-06 0)
(-2.42681e-05 4.8912e-06 0)
(-2.54427e-05 5.02788e-06 0)
(-2.66522e-05 5.16093e-06 0)
(-2.78966e-05 5.2898e-06 0)
(-2.91757e-05 5.41384e-06 0)
(-3.04896e-05 5.53203e-06 0)
(-3.18376e-05 5.64269e-06 0)
(-3.32183e-05 5.74278e-06 0)
(-3.46299e-05 5.82749e-06 0)
(-3.60701e-05 5.88952e-06 0)
(-3.75364e-05 5.9186e-06 0)
(-3.9021e-05 5.90116e-06 0)
(-4.05359e-05 5.81988e-06 0)
(-4.17722e-05 5.65296e-06 0)
(-4.50117e-05 5.37745e-06 0)
(-4.15316e-05 4.85987e-06 0)
(-5.12725e-05 3.17607e-06 0)
(7.6952e-08 -6.00914e-07 0)
(1.30756e-07 1.08203e-07 0)
(5.62913e-08 1.84866e-07 0)
(4.05925e-08 1.9229e-07 0)
(-1.06328e-08 1.94176e-07 0)
(-4.73365e-08 1.96024e-07 0)
(-8.98689e-08 1.97284e-07 0)
(-1.31717e-07 1.97928e-07 0)
(-1.74246e-07 1.9836e-07 0)
(-2.17338e-07 1.98544e-07 0)
(-2.60204e-07 1.99508e-07 0)
(-3.02851e-07 2.0095e-07 0)
(-3.45274e-07 2.03002e-07 0)
(-3.87227e-07 2.05869e-07 0)
(-4.30099e-07 2.09177e-07 0)
(-4.73481e-07 2.12247e-07 0)
(-5.17881e-07 2.16704e-07 0)
(-5.64566e-07 2.20838e-07 0)
(-6.11283e-07 2.25908e-07 0)
(-6.59596e-07 2.32878e-07 0)
(-7.09716e-07 2.4005e-07 0)
(-7.59613e-07 2.48802e-07 0)
(-8.1197e-07 2.59202e-07 0)
(-8.66904e-07 2.69418e-07 0)
(-9.22642e-07 2.80271e-07 0)
(-9.81886e-07 2.92836e-07 0)
(-1.04599e-06 3.05945e-07 0)
(-1.11276e-06 3.19859e-07 0)
(-1.18283e-06 3.35898e-07 0)
(-1.25866e-06 3.54049e-07 0)
(-1.339e-06 3.72357e-07 0)
(-1.42105e-06 3.91059e-07 0)
(-1.50514e-06 4.10857e-07 0)
(-1.59546e-06 4.34903e-07 0)
(-1.6941e-06 4.62523e-07 0)
(-1.7982e-06 4.90525e-07 0)
(-1.90546e-06 5.18911e-07 0)
(-2.01606e-06 5.48584e-07 0)
(-2.13327e-06 5.80411e-07 0)
(-2.26053e-06 6.1608e-07 0)
(-2.3963e-06 6.54866e-07 0)
(-2.53792e-06 6.95685e-07 0)
(-2.68548e-06 7.389e-07 0)
(-2.84011e-06 7.8462e-07 0)
(-3.00285e-06 8.33492e-07 0)
(-3.17451e-06 8.85858e-07 0)
(-3.35556e-06 9.41693e-07 0)
(-3.54593e-06 1.00064e-06 0)
(-3.74555e-06 1.06237e-06 0)
(-3.95488e-06 1.12661e-06 0)
(-4.17475e-06 1.19326e-06 0)
(-4.40621e-06 1.26231e-06 0)
(-4.65053e-06 1.33392e-06 0)
(-4.90895e-06 1.40834e-06 0)
(-5.18252e-06 1.48582e-06 0)
(-5.47216e-06 1.56665e-06 0)
(-5.77865e-06 1.65122e-06 0)
(-6.10268e-06 1.73992e-06 0)
(-6.44498e-06 1.83315e-06 0)
(-6.80632e-06 1.93127e-06 0)
(-7.18758e-06 2.0345e-06 0)
(-7.58968e-06 2.14293e-06 0)
(-8.01374e-06 2.25653e-06 0)
(-8.46106e-06 2.37507e-06 0)
(-8.93306e-06 2.49821e-06 0)
(-9.43111e-06 2.62558e-06 0)
(-9.95657e-06 2.75707e-06 0)
(-1.05108e-05 2.89273e-06 0)
(-1.10953e-05 3.03279e-06 0)
(-1.17114e-05 3.1776e-06 0)
(-1.23601e-05 3.32747e-06 0)
(-1.30429e-05 3.4825e-06 0)
(-1.37609e-05 3.64246e-06 0)
(-1.45154e-05 3.80672e-06 0)
(-1.53077e-05 3.97427e-06 0)
(-1.61385e-05 4.14395e-06 0)
(-1.70086e-05 4.31459e-06 0)
(-1.79181e-05 4.48524e-06 0)
(-1.88672e-05 4.65519e-06 0)
(-1.98558e-05 4.82385e-06 0)
(-2.08835e-05 4.99065e-06 0)
(-2.19499e-05 5.15507e-06 0)
(-2.30539e-05 5.31648e-06 0)
(-2.41946e-05 5.47431e-06 0)
(-2.53711e-05 5.62805e-06 0)
(-2.65828e-05 5.77727e-06 0)
(-2.78295e-05 5.92177e-06 0)
(-2.91113e-05 6.06145e-06 0)
(-3.04283e-05 6.19597e-06 0)
(-3.17806e-05 6.32406e-06 0)
(-3.31677e-05 6.44259e-06 0)
(-3.45889e-05 6.54597e-06 0)
(-3.60435e-05 6.62571e-06 0)
(-3.75305e-05 6.67029e-06 0)
(-3.9044e-05 6.66466e-06 0)
(-4.05982e-05 6.58955e-06 0)
(-4.18853e-05 6.42096e-06 0)
(-4.51963e-05 6.13172e-06 0)
(-4.17844e-05 5.59031e-06 0)
(-5.16932e-05 3.66388e-06 0)
(8.02443e-08 -6.56447e-07 0)
(1.35725e-07 1.18421e-07 0)
(5.79252e-08 2.0256e-07 0)
(4.22174e-08 2.11994e-07 0)
(-9.53991e-09 2.14213e-07 0)
(-4.64209e-08 2.16314e-07 0)
(-8.92929e-08 2.17736e-07 0)
(-1.31377e-07 2.18387e-07 0)
(-1.74017e-07 2.18412e-07 0)
(-2.16948e-07 2.18611e-07 0)
(-2.59507e-07 2.19372e-07 0)
(-3.019e-07 2.20764e-07 0)
(-3.44001e-07 2.2281e-07 0)