/*--------------------------------*- C++ -*----------------------------------*\
| =========                 |                                                 |
| \\      /  F ield         | OpenFOAM: The Open Source CFD Toolbox           |
|  \\    /   O peration     | Version:  2.4.0                                 |
|   \\  /    A nd           | Web:      www.OpenFOAM.org                      |
|    \\/     M anipulation  |                                                 |
\*---------------------------------------------------------------------------*/
FoamFile
{
    version     2.0;
    format      ascii;
    class       volScalarField;
    location    "0.067";
    object      p;
}
// * * * * * * * * * * * * * * * * * * * * * * * * * * * * * * * * * * * * * //

dimensions      [1 -1 -2 0 0 0 0];

internalField   nonuniform List<scalar> 
14400
(
97.6683
99.7687
100.911
103.163
105.705
107.489
108.207
108.035
107.296
106.348
105.486
104.784
104.19
103.731
103.526
103.677
104.199
105.022
106.029
107.096
108.123
109.044
109.826
110.46
110.953
111.319
111.578
111.748
111.847
111.891
94.4072
96.5083
97.6476
99.9018
102.45
104.236
104.951
104.773
104.027
103.071
102.203
101.5
100.902
100.438
100.228
100.378
100.903
101.735
102.754
103.835
104.875
105.808
106.6
107.24
107.738
108.108
108.369
108.54
108.64
108.684
91.1429
93.244
94.375
96.6362
99.2002
100.994
101.706
101.519
100.756
99.7808
98.902
98.1949
97.5911
97.1144
96.893
97.0358
97.5626
98.403
99.4362
100.534
101.591
102.538
103.34
103.988
104.491
104.864
105.127
105.3
105.4
105.445
87.8756
89.9757
91.0932
93.3659
95.9548
97.7619
98.4727
98.2713
97.4836
96.478
95.5809
94.8687
94.2552
93.7598
93.5198
93.6521
94.1806
95.0334
96.0856
97.2043
98.2805
99.242
100.053
100.707
101.212
101.585
101.848
102.019
102.119
102.163
84.6051
86.7035
87.8025
90.091
92.7145
94.5411
95.2506
95.0313
94.2093
93.1621
92.2398
91.5214
90.8946
90.3729
90.1065
90.2229
90.7521
91.62
92.6955
93.8397
94.9385
95.9169
96.7388
97.3974
97.9034
98.2759
98.5366
98.7067
98.8051
98.8482
81.3317
83.4276
84.5023
86.8112
89.4792
91.3316
92.0402
91.7991
90.9336
89.8325
88.8779
88.1527
87.5092
86.9526
86.6506
86.7442
87.272
88.1574
89.2599
90.4339
91.5593
92.5575
93.3914
94.0559
94.5634
94.9349
95.1938
95.3619
95.4589
95.5011
78.0551
80.1479
81.1926
83.5265
86.2491
88.1335
88.8418
88.5749
87.6566
86.4886
85.4945
84.7631
84.099
83.4975
83.1495
83.2117
83.7347
84.6396
85.7729
86.9814
88.1381
89.1594
90.0074
90.6786
91.188
91.5587
91.8157
91.982
92.0773
92.1184
74.7754
76.8648
77.8732
80.2367
83.0244
84.9472
85.6556
85.3593
84.3784
83.1297
82.0885
81.3527
80.6639
80.0062
79.6001
79.62
80.133
81.0596
82.2266
83.475
84.6688
85.7176
86.5822
87.2614
87.773
88.1427
88.3975
88.5615
88.6548
88.6946
71.4926
73.5783
74.5437
76.9417
79.8051
81.773
82.4818
82.1525
81.0992
79.7544
78.6586
77.9218
77.2041
76.4767
75.9986
75.9622
76.4578
77.4078
78.6106
79.905
81.1435
82.2256
83.1102
83.7987
84.3129
84.6811
84.9327
85.0938
85.1848
85.2235
68.2067
70.2888
71.2037
73.6414
76.5914
78.6113
79.3209
78.955
77.8192
76.3613
75.2031
74.4713
73.7199
72.9068
72.3407
72.2302
72.6976
73.6728
74.9108
76.2585
77.5521
78.6755
79.5844
80.2846
80.8013
81.1674
81.4146
81.5713
81.6605
81.6981
64.9175
66.9965
67.853
70.3357
73.3834
75.4625
76.1731
75.7675
74.5387
72.9486
71.7202
71.0025
70.2119
69.2939
68.6208
68.4137
68.8377
69.8406
71.1075
72.5179
73.8815
75.0572
75.9967
76.7115
77.2311
77.5941
77.8363
77.988
78.0714
78.1044
61.6252
63.7017
64.4911
67.0246
70.1812
72.3271
73.0386
72.5906
71.2583
69.5168
68.2075
67.5168
66.6806
65.6347
64.8318
64.4981
64.8605
65.893
67.1722
68.659
70.1152
71.3586
72.3374
73.0714
73.5943
73.9531
74.1871
74.3288
74.4076
74.4402
58.3295
60.4049
61.1178
63.7083
66.9851
69.2056
69.9179
69.4251
67.9785
66.0627
64.6624
64.0165
63.1271
61.9252
60.9648
60.463
60.7441
61.8061
63.0627
64.6485
66.2323
67.564
68.5952
69.3552
69.8872
70.2374
70.4593
70.5908
70.658
70.6843
55.0305
57.1064
57.7327
60.3871
63.7953
66.0986
66.8113
66.2717
64.7
62.5836
61.0817
60.5048
59.5528
58.1613
57.0118
56.2826
56.4627
57.5425
58.7168
60.4393
62.2082
63.6549
64.7606
65.5574
66.0957
66.4369
66.642
66.7557
66.8091
66.8264
51.7279
53.8067
54.3355
57.0615
60.6121
63.0066
63.7189
63.1312
61.4238
59.0761
57.4611
56.9849
55.9586
54.3373
52.9705
51.9344
51.9899
53.024
54.0427
55.964
58.0135
59.609
60.8181
61.6765
62.2256
62.5443
62.7182
62.8027
62.8463
62.8629
48.4216
50.5064
50.9262
53.7326
57.4358
59.9304
60.6411
60.0046
58.1509
55.5367
53.7956
53.4606
52.3451
50.4455
48.8409
47.4577
47.3174
48.0691
48.9048
51.1451
53.6235
55.3991
56.7758
57.6996
58.2537
58.5555
58.6897
58.7349
58.7372
58.7319
45.1114
47.2059
47.505
50.4019
54.2668
56.8707
57.578
56.8928
54.8829
51.9609
50.0777
49.9357
48.7112
46.4779
44.6088
42.9155
42.4801
42.3162
43.1318
45.9073
49.0123
51.0411
52.6291
53.6367
54.2091
54.4596
54.5339
54.5248
54.4805
54.4445
41.797
43.9058
44.0722
47.0716
51.1055
53.8281
54.5295
53.7965
51.6215
48.3431
46.2972
46.4135
45.051
42.4256
40.301
38.2675
37.2624
36.4273
36.827
40.2128
44.0298
46.3841
48.3527
49.506
50.0649
50.2229
50.2032
50.1171
50.0403
49.999
38.4781
40.6068
40.629
43.7448
47.9524
50.8034
51.4956
50.7167
48.3689
44.6764
42.4396
42.8968
41.3515
38.259
35.8229
33.45
31.8431
30.3875
28.9748
33.3545
38.4633
41.5538
44.0133
45.2882
45.8268
45.8954
45.7355
45.5159
45.3785
45.3188
35.1542
37.3094
37.1771
40.4256
44.8081
47.7975
48.4759
47.6538
45.1279
40.9518
38.4847
39.3873
37.5899
33.9466
31.2777
28.9259
24.8389
20.8521
17.398
23.2204
31.2611
36.0581
39.5306
41.101
41.5781
41.5095
41.1284
40.6904
40.4129
40.2927
31.8248
34.0143
33.7191
37.1193
41.6732
44.8113
45.4697
44.608
41.9017
37.1568
34.4046
35.8845
33.7401
29.3749
26.7029
24.3755
18.4136
9.81234
5.22619
12.2932
22.7895
30.5154
34.9729
36.7471
37.1408
36.8848
36.2717
35.5736
35.0848
34.8722
28.4893
30.7219
30.2594
33.8337
38.5483
41.846
42.4762
41.5795
38.6945
33.2738
30.1656
32.3847
29.8185
24.3712
22.1377
18.6448
12.7044
1.80571
-4.49274
4.56627
14.7903
25.0591
30.0018
31.8246
32.1503
31.747
30.9722
30.0762
29.3818
29.0271
25.1469
27.4327
26.8043
30.5796
35.434
38.9032
39.4942
38.5678
35.5112
29.2831
25.7384
28.8721
25.7677
19.3755
17.7118
12.6112
7.59721
-6.7309
-15.9969
-0.96124
11.4806
20.6975
24.8462
26.21
26.5595
26.0469
25.1714
24.2151
23.356
22.8061
21.7968
24.1467
23.3631
27.3714
32.3305
35.9848
36.522
35.5719
32.3581
25.179
21.152
25.3201
21.4663
14.2467
11.845
7.05571
4.95125
-0.409338
0.205894
-6.47654
7.39071
17.989
20.0246
20.9043
21.0077
20.5381
19.5981
18.3639
17.0316
16.099
18.4378
20.864
19.9489
24.2273
29.2381
33.0932
33.5577
32.5903
29.2421
20.9809
16.6386
21.6635
16.9219
8.53693
6.87465
2.71549
-0.170334
0.0500324
0.129326
0.111687
1.52849
17.3882
15.829
15.9059
15.5148
15.5564
14.5985
12.6148
10.1381
8.29743
15.0685
17.5842
16.5795
21.1692
26.1563
30.2316
30.5985
29.6201
26.1659
16.5384
12.477
17.9907
12.3092
2.76483
1.93259
-0.278277
-0.0690172
0.0169567
0.0592366
0.0220874
-0.0889831
1.67994
10.2417
10.9225
9.80301
9.78332
9.54107
6.80421
2.10294
-2.11383
11.6875
14.3064
13.2786
18.2224
23.0838
27.4035
27.6408
26.6566
23.1232
11.4821
7.89195
15.0006
8.01659
-1.17678
-0.0734013
-0.207362
-0.115734
-0.0354762
-0.0216592
-0.0682384
-0.124593
-0.108605
-0.217744
-0.0073662
-0.0564151
0.0920924
0.153146
0.087995
0.0137749
-0.0196244
8.29297
11.0294
10.0768
15.4164
20.0188
24.613
24.6806
23.6904
20.1248
5.59808
2.82914
13.1992
2.79444
-0.00789525
-0.0920086
-0.17905
-0.152514
-0.0842667
-0.0821502
-0.134338
-0.142142
-0.124284
-0.1196
-0.0781982
-0.0642436
-0.0467888
-0.0216947
-0.00178106
0.0053902
0.0108003
4.8848
7.75141
7.01265
12.7868
16.9583
21.8639
21.7128
20.7026
17.1919
-0.954496
-1.51067
10.3234
-0.0492167
-0.0347819
-0.097617
-0.167477
-0.169473
-0.113007
-0.118128
-0.168631
-0.159103
-0.12899
-0.113479
-0.0859945
-0.0636231
-0.0435129
-0.0251681
-0.0119554
-0.00340337
0.00180896
1.48915
4.46969
4.13255
10.3786
13.8985
19.1601
18.7298
17.6641
14.3472
-8.11757
-0.709346
-0.249223
-0.0245761
-0.0480147
-0.105161
-0.164119
-0.173454
-0.126955
-0.136456
-0.177946
-0.164533
-0.130362
-0.113093
-0.0937158
-0.0734078
-0.0525302
-0.0343481
-0.0213741
-0.0129105
-0.00820715
111.893
111.856
111.768
111.617
111.384
111.052
110.602
110.017
109.287
108.414
107.42
106.356
105.309
104.397
103.75
103.47
103.586
104.031
104.667
105.396
106.247
107.245
108.223
108.863
108.863
108.007
106.269
103.979
101.775
100.155
108.685
108.648
108.56
108.408
108.173
107.838
107.384
106.793
106.055
105.172
104.164
103.086
102.025
101.103
100.451
100.17
100.29
100.741
101.381
102.112
102.966
103.971
104.957
105.604
105.608
104.753
103.014
100.72
98.5141
96.8926
105.446
105.408
105.32
105.166
104.93
104.592
104.133
103.536
102.788
101.892
100.869
99.7731
98.6969
97.7631
97.1061
96.8293
96.9607
97.4252
98.0754
98.8098
99.6686
100.69
101.693
102.353
102.362
101.506
99.7603
97.4579
95.2484
93.6235
102.165
102.127
102.039
101.885
101.649
101.311
100.85
100.249
99.4936
98.5843
97.5436
96.4274
95.3307
94.3811
93.718
93.4471
93.596
94.0823
94.7479
95.4866
96.3544
97.4001
98.4322
99.1104
99.1266
98.2665
96.5096
94.1934
91.9779
90.3475
98.8493
98.8117
98.7241
98.5717
98.3367
97.9993
97.538
96.9329
96.169
95.2452
94.1838
93.0425
91.9207
90.9515
90.2817
90.0205
90.1945
90.7118
91.3991
92.143
93.0226
94.1026
95.1736
95.8769
95.9011
95.0349
93.2615
90.9261
88.7025
87.0647
95.5019
95.4643
95.3774
95.226
94.9923
94.6555
94.1932
93.5835
92.8097
91.8689
90.783
89.6122
88.461
87.4689
86.793
86.5459
86.7544
87.3133
88.0289
88.7785
89.6726
90.7969
91.9181
92.6526
92.686
91.811
90.016
87.6557
85.4222
83.7749
92.1187
92.0814
91.9952
91.8448
91.6122
91.2759
90.812
90.1969
89.4114
88.4507
87.3359
86.1307
84.9457
83.9276
83.2468
83.0195
83.2735
83.8861
84.6379
85.3926
86.3034
87.4826
88.6657
89.4376
89.4815
88.5949
86.7731
84.3822
82.1369
80.4781
88.6943
88.6573
88.5722
88.4231
88.1917
87.856
87.3903
86.7688
85.9696
84.9851
83.8362
82.5903
81.3673
80.3202
79.6369
79.4364
79.7491
80.4296
81.2266
81.9849
82.9139
84.1594
85.4171
86.2324
86.2877
85.3868
83.5328
81.1054
78.8467
77.1742
85.2229
85.1858
85.1015
84.9542
84.725
84.3905
83.9229
83.2939
82.4781
81.4651
80.2748
78.9808
77.7159
76.637
75.9555
75.7905
76.1778
76.9429
77.7954
78.5544
79.5023
80.8269
82.1724
83.0373
83.1049
82.1867
80.2951
77.8252
75.5514
73.863
81.6971
81.6601
81.5763
81.4311
81.2055
80.8731
80.4035
79.7657
78.9298
77.8818
76.6402
75.2885
73.9788
72.8694
72.1931
72.0748
72.5559
73.4249
74.3456
75.1005
76.0668
77.4849
78.9323
79.8527
79.9332
78.9947
77.0599
74.5411
72.251
70.5444
78.1022
78.0675
77.9887
77.8478
77.6259
77.2963
76.8254
76.1765
75.3156
74.2236
72.9171
71.4943
70.1389
68.9991
68.3384
68.2823
68.8794
69.8745
70.8784
71.6222
72.605
74.1321
75.6974
76.6791
76.7731
75.811
73.8274
71.253
68.9456
67.2182
74.4377
74.4028
74.3247
74.1911
73.9776
73.6524
73.1808
72.5172
71.6241
70.4765
69.0848
67.5716
66.1719
65.0121
64.3787
64.4067
65.1438
66.2903
67.3956
68.1185
69.1141
70.7665
72.4684
73.5169
73.6248
72.6357
70.5974
67.9605
65.6349
63.884
70.6807
70.6486
70.5799
70.4567
70.2528
69.9379
69.4635
68.7791
67.8433
66.6241
65.1167
63.4833
62.0415
60.8909
60.3006
60.4433
61.3449
62.6706
63.8996
64.5885
65.5905
67.3885
69.2463
70.3667
70.4887
69.4689
67.37
64.6631
62.3191
60.5417
66.8208
66.7943
66.737
66.6292
66.4421
66.139
65.6632
64.9575
63.9571
62.6435
60.9794
59.1763
57.6883
56.6197
56.088
56.389
57.4784
59.013
60.3929
61.0313
62.0296
63.9973
66.0323
67.2291
67.3651
66.3109
64.1453
61.3605
58.998
57.191
62.8573
62.8313
62.7773
62.6891
62.5348
62.2566
61.7859
61.0421
59.9459
58.5083
56.6331
54.5728
53.0104
52.1843
51.7106
52.2422
53.5386
55.3148
56.8792
57.4467
58.426
60.5915
62.8279
64.1044
64.2544
63.1617
60.923
58.052
55.6716
53.8315
58.7229
58.7092
58.6894
58.644
58.5277
58.2802
57.8116
57.0302
55.8036
54.1916
52.0329
49.5497
47.8252
47.4596
47.1504
48.0047
49.5186
51.573
53.3625
53.8357
54.7728
57.1701
59.6346
60.9934
61.1571
60.0215
57.7034
54.737
52.3399
50.4628
54.4308
54.4356
54.4587
54.4642
54.4089
54.2138
53.7672
52.9264
51.544
49.67
47.1491
43.96
41.9579
42.2033
42.3487
43.6251
45.4121
47.7845
49.8476
50.2008
51.0617
53.7319
56.4544
57.8966
58.0738
56.8906
54.4865
51.4149
49.0029
47.0845
49.9861
49.9965
50.0362
50.099
50.131
50.0367
49.6493
48.7271
47.0831
44.7807
41.9081
37.7868
35.9922
36.7789
37.2421
39.0098
41.1941
43.9473
46.3391
46.5462
47.2814
50.2754
53.2898
54.8143
55.0048
53.769
51.2722
48.0849
45.6606
43.696
45.3035
45.3281
45.4041
45.5696
45.7589
45.7749
45.4368
44.4536
42.4934
39.4829
35.7354
29.9458
29.2587
31.1611
31.9128
34.3007
36.8697
40.0634
42.8395
42.8771
43.4176
46.7994
50.1434
51.7468
51.9507
50.6569
48.0607
44.746
42.3131
40.2966
40.2673
40.3271
40.5077
40.8669
41.2949
41.4908
41.2667
40.162
37.6134
33.0656
26.8338
18.8726
18.2842
23.6659
26.4899
29.6787
32.3661
36.1395
39.3428
39.1985
39.4504
43.3026
47.0187
48.6945
48.9124
47.5545
44.852
41.3973
38.9605
36.8858
34.8288
34.9431
35.2738
35.9038
36.6006
37.0235
36.9319
35.7143
32.6822
25.7902
16.3169
7.14382
5.97023
14.3885
21.0466
25.0791
27.6933
32.1816
35.8227
35.513
35.3516
39.7839
43.9191
45.6571
45.8905
44.4617
41.6462
38.0376
35.6029
33.4625
28.9556
29.1444
29.6637
30.5269
31.4461
32.0463
32.0412
30.904
27.3902
19.4369
8.38627
-0.287825
-4.18855
7.90833
14.5737
20.8185
23.171
28.183
32.2127
31.8111
31.0813
36.243
40.8492
42.6344
42.8859
41.3786
38.4434
34.6656
32.2406
30.0259
22.6665
22.9378
23.6849
24.6952
25.7636
26.5373
26.5908
25.58
22.4038
15.8508
3.59534
-6.70413
-17.4788
2.4201
7.79877
16.0004
18.2889
23.9633
28.382
28.0501
26.5851
32.68
37.8133
39.6258
39.8997
38.3051
35.2438
31.2798
28.8738
26.5748
15.8232
16.2634
17.4441
18.9936
20.3696
21.2529
21.3268
20.6504
18.9705
13.035
-5.14348
-0.648923
0.182039
0.499727
2.80898
10.2859
13.5749
19.3326
24.0933
24.1487
21.8488
29.0971
34.8163
36.6299
36.9332
35.2408
32.0474
27.8785
25.503
23.1079
7.62574
8.3652
10.6797
13.5856
15.7794
16.5126
15.915
17.1651
15.8667
12.1096
0.0192559
0.110057
0.0901403
-0.0289885
-0.0453424
5.08506
9.05075
14.6767
19.0575
20.1256
17.0328
25.4948
31.8625
33.6448
33.9878
32.1851
28.8548
24.4598
22.1288
19.6237
-3.98184
-2.37858
2.65357
8.39275
10.9797
11.4413
9.49288
15.9339
4.38888
0.00899375
-0.0904158
0.0095147
0.0067617
-0.107041
-0.247365
0.217012
2.62945
9.41019
13.0803
16.3781
12.3452
21.8455
28.9546
30.6677
31.0657
29.1373
25.6661
21.0218
18.7518
16.1203
-0.0233899
-0.000585215
0.0454196
0.175744
0.217993
0.293135
-0.221456
0.0116636
-0.286323
-0.182786
-0.140407
-0.102186
-0.1011
-0.166261
-0.22541
-0.185239
-0.0432271
4.57903
5.49969
13.6206
7.10591
18.0483
26.0864
27.6944
28.1693
26.096
22.482
17.562
15.373
12.5957
0.0138461
0.0117581
0.00736384
-0.00914504
-0.0403892
-0.0712681
-0.0973679
-0.124529
-0.182842
-0.203243
-0.198502
-0.183964
-0.179473
-0.216579
-0.229865
-0.182725
0.0207047
0.27841
-1.23931
11.7457
0.225811
14.015
23.2412
24.7195
25.3018
23.0598
19.3031
14.0779
11.9935
9.04744
0.0034232
0.000980284
-0.00578048
-0.0184806
-0.0386297
-0.0645825
-0.0954067
-0.127838
-0.172703
-0.216188
-0.243625
-0.230122
-0.216042
-0.240443
-0.222854
-0.167427
-0.0130681
0.0793597
-0.474975
8.00141
-7.04058
9.92257
20.4128
21.7351
22.4669
20.0268
16.1305
10.567
8.61487
5.47284
-0.00713143
-0.00969254
-0.0164374
-0.0283664
-0.0471401
-0.0724898
-0.100769
-0.131623
-0.169675
-0.220629
-0.262436
-0.251222
-0.227921
-0.242718
-0.21522
-0.156643
-0.0381639
0.0913757
0.0142987
-0.284609
-10.8829
6.17433
17.6018
18.7311
19.6696
16.9952
12.9652
7.02601
5.23834
1.86899
-0.0502617
1.5968
1.80881
8.5054
11.214
16.8332
16.0933
14.922
11.9408
-18.3933
-0.0963509
-0.225413
-0.0181615
-0.0589466
-0.109048
-0.160638
-0.169861
-0.133028
-0.143494
-0.173421
-0.159973
-0.132366
-0.117956
-0.105049
-0.0872506
-0.0664158
-0.0471674
-0.0326383
-0.0231464
-0.0182225
0.0161237
-0.0724275
0.0302233
10.0406
9.63088
15.4846
14.5293
13.2606
10.2643
-2.36793
-0.157384
-0.195767
-0.0168111
-0.0645312
-0.110906
-0.157589
-0.165783
-0.135368
-0.1454
-0.168967
-0.155989
-0.13275
-0.12072
-0.111792
-0.0958009
-0.0755321
-0.0558137
-0.0403251
-0.0301865
-0.0250535
0.536065
0.223867
-0.316398
6.16078
7.91156
14.04
12.8167
11.3981
8.89853
1.63832
-0.20034
-0.0873649
-0.0129092
-0.0709112
-0.112404
-0.153563
-0.161167
-0.137193
-0.146347
-0.164231
-0.151639
-0.132755
-0.1232
-0.118677
-0.104602
-0.0851507
-0.0652775
-0.0491442
-0.0385411
-0.0332545
0.128053
-0.361568
2.61055
2.74127
6.4144
12.4896
10.9367
9.30441
7.49053
-0.774217
-0.239298
-0.0637145
-0.0399412
-0.0765928
-0.113737
-0.148823
-0.156024
-0.13837
-0.146462
-0.160184
-0.147587
-0.132888
-0.125369
-0.126294
-0.113701
-0.0952292
-0.0755639
-0.0591441
-0.0482548
-0.042899
-0.00855354
-0.382941
-0.197061
-0.929671
4.29038
11.0353
9.49198
6.9456
-5.09273
-0.168596
-0.255833
-0.0874254
-0.0627799
-0.0857822
-0.115207
-0.143957
-0.150788
-0.138902
-0.14588
-0.157232
-0.126476
-0.132867
-0.125908
-0.135214
-0.122873
-0.105289
-0.0861754
-0.0699032
-0.0590279
-0.0537335
-0.119807
-0.279857
-0.20483
-0.855899
2.6021
8.98265
7.06396
4.15859
-1.25466
-0.136223
-0.277236
-0.0815626
-0.0790551
-0.0941513
-0.116804
-0.139393
-0.146002
-0.138853
-0.144598
-0.153357
-0.148461
-0.131998
-0.118124
-0.135264
-0.130825
-0.11437
-0.0962194
-0.0805773
-0.0701069
-0.0650492
-0.120291
-0.283405
-0.198798
-0.129625
0.462101
6.97528
3.98679
-3.39322
0.17619
-0.117682
-0.27012
-0.110861
-0.0962047
-0.103327
-0.118501
-0.135577
-0.142133
-0.138365
-0.142702
-0.148357
-0.144927
-0.138402
-0.141776
-0.144118
-0.135975
-0.121483
-0.104739
-0.0901386
-0.0803838
-0.0757109
-0.122616
-0.281487
-0.190225
-0.144867
-0.175749
4.17945
0.426887
-0.293556
0.195991
-0.0968893
-0.268978
-0.148578
-0.113574
-0.113527
-0.121204
-0.134018
-0.139436
-0.137588
-0.140489
-0.143776
-0.141287
-0.138417
-0.141179
-0.14419
-0.138358
-0.125753
-0.110671
-0.0974778
-0.0887019
-0.0845329
-0.122611
-0.265322
-0.21092
-0.150668
-0.142412
-0.078105
-0.182596
-0.248886
0.120332
-0.0835366
-0.275755
-0.154981
-0.132209
-0.118876
-0.129218
-0.134152
-0.137944
-0.136685
-0.137942
-0.1393
-0.137836
-0.13676
-0.139707
-0.142165
-0.137395
-0.126335
-0.11305
-0.101505
-0.0938866
-0.0903193
-0.12739
-0.277815
-0.215516
-0.155894
-0.142833
-0.144294
-0.184892
-0.245295
0.0653711
-0.0791462
-0.2515
-0.193876
-0.150868
-0.120869
-0.129589
-0.135865
-0.137622
-0.135877
-0.135191
-0.134932
-0.133996
-0.133378
-0.136127
-0.137238
-0.132663
-0.122966
-0.111505
-0.101667
-0.0952027
-0.09217
-0.131864
-0.280351
-0.2116
-0.160436
-0.142962
-0.147467
-0.185966
-0.237144
0.0186722
-0.0808957
-0.167806
-0.211327
-0.174035
-0.142254
-0.137842
-0.139182
-0.138584
-0.135469
-0.132285
-0.1305
-0.129423
-0.129414
-0.130099
-0.129739
-0.124945
-0.116418
-0.10676
-0.0985454
-0.0930855
-0.0904779
-0.136271
-0.285935
-0.240535
-0.163642
-0.144897
-0.151362
-0.189652
-0.227068
-0.0193051
-0.0865481
-0.155126
-0.206816
-0.190908
-0.181714
-0.148534
-0.143748
-0.141275
-0.136015
-0.129323
-0.125993
-0.124535
-0.124015
-0.123382
-0.121179
-0.116006
-0.10853
-0.100497
-0.0935745
-0.0889428
-0.086728
-0.141355
-0.257787
-0.239987
-0.166432
-0.1484
-0.15569
-0.189742
-0.216366
-0.0529858
-0.0942461
-0.138754
-0.178653
-0.198356
-0.197366
-0.168391
-0.150396
-0.146469
-0.138471
-0.126709
-0.121702
-0.119986
-0.119036
-0.117324
-0.113783
-0.107918
-0.101207
-0.0948746
-0.0890314
-0.0851333
-0.0831887
-0.146251
-0.251671
-0.238025
-0.169619
-0.153026
-0.16025
-0.189099
-0.205477
-0.0818529
-0.102241
-0.133697
-0.167975
-0.200663
-0.211526
-0.177683
-0.160566
-0.154557
-0.143579
-0.125956
-0.118779
-0.117129
-0.116159
-0.113951
-0.110009
-0.104574
-0.0984953
-0.0924854
-0.0874736
-0.0840656
-0.0823632
-0.151341
-0.232533
-0.247185
-0.17315
-0.158286
-0.164717
-0.188096
-0.195943
-0.103753
-0.110188
-0.132967
-0.168699
-0.226759
-0.216223
-0.188939
-0.173715
-0.158374
-0.0393163
-0.106758
-0.119105
-0.117626
-0.117247
-0.114814
-0.110611
-0.105271
-0.0995913
-0.094425
-0.090382
-0.0876012
-0.0860334
-0.15647
-0.230871
-0.240045
-0.177233
-0.163924
-0.169306
-0.187097
-0.188687
-0.120674
-0.117929
-0.135165
-0.170941
-0.239982
-0.231778
-0.208371
-0.190415
-0.16959
-0.151396
-0.154181
-0.113726
-0.125111
-0.124527
-0.120693
-0.115625
-0.110119
-0.104827
-0.10029
-0.0968235
-0.0944863
-0.0931896
-0.161969
-0.226298
-0.234775
-0.181787
-0.16987
-0.174065
-0.186595
-0.183911
-0.133834
-0.125524
-0.137438
-0.184903
-0.234036
-0.247594
-0.229631
-0.210956
-0.186853
-0.162651
-0.144153
-0.130143
-0.123311
-0.140753
-0.130916
-0.123663
-0.117612
-0.112561
-0.10856
-0.105621
-0.103673
-0.10259
-0.167859
-0.222117
-0.229102
-0.186733
-0.17612
-0.179037
-0.186947
-0.181475
-0.143856
-0.133041
-0.139645
-0.178399
-0.226498
-0.249087
-0.254427
-0.221545
-0.199418
-0.17755
-0.163307
-0.144969
-0.106978
-0.155978
-0.140993
-0.13201
-0.12575
-0.121117
-0.117714
-0.11534
-0.113828
-0.113021
-0.174176
-0.219681
-0.225746
-0.192008
-0.182679
-0.184263
-0.188333
-0.18109
-0.153043
-0.140413
-0.141245
-0.165585
-0.207986
-0.249283
-0.277905
-0.245106
-0.218455
-0.190138
-0.177867
-0.173571
-0.170111
-0.157199
-0.145544
-0.138507
-0.133336
-0.129624
-0.127007
-0.125265
-0.124221
-0.123712
-0.180974
-0.218853
-0.224376
-0.19761
-0.189551
-0.1898
-0.190839
-0.182621
-0.160966
-0.147601
-0.142972
-0.152194
-0.188699
-0.250974
-0.285522
-0.261668
-0.222095
-0.194828
-0.181331
-0.173411
-0.165435
-0.156208
-0.149514
-0.144583
-0.140964
-0.138358
-0.136557
-0.135396
-0.134737
-0.134453
-0.188308
-0.219511
-0.224639
-0.203596
-0.196729
-0.195733
-0.19452
-0.185924
-0.168559
-0.155099
-0.146847
-0.14488
-0.178235
-0.2512
-0.275486
-0.259747
-0.222002
-0.197198
-0.182912
-0.173845
-0.166535
-0.160121
-0.155445
-0.15209
-0.149668
-0.147954
-0.146795
-0.146069
-0.145678
-0.145541
-0.196237
-0.221575
-0.226331
-0.210068
-0.204217
-0.20217
-0.199399
-0.190879
-0.176505
-0.163727
-0.154102
-0.14777
-0.175934
-0.24627
-0.270225
-0.249123
-0.219692
-0.19939
-0.1866
-0.17821
-0.172108
-0.167487
-0.164153
-0.161785
-0.16011
-0.15895
-0.158179
-0.157709
-0.157469
-0.157405
-0.204817
-0.224983
-0.229343
-0.217103
-0.212044
-0.209226
-0.205496
-0.197387
-0.185351
-0.173955
-0.164873
-0.160645
-0.178965
-0.230944
-0.249843
-0.235263
-0.21675
-0.203039
-0.193351
-0.186503
-0.181574
-0.177989
-0.175418
-0.173589
-0.172302
-0.171418
-0.170835
-0.170481
-0.170301
-0.170251
-0.21412
-0.229696
-0.233624
-0.224693
-0.220277
-0.217015
-0.212818
-0.205387
-0.195369
-0.185804
-0.178568
-0.176367
-0.187804
-0.214064
-0.229453
-0.22559
-0.216786
-0.208523
-0.201917
-0.196861
-0.193081
-0.190287
-0.188246
-0.186774
-0.185728
-0.185002
-0.184518
-0.184218
-0.184055
-0.183994
-0.224379
-0.235682
-0.239153
-0.232848
-0.229015
-0.225634
-0.221384
-0.214821
-0.206657
-0.199064
-0.193865
-0.193283
-0.200712
-0.215122
-0.223625
-0.22411
-0.22049
-0.215939
-0.211759
-0.208292
-0.205563
-0.203475
-0.201906
-0.200749
-0.199911
-0.199319
-0.198915
-0.198654
-0.198502
-0.19843
-0.235557
-0.242898
-0.245902
-0.241631
-0.238376
-0.235176
-0.231202
-0.225647
-0.219194
-0.213471
-0.210008
-0.210238
-0.215005
-0.222665
-0.227798
-0.229015
-0.227665
-0.225285
-0.222805
-0.220579
-0.21873
-0.217258
-0.216118
-0.215256
-0.214618
-0.214156
-0.213833
-0.213616
-0.21348
-0.213406
-0.247635
-0.251377
-0.253881
-0.251128
-0.248498
-0.245722
-0.242289
-0.237826
-0.232932
-0.228823
-0.22662
-0.22708
-0.230096
-0.234229
-0.237171
-0.238182
-0.237743
-0.23655
-0.235155
-0.233812
-0.232637
-0.231665
-0.230891
-0.23029
-0.229835
-0.229499
-0.229257
-0.229089
-0.228979
-0.228912
-0.260739
-0.26113
-0.263086
-0.261444
-0.259508
-0.257347
-0.25466
-0.251327
-0.247829
-0.245036
-0.243678
-0.244057
-0.245817
-0.248048
-0.249666
-0.250339
-0.250234
-0.249667
-0.248923
-0.24816
-0.247465
-0.246871
-0.246385
-0.245998
-0.245699
-0.245474
-0.245307
-0.245188
-0.245106
-0.245052
-0.274957
-0.272158
-0.273505
-0.272688
-0.271514
-0.270119
-0.268336
-0.266148
-0.263904
-0.262165
-0.261357
-0.261558
-0.262465
-0.263589
-0.264409
-0.264791
-0.264789
-0.264539
-0.264174
-0.263782
-0.263412
-0.263088
-0.262816
-0.262596
-0.262423
-0.26229
-0.262189
-0.262115
-0.262062
-0.262025
-0.290375
-0.284433
-0.285113
-0.284952
-0.284603
-0.284099
-0.283342
-0.28233
-0.281241
-0.280374
-0.279941
-0.279958
-0.280274
-0.280676
-0.280992
-0.281146
-0.281159
-0.281075
-0.280941
-0.280791
-0.280647
-0.280517
-0.280407
-0.280316
-0.280244
-0.280187
-0.280145
-0.280113
-0.280089
-0.280072
-0.0172988
-0.0201981
-0.0277391
-0.0409317
-0.060844
-0.086455
-0.114221
-0.141469
-0.173158
-0.217176
-0.259546
-0.252146
-0.228814
-0.234418
-0.213861
-0.136199
-0.0489082
0.108952
0.587028
-0.171028
-0.466019
4.31646
15.1383
16.0719
17.2566
14.3399
10.1995
3.89639
2.28486
-1.32027
-0.0241641
-0.0272874
-0.0353397
-0.0494498
-0.0702549
-0.0958917
-0.122612
-0.147627
-0.174426
-0.212776
-0.25205
-0.248552
-0.227368
-0.228661
-0.214259
-0.191687
-0.0606596
-0.0211186
0.438988
-0.153567
0.150834
-2.6839
13.6779
14.4945
15.8552
12.7807
8.57647
2.05406
0.627644
-1.61352
-0.0323976
-0.0356978
-0.0441693
-0.0589579
-0.0803327
-0.105709
-0.131048
-0.153507
-0.174713
-0.206985
-0.242241
-0.242675
-0.224759
-0.222441
-0.212017
-0.177463
-0.0480677
-0.00756562
0.455116
-0.655702
0.0747007
-17.6927
12.0596
12.7718
14.3548
11.0946
6.81797
1.26302
0.852285
-0.464911
-0.0420895
-0.0454894
-0.0542447
-0.0694808
-0.0909817
-0.115684
-0.139418
-0.159497
-0.174466
-0.200324
-0.231532
-0.235359
-0.220983
-0.215961
-0.206033
-0.163322
-0.0213427
-0.00172633
0.550964
-0.636242
0.0484767
-7.64381
10.2726
10.8991
12.7501
9.29697
5.07418
0.109485
-0.0125953
0.031245
-0.052986
-0.0564118
-0.0652038
-0.0804933
-0.101649
-0.12535
-0.147515
-0.166258
-0.174329
-0.193831
-0.221859
-0.227494
-0.21617
-0.209446
-0.198612
-0.156987
-0.0491806
0.00134143
0.15987
-0.439787
0.0447098
-0.463868
7.42828
8.85931
10.9863
7.28983
3.58224
-0.552689
-0.0438778
0.0262532
-0.0643722
-0.0677277
-0.0762789
-0.0911
-0.11144
-0.133894
-0.154513
-0.171111
-0.171958
-0.185558
-0.170024
-0.219457
-0.210473
-0.202956
-0.190866
-0.150859
-0.0789233
0.0337712
0.16187
-0.299656
0.00678772
-0.21073
5.11592
6.66564
8.40304
5.18013
1.02162
-0.0842399
-0.050946
0.0366655
-0.0751207
-0.0783129
-0.08641
-0.100374
-0.119457
-0.140324
-0.158875
-0.170649
-0.167875
-0.181835
-0.204883
-0.210563
-0.20401
-0.196462
-0.183456
-0.147019
-0.0828884
-0.0315435
0.113262
-0.155399
-0.0490099
-0.0836555
-1.99209
4.23432
6.03681
2.60643
-0.211497
-0.0936907
-0.0592886
0.0328991
-0.0840663
-0.0870293
-0.0944584
-0.107252
-0.124725
-0.143727
-0.16
-0.169559
-0.171651
-0.181509
-0.195897
-0.200689
-0.196976
-0.190014
-0.176936
-0.145663
-0.0909386
-0.0423603
0.00721348
-0.104578
-0.0861472
-0.0816579
-0.225363
0.285749
3.32638
0.80835
-0.0284162
-0.0942596
-0.0702348
0.202006
-0.0900007
-0.0926741
-0.0992722
-0.11066
-0.12628
-0.143384
-0.157926
-0.166278
-0.168972
-0.175763
-0.186239
-0.191437
-0.189549
-0.183718
-0.171594
-0.145584
-0.0954696
-0.0538528
0.0214203
-0.187404
-0.120653
-0.0971313
-0.199111
-0.260349
-0.150605
-0.107612
-0.0524864
-0.0948812
-0.0810836
-0.248373
-0.0919439
-0.0943477
-0.100129
-0.110015
-0.123686
-0.138865
-0.152056
-0.160155
-0.16385
-0.169325
-0.176831
-0.181856
-0.181931
-0.177734
-0.167467
-0.145142
-0.105484
-0.0668084
-0.0274321
-0.164153
-0.134615
-0.112075
-0.191451
-0.248508
-0.155532
-0.111083
-0.0259781
-0.099245
-0.0924249
-0.24482
-0.090291
-0.0924028
-0.0973984
-0.1058
-0.117429
-0.130674
-0.142709
-0.151042
-0.15552
-0.161316
-0.167435
-0.172521
-0.174319
-0.172283
-0.164564
-0.144762
-0.110911
-0.0723557
-0.0679371
-0.141457
-0.157926
-0.12469
-0.184387
-0.23713
-0.159206
-0.114707
-0.0411595
-0.101402
-0.107911
-0.236204
-0.0865345
-0.0882556
-0.0924177
-0.0994393
-0.109129
-0.12043
-0.131424
-0.139946
-0.146465
-0.152265
-0.158096
-0.163484
-0.166907
-0.167711
-0.163175
-0.146329
-0.116555
-0.0762858
-0.110112
-0.114079
-0.184481
-0.134717
-0.176235
-0.223711
-0.16128
-0.119379
-0.0746892
-0.10706
-0.118869
-0.225703
-0.082932
-0.0842405
-0.0875921
-0.0934741
-0.101278
-0.110887
-0.120566
-0.129478
-0.136779
-0.143113
-0.149022
-0.154872
-0.159967
-0.164605
-0.164075
-0.15073
-0.124769
-0.0817683
-0.111637
-0.0541909
-0.250474
-0.141593
-0.169177
-0.209451
-0.162869
-0.124662
-0.089686
-0.112752
-0.126715
-0.21587
-0.0820038
-0.0829217
-0.0854966
-0.0902038
-0.0963224
-0.104125
-0.113131
-0.121512
-0.128888
-0.135142
-0.140745
-0.146993
-0.154001
-0.164092
-0.168665
-0.15921
-0.133848
-0.103822
-0.116397
-0.106711
-0.225452
-0.144177
-0.163828
-0.196599
-0.164039
-0.130163
-0.103934
-0.118974
-0.129292
-0.207856
-0.0856027
-0.0862922
-0.0882426
-0.0916129
-0.0967088
-0.103182
-0.110428
-0.117765
-0.124389
-0.129699
-0.134099
-0.14045
-0.149733
-0.167943
-0.178811
-0.173577
-0.147333
-0.118446
-0.127751
-0.0796136
-0.170692
-0.143758
-0.160195
-0.186419
-0.165038
-0.136175
-0.115482
-0.125697
-0.131675
-0.201459
-0.092779
-0.0931924
-0.0945935
-0.0971901
-0.101126
-0.106289
-0.112305
-0.118595
-0.124346
-0.128484
-0.130501
-0.135731
-0.134979
-0.178152
-0.193917
-0.195896
-0.165647
-0.133403
-0.142722
-0.0934732
-0.149568
-0.143387
-0.158162
-0.179339
-0.166196
-0.142256
-0.126126
-0.132747
-0.13512
-0.196552
-0.102223
-0.102511
-0.103579
-0.105587
-0.108659
-0.112809
-0.117885
-0.123541
-0.129228
-0.134073
-0.134833
-0.125677
-0.127453
-0.195898
-0.210265
-0.227575
-0.188049
-0.157675
-0.142459
-0.118421
-0.144527
-0.143825
-0.157696
-0.175212
-0.167785
-0.148452
-0.135954
-0.140106
-0.13995
-0.192889
-0.112763
-0.112992
-0.11382
-0.115399
-0.117869
-0.12133
-0.12582
-0.131308
-0.137779
-0.146056
-0.122906
-0.140093
-0.164772
-0.21427
-0.248008
-0.259233
-0.213185
-0.171139
-0.151685
-0.140939
-0.145057
-0.145642
-0.158735
-0.173607
-0.170016
-0.154822
-0.145182
-0.147755
-0.145883
-0.190584
-0.12359
-0.123803
-0.124463
-0.125722
-0.127734
-0.130648
-0.134611
-0.139811
-0.145944
-0.15523
-0.148122
-0.156617
-0.188707
-0.215337
-0.253856
-0.275489
-0.233946
-0.193369
-0.175442
-0.153198
-0.147411