/*--------------------------------*- C++ -*----------------------------------*\
| =========                 |                                                 |
| \\      /  F ield         | OpenFOAM: The Open Source CFD Toolbox           |
|  \\    /   O peration     | Version:  2.4.0                                 |
|   \\  /    A nd           | Web:      www.OpenFOAM.org                      |
|    \\/     M anipulation  |                                                 |
\*---------------------------------------------------------------------------*/
FoamFile
{
    version     2.0;
    format      ascii;
    class       surfaceScalarField;
    location    "0.067";
    object      phi;
}
// * * * * * * * * * * * * * * * * * * * * * * * * * * * * * * * * * * * * * //

dimensions      [0 3 -1 0 0 0 0];

internalField   nonuniform List<scalar> 
28560
(
-2.7535e-09
7.20793e-09
-4.45443e-09
5.6998e-09
-8.1995e-09
2.4997e-09
1.06267e-08
-1.32386e-08
2.61195e-09
1.53072e-08
-1.71422e-08
1.83507e-09
1.84633e-08
-1.92435e-08
7.80181e-10
1.93299e-08
-1.85636e-08
-7.66224e-10
1.682e-08
-1.42238e-08
-2.59613e-09
1.0568e-08
-6.25172e-09
-4.31624e-09
9.51765e-10
4.64626e-09
-5.59803e-09
-1.0933e-08
1.71701e-08
-6.23708e-09
-2.38752e-08
3.03333e-08
-6.45806e-09
-3.71961e-08
4.36858e-08
-6.48973e-09
-5.03276e-08
5.62265e-08
-5.89891e-09
-6.17949e-08
6.62648e-08
-4.46984e-09
-6.99744e-08
7.24505e-08
-2.4761e-09
-7.39161e-08
7.424e-08
-3.23929e-10
-7.35031e-08
7.1865e-08
1.63807e-09
-6.92929e-08
6.61856e-08
3.10733e-09
-6.23816e-08
5.84203e-08
3.96132e-09
-5.40352e-08
4.98046e-08
4.23065e-09
-4.53931e-08
4.13255e-08
4.06754e-09
-3.72359e-08
3.3575e-08
3.66095e-09
-2.99794e-08
2.68161e-08
3.16331e-09
-2.3749e-08
2.10789e-08
2.67016e-09
-1.85047e-08
1.62688e-08
2.23589e-09
-1.41159e-08
1.22425e-08
1.87347e-09
-1.04311e-08
8.84595e-09
1.58512e-09
-7.30413e-09
5.94435e-09
1.35977e-09
-4.61112e-09
3.42524e-09
1.18588e-09
-2.25181e-09
1.20139e-09
1.05042e-09
-1.21536e-08
1.72394e-08
-5.08581e-09
1.02983e-08
-1.49624e-08
-6.64907e-09
1.13131e-08
1.9676e-08
-2.46513e-08
-6.99568e-09
1.1971e-08
2.91066e-08
-3.34107e-08
-5.43808e-09
9.74225e-09
3.72885e-08
-4.02944e-08
-3.04784e-09
6.05377e-09
4.22258e-08
-4.24411e-08
1.05614e-09
-8.4084e-10
4.06831e-08
-3.69069e-08
6.38598e-09
-1.01622e-08
3.07474e-08
-2.28887e-08
1.16401e-08
-1.94989e-08
1.27833e-08
-1.75102e-09
1.56942e-08
-2.67264e-08
-1.08941e-08
2.35516e-08
1.7758e-08
-3.04154e-08
-3.72563e-08
5.04413e-08
1.84585e-08
-3.16435e-08
-6.43723e-08
7.74844e-08
1.84406e-08
-3.15528e-08
-9.0964e-08
1.03143e-07
1.6919e-08
-2.90977e-08
-1.15053e-07
1.25216e-07
1.34498e-08
-2.36131e-08
-1.34521e-07
1.41875e-07
8.60938e-09
-1.59641e-08
-1.47971e-07
1.52148e-07
3.26271e-09
-7.43935e-09
-1.54855e-07
1.55862e-07
-1.82527e-09
8.17753e-10
-1.55354e-07
1.535e-07
-6.00375e-09
7.85811e-09
-1.50247e-07
1.46081e-07
-8.89176e-09
1.30578e-08
-1.40739e-07
1.34929e-07
-1.0434e-08
1.62435e-08
-1.28208e-07
1.21397e-07
-1.0867e-08
1.76787e-08
-1.13917e-07
1.0663e-07
-1.05472e-08
1.78343e-08
-9.88692e-08
9.14876e-08
-9.80892e-09
1.71905e-08
-8.37746e-08
7.65613e-08
-8.88654e-09
1.60999e-08
-6.91197e-08
6.22333e-08
-7.94608e-09
1.48324e-08
-5.5202e-08
4.87481e-08
-7.05415e-09
1.3508e-08
-4.22013e-08
3.62266e-08
-6.25941e-09
1.22341e-08
-3.01999e-08
2.47227e-08
-5.56518e-09
1.10424e-08
-1.92189e-08
1.42322e-08
-4.96883e-09
9.95554e-09
-9.23187e-09
4.71897e-09
-4.45296e-09
8.96586e-09
-2.23643e-08
2.74982e-08
-5.13393e-09
1.06888e-08
-1.55585e-08
-1.61354e-08
2.1005e-08
2.05017e-08
-2.5765e-08
-1.71546e-08
2.24178e-08
3.05382e-08
-3.52247e-08
-1.43196e-08
1.90061e-08
3.95466e-08
-4.30249e-08
-9.38788e-09
1.28662e-08
4.54589e-08
-4.61177e-08
3.28369e-10
3.30422e-10
4.47606e-08
-4.12735e-08
1.37595e-08
-1.72465e-08
3.53214e-08
-2.7565e-08
2.7315e-08
-3.50714e-08
1.74915e-08
-6.44506e-09
3.77983e-08
-4.88447e-08
-6.27107e-09
1.89485e-08
4.3126e-08
-5.58034e-08
-3.26598e-08
4.58249e-08
4.48587e-08
-5.80238e-08
-5.97411e-08
7.28628e-08
4.47104e-08
-5.78321e-08
-8.6371e-08
9.86064e-08
4.13487e-08
-5.35841e-08
-1.10595e-07
1.20853e-07
3.38887e-08
-4.41472e-08
-1.30282e-07
1.37784e-07
2.34941e-08
-3.09958e-08
-1.44065e-07
1.48457e-07
1.18663e-08
-1.62581e-08
-1.51433e-07
1.52734e-07
5.17807e-10
-1.8182e-09
-1.52575e-07
1.51088e-07
-9.31115e-09
1.07982e-08
-1.4824e-07
1.44481e-07
-1.68011e-08
2.05601e-08
-1.39575e-07
1.34179e-07
-2.16604e-08
2.70566e-08
-1.27881e-07
1.2145e-07
-2.41655e-08
3.05964e-08
-1.14339e-07
1.07366e-07
-2.48986e-08
3.18714e-08
-9.98923e-08
9.27347e-08
-2.44654e-08
3.1623e-08
-8.52049e-08
7.81128e-08
-2.33218e-08
3.04139e-08
-7.07454e-08
6.38796e-08
-2.18293e-08
2.86951e-08
-5.68217e-08
5.03003e-08
-2.01512e-08
2.66726e-08
-4.36443e-08
3.75356e-08
-1.84508e-08
2.45595e-08
-3.13432e-08
2.56914e-08
-1.67875e-08
2.24393e-08
-1.99926e-08
1.4815e-08
-1.52143e-08
2.0392e-08
-9.61298e-09
4.91202e-09
-1.37384e-08
1.84394e-08
-3.26319e-08
3.77618e-08
-5.12992e-09
1.07212e-08
-1.56065e-08
-2.58874e-08
3.07727e-08
2.0553e-08
-2.58788e-08
-2.77184e-08
3.30442e-08
3.06819e-08
-3.54428e-08
-2.37408e-08
2.85017e-08
3.98431e-08
-4.34367e-08
-1.64145e-08
2.00082e-08
4.60026e-08
-4.67823e-08
-1.06231e-09
1.84197e-09
4.55427e-08
-4.21406e-08
2.06807e-08
-2.40828e-08
3.62544e-08
-2.85235e-08
4.2808e-08
-5.05389e-08
1.84445e-08
-7.36463e-09
5.99012e-08
-7.0981e-08
-5.3966e-09
1.81021e-08
6.84872e-08
-8.11927e-08
-3.18165e-08
4.4985e-08
7.11801e-08
-8.43485e-08
-5.89146e-08
7.20896e-08
7.09712e-08
-8.41463e-08
-8.5705e-08
9.80758e-08
6.58662e-08
-7.8237e-08
-1.10217e-07
1.20628e-07
5.44541e-08
-6.48645e-08
-1.30197e-07
1.37821e-07
3.85251e-08
-4.61496e-08
-1.44193e-07
1.48641e-07
2.06381e-08
-2.50858e-08
-1.51642e-07
1.52903e-07
3.06003e-09
-4.32061e-09
-1.52648e-07
1.51008e-07
-1.23921e-08
1.40323e-08
-1.47942e-07
1.43924e-07
-2.44635e-08
2.84818e-08
-1.38712e-07
1.3301e-07
-3.26042e-08
3.83066e-08
-1.26392e-07
1.19677e-07
-3.71505e-08
4.38655e-08
-1.123e-07
1.05117e-07
-3.89175e-08
4.61006e-08
-9.74705e-08
9.02055e-08
-3.87956e-08
4.60606e-08
-8.26193e-08
7.55292e-08
-3.74636e-08
4.45536e-08
-6.8217e-08
6.14505e-08
-3.54722e-08
4.22386e-08
-5.4539e-08
4.81895e-08
-3.30731e-08
3.94226e-08
-4.17423e-08
3.58514e-08
-3.053e-08
3.64209e-08
-2.99025e-08
2.44894e-08
-2.79475e-08
3.33605e-08
-1.90444e-08
1.41061e-08
-2.54295e-08
3.03677e-08
-9.15122e-09
4.67711e-09
-2.30095e-08
2.74836e-08
-4.28874e-08
4.80073e-08
-5.11993e-09
1.07225e-08
-1.56041e-08
-3.56571e-08
4.05386e-08
2.05234e-08
-2.58969e-08
-3.8393e-08
4.37666e-08
3.06928e-08
-3.54972e-08
-3.32834e-08
3.80879e-08
3.99333e-08
-4.36116e-08
-2.36425e-08
2.73207e-08
4.6277e-08
-4.71482e-08
-2.66543e-09
3.53662e-09
4.60016e-08
-4.26644e-08
2.74545e-08
-3.07916e-08
3.68314e-08
-2.91141e-08
5.82638e-08
-6.59811e-08
1.90164e-08
-7.88112e-09
8.20865e-08
-9.32218e-08
-4.94623e-09
1.76993e-08
9.39184e-08
-1.06671e-07
-3.14393e-08
4.46155e-08
9.75153e-08
-1.10692e-07
-5.85836e-08
7.18705e-08
9.73736e-08
-1.1066e-07
-8.56724e-08
9.82778e-08
9.07157e-08
-1.03321e-07
-1.107e-07
1.21398e-07
7.54064e-08
-8.61052e-08
-1.3126e-07
1.39189e-07
5.39107e-08
-6.18393e-08
-1.45836e-07
1.50551e-07
2.96512e-08
-3.43671e-08
-1.538e-07
1.55245e-07
5.65616e-09
-7.10168e-09
-1.5513e-07
1.53551e-07
-1.5659e-08
1.72374e-08
-1.50468e-07
1.46356e-07
-3.25645e-08
3.66773e-08
-1.40976e-07
1.35063e-07
-4.41258e-08
5.00387e-08
-1.2819e-07
1.21212e-07
-5.07218e-08
5.76999e-08
-1.13551e-07
1.06103e-07
-5.34198e-08
6.0868e-08
-9.8196e-08
9.07028e-08
-5.34401e-08
6.09332e-08
-8.29052e-08
7.56447e-08
-5.17221e-08
5.89826e-08
-6.81866e-08
6.13123e-08
-4.90458e-08
5.59201e-08
-5.43205e-08
4.79231e-08
-4.57776e-08
5.2175e-08
-4.14515e-08
3.55589e-08
-4.22916e-08
4.81842e-08
-2.96264e-08
2.42426e-08
-3.87368e-08
4.41207e-08
-1.88388e-08
1.39463e-08
-3.5261e-08
4.01534e-08
-9.04327e-09
4.61966e-09
-3.1912e-08
3.63356e-08
-5.31203e-08
5.82263e-08
-5.106e-09
1.07205e-08
-1.55942e-08
-4.54163e-08
5.029e-08
2.04768e-08
-2.5906e-08
-4.91668e-08
5.45961e-08
3.06893e-08
-3.55427e-08
-4.29166e-08
4.777e-08
4.00174e-08
-4.37998e-08
-3.10482e-08
3.48307e-08
4.65884e-08
-4.75735e-08
-4.46158e-09
5.44664e-09
4.65453e-08
-4.32922e-08
3.4089e-08
-3.73421e-08
3.75315e-08
-2.98361e-08
7.36883e-08
-8.13838e-08
1.97186e-08
-8.51292e-09
1.0439e-07
-1.15596e-07
-4.39663e-09
1.72176e-08
1.19458e-07
-1.32279e-07
-3.09817e-08
4.41625e-08
1.23872e-07
-1.37053e-07
-5.81697e-08
7.1584e-08
1.24011e-07
-1.37426e-07
-8.56275e-08
9.85371e-08
1.1607e-07
-1.28979e-07
-1.11318e-07
1.22395e-07
9.69821e-08
-1.08059e-07
-1.32634e-07
1.4097e-07
6.99579e-08
-7.82944e-08
-1.47971e-07
1.53067e-07
3.92598e-08
-4.43556e-08
-1.56671e-07
1.58399e-07
8.67851e-09
-1.04061e-08
-1.5853e-07
1.57109e-07
-1.87459e-08
2.01677e-08
-1.54086e-07
1.49942e-07
-4.0809e-08
4.49529e-08
-1.44446e-07
1.38363e-07
-5.60318e-08
6.2114e-08
-1.31265e-07
1.2405e-07
-6.47935e-08
7.20082e-08
-1.16131e-07
1.08438e-07
-6.84367e-08
7.61301e-08
-1.00276e-07
9.25514e-08
-6.85388e-08
7.62629e-08
-8.45263e-08
7.70649e-08
-6.63404e-08
7.38018e-08
-6.94133e-08
6.23721e-08
-6.28727e-08
6.9914e-08
-5.52208e-08
4.86879e-08
-5.86341e-08
6.5167e-08
-4.20882e-08
3.60858e-08
-5.41229e-08
6.01254e-08
-3.00504e-08
2.45797e-08
-4.95397e-08
5.50104e-08
-1.90928e-08
1.41278e-08
-4.50727e-08
5.00377e-08
-9.15487e-09
4.67104e-09
-4.07823e-08
4.52661e-08
-6.33244e-08
6.84133e-08
-5.08891e-09
1.07193e-08
-1.55827e-08
-5.51594e-08
6.00228e-08
2.0422e-08
-2.59171e-08
-6.00573e-08
6.55524e-08
3.06881e-08
-3.55983e-08
-5.26508e-08
5.7561e-08
4.01178e-08
-4.40313e-08
-3.86752e-08
4.25887e-08
4.69726e-08
-4.80992e-08
-6.49913e-09
7.62573e-09
4.72185e-08
-4.40696e-08
4.05461e-08
-4.3695e-08
3.84002e-08
-3.0732e-08
8.90667e-08
-9.6735e-08
2.0589e-08
-9.29109e-09
1.26845e-07
-1.38143e-07
-3.72182e-09
1.6631e-08
1.45143e-07
-1.58052e-07
-3.04282e-08
4.36072e-08
1.50229e-07
-1.63408e-07
-5.7642e-08
7.12114e-08
1.50912e-07
-1.64481e-07
-8.55484e-08
9.8839e-08
1.4207e-07
-1.55361e-07
-1.12062e-07
1.2361e-07
1.19361e-07
-1.30909e-07
-1.343e-07
1.43165e-07
8.68806e-08
-9.57456e-08
-1.50574e-07
1.56168e-07
4.96858e-08
-5.528e-08
-1.60225e-07
1.62316e-07
1.2305e-08
-1.43958e-08
-1.62785e-07
1.61595e-07
-2.1487e-08
2.26772e-08
-1.58677e-07
1.54503e-07
-4.91142e-08
5.32879e-08
-1.48869e-07
1.42587e-07
-6.82941e-08
7.45765e-08
-1.35223e-07
1.27726e-07
-7.93552e-08
8.68521e-08
-1.19498e-07
1.11511e-07
-8.3964e-08
9.19501e-08
-1.03051e-07
9.50602e-08
-8.41143e-08
9.2105e-08
-8.67693e-08
7.90719e-08
-8.13754e-08
8.90728e-08
-7.11886e-08
6.39439e-08
-7.70532e-08
8.42979e-08
-5.6592e-08
4.98825e-08
-7.17843e-08
7.84938e-08
-4.31066e-08
3.69418e-08
-6.61954e-08
7.23602e-08
-3.07444e-08
2.51332e-08
-6.05454e-08
6.61565e-08
-1.95088e-08
1.44206e-08
-5.50561e-08
6.01443e-08
-9.3307e-09
4.75107e-09
-4.98062e-08
5.43858e-08
-7.34927e-08
7.85616e-08
-5.06886e-09
1.07174e-08
-1.55661e-08
-6.48789e-08
6.97276e-08
2.03556e-08
-2.59249e-08
-7.10831e-08
7.66523e-08
3.06841e-08
-3.56568e-08
-6.25017e-08
6.74745e-08
4.02252e-08
-4.42986e-08
-4.65782e-08
5.06516e-08
4.74232e-08
-4.87189e-08
-8.83337e-09
1.01291e-08
4.80158e-08
-4.49922e-08
4.67833e-08
-4.98069e-08
3.94357e-08
-3.18021e-08
1.04386e-07
-1.1202e-07
2.16292e-08
-1.02167e-08
1.49495e-07
-1.60907e-07
-2.92214e-09
1.59481e-08
1.71018e-07
-1.84044e-07
-2.97809e-08
4.29279e-08
1.76569e-07
-1.89716e-07
-5.69789e-08
7.07167e-08
1.78138e-07
-1.91875e-07
-8.54024e-08
9.9151e-08
1.68869e-07
-1.82618e-07
-1.12897e-07
1.25014e-07
1.42728e-07
-1.54845e-07
-1.36221e-07
1.45747e-07
1.04922e-07
-1.14447e-07
-1.53598e-07
1.59833e-07
6.11722e-08
-6.74068e-08
-1.64446e-07
1.66984e-07
1.66994e-08
-1.92373e-08
-1.67914e-07
1.67045e-07
-2.37189e-08
2.45876e-08
-1.64269e-07
1.60066e-07
-5.74752e-08
6.16781e-08
-1.54267e-07
1.47725e-07
-8.09824e-08
8.75239e-08
-1.40025e-07
1.32171e-07
-9.45151e-08
1.02368e-07
-1.23558e-07
1.1521e-07
-1.00106e-07
1.08454e-07
-1.06384e-07
9.80666e-08
-1.00253e-07
1.0857e-07
-8.94543e-08
8.1468e-08
-9.69029e-08
1.04889e-07
-7.33085e-08
6.58237e-08
-9.16619e-08
9.91468e-08
-5.82355e-08
5.13127e-08
-8.53036e-08
9.22263e-08
-4.43274e-08
3.79607e-08
-7.85838e-08
8.49505e-08
-3.15203e-08
2.56766e-08
-7.18156e-08
7.76592e-08
-1.98588e-08
1.46411e-08
-6.52965e-08
7.05142e-08
-9.44866e-09
4.79647e-09
-5.90747e-08
6.37269e-08
-8.36188e-08
8.86641e-08
-5.0453e-09
1.07148e-08
-1.55436e-08
-7.45673e-08
7.93961e-08
2.02777e-08
-2.59287e-08
-8.22617e-08
8.79128e-08
3.06785e-08
-3.57171e-08
-7.248e-08
7.75187e-08
4.03359e-08
-4.46007e-08
-5.48168e-08
5.90816e-08
4.79395e-08
-4.94326e-08
-1.15201e-08
1.30132e-08
4.89386e-08
-4.60614e-08
5.27602e-08
-5.56374e-08
4.06418e-08
-3.30513e-08
1.19633e-07
-1.27224e-07
2.28442e-08
-1.12917e-08
1.72386e-07
-1.83939e-07
-2.00228e-09
1.51756e-08
1.97141e-07
-2.10314e-07
-2.90318e-08
4.21214e-08
2.02837e-07
-2.15927e-07
-5.61457e-08
7.00746e-08
2.05708e-07
-2.19637e-07
-8.51637e-08
9.94575e-08
1.96628e-07
-2.10922e-07
-1.13812e-07
1.26597e-07
1.67283e-07
-1.80068e-07
-1.38381e-07
1.48727e-07
1.24362e-07
-1.34708e-07
-1.56999e-07
1.64079e-07
7.4034e-08
-8.11135e-08
-1.69341e-07
1.72415e-07
2.20315e-08
-2.51054e-08
-1.73969e-07
1.73548e-07
-2.52499e-08
2.56712e-08
-1.70973e-07
1.66731e-07
-6.58988e-08
7.01405e-08
-1.60713e-07
1.53845e-07
-9.42169e-08
1.01084e-07
-1.45717e-07
1.37412e-07
-1.1043e-07
1.18734e-07
-1.28322e-07
1.19527e-07
-1.17012e-07
1.25807e-07
-1.10247e-07
1.01542e-07
-1.17085e-07
1.2579e-07
-9.25462e-08
8.42088e-08
-1.13022e-07
1.21359e-07
-7.57128e-08
6.79494e-08
-1.06784e-07
1.14547e-07
-6.00999e-08
5.29393e-08
-9.92605e-08
1.06421e-07
-4.57384e-08
3.91874e-08
-9.13659e-08
9.79169e-08
-3.25122e-08
2.64309e-08
-8.33798e-08
8.94612e-08
-2.04237e-08
1.50863e-08
-7.58572e-08
8.11945e-08
-9.77068e-09
4.96518e-09
-6.86165e-08
7.3422e-08
-9.36962e-08
9.87139e-08
-5.01776e-09
1.07144e-08
-1.55171e-08
-8.42129e-08
8.90156e-08
2.01912e-08
-2.59324e-08
-9.3608e-08
9.93493e-08
3.06769e-08
-3.57831e-08
-8.25914e-08
8.76976e-08
4.04549e-08
-4.49444e-08
-6.34547e-08
6.79442e-08
4.85299e-08
-5.02492e-08
-1.46157e-08
1.6335e-08
4.99967e-08
-4.72873e-08
5.84334e-08
-6.11428e-08
4.20306e-08
-3.44921e-08
1.3479e-07
-1.42329e-07
2.42445e-08
-1.25201e-08
1.95574e-07
-2.07298e-07
-9.55798e-10
1.43163e-08
2.23579e-07
-2.3694e-07
-2.82077e-08
4.11865e-08
2.28965e-07
-2.41944e-07
-5.51322e-08
6.9259e-08
2.33663e-07
-2.4779e-07
-8.48231e-08
9.97589e-08
2.25525e-07
-2.40461e-07
-1.14812e-07
1.2837e-07
1.93227e-07
-2.06784e-07
-1.40785e-07
1.52138e-07
1.45533e-07
-1.56886e-07
-1.60745e-07
1.68956e-07
8.87178e-08
-9.69296e-08
-1.7494e-07
1.78638e-07
2.84769e-08
-3.21749e-08
-1.81063e-07
1.81272e-07
-2.58076e-08
2.55985e-08
-1.78954e-07
1.74647e-07
-7.44153e-08
7.8722e-08
-1.68344e-07
1.61063e-07
-1.08142e-07
1.15424e-07
-1.52385e-07
1.43506e-07
-1.27294e-07
1.36174e-07
-1.33833e-07
1.24483e-07
-1.34856e-07
1.44206e-07
-1.1466e-07
1.05471e-07
-1.3475e-07
1.43939e-07
-9.6035e-08
8.73276e-08
-1.29852e-07
1.3856e-07
-7.84011e-08
7.02282e-08
-1.2248e-07
1.30653e-07
-6.2049e-08
5.46829e-08
-1.13751e-07
1.21117e-07
-4.72667e-08
4.05223e-08
-1.04607e-07
1.11352e-07
-3.38159e-08
2.77981e-08
-9.5519e-08
1.01537e-07
-2.17223e-08
1.61254e-08
-8.66989e-08
9.22958e-08
-1.04464e-08
5.29347e-09
-7.8302e-08
8.34549e-08
-1.03717e-07
1.08704e-07
-4.98693e-09
1.07144e-08
-1.54828e-08
-9.38019e-08
9.85702e-08
2.00919e-08
-2.59305e-08
-1.05138e-07
1.10976e-07
3.06752e-08
-3.58464e-08
-9.28365e-08
9.80077e-08
4.05724e-08
-4.53204e-08
-7.25583e-08
7.73062e-08
4.91853e-08
-5.11601e-08
-1.81784e-08
2.01532e-08
5.11828e-08
-4.86631e-08
6.376e-08
-6.62797e-08
4.36e-08
-3.61262e-08
1.49836e-07
-1.5731e-07
2.58345e-08
-1.39008e-08
2.19121e-07
-2.31055e-07
1.78674e-10
1.33909e-08
2.50423e-07
-2.63993e-07
-2.73093e-08
4.01052e-08
2.54839e-07
-2.67634e-07
-5.38906e-08
6.82236e-08
2.62018e-07
-2.76352e-07
-8.43192e-08
1.00015e-07
2.55763e-07
-2.71459e-07
-1.15861e-07
1.3029e-07
2.20765e-07
-2.35194e-07
-1.43408e-07
1.55941e-07
1.68809e-07
-1.81342e-07
-1.64766e-07
1.74453e-07
1.05832e-07
-1.15519e-07
-1.8119e-07
1.856e-07
3.62187e-08
-4.06286e-08
-1.89239e-07
1.90364e-07
-2.49753e-08
2.38507e-08
-1.88378e-07
1.83946e-07
-8.30903e-08
8.75226e-08
-1.77259e-07
1.69456e-07
-1.22962e-07
1.30765e-07
-1.60068e-07
1.50473e-07
-1.45357e-07
1.54952e-07
-1.40066e-07
1.30051e-07
-1.53849e-07
1.63863e-07
-1.19628e-07
1.09777e-07
-1.53364e-07
1.63215e-07
-9.98068e-08
9.07946e-08
-1.47576e-07
1.56588e-07
-8.14595e-08
7.2772e-08
-1.38769e-07
1.47456e-07
-6.4113e-08
5.63731e-08
-1.28789e-07
1.36529e-07
-4.86578e-08
4.16907e-08
-1.18302e-07
1.25269e-07
-3.46045e-08
2.80795e-08
-1.07806e-07
1.14331e-07
-2.15846e-08
1.58379e-08
-9.79078e-08
1.03655e-07
-1.01876e-08
5.14472e-09
-8.8569e-08
9.36118e-08
-1.13673e-07
1.18625e-07
-4.95201e-09
1.07159e-08
-1.54399e-08
-1.03318e-07
1.08042e-07
1.99791e-08
-2.59223e-08
-1.16867e-07
1.2281e-07
3.06741e-08
-3.59035e-08
-1.03209e-07
1.08439e-07
4.06846e-08
-4.57274e-08
-8.21971e-08
8.72398e-08
4.99049e-08
-5.21649e-08
-2.2267e-08
2.45271e-08
5.24979e-08
-5.01904e-08
6.86962e-08
-7.10037e-08
4.53561e-08
-3.79627e-08
1.64746e-07
-1.72139e-07
2.76236e-08
-1.54376e-08
2.43109e-07
-2.55295e-07
1.40354e-09
1.24093e-08
2.77673e-07
-2.91486e-07
-2.63549e-08
3.88773e-08
2.80311e-07
-2.92833e-07
-5.23739e-08
6.69166e-08
2.90787e-07
-3.0533e-07
-8.36204e-08
1.00214e-07
2.87586e-07
-3.0418e-07
-1.16945e-07
1.32326e-07
2.5009e-07
-2.65472e-07
-1.4628e-07
1.60082e-07
1.94507e-07
-2.08309e-07
-1.69086e-07
1.80551e-07
1.26066e-07
-1.37531e-07
-1.88046e-07
1.93207e-07
4.542e-08
-5.0581e-08
-1.98628e-07
2.01109e-07
-2.21185e-08
1.96378e-08
-1.99482e-07
1.94818e-07
-9.20758e-08
9.6739e-08
-1.87626e-07
1.79134e-07
-1.38925e-07
1.47418e-07
-1.68853e-07
1.58348e-07
-1.64931e-07
1.75435e-07
-1.47024e-07
1.36263e-07
-1.74255e-07
1.85016e-07
-1.24974e-07
1.14581e-07
-1.73185e-07
1.83578e-07
-1.03962e-07
9.414e-08
-1.66121e-07
1.75943e-07
-8.45535e-08
7.60369e-08
-1.56126e-07
1.64642e-07
-6.72482e-08
5.90594e-08
-1.44353e-07
1.52542e-07
-5.08097e-08
4.34328e-08
-1.32517e-07
1.39894e-07
-3.61724e-08
2.96853e-08
-1.20844e-07
1.27331e-07
-2.31168e-08
1.70902e-08
-1.09515e-07
1.15542e-07
-1.1019e-08
5.55523e-09
-9.88371e-08
1.04301e-07
-1.23558e-07
1.2847e-07
-4.91215e-09
1.07215e-08
-1.53904e-08
-1.1274e-07
1.17409e-07
1.98549e-08
-2.59114e-08
-1.28809e-07
1.34865e-07
3.06811e-08
-3.5958e-08
-1.13694e-07
1.18971e-07
4.07949e-08
-4.61724e-08
-9.24449e-08
9.78224e-08
5.06972e-08
-5.3273e-08
-2.69414e-08
2.95172e-08
5.39532e-08
-5.18792e-08
7.31972e-08
-7.52712e-08
4.73136e-08
-4.00195e-08
1.79486e-07
-1.8678e-07
2.96287e-08
-1.71397e-08
2.67627e-07
-2.80116e-07
2.741e-09
1.13925e-08
3.05449e-07
-3.19582e-07
-2.53561e-08
3.75024e-08
3.05183e-07
-3.17329e-07
-5.05362e-08
6.52893e-08
3.19976e-07
-3.3473e-07
-8.2688e-08
1.00357e-07
3.21283e-07
-3.38953e-07
-1.18071e-07
1.34473e-07
2.81355e-07
-2.97757e-07
-1.49481e-07
1.64474e-07
2.22731e-07
-2.37724e-07
-1.73876e-07
1.87189e-07
1.49935e-07
-1.63248e-07
-1.95598e-07
2.01286e-07
5.60594e-08
-6.17471e-08
-2.09478e-07
2.14004e-07
-1.62481e-08
1.17218e-08
-2.12611e-07
2.07516e-07
-1.01656e-07
1.0675e-07
-1.99712e-07
1.90272e-07
-1.56374e-07
1.65813e-07
-1.78874e-07
1.67075e-07
-1.86357e-07
1.98157e-07
-1.54725e-07
1.43281e-07
-1.96411e-07
2.07854e-07
-1.30812e-07
1.19625e-07
-1.94496e-07
2.05683e-07
-1.08436e-07
9.80909e-08
-1.85586e-07
1.95931e-07
-8.76727e-08
7.82971e-08
-1.7419e-07
1.83566e-07
-6.90079e-08
6.06084e-08
-1.60791e-07
1.6919e-07
-5.21568e-08
4.45324e-08
-1.47177e-07
1.54801e-07
-3.68612e-08
2.99741e-08
-1.33728e-07
1.40615e-07
-2.32005e-08
1.71392e-08
-1.21522e-07
1.27584e-07
-1.10659e-08
5.57691e-09
-1.09984e-07
1.15473e-07
-1.33362e-07
1.3823e-07
-4.86861e-09
1.07302e-08
-1.53308e-08
-1.22045e-07
1.26646e-07
1.97148e-08
-2.58926e-08
-1.40981e-07
1.47159e-07
3.06928e-08
-3.59987e-08
-1.24265e-07
1.29571e-07
4.08905e-08
-4.66454e-08
-1.03383e-07
1.09138e-07
5.15523e-08
-5.44746e-08
-3.22621e-08
3.51844e-08
5.55397e-08
-5.37217e-08
7.72198e-08
-7.90378e-08
4.94724e-08
-4.23032e-08
1.94015e-07
-2.01184e-07
3.18594e-08
-1.90116e-08
2.92776e-07
-3.05623e-07
4.1741e-09
1.03702e-08
3.33907e-07
-3.48452e-07
-2.43499e-08
3.59577e-08
3.29223e-07
-3.40831e-07
-4.83005e-08
6.32544e-08
3.49581e-07
-3.64535e-07
-8.14481e-08
1.00423e-07
3.57238e-07
-3.76212e-07
-1.1919e-07
1.36698e-07
3.14693e-07
-3.322e-07
-1.53021e-07
1.68843e-07
2.532e-07
-2.69022e-07
-1.79467e-07
1.94163e-07
1.7737e-07
-1.92066e-07
-2.03723e-07
2.09408e-07
6.7486e-08
-7.31708e-08
-2.22265e-07
2.29704e-07
-5.89482e-09
-1.54479e-09
-2.28163e-07
2.22271e-07
-1.12246e-07
1.18138e-07
-2.13609e-07
2.02953e-07
-1.75912e-07
1.86568e-07
-1.90638e-07
1.76991e-07
-2.10038e-07
2.23685e-07
-1.62282e-07
1.49823e-07
-2.20844e-07
2.33304e-07
-1.37638e-07
1.26079e-07
-2.17018e-07
2.28578e-07
-1.13502e-07
1.02265e-07
-2.06582e-07
2.1782e-07
-9.15335e-08
8.17193e-08
-1.92832e-07
2.02646e-07
-7.1961e-08
6.30614e-08
-1.77812e-07
1.86712e-07
-5.40529e-08
4.5879e-08
-1.62557e-07
1.70731e-07
-3.76897e-08
3.02742e-08
-1.48074e-07
1.55489e-07
-2.30238e-08
1.67581e-08
-1.33918e-07
1.40183e-07
-1.06999e-08
5.34828e-09
-1.20698e-07
1.2605e-07
-1.43075e-07
1.47894e-07
-4.81956e-09
1.07437e-08
-1.52602e-08
-1.31206e-07
1.35723e-07
1.95569e-08
-2.58646e-08
-1.534e-07
1.59708e-07
3.07129e-08
-3.60213e-08
-1.34882e-07
1.4019e-07
4.0967e-08
-4.71452e-08
-1.15098e-07
1.21277e-07
5.24695e-08
-5.5769e-08
-3.82916e-08
4.15911e-08
5.72584e-08
-5.5717e-08
8.072e-08
-8.22614e-08
5.18401e-08
-4.48296e-08
2.08279e-07
-2.15289e-07
3.43327e-08
-2.10622e-08
3.18674e-07
-3.31945e-07
5.69384e-09
9.37794e-09
3.63243e-07
-3.78315e-07
-2.33746e-08
3.42529e-08
3.52101e-07
-3.62979e-07
-4.55866e-08
6.07153e-08
3.7958e-07
-3.94708e-07
-7.98286e-08
1.00417e-07
3.95948e-07
-4.16537e-07
-1.20235e-07
1.39139e-07
3.50341e-07
-3.69245e-07
-1.56648e-07
1.72727e-07
2.85014e-07
-3.01094e-07
-1.8714e-07
2.00665e-07
2.06796e-07
-2.20321e-07
-2.10434e-07
2.17513e-07
7.89639e-08
-8.60431e-08
-2.393e-07
2.49726e-07
1.07384e-08
-2.11643e-08
-2.4649e-07
2.4003e-07
-1.24515e-07
1.30975e-07
-2.29868e-07
2.16729e-07
-1.97857e-07
2.10997e-07
-2.0313e-07
1.89537e-07
-2.3779e-07
2.51382e-07
-1.73049e-07
1.55935e-07
-2.4598e-07
2.63094e-07
-1.40612e-07
1.2868e-07
-2.42838e-07
2.5477e-07
-1.17566e-07
1.06799e-07
-2.2845e-07
2.39217e-07
-9.48678e-08
8.40356e-08
-2.12546e-07
2.23378e-07
-7.35079e-08
6.44064e-08
-1.9564e-07
2.04741e-07
-5.56875e-08
4.78693e-08
-1.78762e-07
1.8658e-07
-4.03751e-08
3.37478e-08
-1.62345e-07
1.68972e-07
-2.68682e-08
2.01889e-08
-1.46677e-07
1.53357e-07
-1.31263e-08
6.6044e-09
-1.31931e-07
1.38453e-07
-1.52687e-07
1.57453e-07
-4.76524e-09
1.07651e-08
-1.51812e-08
-1.40192e-07
1.44608e-07
1.93831e-08
-2.58307e-08
-1.66085e-07
1.72532e-07
3.07523e-08
-3.6026e-08
-1.45487e-07
1.50761e-07
4.10252e-08
-4.76782e-08
-1.27686e-07
1.34339e-07
5.34567e-08
-5.71662e-08
-4.50914e-08
4.88008e-08
5.91194e-08
-5.78738e-08
8.36572e-08
-8.49027e-08
5.44349e-08
-4.76255e-08
2.22206e-07
-2.29015e-07
3.70756e-08
-2.33093e-08
3.45454e-07
-3.59221e-07
7.2934e-09
8.46558e-09
3.93708e-07
-4.09467e-07
-2.2498e-08
3.2387e-08
3.73399e-07
-3.83288e-07
-4.23093e-08
5.75584e-08
4.09906e-07
-4.25155e-07
-7.77667e-08
1.00362e-07
4.38078e-07
-4.60673e-07
-1.21213e-07
1.42008e-07
3.89079e-07
-4.09875e-07
-1.59657e-07
1.76897e-07
3.17483e-07
-3.34723e-07
-1.99085e-07
2.00688e-07
2.30015e-07
-2.31618e-07
-2.10437e-07
2.32744e-07
9.76179e-08
-1.19926e-07
-2.68356e-07
2.77294e-07
3.19204e-08
-4.08584e-08
-2.68962e-07
2.6009e-07
-1.39061e-07
1.47933e-07
-2.48675e-07
2.35148e-07
-2.23143e-07
2.3667e-07
-2.17724e-07
2.01125e-07
-2.69562e-07
2.86161e-07
-1.84838e-07
1.70454e-07
-2.77001e-07
2.91385e-07
-1.53923e-07
1.37507e-07
-2.65546e-07
2.81961e-07
-1.20495e-07
1.07151e-07
-2.52624e-07
2.65968e-07
-9.58814e-08
8.65992e-08
-2.34941e-07
2.44223e-07
-7.63229e-08
6.65989e-08
-2.14086e-07
2.2381e-07
-5.65843e-08
4.77316e-08
-1.946e-07
2.03452e-07
-3.90856e-08
3.1639e-08
-1.75751e-07
1.83197e-07
-2.45303e-08
1.82524e-08
-1.5998e-07
1.66258e-07
-1.18706e-08
5.97544e-09
-1.45016e-07
1.50911e-07
-1.62189e-07
1.66895e-07
-4.70581e-09
1.07944e-08
-1.50896e-08
-1.48966e-07
1.53261e-07
1.91878e-08
-2.57849e-08
-1.79053e-07
1.8565e-07
3.08137e-08
-3.59996e-08
-1.55998e-07
1.61184e-07
4.10516e-08
-4.82344e-08
-1.41249e-07
1.48432e-07
5.45033e-08
-5.86598e-08
-5.27286e-08
5.6885e-08
6.1112e-08
-6.01802e-08
8.59936e-08
-8.69254e-08
5.72575e-08
-5.07059e-08
2.35703e-07
-2.42255e-07
4.01062e-08
-2.57661e-08
3.73263e-07
-3.87603e-07
8.9629e-09
7.69659e-09
4.25644e-07
-4.42303e-07
-2.18096e-08
3.03667e-08
3.92561e-07
-4.01118e-07
-3.83488e-08
5.36064e-08
4.40426e-07
-4.55683e-07
-7.51707e-08
1.00162e-07
4.84418e-07
-5.09409e-07
-1.22579e-07
1.43677e-07
4.31236e-07
-4.52334e-07
-1.65102e-07
1.82067e-07
3.5275e-07
-3.69715e-07
-2.09547e-07
1.91097e-07
2.21614e-07
-2.03164e-07
-2.12192e-07
2.67824e-07
1.59694e-07
-2.15326e-07
-2.98866e-07
2.94451e-07
4.40796e-08
-3.9665e-08
-2.82216e-07
2.74897e-07
-1.56752e-07
1.64072e-07
-2.66045e-07
2.55101e-07
-2.52088e-07
2.63031e-07
-2.38236e-07
2.17057e-07
-3.05833e-07
3.27012e-07
-1.9199e-07
1.71415e-07
-3.09051e-07
3.29626e-07
-1.5367e-07
1.40841e-07
-2.97732e-07
3.1056e-07
-1.2793e-07
1.16294e-07
-2.76561e-07
2.88198e-07
-1.04456e-07
9.28237e-08
-2.53968e-07
2.656e-07
-8.00549e-08
6.93479e-08
-2.34294e-07
2.45001e-07
-5.82155e-08
4.88745e-08
-2.12846e-07
2.22187e-07
-3.90466e-08
3.01959e-08
-1.91857e-07
2.00708e-07
-2.1648e-08
1.48738e-08
-1.72764e-07
1.79539e-07
-8.92687e-09
4.22547e-09
-1.55827e-07
1.60528e-07
-1.71568e-07
1.76209e-07
-4.64035e-09
1.08334e-08
-1.49853e-08
-1.57488e-07
1.6164e-07
1.89685e-08
-2.57242e-08
-1.92326e-07
1.99081e-07
3.09081e-08
-3.59332e-08
-1.663e-07
1.71325e-07
4.10382e-08
-4.88106e-08
-1.55902e-07
1.63674e-07
5.56074e-08
-6.0256e-08
-6.12814e-08
6.593e-08
6.32347e-08
-6.26346e-08
8.76935e-08
-8.82936e-08
6.03163e-08
-5.40964e-08
2.48651e-07
-2.54871e-07
4.34539e-08
-2.84574e-08
4.02261e-07
-4.17257e-07
1.06967e-08
7.15862e-09
4.59518e-07
-4.77373e-07
-2.14447e-08
2.81998e-08
4.08845e-07
-4.156e-07
-3.35612e-08
4.86399e-08
4.70881e-07
-4.85959e-07
-7.19338e-08
9.99048e-08
5.35787e-07
-5.63758e-07
-1.23983e-07
1.44504e-07
4.72712e-07
-4.93232e-07
-1.7247e-07
1.86433e-07
3.83533e-07
-3.97495e-07
-2.12197e-07
2.07885e-07
1.88043e-07
-1.8373e-07
-2.34485e-07
2.73292e-07
2.71e-07
-3.09807e-07
-2.73643e-07
2.63796e-07
2.63624e-08
-1.65151e-08
-2.72923e-07
2.87492e-07
-1.60552e-07
1.45982e-07
-2.84724e-07
2.6742e-07
-2.74663e-07
2.91967e-07
-2.38785e-07
2.13499e-07
-3.52411e-07
3.77697e-07
-1.94242e-07
1.80929e-07
-3.46053e-07
3.59366e-07
-1.67273e-07
1.52954e-07
-3.24779e-07
3.39099e-07
-1.3559e-07
1.20441e-07
-3.01486e-07
3.16636e-07
-1.04577e-07
9.05195e-08
-2.80042e-07
2.94099e-07
-7.8255e-08
6.86348e-08
-2.56057e-07
2.65677e-07
-5.87204e-08
5.0292e-08
-2.3141e-07
2.39839e-07
-4.16444e-08
3.41448e-08
-2.09177e-07
2.16677e-07
-2.65023e-08
1.95586e-08
-1.8664e-07
1.93583e-07
-1.24771e-08
6.23061e-09
-1.65899e-07
1.72146e-07
-1.80814e-07
1.85383e-07
-4.5688e-09
1.08867e-08
-1.48693e-08
-1.6571e-07
1.69693e-07
1.87259e-08
-2.565e-08
-2.05921e-07
2.12845e-07
3.10592e-08
-3.58224e-08
-1.76234e-07
1.80997e-07
4.09838e-08
-4.94124e-08
-1.71767e-07
1.80195e-07
5.67762e-08
-6.19745e-08
-7.08457e-08
7.6044e-08
6.54961e-08
-6.52477e-08
8.87206e-08
-8.89689e-08
6.36324e-08
-5.78388e-08
2.60891e-07
-2.66685e-07
4.71617e-08
-3.14202e-08
4.32616e-07
-4.48357e-07
1.24961e-08
6.97088e-09
4.95974e-07
-5.15441e-07
-2.15971e-08
2.58518e-08
4.2121e-07
-4.25465e-07
-2.77568e-08
4.23684e-08
5.0085e-07
-5.15462e-07
-6.79412e-08
9.98393e-08
5.93559e-07
-6.25457e-07
-1.24422e-07
1.47082e-07
5.15101e-07
-5.3776e-07
-1.75148e-07
2.07476e-07
4.20714e-07
-4.53042e-07
-2.11582e-07
2.10547e-07
1.82158e-07
-1.81123e-07
-2.41965e-07
2.92052e-07
3.40319e-07
-3.90406e-07
-3.09478e-07
3.53836e-07
3.61788e-08
-8.05371e-08
-4.00321e-07
3.98746e-07
-1.3645e-07
1.38025e-07
-3.80955e-07
3.42173e-07
-3.09383e-07
3.48165e-07
-2.95405e-07
2.54893e-07
-4.07562e-07
4.48074e-07
-2.18151e-07
1.88029e-07
-3.8866e-07
4.18781e-07
-1.62935e-07
1.46062e-07
-3.57663e-07
3.74535e-07
-1.27931e-07
1.14413e-07
-3.32206e-07
3.45725e-07
-1.02033e-07
9.10785e-08
-3.05249e-07
3.16203e-07
-8.15405e-08
7.1658e-08
-2.74677e-07
2.8456e-07
-6.11568e-08
5.25517e-08
-2.48642e-07
2.57247e-07
-4.45682e-08
3.82083e-08
-2.23562e-07
2.29922e-07
-3.11422e-08
2.36933e-08
-2.00947e-07
2.08395e-07
-1.5369e-08
7.73245e-09
-1.79163e-07
1.86799e-07
-1.89914e-07
1.94406e-07
-4.49166e-09
1.09556e-08
-1.47381e-08
-1.73579e-07
1.77362e-07
1.84532e-08
-2.5547e-08
-2.19854e-07
2.26948e-07
3.12367e-08
-3.56467e-08
-1.85593e-07
1.90003e-07
4.08708e-08
-5.00256e-08
-1.88977e-07
1.98132e-07
5.79969e-08
-6.3815e-08
-8.15422e-08
8.73603e-08
6.78805e-08
-6.80078e-08
8.90327e-08
-8.89055e-08
6.72032e-08
-6.19585e-08
2.72221e-07
-2.77466e-07
5.12636e-08
-3.46922e-08
4.64502e-07
-4.81074e-07
1.43589e-08
7.28831e-09
5.35915e-07
-5.57563e-07
-2.25264e-08
2.3273e-08
4.2811e-07
-4.28857e-07
-2.06618e-08
3.42955e-08
5.2967e-07
-5.43303e-07
-6.31528e-08
1.00104e-07
6.59787e-07
-6.96739e-07
-1.22268e-07
1.51787e-07
5.61096e-07
-5.90615e-07
-1.97638e-07
1.93237e-07
4.75735e-07
-4.71334e-07
-1.82754e-07
2.56876e-07
2.06229e-07
-2.80351e-07
-2.92734e-07
3.47458e-07
4.5964e-07
-5.14364e-07
-4.18893e-07
4.32838e-07
1.18943e-07
-1.32888e-07
-4.57844e-07
4.51945e-07
-1.4752e-07
1.5342e-07
-4.33087e-07
4.13364e-07
-3.78002e-07
3.97725e-07
-3.59866e-07
2.93234e-07
-5.04217e-07
5.70849e-07
-2.45183e-07
2.21101e-07
-4.51429e-07
4.75511e-07
-2.01815e-07
1.82078e-07
-3.95085e-07
4.14822e-07
-1.59401e-07
1.3831e-07
-3.62511e-07
3.83602e-07
-1.20796e-07
1.05307e-07
-3.27402e-07
3.4289e-07
-9.08408e-08
7.56246e-08
-2.95763e-07
3.10979e-07
-6.15531e-08
5.1545e-08
-2.67065e-07
2.77073e-07
-4.33882e-08
3.74849e-08
-2.36375e-07
2.42278e-07
-3.07777e-08
2.36856e-08
-2.15939e-07
2.23031e-07
-1.58073e-08
8.11962e-09
-1.94617e-07
2.02305e-07
-1.98856e-07
2.03265e-07