/*--------------------------------*- C++ -*----------------------------------*\
| =========                 |                                                 |
| \\      /  F ield         | OpenFOAM: The Open Source CFD Toolbox           |
|  \\    /   O peration     | Version:  2.4.0                                 |
|   \\  /    A nd           | Web:      www.OpenFOAM.org                      |
|    \\/     M anipulation  |                                                 |
\*---------------------------------------------------------------------------*/
FoamFile
{
    version     2.0;
    format      ascii;
    class       volScalarField;
    location    "0.027";
    object      p_rgh;
}
// * * * * * * * * * * * * * * * * * * * * * * * * * * * * * * * * * * * * * //

dimensions      [1 -1 -2 0 0 0 0];

internalField   nonuniform List<scalar> 
3600
(
98.1736
98.334
98.6726
99.185
99.7364
100.094
100.107
99.6135
98.4744
96.5851
93.8463
90.1878
85.5914
80.1037
73.8087
66.7949
59.1932
51.1976
42.7381
33.5106
27.4105
33.0738
48.5111
36.8295
31.7842
31.2258
32.2395
25.5926
22.2893
25.896
98.1731
98.3333
98.6718
99.1852
99.7389
100.099
100.117
99.6293
98.498
96.619
93.8932
90.2501
85.6717
80.2057
73.9397
66.9624
59.3836
51.2961
42.3674
32.1417
24.6408
29.9314
45.622
36.1038
29.1257
26.9155
24.1765
15.1352
15.1419
20.8961
98.1719
98.3315
98.6696
99.1848
99.7427
100.108
100.134
99.6567
98.5391
96.6785
93.9755
90.359
85.8099
80.3779
74.1555
67.2322
59.6846
51.4771
41.835
29.7924
19.3814
22.7309
33.2725
34.3564
26.0901
24.1484
19.88
13.1883
15.6925
20.0759
98.1699
98.3285
98.6661
99.1836
99.7478
100.121
100.158
99.6962
98.5989
96.7652
94.0962
90.5189
86.0123
80.6262
74.4561
67.5853
60.0326
51.6202
41.1897
26.7261
11.6596
13.1713
19.6369
30.047
19.4032
19.0686
18.9616
19.8063
21.6579
24.2988
98.1671
98.3245
98.6612
99.1817
99.7542
100.137
100.189
99.7479
98.677
96.879
94.2549
90.7295
86.2779
80.9489
74.8392
68.0233
60.4527
51.7811
40.5933
23.4276
2.08505
7.20281
15.1147
26.366
14.6883
17.2156
18.6586
20.7338
21.7208
22.3415
98.1637
98.3194
98.6548
99.1791
99.7617
100.157
100.227
99.8114
98.7732
97.0195
94.4512
90.9903
86.6066
81.346
75.3044
68.5458
60.9513
51.9975
40.1809
21.0735
-6.82207
4.51063
12.7861
25.6302
17.9013
16.6169
18.8867
17.8975
20.3775
17.8843
98.1594
98.3131
98.6469
99.1756
99.7705
100.18
100.273
99.8866
98.8871
97.1862
94.6847
91.3013
86.9984
81.8184
75.8581
69.1814
61.6331
52.5487
40.3278
20.8098
-10.0939
-0.14088
4.37713
20.7619
14.3361
8.91805
17.0613
9.44507
12.0279
9.53273
98.1545
98.3057
98.6376
99.1712
99.7804
100.207
100.324
99.9734
99.0185
97.3787
94.955
91.6621
87.4533
82.3663
76.4997
69.9254
62.4919
53.5239
41.5122
22.4314
-0.313482
-9.41827
4.73148
3.44443
-0.624182
-1.72718
1.74289
0.836785
0.850223
0.647314
98.1488
98.2972
98.6267
99.1659
99.7914
100.237
100.383
100.071
99.1667
97.5963
95.2615
92.0724
87.9714
82.9909
77.2352
70.7967
63.5516
54.8907
43.9002
25.5523
11.8286
-10.2615
-9.19635
-3.72467
-1.14273
0.103205
0.44312
0.379859
0.416107
0.41155
98.1425
98.2876
98.6141
99.1596
99.8035
100.27
100.448
100.18
99.3312
97.8383
95.6033
92.5318
88.5526
83.692
78.0631
71.798
64.8456
56.7121
47.4816
30.8448
19.0436
-6.36785
-0.258165
0.0530961
0.0381729
0.277694
0.413283
0.442809
0.43368
0.424968
98.1354
98.2768
98.6
99.1521
99.8165
100.305
100.519
100.299
99.5114
98.1038
95.9798
93.0399
89.1968
84.4692
78.9804
72.9105
66.297
58.8048
51.0562
38.2447
26.6071
-1.77696
0.564387
0.381465
0.146
0.24842
0.332064
0.370097
0.384921
0.390587
98.1277
98.2649
98.5841
99.1435
99.8304
100.344
100.596
100.429
99.7066
98.392
96.3899
93.5961
89.9039
85.322
79.9848
74.1308
67.8917
61.1189
54.8727
46.1289
36.732
12.0916
0.296119
0.288853
0.243208
0.367086
0.37715
0.382742
0.385852
0.387291
98.1193
98.2518
98.5663
99.1335
99.8451
100.385
100.679
100.568
99.9159
98.7018
96.8326
94.1999
90.6735
86.2489
81.069
75.4362
69.5759
63.5223
58.4826
52.783
47.0685
17.7642
0.256824
0.323082
0.417258
0.370259
0.373111
0.374926
0.376885
0.377912
98.1103
98.2375
98.5467
99.1221
99.8606
100.429
100.767
100.717
100.139
99.0319
97.3064
94.8505
91.5054
87.2493
82.2287
76.8129
71.3116
65.8943
61.6834
58.2575
55.2825
20.1066
0.270284
0.345022
0.355183
0.363681
0.365014
0.367065
0.368528
0.369255
98.1007
98.222
98.5251
99.1092
99.8767
100.474
100.86
100.875
100.373
99.381
97.8101
95.5472
92.3994
88.3218
83.4566
78.2409
73.0637
68.1201
64.1066
61.8744
54.4736
7.15282
0.306879
0.354946
0.346816
0.354922
0.356998
0.358912
0.360176
0.360761
98.0906
98.2053
98.5014
99.0946
99.8934
100.522
100.957
101.042
100.62
99.7475
98.3417
96.2892
93.3558
89.4676
84.7536
79.719
74.8414
70.342
67.1907
63.9758
41.1517
2.29522
0.341291
0.356916
0.34179
0.346936
0.349196
0.350808
0.351822
0.352273
98.0799
98.1874
98.4754
99.0783
99.9107
100.571
101.059
101.216
100.876
100.13
98.8995
97.0754
94.3742
90.6831
86.1033
81.2069
76.5476
72.0783
68.6659
66.7727
39.3582
1.53152
0.329995
0.355323
0.338287
0.340421
0.341758
0.342812
0.343518
0.343834
98.0687
98.1683
98.4472
99.06
99.9284
100.621
101.165
101.399
101.141
100.526
99.481
97.9053
95.4579
91.9809
87.5393
82.7639
78.3411
74.381
71.5419
69.9029
34.4154
1.87433
0.311779
0.337264
0.332347
0.333173
0.334178
0.334816
0.335338
0.33557
98.057
98.1479
98.4165
99.0396
99.9465
100.672
101.275
101.588
101.413
100.934
100.084
98.7765
96.6017
93.331
88.9443
84.2334
79.9881
75.5099
73.146
69.9935
12.3122
0.151733
0.27027
0.322186
0.322514
0.324402
0.326018
0.326737
0.327345
0.327579
98.045
98.1262
98.3832
99.0171
99.9649
100.724
101.388
101.785
101.691
101.352
100.704
99.6907
97.8263
94.8371
90.6476
85.8409
81.7082
77.3768
74.2882
50.0811
2.11084
0.216126
0.270656
0.311414
0.313186
0.316032
0.31803
0.319137
0.319791
0.320044
98.0325
98.1032
98.3472
98.9921
99.9836
100.777
101.503
101.989
101.974
101.777
101.339
100.639
99.0879
96.2152
91.9041
87.3385
84.1253
78.5544
76.1382
27.1441
0.813927
0.209721
0.27887
0.307485
0.308848
0.309324
0.310923
0.312143
0.312778
0.313015
98.0198
98.0789
98.3084
98.9646
100.003
100.829
101.622
102.2
102.259
102.206
101.985
101.637
100.514
98.1672
94.012
88.6378
84.42
80.3555
82.3214
17.9641
0.364904
0.197829
0.280866
0.304722
0.310583
0.302917
0.304437
0.30558
0.306175
0.306391
98.0067
98.0532
98.2665
98.9344
100.022
100.881
101.742
102.418
102.544
102.637
102.631
102.64
101.823
99.5524
95.4868
90.3726
89.0554
79.663
67.3346
3.86225
0.336939
0.274765
0.278412
0.292704
0.296035
0.296755
0.298325
0.299367
0.299922
0.300127
97.9935
98.0261
98.2214
98.9012
100.041
100.932
101.863
102.642
102.828
103.067
103.283
103.738
103.557
101.635
97.4766
91.5962
88.216
77.4767
37.3326
5.03388
0.204736
0.27175
0.279122
0.28888
0.289293
0.2915
0.292733
0.293584
0.294051
0.294228
97.9801
97.9976
98.1729
98.8649
100.061
100.981
101.987
102.874
103.109
103.493
103.91
104.704
104.813
103.321
100.321
94.6454
92.5322
82.6515
14.1903
-0.516894
0.526395
0.301914
0.268341
0.285799
0.284718
0.286561
0.287517
0.288167
0.288525
0.288664
97.9667
97.9676
98.121
98.8252
100.082
101.028
102.11
103.113
103.381
103.91
104.543
105.864
106.415
105.22
102.096
96.3308
95.3119
99.6655
9.2171
0.0239555
0.347427
0.293177
0.270372
0.282281
0.280959
0.282059
0.282617
0.283009
0.283227
0.283312
97.9534
97.9361
98.0653
98.7821
100.103
101.073
102.236
103.363
103.649
104.309
105.096
106.803
108.043
107.643
104.766
99.2769
95.2423
86.7819
2.02605
0.280346
0.320413
0.299679
0.275831
0.279511
0.27747
0.277736
0.277827
0.277951
0.278024
0.278053
97.9401
97.9028
98.0053
98.7342
100.124
101.112
102.358
103.62
103.901
104.696
105.642
107.786
109.603
109.311
106.312
100.615
93.9887
46.8292
0.311016
0.255446
0.306427
0.30603
0.277851
0.276305
0.273685
0.273325
0.272987
0.272886
0.272837
0.272821
97.9271
97.8679
97.943
98.6843
100.148
101.149
102.483
103.887
104.139
105.057
106.142
108.871
111.619
112.008
109.382
103.635
94.9864
25.2885
0.297795
0.254489
0.295244
0.285967
0.27594
0.272164
0.269325
0.268626
0.267996
0.267738
0.267603
0.26756
97.9176
97.8335
97.8674
98.6261
100.174
101.181
102.607
104.182
104.358
105.374
106.534
109.801
113.396
114.461
112.25
106.809
98.6864
27.2671
0.264178
0.239878
0.279304
0.275758
0.27057
0.267098
0.264144
0.263578
0.262792
0.262451
0.262262
0.262208
25.857
22.226
25.5663
32.2647
31.2596
31.8129
36.854
48.4627
33.0047
27.367
33.4889
42.7039
51.1547
59.1472
66.7488
73.7643
80.0626
85.5548
90.1569
93.822
96.5678
98.4637
99.6078
100.105
100.093
99.736
99.1865
98.6732
98.3358
98.1757
20.8606
15.0735
15.0761
24.1748
26.9265
29.1266
36.1412
45.594
29.8631
24.6035
32.1229
42.3342
51.253
59.3374
66.9161
73.8952
80.1645
85.6351
90.2192
93.8689
96.6017
98.4873
99.6236
100.114
100.099
99.7386
99.1867
98.6724
98.335
98.1752
20.0368
15.633
13.1506
19.8803
24.1697
26.1265
34.3932
33.2631
22.7025
19.3676
29.7798
41.803
51.4337
59.6379
67.1856
74.1108
80.3366
85.7733
90.3281
93.9512
96.6613
98.5286
99.6511
100.131
100.108
99.7424
99.1863
98.6702
98.3332
98.174
24.2885
21.6544
19.8005
18.9712
19.0863
19.4327
30.1201
19.6041
13.2348
11.6801
26.7215
41.1593
51.5768
59.9856
67.5384
74.4112
80.5847
85.9756
90.488
94.0719
96.7482
98.5885
99.6908
100.155
100.12
99.7475
99.1852
98.6666
98.3303
98.172
22.3248
21.6901
20.7649
18.6843
17.2382
14.6959
26.3419
15.0865
7.37715
2.12858
23.4316
40.5647
51.738
60.4055
67.9761
74.794
80.9073
86.2411
90.6985
94.2306
96.8621
98.6667
99.7425
100.187
100.137
99.7538
99.1834
98.6617
98.3263
98.1693
17.8634
20.3685
17.9666
18.9355
16.6504
17.9162
25.5986
12.8163
4.70348
-6.78755
21.0811
40.1546
51.955
60.9039
68.4982
75.2589
81.3041
86.5696
90.9593
94.4269
97.0027
98.7632
99.8063
100.225
100.157
99.7614
99.1808
98.6552
98.3211
98.1658
9.51091
12.0136
9.43353
17.0818
8.92952
14.3175
20.7629
4.4622
0.0179765
-10.0972
20.808
40.3022
52.5064
61.5854
69.1335
75.8124
81.7763
86.9613
91.2702
94.6605
97.1697
98.8775
99.8817
100.27
100.18
99.7702
99.1774
98.6473
98.3149
98.1616
0.648512
0.851419
0.835257
1.72534
-1.74125
-0.638607
3.4355
4.96207
-9.36324
-0.251081
22.4096
41.4858
53.4809
62.4438
69.8771
76.4536
82.3239
87.416
91.6309
94.9309
97.3624
99.0091
99.9687
100.322
100.207
99.7801
99.1731
98.6379
98.3075
98.1566
0.411543
0.416218
0.380003
0.443784
0.108188
-1.13103
-3.73017
-9.2616
-10.3867
11.8177
25.5162
43.8722
54.8464
63.503
70.748
77.1887
82.9483
87.9339
92.0412
95.2373
97.5802
99.1578
100.067
100.381
100.237
99.7911
99.1679
98.6269
98.2991
98.151
0.424988
0.43387
0.442577
0.411591
0.274533
0.0403609
0.0677071
-0.150926
-6.56964
18.9827
30.8081
47.4506
56.6664
64.7965
71.7488
78.0161
83.649
88.5149
92.5005
95.5792
97.8225
99.3228
100.176
100.446
100.27
99.8031
99.1617
98.6143
98.2894
98.1446
0.390486
0.384739
0.37016
0.331713
0.244336
0.135166
0.383526
0.580305
-1.78488
26.6154
38.2163
51.0279
58.7581
66.2471
72.8605
78.9329
84.4259
89.1589
93.0085
95.9557
98.0885
99.5035
100.296
100.518
100.305
99.8161
99.1544
98.6
98.2787
98.1376
0.3873
0.385963
0.383008
0.377185
0.368253
0.240762
0.282401
0.287138
12.101
36.7629
46.1359
54.847
61.0719
67.8408
74.08
79.9368
85.2782
89.8657
93.5646
96.3659
98.3771
99.6993
100.426
100.595
100.344
99.83
99.1458
98.584
98.2668
98.1299
0.37791
0.376903
0.375011
0.373327
0.371808
0.422022
0.321
0.252181
17.9265
47.1031
52.7875
58.4564
63.4742
69.5234
75.3844
81.0203
86.2047
90.635
94.1683
96.8085
98.6873
99.9094
100.566
100.678
100.385
99.8447
99.136
98.5661
98.2537
98.1215
0.369245
0.368514
0.367095
0.365165
0.364122
0.354515
0.343856
0.266751
20.1747
55.2362
58.2553
61.6553
65.8435
71.2568
76.7597
82.1793
87.2047
91.4667
94.8188
97.2824
99.0179
100.133
100.715
100.766
100.429
99.8602
99.1248
98.5464
98.2395
98.1126
0.360743
0.360135
0.358892
0.357059
0.35505
0.346604
0.354683
0.305694
7.10412
54.3537
61.8776
64.0719
68.0645
73.0059
78.1863
83.4065
88.2767
92.3603
95.5153
97.786
99.3675
100.369
100.874
100.859
100.475
99.8763
99.1121
98.5246
98.224
98.103
0.352252
0.351764
0.350753
0.349194
0.346954
0.341756
0.357705
0.34
2.29046
41.1914
63.9728
67.1531
70.2793
74.7798
79.663
84.7028
89.4219
93.3164
96.2571
98.3176
99.7347
100.616
101.041
100.957
100.522
99.8931
99.0977
98.5007
98.2074
98.0929
0.343816
0.343439
0.342728
0.341717
0.340416
0.33845
0.356108
0.328943
1.54534
39.5989
66.7634
68.6237
72.005
76.4817
81.1493
86.0519
90.637
94.3344
97.0432
98.8751
100.118
100.873
101.216
101.059
100.572
99.9103
99.0815
98.4746
98.1895
98.0822
0.335538
0.335228
0.334667
0.333983
0.33295
0.332094
0.336786
0.313181
1.9081
34.6025
69.8693
71.4695
74.2947
78.271
82.7056
87.4876
91.9343
95.4177
97.8728
99.4565
100.515
101.139
101.399
101.166
100.622
99.928
99.0634
98.4462
98.1704
98.071
0.327531
0.327184
0.326503
0.325573
0.323771
0.321551
0.320473
0.265929
0.14666
12.4074
69.9295
73.0465
75.4007
79.9135
84.1733
88.892
93.2838
96.5611
98.7438
100.059
100.924
101.413
101.59
101.275
100.674
99.9461
99.0432
98.4153
98.1501
98.0594
0.319981
0.319584
0.318775
0.317523
0.314925
0.311694
0.309464
0.266082
0.210526
2.08086
49.7353
74.125
77.2504
81.632
85.7822
90.5956
94.7894
97.7852
99.6577
100.679
101.342
101.693
101.788
101.388
100.726
99.9646
99.0208
98.3819
98.1284
98.0473
0.312941
0.312528
0.311695
0.310208
0.307858
0.306195
0.308168
0.27532
0.205681
0.741214
26.4752
75.881
78.4122
84.0503
87.2799
91.8531
96.1673
99.0462
100.606
101.313
101.768
101.978
101.993
101.504
100.779
99.9834
98.996
98.3457
98.1054
98.0349
0.306319
0.305933
0.305152
0.303739
0.301691
0.309381
0.303584
0.278547
0.19887
0.354033
17.968
81.9826
80.2679
84.3525
88.5802
93.9595
98.1174
100.472
101.603
101.957
102.199
102.265
102.205
101.622
100.831
100.002
98.9686
98.3066
98.0811
98.0222
0.300067
0.299727
0.299029
0.297792
0.295995
0.294364
0.291252
0.277813
0.272035
0.336633
3.98385
66.7855
79.6146
89.0089
90.3219
95.4396
99.5037
101.78
102.606
102.603
102.632
102.553
102.423
101.743
100.883
100.022
98.9384
98.2645
98.0554
98.0092
0.294185
0.293912
0.293364
0.292419
0.291223
0.288172
0.288811
0.282177
0.267542
0.204723
4.90442
37.6996
77.5399
88.1776
91.5468
97.4258
101.582
103.512
103.703
103.253
103.064
102.839
102.649
101.864
100.934
100.042
98.9053
98.2192
98.0283
97.996
0.288631
0.288422
0.288
0.287294
0.286297
0.284154
0.285943
0.271061
0.298582
0.510062
-0.492631
14.8683
82.7611
92.4866
94.6067
100.283
103.269
104.767
104.67
103.877
103.492
103.123
102.882
101.987
100.984
100.062
98.869
98.1706
97.9998
97.9827
0.283288
0.283153
0.282888
0.282452
0.281852
0.280667
0.28231
0.271366
0.28965
0.337539
0.0140932
9.20198
99.5113
95.2249
96.2825
102.049
105.164
106.366
105.828
104.507
103.91
103.398
103.122
102.111
101.031
100.082
98.8293
98.1185
97.9697
97.9693
0.278039
0.27798
0.277878
0.277726
0.277607
0.277304
0.279344
0.275589
0.297741
0.313396
0.272821
2.13925
86.4831
95.135
99.2346
104.739
107.597
107.992
106.767
105.059
104.312
103.671
103.374
102.236
101.076
100.104
98.7861
98.0627
97.9381
97.956
0.272819
0.272829
0.272873
0.272963
0.273288
0.273616
0.276199
0.277255
0.301187
0.302504
0.254918
0.322831
46.2729
93.9048
100.567
106.273
109.263
109.554
107.749
105.599
104.702
103.927
103.632
102.357
101.116
100.125
98.7381
98.0025
97.9047
97.9428
0.267574
0.267638
0.267799
0.268053
0.26868
0.269356
0.272182
0.275903
0.285234
0.292467
0.254803
0.30621
25.0426
94.9333
103.612
109.342
111.959
111.567
108.833
106.094
105.067
104.17
103.901
102.481
101.153
100.15
98.6879
97.9401
97.8697
97.9298
0.262245
0.262362
0.262585
0.262925
0.263711
0.264289
0.267264
0.270596
0.275508
0.278352
0.240075
0.270215
27.1278
98.6252
106.799
112.215
114.41
113.347
109.765
106.479
105.388
104.394
104.198
102.604
101.186
100.176
98.6294
97.8643
97.8352
97.9205
11.9311
16.0882
31.0215
54.1864
76.397
97.6269
102.695
104.402
104.509
105.596
106.748
110.41
114.661
116.169
113.509
108.646
98.4352
20.8974
0.251533
0.221319
0.270181
0.267309
0.263682
0.262367
0.259618
0.259515
0.258697
0.258344
0.258123
0.258067
0.0763363
-0.0436499
-0.305678
2.04248
12.8822
42.7486
81.6217
103.961
104.615
105.753
106.881
110.822
115.532
117.476
114.915
110.399
100.934
19.302
0.253639
0.206086
0.262069
0.260833
0.258147
0.258637
0.256288
0.256501
0.255758
0.255402
0.255173
0.255118
0.0772902
-0.0417083
-0.302347
1.24141
10.6399
25.4169
49.3891
77.7408
98.2559
105.928
107.042
111.247
116.589
118.805
116.148
112.087
102.991
11.276
0.243958
0.198261
0.253173
0.253957
0.251921
0.254285
0.252557
0.253134
0.25253
0.252183
0.251952
0.251896
0.0775677
-0.0414436
-0.309501
1.94053
10.8135
30.2115
57.9356
86.5145
97.5387
104.528
107.375
111.831
117.945
120.25
118.027
113.5
107.622
8.8876
0.236229
0.193838
0.243807
0.247295
0.245522
0.24952
0.248441
0.249427
0.24897
0.248654
0.248429
0.248371
0.0783518
-0.0398373
-0.31922
-0.0442059
0.145544
0.0362828
2.71299
43.0752
86.2459
105.061
107.621
112.273
119.547
122.25
120.109
113.38
96.0463
4.05
0.227891
0.194427
0.234231
0.241575
0.239809
0.24414
0.244269
0.245233
0.245079
0.244785
0.244568
0.244508
0.0795802
-0.0317816
-0.315887
-0.11858
0.144121
0.0434933
0.0300177
-0.0101449
22.1427
86.6527
108.117
112.525
121.017
124.414
121.785
113.115
86.193
2.39651
0.218145
0.190931
0.236231
0.235912
0.235492
0.238303
0.239734
0.240671
0.240736
0.240508
0.240316
0.240262
0.107996
0.0618258
-0.280368
-0.13387
0.139104
0.0426681
0.0297962
-0.00657702
2.60662
40.0078
98.138
113.173
122.324
126.736
124.259
115.08
57.3083
0.0278596
0.203974
0.177759
0.226643
0.237983
0.228963
0.23201
0.234552
0.235595
0.235823
0.235712
0.23558
0.235548
0.154602
0.0545722
-0.221333
-0.144205
0.131788
0.0423117
0.0263694
-0.0293266
-0.105157
15.6847
77.6033
112.427
123.996
129.498
128.34
112.312
34.485
0.122666
0.178088
0.175304
0.220583
0.224124
0.221413
0.225096
0.228335
0.229745
0.230181
0.230246
0.230221
0.230232
0.0817264
0.0368586
-0.255494
-0.151634
0.121576
0.040294
0.0249602
-0.0247329
-0.16329
0.130802
39.0219
104.182
126.514
132.578
129.817
89.5066
8.94707
0.212644
0.168961
0.18715
0.20552
0.211567
0.213841
0.217284
0.221046
0.222979
0.223724
0.224001
0.224109
0.224179
0.0646575
0.00519234
-0.279358
-0.153937
0.109567
0.0370637
0.0136636
-0.0393436
-0.14641
0.0723616
11.3116
86.1981
129.975
135.784
133.326
89.5028
7.49283
0.252644
0.204134
0.19602
0.205771
0.204401
0.206176
0.209219
0.213256
0.215578
0.216595
0.217042
0.217251
0.217365
0.0573192
-0.0969031
-0.326885
-0.151089
0.0967605
0.0329176
0.00827224
-0.0477565
-0.133152
-0.0293726
-0.69117
42.3335
130.271
139.414
137.409
83.8784
8.56521
0.273635
0.178264
0.200267
0.199453
0.193806
0.200228
0.202746
0.20623
0.208246
0.209177
0.209599
0.209801
0.209914
0.0515864
-0.0983833
-0.305918
-0.144252
0.0837835
0.0283382
0.00446571
-0.0467574
-0.112488
-0.0407276
-0.318787
20.8514
116.184
143.822
133.459
40.1555
2.05439
0.234132
0.216808
0.199555
0.183786
0.182184
0.193793
0.198239
0.200555
0.20149
0.201745
0.201845
0.201887
0.201933
0.0452904
-0.0901022
-0.280046
-0.135176
0.0709581
0.0235354
0.000792957
-0.0490552
-0.109374
-0.0607371
-0.279478
-0.0366777
71.191
148.209
101.84
-0.138715
-0.224699
0.3291
0.23088
0.165609
0.162328
0.172529
0.188545
0.195204
0.195751
0.194925
0.194153
0.193665
0.193414
0.193339
0.0390358
-0.0807658
-0.253339
-0.125244
0.0585003
0.0186584
-0.00262932
-0.0481557
-0.0916634
-0.0607351
-0.259428
-0.0934311
12.2505
77.9505
87.7892
2.06498
-0.0351869
0.276247
0.213469
0.15985
0.14513
0.166022
0.189446
0.195107
0.191351
0.187668
0.18556
0.184455
0.183917
0.183726
0.0330372
-0.0718256
-0.227136
-0.115263
0.0465942
0.0137898
-0.00581603
-0.0464856
-0.0853474
-0.0960449
-0.214075
-0.106449
-0.0986342
3.34157
3.33537
-0.0256466
0.0449358
0.0938097
0.169397
0.15394
0.141927
0.157451
0.168238
0.17256
0.173007
0.172961
0.172612
0.17231
0.172138
0.172085
0.0273907
-0.0637427
-0.202079
-0.105674
0.0354186
0.00900039
-0.00878621
-0.0445978
-0.0783968
-0.0857717
-0.172697
-0.0977118
-0.0531996
-0.0811491
-0.168763
-0.296619
0.00217497
0.170885
0.137958
0.136251
0.136763
0.144979
0.152028
0.155917
0.157668
0.158485
0.158813
0.158938
0.158992
0.159026
0.0221582
-0.0565385
-0.178378
-0.09659
0.0251431
0.00437138
-0.0115043
-0.0426115
-0.0717628
-0.0858617
-0.141464
-0.0827727
-0.0585442
-0.0714181
-0.133319
-0.166608
-0.0294036
0.0696254
0.10621
0.118316
0.122519
0.13031
0.135881
0.139719
0.142131
0.143565
0.14438
0.144836
0.145083
0.145199
0.0173905
-0.0501411
-0.156129
-0.088012
0.0159218
-3.39687e-06
-0.0139132
-0.0405191
-0.0656544
-0.0805593
-0.115731
-0.0840811
-0.0721304
-0.0594038
-0.101976
-0.106212
-0.0300491
0.0721822
0.0836466
0.0989788
0.106937
0.114157
0.119681
0.12364
0.126318
0.128061
0.129162
0.129832
0.130206
0.130372
0.0131306
-0.0444806
-0.135477
-0.0799257
0.00790114
-0.00401694
-0.0159515
-0.0382947
-0.0598606
-0.0738883
-0.0955722
-0.0751253
-0.0648627
-0.0557842
-0.0704816
-0.0664325
0.010598
0.0403785
0.0684832
0.082828
0.0927099
0.0998066
0.105038
0.108772
0.111366
0.113127
0.11429
0.115021
0.115437
0.115621
0.0094107
-0.0394762
-0.116826
-0.0723291
0.00120808
-0.00755462
-0.0175437
-0.0359567
-0.0542469
-0.0665507
-0.0796232
-0.0678955
-0.0606172
-0.0502958
-0.0546563
-0.0419132
-0.012991
0.0286629
0.0510664
0.0668244
0.0772435
0.0845779
0.0898381
0.0936035
0.0962687
0.0981143
0.0993481
0.100127
0.100568
0.100759
0.0062503
-0.0350281
-0.100991
-0.0652333
-0.00403096
-0.0104968
-0.0186132
-0.0335219
-0.0487529
-0.0589872
-0.0667932
-0.0598574
-0.0528784
-0.043832
-0.0386249
-0.0257245
0.00813243
0.0247017
0.0418504
0.0546644
0.0641617
0.0709312
0.0758612
0.0794264
0.081973
0.0837538
0.0849551
0.085718
0.0861505
0.0863348
0.00365575
-0.0309885
-0.0854937
-0.0586541
-0.00766199
-0.0127279
-0.0191197
-0.0309747
-0.0433606
-0.0515039
-0.0561024
-0.0516044
-0.0452128
-0.0369465
-0.0287587
-0.0159743
0.0019168
0.0195372
0.03346
0.0443289
0.0525522
0.0586292
0.063078
0.0663205
0.0686526
0.0702897
0.0713955
0.0720966
0.072492
0.0726578
0.00161898
-0.0272436
-0.071433
-0.0524827
-0.00976001
-0.0141262
-0.0190486
-0.028281
-0.0380683
-0.0442935
-0.0468958
-0.0435551
-0.0377474
-0.0301442
-0.0213037
-0.00995569
0.00360528
0.0162411
0.0269915
0.0356386
0.0423825
0.0475223
0.0513732
0.0542153
0.0562727
0.0577223
0.0587042
0.0593277
0.0596786
0.0598235
0.000117241
-0.0236899
-0.0588265
-0.0462683
-0.0108081
-0.0146115
-0.0184174
-0.0254088
-0.0328842
-0.0374528
-0.038784
-0.0360049
-0.0308422
-0.0240081
-0.0158768
-0.00641562
0.00368395
0.0132709
0.021551
0.0283494
0.0337491
0.0379321
0.041108
0.0434735
0.0451968
0.0464163
0.0472436
0.0477685
0.0480623
0.0481815
-0.000885832
-0.0202355
-0.0475536
-0.0396524
-0.0112224
-0.0142737
-0.0171817
-0.0223243
-0.0278106
-0.0310165
-0.0315358
-0.0291008
-0.0246313
-0.0187393
-0.0118308
-0.0042513
0.00343561
0.0105967
0.0168385
0.0220305
0.0262092
0.0294879
0.0320043
0.0338937
0.0352775
0.0362597
0.0369266
0.0373489
0.0375837
0.0376765
-0.00143841
-0.0168012
-0.0374432
-0.0327897
-0.0108633
-0.0131869
-0.0153415
-0.018989
-0.022839
-0.0249754
-0.0250056
-0.0228905
-0.0191737
-0.014348
-0.00881838
-0.00297291
0.00277335
0.0080622
0.0126743
0.0165349
0.0196666
0.0221425
0.0240553
0.0254991
0.0265607
0.0273159
0.027829
0.0281533
0.0283323
0.0284012
-0.00159781
-0.0133188
-0.0282821
-0.025765
-0.00966515
-0.0114331
-0.0128987
-0.0153728
-0.0179418
-0.0192874
-0.0190779
-0.017346
-0.0144396
-0.0107349
-0.00657709
-0.00228621
0.00185196
0.00562293
0.00890465
0.0116578
0.0138999
0.0156803
0.017061
0.0181063
0.0188763
0.0194243
0.0197963
0.0200306
0.0201586
0.0202062
-0.00142742
-0.0097294
-0.0198299
-0.0186267
-0.00796164
-0.00872957
-0.00985923
-0.0114562
-0.0130691
-0.0138763
-0.0136326
-0.0123774
-0.0103321
-0.00775897
-0.00491092
-0.00201368
0.000749526
0.003252
0.00542556
0.00725038
0.00873957
0.00992484
0.0108461
0.0115446
0.0120596
0.0124262
0.0126747
0.0128306
0.012915
0.0129452
-0.000992553
-0.00597482
-0.0117889
-0.011363
-0.00539749
-0.00556887
-0.00630016
-0.00722486
-0.00814462
-0.00862417
-0.00851442
-0.00783265
-0.00669589
-0.00525389
-0.00365646
-0.00203496
-0.000491807
0.00090463
0.0021184
0.00313927
0.00397442
0.00464085
0.00516007
0.00555458
0.00584587
0.00605334
0.0061939
0.00628187
0.00632916
0.00634549
-0.000375499
-0.0020282
-0.00394645
-0.00384767
-0.00205576
-0.00203152
-0.00229522
-0.00264988
-0.00304048
-0.00334089
-0.00348985
-0.00347196
-0.0033038
-0.00301994
-0.00266317
-0.00227423
-0.00188684
-0.0015251
-0.00120334
-0.000927876
-0.000699335
-0.000514874
-0.000369819
-0.000258765
-0.000176261
-0.000117204
-7.70467e-05
-5.18825e-05
-3.84463e-05
-3.40669e-05
0.258129
0.258287
0.258552
0.25889
0.259695
0.259829
0.262624
0.263843
0.267206
0.269093
0.221293
0.258995
20.7214
98.4365
108.62
113.444
116.108
114.603
110.375
106.685
105.613
104.549
104.42
102.691
97.5837
76.5864
54.0488
31.0021
16.078
11.9222
0.255195
0.255375
0.255656
0.255992
0.256716
0.256538
0.258942
0.25839
0.260853
0.261897
0.207565
0.26004
19.1537
101.103
110.385
114.854
117.414
115.473
110.789
106.815
105.771
104.659
104.01
81.5216
42.5785
13.0004
2.02486
-0.307537
-0.0422196
0.0794008
0.251981
0.252177
0.252465
0.252793
0.253384
0.252855
0.254643
0.252263
0.253995
0.254077
0.200651
0.248812
11.3223
103.193
112.081
116.084
118.742
116.533
111.213
106.968
105.949
98.2099
77.6078
49.3515
25.5113
10.5217
1.24906
-0.304276
-0.0402577
0.0803644
0.248457
0.24866
0.248949
0.249252
0.249708
0.248792
0.249929
0.245984
0.247587
0.244489
0.196278
0.239807
8.97459
107.827
113.503
117.965
120.19
117.888
111.798
107.297
104.551
97.5947
86.6603
57.9987
30.173
10.858
1.96015
-0.311742
-0.03997
0.0806594
0.244593
0.244796
0.245078
0.245371
0.245538
0.244654
0.244605
0.240357
0.241894
0.235221
0.196709
0.231534
4.04285
96.1633
113.39
120.024
122.193
119.492
112.249
107.534
105.118
86.6402
43.6221
2.82926
0.0384878
0.147866
-0.0463079
-0.320597
-0.0373536
0.0814828
0.240343
0.240534
0.240794
0.241031
0.240992
0.240145
0.238848
0.236143
0.236296
0.237865
0.192589
0.221498
2.42624
86.2599
113.11
121.664
124.357
120.966
112.505
108.031
86.5532
22.4531
-0.00923612
0.0265176
0.0457395
0.146379
-0.121223
-0.315438
-0.0253056
0.082713
0.235625
0.235789
0.235993
0.236126
0.235934
0.235002
0.232646
0.229607
0.239301
0.228515
0.17922
0.207043
0.0266656
57.1609
115.038
124.122
126.682
122.276
113.145
98.1285
39.9729
2.51157
-0.0067387
0.0263133
0.0449597
0.141167
-0.136287
-0.281859
0.0647602
0.111655
0.230307
0.230426
0.230532
0.230507
0.230127
0.228868
0.225844
0.222234
0.22515
0.221302
0.177202
0.180849
0.123702
34.2155
112.257
128.337
129.449
123.95
112.46
77.4351
15.4592
-0.0877004
-0.029341
0.0229058
0.0445733
0.133635
-0.146572
-0.226005
0.053085
0.155973
0.224253
0.224317
0.224305
0.22409
0.223433
0.221692
0.218151
0.214646
0.21226
0.206972
0.188754
0.171669
0.214634
8.85108
89.3792
129.824
132.536
126.467
104.128
38.4803
0.114225
-0.151805
-0.0240153
0.0225126
0.0424118
0.123186
-0.153778
-0.260293
0.0349823
0.0825368
0.217439
0.217461
0.217361
0.217001
0.216096
0.213977
0.210132
0.20694
0.20498
0.206271
0.197495
0.207338
0.254826
7.42608
89.4224
133.337
135.754
129.912
86.451
11.4177
0.0790158
-0.135634
-0.0394751
0.0104567
0.0390155
0.11093
-0.155846
-0.287482
0.00121078
0.0654928
0.209984
0.210004
0.209911
0.20958
0.208747
0.206895
0.203572
0.201014
0.194722
0.199466
0.201328
0.18074
0.274642
8.52405
83.6039
137.391
139.39
130.22
42.2683
-0.710326
-0.022559
-0.123576
-0.0484022
0.00537106
0.0346817
0.0978639
-0.152771
-0.332407
-0.0996728
0.0582036
0.201995
0.202065
0.202117
0.202095
0.201872
0.201045
0.198857
0.194598
0.183422
0.184051
0.20007
0.218814
0.236309
2.0379
39.6147
133.322
143.801
116.169
21.1978
-0.327835
-0.0378866
-0.103842
-0.0462746
0.00210061
0.0299428
0.0846342
-0.145757
-0.310527
-0.100056
0.0523387
0.193388
0.193554
0.193869
0.19439
0.195167
0.196026
0.195629
0.189444
0.173738
0.162997
0.166414
0.23296
0.335866
-0.219614
-0.104148
101.565
148.185
71.267
-0.0742536
-0.287046
-0.0609566
-0.102928
-0.0484482
-0.00105699
0.0249904
0.0715728
-0.136564
-0.284227
-0.0915594
0.0459282
0.183763
0.184017
0.184591
0.185693
0.187751
0.191394
0.195384
0.190705
0.167773
0.145921
0.159887
0.214014
0.280201
-0.0275686
2.1413
87.795
78.2561
12.327
-0.0946188
-0.265097
-0.0592253
-0.0854737
-0.0474242
-0.00400244
0.0199701
0.058903
-0.126562
-0.257125
-0.0820682
0.0395698
0.172118
0.172233
0.172454
0.172793
0.173192
0.173356
0.172938
0.169068
0.158708
0.142787
0.154036
0.170296
0.0962175
0.0504052
-0.0363539
3.26893
3.38112
-0.106642
-0.107047
-0.218234
-0.0948885
-0.0807522
-0.045729
-0.00678242
0.0149616
0.0468121
-0.116541
-0.230554
-0.0730026
0.0334748
0.159054
0.159074
0.159064
0.158976
0.158691
0.157942
0.156276
0.152596
0.145737
0.137385
0.136701
0.138819
0.173648
0.00275185
-0.306675
-0.17607
-0.0880084
-0.0589576
-0.0998615
-0.17595
-0.0849761
-0.0749952
-0.0438906
-0.00942484
0.0100342
0.035477
-0.106909
-0.205145
-0.0648059
0.0277392
0.145221
0.145148
0.144936
0.144508
0.143722
0.142329
0.139982
0.136249
0.130788
0.122922
0.118527
0.106433
0.0697962
-0.0299218
-0.172408
-0.137656
-0.0771064
-0.0634197
-0.0851654
-0.143884
-0.0855236
-0.069287
-0.0419952
-0.0118894
0.0052684
0.0250682
-0.0977725
-0.181108
-0.0574956
0.0224257
0.130389
0.130254
0.129905
0.129255
0.128169
0.126444
0.123796
0.119879
0.114378
0.107078
0.0989569
0.0834616
0.0712894
-0.0317077
-0.110423
-0.106149
-0.0642087
-0.0761106
-0.0866006
-0.117693
-0.0803104
-0.063902
-0.0400165
-0.0141127
0.000757907
0.0157434
-0.0891291
-0.158545
-0.0509999
0.0175859
0.115631
0.115463
0.115056
0.114326
0.113157
0.111383
0.108772
0.105012
0.0997245
0.0924883
0.0826232
0.0680683
0.0395006
0.00870692
-0.0694231
-0.0741905
-0.0596784
-0.0681737
-0.0775184
-0.0972208
-0.0738596
-0.0586717
-0.0379149
-0.0160227
-0.00338951
0.00764824
-0.0809652
-0.137598
-0.0452494
0.0132636
0.100763
0.100576
0.100132
0.0993426
0.0980896
0.0962176
0.0935186
0.0897074
0.0843796
0.0769439
0.0663741
0.050385
0.0275773
-0.0146744
-0.0444037
-0.0576647
-0.053476
-0.0634663
-0.0700663
-0.0810492
-0.0666991
-0.0534936
-0.0356844
-0.0175412
-0.0070559
0.000912728
-0.0732901
-0.118662
-0.040163
0.00949143
0.0863329
0.0861425
0.0856975
0.0849137
0.0836829
0.081864
0.0792705
0.0756483
0.0706512
0.0638182
0.0540163
0.0410157
0.023537