/*--------------------------------*- C++ -*----------------------------------*\
| =========                 |                                                 |
| \\      /  F ield         | OpenFOAM: The Open Source CFD Toolbox           |
|  \\    /   O peration     | Version:  2.4.0                                 |
|   \\  /    A nd           | Web:      www.OpenFOAM.org                      |
|    \\/     M anipulation  |                                                 |
\*---------------------------------------------------------------------------*/
FoamFile
{
    version     2.0;
    format      ascii;
    class       surfaceScalarField;
    location    "0.493";
    object      phiAlpha;
}
// * * * * * * * * * * * * * * * * * * * * * * * * * * * * * * * * * * * * * //

dimensions      [0 3 -1 0 0 0 0];

internalField   nonuniform List<scalar> 
19800
(
6.19531e-61
-9.99096e-57
2.52151e-58
5.59993e-58
-1.59553e-51
4.0338e-54
-8.55627e-49
3.12832e-51
-1.40981e-46
7.83237e-49
-9.78548e-45
8.34065e-47
-3.31311e-43
4.245e-45
-6.0557e-42
1.12956e-43
-6.53481e-41
1.69564e-42
-4.60157e-40
1.54828e-41
-2.59374e-39
9.4173e-41
-1.28712e-38
4.64998e-40
-5.85e-38
2.03969e-39
-2.6512e-37
8.2364e-39
-1.19126e-36
3.3232e-38
-5.44104e-36
1.32913e-37
-2.47213e-35
5.3943e-37
-1.04943e-34
2.17212e-36
-4.03809e-34
8.14944e-36
-1.39544e-33
2.7657e-35
-4.3491e-33
8.42525e-35
-1.2274e-32
2.31992e-34
-3.12921e-32
5.81927e-34
-7.16013e-32
1.33259e-33
-1.45431e-31
2.77931e-33
-2.6219e-31
5.23224e-33
-4.33621e-31
8.87143e-33
-6.40532e-31
1.38927e-32
-7.91399e-31
1.92917e-32
-7.60339e-31
2.17859e-32
-5.77569e-31
1.80372e-32
-3.46404e-31
1.05541e-32
-1.71135e-31
3.80931e-33
-7.44153e-32
3.50207e-34
-3.07418e-32
-3.07473e-31
-1.22853e-32
-3.31546e-31
-4.59618e-33
-2.16978e-31
-1.57557e-33
-1.08e-31
-5.01482e-34
-4.3608e-32
-1.51212e-34
-1.48785e-32
-4.13356e-35
-4.32198e-33
-1.00877e-35
-1.05583e-33
-2.34711e-36
-2.15887e-34
-5.83167e-37
-3.93424e-35
-1.30413e-37
-6.61459e-36
-2.84007e-38
-9.69569e-37
-1.57995e-38
-1.48743e-37
-3.33302e-38
-7.33053e-38
-9.33932e-38
-1.60967e-37
-5.632e-37
-2.95554e-37
-2.20236e-53
-5.20337e-54
-1.00143e-49
1.72552e-52
-6.02009e-47
2.36623e-49
-1.19461e-44
7.91255e-47
-1.04772e-42
1.05575e-44
-4.66727e-41
6.85301e-43
-1.15419e-39
2.39797e-41
-1.70359e-38
4.85207e-40
-1.61402e-37
6.03443e-39
-1.09816e-36
4.92168e-38
-6.18468e-36
2.92757e-37
-2.87033e-35
1.45696e-36
-1.21139e-34
6.01633e-36
-4.9969e-34
2.26761e-35
-2.04712e-33
8.36359e-35
-8.5009e-33
3.06149e-34
-3.4876e-32
1.1336e-33
-1.34261e-31
4.13546e-33
-4.68862e-31
1.41159e-32
-1.47204e-30
4.3612e-32
-4.1872e-30
1.2105e-31
-1.08737e-29
3.04915e-31
-2.57559e-29
7.04741e-31
-5.52434e-29
1.4991e-30
-1.06201e-28
2.92419e-30
-1.81679e-28
5.18648e-30
-2.8663e-28
8.28943e-30
-4.11517e-28
1.22881e-29
-5.18085e-28
1.64603e-29
-5.36666e-28
1.88302e-29
-4.62344e-28
1.67675e-29
-3.30052e-28
1.11748e-29
-1.97526e-28
4.91856e-30
-1.03039e-28
7.19442e-31
-4.9122e-29
-1.00133e-28
-2.17451e-29
-1.29793e-28
-8.86848e-30
-9.55702e-29
-3.33862e-30
-5.24441e-29
-1.17699e-30
-2.31345e-29
-3.86662e-31
-8.54744e-30
-1.16179e-31
-2.66104e-30
-3.1657e-32
-6.93916e-31
-8.29838e-33
-1.51387e-31
-2.14818e-33
-2.86013e-32
-5.06575e-34
-4.54774e-33
-1.22471e-34
-5.61078e-34
-8.24886e-35
-5.78544e-35
-1.94114e-34
-1.29449e-35
-5.98007e-34
-2.60345e-35
-2.41198e-34
-2.0862e-33
-1.14575e-49
6.47041e-53
-1.87585e-46
5.79386e-49
-6.6704e-44
4.33412e-46
-9.12478e-42
9.81513e-44
-5.99978e-40
9.67506e-42
-2.13622e-38
4.90872e-40
-4.46441e-37
1.41066e-38
-5.86653e-36
2.45732e-37
-5.24432e-35
2.75655e-36
-3.54635e-34
2.14132e-35
-1.90187e-33
1.2747e-34
-8.26733e-33
6.07217e-34
-3.24391e-32
2.35785e-33
-1.22637e-31
8.28811e-33
-4.60816e-31
2.80873e-32
-1.75475e-30
9.44984e-32
-6.59008e-30
3.21441e-31
-2.33252e-29
1.07512e-30
-7.48993e-29
3.37867e-30
-2.164e-28
9.60923e-30
-5.68319e-28
2.45637e-29
-1.37098e-27
5.71429e-29
-3.0413e-27
1.22633e-28
-6.16598e-27
2.43968e-28
-1.13176e-26
4.48738e-28
-1.86874e-26
7.57402e-28
-2.82234e-26
1.1641e-27
-3.9859e-26
1.64653e-27
-5.08944e-26
2.16544e-27
-5.56828e-26
2.51351e-27
-5.20125e-26
2.37333e-27
-4.16492e-26
1.73274e-27
-2.85533e-26
8.80315e-28
-1.70626e-26
1.80475e-28
-9.20301e-27
-7.59736e-27
-4.53464e-27
-1.19195e-26
-2.03935e-27
-9.82013e-27
-8.43615e-28
-5.89886e-27
-3.2545e-28
-2.81821e-27
-1.16443e-28
-1.11365e-27
-3.82666e-29
-3.67105e-28
-1.15628e-29
-1.00583e-28
-3.35595e-30
-2.28134e-29
-9.28142e-31
-4.24312e-30
-2.35409e-31
-5.72623e-31
-6.43645e-32
-2.92031e-32
-5.33186e-32
1.05231e-34
-1.39755e-31
1.44524e-34
-4.55089e-31
3.62467e-34
7.65114e-34
-1.59383e-30
-4.6869e-47
5.70812e-50
-5.51057e-44
2.68853e-46
-1.53024e-41
1.47602e-43
-1.71335e-39
2.67239e-41
-9.55413e-38
2.20235e-39
-2.97904e-36
9.6413e-38
-5.63782e-35
2.4596e-36
-6.96535e-34
3.92097e-35
-6.0698e-33
4.169e-34
-4.01402e-32
3.17668e-33
-2.04933e-31
1.85819e-32
-8.43466e-31
8.45774e-32
-3.09261e-30
3.11836e-31
-1.07827e-29
1.0265e-30
-3.726e-29
3.21349e-30
-1.30194e-28
9.9548e-30
-4.48985e-28
3.10989e-29
-1.46748e-27
9.55667e-29
-4.3715e-27
2.77398e-28
-1.1734e-26
7.31825e-28
-2.86657e-26
1.73706e-27
-6.46305e-26
3.75484e-27
-1.35084e-25
7.51801e-27
-2.60386e-25
1.40569e-26
-4.58651e-25
2.45081e-26
-7.3288e-25
3.95731e-26
-1.06998e-24
5.8715e-26
-1.48623e-24
8.02096e-26
-1.90706e-24
1.03921e-25
-2.16971e-24
1.21813e-25
-2.1517e-24
1.20682e-25
-1.86991e-24
9.49999e-26
-1.41772e-24
5.41425e-26
-9.45745e-25
1.44951e-26
-5.67899e-25
-2.35393e-25
-3.08442e-25
-4.56165e-25
-1.51891e-25
-4.19685e-25
-6.86633e-26
-2.75166e-25
-2.87944e-26
-1.40995e-25
-1.11802e-26
-5.89144e-26
-4.00523e-27
-2.02676e-26
-1.33407e-27
-5.69563e-27
-4.23631e-28
-1.27943e-27
-1.262e-28
-2.0786e-28
-3.46955e-29
-1.11191e-29
-1.07167e-29
1.30844e-31
-1.04287e-29
7.09545e-32
-2.91269e-29
7.78483e-32
-9.56173e-29
2.01743e-31
5.26088e-31
-3.19843e-28
-5.27342e-45
1.02461e-47
-5.31682e-42
3.67945e-44
-1.29572e-39
1.70972e-41
-1.29385e-37
2.71802e-39
-6.5328e-36
2.00935e-37
-1.87681e-34
8.02232e-36
-3.34461e-33
1.89885e-34
-3.99104e-32
2.86799e-33
-3.42475e-31
2.96054e-32
-2.21404e-30
2.23078e-31
-1.08817e-29
1.27992e-30
-4.2901e-29
5.62297e-30
-1.47925e-28
1.98981e-29
-4.7795e-28
6.16853e-29
-1.51327e-27
1.79119e-28
-4.83089e-27
5.08653e-28
-1.53157e-26
1.45184e-27
-4.65044e-26
4.10015e-27
-1.294e-25
1.10482e-26
-3.24678e-25
2.71935e-26
-7.42542e-25
6.02326e-26
-1.57349e-24
1.21601e-25
-3.11218e-24
2.2813e-25
-5.72569e-24
4.02157e-25
-9.71197e-24
6.66552e-25
-1.5069e-23
1.03275e-24
-2.14411e-23
1.48479e-24
-2.90491e-23
1.97798e-24
-3.7173e-23
2.51064e-24
-4.34925e-23
2.96092e-24
-4.5201e-23
3.05789e-24
-4.18486e-23
2.57413e-24
-3.43309e-23
1.6218e-24
-2.50004e-23
5.40754e-25
-1.6433e-23
-3.7622e-24
-9.77027e-24
-9.43403e-24
-5.25672e-24
-9.63328e-24
-2.58374e-24
-6.80401e-24
-1.17419e-24
-3.68624e-24
-4.94089e-25
-1.60633e-24
-1.92435e-25
-5.67584e-25
-7.01508e-26
-1.59007e-25
-2.42141e-26
-3.22736e-26
-7.79174e-27
-2.6226e-27
-2.3263e-27
4.50333e-29
-7.87726e-28
2.66054e-29
-8.05276e-28
1.09718e-29
-2.25208e-27
1.13914e-29
-7.1929e-27
2.9057e-29
7.76753e-29
-2.25276e-26
-2.49847e-43
6.76349e-46
-2.35199e-40
2.14411e-42
-5.37067e-38
9.15721e-40
-5.0363e-36
1.35699e-37
-2.39776e-34
9.42249e-36
-6.55237e-33
3.55639e-34
-1.12716e-31
8.03471e-33
-1.32081e-30
1.17562e-31
-1.1207e-29
1.19562e-30
-7.07623e-29
8.93326e-30
-3.38277e-28
5.01759e-29
-1.2884e-27
2.14787e-28
-4.20053e-27
7.35203e-28
-1.25953e-26
2.15665e-27
-3.65188e-26
5.81307e-27
-1.06486e-25
1.51128e-26
-3.10672e-25
3.93712e-26
-8.78324e-25
1.02193e-25
-2.29064e-24
2.55955e-25
-5.40336e-24
5.8915e-25
-1.16316e-23
1.2233e-24
-2.32689e-23
2.31614e-24
-4.37e-23
4.08371e-24
-7.69361e-23
6.80019e-24
-1.25934e-22
1.07273e-23
-1.90156e-22
1.59638e-23
-2.64855e-22
2.22778e-23
-3.48369e-22
2.90866e-23
-4.40917e-22
3.60815e-23
-5.24874e-22
4.2627e-23
-5.66229e-22
4.56246e-23
-5.51888e-22
4.08782e-23
-4.83287e-22
2.82501e-23
-3.79112e-22
1.13823e-23
-2.69533e-22
-3.39894e-23
-1.73466e-22
-1.22066e-22
-1.00803e-22
-1.37927e-22
-5.34782e-23
-1.036e-22
-2.62928e-23
-5.81484e-23
-1.20431e-23
-2.57787e-23
-5.14944e-24
-9.00548e-24
-2.06666e-24
-2.30847e-24
-7.79157e-25
-2.86165e-25
-2.72526e-25
5.77299e-27
-8.87359e-26
4.74021e-27
-3.16811e-26
1.99531e-27
-2.92566e-26
7.58004e-28
-7.59059e-26
6.72258e-28
-2.30508e-25
1.56922e-27
4.08225e-27
-6.74531e-25
-6.21728e-42
2.16213e-44
-5.76568e-39
6.56942e-41
-1.28897e-36
2.72778e-38
-1.17536e-34
3.93356e-36
-5.41893e-33
2.65099e-34
-1.43703e-31
9.69325e-33
-2.42142e-30
2.12838e-31
-2.81165e-29
3.05639e-30
-2.36726e-28
3.08628e-29
-1.45907e-27
2.29225e-28
-6.81833e-27
1.25862e-27
-2.51289e-26
5.27212e-27
-7.78129e-26
1.74721e-26
-2.17991e-25
4.86814e-26
-5.81719e-25
1.22534e-25
-1.55096e-24
2.92885e-25
-4.15614e-24
6.9651e-25
-1.09311e-23
1.65686e-24
-2.68111e-23
3.84988e-24
-5.97184e-23
8.30624e-24
-1.21499e-22
1.62192e-23
-2.30221e-22
2.88781e-23
-4.11568e-22
4.79354e-23
-6.94631e-22
7.54504e-23
-1.09856e-21
1.13252e-22
-1.6145e-21
1.61727e-22
-2.19918e-21
2.18712e-22
-2.81413e-21
2.79421e-22
-3.49645e-21
3.40001e-22
-4.18724e-21
4.0108e-22
-4.64425e-21
4.42377e-22
-4.7259e-21
4.20104e-22
-4.37892e-21
3.17402e-22
-3.6692e-21
1.51993e-22
-2.80046e-21
-1.60125e-22
-1.93504e-21
-1.08926e-21
-1.20223e-21
-1.35861e-21
-6.816e-22
-1.06978e-21
-3.60335e-22
-6.05566e-22
-1.7907e-22
-2.63479e-22
-8.3831e-23
-8.48023e-23
-3.70183e-23
-1.51539e-23
-1.5315e-23
3.00045e-25
-5.87306e-24
3.83237e-25
-2.08781e-24
2.01233e-25
-7.674e-25
7.84557e-26
-5.72063e-25
2.83653e-26
-1.27223e-24
1.95278e-26
-3.6466e-24
3.86044e-26
9.60671e-26
-1.00861e-23
-9.28609e-41
3.92554e-43
-8.84736e-38
1.21194e-39
-2.00492e-35
5.11697e-37
-1.82641e-33
7.43831e-35
-8.32282e-32
4.99558e-33
-2.17718e-30
1.80427e-31
-3.63665e-29
3.90958e-30
-4.18643e-28
5.57038e-29
-3.45871e-27
5.58233e-28
-2.07713e-26
4.07228e-27
-9.44686e-26
2.18012e-26
-3.37449e-25
8.89035e-26
-1.00194e-24
2.85511e-25
-2.64607e-24
7.62203e-25
-6.55119e-24
1.80612e-24
-1.59965e-23
3.99714e-24
-3.93028e-23
8.68189e-24
-9.60415e-23
1.8872e-23
-2.21784e-22
4.05803e-23
-4.67846e-22
8.20546e-23
-9.02635e-22
1.50927e-22
-1.62436e-21
2.53176e-22
-2.76891e-21
3.95992e-22
-4.48439e-21
5.88853e-22
-6.8564e-21
8.39473e-22
-9.81103e-21
1.14709e-21
-1.30759e-20
1.49814e-21
-1.63288e-20
1.86808e-21
-1.98027e-20
2.23735e-21
-2.35253e-20
2.63363e-21
-2.65553e-20
2.97294e-21
-2.79882e-20
2.98056e-21
-2.72542e-20
2.4584e-21
-2.42683e-20
1.39072e-21
-1.98187e-20
8.50803e-24
-1.45941e-20
-7.24203e-21
-9.59285e-21
-9.92272e-21
-5.74868e-21
-8.04639e-21
-3.2517e-21
-4.41622e-21
-1.75259e-21
-1.77431e-21
-8.9962e-22
-4.35859e-22
-4.3689e-22
5.53291e-24
-1.98713e-22
1.53279e-23
-8.37573e-23
1.02175e-23
-3.2636e-23
4.83499e-24
-1.24643e-23
1.87215e-24
-7.2469e-24
6.6427e-25
-1.22907e-23
3.45593e-25
-3.26264e-23
5.1545e-25
1.19969e-24
-8.62556e-23
-9.06036e-40
4.45808e-42
-9.25698e-37
1.47581e-38
-2.20267e-34
6.62784e-36
-2.0576e-32
1.00687e-33
-9.43165e-31
6.91645e-32
-2.45278e-29
2.50989e-30
-4.05879e-28
5.40507e-29
-4.59455e-27
7.63037e-28
-3.64301e-26
7.52127e-27
-2.11158e-25
5.26649e-26
-9.35466e-25
2.72083e-25
-3.25706e-24
1.08016e-24
-9.35005e-24
3.3774e-24
-2.35157e-23
8.70203e-24
-5.44966e-23
1.95881e-23
-1.22587e-22
4.04442e-23
-2.7606e-22
8.05947e-23
-6.25065e-22
1.59791e-22
-1.35921e-21
3.16636e-22
-2.72197e-21
5.99271e-22
-4.99388e-21
1.03929e-21
-8.55166e-21
1.64434e-21
-1.39101e-20
2.42334e-21
-2.16143e-20
3.39843e-21
-3.19367e-20
4.58434e-21
-4.44975e-20
5.9603e-21
-5.81131e-20
7.46397e-21
-7.12403e-20
9.02476e-21
-8.39456e-20
1.06714e-20
-9.76283e-20
1.25628e-20
-1.10865e-19
1.44753e-20
-1.19934e-19
1.52464e-20
-1.21931e-19
1.37263e-20
-1.15001e-19
9.20777e-21
-1.00753e-19
1.86114e-21
-7.84257e-20
-3.87242e-20
-5.37994e-20
-5.76396e-20
-3.36051e-20
-4.69654e-20
-2.02832e-20
-2.33921e-20
-1.19041e-20
-7.599e-21
-6.72762e-21
-2.35929e-22
-3.61033e-21
3.24552e-22
-1.81473e-21
2.81559e-22
-8.44307e-22
1.62502e-22
-3.61853e-22
7.52647e-23
-1.4656e-22
2.97797e-23
-7.05127e-23
1.06897e-23
-7.97079e-23
4.47825e-24
-1.84239e-22
4.41189e-24
9.02765e-24
-4.67144e-22
-6.16136e-39
3.36853e-41
-7.16448e-36
1.28117e-37
-1.87176e-33
6.50413e-35
-1.83258e-31
1.08038e-32
-8.45317e-30
7.75861e-31
-2.16479e-28
2.82903e-29
-3.4671e-27
5.9942e-28
-3.73614e-26
8.18532e-27
-2.82867e-25
7.67618e-26
-1.58292e-24
5.12833e-25
-6.82484e-24
2.55486e-24
-2.32868e-23
9.85375e-24
-6.49411e-23
3.01196e-23
-1.56845e-22
7.51431e-23
-3.43919e-22
1.61754e-22
-7.19822e-22
3.14386e-22
-1.49172e-21
5.79359e-22
-3.12471e-21
1.04971e-21
-6.39382e-21
1.90991e-21
-1.21738e-20
3.37477e-21
-2.12851e-20
5.51689e-21
-3.47318e-20
8.23565e-21
-5.39053e-20
1.14281e-20
-8.0256e-20
1.50753e-20
-1.14379e-19
1.9141e-20
-1.54942e-19
2.34628e-20
-1.98176e-19
2.77661e-20
-2.38691e-19
3.19025e-20
-2.74207e-19
3.6827e-20
-3.10736e-19
4.39663e-20
-3.51023e-19
5.24939e-20
-3.85589e-19
5.77218e-20
-4.05957e-19
5.67155e-20
-4.04869e-19
4.60312e-20
-3.85344e-19
2.18299e-20
-3.13696e-19
-1.83047e-19
-2.19514e-19
-2.88499e-19
-1.39748e-19
-2.27987e-19
-9.03316e-20
-9.07096e-20
-5.84031e-20
-1.41209e-20
-3.6729e-20
3.74967e-21
-2.19649e-20
4.49658e-21
-1.22645e-20
3.16252e-21
-6.31825e-21
1.74756e-21
-2.98789e-21
8.17524e-22
-1.30927e-21
3.35437e-22
-5.84989e-22
1.24979e-22
-4.23313e-22
4.74796e-23
-7.33938e-22
2.97579e-23
4.62261e-23
-1.74201e-21
-3.25858e-38
1.86696e-40
-4.63263e-35
9.03516e-37
-1.34923e-32
5.57173e-34
-1.3365e-30
1.02754e-31
-5.96319e-29
7.4451e-30
-1.46539e-27
2.62069e-28
-2.24736e-26
5.31992e-27
-2.28554e-25
6.94606e-26
-1.65411e-24
6.13727e-25
-8.96467e-24
3.91098e-24
-3.75289e-23
1.88162e-23
-1.24714e-22
7.02017e-23
-3.39478e-22
2.08005e-22
-7.95004e-22
5.03579e-22
-1.67176e-21
1.04378e-21
-3.30227e-21
1.92972e-21
-6.35467e-21
3.32511e-21
-1.23291e-20
5.53722e-21
-2.37213e-20
9.23305e-21
-4.29695e-20
1.51795e-20
-7.17128e-20
2.33518e-20
-1.11603e-19
3.28687e-20
-1.65161e-19
4.28961e-20
-2.35046e-19
5.31048e-20
-3.21978e-19
6.3135e-20
-4.22632e-19
7.21425e-20
-5.28076e-19
7.86965e-20
-6.23692e-19
8.1569e-20
-7.01632e-19
8.76171e-20
-7.75104e-19
1.08464e-19
-8.63378e-19
1.40795e-19
-9.5162e-19
1.61468e-19
-1.02351e-18
1.70939e-19
-1.07636e-18
1.74081e-19
-1.16337e-18
1.6813e-19
-9.66481e-19
-8.71174e-19
-6.61064e-19
-1.36847e-18
-4.11127e-19
-9.9526e-19
-2.92301e-19
-2.32998e-19
-2.14679e-19
2.23422e-20
-1.5356e-19
4.49612e-20
-1.03273e-19
3.82548e-20
-6.41777e-20
2.485e-20
-3.65543e-20
1.35951e-20
-1.9037e-20
6.49987e-21
-9.1043e-21
2.7801e-21
-4.14374e-21
1.08976e-21
-2.22036e-21
4.13519e-22
-2.39674e-21
1.91598e-22
1.88486e-22
-4.83173e-21
-1.48541e-37
9.35154e-40
-2.57956e-34
5.98689e-36
-7.83748e-32
4.47167e-33
-7.5364e-30
8.55756e-31
-3.22433e-28
5.99604e-29
-7.60836e-27
2.01765e-27
-1.10642e-25
3.92189e-26
-1.07009e-24
4.84089e-25
-7.36397e-24
4.05272e-24
-3.81415e-23
2.4441e-23
-1.538e-22
1.11694e-22
-4.97398e-22
3.98318e-22
-1.32818e-21
1.13784e-21
-3.04764e-21
2.6727e-21
-6.23801e-21
5.36046e-21
-1.18351e-20
9.51347e-21
-2.14665e-20
1.55088e-20
-3.88314e-20
2.39567e-20
-7.03841e-20
3.66578e-20
-1.21516e-19
5.59336e-20
-1.93972e-19
8.08172e-20
-2.88212e-19
1.0713e-19
-4.06549e-19
1.31375e-19
-5.5197e-19
1.52665e-19
-7.24484e-19
1.69869e-19
-9.18665e-19
1.79926e-19
-1.11851e-18
1.7568e-19
-1.28513e-18
1.44137e-19
-1.4055e-18
1.13773e-19
-1.51043e-18
1.51228e-19
-1.62545e-18
2.42247e-19
-1.77181e-18
3.13796e-19
-1.87267e-18
3.29909e-19
-1.87443e-18
4.10922e-19
-2.85936e-18
1.00672e-18
-2.18488e-18
-5.56196e-18
-1.34433e-18
-6.28624e-18
-7.40347e-19
-4.20569e-18
-6.75869e-19
7.87696e-21
-6.23336e-19
3.19135e-19
-5.23604e-19
3.22717e-19
-3.96397e-19
2.36168e-19
-2.716e-19
1.46529e-19
-1.69086e-19
7.9898e-20
-9.60034e-20
3.89987e-20
-4.9955e-20
1.7342e-20
-2.4172e-20
7.1733e-21
-1.175e-20
2.85481e-21
-7.95625e-21
1.2065e-21
7.63417e-22
-1.10931e-20
-4.91904e-37
3.84555e-39
-1.08348e-33
3.53029e-35
-3.37942e-31
3.28121e-32
-3.1361e-29
6.37476e-30
-1.29912e-27
4.27684e-28
-2.90959e-26
1.38465e-26
-3.91922e-25
2.53923e-25
-3.52555e-24
2.88321e-24
-2.29626e-23
2.2254e-23
-1.13728e-22
1.25561e-22
-4.4309e-22
5.40541e-22
-1.4063e-21
1.82827e-21
-3.73302e-21
5.01448e-21
-8.54648e-21
1.14247e-20
-1.73896e-20
2.22657e-20
-3.2467e-20
3.82195e-20
-5.68464e-20
5.96272e-20
-9.74764e-20
8.64747e-20
-1.67793e-19
1.22178e-19
-2.77267e-19
1.7291e-19
-4.24479e-19
2.33909e-19
-6.02579e-19
2.91054e-19
-8.09199e-19
3.3464e-19
-1.04593e-18
3.66092e-19
-1.31331e-18
3.84502e-19
-1.61209e-18
3.83392e-19
-1.92609e-18
3.36153e-19
-2.14337e-18
1.6069e-19
-2.213e-18
-1.20216e-19
-2.22133e-18
-1.63857e-19
-2.24688e-18
1.24459e-19
-1.67159e-18
3.13516e-20
-8.03902e-19
2.60089e-19
-1.08445e-18
9.32576e-20
-4.40725e-18
4.71626e-18
-6.55184e-19
-3.45744e-17
3.70746e-19
-2.01638e-17
7.28619e-19
-1.0857e-17
-9.99327e-19
2.02953e-18
-1.60911e-18
2.4181e-18
-1.59992e-18
1.76668e-18
-1.32043e-18
1.14611e-18
-9.64859e-19
6.76503e-19
-6.39275e-19
3.64102e-19
-3.87884e-19
1.79385e-19
-2.16828e-19
8.20675e-20
-1.12519e-19
3.56394e-20
-5.56835e-20
1.51347e-20
-2.9884e-20
6.61451e-21
3.43979e-21
-2.52998e-20
-8.04681e-37
1.33293e-38
-2.25569e-33
2.57314e-34
-6.89086e-31
2.63354e-31
-6.06109e-29
4.66851e-29
-2.34877e-27
2.84141e-27
-4.83115e-26
8.33854e-26
-6.10746e-25
1.36523e-24
-5.28497e-24
1.40885e-23
-3.40084e-23
1.00331e-22
-1.69012e-22
5.29465e-22
-6.76777e-22
2.13599e-21
-2.24444e-21
6.85878e-21
-6.29071e-21
1.80441e-20
-1.52264e-20
3.98129e-20
-3.25437e-20
7.55238e-20
-6.29765e-20
1.26224e-19
-1.11684e-19
1.90647e-19
-1.88905e-19
2.63532e-19
-3.16527e-19
3.48447e-19
-5.06793e-19
4.59077e-19
-7.4859e-19
5.78696e-19
-1.01575e-18
6.70947e-19
-1.29322e-18
7.18666e-19
-1.58433e-18
7.4356e-19
-1.90289e-18
7.51463e-19
-2.28987e-18
7.42511e-19
-2.76913e-18
6.48972e-19
-3.06046e-18
1.26697e-19
-2.97994e-18
-9.79292e-19
-2.30341e-18
-1.78552e-18
-1.09144e-18
-1.28401e-18
3.32493e-19
-2.28403e-18
2.17365e-18
-9.74446e-19
6.40958e-18
-2.82024e-18
5.96934e-18
7.9931e-18
4.60312e-17
-2.45379e-16
2.57913e-17
-5.20422e-17
1.34578e-17
-2.47009e-17
-1.393e-18
1.53415e-17
-4.29349e-18
1.04076e-17
-4.54995e-18
6.71866e-18
-3.80823e-18
4.1151e-18
-2.83309e-18
2.3639e-18
-1.93763e-18
1.2606e-18
-1.23019e-18
6.21682e-19
-7.2867e-19
2.89558e-19
-4.04327e-19
1.31257e-19
-2.1216e-19
5.98267e-20
-1.0988e-19
2.84593e-20
1.5003e-20
-6.6824e-20
2.11289e-39
9.84262e-38
6.26326e-35
2.50718e-33
6.39956e-32
2.04775e-30
1.13558e-29
2.99387e-28
7.17792e-28
1.60113e-26
2.13034e-26
4.12101e-25
3.4947e-25
6.02691e-24
3.5511e-24
5.65218e-23
2.43221e-23
3.74085e-22
1.15592e-22
1.83215e-21
3.85398e-22
6.9513e-21
8.5603e-22
2.11357e-20
8.97399e-22
5.31686e-20
-3.23442e-21
1.13476e-19
-1.98505e-20
2.10099e-19
-5.8122e-20
3.44255e-19
-1.28867e-19
5.09324e-19
-2.45866e-19
6.83281e-19
-4.35959e-19
8.62987e-19
-7.09482e-19
1.07025e-18
-1.03283e-18
1.25603e-18
-1.34454e-18
1.34038e-18
-1.60266e-18
1.31656e-18
-1.83206e-18
1.28919e-18
-2.09396e-18
1.2845e-18
-2.55327e-18
1.36419e-18
-3.37735e-18
1.40824e-18
-3.87087e-18
2.77586e-19
-3.91228e-18
-1.88759e-18
-2.76464e-18
-3.95116e-18
8.92826e-19
-4.41518e-18
3.08569e-18
-6.57958e-18
9.47983e-18
-8.37933e-18
2.23533e-17
-4.07093e-17
4.30905e-17
-1.37829e-17
6.00538e-16
-1.30048e-15
1.00683e-16
7.78952e-16
-7.58936e-19
3.02273e-17
-1.13984e-17
4.77621e-17
-1.07262e-17
2.16728e-17
-9.72948e-18
1.48272e-17
-7.90435e-18
9.26223e-18
-6.02121e-18
5.57021e-18
-4.29841e-18
3.05527e-18
-2.87301e-18
1.52373e-18
-1.80886e-18
7.24507e-19
-1.0778e-18
3.45107e-19
-6.09645e-19
1.71069e-19
-3.31565e-19
9.07436e-20
5.32022e-20
-1.84045e-19
6.32581e-38
1.20221e-36
1.40211e-33
2.1903e-32
1.08827e-30
1.31692e-29
1.63995e-28
1.59481e-27
9.12643e-27
7.34499e-26
2.42228e-25
1.65167e-24
3.66206e-24
2.16153e-23
3.55736e-23
1.85833e-22
2.39432e-22
1.13445e-21
1.16989e-21
5.17073e-21
4.31931e-21
1.83992e-20
1.24407e-20
5.30706e-20
2.86127e-20
1.28018e-19
5.32009e-20
2.6498e-19
7.95688e-20
4.80822e-19
9.10622e-20
7.78282e-19
6.28082e-20
1.14181e-18
-3.94404e-20
1.51828e-18
-2.64755e-19
1.88299e-18
-5.99484e-19
2.2411e-18
-9.75236e-19
2.46177e-18
-1.2537e-18
2.4017e-18
-1.33324e-18
2.09647e-18
-1.30809e-18
1.91038e-18
-1.31819e-18
1.89132e-18
-1.88733e-18
2.42768e-18
-3.42967e-18
3.19338e-18
-4.2988e-18
9.81855e-19
-4.39283e-18
-2.49221e-18
-3.74834e-18
-5.97362e-18
-5.01953e-18
-7.41906e-18
-3.34722e-18
-5.48551e-18
-2.57483e-17
-3.17129e-18
-2.00847e-16
-5.48768e-18
-4.62094e-16
-3.29451e-17
-6.17954e-16
-7.62727e-16
4.8904e-17
-1.92628e-16
7.72315e-17
2.89087e-16
4.46428e-18
1.68614e-16
-9.0427e-18
6.37815e-17
-1.02454e-17
2.73119e-17
-9.93259e-18
1.55079e-17
-8.67559e-18
9.51262e-18
-6.80287e-18
5.26285e-18
-4.89013e-18
2.60937e-18
-3.30497e-18
1.26171e-18
-2.12763e-18
6.41017e-19
-1.30845e-18
3.54232e-19
-7.69671e-19
2.12552e-19
1.42085e-19
-4.38805e-19
1.17538e-36
1.38048e-35
1.57611e-32
1.52078e-31
9.16627e-30
6.8256e-29
1.16313e-27
6.91893e-27
5.54851e-26
2.70902e-25
1.30715e-24
5.34858e-24
1.80096e-23
6.29052e-23
1.63166e-22
4.95589e-22
1.03086e-21
2.77825e-21
4.80402e-21
1.17525e-20
1.72476e-20
3.92955e-20
4.93634e-20
1.07751e-19
1.15879e-19
2.49935e-19
2.28417e-19
5.03529e-19
3.84918e-19
9.00623e-19
5.589e-19
1.45348e-18
6.98583e-19
2.14614e-18
7.32224e-19
2.90146e-18
6.12353e-19
3.64839e-18
3.32191e-19
4.2936e-18
-2.98916e-20
4.51118e-18
-2.59514e-19
4.04479e-18
1.07281e-20
3.00478e-18
5.26002e-19
2.38095e-18
1.13624e-18
2.21808e-18
5.54393e-19
3.97832e-18
-2.7709e-18
7.41952e-18
-3.93562e-18
2.23915e-18
-3.8023e-18
-3.39738e-18
-4.30495e-18
-6.7196e-18
-4.85014e-18
-8.05649e-18
-6.27069e-18
-5.57825e-18
-2.17394e-17
-6.57967e-20
-1.40557e-16
2.66816e-18
-2.79223e-16
-1.90337e-17
-1.1248e-15
1.23201e-16
-1.57258e-15
4.98425e-17
-1.52006e-16
5.79773e-17
-4.49838e-17
6.27802e-17
-2.3965e-17
4.02611e-17
-1.75729e-17
2.53772e-17
-1.43644e-17
1.75775e-17
-1.19532e-17
1.18764e-17
-9.31769e-18
6.50875e-18
-6.82215e-18
3.09268e-18
-4.81217e-18
1.51214e-18
-3.30685e-18
8.60269e-19
-2.20707e-18
5.63154e-19
-1.41175e-18
3.84788e-19
2.79976e-19
-8.49757e-19
1.47839e-35
1.24634e-34
1.19033e-31
8.34296e-31
5.27888e-29
2.8623e-28
5.56547e-27
2.40355e-26
2.29097e-25
8.06101e-25
4.8138e-24
1.40352e-23
6.08934e-23
1.49316e-22
5.087e-22
1.06531e-21
3.00891e-21
5.47642e-21
1.33161e-20
2.15017e-20
4.59849e-20
6.74694e-20
1.28346e-19
1.75729e-19
2.98298e-19
3.92217e-19
5.92574e-19
7.71114e-19
1.02874e-18
1.36676e-18
1.58045e-18
2.21895e-18
2.17081e-18
3.34926e-18
2.66551e-18
4.72486e-18
2.90734e-18
6.22704e-18
2.77597e-18
7.52844e-18
2.37759e-18
7.86842e-18
2.12629e-18
6.75545e-18
2.9035e-18
3.97116e-18
3.75407e-18
2.83567e-18
6.13191e-18
1.09297e-18
7.12548e-18
4.05541e-18
-5.47073e-19
1.63432e-17
-9.66551e-19
3.06393e-18
-3.0766e-19
-5.05598e-18
-7.73307e-19
-7.21447e-18
-2.20371e-18
-7.41077e-18
-2.96665e-18
-5.38234e-18
-7.24268e-20
-2.60214e-18
4.72626e-18
-2.6376e-18
1.84842e-18
-7.49537e-18
-7.17536e-17
1.35944e-16
-1.19994e-16
1.5085e-16
-1.00004e-16
8.15509e-17
-6.43414e-17
3.74722e-17
-4.06186e-17
2.85443e-17
-2.71138e-17
2.10782e-17
-1.96367e-17
1.63964e-17
-1.50588e-17
1.18876e-17
-1.11739e-17
5.93735e-18
-8.06107e-18
2.41009e-18
-5.81614e-18
1.16295e-18
-4.2449e-18
8.70433e-19
-3.08602e-18
7.60011e-19
-2.16075e-18
5.88587e-19
3.57256e-19
-1.34088e-18
1.29414e-34
8.5542e-34
6.4291e-31
3.60851e-30
2.20933e-28
9.64954e-28
1.9339e-26
6.71184e-26
6.93249e-25
1.94303e-24
1.31074e-23
3.0007e-23
1.51783e-22
2.86673e-22
1.175e-21
1.85174e-21
6.53052e-21
8.71261e-21
2.74629e-20
3.16084e-20
9.11741e-20
9.26907e-20
2.47482e-19
2.28491e-19
5.66232e-19
4.89634e-19
1.12252e-18
9.39309e-19
1.97746e-18
1.65508e-18
3.13619e-18
2.72027e-18
4.55855e-18
4.2553e-18
6.11662e-18
6.40809e-18
7.41835e-18
9.13577e-18
7.92429e-18
1.18174e-17
7.58405e-18
1.28635e-17
7.54708e-18
1.07186e-17
7.8673e-18
5.93511e-18
9.08968e-18
2.90839e-18
1.28298e-17
-1.63903e-18
1.58915e-17
1.85871e-18
8.26504e-18
3.93785e-17
9.84892e-18
1.33397e-18
7.43001e-18
-4.10255e-18
4.56122e-18
-5.67533e-18
1.78817e-18
-5.66902e-18
-1.46783e-19
-3.96748e-18
-1.57639e-18
-1.39299e-18
-5.17191e-18
1.99336e-20
-4.07743e-17
1.26426e-18
-4.54159e-17
4.6195e-17
-3.18962e-17
6.94442e-17
-2.62113e-17
4.35314e-17
-2.96177e-17
2.51743e-17
-2.66388e-17
1.94272e-17
-2.21832e-17
1.47315e-17
-1.73827e-17
1.17402e-17
-1.43021e-17
1.00981e-17
-1.14816e-17
4.69327e-18
-8.5367e-18
8.36939e-19
-6.42995e-18
2.81526e-19
-4.9616e-18
6.05295e-19
-4.01214e-18
1.05084e-18
-3.08642e-18
8.2115e-19
-6.0514e-20
-1.78414e-18
7.88179e-34
4.41027e-33
2.51703e-30
1.23295e-29
6.77908e-28
2.60596e-27
4.99334e-26
1.52081e-25
1.57725e-24
3.83388e-24
2.70491e-23
5.26668e-23
2.87571e-22
4.49933e-22
2.07792e-21
2.62633e-21
1.09076e-20
1.12447e-20
4.37894e-20
3.74094e-20
1.40124e-19
1.01524e-19
3.70166e-19
2.34489e-19
8.32941e-19
4.78495e-19
1.64387e-18
8.91641e-19
2.92652e-18
1.56189e-18
4.75207e-18
2.60472e-18
7.25419e-18
4.26595e-18
1.05279e-17
6.95411e-18
1.39285e-17
1.09961e-17
1.60241e-17
1.58425e-17
1.62188e-17
1.85978e-17
1.47372e-17
1.73737e-17
1.5521e-17
7.55552e-18
1.21504e-17
5.99935e-18
6.50476e-18
6.58759e-18
5.21581e-18
5.22887e-18
3.43227e-17
9.9412e-18
2.39766e-17
1.0743e-17
1.44965e-17
3.48927e-18
9.22439e-18
-1.90615e-18
4.99491e-18
-2.52679e-18
9.64969e-19
-3.499e-19
-2.5008e-18
2.07872e-18
-5.33722e-18
2.82806e-18
-1.57128e-17
5.83134e-18
-2.15325e-17
2.14106e-17
-1.95256e-17
3.23891e-17
-1.95027e-17
2.77893e-17
-1.99609e-17
2.05666e-17
-1.93745e-17
1.58304e-17
-1.71859e-17
1.13102e-17
-1.39134e-17
9.33705e-18
-1.55966e-17
1.23329e-17
-1.3128e-17
2.71954e-18
-9.89968e-18
-2.01943e-18
-7.47282e-18
-1.70522e-18
-5.76694e-18
-3.21406e-19
-4.80371e-18
1.18258e-18
-4.44295e-18
1.57247e-18
-3.16799e-18
-2.03048e-18
3.31389e-33
1.72821e-32
7.09472e-30
3.37108e-29
1.52101e-27
5.72914e-27
9.58093e-26
2.84511e-25
2.69997e-24
6.29305e-24
4.23294e-23
7.69218e-23
4.18396e-22
5.8887e-22
2.84911e-21
3.09258e-21
1.42471e-20
1.1933e-20
5.49661e-20
3.5816e-20
1.70379e-19
8.80236e-20
4.3946e-19
1.85938e-19
9.73878e-19
3.534e-19
1.91222e-18
6.29775e-19
3.43106e-18
1.08957e-18
5.66334e-18
1.84359e-18
9.03402e-18
3.19449e-18
1.39735e-17
5.72161e-18
2.04199e-17
9.65101e-18
2.5796e-17
1.61208e-17
2.78215e-17
2.12e-17
2.03396e-17
3.39099e-17
2.62029e-17
5.60634e-18
3.41282e-17
1.82129e-17
1.73918e-17
3.03301e-17
2.76056e-17
-4.03996e-18
3.26563e-17
7.55492e-18
1.95522e-17
2.36871e-17
1.04855e-17
9.05034e-18
9.04474e-18
-1.46848e-18
5.71035e-18
-3.04368e-20
1.24245e-18
3.63557e-18
-2.83587e-18
6.49393e-18
-8.08739e-18
8.55318e-18
-1.37442e-17
1.11001e-17
-1.68189e-17
1.78368e-17
-1.78032e-17
2.31801e-17
-1.80814e-17
2.29516e-17
-1.9335e-17
2.02637e-17
-2.03886e-17
1.65172e-17
-1.95896e-17
1.24266e-17
-2.70913e-17
9.79651e-18
-3.4112e-17
1.63848e-17
-1.49831e-17
-1.00803e-18
-1.12352e-17
-7.28022e-18
-8.12945e-18
-5.82633e-18
-5.47659e-18
-8.75154e-19
-3.3548e-18
4.99524e-19
-7.54471e-18
5.11645e-18
-1.66672e-17
-1.47871e-18
9.36497e-33
5.33642e-32
1.40014e-29
7.62385e-29
2.44407e-27
1.06517e-26
1.34055e-25
4.56108e-25
3.41859e-24
8.90445e-24
4.95739e-23
9.68753e-23
4.61754e-22
6.63551e-22
3.00239e-21
3.11297e-21
1.44808e-20
1.065e-20
5.42501e-20
2.79468e-20
1.64246e-19
5.90988e-20
4.1622e-19
1.06382e-19
9.11953e-19
1.74012e-19
1.78328e-18
2.78097e-19
3.21418e-18
4.63931e-19
5.3383e-18
8.16814e-19
8.73155e-18
1.6061e-18
1.40866e-17
3.13328e-18
2.02336e-17
6.84447e-18
2.82124e-17
1.0708e-17
4.45182e-17
7.36765e-18
6.3353e-17
2.9696e-17
4.36155e-17
4.30711e-17
3.71234e-17
2.72411e-17
5.72137e-17
5.51475e-17
8.67198e-17
4.10426e-16
1.14423e-17
1.29231e-16
-4.9196e-18
3.36839e-17
2.91911e-18
6.7911e-18
9.14975e-18
-1.06779e-17
5.18195e-18
3.66574e-18
1.36395e-19
8.46574e-18
-4.08025e-18
1.1394e-17
-8.9089e-18
1.4104e-17
-1.43448e-17
1.69953e-17
-1.77906e-17
2.10377e-17
-1.88977e-17
2.38327e-17
-1.93351e-17
2.43208e-17
-2.03374e-17
2.30934e-17
-2.26895e-17
2.06726e-17
-2.61716e-17
1.77363e-17
-2.88064e-17
1.4651e-17
-2.01592e-17
8.19921e-18
-1.97485e-17
-1.33127e-18
-1.92546e-17
-8.45058e-18
-1.21246e-17
-1.18611e-17
-6.32996e-18
-1.14201e-17
-3.25569e-18
-2.50174e-18
-1.318e-17
1.87987e-17
-2.77218e-16
6.09071e-18
1.56869e-32
1.35877e-31
1.69258e-29
1.48114e-28
2.46432e-27
1.73524e-26
1.20848e-25
6.48346e-25
2.87475e-24
1.12693e-23
3.99114e-23
1.10115e-22
3.61584e-22
6.77639e-22
2.30604e-21
2.8277e-21
1.09537e-20
8.39588e-21
4.05584e-20
1.82351e-20
1.21708e-19
2.90523e-20
3.06521e-19
3.23002e-20
6.68781e-19
1.88407e-20
1.304e-18
-1.0484e-20
2.34266e-18
-3.09783e-20
3.83217e-18
3.94905e-20
6.191e-18
3.67162e-19
8.83367e-18
1.88395e-18
1.19431e-17
4.44383e-18
1.74331e-17
5.97916e-18
2.67566e-17
1.97729e-17
1.57214e-17
1.72575e-17
1.83978e-17
2.35688e-17
3.7283e-17
9.46865e-17
1.39313e-15
3.92809e-16
9.01684e-16
1.29403e-15
-2.36203e-16
2.94252e-15
-2.52904e-18
3.64632e-16
2.89044e-17
-9.57017e-17
1.61793e-17
-2.27131e-17
3.86826e-18
1.62171e-17
-4.90448e-19
1.24977e-17
-4.59775e-18
1.55348e-17
-9.00067e-18
1.85571e-17
-1.31428e-17
2.08533e-17
-1.58749e-17
2.3029e-17
-1.74192e-17
2.43789e-17
-1.85408e-17
2.4495e-17
-2.0216e-17
2.39024e-17
-2.3118e-17
2.29352e-17
-2.69981e-17
2.1467e-17
-2.96519e-17
1.80077e-17
-2.80178e-17
7.60653e-18
-2.79746e-17
-8.11118e-20
-2.73743e-17
-8.54818e-18
-2.16493e-17
-1.8193e-17
-1.01771e-17
-2.71544e-17
1.01519e-17
-6.19469e-17
1.70529e-17
9.36469e-18
-7.02127e-16
2.37832e-16
4.89442e-33
3.00658e-31
2.64043e-30
2.5745e-28
3.31793e-28
2.5588e-26
2.07792e-26
8.45684e-25
6.73873e-25
1.32614e-23
1.20315e-23
1.1791e-22
1.30825e-22
6.60446e-22
9.47877e-22
2.48108e-21
4.91566e-21
6.41315e-21
1.9315e-20
1.10074e-20
6.02808e-20
9.30914e-21
1.55542e-19
-1.00217e-20
3.43685e-19
-5.64316e-20
6.70565e-19
-1.3532e-19
1.18638e-18
-2.26609e-19
1.85311e-18
-2.2888e-19
2.53545e-18
1.4356e-19
3.51154e-18
1.08267e-18
7.13508e-18
1.81176e-18
2.04943e-17
6.94384e-18
-1.43526e-18
2.2577e-17
-3.04099e-17
2.70315e-17
-9.55398e-17
4.37205e-17
3.96927e-17
1.92577e-16
6.75544e-16
6.8452e-16
-5.04059e-16
1.99797e-15
-1.26638e-15
3.23313e-15
2.94119e-16
-5.21545e-16
-3.87071e-18
-4.28817e-17
-3.54773e-17
8.07726e-18