/*--------------------------------*- C++ -*----------------------------------*\
| =========                 |                                                 |
| \\      /  F ield         | OpenFOAM: The Open Source CFD Toolbox           |
|  \\    /   O peration     | Version:  2.4.0                                 |
|   \\  /    A nd           | Web:      www.OpenFOAM.org                      |
|    \\/     M anipulation  |                                                 |
\*---------------------------------------------------------------------------*/
FoamFile
{
    version     2.0;
    format      ascii;
    class       volScalarField;
    location    "0.112";
    object      alpha.water;
}
// * * * * * * * * * * * * * * * * * * * * * * * * * * * * * * * * * * * * * //

dimensions      [0 0 0 0 0 0 0];

internalField   nonuniform List<scalar> 
10000
(
4.28923e-75
3.28097e-72
1.35664e-70
2.09041e-70
4.70533e-67
5.5293e-64
3.97671e-61
1.93571e-58
6.82829e-56
1.83432e-53
3.90792e-51
6.87063e-49
1.03908e-46
1.39572e-44
1.66233e-42
1.67806e-40
1.3475e-38
8.29485e-37
4.07788e-35
1.66906e-33
5.70753e-32
1.50482e-30
2.93428e-29
4.1854e-28
4.37681e-27
3.33414e-26
1.82686e-25
7.2066e-25
2.21916e-24
3.94391e-24
4.33096e-24
3.05836e-24
1.39667e-24
4.06175e-25
7.27194e-26
7.66904e-27
4.46761e-28
1.28165e-29
1.79241e-31
2.01559e-33
2.198e-35
2.35977e-37
1.8556e-39
1.02224e-41
4.22077e-44
1.48957e-46
5.03087e-49
1.38274e-51
2.86322e-54
1.15255e-52
8.40086e-71
1.04719e-67
7.98973e-65
1.37113e-61
1.11692e-58
5.25348e-56
1.60863e-53
3.46979e-51
5.57235e-49
6.94162e-47
6.92639e-45
5.68708e-43
3.93713e-41
2.34951e-39
1.22894e-37
5.6642e-36
2.28075e-34
7.91133e-33
2.35623e-31
6.15605e-30
1.38333e-28
2.5272e-27
3.62129e-26
4.01733e-25
3.43695e-24
2.24288e-23
1.10042e-22
4.07488e-22
1.22984e-21
2.19302e-21
2.48153e-21
1.86004e-21
9.31285e-22
3.08102e-22
6.55869e-23
8.65492e-24
6.75469e-25
2.87459e-26
6.95255e-28
1.61687e-29
3.86101e-31
9.50229e-33
2.6806e-34
8.20303e-36
2.20585e-37
4.30777e-39
4.96287e-41
2.60608e-43
1.16624e-44
5.54917e-43
1.44499e-66
9.83801e-63
2.23551e-59
2.08614e-56
1.0287e-53
3.11085e-51
6.34565e-49
9.32511e-47
1.03566e-44
9.01463e-43
6.32919e-41
3.67149e-39
1.79751e-37
7.57402e-36
2.79387e-34
9.12688e-33
2.64834e-31
6.79648e-30
1.53507e-28
3.06404e-27
5.33903e-26
7.75443e-25
9.07112e-24
8.48479e-23
6.29814e-22
3.66278e-21
1.64957e-20
5.82495e-20
1.75001e-19
3.14463e-19
3.66469e-19
2.90491e-19
1.5843e-19
5.89924e-20
1.46831e-20
2.36576e-21
2.37928e-22
1.41264e-23
5.25214e-25
2.0506e-26
9.07e-28
4.87536e-29
2.90418e-30
1.60308e-31
7.00667e-33
2.05766e-34
3.24026e-36
1.91109e-38
4.43616e-39
1.44671e-37
2.06456e-62
1.23399e-58
1.86076e-55
1.22313e-52
4.44446e-50
1.02004e-47
1.61091e-45
1.85839e-43
1.63645e-41
1.13768e-39
6.41475e-38
3.00032e-36
1.1875e-34
4.05084e-33
1.21078e-31
3.21149e-30
7.60567e-29
1.60666e-27
3.01286e-26
5.01332e-25
7.33834e-24
9.03578e-23
9.09882e-22
7.46552e-21
4.9473e-20
2.61502e-19
1.09431e-18
3.71108e-18
1.11918e-17
2.02755e-17
2.42751e-17
2.02638e-17
1.19635e-17
4.97061e-18
1.42899e-18
2.75939e-19
3.47649e-20
2.74551e-21
1.44362e-22
8.4502e-24
5.97667e-25
5.0493e-26
4.31718e-27
3.20394e-28
1.86924e-29
7.31537e-31
1.46242e-32
8.92939e-35
4.66045e-35
1.19225e-33
4.41658e-59
1.99445e-55
2.33071e-52
1.22098e-49
3.61082e-47
6.85037e-45
9.04706e-43
8.80368e-41
6.58202e-39
3.90454e-37
1.88578e-35
7.57729e-34
2.58184e-32
7.5921e-31
1.95761e-29
4.48283e-28
9.1814e-27
1.68237e-25
2.74569e-24
3.98539e-23
5.09699e-22
5.48834e-21
4.88759e-20
3.5865e-19
2.15093e-18
1.04321e-17
4.08301e-17
1.33367e-16
4.05235e-16
7.38215e-16
9.04325e-16
7.91275e-16
5.02605e-16
2.31269e-16
7.59311e-17
1.73124e-17
2.67624e-18
2.72573e-19
1.92273e-20
1.56222e-21
1.54221e-22
1.72795e-23
1.87556e-24
1.72931e-25
1.23386e-26
6.0532e-28
1.53631e-29
1.03503e-31
6.99544e-32
1.51497e-30
2.44686e-56
9.23551e-53
9.10349e-50
4.06971e-47
1.0375e-44
1.71096e-42
1.9773e-40
1.69262e-38
1.11783e-36
5.87622e-35
2.52117e-33
9.01562e-32
2.73716e-30
7.17572e-29
1.64953e-27
3.36661e-26
6.14504e-25
1.00385e-23
1.46115e-22
1.8918e-21
2.15611e-20
2.06667e-19
1.64888e-18
1.09171e-17
5.96041e-17
2.66329e-16
9.7744e-16
3.0791e-15
9.42576e-15
1.71744e-14
2.14134e-14
1.95358e-14
1.32737e-14
6.71214e-15
2.49082e-15
6.62296e-16
1.23566e-16
1.5811e-17
1.43551e-18
1.51171e-19
1.90854e-20
2.62404e-21
3.40442e-22
3.76738e-23
3.2231e-24
1.90936e-25
6.08865e-27
5.01844e-29
2.98863e-29
5.74185e-28
5.7153e-54
1.90617e-50
1.6621e-47
6.60207e-45
1.50242e-42
2.22111e-40
2.30949e-38
1.7841e-36
1.06583e-34
5.07757e-33
1.97679e-31
6.41928e-30
1.77021e-28
4.21389e-27
8.78831e-26
1.62537e-24
2.68509e-23
3.96509e-22
5.20985e-21
6.0804e-20
6.23214e-19
5.363e-18
3.85419e-17
2.30981e-16
1.15002e-15
4.73878e-15
1.63129e-14
4.95969e-14
1.52391e-13
2.75624e-13
3.47565e-13
3.2883e-13
2.37544e-13
1.30978e-13
5.44317e-14
1.67025e-14
3.70681e-15
5.82317e-16
6.59239e-17
8.54646e-18
1.30701e-18
2.12328e-19
3.213e-20
4.13111e-21
4.18282e-22
2.94394e-23
1.16793e-24
1.31085e-26
5.21107e-27
9.1689e-26
7.56826e-52
2.29892e-48
1.82169e-45
6.58256e-43
1.36509e-40
1.84251e-38
1.75223e-36
1.23987e-34
6.79246e-33
2.96968e-31
1.06141e-29
3.16395e-28
8.00428e-27
1.74597e-25
3.3313e-24
5.6259e-23
8.47019e-22
1.13778e-20
1.35707e-19
1.43423e-18
1.32605e-17
1.02758e-16
6.66051e-16
3.61327e-15
1.63952e-14
6.22546e-14
2.00906e-13
5.89937e-13
1.80507e-12
3.21046e-12
4.0656e-12
3.96758e-12
3.02775e-12
1.80692e-12
8.33831e-13
2.92348e-13
7.62394e-14
1.44839e-14
2.01856e-15
3.08698e-16
5.51366e-17
1.02964e-17
1.78855e-18
2.63706e-19
3.09589e-20
2.59932e-21
1.27189e-22
2.06977e-24
4.59363e-25
7.57421e-24
6.91528e-50
1.94161e-46
1.41777e-43
4.71853e-41
9.01513e-39
1.12167e-36
9.83912e-35
6.42514e-33
3.24948e-31
1.31155e-29
4.32606e-28
1.18911e-26
2.77024e-25
5.55429e-24
9.71866e-23
1.50143e-21
2.06297e-20
2.52336e-19
2.73413e-18
2.61663e-17
2.18244e-16
1.52296e-15
8.895e-15
4.36096e-14
1.79988e-13
6.28773e-13
1.90185e-12
5.39951e-12
1.62398e-11
2.81072e-11
3.54731e-11
3.55343e-11
2.84629e-11
1.82552e-11
9.28021e-12
3.68246e-12
1.11788e-12
2.5409e-13
4.34643e-14
7.57188e-15
1.54176e-15
3.25159e-16
6.38457e-17
1.07623e-17
1.44552e-18
1.43487e-19
8.59443e-21
2.01877e-22
2.3581e-23
3.68608e-22
5.01059e-48
1.30574e-44
8.82636e-42
2.71677e-39
4.79873e-37
5.51945e-35
4.47591e-33
2.70212e-31
1.26319e-29
4.71075e-28
1.4345e-26
3.6356e-25
7.7952e-24
1.43502e-22
2.29895e-21
3.24228e-20
4.05594e-19
4.50632e-18
4.42476e-17
3.82385e-16
2.87159e-15
1.80162e-14
9.46336e-14
4.1834e-13
1.56669e-12
5.02632e-12
1.42583e-11
3.91729e-11
1.13733e-10
1.8949e-10
2.36484e-10
2.42272e-10
2.02464e-10
1.38546e-10
7.70057e-11
3.42919e-11
1.20165e-11
3.24179e-12
6.75953e-13
1.31337e-13
3.00425e-14
7.07771e-15
1.55572e-15
2.97056e-16
4.56385e-17
5.26344e-18
3.90206e-19
1.2542e-20
7.83052e-22
1.15452e-20
3.18423e-46
7.67686e-43
4.79319e-40
1.36152e-37
2.21819e-35
2.35262e-33
1.75897e-31
9.78889e-30
4.21718e-28
1.44852e-26
4.05877e-25
9.45112e-24
1.85792e-22
3.12718e-21
4.5659e-20
5.84958e-19
6.62839e-18
6.65624e-17
5.89576e-16
4.58068e-15
3.08712e-14
1.73717e-13
8.18811e-13
3.25653e-12
1.10415e-11
3.24847e-11
8.65163e-11
2.29531e-10
6.30068e-10
1.00009e-09
1.22536e-09
1.28194e-09
1.11136e-09
8.05237e-10
4.85536e-10
2.41128e-10
9.67249e-11
3.0778e-11
7.75122e-12
1.66456e-12
4.23336e-13
1.10611e-13
2.70506e-14
5.8025e-15
1.02305e-15
1.35641e-16
1.22089e-17
5.2529e-19
1.84308e-20
2.47309e-19
1.89048e-44
4.1895e-41
2.40257e-38
6.26274e-36
9.35706e-34
9.09709e-32
6.23307e-30
3.1782e-28
1.25416e-26
3.94383e-25
1.0108e-23
2.14977e-22
3.8515e-21
5.8908e-20
7.78817e-19
9.00235e-18
9.17644e-17
8.2739e-16
6.57192e-15
4.56621e-14
2.75011e-13
1.38408e-12
5.84154e-12
2.08664e-11
6.39564e-11
1.72414e-10
4.31176e-10
1.09644e-09
2.78811e-09
4.17824e-09
4.9975e-09
5.34881e-09
4.78912e-09
3.6409e-09
2.36119e-09
1.29993e-09
5.94207e-10
2.21467e-10
6.68243e-11
1.63646e-11
4.47323e-12
1.28484e-12
3.48053e-13
8.34564e-14
1.67464e-14
2.57785e-15
2.74888e-16
1.57471e-17
3.90633e-19
3.765e-18
1.05937e-42
2.14826e-39
1.12684e-36
2.68352e-34
3.65874e-32
3.24284e-30
2.02404e-28
9.39558e-27
3.37353e-25
9.64669e-24
2.24638e-22
4.33505e-21
7.03274e-20
9.71153e-19
1.15491e-17
1.19603e-16
1.08874e-15
8.7511e-15
6.19188e-14
3.82417e-13
2.04843e-12
9.19349e-12
3.46741e-11
1.11118e-10
3.07727e-10
7.59928e-10
1.78004e-09
4.28018e-09
9.89597e-09
1.39376e-08
1.62204e-08
1.78802e-08
1.6508e-08
1.29939e-08
8.95917e-09
5.46102e-09
2.82149e-09
1.23026e-09
4.40612e-10
1.29752e-10
3.68167e-11
1.14809e-11
3.42176e-12
9.12763e-13
2.06815e-13
3.71328e-14
4.63399e-15
3.45258e-16
9.59359e-18
4.19113e-17
5.40151e-41
1.00059e-37
4.79451e-35
1.0418e-32
1.29418e-30
1.04363e-28
5.91837e-27
2.49298e-25
8.11328e-24
2.1006e-22
4.42403e-21
7.71084e-20
1.12763e-18
1.39973e-17
1.49058e-16
1.37599e-15
1.11168e-14
7.90936e-14
4.95161e-13
2.70522e-12
1.28279e-11
5.12114e-11
1.7233e-10
4.95157e-10
1.23919e-09
2.80136e-09
6.10639e-09
1.36331e-08
2.82458e-08
3.74698e-08
4.24808e-08
4.87065e-08
4.63367e-08
3.75234e-08
2.66247e-08
1.82998e-08
1.04548e-08
5.34467e-09
2.26604e-09
8.01553e-10
2.38765e-10
8.02801e-11
2.62266e-11
7.75309e-12
1.97267e-12
4.072e-13
6.12331e-14
5.57139e-15
2.108e-16
3.48188e-16
2.39719e-39
4.05014e-36
1.77135e-33
3.51101e-31
3.97444e-29
2.91672e-27
1.50308e-25
5.74468e-24
1.69373e-22
3.96687e-21
7.54647e-20
1.18624e-18
1.56152e-17
1.74012e-16
1.65727e-15
1.3614e-14
9.73441e-14
6.1036e-13
3.36296e-12
1.61897e-11
6.77279e-11
2.40188e-10
7.20711e-10
1.85672e-09
4.19924e-09
8.67013e-09
1.74061e-08
3.5411e-08
6.53193e-08
8.25037e-08
9.23891e-08
1.06078e-07
1.02551e-07
9.42589e-08
6.15217e-08
4.97679e-08
3.04286e-08
1.82803e-08
9.21957e-09
3.87346e-09
1.33787e-09
4.54938e-10
1.60793e-10
5.23836e-11
1.48865e-11
3.49912e-12
6.26697e-13
7.04669e-14
3.79507e-15
2.18855e-15
9.00648e-38
1.38393e-34
5.51227e-32
9.95189e-30
1.02571e-27
6.84821e-26
3.20713e-24
1.11243e-22
2.97219e-21
6.29859e-20
1.08256e-18
1.53514e-17
1.81997e-16
1.82257e-15
1.55484e-14
1.13881e-13
7.21831e-13
3.99015e-12
1.9326e-11
8.185e-11
3.0158e-10
9.50627e-10
2.54664e-09
5.88989e-09
1.20376e-08
2.26009e-08
4.12894e-08
7.5581e-08
1.25207e-07
1.5449e-07
1.64215e-07
1.19401e-07
1.1647e-07
2.41842e-07
1.10091e-07
9.95553e-08
6.83191e-08
4.93473e-08
2.95265e-08
1.47596e-08
6.16028e-09
2.15302e-09
8.12644e-10
2.89017e-10
9.11374e-11
2.42106e-11
5.05474e-12
7.24089e-13
5.05523e-14
1.09785e-14
2.82681e-36
3.93723e-33
1.4241e-30
2.33694e-28
2.19003e-26
1.32931e-24
5.65638e-23
1.7809e-21
4.31348e-20
8.2741e-19
1.28518e-17
1.64439e-16
1.75628e-15
1.58176e-14
1.2108e-13
7.92972e-13
4.47228e-12
2.18743e-11
9.33608e-11
3.48283e-10
1.13131e-09
3.17795e-09
7.62769e-09
1.58925e-08
2.93935e-08
5.00088e-08
8.25418e-08
1.36391e-07
2.07547e-07
2.13615e-07
9.21959e-07
3.47449e-06
3.69804e-06
6.2107e-07
1.7801e-07
2.37606e-07
1.04685e-07
1.03756e-07
7.31904e-08
4.3785e-08
2.209e-08
8.91033e-09
3.45879e-09
1.33108e-09
4.63236e-10
1.38083e-10
3.31682e-11
5.79442e-12
5.63656e-13
5.21815e-14
7.27027e-35
9.15676e-32
3.00164e-29
4.4713e-27
3.80769e-25
2.10122e-23
8.12798e-22
2.32498e-20
5.1106e-19
8.88386e-18
1.24841e-16
1.44266e-15
1.38939e-14
1.12669e-13
7.75353e-13
4.55547e-12
2.29711e-11
9.99644e-11
3.77719e-10
1.24517e-09
3.58079e-09
8.98161e-09
1.94288e-08
3.67028e-08
6.17415e-08
9.53306e-08
1.42732e-07
2.1391e-07
2.24585e-07
2.53704e-06
1.00313e-05
1.10227e-05
1.10224e-05
8.44543e-06
1.51057e-06
1.58313e-07
1.6077e-07
1.67833e-07
1.375e-07
9.81567e-08
6.02868e-08
3.05511e-08
1.27372e-08
5.27403e-09
2.00336e-09
6.62979e-10
1.8082e-10
3.73543e-11
4.89267e-12
3.08936e-13
1.52238e-33
1.73084e-30
5.13356e-28
6.93304e-26
5.36113e-24
2.68914e-22
9.45958e-21
2.46043e-19
4.91456e-18
7.75436e-17
9.87588e-16
1.03254e-14
8.98106e-14
6.56717e-13
4.06957e-12
2.15008e-11
9.73011e-11
3.78831e-10
1.27566e-09
3.73822e-09
9.57668e-09
2.15219e-08
4.22804e-08
7.29893e-08
1.11807e-07
1.53331e-07
2.0007e-07
2.11532e-07
1.9997e-06
1.10359e-05
1.10326e-05
1.10262e-05
1.10242e-05
1.06701e-05
2.4431e-06
1.60815e-07
1.80466e-07
2.16304e-07
1.97647e-07
1.64171e-07
1.21362e-07
7.66457e-08
3.804e-08
1.73514e-08
7.27377e-09
2.6765e-09
8.2394e-10
1.97845e-10
3.24799e-11
2.59643e-12
2.57956e-32
2.64586e-29
7.09541e-27
8.6835e-25
6.09627e-23
2.78038e-21
8.90186e-20
2.10832e-18
3.83419e-17
5.5041e-16
6.36968e-15
6.04097e-14
4.75689e-13
3.14275e-12
1.75662e-11
8.36062e-11
3.40525e-10
1.19185e-09
3.60129e-09
9.4537e-09
2.17281e-08
4.39989e-08
7.90855e-08
1.25151e-07
1.70844e-07
1.65793e-07
1.90546e-07
2.08856e-07
3.05277e-06
9.82586e-06
1.10348e-05
1.07711e-05
5.76941e-06
7.04777e-07
2.57244e-07
4.10944e-07
1.85903e-07
2.41208e-07
2.33346e-07
2.14825e-07
1.83737e-07
1.3993e-07
8.91336e-08
4.65536e-08
2.1894e-08
9.01348e-09
3.12884e-09
8.64488e-10
1.71302e-10
1.89252e-11
3.53191e-31
3.27559e-28
7.95742e-26
8.83794e-24
5.63977e-22
2.341e-20
6.82813e-19
1.47414e-17
2.44411e-16
3.19755e-15
3.36928e-14
2.90531e-13
2.07627e-12
1.24241e-11
6.27785e-11
2.6974e-10
9.91205e-10
3.13037e-09
8.53883e-09
2.02492e-08
4.21383e-08
7.77936e-08
1.29742e-07
2.08356e-07
3.80686e-07
2.31144e-06
2.91497e-06
1.04255e-06
2.56092e-07
2.57003e-07
4.29016e-07
2.56775e-07
2.56643e-07
2.56621e-07
2.54934e-07
2.27578e-07
2.15496e-07
2.50855e-07
2.50114e-07
2.42278e-07
2.25952e-07
1.96431e-07
1.51544e-07
9.50297e-08
5.1791e-08
2.43514e-08
9.6351e-09
3.06438e-09
7.2016e-10
1.03971e-10
3.88132e-30
3.26861e-27
7.22448e-25
7.3115e-23
4.25618e-21
1.61294e-19
4.29768e-18
8.47904e-17
1.28484e-15
1.53591e-14
1.4778e-13
1.16224e-12
7.56275e-12
4.11193e-11
1.88359e-10
7.32218e-10
2.43137e-09
6.93945e-09
1.71327e-08
3.68528e-08
6.96732e-08
1.17509e-07
1.88942e-07
2.94063e-07
5.35832e-06
8.18791e-06
8.12666e-06
1.1719e-06
2.56168e-07
2.65117e-07
2.74227e-07
2.83311e-07
2.86767e-07
2.77851e-07
2.71889e-07
2.62599e-07
4.2426e-07
2.53678e-07
2.59286e-07
2.55846e-07
2.48203e-07
2.32981e-07
2.03512e-07
1.52793e-07
9.72271e-08
5.27923e-08
2.39937e-08
8.7935e-09
2.42401e-09
4.34065e-10
3.41887e-29
2.62747e-26
5.31453e-24
4.93068e-22
2.63378e-20
9.16245e-19
2.24116e-17
4.05828e-16
5.6421e-15
6.18478e-14
5.45274e-13
3.92523e-12
2.33433e-11
1.15765e-10
4.82557e-10
1.70278e-09
5.12127e-09
1.32201e-08
2.9506e-08
5.73668e-08
9.80281e-08
1.52634e-07
1.68887e-07
4.38295e-06
8.19723e-06
8.19626e-06
7.63789e-06
4.85862e-07
2.60349e-07
2.99277e-07
3.28141e-07
3.41776e-07
3.18931e-07
2.807e-07
2.73222e-07
2.69948e-07
2.67073e-07
2.67003e-07
2.64504e-07
2.6231e-07
2.58312e-07
2.5275e-07
2.37023e-07
2.05355e-07
1.51127e-07
9.45238e-08
4.93114e-08
2.07641e-08
6.6459e-09
1.42995e-09
2.4151e-28
1.70191e-25
3.16898e-23
2.7134e-21
1.33958e-19
4.30954e-18
9.74683e-17
1.63089e-15
2.09313e-14
2.1157e-13
1.71784e-12
1.13738e-11
6.21223e-11
2.8247e-10
1.07743e-09
3.47146e-09
9.51587e-09
2.23761e-08
4.56007e-08
8.16115e-08
1.31055e-07
2.01821e-07
2.76352e-07
6.08592e-06
8.20384e-06
8.14569e-06
1.96924e-06
2.74272e-07
2.92533e-07
3.27226e-07
3.71361e-07
3.87122e-07
3.48958e-07
2.74288e-07
2.74247e-07
2.73374e-07
2.70931e-07
2.69093e-07
2.65018e-07
2.62131e-07
2.58052e-07
2.60773e-07
2.53376e-07
2.37326e-07
1.98601e-07
1.42352e-07
8.50818e-08
4.10313e-08
1.51184e-08
3.82151e-09
1.37074e-27
8.91381e-25
1.53789e-22
1.22357e-20
5.62347e-19
1.68587e-17
3.55385e-16
5.53959e-15
6.61605e-14
6.2141e-13
4.68086e-12
2.8704e-11
1.44965e-10
6.08499e-10
2.13905e-09
6.3411e-09
1.59707e-08
3.44894e-08
6.46409e-08
1.06713e-07
1.57387e-07
2.1199e-07
2.26497e-07
3.52012e-06
8.20969e-06
2.66059e-06
2.85342e-07
2.88974e-07
2.99384e-07
3.06036e-07
3.53709e-07
2.81359e-07
2.82438e-07
2.75782e-07
2.76512e-07
2.77055e-07
2.70457e-07
2.67501e-07
2.60538e-07
2.55203e-07
2.44083e-07
2.82941e-07
2.53818e-07
2.48531e-07
2.29601e-07
1.85927e-07
1.26408e-07
6.93945e-08
2.91634e-08
8.50112e-09
6.18487e-27
3.75947e-24
6.07763e-22
4.53808e-20
1.95961e-18
5.52318e-17
1.09476e-15
1.60383e-14
1.79848e-13
1.58365e-12
1.11629e-11
6.39288e-11
3.00937e-10
1.17541e-09
3.8396e-09
1.05683e-08
2.47193e-08
4.97289e-08
8.77877e-08
1.40726e-07
2.148e-07
3.21482e-07
4.47957e-07
4.85713e-07
4.09021e-07
4.09435e-07
3.1666e-07
2.87936e-07
2.92345e-07
2.8792e-07
2.75251e-07
2.79181e-07
2.76719e-07
2.78433e-07
2.79548e-07
2.78113e-07
2.67795e-07
2.64612e-07
2.53725e-07
2.44463e-07
2.26749e-07
2.79845e-07
2.35879e-07
2.37951e-07
2.3693e-07
2.13735e-07
1.64226e-07
1.0211e-07
4.85584e-08
1.60789e-08
2.15334e-26
1.24969e-23
1.92882e-21
1.37402e-19
5.65505e-18
1.51753e-16
2.86045e-15
3.97994e-14
4.23221e-13
3.5278e-12
2.34926e-11
1.26826e-10
5.6154e-10
2.05866e-09
6.30057e-09
1.62214e-08
3.54188e-08
6.62436e-08
1.07572e-07
1.54458e-07
2.0018e-07
2.37501e-07
2.58976e-07
2.67817e-07
2.80703e-07
2.93812e-07
3.02736e-07
3.01917e-07
2.89732e-07
2.84762e-07
2.75279e-07
2.77522e-07
2.79372e-07
2.82496e-07
2.83607e-07
2.68351e-07
2.72152e-07
2.71282e-07
2.54223e-07
2.31444e-07
2.22655e-07
2.1496e-07
2.15231e-07
2.13764e-07
2.19408e-07
2.06287e-07
1.6668e-07
1.28732e-07
6.9854e-08
2.61382e-08
5.59989e-26
3.18429e-23
4.80533e-21
3.33777e-19
1.33544e-17
3.47295e-16
6.3244e-15
8.47542e-14
8.65508e-13
6.90836e-12
4.39274e-11
2.25795e-10
9.49234e-10
3.29538e-09
9.52792e-09
2.31287e-08
4.75394e-08
8.35853e-08
1.2751e-07
1.72753e-07
2.17197e-07
2.73485e-07
3.66945e-07
4.7779e-07
5.25082e-07
6.583e-07
6.4289e-07
3.7123e-07
2.73796e-07
2.7485e-07
2.78099e-07
2.80994e-07
2.8268e-07
2.87524e-07
2.92494e-07
2.74688e-07
2.7752e-07
2.74308e-07
2.62081e-07
2.40912e-07
2.68959e-07
2.17055e-07
2.10058e-07
2.03013e-07
2.25756e-07
2.71487e-07
2.42443e-07
1.40003e-07
9.08473e-08
3.73312e-08
1.05855e-25
6.06998e-23
9.19437e-21
6.38062e-19
2.53867e-17
6.53432e-16
1.17213e-14
1.53998e-13
1.53462e-12
1.18993e-11
7.31833e-11
3.62351e-10
1.4616e-09
4.85105e-09
1.33673e-08
3.08535e-08
6.02387e-08
1.00708e-07
1.46653e-07
1.90874e-07
2.30156e-07
2.65705e-07
2.72805e-07
9.9352e-07
1.17194e-05
1.58798e-05
2.2161e-06
2.72944e-07
2.74151e-07
2.78747e-07
2.83116e-07
2.85983e-07
2.85911e-07
2.92898e-07
2.99024e-07
2.87563e-07
2.95943e-07
5.7096e-07
2.81742e-07
1.89526e-06
3.67403e-07
2.232e-07
2.09736e-07
2.02426e-07
1.96149e-07
2.72068e-07
2.723e-07
1.57051e-07
1.0351e-07
4.70408e-08
1.41768e-25
8.47749e-23
1.32693e-20
9.44385e-19
3.82769e-17
9.97351e-16
1.8001e-14
2.36532e-13
2.34325e-12
1.79549e-11
1.08483e-10
5.24662e-10
2.05593e-09
6.59551e-09
1.74894e-08
3.8718e-08
7.23964e-08
1.16083e-07
1.63048e-07
2.06739e-07
2.44297e-07
2.5018e-07
5.6536e-07
1.09733e-05
1.62574e-05
1.62543e-05
9.74587e-06
2.72948e-07
2.76869e-07
2.86541e-07
2.91605e-07
2.88382e-07
2.87035e-07
2.96497e-07
5.07937e-07
3.4482e-06
1.57419e-05
3.3609e-05
1.50897e-05
7.68674e-06
2.91365e-07
2.3675e-07
2.22347e-07
2.12649e-07
2.25025e-07
2.39332e-07
2.2788e-07
1.34243e-07
1.08407e-07
5.37459e-08
1.30046e-25
8.46476e-23
1.41704e-20
1.06508e-18
4.51387e-17
1.21948e-15
2.26482e-14
3.04019e-13
3.05508e-12
2.35772e-11
1.42453e-10
6.84048e-10
2.64283e-09
8.30365e-09
2.14361e-08
4.59759e-08
8.30505e-08
1.28673e-07
1.75296e-07
2.16658e-07
2.51349e-07
2.57785e-07
1.64912e-06
1.58663e-05
1.62601e-05
1.62616e-05
9.82206e-06
2.73017e-07
2.85779e-07
2.92664e-07
2.96398e-07
2.96574e-07
2.9192e-07
3.1021e-07
1.59178e-06
1.64863e-05
5.34986e-05
5.34962e-05
5.23617e-05
9.54683e-06
3.52536e-07
2.72433e-07
2.56131e-07
2.94728e-07
1.24805e-06
4.12867e-07
1.51319e-07
1.44051e-07
1.08218e-07
5.67127e-08
7.75293e-26
5.83317e-23
1.09092e-20
8.96516e-19
4.09168e-17
1.17666e-15
2.30373e-14
3.23196e-13
3.36662e-12
2.67149e-11
1.64614e-10
7.99481e-10
3.09804e-09
9.68329e-09
2.46771e-08
5.19019e-08
9.14933e-08
1.38042e-07
1.83429e-07
2.22729e-07
2.57088e-07
2.63406e-07
7.28055e-07
1.18383e-05
1.62571e-05
1.60033e-05
2.49081e-06
2.73541e-07
3.02284e-07
5.35981e-07
3.16367e-07
3.95089e-07
3.05746e-07
5.87719e-07
2.92804e-06
1.51276e-05
5.34746e-05
5.34927e-05
5.34645e-05
1.78661e-05
8.15825e-07
6.31778e-07
6.5668e-07
3.0933e-06
1.09008e-05
1.1334e-06
1.40664e-07
1.37577e-07
1.02361e-07
5.58692e-08
2.7526e-26
2.63161e-23
5.834e-21
5.47138e-19
2.78286e-17
8.77316e-16
1.85967e-14
2.79555e-13
3.09117e-12
2.58037e-11
1.65745e-10
8.31319e-10
3.29517e-09
1.04342e-08
2.66868e-08
5.58477e-08
9.72557e-08
1.4424e-07
1.87961e-07
2.23718e-07
2.53823e-07
2.87385e-07
2.99646e-07
3.01497e-06
8.07081e-06
4.8952e-06
2.89319e-07
2.90599e-07
2.97432e-07
1.30476e-06
7.48536e-06
1.41448e-05
1.08668e-06
7.04742e-07
1.23381e-06
9.64708e-07
3.26324e-05
5.34674e-05
4.00936e-05
1.80396e-05
2.23391e-05
1.59393e-05
2.59316e-06
1.5459e-05
1.72887e-05
5.15204e-07
1.32485e-07
1.1206e-07
8.97482e-08
4.79046e-08
5.28451e-27
7.32243e-24
2.06899e-21
2.33181e-19
1.3758e-17
4.91439e-16
1.16117e-14
1.92182e-13
2.31539e-12
2.08549e-11
1.43136e-10
7.5936e-10
3.14988e-09
1.03228e-08
2.7021e-08
5.72488e-08
9.99439e-08
1.47395e-07
1.89872e-07
2.22485e-07
2.47252e-07
2.69948e-07
2.98655e-07
3.02112e-07
3.23024e-07
3.11148e-07
3.01275e-07
3.05588e-07
3.09768e-07
1.85646e-06
2.17513e-05
2.31242e-05
1.61928e-05
7.74279e-07
8.49396e-07
9.00696e-07
1.13585e-06
2.50179e-05
4.31334e-05
6.2111e-05
0.000265216
5.95021e-05
0.000360822
1.01657e-05
2.26376e-06
4.34447e-08
3.20351e-08
2.44549e-08
1.71161e-08
1.51631e-08
6.30839e-28
1.51642e-24
5.73802e-22
7.84742e-20
5.36956e-18
2.16933e-16
5.71387e-15
1.0451e-13
1.38407e-12
1.37242e-11
1.03459e-10
5.96755e-10
2.66068e-09
9.25722e-09
2.53902e-08
5.56138e-08
9.90727e-08
1.47337e-07
1.89527e-07
2.20144e-07
2.41168e-07
2.57883e-07
2.74529e-07
2.92784e-07
3.08223e-07
3.0028e-07
2.9564e-07
3.03014e-07
3.13702e-07
2.71397e-06
2.31288e-05
2.31291e-05
2.31265e-05
6.53637e-06
8.9689e-07
5.73085e-06
6.93625e-06
1.77681e-05
8.97023e-05
0.000109346
0.00048841
0.00032736
0.00113504
3.98878e-06
2.671e-06
1.36716e-07
4.2226e-08
3.07075e-08
0.0137473
0.0178103
5.35843e-29
2.54052e-25
1.343e-22
2.28525e-20
1.8397e-18
8.48062e-17
2.50417e-15
5.07668e-14
7.39013e-13
7.97678e-12
6.51182e-11
4.06902e-10
1.96549e-09
7.37428e-09
2.17104e-08
5.05664e-08
9.40244e-08
1.43514e-07
1.86725e-07
2.16908e-07
2.35848e-07
2.49095e-07
2.60798e-07
2.72006e-07
2.80485e-07
2.82252e-07
2.85132e-07
2.94916e-07
2.99901e-07
3.50099e-07
1.05073e-05
2.31327e-05
2.28669e-05
1.24498e-05
9.82536e-07
1.12764e-05
7.522e-05
9.84319e-05
0.000269284
0.00021109
0.00124795
0.000977136
0.00843978
0.0417223
0.123477
0.314466
0.537721
0.702461
0.802615
0.814913
3.50709e-30
3.64785e-26
2.76386e-23
5.92691e-21
5.65096e-19
2.98178e-17
9.87911e-16
2.21865e-14
3.55032e-13
4.1858e-12
3.7168e-11
2.52276e-10
1.32249e-09
5.37116e-09
1.70371e-08
4.24442e-08
8.39129e-08
1.34284e-07
1.80182e-07
2.12289e-07
2.30983e-07
2.42589e-07
2.5177e-07
2.59985e-07
2.6629e-07
2.69535e-07
2.72193e-07
2.91573e-07
2.98675e-07
3.09392e-07
1.0348e-06
5.18363e-06
5.83669e-06
4.16952e-06
1.29189e-06
1.49493e-05
0.000105434
0.000179608
0.000216684
0.000331587
0.000634503
0.0618311
0.244962
0.521533
0.8258
0.97697
1
1
1
1
2.02031e-31
4.76276e-27
5.20789e-24
1.41074e-21
1.59454e-19
9.63079e-18
3.57643e-16
8.8834e-15
1.55979e-13
2.00642e-12
1.93606e-11
1.42528e-10
8.103e-10
3.56884e-09
1.22598e-08
3.29601e-08
7.00128e-08
1.19205e-07
1.67774e-07
2.03757e-07
2.25001e-07
2.37091e-07
2.45507e-07
2.52402e-07
2.5808e-07
2.61399e-07
3.40855e-07
2.78473e-07
2.90877e-07
2.97722e-07
2.92963e-07
2.93957e-07
3.10417e-07
1.88447e-06
1.97335e-05
2.64444e-05
0.000101756
0.000199123
0.000320934
0.000728641
0.148645
0.452595
0.806054
0.986647
0.999895
1
1
1
1
1
1.06911e-32
5.71025e-28
9.01822e-25
3.08553e-22
4.13332e-20
2.85598e-18
1.18741e-16
3.25777e-15
6.26703e-14
8.78513e-13
9.20411e-12
7.34419e-11
4.52668e-10
2.1638e-09
8.06102e-09
2.34759e-08
5.39545e-08
9.89098e-08
1.48393e-07
1.8926e-07
2.15652e-07
2.30762e-07
2.40061e-07
2.46734e-07
2.52686e-07
2.58861e-07
2.63058e-07
2.77722e-07
2.806e-07
3.12918e-07
2.9671e-07
3.03878e-07
3.52852e-07
7.63771e-06
5.58333e-05
8.26663e-05
0.000170952
0.000426782
0.00281732
0.219806
0.614141
0.930954
0.999571
0.999939
1
1
1
1
1
1
5.10206e-34
6.18582e-29
1.41391e-25
6.11687e-23
9.71698e-21
7.68174e-19
3.57456e-17
1.08279e-15
2.28085e-14
3.48329e-13
3.96301e-12
3.42839e-11
2.29048e-10
1.18873e-09
4.80856e-09
1.52094e-08
3.80022e-08
7.56396e-08
1.22454e-07
1.66807e-07
1.99802e-07
2.20659e-07
2.22935e-07
2.39244e-07
2.47208e-07
2.54439e-07
2.62484e-07
2.71177e-07
2.75085e-07
2.77464e-07
2.86637e-07
3.26417e-07
3.46411e-06
4.24336e-06
5.85783e-05
0.000247572
0.000301199
0.00119464
0.2499
0.703362
0.981228
0.999809
0.999972
0.999997
1
1
1
1
1
1
2.13041e-35
5.93156e-30
1.9713e-26
1.08114e-23
2.03987e-21
1.84669e-19
9.62253e-18
3.21943e-16
7.4277e-15
1.23637e-13
1.52865e-12
1.43481e-11
1.03919e-10
5.85846e-10
2.57709e-09
8.8725e-09
2.41796e-08
5.25499e-08
9.26434e-08
1.366e-07
1.74965e-07
1.67181e-07
3.38108e-07
2.67003e-07
2.49824e-07
2.49386e-07
2.52944e-07
2.53335e-07
3.91856e-07
2.81902e-07
2.94863e-07
2.99001e-07
4.67378e-06
3.93099e-05
6.55596e-05
0.000343388
0.00275059
0.209762
0.715568
0.999672
0.999963
0.999987
0.999997
1
1
1
1
1
1
1
7.59609e-37
4.93904e-31
2.4015e-27
1.6755e-24
3.76319e-22
3.90715e-20
2.28228e-18
8.44206e-17
2.13515e-15
3.87733e-14
5.21544e-13
5.31697e-12
4.17818e-11
2.56107e-10
1.22709e-09
4.60733e-09
1.37277e-08
3.26995e-08
6.31752e-08
1.01785e-07
1.41286e-07
1.56903e-07
1.75609e-07
2.26583e-07
2.32331e-07
2.32429e-07
2.33548e-07
2.53126e-07
2.57305e-07
2.76154e-07
2.8656e-07
3.13812e-07
3.37485e-06
0.000247326
0.000209127
0.000857394
0.146479
0.645159
0.988367
0.999963
0.999987
0.999999
1
1
1
1
1
1
1
1
2.26456e-38
3.50049e-32
2.50745e-28
2.23435e-25
5.9896e-23
7.14566e-21
4.6865e-19
1.91929e-17
5.3288e-16
1.05719e-14
1.54933e-13
1.71812e-12
1.46741e-11
9.79592e-11
5.12161e-10
2.10132e-09
6.86002e-09
1.7958e-08
3.81804e-08
6.76321e-08
1.02691e-07
1.29573e-07
1.55908e-07
1.93097e-07
1.84039e-07
2.37129e-07
3.6067e-07
3.03861e-07
2.80666e-07
2.86624e-07
2.97717e-07
8.20584e-07
0.000237255
0.000656819
0.000939787
0.0460434
0.486369
0.943132
0.999879
0.999991
0.999998
1
1
1
1
1
1
1
1
1
5.51238e-40
2.06039e-33
2.18996e-29
2.50309e-26
8.03234e-24
1.10357e-21
8.14231e-20
3.69877e-18
1.12946e-16
2.45271e-15
3.92396e-14
4.74373e-13
4.41573e-12
3.21855e-11
1.84071e-10
8.27306e-10
2.96663e-09
8.55525e-09
2.00768e-08
3.92595e-08
6.561e-08
9.29619e-08
1.21877e-07
1.54872e-07
1.53539e-07
1.76946e-07
3.60007e-07
3.00181e-07
2.3038e-07
3.43661e-07
3.89522e-07
9.08359e-07
4.51667e-08
-4.48133e-07
0.0113131
0.243281
0.816518
0.999606
0.999977
0.999998
1
1
1
1
1
1
1
1
1
1
1.06068e-41
9.73712e-35
1.54705e-30
2.27871e-27
8.78207e-25
1.3931e-22
1.15897e-20
5.85309e-19
1.97044e-17
4.69562e-16
8.2234e-15
1.08718e-13
1.10741e-12
8.84641e-12
5.55389e-11
2.74419e-10
1.08454e-09
3.45551e-09
8.97613e-09
1.94385e-08
3.591e-08
5.6836e-08
8.18518e-08
1.10186e-07
1.23879e-07
1.43325e-07
1.78369e-07
1.9942e-07
1.79766e-07
1.58494e-07
5.23374e-07
1.13474e-06
3.15371e-08
3.19078e-08
0.0286517
0.55967
0.99526
0.999946
0.999998
1
1
1
1
1
1
1
1
1
1
1
1.53809e-43
3.51066e-36
8.40444e-32
1.60385e-28
7.45225e-26
1.36903e-23
1.28776e-21
7.25e-20
2.69895e-18
7.08187e-17
1.3629e-15
1.9795e-14
2.21885e-13
1.9534e-12
1.35353e-11
7.39174e-11
3.23595e-10
1.14401e-09
3.30177e-09
7.94634e-09
1.62897e-08
2.87609e-08
4.56446e-08
6.63631e-08
8.46975e-08
1.01343e-07
1.21459e-07
1.35409e-07
1.36195e-07
1.33718e-07
1.38482e-07
9.5104e-08
9.14949e-09
2.39313e-08
0.11859
0.861893
1
1
1
1
1
1
1
1
1
1
1
1
1
1
1.55656e-45
8.84129e-38
3.22215e-33
8.02539e-30
4.51975e-27
9.65479e-25
1.03045e-22
6.49016e-21
2.68246e-19
7.78708e-18
1.65626e-16
2.66116e-15
3.30987e-14
3.23884e-13
2.49838e-12
1.52106e-11
7.43644e-11
2.93793e-10
9.47906e-10
2.54889e-09
5.82667e-09
1.14914e-08
2.01735e-08
3.20334e-08
4.56363e-08
5.95057e-08
7.3722e-08
8.56517e-08
9.27367e-08
9.55768e-08
8.59709e-08
7.37604e-08
3.80791e-11
6.73024e-09
0.321864
0.990768
1
1
1
1
1
1
1
1
1
1
1
1
1
1
9.35753e-48
1.29085e-39
7.23342e-35
2.3906e-31
1.65099e-28
4.13427e-26
5.03867e-24
3.57149e-22
1.64982e-20
5.34198e-19
1.2685e-17
2.28289e-16
3.19682e-15
3.53156e-14
3.08182e-13
2.12566e-12
1.17848e-11
5.27485e-11
1.92561e-10
5.84562e-10
1.50349e-09
3.33074e-09
6.50748e-09
1.13771e-08
1.79016e-08
2.56005e-08
3.38372e-08
4.13124e-08
4.61941e-08
4.6333e-08
3.96989e-08
2.98446e-08
-7.67282e-09
7.04522e-11
0.548846
1
1
1
1
1
1
1
1
1
1
1
1
1
1
1
2.96954e-50
9.79205e-42
1.16699e-36
6.34597e-33
5.8835e-30
1.71477e-27
2.20175e-25
1.5427e-23
6.81952e-22
2.11526e-20
4.96474e-19
9.27231e-18
1.41788e-16
1.77733e-15
1.80352e-14
1.46449e-13
9.59674e-13
5.06566e-12
2.16892e-11
7.66688e-11
2.27594e-10
5.77481e-10
1.27611e-09
2.48942e-09
4.3288e-09
6.75326e-09
9.47118e-09
1.17874e-08
1.27481e-08
1.18723e-08
1.0454e-08
8.26519e-09
-6.89269e-08
1.6617e-09
0.728836
1
1
1
1
1
1
1
1
1
1
1
1
1
1
1
1.32776e-49
4.27346e-40
7.22753e-35
3.88184e-31
3.27127e-28
8.41065e-26
9.30204e-24
5.40807e-22
1.88229e-20
4.28624e-19
6.80517e-18
7.88758e-17
6.92992e-16
4.76168e-15
2.63267e-14
1.20492e-13
4.67199e-13
1.56771e-12
4.66503e-12
1.25942e-11
3.14386e-11
7.29617e-11
1.56962e-10
3.10261e-10
5.58441e-10
9.06441e-10
1.32105e-09
1.7158e-09
2.01127e-09
2.2169e-09
2.55124e-09
2.74444e-09
-2.00202e-07
0.0274587
0.821979
1
1
1
1
1
1
1
1
1
1
1
1
1
1
1
1.17763e-50
1.00652e-48
7.47141e-47
4.94769e-45
2.96632e-43
1.61914e-41
8.05567e-40
3.65121e-38
1.50577e-36
5.66e-35
1.97441e-33
6.75754e-32
2.41148e-30
8.40328e-29
1.55894e-27
1.4915e-26
8.18894e-26
2.8746e-25
6.84178e-25
1.1478e-24
1.39612e-24
1.25624e-24
8.4791e-25
4.33849e-25
1.6959e-25
5.07531e-26
1.15984e-26
2.01807e-27
2.66416e-28
2.64712e-29
1.96691e-30
1.08953e-31
4.49077e-33
1.37501e-34
3.14129e-36
5.3655e-38
6.85642e-40
6.5825e-42
4.79166e-44
2.64437e-46
1.10273e-48
3.43497e-51
7.90173e-54
1.35552e-56
1.73686e-59
1.76177e-62
1.43575e-65
8.44128e-69
2.92072e-72
3.50613e-76
2.19799e-41
7.18926e-40
2.00793e-38
4.9117e-37
1.07079e-35
2.1044e-34
3.7585e-33
6.14016e-32
9.22388e-31
1.27955e-29
1.64965e-28
2.0146e-27
2.43866e-26
3.05245e-25
2.95157e-24
1.82208e-23
7.42153e-23
2.10181e-22
4.28233e-22
6.43675e-22
7.27856e-22
6.28313e-22
4.18244e-22
2.16107e-22
8.69967e-23
2.72751e-23
6.63012e-24
1.24221e-24
1.78205e-25
1.94035e-26
1.59212e-27
9.79626e-29
4.50639e-30