/*--------------------------------*- C++ -*----------------------------------*\
| =========                 |                                                 |
| \\      /  F ield         | OpenFOAM: The Open Source CFD Toolbox           |
|  \\    /   O peration     | Version:  2.4.0                                 |
|   \\  /    A nd           | Web:      www.OpenFOAM.org                      |
|    \\/     M anipulation  |                                                 |
\*---------------------------------------------------------------------------*/
FoamFile
{
    version     2.0;
    format      ascii;
    class       volScalarField;
    location    "0.112";
    object      p;
}
// * * * * * * * * * * * * * * * * * * * * * * * * * * * * * * * * * * * * * //

dimensions      [1 -1 -2 0 0 0 0];

internalField   nonuniform List<scalar> 
10000
(
0.000794333
0.000787367
0.000774712
0.00075681
0.000734521
0.000708504
0.000679137
0.000646609
0.000610977
0.000572198
0.000530149
0.000484648
0.000435467
0.000382339
0.000324965
0.000263009
0.000196114
0.000123913
4.60459e-05
-3.7819e-05
-0.000128052
-0.000224936
-0.000328753
-0.00043975
-0.000558119
-0.000683991
-0.000817425
-0.000958401
-0.00110681
-0.00126244
-0.00142495
-0.00159384
-0.00176845
-0.00194799
-0.00213151
-0.00231792
-0.00250608
-0.00269475
-0.00288264
-0.00306843
-0.00325078
-0.00342832
-0.00359972
-0.00376368
-0.00391895
-0.00406437
-0.00419886
-0.00432148
-0.0044314
-0.00452796
0.000800466
0.000793487
0.000781444
0.000764486
0.000743213
0.000718128
0.000689532
0.000657583
0.000622326
0.000583719
0.000541651
0.000495954
0.000446415
0.000392782
0.000334771
0.00027206
0.000204309
0.000131169
5.22942e-05
-3.26595e-05
-0.000123979
-0.000221977
-0.000326919
-0.000439028
-0.000558477
-0.000685376
-0.000819761
-0.000961594
-0.00111074
-0.00126698
-0.00142992
-0.00159906
-0.00177372
-0.0019531
-0.00213625
-0.00232213
-0.00250957
-0.00269735
-0.0028842
-0.00306878
-0.00324981
-0.00342594
-0.00359587
-0.00375831
-0.00391207
-0.00405603
-0.00418916
-0.00431054
-0.0044194
-0.00451512
0.00081039
0.000802754
0.000790709
0.000774268
0.000753725
0.000729395
0.000701486
0.000670108
0.000635286
0.000596966
0.000555036
0.000509329
0.00045964
0.00040573
0.000347324
0.000284118
0.000215783
0.00014198
6.2373e-05
-2.3366e-05
-0.00011554
-0.000214435
-0.000320304
-0.000433357
-0.000553759
-0.000681609
-0.000816941
-0.000959703
-0.00110975
-0.00126683
-0.00143054
-0.00160036
-0.00177559
-0.00195542
-0.0021389
-0.00232496
-0.00251244
-0.0027001
-0.00288667
-0.00307086
-0.00325135
-0.00342683
-0.00359598
-0.00375755
-0.00391038
-0.00405338
-0.00418553
-0.00430596
-0.00441392
-0.00450882
0.000823126
0.000814537
0.000802049
0.000785692
0.000765516
0.000741675
0.000714293
0.00068343
0.000649074
0.000611152
0.000569536
0.000524052
0.000474497
0.000420634
0.000362198
0.00029889
0.000230384
0.00015634
7.64221e-05
-9.69469e-06
-0.000102316
-0.000201723
-0.000308161
-0.000421845
-0.000542941
-0.000671558
-0.000807728
-0.0009514
-0.00110242
-0.00126054
-0.00142535
-0.00159631
-0.00177272
-0.00195372
-0.00213834
-0.00232547
-0.00251393
-0.00270246
-0.00288977
-0.00307457
-0.00325555
-0.00343135
-0.00360067
-0.00376226
-0.00391495
-0.00405766
-0.00418939
-0.00430928
-0.00441659
-0.00451075
0.000837797
0.000828206
0.000815121
0.000798645
0.00077865
0.000755165
0.000728242
0.000697891
0.000664064
0.000626659
0.000585526
0.000540484
0.000491325
0.000437813
0.00037968
0.000316624
0.000248312
0.000174398
9.45425e-05
8.41804e-06
-8.42883e-05
-0.000183865
-0.000290569
-0.000404628
-0.000526221
-0.000655463
-0.000792394
-0.000936972
-0.00108906
-0.00124841
-0.00141465
-0.00158722
-0.00176539
-0.00194826
-0.00213478
-0.00232382
-0.00251414
-0.00270445
-0.00289343
-0.00307976
-0.00326212
-0.00343913
-0.00360946
-0.00377182
-0.00392505
-0.00406805
-0.00419983
-0.0043195
-0.00442633
-0.00451975
0.000853769
0.000843242
0.000829555
0.000812898
0.000793015
0.000769843
0.000743375
0.000713576
0.000680362
0.000643603
0.000603132
0.000558755
0.000510256
0.000457392
0.000399883
0.000337413
0.00026964
0.000196211
0.000116781
3.1009e-05
-6.14381e-05
-0.000160871
-0.00026757
-0.000381775
-0.000503678
-0.000633404
-0.000771007
-0.00091647
-0.00106969
-0.00123047
-0.00139845
-0.00157309
-0.0017536
-0.00193903
-0.00212824
-0.00232002
-0.00251305
-0.002706
-0.0028975
-0.0030862
-0.00327076
-0.00344976
-0.00362183
-0.00378566
-0.00394004
-0.00408385
-0.00421606
-0.00433577
-0.00444225
-0.00453492
0.000870574
0.00085922
0.000844986
0.000828156
0.000808382
0.000785532
0.000759554
0.000730374
0.00069788
0.000661917
0.000622303
0.00057883
0.000531267
0.000479351
0.000422785
0.000361239
0.00029436
0.000221786
0.000143154
5.80995e-05
-3.37476e-05
-0.00013273
-0.000239148
-0.000353258
-0.000475262
-0.000605298
-0.000743448
-0.000889735
-0.00104411
-0.00120645
-0.00137646
-0.00155362
-0.0017371
-0.00192584
-0.00211855
-0.0023139
-0.00251046
-0.00270684
-0.00290163
-0.00309345
-0.00328094
-0.00346265
-0.00363716
-0.00380307
-0.00395913
-0.00410418
-0.00423718
-0.00435717
-0.00446341
-0.00455529
0.000887851
0.000875782
0.000861083
0.000844124
0.000824494
0.00080201
0.000776585
0.000748119
0.000716476
0.000681485
0.000642944
0.000600627
0.00055428
0.000503618
0.000448326
0.000388058
0.000322447
0.000251112
0.000173662
8.96913e-05
-1.2124e-06
-9.94254e-05
-0.00020527
-0.000319018
-0.000440883
-0.000571025
-0.000709555
-0.000856544
-0.00101202
-0.00117596
-0.00134823
-0.00152839
-0.00171554
-0.00190841
-0.00210549
-0.00230521
-0.00250605
-0.00270656
-0.0029053
-0.00310089
-0.00329194
-0.00347696
-0.00365446
-0.00382298
-0.00398117
-0.00412785
-0.00426192
-0.00438239
-0.00448844
-0.00457948
0.000905293
0.000892611
0.000877528
0.000860503
0.000841075
0.000819025
0.000794245
0.000766615
0.000735982
0.000702156
0.000664917
0.000624016
0.000579174
0.000530086
0.000476417
0.000417803
0.000353854
0.000284154
0.000208275
0.000125763
3.61616e-05
-6.09431e-05
-0.000165899
-0.000278998
-0.000400469
-0.000530485
-0.000669175
-0.000816651
-0.000973038
-0.0011385
-0.00131318
-0.00149683
-0.00168844
-0.00188641
-0.00208876
-0.00229362
-0.00249939
-0.0027046
-0.00290783
-0.00310769
-0.00330276
-0.00349152
-0.00367242
-0.00384393
-0.00400462
-0.00415321
-0.00428854
-0.00440959
-0.00451548
-0.00460558
0.000922614
0.000909401
0.00089401
0.000876986
0.000857832
0.000836306
0.000812284
0.000785636
0.00075619
0.000723738
0.000688039
0.000648821
0.000605788
0.000558613
0.000506939
0.000450374
0.000388492
0.000320835
0.000246929
0.000166274
7.83595e-05
-1.72752e-05
-0.000121015
-0.000233176
-0.000353994
-0.000483628
-0.000622194
-0.000769827
-0.000926754
-0.00109342
-0.00127051
-0.00145815
-0.00165517
-0.0018594
-0.00206807
-0.0022788
-0.00249002
-0.00270034
-0.00290839
-0.00311278
-0.00331212
-0.00350488
-0.00368943
-0.00386417
-0.00402756
-0.00417819
-0.00431486
-0.00443649
-0.00454218
-0.00463126
0.000939528
0.000925845
0.000910211
0.000893257
0.000874461
0.000853564
0.000830435
0.000804928
0.000776857
0.000745992
0.000712077
0.000674824
0.00063392
0.000589015
0.000539724
0.000485614
0.000426216
0.000361028
0.000289527
0.000211159
0.000125344
3.15555e-05
-7.06409e-05
-0.000181584
-0.000301495
-0.000430486
-0.000568602
-0.000715939
-0.000872792
-0.00103994
-0.00121912
-0.00141128
-0.00161496
-0.00182708
-0.00204335
-0.00226062
-0.00247759
-0.0026931
-0.00290602
-0.00311499
-0.00331863
-0.00351543
-0.00370369
-0.0038817
-0.00404779
-0.00420045
-0.0043384
-0.00446055
-0.00456595
-0.00465391
0.000955738
0.000941629
0.000925807
0.000908996
0.00089065
0.0008705
0.000848407
0.000824209
0.0007977
0.000768641
0.000736762
0.000701768
0.000663326
0.000621059
0.000574541
0.000523299
0.000466822
0.00040456
0.000335931
0.000260314
0.000177038
8.54858e-05
-1.48384e-05
-0.000124301
-0.000243096
-0.00037124
-0.00050862
-0.000655172
-0.000811021
-0.000977106
-0.00115742
-0.00135475
-0.00156701
-0.00178959
-0.00201519
-0.0022394
-0.0024619
-0.00268228
-0.00289978
-0.00311308
-0.00332083
-0.0035215
-0.00371333
-0.00389447
-0.00406315
-0.00421774
-0.00435683
-0.00447935
-0.00458432
-0.00467104
0.00097093
0.000956427
0.000940468
0.000923873
0.000906076
0.000886796
0.00086588
0.000843154
0.000818399
0.000791368
0.000761789
0.000729353
0.000693706
0.000654438
0.000611085
0.000563139
0.000510046
0.000451202
0.000385951
0.000313585
0.000233322
0.000144429
4.63143e-05
-6.14468e-05
-0.000179037
-0.000306344
-0.000442963
-0.00058835
-0.000741511
-0.000903172
-0.00108227
-0.00128567
-0.00150976
-0.00174732
-0.00198506
-0.00221619
-0.00244331
-0.00266753
-0.00288884
-0.00310595
-0.0033174
-0.00352162
-0.00371676
-0.00390084
-0.00407196
-0.00422834
-0.00436846
-0.00449118
-0.00459559
-0.00468099
0.000984764
0.000969893
0.000953845
0.000937539
0.000920389
0.000902096
0.000882496
0.000861403
0.000838593
0.000813818
0.000786801
0.000757217
0.000724687
0.000688772
0.000648983
0.000604779
0.000555559
0.000500655
0.000439324
0.000370762
0.000294056
0.000208306
0.000112755
6.82052e-06
-0.000109751
-0.000236709
-0.000373012
-0.000516776
-0.000664191
-0.00081507
-0.000987827
-0.00119819
-0.0014394
-0.00170024
-0.00195505
-0.00219227
-0.00242248
-0.00264897
-0.00287281
-0.0030928
-0.00330739
-0.00351482
-0.00371308
-0.00390003
-0.00407356
-0.00423175
-0.00437293
-0.00449586
-0.00459969
-0.0046838
0.000996864
0.00098165
0.000965558
0.000949613
0.000933201
0.000916006
0.000897853
0.000878553
0.000857881
0.000835588
0.000811384
0.000784929
0.000755825
0.000723617
0.000687797
0.000647791
0.000602948
0.000552531
0.000495714
0.000431589
0.00035909
0.000277068
0.000184449
8.03068e-05
-3.5842e-05
-0.000163594
-0.000300647
-0.000442438
-0.000579789
-0.000709303
-0.000866916
-0.00108352
-0.00135123
-0.00165048
-0.00192831
-0.0021702
-0.00240007
-0.00262626
-0.00285162
-0.00307362
-0.00329071
-0.00350109
-0.00370254
-0.0038926
-0.00406889
-0.00422929
-0.00437197
-0.00449551
-0.00459906
-0.00468208
0.00100682
0.000991287
0.000975196
0.000959678
0.000944089
0.000928095
0.000911519
0.000894172
0.000875826
0.000856224
0.000835065
0.000811998
0.000786619
0.000758467
0.000727014
0.000691653
0.000651688
0.000606331
0.000554689
0.000495746
0.000428243
0.000350662
0.000261417
0.000159039
4.24996e-05
-8.8155e-05
-0.00022896
-0.00037101
-0.000491714
-0.000573782
-0.000702073
-0.000924052
-0.0012384
-0.00160347
-0.00192493
-0.0021601
-0.00237423
-0.00259788
-0.00282479
-0.00304882
-0.00326837
-0.00348178
-0.00368687
-0.00388084
-0.00406091
-0.00422463
-0.00436991
-0.00449511
-0.00459919
-0.00468169
0.00101419
0.000998359
0.000982314
0.000967287
0.000952602
0.000937913
0.000923044
0.000907801
0.00089195
0.000875225
0.00085732
0.000837885
0.000816516
0.000792745
0.000766024
0.000735723
0.000701124
0.000661418
0.000615671
0.000562759
0.000501188
0.000428979
0.000344026
0.000244124
0.000126501
-1.1165e-05
-0.000163325
-0.00031946
-0.000416732
-0.000397293
-0.000387237
-0.000359423
-0.000648889
-0.0015821
-0.00200486
-0.00211352
-0.00234294
-0.00256532
-0.002791
-0.00301789
-0.00324156
-0.00345963
-0.00366959
-0.00386894
-0.00405464
-0.00422374
-0.00437365
-0.00450241
-0.00460865
-0.00469179
0.00101848
0.00100239
0.000986449
0.000971979
0.000958284
0.000945006
0.000931964
0.000918956
0.000905744
0.000892056
0.000877593
0.000862009
0.0008449
0.000825786
0.000804106
0.000779227
0.000750443
0.000716958
0.000677826
0.000631825
0.000577291
0.000512027
0.000433508
0.000338401
0.000220169
6.98959e-05
-0.00010506
-0.000296605
-0.00049433
4.31958e-05
0.00137325
0.00216549
0.00261998
0.00136311
-0.00184691
-0.00211953
-0.00230257
-0.00251949
-0.002747
-0.00297952
-0.00321099
-0.00343745
-0.00365534
-0.00386273
-0.00405685
-0.00423439
-0.00439214
-0.00452742
-0.00463836
-0.004724
0.00101922
0.00100292
0.000987133
0.000973298
0.000960683
0.000948914
0.0009378
0.000927133
0.000916673
0.000906158
0.000895295
0.000883741
0.000871083
0.000856831
0.000840428
0.00082126
0.000798652
0.000771841
0.000739893
0.000701622
0.000655642
0.000600089
0.000531873
0.000445486
0.000327909
0.000157501
-5.01758e-05
-0.000290254
-0.000512597
0.0035277
0.00274305
0.00245339
0.00297589
0.00309249
-0.00147932
-0.00197344
-0.00220382
-0.00243609
-0.00268537
-0.00293379
-0.00317836
-0.00341761
-0.00364832
-0.0038683
-0.00407514
-0.00426539
-0.00443524
-0.00458112
-0.00470022
-0.00479088
0.0010159
0.000999447
0.000983909
0.000970795
0.000959347
0.000949169
0.000940059
0.00093181
0.000924191
0.000916953
0.000909808
0.000902402
0.000894314
0.000885055
0.00087408
0.000860797
0.00084455
0.000824592
0.000800098
0.000770366
0.00073493
0.000693254
0.000643799
0.000580105
0.000469094
0.000282844
0.000117777
-0.000165712
-0.000612599
0.00293913
0.00260381
0.00173028
-0.000201295
-0.000877281
-0.00154155
-0.00171321
-0.00206033
-0.00234901
-0.00261735
-0.00288726
-0.00314873
-0.00340421
-0.00365233
-0.00389051
-0.00411621
-0.0043253
-0.0045129
-0.00467444
-0.00480595
-0.0049046
0.00100804
0.000991528
0.000976332
0.000964028
0.000953823
0.000945295
0.00093824
0.000932462
0.000927746
0.00092385
0.00092048
0.000917275
0.00091381
0.000909603
0.000904112
0.000896725
0.000886739
0.000873409
0.000856285
0.000835675
0.000812578
0.000789477
0.000775888
0.000782919
0.000699093
0.000630358
0.000471906
-0.000328092
-0.000447834
-0.000380607
-8.87784e-05
-0.000209613
-0.000509466
-0.000871397
-0.00129488
-0.00163541
-0.00196413
-0.00227033
-0.00256027
-0.00284892
-0.00312831
-0.00340188
-0.00367081
-0.00393321
-0.00418531
-0.00442147
-0.00463457
-0.00481815
-0.00496694
-0.00507678
0.000995166
0.000978714
0.000963969
0.000952558
0.000943653
0.000936816
0.000931848
0.000928571
0.000926784
0.000926242
0.000926646
0.000927637
0.000928796
0.000929638
0.000929578
0.000927903
0.000923761
0.000916406
0.000905813
0.000893139
0.000881253
0.000874695
0.000907916
0.00105881
0.00190749
0.00333821
0.00371792
-7.86271e-05
2.69227e-05
-3.30589e-05
-3.75095e-05
-0.000192597
-0.000469347
-0.0007977
-0.00116649
-0.00150863
-0.00167715
-0.00220238
-0.00251806
-0.00282342
-0.00312078
-0.00341358
-0.00370709
-0.00400026
-0.00428785
-0.00456147
-0.00481014
-0.00502415
-0.00519601
-0.00532018
0.000976842
0.000960579
0.000946399
0.000935957
0.000928396
0.000923275
0.000920407
0.000919633
0.000920752
0.000923521
0.000927646
0.000932785
0.000938529
0.000944356
0.000949588
0.000953312
0.000954431
0.000952026
0.00094561
0.000934974
0.000921875
0.000905862
0.000908146
0.00174099
0.00299101
0.00321706
0.00278755
0.000503655
0.000374475
0.000219804
0.000107693
-6.97343e-05
-0.000345776
-0.000675762
-0.0010374
-0.00140633
-0.00177871
-0.00214081
-0.0024854
-0.00281152
-0.00312579
-0.0034401
-0.00376244
-0.00409489
-0.00443079
-0.00475606
-0.0050534
-0.00530833
-0.00551034
-0.00565204
0.000952646
0.000936723
0.000923228
0.000913824
0.000907644
0.000904252
0.000903476
0.000905162
0.000909113
0.000915097
0.000922846
0.000932045
0.000942284
0.000952999
0.000963392
0.000972362
0.000978647
0.000980968
0.00097758
0.000965482
0.000939993
0.000891689
0.00082736
0.00201799
0.00370254
0.00287355
0.00154845
0.000925916
0.000668741
0.000487317
0.000359177
0.000181381
-0.000146609
-0.000505298
-0.000887964
-0.00129076
-0.00169534
-0.00208984
-0.00246726
-0.00281661
-0.00314594
-0.00347893
-0.00383548
-0.0042213
-0.00462461
-0.00502213
-0.00538601
-0.0056946
-0.00593451
-0.0060968
0.000922198
0.000906784
0.000894102
0.000885808
0.000881042
0.000879377
0.000880649
0.000884705
0.00089136
0.000900412
0.000911633
0.000924733
0.000939306
0.000954764
0.000970251
0.00098466
0.00099686
0.00100547
0.00100812
0.00100117
0.000981738
0.000932789
0.00079662
0.00143409
0.00404551
0.00166245
0.00134075
0.00109154
0.000895545
0.00073377
0.000588106
0.000345544
6.3766e-05
-0.000291607
-0.000709011
-0.00115782
-0.00160877
-0.00204685
-0.00246564
-0.00283858
-0.00317501
-0.00350743
-0.00393327
-0.00438435
-0.004884
-0.00538497
-0.00583955
-0.00621743
-0.0065023
-0.00668667
0.00088517
0.000870454
0.000858727
0.000851623
0.000848298
0.000848334
0.000851567
0.000857852
0.000867031
0.000878941
0.000893393
0.000910121
0.000928738
0.000948681
0.000969149
0.000989313
0.00100852
0.00102587
0.00103974
0.00104811
0.00105071
0.00104775
0.00104858
0.000950651
0.00117348
0.00122645
0.00126519
0.00120255
0.00110708
0.000998339
0.000861094
0.000654203
0.000366818
-1.7854e-05
-0.000486656
-0.00100413
-0.00151383
-0.00200826
-0.00248434
-0.00287643
-0.00319645
-0.00357561
-0.00405012
-0.00460139
-0.00523319
-0.005887
-0.0064616
-0.00692313
-0.00725696
-0.00746055
0.000841303
0.000827497
0.000816887
0.000811056
0.000809186
0.000810865
0.00081593
0.000824256
0.00083572
0.000850193
0.000867512
0.000887437
0.000909624
0.000933556
0.000958601
0.000984379
0.00101085
0.00103792
0.00106519
0.00109164
0.00111625
0.00113885
0.00116918
0.00124859
0.00131984
0.00135308
0.00131736
0.00133107
0.00133796
0.00129982
0.0012119
0.00103936
0.000756058
0.000339798
-0.000202845
-0.000817788
-0.00140917
-0.00198046
-0.00254081
-0.00293621
-0.00323142
-0.00363122
-0.00417238
-0.00486701
-0.00571566
-0.00657984
-0.00731575
-0.00787381
-0.00825128
-0.00846322
0.000790422
0.000777763
0.000768446
0.000763971
0.00076355
0.000766781
0.000773514
0.000783648
0.000797087
0.000813724
0.000833411
0.00085594
0.000881004
0.000908135
0.000936934
0.000967497
0.00100035
0.00103617
0.00107574
0.00111981
0.0011697
0.00123094
0.00131048
0.00136856
0.00130136
0.00126217
0.0013662
0.00150893
0.00161798
0.00166069
0.0016369
0.00152484
0.00126409
0.000809036
0.000156063
-0.000605117
-0.00128133
-0.00193471
-0.00266486
-0.00308795
-0.00329505
-0.00368581
-0.00430039
-0.00517397
-0.00635471
-0.00751264
-0.00847708
-0.0091464
-0.00953947
-0.00974029
0.000732452
0.000721193
0.000713354
0.00071031
0.000711313
0.000715983
0.000724189
0.000735847
0.000750876
0.000769176
0.000790614
0.000815004
0.000842041
0.000871295
0.000902614
0.000936484
0.00097384
0.001016
0.00106501
0.001124
0.0011966
0.00129435
0.00145663
0.00183911
0.00466272
0.00768094
0.00165862
0.00178407
0.00197016
0.00208492
0.00215415
0.00213806
0.0019281
0.00142561
0.000568666
-0.000481564
-0.00110993
-0.00164694
-0.00296826
-0.00332184
-0.00346243
-0.00374236
-0.00443087
-0.00550492
-0.00719406
-0.0088865
-0.010092
-0.0108253
-0.0111699
-0.011325
0.00066742
0.000657827
0.000651654
0.000650106
0.000652494
0.000658473
0.000667925
0.000680774
0.00069694
0.000716326
0.000738809
0.000764192
0.000792127
0.000822205
0.000854478
0.00088966
0.000928859
0.000973666
0.00102677
0.00109348
0.001179
0.00129751
0.00148623
0.00387548
0.00714332
0.00758624
0.00380767
0.00225196
0.00240812
0.00258166
0.00276392
0.0029002
0.00280647
0.00229281
0.00114478
-8.78772e-05
0.00159792
0.00497352
-0.00136211
-0.00236991
-0.00329165
-0.00366885
-0.00449968
-0.00568228
-0.00827836
-0.0109217
-0.0124475
-0.0130363
-0.0131658
-0.013208
0.000595462
0.000587806
0.000583483
0.000583492
0.000587221
0.000594363
0.000604805
0.000618469
0.000635273
0.000655125
0.000677885
0.000703308
0.000730965
0.000760447
0.000791924
0.000826143
0.00086409
0.000907129
0.000957583
0.00101987
0.00109956
0.00121356
0.00142267
0.00619921
0.00709991
0.00707459
0.00445835
0.00268552
0.00285449
0.00309023
0.00343493
0.00383847
0.00399614
0.00363907
0.00273613
0.00424317
0.0187605
0.0151213
0.0117663
-0.00220467
-0.00156948
-0.0030193
-0.00423878
-0.00523899
-0.00937956
-0.0139632
-0.0158648
-0.015983
-0.0154715
-0.015211
0.000516832
0.000511379
0.000509089
0.000510715
0.000515733
0.000523874
0.000535025
0.000549104
0.000566032
0.000585705
0.000607942
0.000632421
0.000658621
0.000686104
0.000715066
0.000746187
0.000780243
0.000818238
0.000861975
0.000915031
0.00098135
0.00106439
0.00120879
0.00440076
0.00741144
0.00706179
0.00306547
0.00296192
0.00321321
0.00351828
0.00405124
0.00501297
0.00553959
0.00553127
0.00501513
0.00533172
0.0174706
0.0128219
0.0071875
-0.000764164
0.0011197
-0.00234207
-0.0035046
-0.00257144
-0.00529157
-0.017984
-0.0203185
-0.0194951
-0.0176847
-0.0167182
0.000431898
0.000428911
0.000428834
0.000432129
0.000438374
0.000447337
0.000458904
0.000472995
0.000489531
0.000508375
0.000529286
0.000551862
0.00057549
0.000599648
0.000624486
0.000650617
0.000678669
0.000709345
0.000743859
0.000784523
0.000834673
0.000890472
0.000889391
0.00144979
0.00313134
0.00273001
0.00241943
0.00301586
0.00351555
0.00400402
0.00619695
0.00966377
0.00729794
0.00825455
0.00858017
0.00805485
0.00828136
0.011065
0.00364607
0.00234348
-0.00281413
-0.00854658
-0.00315926
0.00954642
-0.00145716
-0.0220605
-0.0245193
-0.0223439
-0.0186878
-0.0168383
0.000341151
0.000340883
0.000343187
0.000348195
0.000355591
0.000365187
0.000376879
0.000390593
0.000406229
0.000423605
0.00044242
0.000462207
0.000482245
0.000501859
0.000521116
0.000540663
0.000561256
0.000583885
0.000610503
0.000645018
0.000693147
0.000759206
0.000855558
0.00103824
0.00147425
0.00187869
0.00246377
0.00316385
0.00396218
0.00496785
0.0141898
0.0159969
0.0125964
0.0113282
0.0136928
0.0165158
0.0248433
0.0124135
0.00355905
-0.00901442
0.026183
-0.021774
0.0276681
0.0296968
-0.000329772
-0.0212126
-0.0266354
-0.023657
-0.0173796
-0.0154971
0.000245195
0.000247886
0.000252719
0.000259463
0.000267921
0.000277966
0.000289506
0.000302463
0.000316707
0.000332013
0.000348032
0.000364231
0.000379762
0.000393718
0.000405988
0.000417291
0.000428666
0.000441574
0.000458835
0.000485968
0.000531906
0.000609161
0.00073864
0.000958702
0.00131469
0.00179088
0.00242508
0.00322764
0.0042633
0.00585213
0.0146819
0.0163546
0.0178045
0.0126521
0.0179013
0.0175792
0.0230016
0.0266717
0.0199683
0.0146842
0.0563622
0.00895512
0.118412
0.0983738
0.0193759
-0.102662
-0.143284
-0.0922722
0.0466367
0.117468
0.000144759
0.000150594
0.000158081
0.000166568
0.000175998
0.000186318
0.000197449
0.000209295
0.000221698
0.000234404
0.000247015
0.000258909
0.000269103
0.000276411
0.000280381
0.000281681
0.000281599
0.000282021
0.000286303
0.000300727
0.000335696
0.000406216
0.000532764
0.000743135
0.00107154
0.00153631
0.00217312
0.00301305
0.00413137
0.00563998
0.00976499
0.0167436
0.0200526
0.0146989
0.022448
0.0178289
0.0269791
0.0294756
0.0400854
0.0702704
0.256461
0.0381107
0.327756
0.303593
-0.171284
3.50817
16.4938
32.3822
41.4328
40.3994
4.0628e-05
4.97704e-05
5.9994e-05
7.02084e-05
8.05197e-05
9.09551e-05
0.000101437
0.000111853
0.000122036
0.000131712
0.000140414
0.000147398
0.000151541
0.000151381
0.000145956
0.000135583
0.000121548
0.000106022
9.26005e-05
8.74523e-05
0.000100533
0.00014628
0.000243448
0.000415591
0.000691758
0.00109685
0.00167351
0.00246676
0.00356544
0.00507864
0.00719222
0.0101377
0.0120921
0.0172327
0.0241946
0.0265697
0.0286847
0.0329552
0.0516496
0.0864193
0.190284
1.79815
6.7259
8.63052
21.8271
38.1715
42.4363
44.4057
45.2162
44.2676
-6.63352e-05
-5.37767e-05
-4.07733e-05
-2.88621e-05
-1.77624e-05
-7.36946e-06
2.24018e-06
1.09545e-05
1.8614e-05
2.49221e-05
2.93266e-05
3.09384e-05
2.84755e-05
2.02104e-05
4.54934e-06
-1.8845e-05
-4.90211e-05
-8.39462e-05
-0.000120235
-0.00015244
-0.000172111
-0.000167123
-0.000122757
-1.84013e-05
0.000168034
0.00046347
0.000981892
0.0015943
0.00259098
0.00407149
0.00624949
0.00945251
0.014134
0.0188159
0.0249062
0.0366787
0.0257174
0.015653
0.0348878
0.0779068
3.36195
10.9392
27.1118
39.9054
39.6414
39.9676
41.3208
42.5769
43.1861
42.9687
-0.000175223
-0.000159198
-0.000143408
-0.000129848
-0.00011806
-0.000107864
-9.93247e-05
-9.25302e-05
-8.76243e-05
-8.49348e-05
-8.51038e-05
-8.91666e-05
-9.86086e-05
-0.000115453
-0.00014195
-0.000179348
-0.000227395
-0.000284643
-0.000348434
-0.000414592
-0.000476877
-0.000526743
-0.000555158
-0.000547867
-0.000487274
-0.000350261
-9.51741e-05
0.000355094
0.00110985
0.00234163
0.00431612
0.00748203
0.0128791
0.0183315
0.0319573
0.0373579
0.0485878
0.041784
-0.0387518
5.28026
16.6652
29.489
37.2507
38.7695
39.0088
39.554
40.4694
41.3383
41.8388
41.8625
-0.000285096
-0.000265611
-0.000247068
-0.000231928
-0.000219564
-0.000209716
-0.000202413
-0.000197708
-0.000195729
-0.00019683
-0.000201726
-0.000211599
-0.000228198
-0.000253895
-0.00029155
-0.000343518
-0.000410646
-0.000492463
-0.000587442
-0.000693261
-0.000805849
-0.00092443
-0.00103874
-0.00114775
-0.00124288
-0.00130493
-0.00130962
-0.00118758
-0.000854589
-0.000151199
0.00115023
0.0034756
0.00925946
0.0255066
0.0255331
0.0562424
0.0575981
0.238361
7.07417
21.0894
31.0226
35.3716
36.5597
37.4778
38.1919
38.952
39.7599
40.4602
40.8973
41.0079
-0.000394997
-0.000372114
-0.000350893
-0.000334275
-0.000321464
-0.000312107
-0.000306182
-0.000303704
-0.000304782
-0.000309771
-0.000319434
-0.000335111
-0.000358857
-0.000393454
-0.00044234
-0.000509014
-0.000595784
-0.000703498
-0.000832195
-0.000980149
-0.00114995
-0.00133758
-0.00145066
-0.00177551
-0.00205063
-0.0023312
-0.00261861
-0.00289165
-0.00300946
-0.00336064
-0.00364418
-0.00410819
-0.0025162
0.0248429
0.0728461
0.0718984
-0.0435676
4.53247
20.6685
33.8389
35.2048
36.069
36.4609
37.1351
37.8079
38.5575
39.2876
39.8858
40.2764
40.4164
-0.000503963
-0.000477801
-0.000454031
-0.000436071
-0.00042296
-0.000414234
-0.000409822
-0.000409698
-0.000413928
-0.000422837
-0.000437223
-0.00045859
-0.000489305
-0.000532623
-0.000592609
-0.000673818
-0.000780192
-0.000914216
-0.00107751
-0.00127105
-0.00149808
-0.00176374
-0.00207642
-0.00243997
-0.00285655
-0.00333131
-0.00386599
-0.00449864
-0.00530904
-0.00656682
-0.00914857
-0.0166168
-0.0378197
0.0421745
0.109403
0.454194
3.84141
19.0414
32.0343
35.149
36.1339
36.6142
36.8465
37.2562
37.7913
38.4233
39.0478
39.5652
39.9128
40.0613
-0.00061105
-0.000581792
-0.000555656
-0.000536528
-0.000523276
-0.000515333
-0.000512579
-0.000514932
-0.000522388
-0.000535216
-0.00055424
-0.000581109
-0.000618489
-0.00067016
-0.000740928
-0.000836298
-0.000961721
-0.00112153
-0.00131902
-0.00155736
-0.00184166
-0.00218086
-0.00258232
-0.00305529
-0.00360638
-0.00423435
-0.00483429
-0.00566706
-0.00655834
-0.00775569
-0.00982198
-0.0131879
0.0320898
0.127076
-0.0309606
1.95358
9.19787
31.3142
36.13
36.2205
36.7509
37.0847
37.2719
37.5687
37.9967
38.5072
39.0135
39.439
39.7325
39.8759
-0.000715352
-0.000683244
-0.000654984
-0.000634894
-0.000621685
-0.000614696
-0.000613759
-0.000618719
-0.000629473
-0.000646226
-0.0006698
-0.000701948
-0.000745627
-0.000805181
-0.000886229
-0.000995224
-0.00113885
-0.00132319
-0.00155322
-0.00183375
-0.0021713
-0.00257604
-0.00305795
-0.00362733
-0.00428929
-0.00503918
-0.00575083
-0.00663513
-0.00739806
-0.00795997
-0.00812915
-0.00704972
0.00102886
0.0335405
0.219986
6.40263
23.2564
36.1554
36.4961
36.6397
37.0011
37.3567
37.6371
37.9418
38.3063
38.7092
39.0976
39.4262
39.6591
39.7818
-0.000816025
-0.000781373
-0.000751279
-0.00073047
-0.000717516
-0.00071168
-0.000712737
-0.000720445
-0.000734598
-0.000755317
-0.000783379
-0.000820594
-0.00087021
-0.000937142
-0.00102783
-0.0011497
-0.00131051
-0.00151754
-0.00177722
-0.00209557
-0.00248012
-0.00294178
-0.00349299
-0.00414522
-0.00490854
-0.00578642
-0.00676809
-0.00785284
-0.00902424
-0.0102973
-0.0114991
-0.0122386
-0.0103224
0.0150623
-0.0927085
10.4377
38.8921
37.6637
37.1652
37.1188
37.325
37.6483
37.9791
38.3008
38.6186
38.9292
39.2151
39.4531
39.6251
39.7216
-0.000912298
-0.00087546
-0.000843863
-0.000822606
-0.000810151
-0.000805692
-0.000808943
-0.000819574
-0.000837279
-0.000862062
-0.000894599
-0.000936733
-0.000991982
-0.00106579
-0.00116538
-0.00129916
-0.00147578
-0.00170327
-0.0019887
-0.00233874
-0.00276125
-0.00326734
-0.00387097
-0.00458689
-0.0054311
-0.00642239
-0.00758466
-0.00898096
-0.0107355
-0.0131439
-0.0163757
-0.019757
-0.0188656
-0.0393094
-0.793689
24.88
39.3322
38.1863
37.6667
37.5514
37.7054
37.9908
38.3104
38.6115
38.8783
39.112
39.3132
39.4765
39.5957
39.6657
-0.00100347
-0.000964852
-0.00093212
-0.000910718
-0.000899027
-0.000896184
-0.000901853
-0.000915633
-0.000937108
-0.000966117
-0.0010032
-0.00105021
-0.00111087
-0.00119108
-0.00129879
-0.00144327
-0.00163392
-0.00187909
-0.00218568
-0.0025599
-0.00300912
-0.00354409
-0.00417945
-0.00493238
-0.00582329
-0.00688078
-0.00815351
-0.00974307
-0.0118641
-0.014978
-0.019277
-0.0236749
-0.0241265
-0.140697
2.5188
37.5506
38.7851
38.4989
38.1711
38.0472
38.1486
38.3607
38.6205
38.8661
39.0732
39.2412
39.3767
39.4834
39.5612
39.6085
-0.00108892
-0.00104896
-0.0010155
-0.000994282
-0.000983637
-0.000982662
-0.000991001
-0.0010082
-0.00103371
-0.00106718
-0.001109
-0.00116095
-0.00122689
-0.00131308
-0.00142808
-0.00158186
-0.00178433
-0.0020438
-0.00236633
-0.0027566
-0.00322036
-0.00376722
-0.00441173
-0.00517213
-0.00607009
-0.00713499
-0.00841468
-0.00999836
-0.0120649
-0.0149728
-0.0186687
-0.0218041
-0.0221451
-0.152188
15.071
39.0386
39.3354
39.1078
38.7962
38.6075
38.602
38.7219
38.8993
39.0712
39.2143
39.3253
39.4107
39.4766
39.5249
39.5547
-0.00116811
-0.00112726
-0.0010935
-0.00107282
-0.00106351
-0.00106467
-0.00107596
-0.00109687
-0.00112673
-0.00116499
-0.00121183
-0.00126892
-0.00134011
-0.0014319
-0.00155333
-0.00171483
-0.00192655
-0.00219642
-0.00252915
-0.0029272
-0.00339386
-0.00393681
-0.00456996
-0.00531199
-0.00618369
-0.00720839
-0.00841644
-0.00984891
-0.0115607
-0.0136369
-0.0158769
-0.0168723
-0.0146492
-0.0555048
30.5512
41.1322
40.5495
39.9238
39.4305
39.13
39.0196
39.0433
39.1322
39.2311
39.3146
39.3776
39.4253
39.4627
39.491
39.5091
-0.00124059
-0.00119933
-0.00116571
-0.0011459
-0.0011382
-0.00114176
-0.00115628
-0.00118122
-0.00121578
-0.00125921
-0.0013115
-0.00137404
-0.00145056
-0.00154764
-0.00167456
-0.00184206
-0.00206026
-0.00233636
-0.00267337
-0.0030712
-0.00353035
-0.00405653
-0.00466314
-0.00536944
-0.00619554
-0.00715889
-0.00827319
-0.00954299
-0.010941
-0.0123617
-0.0134845
-0.0133242
-0.0121693
0.163544
39.5464
43.4083
41.6821
40.6205
39.9369
39.5316
39.3384
39.2859
39.3047
39.3439
39.3794
39.4056
39.4264
39.4449
39.4608
39.472
-0.00461067
-0.00467921
-0.00473345
-0.00477344
-0.00479941
-0.00481175
-0.00481106
-0.00479805
-0.00477358
-0.00473863
-0.00469428
-0.00464166
-0.00458197
-0.00451637
-0.00444619
-0.00437258
-0.00429671
-0.00421969
-0.00414254
-0.00406622
-0.0039915
-0.00391916
-0.0038497
-0.00378363
-0.00372129
-0.00366284
-0.00360843