/*--------------------------------*- C++ -*----------------------------------*\
| =========                 |                                                 |
| \\      /  F ield         | OpenFOAM: The Open Source CFD Toolbox           |
|  \\    /   O peration     | Version:  2.4.0                                 |
|   \\  /    A nd           | Web:      www.OpenFOAM.org                      |
|    \\/     M anipulation  |                                                 |
\*---------------------------------------------------------------------------*/
FoamFile
{
    version     2.0;
    format      ascii;
    class       surfaceScalarField;
    location    "0.109";
    object      phiAlpha;
}
// * * * * * * * * * * * * * * * * * * * * * * * * * * * * * * * * * * * * * //

dimensions      [0 3 -1 0 0 0 0];

internalField   nonuniform List<scalar> 
114720
(
-2.99528e-09
2.86523e-09
5.83262e-09
-5.70257e-09
7.4531e-09
-8.36714e-09
-3.30373e-10
1.24442e-09
9.50129e-09
-9.26498e-09
2.24067e-10
-4.60384e-10
6.64468e-09
-5.21165e-09
7.62584e-10
-2.19561e-09
-6.71926e-10
2.78631e-09
9.8947e-10
-3.10386e-09
-9.55608e-09
1.16502e-08
9.13885e-10
-3.00801e-09
-1.80829e-08
2.00478e-08
8.48473e-10
-2.81336e-09
-2.58401e-08
2.74756e-08
6.87279e-10
-2.32284e-09
-3.16987e-08
3.26556e-08
3.51064e-10
-1.30793e-09
-3.43143e-08
3.44287e-08
-5.8503e-11
-5.58952e-11
-3.37564e-08
3.32637e-08
-3.60076e-10
8.52732e-10
-3.09358e-08
2.99597e-08
-6.19155e-10
1.59526e-09
-2.60691e-08
2.45606e-08
-8.98314e-10
2.40681e-09
-1.89382e-08
1.69233e-08
-1.11353e-09
3.1285e-09
-1.01463e-08
7.965e-09
-1.1065e-09
3.28776e-09
-1.36341e-09
-5.60817e-10
-8.93381e-10
2.81761e-09
5.94322e-09
-7.39806e-09
-6.00915e-10
2.05575e-09
1.11882e-08
-1.21435e-08
-3.38018e-10
1.29331e-09
1.44566e-08
-1.49842e-08
-1.37662e-10
6.65276e-10
1.6088e-08
-1.62771e-08
7.24049e-12
1.81882e-10
1.64472e-08
-1.6382e-08
1.10204e-10
-1.75481e-10
1.5868e-08
-1.56221e-08
1.80656e-10
-4.26505e-10
1.46405e-08
-1.42761e-08
2.25076e-10
-5.89517e-10
1.30002e-08
-1.25654e-08
2.49354e-10
-6.84101e-10
1.11247e-08
-1.06533e-08
2.59912e-10
-7.31302e-10
9.13932e-09
-8.65587e-09
2.60628e-10
-7.44077e-10
7.13285e-09
-6.65514e-09
2.54249e-10
-7.31967e-10
5.17483e-09
-4.71778e-09
2.41793e-10
-6.98847e-10
3.32287e-09
-2.89863e-09
2.23912e-10
-6.48156e-10
1.61756e-09
-1.23232e-09
2.0336e-10
-5.886e-10
3.96093e-09
2.05584e-08
-1.66091e-08
-7.91022e-09
1.59486e-08
-5.03809e-09
-1.76887e-08
6.7782e-09
2.0209e-08
1.74356e-09
-2.01855e-08
-1.76708e-09
1.70459e-08
8.78585e-09
-1.50427e-08
-1.0789e-08
6.72453e-09
1.22679e-08
-3.54692e-09
-1.54456e-08
-6.65451e-09
1.23565e-08
1.00595e-08
-1.57616e-08
-2.05031e-08
1.17675e-08
2.38842e-08
-1.51486e-08
-3.37525e-08
9.74979e-09
3.67388e-08
-1.27361e-08
-4.46336e-08
5.75245e-09
4.67124e-08
-7.83129e-09
-5.13688e-08
1.38497e-09
5.23935e-08
-2.40966e-09
-5.43317e-08
-1.6146e-09
5.46335e-08
1.31273e-09
-5.4653e-08
-4.15868e-09
5.43604e-08
4.45124e-09
-5.24266e-08
-7.16982e-09
5.14152e-08
8.18112e-09
-4.70951e-08
-1.00062e-08
4.53081e-08
1.17931e-08
-3.90166e-08
-1.1017e-08
3.67818e-08
1.32518e-08
-2.98196e-08
-1.00244e-08
2.75719e-08
1.2272e-08
-2.10366e-08
-7.95539e-09
1.90448e-08
9.94716e-09
-1.35181e-08
-5.64236e-09
1.1907e-08
7.25346e-09
-7.61487e-09
-3.51841e-09
6.41377e-09
4.71951e-09
-3.33821e-09
-1.75297e-09
2.51336e-09
2.57782e-09
-4.90553e-10
-3.86449e-10
-2.51363e-11
9.02139e-10
1.22076e-09
5.94491e-10
-1.50344e-09
-3.11819e-10
2.09903e-09
1.24702e-09
-2.21946e-09
-1.12659e-09
2.411e-09
1.646e-09
-2.4263e-09
-1.6307e-09
2.36626e-09
1.86225e-09
-2.31896e-09
-1.90955e-09
2.11615e-09
1.94893e-09
-2.03553e-09
-2.02954e-09
1.76286e-09
1.94092e-09
-1.66822e-09
-2.03555e-09
1.37378e-09
1.85618e-09
-1.27767e-09
-1.95229e-09
9.92008e-10
1.71831e-09
-9.02127e-10
-1.80819e-09
6.42218e-10
1.55024e-09
-5.62301e-10
-1.63015e-09
4.1356e-09
3.68961e-08
-3.27669e-08
-8.26482e-09
1.72055e-08
-1.24345e-08
-1.91565e-08
1.43855e-08
2.23281e-08
1.42322e-09
-2.2514e-08
-1.2373e-09
1.99029e-08
1.65534e-08
-1.80218e-08
-1.84345e-08
9.92636e-09
2.49183e-08
-6.78241e-09
-2.80622e-08
-3.40339e-09
2.60607e-08
6.83705e-09
-2.94944e-08
-1.75008e-08
2.55493e-08
2.09976e-08
-2.90462e-08
-3.13355e-08
2.21003e-08
3.45111e-08
-2.52759e-08
-4.30637e-08
1.45754e-08
4.53754e-08
-1.68871e-08
-5.07722e-08
6.05034e-09
5.20514e-08
-7.32958e-09
-5.47992e-08
1.88429e-10
5.53727e-08
-7.61998e-10
-5.62572e-08
-4.6867e-09
5.62636e-08
4.68024e-09
-5.53306e-08
-1.04528e-08
5.46791e-08
1.11042e-08
-5.15435e-08
-1.62672e-08
5.01725e-08
1.76382e-08
-4.52397e-08
-1.89758e-08
4.34808e-08
2.07348e-08
-3.8061e-08
-1.80104e-08
3.63373e-08
1.9734e-08
-3.13824e-08
-1.5061e-08
2.98779e-08
1.65654e-08
-2.56651e-08
-1.15124e-08
2.44131e-08
1.27644e-08
-2.09705e-08
-8.07171e-09
1.9965e-08
9.07716e-09
-1.72378e-08
-5.09845e-09
1.64495e-08
5.88672e-09
-1.43216e-08
-2.7391e-09
1.37064e-08
3.35427e-09
-1.20345e-08
-1.00958e-09
1.15452e-08
1.49881e-09
-1.01901e-08
1.61376e-10
9.78366e-09
2.45047e-10
-8.6224e-09
8.89176e-10
8.26176e-09
-5.28535e-10
-7.19417e-09
1.28994e-09
6.85097e-09
-9.4673e-10
-5.80627e-09
1.46644e-09
5.46295e-09
-1.12312e-09
-4.40586e-09
1.49733e-09
4.05751e-09
-1.14898e-09
-2.99314e-09
1.43349e-09
2.64681e-09
-1.08716e-09
-1.60797e-09
1.31676e-09
1.27636e-09
-9.85146e-10
-3.0171e-10
1.17724e-09
-3.17891e-12
-8.72353e-10
4.19007e-09
5.35596e-08
-4.93749e-08
-8.37478e-09
1.74442e-08
-2.02956e-08
-1.94216e-08
2.22731e-08
2.27094e-08
5.9212e-10
-2.29433e-08
-3.58154e-10
2.04332e-08
2.4049e-08
-1.85625e-08
-2.59196e-08
1.04485e-08
3.75002e-08
-7.29421e-09
-4.06545e-08
-2.89665e-09
3.97905e-08
6.32922e-09
-4.32231e-08
-1.70208e-08
3.95722e-08
2.05402e-08
-4.30916e-08
-3.09769e-08
3.48728e-08
3.41972e-08
-3.8093e-08
-4.28956e-08
2.38828e-08
4.5244e-08
-2.62313e-08
-5.06855e-08
1.11902e-08
5.1971e-08
-1.24757e-08
-5.47582e-08
2.52547e-09
5.53515e-08
-3.1188e-09
-5.63415e-08
-4.5844e-09
5.63924e-08
4.53347e-09
-5.56304e-08
-1.29674e-08
5.50335e-08
1.35643e-08
-5.19642e-08
-2.17384e-08
5.05808e-08
2.31218e-08
-4.55366e-08
-2.60198e-08
4.37345e-08
2.78219e-08
-3.82301e-08
-2.48356e-08
3.65029e-08
2.65628e-08
-3.16085e-08
-2.0935e-08
3.01423e-08
2.24012e-08
-2.60745e-08
-1.63602e-08
2.48737e-08
1.7561e-08
-2.15818e-08
-1.19571e-08
2.06207e-08
1.29182e-08
-1.80077e-08
-8.15604e-09
1.72491e-08
8.91459e-09
-1.51883e-08
-5.14716e-09
1.45881e-08
5.74742e-09
-1.29413e-08
-2.95291e-09
1.24546e-08
3.43962e-09
-1.10916e-08
-1.48499e-09
1.06782e-08
1.89839e-09
-9.48594e-09
-6.01943e-10
9.11224e-09
9.75644e-10
-7.99674e-09
-1.5764e-10
7.63508e-09
5.19299e-10
-6.52397e-09
-9.20045e-12
6.15505e-09
3.78111e-10
-5.00561e-09
-2.64105e-11
4.62214e-09
4.09885e-10
-3.43681e-09
-1.02102e-10
3.04712e-09
4.91792e-10
-1.86951e-09
-1.64475e-10
1.49162e-09
5.42359e-10
-3.78627e-10
-1.8675e-10
3.04686e-11
5.34909e-10
4.24319e-09
7.04293e-08
-6.61912e-08
-8.48137e-09
1.75831e-08
-2.82076e-08
-1.95602e-08
3.01848e-08
2.28943e-08
-3.88257e-10
-2.31582e-08
6.52147e-10
2.06938e-08
3.15426e-08
-1.88143e-08
-3.34221e-08
1.06233e-08
5.01539e-08
-7.4426e-09
-5.33346e-08
-2.77951e-09
5.35204e-08
6.21187e-09
-5.69528e-08
-1.69307e-08
5.36815e-08
2.04719e-08
-5.72227e-08
-3.1003e-08
4.782e-08
3.42695e-08
-5.10865e-08
-4.31278e-08
3.33291e-08
4.55135e-08
-3.57148e-08
-5.09611e-08
1.63152e-08
5.22337e-08
-1.75878e-08
-5.50055e-08
4.90573e-09
5.56028e-08
-5.50304e-09
-5.6675e-08
-4.32335e-09
5.6765e-08
4.23334e-09
-5.61983e-08
-1.52625e-08
5.56702e-08
1.57906e-08
-5.26447e-08
-2.7335e-08
5.12184e-08
2.87613e-08
-4.58937e-08
-3.33945e-08
4.39751e-08
3.53131e-08
-3.81378e-08
-3.18769e-08
3.63209e-08
3.36939e-08
-3.12031e-08
-2.68955e-08
2.96741e-08
2.84245e-08
-2.54265e-08
-2.12488e-08
2.41689e-08
2.25063e-08
-2.07056e-08
-1.58843e-08
1.96896e-08
1.69004e-08
-1.69102e-08
-1.12691e-08
1.60984e-08
1.20809e-08
-1.38781e-08
-7.62056e-09
1.32271e-08
8.27158e-09
-1.14343e-08
-4.95955e-09
1.09029e-08
5.49096e-09
-9.4231e-09
-3.17434e-09
8.97911e-09
3.61834e-09
-7.72296e-09
-2.1004e-09
7.33949e-09
2.48387e-09
-6.23417e-09
-1.5687e-09
5.89003e-09
1.91285e-09
-4.87822e-09
-1.40884e-09
4.55686e-09
1.7302e-09
-3.59622e-09
-1.45021e-09
3.28744e-09
1.75899e-09
-2.36161e-09
-1.52957e-09
2.06491e-09
1.82627e-09
-1.18481e-09
-1.53842e-09
9.06403e-10
1.81682e-09
-9.37055e-11
-1.44803e-09
-1.58914e-10
1.70065e-09
4.3097e-09
8.75448e-08
-8.32396e-08
-8.61492e-09
1.77449e-08
-3.61095e-08
-1.97166e-08
3.80813e-08
2.30987e-08
-1.49459e-09
-2.33982e-08
1.79408e-09
2.09855e-08
3.90799e-08
-1.90926e-08
-4.09728e-08
1.07969e-08
6.29279e-08
-7.58049e-09
-6.61443e-08
-2.68046e-09
6.72484e-08
6.11141e-09
-7.06794e-08
-1.68606e-08
6.78849e-08
2.04283e-08
-7.14525e-08
-3.10726e-08
6.09699e-08
3.43974e-08
-6.42947e-08
-4.34662e-08
4.29429e-08
4.59019e-08
-4.53786e-08
-5.13483e-08
2.13779e-08
5.26005e-08
-2.26302e-08
-5.53442e-08
7.29856e-09
5.59436e-08
-7.89798e-09
-5.71142e-08
-3.90255e-09
5.72439e-08
3.77279e-09
-5.69459e-08
-1.72262e-08
5.6527e-08
1.76451e-08
-5.35901e-08
-3.31116e-08
5.21146e-08
3.45871e-08
-4.64244e-08
-4.12836e-08
4.43535e-08
4.33545e-08
-3.81058e-08
-3.92883e-08
3.61906e-08
4.12035e-08
-3.08605e-08
-3.30932e-08
2.92787e-08
3.46751e-08
-2.48868e-08
-2.63493e-08
2.35851e-08
2.7651e-08
-1.9998e-08
-2.00104e-08
1.8945e-08
2.10633e-08
-1.60655e-08
-1.4572e-08
1.52235e-08
1.54139e-08
-1.29165e-08
-1.02805e-08
1.22357e-08
1.09612e-08
-1.03505e-08
-7.14169e-09
9.78906e-09
7.70318e-09
-8.21508e-09
-5.00411e-09
7.74099e-09
5.4782e-09
-6.40242e-09
-3.67085e-09
5.99708e-09
4.0762e-09
-4.84954e-09
-2.94895e-09
4.50176e-09
3.29673e-09
-3.51772e-09
-2.65262e-09
3.21959e-09
2.95075e-09
-2.37587e-09
-2.59509e-09
2.12018e-09
2.85079e-09
-1.3962e-09
-2.58819e-09
1.17638e-09
2.80801e-09
-5.52153e-10
-2.50682e-09
3.61612e-10
2.69737e-09
1.8208e-10
-2.31657e-09
-3.48567e-10
2.48305e-09
4.39027e-09
1.04964e-07
-1.00577e-07
-8.7767e-09
1.79427e-08
-4.39844e-08
-1.99055e-08
4.59472e-08
2.33465e-08
-2.75703e-09
-2.36911e-08
3.10165e-09
2.13448e-08
4.66753e-08
-1.94353e-08
-4.85847e-08
1.10074e-08
7.58581e-08
-7.74563e-09
-7.91199e-08
-2.56121e-09
8.09681e-08
5.98874e-09
-8.43956e-08
-1.67727e-08
8.2202e-08
2.03728e-08
-8.58021e-08
-3.1152e-08
7.43723e-08
3.45485e-08
-7.77688e-08
-4.38904e-08
5.27795e-08
4.63923e-08
-5.52815e-08
-5.18255e-08
2.63451e-08
5.30474e-08
-2.7567e-08
-5.57491e-08
9.69919e-09
5.6351e-08
-1.03011e-08
-5.76329e-08
-3.33267e-09
5.77936e-08
3.17196e-09
-5.78523e-08
-1.86705e-08
5.76031e-08
1.89196e-08
-5.48159e-08
-3.9097e-08
5.32835e-08
4.06294e-08
-4.7102e-08
-4.98568e-08
4.48249e-08
5.21339e-08
-3.80453e-08
-4.71139e-08
3.60171e-08
4.91421e-08
-3.04732e-08
-3.94946e-08
2.88428e-08
4.11251e-08
-2.43192e-08
-3.1615e-08
2.29778e-08
3.29564e-08
-1.92873e-08
-2.42603e-08
1.8209e-08
2.53386e-08
-1.52807e-08
-1.79542e-08
1.44318e-08
1.88031e-08
-1.21223e-08
-1.30026e-08
1.14466e-08
1.36783e-08
-9.58006e-09
-9.38829e-09
9.02416e-09
9.94419e-09
-7.46257e-09
-6.90686e-09
6.99077e-09
7.37866e-09
-5.65485e-09
-5.30028e-09
5.2497e-09
5.70543e-09
-4.10531e-09
-4.34013e-09
3.76067e-09
4.68477e-09
-2.79869e-09
-3.82595e-09
2.5131e-09
4.11154e-09
-1.72762e-09
-3.57307e-09
1.49787e-09
3.80282e-09
-8.72584e-10
-3.40048e-09
6.90562e-10
3.5825e-09
-1.93047e-10
-3.19085e-09
4.6313e-11
3.33758e-09
3.62472e-10
-2.90528e-09
-4.85585e-10
3.02839e-09
4.48747e-09
1.22749e-07
-1.18265e-07
-8.97168e-09
1.81717e-08
-5.18157e-08
-2.01201e-08
5.3764e-08
2.3631e-08
-4.21578e-09
-2.40315e-08
4.61632e-09
2.17696e-08
5.43406e-08
-1.98411e-08
-5.62691e-08
1.12536e-08
8.89844e-08
-7.9365e-09
-9.23015e-08
-2.4189e-09
9.46666e-08
5.83778e-09
-9.80854e-08
-1.66571e-08
9.66565e-08
2.02948e-08
-1.00294e-07
-3.12243e-08
8.80801e-08
3.47049e-08
-9.15607e-08
-4.43912e-08
6.29087e-08
4.69789e-08
-6.54964e-08
-5.23757e-08
3.11699e-08
5.3552e-08
-3.23461e-08
-5.61926e-08
1.21162e-08
5.68032e-08
-1.27268e-08
-5.81949e-08
-2.6641e-09
5.83682e-08
2.49088e-09
-5.88851e-08
-1.93062e-08
5.89018e-08
1.92895e-08
-5.63592e-08
-4.53149e-08
5.47683e-08
4.69057e-08
-4.79264e-08
-5.93581e-08
4.5369e-08
6.19154e-08
-3.78972e-08
-5.54106e-08
3.57446e-08
5.75631e-08
-3.00048e-08
-4.60821e-08
2.83325e-08
4.77545e-08
-2.36782e-08
-3.70441e-08
2.22931e-08
3.84292e-08
-1.84883e-08
-2.86116e-08
1.73837e-08
2.97162e-08
-1.44191e-08
-2.13486e-08
1.35721e-08
2.21956e-08
-1.13021e-08
-1.56771e-08
1.06477e-08
1.63315e-08
-8.86009e-09
-1.15751e-08
8.33216e-09
1.2103e-08
-6.85648e-09
-8.75976e-09
6.41154e-09
9.2047e-09
-5.15151e-09
-6.8921e-09
4.76891e-09
7.2747e-09
-3.68577e-09
-5.69569e-09
3.35899e-09
6.02247e-09
-2.44644e-09
-4.94711e-09
2.17579e-09
5.21776e-09
-1.43398e-09
-4.46909e-09
1.2182e-09
4.68486e-09
-6.35656e-10
-4.10258e-09
4.67759e-10
4.27048e-09
-1.37694e-11
-3.75022e-09
-1.18665e-10
3.88265e-09
4.84143e-10
-3.37075e-09
-5.93325e-10
3.47993e-09
4.60181e-09
1.40968e-07
-1.36369e-07
-9.20078e-09
1.84389e-08
-5.95804e-08
-2.03662e-08
6.15077e-08
2.39601e-08
-5.91618e-09
-2.44288e-08
6.38488e-09
2.22707e-08
6.20875e-08
-2.03197e-08
-6.40384e-08
1.1539e-08
1.02351e-07
-8.15376e-09
-1.05737e-07
-2.25528e-09
1.08322e-07
5.65958e-09
-1.11727e-07
-1.65176e-08
1.11272e-07
2.01993e-08
-1.14953e-07
-3.1295e-08
1.02144e-07
3.48723e-08
-1.05722e-07
-4.4994e-08
7.3419e-08
4.76942e-08
-7.61192e-08
-5.30204e-08
3.57809e-08
5.41278e-08
-3.68884e-08
-5.66856e-08
1.4593e-08
5.73252e-08
-1.52326e-08
-5.87954e-08
-1.98078e-09
5.89572e-08
1.81902e-09
-6.00348e-08
-1.86633e-08
6.04791e-08
1.8219e-08
-5.83235e-08
-5.17576e-08
5.66835e-08
5.33976e-08
-4.89418e-08
-7.01284e-08
4.59975e-08
7.30727e-08
-3.76088e-08
-6.42115e-08
3.53312e-08
6.6489e-08
-2.94582e-08
-5.28198e-08
2.77578e-08
5.45202e-08
-2.29718e-08
-4.26602e-08
2.15338e-08
4.40981e-08
-1.75849e-08
-3.30768e-08
1.64474e-08
3.42143e-08
-1.34422e-08
-2.47289e-08
1.26012e-08
2.55699e-08
-1.03956e-08
-1.825e-08
9.77323e-09
1.88723e-08
-8.10152e-09
-1.3629e-08
7.61441e-09
1.41161e-08
-6.26322e-09
-1.04831e-08
5.85771e-09
1.08886e-08
-4.70966e-09
-8.37463e-09
4.36045e-09
8.72384e-09
-3.36846e-09
-6.96527e-09
3.06764e-09
7.26609e-09
-2.22188e-09
-6.00358e-09
1.96893e-09
6.25653e-09
-1.26889e-09
-5.31651e-09
1.06306e-09
5.52234e-09
-5.01423e-10
-4.76606e-09
3.37811e-10
4.92967e-09
1.08085e-10
-4.27527e-09
-2.38798e-10
4.40598e-09
5.99469e-10
-3.8029e-09
-7.06796e-10
3.91022e-09
4.73455e-09
1.59691e-07
-1.54959e-07
-9.46627e-09
1.87449e-08
-6.7248e-08
-2.06422e-08
6.91453e-08
2.43329e-08
-7.90944e-09
-2.48837e-08
8.46021e-09
2.28517e-08
6.9929e-08
-2.08748e-08
-7.19059e-08
1.1863e-08
1.16012e-07
-8.39463e-09
-1.1948e-07
-2.07157e-09
1.21907e-07
5.45219e-09
-1.25287e-07
-1.63517e-08
1.26073e-07
2.00845e-08
-1.29806e-07
-3.13569e-08
1.16612e-07
3.50415e-08
-1.20296e-07
-4.57116e-08
8.44304e-08
4.85613e-08
-8.72801e-08
-5.37632e-08
4.00663e-08
5.47646e-08
-4.10676e-08
-5.72185e-08
1.72427e-08
5.79315e-08
-1.79558e-08
-5.9391e-08
-1.37413e-09
5.95268e-08
1.23829e-09
-6.12453e-08
-1.59376e-08
6.23934e-08
1.47894e-08
-6.08409e-08
-5.83641e-08
5.9175e-08
6.003e-08
-5.01942e-08
-8.26628e-08
4.67048e-08
8.61522e-08
-3.70692e-08
-7.34835e-08
3.46944e-08
7.58582e-08
-2.88366e-08
-5.96362e-08
2.71328e-08
6.13399e-08
-2.22087e-08
-4.85092e-08
2.07013e-08
5.00167e-08
-1.65561e-08
-3.76892e-08
1.53739e-08
3.88714e-08
-1.23173e-08
-2.80791e-08
1.14864e-08
2.891e-08
-9.37397e-09
-2.06781e-08
8.79546e-09
2.12566e-08
-7.27572e-09
-1.55034e-08
6.84044e-09
1.59387e-08
-5.64224e-09
-1.2037e-08
5.2836e-09
1.23957e-08
-4.26579e-09
-9.71532e-09
3.95464e-09
1.00265e-08
-3.06384e-09
-8.12653e-09
2.79104e-09
8.39933e-09
-2.01494e-09
-6.9886e-09
1.77953e-09
7.22401e-09
-1.11738e-09
-6.12765e-09
9.19158e-10
6.32587e-09
-3.68579e-10
-5.41887e-09
2.05421e-10
5.58202e-09
2.45003e-10
-4.80097e-09
-3.78229e-10
4.9342e-09
7.4585e-10
-4.23386e-09
-8.54575e-10
4.34258e-09
4.88714e-09
1.78992e-07
-1.74108e-07
-9.77079e-09
1.90838e-08
-7.47774e-08
-2.09383e-08
7.66319e-08
2.47395e-08
-1.02539e-08
-2.53881e-08
1.09025e-08
2.35083e-08
7.78788e-08
-2.15025e-08
-7.98847e-08
1.22205e-08
1.30029e-07
-8.65261e-09
-1.33597e-07
-1.86782e-09
1.35377e-07
5.21127e-09
-1.38721e-07
-1.61506e-08
1.41088e-07
1.99413e-08
-1.44879e-07
-3.13898e-08
1.31517e-07
3.51866e-08
-1.35314e-07
-4.6543e-08
9.61124e-08
4.95952e-08
-9.91645e-08
-5.45896e-08
4.38443e-08
5.54233e-08
-4.4678e-08
-5.77629e-08
2.02957e-08
5.8632e-08
-2.11648e-08
-5.98667e-08
-7.9916e-10
6.0072e-08
5.9385e-10
-6.24888e-08
-9.87442e-09
6.46642e-08
7.69897e-09
-6.41029e-08
-6.50547e-08
6.24082e-08
6.67494e-08
-5.17485e-08
-9.77095e-08
4.74685e-08
1.01989e-07
-3.60791e-08
-8.30308e-08
3.37032e-08
8.54068e-08
-2.81603e-08
-6.64136e-08
2.64902e-08
6.80837e-08
-2.14013e-08
-5.46753e-08
1.97947e-08
5.62818e-08
-1.53676e-08
-4.25052e-08
1.41222e-08
4.37507e-08
-1.09975e-08
-3.13802e-08
1.01831e-08
3.21946e-08
-8.20366e-09
-2.29059e-08
7.68657e-09
2.3423e-08
-6.36949e-09
-1.71503e-08
5.99989e-09
1.752e-08
-4.98686e-09
-1.33925e-08
4.68256e-09
1.36968e-08
-3.80949e-09
-1.08998e-08
3.53887e-09
1.11704e-08
-2.75208e-09
-9.17577e-09
2.50708e-09
9.42076e-09
-1.79719e-09
-7.90599e-09
1.57748e-09
8.1257e-09
-9.46076e-10
-6.9123e-09
7.52616e-10
7.10577e-09
-2.03026e-10
-6.07485e-09
3.66779e-11
6.2412e-09
4.29616e-10
-5.34132e-09
-5.68903e-10
5.48061e-09
9.52703e-10
-4.67308e-09
-1.06506e-09
4.78544e-09
5.0612e-09
1.98952e-07
-1.93896e-07
-1.01174e-08
1.94632e-08
-8.21131e-08
-2.12588e-08
8.39087e-08
2.51871e-08
-1.30163e-08
-2.59519e-08
1.37811e-08
2.42537e-08
8.59503e-08
-2.22152e-08
-8.79888e-08
1.2615e-08
1.44475e-07
-8.92637e-09
-1.48163e-07
-1.6473e-09
1.48675e-07
4.93544e-09
-1.51963e-07
-1.59174e-08
1.5635e-07
1.97755e-08
-1.60208e-07
-3.13936e-08
1.46873e-07
3.53013e-08
-1.50781e-07
-4.75233e-08
1.08719e-07
5.08628e-08
-1.12059e-07
-5.55228e-08
4.68191e-08
5.60923e-08
-4.73886e-08
-5.83425e-08
2.4156e-08
5.95017e-08
-2.53151e-08
-6.0037e-08
6.20311e-10
6.07863e-08
-1.3696e-09
-6.40222e-08
3.1918e-10
6.70826e-08
-3.37958e-09
-6.84152e-08
-7.20361e-08
6.65164e-08
7.39348e-08
-5.37407e-08
-1.16459e-07
4.82726e-08
1.21927e-07
-3.43542e-08
-9.22846e-08
3.22171e-08
9.44217e-08
-2.753e-08
-7.29941e-08
2.59347e-08
7.45893e-08
-2.05918e-08
-6.13092e-08
1.88325e-08
6.30685e-08
-1.39835e-08
-4.76156e-08
1.2645e-08
4.8954e-08
-9.42636e-09
-3.46012e-08
8.63927e-09
3.53882e-08
-6.85889e-09
-2.48554e-08
6.42782e-09
2.52865e-08
-5.38327e-09
-1.85093e-08
5.09786e-09
1.87947e-08
-4.3103e-09
-1.45185e-08
4.06845e-09
1.47603e-08
-3.35481e-09
-1.19188e-08
3.12708e-09
1.21465e-08
-2.44636e-09
-1.01149e-08
2.2285e-09
1.03328e-08
-1.58044e-09
-8.7638e-09
1.37441e-09
8.96983e-09
-7.65325e-10
-7.68335e-09
5.7301e-10
7.87567e-09
-9.83723e-12
-6.75183e-09
-1.65803e-10
6.92747e-09
6.69543e-10
-5.91503e-09
-8.22233e-10
6.06772e-09
1.24263e-09
-5.13246e-09
-1.36389e-09
5.25372e-09
5.25853e-09
2.19658e-07
-2.14407e-07
-1.05095e-08
1.98821e-08
-8.91836e-08
-2.15977e-08
9.08992e-08
2.56712e-08
-1.62743e-08
-2.65732e-08
1.71763e-08
2.50905e-08
9.41579e-08
-2.30158e-08
-9.62326e-08
1.30442e-08
1.5944e-07
-9.20968e-09
-1.63275e-07
-1.41099e-09
1.61718e-07
4.61958e-09
-1.64927e-07
-1.5647e-08
1.71898e-07
1.95843e-08
-1.75835e-07
-3.13506e-08
1.62658e-07
3.53561e-08
-1.66663e-07
-4.86667e-08
1.22665e-07
5.24368e-08
-1.26436e-07
-5.65507e-08
4.85495e-08
5.67257e-08
-4.87245e-08
-5.89823e-08
2.94565e-08
6.06384e-08
-3.11126e-08
-5.98102e-08
5.13437e-09
6.15621e-08
-6.88631e-09
-6.52721e-08
1.34206e-08
6.91049e-08
-1.72535e-08
-7.41536e-08
-8.05695e-08
7.14304e-08
8.32927e-08
-5.63252e-08
-1.40767e-07
4.91005e-08
1.47992e-07
-3.14078e-08
-9.99479e-08
3.00003e-08
1.01355e-07
-2.71312e-08
-7.92243e-08
2.56409e-08
8.07146e-08
-1.98249e-08
-6.86757e-08
1.78228e-08
7.06778e-08
-1.23364e-08
-5.31586e-08
1.08607e-08
5.46343e-08
-7.51321e-09
-3.76884e-08
6.77227e-09
3.84293e-08
-5.29839e-09
-2.64064e-08
4.99319e-09
2.67116e-08
-4.32276e-09
-1.94969e-08
4.14582e-09
1.96738e-08
-3.63341e-09
-1.53812e-08
3.46397e-09
1.55506e-08
-2.92605e-09
-1.27625e-08
2.74328e-09
1.29452e-08
-2.17022e-09
-1.09461e-08
1.97918e-09
1.11371e-08
-1.39157e-09
-9.56862e-09
1.19856e-09
9.76162e-09
-6.08656e-10
-8.45413e-09
4.15407e-10
8.64738e-09
1.76361e-10
-7.47985e-09
-3.71056e-10
7.67455e-09
9.66559e-10
-6.57208e-09
-1.16012e-09
6.76563e-09
1.72661e-09
-5.66535e-09
-1.89668e-09
5.83542e-09
5.48177e-09
2.41202e-07
-2.35732e-07
-1.09522e-08
2.03421e-08
-9.58947e-08
-2.19502e-08
9.75029e-08
2.61893e-08
-2.01173e-08
-2.72534e-08
2.11814e-08
2.6025e-08
1.02515e-07
-2.39107e-08
-1.0463e-07
1.35076e-08
1.75033e-07
-9.49625e-09
-1.79045e-07
-1.16248e-09
1.74396e-07
4.25717e-09
-1.7749e-07
-1.53358e-08
1.87785e-07
1.93688e-08
-1.91818e-07
-3.12435e-08
1.78794e-07
3.53165e-08
-1.82867e-07
-4.99904e-08
1.38672e-07
5.44488e-08
-1.43131e-07
-5.76382e-08
4.84908e-08
5.72791e-08
-4.81317e-08
-5.97432e-08
3.72535e-08
6.23159e-08
-3.98262e-08
-5.94295e-08
1.32381e-08
6.20654e-08
-1.58739e-08
-6.30686e-08
3.39682e-08
7.21322e-08
-4.30318e-08
-8.15072e-08
-9.403e-08
7.68981e-08
9.8639e-08
-6.01221e-08
-1.73201e-07
5.03219e-08
1.83001e-07
-2.63154e-08
-1.03338e-07
2.6728e-08
1.02926e-07
-2.73416e-08
-8.50407e-08
2.59129e-08
8.64693e-08
-1.91471e-08
-7.72057e-08
1.6763e-08
7.95899e-08
-1.03287e-08
-5.93438e-08
8.6473e-09
6.10252e-08
-5.11975e-09
-4.05439e-08
4.4607e-09
4.1203e-08
-3.47895e-09
-2.73681e-08
3.36293e-09
2.74841e-08
-3.21591e-09
-2.0005e-08
3.17947e-09
2.00414e-08
-2.99821e-09
-1.59395e-08
2.90968e-09
1.6028e-08
-2.55733e-09
-1.34254e-08
2.41994e-09
1.35628e-08
-1.95299e-09
-1.16697e-08
1.78852e-09
1.18342e-08
-1.26242e-09
-1.03194e-08
1.08409e-09
1.04977e-08
-5.24096e-10
-9.22361e-09
3.35601e-10
9.4121e-09
2.6289e-10
-8.28785e-09
-4.70566e-10
8.49553e-09
1.17241e-09
-7.45933e-09
-1.43369e-09
7.72061e-09
2.32699e-09
-6.53613e-09
-2.62985e-09
6.83899e-09
5.73179e-09
2.63685e-07
-2.5797e-07
-1.14468e-08
2.08447e-08
-1.02126e-07
-2.23104e-08
1.03592e-07
2.67391e-08
-2.46505e-08
-2.79942e-08
2.59056e-08
2.70645e-08
1.11036e-07
-2.49074e-08
-1.13193e-07
1.40051e-08
1.91389e-07
-9.77868e-09
-1.95615e-07
-9.05668e-10
1.86548e-07
3.8375e-09
-1.8948e-07
-1.49802e-08
2.04088e-07
1.91328e-08
-2.0824e-07
-3.10507e-08
1.9513e-07
3.51393e-08
-1.99219e-07
-5.15032e-08
1.58054e-07
5.71242e-08
-1.63675e-07
-5.8713e-08
4.60879e-08
5.76757e-08
-4.50507e-08
-6.05521e-08
5.01345e-08
6.52694e-08
-5.48517e-08
-5.70846e-08
2.91894e-08
6.47632e-08
-3.68681e-08
-5.84093e-08
8.66161e-08
7.68028e-08
-1.0501e-07
-9.25085e-08
-1.1496e-07
8.68847e-08
1.20584e-07
-6.5977e-08
-2.17373e-07
5.2952e-08
2.30398e-07
-1.80551e-08
-9.63086e-08
2.31768e-08
9.11869e-08
-2.94156e-08
-9.12382e-08
2.74253e-08
9.32285e-08
-1.8559e-08
-8.75287e-08
1.56124e-08
9.04753e-08
-7.83006e-09
-6.65012e-08
5.8297e-09
6.85015e-08
-2.02967e-09
-4.29855e-08
1.5194e-09
4.34958e-08
-1.36125e-09
-2.74345e-08
1.5376e-09
2.72581e-08
-2.12699e-09
-1.98953e-08
2.26876e-09
1.97535e-08
-2.46818e-09
-1.61674e-08
2.46335e-09
1.61723e-08
-2.28963e-09
-1.39106e-08
2.19356e-09
1.40067e-08
-1.8227e-09
-1.229e-08
1.68262e-09
1.24301e-08
-1.2172e-09
-1.10081e-08
1.05541e-09
1.11699e-08
-5.41823e-10
-9.95507e-09
3.69714e-10
1.01272e-08
1.54297e-10
-9.07427e-09
-3.20796e-10
9.24077e-09
7.82327e-10
-8.4047e-09
-9.06894e-10
8.52927e-09
1.18381e-09
-7.69764e-09
-1.27026e-09
7.78409e-09
6.01081e-09
2.87214e-07
-2.81228e-07
-1.19969e-08
2.13947e-08
-1.07724e-07
-2.26734e-08
1.09003e-07
2.73205e-08
-2.9997e-08
-2.88008e-08
3.14773e-08
2.82205e-08
1.19732e-07
-2.60177e-08
-1.21935e-07
1.45393e-08
2.08672e-07
-1.00496e-08
-2.13162e-07
-6.44272e-10
1.97958e-07
3.34789e-09
-2.00662e-07
-1.4577e-08
2.20918e-07
1.88857e-08
-2.25227e-07
-3.07473e-08
2.11426e-07
3.47797e-08
-2.15458e-07
-5.32033e-08
1.83216e-07
6.08393e-08
-1.90852e-07
-5.96672e-08
4.07161e-08
5.78023e-08
-3.88512e-08
-6.1412e-08
7.5621e-08
7.11534e-08
-8.53623e-08
-4.9092e-08
6.90607e-08
5.85973e-08
-7.8566e-08
-6.67048e-08
1.49327e-07
7.3569e-08
-1.56191e-07
-1.05431e-07
-1.32351e-07
1.05302e-07
1.3248e-07
-7.55419e-08
-2.72723e-07
6.07554e-08
2.87509e-07
-2.25244e-08
-6.79118e-08
2.96834e-08
6.07528e-08
-3.49852e-08
-1.01684e-07
3.09299e-08
1.05739e-07
-1.79481e-08
-1.00334e-07
1.43198e-08
1.03962e-07
-4.71347e-09
-7.52249e-08
2.15806e-09
7.77804e-08
2.13518e-09
-4.46506e-08
-2.35572e-09
4.48711e-08
1.06296e-09
-2.61059e-08
-4.24524e-10
2.54675e-08
-1.19145e-09
-1.90175e-08
1.54632e-09
1.86626e-08
-2.13857e-09
-1.60711e-08
2.20622e-09
1.60034e-08
-2.16853e-09
-1.42461e-08
2.1013e-09
1.43133e-08
-1.7994e-09
-1.2819e-08
1.67883e-09
1.29396e-08
-1.26729e-09
-1.16315e-08
1.12105e-09
1.17777e-08
-6.45379e-10
-1.06241e-08
4.82046e-10
1.07874e-08
2.1358e-11
-9.68697e-09
-1.78172e-10
9.84378e-09
5.46461e-10
-8.60309e-09
-5.95706e-10
8.65233e-09
3.27752e-10
-6.90978e-09
-5.82358e-11
6.64026e-09
6.32339e-09
3.11897e-07
-3.05612e-07
-1.26082e-08
2.19895e-08
-1.12492e-07
-2.30241e-08
1.13527e-07
2.79233e-08
-3.6302e-08
-2.9669e-08
3.80477e-08
2.94959e-08
1.28613e-07
-2.72453e-08
-1.30864e-07
1.51087e-08
2.27092e-07
-1.02968e-08
-2.31904e-07
-3.84193e-10
2.08325e-07
2.76721e-09
-2.10708e-07
-1.41169e-08
2.38447e-07
1.86373e-08
-2.42967e-07
-3.02891e-08
2.27367e-07
3.41775e-08
-2.31255e-07
-5.50703e-08
2.18328e-07
6.60814e-08
-2.29339e-07
-6.02138e-08
3.23032e-08
5.78348e-08
-2.99242e-08
-6.66221e-08
1.19543e-07
7.6699e-08
-1.29621e-07
-3.34751e-08
7.62422e-08
2.33503e-08
-6.61174e-08
-6.18268e-08
1.56592e-07
5.9454e-08
-1.54219e-07
-9.23071e-08
-1.11716e-07
1.07372e-07
9.66511e-08
-8.32498e-08
-3.31548e-07
7.00056e-08
3.44792e-07
-6.16754e-08
-4.70971e-08
6.41403e-08
4.46321e-08
-4.30657e-08
-1.23626e-07
3.5029e-08
1.31663e-07
-1.70416e-08
-1.15698e-07
1.29303e-08
1.19809e-07
-6.2907e-10
-8.69055e-08
-3.02797e-09
9.05625e-08
8.15687e-09
-4.4736e-08
-7.73615e-09
4.43152e-08
3.71421e-09
-2.25481e-08
-2.33288e-09
2.11668e-08
-6.63307e-10
-1.72604e-08
1.23979e-09
1.66839e-08
-2.13464e-09
-1.57327e-08
2.23505e-09
1.56323e-08
-2.23006e-09
-1.44984e-08
2.1673e-09
1.45612e-08
-1.88919e-09
-1.32798e-08
1.78156e-09
1.33874e-08
-1.42195e-09
-1.2192e-08
1.29408e-09
1.23198e-08
-8.60062e-10
-1.12795e-08
6.98767e-10
1.14408e-08
-1.16932e-10
-1.04278e-08
-1.11815e-10
1.06566e-08
9.69833e-10
-9.29913e-09
-1.31632e-09
9.64562e-09
2.64419e-09
-7.30215e-09
-3.14009e-09
7.79805e-09
6.66877e-09
3.37825e-07
-3.31221e-07
-1.3273e-08
2.26319e-08
-1.16181e-07
-2.33496e-08
1.16899e-07
2.85429e-08
-4.37374e-08
-3.06013e-08
4.57958e-08
3.09007e-08
1.37688e-07
-2.86013e-08
-1.39988e-07
1.57178e-08
2.46908e-07
-1.05094e-08
-2.52116e-07
-1.33398e-10
2.1723e-07
2.06591e-09
-2.19162e-07
-1.35914e-08
2.56944e-07
1.84122e-08
-2.61765e-07
-2.96355e-08
2.42591e-07
3.32815e-08
-2.46237e-07
-5.61146e-08
2.68938e-07
7.13924e-08
-2.84216e-07
-5.99849e-08
2.19461e-08
5.68341e-08
-1.87952e-08
-6.08326e-08
1.44682e-07
5.96981e-08
-1.43547e-07
-3.47888e-08
3.58668e-08
2.31608e-08
-2.42387e-08
-4.37249e-08
1.57707e-07
5.39019e-08
-1.67884e-07
-5.84409e-08
-2.99847e-08
8.39255e-08
2.99968e-09
-7.10743e-08
-3.72379e-07
6.10369e-08
3.82416e-07
-7.91876e-08
-4.37403e-08
7.78315e-08
4.50965e-08
-4.40153e-08
-1.59913e-07
3.42117e-08
1.69716e-07
-1.51556e-08
-1.32322e-07
1.10334e-08
1.36444e-07
5.26281e-09
-1.03943e-07
-1.05927e-08
1.09273e-07
1.64666e-08
-4.13185e-08
-1.47525e-08
3.96044e-08
6.01285e-09
-1.54911e-08
-3.55074e-09
1.3029e-08
-1.00032e-09
-1.46977e-08
1.71327e-09
1.39848e-08
-2.59492e-09
-1.53781e-08
2.63918e-09
1.53339e-08
-2.47771e-09
-1.47863e-08
2.38087e-09
1.48831e-08
-2.06291e-09
-1.36985e-08
1.96194e-09
1.37994e-08
-1.6714e-09
-1.26576e-08
1.57888e-09
1.27501e-08
-1.27631e-09
-1.18759e-08
1.16122e-09
1.1991e-08
-7.05088e-10
-1.13433e-08
5.04673e-10
1.15437e-08
3.27143e-10
-1.06618e-08
-6.65292e-10
1.09999e-08
1.59658e-09
-9.26652e-09
-1.96258e-09
9.63091e-09
7.05076e-09
3.65143e-07
-3.58171e-07
-1.4022e-08
2.33309e-08
-1.18468e-07
-2.36375e-08
1.18775e-07
2.91806e-08
-5.25069e-08
-3.16089e-08
5.49351e-08
3.24539e-08
1.46961e-07
-3.01049e-08
-1.4931e-07
1.63784e-08
2.68447e-07
-1.06778e-08
-2.74148e-07
1.2488e-10
2.24089e-07
1.20278e-09
-2.25417e-07
-1.29911e-08
2.76832e-07
1.82488e-08
-2.8209e-07
-2.87645e-08
2.56602e-07
3.19589e-08
-2.59797e-07
-4.60116e-08
3.33077e-07
6.199e-08
-3.49055e-07
-5.74544e-08
8.59125e-09
5.44797e-08
-5.61652e-09
-6.66802e-08
1.20292e-07
5.2588e-08
-1.06201e-07
-5.17524e-08
-8.92559e-10
4.95912e-08
3.05382e-09
-6.7824e-08
9.0102e-08
2.11271e-09
-9.02381e-09
1.06346e-09
-1.14376e-09
-4.21997e-10
2.56847e-10
-3.08933e-08
-4.70675e-07
6.63416e-08
4.19416e-07
-4.8062e-08
-4.99818e-08
4.77924e-08
5.02513e-08
-3.00352e-08
-1.94876e-07
2.42042e-08
2.00707e-07
-1.24252e-08
-1.484e-07
8.72887e-09
1.52096e-07
1.01798e-08
-1.27657e-07
-1.69609e-08
1.34438e-07
2.34063e-08
-3.19764e-08
-2.0044e-08
2.86142e-08
5.86228e-09
-3.93065e-09
-2.37475e-09
4.43123e-10
-2.91454e-09
-1.19597e-08
3.45125e-09
1.1423e-08
-3.60312e-09
-1.54534e-08
3.44115e-09
1.56154e-08
-2.8432e-09
-1.52832e-08
2.66295e-09
1.54635e-08
-2.23306e-09
-1.40986e-08
2.13386e-09
1.41978e-08
-1.94086e-09
-1.29463e-08
1.90717e-09
1.29799e-08
-1.86329e-09
-1.21853e-08
1.86064e-09
1.21879e-08
-1.85841e-09
-1.19051e-08
1.85204e-09
1.19115e-08
-1.77589e-09
-1.1808e-08
1.72284e-09
1.18611e-08
-1.54979e-09
-9.62757e-09
1.63058e-09
9.54767e-09
7.46955e-09
3.94086e-07
-3.86682e-07
-1.4873e-08
2.40887e-08
-1.18949e-07
-2.38736e-08
1.18734e-07
2.98267e-08
-6.28538e-08
-3.26929e-08
6.57201e-08
3.41654e-08
1.56431e-07
-3.17669e-08
-1.5883e-07
1.71026e-08
2.92128e-07
-1.07883e-08
-2.98442e-07
3.70228e-10
2.28234e-07
1.17356e-10
-2.28722e-07
-1.22946e-08
2.98744e-07
1.81894e-08
-3.04639e-07
-2.77163e-08
2.68321e-07
3.01225e-08
-2.70727e-07
-2.33602e-08
3.88263e-07
3.21685e-08
-3.97072e-07
-4.91819e-08
9.64615e-10
4.94255e-08
-1.20815e-09
-7.38954e-08
4.71434e-08
4.82004e-08
-2.14483e-08
-6.52207e-09
-2.06215e-08
1.18873e-07
-1.01356e-07
-7.09055e-12
7.30852e-12
1.27056e-12
-5.0381e-13
6.25672e-12
-5.70955e-11
-1.17321e-11
5.17081e-10
-4.84676e-10
-1.53759e-08
2.65938e-08
2.86716e-09
-1.05123e-08
-2.6218e-08
-3.7423e-09
4.04727e-08
-6.41692e-09
-2.07789e-07
8.43437e-09
2.05771e-07