/*--------------------------------*- C++ -*----------------------------------*\
| =========                 |                                                 |
| \\      /  F ield         | OpenFOAM: The Open Source CFD Toolbox           |
|  \\    /   O peration     | Version:  2.4.0                                 |
|   \\  /    A nd           | Web:      www.OpenFOAM.org                      |
|    \\/     M anipulation  |                                                 |
\*---------------------------------------------------------------------------*/
FoamFile
{
    version     2.0;
    format      ascii;
    class       surfaceScalarField;
    location    "0.157";
    object      phiAlpha;
}
// * * * * * * * * * * * * * * * * * * * * * * * * * * * * * * * * * * * * * //

dimensions      [0 3 -1 0 0 0 0];

internalField   nonuniform List<scalar> 
114720
(
2.16048e-09
-9.17402e-10
-3.30343e-09
2.06035e-09
-6.06459e-09
8.07484e-09
1.00159e-09
-3.01184e-09
-1.4512e-08
1.62992e-08
6.62407e-10
-2.44962e-09
-2.17835e-08
2.32861e-08
5.34241e-10
-2.03679e-09
-2.68013e-08
2.7487e-08
1.46497e-10
-8.32285e-10
-2.84131e-08
2.84356e-08
-1.55645e-10
1.33078e-10
-2.79969e-08
2.7622e-08
-3.40569e-10
7.15452e-10
-2.51454e-08
2.37266e-08
-8.33175e-10
2.25194e-09
-1.6608e-08
1.35723e-08
-1.50009e-09
4.53584e-09
-2.62258e-09
-8.75839e-10
-1.45153e-09
4.94996e-09
1.06505e-08
-1.31046e-08
-7.78789e-10
3.2328e-09
1.86497e-08
-1.9776e-08
-1.83587e-10
1.3099e-09
2.18529e-08
-2.21606e-08
1.03352e-10
2.04293e-10
2.24893e-08
-2.24654e-08
1.69527e-10
-1.93413e-10
2.21978e-08
-2.20749e-08
1.49952e-10
-2.72829e-10
2.16018e-08
-2.14228e-08
1.27792e-10
-3.06781e-10
2.07366e-08
-2.04748e-08
1.28859e-10
-3.90663e-10
1.94966e-08
-1.91404e-08
1.45468e-10
-5.01646e-10
1.78895e-08
-1.74599e-08
1.61521e-10
-5.91147e-10
1.60261e-08
-1.55546e-08
1.70506e-10
-6.41953e-10
1.40384e-08
-1.3555e-08
1.71036e-10
-6.54451e-10
1.20391e-08
-1.15665e-08
1.64589e-10
-6.37216e-10
1.0111e-08
-9.66437e-09
1.53286e-10
-5.99919e-10
8.30763e-09
-7.89699e-09
1.38788e-10
-5.49429e-10
6.66124e-09
-6.29012e-09
1.23313e-10
-4.94436e-10
5.18182e-09
-4.85075e-09
1.08053e-10
-4.39125e-10
3.86475e-09
-3.57073e-09
9.43544e-11
-3.88369e-10
2.69578e-09
-2.4347e-09
8.25797e-11
-3.43655e-10
1.65683e-09
-1.42451e-09
7.2743e-11
-3.05059e-10
7.29889e-10
-5.22076e-10
6.46569e-11
-2.7247e-10
7.31919e-10
-4.0009e-09
4.34843e-09
-1.07945e-09
-4.8775e-09
1.17029e-08
7.85167e-09
-1.4677e-08
-1.84159e-08
1.2276e-08
2.21209e-08
-1.5981e-08
-3.28499e-08
9.48444e-09
3.60565e-08
-1.2691e-08
-4.43033e-08
4.80166e-09
4.63741e-08
-6.87249e-09
-5.11561e-08
1.77678e-09
5.23982e-08
-3.01886e-09
-5.535e-08
-8.49229e-10
5.5971e-08
2.2827e-10
-5.56417e-08
-8.15152e-09
5.4496e-08
9.29721e-09
-4.7064e-08
-1.7528e-08
4.33265e-08
2.12655e-08
-2.89233e-08
-2.04311e-08
2.35865e-08
2.57679e-08
-7.05798e-09
-1.56593e-08
1.91819e-09
2.07991e-08
1.19783e-08
-9.04817e-09
-1.58279e-08
1.28978e-08
2.54164e-08
-4.37593e-09
-2.78899e-08
6.84937e-09
3.37042e-08
-1.84749e-09
-3.51022e-08
3.2455e-09
3.80839e-08
-4.20558e-10
-3.86881e-08
1.02475e-09
3.95675e-08
6.79292e-10
-3.95695e-08
-6.77304e-10
3.88287e-08
1.69605e-09
-3.8374e-08
-2.1507e-09
3.64816e-08
2.49835e-09
-3.57303e-08
-3.24965e-09
3.3158e-08
2.99562e-09
-3.22507e-08
-3.90294e-09
2.93666e-08
3.22024e-09
-2.84021e-08
-4.18475e-09
2.54498e-08
3.24046e-09
-2.44915e-08
-4.19884e-09
2.16238e-08
3.12192e-09
-2.07107e-08
-4.03498e-09
1.80212e-08
2.91662e-09
-1.71767e-08
-3.76108e-09
1.4719e-08
2.66221e-09
-1.39557e-08
-3.42551e-09
1.17533e-08
2.39155e-09
-1.10746e-08
-3.07023e-09
9.1277e-09
2.12776e-09
-8.53012e-09
-2.72534e-09
6.81791e-09
1.88875e-09
-6.2922e-09
-2.41446e-09
4.78363e-09
1.67897e-09
-4.31908e-09
-2.14353e-09
2.98101e-09
1.49986e-09
-2.56674e-09
-1.91412e-09
1.36903e-09
1.34367e-09
-9.97385e-10
-1.71531e-09
1.46717e-09
-7.81728e-10
1.76375e-09
-2.44919e-09
-1.90303e-09
2.336e-08
4.74269e-09
-2.61996e-08
-1.53837e-08
2.73609e-08
1.91985e-08
-3.11756e-08
-3.04408e-08
2.28269e-08
3.38733e-08
-2.62594e-08
-4.29261e-08
1.37338e-08
4.52805e-08
-1.60881e-08
-5.09762e-08
7.4408e-09
5.25394e-08
-9.00399e-09
-5.65775e-08
2.49293e-09
5.76178e-08
-3.53315e-09
-5.88292e-08
-1.15379e-08
5.82814e-08
1.20858e-08
-5.30713e-08
-3.08392e-08
5.01907e-08
3.37198e-08
-3.87789e-08
-4.00589e-08
3.44794e-08
4.43583e-08
-2.07468e-08
-3.55521e-08
1.62472e-08
4.00517e-08
-3.20138e-09
-2.50868e-08
-7.11125e-10
2.89993e-08
1.12175e-08
-1.5442e-08
-1.41364e-08
1.83609e-08
2.14026e-08
-8.42875e-09
-2.32492e-08
1.02754e-08
2.74031e-08
-3.42926e-09
-2.83214e-08
4.34756e-09
3.0003e-08
3.42675e-10
-3.02353e-08
-1.10398e-10
3.01702e-08
3.26959e-09
-2.99375e-08
-3.50228e-09
2.87434e-08
5.25315e-09
-2.82269e-08
-5.7697e-09
2.63786e-08
6.35697e-09
-2.57069e-08
-7.02865e-09
2.35249e-08
6.80776e-09
-2.27815e-08
-7.55109e-09
2.0471e-08
6.81587e-09
-1.97106e-08
-7.57622e-09
1.74099e-08
6.53443e-09
-1.66703e-08
-7.274e-09
1.44769e-08
6.07195e-09
-1.37848e-08
-6.76411e-09
1.17666e-08
5.50419e-09
-1.11402e-08
-6.13059e-09
9.3406e-09
4.89944e-09
-8.78996e-09
-5.45008e-09
7.22669e-09
4.31187e-09
-6.75282e-09
-4.78574e-09
5.41317e-09
3.78784e-09
-5.0076e-09
-4.19341e-09
3.85745e-09
3.34216e-09
-3.50686e-09
-3.69275e-09
2.50335e-09
2.97679e-09
-2.19378e-09
-3.28636e-09
1.29866e-09
2.66851e-09
-1.0205e-09
-2.94667e-09
1.72552e-09
3.67843e-09
-2.50607e-09
-2.89788e-09
-1.17083e-09
3.46766e-08
3.99514e-09
-3.7501e-08
-1.46919e-08
4.2651e-08
1.85303e-08
-4.64894e-08
-2.98312e-08
3.65961e-08
3.32883e-08
-4.00532e-08
-4.23991e-08
2.31546e-08
4.47491e-08
-2.55045e-08
-5.0432e-08
1.37381e-08
5.20127e-08
-1.53188e-08
-5.61898e-08
6.80111e-09
5.73166e-08
-7.92791e-09
-5.88532e-08
-1.3541e-08
5.84064e-08
1.39877e-08
-5.34699e-08
-4.21488e-08
5.06585e-08
4.49602e-08
-3.9591e-08
-5.67252e-08
3.55036e-08
6.08126e-08
-2.28722e-08
-5.26099e-08
1.88591e-08
5.6623e-08
-7.42055e-09
-3.99103e-08
4.0102e-09
4.33207e-08
5.21998e-09
-2.66806e-08
-7.83258e-09
2.92932e-08
1.45385e-08
-1.57593e-08
-1.63247e-08
1.75455e-08
2.06198e-08
-7.32228e-09
-2.16736e-08
8.37608e-09
2.39616e-08
-9.74379e-10
-2.44407e-08
1.45347e-09
2.5219e-08
3.72555e-09
-2.52779e-08
-3.66666e-09
2.49694e-08
6.85013e-09
-2.47305e-08
-7.08909e-09
2.36689e-08
8.63723e-09
-2.32306e-08
-9.07557e-09
2.16859e-08
9.45249e-09
-2.11271e-08
-1.00113e-08
1.93121e-08
9.60142e-09
-1.86935e-08
-1.022e-08
1.67691e-08
9.29892e-09
-1.61355e-08
-9.93259e-09
1.42177e-08
8.69873e-09
-1.36011e-08
-9.31529e-09
1.17724e-08
7.91071e-09
-1.11951e-08
-8.48795e-09
9.50975e-09
7.03658e-09
-8.98561e-09
-7.56072e-09
7.47408e-09
6.16621e-09
-7.00852e-09
-6.63176e-09
5.67275e-09
5.38565e-09
-5.26239e-09
-5.79601e-09
4.08364e-09
4.7309e-09
-3.71991e-09
-5.09463e-09
2.66876e-09
4.20847e-09
-2.34172e-09
-4.53551e-09
1.39043e-09
3.77981e-09
-1.09322e-09
-4.07703e-09
1.90547e-09
8.6565e-09
-7.36947e-09
-3.1925e-09
-9.35987e-10
4.59762e-08
3.7613e-09
-4.88015e-08
-1.45586e-08
5.80485e-08
1.84272e-08
-6.19171e-08
-2.97975e-08
5.04628e-08
3.3282e-08
-5.39473e-08
-4.24571e-08
3.25357e-08
4.47947e-08
-3.48734e-08
-5.04109e-08
2.00573e-08
5.19886e-08
-2.1635e-08
-5.62534e-08
1.14261e-08
5.74633e-08
-1.2636e-08
-5.93238e-08
-1.52109e-08
5.8962e-08
1.55726e-08
-5.4121e-08
-5.34851e-08
5.12466e-08
5.63595e-08
-3.98107e-08
-7.32413e-08
3.5591e-08
7.7461e-08
-2.27233e-08
-6.85682e-08
1.87189e-08
7.25726e-08
-7.59875e-09
-5.31885e-08
4.36825e-09
5.6419e-08
4.23763e-09
-3.67841e-08
-6.66027e-09
3.92067e-08
1.29647e-08
-2.28012e-08
-1.46953e-08
2.45319e-08
1.90536e-08
-1.16809e-08
-2.01917e-08
1.2819e-08
2.28494e-08
-3.13987e-09
-2.34682e-08
3.75868e-09
2.46725e-08
3.24462e-09
-2.48617e-08
-3.05536e-09
2.49026e-08
7.61181e-09
-2.47616e-08
-7.75284e-09
2.39492e-08
1.02504e-08
-2.3579e-08
-1.06206e-08
2.22084e-08
1.15856e-08
-2.16985e-08
-1.20955e-08
2.00147e-08
1.19984e-08
-1.94338e-08
-1.25793e-08
1.76127e-08
1.17741e-08
-1.70093e-08
-1.23775e-08
1.51716e-08
1.11237e-08
-1.45766e-08
-1.17187e-08
1.27965e-08
1.02014e-08
-1.22285e-08
-1.07694e-08
1.05469e-08
9.1437e-09
-1.00151e-08
-9.6755e-09
8.45071e-09
8.07011e-09
-7.95823e-09
-8.56259e-09
6.51257e-09
7.09581e-09
-6.05815e-09
-7.55023e-09
4.72586e-09
6.27136e-09
-4.30716e-09
-6.69006e-09
3.08011e-09
5.60808e-09
-2.69423e-09
-5.99396e-09
1.56459e-09
5.05731e-09
-1.21041e-09
-5.41149e-09
2.11357e-09
1.41189e-08
-1.27027e-08
-3.5298e-09
-7.31364e-10
5.72771e-08
3.55599e-09
-6.01018e-08
-1.44824e-08
7.35737e-08
1.83853e-08
-7.74766e-08
-2.98424e-08
6.44521e-08
3.33627e-08
-6.79724e-08
-4.26279e-08
4.18668e-08
4.49515e-08
-4.41904e-08
-5.04815e-08
2.63601e-08
5.20529e-08
-2.79315e-08
-5.64202e-08
1.64172e-08
5.77357e-08
-1.77327e-08
-6.00256e-08
-1.64904e-08
5.97827e-08
1.67333e-08
-5.51053e-08
-6.50838e-08
5.21624e-08
6.80268e-08
-4.02654e-08
-9.03842e-08
3.58646e-08
9.4785e-08
-2.25131e-08
-8.47532e-08
1.83889e-08
8.88773e-08
-7.07139e-09
-6.6095e-08
3.83233e-09
6.93341e-08
4.68828e-09
-4.63818e-08
-7.06751e-09
4.8761e-08
1.32758e-08
-2.97027e-08
-1.49984e-08
3.14254e-08
1.94116e-08
-1.6301e-08
-2.0588e-08
1.74773e-08
2.33878e-08
-5.7017e-09
-2.40525e-08
6.36645e-09
2.53696e-08
2.43284e-09
-2.55839e-08
-2.21853e-09
2.56652e-08
8.15756e-09
-2.55271e-08
-8.29561e-09
2.47059e-08
1.17297e-08
-2.43293e-08
-1.21063e-08
2.29365e-08
1.36272e-08
-2.24191e-08
-1.41446e-08
2.07145e-08
1.43225e-08
-2.01281e-08
-1.49089e-08
1.82946e-08
1.41846e-08
-1.76883e-08
-1.47909e-08
1.58446e-08
1.34994e-08
-1.52482e-08
-1.40959e-08
1.34622e-08
1.24739e-08
-1.28911e-08
-1.30449e-08
1.1193e-08
1.12831e-08
-1.06528e-08
-1.18234e-08
9.05081e-09
1.00684e-08
-8.5419e-09
-1.05773e-08
7.03373e-09
8.95735e-09
-6.55502e-09
-9.43606e-09
5.13957e-09
8.00067e-09
-4.69127e-09
-8.44896e-09
3.3695e-09
7.21002e-09
-2.95169e-09
-7.62782e-09
1.72429e-09
6.53144e-09
-1.33838e-09
-6.91735e-09
2.37341e-09
2.01739e-08
-1.85973e-08
-3.94999e-09
-4.83791e-10
6.85748e-08
3.30944e-09
-7.14004e-08
-1.43974e-08
8.92414e-08
1.83385e-08
-9.31826e-08
-2.99034e-08
7.85981e-08
3.34691e-08
-8.21638e-08
-4.28515e-08
5.11349e-08
4.51566e-08
-5.344e-08
-5.0573e-08
3.26317e-08
5.21339e-08
-3.41927e-08
-5.66165e-08
2.18637e-08
5.80594e-08
-2.33066e-08
-6.08874e-08
-1.7242e-08
6.07995e-08
1.733e-08
-5.63492e-08
-7.69699e-08
5.33276e-08
7.99916e-08
-4.08679e-08
-1.08296e-07
3.62532e-08
1.1291e-07
-2.23464e-08
-1.0146e-07
1.80786e-08
1.05728e-07
-6.45659e-09
-7.91297e-08
3.16168e-09
8.24247e-08
5.43325e-09
-5.59012e-08
-7.81799e-09
5.82859e-08
1.40382e-08
-3.66044e-08
-1.57699e-08
3.83361e-08
2.02329e-08
-2.10397e-08
-2.14309e-08
2.22376e-08
2.42978e-08
-8.38938e-09
-2.49805e-08
9.07207e-09
2.63251e-08
1.57551e-09
-2.65378e-08
-1.36287e-09
2.65825e-08
8.73668e-09
-2.64246e-08
-8.89452e-09
2.55294e-08
1.32726e-08
-2.51262e-08
-1.36758e-08
2.36508e-08
1.57336e-08
-2.31064e-08
-1.6278e-08
2.13219e-08
1.67007e-08
-2.07106e-08
-1.7312e-08
1.88035e-08
1.66391e-08
-1.81745e-08
-1.7268e-08
1.62654e-08
1.59102e-08
-1.56492e-08
-1.65264e-08
1.38079e-08
1.47786e-08
-1.32206e-08
-1.5366e-08
1.14786e-08
1.34612e-08
-1.09259e-08
-1.40139e-08
9.29218e-09
1.21181e-08
-8.77486e-09
-1.26355e-08
7.24658e-09
1.08838e-08
-6.76304e-09
-1.13673e-08
5.33621e-09
9.80475e-09
-4.88488e-09
-1.02561e-08
3.55357e-09
8.8936e-09
-3.132e-09
-9.31517e-09
1.8893e-09
8.09044e-09
-1.49686e-09
-8.48289e-09
2.69461e-09
2.69597e-08
-2.51867e-08
-4.46756e-09
-1.71364e-10
7.98981e-08
3.01972e-09
-8.27464e-08
-1.42919e-08
1.05065e-07
1.8273e-08
-1.09046e-07
-2.9964e-08
9.29398e-08
3.35847e-08
-9.65606e-08
-4.31123e-08
6.03191e-08
4.5392e-08
-6.25988e-08
-5.06599e-08
3.88521e-08
5.22038e-08
-4.0396e-08
-5.68083e-08
2.78502e-08
5.83984e-08
-2.94403e-08
-6.18801e-08
-1.73101e-08
6.19918e-08
1.71985e-08
-5.7843e-08
-8.9187e-08
5.47322e-08
9.22977e-08
-4.15768e-08
-1.27124e-07
3.67056e-08
1.31995e-07
-2.21575e-08
-1.18767e-07
1.77281e-08
1.23196e-07
-5.76618e-09
-9.2403e-08
2.408e-09
9.57611e-08
6.27854e-09
-6.54568e-08
-8.67387e-09
6.78521e-08
1.49193e-08
-4.35498e-08
-1.6664e-08
4.52945e-08
2.11879e-08
-2.58659e-08
-2.24106e-08
2.70885e-08
2.53535e-08
-1.11483e-08
-2.60568e-08
1.18516e-08
2.74328e-08
7.30162e-10
-2.76427e-08
-5.20316e-10
2.76399e-08
9.40535e-09
-2.7456e-08
-9.58921e-09
2.64628e-08
1.49358e-08
-2.60244e-08
-1.53741e-08
2.4439e-08
1.79632e-08
-2.38583e-08
-1.85439e-08
2.19631e-08
1.91976e-08
-2.13156e-08
-1.98452e-08
1.92991e-08
1.92047e-08
-1.86349e-08
-1.98689e-08
1.66226e-08
1.84204e-08
-1.59743e-08
-1.90688e-08
1.40428e-08
1.71648e-08
-1.34291e-08
-1.77784e-08
1.16196e-08
1.56963e-08
-1.10497e-08
-1.62662e-08
9.38052e-09
1.4196e-08
-8.85757e-09
-1.4719e-08
7.32991e-09
1.28117e-08
-6.852e-09
-1.32896e-08
5.45556e-09
1.15945e-08
-5.01729e-09
-1.20328e-08
3.72938e-09
1.05637e-08
-3.32161e-09
-1.09715e-08
2.11335e-09
9.65217e-09
-1.72858e-09
-1.00369e-08
3.08419e-09
3.4627e-08
-3.26189e-08
-5.09232e-09
1.38244e-10
9.13161e-08
2.69378e-09
-9.41481e-08
-1.41709e-08
1.21052e-07
1.81933e-08
-1.25075e-07
-3.00335e-08
1.0752e-07
3.37216e-08
-1.11209e-07
-4.34311e-08
6.93914e-08
4.56779e-08
-7.16381e-08
-5.07574e-08
4.49931e-08
5.22761e-08
-4.65119e-08
-5.70048e-08
3.44519e-08
5.87587e-08
-3.62057e-08
-6.30206e-08
-1.64983e-08
6.33895e-08
1.61294e-08
-5.96319e-08
-1.01774e-07
5.64243e-08
1.04982e-07
-4.2404e-08
-1.47055e-07
3.72246e-08
1.52234e-07
-2.19292e-08
-1.36757e-07
1.73134e-08
1.41372e-07
-4.96863e-09
-1.05935e-07
1.54391e-09
1.0936e-07
7.22471e-09
-7.50481e-08
-9.62475e-09
7.74481e-08
1.58856e-08
-5.05506e-08
-1.7645e-08
5.231e-08
2.22502e-08
-3.08057e-08
-2.35079e-08
3.20634e-08
2.6561e-08
-1.40045e-08
-2.72955e-08
1.47391e-08
2.87281e-08
-1.09658e-10
-2.89392e-08
3.20716e-10
2.88841e-08
1.01866e-08
-2.86683e-08
-1.04023e-08
2.75549e-08
1.67511e-08
-2.70737e-08
-1.72324e-08
2.53558e-08
2.03493e-08
-2.47316e-08
-2.09734e-08
2.27032e-08
2.18519e-08
-2.20116e-08
-2.25434e-08
1.98612e-08
2.19245e-08
-1.91536e-08
-2.26321e-08
1.70118e-08
2.10727e-08
-1.63227e-08
-2.17618e-08
1.42755e-08
1.96683e-08
-1.36277e-08
-2.03161e-08
1.17295e-08
1.80081e-08
-1.11367e-08
-1.86009e-08
9.42082e-09
1.62975e-08
-8.8908e-09
-1.68275e-08
7.36894e-09
1.47081e-08
-6.90193e-09
-1.51751e-08
5.56377e-09
1.33128e-08
-5.15154e-09
-1.3725e-08
3.95572e-09
1.21545e-08
-3.57941e-09
-1.25308e-08
2.45697e-09
1.1165e-08
-2.09365e-09
-1.15283e-08
3.55066e-09
4.33394e-08
-4.10541e-08
-5.83602e-09
4.67349e-10
1.02593e-07
2.33321e-09
-1.05394e-07
-1.40339e-08
1.37204e-07
1.80973e-08
-1.41267e-07
-3.01109e-08
1.22389e-07
3.38797e-08
-1.26158e-07
-4.38153e-08
7.83177e-08
4.60194e-08
-8.05218e-08
-5.08625e-08
5.10181e-08
5.23453e-08
-5.25009e-08
-5.71927e-08
4.17269e-08
5.91213e-08
-4.36555e-08
-6.42988e-08
-1.45489e-08
6.50021e-08
1.38456e-08
-6.1747e-08
-1.14751e-07
5.84429e-08
1.18055e-07
-4.3347e-08
-1.68302e-07
3.78015e-08
1.73848e-07
-2.16466e-08
-1.55532e-07
1.68168e-08
1.60362e-07
-4.04038e-09
-1.19737e-07
5.46431e-10
1.23231e-07
8.28478e-09
-8.46439e-08
-1.06793e-08
8.70384e-08
1.6935e-08
-5.76107e-08
-1.87095e-08
5.93852e-08
2.34195e-08
-3.59037e-08
-2.47249e-08
3.7209e-08
2.79306e-08
-1.70059e-08
-2.87106e-08
1.77858e-08
3.02348e-08
-9.61912e-10
-3.04527e-08
1.17972e-09
3.0338e-08
1.11066e-08
-3.00821e-08
-1.13626e-08
2.88195e-08
1.87499e-08
-2.82873e-08
-1.92822e-08
2.64146e-08
2.29183e-08
-2.57404e-08
-2.35925e-08
2.35592e-08
2.46916e-08
-2.28174e-08
-2.54334e-08
2.05129e-08
2.48283e-08
-1.97548e-08
-2.55864e-08
1.74604e-08
2.38994e-08
-1.67227e-08
-2.46371e-08
1.45346e-08
2.23206e-08
-1.38441e-08
-2.30112e-08
1.18303e-08
2.0423e-08
-1.1206e-08
-2.10474e-08
9.41798e-09
1.84352e-08
-8.87376e-09
-1.89794e-08
7.34289e-09
1.65593e-08
-6.88524e-09
-1.70169e-08
5.61574e-09
1.49083e-08
-5.23879e-09
-1.52853e-08
4.18306e-09
1.35842e-08
-3.86007e-09
-1.39072e-08
2.89848e-09
1.25599e-08
-2.5787e-09
-1.28797e-08
4.10432e-09
5.32742e-08
-5.06656e-08
-6.71293e-09
8.32608e-10
1.13753e-07
1.93976e-09
-1.16526e-07
-1.38757e-08
1.53514e-07
1.79756e-08
-1.57614e-07
-3.0184e-08
1.37601e-07
3.40466e-08
-1.41463e-07
-4.42581e-08
8.70547e-08
4.64064e-08
-8.92031e-08
-5.09541e-08
5.6878e-08
5.23859e-08
-5.83099e-08
-5.73341e-08
4.9708e-08
5.94407e-08
-5.18146e-08
-6.5672e-08
-1.11156e-08
6.68134e-08
9.9741e-09
-6.42013e-08
-1.28094e-07
6.08188e-08
1.31477e-07
-4.43824e-08
-1.91106e-07
3.84087e-08
1.97079e-07
-2.12874e-08
-1.75205e-07
1.62147e-08
1.80278e-07
-2.95877e-09
-1.33819e-07
-6.06501e-10
1.37384e-07
9.46463e-09
-9.4195e-08
-1.18376e-08
9.65679e-08
1.80541e-08
-6.47293e-08
-1.98421e-08
6.65173e-08
2.46825e-08
-4.1213e-08
-2.60499e-08
4.25804e-08
2.94575e-08
-2.02141e-08
-3.03007e-08
2.10573e-08
3.19656e-08
-1.85252e-09
-3.21985e-08
2.08543e-09
3.20126e-08
1.22053e-08
-3.17034e-08
-1.25145e-08
3.02514e-08
2.09669e-08
-2.96583e-08
-2.15601e-08
2.76108e-08
2.56967e-08
-2.68813e-08
-2.64263e-08
2.45309e-08
2.77401e-08
-2.37335e-08
-2.85375e-08
2.12565e-08
2.7945e-08
-2.04406e-08
-2.87609e-08
1.7971e-08
2.69326e-08
-1.71764e-08
-2.77272e-08
1.48184e-08
2.51592e-08
-1.40744e-08
-2.59032e-08
1.19079e-08
2.29835e-08
-1.12379e-08
-2.36535e-08
9.32883e-09
2.06529e-08
-8.75192e-09
-2.12299e-08
7.14548e-09
1.84005e-08
-6.67129e-09
-1.88747e-08
5.37621e-09
1.63923e-08
-4.99946e-09
-1.67691e-08
3.97705e-09
1.4813e-08
-3.67917e-09
-1.51109e-08
2.84942e-09
1.3754e-08
-2.58743e-09
-1.4016e-08
4.75775e-09
6.46276e-08
-6.16448e-08
-7.74053e-09
1.22147e-09
1.24798e-07
1.51989e-09
-1.27539e-07
-1.37014e-08
1.69962e-07
1.78314e-08
-1.74092e-07
-3.02621e-08
1.53211e-07
3.42336e-08
-1.57182e-07
-4.4787e-08
9.55472e-08
4.68641e-08
-9.76243e-08
-5.10477e-08
6.25076e-08
5.24096e-08
-6.38695e-08
-5.74256e-08
5.84037e-08
5.97143e-08
-6.06924e-08
-6.71342e-08
-5.74344e-09
6.88366e-08
4.04105e-09
-6.70535e-08
-1.41689e-07
6.36455e-08
1.45097e-07
-4.55098e-08
-2.15725e-07
3.90393e-08
2.22195e-07
-2.0844e-08
-1.95902e-07
1.54933e-08
2.01253e-07
-1.70156e-09
-1.48186e-07
-1.93319e-09
1.51821e-07
1.07747e-08
-1.0363e-07
-1.31047e-08
1.0596e-07
1.92353e-08
-7.18991e-08
-2.10342e-08
7.3698e-08
2.60382e-08
-4.67971e-08
-2.74861e-08
4.8245e-08
3.11535e-08
-2.37081e-08
-3.20829e-08
2.46376e-08
3.39619e-08
-2.82229e-09
-3.4224e-08
3.08438e-09
3.39477e-08
1.35455e-08
-3.35635e-08
-1.39297e-08
3.18604e-08
2.34441e-08
-3.11955e-08
-2.4109e-08
2.89574e-08
2.8702e-08
-2.81692e-08
-2.94902e-08
2.56374e-08
3.10216e-08
-2.47782e-08
-3.18808e-08
2.21073e-08
3.13022e-08
-2.12273e-08
-3.21822e-08
1.85571e-08
3.02075e-08
-1.76961e-08
-3.10685e-08
1.5135e-08
2.82308e-08
-1.43246e-08
-2.90411e-08
1.19574e-08
2.57541e-08
-1.12229e-08
-2.64886e-08
9.12085e-09
2.30444e-08
-8.482e-09
-2.36833e-08
6.68643e-09
2.03815e-08
-6.14889e-09
-2.0919e-08
4.64994e-09
1.79956e-08
-4.20198e-09
-1.84435e-08
2.94778e-09
1.60981e-08
-2.56777e-09
-1.64781e-08
1.44666e-09
1.48159e-08
-1.0691e-09
-1.51935e-08
5.52613e-09
7.76187e-08
-7.42046e-08
-8.9402e-09
1.62303e-09
1.35711e-07
1.08211e-09
-1.38417e-07
-1.35094e-08
1.86515e-07
1.76579e-08
-1.90663e-07
-3.03398e-08
1.69278e-07
3.44347e-08
-1.73373e-07
-4.54117e-08
1.03727e-07
4.73979e-08
-1.05713e-07
-5.11347e-08
6.78222e-08
5.24018e-08
-6.90893e-08
-5.74152e-08
6.78803e-08
5.99416e-08
-7.04068e-08
-6.86627e-08
1.95496e-09
7.09144e-08
-4.20666e-09
-7.02858e-08
-1.55214e-07
6.69951e-08
1.58505e-07
-4.66938e-08
-2.42434e-07
3.96594e-08
2.49469e-07
-2.02978e-08
-2.17771e-07
1.46272e-08
2.23442e-07
-2.37049e-10
-1.62828e-07
-3.46375e-09
1.66529e-07
1.22225e-08
-1.12853e-07
-1.44797e-08
1.1511e-07
2.04552e-08
-7.91055e-08
-2.22595e-08
8.09098e-08
2.74709e-08
-5.27365e-08
-2.90227e-08
5.42884e-08
3.30113e-08
-2.7589e-08
-3.40561e-08
2.86338e-08
3.62626e-08
-3.94182e-09
-3.65791e-08
4.25834e-09
3.61809e-08
1.52382e-08
-3.56819e-08
-1.57372e-08
3.36326e-08
2.62235e-08
-3.28864e-08
-2.69697e-08
3.04542e-08
3.19447e-08
-2.96064e-08
-3.27925e-08
2.68842e-08
3.45564e-08
-2.59589e-08
-3.54817e-08
2.30769e-08
3.4928e-08
-2.21251e-08
-3.58798e-08
1.92296e-08
3.37625e-08
-1.82929e-08
-3.46991e-08
1.54948e-08
3.1588e-08
-1.46047e-08
-3.24781e-08
1.19866e-08
2.88133e-08
-1.11674e-08
-2.96325e-08
8.79897e-09
2.57247e-08
-8.07103e-09
-2.64526e-08
6.00481e-09
2.26504e-08
-5.38223e-09
-2.3273e-08
3.65068e-09
1.98811e-08
-3.1387e-09
-2.03931e-08
1.72438e-09
1.77258e-08
-1.29885e-09
-1.81514e-08
5.73668e-11
1.67157e-08
3.31567e-10
-1.71047e-08
6.42847e-09
9.24944e-08
-8.85838e-08
-1.03391e-08
2.02466e-09
1.46473e-07
6.4048e-10
-1.49138e-07
-1.32996e-08
2.03117e-07
1.74492e-08
-2.07267e-07
-3.04146e-08
1.85859e-07
3.46461e-08
-1.90091e-07
-4.61515e-08
1.11507e-07
4.80223e-08
-1.13378e-07
-5.12123e-08
7.27125e-08
5.23531e-08
-7.38533e-08
-5.72465e-08
7.85164e-08
6.01414e-08
-8.14113e-08
-7.03747e-08
1.12948e-08
7.27472e-08
-1.36672e-08
-7.36159e-08
-1.6786e-07
7.07337e-08
1.70742e-07
-4.78754e-08
-2.71483e-07
4.02296e-08
2.79129e-07
-1.96344e-08
-2.40997e-07
1.35886e-08
2.47043e-07
1.47865e-09
-1.77702e-07
-5.23111e-09
1.81454e-07
1.3818e-08
-1.21725e-07
-1.59613e-08
1.23869e-07
2.16824e-08
-8.63202e-08
-2.34822e-08
8.81199e-08
2.89647e-08
-5.91365e-08
-3.06528e-08
6.08246e-08
3.50153e-08
-3.19827e-08
-3.62109e-08
3.31783e-08
3.8927e-08
-5.34178e-09
-3.93466e-08
5.76139e-09
3.87798e-08
1.74887e-08
-3.80896e-08
-1.81789e-08
3.55309e-08
2.9334e-08
-3.47033e-08
-3.01616e-08
3.21059e-08
3.54218e-08
-3.12021e-08
-3.63255e-08
2.82874e-08
3.83627e-08
-2.72909e-08
-3.93592e-08
2.41792e-08
3.88509e-08
-2.3149e-08
-3.98811e-08
2.0006e-08
3.76327e-08
-1.89855e-08
-3.86532e-08
1.59207e-08
3.52824e-08
-1.49394e-08
-3.62637e-08
1.20267e-08
3.22403e-08
-1.11043e-08
-3.31627e-08
8.39318e-09
2.88105e-08
-7.54217e-09
-2.96615e-08
5.06066e-09
2.53396e-08
-4.28832e-09
-2.61119e-08
2.05297e-09
2.21488e-08
-1.35948e-09
-2.28423e-08
-6.53298e-10
1.96239e-08
1.28005e-09
-2.02507e-08
-3.13407e-09
1.81369e-08
3.63515e-09
-1.86363e-08
7.48523e-09
1.09537e-07
-1.05056e-07
-1.19664e-08
2.41073e-09
1.57077e-07
2.20357e-10
-1.59708e-07
-1.3071e-08
2.1969e-07
1.71968e-08
-2.23816e-07
-3.04834e-08
2.03003e-07
3.48614e-08
-2.07381e-07
-4.70314e-08
1.18783e-07
4.87567e-08
-1.20508e-07
-5.12771e-08
7.70401e-08
5.22517e-08
-7.80147e-08
-5.69906e-08
9.0414e-08
5.99372e-08
-9.33607e-08
-7.30282e-08
2.1094e-08
7.59255e-08
-2.39914e-08
-7.75174e-08
-1.78806e-07
7.48033e-08
1.8152e-07
-4.89194e-08
-3.02967e-07
4.06898e-08
3.11197e-07
-1.88428e-08
-2.65832e-07
1.23435e-08
2.72331e-07
3.47665e-09
-1.92788e-07
-7.27688e-09
1.96588e-07
1.55735e-08
-1.30066e-07
-1.75485e-08
1.32041e-07
2.28719e-08
-9.34937e-08
-2.46498e-08
9.52715e-08
3.05026e-08
-6.61472e-08
-3.23755e-08
6.80202e-08
3.71283e-08
-3.7037e-08
-3.85122e-08
3.84209e-08
4.20353e-08
-7.27901e-09
-4.26559e-08
7.89954e-09
4.1866e-08
2.07029e-08
-4.08266e-08
-2.17423e-08
3.74516e-08
3.27312e-08
-3.65843e-08
-3.35985e-08
3.39314e-08
3.91159e-08
-3.29744e-08
-4.00729e-08
2.98698e-08
4.24652e-08
-2.87925e-08
-4.35425e-08
2.54307e-08
4.30967e-08
-2.4316e-08
-4.42114e-08
2.09074e-08
4.18483e-08
-1.9797e-08
-4.29587e-08
1.64464e-08
3.93535e-08
-1.5367e-08
-4.04329e-08
1.21375e-08
3.60964e-08
-1.11045e-08
-3.71293e-08
8.02561e-09
3.24206e-08
-7.04109e-09
-3.34051e-08
4.09518e-09
2.87041e-08
-3.14876e-09
-2.96505e-08
3.09747e-10
2.52799e-08
6.0211e-10
-2.61918e-08
-3.30467e-09
2.25542e-08
4.14574e-09
-2.33953e-08
-6.4569e-09
2.03627e-08
7.26337e-09
-2.11691e-08
8.72221e-09
1.29072e-07
-1.23935e-07
-1.38591e-08
2.76399e-09
1.67454e-07
-3.42645e-10
-1.69875e-07
-1.2818e-08
2.36123e-07
1.68909e-08
-2.40196e-07
-3.05461e-08
2.20741e-07
3.50741e-08
-2.25269e-07
-4.80912e-08
1.25423e-07
4.96334e-08
-1.26965e-07
-5.13283e-08
8.06366e-08
5.20927e-08
-8.14009e-08
-5.66616e-08
1.0133e-07
5.89989e-08
-1.03667e-07
-7.60521e-08
3.58657e-08
8.14056e-08
-4.12192e-08
-8.6444e-08
-1.91424e-07
8.21194e-08
1.95748e-07
-4.96218e-08
-3.36731e-07
4.07535e-08
3.45599e-07
-1.79128e-08
-2.92639e-07
1.08482e-08
2.99703e-07
5.82793e-09
-2.08039e-07
-9.65628e-09
2.11867e-07
1.75073e-08
-1.37632e-07
-1.92434e-08
1.39368e-07
2.39614e-08
-1.00538e-07
-2.56861e-08
1.02263e-07
3.20715e-08
-7.40074e-08
-3.42142e-08
7.61501e-08
3.92823e-08
-4.28807e-08
-4.08688e-08
4.44672e-08
4.56915e-08
-1.02758e-08
-4.67127e-08
1.12971e-08
4.56601e-08
2.57725e-08
-4.38849e-08
-2.75477e-08
3.9066e-08
3.60404e-08
-3.84014e-08
-3.6705e-08
3.59999e-08
4.30472e-08
-3.4961e-08
-4.40862e-08
3.16634e-08
4.69176e-08
-3.04832e-08
-4.80978e-08
2.68498e-08
4.76887e-08
-2.56452e-08
-4.88934e-08
2.19591e-08
4.64292e-08
-2.07554e-08
-4.76329e-08
1.71088e-08
4.38216e-08
-1.59286e-08
-4.50017e-08
1.2383e-08
4.03873e-08
-1.12454e-08
-4.15249e-08
7.8517e-09
3.65199e-08
-6.76748e-09
-3.76042e-08
3.53328e-09
3.26529e-08
-2.49885e-09
-3.36873e-08
-5.85882e-10
2.90893e-08
1.56967e-09
-3.00731e-08
-4.47242e-09
2.6096e-08
5.38382e-09
-2.70074e-08
-8.01116e-09
2.36415e-08
8.81171e-09
-2.44421e-08
1.01738e-08
1.51475e-07
-1.45582e-07
-1.60661e-08
3.06178e-09
1.76683e-07
-9.47059e-10
-1.78798e-07
-1.25241e-08
2.52297e-07
1.65142e-08
-2.56288e-07
-3.05903e-08
2.39067e-07
3.52588e-08
-2.43735e-07
-4.93676e-08
1.31261e-07
5.06789e-08
-1.32572e-07
-5.13415e-08
8.33268e-08
5.185e-08
-8.38353e-08
-5.58702e-08
1.10533e-07
5.84189e-08
-1.13081e-07
-7.77281e-08
6.09961e-08
8.51352e-08
-6.84032e-08
-1.00523e-07
-2.1316e-07
9.29593e-08
2.20724e-07
-5.00672e-08
-3.74383e-07
3.92625e-08
3.85188e-07
-1.67647e-08
-3.21882e-07
9.0302e-09
3.29617e-07
8.60785e-09
-2.23356e-07
-1.24332e-08
2.27181e-07
1.96411e-08
-1.44113e-07
-2.10474e-08
1.45519e-07
2.4851e-08
-1.07296e-07
-2.64666e-08
1.08912e-07
3.36429e-08
-8.31643e-08
-3.62265e-08
8.57479e-08
4.12784e-08
-4.94775e-08
-4.30136e-08
5.12127e-08
4.99648e-08
-1.53836e-08
-5.17721e-08
1.7191e-08
5.01815e-08
3.51029e-08
-4.66037e-08
-3.86807e-08
3.9778e-08
3.7536e-08
-4.0079e-08
-3.7235e-08
3.84902e-08
4.74497e-08
-3.72535e-08
-4.86864e-08
3.36893e-08
5.18348e-08
-3.2375e-08
-5.31492e-08
2.8441e-08
5.26466e-08
-2.71429e-08
-5.39447e-08
2.31765e-08
5.13836e-08
-2.18798e-08
-5.26803e-08
1.79346e-08
4.86954e-08
-1.66512e-08
-4.99788e-08
1.27819e-08
4.50912e-08
-1.154e-08
-4.63331e-08
7.85587e-09
4.09773e-08
-6.69123e-09
-4.2142e-08
3.2761e-09
3.68459e-08
-2.20713e-09
-3.79149e-08
-8.99657e-10
3.30002e-08
1.86349e-09
-3.3964e-08
-4.63357e-09
2.96575e-08
5.48246e-09
-3.05064e-08
-7.88414e-09
2.67484e-08
8.60676e-09
-2.74711e-08
1.18724e-08
1.77173e-07
-1.70413e-07
-1.86319e-08
3.27155e-09
1.84635e-07
-1.50898e-09
-1.86398e-07
-1.21741e-08
2.68105e-07
1.60588e-08
-2.71989e-07
-3.06091e-08
2.57921e-07
3.53891e-08
-2.62701e-07
-5.09356e-08
1.3609e-07
5.19545e-08
-1.37109e-07
-5.13028e-08
8.48849e-08
5.14685e-08
-8.50506e-08
-5.47183e-08
1.22491e-07
5.85815e-08
-1.26355e-07
-7.79436e-08
9.26464e-08
8.72978e-08
-1.02001e-07
-1.13867e-07
-2.50008e-07
1.01738e-07
2.62137e-07
-5.05906e-08
-4.23156e-07
3.60058e-08
4.37741e-07
-1.5103e-08
-3.53851e-07
6.68967e-09
3.62264e-07
1.19076e-08
-2.38592e-07
-1.56827e-08
2.42367e-07
2.20188e-08
-1.4911e-07
-2.298e-08
1.50072e-07
2.54073e-08
-1.13483e-07
-2.68101e-08
1.14885e-07
3.51216e-08
-9.45174e-08
-3.84629e-08
9.78587e-08
4.25352e-08
-5.65447e-08
-4.43778e-08
5.83874e-08
5.47677e-08
-2.44437e-08
-5.79067e-08
2.75827e-08
5.52327e-08
5.34356e-08
-4.91105e-08
-5.95578e-08
4.17516e-08
3.46211e-08
-4.28519e-08
-3.35208e-08
4.14108e-08
5.27915e-08
-3.9959e-08
-5.42433e-08
3.5886e-08
5.72639e-08
-3.4469e-08
-5.86809e-08
3.01978e-08
5.79787e-08
-2.88068e-08
-5.93697e-08
2.45699e-08
5.67035e-08
-2.31865e-08
-5.80868e-08
1.89487e-08
5.39898e-08
-1.75568e-08
-5.53817e-08
1.33264e-08
5.02317e-08
-1.19645e-08
-5.15936e-08
7.9541e-09
4.57613e-08
-6.70602e-09
-4.70094e-08
3.13783e-09
4.11565e-08
-2.05585e-09
-4.22385e-08
-9.72913e-10
3.67893e-08
1.87384e-09
-3.76902e-08
-4.34816e-09
3.28979e-08
5.06989e-09
-3.36196e-08
-7.00797e-09
2.94164e-08
7.55774e-09
-2.99662e-08
1.38666e-08
2.06664e-07
-1.98907e-07
-2.16243e-08
3.35474e-09
1.91061e-07
-2.02974e-09
-1.92386e-07
-1.1755e-08
2.8347e-07
1.55213e-08
-2.87236e-07
-3.05997e-08
2.77147e-07
3.54337e-08
-2.81981e-07
-5.29411e-08
1.39622e-07
5.35687e-08
-1.40249e-07
-5.11882e-08
8.49068e-08
5.093e-08
-8.46486e-08
-5.36412e-08
1.40685e-07
5.9332e-08
-1.46376e-07
-7.16277e-08
1.37323e-07
8.61926e-08
-1.51888e-07
-1.23021e-07
-3.04627e-07
1.07828e-07
3.1982e-07
-4.9068e-08
-4.84521e-07
3.34346e-08
5.00154e-07
-1.27108e-08
-3.88592e-07
3.62545e-09
3.97678e-07
1.58209e-08
-2.53532e-07
-1.94866e-08
2.57198e-07
2.47228e-08
-1.5212e-07
-2.50944e-08
1.52492e-07
2.54545e-08
-1.18558e-07
-2.64411e-08
1.19545e-07
3.57162e-08
-1.09149e-07
-3.96379e-08
1.1307e-07
4.17385e-08
-6.48325e-08
-4.46087e-08
6.77028e-08
5.9531e-08
-3.94026e-08
-6.42092e-08
4.40808e-08
5.99577e-08
8.02829e-08
-5.27834e-08
-8.74571e-08
4.95005e-08
3.18853e-08
-4.89325e-08
-3.24533e-08
4.42626e-08
5.84799e-08
-4.29352e-08
-5.98073e-08
3.82341e-08
6.30798e-08
-3.67045e-08
-6.46093e-08
3.20518e-08
6.36852e-08
-3.0562e-08
-6.51749e-08
2.60797e-08
6.23479e-08
-2.4629e-08
-6.37985e-08
2.01426e-08
5.97232e-08
-1.86438e-08
-6.1222e-08
1.40112e-08
5.58848e-08
-1.25096e-08
-5.73864e-08
8.15845e-09
5.08567e-08
-6.85113e-09
-5.2164e-08
3.31952e-09
4.53981e-08
-2.3228e-09
-4.63948e-08
-2.48636e-10
4.01367e-08
9.46378e-10
-4.08344e-08
-2.69162e-09
3.54272e-08
3.1522e-09
-3.58878e-08
-4.28066e-09
3.12353e-08
4.57298e-09
-3.15276e-08
1.621e-08
2.4052e-07
-2.31612e-07
-2.51182e-08
3.26316e-09
1.95569e-07
-2.49464e-09
-1.96338e-07
-1.1244e-08
2.98348e-07
1.48846e-08
-3.01989e-07
-3.05426e-08
2.96447e-07
3.53205e-08
-3.01225e-07
-5.55062e-08
1.41291e-07
5.54829e-08
-1.41268e-07
-5.08693e-08
8.34011e-08
5.03556e-08
-8.28875e-08
-5.22794e-08
1.63896e-07
5.71462e-08
-1.68762e-07
-5.95569e-08
2.037e-07
7.85142e-08
-2.22657e-07
-1.10297e-07
-3.55703e-07
1.06096e-07
3.59903e-07
-4.60327e-08
-5.41315e-07
3.43478e-08
5.53e-07
-9.59966e-09
-4.26417e-07
-2.00374e-10
4.36217e-07
2.04026e-08
-2.67949e-07
-2.39201e-08
2.71466e-07
2.78736e-08
-1.52525e-07
-2.74842e-08
1.52135e-07
2.47435e-08
-1.21418e-07
-2.48789e-08
1.21553e-07
3.14819e-08
-1.22391e-07
-3.28033e-08
1.23713e-07
3.69579e-08
-8.10773e-08
-4.35702e-08
8.76896e-08
6.25559e-08
-5.93709e-08
-6.77138e-08
6.45288e-08
5.99753e-08
1.05275e-07