/*--------------------------------*- C++ -*----------------------------------*\
| =========                 |                                                 |
| \\      /  F ield         | OpenFOAM: The Open Source CFD Toolbox           |
|  \\    /   O peration     | Version:  2.4.0                                 |
|   \\  /    A nd           | Web:      www.OpenFOAM.org                      |
|    \\/     M anipulation  |                                                 |
\*---------------------------------------------------------------------------*/
FoamFile
{
    version     2.0;
    format      ascii;
    class       volScalarField;
    location    "0.122";
    object      p;
}
// * * * * * * * * * * * * * * * * * * * * * * * * * * * * * * * * * * * * * //

dimensions      [1 -1 -2 0 0 0 0];

internalField   nonuniform List<scalar> 
3600
(
96.0618
96.0591
96.0529
96.0616
96.0503
96.0691
96.0488
96.0818
96.049
96.0996
96.0522
96.1228
96.0534
96.1468
96.0486
96.1663
96.0375
96.1697
96.0243
96.1312
96.0206
96.0449
95.8459
95.8539
95.9032
95.9983
96.0902
96.1052
96.1181
96.1033
92.7983
92.7999
92.793
92.8017
92.7896
92.8086
92.7883
92.8212
92.7885
92.8388
92.7924
92.8624
92.7938
92.8867
92.7889
92.9066
92.7777
92.9104
92.7644
92.8717
92.7618
92.7861
92.5854
92.5929
92.6427
92.7384
92.8306
92.8455
92.8583
92.8435
89.5306
89.5344
89.529
89.5382
89.5264
89.5458
89.5257
89.5589
89.5271
89.5777
89.5314
89.6022
89.5335
89.6269
89.5288
89.6472
89.5177
89.6513
89.5046
89.6124
89.5042
89.5279
89.324
89.3306
89.3817
89.4786
89.5713
89.586
89.5985
89.5837
86.2666
86.2693
86.2623
86.2742
86.2607
86.2823
86.2608
86.2958
86.2639
86.316
86.2699
86.3416
86.273
86.3672
86.2685
86.3882
86.2576
86.3929
86.2447
86.3533
86.2479
86.2706
86.0618
86.067
86.1202
86.219
86.3124
86.3267
86.3389
86.3239
83.0026
83.0058
82.9988
83.0104
82.9956
83.0198
82.9964
83.0333
83.0007
83.0546
83.0078
83.0816
83.0121
83.1078
83.0081
83.1294
82.9974
83.1349
82.9847
83.0944
82.993
83.0139
82.7985
82.8021
82.8581
82.9594
83.0538
83.0675
83.0793
83.0641
79.7315
79.7356
79.7272
79.7419
79.7259
79.7529
79.7279
79.7679
79.7346
79.7913
79.745
79.8207
79.7511
79.8483
79.7474
79.8711
79.7372
79.8775
79.7248
79.8356
79.7394
79.7581
79.5343
79.5357
79.5955
79.7
79.7955
79.8085
79.8197
79.8043
76.466
76.4706
76.4622
76.4767
76.4591
76.4884
76.4617
76.5053
76.4692
76.53
76.4819
76.5613
76.4898
76.5895
76.4865
76.613
76.4767
76.6206
76.4646
76.577
76.4874
76.5033
76.2691
76.2679
76.3325
76.4407
76.5377
76.5498
76.5603
76.5446
73.1887
73.1945
73.184
73.2027
73.1837
73.2163
73.1878
73.236
73.1994
73.2639
73.2178
73.2994
73.2283
73.3302
73.2254
73.3555
73.2165
73.3644
73.2043
73.3184
73.2371
73.2494
73.0028
72.9985
73.0689
73.1816
73.2802
73.2912
73.3009
73.2848
69.921
69.9283
69.9177
69.9364
69.9145
69.9511
69.9188
69.9739
69.9326
70.0043
69.9536
70.0421
69.9668
70.0721
69.9639
70.0981
69.9554
70.1086
69.9435
70.0597
69.9885
69.9967
69.7353
69.7274
69.8048
69.9228
70.023
70.0328
70.0415
70.0251
66.6347
66.6444
66.6302
66.6549
66.6305
66.6712
66.6373
66.6972
66.6584
66.7329
66.6878
66.7778
66.7052
66.8126
66.7025
66.8413
66.6954
66.8539
66.6828
66.801
66.742
66.7454
66.4665
66.4546
66.5401
66.6643
66.7663
66.7746
66.7822
66.7654
63.367
63.3775
63.3627
63.3889
63.3601
63.4072
63.3678
63.438
63.3904
63.4795
63.423
63.5255
63.4437
63.5561
63.4402
63.5848
63.4337
63.5995
63.4208
63.5419
63.4976
63.4954
63.1964
63.1797
63.2748
63.406
63.5099
63.5166
63.523
63.5057
60.0685
60.0831
60.0622
60.0976
60.0639
60.114
60.0759
60.147
60.1103
60.1977
60.1559
60.2568
60.1825
60.2956
60.1782
60.3288
60.1737
60.3465
60.1593
60.2826
60.2565
60.2472
59.9247
59.9028
60.009
60.148
60.254
60.2588
60.2638
60.246
56.7988
56.8151
56.7926
56.8322
56.7913
56.855
56.8057
56.8971
56.8409
56.9549
56.8929
57.0128
56.9217
57.0419
56.9148
57.0733
56.9116
57.0941
56.8952
57.0225
57.0177
57.0009
56.6514
56.6235
56.7426
56.8905
56.9986
57.0013
57.0047
56.9864
53.4847
53.509
53.4727
53.5285
53.4802
53.5401
53.5002
53.5818
53.555
53.6535
53.6262
53.7382
53.6617
53.7792
53.6521
53.8183
53.6517
53.8434
53.6325
53.7619
53.7823
53.757
53.3763
53.3418
53.4755
53.6334
53.7437
53.7439
53.7456
53.7267
50.2071
50.2371
50.2007
50.2737
50.2067
50.2931
50.2286
50.3499
50.2855
50.43
50.3648
50.5066
50.4026
50.5303
50.3868
50.5638
50.3889
50.5934
50.3651
50.4996
50.5496
50.5157
50.0992
50.0572
50.2078
50.3767
50.4893
50.4867
50.4866
50.467
46.8656
46.9144
46.8504
46.959
46.8791
46.9411
46.9062
46.9968
46.9923
47.1052
47.0994
47.2265
47.1452
47.2628
47.1228
47.3101
47.1296
47.3458
47.1002
47.2366
47.3219
47.2776
46.8198
46.7696
46.9394
47.1206
47.2355
47.2298
47.2276
47.2074
43.6904
43.6398
43.551
43.731
43.6007
43.714
43.6255
43.7938
43.7193
43.9048
43.8416
44.0131
43.8892
44.0198
43.8545
44.0566
43.8659
44.0993
43.8286
43.9702
44.0978
44.0428
43.538
43.4785
43.6703
43.8651
43.9824
43.9731
43.9686
43.9477
42.4765
41.86
40.1727
40.3944
40.2612
40.292
40.2791
40.3883
40.4195
40.555
40.5822
40.7314
40.6361
40.7496
40.5875
40.8045
40.6078
40.8559
40.5593
40.7028
40.8806
40.8121
40.2534
40.1837
40.4005
40.6104
40.7299
40.7166
40.7096
40.688
38.7186
38.9092
37.0392
37.2178
36.9541
37.0938
36.9612
37.2269
37.1397
37.3724
37.3309
37.5436
37.3857
37.5086
37.314
37.5515
37.3436
37.6143
37.2823
37.4308
37.667
37.586
36.9657
36.8845
37.13
37.3565
37.4781
37.4603
37.4507
37.4284
35.2703
35.4775
33.7348
33.7568
33.521
33.544
33.5558
33.7589
33.8299
34.0068
34.0856
34.268
34.1401
34.2364
34.0418
34.3022
34.0873
34.3768
34.0061
34.1584
34.4619
34.3652
33.6746
33.5813
33.8587
34.1036
34.2272
34.2042
34.1918
34.1687
32.1099
32.2831
30.5627
30.2482
29.9178
30.4525
30.1024
30.6603
30.5432
30.8319
30.8565
31.1267
30.8987
30.9943
30.7567
31.0512
30.8232
31.1422
30.7217
30.8776
31.2608
31.1507
30.3796
30.2717
30.5867
30.8517
30.9771
30.9484
30.9328
30.9089
28.4393
28.9872
26.9253
26.8175
26.4693
26.7918
26.6056
27.1349
27.2292
27.4632
27.6219
27.8165
27.6636
27.7177
27.478
27.8037
27.5701
27.9131
27.4355
27.5972
28.0719
27.9433
27.0805
26.9576
27.3139
27.6011
27.7279
27.6928
27.6739
27.6492
31.6421
25.6011
23.9528
24.6136
22.2093
23.9197
22.9404
24.1151
23.9372
24.2733
24.4423
24.7997
24.438
24.4686
24.1702
24.5558
24.3087
24.6883
24.1402
24.3025
24.887
24.7439
23.7767
23.6361
24.0401
24.3519
24.4797
24.4373
24.415
24.3895
27.2716
21.5955
19.0198
22.3787
19.2181
20.0286
19.4888
20.5991
20.6265
20.903
21.2098
21.5097
21.2143
21.1819
20.8748
21.3109
21.0603
21.4714
20.8401
21.0099
21.7201
21.5533
20.4674
20.3012
20.7662
21.1043
21.2326
21.1821
21.156
21.1297
24.5614
20.4959
12.4541
21.1953
14.3813
17.34
15.4162
17.7595
17.3015
17.6453
18.0907
18.5726
18.0152
17.9091
17.5358
18.0679
17.8067
18.2597
17.5294
17.695
18.5553
18.3741
17.1533
16.9798
17.4896
17.8576
17.9863
17.9271
17.897
17.8699
-76.818
31.4029
12.2408
21.1177
12.1162
12.7944
11.6957
14.4103
14.001
14.2342
14.9111
15.3956
14.7892
14.6025
14.2005
14.8251
14.5659
15.061
14.2103
14.3828
15.419
15.2031
13.8293
13.6063
14.2168
14.6161
14.7423
14.6725
14.6378
14.61
-94.0258
47.4996
-3.16123
23.4102
7.95417
8.92023
7.23625
11.6456
10.7086
10.7994
11.8825
12.597
11.6356
11.2635
10.7969
11.5948
11.3306
11.8698
10.8744
11.0414
12.2754
12.0504
10.5082
10.2847
10.9357
11.3699
11.4971
11.4172
11.3787
11.3502
49.3232
36.4145
17.5829
11.8076
8.04187
0.0129207
1.86425
8.75371
7.61001
7.21562
8.85244
9.67368
8.42613
7.90655
7.40519
8.3507
8.1068
8.70833
7.51872
7.69516
9.18605
8.90872
7.15998
6.8793
7.6644
8.13862
8.25843
8.16493
8.11933
8.09018
-0.541993
14.5118
8.99595
13.3364
5.0711
-9.69598
-4.32278
7.36831
4.58861
3.18566
5.9827
7.10517
5.39104
4.47589
3.91188
5.13586
4.90597
5.5385
4.15703
4.32662
6.05649
5.77033
3.83465
3.52638
4.3809
4.89107
5.01186
4.90752
4.86008
4.8303
41.2203
14.9945
21.9902
9.55791
8.91438
-18.6557
-10.8381
6.22626
2.74459
-0.573713
3.21721
4.68538
2.40785
1.20692
0.861036
2.08052
2.02167
2.60011
1.23256
1.3003
3.13562
2.82232
0.907172
0.605447
1.32481
1.73694
1.78675
1.65735
1.6003
1.57004
96.0981
96.0947
96.0917
96.0889
96.0862
96.0839
96.0817
96.0798
96.078
96.0765
96.0752
96.074
96.073
96.0721
96.0713
96.0706
96.0699
96.0695
96.0686
96.0686
96.0671
96.068
96.0652
96.0676
96.0632
96.0672
96.0616
96.0667
96.0621
96.065
92.8382
92.8349
92.8318
92.829
92.8263
92.824
92.8218
92.8199
92.8182
92.8167
92.8153
92.8142
92.8131
92.8122
92.8114
92.8108
92.81
92.8096
92.8087
92.8088
92.8072
92.8082
92.8054
92.8077
92.8033
92.8074
92.8017
92.8068
92.8022
92.8051
89.5784
89.575
89.572
89.5691
89.5665
89.5641
89.5619
89.56
89.5583
89.5568
89.5555
89.5543
89.5533
89.5524
89.5516
89.5509
89.5502
89.5498
89.5488
89.5489
89.5473
89.5483
89.5455
89.5479
89.5434
89.5475
89.5418
89.547
89.5423
89.5453
86.3185
86.3152
86.3121
86.3093
86.3066
86.3043
86.3021
86.3002
86.2984
86.2969
86.2956
86.2944
86.2934
86.2925
86.2917
86.291
86.2903
86.2899
86.289
86.2891
86.2875
86.2885
86.2856
86.288
86.2835
86.2877
86.2819
86.2871
86.2824
86.2855
83.0587
83.0553
83.0522
83.0494
83.0467
83.0443
83.0422
83.0403
83.0385
83.037
83.0357
83.0345
83.0335
83.0326
83.0318
83.0311
83.0304
83.03
83.0291
83.0292
83.0276
83.0286
83.0258
83.0281
83.0236
83.0278
83.022
83.0273
83.0224
83.0256
79.7988
79.7954
79.7923
79.7895
79.7868
79.7844
79.7823
79.7803
79.7786
79.7771
79.7758
79.7746
79.7736
79.7727
79.7719
79.7713
79.7706
79.7701
79.7693
79.7693
79.7678
79.7687
79.7659
79.7683
79.7637
79.7679
79.762
79.7675
79.7624
79.7658
76.539
76.5356
76.5325
76.5296
76.5269
76.5246
76.5224
76.5205
76.5188
76.5173
76.5159
76.5148
76.5138
76.5129
76.5121
76.5114
76.5107
76.5103
76.5094
76.5095
76.5079
76.5089
76.5061
76.5084
76.5039
76.5081
76.502
76.5078
76.5024
76.5061
73.2791
73.2757
73.2726
73.2697
73.267
73.2646
73.2625
73.2606
73.2588
73.2573
73.256
73.2549
73.2539
73.253
73.2522
73.2515
73.2508
73.2504
73.2496
73.2496
73.2481
73.249
73.2462
73.2486
73.244
73.2483
73.242
73.248
73.2423
73.2463
70.0193
70.0158
70.0127
70.0098
70.0071
70.0047
70.0025
70.0006
69.9989
69.9974
69.9961
69.995
69.994
69.9931
69.9923
69.9916
69.991
69.9905
69.9897
69.9897
69.9882
69.9891
69.9864
69.9887
69.984
69.9884
69.9819
69.9882
69.9821
69.9866
66.7595
66.7559
66.7528
66.7499
66.7472
66.7448
66.7426
66.7407
66.739
66.7375
66.7362
66.7351
66.7341
66.7332
66.7324
66.7318
66.7311
66.7307
66.7299
66.7299
66.7284
66.7293
66.7265
66.7289
66.7242
66.7286
66.7219
66.7285
66.722
66.7269
63.4996
63.496
63.4929
63.4899
63.4873
63.4849
63.4827
63.4808
63.4791
63.4776
63.4763
63.4752
63.4742
63.4733
63.4725
63.4719
63.4712
63.4708
63.47
63.47
63.4686
63.4694
63.4667
63.469
63.4642
63.4688
63.4618
63.4688
63.4618
63.4672
60.2398
60.2361
60.233
60.23
60.2273
60.2249
60.2227
60.2208
60.2191
60.2177
60.2164
60.2152
60.2143
60.2134
60.2126
60.212
60.2113
60.2109
60.2101
60.2101
60.2087
60.2095
60.2068
60.2091
60.2043
60.209
60.2016
60.2091
60.2015
60.2076
56.98
56.9763
56.9731
56.9701
56.9674
56.965
56.9628
56.9609
56.9592
56.9578
56.9565
56.9554
56.9544
56.9535
56.9528
56.9521
56.9515
56.9511
56.9503
56.9503
56.9489
56.9497
56.9471
56.9493
56.9444
56.9492
56.9415
56.9494
56.9411
56.9481
53.7201
53.7164
53.7131
53.7101
53.7074
53.705
53.7029
53.701
53.6993
53.6978
53.6965
53.6954
53.6944
53.6936
53.6929
53.6922
53.6916
53.6912
53.6904
53.6904
53.6891
53.6898
53.6872
53.6894
53.6845
53.6893
53.6813
53.6898
53.6807
53.6886
50.4602
50.4564
50.4532
50.4502
50.4474
50.445
50.4429
50.441
50.4393
50.4379
50.4366
50.4355
50.4345
50.4337
50.4329
50.4323
50.4317
50.4313
50.4306
50.4305
50.4293
50.4299
50.4274
50.4295
50.4246
50.4295
50.4211
50.4302
50.4201
50.4292
47.2004
47.1965
47.1933
47.1902
47.1875
47.1851
47.1829
47.1811
47.1794
47.1779
47.1767
47.1756
47.1746
47.1738
47.1731
47.1724
47.1719
47.1714
47.1708
47.1707
47.1695
47.1701
47.1676
47.1697
47.1647
47.1697
47.1609
47.1706
47.1595
47.1699
43.9405
43.9366
43.9333
43.9302
43.9275
43.9251
43.923
43.9211
43.9194
43.918
43.9167
43.9156
43.9147
43.9139
43.9131
43.9125
43.912
43.9115
43.9109
43.9108
43.9097
43.9102
43.9078
43.9098
43.9048
43.9099
43.9006
43.911
43.8986
43.9106
40.6807
40.6767
40.6733
40.6702
40.6675
40.6651
40.6629
40.6611
40.6594
40.658
40.6567
40.6557
40.6547
40.6539
40.6532
40.6526
40.6521
40.6516
40.6511
40.6509
40.6498
40.6503
40.648
40.6499
40.6449
40.6501
40.6402
40.6515
40.6376
40.6516
37.4208
37.4168
37.4134
37.4103
37.4075
37.4051
37.403
37.4011
37.3995
37.3981
37.3968
37.3958
37.3948
37.394
37.3933
37.3927
37.3922
37.3918
37.3913
37.391
37.3901
37.3905
37.3883
37.3901
37.385
37.3903
37.3799
37.392
37.3764
37.3926
34.1609
34.1568
34.1534
34.1503
34.1475
34.1451
34.143
34.1411
34.1395
34.1381
34.1368
34.1358
34.1349
34.1341
34.1334
34.1328
34.1323
34.1319
34.1314
34.1312
34.1303
34.1306
34.1285
34.1302
34.1252
34.1305
34.1195
34.1326
34.115
34.134
30.901
30.8968
30.8934
30.8902
30.8875
30.8851
30.8829
30.8811
30.8795
30.8781
30.8769
30.8758
30.8749
30.8741
30.8735
30.8729
30.8724
30.872
30.8715
30.8713
30.8705
30.8707
30.8687
30.8703
30.8653
30.8707
30.859
30.8731
30.8533
30.8752
27.6411
27.6369
27.6334
27.6303
27.6275
27.6251
27.623
27.6211
27.6195
27.6181
27.6169
27.6159
27.615
27.6142
27.6136
27.613
27.6125
27.6121
27.6117
27.6114
27.6107
27.6109
27.609
27.6105
27.6055
27.6109
27.5986
27.6138
27.5913
27.6177
24.3811
24.3769
24.3734
24.3702
24.3674
24.365
24.3629
24.3611
24.3595
24.3581
24.3569
24.3559
24.355
24.3543
24.3537
24.3531
24.3526
24.3522
24.3519
24.3515
24.351
24.351
24.3493
24.3506
24.3456
24.3511
24.3381
24.3544
24.3287
24.3586
21.1211
21.1168
21.1133
21.1101
21.1074
21.105
21.1028
21.101
21.0994
21.0981
21.0969
21.0959
21.0951
21.0943
21.0937
21.0932
21.0927
21.0923
21.092
21.0916
21.0912
21.0911
21.0896
21.0907
21.0858
21.0912
21.0776
21.0952
21.066
21.1031
17.8612
17.8568
17.8533
17.8501
17.8473
17.8449
17.8428
17.841
17.8395
17.8381
17.837
17.836
17.8351
17.8344
17.8338
17.8333
17.8329
17.8324
17.8322
17.8318
17.8315
17.8313
17.83
17.8309
17.8261
17.8315
17.8171
17.8357
17.802
17.8431
14.6012
14.5968
14.5932
14.59
14.5872
14.5848
14.5828
14.581
14.5794
14.5781
14.577
14.576
14.5752
14.5745
14.5739
14.5733
14.5729
14.5725
14.5724
14.5719
14.5717
14.5714
14.5703
14.571
14.5664
14.5716
14.5567
14.5767
14.5387
14.5911
11.3412
11.3367
11.3332
11.33
11.3272
11.3248
11.3227
11.3209
11.3194
11.3181
11.317
11.316
11.3152
11.3145
11.3139
11.3134
11.313
11.3126
11.3126
11.312
11.3119
11.3115
11.3106
11.3111
11.3066
11.3118
11.296
11.317
11.2722
11.3291
8.08106
8.07664
8.07304
8.06983
8.06705
8.06466
8.0626
8.06083
8.05933
8.05804
8.05695
8.05602
8.05523
8.05456
8.05399
8.0535
8.05314
8.05273
8.05278
8.05215
8.05227
8.05164
8.05115
8.05122
8.04714
8.0519
8.036
8.05813
8.00867
8.08302
4.82111
4.81665
4.81303
4.80981
4.80703
4.80464
4.80258
4.80083
4.79933
4.79806
4.79698
4.79606
4.79528
4.79462
4.79406
4.79358
4.79324
4.79283
4.79294
4.79225
4.79249
4.79175
4.79143
4.79136
4.78732
4.79211
4.77528
4.79822
4.7378
4.81722
1.56079
1.55635
1.55271
1.54949
1.54673
1.54435
1.54232
1.5406
1.53914
1.5379
1.53685
1.53596
1.53521
1.53458
1.53404
1.53359
1.53327
1.53287
1.53314
1.53233
1.53314
1.53183
1.53336
1.5314
1.53142
1.53206
1.52204
1.53924
1.4843
1.58587
47.0092
44.0318
4.5793
-2.09565
3.93492
-0.130794
-0.118792
0.383232
0.195013
0.0486128
0.380567
0.379808
0.146055
0.0843762
0.103214
0.269722
0.189934
0.361376
0.171031
0.199886
0.407126
0.3144
-0.0324347
-0.0984068
-0.0671174
-0.0493397
-0.0308888
-0.0555391
-0.0671102
-0.0817883
2.75962
-0.475769
-0.097286
-0.555896
-0.279798
-0.200379
-0.113535
-0.15905
-0.133758
-0.118222
-0.123865
-0.114007
-0.115354
-0.111924
-0.111038
-0.110253
-0.109894
-0.110407
-0.108172
-0.108387
-0.11141
-0.10948
-0.107617
-0.106448
-0.107231
-0.108203
-0.108341
-0.108084
-0.108058
-0.107929
-0.708091
0.00111055
-0.121512
-0.294685
-0.338598
-0.155552
-0.172938
-0.113466
-0.138779
-0.115563
-0.126426
-0.118605
-0.121043
-0.117851
-0.11624
-0.116942
-0.116291
-0.116793
-0.115015
-0.114967
-0.117282
-0.115894
-0.114542
-0.112738
-0.113694
-0.11467
-0.114846
-0.114609
-0.114595
-0.114466
-0.167249
-0.0538984
-0.143216
-0.148433
-0.00696611
-0.116231
-0.0687822
-0.120991
-0.126683
-0.123118
-0.129587
-0.124906
-0.12649
-0.124218
-0.123795
-0.12325
-0.122802
-0.122972
-0.121806
-0.121761
-0.123329
-0.122057
-0.121092
-0.119841
-0.120459
-0.121148
-0.121325
-0.121134
-0.121134
-0.121009
19.9684
2.2532
-0.298287
-0.25909
-0.131895
-0.196249
-0.143366
-0.145011
-0.139034
-0.13184
-0.134698
-0.130956
-0.132168
-0.130423
-0.129902
-0.129597
-0.129232
-0.129308
-0.128465
-0.128299
-0.129552
-0.128446
-0.12768
-0.126447
-0.1271
-0.127638
-0.127828
-0.12766
-0.12767
-0.127549
31.5116
1.82862
-0.221992
-0.123565
-0.13398
-0.127966
-0.1296
-0.131176
-0.140405
-0.134585
-0.140018
-0.136524
-0.138028
-0.136558
-0.136357
-0.13595
-0.135655
-0.135598
-0.13506
-0.134884
-0.13573
-0.134794
-0.134265
-0.133259
-0.133732
-0.134144
-0.13433
-0.134187
-0.134207
-0.134089
9.04359
-0.311863
-0.179181
0.0233929
-0.127835
-0.0995427
-0.152005
-0.128551
-0.149596
-0.139044
-0.146682
-0.142384
-0.144114
-0.142716
-0.142609
-0.142281
-0.14205
-0.141949
-0.141595
-0.141376
-0.142062
-0.141209
-0.140822
-0.139897
-0.14035
-0.140657
-0.140843
-0.140715
-0.140743
-0.14063
-0.535875
-0.418093
-0.0753277
-0.14134
-0.0963736
-0.123688
-0.145009
-0.13807
-0.158044
-0.144669
-0.154231
-0.148104
-0.150303
-0.148836
-0.148865
-0.148594
-0.148426
-0.148308
-0.148094
-0.147877
-0.148353
-0.147643
-0.147382
-0.146591
-0.146954
-0.147178
-0.147357
-0.147244
-0.147278
-0.147169
-0.223585
0.00790546
-0.0811075
-0.147167
-0.369072
-0.116041
-0.258425
-0.143576
-0.183958
-0.151236
-0.161634
-0.154135
-0.156394
-0.154944
-0.155096
-0.154894
-0.154791
-0.154688
-0.154568
-0.154351
-0.154731
-0.154098
-0.153925
-0.153214
-0.153547
-0.153703
-0.153877
-0.153774
-0.153814
-0.153709
7.59064
1.33178
4.12519
-0.291787
-0.281887
-0.20541
-0.208271
-0.164353
-0.179251
-0.160492
-0.166726
-0.16061
-0.162422
-0.161075
-0.16132
-0.161188
-0.161152
-0.161077
-0.161029
-0.160826
-0.161128
-0.16057
-0.160468
-0.159848
-0.160131
-0.160233
-0.160399
-0.160305
-0.160349
-0.160248
2.11124
10.9873
0.996349
-0.149946
-0.162311
-0.145102
-0.124202
-0.120434
-0.134683
-0.164341
-0.167669
-0.165973
-0.167602
-0.167006
-0.167472
-0.16747
-0.167511
-0.167475
-0.167482
-0.167297
-0.167547
-0.167054
-0.167001
-0.166453
-0.166706
-0.166765
-0.166924
-0.166836
-0.166884
-0.166788
20.9121
5.71075
-0.0705546
-0.14704
-0.153158
-0.159123
-0.167758
-0.165831
-0.171188
-0.172017
-0.174237
-0.172244
-0.173791
-0.173193
-0.173719
-0.173781
-0.17388
-0.173884
-0.173934
-0.17377
-0.173984
-0.173548
-0.173534
-0.173051
-0.173274
-0.1733
-0.173451
-0.173368
-0.173418
-0.173327
16.2019
0.305345
-0.0506301
-0.10091
-0.132264
-0.151522
-0.166925
-0.169343
-0.175955
-0.175739
-0.178049
-0.177656
-0.179415
-0.179233
-0.179925
-0.180102
-0.180259
-0.180304
-0.180387
-0.180247
-0.180435
-0.180049
-0.180065
-0.179638
-0.179837
-0.179837
-0.179979
-0.179902
-0.179953
-0.179867
2.54286
0.00158022
-0.0915153
-0.140773
-0.136581
-0.162441
-0.161178
-0.173492
-0.178179
-0.180405
-0.183432
-0.183609
-0.185463
-0.185471
-0.186197
-0.186464
-0.186656
-0.186737
-0.186845
-0.186727
-0.186897
-0.186556
-0.186594
-0.186215
-0.186395
-0.186375
-0.186509
-0.186435
-0.186488
-0.186406
1.78695
0.308927
-0.122135
-0.165241
-0.15342
-0.17212
-0.173143
-0.180984
-0.183885
-0.186533
-0.189176
-0.189724
-0.191566
-0.19174
-0.192516
-0.192853
-0.193073
-0.193184
-0.193309
-0.193213
-0.193369
-0.193069
-0.193122
-0.192786
-0.192948
-0.192913
-0.193039
-0.19297
-0.193022
-0.192945
-0.381241
-0.22573
-0.0554028
-0.194632
-0.150276
-0.18942
-0.176787
-0.188099
-0.19007
-0.19242
-0.19549
-0.195961
-0.197905
-0.198154
-0.198894
-0.199282
-0.199512
-0.199647
-0.199781
-0.199705
-0.19985
-0.199586
-0.19965
-0.199351
-0.199499
-0.199453
-0.199571
-0.199505
-0.199557
-0.199484
-0.32619
-0.237785
-0.0662043
-0.187185
-0.161665
-0.196319
-0.196448
-0.196866
-0.198615
-0.199853
-0.202263
-0.20273
-0.204379
-0.204693
-0.205338
-0.205747
-0.205975
-0.206123
-0.206261
-0.206202
-0.206338
-0.206106
-0.206178
-0.205911
-0.206046
-0.205993
-0.206103
-0.206041
-0.206091
-0.206023
2.44961
2.1723
3.02308
0.038508
-0.196347
-0.177583
-0.21508
-0.201864
-0.20902
-0.207011
-0.209854
-0.209502
-0.210993
-0.211316
-0.211834
-0.212246
-0.21246
-0.212613
-0.212751
-0.212706
-0.212833
-0.212629
-0.212705
-0.212468
-0.212591
-0.212533
-0.212635
-0.212576
-0.212626
-0.212562
2.05065
2.56268
2.6167
0.307837
-0.166051
-0.179019
-0.213649
-0.208288
-0.214383
-0.214062
-0.216273
-0.216515
-0.217632
-0.218008
-0.218395
-0.218777
-0.218969
-0.219117
-0.21925
-0.219215
-0.219334
-0.219155
-0.219232
-0.219022
-0.219135
-0.219074
-0.219168
-0.219113
-0.21916
-0.219101
2.83988
0.997495
0.282539
-0.187616
-0.268409
-0.168628
-0.250281
-0.224919
-0.228819
-0.223576
-0.224786
-0.223851
-0.224408
-0.224724
-0.224988
-0.225329
-0.225496
-0.225632
-0.225756
-0.225729
-0.225839
-0.225683
-0.225759
-0.225573
-0.225676
-0.225615
-0.225701
-0.22565
-0.225694
-0.22564
1.52881
-0.143983
-0.214642
-0.212451
-0.20838
-0.22044
-0.233296
-0.229038
-0.230774
-0.229433
-0.230719
-0.230627
-0.231103
-0.231424
-0.231608
-0.231895
-0.232039
-0.232156
-0.23227
-0.232248
-0.232349
-0.232212
-0.232287
-0.232122
-0.232215
-0.232156
-0.232234
-0.232187
-0.232228
-0.232179
3.36614
-0.15551
-0.190323
-0.226689
-0.212123
-0.229577
-0.233063
-0.234674
-0.237472
-0.236774
-0.237752
-0.237632
-0.237863
-0.238127
-0.238244
-0.238472
-0.238592
-0.238688
-0.23879
-0.238771
-0.238863
-0.238744
-0.238815
-0.238671
-0.238754
-0.238697
-0.238768
-0.238725
-0.238763
-0.238718
3.65408
-0.213362
-0.233409
-0.223586
-0.236254
-0.234833
-0.241397
-0.240428
-0.244206
-0.243469
-0.244571
-0.244539
-0.244659
-0.24483
-0.244892
-0.245055
-0.245151
-0.245226
-0.245315
-0.245297
-0.245379
-0.245277
-0.245342
-0.245217
-0.245291
-0.245238
-0.245301
-0.245262
-0.245296
-0.245257
3.80171
-0.137779
-0.201255
-0.213113
-0.258725
-0.24588
-0.253357
-0.249884
-0.252314
-0.251264
-0.251676
-0.251511
-0.251462
-0.251523
-0.25154
-0.25164
-0.251712
-0.251767
-0.251843
-0.251826
-0.251899
-0.251811
-0.25187
-0.251763
-0.251827
-0.25178
-0.251834
-0.2518
-0.25183
-0.251796
3.32717
-0.0306204
-0.13447
-0.223071
-0.268874
-0.261496
-0.264753
-0.259998
-0.260559
-0.258981
-0.258797
-0.258428
-0.258239
-0.258199
-0.258176
-0.258224
-0.258275
-0.258311
-0.258375
-0.258357
-0.258421
-0.258346
-0.258399
-0.258308
-0.258364
-0.258321
-0.258368
-0.258339
-0.258364
-0.258335
0.0989972
-0.0543591
-0.18271
-0.247637
-0.277808
-0.274284
-0.273545
-0.268658
-0.268024
-0.266254
-0.265716
-0.265216
-0.264952
-0.264842
-0.264792
-0.264801
-0.264836
-0.264855
-0.264908
-0.26489
-0.264944
-0.264882
-0.264927
-0.264853
-0.264899
-0.264863
-0.264901
-0.264877
-0.264898
-0.264874
-0.268195
-0.285459
-0.285132
-0.282871
-0.285088
-0.280697
-0.278663
-0.275168
-0.27441
-0.272915
-0.272335
-0.271841
-0.27158
-0.271444
-0.271385
-0.271371
-0.271394
-0.2714
-0.271442
-0.271424
-0.271468
-0.271419
-0.271455
-0.271397
-0.271433
-0.271404
-0.271434
-0.271415
-0.271432
-0.271413
-0.0306367
-0.288663
-0.286099
-0.284265
-0.283993
-0.282177
-0.28147
-0.280065
-0.279763
-0.279023
-0.278677
-0.278326
-0.278132
-0.278009
-0.27796
-0.277933
-0.27795
-0.277944
-0.277977
-0.27796
-0.277994
-0.277956
-0.277984
-0.277941
-0.277968
-0.277946
-0.277968
-0.277954
-0.277966
-0.277953
0.0107798
-0.292665
-0.291131
-0.286982
-0.286179
-0.285546
-0.285205
-0.28523
-0.285358
-0.285034
-0.284914
-0.284734
-0.284635
-0.284545
-0.284519
-0.284486
-0.284503
-0.284487
-0.284512
-0.284496
-0.284521
-0.284493
-0.284513
-0.284484
-0.284502
-0.284488
-0.284501
-0.284492
-0.2845
-0.284491
-0.143004
-0.297005
-0.297031
-0.292811
-0.292113
-0.291246
-0.290874
-0.291257
-0.291533
-0.291261
-0.291264
-0.291143
-0.291124
-0.291066
-0.291072
-0.291034
-0.291055
-0.29103
-0.291045
-0.291031
-0.291047
-0.291031
-0.291041
-0.291028
-0.291035
-0.291029
-0.291034
-0.29103
-0.291033
-0.29103
-0.0864723
-0.0888302
-0.0906687
-0.0923299
-0.0937326
-0.0949422
-0.0959767
-0.0968563
-0.0976064
-0.0982417
-0.0987814
-0.0992381
-0.0996245
-0.0999525
-0.100229
-0.100467
-0.100669
-0.100845
-0.101095
-0.101138
-0.101443
-0.101361
-0.101481
-0.101392
-0.101545
-0.100629
-0.101783
-0.0975693
-0.105874
-0.0999137
-0.107986
-0.107952
-0.107974
-0.107949
-0.107963
-0.107946
-0.107954
-0.107943
-0.107948
-0.107943
-0.107945
-0.107944
-0.107946
-0.107947
-0.10795
-0.107954
-0.107959
-0.107966
-0.107973
-0.107984
-0.107994
-0.10801
-0.108024
-0.108047
-0.108059
-0.108078
-0.108045
-0.108076
-0.107678
-0.107661
-0.114526
-0.11449
-0.114513
-0.114487
-0.114502
-0.114484
-0.114493
-0.114482
-0.114487
-0.114481
-0.114484
-0.114483
-0.114485
-0.114486
-0.114489
-0.114493
-0.114498
-0.114505
-0.114509
-0.114523
-0.114529
-0.114549
-0.114563
-0.114592
-0.114631
-0.114713
-0.114889
-0.115158
-0.116191
-0.11807
-0.121067
-0.121033
-0.121055
-0.12103
-0.121044
-0.121026
-0.121035
-0.121024
-0.121028
-0.121023
-0.121025
-0.121024
-0.121026
-0.121028
-0.121031
-0.121034
-0.121039
-0.121046
-0.121052
-0.121063
-0.121072
-0.12109
-0.121102
-0.12113
-0.121142
-0.121173
-0.121163
-0.12118
-0.121065
-0.12128
-0.127607
-0.127573
-0.127595
-0.127569
-0.127584
-0.127566
-0.127575
-0.127564
-0.127568
-0.127563
-0.127565
-0.127564
-0.127566
-0.127567
-0.12757
-0.127574
-0.127578
-0.127585
-0.127591
-0.127602
-0.12761
-0.127629
-0.12764
-0.127672
-0.127696
-0.127773
-0.127863
-0.128069
-0.128247
-0.129122
-0.134147
-0.134114
-0.134135
-0.13411
-0.134124
-0.134107
-0.134115
-0.134104
-0.134109
-0.134103
-0.134106
-0.134104
-0.134106
-0.134107
-0.13411
-0.134114
-0.134118
-0.134125
-0.13413
-0.134141
-0.134149
-0.134167
-0.134176
-0.134208
-0.134216
-0.134262
-0.134253
-0.134305
-0.134186
-0.134376
-0.140687
-0.140654
-0.140675
-0.140651
-0.140665
-0.140647
-0.140656
-0.140645
-0.140649
-0.140644
-0.140646
-0.140644
-0.140646
-0.140647
-0.14065
-0.140654
-0.140658
-0.140664
-0.14067
-0.140681
-0.140687
-0.140706
-0.140713
-0.140746
-0.140754
-0.140821
-0.140839
-0.14099
-0.14091
-0.141356
-0.147227
-0.147194
-0.147215
-0.147191
-0.147204
-0.147187
-0.147196
-0.147185
-0.147189
-0.147184
-0.147186
-0.147184
-0.147186
-0.147187
-0.147189
-0.147193
-0.147197
-0.147203
-0.147208
-0.147219
-0.147225
-0.147244
-0.147249
-0.147282
-0.147281
-0.147335
-0.147313
-0.147388
-0.147252
-0.147405
-0.153765
-0.153734
-0.153754
-0.15373
-0.153744
-0.153727
-0.153735
-0.153724
-0.153729
-0.153723
-0.153725
-0.153724
-0.153725
-0.153726
-0.153729
-0.153732
-0.153736
-0.153742
-0.153747
-0.153757
-0.153762
-0.153781
-0.153784
-0.153817
-0.153812
-0.15387
-0.153846
-0.153956
-0.153818
-0.154058
-0.160304
-0.160273
-0.160293
-0.16027
-0.160284
-0.160267
-0.160275
-0.160264
-0.160269
-0.160263
-0.160265
-0.160264
-0.160265
-0.160266
-0.160268
-0.160271
-0.160275
-0.160281
-0.160285
-0.160296
-0.1603
-0.160318
-0.160319
-0.160352
-0.160342
-0.160397
-0.160359
-0.16044
-0.160301
-0.160426
-0.166842
-0.166812
-0.166832
-0.166809
-0.166822
-0.166806
-0.166814
-0.166804
-0.166808
-0.166803
-0.166805
-0.166803
-0.166804
-0.166805
-0.166807
-0.16681
-0.166814
-0.166819
-0.166823
-0.166833
-0.166837
-0.166855
-0.166854
-0.166886
-0.166872
-0.166925
-0.166882
-0.166964
-0.166829
-0.166968
-0.173379
-0.173351
-0.17337
-0.173348
-0.173361
-0.173345
-0.173353
-0.173343
-0.173347
-0.173342
-0.173344
-0.173342
-0.173343
-0.173344
-0.173346
-0.173349
-0.173352
-0.173357
-0.173361
-0.173371
-0.173374
-0.173391
-0.173388
-0.173419
-0.173403
-0.173453
-0.173405
-0.173479
-0.17335
-0.173452
-0.179917
-0.17989
-0.179909
-0.179888
-0.1799
-0.179885
-0.179892
-0.179882
-0.179886
-0.179881
-0.179883
-0.179881
-0.179883
-0.179883
-0.179885
-0.179888
-0.179891
-0.179896
-0.179899
-0.179909
-0.179911
-0.179928
-0.179923
-0.179953
-0.179934
-0.179981
-0.179931
-0.179999
-0.179879
-0.179971
-0.186454
-0.186429
-0.186446
-0.186426
-0.186438
-0.186424
-0.186431
-0.186421
-0.186425
-0.18642
-0.186422
-0.18642
-0.186421
-0.186422
-0.186424
-0.186426
-0.186429
-0.186434
-0.186437
-0.186446
-0.186447
-0.186463
-0.186458
-0.186486
-0.186466
-0.18651
-0.186459
-0.186522
-0.186409
-0.18649
-0.192991
-0.192967
-0.192984
-0.192965
-0.192976
-0.192962
-0.192969
-0.19296
-0.192964
-0.192959
-0.192961
-0.192959
-0.19296
-0.192961
-0.192962
-0.192965
-0.192967
-0.192972
-0.192974
-0.192983
-0.192983
-0.192999
-0.192992
-0.193019
-0.192998
-0.193039
-0.192989
-0.193046
-0.192942
-0.193013
-0.199529
-0.199505
-0.199522
-0.199504
-0.199515
-0.199501
-0.199508
-0.199499
-0.199503
-0.199498
-0.1995
-0.199498
-0.199499
-0.1995
-0.199501
-0.199503
-0.199506
-0.19951
-0.199512
-0.19952
-0.19952
-0.199535
-0.199527
-0.199553
-0.199531
-0.19957
-0.19952
-0.199573
-0.199478
-0.199541
-0.206065
-0.206043
-0.206059
-0.206042
-0.206052
-0.206039
-0.206046
-0.206037
-0.206041
-0.206036
-0.206038
-0.206036
-0.206037
-0.206038
-0.206039
-0.206041
-0.206043
-0.206047
-0.206049
-0.206057
-0.206056
-0.20607
-0.206062
-0.206086
-0.206064
-0.2061
-0.206052
-0.2061
-0.206014
-0.20607
-0.212602
-0.212581
-0.212596
-0.21258
-0.21259
-0.212578
-0.212584
-0.212576
-0.212579
-0.212575
-0.212576
-0.212575
-0.212576
-0.212576
-0.212577
-0.212579
-0.212581
-0.212585
-0.212586
-0.212593
-0.212592
-0.212605
-0.212597
-0.212619
-0.212598
-0.212631
-0.212586
-0.212629
-0.212551
-0.212602
-0.219138
-0.219119
-0.219133
-0.219118
-0.219127
-0.219116
-0.219122
-0.219114
-0.219117
-0.219113
-0.219115
-0.219113
-0.219114
-0.219115
-0.219116
-0.219117
-0.219119
-0.219122
-0.219124
-0.21913
-0.219129
-0.219141
-0.219133
-0.219153
-0.219132
-0.219163
-0.219121
-0.21916
-0.21909
-0.219135
-0.225675
-0.225657
-0.22567
-0.225656
-0.225664
-0.225654
-0.225659
-0.225653
-0.225655
-0.225652
-0.225653
-0.225652
-0.225652
-0.225653
-0.225654
-0.225655
-0.225657
-0.22566
-0.225661
-0.225667
-0.225665
-0.225676
-0.225669
-0.225687
-0.225667
-0.225694
-0.225656
-0.225691
-0.225629
-0.225668
-0.232211
-0.232194
-0.232206
-0.232194
-0.232201
-0.232192
-0.232197
-0.23219
-0.232193
-0.23219
-0.232191
-0.23219