/*--------------------------------*- C++ -*----------------------------------*\
| =========                 |                                                 |
| \\      /  F ield         | OpenFOAM: The Open Source CFD Toolbox           |
|  \\    /   O peration     | Version:  2.4.0                                 |
|   \\  /    A nd           | Web:      www.OpenFOAM.org                      |
|    \\/     M anipulation  |                                                 |
\*---------------------------------------------------------------------------*/
FoamFile
{
    version     2.0;
    format      ascii;
    class       volScalarField;
    location    "0.025";
    object      alpha.water;
}
// * * * * * * * * * * * * * * * * * * * * * * * * * * * * * * * * * * * * * //

dimensions      [0 0 0 0 0 0 0];

internalField   nonuniform List<scalar> 
10000
(
1.34078e-144
2.96125e-140
1.98334e-136
6.60863e-133
1.31004e-129
2.39029e-126
5.76128e-123
1.77945e-119
5.82341e-116
1.81197e-112
5.15404e-109
1.32216e-105
3.05672e-102
6.4173e-99
1.24695e-95
2.31424e-92
3.98455e-89
6.14855e-86
7.80184e-83
7.90137e-80
6.15346e-77
3.67312e-74
1.63304e-71
5.32427e-69
1.2595e-66
2.13311e-64
2.54305e-62
2.09458e-60
1.16415e-58
4.25703e-57
9.98641e-56
1.46553e-54
1.27016e-53
5.76552e-53
1.1583e-52
8.21468e-53
1.45628e-53
8.43124e-55
2.05733e-56
2.56764e-58
1.75701e-60
7.64738e-63
2.51193e-65
6.223e-68
1.17428e-70
1.81312e-73
2.39557e-76
2.77725e-79
2.86559e-82
3.29803e-85
4.89004e-140
1.16117e-135
7.63994e-132
2.42155e-128
5.09668e-125
1.11651e-121
3.17942e-118
1.02482e-114
3.1891e-111
8.97983e-108
2.26329e-104
5.12487e-101
1.05714e-97
2.0319e-94
3.73265e-91
6.65208e-88
1.06165e-84
1.45318e-81
1.63604e-78
1.48521e-75
1.03662e-72
5.54306e-70
2.21317e-67
6.5182e-65
1.40186e-62
2.17483e-60
2.39867e-58
1.84697e-56
9.69842e-55
3.38612e-53
7.66143e-52
1.09609e-50
9.42568e-50
4.3628e-49
9.24929e-49
7.22226e-49
1.48242e-49
1.02802e-50
3.07147e-52
4.89279e-54
4.63584e-56
2.93067e-58
1.52255e-60
6.6974e-63
2.59188e-65
9.08213e-68
2.94653e-70
9.04545e-73
2.69492e-75
8.0974e-78
4.62016e-136
1.12135e-131
7.61419e-128
2.44667e-124
4.9634e-121
9.7225e-118
2.35071e-114
6.56065e-111
1.84169e-107
4.85011e-104
1.17606e-100
2.67113e-97
5.71619e-94
1.17437e-90
2.32275e-87
4.18222e-84
6.42846e-81
8.39824e-78
8.81866e-75
7.28197e-72
4.57337e-69
2.16039e-66
7.64381e-64
2.02179e-61
3.95404e-59
5.6415e-57
5.78425e-55
4.18495e-53
2.08695e-51
6.99361e-50
1.53459e-48
2.15207e-47
1.84477e-46
8.74208e-46
1.96312e-45
1.69184e-45
4.00325e-46
3.26715e-47
1.14595e-48
2.16581e-50
2.51283e-52
2.04942e-54
1.45079e-56
9.20503e-59
5.38211e-61
2.9624e-63
1.56296e-65
8.02832e-68
4.04898e-70
2.12453e-72
2.05964e-132
5.12292e-128
3.64765e-124
1.17028e-120
2.26925e-117
3.98561e-114
8.26788e-111
2.043e-107
5.38225e-104
1.39985e-100
3.49693e-97
8.52778e-94
2.00232e-90
4.52557e-87
9.25904e-84
1.57319e-80
2.18169e-77
2.57473e-74
2.39896e-71
1.69116e-68
9.12188e-66
3.76239e-63
1.18029e-60
2.80775e-58
5.0048e-56
6.58619e-54
6.29818e-52
4.2966e-50
2.04224e-48
6.59374e-47
1.4089e-45
1.94486e-44
1.66774e-43
8.116e-43
1.93685e-42
1.84861e-42
5.04918e-43
4.8327e-44
1.95332e-45
4.22146e-47
5.6533e-49
5.61016e-51
4.99874e-53
4.09673e-55
3.1519e-57
2.31261e-59
1.6359e-61
1.11967e-63
7.3495e-66
5.68287e-68
6.4075e-129
1.58411e-124
1.14638e-120
3.65734e-117
7.01493e-114
1.21705e-110
2.51236e-107
6.27043e-104
1.68686e-100
4.48791e-97
1.17644e-93
3.04164e-90
7.42395e-87
1.66995e-83
3.06362e-80
4.40281e-77
5.08335e-74
5.03097e-71
3.84492e-68
2.27337e-65
1.04852e-62
3.76191e-60
1.04371e-57
2.22995e-55
3.62176e-53
4.39898e-51
3.92872e-49
2.53171e-47
1.14942e-45
3.58399e-44
7.47717e-43
1.01893e-41
8.76064e-41
4.38584e-40
1.11468e-39
1.18164e-39
3.73871e-40
4.21492e-41
1.95296e-42
4.73378e-44
7.06982e-46
8.18921e-48
8.62845e-50
8.47699e-52
7.89357e-54
7.03598e-56
6.02066e-58
4.91207e-60
3.74455e-62
4.70776e-64
1.71368e-125
4.01411e-121
2.83922e-117
8.99998e-114
1.81708e-110
3.56705e-107
8.62366e-104
2.44336e-100
7.05416e-97
1.92652e-93
4.95029e-90
1.23296e-86
2.78958e-83
5.40631e-80
8.08153e-77
9.36159e-74
8.60887e-71
6.69687e-68
4.15757e-65
2.04749e-62
8.02495e-60
2.4898e-57
6.07901e-55
1.16199e-52
1.71496e-50
1.91973e-48
1.60052e-46
9.74488e-45
4.22894e-43
1.2748e-41
2.60037e-40
3.50381e-39
3.02379e-38
1.55792e-37
4.21965e-37
4.97675e-37
1.83178e-37
2.455e-38
1.31082e-39
3.53984e-41
5.78648e-43
7.62511e-45
9.17327e-47
1.03563e-48
1.11315e-50
1.14507e-52
1.12287e-54
1.0338e-56
8.68077e-59
1.97519e-60
4.26703e-122
9.2369e-118
6.22962e-114
2.05789e-110
5.00142e-107
1.36162e-103
4.2345e-100
1.28648e-96
3.69729e-93
9.52586e-90
2.21487e-86
4.73829e-83
8.83938e-80
1.38637e-76
1.64226e-73
1.5186e-70
1.10584e-67
6.68754e-65
3.33599e-62
1.35705e-59
4.48718e-57
1.19538e-54
2.55145e-52
4.33737e-50
5.78884e-48
5.95144e-46
4.62175e-44
2.65536e-42
1.1008e-40
3.20757e-39
6.39845e-38
8.52846e-37
7.38713e-36
3.91334e-35
1.12863e-34
1.48136e-34
6.36661e-35
1.02615e-35
6.40099e-37
1.93353e-38
3.43734e-40
5.09219e-42
6.88936e-44
8.7542e-46
1.05925e-47
1.22391e-49
1.33895e-51
1.35668e-53
1.22692e-55
4.8755e-57
1.01864e-118
2.06297e-114
1.40489e-110
5.71792e-107
2.13829e-103
8.21118e-100
2.81672e-96
8.09312e-93
1.97262e-89
4.36643e-86
8.45094e-83
1.48607e-79
2.22356e-76
2.7124e-73
2.56576e-70
1.89113e-67
1.11726e-64
5.3291e-62
2.12095e-59
7.06211e-57
1.95406e-54
4.43503e-52
8.21201e-50
1.23229e-47
1.47721e-45
1.38726e-43
9.99515e-42
5.40394e-40
2.13612e-38
6.00886e-37
1.17114e-35
1.54319e-34
1.34013e-33
7.28401e-33
2.23166e-32
3.25513e-32
1.63751e-32
3.21075e-33
2.38672e-34
8.17225e-36
1.58649e-37
2.61743e-39
3.94422e-41
5.59235e-43
7.56295e-45
9.76067e-47
1.18621e-48
1.31836e-50
1.28032e-52
7.53494e-54
2.48768e-115
5.21481e-111
4.42784e-107
2.78752e-103
1.44238e-99
5.85832e-96
1.83758e-92
4.54226e-89
9.14505e-86
1.59296e-82
2.48365e-79
3.44442e-76
4.11281e-73
4.06051e-70
3.09083e-67
1.84041e-64
8.88054e-62
3.47905e-59
1.11498e-56
3.02219e-54
6.94128e-52
1.33124e-49
2.1204e-47
2.78482e-45
2.97354e-43
2.53228e-41
1.68308e-39
8.52636e-38
3.20364e-36
8.67935e-35
1.64965e-33
2.14542e-32
1.8641e-31
1.03619e-30
3.35963e-30
5.42874e-30
3.19824e-30
7.70099e-31
6.97978e-32
2.76752e-33
5.94446e-35
1.09213e-36
1.83407e-38
2.90829e-40
4.4153e-42
6.40522e-44
8.71305e-46
1.07078e-47
1.12549e-49
7.85997e-51
6.64488e-112
1.84573e-107
2.34019e-103
1.85524e-99
9.62615e-96
3.4832e-92
9.2888e-89
1.90943e-85
3.14134e-82
4.30484e-79
5.28614e-76
5.77016e-73
5.53579e-70
4.47161e-67
2.83106e-64
1.41543e-61
5.6479e-59
1.83599e-56
4.91921e-54
1.0951e-51
2.07983e-49
3.34598e-47
4.54437e-45
5.17542e-43
4.87582e-41
3.73189e-39
2.27094e-37
1.07155e-35
3.80979e-34
9.90625e-33
1.83082e-31
2.34398e-30
2.03179e-29
1.15012e-28
3.92584e-28
6.99327e-28
4.81662e-28
1.43283e-28
1.61907e-29
7.64641e-31
1.85563e-32
3.81909e-34
7.19851e-36
1.28843e-37
2.22149e-39
3.67143e-41
5.67026e-43
7.81672e-45
9.0209e-47
5.99795e-48
2.2719e-108
8.60866e-104
1.30887e-99
1.00431e-95
4.63508e-92
1.43886e-88
3.23548e-85
5.55181e-82
7.56173e-79
8.46384e-76
8.13316e-73
7.11496e-70
5.53703e-67
3.66762e-64
1.95709e-61
8.32629e-59
2.84917e-56
7.90164e-54
1.78743e-51
3.3813e-49
5.35863e-47
7.21911e-45
8.29868e-43
8.11777e-41
6.67904e-39
4.54734e-37
2.50997e-35
1.09459e-33
3.66028e-32
9.09179e-31
1.62753e-29
2.04415e-28
1.76107e-27
1.00997e-26
3.60584e-26
7.03423e-26
5.64101e-26
2.07688e-26
2.97935e-27
1.73305e-28
4.88474e-30
1.13674e-31
2.4306e-33
4.97451e-35
9.89092e-37
1.89356e-38
3.37682e-40
5.31133e-42
6.85263e-44
3.57778e-45
8.71567e-105
3.86323e-100
5.6667e-96
3.87346e-92
1.54751e-88
4.10037e-85
7.80467e-82
1.12724e-78
1.28642e-75
1.19906e-72
9.43821e-70
6.60258e-67
4.15774e-64
2.27926e-61
1.03732e-58
3.79477e-56
1.124e-53
2.71314e-51
5.36609e-49
8.73626e-47
1.18494e-44
1.35298e-42
1.31583e-40
1.09693e-38
7.80087e-37
4.67126e-35
2.31318e-33
9.23308e-32
2.88127e-30
6.7953e-29
1.17241e-27
1.43825e-26
1.22595e-25
7.081e-25
2.62403e-24
5.55964e-24
5.15798e-24
2.34434e-24
4.3175e-25
3.20799e-26
1.08595e-27
2.8899e-29
7.09983e-31
1.68648e-32
3.93145e-34
8.86695e-36
1.85628e-37
3.38911e-39
4.98726e-41
1.79969e-42
2.98875e-101
1.36255e-96
1.78783e-92
1.06419e-88
3.6559e-85
8.27278e-82
1.33949e-78
1.64154e-75
1.58543e-72
1.24512e-69
8.17212e-67
4.62478e-64
2.38532e-61
1.09528e-58
4.2851e-56
1.35947e-53
3.51206e-51
7.43001e-49
1.29313e-46
1.85812e-44
2.21036e-42
2.18361e-40
1.82434e-38
1.29564e-36
7.89903e-35
4.11242e-33
1.80456e-31
6.51613e-30
1.87894e-28
4.17514e-27
6.90036e-26
8.224e-25
6.89926e-24
3.98697e-23
1.52023e-22
3.46409e-22
3.68613e-22
2.05427e-22
4.87121e-23
4.78767e-24
2.02348e-25
6.23306e-27
1.78297e-28
4.98756e-30
1.38374e-31
3.73072e-33
9.30378e-35
2.00436e-36
3.43375e-38
8.56174e-40
8.03705e-98
3.50983e-93
4.06044e-89
2.10395e-85
6.24637e-82
1.21559e-78
1.68727e-75
1.7691e-72
1.46007e-69
9.78442e-67
5.46117e-64
2.60381e-61
1.09961e-58
4.20508e-56
1.40107e-53
3.88093e-51
8.79703e-49
1.63982e-46
2.52382e-44
3.21677e-42
3.40214e-40
2.98947e-38
2.18471e-36
1.34267e-34
7.0175e-33
3.14665e-31
1.20779e-29
3.89247e-28
1.02458e-26
2.12429e-25
3.3378e-24
3.8405e-23
3.15182e-22
1.80918e-21
7.03042e-21
1.70368e-20
2.0573e-20
1.39109e-20
4.22445e-21
5.64519e-22
3.1127e-23
1.12827e-24
3.84395e-26
1.30399e-27
4.44637e-29
1.47553e-30
4.48733e-32
1.16238e-33
2.3594e-35
4.58595e-37
1.63598e-94
6.61051e-90
6.73197e-86
3.05022e-82
7.88374e-79
1.33107e-75
1.59838e-72
1.44663e-69
1.02878e-66
5.93014e-64
2.83868e-61
1.1524e-58
4.06111e-56
1.2921e-53
3.67645e-51
8.93069e-49
1.78491e-46
2.94416e-44
4.0223e-42
4.5633e-40
4.30603e-38
3.3821e-36
2.21118e-34
1.2032e-32
5.47894e-31
2.11445e-29
7.01977e-28
1.98999e-26
4.71248e-25
9.006e-24
1.33278e-22
1.46944e-21
1.17167e-20
6.62873e-20
2.59837e-19
6.61354e-19
8.9511e-19
7.24318e-19
2.78154e-19
5.12779e-20
3.86673e-21
1.68229e-22
6.9975e-24
2.94741e-25
1.25454e-26
5.15693e-28
1.91581e-29
5.98172e-31
1.44841e-32
2.7282e-34
2.52167e-91
9.24566e-87
8.29965e-83
3.30465e-79
7.48569e-76
1.10495e-72
1.15738e-69
9.11783e-67
5.63377e-64
2.81692e-61
1.16741e-58
4.0886e-56
1.23264e-53
3.27867e-51
7.91549e-49
1.67186e-46
2.95795e-44
4.33253e-42
5.27004e-40
5.33573e-38
4.50257e-36
3.16818e-34
1.8582e-32
9.07594e-31
3.68748e-29
1.2487e-27
3.57572e-26
8.80117e-25
1.84451e-23
3.20055e-22
4.40903e-21
4.6165e-20
3.54882e-19
1.96249e-18
7.6766e-18
2.02489e-17
3.02909e-17
2.88549e-17
1.37567e-17
3.49666e-18
3.77729e-19
2.00356e-20
1.02756e-21
5.39485e-23
2.87227e-24
1.47068e-25
6.75516e-27
2.58941e-28
7.65657e-30
1.62746e-31
2.97318e-88
9.7061e-84
7.69932e-80
2.70749e-76
5.41023e-73
7.03465e-70
6.47976e-67
4.48066e-64
2.4253e-61
1.06033e-58
3.83503e-56
1.16914e-53
3.05145e-51
6.93174e-49
1.40799e-46
2.56612e-44
4.0287e-42
5.25508e-40
5.70533e-38
5.16568e-36
3.90479e-34
2.46492e-32
1.2987e-30
5.70409e-29
2.0848e-27
6.32922e-26
1.59627e-24
3.39703e-23
6.20302e-22
9.59831e-21
1.21269e-19
1.19269e-18
8.76164e-18
4.69441e-17
1.81222e-16
4.88445e-16
7.9538e-16
8.75463e-16
5.06575e-16
1.75093e-16
2.82831e-17
1.93502e-18
1.23518e-19
8.06933e-21
5.41495e-22
3.51343e-23
2.03729e-24
9.78638e-26
3.60093e-27
9.26224e-29
2.7057e-85
7.78255e-81
5.45957e-77
1.70206e-73
3.0175e-70
3.48041e-67
2.84134e-64
1.73866e-61
8.31035e-59
3.20017e-56
1.01674e-53
2.71516e-51
6.18549e-49
1.21808e-46
2.10624e-44
3.29069e-42
4.53007e-40
5.27458e-38
5.12144e-36
4.15346e-34
2.81595e-32
1.59616e-30
7.55935e-29
2.98724e-27
9.83094e-26
2.68805e-24
6.09263e-23
1.14425e-21
1.80836e-20
2.44888e-19
2.78501e-18
2.53738e-17
1.76311e-16
9.06719e-16
3.41574e-15
9.27202e-15
1.61701e-14
2.01483e-14
1.37945e-14
6.33592e-15
1.56349e-15
1.52809e-16
1.25746e-17
1.06357e-18
9.25694e-20
7.6621e-21
5.55462e-22
3.28772e-23
1.47878e-24
4.60847e-26
1.91599e-82
4.81507e-78
2.98389e-74
8.2605e-71
1.30391e-67
1.34073e-64
9.76009e-62
5.32228e-59
2.26388e-56
7.74224e-54
2.17905e-51
5.14011e-49
1.03088e-46
1.77831e-44
2.66822e-42
3.54117e-40
4.22404e-38
4.39189e-36
3.81995e-34
2.77838e-32
1.69097e-30
8.61118e-29
3.66651e-27
1.30349e-25
3.86174e-24
9.51072e-23
1.94178e-21
3.27834e-20
4.57647e-19
5.36333e-18
5.37256e-17
4.45311e-16
2.89075e-15
1.41264e-14
5.13496e-14
1.38359e-13
2.54049e-13
3.50544e-13
2.76372e-13
1.6404e-13
6.06077e-14
9.10707e-15
9.6966e-16
1.06668e-16
1.1896e-17
1.23473e-18
1.10681e-19
8.05177e-21
4.44589e-22
1.69979e-23
1.06339e-79
2.32494e-75
1.27125e-71
3.12776e-68
4.40729e-65
4.05617e-62
2.64631e-59
1.29347e-56
4.92711e-54
1.50624e-51
3.77987e-49
7.92649e-47
1.40883e-44
2.14637e-42
2.82928e-40
3.25849e-38
3.33676e-36
3.03883e-34
2.36948e-32
1.54709e-30
8.45749e-29
3.87023e-27
1.48131e-25
4.73543e-24
1.26196e-22
2.79681e-21
5.14038e-20
7.81142e-19
9.78954e-18
1.01234e-16
8.77798e-16
6.4676e-15
3.86026e-14
1.77277e-13
6.14903e-13
1.62143e-12
3.07985e-12
4.59764e-12
4.05954e-12
3.02337e-12
1.58498e-12
3.77998e-13
5.24656e-14
7.575e-15
1.10267e-15
1.48034e-16
1.70315e-17
1.58146e-18
1.11056e-19
5.38378e-21
4.65175e-77
8.84709e-73
4.26281e-69
9.3136e-66
1.17195e-62
9.67131e-60
5.67334e-57
2.49702e-54
8.56696e-52
2.35662e-49
5.3108e-47
9.97197e-45
1.58136e-42
2.14104e-40
2.49643e-38
2.52526e-36
2.23539e-34
1.76388e-32
1.22221e-30
7.16762e-29
3.52068e-27
1.44768e-25
4.9787e-24
1.43003e-22
3.4241e-21
6.81897e-20
1.12641e-18
1.5387e-17
1.73262e-16
1.60433e-15
1.2235e-14
7.82143e-14
4.1992e-13
1.78877e-12
5.85588e-12
1.49081e-11
2.87744e-11
4.53567e-11
4.36198e-11
3.96021e-11
2.75305e-11
1.04109e-11
2.00689e-12
3.99842e-13
7.78551e-14
1.36029e-14
2.01447e-15
2.41907e-16
2.23712e-17
1.46839e-18
1.59904e-74
2.66364e-70
1.13433e-66
2.20266e-63
2.47528e-60
1.83216e-57
9.67466e-55
3.84301e-52
1.19172e-49
2.96379e-47
6.03263e-45
1.0209e-42
1.4545e-40
1.76233e-38
1.83082e-36
1.64134e-34
1.27691e-32
8.68718e-31
5.24954e-29
2.75918e-27
1.21788e-25
4.49875e-24
1.38931e-22
3.58182e-21
7.69505e-20
1.37457e-18
2.03641e-17
2.49486e-16
2.5194e-15
2.09009e-14
1.42147e-13
7.95254e-13
3.73006e-12
1.448e-11
4.42547e-11
1.07416e-10
2.06927e-10
3.35961e-10
3.42362e-10
3.68713e-10
3.16807e-10
1.7949e-10
5.29821e-11
1.45253e-11
3.85813e-12
9.45658e-13
2.06537e-13
3.87408e-14
5.8579e-15
6.37419e-16
4.24339e-72
6.28459e-68
2.39063e-64
4.15298e-61
4.18228e-58
2.78063e-55
1.32246e-52
4.7439e-50
1.33132e-47
3.00023e-45
5.53462e-43
8.47976e-41
1.09129e-38
1.19033e-36
1.10854e-34
8.86706e-33
6.12123e-31
3.66285e-29
1.91433e-27
8.81181e-26
3.49305e-24
1.15864e-22
3.21056e-21
7.42091e-20
1.42823e-18
2.28394e-17
3.02743e-16
3.31723e-15
2.99528e-14
2.22101e-13
1.34779e-12
6.68542e-12
2.73132e-11
9.38771e-11
2.64595e-10
6.0551e-10
1.14371e-09
1.86552e-09
1.95881e-09
2.43766e-09
2.40614e-09
1.82316e-09
8.23212e-10
3.16972e-10
1.20888e-10
4.3232e-11
1.37466e-11
3.67727e-12
7.67657e-13
1.11218e-13
8.41426e-70
1.13061e-65
3.91084e-62
6.16658e-59
5.62484e-56
3.38277e-53
1.45482e-50
4.72191e-48
1.20035e-45
2.45322e-43
4.1073e-41
5.71104e-39
6.66254e-37
6.57224e-35
5.51575e-33
3.95807e-31
2.43863e-29
1.29443e-27
5.9393e-26
2.37316e-24
8.28765e-23
2.46625e-21
6.12662e-20
1.26805e-18
2.18279e-17
3.1186e-16
3.68961e-15
3.60535e-14
2.90117e-13
1.91594e-12
1.03458e-11
4.55412e-11
1.63763e-10
4.90189e-10
1.24661e-09
2.66414e-09
4.8491e-09
7.75053e-09
8.12419e-09
1.1344e-08
1.18268e-08
1.09374e-08
7.12429e-09
3.70049e-09
1.82704e-09
8.3119e-10
3.3215e-10
1.10265e-10
2.82512e-11
4.97184e-12
1.20415e-67
1.4997e-63
4.81842e-60
7.03635e-57
5.9184e-54
3.26733e-51
1.28468e-48
3.79999e-46
8.78446e-44
1.63072e-41
2.47871e-39
3.12828e-37
3.31082e-35
2.95932e-33
2.24543e-31
1.45186e-29
8.02408e-28
3.80029e-26
1.54575e-24
5.4123e-23
1.6428e-21
4.32768e-20
9.6273e-19
1.78222e-17
2.73977e-16
3.49061e-15
3.6776e-14
3.19607e-13
2.28459e-12
1.33871e-11
6.40637e-11
2.49485e-10
7.90669e-10
2.07168e-09
4.62616e-09
9.12278e-09
1.57422e-08
2.39918e-08
2.40938e-08
3.60654e-08
3.60561e-08
3.90731e-08
3.17349e-08
2.12731e-08
1.21967e-08
6.35023e-09
2.84289e-09
1.0654e-09
3.1179e-10
6.31788e-11
1.18604e-65
1.39533e-61
4.24858e-58
5.86883e-55
4.6515e-52
2.40757e-49
8.82458e-47
2.41882e-44
5.15188e-42
8.76689e-40
1.21648e-37
1.39718e-35
1.3427e-33
1.08786e-31
7.4687e-30
4.35952e-28
2.16817e-26
9.20182e-25
3.33674e-23
1.035e-21
2.75013e-20
6.30176e-19
1.2433e-17
2.05633e-16
2.81971e-15
3.19879e-14
2.99573e-13
2.31047e-12
1.46332e-11
7.5846e-11
3.20395e-10
1.0983e-09
3.05413e-09
7.01153e-09
1.3668e-08
2.42745e-08
3.91405e-08
5.46864e-08
4.99002e-08
7.36203e-08
5.05018e-08
7.00742e-08
4.4103e-08
2.73178e-08
3.96461e-08
2.50942e-08
1.26601e-08
5.00406e-09
1.53212e-09
3.28823e-10
7.78482e-64
8.78235e-60
2.57525e-56
3.42521e-53
2.60818e-50
1.29228e-47
4.51213e-45
1.17111e-42
2.34575e-40
3.72606e-38
4.78984e-36
5.06021e-34
4.44485e-32
3.27466e-30
2.03613e-28
1.07298e-26
4.80411e-25
1.82993e-23
5.93349e-22
1.63817e-20
3.85196e-19
7.71794e-18
1.32616e-16
1.94749e-15
2.38049e-14
2.40286e-13
1.9986e-12
1.36656e-11
7.65946e-11
3.50608e-10
1.30391e-09
3.91343e-09
9.46214e-09
1.88743e-08
3.21767e-08
5.08933e-08
7.49875e-08
8.90239e-08
7.14928e-08
8.58159e-08
6.15977e-07
3.11669e-06
3.75118e-06
2.15212e-06
2.25446e-08
1.63896e-08
1.51058e-08
8.19233e-09
3.22756e-09
8.34755e-10
3.31691e-62
3.63032e-58
1.03777e-54
1.34713e-51
1.00059e-48
4.82669e-46
1.63565e-43
4.10222e-41
7.89492e-39
1.19662e-36
1.45604e-34
1.4431e-32
1.17816e-30
7.99366e-29
4.539e-27
2.16878e-25
8.75493e-24
2.99376e-22
8.68396e-21
2.13772e-19
4.4653e-18
7.91109e-17
1.1882e-15
1.5221e-14
1.65475e-13
1.48708e-12
1.09937e-11
6.67071e-11
3.31281e-10
1.34081e-09
4.38862e-09
1.14703e-08
2.3827e-08
4.01612e-08
6.01694e-08
8.65284e-08
1.13387e-07
9.37832e-08
8.15182e-08
3.6235e-07
1.78585e-06
3.58437e-06
2.14015e-05
2.21616e-05
2.23112e-05
3.15483e-06
2.05948e-08
4.37416e-08
1.15424e-08
2.64004e-09
8.95121e-61
9.60789e-57
2.70634e-53
3.46773e-50
2.54317e-47
1.21033e-44
4.03906e-42
9.94664e-40
1.87204e-37
2.76022e-35
3.24583e-33
3.08456e-31
2.39267e-29
1.52682e-27
8.06644e-26
3.54751e-24
1.30487e-22
4.03071e-21
1.04905e-19
2.30572e-18
4.28506e-17
6.73541e-16
8.9501e-15
1.00451e-13
9.55931e-13
7.66136e-12
5.04967e-11
2.72931e-10
1.20644e-09
4.33762e-09
1.25145e-08
2.82923e-08
5.04898e-08
6.69159e-08
8.88896e-08
1.24033e-07
1.44514e-07
2.36251e-07
9.78455e-08
9.03885e-07
2.08538e-06
1.61351e-06
3.96871e-06
2.17381e-05
2.24612e-05
2.2486e-05
3.2079e-06
3.65355e-08
2.98149e-08
6.19255e-09
1.45853e-59
1.56031e-55
4.39995e-52
5.65196e-49
4.15558e-46
1.9808e-43
6.6083e-41
1.62244e-38
3.03325e-36
4.42222e-34
5.11318e-32
4.7459e-30
3.56752e-28
2.18638e-26
1.09818e-24
4.54095e-23
1.55216e-21
4.40359e-20
1.04123e-18
2.0602e-17
3.42333e-16
4.78995e-15
5.65165e-14
5.62336e-13
4.71624e-12
3.33807e-11
1.97172e-10
9.55079e-10
3.78285e-09
1.21414e-08
3.0711e-08
5.91794e-08
9.82593e-08
7.35781e-08
9.74795e-08
1.59626e-07
1.72801e-07
1.90433e-07
6.25223e-07
8.77987e-07
6.69898e-07
5.89841e-07
5.86454e-07
5.75208e-07
2.16042e-05
2.24852e-05
7.0865e-06
5.06261e-08
2.86501e-08
7.89065e-09
1.2808e-58
1.40067e-54
4.06058e-51
5.36927e-48
4.06163e-45
1.98842e-42
6.79452e-40
1.70228e-37
3.23262e-35
4.76074e-33
5.52504e-31
5.11011e-29
3.79704e-27
2.27992e-25
1.11117e-23
4.41176e-22
1.43173e-20
3.81077e-19
8.35068e-18
1.51323e-16
2.27882e-15
2.86636e-14
3.02452e-13
2.6844e-12
2.00454e-11
1.25975e-10
6.64466e-10
2.89494e-09
1.02879e-08
2.92034e-08
6.18311e-08
7.39931e-08
1.57501e-07
7.02158e-07
2.37318e-07
1.68459e-07
1.82584e-07
3.42475e-07
1.13628e-06
7.67137e-07
6.51738e-07
6.09695e-07
5.77019e-07
5.71509e-07
1.60084e-05
2.24828e-05
2.17466e-05
7.41023e-09
2.31303e-08
9.46549e-09
5.10446e-58
5.88416e-54
1.81517e-50
2.56085e-47
2.06692e-44
1.07789e-41
3.91166e-39
1.03638e-36
2.06991e-34
3.18493e-32
3.83209e-30
3.64267e-28
2.75522e-26
1.6667e-24
8.09412e-23
3.16546e-21
9.99728e-20
2.55732e-18
5.31655e-17
9.02062e-16
1.25563e-14
1.44273e-13
1.37738e-12
1.09888e-11
7.34785e-11
4.11144e-10
1.92089e-09
7.43513e-09
2.32989e-08
5.63197e-08
6.88946e-08
1.07219e-06
6.97159e-06
1.08464e-05
7.0313e-06
9.14442e-07
1.88596e-07
4.12984e-07
1.17542e-06
8.07525e-07
7.22491e-07
7.91881e-07
6.81556e-07
5.94706e-07
1.50551e-05
2.24828e-05
1.9691e-05
7.29223e-09
7.40802e-09
2.77119e-09
7.59528e-58
9.53499e-54
3.25218e-50
5.09918e-47
4.58071e-44
2.65684e-41
1.06972e-38
3.13175e-36
6.8732e-34
1.15395e-31
1.50225e-29
1.53017e-27
1.22691e-25
7.77615e-24
3.90765e-22
1.56075e-20
4.96612e-19
1.26195e-17
2.56859e-16
4.20315e-15
5.55503e-14
5.96267e-13
5.23049e-12
3.77263e-11
2.24767e-10
1.10727e-09
4.49266e-09
1.49349e-08
4.10051e-08
9.63658e-08
1.0583e-07
6.71123e-06
1.19986e-05
1.19953e-05
1.19937e-05
3.68279e-06
1.95467e-07
4.71565e-07
4.49045e-06
7.22302e-06
1.62058e-06
2.77219e-06
1.68509e-06
8.22574e-07
1.11168e-05
1.73643e-05
1.04374e-06
8.2589e-09
1.18452e-08
-4.75804e-09
3.43509e-58
4.8843e-54
1.93105e-50
3.53777e-47
3.72511e-44
2.5336e-41
1.19412e-38
4.07672e-36
1.03725e-33
2.00317e-31
2.97101e-29
3.40927e-27
3.04111e-25
2.11513e-23
1.14946e-21
4.88908e-20
1.63012e-18
4.26798e-17
8.79308e-16
1.42924e-14
1.8387e-13
1.8793e-12
1.53243e-11
1.00115e-10
5.26047e-10
2.23076e-09
7.67658e-09
2.18665e-08
5.42484e-08
1.24156e-07
1.55075e-07
6.99615e-06
1.20012e-05
1.19967e-05
1.14098e-05
2.80115e-06
2.14829e-07
3.49489e-07
3.62492e-05
8.81687e-05
0.000141136
0.000276988
1.76451e-05
1.35867e-06
2.10357e-06
1.92586e-06
1.43941e-06
2.91584e-08
3.9764e-07
9.11859e-06
3.48884e-59
5.89619e-55
2.86196e-51
6.49521e-48
8.51695e-45
7.23761e-42
4.26562e-39
1.81693e-36
5.73481e-34
1.36137e-31
2.45151e-29
3.36491e-27
3.52987e-25
2.83456e-23
1.74451e-21
8.23792e-20
2.98881e-18
8.34528e-17
1.79711e-15
2.99273e-14
3.86657e-13
3.89016e-12
3.05988e-11
1.88879e-10
9.17936e-10
3.52258e-09
1.07258e-08
2.62548e-08
5.31696e-08
8.97385e-08
1.90046e-07
1.36801e-07
4.20594e-06
7.31216e-06
1.40813e-06
8.7234e-07
6.00146e-06
1.82214e-06
8.51377e-06
0.000208514
0.000624413
0.00116675
2.1908e-05
1.88165e-06
2.81119e-06
2.84167e-06
1.90908e-06
0.0477534
0.0922638
0.118143
8.01201e-61
1.66283e-56
1.00721e-52
2.84987e-49
4.68595e-46
5.07054e-43
3.88191e-40
2.18844e-37
9.25801e-35
2.95628e-32
7.11837e-30
1.28777e-27
1.7437e-25
1.76231e-23
1.32759e-21
7.4537e-20
3.12208e-18
9.77496e-17
2.29393e-15
4.04923e-14
5.39947e-13
5.46621e-12
4.22516e-11
2.50954e-10
1.15377e-09
4.14342e-09
1.17738e-08
2.69676e-08
5.08558e-08
8.03991e-08
1.07269e-07
1.26671e-07
1.26747e-07
1.26954e-07
1.27861e-07
1.41901e-07
1.78011e-05
9.31837e-05
0.000192157
0.000274379
0.000412614
0.00150687
0.0452151
0.131665
0.310223
0.526761
0.735007
0.84528
0.886407
0.910192
7.43228e-63
1.91219e-58
1.4352e-54
4.91594e-51
9.6125e-48
1.23118e-44
1.12485e-41
7.71414e-39
4.08864e-36
1.70066e-33
5.54412e-31
1.39686e-28
2.66467e-26
3.76959e-24
3.89331e-22
2.90938e-20
1.56761e-18
6.09291e-17
1.71345e-15
3.50282e-14
5.23653e-13
5.76516e-12
4.71345e-11
2.89079e-10
1.34722e-09
4.85479e-09
1.38975e-08
3.25256e-08
6.35142e-08
1.00907e-07
1.35958e-07
1.73707e-07
1.7411e-07
1.5769e-07
1.47609e-07
1.54392e-07
7.40607e-06
0.000169547
0.000384761
0.000397064
0.00185222
0.196227
0.399973
0.72025
0.922877
1
1
1
1
1
3.80152e-65
1.25495e-60
1.22226e-56
5.26602e-53
1.25523e-49
1.90311e-46
2.03235e-43
1.62457e-40
1.00619e-37
4.92962e-35
1.91089e-32
5.82999e-30
1.40755e-27
2.67888e-25
4.02122e-23
4.4671e-21
3.52467e-19
1.94157e-17
7.43106e-16
1.98303e-14
3.71912e-13
4.95299e-12
4.7403e-11
3.30474e-10
1.70438e-09
6.62142e-09
1.98632e-08
4.81782e-08
9.52338e-08
1.02575e-07
1.28834e-07
2.795e-07
2.41463e-07
1.78592e-07
1.54157e-07
3.10575e-06
0.000197164
0.000194573
0.000510792
0.0171722
0.324152
0.65645
0.928989
0.999903
0.999998
1
1
1
1
1
1.28468e-67
5.98546e-63
8.55067e-59
4.98088e-55
1.52613e-51
2.81329e-48
3.55146e-45
3.30562e-42
2.36496e-39
1.33544e-36
5.98154e-34
2.11767e-31
6.0196e-29
1.36779e-26
2.45497e-24
3.34671e-22
3.36275e-20
2.61615e-18
1.54532e-16
6.21329e-15
1.65581e-13
2.95516e-12
3.59213e-11
3.02989e-10
1.80922e-09
7.83228e-09
2.54021e-08
6.68806e-08
7.62091e-08
1.87956e-06
5.13516e-06
4.5637e-06
1.79886e-06
1.90991e-07
1.99315e-07
9.25474e-05
0.000515107
0.000506641
0.0101362
0.422576
0.852255
0.996611
0.999929
0.999997
1
1
1
1
1
1
3.03719e-70
2.2405e-65
6.14063e-61
5.06833e-57
1.9005e-53
4.13464e-50
6.05145e-47
6.47491e-44
5.31114e-41
3.44291e-38
1.78043e-35
7.35153e-33
2.47718e-30
6.71613e-28
1.41983e-25
2.27425e-23
2.79785e-21
2.72384e-19
1.95868e-17
1.04217e-15
4.24215e-14
1.18157e-12
1.99267e-11
2.13849e-10
1.53043e-09
7.56678e-09
2.87291e-08
4.78071e-08
3.93887e-06
2.10219e-05
2.08048e-05
8.70415e-06
2.30187e-06
1.35797e-06
4.29371e-06
1.08089e-05
1.64988e-05
0.0201846
0.440091
0.984972
0.99947
0.999945
0.999997
1
1
1
1
1
1
1
5.81747e-73
9.76825e-68
4.53912e-63
4.89236e-59
2.20264e-55
5.58823e-52
9.40529e-49
1.15021e-45
1.07758e-42
7.9989e-40
4.76663e-37
2.29332e-34
9.13358e-32
2.9366e-29
7.30928e-27
1.39551e-24
2.14597e-22
2.64971e-20
2.43712e-18
1.97502e-16
1.43194e-14
6.02032e-13
1.56193e-11
2.48636e-10
2.51666e-09
1.88885e-08
6.75593e-08
7.38418e-07
1.75191e-05
2.23129e-05
1.60144e-05
3.39295e-06
4.47628e-06
1.42331e-06
0.000184298
1.64954e-05
0.000309344
0.364913
0.906869
0.999469
0.999943
0.999996
1
1
1
1
1
1
1
1
4.18295e-76
4.40885e-70
3.12995e-65
4.28526e-61
2.29658e-57
6.75482e-54
1.30188e-50
1.81456e-47
1.93821e-44
1.64594e-41
1.12951e-38
6.33004e-36
2.97629e-33
1.13338e-30
3.34643e-28
7.7016e-26
1.49638e-23
2.45917e-21
3.43936e-19
6.0758e-17
9.39377e-15
1.06968e-12
3.40934e-11
4.33847e-10
3.35024e-09
2.06349e-08
2.77969e-08
1.80453e-06
1.79353e-05
2.19233e-05
2.43965e-06
2.43847e-06
2.4567e-06
3.33404e-05
0.000272701
0.00257987
0.227191
0.740778
0.999286
0.999941
0.999994
1
1
1
1
1
1
1
1
1
3.61412e-79
1.85444e-72
1.93855e-67
3.33284e-63
2.1142e-59
7.17912e-56
1.57983e-52
2.50518e-49
3.04834e-46
2.9614e-43
2.34185e-40
1.53125e-37
8.51752e-35
3.85728e-32
1.36971e-29
3.86599e-27
9.7269e-25
2.40309e-22
6.26178e-20
2.36299e-17
5.9216e-15
1.26137e-12
4.93443e-11
6.35347e-10
3.68656e-09
1.62664e-08
2.36704e-08
1.83529e-06
1.62252e-05
1.98567e-05
2.43756e-06
2.44352e-06
2.52283e-06
4.95191e-06
2.21386e-05
0.0891298
0.488603
0.982478
0.999976
0.999997
1
1
1
1
1
1
1
1
1
1
3.71492e-82
6.96757e-75
1.05447e-69
2.25944e-65
1.68782e-61
6.59084e-58
1.65153e-54
2.97504e-51
4.12218e-48
4.58431e-45
4.18649e-42
3.20611e-39
2.11988e-36
1.15154e-33
5.01564e-31
1.77893e-28
6.08937e-26
2.62611e-23
1.28135e-20
8.0405e-18
2.83748e-15
9.24596e-13
4.34889e-11
6.32907e-10
3.55093e-09
1.05379e-08
2.25608e-08
1.38847e-06
1.69038e-05
1.79844e-05
2.44147e-06
2.46458e-06
2.79913e-06
2.25857e-05
4.83398e-05
0.196481
0.834921
0.999993
0.999999
1
1
1
1
1
1
1
1
1
1
1
4.13864e-85
2.28072e-77
4.93255e-72
1.30722e-67
1.14315e-63
5.10977e-60
1.45326e-56
2.96843e-53
4.68124e-50
5.96638e-47
6.31507e-44
5.69731e-41
4.50691e-38
2.97251e-35
1.62656e-32
7.46592e-30
3.74335e-27
2.99142e-24
2.3925e-21
2.13485e-18
1.02428e-15
4.69418e-13
2.64666e-11
4.42301e-10
2.72172e-09
7.62928e-09
2.56784e-08
9.7258e-08
8.29823e-06
1.84918e-05
3.11193e-06
2.54939e-06
4.05076e-06
0.000169793
0.000323334
0.462659
0.969971
1
1
1
1
1
1
1
1
1
1
1
1
1
4.5075e-88
6.35835e-80
1.93628e-74
6.28318e-70
6.38031e-66
3.24339e-62
1.04184e-58
2.40521e-55
4.31069e-52
6.30221e-49
7.76609e-46
8.30954e-43
7.91881e-40
6.43129e-37
4.52816e-34
2.77679e-31
2.20051e-28
3.06827e-25
3.60705e-22
4.2721e-19
2.7806e-16
1.7229e-13
1.17278e-11
2.28446e-10
1.59613e-09
4.86338e-09
1.38652e-08
2.76011e-08
3.63956e-08
1.18096e-05
5.04817e-06
1.78999e-06
3.31057e-08
-3.94058e-06
0.0130463
0.731951
1
1
1
1
1
1
1
1
1
1
1
1
1
1
4.47308e-91
1.47139e-82
6.18219e-77
2.41933e-72
2.81676e-68
1.61088e-64
5.7917e-61
1.50062e-57
3.04228e-54
5.09553e-51
7.33492e-48
9.35854e-45
1.08045e-41
1.09544e-38
1.01187e-35
8.57744e-33
1.12572e-29
2.46477e-26
4.03982e-23
6.17516e-20
5.50506e-17
4.53059e-14
3.77424e-12
8.73014e-11
7.10311e-10
2.47199e-09
6.82223e-09
1.30219e-08
4.64031e-08
8.57575e-08
5.94871e-07
4.44641e-07
1.331e-08
1.61055e-08
0.103422
0.911053
1
1
1
1
1
1
1
1
1
1
1
1
1
1
1.53691e-93
2.98475e-85
1.84687e-79
1.02616e-74
1.63008e-70
1.15885e-66
4.6848e-63
1.24626e-59
2.44345e-56
3.88978e-53
5.56817e-50
7.64328e-47
1.02435e-43
1.29933e-40
1.59437e-37
1.94046e-34
4.24143e-31
1.33984e-27
3.01822e-24
5.91827e-21
7.35034e-18
8.0097e-15
8.33223e-13
2.34492e-11
2.28237e-10
9.35009e-10
2.74092e-09
6.49841e-09
1.72629e-08
4.1047e-08
3.55664e-08
2.6259e-08
7.1268e-09
7.88672e-09
0.210875
0.989281
1
1
1
1
1
1
1
1
1
1
1
1
1
1
7.83378e-91
1.37676e-83
1.34909e-77
1.25023e-72
2.84547e-68
2.53897e-64
1.16787e-60
3.27905e-57
6.10034e-54
8.01861e-51
7.78368e-48
5.77372e-45
3.3137e-42
1.47149e-39
4.99414e-37
1.39403e-34
4.37316e-32
4.74335e-29
1.22443e-25
3.09802e-22
5.51423e-19
8.07357e-16
1.08306e-13
3.84224e-12
4.63738e-11
2.30839e-10
7.64492e-10
2.32902e-09
6.31691e-09
1.31878e-08
1.87487e-08
2.16609e-08
5.95489e-09
7.31056e-09
0.323885
1
1
1
1
1
1
1
1
1
1
1
1
1
1
1
4.99814e-88
4.88141e-81
3.89617e-75
3.61814e-70
8.53464e-66
7.55534e-62
3.25584e-58
8.14238e-55
1.34899e-51
1.60401e-48
1.45662e-45
1.04987e-42
6.13797e-40
2.93908e-37
1.16322e-34
3.92163e-32
1.23628e-29
3.98277e-27
1.13759e-24
3.09692e-22
1.2264e-19
4.49285e-17
6.26746e-15
2.84412e-13
4.44053e-12
2.81527e-11
1.18052e-10
4.52824e-10
1.36309e-09
2.9482e-09
4.6213e-09
5.87703e-09
5.87705e-09
1.2025e-08
0.379077
1
1
1
1
1
1
1
1
1
1
1
1
1
1
1
2.24578e-84
1.1113e-83
1.5914e-81
1.93213e-79
1.93667e-77
1.55272e-75
9.60534e-74
4.60385e-72
1.78761e-70
9.46197e-69
1.60734e-66
3.54639e-64
6.33504e-62
9.28169e-60
1.46659e-57
2.46151e-55
4.16307e-53
2.49153e-51
5.10047e-50
2.99536e-49
5.69355e-49
3.92716e-49
1.1954e-49
1.94413e-50
1.85256e-51
1.07761e-52
3.87848e-54
8.85976e-56
1.3328e-57
1.40126e-59
1.10036e-61
6.58953e-64
3.01993e-66
1.07639e-68
3.087e-71
7.19935e-74
1.39602e-76
2.25042e-79
3.00041e-82
3.22015e-85
3.07743e-88
2.43581e-91
1.53505e-94
7.64299e-98
2.98382e-101
8.87404e-105
1.8843e-108
2.49729e-112
1.60705e-116
3.56454e-120
1.27243e-77
1.14247e-75
7.828e-74
4.48198e-72
2.22669e-70
8.41691e-69
2.48186e-67
6.78776e-66
3.83664e-64
4.61382e-62
5.22702e-60
4.69705e-58
3.35349e-56
2.02558e-54
1.2435e-52
9.90311e-51
9.00594e-49
4.06538e-47
6.58918e-46
3.01706e-45
4.85971e-45
3.10105e-45
9.24729e-46
1.51233e-46
1.45994e-47
8.59187e-49