/*--------------------------------*- C++ -*----------------------------------*\
| =========                 |                                                 |
| \\      /  F ield         | OpenFOAM: The Open Source CFD Toolbox           |
|  \\    /   O peration     | Version:  2.4.0                                 |
|   \\  /    A nd           | Web:      www.OpenFOAM.org                      |
|    \\/     M anipulation  |                                                 |
\*---------------------------------------------------------------------------*/
FoamFile
{
    version     2.0;
    format      ascii;
    class       volVectorField;
    location    "0.089";
    object      U;
}
// * * * * * * * * * * * * * * * * * * * * * * * * * * * * * * * * * * * * * //

dimensions      [0 1 -1 0 0 0 0];

internalField   nonuniform List<vector> 
60000
(
(-4.23216e-08 1.90963e-08 0)
(-1.44941e-07 1.42645e-08 0)
(-2.67714e-07 1.88953e-08 0)
(-4.02205e-07 1.84374e-08 0)
(-5.39112e-07 1.87985e-08 0)
(-6.73494e-07 1.88479e-08 0)
(-8.08352e-07 1.86007e-08 0)
(-9.4202e-07 1.84403e-08 0)
(-1.07489e-06 1.82238e-08 0)
(-1.20676e-06 1.80225e-08 0)
(-1.33771e-06 1.78173e-08 0)
(-1.46778e-06 1.75853e-08 0)
(-1.59693e-06 1.73206e-08 0)
(-1.72497e-06 1.69724e-08 0)
(-1.85156e-06 1.65439e-08 0)
(-1.97634e-06 1.60201e-08 0)
(-2.09896e-06 1.54791e-08 0)
(-2.21927e-06 1.49119e-08 0)
(-2.33739e-06 1.44169e-08 0)
(-2.45346e-06 1.39551e-08 0)
(-2.56751e-06 1.34514e-08 0)
(-2.67981e-06 1.30823e-08 0)
(-2.79053e-06 1.27033e-08 0)
(-2.89971e-06 1.23743e-08 0)
(-3.00745e-06 1.20366e-08 0)
(-3.11362e-06 1.17414e-08 0)
(-3.21797e-06 1.12867e-08 0)
(-3.32019e-06 1.08188e-08 0)
(-3.41973e-06 1.01875e-08 0)
(-3.51603e-06 9.35459e-09 0)
(-3.60829e-06 8.346e-09 0)
(-3.69543e-06 6.94871e-09 0)
(-3.77595e-06 5.23167e-09 0)
(-3.84807e-06 3.10281e-09 0)
(-3.90973e-06 5.31213e-10 0)
(-3.95837e-06 -2.58298e-09 0)
(-3.99118e-06 -6.25147e-09 0)
(-4.00558e-06 -1.04926e-08 0)
(-3.99918e-06 -1.50476e-08 0)
(-3.96954e-06 -1.98262e-08 0)
(-3.91445e-06 -2.48425e-08 0)
(-3.83189e-06 -3.02158e-08 0)
(-3.72019e-06 -3.58139e-08 0)
(-3.57778e-06 -4.14326e-08 0)
(-3.40367e-06 -4.72234e-08 0)
(-3.19822e-06 -5.25792e-08 0)
(-2.96182e-06 -5.77276e-08 0)
(-2.69469e-06 -6.26315e-08 0)
(-2.39839e-06 -6.68542e-08 0)
(-2.07506e-06 -7.04552e-08 0)
(-1.72659e-06 -7.34738e-08 0)
(-1.35514e-06 -7.58388e-08 0)
(-9.62967e-07 -7.761e-08 0)
(-5.52756e-07 -7.86292e-08 0)
(-1.27722e-07 -7.89067e-08 0)
(3.08894e-07 -7.85166e-08 0)
(7.53745e-07 -7.73775e-08 0)
(1.20308e-06 -7.56304e-08 0)
(1.65332e-06 -7.31991e-08 0)
(2.1011e-06 -7.01937e-08 0)
(2.54308e-06 -6.67368e-08 0)
(2.97581e-06 -6.26721e-08 0)
(3.39616e-06 -5.82988e-08 0)
(3.80173e-06 -5.37406e-08 0)
(4.19032e-06 -4.89116e-08 0)
(4.56001e-06 -4.39082e-08 0)
(4.9091e-06 -3.88487e-08 0)
(5.23634e-06 -3.3683e-08 0)
(5.54051e-06 -2.85181e-08 0)
(5.82121e-06 -2.37358e-08 0)
(6.07856e-06 -1.91709e-08 0)
(6.31207e-06 -1.47194e-08 0)
(6.52177e-06 -1.06122e-08 0)
(6.70778e-06 -6.94146e-09 0)
(6.87044e-06 -3.41827e-09 0)
(7.00984e-06 -1.06761e-10 0)
(7.12653e-06 2.8606e-09 0)
(7.22086e-06 5.65493e-09 0)
(7.29323e-06 8.2402e-09 0)
(7.34402e-06 1.07623e-08 0)
(7.37266e-06 1.33418e-08 0)
(7.3791e-06 1.60827e-08 0)
(7.36185e-06 1.83277e-08 0)
(7.31881e-06 2.09363e-08 0)
(7.24861e-06 2.37412e-08 0)
(7.14938e-06 2.71033e-08 0)
(7.01866e-06 3.08485e-08 0)
(6.85382e-06 3.50108e-08 0)
(6.65247e-06 3.95704e-08 0)
(6.41251e-06 4.43165e-08 0)
(6.13221e-06 4.92762e-08 0)
(5.81037e-06 5.43394e-08 0)
(5.4472e-06 5.91454e-08 0)
(5.04003e-06 6.49278e-08 0)
(4.6085e-06 6.51696e-08 0)
(4.08608e-06 8.34933e-08 0)
(3.63196e-06 6.46959e-08 0)
(2.97859e-06 1.01298e-07 0)
(2.48496e-06 8.0299e-08 0)
(1.83094e-06 1.05072e-07 0)
(-4.48388e-08 7.90751e-08 0)
(-2.21011e-07 1.01088e-07 0)
(-4.65534e-07 1.19288e-07 0)
(-7.07199e-07 1.22802e-07 0)
(-9.61021e-07 1.22901e-07 0)
(-1.20672e-06 1.22575e-07 0)
(-1.45382e-06 1.21854e-07 0)
(-1.69923e-06 1.21198e-07 0)
(-1.94398e-06 1.20412e-07 0)
(-2.18762e-06 1.19647e-07 0)
(-2.43027e-06 1.18922e-07 0)
(-2.67205e-06 1.18233e-07 0)
(-2.91309e-06 1.17482e-07 0)
(-3.15331e-06 1.16496e-07 0)
(-3.39253e-06 1.15263e-07 0)
(-3.6305e-06 1.13704e-07 0)
(-3.86678e-06 1.11937e-07 0)
(-4.10112e-06 1.1011e-07 0)
(-4.33356e-06 1.08472e-07 0)
(-4.5641e-06 1.06862e-07 0)
(-4.79285e-06 1.05274e-07 0)
(-5.02013e-06 1.04037e-07 0)
(-5.24601e-06 1.02725e-07 0)
(-5.47045e-06 1.01537e-07 0)
(-5.69359e-06 1.00336e-07 0)
(-5.91501e-06 9.89548e-08 0)
(-6.13458e-06 9.73339e-08 0)
(-6.35208e-06 9.54455e-08 0)
(-6.56677e-06 9.30555e-08 0)
(-6.77836e-06 9.02253e-08 0)
(-6.98597e-06 8.66401e-08 0)
(-7.18856e-06 8.20605e-08 0)
(-7.38449e-06 7.60731e-08 0)
(-7.57142e-06 6.85561e-08 0)
(-7.74653e-06 5.90592e-08 0)
(-7.90628e-06 4.72708e-08 0)
(-8.04687e-06 3.30593e-08 0)
(-8.16468e-06 1.6717e-08 0)
(-8.25624e-06 -1.53486e-09 0)
(-8.31844e-06 -2.13876e-08 0)
(-8.34794e-06 -4.29739e-08 0)
(-8.34114e-06 -6.67561e-08 0)
(-8.29494e-06 -9.2134e-08 0)
(-8.20572e-06 -1.18849e-07 0)
(-8.07141e-06 -1.46336e-07 0)
(-7.89147e-06 -1.73132e-07 0)
(-7.66484e-06 -2.00303e-07 0)
(-7.39069e-06 -2.2715e-07 0)
(-7.06968e-06 -2.52258e-07 0)
(-6.70279e-06 -2.76018e-07 0)
(-6.29075e-06 -2.98435e-07 0)
(-5.83498e-06 -3.19078e-07 0)
(-5.33745e-06 -3.37992e-07 0)
(-4.80067e-06 -3.54431e-07 0)
(-4.228e-06 -3.68193e-07 0)
(-3.6231e-06 -3.79332e-07 0)
(-2.99003e-06 -3.87424e-07 0)
(-2.33343e-06 -3.92519e-07 0)
(-1.65818e-06 -3.94508e-07 0)
(-9.69279e-07 -3.93411e-07 0)
(-2.71672e-07 -3.89318e-07 0)
(4.29262e-07 -3.82447e-07 0)
(1.12828e-06 -3.72914e-07 0)
(1.82106e-06 -3.6125e-07 0)
(2.50343e-06 -3.47752e-07 0)
(3.17153e-06 -3.32404e-07 0)
(3.82193e-06 -3.15558e-07 0)
(4.45159e-06 -2.97475e-07 0)
(5.0571e-06 -2.78092e-07 0)
(5.63618e-06 -2.58756e-07 0)
(6.18713e-06 -2.38925e-07 0)
(6.70721e-06 -2.18308e-07 0)
(7.1943e-06 -1.97597e-07 0)
(7.64623e-06 -1.76917e-07 0)
(8.06138e-06 -1.5609e-07 0)
(8.43828e-06 -1.35296e-07 0)
(8.77621e-06 -1.14744e-07 0)
(9.07347e-06 -9.4341e-08 0)
(9.32919e-06 -7.4265e-08 0)
(9.54297e-06 -5.39092e-08 0)
(9.71218e-06 -3.29208e-08 0)
(9.83484e-06 -1.13832e-08 0)
(9.908e-06 1.11034e-08 0)
(9.9277e-06 3.51723e-08 0)
(9.88968e-06 6.15352e-08 0)
(9.78961e-06 8.98999e-08 0)
(9.62262e-06 1.20557e-07 0)
(9.38371e-06 1.53408e-07 0)
(9.06847e-06 1.88213e-07 0)
(8.673e-06 2.24708e-07 0)
(8.19384e-06 2.62523e-07 0)
(7.62867e-06 3.0108e-07 0)
(6.97778e-06 3.39389e-07 0)
(6.23609e-06 3.78187e-07 0)
(5.44356e-06 4.07131e-07 0)
(4.46843e-06 4.69241e-07 0)
(3.65347e-06 4.51778e-07 0)
(2.3935e-06 5.46016e-07 0)
(1.63929e-06 4.68117e-07 0)
(5.86495e-07 4.18129e-07 0)
(-3.93012e-08 1.45026e-07 0)
(-2.3616e-07 2.23918e-07 0)
(-5.29166e-07 2.55276e-07 0)
(-8.09703e-07 2.63763e-07 0)
(-1.10622e-06 2.6254e-07 0)
(-1.39334e-06 2.61334e-07 0)
(-1.68238e-06 2.60178e-07 0)
(-1.96961e-06 2.5918e-07 0)
(-2.25658e-06 2.57998e-07 0)
(-2.54274e-06 2.56771e-07 0)
(-2.82817e-06 2.55605e-07 0)
(-3.11292e-06 2.54607e-07 0)
(-3.39711e-06 2.53554e-07 0)
(-3.68075e-06 2.52256e-07 0)
(-3.96382e-06 2.5069e-07 0)
(-4.24616e-06 2.48674e-07 0)
(-4.52753e-06 2.46232e-07 0)
(-4.80777e-06 2.43714e-07 0)
(-5.08665e-06 2.4132e-07 0)
(-5.3641e-06 2.38936e-07 0)
(-5.64046e-06 2.36821e-07 0)
(-5.91579e-06 2.3505e-07 0)
(-6.19017e-06 2.33228e-07 0)
(-6.46382e-06 2.31571e-07 0)
(-6.73663e-06 2.29885e-07 0)
(-7.00849e-06 2.27722e-07 0)
(-7.2795e-06 2.25542e-07 0)
(-7.54937e-06 2.22692e-07 0)
(-7.8177e-06 2.19171e-07 0)
(-8.08416e-06 2.15047e-07 0)
(-8.34774e-06 2.09474e-07 0)
(-8.60738e-06 2.02596e-07 0)
(-8.86138e-06 1.93007e-07 0)
(-9.10742e-06 1.80804e-07 0)
(-9.34248e-06 1.648e-07 0)
(-9.563e-06 1.44786e-07 0)
(-9.76528e-06 1.20344e-07 0)
(-9.94552e-06 9.2203e-08 0)
(-1.00998e-05 6.01442e-08 0)
(-1.02248e-05 2.48335e-08 0)
(-1.03168e-05 -1.43126e-08 0)
(-1.03719e-05 -5.7235e-08 0)
(-1.03864e-05 -1.03549e-07 0)
(-1.03566e-05 -1.52867e-07 0)
(-1.02803e-05 -2.03392e-07 0)
(-1.01561e-05 -2.5387e-07 0)
(-9.98218e-06 -3.05414e-07 0)
(-9.75806e-06 -3.56774e-07 0)
(-9.48335e-06 -4.063e-07 0)
(-9.15782e-06 -4.545e-07 0)
(-8.78211e-06 -5.00974e-07 0)
(-8.35742e-06 -5.44987e-07 0)
(-7.88551e-06 -5.86337e-07 0)
(-7.36875e-06 -6.2394e-07 0)
(-6.81008e-06 -6.57252e-07 0)
(-6.21297e-06 -6.86169e-07 0)
(-5.5813e-06 -7.10035e-07 0)
(-4.91941e-06 -7.28531e-07 0)
(-4.2321e-06 -7.41555e-07 0)
(-3.52424e-06 -7.48949e-07 0)
(-2.80075e-06 -7.50665e-07 0)
(-2.06694e-06 -7.47261e-07 0)
(-1.32806e-06 -7.38524e-07 0)
(-5.88836e-07 -7.25217e-07 0)
(1.46257e-07 -7.08051e-07 0)
(8.72866e-07 -6.87314e-07 0)
(1.58688e-06 -6.63112e-07 0)
(2.28482e-06 -6.35242e-07 0)
(2.96208e-06 -6.05673e-07 0)
(3.61556e-06 -5.73708e-07 0)
(4.24334e-06 -5.40104e-07 0)
(4.84151e-06 -5.03964e-07 0)
(5.4072e-06 -4.66597e-07 0)
(5.9372e-06 -4.27489e-07 0)
(6.42891e-06 -3.87381e-07 0)
(6.88026e-06 -3.46335e-07 0)
(7.28967e-06 -3.0444e-07 0)
(7.65375e-06 -2.61719e-07 0)
(7.97017e-06 -2.1857e-07 0)
(8.23752e-06 -1.73714e-07 0)
(8.4515e-06 -1.26875e-07 0)
(8.60873e-06 -7.78261e-08 0)
(8.70477e-06 -2.52389e-08 0)
(8.73493e-06 3.17355e-08 0)
(8.69319e-06 9.34542e-08 0)
(8.57278e-06 1.60005e-07 0)
(8.36813e-06 2.31753e-07 0)
(8.07317e-06 3.08372e-07 0)
(7.68213e-06 3.89239e-07 0)
(7.19004e-06 4.74108e-07 0)
(6.59272e-06 5.61811e-07 0)
(5.88704e-06 6.51152e-07 0)
(5.07375e-06 7.40137e-07 0)
(4.14537e-06 8.28552e-07 0)
(3.15769e-06 9.01684e-07 0)
(1.93957e-06 1.01145e-06 0)
(9.25344e-07 1.0316e-06 0)
(-6.64316e-07 1.13043e-06 0)
(-1.50405e-06 9.8645e-07 0)
(-2.91429e-06 7.04538e-07 0)
(-5.54242e-08 2.17823e-07 0)
(-2.61653e-07 3.50636e-07 0)
(-5.49927e-07 4.01299e-07 0)
(-8.43534e-07 4.14919e-07 0)
(-1.15311e-06 4.1348e-07 0)
(-1.45409e-06 4.11471e-07 0)
(-1.7574e-06 4.09913e-07 0)
(-2.05879e-06 4.08623e-07 0)
(-2.36008e-06 4.07194e-07 0)
(-2.6609e-06 4.05686e-07 0)
(-2.96141e-06 4.04257e-07 0)
(-3.26155e-06 4.03032e-07 0)
(-3.56129e-06 4.0173e-07 0)
(-3.86057e-06 4.00191e-07 0)
(-4.15926e-06 3.9833e-07 0)
(-4.45709e-06 3.95897e-07 0)
(-4.75398e-06 3.92994e-07 0)
(-5.04998e-06 3.89979e-07 0)
(-5.34487e-06 3.86944e-07 0)
(-5.6387e-06 3.84037e-07 0)
(-5.93176e-06 3.81551e-07 0)
(-6.22393e-06 3.79305e-07 0)
(-6.51544e-06 3.77224e-07 0)
(-6.80664e-06 3.75339e-07 0)
(-7.09738e-06 3.73345e-07 0)
(-7.38803e-06 3.71037e-07 0)
(-7.67876e-06 3.68657e-07 0)
(-7.96926e-06 3.65447e-07 0)
(-8.25952e-06 3.61508e-07 0)
(-8.54891e-06 3.56481e-07 0)
(-8.83643e-06 3.49527e-07 0)
(-9.12072e-06 3.40521e-07 0)
(-9.39991e-06 3.27752e-07 0)
(-9.67182e-06 3.11104e-07 0)
(-9.93342e-06 2.88947e-07 0)
(-1.01814e-05 2.61082e-07 0)
(-1.04123e-05 2.26868e-07 0)
(-1.06222e-05 1.87019e-07 0)
(-1.08071e-05 1.41139e-07 0)
(-1.09629e-05 9.01788e-08 0)
(-1.10855e-05 3.31195e-08 0)
(-1.11709e-05 -2.91536e-08 0)
(-1.12155e-05 -9.67175e-08 0)
(-1.12158e-05 -1.68785e-07 0)
(-1.11694e-05 -2.42984e-07 0)
(-1.10737e-05 -3.18432e-07 0)
(-1.09269e-05 -3.9523e-07 0)
(-1.07286e-05 -4.72078e-07 0)
(-1.04781e-05 -5.47529e-07 0)
(-1.01748e-05 -6.21583e-07 0)
(-9.81959e-06 -6.93356e-07 0)
(-9.41378e-06 -7.61956e-07 0)
(-8.95934e-06 -8.26748e-07 0)
(-8.45893e-06 -8.8648e-07 0)
(-7.91543e-06 -9.4037e-07 0)
(-7.33228e-06 -9.88004e-07 0)
(-6.71347e-06 -1.02858e-06 0)
(-6.06316e-06 -1.06155e-06 0)
(-5.38592e-06 -1.08668e-06 0)
(-4.68653e-06 -1.10378e-06 0)
(-3.96969e-06 -1.1128e-06 0)
(-3.24036e-06 -1.11402e-06 0)
(-2.50352e-06 -1.10752e-06 0)
(-1.76386e-06 -1.09407e-06 0)
(-1.02607e-06 -1.07434e-06 0)
(-2.94696e-07 -1.04906e-06 0)
(4.26279e-07 -1.01882e-06 0)
(1.13191e-06 -9.81499e-07 0)
(1.8177e-06 -9.42394e-07 0)
(2.48065e-06 -8.98141e-07 0)
(3.11812e-06 -8.50915e-07 0)
(3.72626e-06 -7.99224e-07 0)
(4.30227e-06 -7.45328e-07 0)
(4.84334e-06 -6.87792e-07 0)
(5.34635e-06 -6.28127e-07 0)
(5.80881e-06 -5.66282e-07 0)
(6.22874e-06 -5.02235e-07 0)
(6.60228e-06 -4.36084e-07 0)
(6.92629e-06 -3.67866e-07 0)
(7.19828e-06 -2.95894e-07 0)
(7.41309e-06 -2.20562e-07 0)
(7.56664e-06 -1.39924e-07 0)
(7.6538e-06 -5.38379e-08 0)
(7.66928e-06 4.01392e-08 0)
(7.60717e-06 1.41166e-07 0)
(7.4603e-06 2.50525e-07 0)
(7.22199e-06 3.6849e-07 0)
(6.88593e-06 4.94566e-07 0)
(6.44533e-06 6.27988e-07 0)
(5.89457e-06 7.67861e-07 0)
(5.22911e-06 9.12465e-07 0)
(4.44528e-06 1.0597e-06 0)
(3.54429e-06 1.20636e-06 0)
(2.51528e-06 1.35092e-06 0)
(1.4284e-06 1.47646e-06 0)
(8.65264e-08 1.63102e-06 0)
(-1.03933e-06 1.70552e-06 0)
(-2.79463e-06 1.79967e-06 0)
(-3.68474e-06 1.60545e-06 0)
(-5.41873e-06 1.05667e-06 0)
(-6.15933e-08 2.99476e-07 0)
(-2.74797e-07 4.75223e-07 0)
(-5.6085e-07 5.47591e-07 0)
(-8.57049e-07 5.68166e-07 0)
(-1.16892e-06 5.6736e-07 0)
(-1.47351e-06 5.64911e-07 0)
(-1.78087e-06 5.63038e-07 0)
(-2.08644e-06 5.61494e-07 0)
(-2.39209e-06 5.59922e-07 0)
(-2.69749e-06 5.58296e-07 0)
(-3.0028e-06 5.5676e-07 0)
(-3.30787e-06 5.55389e-07 0)
(-3.61263e-06 5.53884e-07 0)
(-3.91691e-06 5.52082e-07 0)
(-4.22052e-06 5.49863e-07 0)
(-4.52328e-06 5.46961e-07 0)
(-4.82515e-06 5.43618e-07 0)
(-5.12617e-06 5.40143e-07 0)
(-5.42621e-06 5.36584e-07 0)
(-5.72532e-06 5.33241e-07 0)
(-6.02358e-06 5.30362e-07 0)
(-6.32096e-06 5.27716e-07 0)
(-6.61774e-06 5.25409e-07 0)
(-6.91421e-06 5.23426e-07 0)
(-7.21059e-06 5.21371e-07 0)
(-7.50735e-06 5.19292e-07 0)
(-7.80475e-06 5.17062e-07 0)
(-8.10278e-06 5.14009e-07 0)
(-8.4013e-06 5.10094e-07 0)
(-8.69977e-06 5.04593e-07 0)
(-8.99715e-06 4.96633e-07 0)
(-9.29186e-06 4.85692e-07 0)
(-9.58201e-06 4.69994e-07 0)
(-9.86525e-06 4.49076e-07 0)
(-1.01386e-05 4.21112e-07 0)
(-1.0399e-05 3.8579e-07 0)
(-1.06429e-05 3.42216e-07 0)
(-1.08664e-05 2.91071e-07 0)
(-1.10653e-05 2.31606e-07 0)
(-1.12351e-05 1.65058e-07 0)
(-1.13715e-05 9.02973e-08 0)
(-1.14701e-05 8.27701e-09 0)
(-1.15273e-05 -8.0598e-08 0)
(-1.15401e-05 -1.75691e-07 0)
(-1.15052e-05 -2.74181e-07 0)
(-1.14199e-05 -3.75184e-07 0)
(-1.12824e-05 -4.78042e-07 0)
(-1.10919e-05 -5.81197e-07 0)
(-1.08476e-05 -6.83454e-07 0)
(-1.05491e-05 -7.84141e-07 0)
(-1.01973e-05 -8.81911e-07 0)
(-9.79383e-06 -9.75656e-07 0)
(-9.3409e-06 -1.06431e-06 0)
(-8.84142e-06 -1.14646e-06 0)
(-8.29837e-06 -1.22121e-06 0)
(-7.71535e-06 -1.28774e-06 0)
(-7.0965e-06 -1.34516e-06 0)
(-6.44602e-06 -1.39282e-06 0)
(-5.76831e-06 -1.43032e-06 0)
(-5.06808e-06 -1.45742e-06 0)
(-4.35004e-06 -1.47412e-06 0)
(-3.61889e-06 -1.48053e-06 0)
(-2.87943e-06 -1.47685e-06 0)
(-2.13645e-06 -1.46384e-06 0)
(-1.39478e-06 -1.44214e-06 0)
(-6.59337e-07 -1.41233e-06 0)
(6.66122e-08 -1.37536e-06 0)
(7.76691e-07 -1.33047e-06 0)
(1.46626e-06 -1.28035e-06 0)
(2.13303e-06 -1.22381e-06 0)
(2.77373e-06 -1.16238e-06 0)
(3.38444e-06 -1.09566e-06 0)
(3.96257e-06 -1.02466e-06 0)
(4.50575e-06 -9.49157e-07 0)
(5.01071e-06 -8.69736e-07 0)
(5.4754e-06 -7.86922e-07 0)
(5.89731e-06 -7.00476e-07 0)
(6.2723e-06 -6.10373e-07 0)
(6.59745e-06 -5.16413e-07 0)
(6.86942e-06 -4.16662e-07 0)
(7.08297e-06 -3.11356e-07 0)
(7.23379e-06 -1.98343e-07 0)
(7.31641e-06 -7.68197e-08 0)
(7.32531e-06 5.53316e-08 0)
(7.25409e-06 1.97898e-07 0)
(7.09597e-06 3.51988e-07 0)
(6.84383e-06 5.18276e-07 0)
(6.49083e-06 6.96046e-07 0)
(6.03018e-06 8.84395e-07 0)
(5.45579e-06 1.08184e-06 0)
(4.76252e-06 1.28622e-06 0)
(3.94616e-06 1.49437e-06 0)
(3.00795e-06 1.70208e-06 0)
(1.93369e-06 1.90564e-06 0)
(8.04956e-07 2.0898e-06 0)
(-5.94048e-07 2.2876e-06 0)
(-1.77286e-06 2.40963e-06 0)
(-3.60264e-06 2.51471e-06 0)
(-4.4987e-06 2.27261e-06 0)
(-6.29938e-06 1.44426e-06 0)
(-6.27238e-08 3.84076e-07 0)
(-2.80288e-07 6.01818e-07 0)
(-5.67918e-07 6.9373e-07 0)
(-8.63909e-07 7.2117e-07 0)
(-1.17506e-06 7.21449e-07 0)
(-1.48009e-06 7.1894e-07 0)
(-1.78828e-06 7.16901e-07 0)
(-2.09488e-06 7.15193e-07 0)
(-2.40171e-06 7.13557e-07 0)
(-2.70843e-06 7.11905e-07 0)
(-3.01517e-06 7.10318e-07 0)
(-3.32174e-06 7.08843e-07 0)
(-3.62804e-06 7.07164e-07 0)
(-3.93385e-06 7.05066e-07 0)
(-4.2389e-06 7.02442e-07 0)
(-4.54306e-06 6.99104e-07 0)
(-4.84641e-06 6.95329e-07 0)
(-5.1489e-06 6.91372e-07 0)
(-5.45037e-06 6.87354e-07 0)
(-5.75095e-06 6.8355e-07 0)
(-6.05054e-06 6.80174e-07 0)
(-6.34911e-06 6.77176e-07 0)
(-6.64715e-06 6.74618e-07 0)
(-6.94484e-06 6.72539e-07 0)
(-7.24262e-06 6.70681e-07 0)
(-7.54115e-06 6.68949e-07 0)
(-7.84067e-06 6.67169e-07 0)
(-8.1414e-06 6.6465e-07 0)
(-8.44319e-06 6.60987e-07 0)
(-8.74552e-06 6.55456e-07 0)
(-9.04749e-06 6.46731e-07 0)
(-9.34736e-06 6.34172e-07 0)
(-9.64325e-06 6.15759e-07 0)
(-9.93273e-06 5.90773e-07 0)
(-1.02128e-05 5.57242e-07 0)
(-1.04804e-05 5.14716e-07 0)
(-1.07319e-05 4.62008e-07 0)
(-1.09632e-05 3.9967e-07 0)
(-1.11701e-05 3.26764e-07 0)
(-1.13478e-05 2.44413e-07 0)
(-1.14917e-05 1.51793e-07 0)
(-1.15974e-05 4.97228e-08 0)
(-1.16611e-05 -6.08214e-08 0)
(-1.16796e-05 -1.79182e-07 0)
(-1.16498e-05 -3.02479e-07 0)
(-1.15684e-05 -4.29626e-07 0)
(-1.14334e-05 -5.59226e-07 0)
(-1.12439e-05 -6.89517e-07 0)
(-1.0999e-05 -8.19281e-07 0)
(-1.06988e-05 -9.47188e-07 0)
(-1.03443e-05 -1.07148e-06 0)
(-9.93722e-06 -1.1908e-06 0)
(-9.47991e-06 -1.30366e-06 0)
(-8.97537e-06 -1.40847e-06 0)
(-8.42686e-06 -1.50423e-06 0)
(-7.83799e-06 -1.58979e-06 0)
(-7.21295e-06 -1.66408e-06 0)
(-6.55612e-06 -1.72648e-06 0)
(-5.87193e-06 -1.77644e-06 0)
(-5.16505e-06 -1.81363e-06 0)
(-4.44022e-06 -1.83809e-06 0)
(-3.70209e-06 -1.84988e-06 0)
(-2.95541e-06 -1.8492e-06 0)
(-2.2051e-06 -1.83673e-06 0)
(-1.45611e-06 -1.8131e-06 0)
(-7.13373e-07 -1.77889e-06 0)
(1.94439e-08 -1.73488e-06 0)
(7.36069e-07 -1.68206e-06 0)
(1.43193e-06 -1.6207e-06 0)
(2.10424e-06 -1.55171e-06 0)
(2.74969e-06 -1.47549e-06 0)
(3.36482e-06 -1.39389e-06 0)
(3.94693e-06 -1.30539e-06 0)
(4.49373e-06 -1.21177e-06 0)
(5.00224e-06 -1.11272e-06 0)
(5.4705e-06 -1.00881e-06 0)
(5.89619e-06 -8.99925e-07 0)
(6.27466e-06 -7.85805e-07 0)
(6.60327e-06 -6.65907e-07 0)
(6.8788e-06 -5.38487e-07 0)
(7.09561e-06 -4.02498e-07 0)
(7.24957e-06 -2.57006e-07 0)
(7.33524e-06 -9.95302e-08 0)
(7.34659e-06 7.1068e-08 0)
(7.27709e-06 2.55745e-07 0)
(7.12019e-06 4.55436e-07 0)
(6.86834e-06 6.70653e-07 0)
(6.51426e-06 9.0108e-07 0)
(6.05101e-06 1.14528e-06 0)
(5.47216e-06 1.40152e-06 0)
(4.77204e-06 1.6671e-06 0)
(3.94591e-06 1.93787e-06 0)
(2.99461e-06 2.20872e-06 0)
(1.9017e-06 2.47355e-06 0)
(7.5578e-07 2.72009e-06 0)
(-6.73708e-07 2.96257e-06 0)
(-1.87894e-06 3.12745e-06 0)
(-3.74978e-06 3.24547e-06 0)
(-4.65601e-06 2.94737e-06 0)
(-6.47276e-06 1.82201e-06 0)
(-6.28788e-08 4.69315e-07 0)
(-2.83184e-07 7.30359e-07 0)
(-5.72646e-07 8.39957e-07 0)
(-8.68077e-07 8.73582e-07 0)
(-1.17812e-06 8.75177e-07 0)
(-1.48281e-06 8.72902e-07 0)
(-1.79098e-06 8.70841e-07 0)
(-2.09775e-06 8.69059e-07 0)
(-2.40485e-06 8.67407e-07 0)
(-2.71194e-06 8.65789e-07 0)
(-3.01913e-06 8.64193e-07 0)
(-3.32619e-06 8.62618e-07 0)
(-3.63297e-06 8.60774e-07 0)
(-3.93924e-06 8.58377e-07 0)
(-4.24476e-06 8.55309e-07 0)
(-4.54935e-06 8.51545e-07 0)
(-4.85318e-06 8.47383e-07 0)
(-5.15619e-06 8.429e-07 0)
(-5.458e-06 8.38371e-07 0)
(-5.75883e-06 8.34098e-07 0)
(-6.05859e-06 8.3013e-07 0)
(-6.35716e-06 8.26731e-07 0)
(-6.65516e-06 8.2397e-07 0)
(-6.95293e-06 8.21791e-07 0)
(-7.25086e-06 8.20256e-07 0)
(-7.54978e-06 8.1903e-07 0)
(-7.85005e-06 8.17864e-07 0)
(-8.15187e-06 8.16146e-07 0)
(-8.45532e-06 8.13012e-07 0)
(-8.75988e-06 8.07725e-07 0)
(-9.06475e-06 7.98635e-07 0)
(-9.36827e-06 7.84719e-07 0)
(-9.66843e-06 7.63945e-07 0)
(-9.96285e-06 7.35121e-07 0)
(-1.02486e-05 6.96348e-07 0)
(-1.05222e-05 6.46712e-07 0)
(-1.07801e-05 5.85169e-07 0)
(-1.10181e-05 5.11547e-07 0)
(-1.12315e-05 4.25297e-07 0)
(-1.14159e-05 3.27073e-07 0)
(-1.15663e-05 2.16333e-07 0)
(-1.1678e-05 9.40443e-08 0)
(-1.17472e-05 -3.85095e-08 0)
(-1.17705e-05 -1.80632e-07 0)
(-1.1744e-05 -3.29263e-07 0)
(-1.16649e-05 -4.83132e-07 0)
(-1.1531e-05 -6.40244e-07 0)
(-1.1341e-05 -7.98425e-07 0)
(-1.10945e-05 -9.5618e-07 0)
(-1.07918e-05 -1.11178e-06 0)
(-1.04338e-05 -1.26306e-06 0)
(-1.00224e-05 -1.40836e-06 0)
(-9.55988e-06 -1.54582e-06 0)
(-9.04932e-06 -1.67359e-06 0)
(-8.49417e-06 -1.79058e-06 0)
(-7.89813e-06 -1.89541e-06 0)
(-7.2654e-06 -1.98677e-06 0)
(-6.60047e-06 -2.06401e-06 0)
(-5.90786e-06 -2.12654e-06 0)
(-5.19229e-06 -2.1739e-06 0)
(-4.45865e-06 -2.20614e-06 0)
(-3.71182e-06 -2.22331e-06 0)
(-2.95671e-06 -2.22556e-06 0)
(-2.19823e-06 -2.21355e-06 0)
(-1.44134e-06 -2.18789e-06 0)
(-6.90986e-07 -2.14917e-06 0)
(4.91922e-08 -2.09829e-06 0)
(7.72683e-07 -2.03646e-06 0)
(1.47478e-06 -1.96415e-06 0)
(2.15316e-06 -1.88228e-06 0)
(2.80388e-06 -1.79162e-06 0)
(3.424e-06 -1.69411e-06 0)
(4.01113e-06 -1.5882e-06 0)
(4.56229e-06 -1.47639e-06 0)
(5.07498e-06 -1.35781e-06 0)
(5.54748e-06 -1.23272e-06 0)
(5.9776e-06 -1.1014e-06 0)
(6.36085e-06 -9.63772e-07 0)
(6.6947e-06 -8.17802e-07 0)
(6.97585e-06 -6.62738e-07 0)
(7.19841e-06 -4.96495e-07 0)
(7.35874e-06 -3.18288e-07 0)
(7.45153e-06 -1.25188e-07 0)
(7.47023e-06 8.39386e-08 0)
(7.40807e-06 3.1084e-07 0)
(7.25833e-06 5.56275e-07 0)
(7.01341e-06 8.20751e-07 0)
(6.6655e-06 1.10438e-06 0)
(6.20707e-06 1.40515e-06 0)
(5.63138e-06 1.72111e-06 0)
(4.93233e-06 2.04899e-06 0)
(4.10464e-06 2.38388e-06 0)
(3.14846e-06 2.71957e-06 0)
(2.04573e-06 3.04832e-06 0)
(8.88452e-07 3.35803e-06 0)
(-5.65282e-07 3.64991e-06 0)
(-1.79065e-06 3.85822e-06 0)
(-3.69687e-06 3.98954e-06 0)
(-4.62959e-06 3.6299e-06 0)
(-6.47381e-06 2.20109e-06 0)
(-6.2993e-08 5.54898e-07 0)
(-2.85053e-07 8.60086e-07 0)
(-5.75838e-07 9.86395e-07 0)
(-8.70887e-07 1.02552e-06 0)
(-1.18007e-06 1.02855e-06 0)
(-1.48436e-06 1.02669e-06 0)
(-1.79232e-06 1.02472e-06 0)
(-2.09905e-06 1.02296e-06 0)
(-2.40624e-06 1.02132e-06 0)
(-2.71343e-06 1.01976e-06 0)
(-3.02077e-06 1.0182e-06 0)
(-3.32806e-06 1.01653e-06 0)
(-3.63505e-06 1.01449e-06 0)
(-3.94149e-06 1.01182e-06 0)
(-4.24727e-06 1.00832e-06 0)
(-4.55219e-06 1.00412e-06 0)
(-4.8563e-06 9.99589e-07 0)
(-5.15958e-06 9.94571e-07 0)
(-5.46154e-06 9.89405e-07 0)
(-5.76224e-06 9.84596e-07 0)
(-6.06178e-06 9.80027e-07 0)
(-6.36006e-06 9.76132e-07 0)
(-6.65764e-06 9.73182e-07 0)
(-6.95509e-06 9.71005e-07 0)
(-7.25286e-06 9.69803e-07 0)
(-7.55171e-06 9.69242e-07 0)
(-7.85233e-06 9.6889e-07 0)
(-8.15484e-06 9.68109e-07 0)
(-8.45951e-06 9.65904e-07 0)
(-8.766e-06 9.61076e-07 0)
(-9.07346e-06 9.52073e-07 0)
(-9.38041e-06 9.37148e-07 0)
(-9.6848e-06 9.14404e-07 0)
(-9.98421e-06 8.82062e-07 0)
(-1.02757e-05 8.38414e-07 0)
(-1.05557e-05 7.81838e-07 0)
(-1.08204e-05 7.11617e-07 0)
(-1.10653e-05 6.26804e-07 0)
(-1.12858e-05 5.27126e-07 0)
(-1.1477e-05 4.12984e-07 0)
(-1.1634e-05 2.83994e-07 0)
(-1.17519e-05 1.41135e-07 0)
(-1.18264e-05 -1.38024e-08 0)
(-1.18538e-05 -1.80187e-07 0)
(-1.18308e-05 -3.54734e-07 0)
(-1.17543e-05 -5.35721e-07 0)
(-1.16221e-05 -7.20929e-07 0)
(-1.14328e-05 -9.07662e-07 0)
(-1.11855e-05 -1.094e-06 0)
(-1.08806e-05 -1.27786e-06 0)
(-1.05192e-05 -1.45662e-06 0)
(-1.01033e-05 -1.62833e-06 0)
(-9.63549e-06 -1.79083e-06 0)
(-9.11872e-06 -1.94196e-06 0)
(-8.55657e-06 -2.08047e-06 0)
(-7.95293e-06 -2.20484e-06 0)
(-7.31205e-06 -2.31353e-06 0)
(-6.63848e-06 -2.40581e-06 0)
(-5.93697e-06 -2.48101e-06 0)
(-5.21236e-06 -2.53863e-06 0)
(-4.46959e-06 -2.57864e-06 0)
(-3.7137e-06 -2.60108e-06 0)
(-2.94971e-06 -2.60612e-06 0)
(-2.18261e-06 -2.59442e-06 0)
(-1.41741e-06 -2.56656e-06 0)
(-6.59178e-07 -2.52313e-06 0)
(8.82582e-08 -2.46511e-06 0)
(8.18804e-07 -2.39417e-06 0)
(1.52789e-06 -2.31032e-06 0)
(2.21243e-06 -2.21607e-06 0)
(2.8685e-06 -2.11038e-06 0)
(3.49391e-06 -1.99677e-06 0)
(4.08586e-06 -1.8733e-06 0)
(4.64153e-06 -1.74324e-06 0)
(5.15889e-06 -1.60491e-06 0)
(5.6357e-06 -1.45886e-06 0)
(6.06997e-06 -1.30532e-06 0)
(6.45818e-06 -1.14411e-06 0)
(6.79786e-06 -9.72409e-07 0)
(7.08533e-06 -7.89976e-07 0)
(7.31477e-06 -5.94194e-07 0)
(7.4829e-06 -3.83429e-07 0)
(7.58465e-06 -1.55206e-07 0)
(7.61299e-06 9.25068e-08 0)
(7.561e-06 3.61351e-07 0)
(7.42172e-06 6.52406e-07 0)
(7.18733e-06 9.66467e-07 0)
(6.84949e-06 1.30366e-06 0)
(6.40009e-06 1.66174e-06 0)
(5.8317e-06 2.03844e-06 0)
(5.13743e-06 2.42988e-06 0)
(4.31134e-06 2.83056e-06 0)
(3.35279e-06 3.23303e-06 0)
(2.24223e-06 3.62811e-06 0)
(1.07365e-06 4.00233e-06 0)
(-4.04893e-07 4.34967e-06 0)
(-1.65216e-06 4.6037e-06 0)
(-3.5975e-06 4.7516e-06 0)
(-4.57194e-06 4.32757e-06 0)
(-6.4534e-06 2.59008e-06 0)
(-6.30765e-08 6.40817e-07 0)
(-2.86105e-07 9.90492e-07 0)
(-5.77887e-07 1.13305e-06 0)
(-8.72808e-07 1.17717e-06 0)
(-1.18148e-06 1.1817e-06 0)
(-1.48548e-06 1.18036e-06 0)
(-1.79328e-06 1.17852e-06 0)
(-2.09992e-06 1.17686e-06 0)
(-2.40714e-06 1.17527e-06 0)
(-2.7144e-06 1.17376e-06 0)
(-3.02177e-06 1.17227e-06 0)
(-3.32919e-06 1.17055e-06 0)
(-3.63638e-06 1.16829e-06 0)
(-3.94297e-06 1.16534e-06 0)
(-4.24903e-06 1.1615e-06 0)
(-4.55437e-06 1.15688e-06 0)
(-4.85883e-06 1.1519e-06 0)
(-5.16229e-06 1.14632e-06 0)
(-5.46432e-06 1.14045e-06 0)
(-5.7649e-06 1.13494e-06 0)
(-6.06404e-06 1.12975e-06 0)
(-6.36189e-06 1.12535e-06 0)
(-6.65895e-06 1.12212e-06 0)
(-6.95587e-06 1.12007e-06 0)
(-7.25326e-06 1.11926e-06 0)
(-7.55189e-06 1.11944e-06 0)
(-7.85263e-06 1.12018e-06 0)
(-8.15582e-06 1.12051e-06 0)
(-8.46167e-06 1.11959e-06 0)
(-8.77016e-06 1.11561e-06 0)
(-9.08041e-06 1.10705e-06 0)
(-9.391e-06 1.09162e-06 0)
(-9.69996e-06 1.06729e-06 0)
(-1.00049e-05 1.0319e-06 0)
(-1.03028e-05 9.83652e-07 0)
(-1.05899e-05 9.2055e-07 0)
(-1.08623e-05 8.41673e-07 0)
(-1.1115e-05 7.45805e-07 0)
(-1.13433e-05 6.32658e-07 0)
(-1.15423e-05 5.02415e-07 0)
(-1.17065e-05 3.54991e-07 0)
(-1.18314e-05 1.91356e-07 0)
(-1.19125e-05 1.35561e-08 0)
(-1.19456e-05 -1.77558e-07 0)
(-1.1927e-05 -3.78498e-07 0)
(-1.18536e-05 -5.87161e-07 0)
(-1.17233e-05 -8.01e-07 0)
(-1.15345e-05 -1.01689e-06 0)
(-1.12864e-05 -1.23257e-06 0)
(-1.09793e-05 -1.44534e-06 0)
(-1.06146e-05 -1.65216e-06 0)
(-1.01941e-05 -1.85082e-06 0)
(-9.72048e-06 -2.0388e-06 0)
(-9.19704e-06 -2.21371e-06 0)
(-8.62738e-06 -2.37412e-06 0)
(-8.01554e-06 -2.51831e-06 0)
(-7.36591e-06 -2.64458e-06 0)
(-6.68316e-06 -2.75207e-06 0)
(-5.97215e-06 -2.84006e-06 0)
(-5.23785e-06 -2.90799e-06 0)
(-4.48533e-06 -2.95577e-06 0)
(-3.71972e-06 -2.98343e-06 0)
(-2.94607e-06 -2.99118e-06 0)
(-2.16951e-06 -2.97965e-06 0)
(-1.39534e-06 -2.94935e-06 0)
(-6.28624e-07 -2.90099e-06 0)
(1.27087e-07 -2.83608e-06 0)
(8.65848e-07 -2.75523e-06 0)
(1.58193e-06 -2.65957e-06 0)
(2.27319e-06 -2.55248e-06 0)
(2.93534e-06 -2.43209e-06 0)
(3.56593e-06 -2.3017e-06 0)
(4.16275e-06 -2.16125e-06 0)
(4.72286e-06 -2.01213e-06 0)
(5.24498e-06 -1.85382e-06 0)
(5.72626e-06 -1.68751e-06 0)
(6.16497e-06 -1.51179e-06 0)
(6.55848e-06 -1.32694e-06 0)
(6.90429e-06 -1.13001e-06 0)
(7.19855e-06 -9.20648e-07 0)
(7.43594e-06 -6.95881e-07 0)
(7.61312e-06 -4.53084e-07 0)
(7.72499e-06 -1.90062e-07 0)
(7.76443e-06 9.55292e-08 0)
(7.72443e-06 4.06136e-07 0)
(7.59772e-06 7.4272e-07 0)
(7.37603e-06 1.10651e-06 0)
(7.05055e-06 1.49742e-06 0)
(6.61257e-06 1.91355e-06 0)
(6.05395e-06 2.3521e-06 0)
(5.36681e-06 2.80862e-06 0)
(4.54431e-06 3.27703e-06 0)
(3.58487e-06 3.74859e-06 0)
(2.46734e-06 4.21266e-06 0)
(1.28643e-06 4.65436e-06 0)
(-2.20056e-07 5.0628e-06 0)
(-1.49383e-06 5.36655e-06 0)
(-3.48437e-06 5.537e-06 0)
(-4.51373e-06 5.04714e-06 0)
(-6.44183e-06 2.99149e-06 0)
(-6.30694e-08 7.2692e-07 0)
(-2.86371e-07 1.1213e-06 0)
(-5.78983e-07 1.27996e-06 0)
(-8.74028e-07 1.32872e-06 0)
(-1.18252e-06 1.33473e-06 0)
(-1.48637e-06 1.33395e-06 0)
(-1.7941e-06 1.33227e-06 0)
(-2.10065e-06 1.33073e-06 0)
(-2.40784e-06 1.32924e-06 0)
(-2.71514e-06 1.32779e-06 0)
(-3.02258e-06 1.32635e-06 0)
(-3.33009e-06 1.32464e-06 0)
(-3.63749e-06 1.32219e-06 0)
(-3.94437e-06 1.31896e-06 0)
(-4.2508e-06 1.31485e-06 0)
(-4.55661e-06 1.30986e-06 0)
(-4.86155e-06 1.30435e-06 0)
(-5.16524e-06 1.29808e-06 0)
(-5.46726e-06 1.29149e-06 0)
(-5.76775e-06 1.28513e-06 0)
(-6.0665e-06 1.2792e-06 0)
(-6.36371e-06 1.2743e-06 0)
(-6.66016e-06 1.27074e-06 0)
(-6.95637e-06 1.26883e-06 0)
(-7.25308e-06 1.26853e-06 0)
(-7.55135e-06 1.26956e-06 0)
(-7.85207e-06 1.27163e-06 0)
(-8.15587e-06 1.27345e-06 0)
(-8.46301e-06 1.27406e-06 0)
(-8.7736e-06 1.27147e-06 0)
(-9.08695e-06 1.2637e-06 0)
(-9.40163e-06 1.24833e-06 0)
(-9.71571e-06 1.22285e-06 0)
(-1.00269e-05 1.18503e-06 0)
(-1.03321e-05 1.1325e-06 0)
(-1.06274e-05 1.06327e-06 0)
(-1.09085e-05 9.75947e-07 0)
(-1.11704e-05 8.69075e-07 0)
(-1.1408e-05 7.42433e-07 0)
(-1.16161e-05 5.96044e-07 0)
(-1.17894e-05 4.2993e-07 0)
(-1.19229e-05 2.45342e-07 0)
(-1.20116e-05 4.41723e-08 0)
(-1.20509e-05 -1.72277e-07 0)
(-1.20373e-05 -4.00266e-07 0)
(-1.19674e-05 -6.37345e-07 0)
(-1.18391e-05 -8.80473e-07 0)
(-1.16508e-05 -1.12625e-06 0)
(-1.14018e-05 -1.37196e-06 0)
(-1.10923e-05 -1.61427e-06 0)
(-1.07237e-05 -1.84984e-06 0)
(-1.02981e-05 -2.07604e-06 0)
(-9.81821e-06 -2.29001e-06 0)
(-9.28744e-06 -2.48919e-06 0)
(-8.70947e-06 -2.67189e-06 0)
(-8.08858e-06 -2.8362e-06 0)
(-7.42935e-06 -2.9803e-06 0)
(-6.73651e-06 -3.10321e-06 0)
(-6.01503e-06 -3.20411e-06 0)
(-5.27009e-06 -3.28239e-06 0)
(-4.50691e-06 -3.33794e-06 0)
(-3.73063e-06 -3.37081e-06 0)
(-2.94642e-06 -3.3812e-06 0)
(-2.15968e-06 -3.36961e-06 0)
(-1.37589e-06 -3.3366e-06 0)
(-6.00037e-07 -3.28311e-06 0)
(1.64769e-07 -3.21051e-06 0)
(9.12233e-07 -3.12035e-06 0)
(1.63565e-06 -3.01336e-06 0)
(2.33358e-06 -2.89181e-06 0)
(3.00258e-06 -2.75682e-06 0)
(3.63927e-06 -2.60928e-06 0)
(4.24151e-06 -2.45154e-06 0)
(4.80695e-06 -2.2832e-06 0)
(5.33378e-06 -2.10539e-06 0)
(5.81998e-06 -1.91863e-06 0)
(6.26406e-06 -1.7209e-06 0)
(6.66344e-06 -1.51281e-06 0)
(7.01596e-06 -1.29116e-06 0)
(7.31786e-06 -1.05538e-06 0)
(7.56453e-06 -8.01927e-07 0)
(7.7523e-06 -5.27882e-07 0)
(7.87565e-06 -2.30618e-07 0)
(7.92788e-06 9.22775e-08 0)
(7.90182e-06 4.44223e-07 0)
(7.78953e-06 8.26236e-07 0)
(7.58251e-06 1.23982e-06 0)
(7.27133e-06 1.68468e-06 0)
(6.84662e-06 2.15958e-06 0)
(6.29938e-06 2.66111e-06 0)
(5.62067e-06 3.18445e-06 0)
(4.8026e-06 3.72269e-06 0)
(3.84248e-06 4.26606e-06 0)
(2.71748e-06 4.80258e-06 0)
(1.52237e-06 5.31544e-06 0)
(-1.62328e-08 5.79122e-06 0)
(-1.32203e-06 6.15008e-06 0)
(-3.36508e-06 6.35116e-06 0)
(-4.46343e-06 5.79597e-06 0)
(-6.45752e-06 3.40859e-06 0)
(-6.29632e-08 8.13006e-07 0)
(-2.85972e-07 1.25229e-06 0)
(-5.79294e-07 1.42714e-06 0)
(-8.74677e-07 1.48032e-06 0)
(-1.1833e-06 1.48774e-06 0)
(-1.48708e-06 1.48751e-06 0)
(-1.7948e-06 1.48597e-06 0)
(-2.10128e-06 1.48456e-06 0)