/*--------------------------------*- C++ -*----------------------------------*\
| =========                 |                                                 |
| \\      /  F ield         | OpenFOAM: The Open Source CFD Toolbox           |
|  \\    /   O peration     | Version:  2.4.0                                 |
|   \\  /    A nd           | Web:      www.OpenFOAM.org                      |
|    \\/     M anipulation  |                                                 |
\*---------------------------------------------------------------------------*/
FoamFile
{
    version     2.0;
    format      ascii;
    class       volScalarField;
    location    "0.198";
    object      alpha.water;
}
// * * * * * * * * * * * * * * * * * * * * * * * * * * * * * * * * * * * * * //

dimensions      [0 0 0 0 0 0 0];

internalField   nonuniform List<scalar> 
6500
(
0.98534
0.956754
0.957141
0.960848
0.922336
0.900785
0.88012
0.66384
0.351106
0.017091
0.0514051
0.0211843
0.0113494
0.00167284
0.00173507
0.00936009
0.0076612
0.00341915
0.00206032
0.000281137
0.00430468
0.00601359
0.0108291
0.00748759
0.00121267
4.28064e-07
1.44071e-11
1.32627e-11
1.63363e-12
1.19223e-11
5.78864e-12
0.00827605
0.0124694
0.010806
0.00149007
-3.46175e-10
5.39435e-05
0.000108111
0.000114334
9.50523e-05
6.98094e-05
5.50741e-05
7.44043e-05
1.93791e-05
5.39097e-11
3.75085e-11
5.29219e-11
2.64915e-05
6.99474e-05
0.000104267
0.992896
0.996179
0.999597
0.999624
0.999649
0.999646
0.99962
0.688781
0.205614
0.0234213
0.102517
0.0342117
0.0321413
0.00795029
0.00183876
0.0109541
0.0103526
0.00894529
0.00257211
0.00557553
0.0126498
0.0126497
0.0126499
0.0126022
0.00774028
0.000464176
4.87343e-07
4.3667e-06
1.22208e-06
1.67407e-06
3.4205e-06
0.000749396
0.0121618
0.0126598
0.00514584
1.36819e-05
3.31089e-05
3.94647e-05
3.89168e-05
5.2652e-05
0.000148476
0.000285886
0.000324754
0.000446289
0.00175951
0.00067336
3.40122e-06
2.39232e-05
5.86801e-05
8.82552e-05
0.998263
0.998734
0.998554
0.99406
0.999649
0.999651
0.995637
0.908865
0.276724
0.1654
0.0761752
0.00346768
0.0321463
0.0193939
0.00253279
0.00738536
0.013556
0.0718855
0.0556411
0.0159102
0.0114236
0.00625297
0.00474586
0.0126396
0.00807062
0.00076357
2.75461e-06
2.56652e-06
1.43455e-06
1.52049e-06
0.0123548
0.0597048
0.0149425
0.00352948
0.00241438
0.00422415
0.0235324
0.0176311
0.00396423
5.85347e-05
0.00011472
0.000131908
0.000124203
0.000124015
0.00776988
0.0222705
0.0105609
0.000421913
8.81717e-05
0.000108707
0.998341
0.997793
0.985771
0.985791
0.999651
0.999651
0.999651
0.980367
0.383884
0.38404
0.0278671
0.00347241
0.028593
0.0284789
0.002775
0.00391665
0.0854775
0.0867764
0.0865417
0.0411762
0.00482099
0.00469225
0.00466422
0.0116031
0.011657
0.00295699
8.60612e-06
1.73194e-06
1.52049e-06
0.00128076
0.0696678
0.0992269
0.0903727
0.0253935
0.0113657
0.0638439
0.101444
0.0674685
0.00470319
0.000160624
0.000128829
0.000124198
0.000123725
0.000124084
0.00487106
0.0241211
0.0281484
0.0106663
0.000399022
0.000297832
0.998341
0.994566
0.983604
0.992428
0.992589
0.999651
0.999651
0.974006
0.417158
0.188445
0.00363887
0.00493251
0.00401707
0.0194018
0.0194332
0.00490806
0.0158416
0.0578892
0.0867764
0.059653
0.00911836
0.00465182
0.00463888
0.00816729
0.00742421
0.00669264
0.00634191
7.82127e-06
1.86752e-06
7.82124e-06
0.0668545
0.100444
0.10077
0.100752
0.0979061
0.1018
0.101767
0.102526
0.0713335
0.00908686
0.000162156
0.000128814
0.000124202
0.000123726
0.000128783
0.0181044
0.0347178
0.0338009
0.0190612
0.00449755
0.998334
0.989904
0.990453
0.998441
0.990056
0.994412
0.99962
0.98509
0.674032
0.0302508
0.00253403
0.00261052
0.00230573
0.0152706
0.00925737
0.00604771
0.00686035
0.00759864
0.0854848
0.0826001
0.0192313
0.00463664
0.00462155
0.00461225
0.00462106
0.0216876
0.072226
0.014235
7.82126e-06
0.0127088
0.0485311
0.0504055
0.101275
0.101418
0.101543
0.101767
0.102526
0.10333
0.07189
0.0223534
0.00141989
0.000226196
0.000148447
0.000128801
0.000154875
0.000164619
0.0194958
0.0800811
0.0661824
0.0131645
0.997518
0.992911
0.99844
0.998441
0.995445
0.994637
0.788504
0.917554
0.579098
0.010498
0.00862666
0.00141034
0.00216886
0.0237727
0.00924118
0.0417013
0.0480343
0.0128123
0.0380376
0.0661311
0.0244002
0.00462808
0.00461225
0.00461137
0.00461144
0.0734367
0.0866923
0.0347083
0.00144915
0.0222148
0.00562742
0.00550977
0.0560444
0.101368
0.101566
0.101626
0.099683
0.10475
0.141572
0.0821875
0.0109756
0.000391483
0.000204399
0.000173748
0.000446106
0.000214256
0.0186788
0.12844
0.0846384
0.0242266
0.998321
0.997855
0.99744
0.991804
0.996864
0.981953
0.207983
0.84221
0.600851
0.0163409
0.0654988
0.00129153
0.00129153
0.0329114
0.00933463
0.0491347
0.0490172
0.0127779
0.00516505
0.0376994
0.0246408
0.00469391
0.00461182
0.00461204
0.0518509
0.086818
0.0867552
0.0712132
0.00480455
0.0222148
0.00571271
0.00538158
0.00539348
0.0647233
0.100297
0.101559
0.0793186
0.134677
0.183776
0.166641
0.0262221
0.000397923
0.000249981
0.000214446
0.000246886
0.000250749
0.0206084
0.255204
0.232562
0.103459
0.998321
0.997482
0.97426
0.977532
0.989637
0.977635
0.177691
0.788891
0.463229
0.0227726
0.0656867
0.00162732
0.00129134
0.0338645
0.00942708
0.0490796
0.026459
0.00243287
0.00100055
0.0265331
0.0185951
0.0046663
0.0046385
0.0554186
0.0868424
0.086833
0.086818
0.0343905
0.0049329
0.00995504
0.0528151
0.00540028
0.00538158
0.00540028
0.0206827
0.0761004
0.0770803
0.183096
0.183614
0.183396
0.049223
0.00047041
0.000290786
0.000249478
0.000249598
0.000251238
0.0404538
0.320176
0.349228
0.300403
0.98522
0.966181
0.964352
0.950808
0.965805
0.86068
0.177564
0.769487
0.674993
0.030798
0.0216012
0.0210254
0.0013835
0.0336867
0.0108498
0.0173849
0.0287722
0.00685829
0.000778855
0.019526
0.0459326
0.0517091
0.00600226
0.063368
0.0868217
0.086818
0.0694676
0.00525845
0.00510473
0.0060375
0.0775017
0.0392705
0.00540028
0.00560162
0.0145163
0.111472
0.142553
0.184838
0.183009
0.184362
0.0438963
0.000618619
0.000340204
0.000271019
0.000252268
0.000248758
0.0180687
0.316182
0.359536
0.358804
0.989292
0.971005
0.982074
0.930055
0.98579
0.66333
0.143623
0.72755
0.733486
0.0583115
0.00741134
0.0304733
0.00150441
0.0179067
0.00905925
0.0564394
0.0563407
0.0221464
0.000325237
0.0310845
0.0623867
0.0626383
0.00542995
0.00568129
0.0827011
0.0820629
0.0106815
0.00923855
0.00525845
0.019394
0.0781842
0.0781842
0.00572382
0.00813744
0.00775753
0.0125754
0.156087
0.183807
0.183402
0.175209
0.0512669
0.000903735
0.000593139
0.000312148
0.000258294
0.000248647
0.000250095
0.305597
0.362878
0.357831
0.997334
0.993212
0.989548
0.930055
0.947483
0.478925
0.142855
0.537774
0.733486
0.125255
0.00691474
0.0307749
0.0037406
0.00563412
0.0083432
0.0644186
0.0302141
0.00233329
0.000235466
0.0279704
0.0625395
0.0626547
0.00548931
0.00877005
0.0703209
0.0312191
0.0120477
0.0663571
0.00843883
0.0118993
0.0466817
0.0785307
0.0212191
0.0111574
0.00340431
0.00339569
0.0807077
0.184374
0.184442
0.184888
0.0880608
0.0013808
0.000873511
0.000431446
0.00046451
0.000260604
-0.000208892
0.221805
0.366551
0.36228
0.998328
0.998044
0.972371
0.978017
0.859036
0.462681
0.141355
0.283372
0.693484
0.0553691
0.00675846
0.0303523
0.00798268
0.00832142
0.060761
0.0641841
0.000415715
0.000235466
0.000224865
0.0206103
0.0626692
0.062726
0.00547971
0.00804553
0.0434678
0.0255578
0.0147058
0.0713969
0.00922597
0.00965868
0.0165556
0.0783118
0.0782024
0.0102373
0.00319786
0.00315752
0.0193077
0.183969
0.18388
0.184931
0.0834654
0.00365871
0.00124002
0.00255528
0.00065338
0.000304101
0.000143923
0.0868933
0.360109
0.361796
0.998333
0.998499
0.990424
0.995233
0.994941
0.343335
0.136108
0.140907
0.435713
0.0319983
0.00579189
0.0104705
0.00273797
0.00630244
0.0611687
0.0489235
0.0072965
0.00102427
0.000169502
0.0107175
0.062696
0.0626692
0.0457926
0.00220612
0.00857416
0.0193531
0.0103062
0.0717472
0.0100906
0.00976513
0.0190665
0.078122
0.0779868
0.00663667
0.0032322
0.00314919
0.00307082
0.141207
0.184526
0.1856
0.0785187
0.00720617
0.00304077
0.0538796
0.000583524
0.000331613
0.000925194
0.199998
0.366356
0.35963
0.998557
0.998535
0.998424
0.995616
0.859126
0.204611
0.136461
0.140672
0.108304
0.0241199
0.00444086
0.00161436
0.00184534
0.0179318
0.0615074
0.0159536
0.0174026
0.00409155
0.000108539
0.000914021
0.0208537
0.0388033
0.0513851
0.002217
0.00262294
0.0116915
0.00377666
0.0717428
0.057122
0.0299499
0.0309449
0.0687037
0.0721036
0.0032437
0.00322951
0.00315299
0.00315093
0.128928
0.182437
0.172973
0.0267157
0.00968226
0.0265471
0.0860474
0.00347664
0.000930687
0.00234235
0.367851
0.366576
0.359934
0.998861
0.987588
0.981632
0.904243
0.342693
0.205007
0.263562
0.314871
0.0251242
0.0245832
0.041463
0.00164457
0.00122901
0.0187246
0.0618423
0.042461
0.00298357
0.000108515
0.000106667
0.000104701
0.00012354
0.00240344
0.0513851
0.00235035
0.00911013
0.00763488
0.00378779
0.071762
0.0717172
0.0572572
0.0478669
0.0828171
0.0592699
0.00470564
0.00306551
0.00312346
0.00314431
0.118428
0.180171
0.0978776
0.0106839
0.00996894
0.0552853
0.0871391
0.00468346
0.00336902
0.187429
0.338343
0.283595
0.294104
0.99886
0.991292
0.933506
0.837587
0.231481
0.221354
0.17665
0.32083
0.100325
0.0251298
0.0423891
0.00850122
0.0011686
0.00964632
0.061691
0.0618323
0.00401431
0.000106845
0.000104962
0.000103805
0.000479107
0.00075157
0.0431422
0.00220927
0.00986821
0.00423259
0.00414694
0.0717349
0.066956
0.0358833
0.0625956
0.082599
0.0421724
0.0100828
0.00303411
0.0030767
0.00660286
0.0525416
0.0886419
0.0188894
0.00736292
0.0098396
0.0763465
0.0856774
0.00582359
0.049345
0.253261
0.243687
0.270011
0.346591
0.998864
0.996038
0.957304
0.956684
0.20675
0.356767
0.025575
0.321483
0.320535
0.0258527
0.0254433
0.00278786
0.00112837
0.00476922
0.0550857
0.0489404
0.00786656
0.000105831
0.000103811
0.000103797
0.00661892
0.00174377
0.00916656
0.00164644
0.00998481
0.000988039
0.00272193
0.0717413
0.0358181
0.0359748
0.0788922
0.0824512
0.080632
0.0130395
0.00305848
0.00310645
0.00310774
0.00421771
0.00401473
0.00565395
0.00632991
0.0381081
0.0794279
0.0818859
0.121419
0.128241
0.15747
0.197934
0.341753
0.345435
0.998864
0.998864
0.990233
0.952182
0.153558
0.357504
0.00689878
0.320543
0.319632
0.103818
0.0330421
0.000933672
0.0010584
0.00220461
0.00564527
0.0388082
0.000718338
0.000104525
0.000103793
0.00010381
0.0110119
0.00214604
0.000891284
0.00165861
0.00980403
0.000918376
0.000762195
0.0268975
0.0396008
0.0372741
0.0824512
0.0826017
0.0824512
0.00405828
0.00304637
0.00307423
0.00307167
0.00311772
0.00374204
0.00618796
0.00814604
0.022605
0.0748586
0.0642361
0.0686765
0.193084
0.17447
0.287609
0.337082
0.340846
0.998864
0.998795
0.997046
0.906929
0.0888425
0.251196
0.00682337
0.318804
0.319632
0.284382
0.0474215
0.000681884
0.000638396
0.00545915
0.00454379
0.0295846
0.00116569
0.00091806
0.000112344
0.000103792
0.0127268
0.00200526
0.0015404
0.0017268
0.00995337
0.000894663
0.000473184
0.0150087
0.0766543
0.0805778
0.0823027
0.0824512
0.052726
0.0041866
0.00308124
0.00310707
0.00309261
0.00311008
0.00543346
0.00863882
0.00875899
0.000122049
0.0590853
0.0590609
0.100679
0.292697
0.299428
0.326588
0.331006
0.336583
0.000112738
7.23015e-05
1.90206e-06
0.000129766
0.00276558
0.00312775
0.00312409
0.00141167
3.52024e-06
-3.31016e-11
2.79829e-11
4.48517e-12
0.100339
0.896307
0.936092
0.908057
0.71239
0.193995
0.00114191
0.00142108
0.00147201
0.00213872
0.0064705
0.00229379
6.50662e-15
1.67007e-11
9.41829e-05
1.69905e-05
6.90924e-12
0.000228013
0.000507538
0.000765833
0.0151157
0.0346051
0.0299547
0.00807358
0.00285913
0.000360363
0.0106018
0.0216599
0.0266434
0.0611445
0.00291833
0.0719296
0.332971
0.716039
0.946577
0.995258
0.999464
0.999868
0.000235439
0.000351844
0.000336934
0.000335619
0.000221378
0.000107446
0.00194376
0.00184525
7.41193e-05
7.23543e-08
1.34201e-08
0.00388834
0.315555
0.697414
0.975019
0.896812
0.871158
0.496976
0.030618
0.0104679
0.0143283
0.00706071
0.000783136
7.21549e-09
1.51435e-09
1.50079e-07
4.67064e-05
1.81845e-05
0.0108857
0.00329899
0.000621918
0.0153397
0.0584096
0.0583202
0.0329127
0.0303911
0.037031
0.000417536
0.00538818
0.0359742
0.0678705
0.116229
0.0902158
0.0569602
0.10092
0.187452
0.338424
0.935481
0.999899
0.999899
0.00024242
0.000356577
0.000331563
0.000112231
0.000107445
0.000108889
0.00098414
0.00168198
0.000287541
2.67636e-07
8.78458e-08
2.73251e-07
0.499166
0.992349
0.999791
0.999698
0.999835
0.684745
0.0500139
0.0101496
0.0125111
0.0204462
7.18208e-08
1.13679e-08
6.71064e-08
3.4439e-06
0.0100404
0.0114889
0.0143879
0.00410818
0.00154533
0.0256038
0.0239376
0.0584206
0.0466527
0.0878028
0.0795499
0.000494275
0.0192225
0.0667743
0.0235
0.116272
0.149479
0.0474161
0.0448615
0.206873
0.783033
0.992714
0.999899
0.999899
0.000388023
0.000182481
0.000113426
0.000107449
0.000107118
0.000131813
0.000209504
0.000884224
0.000285095
5.22693e-06
2.60686e-07
0.0115435
0.625661
0.99994
0.999969
0.999969
0.999969
0.94165
0.102274
0.0101847
0.0121266
0.0219742
4.95048e-07
7.18391e-08
2.32564e-05
0.00479511
0.0158874
0.00555984
0.0144204
0.00738718
0.00909743
0.0236648
0.00289602
0.0564465
0.0878028
0.0878029
0.0878028
0.0580657
0.0587678
0.164377
0.0260707
0.0391968
0.149479
0.115568
0.0448478
0.247576
0.982611
0.988224
0.994873
0.999856
0.00129946
0.000292047
0.00011685
0.0001094
0.000107
0.000107657
0.000108777
0.000199482
9.79049e-05
5.53901e-06
5.22738e-06
0.0190846
0.79872
0.999969
0.999969
0.999969
0.999969
0.981933
0.107148
0.00525423
0.0211998
0.0234306
0.00234399
1.05268e-06
0.00198853
0.0157288
0.0159044
0.0047902
0.014431
0.00917892
0.0115385
0.0124091
0.00288903
0.0235699
0.0821283
0.0878031
0.087739
0.0875066
0.0807124
0.164614
0.0906417
0.0268712
0.132803
0.0744884
0.0448489
0.246268
0.989902
0.987977
0.990653
0.999407
0.00215246
0.000716788
0.0003063
0.00011714
0.000107808
0.000108892
0.000347314
0.000238505
5.29924e-06
4.36425e-06
5.3315e-06
0.0298134
0.813496
0.999969
0.999949
0.999963
0.999969
0.999969
0.225254
0.00250095
0.0234306
0.0234306
0.00719573
2.25947e-05
0.00417973
0.0157616
0.00946737
0.00480578
0.0144362
0.0104349
0.012598
0.00661025
0.00296491
0.00187137
0.0182608
0.0835391
0.0427015
0.062288
0.0860857
0.164042
0.0185757
0.0194916
0.0216817
0.152579
0.0448489
0.355384
0.99344
0.961035
0.986289
0.999352
0.00316197
0.00253818
0.00275471
0.000297709
0.000109487
0.000108915
0.00126929
0.000287431
4.35826e-06
3.94181e-06
1.90717e-05
0.0700058
0.836294
0.999969
0.99987
0.999961
0.999969
0.998441
0.174289
0.00247694
0.0234277
0.0234306
0.0105261
0.000102567
0.00337503
0.0145109
0.00160922
0.0101039
0.0144337
0.0104343
0.0128614
0.0196824
0.0174727
0.00178825
0.00351463
0.0464418
0.0384095
0.0250491
0.0949677
0.0844556
0.0164812
0.0196867
0.0209071
0.421275
0.085221
0.416189
0.993446
0.950001
0.98038
0.999009
0.022663
0.024217
0.0107549
0.00044048
0.000110052
0.000109515
0.00167438
0.000548832
1.1141e-05
3.40602e-06
3.94342e-06
0.0748595
0.788672
0.999969
0.99987
0.999966
0.999969
0.999969
0.19959
0.00245125
0.023375
0.0234277
0.0233685
0.00378854
0.00334053
0.00218374
0.00153
0.0116153
0.00686872
0.0106093
0.0146593
0.0317839
0.00579927
0.0017327
0.0040474
0.0418524
0.100555
0.0233196
0.0567611
0.00338397
0.00337531
0.048742
0.365644
0.421277
0.190613
0.36648
0.99344
0.953791
0.972352
0.998711
0.261569
0.257243
0.0275921
0.00110679
0.000127812
0.000293389
0.00176416
0.00170216
6.82012e-05
2.92739e-06
3.4065e-06
0.0846166
0.77468
0.999969
0.999965
0.999969
0.999969
0.972787
0.142989
0.00244251
0.00714512
0.0219668
0.0232692
0.00288858
0.00264959
0.000998165
0.00126511
0.00741459
0.00238531
0.032065
0.032119
0.0320671
0.00182764
0.00173142
0.00385182
0.00636625
0.119445
0.0230538
0.0229759
0.00337531
0.00338952
0.0787636
0.381207
0.28086
0.120622
0.39948
0.99172
0.993622
0.967533
0.997576
0.359484
0.359484
0.104185
0.000411263
0.000163542
0.00144765
0.00171744
0.00170877
6.75207e-05
2.83974e-06
2.92785e-06
0.0747174
0.70693
0.999969
0.999969
0.999969
0.999969
0.966932
0.120572
0.00246137
0.00873537
0.00769659
0.023023
0.0010883
0.00147534
0.000978307
0.000995449
0.00107014
0.00219883
0.032119
0.032119
0.0320761
0.00172901
0.00172839
0.00172758
0.00236417
0.119829
0.0233452
0.0235397
0.00344776
0.00345939
0.00393601
0.0937645
0.173883
0.12108
0.625342
0.99359
0.993623
0.967532
0.996879
0.358743
0.359447
0.178296
0.00090878
0.000478972
0.00168548
0.00169265
0.00170078
4.53488e-05
2.8865e-06
2.83663e-06
0.0690723
0.667882
0.999968
0.999969
0.999969
0.999969
0.893755
0.0913957
0.00247001
0.00758031
0.00757942
0.0217469
0.000869451
0.000883587
0.000925522
0.000981855
0.00258765
0.00235177
0.0295685
0.032119
0.0202859
0.00172869
0.00173087
0.00173387
0.00758109
0.120171
0.0235942
0.0416885
0.0042831
0.016298
0.028186
0.473371
0.533179
0.351032
0.799777
0.993458
0.99362
0.967534
0.996866
0.359518
0.356741
0.231061
0.00230678
0.0006988
0.00168657
0.00169805
0.00170136
8.84528e-05
6.10305e-06
3.59407e-06
0.0512737
0.593764
0.994458
0.999968
0.999969
0.999969
0.8717
0.0625251
0.00252496
0.00253514
0.00875361
0.00656487
0.000870508
0.00094784
0.000965022
0.00139496
0.00517594
0.00527584
0.00601489
0.0320659
0.00563085
0.00172405
0.00173387
0.00172996
0.00317198
0.119934
0.0669985
0.108556
0.00296353
0.0325449
0.0375655
0.342641
0.676043
0.153575
0.925185
0.930825
0.979924
0.97505
0.97899
0.358906
0.361911
0.317944
0.00970404
0.000751191
0.00164509
0.0016875
0.000565092
0.000188557
6.03722e-05
4.35229e-06
0.0394985
0.545069
0.980579
0.999943
0.999969
0.999969
0.809712
0.0243605
0.00253517
0.00323195
0.0155752
0.000940702
0.000823094
0.00126088
0.00550837
0.00625874
0.00236749
0.00658974
0.00569573
0.0109903
0.0286183
0.00174152
0.00168705
0.00674975
0.038685
0.112528
0.135738
0.135929
0.0026716
0.0144777
0.0131308
0.158772
0.674876
0.0574133
0.927623
0.970342
0.946544
0.98239
0.975623
0.359157
0.360925
0.361818
0.0529598
0.000744867
0.000649521
0.00168886
7.05858e-05
8.21054e-05
3.20772e-05
4.86081e-06
0.025254
0.456717
0.967577
0.999831
0.997877
0.999969
0.773304
0.00273912
0.00262542
0.0156593
0.0157091
0.000843374
0.000817711
0.00092876
0.0149046
0.0151018
0.00219152
0.00656021
0.0063475
0.0145223
0.0286183
0.00184766
0.00218581
0.0563552
0.0580807
0.0246176
0.13635
0.135736
0.00267585
0.0103158
0.0108721
0.0292193
0.527403
0.056947
0.801192
0.970415
0.946379
0.975205
0.982532
0.359732
0.364887
0.289001
0.0554352
0.000360671
0.000323623
0.00168886
3.52378e-05
1.0294e-05
8.36636e-06
8.03783e-06
0.0182432
0.394841
0.949157
0.98992
0.990095
0.998866
0.635876
0.0025747
0.00333213
0.0158781
0.0158501
0.000817593
0.00081764
0.00361798
0.0207888
0.0328342
0.00218517
0.00251959
0.0193826
0.0288856
0.0287794
0.00188972
0.00532709
0.0578562
0.0580807
0.0211487
0.13594
0.103704
0.00267278
0.00976226
0.0211214
0.0206644
0.0426787
0.0903041
0.224185
0.970471
0.97133
0.96256
0.997401
0.360381
0.361256
0.194852
0.0281888
0.00019405
0.000258292
0.00137355
2.23209e-05
7.74014e-06
7.96333e-06
9.01332e-06
0.00981999
0.301559
0.898935
0.975475
0.984654
0.979584
0.441866
0.00245568
0.00262854
0.0159011
0.0105591
0.00312684
0.000817711
0.0156977
0.0154036
0.0371471
0.00218429
0.00222669
0.0106101
0.0348479
0.0284744
0.00198381
0.00384622
0.0576333
0.0406766
0.0211277
0.093449
0.00865474
0.00270902
0.0238903
0.0475175
0.0476769
0.0308083
0.639007
0.1577
0.963301
0.997456
0.997426
0.997564
0.352049
0.313661
0.096354
0.0171084
0.000127397
6.74559e-05
0.000270506
1.48132e-05
6.38215e-06
7.07334e-06
8.00803e-06
0.000307742
0.288604
0.856615
0.97667
0.984676
0.929539
0.269307
0.0024545
0.00251616
0.0158777
0.00985377
0.0107081
0.000823641
0.0156094
0.0317276
0.0353977
0.0022936
0.00223477
0.00229857
0.0350095
0.00396304
0.00222679
0.00328715
0.0238069
0.0218497
0.0207469
0.0208327
0.0106144
0.00286674
0.0237371
0.0140201
0.132106
0.0249323
0.716776
0.156045
0.961218
0.997516
0.997564
0.997564
0.347151
0.177953
0.0557739
0.023543
5.885e-05
2.4794e-05
1.47547e-05
7.55494e-06
6.38729e-06
7.11805e-06
7.8065e-06
3.4414e-05
0.157055
0.846157
0.983222
0.984494
0.828998
0.118832
0.00245444
0.00248163
0.0162744
0.0114504
0.0113924
0.000883701
0.00603137
0.0339306
0.032525
0.0155786
0.0022323
0.00230489
0.0350132
0.00443547
0.00759284
0.013492
0.0141289
0.018255
0.0928407
0.103039
0.00533451
0.00308696
0.0119411
0.000657119
0.126405
0.585413
0.717116
0.15513
0.964299
0.997443
0.990987
0.997564
0.322721
0.116387
0.10704
0.0170711
4.53121e-05
3.75496e-05
6.00109e-05
7.6352e-06
7.16942e-06
7.58271e-06
4.9016e-05
0.000364886
0.0857434
0.704786
0.982132
0.954332
0.741234
0.0103279
0.00241489
0.0107369
0.0166559
0.0167177
0.0104242
0.00344542
0.00270427
0.0341774
0.0341774
0.0341425
0.00223236
0.00259519
0.0350411
0.00515034
0.0238765
0.031279
0.0193121
0.0227774
0.0276641
0.107308
0.0269452
0.00525203
0.00276688
0.000381907
0.0262265
0.716754
0.716922
0.155628
0.944491
0.993741
0.975905
0.997538
0.253671
0.0865014
0.0806127
8.72786e-05
3.52902e-05
3.1446e-05
6.04219e-05
8.26364e-06
7.36919e-06
7.52138e-06
6.48972e-05
7.17002e-05
0.0443639
0.466459
0.905698
0.811975
0.664668
0.0205613
0.00196367
0.012863
0.00932438
0.0168101
0.00414435
0.0045303
0.00236181
0.0187667
0.0341681
0.0339127
0.00223234
0.00656907
0.0349715
0.00705783
0.0270914
0.0314404
0.0236904
0.0518899
0.0276846
0.106701
0.0337844
0.0375261
0.000128056
8.82891e-05
0.0320946
0.431087
0.407345
0.174658
0.925788
0.991047
0.975906
0.997515
0.998864
0.985669
0.995539
0.919826
0.0680923
0.00862993
0.00459786
0.234224
0.280812
0.267809
0.0601224
0.00590664
0.000426653
0.00719323
0.0275944
0.00886053
0.00154451
0.00629277
0.000233302
0.000104158
0.0192978
0.0158916
0.00250795
0.00247211
0.00963696
0.00075565
0.000453647
0.00130993
0.0372015
0.0820847
0.082296
0.0823446
0.0231192
0.0031604
0.00306602
0.00309261
0.00304142
0.00492956
0.00784913
0.0050463
0.00222457
6.64313e-05
0.00637672
0.103806
0.209979
0.316087
0.322524
0.324637
0.326006
0.185606
0.986583
0.985063
0.99441
0.937712
0.083699
0.000121036
0.000115622
0.000121041
0.00016121
0.0478955
0.0668018
0.0150041
0.00034199
0.0131723
0.0398938
0.0128955
0.00154451
0.0103988
0.00106313
0.000107307
0.027013
0.0274874
0.00288762
0.0042368
0.00212461
0.000481635
0.000453642
0.000453637
0.0111027
0.0789466
0.0820847
0.0643419
0.00731946
0.00316959
0.00309547
0.00309366
0.00430659
0.0190519
0.0133891
0.00067496
6.64304e-05
3.06076e-05
3.07963e-05
0.0358173
0.30125
0.31901
0.320769
0.322524
0.103118
0.0768596
0.990921
0.991754
0.993432
0.885558
0.0304667
8.42463e-05
4.72576e-05
0.00440355
0.0230365
0.0581203
0.0604315
0.00483753
0.000309617
0.00243346
0.0398938
0.0106426
0.00204443
0.0104006
0.00148485
0.000117909
0.0138438
0.0274979
0.00300091
0.00450906
0.00207053
0.000452945
0.000453031
0.000455728
0.0252232
0.0812803
0.0817773
0.0562184
0.00435896
0.00331303
0.0031759
0.00311886
0.0306123
0.0304301
0.0134007
0.000230761
3.17766e-05
1.01774e-05
1.71376e-05
0.00248258
0.175049
0.317032
0.31901
0.30059
0.115967
0.0778057
0.998599
0.9947
0.988438
0.43512
0.000445705
0.000385547
4.15893e-05
0.0104018
0.0566371
0.0528513
0.012786
0.00227117
1.57879e-05
1.51673e-05
0.0341488
0.00188624
0.009321
0.0104105
0.00526533
0.000889926
0.000932102
0.0274979
0.0046578
0.00437992
0.00278154
0.000448197
0.000442175
0.000466462
0.0449477
0.081273
0.0818405
0.0488044
0.0154203
0.00435537
0.0033257
0.0299744
0.0396748
0.0134356
0.000144791
0.000190905
7.97953e-05
2.8793e-06
1.32292e-05
6.96194e-08
0.0259046
0.0284481
0.0961497
0.0743308
0.0447009
0.0150893
0.998894
0.995586
0.978179
0.0536858
0.000918815
3.33344e-05
4.14514e-05
3.36728e-05
0.0651164
0.0124717
0.0116223
0.0129474
1.67685e-06
6.92956e-05
0.0016695
9.82599e-05
0.0104094
0.0104386
0.0104388
0.0021858
0.00367147
0.00856936
0.00877497
0.00359185
0.000931876
0.000437428
0.000436301
0.0168947
0.0457021
0.0736659
0.0825764
0.083184
0.0789751
0.0509258
0.0492846
0.0834069
0.0404203
0.000164121
2.44284e-05
1.55903e-05
1.11597e-05
1.61636e-06
1.43671e-07
1.76051e-08
-5.40015e-07
2.71579e-05
0.000183655
0.00068931
0.000493448
0.000135252
0.998894
0.998894
0.970355
0.0407972
3.07253e-05
3.09675e-05
3.07984e-05
3.13127e-05
0.0680709
0.0132539
0.057722
0.00133992
1.21895e-06
2.07438e-05
2.13398e-05
7.00885e-05
0.0104143
0.0104115
0.0104386
0.00252468
0.0178843
0.00738872
0.00859572
0.00273436
0.000447744
0.000447791
0.0300586
0.061005
0.0629458
0.0834176
0.0831956
0.0831958
0.0832561
0.0832415
0.0832595
0.0833311
0.0557251
0.00116678
1.18825e-05
1.63546e-06
2.8513e-07
9.8192e-08
3.49622e-08
3.18581e-08
1.41329e-08
1.63276e-05
1.1513e-05
5.39127e-05
4.06728e-05
3.50121e-05
0.998894
0.998894
0.943036
0.0337303
2.63079e-05
2.94382e-05
3.02333e-05
0.0011932
0.0772784
0.086119
0.0884092
0.000216787
1.14303e-06
1.21895e-06
0.000146212
0.00509856
0.00822798
0.0104139
0.0104204
0.00189715
0.0186712
0.0175955
0.00726986
0.0015613
0.000520412
0.000447365
0.0656132
0.0823366
0.0833328
0.0836282
0.0833942
0.0832181
0.0831929
0.0832107
0.0832722
0.083318
0.0338494
9.52406e-05
3.11634e-06
3.49835e-07
7.70547e-08
3.73405e-08
3.41218e-08
3.35066e-08
3.1274e-08
4.62257e-06
4.47742e-06
3.96167e-06
6.45977e-06
4.17859e-05
0.998894
0.987568
0.892401
2.63079e-05
2.57369e-05
2.90111e-05
5.89138e-05
0.00312642
0.0622953
0.153193
3.10343e-05
1.14303e-06
1.10453e-06
1.14303e-06
3.71517e-05
0.00694169
0.0104124
0.0104186
0.0104212
0.00189046
0.0186173
0.0105309
0.00191228
0.0014347
0.00123724
0.0092789
0.0169158
0.0245337
0.0454869
0.069853
0.083353
0.0832937
0.0832052
0.0831766
0.0833458
0.0549682
0.00182011
5.92296e-06
3.47897e-07
9.53073e-08
6.284e-08
5.44459e-08
3.40337e-08
3.4042e-08
3.35146e-08
4.28504e-06
4.10579e-06
9.3689e-07
3.18984e-06
3.51877e-05
0.998882
0.991559
0.866324
0.00390773
2.31985e-05
3.03315e-05
0.000392918
0.000951978
0.0434297
0.153252
0.00656924
0.000472792
1.9974e-08
0.000153577
0.000589469
0.000560664
0.0104005
0.0104121
0.00942343
0.00395583
0.0082967
0.000908178
0.00179704
0.00397095
0.00120747
0.0105977
3.16973e-05
1.42991e-05
8.86391e-06
2.0073e-06
0.0186562
0.0607891
0.0813176
0.0792411
0.0486293
0.00777653
1.71468e-07
8.79307e-08
5.6969e-08
6.185e-08
6.04677e-08
5.93636e-08
3.42481e-08
3.39936e-08
1.23421e-07
6.43943e-06
4.39345e-06
6.15938e-07
4.2753e-06
3.68913e-05
0.997757
0.987885
0.474008
1.19792e-05
2.02028e-05
3.26322e-05
0.000203229
0.00102388
0.0203841
0.153252
0.0139308
0.00241303
9.86755e-09
0.000314206
0.00176047
0.000555538
0.0080901
0.010343
0.000646781
0.00414871
0.000751771
0.000754902
0.00828634
0.00644947
0.000790924
0.0024079
0.000604874
0.000107714
2.80359e-05
7.09176e-07
5.48105e-07
3.46322e-07
0.00372585
5.87223e-05
6.03789e-07
1.92628e-07
9.17748e-08
6.8383e-08
6.39385e-08
6.16152e-08
5.97437e-08
4.24445e-08
3.63002e-08
1.16158e-06
6.19173e-06
6.4394e-06
4.24158e-06
5.0535e-07
2.61944e-06
2.85529e-05
0.993797
0.955176
0.0330005
1.1943e-05
6.04555e-05
6.50092e-05
0.00221433
0.00242227
0.002349
0.0271392
0.023881
0.00162511
9.0055e-09
5.23939e-05
0.001764
0.000548703
9.39461e-05
0.00178674
7.85987e-09
0.00217867
0.000740517
0.000751687
0.00931376
0.00407952
0.000766119
0.000766119
0.00190502
0.0013204
0.000257933
8.16089e-07
3.46334e-07
3.09625e-07
3.07357e-07
3.07425e-07
3.07438e-07
1.42018e-06
5.25134e-06
3.01401e-06
8.17855e-08
5.6011e-08
4.77357e-08
4.41754e-08
1.98722e-06
6.50744e-06
6.52442e-06
4.93124e-06
9.37972e-07
4.90638e-07
5.65355e-07
1.95194e-06
0.993742
0.25009
1.21632e-05
1.20095e-05
8.50794e-05
6.72327e-05
0.00102435
0.00241923
4.32864e-05
0.00207806
0.0238296
0.000220814
8.14345e-09
8.00832e-09
0.00106321
1.1681e-05
7.82688e-09
7.82386e-09
7.83629e-09
0.00118629
0.000740307
0.00620401
0.00933732
0.00371889
0.000785997
0.00151998
0.00416237
0.00141361
2.18547e-06
1.16101e-06
1.0145e-06
1.03559e-06
3.17805e-07
3.07357e-07
4.30321e-05
0.000178724
7.97262e-05
8.38873e-08
5.76557e-08
5.29467e-08
4.94806e-08
4.158e-07
5.63854e-06
6.47841e-06
3.84285e-06
6.13898e-07
4.74653e-07
4.82337e-07
4.90622e-07
4.92728e-07
0.649606
1.22599e-05
1.22602e-05
1.68572e-05
2.08547e-05
0.0011196
0.00149368
0.00238857
4.24556e-05
0.00452728
0.0237503
8.00897e-05
9.08141e-09
7.83707e-09
7.82882e-09
7.82699e-09
7.82406e-09
7.82386e-09
7.82387e-09
0.000863425
0.000740517
0.00933405
0.00933868
0.0037745
0.000820694
0.00558525
0.00417721
0.000107808
2.37319e-05
3.01622e-05
1.75133e-05
5.36067e-06
3.12007e-07
3.07551e-07
0.000101036
0.000302948
9.04229e-05
8.20624e-08
5.85597e-08
5.50628e-08
5.19657e-08
1.47148e-06
5.52629e-06
2.30578e-06
5.09943e-07
4.58483e-07
4.6485e-07
4.7461e-07
8.57152e-06
4.78938e-07
0.0269445
9.53465e-05
3.95334e-05
0.000128294
8.8938e-06
0.000609
0.00216975
0.00202024
1.10629e-05
0.00152852
0.023862
0.000962745
6.07292e-06
7.84615e-09
7.83439e-09
7.82914e-09
7.82832e-09
7.83273e-09
7.83409e-09
8.35827e-09
0.00293131
0.00933867
0.00933913
0.00314439
0.000854028
0.00644985
0.00117256
0.000141808
0.000481884
0.0002784
3.33488e-05
3.21915e-07
3.07558e-07
3.07117e-07
8.84165e-05
0.000460599
0.000127185
9.17022e-08
5.99346e-08
5.65252e-08
5.39198e-08
1.48217e-06
9.45173e-07
3.74558e-07
3.72099e-07
4.27663e-07
4.93355e-07
2.55659e-05
4.53376e-05
4.76475e-07
6.68493e-06
0.000221238
0.000287075
0.000172726
5.29845e-06
0.000106277
0.000678789
0.00178758
1.10629e-05
1.10629e-05
0.0246124
0.00250433
0.000641904
7.82427e-09
7.84131e-09
7.83986e-09
7.90017e-09
7.92214e-09
7.90743e-09
8.37948e-09
0.0055776
0.00933814
0.00933867
0.00858971
0.00269339
0.00719054
0.00302612
0.000217625
0.00155742
0.000296751
3.37864e-07
3.07781e-07
3.07113e-07
3.07119e-07
0.000223803
0.000473126
0.000170476
9.29838e-08
6.00825e-08
5.85184e-08
5.78103e-08
1.80107e-07
1.5304e-07
1.75446e-07
1.77722e-07
2.18883e-07
1.34236e-05
5.11935e-05
5.01243e-05
9.75349e-06
6.673e-06
2.93344e-05
0.000318625
2.39694e-06
2.39343e-06
5.38402e-06
0.000791514
0.0010519
1.10629e-05
0.000875717
0.0262886
0.00332494
0.000870786
7.85203e-09
7.84212e-09
5.06049e-08
9.68457e-08
7.95658e-09
2.39428e-05
2.93836e-06
0.000266435
0.00933686
0.00933812
0.00933686
0.00932271
0.00772822
0.00416603
0.00120215
0.00158106
0.000291797
3.48482e-07
3.08635e-07
3.07121e-07
3.07113e-07
0.000359557
0.000473864
0.000165948
1.54507e-07
1.32345e-07
2.24323e-07
9.03071e-08
9.04722e-08
9.20305e-08
0.0003316