/*--------------------------------*- C++ -*----------------------------------*\
| =========                 |                                                 |
| \\      /  F ield         | OpenFOAM: The Open Source CFD Toolbox           |
|  \\    /   O peration     | Version:  2.4.0                                 |
|   \\  /    A nd           | Web:      www.OpenFOAM.org                      |
|    \\/     M anipulation  |                                                 |
\*---------------------------------------------------------------------------*/
FoamFile
{
    version     2.0;
    format      ascii;
    class       surfaceScalarField;
    location    "0.198";
    object      phiAlpha;
}
// * * * * * * * * * * * * * * * * * * * * * * * * * * * * * * * * * * * * * //

dimensions      [0 3 -1 0 0 0 0];

internalField   nonuniform List<scalar> 
12835
(
-2.47659e-07
2.59814e-07
-4.22981e-07
1.86725e-07
-3.23577e-07
-1.04802e-07
1.58801e-09
-3.34605e-07
-5.66899e-08
6.4038e-08
-9.74996e-08
4.62446e-08
1.66769e-07
-2.99492e-07
2.80529e-07
-1.54479e-07
6.61848e-08
7.52506e-08
-3.93869e-08
4.85144e-08
-4.12016e-08
3.46935e-08
8.50627e-09
-1.83226e-08
8.45776e-09
-7.67616e-09
2.14896e-09
1.26764e-09
1.14041e-09
2.73446e-09
4.6499e-09
6.3305e-11
-5.41665e-10
1.16377e-08
4.93106e-10
7.78398e-10
1.47117e-09
4.8934e-10
5.55923e-10
4.59113e-11
-1.13294e-11
1.47921e-08
6.58436e-11
-1.4246e-10
4.27754e-09
-4.19326e-09
5.13088e-09
-6.17597e-09
5.26374e-11
1.0724e-09
-1.22095e-13
3.96762e-11
3.00867e-13
-4.22875e-13
1.29493e-14
2.87889e-13
3.48023e-16
1.25964e-14
-1.78845e-13
1.79191e-13
1.0006e-10
-1.00238e-10
7.07004e-09
1.9216e-09
8.64642e-09
3.55499e-09
2.07443e-09
4.36004e-09
-3.41251e-12
-3.41777e-12
-7.73442e-12
4.32663e-12
4.76879e-11
4.23973e-14
2.25571e-11
4.3027e-11
1.69056e-11
1.18495e-11
2.0173e-11
1.84762e-12
1.56001e-11
4.54344e-12
-9.43677e-13
8.10026e-11
-1.88363e-11
1.65187e-10
-8.91287e-12
9.51821e-11
-2.1752e-11
1.28391e-11
-4.39726e-12
-1.73548e-11
-6.74891e-12
2.35162e-12
-5.14295e-12
4.35695e-12
8.13489e-12
-9.97401e-13
-6.2432e-12
3.98684e-11
-3.20927e-07
5.81766e-07
-4.43341e-07
3.02821e-07
-3.10573e-07
-2.37782e-07
-2.98654e-08
-6.15517e-07
-1.22929e-07
1.5695e-07
-2.08724e-07
1.32039e-07
3.59093e-08
-5.4409e-07
1.80586e-07
-5.73424e-07
1.95247e-09
1.76251e-07
-9.96624e-08
2.62341e-07
-4.56113e-08
1.12852e-07
9.78446e-11
-1.23604e-08
3.00577e-08
-3.68339e-08
2.93963e-09
-7.50065e-11
1.54571e-09
5.28874e-09
5.14282e-09
4.4083e-09
2.4858e-09
1.73848e-08
4.95781e-09
-1.32138e-08
4.38084e-09
-9.14573e-09
8.67799e-09
3.462e-10
7.24586e-09
1.76495e-08
9.6063e-09
-1.13954e-09
1.06164e-08
-3.90458e-09
1.36366e-08
-7.62973e-09
2.97333e-09
2.17531e-09
-7.71748e-12
4.14718e-10
-9.46378e-12
-7.58662e-13
1.44491e-12
4.79259e-12
1.63042e-12
1.80301e-12
-9.20735e-12
1.65868e-11
-2.02194e-10
1.06494e-10
3.27691e-09
-6.3963e-09
1.34064e-08
2.99267e-10
1.49627e-08
6.55213e-09
3.50672e-10
9.43778e-11
2.79182e-10
6.63152e-11
4.41038e-11
2.07283e-10
2.58219e-11
2.62672e-11
2.26877e-11
5.65257e-11
9.63819e-11
-1.51941e-11
2.23757e-10
2.49024e-11
1.94679e-10
9.86758e-11
1.68317e-10
1.37292e-10
2.96204e-10
1.81913e-10
4.28764e-10
4.69992e-10
8.10802e-11
-2.35848e-09
1.27873e-11
6.53371e-11
2.54125e-11
1.43045e-12
9.02546e-11
-6.58456e-11
-1.00841e-10
2.04609e-10
-3.1268e-07
8.93163e-07
-4.07747e-07
3.9878e-07
-2.88786e-07
-3.54461e-07
-3.91014e-08
-8.62874e-07
-1.3388e-07
2.51591e-07
-2.17861e-07
2.16023e-07
-1.51362e-07
-6.12832e-07
2.216e-07
-1.174e-06
1.61011e-08
3.71463e-07
-9.90421e-08
1.19067e-06
-1.93218e-09
1.20784e-08
1.62044e-09
-2.07973e-08
2.08481e-08
-5.59291e-08
9.2694e-09
-7.55958e-09
8.48641e-10
1.08656e-08
-1.23044e-10
1.78694e-09
1.65696e-08
4.30465e-11
8.97534e-08
-9.73063e-08
5.2517e-08
-1.36644e-07
9.79108e-09
4.96116e-09
8.73581e-09
9.46066e-09
8.1654e-09
-2.34345e-09
6.51561e-09
-2.54051e-09
8.36081e-09
-8.14587e-09
2.16935e-09
1.28733e-09
4.14548e-13
6.24307e-10
-6.59619e-12
7.76338e-12
2.37476e-13
9.83806e-12
1.94557e-12
1.68872e-12
1.62425e-11
3.63623e-12
1.12232e-08
-1.99813e-08
2.57974e-08
-1.37313e-07
3.4898e-09
-2.14607e-08
7.6315e-09
1.88356e-09
3.19673e-09
6.87359e-10
7.50165e-09
1.84029e-08
1.74973e-08
2.14165e-08
1.10303e-08
1.1152e-08
1.23255e-10
1.03765e-09
1.58695e-10
-2.66027e-12
1.40318e-10
3.15817e-11
1.39086e-10
6.40913e-11
2.3594e-10
3.07071e-11
4.14624e-10
-5.44384e-12
3.54835e-08
8.48896e-11
2.56693e-08
1.86175e-09
2.79473e-09
4.17119e-09
3.7045e-10
1.88094e-10
3.71335e-10
-9.90596e-11
-1.24302e-10
4.03809e-10
-2.92139e-07
1.18557e-06
-3.7046e-07
4.78819e-07
-2.75984e-07
-4.44125e-07
-4.47755e-08
-1.08956e-06
-1.07823e-07
3.14643e-07
-1.52536e-07
2.6074e-07
-1.92065e-07
-5.733e-07
-8.42693e-09
-1.37942e-06
-3.16935e-08
4.81011e-07
-1.0637e-07
7.91126e-07
-3.03623e-09
-1.16729e-09
4.80147e-10
-2.85915e-08
1.13347e-08
-3.8225e-08
1.12814e-08
-1.05908e-08
1.91812e-10
1.83262e-08
3.81261e-09
2.91974e-09
1.04187e-07
-7.667e-08
1.16953e-07
-9.90018e-08
1.23518e-07
-1.31619e-07
2.11923e-08
-5.37136e-10
9.19632e-09
1.9122e-08
9.7838e-09
-2.32602e-09
5.85558e-09
2.31573e-09
5.32682e-09
-2.77592e-09
3.9127e-09
4.06196e-09
5.43235e-10
2.40629e-10
1.05818e-10
4.2896e-10
1.26704e-11
1.04422e-10
1.13534e-11
4.32068e-12
1.21311e-09
2.44306e-09
4.44132e-08
-5.46446e-08
5.89004e-08
-1.52423e-07
5.01079e-08
-8.55947e-08
1.00505e-08
-1.36857e-08
1.84792e-08
1.53302e-08
7.69735e-08
5.6475e-08
6.83129e-08
2.85328e-08
2.85686e-08
3.86217e-09
-9.44777e-11
6.99285e-09
2.15078e-10
-3.25271e-10
1.77089e-10
4.99529e-11
1.74626e-10
5.70897e-11
2.08938e-10
-1.18722e-11
2.44928e-10
-4.97143e-11
4.62549e-08
-9.03497e-11
5.27034e-08
4.9679e-09
2.77509e-08
8.91301e-09
3.62503e-09
3.52894e-10
1.05675e-09
1.91987e-09
-4.00362e-11
6.19193e-10
-2.70472e-07
1.45629e-06
-3.42283e-07
5.55302e-07
-2.7093e-07
-5.21471e-07
-4.29614e-08
-1.33338e-06
-7.59728e-08
3.44854e-07
-7.21819e-08
2.56952e-07
-1.37358e-07
-5.0812e-07
-7.30366e-08
-1.45876e-06
5.01296e-09
3.89355e-07
-1.42489e-09
3.2492e-08
-3.12492e-09
1.89729e-09
2.90436e-09
-1.72099e-08
2.75314e-09
-1.0011e-08
6.51193e-09
-6.11895e-09
4.14184e-10
3.54605e-08
7.32245e-10
6.60683e-09
2.94972e-08
-3.96592e-08
7.42662e-08
-3.65293e-08
9.33742e-08
-1.41159e-07
4.40465e-08
-1.27291e-08
7.43654e-09
3.41284e-08
7.59582e-09
-1.42593e-09
4.54898e-09
6.02872e-09
5.48753e-09
6.412e-10
4.23728e-09
2.38186e-09
3.79567e-09
1.33434e-09
6.28417e-09
-1.82558e-08
1.57287e-10
6.21991e-09
2.25153e-11
1.39524e-10
2.27721e-09
1.78263e-10
6.66171e-08
-4.85863e-09
4.15896e-08
-1.27537e-07
5.68685e-08
-1.00623e-07
6.61524e-08
-4.34034e-08
7.56099e-08
1.25447e-08
7.68997e-08
4.99675e-08
6.898e-08
3.21239e-08
5.82876e-08
5.35953e-09
2.7289e-08
-2.21852e-09
3.98801e-10
5.89497e-10
3.44577e-10
1.56842e-11
2.68797e-10
1.16501e-10
2.72268e-10
-2.3548e-11
2.78663e-10
-6.34472e-11
1.82898e-09
-4.4626e-11
3.12513e-08
5.91422e-09
5.51518e-08
1.78182e-08
3.90117e-08
-7.10553e-11
7.85166e-09
-6.26841e-09
-2.31557e-09
-9.85656e-11
-2.48929e-07
1.70543e-06
-3.29083e-07
6.32657e-07
-2.74943e-07
-5.82402e-07
-4.93056e-08
-1.55834e-06
-6.07342e-08
3.55137e-07
5.42236e-09
1.88583e-07
-4.41286e-08
-4.58593e-07
-2.80657e-08
-1.47601e-06
1.13105e-07
6.53555e-08
1.18133e-08
-2.03503e-08
8.78828e-11
1.53261e-08
2.30485e-09
-1.5465e-08
3.65664e-09
-5.92709e-09
8.17239e-09
-6.03781e-12
1.02681e-09
2.96162e-08
3.82234e-10
2.13516e-08
1.21265e-08
-5.77872e-08
1.05159e-08
-3.78007e-08
6.3503e-08
-1.72426e-07
3.70331e-08
-6.27223e-08
6.42573e-09
3.18041e-08
6.5282e-09
-1.72275e-09
2.35234e-09
9.93606e-09
2.22975e-10
2.73852e-09
6.94162e-10
1.66489e-09
2.16495e-08
-6.37954e-09
4.90865e-08
-9.28054e-08
4.53481e-09
3.20862e-08
2.46464e-09
2.19983e-09
2.59929e-08
1.09057e-08
1.03154e-08
4.82461e-09
1.44856e-08
-8.7728e-09
3.94107e-08
-1.25897e-07
5.99765e-08
-6.4741e-08
7.48951e-08
-4.37536e-09
7.39854e-08
4.67141e-08
6.18012e-08
3.53626e-08
5.38864e-08
-1.22738e-09
5.15045e-08
-1.3869e-08
6.3378e-09
-7.6409e-10
5.53134e-10
-1.63702e-10
3.66858e-10
1.72553e-10
3.46862e-10
-4.1382e-11
3.20473e-10
-5.08156e-11
3.03682e-10
-5.84225e-11
1.31298e-08
8.7963e-10
9.60297e-08
1.3332e-08
7.33608e-08
2.68966e-08
1.62912e-08
-2.43269e-10
-1.7545e-10
-3.6291e-11
-2.35075e-07
1.94328e-06
-3.24389e-07
7.2676e-07
-2.79184e-07
-6.26919e-07
-5.58267e-08
-1.78108e-06
-4.78887e-08
3.48432e-07
1.54144e-08
1.25654e-07
-5.50005e-08
-1.87294e-07
-2.78927e-07
-1.18508e-06
-3.98302e-09
-1.79127e-07
-2.97627e-09
4.0567e-08
-5.99234e-10
1.09163e-07
1.90804e-09
-1.66643e-08
3.82455e-09
-1.65131e-09
1.55002e-08
8.22971e-10
3.65628e-09
3.02138e-08
2.48557e-08
2.51766e-08
2.98737e-08
-1.26582e-07
1.17761e-08
-4.04199e-08
4.12704e-08
-4.59952e-08
3.46758e-08
-3.1884e-08
4.73895e-09
1.00692e-08
5.08481e-09
-2.13678e-09
5.62891e-10
1.44297e-08
-5.3254e-10
3.80383e-09
5.09403e-09
-4.00851e-09
4.03448e-08
-3.23508e-08
5.55967e-08
-1.07496e-07
6.1113e-09
6.00463e-08
5.57878e-10
6.69373e-09
-1.73729e-09
4.26605e-08
8.13963e-10
1.60752e-09
1.1512e-09
-9.19036e-09
2.51183e-08
-7.13136e-09
5.52122e-08
-9.5451e-08
7.09763e-08
-2.20466e-08
7.0639e-08
4.62661e-08
1.01001e-07
2.37717e-08
8.30329e-08
-5.14586e-09
1.12593e-07
-1.5557e-07
2.72421e-08
-4.10347e-08
2.78666e-10
-1.57604e-09
4.72644e-10
-3.65119e-10
4.8287e-10
-1.42689e-10
3.90521e-10
-5.79122e-11
1.38576e-09
1.03097e-10
2.02518e-09
3.83736e-10
7.07845e-08
1.66977e-08
7.86656e-08
1.16544e-07
1.37361e-08
5.68027e-08
9.76249e-10
3.74601e-09
-2.24429e-07
2.16799e-06
-3.1562e-07
8.14909e-07
-2.72113e-07
-6.67505e-07
-4.79542e-08
-2.0149e-06
-3.82772e-08
3.40439e-07
-2.054e-08
1.72218e-07
-1.00011e-07
-8.21401e-08
-2.67719e-07
-9.44484e-07
-1.02979e-08
-2.53099e-07
-3.07512e-08
1.15151e-07
-6.82296e-10
1.21273e-07
2.53239e-09
-2.06678e-08
1.22186e-09
-1.30578e-09
2.41999e-08
1.63096e-08
9.05557e-09
3.53394e-08
3.39289e-08
2.89482e-08
4.38701e-08
-1.08928e-07
8.54894e-09
-2.26073e-08
7.70845e-09
-3.7199e-09
3.89115e-08
-2.09546e-08
7.90228e-09
8.79982e-09
4.592e-09
9.947e-11
4.34144e-10
1.88893e-08
6.78748e-11
4.14987e-09
2.65405e-08
-3.93197e-08
4.12372e-08
-4.69641e-08
2.46841e-08
-9.06465e-08
-6.98733e-09
2.77622e-08
-8.18214e-09
9.18855e-09
-3.39687e-09
4.00624e-08
1.61572e-09
-4.89907e-09
5.96071e-10
-8.4261e-09
1.35702e-09
-8.11456e-09
4.41451e-08
-1.57402e-08
5.7396e-08
-2.75012e-08
7.0246e-08
3.18809e-08
4.86749e-08
7.09048e-08
7.66502e-08
-3.23633e-08
1.09815e-07
-1.99356e-07
4.95511e-08
-1.44777e-07
-5.87365e-10
-5.51152e-09
3.85507e-10
-1.51565e-09
5.00807e-10
-3.78152e-10
3.95808e-10
-9.31133e-11
2.96933e-10
1.36881e-10
3.12526e-10
3.26873e-10
1.1716e-07
2.20267e-08
1.80931e-07
1.95902e-07
9.88436e-08
9.20045e-08
-1.43575e-08
2.54928e-08
-2.1074e-07
2.37899e-06
-2.95916e-07
8.91522e-07
-2.49905e-07
-7.13801e-07
-3.71023e-08
-2.22587e-06
5.43463e-08
2.39433e-07
1.85357e-08
1.92895e-07
2.39365e-09
-1.12635e-07
3.46248e-10
-9.29071e-07
1.16984e-07
-4.31258e-07
-2.36483e-11
2.14881e-07
4.67379e-09
1.24141e-07
4.22452e-09
-3.36394e-08
3.99106e-09
-1.95189e-09
2.73943e-08
1.54998e-08
6.13559e-09
4.83714e-08
3.68017e-08
2.49903e-08
2.06445e-08
-8.34393e-09
4.73939e-09
1.58518e-09
2.74016e-09
-1.14817e-09
2.2878e-08
-6.49097e-09
1.41103e-08
8.13191e-09
3.20246e-09
1.09661e-08
1.16801e-09
2.11257e-08
3.7127e-08
2.70018e-08
5.05067e-08
-5.20443e-08
2.92853e-08
-2.54434e-08
2.34066e-08
-8.46957e-08
-2.61338e-09
1.03351e-08
-2.23745e-09
1.05178e-08
-1.61954e-08
1.19323e-08
8.68406e-09
-7.38959e-08
1.36138e-10
-6.61192e-11
-4.52191e-10
-7.74697e-09
-6.88572e-09
-6.05317e-09
-9.36145e-09
-1.89893e-08
3.45679e-08
-5.6945e-09
4.40597e-08
8.73652e-08
8.62442e-08
-7.19831e-08
9.15611e-08
-2.13343e-07
6.50918e-08
-1.21253e-07
-1.05334e-09
-7.18761e-09
3.81044e-10
-3.34876e-09
5.03863e-10
-6.62899e-10
4.6621e-10
-1.70611e-10
3.15816e-10
2.46826e-10
2.36652e-10
3.64652e-10
2.09139e-07
3.25002e-08
2.75086e-07
1.83646e-07
2.346e-07
1.29411e-07
-3.3119e-08
1.68234e-07
-1.85598e-07
2.56893e-06
-2.72227e-07
9.96997e-07
-2.27468e-07
-7.227e-07
-5.36237e-08
-2.24479e-06
1.20513e-07
6.39081e-08
1.15955e-07
1.12148e-07
1.62705e-08
-5.00934e-08
2.8401e-08
-8.95339e-07
1.90013e-07
-1.05982e-06
3.3689e-11
3.49065e-07
6.44675e-10
1.38671e-08
5.67274e-09
-3.39358e-07
2.87893e-10
-3.34499e-10
1.32695e-08
2.51227e-08
3.64e-09
2.85086e-08
1.24771e-08
1.72497e-08
2.57011e-08
-2.01607e-07
4.3451e-09
-2.07196e-08
2.85677e-09
-1.11254e-10
2.94685e-08
-5.49813e-09
3.45608e-08
2.96163e-08
1.49826e-08
6.10105e-08
9.22563e-10
2.81127e-08
2.99538e-08
5.31477e-09
3.82373e-08
-6.0137e-08
1.16022e-08
1.26223e-09
2.17604e-08
-3.63691e-08
5.70464e-10
3.25499e-08
-3.08863e-09
1.51336e-08
-2.53615e-10
1.81369e-08
1.25715e-09
-8.40516e-08
-3.75976e-10
-7.63639e-08
-1.04237e-09
-7.24301e-09
-5.63586e-09
-1.95505e-09
-2.50196e-08
-1.11714e-08
-7.26512e-10
-3.63631e-08
6.27501e-08
2.17586e-08
1.03073e-07
-1.23285e-07
7.97106e-08
-1.93887e-07
3.94763e-08
-8.8639e-08
-3.27323e-10
-1.22903e-08
5.66314e-10
-4.86964e-09
4.41709e-10
-8.37594e-10
5.85771e-10
-4.26958e-10
4.64718e-10
3.18015e-10
4.02141e-10
4.15128e-10
1.84681e-07
2.87513e-08
2.79353e-07
1.74585e-07
2.47552e-07
1.50482e-07
-7.47846e-10
2.00795e-07
-1.79815e-07
2.75569e-06
-2.63677e-07
1.07471e-06
-2.23849e-07
-7.68692e-07
-7.52853e-08
-2.40386e-06
5.55007e-08
-6.09581e-08
2.99383e-08
6.18394e-08
8.87046e-09
-6.1034e-08
-1.33748e-08
-7.63224e-07
9.61088e-08
-1.15806e-06
1.72699e-08
5.29081e-07
-3.84279e-09
1.18643e-08
3.57518e-09
-3.16163e-07
1.60859e-10
3.5123e-10
3.8091e-09
-3.87623e-10
4.80357e-09
4.724e-08
2.09055e-08
2.6336e-08
1.82688e-08
-1.73498e-07
5.69796e-09
-4.39082e-08
6.57413e-09
-1.24135e-10
4.54349e-08
-1.92883e-08
2.8361e-08
4.45457e-08
3.08731e-09
8.64428e-08
-1.76324e-09
2.96235e-08
-3.94994e-10
-2.14324e-09
1.66471e-08
-1.29968e-07
2.2815e-09
4.84831e-09
1.50259e-10
-1.96619e-08
3.17025e-09
1.10978e-07
1.84477e-09
1.73442e-08
2.95743e-08
1.37472e-08
5.18998e-09
-5.49374e-08
7.6843e-09
-7.44089e-08
7.35336e-10
-3.04865e-10
-2.6991e-10
-2.36876e-10
-1.66771e-10
-3.5342e-09
2.42866e-08
-1.05763e-08
1.26264e-07
-2.00415e-08
1.18034e-07
-1.20283e-07
7.48408e-08
-1.5386e-07
3.37666e-08
-9.39398e-08
3.63616e-10
-2.07627e-08
8.27256e-10
-5.41456e-09
4.37596e-10
-1.07823e-09
9.78182e-10
-1.16276e-09
8.11204e-10
4.51153e-10
7.54243e-10
4.57281e-10
1.39902e-07
2.89674e-08
2.81657e-07
1.83257e-07
2.21208e-07
1.91304e-07
3.32459e-08
1.82913e-07
-1.76197e-07
2.93781e-06
-2.5549e-07
1.16543e-06
-2.23477e-07
-7.8294e-07
-4.09399e-08
-2.59605e-06
1.38611e-07
-2.41685e-07
6.68074e-08
3.01485e-08
8.75529e-09
-3.2663e-08
-4.62057e-08
-4.62392e-07
-9.35231e-08
-1.08588e-06
1.6459e-08
1.56573e-07
-2.5648e-09
1.51345e-08
4.77018e-10
-3.00692e-07
-4.62257e-10
-2.92057e-09
3.01618e-10
-5.42428e-10
5.81386e-09
1.10287e-07
1.95484e-08
1.8176e-08
8.31167e-09
-7.29794e-08
2.63124e-09
-3.88171e-09
2.74284e-09
-9.37969e-11
3.17652e-08
-1.30465e-08
1.73385e-08
5.89607e-08
-3.90569e-10
1.05982e-07
-2.73254e-09
2.89124e-08
-8.84422e-09
-3.87628e-09
1.19106e-08
-1.3769e-07
4.37852e-09
-2.68109e-10
1.2596e-09
-1.99102e-08
2.2402e-08
1.40641e-07
2.97135e-09
3.20229e-08
7.44624e-09
1.27243e-08
3.15182e-09
-1.31495e-08
-4.49764e-09
-6.23329e-08
1.82517e-09
-7.70997e-08
1.15432e-09
-6.88838e-10
-8.20445e-10
-1.00387e-09
-5.73547e-09
-5.13166e-09
6.48872e-08
-5.98504e-08
1.04282e-07
-1.64689e-07
6.92271e-08
-1.22874e-07
4.51443e-08
-7.467e-08
1.45891e-09
-2.75107e-08
3.40103e-10
-4.97638e-09
1.65411e-10
-1.31445e-09
1.02393e-09
-2.36817e-09
8.49382e-10
7.49668e-11
8.41093e-10
4.31519e-10
6.30912e-08
7.68824e-09
2.85287e-07
2.12088e-07
2.04793e-07
2.40009e-07
4.89214e-08
1.79153e-07
-1.66491e-07
3.10416e-06
-2.20371e-07
1.22341e-06
-1.90715e-07
-8.28947e-07
-9.62442e-08
-2.84899e-06
1.90524e-07
-6.13291e-07
1.07458e-07
-1.20177e-08
-7.98384e-09
4.40408e-08
-1.24096e-07
-1.90829e-07
-2.70008e-08
-1.04493e-06
6.63275e-09
-1.01364e-09
2.66179e-09
9.11452e-09
2.74586e-09
-2.71644e-07
-7.02629e-11
-7.96698e-09
-8.37075e-09
1.0999e-08
1.99309e-08
1.25475e-07
1.90461e-08
2.70162e-08
1.58819e-09
-5.55962e-08
5.08558e-10
-2.66221e-09
5.075e-10
-2.74115e-11
1.48262e-08
-1.8145e-09
1.68987e-08
5.86912e-08
-3.96537e-10
1.24294e-07
-2.77518e-09
8.72992e-08
-6.45239e-09
-2.17032e-09
5.79056e-09
-6.29509e-08
2.61621e-09
2.11153e-10
6.1357e-09
-3.65824e-08
2.35475e-08
1.30106e-07
4.24392e-09
4.55187e-08
1.0625e-09
1.34634e-08
1.35807e-09
-6.024e-09
3.3496e-09
-6.09267e-08
6.14427e-10
-1.10239e-07
5.9186e-10
-3.73865e-09
-4.73901e-11
2.61718e-10
-1.57205e-09
-3.09215e-09
2.87921e-08
-8.74442e-09
8.26241e-08
-2.25321e-07
6.42609e-08
-1.05882e-07
2.14413e-08
-3.64233e-08
-7.27635e-10
-5.30922e-08
2.17259e-10
-1.09909e-08
-2.44258e-10
-1.30843e-09
1.12339e-09
-1.19173e-08
3.10497e-10
-7.90653e-11
1.87827e-10
4.65804e-10
-1.34467e-09
9.75039e-09
1.32729e-07
2.75852e-07
1.72373e-07
1.99928e-07
2.96693e-08
1.85833e-07
-1.54064e-07
3.25805e-06
-1.96579e-07
1.26411e-06
-1.37001e-07
-8.90941e-07
-1.57465e-07
-2.82285e-06
-7.92959e-09
-7.5679e-07
8.28054e-08
-1.23819e-07
-3.57949e-08
1.42109e-07
-1.26147e-07
-1.18432e-08
5.70193e-08
-6.40344e-07
1.01186e-08
4.12532e-09
4.05491e-09
2.33525e-08
3.68308e-09
-4.84315e-08
8.2056e-10
-3.58948e-09
2.84815e-09
9.65039e-09
1.80449e-08
1.39119e-07
1.3531e-08
2.98777e-09
6.6208e-10
-3.65932e-08
6.16914e-10
-5.85207e-09
6.93641e-10
-3.7853e-11
7.94971e-09
6.08428e-11
1.90791e-08
4.91148e-08
2.57176e-09
1.42533e-07
-1.2281e-09
2.46971e-07
-3.43975e-09
-1.00883e-09
-8.80926e-10
-1.6602e-08
-3.94656e-11
1.61683e-10
2.549e-09
-1.41473e-08
2.48315e-08
1.11728e-07
4.20267e-09
6.07085e-08
1.72435e-10
2.6251e-08
-3.69185e-09
-7.70629e-11
7.14139e-09
-6.89013e-08
-5.62152e-09
-9.3209e-08
-4.45271e-11
-3.20594e-09
9.15123e-10
-7.01038e-10
1.9717e-09
-3.79467e-09
7.94373e-09
-4.15009e-09
8.02123e-08
-1.79023e-07
5.79101e-08
-8.91088e-08
4.84843e-08
-3.38252e-08
7.03502e-09
-5.84371e-08
1.20281e-09
-1.07769e-08
-2.60423e-09
-2.91554e-10
-1.01849e-09
-1.36613e-07
-7.34425e-10
9.60092e-12
-2.61839e-09
2.2908e-09
-2.49798e-08
3.29331e-08
8.24966e-08
2.99732e-07
1.69447e-07
9.28393e-08
1.8965e-10
1.9896e-07
-1.41571e-07
3.39792e-06
-1.73128e-07
1.29405e-06
-8.32945e-08
-9.91476e-07
-1.1313e-08
-2.8907e-06
8.37312e-08
-6.14196e-07
1.21435e-08
-6.66335e-08
-4.48042e-08
1.80399e-07
-4.73203e-09
-1.07755e-07
3.31049e-08
-1.58894e-07
4.02157e-09
4.17984e-08
4.09092e-09
6.50711e-08
1.09945e-09
-4.36451e-08
1.62826e-09
-8.00687e-10
7.35517e-09
1.17491e-08
2.36989e-08
1.27514e-07
3.17394e-09
2.04273e-08
1.7931e-09
-5.91906e-08
1.46421e-10
-2.20035e-09
1.23245e-10
-2.63756e-11
6.2746e-10
5.55063e-11
8.36234e-09
2.96438e-10
4.00363e-09
1.29133e-08
-7.31883e-10
3.21776e-07
-1.81798e-09
-9.54692e-10
-2.1736e-09
-5.08103e-09
-2.60494e-10
-8.07475e-11
1.88949e-10
-9.3755e-09
1.90376e-08
9.75681e-08
7.37573e-09
1.44679e-07
7.59066e-09
1.36819e-07
1.06321e-08
-3.69263e-10
8.0705e-09
-5.18012e-08
-4.51372e-09
-7.64981e-08
-9.75467e-10
-6.78021e-09
1.17551e-09
-2.70874e-09
2.40912e-09
-4.5938e-09
2.75184e-09
-4.19715e-09
6.88449e-08
-1.59914e-07
5.12934e-08
-7.28759e-08
5.29108e-08
-6.92801e-08
8.29138e-09
-2.4461e-08
4.50124e-09
-1.11272e-08
-2.73312e-09
-3.24724e-09
-6.90954e-10
-1.17966e-07
-2.13548e-09
2.7645e-09
-4.45461e-09
5.11405e-09
9.58992e-09
8.21604e-08
1.41625e-07
1.69489e-07
1.85338e-07
3.97876e-08
-1.20251e-08
1.93988e-07
-1.28213e-07
3.52628e-06
-1.46776e-07
1.31435e-06
-7.20295e-08
-1.03682e-06
1.23073e-07
-2.98136e-06
8.43605e-08
-4.73803e-07
2.386e-09
2.86887e-09
-1.20148e-08
1.16554e-07
8.92727e-08
-3.63263e-07
1.82576e-08
-8.82197e-08
1.1607e-08
5.29917e-08
2.54377e-08
8.29507e-08
1.45623e-09
-2.85965e-08
6.28039e-10
-7.07063e-10
7.38156e-09
2.54664e-09
1.60996e-08
1.23552e-07
6.0688e-09
2.22585e-08
1.15e-09
-3.76271e-08
7.44831e-11
-1.13542e-09
4.08123e-11
-2.8133e-12
1.02143e-12
8.57439e-11
6.83776e-10
-4.39985e-10
9.95984e-10
1.15596e-09
-2.67042e-10
3.29753e-07
-2.49137e-09
-7.38008e-10
-2.481e-09
-1.82896e-08
-8.11276e-11
-2.32193e-12
4.43806e-10
-1.03371e-08
1.13717e-08
9.24473e-08
6.27135e-09
1.53936e-07
1.50824e-08
5.65215e-08
2.16507e-08
-1.00335e-09
2.30755e-08
-5.60614e-08
9.51107e-09
-4.12245e-08
3.97723e-10
-3.19881e-09
7.20578e-10
-2.4063e-09
6.36748e-10
-4.34525e-09
4.9132e-09
-8.2004e-09
4.95018e-08
-1.18788e-07
5.09691e-08
-6.84926e-08
2.15948e-08
-3.70909e-08
5.91375e-09
-9.07826e-09
2.24181e-09
-8.39423e-09
1.67514e-09
-7.53642e-09
-3.22214e-09
-9.58504e-08
-5.68193e-09
6.0087e-09
-2.20894e-08
2.55379e-08
4.43333e-08
1.70352e-07
1.04821e-07
6.00607e-08
1.33365e-07
4.98647e-09
-3.25617e-08
1.64429e-07
-1.17363e-07
3.64368e-06
-1.27662e-07
1.3302e-06
-8.84423e-08
-9.83438e-07
1.14046e-07
-2.96855e-06
5.29692e-09
-3.56893e-07
-2.45623e-08
8.22787e-08
1.15223e-08
3.89475e-08
6.49417e-08
-3.88079e-07
3.23283e-08
-4.451e-07
7.62846e-09
7.73322e-08
1.64544e-08
9.09526e-08
1.26794e-09
-9.01598e-08
2.56286e-10
-6.85057e-11
7.4909e-10
-2.56873e-10
1.42806e-08
1.17706e-07
9.53982e-09
3.20883e-08
5.10968e-10
-4.33694e-08
5.98765e-11
-6.97613e-10
4.00882e-11
8.16158e-12
4.10018e-12
1.17776e-10
6.28112e-10
3.05181e-09
2.82169e-10
5.78911e-09
3.23327e-09
9.69799e-08
-9.87784e-12
-5.73916e-10
-1.88107e-09
-1.26702e-08
-6.12575e-10
1.12408e-10
4.37281e-10
-1.3232e-08
7.8375e-09
8.89778e-08
1.66254e-08
1.23116e-07
1.52225e-08
5.07234e-08
3.62421e-08
-4.90932e-09
2.96739e-08
-5.26298e-08
9.31395e-09
-2.21971e-08
2.49609e-11
-6.36432e-09
6.08439e-10
-2.50666e-09
3.81525e-10
-3.78909e-09
4.35683e-09
-4.87655e-09
2.42475e-08
-2.4666e-08
3.05873e-08
-1.03818e-08
4.85997e-09
-6.42546e-09
1.38831e-09
-5.17878e-09
3.37206e-09
-1.39103e-08
3.728e-10
-1.07225e-08
-2.92419e-09
-7.29797e-08
-5.03496e-09
2.30537e-08
1.49102e-08
8.19949e-08
8.4043e-08
1.26724e-07
1.09923e-07
3.60684e-08
1.3676e-07
-9.68785e-09
-4.22553e-08
1.43842e-07
-1.07443e-07
3.75116e-06
-1.12683e-07
1.3382e-06
-1.03584e-07
-1.06412e-06
-5.39363e-08
-3.08319e-06
-1.04314e-07
-2.58702e-07
-8.19082e-09
4.08558e-08
8.78882e-09
6.09699e-09
2.91626e-08
-3.80275e-07
4.87764e-08
-8.56593e-07
7.13617e-09
1.13132e-07
1.50102e-08
1.00205e-07
5.23905e-10
-3.78777e-08
-2.74529e-11
4.90493e-12
-6.74182e-09
-1.11388e-10
1.32185e-08
2.95382e-08
2.56796e-09
8.35325e-10
1.95983e-10
-2.37364e-08
4.94855e-11
-5.59748e-10
4.74814e-11
6.14762e-12
3.74498e-11
1.24264e-10
1.53171e-09
1.27061e-08
2.63618e-10
8.86962e-09
1.17708e-09
1.6785e-08
-2.93483e-11
-2.44216e-10
-6.57807e-10
-9.30602e-09
-1.9937e-10
1.28871e-10
-4.82757e-09
-8.02639e-09
1.10693e-09
4.87643e-08
1.47177e-08
1.02951e-07
1.91308e-08
4.04844e-08
3.99747e-08
-1.51124e-08
2.65939e-08
-3.98327e-08
8.24964e-09
-6.34665e-08
8.20079e-10
-5.08958e-09
8.66863e-10
-2.32965e-09
4.38842e-10
-3.24012e-09
4.03196e-10
-4.63965e-09
2.81747e-09
-4.96386e-09
2.07153e-09
-3.70679e-09
1.7333e-09
-3.10732e-09
-1.7183e-09
-1.51537e-10
1.10865e-08
-5.81868e-08
-3.26824e-09
-5.227e-09
-1.42132e-08
-6.74534e-08
5.12486e-08
-5.68074e-11
5.64352e-08
1.69347e-07
9.78297e-08
1.69374e-07
1.21621e-07
8.78329e-08
1.24214e-07
-2.15785e-08
-3.95719e-08
1.15775e-07
-9.8595e-08
3.84978e-06
-1.03475e-07
1.34312e-06
-8.5452e-08
-1.11934e-06
-5.88738e-08
-3.0566e-06
-1.22884e-07
-1.53876e-07
-2.27991e-09
3.04676e-08
4.66135e-09
-2.31929e-11
1.28563e-08
-3.62707e-07
5.69213e-09
-8.38834e-07
1.27054e-08
5.02399e-07
1.30369e-08
1.11797e-07
6.17712e-12
-2.51967e-08
-1.20195e-10
1.69505e-10
-7.89527e-10
4.96193e-09
3.00068e-09
1.0201e-08
7.73307e-09
1.11193e-09
4.42407e-11
-1.23071e-08
6.03956e-11
-5.84535e-10
6.8449e-11
-5.35647e-12
6.60064e-11
1.23323e-10
3.0298e-09
1.87112e-08
3.94684e-10
1.08296e-08
6.11442e-10
1.61573e-08
6.22361e-10
-1.01315e-10
-8.45295e-10
-3.67321e-09
-5.80344e-10
9.00172e-11
-4.61289e-09
-4.30767e-09
-4.96192e-09
-2.68866e-09
1.5258e-08
1.40361e-07
2.35451e-08
9.27568e-08
3.17115e-08
-2.38489e-08
1.29352e-08
-2.13246e-08
-2.72629e-09
-4.83095e-08
4.6757e-10
-5.61473e-09
8.23807e-10
-2.59177e-09
8.01143e-10
-3.13524e-09
5.95699e-10
-4.20641e-09
1.51504e-09
-5.77129e-09
2.07018e-09
-2.71644e-10
2.44082e-10
2.46823e-10
-1.43623e-09
3.91574e-10
-1.44998e-09
-6.37619e-10
-7.40698e-09
2.62572e-09
-2.90564e-08
-4.45853e-08
2.95816e-09
-2.78653e-08
6.15732e-08
1.23035e-07
7.17337e-08
1.92473e-07
1.09148e-07
8.63709e-08
1.1388e-07
-3.43214e-08
-3.05797e-08
9.82319e-08
-8.97253e-08
3.93953e-06
-9.12576e-08
1.3402e-06
-6.05895e-08
-1.15315e-06
-1.42778e-08
-3.05436e-06
-5.52312e-08
-9.34218e-08
-3.07781e-10
-1.5085e-08
5.90735e-11
9.79776e-11
2.58275e-09
-3.43156e-07
-1.20585e-08
-8.0237e-07
3.14989e-08
6.68961e-07
6.87378e-09
9.7234e-08
-4.8575e-11
-1.86758e-08
-3.93789e-10
1.901e-10
-7.94148e-10
1.06183e-08
6.19333e-10
3.3696e-09
8.7205e-09
4.13722e-10
1.00898e-10
-5.38243e-09
1.44296e-10
-5.01831e-09
7.88704e-11
9.51397e-12
8.04003e-11
1.18832e-10
3.38714e-09
2.55626e-08
3.83453e-10
1.36585e-08
5.10933e-10
1.71105e-08
7.01344e-11
1.9286e-11
-2.54718e-10
-5.03294e-10
-1.12246e-10
1.14453e-10
-2.21146e-09
-2.24202e-09
-5.00972e-09
1.23346e-10
2.65032e-08
1.26551e-07
2.93931e-08
1.00223e-07
2.2391e-08
-1.7451e-08
8.36758e-09
-7.79394e-09
2.98024e-09
-4.3033e-08
6.41041e-10
-3.22659e-09
8.45076e-10
-2.6592e-09
1.0842e-09
-3.27445e-09
9.08098e-10
-3.91185e-09
1.80153e-09
-6.419e-09
2.14182e-09
1.73508e-11
-1.51831e-10
3.55742e-09
1.99727e-10
6.90469e-10
-1.28683e-10
-3.42615e-10
-2.6353e-10
8.50336e-10
-2.07476e-08
-2.56094e-08
-2.77766e-08
-3.11001e-08
3.32131e-08
3.60684e-08
6.11762e-08
1.50691e-07
8.57566e-08
5.88493e-08
8.28425e-08
-3.63952e-08
6.96161e-08
-2.3402e-08
5.541e-11
-1.11738e-11
4.4485e-11
-3.59691e-11
6.8044e-11
-3.69788e-11
1.70275e-09
-3.58155e-11
3.4457e-09
-3.68354e-11
3.5529e-09
-4.64157e-12
3.63787e-09
9.05916e-12
8.03285e-11
9.70406e-10
1.19635e-12
3.67387e-11
7.61987e-15
1.18581e-12
5.67119e-16
7.04821e-15
9.88294e-11
-9.88287e-11
2.06141e-08
-4.95393e-09
3.3487e-08
3.26184e-08
2.98955e-08
3.5101e-09
6.10625e-08
-3.12985e-08
7.83482e-08
-5.53346e-08
4.24208e-10
6.95975e-08
3.19408e-11
-4.91026e-09
1.32958e-09
-2.42642e-09
9.79236e-10
4.16676e-10
1.21639e-10
5.11243e-09
-9.47265e-10
3.01718e-09
-9.78462e-14
-3.80863e-14
-8.5376e-14
-1.24703e-14
1.48526e-12
-1.57065e-12
1.50815e-10
1.48301e-10
-2.00462e-12
1.27743e-10
-1.45575e-10
1.4357e-10
-2.44287e-10
-1.43409e-10
-1.92374e-11
-8.45381e-11
-1.57598e-09
2.15294e-09
-5.52949e-09
-3.91242e-09
1.47272e-08
-3.08832e-08
9.60777e-09
2.25043e-09
9.66919e-09
9.81175e-09
2.54808e-09
1.38892e-08
-2.27678e-09
1.62356e-09
-3.03409e-08
2.15061e-08
4.37165e-09
2.66903e-09
3.94882e-08
-2.40738e-08
1.63604e-07
-1.61398e-07
-1.14304e-08
2.07504e-07
-2.19588e-07
7.37248e-08
-7.02139e-10
-1.69239e-08
4.20038e-07
2.60283e-08
1.68333e-07
3.71727e-07
2.05432e-07
-3.14401e-08
2.61524e-07
-5.59096e-08
2.61546e-07
5.93487e-10
-3.17175e-11
5.61813e-10
-9.52116e-11
6.17441e-10
-7.7284e-11
6.59482e-10
-4.91205e-11
4.54613e-10
-1.01817e-11
4.27222e-10
-2.49338e-12
3.01964e-09
1.00573e-10
7.0842e-10
7.9456e-10
6.53724e-12
1.84623e-10
1.71724e-12
5.78041e-12
1.68718e-12
3.35046e-14
-4.24073e-10
4.78975e-11
4.25145e-08
-3.31851e-08
1.71515e-07
-7.39413e-08
-7.96496e-08
2.65499e-07
-1.3508e-07
1.40047e-08
9.43241e-09
-2.3203e-07
1.732e-08
1.46529e-08
-4.49276e-09
-1.65313e-09
-6.00137e-09
-2.39291e-09
-2.19699e-09
7.33804e-09
-1.85763e-09
1.91797e-08
-8.39309e-14
2.46132e-10
-1.45057e-13
-3.13392e-14
-1.83158e-13
1.12754e-14
7.38641e-12
-1.04061e-11
8.08828e-10
-1.67741e-09
2.85537e-11
8.24536e-10
6.88211e-10
1.03852e-08
-1.80038e-10
1.09643e-09
-3.32149e-10
1.09316e-10
-5.66986e-09
-9.13649e-10
2.80476e-08
-3.25663e-08
3.56499e-08
-3.29871e-08
-3.00502e-09
5.6182e-08
-8.80761e-09
-1.65962e-07
-2.22392e-10
4.28011e-08
-4.65114e-09
3.4924e-09
-3.82007e-08
3.22693e-08
-1.12438e-08
1.90755e-08
3.91011e-08
-4.7274e-08
1.58281e-07
-2.63091e-07
-1.12363e-08
6.7681e-07
-6.47163e-08
1.31875e-07
7.40002e-08
-1.7048e-07
2.6603e-07
-3.30353e-07
4.27509e-07
3.61431e-07
3.11714e-07
3.4084e-07
2.71863e-07
-1.60529e-08
5.33414e-07
5.29049e-10
-6.90789e-11
3.55149e-10
-3.37979e-11
3.38219e-10
-1.14773e-10
2.90823e-10
-3.08354e-11
2.4312e-10
1.46745e-11
1.80579e-10
3.40356e-11
1.87549e-09
7.72521e-11
6.97429e-10
4.82166e-10
3.4774e-12
3.56594e-10
6.85345e-13
8.0911e-12
1.54843e-13
4.39405e-13
4.74718e-11
5.33416e-14
-3.10457e-08
2.05994e-08
-2.42181e-08
-9.36284e-08
-5.76113e-08
2.99538e-07
-1.12731e-07
6.9934e-08
-1.0183e-07
-2.42993e-07
1.57269e-08
-1.16165e-07
-8.86071e-09
2.03378e-08
-1.26999e-08
-4.55773e-10
-1.42153e-08
8.39313e-09
-2.3832e-10
9.03491e-09
-5.97854e-13
7.96318e-12
-7.71819e-13
6.73188e-14
-2.48628e-12
1.25185e-12
4.25537e-11
-8.14889e-11
6.42329e-09
-3.6733e-08
1.05049e-08
8.74421e-09
3.69534e-09
1.90308e-08
1.42113e-10
4.42659e-09
4.40783e-10
-1.56283e-09
6.14214e-09
6.74904e-10
1.3657e-08
-3.17822e-09
-3.07906e-10
-1.41144e-08
-7.97695e-08
1.06509e-07
-8.97742e-08
-1.55116e-07
-1.41243e-09
1.0576e-08
-2.36597e-08
2.33221e-08
-1.06169e-07
1.45892e-07
-3.86346e-09
-8.40641e-07
4.72652e-09
-6.72922e-08
9.7606e-08
-3.3721e-07
-7.59878e-09
8.8245e-07
-1.79902e-08
2.05158e-07
-5.94516e-08
-1.39704e-07
-1.93065e-07
-1.27899e-07
1.48183e-07
1.43481e-07
2.02737e-07
3.10259e-07
2.76696e-07
-9.00067e-08
8.10114e-07
3.37121e-10
-2.83566e-10
2.82007e-10
1.46278e-11
2.53053e-10
-1.20717e-10
2.13726e-10
-3.24434e-11
1.72765e-10
3.57005e-11
3.38671e-10
9.58711e-11
5.19521e-10
1.92382e-10
5.26628e-10
1.34621e-11
2.62494e-11
2.00828e-10
7.30915e-12
1.473e-11
-5.5481e-11
6.23844e-11
-1.50611e-08
6.52399e-10
1.01944e-07
-1.02996e-07
2.58336e-08
-1.74628e-08
1.33249e-09
3.24039e-07
-2.71445e-09
7.39808e-08
-6.90668e-08
-1.76641e-07
2.58818e-08
-2.41475e-07
-4.40307e-09
4.85329e-08
-9.45869e-09
2.84408e-09
-1.32352e-08
1.56803e-08
-8.16663e-12
4.06245e-09
-6.41176e-13
4.33204e-13
-4.41691e-12
3.40652e-12
-4.01318e-10
2.33757e-11
-8.15286e-10
-3.83026e-08
6.56694e-09
-4.1593e-08
3.44133e-09
1.433e-08
3.13196e-09
2.09744e-08
-3.10275e-09
1.87156e-08
-9.94421e-09
-4.08643e-10
-9.21845e-12
-2.00883e-08
4.54127e-10
-3.98169e-09
-1.90505e-08
3.84625e-09
-3.20108e-08
1.20196e-07
-6.97869e-08
-1.16565e-07
-8.91142e-08
3.07244e-08