/*--------------------------------*- C++ -*----------------------------------*\
| =========                 |                                                 |
| \\      /  F ield         | OpenFOAM: The Open Source CFD Toolbox           |
|  \\    /   O peration     | Version:  2.4.0                                 |
|   \\  /    A nd           | Web:      www.OpenFOAM.org                      |
|    \\/     M anipulation  |                                                 |
\*---------------------------------------------------------------------------*/
FoamFile
{
    version     2.0;
    format      ascii;
    class       volScalarField;
    location    "1";
    object      p_rgh;
}
// * * * * * * * * * * * * * * * * * * * * * * * * * * * * * * * * * * * * * //

dimensions      [1 -1 -2 0 0 0 0];

internalField   nonuniform List<scalar> 
2400
(
-0.000429278
-0.000429492
-0.000429903
-0.000430507
-0.000431295
-0.000432257
-0.000433381
-0.00043465
-0.000436053
-0.000437574
-0.000439201
-0.000440924
-0.000442735
-0.000444627
-0.000446596
-0.000448635
-0.000450735
-0.000452883
-0.000455065
-0.000457262
-0.000429221
-0.000429435
-0.000429848
-0.000430454
-0.000431245
-0.000432211
-0.000433338
-0.000434612
-0.000436018
-0.000437543
-0.000439173
-0.000440899
-0.000442713
-0.000444608
-0.00044658
-0.000448623
-0.000450727
-0.00045288
-0.000455066
-0.000457267
-0.000429107
-0.000429322
-0.000429738
-0.000430349
-0.000431146
-0.000432119
-0.000433254
-0.000434536
-0.00043595
-0.000437482
-0.000439119
-0.000440851
-0.00044267
-0.000444571
-0.00044655
-0.0004486
-0.000450712
-0.000452874
-0.000455068
-0.000457278
-0.000428937
-0.000429154
-0.000429574
-0.000430193
-0.000430999
-0.000431983
-0.000433129
-0.000434423
-0.000435849
-0.000437393
-0.00043904
-0.000440781
-0.000442608
-0.000444517
-0.000446504
-0.000448564
-0.000450688
-0.000452863
-0.000455071
-0.000457292
-0.000428712
-0.000428931
-0.000429358
-0.000429986
-0.000430804
-0.000431802
-0.000432964
-0.000434274
-0.000435716
-0.000437275
-0.000438936
-0.000440688
-0.000442525
-0.000444444
-0.000446441
-0.000448514
-0.000450655
-0.000452847
-0.000455073
-0.000457311
-0.00042843
-0.000428653
-0.000429088
-0.000429727
-0.000430562
-0.000431577
-0.000432759
-0.00043409
-0.000435553
-0.00043713
-0.000438808
-0.000440574
-0.000442422
-0.000444351
-0.00044636
-0.000448449
-0.00045061
-0.000452826
-0.000455075
-0.000457335
-0.000428091
-0.000428318
-0.000428763
-0.000429418
-0.000430271
-0.000431308
-0.000432515
-0.000433871
-0.000435359
-0.00043696
-0.000438657
-0.000440439
-0.000442299
-0.000444238
-0.00044626
-0.000448367
-0.000450553
-0.000452798
-0.000455078
-0.000457365
-0.000427695
-0.000427927
-0.000428384
-0.000429056
-0.000429931
-0.000430996
-0.000432231
-0.000433618
-0.000435136
-0.000436764
-0.000438485
-0.000440284
-0.000442155
-0.000444103
-0.000446138
-0.000448266
-0.000450481
-0.000452763
-0.00045508
-0.000457403
-0.000427239
-0.000427479
-0.000427949
-0.000428642
-0.000429544
-0.000430639
-0.000431909
-0.000433332
-0.000434885
-0.000436545
-0.000438292
-0.00044011
-0.000441992
-0.000443946
-0.000445992
-0.000448143
-0.000450394
-0.00045272
-0.000455084
-0.000457449
-0.000426724
-0.000426971
-0.000427458
-0.000428174
-0.000429107
-0.000430238
-0.000431548
-0.000433013
-0.000434607
-0.000436305
-0.000438082
-0.000439919
-0.000441809
-0.000443766
-0.000445819
-0.000447995
-0.00045029
-0.00045267
-0.00045509
-0.000457505
-0.000426147
-0.000426403
-0.000426909
-0.000427652
-0.00042862
-0.000429793
-0.000431149
-0.000432663
-0.000434305
-0.000436046
-0.000437857
-0.000439714
-0.000441609
-0.000443561
-0.000445616
-0.000447819
-0.000450165
-0.000452611
-0.000455098
-0.000457573
-0.000425508
-0.000425773
-0.0004263
-0.000427075
-0.000428084
-0.000429304
-0.000430713
-0.000432281
-0.000433978
-0.000435769
-0.00043762
-0.0004395
-0.000441395
-0.00044333
-0.000445377
-0.000447607
-0.000450016
-0.000452544
-0.000455112
-0.000457655
-0.000424802
-0.00042508
-0.000425631
-0.000426442
-0.000427495
-0.000428769
-0.000430237
-0.000431868
-0.000433628
-0.000435479
-0.000437377
-0.000439283
-0.000441171
-0.000443072
-0.000445094
-0.000447352
-0.00044984
-0.000452468
-0.000455133
-0.000457755
-0.000424029
-0.00042432
-0.000424898
-0.000425749
-0.000426854
-0.000428188
-0.000429722
-0.000431424
-0.000433257
-0.000435177
-0.000437134
-0.00043907
-0.000440944
-0.000442783
-0.000444753
-0.000447041
-0.00044963
-0.000452385
-0.000455166
-0.000457876
-0.000423186
-0.00042349
-0.000424098
-0.000424994
-0.000426156
-0.000427557
-0.000429166
-0.000430949
-0.000432865
-0.000434868
-0.000436897
-0.000438875
-0.000440727
-0.000442461
-0.000444332
-0.000446658
-0.00044938
-0.000452296
-0.000455218
-0.000458024
-0.000422268
-0.000422586
-0.000423229
-0.000424175
-0.000425401
-0.000426877
-0.000428569
-0.000430442
-0.000432454
-0.000434556
-0.000436676
-0.000438714
-0.000440541
-0.000442121
-0.000443821
-0.000446184
-0.000449084
-0.000452207
-0.0004553
-0.000458204
-0.000421163
-0.000421485
-0.000422163
-0.000423166
-0.000424463
-0.000426021
-0.000427806
-0.000429781
-0.000431903
-0.000434123
-0.000436363
-0.00043849
-0.000440285
-0.000441562
-0.000443116
-0.000445577
-0.000448737
-0.000452138
-0.000455451
-0.000458456
-0.000420854
-0.000421217
-0.000421943
-0.000422997
-0.000424355
-0.000425979
-0.000427834
-0.000429879
-0.000432073
-0.000434369
-0.000436691
-0.000438885
-0.000440622
-0.000441405
-0.000442195
-0.000444708
-0.000448114
-0.000451745
-0.000455199
-0.000458156
-0.000417802
-0.000418081
-0.000418869
-0.000420037
-0.000421547
-0.000423358
-0.000425433
-0.000427731
-0.000430217
-0.000432849
-0.00043557
-0.000438212
-0.000440271
-0.00044064
-0.0004414
-0.000444665
-0.000448808
-0.000453225
-0.000457272
-0.000460509
-0.000418993
-0.000419434
-0.000420275
-0.000421459
-0.000422973
-0.000424764
-0.000426794
-0.00042902
-0.000431404
-0.000433919
-0.000436546
-0.000439209
-0.000441382
-0.000439847
-0.000437935
-0.000441332
-0.000445844
-0.000450458
-0.000454636
-0.000457036
-0.000458914
-0.000460017
-0.000461118
-0.000462213
-0.000463301
-0.00046438
-0.000465446
-0.000466499
-0.000467537
-0.000468558
-0.000469562
-0.000470548
-0.000471515
-0.000472463
-0.000473391
-0.000474301
-0.000475192
-0.000476064
-0.000476917
-0.000477752
-0.000458922
-0.000460026
-0.000461129
-0.000462225
-0.000463315
-0.000464394
-0.000465462
-0.000466515
-0.000467554
-0.000468576
-0.000469581
-0.000470567
-0.000471534
-0.000472482
-0.000473411
-0.000474323
-0.000475214
-0.000476086
-0.000476941
-0.000477777
-0.000458937
-0.000460044
-0.000461148
-0.000462247
-0.000463338
-0.000464418
-0.000465487
-0.000466543
-0.000467583
-0.000468606
-0.000469613
-0.000470601
-0.000471569
-0.000472519
-0.00047345
-0.000474364
-0.000475257
-0.000476132
-0.000476988
-0.000477825
-0.000458958
-0.000460069
-0.000461176
-0.000462278
-0.000463371
-0.000464455
-0.000465526
-0.000466583
-0.000467626
-0.000468652
-0.00046966
-0.00047065
-0.000471621
-0.000472574
-0.000473508
-0.000474424
-0.000475321
-0.000476198
-0.000477057
-0.000477896
-0.000458987
-0.000460103
-0.000461215
-0.000462321
-0.000463418
-0.000464505
-0.00046558
-0.00046664
-0.000467685
-0.000468713
-0.000469724
-0.000470717
-0.000471692
-0.000472648
-0.000473586
-0.000474506
-0.000475406
-0.000476287
-0.000477148
-0.000477989
-0.000459024
-0.000460149
-0.000461268
-0.000462379
-0.000463482
-0.000464573
-0.000465651
-0.000466715
-0.000467763
-0.000468795
-0.000469809
-0.000470805
-0.000471783
-0.000472743
-0.000473685
-0.000474609
-0.000475513
-0.000476397
-0.000477261
-0.000478105
-0.000459072
-0.000460207
-0.000461335
-0.000462455
-0.000463563
-0.00046466
-0.000465743
-0.000466811
-0.000467863
-0.000468898
-0.000469915
-0.000470915
-0.000471897
-0.000472861
-0.000473808
-0.000474735
-0.000475643
-0.000476531
-0.000477398
-0.000478245
-0.000459132
-0.00046028
-0.000461419
-0.000462548
-0.000463665
-0.000464769
-0.000465857
-0.00046693
-0.000467986
-0.000469025
-0.000470046
-0.000471049
-0.000472035
-0.000473004
-0.000473955
-0.000474886
-0.000475798
-0.000476689
-0.000477559
-0.000478409
-0.000459205
-0.000460368
-0.000461521
-0.000462662
-0.000463788
-0.0004649
-0.000465995
-0.000467074
-0.000468134
-0.000469177
-0.000470203
-0.00047121
-0.0004722
-0.000473172
-0.000474128
-0.000475062
-0.000475977
-0.000476871
-0.000477745
-0.000478597
-0.000459293
-0.000460475
-0.000461644
-0.000462798
-0.000463936
-0.000465057
-0.00046616
-0.000467244
-0.00046831
-0.000469358
-0.000470387
-0.000471398
-0.000472391
-0.000473365
-0.000474327
-0.000475264
-0.000476182
-0.000477079
-0.000477955
-0.00047881
-0.000459397
-0.000460601
-0.000461788
-0.000462958
-0.000464109
-0.000465241
-0.000466352
-0.000467444
-0.000468515
-0.000469568
-0.000470601
-0.000471615
-0.000472611
-0.000473589
-0.000474552
-0.000475492
-0.000476411
-0.00047731
-0.000478189
-0.000479045
-0.000459521
-0.000460749
-0.000461958
-0.000463145
-0.000464311
-0.000465454
-0.000466575
-0.000467674
-0.000468752
-0.000469809
-0.000470845
-0.000471863
-0.000472861
-0.000473841
-0.000474804
-0.000475745
-0.000476666
-0.000477567
-0.000478446
-0.000479305
-0.000459668
-0.000460922
-0.000462154
-0.00046336
-0.000464542
-0.000465699
-0.00046683
-0.000467938
-0.000469021
-0.000470082
-0.000471122
-0.000472142
-0.000473141
-0.000474122
-0.000475084
-0.000476026
-0.000476947
-0.000477847
-0.000478728
-0.000479588
-0.000459839
-0.000461123
-0.000462379
-0.000463606
-0.000464806
-0.000465978
-0.000467121
-0.000468237
-0.000469327
-0.000470392
-0.000471434
-0.000472454
-0.000473454
-0.000474434
-0.000475394
-0.000476334
-0.000477253
-0.000478153
-0.000479033
-0.000479894
-0.000460041
-0.000461355
-0.000462637
-0.000463887
-0.000465107
-0.000466295
-0.000467453
-0.000468578
-0.000469674
-0.000470741
-0.000471783
-0.000472802
-0.000473799
-0.000474777
-0.000475734
-0.00047667
-0.000477586
-0.000478483
-0.000479362
-0.000480222
-0.000460278
-0.000461624
-0.000462932
-0.000464206
-0.000465448
-0.000466657
-0.000467829
-0.000468965
-0.000470064
-0.000471131
-0.000472171
-0.000473185
-0.000474178
-0.000475153
-0.000476103
-0.000477033
-0.000477943
-0.000478836
-0.000479711
-0.00048057
-0.000460603
-0.00046199
-0.00046333
-0.000464634
-0.000465907
-0.000467147
-0.00046834
-0.000469492
-0.000470591
-0.000471655
-0.000472692
-0.000473699
-0.000474685
-0.000475658
-0.000476596
-0.000477515
-0.000478415
-0.000479299
-0.000480165
-0.000481017
-0.000460295
-0.000461668
-0.00046298
-0.000464262
-0.000465528
-0.000466769
-0.000467952
-0.000469104
-0.000470172
-0.000471215
-0.000472245
-0.00047324
-0.000474241
-0.000475207
-0.000476159
-0.000477095
-0.000478013
-0.000478924
-0.000479819
-0.000480707
-0.000463007
-0.000464558
-0.000466002
-0.000467382
-0.000468802
-0.000470157
-0.000471443
-0.000472715
-0.000473731
-0.000474795
-0.000475798
-0.000476739
-0.000477727
-0.000478591
-0.000479465
-0.000480286
-0.000481074
-0.000481852
-0.000482588
-0.000483316
-0.000459411
-0.000460751
-0.000461902
-0.000463012
-0.00046442
-0.000465822
-0.000466819
-0.000468379
-0.000468921
-0.000469985
-0.0004711
-0.000471851
-0.000473193
-0.000473962
-0.000475029
-0.000476015
-0.000476945
-0.000478007
-0.000478945
-0.000479984
-0.000478978
-0.000480529
-0.000481991
-0.000483358
-0.000484632
-0.000485812
-0.000486901
-0.000487899
-0.000488807
-0.000489626
-0.000490357
-0.000491001
-0.000491562
-0.000492041
-0.000492442
-0.000492767
-0.000493018
-0.000493201
-0.000493317
-0.000493373
-0.000479004
-0.000480556
-0.000482017
-0.000483384
-0.000484657
-0.000485837
-0.000486925
-0.000487922
-0.000488829
-0.000489646
-0.000490376
-0.000491019
-0.000491579
-0.000492058
-0.000492457
-0.00049278
-0.000493031
-0.000493212
-0.000493329
-0.000493383
-0.000479053
-0.000480607
-0.000482068
-0.000483435
-0.000484707
-0.000485885
-0.000486971
-0.000487966
-0.00048887
-0.000489686
-0.000490414
-0.000491056
-0.000491614
-0.00049209
-0.000492487
-0.000492807
-0.000493056
-0.000493236
-0.000493352
-0.000493406
-0.000479126
-0.000480682
-0.000482144
-0.00048351
-0.000484781
-0.000485957
-0.00048704
-0.000488031
-0.000488933
-0.000489746
-0.000490472
-0.000491111
-0.000491666
-0.000492138
-0.000492531
-0.000492849
-0.000493094
-0.000493273
-0.000493388
-0.000493441
-0.000479222
-0.00048078
-0.000482243
-0.00048361
-0.000484879
-0.000486053
-0.000487131
-0.000488119
-0.000489016
-0.000489827
-0.00049055
-0.000491186
-0.000491736
-0.000492204
-0.000492592
-0.000492904
-0.000493147
-0.000493323
-0.000493436
-0.000493488
-0.000479341
-0.000480903
-0.000482368
-0.000483734
-0.000485003
-0.000486172
-0.000487246
-0.000488228
-0.000489122
-0.000489929
-0.000490648
-0.00049128
-0.000491825
-0.000492286
-0.000492668
-0.000492975
-0.000493213
-0.000493386
-0.000493496
-0.000493546
-0.000479484
-0.00048105
-0.000482517
-0.000483885
-0.000485151
-0.000486316
-0.000487383
-0.000488359
-0.000489248
-0.000490051
-0.000490766
-0.000491393
-0.000491932
-0.000492386
-0.000492759
-0.00049306
-0.000493292
-0.000493461
-0.000493568
-0.000493616
-0.000479652
-0.000481221
-0.000482691
-0.000484061
-0.000485324
-0.000486483
-0.000487543
-0.000488512
-0.000489396
-0.000490195
-0.000490906
-0.000491527
-0.000492058
-0.000492503
-0.000492868
-0.00049316
-0.000493385
-0.000493547
-0.00049365
-0.000493697
-0.000479844
-0.000481417
-0.000482891
-0.000484263
-0.000485524
-0.000486676
-0.000487726
-0.000488687
-0.000489564
-0.000490359
-0.000491066
-0.000491682
-0.000492205
-0.000492639
-0.000492993
-0.000493274
-0.00049349
-0.000493646
-0.000493744
-0.000493789
-0.00048006
-0.000481639
-0.000483118
-0.000484492
-0.000485751
-0.000486894
-0.000487932
-0.000488883
-0.000489753
-0.000490544
-0.000491248
-0.000491858
-0.000492372
-0.000492795
-0.000493135
-0.000493403
-0.000493608
-0.000493756
-0.000493849
-0.000493891
-0.0004803
-0.000481886
-0.000483372
-0.000484751
-0.000486007
-0.000487138
-0.00048816
-0.000489097
-0.000489961
-0.00049075
-0.000491452
-0.000492057
-0.00049256
-0.000492969
-0.000493293
-0.000493546
-0.000493738
-0.000493876
-0.000493964
-0.000494005
-0.000480563
-0.000482157
-0.000483655
-0.000485041
-0.000486294
-0.000487409
-0.000488408
-0.000489331
-0.000490187
-0.000490977
-0.00049168
-0.000492279
-0.000492771
-0.000493163
-0.000493468
-0.000493702
-0.00049388
-0.000494008
-0.00049409
-0.000494128
-0.00048085
-0.000482454
-0.000483966
-0.000485365
-0.000486616
-0.000487708
-0.000488675
-0.000489578
-0.000490429
-0.000491225
-0.000491932
-0.000492527
-0.000493007
-0.000493378
-0.000493659
-0.00049387
-0.000494032
-0.00049415
-0.000494226
-0.000494262
-0.00048116
-0.000482776
-0.000484307
-0.000485725
-0.000486975
-0.000488038
-0.000488957
-0.000489822
-0.000490684
-0.000491494
-0.000492211
-0.000492804
-0.000493268
-0.000493615
-0.000493866
-0.00049405
-0.000494194
-0.000494302
-0.000494372
-0.000494406
-0.000481489
-0.000483119
-0.000484676
-0.000486128
-0.000487381
-0.000488402
-0.000489252
-0.000490091
-0.000490953
-0.000491786
-0.00049252
-0.000493112
-0.000493559
-0.000493876
-0.000494089
-0.00049424
-0.000494365
-0.000494465
-0.000494528
-0.000494559
-0.000481837
-0.000483482
-0.000485073
-0.000486579
-0.000487844
-0.000488803
-0.00048954
-0.000490333
-0.000491226
-0.000492103
-0.000492862
-0.000493454
-0.000493881
-0.000494162
-0.000494327
-0.000494436
-0.000494543
-0.000494636
-0.000494693
-0.00049472
-0.000482277
-0.000483928
-0.000485557
-0.00048715
-0.000488439
-0.000489318
-0.000489906
-0.000490572
-0.000491504
-0.000492448
-0.000493244
-0.000493835
-0.000494234
-0.000494471
-0.000494573
-0.000494627
-0.000494718
-0.00049481
-0.000494857
-0.000494883
-0.000482027
-0.000483782
-0.000485554
-0.000487399
-0.000488816
-0.000489644
-0.000490069
-0.000490878
-0.000491937
-0.000492987
-0.000493906
-0.000494541
-0.000494937
-0.000495144
-0.000495185
-0.000495183
-0.000495284
-0.000495398
-0.000495434
-0.000495441
-0.000484374
-0.00048576
-0.000487187
-0.000488948
-0.000490089
-0.000490452
-0.000490028
-0.000490394
-0.000491274
-0.000492212
-0.000492953
-0.000493366
-0.000493568
-0.000493596
-0.000493413
-0.000493213
-0.000493264
-0.000493365
-0.00049336
-0.00049342
-0.000481483
-0.000483553
-0.000485662
-0.000488676
-0.000490762
-0.000491489
-0.000491185
-0.000491494
-0.000493568
-0.000495422
-0.000496812
-0.000497582
-0.000498032
-0.000498259
-0.000498111
-0.000497875
-0.00049807
-0.000498342
-0.000498321
-0.000498229
-0.000420707
-0.000421164
-0.000421989
-0.000423152
-0.000424627
-0.000426381
-0.000428372
-0.000430555
-0.00043288
-0.000435296
-0.000437756
-0.000440226
-0.000442673
-0.000445009
-0.000447156
-0.000449163
-0.000450995
-0.000452678
-0.000454254
-0.000455767
-0.000416281
-0.000416782
-0.000417707
-0.000419016
-0.000420683
-0.000422676
-0.000424954
-0.000427468
-0.000430166
-0.000432987
-0.000435867
-0.000438732
-0.000441512
-0.000444207
-0.000446822
-0.000449239
-0.0004515
-0.000453594
-0.000455536
-0.000457362
-0.000409638
-0.00041022
-0.000411312
-0.000412873
-0.000414877
-0.00041729
-0.000420069
-0.000423164
-0.000426516
-0.000430059
-0.000433723
-0.000437431
-0.000441112
-0.000444698
-0.000448123
-0.000451328
-0.000454308
-0.000457034
-0.000459527
-0.000461817
-0.000401631
-0.00040233
-0.000403653
-0.000405559
-0.000408022
-0.00041101
-0.000414473
-0.000418354
-0.00042258
-0.000427069
-0.000431729
-0.000436459
-0.000441153
-0.000445707
-0.000450021
-0.000454006
-0.000457648
-0.000460876
-0.000463718
-0.000466211
-0.0003912
-0.000392048
-0.000393665
-0.000396012
-0.000399066
-0.000402792
-0.000407141
-0.000412049
-0.000417435
-0.000423197
-0.000429217
-0.000435357
-0.000441463
-0.000447374
-0.000452933
-0.000458014
-0.000462446
-0.000466276
-0.00046946
-0.000472066
-0.000377821
-0.000378848
-0.000380825
-0.000383717
-0.000387508
-0.000392169
-0.000397659
-0.000403915
-0.000410851
-0.000418349
-0.00042626
-0.0004344
-0.000442552
-0.000450472
-0.000457884
-0.000464504
-0.000470058
-0.000474563
-0.000477811
-0.000480076
-0.000360798
-0.000362019
-0.000364398
-0.000367916
-0.000372573
-0.000378358
-0.000385245
-0.000393192
-0.000402124
-0.000411919
-0.000422395
-0.0004333
-0.000444302
-0.000454991
-0.000464902
-0.000473555
-0.000480535
-0.000485409
-0.000488332
-0.00048966
-0.000339356
-0.000340763
-0.000343538
-0.00034769
-0.000353259
-0.000360281
-0.000368787
-0.000378781
-0.000390232
-0.000403068
-0.000417143
-0.000432203
-0.000447859
-0.00046353
-0.00047841
-0.000491442
-0.000501436
-0.000507396
-0.000508337
-0.000505319
-0.000312702
-0.000314242
-0.000317322
-0.000321997
-0.000328362
-0.000336538
-0.000346661
-0.000358864
-0.000373255
-0.000389846
-0.000408543
-0.0004292
-0.000451531
-0.000474914
-0.000498365
-0.000520442
-0.000539425
-0.000554596
-0.000565384
-0.000546719
-0.000280171
-0.000281727
-0.000284881
-0.000289757
-0.000296525
-0.000305426
-0.000316772
-0.000330951
-0.000348336
-0.000369155
-0.000393423
-0.000420982
-0.000451616
-0.000484695
-0.000518948
-0.000549652
-0.000567139
-0.000553672
-0.000492429
-0.000368215
-0.000241537
-0.000242891
-0.000245693
-0.000250123
-0.000256425
-0.00026497
-0.000276368
-0.000291753
-0.000312856
-0.000341385
-0.000378402
-0.000424428
-0.000480606
-0.000546088
-0.00062315
-0.000710595
-0.00081376
-0.000908765
-0.00132006
-0.00147714
-0.000197331
-0.00019818
-0.000200043
-0.000203088
-0.000207393
-0.000212864
-0.000219381
-0.000227107
-0.000236619
-0.000249488
-0.000268997
-0.000300156
-0.000350199
-0.000424845
-0.000548353
-0.000742404
-0.00098965
-0.00157333
-0.00211627
-0.00415296
-0.000149235
-0.000149254
-0.000149752
-0.000151625
-0.000156411
-0.000165814
-0.000181029
-0.00020297
-0.000232596
-0.000271293
-0.000321181
-0.000385186
-0.000468685
-0.000571074
-0.000735117
-0.000906468
-0.00134549
-0.00204472
-0.00350287
-0.00607808
-0.000100265
-9.80981e-05
-9.29886e-05
-8.33912e-05
-6.79382e-05
-4.68119e-05
-2.11709e-05
7.99505e-06
3.99414e-05
7.33296e-05
0.000105422
0.000130725
0.000131116
0.0001673
0.000134911
0.000147878
3.96157e-05
-4.55121e-05
-0.000274067
-0.00187568
-5.99071e-05
-6.06053e-05
-6.22333e-05
-6.32917e-05
-6.05109e-05
-5.66285e-05
-5.33064e-05
-5.08694e-05
-4.58384e-05
-3.47049e-05
-1.2802e-05
2.77136e-05
0.000103968
0.000185223
0.000289847
0.000536022
0.000431722
0.00152116
0.000850251
0.0231207
-6.37254e-06
4.23803e-07
1.38463e-05
3.19411e-05
5.13741e-05
7.57104e-05
0.000108104
0.000151125
0.000204085
0.000267521
0.000343108
0.00043396
0.000527717
0.000690249
0.000819661
0.000989021
0.00118511
0.00146544
0.00148138
0.0244303
9.39263e-06
1.09508e-05
1.30102e-05
1.48012e-05
1.62327e-05
1.88325e-05
2.47518e-05
3.57966e-05
5.38324e-05
8.08006e-05
0.000118402
0.000167853
0.000227231
0.000303896
0.000402557
0.000507701
0.000605365
0.000735295
0.000523903
0.00131584
2.26099e-05
2.64035e-05
3.4672e-05
4.921e-05
7.281e-05
0.000107497
0.000152888
0.000207726
0.000271556
0.000344641
0.000427841
0.000522897
0.000631649
0.000725695
0.00093806
0.00104009
0.00120868
0.00194715
0.00122171
0.00307775
2.07975e-05
2.28509e-05
2.66585e-05
3.13761e-05
3.51901e-05
3.60693e-05
3.44498e-05
3.342e-05
3.68269e-05
4.91163e-05
7.48246e-05
0.000119426
0.000190024
0.000295931
0.000446894
0.000671576
0.000942647
0.00132748
0.00167921
0.00250703
1.11744e-05
1.28265e-05
1.64692e-05
2.2793e-05
3.30265e-05
4.87846e-05
7.13389e-05
0.000100551
0.000133406
0.000171423
0.000211602
0.000253517
0.000296529
0.000342973
0.000391954
0.000435208
0.000496564
0.000517845
0.000480775
0.00016765
-0.0004569
-0.000457663
-0.000458438
-0.00045923
-0.000460046
-0.00046089
-0.000461767
-0.000462681
-0.000463637
-0.000464636
-0.000465681
-0.000466773
-0.000467913
-0.000469099
-0.000470329
-0.0004716
-0.000472908
-0.000474249
-0.000475615
-0.000477
-0.000458689
-0.000459568
-0.000460445
-0.000461326
-0.000462215
-0.000463119
-0.000464043
-0.000464993
-0.000465972
-0.000466986
-0.000468036
-0.000469127
-0.00047026
-0.000471436
-0.000472654
-0.000473913
-0.000475209
-0.000476538
-0.000477895
-0.000479275
-0.000463427
-0.000464471
-0.000465488
-0.000466482
-0.000467459
-0.000468425
-0.000469385
-0.000470345
-0.000471312
-0.00047229
-0.000473285
-0.000474303
-0.000475355
-0.000476431
-0.00047754
-0.000478683
-0.00047986
-0.000481068
-0.000482301
-0.000483553
-0.000467902
-0.000468979
-0.000470007
-0.00047099
-0.000471933
-0.000472843
-0.000473727
-0.00047459
-0.000475442
-0.000476292
-0.00047715
-0.000478026
-0.000478932
-0.000479877
-0.000480874
-0.000481931
-0.000483056
-0.000484252
-0.000485518
-0.000486843
-0.000473789
-0.000474875
-0.000475893
-0.000476846
-0.000477733
-0.000478557
-0.000479322
-0.000480035
-0.000480708
-0.000481357
-0.000482
-0.00048266
-0.000483364
-0.000484149
-0.000485036
-0.000486044
-0.000487191
-0.000488488
-0.000489934
-0.000491514
-0.000481647
-0.000482657
-0.000483602
-0.000484452
-0.000485181
-0.000485764
-0.000486184
-0.000486436
-0.000486529
-0.000486478
-0.000486301
-0.000486031
-0.000485727
-0.000485473
-0.000485388
-0.000485591
-0.000486191
-0.00048727
-0.000488868
-0.000490958
-0.000490984
-0.000492205
-0.000493521
-0.000494856
-0.000496067
-0.000497031
-0.000497658
-0.000497943
-0.000498036
-0.0004982
-0.000498306
-0.000498063
-0.000497211
-0.000495798
-0.000494094
-0.000492694
-0.000491985
-0.000492578
-0.00049461
-0.000498109
-0.00050615
-0.000508922
-0.000511645
-0.000514403
-0.00051653
-0.000517508
-0.000516867
-0.00051376
-0.0005078
-0.000500031
-0.000491724
-0.000484072
-0.000477317
-0.000472228
-0.000468461
-0.000466257
-0.000463715
-0.000464383
-0.000468234
-0.000476741
-0.000507352
-0.000522595
-0.000528338
-0.000541925
-0.000554775
-0.00056671
-0.000582777
-0.000604043
-0.000628405
-0.000652134
-0.000664878
-0.000668512
-0.000648433
-0.000610057
-0.000563379
-0.000521707
-0.000472514
-0.00045437
-0.000432664
-0.000456421
-0.000350409
-0.000505904
-0.000340144
-0.000432213
-0.000483895
-0.000506158
-0.000491826
-0.000430196
-0.000326891
-0.000267964
-0.000264484
-0.000261643
-0.000261809
-0.000338208
-0.000345293
-0.000318005
-0.000238628
-0.000115243
6.08398e-05
-5.24588e-05
-0.00105479
-0.000771473
-0.000595854
-0.00069538
-0.000829628
-0.000429472
-0.00059572
-0.000800241
-0.00107988
-0.00148027
-0.00218643
-0.00224016
-0.00113294
6.28352e-05
0.000181625
-0.000706642
-0.0011834
-0.000788055
-0.000793815
-0.00133803
-0.00359202
-0.00338909
-0.00337662
-0.00315568
-0.00321052
-0.00317282
-0.00322565
-0.00337333
-0.00352067
-0.00466618
-0.00692156
-0.00536618
-0.00459845
-0.00551278
-0.00583316
-0.00613376
-0.00647875
-0.00650455
-0.00673041
-0.00812367
0.00286374
0.00404876
0.0108233
0.010707
0.0220021
-0.0141065
-0.0570094
-0.0404606
0.0194562
0.302846
0.775226
0.30763
-0.0753189
-0.0743616
-0.0594331
0.0288001
0.173887
0.00454723
0.0146083
-0.00447173
0.0304792
0.133384
0.497608
0.584167
0.636507
0.589868
0.580238
0.629071
0.725495
0.831061
0.889388
0.750066
0.574683
0.492707
0.48725
0.603274
0.547543
0.400669
0.586482
0.543868
0.722237
0.74395
0.752318
0.76397
0.756409
0.736152
0.711524
0.696357
0.689006
0.689919
0.690247
0.68243
0.664101
0.656277
0.663358
0.696846
0.717922
0.67818
0.644509
0.481215
0.4734
0.561826
0.546623
0.573559
0.560293
0.562175
0.558542
0.554438
0.549634
0.551076
0.539988
0.557473
0.525783
0.536539
0.515124
0.520985
0.516042
0.486633
0.502094
0.393368
0.811582
0.722648
0.74188
0.738646
0.724718
0.717249
0.705792
0.677751
0.653337
0.65028
0.634452
0.670579
0.656676
0.681647
0.68888
0.700267
0.735816
0.740438
0.729467
0.664147
-0.0074186
0.0171955
0.138981
0.0893388
0.403057
0.491517
0.580239
0.47438
0.334379
0.302527
0.262349
0.65438
0.418585
0.491868
0.416271
0.34467
0.418046
0.247205
-0.0485304
-0.00625589
0.00236249
0.00191201
0.00123971
0.00198596
-0.0648654
-0.00404584
0.128616
-0.0685487
-0.139824
-0.112344
-0.131058
-0.0472608
-0.0525998
-0.0193702
0.0273582
-0.0180044
-0.0110265
-0.00128838
-0.000562007
-0.00334616
-0.000330952
-0.00104018
-0.000813003
-5.14926e-05
0.000324928
-0.00184156
-0.00291691
-0.00108537
-0.000658722
-0.000425841
-0.000656841
-0.00252063
-0.0036095
-0.00467812
-0.00458012
-0.00406464
-0.00382185
-0.00339249
-0.00286593
-0.00186038
-0.000479098
-0.000481899
-0.000484614
-0.000487159
-0.00048944
-0.000491442
-0.00049326
-0.000494777
-0.000495999
-0.000496944
-0.000497639
-0.00049811
-0.000498392
-0.000498524
-0.000498543
-0.000498485
-0.000498383
-0.000498264
-0.000498147
-0.000498059
-0.000481367
-0.000484161
-0.000486865
-0.000489407
-0.000491754
-0.00049385
-0.000495467
-0.000496783
-0.000497789
-0.0004985
-0.000498944
-0.000499163
-0.000499204
-0.000499111
-0.000498927
-0.000498694
-0.000498445
-0.000498209
-0.000498009
-0.000497882
-0.000485453
-0.000487989
-0.000490405
-0.000492592
-0.000494442
-0.000495832
-0.000496939
-0.000497653
-0.000498014
-0.000498073
-0.000497886
-0.000497513
-0.000497011
-0.000496435
-0.000495835
-0.000495253
-0.000494725
-0.000494281
-0.000493944
-0.000493748
-0.000488908
-0.000491721
-0.000494323
-0.000496529
-0.000498238
-0.000499467
-0.000500131
-0.000500282
-0.000499981
-0.000499314
-0.000498375
-0.000497256
-0.000496045
-0.000494818
-0.00049364
-0.000492565
-0.000491638
-0.000490892
-0.000490352
-0.000490053
-0.000494054
-0.000497638
-0.000500857
-0.000503325
-0.000504788
-0.000505561
-0.000505477
-0.000504658
-0.000503272
-0.00050148
-0.000499432
-0.000497257
-0.000495069
-0.000492963
-0.000491017
-0.000489295
-0.000487846
-0.000486706
-0.000485899
-0.000485466
-0.000494752
-0.000500584
-0.000505751
-0.00050961
-0.000512284
-0.00051302
-0.00051229
-0.000510435
-0.000507737
-0.000504482
-0.000500933
-0.000497314
-0.000493798
-0.000490514
-0.000487556
-0.000484991
-0.000482867
-0.000481224
-0.000480084
-0.000479483
-0.000505406
-0.000516368
-0.000524855
-0.000529118
-0.000530168
-0.000528678
-0.00052521
-0.000520364
-0.00051472
-0.000508749
-0.000502788
-0.000497058
-0.000491717
-0.000486875
-0.000482611
-0.000478986
-0.000476039
-0.000473794
-0.000472264
-0.000471471
-0.000496859
-0.000520881
-0.00053748
-0.000546653
-0.000548827
-0.000546051
-0.000539958
-0.000531852
-0.000522726
-0.000513307
-0.000504134
-0.000495577
-0.000487852
-0.000481063
-0.000475243
-0.000470403
-0.000466541
-0.000463643
-0.000461696
-0.000460703
-0.0005473
-0.000588295
-0.000605175
-0.000606778
-0.000598133
-0.000582955
-0.000565816
-0.000548762
-0.000532259
-0.000516866
-0.000503015
-0.000490866
-0.0004804
-0.000471522
-0.000464132
-0.000458118
-0.000453388
-0.00044988
-0.00044755
-0.000446375
-0.000327317
-0.000553094
-0.000632242
-0.000642593
-0.000636042
-0.000616286
-0.000592488
-0.000566305
-0.000540874
-0.000517832
-0.000498185
-0.000481927
-0.00046854
-0.000457542
-0.000448587
-0.000441409
-0.000435833
-0.000431751
-0.000429075
-0.00042774
-0.00197446
-0.00128509
-0.00114798
-0.000997211
-0.000871754
-0.000754173
-0.000667943
-0.000596821
-0.000543925
-0.000505129
-0.000478631
-0.000460017
-0.000445754
-0.000434343
-0.000425116
-0.00041777
-0.000412103
-0.000407964
-0.000405256
-0.000403915
-0.00443636
-0.00211535
-0.00146645
-0.000784044
-0.000660215
-0.000496182
-0.000453116
-0.000433248
-0.000429387
-0.000429299
-0.000427003
-0.000421856
-0.000414761
-0.000406113
-0.000397305
-0.000389636
-0.00038358
-0.000379161
-0.000376296
-0.0003749
-0.00505794
-0.00289172
-0.0019941
-0.00156238
-0.00123641
-0.00101036
-0.000848956
-0.000737674
-0.000648815
-0.000569189
-0.000501146
-0.000446438
-0.000405689
-0.000378465
-0.000362287
-0.000352857
-0.000346941
-0.000343058
-0.000340666
-0.000339534
0.00124801
0.00299748
0.00153597
0.00127003
0.000497742
0.000433679
0.000197689
8.20606e-05
-9.32337e-06
-8.59987e-05
-0.000155366
-0.000211234
-0.000253158
-0.00028111
-0.000295942
-0.000301373
-0.000301993
-0.000300969
-0.000299856
-0.00029924
0.0151307
-0.000634402
-0.000495733
-0.000676518
-0.00065809
-0.000625742
-0.000584198
-0.000542903
-0.000504805
-0.000467925
-0.000422315
-0.000379759
-0.000342096
-0.000311129
-0.000288216
-0.000273141
-0.000264148
-0.000259232
-0.000256881
-0.000256021
0.00857755
0.00126401
0.000660192
0.000819377
0.000374205
0.000404127
0.00019052
0.000164127
6.94037e-05
3.31452e-05
-2.3682e-05
-6.28514e-05
-9.99421e-05
-0.000130703