/*--------------------------------*- C++ -*----------------------------------*\
| =========                 |                                                 |
| \\      /  F ield         | OpenFOAM: The Open Source CFD Toolbox           |
|  \\    /   O peration     | Version:  2.4.0                                 |
|   \\  /    A nd           | Web:      www.OpenFOAM.org                      |
|    \\/     M anipulation  |                                                 |
\*---------------------------------------------------------------------------*/
FoamFile
{
    version     2.0;
    format      ascii;
    class       surfaceScalarField;
    location    "1";
    object      phi;
}
// * * * * * * * * * * * * * * * * * * * * * * * * * * * * * * * * * * * * * //

dimensions      [0 3 -1 0 0 0 0];

internalField   nonuniform List<scalar> 
4700
(
-5.01556e-11
5.01556e-11
-9.99058e-11
4.97452e-11
-1.48604e-10
4.86935e-11
-1.95699e-10
4.70909e-11
-2.40647e-10
4.49438e-11
-2.82899e-10
4.22487e-11
-3.21907e-10
3.90035e-11
-3.5712e-10
3.521e-11
-3.88e-10
3.08766e-11
-4.14025e-10
2.60215e-11
-4.34704e-10
2.06767e-11
-4.49598e-10
1.48925e-11
-4.5834e-10
8.74196e-12
-4.60663e-10
2.32362e-12
-4.56419e-10
-4.24134e-12
-4.456e-10
-1.08161e-11
-4.28337e-10
-1.72574e-11
-4.04903e-10
-2.34283e-11
-3.75693e-10
-2.92037e-11
-3.44695e-11
-3.41216e-10
-5.08993e-11
1.0105e-10
-1.01448e-10
1.00285e-10
-1.50909e-10
9.81474e-11
-1.9875e-10
9.49244e-11
-2.44422e-10
9.06085e-11
-2.87371e-10
8.51908e-11
-3.2704e-10
7.86664e-11
-3.62874e-10
7.1038e-11
-3.94324e-10
6.23218e-11
-4.2086e-10
5.25537e-11
-4.41982e-10
4.17967e-11
-4.57241e-10
3.01509e-11
-4.66259e-10
1.77623e-11
-4.6876e-10
4.82876e-12
-4.6459e-10
-8.40437e-12
-4.53739e-10
-2.16582e-11
-4.36341e-10
-3.46447e-11
-4.12672e-10
-4.70861e-11
-3.83133e-10
-5.87306e-11
-6.93471e-11
-3.48241e-10
-5.11735e-11
1.52219e-10
-1.01987e-10
1.51092e-10
-1.51723e-10
1.47876e-10
-1.99839e-10
1.43035e-10
-2.45789e-10
1.36552e-10
-2.89016e-10
1.28413e-10
-3.28963e-10
1.18608e-10
-3.65071e-10
1.07141e-10
-3.96785e-10
9.40325e-11
-4.2357e-10
7.93352e-11
-4.44915e-10
6.31407e-11
-4.6036e-10
4.55961e-11
-4.69515e-10
2.69191e-11
-4.72091e-10
7.40804e-12
-4.67926e-10
-1.25635e-11
-4.57008e-10
-3.25691e-11
-4.39475e-10
-5.21704e-11
-4.15607e-10
-7.09449e-11
-3.8581e-10
-8.85173e-11
-1.04538e-10
-3.50607e-10
-5.15773e-11
2.03792e-10
-1.02792e-10
2.02299e-10
-1.52933e-10
1.98011e-10
-2.0146e-10
1.91556e-10
-2.47824e-10
1.8291e-10
-2.91468e-10
1.72052e-10
-3.3183e-10
1.58966e-10
-3.68348e-10
1.43654e-10
-4.00459e-10
1.26141e-10
-4.27617e-10
1.06491e-10
-4.493e-10
8.48221e-11
-4.65027e-10
6.13238e-11
-4.74389e-10
3.62834e-11
-4.77079e-10
1.01008e-11
-4.72923e-10
-1.67158e-11
-4.61903e-10
-4.35829e-11
-4.44164e-10
-6.9903e-11
-4.19995e-10
-9.51057e-11
-3.89812e-10
-1.18692e-10
-1.40197e-10
-3.54143e-10
-5.2113e-11
2.55902e-10
-1.03864e-10
2.54045e-10
-1.54548e-10
2.48689e-10
-2.03622e-10
2.40625e-10
-2.50539e-10
2.29822e-10
-2.9474e-10
2.16248e-10
-3.35659e-10
1.99881e-10
-3.72726e-10
1.80718e-10
-4.05371e-10
1.58784e-10
-4.33034e-10
1.34153e-10
-4.55172e-10
1.06961e-10
-4.71284e-10
7.74362e-11
-4.8093e-10
4.59318e-11
-4.83777e-10
1.29501e-11
-4.79632e-10
-2.08573e-11
-4.68475e-10
-5.47358e-11
-4.50459e-10
-8.79137e-11
-4.25885e-10
-1.19673e-10
-3.95183e-10
-1.49386e-10
-1.76484e-10
-3.58887e-10
-5.27813e-11
3.08679e-10
-1.05204e-10
3.06462e-10
-1.56565e-10
3.00045e-10
-2.06324e-10
2.9038e-10
-2.53934e-10
2.77427e-10
-2.98832e-10
2.61143e-10
-3.40451e-10
2.41497e-10
-3.7821e-10
2.18475e-10
-4.11529e-10
1.92103e-10
-4.3983e-10
1.62454e-10
-4.62551e-10
1.29681e-10
-4.79155e-10
9.40422e-11
-4.8917e-10
5.59475e-11
-4.92221e-10
1.60033e-11
-4.88093e-10
-2.49828e-11
-4.7676e-10
-6.60651e-11
-4.58391e-10
-1.06279e-10
-4.33305e-10
-1.44752e-10
-4.01949e-10
-1.80736e-10
-2.13556e-10
-3.64868e-10
-5.35817e-11
3.62258e-10
-1.06809e-10
3.59684e-10
-1.58982e-10
3.52213e-10
-2.09564e-10
3.40957e-10
-2.58006e-10
3.25865e-10
-3.03745e-10
3.06881e-10
-3.46207e-10
2.83957e-10
-3.84803e-10
2.57071e-10
-4.1894e-10
2.2624e-10
-4.48022e-10
1.91537e-10
-4.71457e-10
1.53118e-10
-4.88674e-10
1.1126e-10
-4.99149e-10
6.64234e-11
-5.02458e-10
1.93142e-11
-4.98353e-10
-2.90861e-11
-4.86803e-10
-7.76124e-11
-4.67999e-10
-1.25079e-10
-4.42292e-10
-1.70454e-10
-4.10146e-10
-2.12876e-10
-2.51579e-10
-3.72116e-10
-5.45134e-11
4.16768e-10
-1.08678e-10
4.13845e-10
-1.61797e-10
4.05329e-10
-2.13338e-10
3.92495e-10
-2.62753e-10
3.75279e-10
-3.09478e-10
3.53604e-10
-3.52929e-10
3.27409e-10
-3.92511e-10
2.96654e-10
-4.27616e-10
2.61346e-10
-4.57625e-10
2.21549e-10
-4.81919e-10
1.77413e-10
-4.99878e-10
1.29221e-10
-5.10917e-10
7.74643e-11
-5.14546e-10
2.29447e-11
-5.10471e-10
-3.31599e-11
-4.98656e-10
-8.94249e-11
-4.79331e-10
-1.44401e-10
-4.52887e-10
-1.96894e-10
-4.19812e-10
-2.45947e-10
-2.90717e-10
-3.80669e-10
-5.55755e-11
4.72342e-10
-1.10808e-10
4.69075e-10
-1.65007e-10
4.59525e-10
-2.17644e-10
4.45131e-10
-2.68174e-10
4.25808e-10
-3.16028e-10
4.0146e-10
-3.60619e-10
3.72001e-10
-4.01339e-10
3.37376e-10
-4.37565e-10
2.97574e-10
-4.68658e-10
2.52644e-10
-4.93963e-10
2.0272e-10
-5.12811e-10
1.4807e-10
-5.24537e-10
8.91926e-11
-5.28559e-10
2.69678e-11
-5.2452e-10
-3.71966e-11
-5.12384e-10
-1.01559e-10
-4.9244e-10
-1.64342e-10
-4.65138e-10
-2.24192e-10
-4.30993e-10
-2.80088e-10
-3.31134e-10
-3.90572e-10
-5.6767e-11
5.29107e-10
-1.13197e-10
5.25505e-10
-1.68607e-10
5.14934e-10
-2.22477e-10
4.99001e-10
-2.74263e-10
4.77596e-10
-3.23395e-10
4.50594e-10
-3.69277e-10
4.17886e-10
-4.11291e-10
3.79393e-10
-4.48798e-10
3.35084e-10
-4.81138e-10
2.84987e-10
-5.07622e-10
2.29207e-10
-5.27523e-10
1.67974e-10
-5.40082e-10
1.01753e-10
-5.4459e-10
3.14779e-11
-5.40583e-10
-4.12023e-11
-5.2806e-10
-1.14079e-10
-5.07387e-10
-1.85013e-10
-4.79099e-10
-2.52478e-10
-4.43742e-10
-3.15443e-10
-3.72994e-10
-4.01878e-10
-5.80869e-11
5.87193e-10
-1.15842e-10
5.8326e-10
-1.72592e-10
5.71686e-10
-2.27831e-10
5.54242e-10
-2.81016e-10
5.30784e-10
-3.31574e-10
5.01156e-10
-3.78902e-10
4.65217e-10
-4.2237e-10
4.22864e-10
-4.61323e-10
3.7404e-10
-4.95082e-10
3.18749e-10
-5.22928e-10
2.57056e-10
-5.44072e-10
1.89121e-10
-5.57638e-10
1.15322e-10
-5.6274e-10
3.6582e-11
-5.58776e-10
-4.51639e-11
-5.45766e-10
-1.27087e-10
-5.2424e-10
-2.06537e-10
-4.94826e-10
-2.8189e-10
-4.58115e-10
-3.52151e-10
-4.16461e-10
-4.14646e-10
-5.95348e-11
6.46728e-10
-1.18737e-10
6.42464e-10
-1.76956e-10
6.29907e-10
-2.33698e-10
6.10987e-10
-2.88426e-10
5.85516e-10
-3.40562e-10
5.53295e-10
-3.89493e-10
5.14152e-10
-4.34577e-10
4.67951e-10
-4.75147e-10
4.14613e-10
-5.10505e-10
3.54111e-10
-5.39909e-10
2.86463e-10
-5.62515e-10
2.1173e-10
-5.77309e-10
1.30119e-10
-5.8315e-10
4.2426e-11
-5.79224e-10
-4.90873e-11
-5.65602e-10
-1.40707e-10
-5.43057e-10
-2.29081e-10
-5.12379e-10
-3.12566e-10
-4.74177e-10
-3.90351e-10
-4.61689e-10
-4.28947e-10
-6.11112e-11
7.0784e-10
-1.21878e-10
7.03233e-10
-1.81689e-10
6.89721e-10
-2.40069e-10
6.6937e-10
-2.96484e-10
6.41935e-10
-3.50351e-10
6.07166e-10
-4.01046e-10
5.6485e-10
-4.47914e-10
5.14822e-10
-4.90274e-10
4.56976e-10
-5.27418e-10
3.91259e-10
-5.58592e-10
3.17641e-10
-5.82914e-10
2.36056e-10
-5.99217e-10
1.46426e-10
-6.05995e-10
4.9207e-11
-6.02087e-10
-5.29932e-11
-5.87665e-10
-1.55128e-10
-5.63909e-10
-2.52836e-10
-5.3181e-10
-3.44664e-10
-4.91995e-10
-4.30164e-10
-5.08822e-10
-4.44861e-10
-6.28197e-11
7.70661e-10
-1.25259e-10
7.65676e-10
-1.8678e-10
7.51246e-10
-2.46931e-10
7.29525e-10
-3.0518e-10
7.00188e-10
-3.60934e-10
6.62923e-10
-4.13557e-10
6.17476e-10
-4.62379e-10
5.63647e-10
-5.06705e-10
5.01306e-10
-5.45824e-10
4.30381e-10
-5.78989e-10
3.5081e-10
-6.0532e-10
2.62391e-10
-6.23508e-10
1.64617e-10
-6.31502e-10
5.72042e-11
-6.27563e-10
-5.69296e-11
-6.12056e-10
-1.70634e-10
-5.86849e-10
-2.78041e-10
-5.5317e-10
-3.78342e-10
-5.11643e-10
-4.71692e-10
-5.57981e-10
-4.62483e-10
-6.46696e-11
8.35333e-10
-1.2887e-10
8.29879e-10
-1.92214e-10
8.14593e-10
-2.5427e-10
7.91585e-10
-3.14501e-10
7.60422e-10
-3.723e-10
7.20725e-10
-4.27018e-10
6.72196e-10
-4.77967e-10
6.146e-10
-5.24439e-10
5.4778e-10
-5.65718e-10
4.71664e-10
-6.01097e-10
3.86192e-10
-6.29767e-10
2.91066e-10
-6.50354e-10
1.85207e-10
-6.60067e-10
6.69203e-11
-6.55836e-10
-6.11592e-11
-6.38856e-10
-1.87613e-10
-6.119e-10
-3.04996e-10
-5.76488e-10
-4.13752e-10
-5.33201e-10
-5.14978e-10
-6.09256e-10
-4.81926e-10
-6.66754e-11
9.0201e-10
-1.32696e-10
8.95902e-10
-1.9797e-10
8.79869e-10
-2.62065e-10
8.55683e-10
-3.2443e-10
8.22789e-10
-3.84437e-10
7.80734e-10
-4.41421e-10
7.29182e-10
-4.94676e-10
6.67858e-10
-5.4347e-10
5.96578e-10
-5.87088e-10
5.15285e-10
-6.24882e-10
4.2399e-10
-6.56237e-10
3.22425e-10
-6.79861e-10
2.08835e-10
-6.91367e-10
7.84285e-11
-6.87617e-10
-6.49074e-11
-6.68298e-10
-2.0693e-10
-6.39258e-10
-3.34035e-10
-6.01862e-10
-4.51148e-10
-5.56775e-10
-5.60065e-10
-6.6269e-10
-5.03339e-10
-6.89999e-11
9.71011e-10
-1.36745e-10
9.6365e-10
-2.04039e-10
9.47165e-10
-2.70308e-10
9.21954e-10
-3.34963e-10
8.87446e-10
-3.97344e-10
8.43117e-10
-4.5677e-10
7.8861e-10
-5.12511e-10
7.23601e-10
-5.63807e-10
6.47876e-10
-6.0993e-10
5.61411e-10
-6.50325e-10
4.64387e-10
-6.848e-10
3.56903e-10
-7.12965e-10
2.37003e-10
-7.27907e-10
9.33729e-11
-7.21601e-10
-7.12126e-11
-6.99443e-10
-2.29087e-10
-6.681e-10
-3.65376e-10
-6.28751e-10
-4.90496e-10
-5.82167e-10
-6.06648e-10
-7.18145e-10
-5.26712e-10
-7.07695e-11
1.04178e-09
-1.40842e-10
1.03372e-09
-2.10512e-10
1.01684e-09
-2.79219e-10
9.90662e-10
-3.46436e-10
9.54664e-10
-4.11481e-10
9.08164e-10
-4.73668e-10
8.50798e-10
-5.3224e-10
7.82175e-10
-5.86386e-10
7.02025e-10
-6.35322e-10
6.10349e-10
-6.78506e-10
5.07573e-10
-7.16242e-10
3.94641e-10
-7.5001e-10
2.70772e-10
-7.70401e-10
1.13766e-10
-7.64232e-10
-7.73805e-11
-7.36261e-10
-2.57057e-10
-7.01908e-10
-3.99729e-10
-6.60251e-10
-5.32153e-10
-6.12284e-10
-6.54614e-10
-7.75638e-10
-5.5479e-10
-7.58561e-11
1.11764e-09
-1.45677e-10
1.10354e-09
-2.17194e-10
1.08835e-09
-2.88189e-10
1.06166e-09
-3.57851e-10
1.02433e-09
-4.25386e-10
9.757e-10
-4.90081e-10
9.15495e-10
-5.5115e-10
8.43244e-10
-6.07721e-10
7.58597e-10
-6.5893e-10
6.61559e-10
-7.04226e-10
5.52871e-10
-7.4466e-10
4.35076e-10
-7.86211e-10
3.12324e-10
-8.08997e-10
1.36553e-10
-8.00815e-10
-8.55622e-11
-7.6641e-10
-2.91462e-10
-7.29597e-10
-4.36542e-10
-6.85536e-10
-5.76214e-10
-6.37559e-10
-7.02592e-10
-8.34829e-10
-5.78367e-10
-1.82414e-10
1.30005e-09
-3.67728e-10
1.28886e-09
-5.52626e-10
1.27325e-09
-7.35201e-10
1.24423e-09
-9.14698e-10
1.20382e-09
-1.08951e-09
1.15051e-09
-1.25811e-09
1.0841e-09
-1.41861e-09
1.00374e-09
-1.56875e-09
9.0874e-10
-1.70596e-09
7.98773e-10
-1.82736e-09
6.74265e-10
-1.93148e-09
5.39197e-10
-2.03721e-09
4.18059e-10
-2.12413e-09
2.23475e-10
-2.12201e-09
-8.76869e-11
-2.06873e-09
-3.44744e-10
-2.01417e-09
-4.91099e-10
-1.93007e-09
-6.60313e-10
-1.8282e-09
-8.04463e-10
-1.69801e-09
-9.65025e-10
-3.22229e-10
-1.89784e-11
-3.02172e-10
-2.00488e-11
-2.81131e-10
-2.10337e-11
-2.59207e-10
-2.19179e-11
-2.36501e-10
-2.27004e-11
-2.1312e-10
-2.33762e-11
-1.89175e-10
-2.39413e-11
-1.64779e-10
-2.4392e-11
-1.40049e-10
-2.47268e-11
-1.15104e-10
-2.49416e-11
-9.00644e-11
-2.50364e-11
-6.50477e-11
-2.50138e-11
-4.01757e-11
-2.48691e-11
-1.55649e-11
-2.46076e-11
8.67052e-12
-2.42315e-11
3.24185e-11
-2.37431e-11
5.55657e-11
-2.31414e-11
7.80087e-11
-2.24367e-11
9.96729e-11
-2.16576e-11
-2.07249e-11
1.20405e-10
-3.2902e-10
-3.81854e-11
-3.08703e-10
-4.03529e-11
-2.8739e-10
-4.23353e-11
-2.65176e-10
-4.41222e-11
-2.42165e-10
-4.57026e-11
-2.18466e-10
-4.70676e-11
-1.94191e-10
-4.82092e-11
-1.69456e-10
-4.91207e-11
-1.44381e-10
-4.97961e-11
-1.19084e-10
-5.02331e-11
-9.36874e-11
-5.04282e-11
-6.83145e-11
-5.03814e-11
-4.30842e-11
-5.00936e-11
-1.81171e-11
-4.95676e-11
6.46673e-12
-4.88067e-11
3.05514e-11
-4.78178e-11
5.40354e-11
-4.66144e-11
7.68113e-11
-4.52013e-11
9.87266e-11
-4.35616e-11
-4.18023e-11
1.19814e-10
-3.31212e-10
-5.75694e-11
-3.10711e-10
-6.08428e-11
-2.89201e-10
-6.38361e-11
-2.6678e-10
-6.65345e-11
-2.43553e-10
-6.89217e-11
-2.1963e-10
-7.09839e-11
-1.95124e-10
-7.27088e-11
-1.70154e-10
-7.40861e-11
-1.44838e-10
-7.51076e-11
-1.19299e-10
-7.57679e-11
-9.366e-11
-7.60632e-11
-6.80448e-11
-7.59926e-11
-4.25756e-11
-7.5558e-11
-1.73739e-11
-7.47635e-11
7.4419e-12
-7.36156e-11
3.17535e-11
-7.21215e-11
5.54499e-11
-7.03025e-11
7.8427e-11
-6.81697e-11
1.00595e-10
-6.57202e-11
-6.30189e-11
1.21819e-10
-3.34485e-10
-7.72164e-11
-3.13705e-10
-8.16126e-11
-2.91899e-10
-8.56329e-11
-2.69167e-10
-8.92582e-11
-2.45615e-10
-9.24662e-11
-2.21355e-10
-9.52378e-11
-1.96502e-10
-9.75563e-11
-1.71176e-10
-9.94077e-11
-1.45498e-10
-1.00781e-10
-1.19594e-10
-1.01668e-10
-9.35897e-11
-1.02064e-10
-6.76103e-11
-1.01968e-10
-4.17814e-11
-1.01382e-10
-1.62268e-11
-1.00313e-10
8.93278e-12
-9.87689e-11
3.35746e-11
-9.67566e-11
5.7586e-11
-9.43066e-11
8.08523e-11
-9.1428e-11
1.03307e-10
-8.81667e-11
-8.45195e-11
1.24814e-10
-3.3888e-10
-9.72134e-11
-3.17725e-10
-1.02758e-10
-2.95524e-10
-1.07826e-10
-2.72374e-10
-1.124e-10
-2.48386e-10
-1.16447e-10
-2.23673e-10
-1.19945e-10
-1.98353e-10
-1.22871e-10
-1.72549e-10
-1.25207e-10
-1.46385e-10
-1.2694e-10
-1.1999e-10
-1.28059e-10
-9.34937e-11
-1.28557e-10
-6.70246e-11
-1.28432e-10
-4.07123e-11
-1.27689e-10
-1.46848e-11
-1.26334e-10
1.09304e-11
-1.24378e-10
3.60177e-11
-1.21837e-10
6.04571e-11
-1.18739e-10
8.41412e-11
-1.15105e-10
1.06952e-10
-1.1097e-10
-1.0635e-10
1.28788e-10
-3.4442e-10
-1.17653e-10
-3.22798e-10
-1.24371e-10
-3.00096e-10
-1.3052e-10
-2.76421e-10
-1.36067e-10
-2.51883e-10
-1.40978e-10
-2.26599e-10
-1.45223e-10
-2.0069e-10
-1.48774e-10
-1.74281e-10
-1.5161e-10
-1.47504e-10
-1.53713e-10
-1.20488e-10
-1.55069e-10
-9.33696e-11
-1.5567e-10
-6.62816e-11
-1.55514e-10
-3.93582e-11
-1.54606e-10
-1.27299e-11
-1.52956e-10
1.34873e-11
-1.50589e-10
3.91148e-11
-1.47459e-10
6.40846e-11
-1.43703e-10
8.82713e-11
-1.39285e-10
1.11552e-10
-1.34245e-10
-1.28639e-10
1.33845e-10
-3.51137e-10
-1.38625e-10
-3.28946e-10
-1.46555e-10
-3.05642e-10
-1.53818e-10
-2.81331e-10
-1.60371e-10
-2.56127e-10
-1.66175e-10
-2.3015e-10
-1.71193e-10
-2.03525e-10
-1.75392e-10
-1.76384e-10
-1.78746e-10
-1.48859e-10
-1.81231e-10
-1.2109e-10
-1.82831e-10
-9.32143e-11
-1.83538e-10
-6.53739e-11
-1.83347e-10
-3.77093e-11
-1.82263e-10
-1.03634e-11
-1.80295e-10
1.65033e-11
-1.77449e-10
4.2874e-11
-1.73823e-10
6.85085e-11
-1.69331e-10
9.33062e-11
-1.64078e-10
1.17174e-10
-1.58108e-10
-1.51455e-10
1.39994e-10
-3.59067e-10
-1.6022e-10
-3.36208e-10
-1.69407e-10
-3.12194e-10
-1.77826e-10
-2.87134e-10
-1.85425e-10
-2.61144e-10
-1.92158e-10
-2.34348e-10
-1.97981e-10
-2.06878e-10
-2.02856e-10
-1.78868e-10
-2.06748e-10
-1.5046e-10
-2.09632e-10
-1.21796e-10
-2.11487e-10
-9.30241e-11
-2.12302e-10
-6.42906e-11
-2.12073e-10
-3.5742e-11
-2.10804e-10
-7.52098e-12
-2.08509e-10
2.02415e-11
-2.05205e-10
4.73529e-11
-2.00929e-10
7.37404e-11
-1.95715e-10
9.92754e-11
-1.89609e-10
1.23807e-10
-1.82636e-10
-1.74923e-10
1.47278e-10
-3.68253e-10
-1.82534e-10
-3.44625e-10
-1.9303e-10
-3.19792e-10
-2.02653e-10
-2.93865e-10
-2.11346e-10
-2.66966e-10
-2.19051e-10
-2.39222e-10
-2.25719e-10
-2.1077e-10
-2.31301e-10
-1.81752e-10
-2.35759e-10
-1.52315e-10
-2.39062e-10
-1.22611e-10
-2.41183e-10
-9.27955e-11
-2.4211e-10
-6.30228e-11
-2.41838e-10
-3.3448e-11
-2.40372e-10
-4.2224e-12
-2.37728e-10
2.44923e-11
-2.33915e-10
5.25721e-11
-2.29005e-10
7.98598e-11
-2.23e-10
1.06242e-10
-2.15989e-10
1.31533e-10
-2.07925e-10
-1.99014e-10
1.55626e-10
-3.78747e-10
-2.05661e-10
-3.54247e-10
-2.17526e-10
-3.28483e-10
-2.28413e-10
-3.01569e-10
-2.38254e-10
-2.73632e-10
-2.46984e-10
-2.44803e-10
-2.54541e-10
-2.15227e-10
-2.60871e-10
-1.85053e-10
-2.65927e-10
-1.54436e-10
-2.69671e-10
-1.23539e-10
-2.72073e-10
-9.25239e-11
-2.73117e-10
-6.15578e-11
-2.72796e-10
-3.08058e-11
-2.71117e-10
-4.3271e-13
-2.68095e-10
2.94146e-11
-2.63757e-10
5.85738e-11
-2.58161e-10
8.68732e-11
-2.51297e-10
1.14139e-10
-2.43253e-10
1.40435e-10
-2.3422e-10
-2.24041e-10
1.65463e-10
-3.90609e-10
-2.29696e-10
-3.65132e-10
-2.43e-10
-3.38322e-10
-2.5522e-10
-3.10297e-10
-2.66275e-10
-2.81187e-10
-2.7609e-10
-2.51132e-10
-2.84592e-10
-2.20282e-10
-2.91716e-10
-1.88796e-10
-2.97408e-10
-1.56839e-10
-3.01622e-10
-1.24583e-10
-3.04322e-10
-9.22038e-11
-3.05488e-10
-5.98792e-11
-3.05114e-10
-2.77862e-11
-3.03203e-10
3.89858e-12
-2.99775e-10
3.5014e-11
-2.94869e-10
6.5349e-11
-2.88493e-10
9.48382e-11
-2.80784e-10
1.23332e-10
-2.71745e-10
1.50593e-10
-2.61479e-10
-2.49991e-10
1.76544e-10
-4.03909e-10
-2.54732e-10
-3.77349e-10
-2.69558e-10
-3.49375e-10
-2.83192e-10
-3.20109e-10
-2.95539e-10
-2.89687e-10
-3.06509e-10
-2.58255e-10
-3.1602e-10
-2.25973e-10
-3.23994e-10
-1.93008e-10
-3.30367e-10
-1.59539e-10
-3.35084e-10
-1.2575e-10
-3.38103e-10
-9.18296e-11
-3.394e-10
-5.79697e-11
-3.38966e-10
-2.43599e-11
-3.36806e-10
8.81441e-12
-3.32943e-10
4.13766e-11
-3.27426e-10
7.3136e-11
-3.2025e-10
1.03928e-10
-3.11574e-10
1.336e-10
-3.01416e-10
1.61977e-10
-2.89855e-10
-2.77035e-10
1.89021e-10
-4.18729e-10
-2.80864e-10
-3.90979e-10
-2.97308e-10
-3.61719e-10
-3.1245e-10
-3.31077e-10
-3.26179e-10
-2.99195e-10
-3.38388e-10
-2.66228e-10
-3.48982e-10
-2.32344e-10
-3.57871e-10
-1.97724e-10
-3.6498e-10
-1.62558e-10
-3.70241e-10
-1.27047e-10
-3.73606e-10
-9.13957e-11
-3.75043e-10
-5.58112e-11
-3.74542e-10
-2.05001e-11
-3.7211e-10
1.43328e-11
-3.6777e-10
4.84736e-11
-3.61563e-10
8.18106e-11
-3.53583e-10
1.14086e-10
-3.43847e-10
1.45149e-10
-3.32478e-10
1.74853e-10
-3.19558e-10
-3.05223e-10
2.03042e-10
-4.35167e-10
-3.0818e-10
-4.06117e-10
-3.26356e-10
-3.75444e-10
-3.43122e-10
-3.43283e-10
-3.58338e-10
-3.09787e-10
-3.7188e-10
-2.75114e-10
-3.83649e-10
-2.39451e-10
-3.93528e-10
-2.02984e-10
-4.01437e-10
-1.65923e-10
-4.07293e-10
-1.28485e-10
-4.11035e-10
-9.08955e-11
-4.12624e-10
-5.33805e-11
-4.1205e-10
-1.61637e-11
-4.0932e-10
2.05338e-11
-4.04462e-10
5.6506e-11
-3.9753e-10
9.15382e-11
-3.88612e-10
1.25449e-10
-3.77756e-10
1.58056e-10
-3.65082e-10
1.892e-10
-3.507e-10
-3.34738e-10
2.18716e-10
-4.53336e-10
-3.3677e-10
-4.22874e-10
-3.56817e-10
-3.90654e-10
-3.7534e-10
-3.56825e-10
-3.92162e-10
-3.21546e-10
-4.07154e-10
-2.84998e-10
-4.2019e-10
-2.47358e-10
-4.31159e-10
-2.08839e-10
-4.39948e-10
-1.69665e-10
-4.46458e-10
-1.30074e-10
-4.50616e-10
-9.03217e-11
-4.52369e-10
-5.06528e-11
-4.51711e-10
-1.13108e-11
-4.48656e-10
2.74558e-11
-4.43223e-10
6.5431e-11
-4.35501e-10
1.02382e-10
-4.25559e-10
1.38113e-10
-4.13484e-10
1.72426e-10
-3.99393e-10
2.05138e-10
-3.83411e-10
-3.65678e-10
2.36079e-10
-4.73372e-10
-3.66736e-10
-4.41401e-10
-3.88786e-10
-4.07475e-10
-4.09263e-10
-3.71814e-10
-4.27818e-10
-3.34581e-10
-4.4438e-10
-2.95964e-10
-4.58799e-10
-2.56146e-10
-4.70968e-10
-2.15352e-10
-4.80733e-10
-1.73825e-10
-4.87976e-10
-1.31828e-10
-4.92606e-10
-8.96665e-11
-4.94523e-10
-4.75988e-11
-4.93773e-10
-5.88899e-12
-4.90359e-10
3.51703e-11
-4.84276e-10
7.53673e-11
-4.75692e-10
1.14445e-10
-4.64633e-10
1.52193e-10
-4.51228e-10
1.88396e-10
-4.35593e-10
2.22877e-10
-4.1789e-10
-3.98158e-10
2.55358e-10
-4.95296e-10
-3.98149e-10
-4.61625e-10
-4.22454e-10
-4.25851e-10
-4.45033e-10
-3.88211e-10
-4.65453e-10
-3.48843e-10
-4.83742e-10
-3.08011e-10
-4.99624e-10
-2.65805e-10
-5.13167e-10
-2.22462e-10
-5.24069e-10
-1.78359e-10
-5.32073e-10
-1.33677e-10
-5.37282e-10
-8.8874e-11
-5.39321e-10
-4.41481e-11
-5.38493e-10
1.40565e-13
-5.34643e-10
4.37511e-11
-5.27882e-10
8.64074e-11
-5.18344e-10
1.2782e-10
-5.06042e-10
1.67783e-10
-4.91188e-10
2.06052e-10
-4.7386e-10
2.42394e-10
-4.54231e-10
-4.3249e-10
2.76726e-10
-5.21605e-10
-4.31333e-10
-4.86096e-10
-4.57961e-10
-4.48048e-10
-4.83077e-10
-4.08069e-10
-5.05428e-10
-3.66152e-10
-5.25655e-10
-3.22746e-10
-5.43025e-10
-2.77708e-10
-5.58199e-10
-2.31319e-10
-5.70453e-10
-1.84182e-10
-5.79204e-10
-1.36166e-10
-5.85294e-10
-8.82634e-11
-5.87219e-10
-4.03464e-11
-5.86407e-10
7.05121e-12
-5.82037e-10
5.3588e-11
-5.74415e-10
9.91546e-11
-5.63908e-10
1.43268e-10
-5.50153e-10
1.85824e-10
-5.33743e-10
2.26478e-10
-5.14513e-10
2.65044e-10
-4.92797e-10
-4.68876e-10
3.01431e-10
-5.43715e-10
-4.65984e-10
-5.06832e-10
-4.94843e-10
-4.66832e-10
-5.23075e-10
-4.25044e-10
-5.47214e-10
-3.80948e-10
-5.69748e-10
-3.36278e-10
-5.87693e-10
-2.8871e-10
-6.05764e-10
-2.40245e-10
-6.18915e-10
-1.90766e-10
-6.28681e-10
-1.3974e-10
-6.36317e-10
-8.97988e-11
-6.37159e-10
-3.90388e-11
-6.37164e-10
1.0505e-11
-6.31578e-10
5.94847e-11
-6.23392e-10
1.07531e-10
-6.11953e-10
1.53796e-10
-5.96416e-10
1.98602e-10
-5.78549e-10
2.41236e-10
-5.57145e-10
2.81694e-10
-5.33256e-10
-5.07117e-10
3.19936e-10
-1.61589e-09
-5.48099e-10
-1.53075e-09
-5.79988e-10
-1.43398e-09
-6.19851e-10
-1.33628e-09
-6.44913e-10
-1.22896e-09
-6.77071e-10
-1.12361e-09
-6.93041e-10
-1.00858e-09
-7.20786e-10
-8.90551e-10
-7.36945e-10
-7.74039e-10
-7.45192e-10
-6.48436e-10
-7.61917e-10
-5.31056e-10
-7.54537e-10
-4.07849e-10
-7.60369e-10
-2.8896e-10
-7.50465e-10
-1.72142e-10
-7.40208e-10
-5.61438e-11
-7.27949e-10
5.38747e-11
-7.06432e-10
1.61673e-10
-6.86344e-10
2.63373e-10
-6.58842e-10
3.60356e-10
-6.30235e-10
4.51225e-10
-5.97984e-10
1.58924e-10
-3.85148e-11
1.9305e-10
-3.41208e-11
2.22148e-10
-2.90928e-11
2.45876e-10
-2.37251e-11
2.64038e-10
-1.81584e-11
2.76661e-10
-1.26195e-11
2.83628e-10
-6.96418e-12
2.85155e-10
-1.52463e-12
2.81369e-10
3.7871e-12
2.72566e-10
8.8036e-12
2.59073e-10
1.34932e-11
2.41304e-10
1.77696e-11
2.1967e-10
2.16334e-11
1.94609e-10
2.50603e-11
1.66653e-10
2.7954e-11
1.36244e-10
3.0407e-11
1.03877e-10
3.23633e-11
7.00482e-11
3.38251e-11
3.52514e-11
3.47927e-11
3.52478e-11
1.589e-10
-7.75929e-11
1.93583e-10
-6.87959e-11
2.23068e-10
-5.85715e-11
2.472e-10
-4.78519e-11
2.65634e-10
-3.65866e-11
2.78489e-10
-2.54691e-11
2.85656e-10
-1.41277e-11
2.87236e-10
-3.10317e-12
2.8348e-10
7.54507e-12
2.74652e-10
1.76323e-11
2.61084e-10
2.70615e-11
2.43193e-10
3.56599e-11
2.21399e-10
4.34261e-11
1.96138e-10
5.03174e-11
1.67972e-10
5.61165e-11
1.37323e-10
6.10501e-11
1.047e-10
6.49796e-11
7.0603e-11
6.79152e-11
3.55234e-11
6.9866e-11
7.07688e-11
1.6127e-10
-1.17037e-10
1.96038e-10
-1.03558e-10
2.2568e-10
-8.82085e-11
2.49851e-10
-7.2018e-11
2.68502e-10
-5.52327e-11
2.81331e-10
-3.82936e-11
2.88321e-10
-2.11147e-11
2.89898e-10
-4.6777e-12
2.85997e-10
1.1448e-11
2.76997e-10
2.66337e-11
2.63197e-10
4.0862e-11
2.45072e-10
5.37842e-11
2.23076e-10
6.54201e-11
1.97644e-10
7.57471e-11
1.69201e-10
8.45557e-11
1.38302e-10
9.19446e-11
1.05439e-10
9.7837e-11
7.10897e-11
1.0226e-10
3.57724e-11
1.05179e-10
1.0654e-10
1.64787e-10
-1.57005e-10
1.99865e-10
-1.38631e-10
2.29727e-10
-1.18065e-10
2.54178e-10
-9.64645e-11
2.72829e-10
-7.38795e-11
2.85593e-10
-5.10534e-11
2.92606e-10
-2.81246e-11
2.93907e-10
-5.97678e-12
2.89782e-10
1.55751e-11
2.80521e-10
3.58968e-11
2.66491e-10
5.48932e-11
2.4806e-10
7.22145e-11
2.25684e-10
8.7794e-11
1.99818e-10
1.01611e-10
1.71028e-10
1.13342e-10
1.39774e-10
1.23195e-10
1.06522e-10
1.31084e-10
7.18333e-11
1.36945e-10
3.61312e-11
1.40877e-10
1.42669e-10
1.69372e-10
-1.97585e-10
2.04928e-10
-1.74182e-10
2.35195e-10
-1.48327e-10
2.5975e-10
-1.21015e-10
2.7846e-10
-9.25853e-11
2.91126e-10
-6.3716e-11
2.98164e-10
-3.5159e-11
2.99123e-10
-6.93286e-12
2.94759e-10
1.99411e-11
2.85239e-10
4.54185e-11
2.70806e-10
6.93262e-11
2.51926e-10
9.10941e-11
2.29064e-10
1.10656e-10
2.02793e-10
1.2788e-10
1.7348e-10
1.42653e-10
1.41716e-10
1.54956e-10
1.08017e-10
1.64781e-10
7.28097e-11
1.72149e-10
3.66308e-11
1.77054e-10
1.79299e-10
1.75051e-10
-2.38786e-10
2.1139e-10
-2.10517e-10
2.41999e-10
-1.78932e-10
2.66926e-10
-1.45939e-10
2.85744e-10
-1.11399e-10
2.98456e-10
-7.64249e-11
3.05019e-10
-4.17191e-11
3.05995e-10
-7.90619e-12
3.01246e-10
2.46925e-11
2.91126e-10
5.55406e-11
2.76183e-10
8.42691e-11
2.56777e-10
1.105e-10
2.33372e-10
1.3406e-10
2.06486e-10
1.54765e-10
1.76587e-10
1.7255e-10
1.44209e-10
1.87332e-10
1.09861e-10
1.99128e-10
7.40268e-11
2.07981e-10
3.72442e-11
2.13834e-10
2.16541e-10
1.82262e-10
-2.81051e-10
2.19009e-10
-2.4726e-10
2.50278e-10
-2.10198e-10
2.75509e-10
-1.71166e-10
2.94309e-10
-1.30197e-10
3.07081e-10
-8.91939e-11
3.13643e-10
-4.82786e-11
3.14136e-10
-8.39642e-12
3.08928e-10
2.99026e-11
2.98345e-10
6.61246e-11
2.82752e-10
9.98617e-11
2.6267e-10
1.30582e-10
2.38555e-10
1.58175e-10
2.10932e-10
1.82388e-10
1.8029e-10
2.03191e-10
1.47165e-10
2.20456e-10
1.12063e-10
2.34229e-10
7.55085e-11
2.44533e-10
3.79664e-11
2.51373e-10
2.54506e-10
1.90624e-10
-3.24395e-10
2.28353e-10
-2.84987e-10
2.60199e-10
-2.4204e-10
2.8557e-10
-1.96535e-10
3.04755e-10
-1.49379e-10
3.1733e-10
-1.01766e-10
3.23476e-10
-5.44221e-11
3.23651e-10
-8.56915e-12
3.1797e-10
3.5585e-11
3.06718e-10
7.73771e-11
2.90504e-10
1.16076e-10
2.69628e-10
1.51458e-10
2.44621e-10
1.83181e-10
2.16132e-10
2.10875e-10
1.84609e-10
2.34713e-10
1.50611e-10
2.54453e-10
1.14631e-10
2.70207e-10
7.7222e-11
2.81941e-10
3.88223e-11
2.8977e-10
2.93328e-10
2.0013e-10
-3.68896e-10
2.39037e-10
-3.23892e-10
2.71603e-10
-2.74604e-10
2.97449e-10
-2.22378e-10
3.16611e-10
-1.68539e-10
3.28952e-10
-1.14105e-10
3.35072e-10
-6.05402e-11
3.3471e-10
-8.20455e-12
3.28368e-10
4.19274e-11
3.16456e-10
8.92889e-11
2.9936e-10
1.33173e-10
2.77551e-10
1.73266e-10
2.51615e-10
2.09116e-10
2.22081e-10
2.40407e-10
1.89551e-10
2.67242e-10
1.54548e-10
2.89455e-10
1.17577e-10
3.07176e-10
7.91711e-11
3.20344e-10
3.98074e-11
3.29131e-10
3.33134e-10
2.11355e-10
-4.14786e-10
2.51272e-10
-3.63807e-10
2.84641e-10
-3.07971e-10
3.10978e-10
-2.48713e-10
3.30179e-10
-1.87739e-10
3.42537e-10
-1.26461e-10
3.47949e-10
-6.59504e-11
3.47198e-10
-7.45241e-12
3.40167e-10
4.8958e-11
3.27441e-10
1.02015e-10
3.09318e-10
1.51295e-10
2.86454e-10
1.96129e-10
2.59445e-10
2.36123e-10
2.28764e-10
2.71085e-10
1.9508e-10
3.00924e-10
1.58968e-10
3.25566e-10
1.20889e-10
3.45254e-10
8.13658e-11
3.59864e-10
4.08921e-11
3.69603e-10
3.74025e-10
2.24232e-10
-4.62472e-10
2.65242e-10
-4.04814e-10
2.9942e-10
-3.42147e-10
3.26217e-10
-2.75509e-10
3.45538e-10
-2.07059e-10
3.5762e-10
-1.38543e-10
3.62748e-10
-7.1078e-11
3.61128e-10
-5.8321e-12
3.53431e-10
5.66545e-11
3.39765e-10
1.15681e-10
3.20588e-10
1.70471e-10
2.96523e-10
2.20193e-10
2.68134e-10
2.64509e-10
2.36217e-10
3.03e-10
2.0127e-10
3.35869e-10
1.63856e-10
3.62977e-10
1.24552e-10
3.84556e-10
8.38007e-11
4.00613e-10
4.21124e-11
4.11289e-10
4.16136e-10
2.38451e-10
-5.11901e-10
2.81033e-10
-4.47396e-10
3.16028e-10
-3.77142e-10
3.43296e-10
-3.02777e-10
3.62659e-10
-2.26421e-10
3.74346e-10
-1.5023e-10
3.78989e-10
-7.57205e-11
3.76836e-10
-3.68024e-12
3.68209e-10
6.52813e-11
3.53456e-10
1.30433e-10
3.3304e-10
1.90886e-10
3.07525e-10
2.45705e-10
2.7783e-10
2.94203e-10
2.44458e-10
3.36371e-10
2.08082e-10
3.72243e-10
1.69254e-10
4.01803e-10
1.28572e-10
4.25236e-10
8.64734e-11
4.42711e-10
4.34434e-11
4.54317e-10
4.59579e-10
2.54463e-10
-5.63321e-10
2.98548e-10
-4.9148e-10
3.34582e-10
-4.13176e-10
3.62323e-10
-3.30518e-10
3.81635e-10
-2.45734e-10
3.93047e-10
-1.61643e-10
3.96972e-10
-7.96458e-11
3.94051e-10
-7.60581e-13
3.84504e-10
7.48276e-11
3.68509e-10
1.46428e-10
3.46665e-10
2.12728e-10
3.19732e-10
2.72637e-10
2.88359e-10
3.25574e-10
2.53403e-10
3.71326e-10
2.15466e-10
4.10179e-10
1.75148e-10
4.4212e-10
1.3295e-10
4.67433e-10
8.93799e-11
4.8628e-10
4.49061e-11
4.9879e-10
5.04486e-10
2.7235e-10
-6.16954e-10
3.18189e-10
-5.37319e-10
3.55243e-10
-4.50231e-10
3.83418e-10
-3.58694e-10
4.02631e-10
-2.64948e-10
4.13308e-10
-1.72322e-10
4.16634e-10
-8.29734e-11
4.12958e-10
2.91376e-12
4.02392e-10
8.53929e-11
3.85164e-10
1.63655e-10
3.61731e-10
2.36159e-10
3.32894e-10
3.01473e-10
2.99813e-10
3.58655e-10
2.63071e-10
4.08067e-10
2.23469e-10
4.49781e-10
1.81478e-10
4.8411e-10
1.37666e-10
5.11245e-10
9.25107e-11
5.31435e-10
4.64661e-11
5.44835e-10
5.50952e-10
2.92255e-10
-6.7313e-10
3.39707e-10
-5.8477e-10
3.78123e-10
-4.88648e-10
4.06654e-10
-3.87226e-10
4.25794e-10
-2.84089e-10
4.35634e-10
-1.82164e-10
4.38191e-10
-8.55315e-11
4.33457e-10
7.64643e-12
4.21953e-10
9.68959e-11
4.03281e-10
1.82326e-10
3.78013e-10
2.61426e-10
3.4729e-10
3.32195e-10
3.12203e-10
3.93741e-10
2.73535e-10
4.46735e-10
2.32063e-10
4.91252e-10
1.88249e-10
5.27924e-10
1.42705e-10
5.56788e-10
9.58644e-11
5.78275e-10
4.81635e-11
5.92535e-10
5.99116e-10
3.14279e-10
-7.32051e-10
3.6383e-10
-6.34322e-10
4.03389e-10
-5.28209e-10
4.32605e-10
-4.16443e-10
4.51143e-10
-3.02629e-10
4.59832e-10
-1.90854e-10
4.60837e-10
-8.65378e-11
4.55944e-10
1.25384e-11
4.43258e-10
1.09582e-10
4.23072e-10
2.02511e-10
3.95845e-10
2.88653e-10
3.62733e-10
3.65307e-10
3.25342e-10
4.31132e-10
2.84682e-10
4.87394e-10
2.41198e-10
5.34736e-10
1.95506e-10
5.73615e-10
1.48098e-10
6.04195e-10
9.94415e-11
6.2693e-10
4.99901e-11
6.41986e-10
6.49105e-10
3.38743e-10
-7.94068e-10
3.90389e-10
-6.85968e-10
4.31272e-10
-5.69093e-10
4.6104e-10
-4.46213e-10
4.7909e-10
-3.20679e-10
4.86219e-10
-1.97985e-10
4.86022e-10
-8.63407e-11
4.80031e-10
1.85284e-11
4.66197e-10
1.23416e-10
4.44781e-10
2.23926e-10
4.14856e-10
3.18577e-10
3.79092e-10
4.0107e-10
3.39389e-10
4.70835e-10
2.9651e-10
5.30272e-10
2.50944e-10
5.80302e-10
2.03188e-10
6.21371e-10
1.53793e-10
6.5359e-10
1.0321e-10
6.77513e-10
5.19092e-11
6.93287e-10
7.01014e-10
3.66651e-10
-8.59288e-10
4.20695e-10
-7.40012e-10
4.63061e-10
-6.11459e-10
4.93326e-10
-4.76479e-10
5.1036e-10
-3.37714e-10
5.14593e-10
-2.0222e-10
5.15404e-10
-8.71524e-11
5.06798e-10
2.71343e-11
4.92591e-10
1.37622e-10
4.68534e-10
2.47983e-10
4.35857e-10
3.51254e-10
3.97105e-10
4.39822e-10
3.54785e-10
5.13155e-10
3.09439e-10
5.75618e-10
2.61429e-10
6.28312e-10
2.11442e-10
6.71358e-10
1.59905e-10
7.05126e-10
1.07218e-10
7.30201e-10
5.39654e-11
7.4654e-10
7.5498e-10
3.8854e-10
-9.27893e-10
4.44801e-10
-7.96273e-10
4.89079e-10
-6.55738e-10
5.20908e-10
-5.0831e-10
5.3796e-10
-3.54767e-10
5.37935e-10
-2.02196e-10
5.30672e-10
-7.98908e-11
5.30425e-10
2.73814e-11
5.15807e-10
1.52241e-10
4.90444e-10
2.73346e-10
4.54861e-10
3.86838e-10
4.13008e-10
4.81675e-10
3.68287e-10
5.57878e-10
3.20847e-10
6.23057e-10
2.70754e-10
6.78405e-10
2.1886e-10
7.23251e-10
1.65505e-10
7.58481e-10
1.11008e-10
7.84697e-10
5.68943e-11
8.00653e-10