/*--------------------------------*- C++ -*----------------------------------*\
| =========                 |                                                 |
| \\      /  F ield         | OpenFOAM: The Open Source CFD Toolbox           |
|  \\    /   O peration     | Version:  2.4.0                                 |
|   \\  /    A nd           | Web:      www.OpenFOAM.org                      |
|    \\/     M anipulation  |                                                 |
\*---------------------------------------------------------------------------*/
FoamFile
{
    version     2.0;
    format      ascii;
    class       volScalarField;
    location    "0.286";
    object      p_rgh;
}
// * * * * * * * * * * * * * * * * * * * * * * * * * * * * * * * * * * * * * //

dimensions      [1 -1 -2 0 0 0 0];

internalField   nonuniform List<scalar> 
10000
(
0.00732591
0.00732536
0.00732408
0.00732085
0.00731572
0.00730932
0.00730263
0.0072968
0.00729294
0.00729203
0.00729478
0.00730154
0.0073123
0.00732668
0.00734404
0.00736366
0.00738477
0.00740677
0.00742926
0.00745207
0.00747522
0.00749889
0.00752334
0.00754884
0.0075757
0.00760426
0.00763492
0.00766821
0.00770477
0.0077453
0.00779046
0.00784073
0.00789625
0.00795669
0.00802126
0.00808874
0.00815766
0.0082266
0.00829441
0.0083605
0.00842489
0.00848819
0.00855139
0.00861557
0.00868158
0.00874981
0.0088201
0.00889178
0.00896388
0.00903543
0.00732532
0.00732472
0.0073229
0.00731894
0.00731319
0.00730637
0.00729949
0.00729372
0.00729016
0.00728979
0.00729323
0.00730077
0.00731226
0.00732726
0.00734506
0.00736487
0.00738595
0.00740772
0.00742981
0.00745213
0.00747474
0.00749788
0.00752182
0.00754688
0.00757335
0.00760158
0.00763198
0.00766507
0.0077015
0.00774196
0.00778711
0.00783739
0.00789291
0.00795331
0.00801777
0.00808506
0.00815375
0.00822246
0.00829014
0.00835626
0.00842092
0.00848476
0.00854875
0.00861391
0.00868099
0.00875026
0.00882145
0.00889384
0.00896648
0.00903844
0.0073236
0.00732332
0.00732143
0.0073172
0.00731125
0.00730449
0.00729794
0.00729276
0.00729004
0.00729064
0.00729509
0.00730351
0.00731566
0.007331
0.00734878
0.00736822
0.00738866
0.00740959
0.00743076
0.00745215
0.00747393
0.00749637
0.00751976
0.00754444
0.00757071
0.00759888
0.00762934
0.00766259
0.00769919
0.00773977
0.00778491
0.00783496
0.00788997
0.0079496
0.0080131
0.00807935
0.0081471
0.00821516
0.00828264
0.00834912
0.00841471
0.00847996
0.00854568
0.00861264
0.00868136
0.00875197
0.00882412
0.00889716
0.00897026
0.00904267
0.0073219
0.00732217
0.00732071
0.0073168
0.00731129
0.0073052
0.00729962
0.00729564
0.00729425
0.00729616
0.00730173
0.00731094
0.00732343
0.0073386
0.00735574
0.00737416
0.00739332
0.00741286
0.00743268
0.00745287
0.00747366
0.00749537
0.00751834
0.00754287
0.00756925
0.00759777
0.00762873
0.00766252
0.00769957
0.00774033
0.00778523
0.00783452
0.00788822
0.00794608
0.00800755
0.00807183
0.00813797
0.00820508
0.00827247
0.00833981
0.00840709
0.00847462
0.00854285
0.00861217
0.00868284
0.0087548
0.00882778
0.00890126
0.00897472
0.00904767
0.00732092
0.0073218
0.00732102
0.00731789
0.00731336
0.0073085
0.00730439
0.00730205
0.00730229
0.00730564
0.00731226
0.007322
0.0073344
0.0073489
0.00736487
0.00738178
0.00739926
0.00741715
0.00743547
0.00745443
0.00747432
0.00749551
0.00751832
0.00754305
0.00756995
0.00759922
0.00763103
0.00766559
0.00770312
0.00774388
0.00778811
0.00783598
0.00788751
0.00794267
0.0080013
0.00806296
0.00812713
0.00819324
0.00826078
0.0083294
0.00839889
0.00846918
0.00854026
0.00861213
0.00868473
0.00875792
0.00883154
0.00890539
0.00897926
0.00905294
0.00732118
0.00732265
0.00732272
0.00732068
0.00731752
0.00731431
0.00731204
0.00731156
0.0073135
0.00731818
0.00732558
0.00733545
0.00734732
0.0073607
0.00737513
0.00739027
0.00740595
0.00742219
0.00743914
0.00745711
0.00747644
0.00749749
0.00752058
0.00754597
0.00757381
0.00760416
0.00763701
0.00767234
0.00771015
0.00775049
0.00779347
0.00783923
0.00788787
0.00793966
0.00799496
0.00805376
0.00811589
0.00818108
0.00824894
0.00831901
0.00839081
0.00846386
0.00853769
0.00861191
0.00868623
0.00876051
0.00883474
0.00890902
0.00898347
0.00905816
0.00732286
0.00732499
0.00732604
0.00732534
0.00732387
0.00732258
0.00732231
0.00732373
0.00732723
0.00733294
0.00734071
0.00735024
0.00736114
0.00737307
0.00738575
0.00739906
0.00741305
0.00742787
0.00744382
0.00746124
0.00748052
0.00750199
0.00752592
0.00755246
0.00758161
0.00761325
0.00764714
0.00768302
0.00772068
0.00776005
0.00780121
0.00784432
0.00788958
0.00793759
0.00798946
0.00804546
0.00810569
0.00817006
0.00823822
0.00830958
0.00838337
0.00845874
0.00853484
0.00861099
0.00868675
0.00876201
0.00883695
0.00891192
0.0089873
0.00906333
0.00732608
0.00732892
0.00733109
0.00733193
0.00733234
0.0073331
0.00733485
0.00733801
0.00734277
0.0073491
0.00735678
0.00736555
0.00737514
0.0073854
0.00739629
0.00740789
0.00742043
0.00743422
0.00744964
0.00746708
0.00748692
0.00750943
0.00753477
0.00756291
0.00759365
0.00762664
0.00766138
0.0076974
0.00773434
0.00777216
0.00781108
0.00785136
0.00789303
0.00793704
0.00798574
0.00803927
0.00809782
0.0081614
0.00822963
0.00830181
0.00837695
0.00845393
0.00853164
0.00860922
0.00868616
0.00876241
0.00883827
0.00891431
0.00899105
0.00906879
0.00733081
0.00733441
0.00733782
0.00734034
0.0073427
0.00734552
0.00734916
0.00735381
0.00735947
0.007366
0.00737319
0.00738087
0.00738896
0.00739749
0.00740665
0.00741675
0.00742816
0.00744134
0.00745672
0.00747476
0.00749575
0.00751987
0.00754709
0.00757714
0.00760958
0.00764379
0.00767903
0.00771465
0.00775026
0.00778604
0.00782256
0.00786028
0.00789842
0.00793818
0.00798434
0.00803601
0.00809321
0.00815596
0.00822392
0.0082963
0.00837202
0.00844981
0.00852844
0.00860696
0.00868486
0.00876214
0.00883921
0.00891671
0.00899522
0.00907501
0.00733695
0.00734136
0.00734606
0.00735029
0.00735462
0.0073594
0.00736473
0.00737059
0.00737682
0.00738323
0.00738968
0.0073961
0.00740261
0.00740946
0.00741704
0.00742585
0.00743642
0.00744932
0.00746508
0.00748415
0.00750676
0.00753288
0.00756223
0.00759429
0.00762832
0.00766343
0.00769874
0.00773345
0.00776726
0.00780076
0.00783524
0.00787141
0.00790608
0.00794049
0.00798506
0.00803581
0.00809214
0.00815419
0.00822162
0.00829369
0.00836929
0.00844716
0.00852606
0.00860505
0.00868367
0.00876197
0.00884044
0.00891971
0.00900029
0.00908236
0.00734432
0.00734953
0.00735552
0.00736145
0.00736767
0.00737425
0.00738107
0.00738791
0.00739451
0.00740066
0.00740628
0.00741145
0.00741645
0.00742173
0.00742785
0.00743551
0.00744541
0.00745822
0.00747455
0.00749487
0.00751928
0.0075475
0.00757893
0.00761277
0.00764808
0.00768385
0.00771907
0.00775278
0.00778458
0.00781617
0.00785015
0.00788753
0.00791876
0.00794368
0.00798768
0.00803857
0.00809452
0.00815616
0.00822317
0.00829469
0.00836969
0.008447
0.00852554
0.00860448
0.00868348
0.00876271
0.00884265
0.00892385
0.0090067
0.00909115
0.00735266
0.00735863
0.00736587
0.00737342
0.0073814
0.00738965
0.00739783
0.00740555
0.00741248
0.00741841
0.0074233
0.00742735
0.00743098
0.00743478
0.00743953
0.00744608
0.00745531
0.00746797
0.00748477
0.00750619
0.00753221
0.00756223
0.00759534
0.00763059
0.00766702
0.00770361
0.00773924
0.00777249
0.00780251
0.00783289
0.0078709
0.00791971
0.00795074
0.00794683
0.00799099
0.00804424
0.0081005
0.00816213
0.0082289
0.00829986
0.00837395
0.00845017
0.0085277
0.00860604
0.00868508
0.00876509
0.00884652
0.00892978
0.00901495
0.00910179
0.00736167
0.00736835
0.00737675
0.0073858
0.00739544
0.00740527
0.00741478
0.00742345
0.00743085
0.00743675
0.00744114
0.00744427
0.00744667
0.00744908
0.00745244
0.00745779
0.00746615
0.00747831
0.007495
0.00751693
0.00754403
0.00757531
0.00760962
0.00764606
0.00768387
0.00772192
0.00775869
0.00779215
0.00782139
0.00785402
0.00790752
0.00801915
0.00809375
0.00794746
0.00799668
0.00805624
0.00811237
0.00817376
0.00823988
0.00830965
0.00838224
0.00845684
0.00853285
0.00861017
0.00868905
0.00876985
0.00885289
0.00893826
0.00902573
0.00911476
0.00737107
0.00737837
0.00738781
0.00739827
0.00740949
0.00742091
0.00743185
0.00744164
0.00744978
0.00745595
0.00746012
0.00746256
0.00746386
0.00746489
0.00746676
0.00747068
0.00747775
0.00748862
0.00750411
0.00752577
0.00755337
0.00758528
0.00762028
0.00765795
0.0076977
0.00773799
0.00777673
0.00781308
0.00784821
0.00789073
0.00805167
0.00841193
0.00867997
0.00816017
0.00805342
0.00809415
0.00813992
0.00819548
0.00825834
0.00832498
0.00839453
0.00846656
0.00854075
0.00861709
0.00869597
0.0087778
0.00886261
0.00895008
0.00903957
0.00913038
0.00738063
0.00738843
0.0073988
0.00741058
0.00742337
0.00743647
0.00744902
0.00746022
0.0074694
0.00747616
0.00748038
0.00748231
0.00748258
0.00748216
0.00748229
0.00748436
0.00748959
0.00749825
0.00751127
0.00753167
0.00755951
0.0075914
0.00762612
0.00766504
0.00770788
0.007752
0.00779403
0.00784199
0.00791232
0.00807588
0.00846278
0.0129587
0.0144196
0.00837886
0.00820296
0.00816486
0.0081824
0.00822578
0.00828331
0.00834532
0.00841042
0.00847886
0.00855097
0.00862681
0.00870632
0.00878957
0.00887622
0.00896551
0.00905652
0.00914857
0.0073902
0.00739837
0.00740956
0.00742261
0.00743703
0.00745194
0.00746632
0.00747918
0.00748968
0.00749727
0.00750173
0.00750326
0.00750248
0.00750041
0.00749844
0.0074982
0.00750105
0.00750661
0.00751619
0.00753441
0.00756149
0.00759347
0.00762858
0.00766629
0.00771076
0.0077581
0.00780917
0.00787847
0.00801234
0.00823318
0.0122375
0.0155286
0.0154452
0.0120083
0.00838493
0.00824701
0.00821638
0.00825678
0.00830969
0.00836753
0.00842833
0.00849321
0.00856338
0.0086392
0.00872008
0.0088051
0.00889343
0.00898403
0.00907596
0.00916885
0.00739977
0.00740819
0.0074201
0.0074344
0.00745049
0.00746732
0.00748368
0.00749836
0.00751033
0.00751887
0.00752365
0.00752479
0.00752286
0.00751897
0.0075147
0.00751186
0.00751229
0.00751331
0.00751766
0.00753408
0.00755921
0.00758855
0.00762665
0.00766923
0.00770759
0.00776242
0.00780373
0.0078615
0.00794288
0.00810538
0.00854665
0.0133555
0.014884
0.00851738
0.00828474
0.0082359
0.00822757
0.00827538
0.00833049
0.00838793
0.00844649
0.00850896
0.00857788
0.00865405
0.00873648
0.00882336
0.00891303
0.00900439
0.00909685
0.00919059
0.0074095
0.00741805
0.00743058
0.0074461
0.00746386
0.00748262
0.00750094
0.00751741
0.0075308
0.00754025
0.0075453
0.00754598
0.00754295
0.00753757
0.00753128
0.00752614
0.00752254
0.00752082
0.00751845
0.00753661
0.0075571
0.00757617
0.00763035
0.00765544
0.00771403
0.00787023
0.00779766
0.00786227
0.00791014
0.0079515
0.0081191
0.00854022
0.00877653
0.00832624
0.00815644
0.00819658
0.00824418
0.00829644
0.00834999
0.00840712
0.00846502
0.00852592
0.00859418
0.00867082
0.00875433
0.00884259
0.00893337
0.00902529
0.00911828
0.00921328
0.00741975
0.00742831
0.00744137
0.00745799
0.00747728
0.00749777
0.00751781
0.00753579
0.00755033
0.00756045
0.00756558
0.00756586
0.00756232
0.00755636
0.00754896
0.00754132
0.0075306
0.00752071
0.00751159
0.00753037
0.00755472
0.007566
0.00767308
0.00763775
0.00770438
0.00777696
0.00830275
0.0078786
0.00792781
0.00797515
0.0080312
0.00817767
0.00829696
0.00813002
0.00814985
0.00826472
0.00828409
0.00832169
0.00836613
0.00842572
0.00848363
0.00854307
0.00861138
0.00868853
0.00877249
0.00886136
0.00895304
0.00904593
0.00913972
0.00923643
0.00743102
0.0074395
0.00745295
0.00747045
0.00749091
0.00751267
0.00753389
0.00755282
0.00756802
0.00757842
0.00758353
0.00758395
0.00758106
0.00757601
0.00756895
0.00755961
0.00754213
0.00751527
0.00751228
0.00750057
0.0075732
0.00755888
0.00777455
0.00764948
0.00770092
0.00777379
0.00784422
0.00788171
0.00792229
0.00798974
0.008046
0.00809971
0.00814249
0.00817255
0.00822423
0.00829189
0.00829023
0.00832864
0.00837388
0.00845039
0.00850874
0.00856254
0.00862793
0.00870557
0.00879017
0.00887927
0.00897145
0.00906584
0.00916102
0.00925938
0.00744392
0.00745225
0.00746588
0.00748385
0.00750489
0.00752716
0.00754872
0.0075678
0.00758297
0.00759324
0.00759855
0.00760011
0.00759956
0.00759792
0.00759484
0.00758819
0.00757359
0.00755632
0.0075715
0.00740761
0.0074453
0.00745861
0.00759359
0.0076724
0.00771919
0.00776692
0.00782483
0.00787289
0.00791539
0.00799979
0.00803504
0.00809537
0.00815307
0.00818805
0.00822021
0.00823769
0.00826994
0.00831156
0.0084243
0.00853893
0.00856787
0.00858644
0.0086391
0.00871996
0.00880738
0.0088969
0.00898903
0.00908453
0.00918204
0.00928151
0.00745902
0.00746712
0.00748065
0.00749851
0.00751929
0.00754105
0.00756188
0.00758011
0.00759447
0.00760425
0.00761008
0.00761373
0.00761712
0.00762146
0.00762682
0.00763258
0.00764796
0.00768024
0.00760322
0.00793368
0.00822099
0.00791785
0.00774151
0.0077644
0.00777242
0.00778932
0.00781842
0.00786404
0.00789954
0.00794381
0.00805398
0.00806308
0.00810991
0.0081529
0.00820642
0.00824979
0.00828422
0.00835065
0.00844327
0.00878079
0.00867178
0.00864316
0.00864861
0.00873772
0.00882804
0.00891581
0.00900673
0.00910185
0.00920218
0.00930303
0.0074767
0.00748452
0.00749757
0.0075146
0.00753407
0.00755413
0.007573
0.00758929
0.00760198
0.0076109
0.00761727
0.00762324
0.00763088
0.00764173
0.00765771
0.00768381
0.00772545
0.00782235
0.0079609
0.00824667
0.00929984
0.00904308
0.00822052
0.00798967
0.0078457
0.00782513
0.00783314
0.00786452
0.00789509
0.00793306
0.0079811
0.00808322
0.00812491
0.0081731
0.00821665
0.00826798
0.00830378
0.00835464
0.0103827
0.0130241
0.0112857
0.00877634
0.00877921
0.0087961
0.00886287
0.00893981
0.00902647
0.00911926
0.00922051
0.00932503
0.00749702
0.00750447
0.00751663
0.00753199
0.00754905
0.00756616
0.00758186
0.00759513
0.00760538
0.00761292
0.00761942
0.00762701
0.00763735
0.00765129
0.00767107
0.00770523
0.00774675
0.0078755
0.0078231
0.00896365
0.00911275
0.00943362
0.00827943
0.00807832
0.00790181
0.00784443
0.00784283
0.00787007
0.00789078
0.00789553
0.00920817
0.00814641
0.00814538
0.0081752
0.0082182
0.00827204
0.00837854
0.00865865
0.0129559
0.013106
0.0132555
0.00980002
0.00889099
0.00883683
0.00889134
0.00896096
0.0090458
0.00913693
0.00923704
0.00934718
0.00751952
0.00752653
0.00753735
0.00755024
0.00756385
0.0075769
0.00758839
0.00759778
0.00760495
0.00761068
0.00761683
0.0076254
0.00763757
0.00765367
0.00767567
0.00771665
0.00781173
0.00787417
0.00930627
0.0147399
0.0155684
0.015044
0.0104204
0.00803953
0.00791502
0.0078637
0.00785613
0.00787095
0.0079012
0.00791175
0.00796102
0.00815033
0.00814215
0.00815781
0.00819789
0.00825611
0.00838837
0.00850499
0.0115636
0.0131823
0.0134411
0.0092321
0.00880276
0.00881533
0.00887606
0.00896415
0.00905849
0.00915244
0.00925362
0.00936632
0.00754318
0.00754968
0.00755877
0.00756851
0.00757787
0.00758605
0.00759264
0.00759763
0.00760136
0.00760494
0.00761024
0.00761894
0.0076317
0.00764835
0.00766894
0.00769348
0.00781545
0.00783253
0.0117305
0.0155837
0.0154906
0.0154626
0.0145545
0.00786149
0.00788801
0.00784396
0.00785676
0.00810833
0.00792044
0.00790163
0.00792082
0.00800537
0.0100432
0.00828172
0.00817811
0.00821166
0.00828455
0.00847191
0.00856312
0.00997299
0.00927358
0.00844297
0.00951105
0.00875922
0.00886026
0.00896727
0.00907215
0.00916959
0.00927278
0.00938332
0.00756646
0.00757237
0.00757945
0.00758563
0.0075903
0.00759329
0.00759475
0.00759521
0.00759546
0.00759677
0.00760096
0.00760947
0.00762277
0.00764082
0.00766482
0.00770805
0.00780498
0.00786556
0.0123154
0.0151865
0.0153481
0.0153171
0.0143227
0.00798272
0.00782687
0.0078174
0.00784064
0.00785032
0.00786461
0.00786459
0.00789425
0.00795304
0.00799813
0.00807389
0.00811514
0.00822496
0.00824532
0.00830058
0.00847078
0.00857367
0.00855053
0.00844041
0.00852918
0.00872962
0.00884405
0.00896469
0.0090846
0.00918641
0.00929168
0.00940093
0.00758738
0.00759265
0.00759761
0.00760015
0.00760018
0.00759814
0.00759476
0.00759105
0.00758806
0.00758713
0.00758988
0.00759754
0.00761041
0.00762804
0.00765125
0.00769304
0.00776086
0.00783376
0.00844692
0.0126309
0.015384
0.0147825
0.00920637
0.00772947
0.00775717
0.00778423
0.00780255
0.00780994
0.00782098
0.00783786
0.0078596
0.00788607
0.00794236
0.00800434
0.0080935
0.00818428
0.00823053
0.00827441
0.00837429
0.00846081
0.00851167
0.00854258
0.00866447
0.00953921
0.00901758
0.00896687
0.00912285
0.00920581
0.00930618
0.00941633
0.00760379
0.0076084
0.00761132
0.00761051
0.00760643
0.00760007
0.00759263
0.00758544
0.00757972
0.00757667
0.00757764
0.00758351
0.00759427
0.00760917
0.0076279
0.00765385
0.00767503
0.00764263
0.00777391
0.00812393
0.00788711
0.00806004
0.00782845
0.00774349
0.00770838
0.00774962
0.00775024
0.00775743
0.00778682
0.00781386
0.00784506
0.00784015
0.0079069
0.00799623
0.00807061
0.00846757
0.00819648
0.00825696
0.00833704
0.00843079
0.00850173
0.00859003
0.0086857
0.00876746
0.00890402
0.00948378
0.00922232
0.00919153
0.00932679
0.00943106
0.00761358
0.00761757
0.00761874
0.00761523
0.00760798
0.00759843
0.00758806
0.00757837
0.00757058
0.00756564
0.00756452
0.00756779
0.00757526
0.00758617
0.00760078
0.00761574
0.0076322
0.00762723
0.0076206
0.00775509
0.00775838
0.00777469
0.00771274
0.00767011
0.00769699
0.00770229
0.00770362
0.00772917
0.00775782
0.00775052
0.00784905
0.00795285
0.00787494
0.00795821
0.00802069
0.0080827
0.00815692
0.0082366
0.00829507
0.00837606
0.00846223
0.00855945
0.0086898
0.00881975
0.0088884
0.00897704
0.00951431
0.0101894
0.0094422
0.00946746
0.00761507
0.00761853
0.0076184
0.00761309
0.00760388
0.00759249
0.0075805
0.00756937
0.00756019
0.0075536
0.00755012
0.00755008
0.00755321
0.00755888
0.00756644
0.00757314
0.00757698
0.00756112
0.00759896
0.00763788
0.00767295
0.00772107
0.00776074
0.00767699
0.00765062
0.00764735
0.0085792
0.00776005
0.00772974
0.00775535
0.00781993
0.00768211
0.00782984
0.00795676
0.00796168
0.00802608
0.00809981
0.00818013
0.00825666
0.00838129
0.00841102
0.00851085
0.00863406
0.00881051
0.00895928
0.00904547
0.00918901
0.00937477
0.00965153
0.00945094
0.00760717
0.00761024
0.00760939
0.00760327
0.0075934
0.00758152
0.00756914
0.00755753
0.00754754
0.00753948
0.00753345
0.0075296
0.00752776
0.00752751
0.00752828
0.00752927
0.00753278
0.00754337
0.00758036
0.00758337
0.00760643
0.00762391
0.00805235
0.00762577
0.00760737
0.00763653
0.0076643
0.00764452
0.00765907
0.00774456
0.0100544
0.0139467
0.0129271
0.00931194
0.00787026
0.00793508
0.00802782
0.00811616
0.00819232
0.00825623
0.00882319
0.00846681
0.0085986
0.00878739
0.00889069
0.00903193
0.00939348
0.00961028
0.00961814
0.00950628
0.00758957
0.00759246
0.00759148
0.0075855
0.00757608
0.00756482
0.00755301
0.00754161
0.00753119
0.00752179
0.00751321
0.00750544
0.00749855
0.00749246
0.00748694
0.00748179
0.00747779
0.007478
0.0074968
0.00752934
0.00753956
0.00755055
0.00754353
0.00757088
0.00760279
0.00760537
0.00762483
0.00768781
0.00759508
0.0110891
0.0165907
0.0174002
0.0174232
0.0169535
0.00955978
0.00788269
0.00796953
0.0080548
0.00815788
0.00862184
0.00837179
0.00839889
0.00852871
0.00883077
0.00892817
0.00878714
0.00939018
0.00972795
0.00964915
0.00958671
0.00756274
0.00756567
0.00756508
0.00755997
0.00755177
0.00754182
0.00753108
0.00752021
0.00750951
0.00749888
0.00748796
0.00747667
0.00746529
0.00745414
0.00744319
0.00743454
0.0074201
0.00740335
0.00811448
0.00750223
0.00748705
0.0074941
0.00752083
0.00752066
0.00803037
0.00760924
0.00762696
0.00767971
0.0077345
0.0158046
0.0171403
0.0172471
0.0173125
0.0173436
0.0136632
0.00802119
0.00790802
0.00798004
0.00807719
0.00813083
0.00822063
0.0082804
0.00828812
0.0109743
0.0179228
0.0198083
0.014063
0.0103826
0.00962818
0.00957061
0.00752777
0.00753098
0.00753114
0.00752728
0.00752059
0.0075121
0.00750245
0.00749204
0.00748101
0.00746927
0.0074565
0.00744257
0.00742792
0.00741331
0.00740046
0.00738928
0.00738079
0.00743186
0.00742765
0.00741139
0.00743535
0.00742935
0.00756864
0.00747758
0.00751245
0.00755587
0.00757866
0.00760108
0.00753115
0.0152886
0.0170868
0.0171356
0.0172179
0.0173418
0.0132816
0.00772697
0.00792362
0.00790181
0.00816242
0.00807214
0.00815315
0.00823144
0.00947286
0.0194001
0.0198832
0.0199343
0.0188603
0.0151898
0.0092434
0.0095494
0.00748611
0.0074898
0.00749088
0.00748826
0.00748287
0.00747545
0.00746645
0.00745614
0.00744464
0.00743197
0.007418
0.00740259
0.00738609
0.00736959
0.00735488
0.00734252
0.00734219
0.00734666
0.00737555
0.00817511
0.00738293
0.00737236
0.00738298
0.00741608
0.00746147
0.00771873
0.00754176
0.0075982
0.00766572
0.0131134
0.016312
0.0169521
0.0170709
0.0167919
0.0122637
0.00781598
0.00778825
0.00783626
0.00790589
0.00797762
0.0080618
0.00810627
0.0101988
0.0204452
0.0199823
0.0200095
0.0202126
0.0199425
0.00891463
0.00925307
0.00743921
0.0074435
0.00744543
0.00744369
0.00743898
0.0074319
0.00742284
0.00741214
0.00740005
0.00738676
0.00737233
0.00735667
0.00733984
0.00732262
0.00730646
0.00729329
0.0072866
0.00728682
0.0072961
0.00728125
0.0074209
0.00730709
0.00732433
0.00735373
0.00738795
0.00742078
0.00747999
0.00755431
0.00770512
0.00823545
0.0128279
0.0171112
0.0173294
0.0127372
0.0078356
0.00768901
0.007772
0.00785865
0.00785161
0.00792804
0.00803522
0.00817023
0.010552
0.0195637
0.0197654
0.0198681
0.0200311
0.0189057
0.00935537
0.00919393
0.00738816
0.00739312
0.00739564
0.00739417
0.00738929
0.00738166
0.00737181
0.00736032
0.00734769
0.00733426
0.0073202
0.00730537
0.00728962
0.00727313
0.0072569
0.00724252
0.00723334
0.00722728
0.00722284
0.00728313
0.00723143
0.00723923
0.00725835
0.00728088
0.00730999
0.00734191
0.00738861
0.00745761
0.00754735
0.00762471
0.00764703
0.00754357
0.00759308
0.00757594
0.00762147
0.00791987
0.00765916
0.0076995
0.00777269
0.00786461
0.00800364
0.00817692
0.00848574
0.0134327
0.0194582
0.0197768
0.0187601
0.0113701
0.00891261
0.00916562
0.0073335
0.00733907
0.00734182
0.00733991
0.00733405
0.00732512
0.00731401
0.00730162
0.00728872
0.00727579
0.00726289
0.00724976
0.00723598
0.00722135
0.00720628
0.00719201
0.0071803
0.0071722
0.00717215
0.00717009
0.00716583
0.0071736
0.00718618
0.0072075
0.00722912
0.00725679
0.00729352
0.00734279
0.00740646
0.00747785
0.00750953
0.0074981
0.00750713
0.00749319
0.00751841
0.00756255
0.0075808
0.00763392
0.0076913
0.00775415
0.00791467
0.00806679
0.00859316
0.00868889
0.00929077
0.00891504
0.00944081
0.0093885
0.00924623
0.00921928
0.00727507
0.00728113
0.0072837
0.00728081
0.00727342
0.00726284
0.00725041
0.0072374
0.00722478
0.00721301
0.00720194
0.00719102
0.00717958
0.00716715
0.00715373
0.00713997
0.00712702
0.00711615
0.00710723
0.00710182
0.00710127
0.00710087
0.00710595
0.0071306
0.00714956
0.00716608
0.00719382
0.00722947
0.00728068
0.00734299
0.00736306
0.00735157
0.0075129
0.0074003
0.00744369
0.00748066
0.00751343
0.00757201
0.00760788
0.00775377
0.00769768
0.00760915
0.00804229
0.00893094
0.0122598
0.0120695
0.0109008
0.00986411
0.00942866
0.00921864
0.00721214
0.00721851
0.00722062
0.00721648
0.00720748
0.00719546
0.00718219
0.00716924
0.00715761
0.00714757
0.00713869
0.0071301
0.00712087
0.00711034
0.00709828
0.00708491
0.00707091
0.00705747
0.00704546
0.00703594
0.0070306
0.00702916
0.00704245
0.007311
0.00708378
0.00707712
0.00710018
0.00712723
0.00715952
0.00719646
0.00723387
0.00724812
0.00726315
0.00728981
0.00734413
0.00739336
0.00743748
0.00748519
0.00753033
0.00757855
0.00758055
0.00787377
0.0122754
0.011179
0.00931705
0.0117578
0.0107406
0.0098008
0.00937087
0.00905854
0.00714368
0.00715021
0.00715176
0.00714653
0.00713641
0.00712373
0.00711058
0.00709861
0.00708869
0.00708078
0.00707408
0.00706749
0.00705991
0.00705058
0.00703916
0.00702571
0.0070108
0.00699544
0.00698082
0.00696849
0.00696054
0.00695921
0.00696408
0.00695708
0.00696945
0.00699511
0.0070133
0.0070341
0.00706091
0.0070917
0.00712125
0.00714434
0.00716878
0.00720354
0.00724601
0.00728801
0.00733188
0.00738209
0.0074397
0.00752836
0.00760592
0.0113774
0.0119678
0.0108357
0.00922438
0.00933382
0.0108316
0.0104433
0.00977556
0.00865927
0.00706872
0.00707532
0.0070765
0.00707078
0.00706053
0.00704841
0.00703662
0.00702666
0.00701904
0.00701333
0.00700848
0.00700322
0.00699646
0.00698742
0.00697578
0.00696173
0.00694596
0.0069297
0.00691431
0.00690127
0.0068916
0.00688575
0.00688176
0.00688181
0.00688999
0.00690536
0.00692193
0.00694073
0.00696303
0.00698804
0.00701408
0.00703935
0.00706594
0.00709517
0.00712958
0.00717105
0.0072276
0.00728184
0.00733199
0.00736732
0.00749205
0.00750077
0.00793524
0.0098959
0.0084685
0.0235309
0.0313743
0.0322274
0.0289418
0.0129153
0.00698676
0.00699347
0.00699473
0.00698947
0.00698041
0.00697028
0.00696112
0.00695401
0.006949
0.00694531
0.0069417
0.00693695
0.00693008
0.00692045
0.00690793
0.00689298
0.00687667
0.00686046
0.00684566
0.0068331
0.00682298
0.00681546
0.00681031
0.00680855
0.00681129
0.00681996
0.00683155
0.00684531
0.00686155
0.00688057
0.0069015
0.00692211
0.00694467
0.00697359
0.00700708
0.00705465
0.00710591
0.00717383
0.00727462
0.00741223
0.00745556
0.00783593
0.00868634
0.00899813
0.0238855
0.0293569
0.0310398
0.0319064
0.0322902
0.0302007
0.006898
0.00690502
0.00690703
0.00690338
0.00689688
0.00689006
0.0068845
0.00688074
0.00687834
0.00687624
0.00687321
0.00686817
0.00686039
0.00684952
0.00683579
0.00682009
0.00680384
0.00678855
0.00677522
0.00676399
0.00675438
0.00674598
0.00673878
0.00673388
0.00673296
0.00673578
0.00674089
0.00674788
0.00675688
0.00676806
0.00678115
0.00679474
0.00681466
0.00684179
0.00687208
0.00691537
0.00700658
0.00706472
0.00709625
0.00716377
0.00728961
0.00760832
0.00783382
0.00629118
0.0349862
0.0315696
0.0314269
0.031813
0.0333151
0.0398511
0.00680347
0.00681113
0.00681465
0.0068137
0.00681091
0.00680831
0.00680686
0.00680648
0.00680636
0.00680533
0.0068023
0.00679642
0.00678726
0.00677488
0.00676001
0.00674405
0.00672861
0.00671493
0.0067033
0.00669316
0.00668379
0.00667496
0.00666678
0.00665964
0.00665389
0.00664988
0.00664755
0.00664702
0.00664799
0.00665099
0.00665662
0.00666415
0.00666938
0.0067062
0.00673196
0.00677263
0.00683369
0.00689629
0.00705872
0.00788674
0.00709214
0.00762693
0.00780769
0.00687048
0.0268042
0.0305441
0.0310664
0.0308035
0.0284347
0.0221707
0.00670488
0.00671358
0.00671931
0.00672186
0.00672342
0.00672535
0.0067279
0.00673052
0.00673216
0.00673175
0.00672838
0.00672148
0.00671092
0.00669723
0.0066817
0.00666613
0.00665213
0.00664034
0.00663023
0.00662056
0.00661043
0.00659986
0.0065896
0.00658022
0.00657123
0.00656133
0.00655088
0.00654221
0.00653571
0.00653135
0.00653157
0.00653301
0.00655592
0.00674035
0.00674747
0.00660918
0.00667914
0.00680286
0.00769911
0.0083703
0.00695857
0.00769461
0.00826936
0.00749116
0.00839505
0.0255068
0.0310496
0.0296914
0.0203031
0.0140744
0.00660427
0.00661439
0.00662281
0.00662918
0.0066351
0.00664119
0.00664712
0.00665202
0.00665488
0.0066548
0.0066511
0.00664342
0.00663191
0.00661755
0.00660211
0.00658758
0.00657527
0.00656509
0.00655579
0.00654586
0.0065345
0.00652181
0.00650817
0.00649374
0.00647901
0.00646487
0.00645096
0.00643568
0.0064207
0.00640804
0.00639845
0.0063883
0.00640723
0.00641021
0.00641663
0.0064283
0.00649187
0.0064522
0.00780146
0.00765513
0.00717442
0.0069769
0.00753822
0.00704692
0.00756867
0.00771064
0.00821286
0.00968095
0.0103893
0.0115923
0.00650363
0.00651544
0.00652665
0.00653662
0.00654627
0.00655558
0.00656386
0.00657022
0.00657385
0.00657409
0.00657043
0.00656259
0.00655097
0.0065369
0.00652241
0.00650937
0.00649853
0.00648914
0.00647961
0.00646854
0.00645541
0.00644026
0.00642311
0.00640378
0.00638268
0.0063611
0.00634121
0.00632402
0.00630439
0.00628124
0.00625869
0.00624149
0.00623475
0.00622878
0.00623139
0.00623174
0.0062557
0.00650699
0.00763228
0.00728872
0.00720371
0.0108797
0.015162
0.00709262
0.00775567
0.00829432
0.00849703
0.00931448
0.0101711
0.0108662
0.00640451
0.00641804
0.00643176
0.00644457
0.00645682
0.00646808
0.00647757
0.00648464
0.00648881
0.00648963
0.00648662
0.00647952
0.00646886
0.00645614
0.00644334
0.00643188
0.00642186
0.00641214
0.00640125
0.00638826
0.00637292
0.00635508
0.00633435
0.00631034
0.00628388
0.00625676
0.00623019
0.00620417
0.00617957
0.00615352
0.00612381
0.00609565
0.00607726
0.00604503
0.00615768
0.00603036
0.00622659
0.00664111
0.00645655
0.00725557
0.00706076
0.0138785
0.0148151
0.00824757
0.00712756
0.00776574
0.00813673
0.00904172
0.00984728
0.0102996
0.00910568
0.00917426
0.0092413
0.0093073
0.00937303
0.00943932
0.00950691
0.00957629
0.00964764
0.00972082
0.00979536
0.00987062
0.00994598
0.010021
0.0100958
0.0101705
0.0102461
0.0103234
0.0104032
0.0104863
0.0105736
0.0106655
0.0107622
0.0108634
0.0109676
0.011073
0.0111772
0.0112787
0.0113769
0.0114717
0.0115634
0.0116515
0.011735
0.0118129
0.0118851
0.0119521
0.0120144
0.0120717
0.0121238
0.0121704
0.0122115
0.0122477
0.01228
0.0123093
0.0123357
0.0123584
0.0123771
0.0123922
0.0124038
0.0124112
0.00910902
0.00917792
0.00924528
0.00931159
0.00937754
0.00944393
0.00951146
0.00958063
0.00965169
0.00972454
0.00979881
0.00987395
0.00994941
0.0100249
0.0101004
0.0101764
0.0102536
0.0103325
0.0104138
0.010498
0.0105857
0.0106776
0.0107739
0.0108741
0.0109771
0.0110809
0.0111834
0.0112835
0.0113806
0.0114748
0.0115662
0.011654
0.011737
0.0118143
0.0118861
0.0119531
0.0120156
0.0120734
0.0121259
0.0121732
0.0122153
0.0122526
0.0122862
0.0123166
0.0123435
0.0123665
0.0123852
0.0124001
0.0124114
0.0124187
0.00911383
0.00918351
0.0092518
0.00931906
0.00938582
0.00945273
0.00952039
0.00958934
0.00965987
0.00973204
0.00980561
0.00988017
0.00995536
0.010031
0.0101073
0.0101847
0.0102635
0.0103444
0.0104274
0.010513
0.0106015
0.0106936
0.0107895
0.0108889
0.0109906
0.0110928
0.0111938
0.0112926
0.011389
0.0114828
0.0115737
0.0116607
0.0117426
0.0118188
0.0118898
0.0119564
0.0120191
0.0120771
0.0121302
0.0121783
0.0122221
0.0122615
0.0122967
0.0123281
0.0123557
0.0123792
0.0123982
0.0124131
0.0124244
0.0124315
0.00911973
0.0091907
0.00926054
0.00932938
0.0093975
0.00946533
0.00953338
0.00960218
0.00967214
0.00974345
0.00981606
0.00988976
0.0099644
0.01004
0.0101169
0.0101954
0.010276
0.0103587
0.0104436
0.0105306
0.0106201
0.0107125
0.0108083
0.0109071
0.0110079
0.011109
0.011209
0.0113071
0.0114029
0.0114961
0.0115858
0.0116711
0.0117513
0.0118261
0.0118961
0.011962
0.0120243
0.0120826
0.0121364
0.012186
0.0122318
0.0122734
0.0123104
0.0123428
0.0123709
0.012395
0.0124148
0.0124302
0.0124415