/*--------------------------------*- C++ -*----------------------------------*\
| =========                 |                                                 |
| \\      /  F ield         | OpenFOAM: The Open Source CFD Toolbox           |
|  \\    /   O peration     | Version:  2.4.0                                 |
|   \\  /    A nd           | Web:      www.OpenFOAM.org                      |
|    \\/     M anipulation  |                                                 |
\*---------------------------------------------------------------------------*/
FoamFile
{
    version     2.0;
    format      ascii;
    class       surfaceScalarField;
    location    "0.183";
    object      phiAlpha;
}
// * * * * * * * * * * * * * * * * * * * * * * * * * * * * * * * * * * * * * //

dimensions      [0 3 -1 0 0 0 0];

internalField   nonuniform List<scalar> 
12835
(
-1.86382e-07
1.88221e-07
-3.45893e-07
1.67153e-07
-3.64969e-07
2.68866e-08
-2.83229e-07
-8.04098e-08
-2.80818e-07
7.40664e-09
5.73008e-08
-3.35977e-07
2.72355e-07
-2.09275e-07
2.25964e-07
-6.0479e-09
1.27719e-07
-2.48184e-10
-2.58374e-09
8.2609e-08
-3.33466e-08
3.07629e-08
-3.19228e-08
-1.1263e-09
3.83881e-09
-4.54776e-08
1.3844e-08
-1.46206e-08
2.80597e-09
1.40783e-09
4.65996e-09
3.6168e-09
1.63851e-12
4.65832e-09
-3.15627e-09
3.46786e-09
-4.48761e-09
1.94954e-10
-1.90959e-09
1.97026e-09
-5.71492e-11
3.54413e-10
-4.49069e-13
-1.1043e-11
4.26709e-11
-1.08125e-11
1.81902e-10
2.69237e-10
1.19673e-09
1.02057e-10
9.16736e-11
9.75603e-10
-6.50049e-11
2.89513e-10
-1.08165e-09
1.71982e-09
-7.27372e-12
-4.97424e-09
1.04383e-09
-1.75142e-11
7.87638e-10
2.32782e-09
4.255e-10
1.65374e-09
-9.10074e-13
1.52979e-10
-1.2505e-13
-7.85199e-13
8.29399e-12
-2.79763e-11
2.56063e-11
-1.33587e-11
1.20166e-11
9.62216e-13
1.05498e-11
1.18452e-11
1.08045e-11
5.34955e-12
9.38749e-12
2.04998e-12
1.67781e-12
1.67045e-12
6.31449e-13
3.40062e-13
2.72739e-12
1.57284e-12
1.52516e-12
1.94002e-12
-3.37816e-14
4.56769e-13
-3.7408e-14
3.59536e-15
-1.07321e-12
2.30773e-13
-2.53865e-12
2.07571e-12
-2.83119e-12
1.57119e-12
3.3811e-13
-1.67122e-12
-2.36686e-07
4.26811e-07
-3.69268e-07
3.00537e-07
-3.59039e-07
1.30833e-08
-2.91161e-07
-1.48218e-07
-3.22562e-07
3.90945e-08
-4.30869e-08
-6.55227e-07
5.96968e-08
-5.10619e-07
4.26992e-09
-4.02466e-09
-4.34501e-08
1.1922e-07
-1.19294e-07
4.51291e-08
-7.10373e-08
3.35476e-08
-3.50046e-08
-2.98089e-08
4.26678e-09
-7.11363e-08
2.31081e-08
-2.06635e-08
1.65106e-08
8.49861e-09
1.72391e-08
3.19257e-09
-8.14698e-10
3.0805e-08
-5.42696e-09
2.991e-08
-5.02796e-09
-6.4513e-10
-1.87348e-09
-1.35524e-08
6.58377e-11
-7.14335e-10
1.9941e-11
-6.32129e-11
3.12014e-11
-2.90803e-11
1.29068e-09
2.24145e-09
7.29496e-10
-2.85317e-09
-5.51589e-11
4.55553e-09
2.14998e-10
1.70704e-09
-7.37009e-09
8.23095e-09
-7.95193e-10
-5.13386e-08
2.38872e-10
2.20375e-09
2.3818e-09
3.37225e-09
1.25453e-09
4.42247e-09
1.50085e-11
1.09495e-09
1.52327e-11
-1.1523e-12
3.10955e-10
-8.95847e-11
5.45814e-10
-1.45989e-10
1.69702e-10
-3.85718e-11
-1.29521e-12
5.35895e-11
-2.15242e-12
7.05516e-12
1.53389e-11
6.40707e-12
2.32526e-12
6.12263e-12
1.52382e-12
4.56756e-12
1.85238e-13
2.14708e-12
-4.42011e-13
1.89582e-12
-3.26162e-14
1.06342e-15
-6.59402e-14
3.50648e-14
-2.28357e-12
6.02412e-13
-5.70833e-12
4.78388e-12
-5.45799e-12
7.8053e-12
3.24116e-14
-3.53386e-12
-2.34412e-07
6.62086e-07
-3.51395e-07
4.1742e-07
-3.32082e-07
-6.66421e-09
-2.85158e-07
-1.94916e-07
-3.49037e-07
1.02317e-07
-1.34212e-07
-8.6938e-07
1.81501e-07
-8.42716e-07
3.58614e-07
-3.34193e-07
8.02618e-08
2.6757e-07
-5.01655e-08
1.48558e-07
-2.43027e-08
4.78734e-08
-2.51842e-08
-3.51896e-08
-1.00423e-09
-1.23587e-07
4.38656e-09
-1.36501e-08
2.00433e-08
-6.53837e-09
1.76225e-08
-5.49368e-09
1.27239e-08
4.70165e-08
1.98812e-09
6.79464e-08
1.60449e-08
-8.8801e-09
2.19606e-08
-5.61415e-08
1.65808e-09
-1.24041e-09
1.13078e-11
-3.24304e-11
-8.53001e-12
-1.56136e-11
1.26778e-10
7.5588e-11
-1.63953e-09
-1.49385e-10
-8.80393e-10
1.28121e-09
-2.01967e-11
4.55006e-09
1.19116e-09
1.86763e-08
9.98599e-10
-4.85801e-08
2.81488e-09
-1.63511e-08
4.4762e-09
2.15254e-09
6.47678e-10
7.13413e-09
1.23037e-11
3.4757e-09
1.06708e-11
-4.13099e-14
7.6882e-10
-1.1747e-12
1.19803e-09
-1.41794e-10
7.86934e-10
-1.62158e-10
1.06548e-11
2.40019e-10
-1.4506e-12
1.7031e-11
6.05376e-12
1.7377e-11
2.5173e-12
1.77494e-11
1.82159e-13
3.96539e-12
-1.52541e-12
3.24294e-12
-8.5258e-13
3.93261e-13
-2.27138e-13
3.80823e-13
-1.82562e-14
1.54957e-13
-1.49409e-12
2.40018e-12
-5.36158e-12
3.9193e-12
-6.25139e-11
2.25709e-11
3.66554e-11
-1.22747e-10
-2.22511e-07
8.84528e-07
-3.26481e-07
5.21433e-07
-3.03352e-07
-2.96798e-08
-2.61245e-07
-2.35779e-07
-3.18064e-07
1.5942e-07
-1.29587e-07
-1.05715e-06
2.89904e-08
-1.00669e-06
3.29539e-07
-7.7613e-07
5.3349e-08
5.56898e-07
-1.48116e-08
2.11341e-07
-1.96408e-08
4.66798e-08
-1.14616e-08
-4.76654e-08
-2.68479e-09
-6.64856e-08
-3.84184e-09
-2.4065e-08
2.30899e-08
-3.29533e-08
1.76966e-08
-1.37904e-08
1.00303e-08
6.05814e-08
1.34953e-08
1.10383e-07
3.53246e-08
-2.82838e-08
3.28629e-08
-6.03007e-08
8.25582e-09
-3.19203e-09
-1.21047e-11
2.40343e-09
9.49487e-12
-1.63205e-11
1.63517e-09
3.87048e-12
3.0852e-09
1.73152e-10
5.38174e-09
1.47512e-10
3.17538e-08
-8.22556e-11
2.99526e-08
3.14524e-08
1.35343e-08
-3.08076e-08
8.28964e-09
-7.69804e-08
2.87418e-09
-9.72417e-10
2.05136e-10
1.89802e-08
-3.87941e-14
1.23488e-08
-1.49442e-13
-6.48181e-13
1.29264e-11
-1.49255e-11
1.17697e-09
-9.41805e-10
1.1052e-09
-3.61701e-11
1.6158e-10
4.48483e-10
-9.58958e-12
5.58438e-11
4.92061e-12
2.80862e-11
3.30226e-12
3.29515e-11
4.88932e-15
1.6283e-12
-2.65656e-13
3.74543e-13
-2.4035e-13
3.21417e-13
-1.43361e-13
3.8459e-13
-4.29178e-13
7.55171e-13
-1.56418e-11
8.53707e-12
1.11468e-11
1.84821e-11
3.24195e-12
1.73101e-11
2.23203e-09
-5.37752e-10
-2.07333e-07
1.09211e-06
-2.99679e-07
6.14092e-07
-2.74924e-07
-4.93217e-08
-2.39546e-07
-2.70037e-07
-2.72604e-07
1.88046e-07
-1.3079e-07
-1.19938e-06
-1.34928e-07
-1.04226e-06
-4.11048e-08
-8.81524e-07
-3.11027e-08
6.86924e-07
-1.59653e-08
4.65193e-06
-2.76053e-08
5.26419e-08
-1.04827e-08
-6.93582e-08
-2.12061e-09
-5.55645e-08
7.72517e-10
-3.55525e-09
1.15326e-08
-2.94576e-08
1.44535e-08
-8.54669e-09
6.5448e-09
7.62553e-08
3.4862e-08
1.39631e-07
6.71735e-08
-6.70867e-08
4.29707e-08
-4.42179e-08
1.58503e-08
-5.5151e-08
9.66866e-12
9.31215e-09
1.48553e-14
2.6787e-12
1.44035e-11
-4.17826e-11
3.20948e-09
-8.39968e-11
2.11355e-09
-9.33234e-11
3.23359e-09
-1.03243e-09
5.56861e-08
1.72223e-08
3.2727e-08
-7.73696e-09
1.78731e-08
-6.22812e-08
2.55593e-09
-4.1878e-09
-7.50075e-10
4.00592e-08
-1.29776e-11
9.60892e-09
-2.04972e-12
-1.22353e-11
5.25149e-11
-9.36976e-11
8.51317e-10
-1.25956e-09
9.90143e-10
-1.25184e-10
2.72268e-10
4.6721e-10
-1.75085e-11
9.84736e-11
-1.28053e-12
3.59321e-11
2.32477e-12
3.21303e-11
-1.03599e-14
1.35842e-12
-6.50647e-14
3.59871e-13
-1.08117e-13
3.16736e-13
-1.26404e-13
3.62576e-13
-3.06803e-12
5.28631e-12
-1.08583e-13
2.57841e-12
1.15382e-11
1.71311e-12
1.81603e-10
1.59323e-10
7.4991e-09
6.0504e-10
-1.89042e-07
1.28139e-06
-2.60602e-07
6.87126e-07
-2.44195e-07
-6.15378e-08
-2.18186e-07
-2.99723e-07
-2.48814e-07
2.16169e-07
-1.86936e-07
-1.25892e-06
-2.43638e-07
-9.83455e-07
-2.316e-07
-9.04295e-07
-1.49794e-07
5.38069e-07
-4.62598e-08
2.52288e-06
-5.62973e-08
5.80297e-08
-8.20488e-09
-2.60583e-07
9.92535e-10
-5.81191e-08
4.01408e-09
-1.30729e-08
3.82843e-09
-9.33274e-09
2.19527e-08
-9.42938e-09
5.86192e-08
5.17523e-08
8.22787e-08
1.08796e-07
9.8088e-08
-9.10021e-08
6.57078e-08
-1.8461e-08
4.62463e-08
-4.14871e-08
-1.49037e-10
3.25649e-08
-4.46693e-11
2.70557e-11
1.00631e-11
-1.67603e-10
1.12443e-10
-2.11781e-10
-9.47351e-11
8.37471e-11
-9.13341e-10
-2.37354e-10
3.02186e-08
4.31991e-09
3.58304e-08
-1.35236e-08
1.83116e-08
-4.49634e-08
8.80201e-10
-5.28317e-09
2.06051e-10
4.69301e-08
-9.20479e-11
3.73505e-09
-2.9697e-12
-6.62458e-11
5.4921e-11
-9.50198e-11
4.61971e-10
-4.86077e-11
7.36305e-10
-3.53751e-10
3.4547e-10
2.77665e-10
3.11668e-11
1.57451e-10
-9.75515e-13
2.74371e-11
3.84873e-12
2.95364e-11
1.71151e-14
2.21482e-12
-4.58959e-14
3.5441e-13
-1.51147e-13
3.77469e-13
-1.17178e-12
1.26001e-12
-1.48485e-13
9.53971e-12
7.08848e-15
1.6253e-12
1.9822e-12
-1.19906e-12
5.11449e-09
8.15515e-10
7.02348e-09
6.51513e-09
-1.70719e-07
1.45233e-06
-2.35333e-07
7.56176e-07
-2.23995e-07
-7.40026e-08
-1.9922e-07
-3.29792e-07
-2.25295e-07
2.41406e-07
-1.50197e-07
-1.32546e-06
-1.20262e-07
-1.0131e-06
1.05401e-07
-1.14448e-06
1.07373e-07
2.46318e-07
-2.19384e-08
2.48001e-07
-6.29825e-08
7.55568e-08
-3.96159e-09
-3.11049e-07
1.02403e-08
-3.13647e-07
1.09082e-08
-1.10043e-07
2.12253e-09
-5.05932e-09
7.6677e-09
-2.5443e-09
5.72459e-08
8.52818e-09
1.04654e-07
6.00588e-08
1.00129e-07
-9.19155e-08
6.50479e-08
9.69318e-09
4.50469e-08
-2.72106e-08
-8.13586e-11
7.71726e-08
-4.65415e-11
5.58286e-11
1.15576e-10
-2.7397e-10
1.31626e-10
-2.52057e-10
-3.99424e-11
2.33876e-10
-3.9254e-09
8.39554e-10
9.20909e-09
-1.66642e-08
2.12665e-08
-2.57948e-08
1.01271e-08
-3.4388e-08
7.14978e-10
-9.31424e-10
2.64215e-09
4.17911e-08
-4.31339e-11
1.37406e-09
-6.65447e-12
-8.6491e-11
3.84962e-11
-1.07401e-10
3.62285e-11
-4.69585e-11
9.22591e-10
-5.17199e-10
4.4147e-10
2.06095e-10
3.03148e-11
2.7814e-10
-1.40577e-12
3.16646e-11
4.48759e-12
2.55282e-11
6.67149e-14
3.18535e-12
-6.46255e-15
3.82613e-13
-3.43182e-14
3.65672e-13
-9.89184e-13
2.56827e-12
-1.36086e-13
9.02948e-12
-2.54667e-12
3.28219e-12
2.04606e-14
-4.36916e-12
5.38489e-09
-1.08043e-13
5.66707e-09
6.76001e-09
-1.5131e-07
1.60445e-06
-2.12271e-07
8.14715e-07
-2.1394e-07
-7.48138e-08
-1.98962e-07
-3.44608e-07
-2.08588e-07
2.51924e-07
-7.36097e-08
-1.46121e-06
8.19013e-08
-1.16758e-06
2.50618e-07
-1.31185e-06
2.27549e-07
-1.51449e-07
1.104e-09
4.63528e-07
-1.56191e-08
8.19794e-08
7.39511e-09
-3.05132e-07
2.21195e-08
-3.10687e-07
1.79211e-09
-5.99896e-08
1.82262e-09
-1.71213e-08
1.28113e-09
-2.70796e-09
8.45562e-09
1.9313e-09
5.01167e-08
2.45021e-09
6.59423e-08
-3.03646e-09
6.18702e-08
8.93074e-09
2.4262e-08
4.57443e-09
-5.01141e-10
5.45603e-08
-5.26815e-12
-3.91659e-10
2.09415e-10
-4.3702e-10
1.65568e-10
-2.87391e-10
1.41455e-10
2.81355e-10
9.00966e-10
1.049e-10
2.23898e-08
-3.0742e-08
1.92845e-08
-2.27685e-08
1.00686e-08
-2.61124e-08
2.86597e-11
3.00844e-09
2.38583e-09
3.57381e-08
3.06908e-11
8.94452e-10
3.8639e-11
-6.48977e-11
3.03203e-11
-9.94829e-11
2.81609e-11
-4.53686e-11
9.70576e-10
-4.66242e-10
4.81817e-10
3.71079e-10
1.82153e-11
7.65823e-10
-8.52492e-14
3.15915e-11
4.27311e-12
1.14037e-11
1.16835e-13
3.4162e-12
4.12876e-14
4.05663e-13
1.04902e-13
5.10616e-13
-6.61313e-14
1.5747e-11
-1.09542e-13
9.3257e-12
-4.68147e-12
6.41953e-12
-2.36874e-13
-9.46536e-12
1.4135e-11
-9.89632e-12
2.41203e-09
7.64739e-09
-1.38719e-07
1.74415e-06
-1.95254e-07
8.74842e-07
-2.00663e-07
-6.98237e-08
-1.97794e-07
-3.47326e-07
-2.03042e-07
2.55868e-07
-3.7135e-08
-1.62782e-06
2.02699e-07
-1.40705e-06
1.12666e-07
-6.31283e-07
1.24619e-07
-1.32443e-07
1.23148e-08
5.68253e-07
1.18204e-09
8.29648e-08
6.63273e-09
-1.10027e-07
7.23148e-09
-2.94965e-07
1.03837e-09
-3.59711e-08
3.02879e-09
-2.02315e-08
7.68899e-10
-1.85864e-09
1.42828e-09
1.11972e-09
3.3572e-09
9.94898e-10
2.13501e-09
-1.89802e-09
5.48618e-08
4.2482e-09
3.98654e-08
1.53739e-08
7.38101e-09
2.95877e-08
-1.40442e-10
4.12629e-12
1.65577e-10
-3.23097e-10
1.8259e-10
-2.94833e-10
2.71483e-10
2.20261e-10
2.53954e-10
1.53604e-10
1.32424e-08
-2.09508e-09
1.59887e-08
-2.54232e-08
7.87006e-09
-1.7656e-08
-2.51256e-09
1.74093e-09
-7.14968e-10
2.3542e-08
3.84178e-11
1.25634e-10
4.46009e-11
-7.29166e-11
3.79504e-11
-9.32092e-11
3.6636e-11
-4.46012e-11
8.43434e-10
-2.47562e-10
6.83686e-10
5.54656e-10
5.04933e-12
1.44931e-09
-1.52829e-12
2.5728e-11
5.54101e-13
1.58904e-12
1.12994e-13
5.85137e-13
8.95676e-14
3.94538e-13
2.37015e-13
3.74807e-13
1.39883e-12
1.57586e-11
1.42478e-14
1.09997e-11
-7.35568e-12
1.09234e-11
2.8957e-12
-8.50918e-11
7.24923e-11
-3.39185e-11
4.39386e-10
7.01632e-09
-1.29354e-07
1.8737e-06
-1.77882e-07
9.25296e-07
-1.95545e-07
-5.15445e-08
-2.00116e-07
-3.40375e-07
-2.04667e-07
2.55369e-07
-4.91686e-08
-1.79197e-06
2.43928e-07
-1.69963e-06
1.79108e-08
-1.55353e-07
1.00954e-07
-1.02201e-07
7.27491e-08
2.59706e-06
5.00183e-09
1.44371e-07
1.34306e-08
-5.28465e-07
5.74403e-10
-1.82908e-07
2.40677e-10
-3.95104e-09
8.81754e-10
-1.38014e-08
7.19412e-10
-8.9623e-09
5.38412e-10
1.28281e-09
1.33275e-09
2.04928e-10
1.46492e-09
-2.1542e-09
4.10996e-08
2.86864e-09
3.20734e-08
2.19536e-08
1.05153e-09
5.98945e-08
3.55454e-10
6.19924e-10
1.94477e-10
-1.37397e-10
2.34043e-10
-2.95744e-10
2.8074e-10
2.04611e-10
1.05164e-10
3.44501e-10
6.92622e-09
-8.98805e-11
1.50684e-08
-2.46297e-08
2.8065e-08
-3.00542e-08
3.39522e-09
1.2287e-08
-5.2968e-11
1.11552e-08
1.10428e-11
2.73182e-11
7.35989e-11
-1.4166e-10
5.8228e-11
-7.85799e-11
4.50472e-11
-3.22676e-11
5.32333e-10
-1.46464e-11
7.81466e-10
4.99732e-10
6.20191e-11
1.43459e-09
6.0169e-13
4.95602e-11
-2.7353e-14
1.98692e-12
8.66224e-14
4.62657e-13
1.00195e-13
3.79113e-13
1.10803e-13
3.56871e-13
3.32289e-12
1.30612e-11
3.11158e-12
3.52209e-12
4.08646e-12
1.61324e-11
1.13712e-12
-5.70406e-11
2.64554e-11
-3.16462e-11
-1.48143e-11
5.68781e-10
-1.17672e-07
1.99145e-06
-1.57851e-07
9.65558e-07
-1.89848e-07
-1.95892e-08
-2.02739e-07
-3.23894e-07
-1.94161e-07
2.45495e-07
-4.42941e-08
-1.93768e-06
1.54545e-07
-1.89772e-06
-5.04248e-09
-1.87611e-07
-2.17815e-08
-1.03492e-08
1.25876e-07
2.92137e-06
6.27996e-09
3.58848e-07
2.31005e-08
-1.26319e-06
-2.28187e-10
-1.35239e-08
-9.30538e-11
-4.07954e-09
1.74007e-10
-4.76656e-09
2.32206e-10
-8.25912e-09
7.13618e-11
1.41399e-09
5.60444e-10
1.65351e-11
1.24523e-09
-2.83517e-09
3.20915e-08
1.68771e-09
3.72142e-08
1.72318e-08
7.78833e-09
1.61159e-07
3.26082e-10
9.45966e-11
2.60122e-10
-1.10732e-10
3.90402e-10
-4.04447e-10
3.58455e-10
2.51613e-10
2.94487e-10
4.27609e-10
4.8502e-09
1.08474e-08
4.18811e-09
-9.40805e-09
2.36691e-08
-5.50303e-08
6.14524e-09
1.57984e-08
2.51006e-09
9.67353e-10
8.69022e-11
-1.4722e-10
8.44114e-11
-1.61519e-10
5.74021e-11
-5.30886e-11
3.72625e-11
-1.43704e-11
3.31128e-11
-1.14634e-11
3.94079e-10
4.50704e-10
1.04053e-10
1.92648e-09
3.1753e-13
1.16159e-10
2.44788e-13
2.02417e-12
9.12402e-14
6.14458e-13
8.02434e-14
3.89786e-13
8.22127e-14
3.52768e-13
3.60659e-12
3.54937e-12
5.97955e-12
1.15699e-12
2.60086e-11
1.13867e-11
1.35285e-11
-2.17339e-11
4.81228e-12
-3.61449e-11
-1.49834e-11
4.94242e-11
-1.03389e-07
2.09492e-06
-1.44523e-07
1.00668e-06
-1.91327e-07
2.71805e-08
-2.06904e-07
-3.08367e-07
-1.62873e-07
2.00437e-07
3.05721e-08
-2.1234e-06
2.44261e-07
-2.11242e-06
-2.02047e-09
-1.2357e-07
-9.81143e-08
3.70486e-09
1.05184e-07
2.97611e-06
2.53193e-08
2.36005e-07
-8.12155e-11
-1.14866e-06
-4.90996e-10
-1.35245e-08
1.96697e-11
-4.18758e-09
7.75502e-11
-4.09806e-09
-7.37354e-11
-7.41091e-09
2.23429e-11
3.00887e-09
6.03283e-13
7.57138e-10
1.04808e-09
-3.53921e-09
1.93375e-08
8.42661e-10
1.51519e-08
5.14777e-09
1.46824e-08
1.477e-07
7.01279e-10
-1.97829e-09
2.79951e-10
-1.7711e-10
7.95072e-10
-8.42058e-10
5.55028e-10
5.01369e-10
4.80174e-10
5.10801e-10
1.59891e-08
6.84388e-09
1.40099e-08
-1.44224e-08
2.64783e-08
-8.48657e-08
4.65253e-09
3.03493e-08
5.66928e-10
4.32251e-09
2.2557e-10
-1.75061e-10
1.78197e-10
-1.97704e-10
8.45862e-11
7.91937e-11
6.10485e-11
5.13693e-11
5.54058e-11
2.14657e-11
3.96523e-10
1.52939e-10
1.41957e-10
1.1034e-09
1.50057e-12
1.25357e-10
6.96739e-13
2.7996e-12
1.09409e-13
1.19948e-12
8.51208e-14
4.12418e-13
8.02115e-14
3.58726e-13
7.69291e-13
8.81594e-13
1.18481e-12
5.95713e-13
1.2657e-11
-1.83808e-13
1.02356e-11
-7.65118e-13
2.80683e-12
-1.6289e-11
-1.25417e-11
1.88212e-12
-9.23088e-08
2.18864e-06
-1.3665e-07
1.05242e-06
-1.94304e-07
8.5691e-08
-2.11341e-07
-2.92357e-07
-1.2669e-07
1.16538e-07
1.19323e-07
-2.24465e-06
1.25227e-07
-1.08716e-06
1.64302e-08
-9.74266e-08
1.10411e-08
1.74671e-08
1.11227e-07
8.90333e-07
1.63305e-08
3.04663e-08
-9.59156e-09
-1.01222e-06
-6.31653e-10
-2.66358e-08
2.20141e-10
-5.0314e-09
7.76832e-11
-4.12441e-09
-2.47835e-11
-2.04917e-09
-3.55306e-11
3.09937e-09
-2.01188e-10
2.05226e-09
-2.2121e-09
-1.27803e-09
-1.75551e-09
9.23331e-09
8.8923e-09
3.94564e-09
-1.73866e-09
1.52744e-07
1.224e-09
-1.24182e-08
5.26735e-10
-2.23674e-10
2.60971e-09
-7.83854e-09
1.31994e-09
-7.08271e-11
7.90725e-10
1.0423e-09
1.31647e-08
3.55359e-09
2.36198e-08
-2.97656e-08
1.97994e-08
-9.20326e-08
1.56716e-08
3.61207e-08
1.26883e-09
1.20381e-08
6.40602e-10
-1.78817e-10
6.93756e-10
-5.366e-10
4.27315e-10
1.80291e-10
8.98221e-11
4.2144e-10
6.63643e-11
9.79144e-11
3.67188e-10
3.77926e-10
7.91389e-11
3.63312e-11
3.28211e-12
2.14391e-11
4.92896e-13
6.69791e-12
2.02392e-12
9.92079e-12
4.96718e-13
1.23251e-11
9.5176e-14
7.59698e-13
2.36562e-13
1.14341e-12
2.19915e-13
9.53974e-13
6.98391e-13
-2.48805e-13
6.36566e-13
-2.2851e-14
6.38267e-12
-8.16489e-12
-7.46617e-12
1.31983e-11
-8.5454e-08
2.27545e-06
-1.29784e-07
1.09905e-06
-1.95316e-07
1.51332e-07
-2.08691e-07
-2.78606e-07
-1.20127e-07
3.49015e-08
2.2935e-07
-2.80312e-06
3.77471e-08
-3.22751e-07
2.88227e-08
-1.83198e-08
4.77023e-08
1.60451e-07
2.02485e-08
2.50907e-07
1.20306e-08
9.57316e-08
-5.20816e-09
-8.85592e-07
-4.91836e-10
-3.84963e-08
1.07131e-10
-5.12668e-09
1.15905e-10
-3.54639e-09
-7.66956e-13
-1.68869e-09
-1.03355e-10
3.20991e-09
-9.03462e-10
2.9213e-09
-2.96801e-09
1.59261e-09
-1.44263e-08
-1.29437e-09
7.79291e-09
-2.84087e-08
9.03519e-09
1.41679e-07
6.78308e-09
-1.31426e-08
1.0225e-08
-3.43994e-09
6.1774e-09
-1.16453e-07
5.79368e-10
-2.37719e-10
-8.1224e-10
2.38071e-09
-7.05781e-09
8.13096e-09
2.7471e-08
-7.06815e-08
1.18289e-08
-8.0076e-08
-5.0563e-09
4.89804e-08
5.92506e-10
4.08008e-09
7.10703e-10
-1.19493e-09
3.33965e-09
-1.66213e-08
6.96437e-10
-8.44167e-11
1.39027e-10
1.04487e-09
1.06661e-10
3.53472e-10
1.87695e-10
5.39869e-10
2.66154e-12
8.47694e-10
3.40398e-12
2.30912e-11
1.56626e-12
4.54857e-12
9.73609e-12
3.66119e-11
7.82195e-12
5.47431e-11
2.78442e-12
4.33563e-11
2.94465e-13
4.99212e-12
1.75531e-13
1.31895e-12
5.31736e-13
2.18842e-12
2.09776e-12
9.52475e-14
3.46561e-12
-1.54932e-12
-7.87218e-13
1.2055e-11
-7.83567e-08
2.35438e-06
-1.21159e-07
1.14189e-06
-1.8574e-07
2.16004e-07
-1.9855e-07
-2.57094e-07
-1.62267e-07
-9.74942e-09
3.19644e-07
-3.28435e-06
3.90327e-08
-1.74227e-07
1.85756e-08
-9.61328e-09
8.05966e-08
1.19642e-07
1.69405e-08
4.48207e-07
1.13926e-08
2.27329e-07
1.51153e-09
-4.77033e-08
6.09847e-10
-1.97249e-08
1.89823e-10
-4.82143e-09
1.25392e-10
-3.40101e-09
2.92554e-11
-1.29969e-09
-8.90655e-11
1.17908e-08
-8.25947e-10
4.12625e-09
-4.71608e-09
6.31351e-09
-1.51669e-08
1.36783e-09
1.16639e-08
-5.32859e-08
1.68946e-08
5.69296e-08
6.11373e-09
-8.78332e-09
1.02885e-08
-2.1283e-09
9.20558e-09
-1.6202e-07
-1.77039e-10
1.05279e-09
-1.59034e-09
3.90906e-09
-5.58698e-10
2.33608e-08
1.96361e-08
-7.41127e-08
1.08263e-08
-6.59529e-08
-2.71392e-10
5.49878e-08
1.83301e-10
3.24311e-09
1.46074e-09
-4.2053e-09
8.99108e-09
-3.17534e-08
1.26305e-09
-2.5828e-10
1.5313e-10
1.42823e-09
1.05649e-10
5.65117e-10
-2.47316e-11
8.95051e-10
7.23924e-11
9.60574e-10
3.13421e-12
4.08144e-11
1.89159e-12
3.55989e-12
1.07691e-11
1.11063e-11
1.19138e-11
5.42143e-11
9.15317e-12
5.04638e-11
5.41912e-12
4.54931e-11
1.79326e-12
2.44283e-11
8.41875e-13
5.87812e-12
1.57308e-12
3.66369e-13
9.27944e-13
-1.07486e-12
-1.07105e-12
1.0586e-12
-7.15196e-08
2.42592e-06
-1.10922e-07
1.18132e-06
-1.72852e-07
2.74963e-07
-1.9794e-07
-2.3126e-07
-1.62329e-07
-4.70125e-08
2.71903e-07
-3.72052e-06
3.7375e-08
2.86423e-08
1.40648e-08
2.90108e-09
8.0727e-09
-1.16719e-08
9.65624e-09
1.22375e-06
1.1882e-08
5.00641e-07
1.14709e-09
-3.7992e-08
8.27954e-10
-1.94048e-08
1.5718e-10
-4.80236e-09
1.47768e-10
-3.92954e-09
1.74963e-10
-4.87714e-09
-2.53416e-11
1.2498e-08
1.79758e-10
4.03028e-09
-8.04001e-10
-6.31506e-08
-7.60875e-09
-1.81593e-08
2.04338e-08
-7.92992e-08
1.02937e-08
6.08293e-08
3.69174e-09
-8.08143e-09
8.65941e-09
-5.41601e-10
1.16567e-08
-1.61458e-07
-2.08655e-10
5.46198e-09
-2.32315e-09
5.53257e-09
1.31991e-08
1.11644e-08
1.9945e-08
-7.50492e-08
1.15109e-08
-4.00384e-08
5.29654e-09
1.66406e-08
3.70289e-10
6.4101e-09
5.98129e-09
-1.10637e-08
8.02414e-09
-3.18595e-08
2.45773e-09
-7.30714e-10
2.84578e-10
1.71357e-09
8.24924e-11
8.20626e-10
-1.30727e-11
1.19347e-09
1.98259e-11
1.12372e-10
1.56862e-12
2.50033e-11
1.09492e-12
2.82377e-12
2.80048e-12
4.12839e-12
1.24415e-11
4.53635e-11
1.05159e-11
5.21612e-11
8.44118e-12
4.73183e-11
6.57578e-12
2.81529e-11
1.3885e-12
3.33052e-12
8.27952e-13
3.34898e-13
1.32068e-12
-1.89028e-12
-1.59931e-12
1.7075e-12
-6.47349e-08
2.49067e-06
-9.71315e-08
1.21443e-06
-1.56199e-07
3.30581e-07
-1.76157e-07
-2.11884e-07
-1.5914e-07
-6.54238e-08
1.24416e-07
-4.0061e-06
2.97807e-08
-6.17686e-07
1.36005e-08
4.56877e-09
-5.31759e-08
9.55494e-08
6.82916e-08
4.5044e-06
2.29348e-08
3.10785e-07
1.06479e-09
-5.38538e-09
1.34451e-09
-2.59873e-08
1.38129e-10
-3.83099e-09
1.43766e-10
-3.03134e-09
4.44711e-10
-4.81313e-09
1.02231e-10
1.31492e-08
4.41944e-10
3.24733e-09
2.4145e-09
-6.95653e-08
-3.53144e-09
-1.43053e-08
6.53669e-09
-6.00138e-08
9.73927e-09
1.42597e-07
7.36216e-09
-1.11252e-08
9.79343e-09
2.74877e-08
5.324e-09
-1.53719e-07
6.34241e-10
6.851e-09
1.27517e-09
4.36573e-09
1.84443e-08
1.67821e-09
1.60177e-08
-8.26752e-08
8.25038e-09
-6.60147e-08
4.27038e-09
-2.65462e-10
1.92882e-09
8.02094e-09
6.62297e-09
-1.58771e-08
5.44049e-09
-2.93664e-08
2.5736e-09
-5.02097e-09
2.90535e-10
1.7719e-09
7.59691e-11
7.96329e-10
6.01665e-11
5.32115e-10
1.90354e-12
-1.90523e-12
1.18044e-12
4.83417e-12
1.15625e-12
2.50411e-12
2.20253e-12
2.66426e-12
1.12135e-11
3.70348e-11
1.03178e-11
5.33709e-11
9.50643e-12
4.78186e-11
4.57716e-12
1.0039e-11
1.38627e-12
2.25472e-12
8.47219e-13
3.31219e-13
4.02952e-12
-7.97229e-12
-2.70845e-12
1.83794e-12
-5.84913e-08
2.54917e-06
-8.88611e-08
1.24607e-06
-1.35325e-07
3.72186e-07
-1.44783e-07
-2.03783e-07
-1.36995e-07
-6.29393e-08
-4.89461e-08
-3.4017e-06
3.42195e-08
-2.05328e-06
1.37745e-08
2.78928e-09
-2.54867e-08
2.25486e-07
1.33561e-07
4.59446e-06
2.68745e-09
1.7279e-07
1.42507e-09
-2.06689e-08
2.60402e-09
-2.21664e-07
1.12337e-10
-5.81478e-12
2.23374e-10
-1.73516e-09
3.4267e-10
-4.63148e-09
1.94598e-09
1.18625e-08
2.4942e-09
2.39661e-09
1.18189e-08
-7.90025e-08
2.09005e-09
-3.09016e-09
9.37157e-09
-7.00552e-08
2.54477e-08
1.28512e-07
1.58873e-08
-4.80637e-08
1.15138e-08
3.95638e-08
-2.3271e-09
-1.36605e-07
9.3858e-10
7.99099e-10
5.80275e-10
4.4208e-09
1.18025e-08
2.6725e-10
1.63298e-08
-8.88471e-08
-3.19898e-10
-5.10133e-08
4.71268e-09
3.0161e-08
2.43435e-09
1.16825e-08
6.68084e-09
-2.05908e-08
3.94458e-09
-2.70128e-08
2.43207e-09
-7.84798e-09
1.54073e-10
2.60521e-09
4.48287e-11
1.17475e-09
2.88032e-11
8.71241e-11
7.41094e-13
2.24995e-11
1.04506e-12
4.02657e-12
8.77819e-13
2.45522e-12
9.45659e-13
2.47033e-12
5.80424e-12
5.90208e-12
9.82553e-12
4.9162e-11
9.7751e-12
4.66208e-11
2.52159e-12
1.92634e-12
1.43082e-12
2.51538e-12
4.80572e-12
5.33072e-12
5.81206e-12
-6.21911e-12
-4.83507e-12
2.404e-12
-5.28444e-08
2.60203e-06
-7.47506e-08
1.26844e-06
-1.10976e-07
4.23395e-07
-1.09895e-07
-2.02729e-07
-7.3808e-08
-6.86516e-08
-2.66821e-08
-2.58334e-06
1.54457e-08
-2.01223e-07
1.92876e-08
2.10612e-09
1.86929e-08
2.27272e-07
1.57595e-07
4.63821e-06
-1.67586e-09
3.37104e-07
2.258e-09
-1.53889e-08
2.63729e-09
-2.3074e-07
8.8003e-11
5.14623e-10
1.98137e-10
-5.01634e-09
1.89412e-10
-4.31328e-09
1.12135e-09
9.52926e-09
1.06371e-09
2.26879e-09
9.64278e-09
-4.61278e-08
6.05129e-09
1.77568e-09
7.29685e-09
-7.40836e-08
2.38386e-08
1.16695e-07
3.19037e-08
-5.32985e-08
1.39744e-08
5.98912e-08
-3.3039e-09
-1.16757e-07
-1.99251e-11
-1.70016e-10
2.99361e-10
4.22577e-09
1.05511e-08
2.38743e-10
1.13541e-08
-8.72803e-08
5.1343e-10
-3.3253e-08
8.90523e-09
2.68178e-08
2.00568e-09
1.97068e-08
5.99111e-09
-2.38588e-08
1.23222e-09
-8.22166e-09
2.2766e-09
-5.79338e-09
4.25639e-11
3.88105e-09
6.35571e-11
2.16929e-09
1.20001e-11
1.29947e-10
2.34023e-12
3.10499e-11
8.57947e-13
5.29777e-12
5.92209e-13
2.60244e-12
5.15878e-13
2.4507e-12
2.3829e-12
3.39542e-12
9.51455e-12
3.2821e-11
7.42111e-12
1.70406e-11
1.74221e-12
6.83265e-12
1.14417e-12
2.66386e-12
6.76039e-12
8.06824e-12
6.30112e-12
-3.22438e-12
-1.21573e-12
1.15445e-12
-4.7135e-08
2.64918e-06
-6.71657e-08
1.28288e-06
-9.21066e-08
4.56875e-07
-8.30062e-08
-2.02241e-07
-3.52995e-08
-1.06876e-07
7.42635e-08
-2.03245e-06
2.07772e-09
-1.26251e-07
5.4917e-09
2.36872e-09
3.62895e-09
2.16074e-07
2.43314e-08
4.77763e-06
5.3692e-09
3.61349e-07
1.70829e-09
-1.44929e-08
-7.78483e-11
-2.27744e-07
1.1946e-10
-1.17656e-08
4.25861e-10
-1.66666e-08
-1.5745e-11
-4.17533e-09
5.42631e-10
8.81552e-09
4.40845e-10
2.21196e-09
5.31096e-09
-1.58342e-08
3.9928e-09
4.44446e-09
7.1968e-09
-8.04451e-08
1.94138e-08
1.08417e-07
2.46781e-08
-5.62169e-08
1.33305e-08
7.34245e-08
-1.73176e-10
-7.03986e-08
1.53042e-11
-1.01893e-10
2.93434e-10
4.99003e-09
4.05173e-09
-2.57638e-10
1.40071e-08
-9.18365e-08
3.37723e-09
-2.54012e-08
7.04846e-09
2.77902e-08
3.78593e-09
3.60451e-08
4.75993e-09
-1.84138e-08
4.57395e-10
-4.68344e-09
1.18705e-09
-4.79512e-10
4.21695e-10
6.03466e-09
9.13958e-11
2.63312e-09
1.77404e-11
2.00867e-10
2.22355e-12
4.61621e-11
6.65665e-13
6.73428e-12
5.16172e-13
2.65343e-12
4.87529e-13
2.37759e-12
9.20655e-13
2.85758e-12
4.11743e-12
-1.86697e-12
2.81287e-12
6.10889e-13
1.38785e-12
9.52534e-12
9.4321e-13
2.59479e-12
3.86545e-12
6.61228e-12
6.77031e-13
-5.84384e-12
3.30339e-13
-9.08522e-13
-1.00141e-12
5.42923e-14
-8.91747e-13
4.59063e-13
-9.308e-13
7.58774e-14
-1.23642e-12
-1.68908e-13
-1.3269e-12
-5.28756e-13
-1.09742e-12
-3.29296e-13
-6.97914e-13
-1.62995e-13
-5.74003e-14
-1.17165e-14
-7.41593e-14
1.67761e-14
-7.67888e-13
6.93739e-13
-4.11131e-12
3.34342e-12
2.45445e-08
-1.52573e-08
4.66253e-09
1.02848e-07
2.5426e-08
-2.05824e-08
4.91288e-08
-2.64773e-08
1.08344e-07
-5.78128e-08
6.61431e-08
-2.17321e-08
-1.48364e-10
7.98806e-08
-1.48828e-10
4.64316e-13
-2.32112e-10
1.44966e-10
-1.90655e-12
4.64029e-12
-1.2419e-11
5.15344e-12
-1.21239e-10
8.38353e-11
-1.01606e-10
-7.12812e-13
-1.43604e-11
-1.01641e-11
4.38463e-12
-3.44605e-12
3.25421e-11
-2.18806e-11
1.48339e-09
-2.89393e-09
1.07746e-10
1.49404e-09
3.1036e-10
8.30389e-11
2.45164e-09
-1.32755e-09
-7.79872e-10
3.23151e-09
-2.77264e-08
1.47402e-08
-1.20214e-08
-2.53092e-08
-1.08715e-08
6.61168e-08
-3.63706e-08
1.44072e-09
-8.82099e-08
-4.54132e-10
-3.43047e-08
-6.1962e-09
-7.23939e-08
4.95326e-08
-5.08219e-08
-2.4809e-09
1.27942e-08
-6.56401e-08
5.75776e-08
2.63017e-09
4.32405e-08
4.949e-08
-7.70837e-08
4.89578e-07
1.2846e-07
-1.03611e-07
4.54327e-10
1.41998e-07
1.34294e-07
-1.33957e-07
2.49115e-07
-1.13997e-07
1.92278e-07
5.69365e-08
1.92296e-07
-1.28366e-11
1.00545e-11
-4.7278e-12
-7.12224e-12
-1.43576e-12
-3.01676e-12
-2.26815e-12
-1.92966e-13
-2.08112e-12
-7.16461e-13
-1.55534e-12
-6.52386e-13
-1.11521e-12
-3.8698e-13
-2.93465e-13
-3.14215e-13
4.5531e-15
-6.06802e-14
4.46687e-13
-2.70202e-14
5.7935e-12
-1.97471e-12
5.31189e-08
-1.26305e-08
1.90478e-07
3.13429e-08
-4.59098e-08
2.1622e-07
-1.87005e-07
1.2256e-07
-1.31252e-09
-2.77628e-07
6.99519e-08
-1.81065e-07
-1.44059e-09
1.02478e-07
-1.35197e-10
6.86832e-10
-1.65327e-10
3.63166e-10
8.12e-11
-1.86318e-10
7.03384e-12
1.23579e-11
-1.75986e-11
8.9485e-11
-1.31009e-10
1.30966e-10
-5.34875e-11
-7.65246e-11
3.88457e-11
4.61513e-12
1.09501e-10
-8.7328e-11
6.83358e-09
-5.81032e-09
3.38105e-10
4.50795e-09
1.33461e-10
5.48423e-10
4.36508e-09
-2.0067e-11
1.02784e-08
5.34464e-09
1.79366e-08
3.81465e-09
9.76039e-09
-2.53211e-09
-1.67636e-08
1.04497e-07
-1.04106e-08
-2.55765e-09
1.90186e-09
-1.04946e-08
1.11119e-08
-2.23241e-08
-9.49891e-08
1.67966e-07
-9.10417e-08
1.94902e-09
2.79712e-08
-1.55641e-07
4.84419e-08
-1.38499e-08
5.85948e-08
7.35545e-08
1.71668e-07
3.99397e-08
4.30414e-07
-1.70781e-07
6.95067e-08
5.44212e-07
1.38977e-07
-2.0361e-07
2.55244e-07
-2.30539e-07
2.23072e-07
8.92399e-08
4.15384e-07
-3.16888e-10
5.98602e-11
-7.50699e-11
-3.69947e-10
-1.1234e-11
-6.6991e-11
-4.74287e-13
-1.31433e-11
-3.36351e-13
-5.04931e-13
-1.41705e-13
-1.22933e-12
-8.94436e-14
-2.60645e-13
-1.25453e-13
-7.66951e-14
6.42878e-14
7.83816e-14
8.41749e-14
-5.25845e-14
1.84849e-10
-1.86744e-10
1.94138e-08
5.91987e-08
3.36459e-09
5.94405e-08
-5.47453e-08
2.74325e-07
-5.24332e-08
1.20242e-07
-4.52773e-08
-2.84783e-07
6.5967e-09
-2.53986e-07
4.19858e-09
-4.94204e-08
-2.65494e-10
4.63954e-09
4.67204e-11
5.32598e-10
9.52679e-11
-4.20142e-10
1.54863e-12
4.46827e-11
-8.0842e-11
3.79757e-10
-1.94312e-10
3.14499e-10
-3.54555e-11
5.87665e-11
4.72128e-11
2.16957e-10
7.85551e-10
-4.40434e-10
-9.38859e-11
-2.29058e-09
-4.93452e-10
4.46384e-09
-1.25331e-09
2.71593e-09
2.12761e-09
-2.73397e-10
3.15099e-09
1.13923e-09
2.0236e-09
1.85526e-09
-2.11528e-08
-2.8154e-10
-1.22206e-08
1.01933e-07
-7.13477e-09
-2.04872e-10
-1.3504e-08
-7.4153e-09
1.9051e-09
-4.12305e-08
-4.44472e-08
2.78981e-07
-3.63048e-08
4.6583e-10
1.8734e-08
-2.01617e-07
1.23649e-07
-1.27537e-07
4.38613e-08
5.56359e-08
-2.24422e-07
9.35971e-07
1.38113e-07
-5.6968e-07
5.3222e-08
6.28743e-07
1.43218e-07
-2.9377e-07
2.47008e-07
-3.34519e-07
2.17958e-07
1.18296e-07
6.33369e-07
-4.55706e-09
2.82388e-09
-2.96576e-09
-7.50643e-09
-1.44494e-10
-5.69434e-09
-2.54862e-12
-1.37049e-11
-1.29734e-12
-1.226e-12
-1.63412e-13
-2.61607e-12
-5.88146e-14
-3.4569e-13
-3.53938e-14
-1.19591e-14
2.7393e-15
1.88054e-13
4.50269e-15
-5.99091e-14
-5.24712e-10
-1.65808e-10
7.64118e-08
4.17447e-09
-9.09591e-09
1.57512e-07
-4.2572e-08
3.07796e-07
-1.56408e-09
7.92282e-08
-6.32827e-08
-2.23067e-07
-3.88276e-08
-2.86872e-07
1.87204e-08
-2.25631e-07
-4.01516e-10
1.04726e-08
-4.25186e-10
1.03375e-09
-1.11648e-10
-4.95413e-10
-3.6753e-10
3.45146e-10
-1.73214e-10
3.83978e-10
-2.13816e-10
4.01506e-10
-2.09013e-10
2.58219e-10
-1.24829e-13
-1.15241e-09
-2.75437e-09
-9.39763e-10
-8.76532e-09
6.18557e-09
-3.25265e-09
3.90579e-09
-3.26522e-09
1.87219e-09
1.99991e-09
-1.74217e-08
1.17348e-09
1.83004e-09
-1.17874e-09
3.95129e-09
-1.53605e-08
4.49103e-09
-1.00063e-08
3.01168e-09
-8.21628e-09
4.39553e-09
-5.08465e-08