/*--------------------------------*- C++ -*----------------------------------*\
| =========                 |                                                 |
| \\      /  F ield         | OpenFOAM: The Open Source CFD Toolbox           |
|  \\    /   O peration     | Version:  2.4.0                                 |
|   \\  /    A nd           | Web:      www.OpenFOAM.org                      |
|    \\/     M anipulation  |                                                 |
\*---------------------------------------------------------------------------*/
FoamFile
{
    version     2.0;
    format      ascii;
    class       volScalarField;
    location    "0.038";
    object      p;
}
// * * * * * * * * * * * * * * * * * * * * * * * * * * * * * * * * * * * * * //

dimensions      [1 -1 -2 0 0 0 0];

internalField   nonuniform List<scalar> 
57600
(
96.1624
97.0996
97.3851
97.7694
98.1902
98.5461
98.7049
98.5176
97.8318
96.495
94.364
91.369
87.5603
83.1267
78.3348
73.4643
68.7556
64.3849
60.4637
57.0532
54.1729
51.8099
49.9266
48.4675
47.3698
46.57
46.0098
45.6392
45.4163
45.3067
92.9017
93.8968
94.2113
94.6118
95.0282
95.3505
95.4408
95.149
94.323
92.8106
90.4797
87.278
83.2967
78.7471
73.9056
69.0471
64.399
60.1196
56.3074
53.0128
50.2482
47.9951
46.2119
44.8407
43.817
43.0782
42.5668
42.2347
42.0418
41.9552
89.64
90.6357
90.9504
91.3515
91.7694
92.0947
92.19
91.9056
91.0907
89.5934
87.2781
84.0886
80.1111
75.5562
70.7014
65.8238
61.1537
56.8488
53.0073
49.6809
46.8844
44.602
42.7941
41.404
40.3668
39.6189
39.1019
38.7669
38.573
38.4868
86.3771
87.3738
87.6887
88.0906
88.511
88.8413
88.9446
88.6722
87.8753
86.4029
84.1143
80.9451
76.9742
72.4106
67.5332
62.6238
57.9167
53.5702
49.6816
46.304
43.4558
41.1256
39.2773
37.8561
36.7972
36.0351
35.5092
35.1695
34.9747
34.8904
83.1132
84.111
84.4262
84.8292
85.253
85.5901
85.7044
85.4487
84.6767
83.239
80.9885
77.8481
73.8871
69.3111
64.4017
59.4468
54.6882
50.2845
46.3309
42.8823
39.9619
37.5639
35.6577
34.1924
33.1031
32.3214
31.7832
31.4369
31.2422
31.1642
79.8481
80.8473
81.1629
81.5673
81.9954
82.3411
82.4695
82.235
81.4946
80.1015
77.9007
74.7984
70.8508
66.2592
61.308
56.294
51.4692
46.9932
42.9574
39.4174
36.4027
33.915
31.9311
30.4061
29.2769
28.4701
27.9146
27.5564
27.361
27.3013
76.5818
77.5827
77.8987
78.3047
78.738
79.0941
79.2396
79.0307
78.3286
76.9901
74.8511
71.7967
67.8666
63.2564
58.2534
53.166
48.2607
43.6985
39.5638
35.9114
32.7788
30.1767
28.0909
26.4871
25.3066
24.4695
23.8893
23.4999
23.2794
23.2515
73.3144
74.3172
74.6337
75.0415
75.4808
75.8491
76.0146
75.8357
75.1781
73.9043
71.84
68.844
64.9361
60.3046
55.2398
50.0639
45.0635
40.403
36.154
32.3676
29.0919
26.3472
24.1292
22.4201
21.1736
20.3037
19.6922
19.2198
18.81
18.6401
70.0458
71.0509
71.368
71.7777
72.2238
72.6061
72.7943
72.6496
72.0427
70.8437
68.8676
65.9416
62.0614
57.4066
52.2695
46.9888
41.8783
37.1098
32.7334
28.7907
25.3449
22.4261
20.0365
18.1827
16.8474
15.9494
15.3264
14.7404
13.895
13.6129
66.7758
67.7837
68.1013
68.5132
68.9669
69.3647
69.5786
69.4719
68.9216
67.8076
65.9342
63.0907
59.2446
54.5652
49.3453
43.9414
38.7048
33.8221
29.3094
25.1869
21.5429
18.4173
15.803
13.7415
12.2737
11.3599
10.8161
10.3318
9.67246
9.42889
63.5046
64.5155
64.8337
65.248
65.7099
66.125
66.3672
66.3025
65.814
64.795
63.04
60.293
56.4884
51.7839
46.4707
40.9223
35.541
30.5432
25.8924
21.5647
17.6921
14.3321
11.422
9.05031
7.3562
6.42475
6.10996
6.08388
6.2293
6.39459
60.2319
61.2466
61.5653
61.982
62.4529
62.8868
63.1598
63.1407
62.7189
61.8051
60.1854
57.5503
53.7957
49.0669
43.6502
37.9322
32.3824
27.2748
22.4972
17.935
13.7956
10.1986
6.89407
4.04941
1.92829
0.901021
0.984163
1.70392
2.56402
3.10349
56.9577
57.9766
58.296
58.7151
59.1956
59.6497
59.9562
59.9861
59.6353
58.8364
57.3704
54.8644
51.1696
46.4186
40.8894
34.9725
29.2198
24.0153
19.1435
14.3152
9.83087
6.0844
2.23062
-1.30608
-4.1838
-5.6348
-5.14548
-2.80859
-1.3426
-1.55609
53.6819
54.7059
55.0258
55.4473
55.938
56.4139
56.7562
56.8385
56.562
55.8874
54.5956
52.2375
48.6134
43.8444
38.1956
32.0475
26.0372
20.7559
15.853
10.7489
5.65598
2.21812
-2.36478
-6.48824
-11.6492
-0.0673607
0.0332286
0.0301505
0.0266397
0.0302765
50.4044
51.4344
51.7547
52.1787
52.68
53.1789
53.5594
53.6971
53.4977
52.9559
51.861
49.6719
46.1306
41.3499
35.5777
29.1728
22.8102
17.4738
12.6244
7.38068
0.560426
-0.0973223
-5.53191
0.045328
0.0420111
0.0394284
0.0316112
0.0260315
0.0237435
0.023123
47.1249
48.162
48.4826
48.9089
49.4214
49.9446
50.3655
50.5617
50.4408
50.0395
49.1667
47.1701
43.7248
38.9408
33.0463
26.3549
19.5078
14.1114
9.34071
4.67753
-8.48188
-0.0215889
0.0162469
0.0298366
0.0303395
0.0304789
0.0317432
0.0193019
0.0168159
0.0154851
43.8432
44.8888
45.2096
45.6381
46.162
46.7107
47.1741
47.4317
47.39
47.1349
46.513
44.7349
41.3995
36.6232
30.6144
23.686
16.1312
10.3399
5.52242
3.69755
0.0314368
-0.0115717
0.00199074
0.0134103
0.0174463
0.0156458
0.0152186
0.0125714
0.00984835
0.00883765
40.5593
41.6149
41.9356
42.366
42.9017
43.4771
43.985
44.3068
44.3435
44.2381
43.8998
42.3694
39.158
34.4022
28.2975
21.0969
12.6635
3.1904
0.232445
-0.0843678
-0.0811847
-0.0237096
-0.0185491
-0.00907998
0.000566932
0.00446963
0.00538985
0.00467106
0.00259857
0.00138803
37.2725
38.3401
38.6606
39.0926
39.6403
40.2433
40.7977
41.1865
41.2999
41.3439
41.3274
40.0769
37.0031
32.2821
26.114
18.5834
9.193
-6.33169
-2.17098
-0.080545
-0.107404
-0.0446368
-0.0399195
-0.0309186
-0.0170835
-0.0081534
-0.00257055
-0.00530704
-0.00563612
-0.00649478
33.9828
35.0649
35.3847
35.818
36.3778
37.0093
37.6119
38.0709
38.2577
38.4459
38.796
37.8614
34.9373
30.2653
24.0775
16.2037
4.03736
-1.1889
0.0878304
-0.0892412
-0.0913261
-0.0600725
-0.055386
-0.0453907
-0.0306418
-0.0194142
-0.0133349
-0.0105199
-0.0135226
-0.0140867
30.6897
31.7891
32.1077
32.5419
33.1139
33.7748
34.4274
34.9595
35.216
35.5353
36.3061
35.7274
32.9623
28.3511
22.1897
14.108
1.96583
0.0395355
-0.0203074
-0.0766774
-0.083258
-0.0468154
-0.0631249
-0.0520664
-0.0386336
-0.0279756
-0.0227517
-0.0213357
-0.0207916
-0.0212154
27.3924
28.5127
28.8297
29.2642
29.8483
30.5392
31.2436
31.8519
32.1742
32.6008
33.8581
33.6801
31.0788
26.5361
20.4473
12.3391
-17.9742
-0.0422525
-0.0483919
-0.0743731
-0.0802384
-0.0718134
-0.062224
-0.0540286
-0.0427949
-0.0340803
-0.0294298
-0.0277149
-0.0274108
-0.0278716
24.0901
25.236
25.5508
25.985
26.5809
27.3025
28.0604
28.7481
29.1333
29.6274
31.4535
31.7257
29.2868
24.813
18.8412
11.039
-19.1704
-0.104541
-0.0685877
-0.0774743
-0.0796049
-0.0732911
-0.0641854
-0.0553647
-0.0461628
-0.039254
-0.0354242
-0.0338587
-0.033598
-0.034047
20.7821
21.9589
22.2707
22.704
23.3114
24.0641
24.8774
25.6472
26.096
26.5942
29.0945
29.8717
27.5847
23.1708
17.3552
8.80595
-0.069557
-0.111027
-0.0829445
-0.08281
-0.0810862
-0.0745546
-0.0661809
-0.0577178
-0.0500292
-0.0444552
-0.0412539
-0.0398466
-0.0395606
-0.0399432
17.4667
18.6815
18.9897
19.4212
20.0392
20.8237
21.6948
22.5483
23.0683
23.4718
26.7845
28.1273
25.9697
21.5956
15.9535
9.01773
0.164972
-0.103739
-0.0934782
-0.0889387
-0.0841834
-0.0771011
-0.0690602
-0.061293
-0.0546791
-0.0499515
-0.0471426
-0.0458084
-0.045464
-0.0457592
14.1426
15.4042
15.7077
16.1368
16.7642
17.5811
18.5129
19.4495
20.0619
20.2169
24.5296
26.5038
24.4367
20.0722
14.543
8.32255
0.0704751
-0.105016
-0.10251
-0.0953523
-0.0884022
-0.0806491
-0.0728306
-0.0656909
-0.0598321
-0.0556558
-0.0530876
-0.0517806
-0.0513695
-0.0515714
10.8076
12.127
12.4249
12.8508
13.4855
14.3356
15.3328
16.3478
17.0971
16.7619
22.3391
25.015
22.9779
18.5883
12.9393
-2.23958
-0.108794
-0.119886
-0.111582
-0.101903
-0.0932684
-0.0849001
-0.0772465
-0.0705828
-0.0652588
-0.0614551
-0.0590468
-0.0577513
-0.0572788
-0.0573921
7.45901
8.84989
9.14127
9.56336
10.2021
11.087
12.1565
13.238
14.2083
13.007
20.2289
23.6777
21.5809
17.1395
10.9154
-8.92804
-0.232424
-0.139308
-0.120829
-0.108488
-0.0984656
-0.0896398
-0.0820906
-0.0757705
-0.0708228
-0.0672792
-0.0649861
-0.0636998
-0.0631751
-0.0632076
4.09382
5.5731
5.85702
6.2751
6.91275
7.83498
8.98796
10.1136
11.4524
8.84746
18.2263
22.5126
20.226
15.7299
8.62988
-0.491549
-0.246769
-0.155249
-0.12962
-0.115016
-0.103831
-0.0946808
-0.0871942
-0.0811208
-0.0764439
-0.0730899
-0.0708846
-0.0696072
-0.0690386
-0.0689983
0.723085
2.2968
2.57251
2.98697
3.61693
4.57991
5.83431
6.9668
8.92109
4.16561
16.3793
21.5452
18.8823
14.3677
8.24831
0.23252
-0.2346
-0.165371
-0.137529
-0.121273
-0.109211
-0.0998589
-0.092434
-0.0865492
-0.0820737
-0.0788647
-0.0767293
-0.0754589
-0.0748534
-0.0747476
45.2826
45.332
45.4735
45.7362
46.1559
46.7766
47.6514
48.8414
50.4134
52.4306
54.9468
57.9955
61.5817
65.6748
70.1936
75.0041
79.9029
84.6376
88.9326
92.5393
95.3005
97.1924
98.3102
98.8042
98.8344
98.5623
98.1406
97.6963
97.3161
97.0515
41.9494
42.0204
42.1905
42.4905
42.9583
43.6404
44.5931
45.8799
47.5683
49.72
52.3828
55.5831
59.3165
63.5397
68.1574
73.0206
77.908
82.5589
86.698
90.0947
92.624
94.2988
95.2371
95.5937
95.5291
95.2035
94.7647
94.3301
93.9755
93.7544
38.482
38.5545
38.7262
39.0282
39.4992
40.1871
41.1502
42.4536
44.1654
46.3459
49.0407
52.2737
56.0386
60.2904
64.9321
69.8154
74.7166
79.3739
83.511
86.8976
89.4114
91.0703
91.9963
92.3443
92.2741
91.945
91.5044
91.0692
90.7144
90.4935
34.8887
34.9639
35.1378
35.442
35.917
36.6131
37.5923
38.9227
40.6731
42.9009
45.6474
48.9329
52.7483
57.0465
61.7292
66.6448
71.5698
76.2378
80.3714
83.7407
86.2285
87.8612
88.767
89.1012
89.0218
88.6871
88.2437
87.8074
87.4525
87.2318
31.171
31.2517
31.4258
31.7295
32.2073
32.9126
33.9132
35.2824
37.0886
39.3839
42.2028
45.561
49.4463
53.8086
58.548
63.5099
68.4684
73.1517
77.2798
80.6244
83.0753
84.6713
85.5492
85.8643
85.7722
85.4298
84.9824
84.5447
84.1897
83.9694
27.3373
27.4293
27.5894
27.8844
28.3621
29.0757
30.1033
31.5259
33.4093
35.7952
38.7083
42.1596
46.134
50.5781
55.3896
60.4118
65.4137
70.1165
74.237
77.549
79.9517
81.5004
82.3427
82.6335
82.5252
82.173
81.7206
81.2813
80.9262
80.7063
23.4101
23.5429
23.5967
23.8877
24.3664
25.0841
26.1463
27.6436
29.632
32.1354
35.1656
38.7306
42.8134
47.3567
52.2558
57.3521
62.4072
67.1335
71.244
74.5148
76.8574
78.3479
79.1471
79.4085
79.2807
78.9167
78.4583
78.0169
77.6617
77.4424
19.1296
19.896
19.1455
19.7124
20.1891
20.9037
22.0167
23.6226
25.7549
28.4071
31.5776
35.2765
39.487
44.1461
49.148
54.3325
59.4509
64.2044
68.3018
71.5223
73.7923
75.2134
75.9622
76.1893
76.0387
75.6607
75.1954
74.7517
74.3964
74.1779
13.1773
18.2828
20.294
15.188
15.7376
16.4727
17.6755
19.448
21.7789
24.6161
27.9482
31.8006
36.1577
40.9488
46.0682
51.3553
56.5471
61.3311
65.4118
68.572
70.7558
72.0963
72.7876
72.9757
72.7989
72.4051
71.9318
71.4856
71.1304
70.9128
8.44218
8.14948
9.17051
10.2369
10.9086
11.7056
13.0692
15.1053
17.7126
20.7728
24.2821
28.3065
32.8288
37.7667
43.0179
48.4232
53.6986
58.5158
62.5755
65.6645
67.7476
68.9958
69.6229
69.7673
69.5612
69.1497
68.6676
68.2186
67.8634
67.6469
5.02625
4.22479
4.81176
5.31832
5.70081
6.48695
8.12513
10.589
13.579
16.8946
20.5836
24.7987
29.5041
34.6018
39.9988
45.5392
50.9086
55.7611
59.7945
62.8003
64.767
65.911
66.4675
66.5638
66.3255
65.8944
65.4026
64.9507
64.5957
64.3805
2.50031
1.50192
0.809634
0.221446
-0.0593804
0.571402
2.74215
5.91812
9.42432
13.0061
16.8528
21.2826
26.1871
31.4556
37.012
42.7071
48.181
53.0698
57.0711
59.9803
61.8133
62.8409
63.3211
63.3652
63.0916
62.6391
62.1369
61.6819
61.3272
61.1135
-1.44693
-2.2964
-3.38791
-5.22621
-6.84992
-6.77197
-3.17552
1.17176
5.32697
9.132
13.0777
17.7658
22.879
28.3275
34.0578
39.9316
45.5197
50.4448
54.4071
57.2051
58.8854
59.7842
60.1829
60.1708
59.8591
59.3837
58.8703
58.412
58.0578
57.846
0.023436
0.0238476
0.0195618
0.0301637
0.0279582
-2.53333
-9.86291
-3.54369
1.45316
5.25307
9.23243
14.26
19.5751
25.2138
31.1344
37.2189
42.9298
47.8896
51.8051
54.4757
55.9821
56.7395
57.0526
56.9806
56.6281
56.128
55.6028
55.1412
54.7878
54.5781
0.0213056
0.0187016
0.0169159
0.0200703
0.0268371
0.0301434
0.0310201
-0.137202
-0.538933
1.09694
5.35201
10.7733
16.2512
22.1006
28.2412
34.5768
40.4162
45.4074
49.2678
51.793
53.1017
53.7052
53.9295
53.7941
53.3982
52.872
52.3343
51.8693
51.517
51.3098
0.0138931
0.0117603
0.0106594
0.0117716
0.0158075
0.0172207
0.0145115
-0.00327058
-0.0485596
-6.79651
1.73931
7.26082
12.8161
18.9313
25.3496
32.0164
37.9842
43.0017
46.7978
49.1581
50.2421
50.6792
50.8132
50.6107
50.169
49.6154
49.0647
48.5964
48.2454
48.0412
0.00783271
0.0048327
0.00421792
0.00459058
0.0115938
0.00583228
-9.97125e-05
-0.0154657
-0.0393202
-0.0152863
-5.02932
3.47763
8.80272
15.4536
22.3048
29.5511
35.6391
40.6758
44.3985
46.5721
47.4008
47.6595
47.7031
47.4303
46.9405
46.358
45.794
45.3225
44.9731
44.7724
0.00023034
-0.00159254
-0.00280513
-0.00303781
-0.00349648
-0.00835581
-0.020268
-0.0361577
-0.0500044
-0.096006
-0.216501
1.01738
1.61238
11.3505
19.6056
27.1938
33.3853
38.4328
42.0731
44.0366
44.5743
44.6435
44.599
44.2523
43.7123
43.0998
42.522
42.0474
41.6999
41.5035
-0.00759891
-0.00902343
-0.0106336
-0.0120874
-0.0155954
-0.0243206
-0.0413495
-0.0590637
-0.0736168
-0.140033
-0.21226
0.220241
-8.1183
7.17574
17.3154
24.9593
31.2258
36.2755
39.8255
41.5531
41.7582
41.6284
41.5006
41.0761
40.484
39.8403
39.2485
38.7711
38.426
38.2347
-0.0150854
-0.0164951
-0.0184132
-0.0212041
-0.0263849
-0.037671
-0.0566536
-0.0757776
-0.094298
-0.139592
-0.163274
-0.139058
-17.9364
7.89023
15.0653
22.8689
29.161
34.2059
37.6598
39.1241
38.9471
38.6115
38.408
37.9013
37.2554
36.5797
35.9738
35.4937
35.1515
34.9661
-0.0221614
-0.023587
-0.0256669
-0.0289046
-0.0348264
-0.0463623
-0.0646402
-0.0838421
-0.0842565
-0.133207
-0.150722
-0.183772
-0.180284
4.26321
12.8557
20.931
27.1877
32.2259
35.5806
36.7521
36.1335
35.5893
35.3214
34.7274
34.0262
33.3175
32.6974
32.2151
31.8761
31.698
-0.0287995
-0.0301814
-0.0322538
-0.0355449
-0.0406225
-0.0515317
-0.0676567
-0.0851119
-0.100651
-0.127967
-0.143032
-0.16868
-0.174816
-24.8849
11.0846
19.1219
25.299
30.3362
33.5929
34.4408
33.3079
32.5584
32.2415
31.5535
30.796
30.0535
29.4194
28.9352
28.6
28.4305
-0.0349383
-0.0362805
-0.0383034
-0.0414621
-0.0466996
-0.0556702
-0.0687807
-0.0844672
-0.100895
-0.120279
-0.134961
-0.149823
-0.131413
-0.411127
9.5833
17.3999
23.4844
28.5371
31.7025
32.1952
30.4577
29.5157
29.1692
28.3792
27.5645
26.7875
26.1396
25.6541
25.3232
25.164
-0.0407688
-0.0420555
-0.0440192
-0.047038
-0.0518265
-0.0594268
-0.0704685
-0.0841845
-0.0991075
-0.114592
-0.127058
-0.134183
-0.11425
-0.201371
11.2839
15.6804
21.732
26.828
29.9157
30.0221
27.5661
26.4583
26.106
25.2035
24.3311
23.5192
22.8577
22.3717
22.0456
21.8987
-0.0464999
-0.0477077
-0.0495862
-0.0524524
-0.0568383
-0.0634598
-0.0728319
-0.0846098
-0.0976334
-0.11049
-0.120287
-0.122638
-0.105095
-0.0887929
14.6111
13.8024
20.0322
25.2072
28.2395
27.9309
24.6107
23.3848
23.0538
22.0257
21.0956
20.2483
19.5736
19.0878
18.7672
18.6351
-0.0522181
-0.0533306
-0.0550981
-0.0577872
-0.0618019
-0.0676466
-0.0757076
-0.0858097
-0.0969722
-0.10767
-0.115159
-0.114588
-0.097305
-0.0646138
-24.4821
11.79
18.3828
23.6713
26.6813
25.9353
21.5628
20.2961
20.0149
18.8455
17.8576
16.9745
16.287
15.8028
15.488
15.3737
-0.0579425
-0.0589481
-0.0605814
-0.0630693
-0.0667252
-0.0719112
-0.0788981
-0.0875793
-0.0971516
-0.106021
-0.111834
-0.109427
-0.0913917
-0.0426042
-2.29815
9.66338
16.7945
22.2136
25.2489
24.0549
18.3866
17.1978
16.9917
15.6625
14.6164
13.6974
12.9973
12.5164
12.2081
12.1149
-0.0636631
-0.0645552
-0.0660393
-0.0683109
-0.0716183
-0.0762299
-0.0823326
-0.0898292
-0.0980823
-0.105577
-0.110061
-0.106998
-0.0888953
-0.0358229
0.142351
6.18304
15.2951
20.8217
23.9501
22.3182
15.0397
14.1044
13.9862
12.4773
11.3714
10.4165
9.70346
9.22867
8.9272
8.8593
-0.0693629
-0.07014
-0.0714696
-0.0735219
-0.0764998
-0.0806102
-0.0859872
-0.0925318
-0.0997178
-0.106269
-0.109879
-0.10706
-0.0906028
-0.0428873
0.133262
2.19438
13.9221
19.4749
22.7919
20.7674
11.4454
11.0467
10.9988
9.2922
8.12197
7.13093
6.40394
5.9397
5.64533
5.60757
-0.0750255
-0.0756911
-0.0768698
-0.0787109
-0.0813887
-0.0850701
-0.0898572
-0.0956625
-0.10204
-0.107953
-0.111352
-0.109249
-0.0962682
-0.0626254
-0.037664
7.67212
12.6854
18.1387
21.7799
19.4652
7.45256
8.07272
8.02621
6.11235
4.86799
3.83936
3.09602
2.64968
2.36248
2.361
-0.101349
-0.0830323
-0.0332731
0.309743
0.92863
1.92759
3.28499
4.38256
7.12836
-0.186086
15.0539
20.9261
17.763
13.3085
7.78115
0.0245141
-0.217915
-0.170713
-0.143455
-0.126229
-0.113685
-0.104281
-0.0969036
-0.0911252
-0.0867615
-0.0836319
-0.0815305
-0.0802525
-0.0796116
-0.0794486
-0.103419
-0.0980457
-0.0953693
-0.0920021
-0.0861771
0.232628
1.66817
2.71644
6.16139
-3.26169
14.3364
20.614
17.0189
12.6624
1.28262
-0.219145
-0.211637
-0.173645
-0.147216
-0.129508
-0.116822
-0.107394
-0.100005
-0.0942524
-0.0899215
-0.0868114
-0.0847094
-0.0834104
-0.0827332
-0.0825249
-0.104918
-0.0998948
-0.097223
-0.0938258
-0.087826
-0.0764211
-0.0484415
0.890405
5.32628
-6.87348
13.7086
20.3567
16.1688
11.9777
-15.7775
-0.382427
-0.208194
-0.176221
-0.150831
-0.132903
-0.120173
-0.110686
-0.103288
-0.0975694
-0.0932766
-0.0901898
-0.0880897
-0.086773
-0.0860625
-0.0858115
-0.106613
-0.101895
-0.0992352
-0.0958002
-0.0898436
-0.0783081
-0.0427773
-0.663847
4.7518
-11.1422
13.2558
20.1786
15.1723
11.2065
-20.2559
-0.252966
-0.20705
-0.178708
-0.154323
-0.136418
-0.123691
-0.114153
-0.106764
-0.101089
-0.0968398
-0.0937803
-0.0916856
-0.0903534
-0.0896129
-0.0893205
-0.108481
-0.104061
-0.101416
-0.0979475
-0.0920679
-0.0804403
-0.0448962
-0.0742305
1.71912
-15.875
13.0832
20.1082
13.9618
10.2034
-4.71278
-0.201833
-0.207562
-0.181256
-0.15768
-0.140047
-0.127361
-0.117808
-0.110452
-0.104833
-0.100634
-0.0976071
-0.0955213
-0.0941769
-0.0934086
-0.0930763
-0.110543
-0.106404
-0.103775
-0.100293
-0.0944838
-0.0828639
-0.0481055
-0.0527666
1.26762
-24.0771
13.2032
20.1739
12.4309
8.73531
-1.43204
-0.254359
-0.209403
-0.183877
-0.160977
-0.143771
-0.131176
-0.121661
-0.114368
-0.108818
-0.104678
-0.101688
-0.0996139
-0.098262
-0.0974679
-0.0970988
-0.112824
-0.10894
-0.10633
-0.102858
-0.0971312
-0.0856513
-0.0526346
-0.0633892
-0.132789
-1.3438
13.0608
20.3886
10.4049
6.23341
-0.181885
-0.21275
-0.211856
-0.186614
-0.164314
-0.147577
-0.135144
-0.125726
-0.118527
-0.113065
-0.108994
-0.106044
-0.103987
-0.102632
-0.101816
-0.101413
-0.115348
-0.111684
-0.1091
-0.105657
-0.100031
-0.0888625
-0.0589145
-0.0467969
-0.197692
-0.637086
10.1632
20.7385
7.62063
2.58031
-0.305736
-0.247521
-0.21635
-0.189497
-0.16773
-0.151468
-0.139277
-0.130019
-0.122952
-0.117595
-0.113604
-0.110704
-0.108668
-0.107314
-0.106481
-0.106048
-0.118138
-0.114657
-0.112106
-0.108712
-0.103222
-0.0925438
-0.0671953
-0.078353
-0.258519
-0.481577
20.7918
21.1788
3.81441
-17.9723
-0.142018
-0.27002
-0.221497
-0.192531
-0.171206
-0.155453
-0.143594
-0.134564
-0.127668
-0.122442
-0.118541
-0.115699
-0.113692
-0.11234
-0.111495
-0.111034
-0.121212
-0.117875
-0.115364
-0.11204
-0.106738
-0.0967425
-0.0765531
-0.175258
-0.290012
-0.350666
12.5364
20.8554
-0.516442
-8.37492
-0.0785843
-0.273097
-0.226219
-0.195547
-0.174688
-0.159538
-0.148116
-0.139388
-0.132708
-0.127636
-0.123841
-0.121063
-0.11909
-0.117746
-0.116891
-0.116406
-0.124592
-0.121361
-0.118898
-0.115664
-0.110601
-0.101504
-0.0874139
-0.203221
-0.334451
-0.274233
10.6406
13.1478
-1.80678
0.265618
-0.329525
-0.287259
-0.229857
-0.198178
-0.178093
-0.163736
-0.15288
-0.144535
-0.138118
-0.133226
-0.129549
-0.126845
-0.124909
-0.123576
-0.122713
-0.122207
-0.128295
-0.125137
-0.122735
-0.119614
-0.114849
-0.106862
-0.0987863
-0.220662
-0.368429
-0.243161
-8.82233
13.1954
2.77743
0.129024
-0.610188
-0.307884
-0.230936
-0.199906
-0.181325
-0.168073
-0.157944
-0.150068
-0.14396
-0.139272
-0.135726
-0.133101
-0.131203
-0.129882
-0.129012
-0.128486
-0.132342
-0.129228
-0.126901
-0.123921
-0.119525
-0.112839
-0.110193
-0.250846
-0.36526
-0.235391
-23.9743
6.80433
-13.5984
-0.742001
-0.772418
-0.312655
-0.226965
-0.200184
-0.184335
-0.172631
-0.163409
-0.156088
-0.150327
-0.145857
-0.142446
-0.139897
-0.138036
-0.136725
-0.135845
-0.135298
-0.136757
-0.133661
-0.131423
-0.128615
-0.124666
-0.11944
-0.121452
-0.22565
-0.310065
-0.227544
-9.34806
16.6543
-5.68589
-0.871247
-0.682339
-0.278519
-0.215786
-0.198833
-0.18729
-0.17763
-0.169481
-0.162761
-0.157356
-0.153097
-0.149809
-0.147324
-0.14549
-0.144179
-0.143282
-0.142709
-0.141563
-0.138466
-0.136329
-0.133724
-0.130296
-0.12664
-0.132493
-0.213063
-0.296525
-0.230817
22.2219
26.6685
14.253
-0.570479
-0.359934
-0.208587
-0.198896
-0.19677
-0.190848
-0.183555
-0.176506
-0.170342
-0.165235
-0.16114
-0.157935
-0.155482
-0.15365
-0.15232
-0.151391
-0.150778
-0.14679
-0.143676
-0.141652
-0.139279
-0.136442
-0.134394
-0.143224
-0.20614
-0.260198
-0.232033
28.5769
30.8157
27.9278
-0.226714
-0.0319386
-0.14312
-0.184102
-0.196954
-0.196551
-0.191316
-0.185059
-0.179209
-0.174224
-0.170167
-0.166959
-0.164478
-0.162603
-0.16122
-0.160233
-0.159562
-0.152468
-0.149327
-0.147427
-0.145312
-0.143116
-0.142644
-0.153592
-0.203087
-0.240936
-0.231899
6.01691
24.06
30.6708
-0.113381
-0.0384387
-0.129348
-0.185878
-0.205342
-0.207201
-0.202377
-0.195958
-0.18984
-0.184615
-0.180366
-0.177002
-0.174393
-0.172404
-0.170918
-0.169835
-0.169075
-0.158632
-0.155453
-0.153693
-0.151862
-0.15033
-0.151321
-0.163566
-0.203284
-0.233417
-0.239645
-0.0833888
26.3101
5.18854
-0.212774
-0.165183
-0.198303
-0.225705
-0.231377
-0.226898
-0.218657
-0.210137
-0.202697
-0.19663
-0.191831
-0.188094
-0.185217
-0.183021
-0.181367
-0.180143
-0.179258
-0.16532
-0.162093
-0.160488
-0.158963
-0.158103
-0.160365
-0.173151
-0.205498
-0.231822
-0.25426
-0.356352
-0.218143
-0.623434
-0.309442
-0.325368
-0.363594
-0.332393
-0.287564
-0.259978
-0.241791
-0.228152
-0.217883
-0.210185
-0.204402
-0.200041
-0.196744
-0.194247
-0.192363
-0.190953
-0.189911
-0.172573
-0.169291
-0.167853
-0.166651
-0.16644
-0.169728
-0.182412
-0.20897
-0.232644
-0.262222
-0.339914
-0.258152
-0.332066
-0.359167
-0.531557
-0.663597
-0.53784
-0.387935
-0.308297
-0.271275
-0.249134
-0.234535
-0.224507
-0.217403
-0.212248
-0.208442
-0.205599
-0.203461
-0.201851
-0.200642
-0.180432
-0.177093
-0.175832
-0.174958
-0.175343
-0.179372
-0.19145
-0.213227
-0.233945
-0.258959
-0.298284
-0.238558
-0.200472
-0.393503
-0.808786
-1.09245
-0.813721
-0.520842
-0.364564
-0.301491
-0.26936
-0.250118
-0.237767
-0.229433
-0.223591
-0.219376
-0.21627
-0.213946
-0.212191
-0.210857
-0.188947
-0.185546
-0.184471
-0.183914
-0.18481
-0.189283
-0.20038
-0.218075
-0.235157
-0.251551
-0.259646
-0.208726
-0.151361
-0.410054
-1.00351
-1.37587
-1.01181
-0.607887
-0.400852
-0.319779
-0.281948
-0.260465
-0.247212
-0.238534
-0.232584
-0.22836
-0.225279
-0.222986
-0.221249
-0.21992
-0.198171
-0.194704
-0.193815
-0.193552
-0.194849
-0.199475
-0.209333
-0.223474
-0.23662
-0.24552
-0.239942
-0.199033
-0.151825
-0.334819
-0.899025
-1.24407
-0.91156
-0.563323
-0.383731
-0.313281
-0.280323
-0.261781
-0.250432
-0.243057
-0.238035
-0.234493
-0.231925
-0.230022
-0.228589
-0.227495
-0.208159
-0.204621
-0.203914
-0.203905
-0.205471
-0.209986
-0.218456
-0.229492
-0.238978
-0.242921
-0.234208
-0.205601
-0.165235
-0.208872
-0.589619
-0.740659
-0.568338
-0.411483
-0.320455
-0.283463
-0.265002
-0.254281
-0.247557
-0.243118
-0.240077
-0.23794
-0.236409
-0.235302
-0.234497
-0.233914
-0.218975
-0.215357
-0.214822
-0.215013
-0.216705
-0.220882
-0.227906
-0.236277
-0.242773
-0.244095
-0.236781
-0.220575
-0.205053
-0.249002
-0.432331
-0.373945
-0.287808
-0.268735
-0.254699
-0.24909
-0.245889
-0.243791
-0.24236
-0.241388
-0.240745
-0.240343
-0.240122
-0.24004
-0.240066
-0.240174
-0.230688
-0.226977
-0.226594
-0.226919
-0.228592
-0.232252
-0.237856
-0.243993
-0.248288
-0.248622
-0.244168
-0.23806
-0.242561
-0.30317
-0.385991
-0.259679
-0.204693
-0.212356
-0.222932
-0.230277
-0.235016
-0.238136
-0.240294
-0.241884
-0.243134
-0.244173
-0.245081
-0.245906
-0.246677
-0.24741
-0.243371
-0.239552
-0.239298
-0.239683
-0.241197
-0.244206
-0.248458
-0.252778
-0.255565
-0.255759
-0.253866
-0.253233
-0.260588
-0.28043
-0.279737
-0.239954
-0.21901
-0.219056
-0.225362
-0.231931
-0.237353
-0.241586
-0.24488
-0.247487
-0.249601
-0.251361
-0.252864
-0.254179
-0.255351
-0.256412
-0.257103
-0.253159
-0.253005
-0.253372
-0.254599
-0.256863
-0.25986
-0.262717
-0.264479
-0.264768
-0.264362
-0.265235
-0.268973
-0.272329
-0.266049
-0.252123
-0.242691
-0.240532
-0.242578
-0.246131
-0.24985
-0.253231
-0.256147
-0.258621
-0.260716
-0.2625
-0.264034
-0.265367
-0.266537
-0.267571
-0.271974
-0.267885
-0.267804
-0.268078
-0.268908
-0.27036
-0.272185
-0.273846
-0.274853
-0.275146
-0.27525
-0.275912
-0.277007
-0.276603
-0.272877
-0.267511
-0.263692
-0.262547
-0.263452
-0.265437
-0.267797
-0.270139
-0.272286
-0.274178
-0.275815
-0.27722
-0.278424
-0.279457
-0.280346
-0.281113
-0.288079
-0.283829
-0.283801
-0.283918
-0.284259
-0.284838
-0.285541
-0.286163
-0.286537
-0.286674
-0.286761
-0.286936
-0.287122
-0.286745
-0.285608
-0.284359
-0.283797
-0.284208
-0.285396
-0.287006
-0.288733
-0.290387
-0.291868
-0.293143
-0.294214
-0.2951
-0.295825
-0.296415
-0.296893
-0.297279
-0.079653
-0.0802264
-0.0812817
-0.082957
-0.0854069
-0.0887803
-0.0931654
-0.0984927
-0.104379
-0.109952
-0.113551
-0.112426
-0.103177
-0.0832062
-0.0928586
-24.3016
11.7815
17.0216
21.0662
18.6544
3.76664
5.74412
5.61139
3.53458
2.2154
1.15203
0.392389
0.0114582
-0.0572562
-0.0777926
-0.0826748
-0.0831808
-0.0841499
-0.0857126
-0.0880152
-0.0911967
-0.0953431
-0.100398
-0.106026
-0.111442
-0.115239
-0.114988
-0.108217
-0.0962469
-0.170428
-11.7346
11.266
16.2755
20.6612
18.2846
1.10936
4.30531
4.06938
1.89859
0.521796
-0.153825
-0.0903897
-0.0939716
-0.0968269
-0.0990285
-0.085908
-0.086347
-0.0872322
-0.0886838
-0.0908436
-0.0938425
-0.0977672
-0.102579
-0.107996
-0.113339
-0.117395
-0.11825
-0.114234
-0.109906
-0.266513
-6.09469
10.7539
15.4166
20.268
18.0411
-2.16494
2.79545
2.39918
0.146945
-0.0737312
-0.0863612
-0.0922383
-0.0958297
-0.0986832
-0.100984
-0.0893656
-0.089741
-0.0905427
-0.0918881
-0.09391
-0.0967372
-0.10046
-0.105062
-0.110319
-0.115674
-0.120116
-0.12223
-0.121243
-0.123572
-0.180963
-1.65737
10.2932
14.3988
19.896
17.9953
-6.31906
1.22581
0.19688
-0.0374297
-0.0756005
-0.0883443
-0.0942475
-0.0978477
-0.100693
-0.103064
-0.0930738
-0.0933887
-0.0941089
-0.0953518
-0.0972439
-0.0999121
-0.103456
-0.107884
-0.113039
-0.118488
-0.123449
-0.12696
-0.129156
-0.13698
-0.158051
-0.0274574
9.7203
13.1422
19.5551
18.2476
-11.8442
-1.38841
0.102211
-0.0394491
-0.0777323
-0.0905187
-0.0964289
-0.100036
-0.10287
-0.105276
-0.0970516
-0.097307
-0.097952
-0.0990977
-0.10087
-0.103395
-0.106784
-0.111079
-0.116191
-0.121817
-0.127419
-0.132454
-0.137804
-0.150663
-0.189038
-0.231792
9.21542
11.5095
19.2597
18.9477
-3.94177
0.0409346
0.118796
-0.043054
-0.0801727
-0.0929045
-0.0988047
-0.102405
-0.105225
-0.107643
-0.101322
-0.101522
-0.102097
-0.103154
-0.104817
-0.107218
-0.110481
-0.114685
-0.119812
-0.125699
-0.132046
-0.138702
-0.147083
-0.164166
-0.209008
-0.206787
6.69927
9.23503
19.0288
20.3306
-30.9604
-0.0686017
-0.0285264
-0.0484852
-0.0829959
-0.0955274
-0.101393
-0.104974
-0.107776
-0.11019
-0.105915
-0.106064
-0.106574
-0.107549
-0.109117
-0.111416
-0.114583
-0.118739
-0.123942
-0.130167
-0.137343
-0.14567
-0.156907
-0.177375
-0.220396
-0.0599857
-18.0051
5.71547
18.885
22.7617
-1.72923
-0.175027
-0.105635
-0.0559182
-0.0862622
-0.0984133
-0.104212
-0.10776
-0.110538
-0.112941
-0.110864
-0.110966
-0.111417
-0.112321
-0.113806
-0.116022
-0.119125
-0.123276
-0.128613
-0.135246
-0.143313
-0.153304
-0.167155
-0.190318
-0.233995
-0.326465
-4.90198
-0.718028
18.8449
24.6567
-0.10383
-0.232893
-0.165789
-0.0651195
-0.0900227
-0.101593
-0.107282
-0.110788
-0.113531
-0.115917
-0.116202
-0.116262
-0.116659
-0.117502
-0.11892
-0.12107
-0.124139
-0.128324
-0.133848
-0.140944
-0.149939
-0.161534
-0.177685
-0.202982
-0.248277
-0.317458
0.478562
-15.0822
18.6998
33.0306
-0.271974
-0.270427
-0.206637
-0.0747175
-0.0943297
-0.105099
-0.110625
-0.114069
-0.116774
-0.119136
-0.121974
-0.121994
-0.122344
-0.123133
-0.124496
-0.1266
-0.129657
-0.133913
-0.139666
-0.147271
-0.157206
-0.170302
-0.18837
-0.215287
-0.261527
-0.332054
-0.0956296
-56.6468
15.5038
31.6202
-0.259743
-0.301977
-0.238489
-0.0858293
-0.0992288
-0.108968
-0.114265
-0.117625
-0.120288
-0.122621
-0.128225
-0.128211
-0.128517
-0.129256
-0.130572
-0.132645
-0.135711
-0.140067
-0.146085
-0.15423
-0.165103
-0.17957
-0.199122
-0.226803
-0.273332
-0.386219
-0.0972294
-9.61749
11.5426
21.1751
-0.266931
-0.316495
-0.253797
-0.0991802
-0.10475
-0.113239
-0.118233
-0.121489
-0.124096
-0.126393
-0.135008
-0.134959
-0.135224
-0.135915
-0.137187
-0.139236
-0.142326
-0.146801
-0.153113
-0.16183
-0.173648
-0.189377
-0.209973
-0.237113
-0.280066
-0.410331
-0.501814
1.84142
7.45852
19.1794
-0.252321
-0.308198
-0.272438
-0.110534
-0.110915
-0.117947
-0.122558
-0.125687
-0.128222
-0.130474
-0.142385
-0.142296
-0.142515
-0.143158
-0.144383
-0.146408
-0.149526
-0.154137
-0.160772
-0.170113
-0.18294
-0.199944
-0.221289
-0.246403
-0.279792
-0.380838
-0.706452
-14.5741
18.3574
18.8513
-0.234708
-0.288809
-0.261751
-0.121649
-0.117728
-0.123131
-0.127273
-0.130246
-0.132694
-0.134892
-0.150411
-0.150272
-0.150435
-0.151018
-0.152188
-0.154181
-0.157327
-0.162085
-0.169092
-0.179167
-0.19322
-0.211821
-0.234132
-0.256365
-0.274391
-0.314398
-0.592133
-0.791723
28.5629
25.2079
-0.234955
-0.264446
-0.228735
-0.132778
-0.125156
-0.12882
-0.132411
-0.135195
-0.137538
-0.139674
-0.159134
-0.158928
-0.159015
-0.159521
-0.160618
-0.162562
-0.165728
-0.170652
-0.178109
-0.189146
-0.204945
-0.22613
-0.25085
-0.27152
-0.273714
-0.226511
-0.264263
38.4355
33.9979
27.3699
-0.220885
-0.24655
-0.213898
-0.143769
-0.133149
-0.135036
-0.138005
-0.140562
-0.142788
-0.144852
-0.168562
-0.168267
-0.168254
-0.168653
-0.169648
-0.171518
-0.174686
-0.179795
-0.187835
-0.200251
-0.218849
-0.244874
-0.275935
-0.300531
-0.297191
-0.238433
-0.191651
-0.543001
32.1912
22.9522
-0.21866
-0.236437
-0.208785
-0.154395
-0.141629