/*--------------------------------*- C++ -*----------------------------------*\
| =========                 |                                                 |
| \\      /  F ield         | OpenFOAM: The Open Source CFD Toolbox           |
|  \\    /   O peration     | Version:  2.4.0                                 |
|   \\  /    A nd           | Web:      www.OpenFOAM.org                      |
|    \\/     M anipulation  |                                                 |
\*---------------------------------------------------------------------------*/
FoamFile
{
    version     2.0;
    format      ascii;
    class       volScalarField;
    location    "0.038";
    object      p_rgh;
}
// * * * * * * * * * * * * * * * * * * * * * * * * * * * * * * * * * * * * * //

dimensions      [1 -1 -2 0 0 0 0];

internalField   nonuniform List<scalar> 
57600
(
98.1998
98.322
98.6076
98.9919
99.4126
99.7686
99.9274
99.74
99.0543
97.7174
95.5865
92.5915
88.7827
84.3492
79.5572
74.6867
69.978
65.6074
61.6862
58.2757
55.3954
53.0323
51.149
49.69
48.5923
47.7924
47.2323
46.8617
46.6387
46.5291
98.199
98.3791
98.6936
99.0941
99.5105
99.8328
99.9231
99.6313
98.8054
97.2929
94.962
91.7603
87.779
83.2294
78.3879
73.5294
68.8813
64.6019
60.7897
57.4951
54.7305
52.4775
50.6942
49.323
48.2994
47.5605
47.0491
46.717
46.5241
46.4375
98.1971
98.3779
98.6926
99.0937
99.5116
99.8369
99.9322
99.6477
98.8329
97.3356
95.0203
91.8308
87.8532
83.2984
78.4436
73.566
68.8959
64.591
60.7495
57.4231
54.6265
52.3442
50.5363
49.1461
48.109
47.3611
46.8441
46.509
46.3151
46.2289
98.1941
98.3758
98.6908
99.0927
99.5131
99.8433
99.9466
99.6742
98.8774
97.405
95.1164
91.9472
87.9762
83.4126
78.5353
73.6258
68.9188
64.5723
60.6836
57.306
54.4579
52.1277
50.2793
48.8581
47.7993
47.0371
46.5113
46.1716
45.9768
45.8924
98.19
98.3729
98.6881
99.0911
99.5149
99.852
99.9663
99.7106
98.9386
97.5009
95.2504
92.1101
88.149
83.573
78.6636
73.7088
68.9501
64.5464
60.5928
57.1442
54.2238
51.8258
49.9197
48.4543
47.3651
46.5833
46.0451
45.6988
45.5041
45.4261
98.1848
98.369
98.6846
99.089
99.5171
99.8628
99.9912
99.7567
99.0164
97.6233
95.4225
92.3202
88.3726
83.781
78.8297
73.8157
68.991
64.5149
60.4792
56.9391
53.9245
51.4368
49.4528
47.9279
46.7987
45.9918
45.4364
45.0782
44.8828
44.8231
98.1784
98.3643
98.6804
99.0863
99.5196
99.8757
100.021
99.8124
99.1102
97.7717
95.6328
92.5783
88.6482
84.038
79.035
73.9476
69.0423
64.4801
60.3454
56.693
53.5605
50.9583
48.8725
47.2687
46.0882
45.2511
44.6709
44.2815
44.061
44.0332
98.1709
98.3587
98.6752
99.083
99.5223
99.8906
100.056
99.8772
99.2196
97.9458
95.8815
92.8855
88.9776
84.3462
79.2813
74.1054
69.105
64.4445
60.1955
56.4091
53.1334
50.3887
48.1707
46.4616
45.2151
44.3452
43.7337
43.2613
42.8515
42.6815
98.1621
98.3523
98.6693
99.0791
99.5251
99.9074
100.096
99.9509
99.3441
98.1451
96.169
93.2429
89.3627
84.708
79.5708
74.2901
69.1797
64.4111
60.0347
56.092
52.6463
49.7275
47.3378
45.484
44.1487
43.2507
42.6277
42.0417
41.1964
40.9125
98.152
98.3449
98.6625
99.0744
99.5281
99.9259
100.14
100.033
99.4828
98.3688
96.4954
93.6519
89.8058
85.1264
79.9065
74.5026
69.266
64.3833
59.8706
55.7482
52.1041
48.9785
46.3642
44.3027
42.8349
41.9211
41.3773
40.893
40.2337
39.9876
98.1406
98.3366
98.6548
99.0691
99.531
99.9461
100.188
100.124
99.6351
98.6161
96.8611
94.1141
90.3095
85.605
80.2918
74.7434
69.3621
64.3643
59.7135
55.3858
51.5132
48.1532
45.2431
42.8714
41.1773
40.2458
39.9311
39.905
40.0504
40.2128
98.1278
98.3275
98.6463
99.0629
99.5338
99.9677
100.241
100.222
99.7998
98.8861
97.2663
94.6313
90.8767
86.1478
80.7311
75.0132
69.4634
64.3557
59.5781
55.0159
50.8765
47.2795
43.975
41.1303
39.0092
37.9819
38.0651
38.7848
39.6449
40.184
98.1135
98.3175
98.6368
99.0559
99.5364
99.9906
100.297
100.327
99.9761
99.1773
97.7113
95.2052
91.5104
86.7595
81.2303
75.3133
69.5606
64.3562
59.4844
54.656
50.1717
46.4253
42.5715
39.0348
36.1571
34.7061
35.1954
37.5323
38.9983
38.7848
98.0975
98.3066
98.6265
99.048
99.5387
100.015
100.357
100.439
100.163
99.4881
98.1963
95.8382
92.2141
87.4451
81.7963
75.6482
69.6379
64.3566
59.4537
54.3496
49.2567
45.8188
41.2359
37.1123
7.72074
0.569266
0.0779371
0.0745662
0.0708036
0.0743985
98.0799
98.2949
98.6152
99.0392
99.5405
100.039
100.42
100.558
100.358
99.8164
98.7215
96.5324
92.9912
88.2104
82.4382
76.0333
69.6707
64.3343
59.4849
54.2412
47.4209
46.7632
0.148288
0.092338
0.089019
0.0870181
0.0786175
0.0730377
0.0707498
0.0701294
98.0602
98.2824
98.603
99.0293
99.5417
100.065
100.486
100.682
100.561
100.16
99.2871
97.2905
93.8452
89.0612
83.1667
76.4753
69.6282
64.2318
59.4611
54.7979
41.6385
0.0287032
0.0665242
0.0801131
0.0806291
0.0814282
0.0826327
0.0695767
0.0670919
0.0657615
98.0385
98.269
98.5899
99.0183
99.5422
100.091
100.554
100.812
100.77
100.515
99.8932
98.1152
94.7798
90.0034
83.9946
77.0662
69.5114
63.7202
58.9026
57.0778
0.085072
0.0419748
0.0555372
0.0669569
0.0710148
0.0691926
0.0690434
0.0661171
0.0633943
0.0626188
98.0143
98.255
98.5758
99.0061
99.5418
100.117
100.625
100.947
100.984
100.878
100.54
99.0095
95.7981
91.0423
84.9376
77.737
69.3036
59.8305
56.8725
-0.0126646
-0.024368
0.033107
0.0382675
0.0477367
0.0573839
0.0612865
0.0623039
0.0614877
0.0594264
0.058205
97.9875
98.2402
98.5606
98.9926
99.5404
100.143
100.698
101.087
101.2
101.244
101.227
99.9769
96.9031
92.1822
86.0141
78.4834
69.093
53.5683
1.61487
-0.0204587
-0.0473171
0.0157188
0.0201674
0.0291682
0.0430033
0.0519335
0.0578241
0.0548394
0.0544505
0.0535922
97.9576
98.2248
98.5445
98.9778
99.5377
100.169
100.772
101.231
101.418
101.606
101.956
101.021
98.0971
93.4251
87.2373
79.3635
67.1972
61.4554
0.151056
-0.0258849
-0.0279697
0.00328504
0.00804744
0.0179662
0.0327151
0.0439427
0.0500221
0.0537844
0.0498339
0.0492698
97.9243
98.2088
98.5274
98.9616
99.5336
100.194
100.847
101.379
101.636
101.955
102.726
102.147
99.382
94.7708
88.6094
80.5276
68.3855
0.113002
0.0463189
-0.0100511
-0.0166315
0.0266765
0.00350165
0.014587
0.0279944
0.0386534
0.0439354
0.0452911
0.0458347
0.0454109
97.8869
98.1923
98.5093
98.9438
99.5279
100.219
100.923
101.531
101.854
102.28
103.538
103.36
100.758
96.2156
90.1269
82.0187
49.9964
0.0284364
0.0215044
-0.00447683
-0.0103419
-0.000917984
0.0076726
0.0158892
0.027122
0.0358275
0.0404771
0.0421815
0.0424855
0.0420247
97.8446
98.1754
98.4902
98.9244
99.5203
100.242
101
101.687
102.073
102.567
104.393
104.665
102.226
97.7524
91.7807
83.9784
-3.95188
-0.0313591
0.00457848
-0.00430811
-0.0064387
-0.000124728
0.00898104
0.0178018
0.0270036
0.0339124
0.0377421
0.0393075
0.0395682
0.0391192
97.7963
98.1582
98.47
98.9033
99.5106
100.263
101.077
101.846
102.295
102.794
105.294
106.071
103.784
99.3701
93.5545
85.0052
0.0104748
-0.0345906
-0.00650825
-0.00637376
-0.00465001
0.00188164
0.0102553
0.0187185
0.0264071
0.031981
0.0351824
0.0365896
0.0368757
0.0364931
97.7409
98.1408
98.4489
98.8805
99.4985
100.283
101.154
102.007
102.527
102.931
106.244
107.586
105.429
101.055
95.4127
88.4769
0.244834
-0.024033
-0.0137719
-0.00923244
-0.00447711
0.00260524
0.0106461
0.0184133
0.0250272
0.0297548
0.0325637
0.0338979
0.0342423
0.0339471
97.6766
98.1233
98.4268
98.8559
99.4833
100.3
101.232
102.169
102.781
102.936
107.249
109.223
107.156
102.791
97.2621
91.0415
0.153452
-0.0220402
-0.0195338
-0.0123761
-0.00542589
0.00232721
0.0101456
0.0172854
0.0231442
0.0273205
0.0298886
0.0311957
0.0316068
0.0314049
97.6015
98.1059
98.4038
98.8297
99.4644
100.315
101.312
102.327
103.076
102.741
108.318
110.994
108.957
104.567
98.9182
60.7858
-0.0222464
-0.0336395
-0.0253353
-0.0156565
-0.00702219
0.00134609
0.00899978
0.0156634
0.0209875
0.0247911
0.0271994
0.028495
0.0289674
0.0288541
97.5127
98.0886
98.38
98.8021
99.4408
100.326
101.395
102.477
103.447
102.246
109.468
112.916
110.82
106.378
100.154
8.21303
-0.142907
-0.0497921
-0.0313124
-0.0189718
-0.00894932
-0.000123532
0.0074256
0.0137457
0.0186935
0.0222371
0.0245302
0.0258165
0.0263412
0.0263086
97.4074
98.0717
98.3556
98.7737
99.4114
100.334
101.487
102.612
103.951
101.346
110.725
115.011
112.725
108.228
101.129
-0.398754
-0.153983
-0.0624626
-0.0368334
-0.0222296
-0.011045
-0.00189449
0.00559203
0.0116654
0.0163424
0.0196964
0.0219017
0.0231791
0.0237476
0.0237879
97.2965
98.0553
98.331
98.7454
99.3754
100.338
101.593
102.725
104.68
99.9241
112.138
117.304
114.641
110.126
104.007
0.328576
-0.138544
-0.0693148
-0.0414725
-0.0252164
-0.0131548
-0.00380268
0.00362222
0.00950706
0.0139826
0.0171916
0.0193269
0.0205973
0.0212029
0.0213087
46.5051
46.5544
46.696
46.9587
47.3784
47.999
48.8739
50.0638
51.6358
53.6531
56.1693
59.2179
62.8042
66.8972
71.4161
76.2266
81.1253
85.8601
90.155
93.7617
96.5229
98.4149
99.5326
100.027
100.057
99.7847
99.363
98.9188
98.5385
98.274
46.4317
46.5027
46.6729
46.9728
47.4406
48.1227
49.0754
50.3622
52.0506
54.2023
56.8651
60.0655
63.7988
68.022
72.6397
77.5029
82.3903
87.0412
91.1804
94.577
97.1063
98.7811
99.7195
100.076
100.011
99.6858
99.247
98.8124
98.4578
98.2367
46.2242
46.2966
46.4684
46.7704
47.2414
47.9293
48.8924
50.1958
51.9076
54.0881
56.7829
60.0159
63.7808
68.0325
72.6743
77.5576
82.4588
87.116
91.2532
94.6398
97.1536
98.8125
99.7384
100.087
100.016
99.6872
99.2466
98.8113
98.4566
98.2356
45.8907
45.9659
46.1398
46.444
46.919
47.6152
48.5943
49.9248
51.6751
53.9029
56.6494
59.9349
63.7504
68.0485
72.7312
77.6469
82.5718
87.2399
91.3734
94.7428
97.2306
98.8633
99.769
100.103
100.024
99.6892
99.2457
98.8094
98.4545
98.2338
45.4329
45.5136
45.6877
45.9914
46.4692
47.1746
48.1751
49.5443
51.3505
53.6459
56.4648
59.8229
63.7082
68.0705
72.8099
77.7718
82.7303
87.4136
91.5417
94.8863
97.3372
98.9333
99.8111
100.126
100.034
99.6917
99.2443
98.8066
98.4517
98.2313
44.8591
44.9511
45.1111
45.4062
45.8839
46.5974
47.625
49.0477
50.931
53.3169
56.2301
59.6813
63.6558
68.0999
72.9114
77.9336
82.9354
87.6382
91.7588
95.0708
97.4735
99.0221
99.8644
100.155
100.047
99.6948
99.2424
98.803
98.4479
98.228
44.1917
44.3246
44.3784
44.6693
45.148
45.8657
46.928
48.4252
50.4136
52.917
55.9473
59.5122
63.595
68.1383
73.0374
78.1337
83.1888
87.9151
92.0256
95.2965
97.6391
99.1295
99.9287
100.19
100.062
99.6983
99.2399
98.7986
98.4433
98.2241
43.1573
43.9375
43.187
43.7539
44.2307
44.9452
46.0582
47.6641
49.7964
52.4486
55.6191
59.318
63.5285
68.1876
73.1895
78.374
83.4924
88.2459
92.3433
95.5638
97.8338
99.2549
100.004
100.231
100.08
99.7022
99.2369
98.7932
98.4379
98.2194
40.4786
45.0458
47.0345
42.4893
43.0389
43.774
44.9769
46.7493
49.0803
51.9174
55.2496
59.102
63.459
68.2501
73.3695
78.6567
83.8484
88.6324
92.7131
95.8734
98.0572
99.3976
100.089
100.277
100.1
99.7065
99.2332
98.787
98.4317
98.2141
39.0034
38.7107
39.7317
40.7981
41.4698
42.2668
43.6304
45.6665
48.2738
51.334
54.8433
58.8677
63.39
68.3279
73.5791
78.9844
84.2598
89.077
93.1367
96.2257
98.3088
99.557
100.184
100.328
100.122
99.7109
99.2288
98.7798
98.4246
98.2081
38.8464
38.0459
38.6329
39.1394
39.5219
40.308
41.9462
44.4101
47.4
50.7157
54.4047
58.6198
63.3252
68.4229
73.8199
79.3603
84.7297
89.5822
93.6156
96.6214
98.5881
99.7321
100.289
100.385
100.147
99.7155
99.2237
98.7718
98.4168
98.2016
39.5812
38.5828
37.8906
37.3024
37.0215
37.6523
39.8231
42.999
46.5052
50.087
53.9337
58.3635
63.268
68.5366
74.0929
79.7881
85.2619
90.1507
94.152
97.0612
98.8943
99.9218
100.402
100.446
100.173
99.7201
99.2179
98.7628
98.4081
98.1945
38.8939
38.0445
36.9529
35.1146
33.4909
33.5689
37.1653
41.5126
45.6678
49.4729
53.4185
58.1066
63.2199
68.6683
74.3987
80.2725
85.8606
90.7856
94.7479
97.5459
99.2262
100.125
100.524
100.512
100.2
99.7245
99.2111
98.7528
98.3987
98.1868
0.0674715
0.0678588
0.0634455
0.0755856
0.0727239
2.32064
31.2572
40.057
45.0538
48.8538
52.8331
57.8607
63.1757
68.8145
74.735
80.8195
86.5305
91.4902
95.4058
98.0764
99.5827
100.34
100.653
100.581
100.229
99.7287
99.2035
98.7418
98.3885
98.1788
0.0683121
0.0657082
0.0639225
0.0671582
0.0738464
0.077161
0.0780785
-0.0901882
46.3212
47.9575
52.2125
57.6338
63.1117
68.9611
75.1017
81.4373
87.2767
92.2679
96.1283
98.6535
99.9622
100.566
100.79
100.655
100.259
99.7325
99.1948
98.7299
98.3775
98.1703
0.0641695
0.0620368
0.0609437
0.0620482
0.066087
0.0675476
0.0647881
0.0471722
0.00175333
38.1089
51.8597
57.3812
62.9365
69.0517
75.47
82.1368
88.1046
93.1221
96.9182
99.2785
100.363
100.8
100.934
100.731
100.289
99.7358
99.1851
98.7168
98.3658
98.1616
0.0617305
0.0583838
0.0577645
0.058137
0.0657606
0.0593789
0.0534468
0.0380807
0.0142271
0.0384816
42.2888
56.8579
62.1829
68.8338
75.685
82.9313
89.0193
94.0561
97.7787
99.9523
100.781
101.04
101.083
100.811
100.321
99.7383
99.1742
98.7027
98.3533
98.1527
0.0570472
0.055224
0.0540113
0.0537786
0.0534108
0.0484609
0.0365487
0.0206589
0.00685107
-0.0389766
-0.159276
57.6574
58.2525
67.9906
76.2457
83.8339
90.0254
95.0729
98.7132
100.677
101.214
101.284
101.239
100.892
100.352
99.7399
99.1621
98.6875
98.34
98.1436
0.0524876
0.0510629
0.0494528
0.0480465
0.0444916
0.0357663
0.0187373
0.00102323
-0.0134106
-0.079944
-0.152171
0.289177
51.7785
67.0758
77.2154
84.8594
91.1258
96.1755
99.7255
101.453
101.658
101.528
101.401
100.976
100.384
99.7404
99.1486
98.6711
98.3261
98.1347
0.0482709
0.0468612
0.0449433
0.0421529
0.0369721
0.0256864
0.00670328
-0.0124198
-0.030849
-0.0760716
-0.0996857
-0.0757009
-9.09309
71.0501
78.2252
86.0287
92.3208
97.3658
100.82
102.284
102.107
101.771
101.568
101.061
100.415
99.7395
99.1336
98.6535
98.3113
98.126
0.0444649
0.0430393
0.0409594
0.0377222
0.0318006
0.0202654
0.00198662
-0.0172017
-0.0130712
-0.0663764
-0.084096
-0.117146
-0.1138
70.6829
79.2754
87.3507
93.6074
98.6456
102
103.172
102.553
102.009
101.741
101.147
100.446
99.7372
99.1171
98.6348
98.2958
98.1177
0.0410968
0.0397149
0.0376425
0.0343516
0.0293953
0.0183856
0.00224014
-0.0152153
-0.0307545
-0.0579165
-0.0731358
-0.0987839
-0.104562
-2.04592
80.7642
88.8015
94.9786
100.016
103.272
104.12
102.987
102.238
101.921
101.233
100.476
99.7331
99.099
98.6148
98.2796
98.11
0.0382279
0.0368857
0.0348629
0.0317042
0.0264668
0.0174963
0.0043858
-0.0112363
-0.0277288
-0.0471128
-0.0617952
-0.0766571
-0.0582467
-0.33796
82.5227
90.3393
96.4238
101.477
104.642
105.135
103.397
102.455
102.109
101.319
100.504
99.7269
99.079
98.5935
98.2626
98.1034
0.0356674
0.0343807
0.032417
0.0293983
0.0246097
0.0170094
0.00596783
-0.00774824
-0.0226712
-0.0381553
-0.0506216
-0.0577469
-0.0378137
-0.124935
87.4832
91.8797
97.9313
103.027
106.115
106.221
103.765
102.658
102.305
101.403
100.53
99.7185
99.057
98.5709
98.2449
98.098
0.0332064
0.0319986
0.0301201
0.0272539
0.022868
0.0162465
0.00687443
-0.00490354
-0.0179271
-0.0307837
-0.0405808
-0.042932
-0.0253891
-0.0090866
93.6669
93.2616
99.4914
104.666
107.699
107.39
104.07
102.844
102.513
101.485
100.555
99.7075
99.0328
98.5471
98.2264
98.0943
0.0307582
0.0296457
0.0278782
0.0251891
0.0211744
0.0153296
0.00726868
-0.00283342
-0.0139959
-0.0246936
-0.0321827
-0.0316118
-0.0143287
0.0183633
16.567
94.5091
101.102
106.39
109.4
108.654
104.282
103.015
102.734
101.565
100.577
99.6935
99.006
98.5218
98.2071
98.0927
0.0283038
0.0272981
0.0256649
0.0231769
0.019521
0.0143351
0.00734813
-0.00133305
-0.0109054
-0.0197743
-0.0255883
-0.0231805
-0.00514551
0.0436464
2.06256
95.6422
102.773
108.192
111.228
110.034
104.366
103.177
102.971
101.641
100.595
99.6763
98.9761
98.4953
98.187
98.0938
0.0258531
0.024961
0.0234769
0.0212053
0.0178979
0.0132863
0.00718369
-0.000312989
-0.008566
-0.0160606
-0.0205446
-0.0174822
0.000620995
0.0536934
0.231868
95.4218
104.534
110.06
113.189
111.557
104.278
103.343
103.225
101.716
100.61
99.6552
98.9422
98.4674
98.1659
98.0981
0.0234234
0.0226463
0.0213167
0.0192644
0.0162865
0.0121761
0.00679905
0.00025443
-0.00693158
-0.0134831
-0.0170928
-0.014274
0.00218344
0.0498991
0.226055
94.6929
106.421
111.974
115.291
113.266
103.944
103.545
103.497
101.791
100.621
99.6296
98.9026
98.4383
98.144
98.1062
0.0210307
0.0203651
0.0191865
0.0173454
0.0146676
0.0109861
0.00619898
0.000393731
-0.00598348
-0.0118963
-0.0152957
-0.0131924
-0.000211997
0.033431
0.0584075
101.95
108.444
113.897
117.538
115.224
103.211
103.831
103.785
101.871
100.626
99.5978
98.8545
98.4081
98.1209
98.1195
-0.00221719
9.08052
60.8083
98.7227
99.3416
100.341
101.698
102.796
105.541
98.2269
113.467
119.339
116.176
111.722
106.194
0.123233
-0.119196
-0.0719943
-0.0447363
-0.0275101
-0.0149663
-0.00556233
0.00181544
0.0075938
0.0119575
0.0150871
0.0171885
0.0184665
0.0191074
0.0192704
-0.00255318
0.00237398
0.00505039
0.00841778
0.148989
100.341
101.776
102.825
106.27
96.8466
114.445
120.722
117.127
112.771
98.4341
-0.118726
-0.111217
-0.0732259
-0.046796
-0.029088
-0.0164024
-0.00697469
0.000414814
0.00616716
0.0104981
0.0136082
0.0157102
0.0170092
0.0176864
0.0178947
-0.00217251
0.00236711
0.00503889
0.00843614
0.014436
0.0258414
68.6613
102.835
107.271
95.0714
115.654
122.302
118.114
113.923
65.7498
-0.280159
-0.105932
-0.0739594
-0.0485687
-0.0306416
-0.0179108
-0.00842386
-0.00102604
0.0046925
0.00898529
0.0120721
0.0141722
0.0154889
0.0161994
0.0164504
-0.00183397
0.00235969
0.00501955
0.00845461
0.0144112
0.0259468
0.0614777
40.9755
108.683
92.7894
117.187
124.11
119.104
115.138
22.4269
-0.148699
-0.102795
-0.0744529
-0.0500684
-0.032163
-0.0194365
-0.00989786
-0.00250883
0.00316574
0.00741496
0.0104745
0.0125692
0.0139014
0.0146419
0.0149342
-0.00150039
0.00235306
0.00499815
0.00846648
0.0143461
0.0259737
0.0615179
0.0321848
44.9249
90.1351
119.167
126.192
120.046
116.287
5.36956
-0.0954164
-0.101148
-0.0748419
-0.0512657
-0.0336328
-0.0209465
-0.0113938
-0.00403839
0.00158056
0.00577963
0.00880692
0.0108926
0.0122371
0.0130054
0.0133376
-0.00117837
0.00234696
0.00497601
0.00845775
0.0142674
0.0258873
0.0606457
0.0559925
1.50074
8.80741
121.617
128.588
120.845
117.149
-0.917349
-0.145604
-0.100651
-0.0751253
-0.052226
-0.0350195
-0.0224246
-0.0129097
-0.00561667
-6.72906e-05
0.0040728
0.00706364
0.00913732
0.0104892
0.0112833
0.0116524
-0.000878217
0.00234142
0.00495091
0.00842326
0.0141501
0.02563
0.0586466
0.0527002
-0.0213819
-1.20027
123.997
131.325
121.341
117.17
-0.0706034
-0.101462
-0.100575
-0.0753326
-0.0530332
-0.0362961
-0.0238627
-0.0144444
-0.00724626
-0.00178331
0.00228744
0.00523728
0.00729429
0.0086493
0.00946525
0.00986837
-0.000608468
0.00233592
0.00492007
0.0083627
0.0139888
0.0251576
0.0551057
0.0673707
-0.083363
-0.519459
123.83
134.405
121.287
116.244
-0.19173
-0.133501
-0.10233
-0.0754771
-0.0537094
-0.0374481
-0.0252573
-0.0159984
-0.00893153
-0.00357497
0.000415767
0.00331631
0.00535175
0.00670659
0.00753905
0.00797262
-0.000373234
0.00232944
0.00488039
0.008274
0.0137642
0.0244425
0.049791
0.113556
-0.139613
-0.364283
137.415
137.802
120.438
73.5088
-0.0250367
-0.153034
-0.10451
-0.0755452
-0.0542195
-0.0384667
-0.0266082
-0.0175775
-0.0106822
-0.00545532
-0.00155527
0.00128732
0.00329426
0.00464581
0.0054916
0.00595173
-0.000173154
0.00232146
0.00483226
0.00815672
0.013459
0.023454
0.0436439
-0.0451631
-0.16634
-0.230441
132.36
140.679
119.307
8.4134
0.041611
-0.152901
-0.106023
-0.0753502
-0.054491
-0.0393415
-0.0279193
-0.0191916
-0.0125118
-0.0074399
-0.00364415
-0.000866726
0.00110675
0.00245024
0.00330599
0.00379086
-6.51336e-06
0.00231154
0.00477446
0.00800884
0.0130719
0.0221686
0.0362589
-0.0795463
-0.21077
-0.150519
133.93
136.427
121.483
0.441964
-0.205852
-0.163586
-0.106184
-0.0745053
-0.0544205
-0.0400631
-0.0292076
-0.0208619
-0.0144451
-0.00955369
-0.00587673
-0.00317266
-0.00123601
9.66338e-05
0.000960111
0.0014661
0.000129255
0.00229889
0.00470099
0.00782188
0.0125874
0.0205744
0.0286771
-0.0423292
-0.224951
-0.115714
100.628
140.229
129.819
0.268935
-0.482752
-0.180448
-0.103499
-0.0724696
-0.0538884
-0.0406366
-0.0305073
-0.0226313
-0.0165241
-0.0118355
-0.00828988
-0.00566448
-0.00376627
-0.00244557
-0.00157544
-0.00104988
0.000237538
0.00228224
0.00460908
0.00758893
0.0119846
0.0186706
0.0213167
-0.111509
-0.206302
-0.10388
77.5036
137.896
117.499
-0.605913
-0.640909
-0.181145
-0.0954551
-0.0686736
-0.0528249
-0.0411209
-0.0318993
-0.024578
-0.0188172
-0.0143466
-0.0109366
-0.00838699
-0.00652597
-0.00521474
-0.00433492
-0.00378788
0.000322184
0.00225986
0.00449841
0.00730632
0.0112552
0.0164807
0.0144693
-0.0769833
-0.172975
-0.0916146
110.141
152.147
129.812
-0.724977
-0.546418
-0.142598
-0.0798655
-0.0629116
-0.0513688
-0.0417093
-0.0335598
-0.0268398
-0.0214346
-0.0171765
-0.0138882
-0.0114029
-0.00956937
-0.0082577
-0.00736065
-0.00678779
0.000386612
0.00222971
0.00436739
0.00697188
0.0104
0.0140562
0.00820313
-0.0722398
-0.155781
-0.0901205
153.55
166.921
154.511
-0.428675
-0.219172
-0.0678909
-0.0581999
-0.0560744
-0.0501517
-0.0428585
-0.0358104
-0.029646
-0.0245389
-0.020444
-0.0172386
-0.0147858
-0.0129541
-0.0116237
-0.0106946
-0.0100823
0.000433528
0.00218945
0.00421404
0.00658708
0.00942374
0.0114714
0.00264231
-0.0602729
-0.114332
-0.0861665
159.046
176.229
173.34
-0.0401402
0.113927
0.00274743
-0.038236
-0.051088
-0.0506852
-0.0454499
-0.0391927
-0.0333428
-0.0283581
-0.0243015
-0.0210929
-0.0186124
-0.0167373
-0.015354
-0.0143668
-0.0136957
0.000464801
0.00213694
0.00403599
0.00615125
0.0083474
0.00881977
-0.00212861
-0.0516239
-0.0894726
-0.0804359
85.7998
174.974
179.415
0.038089
0.113218
0.025569
-0.0344146
-0.0538788
-0.0557371
-0.050914
-0.0444943
-0.0383767
-0.0331515
-0.0289022
-0.0255389
-0.02293
-0.0209403
-0.0194542
-0.0183718
-0.0176116
0.000481821
0.00207104
0.0038305
0.00566189
0.00719347
0.00620293
-0.00604218
-0.0457606
-0.0758932
-0.0821209
0.085279
183.333
57.2307
-0.0552504
-0.00372823
-0.0407791
-0.0681817
-0.0738537
-0.0693747
-0.0611334
-0.0526137
-0.0451735
-0.0391066
-0.0343079
-0.0305709
-0.0276935
-0.0254977
-0.0238435
-0.0226192
-0.0217349
0.000485979
0.00199105
0.00359635
0.00512088
0.00598144
0.00371877
-0.00906707
-0.0414141
-0.0677381
-0.0901756
-0.191328
-0.0540492
-0.459236
-0.143467
-0.161278
-0.199435
-0.168235
-0.12348
-0.0958942
-0.0777071
-0.0640681
-0.0537993
-0.0461012
-0.040318
-0.0359569
-0.0326595
-0.0301626
-0.0282789
-0.0268689
-0.0258274
0.00047909
0.00189569
0.00333377
0.00453563
0.00474647
0.00145896
-0.0112247
-0.0377832
-0.0614567
-0.0910348
-0.168519
-0.0866569
-0.159059
-0.187356
-0.360332
-0.492407
-0.366651
-0.216302
-0.13711
-0.100089
-0.0779467
-0.0633482
-0.0533204
-0.0462158
-0.0410608
-0.0372548
-0.034412
-0.0322743
-0.0306636
-0.0294548
0.000463152
0.00178394
0.00304403
0.00391881
0.00353385
-0.000495047
-0.0125733
-0.0343502
-0.0550684
-0.0800822
-0.119408
-0.0596809
-0.0204454
-0.206618
-0.62444
-0.896107
-0.634817
-0.341964
-0.185177
-0.122615
-0.0904834
-0.0712411
-0.0588902
-0.0505567
-0.0447143
-0.0404997
-0.0373932
-0.0350694
-0.0333142
-0.0319804
0.000439839
0.00165544
0.00273075
0.00328776
0.00239156
-0.00208142
-0.0131787
-0.0308734
-0.0479556
-0.0643492
-0.0724446
-0.0215247
0.053255
-0.222535
-0.796373
-1.18837
-0.816828
-0.420685
-0.213119
-0.132578
-0.0947467
-0.0732638
-0.060011
-0.0513324
-0.0453824
-0.0411588
-0.0380777
-0.0357843
-0.0340482
-0.0327192
0.000410277
0.00151067
0.00239967
0.00266288
0.00136598
-0.00326063
-0.0131181
-0.0272589
-0.0404055
-0.0493054
-0.043727
-0.00281784
0.0443898
-0.138524
-0.681488
-1.03016
-0.713148
-0.367107
-0.187185
-0.117066
-0.0841079
-0.0655665
-0.0542178
-0.046842
-0.0418199
-0.0382782
-0.0357102
-0.0338075
-0.032374
-0.0312799
0.000375084
0.00135122
0.00205789
0.00206704
0.000500783
-0.00401386
-0.0124836
-0.0235195
-0.033006
-0.0369483
-0.0282358
0.000371292
0.0407375
-0.00211634
-0.38358
-0.534679
-0.362344
-0.205509
-0.114482
-0.0774907
-0.0590297
-0.0483093
-0.0415849
-0.0371454
-0.0341047
-0.0319676
-0.0304369
-0.0293293
-0.028525
-0.0279422
0.00033443
0.00117917
0.0017145
0.00152352
-0.000168695
-0.00434539
-0.0113696
-0.0197404
-0.0262361
-0.0275586
-0.0202441
-0.00403806
0.0114838
-0.0319831
-0.215772
-0.154307
-0.0490044
-0.0521965
-0.0381627
-0.0325533
-0.0293527
-0.0272544
-0.0258235
-0.0248517
-0.0242086
-0.0238062
-0.0235853
-0.0235035
-0.023529
-0.0236373
0.000288223
0.000996404
0.00137912
0.00105377
-0.000619091
-0.00427909
-0.00988272
-0.0160199
-0.0203151
-0.020649
-0.0161953
-0.0100872
-0.014588
-0.0644463
-0.157954
-0.0278746
0.0233631
0.015617
0.00504095
-0.00230408
-0.00704263
-0.0101624
-0.0123204
-0.0139111
-0.0151609
-0.0161998
-0.0171075
-0.0179327
-0.0187044
-0.0194369
0.000236211
0.000804285
0.00105869
0.000673589
-0.000840364
-0.00384966
-0.00810197
-0.0124221
-0.0152088
-0.0154027
-0.0135093
-0.0128767
-0.0202318
-0.0400739
-0.0393806
0.000403144
0.0213459
0.0213004
0.0149947
0.00842524
0.00300332
-0.00122927
-0.00452409
-0.00713119
-0.00924481
-0.0110044
-0.0125081
-0.0138229
-0.0149952
-0.0160553
0.00017781
0.000603115
0.000756747
0.000390101
-0.000837357
-0.00310158
-0.00609837
-0.00895562
-0.0107172
-0.0110062
-0.0106
-0.0114736
-0.015211
-0.0185673
-0.0122871
0.0016388
0.0110705
0.0132291
0.0111834
0.00763046
0.00391142
0.000530996
-0.00238576
-0.0048594
-0.00695452
-0.00873832
-0.010272
-0.0116054
-0.0127751
-0.0138095
0.000111346
0.000390286
0.000470684
0.000197291
-0.00063309
-0.00208475
-0.00390997
-0.00557064
-0.0065784
-0.00687056
-0.0069745
-0.00763662
-0.00873223
-0.00832793
-0.00460238
0.000763844
0.00458273
0.00572821
0.0048235
0.00283807
0.000477987
-0.00186379
-0.0040107
-0.00590276
-0.00753967
-0.00894457
-0.010149
-0.0111815
-0.0120706
-0.0128382
3.31401e-05
0.000158664
0.000187134
6.9656e-05
-0.00027157
-0.000850064
-0.00155349
-0.00217556
-0.00254964
-0.00268677
-0.00277373
-0.00294781
-0.00313402
-0.00275767
-0.00161989
-0.00037085
0.000190463
-0.000220507
-0.00140831
-0.00301811
-0.00474574
-0.00639917
-0.00788074
-0.00915542
-0.0102266
-0.0111125
-0.0118377
-0.0124273
-0.012905
-0.0132916
0.019066
0.0184926
0.0174373
0.015762
0.0133121
0.00993875
0.00555364
0.000226269
-0.00566007
-0.0112328
-0.0148321
-0.0137072
-0.00445765
0.0155129
0.00586923
46.3602
110.194
115.435
119.479
117.067
102.18
104.157
104.024
101.948
100.628
99.565
98.8054
77.8366
21.1727
6.97927
0.0177448
0.0172388
0.0162697
0.014707
0.0124044
0.00922291
0.00507644
2.15109e-05
-0.00560633
-0.0110224
-0.0148196
-0.0145685
-0.0077971
0.00417272
-0.0699161
28.877
111.374
116.384
120.769
118.393
101.218
104.414
104.178
102.007
100.63
12.7709
0.0100306
0.00644811
0.00359269
0.00139114
0.0163539
0.0159149
0.0150297
0.0135781
0.0114183
0.00841937
0.0044947
-0.000317104
-0.00573416
-0.0110773
-0.0151335
-0.0159882
-0.0119721
-0.00764418
-0.16419
6.24603
112.699
117.361
122.213
119.986
99.7799
104.74
104.344
102.092
0.0285387
0.015901
0.0100237
0.00643216
0.00357872
0.00127771
0.0148892
0.0145138
0.0137121
0.0123667
0.0103448
0.00751759
0.00379486
-0.000807223
-0.00606431
-0.0114195
-0.0158615
-0.0179749
-0.0169882
-0.019317
-0.0766768
-0.590109
114.225
118.33
123.828
121.927
97.6125
105.157
104.019
0.0668254
0.0286544
0.0159105
0.0100073
0.00640707
0.00356192
0.00119054
0.0133402
0.0130253
0.012305
0.0110622
0.00917005
0.00650186
0.00295842
-0.00147008
-0.00662482
-0.012074
-0.0170351
-0.0205465
-0.0227422
-0.0305658
-0.0516372
0.0789565
115.804
119.226
125.639
124.332
94.2399
53.8407
0.208648
0.066965
0.0286817
0.0158953
0.00998505
0.00637799
0.00354444
0.0011382
0.0116996
0.0114442
0.0107992
0.00965348
0.0078813
0.00535606
0.00196679
-0.00232781
-0.00743958
-0.0130658
-0.0186673
-0.0237026
-0.0290525
-0.0419115
-0.0802866
-0.123042
117.629
119.924
127.674
127.362
103.401
0.155027
0.232975
0.0656973
0.0285785
0.0158467
0.0099465
0.00634585
0.00352609
0.00110861
0.00995912
0.0097589
0.00918438
0.00812709
0.00646449
0.00406287
0.000799779
-0.00340414
-0.00853101
-0.0144181
-0.0207648
-0.0274212
-0.0358019
-0.0528847
-0.0977271
-0.0955029
117.62
120.171
129.965
131.267
-11.4701
0.0432707
0.0828058
0.062796
0.0282853
0.0157538
0.00988812
0.00630753
0.00350563
0.00109132
0.00810527
0.00795587
0.0074466
0.00647066
0.00490329
0.00260457
-0.0005624
-0.00471926
-0.00992179
-0.0161472
-0.0233233
-0.03165
-0.0428864
-0.0633545
-0.106376
0.0540358
74.628
119.382
132.552
136.428
0.575903
-0.0607159
0.0724245
0.058102
0.0277579
0.0156069
0.00980857
0.00625996
0.00348199
0.00107946
0.0061222
0.00602039
0.00556936
0.00466538
0.00317982
0.000964432
-0.00213869
-0.00628996
-0.011627
-0.0182595
-0.0263269
-0.0363179
-0.0501689
-0.0733323
-0.117009
-0.209478
8.09099
115.906
135.468
141.28
0.0258985
-0.114894
-0.0479556
0.0518669
0.0269635
0.015393
0.0097042
0.00619868
0.00345474
0.00106946
0.00399414
0.00393472
0.00353784
0.00269415
0.00127659
-0.000873556
-0.0039421
-0.00812775
-0.0136514
-0.0207474
-0.0297426
-0.041338
-0.0574882
-0.0827851
-0.12808
-0.197262
0.598535
104.742
138.524
152.838
-0.145213
-0.149195
-0.063684
0.0454791
0.0258668
0.0150976
0.00957199
0.00612795
0.00342292
0.00106038
0.00169917
0.00167836
0.00132919
0.000539675
-0.000823145
-0.00292753
-0.00598423
-0.0102406
-0.0159935
-0.0235978
-0.0335328
-0.0466297
-0.0646976
-0.0916146
-0.137855
-0.208382
0.0281127
66.6386
138.793
154.909
-0.13494
-0.178296
-0.084499
0.0379266
0.0244439
0.0147046
0.00940767
0.00604805
0.00338493
0.00105175
-0.000788254
-0.000774626
-0.00108115
-0.00181992
-0.00313583
-0.00520918
-0.00827476
-0.0126307
-0.0186482
-0.0267935
-0.0376664
-0.0521338
-0.0716861
-0.0993667
-0.145896
-0.258783
0.0535556
117.424
138.573
148.216
-0.138856
-0.189036
-0.126032
0.0282561
0.0226864
0.0141976
0.00920347
0.00594746
0.00334009
0.00104355
-0.00349794
-0.00344927
-0.00371376
-0.00440547
-0.00567744
-0.0077262
-0.0108157
-0.0152913
-0.0216034
-0.0303199
-0.0421379
-0.0578672
-0.0784633
-0.105603
-0.148556
-0.278821
-0.331783
96.1958
138.526
150.282
-0.120765
-0.176474
-0.0868957
0.0209759
0.0205948
0.0135625
0.00895208
0.00582311
0.00328795
0.00103604
-0.00646394
-0.00637481
-0.00659409
-0.00723659
-0.00846198
-0.0104866
-0.0136055
-0.0182156
-0.0248513
-0.0341923
-0.0470193
-0.0640234
-0.0853681
-0.110482
-0.143871
-0.244917
-0.556787
89.315
153.857
154.351
-0.0987807
-0.152887
-0.125827
0.0142718
0.018193
0.0127895
0.00864759
0.00567517
0.00322733
0.00102898
-0.00971492
-0.00957634
-0.00973888
-0.0103216
-0.0114919
-0.0134854
-0.0166312
-0.0213893
-0.028396
-0.0384708
-0.0525237
-0.0711254
-0.0934357
-0.115669