/*--------------------------------*- C++ -*----------------------------------*\
| =========                 |                                                 |
| \\      /  F ield         | OpenFOAM: The Open Source CFD Toolbox           |
|  \\    /   O peration     | Version:  2.4.0                                 |
|   \\  /    A nd           | Web:      www.OpenFOAM.org                      |
|    \\/     M anipulation  |                                                 |
\*---------------------------------------------------------------------------*/
FoamFile
{
    version     2.0;
    format      ascii;
    class       surfaceScalarField;
    location    "0.136";
    object      phiAlpha;
}
// * * * * * * * * * * * * * * * * * * * * * * * * * * * * * * * * * * * * * //

dimensions      [0 3 -1 0 0 0 0];

internalField   nonuniform List<scalar> 
19800
(
2.62067e-80
-3.60301e-76
9.7059e-78
-5.31111e-74
1.46233e-76
1.60224e-76
-2.64824e-72
4.41541e-74
-1.0334e-69
6.20969e-72
-5.10396e-67
9.42096e-70
-2.16585e-64
2.86745e-67
-6.6658e-62
8.64549e-65
-1.49631e-59
2.02648e-62
-2.51193e-57
3.60605e-60
-3.24433e-55
4.91824e-58
-3.3212e-53
5.23879e-56
-2.78046e-51
4.45976e-54
-1.96094e-49
3.11454e-52
-1.18976e-47
1.82962e-50
-6.25336e-46
9.18954e-49
-2.82758e-44
3.9509e-47
-1.08289e-42
1.43192e-45
-3.46216e-41
4.24703e-44
-9.13804e-40
9.88795e-43
-1.88353e-38
1.67541e-41
-2.89823e-37
1.55117e-40
-3.38662e-36
-7.66641e-37
-2.98057e-35
-4.13103e-35
-2.00148e-34
-5.42597e-34
-1.02063e-33
-4.47251e-33
-4.04123e-33
-2.64228e-32
-1.24994e-32
-1.18942e-31
-2.22836e-32
-4.06001e-31
-2.4554e-32
-8.14383e-31
-1.75284e-32
-1.02956e-30
-8.2635e-33
-8.6145e-31
-2.5933e-33
-4.88019e-31
-5.41142e-34
-1.89598e-31
-7.45372e-35
-5.06939e-32
-6.69669e-36
-9.32326e-33
-3.94599e-37
-1.16699e-33
-1.47756e-38
-9.97464e-35
-3.20985e-40
-5.74028e-36
-4.04603e-42
-2.11116e-37
-2.36463e-44
-5.15341e-39
9.58019e-45
-9.1854e-41
4.97325e-46
-1.41552e-42
1.01515e-47
-1.75979e-44
1.42107e-49
-1.15006e-46
1.29658e-51
7.91793e-53
8.23192e-54
2.43031e-54
2.37159e-56
2.25228e-56
-1.25084e-56
3.23944e-57
7.17035e-56
-1.68353e-54
9.29439e-77
-4.43417e-72
-2.24416e-71
1.17453e-73
-8.63822e-68
9.11593e-71
-1.0567e-64
1.4592e-67
-6.13775e-62
1.09278e-64
-2.05405e-59
4.44421e-62
-4.46402e-57
1.11688e-59
-6.8134e-55
1.90334e-57
-7.7127e-53
2.34459e-55
-6.74271e-51
2.18476e-53
-4.69832e-49
1.59347e-51
-2.6753e-47
9.34264e-50
-1.26908e-45
4.49666e-48
-5.08485e-44
1.80476e-46
-1.73587e-42
6.10275e-45
-5.07098e-41
1.74702e-43
-1.2695e-39
4.23145e-42
-2.72644e-38
8.62302e-41
-5.03723e-37
1.46306e-39
-7.99642e-36
2.02909e-38
-1.06555e-34
2.19406e-37
-1.14835e-33
1.57842e-36
-9.9158e-33
2.44685e-36
-6.94769e-32
-2.12307e-32
-3.87301e-31
-2.81402e-31
-1.7195e-30
-2.13721e-30
-6.19875e-30
-1.16754e-29
-1.7715e-29
-4.9387e-29
-3.07529e-29
-1.58959e-28
-3.45012e-29
-3.10185e-28
-2.60888e-29
-3.93879e-28
-1.35208e-29
-3.41046e-28
-4.8398e-30
-2.05342e-28
-1.19649e-30
-8.70184e-29
-2.03856e-31
-2.60266e-29
-2.36993e-32
-5.50114e-30
-1.89154e-33
-8.09466e-31
-1.02742e-34
-8.26617e-32
-3.63602e-36
-5.79374e-33
-8.8294e-38
-2.68608e-34
-1.65666e-39
-8.48587e-36
-2.96666e-41
-2.09306e-37
-5.18318e-43
-4.68073e-39
-7.95533e-45
-8.40063e-41
-9.40979e-47
-7.47198e-43
-9.01798e-49
3.31457e-48
-6.99307e-51
9.86549e-50
-1.25471e-51
1.14003e-51
-2.69971e-50
2.40073e-52
5.33734e-51
-6.77549e-49
-6.51231e-69
-8.82895e-69
-4.54256e-65
3.38785e-68
-6.4725e-62
1.11168e-64
-3.72544e-59
1.01031e-61
-1.13962e-56
4.13279e-59
-2.16208e-54
9.54581e-57
-2.808e-52
1.42257e-54
-2.67044e-50
1.49181e-52
-1.95035e-48
1.16835e-50
-1.1324e-46
7.12674e-49
-5.36277e-45
3.4897e-47
-2.11202e-43
1.40232e-45
-7.01912e-42
4.69998e-44
-1.98982e-40
1.32914e-42
-4.84745e-39
3.19558e-41
-1.0196e-37
6.55619e-40
-1.8574e-36
1.1477e-38
-2.93967e-35
1.70759e-37
-4.05703e-34
2.14144e-36
-4.87805e-33
2.22489e-35
-5.02717e-32
1.82871e-34
-4.32358e-31
1.02543e-33
-3.08129e-30
1.39593e-33
-1.83044e-29
-3.5088e-30
-8.87048e-29
-4.12564e-29
-3.54249e-28
-2.81892e-28
-1.18125e-27
-1.4182e-27
-3.15039e-27
-5.62331e-27
-5.28119e-27
-1.70491e-26
-5.91819e-27
-3.21901e-26
-4.61218e-27
-4.07581e-26
-2.53364e-27
-3.62251e-26
-9.88079e-28
-2.29414e-26
-2.7338e-28
-1.04858e-26
-5.3658e-29
-3.46714e-27
-7.3672e-30
-8.30846e-28
-7.07827e-31
-1.41607e-28
-4.73623e-32
-1.69879e-29
-2.14837e-33
-1.4173e-30
-6.91253e-35
-8.02767e-32
-1.85374e-36
-3.17586e-33
-5.0302e-38
-1.02831e-34
-1.34629e-39
-3.14027e-36
-3.18226e-41
-7.335e-38
-6.42286e-43
-5.33677e-40
-1.07916e-44
4.29314e-44
-1.40831e-46
1.53658e-45
-8.76681e-47
2.74141e-47
-4.03188e-45
1.94169e-47
9.14417e-46
-1.35782e-43
-3.63436e-64
1.11198e-67
-1.30134e-60
1.99061e-63
-1.12775e-57
3.44446e-60
-4.26483e-55
1.97175e-57
-8.98051e-53
5.46497e-55
-1.20877e-50
8.89795e-53
-1.13785e-48
9.57781e-51
-7.97652e-47
7.37899e-49
-4.35736e-45
4.30395e-47
-1.91722e-43
1.97921e-45
-6.96074e-42
7.38933e-44
-2.12269e-40
2.28737e-42
-5.5089e-39
5.95859e-41
-1.22852e-37
1.31975e-39
-2.3706e-36
2.50169e-38
-3.97725e-35
4.07181e-37
-5.82255e-34
5.6902e-36
-7.46384e-33
6.80269e-35
-8.40683e-32
6.89981e-34
-8.31248e-31
5.82927e-33
-7.12013e-30
3.90675e-32
-5.17034e-29
1.7749e-31
-3.18816e-28
1.38923e-31
-1.66049e-27
-2.72125e-28
-7.20511e-27
-2.74961e-27
-2.64225e-26
-1.6938e-26
-8.23794e-26
-7.88632e-26
-2.06427e-25
-2.93448e-25
-3.33938e-25
-8.37165e-25
-3.72133e-25
-1.52439e-24
-2.96896e-25
-1.9162e-24
-1.71117e-25
-1.74006e-24
-7.18117e-26
-1.15133e-24
-2.19222e-26
-5.63555e-25
-4.87127e-27
-2.04563e-25
-7.74224e-28
-5.5155e-26
-8.74536e-29
-1.08101e-26
-6.9872e-30
-1.5093e-27
-3.89981e-31
-1.48024e-28
-1.59366e-32
-1.00423e-29
-5.76146e-34
-4.85747e-31
-2.24672e-35
-1.98457e-32
-8.78745e-37
-7.75713e-34
-3.24668e-38
-2.1264e-35
-1.12948e-39
4.60531e-40
-3.1215e-41
1.44162e-40
-4.95929e-43
6.75986e-42
-1.55872e-42
1.34829e-43
-5.32714e-41
4.6017e-43
1.56542e-41
-1.30974e-39
-1.55559e-60
1.03488e-63
-3.92395e-57
1.02112e-59
-2.51696e-54
1.20842e-56
-7.25407e-52
5.0985e-54
-1.18861e-49
1.08262e-51
-1.26372e-47
1.38217e-49
-9.5003e-46
1.18407e-47
-5.36447e-44
7.33391e-46
-2.37756e-42
3.46486e-44
-8.54269e-41
1.29863e-42
-2.54792e-39
3.9738e-41
-6.41751e-38
1.01344e-39
-1.38218e-36
2.18532e-38
-2.56893e-35
4.02319e-37
-4.148e-34
6.36223e-36
-5.847e-33
8.66809e-35
-7.22233e-32
1.01732e-33
-7.84598e-31
1.0248e-32
-7.52212e-30
8.78442e-32
-6.36223e-29
6.28355e-31
-4.6965e-28
3.56158e-30
-2.97151e-27
1.3473e-29
-1.62191e-26
3.24327e-30
-7.54857e-26
-1.17187e-26
-2.98536e-25
-1.02716e-25
-1.01708e-24
-5.76014e-25
-2.97907e-24
-2.49561e-24
-7.02268e-24
-8.71368e-24
-1.09466e-23
-2.33295e-23
-1.20954e-23
-4.08479e-23
-9.84488e-24
-5.07926e-23
-5.9182e-24
-4.69632e-23
-2.65451e-24
-3.22943e-23
-8.87553e-25
-1.68375e-23
-2.21332e-25
-6.67852e-24
-4.03472e-26
-2.01826e-24
-5.29276e-27
-4.53544e-25
-4.96725e-28
-7.35039e-26
-3.32911e-29
-8.43662e-27
-1.67941e-30
-6.78812e-28
-7.85154e-32
-3.9498e-29
-4.15788e-33
-1.97901e-30
-2.28024e-34
-9.43464e-32
-1.23307e-35
-2.64462e-33
-6.33606e-37
8.71912e-37
-2.11578e-38
1.37987e-37
-3.83204e-40
6.82768e-39
-3.16989e-39
1.45354e-40
-8.6827e-38
1.25302e-39
3.32393e-38
-1.7037e-36
-1.50315e-57
1.71635e-60
-3.02606e-54
1.18998e-56
-1.57798e-51
1.09333e-53
-3.7442e-49
3.70936e-51
-5.10203e-47
6.46866e-49
-4.54643e-45
6.8763e-47
-2.88158e-43
4.95027e-45
-1.37799e-41
2.59274e-43
-5.19093e-40
1.04035e-41
-1.59034e-38
3.3226e-40
-4.05656e-37
8.68777e-39
-8.76273e-36
1.89808e-37
-1.62283e-34
3.51454e-36
-2.5998e-33
5.56794e-35
-3.62639e-32
7.59151e-34
-4.42555e-31
8.93249e-33
-4.74299e-30
9.06801e-32
-4.48e-29
7.91213e-31
-3.74243e-28
5.88007e-30
-2.76627e-27
3.64669e-29
-1.79428e-26
1.78804e-28
-1.00628e-25
5.75757e-28
-4.92454e-25
-1.86869e-27
-2.0755e-24
-3.12761e-25
-7.56197e-24
-2.4278e-24
-2.40793e-23
-1.25164e-23
-6.62843e-23
-5.06459e-23
-1.46696e-22
-1.65632e-22
-2.19869e-22
-4.14735e-22
-2.40291e-22
-6.96474e-22
-1.99102e-22
-8.54034e-22
-1.24337e-22
-8.01651e-22
-5.93454e-23
-5.70309e-22
-2.16433e-23
-3.15354e-22
-6.03277e-24
-1.36236e-22
-1.25638e-24
-4.60986e-23
-1.9052e-25
-1.18818e-23
-2.0844e-26
-2.24126e-24
-1.65362e-27
-3.01621e-25
-1.00748e-28
-2.87053e-26
-5.88836e-30
-1.98787e-27
-4.04313e-31
-1.1926e-28
-2.94142e-32
-6.69014e-30
-2.18279e-33
-1.61179e-31
-1.40042e-34
3.28804e-34
-5.334e-36
4.74986e-35
-1.15491e-37
2.45709e-36
-1.57281e-36
5.94642e-38
-3.63853e-35
8.15598e-37
1.78413e-35
-6.0179e-34
-5.52935e-55
9.43548e-58
-9.46829e-52
5.21129e-54
-4.22771e-49
3.98418e-51
-8.63598e-47
1.14459e-48
-1.01793e-44
1.71004e-46
-7.87696e-43
1.57003e-44
-4.34814e-41
9.81654e-43
-1.81473e-39
4.48203e-41
-5.97542e-38
1.57151e-39
-1.60217e-36
4.39251e-38
-3.58074e-35
1.00627e-36
-6.78507e-34
1.92795e-35
-1.10353e-32
3.13327e-34
-1.55426e-31
4.36029e-33
-1.90807e-30
5.22572e-32
-2.05152e-29
5.40827e-31
-1.93901e-28
4.83179e-30
-1.61656e-27
3.71179e-29
-1.19298e-26
2.42895e-28
-7.80425e-26
1.32591e-27
-4.49934e-25
5.71426e-27
-2.25935e-24
1.60075e-26
-9.99203e-24
-8.85235e-26
-3.84761e-23
-5.58844e-24
-1.29965e-22
-3.92001e-23
-3.87571e-22
-1.87262e-22
-1.00007e-21
-7.0868e-22
-2.07049e-21
-2.16457e-21
-2.97794e-21
-5.05344e-21
-3.21254e-21
-8.12492e-21
-2.70574e-21
-9.80215e-21
-1.75014e-21
-9.314e-21
-8.86288e-22
-6.82689e-21
-3.51721e-22
-3.99132e-21
-1.09489e-22
-1.87247e-21
-2.60416e-23
-7.10627e-22
-4.56954e-24
-2.10613e-22
-5.82094e-25
-4.65562e-23
-5.42455e-26
-7.39668e-24
-3.9199e-27
-8.34663e-25
-2.76958e-28
-6.84355e-26
-2.36242e-29
-4.83043e-27
-2.16862e-30
-3.10858e-28
-2.02981e-31
-4.94719e-30
-1.55103e-32
5.199e-32
-6.68452e-34
7.69737e-33
-1.72989e-35
4.24083e-34
-2.81517e-34
1.1782e-35
-5.734e-33
1.87531e-34
3.53543e-33
-8.30951e-32
-1.04106e-52
2.44969e-55
-1.57149e-49
1.14909e-51
-6.19509e-47
7.61268e-49
-1.11937e-44
1.91187e-46
-1.16938e-42
2.5132e-44
-8.03294e-41
2.03966e-42
-3.94072e-39
1.13087e-40
-1.46247e-37
4.58758e-39
-4.2828e-36
1.43061e-37
-1.02129e-34
3.55767e-36
-2.02995e-33
7.25139e-35
-3.42103e-32
1.23594e-33
-4.94908e-31
1.78662e-32
-6.201e-30
2.21113e-31
-6.77327e-29
2.3563e-30
-6.48068e-28
2.16793e-29
-5.45163e-27
1.72154e-28
-4.04544e-26
1.17527e-27
-2.65777e-25
6.83337e-27
-1.54989e-24
3.3142e-26
-7.99651e-24
1.26997e-25
-3.61739e-23
3.16291e-25
-1.45341e-22
-1.42984e-24
-5.14224e-22
-7.0453e-23
-1.61516e-21
-4.54318e-22
-4.50597e-21
-2.02221e-21
-1.08527e-20
-7.15559e-21
-2.09455e-20
-2.03542e-20
-2.88702e-20
-4.42402e-20
-3.07067e-20
-6.80587e-20
-2.62564e-20
-8.06988e-20
-1.75505e-20
-7.73809e-20
-9.41563e-21
-5.81953e-20
-4.05742e-21
-3.59632e-20
-1.41295e-21
-1.82369e-20
-3.8444e-22
-7.80109e-21
-7.84405e-23
-2.66756e-21
-1.1675e-23
-6.97457e-22
-1.27393e-24
-1.32202e-22
-1.07625e-25
-1.77874e-23
-8.90543e-27
-1.72355e-24
-9.03426e-28
-1.40778e-25
-9.93453e-29
-1.02299e-26
-1.11646e-29
-6.32124e-29
-1.00107e-30
4.39047e-30
-5.02646e-32
7.02132e-31
-1.43375e-33
4.30298e-32
-2.28499e-32
1.27142e-33
-4.24704e-31
1.92782e-32
3.24816e-31
-5.56263e-30
-1.20696e-50
3.71999e-53
-1.63891e-47
1.53475e-49
-5.80873e-45
9.02661e-47
-9.4382e-43
2.02131e-44
-8.87048e-41
2.3774e-42
-5.48371e-39
1.73074e-40
-2.42082e-37
8.62146e-39
-8.08111e-36
3.1446e-37
-2.12709e-34
8.81709e-36
-4.5551e-33
1.9705e-34
-8.12386e-32
3.60656e-33
-1.22758e-30
5.51503e-32
-1.59138e-29
7.14644e-31
-1.78583e-28
7.92192e-30
-1.74615e-27
7.55547e-29
-1.49482e-26
6.21638e-28
-1.12449e-25
4.41098e-27
-7.45839e-25
2.6891e-26
-4.37889e-24
1.39578e-25
-2.28458e-23
6.04717e-25
-1.05863e-22
2.07688e-24
-4.32922e-22
4.69019e-24
-1.58494e-21
-1.15932e-23
-5.16736e-21
-6.48549e-22
-1.50961e-20
-3.90035e-21
-3.92741e-20
-1.62328e-20
-8.78938e-20
-5.36581e-20
-1.57787e-19
-1.41924e-19
-2.08393e-19
-2.87454e-19
-2.18599e-19
-4.23575e-19
-1.89534e-19
-4.93984e-19
-1.30651e-19
-4.76282e-19
-7.43472e-20
-3.659e-19
-3.46443e-20
-2.40305e-19
-1.35543e-20
-1.30477e-19
-4.22628e-21
-6.34335e-20
-1.00956e-21
-2.50917e-20
-1.76746e-22
-7.83384e-21
-2.25654e-23
-1.79324e-21
-2.20072e-24
-2.90379e-22
-2.05907e-25
-3.32488e-23
-2.37046e-26
-3.09689e-24
-2.98405e-27
-2.51936e-25
-3.90512e-28
1.33955e-29
-4.1385e-29
2.26487e-28
-2.52276e-30
4.07929e-29
-7.36818e-32
2.91093e-30
-9.69304e-31
8.4863e-32
-1.70224e-29
1.03087e-30
1.60411e-29
-2.0718e-28
-9.70651e-49
3.78486e-51
-1.19862e-45
1.40017e-47
-3.85921e-43
7.4154e-45
-5.69351e-41
1.49832e-42
-4.85713e-39
1.59306e-40
-2.72432e-37
1.04971e-38
-1.09037e-35
4.73567e-37
-3.29633e-34
1.56421e-35
-7.84693e-33
3.96909e-34
-1.5175e-31
8.01845e-33
-2.4406e-30
1.32483e-31
-3.32164e-29
1.82622e-30
-3.87422e-28
2.13037e-29
-3.90781e-27
2.1233e-28
-3.43108e-26
1.81853e-27
-2.63485e-25
1.34191e-26
-1.7763e-24
8.52916e-26
-1.05494e-23
4.65284e-25
-5.54368e-23
2.1603e-24
-2.59116e-22
8.38281e-24
-1.07963e-21
2.5934e-23
-3.99577e-21
5.3923e-23
-1.33383e-20
-2.6549e-23
-4.00801e-20
-4.45181e-21
-1.08679e-19
-2.52889e-20
-2.6257e-19
-9.86247e-20
-5.44026e-19
-3.04407e-19
-9.08404e-19
-7.49319e-19
-1.15148e-18
-1.41992e-18
-1.19413e-18
-2.00948e-18
-1.04842e-18
-2.31174e-18
-7.43743e-19
-2.23096e-18
-4.51952e-19
-1.74676e-18
-2.25504e-19
-1.23613e-18
-9.97686e-20
-7.05274e-19
-3.56524e-20
-3.93662e-19
-1.00345e-20
-1.80037e-19
-2.08289e-21
-6.76315e-20
-3.11963e-22
-1.89174e-20
-3.46942e-23
-3.74122e-21
-3.53465e-24
-5.10695e-22
-4.37563e-25
-5.38424e-23
-6.00929e-26
-4.85199e-24
-8.92791e-27
8.03157e-28
-1.14108e-27
7.7555e-27
-8.88331e-29
1.63205e-27
-2.75333e-30
1.41552e-28
-2.35571e-29
4.17734e-30
-4.05863e-28
3.17845e-29
4.71778e-28
-4.71662e-27
-5.8548e-47
2.82027e-49
-6.60737e-44
9.44795e-46
-1.94264e-41
4.54036e-43
-2.61552e-39
8.33315e-41
-2.03514e-37
8.05596e-39
-1.04033e-35
4.82928e-37
-3.79061e-34
1.98211e-35
-1.04172e-32
5.95295e-34
-2.25034e-31
1.37195e-32
-3.94175e-30
2.51355e-31
-5.73169e-29
3.75956e-30
-7.04137e-28
4.68299e-29
-7.40272e-27
4.92796e-28
-6.72173e-26
4.42348e-27
-5.30607e-25
3.40669e-26
-3.65879e-24
2.25682e-25
-2.21208e-23
1.28572e-24
-1.17691e-22
6.27829e-24
-5.53671e-22
2.60791e-23
-2.31816e-21
9.06775e-23
-8.68034e-21
2.53212e-22
-2.90527e-20
4.89214e-22
-8.82703e-20
8.68192e-23
-2.43869e-19
-2.30451e-20
-6.1136e-19
-1.25299e-19
-1.366e-18
-4.58779e-19
-2.61573e-18
-1.32344e-18
-4.073e-18
-3.04393e-18
-4.97297e-18
-5.4356e-18
-5.12511e-18
-7.40943e-18
-4.54791e-18
-8.45739e-18
-3.32137e-18
-8.10902e-18
-2.18715e-18
-6.55014e-18
-1.1447e-18
-5.08359e-18
-5.76568e-19
-2.9525e-18
-2.35161e-19
-1.90407e-18
-7.83018e-20
-1.00111e-18
-1.94171e-20
-4.54626e-19
-3.43915e-21
-1.56691e-19
-4.34261e-22
-3.85091e-20
-4.64641e-23
-6.41609e-21
-5.73798e-24
-7.7166e-22
-7.94961e-25
-7.63193e-23
-1.29207e-25
-2.10652e-25
-2.05647e-26
1.86819e-25
-2.19121e-27
4.71403e-26
-8.58058e-29
5.14537e-27
-3.46728e-28
1.78008e-28
-6.13068e-27
6.05551e-28
8.87723e-27
-7.00113e-26
-2.7866e-45
1.63152e-47
-2.87706e-42
4.96863e-44
-7.73806e-40
2.17402e-41
-9.52708e-38
3.63557e-39
-6.77524e-36
3.20443e-37
-3.16284e-34
1.75186e-35
-1.05116e-32
6.55582e-34
-2.63077e-31
1.79381e-32
-5.16572e-30
3.76161e-31
-8.20795e-29
6.25998e-30
-1.08045e-27
8.48838e-29
-1.19934e-26
9.56593e-28
-1.1374e-25
9.0892e-27
-9.30196e-25
7.35284e-26
-6.60384e-24
5.09379e-25
-4.08935e-23
3.02956e-24
-2.21718e-22
1.54647e-23
-1.05655e-21
6.75425e-23
-4.44771e-21
2.50701e-22
-1.66614e-20
7.79927e-22
-5.59375e-20
1.9635e-21
-1.68838e-19
3.53092e-21
-4.65183e-19
1.4479e-21
-1.17625e-18
-9.03851e-20
-2.71285e-18
-4.78342e-19
-5.58673e-18
-1.64899e-18
-9.89311e-18
-4.45796e-18
-1.44353e-17
-9.6449e-18
-1.70547e-17
-1.63663e-17
-1.76272e-17
-2.16884e-17
-1.57407e-17
-2.49367e-17
-1.20183e-17
-2.30882e-17
-8.72613e-18
-2.02751e-17
-4.62071e-18
-1.72653e-17
-2.65212e-18
-9.7896e-18
-1.22225e-18
-7.23132e-18
-4.82112e-19
-4.33185e-18
-1.43524e-19
-2.37921e-18
-3.0409e-20
-1.01177e-18
-4.40144e-21
-3.12696e-19
-4.79836e-22
-6.5283e-20
-5.25601e-23
-9.21174e-21
-5.94543e-24
-1.0044e-21
-9.17826e-25
-1.48984e-23
-2.05014e-25
3.32911e-24
-3.54377e-26
1.0168e-24
-2.27452e-27
1.43317e-25
-3.16692e-27
6.97078e-27
-6.10358e-26
7.44655e-27
1.12346e-25
-7.08703e-25
-1.07866e-43
7.59071e-46
-1.01788e-40
2.10262e-42
-2.50438e-38
8.38513e-40
-2.82086e-36
1.27911e-37
-1.83471e-34
1.02906e-35
-7.82781e-33
5.13614e-34
-2.37504e-31
1.75425e-32
-5.41816e-30
4.37746e-31
-9.67907e-29
8.36051e-30
-1.39615e-27
1.26497e-28
-1.66467e-26
1.55623e-27
-1.67023e-25
1.58763e-26
-1.42899e-24
1.36254e-25
-1.05254e-23
9.9345e-25
-6.71927e-23
6.18978e-24
-3.7357e-22
3.30365e-23
-1.81577e-21
1.50973e-22
-7.7461e-21
5.88903e-22
-2.91541e-20
1.9486e-21
-9.75498e-20
5.40475e-21
-2.92735e-19
1.22105e-20
-7.93195e-19
2.03282e-20
-1.97129e-18
1.20379e-20
-4.53556e-18
-2.68959e-19
-9.57511e-18
-1.42006e-18
-1.81336e-17
-4.62787e-18
-2.97634e-17
-1.17617e-17
-4.08677e-17
-2.40654e-17
-4.73097e-17
-3.87742e-17
-5.00469e-17
-5.62448e-17
-4.38547e-17
-6.85512e-17
-3.70517e-17
-5.1484e-17
-2.95716e-17
-5.31551e-17
-1.50722e-17
-4.78342e-17
-9.69769e-18
-2.60153e-17
-4.98274e-18
-2.12029e-17
-2.32449e-18
-1.44715e-17
-8.30396e-19
-9.57323e-18
-2.12038e-19
-4.98615e-18
-3.55882e-20
-1.94257e-18
-3.84144e-21
-5.19791e-19
-2.82338e-22
-9.01127e-20
3.03549e-23
-1.10557e-20
3.00718e-23
-3.46429e-22
1.77411e-24
4.54715e-23
-2.54976e-25
1.69695e-23
-4.227e-26
3.04114e-24
-1.82297e-26
2.27493e-25
-4.10123e-25
6.20445e-26
9.93195e-25
-5.06127e-24
-3.43309e-42
2.87941e-44
-2.95734e-39
7.2518e-41
-6.65447e-37
2.63702e-38
-6.85852e-35
3.67207e-36
-4.08164e-33
2.69863e-34
-1.59261e-31
1.23069e-32
-4.41486e-30
3.83983e-31
-9.18867e-29
8.74656e-30
-1.49478e-27
1.523e-28
-1.95911e-26
2.09723e-27
-2.11747e-25
2.34322e-26
-1.92138e-24
2.16586e-25
-1.48355e-23
1.68002e-24
-9.84329e-23
1.10447e-23
-5.65123e-22
6.19013e-23
-2.82126e-21
2.96459e-22
-1.22944e-20
1.21228e-21
-4.69451e-20
4.21758e-21
-1.57854e-19
1.24038e-20
-4.70925e-19
3.05048e-20
-1.2587e-18
6.13041e-20
-3.04459e-18
9.32805e-20
-6.78515e-18
6.62133e-20
-1.41188e-17
-6.08578e-19
-2.71549e-17
-3.33403e-18
-4.72003e-17
-1.03193e-17
-7.17398e-17
-2.4525e-17
-9.19639e-17
-4.62102e-17
-1.18489e-16
-6.18953e-17
-1.3584e-16
-2.04845e-16
-9.85769e-17
-2.75081e-16
-1.00103e-16
-8.86561e-17
-8.37639e-17
-9.08312e-17
-3.9866e-17
-4.43681e-17
-2.73927e-17
-5.24367e-17
-1.56573e-17
-4.5377e-17
-8.61118e-18
-3.6962e-17
-3.66786e-18
-2.91192e-17
-1.12893e-18
-1.83094e-17
-2.21275e-19
-8.93465e-18
-2.2402e-20
-3.11456e-18
1.57072e-21
-7.03026e-19
3.80451e-21
-1.03172e-19
1.23087e-21
-5.33323e-21
2.56095e-22
4.86679e-22
2.30384e-23
2.22693e-22
-3.14356e-25
4.98695e-23
-7.86171e-26
5.4754e-24
-1.87226e-24
4.48706e-25
6.31507e-24
-2.61806e-23
-8.92666e-41
8.85875e-43
-7.01851e-38
2.02927e-39
-1.44527e-35
6.73667e-37
-1.36438e-33
8.57563e-35
-7.43817e-32
5.76565e-33
-2.65761e-30
2.40611e-31
-6.74017e-29
6.8683e-30
-1.28172e-27
1.43034e-28
-1.90164e-26
2.27433e-27
-2.26828e-25
2.85517e-26
-2.22601e-24
2.90229e-25
-1.82971e-23
2.43493e-24
-1.27701e-22
1.71018e-23
-7.64451e-22
1.01555e-22
-3.95338e-21
5.12889e-22
-1.7751e-20
2.20764e-21
-6.94564e-20
8.08732e-21
-2.37642e-19
2.50961e-20
-7.14094e-19
6.54428e-20
-1.89743e-18
1.41716e-19
-4.50333e-18
2.49901e-19
-9.67134e-18
3.40197e-19
-1.92193e-17
2.60131e-19
-3.59727e-17
-1.05369e-18
-6.27513e-17
-6.40618e-18
-9.93564e-17
-1.89588e-17
-1.34979e-16
-4.10245e-17
-1.39829e-16
-7.32379e-17
-4.23895e-16
1.5965e-16
-5.549e-16
-1.35283e-15
-1.79364e-16
-1.86921e-15
-1.80968e-16
-1.22453e-16
-2.03386e-16
6.48799e-17
-1.97275e-16
-1.20172e-16
-5.55494e-17
-8.84588e-17
-3.72554e-17
-6.56217e-17
-2.40237e-17
-7.23711e-17
-1.2064e-17
-6.66325e-17
-4.44686e-18
-4.9436e-17
-1.01875e-18
-2.96732e-17
-8.15376e-20
-1.33902e-17
1.02345e-19
-4.03665e-18
5.80361e-20
-7.62059e-19
1.88176e-20
-5.92565e-20
4.65726e-21
4.2503e-21
7.7956e-22
2.39003e-21
5.09289e-23
6.51038e-22
-4.22953e-25
9.66022e-23
-5.66565e-24
6.21166e-24
2.94576e-23
-9.99907e-23
-1.85913e-39
2.16858e-41
-1.33601e-36
4.52575e-38
-2.52302e-34
1.37492e-35
-2.18696e-32
1.60434e-33
-1.09511e-30
9.89627e-32
-3.59312e-29
3.79046e-30
-8.36214e-28
9.92952e-29
-1.45742e-26
1.89655e-27
-1.97859e-25
2.76289e-26
-2.15522e-24
3.17304e-25
-1.92717e-23
2.94507e-24
-1.44004e-22
2.25116e-23
-9.11672e-22
1.43718e-22
-4.94099e-21
7.73898e-22
-2.30955e-20
3.53562e-21
-9.3579e-20
1.37295e-20
-3.29816e-19
4.52117e-20
-1.01398e-18
1.25423e-19
-2.72838e-18
2.89798e-19
-6.46119e-18
5.48514e-19
-1.35954e-17
8.31999e-19
-2.58109e-17
9.79133e-19
-4.55604e-17
7.56018e-19
-7.64369e-17
-1.38658e-18
-1.20338e-16
-1.05289e-17
-1.70708e-16
-2.95154e-17
-2.11526e-16
-5.50031e-17
-4.91135e-17
-2.89978e-16
-3.94147e-15
-5.71165e-15
-8.46383e-15
-4.39736e-15
-1.10176e-14
-4.80037e-15
-3.80828e-15
-3.76911e-15
-7.3385e-16
-1.98521e-15
-1.24285e-16
-1.1119e-16
-7.42021e-17
-1.23431e-16
-6.72791e-17
-7.40961e-17
-5.02348e-17
-1.08118e-16
-2.91911e-17
-1.17878e-16
-1.2707e-17
-9.94237e-17
-3.33667e-18
-7.10816e-17
-7.0073e-20
-4.04766e-17
9.59631e-19
-1.63574e-17
5.3407e-19
-4.17681e-18
1.91959e-19
-4.79599e-19
5.41294e-20
2.97274e-20
1.14978e-20
2.10395e-20
1.50223e-21
6.8406e-21
4.33754e-23
1.3105e-21
-1.02258e-23
1.1844e-22
1.0244e-22
-2.84529e-22
-3.05051e-38
4.16073e-40
-2.00749e-35
7.9274e-37
-3.48549e-33
2.2097e-34
-2.78222e-31
2.37051e-32
-1.28385e-29
1.34593e-30
-3.88205e-28
4.74808e-29
-8.32249e-27
1.14576e-27
-1.33499e-25
2.01527e-26
-1.66583e-24
2.70154e-25
-1.66498e-23
2.85165e-24
-1.36335e-22
2.42891e-23
-9.30871e-22
1.70059e-22
-5.3735e-21
9.92363e-22
-2.65032e-20
4.8737e-21
-1.12555e-19
2.0262e-20
-4.13734e-19
7.14217e-20
-1.32059e-18
2.12764e-19
-3.66732e-18
5.30783e-19
-8.87665e-18
1.09027e-18
-1.87941e-17
1.79432e-18
-3.50863e-17
2.27683e-18
-5.87382e-17
2.17699e-18
-9.19922e-17
1.67755e-18
-1.37593e-16
-1.20168e-18
-1.88732e-16
-1.63161e-17
-2.25544e-16
-4.63032e-17
-2.58878e-16
-8.57488e-17
-9.98794e-15
-1.63535e-15
-1.02448e-14
-5.69255e-15
-1.05847e-14
-4.22685e-15
-1.23572e-14
-3.265e-15
-1.17161e-14
-4.70768e-15
-1.70531e-16
-2.38567e-15
-1.54223e-16
-1.30945e-16
-1.34766e-16
-1.59495e-16
-1.65364e-16
-1.77498e-16
-8.10166e-17
-1.69785e-16
-5.30694e-17
-1.72642e-16
-2.65903e-17
-1.5743e-16
-7.77398e-18
-1.2775e-16
1.49959e-18
-8.76517e-17
4.86916e-18
-4.59859e-17
3.2384e-18
-1.59698e-17
1.39423e-18
-2.6852e-18
4.5968e-19
1.60735e-19
1.17159e-19
1.52716e-19
2.06013e-20
5.87943e-20
1.86447e-21
1.38708e-20
-5.82955e-24
1.78951e-21
3.11417e-22
-5.94044e-22
-3.89881e-37
6.19281e-39
-2.35538e-34
1.08007e-35
-3.7706e-32
2.77037e-33
-2.78046e-30
2.74102e-31
-1.1864e-28
1.43738e-29
-3.31834e-27
4.68725e-28
-6.57942e-26
1.04595e-26
-9.7551e-25
1.70122e-25
-1.12403e-23
2.10795e-24
-1.03602e-22
2.05506e-23
-7.81049e-22
1.61485e-22
-4.90113e-21
1.04162e-21
-2.59545e-20
5.59094e-21
-1.17242e-19
2.52157e-20
-4.55373e-19
9.61144e-20
-1.52897e-18
3.10081e-19
-4.45107e-18
8.43326e-19
-1.12454e-17
1.91097e-18
-2.46539e-17
3.52209e-18
-4.69568e-17
5.04702e-18
-7.82193e-17
5.18361e-18
-1.16278e-16
3.503e-18
-1.64179e-16
3.14336e-18
-2.23969e-16
7.68147e-19
-2.79874e-16
-2.61719e-17
-3.14911e-16
-7.49752e-17
-4.33572e-16
-1.47211e-16
-7.2482e-15
-9.63231e-16
-9.08025e-15
-4.09594e-15
-1.06249e-14
-2.93147e-15
-1.29131e-14
-1.28107e-15
-7.85777e-15
-4.06387e-16
-2.38716e-16
-1.76537e-16
-1.75439e-16
-2.022e-16
-1.63982e-16
-2.17781e-16
-1.31425e-16
-2.6479e-16
-1.09335e-16
-2.22408e-16
-7.73999e-17
-2.28476e-16
-4.30044e-17
-2.14997e-16
-1.36141e-17
-1.87055e-16
5.88039e-18
-1.44901e-16
1.51657e-17
-9.24513e-17
1.27929e-17
-4.2031e-17
6.93391e-18
-1.00453e-17
2.78193e-18
5.96276e-19
8.5809e-19
8.64278e-19
1.89905e-19
4.03148e-19
2.5832e-20
1.15379e-19
1.11256e-21
1.97417e-20
1.76447e-21
-8.38183e-22
-3.86205e-36
7.12214e-38
-2.14798e-33
1.14066e-34
-3.18003e-31
2.70077e-32
-2.17312e-29
2.47246e-30
-8.60236e-28
1.20146e-28
-2.23323e-26
3.63408e-27
-4.10996e-25
7.52584e-26
-5.65402e-24
1.13614e-24
-6.0405e-23
1.30644e-23
-5.15703e-22
1.18141e-22
-3.59678e-21
8.60496e-22
-2.08523e-20
5.14024e-21
-1.01885e-19
2.55277e-20
-4.24147e-19
1.06433e-19
-1.51687e-18
3.74795e-19
-4.6866e-18
1.11665e-18
-1.25465e-17
2.80335e-18
-2.91175e-17
5.85305e-18
-5.85401e-17
9.86587e-18
-1.02166e-16
1.25495e-17
-1.56927e-16
1.02695e-17
-2.18494e-16
3.33971e-18
-2.91768e-16
6.18856e-18
-3.6153e-16
8.55323e-18
-4.24683e-16
-3.77665e-17
-5.04546e-16
-7.42979e-17
-5.83716e-16
-1.11851e-16
-1.39316e-15
-1.42297e-16
-6.3207e-15
-1.33835e-16
-8.30116e-15
-1.00137e-16
-4.34277e-16
-8.47171e-17
-2.21993e-16
-1.18976e-16
-2.23809e-16
-1.90059e-16
-2.11162e-16
-2.33123e-16
-2.24287e-16
-2.76662e-16
-1.61433e-16
-4.00065e-16
-1.3711e-16
-2.69977e-16
-1.00403e-16
-2.8657e-16
-5.92934e-17
-2.74215e-16
-1.98803e-17
-2.46122e-16
1.16374e-17
-2.022e-16
3.13833e-17
-1.45007e-16
3.32606e-17
-8.09065e-17
2.28981e-17
-2.62658e-17
1.14372e-17
1.2334e-18
4.33936e-18
3.52173e-18
1.19885e-18
2.05709e-18
2.18092e-19
7.22221e-19
1.91128e-20
1.57454e-19
1.7358e-20
-4.89334e-22
-2.97107e-35
6.34579e-37
-1.52667e-32
9.36967e-34
-2.09757e-30
2.05551e-31
-1.33293e-28
1.74746e-29
-4.91163e-27
7.89674e-28
-1.18744e-25
2.22318e-26
-2.03514e-24
4.28734e-25
-2.60653e-23
6.02824e-24
-2.5911e-22
6.45553e-23
-2.05683e-21
5.43517e-22
-1.33272e-20
3.68437e-21
-7.17205e-20
2.04755e-20
-3.25058e-19
9.45787e-20
-1.25469e-18
3.66794e-19
-4.16028e-18
1.20221e-18
-1.19226e-17
3.33859e-18
-2.96457e-17
7.83171e-18
-6.41949e-17
1.53401e-17
-1.2238e-16
2.44473e-17
-2.11892e-16
2.97728e-17
-3.48266e-16
2.08974e-17
-5.52952e-16
1.44766e-19
-6.78407e-16
6.26358e-17
-5.66493e-16
4.44259e-16
-3.96684e-16
-3.07897e-17
-3.63288e-16
-7.57792e-17
-3.48419e-16
-1.15481e-16
-3.52791e-16
-1.4434e-16
-3.48709e-16
-1.44204e-16
-3.28277e-16
-1.26751e-16
-2.95174e-16
-1.22062e-16
-2.6992e-16
-1.56471e-16
-2.57996e-16
-2.10719e-16
-2.6408e-16
-2.5258e-16
-3.32411e-16
-2.81229e-16
-1.92373e-16
-2.9408e-16
-1.69733e-16
-3.11329e-16
-1.26418e-16
-3.4177e-16
-7.68059e-17
-3.39111e-16
-2.68639e-17
-3.11403e-16
1.64853e-17
-2.61019e-16
4.83082e-17
-1.9707e-16
6.13575e-17
-1.24647e-16
5.26532e-17
-5.14971e-17
3.28363e-17
4.60562e-19
1.53854e-17
1.0249e-17
5.28363e-18
7.68152e-18
1.23417e-18
3.33972e-18
1.59993e-19
9.14305e-19
1.36947e-19
3.70087e-21
-1.78828e-34
4.4161e-36
-8.52524e-32
6.03864e-33
-1.09153e-29
1.23272e-30
-6.47573e-28
9.77272e-29
-2.22961e-26
4.12346e-27
-5.03779e-25
1.08466e-25
-8.06813e-24
1.95495e-24
-9.65167e-23
2.569e-23
-8.95647e-22
2.57066e-22
-6.633e-21
2.02185e-21
-4.008e-20
1.28011e-20
-2.01141e-19
6.6453e-20
-8.50698e-19
2.86926e-19
-3.06921e-18
1.04187e-18
-9.54009e-18
3.20714e-18
-2.5737e-17
8.40725e-18
-6.04754e-17
1.87604e-17
-1.23218e-16
3.52949e-17
-2.15382e-16
5.43411e-17
-3.48335e-16
6.49348e-17
-7.9634e-16
3.26474e-16
-1.11459e-14
-2.26921e-16
-1.22081e-14
1.05758e-15
-4.11821e-16
1.02803e-15
-3.77058e-16
-7.47865e-17
-3.8084e-16
-9.00005e-17
-3.97561e-16
-1.27648e-16
-4.09719e-16
-1.53736e-16
-4.06187e-16
-1.09511e-16
-3.81697e-16
-1.57215e-16
-3.50653e-16
-1.57432e-16
-3.20467e-16
-1.87976e-16
-2.98437e-16
-2.31557e-16
-2.78098e-16
-2.75496e-16
-2.49685e-16
-3.11494e-16
-2.24988e-16
-3.34006e-16
-2.04696e-16
-3.53024e-16
-1.5711e-16
-3.95945e-16
-9.77925e-17
-4.27052e-16
-3.5054e-17
-4.00704e-16
2.00852e-17
-3.33274e-16
6.25783e-17
-2.52363e-16
8.88568e-17
-1.69107e-16
9.07383e-17
-8.3051e-17
6.9128e-17
-7.27246e-18
3.94887e-17
2.15932e-17
1.6645e-17
2.10826e-17
4.86051e-18
1.1361e-17
8.41623e-19
3.86226e-18
7.52832e-19
4.78087e-20
-8.52488e-34
2.43037e-35
-3.79023e-31
3.0949e-32
-4.5452e-29
5.91021e-30
-2.52967e-27
4.39167e-28
-8.1745e-26
1.73851e-26
-1.73311e-24
4.29191e-25
-2.6025e-23
7.2586e-24
-2.91576e-22
8.94514e-23
-2.53029e-21
8.38653e-22
-1.74918e-20
6.17293e-21
-9.84457e-20
3.65242e-20
-4.58966e-19
1.76901e-19
-1.79765e-18
7.11299e-19
-5.9839e-18
2.40011e-18
-1.7085e-17
6.84949e-18
-4.20968e-17
1.66052e-17
-8.9783e-17
3.4171e-17
-1.6934e-16
5.92209e-17
-3.22886e-16
8.61133e-17
-5.13308e-16
1.13098e-16
-1.21311e-14
2.34753e-15
-1.266e-14
1.53984e-17
-1.29758e-14
1.06817e-15
-6.06132e-15
8.23961e-17
-3.70666e-16
-5.4819e-17
-4.0775e-16
-9.53009e-17
-4.38127e-16
-1.28276e-16
-3.53041e-16
-1.50808e-16
-4.8825e-16
-1.63926e-16
-4.15037e-16
-1.72094e-16
-3.89496e-16
-2.25508e-16
-3.6058e-16
-2.12494e-16
-3.4033e-16
-2.54766e-16
-3.1891e-16
-3.04747e-16
-2.8995e-16
-3.49086e-16
-2.50278e-16
-3.91506e-16
-2.8671e-16
-5.28704e-16
-1.97171e-16
-5.16175e-16
-1.25753e-16
-6.30505e-16
-4.46742e-17
-5.89663e-16
2.37839e-17
-4.61018e-16
7.5077e-17
-3.25781e-16
1.11972e-16
-2.1906e-16
1.28951e-16
-1.19309e-16
1.15709e-16
-2.31127e-17
7.89525e-17
3.47873e-17
4.00566e-17
4.49145e-17
1.42508e-17
2.98034e-17
3.11337e-18
1.24007e-17
3.03122e-18
2.70697e-19
-3.26357e-33
1.07255e-34
-1.36202e-30
1.28064e-31
-1.53952e-28
2.30275e-29
-8.08731e-27
1.614e-27
-2.46704e-25
6.03106e-26
-4.93448e-24
1.40542e-24
-6.98196e-23
2.24228e-23
-7.35843e-22
2.604e-22
-5.99468e-21
2.29734e-21
-3.88145e-20
1.58843e-20
-2.041e-19
8.81166e-20
-8.86775e-19
3.99342e-19
-3.2288e-18
1.49959e-18
-9.96761e-18
4.71763e-18
-2.63406e-17
1.25348e-17
-6.01535e-17
2.82682e-17
-1.21359e-16
5.42386e-17
-2.35665e-16
8.93946e-17
-5.67323e-16
1.3448e-16
-2.26039e-15
2.21519e-16
-1.00612e-14
9.39241e-16
-1.10466e-14
6.91245e-16
-1.09024e-14
6.05036e-16
-3.48508e-16
2.14196e-16
-3.77287e-16
-4.25743e-17
-4.16602e-16
-8.79533e-17
-4.46126e-16
-1.19152e-16
-4.65174e-16
-1.421e-16
-4.63312e-16
-1.58688e-16
-5.40476e-16
-1.79151e-16
-4.1654e-16
-2.04976e-16
-3.94898e-16
-2.58873e-16
-3.80563e-16
-2.79565e-16
-3.59157e-16
-3.43847e-16
-3.37877e-16
-3.999e-16
-3.19081e-16
-4.74512e-16
-3.00484e-16
-6.882e-16
-2.79909e-16
-5.64781e-16
-1.7959e-16
-8.20937e-16
-5.99735e-17
-8.15221e-16
3.03434e-17
-8.11704e-16
8.891e-17
-4.33943e-16
1.33131e-16
-2.89424e-16
1.63814e-16
-1.6539e-16
1.66227e-16
-4.79577e-17
1.31906e-16
4.49218e-17
7.87078e-17
7.88284e-17
3.32633e-17
6.37896e-17
8.80089e-18
3.19677e-17
9.51788e-18
1.00322e-18
-1.01511e-32
3.83802e-34
-4.00949e-30
4.33475e-31
-4.30627e-28
7.40068e-29
-2.15199e-26
4.9323e-27
-6.2446e-25
1.75333e-25
-1.1871e-23
3.88589e-24
-1.59407e-22
5.89142e-23
-1.5913e-21
6.49282e-22
-1.22505e-20
5.42642e-21
-7.4758e-20
3.54686e-20
-3.69452e-19
1.8557e-19