/*--------------------------------*- C++ -*----------------------------------*\
| =========                 |                                                 |
| \\      /  F ield         | OpenFOAM: The Open Source CFD Toolbox           |
|  \\    /   O peration     | Version:  2.4.0                                 |
|   \\  /    A nd           | Web:      www.OpenFOAM.org                      |
|    \\/     M anipulation  |                                                 |
\*---------------------------------------------------------------------------*/
FoamFile
{
    version     2.0;
    format      ascii;
    class       volVectorField;
    location    "0.055";
    object      U;
}
// * * * * * * * * * * * * * * * * * * * * * * * * * * * * * * * * * * * * * //

dimensions      [0 1 -1 0 0 0 0];

internalField   nonuniform List<vector> 
60000
(
(-1.71549e-08 1.19059e-08 0)
(-4.93369e-08 4.11982e-09 0)
(-1.09353e-07 1.09641e-08 0)
(-1.75967e-07 9.82771e-09 0)
(-2.47243e-07 1.03681e-08 0)
(-3.14104e-07 1.07501e-08 0)
(-3.83814e-07 1.0585e-08 0)
(-4.52678e-07 1.06265e-08 0)
(-5.21702e-07 1.0586e-08 0)
(-5.90658e-07 1.06118e-08 0)
(-6.59929e-07 1.06876e-08 0)
(-7.29876e-07 1.08158e-08 0)
(-8.00932e-07 1.10058e-08 0)
(-8.73343e-07 1.11814e-08 0)
(-9.46993e-07 1.13064e-08 0)
(-1.02166e-06 1.13666e-08 0)
(-1.09716e-06 1.14481e-08 0)
(-1.17347e-06 1.15048e-08 0)
(-1.25081e-06 1.16483e-08 0)
(-1.32954e-06 1.1861e-08 0)
(-1.40987e-06 1.20168e-08 0)
(-1.49208e-06 1.23006e-08 0)
(-1.57638e-06 1.25411e-08 0)
(-1.66265e-06 1.27914e-08 0)
(-1.75078e-06 1.29947e-08 0)
(-1.84045e-06 1.31954e-08 0)
(-1.93132e-06 1.32516e-08 0)
(-2.02312e-06 1.33375e-08 0)
(-2.1157e-06 1.3369e-08 0)
(-2.20929e-06 1.34081e-08 0)
(-2.30428e-06 1.35632e-08 0)
(-2.40109e-06 1.36841e-08 0)
(-2.50006e-06 1.38676e-08 0)
(-2.60134e-06 1.40359e-08 0)
(-2.70482e-06 1.42074e-08 0)
(-2.80997e-06 1.42352e-08 0)
(-2.91609e-06 1.4151e-08 0)
(-3.02302e-06 1.40354e-08 0)
(-3.13125e-06 1.41021e-08 0)
(-3.24136e-06 1.40455e-08 0)
(-3.35392e-06 1.42287e-08 0)
(-3.4688e-06 1.41014e-08 0)
(-3.58558e-06 1.3993e-08 0)
(-3.70418e-06 1.41219e-08 0)
(-3.82391e-06 1.3415e-08 0)
(-3.94552e-06 1.34969e-08 0)
(-4.06999e-06 1.33961e-08 0)
(-4.19603e-06 1.2502e-08 0)
(-4.32363e-06 1.22616e-08 0)
(-4.45321e-06 1.18894e-08 0)
(-4.58324e-06 1.10269e-08 0)
(-4.71186e-06 9.9389e-09 0)
(-4.83642e-06 8.03755e-09 0)
(-4.9541e-06 5.8212e-09 0)
(-5.06282e-06 3.24319e-09 0)
(-5.15979e-06 -1.77695e-10 0)
(-5.24213e-06 -3.91492e-09 0)
(-5.30765e-06 -8.05073e-09 0)
(-5.35368e-06 -1.30017e-08 0)
(-5.37764e-06 -1.83841e-08 0)
(-5.37801e-06 -2.41046e-08 0)
(-5.35276e-06 -2.94786e-08 0)
(-5.2999e-06 -3.50132e-08 0)
(-5.21823e-06 -4.0684e-08 0)
(-5.10665e-06 -4.64185e-08 0)
(-4.96425e-06 -5.21647e-08 0)
(-4.79059e-06 -5.77053e-08 0)
(-4.5859e-06 -6.29977e-08 0)
(-4.35102e-06 -6.79336e-08 0)
(-4.08746e-06 -7.23337e-08 0)
(-3.79745e-06 -7.612e-08 0)
(-3.48409e-06 -7.91263e-08 0)
(-3.15155e-06 -8.11672e-08 0)
(-2.80449e-06 -8.22846e-08 0)
(-2.44723e-06 -8.269e-08 0)
(-2.08387e-06 -8.23424e-08 0)
(-1.71879e-06 -8.11053e-08 0)
(-1.35626e-06 -7.91917e-08 0)
(-9.99868e-07 -7.68126e-08 0)
(-6.53123e-07 -7.3866e-08 0)
(-3.19841e-07 -7.03507e-08 0)
(-3.43474e-09 -6.62556e-08 0)
(2.91537e-07 -6.2122e-08 0)
(5.60853e-07 -5.71505e-08 0)
(8.00854e-07 -5.19705e-08 0)
(1.00848e-06 -4.63694e-08 0)
(1.18044e-06 -4.1208e-08 0)
(1.3138e-06 -3.55007e-08 0)
(1.40781e-06 -2.98106e-08 0)
(1.46055e-06 -2.43665e-08 0)
(1.47014e-06 -1.94463e-08 0)
(1.43726e-06 -1.37821e-08 0)
(1.36346e-06 -8.6486e-09 0)
(1.24671e-06 -3.54765e-09 0)
(1.1104e-06 1.4601e-09 0)
(8.55514e-07 -1.42608e-10 0)
(8.26854e-07 9.25388e-09 0)
(2.43933e-07 2.08045e-08 0)
(3.61283e-07 2.42069e-09 0)
(-1.95912e-07 1.55182e-08 0)
(2.2002e-08 2.24121e-08 0)
(-1.27959e-08 3.77735e-08 0)
(-1.4571e-07 5.98391e-08 0)
(-2.4938e-07 6.09579e-08 0)
(-3.77466e-07 6.07444e-08 0)
(-4.89826e-07 6.11458e-08 0)
(-6.08061e-07 6.1142e-08 0)
(-7.24799e-07 6.12581e-08 0)
(-8.42264e-07 6.12192e-08 0)
(-9.59921e-07 6.13477e-08 0)
(-1.07827e-06 6.17578e-08 0)
(-1.19773e-06 6.25907e-08 0)
(-1.31891e-06 6.37522e-08 0)
(-1.44223e-06 6.49547e-08 0)
(-1.56776e-06 6.60577e-08 0)
(-1.69553e-06 6.69411e-08 0)
(-1.82541e-06 6.77187e-08 0)
(-1.95736e-06 6.85185e-08 0)
(-2.09168e-06 6.96669e-08 0)
(-2.22869e-06 7.1067e-08 0)
(-2.36876e-06 7.26e-08 0)
(-2.51237e-06 7.45525e-08 0)
(-2.65966e-06 7.63396e-08 0)
(-2.81055e-06 7.81424e-08 0)
(-2.96499e-06 7.97319e-08 0)
(-3.12244e-06 8.0931e-08 0)
(-3.28274e-06 8.19447e-08 0)
(-3.44577e-06 8.27879e-08 0)
(-3.61122e-06 8.35758e-08 0)
(-3.77986e-06 8.47885e-08 0)
(-3.95213e-06 8.63261e-08 0)
(-4.12872e-06 8.83714e-08 0)
(-4.31025e-06 9.04645e-08 0)
(-4.49686e-06 9.27398e-08 0)
(-4.68839e-06 9.46907e-08 0)
(-4.88408e-06 9.60896e-08 0)
(-5.08333e-06 9.69359e-08 0)
(-5.28625e-06 9.80767e-08 0)
(-5.49343e-06 9.98538e-08 0)
(-5.70593e-06 1.02138e-07 0)
(-5.92449e-06 1.04866e-07 0)
(-6.14906e-06 1.07071e-07 0)
(-6.3797e-06 1.09124e-07 0)
(-6.61532e-06 1.11114e-07 0)
(-6.85653e-06 1.12414e-07 0)
(-7.10529e-06 1.15779e-07 0)
(-7.36145e-06 1.18618e-07 0)
(-7.625e-06 1.20321e-07 0)
(-7.89626e-06 1.23198e-07 0)
(-8.17388e-06 1.25137e-07 0)
(-8.45604e-06 1.25462e-07 0)
(-8.74069e-06 1.243e-07 0)
(-9.02489e-06 1.20296e-07 0)
(-9.30534e-06 1.14457e-07 0)
(-9.5788e-06 1.06777e-07 0)
(-9.84202e-06 9.62854e-08 0)
(-1.00913e-05 8.38252e-08 0)
(-1.0323e-05 6.94183e-08 0)
(-1.05338e-05 5.24632e-08 0)
(-1.07205e-05 3.36322e-08 0)
(-1.08795e-05 1.32284e-08 0)
(-1.10078e-05 -8.17463e-09 0)
(-1.11028e-05 -3.06364e-08 0)
(-1.11614e-05 -5.41368e-08 0)
(-1.1181e-05 -7.94345e-08 0)
(-1.11599e-05 -1.05786e-07 0)
(-1.1096e-05 -1.32553e-07 0)
(-1.09881e-05 -1.59244e-07 0)
(-1.08365e-05 -1.85236e-07 0)
(-1.06421e-05 -2.09818e-07 0)
(-1.04072e-05 -2.32368e-07 0)
(-1.0135e-05 -2.52024e-07 0)
(-9.83015e-06 -2.67922e-07 0)
(-9.49805e-06 -2.79924e-07 0)
(-9.14466e-06 -2.88389e-07 0)
(-8.77614e-06 -2.93288e-07 0)
(-8.39858e-06 -2.94294e-07 0)
(-8.01798e-06 -2.9187e-07 0)
(-7.64056e-06 -2.86435e-07 0)
(-7.27274e-06 -2.77627e-07 0)
(-6.92107e-06 -2.65268e-07 0)
(-6.5924e-06 -2.49176e-07 0)
(-6.29451e-06 -2.29895e-07 0)
(-6.03503e-06 -2.06201e-07 0)
(-5.8214e-06 -1.79048e-07 0)
(-5.66107e-06 -1.48364e-07 0)
(-5.56153e-06 -1.15606e-07 0)
(-5.52919e-06 -7.99044e-08 0)
(-5.56832e-06 -4.24295e-08 0)
(-5.68348e-06 -4.94713e-09 0)
(-5.87767e-06 3.3133e-08 0)
(-6.15151e-06 7.19996e-08 0)
(-6.50407e-06 1.0964e-07 0)
(-6.93492e-06 1.45452e-07 0)
(-7.42339e-06 1.80928e-07 0)
(-8.0637e-06 1.96914e-07 0)
(-8.38026e-06 2.37021e-07 0)
(-9.71997e-06 2.87252e-07 0)
(-9.30643e-06 1.7594e-07 0)
(-1.10009e-05 1.07034e-07 0)
(3.96164e-08 5.26887e-09 0)
(5.40888e-09 9.02421e-08 0)
(-1.56786e-07 1.2239e-07 0)
(-2.69316e-07 1.26941e-07 0)
(-4.11908e-07 1.25022e-07 0)
(-5.38067e-07 1.24998e-07 0)
(-6.70812e-07 1.25208e-07 0)
(-8.01791e-07 1.25601e-07 0)
(-9.3408e-07 1.25859e-07 0)
(-1.06711e-06 1.26315e-07 0)
(-1.20127e-06 1.27183e-07 0)
(-1.33666e-06 1.28808e-07 0)
(-1.47363e-06 1.30935e-07 0)
(-1.61261e-06 1.33261e-07 0)
(-1.75385e-06 1.35638e-07 0)
(-1.89762e-06 1.37833e-07 0)
(-2.04417e-06 1.39833e-07 0)
(-2.19365e-06 1.41987e-07 0)
(-2.34609e-06 1.44583e-07 0)
(-2.50166e-06 1.47545e-07 0)
(-2.66084e-06 1.50989e-07 0)
(-2.82372e-06 1.54892e-07 0)
(-2.99049e-06 1.58641e-07 0)
(-3.16133e-06 1.62443e-07 0)
(-3.33605e-06 1.65959e-07 0)
(-3.51462e-06 1.68723e-07 0)
(-3.69735e-06 1.71716e-07 0)
(-3.8842e-06 1.74202e-07 0)
(-4.07523e-06 1.76847e-07 0)
(-4.27112e-06 1.8035e-07 0)
(-4.47187e-06 1.84054e-07 0)
(-4.67793e-06 1.89124e-07 0)
(-4.88971e-06 1.93854e-07 0)
(-5.10736e-06 1.99233e-07 0)
(-5.33059e-06 2.03715e-07 0)
(-5.55902e-06 2.07706e-07 0)
(-5.79278e-06 2.10721e-07 0)
(-6.03212e-06 2.14567e-07 0)
(-6.27712e-06 2.18917e-07 0)
(-6.52844e-06 2.24969e-07 0)
(-6.78619e-06 2.30789e-07 0)
(-7.05042e-06 2.36829e-07 0)
(-7.32165e-06 2.42216e-07 0)
(-7.59863e-06 2.46688e-07 0)
(-7.88298e-06 2.52653e-07 0)
(-8.17534e-06 2.60078e-07 0)
(-8.47468e-06 2.6692e-07 0)
(-8.78278e-06 2.73754e-07 0)
(-9.09887e-06 2.80458e-07 0)
(-9.4204e-06 2.85293e-07 0)
(-9.74626e-06 2.87931e-07 0)
(-1.00746e-05 2.87785e-07 0)
(-1.04034e-05 2.83692e-07 0)
(-1.07304e-05 2.76108e-07 0)
(-1.10523e-05 2.64997e-07 0)
(-1.13661e-05 2.49658e-07 0)
(-1.16683e-05 2.30247e-07 0)
(-1.19548e-05 2.07044e-07 0)
(-1.22222e-05 1.79951e-07 0)
(-1.24669e-05 1.49176e-07 0)
(-1.26846e-05 1.15083e-07 0)
(-1.28719e-05 7.77757e-08 0)
(-1.30255e-05 3.78273e-08 0)
(-1.31422e-05 -4.70092e-09 0)
(-1.32193e-05 -5.01492e-08 0)
(-1.32548e-05 -9.74325e-08 0)
(-1.32471e-05 -1.45926e-07 0)
(-1.31953e-05 -1.94537e-07 0)
(-1.30997e-05 -2.42101e-07 0)
(-1.29615e-05 -2.8759e-07 0)
(-1.27829e-05 -3.29664e-07 0)
(-1.25672e-05 -3.66949e-07 0)
(-1.23185e-05 -3.98257e-07 0)
(-1.20415e-05 -4.2296e-07 0)
(-1.17418e-05 -4.40886e-07 0)
(-1.1426e-05 -4.52091e-07 0)
(-1.11005e-05 -4.56441e-07 0)
(-1.0772e-05 -4.54031e-07 0)
(-1.04479e-05 -4.45051e-07 0)
(-1.01359e-05 -4.29199e-07 0)
(-9.84368e-06 -4.06102e-07 0)
(-9.57926e-06 -3.75387e-07 0)
(-9.35121e-06 -3.36989e-07 0)
(-9.16791e-06 -2.90424e-07 0)
(-9.03744e-06 -2.36155e-07 0)
(-8.96799e-06 -1.74459e-07 0)
(-8.96765e-06 -1.0653e-07 0)
(-9.04362e-06 -3.28932e-08 0)
(-9.20203e-06 4.54764e-08 0)
(-9.44744e-06 1.26172e-07 0)
(-9.78296e-06 2.0891e-07 0)
(-1.02105e-05 2.91617e-07 0)
(-1.07289e-05 3.72272e-07 0)
(-1.13378e-05 4.48822e-07 0)
(-1.20151e-05 5.18553e-07 0)
(-1.28585e-05 5.81631e-07 0)
(-1.33351e-05 6.10853e-07 0)
(-1.50294e-05 7.27169e-07 0)
(-1.44555e-05 5.05084e-07 0)
(-1.68373e-05 2.22824e-07 0)
(1.07457e-08 2.21556e-10 0)
(-2.55588e-08 1.38423e-07 0)
(-1.61939e-07 1.87095e-07 0)
(-2.80329e-07 1.93981e-07 0)
(-4.25151e-07 1.91918e-07 0)
(-5.5443e-07 1.91506e-07 0)
(-6.90495e-07 1.91905e-07 0)
(-8.24565e-07 1.9262e-07 0)
(-9.60082e-07 1.93385e-07 0)
(-1.09673e-06 1.94415e-07 0)
(-1.23496e-06 1.9595e-07 0)
(-1.37466e-06 1.98366e-07 0)
(-1.51594e-06 2.01369e-07 0)
(-1.65906e-06 2.04742e-07 0)
(-1.80424e-06 2.0832e-07 0)
(-1.95175e-06 2.118e-07 0)
(-2.10203e-06 2.15246e-07 0)
(-2.25549e-06 2.18953e-07 0)
(-2.41212e-06 2.23082e-07 0)
(-2.5722e-06 2.27779e-07 0)
(-2.73594e-06 2.33115e-07 0)
(-2.90317e-06 2.38843e-07 0)
(-3.07432e-06 2.44664e-07 0)
(-3.2497e-06 2.50521e-07 0)
(-3.42911e-06 2.56079e-07 0)
(-3.61325e-06 2.61116e-07 0)
(-3.80233e-06 2.66403e-07 0)
(-3.99623e-06 2.71275e-07 0)
(-4.19547e-06 2.76546e-07 0)
(-4.40005e-06 2.82626e-07 0)
(-4.61018e-06 2.89057e-07 0)
(-4.82557e-06 2.96884e-07 0)
(-5.04644e-06 3.04509e-07 0)
(-5.27317e-06 3.12831e-07 0)
(-5.50553e-06 3.20165e-07 0)
(-5.74373e-06 3.27151e-07 0)
(-5.98814e-06 3.33221e-07 0)
(-6.23904e-06 3.40198e-07 0)
(-6.49649e-06 3.4762e-07 0)
(-6.76014e-06 3.5705e-07 0)
(-7.02965e-06 3.65946e-07 0)
(-7.30505e-06 3.75428e-07 0)
(-7.58663e-06 3.84126e-07 0)
(-7.87525e-06 3.91816e-07 0)
(-8.17075e-06 4.01737e-07 0)
(-8.47245e-06 4.12408e-07 0)
(-8.78032e-06 4.22771e-07 0)
(-9.09424e-06 4.3348e-07 0)
(-9.41348e-06 4.42921e-07 0)
(-9.73716e-06 4.49969e-07 0)
(-1.00643e-05 4.54222e-07 0)
(-1.03933e-05 4.54686e-07 0)
(-1.07227e-05 4.50469e-07 0)
(-1.10505e-05 4.41425e-07 0)
(-1.13738e-05 4.27226e-07 0)
(-1.16896e-05 4.07329e-07 0)
(-1.19946e-05 3.81452e-07 0)
(-1.2285e-05 3.4979e-07 0)
(-1.25566e-05 3.12407e-07 0)
(-1.28054e-05 2.69257e-07 0)
(-1.30274e-05 2.20649e-07 0)
(-1.32184e-05 1.67027e-07 0)
(-1.33748e-05 1.08752e-07 0)
(-1.34936e-05 4.60942e-08 0)
(-1.35718e-05 -1.98578e-08 0)
(-1.36077e-05 -8.82956e-08 0)
(-1.36002e-05 -1.58406e-07 0)
(-1.35491e-05 -2.28679e-07 0)
(-1.34549e-05 -2.9749e-07 0)
(-1.33191e-05 -3.63352e-07 0)
(-1.31439e-05 -4.24388e-07 0)
(-1.29326e-05 -4.78779e-07 0)
(-1.2689e-05 -5.25118e-07 0)
(-1.24177e-05 -5.62389e-07 0)
(-1.21242e-05 -5.8982e-07 0)
(-1.18146e-05 -6.0718e-07 0)
(-1.14957e-05 -6.14418e-07 0)
(-1.11749e-05 -6.11286e-07 0)
(-1.08599e-05 -5.97433e-07 0)
(-1.0559e-05 -5.72761e-07 0)
(-1.02808e-05 -5.3677e-07 0)
(-1.00336e-05 -4.88998e-07 0)
(-9.82609e-06 -4.29138e-07 0)
(-9.66662e-06 -3.57048e-07 0)
(-9.56349e-06 -2.73115e-07 0)
(-9.52472e-06 -1.77856e-07 0)
(-9.55808e-06 -7.25706e-08 0)
(-9.6706e-06 4.164e-08 0)
(-9.86892e-06 1.63357e-07 0)
(-1.01581e-05 2.90754e-07 0)
(-1.05415e-05 4.20981e-07 0)
(-1.10212e-05 5.51367e-07 0)
(-1.15962e-05 6.7851e-07 0)
(-1.22666e-05 7.98873e-07 0)
(-1.30091e-05 9.07703e-07 0)
(-1.39291e-05 1.00693e-06 0)
(-1.44519e-05 1.05489e-06 0)
(-1.62813e-05 1.17912e-06 0)
(-1.56492e-05 9.257e-07 0)
(-1.83362e-05 3.84814e-07 0)
(6.60027e-09 1.01931e-08 0)
(-3.59714e-08 1.80808e-07 0)
(-1.69602e-07 2.49782e-07 0)
(-2.86489e-07 2.61054e-07 0)
(-4.29892e-07 2.59349e-07 0)
(-5.59076e-07 2.58833e-07 0)
(-6.95375e-07 2.59439e-07 0)
(-8.2981e-07 2.6049e-07 0)
(-9.65827e-07 2.61844e-07 0)
(-1.10313e-06 2.63564e-07 0)
(-1.24207e-06 2.65884e-07 0)
(-1.3825e-06 2.69105e-07 0)
(-1.52454e-06 2.72946e-07 0)
(-1.6683e-06 2.7728e-07 0)
(-1.81401e-06 2.81982e-07 0)
(-1.96206e-06 2.86685e-07 0)
(-2.11289e-06 2.91618e-07 0)
(-2.26691e-06 2.96936e-07 0)
(-2.42421e-06 3.02717e-07 0)
(-2.58504e-06 3.09223e-07 0)
(-2.74948e-06 3.16379e-07 0)
(-2.9174e-06 3.23957e-07 0)
(-3.08922e-06 3.31844e-07 0)
(-3.26522e-06 3.39802e-07 0)
(-3.44543e-06 3.47557e-07 0)
(-3.63053e-06 3.55217e-07 0)
(-3.82089e-06 3.62938e-07 0)
(-4.01651e-06 3.70599e-07 0)
(-4.21772e-06 3.78724e-07 0)
(-4.42467e-06 3.87495e-07 0)
(-4.63736e-06 3.96848e-07 0)
(-4.85542e-06 4.0715e-07 0)
(-5.07896e-06 4.17683e-07 0)
(-5.30824e-06 4.28708e-07 0)
(-5.54314e-06 4.39087e-07 0)
(-5.78396e-06 4.4914e-07 0)
(-6.03109e-06 4.58569e-07 0)
(-6.28477e-06 4.68703e-07 0)
(-6.54511e-06 4.79339e-07 0)
(-6.8116e-06 4.91539e-07 0)
(-7.08376e-06 5.03509e-07 0)
(-7.3614e-06 5.15751e-07 0)
(-7.64488e-06 5.2767e-07 0)
(-7.93513e-06 5.38897e-07 0)
(-8.23187e-06 5.51687e-07 0)
(-8.53411e-06 5.65142e-07 0)
(-8.84166e-06 5.78371e-07 0)
(-9.15432e-06 5.91522e-07 0)
(-9.47128e-06 6.03108e-07 0)
(-9.79191e-06 6.11943e-07 0)
(-1.01154e-05 6.17394e-07 0)
(-1.04406e-05 6.18317e-07 0)
(-1.0766e-05 6.13793e-07 0)
(-1.10898e-05 6.03324e-07 0)
(-1.14094e-05 5.86197e-07 0)
(-1.17218e-05 5.61787e-07 0)
(-1.20236e-05 5.29645e-07 0)
(-1.23109e-05 4.8966e-07 0)
(-1.25795e-05 4.41817e-07 0)
(-1.28251e-05 3.86122e-07 0)
(-1.30433e-05 3.22858e-07 0)
(-1.323e-05 2.52582e-07 0)
(-1.33812e-05 1.75898e-07 0)
(-1.34937e-05 9.34748e-08 0)
(-1.35648e-05 6.67792e-09 0)
(-1.35927e-05 -8.34237e-08 0)
(-1.35765e-05 -1.75475e-07 0)
(-1.35161e-05 -2.67634e-07 0)
(-1.34122e-05 -3.57793e-07 0)
(-1.32666e-05 -4.439e-07 0)
(-1.30816e-05 -5.23807e-07 0)
(-1.28603e-05 -5.95288e-07 0)
(-1.26066e-05 -6.56575e-07 0)
(-1.2325e-05 -7.06284e-07 0)
(-1.20208e-05 -7.43278e-07 0)
(-1.17006e-05 -7.66882e-07 0)
(-1.13711e-05 -7.76785e-07 0)
(-1.10399e-05 -7.72472e-07 0)
(-1.0715e-05 -7.53367e-07 0)
(-1.0405e-05 -7.19109e-07 0)
(-1.01186e-05 -6.6925e-07 0)
(-9.86453e-06 -6.03335e-07 0)
(-9.65139e-06 -5.21013e-07 0)
(-9.48755e-06 -4.2227e-07 0)
(-9.38124e-06 -3.07538e-07 0)
(-9.34055e-06 -1.77617e-07 0)
(-9.37336e-06 -3.38793e-08 0)
(-9.48696e-06 1.22319e-07 0)
(-9.68787e-06 2.88536e-07 0)
(-9.98139e-06 4.62644e-07 0)
(-1.03714e-05 6.41224e-07 0)
(-1.08601e-05 8.20418e-07 0)
(-1.14471e-05 9.95562e-07 0)
(-1.21327e-05 1.16153e-06 0)
(-1.28928e-05 1.31179e-06 0)
(-1.38417e-05 1.44628e-06 0)
(-1.43706e-05 1.52186e-06 0)
(-1.62588e-05 1.6386e-06 0)
(-1.56056e-05 1.3722e-06 0)
(-1.83184e-05 5.59717e-07 0)
(5.60489e-09 1.7508e-08 0)
(-4.11988e-08 2.25495e-07 0)
(-1.74836e-07 3.1123e-07 0)
(-2.90101e-07 3.27036e-07 0)
(-4.3176e-07 3.26098e-07 0)
(-5.60231e-07 3.25825e-07 0)
(-6.96151e-07 3.26741e-07 0)
(-8.30385e-07 3.28194e-07 0)
(-9.66245e-07 3.30159e-07 0)
(-1.10344e-06 3.32579e-07 0)
(-1.24223e-06 3.35689e-07 0)
(-1.38248e-06 3.39721e-07 0)
(-1.52439e-06 3.44424e-07 0)
(-1.66802e-06 3.49701e-07 0)
(-1.81357e-06 3.55503e-07 0)
(-1.96144e-06 3.61446e-07 0)
(-2.11211e-06 3.67855e-07 0)
(-2.26599e-06 3.74771e-07 0)
(-2.42311e-06 3.82254e-07 0)
(-2.58381e-06 3.90558e-07 0)
(-2.74813e-06 3.99507e-07 0)
(-2.91589e-06 4.08979e-07 0)
(-3.08762e-06 4.18888e-07 0)
(-3.26355e-06 4.28947e-07 0)
(-3.44374e-06 4.39026e-07 0)
(-3.62888e-06 4.49273e-07 0)
(-3.8194e-06 4.59625e-07 0)
(-4.01529e-06 4.70146e-07 0)
(-4.21679e-06 4.81171e-07 0)
(-4.42417e-06 4.92818e-07 0)
(-4.63736e-06 5.05024e-07 0)
(-4.85596e-06 5.17985e-07 0)
(-5.08008e-06 5.31289e-07 0)
(-5.30999e-06 5.45086e-07 0)
(-5.54562e-06 5.58474e-07 0)
(-5.78712e-06 5.7165e-07 0)
(-6.03487e-06 5.8439e-07 0)
(-6.28894e-06 5.97691e-07 0)
(-6.54957e-06 6.11441e-07 0)
(-6.8165e-06 6.26395e-07 0)
(-7.08898e-06 6.41272e-07 0)
(-7.36686e-06 6.56279e-07 0)
(-7.65051e-06 6.71277e-07 0)
(-7.94044e-06 6.85766e-07 0)
(-8.23661e-06 7.01408e-07 0)
(-8.53835e-06 7.17401e-07 0)
(-8.84524e-06 7.33262e-07 0)
(-9.15709e-06 7.48721e-07 0)
(-9.47325e-06 7.62263e-07 0)
(-9.79304e-06 7.72766e-07 0)
(-1.01158e-05 7.79373e-07 0)
(-1.04404e-05 7.80811e-07 0)
(-1.07656e-05 7.76051e-07 0)
(-1.10895e-05 7.64233e-07 0)
(-1.14096e-05 7.44298e-07 0)
(-1.17227e-05 7.15461e-07 0)
(-1.20254e-05 6.77091e-07 0)
(-1.23136e-05 6.28779e-07 0)
(-1.25832e-05 5.70396e-07 0)
(-1.28295e-05 5.01989e-07 0)
(-1.30481e-05 4.23829e-07 0)
(-1.32347e-05 3.36556e-07 0)
(-1.33851e-05 2.41047e-07 0)
(-1.34959e-05 1.38365e-07 0)
(-1.35646e-05 3.01165e-08 0)
(-1.3589e-05 -8.21065e-08 0)
(-1.35684e-05 -1.96541e-07 0)
(-1.35026e-05 -3.10945e-07 0)
(-1.33924e-05 -4.22739e-07 0)
(-1.32394e-05 -5.29403e-07 0)
(-1.3046e-05 -6.28439e-07 0)
(-1.28157e-05 -7.17277e-07 0)
(-1.25522e-05 -7.93789e-07 0)
(-1.22601e-05 -8.56193e-07 0)
(-1.1945e-05 -9.02927e-07 0)
(-1.16132e-05 -9.32908e-07 0)
(-1.12718e-05 -9.455e-07 0)
(-1.09286e-05 -9.39907e-07 0)
(-1.05919e-05 -9.1552e-07 0)
(-1.02701e-05 -8.71622e-07 0)
(-9.97189e-06 -8.07706e-07 0)
(-9.70628e-06 -7.2327e-07 0)
(-9.48199e-06 -6.18166e-07 0)
(-9.30754e-06 -4.9244e-07 0)
(-9.19127e-06 -3.46573e-07 0)
(-9.14139e-06 -1.8155e-07 0)
(-9.16582e-06 1.12335e-09 0)
(-9.27225e-06 1.99615e-07 0)
(-9.46747e-06 4.11121e-07 0)
(-9.75696e-06 6.32804e-07 0)
(-1.0145e-05 8.60683e-07 0)
(-1.06343e-05 1.08988e-06 0)
(-1.12248e-05 1.31457e-06 0)
(-1.19176e-05 1.52809e-06 0)
(-1.26874e-05 1.72214e-06 0)
(-1.3657e-05 1.89297e-06 0)
(-1.41913e-05 1.99992e-06 0)
(-1.61238e-05 2.10781e-06 0)
(-1.54796e-05 1.82078e-06 0)
(-1.81955e-05 7.20575e-07 0)
(4.25547e-09 2.70016e-08 0)
(-4.52085e-08 2.71462e-07 0)
(-1.7813e-07 3.71895e-07 0)
(-2.92306e-07 3.9207e-07 0)
(-4.32567e-07 3.92151e-07 0)
(-5.60309e-07 3.92411e-07 0)
(-6.95755e-07 3.93741e-07 0)
(-8.29675e-07 3.95657e-07 0)
(-9.65242e-07 3.98228e-07 0)
(-1.10214e-06 4.0135e-07 0)
(-1.24058e-06 4.05246e-07 0)
(-1.38048e-06 4.10078e-07 0)
(-1.52205e-06 4.15655e-07 0)
(-1.66531e-06 4.21892e-07 0)
(-1.81056e-06 4.28765e-07 0)
(-1.95811e-06 4.35954e-07 0)
(-2.10845e-06 4.43861e-07 0)
(-2.26206e-06 4.52358e-07 0)
(-2.41884e-06 4.6154e-07 0)
(-2.57921e-06 4.71657e-07 0)
(-2.74323e-06 4.82389e-07 0)
(-2.91069e-06 4.93768e-07 0)
(-3.08219e-06 5.05708e-07 0)
(-3.25796e-06 5.17895e-07 0)
(-3.43804e-06 5.30358e-07 0)
(-3.62308e-06 5.43172e-07 0)
(-3.81355e-06 5.56221e-07 0)
(-4.00938e-06 5.69574e-07 0)
(-4.21075e-06 5.83504e-07 0)
(-4.41804e-06 5.98054e-07 0)
(-4.63115e-06 6.1312e-07 0)
(-4.84969e-06 6.28794e-07 0)
(-5.07377e-06 6.4487e-07 0)
(-5.30374e-06 6.61468e-07 0)
(-5.53961e-06 6.77918e-07 0)
(-5.78133e-06 6.94158e-07 0)
(-6.02919e-06 7.10227e-07 0)
(-6.28321e-06 7.26589e-07 0)
(-6.54357e-06 7.43434e-07 0)
(-6.81041e-06 7.61195e-07 0)
(-7.08294e-06 7.78912e-07 0)
(-7.36074e-06 7.96729e-07 0)
(-7.64419e-06 8.14746e-07 0)
(-7.93387e-06 8.32352e-07 0)
(-8.22965e-06 8.50906e-07 0)
(-8.53119e-06 8.6958e-07 0)
(-8.83821e-06 8.88059e-07 0)
(-9.15013e-06 9.05865e-07 0)
(-9.46659e-06 9.21538e-07 0)
(-9.78724e-06 9.33875e-07 0)
(-1.01114e-05 9.41875e-07 0)
(-1.04381e-05 9.44115e-07 0)
(-1.0766e-05 9.39327e-07 0)
(-1.1093e-05 9.26357e-07 0)
(-1.14167e-05 9.03836e-07 0)
(-1.17338e-05 8.70709e-07 0)
(-1.20407e-05 8.26173e-07 0)
(-1.23334e-05 7.69562e-07 0)
(-1.26073e-05 7.0062e-07 0)
(-1.28578e-05 6.19385e-07 0)
(-1.30804e-05 5.26142e-07 0)
(-1.32704e-05 4.21634e-07 0)
(-1.34238e-05 3.06992e-07 0)
(-1.35369e-05 1.83621e-07 0)
(-1.36069e-05 5.34289e-08 0)
(-1.36315e-05 -8.14692e-08 0)
(-1.36098e-05 -2.18847e-07 0)
(-1.35418e-05 -3.56041e-07 0)
(-1.3428e-05 -4.90064e-07 0)
(-1.327e-05 -6.17916e-07 0)
(-1.30704e-05 -7.36656e-07 0)
(-1.28324e-05 -8.43349e-07 0)
(-1.25601e-05 -9.35473e-07 0)
(-1.22585e-05 -1.01091e-06 0)
(-1.19332e-05 -1.06772e-06 0)
(-1.15905e-05 -1.1044e-06 0)
(-1.12376e-05 -1.11987e-06 0)
(-1.08826e-05 -1.11317e-06 0)
(-1.05338e-05 -1.08348e-06 0)
(-1.01997e-05 -1.02998e-06 0)
(-9.88925e-06 -9.52003e-07 0)
(-9.61124e-06 -8.49022e-07 0)
(-9.37456e-06 -7.20969e-07 0)
(-9.18798e-06 -5.68023e-07 0)
(-9.0602e-06 -3.90756e-07 0)
(-8.9996e-06 -1.90249e-07 0)
(-9.01429e-06 3.1826e-08 0)
(-9.11214e-06 2.73133e-07 0)
(-9.30037e-06 5.30702e-07 0)
(-9.58492e-06 8.00987e-07 0)
(-9.97043e-06 1.0794e-06 0)
(-1.04602e-05 1.36017e-06 0)
(-1.10545e-05 1.63627e-06 0)
(-1.17554e-05 1.89955e-06 0)
(-1.25372e-05 2.13985e-06 0)
(-1.35294e-05 2.34938e-06 0)
(-1.40773e-05 2.48993e-06 0)
(-1.60559e-05 2.5938e-06 0)
(-1.54404e-05 2.27673e-06 0)
(-1.81847e-05 8.86136e-07 0)
(3.1263e-09 3.74219e-08 0)
(-4.77994e-08 3.17826e-07 0)
(-1.80087e-07 4.32052e-07 0)
(-2.9354e-07 4.56422e-07 0)
(-4.32795e-07 4.57682e-07 0)
(-5.59899e-07 4.58683e-07 0)
(-6.9488e-07 4.60501e-07 0)
(-8.28451e-07 4.6294e-07 0)
(-9.63708e-07 4.66099e-07 0)
(-1.10025e-06 4.69909e-07 0)
(-1.23826e-06 4.7459e-07 0)
(-1.37774e-06 4.80214e-07 0)
(-1.51886e-06 4.86653e-07 0)
(-1.66163e-06 4.9387e-07 0)
(-1.80648e-06 5.01818e-07 0)
(-1.95367e-06 5.10265e-07 0)
(-2.10365e-06 5.19697e-07 0)
(-2.25694e-06 5.29774e-07 0)
(-2.41331e-06 5.40642e-07 0)
(-2.57326e-06 5.52589e-07 0)
(-2.73691e-06 5.65141e-07 0)
(-2.904e-06 5.78469e-07 0)
(-3.07524e-06 5.92503e-07 0)
(-3.25086e-06 6.0688e-07 0)
(-3.43078e-06 6.2172e-07 0)
(-3.61569e-06 6.37064e-07 0)
(-3.80607e-06 6.52787e-07 0)
(-4.00172e-06 6.68902e-07 0)
(-4.20286e-06 6.85728e-07 0)
(-4.40994e-06 7.0316e-07 0)
(-4.62285e-06 7.21138e-07 0)
(-4.84119e-06 7.39569e-07 0)
(-5.06506e-06 7.58456e-07 0)
(-5.29491e-06 7.7787e-07 0)
(-5.53084e-06 7.97434e-07 0)
(-5.77268e-06 8.16705e-07 0)
(-6.02054e-06 8.36052e-07 0)
(-6.2744e-06 8.55464e-07 0)
(-6.53455e-06 8.7534e-07 0)
(-6.80115e-06 8.95944e-07 0)
(-7.07361e-06 9.16553e-07 0)
(-7.35145e-06 9.37151e-07 0)
(-7.63481e-06 9.58154e-07 0)
(-7.92426e-06 9.78883e-07 0)
(-8.21978e-06 1.00035e-06 0)
(-8.52128e-06 1.02194e-06 0)
(-8.82859e-06 1.04313e-06 0)
(-9.1412e-06 1.0634e-06 0)
(-9.45884e-06 1.08148e-06 0)
(-9.78122e-06 1.09597e-06 0)
(-1.01078e-05 1.10574e-06 0)
(-1.04377e-05 1.10915e-06 0)
(-1.07694e-05 1.10464e-06 0)
(-1.1101e-05 1.09081e-06 0)
(-1.14298e-05 1.06599e-06 0)
(-1.17526e-05 1.02879e-06 0)
(-1.20656e-05 9.78202e-07 0)
(-1.23646e-05 9.13365e-07 0)
(-1.26449e-05 8.33871e-07 0)
(-1.29018e-05 7.39708e-07 0)
(-1.31304e-05 6.31184e-07 0)
(-1.33259e-05 5.09182e-07 0)
(-1.3484e-05 3.75068e-07 0)
(-1.36009e-05 2.30538e-07 0)
(-1.36736e-05 7.78468e-08 0)
(-1.36998e-05 -8.03728e-08 0)
(-1.36783e-05 -2.41371e-07 0)
(-1.36088e-05 -4.02074e-07 0)
(-1.34918e-05 -5.5904e-07 0)
(-1.33292e-05 -7.08764e-07 0)
(-1.31235e-05 -8.47903e-07 0)
(-1.28779e-05 -9.73117e-07 0)
(-1.25967e-05 -1.08144e-06 0)
(-1.2285e-05 -1.17033e-06 0)
(-1.19488e-05 -1.23757e-06 0)
(-1.15945e-05 -1.2813e-06 0)
(-1.12294e-05 -1.29998e-06 0)
(-1.08616e-05 -1.29238e-06 0)
(-1.04994e-05 -1.25749e-06 0)
(-1.01517e-05 -1.1944e-06 0)
(-9.82747e-06 -1.10237e-06 0)
(-9.53557e-06 -9.80897e-07 0)
(-9.28495e-06 -8.29827e-07 0)
(-9.08462e-06 -6.49468e-07 0)
(-8.94354e-06 -4.40517e-07 0)
(-8.87044e-06 -2.04184e-07 0)
(-8.8737e-06 5.77094e-08 0)
(-8.96148e-06 3.42661e-07 0)
(-9.1414e-06 6.47291e-07 0)
(-9.42003e-06 9.67453e-07 0)
(-9.80252e-06 1.29794e-06 0)
(-1.02927e-05 1.63215e-06 0)
(-1.08917e-05 1.96187e-06 0)
(-1.16023e-05 2.27737e-06 0)
(-1.23989e-05 2.56657e-06 0)
(-1.34165e-05 2.818e-06 0)
(-1.39865e-05 2.99493e-06 0)
(-1.60158e-05 3.10195e-06 0)
(-1.54426e-05 2.7492e-06 0)
(-1.82348e-05 1.06383e-06 0)
(2.71776e-09 4.84282e-08 0)
(-4.8633e-08 3.64357e-07 0)
(-1.80878e-07 4.9201e-07 0)
(-2.93901e-07 5.20386e-07 0)
(-4.32519e-07 5.22867e-07 0)
(-5.59095e-07 5.24717e-07 0)
(-6.93686e-07 5.27056e-07 0)
(-8.26889e-07 5.30063e-07 0)
(-9.61809e-07 5.33796e-07 0)
(-1.09795e-06 5.38271e-07 0)
(-1.23545e-06 5.43718e-07 0)
(-1.37443e-06 5.50146e-07 0)
(-1.51503e-06 5.57428e-07 0)
(-1.65725e-06 5.65634e-07 0)
(-1.80164e-06 5.74689e-07 0)
(-1.94842e-06 5.84427e-07 0)
(-2.098e-06 5.95382e-07 0)
(-2.25091e-06 6.07022e-07 0)
(-2.4068e-06 6.19587e-07 0)
(-2.56629e-06 6.33356e-07 0)
(-2.72953e-06 6.47763e-07 0)
(-2.89622e-06 6.63096e-07 0)
(-3.06719e-06 6.79267e-07 0)
(-3.24261e-06 6.95893e-07 0)
(-3.42231e-06 7.13086e-07 0)
(-3.60701e-06 7.30929e-07 0)
(-3.79723e-06 7.49313e-07 0)
(-3.99267e-06 7.68129e-07 0)
(-4.19353e-06 7.87819e-07 0)
(-4.40041e-06 8.08148e-07 0)
(-4.61311e-06 8.29047e-07 0)
(-4.83123e-06 8.50335e-07 0)
(-5.05482e-06 8.72031e-07 0)
(-5.28447e-06 8.94317e-07 0)
(-5.52036e-06 9.1693e-07 0)
(-5.76224e-06 9.39334e-07 0)
(-6.01014e-06 9.61838e-07 0)
(-6.26385e-06 9.84327e-07 0)
(-6.52372e-06 1.0072e-06 0)
(-6.79007e-06 1.03064e-06 0)
(-7.06237e-06 1.05421e-06 0)
(-7.34021e-06 1.07766e-06 0)
(-7.6237e-06 1.10161e-06 0)
(-7.91316e-06 1.12542e-06 0)
(-8.20869e-06 1.14987e-06 0)
(-8.51023e-06 1.17445e-06 0)
(-8.8178e-06 1.19854e-06 0)
(-9.13125e-06 1.22157e-06 0)
(-9.4503e-06 1.24232e-06 0)
(-9.77479e-06 1.25932e-06 0)
(-1.01042e-05 1.27123e-06 0)
(-1.04377e-05 1.2762e-06 0)
(-1.07738e-05 1.27238e-06 0)
(-1.11107e-05 1.25808e-06 0)
(-1.14456e-05 1.2313e-06 0)
(-1.17753e-05 1.19032e-06 0)
(-1.20957e-05 1.13388e-06 0)
(-1.24025e-05 1.06092e-06 0)
(-1.26907e-05 9.70879e-07 0)
(-1.29553e-05 8.63674e-07 0)
(-1.31912e-05 7.39643e-07 0)
(-1.33935e-05 5.99794e-07 0)
(-1.35575e-05 4.45698e-07 0)
(-1.3679e-05 2.7942e-07 0)
(-1.37551e-05 1.03647e-07 0)
(-1.37834e-05 -7.86003e-08 0)
(-1.37622e-05 -2.6407e-07 0)
(-1.36913e-05 -4.49152e-07 0)
(-1.35711e-05 -6.29901e-07 0)
(-1.34035e-05 -8.02291e-07 0)
(-1.3191e-05 -9.62588e-07 0)
(-1.29371e-05 -1.10702e-06 0)
(-1.26462e-05 -1.23226e-06 0)
(-1.23234e-05 -1.33514e-06 0)
(-1.19749e-05 -1.41329e-06 0)
(-1.16075e-05 -1.4644e-06 0)
(-1.12285e-05 -1.48663e-06 0)
(-1.08462e-05 -1.47844e-06 0)
(-1.04688e-05 -1.43858e-06 0)
(-1.01055e-05 -1.36597e-06 0)
(-9.76534e-06 -1.25991e-06 0)
(-9.45744e-06 -1.11992e-06 0)
(-9.19094e-06 -9.45818e-07 0)
(-8.97497e-06 -7.37925e-07 0)
(-8.81865e-06 -4.97074e-07 0)
(-8.73107e-06 -2.24419e-07 0)
(-8.72104e-06 7.79695e-08 0)
(-8.79699e-06 4.07382e-07 0)
(-8.96696e-06 7.6017e-07 0)
(-9.23813e-06 1.13167e-06 0)
(-9.61639e-06 1.516e-06 0)
(-1.01063e-05 1.90576e-06 0)
(-1.07098e-05 2.29155e-06 0)
(-1.1431e-05 2.66208e-06 0)
(-1.22445e-05 3.00341e-06 0)
(-1.32903e-05 3.30089e-06 0)
(-1.38898e-05 3.51828e-06 0)
(-1.59759e-05 3.63701e-06 0)
(-1.54574e-05 3.24704e-06 0)
(-1.83176e-05 1.25638e-06 0)
(3.06131e-09 5.94797e-08 0)
(-4.78092e-08 4.11011e-07 0)
(-1.80607e-07 5.5205e-07 0)
(-2.93454e-07 5.84185e-07 0)
(-4.31775e-07 5.87847e-07 0)
(-5.57916e-07 5.90558e-07 0)
(-6.92208e-07 5.93418e-07 0)
(-8.25025e-07 5.97e-07 0)
(-9.5954e-07 6.0129e-07 0)
(-1.09524e-06 6.06422e-07 0)
(-1.23219e-06 6.1259e-07 0)
(-1.3706e-06 6.19838e-07 0)
(-1.51064e-06 6.27963e-07 0)
(-1.65228e-06 6.37163e-07 0)
(-1.79621e-06 6.47357e-07 0)
(-1.94252e-06 6.58429e-07 0)
(-2.09167e-06 6.70898e-07 0)
(-2.24416e-06 6.84064e-07 0)
(-2.39948e-06 6.9837e-07 0)
(-2.55852e-06 7.13955e-07 0)
(-2.72134e-06 7.30212e-07 0)
(-2.88754e-06 7.47588e-07 0)
(-3.05818e-06 7.65903e-07 0)
(-3.23334e-06 7.84792e-07 0)
(-3.41269e-06 8.04352e-07 0)
(-3.59712e-06 8.24707e-07 0)
(-3.78711e-06 8.45742e-07 0)
(-3.98232e-06 8.67284e-07 0)
(-4.18287e-06 8.89738e-07 0)
(-4.38948e-06 9.13024e-07 0)
(-4.60199e-06 9.36802e-07 0)
(-4.81992e-06 9.61044e-07 0)
(-5.0432e-06 9.85527e-07 0)
(-5.27254e-06 1.01077e-06 0)
(-5.50838e-06 1.03633e-06 0)
(-5.75026e-06 1.06196e-06 0)
(-5.99809e-06 1.08755e-06 0)
(-6.2516e-06 1.1131e-06 0)
(-6.51113e-06 1.13894e-06 0)
(-6.77711e-06 1.16525e-06 0)
(-7.04915e-06 1.19177e-06 0)
(-7.32693e-06 1.21822e-06 0)
(-7.61051e-06 1.24512e-06 0)
(-7.90002e-06 1.27201e-06 0)
(-8.19558e-06 1.29946e-06 0)
(-8.49721e-06 1.32707e-06 0)
(-8.80519e-06 1.35427e-06 0)
(-9.11954e-06 1.38036e-06 0)
(-9.44014e-06 1.4041e-06 0)
(-9.76694e-06 1.424e-06 0)
(-1.00995e-05 1.43844e-06 0)
(-1.0437e-05 1.44539e-06 0)
(-1.07783e-05 1.44276e-06 0)
(-1.11213e-05 1.42844e-06 0)
(-1.14633e-05 1.40012e-06 0)
(-1.18009e-05 1.35573e-06 0)
(-1.213e-05 1.2937e-06 0)
(-1.24459e-05 1.21274e-06 0)
(-1.27434e-05 1.11216e-06 0)
(-1.30173e-05 9.91791e-07 0)
(-1.32621e-05 8.52002e-07 0)
(-1.34725e-05 6.93865e-07 0)
(-1.36436e-05 5.19206e-07 0)
(-1.37711e-05 3.30539e-07 0)
(-1.38516e-05 1.30939e-07 0)
(-1.38825e-05 -7.62595e-08 0)
(-1.38618e-05 -2.87179e-07 0)
(-1.37894e-05 -4.97566e-07 0)
(-1.36658e-05 -7.03055e-07 0)
(-1.34926e-05 -8.99096e-07 0)
(-1.32725e-05 -1.0815e-06 0)
(-1.3009e-05 -1.2459e-06 0)
(-1.27069e-05 -1.38876e-06 0)
(-1.23715e-05 -1.50635e-06 0)
(-1.20091e-05 -1.59596e-06 0)
(-1.16267e-05 -1.65493e-06 0)
(-1.12319e-05 -1.68107e-06 0)
(-1.08329e-05 -1.67268e-06 0)
(-1.04383e-05 -1.62805e-06 0)
(-1.00572e-05 -1.54611e-06 0)
(-9.69887e-06 -1.42613e-06 0)
(-9.37269e-06 -1.26758e-06 0)
(-9.08812e-06 -1.07038e-06 0)
(-8.85447e-06 -8.34844e-07 0)
(-8.68087e-06 -5.61643e-07 0)
(-8.57681e-06 -2.52285e-07 0)
(-8.55162e-06 9.13813e-08 0)
(-8.61401e-06 4.66117e-07 0)
(-8.77248e-06 8.68238e-07 0)
(-9.03485e-06 1.29265e-06 0)
(-9.40791e-06 1.73283e-06 0)
(-9.89711e-06 2.18051e-06 0)
(-1.05054e-05 2.62517e-06 0)
(-1.1238e-05 3.05414e-06 0)
(-1.20708e-05 3.45165e-06 0)
(-1.3148e-05 3.80042e-06 0)
(-1.37838e-05 4.06375e-06 0)
(-1.59337e-05 4.20395e-06 0)
(-1.54828e-05 3.77934e-06 0)
(-1.8438e-05 1.46981e-06 0)
(3.96845e-09 6.99931e-08 0)
(-4.57204e-08 4.57638e-07 0)
(-1.79439e-07 6.12305e-07 0)
(-2.92299e-07 6.47931e-07 0)
(-4.30625e-07 6.52683e-07 0)