/*--------------------------------*- C++ -*----------------------------------*\
| =========                 |                                                 |
| \\      /  F ield         | OpenFOAM: The Open Source CFD Toolbox           |
|  \\    /   O peration     | Version:  2.4.0                                 |
|   \\  /    A nd           | Web:      www.OpenFOAM.org                      |
|    \\/     M anipulation  |                                                 |
\*---------------------------------------------------------------------------*/
FoamFile
{
    version     2.0;
    format      ascii;
    class       volScalarField;
    location    "0.008";
    object      p;
}
// * * * * * * * * * * * * * * * * * * * * * * * * * * * * * * * * * * * * * //

dimensions      [1 -1 -2 0 0 0 0];

internalField   nonuniform List<scalar> 
3600
(
83.4161
83.4383
83.5115
83.6424
83.8439
84.1312
84.5194
85.0209
85.6435
86.3871
87.2413
88.1845
89.1846
90.2025
91.1973
92.1314
92.9747
93.7075
94.3209
94.8156
95.1996
95.4875
95.6936
95.8379
95.9311
95.9931
96.0269
96.0494
96.0581
96.0649
80.0416
80.0701
80.1458
80.2794
80.4857
80.7803
81.1778
81.6908
82.3263
83.0836
83.9511
84.9062
85.916
86.941
87.9402
88.8766
89.7205
90.453
91.0655
91.5592
91.9423
92.2294
92.4349
92.5788
92.6717
92.7335
92.7671
92.7896
92.7983
92.8051
76.5558
76.5853
76.6657
76.8075
77.0256
77.3359
77.7534
78.29
78.952
79.7368
80.631
81.6099
82.6389
83.6779
84.6858
85.6265
86.4718
87.2035
87.8143
88.3061
88.6873
88.973
89.1772
89.3204
89.4126
89.4741
89.5075
89.5298
89.5385
89.5452
72.9556
72.9867
73.0739
73.2278
73.4637
73.7982
74.2461
74.8189
75.5212
76.3478
77.2823
78.2968
79.3545
80.4139
81.4346
82.3816
83.2285
83.9591
84.5675
85.0563
85.4348
85.7182
85.9207
86.0626
86.154
86.215
86.248
86.2702
86.2787
86.2854
69.2294
69.2643
69.3614
69.5321
69.7929
70.1609
70.6513
71.2742
72.032
72.916
73.9053
74.9678
76.0635
77.15
78.1872
79.1422
79.991
80.72
81.3249
81.8098
82.1846
82.465
82.6652
82.8055
82.8958
82.956
82.9886
83.0105
83.0189
83.0256
65.3662
65.4062
65.5165
65.7096
66.0035
66.4163
66.9629
67.652
68.4826
69.4411
70.5008
71.6241
72.7675
73.8872
74.9443
75.9087
76.7595
77.4861
78.0866
78.5666
78.9368
79.2135
79.4108
79.549
79.6379
79.6972
79.7293
79.7509
79.7592
79.7658
61.3494
61.3961
61.5236
61.7459
62.0829
62.5537
63.173
63.9473
64.8707
65.923
67.0701
68.2678
69.4683
70.6271
71.707
72.6817
73.5344
74.2577
74.8527
75.3267
75.6914
75.9635
76.1574
76.2932
76.3805
76.4387
76.4702
76.4914
76.4996
76.506
57.1558
57.2113
57.3609
57.6208
58.0134
58.5588
59.2713
60.1537
61.1936
62.3619
63.615
64.9011
66.1681
67.3712
68.4764
69.462
70.3158
71.0349
71.6231
72.09
72.4483
72.7152
72.9051
73.038
73.1234
73.1804
73.2112
73.2319
73.2399
73.2462
52.7544
52.8214
52.9996
53.3081
53.7721
54.4135
55.2448
56.2636
57.4484
58.7584
60.1382
61.5273
62.8697
64.1219
65.2539
66.2501
67.1042
67.8178
68.398
68.8566
69.2075
69.4684
69.6537
69.7834
69.8667
69.9223
69.9523
69.9725
69.9802
69.9864
48.1045
48.1858
48.4011
48.7725
49.3292
50.0943
51.0776
52.2686
53.6328
55.1141
56.6433
58.1505
59.5767
60.8814
62.0409
63.0471
63.9001
64.6066
65.1774
65.6264
65.969
66.2231
66.4035
66.5295
66.6104
66.6644
66.6935
66.7132
66.7207
66.7266
43.1505
43.2503
43.5138
43.9678
44.6459
45.5717
46.7502
48.1586
49.7445
51.432
53.1355
54.7759
56.2932
57.6524
58.839
59.8536
60.7037
61.4014
61.9613
62.3995
62.7327
62.9793
63.1541
63.2761
63.3544
63.4066
63.4348
63.4538
63.4611
63.4669
37.8177
37.9414
38.2697
38.8338
39.6721
40.8087
42.2396
43.9235
45.7829
47.7169
49.6215
51.4098
53.0238
54.4382
55.65
56.6707
57.5155
58.2024
58.7496
59.1757
59.4986
59.737
59.9056
60.0233
60.0987
60.1491
60.1762
60.1945
60.2015
60.2071
32.0047
32.1625
32.5792
33.2909
34.343
35.7587
37.5188
39.5533
41.7497
43.9766
46.1107
48.06
49.7742
51.2421
52.4758
53.4992
54.3359
55.0096
55.5425
55.9552
56.2666
56.4961
56.6581
56.7711
56.8435
56.8918
56.9178
56.9353
56.942
56.9474
25.5721
25.7802
26.3199
27.2311
28.5723
30.3628
32.5568
35.0393
37.6505
40.2226
42.6147
44.7359
46.5502
48.0674
49.318
50.3398
51.1652
51.8233
52.3398
52.7376
53.0367
53.2565
53.4115
53.5194
53.5885
53.6346
53.6594
53.6761
53.6825
53.6876
18.3264
18.6062
19.3231
20.5059
22.2447
24.5473
27.3197
30.3773
33.4972
36.472
39.1491
41.4484
43.3586
44.9177
46.1784
47.1934
48.0037
48.6433
49.1416
49.5231
49.8088
50.0182
50.1656
50.2682
50.3338
50.3775
50.4011
50.417
50.423
50.4278
9.97136
10.3651
11.3532
12.9041
15.2023
18.2195
21.7732
25.5713
29.3107
32.7487
35.7332
38.2105
40.2064
41.7963
43.0585
44.0608
44.8516
45.4698
45.9477
46.3116
46.5829
46.7813
46.9206
47.0175
47.0794
47.1207
47.1429
47.1579
47.1636
47.1681
0.0596797
0.64396
2.07201
4.10838
7.22275
11.2638
15.8884
20.6398
25.1255
29.0852
32.3911
35.0364
37.101
38.7064
39.9596
40.9422
41.709
42.3028
42.7582
43.1028
43.3588
43.5455
43.6763
43.7673
43.8253
43.864
43.8848
43.8988
43.9041
43.9084
-12.0677
-11.1525
-9.01342
-6.38065
-2.01136
3.54262
9.65611
15.6282
20.9947
25.5246
29.1514
31.9419
34.0494
35.6508
36.8827
37.838
38.576
39.142
39.5727
39.8968
40.1365
40.3108
40.4328
40.5174
40.5714
40.6074
40.6267
40.6398
40.6447
40.6487
-27.7901
-26.0791
-22.9714
-19.4481
-12.9641
-5.08488
3.11995
10.6241
16.9959
22.1222
26.0476
28.9432
31.0578
32.6312
33.8284
34.7486
35.4527
35.9876
36.3914
36.6934
36.9159
37.0772
37.1899
37.268
37.3178
37.351
37.3688
37.3808
37.3853
37.389
-48.5207
-44.8515
-42.5641
-37.2277
-26.3493
-14.7666
-3.58938
5.7796
13.2348
18.9445
23.1164
26.0569
28.1306
29.6484
30.7966
31.6737
32.3387
32.8391
33.2138
33.4924
33.6968
33.8446
33.9476
34.019
34.0643
34.0946
34.1108
34.1218
34.1259
34.1292
-6.44625
-13.6465
-34.1117
-47.0649
-42.7709
-25.4438
-10.1031
1.32691
9.84332
16.0682
20.3961
23.2967
25.27
26.7017
27.787
28.613
29.2339
29.6964
30.0399
30.2937
30.4791
30.6128
30.7058
30.7702
30.8111
30.8384
30.853
30.8628
30.8665
30.8695
1.58691
1.65485
1.53188
-6.65771
-47.531
-36.9308
-15.5679
-2.40649
6.9677
13.5737
17.9287
20.6735
22.4738
23.7887
24.7983
25.5662
26.138
26.5593
26.8694
27.0972
27.2628
27.382
27.4647
27.5218
27.5581
27.5823
27.5952
27.604
27.6072
27.6099
1.41005
1.40906
1.23232
0.558597
-9.39986
-42.0476
-18.4222
-5.13807
4.75046
11.5452
15.7527
18.192
19.7342
20.9046
21.8291
22.5326
23.0504
23.4273
23.7021
23.9025
24.0477
24.1518
24.2239
24.2737
24.3052
24.3263
24.3374
24.345
24.3478
24.3501
1.36582
1.31716
1.55891
1.2126
-4.68264
-36.2397
-17.9446
-6.82673
3.31527
10.0665
13.904
15.8457
17.0357
18.0428
18.8773
19.5114
19.9708
20.2999
20.5375
20.7096
20.8336
20.9222
20.9835
21.0258
21.0525
21.0703
21.0797
21.0861
21.0885
21.0904
1.12408
1.08219
1.05254
1.06683
0.497321
-17.8174
-21.4919
-7.2791
2.82045
9.23051
12.4248
13.6135
14.3526
15.1943
15.9408
16.502
16.8984
17.1769
17.3755
17.5182
17.6204
17.6933
17.7435
17.7781
17.7999
17.8144
17.8221
17.8273
17.8292
17.8308
0.908676
0.890263
0.858656
0.760237
0.664144
-9.91703
-24.1158
-6.04679
3.30111
8.87444
11.3251
11.4401
11.6448
12.3486
13.0179
13.5037
13.8326
14.0576
14.2155
14.3279
14.408
14.4648
14.5037
14.5305
14.5473
14.5586
14.5644
14.5685
14.5698
14.5711
0.756246
0.746197
0.71443
0.659264
0.589345
-4.06632
-13.1908
-2.12738
5.10762
11.5566
10.8563
9.27223
8.86012
9.49539
10.1083
10.5162
10.7727
10.9413
11.0572
11.1387
11.1961
11.2366
11.2642
11.2831
11.2949
11.3027
11.3068
11.3096
11.3105
11.3114
0.629333
0.621284
0.602738
0.556972
0.457461
-0.149191
-7.90557
-0.0452736
6.47647
9.75444
10.1205
6.791
5.87424
6.60752
7.20367
7.533
7.71387
7.82489
7.89856
7.94903
7.98391
8.00815
8.02445
8.03556
8.04236
8.04692
8.04917
8.05077
8.0512
8.05169
0.51827
0.503099
0.454908
0.369678
0.31311
-0.25575
-8.41025
-5.02301
7.62813
14.7044
11.0288
4.34381
2.74618
3.75843
4.36327
4.5916
4.68096
4.72558
4.75151
4.7673
4.77707
4.78327
4.78702
4.78944
4.79069
4.79156
4.79178
4.79205
4.79193
4.79202
0.593298
0.562703
0.494211
0.428163
0.365379
0.137687
-1.22254
10.9967
9.76903
14.5172
11.9078
0.439194
-1.084
0.82332
1.52349
1.63789
1.6328
1.61433
1.59574
1.57935
1.5659
1.55545
1.54766
1.54209
1.53826
1.53575
1.53414
1.53319
1.53259
1.53232
96.0654
96.0668
96.0666
96.0672
96.0672
96.0674
96.0675
96.0676
96.0677
96.0677
96.0678
96.0677
96.0678
96.0677
96.0678
96.0678
96.0678
96.0678
96.0678
96.0678
96.0678
96.0678
96.0678
96.0678
96.0678
96.0678
96.0678
96.0678
96.0678
96.0678
92.8055
92.807
92.8067
92.8074
92.8073
92.8076
92.8077
92.8077
92.8078
92.8078
92.8079
92.8078
92.8079
92.8079
92.8079
92.8079
92.8079
92.8079
92.8079
92.808
92.8079
92.808
92.8079
92.808
92.808
92.808
92.808
92.808
92.808
92.808
89.5456
89.5471
89.5468
89.5475
89.5475
89.5477
89.5478
89.5478
89.548
89.5479
89.548
89.548
89.5481
89.548
89.5481
89.548
89.5481
89.5481
89.5481
89.5481
89.5481
89.5481
89.5481
89.5481
89.5481
89.5481
89.5481
89.5481
89.5481
89.5481
86.2858
86.2873
86.287
86.2876
86.2876
86.2879
86.288
86.288
86.2881
86.2881
86.2882
86.2881
86.2882
86.2882
86.2882
86.2882
86.2882
86.2882
86.2882
86.2882
86.2882
86.2883
86.2882
86.2883
86.2882
86.2883
86.2883
86.2883
86.2883
86.2883
83.0259
83.0274
83.0272
83.0278
83.0278
83.028
83.0281
83.0281
83.0282
83.0282
83.0283
83.0282
83.0283
83.0283
83.0284
83.0283
83.0284
83.0283
83.0284
83.0284
83.0283
83.0284
83.0284
83.0284
83.0284
83.0284
83.0284
83.0284
83.0284
83.0284
79.7661
79.7675
79.7673
79.7679
79.7679
79.7681
79.7682
79.7682
79.7684
79.7683
79.7684
79.7684
79.7685
79.7684
79.7685
79.7684
79.7685
79.7685
79.7685
79.7685
79.7685
79.7685
79.7685
79.7685
79.7685
79.7685
79.7685
79.7685
79.7685
79.7685
76.5063
76.5077
76.5075
76.5081
76.5081
76.5083
76.5084
76.5084
76.5085
76.5085
76.5086
76.5085
76.5086
76.5086
76.5086
76.5086
76.5086
76.5086
76.5086
76.5087
76.5086
76.5087
76.5086
76.5087
76.5087
76.5087
76.5087
76.5087
76.5087
76.5087
73.2465
73.2479
73.2477
73.2482
73.2482
73.2484
73.2485
73.2485
73.2487
73.2486
73.2487
73.2487
73.2488
73.2487
73.2488
73.2487
73.2488
73.2488
73.2488
73.2488
73.2488
73.2488
73.2488
73.2488
73.2488
73.2488
73.2488
73.2488
73.2488
73.2488
69.9867
69.988
69.9878
69.9883
69.9884
69.9886
69.9887
69.9887
69.9888
69.9887
69.9888
69.9888
69.9889
69.9888
69.9889
69.9889
69.9889
69.9889
69.9889
69.9889
69.9889
69.9889
69.9889
69.9889
69.9889
69.9889
69.9889
69.9889
69.9889
69.9889
66.7269
66.7282
66.728
66.7285
66.7286
66.7287
66.7288
66.7289
66.729
66.7289
66.729
66.729
66.729
66.729
66.7291
66.729
66.7291
66.7291
66.7291
66.7291
66.7291
66.7291
66.7291
66.7291
66.7291
66.7291
66.7291
66.7291
66.7291
66.7291
63.4671
63.4684
63.4682
63.4687
63.4687
63.4689
63.469
63.469
63.4691
63.469
63.4691
63.4691
63.4692
63.4691
63.4692
63.4691
63.4692
63.4692
63.4692
63.4692
63.4692
63.4692
63.4692
63.4692
63.4692
63.4692
63.4692
63.4692
63.4692
63.4692
60.2073
60.2085
60.2084
60.2088
60.2089
60.209
60.2091
60.2091
60.2092
60.2092
60.2093
60.2092
60.2093
60.2092
60.2093
60.2093
60.2093
60.2093
60.2093
60.2093
60.2093
60.2093
60.2093
60.2093
60.2093
60.2093
60.2093
60.2093
60.2093
60.2093
56.9476
56.9487
56.9486
56.949
56.9491
56.9492
56.9493
56.9493
56.9494
56.9494
56.9494
56.9494
56.9495
56.9494
56.9495
56.9494
56.9495
56.9495
56.9495
56.9495
56.9495
56.9495
56.9495
56.9495
56.9495
56.9495
56.9495
56.9495
56.9495
56.9495
53.6878
53.6889
53.6888
53.6892
53.6892
53.6893
53.6894
53.6894
53.6895
53.6895
53.6896
53.6895
53.6896
53.6895
53.6896
53.6896
53.6896
53.6896
53.6896
53.6896
53.6896
53.6896
53.6896
53.6896
53.6896
53.6896
53.6896
53.6896
53.6896
53.6896
50.4281
50.429
50.4289
50.4293
50.4294
50.4295
50.4296
50.4296
50.4297
50.4296
50.4297
50.4296
50.4297
50.4297
50.4297
50.4297
50.4297
50.4297
50.4297
50.4297
50.4297
50.4297
50.4297
50.4297
50.4297
50.4297
50.4297
50.4297
50.4297
50.4297
47.1683
47.1693
47.1692
47.1695
47.1696
47.1697
47.1697
47.1697
47.1698
47.1698
47.1699
47.1698
47.1699
47.1698
47.1699
47.1699
47.1699
47.1699
47.1699
47.1699
47.1699
47.1699
47.1699
47.1699
47.1699
47.1699
47.1699
47.1699
47.1699
47.1699
43.9086
43.9094
43.9094
43.9097
43.9097
43.9098
43.9099
43.9099
43.91
43.9099
43.91
43.9099
43.91
43.91
43.91
43.91
43.91
43.91
43.91
43.91
43.91
43.91
43.91
43.91
43.91
43.91
43.91
43.91
43.91
43.91
40.6488
40.6496
40.6495
40.6498
40.6499
40.65
40.65
40.65
40.6501
40.6501
40.6501
40.6501
40.6501
40.6501
40.6501
40.6501
40.6501
40.6501
40.6501
40.6501
40.6501
40.6502
40.6501
40.6502
40.6501
40.6502
40.6502
40.6502
40.6502
40.6502
37.3891
37.3898
37.3898
37.39
37.3901
37.3901
37.3902
37.3902
37.3903
37.3902
37.3903
37.3903
37.3903
37.3903
37.3903
37.3903
37.3903
37.3903
37.3903
37.3903
37.3903
37.3903
37.3903
37.3903
37.3903
37.3903
37.3903
37.3903
37.3903
37.3903
34.1294
34.13
34.13
34.1302
34.1302
34.1303
34.1304
34.1303
34.1304
34.1304
34.1304
34.1304
34.1304
34.1304
34.1304
34.1304
34.1304
34.1304
34.1304
34.1304
34.1304
34.1304
34.1304
34.1304
34.1304
34.1304
34.1304
34.1304
34.1304
34.1304
30.8696
30.8702
30.8702
30.8704
30.8704
30.8704
30.8705
30.8705
30.8705
30.8705
30.8705
30.8705
30.8705
30.8705
30.8705
30.8705
30.8705
30.8705
30.8705
30.8706
30.8705
30.8706
30.8706
30.8706
30.8706
30.8706
30.8706
30.8706
30.8706
30.8706
27.6099
27.6104
27.6104
27.6106
27.6106
27.6106
27.6107
27.6107
27.6107
27.6107
27.6107
27.6107
27.6107
27.6107
27.6107
27.6107
27.6107
27.6107
27.6107
27.6107
27.6107
27.6107
27.6107
27.6107
27.6107
27.6107
27.6107
27.6107
27.6107
27.6107
24.3502
24.3506
24.3506
24.3507
24.3508
24.3508
24.3508
24.3508
24.3508
24.3508
24.3508
24.3508
24.3508
24.3508
24.3508
24.3508
24.3508
24.3508
24.3508
24.3509
24.3508
24.3509
24.3509
24.3509
24.3509
24.3509
24.3509
24.3509
24.3509
24.3509
21.0905
21.0908
21.0908
21.0909
21.0909
21.0909
21.091
21.0909
21.091
21.0909
21.091
21.0909
21.091
21.0909
21.091
21.091
21.091
21.091
21.091
21.091
21.091
21.091
21.091
21.091
21.091
21.091
21.091
21.091
21.091
21.091
17.8308
17.8311
17.831
17.8311
17.8311
17.8311
17.8312
17.8311
17.8312
17.8311
17.8311
17.8311
17.8311
17.8311
17.8311
17.8311
17.8311
17.8311
17.8311
17.8311
17.8311
17.8312
17.8311
17.8312
17.8312
17.8312
17.8312
17.8312
17.8312
17.8312
14.571
14.5713
14.5712
14.5713
14.5713
14.5713
14.5713
14.5713
14.5713
14.5713
14.5713
14.5713
14.5713
14.5712
14.5713
14.5712
14.5713
14.5713
14.5712
14.5713
14.5712
14.5713
14.5713
14.5713
14.5713
14.5713
14.5713
14.5713
14.5713
14.5713
11.3113
11.3115
11.3114
11.3115
11.3114
11.3114
11.3114
11.3114
11.3114
11.3114
11.3114
11.3114
11.3114
11.3114
11.3114
11.3114
11.3114
11.3114
11.3114
11.3114
11.3114
11.3114
11.3114
11.3114
11.3114
11.3114
11.3114
11.3114
11.3114
11.3114
8.0516
8.05169
8.05165
8.05167
8.05164
8.05163
8.05162
8.0516
8.0516
8.05158
8.05158
8.05156
8.05156
8.05155
8.05155
8.05155
8.05155
8.05155
8.05154
8.05155
8.05155
8.05155
8.05155
8.05155
8.05156
8.05156
8.05156
8.05156
8.05155
8.05158
4.79188
4.79191
4.79186
4.79185
4.79181
4.79179
4.79177
4.79174
4.79173
4.79171
4.79171
4.79169
4.79169
4.79168
4.79168
4.79168
4.79168
4.79168
4.79168
4.79168
4.79168
4.79168
4.79168
4.79169
4.79169
4.79169
4.79169
4.79169
4.79167
4.79171
1.53213
1.53211
1.53204
1.53202
1.53197
1.53194
1.53191
1.53188
1.53186
1.53184
1.53183
1.53182
1.53181
1.53181
1.5318
1.5318
1.5318
1.5318
1.53179
1.5318
1.5318
1.5318
1.5318
1.5318
1.5318
1.53181
1.53181
1.5318
1.53179
1.53183
0.384655
0.37116
0.335269
0.315509
0.255111
0.276384
0.270162
0.0697724
-2.86282
23.3263
13.346
-0.490046
-0.550245
0.0313048
0.0499308
0.0137235
-0.0189592
-0.0426819
-0.0597188
-0.0720275
-0.0809602
-0.0874058
-0.0920181
-0.0952418
-0.0974486
-0.0988999
-0.0998478
-0.10042
-0.100802
-0.100986
0.257547
0.253823
0.251173
0.251368
0.193467
0.0241725
-0.103176
-0.208713
-0.251362
0.488233
-0.0481863
-0.157053
-0.0937576
-0.0868554
-0.0983234
-0.10281
-0.104713
-0.105646
-0.106143
-0.106425
-0.106603
-0.106739
-0.106868
-0.106996
-0.107129
-0.107251
-0.107379
-0.107481
-0.107589
-0.107661
0.140343
0.134784
0.143978
0.127854
0.0348884
-0.0362633
0.0386227
-0.102984
-0.270014
-0.199676
-0.198353
-0.142024
-0.108265
-0.10739
-0.108256
-0.109983
-0.111241
-0.112051
-0.112546
-0.112854
-0.113062
-0.113226
-0.113375
-0.113516
-0.113658
-0.113785
-0.113917
-0.11402
-0.114129
-0.114202
0.0197917
0.0120625
-0.00682547
-0.0313031
-0.0748674
-0.0824889
-0.0921447
-0.103447
-0.144205
-0.138343
-0.144828
-0.134384
-0.1188
-0.115537
-0.115602
-0.116728
-0.117726
-0.118463
-0.118962
-0.119296
-0.119534
-0.119722
-0.119889
-0.120042
-0.120192
-0.120323
-0.120457
-0.120562
-0.120671
-0.120744
0.0222731
0.0134084
-0.000119808
-0.0122182
-0.020595
-0.0531554
-0.0805898
-0.120761
-0.137417
-0.140624
-0.142699
-0.134138
-0.126108
-0.123452
-0.122934
-0.123542
-0.124281
-0.124926
-0.125409
-0.125757
-0.126017
-0.126226
-0.126408
-0.126572
-0.126728
-0.126863
-0.126999
-0.127105
-0.127213
-0.127286
-0.0682852
-0.0756543
-0.0865052
-0.0933857
-0.0994978
-0.105675
-0.110888
-0.116863
-0.128637
-0.136277
-0.138014
-0.135732
-0.132136
-0.130453
-0.12996
-0.130297
-0.130865
-0.131425
-0.131883
-0.132237
-0.132513
-0.132738
-0.132934
-0.133106
-0.133267
-0.133405
-0.133543
-0.133649
-0.133757
-0.133829
-0.137913
-0.14304
-0.143848
-0.136356
-0.129144
-0.126411
-0.126468
-0.128085
-0.13415
-0.137653
-0.139473
-0.139203
-0.137849
-0.137006
-0.136742
-0.13699
-0.137454
-0.137948
-0.138381
-0.138735
-0.139021
-0.139259
-0.139465
-0.139644
-0.13981
-0.13995
-0.140088
-0.140194
-0.140301
-0.140374
-0.180836
-0.191225
-0.188584
-0.172261
-0.151693
-0.140812
-0.13646
-0.137333
-0.139457
-0.141979
-0.143437
-0.143939
-0.143663
-0.143406
-0.143376
-0.143629
-0.144039
-0.144486
-0.144897
-0.145248
-0.145541
-0.145788
-0.146002
-0.146187
-0.146356
-0.146497
-0.146635
-0.146741
-0.146847
-0.146918
-0.13522
-0.147143
-0.152093
-0.148323
-0.144631
-0.142491
-0.142537
-0.143643
-0.145492
-0.147312
-0.148652
-0.149419
-0.149673
-0.149784
-0.149943
-0.150234
-0.150621
-0.151037
-0.15143
-0.151776
-0.152073
-0.152325
-0.152545
-0.152733
-0.152904
-0.153046
-0.153184
-0.153288
-0.153393
-0.153463
-0.106087
-0.1149
-0.127035
-0.136285
-0.142444
-0.145973
-0.148234
-0.150099
-0.151793
-0.153329
-0.154532
-0.155373
-0.15587
-0.156197
-0.156488
-0.156822
-0.157202
-0.157599
-0.157978
-0.158319
-0.158616
-0.158871
-0.159094
-0.159285
-0.159456
-0.159598
-0.159734
-0.159838
-0.15994
-0.160009
-0.127835
-0.131785
-0.139097
-0.145339
-0.149658
-0.152794
-0.155182
-0.156818
-0.158391
-0.159719
-0.160799
-0.16163
-0.162224
-0.162666
-0.16304
-0.163408
-0.163788
-0.164172
-0.164539
-0.164873
-0.165169
-0.165425
-0.165648
-0.16584
-0.166011
-0.166152
-0.166286
-0.166388
-0.166488
-0.166555
-0.151235
-0.152428
-0.15468
-0.1572
-0.159268
-0.161109
-0.162703
-0.164059
-0.165285
-0.166375
-0.167313
-0.168088
-0.168703
-0.169195
-0.169613
-0.170002
-0.170383
-0.170757
-0.171113
-0.17144
-0.171731
-0.171986
-0.172208
-0.172399
-0.172568
-0.172708
-0.172839
-0.172939
-0.173036
-0.173102
-0.165139
-0.165518
-0.166239
-0.167194
-0.168244
-0.169312
-0.170359
-0.171356
-0.172301
-0.173184
-0.173983
-0.174684
-0.175278
-0.175779
-0.176214
-0.176612
-0.176991
-0.177355
-0.1777
-0.178018
-0.178304
-0.178556
-0.178775
-0.178962
-0.179129
-0.179266
-0.179395
-0.179492
-0.179586
-0.17965
-0.17524
-0.175368
-0.175647
-0.176071
-0.176613
-0.177241
-0.177932
-0.178647
-0.17937
-0.18008
-0.180755
-0.181374
-0.181926
-0.182413
-0.182845
-0.18324
-0.183612
-0.183965
-0.184299
-0.184607
-0.184886
-0.185131
-0.185346
-0.18553
-0.185693
-0.185826
-0.185951
-0.186046
-0.186137
-0.186198
-0.183763
-0.183815
-0.183946
-0.18417
-0.184498
-0.184902
-0.185375
-0.185899
-0.186456
-0.187027
-0.187592
-0.188131
-0.188631
-0.189088
-0.189503
-0.189887
-0.190248
-0.190589
-0.19091
-0.191206
-0.191475
-0.191713
-0.191922
-0.192101
-0.192259
-0.192389
-0.192509
-0.192601
-0.192688
-0.192747
-0.191625
-0.191649
-0.19173
-0.191877
-0.192092
-0.192374
-0.192716
-0.19311
-0.193543
-0.194002
-0.194471
-0.194934
-0.195379
-0.195798
-0.196189
-0.196554
-0.196899
-0.197225
-0.197531
-0.197815
-0.198073
-0.198302
-0.198504
-0.198676
-0.198829
-0.198954
-0.199069
-0.199157
-0.19924
-0.199296
-0.199183
-0.199203
-0.199264
-0.19937
-0.199525
-0.19973
-0.199983
-0.200282
-0.200619
-0.200986
-0.201373
-0.201766
-0.202157
-0.202535
-0.202896
-0.203239
-0.203564
-0.203873
-0.204163
-0.204433
-0.204678
-0.204897
-0.20509
-0.205254
-0.2054
-0.20552
-0.20563
-0.205714
-0.205792
-0.205846
-0.206598
-0.206614
-0.206661
-0.206739
-0.206851
-0.207
-0.207188
-0.207414
-0.207676
-0.207968
-0.208285
-0.208617
-0.208956
-0.209293
-0.209621
-0.209938
-0.210242
-0.210531
-0.210804
-0.211058
-0.21129
-0.211497
-0.21168
-0.211836
-0.211975
-0.212088
-0.212192
-0.212271
-0.212345
-0.212396
-0.213907
-0.213919
-0.213952
-0.214006
-0.214086
-0.214193
-0.214331
-0.214502
-0.214705
-0.214938
-0.215198
-0.215477
-0.215769
-0.216066
-0.216362
-0.216652
-0.216932
-0.217201
-0.217455
-0.217691
-0.217908
-0.218102
-0.218274
-0.218421
-0.218552
-0.218658
-0.218756
-0.21883
-0.2189
-0.218947
-0.22111
-0.221118
-0.221139
-0.221176
-0.221231
-0.221309
-0.221412
-0.221542
-0.221702
-0.221889
-0.222103
-0.222338
-0.22259
-0.22285
-0.223114
-0.223376
-0.223632
-0.223878
-0.224112
-0.224331
-0.224532
-0.224712
-0.224872
-0.225009
-0.225131
-0.22523
-0.225321
-0.22539
-0.225454
-0.225498
-0.228213
-0.228217
-0.228231
-0.228257
-0.228297
-0.228355
-0.228435
-0.228538
-0.228667
-0.22882
-0.228999
-0.229198
-0.229414
-0.229641
-0.229875
-0.230109
-0.23034
-0.230564
-0.230777
-0.230977
-0.231161
-0.231326
-0.231473
-0.2316
-0.231711
-0.231803
-0.231887
-0.23195
-0.232009
-0.232049
-0.235234
-0.235237
-0.235247
-0.235267
-0.2353
-0.235347
-0.235413
-0.235498
-0.235605
-0.235734
-0.235885
-0.236054
-0.23624
-0.236438
-0.236643
-0.23685
-0.237056
-0.237256
-0.237448
-0.237628
-0.237795
-0.237945
-0.238078
-0.238193
-0.238295
-0.238378
-0.238454
-0.238512
-0.238565
-0.238601
-0.2422
-0.242203
-0.242212
-0.24223
-0.242259
-0.242301
-0.242358
-0.242432
-0.242524
-0.242634
-0.242762
-0.242907
-0.243067
-0.243238
-0.243416
-0.243597
-0.243778
-0.243954
-0.244124
-0.244284
-0.244432
-0.244566
-0.244686
-0.244789
-0.244879
-0.244954
-0.245022
-0.245073
-0.245121
-0.245153
-0.249139
-0.249141
-0.24915
-0.249168
-0.249195
-0.249234
-0.249285
-0.24935
-0.24943
-0.249525
-0.249634
-0.249758
-0.249894
-0.25004
-0.250193
-0.250348
-0.250504
-0.250657
-0.250805
-0.250944
-0.251074
-0.251191
-0.251296
-0.251386
-0.251465
-0.251531
-0.251591
-0.251635
-0.251677
-0.251705
-0.25607
-0.256073
-0.256082
-0.256099
-0.256124
-0.256159
-0.256205
-0.256262
-0.256331
-0.256412
-0.256505
-0.256609
-0.256723
-0.256845
-0.256973
-0.257104
-0.257236
-0.257365
-0.25749
-0.257609
-0.257719
-0.257819
-0.257908
-0.257985
-0.258053
-0.258109
-0.25816
-0.258199
-0.258234
-0.258258
-0.263005
-0.263008
-0.263016
-0.263031
-0.263054
-0.263085
-0.263124
-0.263172
-0.26323
-0.263297
-0.263374
-0.263459
-0.263552
-0.263652
-0.263756
-0.263862
-0.26397
-0.264076
-0.264178
-0.264275
-0.264366
-0.264448
-0.264522
-0.264586
-0.264642
-0.264688
-0.26473
-0.264762
-0.264791
-0.264811
-0.269948
-0.269951
-0.269958
-0.269971
-0.269989
-0.270014
-0.270046
-0.270085
-0.270131
-0.270184
-0.270244
-0.27031
-0.270383
-0.27046
-0.270541
-0.270623
-0.270707
-0.270789
-0.270869
-0.270944
-0.271015
-0.27108
-0.271138
-0.271187
-0.271231
-0.271268
-0.271301
-0.271325
-0.271348
-0.271364
-0.2769
-0.276902
-0.276908
-0.276917
-0.276931
-0.276949
-0.276973
-0.277001
-0.277034
-0.277073
-0.277116
-0.277163
-0.277215
-0.27727
-0.277328
-0.277386
-0.277446
-0.277505
-0.277562
-0.277616
-0.277667
-0.277713
-0.277755
-0.277791
-0.277822
-0.277848
-0.277872
-0.27789
-0.277906
-0.277917
-0.283857
-0.283859
-0.283863
-0.283869
-0.283877
-0.283888
-0.283902
-0.283919
-0.28394
-0.283963
-0.283989
-0.284017
-0.284048
-0.284081
-0.284115
-0.284151
-0.284186
-0.284221
-0.284256
-0.284288
-0.284319
-0.284347
-0.284373
-0.284394
-0.284413
-0.284429
-0.284443
-0.284454
-0.284463
-0.28447
-0.290823
-0.290823
-0.290825
-0.290826
-0.290829
-0.290833
-0.290837
-0.290842
-0.290849
-0.290856
-0.290864
-0.290873
-0.290883
-0.290894
-0.290905
-0.290917
-0.290928
-0.29094
-0.290951
-0.290962
-0.290973
-0.290982
-0.290991
-0.290998
-0.291004
-0.291009
-0.291014
-0.291018
-0.291021
-0.291023
-0.101101
-0.101126
-0.101175
-0.101202
-0.10124
-0.101266
-0.101294
-0.101316
-0.101334
-0.101349
-0.101361
-0.101371
-0.101378
-0.101384
-0.101387
-0.10139
-0.101392
-0.101393
-0.101393
-0.101393
-0.101392
-0.101391
-0.101389
-0.101388
-0.101385
-0.101383
-0.101381
-0.101378
-0.101377
-0.101378
-0.107706
-0.107726
-0.107752
-0.107778
-0.107803
-0.107827
-0.107849
-0.107868
-0.107884
-0.107897
-0.107908
-0.107916
-0.107922
-0.107927
-0.10793
-0.107932
-0.107933
-0.107934
-0.107934
-0.107934
-0.107933
-0.107931
-0.10793
-0.107928
-0.107926
-0.107923
-0.107921
-0.107918
-0.107915
-0.107915
-0.114246
-0.114266
-0.114292
-0.114318
-0.114343
-0.114367
-0.114389
-0.114408
-0.114424
-0.114437
-0.114447
-0.114455
-0.114462
-0.114466
-0.114469
-0.114472
-0.114473
-0.114474
-0.114474
-0.114473
-0.114472
-0.114471
-0.114469
-0.114467
-0.114465
-0.114463
-0.11446
-0.114458
-0.114455
-0.114456
-0.120788
-0.120808
-0.120834
-0.12086
-0.120885
-0.120908
-0.12093
-0.120948
-0.120964
-0.120977
-0.120988
-0.120996
-0.121002
-0.121006
-0.12101
-0.121012
-0.121013
-0.121014
-0.121014
-0.121014
-0.121013
-0.121011
-0.12101
-0.121008
-0.121006
-0.121003
-0.121001
-0.120998
-0.120995
-0.120994
-0.127329
-0.12735
-0.127375
-0.127401
-0.127426
-0.127449
-0.12747
-0.127489
-0.127504
-0.127517
-0.127528
-0.127536
-0.127542
-0.127546
-0.127549
-0.127551
-0.127553
-0.127553
-0.127553
-0.127553
-0.127552
-0.127551
-0.127549
-0.127547
-0.127545
-0.127543
-0.12754
-0.127538
-0.127534
-0.127534
-0.133872
-0.133892
-0.133917
-0.133942
-0.133967
-0.13399
-0.134011
-0.134029
-0.134045
-0.134057
-0.134067
-0.134075
-0.134081
-0.134086
-0.134089
-0.134091
-0.134092
-0.134093
-0.134093
-0.134093
-0.134092
-0.13409
-0.134089
-0.134087
-0.134085
-0.134082
-0.13408
-0.134078
-0.134074
-0.134073
-0.140415
-0.140436
-0.14046
-0.140485
-0.140509
-0.140532
-0.140552
-0.14057
-0.140585
-0.140598
-0.140608
-0.140615
-0.140621
-0.140626
-0.140629
-0.140631
-0.140632
-0.140633
-0.140633
-0.140633
-0.140632
-0.14063
-0.140629
-0.140627
-0.140625
-0.140623
-0.14062
-0.140618
-0.140614
-0.140613
-0.146959
-0.146979
-0.147003
-0.147027
-0.147051
-0.147073
-0.147093
-0.147111
-0.147126
-0.147138
-0.147148
-0.147155
-0.147161
-0.147165
-0.147168
-0.14717
-0.147172
-0.147172
-0.147172
-0.147172
-0.147171
-0.14717
-0.147168
-0.147166
-0.147164
-0.147162
-0.14716
-0.147157
-0.147154
-0.147152
-0.153503
-0.153523
-0.153546
-0.15357
-0.153593
-0.153615
-0.153634
-0.153651
-0.153666
-0.153678
-0.153687
-0.153695
-0.153701
-0.153705
-0.153708
-0.15371
-0.153711
-0.153712
-0.153712
-0.153711
-0.15371
-0.153709
-0.153708
-0.153706
-0.153704
-0.153702
-0.153699
-0.153697
-0.153694
-0.153692
-0.160048
-0.160067
-0.16009
-0.160113
-0.160136
-0.160157
-0.160176
-0.160193
-0.160207
-0.160219
-0.160228
-0.160235
-0.160241
-0.160245
-0.160248
-0.16025
-0.160251
-0.160251
-0.160251
-0.160251
-0.16025
-0.160249
-0.160248
-0.160246
-0.160244
-0.160242
-0.160239
-0.160237
-0.160234
-0.160232
-0.166593
-0.166612
-0.166634
-0.166657
-0.166679
-0.166699
-0.166718
-0.166734
-0.166747
-0.166759
-0.166768
-0.166775
-0.16678
-0.166784
-0.166787
-0.166789
-0.16679
-0.166791
-0.166791
-0.16679
-0.166789
-0.166788
-0.166787
-0.166785
-0.166783
-0.166781
-0.166779
-0.166777
-0.166774
-0.166772
-0.173139
-0.173157
-0.173179
-0.1732
-0.173222
-0.173241
-0.173259
-0.173275
-0.173288
-0.173299
-0.173308
-0.173314
-0.17332
-0.173323
-0.173326
-0.173328
-0.173329
-0.17333
-0.17333
-0.173329
-0.173329
-0.173328
-0.173326
-0.173324
-0.173323
-0.173321
-0.173318
-0.173316
-0.173313
-0.173311
-0.179685
-0.179703
-0.179724
-0.179745
-0.179765
-0.179784
-0.179801
-0.179816
-0.179829
-0.17984
-0.179848
-0.179855
-0.17986
-0.179863
-0.179866
-0.179868
-0.179869
-0.179869
-0.179869
-0.179869
-0.179868
-0.179867
-0.179866
-0.179864
-0.179862
-0.17986
-0.179858
-0.179856
-0.179854
-0.179852
-0.186232
-0.186249
-0.186269
-0.186289
-0.186309
-0.186327
-0.186343
-0.186358
-0.18637
-0.18638
-0.186388
-0.186394
-0.186399
-0.186403
-0.186405
-0.186407
-0.186408
-0.186408
-0.186408
-0.186408
-0.186407
-0.186406
-0.186405
-0.186404
-0.186402
-0.1864
-0.186398
-0.186396
-0.186393
-0.186391
-0.192779
-0.192795
-0.192814
-0.192833
-0.192852
-0.19287
-0.192885
-0.192899
-0.192911
-0.19292
-0.192928
-0.192934
-0.192938
-0.192942
-0.192944
-0.192946
-0.192947
-0.192947
-0.192947
-0.192947
-0.192946
-0.192945
-0.192944
-0.192943
-0.192941
-0.192939
-0.192937
-0.192935
-0.192933
-0.192931
-0.199327
-0.199342
-0.199361
-0.199379
-0.199396
-0.199413
-0.199428
-0.199441
-0.199452
-0.199461
-0.199468
-0.199474
-0.199478
-0.199482
-0.199484
-0.199485
-0.199486
-0.199487
-0.199487
-0.199487
-0.199486
-0.199485
-0.199484
-0.199482
-0.199481
-0.199479
-0.199477
-0.199475
-0.199473
-0.199471
-0.205875
-0.20589
-0.205907
-0.205924
-0.20594
-0.205956
-0.20597
-0.205982
-0.205993
-0.206001
-0.206008
-0.206014
-0.206018
-0.206021
-0.206023
-0.206024
-0.206025
-0.206026
-0.206026
-0.206025
-0.206025
-0.206024
-0.206023
-0.206022
-0.20602
-0.206018
-0.206017
-0.206015
-0.206013
-0.206011
-0.212423
-0.212437
-0.212453
-0.212469
-0.212485
-0.212499
-0.212512
-0.212524
-0.212534
-0.212542
-0.212548
-0.212553
-0.212557
-0.21256
-0.212562
-0.212563
-0.212564
-0.212565
-0.212565
-0.212564
-0.212564
-0.212563
-0.212562
-0.212561
-0.212559
-0.212558
-0.212556
-0.212554
-0.212553
-0.212551
-0.218972
-0.218985
-0.219
-0.219015
-0.219029
-0.219043
-0.219055
-0.219066
-0.219075
-0.219083
-0.219089
-0.219093
-0.219097
-0.219099
-0.219101
-0.219103
-0.219103
-0.219104
-0.219104
-0.219104
-0.219103
-0.219102
-0.219101
-0.2191
-0.219099
-0.219097
-0.219096
-0.219094
-0.219093
-0.219091
-0.225521
-0.225533
-0.225547
-0.225561
-0.225574
-0.225587
-0.225598
-0.225608
-0.225616
-0.225623
-0.225629
-0.225633
-0.225636
-0.225639
-0.22564
-0.225642
-0.225642
-0.225643
-0.225643
-0.225642
-0.225642
-0.225641
-0.22564
-0.225639
-0.225638
-0.225637
-0.225635
-0.225634
-0.225632
-0.225631