/*--------------------------------*- C++ -*----------------------------------*\
| =========                 |                                                 |
| \\      /  F ield         | OpenFOAM: The Open Source CFD Toolbox           |
|  \\    /   O peration     | Version:  2.4.0                                 |
|   \\  /    A nd           | Web:      www.OpenFOAM.org                      |
|    \\/     M anipulation  |                                                 |
\*---------------------------------------------------------------------------*/
FoamFile
{
    version     2.0;
    format      ascii;
    class       surfaceScalarField;
    location    "0.008";
    object      phiAlpha;
}
// * * * * * * * * * * * * * * * * * * * * * * * * * * * * * * * * * * * * * //

dimensions      [0 3 -1 0 0 0 0];

internalField   nonuniform List<scalar> 
7080
(
2.53437e-12
-2.53415e-12
1.09195e-11
-8.3783e-12
2.66585e-11
-1.57232e-11
5.16799e-11
-2.49961e-11
8.76169e-11
-3.59069e-11
1.35639e-10
-4.799e-11
1.96169e-10
-6.04797e-11
2.68286e-10
-7.20515e-11
3.49246e-10
-8.08985e-11
4.34235e-10
-8.49129e-11
5.16486e-10
-8.21761e-11
5.8794e-10
-7.13684e-11
6.40422e-10
-5.24259e-11
6.67429e-10
-2.69342e-11
6.65455e-10
2.03891e-12
6.35187e-10
3.03285e-11
5.80519e-10
5.47204e-11
5.09219e-10
7.13599e-11
4.29309e-10
7.99562e-11
3.48439e-10
8.09005e-11
2.72321e-10
7.61716e-11
2.04826e-10
6.74846e-11
1.48279e-10
5.66206e-11
1.02866e-10
4.53513e-11
6.8524e-11
3.44397e-11
4.3341e-11
2.50792e-11
2.63329e-11
1.71134e-11
1.49002e-11
1.1331e-11
8.28848e-12
6.6938e-12
4.6782e-12
3.54683e-12
2.64105e-12
-5.16865e-12
1.18487e-11
-1.7563e-11
2.95659e-11
-3.34015e-11
5.76769e-11
-5.30529e-11
9.80829e-11
-7.62469e-11
1.52201e-10
-1.02036e-10
2.2042e-10
-1.28604e-10
3.01553e-10
-1.53069e-10
3.92325e-10
-1.7156e-10
4.87207e-10
-1.79667e-10
5.78523e-10
-1.73364e-10
6.57281e-10
-1.49989e-10
7.14488e-10
-1.09529e-10
7.43027e-10
-5.53521e-11
7.39361e-10
5.81588e-12
7.04341e-10
6.54488e-11
6.42752e-10
1.16403e-10
5.62933e-10
1.51264e-10
4.74047e-10
1.68935e-10
3.84166e-10
1.70803e-10
2.99886e-10
1.60573e-10
2.25219e-10
1.42081e-10
1.6284e-10
1.19166e-10
1.12808e-10
9.52206e-11
7.50829e-11
7.23643e-11
4.74724e-11
5.24871e-11
2.88339e-11
3.5937e-11
1.63393e-11
2.36621e-11
9.17463e-12
1.39801e-11
9.63175e-12
4.1153e-12
2.78157e-12
-7.94406e-12
1.24261e-11
-2.71875e-11
3.09557e-11
-5.18994e-11
6.03671e-11
-8.2419e-11
1.02484e-10
-1.18311e-10
1.58605e-10
-1.58099e-10
2.28971e-10
-1.9889e-10
3.12157e-10
-2.36157e-10
4.04621e-10
-2.6393e-10
5.0055e-10
-2.75486e-10
5.92033e-10
-2.64737e-10
6.69962e-10
-2.27797e-10
7.25434e-10
-1.64912e-10
7.51591e-10
-8.1402e-11
7.45366e-10
1.21404e-11
7.07864e-10
1.03041e-10
6.44465e-10
1.7989e-10
5.63362e-10
2.32445e-10
4.7382e-10
2.58565e-10
3.83548e-10
2.61092e-10
2.99268e-10
2.44971e-10
2.24585e-10
2.16693e-10
1.62373e-10
1.81541e-10
1.12433e-10
1.44999e-10
7.48308e-11
1.10164e-10
4.73199e-11
7.9798e-11
2.87479e-11
5.46917e-11
1.62771e-11
3.59717e-11
9.13265e-12
2.12448e-11
1.4104e-11
4.55413e-12
3.04098e-12
-1.09793e-11
1.34253e-11
-3.75536e-11
3.32037e-11
-7.16478e-11
6.446e-11
-1.13633e-10
1.09036e-10
-1.62837e-10
1.68104e-10
-2.17113e-10
2.41645e-10
-2.72357e-10
3.27853e-10
-3.22272e-10
4.22722e-10
-3.58712e-10
5.19969e-10
-3.7263e-10
6.11354e-10
-3.56021e-10
6.87677e-10
-3.04006e-10
7.40204e-10
-2.17357e-10
7.62562e-10
-1.03662e-10
7.52307e-10
2.24882e-11
7.11224e-10
1.44208e-10
6.45052e-10
2.46143e-10
5.62391e-10
3.15179e-10
4.71954e-10
3.49086e-10
3.81565e-10
3.51495e-10
2.97357e-10
3.29294e-10
2.23076e-10
2.90902e-10
1.61185e-10
2.43591e-10
1.1161e-10
1.94416e-10
7.42736e-11
1.47694e-10
4.69538e-11
1.06921e-10
2.85198e-11
7.33052e-11
1.61595e-11
4.81736e-11
9.06045e-12
2.84621e-11
1.8923e-11
4.13585e-12
3.2862e-12
-1.426e-11
1.45729e-11
-4.88228e-11
3.60456e-11
-9.30911e-11
6.98826e-11
-1.47429e-10
1.17899e-10
-2.10807e-10
1.81073e-10
-2.80237e-10
2.59005e-10
-3.50218e-10
3.4933e-10
-4.12507e-10
4.47384e-10
-4.56684e-10
5.46293e-10
-4.71441e-10
6.37402e-10
-4.47034e-10
7.11401e-10
-3.77896e-10
7.59837e-10
-2.65719e-10
7.76959e-10
-1.20689e-10
7.61277e-10
3.82575e-11
7.15275e-10
1.90291e-10
6.45629e-10
3.15866e-10
5.60827e-10
4.0005e-10
4.69382e-10
4.40612e-10
3.78757e-10
4.42131e-10
2.948e-10
4.13363e-10
2.20973e-10
3.64656e-10
1.59588e-10
3.05134e-10
1.1047e-10
2.43378e-10
7.35036e-11
1.8485e-10
4.64621e-11
1.3377e-10
2.8219e-11
9.1724e-11
1.599e-11
6.02475e-11
8.96283e-12
3.56051e-11
2.36997e-11
4.08204e-12
3.64485e-12
-1.78997e-11
1.61705e-11
-6.13317e-11
3.99481e-11
-1.16842e-10
7.7258e-11
-1.84699e-10
1.2986e-10
-2.63365e-10
1.98436e-10
-3.48768e-10
2.82049e-10
-4.33765e-10
3.7758e-10
-5.07951e-10
4.79528e-10
-5.58556e-10
5.80296e-10
-5.72116e-10
6.7075e-10
-5.37395e-10
7.41497e-10
-4.48539e-10
7.84491e-10
-3.08644e-10
7.94809e-10
-1.30918e-10
7.72185e-10
6.09652e-11
7.20074e-10
2.42478e-10
6.46124e-10
3.8989e-10
5.58702e-10
4.87538e-10
4.66045e-10
5.33347e-10
3.7517e-10
5.33015e-10
2.91552e-10
4.97089e-10
2.18316e-10
4.37819e-10
1.57572e-10
3.66032e-10
1.09033e-10
2.91763e-10
7.25334e-11
2.21535e-10
4.58439e-11
1.60272e-10
2.78412e-11
1.09898e-10
1.57762e-11
7.21611e-11
8.84119e-12
4.26534e-11
2.84075e-11
4.03147e-12
4.12399e-12
-2.20187e-11
1.82969e-11
-7.54887e-11
4.51228e-11
-1.43643e-10
8.69836e-11
-2.26523e-10
1.45524e-10
-3.21864e-10
2.20989e-10
-4.24194e-10
3.1169e-10
-5.24403e-10
4.1353e-10
-6.09709e-10
5.19999e-10
-6.64953e-10
6.22665e-10
-6.74692e-10
7.11877e-10
-6.2652e-10
7.78228e-10
-5.14791e-10
8.14235e-10
-3.44587e-10
8.16039e-10
-1.32636e-10
7.84868e-10
9.22172e-11
7.25528e-10
3.0189e-10
6.46475e-10
4.69014e-10
5.55987e-10
5.7809e-10
4.61943e-10
6.27466e-10
3.70823e-10
6.24143e-10
2.87637e-10
5.80379e-10
2.15126e-10
5.10259e-10
1.55155e-10
4.26152e-10
1.07314e-10
3.39454e-10
7.13726e-11
2.57657e-10
4.51047e-11
1.86357e-10
2.73897e-11
1.2778e-10
1.55206e-11
8.38828e-11
8.69589e-12
4.95883e-11
3.30323e-11
3.97175e-12
4.75732e-12
-2.67712e-11
2.10943e-11
-9.18096e-11
5.19025e-11
-1.74428e-10
9.96519e-11
-2.7424e-10
1.6576e-10
-3.87938e-10
2.49823e-10
-5.08226e-10
3.49125e-10
-6.23649e-10
4.58347e-10
-7.18852e-10
5.69809e-10
-7.7635e-10
6.74172e-10
-7.7897e-10
7.61278e-10
-7.13541e-10
8.21808e-10
-5.75223e-10
8.49033e-10
-3.71752e-10
8.40435e-10
-1.23956e-10
7.99013e-10
1.33717e-10
7.3143e-10
3.69543e-10
6.46531e-10
5.53982e-10
5.52583e-10
6.72098e-10
4.57022e-10
7.23101e-10
3.6569e-10
7.15481e-10
2.83047e-10
6.63124e-10
2.11401e-10
5.81833e-10
1.5234e-10
4.85358e-10
1.05316e-10
3.86332e-10
7.00238e-11
2.93125e-10
4.42465e-11
2.11956e-10
2.68657e-11
1.45323e-10
1.52238e-11
9.53816e-11
8.5272e-12
5.6392e-11
3.7562e-11
3.90127e-12
5.59787e-12
-3.2364e-11
2.47724e-11
-1.1097e-10
6.0766e-11
-2.10401e-10
1.161e-10
-3.29542e-10
1.91764e-10
-4.63569e-10
2.86384e-10
-6.0282e-10
3.95878e-10
-7.33091e-10
5.13452e-10
-8.36351e-10
6.30137e-10
-8.92974e-10
7.35666e-10
-8.84416e-10
8.19441e-10
-7.97233e-10
8.7237e-10
-6.28054e-10
8.88696e-10
-3.8802e-10
8.67642e-10
-1.02821e-10
8.14373e-10
1.8706e-10
7.37464e-10
4.46519e-10
6.46051e-10
6.45461e-10
5.48328e-10
7.69879e-10
4.51179e-10
8.2032e-10
3.59713e-10
8.0695e-10
2.7775e-10
7.45185e-10
2.07126e-10
6.52386e-10
1.49119e-10
5.43506e-10
1.03032e-10
4.32276e-10
6.84841e-11
3.27844e-10
4.32671e-11
2.37e-10
2.62681e-11
1.62479e-10
1.48854e-11
1.06626e-10
8.33478e-12
6.30461e-11
4.19848e-11
3.8189e-12
6.71142e-12
-3.90708e-11
2.96378e-11
-1.33883e-10
7.24261e-11
-2.53168e-10
1.37548e-10
-3.94633e-10
2.25226e-10
-5.51219e-10
3.32654e-10
-7.1023e-10
4.5397e-10
-8.5436e-10
5.80679e-10
-9.62986e-10
7.02481e-10
-1.01472e-09
8.0824e-10
-9.90092e-10
8.87035e-10
-8.75945e-10
9.30173e-10
-6.71093e-10
9.33218e-10
-3.91008e-10
8.97209e-10
-6.67325e-11
8.30742e-10
2.53601e-10
7.43401e-10
5.33923e-10
6.44874e-10
7.44051e-10
5.4314e-10
8.71668e-10
4.44389e-10
9.1914e-10
3.52896e-10
8.98445e-10
2.71764e-10
8.26412e-10
2.0232e-10
7.2176e-10
1.4551e-10
6.00453e-10
1.00478e-10
4.77168e-10
6.67635e-11
3.61724e-10
4.21732e-11
2.61424e-10
2.56009e-11
1.79203e-10
1.45075e-11
1.17586e-10
8.11991e-12
6.95335e-11
4.62901e-11
3.72515e-12
8.19974e-12
-4.72659e-11
3.61468e-11
-1.61814e-10
8.79397e-11
-3.0494e-10
1.65754e-10
-4.7242e-10
2.68488e-10
-6.53932e-10
3.91246e-10
-8.32981e-10
5.25927e-10
-9.88999e-10
6.62196e-10
-1.09918e-09
7.88517e-10
-1.14099e-09
8.93043e-10
-1.09454e-09
9.64692e-10
-9.47512e-10
9.95312e-10
-7.01612e-10
9.81825e-10
-3.77466e-10
9.29382e-10
-1.42108e-11
8.47745e-10
3.3531e-10
7.48896e-10
6.32833e-10
6.42754e-10
8.50254e-10
5.36874e-10
9.77601e-10
4.36576e-10
1.0195e-09
3.45207e-10
9.89815e-10
2.65082e-10
9.06629e-10
1.96986e-10
7.89786e-10
1.41517e-10
6.56055e-10
9.76588e-11
5.20891e-10
6.4866e-11
3.94676e-10
4.09674e-11
2.85161e-10
2.48658e-11
1.9545e-10
1.40912e-11
1.28232e-10
7.88319e-12
7.58375e-11
5.04665e-11
3.62099e-12
1.02196e-11
-5.74813e-11
4.4988e-11
-1.96569e-10
1.08872e-10
-3.6881e-10
2.03265e-10
-5.66791e-10
3.24798e-10
-7.75456e-10
4.65583e-10
-9.73772e-10
6.14847e-10
-1.13823e-09
7.60485e-10
-1.24475e-09
8.90037e-10
-1.27049e-09
9.91218e-10
-1.19564e-09
1.05295e-09
-1.00916e-09
1.06782e-09
-7.16388e-10
1.03473e-09
-3.44317e-10
9.62857e-10
5.77379e-11
8.64722e-10
4.33515e-10
7.53457e-10
7.44156e-10
6.39354e-10
9.64415e-10
5.29318e-10
1.08769e-09
4.27623e-10
1.12126e-09
3.36584e-10
1.08085e-09
2.57673e-10
9.85629e-10
1.9111e-10
8.5628e-10
1.37135e-10
7.10157e-10
9.45711e-11
5.63325e-10
6.27905e-11
4.2661e-10
3.9649e-11
3.08148e-10
2.40624e-11
2.11177e-10
1.36363e-11
1.38534e-10
7.62463e-12
8.1941e-11
5.4503e-11
3.50609e-12
1.30001e-11
-7.04763e-11
5.71871e-11
-2.40744e-10
1.37658e-10
-4.49274e-10
2.53958e-10
-6.8308e-10
3.98851e-10
-9.20354e-10
5.60303e-10
-1.13525e-09
7.24648e-10
-1.30255e-09
8.78509e-10
-1.39855e-09
1.00912e-09
-1.40106e-09
1.1041e-09
-1.29054e-09
1.15245e-09
-1.05742e-09
1.14765e-09
-7.11491e-10
1.0912e-09
-2.87819e-10
9.97547e-10
1.51464e-10
8.81163e-10
5.49969e-10
7.56687e-10
8.68688e-10
6.34426e-10
1.08673e-09
5.20348e-10
1.20181e-09
4.17489e-10
1.22418e-09
3.2703e-10
1.17131e-09
2.49558e-10
1.06319e-09
1.84716e-10
9.21056e-10
1.32385e-10
7.62611e-10
9.12307e-11
6.04354e-10
6.05479e-11
4.5744e-10
3.82252e-11
3.30322e-10
2.31952e-11
2.26341e-10
1.31453e-11
1.48466e-10
7.34569e-12
8.78282e-11
5.83899e-11
3.38084e-12
1.68423e-11
-8.73153e-11
7.43291e-11
-2.98222e-10
1.78264e-10
-5.53214e-10
3.23862e-10
-8.28676e-10
4.97415e-10
-1.09392e-09
6.81475e-10
-1.31935e-09
8.5994e-10
-1.48099e-09
1.01944e-09
-1.55798e-09
1.14784e-09
-1.52942e-09
1.23295e-09
-1.37558e-09
1.26365e-09
-1.08804e-09
1.23441e-09
-6.8216e-10
1.15104e-09
-2.04409e-10
1.03263e-09
2.69944e-10
8.96344e-10
6.86326e-10
7.58052e-10
1.00703e-09
6.27635e-10
1.2172e-09
5.09785e-10
1.31971e-09
4.06092e-10
1.32793e-09
3.16515e-10
1.26088e-09
2.40734e-10
1.13905e-09
1.7781e-10
9.83915e-10
1.27274e-10
8.13264e-10
8.76447e-11
6.43862e-10
5.81436e-11
4.87081e-10
3.66996e-11
3.51625e-10
2.22662e-11
2.40901e-10
1.26194e-11
1.58001e-10
7.04717e-12
9.34835e-11
6.21179e-11
3.24527e-12
2.21288e-11
-1.09442e-10
9.87683e-11
-3.74858e-10
2.37406e-10
-6.91856e-10
4.22575e-10
-1.01385e-09
6.30195e-10
-1.30157e-09
8.36782e-10
-1.526e-09
1.02585e-09
-1.67005e-09
1.18642e-09
-1.71847e-09
1.30809e-09
-1.65106e-09
1.37881e-09
-1.44621e-09
1.38671e-09
-1.09588e-09
1.32729e-09
-6.22647e-10
1.21343e-09
-9.05097e-11
1.06706e-09
4.16382e-10
9.0933e-10
8.44114e-10
7.56883e-10
1.15953e-09
6.18573e-10
1.35556e-09
4.97402e-10
1.44092e-09
3.93316e-10
1.43207e-09
3.04985e-10
1.34921e-09
2.31178e-10
1.21293e-09
1.70385e-10
1.04464e-09
1.218e-10
8.6196e-10
8.38134e-11
6.81734e-10
5.55782e-11
5.15449e-10
3.5073e-11
3.71996e-10
2.1276e-11
2.54818e-10
1.20588e-11
1.67112e-10
6.72935e-12
9.88914e-11
6.56774e-11
3.10025e-12
2.90375e-11
-1.38476e-10
1.33643e-10
-4.79463e-10
3.27235e-10
-8.85465e-10
5.65897e-10
-1.25252e-09
8.11219e-10
-1.54695e-09
1.03579e-09
-1.75067e-09
1.22784e-09
-1.86209e-09
1.38242e-09
-1.87298e-09
1.49174e-09
-1.76036e-09
1.54279e-09
-1.49718e-09
1.52178e-09
-1.0748e-09
1.42625e-09
-5.27032e-10
1.27744e-09
5.83308e-11
1.09973e-09
5.94152e-10
9.19209e-10
1.02469e-09
7.52596e-10
1.32619e-09
6.06929e-10
1.50127e-09
4.83064e-10
1.56483e-09
3.79126e-10
1.53606e-09
2.92451e-10
1.43588e-09
2.20915e-10
1.28454e-09
1.62467e-10
1.10303e-09
1.15987e-10
9.08546e-10
7.97537e-11
7.17858e-10
5.28634e-11
5.42466e-10
3.33529e-11
3.91379e-10
2.02293e-11
2.68055e-10
1.14663e-11
1.75775e-10
6.39377e-12
1.04038e-10
6.90582e-11
2.94768e-12
3.67407e-11
-1.75213e-10
1.8242e-10
-6.25136e-10
4.71368e-10
-1.17447e-09
7.80577e-10
-1.56178e-09
1.06035e-09
-1.82682e-09
1.28931e-09
-1.97979e-09
1.47055e-09
-2.04336e-09
1.60954e-09
-2.0119e-09
1.70014e-09
-1.85094e-09
1.72568e-09
-1.52264e-09
1.66858e-09
-1.01763e-09
1.53136e-09
-3.89729e-10
1.3409e-09
2.48817e-10
1.12892e-09
8.06179e-10
9.24822e-10
1.22885e-09
7.44487e-10
1.50657e-09
5.92327e-10
1.65347e-09
4.66597e-10
1.69059e-09
3.63455e-10
1.63925e-09
2.78898e-10
1.52043e-09
2.09952e-10
1.35356e-09
1.5407e-10
1.15886e-09
1.09847e-10
9.52869e-10
7.5475e-11
7.52126e-10
5.00059e-11
5.68053e-10
3.15439e-11
4.09722e-10
1.91287e-11
2.80576e-10
1.08433e-11
1.83967e-10
6.04131e-12
1.08908e-10
7.22504e-11
2.78819e-12
4.30062e-11
-2.18215e-10
2.49636e-10
-8.3174e-10
7.14498e-10
-1.63933e-09
1.11111e-09
-1.95835e-09
1.40455e-09
-2.12045e-09
1.60746e-09
-2.18288e-09
1.75617e-09
-2.19204e-09
1.86821e-09
-2.12384e-09
1.93391e-09
-1.91663e-09
1.92788e-09
-1.51653e-09
1.82729e-09
-9.16972e-10
1.64098e-09
-2.03337e-10
1.40219e-09
4.87625e-10
1.15277e-09
1.05564e-09
9.24795e-10
1.45687e-09
7.3175e-10
1.69965e-09
5.74345e-10
1.81091e-09
4.47801e-10
1.81717e-09
3.46216e-10
1.74088e-09
2.64296e-10
1.60235e-09
1.98278e-10
1.41964e-09
1.45192e-10
1.21189e-09
1.03382e-10
9.94773e-10
7.0981e-11
7.8443e-10
4.70084e-11
5.92136e-10
2.96477e-11
4.26971e-10
1.79756e-11
2.92347e-10
1.01905e-11
1.91665e-10
5.67238e-12
1.1349e-10
7.52447e-11
2.62166e-12
4.64109e-11
-2.64604e-10
3.36858e-10
-1.1218e-09
1.07521e-09
-2.37654e-09
1.60008e-09
-2.4805e-09
1.87205e-09
-2.39185e-09
1.99578e-09
-2.30708e-09
2.08232e-09
-2.27843e-09
2.15688e-09
-2.19826e-09
2.19339e-09
-1.95312e-09
2.14964e-09
-1.47271e-09
1.99843e-09
-7.65707e-10
1.7536e-09
4.15752e-11
1.4588e-09
7.82438e-10
1.16911e-09
1.34536e-09
9.17777e-10
1.70825e-09
7.13692e-10
1.90376e-09
5.52693e-10
1.97194e-09
4.26582e-10
1.94331e-09
3.27402e-10
1.84011e-09
2.48671e-10
1.68107e-09
1.85931e-10
1.48244e-09
1.35866e-10
1.2619e-09
9.6619e-11
1.03411e-09
6.62901e-11
8.14668e-10
4.38833e-11
6.14645e-10
2.76722e-11
4.43079e-10
1.67746e-11
3.03335e-10
9.51066e-12
1.98848e-10
5.28855e-12
1.17771e-10
7.80333e-11
2.44814e-12
5.97756e-11
-1.7627e-10
4.02887e-10
-9.73366e-10
1.19736e-09
-2.63448e-09
2.06457e-09
-3.34373e-09
2.44493e-09
-2.76743e-09
2.44515e-09
-2.30699e-09
2.4392e-09
-2.27273e-09
2.4717e-09
-2.23059e-09
2.47845e-09
-1.95984e-09
2.39444e-09
-1.38862e-09
2.18263e-09
-5.53848e-10
1.86509e-09
3.59196e-10
1.50679e-09
1.14073e-09
1.17521e-09
1.67699e-09
9.02213e-10
1.98128e-09
6.89567e-10
2.11644e-09
5.27052e-10
2.13448e-09
4.02829e-10
2.06756e-09
3.06991e-10
1.93598e-09
2.32033e-10
1.75602e-09
1.7293e-10
1.5416e-09
1.26112e-10
1.30867e-09
8.95731e-11
1.07073e-09
6.14137e-11
8.42744e-10
4.06385e-11
6.35514e-10
2.56221e-11
4.58001e-10
1.5529e-11
3.13511e-10
8.80553e-12
2.05498e-10
4.89067e-12
1.21739e-10
8.06094e-11
2.26741e-12
8.14906e-11
-9.59676e-15
2.90191e-10
-4.15066e-14
-4.15097e-11
-2.348e-10
1.63395e-09
-1.77587e-09
2.9423e-09
-4.03858e-09
2.89091e-09
-2.2503e-09
2.80657e-09
-2.18826e-09
2.80909e-09
-2.23324e-09
2.78932e-09
-1.94008e-09
2.66225e-09
-1.26145e-09
2.38099e-09
-2.72546e-10
1.9735e-09
7.66756e-10
1.54189e-09
1.57233e-09
1.16783e-09
2.05108e-09
8.76393e-10
2.27275e-09
6.58621e-10
2.33424e-09
4.9712e-10
2.29601e-09
3.76433e-10
2.18827e-09
2.84955e-10
2.0275e-09
2.14383e-10
1.82659e-09
1.59289e-10
1.59674e-09
1.15942e-10
1.35197e-09
8.22545e-11
1.10449e-09
5.63591e-11
8.68563e-10
3.72789e-11
6.54679e-10
2.35008e-11
4.71693e-10
1.42406e-11
3.22846e-10
8.07623e-12
2.11596e-10
4.47941e-12
1.25384e-10
8.29666e-11
2.07972e-12
3.76039e-15
-1.45051e-14
3.37983e-15
-4.53148e-14
-2.4586e-10
1.10637e-11
2.26134e-10
-5.7752e-11
3.37117e-09
-2.4134e-09
3.18667e-09
-2.03854e-09
3.14591e-09
-2.14669e-09
3.16096e-09
-2.24815e-09
3.13163e-09
-1.91087e-09
2.96368e-09
-1.09345e-09
2.58833e-09
1.02858e-10
2.07081e-09
1.28435e-09
1.55795e-09
2.08517e-09
1.14344e-09
2.46562e-09
8.3877e-10
2.57745e-09
6.20318e-10
2.55271e-09
4.62771e-10
2.45357e-09
3.4741e-10
2.30365e-09
2.61351e-10
2.11359e-09
1.9578e-10
1.89215e-09
1.45055e-10
1.64751e-09
1.05394e-10
1.39159e-09
7.46905e-11
1.13526e-09
5.11454e-11
8.92039e-10
3.38174e-11
6.72082e-10
2.13161e-11
4.84117e-10
1.29144e-11
3.31314e-10
7.32556e-12
2.17126e-10
4.0563e-12
1.28695e-10
8.50991e-11
1.88605e-12
5.20298e-15
-1.79075e-14
4.18806e-13
-4.55561e-13
2.65386e-11
-2.02567e-12
6.89477e-11
-8.30512e-11
1.24111e-09
1.75906e-11
3.10305e-09
-2.25744e-09
3.41773e-09
-2.46057e-09
3.51667e-09
-2.34686e-09
3.50681e-09
-1.9011e-09
3.3019e-09
-8.88524e-10
2.80798e-09
5.96813e-10
2.1502e-09
1.94222e-09
1.54768e-09
2.68766e-09
1.09807e-09
2.91525e-09
7.87836e-10
2.88771e-09
5.74219e-10
2.76634e-09
4.23927e-10
2.60388e-09
3.15786e-10
2.41181e-09
2.36227e-10
2.19318e-09
1.7627e-10
1.9521e-09
1.30266e-10
1.69356e-09
9.44957e-11
1.42732e-09
6.69007e-11
1.16291e-09
4.57861e-11
9.13092e-10
3.02631e-11
6.87672e-10
1.90738e-11
4.95238e-10
1.15538e-11
3.38892e-10
6.5555e-12
2.22072e-10
3.62244e-12
1.31665e-10
8.70012e-11
1.68738e-12
-9.30546e-16
-2.58398e-15
2.05673e-13
-2.63461e-13
-9.53744e-13
-8.93625e-13
-8.37669e-11
-1.78296e-12
-1.5713e-09
-4.89991e-11
2.62239e-09
-6.63926e-09
3.48706e-09
-3.32234e-09
3.85301e-09
-2.71224e-09
3.93052e-09
-1.97866e-09
3.68538e-09
-6.43332e-10
3.03362e-09
1.24859e-09
2.19863e-09
2.77727e-09
1.50145e-09
3.38481e-09
1.02741e-09
3.38931e-09
7.2229e-10
3.19286e-09
5.2007e-10
2.96858e-09
3.80602e-10
2.74337e-09
2.81626e-10
2.5108e-09
2.09644e-10
2.26518e-09
1.55902e-10
2.00584e-09
1.14955e-10
1.73454e-09
8.32707e-11
1.45897e-09
5.89013e-11
1.18733e-09
4.02918e-11
9.31648e-10
2.66229e-11
7.01398e-10
1.67783e-11
5.05024e-10
1.01612e-11
3.45559e-10
5.76747e-12
2.26421e-10
3.17878e-12
1.34285e-10
8.86672e-11
1.48456e-12
8.90799e-16
-2.5242e-15
1.90237e-13
-1.54938e-13
2.66685e-12
-3.06492e-12
4.0582e-12
-4.93145e-12
7.23559e-11
1.17047e-11
2.20642e-09
-3.99261e-09
3.55821e-09
-4.19114e-09
4.23889e-09
-3.39265e-09
4.41891e-09
-2.1587e-09
4.13547e-09
-3.59838e-10
3.26372e-09
2.12037e-09
2.19974e-09
3.84131e-09
1.40797e-09
4.17655e-09
9.27404e-10
3.86989e-09
6.41478e-10
3.4788e-09
4.58041e-10
3.15203e-09
3.33032e-10
2.86839e-09
2.45115e-10
2.59873e-09
1.81734e-10
2.32859e-09
1.34768e-10
2.0528e-09
9.91852e-11
1.77015e-09
7.17622e-11
1.48637e-09
5.07218e-11
1.20841e-09
3.46823e-11
9.47642e-10
2.29096e-11
7.13218e-10
1.44378e-11
5.13446e-10
8.74176e-12
3.51295e-10
4.96426e-12
2.30161e-10
2.72685e-12
1.36548e-10
9.00921e-11
1.27858e-12
8.00063e-16
-2.85681e-15
8.16374e-14
-4.07641e-14
1.49007e-13
-8.14174e-13
2.06889e-14
-3.85686e-12
1.18052e-11
1.31035e-12
-5.63216e-10
-1.72796e-09
3.00969e-09
-7.74885e-09
4.67556e-09
-5.05683e-09
4.97879e-09
-2.46183e-09
4.62454e-09
-5.54335e-12
3.48229e-09
3.26266e-09
2.12887e-09
5.19479e-09
1.25298e-09
5.05241e-09
7.94326e-10
4.32855e-09
5.45466e-10
3.72768e-09
3.88625e-10
3.30889e-09
2.81561e-10
2.97546e-09
2.06469e-10
2.67384e-09
1.52634e-10
2.38244e-09
1.12953e-10
2.09247e-09
8.30101e-11
1.80012e-09
6.00051e-11
1.50935e-09
4.23849e-11
1.22607e-09
2.89725e-11
9.61017e-10
1.91328e-11
7.23096e-10
1.20581e-11
5.2048e-10
7.29902e-12
3.56086e-10
4.14788e-12
2.33282e-10
2.2696e-12
1.38446e-10
9.12748e-11
1.06829e-12
-2.80762e-16
-2.38363e-15
1.26012e-14
-1.21256e-14
-6.50122e-13
-8.08014e-14
-3.58083e-12
-4.41236e-13
-1.68423e-11
1.74129e-11
-5.60193e-10
-5.26218e-10
3.97846e-09
-1.18921e-08
5.33925e-09
-6.40487e-09
5.80962e-09
-2.93097e-09
5.45495e-09
3.49096e-10
3.74575e-09
4.97188e-09
1.97335e-09
6.9672e-09
1.02201e-09
6.00371e-09
6.26442e-10
4.72412e-09
4.35885e-10
3.91824e-09
3.12901e-10
3.43188e-09
2.26748e-10
3.06162e-09
1.65992e-10
2.7346e-09
1.22516e-10
2.42593e-09
9.05597e-11
2.12443e-09
6.64936e-11
1.82421e-09
4.80386e-11
1.52779e-09
3.39159e-11
1.24022e-09
2.31786e-11
9.71725e-10
1.53026e-11
7.30999e-10
9.64584e-12
5.26106e-10
5.83689e-12
3.59918e-10
3.32047e-12
2.35776e-10
1.79865e-12
1.39982e-10
9.22076e-11
8.52081e-13
-1.02213e-16
-2.12409e-15
-2.50997e-15
-7.73651e-15
-5.90185e-14
-1.54003e-14
-3.934e-13
9.04636e-15
1.86347e-11
1.72424e-12
9.89982e-10
-2.51031e-10
7.00703e-09
-8.45678e-09
7.3591e-09
-6.67359e-09
6.56722e-09
-2.13429e-09
5.85164e-09
1.06474e-09
3.7566e-09
7.06692e-09
1.62045e-09
9.10336e-09
6.76579e-10
6.94754e-09
4.19208e-10
4.98149e-09
3.13229e-10
4.02422e-09
2.30963e-10
3.51415e-09
1.68483e-10
3.12411e-09
1.23572e-10
2.77952e-09
9.12914e-11
2.45822e-09
6.75214e-11
2.14819e-09
4.95844e-11
1.84216e-09
3.58301e-11
1.54153e-09
2.52911e-11
1.25077e-09
1.7285e-11
9.79711e-10
1.14107e-11
7.36892e-10
7.19507e-12
5.303e-10
4.35413e-12
3.62774e-10
2.48359e-12
2.37631e-10
1.34498e-12
1.41129e-10
9.2893e-11
6.50422e-13
-1.01142e-15
-6.8044e-16
-7.66161e-17
-4.70227e-15
2.20689e-14
-3.51829e-14
2.93146e-13
-2.21742e-13
3.11692e-11
-1.99111e-12
1.97197e-10
-1.14422e-10
3.77603e-09
-3.42543e-09
9.76739e-09
-9.80135e-09
9.64347e-09
-1.98039e-09
8.35641e-09
2.3522e-09
4.55552e-09
1.08677e-08
1.36195e-09
1.2297e-08
2.94036e-10
8.01546e-09
2.12618e-10
5.06291e-09
2.01062e-10
4.03578e-09
1.57889e-10
3.55733e-09
1.1646e-10
3.16554e-09
8.57949e-11
2.81019e-09
6.35879e-11
2.48043e-09
4.71355e-11
2.16464e-09
3.46524e-11
1.85465e-09
2.50569e-11
1.55111e-09
1.76858e-11
1.25815e-09
1.20921e-11
9.85293e-10
7.97549e-12
7.41016e-10
5.03749e-12
5.33226e-10
3.04125e-12
3.64775e-10
1.75072e-12
2.38914e-10
9.21999e-13
1.4196e-10
9.33673e-11
4.4315e-13
-1.40515e-15
7.70571e-16
-3.14081e-14
2.53599e-14
-3.03576e-13
2.33882e-13
-1.04495e-12
5.39586e-13
-3.04021e-12
-1.345e-15
-1.175e-10
-1.08935e-14
-4.47885e-09
-1.33607e-14
5.19983e-09
-3.37342e-13
3.90078e-09
-4.20179e-10
5.59713e-09
6.56089e-10
3.13207e-09
1.33328e-08
1.75018e-10
1.52541e-08
-5.88565e-10
8.77906e-09
-1.76167e-10
4.65052e-09
-6.08146e-12
3.8657e-09
3.57827e-11
3.51547e-09
3.20394e-11
3.16929e-09
2.65287e-11
2.8157e-09
2.16772e-11
2.48529e-09
1.75184e-11
2.16881e-09
1.39185e-11
1.85826e-09
1.08281e-11
1.55421e-09
8.14711e-12
1.26084e-09
5.89775e-12
9.87544e-10
4.07859e-12
7.42846e-10
2.70817e-12
5.34598e-10
1.77525e-12
3.65715e-10
1.20633e-12
2.39483e-10
8.33017e-13
1.42336e-10
6.6621e-13
9.35336e-11
3.01133e-12
6.0132e-13
2.42672e-12
4.95495e-13
2.28728e-12
2.02079e-13
1.74321e-12
5.0298e-13
1.52403e-12
2.43991e-13
1.32564e-12
1.83031e-13
1.11328e-12
2.20495e-13
9.41195e-13
1.69227e-13
6.86543e-13
2.53571e-13
5.359e-13
1.54789e-13
4.61329e-13
6.91505e-14
2.97175e-13
1.6968e-13
1.35031e-13
1.58011e-13
5.42033e-14
8.29997e-14
-8.63921e-14
1.40684e-13
-1.16856e-13
2.90207e-14
-1.05113e-13
-9.54653e-15
-5.82795e-14
-4.81253e-14
-2.97921e-16
-5.78059e-14
1.76229e-14
-1.60141e-14
2.44955e-14
-1.00033e-14
3.31491e-14
-4.29963e-15
-1.33658e-15
3.01416e-14
-3.80099e-14
4.08532e-14
-1.0845e-13
6.71994e-14
-1.26974e-13
2.096e-14
-1.65178e-13
3.68892e-14
-8.46715e-14
-8.00542e-14
9.69358e-14
-1.81112e-13
9.58169e-14
3.39551e-12
1.44657e-12
2.80629e-12
9.58994e-13
2.28241e-12
8.08466e-13
1.53244e-12
1.19997e-12
1.30518e-12
5.02183e-13
9.74227e-13
4.96839e-13
7.92445e-13
4.08923e-13
6.31169e-13
3.31782e-13
4.92759e-13
3.85711e-13
4.35611e-13
2.21259e-13
3.40585e-13
1.54954e-13
2.51944e-13
2.65746e-13
1.74748e-13
2.31326e-13
1.7031e-13
8.80804e-14
1.33545e-13
1.7975e-13
1.18868e-13
4.09362e-14
9.32747e-14
1.84566e-14
7.85931e-14
-3.29562e-14
6.57407e-14
-4.77266e-14
6.54306e-14
-9.73148e-15
4.74561e-14
8.22299e-16
4.40604e-14
7.25252e-15
3.85378e-14
2.84271e-14
4.41523e-14
4.15408e-14
3.73172e-14
6.96988e-14
3.49329e-14
2.60964e-14
3.55133e-14
3.55272e-14
1.69342e-14
-6.21081e-14
9.40438e-16
-1.62972e-13
9.56474e-14
3.89682e-12
2.22695e-12
2.25919e-12
2.47574e-12
1.81973e-12
1.32556e-12
1.4592e-12
1.5111e-12
1.2863e-12
7.03671e-13
9.49931e-13
8.17644e-13
7.62707e-13
6.01776e-13
6.35333e-13
4.60984e-13
5.18741e-13
4.95864e-13
3.90612e-13
3.58514e-13
2.34573e-13
3.02192e-13
2.40482e-13
2.66718e-13
1.93572e-13
2.74844e-13
1.79311e-13
1.02644e-13
1.51447e-13
2.10006e-13
1.32592e-13
5.71281e-14
1.20138e-13
3.30547e-14
9.04653e-14
-2.54479e-15
3.28328e-14
6.93461e-15
4.98226e-14
-2.07389e-14
5.18324e-14
-8.21099e-15
4.86837e-14
1.82774e-14
5.40684e-14
1.61319e-14
6.65173e-14
3.50385e-14
4.19219e-14
9.02673e-14
4.29755e-14
2.75282e-14
4.28269e-14
3.50828e-14
-1.70486e-14
-2.99289e-15
-3.0131e-14
-1.47827e-13
6.44312e-14
3.43561e-12
3.04675e-12
2.50039e-12
3.29522e-12
2.10507e-12
1.79387e-12
1.56296e-12
2.00715e-12
1.28868e-12
1.00437e-12
9.60449e-13
1.13173e-12
7.68769e-13
7.98213e-13
6.10319e-13
6.21669e-13
4.78202e-13
6.215e-13
3.94731e-13
4.50831e-13
2.817e-13
4.06882e-13
2.54408e-13
3.0036e-13
1.9245e-13
3.33856e-13
1.7934e-13
1.15775e-13
1.4323e-13
2.48559e-13
1.27176e-13
7.06319e-14
1.05634e-13
5.65086e-14
8.55471e-14
1.84728e-14
6.70588e-14
2.23411e-14
6.41955e-14
-1.19633e-14
5.09293e-14
-1.76841e-15
4.84953e-14
2.82618e-14
4.03829e-14
1.76899e-14
4.36884e-14
3.73196e-14
4.36381e-14
8.65938e-14
4.18684e-14
3.15376e-14
3.973e-14
3.67906e-14
1.90613e-14
1.68345e-14
2.69028e-15
-1.29465e-13
6.60621e-14
3.38952e-12
3.8549e-12
2.48612e-12
4.08782e-12
2.09136e-12
2.25746e-12
1.56055e-12
2.49488e-12
1.27136e-12
1.31802e-12
9.51992e-13
1.43822e-12
7.63764e-13
9.90445e-13
6.01366e-13
7.86627e-13
4.69644e-13
7.46749e-13
3.92832e-13
5.36194e-13
2.84098e-13
5.07723e-13
2.54469e-13
3.35845e-13
2.00348e-13
3.85433e-13
1.75108e-13
1.40793e-13
1.42382e-13
2.83763e-13
1.25005e-13
8.55677e-14
1.02316e-13
8.09096e-14
8.36956e-14
3.81804e-14
6.65462e-14
3.63415e-14
6.32314e-14
-2.83149e-15
5.03056e-14
4.54976e-15
4.85849e-14
3.72131e-14
4.01559e-14
1.99076e-14
4.08109e-14
4.19151e-14
4.23225e-14
8.1639e-14
3.94377e-14
3.64414e-14
3.79095e-14
3.80301e-14
2.38271e-14
3.00164e-14
3.95609e-15
-1.07657e-13
6.89825e-14
3.34662e-12
4.65132e-12
2.46367e-12
4.86462e-12
2.0592e-12
2.727e-12
1.54262e-12
2.97103e-12
1.24784e-12
1.63552e-12
9.39339e-13
1.73497e-12
7.57019e-13
1.17611e-12
5.86072e-13
9.60404e-13
4.57814e-13
8.68568e-13
3.85045e-13
6.17221e-13
2.84237e-13
6.01064e-13
2.55509e-13
3.69967e-13
2.03799e-13
4.34971e-13
1.68719e-13
1.75434e-13
1.40261e-13
3.1473e-13
1.20554e-13
1.02935e-13
9.65309e-14
1.06469e-13
8.31893e-14
5.27412e-14
6.86761e-14
4.76647e-14
6.19017e-14
9.65371e-15
4.97743e-14
1.02881e-14
4.83396e-14
4.5572e-14
4.07903e-14
2.15716e-14
4.03389e-14
4.73046e-14
4.10311e-14
7.77637e-14
3.84899e-14
4.08011e-14
4.34028e-14
3.29549e-14
3.22531e-14
4.02182e-14
-4.132e-15
-6.93769e-14
6.38366e-14
3.29604e-12
5.43451e-12
2.43357e-12
5.62538e-12
2.01694e-12
3.20522e-12
1.51225e-12
3.43773e-12
1.22109e-12
1.9478e-12
9.26118e-13
2.01922e-12
7.48753e-13
1.35622e-12
5.68512e-13
1.1437e-12
4.46719e-13
9.83982e-13
3.76155e-13
6.95744e-13
2.84397e-13
6.85772e-13
2.55092e-13
4.04227e-13
2.02632e-13
4.85606e-13
1.6393e-13
2.13499e-13
1.37907e-13
3.43284e-13
1.16625e-13
1.21976e-13
9.31099e-14
1.31362e-13
8.28894e-14
6.42933e-14
7.10169e-14
5.63267e-14
6.05546e-14
2.57103e-14
4.82003e-14
1.64752e-14
4.72315e-14
5.31668e-14
4.15492e-14
2.16822e-14
4.17099e-14
5.17868e-14
4.31717e-14
7.33636e-14
4.01965e-14
4.54092e-14
4.78503e-14
2.52538e-14
4.02968e-14
4.6784e-14
-1.24143e-14
-1.48049e-14
5.04297e-14
3.23521e-12
6.20388e-12
2.39452e-12
6.36872e-12
1.96945e-12
3.6886e-12
1.47577e-12
3.89568e-12
1.19242e-12
2.25078e-12
9.07295e-13
2.29456e-12
7.31085e-13
1.53464e-12
5.70822e-13
1.3072e-12
4.44069e-13
1.10444e-12
3.66466e-13
7.81e-13
2.87414e-13
7.58185e-13
2.50489e-13
4.45682e-13
1.95437e-13
5.39161e-13
1.59818e-13
2.48299e-13
1.35852e-13
3.69796e-13
1.13978e-13
1.41705e-13
9.33887e-14
1.53183e-13
8.18375e-14
7.72715e-14
7.05865e-14
6.43662e-14
5.96323e-14
4.21294e-14
4.78767e-14
2.22927e-14
4.65375e-14
6.08359e-14
4.19444e-14
2.10105e-14
4.27124e-14
5.53773e-14
4.63345e-14
6.70369e-14
4.39429e-14
4.92599e-14
3.98628e-14
2.93918e-14
3.70347e-14
4.85912e-14
5.21605e-15
1.88431e-14
5.46749e-14
3.16224e-12
6.95965e-12
2.34576e-12
7.09218e-12
1.92173e-12
4.16776e-12
1.44029e-12
4.34357e-12
1.16389e-12
2.54539e-12
8.87843e-13
2.56171e-12
7.15156e-13
1.70904e-12
5.6301e-13
1.46273e-12
4.39361e-13
1.22191e-12
3.61487e-13
8.66204e-13
2.81833e-13
8.31613e-13
2.39935e-13
4.91696e-13
1.87952e-13
5.89959e-13
1.55233e-13
2.80037e-13
1.32637e-13
3.94942e-13
1.11073e-13
1.61222e-13
9.32833e-14
1.72069e-13
8.01199e-14
9.19406e-14
6.93985e-14
7.18942e-14
5.89247e-14
5.79232e-14
4.82402e-14
2.72781e-14
4.64449e-14
6.86627e-14
4.21001e-14
2.03948e-14
4.32793e-14
5.82794e-14
4.93294e-14
5.85076e-14
4.56321e-14
5.42519e-14
3.53639e-14
3.98141e-14
4.91048e-14
3.38023e-14
1.98401e-14
4.99048e-14
7.35675e-14
3.07883e-12
7.70081e-12
2.28828e-12
7.79407e-12
1.8716e-12
4.63646e-12
1.40264e-12
4.78108e-12
1.13568e-12
2.8292e-12
8.67251e-13
2.82208e-12
6.97904e-13
1.87965e-12
5.50716e-13
1.61342e-12
4.30451e-13
1.33612e-12
3.55835e-13
9.47812e-13
2.72185e-13
9.0945e-13
2.30674e-13
5.36919e-13
1.81299e-13
6.38443e-13
1.50643e-13
3.09564e-13
1.28253e-13
4.19874e-13
1.07319e-13
1.80209e-13
9.19271e-14
1.88431e-13
7.81197e-14
1.07316e-13
6.83791e-14
7.84791e-14
5.83733e-14
7.30871e-14
4.90038e-14
3.11988e-14
4.68289e-14
7.65664e-14
4.18553e-14
2.0711e-14
4.38283e-14
6.01158e-14
4.59337e-14
5.4141e-14
4.28511e-14
5.84736e-14
3.56895e-14
4.72173e-14
3.12511e-14
3.71725e-14
1.32319e-14
6.96859e-14
8.58771e-14
2.9869e-12
8.42538e-12
2.22268e-12
8.47405e-12
1.81647e-12
5.09161e-12
1.3608e-12
5.20735e-12
1.10741e-12
3.09813e-12
8.48843e-13
3.07338e-12
6.75815e-13
2.05354e-12
5.35359e-13
1.75744e-12
4.1995e-13
1.44566e-12
3.4802e-13
1.02638e-12
2.6541e-13
9.86665e-13
2.25682e-13