/*--------------------------------*- C++ -*----------------------------------*\
| =========                 |                                                 |
| \\      /  F ield         | OpenFOAM: The Open Source CFD Toolbox           |
|  \\    /   O peration     | Version:  2.4.0                                 |
|   \\  /    A nd           | Web:      www.OpenFOAM.org                      |
|    \\/     M anipulation  |                                                 |
\*---------------------------------------------------------------------------*/
FoamFile
{
    version     2.0;
    format      ascii;
    class       volScalarField;
    location    "0.002";
    object      alpha.water;
}
// * * * * * * * * * * * * * * * * * * * * * * * * * * * * * * * * * * * * * //

dimensions      [0 0 0 0 0 0 0];

internalField   nonuniform List<scalar> 
10000
(
1.01108e-191
1.41235e-185
7.22614e-179
6.98635e-173
2.46178e-167
3.93178e-162
3.32795e-157
1.60954e-152
4.73462e-148
9.23832e-144
1.207e-139
1.1244e-135
7.63065e-132
3.83584e-128
1.49957e-124
4.48454e-121
1.04022e-117
1.90081e-114
2.70113e-111
3.00819e-108
2.65389e-105
1.82451e-102
9.72193e-100
3.97909e-97
1.23621e-94
2.86905e-92
4.88989e-90
6.11175e-88
5.34948e-86
3.17904e-84
1.23423e-82
2.95566e-81
3.92427e-80
2.61323e-79
5.48393e-79
1.13658e-79
9.09463e-82
3.97497e-84
1.28847e-86
3.46835e-89
8.11561e-92
1.67466e-94
3.11843e-97
5.11017e-100
7.10748e-103
7.99475e-106
6.68291e-109
3.98934e-112
1.39894e-113
9.82494e-111
1.04647e-184
5.35134e-180
6.78241e-174
9.83301e-168
4.23956e-162
6.87699e-157
5.17478e-152
2.18892e-147
5.40184e-143
9.18478e-139
1.05421e-134
8.67065e-131
5.25629e-127
2.35185e-123
8.24343e-120
2.20698e-116
4.61248e-113
7.69514e-110
1.00588e-106
1.0374e-103
8.55582e-101
5.54957e-98
2.81301e-95
1.10552e-92
3.33133e-90
7.58068e-88
1.27755e-85
1.55701e-83
1.33416e-81
7.95552e-80
3.21002e-78
8.17281e-77
1.19498e-75
8.40761e-75
2.15448e-74
8.03527e-75
1.03679e-76
9.14822e-79
6.31744e-81
3.58938e-83
1.71975e-85
7.08107e-88
2.53873e-90
7.6308e-93
1.85158e-95
3.62195e-98
5.28512e-101
5.16401e-104
1.14106e-106
5.04343e-104
2.10266e-178
1.58278e-173
6.17528e-168
2.99115e-162
7.14268e-157
7.1989e-152
3.76633e-147
1.18176e-142
2.25502e-138
2.99691e-134
2.74864e-130
1.84247e-126
9.32657e-123
3.54198e-119
1.06863e-115
2.49985e-112
4.61573e-109
6.88802e-106
8.14285e-103
7.67372e-100
5.84148e-97
3.53611e-94
1.69057e-91
6.33854e-89
1.84426e-86
4.10524e-84
6.86559e-82
8.43939e-80
7.43372e-78
4.55977e-76
1.8831e-74
4.99352e-73
8.10526e-72
7.01837e-71
2.17084e-70
1.19949e-70
2.27763e-72
2.71626e-74
2.42972e-76
1.75218e-78
1.05415e-80
5.35197e-83
2.28005e-85
7.96671e-88
2.31542e-90
5.2635e-93
8.44553e-96
9.21048e-99
9.51953e-102
2.33537e-99
1.38974e-172
1.60058e-167
3.57911e-162
5.34164e-157
5.83251e-152
3.75681e-147
1.30238e-142
2.91407e-138
4.19128e-134
4.31529e-130
3.18269e-126
1.74722e-122
7.41203e-119
2.39686e-115
6.23793e-112
1.2775e-108
2.08711e-105
2.78845e-102
2.98306e-99
2.56926e-96
1.80469e-93
1.0188e-90
4.58892e-88
1.63837e-85
4.59079e-83
9.9612e-81
1.64558e-78
2.02785e-76
1.82098e-74
1.16122e-72
5.10645e-71
1.48859e-69
2.67551e-68
2.67694e-67
1.11221e-66
9.64193e-67
3.07884e-68
4.36635e-70
4.27591e-72
3.30859e-74
2.13046e-76
1.16099e-78
5.33381e-81
2.02209e-83
6.05523e-86
1.48404e-88
2.52718e-91
2.93745e-94
2.28691e-97
2.95324e-95
3.88791e-167
5.31942e-162
7.50867e-157
5.68344e-152
3.37824e-147
1.26204e-142
2.90789e-138
4.58535e-134
4.96628e-130
3.94498e-126
2.33862e-122
1.0502e-118
3.72993e-115
1.02657e-111
2.30203e-108
4.12504e-105
5.95902e-102
7.1214e-99
6.88865e-96
5.41749e-93
3.50742e-90
1.84435e-87
7.81636e-85
2.65327e-82
7.1469e-80
1.50846e-77
2.45542e-75
3.02427e-73
2.75844e-71
1.8203e-69
8.47302e-68
2.69328e-66
5.50917e-65
6.36924e-64
3.51845e-63
4.71671e-63
3.27763e-64
4.9029e-66
4.84497e-68
3.79806e-70
2.50503e-72
1.41383e-74
6.79574e-77
2.72153e-79
8.69945e-82
2.19568e-84
4.06301e-87
4.90878e-90
3.50761e-93
2.30961e-91
5.35296e-162
7.8179e-157
7.56726e-152
3.80494e-147
1.24644e-142
3.13777e-138
5.0063e-134
5.42623e-130
4.41222e-126
2.6818e-122
1.27351e-118
4.66266e-115
1.38196e-111
3.23109e-108
6.22661e-105
9.74677e-102
1.24296e-98
1.32622e-95
1.15819e-92
8.30369e-90
4.9466e-87
2.41878e-84
9.62794e-82
3.10149e-79
8.01475e-77
1.64187e-74
2.62692e-72
3.22489e-70
2.97807e-68
2.02595e-66
9.93497e-65
3.42238e-63
7.89934e-62
1.09922e-60
7.63905e-60
1.55193e-59
2.66091e-60
3.95117e-62
3.84866e-64
3.02067e-66
2.029e-68
1.18424e-70
5.96604e-73
2.53526e-75
8.70966e-78
2.29722e-80
4.66849e-83
5.96856e-86
4.30972e-89
1.57196e-87
4.07149e-157
5.59133e-152
3.89555e-147
1.31881e-142
2.90603e-138
5.00265e-134
6.19277e-130
5.25462e-126
3.20262e-122
1.47959e-118
5.59566e-115
1.66296e-111
4.09121e-108
8.10456e-105
1.33711e-101
1.82407e-98
2.04867e-95
1.94648e-92
1.53136e-89
9.98749e-87
5.46185e-84
2.478e-81
9.24361e-79
2.81918e-76
6.97196e-74
1.38259e-71
2.16812e-69
2.64461e-67
2.46389e-65
1.72082e-63
8.84595e-62
3.28138e-60
8.47271e-59
1.40145e-57
1.21098e-56
3.81732e-56
1.42082e-56
2.27706e-58
2.46235e-60
2.19822e-62
1.70359e-64
1.15541e-66
6.78904e-69
3.37606e-71
1.36502e-73
4.18497e-76
9.88003e-79
1.44387e-81
1.14662e-84
1.04862e-83
1.86475e-152
2.34487e-147
1.22352e-142
2.96085e-138
4.59165e-134
5.39057e-130
5.2515e-126
3.63685e-122
1.84107e-118
7.03647e-115
2.08367e-111
5.02427e-108
1.01797e-104
1.70381e-101
2.3952e-98
2.839e-95
2.80018e-92
2.36099e-89
1.66888e-86
9.8747e-84
4.9433e-81
2.07521e-78
7.23455e-76
2.08307e-73
4.91543e-71
9.40657e-69
1.44094e-66
1.73996e-64
1.62875e-62
1.16233e-60
6.22787e-59
2.46989e-57
7.06559e-56
1.37011e-54
1.50883e-53
6.98219e-53
5.29185e-53
1.13549e-54
1.70906e-56
2.05197e-58
2.04226e-60
1.71425e-62
1.21589e-64
7.19179e-67
3.43763e-69
1.25035e-71
3.32113e-74
5.62482e-77
5.1199e-80
7.01951e-80
5.28219e-148
5.74856e-143
2.33976e-138
4.28619e-134
5.01546e-130
4.41684e-126
3.20023e-122
1.8406e-118
7.85861e-115
2.5654e-111
6.55362e-108
1.33418e-104
2.19894e-101
3.10699e-98
3.7021e-95
3.7984e-92
3.27958e-89
2.44361e-86
1.547e-83
8.27817e-81
3.78065e-78
1.46376e-75
4.75362e-73
1.28789e-70
2.88969e-68
5.31699e-66
7.92516e-64
9.43358e-62
8.83065e-60
6.40431e-58
3.55364e-56
1.49455e-54
4.68569e-53
1.04889e-51
1.45892e-50
9.35182e-50
1.38519e-49
5.33917e-51
1.10624e-52
1.61286e-54
1.85369e-56
1.76382e-58
1.41143e-60
9.43749e-63
5.13294e-65
2.15031e-67
6.29433e-70
1.26978e-72
1.31171e-75
4.67703e-76
1.0061e-143
9.55633e-139
3.07905e-134
4.38495e-130
3.97199e-126
2.68274e-122
1.47648e-118
7.03451e-115
2.56517e-111
7.22896e-108
1.60919e-104
2.87833e-101
4.19392e-98
5.03324e-95
5.06122e-92
4.47465e-89
3.37068e-86
2.20847e-83
1.24768e-80
6.01639e-78
2.49698e-75
8.88225e-73
2.67711e-70
6.7986e-68
1.44471e-65
2.54522e-63
3.67507e-61
4.29155e-59
3.99589e-57
2.9272e-55
1.66999e-53
7.38154e-52
2.50622e-50
6.36818e-49
1.08979e-47
9.33139e-47
2.43753e-46
4.06512e-47
8.68464e-49
1.22729e-50
1.39731e-52
1.35803e-54
1.14126e-56
8.20763e-59
4.90511e-61
2.30762e-63
7.7133e-66
1.73098e-68
2.00821e-71
3.03248e-72
1.29797e-139
1.09618e-134
2.83078e-130
3.24859e-126
2.36753e-122
1.28032e-118
5.5975e-115
2.08306e-111
6.55306e-108
1.60921e-104
3.14717e-101
4.98216e-98
6.46709e-95
6.95421e-92
6.24584e-89
4.71833e-86
3.09537e-83
1.77385e-80
8.90639e-78
3.8551e-75
1.44769e-72
4.71073e-70
1.31224e-67
3.11027e-65
6.23175e-63
1.04629e-60
1.45623e-58
1.65932e-56
1.52773e-54
1.12289e-52
6.53494e-51
3.00636e-49
1.09135e-47
3.09204e-46
6.33584e-45
7.42807e-44
3.18076e-43
1.57735e-43
3.39817e-45
4.87162e-47
5.75687e-49
5.95315e-51
5.45034e-53
4.3651e-55
2.96714e-57
1.62419e-59
6.51782e-62
1.67746e-64
2.30197e-67
2.21413e-68
1.19431e-135
8.9453e-131
1.88597e-126
1.77543e-122
1.06012e-118
4.68081e-115
1.66306e-111
5.01712e-108
1.33422e-104
2.87873e-101
4.98274e-98
7.02674e-95
8.17307e-92
7.91748e-89
6.43746e-86
4.41992e-83
2.57466e-80
1.28383e-77
5.70246e-75
2.20693e-72
7.46412e-70
2.21076e-67
5.66563e-65
1.24741e-62
2.34493e-60
3.73273e-58
4.98052e-56
5.5053e-54
4.97991e-52
3.64602e-50
2.1464e-48
1.01716e-46
3.89513e-45
1.20793e-43
2.88357e-42
4.40928e-41
2.80985e-40
3.52036e-40
1.12167e-41
2.61024e-43
4.89488e-45
7.63527e-47
1.00558e-48
1.11652e-50
1.0254e-52
7.47467e-55
3.99802e-57
1.3213e-59
2.34081e-62
1.99933e-64
8.05762e-132
5.42502e-127
9.56809e-123
7.55857e-119
3.78171e-115
1.39364e-111
4.10705e-108
1.01869e-104
2.19832e-101
4.19539e-98
6.46909e-95
8.17461e-92
8.56497e-89
7.51012e-86
5.55155e-83
3.4795e-80
1.85713e-77
8.46804e-75
3.30693e-72
1.14084e-69
3.45892e-67
9.27354e-65
2.17549e-62
4.42653e-60
7.76555e-58
1.16544e-55
1.48197e-53
1.57908e-51
1.39372e-49
1.00865e-47
5.95335e-46
2.87501e-44
1.14538e-42
3.81509e-41
1.03254e-39
1.96844e-38
1.84756e-37
4.56811e-37
4.61227e-38
1.52013e-39
3.36812e-41
5.92647e-43
8.74971e-45
1.0963e-46
1.14891e-48
9.69084e-51
6.11342e-53
2.47468e-55
5.13482e-58
1.75489e-60
4.02949e-128
2.42586e-123
3.63607e-119
2.44846e-115
1.04352e-111
3.26874e-108
8.1628e-105
1.70973e-101
3.11005e-98
5.03635e-95
6.95815e-92
7.92093e-89
7.51195e-86
5.98796e-83
4.04007e-80
2.31975e-77
1.13822e-74
4.78669e-72
1.72877e-69
5.36884e-67
1.45371e-64
3.50662e-62
7.48891e-60
1.40055e-57
2.27991e-55
3.20665e-53
3.86147e-51
3.93954e-49
3.36804e-47
2.38999e-45
1.40134e-43
6.82023e-42
2.78708e-40
9.78315e-39
2.92272e-37
6.66307e-36
8.69922e-35
3.76585e-34
1.90921e-34
6.08925e-36
1.3067e-37
2.31773e-39
3.5861e-41
4.86627e-43
5.67708e-45
5.46145e-47
4.02971e-49
1.98212e-51
4.80087e-54
1.31402e-56
1.56589e-124
8.46931e-120
1.09339e-115
6.35522e-112
2.33536e-108
6.2908e-105
1.34578e-101
2.403e-98
3.70554e-95
5.06034e-92
6.25133e-89
6.4422e-86
5.55452e-83
4.04122e-80
2.49766e-77
1.31811e-74
5.96298e-72
2.31893e-69
7.76662e-67
2.24241e-64
5.58261e-62
1.2039e-59
2.32702e-57
3.97707e-55
5.97173e-53
7.82155e-51
8.86004e-49
8.5934e-47
7.06204e-45
4.87254e-43
2.81129e-41
1.36343e-39
5.63442e-38
2.04517e-36
6.57063e-35
1.72337e-33
2.91613e-32
2.04268e-31
2.93907e-31
1.16125e-32
3.54424e-34
9.33803e-36
2.13722e-37
4.21228e-39
7.0086e-41
9.49529e-43
9.83788e-45
6.921e-47
2.4309e-49
3.90458e-52
4.66731e-121
2.26724e-116
2.55962e-112
1.30341e-108
4.19343e-105
9.87248e-102
1.84112e-98
2.85632e-95
3.81134e-92
4.482e-89
4.72454e-86
4.4247e-83
3.4825e-80
2.32115e-77
1.31852e-74
6.41478e-72
2.68282e-69
9.67097e-67
3.01004e-64
8.09628e-62
1.88218e-59
3.77965e-57
6.5617e-55
1.01924e-52
1.40318e-50
1.70023e-48
1.79907e-46
1.64656e-44
1.29038e-42
8.58205e-41
4.82548e-39
2.30564e-37
9.50003e-36
3.49977e-34
1.17878e-32
3.43077e-31
7.08892e-30
7.32801e-29
2.31323e-28
3.83689e-29
1.87954e-30
6.30635e-32
1.70448e-33
3.8826e-35
7.45435e-37
1.17282e-38
1.42718e-40
1.20324e-42
5.37811e-45
7.92217e-48
1.07864e-117
4.72894e-113
4.71903e-109
2.12741e-105
6.05561e-102
1.25928e-98
2.06947e-95
2.82081e-92
3.29565e-89
3.3805e-86
3.1004e-83
2.5784e-80
1.8594e-77
1.13929e-74
5.96683e-72
2.6837e-69
1.04023e-66
3.48355e-64
1.00951e-61
2.5337e-59
5.50799e-57
1.03649e-54
1.68622e-52
2.36759e-50
2.97219e-48
3.30953e-46
3.24766e-44
2.78323e-42
2.06295e-40
1.3109e-38
7.1132e-37
3.31045e-35
1.34114e-33
4.92348e-32
1.69598e-30
5.29325e-29
1.26813e-27
1.74319e-26
1.0148e-25
9.54896e-26
4.41349e-27
1.44694e-28
4.04193e-30
9.98137e-32
2.15797e-33
3.94216e-35
5.72371e-37
5.94018e-39
3.48426e-41
6.13169e-44
1.96743e-114
7.88807e-110
7.04315e-106
2.84341e-102
7.24111e-99
1.34462e-95
1.96783e-92
2.38033e-89
2.45741e-86
2.21622e-83
1.77729e-80
1.2853e-77
8.48163e-75
4.79296e-72
2.32124e-69
9.67745e-67
3.48473e-64
1.08634e-61
2.93631e-59
6.88666e-57
1.40155e-54
2.47369e-52
3.78156e-50
4.99763e-48
5.69664e-46
5.79377e-44
5.23433e-42
4.16728e-40
2.89689e-38
1.74307e-36
9.03793e-35
4.05077e-33
1.59166e-31
5.72028e-30
1.96727e-28
6.37239e-27
1.6895e-25
2.84909e-24
2.57305e-23
7.08122e-23
4.82624e-24
2.78097e-25
1.3408e-26
5.39724e-28
1.80511e-29
4.89904e-31
1.02751e-32
1.52091e-34
1.30228e-36
3.27026e-39
2.79216e-111
1.0312e-106
8.33021e-103
3.04441e-99
7.01277e-96
1.17604e-92
1.55095e-89
1.6859e-86
1.55895e-83
1.25452e-80
8.9387e-78
5.71604e-75
3.31373e-72
1.7317e-69
7.7772e-67
3.01311e-64
1.01019e-61
2.9373e-59
7.41735e-57
1.6278e-54
3.10465e-52
5.14306e-50
7.39095e-48
9.19717e-46
9.88605e-44
9.15304e-42
7.56262e-40
5.5489e-38
3.58674e-36
2.02505e-34
9.93433e-33
4.24016e-31
1.59467e-29
5.51584e-28
1.85038e-26
6.02696e-25
1.69352e-23
3.27692e-22
3.98305e-21
2.36098e-20
1.67166e-20
1.15445e-21
5.7119e-23
2.38263e-24
8.54782e-26
2.56908e-27
6.12579e-29
1.05661e-30
1.0942e-32
3.54664e-35
3.10659e-108
1.06366e-103
7.85315e-100
2.62368e-96
5.51978e-93
8.44085e-90
1.01285e-86
9.99047e-84
8.35578e-81
6.05941e-78
3.87494e-75
2.21466e-72
1.14357e-69
5.38011e-67
2.24631e-64
8.10743e-62
2.53628e-59
6.89125e-57
1.62833e-54
3.34802e-52
5.98993e-50
9.31911e-48
1.2593e-45
1.47544e-43
1.49529e-41
1.30695e-39
9.82795e-38
6.59655e-36
3.93047e-34
2.06316e-32
9.48094e-31
3.81123e-29
1.35462e-27
4.43754e-26
1.42021e-24
4.51076e-23
1.28894e-21
2.6984e-20
3.9805e-19
3.73639e-18
1.33152e-17
8.08354e-19
4.33476e-20
2.1786e-21
1.0056e-22
4.05186e-24
1.32909e-25
3.21748e-27
4.82791e-29
2.65235e-31
2.73672e-105
8.76542e-101
5.97364e-97
1.84171e-93
3.57166e-90
5.02609e-87
5.53724e-84
5.00039e-81
3.81599e-78
2.51513e-75
1.45551e-72
7.49278e-70
3.46832e-67
1.45677e-64
5.59445e-62
1.88545e-59
5.51546e-57
1.40294e-54
3.10664e-52
5.99178e-50
1.00646e-47
1.47143e-45
1.87011e-43
2.06268e-41
1.9699e-39
1.62423e-37
1.15226e-35
7.02677e-34
3.82684e-32
1.8501e-30
7.884e-29
2.95258e-27
9.79886e-26
2.99501e-24
8.95686e-23
2.69286e-21
7.51534e-20
1.61225e-18
2.65263e-17
3.28468e-16
2.66944e-15
1.92155e-15
1.70291e-16
1.2202e-17
7.52939e-19
3.87682e-20
1.57173e-21
4.60419e-23
8.32794e-25
5.87655e-27
1.88073e-102
5.68787e-98
3.61811e-94
1.04043e-90
1.87975e-87
2.46016e-84
2.51518e-81
2.10197e-78
1.47959e-75
8.96039e-73
4.74325e-70
2.22225e-67
9.30853e-65
3.51611e-62
1.20637e-59
3.78752e-57
1.03824e-54
2.47691e-52
5.14789e-50
9.32468e-48
1.47184e-45
2.02312e-43
2.4188e-41
2.51106e-39
2.25849e-37
1.75493e-35
1.17407e-33
6.7363e-32
3.3228e-30
1.46544e-28
5.73144e-27
1.97829e-25
6.06106e-24
1.70526e-22
4.67656e-21
1.2939e-19
3.38832e-18
7.07028e-17
1.20324e-15
1.71682e-14
2.16889e-13
9.6846e-13
8.6078e-14
7.19111e-15
5.36547e-16
3.36751e-17
1.66435e-18
5.94801e-20
1.32592e-21
1.22751e-23
1.00193e-99
2.8846e-95
1.7308e-91
4.68955e-88
7.97255e-85
9.80126e-82
9.39153e-79
7.33584e-76
4.81074e-73
2.70408e-70
1.32301e-67
5.70229e-65
2.18618e-62
7.51597e-60
2.33323e-57
6.57529e-55
1.68962e-52
3.78764e-50
7.39997e-48
1.26039e-45
1.87112e-43
2.41941e-41
2.72151e-39
2.65865e-37
2.2506e-35
1.64632e-33
1.03711e-31
5.60381e-30
2.58573e-28
1.02846e-26
3.65296e-25
1.14978e-23
3.21745e-22
8.23279e-21
2.03709e-19
5.05502e-18
1.19368e-16
2.30202e-15
3.7694e-14
5.49142e-13
8.63124e-12
6.59567e-11
1.26283e-11
1.27719e-12
1.22246e-13
1.00091e-14
6.44836e-16
2.98914e-17
8.65892e-19
1.08895e-20
4.10144e-97
1.13448e-92
6.49427e-89
1.67559e-85
2.70846e-82
3.15999e-79
2.86687e-76
2.11426e-73
1.30469e-70
6.8745e-68
3.13933e-65
1.2569e-62
4.45316e-60
1.40701e-57
3.99084e-55
1.02193e-52
2.37294e-50
5.00712e-48
9.21083e-46
1.47707e-43
2.06427e-41
2.51224e-39
2.65922e-37
2.44398e-35
1.94593e-33
1.33854e-31
7.9272e-30
4.02543e-28
1.74432e-26
6.41819e-25
2.04536e-23
5.80848e-22
1.46954e-20
3.38388e-19
7.45559e-18
1.62346e-16
3.32651e-15
5.6392e-14
8.25934e-13
1.08147e-11
1.7579e-10
1.36889e-09
6.60912e-10
1.13516e-10
1.68169e-11
1.97311e-12
1.718e-13
1.03224e-14
3.78372e-16
6.11494e-18
1.27507e-94
3.42227e-90
1.89148e-86
4.69961e-83
7.30237e-80
8.17337e-77
7.09629e-74
4.99356e-71
2.93011e-68
1.46223e-65
6.29612e-63
2.36513e-60
7.81994e-58
2.29254e-55
5.99716e-53
1.40769e-50
2.97959e-48
5.70913e-46
9.90317e-44
1.49727e-41
1.9718e-39
2.25997e-37
2.25147e-35
1.94626e-33
1.45655e-31
9.41048e-30
5.2305e-28
2.49049e-26
1.01078e-24
3.47671e-23
1.00771e-21
2.55239e-20
5.77986e-19
1.18629e-17
2.30401e-16
4.3305e-15
7.43471e-14
1.05768e-12
1.28539e-11
1.29291e-10
1.79218e-09
8.26013e-09
8.52292e-09
2.70085e-09
6.64771e-10
1.175e-10
1.42753e-11
1.12965e-12
5.24322e-14
1.06821e-15
2.96309e-92
7.79944e-88
4.21615e-84
1.02102e-80
1.54308e-77
1.67618e-74
1.40868e-71
9.56531e-69
5.39638e-66
2.57844e-63
1.05805e-60
3.76826e-58
1.17465e-55
3.22716e-53
7.86102e-51
1.70682e-48
3.31923e-46
5.80691e-44
9.17112e-42
1.30893e-39
1.62608e-37
1.75634e-35
1.64717e-33
1.33892e-31
9.41156e-30
5.70421e-28
2.97021e-26
1.32288e-24
5.01288e-23
1.60621e-21
4.32283e-20
9.74918e-19
1.95398e-17
3.54007e-16
6.0146e-15
9.65578e-14
1.34971e-12
1.55369e-11
1.45661e-10
8.97559e-10
9.00329e-09
1.17033e-08
1.16834e-08
1.58101e-08
6.20068e-09
1.8231e-09
3.42383e-10
3.84808e-11
2.3488e-12
6.0019e-14
5.05802e-90
1.3172e-85
7.06435e-82
1.68957e-78
2.51559e-75
2.68549e-72
2.21176e-69
1.4669e-66
8.0518e-64
3.7266e-61
1.47393e-58
5.03227e-56
1.49492e-53
3.88927e-51
8.91138e-49
1.80723e-46
3.25888e-44
5.24775e-42
7.57701e-40
9.84229e-38
1.15373e-35
1.17514e-33
1.03774e-31
7.93005e-30
5.23142e-28
2.97037e-26
1.44612e-24
6.00842e-23
2.11832e-21
6.29452e-20
1.56473e-18
3.23284e-17
5.64403e-16
8.92493e-15
1.31594e-13
1.79217e-12
1.99589e-11
1.82442e-10
1.24336e-09
3.19704e-09
6.66554e-09
2.3837e-08
3.48575e-08
2.69639e-07
3.02311e-08
6.79623e-09
2.66638e-09
4.18064e-10
3.22469e-11
9.34293e-13
6.33914e-88
1.60991e-83
8.70558e-80
2.08673e-76
3.10455e-73
3.30261e-70
2.70205e-67
1.77375e-64
9.596e-62
4.35646e-59
1.68114e-56
5.56746e-54
1.59418e-51
3.97093e-49
8.64932e-47
1.6551e-44
2.79441e-42
4.17985e-40
5.5611e-38
6.60707e-36
7.03508e-34
6.74293e-32
5.60746e-30
4.02696e-28
2.49094e-26
1.32295e-24
6.00835e-23
2.32158e-21
7.58395e-20
2.07875e-18
4.74056e-17
8.92262e-16
1.38085e-14
1.87137e-13
2.36335e-12
2.69839e-11
2.33022e-10
1.66389e-09
7.62846e-09
3.42103e-09
1.30907e-06
9.75397e-07
4.83405e-07
5.87976e-06
7.60748e-07
1.10279e-08
5.89612e-09
2.53016e-09
2.20887e-10
5.13477e-12
5.56912e-86
1.38475e-81
7.69393e-78
1.87943e-74
2.83912e-71
3.05691e-68
2.5225e-65
1.66331e-62
8.99642e-60
4.0617e-57
1.5496e-54
5.04123e-52
1.40831e-49
3.39758e-47
7.11306e-45
1.2979e-42
2.0724e-40
2.90698e-38
3.59591e-36
3.93759e-34
3.83161e-32
3.32567e-30
2.58742e-28
1.74495e-26
1.01091e-24
5.01278e-23
2.11812e-21
7.5833e-20
2.28396e-18
5.73648e-17
1.18964e-15
2.01751e-14
2.78344e-13
3.18627e-12
3.35434e-11
3.10239e-10
1.93333e-09
9.56189e-09
1.22783e-08
4.28466e-09
4.69324e-06
2.86946e-06
6.50308e-06
4.09517e-05
1.16669e-05
2.61436e-08
9.23002e-09
6.45225e-09
3.5691e-10
1.20172e-12
3.32596e-84
8.30034e-80
4.74037e-76
1.20322e-72
1.88006e-69
2.08591e-66
1.76641e-63
1.18969e-60
6.53725e-58
2.98035e-55
1.14057e-52
3.69536e-50
1.02025e-47
2.41308e-45
4.91148e-43
8.63773e-41
1.31764e-38
1.74996e-36
2.03095e-34
2.06737e-32
1.85257e-30
1.46663e-28
1.02894e-26
6.42008e-25
3.47682e-23
1.60598e-21
6.29305e-20
2.07825e-18
5.73557e-17
1.3089e-15
2.43974e-14
3.6689e-13
4.41635e-12
4.27021e-11
3.55778e-10
2.4653e-09
9.37252e-09
1.27015e-08
1.75704e-08
2.64679e-08
7.71121e-07
1.03119e-06
0.000669966
0.000436565
4.9058e-05
1.55396e-08
9.55906e-09
3.70901e-09
1.44393e-10
4.54631e-12
1.29982e-82
3.37004e-78
1.96925e-74
5.31875e-71
8.79124e-68
1.02698e-64
9.11152e-62
6.39321e-59
3.63646e-56
1.7039e-53
6.64964e-51
2.17869e-48
6.02946e-46
1.4164e-43
2.83638e-41
4.8607e-39
7.15484e-37
9.0793e-35
9.9687e-33
9.50458e-31
7.89721e-29
5.73722e-27
3.65475e-25
2.04561e-23
1.0076e-21
4.32146e-20
1.56405e-18
4.73841e-17
1.18918e-15
2.43918e-14
4.02312e-13
5.24512e-12
5.33691e-11
4.23237e-10
2.63195e-09
1.1843e-08
1.23757e-08
1.36198e-08
5.48865e-08
5.97616e-07
1.10473e-06
0.00396723
0.00569948
1.31087e-05
1.01047e-05
2.74338e-08
3.07043e-08
4.41828e-09
4.67112e-12
4.53424e-12
3.14095e-81
8.65291e-77
5.26388e-73
1.56137e-69
2.81152e-66
3.55636e-63
3.39509e-60
2.54509e-57
1.53424e-54
7.55128e-52
3.06579e-49
1.03432e-46
2.91607e-44
6.90194e-42
1.37699e-39
2.32442e-37
3.33216e-35
4.07169e-33
4.25685e-31
3.82216e-29
2.95834e-27
1.98062e-25
1.15041e-23
5.80883e-22
2.55165e-20
9.74411e-19
3.23067e-17
8.91622e-16
2.01619e-14
3.66703e-13
5.24364e-12
5.74433e-11
4.71364e-10
2.8669e-09
1.25489e-08
1.51569e-08
2.84904e-08
8.74188e-08
4.63843e-07
5.98012e-06
0.0013209
0.0128482
0.00779062
1.18018e-05
7.16787e-08
6.20884e-08
3.65111e-08
2.86315e-08
4.83423e-05
9.73071e-05
4.22508e-80
1.28052e-75
8.62683e-72
2.83402e-68
5.79966e-65
8.2673e-62
8.81863e-59
7.31646e-56
4.82929e-53
2.57205e-50
1.11575e-47
3.96878e-45
1.16357e-42
2.82398e-40
5.69608e-38
9.58506e-36
1.35082e-33
1.60075e-31
1.60168e-29
1.35903e-27
9.82096e-26
6.06955e-24
3.21964e-22
1.46969e-20
5.77794e-19
1.95277e-17
5.63935e-16
1.37946e-14
2.78077e-13
4.41271e-12
5.33376e-11
4.71222e-10
2.92975e-09
1.27837e-08
1.58179e-08
2.89306e-08
5.81183e-07
3.27669e-05
6.00324e-06
5.08163e-05
0.00230848
0.0128772
0.00605346
3.30913e-05
-1.12835e-08
3.22956e-08
-9.83854e-09
5.96603e-08
3.09399e-05
8.18993e-05
2.86885e-79
9.14857e-75
7.59572e-71
2.87217e-67
6.79503e-64
1.16329e-60
1.47205e-57
1.42927e-54
1.0874e-51
6.56568e-49
3.17254e-46
1.23419e-43
3.88396e-41
9.92908e-39
2.07024e-36
3.53479e-34
4.96333e-32
5.75722e-30
5.54368e-28
4.4545e-26
3.00325e-24
1.70835e-22
8.241e-21
3.38494e-19
1.18602e-17
3.53786e-16
8.91745e-15
1.86963e-13
3.18318e-12
4.26537e-11
4.22876e-10
2.8654e-09
1.27816e-08
1.61909e-08
3.40924e-08
1.87495e-07
1.84777e-06
0.000148799
0.00103483
0.00373752
0.00263759
0.0119462
0.00165053
0.000302197
0.000128436
-6.28932e-09
-3.52964e-07
-8.42606e-06
2.46503e-10
0.000346186
6.23999e-79
2.42246e-74
2.4078e-70
1.22473e-66
3.82611e-63
8.21114e-60
1.28794e-56
1.59377e-53
1.52707e-50
1.13174e-47
6.53573e-45
2.95778e-42
1.05413e-39
2.97225e-37
6.66062e-35
1.19179e-32
1.71099e-30
1.98114e-28
1.86064e-26
1.42627e-24
8.98515e-23
4.68676e-21
2.03976e-19
7.45968e-18
2.30381e-16
6.01119e-15
1.31483e-13
2.36117e-12
3.35151e-11
3.5554e-10
2.63046e-09
1.25426e-08
1.58133e-08
3.40887e-08
2.61868e-07
2.12055e-06
1.46894e-05
0.0001904
0.0061424
0.0140458
0.0100796
0.00543416
0.00228137
0.00189013
0.00171854
0.000133137
0.0806675
0.275479
0.152937
0.133555
1.38203e-79
9.62995e-75
1.40348e-70
1.11353e-66
5.32871e-63
1.71867e-59
4.18253e-56
7.52088e-53
9.93e-50
9.82452e-47
7.73623e-44
4.55256e-41
2.01847e-38
6.79536e-36
1.75009e-33
3.4723e-31
5.34323e-29
6.41919e-27
6.06117e-25
4.53029e-23
2.70151e-21
1.2968e-19
5.06206e-18
1.62446e-16
4.33018e-15
9.64961e-14
1.79037e-12
2.69538e-11
3.0993e-10
2.46344e-09
1.18377e-08
1.51487e-08
2.89366e-08
1.87718e-07
2.122e-06
1.77488e-05
9.09633e-05
0.00107377
0.0107767
0.0115593
0.00876254
0.00680515
0.00477264
0.0366893
0.177166
0.416085
0.804209
0.957522
0.952026
0.82635
1.18032e-81
1.28273e-76
2.90549e-72
3.89861e-68
4.1649e-64
3.22444e-60
1.64795e-56
6.0003e-53
1.52113e-49
2.63606e-46
3.37024e-43
2.93381e-40
1.91257e-37
8.92406e-35
2.9719e-32
7.18974e-30
1.28158e-27
1.70288e-25
1.70351e-23
1.29457e-21
7.53911e-20
3.39574e-18
1.19531e-16
3.32856e-15
7.4342e-14
1.34879e-12
1.99368e-11
2.32737e-10
1.9314e-09
9.36585e-09
1.23699e-08
2.83573e-08
5.81099e-07
1.84845e-06
1.46994e-05
9.09907e-05
0.000497424
0.00134832
0.00518095
0.0265616
0.0755874
0.110665
0.281445
0.50863
0.744417
0.885247
0.99992
0.999996
0.999984
0.999936
5.28691e-84
1.16019e-78
3.5457e-74
5.58354e-70
6.17201e-66
4.75855e-62
2.69017e-58
1.32046e-54
6.60071e-51
4.79773e-47
1.74451e-43
3.79204e-40
4.83183e-37
3.9097e-34
2.10053e-31
7.47072e-29
1.76707e-26
2.87696e-24
3.30004e-22
2.71223e-20
1.61825e-18
7.08917e-17
2.30623e-15
5.64538e-14
1.05809e-12
1.55318e-11
1.82263e-10
1.6617e-09
9.54847e-09
1.26872e-08
1.35967e-08
8.6947e-08
3.26332e-05
0.00014898
0.000190642
0.00107394
0.00134839
0.00343275
0.00764494
0.174577
0.615374
0.728298
0.928604
0.992349
1
1
1
1
0.999985
0.999998
1.73808e-86
8.15081e-81
3.18729e-76
5.46196e-72
6.03705e-68
4.60815e-64
2.98261e-60
2.03492e-56
1.37326e-52
1.014e-48
3.74969e-45
1.24262e-41
5.22533e-38
2.05245e-34
3.07706e-31
2.3855e-28
1.03619e-25
2.60798e-23
4.01944e-21
4.00574e-19
2.66459e-17
1.20717e-15
3.77838e-14
8.27326e-13
1.28674e-11
1.45711e-10
1.24277e-09
7.61975e-09
1.22424e-08
1.75311e-08
5.42212e-08
4.55249e-07
5.93086e-06
0.00103317
0.0061449
0.0107769
0.00518084
0.00764487
0.223559
0.827688
0.999365
0.999874
0.999882
1
1
1
1
1
1
1
4.72839e-89
4.69185e-83
2.30107e-78
4.21769e-74
4.69976e-70
3.60303e-66
2.73424e-62
2.48407e-58
1.98104e-54
1.41865e-50
5.36698e-47
2.95529e-43
1.71926e-39
6.52813e-36
1.24977e-32
4.25064e-29
9.95753e-26
7.2484e-23
2.39467e-20
3.7692e-18
3.30388e-16
1.72392e-14
5.50847e-13
1.08412e-11
1.2955e-10
8.99011e-10
3.2001e-09
3.42056e-09
4.27446e-09
2.62473e-08
5.89212e-07
5.90788e-06
5.03561e-05
0.00373528
0.0140466
0.0115602
0.0265615
0.174576
0.827687
1
1
0.999999
1
1
1
1
1
1
1
1
1.11682e-91
2.27354e-85
1.38646e-80
2.71408e-76
3.08863e-72
2.41658e-68
2.17232e-64
2.50134e-60
2.25372e-56
1.60316e-52
6.34135e-49
5.61426e-45
3.78499e-41
1.39683e-37
3.91902e-34
2.05973e-30
4.58533e-27
5.03841e-24
1.73439e-20
1.35398e-17
2.69183e-15
2.17983e-13
8.66045e-12
1.76231e-10
1.79603e-09
9.02689e-09
6.67076e-09
1.31482e-06
4.71109e-06
7.68254e-07
1.0958e-06
0.00132232
0.00228885
0.00262753
0.0100871
0.0087637
0.0755889
0.615374
0.999365
1
1
1
1
1
1
1
1
1
1
1
2.32612e-94
9.45949e-88
7.06217e-83
1.4812e-78
1.74228e-74
1.41171e-70
1.50636e-66
2.11872e-62
2.12859e-58
1.5503e-54
6.56863e-51
8.82527e-47
6.61952e-43
2.4715e-39
1.0512e-35
6.83572e-32
1.49925e-28
2.94262e-25
1.19253e-21
8.20138e-19
1.99212e-15
9.76569e-13
6.62365e-11
1.37282e-09
8.29042e-09
1.17309e-08
2.39472e-08
9.80109e-07
2.88104e-06
1.02857e-06
0.00397967
0.0128548
0.0128839
0.0119499
0.00543254
0.00680611
0.110663
0.728298
0.999874
0.999999
1
1
1
1
1
1
1
1
1
1
4.3787e-97
3.42998e-90
3.02597e-85
6.83251e-81
8.39499e-77
7.13617e-73
9.02891e-69
1.51488e-64
1.69561e-60
1.29913e-56
6.0362e-53
1.16816e-48
9.7249e-45
3.81678e-41
2.43019e-37
1.83241e-33
4.18043e-30
1.42665e-26
5.88052e-23
4.40029e-20
1.74784e-16
8.66778e-14
1.27126e-11
6.62806e-10
8.54064e-09
1.17009e-08
3.49372e-08
4.84421e-07
6.51005e-06
0.000668853
0.00568764
0.00779461
0.00605995
0.00165044
0.00228251
0.00476842
0.281447
0.928601
0.999882
1
1
1
1
1
1
1
1
1
1
1
7.25654e-100
1.04469e-92
1.06701e-87
2.60931e-83
3.3814e-79
3.05171e-75
4.57419e-71
9.03312e-67
1.13169e-62
9.3348e-59
4.86279e-55
1.30189e-50
1.21401e-46
5.1726e-43
4.81411e-39
4.14902e-35
1.03116e-31
5.75146e-28
2.44679e-24
2.21624e-21
1.24746e-17
7.2353e-15
1.28439e-12
1.13757e-10
2.7041e-09
1.5827e-08
2.69686e-07
5.87896e-06
4.08582e-05
0.000436395
1.3025e-05
1.18589e-05
3.31766e-05
0.000302137
0.00189013
0.0366863
0.508622
0.992348
1
1
1
1
1
1
1
1
1
1
1
1
1.02352e-102
2.57819e-95
3.13235e-90
7.90903e-86
1.09198e-81
1.05923e-77
1.88471e-73
4.35826e-69
6.1612e-65
5.58513e-61
3.33287e-57
1.19958e-52
1.26912e-48
6.03033e-45
8.02753e-41
7.93063e-37
2.22805e-33
1.9228e-29
8.76077e-26
1.02595e-22
7.67803e-19
5.39461e-16
1.22862e-13
1.68441e-11
6.65139e-10
6.20637e-09
3.02353e-08
7.61189e-07
1.16478e-05
4.88911e-05
1.00363e-05
7.14739e-08
-1.16045e-08
0.000128689
0.00171765
0.177158
0.744418
1
1
1
1
1
1
1
1
1
1
1
1
1
1.17334e-105
5.12291e-98
7.25721e-93
1.96367e-88
2.78771e-84
2.82712e-80
5.90598e-76
1.60494e-71
2.59281e-67
2.63727e-63
1.84495e-59
8.77524e-55
1.06909e-50
5.80114e-47
1.08816e-42
1.24355e-38
4.06958e-35
5.2112e-31
2.62874e-27
4.14605e-24
3.9451e-20
3.38318e-17
1.00539e-14
1.97524e-12
1.17505e-10
1.82346e-09
6.79874e-09
1.10321e-08
2.6111e-08
1.55298e-08
2.75468e-08
6.1778e-08
3.22802e-08
-6.11245e-09
0.000133394
0.41608
0.885248
1
1
1
1
1
1
1
1
1
1
1
1
1
1.0095e-108
7.70977e-101
1.1867e-95
3.44241e-91
5.2907e-87
5.88252e-83
1.42479e-78
4.32302e-74
7.64521e-70
8.88613e-66
7.52104e-62
4.71576e-57
6.74525e-53
4.28376e-49
1.12699e-44
1.50918e-40
5.90968e-37
1.09077e-32
6.25821e-29
1.3633e-25
1.5962e-21
1.67048e-18
6.47251e-16
1.71865e-13
1.42675e-11
3.42218e-10
2.66455e-09
5.89249e-09
9.22375e-09
9.55201e-09
3.09333e-08
3.64691e-08
-9.71541e-09
-3.30194e-07
0.0806635
0.804204
0.99992
1
1
1
1
1
1
1
1
1
1
1
1
1
6.17181e-112
7.81433e-104
1.35953e-98
4.12872e-94
6.57247e-90
7.72449e-86
2.13916e-81
7.54285e-77
1.57227e-72
2.01918e-68
1.97851e-64
1.57153e-59
2.73755e-55
2.11168e-51
7.9218e-47
1.26939e-42
6.13493e-39
1.61017e-34
1.07749e-30
3.30515e-27
4.6652e-23
5.96169e-20
2.99699e-17
1.03158e-14
1.12806e-12
3.84301e-11
4.17462e-10
2.52653e-09
6.44384e-09
3.7013e-09
4.50323e-09
2.95543e-08
6.06744e-08
-8.46632e-06
0.275483
0.957522
0.999996
1
1
1
1
1
1
1
1
1
1
1
1
1
1.58974e-112
7.76136e-106
3.92701e-101
5.90333e-97
6.73156e-93
6.97951e-89
1.84293e-84
7.21764e-80
1.67815e-75
2.39931e-71
2.80569e-67
2.83076e-62
5.73053e-58
5.14996e-54
2.78009e-49
5.65869e-45
3.59781e-41
1.37288e-36
1.1125e-32
4.95817e-29
8.41032e-25
1.32579e-21
8.66415e-19
3.77467e-16
5.22813e-14
2.34257e-12
3.21613e-11
2.20279e-10
3.55941e-10
1.43724e-10
4.66649e-12
4.84925e-05
3.10706e-05
2.46167e-10
0.152933
0.952023
0.999984
0.999985
1
1
1
1
1
1
1
1
1
1
1
1
1.1259e-109
4.19087e-103
1.76666e-98
1.89232e-94
1.36049e-90
8.58293e-87
5.20326e-83
3.12581e-79
1.90791e-75
1.16544e-71
7.86823e-68
5.71277e-64
3.93759e-60
2.69173e-56
6.49684e-52
9.38715e-48
6.6618e-44
3.54568e-39
3.59978e-35
2.71733e-31
5.89675e-27
1.22014e-23
1.08417e-20
6.07415e-18
1.06133e-15
5.9674e-14
9.2912e-13
5.10462e-12
1.19161e-12
4.54148e-12
4.53501e-12
9.72515e-05
8.18655e-05
0.000345709
0.133554
0.826348
0.999936
0.999998
1
1
1
1
1
1
1
1
1
1
1
1
6.60682e-108
4.23491e-105
2.60175e-102
1.54074e-99
8.84663e-97
4.95467e-94
2.72324e-91
1.47797e-88
7.96976e-86
4.27694e-83
1.50787e-80
3.65763e-78
4.51672e-76
9.42019e-75
1.84263e-74
7.97343e-75
1.35738e-75
1.225e-76
6.59992e-78
2.21192e-79
4.80001e-81
6.94971e-83
6.88755e-85
4.80505e-87
2.42661e-89
9.08768e-92
2.57158e-94
5.57661e-97
9.37932e-100
1.23641e-102
1.28743e-105
1.05585e-108
6.86869e-112
3.53432e-115
1.43781e-118
4.58758e-122
1.14383e-125
2.20507e-129
3.24564e-133
3.59911e-137
2.9776e-141
1.78722e-145
7.728e-150
2.35972e-154
5.02404e-159
7.48696e-164
8.56566e-169
8.57363e-174
8.92135e-179
1.54287e-184
2.5015e-101
1.1063e-98
4.43175e-96
1.63099e-93
5.58608e-91
1.80188e-88
5.53526e-86
1.63636e-83
4.70145e-81
1.32513e-78
3.69718e-76
8.40831e-74
9.8626e-72