/*--------------------------------*- C++ -*----------------------------------*\
| =========                 |                                                 |
| \\      /  F ield         | OpenFOAM: The Open Source CFD Toolbox           |
|  \\    /   O peration     | Version:  2.4.0                                 |
|   \\  /    A nd           | Web:      www.OpenFOAM.org                      |
|    \\/     M anipulation  |                                                 |
\*---------------------------------------------------------------------------*/
FoamFile
{
    version     2.0;
    format      ascii;
    class       surfaceScalarField;
    location    "0.002";
    object      phi;
}
// * * * * * * * * * * * * * * * * * * * * * * * * * * * * * * * * * * * * * //

dimensions      [0 3 -1 0 0 0 0];

internalField   nonuniform List<scalar> 
19800
(
2.06268e-14
-2.06267e-14
-3.10476e-15
2.40774e-14
-1.04438e-13
1.01223e-13
-3.05328e-13
2.00647e-13
-6.25197e-13
3.19895e-13
-1.08264e-12
4.57933e-13
-1.692e-12
6.10066e-13
-2.46809e-12
7.76343e-13
-3.4264e-12
9.57509e-13
-4.58715e-12
1.15886e-12
-5.96473e-12
1.37525e-12
-7.56752e-12
1.601e-12
-9.41536e-12
1.84725e-12
-1.15217e-11
2.10682e-12
-1.38988e-11
2.37802e-12
-1.65581e-11
2.6597e-12
-1.95091e-11
2.95051e-12
-2.27595e-11
3.24927e-12
-2.63153e-11
3.55478e-12
-3.01817e-11
3.86583e-12
-3.43631e-11
4.18137e-12
-3.88609e-11
4.4978e-12
-4.36582e-11
4.79711e-12
-4.87697e-11
5.11103e-12
-5.41905e-11
5.4207e-12
-5.99138e-11
5.72369e-12
-6.59318e-11
6.01912e-12
-7.22325e-11
6.30174e-12
-7.88322e-11
6.60028e-12
-8.5722e-11
6.88933e-12
-9.28787e-11
7.15559e-12
-1.00293e-10
7.41367e-12
-1.07933e-10
7.63957e-12
-1.15863e-10
7.93071e-12
-1.2405e-10
8.18768e-12
-1.3247e-10
8.42029e-12
-1.41158e-10
8.68719e-12
-1.50093e-10
8.93365e-12
-1.59276e-10
9.1817e-12
-1.68699e-10
9.42178e-12
-1.78346e-10
9.64687e-12
-1.88196e-10
9.8497e-12
-1.98214e-10
1.00161e-11
-2.08348e-10
1.01318e-11
-2.1853e-10
1.018e-11
-2.28675e-10
1.01433e-11
-2.3868e-10
1.00025e-11
-2.48419e-10
9.73901e-12
-2.57755e-10
9.33671e-12
8.78402e-12
-2.66541e-10
7.00401e-14
-9.04651e-14
9.71866e-14
-3.2752e-15
4.83897e-14
1.49635e-13
-5.71369e-14
3.06125e-13
-1.91796e-13
4.5509e-13
-3.33954e-13
6.00792e-13
-4.70259e-13
7.46265e-13
-5.8671e-13
8.91053e-13
-6.65391e-13
1.03286e-12
-6.84827e-13
1.17446e-12
-6.26947e-13
1.31452e-12
-4.79163e-13
1.45226e-12
-2.22036e-13
1.59079e-12
1.5649e-13
1.72939e-12
6.66222e-13
1.86856e-12
1.31467e-12
2.01026e-12
2.10592e-12
2.15754e-12
3.03927e-12
2.31445e-12
4.1076e-12
2.48583e-12
5.29609e-12
2.67737e-12
6.58177e-12
2.8957e-12
7.93137e-12
3.14769e-12
9.28672e-12
3.44099e-12
1.06023e-11
3.79514e-12
1.18032e-11
4.22059e-12
1.27984e-11
4.73028e-12
1.34799e-11
5.33936e-12
1.37174e-11
6.06503e-12
1.33785e-11
6.9386e-12
1.23139e-11
7.9526e-12
1.03426e-11
9.12582e-12
7.27028e-12
1.04861e-11
2.87262e-12
1.20384e-11
-3.00877e-12
1.38133e-11
-1.06049e-11
1.57841e-11
-2.01448e-11
1.79591e-11
-3.17924e-11
2.03325e-11
-4.57385e-11
2.28775e-11
-6.21195e-11
2.5561e-11
-8.1034e-11
2.83349e-11
-1.0253e-10
3.11411e-11
-1.2659e-10
3.39069e-11
-1.5312e-10
3.65431e-11
-1.81947e-10
3.8955e-11
-2.12813e-10
4.10427e-11
-2.45374e-10
4.2703e-11
-2.79206e-10
4.3833e-11
-3.13808e-10
4.434e-11
-3.48618e-10
4.41461e-11
4.31967e-11
-3.83034e-10
1.48358e-13
-2.38933e-13
2.43851e-13
-9.9711e-14
2.67468e-13
1.25338e-13
2.80256e-13
2.93266e-13
3.29933e-13
4.05778e-13
4.60147e-13
4.70634e-13
7.19127e-13
4.8616e-13
1.15131e-12
4.5625e-13
1.79728e-12
3.83398e-13
2.69969e-12
2.68918e-13
3.89835e-12
1.14122e-13
5.43076e-12
-8.03465e-14
7.33329e-12
-3.11143e-13
9.63774e-12
-5.7475e-13
1.23715e-11
-8.6571e-13
1.55568e-11
-1.17599e-12
1.92086e-11
-1.4951e-12
2.33329e-11
-1.81003e-12
2.79242e-11
-2.10526e-12
3.29638e-11
-2.36226e-12
3.84178e-11
-2.55898e-12
4.42338e-11
-2.66961e-12
5.03383e-11
-2.66431e-12
5.66398e-11
-2.506e-12
6.30196e-11
-2.1577e-12
6.93312e-11
-1.5791e-12
7.53989e-11
-7.26709e-13
8.10185e-11
4.4596e-13
8.59696e-11
1.98741e-12
8.99842e-11
3.93793e-12
9.27694e-11
6.34121e-12
9.40158e-11
9.24107e-12
9.33875e-11
1.2668e-11
9.0558e-11
1.66433e-11
8.51632e-11
2.11783e-11
7.68584e-11
2.62625e-11
6.53261e-11
3.18631e-11
5.02657e-11
3.79361e-11
3.14279e-11
4.43971e-11
8.62902e-12
5.11322e-11
-1.82334e-11
5.80015e-11
-4.91636e-11
6.48354e-11
-8.40576e-11
7.14364e-11
-1.22691e-10
7.75879e-11
-1.64699e-10
8.30495e-11
-2.09593e-10
8.7596e-11
-2.56759e-10
9.09977e-11
-3.05472e-10
9.30508e-11
-3.54913e-10
9.35862e-11
9.24829e-11
-4.042e-10
2.49907e-13
-4.89497e-13
3.97824e-13
-2.48575e-13
4.34819e-13
8.79569e-14
4.60951e-13
2.67265e-13
5.5238e-13
3.14449e-13
7.62982e-13
2.59328e-13
1.15769e-12
8.949e-14
1.7859e-12
-1.74904e-13
2.7009e-12
-5.34619e-13
3.95437e-12
-9.86691e-13
5.59561e-12
-1.52805e-12
7.67271e-12
-2.15761e-12
1.02306e-11
-2.86919e-12
1.33105e-11
-3.65512e-12
1.69488e-11
-4.50471e-12
2.11756e-11
-5.40313e-12
2.60127e-11
-6.33175e-12
3.14708e-11
-7.26746e-12
3.75482e-11
-8.18225e-12
4.42276e-11
-9.04233e-12
5.14748e-11
-9.8075e-12
5.92348e-11
-1.04308e-11
6.74288e-11
-1.08584e-11
7.5953e-11
-1.10289e-11
8.46736e-11
-1.08761e-11
9.34246e-11
-1.0328e-11
1.02007e-10
-9.3076e-12
1.10188e-10
-7.7343e-12
1.17702e-10
-5.52611e-12
1.24245e-10
-2.60388e-12
1.29479e-10
1.10871e-12
1.33039e-10
5.68186e-12
1.34533e-10
1.11742e-11
1.3355e-10
1.76263e-11
1.29678e-10
2.50501e-11
1.22497e-10
3.34419e-11
1.11606e-10
4.27532e-11
9.66402e-11
5.28999e-11
7.72805e-11
6.37549e-11
5.32824e-11
7.51291e-11
2.44928e-11
8.67905e-11
-9.12692e-12
9.84552e-11
-4.74842e-11
1.09794e-10
-9.03394e-11
1.20443e-10
-1.37308e-10
1.30016e-10
-1.87825e-10
1.38112e-10
-2.41187e-10
1.4436e-10
-2.96555e-10
1.48417e-10
-3.52971e-10
1.50002e-10
1.48912e-10
-4.09399e-10
3.65661e-13
-8.55993e-13
5.49424e-13
-4.32219e-13
5.45907e-13
9.20506e-14
4.92086e-13
3.21694e-13
5.13899e-13
2.92626e-13
6.80825e-13
9.13237e-14
1.04248e-12
-2.74206e-13
1.65846e-12
-7.93249e-13
2.58107e-12
-1.45919e-12
3.8709e-12
-2.27774e-12
5.57898e-12
-3.23687e-12
7.75956e-12
-4.33896e-12
1.04627e-11
-5.57337e-12
1.37347e-11
-6.92795e-12
1.76181e-11
-8.38828e-12
2.21486e-11
-9.93288e-12
2.73536e-11
-1.15355e-11
3.32497e-11
-1.31626e-11
3.98407e-11
-1.47733e-11
4.71157e-11
-1.63182e-11
5.50456e-11
-1.77385e-11
6.35802e-11
-1.89657e-11
7.26443e-11
-1.99216e-11
8.21353e-11
-2.05181e-11
9.19191e-11
-2.06579e-11
1.01828e-10
-2.0235e-11
1.11658e-10
-1.91363e-11
1.21169e-10
-1.72435e-11
1.3008e-10
-1.4436e-11
1.38071e-10
-1.05949e-11
1.44786e-10
-5.60568e-12
1.49831e-10
6.36428e-13
1.52785e-10
8.21964e-12
1.53191e-10
1.7221e-11
1.50598e-10
2.76422e-11
1.44534e-10
3.9506e-11
1.34544e-10
5.2742e-11
1.20203e-10
6.72391e-11
1.0113e-10
8.28268e-11
7.70209e-11
9.92385e-11
4.76652e-11
1.16147e-10
1.2977e-11
1.33143e-10
-2.69843e-11
1.49756e-10
-7.19952e-11
1.65454e-10
-1.21654e-10
1.79674e-10
-1.75374e-10
1.91831e-10
-2.32393e-10
2.0138e-10
-2.91787e-10
2.07812e-10
-3.52497e-10
2.10712e-10
2.09782e-10
-4.13367e-10
4.96277e-13
-1.35251e-12
6.99895e-13
-6.33916e-13
6.08323e-13
1.85429e-13
4.4105e-13
4.90158e-13
3.25465e-13
4.08398e-13
3.43878e-13
7.21374e-14
5.63336e-13
-4.94933e-13
1.04537e-12
-1.2765e-12
1.85418e-12
-2.26893e-12
3.03896e-12
-3.46336e-12
4.64599e-12
-4.84501e-12
6.74662e-12
-6.44101e-12
9.39057e-12
-8.21862e-12
1.26281e-11
-1.0166e-11
1.65088e-11
-1.22683e-11
2.10742e-11
-1.44968e-11
2.63588e-11
-1.68185e-11
3.23868e-11
-1.91899e-11
3.91709e-11
-2.15575e-11
4.67089e-11
-2.38568e-11
5.49811e-11
-2.6011e-11
6.39462e-11
-2.79305e-11
7.35379e-11
-2.95125e-11
8.36614e-11
-3.06403e-11
9.41896e-11
-3.11843e-11
1.0496e-10
-3.10032e-11
1.1577e-10
-2.99454e-11
1.26379e-10
-2.78521e-11
1.36503e-10
-2.45599e-11
1.45813e-10
-1.99055e-11
1.53937e-10
-1.37308e-11
1.60463e-10
-5.88932e-12
1.64937e-10
3.74556e-12
1.66884e-10
1.52743e-11
1.65779e-10
2.87469e-11
1.61115e-10
4.41702e-11
1.52377e-10
6.14789e-11
1.39069e-10
8.0548e-11
1.20734e-10
1.01161e-10
9.69907e-11
1.22982e-10
6.75545e-11
1.45583e-10
3.22728e-11
1.68424e-10
-8.84796e-12
1.90875e-10
-5.56143e-11
2.12221e-10
-1.0763e-10
2.31692e-10
-1.64288e-10
2.4849e-10
-2.24764e-10
2.61856e-10
-2.88045e-10
2.71094e-10
-3.52959e-10
2.75624e-10
2.75032e-10
-4.1821e-10
6.54447e-13
-2.00601e-12
8.38553e-13
-8.14422e-13
6.27082e-13
3.99641e-13
2.75541e-13
8.43394e-13
-4.44245e-14
7.29065e-13
-2.2272e-13
2.50505e-13
-2.02135e-13
-5.15672e-13
7.96842e-14
-1.55855e-12
6.77992e-13
-2.86773e-12
1.65363e-12
-4.44001e-12
3.09861e-12
-6.29145e-12
5.03193e-12
-8.37582e-12
7.52291e-12
-1.07105e-11
1.06281e-11
-1.32711e-11
1.44066e-11
-1.60459e-11
1.89071e-11
-1.8996e-11
2.41732e-11
-2.20835e-11
3.02395e-11
-2.52556e-11
3.71298e-11
-2.84476e-11
4.4854e-11
-3.15811e-11
5.34047e-11
-3.4562e-11
6.27537e-11
-3.72797e-11
7.28477e-11
-3.96062e-11
8.36043e-11
-4.13957e-11
9.49072e-11
-4.24854e-11
1.06603e-10
-4.26969e-11
1.18496e-10
-4.18378e-11
1.30348e-10
-3.97047e-11
1.41874e-10
-3.60866e-11
1.52737e-10
-3.07704e-11
1.62554e-10
-2.35478e-11
1.70888e-10
-1.42232e-11
1.77258e-10
-2.62401e-12
1.81144e-10
1.1389e-11
1.81964e-10
2.79263e-11
1.79165e-10
4.69692e-11
1.72136e-10
6.85086e-11
1.603e-10
9.23842e-11
1.43107e-10
1.18354e-10
1.20067e-10
1.46022e-10
9.07963e-11
1.74852e-10
5.50465e-11
2.04173e-10
1.27468e-11
2.33175e-10
-3.59596e-11
2.60929e-10
-9.06904e-11
2.86424e-10
-1.50816e-10
3.08617e-10
-2.15437e-10
3.26478e-10
-2.8343e-10
3.39087e-10
-3.53474e-10
3.45668e-10
3.45653e-10
-4.24096e-10
8.23404e-13
-2.82727e-12
9.84717e-13
-9.71327e-13
5.97194e-13
7.90245e-13
1.09459e-14
1.43169e-12
-5.64379e-13
1.30573e-12
-1.00288e-12
6.89922e-13
-1.2449e-12
-2.73128e-13
-1.22463e-12
-1.57883e-12
-8.80646e-13
-3.2124e-12
-1.49114e-13
-5.17274e-12
1.01815e-12
-7.46e-12
2.71135e-12
-1.00699e-11
4.99696e-12
-1.29964e-11
7.89746e-12
-1.61714e-11
1.15126e-11
-1.96605e-11
1.58903e-11
-2.33731e-11
2.10872e-11
-2.72795e-11
2.71508e-11
-3.13184e-11
3.41185e-11
-3.54148e-11
4.20153e-11
-3.94782e-11
5.08504e-11
-4.33981e-11
6.06126e-11
-4.70428e-11
7.12658e-11
-5.02592e-11
8.2744e-11
-5.28722e-11
9.4946e-11
-5.4685e-11
1.07731e-10
-5.54801e-11
1.20914e-10
-5.5021e-11
1.34264e-10
-5.3055e-11
1.47494e-10
-4.93181e-11
1.60265e-10
-4.35412e-11
1.72176e-10
-3.54581e-11
1.82768e-10
-2.48148e-11
1.91524e-10
-1.13802e-11
1.9787e-10
5.04153e-12
2.01193e-10
2.46028e-11
2.00814e-10
4.73485e-11
1.96054e-10
7.32691e-11
1.86223e-10
1.02217e-10
1.70642e-10
1.33934e-10
1.48687e-10
1.67976e-10
1.19834e-10
2.03705e-10
8.37028e-11
2.40306e-10
4.01111e-11
2.76768e-10
-1.08742e-11
3.11915e-10
-6.88989e-11
3.44449e-10
-1.333e-10
3.73018e-10
-2.03093e-10
3.96271e-10
-2.77015e-10
4.13009e-10
-3.53545e-10
4.22197e-10
4.23084e-10
-4.30977e-10
1.0077e-12
-3.83223e-12
1.12923e-12
-1.08866e-12
5.25377e-13
1.39703e-12
-3.48069e-13
2.30734e-12
-1.22843e-12
2.18779e-12
-1.99707e-12
1.45966e-12
-2.55535e-12
2.85444e-13
-2.85823e-12
-1.2765e-12
-2.83753e-12
-3.23414e-12
-2.42896e-12
-5.5823e-12
-1.56768e-12
-8.32189e-12
-1.90629e-13
-1.14473e-11
1.7583e-12
-1.49456e-11
4.44033e-12
-1.88538e-11
7.8455e-12
-2.30659e-11
1.20396e-11
-2.75666e-11
1.7119e-11
-3.23577e-11
2.31406e-11
-3.73389e-11
3.01583e-11
-4.24324e-11
3.82167e-11
-4.75378e-11
4.7346e-11
-5.25289e-11
5.7556e-11
-5.72536e-11
6.88325e-11
-6.15345e-11
8.11301e-11
-6.51673e-11
9.43676e-11
-6.792e-11
1.08422e-10
-6.95335e-11
1.23125e-10
-6.97234e-11
1.38253e-10
-6.81831e-11
1.53525e-10
-6.45898e-11
1.68596e-10
-5.86112e-11
1.83053e-10
-4.99139e-11
1.96411e-10
-3.81733e-11
2.08116e-10
-2.30863e-11
2.17542e-10
-4.38595e-12
2.24001e-10
1.81429e-11
2.2671e-10
4.46395e-11
2.24899e-10
7.50807e-11
2.17724e-10
1.09392e-10
2.04357e-10
1.47302e-10
1.83989e-10
1.88345e-10
1.55908e-10
2.31786e-10
1.19558e-10
2.76657e-10
7.45972e-11
3.21728e-10
2.09805e-11
3.65531e-10
-4.09847e-11
4.06414e-10
-1.10603e-10
4.42638e-10
-1.86807e-10
4.72477e-10
-2.68124e-10
4.94326e-10
-3.52786e-10
5.06858e-10
5.0908e-10
-4.38783e-10
1.20296e-12
-5.03257e-12
1.26943e-12
-1.1517e-12
4.10251e-13
2.25879e-12
-8.00887e-13
3.52055e-12
-2.04842e-12
3.43671e-12
-3.18999e-12
2.60157e-12
-4.13036e-12
1.22507e-12
-4.81918e-12
-5.88957e-13
-5.18572e-12
-2.86865e-12
-5.1643e-12
-5.60417e-12
-4.68514e-12
-8.80119e-12
-3.67256e-12
-1.24604e-11
-2.04039e-12
-1.65789e-11
2.56101e-13
-2.11514e-11
3.32755e-12
-2.61375e-11
7.30617e-12
-3.15441e-11
1.22105e-11
-3.72603e-11
1.8136e-11
-4.32633e-11
2.51613e-11
-4.94582e-11
3.3355e-11
-5.57329e-11
4.2772e-11
-6.1947e-11
5.34483e-11
-6.79293e-11
6.53957e-11
-7.34798e-11
7.85959e-11
-7.8365e-11
9.29938e-11
-8.23161e-11
1.08491e-10
-8.503e-11
1.24939e-10
-8.61705e-11
1.42131e-10
-8.5373e-11
1.59792e-10
-8.22494e-11
1.77577e-10
-7.63954e-11
1.95062e-10
-6.73989e-11
2.11739e-10
-5.48514e-11
2.27014e-10
-3.83628e-11
2.40206e-10
-1.75787e-11
2.50554e-10
7.79391e-12
2.57122e-10
3.80715e-11
2.59072e-10
7.3131e-11
2.55372e-10
1.13094e-10
2.44983e-10
1.57694e-10
2.26877e-10
2.06453e-10
2.00093e-10
2.58571e-10
1.63829e-10
3.1292e-10
1.17519e-10
3.68037e-10
6.09524e-11
4.22098e-10
-5.64799e-12
4.73015e-10
-8.15668e-11
5.18557e-10
-1.65584e-10
5.56496e-10
-2.56014e-10
5.84756e-10
-3.50758e-10
6.01601e-10
6.05736e-10
-4.47414e-10
1.42048e-12
-6.45098e-12
1.40952e-12
-1.13809e-12
2.54731e-13
3.41573e-12
-1.34388e-12
5.12065e-12
-3.01051e-12
5.10363e-12
-4.57895e-12
4.16895e-12
-5.97708e-12
2.62135e-12
-7.10623e-12
5.38575e-13
-7.92527e-12
-2.05034e-12
-8.36121e-12
-5.16836e-12
-8.3396e-12
-8.82324e-12
-7.77943e-12
-1.30219e-11
-6.5942e-12
-1.77658e-11
-4.6966e-12
-2.30499e-11
-1.97984e-12
-2.88535e-11
1.63102e-12
-3.5153e-11
6.27287e-12
-4.19002e-11
1.20365e-11
-4.90263e-11
1.90033e-11
-5.64256e-11
2.72828e-11
-6.4013e-11
3.69566e-11
-7.16203e-11
4.80917e-11
-7.90628e-11
6.07322e-11
-8.61185e-11
7.48941e-11
-9.25257e-11
9.0556e-11
-9.79773e-11
1.07651e-10
-1.02124e-10
1.26058e-10
-1.04576e-10
1.45592e-10
-1.04904e-10
1.65992e-10
-1.02649e-10
1.86919e-10
-9.73223e-11
2.07942e-10
-8.84224e-11
2.28532e-10
-7.54425e-11
2.48057e-10
-5.78879e-11
2.65772e-10
-3.52937e-11
2.80809e-10
-7.24367e-12
2.92264e-10
2.66166e-11
2.98945e-10
6.64515e-11
2.99689e-10
1.12352e-10
2.93262e-10
1.64124e-10
2.78328e-10
2.21388e-10
2.53603e-10
2.83296e-10
2.17939e-10
3.48583e-10
1.70454e-10
4.1552e-10
1.10691e-10
4.81862e-10
3.87397e-11
5.44967e-10
-4.46706e-11
6.01967e-10
-1.3816e-10
6.49986e-10
-2.39737e-10
6.86335e-10
-3.46893e-10
7.08758e-10
7.15566e-10
-4.56725e-10
1.64732e-12
-8.09678e-12
1.54718e-12
-1.03583e-12
5.93676e-14
4.90508e-12
-1.97494e-12
7.15535e-12
-4.11437e-12
7.24189e-12
-6.17487e-12
6.22713e-12
-8.06685e-12
4.51099e-12
-9.71617e-12
2.18652e-12
-1.10513e-11
-7.15671e-13
-1.20207e-11
-4.19944e-12
-1.25382e-11
-8.30719e-12
-1.2517e-11
-1.30452e-11
-1.18627e-11
-1.84217e-11
-1.04739e-11
-2.44385e-11
-8.23955e-12
-3.10861e-11
-5.04593e-12
-3.83444e-11
-7.7424e-13
-4.61705e-11
4.70168e-12
-5.45019e-11
1.15424e-11
-6.32661e-11
1.98278e-11
-7.22975e-11
2.96975e-11
-8.14887e-11
4.12513e-11
-9.06158e-11
5.45744e-11
-9.94416e-11
6.97259e-11
-1.07677e-10
8.67262e-11
-1.14977e-10
1.05548e-10
-1.20944e-10
1.26107e-10
-1.25132e-10
1.48248e-10
-1.27043e-10
1.71735e-10
-1.26135e-10
1.96241e-10
-1.21829e-10
2.21336e-10
-1.13517e-10
2.46476e-10
-1.00583e-10
2.70996e-10
-8.24074e-11
2.94096e-10
-5.83939e-11
3.14838e-10
-2.79856e-11
3.3215e-10
9.30564e-12
3.4473e-10
5.38727e-11
3.51209e-10
1.05875e-10
3.5e-10
1.65332e-10
3.39466e-10
2.31922e-10
3.17882e-10
3.0488e-10
2.83628e-10
3.82838e-10
2.35372e-10
4.63774e-10
1.72286e-10
5.44947e-10
9.42541e-11
6.23e-10
1.99777e-12
6.94224e-10
-1.02895e-10
7.54879e-10
-2.18061e-10
8.01502e-10
-3.40448e-10
8.31146e-10
8.41628e-10
-4.66509e-10
1.89394e-12
-9.98953e-12
1.68522e-12
-8.25523e-13
-1.72572e-13
6.76352e-12
-2.68811e-12
9.66998e-12
-5.35044e-12
9.90188e-12
-7.95372e-12
8.82768e-12
-1.04025e-11
6.95781e-12
-1.26461e-11
4.4292e-12
-1.45512e-11
1.18881e-12
-1.61402e-11
-2.61186e-12
-1.72826e-11
-7.16699e-12
-1.78934e-11
-1.24365e-11
-1.78706e-11
-1.84451e-11
-1.71017e-11
-2.52063e-11
-1.54627e-11
-3.27233e-11
-1.28202e-11
-4.09855e-11
-9.02876e-12
-4.99613e-11
-3.93355e-12
-5.95965e-11
2.61021e-12
-6.98089e-11
1.08038e-11
-8.04899e-11
2.07694e-11
-9.14539e-11
3.266e-11
-1.02507e-10
4.66159e-11
-1.13399e-10
6.27454e-11
-1.23807e-10
8.11192e-11
-1.3335e-10
1.01762e-10
-1.41586e-10
1.24636e-10
-1.48005e-10
1.49628e-10
-1.52036e-10
1.76539e-10
-1.53046e-10
2.05064e-10
-1.50353e-10
2.34783e-10
-1.43235e-10
2.65146e-10
-1.30945e-10
2.95464e-10
-1.12724e-10
3.2489e-10
-8.78195e-11
3.52411e-10
-5.55056e-11
3.76825e-10
-1.51079e-11
3.96724e-10
3.39733e-11
4.1043e-10
9.21693e-11
4.16065e-10
1.59698e-10
4.11567e-10
2.3642e-10
3.94643e-10
3.21804e-10
3.63033e-10
4.14447e-10
3.14749e-10
5.12057e-10
2.48411e-10
6.11284e-10
1.63573e-10
7.0784e-10
6.09214e-11
7.96878e-10
-5.76967e-11
8.73498e-10
-1.89393e-10
9.33197e-10
-3.30439e-10
9.72191e-10
9.87662e-10
-4.7647e-10
2.15321e-12
-1.21418e-11
1.82304e-12
-4.94542e-13
-4.37467e-13
9.02354e-12
-3.47578e-12
1.27064e-11
-6.70701e-12
1.31305e-11
-9.90321e-12
1.20217e-11
-1.29656e-11
1.00191e-11
-1.58229e-11
7.28582e-12
-1.84614e-11
3.82602e-12
-2.07138e-11
-3.61593e-13
-2.25676e-11
-5.31548e-12
-2.39108e-11
-1.10947e-11
-2.46318e-11
-1.7724e-11
-2.46071e-11
-2.52302e-11
-2.3698e-11
-3.36318e-11
-2.17507e-11
-4.29327e-11
-1.85955e-11
-5.31165e-11
-1.40487e-11
-6.41426e-11
-7.91695e-12
-7.59399e-11
-8.79691e-15
-8.83981e-11
9.89843e-12
-1.01362e-10
2.20278e-11
-1.14638e-10
3.65099e-11
-1.27881e-10
5.35569e-11
-1.40853e-10
7.32906e-11
-1.53082e-10
9.58012e-11
-1.64096e-10
1.21114e-10
-1.73318e-10
1.49172e-10
-1.80094e-10
1.79823e-10
-1.83696e-10
2.128e-10
-1.83328e-10
2.47703e-10
-1.78138e-10
2.8399e-10
-1.67232e-10
3.20959e-10
-1.49692e-10
3.57733e-10
-1.24591e-10
3.93236e-10
-9.10087e-11
4.26175e-10
-4.8047e-11
4.54997e-10
5.15072e-12
4.77801e-10
6.93639e-11
4.92334e-10
1.45165e-10
4.96037e-10
2.32718e-10
4.85895e-10
3.31945e-10
4.58771e-10
4.4157e-10
4.1171e-10
5.59118e-10
3.42492e-10
6.80503e-10
2.50161e-10
8.00171e-10
1.35334e-10
9.11706e-10
2.09779e-13
1.00862e-09
-1.51638e-10
1.08505e-09
-3.15574e-10
1.13613e-09
1.15829e-09
-4.862e-10
2.42401e-12
-1.45651e-11
1.96142e-12
-3.22311e-14
-7.29732e-13
1.17132e-11
-4.32718e-12
1.63016e-11
-8.16953e-12
1.69707e-11
-1.2008e-11
1.58589e-11
-1.57431e-11
1.37536e-11
-1.93146e-11
1.08564e-11
-2.26771e-11
7.18679e-12
-2.57007e-11
2.65984e-12
-2.83731e-11
-2.6448e-12
-3.05599e-11
-8.90869e-12
-3.21496e-11
-1.61344e-11
-3.30087e-11
-2.43715e-11
-3.29834e-11
-3.36578e-11
-3.18995e-11
-4.40172e-11
-2.9562e-11
-5.54542e-11
-2.57563e-11
-6.79482e-11
-2.02505e-11
-8.14462e-11
-1.27975e-11
-9.58524e-11
-3.14187e-12
-1.11019e-10
8.96033e-12
-1.26741e-10
2.38734e-11
-1.42794e-10
4.17176e-11
-1.58697e-10
6.27331e-11
-1.74098e-10
8.71003e-11
-1.88463e-10
1.14922e-10
-2.01139e-10
1.46215e-10
-2.11387e-10
1.8089e-10
-2.18371e-10
2.18731e-10
-2.21169e-10
2.59377e-10
-2.18784e-10
3.02306e-10
-2.10161e-10
3.4682e-10
-1.94205e-10
3.92028e-10
-1.69798e-10
4.36826e-10
-1.35806e-10
4.79859e-10
-9.10818e-11
5.19472e-10
-3.44616e-11
5.53597e-10
3.52384e-11
5.79601e-10
1.19162e-10
5.94344e-10
2.17975e-10
5.9395e-10
3.32338e-10
5.74033e-10
4.61487e-10
5.30208e-10
6.02945e-10
4.58953e-10
7.51759e-10
3.58525e-10
9.00599e-10
2.29431e-10
1.0408e-09
7.43805e-11
1.16367e-09
-1.02101e-10
1.26153e-09
-2.94184e-10
1.32821e-09
1.35924e-09
-4.95139e-10
2.70534e-12
-1.72704e-11
2.10237e-12
5.69417e-13
-1.0414e-12
1.48551e-11
-5.22764e-12
2.04859e-11
-9.7167e-12
2.14585e-11
-1.42394e-11
2.03809e-11
-1.86962e-11
1.82098e-11
-2.30297e-11
1.51887e-11
-2.71778e-11
1.13333e-11
-3.11136e-11
6.59406e-12
-3.46765e-11
9.17046e-13
-3.78208e-11
-5.76531e-12
-4.04136e-11
-1.35428e-11
-4.23104e-11
-2.2476e-11
-4.33427e-11
-3.26267e-11
-4.33163e-11
-4.40443e-11
-4.201e-11
-5.6761e-11
-3.91759e-11
-7.07834e-11
-3.45395e-11
-8.60841e-11
-2.78015e-11
-1.02591e-10
-1.86416e-11
-1.20179e-10
-6.72255e-12
-1.38659e-10
8.25697e-12
-1.57772e-10
2.67615e-11
-1.77201e-10
4.8872e-11
-1.96208e-10
7.50122e-11
-2.14603e-10
1.05344e-10
-2.31469e-10
1.39978e-10
-2.46021e-10
1.78911e-10
-2.57304e-10
2.21997e-10
-2.64256e-10
2.68928e-10
-2.65716e-10
3.19219e-10
-2.60451e-10
3.7219e-10
-2.47176e-10
4.26962e-10
-2.24569e-10
4.82435e-10
-1.9128e-10
5.3726e-10
-1.45906e-10
5.89753e-10
-8.69535e-11
6.37766e-10
-1.2774e-11
6.78451e-10
7.84752e-11
7.07934e-10
1.88492e-10
7.21394e-10
3.18878e-10
7.12699e-10
4.70182e-10
6.75282e-10
6.40363e-10
6.03558e-10
8.23483e-10
4.94566e-10
1.00959e-09
3.48684e-10
1.18669e-09
1.69423e-10
1.34294e-09
-3.73282e-11
1.46828e-09
-2.64111e-10
1.555e-09
1.59766e-09
-5.0253e-10
2.99589e-12
-2.02669e-11
2.24883e-12
1.31463e-12
-1.36218e-12
1.84644e-11
-6.15881e-12
2.52813e-11
-1.13226e-11
2.66214e-11
-1.65649e-11
2.56224e-11
-2.17879e-11
2.34319e-11
-2.69407e-11
2.03405e-11
-3.19748e-11
1.63665e-11
-3.68336e-11
1.14521e-11
-4.14273e-11
5.50974e-12
-4.565e-11
-1.54405e-12
-4.9392e-11
-9.80228e-12
-5.24961e-11
-1.93729e-11
-5.47806e-11
-3.03425e-11
-5.60329e-11
-4.27925e-11
-5.60058e-11
-5.67893e-11
-5.44161e-11
-7.23748e-11
-5.09441e-11
-8.9557e-11
-4.52358e-11
-1.08299e-10
-3.69058e-11
-1.28507e-10
-2.55461e-11
-1.50017e-10
-1.07467e-11
-1.72572e-10
7.84645e-12
-1.95795e-10
3.10638e-11
-2.19425e-10
5.88038e-11
-2.42341e-10
9.15541e-11
-2.64218e-10
1.29557e-10
-2.84024e-10
1.72917e-10
-3.00666e-10
2.21578e-10
-3.12918e-10
2.75305e-10
-3.19443e-10
3.33659e-10
-3.18805e-10
3.95995e-10
-3.09512e-10
4.61464e-10
-2.90038e-10
5.29017e-10
-2.58831e-10
5.97382e-10
-2.1427e-10
6.64993e-10
-1.54564e-10
7.29804e-10
-7.75852e-11
7.88933e-10
1.93457e-11
8.37971e-10
1.39453e-10
8.70984e-10
2.85865e-10
8.79464e-10
4.617e-10
8.53419e-10
6.66408e-10
7.83929e-10
8.92975e-10
6.66096e-10
1.12743e-09
5.00253e-10
1.35253e-09
2.91279e-10
1.55191e-09
4.71121e-11
1.71245e-09
-2.22596e-10
1.82471e-09
1.88243e-09
-5.07359e-10
3.29438e-12
-2.35622e-11
2.40466e-12
2.20268e-12
-1.67928e-12
2.25471e-11
-7.09775e-12
3.06987e-11
-1.29538e-11
3.24763e-11
-1.8941e-11
3.16086e-11
-2.49653e-11
2.94554e-11
-3.09853e-11
2.63602e-11
-3.6962e-11
2.23431e-11
-4.2842e-11
1.73315e-11
-4.85593e-11
1.12257e-11
-5.39848e-11
3.87996e-12
-5.9031e-11
-4.75667e-12
-6.35251e-11
-1.48785e-11
-6.72767e-11
-2.65907e-11
-7.00563e-11
-4.00134e-11
-7.15914e-11
-5.52557e-11
-7.15632e-11
-7.24038e-11
-6.96063e-11
-9.1513e-11
-6.53084e-11
-1.12595e-10
-5.82118e-11
-1.35603e-10
-4.78167e-11
-1.60413e-10
-3.35863e-11
-1.86803e-10
-1.49451e-11
-2.14435e-10
8.49019e-12
-2.42858e-10
3.76944e-11
-2.71544e-10
7.26125e-11
-2.99136e-10
1.13908e-10
-3.2532e-10
1.61777e-10
-3.48535e-10
2.16278e-10
-3.6742e-10
2.77263e-10
-3.80428e-10
3.44352e-10
-3.85895e-10
4.16933e-10
-3.82094e-10
4.94195e-10
-3.67298e-10
5.75164e-10
-3.39798e-10
6.58744e-10
-2.9785e-10
7.43677e-10
-2.39499e-10
8.28349e-10
-1.62257e-10
9.10336e-10
-6.26419e-11
9.84923e-10
6.48648e-11
1.0454e-09
2.2539e-10
1.07996e-09
4.27136e-10
1.07314e-09
6.73231e-10
1.01034e-09
9.55781e-10
8.83597e-10
1.25417e-09
6.93554e-10
1.54257e-09
4.47563e-10
1.7979e-09
1.5676e-10
2.00325e-09
-1.66188e-10
2.14766e-09
2.22451e-09
-5.08268e-10
3.59954e-12
-2.71628e-11
2.57463e-12
3.22651e-12
-1.97719e-12
2.70981e-11
-8.01645e-12
3.67367e-11
-1.45695e-11
3.90278e-11
-2.13144e-11
3.83524e-11
-2.81637e-11
3.63045e-11
-3.50884e-11
3.32855e-11
-4.20623e-11
2.9317e-11
-4.90431e-11
2.43114e-11
-5.5963e-11
1.81443e-11
-6.27573e-11
1.06738e-11
-6.92497e-11
1.73647e-12
-7.5327e-11
-8.80003e-12
-8.07779e-11
-2.11396e-11
-8.53592e-11
-3.5433e-11
-8.87746e-11
-5.18409e-11
-9.06724e-11
-7.05052e-11
-9.06418e-11
-9.15417e-11
-8.82102e-11
-1.15025e-10
-8.28407e-11
-1.40972e-10
-7.39349e-11
-1.69319e-10
-6.08389e-11
-1.99898e-10
-4.28589e-11
-2.32414e-10
-1.93084e-11
-2.66408e-10
1.03523e-11
-3.01205e-10
4.74434e-11
-3.36228e-10
9.18313e-11
-3.69707e-10
1.44182e-10
-4.00884e-10
2.04702e-10
-4.2794e-10
2.73353e-10
-4.4908e-10
3.49812e-10
-4.62354e-10
4.3348e-10
-4.65762e-10
5.23546e-10
-4.57364e-10
6.19109e-10
-4.35361e-10
7.19312e-10
-3.98053e-10
8.2344e-10
-3.43629e-10
9.30781e-10
-2.69598e-10
1.04e-09
-1.71864e-10
1.14822e-09
-4.3354e-11
1.24674e-09
1.26868e-10
1.32094e-09
3.52944e-10
1.34591e-09
6.48257e-10
1.297e-09
1.00469e-09
1.16139e-09
1.38979e-09
9.4102e-10
1.76294e-09
6.47933e-10
2.09099e-09
2.98417e-10
2.35277e-09
-9.06797e-11
2.53675e-09
2.63727e-09
-5.03442e-10
3.91012e-12
-3.10736e-11
2.76449e-12
4.37163e-12
-2.23731e-12
3.20989e-11
-8.88105e-12
4.33788e-11
-1.61201e-11
4.62653e-11
-2.36204e-11
4.58522e-11
-3.13047e-11
4.39893e-11
-3.91601e-11
4.11415e-11
-4.71764e-11
3.7333e-11
-5.53267e-11
3.24605e-11
-6.35603e-11
2.63773e-11
-7.17973e-11
1.89114e-11
-7.99364e-11
9.87689e-12
-8.7791e-11
-9.44968e-13
-9.51885e-11
-1.37427e-11
-1.0187e-10
-2.87525e-11
-1.07519e-10
-4.6191e-11
-1.11755e-10
-6.62668e-11
-1.14126e-10
-8.91705e-11
-1.14095e-10
-1.15056e-10
-1.11045e-10
-1.44023e-10
-1.04271e-10
-1.76092e-10
-9.29882e-11
-2.11179e-10
-7.63417e-11
-2.49058e-10
-5.34235e-11
-2.89326e-10
-2.3277e-11
-3.31351e-10
1.47609e-11
-3.74265e-10
6.19783e-11
-4.16924e-10
1.18623e-10
-4.57529e-10
1.85239e-10
-4.94556e-10
2.61908e-10
-5.2575e-10
3.48351e-10
-5.48796e-10
4.43923e-10
-5.61334e-10
5.47721e-10
-5.61163e-10
6.58802e-10
-5.46444e-10
7.76531e-10
-5.15783e-10
9.00944e-10
-4.68041e-10
1.03294e-09
-4.01591e-10
1.1738e-09
-3.12727e-10
1.32341e-09
-1.92963e-10
1.47535e-09
-2.50766e-11
1.61017e-09
2.1813e-10
1.68764e-09
5.70787e-10
1.66426e-09
1.02807e-09
1.51941e-09
1.53463e-09
1.25909e-09
2.02327e-09
9.04393e-10
2.44568e-09
4.80105e-10
2.77706e-09
8.84501e-12
3.00802e-09
3.13659e-09
-4.90468e-10
4.22515e-12
-3.52989e-11
2.98096e-12
5.61541e-12
-2.4375e-12
3.75161e-11
-9.65127e-12
5.05909e-11
-1.75469e-11
5.41598e-11
-2.57825e-11
5.40881e-11
-3.42946e-11
5.25023e-11
-4.30899e-11
4.9937e-11
-5.21781e-11
4.64203e-11
-6.15516e-11
4.18332e-11
-7.11783e-11
3.60042e-11
-8.09977e-11
2.87316e-11
-9.09116e-11
1.9791e-11
-1.00764e-10
8.90648e-12
-1.10361e-10
-4.14718e-12
-1.19462e-10
-1.96515e-11
-1.2773e-10
-3.79211e-11
-1.34765e-10
-5.92311e-11
-1.40074e-10
-8.38627e-11
-1.43062e-10
-1.12068e-10
-1.43031e-10
-1.44054e-10
-1.39165e-10
-1.79955e-10
-1.30539e-10
-2.19803e-10
-1.16113e-10
-2.63483e-10
-9.47564e-11
-3.10682e-10
-6.52745e-11
-3.60832e-10
-2.64875e-11
-4.13051e-10
2.26509e-11
-4.66062e-10
8.3349e-11
-5.18228e-10
1.56009e-10
-5.67216e-10
2.41014e-10
-6.10755e-10
3.38102e-10
-6.45884e-10
4.46463e-10
-6.69696e-10
5.64893e-10
-6.79596e-10
6.92137e-10
-6.73688e-10
8.27503e-10
-6.51149e-10
9.71781e-10
-6.12318e-10
1.12819e-09
-5.58003e-10
1.30267e-09
-4.87202e-10
1.50211e-09
-3.924e-10
1.7273e-09
-2.50271e-10
1.95632e-09
-1.08916e-11
2.12154e-09
4.0557e-10
2.14244e-09
1.00718e-09
1.98613e-09
1.69094e-09
1.66942e-09
2.33998e-09
1.23129e-09
2.88381e-09
7.10562e-10
3.2978e-09
1.37641e-10
3.58094e-09
3.7404e-09
-4.66171e-10
4.54071e-12
-3.98397e-11
3.23093e-12
6.92442e-12
-2.55193e-12
4.32975e-11
-1.02803e-11
5.83178e-11
-1.87816e-11
6.26609e-11
-2.77113e-11
6.30183e-11
-3.70231e-11
6.18144e-11
-4.67467e-11
5.96599e-11
-5.69157e-11
5.65884e-11
-6.75473e-11
5.24645e-11
-7.86341e-11
4.70914e-11
-9.01374e-11
4.02347e-11
-1.01976e-10
3.1628e-11
-1.14056e-10
2.09842e-11
-1.26087e-10
7.88305e-12
-1.37947e-10
-7.7906e-12
-1.49244e-10
-2.66229e-11
-1.59578e-10
-4.88982e-11
-1.68422e-10
-7.50195e-11
-1.75132e-10
-1.05357e-10
-1.78932e-10
-1.40251e-10
-1.789e-10
-1.79984e-10
-1.73957e-10
-2.24744e-10
-1.62864e-10
-2.74575e-10
-1.44231e-10
-3.29314e-10
-1.16548e-10
-3.88513e-10
-7.82493e-11
-4.5135e-10
-2.77925e-11
-5.1652e-10
3.61422e-11
-5.82163e-10
1.14803e-10
-6.45875e-10
2.08467e-10
-7.04418e-10
3.16989e-10
-7.54408e-10
4.39285e-10
-7.91993e-10
5.73491e-10
-8.13802e-10
7.17412e-10
-8.17607e-10
8.69568e-10
-8.03304e-10
1.03094e-09
-7.73687e-10
1.20731e-09
-7.34376e-10
1.41193e-09
-6.9182e-10
1.66579e-09
-6.46255e-10
1.98815e-09
-5.72638e-10
2.36935e-09
-3.92087e-10
2.68341e-09
9.15127e-11
2.7788e-09
9.11783e-10
2.60305e-09
1.86669e-09
2.2002e-09
2.74283e-09
1.64448e-09
3.43954e-09
9.9774e-10
3.94454e-09
3.00251e-10
4.27843e-09
4.46717e-09
-4.26519e-10
4.83966e-12
-4.46796e-11
3.52215e-12
8.24071e-12
-2.55096e-12
4.93692e-11
-1.07146e-11
6.64806e-11
-1.97467e-11
7.1693e-11
-2.93045e-11
7.25762e-11
-3.93629e-11
7.18721e-11
-4.9978e-11
7.02739e-11
-6.12126e-11
6.78224e-11
-7.31142e-11
6.43662e-11
-8.57059e-11
5.96826e-11
-9.89778e-11
5.35048e-11
-1.12879e-10
4.55271e-11
-1.27299e-10
3.54029e-11
-1.42164e-10
2.27475e-11
-1.57069e-10
7.11496e-12
-1.71804e-10
-1.18881e-11
-1.85972e-10
-3.47317e-11
-1.99003e-10
-6.19877e-11
-2.10218e-10
-9.4139e-11
-2.18779e-10
-1.31687e-10
-2.23661e-10
-1.751e-10
-2.23632e-10
-2.2477e-10
-2.17241e-10
-2.80964e-10
-2.0281e-10
-3.43744e-10
-1.78449e-10
-4.12873e-10
-1.42115e-10
-4.87686e-10
-9.17022e-11
-5.66932e-10
-2.5229e-11
-6.48634e-10
5.88642e-11
-7.29967e-10
1.61583e-10
-8.07137e-10
2.82687e-10
-8.75514e-10
4.20704e-10
-9.3001e-10
5.72594e-10
-9.65691e-10
7.34209e-10
-9.79222e-10
9.01661e-10
-9.70755e-10
1.07416e-09
-9.46179e-10
1.25896e-09
-9.19178e-10
1.47869e-09
-9.11553e-10
1.77989e-09
-9.47452e-10
2.22695e-09
-1.01969e-09
2.85413e-09
-1.01927e-09
3.43064e-09
-4.84999e-10
3.64986e-09
6.92564e-10
3.43174e-09
2.0848e-09
2.88686e-09
3.28771e-09
2.15855e-09
4.16784e-09
1.34534e-09
4.75775e-09
4.98223e-10
5.12555e-09
5.33191e-09
-3.66519e-10
5.15343e-12
-4.98335e-11
3.87387e-12
9.51888e-12
-2.39787e-12
5.56398e-11
-1.08933e-11
7.49755e-11
-2.03543e-11
8.11536e-11
-3.04461e-11
8.2667e-11
-4.11685e-11
8.25932e-11
-5.2609e-11
8.17134e-11
-6.48647e-11
8.00778e-11
-7.80193e-11
7.75205e-11
-9.21328e-11
7.37946e-11
-1.07233e-10
6.86023e-11
-1.23305e-10
6.15983e-11
-1.4029e-10
5.23875e-11
-1.5807e-10
4.05275e-11
-1.7651e-10
2.55545e-11
-1.95031e-10
6.63182e-12
-2.13609e-10
-1.61529e-11
-2.3152e-10
-4.40742e-11
-2.48096e-10
-7.7561e-11
-2.62455e-10
-1.17326e-10
-2.73488e-10
-1.64065e-10
-2.79827e-10
-2.18429e-10
-2.79805e-10
-2.80983e-10
-2.71434e-10
-3.52115e-10
-2.52387e-10
-4.31922e-10
-2.20034e-10
-5.20039e-10
-1.7154e-10
-6.15424e-10
-1.04064e-10
-7.1611e-10
-1.51155e-11