/*--------------------------------*- C++ -*----------------------------------*\
| =========                 |                                                 |
| \\      /  F ield         | OpenFOAM: The Open Source CFD Toolbox           |
|  \\    /   O peration     | Version:  2.4.0                                 |
|   \\  /    A nd           | Web:      www.OpenFOAM.org                      |
|    \\/     M anipulation  |                                                 |
\*---------------------------------------------------------------------------*/
FoamFile
{
    version     2.0;
    format      ascii;
    class       volVectorField;
    location    "0.094";
    object      U;
}
// * * * * * * * * * * * * * * * * * * * * * * * * * * * * * * * * * * * * * //

dimensions      [0 1 -1 0 0 0 0];

internalField   nonuniform List<vector> 
3600
(
(-0.00471383 0.000227797 0)
(-0.0114049 7.81839e-05 0)
(-0.0128059 -6.18043e-05 0)
(-0.0108863 -0.000152691 0)
(-0.00680963 -0.000256668 0)
(-0.000325765 -0.000355374 0)
(0.00784861 -0.000427691 0)
(0.0170504 -0.000474157 0)
(0.0267761 -0.00048837 0)
(0.0357703 -0.000446907 0)
(0.0462594 -0.000432167 0)
(0.0482361 -0.000143844 0)
(0.0627025 -0.000289249 0)
(0.0526809 0.000969114 0)
(0.0572989 0.000209366 0)
(0.0569672 0.00315365 0)
(0.0244716 0.00175209 0)
(0.0284477 0.00465688 0)
(-0.00286095 0.00409725 0)
(-0.017099 0.00111365 0)
(-0.0467901 0.00768223 0)
(-0.0908732 0.010367 0)
(-0.0856153 -0.00225101 0)
(-0.0478602 -0.0210157 0)
(-0.00359876 -0.016405 0)
(0.0265773 -0.0132974 0)
(0.045903 -0.013169 0)
(0.0570486 -0.00414229 0)
(0.0415213 0.0124261 0)
(0.0139327 0.0202304 0)
(-0.00654985 0.000925139 0)
(-0.0164406 0.000496755 0)
(-0.0199202 -1.66489e-05 0)
(-0.0192298 -0.000382851 0)
(-0.01564 -0.000826141 0)
(-0.00861763 -0.00130224 0)
(0.0011245 -0.00173825 0)
(0.0128875 -0.00212131 0)
(0.0259845 -0.00240036 0)
(0.0388097 -0.00255016 0)
(0.0540336 -0.00246429 0)
(0.0581321 -0.00211438 0)
(0.081124 -0.0023972 0)
(0.0683985 0.00238328 0)
(0.0818521 -0.0033622 0)
(0.0869499 0.00834067 0)
(0.0523197 0.00828333 0)
(0.0552551 0.00570342 0)
(0.0390349 0.0165729 0)
(-0.000218797 0.0207741 0)
(-0.067286 0.024467 0)
(-0.0980648 0.0213209 0)
(-0.0841472 -0.0266748 0)
(-0.0574782 -0.0499507 0)
(-0.0381846 -0.0443684 0)
(-0.00232773 -0.0363985 0)
(0.00906567 -0.0147269 0)
(0.012165 0.0145699 0)
(0.000811858 0.0334182 0)
(0.000320016 0.0357935 0)
(-0.00687891 0.00175876 0)
(-0.0173741 0.000994348 0)
(-0.0213339 0.000106622 0)
(-0.0210686 -0.000537307 0)
(-0.0178198 -0.00133333 0)
(-0.0109787 -0.00221129 0)
(-0.00124574 -0.00304636 0)
(0.0106796 -0.00380307 0)
(0.0240639 -0.00437772 0)
(0.0372683 -0.00475789 0)
(0.0528648 -0.00455437 0)
(0.0571618 -0.0043493 0)
(0.0820455 -0.0042848 0)
(0.0642104 0.00287083 0)
(0.0932669 -0.00738348 0)
(0.0824151 0.013351 0)
(0.0702652 0.0130402 0)
(0.0581759 0.00896198 0)
(0.0539136 0.0260899 0)
(0.0230377 0.0453536 0)
(-0.0317012 0.0509704 0)
(-0.0797926 0.0248119 0)
(-0.0618772 -0.0291043 0)
(-0.0662715 -0.0595207 0)
(-0.0467613 -0.0594734 0)
(-0.0339035 -0.0511351 0)
(-0.0189791 -0.024224 0)
(-0.00333158 0.0124827 0)
(-0.00844464 0.0335534 0)
(-0.00117302 0.0291397 0)
(-0.00695957 0.00260062 0)
(-0.0175891 0.00150573 0)
(-0.0216343 0.000235442 0)
(-0.0214589 -0.000687948 0)
(-0.0183027 -0.0018426 0)
(-0.0115151 -0.0031318 0)
(-0.00179 -0.00437556 0)
(0.0101765 -0.00551643 0)
(0.0236406 -0.00639221 0)
(0.0369747 -0.00701197 0)
(0.0526836 -0.00666052 0)
(0.0567748 -0.00683585 0)
(0.0841676 -0.00537923 0)
(0.0562839 0.00150222 0)
(0.109201 -0.0102335 0)
(0.0671118 0.0169577 0)
(0.0871123 0.017223 0)
(0.0609762 0.00982154 0)
(0.064957 0.0333516 0)
(0.0437946 0.060512 0)
(-0.00102092 0.0652004 0)
(-0.0409257 0.050923 0)
(-0.0413458 -0.0263676 0)
(-0.0669047 -0.063488 0)
(-0.0635974 -0.0651699 0)
(-0.0566319 -0.0589157 0)
(-0.0388364 -0.0379744 0)
(-0.0159531 0.000291024 0)
(-0.00897692 0.0247166 0)
(0.00727771 0.0290757 0)
(-0.00701008 0.00344718 0)
(-0.0177091 0.00202069 0)
(-0.0217686 0.000366686 0)
(-0.0216134 -0.000832656 0)
(-0.0184999 -0.00234729 0)
(-0.0117356 -0.00405042 0)
(-0.00201047 -0.00570596 0)
(0.00998337 -0.00723536 0)
(0.0234976 -0.00841472 0)
(0.0369461 -0.00928483 0)
(0.0527167 -0.00874418 0)
(0.0568274 -0.00959296 0)
(0.0860249 -0.0054349 0)
(0.0495296 -0.00191794 0)
(0.121997 -0.0100418 0)
(0.0394827 0.0199741 0)
(0.107152 0.017642 0)
(0.054541 0.0143093 0)
(0.065887 0.0397066 0)
(0.0558314 0.0708626 0)
(0.0302428 0.0893975 0)
(-0.00980878 0.0541786 0)
(-0.0162668 -0.016395 0)
(-0.0533915 -0.0539262 0)
(-0.0664412 -0.0693316 0)
(-0.0603032 -0.0721953 0)
(-0.0512737 -0.0544957 0)
(-0.0267472 -0.0156664 0)
(-0.0200864 0.00615334 0)
(0.00158492 0.0264188 0)
(-0.00706568 0.00429917 0)
(-0.0178367 0.00253771 0)
(-0.0218994 0.000497979 0)
(-0.0217544 -0.000975388 0)
(-0.0186842 -0.00284965 0)
(-0.0119464 -0.00496837 0)
(-0.00222787 -0.00703896 0)
(0.00978504 -0.0089617 0)
(0.0233404 -0.0104476 0)
(0.0369223 -0.0115787 0)
(0.0526947 -0.0108477 0)
(0.0573453 -0.0125224 0)
(0.0867533 -0.00500658 0)
(0.0485314 -0.0064666 0)
(0.127398 -0.00683767 0)
(0.0193471 0.0212879 0)
(0.117717 0.0151736 0)
(0.047529 0.021955 0)
(0.074755 0.039029 0)
(0.070882 0.0783871 0)
(0.0535705 0.101265 0)
(0.0298647 0.074255 0)
(0.0280582 0.0139959 0)
(-0.000344493 -0.0336225 0)
(-0.0354584 -0.0586422 0)
(-0.0566378 -0.0710559 0)
(-0.0585899 -0.0667546 0)
(-0.035713 -0.0331399 0)
(-0.0259965 -0.00894818 0)
(-0.00870131 0.00283887 0)
(-0.00713191 0.00515818 0)
(-0.0179879 0.00305714 0)
(-0.0220522 0.000629183 0)
(-0.0219174 -0.00111484 0)
(-0.0188994 -0.00334779 0)
(-0.0121954 -0.0058842 0)
(-0.00248816 -0.00837277 0)
(0.00954442 -0.0106939 0)
(0.0231454 -0.0124904 0)
(0.036892 -0.0138898 0)
(0.0525961 -0.0130176 0)
(0.0584728 -0.0154787 0)
(0.0857979 -0.00472161 0)
(0.0557123 -0.0118536 0)
(0.127516 -0.00200201 0)
(0.0245071 0.0219669 0)
(0.106969 0.0119082 0)
(0.0589491 0.027281 0)
(0.0700983 0.0295413 0)
(0.0888125 0.075872 0)
(0.0776021 0.108782 0)
(0.0671639 0.0802494 0)
(0.0509792 0.0101776 0)
(0.0566129 -0.0158862 0)
(0.0165893 -0.0265126 0)
(-0.0222612 -0.0519699 0)
(-0.0504369 -0.0701852 0)
(-0.042089 -0.0595077 0)
(-0.0202832 -0.0231533 0)
(-0.00831599 -0.021664 0)
(-0.00720973 0.00602555 0)
(-0.0181652 0.00357948 0)
(-0.0222303 0.000760264 0)
(-0.0221074 -0.00125033 0)
(-0.0191517 -0.00384112 0)
(-0.012489 -0.0067975 0)
(-0.00279654 -0.00970795 0)
(0.00925847 -0.0124322 0)
(0.0229111 -0.0145453 0)
(0.0368496 -0.016217 0)
(0.0524219 -0.0153208 0)
(0.0601708 -0.0181306 0)
(0.0821455 -0.00573885 0)
(0.0730437 -0.015829 0)
(0.112272 0.000747871 0)
(0.0602928 0.026606 0)
(0.0790601 0.00565538 0)
(0.081389 0.0338227 0)
(0.0537975 0.0302433 0)
(0.0886574 0.068846 0)
(0.102272 0.108611 0)
(0.092675 0.0901278 0)
(0.0912907 0.0298507 0)
(0.0799196 -0.0138741 0)
(0.0508243 -0.00404782 0)
(0.0334834 -0.0183792 0)
(-0.00961913 -0.051823 0)
(-0.0245344 -0.0721039 0)
(-0.0196493 -0.047049 0)
(-0.000537042 -0.0333002 0)
(-0.00729944 0.0069026 0)
(-0.0183693 0.00410516 0)
(-0.0224344 0.000891143 0)
(-0.0223248 -0.0013814 0)
(-0.019442 -0.00432916 0)
(-0.0128281 -0.00770779 0)
(-0.00315388 -0.0110452 0)
(0.00892663 -0.0141762 0)
(0.0226373 -0.0166126 0)
(0.0367819 -0.0185635 0)
(0.0522657 -0.0177841 0)
(0.0616449 -0.0202432 0)
(0.0785226 -0.00925247 0)
(0.088232 -0.0157132 0)
(0.0859224 -0.000682317 0)
(0.0906955 0.0321873 0)
(0.0793472 0.00527067 0)
(0.100329 0.0345824 0)
(0.0774105 0.0322845 0)
(0.0743903 0.0545249 0)
(0.107553 0.102389 0)
(0.118275 0.0942705 0)
(0.125922 0.0328327 0)
(0.10796 0.00534334 0)
(0.071885 0.00604656 0)
(0.0676945 0.00375207 0)
(0.0462119 -0.00205759 0)
(0.032316 -0.039419 0)
(0.00036833 -0.0579337 0)
(0.00637648 -0.0435139 0)
(-0.00740129 0.00779073 0)
(-0.0186006 0.00463461 0)
(-0.0226644 0.0010217 0)
(-0.0225694 -0.00150719 0)
(-0.0197705 -0.00481072 0)
(-0.0132133 -0.00861331 0)
(-0.00356055 -0.0123847 0)
(0.00854885 -0.0159256 0)
(0.0223229 -0.0186937 0)
(0.0366774 -0.0209429 0)
(0.0522211 -0.0203205 0)
(0.0621557 -0.0223117 0)
(0.0798038 -0.0136911 0)
(0.0889024 -0.0143221 0)
(0.0806798 -0.00314646 0)
(0.0981767 0.0327958 0)
(0.109085 0.00509887 0)
(0.0910568 0.0306213 0)
(0.0998523 0.0452857 0)
(0.0730949 0.0469917 0)
(0.0958013 0.0774188 0)
(0.113223 0.0833522 0)
(0.117175 0.0446956 0)
(0.110364 0.0215135 0)
(0.0941792 0.0146527 0)
(0.0676841 0.00988521 0)
(0.0464414 -0.0152706 0)
(0.0523524 -0.0346222 0)
(0.0329072 -0.0276169 0)
(0.00947801 -0.0191434 0)
(-0.00751555 0.00869132 0)
(-0.0188595 0.00516822 0)
(-0.0229202 0.00115178 0)
(-0.022841 -0.00162681 0)
(-0.0201371 -0.00528478 0)
(-0.0136452 -0.00951387 0)
(-0.00401726 -0.0137275 0)
(0.00812423 -0.0176799 0)
(0.021966 -0.0207887 0)
(0.0365387 -0.0233694 0)
(0.0522065 -0.0228497 0)
(0.0624196 -0.0248383 0)
(0.0833368 -0.0171168 0)
(0.0823628 -0.0139594 0)
(0.0976952 -0.0064821 0)
(0.101194 0.0243168 0)
(0.120372 0.0131355 0)
(0.0715794 0.0312268 0)
(0.108317 0.0437289 0)
(0.0750323 0.0544409 0)
(0.0691649 0.0770246 0)
(0.10225 0.0741159 0)
(0.0981603 0.0333105 0)
(0.0765179 0.018897 0)
(0.0575612 0.0427568 0)
(0.0561887 0.0513045 0)
(0.0717805 0.012875 0)
(0.0391958 -0.0162034 0)
(0.00831001 -0.00982327 0)
(0.00613765 0.00205099 0)
(-0.00764251 0.00960582 0)
(-0.0191465 0.00570641 0)
(-0.0232018 0.00128116 0)
(-0.0231392 -0.0017396 0)
(-0.020542 -0.00575102 0)
(-0.0141244 -0.0104094 0)
(-0.00452413 -0.0150739 0)
(0.00765273 -0.0194389 0)
(0.0215641 -0.0228947 0)
(0.0363697 -0.0258487 0)
(0.0521244 -0.0254098 0)
(0.0633031 -0.0276973 0)
(0.0842197 -0.0194397 0)
(0.0810718 -0.0168444 0)
(0.114371 -0.00961862 0)
(0.0949394 0.023915 0)
(0.116225 0.0182703 0)
(0.0778162 0.0308751 0)
(0.096902 0.0481708 0)
(0.0754747 0.0633829 0)
(0.0837564 0.0606569 0)
(0.0774312 0.0701931 0)
(0.0713862 0.0665179 0)
(0.0814563 0.0398527 0)
(0.0901305 0.0179077 0)
(0.104589 -0.00515034 0)
(0.0826763 0.00375793 0)
(0.0255776 0.0266579 0)
(0.00325104 0.0108184 0)
(0.000694067 0.00133975 0)
(-0.00778252 0.0105357 0)
(-0.0194623 0.00624952 0)
(-0.0235089 0.00140957 0)
(-0.0234635 -0.00184481 0)
(-0.0209851 -0.00620733 0)
(-0.0146515 -0.0112974 0)
(-0.00508191 -0.0164242 0)
(0.00713444 -0.0212017 0)
(0.0211147 -0.0250102 0)
(0.0361621 -0.0283845 0)
(0.052012 -0.0280745 0)
(0.0645747 -0.0303886 0)
(0.0819519 -0.0225476 0)
(0.0914255 -0.0202463 0)
(0.11049 -0.0110031 0)
(0.099526 0.0214614 0)
(0.10654 0.0253477 0)
(0.0832839 0.0347501 0)
(0.0889492 0.0444704 0)
(0.0826917 0.0635219 0)
(0.0636587 0.0737477 0)
(0.0630264 0.0789145 0)
(0.0915451 0.031554 0)
(0.0782032 0.0106218 0)
(0.0533581 0.0441818 0)
(0.0232102 0.0693237 0)
(-0.00615509 0.0706156 0)
(-0.00606231 0.0463943 0)
(0.00325871 0.0123323 0)
(0.000475117 0.00410654 0)
(-0.00793595 0.0114824 0)
(-0.0198074 0.00679793 0)
(-0.0238416 0.00153664 0)
(-0.0238134 -0.00194167 0)
(-0.0214666 -0.00665342 0)
(-0.0152276 -0.0121772 0)
(-0.00569086 -0.0177774 0)
(0.00656971 -0.0229675 0)
(0.0206136 -0.0271383 0)
(0.0359042 -0.0309882 0)
(0.0519729 -0.0308191 0)
(0.0653078 -0.0329336 0)
(0.0807215 -0.0265378 0)
(0.0986586 -0.0238039 0)
(0.107248 -0.0115607 0)
(0.0935253 0.0253722 0)
(0.0961874 0.0261342 0)
(0.106638 0.0360356 0)
(0.0779986 0.0526979 0)
(0.0732447 0.0705357 0)
(0.0648448 0.0734991 0)
(0.0700381 0.066904 0)
(0.0685914 0.0646611 0)
(0.0556965 0.0543637 0)
(0.0434375 0.0506855 0)
(0.0336482 0.0568275 0)
(0.0407345 0.0484733 0)
(0.0563534 0.0280044 0)
(0.0374713 0.0154268 0)
(0.00892748 0.0158425 0)
(-0.0081032 0.0124475 0)
(-0.0201824 0.00735196 0)
(-0.0241995 0.00166193 0)
(-0.0241885 -0.00202896 0)
(-0.0219863 -0.00708783 0)
(-0.0158532 -0.013048 0)
(-0.00635148 -0.0191305 0)
(0.00595817 -0.0247373 0)
(0.0200562 -0.0292827 0)
(0.0355936 -0.033674 0)
(0.0520203 -0.033584 0)
(0.0652603 -0.0353335 0)
(0.0807298 -0.0319264 0)
(0.103528 -0.0254153 0)
(0.0913992 -0.00861643 0)
(0.0965126 0.0245187 0)
(0.11477 0.0275669 0)
(0.111166 0.0357038 0)
(0.11485 0.0616494 0)
(0.100743 0.0812291 0)
(0.111105 0.0706501 0)
(0.12093 0.0605799 0)
(0.141121 0.0344576 0)
(0.151227 0.0317866 0)
(0.1352 0.0557728 0)
(0.122703 0.0590829 0)
(0.106979 0.0525565 0)
(0.0673712 0.0575619 0)
(0.0235461 0.0611383 0)
(0.00655316 0.0572579 0)
(-0.00828473 0.0134325 0)
(-0.0205883 0.00791191 0)
(-0.0245826 0.00178486 0)
(-0.024588 -0.00210553 0)
(-0.0225444 -0.00750913 0)
(-0.016529 -0.0139082 0)
(-0.00706419 -0.0204946 0)
(0.00529938 -0.026498 0)
(0.0194361 -0.0314498 0)
(0.0352306 -0.0364585 0)
(0.0521523 -0.0362263 0)
(0.0637426 -0.0382146 0)
(0.0858569 -0.0360267 0)
(0.086493 -0.0264317 0)
(0.107834 -0.0084005 0)
(0.103954 0.015407 0)
(0.136679 0.0245531 0)
(0.129658 0.0272152 0)
(0.136309 0.0415626 0)
(0.138484 0.053809 0)
(0.128285 0.0672196 0)
(0.0961738 0.0699813 0)
(0.0432214 0.0524988 0)
(-0.00775799 0.0548445 0)
(0.00982879 0.0736838 0)
(0.0212998 0.0883169 0)
(0.0144275 0.0927755 0)
(-0.00927287 0.092091 0)
(-0.0134187 0.0734023 0)
(-0.00334119 0.0590213 0)
(-0.00848105 0.0144392 0)
(-0.0210257 0.00847805 0)
(-0.0249905 0.00190465 0)
(-0.0250112 -0.00217055 0)
(-0.0231407 -0.00791836 0)
(-0.0172569 -0.0147565 0)
(-0.00782764 -0.0218779 0)
(0.00459359 -0.0282373 0)
(0.0187429 -0.0336487 0)
(0.0348351 -0.0393413 0)
(0.0520118 -0.0386959 0)
(0.0628278 -0.0416921 0)
(0.0857296 -0.0366988 0)
(0.0729689 -0.0325375 0)
(0.138998 -0.0150416 0)
(0.120907 0.0128647 0)
(0.126195 0.0240684 0)
(0.082446 0.036721 0)
(0.0553759 0.0867646 0)
(0.0550109 0.102123 0)
(0.0593798 0.0867557 0)
(0.0724741 0.0951052 0)
(0.025221 0.0897985 0)
(-0.0468154 0.0612476 0)
(-0.0549067 0.049155 0)
(-0.0569073 0.0665651 0)
(-0.0454181 0.0922275 0)
(-0.0396802 0.0840588 0)
(-0.0219698 0.0526502 0)
(-0.00716053 0.0343824 0)
(-0.0086927 0.015469 0)
(-0.0214957 0.00905062 0)
(-0.0254231 0.00202034 0)
(-0.0254576 -0.00222248 0)
(-0.0237754 -0.00831163 0)
(-0.0180386 -0.0155914 0)
(-0.00864061 -0.023278 0)
(0.00383989 -0.0299514 0)
(0.0179654 -0.0358916 0)
(0.0344083 -0.0422892 0)
(0.0514119 -0.0411421 0)
(0.0633314 -0.0444032 0)
(0.0767719 -0.0383312 0)
(0.095475 -0.0438225 0)
(0.138765 -0.0181212 0)
(0.112101 0.018644 0)
(0.0953072 0.0484349 0)
(0.0689001 0.0408532 0)
(0.105955 0.0350721 0)
(0.131904 0.0489638 0)
(0.130228 0.0597427 0)
(0.10738 0.0847548 0)
(0.12583 0.10738 0)
(0.0925634 0.100921 0)
(0.061969 0.0732507 0)
(0.0096084 0.0660087 0)
(-0.0112164 0.0867513 0)
(-0.00797449 0.0759093 0)
(-0.000339315 0.0430322 0)
(-0.00084789 0.0242364 0)
(-0.00892027 0.0165239 0)
(-0.0219992 0.00962982 0)
(-0.02588 0.00213074 0)
(-0.025926 -0.00225973 0)
(-0.0244484 -0.00868802 0)
(-0.018876 -0.0164105 0)
(-0.00950139 -0.0246983 0)
(0.00303612 -0.0316319 0)
(0.017092 -0.0381894 0)
(0.0339329 -0.045266 0)
(0.050539 -0.0436325 0)
(0.0638255 -0.0457988 0)
(0.0675742 -0.0444879 0)
(0.12118 -0.0502191 0)
(0.110891 -0.0178008 0)
(0.125814 0.0332796 0)
(0.106367 0.0374902 0)
(0.163807 0.0346235 0)
(0.0476918 0.088561 0)
(0.00455267 0.0772444 0)
(0.012406 0.103168 0)
(-0.0151791 0.0970346 0)
(0.0537427 0.115962 0)
(0.072406 0.133912 0)
(0.0571147 0.122068 0)
(0.0315637 0.111881 0)
(0.0241751 0.105398 0)
(0.0296266 0.0801517 0)
(0.0276318 0.0500003 0)
(0.00958338 0.0357182 0)
(-0.00916441 0.0176055 0)
(-0.0225375 0.0102158 0)
(-0.0263609 0.00223454 0)
(-0.0264156 -0.00228068 0)
(-0.0251597 -0.00904784 0)
(-0.0197712 -0.0172102 0)
(-0.0104078 -0.0261429 0)
(0.00217952 -0.033272 0)
(0.0161127 -0.0405475 0)
(0.0334062 -0.0482596 0)
(0.0496442 -0.0460552 0)
(0.0623917 -0.047103 0)
(0.0691212 -0.050968 0)
(0.106921 -0.0554808 0)
(0.118144 -0.0288299 0)
(0.167809 0.0121558 0)
(0.140218 0.0381346 0)
(0.0993289 0.0390832 0)
(0.112576 0.0882358 0)
(-0.024351 0.0797381 0)
(0.0770245 0.0730061 0)
(0.0615222 0.0824914 0)
(-0.0401293 0.0686162 0)
(-0.0461661 0.0935447 0)
(-0.0233707 0.094829 0)
(-0.000833066 0.0923848 0)
(0.0215415 0.0873758 0)
(0.0380553 0.0740662 0)
(0.0351904 0.0624672 0)
(0.0134028 0.0611001 0)
(-0.00942582 0.0187157 0)
(-0.0231117 0.0108087 0)
(-0.0268652 0.0023306 0)
(-0.0269254 -0.00228381 0)
(-0.025909 -0.00938924 0)
(-0.0207268 -0.0179892 0)
(-0.0113576 -0.0276153 0)
(0.00126715 -0.0348661 0)
(0.0150218 -0.0429714 0)
(0.0328139 -0.0512738 0)
(0.0480276 -0.0483408 0)
(0.058573 -0.0489533 0)
(0.0694311 -0.0540294 0)
(0.0870366 -0.0688252 0)
(0.179777 -0.0454757 0)
(0.0206799 0.0420128 0)
(0.0709817 0.0585176 0)
(-0.0652435 0.0493528 0)
(0.0884338 0.138592 0)
(0.147414 0.0687501 0)
(0.108368 0.0535218 0)
(0.164519 0.127189 0)
(0.0994202 0.139504 0)
(0.0345777 0.12989 0)
(0.012507 0.0922385 0)
(0.00733257 0.0646793 0)
(0.0203572 0.0635761 0)
(0.033001 0.0702111 0)
(0.0317582 0.0786052 0)
(0.0123111 0.0881785 0)
(-0.00970528 0.0198567 0)
(-0.0237233 0.0114088 0)
(-0.0273925 0.00241807 0)
(-0.0274541 -0.00226847 0)
(-0.0266965 -0.00971178 0)
(-0.0217453 -0.0187455 0)
(-0.0123477 -0.0291196 0)
(0.000296234 -0.0364169 0)
(0.0138205 -0.0454583 0)
(0.031653 -0.0542728 0)
(0.0432658 -0.0503487 0)
(0.0517265 -0.0502468 0)
(0.0643731 -0.059275 0)
(0.105667 -0.0844596 0)
(0.0862517 0.00479907 0)
(-0.325571 0.0641097 0)
(-0.0665948 0.061648 0)
(-0.153493 0.0121867 0)
(0.0233975 0.0612633 0)
(-0.00527925 0.0727868 0)
(-0.04824 0.0596102 0)
(0.105513 0.106714 0)
(0.1722 0.168184 0)
(0.135541 0.174103 0)
(0.0872583 0.122047 0)
(0.0357501 0.0781327 0)
(0.00663337 0.0638702 0)
(0.0136832 0.0682575 0)
(0.0178666 0.0910533 0)
(0.00733017 0.107976 0)
(-0.0100037 0.0210291 0)
(-0.0243737 0.0120143 0)
(-0.0279422 0.00249679 0)
(-0.0280007 -0.00223314 0)
(-0.0275219 -0.0100103 0)
(-0.0228299 -0.0194762 0)
(-0.0133757 -0.0306597 0)
(-0.000735944 -0.037926 0)
(0.0124646 -0.0479369 0)
(0.0274638 -0.0568122 0)
(0.0314975 -0.0511605 0)
(0.0444138 -0.0528169 0)
(0.0801478 -0.063656 0)
(-0.137055 -0.0801543 0)
(0.152075 0.160347 0)
(-0.337755 0.118165 0)
(-0.0874299 0.000695295 0)
(-0.0972041 0.00915075 0)
(-0.136704 0.068042 0)
(-0.117328 0.0716976 0)
(-0.0414151 0.00361193 0)
(0.018506 0.04341 0)
(0.0624763 0.109399 0)
(0.138894 0.196571 0)
(0.117238 0.172734 0)
(0.0480856 0.125392 0)
(0.0130022 0.0854499 0)
(0.00650919 0.0661957 0)
(0.00727627 0.0917222 0)
(0.00322015 0.113337 0)
(-0.01032 0.0222411 0)
(-0.0250644 0.0126351 0)
(-0.0285136 0.00256392 0)
(-0.0285635 -0.00218108 0)
(-0.0283848 -0.0102887 0)
(-0.0239835 -0.0201821 0)
(-0.0144387 -0.0322376 0)
(-0.00183531 -0.039393 0)
(0.0105294 -0.0499284 0)
(0.0133058 -0.0572592 0)
(0.0143506 -0.0519263 0)
(0.0643273 -0.0634162 0)
(0.134896 -0.0276921 0)
(-0.527117 -0.0703109 0)
(-0.485687 -0.0991106 0)
(-0.475692 0.0256776 0)
(-0.202868 -0.0995779 0)
(-0.126513 0.0398586 0)
(-0.142605 0.0853511 0)
(-0.0668783 0.0270991 0)
(-0.0633465 -0.0187278 0)
(0.0550324 0.0396189 0)
(0.0195247 0.052549 0)
(0.12331 0.175242 0)
(0.132142 0.182892 0)
(0.076492 0.145513 0)
(0.0373693 0.107092 0)
(0.0131821 0.0792291 0)
(0.00557473 0.09431 0)
(0.00230309 0.112636 0)
(-0.0106838 0.0234709 0)
(-0.0257975 0.0132216 0)
(-0.0291069 0.00262569 0)
(-0.0291416 -0.00210035 0)
(-0.0292856 -0.0105348 0)
(-0.0252097 -0.0208498 0)
(-0.015537 -0.0338598 0)
(-0.00303532 -0.0408057 0)
(0.00579998 -0.0499493 0)
(-0.0198048 -0.0555542 0)
(0.0178223 -0.0629236 0)
(0.406296 -0.0894866 0)
(0.451347 0.0341009 0)
(0.207451 0.17293 0)
(-0.796056 0.148654 0)
(-0.836939 0.197071 0)
(-0.474194 -0.270387 0)
(-0.192458 0.037495 0)
(-0.120023 0.0293858 0)
(-0.0420947 0.0219367 0)
(-0.0930147 -0.0455229 0)
(0.0185646 0.000412666 0)
(0.045441 0.0536276 0)
(0.0879455 0.133185 0)
(0.107845 0.191543 0)
(0.0681964 0.181316 0)
(0.0268751 0.135654 0)
(0.00812411 0.094813 0)
(0.000148298 0.101664 0)
(0.000148236 0.113075 0)
(-0.010771 0.0248055 0)
(-0.0265736 0.0140029 0)
(-0.0297177 0.00265546 0)
(-0.0297319 -0.0020096 0)
(-0.0302215 -0.01079 0)
(-0.0265107 -0.0215181 0)
(-0.0166946 -0.0355425 0)
(-0.00467241 -0.0416549 0)
(-0.0100089 -0.0473903 0)
(-0.0352835 -0.0633159 0)
(0.299705 -0.150938 0)
(1.14826 -0.116709 0)
(0.325295 0.0676 0)
(0.937894 0.207259 0)
(-0.48511 0.170593 0)
(-0.630754 0.19292 0)
(-0.648468 -0.0520472 0)
(-0.173697 -0.0714169 0)
(-0.15523 0.000237132 0)
(-0.0913036 0.0259234 0)
(-0.0989985 -0.0565897 0)
(-0.0688204 -0.0566936 0)
(0.0333634 0.0224593 0)
(0.0273224 0.133067 0)
(0.0691341 0.213476 0)
(0.0317864 0.206854 0)
(0.015647 0.157927 0)
(0.00223604 0.111017 0)
(-0.00349578 0.104968 0)
(-0.000857468 0.107297 0)
(-0.0134987 0.0259914 0)
(-0.0273773 0.0140182 0)
(-0.0303641 0.00273627 0)
(-0.0303402 -0.00187688 0)
(-0.0311994 -0.0109385 0)
(-0.027906 -0.0220605 0)
(-0.0180566 -0.037159 0)
(-0.00907085 -0.0401955 0)
(-0.0532636 -0.0489671 0)
(0.0934429 -0.115209 0)
(0.438346 -0.299473 0)
(0.254012 0.00175734 0)
(0.208707 0.0527303 0)
(0.560996 0.276504 0)
(-0.313336 0.306748 0)
(-0.549397 0.0465762 0)
(0.410467 -0.665517 0)
(-0.0788691 -0.283102 0)
(-0.178234 -0.00669705 0)
(-0.140513 -0.00282577 0)
(-0.109703 -0.0497837 0)
(-0.130053 -0.091344 0)
(-0.0264256 0.00248496 0)
(-0.020548 0.114333 0)
(0.0261878 0.21528 0)
(0.00587572 0.21298 0)
(0.00821882 0.170408 0)
(0.00247749 0.123144 0)
(-0.00265763 0.107832 0)
(0.00049949 0.104749 0)
(0.00131539 0.0276935 0)
(-0.0285521 0.0164223 0)
(-0.0309045 0.00261066 0)
(-0.0308998 -0.00171771 0)
(-0.0322036 -0.0111795 0)
(-0.0294631 -0.02271 0)
(-0.020504 -0.0386367 0)
(-0.0255438 -0.0352331 0)
(-0.0720148 -0.0589129 0)
(0.318948 -0.137554 0)
(0.310706 -0.194097 0)
(0.266429 -0.0356244 0)
(0.134502 0.0525906 0)
(0.32644 0.300803 0)
(0.0288877 0.490204 0)
(-0.0529354 0.0319018 0)
(-0.527981 0.0874658 0)
(-0.885099 0.0465241 0)
(-0.176321 0.0283492 0)
(-0.155435 -0.0326776 0)
(-0.140504 -0.0630344 0)
(-0.177275 -0.11641 0)
(-0.106056 -0.0372802 0)
(-0.0633232 0.106078 0)
(-0.012776 0.201616 0)
(-0.0227197 0.213234 0)
(-0.000919192 0.169409 0)
(-0.00140389 0.128232 0)
(-0.00194213 0.109109 0)
(-0.00179954 0.10189 0)
(-0.0713336 0.0287186 0)
(-0.0262626 0.0137282 0)
(-0.03242 0.00297943 0)
(-0.0319983 -0.00161688 0)
(-0.0334363 -0.0112706 0)
(-0.0317886 -0.022954 0)
(-0.0284893 -0.0381996 0)
(-0.0648399 -0.0356807 0)
(0.201383 -0.117811 0)
(0.0119669 -0.171017 0)
(0.150623 -0.237954 0)
(0.197294 -0.0270511 0)
(0.113594 0.0569864 0)
(0.13609 0.27725 0)
(0.396466 0.533696 0)
(0.259084 0.207646 0)
(0.499691 -0.309165 0)
(-0.0106677 -0.265102 0)
(-0.358677 -0.157313 0)
(-0.122741 -0.0506594 0)
(-0.130572 -0.0478341 0)
(-0.186209 -0.10926 0)
(-0.148198 -0.0640944 0)
(-0.0947456 0.0892882 0)
(-0.0711595 0.175841 0)
(-0.0434065 0.202598 0)
(-0.027624 0.15281 0)
(-0.00726772 0.124176 0)
(-0.00519758 0.111551 0)
(-0.00561149 0.0978982 0)
(0.144604 0.0309103 0)
(-0.0392068 0.0171827 0)
(-0.0290663 0.00238827 0)
(-0.0306448 -0.00130194 0)
(-0.0337818 -0.0112588 0)
(-0.038778 -0.0224647 0)
(-0.0557423 -0.035111 0)
(-0.141503 -0.0549606 0)
(0.259901 -0.0577176 0)
(0.705781 -0.194049 0)
(0.176834 -0.193675 0)
(0.0448078 -0.0234508 0)
(0.0396609 0.070927 0)
(0.0122009 0.230497 0)
(0.465222 0.431702 0)
(0.480588 0.206841 0)
(0.513392 -0.0138639 0)
(-0.0723586 0.11254 0)
(-0.0130592 0.00210993 0)
(-0.310269 -0.200183 0)
(-0.0980142 -0.0509732 0)
(-0.141382 -0.101064 0)
(-0.160454 -0.106608 0)
(-0.138493 0.0684896 0)
(-0.109308 0.159184 0)
(-0.0628115 0.178428 0)
(-0.0506651 0.123915 0)
(-0.0115916 0.111527 0)
(-0.00974858 0.109503 0)
(-0.00545795 0.0894209 0)
(-0.0118667 0.021689 0)
(-0.0410726 0.0134455 0)
(-0.0562238 -0.00390768 0)
(-0.0470422 -0.0129277 0)
(-0.0266199 -0.0135019 0)
(0.00240197 -0.016068 0)
(0.0464267 -0.0211045 0)
(0.0844709 -0.00263369 0)
(0.0908066 0.0101941 0)
(0.0470973 0.00774703 0)
(0.0171158 0.00135519 0)
(0.00248651 0.0041567 0)
(-0.0286225 0.00464003 0)
(-0.0248209 0.00177672 0)
(-0.0570534 0.00312545 0)
(-0.0575838 0.000218637 0)
(-0.0526564 0.000929001 0)
(-0.0625195 -0.000276027 0)
(-0.0482377 -0.000160633 0)
(-0.046016 -0.00042313 0)
(-0.0356997 -0.000447476 0)
(-0.0267032 -0.000484154 0)
(-0.0170156 -0.000474704 0)
(-0.00781313 -0.000427726 0)
(0.000347676 -0.000354699 0)
(0.00681555 -0.000255967 0)
(0.0108753 -0.000151917 0)
(0.012772 -6.119e-05 0)
(0.0113721 7.7827e-05 0)
(0.00470703 0.000227151 0)
(-0.000752959 0.0359193 0)
(-4.31371e-05 0.0342173 0)
(-0.0123838 0.0155356 0)
(-0.00936448 -0.0137247 0)
(0.00205033 -0.0363569 0)
(0.0378565 -0.0435194 0)
(0.0567923 -0.0498172 0)
(0.083079 -0.0275319 0)
(0.0977011 0.0207666 0)
(0.0670748 0.0243032 0)
(-0.000587694 0.0208924 0)
(-0.0389367 0.0165383 0)
(-0.0554663 0.00576163 0)
(-0.052692 0.00823218 0)
(-0.0869705 0.00831505 0)
(-0.0821777 -0.00335772 0)
(-0.0682854 0.00224733 0)
(-0.0808921 -0.00233843 0)
(-0.0581372 -0.00216828 0)
(-0.0537435 -0.00243746 0)
(-0.0387247 -0.00254908 0)
(-0.0258943 -0.00238741 0)
(-0.0128423 -0.00212148 0)
(-0.00108369 -0.00173677 0)
(0.00863736 -0.00129943 0)
(0.0156364 -0.000823259 0)
(0.0192073 -0.000380537 0)
(0.0198753 -1.48797e-05 0)
(0.0164012 0.000495062 0)
(0.00654323 0.000922871 0)
(-0.00330862 0.0286353 0)
(0.0063706 0.0328783 0)
(0.00249424 0.013128 0)
(0.0190474 -0.0236326 0)
(0.0346955 -0.0513172 0)
(0.0474379 -0.0584022 0)
(0.0670409 -0.0590973 0)
(0.0616995 -0.0299149 0)
(0.0795891 0.0243757 0)
(0.031493 0.05107 0)
(-0.0227919 0.0453676 0)
(-0.054162 0.0260187 0)
(-0.0580329 0.00907123 0)
(-0.0708044 0.0130517 0)
(-0.0821859 0.013243 0)
(-0.0936136 -0.00733723 0)
(-0.0640187 0.00262091 0)
(-0.0818038 -0.00416855 0)
(-0.0571661 -0.00444087 0)
(-0.0525674 -0.00450931 0)
(-0.0371821 -0.00475489 0)
(-0.023972 -0.00435683 0)
(-0.0106342 -0.00380211 0)
(0.0012872 -0.00304277 0)
(0.010998 -0.00220638 0)
(0.0178144 -0.00132842 0)
(0.0210441 -0.000533083 0)
(0.0212877 0.000109539 0)
(0.0173338 0.00099119 0)
(0.0068724 0.00175485 0)
(-0.0060725 0.0282509 0)
(0.00995417 0.0221909 0)
(0.0158245 8.29572e-05 0)
(0.0392722 -0.0380866 0)
(0.0565265 -0.0594478 0)
(0.0636377 -0.064261 0)
(0.0675598 -0.0631157 0)
(0.0414329 -0.026714 0)
(0.0403065 0.050412 0)
(0.0010829 0.0653493 0)
(-0.0435509 0.0604936 0)
(-0.0648349 0.0333921 0)
(-0.0611816 0.0100125 0)
(-0.0874874 0.0171155 0)
(-0.0667315 0.0168344 0)
(-0.109417 -0.0101507 0)
(-0.0561039 0.00116073 0)
(-0.0838809 -0.00520414 0)
(-0.0567946 -0.00696349 0)
(-0.0523749 -0.00659769 0)
(-0.0368903 -0.00700676 0)
(-0.0235481 -0.0063634 0)
(-0.0101319 -0.00551413 0)
(0.00183214 -0.00436987 0)
(0.0115347 -0.00312456 0)
(0.0182972 -0.00183538 0)
(0.0214341 -0.000681847 0)
(0.0215877 0.000239471 0)
(0.0175484 0.00150108 0)
(0.00695304 0.00259502 0)
(0.000458382 0.0263874 0)
(0.0207431 0.00591829 0)
(0.0264009 -0.0150882 0)
(0.052033 -0.0540754 0)
(0.0599184 -0.072074 0)
(0.0667698 -0.0685011 0)
(0.0539174 -0.0534178 0)
(0.0160578 -0.0164667 0)
(0.00964303 0.0537669 0)
(-0.0308428 0.0889342 0)
(-0.0557252 0.0707864 0)
(-0.06621 0.03977 0)
(-0.0536654 0.014689 0)
(-0.107882 0.0174896 0)
(-0.0386962 0.0197703 0)
(-0.122085 -0.00985212 0)
(-0.0494589 -0.00235151 0)
(-0.0856931 -0.00521052 0)
(-0.0568685 -0.00975308 0)
(-0.0523954 -0.00866466 0)
(-0.0368642 -0.00927685 0)
(-0.0234053 -0.00837788 0)
(-0.00994045 -0.00723195 0)
(0.00205303 -0.00569822 0)
(0.0117553 -0.00404093 0)
(0.0184943 -0.00233737 0)
(0.0215884 -0.000825178 0)
(0.0217214 0.000371822 0)
(0.017668 0.00201453 0)
(0.00700351 0.00343988 0)
(0.00883375 0.00348804 0)
(0.0258791 -0.00852783 0)
(0.0354721 -0.0335025 0)
(0.0590782 -0.0673912 0)
(0.0562276 -0.0713402 0)
(0.0365318 -0.0583456 0)
(0.000890094 -0.033253 0)
(-0.0285113 0.0140253 0)
(-0.0302169 0.0742335 0)
(-0.053439 0.101362 0)
(-0.0710649 0.0781878 0)
(-0.0748629 0.0386538 0)
(-0.0474487 0.0224372 0)
(-0.11809 0.0150672 0)
(-0.0191083 0.0208939 0)
(-0.12737 -0.00654666 0)
(-0.0486962 -0.00698429 0)
(-0.0863705 -0.00475705 0)
(-0.0574119 -0.0127106 0)
(-0.0523585 -0.0107528 0)
(-0.0368432 -0.0115673 0)
(-0.0232492 -0.0104031 0)
(-0.00974444 -0.00895698 0)
(0.00227078 -0.00702936 0)
(0.0119664 -0.00495677 0)
(0.0186785 -0.0028371 0)
(0.0217291 -0.000966104 0)
(0.0218517 0.000504243 0)
(0.0177951 0.00253003 0)
(0.00705908 0.00429014 0)
(0.00808408 -0.0212132 0)
(0.020354 -0.0228209 0)
(0.0425124 -0.0595072 0)
(0.0505699 -0.0703118 0)
(0.021862 -0.0524961 0)
(-0.0155711 -0.0262967 0)
(-0.0569345 -0.0143159 0)
(-0.0512772 0.0104874 0)
(-0.0670062 0.0795407 0)
(-0.0777325 0.108393 0)
(-0.0885381 0.0757495 0)
(-0.0697683 0.0293166 0)
(-0.0587279 0.0279538 0)
(-0.107448 0.0116458 0)
(-0.0251156 0.0216211 0)
(-0.127518 -0.00173702 0)
(-0.0561447 -0.0124321 0)
(-0.0853593 -0.00447983 0)
(-0.0585623 -0.0156887 0)
(-0.052243 -0.0129082 0)
(-0.0368154 -0.0138742 0)
(-0.0230549 -0.0124386 0)
(-0.00950631 -0.0106877 0)
(0.00253142 -0.00836159 0)
(0.0122155 -0.00587048 0)
(0.0188936 -0.00333314 0)
(0.0218918 -0.00110383 0)
(0.0220037 0.000636592 0)
(0.0179456 0.00304792 0)
(0.00712527 0.0051474 0)
(0.000420928 -0.0332778 0)
(0.0201835 -0.0474763 0)
(0.0248681 -0.0719243 0)
(0.0095574 -0.0515772 0)
(-0.0351792 -0.0176404 0)
(-0.0519908 -0.00341286 0)
(-0.080068 -0.0135053 0)
(-0.0910548 0.0293627 0)
(-0.09207 0.0901196 0)
(-0.102395 0.108498 0)
(-0.0881837 0.0685318 0)
(-0.0539161 0.0297494 0)
(-0.0809451 0.0348723 0)
(-0.0796336 0.00572668 0)
(-0.0616364 0.0260619 0)
(-0.112091 0.000995058 0)
(-0.0736684 -0.0164499 0)
(-0.0816244 -0.00553136 0)
(-0.0602719 -0.0183516 0)
(-0.0520517 -0.0151974 0)
(-0.0367761 -0.0161969 0)
(-0.022822 -0.0144862 0)
(-0.00922323 -0.0124246 0)
(0.00284019 -0.00969552 0)
(0.0125093 -0.00678126 0)
(0.0191458 -0.00382425 0)
(0.0220814 -0.00123767 0)
(0.022181 0.000768837 0)
(0.0181222 0.0035687 0)
(0.00720303 0.00601299 0)
(-0.0054835 -0.0437666 0)
(0.000804814 -0.0584329 0)
(-0.030774 -0.0390401 0)
(-0.0448558 -0.00114006 0)
(-0.0674196 0.00420741 0)
(-0.0716172 0.00608877 0)
(-0.107613 0.00586015 0)
(-0.125617 0.0327557 0)
(-0.118373 0.0935721 0)
(-0.107153 0.102285 0)
(-0.0740879 0.0542414 0)
(-0.0783032 0.0320768 0)
(-0.100203 0.0354377 0)
(-0.0797964 0.0054731 0)
(-0.0921086 0.0317171 0)
(-0.0852738 -0.000676516 0)
(-0.0887828 -0.0162656 0)
(-0.0779287 -0.00910985 0)
(-0.0617364 -0.020463 0)
(-0.0518795 -0.0176457 0)
(-0.0367115 -0.0185385 0)
(-0.0225497 -0.016546 0)
(-0.00889462 -0.0141664 0)