/*--------------------------------*- C++ -*----------------------------------*\
| =========                 |                                                 |
| \\      /  F ield         | OpenFOAM: The Open Source CFD Toolbox           |
|  \\    /   O peration     | Version:  2.4.0                                 |
|   \\  /    A nd           | Web:      www.OpenFOAM.org                      |
|    \\/     M anipulation  |                                                 |
\*---------------------------------------------------------------------------*/
FoamFile
{
    version     2.0;
    format      ascii;
    class       volVectorField;
    location    "0.465";
    object      U;
}
// * * * * * * * * * * * * * * * * * * * * * * * * * * * * * * * * * * * * * //

dimensions      [0 1 -1 0 0 0 0];

internalField   nonuniform List<vector> 
10000
(
(2.02516e-08 -2.11085e-08 0)
(-1.04855e-07 4.56654e-08 0)
(-5.05605e-07 1.12185e-07 0)
(-1.14282e-06 1.63399e-07 0)
(-1.97845e-06 2.03672e-07 0)
(-2.98035e-06 2.36926e-07 0)
(-4.12712e-06 2.65273e-07 0)
(-5.40329e-06 2.90212e-07 0)
(-6.7969e-06 3.12662e-07 0)
(-8.29788e-06 3.33015e-07 0)
(-9.89638e-06 3.5125e-07 0)
(-1.15815e-05 3.67017e-07 0)
(-1.33404e-05 3.79758e-07 0)
(-1.51582e-05 3.88893e-07 0)
(-1.70186e-05 3.94031e-07 0)
(-1.89049e-05 3.95148e-07 0)
(-2.08015e-05 3.92687e-07 0)
(-2.26964e-05 3.87584e-07 0)
(-2.45827e-05 3.812e-07 0)
(-2.64602e-05 3.75178e-07 0)
(-2.83367e-05 3.71277e-07 0)
(-3.02269e-05 3.71209e-07 0)
(-3.21524e-05 3.76485e-07 0)
(-3.41398e-05 3.88232e-07 0)
(-3.62183e-05 4.06963e-07 0)
(-3.84162e-05 4.32305e-07 0)
(-4.07567e-05 4.62653e-07 0)
(-4.32514e-05 4.94726e-07 0)
(-4.58926e-05 5.23157e-07 0)
(-4.86442e-05 5.40335e-07 0)
(-5.14351e-05 5.37164e-07 0)
(-5.41571e-05 5.05246e-07 0)
(-5.66759e-05 4.40149e-07 0)
(-5.88548e-05 3.44753e-07 0)
(-6.05932e-05 2.32365e-07 0)
(-6.18706e-05 1.27002e-07 0)
(-6.27841e-05 5.96006e-08 0)
(-6.35387e-05 5.03559e-08 0)
(-6.43845e-05 1.00815e-07 0)
(-6.55395e-05 1.94361e-07 0)
(-6.71325e-05 3.06301e-07 0)
(-6.9188e-05 4.12748e-07 0)
(-7.16413e-05 4.96216e-07 0)
(-7.43694e-05 5.47414e-07 0)
(-7.7225e-05 5.64406e-07 0)
(-8.00623e-05 5.50305e-07 0)
(-8.2753e-05 5.10755e-07 0)
(-8.51938e-05 4.51868e-07 0)
(-8.73061e-05 3.79015e-07 0)
(-8.90335e-05 2.96537e-07 0)
(-4.94912e-08 1.06945e-07 0)
(-5.78058e-07 5.68097e-07 0)
(-1.69054e-06 1.04154e-06 0)
(-3.31979e-06 1.4508e-06 0)
(-5.39972e-06 1.80042e-06 0)
(-7.87984e-06 2.10452e-06 0)
(-1.07225e-05 2.37477e-06 0)
(-1.38973e-05 2.61913e-06 0)
(-1.73785e-05 2.84211e-06 0)
(-2.11421e-05 3.04525e-06 0)
(-2.51637e-05 3.22769e-06 0)
(-2.94166e-05 3.38684e-06 0)
(-3.38698e-05 3.51915e-06 0)
(-3.84881e-05 3.62125e-06 0)
(-4.32329e-05 3.69133e-06 0)
(-4.80655e-05 3.73035e-06 0)
(-5.29507e-05 3.74294e-06 0)
(-5.78616e-05 3.73759e-06 0)
(-6.27845e-05 3.72611e-06 0)
(-6.77217e-05 3.72241e-06 0)
(-7.26934e-05 3.74094e-06 0)
(-7.77368e-05 3.79519e-06 0)
(-8.29038e-05 3.89621e-06 0)
(-8.82567e-05 4.05116e-06 0)
(-9.38624e-05 4.26156e-06 0)
(-9.97842e-05 4.5211e-06 0)
(-0.000106071 4.81307e-06 0)
(-0.000112744 5.10736e-06 0)
(-0.000119779 5.3583e-06 0)
(-0.000127088 5.50494e-06 0)
(-0.000134501 5.47813e-06 0)
(-0.000141766 5.21741e-06 0)
(-0.000148572 4.69574e-06 0)
(-0.000154604 3.94507e-06 0)
(-0.000159625 3.07633e-06 0)
(-0.000163589 2.27682e-06 0)
(-0.000166719 1.77075e-06 0)
(-0.000169498 1.70636e-06 0)
(-0.000172513 2.09557e-06 0)
(-0.000176266 2.81757e-06 0)
(-0.000181047 3.68522e-06 0)
(-0.000186901 4.51189e-06 0)
(-0.000193664 5.15641e-06 0)
(-0.000201038 5.5393e-06 0)
(-0.000208671 5.63799e-06 0)
(-0.000216209 5.4706e-06 0)
(-0.000223344 5.07762e-06 0)
(-0.00022982 4.50667e-06 0)
(-0.000235442 3.80282e-06 0)
(-0.000240065 3.00395e-06 0)
(-1.19783e-07 5.22156e-07 0)
(-1.05779e-06 1.6874e-06 0)
(-2.79026e-06 2.79106e-06 0)
(-5.20992e-06 3.76793e-06 0)
(-8.23287e-06 4.63033e-06 0)
(-1.18076e-05 5.40205e-06 0)
(-1.5896e-05 6.10284e-06 0)
(-2.04659e-05 6.74632e-06 0)
(-2.54885e-05 7.33994e-06 0)
(-3.09349e-05 7.8853e-06 0)
(-3.67743e-05 8.37908e-06 0)
(-4.29714e-05 8.81434e-06 0)
(-4.94839e-05 9.1824e-06 0)
(-5.62633e-05 9.47545e-06 0)
(-6.32555e-05 9.68958e-06 0)
(-7.04052e-05 9.82775e-06 0)
(-7.76619e-05 9.90196e-06 0)
(-8.49866e-05 9.93381e-06 0)
(-9.23587e-05 9.953e-06 0)
(-9.9781e-05 9.99424e-06 0)
(-0.000107281 1.00931e-05 0)
(-0.00011491 1.02822e-05 0)
(-0.000122739 1.05874e-05 0)
(-0.000130854 1.10244e-05 0)
(-0.000139345 1.15949e-05 0)
(-0.000148299 1.22816e-05 0)
(-0.000157782 1.3042e-05 0)
(-0.000167827 1.38023e-05 0)
(-0.000178408 1.44512e-05 0)
(-0.000189414 1.48409e-05 0)
(-0.000200619 1.48023e-05 0)
(-0.000211673 1.41868e-05 0)
(-0.000222132 1.2926e-05 0)
(-0.000231521 1.10952e-05 0)
(-0.000239469 8.96507e-06 0)
(-0.00024586 7.00101e-06 0)
(-0.000251021 5.77245e-06 0)
(-0.000255701 5.65147e-06 0)
(-0.000260809 6.66063e-06 0)
(-0.000267099 8.4851e-06 0)
(-0.000274967 1.06494e-05 0)
(-0.000284428 1.26867e-05 0)
(-0.000295192 1.42482e-05 0)
(-0.000306789 1.51413e-05 0)
(-0.000318685 1.53135e-05 0)
(-0.000330365 1.48117e-05 0)
(-0.000341385 1.37367e-05 0)
(-0.000351383 1.22063e-05 0)
(-0.000360082 1.03324e-05 0)
(-0.000367279 8.20949e-06 0)
(-1.71874e-07 1.17274e-06 0)
(-1.43715e-06 3.30093e-06 0)
(-3.65975e-06 5.19351e-06 0)
(-6.67758e-06 6.8658e-06 0)
(-1.03859e-05 8.36402e-06 0)
(-1.47353e-05 9.729e-06 0)
(-1.96951e-05 1.09892e-05 0)
(-2.52405e-05 1.21625e-05 0)
(-3.13486e-05 1.32575e-05 0)
(-3.79951e-05 1.42742e-05 0)
(-4.51512e-05 1.52045e-05 0)
(-5.27804e-05 1.60345e-05 0)
(-6.08365e-05 1.67473e-05 0)
(-6.92622e-05 1.73277e-05 0)
(-7.79914e-05 1.77675e-05 0)
(-8.69537e-05 1.80708e-05 0)
(-9.60821e-05 1.82584e-05 0)
(-0.000105323 1.83685e-05 0)
(-0.000114644 1.84545e-05 0)
(-0.000124043 1.85782e-05 0)
(-0.000133549 1.88027e-05 0)
(-0.000143218 1.91848e-05 0)
(-0.000153133 1.97693e-05 0)
(-0.000163392 2.05827e-05 0)
(-0.000174099 2.16276e-05 0)
(-0.000185357 2.2875e-05 0)
(-0.000197252 2.42546e-05 0)
(-0.000209838 2.56434e-05 0)
(-0.000223111 2.68534e-05 0)
(-0.000236975 2.76261e-05 0)
(-0.000251194 2.7655e-05 0)
(-0.000265355 2.66565e-05 0)
(-0.000278888 2.44814e-05 0)
(-0.00029114 2.12314e-05 0)
(-0.000301531 1.73736e-05 0)
(-0.000309794 1.37683e-05 0)
(-0.000316341 1.15464e-05 0)
(-0.000322297 1.14307e-05 0)
(-0.000329012 1.34399e-05 0)
(-0.000337544 1.69249e-05 0)
(-0.000348361 2.09602e-05 0)
(-0.000361365 2.46743e-05 0)
(-0.000376063 2.74456e-05 0)
(-0.000391761 2.89524e-05 0)
(-0.00040773 2.91299e-05 0)
(-0.000423306 2.80856e-05 0)
(-0.000437941 2.60136e-05 0)
(-0.000451205 2.31305e-05 0)
(-0.000462777 1.9636e-05 0)
(-0.000472421 1.56968e-05 0)
(-2.06155e-07 1.99567e-06 0)
(-1.69156e-06 5.27335e-06 0)
(-4.2404e-06 8.05602e-06 0)
(-7.64308e-06 1.04917e-05 0)
(-1.17759e-05 1.26883e-05 0)
(-1.65927e-05 1.47152e-05 0)
(-2.20741e-05 1.66136e-05 0)
(-2.82089e-05 1.84061e-05 0)
(-3.49878e-05 2.01013e-05 0)
(-4.23991e-05 2.16953e-05 0)
(-5.04244e-05 2.31727e-05 0)
(-5.90341e-05 2.4509e-05 0)
(-6.81837e-05 2.56744e-05 0)
(-7.7812e-05 2.66414e-05 0)
(-8.78419e-05 2.73927e-05 0)
(-9.8186e-05 2.79302e-05 0)
(-0.000108756 2.82826e-05 0)
(-0.000119477 2.85065e-05 0)
(-0.000130299 2.86834e-05 0)
(-0.000141205 2.89081e-05 0)
(-0.000152218 2.92766e-05 0)
(-0.000163394 2.98743e-05 0)
(-0.000174817 3.07675e-05 0)
(-0.000186588 3.19963e-05 0)
(-0.000198819 3.35666e-05 0)
(-0.000211622 3.54421e-05 0)
(-0.000225101 3.75319e-05 0)
(-0.000239342 3.96724e-05 0)
(-0.000254395 4.16039e-05 0)
(-0.00027023 4.29453e-05 0)
(-0.000286655 4.32098e-05 0)
(-0.000303232 4.19112e-05 0)
(-0.000319275 3.87441e-05 0)
(-0.000333901 3.3771e-05 0)
(-0.0003462 2.76519e-05 0)
(-0.000355557 2.17758e-05 0)
(-0.000362464 1.82224e-05 0)
(-0.000368657 1.82693e-05 0)
(-0.000376199 2.18881e-05 0)
(-0.000386574 2.78363e-05 0)
(-0.00040026 3.44894e-05 0)
(-0.000416912 4.04174e-05 0)
(-0.000435695 4.46766e-05 0)
(-0.0004556 4.68403e-05 0)
(-0.000475668 4.6888e-05 0)
(-0.000495091 4.50484e-05 0)
(-0.000513251 4.16572e-05 0)
(-0.00052969 3.70605e-05 0)
(-0.000544079 3.15623e-05 0)
(-0.00055618 2.54088e-05 0)
(-2.23674e-07 2.919e-06 0)
(-1.81263e-06 7.45265e-06 0)
(-4.50176e-06 1.1174e-05 0)
(-8.05284e-06 1.43962e-05 0)
(-1.23319e-05 1.73111e-05 0)
(-1.72997e-05 2.00286e-05 0)
(-2.2952e-05 2.26084e-05 0)
(-2.92961e-05 2.50801e-05 0)
(-3.6343e-05 2.74525e-05 0)
(-4.41013e-05 2.97163e-05 0)
(-5.2571e-05 3.18459e-05 0)
(-6.17372e-05 3.38011e-05 0)
(-7.15641e-05 3.55336e-05 0)
(-8.19904e-05 3.69952e-05 0)
(-9.29287e-05 3.81515e-05 0)
(-0.000104271 3.89957e-05 0)
(-0.000115901 3.95597e-05 0)
(-0.000127709 3.99198e-05 0)
(-0.000139618 4.01899e-05 0)
(-0.000151589 4.05046e-05 0)
(-0.000163633 4.09985e-05 0)
(-0.000175795 4.17894e-05 0)
(-0.000188156 4.29677e-05 0)
(-0.000200811 4.45888e-05 0)
(-0.000213868 4.6665e-05 0)
(-0.000227436 4.916e-05 0)
(-0.000241627 5.19785e-05 0)
(-0.000256564 5.49419e-05 0)
(-0.000272381 5.77488e-05 0)
(-0.000289182 5.99009e-05 0)
(-0.000306903 6.06824e-05 0)
(-0.000325144 5.93057e-05 0)
(-0.000343127 5.51867e-05 0)
(-0.000359695 4.82004e-05 0)
(-0.000373422 3.91109e-05 0)
(-0.000382948 2.99633e-05 0)
(-0.000388778 2.45587e-05 0)
(-0.00039374 2.50777e-05 0)
(-0.000401095 3.13379e-05 0)
(-0.000412945 4.09963e-05 0)
(-0.000429623 5.13263e-05 0)
(-0.000450286 6.01427e-05 0)
(-0.000473542 6.61673e-05 0)
(-0.00049795 6.89552e-05 0)
(-0.00052228 6.86462e-05 0)
(-0.000545607 6.56896e-05 0)
(-0.000567289 6.0629e-05 0)
(-0.000586895 5.39723e-05 0)
(-0.000604132 4.61369e-05 0)
(-0.000618788 3.74447e-05 0)
(-2.24768e-07 3.87181e-06 0)
(-1.79745e-06 9.67753e-06 0)
(-4.42824e-06 1.4326e-05 0)
(-7.87414e-06 1.83133e-05 0)
(-1.20049e-05 2.19289e-05 0)
(-1.67943e-05 2.53325e-05 0)
(-2.22573e-05 2.86081e-05 0)
(-2.84252e-05 3.17959e-05 0)
(-3.53351e-05 3.49059e-05 0)
(-4.30231e-05 3.79234e-05 0)
(-5.15164e-05 4.08096e-05 0)
(-6.08236e-05 4.35039e-05 0)
(-7.09256e-05 4.59305e-05 0)
(-8.17664e-05 4.801e-05 0)
(-9.32495e-05 4.96782e-05 0)
(-0.000105241 5.09074e-05 0)
(-0.000117585 5.17258e-05 0)
(-0.000130128 5.22277e-05 0)
(-0.000142746 5.2566e-05 0)
(-0.000155372 5.29245e-05 0)
(-0.000167995 5.34837e-05 0)
(-0.00018065 5.43973e-05 0)
(-0.000193404 5.57812e-05 0)
(-0.000206342 5.77052e-05 0)
(-0.000219552 6.0187e-05 0)
(-0.000233117 6.31964e-05 0)
(-0.00024713 6.66554e-05 0)
(-0.000261725 7.04174e-05 0)
(-0.000277142 7.42118e-05 0)
(-0.000293715 7.74677e-05 0)
(-0.000311633 7.91898e-05 0)
(-0.000330639 7.81565e-05 0)
(-0.000349953 7.33339e-05 0)
(-0.000368154 6.41277e-05 0)
(-0.000383087 5.1114e-05 0)
(-0.000391783 3.69735e-05 0)
(-0.000394568 2.88577e-05 0)
(-0.000396293 3.0423e-05 0)
(-0.000402275 4.10872e-05 0)
(-0.000415476 5.63936e-05 0)
(-0.000435687 7.18746e-05 0)
(-0.000461116 8.43777e-05 0)
(-0.000489511 9.23745e-05 0)
(-0.000518862 9.56019e-05 0)
(-0.000547672 9.45607e-05 0)
(-0.000574964 9.00668e-05 0)
(-0.000600162 8.29509e-05 0)
(-0.000622937 7.39073e-05 0)
(-0.000643084 6.34586e-05 0)
(-0.000660446 5.19821e-05 0)
(-2.10159e-07 4.78352e-06 0)
(-1.6474e-06 1.17816e-05 0)
(-4.01759e-06 1.72802e-05 0)
(-7.09765e-06 2.19631e-05 0)
(-1.07773e-05 2.62239e-05 0)
(-1.50509e-05 3.02773e-05 0)
(-1.99575e-05 3.42364e-05 0)
(-2.55562e-05 3.81553e-05 0)
(-3.19163e-05 4.20484e-05 0)
(-3.91088e-05 4.58964e-05 0)
(-4.71972e-05 4.96461e-05 0)
(-5.62249e-05 5.32113e-05 0)
(-6.61998e-05 5.64787e-05 0)
(-7.708e-05 5.93229e-05 0)
(-8.87629e-05 6.16315e-05 0)
(-0.000101085 6.33375e-05 0)
(-0.000113838 6.44521e-05 0)
(-0.000126802 6.50846e-05 0)
(-0.000139793 6.54362e-05 0)
(-0.000152701 6.57549e-05 0)
(-0.000165492 6.62777e-05 0)
(-0.000178187 6.71979e-05 0)
(-0.000190839 6.86565e-05 0)
(-0.000203521 7.07317e-05 0)
(-0.000216286 7.34336e-05 0)
(-0.000229155 7.67306e-05 0)
(-0.000242132 8.05806e-05 0)
(-0.000255288 8.49377e-05 0)
(-0.000268953 8.9711e-05 0)
(-0.000283818 9.43802e-05 0)
(-0.000300528 9.76286e-05 0)
(-0.00031911 9.76352e-05 0)
(-0.00033898 9.27452e-05 0)
(-0.00035867 8.14161e-05 0)
(-0.000375187 6.32918e-05 0)
(-0.000382117 4.10523e-05 0)
(-0.000379068 2.87886e-05 0)
(-0.000374812 3.2468e-05 0)
(-0.00037819 5.05801e-05 0)
(-0.000393249 7.44889e-05 0)
(-0.000418288 9.7051e-05 0)
(-0.0004498 0.000114029 0)
(-0.000484276 0.000123956 0)
(-0.000519065 0.000127141 0)
(-0.000552495 0.00012476 0)
(-0.000583693 0.000118183 0)
(-0.000612295 0.000108603 0)
(-0.000638182 9.6895e-05 0)
(-0.000661294 8.36461e-05 0)
(-0.000681542 6.92416e-05 0)
(-1.80801e-07 5.58552e-06 0)
(-1.3681e-06 1.35997e-05 0)
(-3.28105e-06 1.98037e-05 0)
(-5.73941e-06 2.50633e-05 0)
(-8.66871e-06 2.98744e-05 0)
(-1.20913e-05 3.45085e-05 0)
(-1.6074e-05 3.91102e-05 0)
(-2.07073e-05 4.37517e-05 0)
(-2.60967e-05 4.84559e-05 0)
(-3.23556e-05 5.32026e-05 0)
(-3.95943e-05 5.7925e-05 0)
(-4.79039e-05 6.25073e-05 0)
(-5.73351e-05 6.67883e-05 0)
(-6.78736e-05 7.0578e-05 0)
(-7.94196e-05 7.36904e-05 0)
(-9.17785e-05 7.59912e-05 0)
(-0.000104675 7.74512e-05 0)
(-0.000117796 7.81885e-05 0)
(-0.000130872 7.84672e-05 0)
(-0.000143736 7.86248e-05 0)
(-0.000156329 7.89719e-05 0)
(-0.000168663 7.97461e-05 0)
(-0.00018079 8.11133e-05 0)
(-0.000192778 8.31472e-05 0)
(-0.000204647 8.58115e-05 0)
(-0.000216297 8.90306e-05 0)
(-0.00022753 9.27863e-05 0)
(-0.000238159 9.72123e-05 0)
(-0.000248499 0.000102686 0)
(-0.000259781 0.000109014 0)
(-0.000273408 0.000114518 0)
(-0.000289832 0.000116574 0)
(-0.000309015 0.000112899 0)
(-0.000330106 0.000100361 0)
(-0.0003498 7.6001e-05 0)
(-0.0003543 3.983e-05 0)
(-0.000341251 2.11057e-05 0)
(-0.000327265 2.8914e-05 0)
(-0.000327093 5.97982e-05 0)
(-0.000345887 9.66723e-05 0)
(-0.000378286 0.00012857 0)
(-0.000417888 0.000150454 0)
(-0.000459556 0.000161693 0)
(-0.000500121 0.000163845 0)
(-0.000538017 0.000159193 0)
(-0.000572766 0.000149863 0)
(-0.00060444 0.000137436 0)
(-0.000633262 0.000122904 0)
(-0.000659363 0.000106817 0)
(-0.00068271 8.94825e-05 0)
(-1.3794e-07 6.21353e-06 0)
(-9.69998e-07 1.49754e-05 0)
(-2.24392e-06 2.16745e-05 0)
(-3.84236e-06 2.73421e-05 0)
(-5.73962e-06 3.25683e-05 0)
(-7.99121e-06 3.7678e-05 0)
(-1.06933e-05 4.28486e-05 0)
(-1.39684e-05 4.81743e-05 0)
(-1.7961e-05 5.36934e-05 0)
(-2.28326e-05 5.93913e-05 0)
(-2.87509e-05 6.51929e-05 0)
(-3.58711e-05 7.09522e-05 0)
(-4.43071e-05 7.64509e-05 0)
(-5.40951e-05 8.14132e-05 0)
(-6.51564e-05 8.55458e-05 0)
(-7.72715e-05 8.8605e-05 0)
(-9.00837e-05 9.04827e-05 0)
(-0.000103154 9.12894e-05 0)
(-0.000116084 9.13756e-05 0)
(-0.000128629 9.12127e-05 0)
(-0.000140709 9.12116e-05 0)
(-0.000152332 9.16638e-05 0)
(-0.000163575 9.27695e-05 0)
(-0.000174562 9.45827e-05 0)
(-0.00018531 9.69372e-05 0)
(-0.000195556 9.9593e-05 0)
(-0.000204713 0.000102451 0)
(-0.00021192 0.000105855 0)
(-0.000217149 0.000111211 0)
(-0.000222433 0.00011925 0)
(-0.000230464 0.000127803 0)
(-0.000242084 0.000133128 0)
(-0.00025822 0.000132774 0)
(-0.000280128 0.000121758 0)
(-0.000306765 9.14079e-05 0)
(-0.000308757 2.98206e-05 0)
(-0.000279215 1.21768e-06 0)
(-0.000250613 1.69965e-05 0)
(-0.00024707 7.005e-05 0)
(-0.000274193 0.000125992 0)
(-0.000318296 0.00016926 0)
(-0.0003686 0.000195404 0)
(-0.000418349 0.000206248 0)
(-0.000464445 0.00020562 0)
(-0.000506026 0.000197397 0)
(-0.000543459 0.000184591 0)
(-0.000577539 0.000169087 0)
(-0.000608962 0.000151811 0)
(-0.000638057 0.000133091 0)
(-0.000664784 0.000113023 0)
(-8.32968e-08 6.61012e-06 0)
(-4.69078e-07 1.57689e-05 0)
(-9.46956e-07 2.26921e-05 0)
(-1.47825e-06 2.85519e-05 0)
(-2.09454e-06 3.40168e-05 0)
(-2.88572e-06 3.94574e-05 0)
(-3.97495e-06 4.5083e-05 0)
(-5.51379e-06 5.1015e-05 0)
(-7.68403e-06 5.73157e-05 0)
(-1.06976e-05 6.39883e-05 0)
(-1.47891e-05 7.09602e-05 0)
(-2.01956e-05 7.80621e-05 0)
(-2.71214e-05 8.50142e-05 0)
(-3.5687e-05 9.1434e-05 0)
(-4.58686e-05 9.68794e-05 0)
(-5.7445e-05 0.000100938 0)
(-6.9974e-05 0.000103356 0)
(-8.28455e-05 0.000104198 0)
(-9.54682e-05 0.000103934 0)
(-0.000107483 0.000103245 0)
(-0.000118771 0.000102685 0)
(-0.000129348 0.000102623 0)
(-0.00013937 0.000103341 0)
(-0.000149161 0.000104882 0)
(-0.000158879 0.000106794 0)
(-0.000168121 0.000108411 0)
(-0.000175698 0.000109215 0)
(-0.000179241 0.000109529 0)
(-0.000177512 0.000112872 0)
(-0.000173684 0.000122318 0)
(-0.000172732 0.000134646 0)
(-0.00017557 0.000144256 0)
(-0.000184203 0.000149961 0)
(-0.000203995 0.000146252 0)
(-0.000244551 0.000116292 0)
(-0.000244864 5.0736e-06 0)
(-0.000188642 -3.75099e-05 0)
(-0.000140169 -6.37429e-06 0)
(-0.000136529 8.56694e-05 0)
(-0.000181622 0.000168408 0)
(-0.000243966 0.000223319 0)
(-0.0003075 0.000250645 0)
(-0.00036507 0.000257604 0)
(-0.000415139 0.000251519 0)
(-0.000458538 0.00023817 0)
(-0.000497043 0.000221337 0)
(-0.000532455 0.000202915 0)
(-0.00056601 0.000183414 0)
(-0.000598162 0.00016264 0)
(-0.000628703 0.000140296 0)
(-1.91996e-08 6.72731e-06 0)
(1.12324e-07 1.58645e-05 0)
(5.52075e-07 2.26905e-05 0)
(1.24986e-06 2.84844e-05 0)
(2.11389e-06 3.39707e-05 0)
(3.0239e-06 3.95538e-05 0)
(3.83751e-06 4.54719e-05 0)
(4.38324e-06 5.18781e-05 0)
(4.44999e-06 5.88714e-05 0)
(3.77897e-06 6.64903e-05 0)
(2.06468e-06 7.46851e-05 0)
(-1.02815e-06 8.32805e-05 0)
(-5.82531e-06 9.19422e-05 0)
(-1.25775e-05 0.000100167 0)
(-2.13722e-05 0.00010732 0)
(-3.20402e-05 0.000112741 0)
(-4.40777e-05 0.000115924 0)
(-5.66614e-05 0.0001168 0)
(-6.89161e-05 0.000115987 0)
(-8.02802e-05 0.000114494 0)
(-9.05413e-05 0.000113091 0)
(-9.96867e-05 0.000112281 0)
(-0.000108047 0.000112582 0)
(-0.000116439 0.000114119 0)
(-0.000125501 0.000115909 0)
(-0.000134951 0.000116402 0)
(-0.000142981 0.000113867 0)
(-0.00014426 0.000107454 0)
(-0.000134328 0.000104648 0)
(-0.000117531 0.00011444 0)
(-0.000102908 0.000131209 0)
(-9.06473e-05 0.000144804 0)
(-8.41971e-05 0.000160398 0)
(-9.41276e-05 0.000172962 0)
(-0.000158588 0.000166533 0)
(-0.000157439 -4.7459e-05 0)
(-6.01013e-05 -0.000104962 0)
(9.98094e-06 -4.42253e-05 0)
(3.42757e-06 0.000117888 0)
(-7.74318e-05 0.000234747 0)
(-0.000165812 0.000295963 0)
(-0.00024294 0.000316766 0)
(-0.000305205 0.000313961 0)
(-0.000355397 0.000299006 0)
(-0.000397217 0.000279167 0)
(-0.000434306 0.000258401 0)
(-0.000469606 0.000238001 0)
(-0.000504824 0.000217509 0)
(-0.000540308 0.000195797 0)
(-0.000575391 0.000171957 0)
(5.14173e-08 6.53002e-06 0)
(7.45045e-07 1.51798e-05 0)
(2.17708e-06 2.15511e-05 0)
(4.20523e-06 2.6987e-05 0)
(6.68087e-06 3.22393e-05 0)
(9.46338e-06 3.77296e-05 0)
(1.24053e-05 4.37186e-05 0)
(1.5332e-05 5.03963e-05 0)
(1.80202e-05 5.79124e-05 0)
(2.01782e-05 6.63646e-05 0)
(2.14362e-05 7.57577e-05 0)
(2.13531e-05 8.59433e-05 0)
(1.94538e-05 9.65588e-05 0)
(1.53037e-05 0.000106985 0)
(8.62381e-06 0.000116359 0)
(-5.68823e-07 0.000123687 0)
(-1.17968e-05 0.000128051 0)
(-2.40327e-05 0.000129073 0)
(-3.60191e-05 0.000127511 0)
(-4.68279e-05 0.000124834 0)
(-5.59481e-05 0.000122114 0)
(-6.317e-05 0.00012014 0)
(-6.90642e-05 0.000120057 0)
(-7.5436e-05 0.000122397 0)
(-8.40559e-05 0.00012532 0)
(-9.55585e-05 0.000125845 0)
(-0.000108422 0.00011953 0)
(-0.000112268 0.000100874 0)
(-9.54205e-05 8.35554e-05 0)
(-6.16414e-05 8.97855e-05 0)
(-2.77579e-05 0.000112425 0)
(1.16973e-05 0.000120282 0)
(4.77092e-05 0.000156548 0)
(5.69522e-05 0.000199283 0)
(-3.87037e-05 0.000259541 0)
(-2.20943e-05 -0.000155795 0)
(0.000129607 -0.000201372 0)
(0.000204784 -9.5166e-05 0)
(0.000161737 0.00019731 0)
(1.65059e-05 0.000341645 0)
(-0.000101645 0.000389799 0)
(-0.000185201 0.000389681 0)
(-0.000243276 0.000369659 0)
(-0.000286597 0.000343135 0)
(-0.000322055 0.000316758 0)
(-0.000354768 0.000293519 0)
(-0.000388527 0.000273331 0)
(-0.000425247 0.000254098 0)
(-0.000464804 0.00023324 0)
(-0.000505628 0.000209032 0)
(1.24719e-07 5.99985e-06 0)
(1.39264e-06 1.36744e-05 0)
(3.83333e-06 1.92161e-05 0)
(7.21668e-06 2.39803e-05 0)
(1.13473e-05 2.87113e-05 0)
(1.60801e-05 3.38259e-05 0)
(2.12834e-05 3.95981e-05 0)
(2.68044e-05 4.62562e-05 0)
(3.24359e-05 5.40156e-05 0)
(3.78828e-05 6.30615e-05 0)
(4.27347e-05 7.34946e-05 0)
(4.64575e-05 8.52458e-05 0)
(4.84166e-05 9.79764e-05 0)
(4.79478e-05 0.000110989 0)
(4.4485e-05 0.000123196 0)
(3.77346e-05 0.00013321 0)
(2.79459e-05 0.000139512 0)
(1.62017e-05 0.000141112 0)
(4.16707e-06 0.000138757 0)
(-6.59048e-06 0.000134397 0)
(-1.47847e-05 0.000129464 0)
(-1.95184e-05 0.000125342 0)
(-2.14803e-05 0.000124656 0)
(-2.41421e-05 0.000129209 0)
(-3.13276e-05 0.00013598 0)
(-4.62258e-05 0.000140396 0)
(-7.0848e-05 0.000133029 0)
(-8.74972e-05 9.58661e-05 0)
(-7.21534e-05 5.05965e-05 0)
(-1.93918e-05 3.81338e-05 0)
(4.86699e-05 6.87483e-05 0)
(0.000118814 6.24593e-05 0)
(0.000188284 0.000123834 0)
(0.000236087 0.000208959 0)
(0.000158747 0.000380009 0)
(0.000243661 -0.000375675 0)
(0.000400702 -0.000281919 0)
(0.000394216 -0.000139232 0)
(0.00026169 0.000383782 0)
(3.81061e-05 0.000494975 0)
(-7.9172e-05 0.000491493 0)
(-0.000141069 0.000453549 0)
(-0.000177429 0.00041301 0)
(-0.000204832 0.000376755 0)
(-0.000229376 0.000346852 0)
(-0.000255527 0.000324686 0)
(-0.00028725 0.000308465 0)
(-0.000326302 0.000293861 0)
(-0.000371568 0.000276277 0)
(-0.00041996 0.00025305 0)
(1.96066e-07 5.13875e-06 0)
(2.01188e-06 1.13595e-05 0)
(5.40884e-06 1.57022e-05 0)
(1.0081e-05 1.94759e-05 0)
(1.58024e-05 2.33772e-05 0)
(2.24438e-05 2.77912e-05 0)
(2.99153e-05 3.29898e-05 0)
(3.81188e-05 3.92365e-05 0)
(4.69031e-05 4.68226e-05 0)
(5.60162e-05 5.60487e-05 0)
(6.50578e-05 6.71588e-05 0)
(7.34456e-05 8.0231e-05 0)
(8.0414e-05 9.50341e-05 0)
(8.50539e-05 0.000110886 0)
(8.64217e-05 0.000126546 0)
(8.37183e-05 0.000140256 0)
(7.66471e-05 0.000149747 0)
(6.5964e-05 0.000153011 0)
(5.35339e-05 0.00015034 0)
(4.18181e-05 0.000143819 0)
(3.36286e-05 0.000135114 0)
(3.15546e-05 0.00012667 0)
(3.54844e-05 0.000124082 0)
(3.97493e-05 0.000132403 0)
(3.7726e-05 0.000147233 0)
(2.11701e-05 0.000164035 0)
(-2.29827e-05 0.000165021 0)
(-6.58947e-05 0.000105164 0)
(-7.0246e-05 2.0817e-05 0)
(-2.39593e-05 -4.14896e-05 0)
(7.99856e-05 -3.6919e-05 0)
(0.000179246 -3.15345e-05 0)
(0.000284362 -2.18687e-05 0)
(0.000458474 3.11767e-05 0)
(0.000639929 0.000356222 0)
(0.000797989 -0.000579681 0)
(0.000647752 6.62942e-05 0)
(0.000307395 8.95835e-06 0)
(6.6865e-05 0.000658786 0)
(-7.35906e-05 0.000609959 0)
(-8.14373e-05 0.000539899 0)
(-8.07093e-05 0.000476716 0)
(-8.59142e-05 0.000431577 0)
(-9.78936e-05 0.000395599 0)
(-0.00011249 0.00036784 0)
(-0.000132462 0.000351639 0)
(-0.000163076 0.000344351 0)
(-0.000206529 0.000338706 0)
(-0.000260332 0.000327173 0)
(-0.000318818 0.000306066 0)
(2.60085e-07 3.97251e-06 0)
(2.55427e-06 8.30552e-06 0)
(6.77863e-06 1.11123e-05 0)
(1.25703e-05 1.35933e-05 0)
(1.96934e-05 1.63528e-05 0)
(2.80572e-05 1.97125e-05 0)
(3.76414e-05 2.392e-05 0)
(4.84388e-05 2.9262e-05 0)
(6.04029e-05 3.6106e-05 0)
(7.33875e-05 4.48856e-05 0)
(8.70802e-05 5.60317e-05 0)
(0.000100939 6.98434e-05 0)
(0.00011415 8.63098e-05 0)
(0.000125607 0.000104919 0)
(0.000133966 0.000124455 0)
(0.000137771 0.000142949 0)
(0.000135794 0.000157406 0)
(0.000127796 0.000164435 0)
(0.000115194 0.000163065 0)
(0.000101193 0.000154508 0)
(9.0854e-05 0.000139982 0)
(9.01099e-05 0.000123264 0)
(0.000101154 0.000115057 0)
(0.00011632 0.000127354 0)
(0.000127184 0.000153735 0)
(0.000117227 0.000197165 0)
(4.75085e-05 0.000228622 0)
(-2.86856e-05 0.000140137 0)
(-5.24992e-05 1.87344e-05 0)
(-4.67748e-05 -9.0782e-05 0)
(-1.48997e-05 -0.000122788 0)
(4.35333e-06 -6.20261e-05 0)
(-8.59808e-05 -2.63077e-05 0)
(-0.000315786 2.90458e-05 0)
(-0.000282814 0.000180306 0)
(-0.000353491 -0.000544256 0)
(-0.000167449 -2.46447e-05 0)
(0.000164506 0.000152702 0)
(0.000131091 0.000757242 0)
(0.00016477 0.000674987 0)
(0.000113267 0.000570767 0)
(8.05655e-05 0.000495768 0)
(5.50912e-05 0.000450974 0)
(3.69519e-05 0.000411718 0)
(2.7293e-05 0.000383673 0)
(1.38099e-05 0.000375818 0)
(-1.57771e-05 0.000382789 0)
(-6.57872e-05 0.000391503 0)
(-0.000131753 0.00038906 0)
(-0.00020318 0.000370314 0)
(3.11001e-07 2.55279e-06 0)
(2.96909e-06 4.64685e-06 0)
(7.81265e-06 5.6433e-06 0)
(1.44463e-05 6.57159e-06 0)
(2.2647e-05 7.8981e-06 0)
(3.23835e-05 9.84552e-06 0)
(4.37293e-05 1.2608e-05 0)
(5.68013e-05 1.64717e-05 0)
(7.17048e-05 2.18644e-05 0)
(8.84684e-05 2.93503e-05 0)
(0.000106963 3.95699e-05 0)
(0.000126816 5.31034e-05 0)
(0.000147314 7.02805e-05 0)
(0.000167316 9.09609e-05 0)
(0.0001852 0.000114227 0)
(0.00019884 0.000138271 0)
(0.000205764 0.000159743 0)
(0.00020392 0.000173827 0)
(0.000193072 0.000177257 0)
(0.000176029 0.000168679 0)
(0.000160001 0.000147046 0)
(0.000156198 0.000116379 0)
(0.000171939 9.53459e-05 0)
(0.000198583 0.000108283 0)
(0.000232202 0.000141576 0)
(0.000250849 0.00022852 0)
(0.000150991 0.000347153 0)
(3.81709e-05 0.000189417 0)
(2.96912e-05 2.97906e-05 0)
(2.70387e-05 -8.0731e-05 0)
(5.80538e-06 -0.000111492 0)
(-2.74104e-05 -1.2044e-06 0)
(-0.000116763 0.000166248 0)
(-0.000250892 0.00026537 0)
(-9.76867e-05 -7.52446e-06 0)
(-0.00028609 -0.000123098 0)
(-0.000713871 -0.000426311 0)
(-0.000682789 -1.6333e-06 0)
(-0.000393842 0.00046781 0)
(-7.67528e-05 0.000599862 0)
(4.65295e-05 0.000549254 0)
(0.000107101 0.000495903 0)
(0.000131989 0.000460207 0)
(0.000149624 0.000412485 0)
(0.000170803 0.00038422 0)
(0.000177216 0.000391943 0)
(0.000153281 0.000423167 0)
(9.53524e-05 0.000455074 0)
(1.24475e-05 0.000465675 0)
(-7.50358e-05 0.000447597 0)
(3.43204e-07 9.57243e-07 0)
(3.20815e-06 5.81717e-07 0)
(8.38766e-06 -4.13588e-07 0)
(1.54821e-05 -1.22692e-06 0)
(2.43028e-05 -1.57278e-06 0)
(3.48932e-05 -1.36382e-06 0)
(4.74354e-05 -4.93407e-07 0)
(6.21899e-05 1.28947e-06 0)
(7.94463e-05 4.43752e-06 0)
(9.94608e-05 9.61577e-06 0)
(0.000122377 1.76573e-05 0)
(0.000148132 2.94371e-05 0)
(0.000176325 4.57076e-05 0)
(0.000206052 6.68844e-05 0)
(0.000235741 9.26838e-05 0)
(0.000262893 0.000122032 0)
(0.000283892 0.000152025 0)
(0.0002943 0.000177157 0)
(0.000290511 0.000191296 0)
(0.000272279 0.000188507 0)
(0.000247398 0.000162034 0)
(0.000233285 0.000112012 0)
(0.000243914 7.00131e-05 0)
(0.000269432 7.71988e-05 0)
(0.00032893 8.56278e-05 0)
(0.000411281 0.000222962 0)
(0.000294705 0.000557104 0)
(0.000155802 0.000213941 0)
(0.00019202 1.10648e-05 0)
(0.000213106 -6.86791e-05 0)
(0.00019179 -7.97267e-05 0)
(0.000174298 1.35067e-05 0)
(0.000233673 0.000156465 0)
(0.000410637 0.000176132 0)
(0.000586767 -0.000133126 0)
(0.000511136 0.000314467 0)
(5.75709e-05 3.60927e-06 0)
(-0.000423943 7.74948e-05 0)
(-0.00048003 0.000162391 0)
(-0.000258829 0.000366683 0)
(-4.60645e-05 0.000390865 0)
(0.000111121 0.00039984 0)
(0.000208148 0.00040643 0)
(0.000276869 0.000365182 0)
(0.000336837 0.00035253 0)
(0.000365453 0.000393808 0)
(0.000346439 0.000465766 0)
(0.000276743 0.000534104 0)
(0.000169309 0.000562368 0)
(6.22867e-05 0.000538643 0)
(3.519e-07 -7.12962e-07 0)
(3.23138e-06 -3.63454e-06 0)
(8.40191e-06 -6.68207e-06 0)
(1.54891e-05 -9.32636e-06 0)
(2.43572e-05 -1.14979e-05 0)
(3.51301e-05 -1.3277e-05 0)
(4.80982e-05 -1.46786e-05 0)
(6.36643e-05 -1.55273e-05 0)
(8.23026e-05 -1.53942e-05 0)
(0.000104511 -1.35711e-05 0)
(0.00013075 -9.09997e-06 0)
(0.000161363 -8.66487e-07 0)
(0.000196446 1.22908e-05 0)
(0.000235654 3.14151e-05 0)
(0.000277952 5.71041e-05 0)
(0.000321209 8.95823e-05 0)
(0.000361576 0.000127486 0)
(0.000392703 0.000166478 0)
(0.000406225 0.000198905 0)
(0.000394692 0.000213378 0)
(0.00036384 0.000190707 0)
(0.000335812 0.000118675 0)
(0.000327568 5.33074e-05 0)
(0.00033514 3.94788e-05 0)
(0.000385182 -1.99068e-05 0)
(0.000486113 0.000159601 0)
(0.000464391 0.000782545 0)
(0.000420711 0.000167783 0)
(0.00046199 -2.52568e-05 0)
(0.000457115 -6.32411e-05 0)
(0.000423029 -5.32944e-05 0)
(0.000394226 -2.69364e-06 0)
(0.000407529 5.47072e-05 0)
(0.000446734 2.75833e-05 0)
(0.00038573 -7.52594e-05 0)
(0.000328056 0.000395025 0)
(0.000278135 0.000402326 0)
(0.000162009 0.000326543 0)
(8.3013e-05 0.000153006 0)
(7.84572e-05 0.00023263 0)
(0.0001686 0.000235949 0)
(0.000288736 0.00026696 0)
(0.000383025 0.000320243 0)
(0.000453282 0.000291392 0)
(0.000523222 0.000299013 0)
(0.00056414 0.00038659 0)
(0.000551116 0.000513229 0)
(0.000471848 0.000634664 0)
(0.000333636 0.000685331 0)
(0.000205409 0.000640667 0)
(3.33923e-07 -2.33895e-06 0)
(3.01315e-06 -7.70404e-06 0)
(7.7906e-06 -1.27218e-05 0)
(1.43464e-05 -1.71629e-05 0)
(2.26115e-05 -2.1196e-05 0)
(3.27861e-05 -2.50911e-05 0)
(4.52529e-05 -2.90119e-05 0)
(6.05296e-05 -3.28942e-05 0)
(7.92388e-05 -3.63827e-05 0)
(0.000102078 -3.87966e-05 0)
(0.000129785 -3.91518e-05 0)
(0.00016309 -3.62118e-05 0)
(0.000202618 -2.85446e-05 0)
(0.000248764 -1.46083e-05 0)
(0.000301459 7.04746e-06 0)
(0.000359811 3.80891e-05 0)
(0.00042135 7.94711e-05 0)
(0.000480407 0.000130194 0)
(0.000525625 0.000185589 0)
(0.000538119 0.000234104 0)
(0.000517866 0.000230831 0)
(0.000472026 0.000158439 0)
(0.000433133 6.43585e-05 0)
(0.000370466 7.15504e-05 0)
(0.00023741 -1.11973e-05 0)
(0.000211332 5.97616e-05 0)
(0.000624852 0.000523067 0)
(0.000901441 0.000178548 0)
(0.000759134 3.34009e-05 0)
(0.000668976 -1.09276e-05 0)
(0.000603109 -2.65603e-07 0)
(0.00053862 3.47335e-05 0)
(0.000488143 6.63878e-05 0)
(0.000454332 5.45487e-05 0)
(0.000369221 6.30711e-05 0)
(0.000322702 0.000348939 0)
(0.000346512 0.000423643 0)
(0.00034281 0.000360493 0)
(0.000325391 0.000217438 0)
(0.000337885 0.000195794 0)
(0.000411252 0.000142772 0)
(0.000501791 0.000167848 0)
(0.00054298 0.000281876 0)
(0.000583677 0.000216835 0)
(0.000674217 0.000227432 0)
(0.000744032 0.000363822 0)
(0.000760912 0.000554063 0)
(0.000694386 0.000756699 0)
(0.000519752 0.000849354 0)
(0.000363144 0.000746229 0)
(2.88282e-07 -3.793e-06 0)
(2.54703e-06 -1.13083e-05 0)
(6.53848e-06 -1.80613e-05 0)
(1.20249e-05 -2.41274e-05 0)
(1.90133e-05 -2.99188e-05 0)
(2.77691e-05 -3.59025e-05 0)
(3.87381e-05 -4.24027e-05 0)
(5.25061e-05 -4.94867e-05 0)
(6.97762e-05 -5.69058e-05 0)
(9.13521e-05 -6.40636e-05 0)
(0.000118122 -7.00317e-05 0)
(0.000151031 -7.35803e-05 0)
(0.000191058 -7.32128e-05 0)
(0.000239188 -6.72037e-05 0)
(0.000296334 -5.36544e-05 0)
(0.000363198 -3.00416e-05 0)
(0.00044004 6.42052e-06 0)
(0.000525524 5.85644e-05 0)
(0.000612145 0.000129955 0)
(0.000672324 0.000229785 0)
(0.000696674 0.000262637 0)