/*--------------------------------*- C++ -*----------------------------------*\
| =========                 |                                                 |
| \\      /  F ield         | OpenFOAM: The Open Source CFD Toolbox           |
|  \\    /   O peration     | Version:  2.4.0                                 |
|   \\  /    A nd           | Web:      www.OpenFOAM.org                      |
|    \\/     M anipulation  |                                                 |
\*---------------------------------------------------------------------------*/
FoamFile
{
    version     2.0;
    format      ascii;
    class       surfaceScalarField;
    location    "0.038";
    object      phi;
}
// * * * * * * * * * * * * * * * * * * * * * * * * * * * * * * * * * * * * * //

dimensions      [0 3 -1 0 0 0 0];

internalField   nonuniform List<scalar> 
7080
(
-6.27991e-13
6.27917e-13
-3.35504e-12
2.72559e-12
-9.35956e-12
6.00138e-12
-1.93527e-11
9.98804e-12
-3.40137e-11
1.46554e-11
-5.54664e-11
2.14476e-11
-8.28713e-11
2.73951e-11
-1.21623e-10
3.87378e-11
-1.63765e-10
4.21298e-11
-2.23832e-10
6.00519e-11
-2.75157e-10
5.13107e-11
-3.48323e-10
7.31478e-11
-3.82222e-10
3.38973e-11
-4.25219e-10
4.29889e-11
-3.83684e-10
-4.15361e-11
-3.26369e-10
-5.73125e-11
-1.92681e-10
-1.33681e-10
-8.2351e-11
-1.10323e-10
2.18658e-11
-1.04207e-10
8.50681e-11
-6.31921e-11
1.1049e-10
-2.54128e-11
1.17971e-10
-7.47389e-12
1.04186e-10
1.37904e-11
8.96197e-11
1.45704e-11
6.85433e-11
2.1078e-11
5.14794e-11
1.70653e-11
3.54233e-11
1.6056e-11
2.33925e-11
1.20308e-11
1.42125e-11
9.17964e-12
6.5762e-12
7.63634e-12
-1.22217e-12
1.84875e-12
-5.38087e-12
6.87974e-12
-1.3286e-11
1.38993e-11
-2.60809e-11
2.27724e-11
-4.4441e-11
3.30034e-11
-7.03601e-11
4.73548e-11
-1.02654e-10
5.96703e-11
-1.46899e-10
8.29595e-11
-1.94291e-10
8.95023e-11
-2.59777e-10
1.25514e-10
-3.13354e-10
1.04868e-10
-3.87814e-10
1.47586e-10
-4.14396e-10
6.04771e-11
-4.47639e-10
7.62282e-11
-3.85137e-10
-1.04034e-10
-3.06501e-10
-1.35938e-10
-1.50638e-10
-2.89527e-10
-2.38811e-11
-2.37063e-10
8.56741e-11
-2.13746e-10
1.46879e-10
-1.2438e-10
1.65566e-10
-4.40856e-11
1.64575e-10
-6.47257e-12
1.41021e-10
3.7351e-11
1.17756e-10
3.78409e-11
8.89376e-11
4.98982e-11
6.56091e-11
4.03952e-11
4.47499e-11
3.69147e-11
2.91596e-11
2.76212e-11
1.78367e-11
2.05021e-11
1.44289e-11
9.98405e-12
-1.23975e-12
3.08732e-12
-5.4519e-12
1.1088e-11
-1.32588e-11
2.17e-11
-2.5796e-11
3.53008e-11
-4.38278e-11
5.10252e-11
-6.95848e-11
7.31026e-11
-1.01805e-10
9.18755e-11
-1.46383e-10
1.27517e-10
-1.93937e-10
1.37039e-10
-2.60197e-10
1.91753e-10
-3.13803e-10
1.58456e-10
-3.89023e-10
2.22787e-10
-4.14736e-10
8.61903e-11
-4.46601e-10
1.08089e-10
-3.80314e-10
-1.70316e-10
-2.95839e-10
-2.20404e-10
-1.35465e-10
-4.49886e-10
-5.43967e-12
-3.67072e-10
1.01945e-10
-3.21115e-10
1.60309e-10
-1.82728e-10
1.75792e-10
-5.95553e-11
1.71962e-10
-2.63288e-12
1.46319e-10
6.30006e-11
1.21372e-10
6.27933e-11
9.13998e-11
7.98722e-11
6.72076e-11
6.45887e-11
4.57614e-11
5.83605e-11
2.96802e-11
4.37025e-11
1.82058e-11
3.19759e-11
2.06151e-11
1.20197e-11
-1.06968e-12
4.15588e-12
-5.02513e-12
1.50398e-11
-1.27411e-11
2.94103e-11
-2.53613e-11
4.79126e-11
-4.36273e-11
6.9282e-11
-6.99984e-11
9.94653e-11
-1.02938e-10
1.24801e-10
-1.48958e-10
1.73517e-10
-1.97655e-10
1.85722e-10
-2.66412e-10
2.60491e-10
-3.21613e-10
2.13641e-10
-3.9997e-10
3.01126e-10
-4.2663e-10
1.12852e-10
-4.58696e-10
1.40151e-10
-3.8866e-10
-2.40347e-10
-2.96981e-10
-3.12074e-10
-1.30341e-10
-6.16511e-10
3.48209e-12
-5.0088e-10
1.09742e-10
-4.2736e-10
1.66067e-10
-2.39037e-10
1.79083e-10
-7.25587e-11
1.7369e-10
2.76944e-12
1.47095e-10
8.96016e-11
1.21658e-10
8.82354e-11
9.14854e-11
1.10046e-10
6.71507e-11
8.89247e-11
4.56861e-11
7.98246e-11
2.96549e-11
5.97338e-11
1.80531e-11
4.35772e-11
2.81586e-11
1.05097e-11
-1.15204e-12
5.30683e-12
-5.26401e-12
1.91482e-11
-1.32488e-11
3.73896e-11
-2.63469e-11
6.10027e-11
-4.51877e-11
8.81143e-11
-7.25636e-11
1.26834e-10
-1.06531e-10
1.58756e-10
-1.54556e-10
2.21523e-10
-2.0487e-10
2.36022e-10
-2.77184e-10
3.32787e-10
-3.3467e-10
2.71112e-10
-4.175e-10
3.83939e-10
-4.45542e-10
1.40896e-10
-4.77926e-10
1.72533e-10
-4.02741e-10
-3.15528e-10
-3.01049e-10
-4.13755e-10
-1.25584e-10
-7.91962e-10
1.30556e-11
-6.39505e-10
1.1848e-10
-5.3277e-10
1.72307e-10
-2.9285e-10
1.82245e-10
-8.24848e-11
1.75022e-10
1.00017e-11
1.47403e-10
1.17227e-10
1.21511e-10
1.14132e-10
9.12277e-11
1.40331e-10
6.68692e-11
1.13284e-10
4.5463e-11
1.0123e-10
2.94986e-11
7.56982e-11
1.79319e-11
5.51435e-11
3.59152e-11
1.01754e-11
-1.23634e-12
6.54212e-12
-5.57873e-12
2.34872e-11
-1.39374e-11
4.57432e-11
-2.76565e-11
7.47143e-11
-4.72751e-11
1.07725e-10
-7.59738e-11
1.55526e-10
-1.11239e-10
1.94009e-10
-1.61833e-10
2.72099e-10
-2.14227e-10
2.88404e-10
-2.91122e-10
4.09665e-10
-3.51608e-10
3.31584e-10
-4.40229e-10
4.72543e-10
-4.70176e-10
1.70848e-10
-5.02895e-10
2.05251e-10
-4.20962e-10
-3.97455e-10
-3.06062e-10
-5.28645e-10
-1.19215e-10
-9.78796e-10
2.56496e-11
-7.84355e-10
1.29521e-10
-6.36629e-10
1.8002e-10
-3.43334e-10
1.86046e-10
-8.84995e-11
1.76545e-10
1.95107e-11
1.47684e-10
1.46093e-10
1.21254e-10
1.40568e-10
9.08548e-11
1.70731e-10
6.64907e-11
1.3765e-10
4.51697e-11
1.22551e-10
2.92842e-11
9.15838e-11
1.77975e-11
6.66298e-11
4.3615e-11
1.00978e-11
-1.32298e-12
7.8641e-12
-5.91895e-12
2.808e-11
-1.47203e-11
5.45398e-11
-2.92039e-11
8.9191e-11
-4.97679e-11
1.28282e-10
-8.00864e-11
1.85839e-10
-1.16965e-10
2.30877e-10
-1.70697e-10
3.25814e-10
-2.25622e-10
3.43317e-10
-3.08187e-10
4.92214e-10
-3.72472e-10
3.95857e-10
-4.68343e-10
5.68399e-10
-5.00844e-10
2.03355e-10
-5.3387e-10
2.38275e-10
-4.4347e-10
-4.87848e-10
-3.11728e-10
-6.60377e-10
-1.10716e-10
-1.17979e-09
4.16479e-11
-9.36704e-10
1.43117e-10
-7.38085e-10
1.89301e-10
-3.89504e-10
1.9053e-10
-8.97182e-11
1.78292e-10
3.17565e-11
1.47974e-10
1.76417e-10
1.20919e-10
1.67628e-10
9.03937e-11
2.01258e-10
6.60304e-11
1.62014e-10
4.48156e-11
1.43765e-10
2.90248e-11
1.07375e-10
1.76371e-11
7.80171e-11
5.12584e-11
9.9937e-12
-1.50746e-12
9.37062e-12
-6.44132e-12
3.30108e-11
-1.57042e-11
6.37984e-11
-3.1085e-11
1.04565e-10
-5.27464e-11
1.49937e-10
-8.49526e-11
2.18042e-10
-1.23644e-10
2.69559e-10
-1.81112e-10
3.83266e-10
-2.39067e-10
4.01262e-10
-3.28459e-10
5.81591e-10
-3.97483e-10
4.64871e-10
-5.02235e-10
6.73136e-10
-5.3817e-10
2.39298e-10
-5.71461e-10
2.71566e-10
-4.70684e-10
-5.88617e-10
-3.17856e-10
-8.13194e-10
-9.9609e-11
-1.39803e-09
6.14379e-11
-1.09774e-09
1.59435e-10
-8.3607e-10
2.00151e-10
-4.30208e-10
1.95659e-10
-8.52151e-11
1.80229e-10
4.71938e-11
1.48255e-10
2.08396e-10
1.20501e-10
1.95387e-10
8.98427e-11
2.31917e-10
6.54876e-11
1.86371e-10
4.44005e-11
1.64852e-10
2.87214e-11
1.23054e-10
1.74484e-11
8.92897e-11
5.88139e-11
9.89297e-12
-1.60537e-12
1.09751e-11
-6.92004e-12
3.83226e-11
-1.67961e-11
7.36705e-11
-3.32561e-11
1.21019e-10
-5.61987e-11
1.72874e-10
-9.05428e-11
2.52383e-10
-1.31298e-10
3.10304e-10
-1.93125e-10
4.45078e-10
-2.54568e-10
4.62697e-10
-3.52017e-10
6.79027e-10
-4.26873e-10
5.39717e-10
-5.42359e-10
7.88608e-10
-5.8288e-10
2.79829e-10
-6.16332e-10
3.0502e-10
-5.03071e-10
-7.01871e-10
-3.24183e-10
-9.9207e-10
-8.52985e-11
-1.6369e-09
8.54933e-11
-1.26851e-09
1.78638e-10
-9.29203e-10
2.12531e-10
-4.64089e-10
2.01352e-10
-7.40259e-11
1.8229e-10
6.62624e-11
1.48493e-10
2.42199e-10
1.19979e-10
2.23906e-10
8.91904e-11
2.62706e-10
6.48554e-11
2.10707e-10
4.39202e-11
1.85787e-10
2.83715e-11
1.38603e-10
1.72289e-11
1.00432e-10
6.6283e-11
9.75996e-12
-1.71036e-12
1.26846e-11
-7.48139e-12
4.40908e-11
-1.81025e-11
8.42879e-11
-3.59981e-11
1.3891e-10
-6.0231e-11
1.97102e-10
-9.712e-11
2.89271e-10
-1.40015e-10
3.53191e-10
-2.06719e-10
5.11768e-10
-2.72153e-10
5.28123e-10
-3.78958e-10
7.85819e-10
-4.60963e-10
6.21714e-10
-5.8934e-10
9.16972e-10
-6.35971e-10
3.26472e-10
-6.69465e-10
3.38516e-10
-5.414e-10
-8.29927e-10
-3.30431e-10
-1.20303e-09
-6.70799e-11
-1.90024e-09
1.14399e-10
-1.44998e-09
2.00944e-10
-1.01574e-09
2.26418e-10
-4.89552e-10
2.0755e-10
-5.51487e-11
1.84435e-10
8.93836e-11
1.48673e-10
2.77966e-10
1.19353e-10
2.53231e-10
8.84415e-11
2.93619e-10
6.41388e-11
2.3501e-10
4.33784e-11
2.06547e-10
2.79782e-11
1.54003e-10
1.69802e-11
1.11429e-10
7.36547e-11
9.60855e-12
-1.91526e-12
1.45991e-11
-8.44899e-12
5.06218e-11
-2.02743e-11
9.61098e-11
-3.95688e-11
1.58199e-10
-6.50489e-11
2.22578e-10
-1.036e-10
3.27822e-10
-1.48964e-10
3.98548e-10
-2.2169e-10
5.8448e-10
-2.91655e-10
5.98083e-10
-4.09307e-10
9.0346e-10
-5.00095e-10
7.12494e-10
-6.43906e-10
1.06077e-09
-6.98633e-10
3.81215e-10
-7.31968e-10
3.71853e-10
-5.86849e-10
-9.75037e-10
-3.36202e-10
-1.45366e-09
-4.41043e-11
-2.19232e-09
1.48849e-10
-1.64292e-09
2.26575e-10
-1.09345e-09
2.41748e-10
-5.04715e-10
2.14158e-10
-2.75489e-11
1.86599e-10
1.16949e-10
1.48767e-10
3.15802e-10
1.18611e-10
2.83391e-10
8.75921e-11
3.24639e-10
6.33366e-11
2.59267e-10
4.27749e-11
2.27108e-10
2.75416e-11
1.69236e-10
1.67022e-11
1.22269e-10
8.09197e-11
9.43729e-12
-2.00745e-12
1.66058e-11
-8.91984e-12
5.75314e-11
-2.08632e-11
1.0805e-10
-4.2154e-11
1.79485e-10
-6.82131e-11
2.48633e-10
-1.12241e-10
3.71852e-10
-1.60249e-10
4.46549e-10
-2.39065e-10
6.63282e-10
-3.14042e-10
6.73056e-10
-4.43086e-10
1.03249e-09
-5.44625e-10
8.14027e-10
-7.0683e-10
1.22296e-09
-7.72222e-10
4.46626e-10
-8.05167e-10
4.048e-10
-6.41816e-10
-1.13838e-09
-3.4097e-10
-1.75449e-09
-1.55125e-11
-2.51777e-09
1.89645e-10
-1.84806e-09
2.5574e-10
-1.15954e-09
2.58404e-10
-5.07371e-10
2.2104e-10
9.82459e-12
1.88689e-10
1.49305e-10
1.48726e-10
3.55769e-10
1.1773e-10
3.14391e-10
8.66307e-11
3.55739e-10
6.24424e-11
2.83456e-10
4.21055e-11
2.47445e-10
2.70595e-11
1.84282e-10
1.63941e-11
1.32934e-10
8.80669e-11
9.24704e-12
-2.47028e-12
1.90753e-11
-1.16867e-11
6.6745e-11
-2.6443e-11
1.22803e-10
-4.83004e-11
2.01337e-10
-7.65979e-11
2.76927e-10
-1.18287e-10
4.13543e-10
-1.69588e-10
4.97843e-10
-2.55578e-10
7.49259e-10
-3.35483e-10
7.52957e-10
-4.79989e-10
1.17699e-09
-5.94816e-10
9.28848e-10
-7.79231e-10
1.40736e-09
-8.58442e-10
5.25857e-10
-8.90661e-10
4.37022e-10
-7.03304e-10
-1.32572e-09
-3.44121e-10
-2.11367e-09
2.22778e-11
-2.88415e-09
2.37765e-10
-2.06353e-09
2.88698e-10
-1.21047e-09
2.76273e-10
-4.94938e-10
2.2807e-10
5.80359e-11
1.90635e-10
1.86745e-10
1.48529e-10
3.9788e-10
1.16706e-10
3.46217e-10
8.5561e-11
3.86886e-10
6.1461e-11
3.07557e-10
4.13742e-11
2.67531e-10
2.65346e-11
1.99122e-10
1.6058e-11
1.4341e-10
9.509e-11
9.03497e-12
-2.70366e-12
2.17783e-11
-1.02016e-11
7.42397e-11
-2.0673e-11
1.33271e-10
-4.92443e-11
2.29903e-10
-7.60849e-11
3.03763e-10
-1.31494e-10
4.68954e-10
-1.83996e-10
5.5034e-10
-2.77403e-10
8.42653e-10
-3.653e-10
8.40852e-10
-5.20067e-10
1.33175e-09
-6.51817e-10
1.06059e-09
-8.62021e-10
1.61755e-09
-9.59476e-10
6.23335e-10
-9.90655e-10
4.68204e-10
-7.73866e-10
-1.5425e-09
-3.44842e-10
-2.54268e-09
7.0638e-11
-3.29962e-09
2.9442e-10
-2.2873e-09
3.25647e-10
-1.24169e-09
2.95171e-10
-4.64455e-10
2.35078e-10
1.18137e-10
1.92347e-10
2.2948e-10
1.48137e-10
4.42094e-10
1.15526e-10
3.78832e-10
8.43789e-11
4.18034e-10
6.03919e-11
3.31545e-10
4.05812e-11
2.87341e-10
2.59673e-11
2.13736e-10
1.56947e-11
1.53682e-10
1.01986e-10
8.79882e-12
-2.69186e-12
2.44695e-11
-2.20698e-11
9.3614e-11
-4.5441e-11
1.56639e-10
-6.64305e-11
2.50887e-10
-9.51316e-11
3.32461e-10
-1.33081e-10
5.06907e-10
-1.90511e-10
6.07763e-10
-2.91763e-10
9.43892e-10
-3.87294e-10
9.36379e-10
-5.60126e-10
1.50457e-09
-7.12848e-10
1.21331e-09
-9.56918e-10
1.86161e-09
-1.07728e-09
7.43719e-10
-1.10713e-09
4.98061e-10
-8.55106e-10
-1.79452e-09
-3.4205e-10
-3.05572e-09
1.30658e-10
-3.77232e-09
3.60958e-10
-2.51759e-09
3.6673e-10
-1.24746e-09
3.14818e-10
-4.12538e-10
2.41836e-10
1.91126e-10
1.93706e-10
2.77613e-10
1.47501e-10
4.88302e-10
1.14165e-10
4.12172e-10
8.30726e-11
4.49127e-10
5.92292e-11
3.5539e-10
3.97231e-11
3.06847e-10
2.53556e-11
2.28104e-10
1.53038e-11
1.63734e-10
1.08745e-10
8.54467e-12
-9.66895e-12
3.41367e-11
-1.75618e-11
1.01502e-10
-1.10667e-11
1.5014e-10
-5.83333e-11
2.98148e-10
-8.33609e-11
3.57485e-10
-1.52235e-10
5.75786e-10
-2.09819e-10
6.65341e-10
-3.18659e-10
1.05272e-09
-4.26801e-10
1.04452e-09
-6.07723e-10
1.68548e-09
-7.85607e-10
1.39119e-09
-1.06507e-09
2.14105e-09
-1.21639e-09
8.95071e-10
-1.24417e-09
5.25846e-10
-9.49629e-10
-2.08905e-09
-3.34544e-10
-3.6708e-09
2.0527e-10
-4.31213e-09
4.39059e-10
-2.75136e-09
4.12102e-10
-1.2205e-09
3.34907e-10
-3.35339e-10
2.48121e-10
2.77918e-10
1.94618e-10
3.3112e-10
1.46598e-10
5.36325e-10
1.12621e-10
4.46153e-10
8.16459e-11
4.80102e-10
5.79782e-11
3.79058e-10
3.88044e-11
3.26021e-10
2.47024e-11
2.42206e-10
1.48877e-11
1.73548e-10
1.15352e-10
8.28117e-12
7.8686e-12
2.62692e-11
-4.68898e-11
1.56258e-10
-1.07769e-10
2.11015e-10
-9.3826e-11
2.84198e-10
-1.09635e-10
3.73293e-10
-1.36547e-10
6.02704e-10
-2.0302e-10
7.31807e-10
-3.3349e-10
1.18317e-09
-4.43822e-10
1.15485e-09
-6.53103e-10
1.89475e-09
-8.53281e-10
1.59136e-09
-1.18959e-09
2.47735e-09
-1.37755e-09
1.08306e-09
-1.40269e-09
5.50986e-10
-1.0581e-09
-2.43363e-09
-3.20363e-10
-4.40852e-09
2.98222e-10
-4.93071e-09
5.30858e-10
-2.98399e-09
4.61834e-10
-1.15147e-09
3.55009e-10
-2.28511e-10
2.53652e-10
3.79281e-10
1.94963e-10
3.89811e-10
1.45388e-10
5.85903e-10
1.10881e-10
4.80664e-10
8.00952e-11
5.10888e-10
5.66387e-11
4.02515e-10
3.78254e-11
3.44834e-10
2.40083e-11
2.56023e-10
1.4447e-11
1.83109e-10
1.21789e-10
8.0098e-12
-3.73741e-11
6.36384e-11
-8.1756e-11
2.00628e-10
-1.25215e-11
1.41776e-10
-8.9249e-11
3.60918e-10
-1.12239e-10
3.96286e-10
-1.69995e-10
6.6047e-10
-2.42112e-10
8.03918e-10
-3.55816e-10
1.29686e-09
-4.94849e-10
1.29388e-09
-7.0972e-10
2.10961e-09
-9.47899e-10
1.82954e-09
-1.3334e-09
2.86282e-09
-1.57305e-09
1.32275e-09
-1.59285e-09
5.70793e-10
-1.18604e-09
-2.84044e-09
-2.98028e-10
-5.29653e-09
4.13033e-10
-5.64177e-09
6.3909e-10
-3.21003e-09
5.15768e-10
-1.02815e-09
3.74505e-10
-8.72474e-11
2.58071e-10
4.95721e-10
1.94594e-10
4.53291e-10
1.43823e-10
6.36677e-10
1.08926e-10
5.15563e-10
7.84099e-11
5.41405e-10
5.52049e-11
4.25721e-10
3.67831e-11
3.63255e-10
2.32718e-11
2.69534e-10
1.39809e-11
1.924e-10
1.28042e-10
7.72828e-12
-3.08994e-11
9.45303e-11
-8.38252e-11
2.53548e-10
-1.59842e-10
2.17789e-10
-1.16504e-11
2.12719e-10
-1.77453e-11
4.02383e-10
-1.08996e-10
7.51749e-10
-1.78395e-10
8.73312e-10
-3.93705e-10
1.51215e-09
-5.07178e-10
1.40735e-09
-7.54171e-10
2.35659e-09
-1.00919e-09
2.08455e-09
-1.49332e-09
3.34693e-09
-1.79428e-09
1.62375e-09
-1.80517e-09
5.8168e-10
-1.33032e-09
-3.31528e-09
-2.63026e-10
-6.36381e-09
5.56668e-10
-6.46146e-09
7.66696e-10
-3.42004e-09
5.73855e-10
-8.35308e-10
3.92752e-10
9.38557e-11
2.61032e-10
6.27445e-10
1.93398e-10
5.20926e-10
1.4188e-10
6.88197e-10
1.06758e-10
5.50689e-10
7.65949e-11
5.71568e-10
5.36813e-11
4.48636e-10
3.56814e-11
3.81255e-10
2.2496e-11
2.8272e-10
1.34907e-11
2.01405e-10
1.34097e-10
7.4353e-12
-3.65134e-11
1.31043e-10
-2.79887e-10
4.96898e-10
-3.15705e-10
2.53603e-10
-1.86896e-10
8.39008e-11
-1.89102e-10
4.04599e-10
-1.95596e-10
7.58284e-10
-3.12745e-10
9.90461e-10
-3.85496e-10
1.58488e-09
-5.74506e-10
1.59636e-09
-8.15475e-10
2.59755e-09
-1.1416e-09
2.41067e-09
-1.69266e-09
3.89796e-09
-2.0813e-09
2.01244e-09
-2.07502e-09
5.75399e-10
-1.5057e-09
-3.8846e-09
-2.15456e-10
-7.65405e-09
7.31322e-10
-7.40824e-09
9.12143e-10
-3.60085e-09
6.34785e-10
-5.57952e-10
4.08596e-10
3.20043e-10
2.6203e-10
7.74016e-10
1.91244e-10
5.91713e-10
1.39534e-10
7.3991e-10
1.04371e-10
5.85855e-10
7.46485e-11
6.01291e-10
5.20677e-11
4.71217e-10
3.45204e-11
3.98802e-10
2.16815e-11
2.95559e-10
1.29753e-11
2.10111e-10
1.39943e-10
7.12912e-12
6.64137e-11
6.46466e-11
1.90648e-10
3.72649e-10
7.12694e-10
-2.68451e-10
4.91894e-10
3.04697e-10
3.26796e-10
5.69689e-10
2.15537e-10
8.69571e-10
-1.7016e-10
1.37616e-09
-4.84367e-10
1.89906e-09
-5.95963e-10
1.70796e-09
-8.25224e-10
2.82679e-09
-1.15683e-09
2.74227e-09
-1.87453e-09
4.61563e-09
-2.3844e-09
2.52236e-09
-2.37241e-09
5.63391e-10
-1.69765e-09
-4.55934e-09
-1.43961e-10
-9.20773e-09
9.52707e-10
-8.50491e-09
1.08542e-09
-3.73354e-09
7.0083e-10
-1.73366e-10
4.21407e-10
5.99463e-10
2.60613e-10
9.34813e-10
1.87994e-10
6.64332e-10
1.3675e-10
7.91155e-10
1.01752e-10
6.20855e-10
7.25638e-11
6.3048e-10
5.03602e-11
4.93421e-10
3.3298e-11
4.15864e-10
2.08274e-11
3.08029e-10
1.24331e-11
2.18505e-10
1.45571e-10
6.8052e-12
6.82867e-11
-3.63917e-12
3.27755e-10
1.13218e-10
2.27506e-10
-1.68209e-10
-1.94955e-10
7.27149e-10
-5.77905e-10
9.52662e-10
-2.81488e-10
5.73262e-10
6.83411e-11
1.02633e-09
-4.26812e-10
2.39418e-09
-6.20394e-10
1.90155e-09
-9.10795e-10
3.11718e-09
-1.35429e-09
3.18575e-09
-2.17497e-09
5.43627e-09
-2.81761e-09
3.16507e-09
-2.76413e-09
5.09889e-10
-1.9389e-09
-5.38456e-09
-5.17201e-11
-1.10949e-08
1.21579e-09
-9.77242e-09
1.27599e-09
-3.79372e-09
7.61714e-10
3.40907e-10
4.2796e-10
9.33213e-10
2.56103e-10
1.10667e-09
1.83545e-10
7.36891e-10
1.33531e-10
8.41171e-10
9.8912e-11
6.55476e-10
7.03485e-11
6.59044e-10
4.85647e-11
5.15206e-10
3.2018e-11
4.32411e-10
1.99365e-11
3.20111e-10
1.18688e-11
2.26573e-10
1.50968e-10
6.47208e-12
-8.496e-11
8.1291e-11
2.37036e-10
-2.08767e-10
5.72423e-10
-5.03604e-10
5.7083e-10
7.28737e-10
1.91438e-10
1.33204e-09
-2.44832e-10
1.00959e-09
-7.04427e-10
1.48593e-09
-1.0461e-09
2.7358e-09
-8.34121e-10
1.68959e-09
-7.76885e-10
3.05991e-09
-1.22957e-09
3.63843e-09
-2.33606e-09
6.54273e-09
-3.23383e-09
4.0629e-09
-3.18491e-09
4.60953e-10
-2.1984e-09
-6.37108e-09
7.08976e-11
-1.33642e-08
1.55688e-09
-1.12584e-08
1.51795e-09
-3.75476e-09
8.34925e-10
1.02392e-09
4.30313e-10
1.33782e-09
2.48143e-10
1.28885e-09
1.77828e-10
8.07206e-10
1.29881e-10
8.89121e-10
9.58552e-11
6.89503e-10
6.80055e-11
6.86894e-10
4.66832e-11
5.36528e-10
3.06817e-11
4.48412e-10
1.90094e-11
3.31784e-10
1.12794e-11
2.34302e-10
1.56129e-10
6.11843e-12
-8.95496e-11
1.70825e-10
-1.14191e-10
-1.84114e-10
-1.51423e-10
-4.66382e-10
-1.44478e-10
7.2178e-10
4.32062e-10
7.55454e-10
-2.28049e-11
1.46443e-09
1.52424e-10
1.31069e-09
3.94722e-10
2.4935e-09
-9.38443e-10
3.02278e-09
-8.45399e-10
2.96683e-09
-1.5391e-09
4.33211e-09
-2.81101e-09
7.81456e-09
-3.90641e-09
5.1584e-09
-3.75169e-09
3.06203e-10
-2.52954e-09
-7.59322e-09
2.13531e-10
-1.61073e-08
1.94934e-09
-1.29942e-08
1.76248e-09
-3.56788e-09
8.74495e-10
1.9119e-09
4.1865e-10
1.79366e-09
2.35567e-10
1.47193e-09
1.70701e-10
8.72072e-10
1.25785e-10
9.34038e-10
9.25621e-11
7.22728e-10
6.55181e-11
7.13938e-10
4.47042e-11
5.57342e-10
2.92816e-11
4.63834e-10
1.80428e-11
3.43022e-10
1.06716e-11
2.41674e-10
1.61035e-10
5.76543e-12
3.29941e-11
1.3785e-10
-3.59937e-10
2.08785e-10
-2.73485e-10
-5.52844e-10
-8.60698e-11
5.34356e-10
-1.03785e-09
1.70725e-09
-1.74659e-09
2.17334e-09
-1.58924e-09
1.15335e-09
-6.703e-10
1.57453e-09
-5.15754e-10
2.86823e-09
-5.54748e-10
3.00576e-09
-9.92762e-10
4.7701e-09
-2.89852e-09
9.72024e-09
-4.50027e-09
6.76024e-09
-4.38821e-09
1.94111e-10
-2.89071e-09
-9.09073e-09
4.20603e-10
-1.94186e-08
2.47016e-09
-1.50438e-08
2.10302e-09
-3.2007e-09
9.5264e-10
3.06227e-09
4.04426e-10
2.34187e-09
2.1894e-10
1.65742e-09
1.62343e-10
9.28669e-10
1.21381e-10
9.75001e-10
8.9138e-11
7.54972e-10
6.29528e-11
7.40123e-10
4.26786e-11
5.77617e-10
2.78526e-11
4.7866e-10
1.7058e-11
3.53817e-10
1.00468e-11
2.48685e-10
1.65694e-10
5.38855e-12
-4.02445e-11
1.78072e-10
3.5376e-10
-1.85187e-10
1.00696e-09
-1.20606e-09
1.16733e-09
3.73973e-10
-4.12787e-10
3.2873e-09
-1.44867e-09
3.20933e-09
-1.43166e-09
1.13633e-09
-1.28243e-09
1.42523e-09
-6.31122e-10
2.21694e-09
-9.22394e-10
3.297e-09
-1.54018e-09
5.38786e-09
-3.68972e-09
1.18697e-08
-5.55812e-09
8.62874e-09
-5.14469e-09
-2.19354e-10
-3.32906e-09
-1.09064e-08
6.66481e-10
-2.34141e-08
3.06019e-09
-1.74375e-08
2.419e-09
-2.55947e-09
9.60612e-10
4.52066e-09
3.56989e-10
2.94549e-09
1.94638e-10
1.81977e-09
1.52358e-10
9.70949e-10
1.1651e-10
1.01085e-09
8.53623e-11
7.86121e-10
6.01382e-11
7.65348e-10
4.04666e-11
5.97289e-10
2.62968e-11
4.9283e-10
1.59912e-11
3.64123e-10
9.38082e-12
2.55295e-10
1.70066e-10
5.00822e-12
2.43316e-10
-6.52514e-11
4.79607e-10
-4.214e-10
4.72646e-10
-1.19911e-09
2.46619e-10
5.99976e-10
4.15562e-10
3.11833e-09
5.81686e-10
3.04303e-09
1.92416e-10
1.52558e-09
1.68987e-09
-7.21942e-11
5.54313e-10
3.35248e-09
1.20335e-10
3.73095e-09
-7.55498e-11
5.58374e-09
-3.58451e-09
1.53785e-08
-6.42588e-09
1.14702e-08
-6.12488e-09
-5.20386e-10
-3.80394e-09
-1.32273e-08
1.01374e-09
-2.82318e-08
3.8273e-09
-2.02511e-08
2.87819e-09
-1.6103e-09
1.0399e-09
6.35894e-09
3.22308e-10
3.66307e-09
1.69225e-10
1.97285e-09
1.41959e-10
9.98215e-10
1.11758e-10
1.04105e-09
8.1825e-11
8.16055e-10
5.75085e-11
7.89664e-10
3.84218e-11
6.16376e-10
2.48653e-11
5.06386e-10
1.50119e-11
3.73976e-10
8.75869e-12
2.61548e-10
1.74193e-10
4.63157e-12
9.10012e-10
-9.75087e-10
7.86104e-10
-2.97359e-10
9.59561e-10
-1.37259e-09
1.42712e-09
1.32399e-10
6.67698e-10
3.87767e-09
-2.08467e-10
3.91909e-09
-1.40572e-09
2.72282e-09
-2.05158e-09
5.73629e-10
-1.5185e-09
2.81944e-09
-2.24652e-10
2.43708e-09
-2.1516e-09
7.51066e-09
-5.20101e-09
1.84279e-08
-7.69682e-09
1.39661e-08
-6.75404e-09
-1.46317e-09
-4.00206e-09
-1.59793e-08
1.49844e-09
-3.37323e-08
4.75113e-09
-2.35038e-08
3.32655e-09
-1.85653e-10
9.80197e-10
8.70529e-09
2.07663e-10
4.43561e-09
1.26136e-10
2.05438e-09
1.29667e-10
9.94683e-10
1.06729e-10
1.06399e-09
7.77244e-11
8.4506e-10
5.43936e-11
8.12995e-10
3.59522e-11
6.34817e-10
2.31214e-11
5.19217e-10
1.38144e-11
3.83283e-10
8.01249e-12
2.6735e-10
1.78006e-10
4.19956e-12
1.31469e-10
-1.10656e-09
6.17509e-10
-7.83293e-10
5.40308e-10
-1.2954e-09
3.87478e-10
2.85204e-10
2.76768e-10
3.98832e-09
1.46324e-09
2.73261e-09
3.92073e-09
2.65269e-10
3.10953e-09
1.38489e-09
3.76199e-09
2.16699e-09
4.32304e-09
1.87635e-09
9.54543e-10
1.08792e-08
-5.05221e-09
2.44343e-08
-9.76479e-09
1.86789e-08
-8.20449e-09
-3.02345e-09
-3.32388e-09
-2.08599e-08
2.52486e-09
-3.9581e-08
5.8156e-09
-2.67947e-08
3.85268e-09
1.77734e-09
1.03489e-09
1.15231e-08
1.6435e-10
5.30614e-09
1.07236e-10
2.11149e-09
1.27472e-10
9.74447e-10
1.08354e-10
1.08311e-09
7.89541e-11
8.74461e-10
5.51113e-11
8.36838e-10
3.61708e-11
6.53758e-10
2.31412e-11
5.32247e-10
1.37087e-11
3.92716e-10
7.91555e-12
2.73143e-10
1.81879e-10
4.04318e-12
-6.54927e-10
-4.51808e-10
4.08828e-10
-1.84704e-09
1.36312e-10
-1.02291e-09
-2.95321e-09
3.37466e-09
-2.26279e-09
3.29787e-09
1.23358e-09
-7.63775e-10
2.45509e-09
-9.56261e-10
3.56093e-09
2.79072e-10
4.75142e-09
9.76775e-10
5.89333e-09
7.33487e-10
2.11348e-08
-4.36217e-09
3.93189e-08
6.24951e-09
1.49903e-08
4.30075e-08
-1.47444e-08
2.67112e-08
-2.84578e-09
-3.27586e-08
6.89462e-09
-4.93214e-08
7.80154e-09
-2.77016e-08
4.46867e-09
5.11028e-09
9.4617e-10
1.50456e-08
5.01988e-11
6.20212e-09
1.27358e-10
2.03433e-09
1.96159e-10
9.05645e-10
1.67281e-10
1.11199e-09
1.22629e-10
9.19113e-10
8.55769e-11
8.73889e-10
5.64891e-11
6.82845e-10
3.58234e-11
5.52912e-10
2.12176e-11
4.07321e-10
1.2106e-11
2.82254e-10
6.31699e-12
1.87667e-10
6.63074e-12
1.00537e-12
6.37129e-12
2.59613e-13
5.73808e-12
6.33055e-13
4.36426e-12
1.37395e-12
3.27175e-12
1.09247e-12
2.72412e-12
5.47705e-13
2.2401e-12
4.84024e-13
1.81754e-12
4.22596e-13
1.41019e-12
4.07361e-13
1.23544e-12
1.74775e-13
1.07809e-12
1.57363e-13
7.80919e-13
2.97186e-13
5.35645e-13
2.45283e-13
4.24126e-13
1.11524e-13
3.19617e-13
1.04505e-13
2.93221e-13
2.6386e-14
1.84888e-13
1.08315e-13
1.4233e-13
4.25356e-14
2.33785e-13
-9.14816e-14
1.68257e-13
6.55004e-14
1.17315e-13
5.09148e-14
1.09861e-13
7.43001e-15
6.93698e-14
4.0471e-14
6.02578e-14
9.09678e-15
7.83386e-14
-1.80905e-14
3.0617e-14
4.7717e-14
-7.08402e-14
1.01458e-13
6.46749e-14
-1.35511e-13
1.52005e-13
-8.73224e-14
1.52013e-13
8.40686e-12
2.58218e-12
7.64878e-12
1.01799e-12
6.09808e-12
2.18357e-12
4.37808e-12
3.09415e-12
3.66996e-12
1.80055e-12
3.00932e-12
1.20845e-12
2.43987e-12
1.05348e-12
2.046e-12
8.16526e-13
1.63746e-12
8.15922e-13
1.45168e-12
3.60594e-13
1.25314e-12
3.55921e-13
7.71828e-13
7.78523e-13
5.49547e-13
4.67569e-13
5.38737e-13
1.22329e-13
4.35889e-13
2.07332e-13
3.45527e-13
1.16715e-13
2.9089e-13
1.6291e-13
2.35577e-13
9.78007e-14
2.12872e-13
-6.88279e-14
2.01074e-13
7.72487e-14
1.65693e-13
8.62509e-14
1.45329e-13
2.77571e-14
1.4425e-13
4.15219e-14
1.51473e-13
1.85474e-15
1.15486e-13
1.78875e-14
9.95887e-14
6.36137e-14
4.41047e-14
1.56949e-13
3.17891e-14
-1.23184e-13
-1.30231e-14
-4.24928e-14
1.38998e-13
9.81205e-12
4.78947e-12
6.04601e-12
4.78432e-12
4.42172e-12
3.80768e-12
4.12253e-12
3.39353e-12
3.66896e-12
2.25408e-12
3.00362e-12
1.8739e-12
2.43685e-12
1.62026e-12
2.14544e-12
1.10799e-12
1.83523e-12
1.12615e-12
1.26715e-12
9.28712e-13
8.11934e-13
8.11156e-13
7.62309e-13
8.28167e-13
6.79015e-13
5.50867e-13
5.76631e-13
2.24708e-13
4.55277e-13
3.28666e-13
3.29529e-13
2.42434e-13
3.38975e-13
1.53425e-13
2.77896e-13
1.58834e-13
1.15747e-13
9.32728e-14
1.34114e-13
5.88348e-14
1.842e-13
3.61228e-14
1.62461e-13
4.94602e-14
2.01708e-13
2.24864e-15
2.27049e-13
-2.35043e-14
1.13699e-13
1.31229e-13
1.12445e-13
6.48669e-14
5.66765e-14
2.12725e-13
-6.95173e-14
3.02049e-15
-1.22368e-13
1.03742e-14
1.66366e-14
8.61842e-12
6.68039e-12
6.64569e-12
6.75732e-12
5.45067e-12
5.00254e-12
4.55819e-12
4.28619e-12
3.75813e-12
3.0541e-12
3.02125e-12
2.61088e-12
2.4355e-12
2.20602e-12
2.01691e-12
1.52665e-12
1.65032e-12
1.49275e-12
1.24326e-12
1.33581e-12
9.44792e-13
1.10965e-12
7.98548e-13
9.74429e-13
6.90829e-13
6.58591e-13
6.14812e-13
3.0072e-13
4.76512e-13
4.66947e-13
3.76087e-13
3.42831e-13
3.27519e-13
2.01955e-13
2.57033e-13
2.29277e-13
2.03234e-13
1.47025e-13
1.86344e-13
7.56805e-14
1.76559e-13
4.58676e-14
1.6012e-13
6.58648e-14
1.53497e-13
8.84614e-15
1.483e-13
-1.83245e-14
1.20068e-13
1.59453e-13
1.19837e-13
6.5098e-14
6.4376e-14
2.68193e-13
3.82763e-14
2.91302e-14
-3.47088e-14
8.33748e-14
-1.80656e-14
8.37548e-12
8.47994e-12
6.76371e-12
8.36935e-12
5.62935e-12
6.13674e-12
4.6076e-12
5.3081e-12
3.72511e-12
3.93655e-12
2.99763e-12
3.33846e-12
2.42782e-12
2.77583e-12
1.95686e-12
1.99766e-12
1.58118e-12
1.86845e-12
1.2544e-12
1.66262e-12
9.76325e-13
1.38774e-12
8.18958e-13
1.13181e-12
7.43025e-13
7.34527e-13
6.0462e-13
4.39121e-13
4.58029e-13
6.1352e-13
3.75201e-13
4.25632e-13
3.10895e-13
2.66225e-13
2.45221e-13
2.94908e-13
2.09557e-13
1.82644e-13
1.89628e-13
9.5567e-14
1.69613e-13
6.58436e-14
1.58633e-13
7.68119e-14
1.43619e-13
2.3835e-14
1.24633e-13
6.44454e-16
1.17133e-13
1.66945e-13
1.18855e-13
6.33754e-14
7.60446e-14
3.11009e-13
8.26085e-14
2.25758e-14
-2.94129e-14
1.95411e-13
-4.74721e-14
8.32947e-12
1.02479e-11
6.72698e-12
9.97209e-12
5.56616e-12
7.29742e-12
4.57628e-12
6.29814e-12
3.67471e-12
4.83809e-12
2.96822e-12
4.04504e-12
2.41335e-12
3.33071e-12
1.89276e-12
2.51831e-12
1.52434e-12
2.23688e-12
1.23516e-12
1.95184e-12
9.94264e-13
1.62865e-12
8.71553e-13
1.25454e-12
7.60835e-13
8.45249e-13
5.61229e-13
6.38723e-13
4.3991e-13
7.3482e-13
3.71664e-13
4.93851e-13
3.07281e-13
3.30572e-13
2.60398e-13
3.4175e-13
2.2013e-13
2.22869e-13
1.90923e-13
1.24732e-13
1.68291e-13
8.84376e-14
1.57535e-13
8.75358e-14
1.43943e-13
3.74022e-14
1.20924e-13
2.36472e-14
1.13126e-13
1.74735e-13
1.14157e-13
6.23441e-14
9.59126e-14
3.29259e-13
1.05326e-13
1.31716e-14
-6.56075e-14
3.66359e-13
-1.13074e-13
8.25271e-12
1.19885e-11
6.70589e-12
1.15192e-11
5.48888e-12
8.51429e-12
4.48904e-12
7.29813e-12
3.60024e-12
5.72686e-12
2.93684e-12
4.70851e-12
2.3968e-12
3.87076e-12
1.83507e-12
3.08008e-12
1.47127e-12
2.6007e-12
1.20949e-12
2.21365e-12
1.01772e-12
1.82045e-12
8.88574e-13
1.3837e-12
7.42171e-13
9.91656e-13
5.35405e-13
8.45484e-13
4.31808e-13
8.384e-13
3.60633e-13
5.64999e-13
2.89959e-13
4.01211e-13
2.55409e-13
3.7626e-13
2.19969e-13
2.58266e-13
1.83868e-13
1.60792e-13
1.57011e-13
1.15256e-13
1.47581e-13
9.69345e-14
1.429e-13
4.20591e-14
1.28736e-13
3.77942e-14
1.31149e-13
1.72314e-13
1.29699e-13
6.37926e-14
1.27926e-13
3.31038e-13
1.45916e-13
-4.81033e-15
-9.65473e-14
6.08836e-13
-2.09615e-13
8.1732e-12
1.3708e-11
6.64141e-12
1.30512e-11
5.37928e-12
9.7763e-12
4.39013e-12
8.28742e-12
3.52557e-12
6.59139e-12
2.87059e-12
5.36357e-12
2.35089e-12
4.39047e-12
1.85949e-12
3.57153e-12
1.4726e-12
2.98761e-12
1.18399e-12
2.50229e-12
1.05368e-12
1.95077e-12
8.8985e-13
1.54754e-12
7.03892e-13
1.17762e-12
5.28762e-13
1.02061e-12
4.43046e-13
9.24099e-13
3.71094e-13
6.36925e-13
3.00085e-13
4.72187e-13
2.64912e-13
4.11393e-13
2.27223e-13
2.95913e-13
1.89001e-13
1.98972e-13
1.59485e-13
1.44735e-13
1.45852e-13
1.10536e-13
1.42933e-13
4.49544e-14
1.32538e-13
4.81719e-14
1.43636e-13
1.61208e-13
1.39074e-13
6.8353e-14
1.05648e-13
3.6447e-13
1.42621e-13
-4.17756e-14
-5.05204e-14
8.01992e-13
-2.6013e-13
8.05577e-12
1.54119e-11
6.565e-12
1.45422e-11
5.28722e-12
1.1054e-11
4.30311e-12
9.27167e-12
3.45972e-12
7.43476e-12
2.81315e-12
6.01021e-12
2.30741e-12
4.89622e-12
1.85567e-12
4.02331e-12
1.48323e-12
3.36007e-12
1.19667e-12
2.78888e-12
1.02839e-12
2.11908e-12
8.43442e-13
1.7325e-12
6.63715e-13
1.35735e-12
5.16755e-13
1.16757e-12
4.31743e-13
1.00909e-12
3.61461e-13
7.0718e-13
2.92104e-13
5.41511e-13
2.50697e-13
4.5276e-13
2.15948e-13
3.30621e-13
1.80971e-13
2.33909e-13
1.53195e-13
1.72475e-13
1.39653e-13
1.24046e-13
1.40288e-13
4.42963e-14
1.37548e-13
5.08954e-14
1.66406e-13
1.32342e-13
1.59007e-13
7.57497e-14
1.13006e-13
4.10476e-13
1.90141e-13
-1.18903e-13
-1.82038e-15
9.93966e-13
-2.61946e-13
7.91654e-12
1.71036e-11
6.46258e-12
1.59963e-11
5.19249e-12
1.23239e-11
4.21973e-12
1.02446e-11
3.4036e-12
8.25087e-12
2.76646e-12
6.64742e-12
2.26478e-12
5.39791e-12
1.82912e-12
4.45902e-12
1.47442e-12
3.71479e-12
1.19881e-12
3.06451e-12
9.95692e-13
2.32222e-12
8.09956e-13
1.91825e-12
6.3747e-13
1.52984e-12
5.1395e-13
1.29108e-12
4.25702e-13
1.09732e-12
3.60666e-13
7.72191e-13
3.01199e-13
6.00944e-13
2.57634e-13
4.96286e-13
2.23644e-13
3.64571e-13
1.88847e-13
2.68666e-13
1.61634e-13
1.99651e-13
1.44357e-13
1.41293e-13
1.38373e-13
5.02565e-14
1.36989e-13
5.22623e-14
1.53315e-13
1.16007e-13
1.43406e-13
8.56565e-14
8.91242e-14
4.64762e-13
1.24683e-13
-1.54455e-13
-4.50644e-14
1.16373e-12
-3.07006e-13
7.75711e-12
1.87835e-11
6.34015e-12