/*--------------------------------*- C++ -*----------------------------------*\
| =========                 |                                                 |
| \\      /  F ield         | OpenFOAM: The Open Source CFD Toolbox           |
|  \\    /   O peration     | Version:  2.4.0                                 |
|   \\  /    A nd           | Web:      www.OpenFOAM.org                      |
|    \\/     M anipulation  |                                                 |
\*---------------------------------------------------------------------------*/
FoamFile
{
    version     2.0;
    format      ascii;
    class       surfaceScalarField;
    location    "0.038";
    object      phiAlpha;
}
// * * * * * * * * * * * * * * * * * * * * * * * * * * * * * * * * * * * * * //

dimensions      [0 3 -1 0 0 0 0];

internalField   nonuniform List<scalar> 
7080
(
-6.2824e-13
6.28142e-13
-3.35602e-12
2.72646e-12
-9.36174e-12
6.0031e-12
-1.93568e-11
9.99084e-12
-3.40209e-11
1.46596e-11
-5.54778e-11
2.14532e-11
-8.28882e-11
2.74021e-11
-1.21646e-10
3.87453e-11
-1.63793e-10
4.2136e-11
-2.23862e-10
6.00542e-11
-2.75179e-10
5.13016e-11
-3.48321e-10
7.31229e-11
-3.82171e-10
3.38444e-11
-4.25097e-10
4.2914e-11
-3.83474e-10
-4.16311e-11
-3.261e-10
-5.73777e-11
-1.92415e-10
-1.33683e-10
-8.21378e-11
-1.10276e-10
2.19972e-11
-1.0413e-10
8.51322e-11
-6.31275e-11
1.10506e-10
-2.53686e-11
1.17961e-10
-7.44974e-12
1.04163e-10
1.37997e-11
8.95936e-11
1.45727e-11
6.85181e-11
2.10742e-11
5.14585e-11
1.70605e-11
3.54064e-11
1.60501e-11
2.33814e-11
1.20259e-11
1.42045e-11
9.1756e-12
6.57298e-12
7.63224e-12
-1.22224e-12
1.84927e-12
-5.38102e-12
6.88174e-12
-1.32864e-11
1.39032e-11
-2.60817e-11
2.27783e-11
-4.44427e-11
3.30119e-11
-7.03639e-11
4.73654e-11
-1.02659e-10
5.96826e-11
-1.46906e-10
8.29707e-11
-1.94297e-10
8.9509e-11
-2.59776e-10
1.2551e-10
-3.13335e-10
1.04839e-10
-3.87761e-10
1.47522e-10
-4.14283e-10
6.03576e-11
-4.47447e-10
7.60638e-11
-3.84856e-10
-1.04229e-10
-3.06167e-10
-1.36066e-10
-1.50329e-10
-2.89515e-10
-2.36393e-11
-2.36956e-10
8.5809e-11
-2.13569e-10
1.46937e-10
-1.24242e-10
1.65571e-10
-4.39955e-11
1.64552e-10
-6.42289e-12
1.40986e-10
3.73654e-11
1.17719e-10
3.78442e-11
8.89038e-11
4.98862e-11
6.55815e-11
4.03845e-11
4.47284e-11
3.68999e-11
2.91453e-11
2.76107e-11
1.78265e-11
2.04925e-11
1.44221e-11
9.97873e-12
-1.2398e-12
3.08822e-12
-5.45202e-12
1.10911e-11
-1.32591e-11
2.17058e-11
-2.57968e-11
3.53094e-11
-4.38295e-11
5.10373e-11
-6.95879e-11
7.31165e-11
-1.01811e-10
9.18915e-11
-1.4639e-10
1.27531e-10
-1.93942e-10
1.37045e-10
-2.60196e-10
1.91742e-10
-3.13784e-10
1.58407e-10
-3.88969e-10
2.22682e-10
-4.14621e-10
8.60029e-11
-4.46403e-10
1.07833e-10
-3.80025e-10
-1.70612e-10
-2.95496e-10
-2.20594e-10
-1.35153e-10
-4.49851e-10
-5.18933e-12
-3.6691e-10
1.02075e-10
-3.20824e-10
1.60361e-10
-1.82515e-10
1.75792e-10
-5.94197e-11
1.71935e-10
-2.55841e-12
1.46282e-10
6.30192e-11
1.21333e-10
6.27969e-11
9.13646e-11
7.98514e-11
6.7179e-11
6.45717e-11
4.57393e-11
5.83366e-11
2.96655e-11
4.3686e-11
1.81955e-11
3.19608e-11
2.0605e-11
1.20139e-11
-1.06974e-12
4.15708e-12
-5.02536e-12
1.50438e-11
-1.27418e-11
2.94177e-11
-2.53628e-11
4.79238e-11
-4.36305e-11
6.92976e-11
-7.00038e-11
9.94834e-11
-1.02946e-10
1.24822e-10
-1.48969e-10
1.73536e-10
-1.97666e-10
1.85728e-10
-2.66419e-10
2.60475e-10
-3.21602e-10
2.13572e-10
-3.99923e-10
3.00981e-10
-4.26519e-10
1.12593e-10
-4.58496e-10
1.39799e-10
-3.8836e-10
-2.40751e-10
-2.96624e-10
-3.12328e-10
-1.30022e-10
-6.16446e-10
3.69999e-12
-5.00622e-10
1.09869e-10
-4.26984e-10
1.66115e-10
-2.38748e-10
1.7908e-10
-7.2378e-11
1.73661e-10
2.86783e-12
1.47056e-10
8.96241e-11
1.21618e-10
8.8239e-11
9.14499e-11
1.10017e-10
6.7122e-11
8.89014e-11
4.56639e-11
7.97915e-11
2.96402e-11
5.97113e-11
1.80428e-11
4.35564e-11
2.81449e-11
1.05042e-11
-1.15213e-12
5.30833e-12
-5.26439e-12
1.91531e-11
-1.32498e-11
3.73987e-11
-2.63491e-11
6.10166e-11
-4.51921e-11
8.81336e-11
-7.2571e-11
1.26857e-10
-1.06543e-10
1.58783e-10
-1.54571e-10
2.21548e-10
-2.04887e-10
2.36032e-10
-2.77199e-10
3.32768e-10
-3.34669e-10
2.71024e-10
-4.17462e-10
3.83754e-10
-4.45434e-10
1.40562e-10
-4.77721e-10
1.72075e-10
-4.02425e-10
-3.16049e-10
-3.00673e-10
-4.14077e-10
-1.25255e-10
-7.91857e-10
1.32836e-11
-6.39149e-10
1.18602e-10
-5.32294e-10
1.72351e-10
-2.92483e-10
1.82239e-10
-8.22598e-11
1.74991e-10
1.01229e-11
1.47364e-10
1.17252e-10
1.21471e-10
1.14136e-10
9.11921e-11
1.40293e-10
6.68405e-11
1.13255e-10
4.54409e-11
1.01188e-10
2.9484e-11
7.56697e-11
1.79216e-11
5.51171e-11
3.58979e-11
1.017e-11
-1.23646e-12
6.54391e-12
-5.57926e-12
2.34931e-11
-1.39389e-11
4.57541e-11
-2.76595e-11
7.4731e-11
-4.72809e-11
1.07748e-10
-7.59837e-11
1.55555e-10
-1.11254e-10
1.94043e-10
-1.61854e-10
2.72131e-10
-2.14253e-10
2.88418e-10
-2.91149e-10
4.09647e-10
-3.51618e-10
3.31478e-10
-4.40202e-10
4.72316e-10
-4.70072e-10
1.70431e-10
-5.02683e-10
2.04679e-10
-4.20626e-10
-3.98106e-10
-3.0566e-10
-5.29039e-10
-1.18872e-10
-9.78636e-10
2.58825e-11
-7.83892e-10
1.29639e-10
-6.36041e-10
1.80057e-10
-3.42888e-10
1.86035e-10
-8.82314e-11
1.76512e-10
1.96534e-11
1.47644e-10
1.46121e-10
1.21213e-10
1.4057e-10
9.08192e-11
1.70684e-10
6.64621e-11
1.37613e-10
4.51477e-11
1.225e-10
2.92696e-11
9.15493e-11
1.77873e-11
6.65978e-11
4.35941e-11
1.00924e-11
-1.32315e-12
7.86622e-12
-5.91968e-12
2.80868e-11
-1.47222e-11
5.45526e-11
-2.9208e-11
8.92107e-11
-4.97755e-11
1.2831e-10
-8.00994e-11
1.85875e-10
-1.16985e-10
2.30918e-10
-1.70726e-10
3.25857e-10
-2.25657e-10
3.43338e-10
-3.08227e-10
4.922e-10
-3.72498e-10
3.95735e-10
-4.6833e-10
5.68129e-10
-5.00746e-10
2.02848e-10
-5.33649e-10
2.37575e-10
-4.43108e-10
-4.88647e-10
-3.11292e-10
-6.60849e-10
-1.10356e-10
-1.17956e-09
4.18844e-11
-9.36119e-10
1.43228e-10
-7.37375e-10
1.89331e-10
-3.88977e-10
1.90515e-10
-8.94087e-11
1.78257e-10
3.19187e-11
1.47932e-10
1.76446e-10
1.20878e-10
1.67629e-10
9.0358e-11
2.01201e-10
6.60019e-11
1.61971e-10
4.47937e-11
1.43705e-10
2.90104e-11
1.07334e-10
1.7627e-11
7.79796e-11
5.12339e-11
9.98837e-12
-1.50764e-12
9.37302e-12
-6.4422e-12
3.30188e-11
-1.57066e-11
6.38136e-11
-3.10901e-11
1.04589e-10
-5.2756e-11
1.49971e-10
-8.49691e-11
2.18086e-10
-1.2367e-10
2.6961e-10
-1.8115e-10
3.83322e-10
-2.39115e-10
4.01292e-10
-3.28517e-10
5.81587e-10
-3.9753e-10
4.64734e-10
-5.0224e-10
6.72821e-10
-5.38079e-10
2.38691e-10
-5.71229e-10
2.70721e-10
-4.70289e-10
-5.89583e-10
-3.17379e-10
-8.13751e-10
-9.9229e-11
-1.3977e-09
6.16771e-11
-1.09701e-09
1.59536e-10
-8.35225e-10
2.00173e-10
-4.29599e-10
1.95638e-10
-8.48667e-11
1.80191e-10
4.73732e-11
1.48213e-10
2.08425e-10
1.20459e-10
1.95386e-10
8.98069e-11
2.31851e-10
6.54592e-11
1.8632e-10
4.43787e-11
1.64783e-10
2.8707e-11
1.23007e-10
1.74383e-11
8.92466e-11
5.87858e-11
9.88769e-12
-1.60559e-12
1.09779e-11
-6.9211e-12
3.8332e-11
-1.67991e-11
7.36887e-11
-3.32624e-11
1.21048e-10
-5.62106e-11
1.72915e-10
-9.05635e-11
2.52437e-10
-1.3133e-10
3.1037e-10
-1.93174e-10
4.45153e-10
-2.54631e-10
4.62742e-10
-3.52096e-10
6.79038e-10
-4.26944e-10
5.39571e-10
-5.42387e-10
7.88247e-10
-5.82799e-10
2.7911e-10
-6.16088e-10
3.04008e-10
-5.02635e-10
-7.03031e-10
-3.23655e-10
-9.92721e-10
-8.48954e-11
-1.63645e-09
8.57339e-11
-1.26762e-09
1.78729e-10
-9.28209e-10
2.12542e-10
-4.63397e-10
2.01324e-10
-7.36417e-11
1.82248e-10
6.64562e-11
1.48449e-10
2.42226e-10
1.19937e-10
2.23902e-10
8.91546e-11
2.62631e-10
6.48271e-11
2.10649e-10
4.38986e-11
1.85709e-10
2.83572e-11
1.3855e-10
1.7219e-11
1.00383e-10
6.62512e-11
9.75472e-12
-1.71068e-12
1.26879e-11
-7.4828e-12
4.4102e-11
-1.81063e-11
8.43087e-11
-3.60057e-11
1.38942e-10
-6.02455e-11
1.97151e-10
-9.71444e-11
2.89337e-10
-1.40054e-10
3.53272e-10
-2.06781e-10
5.11866e-10
-2.72234e-10
5.28188e-10
-3.79063e-10
7.85854e-10
-4.61066e-10
6.21564e-10
-5.89397e-10
9.16562e-10
-6.35902e-10
3.25625e-10
-6.69205e-10
3.3731e-10
-5.40916e-10
-8.31314e-10
-3.29841e-10
-1.20378e-09
-6.66505e-11
-1.89962e-09
1.14639e-10
-1.44889e-09
2.01021e-10
-1.01458e-09
2.26416e-10
-4.88777e-10
2.07514e-10
-5.47332e-11
1.8439e-10
8.95884e-11
1.48628e-10
2.77989e-10
1.1931e-10
2.53223e-10
8.84056e-11
2.93533e-10
6.41106e-11
2.34946e-10
4.33569e-11
2.0646e-10
2.79641e-11
1.53944e-10
1.69703e-11
1.11376e-10
7.36193e-11
9.60337e-12
-1.91557e-12
1.46029e-11
-8.45027e-12
5.06348e-11
-2.02781e-11
9.6135e-11
-3.95767e-11
1.58238e-10
-6.50655e-11
2.22639e-10
-1.03629e-10
3.27905e-10
-1.49012e-10
3.9865e-10
-2.21765e-10
5.84606e-10
-2.91756e-10
5.98173e-10
-4.09444e-10
9.0353e-10
-5.00237e-10
7.12348e-10
-6.43999e-10
1.06031e-09
-6.98582e-10
3.80222e-10
-7.31691e-10
3.7042e-10
-5.86304e-10
-9.76691e-10
-3.35536e-10
-1.45454e-09
-4.36459e-11
-2.1915e-09
1.49086e-10
-1.64161e-09
2.26635e-10
-1.09212e-09
2.41732e-10
-5.03858e-10
2.14113e-10
-2.71076e-11
1.86549e-10
1.1716e-10
1.4872e-10
3.15819e-10
1.18568e-10
2.83378e-10
8.75562e-11
3.24543e-10
6.33085e-11
2.59195e-10
4.27536e-11
2.27012e-10
2.75277e-11
1.69171e-10
1.66925e-11
1.22209e-10
8.08807e-11
9.43218e-12
-2.00787e-12
1.66102e-11
-8.92175e-12
5.75466e-11
-2.08683e-11
1.0808e-10
-4.21636e-11
1.79532e-10
-6.82331e-11
2.48708e-10
-1.12276e-10
3.71951e-10
-1.60306e-10
4.46675e-10
-2.39155e-10
6.63443e-10
-3.14166e-10
6.7318e-10
-4.43259e-10
1.03261e-09
-5.44816e-10
8.13898e-10
-7.06969e-10
1.22245e-09
-7.72193e-10
4.45464e-10
-8.04869e-10
4.03098e-10
-6.41196e-10
-1.14035e-09
-3.40212e-10
-1.75551e-09
-1.50275e-11
-2.51667e-09
1.89876e-10
-1.84649e-09
2.55779e-10
-1.15801e-09
2.5837e-10
-5.06434e-10
2.20986e-10
1.02844e-11
1.88635e-10
1.49519e-10
1.48677e-10
3.55778e-10
1.17687e-10
3.14372e-10
8.65947e-11
3.55633e-10
6.24144e-11
2.83377e-10
4.20844e-11
2.4734e-10
2.70457e-11
1.84211e-10
1.63846e-11
1.32869e-10
8.80243e-11
9.242e-12
-2.47068e-12
1.90804e-11
-1.16883e-11
6.67623e-11
-2.64482e-11
1.22839e-10
-4.83101e-11
2.01392e-10
-7.662e-11
2.77015e-10
-1.18326e-10
4.13659e-10
-1.69653e-10
4.97997e-10
-2.55686e-10
7.49465e-10
-3.35635e-10
7.53126e-10
-4.80204e-10
1.17717e-09
-5.95068e-10
9.28756e-10
-7.79428e-10
1.40679e-09
-8.58442e-10
5.24499e-10
-8.90339e-10
4.34998e-10
-7.02601e-10
-1.32808e-09
-3.43252e-10
-2.11484e-09
2.28545e-11
-2.88276e-09
2.37986e-10
-2.0616e-09
2.88711e-10
-1.20873e-09
2.76219e-10
-4.93927e-10
2.28006e-10
5.85053e-11
1.90577e-10
1.86955e-10
1.48478e-10
3.97879e-10
1.16663e-10
3.46191e-10
8.5525e-11
3.86769e-10
6.14333e-11
3.0747e-10
4.13533e-11
2.67417e-10
2.6521e-11
1.99045e-10
1.60486e-11
1.4334e-10
9.50439e-11
9.03001e-12
-2.70405e-12
2.17841e-11
-1.02039e-11
7.42598e-11
-2.0679e-11
1.33312e-10
-4.92551e-11
2.29964e-10
-7.61088e-11
3.03865e-10
-1.31537e-10
4.6909e-10
-1.84072e-10
5.50528e-10
-2.7753e-10
8.42911e-10
-3.65481e-10
8.41075e-10
-5.20325e-10
1.33201e-09
-6.52143e-10
1.06057e-09
-8.62292e-10
1.61693e-09
-9.59515e-10
6.21746e-10
-9.90304e-10
4.65793e-10
-7.73055e-10
-1.54531e-09
-3.4384e-10
-2.54403e-09
7.12506e-11
-3.29783e-09
2.94623e-10
-2.28494e-09
3.25628e-10
-1.23972e-09
2.95094e-10
-4.63379e-10
2.35002e-10
1.18605e-10
1.92284e-10
2.29681e-10
1.48085e-10
4.42079e-10
1.15482e-10
3.78798e-10
8.43429e-11
4.17905e-10
6.03643e-11
3.3145e-10
4.05605e-11
2.87219e-10
2.59538e-11
2.13653e-10
1.56854e-11
1.53607e-10
1.01936e-10
8.79394e-12
-2.69217e-12
2.4476e-11
-2.20727e-11
9.36373e-11
-4.54499e-11
1.56687e-10
-6.64424e-11
2.50951e-10
-9.51597e-11
3.32581e-10
-1.33125e-10
5.07062e-10
-1.90592e-10
6.07989e-10
-2.91908e-10
9.44213e-10
-3.87508e-10
9.36672e-10
-5.6044e-10
1.50493e-09
-7.1327e-10
1.21339e-09
-9.57284e-10
1.86093e-09
-1.07736e-09
7.41854e-10
-1.10675e-09
4.95181e-10
-8.54164e-10
-1.79788e-09
-3.40888e-10
-3.05729e-09
1.3132e-10
-3.77002e-09
3.61134e-10
-2.51473e-09
3.6667e-10
-1.24525e-09
3.14715e-10
-4.11409e-10
2.41748e-10
1.91579e-10
1.93638e-10
2.77799e-10
1.47447e-10
4.88271e-10
1.1412e-10
4.12129e-10
8.30367e-11
4.48987e-10
5.92018e-11
3.55286e-10
3.97027e-11
3.06716e-10
2.53424e-11
2.28014e-10
1.52948e-11
1.63654e-10
1.08692e-10
8.53989e-12
-9.66777e-12
3.41422e-11
-1.75513e-11
1.01517e-10
-1.10624e-11
1.50195e-10
-5.833e-11
2.98213e-10
-8.3373e-11
3.5762e-10
-1.52281e-10
5.75974e-10
-2.0991e-10
6.65611e-10
-3.18826e-10
1.05311e-09
-4.27065e-10
1.04491e-09
-6.0808e-10
1.68593e-09
-7.86139e-10
1.39145e-09
-1.06556e-09
2.14033e-09
-1.21654e-09
8.92871e-10
-1.24375e-09
5.22395e-10
-9.48526e-10
-2.09308e-09
-3.33188e-10
-3.6726e-09
2.05988e-10
-4.30918e-09
4.39197e-10
-2.74792e-09
4.11993e-10
-1.21803e-09
3.34774e-10
-3.34177e-10
2.48021e-10
2.7834e-10
1.94545e-10
3.31281e-10
1.46542e-10
5.36276e-10
1.12575e-10
4.46099e-10
8.16101e-11
4.79951e-10
5.79512e-11
3.78946e-10
3.87843e-11
3.25881e-10
2.46894e-11
2.4211e-10
1.48788e-11
1.73463e-10
1.15295e-10
8.27649e-12
7.87446e-12
2.62691e-11
-4.69068e-11
1.56295e-10
-1.07799e-10
2.11082e-10
-9.38439e-11
2.84251e-10
-1.09671e-10
3.73447e-10
-1.3659e-10
6.02901e-10
-2.03114e-10
7.32125e-10
-3.33671e-10
1.18365e-09
-4.44112e-10
1.15534e-09
-6.53547e-10
1.89535e-09
-8.53963e-10
1.59186e-09
-1.19025e-09
2.4766e-09
-1.37779e-09
1.08044e-09
-1.40222e-09
5.46837e-10
-1.0568e-09
-2.43849e-09
-3.18773e-10
-4.41061e-09
2.99004e-10
-4.92695e-09
5.30938e-10
-2.97982e-09
4.61665e-10
-1.14875e-09
3.54844e-10
-2.27342e-10
2.53539e-10
3.79651e-10
1.94886e-10
3.89941e-10
1.45331e-10
5.85832e-10
1.10835e-10
4.80599e-10
8.00594e-11
5.10725e-10
5.66119e-11
4.02395e-10
3.78056e-11
3.44685e-10
2.39956e-11
2.55921e-10
1.44383e-11
1.83019e-10
1.21729e-10
8.00522e-12
-3.73733e-11
6.36378e-11
-8.16936e-11
2.00604e-10
-1.24641e-11
1.41849e-10
-8.9199e-11
3.6097e-10
-1.12215e-10
3.96451e-10
-1.7003e-10
6.607e-10
-2.42205e-10
8.04293e-10
-3.56001e-10
1.29742e-09
-4.95201e-10
1.29453e-09
-7.10219e-10
2.11036e-09
-9.4874e-10
1.83037e-09
-1.33427e-09
2.86211e-09
-1.57338e-09
1.3196e-09
-1.59234e-09
5.658e-10
-1.1845e-09
-2.84632e-09
-2.96153e-10
-5.29893e-09
4.13886e-10
-5.63697e-09
6.3908e-10
-3.20498e-09
5.15526e-10
-1.02519e-09
3.74303e-10
-8.6108e-11
2.57946e-10
4.96015e-10
1.94513e-10
4.5338e-10
1.43764e-10
6.36582e-10
1.0888e-10
5.15486e-10
7.83743e-11
5.4123e-10
5.51784e-11
4.25592e-10
3.67637e-11
3.63098e-10
2.32593e-11
2.69426e-10
1.39724e-11
1.92305e-10
1.27978e-10
7.7238e-12
-3.09327e-11
9.4563e-11
-8.39699e-11
2.53636e-10
-1.59932e-10
2.17807e-10
-1.16404e-11
2.12661e-10
-1.77558e-11
4.0256e-10
-1.09016e-10
7.51982e-10
-1.78468e-10
8.73705e-10
-3.93895e-10
1.51279e-09
-5.07558e-10
1.40819e-09
-7.54773e-10
2.35755e-09
-1.01027e-09
2.08585e-09
-1.4945e-09
3.34631e-09
-1.79476e-09
1.6199e-09
-1.80459e-09
5.75631e-10
-1.32848e-09
-3.32241e-09
-2.60802e-10
-6.36659e-09
5.57599e-10
-6.45536e-09
7.66583e-10
-3.41394e-09
5.73524e-10
-8.32128e-10
3.9251e-10
9.49166e-11
2.60894e-10
6.27637e-10
1.93314e-10
5.20966e-10
1.41821e-10
6.88076e-10
1.06712e-10
5.50598e-10
7.65595e-11
5.71381e-10
5.36552e-11
4.48497e-10
3.56623e-11
3.8109e-10
2.24838e-11
2.82606e-10
1.34825e-11
2.01306e-10
1.34031e-10
7.43094e-12
-3.65157e-11
1.31083e-10
-2.79847e-10
4.96862e-10
-3.15563e-10
2.52927e-10
-1.86888e-10
8.39509e-11
-1.89024e-10
4.04698e-10
-1.95574e-10
7.58557e-10
-3.12811e-10
9.90916e-10
-3.85676e-10
1.58563e-09
-5.74943e-10
1.59745e-09
-8.1619e-10
2.59876e-09
-1.14289e-09
2.41253e-09
-1.69421e-09
3.89761e-09
-2.08192e-09
2.00766e-09
-2.07436e-09
5.6807e-10
-1.50348e-09
-3.89327e-09
-2.12801e-10
-7.65724e-09
7.32338e-10
-7.40049e-09
9.11902e-10
-3.59347e-09
6.34348e-10
-5.54569e-10
4.08312e-10
3.20961e-10
2.61881e-10
7.74074e-10
1.91158e-10
5.91695e-10
1.39474e-10
7.39761e-10
1.04325e-10
5.85751e-10
7.46133e-11
6.01091e-10
5.2042e-11
4.7107e-10
3.45017e-11
3.98629e-10
2.16696e-11
2.95438e-10
1.29674e-11
2.10007e-10
1.39874e-10
7.12488e-12
6.64567e-11
6.46456e-11
1.90764e-10
3.72548e-10
7.12259e-10
-2.68792e-10
4.91991e-10
3.04895e-10
3.268e-10
5.69871e-10
2.15551e-10
8.69855e-10
-1.70156e-10
1.37671e-09
-4.84557e-10
1.90007e-09
-5.96404e-10
1.70933e-09
-8.26077e-10
2.82845e-09
-1.15848e-09
2.74492e-09
-1.87668e-09
4.61576e-09
-2.38523e-09
2.51627e-09
-2.37161e-09
5.54445e-10
-1.69499e-09
-4.56988e-09
-1.40752e-10
-9.21146e-09
9.53815e-10
-8.49505e-09
1.08501e-09
-3.72463e-09
7.00263e-10
-1.6982e-10
4.21076e-10
6.00155e-10
2.60455e-10
9.347e-10
1.87906e-10
6.64248e-10
1.3669e-10
7.90977e-10
1.01707e-10
6.20737e-10
7.25289e-11
6.30268e-10
5.03349e-11
4.93265e-10
3.32797e-11
4.15683e-10
2.08157e-11
3.07903e-10
1.24254e-11
2.18397e-10
1.45499e-10
6.80108e-12
6.83212e-11
-3.68474e-12
3.27734e-10
1.13179e-10
2.26661e-10
-1.66192e-10
-1.9491e-10
7.26623e-10
-5.77932e-10
9.52924e-10
-2.81572e-10
5.73626e-10
6.83596e-11
1.02682e-09
-4.27067e-10
2.3955e-09
-6.20891e-10
1.90318e-09
-9.11713e-10
3.11928e-09
-1.35625e-09
3.18948e-09
-2.17786e-09
5.4373e-09
-2.81867e-09
3.15714e-09
-2.76323e-09
4.99e-10
-1.93566e-09
-5.39744e-09
-4.77044e-11
-1.10994e-08
1.21699e-09
-9.75974e-09
1.27535e-09
-3.78296e-09
7.60991e-10
3.44543e-10
4.27585e-10
9.33566e-10
2.5594e-10
1.10635e-09
1.83457e-10
7.36734e-10
1.33471e-10
8.40965e-10
9.88666e-11
6.55344e-10
7.0314e-11
6.58819e-10
4.85399e-11
5.1504e-10
3.20001e-11
4.32221e-10
1.99252e-11
3.19979e-10
1.18613e-11
2.2646e-10
1.50892e-10
6.46809e-12
-8.51223e-11
8.13297e-11
2.3539e-10
-2.08427e-10
5.65946e-10
-4.97589e-10
5.7119e-10
7.22363e-10
1.91849e-10
1.33225e-09
-2.44724e-10
1.01026e-09
-7.04414e-10
1.48651e-09
-1.04608e-09
2.7371e-09
-8.34557e-10
1.69167e-09
-7.77897e-10
3.06261e-09
-1.23208e-09
3.64369e-09
-2.34017e-09
6.5454e-09
-3.23529e-09
4.0523e-09
-3.18376e-09
4.47453e-10
-2.19448e-09
-6.3867e-09
7.50001e-11
-1.33688e-08
1.55816e-09
-1.12429e-08
1.51702e-09
-3.74178e-09
8.33998e-10
1.02757e-09
4.29883e-10
1.33768e-09
2.47977e-10
1.28826e-09
1.77742e-10
8.06972e-10
1.29822e-10
8.88886e-10
9.58102e-11
6.89357e-10
6.79714e-11
6.86658e-10
4.66589e-11
5.36353e-10
3.06642e-11
4.48215e-10
1.89984e-11
3.31645e-10
1.12722e-11
2.34186e-10
1.5605e-10
6.11459e-12
-8.92455e-11
1.7048e-10
-1.11984e-10
-1.84198e-10
-1.48992e-10
-4.6142e-10
-1.4265e-10
7.13188e-10
4.32653e-10
7.55331e-10
-2.28676e-11
1.46576e-09
1.52666e-10
1.31097e-09
3.95042e-10
2.49473e-09
-9.38855e-10
3.0256e-09
-8.46402e-10
2.97011e-09
-1.54209e-09
4.33936e-09
-2.81647e-09
7.81973e-09
-3.90818e-09
5.14412e-09
-3.75043e-09
2.89674e-10
-2.52476e-09
-7.61237e-09
2.18613e-10
-1.61122e-08
1.95068e-09
-1.2975e-08
1.76117e-09
-3.55223e-09
8.73369e-10
1.91537e-09
4.18183e-10
1.79287e-09
2.35407e-10
1.47104e-09
1.70619e-10
8.71762e-10
1.25728e-10
9.33779e-10
9.25176e-11
7.22569e-10
6.54844e-11
7.1369e-10
4.46804e-11
5.57157e-10
2.92646e-11
4.6363e-10
1.80322e-11
3.42878e-10
1.06647e-11
2.41553e-10
1.60954e-10
5.76173e-12
3.29586e-11
1.37159e-10
-3.57839e-10
2.07247e-10
-2.69784e-10
-5.5178e-10
-8.46005e-11
5.26094e-10
-1.03859e-09
1.7083e-09
-1.74762e-09
2.17496e-09
-1.59008e-09
1.15343e-09
-6.71032e-10
1.57565e-09
-5.15749e-10
2.87032e-09
-5.55697e-10
3.01e-09
-9.96507e-10
4.78015e-09
-2.90568e-09
9.72883e-09
-4.5028e-09
6.74135e-09
-4.3863e-09
1.73153e-10
-2.88471e-09
-9.11396e-09
4.26821e-10
-1.94237e-08
2.4716e-09
-1.50198e-08
2.10127e-09
-3.18186e-09
9.51243e-10
3.0654e-09
4.03903e-10
2.34021e-09
2.18791e-10
1.65616e-09
1.62267e-10
9.28288e-10
1.21324e-10
9.74723e-10
8.90941e-11
7.54801e-10
6.29196e-11
7.39864e-10
4.26553e-11
5.77422e-10
2.78361e-11
4.78448e-10
1.70478e-11
3.53667e-10
1.00401e-11
2.4856e-10
1.65609e-10
5.385e-12
-4.06896e-11
1.77779e-10
3.54082e-10
-1.87651e-10
1.00651e-09
-1.204e-09
1.16462e-09
3.70554e-10
-4.11084e-10
3.28472e-09
-1.447e-09
3.21099e-09
-1.43098e-09
1.1374e-09
-1.28201e-09
1.4266e-09
-6.3098e-10
2.2193e-09
-9.22986e-10
3.30198e-09
-1.54459e-09
5.40174e-09
-3.69851e-09
1.18827e-08
-5.5614e-09
8.60435e-09
-5.14266e-09
-2.4561e-10
-3.32201e-09
-1.09346e-08
6.74016e-10
-2.34197e-08
3.06165e-09
-1.74074e-08
2.41661e-09
-2.53677e-09
9.58901e-10
4.5231e-09
3.56451e-10
2.94266e-09
1.94515e-10
1.81809e-09
1.52292e-10
9.70512e-10
1.16456e-10
1.01056e-09
8.53191e-11
7.85939e-10
6.01056e-11
7.65077e-10
4.0444e-11
5.97084e-10
2.62808e-11
4.92611e-10
1.59814e-11
3.63967e-10
9.37447e-12
2.55167e-10
1.69979e-10
5.00484e-12
2.41361e-10
-6.50428e-11
4.78781e-10
-4.26076e-10
4.72713e-10
-1.19773e-09
2.48899e-10
5.94898e-10
4.18136e-10
3.11783e-09
5.82943e-10
3.04581e-09
1.93333e-10
1.52702e-09
1.69088e-09
-7.09084e-11
5.5421e-10
3.35596e-09
1.20402e-10
3.73576e-09
-8.17307e-11
5.60387e-09
-3.59695e-09
1.53978e-08
-6.43166e-09
1.14392e-08
-6.12013e-09
-5.57169e-10
-3.79459e-09
-1.32602e-08
1.0229e-09
-2.82372e-08
3.82879e-09
-2.02133e-08
2.87515e-09
-1.58307e-09
1.0378e-09
6.36045e-09
3.21722e-10
3.65875e-09
1.6913e-10
1.97069e-09
1.41904e-10
9.97739e-10
1.11706e-10
1.04076e-09
8.17825e-11
8.15864e-10
5.74764e-11
7.89382e-10
3.83997e-11
6.16161e-10
2.48498e-11
5.0616e-10
1.50025e-11
3.73814e-10
8.75261e-12
2.61416e-10
1.74103e-10
4.62834e-12
8.50497e-10
-5.96042e-10
7.85615e-10
-2.69207e-10
9.56391e-10
-1.37356e-09
1.43073e-09
1.22702e-10
6.71161e-10
3.87618e-09
-2.10386e-10
3.92728e-09
-1.40535e-09
2.72202e-09
-2.053e-09
5.76437e-10
-1.51834e-09
2.82132e-09
-2.23107e-10
2.44051e-09
-2.15844e-09
7.53917e-09
-5.21661e-09
1.84559e-08
-7.70288e-09
1.39255e-08
-6.74991e-09
-1.51016e-09
-3.99193e-09
-1.60182e-08
1.5092e-09
-3.37383e-08
4.75267e-09
-2.34568e-08
3.32232e-09
-1.5265e-10
9.77544e-10
8.70522e-09
2.07111e-10
4.42918e-09
1.26103e-10
2.05169e-09
1.29631e-10
9.94211e-10
1.06679e-10
1.06371e-09
7.76823e-11
8.44862e-10
5.43619e-11
8.12702e-10
3.59307e-11
6.34593e-10
2.31064e-11
5.18984e-10
1.38054e-11
3.83115e-10
8.00673e-12
2.67215e-10
1.77914e-10
4.19652e-12
8.92334e-11
-6.87919e-10
6.19671e-10
-7.04222e-10
5.24222e-10
-1.321e-09
3.93586e-10
2.56622e-10
2.80997e-10
3.99363e-09
1.46133e-09
2.74694e-09
3.92014e-09
2.63164e-10
3.11067e-09
1.38599e-09
3.7649e-09
2.16709e-09
4.32833e-09
1.8774e-09
9.60184e-10
1.09074e-08
-3.76225e-09
1.67281e-08
-7.10527e-09
5.5017e-09
-6.45656e-09
-1.17731e-09
-3.28286e-09
-1.0468e-08
2.53447e-09
-3.83453e-08
5.81711e-09
-2.67395e-08
3.84724e-09
1.8173e-09
1.03193e-09
1.15205e-08
1.63783e-10
5.29733e-09
1.07235e-10
2.10824e-09
1.27444e-10
9.74002e-10
1.08303e-10
1.08285e-09
7.89092e-11
8.74256e-10
5.50777e-11
8.36534e-10
3.61481e-11
6.53523e-10
2.31256e-11
5.32007e-10
1.36994e-11
3.92542e-10
7.90965e-12
2.73005e-10
1.81783e-10
4.04008e-12
-4.02873e-10
-2.90512e-10
3.6439e-10
-1.75172e-09
1.10459e-10
-4.34708e-10
-2.93363e-09
1.31694e-09
-2.24935e-09
3.31342e-09
1.21855e-09
-3.94773e-10
2.39644e-09
-3.93593e-10
3.49204e-09
2.0634e-10
4.32968e-09
6.41577e-10
4.98545e-09
3.98182e-10
1.51552e-08
-2.09388e-10
1.68722e-08
1.48804e-09
1.43599e-09
-4.3075e-10
-1.21483e-09
9.99275e-13
-1.08749e-09
-7.54139e-11
5.92636e-09
-1.59091e-08
7.54599e-09
-1.95751e-08
4.46093e-09
4.90245e-09
9.42314e-10
1.50391e-08
4.97138e-11
6.18994e-09
1.27462e-10
2.03049e-09
1.96124e-10
9.05339e-10
1.67199e-10
1.11178e-09
1.22557e-10
9.18897e-10
8.55236e-11
8.73566e-10
5.64523e-11
6.82593e-10
3.57983e-11
5.52659e-10
2.12021e-11
4.07137e-10
1.20965e-11
2.82109e-10
6.31178e-12
1.87567e-10
6.62617e-12
1.00515e-12
6.36834e-12
2.59092e-13
5.73486e-12
6.32639e-13
4.36213e-12
1.37335e-12
3.26982e-12
1.09199e-12
2.72265e-12
5.47402e-13
2.2388e-12
4.83745e-13
1.81652e-12
4.22377e-13
1.40932e-12
4.0717e-13
1.23469e-12
1.74666e-13
1.07745e-12
1.57236e-13
7.80391e-13
2.97072e-13
5.35205e-13
2.45178e-13
4.23721e-13
1.11473e-13
3.19245e-13
1.04452e-13
2.92861e-13
2.6355e-14
1.84588e-13
1.08238e-13
1.42073e-13
4.24772e-14
2.3353e-13
-9.1495e-14
1.68042e-13
6.54519e-14
1.17129e-13
5.08818e-14
1.09694e-13
7.40949e-15
6.92196e-14
4.04552e-14
6.01143e-14
9.09322e-15
7.81936e-14
-1.80845e-14
3.04896e-14
4.77047e-14
-7.09114e-14
1.01407e-13
6.45937e-14
-1.35496e-13
1.51993e-13
-8.73857e-14
1.52007e-13
8.40128e-12
2.58089e-12
7.64504e-12
1.01713e-12
6.09435e-12
2.18225e-12
4.37555e-12
3.09293e-12
3.66753e-12
1.79962e-12
3.00747e-12
1.20776e-12
2.43824e-12
1.05287e-12
2.04467e-12
8.16054e-13
1.63635e-12
8.15471e-13
1.45075e-12
3.6031e-13
1.25234e-12
3.55639e-13
7.71228e-13
7.78178e-13
5.49047e-13
4.6733e-13
5.3828e-13
1.22201e-13
4.35491e-13
2.07184e-13
3.4518e-13
1.16602e-13
2.90578e-13
1.6277e-13
2.35298e-13
9.76864e-14
2.1262e-13
-6.88833e-14
2.00843e-13
7.71701e-14
1.65487e-13
8.61903e-14
1.45141e-13
2.77192e-14
1.44076e-13
4.14975e-14
1.51311e-13
1.84777e-15
1.15353e-13
1.7875e-14
9.94724e-14
6.35951e-14
4.40476e-14
1.56851e-13
3.1734e-14
-1.2316e-13
-1.30145e-14
-4.26089e-14
1.39005e-13
9.80602e-12
4.78711e-12
6.04266e-12
4.78222e-12
4.41824e-12
3.80565e-12
4.12001e-12
3.39191e-12
3.66651e-12
2.25276e-12
3.00173e-12
1.87281e-12
2.43519e-12
1.6193e-12
2.14407e-12
1.10728e-12
1.83405e-12
1.12547e-12
1.26624e-12
9.28162e-13
8.11227e-13
8.1064e-13
7.61686e-13
8.27717e-13
6.78487e-13
5.50501e-13
5.76164e-13
2.24487e-13
4.5488e-13
3.28415e-13
3.29195e-13
2.42226e-13
3.38658e-13
1.53241e-13
2.77607e-13
1.58671e-13
1.15515e-13
9.31457e-14
1.33893e-13
5.87374e-14
1.83987e-13
3.60505e-14
1.62269e-13
4.94032e-14
2.01523e-13
2.22296e-15
2.26872e-13
-2.35124e-14
1.13572e-13
1.31176e-13
1.12331e-13
6.4845e-14
5.6621e-14
2.12579e-13
-6.95473e-14
3.02946e-15
-1.22335e-13
1.02057e-14
1.66814e-14
8.61265e-12
6.67698e-12
6.64219e-12
6.75434e-12
5.44705e-12
4.99984e-12
4.55557e-12
4.28407e-12
3.75568e-12
3.05232e-12
3.01935e-12
2.60939e-12
2.43385e-12
2.2047e-12
2.01557e-12
1.52567e-12
1.64919e-12
1.49183e-12
1.24237e-12
1.33502e-12
9.44064e-13
1.10894e-12
7.97927e-13
9.73851e-13
6.90292e-13
6.5811e-13
6.14333e-13
3.00412e-13
4.76112e-13
4.66585e-13
3.75739e-13
3.42541e-13
3.27203e-13
2.01714e-13
2.56755e-13
2.29056e-13
2.02988e-13
1.46853e-13
1.86118e-13
7.55542e-14
1.76349e-13
4.57766e-14
1.5993e-13
6.57895e-14
1.5332e-13
8.81283e-15
1.48139e-13
-1.83417e-14
1.19938e-13
1.59378e-13
1.19718e-13
6.50737e-14
6.43154e-14
2.67999e-13
3.82221e-14
2.91424e-14
-3.46871e-14
8.31402e-14
-1.79944e-14
8.36982e-12
8.47555e-12
6.76017e-12
8.36558e-12
5.62569e-12
6.13342e-12
4.60495e-12
5.30545e-12
3.72268e-12
3.93429e-12
2.99574e-12
3.33657e-12
2.42618e-12
2.77418e-12
1.95554e-12
1.9964e-12
1.58008e-12
1.86728e-12
1.2535e-12
1.66162e-12
9.75589e-13
1.38684e-12
8.18336e-13
1.1311e-12
7.42469e-13
7.33951e-13
6.0415e-13
4.38697e-13
4.57631e-13
6.13054e-13
3.74851e-13
4.25264e-13
3.10581e-13
2.65924e-13
2.44943e-13
2.94632e-13
2.09306e-13
1.82432e-13
1.89399e-13
9.54101e-14
1.69404e-13
6.57301e-14
1.58443e-13
7.6719e-14
1.43446e-13
2.37901e-14
1.24481e-13
6.12892e-16
1.17005e-13
1.66855e-13
1.18737e-13
6.33492e-14
7.59818e-14
3.10771e-13
8.25423e-14
2.26006e-14
-2.93907e-14
1.95098e-13
-4.73743e-14
8.32386e-12
1.02426e-11
6.72343e-12
9.96753e-12
5.56254e-12
7.29347e-12
4.57364e-12
6.29495e-12
3.67231e-12
4.83533e-12
2.96634e-12
4.04276e-12
2.41172e-12
3.32872e-12
1.89147e-12
2.51675e-12
1.52326e-12
2.23547e-12
1.23427e-12
1.95064e-12
9.93524e-13
1.62759e-12
8.70919e-13
1.2537e-12
7.60276e-13
8.4457e-13
5.60774e-13
6.38166e-13
4.39519e-13
7.34261e-13
3.7132e-13
4.93409e-13
3.06973e-13
3.30211e-13
2.60121e-13
3.41424e-13
2.19881e-13
2.22615e-13
1.90698e-13
1.24543e-13
1.68086e-13
8.83007e-14
1.57348e-13
8.74266e-14
1.43771e-13
3.73478e-14
1.20772e-13
2.36013e-14
1.12995e-13
1.74633e-13
1.14037e-13
6.23159e-14
9.58417e-14
3.28981e-13
1.05247e-13
1.32127e-14
-6.55732e-14
3.65942e-13
-1.12937e-13
8.24717e-12
1.19823e-11
6.70234e-12
1.15138e-11
5.48531e-12
8.50969e-12
4.48641e-12
7.29442e-12
3.59788e-12
5.7236e-12
2.93498e-12
4.70586e-12
2.39518e-12
3.86845e-12
1.8338e-12
3.07821e-12
1.47021e-12
2.59906e-12
1.20862e-12
2.21226e-12
1.01697e-12
1.81923e-12
8.87936e-13
1.38273e-12
7.4162e-13
9.90862e-13
5.3496e-13
8.44792e-13
4.31418e-13
8.37757e-13
3.6029e-13
5.64483e-13
2.89653e-13
4.0079e-13
2.5513e-13
3.75888e-13
2.19718e-13
2.57972e-13
1.83642e-13
1.6057e-13
1.56808e-13
1.15095e-13
1.47396e-13
9.68079e-14
1.42728e-13
4.19963e-14
1.28585e-13
3.77348e-14
1.31016e-13
1.72202e-13
1.29578e-13
6.37614e-14
1.27851e-13
3.30723e-13
1.45831e-13
-4.7503e-15
-9.65014e-14
6.08297e-13
-2.09429e-13
8.16773e-12
1.37008e-11
6.63787e-12
1.30451e-11
5.37577e-12
9.77104e-12
4.38753e-12
8.28318e-12
3.52324e-12
6.58765e-12
2.86875e-12
5.36055e-12
2.3493e-12
4.38783e-12
1.85822e-12
3.56936e-12
1.47154e-12
2.98572e-12
1.18313e-12
2.5007e-12
1.05292e-12
1.94943e-12
8.89216e-13
1.54644e-12
7.03357e-13
1.1767e-12
5.28324e-13
1.01979e-12
4.42658e-13
9.23376e-13
3.70754e-13
6.36334e-13
2.99784e-13
4.71704e-13
2.64639e-13
4.10975e-13
2.26976e-13
2.95579e-13
1.88781e-13
1.98717e-13
1.59286e-13
1.44549e-13
1.45671e-13
1.10393e-13
1.42762e-13
4.48864e-14
1.32384e-13
4.81022e-14
1.43494e-13
1.61092e-13
1.38944e-13
6.83181e-14
1.05572e-13
3.64111e-13
1.42527e-13
-4.16893e-14
-5.04795e-14
8.01326e-13
-2.59899e-13
8.05038e-12
1.54038e-11
6.56147e-12
1.45353e-11
5.28377e-12
1.1048e-11
4.30054e-12
9.26691e-12
3.45742e-12
7.43054e-12
2.81133e-12
6.00682e-12
2.30584e-12
4.89326e-12
1.85441e-12
4.02087e-12
1.48218e-12
3.35794e-12
1.19581e-12
2.7871e-12
1.02764e-12
2.1176e-12
8.42824e-13
1.73125e-12
6.63195e-13
1.3563e-12
5.1632e-13
1.16663e-12
4.31357e-13
1.00829e-12
3.6112e-13
7.06518e-13
2.91801e-13
5.40966e-13
2.50424e-13
4.52296e-13
2.15701e-13
3.30248e-13
1.8075e-13
2.33621e-13
1.52995e-13
1.72264e-13
1.39474e-13
1.23885e-13
1.40118e-13
4.42229e-14
1.37394e-13
5.08156e-14
1.66262e-13
1.32224e-13
1.58876e-13
7.57101e-14
1.12933e-13
4.10068e-13
1.90043e-13
-1.18783e-13
-1.77859e-15
9.93169e-13
-2.61668e-13
7.91124e-12
1.70946e-11
6.45907e-12
1.59887e-11
5.18909e-12
1.23174e-11
4.21719e-12
1.02393e-11
3.40133e-12
8.24618e-12
2.76466e-12
6.64366e-12
2.26324e-12
5.39463e-12
1.82787e-12
4.45631e-12
1.47337e-12
3.71243e-12
1.19796e-12
3.06254e-12
9.94965e-13
2.32058e-12
8.09351e-13
1.91686e-12
6.36965e-13
1.52867e-12
5.13521e-13
1.29005e-12
4.25328e-13
1.09644e-12
3.60333e-13
7.71462e-13
3.00903e-13
6.0034e-13
2.57369e-13
4.95774e-13
2.23404e-13
3.6416e-13
1.88632e-13
2.68346e-13
1.61439e-13
1.99418e-13
1.4418e-13
1.41114e-13
1.38205e-13
5.01785e-14
1.36834e-13
5.21759e-14
1.53167e-13
1.1589e-13
1.43272e-13
8.56112e-14
8.90502e-14
4.64304e-13
1.2459e-13
-1.54308e-13
-4.50086e-14
1.16279e-12
-3.06668e-13
7.75191e-12
1.87737e-11
6.33668e-12
1.74052e-11