/*--------------------------------*- C++ -*----------------------------------*\
| =========                 |                                                 |
| \\      /  F ield         | OpenFOAM: The Open Source CFD Toolbox           |
|  \\    /   O peration     | Version:  2.4.0                                 |
|   \\  /    A nd           | Web:      www.OpenFOAM.org                      |
|    \\/     M anipulation  |                                                 |
\*---------------------------------------------------------------------------*/
FoamFile
{
    version     2.0;
    format      ascii;
    class       volScalarField;
    location    "0.098";
    object      p;
}
// * * * * * * * * * * * * * * * * * * * * * * * * * * * * * * * * * * * * * //

dimensions      [1 -1 -2 0 0 0 0];

internalField   nonuniform List<scalar> 
3600
(
95.3959
95.3942
95.3868
95.4095
95.3886
95.4455
95.3986
95.5088
95.4226
95.607
95.4654
95.7363
95.5267
95.8735
95.6061
95.9749
95.7066
95.999
95.7809
95.9235
95.7627
95.7635
95.855
95.9495
96.0865
96.0977
96.1395
96.1075
96.1118
96.0906
92.1244
92.1257
92.1205
92.1385
92.1235
92.173
92.1355
92.238
92.1613
92.338
92.2052
92.4699
92.2672
92.6123
92.3465
92.7162
92.4472
92.7402
92.5224
92.6646
92.502
92.5022
92.594
92.6896
92.827
92.8381
92.8797
92.8476
92.8519
92.8307
88.8563
88.8609
88.852
88.8751
88.8541
88.9152
88.8661
88.9787
88.8931
89.0808
88.9401
89.2145
89.0049
89.3532
89.0857
89.4584
89.1882
89.4822
89.2648
89.4065
89.24
89.2396
89.3321
89.4299
89.5681
89.5789
89.6201
89.5879
89.592
89.5709
85.5603
85.5632
85.5636
85.5829
85.5698
85.6194
85.5861
85.6903
85.6194
85.8001
85.6718
85.9421
85.7411
86.0928
85.8246
86.2009
85.9302
86.2248
86.0084
86.1492
85.9768
85.9754
86.0693
86.1704
86.3097
86.3202
86.3607
86.3283
86.3322
86.311
82.291
82.293
82.285
82.314
82.2907
82.3555
82.3073
82.4346
82.3418
82.5458
82.4004
82.6887
82.4757
82.8344
82.563
82.9442
82.6729
82.9681
82.7533
82.8928
82.7122
82.7098
82.8055
82.911
83.0518
83.0618
83.1013
83.0686
83.0722
83.0511
78.9723
78.9789
78.977
79.0008
78.9865
79.0472
79.0092
79.1264
79.0566
79.2524
79.1255
79.4107
79.2088
79.5741
79.3009
79.6882
79.4163
79.7121
79.4995
79.6374
79.4462
79.4424
79.5407
79.6518
79.7945
79.8038
79.842
79.8091
79.8123
79.7913
75.699
75.7016
75.6899
75.7272
75.6976
75.7829
75.7208
75.8739
75.7691
76.0015
75.8476
76.1619
75.9405
76.3178
76.0383
76.433
76.1608
76.4568
76.2473
76.3832
76.1787
76.1733
76.2748
76.393
76.5378
76.5462
76.5829
76.5496
76.5524
76.5314
72.3472
72.357
72.3505
72.3837
72.3655
72.445
72.3974
72.5473
72.4683
72.6963
72.566
72.8764
72.671
73.0571
72.775
73.1785
72.9061
73.202
72.9967
73.1301
72.9098
72.9022
73.0079
73.1343
73.2818
73.289
73.3239
73.2902
73.2924
73.2715
69.0702
69.0809
69.0509
69.1274
69.0581
69.1926
69.092
69.2937
69.1707
69.4462
69.2814
69.6333
69.4003
69.8036
69.5112
69.9248
69.6524
69.9478
69.748
69.8785
69.6392
69.6289
69.7398
69.876
70.0264
70.0322
70.0649
70.0308
70.0325
70.0116
65.6485
65.6625
65.6599
65.7085
65.6804
65.8042
65.7328
65.9541
65.847
66.1318
65.993
66.3404
66.1291
66.543
66.2472
66.6727
66.4009
66.6941
66.5015
66.6287
66.3671
66.3531
66.4705
66.618
66.772
66.776
66.8062
66.7715
66.7725
66.7518
62.387
62.4046
62.359
62.4607
62.3644
62.5608
62.4265
62.6976
62.5406
62.882
62.7027
63.1036
62.857
63.2926
62.9804
63.4174
63.1481
63.44
63.2572
63.3809
63.0933
63.0743
63.1999
63.3605
63.5182
63.52
63.5474
63.5122
63.5125
63.4919
58.8977
58.9221
58.9031
59.0065
58.9264
59.1546
59.0176
59.3479
59.1846
59.5565
59.4067
59.8042
59.5856
60.0334
59.7177
60.1739
59.9023
60.1896
60.0183
60.1355
59.8177
59.7922
59.9279
60.1036
60.2653
60.2646
60.2888
60.2529
60.2525
60.232
55.6322
55.6546
55.6155
55.7261
55.609
55.8744
55.7027
56.0827
55.8859
56.3112
56.1131
56.5752
56.3126
56.7854
56.445
56.9112
56.6492
56.9311
56.7723
56.8929
56.5402
56.5063
56.6546
56.8475
57.0133
57.0097
57.0302
56.9938
56.9924
56.9721
52.0308
52.0713
51.9954
52.2114
52.0746
52.4291
52.2243
52.7001
52.4881
52.9675
52.8075
53.27
53.0455
53.5306
53.1846
53.6801
53.412
53.6866
53.5526
53.6538
53.2605
53.2162
53.3796
53.5921
53.7623
53.7551
53.7717
53.7346
53.7324
53.7122
48.7789
48.8069
48.7601
48.9085
48.7592
49.1338
48.9204
49.4423
49.2093
49.7465
49.5165
50.0526
49.773
50.2844
49.9037
50.4082
50.1577
50.4204
50.3009
50.4185
49.9782
49.921
50.1029
50.3377
50.5125
50.5011
50.5133
50.4754
50.4722
50.4522
45.0441
45.0997
44.9719
45.3067
45.0808
45.6085
45.3081
46.014
45.7471
46.3589
46.2
46.7403
46.5148
47.0371
46.6442
47.1898
46.9323
47.182
47.1027
47.1883
46.6932
46.621
46.8244
47.0845
47.2639
47.2476
47.2549
47.2163
47.2122
47.1923
41.81
41.8148
41.6944
41.96
41.7679
42.3187
42.0607
42.7893
42.5181
43.1748
42.9365
43.5422
43.248
43.7943
43.3521
43.9106
43.6771
43.9056
43.85
43.9633
43.4046
43.3138
43.5438
43.8327
44.0167
43.9946
43.9966
43.9571
43.952
43.9324
37.6943
37.8513
37.6773
38.2521
37.8725
38.6278
38.2901
39.2163
38.9648
39.7198
39.5882
40.2243
40.0026
40.5571
40.0896
40.7001
40.466
40.6714
40.6586
40.7456
40.1126
40.0008
40.261
40.5825
40.7709
40.742
40.7382
40.698
40.6918
40.6724
34.8284
35.3653
34.1968
34.7974
34.5301
35.4108
35.1101
36.1209
35.8298
36.6146
36.3793
37.0658
36.7517
37.3206
36.7804
37.4235
37.2122
37.3828
37.4296
37.5352
36.8159
36.6782
36.976
37.3342
37.5269
37.4901
37.4798
37.4389
37.4316
37.4125
30.3981
32.2377
30.096
30.9196
30.3522
31.3732
31.1818
32.2527
32.1874
33.0466
32.9918
33.7322
33.5251
34.0979
33.5077
34.2057
34.0186
34.1474
34.2546
34.3358
33.5149
33.348
33.6886
34.0879
34.2847
34.2385
34.2214
34.1797
34.1713
34.1525
26.9153
28.0817
27.0337
27.7332
26.8593
28.3386
28.0328
29.4274
29.1763
30.0706
29.8715
30.6276
30.3021
30.873
30.1701
30.9386
30.771
30.8443
31.0349
31.1455
30.2071
30.0055
30.3988
30.8439
31.0446
30.9876
30.9629
30.9204
30.911
30.8925
21.673
23.6142
21.6929
22.8405
22.3245
23.6348
23.9206
25.3024
25.4511
26.3471
26.4541
27.2755
27.1096
27.671
26.8709
27.7211
27.5981
27.5961
27.8894
27.9727
26.8944
26.6521
27.1063
27.6027
27.8068
27.737
27.7043
27.6612
27.6508
27.6325
18.0079
18.8978
18.374
19.2994
18.037
20.7868
20.7072
22.8393
22.5815
23.4963
23.4375
24.241
23.9434
24.4604
23.4887
24.4601
24.3693
24.2743
24.6792
24.8106
23.5723
23.2839
23.81
24.3647
24.5714
24.4872
24.4456
24.4019
24.3904
24.3725
15.1751
15.3838
13.3508
14.3553
13.2595
15.4696
16.7117
18.4749
18.9393
19.5942
19.9825
20.8931
20.7672
21.3106
20.1272
21.2389
21.2238
20.9969
21.5728
21.6741
20.2444
19.8989
20.5168
21.1327
21.339
21.2373
21.1866
21.1424
21.13
21.1125
2.47064
5.52007
5.48666
9.93852
7.27521
12.5285
13.3229
16.5938
16.2638
16.8113
17.0858
17.9375
17.7458
18.0868
16.675
17.9868
18.0362
17.6345
18.3701
18.5518
16.9048
16.4977
17.2035
17.8937
18.1066
17.9886
17.9277
17.8831
17.8696
17.8525
4.50401
5.05514
0.018989
4.64514
4.47559
6.69475
9.89252
12.2279
13.0038
12.6521
13.5584
14.6178
14.6012
15.0493
13.1869
14.7553
14.9225
14.3243
15.3123
15.467
13.5559
13.0704
13.9181
14.6888
14.8868
14.7398
14.6677
14.6233
14.609
14.5923
-40.2237
-15.317
-16.3615
1.57837
-6.41527
2.12429
5.88643
11.6801
10.5745
9.76239
10.7289
11.7609
11.744
11.8041
9.61968
11.523
11.7997
10.9321
12.1172
12.3882
10.2013
9.62462
10.5833
11.4396
11.6536
11.4915
11.4089
11.3639
11.3487
11.3324
-20.1985
-29.0898
-19.5875
-0.280105
-6.08998
-5.9875
4.78318
8.57425
8.45711
4.91674
7.15004
8.57352
8.77332
8.91637
5.87461
8.26321
8.74368
7.53277
9.11122
9.42169
6.79379
6.13895
7.29808
8.26799
8.44982
8.24497
8.14721
8.1035
8.0877
8.07207
-49.0845
-58.3697
-45.7621
-17.0958
-25.6261
-16.3177
-0.145569
11.4788
6.52105
1.37576
4.16245
5.82963
6.06216
5.68508
2.22141
5.04656
5.67727
4.14291
5.92669
6.37648
3.42783
2.64222
3.95877
5.01962
5.21613
4.99301
4.88833
4.84404
4.82771
4.81224
-63.2809
0.140219
-54.6669
-10.1786
-20.1419
-27.8447
1.47772
14.0623
6.191
-4.46781
0.762749
3.10664
3.49428
3.02104
-1.09251
2.0063
2.92494
1.04521
3.06422
3.63799
0.671563
-0.0275545
1.04016
1.95976
2.03766
1.75186
1.62507
1.58333
1.56631
1.55181
96.0872
96.0839
96.0818
96.0797
96.0779
96.0764
96.0751
96.0739
96.073
96.0722
96.0714
96.0708
96.0703
96.0699
96.0695
96.0692
96.0689
96.0687
96.0683
96.0684
96.0676
96.0683
96.0669
96.0681
96.0661
96.0679
96.0656
96.0674
96.0657
96.0667
92.8273
92.824
92.822
92.8198
92.8181
92.8165
92.8152
92.8141
92.8131
92.8123
92.8116
92.811
92.8105
92.81
92.8096
92.8093
92.809
92.8088
92.8084
92.8086
92.8078
92.8084
92.807
92.8082
92.8062
92.808
92.8057
92.8076
92.8058
92.8068
89.5674
89.5642
89.5621
89.5599
89.5582
89.5566
89.5553
89.5542
89.5532
89.5524
89.5517
89.5511
89.5506
89.5502
89.5498
89.5495
89.5492
89.549
89.5486
89.5487
89.5479
89.5485
89.5471
89.5484
89.5464
89.5481
89.5458
89.5477
89.5459
89.547
86.3075
86.3043
86.3022
86.3
86.2983
86.2968
86.2955
86.2943
86.2934
86.2926
86.2918
86.2912
86.2907
86.2903
86.2899
86.2896
86.2893
86.2891
86.2887
86.2888
86.288
86.2887
86.2873
86.2885
86.2865
86.2883
86.286
86.2879
86.286
86.2872
83.0476
83.0444
83.0423
83.0401
83.0384
83.0369
83.0356
83.0344
83.0335
83.0327
83.032
83.0314
83.0308
83.0304
83.03
83.0297
83.0294
83.0292
83.0288
83.029
83.0282
83.0288
83.0274
83.0287
83.0266
83.0284
83.0261
83.028
83.0261
83.0273
79.7877
79.7845
79.7824
79.7802
79.7785
79.777
79.7757
79.7745
79.7736
79.7728
79.7721
79.7715
79.771
79.7705
79.7701
79.7698
79.7695
79.7693
79.769
79.7691
79.7683
79.7689
79.7676
79.7688
79.7668
79.7685
79.7662
79.7681
79.7662
79.7674
76.5278
76.5246
76.5225
76.5204
76.5186
76.5171
76.5158
76.5147
76.5137
76.5129
76.5122
76.5116
76.5111
76.5107
76.5103
76.51
76.5097
76.5095
76.5091
76.5092
76.5085
76.5091
76.5077
76.5089
76.5069
76.5087
76.5063
76.5083
76.5063
76.5076
73.2678
73.2646
73.2625
73.2604
73.2587
73.2572
73.2559
73.2548
73.2538
73.253
73.2523
73.2517
73.2512
73.2508
73.2504
73.2501
73.2498
73.2496
73.2492
73.2493
73.2486
73.2492
73.2479
73.2491
73.2471
73.2488
73.2464
73.2484
73.2464
73.2478
70.0079
70.0047
70.0026
70.0005
69.9987
69.9972
69.9959
69.9948
69.9939
69.9931
69.9924
69.9918
69.9913
69.9909
69.9905
69.9902
69.9899
69.9897
69.9894
69.9895
69.9887
69.9893
69.988
69.9892
69.9872
69.9889
69.9865
69.9886
69.9864
69.9879
66.748
66.7448
66.7427
66.7406
66.7388
66.7373
66.7361
66.735
66.734
66.7332
66.7325
66.7319
66.7315
66.731
66.7307
66.7304
66.7301
66.7299
66.7295
66.7296
66.7289
66.7295
66.7282
66.7293
66.7274
66.7291
66.7266
66.7287
66.7265
66.7281
63.488
63.4848
63.4827
63.4806
63.4789
63.4774
63.4761
63.475
63.4741
63.4733
63.4726
63.472
63.4716
63.4711
63.4708
63.4705
63.4702
63.47
63.4697
63.4697
63.469
63.4696
63.4683
63.4694
63.4675
63.4692
63.4667
63.4689
63.4665
63.4683
60.228
60.2248
60.2227
60.2207
60.2189
60.2174
60.2162
60.2151
60.2142
60.2134
60.2127
60.2121
60.2116
60.2112
60.2109
60.2106
60.2103
60.2101
60.2098
60.2098
60.2092
60.2097
60.2085
60.2096
60.2076
60.2093
60.2067
60.209
60.2065
60.2085
56.968
56.9649
56.9628
56.9607
56.959
56.9575
56.9563
56.9552
56.9543
56.9535
56.9528
56.9523
56.9518
56.9514
56.951
56.9507
56.9505
56.9503
56.9499
56.95
56.9494
56.9499
56.9487
56.9497
56.9478
56.9495
56.9468
56.9492
56.9465
56.9488
53.708
53.7049
53.7028
53.7007
53.699
53.6976
53.6963
53.6952
53.6943
53.6936
53.6929
53.6923
53.6919
53.6915
53.6911
53.6908
53.6906
53.6904
53.6901
53.6901
53.6895
53.69
53.6888
53.6898
53.6879
53.6896
53.6869
53.6894
53.6864
53.689
50.448
50.4449
50.4428
50.4408
50.4391
50.4376
50.4363
50.4353
50.4344
50.4336
50.433
50.4324
50.4319
50.4316
50.4312
50.4309
50.4307
50.4305
50.4302
50.4302
50.4296
50.4301
50.429
50.4299
50.4281
50.4297
50.4269
50.4295
50.4263
50.4292
47.188
47.1849
47.1828
47.1808
47.1791
47.1777
47.1764
47.1754
47.1745
47.1737
47.1731
47.1725
47.1721
47.1717
47.1714
47.1711
47.1708
47.1706
47.1704
47.1704
47.1698
47.1702
47.1692
47.1701
47.1683
47.1699
47.167
47.1697
47.1662
47.1696
43.9279
43.9249
43.9228
43.9208
43.9191
43.9177
43.9164
43.9154
43.9145
43.9138
43.9131
43.9126
43.9122
43.9118
43.9114
43.9112
43.9109
43.9107
43.9105
43.9105
43.91
43.9103
43.9093
43.9102
43.9084
43.91
43.9071
43.9099
43.906
43.9099
40.6679
40.6649
40.6627
40.6608
40.6591
40.6577
40.6565
40.6554
40.6546
40.6538
40.6532
40.6527
40.6522
40.6519
40.6515
40.6513
40.651
40.6508
40.6506
40.6506
40.6501
40.6504
40.6495
40.6503
40.6486
40.6501
40.6471
40.6501
40.6458
40.6503
37.4078
37.4049
37.4027
37.4008
37.3991
37.3977
37.3965
37.3955
37.3946
37.3939
37.3933
37.3928
37.3924
37.392
37.3917
37.3914
37.3912
37.391
37.3908
37.3907
37.3903
37.3906
37.3897
37.3905
37.3888
37.3903
37.3872
37.3903
37.3855
37.3906
34.1477
34.1448
34.1427
34.1407
34.1391
34.1377
34.1365
34.1355
34.1347
34.134
34.1334
34.1328
34.1324
34.1321
34.1318
34.1315
34.1313
34.1311
34.1309
34.1308
34.1304
34.1307
34.1299
34.1306
34.1289
34.1304
34.1272
34.1305
34.1251
34.1315
30.8876
30.8848
30.8826
30.8807
30.8791
30.8777
30.8765
30.8755
30.8747
30.874
30.8734
30.8729
30.8725
30.8721
30.8718
30.8716
30.8714
30.8712
30.871
30.8709
30.8706
30.8708
30.8701
30.8707
30.8691
30.8705
30.8672
30.8706
30.8646
30.8712
27.6276
27.6247
27.6226
27.6207
27.6191
27.6177
27.6166
27.6156
27.6148
27.6141
27.6135
27.613
27.6126
27.6123
27.612
27.6117
27.6115
27.6113
27.6112
27.6111
27.6108
27.611
27.6103
27.6108
27.6094
27.6106
27.6074
27.6109
27.604
27.6133
24.3674
24.3646
24.3625
24.3606
24.359
24.3577
24.3565
24.3556
24.3548
24.3541
24.3535
24.3531
24.3527
24.3523
24.3521
24.3518
24.3516
24.3514
24.3513
24.3512
24.3509
24.3511
24.3505
24.3509
24.3496
24.3507
24.3472
24.3509
24.343
24.3521
21.1073
21.1045
21.1024
21.1005
21.099
21.0976
21.0965
21.0956
21.0948
21.0941
21.0936
21.0931
21.0927
21.0924
21.0921
21.0919
21.0917
21.0915
21.0914
21.0913
21.0911
21.0912
21.0907
21.091
21.0898
21.0908
21.0875
21.0914
21.0826
21.0958
17.8472
17.8445
17.8424
17.8405
17.839
17.8377
17.8366
17.8356
17.8349
17.8342
17.8337
17.8332
17.8328
17.8325
17.8323
17.832
17.8319
17.8317
17.8316
17.8314
17.8313
17.8313
17.8309
17.8312
17.83
17.831
17.8273
17.8313
17.8204
17.8333
14.5869
14.5843
14.5822
14.5804
14.5788
14.5776
14.5765
14.5756
14.5748
14.5742
14.5737
14.5732
14.5729
14.5726
14.5723
14.5721
14.5719
14.5718
14.5717
14.5716
14.5715
14.5714
14.5711
14.5712
14.5704
14.5711
14.5678
14.5718
14.5604
14.5792
11.3269
11.3243
11.3222
11.3204
11.3188
11.3176
11.3165
11.3156
11.3149
11.3143
11.3137
11.3133
11.313
11.3127
11.3124
11.3122
11.312
11.3119
11.3118
11.3117
11.3116
11.3115
11.3113
11.3113
11.3105
11.3112
11.3074
11.3117
11.2966
11.3155
8.0665
8.06399
8.06188
8.06016
8.05866
8.05745
8.05641
8.05556
8.05485
8.05426
8.05377
8.05336
8.05303
8.05275
8.05252
8.05232
8.05216
8.05202
8.05193
8.0518
8.05182
8.05165
8.05163
8.05147
8.05102
8.05129
8.04811
8.05221
8.03698
8.06363
4.80657
4.80408
4.80195
4.80023
4.79873
4.79753
4.79648
4.79565
4.79493
4.79434
4.79386
4.79346
4.79312
4.79285
4.79262
4.79242
4.79227
4.79212
4.79205
4.79191
4.79197
4.79175
4.7918
4.79158
4.79114
4.79141
4.7877
4.7921
4.77124
4.79918
1.54601
1.54366
1.54153
1.5399
1.53842
1.53729
1.53628
1.53549
1.53481
1.53426
1.5338
1.53343
1.53312
1.53286
1.53265
1.53248
1.53233
1.5322
1.53215
1.53199
1.53217
1.53182
1.53233
1.53164
1.53239
1.53148
1.53021
1.53244
1.5145
1.55156
6.4766
10.1579
3.41395
20.6866
0.594317
-1.64874
1.79246
5.12206
0.796041
-0.347412
0.288761
0.512932
0.206197
0.208619
-0.0253424
0.321433
0.352704
0.179066
0.3888
0.444402
-0.0143811
-0.0942658
-0.0565154
-0.0106353
0.0123489
-0.02902
-0.0537086
-0.0739696
-0.0835593
-0.0909346
-3.31188
-1.62336
-0.296378
-0.170759
-0.177535
-0.0694535
-0.140988
-0.0964327
-0.108113
-0.104485
-0.101408
-0.114028
-0.108434
-0.112467
-0.105332
-0.107383
-0.112183
-0.104309
-0.114862
-0.107224
-0.110682
-0.103133
-0.10823
-0.107086
-0.109781
-0.10725
-0.108745
-0.107452
-0.108333
-0.107701
6.59767
9.3524
0.640677
-0.468522
0.193524
-0.27261
0.0085602
-0.238671
-0.0723708
-0.141102
-0.105892
-0.120493
-0.116875
-0.114844
-0.111669
-0.113793
-0.118811
-0.111035
-0.120497
-0.113407
-0.117828
-0.109213
-0.114579
-0.11334
-0.116274
-0.113761
-0.11528
-0.113982
-0.114866
-0.114241
-1.79576
6.31322
0.0612743
-0.267873
-0.0231913
-0.14939
-0.0845586
-0.122083
-0.0940136
-0.127744
-0.106714
-0.126477
-0.117938
-0.123119
-0.119926
-0.1201
-0.12463
-0.117974
-0.126635
-0.119243
-0.124172
-0.116922
-0.121774
-0.119826
-0.122664
-0.120287
-0.121826
-0.120538
-0.121413
-0.120786
14.9089
3.05083
0.0752703
-0.295356
0.0785803
-0.216072
-0.0417044
-0.183813
-0.0955218
-0.142582
-0.119477
-0.130769
-0.12653
-0.127507
-0.127474
-0.125929
-0.131343
-0.12446
-0.132702
-0.125476
-0.130653
-0.123242
-0.128537
-0.126162
-0.129153
-0.126805
-0.128356
-0.127078
-0.127948
-0.127327
9.55483
-0.876597
0.16588
-0.168478
-0.0677715
-0.151356
-0.087937
-0.139918
-0.109236
-0.140665
-0.124105
-0.135831
-0.132627
-0.133788
-0.135146
-0.132191
-0.137806
-0.131096
-0.138925
-0.131627
-0.137228
-0.130547
-0.135292
-0.132699
-0.135599
-0.133335
-0.13489
-0.133629
-0.134487
-0.133871
2.48224
-0.259997
-0.134641
-0.155385
-0.132463
-0.167009
-0.119902
-0.155718
-0.127445
-0.144705
-0.136009
-0.140511
-0.140543
-0.138739
-0.142606
-0.137906
-0.144541
-0.13735
-0.145236
-0.137941
-0.143673
-0.137011
-0.142013
-0.139131
-0.142098
-0.139864
-0.141417
-0.140176
-0.141022
-0.140415
1.71169
0.0238608
-0.0695735
-0.123425
-0.138946
-0.137652
-0.13855
-0.139935
-0.142165
-0.142095
-0.14689
-0.142832
-0.149061
-0.143813
-0.150222
-0.143973
-0.1513
-0.143895
-0.151595
-0.144335
-0.150211
-0.14402
-0.14868
-0.145676
-0.148576
-0.146399
-0.147943
-0.146724
-0.147556
-0.14696
-0.0697539
-0.095657
-0.0991105
-0.12999
-0.141395
-0.144527
-0.148996
-0.148365
-0.152251
-0.149031
-0.155364
-0.149343
-0.157596
-0.149579
-0.157848
-0.149779
-0.15809
-0.150141
-0.158004
-0.150764
-0.156671
-0.150601
-0.155305
-0.152181
-0.155072
-0.152938
-0.154466
-0.153273
-0.154089
-0.153504
-0.0960882
-0.181425
-0.213347
-0.140308
-0.167942
-0.140279
-0.16413
-0.144831
-0.166189
-0.146874
-0.168037
-0.14993
-0.16645
-0.153374
-0.165423
-0.155843
-0.164877
-0.156666
-0.164429
-0.157264
-0.163178
-0.157407
-0.161898
-0.158747
-0.161566
-0.159482
-0.160987
-0.159824
-0.160621
-0.16005
1.34534
0.515136
0.23564
0.119281
0.0384753
-0.0704058
-0.177613
-0.151316
-0.173732
-0.157295
-0.174296
-0.159775
-0.174493
-0.16083
-0.172767
-0.161931
-0.171631
-0.163013
-0.170862
-0.163793
-0.169637
-0.164059
-0.168463
-0.165298
-0.16806
-0.16603
-0.167506
-0.166375
-0.167151
-0.166595
0.106049
-0.531188
0.225363
-0.343959
-0.0658004
-0.171057
-0.182168
-0.152445
-0.189819
-0.153234
-0.188631
-0.158269
-0.183362
-0.163874
-0.180137
-0.168076
-0.178324
-0.169574
-0.17729
-0.170366
-0.176104
-0.170764
-0.175005
-0.171875
-0.174553
-0.172583
-0.174022
-0.172927
-0.17368
-0.173141
0.535896
0.907118
-0.0778705
0.0166203
-0.150613
-0.11436
-0.188322
-0.158032
-0.193993
-0.168108
-0.192186
-0.171691
-0.190381
-0.173557
-0.18713
-0.174611
-0.184932
-0.176077
-0.183703
-0.176968
-0.182551
-0.177443
-0.181528
-0.178457
-0.181045
-0.17914
-0.180537
-0.17948
-0.180208
-0.179688
5.46665
-5.13917
0.28752
-0.484145
-0.336069
-0.245959
-0.24992
-0.183157
-0.219679
-0.171547
-0.206926
-0.172163
-0.198484
-0.17682
-0.193926
-0.180909
-0.191437
-0.182717
-0.190094
-0.183601
-0.188987
-0.184123
-0.188033
-0.185047
-0.187535
-0.1857
-0.18705
-0.186034
-0.186734
-0.186234
8.87421
-30.0916
6.34524
-0.913033
-0.0829742
-0.273999
-0.225481
-0.202797
-0.212899
-0.18801
-0.207219
-0.185731
-0.204031
-0.186512
-0.200344
-0.187856
-0.19784
-0.189374
-0.19646
-0.190259
-0.195409
-0.190801
-0.194524
-0.191644
-0.194022
-0.192264
-0.19356
-0.192589
-0.193259
-0.192781
42.4295
15.5664
2.66354
-0.184142
-0.198639
-0.191276
-0.220882
-0.187731
-0.220636
-0.18682
-0.21605
-0.188042
-0.210327
-0.191401
-0.206549
-0.194572
-0.204145
-0.19611
-0.202801
-0.196941
-0.201819
-0.19748
-0.201002
-0.198248
-0.200507
-0.198833
-0.200069
-0.199146
-0.199784
-0.199329
22.5903
2.9414
-0.205499
-0.114441
-0.234603
-0.177063
-0.22207
-0.19143
-0.219442
-0.19654
-0.218104
-0.198463
-0.215577
-0.200051
-0.212516
-0.201538
-0.210368
-0.202875
-0.209119
-0.20364
-0.208218
-0.204159
-0.207469
-0.204857
-0.206988
-0.205404
-0.206576
-0.205703
-0.206307
-0.205877
1.25082
0.312786
-0.1906
-0.189334
-0.215058
-0.193459
-0.223894
-0.199874
-0.225362
-0.202839
-0.223406
-0.204382
-0.220783
-0.206708
-0.218333
-0.208556
-0.216527
-0.209681
-0.215419
-0.210353
-0.214608
-0.210839
-0.213927
-0.21147
-0.213467
-0.211977
-0.213081
-0.212261
-0.212829
-0.212425
-0.224308
-0.209761
-0.236113
-0.217072
-0.231121
-0.206758
-0.228362
-0.208791
-0.227788
-0.211354
-0.227391
-0.21338
-0.225851
-0.214405
-0.224081
-0.215607
-0.222648
-0.216504
-0.221706
-0.217077
-0.220991
-0.21752
-0.220378
-0.218087
-0.219944
-0.218554
-0.219585
-0.218821
-0.21935
-0.218974
-0.225634
-0.220869
-0.219259
-0.212101
-0.221125
-0.213812
-0.227661
-0.217989
-0.230766
-0.219935
-0.231472
-0.220875
-0.230906
-0.221832
-0.229807
-0.22267
-0.228752
-0.22334
-0.227985
-0.223807
-0.227367
-0.224201
-0.226821
-0.224707
-0.226418
-0.225133
-0.226087
-0.225381
-0.225871
-0.225523
-0.254901
-0.252553
-0.237742
-0.231213
-0.231897
-0.227973
-0.233199
-0.227616
-0.235163
-0.228426
-0.236128
-0.228786
-0.23614
-0.229205
-0.235571
-0.229707
-0.234858
-0.230172
-0.234262
-0.230538
-0.23374
-0.230883
-0.233259
-0.231329
-0.23289
-0.231714
-0.232588
-0.231942
-0.23239
-0.232072
-0.228167
-0.24779
-0.240217
-0.237301
-0.23628
-0.235137
-0.237592
-0.235756
-0.239769
-0.236383
-0.241104
-0.236391
-0.241575
-0.23647
-0.241413
-0.236703
-0.240984
-0.236994
-0.240543
-0.23727
-0.240112
-0.237564
-0.239693
-0.237954
-0.23936
-0.238298
-0.239088
-0.238504
-0.238909
-0.238622
-0.253159
-0.25989
-0.251902
-0.247646
-0.245107
-0.244412
-0.244664
-0.244245
-0.245807
-0.244075
-0.246751
-0.243747
-0.247276
-0.243598
-0.247353
-0.243644
-0.24714
-0.2438
-0.246831
-0.243999
-0.246482
-0.244244
-0.246123
-0.24458
-0.245828
-0.244883
-0.245586
-0.245066
-0.245427
-0.245171
-0.229673
-0.260851
-0.258327
-0.255767
-0.253592
-0.252605
-0.252056
-0.251588
-0.2521
-0.251119
-0.252661
-0.250779
-0.25318
-0.250586
-0.253394
-0.250527
-0.253332
-0.250587
-0.253129
-0.250722
-0.252853
-0.250922
-0.252551
-0.251207
-0.252294
-0.251469
-0.252083
-0.251629
-0.251945
-0.251721
-0.103436
-0.259765
-0.261122
-0.260622
-0.259655
-0.259333
-0.258558
-0.258199
-0.258342
-0.257844
-0.258772
-0.257629
-0.259261
-0.257457
-0.25953
-0.257355
-0.259562
-0.257354
-0.259438
-0.257441
-0.259225
-0.2576
-0.258977
-0.257836
-0.258759
-0.258056
-0.25858
-0.258193
-0.258462
-0.258272
-0.153484
-0.228562
-0.264082
-0.264752
-0.26429
-0.263942
-0.263224
-0.263703
-0.26424
-0.264286
-0.265049
-0.264323
-0.265475
-0.264235
-0.265745
-0.264135
-0.265827
-0.264101
-0.265759
-0.264153
-0.265599
-0.264275
-0.265402
-0.264465
-0.265223
-0.264645
-0.265075
-0.264757
-0.264979
-0.264822
-0.275693
-0.263149
-0.271805
-0.269857
-0.268013
-0.267652
-0.266795
-0.269631
-0.270007
-0.270564
-0.27109
-0.270899
-0.271711
-0.270958
-0.272023
-0.270877
-0.272123
-0.270832
-0.272091
-0.270859
-0.271976
-0.270949
-0.271825
-0.271094
-0.271685
-0.271234
-0.27157
-0.271322
-0.271495
-0.271372
-0.306191
-0.276791
-0.276626
-0.273531
-0.27455
-0.274276
-0.274087
-0.276705
-0.277335
-0.277478
-0.278005
-0.277698
-0.278237
-0.277665
-0.278362
-0.277591
-0.278445
-0.277548
-0.278432
-0.27756
-0.278354
-0.277622
-0.278248
-0.277725
-0.278148
-0.277824
-0.278065
-0.277887
-0.278011
-0.277923
-0.273074
-0.273067
-0.231049
-0.284089
-0.28237
-0.28382
-0.282067
-0.283517
-0.283166
-0.283936
-0.283981
-0.284201
-0.284465
-0.284302
-0.284716
-0.284284
-0.284785
-0.284254
-0.284781
-0.284257
-0.284734
-0.284294
-0.28467
-0.284355
-0.284609
-0.284414
-0.284559
-0.284452
-0.284527
-0.284474
-0.239338
-0.233099
-0.296549
-0.299856
-0.291815
-0.2933
-0.290512
-0.291205
-0.291225
-0.291155
-0.291382
-0.291076
-0.291214
-0.291008
-0.291137
-0.290968
-0.291138
-0.290953
-0.291133
-0.290952
-0.291114
-0.290964
-0.291092
-0.290985
-0.291071
-0.291004
-0.291053
-0.291017
-0.291042
-0.291024
-0.094037
-0.0952226
-0.0963505
-0.0971589
-0.0979502
-0.098512
-0.0990525
-0.0994492
-0.0998107
-0.100092
-0.100332
-0.100528
-0.10069
-0.100825
-0.100937
-0.101032
-0.101111
-0.101183
-0.101246
-0.101302
-0.101403
-0.101403
-0.101451
-0.101492
-0.101536
-0.10151
-0.101813
-0.101074
-0.104397
-0.102706
-0.107991
-0.107864
-0.107968
-0.107878
-0.107949
-0.10789
-0.107932
-0.107902
-0.107921
-0.107911
-0.107916
-0.107916
-0.107919
-0.107921
-0.107925
-0.107929
-0.107934
-0.107943
-0.107948
-0.107964
-0.107966
-0.107994
-0.107991
-0.108019
-0.108007
-0.108
-0.107982
-0.107942
-0.107898
-0.107973
-0.114527
-0.114405
-0.114505
-0.114418
-0.114487
-0.11443
-0.114471
-0.114442
-0.11446
-0.11445
-0.114455
-0.114455
-0.114458
-0.11446
-0.114464
-0.114468
-0.114473
-0.114482
-0.114487
-0.114503
-0.114503
-0.114535
-0.114535
-0.114592
-0.114635
-0.114737
-0.114972
-0.115171
-0.116004
-0.116992
-0.12107
-0.120947
-0.121048
-0.12096
-0.121029
-0.120972
-0.121013
-0.120983
-0.121002
-0.120991
-0.120997
-0.120997
-0.120999
-0.121002
-0.121005
-0.12101
-0.121014
-0.121023
-0.121028
-0.121044
-0.121045
-0.121075
-0.121073
-0.121107
-0.121097
-0.121098
-0.121097
-0.121028
-0.121036
-0.121141
-0.127609
-0.127488
-0.127587
-0.1275
-0.127568
-0.127512
-0.127553
-0.127523
-0.127541
-0.127531
-0.127537
-0.127536
-0.127538
-0.127541
-0.127544
-0.127549
-0.127554
-0.127562
-0.127566
-0.127583
-0.127583
-0.127615
-0.127612
-0.127666
-0.127694
-0.127792
-0.12795
-0.128088
-0.128378
-0.128825
-0.134149
-0.13403
-0.134127
-0.134042
-0.134109
-0.134053
-0.134093
-0.134063
-0.134082
-0.134071
-0.134077
-0.134076
-0.134079
-0.134081
-0.134085
-0.134089
-0.134094
-0.134102
-0.134106
-0.134123
-0.134123
-0.134154
-0.134149
-0.134193
-0.134184
-0.134205
-0.134203
-0.134142
-0.134165
-0.134133
-0.140689
-0.140572
-0.140667
-0.140583
-0.140649
-0.140594
-0.140634
-0.140604
-0.140623
-0.140611
-0.140618
-0.140617
-0.140619
-0.140621
-0.140625
-0.140629
-0.140633
-0.140642
-0.140645
-0.140662
-0.140661
-0.140693
-0.140687
-0.140736
-0.140743
-0.140824
-0.140899
-0.141002
-0.141063
-0.141288
-0.147228
-0.147113
-0.147207
-0.147124
-0.147189
-0.147134
-0.147174
-0.147144
-0.147163
-0.147151
-0.147158
-0.147157
-0.147159
-0.147161
-0.147164
-0.147169
-0.147173
-0.147181
-0.147184
-0.147201
-0.147199
-0.147231
-0.147223
-0.14727
-0.147261
-0.1473
-0.147291
-0.147265
-0.147259
-0.147202
-0.153767
-0.153654
-0.153746
-0.153665
-0.153729
-0.153675
-0.153714
-0.153684
-0.153703
-0.153691
-0.153698
-0.153696
-0.153699
-0.153701
-0.153704
-0.153708
-0.153712
-0.15372
-0.153723
-0.15374
-0.153737
-0.153769
-0.153758
-0.153807
-0.153795
-0.153859
-0.153873
-0.153948
-0.153921
-0.154036
-0.160306
-0.160196
-0.160286
-0.160206
-0.160269
-0.160215
-0.160254
-0.160224
-0.160244
-0.160232
-0.160238
-0.160237
-0.160239
-0.160241
-0.160244
-0.160248
-0.160252
-0.16026
-0.160262
-0.160279
-0.160275
-0.160307
-0.160294
-0.160342
-0.160325
-0.160378
-0.160358
-0.160371
-0.160324
-0.160299
-0.166845
-0.166737
-0.166824
-0.166747
-0.166808
-0.166756
-0.166794
-0.166764
-0.166784
-0.166771
-0.166778
-0.166777
-0.166779
-0.166781
-0.166783
-0.166787
-0.166791
-0.166799
-0.166801
-0.166817
-0.166813
-0.166844
-0.166829
-0.166876
-0.166855
-0.166909
-0.166886
-0.16694
-0.166879
-0.166944
-0.173383
-0.173278
-0.173363
-0.173288
-0.173347
-0.173296
-0.173334
-0.173304
-0.173323
-0.173311
-0.173318
-0.173316
-0.173318
-0.17332
-0.173323
-0.173327
-0.17333
-0.173338
-0.173339
-0.173356
-0.17335
-0.17338
-0.173365
-0.173411
-0.173386
-0.173439
-0.173406
-0.173448
-0.173375
-0.173388
-0.179921
-0.17982
-0.179902
-0.179829
-0.179886
-0.179837
-0.179873
-0.179845
-0.179864
-0.179852
-0.179858
-0.179856
-0.179859
-0.17986
-0.179863
-0.179866
-0.179869
-0.179877
-0.179878
-0.179894
-0.179888
-0.179918
-0.1799
-0.179945
-0.179918
-0.179969
-0.17993
-0.179977
-0.1799
-0.179943
-0.186458
-0.186362
-0.18644
-0.18637
-0.186425
-0.186378
-0.186413
-0.186385
-0.186403
-0.186391
-0.186398
-0.186396
-0.186398
-0.1864
-0.186402
-0.186406
-0.186408
-0.186416
-0.186416
-0.186432
-0.186425
-0.186454
-0.186436
-0.186479
-0.186449
-0.1865
-0.186456
-0.186504
-0.186424
-0.186463
-0.192996
-0.192903
-0.192978
-0.192911
-0.192964
-0.192918
-0.192952
-0.192925
-0.192943
-0.192931
-0.192938
-0.192936
-0.192938
-0.192939
-0.192941
-0.192945
-0.192947
-0.192954
-0.192954
-0.19297
-0.192962
-0.19299
-0.192971
-0.193013
-0.192982
-0.193031
-0.192983
-0.193033
-0.192952
-0.192994
-0.199533
-0.199445
-0.199516
-0.199453
-0.199503
-0.199459
-0.199491
-0.199466
-0.199483
-0.199471
-0.199478
-0.199476
-0.199478
-0.199479
-0.199481
-0.199484
-0.199487
-0.199493
-0.199493
-0.199508
-0.1995
-0.199527
-0.199507
-0.199547
-0.199515
-0.199563
-0.199513
-0.199563
-0.199483
-0.199527
-0.20607
-0.205986
-0.206054
-0.205994
-0.206041
-0.206
-0.20603
-0.206006
-0.206022
-0.206011
-0.206017
-0.206015
-0.206017
-0.206018
-0.20602
-0.206023
-0.206025
-0.206032
-0.206031
-0.206045
-0.206037
-0.206063
-0.206043
-0.206081
-0.206049
-0.206094
-0.206044
-0.206094
-0.206015
-0.206061
-0.212606
-0.212528
-0.212591
-0.212535
-0.212579
-0.21254
-0.212569
-0.212546
-0.212561
-0.212551
-0.212557
-0.212555
-0.212557
-0.212558
-0.212559
-0.212562
-0.212564
-0.21257
-0.212569
-0.212583
-0.212574
-0.212598
-0.21258
-0.212615
-0.212583
-0.212627
-0.212577
-0.212625
-0.21255
-0.212596
-0.219143
-0.21907
-0.219129
-0.219076
-0.219118
-0.219081
-0.219108
-0.219087
-0.219101
-0.219091
-0.219097
-0.219095
-0.219096
-0.219098
-0.219099
-0.219102
-0.219103
-0.219109
-0.219108
-0.21912
-0.219112
-0.219135
-0.219116
-0.219149
-0.219119
-0.21916
-0.219111
-0.219158
-0.219086
-0.219132
-0.225679
-0.225611
-0.225666
-0.225617
-0.225656
-0.225622
-0.225647
-0.225627
-0.22564
-0.225631
-0.225636
-0.225634
-0.225636
-0.225637
-0.225638
-0.225641
-0.225642
-0.225647
-0.225646
-0.225658
-0.22565
-0.225671
-0.225653
-0.225684
-0.225654
-0.225692
-0.225646
-0.225691
-0.225624
-0.225668
-0.232215
-0.232153
-0.232203
-0.232158
-0.232193
-0.232163
-0.232185
-0.232167
-0.232179
-0.232171