/*--------------------------------*- C++ -*----------------------------------*\
| =========                 |                                                 |
| \\      /  F ield         | OpenFOAM: The Open Source CFD Toolbox           |
|  \\    /   O peration     | Version:  2.4.0                                 |
|   \\  /    A nd           | Web:      www.OpenFOAM.org                      |
|    \\/     M anipulation  |                                                 |
\*---------------------------------------------------------------------------*/
FoamFile
{
    version     2.0;
    format      ascii;
    class       volScalarField;
    location    "0.032";
    object      p;
}
// * * * * * * * * * * * * * * * * * * * * * * * * * * * * * * * * * * * * * //

dimensions      [1 -1 -2 0 0 0 0];

internalField   nonuniform List<scalar> 
3600
(
94.9129
94.908
94.9085
94.9125
94.9205
94.9259
94.9507
94.9529
95.0104
95.0089
95.121
95.1272
95.321
95.3513
95.6342
95.6728
95.9656
95.9279
96.1468
96.0432
96.1678
96.0824
96.1339
96.0874
96.1006
96.0824
96.0805
96.0753
96.0727
96.0705
91.6495
91.65
91.6508
91.6538
91.6617
91.666
91.6908
91.6915
91.749
91.7456
91.8577
91.8625
92.0572
92.0875
92.3731
92.413
92.7074
92.6689
92.8886
92.7842
92.9083
92.8228
92.8741
92.8276
92.8407
92.8226
92.8206
92.8154
92.8128
92.8106
88.3833
88.3848
88.3869
88.39
88.399
88.4018
88.4278
88.4257
88.4841
88.4771
88.5899
88.5919
88.7899
88.8198
89.1116
89.1539
89.4516
89.4117
89.6319
89.5259
89.6491
89.5634
89.6143
89.5679
89.5808
89.5627
89.5608
89.5555
89.5529
89.5507
85.1218
85.1218
85.1238
85.1262
85.1361
85.1365
85.1635
85.1571
85.2165
85.2038
85.3177
85.3156
85.5181
85.5479
85.8495
85.8955
86.1986
86.1562
86.3766
86.2685
86.3903
86.3044
86.3545
86.3082
86.321
86.3029
86.3009
86.2957
86.2931
86.2909
81.8584
81.8585
81.8605
81.8618
81.8726
81.8696
81.8979
81.8856
81.9459
81.9257
82.0406
82.0331
82.2419
82.2717
82.5867
82.6381
82.9491
82.9018
83.1227
83.0118
83.1318
83.0455
83.0948
83.0485
83.0611
83.043
83.041
83.0358
83.0332
83.031
78.5948
78.5948
78.5973
78.5969
78.6088
78.6016
78.6311
78.6114
78.6722
78.6424
78.7581
78.744
78.9606
78.9906
79.3232
79.3818
79.7019
79.6499
79.8703
79.7561
79.8736
79.7868
79.835
79.7889
79.8011
79.7831
79.7811
79.7758
79.7733
79.7711
75.3319
75.3319
75.335
75.3324
75.3453
75.3329
75.3635
75.3348
75.3955
75.3542
75.4694
75.4477
75.6735
75.7043
76.0588
76.1271
76.4575
76.4005
76.6194
76.5011
76.6158
76.5284
76.5754
76.5293
76.5412
76.5232
76.5212
76.516
76.5134
76.5112
72.0709
72.0704
72.0741
72.0689
72.0829
72.0643
72.0954
72.0562
72.1155
72.0606
72.1736
72.1434
72.3797
72.4121
72.7934
72.8743
73.2163
73.1537
73.3699
73.247
73.3582
73.2702
73.3156
73.2698
73.2813
73.2633
73.2613
73.256
73.2535
73.2513
68.8111
68.8115
68.8157
68.8073
68.8222
68.7967
68.8276
68.7764
68.8325
68.7618
68.8695
68.8302
69.0781
69.1133
69.527
69.6239
69.979
69.9097
70.1219
69.9936
70.1007
70.0122
70.0559
70.0103
70.0213
70.0034
70.0014
69.9961
69.9936
69.9914
65.5551
65.5551
65.5601
65.5477
65.564
65.5301
65.5606
65.4963
65.5464
65.4579
65.5557
65.5071
65.7674
65.807
66.2594
66.3768
66.7461
66.6686
66.8754
66.741
66.8435
66.7544
66.7962
66.7509
66.7613
66.7435
66.7415
66.7362
66.7337
66.7316
62.3021
62.3023
62.3082
62.2936
62.3094
62.2699
62.2954
62.2172
62.2574
62.149
62.2301
62.1727
62.4456
62.4919
62.9903
63.1338
63.5185
63.4307
63.6303
63.489
63.5864
63.4967
63.5364
63.4914
63.5013
63.4835
63.4815
63.4762
63.4738
63.4716
59.0616
59.0589
59.0665
59.038
59.0605
59.0002
59.0338
58.9364
58.9661
58.8353
58.8906
58.8252
59.1109
59.1668
59.7196
59.8958
60.2973
60.1963
60.3867
60.2376
60.3293
60.2391
60.2766
60.232
60.2413
60.2236
60.2216
60.2162
60.2139
60.2117
55.7944
55.794
55.8064
55.7945
55.8079
55.7685
55.7709
55.6749
55.6731
55.5192
55.5332
55.463
55.7605
55.8301
56.4473
56.6641
57.0839
56.9658
57.1443
56.9869
57.0722
56.9817
57.0168
56.9726
56.9813
56.9637
56.9617
56.9563
56.954
56.9519
52.5973
52.5892
52.6066
52.5413
52.5895
52.4859
52.5332
52.385
52.3824
52.1979
52.1554
52.0821
52.3915
52.4794
53.1729
53.4421
53.8783
53.7394
53.9031
53.7364
53.815
53.7242
53.7568
53.7132
53.7212
53.7037
53.7017
53.6963
53.6941
53.6919
49.2914
49.2763
49.3193
49.314
49.3303
49.3066
49.2627
49.1715
49.0835
48.8857
48.7482
48.6819
48.9996
49.1127
49.8963
50.2321
50.6822
50.5175
50.6628
50.4863
50.5575
50.4669
50.4968
50.4538
50.461
50.4437
50.4417
50.4362
50.4341
50.432
46.1182
46.1087
46.1946
46.0486
46.1676
46.0062
46.0856
45.8751
45.8131
45.5561
45.3103
45.2522
45.5804
45.726
46.617
47.037
47.4977
47.3005
47.4232
47.2367
47.2998
47.2095
47.2367
47.1945
47.2009
47.1838
47.1818
47.1763
47.1743
47.1721
42.8219
42.7144
42.8541
42.8112
42.9262
42.8732
42.8101
42.7406
42.5095
42.2816
41.8172
41.7984
42.1279
42.3174
43.3352
43.8613
44.327
44.0886
44.1837
43.9866
44.0416
43.9522
43.9765
43.9351
43.9407
43.9238
43.9218
43.9162
43.9143
43.9122
39.3126
39.2996
39.8423
39.5214
39.7971
39.5954
39.7196
39.4624
39.2793
38.9592
38.2669
38.2889
38.6344
38.8783
40.0492
40.7075
41.1727
40.8821
40.9437
40.7362
40.7829
40.6947
40.7161
40.6757
40.6805
40.6637
40.6618
40.6562
40.6544
40.6522
36.4354
36.3791
36.4029
36.3652
36.6535
36.4493
36.5021
36.4318
35.9997
35.8136
34.6374
34.7738
35.0951
35.4112
36.7611
37.5868
38.0394
37.6811
37.7048
37.4852
37.5236
37.4372
37.4557
37.4163
37.4203
37.4037
37.4018
37.3961
37.3945
37.3923
30.8386
30.0289
33.8285
32.7494
33.4936
33.3185
33.4749
33.2518
32.7949
32.4353
30.9157
31.0776
31.4914
31.8953
33.4654
34.4968
34.9264
34.4842
34.4618
34.2331
34.2634
34.1795
34.1951
34.1569
34.16
34.1437
34.1418
34.1361
34.1345
34.1324
29.6883
29.069
28.9993
30.0704
30.6016
30.1152
30.4881
30.3806
29.8097
29.6472
27.1651
27.4754
27.8343
28.3436
30.1681
31.458
31.854
31.2989
31.2164
30.9796
31.0023
30.9217
30.9343
30.8974
30.8996
30.8836
30.8818
30.876
30.8746
30.8724
21.2731
23.0144
26.9315
26.0368
26.8551
27.0959
27.0883
27.3806
26.1614
26.125
23.0328
23.3329
24.0558
24.7144
26.8554
28.467
28.7982
28.0932
27.9653
27.7239
27.7402
27.6638
27.6735
27.638
27.6393
27.6236
27.6218
27.6159
27.6146
27.6125
24.395
24.4669
26.0738
24.2751
24.4389
23.8325
25
24.6417
24.3418
23.8964
19.2213
19.5727
20.2622
21.0457
23.533
25.5636
25.8205
24.9494
24.7094
24.4659
24.4771
24.4057
24.4124
24.3785
24.3788
24.3635
24.3617
24.3558
24.3547
24.3525
13.9237
13.9726
19.4417
19.5765
19.7697
21.4457
20.976
22.3293
20.1553
20.3428
14.2596
14.5942
16.2108
17.2614
20.1839
22.7357
22.842
21.7065
21.4379
21.2038
21.2126
21.1473
21.1512
21.1189
21.1183
21.1034
21.1016
21.0957
21.0947
21.0926
18.4318
18.7718
16.8255
20.23
17.8036
17.3663
19.3193
19.2462
19.6124
18.9949
10.2429
10.3142
12.2625
13.4417
16.8209
20.0305
19.993
18.5983
18.1739
17.9379
17.9473
17.889
17.89
17.8594
17.8579
17.8433
17.8416
17.8356
17.8348
17.8326
-4.80797
-0.677204
12.6299
7.31387
10.5705
16.3132
15.2091
19.7405
16.2553
15.9085
3.99125
3.92661
7.7708
9.47821
13.4247
17.4537
17.1543
15.2927
14.8425
14.6646
14.6802
14.6303
14.6283
14.5996
14.5971
14.5831
14.5814
14.5754
14.5748
14.5726
2.56753
0.978583
7.9477
1.46069
8.03279
11.8895
14.4791
15.3075
16.5418
15.3193
-1.35673
-2.00682
3.56598
5.48293
9.99537
14.9905
14.4405
12.2224
11.5893
11.3939
11.4134
11.3721
11.3674
11.3404
11.3369
11.3232
11.3215
11.3154
11.3149
11.3127
-32.3455
-8.19022
-0.327299
-7.99313
-1.66062
13.678
12.8903
17.5682
16.734
14.4351
-9.43162
-10.6294
-1.36955
1.39555
6.53445
12.8917
11.9649
8.81439
8.13361
8.09463
8.14297
8.113
8.10464
8.07992
8.07556
8.06255
8.06107
8.05506
8.05482
8.05268
-62.7088
-15.9348
5.08313
-28.6891
-7.51003
9.00164
9.70767
14.852
19.0867
14.7027
-8.30676
-9.81357
-4.32599
-2.74236
2.98011
10.601
9.22394
5.71081
4.88689
4.82978
4.87813
4.85575
4.84485
4.82144
4.81584
4.80312
4.80134
4.79524
4.795
4.7928
83.5402
-19.6655
7.71211
-35.4776
-21.753
18.6183
13.777
15.1982
22.2454
14.2515
-0.999288
-0.108609
-0.318101
-1.84926
0.859714
9.19757
7.30578
2.2224
1.26681
1.49513
1.60427
1.59778
1.58086
1.56052
1.55381
1.54209
1.54066
1.53467
1.53483
1.53267
96.0698
96.0694
96.0692
96.0689
96.0687
96.0685
96.0684
96.0683
96.0682
96.0681
96.0681
96.068
96.068
96.068
96.068
96.068
96.0679
96.0679
96.0679
96.0679
96.0679
96.0679
96.0679
96.0679
96.0679
96.0679
96.0678
96.0679
96.0678
96.0678
92.8099
92.8096
92.8093
92.809
92.8088
92.8086
92.8085
92.8084
92.8083
92.8083
92.8082
92.8082
92.8081
92.8081
92.8081
92.8081
92.8081
92.8081
92.808
92.808
92.808
92.808
92.808
92.808
92.808
92.808
92.808
92.808
92.808
92.808
89.5501
89.5497
89.5494
89.5491
89.5489
89.5488
89.5486
89.5485
89.5485
89.5484
89.5483
89.5483
89.5483
89.5483
89.5482
89.5482
89.5482
89.5482
89.5482
89.5482
89.5482
89.5481
89.5481
89.5481
89.5481
89.5481
89.5481
89.5481
89.5481
89.5481
86.2902
86.2898
86.2896
86.2893
86.2891
86.2889
86.2888
86.2887
86.2886
86.2885
86.2885
86.2885
86.2884
86.2884
86.2884
86.2884
86.2884
86.2883
86.2883
86.2883
86.2883
86.2883
86.2883
86.2883
86.2883
86.2883
86.2883
86.2883
86.2883
86.2883
83.0303
83.03
83.0297
83.0294
83.0292
83.029
83.0289
83.0288
83.0287
83.0287
83.0286
83.0286
83.0286
83.0285
83.0285
83.0285
83.0285
83.0285
83.0285
83.0284
83.0284
83.0284
83.0284
83.0284
83.0284
83.0284
83.0284
83.0284
83.0284
83.0284
79.7704
79.7701
79.7698
79.7695
79.7693
79.7692
79.769
79.7689
79.7688
79.7688
79.7687
79.7687
79.7687
79.7687
79.7686
79.7686
79.7686
79.7686
79.7686
79.7686
79.7686
79.7685
79.7685
79.7685
79.7685
79.7685
79.7685
79.7685
79.7685
79.7685
76.5106
76.5102
76.5099
76.5097
76.5095
76.5093
76.5092
76.5091
76.509
76.509
76.5089
76.5089
76.5088
76.5088
76.5088
76.5088
76.5088
76.5088
76.5087
76.5087
76.5087
76.5087
76.5087
76.5087
76.5087
76.5087
76.5087
76.5087
76.5087
76.5087
73.2507
73.2503
73.25
73.2498
73.2496
73.2494
73.2493
73.2492
73.2491
73.2491
73.249
73.249
73.249
73.2489
73.2489
73.2489
73.2489
73.2489
73.2489
73.2489
73.2488
73.2488
73.2488
73.2488
73.2488
73.2488
73.2488
73.2488
73.2488
73.2488
69.9907
69.9904
69.9901
69.9899
69.9897
69.9895
69.9894
69.9893
69.9892
69.9892
69.9891
69.9891
69.9891
69.9891
69.989
69.989
69.989
69.989
69.989
69.989
69.989
69.989
69.9889
69.9889
69.9889
69.9889
69.9889
69.9889
69.9889
69.9889
66.7309
66.7306
66.7303
66.73
66.7299
66.7297
66.7296
66.7295
66.7294
66.7294
66.7293
66.7293
66.7292
66.7292
66.7292
66.7292
66.7292
66.7292
66.7292
66.7291
66.7291
66.7291
66.7291
66.7291
66.7291
66.7291
66.7291
66.7291
66.7291
66.7291
63.471
63.4707
63.4704
63.4701
63.47
63.4698
63.4697
63.4696
63.4695
63.4695
63.4694
63.4694
63.4694
63.4693
63.4693
63.4693
63.4693
63.4693
63.4693
63.4693
63.4693
63.4692
63.4692
63.4692
63.4692
63.4692
63.4692
63.4692
63.4692
63.4692
60.2111
60.2107
60.2105
60.2102
60.2101
60.2099
60.2098
60.2097
60.2096
60.2096
60.2095
60.2095
60.2095
60.2095
60.2094
60.2094
60.2094
60.2094
60.2094
60.2094
60.2094
60.2094
60.2094
60.2094
60.2093
60.2093
60.2093
60.2093
60.2093
60.2093
56.9512
56.9509
56.9506
56.9504
56.9502
56.9501
56.95
56.9499
56.9498
56.9497
56.9497
56.9497
56.9496
56.9496
56.9496
56.9496
56.9496
56.9496
56.9496
56.9496
56.9495
56.9495
56.9495
56.9495
56.9495
56.9495
56.9495
56.9495
56.9495
56.9495
53.6913
53.691
53.6907
53.6905
53.6903
53.6902
53.6901
53.69
53.6899
53.6899
53.6898
53.6898
53.6898
53.6897
53.6897
53.6897
53.6897
53.6897
53.6897
53.6897
53.6897
53.6897
53.6896
53.6896
53.6896
53.6896
53.6896
53.6896
53.6896
53.6896
50.4313
50.4311
50.4308
50.4306
50.4304
50.4303
50.4302
50.4301
50.43
50.43
50.4299
50.4299
50.4299
50.4299
50.4298
50.4298
50.4298
50.4298
50.4298
50.4298
50.4298
50.4298
50.4298
50.4298
50.4297
50.4298
50.4297
50.4298
50.4297
50.4298
47.1715
47.1712
47.1709
47.1707
47.1706
47.1704
47.1703
47.1703
47.1702
47.1701
47.1701
47.1701
47.17
47.17
47.17
47.17
47.17
47.17
47.17
47.17
47.1699
47.1699
47.1699
47.1699
47.1699
47.1699
47.1699
47.1699
47.1699
47.1699
43.9115
43.9113
43.911
43.9108
43.9107
43.9105
43.9104
43.9104
43.9103
43.9103
43.9102
43.9102
43.9102
43.9101
43.9101
43.9101
43.9101
43.9101
43.9101
43.9101
43.9101
43.9101
43.9101
43.9101
43.91
43.9101
43.91
43.9101
43.91
43.91
40.6516
40.6514
40.6511
40.6509
40.6508
40.6506
40.6505
40.6505
40.6504
40.6504
40.6503
40.6503
40.6503
40.6503
40.6502
40.6502
40.6502
40.6502
40.6502
40.6502
40.6502
40.6502
40.6502
40.6502
40.6502
40.6502
40.6501
40.6502
40.6501
40.6502
37.3917
37.3915
37.3912
37.3911
37.3909
37.3908
37.3907
37.3906
37.3906
37.3905
37.3905
37.3905
37.3904
37.3904
37.3904
37.3904
37.3904
37.3904
37.3904
37.3904
37.3904
37.3904
37.3903
37.3903
37.3903
37.3903
37.3903
37.3903
37.3903
37.3903
34.1318
34.1316
34.1313
34.1312
34.131
34.1309
34.1308
34.1307
34.1307
34.1306
34.1306
34.1306
34.1306
34.1305
34.1305
34.1305
34.1305
34.1305
34.1305
34.1305
34.1305
34.1305
34.1305
34.1305
34.1305
34.1305
34.1304
34.1305
34.1304
34.1305
30.8718
30.8716
30.8714
30.8713
30.8711
30.871
30.8709
30.8708
30.8708
30.8708
30.8707
30.8707
30.8707
30.8707
30.8706
30.8706
30.8706
30.8706
30.8706
30.8706
30.8706
30.8706
30.8706
30.8706
30.8706
30.8706
30.8705
30.8706
30.8705
30.8706
27.6119
27.6117
27.6115
27.6114
27.6112
27.6111
27.6111
27.611
27.6109
27.6109
27.6109
27.6109
27.6108
27.6108
27.6108
27.6108
27.6108
27.6108
27.6108
27.6108
27.6108
27.6108
27.6108
27.6108
27.6107
27.6108
27.6107
27.6108
27.6107
27.6108
24.352
24.3518
24.3516
24.3515
24.3513
24.3512
24.3512
24.3511
24.3511
24.351
24.351
24.351
24.351
24.3509
24.3509
24.3509
24.3509
24.3509
24.3509
24.3509
24.3509
24.3509
24.3509
24.3509
24.3509
24.3509
24.3508
24.3509
24.3508
24.3509
21.092
21.0919
21.0917
21.0916
21.0914
21.0913
21.0913
21.0912
21.0912
21.0911
21.0911
21.0911
21.0911
21.0911
21.091
21.091
21.091
21.091
21.091
21.091
21.091
21.091
21.091
21.091
21.091
21.091
21.091
21.091
21.0909
21.091
17.8322
17.832
17.8318
17.8317
17.8315
17.8315
17.8314
17.8314
17.8313
17.8313
17.8313
17.8312
17.8312
17.8312
17.8312
17.8312
17.8312
17.8312
17.8312
17.8312
17.8312
17.8312
17.8312
17.8312
17.8312
17.8312
17.8311
17.8312
17.8311
17.8312
14.5722
14.5721
14.5718
14.5718
14.5716
14.5716
14.5715
14.5715
14.5714
14.5714
14.5714
14.5714
14.5713
14.5713
14.5713
14.5713
14.5713
14.5713
14.5713
14.5713
14.5713
14.5713
14.5713
14.5713
14.5713
14.5713
14.5712
14.5713
14.5712
14.5714
11.3123
11.3121
11.3119
11.3119
11.3117
11.3117
11.3116
11.3116
11.3115
11.3115
11.3115
11.3115
11.3115
11.3115
11.3114
11.3114
11.3114
11.3114
11.3114
11.3114
11.3114
11.3114
11.3114
11.3114
11.3114
11.3114
11.3114
11.3114
11.3113
11.3114
8.05233
8.05221
8.05202
8.05197
8.05184
8.05182
8.05174
8.05172
8.05169
8.05167
8.05165
8.05163
8.05163
8.05161
8.05161
8.0516
8.0516
8.05159
8.05159
8.05159
8.05158
8.05158
8.05158
8.05158
8.05158
8.05157
8.05154
8.05158
8.05144
8.05169
4.79246
4.79232
4.79214
4.79209
4.79196
4.79194
4.79186
4.79184
4.7918
4.79178
4.79177
4.79175
4.79174
4.79173
4.79173
4.79172
4.79172
4.79171
4.79171
4.7917
4.7917
4.7917
4.7917
4.79169
4.7917
4.79169
4.79166
4.7917
4.7915
4.79173
1.53243
1.53232
1.53216
1.53212
1.53201
1.532
1.53194
1.53193
1.53189
1.53188
1.53187
1.53186
1.53185
1.53184
1.53184
1.53183
1.53183
1.53183
1.53182
1.53182
1.53182
1.53182
1.53182
1.53182
1.53183
1.53181
1.5318
1.53181
1.53167
1.53198
-151.253
19.256
35.058
1.77341
-6.97669
1.78007
0.699134
0.0260449
-0.04645
-0.191643
-0.139087
-0.101366
-0.0861411
-0.188835
0.125681
2.92543
1.91125
0.251695
0.00629166
-0.0350189
-0.0488959
-0.0662116
-0.0738634
-0.08665
-0.0883497
-0.0965426
-0.0957435
-0.10028
-0.09928
-0.101
0.389069
1.36893
4.38987
0.371984
-0.758914
0.0845333
-0.361267
0.00471382
-0.204517
-0.0462973
-0.2199
-0.102649
-0.134284
-0.122228
-0.119315
-0.143507
-0.104843
-0.10051
-0.104878
-0.103834
-0.105428
-0.107879
-0.105068
-0.109336
-0.105282
-0.10943
-0.106001
-0.108895
-0.10689
-0.108106
-0.782019
0.0407996
-0.209317
-0.137776
-0.174598
-0.178664
-0.132745
-0.203639
-0.173657
-0.126406
-0.119391
-0.109671
-0.120319
-0.119587
-0.135823
-0.0755988
-0.125044
-0.104715
-0.112651
-0.110586
-0.111973
-0.114514
-0.111627
-0.115867
-0.111833
-0.115941
-0.112549
-0.115418
-0.113433
-0.114643
-0.70656
-0.375767
-0.081427
-0.187574
-0.201352
-0.165943
-0.145392
-0.156777
-0.168344
-0.102957
-0.155142
-0.113892
-0.133147
-0.123705
-0.115385
-0.1307
-0.118182
-0.11395
-0.119622
-0.11759
-0.118556
-0.121142
-0.118163
-0.122446
-0.118389
-0.122505
-0.119102
-0.121966
-0.119981
-0.121185
-8.72233
2.01764
-1.24031
0.175875
-0.470139
-0.148591
-0.11253
-0.138238
-0.0993355
-0.124845
-0.109198
-0.1202
-0.127632
-0.120509
-0.140993
-0.106762
-0.135748
-0.11998
-0.126844
-0.124611
-0.12517
-0.127798
-0.124727
-0.128993
-0.124945
-0.129024
-0.125655
-0.128492
-0.126529
-0.127722
-3.51803
0.401044
-0.528749
-0.365212
-0.192968
-0.199442
-0.14128
-0.16012
-0.11887
-0.148046
-0.141343
-0.138012
-0.140206
-0.132067
-0.130534
-0.132382
-0.132808
-0.128
-0.13328
-0.131689
-0.131716
-0.134493
-0.131284
-0.135567
-0.131519
-0.135567
-0.132222
-0.135028
-0.133083
-0.134261
-3.09132
-0.497393
-0.143842
-0.161248
-0.126105
-0.172885
-0.068877
-0.159919
-0.0796763
-0.14842
-0.112184
-0.137751
-0.137927
-0.136558
-0.14842
-0.132032
-0.145892
-0.135524
-0.139994
-0.138846
-0.138308
-0.141198
-0.137845
-0.142132
-0.13808
-0.142093
-0.138785
-0.141555
-0.139637
-0.140799
4.25345
-0.726898
-0.242009
-0.231849
-0.148146
-0.222863
-0.14499
-0.186554
-0.132312
-0.170138
-0.140446
-0.154287
-0.149322
-0.143995
-0.145524
-0.141799
-0.146671
-0.142992
-0.146172
-0.145993
-0.14483
-0.147905
-0.144424
-0.148695
-0.144675
-0.14862
-0.14536
-0.148081
-0.146195
-0.147336
28.6744
0.414925
-0.412162
-0.218425
-0.177348
-0.202155
-0.149842
-0.186577
-0.123281
-0.167975
-0.130369
-0.156078
-0.149211
-0.151529
-0.157225
-0.150275
-0.15631
-0.151078
-0.152746
-0.153095
-0.151403
-0.154623
-0.15099
-0.155259
-0.151248
-0.155142
-0.151936
-0.154604
-0.152755
-0.153872
19.0098
3.01337
-0.477859
-0.22909
-0.195259
-0.20063
-0.134962
-0.200108
-0.128897
-0.18759
-0.14135
-0.170933
-0.157219
-0.159001
-0.159688
-0.157882
-0.159902
-0.158691
-0.159003
-0.160144
-0.157938
-0.16132
-0.157597
-0.161815
-0.157852
-0.161661
-0.158519
-0.161125
-0.159319
-0.160408
8.35473
-0.574939
0.293933
-0.593751
0.00616391
-0.280374
-0.0429763
-0.21188
-0.105605
-0.188671
-0.13801
-0.174346
-0.160437
-0.166588
-0.167679
-0.166159
-0.167242
-0.166298
-0.165587
-0.167169
-0.164518
-0.16802
-0.164168
-0.168368
-0.164447
-0.168175
-0.165106
-0.167642
-0.165884
-0.166944
0.412222
-0.573558
-0.15317
-0.271676
-0.134561
-0.192052
-0.0707544
-0.200878
-0.112346
-0.195895
-0.14727
-0.181114
-0.169215
-0.173717
-0.173473
-0.173657
-0.17312
-0.17366
-0.172007
-0.174124
-0.171088
-0.174688
-0.170794
-0.174911
-0.171057
-0.174684
-0.171698
-0.174157
-0.172453
-0.173478
-2.20933
-0.934682
0.0740327
-0.381593
-0.0146908
-0.243697
-0.0570183
-0.211955
-0.117737
-0.196933
-0.158264
-0.184221
-0.178185
-0.18108
-0.180813
-0.181281
-0.18001
-0.180958
-0.178673
-0.181048
-0.17769
-0.181351
-0.177393
-0.181448
-0.177672
-0.181188
-0.178295
-0.18067
-0.179024
-0.180013
-1.96481
-0.650179
-0.0126103
-0.30603
-0.0359852
-0.247992
-0.0738608
-0.215448
-0.135121
-0.197443
-0.174555
-0.18782
-0.187405
-0.188614
-0.187685
-0.188719
-0.186543
-0.188116
-0.185201
-0.187895
-0.18431
-0.187979
-0.18403
-0.187974
-0.184294
-0.187688
-0.184897
-0.187179
-0.185597
-0.186547
-1.47297
-0.990222
0.169201
-0.364879
-0.025888
-0.249685
-0.0989897
-0.207955
-0.161678
-0.19254
-0.191325
-0.19519
-0.196463
-0.196777
-0.195388
-0.196214
-0.193549
-0.195215
-0.19193
-0.194705
-0.190937
-0.194592
-0.19066
-0.19449
-0.190923
-0.194182
-0.191502
-0.193686
-0.192172
-0.19308
1.87819
-0.685048
0.000101323
-0.312096
-0.075691
-0.23129
-0.140509
-0.198282
-0.192673
-0.201452
-0.204426
-0.204626
-0.205341
-0.205001
-0.202751
-0.203587
-0.20033
-0.202192
-0.198594
-0.201442
-0.197597
-0.201174
-0.19731
-0.200996
-0.19756
-0.200672
-0.198113
-0.200191
-0.198751
-0.199613
3.64808
-0.684012
0.0283293
-0.282942
-0.133856
-0.195671
-0.191619
-0.207649
-0.213873
-0.215946
-0.218394
-0.215966
-0.21506
-0.213626
-0.210608
-0.21095
-0.207357
-0.209102
-0.205307
-0.208135
-0.204253
-0.207734
-0.203965
-0.207491
-0.204202
-0.207155
-0.204727
-0.206693
-0.20533
-0.206145
-1.5192
-0.174776
-0.281844
-0.165496
-0.230905
-0.231266
-0.240001
-0.243984
-0.242181
-0.237036
-0.23394
-0.228458
-0.224864
-0.222137
-0.218269
-0.218162
-0.214295
-0.215901
-0.212037
-0.214764
-0.210932
-0.214265
-0.21063
-0.213975
-0.210851
-0.213634
-0.211345
-0.213193
-0.211912
-0.212677
-5.21073
-0.378186
-0.363603
-0.305494
-0.337033
-0.347105
-0.322404
-0.301158
-0.279555
-0.262258
-0.250716
-0.240984
-0.234471
-0.230418
-0.225782
-0.225222
-0.221187
-0.222612
-0.218752
-0.221346
-0.21761
-0.220773
-0.217302
-0.220448
-0.217505
-0.220109
-0.217968
-0.219691
-0.218496
-0.219209
-3.89803
-0.76198
-0.527918
-0.46311
-0.466469
-0.493016
-0.41699
-0.374228
-0.318494
-0.285395
-0.265431
-0.251852
-0.243086
-0.238125
-0.232989
-0.232062
-0.227999
-0.229218
-0.225459
-0.227874
-0.224296
-0.227256
-0.223981
-0.22691
-0.224165
-0.226578
-0.224593
-0.226186
-0.225082
-0.22574
-1.32924
-1.05552
-0.315089
-0.612004
-0.454158
-0.557226
-0.43467
-0.393048
-0.332852
-0.296079
-0.273859
-0.259734
-0.250129
-0.245019
-0.239763
-0.238658
-0.234691
-0.235727
-0.232137
-0.234354
-0.230981
-0.233717
-0.230665
-0.233362
-0.23083
-0.233042
-0.231222
-0.23268
-0.231669
-0.23227
-0.910294
-0.757453
-0.506712
-0.447044
-0.4459
-0.427218
-0.396467
-0.35516
-0.320052
-0.293277
-0.275578
-0.264514
-0.255556
-0.251099
-0.246113
-0.245002
-0.241269
-0.24214
-0.238789
-0.24079
-0.237665
-0.240156
-0.237354
-0.239805
-0.237499
-0.239503
-0.237854
-0.239172
-0.238258
-0.238801
4.6606
0.0349396
-0.469245
-0.398871
-0.376471
-0.344577
-0.34185
-0.320468
-0.301674
-0.286064
-0.27428
-0.266831
-0.259693
-0.256495
-0.252025
-0.251117
-0.247716
-0.248464
-0.245407
-0.247184
-0.244345
-0.246574
-0.244047
-0.246238
-0.244172
-0.24596
-0.244488
-0.245661
-0.244847
-0.245331
5.90267
3.48476
-0.203431
-0.28148
-0.260187
-0.256737
-0.272145
-0.276191
-0.277265
-0.275091
-0.270965
-0.26794
-0.263278
-0.261434
-0.257651
-0.257066
-0.254069
-0.254712
-0.251996
-0.253541
-0.251021
-0.252975
-0.250743
-0.252664
-0.250849
-0.252413
-0.251125
-0.25215
-0.251438
-0.25186
6.63734
2.9208
-0.140524
-0.225083
-0.213137
-0.226619
-0.243574
-0.258288
-0.266242
-0.269973
-0.269911
-0.269603
-0.266879
-0.266139
-0.263121
-0.262905
-0.260338
-0.260896
-0.258555
-0.259866
-0.257692
-0.259361
-0.257442
-0.259082
-0.257529
-0.258863
-0.257764
-0.258637
-0.258031
-0.25839
7.73899
0.518903
-0.207383
-0.209229
-0.210041
-0.219932
-0.2336
-0.248744
-0.259588
-0.266825
-0.269886
-0.271688
-0.270705
-0.270818
-0.268623
-0.268644
-0.26656
-0.26703
-0.26509
-0.266164
-0.264358
-0.265733
-0.264142
-0.265494
-0.264211
-0.26531
-0.264404
-0.265123
-0.264624
-0.264919
0.578382
-0.26894
-0.231027
-0.212711
-0.209136
-0.216829
-0.232046
-0.248225
-0.260311
-0.268515
-0.272493
-0.275185
-0.275146
-0.275709
-0.274185
-0.274341
-0.272748
-0.273125
-0.271605
-0.27244
-0.271019
-0.272093
-0.270843
-0.271901
-0.270896
-0.271754
-0.271046
-0.271607
-0.271218
-0.271449
-0.232895
-0.25053
-0.230668
-0.235164
-0.231016
-0.237071
-0.245934
-0.258304
-0.267013
-0.273715
-0.277217
-0.279725
-0.280067
-0.280764
-0.279835
-0.28003
-0.278921
-0.279195
-0.278106
-0.2787
-0.277676
-0.278446
-0.277546
-0.278305
-0.277582
-0.278198
-0.27769
-0.278092
-0.277813
-0.277978
-0.281303
-0.275169
-0.252028
-0.253712
-0.250829
-0.253652
-0.260397
-0.269061
-0.275506
-0.280377
-0.283134
-0.285028
-0.285541
-0.286098
-0.285595
-0.285741
-0.285087
-0.285249
-0.284595
-0.284948
-0.28433
-0.284791
-0.284248
-0.284704
-0.284269
-0.284639
-0.284333
-0.284575
-0.284407
-0.284507
-0.287922
-0.284463
-0.276511
-0.276836
-0.277035
-0.27881
-0.28316
-0.286235
-0.288359
-0.289907
-0.290585
-0.2912
-0.29128
-0.291536
-0.291397
-0.291451
-0.291248
-0.291293
-0.291078
-0.291189
-0.290983
-0.291134
-0.290951
-0.291103
-0.290957
-0.29108
-0.290978
-0.291058
-0.291002
-0.291035
-0.101037
-0.101108
-0.101195
-0.101207
-0.101273
-0.101271
-0.101311
-0.101311
-0.10133
-0.101335
-0.101342
-0.101348
-0.101351
-0.101355
-0.101358
-0.101361
-0.101363
-0.101365
-0.101366
-0.101368
-0.101369
-0.10137
-0.101371
-0.101373
-0.101374
-0.101374
-0.101378
-0.101374
-0.101417
-0.101391
-0.10791
-0.107921
-0.107934
-0.107911
-0.107931
-0.10791
-0.107922
-0.107911
-0.107914
-0.107911
-0.10791
-0.10791
-0.107909
-0.107909
-0.107909
-0.107909
-0.10791
-0.10791
-0.10791
-0.107911
-0.107911
-0.107912
-0.107912
-0.107913
-0.107913
-0.107913
-0.107912
-0.107911
-0.107909
-0.107904
-0.11445
-0.11446
-0.114473
-0.114451
-0.11447
-0.11445
-0.114462
-0.114451
-0.114454
-0.114451
-0.11445
-0.11445
-0.114449
-0.114449
-0.114449
-0.114449
-0.11445
-0.11445
-0.11445
-0.114451
-0.114451
-0.114452
-0.114452
-0.114453
-0.114453
-0.114455
-0.114457
-0.114459
-0.114474
-0.114479
-0.120992
-0.121
-0.121014
-0.120991
-0.121011
-0.12099
-0.121002
-0.120991
-0.120994
-0.120992
-0.120991
-0.12099
-0.120989
-0.120989
-0.120989
-0.12099
-0.12099
-0.12099
-0.120991
-0.120991
-0.120992
-0.120992
-0.120992
-0.120993
-0.120993
-0.120993
-0.120993
-0.120992
-0.120991
-0.120987
-0.127531
-0.12754
-0.127553
-0.127531
-0.12755
-0.12753
-0.127542
-0.127531
-0.127534
-0.127532
-0.12753
-0.12753
-0.127529
-0.127529
-0.127529
-0.127529
-0.12753
-0.12753
-0.12753
-0.127531
-0.127531
-0.127532
-0.127532
-0.127533
-0.127533
-0.127534
-0.127535
-0.127538
-0.127541
-0.127545
-0.134073
-0.134079
-0.134093
-0.134071
-0.13409
-0.13407
-0.134082
-0.134071
-0.134074
-0.134071
-0.13407
-0.13407
-0.134069
-0.134069
-0.134069
-0.134069
-0.13407
-0.13407
-0.13407
-0.134071
-0.134071
-0.134072
-0.134072
-0.134073
-0.134072
-0.134073
-0.134073
-0.134073
-0.134072
-0.13407
-0.140613
-0.140619
-0.140633
-0.140611
-0.14063
-0.14061
-0.140622
-0.140611
-0.140614
-0.140612
-0.140611
-0.14061
-0.14061
-0.14061
-0.14061
-0.14061
-0.14061
-0.14061
-0.140611
-0.140611
-0.140611
-0.140612
-0.140612
-0.140613
-0.140613
-0.140614
-0.140614
-0.140616
-0.140615
-0.140618
-0.147153
-0.147159
-0.147173
-0.147151
-0.14717
-0.14715
-0.147161
-0.147151
-0.147154
-0.147152
-0.14715
-0.14715
-0.147149
-0.147149
-0.147149
-0.14715
-0.14715
-0.14715
-0.14715
-0.147151
-0.147151
-0.147152
-0.147152
-0.147153
-0.147152
-0.147153
-0.147152
-0.147153
-0.147152
-0.147152
-0.153694
-0.153699
-0.153712
-0.153691
-0.153709
-0.15369
-0.153701
-0.153691
-0.153694
-0.153691
-0.15369
-0.15369
-0.153689
-0.153689
-0.153689
-0.153689
-0.15369
-0.15369
-0.15369
-0.153691
-0.153691
-0.153691
-0.153692
-0.153692
-0.153692
-0.153693
-0.153692
-0.153694
-0.153692
-0.153694
-0.160234
-0.160239
-0.160252
-0.160231
-0.160249
-0.16023
-0.160241
-0.160231
-0.160234
-0.160232
-0.160231
-0.16023
-0.16023
-0.16023
-0.16023
-0.16023
-0.16023
-0.16023
-0.160231
-0.160231
-0.160231
-0.160232
-0.160232
-0.160233
-0.160232
-0.160233
-0.160232
-0.160234
-0.160231
-0.160232
-0.166775
-0.166778
-0.166791
-0.166771
-0.166789
-0.16677
-0.166781
-0.166771
-0.166774
-0.166772
-0.16677
-0.16677
-0.16677
-0.16677
-0.166769
-0.16677
-0.16677
-0.16677
-0.16677
-0.166771
-0.166771
-0.166771
-0.166772
-0.166772
-0.166772
-0.166773
-0.166772
-0.166773
-0.166771
-0.166773
-0.173315
-0.173318
-0.173331
-0.173311
-0.173328
-0.17331
-0.17332
-0.173311
-0.173313
-0.173311
-0.17331
-0.17331
-0.173309
-0.173309
-0.173309
-0.173309
-0.17331
-0.17331
-0.17331
-0.173311
-0.173311
-0.173311
-0.173311
-0.173312
-0.173311
-0.173313
-0.173311
-0.173313
-0.17331
-0.173312
-0.179855
-0.179858
-0.17987
-0.179851
-0.179868
-0.17985
-0.17986
-0.179851
-0.179854
-0.179852
-0.179851
-0.17985
-0.17985
-0.17985
-0.17985
-0.17985
-0.17985
-0.17985
-0.179851
-0.179851
-0.179851
-0.179851
-0.179852
-0.179852
-0.179852
-0.179853
-0.179851
-0.179853
-0.17985
-0.179852
-0.186395
-0.186398
-0.18641
-0.186391
-0.186407
-0.18639
-0.1864
-0.186391
-0.186393
-0.186391
-0.18639
-0.18639
-0.18639
-0.18639
-0.18639
-0.18639
-0.18639
-0.18639
-0.18639
-0.186391
-0.186391
-0.186391
-0.186391
-0.186392
-0.186391
-0.186392
-0.186391
-0.186392
-0.18639
-0.186392
-0.192935
-0.192937
-0.192949
-0.192931
-0.192946
-0.19293
-0.192939
-0.192931
-0.192933
-0.192931
-0.19293
-0.19293
-0.192929
-0.192929
-0.192929
-0.19293
-0.19293
-0.19293
-0.19293
-0.19293
-0.192931
-0.192931
-0.192931
-0.192932
-0.192931
-0.192932
-0.192931
-0.192932
-0.19293
-0.192931
-0.199476
-0.199477
-0.199488
-0.199471
-0.199486
-0.19947
-0.199479
-0.199471
-0.199473
-0.199472
-0.199471
-0.19947
-0.19947
-0.19947
-0.19947
-0.19947
-0.19947
-0.19947
-0.199471
-0.199471
-0.199471
-0.199471
-0.199471
-0.199472
-0.199471
-0.199472
-0.199471
-0.199472
-0.19947
-0.199471
-0.206016
-0.206017
-0.206027
-0.206011
-0.206025
-0.20601
-0.206019
-0.206011
-0.206013
-0.206011
-0.20601
-0.20601
-0.20601
-0.20601
-0.20601
-0.20601
-0.20601
-0.20601
-0.20601
-0.206011
-0.206011
-0.206011
-0.206011
-0.206011
-0.206011
-0.206012
-0.206011
-0.206012
-0.20601
-0.206011
-0.212555
-0.212556
-0.212566
-0.212551
-0.212564
-0.21255
-0.212558
-0.212551
-0.212553
-0.212551
-0.21255
-0.21255
-0.21255
-0.21255
-0.21255
-0.21255
-0.21255
-0.21255
-0.21255
-0.21255
-0.212551
-0.212551
-0.212551
-0.212551
-0.212551
-0.212551
-0.21255
-0.212551
-0.21255
-0.212551
-0.219096
-0.219096
-0.219105
-0.219091
-0.219103
-0.21909
-0.219098
-0.219091
-0.219093
-0.219091
-0.219091
-0.21909
-0.21909
-0.21909
-0.21909
-0.21909
-0.21909
-0.21909
-0.21909
-0.219091
-0.219091
-0.219091
-0.219091
-0.219091
-0.219091
-0.219092
-0.219091
-0.219092
-0.21909
-0.219091
-0.225635
-0.225636
-0.225644
-0.225631
-0.225642
-0.22563
-0.225637
-0.225631
-0.225632
-0.225631
-0.22563
-0.22563
-0.22563
-0.22563
-0.22563
-0.22563
-0.22563
-0.22563
-0.22563
-0.22563
-0.225631
-0.225631
-0.225631
-0.225631
-0.225631
-0.225631
-0.225631
-0.225631
-0.22563
-0.225631
-0.232175
-0.232175
-0.232183
-0.23217
-0.232181
-0.23217
-0.232176
-0.232171
-0.232172
-0.232171
-0.23217
-0.23217
-0.23217
-0.23217
-0.23217
-0.23217
-0.23217
-0.23217
-0.23217
-0.23217
-0.23217
-0.232171
-0.232171
-0.232171
-0.232171
-0.232171