/*--------------------------------*- C++ -*----------------------------------*\
| =========                 |                                                 |
| \\      /  F ield         | OpenFOAM: The Open Source CFD Toolbox           |
|  \\    /   O peration     | Version:  2.4.0                                 |
|   \\  /    A nd           | Web:      www.OpenFOAM.org                      |
|    \\/     M anipulation  |                                                 |
\*---------------------------------------------------------------------------*/
FoamFile
{
    version     2.0;
    format      ascii;
    class       surfaceScalarField;
    location    "0.079";
    object      phiAlpha;
}
// * * * * * * * * * * * * * * * * * * * * * * * * * * * * * * * * * * * * * //

dimensions      [0 3 -1 0 0 0 0];

internalField   nonuniform List<scalar> 
7080
(
-2.25397e-08
2.25397e-08
-3.88031e-08
1.62634e-08
-4.71511e-08
8.34798e-09
-4.96521e-08
2.50102e-09
-4.50542e-08
-4.59793e-09
-3.24188e-08
-1.26353e-08
-1.17608e-08
-2.0658e-08
1.65299e-08
-2.82907e-08
5.09865e-08
-3.44566e-08
8.85917e-08
-3.76052e-08
1.25829e-07
-3.72371e-08
1.59468e-07
-3.36388e-08
1.91596e-07
-3.21281e-08
2.0087e-07
-9.27467e-09
2.38786e-07
-3.79159e-08
1.81198e-07
5.75886e-08
1.85529e-07
-4.33077e-09
1.45126e-07
4.04022e-08
2.02285e-08
1.24898e-07
-1.25277e-07
1.44986e-07
-3.14289e-07
1.87643e-07
-3.59786e-07
4.38405e-08
-2.8533e-07
-7.4205e-08
-1.23084e-07
-1.62127e-07
6.15532e-08
-1.85048e-07
1.74553e-07
-1.14943e-07
1.84935e-07
-1.09676e-08
1.45688e-07
3.92471e-08
9.87278e-08
4.69601e-08
9.69082e-08
1.81953e-09
-2.99527e-08
5.24923e-08
-5.29156e-08
3.92264e-08
-6.70451e-08
2.24774e-08
-7.44894e-08
9.94538e-09
-7.3244e-08
-5.84336e-09
-6.15726e-08
-2.43068e-08
-3.8891e-08
-4.33396e-08
-5.25477e-09
-6.19269e-08
3.77757e-08
-7.74871e-08
8.62744e-08
-8.61039e-08
1.34956e-07
-8.59186e-08
1.81696e-07
-8.0379e-08
2.23179e-07
-7.36113e-08
2.45774e-07
-3.18692e-08
2.9568e-07
-8.78218e-08
2.45509e-07
1.07759e-07
2.60141e-07
-1.89623e-08
2.44274e-07
5.62687e-08
1.1761e-07
2.5156e-07
-8.03101e-08
3.41401e-07
-2.7885e-07
3.84808e-07
-3.81244e-07
1.46246e-07
-3.24842e-07
-1.30596e-07
-1.83924e-07
-3.03036e-07
-5.21377e-08
-3.1676e-07
4.7549e-08
-2.14664e-07
1.05877e-07
-6.92793e-08
1.10974e-07
3.31192e-08
8.1079e-08
7.6855e-08
1.84568e-07
-3.38462e-09
-3.10799e-08
8.35722e-08
-5.51773e-08
6.33238e-08
-7.04896e-08
3.77896e-08
-7.92027e-08
1.86585e-08
-7.91558e-08
-5.89026e-09
-6.84479e-08
-3.50147e-08
-4.63786e-08
-6.54088e-08
-1.29349e-08
-9.53706e-08
3.03279e-08
-1.2075e-07
7.93093e-08
-1.35085e-07
1.28348e-07
-1.34958e-07
1.75974e-07
-1.28005e-07
2.15361e-07
-1.12998e-07
2.47003e-07
-6.35116e-08
2.82178e-07
-1.22996e-07
2.64744e-07
1.25193e-07
2.73401e-07
-2.76188e-08
2.50769e-07
7.88999e-08
1.38681e-07
3.63649e-07
-2.41782e-08
5.02755e-07
-1.57201e-07
5.18301e-07
-2.41589e-07
2.30646e-07
-1.96087e-07
-1.76089e-07
-1.39677e-07
-3.59357e-07
-8.27351e-08
-3.73836e-07
-2.14901e-08
-2.75851e-07
2.16667e-08
-1.1242e-07
2.98839e-08
2.48803e-08
1.24778e-08
9.5243e-08
1.94389e-07
3.44288e-09
-3.12925e-08
1.14865e-07
-5.5598e-08
8.76293e-08
-7.11357e-08
5.33274e-08
-8.01611e-08
2.76839e-08
-8.04609e-08
-5.59044e-09
-7.00693e-08
-4.54063e-08
-4.82303e-08
-8.72479e-08
-1.48472e-08
-1.28754e-07
2.86264e-08
-1.64223e-07
7.7943e-08
-1.84402e-07
1.27254e-07
-1.84269e-07
1.76197e-07
-1.76947e-07
2.1169e-07
-1.48491e-07
2.56476e-07
-1.08298e-07
2.65067e-07
-1.31588e-07
2.80578e-07
1.09682e-07
2.86044e-07
-3.30854e-08
2.48663e-07
1.16281e-07
1.86282e-07
4.2603e-07
4.73926e-08
6.45088e-07
-3.41457e-08
6.02532e-07
-4.72867e-08
2.43799e-07
-2.6646e-08
-1.96639e-07
-2.36069e-08
-3.62139e-07
-4.14465e-08
-3.56182e-07
-5.1644e-08
-2.65822e-07
-4.05624e-08
-1.23479e-07
-3.10413e-08
1.53591e-08
-3.02612e-08
9.4463e-08
1.60576e-07
3.55224e-09
-3.1396e-08
1.46261e-07
-5.57808e-08
1.12014e-07
-7.13865e-08
6.8933e-08
-8.0565e-08
3.68624e-08
-8.10695e-08
-5.08592e-09
-7.08873e-08
-5.55886e-08
-4.92317e-08
-1.08903e-07
-1.59204e-08
-1.62065e-07
2.77227e-08
-2.07867e-07
7.73524e-08
-2.34032e-07
1.26974e-07
-2.3389e-07
1.77202e-07
-2.27175e-07
2.0945e-07
-1.80739e-07
2.65283e-07
-1.64131e-07
2.42681e-07
-1.08986e-07
2.85814e-07
6.65494e-08
2.76385e-07
-2.36561e-08
2.33356e-07
1.5931e-07
2.64715e-07
3.9467e-07
2.01635e-07
7.10098e-07
1.4616e-07
6.58011e-07
1.11844e-07
2.78021e-07
8.64732e-08
-1.71375e-07
2.81806e-08
-3.03869e-07
-4.02248e-08
-2.88218e-07
-6.85407e-08
-2.37674e-07
-5.98125e-08
-1.32348e-07
-4.81524e-08
3.6989e-09
-4.712e-08
9.34305e-08
1.13539e-07
-8.29318e-11
-3.15033e-08
1.77764e-07
-5.59614e-08
1.36472e-07
-7.16188e-08
8.45904e-08
-8.09523e-08
4.6196e-08
-8.16794e-08
-4.35886e-09
-7.17403e-08
-6.55276e-08
-5.03218e-08
-1.30322e-07
-1.71392e-08
-1.95247e-07
2.66894e-08
-2.51695e-07
7.66132e-08
-2.83955e-07
1.26695e-07
-2.83973e-07
1.7794e-07
-2.7842e-07
2.09573e-07
-2.12371e-07
2.71319e-07
-2.25877e-07
2.34197e-07
-7.18649e-08
2.8514e-07
1.56068e-08
3.01504e-07
-4.00199e-08
2.53752e-07
2.07062e-07
3.28391e-07
3.20031e-07
3.33292e-07
7.05197e-07
3.41005e-07
6.50298e-07
2.97994e-07
3.20447e-07
1.64107e-07
-3.75864e-08
1.24165e-08
-1.52096e-07
-8.08758e-08
-1.94915e-07
-1.06537e-07
-2.12586e-07
-7.262e-08
-1.66344e-07
-3.08254e-08
-3.80957e-08
-2.59843e-08
8.85894e-08
8.99399e-08
-2.38552e-09
-3.16295e-08
2.09393e-07
-5.61718e-08
1.61015e-07
-7.1886e-08
1.00305e-07
-8.14027e-08
5.57127e-08
-8.23962e-08
-3.36534e-09
-7.27538e-08
-7.51701e-08
-5.16321e-08
-1.51444e-07
-1.86198e-08
-2.2826e-07
2.5409e-08
-2.95724e-07
7.56799e-08
-3.34226e-07
1.26436e-07
-3.34729e-07
1.7821e-07
-3.30194e-07
2.13227e-07
-2.47389e-07
2.75821e-07
-2.88471e-07
2.48276e-07
-4.43196e-08
2.87942e-07
-2.40593e-08
3.4812e-07
-1.00198e-07
2.62518e-07
2.92664e-07
3.26185e-07
2.56365e-07
4.31296e-07
6.00085e-07
4.46051e-07
6.35543e-07
4.14564e-07
3.51742e-07
3.15512e-07
6.13666e-08
1.07997e-07
5.56286e-08
-8.34593e-08
-3.44741e-09
-1.39631e-07
-1.56404e-07
-1.13128e-07
-1.928e-07
-4.33633e-08
-1.07861e-07
-1.31966e-08
5.84227e-08
7.63912e-08
3.52136e-10
-3.17765e-08
2.4117e-07
-5.64159e-08
1.85654e-07
-7.21941e-08
1.16083e-07
-8.19257e-08
6.54443e-08
-8.32339e-08
-2.0571e-09
-7.39434e-08
-8.44606e-08
-5.31783e-08
-1.72209e-07
-2.03769e-08
-2.61061e-07
2.39052e-08
-3.40006e-07
7.45455e-08
-3.84867e-07
1.26188e-07
-3.86371e-07
1.77653e-07
-3.81659e-07
2.2199e-07
-2.91726e-07
2.71333e-07
-3.37813e-07
2.92449e-07
-6.54363e-08
2.97575e-07
-2.91852e-08
3.73034e-07
-1.75657e-07
3.01746e-07
3.63952e-07
2.77516e-07
2.80595e-07
4.15806e-07
4.61795e-07
5.00734e-07
5.50615e-07
4.52926e-07
3.99505e-07
3.37467e-07
1.76978e-07
2.09267e-07
1.83983e-07
6.82818e-08
1.37549e-07
-6.18869e-08
-2.62641e-08
-1.18689e-07
-1.35971e-07
-6.88156e-08
-1.57734e-07
-1.37613e-08
3.36834e-09
6.42754e-08
-1.64558e-09
-3.19449e-08
2.73115e-07
-5.6694e-08
2.10403e-07
-7.25427e-08
1.31931e-07
-8.25217e-08
7.54233e-08
-8.41931e-08
-3.85759e-10
-7.5311e-08
-9.33427e-08
-5.49647e-08
-1.92555e-07
-2.2418e-08
-2.93608e-07
2.2155e-08
-3.84579e-07
7.32084e-08
-4.3592e-07
1.25828e-07
-4.38991e-07
1.76764e-07
-4.32596e-07
2.32073e-07
-3.47034e-07
2.54773e-07
-3.60514e-07
3.25547e-07
-1.3621e-07
3.3019e-07
-3.38273e-08
3.6867e-07
-2.14138e-07
3.88941e-07
3.43681e-07
2.87248e-07
3.82288e-07
3.17297e-07
4.31746e-07
4.12929e-07
4.54983e-07
4.26815e-07
3.85618e-07
3.67284e-07
2.36509e-07
3.20844e-07
2.30423e-07
2.77816e-07
1.80577e-07
1.56493e-07
9.4996e-08
3.79444e-08
-1.75218e-08
-2.63712e-08
-9.33328e-08
-7.43664e-09
-1.55662e-08
5.75977e-08
-7.58948e-10
-3.21346e-08
3.0525e-07
-5.70059e-08
2.35274e-07
-7.29304e-08
1.47856e-07
-8.31896e-08
8.56825e-08
-8.5273e-08
1.69769e-09
-7.68565e-08
-1.01759e-07
-5.69941e-08
-2.12417e-07
-2.47511e-08
-3.25851e-07
2.01591e-08
-4.29489e-07
7.1659e-08
-4.8742e-07
1.25159e-07
-4.92491e-07
1.77066e-07
-4.84503e-07
2.35663e-07
-4.05631e-07
2.4902e-07
-3.73871e-07
3.38332e-07
-2.25522e-07
3.66316e-07
-6.18116e-08
3.29169e-07
-1.76991e-07
3.82756e-07
2.90095e-07
3.27624e-07
4.3742e-07
2.89084e-07
4.70286e-07
3.47504e-07
3.96564e-07
3.99655e-07
3.33467e-07
4.0743e-07
2.28735e-07
3.87536e-07
2.50316e-07
3.42541e-07
2.25573e-07
2.96697e-07
1.40839e-07
2.13645e-07
6.53697e-08
8.99601e-08
3.03094e-08
3.09703e-08
4.34823e-08
8.82305e-08
3.37464e-10
-3.23461e-08
3.37596e-07
-5.73513e-08
2.6028e-07
-7.33552e-08
1.6386e-07
-8.39275e-08
9.62548e-08
-8.64722e-08
4.24239e-09
-7.85805e-08
-1.09651e-07
-5.92705e-08
-2.31727e-07
-2.73852e-08
-3.57736e-07
1.78995e-08
-4.74774e-07
6.98853e-08
-5.39406e-07
1.24191e-07
-5.46796e-07
1.78586e-07
-5.38899e-07
2.32901e-07
-4.59946e-07
2.66124e-07
-4.07094e-07
3.46463e-07
-3.05861e-07
3.70142e-07
-8.54911e-08
3.27693e-07
-1.34542e-07
3.68713e-07
2.49075e-07
3.89239e-07
4.16894e-07
3.8808e-07
4.71445e-07
3.85185e-07
3.99459e-07
3.89463e-07
3.29189e-07
4.09986e-07
2.08212e-07
4.18985e-07
2.41318e-07
3.43023e-07
3.01535e-07
2.15763e-07
2.68099e-07
8.39988e-08
1.97006e-07
3.90389e-09
1.10362e-07
-1.0914e-08
5.83111e-08
7.2464e-08
4.85253e-09
-3.25795e-08
3.70175e-07
-5.77299e-08
2.8543e-07
-7.38147e-08
1.79944e-07
-8.47338e-08
1.07174e-07
-8.77894e-08
7.29798e-09
-8.04825e-08
-1.16958e-07
-6.17978e-08
-2.50412e-07
-3.03306e-08
-3.89203e-07
1.53589e-08
-5.20463e-07
6.78542e-08
-5.91901e-07
1.231e-07
-6.02041e-07
1.79758e-07
-5.95557e-07
2.30152e-07
-5.1034e-07
2.87539e-07
-4.64481e-07
3.33242e-07
-3.51564e-07
3.70935e-07
-1.23183e-07
3.75054e-07
-1.38662e-07
4.00065e-07
2.24064e-07
4.42228e-07
3.74731e-07
4.55289e-07
4.58383e-07
4.46861e-07
4.07887e-07
4.2825e-07
3.478e-07
3.40817e-07
2.95645e-07
2.6465e-07
3.17485e-07
2.22402e-07
3.43782e-07
2.00083e-07
2.90418e-07
1.53923e-07
2.43133e-07
8.49123e-08
1.7933e-07
2.98706e-08
1.13381e-07
1.04251e-07
-1.91661e-09
-3.28351e-08
4.0301e-07
-5.81414e-08
3.10736e-07
-7.43064e-08
1.96109e-07
-8.56063e-08
1.18474e-07
-8.9223e-08
1.09147e-08
-8.25624e-08
-1.23618e-07
-6.45803e-08
-2.68394e-07
-3.35982e-08
-4.20185e-07
1.24916e-08
-5.66553e-07
6.55415e-08
-6.44951e-07
1.21953e-07
-6.58453e-07
1.79656e-07
-6.5326e-07
2.33241e-07
-5.63925e-07
2.8963e-07
-5.20869e-07
3.33814e-07
-3.95749e-07
3.72383e-07
-1.61752e-07
4.18745e-07
-1.85024e-07
4.91639e-07
1.5117e-07
5.1959e-07
3.4678e-07
5.11619e-07
4.66355e-07
4.28141e-07
4.91365e-07
2.95743e-07
4.80198e-07
2.05835e-07
3.85553e-07
2.45563e-07
2.77756e-07
2.91037e-07
2.98308e-07
2.52365e-07
3.2909e-07
1.5953e-07
3.35969e-07
8.33509e-08
2.55468e-07
2.98009e-08
1.67005e-07
1.31743e-07
2.30874e-09
-3.31134e-08
4.36124e-07
-5.85854e-08
3.36208e-07
-7.48272e-08
2.12351e-07
-8.65425e-08
1.30189e-07
-9.07711e-08
1.51433e-08
-8.48204e-08
-1.29569e-07
-6.76218e-08
-2.85593e-07
-3.72005e-08
-4.50606e-07
9.28028e-09
-6.13034e-07
6.29338e-08
-6.98604e-07
1.2062e-07
-7.16139e-07
1.79093e-07
-7.11733e-07
2.34833e-07
-6.19665e-07
2.89949e-07
-5.75985e-07
3.09948e-07
-4.15747e-07
4.02943e-07
-2.54748e-07
5.14254e-07
-2.96335e-07
5.86174e-07
7.92497e-08
5.67062e-07
3.65893e-07
4.71518e-07
5.61899e-07
3.52229e-07
6.10654e-07
3.28095e-07
5.04331e-07
3.43491e-07
3.70157e-07
3.02555e-07
3.18692e-07
1.92408e-07
4.08455e-07
4.44805e-08
4.77018e-07
-1.56064e-08
3.96058e-07
-1.43024e-08
2.54348e-07
-7.63938e-09
1.60392e-07
1.216e-07
2.50287e-09
-3.34147e-08
4.69538e-07
-5.90616e-08
3.61855e-07
-7.53726e-08
2.28662e-07
-8.75392e-08
1.42356e-07
-9.24313e-08
2.00354e-08
-8.72555e-08
-1.34745e-07
-7.09275e-08
-3.01921e-07
-4.11509e-08
-4.80383e-07
5.6758e-09
-6.59861e-07
5.99963e-08
-7.52925e-07
1.19037e-07
-7.75179e-07
1.7713e-07
-7.69827e-07
2.37399e-07
-6.79934e-07
2.62678e-07
-6.01264e-07
3.25485e-07
-4.78554e-07
4.74158e-07
-4.03421e-07
5.36356e-07
-3.58532e-07
5.25108e-07
9.04974e-08
4.33913e-07
4.57088e-07
3.86874e-07
6.08938e-07
3.7494e-07
6.22588e-07
2.95174e-07
5.84097e-07
9.47372e-08
5.70594e-07
-9.14618e-08
5.04891e-07
-1.59948e-07
4.76941e-07
-1.45216e-07
4.62286e-07
-7.58685e-08
3.26712e-07
-1.82964e-08
1.96777e-07
1.92797e-10
1.41905e-07
1.24898e-07
-3.1059e-09
-3.37395e-08
5.03278e-07
-5.95694e-08
3.87685e-07
-7.59368e-08
2.4503e-07
-8.85937e-08
1.55013e-07
-9.4201e-08
2.56427e-08
-8.9867e-08
-1.39079e-07
-7.45019e-08
-3.17286e-07
-4.546e-08
-5.09425e-07
1.53492e-09
-7.06856e-07
5.66914e-08
-8.08081e-07
1.16763e-07
-8.35251e-07
1.74558e-07
-8.27622e-07
2.28886e-07
-7.34261e-07
2.36138e-07
-6.08517e-07
3.52407e-07
-5.94822e-07
4.97109e-07
-5.48124e-07
3.87851e-07
-2.49274e-07
3.49722e-07
1.28627e-07
4.31688e-07
3.75121e-07
4.63468e-07
5.77158e-07
4.07191e-07
6.78864e-07
3.88741e-07
6.02547e-07
3.9504e-07
5.64295e-07
3.54988e-07
5.44944e-07
2.95731e-07
5.36198e-07
2.84875e-07
4.73131e-07
2.6891e-07
3.42672e-07
2.03376e-07
2.62312e-07
1.05067e-07
2.40181e-07
2.35098e-07
-5.15388e-09
-3.40884e-08
5.37366e-07
-6.01086e-08
4.13706e-07
-7.65125e-08
2.61433e-07
-8.97047e-08
1.68205e-07
-9.60773e-08
3.20153e-08
-9.26535e-08
-1.42503e-07
-7.83505e-08
-3.31589e-07
-5.01328e-08
-5.37643e-07
-2.05303e-09
-7.54936e-07
5.29517e-08
-8.63086e-07
1.13309e-07
-8.95608e-07
1.7018e-07
-8.84493e-07
2.06984e-07
-7.71065e-07
2.5063e-07
-6.52162e-07
3.48811e-07
-6.93003e-07
3.87804e-07
-5.87116e-07
3.56838e-07
-2.18308e-07
4.72265e-07
1.31997e-08
5.28469e-07
3.18917e-07
5.90488e-07
5.15139e-07
6.07955e-07
6.61397e-07
5.23529e-07
6.86974e-07
4.81336e-07
6.06488e-07
4.49272e-07
5.77009e-07
4.20026e-07
5.65438e-07
4.05224e-07
4.8793e-07
3.49587e-07
3.98305e-07
2.41223e-07
3.70677e-07
1.14564e-07
3.66821e-07
3.53463e-07
-3.81408e-09
-3.4462e-08
5.71828e-07
-6.06787e-08
4.39922e-07
-7.71022e-08
2.77857e-07
-9.08705e-08
1.81973e-07
-9.8057e-08
3.92018e-08
-9.56136e-08
-1.44946e-07
-8.24785e-08
-3.44724e-07
-5.51907e-08
-5.6493e-07
-5.98653e-09
-8.0414e-07
4.86185e-08
-9.17691e-07
1.08342e-07
-9.55332e-07
1.62559e-07
-9.3871e-07
1.85194e-07
-7.937e-07
2.73696e-07
-7.40664e-07
2.94363e-07
-7.1367e-07
3.46266e-07
-6.3902e-07
5.32866e-07
-4.04908e-07
5.82752e-07
-3.66862e-08
5.49203e-07
3.52465e-07
5.9648e-07
4.67863e-07
6.43129e-07
6.14748e-07
4.62573e-07
8.67529e-07
2.12247e-07
8.56814e-07
1.23037e-07
6.66219e-07
1.37136e-07
5.51338e-07
1.59443e-07
4.65621e-07
1.70858e-07
3.86893e-07
1.34464e-07
4.07072e-07
6.08884e-08
4.40331e-07
4.11627e-07
2.75029e-09
-3.4861e-08
6.06689e-07
-6.12794e-08
4.66341e-07
-7.77149e-08
2.94292e-07
-9.20898e-08
1.96348e-07
-1.00136e-07
4.72484e-08
-9.87447e-08
-1.46338e-07
-8.68924e-08
-3.56576e-07
-6.06587e-08
-5.91164e-07
-1.03637e-08
-8.54435e-07
4.35086e-08
-9.71563e-07
1.02331e-07
-1.01415e-06
1.5318e-07
-9.89559e-07
1.8783e-07
-8.28351e-07
2.60679e-07
-8.13513e-07
2.7379e-07
-7.26781e-07
4.39327e-07
-8.04556e-07
5.0731e-07
-4.72885e-07
5.44548e-07
-7.39352e-08
7.84027e-07
7.49127e-08
8.68073e-07
3.61064e-07
1.03464e-06
4.48181e-07
9.72376e-07
9.29793e-07
7.50632e-07
1.07856e-06
4.29527e-07
9.87324e-07
2.04282e-07
7.76583e-07
8.89489e-08
5.80959e-07
5.70945e-08
4.1875e-07
4.9399e-08
4.14263e-07
2.11757e-08
4.68592e-07
4.26115e-07
6.67598e-09
-3.52864e-08
6.41976e-07
-6.19102e-08
4.92964e-07
-7.83554e-08
3.10738e-07
-9.33608e-08
2.11354e-07
-1.02311e-07
5.6199e-08
-1.02043e-07
-1.46606e-07
-9.15987e-08
-3.6702e-07
-6.65611e-08
-6.16202e-07
-1.51464e-08
-9.05849e-07
3.76852e-08
-1.02439e-06
9.7024e-08
-1.07349e-06
1.45795e-07
-1.03833e-06
2.04296e-07
-8.86852e-07
2.23037e-07
-8.32254e-07
3.57477e-07
-8.6122e-07
3.28832e-07
-7.75897e-07
4.5575e-07
-5.33048e-07
5.56309e-07
-1.71104e-07
3.73757e-07
1.32721e-07
1.44485e-07
5.19747e-07
2.10888e-07
2.9085e-07
4.80551e-07
5.48238e-07
6.9903e-07
8.27068e-07
5.7229e-07
1.11406e-06
3.70811e-07
9.78061e-07
2.04978e-07
7.46793e-07
9.37441e-08
5.29984e-07
3.69341e-08
4.70912e-07
1.17981e-08
4.93728e-07
4.35235e-07
2.66369e-09
-3.57389e-08
6.77714e-07
-6.25707e-08
5.19796e-07
-7.90216e-08
3.27189e-07
-9.46813e-08
2.27013e-07
-1.04577e-07
6.60944e-08
-1.05504e-07
-1.45679e-07
-9.66068e-08
-3.75918e-07
-7.29195e-08
-6.39889e-07
-2.03233e-08
-9.58446e-07
3.16964e-08
-1.07641e-06
9.40132e-08
-1.13581e-06
1.41921e-07
-1.08624e-06
2.01873e-07
-9.46803e-07
2.23031e-07
-8.53412e-07
2.66729e-07
-9.04909e-07
3.72402e-07
-8.32185e-07
1.10747e-07
-1.79769e-07
-9.95068e-08
-1.20426e-08
-3.38934e-07
1.90783e-07
-3.09684e-07
3.82424e-07
-2.51594e-07
2.57908e-07
-1.57679e-07
4.73697e-07
3.21837e-07
3.23593e-07
5.82676e-07
8.41046e-07
4.76032e-07
1.08469e-06
3.14459e-07
9.08365e-07
1.60041e-07
6.84402e-07
6.67301e-08
5.64085e-07
2.24267e-08
5.37678e-07
4.59266e-07
-1.78125e-09
-3.62197e-08
7.13934e-07
-6.32603e-08
5.46837e-07
-7.97091e-08
3.43637e-07
-9.6049e-08
2.43353e-07
-1.06927e-07
7.69728e-08
-1.09124e-07
-1.43482e-07
-1.01926e-07
-3.83116e-07
-7.97492e-08
-6.62065e-07
-2.58207e-08
-1.01237e-06
2.61759e-08
-1.12841e-06
9.22603e-08
-1.20189e-06
1.36981e-07
-1.13096e-06
1.83783e-07
-9.93604e-07
2.22265e-07
-8.91885e-07
1.76362e-07
-8.27827e-07
2.18181e-07
-3.12024e-07
1.23148e-08
-2.73165e-09
-8.91936e-08
8.43884e-09
-1.02704e-07
-1.89084e-08
-2.05996e-07
2.39958e-07
-2.65108e-08
2.24558e-08
8.52027e-08
3.95057e-07
2.10991e-07
2.13633e-07
4.38213e-07
6.06014e-07
4.28211e-07
1.09605e-06
3.02152e-07
1.03442e-06
1.71503e-07
8.15051e-07
8.21356e-08
6.53832e-07
3.46236e-08
5.83223e-07
4.95787e-07
-1.83475e-09
-3.67297e-08
7.50664e-07
-6.39788e-08
5.74086e-07
-8.04137e-08
3.60072e-07
-9.74613e-08
2.60401e-07
-1.09358e-07
8.88695e-08
-1.12899e-07
-1.39941e-07
-1.07564e-07
-3.88452e-07
-8.70488e-08
-6.8258e-07
-3.15315e-08
-1.06789e-06
2.08607e-08
-1.1808e-06
8.77151e-08
-1.26875e-06
1.26842e-07
-1.17009e-06
1.71054e-07
-1.03781e-06
1.63921e-07
-8.6003e-07
2.55999e-07
-2.21964e-07
6.77747e-09
-5.20043e-09
4.0517e-09
-1.77146e-11
1.07915e-08
1.65134e-09
-6.00889e-08
3.50569e-09
-1.94219e-07
7.31395e-08
-4.83692e-08
-2.24537e-07
1.10525e-07
2.30547e-07
1.20474e-07
2.0474e-07
1.87173e-07
5.38417e-07
2.85149e-07
9.92483e-07
2.28715e-07
1.09086e-06
1.55722e-07
8.88046e-07
9.19231e-08
7.17626e-07
3.95668e-08
6.35566e-07
5.35733e-07
-3.43558e-10
-3.72702e-08
7.87934e-07
-6.47253e-08
6.01541e-07
-8.11311e-08
3.76478e-07
-9.89137e-08
2.78183e-07
-1.11858e-07
1.01814e-07
-1.16823e-07
-1.34976e-07
-1.13533e-07
-3.91742e-07
-9.48197e-08
-7.01293e-07
-3.7471e-08
-1.12524e-06
1.39738e-08
-1.23225e-06
7.50385e-08
-1.32981e-06
1.15483e-07
-1.21053e-06
1.51111e-07
-1.06823e-06
2.19542e-07
-2.97295e-07
4.79621e-09
-6.92785e-09
-6.50344e-12
-3.5616e-10
1.38139e-11
-3.80649e-11
1.42397e-09
2.3872e-10
4.38932e-09
5.0383e-10
-1.03658e-07
-5.48539e-09
-3.12214e-07
-2.08692e-07
-1.04439e-07
2.34261e-08
-4.01683e-08
1.41489e-07
1.68858e-08
4.80389e-07
1.17401e-07
8.84077e-07
1.26232e-07
1.08204e-06
1.01656e-07
9.12622e-07
5.91715e-08
7.60114e-07
2.29425e-08
6.71791e-07
5.61873e-07
-3.1812e-09
-3.78426e-08
8.25777e-07
-6.55001e-08
6.29198e-07
-8.18589e-08
3.92837e-07
-1.00407e-07
2.96731e-07
-1.14431e-07
1.15838e-07
-1.20897e-07
-1.2851e-07
-1.19842e-07
-3.92798e-07
-1.03053e-07
-7.18082e-07
-4.38978e-08
-1.1844e-06
1.68816e-09
-1.27783e-06
4.82952e-08
-1.37642e-06
1.20651e-07
-1.28273e-06
2.19089e-07
-5.61547e-07
5.07813e-09
-2.25311e-08
2.48007e-10
-1.94946e-09
3.0501e-11
-1.29571e-10
2.06498e-11
-2.92145e-11
1.42656e-10
1.17474e-10
7.07323e-11
6.46502e-10
-6.06598e-09
7.64123e-10
-3.20725e-07
-1.32755e-07
-3.25313e-07
-7.881e-08
-1.51647e-07
-3.21454e-08
-9.11887e-08
4.36828e-07
-1.61877e-08
8.11951e-07
2.92718e-08
1.03672e-06
2.19723e-08
9.19922e-07
6.65751e-09
7.7295e-07
3.46618e-09
6.74981e-07
5.67596e-07
-3.83174e-09
-3.84426e-08
8.64219e-07
-6.62986e-08
6.57054e-07
-8.25878e-08
4.09126e-07
-1.01923e-07
3.16067e-07
-1.17035e-07
1.3095e-07
-1.25081e-07
-1.20464e-07
-1.26489e-07
-3.9139e-07
-1.1176e-07
-7.32811e-07
-5.21068e-08
-1.24405e-06
-3.48256e-08
-1.29512e-06
4.89915e-09
-1.41613e-06
2.33845e-07
-7.48815e-07
2.15972e-08
-7.47415e-08
1.90854e-09
-1.76486e-09
1.05015e-10
-8.60042e-11
3.55257e-11
-1.28427e-11
1.59791e-11
-9.50153e-12
5.23681e-11
7.98505e-11
4.21326e-10
2.83334e-10
1.64949e-08
9.44359e-10
-2.80184e-07
-3.96484e-08
-3.93265e-07
-1.7707e-07
-2.44455e-07
-1.80912e-07
-1.65761e-07
3.58799e-07
-1.20454e-07
7.86205e-07
-5.80772e-08
9.74153e-07
-2.4506e-08
8.8629e-07
-2.0054e-08
7.68213e-07
-1.28019e-09
6.56205e-07
5.64853e-07
1.46235e-09
-3.91947e-08
9.03414e-07
-6.7147e-08
6.85007e-07
-8.33452e-08
4.25324e-07
-1.0351e-07
3.36232e-07
-1.19736e-07
1.47176e-07
-1.29425e-07
-1.10775e-07
-1.3348e-07
-3.87335e-07
-1.20877e-07
-7.45414e-07
-6.8534e-08
-1.29639e-06
-7.78233e-08
-1.28582e-06
1.66594e-07
-1.3112e-06
7.39146e-08
-8.20992e-08
1.80911e-09
-2.05536e-09
9.49468e-11
-3.5938e-11
7.41601e-12
-6.0929e-13
8.49101e-12
-1.77371e-12
1.46755e-11
-1.55033e-11
3.11544e-11
6.30945e-11
1.74876e-10
1.3824e-10
1.32837e-10
5.42797e-10
-6.08614e-08
-4.5399e-11
-3.5575e-07
-1.65e-07
-3.44841e-07
-1.91793e-07
-2.43975e-07
2.57934e-07
-1.76037e-07
7.18284e-07
-1.02005e-07
9.00935e-07
-5.11936e-08
8.35476e-07
-2.48853e-08
7.41902e-07
-1.31143e-09
6.32631e-07
5.58635e-07
4.90614e-09
-3.80393e-08
9.41453e-07
-6.77975e-08
7.14765e-07
-8.38191e-08
4.41346e-07
-1.04809e-07
3.57222e-07
-1.22266e-07
1.64633e-07
-1.33806e-07
-9.92353e-08
-1.4091e-07
-3.80231e-07
-1.30769e-07
-7.55556e-07
-1.1529e-07
-1.31187e-06
-7.05022e-08
-1.33046e-06
7.9924e-08
-2.98592e-07
1.90823e-09
-3.42729e-09
3.86978e-11
-1.71372e-10
4.28867e-12
-3.92758e-12
2.01303e-12
-1.17192e-13
1.26407e-11
-1.00435e-13
4.01396e-11
-6.00064e-11
2.14537e-11
8.16681e-11
2.30389e-11
1.36811e-10
7.94335e-11
6.03986e-11
4.86561e-11
2.23004e-12
-3.85059e-07
5.68651e-09
-4.49568e-07
-1.31778e-07
-3.68984e-07
1.77351e-07
-2.8999e-07
6.3929e-07
-1.88119e-07
7.99175e-07
-1.38202e-07
7.86114e-07
-6.69199e-08
6.70623e-07
-2.5838e-08
5.91549e-07
5.32752e-07
1.5866e-09
-5.98131e-08
1.00127e-06
-7.00829e-08
7.25035e-07
-8.6812e-08
4.58075e-07
-1.08434e-07
3.78843e-07
-1.25952e-07
1.82151e-07
-1.3845e-07
-8.67368e-08
-1.484e-07
-3.70281e-07
-1.39799e-07
-7.64157e-07
-1.76492e-07
-1.26441e-06
2.71387e-07
-9.37401e-07
2.15097e-09
-2.96375e-08
6.53618e-11
-1.38326e-09
2.7497e-12
-1.11607e-10
6.61386e-13
-3.16494e-12
2.25813e-12
-3.58267e-12
2.50706e-11
-3.34201e-12
3.2354e-11
-4.56243e-11
1.72064e-11
1.23349e-10
3.68227e-11
1.36581e-10
4.24592e-11
7.39133e-11
3.76773e-11
1.75301e-11
-8.12518e-08
1.76218e-08
-4.84233e-07
7.72237e-08
-4.45362e-07
1.3848e-07
-3.50967e-07
5.44895e-07
-2.1149e-07
6.59699e-07
-1.67058e-07
7.41968e-07
-1.01227e-07
6.074e-07
-4.62973e-08
5.36622e-07
4.87998e-07
-1.21102e-09
8.88747e-08
9.12392e-07
-6.96733e-08
8.83583e-07
-7.59024e-08
4.64304e-07
-1.02188e-07
4.05129e-07
-1.25224e-07
2.05188e-07
-1.43818e-07
-6.81425e-08
-1.58561e-07
-3.55539e-07
-1.70929e-07
-7.51787e-07
8.36166e-08
-1.53246e-06
2.45098e-08
-4.20728e-07
1.17825e-09
-6.31941e-09
1.04439e-10
-3.04351e-10
3.22537e-12
-1.14832e-11
8.81902e-13
-1.41107e-12
1.49346e-11
-2.23719e-11
3.89428e-11
-1.56343e-11
2.72582e-11
-1.7463e-11
4.18994e-11
1.74941e-10
3.28162e-11
1.78975e-10
3.38714e-11
9.59424e-11
3.27613e-11
3.62925e-11
1.61387e-08
1.53562e-09
-5.43028e-07
2.53837e-07
-4.39188e-07
3.46405e-08
-2.90045e-07
3.95752e-07
-1.89798e-07
5.59452e-07
-1.37939e-07
6.90146e-07
-9.37272e-08
5.63484e-07
-4.14324e-08
4.86094e-07
2.14952e-09
4.44418e-07
-1.0033e-07
1.02149e-07
-1.46797e-07
4.64673e-08
-1.86553e-07
3.97554e-08
-1.78882e-07
-8.19349e-09
-6.66841e-08
-1.14202e-07
1.19001e-07
-1.86061e-07
2.83622e-07
-1.64511e-07
3.59548e-07
-7.57175e-08
3.14294e-07
4.36077e-08
1.24758e-07
1.88167e-07
-2.1009e-08
1.45255e-07
-1.45603e-07
1.24594e-07
-1.8567e-07
4.00672e-08
-1.81458e-07
-4.21154e-09
-2.38537e-07
5.70787e-08
-2.01039e-07
-3.74986e-08
-1.91194e-07
-9.84422e-09
-1.59367e-07
-3.18275e-08
-1.25567e-07
-3.37995e-08
-8.84448e-08
-3.71226e-08
-5.08012e-08
-3.76436e-08
-1.64143e-08
-3.43869e-08
1.18583e-08
-2.82727e-08
3.24499e-08
-2.05915e-08
4.5013e-08
-1.25631e-08
4.956e-08
-4.54707e-09
4.70488e-08
2.51124e-09
3.87208e-08
8.32794e-09
2.25257e-08
1.61952e-08
2.25256e-08
-8.40699e-08
1.8607e-07
-1.11903e-07
7.43008e-08
-1.07227e-07
3.40035e-08
-5.03708e-08
-6.50361e-08
4.7926e-08
-2.12524e-07
1.78322e-07
-3.16363e-07
3.21581e-07
-3.07752e-07
3.79218e-07
-1.33344e-07
2.77671e-07
1.45167e-07
7.99478e-08
3.84516e-07
-1.18025e-07
3.41721e-07
-2.44504e-07
2.5107e-07
-2.60309e-07
5.58724e-08
-2.45804e-07
-1.87173e-08
-2.95314e-07
1.06589e-07
-2.45961e-07
-8.68516e-08
-2.22699e-07
-3.31065e-08
-1.81565e-07
-7.29613e-08
-1.34657e-07
-8.0707e-08
-8.60877e-08
-8.56923e-08
-3.75694e-08
-8.61619e-08
5.41433e-09
-7.73706e-08
3.89925e-08
-6.18509e-08
6.15859e-08
-4.31849e-08
7.31704e-08
-2.41476e-08
7.43627e-08
-5.73938e-09
6.69208e-08
9.95318e-09
5.28234e-08
2.24253e-08
2.99401e-08
3.90786e-08
5.24657e-08
-5.99285e-09
1.96288e-07
-2.60058e-08
9.53135e-08
-2.01772e-08
2.81506e-08
2.20461e-08
-1.07246e-07
8.22967e-08
-2.727e-07
1.36787e-07
-3.71013e-07
1.93504e-07
-3.64382e-07
2.39907e-07
-1.79736e-07
1.56254e-07
2.28831e-07
2.51464e-08
5.16129e-07
-1.38572e-07
5.03933e-07
-2.50937e-07
3.63434e-07
-2.7336e-07
7.82956e-08
-2.65004e-07
-2.70736e-08
-2.81561e-07
1.23146e-07
-2.47199e-07
-1.21213e-07
-2.1485e-07
-6.54561e-08
-1.75834e-07
-1.11977e-07
-1.28046e-07
-1.28496e-07
-7.91135e-08
-1.34625e-07
-3.01108e-08
-1.35165e-07
1.30965e-08
-1.20578e-07
4.64818e-08
-9.52362e-08
6.84595e-08
-6.51625e-08
7.90776e-08
-3.47658e-08
7.90707e-08
-5.73246e-09
7.03621e-08
1.86618e-08
5.5084e-08
3.77034e-08
3.10678e-08
6.30947e-08
8.35335e-08
3.67644e-08
1.63076e-07
3.38539e-08
9.8224e-08
4.32985e-08
1.87061e-08
5.67969e-08
-1.20733e-07
4.65536e-08
-2.62641e-07
2.53943e-08
-3.50057e-07
2.70791e-08
-3.65812e-07
4.70299e-08
-1.99595e-07
3.36311e-08
2.42241e-07
-4.80987e-08
6.00539e-07
-1.87217e-07
6.46358e-07
-2.48296e-07
4.24514e-07
-2.86048e-07
1.16047e-07
-2.80597e-07
-3.25239e-08
-2.64203e-07
1.06752e-07
-2.56645e-07
-1.28771e-07
-2.1117e-07
-1.10931e-07
-1.76051e-07
-1.47096e-07
-1.2695e-07
-1.77597e-07
-7.77514e-08
-1.83823e-07
-2.83979e-08
-1.84518e-07
1.501e-08
-1.63986e-07
4.83355e-08
-1.28562e-07
7.00816e-08
-8.69086e-08
8.03814e-08
-4.50656e-08
8.00276e-08
-5.37868e-09
7.10069e-08
2.76825e-08
5.55041e-08
5.32061e-08
3.12809e-08
8.73179e-08
1.14814e-07
4.7165e-08
1.15828e-07
4.94091e-08
9.59798e-08
6.36347e-08
4.4805e-09
7.39305e-08
-1.31161e-07
4.58961e-08
-2.34791e-07
-2.42843e-08
-2.80351e-07
-8.55416e-08
-3.04537e-07
-1.127e-07
-1.72531e-07
-1.47406e-07
2.76794e-07
-2.01717e-07
6.54854e-07
-2.65728e-07
7.124e-07
-2.33371e-07
3.92156e-07
-2.75347e-07
1.58024e-07
-2.85744e-07
-2.2127e-08
-2.4166e-07
6.26681e-08
-2.65429e-07
-1.05002e-07
-2.08949e-07
-1.67411e-07
-1.7705e-07
-1.78995e-07
-1.26668e-07
-2.27979e-07
-7.7161e-08
-2.33329e-07
-2.75044e-08
-2.34175e-07
1.60842e-08
-2.07574e-07
4.93383e-08
-1.61816e-07
7.08998e-08
-1.0847e-07
8.09885e-08
-5.51542e-08
8.04298e-08
-4.82002e-09
7.12563e-08
3.68561e-08
5.56864e-08
6.87761e-08
3.13849e-08
1.11619e-07
1.46199e-07
2.3351e-08
9.00916e-08
3.08227e-08
8.8508e-08
7.53757e-08
-4.00725e-08
1.10139e-07
-1.65975e-07
8.42851e-08
-2.09528e-07
-7.44332e-09
-1.8861e-07
-1.62259e-07
-1.49674e-07
-2.97962e-07
-3.69185e-08
-3.4153e-07
3.19816e-07
-3.3363e-07
6.46954e-07
-3.29168e-07
7.07939e-07
-2.53917e-07
3.16905e-07
-3.0202e-07
2.06127e-07
-2.85074e-07
-3.90732e-08
-2.33677e-07
1.12711e-08
-2.71472e-07
-6.72063e-08
-2.09135e-07
-2.29748e-07
-1.77781e-07
-2.10349e-07
-1.26387e-07
-2.79374e-07
-7.64202e-08
-2.83296e-07
-2.64594e-08
-2.84136e-07
1.73035e-08
-2.51337e-07
5.04298e-08
-1.94942e-07
7.17529e-08
-1.29793e-07
8.15965e-08
-6.49979e-08
8.0815e-08
-4.03856e-09
7.1487e-08
4.61841e-08
5.58663e-08
8.43968e-08
3.1493e-08
1.35993e-07
1.77692e-07
1.35392e-08
7.69045e-08
4.37867e-08
5.82604e-08
1.13493e-07
-1.09779e-07
1.40968e-07
-1.93403e-07
8.75453e-08
-1.56093e-07
-1.0075e-07
-3.02357e-10
-3.12554e-07
6.2346e-08
-4.13922e-07
6.43579e-08
-4.44796e-07
3.50498e-07
-4.30786e-07
6.32943e-07
-3.2779e-07
6.04943e-07
-2.64107e-07
2.53222e-07
-3.47686e-07
2.89705e-07
-2.88233e-07
-9.85267e-08
-2.48399e-07
-2.85631e-08
-2.76022e-07
-3.95829e-08
-2.12874e-07
-2.92896e-07
-1.7804e-07
-2.45183e-07
-1.26121e-07
-3.31292e-07
-7.54898e-08
-3.33928e-07
-2.51918e-08
-3.34434e-07
1.87853e-08
-2.95314e-07
5.17415e-08
-2.27899e-07
7.27663e-08
-1.50818e-07
8.23113e-08
-7.45428e-08
8.12628e-08
-2.99012e-09
7.17523e-08
5.56946e-08
5.6076e-08
1.00073e-07
3.16201e-08
1.60449e-07
2.09312e-07
1.11943e-08
6.40645e-08
6.79341e-08
1.52063e-09
1.17163e-07
-1.59008e-07
5.87617e-08
-1.34971e-07
-7.20082e-08
-2.53458e-08
-2.13241e-07
1.40941e-07
-3.37567e-07
1.86825e-07
-4.50489e-07
1.77435e-07
-4.98978e-07
3.98944e-07
-4.15659e-07
5.49624e-07
-2.78448e-07
4.67733e-07
-3.03391e-07
2.78165e-07
-3.72561e-07
3.58875e-07
-2.9791e-07
-1.73178e-07
-2.92931e-07
-3.35415e-08
-2.71486e-07
-6.10281e-08
-2.21703e-07
-3.42679e-07
-1.77473e-07
-2.89413e-07
-1.25864e-07
-3.82901e-07
-7.43594e-08
-3.85432e-07
-2.36755e-08
-3.85118e-07
2.05435e-08
-3.39533e-07
5.32896e-08
-2.60645e-07
7.39558e-08
-1.71484e-07
8.3146e-08
-8.3733e-08
8.17831e-08
-1.62722e-09
7.20582e-08
6.54195e-08
5.63192e-08
1.15812e-07
3.17682e-08
1.85e-07
2.4108e-07
8.65229e-09
5.46532e-08
3.16702e-08
-2.14969e-08
-3.25959e-08
-9.46605e-08
-1.52897e-07
-1.47631e-08
-2.73709e-07
9.54021e-08
-3.17901e-07
1.85132e-07
-3.67662e-07
2.36586e-07
-4.2397e-07
2.33744e-07
-4.09722e-07
3.84696e-07
-3.17356e-07
4.57258e-07
-2.87138e-07
4.37515e-07
-3.89178e-07
3.80205e-07
-3.67338e-07
3.37034e-07
-3.30566e-07
-2.0995e-07
-3.25639e-07
-3.84682e-08
-2.5473e-07
-1.31937e-07
-2.31757e-07
-3.65653e-07
-1.76589e-07
-3.44581e-07
-1.25491e-07
-4.33999e-07
-7.30174e-08
-4.37906e-07
-2.19338e-08
-4.36201e-07
2.25864e-08
-3.84053e-07
5.50783e-08
-2.93137e-07
7.53234e-08
-1.91729e-07
8.41019e-08
-9.25116e-08
8.23758e-08
9.89145e-11
7.24043e-08
7.5391e-08
5.65963e-08
1.3162e-07
3.19379e-08
2.09658e-07
2.73018e-07
-3.18712e-08
8.68618e-08
-9.49129e-08
4.16015e-08
-2.17241e-07
2.76291e-08
-2.9805e-07
6.58895e-08
-3.43359e-07
1.40711e-07
-3.85299e-07
2.27073e-07
-4.05521e-07
2.56808e-07
-3.98034e-07
2.26256e-07
-3.45793e-07
3.32454e-07
-2.87925e-07
3.9939e-07
-3.26364e-07
4.75954e-07
-3.82188e-07
4.3603e-07