/*--------------------------------*- C++ -*----------------------------------*\
| =========                 |                                                 |
| \\      /  F ield         | OpenFOAM: The Open Source CFD Toolbox           |
|  \\    /   O peration     | Version:  2.4.0                                 |
|   \\  /    A nd           | Web:      www.OpenFOAM.org                      |
|    \\/     M anipulation  |                                                 |
\*---------------------------------------------------------------------------*/
FoamFile
{
    version     2.0;
    format      ascii;
    class       surfaceScalarField;
    location    "0.217";
    object      phiAlpha;
}
// * * * * * * * * * * * * * * * * * * * * * * * * * * * * * * * * * * * * * //

dimensions      [0 3 -1 0 0 0 0];

internalField   nonuniform List<scalar> 
119500
(
2.54099e-10
-2.54099e-10
3.96331e-10
-1.42231e-10
4.96601e-10
-1.00269e-10
5.56257e-10
-5.96561e-11
5.64544e-10
-8.2866e-12
5.16547e-10
4.79978e-11
4.00929e-10
1.15618e-10
2.21092e-10
1.79838e-10
-2.95422e-11
2.50633e-10
-3.53016e-10
3.23474e-10
-7.48756e-10
3.9574e-10
-1.21347e-09
4.64716e-10
-1.74318e-09
5.29705e-10
-2.33321e-09
5.9003e-10
-2.97841e-09
6.45198e-10
-3.67334e-09
6.94936e-10
-4.41251e-09
7.39162e-10
-5.19045e-09
7.77947e-10
-6.00194e-09
8.11488e-10
-6.842e-09
8.40056e-10
-7.70597e-09
8.63978e-10
-8.58957e-09
8.83593e-10
-9.48881e-09
8.99245e-10
-1.04001e-08
9.11249e-10
-1.132e-08
9.19894e-10
-1.22454e-08
9.25428e-10
-1.31734e-08
9.28058e-10
-1.41014e-08
9.27938e-10
-1.50266e-08
9.25183e-10
-1.59464e-08
9.19853e-10
-1.68584e-08
9.11973e-10
-1.77599e-08
9.01531e-10
-1.86484e-08
8.88477e-10
-1.95211e-08
8.7274e-10
-2.03754e-08
8.54216e-10
-2.12081e-08
8.32789e-10
-2.20165e-08
8.08317e-10
-2.27971e-08
7.80648e-10
-2.35467e-08
7.49619e-10
-2.42618e-08
7.15057e-10
-2.49386e-08
6.76777e-10
-2.55731e-08
6.34582e-10
-2.61614e-08
5.8827e-10
-2.6699e-08
5.37632e-10
-2.71815e-08
4.82453e-10
-2.7604e-08
4.22519e-10
-2.79616e-08
3.57612e-10
-2.82492e-08
2.87523e-10
-2.84612e-08
2.12057e-10
-2.85923e-08
1.31105e-10
-2.86374e-08
4.51293e-11
-2.85911e-08
-4.63556e-11
-2.84454e-08
-1.45718e-10
-2.81958e-08
-2.49518e-10
-2.7837e-08
-3.5889e-10
-2.73631e-08
-4.73849e-10
-2.67688e-08
-5.94316e-10
-2.60483e-08
-7.20489e-10
-2.51965e-08
-8.51792e-10
-2.421e-08
-9.86506e-10
-2.3084e-08
-1.12601e-09
-2.18145e-08
-1.26945e-09
-2.03985e-08
-1.41605e-09
-1.88336e-08
-1.56489e-09
-1.71173e-08
-1.71626e-09
-1.52487e-08
-1.86868e-09
-1.32274e-08
-2.02124e-09
-1.10542e-08
-2.17324e-09
-8.73098e-09
-2.32319e-09
-6.26105e-09
-2.46992e-09
-3.6487e-09
-2.61236e-09
-8.99469e-10
-2.74923e-09
1.97971e-09
-2.87918e-09
4.97563e-09
-2.99592e-09
8.07952e-09
-3.10389e-09
1.12786e-08
-3.19906e-09
1.45569e-08
-3.27832e-09
1.7896e-08
-3.33906e-09
2.12738e-08
-3.3778e-09
2.46652e-08
-3.39149e-09
2.80425e-08
-3.37729e-09
3.13742e-08
-3.33171e-09
3.46257e-08
-3.25143e-09
3.77535e-08
-3.12787e-09
4.07137e-08
-2.96013e-09
4.34607e-08
-2.74699e-09
4.59377e-08
-2.47702e-09
4.80786e-08
-2.14094e-09
4.97983e-08
-1.7197e-09
5.09901e-08
-1.19176e-09
5.15249e-08
-5.34798e-10
5.13022e-08
2.22667e-10
5.02834e-08
1.01875e-09
4.84937e-08
1.78975e-09
4.59551e-08
2.53855e-09
4.27493e-08
3.20587e-09
3.89935e-08
3.75574e-09
3.48421e-08
4.15141e-09
3.04035e-08
4.43859e-09
4.68262e-09
2.57209e-08
-2.57668e-11
-2.28331e-10
-2.41316e-10
7.332e-11
-5.04816e-10
1.63231e-10
-8.1324e-10
2.48769e-10
-1.17682e-09
3.55295e-10
-1.60763e-09
4.78812e-10
-2.11049e-09
6.18478e-10
-2.69539e-09
7.64737e-10
-3.36347e-09
9.18714e-10
-4.11576e-09
1.07576e-09
-4.95175e-09
1.23173e-09
-5.87e-09
1.38296e-09
-6.86755e-09
1.52726e-09
-7.94055e-09
1.66303e-09
-9.08454e-09
1.78919e-09
-1.02948e-08
1.90517e-09
-1.15664e-08
2.01078e-09
-1.28946e-08
2.10619e-09
-1.42749e-08
2.19179e-09
-1.5703e-08
2.26815e-09
-1.7175e-08
2.33594e-09
-1.86873e-08
2.39586e-09
-2.02366e-08
2.44859e-09
-2.18202e-08
2.4948e-09
-2.34353e-08
2.53506e-09
-2.50797e-08
2.56986e-09
-2.67513e-08
2.59961e-09
-2.8448e-08
2.6246e-09
-3.01678e-08
2.64504e-09
-3.1909e-08
2.66103e-09
-3.36696e-08
2.67258e-09
-3.54477e-08
2.67963e-09
-3.72413e-08
2.68202e-09
-3.90481e-08
2.67955e-09
-4.08658e-08
2.67196e-09
-4.2692e-08
2.65894e-09
-4.45238e-08
2.64014e-09
-4.63583e-08
2.61517e-09
-4.81923e-08
2.58362e-09
-5.00223e-08
2.54504e-09
-5.18445e-08
2.49898e-09
-5.36548e-08
2.44492e-09
-5.54489e-08
2.38235e-09
-5.7222e-08
2.31073e-09
-5.8969e-08
2.22951e-09
-6.06846e-08
2.13812e-09
-6.2363e-08
2.036e-09
-6.39981e-08
1.92258e-09
-6.55834e-08
1.79735e-09
-6.71121e-08
1.65986e-09
-6.85768e-08
1.50985e-09
-6.99696e-08
1.34643e-09
-7.12842e-08
1.16888e-09
-7.25119e-08
9.78129e-10
-7.36445e-08
7.73737e-10
-7.4674e-08
5.55664e-10
-7.55923e-08
3.23978e-10
-7.63905e-08
7.77118e-11
-7.70595e-08
-1.82822e-10
-7.75938e-08
-4.52171e-10
-7.79852e-08
-7.34568e-10
-7.82267e-08
-1.02799e-09
-7.83119e-08
-1.33084e-09
-7.82358e-08
-1.64097e-09
-7.79927e-08
-1.95935e-09
-7.7579e-08
-2.28245e-09
-7.6992e-08
-2.60825e-09
-7.62299e-08
-2.93534e-09
-7.52928e-08
-3.26022e-09
-7.41826e-08
-3.58016e-09
-7.29024e-08
-3.89257e-09
-7.14574e-08
-4.19419e-09
-6.98556e-08
-4.48094e-09
-6.81046e-08
-4.74697e-09
-6.62178e-08
-4.99062e-09
-6.42104e-08
-5.20651e-09
-6.21001e-08
-5.38862e-09
-5.99082e-08
-5.53095e-09
-5.76595e-08
-5.62655e-09
-5.53827e-08
-5.6682e-09
-5.31115e-08
-5.64857e-09
-5.08834e-08
-5.5598e-09
-4.8742e-08
-5.39282e-09
-4.67332e-08
-5.13665e-09
-4.49088e-08
-4.78456e-09
-4.33269e-08
-4.32885e-09
-4.20478e-08
-3.75616e-09
-4.11389e-08
-3.04984e-09
-4.06719e-08
-2.18667e-09
-4.07224e-08
-1.14128e-09
-4.1346e-08
8.88333e-11
-4.2596e-08
1.47262e-09
-4.4549e-08
2.97176e-09
-4.72486e-08
4.48936e-09
-5.06281e-08
5.91806e-09
-5.45423e-08
7.12007e-09
-5.87401e-08
7.95352e-09
-6.29542e-08
8.36556e-09
-6.70025e-08
8.48688e-09
8.57395e-09
-7.08938e-08
-1.13023e-10
-1.15307e-10
-4.41626e-10
4.01924e-10
-8.17152e-10
5.38757e-10
-1.23928e-09
6.70897e-10
-1.71947e-09
8.35488e-10
-2.26919e-09
1.02853e-09
-2.89564e-09
1.24493e-09
-3.60679e-09
1.47588e-09
-4.40541e-09
1.71734e-09
-5.29288e-09
1.96322e-09
-6.26899e-09
2.20784e-09
-7.33235e-09
2.44633e-09
-8.48032e-09
2.67523e-09
-9.70934e-09
2.89204e-09
-1.10153e-08
3.09516e-09
-1.23938e-08
3.28371e-09
-1.38406e-08
3.45748e-09
-1.53511e-08
3.61675e-09
-1.69215e-08
3.76215e-09
-1.85479e-08
3.8946e-09
-2.02271e-08
4.01513e-09
-2.19561e-08
4.12485e-09
-2.37323e-08
4.22481e-09
-2.55536e-08
4.31606e-09
-2.7418e-08
4.39949e-09
-2.9324e-08
4.47586e-09
-3.12702e-08
4.54582e-09
-3.32555e-08
4.60983e-09
-3.52786e-08
4.6682e-09
-3.73387e-08
4.72111e-09
-3.94347e-08
4.76858e-09
-4.15656e-08
4.81053e-09
-4.37303e-08
4.84675e-09
-4.59277e-08
4.87691e-09
-4.81564e-08
4.90063e-09
-5.04148e-08
4.91743e-09
-5.27015e-08
4.92678e-09
-5.50144e-08
4.9281e-09
-5.73515e-08
4.92074e-09
-5.97105e-08
4.90401e-09
-6.20887e-08
4.87719e-09
-6.44833e-08
4.83949e-09
-6.6891e-08
4.7901e-09
-6.93085e-08
4.72816e-09
-7.17317e-08
4.65278e-09
-7.41567e-08
4.56305e-09
-7.65787e-08
4.45802e-09
-7.89929e-08
4.33677e-09
-8.13939e-08
4.19841e-09
-8.37762e-08
4.04209e-09
-8.61334e-08
3.86712e-09
-8.84595e-08
3.67245e-09
-9.07479e-08
3.45736e-09
-9.29917e-08
3.2219e-09
-9.51836e-08
2.96565e-09
-9.73163e-08
2.68839e-09
-9.93824e-08
2.39003e-09
-1.01375e-07
2.07031e-09
-1.03288e-07
1.73013e-09
-1.05112e-07
1.37193e-09
-1.06841e-07
9.94404e-10
-1.08468e-07
5.99032e-10
-1.09986e-07
1.87365e-10
-1.11391e-07
-2.36278e-10
-1.12674e-07
-6.76428e-10
-1.13831e-07
-1.12551e-09
-1.14858e-07
-1.58087e-09
-1.15752e-07
-2.04155e-09
-1.16511e-07
-2.50149e-09
-1.17134e-07
-2.95704e-09
-1.17621e-07
-3.4052e-09
-1.17975e-07
-3.84076e-09
-1.18197e-07
-4.25824e-09
-1.18293e-07
-4.65137e-09
-1.18268e-07
-5.01514e-09
-1.18132e-07
-5.34282e-09
-1.17895e-07
-5.62608e-09
-1.17569e-07
-5.85666e-09
-1.17171e-07
-6.02476e-09
-1.16719e-07
-6.11982e-09
-1.16236e-07
-6.13121e-09
-1.15749e-07
-6.04691e-09
-1.15289e-07
-5.85285e-09
-1.14892e-07
-5.53359e-09
-1.14601e-07
-5.07571e-09
-1.14465e-07
-4.46494e-09
-1.14536e-07
-3.68495e-09
-1.14868e-07
-2.71822e-09
-1.15506e-07
-1.54876e-09
-1.16491e-07
-1.56489e-10
-1.178e-07
1.39836e-09
-1.19449e-07
3.12174e-09
-1.21373e-07
4.89559e-09
-1.23461e-07
6.57737e-09
-1.25555e-07
8.01237e-09
-1.27466e-07
9.03086e-09
-1.29002e-07
9.4889e-09
-1.3005e-07
9.41386e-09
-1.30692e-07
9.12922e-09
9.06724e-09
-1.31186e-07
-1.27053e-10
1.1747e-11
-4.73973e-10
7.48846e-10
-8.69266e-10
9.3405e-10
-1.31259e-09
1.11422e-09
-1.81606e-09
1.33896e-09
-2.39097e-09
1.60344e-09
-3.04545e-09
1.89941e-09
-3.78651e-09
2.21694e-09
-4.61748e-09
2.54831e-09
-5.53976e-09
2.88551e-09
-6.55311e-09
3.22119e-09
-7.65594e-09
3.54916e-09
-8.84547e-09
3.86476e-09
-1.01181e-08
4.16466e-09
-1.14697e-08
4.44673e-09
-1.28958e-08
4.70987e-09
-1.43922e-08
4.95386e-09
-1.59546e-08
5.17914e-09
-1.75791e-08
5.38664e-09
-1.92621e-08
5.57764e-09
-2.10006e-08
5.75358e-09
-2.27917e-08
5.916e-09
-2.46333e-08
6.06638e-09
-2.65234e-08
6.20613e-09
-2.84604e-08
6.33651e-09
-3.04431e-08
6.45859e-09
-3.24705e-08
6.57323e-09
-3.45418e-08
6.6811e-09
-3.66563e-08
6.78266e-09
-3.88133e-08
6.87817e-09
-4.10124e-08
6.96769e-09
-4.3253e-08
7.05112e-09
-4.55345e-08
7.12822e-09
-4.78562e-08
7.19859e-09
-5.02173e-08
7.26173e-09
-5.26169e-08
7.31705e-09
-5.5054e-08
7.36384e-09
-5.75272e-08
7.40135e-09
-6.00352e-08
7.42875e-09
-6.25764e-08
7.44514e-09
-6.51487e-08
7.44956e-09
-6.77502e-08
7.441e-09
-7.03785e-08
7.41836e-09
-7.30308e-08
7.38051e-09
-7.57043e-08
7.32624e-09
-7.83956e-08
7.25432e-09
-8.1101e-08
7.16347e-09
-8.38167e-08
7.0524e-09
-8.65381e-08
6.91985e-09
-8.92606e-08
6.76463e-09
-9.19791e-08
6.5856e-09
-9.46882e-08
6.38156e-09
-9.73824e-08
6.15154e-09
-1.00056e-07
5.89504e-09
-1.02701e-07
5.6115e-09
-1.05313e-07
5.30049e-09
-1.07885e-07
4.9618e-09
-1.1041e-07
4.59531e-09
-1.12882e-07
4.20178e-09
-1.15293e-07
3.78266e-09
-1.17636e-07
3.33794e-09
-1.19906e-07
2.86896e-09
-1.22096e-07
2.37761e-09
-1.242e-07
1.86699e-09
-1.26213e-07
1.3367e-09
-1.2813e-07
7.91572e-10
-1.29946e-07
2.34891e-10
-1.31655e-07
-3.32381e-10
-1.33254e-07
-9.02438e-10
-1.3474e-07
-1.47114e-09
-1.3611e-07
-2.03461e-09
-1.37363e-07
-2.58807e-09
-1.38497e-07
-3.12391e-09
-1.39512e-07
-3.63645e-09
-1.40409e-07
-4.1183e-09
-1.4119e-07
-4.56205e-09
-1.41859e-07
-4.95722e-09
-1.42422e-07
-5.29359e-09
-1.42888e-07
-5.55877e-09
-1.43269e-07
-5.73888e-09
-1.4358e-07
-5.81962e-09
-1.43844e-07
-5.78309e-09
-1.44088e-07
-5.60878e-09
-1.44347e-07
-5.27432e-09
-1.44664e-07
-4.75933e-09
-1.45084e-07
-4.04446e-09
-1.45654e-07
-3.11522e-09
-1.46411e-07
-1.96171e-09
-1.47372e-07
-5.87367e-10
-1.48516e-07
9.87168e-10
-1.49809e-07
2.69155e-09
-1.51146e-07
4.45857e-09
-1.52404e-07
6.15391e-09
-1.53437e-07
7.61088e-09
-1.54084e-07
8.65931e-09
-1.54195e-07
9.1419e-09
-1.53677e-07
8.97035e-09
-1.52566e-07
8.303e-09
-1.51111e-07
7.67415e-09
7.67142e-09
-1.49715e-07
-1.18082e-10
1.29829e-10
-4.55575e-10
1.08634e-09
-8.43241e-10
1.32172e-09
-1.28076e-09
1.55174e-09
-1.78064e-09
1.83884e-09
-2.3542e-09
2.177e-09
-3.00997e-09
2.55519e-09
-3.75443e-09
2.96139e-09
-4.59101e-09
3.3849e-09
-5.52099e-09
3.81549e-09
-6.54385e-09
4.24404e-09
-7.65766e-09
4.66297e-09
-8.85934e-09
5.06644e-09
-1.0145e-08
5.45033e-09
-1.15103e-08
5.81204e-09
-1.29508e-08
6.1503e-09
-1.44618e-08
6.46489e-09
-1.60391e-08
6.75649e-09
-1.76789e-08
7.02636e-09
-1.93774e-08
7.27618e-09
-2.11317e-08
7.50786e-09
-2.2939e-08
7.72336e-09
-2.47973e-08
7.92463e-09
-2.67046e-08
8.11347e-09
-2.86596e-08
8.29151e-09
-3.06611e-08
8.46011e-09
-3.27083e-08
8.62041e-09
-3.48005e-08
8.77327e-09
-3.69371e-08
8.9193e-09
-3.91178e-08
9.05883e-09
-4.13421e-08
9.19199e-09
-4.36096e-08
9.31868e-09
-4.592e-08
9.43859e-09
-4.82727e-08
9.55129e-09
-5.06671e-08
9.65616e-09
-5.31026e-08
9.75249e-09
-5.55782e-08
9.83943e-09
-5.80929e-08
9.91606e-09
-6.06455e-08
9.98138e-09
-6.32347e-08
1.00343e-08
-6.58588e-08
1.00736e-08
-6.85159e-08
1.00982e-08
-7.12041e-08
1.01066e-08
-7.3921e-08
1.00974e-08
-7.66639e-08
1.00691e-08
-7.94299e-08
1.00203e-08
-8.22156e-08
9.94924e-09
-8.50176e-08
9.85434e-09
-8.78317e-08
9.73397e-09
-9.06537e-08
9.58658e-09
-9.34787e-08
9.41067e-09
-9.63019e-08
9.20477e-09
-9.9118e-08
8.96762e-09
-1.01921e-07
8.69834e-09
-1.04706e-07
8.39609e-09
-1.07466e-07
8.06027e-09
-1.10194e-07
7.69048e-09
-1.12886e-07
7.28659e-09
-1.15533e-07
6.84913e-09
-1.18129e-07
6.37907e-09
-1.20668e-07
5.87691e-09
-1.23143e-07
5.34396e-09
-1.25548e-07
4.78214e-09
-1.27875e-07
4.19398e-09
-1.30119e-07
3.58084e-09
-1.32274e-07
2.94663e-09
-1.34334e-07
2.29492e-09
-1.36295e-07
1.62882e-09
-1.38152e-07
9.54495e-10
-1.399e-07
2.76625e-10
-1.41535e-07
-4.00015e-10
-1.43053e-07
-1.06971e-09
-1.44451e-07
-1.72544e-09
-1.45728e-07
-2.35947e-09
-1.46882e-07
-2.96473e-09
-1.47913e-07
-3.53078e-09
-1.48824e-07
-4.04601e-09
-1.49621e-07
-4.49717e-09
-1.5031e-07
-4.86919e-09
-1.50905e-07
-5.14435e-09
-1.51421e-07
-5.30396e-09
-1.5188e-07
-5.32353e-09
-1.52313e-07
-5.17605e-09
-1.52754e-07
-4.83297e-09
-1.53244e-07
-4.26996e-09
-1.53821e-07
-3.46749e-09
-1.54516e-07
-2.41939e-09
-1.55349e-07
-1.12954e-09
-1.5631e-07
3.74476e-10
-1.57362e-07
2.03837e-09
-1.58442e-07
3.77187e-09
-1.59455e-07
5.47109e-09
-1.60285e-07
6.98394e-09
-1.60801e-07
8.12772e-09
-1.60865e-07
8.72274e-09
-1.60347e-07
8.62389e-09
-1.59164e-07
7.78784e-09
-1.5735e-07
6.48891e-09
-1.55169e-07
5.49248e-09
5.61613e-09
-1.53113e-07
-1.00354e-10
2.30183e-10
-4.19424e-10
1.40541e-09
-7.90465e-10
1.69276e-09
-1.21359e-09
1.97487e-09
-1.70176e-09
2.32701e-09
-2.26646e-09
2.7417e-09
-2.91638e-09
3.20511e-09
-3.65771e-09
3.70272e-09
-4.49375e-09
4.22094e-09
-5.4255e-09
4.74724e-09
-6.45208e-09
5.27062e-09
-7.57111e-09
5.782e-09
-8.7791e-09
6.27444e-09
-1.00718e-08
6.74304e-09
-1.14445e-08
7.18478e-09
-1.28925e-08
7.59826e-09
-1.4411e-08
7.98338e-09
-1.59956e-08
8.34106e-09
-1.76422e-08
8.67298e-09
-1.93472e-08
8.98125e-09
-2.11077e-08
9.26827e-09
-2.29208e-08
9.5365e-09
-2.47845e-08
9.78834e-09
-2.6697e-08
1.0026e-08
-2.86571e-08
1.02515e-08
-3.06635e-08
1.04665e-08
-3.27155e-08
1.06725e-08
-3.48126e-08
1.08704e-08
-3.69543e-08
1.1061e-08
-3.91402e-08
1.12447e-08
-4.137e-08
1.14218e-08
-4.36434e-08
1.15921e-08
-4.596e-08
1.17552e-08
-4.83195e-08
1.19107e-08
-5.07211e-08
1.20578e-08
-5.31644e-08
1.21958e-08
-5.56485e-08
1.23235e-08
-5.81723e-08
1.24399e-08
-6.07349e-08
1.25439e-08
-6.33347e-08
1.26342e-08
-6.59704e-08
1.27093e-08
-6.86401e-08
1.27679e-08
-7.13418e-08
1.28083e-08
-7.40733e-08
1.28288e-08
-7.68319e-08
1.28278e-08
-7.96148e-08
1.28032e-08
-8.24188e-08
1.27532e-08
-8.52403e-08
1.26758e-08
-8.80754e-08
1.2569e-08
-9.09197e-08
1.24309e-08
-9.37686e-08
1.22596e-08
-9.66172e-08
1.20533e-08
-9.94601e-08
1.18105e-08
-1.02292e-07
1.15299e-08
-1.05106e-07
1.12104e-08
-1.07897e-07
1.08512e-08
-1.10658e-07
1.04517e-08
-1.13383e-07
1.00116e-08
-1.16065e-07
9.53123e-09
-1.18697e-07
9.01129e-09
-1.21273e-07
8.45244e-09
-1.23785e-07
7.85598e-09
-1.26227e-07
7.22377e-09
-1.28591e-07
6.55816e-09
-1.30871e-07
5.86134e-09
-1.33062e-07
5.13694e-09
-1.35155e-07
4.38876e-09
-1.37147e-07
3.62083e-09
-1.39032e-07
2.83889e-09
-1.40804e-07
2.04833e-09
-1.42458e-07
1.25486e-09
-1.43993e-07
4.65044e-10
-1.45405e-07
-3.13689e-10
-1.46692e-07
-1.07267e-09
-1.47854e-07
-1.8027e-09
-1.48893e-07
-2.49186e-09
-1.49813e-07
-3.12565e-09
-1.50622e-07
-3.68795e-09
-1.51331e-07
-4.16065e-09
-1.51952e-07
-4.52286e-09
-1.52505e-07
-4.75082e-09
-1.53013e-07
-4.81584e-09
-1.53504e-07
-4.68543e-09
-1.5401e-07
-4.32649e-09
-1.54566e-07
-3.7137e-09
-1.55203e-07
-2.83072e-09
-1.55942e-07
-1.68066e-09
-1.56791e-07
-2.8039e-10
-1.57736e-07
1.31961e-09
-1.58741e-07
3.0426e-09
-1.59751e-07
4.7824e-09
-1.6069e-07
6.41019e-09
-1.61462e-07
7.75567e-09
-1.61948e-07
8.61351e-09
-1.62006e-07
8.78118e-09
-1.61486e-07
8.10334e-09
-1.60245e-07
6.54747e-09
-1.58234e-07
4.47784e-09
-1.55688e-07
2.94633e-09
3.15945e-09
-1.53231e-07
-7.72326e-11
3.07416e-10
-3.72876e-10
1.70106e-09
-7.2234e-10
2.04222e-09
-1.12662e-09
2.37915e-09
-1.59922e-09
2.79961e-09
-2.15189e-09
3.29437e-09
-2.79341e-09
3.84664e-09
-3.52973e-09
4.43904e-09
-4.36391e-09
5.05512e-09
-5.29655e-09
5.67989e-09
-6.3263e-09
6.30037e-09
-7.45024e-09
6.90595e-09
-8.66438e-09
7.48858e-09
-9.96399e-09
8.04264e-09
-1.1344e-08
8.56478e-09
-1.27992e-08
9.05351e-09
-1.43248e-08
9.50893e-09
-1.5916e-08
9.9323e-09
-1.75688e-08
1.03257e-08
-1.92794e-08
1.06919e-08
-2.10448e-08
1.10336e-08
-2.28623e-08
1.1354e-08
-2.47298e-08
1.16558e-08
-2.66456e-08
1.19419e-08
-2.86085e-08
1.22144e-08
-3.06175e-08
1.24755e-08
-3.26718e-08
1.27268e-08
-3.4771e-08
1.29696e-08
-3.69147e-08
1.32046e-08
-3.91026e-08
1.34326e-08
-4.13344e-08
1.36536e-08
-4.36099e-08
1.38676e-08
-4.59287e-08
1.40741e-08
-4.82905e-08
1.42725e-08
-5.06948e-08
1.44621e-08
-5.31409e-08
1.46419e-08
-5.5628e-08
1.48106e-08
-5.81553e-08
1.49671e-08
-6.07214e-08
1.51101e-08
-6.33253e-08
1.5238e-08
-6.59652e-08
1.53493e-08
-6.86396e-08
1.54422e-08
-7.13463e-08
1.5515e-08
-7.40831e-08
1.55657e-08
-7.68475e-08
1.55922e-08
-7.96365e-08
1.55923e-08
-8.2447e-08
1.55637e-08
-8.52753e-08
1.55042e-08
-8.81175e-08
1.54112e-08
-9.09692e-08
1.52826e-08
-9.38257e-08
1.51161e-08
-9.66819e-08
1.49095e-08
-9.95324e-08
1.4661e-08
-1.02371e-07
1.4369e-08
-1.05193e-07
1.40319e-08
-1.07991e-07
1.36489e-08
-1.10758e-07
1.3219e-08
-1.13488e-07
1.27418e-08
-1.16174e-07
1.22174e-08
-1.18809e-07
1.16463e-08
-1.21386e-07
1.10292e-08
-1.23897e-07
1.03673e-08
-1.26336e-07
9.66244e-09
-1.28695e-07
8.91694e-09
-1.30967e-07
8.13344e-09
-1.33146e-07
7.31555e-09
-1.35224e-07
6.46737e-09
-1.37197e-07
5.59357e-09
-1.39058e-07
4.69999e-09
-1.40802e-07
3.79274e-09
-1.42426e-07
2.87848e-09
-1.43926e-07
1.96482e-09
-1.453e-07
1.06039e-09
-1.46548e-07
1.75182e-10
-1.47671e-07
-6.7941e-10
-1.48674e-07
-1.48938e-09
-1.49562e-07
-2.23719e-09
-1.50346e-07
-2.90417e-09
-1.51037e-07
-3.46917e-09
-1.51651e-07
-3.90872e-09
-1.52207e-07
-4.19576e-09
-1.52725e-07
-4.29785e-09
-1.53231e-07
-4.17895e-09
-1.53756e-07
-3.8017e-09
-1.54328e-07
-3.14117e-09
-1.54976e-07
-2.18273e-09
-1.5572e-07
-9.37232e-10
-1.56567e-07
5.67197e-10
-1.57509e-07
2.26132e-09
-1.58519e-07
4.05228e-09
-1.59553e-07
5.81671e-09
-1.60548e-07
7.40562e-09
-1.61421e-07
8.62856e-09
-1.62057e-07
9.24919e-09
-1.62299e-07
9.02326e-09
-1.61952e-07
7.75617e-09
-1.60786e-07
5.38154e-09
-1.58625e-07
2.31646e-09
-1.55654e-07
-2.42466e-11
1.92532e-10
-1.52687e-07
-4.93856e-11
3.56802e-10
-3.16984e-10
1.96866e-09
-6.40472e-10
2.36571e-09
-1.02211e-09
2.76079e-09
-1.47604e-09
3.25353e-09
-2.01431e-09
3.83264e-09
-2.64579e-09
4.47812e-09
-3.37617e-09
5.16942e-09
-4.20815e-09
5.8871e-09
-5.14186e-09
6.61359e-09
-6.17532e-09
7.33383e-09
-7.30501e-09
8.03564e-09
-8.52629e-09
8.70986e-09
-9.83388e-09
9.35024e-09
-1.12222e-08
9.95314e-09
-1.26858e-08
1.05171e-08
-1.42194e-08
1.10425e-08
-1.58182e-08
1.1531e-08
-1.74778e-08
1.19853e-08
-1.91945e-08
1.24086e-08
-2.09652e-08
1.28044e-08
-2.27873e-08
1.31761e-08
-2.46588e-08
1.35273e-08
-2.6578e-08
1.38611e-08
-2.85438e-08
1.41802e-08
-3.05552e-08
1.44869e-08
-3.26117e-08
1.47833e-08
-3.47128e-08
1.50706e-08
-3.68582e-08
1.53501e-08
-3.90478e-08
1.56222e-08
-4.12813e-08
1.58871e-08
-4.35586e-08
1.61448e-08
-4.58794e-08
1.63949e-08
-4.82433e-08
1.66365e-08
-5.06499e-08
1.68687e-08
-5.30986e-08
1.70905e-08
-5.55886e-08
1.73006e-08
-5.8119e-08
1.74975e-08
-6.06887e-08
1.76798e-08
-6.32963e-08
1.78457e-08
-6.59405e-08
1.79934e-08
-6.86194e-08
1.81211e-08
-7.13311e-08
1.82267e-08
-7.40734e-08
1.83079e-08
-7.68437e-08
1.83624e-08
-7.96391e-08
1.83877e-08
-8.24563e-08
1.8381e-08
-8.52918e-08
1.83397e-08
-8.81416e-08
1.8261e-08
-9.10012e-08
1.81422e-08
-9.38659e-08
1.79808e-08
-9.67305e-08
1.77741e-08
-9.95895e-08
1.752e-08
-1.02437e-07
1.72164e-08
-1.05267e-07
1.68617e-08
-1.08072e-07
1.64545e-08
-1.10847e-07
1.59937e-08
-1.13584e-07
1.54787e-08
-1.16276e-07
1.49095e-08
-1.18916e-07
1.42861e-08
-1.21496e-07
1.36094e-08
-1.24009e-07
1.28805e-08
-1.26448e-07
1.21011e-08
-1.28804e-07
1.12737e-08
-1.31072e-07
1.0401e-08
-1.33243e-07
9.48698e-09
-1.35312e-07
8.53592e-09
-1.37272e-07
7.55305e-09
-1.39116e-07
6.54462e-09
-1.40841e-07
5.51753e-09
-1.42442e-07
4.47948e-09
-1.43916e-07
3.43926e-09
-1.45263e-07
2.40693e-09
-1.46482e-07
1.3941e-09
-1.47576e-07
4.14489e-10
-1.48549e-07
-5.15988e-10
-1.4941e-07
-1.37623e-09
-1.50168e-07
-2.1459e-09
-1.50837e-07
-2.80093e-09
-1.51429e-07
-3.31625e-09
-1.51963e-07
-3.66146e-09
-1.52459e-07
-3.8018e-09
-1.52942e-07
-3.69644e-09
-1.53438e-07
-3.30582e-09
-1.53978e-07
-2.60094e-09
-1.5459e-07
-1.5704e-09
-1.55301e-07
-2.26274e-10
-1.56123e-07
1.38856e-09
-1.57055e-07
3.19347e-09
-1.5808e-07
5.0778e-09
-1.59164e-07
6.9008e-09
-1.60254e-07
8.49558e-09
-1.61277e-07
9.65146e-09
-1.62123e-07
1.00948e-08
-1.62619e-07
9.51901e-09
-1.62515e-07
7.6522e-09
-1.61464e-07
4.33133e-09
-1.59109e-07
-3.87871e-11
-1.55535e-07
-3.5988e-09
-3.53601e-09
-1.51806e-07
-1.74971e-11
3.74299e-10
-2.51493e-10
2.20265e-09
-5.44429e-10
2.65864e-09
-8.99602e-10
3.11596e-09
-1.33177e-09
3.6857e-09
-1.85339e-09
4.35426e-09
-2.47336e-09
5.09808e-09
-3.19708e-09
5.89315e-09
-4.02682e-09
6.71684e-09
-4.96205e-09
7.54882e-09
-6.00008e-09
8.37186e-09
-7.13663e-09
9.17219e-09
-8.36634e-09
9.93957e-09
-9.68329e-09
1.06672e-08
-1.10814e-08
1.13512e-08
-1.25546e-08
1.19903e-08
-1.40974e-08
1.25853e-08
-1.57047e-08
1.31383e-08
-1.7372e-08
1.36527e-08
-1.90956e-08
1.41322e-08
-2.08724e-08
1.45811e-08
-2.26996e-08
1.50034e-08
-2.45755e-08
1.54032e-08
-2.64984e-08
1.5784e-08
-2.84672e-08
1.6149e-08
-3.04812e-08
1.6501e-08
-3.25399e-08
1.6842e-08
-3.4643e-08
1.71737e-08
-3.67903e-08
1.74973e-08
-3.89816e-08
1.78135e-08
-4.12169e-08
1.81225e-08
-4.34961e-08
1.8424e-08
-4.5819e-08
1.87177e-08
-4.81852e-08
1.90027e-08
-5.05944e-08
1.92779e-08
-5.30459e-08
1.95421e-08
-5.55392e-08
1.97938e-08
-5.80731e-08
2.00315e-08
-6.06468e-08
2.02535e-08
-6.32589e-08
2.04578e-08
-6.5908e-08
2.06425e-08
-6.85923e-08
2.08054e-08
-7.13099e-08
2.09443e-08
-7.40587e-08
2.10567e-08
-7.6836e-08
2.11398e-08
-7.96391e-08
2.11907e-08
-8.24647e-08
2.12066e-08
-8.53092e-08
2.11842e-08
-8.81686e-08
2.11204e-08
-9.10383e-08
2.1012e-08
-9.39137e-08
2.08561e-08
-9.67894e-08
2.06498e-08
-9.96599e-08
2.03904e-08
-1.02519e-07
2.00756e-08
-1.05361e-07
1.97034e-08
-1.08178e-07
1.92721e-08
-1.10965e-07
1.87803e-08
-1.13714e-07
1.82274e-08
-1.16417e-07
1.76129e-08
-1.19068e-07
1.69368e-08
-1.21658e-07
1.61998e-08
-1.24181e-07
1.54029e-08
-1.26628e-07
1.4548e-08
-1.28991e-07
1.36373e-08
-1.31264e-07
1.2674e-08
-1.33439e-07
1.16621e-08
-1.3551e-07
1.06061e-08
-1.37468e-07
9.51197e-09
-1.3931e-07
8.38634e-09
-1.4103e-07
7.23694e-09
-1.42623e-07
6.07254e-09
-1.44087e-07
4.90318e-09
-1.4542e-07
3.74038e-09
-1.46623e-07
2.59748e-09
-1.47699e-07
1.4902e-09
-1.48652e-07
4.37209e-10
-1.4949e-07
-5.38921e-10
-1.50221e-07
-1.41455e-09
-1.50858e-07
-2.16396e-09
-1.51414e-07
-2.75983e-09
-1.51906e-07
-3.16987e-09
-1.52352e-07
-3.3559e-09
-1.52777e-07
-3.27125e-09
-1.5321e-07
-2.87315e-09
-1.53683e-07
-2.12795e-09
-1.5423e-07
-1.02323e-09
-1.54883e-07
4.26708e-10
-1.55663e-07
2.1682e-09
-1.56578e-07
4.10905e-09
-1.57621e-07
6.12048e-09
-1.58764e-07
8.04396e-09
-1.59965e-07
9.6968e-09
-1.61165e-07
1.08515e-08
-1.62265e-07
1.11946e-08
-1.63082e-07
1.03357e-08
-1.63304e-07
7.8745e-09
-1.62433e-07
3.46008e-09
-1.59838e-07
-2.63315e-09
-1.55412e-07
-8.0251e-09
-8.40989e-09
-1.50538e-07
1.69698e-11
3.57329e-10
-1.75704e-10
2.39533e-09
-4.33325e-10
2.91627e-09
-7.58033e-10
3.44067e-09
-1.16528e-09
4.09295e-09
-1.66799e-09
4.85697e-09
-2.27504e-09
5.70513e-09
-2.99153e-09
6.60963e-09
-3.81911e-09
7.54442e-09
-4.75652e-09
8.48622e-09
-5.80018e-09
9.41552e-09
-6.94492e-09
1.03169e-08
-8.18454e-09
1.11792e-08
-9.51237e-09
1.1995e-08
-1.09216e-08
1.27605e-08
-1.24059e-08
1.34746e-08
-1.39592e-08
1.41386e-08
-1.55761e-08
1.47553e-08
-1.72522e-08
1.53287e-08
-1.89835e-08
1.58635e-08
-2.07668e-08
1.63644e-08
-2.25997e-08
1.68363e-08
-2.44803e-08
1.72837e-08
-2.64071e-08
1.77108e-08
-2.83793e-08
1.81211e-08
-3.0396e-08
1.85177e-08
-3.2457e-08
1.8903e-08
-3.45621e-08
1.92788e-08
-3.67113e-08
1.96465e-08
-3.89044e-08
2.00067e-08
-4.11416e-08
2.03596e-08
-4.34227e-08
2.07052e-08
-4.57478e-08
2.10427e-08
-4.81164e-08
2.13713e-08
-5.05284e-08
2.16898e-08
-5.2983e-08
2.19968e-08
-5.54798e-08
2.22906e-08
-5.80177e-08
2.25695e-08
-6.05958e-08
2.28315e-08
-6.32127e-08
2.30748e-08
-6.58672e-08
2.3297e-08
-6.85575e-08
2.34958e-08
-7.12818e-08
2.36686e-08
-7.40378e-08
2.38127e-08
-7.68232e-08
2.39251e-08
-7.9635e-08
2.40026e-08
-8.24701e-08
2.40417e-08
-8.53249e-08
2.40389e-08
-8.81953e-08
2.39908e-08
-9.10769e-08
2.38936e-08
-9.39648e-08
2.3744e-08
-9.68536e-08
2.35387e-08
-9.97378e-08
2.32746e-08
-1.02611e-07
2.2949e-08
-1.05467e-07
2.25597e-08
-1.083e-07
2.21045e-08
-1.11102e-07
2.1582e-08
-1.13865e-07
2.09912e-08
-1.16584e-07
2.03313e-08
-1.19249e-07
1.96023e-08
-1.21854e-07
1.88047e-08
-1.24391e-07
1.79394e-08
-1.26851e-07
1.70082e-08
-1.29227e-07
1.60134e-08
-1.31511e-07
1.49584e-08
-1.33696e-07
1.38472e-08
-1.35775e-07
1.26849e-08
-1.37741e-07
1.14776e-08
-1.39587e-07
1.02328e-08
-1.41309e-07
8.95882e-09
-1.42902e-07
7.66555e-09
-1.44363e-07
6.36422e-09
-1.4569e-07
5.06776e-09
-1.46884e-07
3.79118e-09
-1.47946e-07
2.55214e-09
-1.4888e-07
1.3716e-09
-1.49693e-07
2.74064e-10
-1.50394e-07
-7.14398e-10
-1.50991e-07
-1.56613e-09
-1.515e-07
-2.25155e-09
-1.51933e-07
-2.73635e-09
-1.52313e-07
-2.97638e-09
-1.52662e-07
-2.92248e-09
-1.53012e-07
-2.52305e-09
-1.534e-07
-1.73965e-09
-1.53866e-07
-5.57329e-10
-1.54449e-07
1.00972e-09
-1.5518e-07
2.89893e-09
-1.56076e-07
5.00576e-09
-1.57139e-07
7.18308e-09
-1.58349e-07
9.25414e-09
-1.59676e-07
1.10233e-08
-1.61077e-07
1.22534e-08
-1.6248e-07
1.25968e-08
-1.63704e-07
1.15601e-08
-1.64377e-07
8.54774e-09
-1.63799e-07
2.88227e-09
-1.60938e-07
-5.49475e-09
-1.55314e-07
-1.36488e-08
-1.50139e-08
-1.4871e-07
6.23485e-11
2.94981e-10
-8.8334e-11
2.54601e-09
-3.0612e-10
3.13405e-09
-5.96146e-10
3.7307e-09
-9.75152e-10
4.47196e-09
-1.45666e-09
5.33848e-09
-2.04948e-09
6.29795e-09
-2.75827e-09
7.31842e-09
-3.584e-09
8.37015e-09
-4.52444e-09
9.42667e-09
-5.57501e-09
1.04661e-08
-6.72948e-09
1.14714e-08
-7.98068e-09
1.24304e-08
-9.32106e-09
1.33354e-08
-1.07432e-08
1.41826e-08
-1.22399e-08
1.49714e-08
-1.3805e-08
1.57037e-08
-1.54328e-08
1.63831e-08
-1.71185e-08
1.70144e-08
-1.88582e-08
1.76032e-08
-2.06488e-08
1.8155e-08
-2.24879e-08
1.86753e-08
-2.43735e-08
1.91694e-08
-2.63046e-08
1.96418e-08
-2.82801e-08
2.00967e-08
-3.02997e-08
2.05373e-08
-3.23631e-08
2.09664e-08
-3.44703e-08
2.1386e-08
-3.66213e-08
2.17975e-08
-3.88162e-08
2.22016e-08
-4.10552e-08
2.25987e-08
-4.33384e-08
2.29883e-08
-4.56657e-08
2.337e-08
-4.80369e-08
2.37425e-08
-5.04517e-08
2.41047e-08
-5.29096e-08
2.44547e-08
-5.54101e-08
2.4791e-08
-5.79522e-08
2.51116e-08
-6.0535e-08
2.54143e-08
-6.31572e-08
2.5697e-08
-6.58176e-08
2.59573e-08
-6.85144e-08
2.61926e-08
-7.12458e-08
2.64001e-08
-7.40098e-08
2.65767e-08
-7.68039e-08
2.67192e-08
-7.96253e-08
2.6824e-08
-8.24709e-08
2.68873e-08
-8.5337e-08
2.69051e-08
-8.82196e-08
2.68734e-08
-9.11143e-08
2.67883e-08
-9.40161e-08
2.66458e-08
-9.69196e-08
2.64422e-08
-9.98191e-08
2.61741e-08
-1.02708e-07
2.58384e-08
-1.05581e-07
2.54324e-08
-1.0843e-07
2.49538e-08
-1.11249e-07
2.44008e-08
-1.1403e-07
2.37721e-08
-1.16766e-07
2.3067e-08
-1.19449e-07
2.2285e-08
-1.2207e-07
2.14264e-08
-1.24623e-07
2.04923e-08
-1.27099e-07
1.94843e-08
-1.29491e-07
1.84047e-08
-1.31789e-07
1.72569e-08
-1.33987e-07
1.60453e-08
-1.36078e-07
1.47751e-08
-1.38053e-07
1.3453e-08
-1.39907e-07
1.20869e-08
-1.41634e-07
1.0686e-08
-1.4323e-07
9.26106e-09
-1.4469e-07
7.82455e-09
-1.46013e-07
6.39069e-09
-1.47198e-07
4.97606e-09
-1.48246e-07
3.60012e-09
-1.4916e-07
2.2859e-09
-1.49946e-07
1.0599e-09
-1.50611e-07
-4.95733e-11
-1.51164e-07
-1.01304e-09
-1.51617e-07
-1.79843e-09
-1.51985e-07
-2.36823e-09
-1.52288e-07
-2.6735e-09
-1.52551e-07
-2.65979e-09
-1.52808e-07
-2.26577e-09
-1.53101e-07
-1.44698e-09
-1.53476e-07
-1.82273e-10
-1.5398e-07
1.51449e-09
-1.54657e-07
3.5756e-09
-1.55534e-07
5.88258e-09
-1.56619e-07
8.2684e-09
-1.57903e-07
1.05377e-08
-1.59365e-07
1.24856e-08
-1.6099e-07
1.38779e-08
-1.62744e-07
1.43516e-08
-1.64488e-07
1.33039e-08
-1.65799e-07
9.85832e-09
-1.65704e-07
2.78752e-09
-1.62534e-07
-8.66476e-09
-1.55126e-07
-2.10569e-08
-2.43733e-08
-1.45766e-07
1.12281e-10
1.82701e-10
8.89856e-12
2.64939e-09
-1.61989e-10
3.30494e-09
-4.12583e-10
3.98129e-09
-7.59761e-10
4.81914e-09
-1.21775e-09
5.79647e-09
-1.79509e-09
6.87529e-09
-2.49588e-09
8.01922e-09
-3.32026e-09
9.19453e-09
-4.26487e-09
1.03713e-08
-5.32388e-09
1.15251e-08
-6.48987e-09
1.26374e-08
-7.75452e-09
1.36951e-08
-9.10932e-09
1.46902e-08
-1.0546e-08
1.56193e-08
-1.20569e-08
1.64823e-08
-1.36352e-08
1.72819e-08
-1.52749e-08
1.80229e-08
-1.69713e-08
1.87108e-08
-1.87203e-08
1.93522e-08
-2.05187e-08
1.99534e-08
-2.23643e-08
2.05209e-08
-2.42554e-08
2.10605e-08
-2.61908e-08
2.15773e-08
-2.817e-08
2.20758e-08
-3.01924e-08
2.25598e-08
-3.22582e-08
2.30322e-08
-3.43674e-08
2.34952e-08
-3.65202e-08
2.39503e-08
-3.8717e-08
2.43984e-08
-4.09578e-08
2.48395e-08
-4.3243e-08
2.52735e-08
-4.55726e-08
2.56995e-08
-4.79464e-08
2.61163e-08
-5.03642e-08
2.65225e-08
-5.28256e-08
2.69161e-08
-5.533e-08
2.72954e-08
-5.78765e-08
2.76581e-08
-6.04643e-08
2.80021e-08
-6.30922e-08
2.83248e-08
-6.57587e-08
2.86238e-08
-6.84625e-08
2.88963e-08
-7.12017e-08
2.91392e-08
-7.39742e-08
2.93492e-08
-7.67777e-08
2.95227e-08
-7.96095e-08
2.96558e-08
-8.24664e-08
2.97442e-08
-8.53449e-08
2.97836e-08
-8.82409e-08
2.97694e-08
-9.11499e-08
2.96973e-08
-9.40669e-08
2.95628e-08
-9.69865e-08
2.93618e-08
-9.99029e-08
2.90905e-08
-1.0281e-07
2.87453e-08
-1.05701e-07
2.83232e-08
-1.08568e-07
2.78216e-08
-1.11406e-07
2.72385e-08
-1.14206e-07
2.65722e-08
-1.16961e-07
2.58218e-08
-1.19663e-07
2.49867e-08
-1.22303e-07
2.40671e-08
-1.24875e-07
2.30637e-08
-1.27369e-07
2.19782e-08
-1.29777e-07
2.0813e-08
-1.32091e-07
1.95714e-08
-1.34304e-07
1.8258e-08
-1.36407e-07
1.68783e-08
-1.38394e-07