/*--------------------------------*- C++ -*----------------------------------*\
| =========                 |                                                 |
| \\      /  F ield         | OpenFOAM: The Open Source CFD Toolbox           |
|  \\    /   O peration     | Version:  2.4.0                                 |
|   \\  /    A nd           | Web:      www.OpenFOAM.org                      |
|    \\/     M anipulation  |                                                 |
\*---------------------------------------------------------------------------*/
FoamFile
{
    version     2.0;
    format      ascii;
    class       surfaceScalarField;
    location    "0.173";
    object      phiAlpha;
}
// * * * * * * * * * * * * * * * * * * * * * * * * * * * * * * * * * * * * * //

dimensions      [0 3 -1 0 0 0 0];

internalField   nonuniform List<scalar> 
12835
(
-1.42969e-07
1.43338e-07
-2.82579e-07
1.42486e-07
-3.06071e-07
3.26583e-08
-1.7519e-07
-1.27939e-07
-6.69451e-08
-1.11542e-07
-5.34085e-08
-8.08757e-09
5.78131e-08
-7.29103e-08
2.12626e-07
-1.0408e-08
-2.6086e-09
1.68459e-07
-7.76974e-08
2.48933e-07
1.20856e-08
-2.97028e-08
1.29058e-08
-2.38938e-09
3.75951e-09
2.68144e-08
3.54874e-09
1.70561e-11
7.49241e-09
5.42203e-11
1.4144e-08
-1.82947e-10
5.50384e-09
2.07859e-09
-3.29698e-10
5.09565e-09
-7.8889e-09
4.58765e-09
-1.37953e-11
-9.50701e-09
5.07038e-10
-2.1896e-10
1.47845e-12
-1.02721e-11
3.3439e-13
1.14406e-12
-7.02339e-14
4.04602e-13
-7.0364e-12
6.96618e-12
-1.19132e-11
2.48282e-11
-1.92919e-12
-9.98391e-12
8.02123e-12
-9.95042e-12
6.70423e-12
2.28029e-12
2.98614e-12
7.53913e-12
2.8137e-14
4.75297e-12
-1.88363e-11
2.67975e-11
1.0064e-10
-6.41426e-10
8.5198e-12
4.9727e-12
9.74198e-12
7.82928e-12
1.16654e-11
1.41787e-11
6.97193e-12
9.69296e-12
-4.21981e-13
1.1935e-11
-3.73848e-12
6.69801e-12
-1.77642e-11
6.23937e-12
-1.55794e-11
-3.61755e-14
-2.00806e-11
2.07622e-12
1.13245e-12
6.44318e-12
2.39759e-12
-8.93013e-13
6.1075e-13
-1.71747e-14
4.7818e-12
7.78582e-13
4.75759e-12
7.11019e-14
4.50945e-12
2.8966e-13
6.2309e-13
5.76729e-13
2.12268e-14
5.55478e-16
-1.8637e-07
3.30046e-07
-3.18909e-07
2.78533e-07
-3.1605e-07
2.78189e-08
-1.83771e-07
-2.67476e-07
-1.01101e-07
-1.9419e-07
-1.25513e-07
2.60025e-08
2.77233e-08
-2.22387e-07
2.81804e-08
-1.10833e-07
-2.71973e-07
3.81029e-07
-2.51161e-07
1.60513e-07
5.476e-10
-1.07929e-07
4.40292e-09
-7.13145e-09
7.11829e-09
2.13119e-08
9.98928e-09
-9.03449e-10
1.25995e-08
-2.27974e-10
7.34814e-09
1.71596e-10
6.79075e-09
9.24628e-10
1.0933e-10
1.34227e-08
-4.50626e-09
8.77796e-09
-8.0062e-10
-1.30266e-08
6.60128e-10
-1.78928e-09
-5.04633e-12
-1.13692e-12
-4.62929e-13
4.70703e-12
-1.06635e-10
1.06468e-10
-1.00553e-10
1.31913e-10
-2.56427e-10
1.09549e-10
2.09434e-10
-3.70432e-09
2.91134e-10
-9.91465e-10
4.94131e-11
9.28873e-11
1.7319e-11
3.40528e-11
4.30035e-11
2.30913e-11
1.46134e-10
5.75794e-10
9.39912e-10
-2.40373e-09
-1.47777e-12
-1.0219e-10
-3.46546e-12
1.68676e-11
1.76386e-11
5.64229e-12
8.06767e-12
2.38179e-11
-1.81859e-12
1.59831e-11
-5.01379e-12
7.55385e-12
-4.06026e-12
9.29913e-13
-5.73428e-12
-7.92806e-14
-6.33747e-12
1.94217e-12
1.16522e-12
1.24179e-11
3.7104e-12
1.1281e-12
2.56584e-12
-1.87742e-13
9.65837e-12
9.72624e-13
7.48516e-12
2.29019e-12
4.85789e-12
2.95609e-12
-2.29105e-14
1.95383e-13
5.07257e-15
7.48737e-16
-1.80824e-07
5.11343e-07
-3.06123e-07
4.04709e-07
-2.99858e-07
2.06672e-08
-1.77222e-07
-3.90099e-07
-1.11414e-07
-2.59985e-07
-1.35808e-07
5.4124e-08
1.11481e-07
-6.11114e-07
7.19908e-10
-6.77393e-08
-1.59695e-07
2.34069e-07
-1.99775e-08
1.6798e-07
1.99243e-08
-1.51511e-07
2.8883e-08
-1.94581e-08
1.84445e-08
2.84934e-08
2.70533e-08
-3.61379e-11
2.4101e-08
-7.219e-09
1.75566e-08
-2.97666e-08
1.17454e-08
-1.34653e-09
2.49244e-09
2.41607e-08
5.46963e-09
5.89986e-09
1.52794e-09
-8.91392e-09
-1.29991e-11
-2.13571e-09
-3.375e-12
-1.33626e-12
-8.66258e-13
1.09228e-11
1.04332e-10
2.34948e-10
-4.30751e-11
-3.9415e-11
4.47168e-09
-7.55001e-09
1.22727e-08
-3.27653e-08
8.16514e-09
-3.20151e-08
2.3422e-10
-2.96026e-10
7.52765e-11
1.82601e-10
6.59057e-11
2.52325e-11
1.40883e-09
7.95869e-10
1.21122e-09
-1.85759e-09
2.51514e-10
-2.32333e-10
1.4622e-11
7.0086e-11
6.17349e-12
2.92986e-12
1.29956e-11
1.63399e-11
3.29103e-12
2.43721e-11
-1.23392e-14
4.38181e-12
-9.95733e-14
5.01094e-15
5.38357e-13
3.02719e-13
-7.5379e-11
5.68099e-12
1.22344e-11
-1.49397e-09
2.94188e-12
8.97313e-12
3.31453e-12
-1.44585e-12
7.15306e-12
6.3317e-13
3.42988e-12
5.97024e-13
8.57324e-13
1.29139e-13
9.59575e-15
6.36384e-14
3.10161e-14
-1.04803e-14
-1.69461e-07
6.80944e-07
-2.86114e-07
5.21258e-07
-2.77444e-07
1.19786e-08
-1.61659e-07
-5.05872e-07
-1.04395e-07
-3.17214e-07
-1.96507e-07
1.46278e-07
-1.07052e-07
-7.10627e-07
-6.90514e-09
-2.35961e-07
-1.79272e-08
1.0183e-07
-2.07744e-08
5.57622e-08
2.9555e-08
-6.23068e-07
3.73352e-08
-3.0784e-08
3.45176e-08
2.83557e-08
3.98583e-08
3.21607e-08
2.87391e-08
5.60574e-09
3.50183e-08
-3.42103e-08
1.60481e-08
-1.36153e-08
5.84716e-09
9.80724e-08
3.41017e-09
2.99812e-09
-2.70436e-09
-2.59783e-09
-6.44588e-11
1.47985e-10
-8.08836e-12
-4.59181e-11
-8.23313e-11
2.00081e-11
2.75717e-11
4.76547e-11
3.58147e-09
-2.51823e-09
2.00255e-08
-2.22442e-08
1.86555e-08
-3.04973e-08
1.60098e-08
-2.84122e-08
1.04075e-09
-1.08596e-09
2.16958e-10
6.42216e-10
2.02552e-10
4.69052e-11
1.81942e-09
1.26038e-10
8.10319e-10
-5.25462e-10
1.71004e-10
-2.61738e-10
6.68425e-12
7.35018e-11
2.2213e-13
4.272e-12
9.94277e-12
1.80622e-12
6.55866e-12
2.45205e-12
7.29698e-13
3.0494e-12
5.32294e-13
3.74788e-13
2.53006e-13
7.22136e-13
-3.73371e-11
2.19933e-11
1.22337e-10
-1.43253e-09
-1.20728e-11
-5.05532e-10
4.38283e-13
-5.6043e-12
1.72331e-13
3.41538e-13
1.35512e-13
6.51736e-14
5.51152e-14
1.16066e-13
1.38097e-15
7.71811e-14
9.62615e-13
-5.45674e-13
-1.57196e-07
8.38131e-07
-2.64154e-07
6.28246e-07
-2.52217e-07
2.26875e-10
-1.48265e-07
-6.02336e-07
-1.05895e-07
-3.49156e-07
-2.26371e-07
2.66904e-07
-2.99575e-07
-6.26096e-07
5.82011e-08
-4.20336e-07
-2.19774e-08
3.25528e-07
-4.45104e-08
2.56845e-07
6.04444e-08
-6.55328e-07
4.73392e-08
-7.27103e-08
4.67919e-08
6.10282e-08
4.86565e-08
3.19084e-08
3.89068e-08
1.71269e-08
2.19486e-08
-2.00058e-08
2.64929e-08
-1.02375e-08
8.77508e-09
2.44523e-08
2.6345e-09
2.57188e-09
2.47421e-09
3.67862e-10
1.8302e-09
4.2448e-09
-2.1561e-11
1.03434e-09
-8.934e-12
7.30088e-12
-1.83865e-11
2.36145e-12
3.64877e-09
-8.91248e-09
8.00742e-09
-2.48075e-09
1.2413e-08
-1.73639e-08
7.84304e-09
-2.30663e-08
1.57821e-09
-5.7709e-09
1.53645e-10
1.00326e-09
1.0242e-10
1.10857e-10
9.59068e-10
1.05903e-10
4.16975e-10
3.14095e-10
1.50901e-10
-4.26983e-10
2.70407e-13
9.02651e-11
2.19158e-13
3.74131e-12
8.18804e-13
1.05966e-12
7.82583e-13
1.01584e-12
6.82002e-13
5.06566e-13
8.03921e-13
3.02484e-13
1.23821e-12
3.83465e-13
1.6108e-10
-2.63891e-13
4.45143e-10
-1.20054e-09
1.30694e-10
-7.46268e-10
2.77482e-12
-2.26796e-11
3.20593e-13
2.25079e-12
6.94197e-14
2.22271e-13
3.26403e-14
1.11307e-13
-2.7139e-14
9.77978e-14
2.08285e-12
-6.3124e-13
-1.45216e-07
9.83357e-07
-2.40648e-07
7.23688e-07
-2.17625e-07
-1.70614e-08
-1.37768e-07
-6.69798e-07
-1.01468e-07
-3.88766e-07
-1.78404e-07
3.4403e-07
-2.44878e-07
-5.36627e-07
-9.46098e-09
-5.37464e-07
-1.66402e-07
5.22104e-07
-5.56794e-08
3.15465e-07
5.4456e-08
-3.01004e-07
3.53719e-08
-9.68531e-08
6.68549e-08
3.10507e-08
5.0861e-08
5.02611e-08
2.16585e-08
1.56194e-09
3.99497e-09
-6.52703e-09
2.38728e-08
-1.29909e-08
6.03533e-09
1.53501e-08
3.20875e-09
5.49153e-09
2.36552e-09
1.16363e-09
3.50546e-09
2.23008e-09
-3.32038e-12
4.42049e-09
-2.62659e-12
6.53847e-12
2.95487e-11
5.37268e-13
3.67388e-10
-3.08247e-09
3.84192e-10
-4.10027e-09
1.88447e-09
-8.09635e-10
1.15321e-09
-2.14622e-08
1.48508e-10
-1.08987e-08
7.35957e-11
6.36883e-10
5.13725e-11
2.94666e-10
2.80785e-10
3.39226e-11
2.56564e-10
6.10615e-10
1.41315e-10
-6.71006e-10
7.31817e-13
9.21063e-11
8.36659e-13
3.50618e-12
5.40478e-13
1.29065e-12
5.87412e-13
1.10425e-12
4.46279e-13
7.88888e-13
6.42143e-13
2.21883e-13
1.41363e-12
-3.43502e-13
2.62911e-12
-1.40633e-12
8.32841e-10
-8.69617e-10
2.04872e-10
1.93801e-10
7.47382e-12
-2.06216e-11
9.01948e-13
7.96105e-12
1.87755e-13
7.93036e-13
3.66625e-14
1.49069e-13
1.04288e-15
3.60994e-13
2.67089e-12
-4.43116e-13
-1.33414e-07
1.11678e-06
-2.15477e-07
8.06008e-07
-1.81758e-07
-4.55328e-08
-1.26344e-07
-7.31243e-07
-8.89165e-08
-4.31269e-07
-1.28414e-07
3.83512e-07
-2.00523e-07
-4.5575e-07
-4.19131e-08
-7.35481e-07
-2.06482e-07
1.34726e-06
-3.68538e-09
2.69483e-07
1.49824e-08
-3.62607e-07
3.18011e-08
-1.53354e-07
4.76969e-08
8.59669e-10
4.10379e-08
9.36705e-09
7.88127e-09
1.77204e-09
1.3209e-09
5.02413e-10
3.10422e-09
-6.38891e-09
3.37428e-09
1.50996e-08
3.23495e-09
5.58451e-09
3.38496e-09
9.70023e-10
1.90116e-09
3.3563e-09
-1.65854e-12
7.77438e-09
-1.58133e-12
6.44376e-12
-9.74414e-13
-7.61673e-14
-6.85902e-10
-5.47427e-10
6.73642e-10
-1.97718e-08
1.59018e-10
-1.07942e-09
-1.35172e-09
-8.34391e-09
-5.33944e-10
-7.07479e-09
-7.71672e-12
2.58157e-10
2.66716e-10
8.06965e-10
1.92826e-10
9.58519e-11
7.64497e-11
9.10193e-11
2.14339e-12
-8.61741e-10
6.58093e-13
2.63526e-11
7.09855e-13
3.36229e-12
5.58369e-13
1.52152e-12
5.39776e-13
1.19723e-12
4.14354e-13
1.02412e-12
5.16491e-13
9.96962e-14
9.95913e-13
-8.12918e-13
1.37728e-12
-1.73998e-12
5.87641e-10
-3.99387e-10
6.51554e-10
-2.98619e-10
5.81325e-11
1.63159e-10
4.97706e-13
1.73547e-11
1.66322e-13
1.00991e-12
4.31246e-14
1.85092e-13
6.45741e-15
7.26328e-13
2.90456e-12
-9.85908e-14
-1.21748e-07
1.23854e-06
-1.8773e-07
8.72445e-07
-1.63732e-07
-6.57231e-08
-1.24034e-07
-7.88513e-07
-9.02755e-08
-4.76158e-07
-1.26568e-07
4.19818e-07
-2.5936e-07
-3.23958e-07
-1.12112e-07
-9.16846e-07
-9.75555e-08
1.95767e-06
-3.86135e-09
2.97742e-08
1.00566e-08
-3.64032e-07
4.26214e-08
-3.43892e-07
1.35782e-08
-3.10912e-09
1.08803e-08
2.27954e-09
6.09231e-09
6.4416e-09
-3.90308e-10
6.92838e-09
1.78154e-10
-4.69782e-09
4.61618e-09
9.20528e-08
6.26422e-09
1.1393e-08
4.27412e-09
-3.31495e-10
1.83763e-09
5.45355e-09
-1.38564e-12
7.15171e-09
-5.46273e-13
5.60137e-12
5.24257e-13
-1.16177e-12
-1.66955e-09
2.09806e-10
1.33226e-09
-2.12174e-08
6.85496e-11
-6.29632e-10
-3.7685e-10
-9.77565e-10
-2.61331e-10
-4.07183e-09
-4.49841e-11
8.45496e-11
1.17819e-10
7.43419e-10
4.15593e-11
-4.20872e-12
8.71203e-11
7.44682e-11
-3.86939e-11
-3.95861e-10
-4.40531e-13
-3.62699e-11
5.33383e-13
2.30559e-12
4.60622e-13
1.61455e-12
5.42182e-13
1.20388e-12
3.21874e-13
1.24081e-12
4.06057e-13
2.21238e-14
5.50989e-13
-9.24027e-13
4.86297e-13
-1.59782e-12
3.03995e-10
-1.68061e-11
-3.38851e-10
-6.08099e-09
-1.61952e-11
9.45453e-11
-3.31916e-13
3.14685e-12
8.26817e-14
4.13572e-13
1.76887e-14
1.69994e-13
2.64535e-14
2.0333e-12
3.36283e-12
-7.88209e-14
-1.10741e-07
1.34929e-06
-1.67861e-07
9.29993e-07
-1.49996e-07
-8.58565e-08
-1.2145e-07
-8.16839e-07
-9.56269e-08
-5.01777e-07
-1.29778e-07
4.45381e-07
-2.97177e-07
-1.54706e-07
-1.70141e-07
-9.69534e-07
2.04658e-08
2.17697e-06
1.45175e-08
5.1231e-08
1.17454e-08
-4.23087e-07
1.44254e-08
-3.33716e-07
3.8631e-08
-7.5315e-08
9.64345e-09
3.11161e-08
5.64705e-09
1.03831e-08
8.87737e-10
1.16581e-08
1.12196e-09
-4.99848e-09
6.64721e-09
1.6915e-07
6.68018e-09
6.60169e-08
1.2695e-08
-6.64245e-09
-4.0098e-10
1.51556e-08
-6.42241e-13
4.44601e-09
2.74291e-13
4.67172e-12
5.47809e-12
-6.3323e-12
3.88755e-10
-2.08928e-09
-1.63849e-10
-1.93094e-08
9.27615e-11
-1.67942e-09
3.94133e-11
-2.82621e-11
-5.65633e-11
-3.03523e-09
-4.02708e-11
4.28665e-11
1.11434e-10
7.41956e-10
1.92089e-11
4.63877e-11
3.47217e-11
3.7319e-11
4.39533e-10
-5.25279e-10
4.12259e-12
-7.80131e-12
8.86754e-13
5.35709e-12
3.87334e-13
2.04754e-12
4.60129e-13
1.2054e-12
2.11501e-13
1.57328e-12
2.83117e-13
-3.97522e-14
3.04789e-13
-8.61121e-13
3.75371e-13
-1.59846e-12
3.00769e-10
-3.17161e-10
5.47499e-10
-5.61158e-09
2.18226e-11
-3.93856e-11
8.4754e-13
2.32708e-11
1.51431e-13
1.03187e-12
5.02942e-14
1.97536e-13
7.97572e-14
4.07635e-12
3.66936e-12
-1.09993e-14
-1.01102e-07
1.4504e-06
-1.53028e-07
9.81817e-07
-1.25645e-07
-1.15034e-07
-1.14322e-07
-8.27963e-07
-9.93102e-08
-5.04427e-07
-1.28783e-07
4.74612e-07
-2.71221e-07
-1.1881e-08
-1.48745e-07
-9.89647e-07
-8.07528e-08
2.74589e-06
-2.60925e-08
1.2316e-07
1.7113e-08
-7.63711e-07
9.46151e-09
-7.28768e-08
2.4987e-08
-4.34455e-08
1.15545e-08
1.05451e-08
6.41872e-09
1.53529e-08
2.39612e-09
1.55993e-08
9.32117e-09
-1.5239e-08
5.56229e-09
1.76917e-07
4.55799e-09
9.59925e-09
-5.57661e-11
-8.94605e-09
-6.55419e-10
1.30803e-08
6.54326e-11
1.86796e-09
8.22712e-11
1.73654e-10
8.54348e-11
-9.09214e-12
2.50062e-09
-8.67445e-09
7.50644e-10
-1.61901e-08
8.84093e-10
-8.80364e-09
-3.17101e-10
9.20356e-11
-6.48593e-12
-2.75063e-09
-6.462e-12
9.38365e-12
3.88247e-11
1.39903e-10
1.51368e-11
6.22356e-11
1.88941e-10
4.41011e-11
3.42318e-10
-6.53284e-10
1.56931e-11
-6.95221e-11
6.76128e-13
1.93519e-11
4.50741e-13
2.23536e-12
3.42159e-13
1.37191e-12
1.09751e-13
1.85538e-12
1.70435e-13
-7.68798e-14
5.10813e-14
-6.60838e-14
3.61589e-13
-1.86604e-12
1.60213e-09
-2.53549e-10
4.8365e-10
-4.06385e-09
9.77595e-12
-5.02368e-10
1.85333e-12
2.94736e-11
2.97298e-13
2.50804e-12
1.04425e-13
3.1559e-13
1.53764e-13
1.9111e-12
3.85097e-12
-3.03986e-15
-9.18874e-08
1.5423e-06
-1.29132e-07
1.02289e-06
-1.16587e-07
-1.27273e-07
-1.12098e-07
-8.29007e-07
-1.10817e-07
-5.06663e-07
-1.17182e-07
4.80746e-07
-2.28938e-07
9.99113e-08
-2.26378e-07
-9.30701e-07
-1.39328e-07
4.03318e-06
-6.97187e-10
-4.00774e-09
7.45732e-09
-1.11428e-07
3.98023e-09
-5.00656e-08
4.92047e-09
-1.3026e-08
4.57492e-09
9.9839e-09
4.17918e-09
1.5611e-08
3.56478e-09
1.60047e-08
3.10958e-08
-3.90791e-08
7.19093e-09
2.04307e-07
8.42744e-09
-1.09204e-09
1.1101e-08
4.88929e-10
1.61329e-09
1.65821e-08
-1.28564e-10
3.6734e-09
4.7432e-11
5.50047e-11
6.58835e-11
-2.55939e-11
4.45632e-09
-8.83675e-09
2.33742e-09
-9.58109e-09
1.50174e-09
-5.05862e-09
2.56828e-11
2.05017e-10
5.39736e-11
-2.17903e-09
2.95925e-11
-8.33116e-11
1.97964e-11
1.45223e-10
1.5725e-11
6.42098e-11
3.66509e-11
2.79424e-11
2.8661e-10
-1.96136e-10
7.50504e-11
-1.89706e-10
9.96508e-13
9.05726e-11
2.32239e-13
3.01153e-12
2.0977e-13
1.5139e-12
3.45589e-14
2.05444e-12
1.02995e-13
-1.09823e-13
8.33258e-13
4.67244e-13
1.61211e-12
-2.6147e-12
2.64652e-09
-1.25745e-09
-1.39748e-09
3.67033e-10
-7.01309e-12
-1.25069e-09
2.13174e-12
2.18263e-11
3.21443e-13
4.23184e-12
4.99436e-14
4.75632e-13
9.40124e-14
3.02285e-13
1.98163e-13
-5.14304e-15
-8.33665e-08
1.62568e-06
-1.17579e-07
1.05866e-06
-1.1408e-07
-1.31927e-07
-1.13499e-07
-8.24829e-07
-1.2494e-07
-4.95573e-07
-1.00331e-07
4.58354e-07
-1.56097e-07
1.55684e-07
-2.9287e-07
-7.95833e-07
-2.18858e-08
4.67719e-06
4.14208e-08
-1.45684e-07
-6.64651e-10
-9.87897e-08
8.03627e-09
-1.42444e-07
4.37723e-09
-9.7442e-09
3.45265e-09
1.0999e-08
7.55356e-09
3.52291e-08
3.2728e-08
2.34982e-08
3.46461e-08
-3.75928e-08
2.03116e-08
2.21798e-07
6.292e-09
3.07308e-09
7.57478e-09
-4.31382e-09
3.44822e-09
2.12127e-08
9.40185e-11
1.44915e-08
1.39198e-10
2.20099e-10
1.44108e-10
-2.46725e-11
1.74041e-09
-4.10143e-09
1.43224e-09
-8.86669e-09
3.20622e-10
-4.19626e-09
1.43397e-10
3.29818e-10
3.46994e-10
-1.15235e-09
1.09808e-10
2.50002e-11
2.072e-11
2.32263e-10
1.59363e-11
7.25086e-11
2.43208e-11
2.60488e-11
2.94604e-10
2.66741e-11
1.92788e-10
-2.08173e-11
2.58824e-12
1.98405e-10
6.30673e-13
4.9437e-12
2.53313e-13
1.91918e-12
-2.07348e-14
2.29554e-12
1.37135e-13
-1.73195e-12
5.4582e-12
-9.99406e-12
7.49221e-12
-4.64269e-12
2.93755e-10
-2.04884e-09
2.03398e-09
-1.36834e-09
5.28903e-11
-1.1802e-09
1.49271e-11
5.68657e-11
5.14854e-13
1.83385e-11
3.74309e-14
9.61755e-13
2.37286e-14
2.36346e-13
1.89753e-13
-1.88329e-16
-7.42862e-08
1.69997e-06
-9.7474e-08
1.08186e-06
-1.06975e-07
-1.23534e-07
-1.3189e-07
-8.00156e-07
-1.34576e-07
-4.94558e-07
-9.59569e-08
4.08016e-07
-8.19783e-08
1.41714e-07
-2.07967e-07
-6.69839e-07
-3.14012e-08
4.50074e-06
4.17319e-08
-2.6191e-07
-7.64019e-10
-7.8797e-08
1.50195e-08
-1.36844e-07
4.84024e-09
1.39469e-10
2.93057e-09
1.26276e-08
6.64663e-09
3.7485e-08
3.59976e-09
1.87994e-08
1.79261e-08
-1.05595e-08
2.25685e-08
2.24188e-07
5.35583e-09
1.47104e-08
1.88585e-08
-3.41954e-09
3.83912e-10
2.64794e-08
2.20372e-10
2.41718e-08
5.47869e-11
4.17392e-10
1.34457e-10
-8.21217e-11
9.1431e-10
1.62079e-10
4.58978e-09
-2.34958e-08
2.59293e-10
3.35181e-11
1.18926e-10
4.04439e-10
1.59484e-10
-3.45032e-10
7.43957e-11
-1.99589e-10
2.0383e-11
2.88005e-10
1.75788e-11
8.16365e-11
1.66181e-11
3.02753e-11
1.95671e-10
-2.66189e-11
-8.11529e-11
3.30269e-10
-1.70909e-13
2.26526e-10
3.2397e-13
4.57775e-12
2.85668e-13
2.13313e-12
4.00472e-14
2.51926e-12
1.61154e-12
-8.01992e-12
2.20045e-11
-4.49695e-11
2.32397e-11
-5.9649e-12
2.00019e-09
-1.77794e-09
1.06176e-09
-5.4792e-10
1.63246e-10
-1.99661e-09
-7.90417e-13
5.01862e-11
3.048e-13
1.69427e-11
7.33249e-14
1.11242e-12
2.08456e-14
2.47032e-13
1.87572e-13
5.51383e-15
-6.3988e-08
1.76397e-06
-8.52967e-08
1.09085e-06
-9.42391e-08
-1.17148e-07
-1.391e-07
-7.55482e-07
-1.31879e-07
-4.95571e-07
-9.38906e-08
3.56789e-07
-6.4027e-08
1.11856e-07
-1.41009e-07
-5.92853e-07
1.07524e-07
4.25226e-06
2.58129e-08
-1.25579e-07
1.31784e-09
-6.62248e-08
9.40047e-09
-1.16758e-07
7.21921e-09
-9.96783e-08
2.77755e-09
1.68994e-08
-6.3757e-11
4.56888e-08
-1.1278e-10
1.52361e-08
2.03121e-09
-1.44256e-08
1.68255e-08
2.11042e-07
6.12298e-09
1.73983e-08
6.70051e-09
-1.0968e-09
5.26988e-09
1.73579e-08
6.80469e-10
3.00932e-08
5.51599e-10
1.96327e-09
1.65651e-10
-5.2935e-11
9.91414e-10
-1.83775e-09
1.12495e-09
-2.18889e-08
2.59493e-10
-5.90478e-10
1.02218e-10
5.33753e-10
8.45086e-11
-4.97773e-11
3.09396e-10
-1.21718e-09
2.64464e-11
4.37011e-10
1.956e-11
9.17127e-11
8.32155e-12
4.36889e-11
-1.21244e-10
9.44663e-11
3.20797e-11
2.57649e-10
1.44421e-10
2.66916e-10
6.79277e-12
6.50709e-11
2.54325e-13
8.53496e-12
1.04632e-13
2.85133e-12
3.39937e-12
-8.35083e-12
6.56274e-12
-8.42294e-12
8.68316e-12
-8.20475e-12
3.6017e-09
-1.91322e-09
8.39985e-10
1.83631e-09
-1.09465e-10
-1.05996e-08
-2.80067e-12
-6.27156e-11
-1.63569e-13
1.27866e-11
5.38176e-14
9.33834e-13
2.31648e-14
2.60063e-13
1.74843e-13
2.46414e-14
-5.28022e-08
1.81606e-06
-7.68071e-08
1.11396e-06
-9.12626e-08
-1.0355e-07
-1.40308e-07
-7.0722e-07
-1.30601e-07
-5.02846e-07
-8.99865e-08
3.10277e-07
-5.25915e-08
7.44393e-08
-5.88328e-08
-5.86632e-07
3.90099e-07
3.61744e-06
2.53144e-08
-2.04072e-09
9.135e-10
-4.47466e-08
4.61948e-09
-8.12847e-09
2.25791e-08
-1.13183e-07
-4.77008e-10
3.45109e-08
-6.44009e-10
5.00328e-08
-5.11918e-09
1.62912e-08
-1.00907e-08
4.10832e-10
4.6405e-09
1.97872e-07
7.35769e-09
2.24805e-08
8.0232e-09
5.83512e-10
-8.41195e-10
2.91848e-08
1.23524e-09
2.16814e-07
6.86532e-10
1.45344e-09
4.12504e-10
-1.2514e-10
4.86832e-09
-7.87015e-09
-8.7315e-10
-1.43268e-08
1.97741e-10
-7.14435e-09
7.8943e-11
6.48788e-10
1.59513e-11
1.04023e-11
3.92588e-10
-1.52335e-09
3.60039e-11
3.68306e-10
2.23011e-11
1.07495e-10
4.99033e-11
8.37798e-11
7.56343e-11
7.73464e-10
2.29347e-10
6.58034e-10
2.41182e-10
3.46977e-10
8.43399e-12
2.56512e-10
2.29492e-12
5.43389e-10
1.11432e-13
5.16643e-12
4.52562e-12
2.05257e-13
2.48694e-12
-6.10102e-12
7.09826e-12
-1.23141e-11
1.38843e-09
-1.5928e-09
2.16177e-09
8.23393e-10
4.49187e-10
-8.85525e-09
2.47262e-11
-1.19243e-10
7.7984e-13
3.6551e-11
6.96196e-14
1.61867e-12
2.39372e-14
2.94745e-13
1.72918e-13
1.56427e-14
-4.573e-08
1.86316e-06
-6.54177e-08
1.13283e-06
-8.46267e-08
-8.36915e-08
-1.40036e-07
-6.50198e-07
-1.49046e-07
-4.92975e-07
-8.85138e-08
2.485e-07
-1.25991e-08
-1.50428e-09
4.59468e-08
-5.65167e-07
6.13672e-08
1.52348e-06
1.54441e-08
-1.31444e-07
4.19462e-11
-3.2428e-08
2.50699e-10
-7.59336e-09
1.36952e-08
-1.00058e-07
9.65657e-10
4.24248e-08
-1.1107e-09
5.59447e-08
-3.88607e-09
1.59797e-08
-9.48681e-09
-1.6839e-09
1.05913e-10
1.89605e-07
1.25585e-08
1.07285e-08
2.41058e-09
5.88023e-09
-8.56606e-09
4.66728e-08
4.59028e-09
4.57396e-08
5.19615e-10
1.41278e-09
1.31393e-10
-9.86274e-11
1.88551e-09
-3.50538e-09
-1.77491e-09
-9.5317e-09
-1.98808e-11
-9.49556e-09
6.89768e-11
5.60675e-10
3.77493e-11
4.10707e-11
9.9451e-11
-1.5239e-09
2.25442e-11
4.0898e-10
2.72535e-11
9.79623e-11
2.13641e-10
1.34593e-10
7.49235e-10
1.61356e-09
6.03001e-10
1.29579e-09
3.68061e-10
7.77027e-10
3.47069e-11
2.12226e-09
-3.95562e-11
2.74971e-09
1.55347e-11
1.11872e-09
9.67757e-13
-1.53814e-11
5.16897e-12
-1.22221e-11
1.64219e-11
-2.33221e-11
1.27884e-09
-1.42719e-09
2.28257e-09
-2.49077e-10
1.19056e-09
-7.73511e-09
2.89639e-11
-7.40946e-10
1.15865e-12
6.41601e-11
1.01767e-13
2.64685e-12
2.43476e-14
3.62338e-13
1.77881e-13
9.90677e-15
-4.1494e-08
1.90679e-06
-5.91263e-08
1.14971e-06
-7.57948e-08
-6.59911e-08
-1.31994e-07
-5.92483e-07
-1.70358e-07
-4.52574e-07
-1.17431e-07
1.99596e-07
1.20549e-08
-1.29409e-07
1.65515e-07
-7.59644e-07
4.009e-08
1.08484e-06
-1.54048e-09
-3.66782e-07
-3.7865e-10
-3.36268e-08
-3.6284e-09
-3.97851e-09
1.00025e-08
-7.67321e-08
-4.52312e-10
1.13475e-07
-1.0206e-09
1.71877e-08
1.79599e-11
5.35106e-08
1.23813e-09
-8.82294e-08
-8.27327e-10
7.6516e-08
1.11666e-08
-1.19391e-09
1.30917e-09
1.92364e-10
-4.65198e-09
6.08305e-08
1.34047e-09
-3.97255e-09
2.94139e-10
8.54919e-11
1.79264e-10
-3.34135e-11
1.114e-09
-1.46569e-10
-6.16691e-11
-7.85762e-09
-1.25237e-12
-8.01957e-09
1.92961e-10
1.9891e-09
9.3655e-12
5.71155e-10
7.01438e-11
-1.52007e-09
4.45076e-11
1.76617e-09
2.44289e-11
1.10148e-10
2.11454e-10
2.51682e-10
1.41237e-09
2.0341e-09
1.23607e-09
1.29075e-09
6.41914e-10
1.22003e-09
1.35122e-10
2.46363e-09
2.3541e-12
2.74963e-09
3.39371e-11
1.46971e-09
1.47959e-12
-4.38548e-12
2.11018e-12
-1.2503e-10
3.31332e-11
-5.60044e-11
1.20131e-09
-1.17575e-09
2.55423e-09
-1.62169e-09
2.8201e-09
-8.06037e-09
2.87974e-11
-7.49828e-10
1.18572e-12
9.11413e-11
1.94903e-13
3.58924e-12
1.29507e-14
5.21628e-13
3.65018e-13
6.33319e-14
-3.8738e-08
1.94554e-06
-5.38688e-08
1.18139e-06
-6.78033e-08
-5.06828e-08
-1.24694e-07
-5.30032e-07
-1.63542e-07
-4.13099e-07
-1.26232e-07
1.7208e-07
1.40163e-08
-2.74747e-07
1.45706e-07
-7.83331e-07
2.62665e-08
2.71845e-06
-5.76603e-09
-7.10139e-07
-5.46391e-10
-2.05583e-08
-1.47297e-10
-4.38093e-09
9.33759e-10
-2.33232e-09
1.21654e-09
1.25438e-07
-3.3416e-09
1.69561e-08
9.21993e-09
1.73983e-07
5.89975e-09
-8.18239e-08
-3.42291e-09
5.99405e-08
2.18207e-08
-2.74322e-08
4.33295e-09
3.13912e-09
8.90417e-10
7.2154e-08
1.29946e-09
2.58679e-09
1.35213e-09
3.99786e-10
7.34333e-10
-1.37156e-10
2.63378e-09
-4.93401e-09
1.1761e-09
-5.99631e-09
4.27311e-11
-5.81856e-09
3.08278e-10
1.68659e-09
4.13407e-11
7.69174e-10
2.06376e-12
-7.79475e-10
1.5974e-10
3.70683e-09
8.93046e-11
9.59145e-10
1.19258e-09
4.14891e-10
1.57217e-09
1.49885e-09
1.37542e-09
1.33897e-09
8.10757e-10
1.68286e-09
3.76284e-10
2.8523e-09
3.12276e-10
2.7783e-09
1.28301e-10
1.67538e-09
2.26691e-11
4.48745e-10
8.33022e-12
-2.69598e-10
8.06318e-11
-1.34753e-10
1.16783e-09
-1.13116e-09
2.38305e-09
-2.82617e-09
1.95729e-09
-7.65235e-09
-9.02121e-12
-8.85938e-10
4.29974e-14
8.03114e-11
2.00429e-13
3.38848e-12
1.27614e-14
6.61266e-13
2.67318e-13
6.01465e-14
-3.65222e-08
1.98206e-06
-4.99557e-08
1.19483e-06
-5.84311e-08
-4.08634e-08
-1.12575e-07
-4.70845e-07
-1.77785e-07
-3.45184e-07
-1.57206e-07
1.50316e-07
-4.75408e-08
-3.83741e-07
1.45308e-07
-1.19527e-06
-1.89134e-08
3.64095e-06
-5.34311e-08
-6.80958e-07
-1.29331e-10
-5.54166e-08
-3.78341e-11
-4.21368e-09
9.42533e-11
-2.24267e-09
7.23555e-09
1.32572e-07
1.81059e-09
1.66723e-08
1.35916e-08
1.65431e-07
-4.67348e-10
-6.51016e-08
-1.17286e-08
5.78201e-08
2.25431e-08
-6.57343e-08
6.20734e-09
7.60671e-11
3.3914e-09
-3.10519e-09
9.05695e-10
6.96209e-09
9.43914e-10
8.419e-11
6.56938e-10
-1.28459e-10
3.83099e-09
-7.73369e-09
1.67418e-10
-1.96188e-09
2.78886e-12
-4.98629e-09
2.93593e-10
1.42223e-09
9.11772e-11
9.38197e-10
5.67062e-11
-9.91634e-10
2.31058e-10
2.31879e-09
7.82802e-10
2.42713e-09
1.61397e-09
-5.99953e-11
1.69635e-09
1.31491e-09
1.4432e-09
1.49267e-09
9.83066e-10
2.09829e-09
6.78275e-10
3.1492e-09
7.04835e-10
2.7856e-09
2.4601e-10
2.10712e-09
2.10364e-10
1.14564e-09
1.00273e-10
-3.76164e-10
1.89397e-10
-2.42633e-10
1.04014e-09
-6.92029e-10
1.84996e-09
-3.67262e-09
2.04909e-09
-7.84022e-09
3.76407e-11
-7.10255e-10
4.53565e-13
1.19678e-10
1.73436e-13
4.5627e-12
-1.14166e-15
9.61697e-13
5.42234e-14
2.43566e-14
-3.44606e-08
2.01652e-06
-4.73243e-08
1.2077e-06
-5.51729e-08
-3.18836e-08
-9.14522e-08
-4.30014e-07
-1.50023e-07
-2.82e-07
-1.16142e-07
1.15611e-07
-5.3364e-08
-4.44022e-07
9.22942e-08
-1.22211e-06
-2.57434e-08
4.04785e-06
2.34348e-09
-5.18487e-07
-1.37302e-10
-1.84093e-08
-2.72421e-11
-4.12487e-09
7.84677e-11
-2.14658e-09
6.79916e-09
-1.65226e-09
1.2335e-09
1.66418e-08
1.30875e-08
1.61182e-07
-1.71672e-09
-4.72143e-08
-9.99252e-09
5.36204e-08
1.16871e-08
-8.87702e-08
6.9541e-09
1.35062e-08
8.82248e-10
8.2181e-09
1.56822e-09
1.89838e-08
2.45692e-09
-9.23129e-11
9.31189e-10
-1.19567e-11
2.7141e-09
-1.54086e-09
3.33086e-10
7.59869e-10
1.19279e-11
-5.30879e-09
2.02601e-10
2.49967e-11
2.61251e-10
7.9089e-10
1.22328e-10
-9.81379e-10
2.43379e-10
1.75314e-09
1.56046e-09
1.61011e-09
1.61309e-09
-6.07949e-10
1.53487e-09
1.01355e-09
1.42694e-09
1.53244e-09
1.10587e-09
2.33868e-09
9.19908e-10
3.29806e-09
8.20127e-10
2.0474e-09
4.23759e-10
2.36212e-09
5.66504e-10
1.44906e-09
2.18636e-10
-2.9008e-10
2.61277e-10
-3.24281e-10
9.71767e-10
-9.64364e-12
1.33059e-09
-4.11526e-09
1.54027e-09
-8.06993e-09
2.67175e-11
-7.16987e-10
4.10976e-13
1.47551e-10
-1.0595e-13
7.03957e-12
-6.54641e-15
2.04193e-12
1.509e-14
8.4889e-14
4.53211e-16
1.21411e-16
4.46863e-16
9.77371e-19
2.95127e-13
-3.15134e-13
1.19393e-12
-5.74126e-13
1.68426e-12
-5.30303e-13
1.90106e-12
-1.38609e-13
2.09313e-12
-3.43574e-13
1.62201e-12
-2.67577e-13
7.68036e-13
-4.02693e-15
7.62385e-13
5.65061e-15
1.24622e-08
4.69557e-09
-8.22977e-08
1.87714e-07
-8.26757e-08
-1.61055e-08
-4.51565e-09
-8.06802e-08
9.60367e-08
-9.54644e-08
1.20031e-07
-2.43722e-08
1.37665e-08
6.49665e-08
-8.1072e-11
1.88755e-08
-1.40811e-14
-8.10579e-11
6.97315e-13
-7.11392e-13
-1.39625e-10
1.37777e-10
-3.76296e-10
-2.39417e-10
4.2717e-09
-6.7779e-09
7.86993e-10
5.56047e-09
-3.07929e-10
2.03864e-09
-9.95649e-12
-1.20717e-11
-2.15616e-12
-7.80034e-12
-5.58641e-10
5.18031e-10
-2.65225e-09
1.15745e-09
-2.2113e-09
-5.22446e-10
-1.88201e-09
-6.66687e-10
-9.63205e-10
-6.45069e-10
1.11805e-09
9.86059e-11
2.91124e-09
9.99983e-10
4.83057e-09
2.00087e-09
1.64176e-09
7.37155e-09
1.84618e-09
6.61927e-09
-2.81589e-09
1.03518e-08
-1.29945e-08
3.16678e-09
-1.08493e-07
-1.83446e-09
2.25137e-07
-4.53134e-07
9.29428e-08
3.03604e-08
-7.27966e-08
4.15056e-07
-1.47091e-07
9.03021e-08
-2.54816e-08
-1.42125e-07
1.0949e-07
-1.41093e-07
2.2443e-07
-1.10542e-07
2.48835e-07
-2.38511e-08
1.51952e-07
9.68966e-08
1.51953e-07
-1.34829e-14
6.60897e-15
-4.45237e-14
-6.23491e-14
5.49271e-13
-8.8271e-13
1.56571e-12
-1.56477e-12
2.59385e-12
-1.52872e-12
3.4936e-12
-7.28814e-13
3.8036e-12
-3.24899e-13
3.96108e-12
-1.37237e-13
1.81612e-12
2.0544e-13
1.776e-12
4.7019e-14
1.28418e-09
4.02825e-08
3.21184e-08
1.61317e-07
-7.28946e-08
8.71268e-08
-1.65865e-07
8.08558e-09
-9.25646e-08
-1.88783e-07
3.28493e-09
-1.36743e-07
1.75912e-08
1.64959e-08
1.73846e-11
3.60854e-08
6.49364e-12
-6.69572e-11
1.6686e-11
-1.08612e-11
-1.40089e-09
1.52768e-09
-6.15254e-09
2.75863e-09
-7.60678e-09
-6.70629e-09
-5.12982e-09
5.1712e-09
-2.9596e-10
8.49242e-10
-1.12014e-10
6.27431e-11
-1.91654e-09
1.13729e-09
-4.71637e-09
3.34647e-09
-5.49136e-09
2.82748e-09
-4.71637e-09
-3.45962e-10
-3.61802e-09
-7.53586e-10
-1.81715e-09
-1.53469e-09
9.55403e-10
1.23719e-09
4.25476e-09
-1.21371e-08
2.57794e-08
-7.08521e-08
4.14893e-09
2.23209e-08
3.84282e-09
1.53182e-08
-2.72245e-09
1.18156e-08
-1.99575e-08
9.11598e-09
3.87868e-08
-5.81198e-08
1.89153e-07
-5.02966e-07
1.29115e-07
-1.25374e-08
1.19581e-07
1.27221e-06
3.15601e-08
3.0065e-07
4.16328e-08
-1.52593e-07
1.41825e-07
-2.4171e-07
2.22981e-07
-1.92151e-07
2.62194e-07
-6.29379e-08
1.83028e-07
1.76194e-07
3.34982e-07
-2.87647e-13
2.0351e-13
-4.12338e-13
-3.27054e-13
4.40743e-14
-1.31685e-12
5.39477e-13
-1.43648e-12
3.70375e-13
-2.19747e-13
9.1898e-14
-1.55888e-13
1.23398e-13
-1.36989e-13
1.30487e-13
-4.53479e-14
1.56815e-13
-6.89349e-15
1.88563e-13
3.33877e-14
1.65379e-08
8.84015e-08
6.40219e-08
1.23453e-07
-1.85018e-08
1.67363e-07
-1.24461e-07
1.13479e-07
-1.97643e-07
-1.15603e-07
-1.2493e-07
-2.09456e-07
2.73572e-08
-1.42565e-07
1.40843e-10
4.50883e-08
-6.54641e-11
1.25092e-10
-6.32681e-11
-9.88942e-12
-2.94157e-09
4.57308e-09
-7.80834e-09
6.98988e-09
-8.31402e-09
-7.8018e-09
1.04451e-09
-4.37672e-09
1.51837e-10
4.90927e-10
-4.19387e-10
8.55987e-10
-3.18006e-09
3.82306e-09
-4.19338e-09
4.38118e-09
-1.61587e-09
1.3616e-09
-1.41909e-09
-5.96903e-10
-1.20886e-09
-1.10535e-09
-1.82616e-09
-1.09886e-09
-1.37995e-10
-2.57706e-08
3.57135e-09
-3.7288e-08
2.88483e-08
-9.07829e-08
2.09076e-09
3.03919e-08
3.10578e-09
2.01815e-08
-2.32168e-09
1.3126e-08
5.71423e-08
-1.55431e-07
4.6568e-08
-7.49685e-08
1.35723e-07
-2.25307e-07
2.85604e-07
-1.02329e-07
6.26288e-07
1.11243e-06
1.14019e-07
8.42385e-07
4.98145e-08
-8.87223e-08
1.49877e-07
-3.42143e-07
2.19246e-07
-2.61684e-07
2.5071e-07
-9.43459e-08
1.79171e-07
2.47774e-07
5.14153e-07
-8.22377e-13
1.01811e-12
-5.6228e-13
-1.15419e-13
-1.3618e-13
-1.01957e-14
1.22189e-14
-2.16953e-14
7.42067e-15
-4.97784e-14
7.29378e-14
4.95551e-14
8.59521e-14
4.35139e-14
9.40451e-14
-8.04605e-17
9.30249e-14
8.94908e-14
1.21144e-13
3.96555e-14
4.71791e-08
9.67545e-08
1.04201e-07
8.21731e-08
5.56063e-08
2.16033e-07
-2.21973e-08
1.91456e-07
-1.06246e-07
-3.15543e-08
-1.53376e-07
-1.62325e-07
1.88739e-10
-3.06448e-07
2.82576e-10
2.33519e-08
-2.66407e-10
5.92005e-10
-2.79421e-10
-1.03593e-11
-4.35829e-09
8.4627e-09
-6.81433e-09
8.18574e-09
-8.9381e-09
-8.02301e-09
-1.67761e-09
-9.96497e-09
-6.40489e-10
2.19666e-09
-2.17536e-09
1.86198e-09
-3.81402e-09
5.48992e-09
-2.00481e-09
2.63053e-09
-1.43496e-09
7.11592e-10
-1.08708e-09
-9.89935e-10
-1.302e-09
-9.51316e-10
-6.98149e-09
1.00569e-09
-1.06252e-09
-6.57052e-08
-1.519e-09
-1.77362e-08
1.12999e-08
-9.86899e-08
-9.17746e-10
9.56276e-09
2.47941e-09
2.09167e-08
3.03914e-09