/*--------------------------------*- C++ -*----------------------------------*\
| =========                 |                                                 |
| \\      /  F ield         | OpenFOAM: The Open Source CFD Toolbox           |
|  \\    /   O peration     | Version:  2.4.0                                 |
|   \\  /    A nd           | Web:      www.OpenFOAM.org                      |
|    \\/     M anipulation  |                                                 |
\*---------------------------------------------------------------------------*/
FoamFile
{
    version     2.0;
    format      ascii;
    class       volScalarField;
    location    "0.188";
    object      p_rgh;
}
// * * * * * * * * * * * * * * * * * * * * * * * * * * * * * * * * * * * * * //

dimensions      [1 -1 -2 0 0 0 0];

internalField   nonuniform List<scalar> 
57600
(
97.6017
94.6443
92.6535
90.5486
89.3899
90.4193
93.8081
97.8802
100.79
102.073
102.069
101.244
99.9473
98.4348
96.8877
95.4187
94.0903
92.9304
91.9463
91.1323
90.4748
89.9561
89.557
89.2581
89.0412
88.8903
88.7915
88.733
88.7052
88.7005
97.6314
93.3039
92.0712
90.1095
89.3936
91.043
94.8271
98.7561
101.271
102.192
101.94
100.967
99.5937
98.0568
96.5191
95.0786
93.788
92.6691
91.7256
90.9493
90.3254
89.8361
89.4619
89.1836
88.9836
88.8462
88.758
88.7077
88.6862
88.6861
97.6917
93.2652
92.0637
90.0887
89.3515
90.9881
94.8098
98.7871
101.326
102.244
101.98
100.993
99.6112
98.0665
96.5222
95.0755
93.779
92.6544
91.7053
90.9237
90.2949
89.8014
89.424
89.1434
88.9418
88.8034
88.7147
88.6643
88.6428
88.643
97.7838
93.2035
92.0548
90.0576
89.286
90.9003
94.7776
98.8286
101.408
102.331
102.051
101.043
99.6437
98.0851
96.5283
95.0701
93.7632
92.6291
91.671
90.8808
90.2443
89.7442
89.3616
89.0773
88.8731
88.7332
88.6437
88.5931
88.5719
88.5725
97.9082
93.1172
92.0447
90.0159
89.1972
90.7794
94.7327
98.8824
101.518
102.448
102.149
101.116
99.6921
98.1133
96.538
95.063
93.7411
92.5936
91.6228
90.8207
90.1735
89.6641
89.2744
88.9848
88.7771
88.6352
88.5447
88.4938
88.4729
88.4743
98.0654
93.0039
92.0336
89.9638
89.0849
90.6234
94.6751
98.949
101.655
102.595
102.273
101.209
99.756
98.1508
96.5512
95.0543
93.7129
92.548
91.5608
90.7431
90.0824
89.5604
89.1615
88.8653
88.6533
88.5087
88.4169
88.3658
88.3455
88.3479
98.2562
92.8605
92.0221
89.9015
88.949
90.4297
94.6053
99.0285
101.82
102.772
102.423
101.322
99.8349
98.1976
96.5682
95.044
93.6786
92.4923
91.485
90.6478
89.9688
89.4326
89.0221
88.7178
88.5006
88.353
88.2597
88.2084
88.1887
88.1924
98.4815
92.6833
92.0106
89.8291
88.7895
90.1953
94.5253
99.1211
102.015
102.979
102.599
101.456
99.9289
98.2538
96.5888
95.0322
93.6383
92.4267
91.3953
90.5348
89.8341
89.2797
88.8553
88.5413
88.3179
88.1669
88.0721
88.0204
88.0013
88.0065
98.742
92.4677
91.9996
89.747
88.6068
89.9163
94.4401
99.2268
102.24
103.218
102.8
101.61
100.038
98.3195
96.6131
95.0187
93.5918
92.3513
91.2921
90.404
89.6773
89.1009
88.6597
88.3344
88.1041
87.9493
87.8529
87.8007
87.7818
87.788
99.0372
92.2091
91.9894
89.6557
88.4011
89.5879
94.3606
99.3454
102.497
103.49
103.027
101.785
100.163
98.3946
96.6412
95.0034
93.539
92.2662
91.1756
90.2554
89.4977
88.8949
88.4339
88.0954
87.8575
87.6991
87.6012
87.5485
87.5292
87.5348
99.3654
91.9026
91.9805
89.5556
88.1733
89.2043
94.3078
99.4766
102.786
103.795
103.281
101.979
100.302
98.4794
96.673
94.9861
93.4799
92.1718
91.0462
90.089
89.2941
88.66
88.1755
87.8222
87.5764
87.4148
87.3163
87.264
87.2451
87.2515
99.7228
91.5429
91.9727
89.4474
87.9247
88.7581
94.3127
99.62
103.108
104.134
103.56
102.194
100.458
98.5737
96.7084
94.9667
93.4142
92.0684
90.9045
89.9049
89.0665
88.3941
87.8818
87.5118
87.2583
87.0947
86.9974
86.9476
86.9311
86.9392
100.102
91.1241
91.9659
89.3319
87.6569
88.2402
94.4069
99.7767
103.464
104.508
103.865
102.428
100.629
98.6774
96.7476
94.9447
93.3415
91.9562
90.7511
89.7036
88.8137
88.0941
87.5485
87.1601
86.8998
86.7363
86.6426
86.598
86.5874
86.5999
100.49
90.6393
91.9597
89.21
87.3728
87.638
94.6087
99.9533
103.852
104.917
104.195
102.681
100.816
98.7904
96.7904
94.9197
93.2608
91.8352
90.5869
89.4859
88.5333
87.7555
87.1693
86.7611
86.4959
86.3354
86.2479
86.2107
86.2085
86.2318
100.867
90.078
91.9533
89.0832
87.0759
86.9338
94.915
100.167
104.275
105.36
104.548
102.951
101.02
98.9119
96.8369
94.8909
93.1704
91.7036
90.4128
89.2535
88.224
87.3714
86.7347
86.3056
86.0396
85.8865
85.8081
85.7799
85.7862
85.8164
101.201
89.4239
91.9443
88.9529
86.7714
86.103
95.2858
100.444
104.735
105.841
104.924
103.236
101.24
99.0408
96.887
94.857
93.0647
91.553
90.23
89.0092
87.8833
86.9311
86.229
85.7792
85.5212
85.384
85.3198
85.3031
85.3196
85.3595
101.439
88.6403
91.9296
88.8217
86.4658
85.1101
95.611
100.818
105.239
106.363
105.319
103.533
101.478
99.1747
96.9408
94.8165
92.9265
91.3603
90.0428
88.7586
87.5087
86.4182
85.627
85.1595
84.9275
84.8232
84.7831
84.7827
84.8118
84.863
101.492
87.677
91.9055
88.693
86.1675
83.9049
95.7242
101.321
105.797
106.925
105.733
103.837
101.734
99.3091
96.9983
94.7703
92.7163
91.1281
89.8637
88.5109
87.0973
85.8089
84.8936
84.4198
84.2483
84.2075
84.207
84.2275
84.2686
84.3295
101.209
86.5044
91.8682
88.573
85.8867
82.4239
95.3961
101.955
106.41
107.528
106.161
104.14
102.013
99.4366
97.0584
94.7272
92.4132
90.9519
89.7132
88.2779
86.6514
85.0833
84.0077
83.5642
83.5028
83.5579
83.6093
83.6481
83.6927
83.7551
100.291
85.0681
91.8141
88.4718
85.637
80.5782
94.0255
102.677
107.066
108.171
106.597
104.429
102.325
99.5443
97.116
94.7078
92.039
90.8481
89.5986
88.07
86.1812
84.2482
82.9621
82.6182
82.7355
82.9094
83.0104
83.0514
83.0794
83.1267
98.0169
83.2906
91.7403
88.4042
85.4223
78.2581
90.1201
103.433
107.766
108.858
107.036
104.687
102.691
99.612
97.1676
94.7327
91.5805
90.7086
89.4955
87.8818
85.7161
83.2448
81.4648
81.4521
81.9625
82.305
82.4378
82.4431
82.4137
82.4127
91.888
81.1154
91.6438
88.3959
85.0176
75.3824
76.1245
104.164
108.504
109.592
107.464
104.89
103.139
99.6137
97.2632
94.7926
91.0673
90.4622
89.3578
87.6803
85.2439
81.6496
78.2549
79.7138
81.2682
81.8287
81.9389
81.832
81.668
81.5526
79.2937
78.7172
91.5198
88.4876
84.804
72.0394
87.9248
104.803
109.268
110.376
107.862
104.973
103.615
99.5252
97.4835
94.8491
90.6114
90.0388
89.1912
87.4645
84.7303
79.383
73.5658
77.4243
80.9054
81.5786
81.5563
81.2214
80.8049
80.4585
70.1185
76.879
91.347
88.7251
84.2901
68.0716
84.8315
105.382
109.99
111.211
108.206
104.872
103.746
99.3399
97.8145
94.9419
90.2903
89.3814
89.0491
87.3433
84.369
78.3226
72.1711
76.5655
80.9535
81.5261
81.2982
80.5912
79.7849
79.0325
77.0366
74.9429
91.0457
89.0822
83.3974
30.5722
80.3483
106.113
110.38
112.101
108.473
104.529
102.662
99.0927
98.2154
95.1852
90.0131
88.4714
88.9059
87.2296
84.1582
78.653
73.4089
77.0398
80.3071
81.4809
81.2561
79.8778
78.5994
77.4022
88.0367
73.1271
90.5358
89.8552
27.6683
18.2722
64.7224
107.084
110.089
113.002
108.679
104.001
101.273
98.9102
98.8277
95.6041
89.4414
86.9114
88.7907
87.1048
83.5545
78.3988
16.6051
1.61408
0.133679
0.12509
0.126493
0.119628
0.118432
0.120571
94.4305
71.5637
90.0447
82.8424
-0.0819662
0.814206
77.2258
108.322
110.174
113.887
108.862
103.255
101.278
98.7811
99.657
96.3397
87.8491
83.8832
89.3243
73.0463
0.108869
0.0741451
0.0991852
0.11496
0.11867
0.119451
0.117363
0.117619
0.115822
0.116785
97.2179
2.44521
90.3328
0.15396
-0.0648469
0.62616
90.4439
108.281
109.762
114.822
109.107
102.693
100.797
99.1712
100.581
97.3578
81.5028
69.1675
0.0552449
0.08621
0.123495
0.181935
0.0819818
0.0989005
0.1112
0.117744
0.119155
0.11834
0.114986
0.111203
33.6834
2.18452
10.1011
0.209035
-0.0622853
0.545386
61.1006
107.014
107.89
115.499
109.512
103.856
98.5546
99.9433
101.287
98.2703
69.8132
0.191018
0.0739468
0.0813746
0.240119
0.232963
0.063276
0.0759734
0.0983981
0.114959
0.123533
0.125205
0.117383
0.104529
0.30091
1.46053
0.313594
0.19581
-0.0556791
0.392385
-6.04305
110.763
112.683
114.969
110.077
106.68
97.4234
99.8666
101.529
102.515
0.197532
0.132269
0.0669187
0.135265
0.147296
0.0477248
0.0544192
0.0637089
0.08331
0.112199
0.132712
0.148181
0.133563
0.0861147
88.7129
88.7415
88.7919
88.8704
88.9846
89.1432
89.3567
89.6369
89.9972
90.4518
91.0156
91.7031
92.5263
93.4929
94.6003
95.83
97.1421
98.4675
99.6839
100.593
100.93
100.368
98.6191
95.8216
92.7095
90.0783
88.8743
89.5464
91.4741
93.5203
88.7025
88.7363
88.7934
88.8805
89.0055
89.1777
89.4079
89.7083
90.0925
90.5751
91.1707
91.8934
92.7542
93.759
94.9017
96.159
97.4849
98.7996
99.9625
100.757
100.902
100.058
97.9957
95.0261
91.9522
89.59
88.8767
89.9699
92.0796
93.9002
88.6597
88.694
88.7519
88.84
88.9663
89.1402
89.3726
89.6756
90.063
90.5491
91.1487
91.8755
92.7405
93.7497
94.8974
96.1606
97.4935
98.8169
99.9893
100.794
100.948
100.101
98.0122
95.0135
91.9312
89.5576
88.8465
89.9513
92.0717
93.8993
88.5899
88.6251
88.6843
88.7742
88.9028
89.0795
89.3155
89.6229
90.0154
90.5074
91.1132
91.8466
92.7184
93.735
94.892
96.1665
97.5129
98.8508
100.039
100.859
101.023
100.166
98.031
94.9885
91.8955
89.5062
88.8001
89.9232
92.061
93.9012
88.4928
88.5295
88.5906
88.6831
88.815
88.9958
89.2368
89.5503
89.95
90.4501
91.0649
91.8074
92.6886
93.7159
94.8863
96.1778
97.5436
98.9016
100.109
100.949
101.124
100.253
98.0539
94.9527
91.8463
89.4359
88.7372
89.8855
92.0475
93.906
88.3679
88.4066
88.4704
88.5662
88.7024
88.8886
89.1362
89.4577
89.8667
90.3775
91.0039
91.7584
92.6518
93.6929
94.881
96.1941
97.5845
98.968
100.2
101.063
101.252
100.36
98.0805
94.9051
91.7836
89.346
88.6572
89.838
92.031
93.9136
88.2142
88.2554
88.3226
88.4228
88.5645
88.7575
89.0134
89.3447
89.7654
90.2895
90.9304
91.6997
92.6079
93.6657
94.8758
96.2151
97.6347
99.049
100.311
101.201
101.406
100.49
98.1101
94.8437
91.7078
89.2356
88.5597
89.7806
92.0113
93.9237
88.0304
88.0748
88.1461
88.2518
88.4005
88.6019
88.8678
89.2111
89.6459
90.1862
90.8446
91.6316
92.5569
93.634
94.8707
96.2406
97.6941
99.1445
100.442
101.363
101.586
100.643
98.1416
94.7666
91.6194
89.1039
88.4441
89.7134
91.9885
93.9364
87.8144
87.8631
87.9396
88.0521
88.2094
88.4211
88.6991
89.0565
89.508
90.0675
90.7468
91.5545
92.4985
93.5966
94.8655
96.2705
97.7624
99.2547
100.593
101.55
101.795
100.822
98.1739
94.6707
91.5191
88.9497
88.3096
89.6363
91.9623
93.9517
87.5616
87.6173
87.7009
87.8221
87.9903
88.2144
88.5065
88.8805
89.3515
89.9335
90.6375
91.4692
92.4328
93.5519
94.8599
96.3044
97.8397
99.38
100.764
101.762
102.033
101.027
98.2054
94.5521
91.408
88.7715
88.1553
89.5494
91.9326
93.97
87.28
87.5573
87.4242
87.5588
87.7417
87.9811
88.2895
88.6823
89.1757
89.7842
90.5174
91.3767
92.3599
93.4966
94.8537
96.3418
97.9259
99.5208
100.957
101.999
102.301
101.261
98.2346
94.4053
91.2878
88.5676
87.98
89.4528
91.8989
93.9912
86.9713
87.0291
87.1213
87.2644
87.4632
87.7205
88.047
88.4607
88.9799
89.6194
90.3872
91.2789
92.2807
93.4234
94.8466
96.3812
98.0207
99.6774
101.17
102.262
102.6
101.527
98.2595
94.2226
91.1606
88.3354
87.7822
89.3468
91.8608
94.0155
86.7135
86.6974
86.7921
86.942
87.1544
87.4304
87.7769
88.2142
88.7629
89.4385
90.2481
91.179
92.1976
93.3158
94.8361
96.42
98.1238
99.8508
101.406
102.55
102.931
101.827
98.278
93.9925
91.0295
88.0717
87.5602
89.2317
91.8179
94.0428
86.2709
86.3325
86.432
86.5849
86.81
87.1064
87.4756
87.9403
88.5229
89.241
90.1011
91.0814
92.1175
93.1363
94.8085
96.4521
98.2349
100.042
101.665
102.864
103.294
102.165
98.2875
93.699
90.8987
87.7722
87.3115
89.1081
91.7701
94.0733
85.8641
85.932
86.0265
86.1725
86.4197
86.7467
87.1415
87.6372
88.2577
89.0251
89.9473
90.9916
92.0553
92.8408
94.7407
96.467
98.3541
100.251
101.947
103.202
103.691
102.543
98.2852
93.3199
90.7742
87.431
87.0329
88.977
91.7182
94.1073
85.4171
85.4947
85.5807
85.5225
85.9262
86.3643
86.7815
87.3054
87.9646
88.7882
89.7868
90.915
92.0348
92.5978
94.5191
96.4479
98.4821
100.48
102.254
103.561
104.124
102.967
98.2658
92.8287
90.6645
87.0395
86.7202
88.84
91.6634
94.1451
84.9332
85.0296
85.1663
86.5025
85.4991
85.9712
86.4008
86.9457
87.6397
88.5257
89.6188
90.8533
92.0696
92.6995
94.0025
96.3807
98.6207
100.73
102.586
103.935
104.595
103.442
98.217
92.197
90.579
86.5858
86.3678
88.6989
91.6071
94.1874
84.4113
84.526
84.6981
84.9727
85.2272
85.5604
85.9952
86.5561
87.2762
88.2301
89.441
90.8036
92.1389
92.915
93.1681
96.2772
98.7731
101.003
102.946
104.329
105.102
103.972
98.1211
91.3948
90.5186
86.0537
85.9685
88.5568
91.551
94.2349
83.8424
83.9692
84.157
84.4201
84.7478
85.1212
85.5627
86.1345
86.8622
87.8881
89.2498
90.7597
92.1891
92.9182
92.2994
96.1869
98.9433
101.301
103.333
104.746
105.644
104.563
97.959
90.4153
90.4726
85.4172
85.5124
88.4178
91.4969
94.2885
83.2095
83.3461
83.5579
83.8554
84.2454
84.8423
85.1259
85.6865
86.3788
87.4765
89.0379
90.7129
92.2089
92.6909
91.9301
96.1806
99.1347
101.625
103.75
105.176
106.22
105.211
97.7274
89.2847
90.4115
84.6366
84.9813
88.2871
91.4466
94.3491
82.4718
82.6186
82.8856
83.2747
83.7309
84.4273
84.7219
85.2202
85.8003
86.9619
88.7865
90.6474
92.1808
92.496
92.2528
96.268
99.3486
101.977
104.197
105.617
106.828
105.913
97.4923
87.9613
90.2505
83.6633
84.3465
88.1718
91.4002
94.4161
81.5437
81.6943
82.0705
82.659
83.3041
83.8456
84.2716
84.7011
84.9717
86.2583
88.5
90.5585
92.0467
92.3992
92.8651
96.4066
99.5833
102.36
104.677
106.07
107.468
106.663
97.4311
86.6007
89.8049
82.4567
83.6039
88.0815
91.3595
94.4854
80.2805
80.3935
80.9737
82.0013
83.027
83.5465
83.7608
83.9647
83.118
85.1156
88.234
90.427
91.7486
92.2601
93.1991
96.5505
99.8347
102.775
105.2
106.532
108.137
107.443
97.7884
92.0479
88.8446
81.0114
82.8052
88.0265
91.3472
94.5657
78.4325
78.3465
79.3177
81.411
83.3068
83.5004
83.0644
83.097
81.4632
83.882
87.8988
90.134
91.2653
91.9712
93.0935
96.6938
100.093
103.23
105.782
107
108.833
108.223
98.4268
93.7291
87.1503
79.4035
82.0348
88.0125
91.4079
94.6679
75.5154
74.625
76.1958
81.1923
85.3622
83.8545
81.3175
82.7071
82.0208
83.5615
87.7139
89.6152
90.6273
91.4547
92.9129
96.8698
100.335
103.734
106.46
107.489
109.56
108.952
98.9016
88.6513
84.7254
78.1862
81.4394
88.0373
91.5212
94.7898
0.119189
0.119175
0.245072
10.7131
47.4213
70.2008
73.8329
82.5055
83.8128
83.592
88.1362
88.9103
89.9252
90.7395
92.7433
97.1175
100.51
104.3
107.291
108.03
110.327
109.558
99.9032
87.9911
79.8203
76.991
81.0524
88.0505
91.5519
94.8599
0.110813
0.108123
0.102871
0.0852001
0.0807034
0.0891037
0.107213
0.0959959
0.0823378
39.2367
89.434
87.8227
89.2661
89.6017
92.5445
97.4491
100.532
104.923
108.304
108.684
111.075
109.887
100.343
87.15
89.9055
0.213285
0.0361556
88.0426
91.3833
94.9528
0.107628
0.103718
0.0949519
0.0867962
0.0841992
0.0889171
0.0958584
0.0896009
0.078647
0.0609174
0.0231955
0.284865
84.7635
87.9875
92.5882
97.8854
100.291
105.485
109.479
109.313
111.477
109.965
102.106
85.4025
-0.245312
0.1657
0.0340589
-0.0145512
91.0993
94.98
0.0973853
0.0945109
0.0847955
0.0789902
0.0806989
0.0866839
0.0938338
0.0880929
0.0726205
0.0464075
0.0287421
0.0462513
0.0502332
0.100287
92.6668
98.7758
100.001
105.77
110.747
109.661
111.511
109.139
110.074
-0.424083
-0.269528
0.124482
0.0266863
-0.0051653
0.25859
94.8722
0.0242191
0.0697662
0.0628648
0.0629105
0.0725456
0.0822581
0.0873013
0.0822844
0.0584306
0.0291904
0.0255955
0.0543542
0.0524514
0.110826
0.114625
101.796
98.8958
104.52
111.797
109.491
110.422
108.725
120.075
0.0221641
-0.314959
0.0852418
0.0278008
0.00902164
0.158519
42.1774
2.11522
1.34053
0.321723
0.184748
-0.0461841
0.429791
-0.488882
111.921
116.963
113.187
110.661
106.526
99.0472
99.2808
102.21
0.0249342
0.173007
0.122669
0.065636
0.130023
0.0411344
0.198972
0.144767
0.049567
0.0769388
0.11033
0.138761
0.172603
0.197018
2.07606
-0.50213
1.37083
0.321296
0.178684
-0.0400198
0.288752
0.191132
112.237
117.927
112.543
111.126
106.73
100.614
98.9169
58.9118
0.0676963
0.169707
0.119045
0.0761815
0.13758
0.151417
0.0685145
0.0675193
0.0512503
0.0782016
0.109633
0.138553
0.180482
0.249399
17.8073
-0.16185
1.4132
0.320773
0.173225
-0.0320787
0.23969
0.220229
111.424
117.31
112.228
110.314
106.483
102.178
-0.190628
-0.481005
0.0468032
0.142405
0.157899
0.09949
0.135583
0.144521
0.0776982
0.0699366
0.0572201
0.0854665
0.125405
0.134551
0.170332
0.19135
1.64048
-0.145961
1.44054
0.315398
0.168793
-0.0217005
0.196546
0.213024
111.618
116.893
110.973
109.465
105.888
-0.0186994
-0.0266733
-0.299043
0.0468066
0.121697
0.0902034
0.0938589
0.123103
0.116812
0.0823118
0.0715443
0.0639279
0.0782657
0.107829
0.123805
0.155322
0.184041
0.24657
-0.485062
1.45663
0.306356
0.165647
-0.00909822
0.160817
0.222262
6.48211
115.277
109.905
108.638
12.8798
0.0103157
-0.126657
-0.173624
0.0421648
0.135473
0.0850603
0.102772
0.133395
0.106039
0.0819828
0.0726126
0.0680017
0.0776377
0.0825902
0.601396
0.140319
0.157446
0.162099
0.512228
1.5087
0.303477
0.163889
0.00479527
0.135686
0.266397
0.0681471
115.659
111.309
96.0315
0.465697
-0.00327755
-0.114126
-0.101082
0.0321075
0.0973646
0.0775177
0.0863859
0.287835
0.0982907
0.080566
0.0720262
0.0701768
0.0764692
0.0925369
0.105854
0.123329
0.132041
0.128212
0.721769
1.54017
0.302142
0.163428
0.0189267
0.117613
0.252856
0.205221
125.814
113.823
0.0271853
0.581814
0.0147289
-0.0970662
-0.0649668
0.0228111
0.0683346
0.0683717
0.0994568
0.256266
0.0801659
0.0764143
0.0718425
0.0706247
0.0761445
0.0871175
0.110144
0.113286
0.124495
0.11164
0.13199
1.4438
0.301968
0.163979
0.032637
0.111503
0.227633
0.192184
0.113245
0.278285
0.0292329
0.437281
-0.0613364
-0.0748881
-0.0391935
0.0162617
0.0559042
0.0885609
0.0743242
0.0742647
0.0743412
0.071568
0.069367
0.0691058
0.0737684
0.0820853
0.089536
0.0964365
0.103188
0.106694
-0.401111
1.25522
0.302689
0.165078
0.0453362
0.113164
0.234847
0.162279
0.160923
0.0999338
0.217987
0.215525
-0.0859204
-0.0615569
-0.0122756
0.0110107
0.0650353
0.0539135
0.0670883
0.0671795
0.0684606
0.0674412
0.0692424
0.0651811
0.0684542
0.0758442
0.0799425
0.0859662
0.0934326
0.0992979
-0.196253
1.06606
0.302866
0.166136
0.0585487
0.108827
0.179708
0.0122082
0.392029
0.0148142
0.277782
0.348647
-0.0981211
-0.0750313
0.00702628
0.00292589
0.053106
0.0459735
0.0678696
0.0607474
0.0619362
0.063362
0.061901
0.0596
0.059104
0.458682
0.0651147
0.07474
0.0841861
0.0913695
1.25269
0.597165
0.301251
0.166544
0.0658292
0.0956438
0.103231
-0.0701097
0.213829
-0.00936126
-0.122425
-0.0319107
-0.0963336
-0.0716957
-0.0347245
-0.0127672
0.0675676
0.0368871
0.0764498
0.0531675
0.0560265
0.0584517
0.0586344
0.0540009
0.053274
0.0680672
0.0602658
0.0725888
0.0796769
0.102826
9.03427
0.238025
0.296817
0.165805
0.0738669
0.0656731
0.0264708
-0.024876
-0.0610356
-0.0295453
-0.231667
-0.0462059
-0.0791213
-0.0811304
-0.0496066
-0.0138264
0.0138876
0.0288847
0.0426573
0.0470751
0.0509264
0.236525
0.359896
0.0489866
0.0502822
0.0715388
0.0578504
0.0663781
0.0789118
0.0803567
6.40446
0.0202691
0.284958
0.163639
0.0799155
0.0373126
-0.0103471
-0.151776
0.0439575
-0.0468015
-0.104717
-0.0475749
-0.0692889
-0.0886752
-0.0452509
-0.0274302
-0.000420308
0.0245723
0.191564
0.0406106
0.0468024
0.0458496
0.0779965
0.042988
0.06011
0.0527644
0.0591157
0.0659267
0.0703467
0.0771223
0.351479
-0.0950567
0.266522
0.160007
0.0848307
0.031214
-0.034627
-0.0676862
-0.10387
-0.0639856
-0.0313785
-0.0435841
-0.0585086
-0.0814484
0.0511663
-0.0489438
-0.0159133
0.014085
0.126537
0.0422219
0.0434941
0.0455885
0.0423824
0.0416189
0.0503926
0.0531437
0.060782
0.0658669
0.0725224
0.073217
1.12905
-0.057407
0.245526
0.155006
0.0882942
0.0613902
-0.0212327
-0.359884
-0.0527046
-0.0743002
-0.0434036
-0.0496357
-0.0562461
-0.0894406
-0.0373482
-0.0643349
-0.0306634
-0.006823
0.132103
0.0352742
0.0410118
0.0450481
0.0434168
0.0438896
0.0477796
0.0555178
0.061632
0.0671077
0.0717197
0.0739946
0.378892
0.047005
0.224493
0.148767
0.0898004
0.105639
0.0397036
-0.357049
-0.182497
-0.0853301
-0.0535526
-0.0482853
0.069675
-0.0954129
-0.0934838
-0.0826836
-0.0441435
-0.0175478
0.096689
0.0238788
0.03619
0.0381008
0.0418508
0.0444465
0.0487791
0.0557325
0.0650693
0.0765139
0.0701082
0.0680595
0.258303
0.18231
0.204207
0.14139
0.0886219
0.142925
-0.0809967
-0.467471
-0.210858
-0.0962047
-0.0583485
-0.0471782
0.0557684
-0.106755
-0.119677
-0.10211
-0.0635283
-0.0185979
-0.0139837
0.0170189
0.0283732
0.0406121
0.0344903
0.0401406
0.0448829
0.0506788
0.0757268
0.0706518
0.0812059
0.0800167
0.179221
0.20158
0.184477
0.13294
0.0842963
0.233776
0.905129
0.448824
-0.229281
-0.105082
-0.0659166
-0.0554597
-0.0796371
-0.122156
-0.141821
-0.119614
-0.0743134
-0.00856801
0.0912945
0.0112348
0.0205666
0.0255492
0.0287242
0.0331807
0.0359864
0.0398202
0.0452656
0.0586314
0.0665058
0.0961268
0.115722
0.190946
0.164981
0.123501
0.0760309
0.200137
-0.717322
-0.402458
-0.227335
-0.11072
-0.0720035
-0.0610516
-0.083886
-0.131787
-0.153713
-0.126062
-0.0707412
-0.0394999
-0.00673825
0.00823961
0.0178887
0.024048
0.0280191
0.026149
0.0250099
0.0275738
0.0235662
0.0237839
0.0195363
0.0100026
0.0510195
0.156869
0.145667
0.11322
0.0644954
0.0649619
-0.464716
-0.0815084
-0.219849
-0.110632
-0.0764747
0.068086
-0.0872662
-0.128657
-0.147138
-0.115995
-0.068769
-0.0346699
0.0587064
0.0889868
0.0192105
0.0246091
0.0242308
0.0204329
0.0156657
0.0133159
0.0212581
0.00756887
0.00598535
0.00560765
-0.0270048
0.0864652
0.126939
0.102362
0.0513031
-0.0888682
-0.353802
0.201227
-0.197154
-0.103577
-0.0728685
-0.0398419
-0.0787037
-0.110338
-0.120618
-0.0900633
-0.0437105
-0.0243333
-0.00361835
0.0141837
0.0249982
0.0288887
0.0261963
0.0202953
0.013693
0.00768977
0.00451731
0.00291866
0.00395516
0.00664553
-0.122007
-0.0529319
0.1097
0.0913131
0.0392527
-0.198627
-0.155458
-0.00482037
-0.145734
-0.0892301
-0.0633548
-0.0524265
-0.0153009
-0.0825899
-0.0820618
-0.0570281
-0.0307248
-0.0111323
0.0955149
0.0929176
0.0278395
0.0337368
0.0386098
0.0314079
0.0224948
0.0176463
0.0230393
0.0140953
0.01425
0.014699
-0.0618012
-0.0380142
0.0947614
0.0805107
0.0321125
-0.156073
-0.0290327
-0.128493
-0.0312476
-0.0743593
-0.0512869
-0.0398459
-0.0412812
-0.0481253
-0.0428993
-0.0257918
-0.00852374
0.0097357
0.0149254
0.0258075
0.0497626
0.0391109
0.0405866
0.0396276
0.0347382
0.0321855
0.0303751
0.0308547
0.0311923
0.0416048
-0.00276487
0.0372227
0.0817402
0.0702926
0.0310917
-0.0538664
-0.073317
0.0120176
-0.0283993
0.0175226
-0.038093
-0.0260613
-0.0188575
-0.0197374
-0.0120404
-0.00195689
0.0107987
0.0186085
0.0268132
0.0349217
0.0399737
0.0428446
0.0441245
0.0434815
0.0422471
0.0407368
0.039785
0.0391559
0.0382499
0.0465904
0.0235416
0.0638701
0.0696013
0.0607148
0.0333161
0.0177508
0.0247531
0.0068095
-0.0948576
0.0209951
-0.0249649
-0.0132989
-0.00513491
-0.00101707
0.00472068
0.0135321
0.0223613
0.0296516
0.0411743
0.0475724
0.0532164
0.0470121
0.0458828
0.0461777
0.0449633
0.0436013
0.0427575
0.0424639
0.042504
0.0425597
0.0310856
0.0648622
0.0579102
0.0515003
0.0349248
0.0386746
0.0325613
1.12941
-0.100066
-0.0338424
-0.0159638
-0.00490912
0.00176336
0.0102362
0.0270159
0.0252096
0.150438
0.0311828
0.0375683
0.0527779
0.0483253
0.0449577
0.0442203
0.0542255
0.0411661
0.0403769
0.0406118
0.0424347
0.0443627
0.0460563
0.0264967
0.0561099
0.0462142
0.042161
0.0335337
0.0402635
0.0663525
0.199934
-0.0520594
-0.0245516
-0.00895007
-0.00126314
0.00437404
0.009797
0.0163013
0.0323275
0.0220255
0.0273961
0.0298289
0.0345065
0.0322674
0.0317007
0.0380158
0.0676149
0.0303314
0.0294655
0.0693085
0.0500208
0.038891
0.0405464
0.0138073
0.0398459
0.0339637
0.0321655
0.0284235
0.0341215
0.044874
0.103295
0.0135467
0.00755505
-0.00549405
-0.00155699
0.00237058
0.00636655
0.00977568
0.0131548
0.0150253
0.016571
0.0181073
0.0189305
0.0181168
0.0153301
0.0113803
0.00762072
0.00495053
0.00627334
0.00834933
0.011642
0.0170122
0.0210411
-0.00919458
0.0129121
0.0211137
0.0210693
0.0197994
0.0236316
0.0317955
0.0433568
0.0705508
0.00213817
-0.00505763
-0.00539271
-0.003128
-0.000182602
0.002489
0.0046305
0.0064245
0.00796753
0.00923807
0.010058
0.0103086
0.00998469
0.00935783
0.0121389
0.00904078
0.00981968
0.0116611
0.0139698
0.0167266
0.0174553
-0.0105405
-0.0116043
0.00812539
0.00856236
0.00827463
0.00971256
0.0132436
0.0164934
0.00771183
-0.00333932
-0.0115308
-0.0132597
-0.011567
-0.00888074
-0.00633637
-0.00424505
-0.00252713
-0.00102556
0.000356473
0.00164796
0.00285708
0.00399011
0.00504589
0.00598899
0.00670839
0.00796778
0.00882398
0.0095498
0.0116756
0.0115181
-0.249179
-0.0396542
0.0129715
0.0435816
0.0642858
0.0773477
0.0825572
0.072874
0.0445196
0.0137498
0.0167252
0.0401409
0.12544
0.135527
0.159397
0.164441
97.7958
105.988
112.014
108.969
108.961
109.374
120.595
0.00185925
-0.331717
0.0583256
0.0202901
0.0169215
0.120357
0.207433
0.23163
-0.294443
-0.0238918
0.0330981
0.059559
0.0742336
0.0782825
0.0669723
0.0488079
0.00603822
0.0110562
0.0383076
0.0553428
0.085384
0.129755
0.0680084
4.60175
106.25
112.812
108.991
108.323
108.881
119.864
-0.0266181
-0.309053
0.043895
0.0198859
0.0200419
0.100327
0.149575
1.78643
-0.144137
-0.0254333
0.0286071
0.055989
0.0703714
0.0730188
0.0614933
0.0374405
-0.000766843
0.0049562
0.0360714
0.0620474
0.0934012
0.158941
0.133202
0.0487044
105.6
114.289
109.494
107.712
107.894
125.584
-0.113034
-0.31215
0.0306828
0.0195593
0.0207186
0.0818084
0.128644
0.122
0.00448815
0.00475277
0.0326573
0.0553455
0.066757
0.0666074
0.059123
0.0200525
-0.00762361
-0.00127452
0.0333048
0.0651175
0.0947572
0.229426
0.0291241
-0.0250982
2.78255
114.979
110.38
107.107
107.332
124.554
-0.0790083
-0.292872
0.0191626
0.0192302
0.0182707
0.0648448
0.107985
0.116223
0.0589587
0.0366851
0.0423528
0.0553799
0.0641317
0.0635995
0.0507547
0.01252
-0.0028482
-0.00738617
0.0300981
0.0657148
0.152152
0.267279
0.0487408
-0.0294988
-0.017136
115.708
111.703
107.061
107.291
19.7399
-0.035485
-0.272559
0.00974562
0.0188219
0.0169726
0.0499006
0.0883457
0.106849
0.077761
0.0589553
0.0534394
0.0572123
0.14433
0.0582948
0.0577712
0.00696374
-0.00566026
-0.0132234
0.0267786
0.0651863
0.138947
0.18631
0.0524493
-0.0247152
0.240091
0.553156
113.286
108.087
109.962
0.358219
-0.0168764
-0.255881
0.00261671
0.018268
0.0157412
0.0372051
0.0702379
0.102047
0.0867814
0.0742977
0.0624318
0.0622409
0.081707
0.0594478
0.0518491
0.00470734
-0.0180637
-0.00921235
0.0226753
0.0644707
0.145727
0.111995
0.056573
0.0182087
1.26519
0.342789
-0.0550181
-0.261496
-0.169676
-0.00726784
-0.0101287
-0.215292
-0.00242355
0.0175452
0.0145486
0.0267207
0.0540207
0.0982729
0.0896625
0.0807536
0.0684598
0.0665938
0.0651387
0.0637102
0.0630366
0.00525615
-0.0188812
0.00273373
0.0190428
0.0646362
0.0900699
0.105053
0.0564241
0.0437017
0.121009
0.139868
-0.0714677
-0.265485
-0.161369
-0.0829024
-0.0323217
-0.132868
-0.005965
0.0166218
0.0135232
0.0177569
0.0399887
0.0941326
0.0890613
0.0806755
0.0734255
0.0712959
0.0710111
0.0710228
0.486627
0.0104031
-0.00981465
-0.00367097
0.0256015
0.0725007
0.0846471
0.0984351
0.0500783
0.0435988
0.0267169
0.0134303
-0.21819
-0.268928
-0.165273
-0.0953086
-0.041243
-0.0722718
-0.00881652
0.0154914
0.0125741
0.0104469
0.0283244
0.0890233
0.0865945
0.0816287
0.0773935
0.0761252
0.076482
0.0765043
0.504685
0.0181777
0.00569742
0.00902521
0.034458
0.0724565
0.0798248
0.0951098
0.120439
0.0479934
0.0434243
0.00226167
-0.173263
-0.238527
-0.125883
-0.117084
-0.0298744
-0.0612304
-0.0106229
0.0141594
0.0116031
0.00514668
0.0190481
0.0859953
0.0827132
0.0809506
0.0793291
0.0796797
0.0817159
0.0799005
0.0561539
0.0434444
0.0291567
0.0306912
0.0435952
0.0661282
0.077069
0.0986357
0.226288
0.0551266
0.113259
0.0451934
-0.162989
-0.214391
-0.148619
-0.0886006
-0.065681
-0.0858945
-0.0119682
0.0126529
0.0105867
0.0015386
0.0120126
0.0798328
0.079487
0.0791321
0.0789273
0.0787966
0.139965
0.0840118
0.0730982
0.0558832
0.0464697
0.0451944
0.0528614
0.0653127
0.0764217
0.0868358
0.0954621
0.0637976
0.0206742
0.106416
-0.0581706
-0.290589
-0.15536
-0.0693254
-0.0763156
-0.117319
-0.0148587
0.0110168
0.0095242
-0.000689399
0.00691633
0.0754108
0.0761509
0.0767083
0.0770515
0.0756009
0.200323
0.111218
0.106312
0.0695924
0.0621686
0.0587794
0.0597084
0.0653514
0.0714102
0.0803316
0.0734309
0.0698184
0.0467152
-0.0119978
-0.257708
-0.279586
-0.156443
-0.0552824
-0.0593553
-0.151381
-0.0182079
0.00930336
0.00842422
-0.00187181
0.00337059
0.0730827
0.0734933
0.0740656
0.0746396
0.0756548
0.0780403
0.0799881
0.0817295
0.0754851
0.0731152
0.0660756
0.0675426
0.0656544
0.0709013
0.0774375
0.0794996
0.0776044
0.0694742
0.0449884
-0.291568
-0.265544
-0.192444
-0.0546327
-0.0589995
-0.219551
-0.0208698
0.00756628
0.00730218
-0.00255755
0.000994009
0.0600077
0.0703195
0.0704276
0.0706219
0.0717644
0.0778735
0.078401
0.0826401
0.0767933
0.0717768
0.0710248
0.0650331
0.0652888
0.0696695
0.0758099
0.0832526
0.0882069
0.0768877
-0.0678074
-0.30504
-0.357138
-0.199727
-0.0713029
-0.0586757
-0.211884
-0.0224538
0.00585959
0.00617685
-0.00274472
-0.000531999
0.143552
0.0655753
0.0636272
0.063663
0.0648702
0.0669926
0.06911
0.0902526
0.0699582
0.070875
0.0640389
0.0627409
0.0632605
0.0679186
0.0807442
0.085384
0.0996572
0.136643
-0.0771923
-0.294672
-0.345891
-0.154823
-0.101745
-0.0478807
-0.189526
-0.0225673
0.00422845
0.00506579
-0.00260436
-0.00144246
0.0517299
0.0470653
0.0495807
0.0528072
0.0568819
0.0603362
0.0622103
2.38258
0.271026
0.0603001
0.0590239
0.0584011
0.0593621
0.0695432
0.0708561
0.0857807
0.114234
0.133761
0.0251368
-0.196477
-0.324524
-0.17345
-0.130918
-0.0383064
-0.110129
-0.0211582
0.00271546
0.00397624
-0.00230078
-0.0018985
0.89428
0.838979
0.0304835
0.0413846
0.0490743
0.0537303
0.0529034
0.0533551
0.0516965
0.0525434
0.0526806
0.0525042
0.0550282
0.0563706
0.0634996
0.082559
0.106319
0.112246
-0.0523781
-0.207122
-0.262973
-0.132235
-0.129311
-0.0292397
-0.0446025
-0.0184023
0.0013731
0.00293002
-0.00195055
-0.00201892
0.00627626
0.0118916
0.0202035
0.0300909
0.0374524
0.0425675
0.0458413
0.0476124
0.0476088
0.0470926
0.046453
0.0458025
0.0525883
0.0494978
0.0542268
0.0908918
0.0886437
0.0332397
-0.080234
-0.159794
-0.177123
-0.0672584
-0.0930351
-0.0227203
-0.0204334
-0.014934
0.00024332
0.00196436
-0.00161829
-0.00189801
0.00651341
0.00923288
0.0139494
0.0201041
0.0268817
0.0332127
0.0385439
0.0418801
0.0429083
0.0422989
0.0408179
0.0393928
0.0453052
0.0406639
0.0438778
0.0500239
0.0451721
-0.0224157