/*--------------------------------*- C++ -*----------------------------------*\
| =========                 |                                                 |
| \\      /  F ield         | OpenFOAM: The Open Source CFD Toolbox           |
|  \\    /   O peration     | Version:  2.4.0                                 |
|   \\  /    A nd           | Web:      www.OpenFOAM.org                      |
|    \\/     M anipulation  |                                                 |
\*---------------------------------------------------------------------------*/
FoamFile
{
    version     2.0;
    format      ascii;
    class       surfaceScalarField;
    location    "0.192";
    object      phi;
}
// * * * * * * * * * * * * * * * * * * * * * * * * * * * * * * * * * * * * * //

dimensions      [0 3 -1 0 0 0 0];

internalField   nonuniform List<scalar> 
119500
(
-2.62899e-10
2.62899e-10
-5.57656e-10
2.94758e-10
-8.58583e-10
3.00928e-10
-1.1629e-09
3.04313e-10
-1.47114e-09
3.08243e-10
-1.78419e-09
3.13047e-10
-2.10301e-09
3.18828e-10
-2.42864e-09
3.25622e-10
-2.76209e-09
3.33451e-10
-3.10443e-09
3.4234e-10
-3.45674e-09
3.52311e-10
-3.82013e-09
3.63384e-10
-4.19572e-09
3.7559e-10
-4.58467e-09
3.88957e-10
-4.98819e-09
4.03516e-10
-5.40749e-09
4.193e-10
-5.84384e-09
4.36346e-10
-6.29853e-09
4.54693e-10
-6.77291e-09
4.74381e-10
-7.26837e-09
4.95454e-10
-7.78632e-09
5.17957e-10
-8.32826e-09
5.41939e-10
-8.89571e-09
5.67448e-10
-9.49024e-09
5.94534e-10
-1.01135e-08
6.23251e-10
-1.07671e-08
6.53649e-10
-1.14529e-08
6.85782e-10
-1.21726e-08
7.19708e-10
-1.29281e-08
7.55478e-10
-1.37213e-08
7.93143e-10
-1.4554e-08
8.32754e-10
-1.54284e-08
8.7436e-10
-1.63464e-08
9.18006e-10
-1.73101e-08
9.63734e-10
-1.83217e-08
1.01158e-09
-1.93833e-08
1.06158e-09
-2.0497e-08
1.11374e-09
-2.16651e-08
1.1681e-09
-2.28898e-08
1.22465e-09
-2.41731e-08
1.28338e-09
-2.55174e-08
1.34428e-09
-2.69247e-08
1.4073e-09
-2.83971e-08
1.47241e-09
-2.99367e-08
1.53953e-09
-3.15452e-08
1.60856e-09
-3.32246e-08
1.6794e-09
-3.49765e-08
1.7519e-09
-3.68024e-08
1.82589e-09
-3.87036e-08
1.90117e-09
-4.06811e-08
1.97752e-09
-4.27357e-08
2.05465e-09
-4.4868e-08
2.13227e-09
-4.7078e-08
2.21002e-09
-4.93656e-08
2.28752e-09
-5.17299e-08
2.36434e-09
-5.41699e-08
2.44001e-09
-5.66839e-08
2.51399e-09
-5.92696e-08
2.58574e-09
-6.19243e-08
2.65464e-09
-6.46443e-08
2.72005e-09
-6.74256e-08
2.78131e-09
-7.02633e-08
2.8377e-09
-7.31518e-08
2.8885e-09
-7.60848e-08
2.933e-09
-7.90553e-08
2.97045e-09
-8.20555e-08
3.00016e-09
-8.50769e-08
3.02145e-09
-8.81106e-08
3.03369e-09
-9.1147e-08
3.03636e-09
-9.4176e-08
3.029e-09
-9.71873e-08
3.01131e-09
-1.0017e-07
2.98313e-09
-1.03115e-07
2.9445e-09
-1.06011e-07
2.89568e-09
-1.08848e-07
2.83716e-09
-1.11617e-07
2.76976e-09
-1.14312e-07
2.69456e-09
-1.16925e-07
2.61303e-09
-1.19452e-07
2.52697e-09
-1.21891e-07
2.43858e-09
-1.24241e-07
2.3504e-09
-1.26506e-07
2.26539e-09
-1.28693e-07
2.18681e-09
-1.30811e-07
2.11824e-09
-1.32875e-07
2.06345e-09
-1.34901e-07
2.02635e-09
-1.36912e-07
2.01078e-09
-1.38932e-07
2.0202e-09
-1.4099e-07
2.05742e-09
-1.43114e-07
2.12455e-09
-1.45337e-07
2.22304e-09
-1.47691e-07
2.35333e-09
-1.50205e-07
2.51402e-09
-1.52906e-07
2.70122e-09
-1.55814e-07
2.90799e-09
-1.58938e-07
3.12449e-09
-1.62273e-07
3.33483e-09
-1.65783e-07
3.50944e-09
-1.69392e-07
3.60932e-09
3.62138e-09
-1.73013e-07
-3.79854e-10
6.42753e-10
-8.13818e-10
7.28723e-10
-1.25211e-09
7.39222e-10
-1.69469e-09
7.46894e-10
-2.14304e-09
7.56591e-10
-2.59867e-09
7.68672e-10
-3.0631e-09
7.8326e-10
-3.5379e-09
8.00419e-10
-4.02465e-09
8.20201e-10
-4.52498e-09
8.42669e-10
-5.04055e-09
8.67881e-10
-5.57307e-09
8.95902e-10
-6.12429e-09
9.26807e-10
-6.69601e-09
9.60681e-10
-7.29011e-09
9.97611e-10
-7.9085e-09
1.03769e-09
-8.55318e-09
1.08103e-09
-9.22622e-09
1.12773e-09
-9.92975e-09
1.17791e-09
-1.0666e-08
1.2317e-09
-1.14373e-08
1.28924e-09
-1.2246e-08
1.35065e-09
-1.30946e-08
1.41609e-09
-1.39858e-08
1.48572e-09
-1.49223e-08
1.55969e-09
-1.59068e-08
1.63816e-09
-1.69423e-08
1.72132e-09
-1.80319e-08
1.80933e-09
-1.91788e-08
1.90238e-09
-2.03863e-08
2.00064e-09
-2.16579e-08
2.1043e-09
-2.29971e-08
2.21354e-09
-2.44076e-08
2.32855e-09
-2.58934e-08
2.4495e-09
-2.74584e-08
2.57658e-09
-2.91067e-08
2.70993e-09
-3.08427e-08
2.84974e-09
-3.26708e-08
2.99614e-09
-3.45954e-08
3.14927e-09
-3.66213e-08
3.30924e-09
-3.87531e-08
3.47615e-09
-4.09959e-08
3.65008e-09
-4.33546e-08
3.83105e-09
-4.58341e-08
4.01909e-09
-4.84397e-08
4.21417e-09
-5.11765e-08
4.41621e-09
-5.40497e-08
4.62509e-09
-5.70645e-08
4.84064e-09
-6.02259e-08
5.06262e-09
-6.35391e-08
5.29074e-09
-6.70091e-08
5.52461e-09
-7.06406e-08
5.76378e-09
-7.44383e-08
6.0077e-09
-7.84065e-08
6.25574e-09
-8.25493e-08
6.50716e-09
-8.68704e-08
6.76112e-09
-9.13731e-08
7.01667e-09
-9.60601e-08
7.27274e-09
-1.00934e-07
7.52817e-09
-1.05995e-07
7.78164e-09
-1.11246e-07
8.03177e-09
-1.16685e-07
8.27705e-09
-1.22312e-07
8.51586e-09
-1.28126e-07
8.74653e-09
-1.34123e-07
8.96728e-09
-1.40299e-07
9.17632e-09
-1.46649e-07
9.37181e-09
-1.53168e-07
9.55192e-09
-1.59846e-07
9.71488e-09
-1.66676e-07
9.85896e-09
-1.73647e-07
9.98259e-09
-1.80749e-07
1.00844e-08
-1.87967e-07
1.01631e-08
-1.95289e-07
1.02179e-08
-2.027e-07
1.02481e-08
-2.10184e-07
1.02536e-08
-2.17724e-07
1.02347e-08
-2.25303e-07
1.01919e-08
-2.32903e-07
1.01266e-08
-2.40505e-07
1.00405e-08
-2.4809e-07
9.93578e-09
-2.5564e-07
9.81506e-09
-2.63134e-07
9.68136e-09
-2.70554e-07
9.53793e-09
-2.77879e-07
9.38811e-09
-2.85087e-07
9.23517e-09
-2.92159e-07
9.08192e-09
-2.99068e-07
8.92983e-09
-3.05789e-07
8.77846e-09
-3.1229e-07
8.62549e-09
-3.18535e-07
8.46757e-09
-3.24482e-07
8.3003e-09
-3.30084e-07
8.11649e-09
-3.35288e-07
7.90484e-09
-3.40032e-07
7.65219e-09
-3.44255e-07
7.34772e-09
-3.47899e-07
6.97849e-09
-3.50904e-07
6.51437e-09
-3.53206e-07
5.91106e-09
5.15083e-09
-3.54735e-07
-3.99562e-10
1.04232e-09
-8.55924e-10
1.18509e-09
-1.31671e-09
1.20001e-09
-1.78194e-09
1.21212e-09
-2.25323e-09
1.22788e-09
-2.73222e-09
1.24765e-09
-3.22052e-09
1.27156e-09
-3.7198e-09
1.2997e-09
-4.23175e-09
1.33215e-09
-4.75809e-09
1.36901e-09
-5.30059e-09
1.41038e-09
-5.86105e-09
1.45637e-09
-6.44135e-09
1.50711e-09
-7.04342e-09
1.56274e-09
-7.66922e-09
1.62342e-09
-8.32083e-09
1.68929e-09
-9.00036e-09
1.76056e-09
-9.71002e-09
1.83739e-09
-1.04521e-08
1.92e-09
-1.1229e-08
2.0086e-09
-1.20432e-08
2.10342e-09
-1.28972e-08
2.20471e-09
-1.37939e-08
2.31271e-09
-1.47358e-08
2.4277e-09
-1.57261e-08
2.54997e-09
-1.67678e-08
2.6798e-09
-1.78639e-08
2.8175e-09
-1.9018e-08
2.96339e-09
-2.02334e-08
3.11778e-09
-2.15138e-08
3.28102e-09
-2.28629e-08
3.45343e-09
-2.42847e-08
3.63536e-09
-2.57833e-08
3.82715e-09
-2.7363e-08
4.02916e-09
-2.90281e-08
4.24172e-09
-3.07834e-08
4.46517e-09
-3.26335e-08
4.69985e-09
-3.45834e-08
4.94607e-09
-3.66383e-08
5.20415e-09
-3.88034e-08
5.47437e-09
-4.10842e-08
5.75698e-09
-4.34864e-08
6.05222e-09
-4.60156e-08
6.36029e-09
-4.86779e-08
6.68135e-09
-5.14792e-08
7.01548e-09
-5.44257e-08
7.36276e-09
-5.75238e-08
7.72315e-09
-6.07797e-08
8.09657e-09
-6.42e-08
8.48285e-09
-6.77909e-08
8.88171e-09
-7.15591e-08
9.29277e-09
-7.55109e-08
9.71555e-09
-7.96526e-08
1.01494e-08
-8.39905e-08
1.05937e-08
-8.85307e-08
1.10473e-08
-9.32789e-08
1.15094e-08
-9.82408e-08
1.19786e-08
-1.03422e-07
1.24535e-08
-1.08826e-07
1.29325e-08
-1.14458e-07
1.34139e-08
-1.20322e-07
1.38956e-08
-1.2642e-07
1.43754e-08
-1.32756e-07
1.48511e-08
-1.39329e-07
1.532e-08
-1.46141e-07
1.57793e-08
-1.53191e-07
1.62262e-08
-1.60477e-07
1.66578e-08
-1.67996e-07
1.70707e-08
-1.75743e-07
1.74618e-08
-1.83711e-07
1.78279e-08
-1.91895e-07
1.81656e-08
-2.00282e-07
1.84719e-08
-2.08862e-07
1.87434e-08
-2.17622e-07
1.89774e-08
-2.26545e-07
1.91709e-08
-2.35613e-07
1.93215e-08
-2.44805e-07
1.94269e-08
-2.54098e-07
1.94852e-08
-2.63466e-07
1.94949e-08
-2.7288e-07
1.94545e-08
-2.82308e-07
1.93632e-08
-2.91713e-07
1.92202e-08
-3.01057e-07
1.9025e-08
-3.10296e-07
1.8777e-08
-3.19383e-07
1.84758e-08
-3.28269e-07
1.81206e-08
-3.36897e-07
1.77102e-08
-3.45208e-07
1.7241e-08
-3.53137e-07
1.67073e-08
-3.60614e-07
1.61027e-08
-3.67569e-07
1.54218e-08
-3.73929e-07
1.46607e-08
-3.79625e-07
1.38129e-08
-3.8459e-07
1.2869e-08
-3.88759e-07
1.18215e-08
-3.92082e-07
1.06704e-08
-3.94517e-07
9.4141e-09
-3.96031e-07
8.0279e-09
-3.96586e-07
6.46604e-09
4.69367e-09
-3.96128e-07
-4.019e-10
1.44422e-09
-8.59749e-10
1.64293e-09
-1.32257e-09
1.66283e-09
-1.78988e-09
1.67943e-09
-2.26327e-09
1.70128e-09
-2.74439e-09
1.72877e-09
-3.23487e-09
1.76204e-09
-3.73638e-09
1.80121e-09
-4.25062e-09
1.84638e-09
-4.77932e-09
1.8977e-09
-5.32425e-09
1.95531e-09
-5.88725e-09
2.01936e-09
-6.47019e-09
2.09005e-09
-7.07499e-09
2.16755e-09
-7.70367e-09
2.25209e-09
-8.35829e-09
2.34391e-09
-9.04098e-09
2.44325e-09
-9.75396e-09
2.55037e-09
-1.04995e-08
2.66559e-09
-1.12801e-08
2.78919e-09
-1.20982e-08
2.9215e-09
-1.29564e-08
3.06288e-09
-1.38574e-08
3.21369e-09
-1.4804e-08
3.37432e-09
-1.57992e-08
3.54517e-09
-1.68461e-08
3.72667e-09
-1.79478e-08
3.91925e-09
-1.91078e-08
4.12337e-09
-2.03295e-08
4.3395e-09
-2.16166e-08
4.56813e-09
-2.29729e-08
4.80974e-09
-2.44024e-08
5.06485e-09
-2.59092e-08
5.33396e-09
-2.74977e-08
5.61759e-09
-2.91722e-08
5.91626e-09
-3.09375e-08
6.23047e-09
-3.27984e-08
6.56075e-09
-3.47599e-08
6.90759e-09
-3.68272e-08
7.27146e-09
-3.90057e-08
7.65284e-09
-4.13009e-08
8.05215e-09
-4.37184e-08
8.46979e-09
-4.62643e-08
8.90613e-09
-4.89444e-08
9.36147e-09
-5.1765e-08
9.83606e-09
-5.47323e-08
1.03301e-08
-5.78528e-08
1.08436e-08
-6.11329e-08
1.13767e-08
-6.45794e-08
1.19293e-08
-6.81987e-08
1.2501e-08
-7.19975e-08
1.30916e-08
-7.59825e-08
1.37006e-08
-8.01604e-08
1.43273e-08
-8.45375e-08
1.49708e-08
-8.91203e-08
1.56301e-08
-9.39149e-08
1.6304e-08
-9.89273e-08
1.6991e-08
-1.04163e-07
1.76893e-08
-1.09628e-07
1.8397e-08
-1.15325e-07
1.91117e-08
-1.21261e-07
1.98311e-08
-1.27438e-07
2.05523e-08
-1.33859e-07
2.12721e-08
-1.40526e-07
2.19873e-08
-1.47441e-07
2.26941e-08
-1.54603e-07
2.33886e-08
-1.62012e-07
2.40666e-08
-1.69665e-07
2.47238e-08
-1.77559e-07
2.53554e-08
-1.85688e-07
2.59567e-08
-1.94045e-07
2.65226e-08
-2.02621e-07
2.70481e-08
-2.11405e-07
2.75279e-08
-2.20385e-07
2.79569e-08
-2.29543e-07
2.83297e-08
-2.38863e-07
2.86412e-08
-2.48322e-07
2.88861e-08
-2.57896e-07
2.90594e-08
-2.67557e-07
2.91559e-08
-2.77274e-07
2.91707e-08
-2.87009e-07
2.90987e-08
-2.96724e-07
2.8935e-08
-3.06374e-07
2.86746e-08
-3.15909e-07
2.83123e-08
-3.25277e-07
2.78435e-08
-3.34419e-07
2.72632e-08
-3.43275e-07
2.65657e-08
-3.51777e-07
2.57435e-08
-3.59857e-07
2.47869e-08
-3.67441e-07
2.36875e-08
-3.74461e-07
2.24414e-08
-3.80848e-07
2.10479e-08
-3.8654e-07
1.95049e-08
-3.91479e-07
1.78073e-08
-3.95609e-07
1.59514e-08
-3.98877e-07
1.39385e-08
-4.01227e-07
1.1764e-08
-4.026e-07
9.40137e-09
-4.02943e-07
6.80935e-09
3.95131e-09
-4.02201e-07
-4.0135e-10
1.84557e-09
-8.57861e-10
2.09945e-09
-1.31958e-09
2.12455e-09
-1.78585e-09
2.1457e-09
-2.2582e-09
2.17363e-09
-2.73825e-09
2.20882e-09
-3.22765e-09
2.25143e-09
-3.72804e-09
2.3016e-09
-4.24114e-09
2.35948e-09
-4.76866e-09
2.42523e-09
-5.31239e-09
2.49904e-09
-5.87415e-09
2.58112e-09
-6.4558e-09
2.6717e-09
-7.05928e-09
2.77103e-09
-7.68659e-09
2.8794e-09
-8.33977e-09
2.99709e-09
-9.02098e-09
3.12445e-09
-9.73242e-09
3.26181e-09
-1.04764e-08
3.40956e-09
-1.12553e-08
3.56809e-09
-1.20716e-08
3.73783e-09
-1.2928e-08
3.91922e-09
-1.3827e-08
4.11276e-09
-1.47716e-08
4.31894e-09
-1.57648e-08
4.53828e-09
-1.68094e-08
4.77134e-09
-1.79089e-08
5.0187e-09
-1.90665e-08
5.28095e-09
-2.02857e-08
5.55871e-09
-2.15702e-08
5.85262e-09
-2.29237e-08
6.16332e-09
-2.43504e-08
6.49148e-09
-2.58542e-08
6.83778e-09
-2.74395e-08
7.20291e-09
-2.91108e-08
7.58755e-09
-3.08727e-08
7.99239e-09
-3.27301e-08
8.41812e-09
-3.46879e-08
8.86542e-09
-3.67514e-08
9.33494e-09
-3.89259e-08
9.82732e-09
-4.12169e-08
1.03432e-08
-4.36302e-08
1.0883e-08
-4.61715e-08
1.14475e-08
-4.8847e-08
1.20369e-08
-5.16627e-08
1.26518e-08
-5.46249e-08
1.32923e-08
-5.77402e-08
1.39589e-08
-6.10148e-08
1.46514e-08
-6.44555e-08
1.53699e-08
-6.80688e-08
1.61143e-08
-7.18614e-08
1.68842e-08
-7.58399e-08
1.76791e-08
-8.00109e-08
1.84982e-08
-8.43808e-08
1.93407e-08
-8.8956e-08
2.02053e-08
-9.37426e-08
2.10906e-08
-9.87464e-08
2.19948e-08
-1.03973e-07
2.2916e-08
-1.09428e-07
2.38516e-08
-1.15115e-07
2.47991e-08
-1.21039e-07
2.57553e-08
-1.27204e-07
2.67168e-08
-1.33612e-07
2.76798e-08
-1.40264e-07
2.86401e-08
-1.47163e-07
2.9593e-08
-1.54308e-07
3.05336e-08
-1.61698e-07
3.14566e-08
-1.69331e-07
3.23562e-08
-1.77202e-07
3.32263e-08
-1.85306e-07
3.40607e-08
-1.93636e-07
3.48525e-08
-2.02182e-07
3.55949e-08
-2.10935e-07
3.62807e-08
-2.19881e-07
3.69023e-08
-2.29003e-07
3.74523e-08
-2.38285e-07
3.79226e-08
-2.47704e-07
3.83055e-08
-2.57237e-07
3.85927e-08
-2.66858e-07
3.87759e-08
-2.76533e-07
3.88467e-08
-2.86231e-07
3.87963e-08
-2.95912e-07
3.86159e-08
-3.05534e-07
3.82964e-08
-3.1505e-07
3.78288e-08
-3.24411e-07
3.72044e-08
-3.33562e-07
3.64146e-08
-3.42447e-07
3.545e-08
-3.51002e-07
3.42988e-08
-3.59163e-07
3.29479e-08
-3.66862e-07
3.13863e-08
-3.7403e-07
2.96096e-08
-3.80601e-07
2.76187e-08
-3.86509e-07
2.54131e-08
-3.91689e-07
2.29872e-08
-3.96072e-07
2.03347e-08
-3.99586e-07
1.74523e-08
-4.02155e-07
1.43325e-08
-4.03708e-07
1.09545e-08
-4.04188e-07
7.28921e-09
3.30909e-09
-4.03545e-07
-4.00048e-10
2.24561e-09
-8.54669e-10
2.55407e-09
-1.31461e-09
2.58448e-09
-1.77911e-09
2.61021e-09
-2.24969e-09
2.6442e-09
-2.72794e-09
2.68707e-09
-3.21551e-09
2.739e-09
-3.71404e-09
2.80013e-09
-4.22523e-09
2.87067e-09
-4.7508e-09
2.9508e-09
-5.29252e-09
3.04076e-09
-5.85221e-09
3.14081e-09
-6.43174e-09
3.25122e-09
-7.03302e-09
3.37232e-09
-7.65805e-09
3.50443e-09
-8.30888e-09
3.64792e-09
-8.98764e-09
3.80321e-09
-9.69654e-09
3.97071e-09
-1.04379e-08
4.15089e-09
-1.1214e-08
4.34424e-09
-1.20275e-08
4.55129e-09
-1.28808e-08
4.77258e-09
-1.37768e-08
5.00871e-09
-1.47182e-08
5.2603e-09
-1.57079e-08
5.52799e-09
-1.6749e-08
5.81248e-09
-1.78448e-08
6.11446e-09
-1.89985e-08
6.43468e-09
-2.02137e-08
6.7739e-09
-2.1494e-08
7.13292e-09
-2.28432e-08
7.51253e-09
-2.42653e-08
7.91357e-09
-2.57644e-08
8.33687e-09
-2.73448e-08
8.7833e-09
-2.90109e-08
9.25373e-09
-3.07676e-08
9.749e-09
-3.26194e-08
1.027e-08
-3.45716e-08
1.08176e-08
-3.66292e-08
1.13925e-08
-3.87976e-08
1.19957e-08
-4.10824e-08
1.26279e-08
-4.34892e-08
1.32899e-08
-4.60239e-08
1.39822e-08
-4.86926e-08
1.47056e-08
-5.15013e-08
1.54605e-08
-5.44565e-08
1.62475e-08
-5.75645e-08
1.70668e-08
-6.08318e-08
1.79187e-08
-6.4265e-08
1.88032e-08
-6.78707e-08
1.97201e-08
-7.16557e-08
2.06692e-08
-7.56265e-08
2.16499e-08
-7.97897e-08
2.26614e-08
-8.41518e-08
2.37028e-08
-8.87191e-08
2.47726e-08
-9.34979e-08
2.58693e-08
-9.84939e-08
2.69908e-08
-1.03713e-07
2.81348e-08
-1.09159e-07
2.92984e-08
-1.14839e-07
3.04785e-08
-1.20755e-07
3.16715e-08
-1.26911e-07
3.28732e-08
-1.33311e-07
3.40792e-08
-1.39955e-07
3.52842e-08
-1.46845e-07
3.64829e-08
-1.5398e-07
3.7669e-08
-1.6136e-07
3.88362e-08
-1.68981e-07
3.99774e-08
-1.7684e-07
4.1085e-08
-1.8493e-07
4.21512e-08
-1.93245e-07
4.31675e-08
-2.01775e-07
4.41251e-08
-2.1051e-07
4.50149e-08
-2.19434e-07
4.58272e-08
-2.28534e-07
4.65522e-08
-2.37791e-07
4.71795e-08
-2.47184e-07
4.76987e-08
-2.5669e-07
4.80987e-08
-2.66283e-07
4.83683e-08
-2.75932e-07
4.8496e-08
-2.85606e-07
4.84697e-08
-2.95267e-07
4.82773e-08
-3.04877e-07
4.7906e-08
-3.14391e-07
4.73433e-08
-3.23764e-07
4.65767e-08
-3.32943e-07
4.55942e-08
-3.41876e-07
4.43824e-08
-3.50502e-07
4.2925e-08
-3.58758e-07
4.12038e-08
-3.66575e-07
3.92038e-08
-3.73884e-07
3.69181e-08
-3.80612e-07
3.43467e-08
-3.86687e-07
3.14886e-08
-3.92037e-07
2.83366e-08
-3.96583e-07
2.48815e-08
-4.00248e-07
2.11172e-08
-4.02953e-07
1.70375e-08
-4.04629e-07
1.26305e-08
-4.0522e-07
7.87945e-09
2.76719e-09
-4.04678e-07
-3.98292e-10
2.6439e-09
-8.50669e-10
3.00644e-09
-1.3084e-09
3.04221e-09
-1.7707e-09
3.07251e-09
-2.23906e-09
3.11256e-09
-2.71506e-09
3.16308e-09
-3.20033e-09
3.22427e-09
-3.69653e-09
3.29633e-09
-4.20534e-09
3.37947e-09
-4.72847e-09
3.47393e-09
-5.26769e-09
3.57998e-09
-5.82481e-09
3.69792e-09
-6.40168e-09
3.8281e-09
-7.00023e-09
3.97086e-09
-7.62243e-09
4.12662e-09
-8.27033e-09
4.29582e-09
-8.94605e-09
4.47893e-09
-9.65179e-09
4.67645e-09
-1.03898e-08
4.88895e-09
-1.11626e-08
5.11699e-09
-1.19725e-08
5.3612e-09
-1.28222e-08
5.62224e-09
-1.37143e-08
5.90081e-09
-1.46516e-08
6.19764e-09
-1.56371e-08
6.51352e-09
-1.66739e-08
6.84925e-09
-1.77651e-08
7.20567e-09
-1.89141e-08
7.58367e-09
-2.01244e-08
7.98416e-09
-2.13995e-08
8.40808e-09
-2.27434e-08
8.85639e-09
-2.41599e-08
9.33009e-09
-2.56532e-08
9.83018e-09
-2.72276e-08
1.03577e-08
-2.88876e-08
1.09137e-08
-3.06378e-08
1.14992e-08
-3.2483e-08
1.21152e-08
-3.44283e-08
1.27628e-08
-3.64788e-08
1.34431e-08
-3.86399e-08
1.41569e-08
-4.09172e-08
1.49052e-08
-4.33164e-08
1.5689e-08
-4.58433e-08
1.65091e-08
-4.8504e-08
1.73663e-08
-5.13047e-08
1.82612e-08
-5.42517e-08
1.91945e-08
-5.73514e-08
2.01666e-08
-6.06104e-08
2.11777e-08
-6.40354e-08
2.22281e-08
-6.76329e-08
2.33176e-08
-7.14097e-08
2.4446e-08
-7.53725e-08
2.56127e-08
-7.95279e-08
2.68169e-08
-8.38826e-08
2.80574e-08
-8.84428e-08
2.93329e-08
-9.32148e-08
3.06413e-08
-9.82046e-08
3.19806e-08
-1.03418e-07
3.3348e-08
-1.0886e-07
3.47402e-08
-1.14535e-07
3.61537e-08
-1.20448e-07
3.75843e-08
-1.26602e-07
3.90272e-08
-1.32999e-07
4.04771e-08
-1.39643e-07
4.1928e-08
-1.46534e-07
4.33735e-08
-1.53671e-07
4.48064e-08
-1.61054e-07
4.62191e-08
-1.6868e-07
4.7603e-08
-1.76544e-07
4.89494e-08
-1.84642e-07
5.02486e-08
-1.92965e-07
5.14906e-08
-2.01504e-07
5.26647e-08
-2.10249e-07
5.37597e-08
-2.19186e-07
5.4764e-08
-2.28299e-07
5.56652e-08
-2.3757e-07
5.64508e-08
-2.46979e-07
5.71076e-08
-2.56503e-07
5.7622e-08
-2.66114e-07
5.798e-08
-2.75785e-07
5.81671e-08
-2.85484e-07
5.81681e-08
-2.95174e-07
5.79676e-08
-3.04818e-07
5.75497e-08
-3.14373e-07
5.68982e-08
-3.23793e-07
5.59971e-08
-3.33029e-07
5.48305e-08
-3.42028e-07
5.33808e-08
-3.50729e-07
5.16267e-08
-3.5907e-07
4.95445e-08
-3.6698e-07
4.7114e-08
-3.74387e-07
4.43251e-08
-3.81217e-07
4.11766e-08
-3.87395e-07
3.76666e-08
-3.92845e-07
3.37864e-08
-3.97488e-07
2.95245e-08
-4.01245e-07
2.48744e-08
-4.04041e-07
1.98335e-08
-4.0581e-07
1.43991e-08
-4.06495e-07
8.56491e-09
2.32505e-09
-4.06053e-07
-3.96142e-10
3.04005e-09
-8.45919e-10
3.45622e-09
-1.30105e-09
3.49734e-09
-1.76074e-09
3.5322e-09
-2.22646e-09
3.57828e-09
-2.69979e-09
3.63641e-09
-3.18236e-09
3.70684e-09
-3.67579e-09
3.78977e-09
-4.18177e-09
3.88545e-09
-4.70202e-09
3.99417e-09
-5.23827e-09
4.11623e-09
-5.79234e-09
4.25199e-09
-6.36607e-09
4.40183e-09
-6.96137e-09
4.56616e-09
-7.58021e-09
4.74547e-09
-8.22464e-09
4.94025e-09
-8.89676e-09
5.15105e-09
-9.59877e-09
5.37846e-09
-1.03329e-08
5.62312e-09
-1.11017e-08
5.88569e-09
-1.19074e-08
6.16691e-09
-1.27527e-08
6.46752e-09
-1.36402e-08
6.78835e-09
-1.45728e-08
7.13024e-09
-1.55534e-08
7.49409e-09
-1.6585e-08
7.88085e-09
-1.76708e-08
8.2915e-09
-1.88142e-08
8.72705e-09
-2.00186e-08
9.18857e-09
-2.12876e-08
9.67714e-09
-2.26252e-08
1.01939e-08
-2.40351e-08
1.074e-08
-2.55215e-08
1.13166e-08
-2.70888e-08
1.1925e-08
-2.87414e-08
1.25663e-08
-3.0484e-08
1.32417e-08
-3.23213e-08
1.39526e-08
-3.42585e-08
1.47e-08
-3.63006e-08
1.54852e-08
-3.84531e-08
1.63094e-08
-4.07216e-08
1.71737e-08
-4.31117e-08
1.80791e-08
-4.56293e-08
1.90268e-08
-4.82806e-08
2.00176e-08
-5.10717e-08
2.10523e-08
-5.4009e-08
2.21318e-08
-5.7099e-08
2.32565e-08
-6.03482e-08
2.4427e-08
-6.37634e-08
2.56432e-08
-6.73512e-08
2.69054e-08
-7.11184e-08
2.82132e-08
-7.50718e-08
2.95661e-08
-7.92182e-08
3.09632e-08
-8.35641e-08
3.24033e-08
-8.81161e-08
3.38848e-08
-9.28804e-08
3.54057e-08
-9.78632e-08
3.69634e-08
-1.0307e-07
3.85549e-08
-1.08507e-07
4.01767e-08
-1.14178e-07
4.18247e-08
-1.20087e-07
4.34941e-08
-1.2624e-07
4.51794e-08
-1.32637e-07
4.68747e-08
-1.39283e-07
4.85732e-08
-1.46176e-07
5.02673e-08
-1.53319e-07
5.1949e-08
-1.60709e-07
5.36092e-08
-1.68344e-07
5.52382e-08
-1.76221e-07
5.68257e-08
-1.84332e-07
5.83606e-08
-1.92673e-07
5.98309e-08
-2.01232e-07
6.12242e-08
-2.1e-07
6.25274e-08
-2.18962e-07
6.37264e-08
-2.28104e-07
6.4807e-08
-2.37407e-07
6.5754e-08
-2.46852e-07
6.65518e-08
-2.56414e-07
6.71841e-08
-2.66067e-07
6.7634e-08
-2.75785e-07
6.78841e-08
-2.85533e-07
6.79163e-08
-2.95277e-07
6.7712e-08
-3.04979e-07
6.72517e-08
-3.14597e-07
6.65158e-08
-3.24084e-07
6.54847e-08
-3.33393e-07
6.41387e-08
-3.42468e-07
6.24557e-08
-3.5125e-07
6.04092e-08
-3.59675e-07
5.79696e-08
-3.67673e-07
5.51118e-08
-3.7517e-07
5.18225e-08
-3.82093e-07
4.80992e-08
-3.88365e-07
4.39389e-08
-3.9391e-07
3.9331e-08
-3.98648e-07
3.42625e-08
-4.025e-07
2.87269e-08
-4.05393e-07
2.27265e-08
-4.07262e-07
1.62673e-08
-4.0805e-07
9.35316e-09
1.98953e-09
-4.07714e-07
-3.93622e-10
3.43367e-09
-8.40433e-10
3.90303e-09
-1.29257e-09
3.94947e-09
-1.74925e-09
3.98888e-09
-2.21194e-09
4.04097e-09
-2.6822e-09
4.10667e-09
-3.16164e-09
4.18627e-09
-3.65188e-09
4.28001e-09
-4.15461e-09
4.38818e-09
-4.67152e-09
4.51108e-09
-5.20435e-09
4.64907e-09
-5.75489e-09
4.80254e-09
-6.325e-09
4.97193e-09
-6.91656e-09
5.15772e-09
-7.53154e-09
5.36045e-09
-8.17196e-09
5.58067e-09
-8.83994e-09
5.81902e-09
-9.53764e-09
6.07616e-09
-1.02673e-08
6.35282e-09
-1.10314e-08
6.64974e-09
-1.18322e-08
6.96777e-09
-1.26725e-08
7.30775e-09
-1.35548e-08
7.67062e-09
-1.44819e-08
8.05734e-09
-1.54567e-08
8.46894e-09
-1.64823e-08
8.90649e-09
-1.75619e-08
9.3711e-09
-1.86988e-08
9.86394e-09
-1.98965e-08
1.03862e-08
-2.11585e-08
1.09392e-08
-2.24887e-08
1.15241e-08
-2.3891e-08
1.21423e-08
-2.53695e-08
1.27952e-08
-2.69286e-08
1.34841e-08
-2.85727e-08
1.42103e-08
-3.03064e-08
1.49754e-08
-3.21346e-08
1.57808e-08
-3.40623e-08
1.66277e-08
-3.60947e-08
1.75176e-08
-3.82372e-08
1.84519e-08
-4.04953e-08
1.94318e-08
-4.28749e-08
2.04587e-08
-4.53818e-08
2.15337e-08
-4.80221e-08
2.26579e-08
-5.0802e-08
2.38323e-08
-5.3728e-08
2.50578e-08
-5.68066e-08
2.63351e-08
-6.00444e-08
2.76647e-08
-6.34481e-08
2.90469e-08
-6.70245e-08
3.04818e-08
-7.07805e-08
3.19692e-08
-7.47229e-08
3.35085e-08
-7.88585e-08
3.50988e-08
-8.31941e-08
3.67389e-08
-8.77362e-08
3.8427e-08
-9.24913e-08
4.01608e-08
-9.74657e-08
4.19377e-08
-1.02665e-07
4.37543e-08
-1.08095e-07
4.56068e-08
-1.13761e-07
4.74904e-08
-1.19667e-07
4.93999e-08
-1.25816e-07
5.13292e-08
-1.32213e-07
5.32717e-08
-1.3886e-07
5.52196e-08
-1.45757e-07
5.71644e-08
-1.52905e-07
5.9097e-08
-1.60303e-07
6.10072e-08
-1.67949e-07
6.2884e-08
-1.75839e-07
6.47155e-08
-1.83967e-07
6.6489e-08
-1.92327e-07
6.81909e-08
-2.0091e-07
6.98069e-08
-2.09704e-07
7.13217e-08
-2.18697e-07
7.27194e-08
-2.27873e-07
7.39832e-08
-2.37215e-07
7.50957e-08
-2.46702e-07
7.60386e-08
-2.56311e-07
7.67931e-08
-2.66016e-07
7.73394e-08
-2.75789e-07
7.76572e-08
-2.85598e-07
7.77253e-08
-2.95408e-07
7.75218e-08
-3.0518e-07
7.70239e-08
-3.14873e-07
7.62085e-08
-3.2444e-07
7.50523e-08
-3.33833e-07
7.35315e-08
-3.42997e-07
7.16197e-08
-3.51873e-07
6.92851e-08
-3.60396e-07
6.64925e-08
-3.68496e-07
6.32115e-08
-3.76099e-07
5.94259e-08
-3.83131e-07
5.51315e-08
-3.89516e-07
5.03239e-08
-3.95175e-07
4.49902e-08
-4.00028e-07
3.91152e-08
-4.03995e-07
3.26935e-08
-4.07001e-07
2.57328e-08
-4.08981e-07
1.82479e-08
-4.09883e-07
1.02542e-08
1.7693e-09
-4.09662e-07
-3.90748e-10
3.82441e-09
-8.34218e-10
4.3465e-09
-1.28298e-09
4.39823e-09
-1.73627e-09
4.44217e-09
-2.19552e-09
4.50022e-09
-2.6623e-09
4.57345e-09
-3.1382e-09
4.66217e-09
-3.62484e-09
4.76666e-09
-4.12388e-09
4.88722e-09
-4.63702e-09
5.02421e-09
-5.16598e-09
5.17803e-09
-5.71254e-09
5.3491e-09
-6.27855e-09
5.53793e-09
-6.86587e-09
5.74505e-09
-7.47648e-09
5.97105e-09
-8.11237e-09
6.21657e-09
-8.77564e-09
6.4823e-09
-9.46847e-09
6.76899e-09
-1.01931e-08
7.07744e-09
-1.09519e-08
7.40852e-09
-1.17472e-08
7.76314e-09
-1.25817e-08
8.14226e-09
-1.34581e-08
8.54693e-09
-1.43789e-08
8.97823e-09
-1.53473e-08
9.43731e-09
-1.63662e-08
9.92536e-09
-1.74387e-08
1.04436e-08
-1.85683e-08
1.09935e-08
-1.97582e-08
1.15762e-08
-2.10123e-08
1.21932e-08
-2.23341e-08
1.2846e-08
-2.37278e-08
1.3536e-08
-2.51973e-08
1.42647e-08
-2.6747e-08
1.50338e-08
-2.83814e-08
1.58447e-08
-3.01051e-08
1.66991e-08
-3.19229e-08
1.75986e-08
-3.38398e-08
1.85446e-08
-3.58611e-08
1.95389e-08
-3.79922e-08
2.0583e-08
-4.02387e-08
2.16782e-08
-4.26062e-08
2.28262e-08
-4.51008e-08
2.40282e-08
-4.77285e-08
2.52856e-08
-5.04957e-08
2.65995e-08
-5.34088e-08
2.79709e-08
-5.64743e-08
2.94006e-08
-5.96989e-08
3.08893e-08
-6.30894e-08
3.24375e-08
-6.66528e-08
3.40452e-08
-7.03958e-08
3.57122e-08
-7.43254e-08
3.74382e-08
-7.84486e-08
3.9222e-08
-8.27722e-08
4.10625e-08
-8.73029e-08
4.29577e-08
-9.20473e-08
4.49052e-08
-9.70117e-08
4.69021e-08
-1.02202e-07
4.89448e-08
-1.07624e-07
5.1029e-08
-1.13284e-07
5.31495e-08
-1.19184e-07
5.53007e-08
-1.25331e-07
5.74758e-08
-1.31726e-07
5.96672e-08
-1.38374e-07
6.18666e-08
-1.45274e-07
6.40646e-08
-1.52427e-07
6.62507e-08
-1.59834e-07
6.84137e-08
-1.67491e-07
7.05411e-08
-1.75395e-07
7.26198e-08
-1.83541e-07
7.46353e-08
-1.91923e-07
7.65724e-08
-2.00531e-07
7.84149e-08
-2.09355e-07
8.01454e-08
-2.18381e-07
8.17459e-08
-2.27596e-07
8.31974e-08
-2.3698e-07
8.448e-08
-2.46514e-07
8.55729e-08
-2.56176e-07
8.64545e-08
-2.65939e-07
8.71024e-08
-2.75775e-07
8.74932e-08
-2.85652e-07
8.76027e-08
-2.95536e-07
8.74056e-08
-3.05388e-07
8.68759e-08
-3.15166e-07
8.59868e-08
-3.24825e-07
8.47113e-08
-3.34316e-07
8.30218e-08
-3.43583e-07
8.08873e-08
-3.52569e-07
7.82707e-08
-3.61207e-07
7.51308e-08
-3.69428e-07
7.14324e-08
-3.77158e-07
6.71559e-08
-3.84322e-07
6.22953e-08
-3.90842e-07
5.6844e-08
-3.96638e-07
5.07861e-08
-4.01627e-07
4.4104e-08
-4.05727e-07
3.67937e-08
-4.08863e-07
2.88688e-08
-4.10969e-07
2.03542e-08
-4.11993e-07
1.12781e-08
1.67238e-09
-4.11896e-07
-3.87529e-10
4.21194e-09
-8.27283e-10
4.78625e-09
-1.27229e-09
4.84324e-09
-1.72179e-09
4.89167e-09
-2.17722e-09
4.95565e-09
-2.64011e-09
5.03635e-09
-3.11207e-09
5.13412e-09
-3.59469e-09
5.24928e-09
-4.08962e-09
5.38215e-09
-4.59855e-09
5.53314e-09
-5.12319e-09
5.70267e-09
-5.66532e-09
5.89123e-09
-6.22675e-09
6.09936e-09
-6.80936e-09
6.32766e-09
-7.41508e-09
6.57677e-09
-8.04592e-09
6.84741e-09
-8.70395e-09
7.14033e-09
-9.39133e-09
7.45637e-09
-1.01103e-08
7.79641e-09
-1.08632e-08
8.16141e-09
-1.16524e-08
8.55237e-09
-1.24805e-08
8.97038e-09
-1.33502e-08
9.41658e-09
-1.42641e-08
9.89217e-09
-1.52253e-08
1.03984e-08
-1.62366e-08
1.09367e-08
-1.73012e-08
1.15083e-08
-1.84225e-08
1.21148e-08
-1.96039e-08
1.27576e-08
-2.0849e-08
1.34383e-08
-2.21616e-08
1.41585e-08
-2.35456e-08
1.49199e-08
-2.5005e-08
1.57242e-08
-2.65443e-08
1.6573e-08
-2.81678e-08
1.74682e-08
-2.98802e-08
1.84115e-08
-3.16863e-08
1.94047e-08
-3.35912e-08
2.04495e-08
-3.56001e-08
2.15478e-08
-3.77184e-08
2.27012e-08
-3.99516e-08
2.39115e-08
-4.23057e-08
2.51802e-08
-4.47864e-08
2.6509e-08
-4.74001e-08
2.78993e-08
-5.01529e-08
2.93523e-08
-5.30514e-08
3.08693e-08
-5.61021e-08
3.24514e-08
-5.93119e-08
3.40991e-08
-6.26875e-08
3.58131e-08
-6.6236e-08
3.75936e-08
-6.99643e-08
3.94405e-08
-7.38795e-08
4.13533e-08
-7.79886e-08
4.33311e-08
-8.22985e-08
4.53724e-08
-8.68161e-08
4.74753e-08
-9.15481e-08
4.96372e-08
-9.65011e-08
5.18551e-08
-1.01681e-07
5.41249e-08
-1.07094e-07
5.64421e-08
-1.12746e-07
5.8801e-08
-1.18641e-07
6.11955e-08
-1.24783e-07
6.36182e-08
-1.31177e-07
6.60608e-08
-1.37824e-07
6.8514e-08
-1.44727e-07
7.09676e-08
-1.51886e-07
7.34101e-08
-1.59302e-07
7.58289e-08
-1.66971e-07
7.82104e-08
-1.74891e-07
8.05398e-08
-1.83057e-07
8.28011e-08
-1.91462e-07
8.49775e-08
-2.00097e-07
8.70507e-08
-2.08953e-07
8.90014e-08
-2.18017e-07
9.08095e-08
-2.27273e-07
9.24537e-08
-2.36705e-07
9.39115e-08
-2.46292e-07
9.51598e-08
-2.56011e-07
9.61742e-08
-2.65839e-07
9.69295e-08
-2.75745e-07
9.73993e-08
-2.85698e-07
9.75565e-08
-2.95665e-07
9.73724e-08
-3.05607e-07
9.68176e-08
-3.15482e-07
9.58617e-08
-3.25245e-07
9.44741e-08
-3.34846e-07
9.26232e-08
-3.44232e-07
9.02734e-08
-3.53344e-07
8.73822e-08
-3.62115e-07
8.39024e-08
-3.70476e-07
7.97937e-08
-3.78353e-07
7.50329e-08
-3.8567e-07
6.96117e-08
-3.92346e-07
6.35207e-08
-3.983e-07
5.67401e-08
-4.03446e-07
4.92496e-08
-4.07699e-07
4.10464e-08
-4.10981e-07
3.21508e-08
-4.13225e-07
2.25987e-08
-4.14381e-07
1.24343e-08
1.70639e-09
-4.14415e-07
-3.83972e-10
4.59591e-09
-8.19635e-10
5.22192e-09
-1.2605e-09
5.2841e-09
-1.70583e-09
5.337e-09
-2.15704e-09
5.40686e-09
-2.61566e-09
5.49497e-09
-3.08327e-09
5.60173e-09
-3.56146e-09
5.72746e-09
-4.05186e-09
5.87256e-09
-4.55615e-09
6.03743e-09
-5.07603e-09
6.22255e-09
-5.61326e-09
6.42846e-09
-6.16965e-09
6.65575e-09
-6.74705e-09
6.90506e-09
-7.34739e-09
7.17711e-09
-7.97266e-09
7.47267e-09
-8.62491e-09
7.79258e-09
-9.30629e-09
8.13775e-09
-1.0019e-08
8.50914e-09
-1.07654e-08
8.9078e-09
-1.15479e-08
9.33485e-09
-1.2369e-08
9.79146e-09
-1.32313e-08
1.02789e-08
-1.41375e-08
1.07984e-08
-1.50906e-08
1.13515e-08
-1.60936e-08
1.19396e-08
-1.71496e-08
1.25643e-08
-1.82618e-08
1.3227e-08
-1.94337e-08
1.39295e-08
-2.06689e-08
1.46735e-08
-2.19712e-08
1.54608e-08
-2.33444e-08
1.62932e-08
-2.47927e-08
1.71725e-08
-2.63204e-08
1.81007e-08
-2.79319e-08
1.90797e-08
-2.96318e-08
2.01114e-08
-3.1425e-08
2.11979e-08
-3.33166e-08
2.23411e-08
-3.53117e-08
2.35429e-08
-3.74158e-08
2.48053e-08
-3.96344e-08
2.61301e-08
-4.19734e-08
2.75193e-08
-4.44388e-08
2.89744e-08
-4.70368e-08
3.04972e-08
-4.97736e-08
3.20891e-08
-5.26558e-08
3.37516e-08
-5.56902e-08
3.54857e-08
-5.88834e-08
3.72923e-08
-6.22424e-08
3.91722e-08
-6.57743e-08
4.11255e-08
-6.94862e-08
4.31524e-08
-7.33851e-08
4.52523e-08
-7.74783e-08
4.74243e-08
-8.17728e-08
4.96669e-08
-8.62756e-08
5.19781e-08
-9.09937e-08
5.43553e-08
-9.59337e-08
5.67951e-08
-1.01102e-07
5.92932e-08
-1.06505e-07
6.18447e-08
-1.12147e-07
6.44437e-08
-1.18035e-07
6.70833e-08
-1.24172e-07
6.97556e-08
-1.30563e-07
7.24516e-08
-1.37211e-07
7.51613e-08
-1.44116e-07
7.78734e-08
-1.51282e-07
8.05753e-08
-1.58706e-07
8.32533e-08
-1.66388e-07
8.58925e-08
-1.74325e-07
8.84766e-08
-1.82512e-07
9.09881e-08
-1.90943e-07
9.34082e-08
-1.99609e-07
9.57169e-08
-2.085e-07
9.78929e-08
-2.17605e-07
9.99139e-08
-2.26907e-07