/*--------------------------------*- C++ -*----------------------------------*\
| =========                 |                                                 |
| \\      /  F ield         | OpenFOAM: The Open Source CFD Toolbox           |
|  \\    /   O peration     | Version:  2.4.0                                 |
|   \\  /    A nd           | Web:      www.OpenFOAM.org                      |
|    \\/     M anipulation  |                                                 |
\*---------------------------------------------------------------------------*/
FoamFile
{
    version     2.0;
    format      ascii;
    class       volScalarField;
    location    "0.097";
    object      p;
}
// * * * * * * * * * * * * * * * * * * * * * * * * * * * * * * * * * * * * * //

dimensions      [1 -1 -2 0 0 0 0];

internalField   nonuniform List<scalar> 
3600
(
104.542
105.614
105.791
104.75
102.715
99.7205
96.1667
92.3282
88.6343
85.107
82.2784
79.5741
78.7099
77.5047
78.6325
79.976
81.4656
83.6459
85.4989
87.6774
86.5811
83.9601
85.438
86.9116
86.7874
85.881
85.2221
85.2742
85.8864
87.104
101.283
102.359
102.537
101.498
99.4629
96.4647
92.908
89.0633
85.3659
81.8309
78.9939
76.2787
75.3874
74.178
75.2522
76.6327
78.1099
80.3043
82.2549
84.7062
82.8261
79.9178
80.6758
81.959
82.1498
81.8463
81.1839
81.212
82.6501
83.4025
98.0183
99.1056
99.2909
98.2543
96.2201
93.2168
89.6533
85.7972
82.0922
78.5429
75.6852
72.9546
72.0174
70.7852
71.7484
73.1814
74.6363
76.8466
78.752
80.8921
79.3654
75.2117
75.5582
77.1761
77.866
78.0292
77.8145
78.2853
80.0141
80.7315
94.7497
95.8549
96.0514
95.0195
92.9877
89.977
86.4038
82.5299
78.8133
75.2425
72.3522
69.5986
68.6108
67.3516
68.1478
69.6129
71.0645
73.2758
74.9729
76.7993
74.953
70.6987
70.5091
72.4405
73.7096
74.4976
74.9525
75.6884
76.591
78.887
91.4769
92.6069
92.819
91.7939
89.7657
86.7455
83.1596
79.2615
75.5294
71.9296
68.9943
66.2072
65.1675
63.8783
64.5865
65.927
67.4279
69.6525
71.1525
72.4657
70.9664
66.4612
65.061
67.7675
69.8289
71.2896
72.2891
73.2969
73.8495
74.8307
88.1997
89.3614
89.5938
88.5776
86.5545
83.5222
79.9207
75.9916
72.2407
68.6043
65.6113
62.7762
61.6682
60.3534
61.112
62.1835
63.742
65.9882
67.4113
68.3788
67.1673
62.5588
60.9806
64.2409
66.6038
68.2995
69.6786
70.9972
71.6513
71.9237
84.918
86.1185
86.3757
85.3705
83.354
80.3073
76.6872
72.7203
68.9479
65.2665
62.2036
59.3064
58.1065
56.6944
57.6415
58.4156
59.9989
62.2915
63.6358
64.7461
63.7487
60.6266
58.3872
61.3482
64.1051
65.7311
66.9548
68.3626
69.3737
69.6793
81.6316
82.8781
83.1648
82.1727
80.1645
77.1009
73.4593
69.4473
65.6514
61.9165
58.7719
55.8076
54.4915
52.9318
53.985
54.5726
56.1642
58.6191
59.8641
61.0978
60.3919
57.7186
56.4081
59.1659
61.8181
63.2845
64.2488
65.6864
66.9847
67.277
78.3404
79.6403
79.9612
78.9843
76.9861
73.903
70.2369
66.1723
62.3522
58.5542
55.3173
52.2875
50.8274
49.168
50.0854
50.6271
52.2417
55.0103
56.2867
57.5613
57.4286
55.8298
55.464
57.5304
60.0111
61.4076
62.3685
63.7882
64.8829
65.1798
75.0441
76.405
76.7649
75.8053
73.8191
70.7138
67.0203
62.8953
59.0512
55.1792
51.8412
48.7389
47.1021
45.3784
46.0052
46.7863
48.3812
51.3455
52.8244
54.1063
54.7511
54.6035
55.1131
56.541
57.9318
59.3237
60.6971
61.718
62.6096
63.027
71.7425
73.1722
73.5759
72.6358
70.6637
67.5334
63.8092
59.6159
55.7496
51.7915
48.3438
45.1551
43.3133
41.4777
41.7979
42.9621
44.6271
47.5743
49.3402
50.8394
52.0366
52.8401
53.6314
54.9094
56.0984
56.9307
58.3932
59.7232
60.2888
60.3444
68.4352
69.9419
70.3944
69.4758
67.5203
64.3621
60.6037
56.334
52.4489
48.3908
44.8255
41.5386
39.4729
37.4544
37.4772
38.8988
40.7643
43.7903
45.9724
47.6836
49.1584
50.5406
51.4982
52.4953
53.3693
54.1746
55.9294
58.079
58.7768
58.6418
65.122
66.7141
67.2203
66.3254
64.3891
61.2001
57.4037
53.0489
49.151
44.9764
41.2873
37.8975
35.5761
33.3158
33.0281
34.5766
36.8026
40.0887
42.599
44.6514
46.3482
47.6561
48.8194
49.8613
51.1137
51.9292
52.3507
53.5426
54.3598
54.6525
61.8026
63.4886
64.0538
63.1846
61.2706
58.0478
54.2089
49.7604
45.858
41.5473
37.731
34.2344
31.6213
29.0543
28.4202
30.1497
32.7172
36.4833
39.2194
41.3584
43.4064
45.1333
46.3151
47.1581
48.1845
48.9476
49.3712
50.4627
51.967
52.793
58.4764
60.2656
60.895
60.0536
58.1651
54.9056
51.019
46.4679
42.5721
38.1023
34.1582
30.552
27.6038
24.6887
23.6844
25.6698
28.5977
32.8132
36.38
38.8639
40.8402
42.7015
43.5554
43.6087
44.3058
45.6704
46.8956
48.8258
50.5498
50.9189
55.1432
57.0449
57.7439
56.9324
55.0731
51.7741
47.8339
43.1711
39.2951
34.6398
30.5713
26.8479
23.5823
20.1695
19.2184
21.0397
24.4684
28.9355
31.9769
35.0925
37.8192
40.4759
42.0706
40.8684
40.3348
41.862
43.9829
45.9791
47.1548
47.1174
51.8023
53.8265
54.6007
53.821
51.995
48.6539
44.653
39.87
36.0291
31.1576
26.9701
23.1394
19.581
15.3806
13.6744
15.9783
20.1213
25.1701
29.1635
32.1003
35.1309
38.1659
39.285
37.6212
37.8503
39.6617
40.9664
42.2765
43.0587
43.3826
48.4534
50.6104
51.4655
50.7195
48.9315
45.546
41.4763
36.5647
32.7761
27.6526
23.357
19.456
15.5805
10.254
7.99745
10.2916
15.8265
21.373
25.7708
29.6443
32.0482
34.4697
35.2716
34.6647
36.1017
38.1333
38.2348
38.4446
38.9871
39.5324
45.0958
47.3965
48.3384
47.6279
45.8831
42.4513
38.3035
33.2551
29.5382
24.1209
19.7352
15.8078
11.5774
4.89067
2.1489
5.01347
11.6399
17.6372
23.1663
27.103
29.3367
30.2174
30.6756
31.227
33.6608
35.7127
35.7134
35.405
35.8488
36.5565
41.729
44.1849
45.2196
44.5462
42.8503
39.3711
35.1347
29.9405
26.3181
20.5577
16.1033
12.2045
7.62612
-0.867905
-5.05225
-1.57558
7.41195
13.0996
19.3716
24.8665
28.2827
29.0112
28.699
28.9757
31.3561
32.716
33.0076
33.089
33.5504
34.1648
38.3522
40.9753
42.1093
41.4745
39.8339
36.3069
31.9702
26.6192
23.1184
16.9576
12.4529
8.70727
3.81349
-5.52257
-10.2986
1.94561
9.08543
18.2065
13.1191
23.2737
26.2402
25.4496
26.495
26.2398
27.2828
29.3552
30.3332
30.7442
31.2367
31.7958
34.9648
37.7679
39.0076
38.4127
36.8345
33.26
28.8114
23.2879
19.9422
13.3213
8.7893
5.33912
1.05239
-1.21936
1.238
-0.182822
3.65207
8.77419
12.8808
23.0834
24.282
19.0839
21.8129
22.5417
23.6473
26.1231
27.5668
28.1456
28.6642
29.1604
31.5659
34.5625
35.9147
35.3609
33.8528
30.2321
25.6334
19.9716
16.7958
9.67502
5.13238
2.38755
0.241617
0.518889
0.795295
-2.56683
-0.403454
5.86392
11.6506
24.3683
26.4798
21.3849
18.8713
17.688
20.1476
23.3442
25.1085
25.7964
26.4328
26.7822
28.1549
31.3592
32.8307
32.3191
30.8896
27.2252
22.4383
16.6643
13.6866
6.00832
1.44545
0.762104
0.0928361
0.502325
0.419762
-0.953427
-3.59566
3.43836
9.50308
16.783
14.5652
15.6279
15.8956
12.4944
17.1367
21.4354
23.4816
24.4483
24.9577
25.0626
24.7305
28.1574
29.7559
29.2872
27.9454
24.2415
19.2242
13.3659
10.5722
1.75901
-0.514741
0.215113
-0.0371671
0.38023
-0.355078
0.148986
-4.00361
-0.466702
7.3473
13.0671
11.4904
12.2927
6.68657
8.05664
14.4929
20.1398
22.8243
23.5492
23.7463
23.7678
21.2926
24.9598
26.6902
26.2652
25.0214
21.2839
15.989
10.0625
7.39479
-2.16329
-0.0360758
0.136077
-0.114399
-0.417718
-0.254541
-0.0442799
-0.53006
-3.09627
3.00086
8.73798
8.80414
7.28779
0.301312
2.91967
10.2705
18.3472
21.8211
22.3633
22.5453
22.6224
17.8387
21.7519
23.6347
23.2531
22.118
18.355
12.7321
6.60086
2.40209
-1.63121
0.0172688
0.0835893
-0.148178
-0.240464
0.376979
-0.0963203
-0.0452276
-1.096
-1.10857
3.57824
4.80734
0.698926
-5.26617
-1.49371
6.49974
16.3043
20.0806
21.0296
21.4202
21.5692
14.3661
18.5989
20.5822
20.2507
19.2358
15.4581
9.46375
2.838
-1.94926
-0.139063
-0.0112588
0.0388703
-0.129891
-0.169775
0.253567
-0.110818
-0.00674831
0.0192853
-3.69744
-3.58957
-0.575574
-3.60691
-6.21419
-4.70249
5.40618
15.0841
18.8382
20.1749
20.6323
20.8615
10.8986
15.3026
17.567
17.2574
16.3759
12.5975
6.10697
-1.78061
-0.871382
-0.0685867
-0.0281716
0.0124023
-0.112014
-0.145998
-0.0369425
-0.200164
-0.0249106
0.0370078
-0.883285
-7.09847
-5.96274
-4.91631
-7.1954
-4.45578
7.20823
15.1295
18.9462
19.9826
20.3178
20.5053
7.30078
12.2634
14.5243
14.2748
13.5353
9.7555
2.65621
-4.56812
-0.234488
-0.079321
-0.0404813
-0.00495256
-0.11028
-0.132159
-0.123791
-0.187098
-0.0124814
0.0303263
-0.147289
-5.62734
-11.5582
-4.751
-3.17375
0.608903
10.2317
16.6145
19.7528
20.0893
20.3353
20.4634
87.0444
86.1654
85.4251
85.2282
85.8349
86.6667
86.7447
85.2915
83.7025
86.2031
87.235
84.9569
83.0116
80.7658
79.2335
77.8961
76.8487
78.1321
79.1195
81.8814
84.8209
88.4195
92.184
96.0729
99.6627
102.676
104.721
105.763
105.593
104.531
83.4181
82.7598
81.282
81.1683
81.8055
82.0443
81.818
80.5288
79.6735
82.4718
84.2589
81.7027
79.6678
77.4057
75.8851
74.5121
73.52
74.8113
75.824
78.5975
81.5453
85.1516
88.9195
92.8144
96.4071
99.4241
101.469
102.51
102.338
101.272
80.7411
80.0338
78.309
77.7904
77.9778
77.7739
77.04
75.4053
74.9642
79.0011
80.4478
78.1952
76.2017
73.9233
72.4228
71.0023
70.1233
71.4447
72.4996
75.2901
78.2584
81.879
85.6542
89.5605
93.1595
96.1815
98.2248
99.2637
99.0843
98.0075
78.9135
76.597
75.676
74.9193
74.4409
73.6174
72.3128
70.3523
70.4493
74.5856
76.3217
74.412
72.6188
70.3383
68.8382
67.3931
66.6827
68.0428
69.143
71.959
74.9595
78.6018
82.3881
86.3121
89.9202
92.9495
94.9902
96.0242
95.8336
94.7391
74.8871
73.8269
73.2634
72.2469
71.2154
69.7269
67.6725
64.9322
66.2101
70.613
72.0334
70.5819
68.9777
66.6839
65.1321
63.8222
63.1982
64.6052
65.7505
68.6037
71.6486
75.32
79.1212
83.0692
86.6894
89.728
91.7649
92.7918
92.5855
91.4664
71.9115
71.6167
70.9575
69.6255
68.204
66.4734
64.1326
60.8657
62.3178
66.8172
67.93
66.8314
65.2883
62.9751
61.3629
60.3352
59.6523
61.1132
62.3182
65.2241
68.3258
72.0341
75.8533
79.8321
83.4671
86.5174
88.5488
89.5666
89.3399
88.1894
69.6759
69.354
68.3319
66.912
65.6398
63.9853
61.2623
58.2781
60.4212
63.41
64.302
63.0407
61.5584
59.2037
57.5612
56.8394
55.9713
57.562
58.8469
61.8207
64.991
68.7445
72.5843
76.6006
80.2533
83.3176
85.342
86.3485
86.0969
84.9079
67.274
66.9621
65.6855
64.2675
63.2148
61.6882
59.0552
56.2869
57.5075
60.0747
60.6582
59.2551
57.8499
55.3351
53.6755
53.1525
52.1839
53.9642
55.3469
58.3942
61.6445
65.452
69.3139
73.3751
77.0482
80.1289
82.1446
83.1376
82.8565
81.6219
65.1762
64.8511
63.7714
62.3752
61.3875
59.942
57.4405
55.3228
55.6198
57.1169
57.1319
55.6642
54.1991
51.3708
49.6802
49.211
48.3967
50.3244
51.8258
54.9458
58.286
62.1573
66.0421
70.1555
73.8519
76.9515
78.9566
79.934
79.6185
78.331
63.029
62.5927
61.6822
60.6237
59.2274
57.8004
56.4093
54.9783
54.4228
54.4513
53.6777
52.1981
50.4962
47.4493
45.7789
45.091
44.5831
46.63
48.276
51.4769
54.9154
58.8614
62.7686
66.9418
70.6643
73.7856
75.7781
76.7376
76.3831
75.0351
60.3306
60.2582
59.6856
58.3506
56.7999
56.0309
54.7823
53.4727
52.63
51.7586
50.4392
48.7077
46.6794
43.6256
41.8685
40.8343
40.6543
42.8794
44.6907
47.9875
51.5326
55.5657
59.4931
63.7341
67.4858
70.6314
72.6091
73.5486
73.1502
71.7339
58.6857
58.8336
57.9312
55.6095
54.0455
53.3445
52.3744
51.3555
50.3877
48.9374
47.3329
45.3386
42.8378
39.6645
37.693
36.4553
36.5996
39.0877
41.0726
44.4777
48.1373
52.2714
56.2153
60.5323
64.3166
67.4893
69.4497
70.367
69.9197
68.4271
54.5843
54.2746
53.4033
52.2436
51.8953
51.0804
49.7715
48.6508
47.4666
46.1572
44.3264
41.9691
39.0493
35.5956
33.2212
31.9425
32.4318
35.2506
37.4298
40.9481
44.7291
48.9808
52.9347
57.3363
61.1568
64.3595
66.2999
67.1928
66.6916
65.1145
52.7447
51.8174
50.3372
49.3813
49.0322
48.2217
47.0095
46.0923
45.1049
43.3888
41.2196
38.6296
35.3268
31.352
28.6246
27.2662
28.1496
31.3637
33.7651
37.3999
41.3071
45.6957
49.651
54.1458
58.0068
61.2425
63.1598
64.0262
63.4659
61.7956
50.9041
50.4175
48.6685
46.8935
45.8012
44.4587
43.5528
43.3682
42.6983
40.9509
38.6583
35.6824
31.5327
27.0746
23.9108
22.4843
23.7714
27.419
30.0826
33.8339
37.8704
42.4185
46.3635
50.9606
54.8671
58.1387
60.0295
60.8672
60.2426
58.4701
47.1287
47.06
45.8328
43.8545
41.7118
40.2359
40.8597
41.9812
40.6067
38.2181
35.1944
31.6631
27.6281
22.6524
19.0136
17.6052
19.2722
23.4759
26.3837
30.2511
34.4176
39.1511
43.072
47.7803
51.7381
55.0485
56.9089
57.716
57.0216
55.1376
43.3757
43.0297
42.2136
40.8483
39.5748
38.043
38.2088
39.609
38.2558
35.4625
32.1649
28.8667
23.6107
18.0205
13.5082
12.0703
14.629
19.5599
22.6871
26.6497
30.9471
35.8955
39.7764
44.6048
48.6207
51.9724
53.7983
54.5726
53.8029
51.7975
39.5334
39.0251
38.4733
38.2028
38.1054
36.2787
35.0629
35.3431
34.3613
32.7088
29.8354
25.7474
19.5938
13.2028
7.37388
6.10714
9.81021
15.6154
19.0189
23.0296
27.4566
32.6536
36.4768
41.4336
45.5156
48.9109
50.6976
51.4371
50.5864
48.4494
36.5508
35.8799
35.4368
35.7648
35.8338
33.7768
31.5331
31.0791
30.6739
30.3842
27.6831
23.2063
16.0951
8.82025
1.2699
-0.179175
4.86217
11.6115
15.3874
19.3919
23.9432
29.4277
33.173
38.2667
42.4239
45.8647
47.6068
48.3097
47.3721
45.0928
34.1703
33.5848
33.1313
33.074
32.9298
31.5027
29.3922
29.131
28.7456
28.6949
25.5878
20.55
11.1034
3.11277
-6.14926
-7.56505
-0.167478
7.6478
11.8063
15.7333
20.4038
26.22
29.8644
35.1039
39.3468
42.8343
44.526
45.1905
44.1599
41.7269
31.8056
31.2913
30.8141
30.4032
29.7094
27.5262
26.2017
26.9125
24.2105
27.2488
25.9398
15.8057
8.02701
3.30063
-5.58397
-9.71458
-3.8528
3.86713
8.31098
12.0427
16.8346
23.0329
26.5491
31.9458
36.2856
39.8204
41.4552
42.0798
40.9498
38.3512
29.1495
28.6796
28.1809
27.5147
26.32
23.6731
22.6708
23.3848
22.5645
33.9637
24.5719
14.2152
7.08509
3.61312
-5.80744
-4.34948
-1.84821
0.979751
4.89056
8.32515
13.2382
19.8693
23.2236
28.7938
33.2419
36.8236
38.3943
38.9776
37.7418
34.965
26.7646
26.3605
25.7962
24.7084
23
20.0264
17.7772
18.5373
22.8972
23.5263
22.9587
10.1996
5.52276
1.71209
-0.210971
-0.746755
-0.788741
0.0666923
1.94407
4.58741
9.64333
16.7352
19.9134
25.6223
30.2173
33.8447
35.3434
35.8841
34.5358
31.5674
25.0136
24.697
24.1074
22.8486
20.6402
16.353
11.4268
13.1877
10.1044
17.901
17.09
9.52187
5.45372
-10.5061
-0.361944
-0.244638
0.115208
0.274152
0.349518
0.840849
6.04715
13.6391
16.6121
22.4338
27.2136
30.8845
32.3025
32.7995
31.3318
28.1578
23.7133
23.4779
23.0512
22.1111
19.5394
13.9808
6.24629
2.23078
8.15144
14.4829
15.2085
8.01321
1.19668
-2.31205
-0.769209
-0.234324
0.101824
0.202433
0.0499877
-0.632062
1.85127
10.5463
13.3188
19.2263
24.2332
27.9436
29.2714
29.7239
28.1292
24.7349
22.5621
22.3235
21.9331
21.266
18.1601
10.5232
2.71758
-2.46572
2.45236
11.3962
11.7435
4.52556
-6.72188
-0.576981
-0.429769
-0.249116
0.0526529
0.128074
0.0126956
0.0222907
-2.26144
7.40704
10.0192
15.9976
21.2788
25.0231
26.2503
26.6574
24.9307
21.2986
21.5314
21.237
20.7119
19.6351
16.2766
6.87919
-0.786715
-7.15053
-2.40743
6.87185
7.59614
-0.330668
-0.897519
-0.268115
-0.278579
-0.216556
0.0140131
0.0629761
0.00872772
0.0764065
-1.75293
2.45775
6.56173
12.7475
18.3531
22.1234
23.2389
23.601
21.7218
17.8464
20.7953
20.483
19.9224
18.5
15.1476
5.84062
-3.47007
-6.59637
-6.42414
0.885314
-0.0875447
-6.0396
-0.243137
-0.227291
-0.229304
-0.185554
-0.00600834
0.0170231
-0.00431802
0.0481512
-0.149685
-1.76758
2.80322
9.48625
15.4593
19.2454
20.2372
20.548
18.5679
14.3757
20.4564
20.1696
19.7566
18.683
15.1759
7.50766
-3.6511
-7.69726
-7.18384
-5.45145
-6.78594
-0.295697
-0.336848
-0.202885
-0.213348
-0.164996
-0.0175074
-0.0127282
-0.0182115
0.0233032
-0.0893164
-0.882383
-1.80256
6.13623
12.6015
16.39
17.2443
17.5301
15.2704
10.9102
20.4002
20.1933
19.8974
19.5056
16.442
9.85897
-0.231825
-5.22078
-7.65893
-9.5834
-10.315
-0.0761036
-0.248226
-0.216213
-0.20115
-0.141595
-0.0293972
-0.0282868
-0.0290145
0.00178234
-0.0944477
-0.219329
-4.59733
2.69559
9.76184
13.5545
14.262
14.486
12.2299
7.31463
4.81203
9.80179
12.1838
12.0355
11.3932
7.39114
-0.0950362
-0.977121
-0.172024
-0.0787439
-0.049186
-0.019882
-0.113438
-0.127417
-0.107654
-0.172224
-0.00666481
0.0504114
-0.0400463
-0.412143
-16.6112
0.575892
1.15555
6.04071
13.7435
18.2949
20.0239
20.3229
20.389
20.5127
3.03796
8.1245
10.6526
10.4674
9.86971
5.47175
-2.46116
-0.138011
-0.162556
-0.0796889
-0.0544814
-0.0287779
-0.113995
-0.123889
-0.0837714
-0.153963
-0.00752622
0.047134
-0.0161793
0.169732
-13.8691
4.44969
3.75996
9.60948
15.2655
19.5524
20.0744
20.4416
20.6978
20.5172
1.39219
6.39742
8.94818
8.75341
8.19214
2.77706
-0.50981
-0.0846867
-0.154655
-0.0806643
-0.0589676
-0.0367899
-0.11302
-0.119201
-0.0597225
-0.131138
-0.0121383
0.0379451
0.015312
0.103853
-2.70075
-9.94517
6.3237
14.0038
16.6314
20.3397
20.1115
20.4166
20.6026
20.4118
0.542413
4.83854
7.01483
6.82768
6.06621
0.446973
-0.0235923
-0.068193
-0.150689
-0.0830026
-0.0630922
-0.0442819
-0.109327
-0.10944
-0.0400296
-0.112134
-0.0195123
0.026966
-0.0111997
0.102715
-0.305169
-16.4319
10.3298
17.3308
17.6676
20.2882
19.9128
20.3198
20.3961
20.2483
0.0379171
3.11844
4.82914
4.70673
3.95487
-0.923002
-0.117188
-0.0716355
-0.145635
-0.086151
-0.0671046
-0.0513339
-0.10453
-0.109596
-0.0262884
-0.0909386
-0.028616
0.0159042
-0.00235887
0.100033
-5.15421e-05
-5.5672
13.0863
17.8329
18.339
20.0188
19.8084
19.9636
20.1515
19.9521
-0.052397
1.39975
2.54573
2.3788
1.44439
-0.0829926
-0.113324
-0.0742624
-0.140209
-0.0898402
-0.0711195
-0.0580402
-0.0998168
-0.105778
-0.0211182
-0.0774356
-0.0340706
0.00525129
-0.00204236
0.0787648
0.0358524
-1.04403
-2.56621
17.3925
18.6433
19.505
19.2823
19.2963
19.7372
19.5513
-0.0925774
0.238347
0.563195
0.378219
-0.0721982
-0.0120071
-0.109061
-0.0809768
-0.135472
-0.0936345
-0.0752556
-0.0644299
-0.0960574
-0.102627
-0.0258276
-0.0688567
-0.0438544
-0.00977555
-0.0136293
0.0149938
-0.0351637
-0.563114
-1.74836
17.9312
18.6633
18.8597
18.2596
18.3529
19.0385
19.1405
-0.115873
-0.12734
-0.141359
-0.126142
-0.139136
-0.133772
-0.111373
-0.0881915
-0.131559
-0.0974398
-0.0796053
-0.070662
-0.0935354
-0.100021
-0.0313018
-0.0676563
-0.0500255
-0.0270644
-0.0289407
-0.0176015
-0.0497076
-0.264127
0.0296115
9.23282
18.983
17.3661
17.0294
17.4045
18.3891
18.588
-0.118723
-0.129254
-0.152526
-0.129905
-0.141366
-0.132992
-0.115452
-0.0948001
-0.128643
-0.101276
-0.084215
-0.0767547
-0.0922131
-0.0982272
-0.0394833
-0.0713491
-0.0719574
-0.0519626
-0.0428447
-0.0750045
-0.0944036
-0.198228
-0.426923
0.475732
15.5511
12.9996
13.6224
15.2704
17.0546
17.7497
-0.121903
-0.132209
-0.156141
-0.133919
-0.144679
-0.133314
-0.119808
-0.10159
-0.126732
-0.105206
-0.0891323
-0.0828144
-0.0925415
-0.0895467
-0.045521
-0.0722324
-0.0829113
-0.0759509
-0.0494918
-0.0906622
-0.126035
-0.175142
-0.230834
-0.0775518
0.65988
0.81461
4.12387
11.1674
17.1669
19.4189
-0.125116
-0.135361
-0.159738
-0.138434
-0.147761
-0.134355
-0.12412
-0.108221
-0.125895
-0.109287
-0.0943819
-0.0889334
-0.094189
-0.101314
-0.0327883
-0.0740993
-0.091793
-0.0897181
-0.0614331
-0.0940208
-0.122224
-0.159185
-0.128911
-0.00409085
0.00978976
-0.0115254
-0.0333934
-0.0303946
0.0193943
0.386695
-0.12896
-0.13894
-0.163538
-0.143478
-0.150871
-0.135968
-0.128598
-0.114825
-0.126121
-0.11358
-0.099981
-0.0951704
-0.097075
-0.103514
-0.0693719
-0.0832185
-0.0703747
-0.103201
-0.094372
-0.0883841
-0.103779
-0.118086
-0.0622502
-0.0441015
-0.0407167
-0.0259167
-0.0338846
-0.0383146
-0.0407104
-0.0369896
-0.133064
-0.142633
-0.167356
-0.148932
-0.154012
-0.138342
-0.13313
-0.121352
-0.127427
-0.118138
-0.105949
-0.101455
-0.101249
-0.106057
-0.0793521
-0.0903721
-0.0775357
-0.119055
-0.124594
-0.0828428
-0.0972536
-0.103066
-0.0456022
-0.0262087
-0.0358489
-0.0368368
-0.0435214
-0.0514
-0.0597852
-0.0672758
-0.137584
-0.147089
-0.171027
-0.154519
-0.157308
-0.14146
-0.137824
-0.127829
-0.129799
-0.123015
-0.112312
-0.108115
-0.106572
-0.109281
-0.0897105
-0.0955358
-0.0826679
-0.119488
-0.124852
-0.0986005
-0.107717
-0.0920936
-0.0516801
-0.0301809
-0.0500491
-0.0511877
-0.0560584
-0.0621123
-0.0696163
-0.0766199
-0.142602
-0.152384
-0.173889
-0.159999
-0.160831
-0.145342
-0.14272
-0.134311
-0.13323
-0.128269
-0.119091
-0.115139
-0.112951
-0.113981
-0.100853
-0.102551
-0.0987148
-0.110467
-0.123777
-0.118105
-0.115961
-0.102963
-0.0791723
-0.0511782
-0.0501892
-0.076188
-0.0735021
-0.072946
-0.0753288
-0.0801047
-0.148069
-0.15733
-0.177249
-0.165272
-0.16461
-0.149962
-0.147875
-0.140867
-0.137688
-0.133959
-0.126317
-0.122628
-0.120341
-0.120411
-0.112471
-0.112423
-0.114129
-0.114569
-0.128963
-0.132767
-0.123174
-0.119749
-0.0980363
-0.085482
-0.0951762
-0.0784709
-0.0899803
-0.0855095
-0.0816352
-0.0824227
-0.153992
-0.162442
-0.180451
-0.170408
-0.168701
-0.155294
-0.15335
-0.147565
-0.143135
-0.14016
-0.134016
-0.130664
-0.128694
-0.12846
-0.124418
-0.125423
-0.129503
-0.130503
-0.142027
-0.148429
-0.148419
-0.137083
-0.133819
-0.124566
-0.12564
-0.100656
-0.0932386
-0.0912605
-0.0878111
-0.0881026
-0.160347
-0.167751
-0.183716
-0.175513
-0.173163
-0.161307
-0.159225
-0.15448
-0.149514
-0.146954
-0.142204
-0.139309
-0.137925
-0.137921
-0.136818
-0.13887
-0.144508
-0.148407
-0.158557
-0.168351
-0.174358
-0.175253
-0.173552
-0.164875
-0.152098
-0.131363
-0.115014
-0.108589
-0.105403
-0.104414
-0.167138
-0.173401
-0.187306
-0.180772
-0.178089
-0.167985
-0.165579
-0.161695
-0.156761
-0.154417
-0.150893
-0.148593
-0.147929
-0.148582
-0.149772
-0.15363
-0.160948
-0.168895
-0.180821
-0.194009
-0.204218
-0.208296
-0.208788
-0.205495
-0.184735
-0.170828
-0.159468
-0.148705
-0.141274
-0.137827
-0.174394
-0.179578
-0.191509
-0.186419
-0.183598
-0.175283
-0.172516
-0.169308
-0.164792
-0.162594
-0.16011
-0.158508
-0.158632
-0.160167
-0.163261
-0.169181
-0.17899
-0.191736
-0.208686
-0.22761
-0.243467
-0.252213
-0.255707
-0.25834
-0.223179
-0.21886
-0.207382
-0.195477
-0.187732
-0.183675
-0.182173
-0.186411
-0.196491
-0.192617
-0.189795
-0.183159
-0.180144
-0.177424
-0.173525
-0.171524
-0.169882
-0.169011
-0.169936
-0.172339
-0.177001
-0.184919
-0.197422
-0.215392
-0.239904
-0.267555
-0.290411
-0.303373
-0.30479
-0.30342
-0.268208
-0.255074
-0.260515
-0.247338
-0.238706
-0.233513
-0.190533
-0.193972
-0.202354
-0.199499
-0.196752
-0.191597
-0.188531
-0.186146
-0.182944
-0.181196
-0.180211
-0.180022
-0.181596
-0.184869
-0.190489
-0.199871
-0.214345
-0.236172
-0.26687
-0.302323
-0.332433
-0.353848
-0.361463
-0.355832
-0.337452
-0.308036
-0.313526
-0.301188
-0.291754
-0.286161
-0.199533
-0.202302
-0.209161
-0.207146
-0.204561
-0.200619
-0.197701
-0.19557
-0.193049
-0.191588
-0.191097
-0.191463
-0.193461
-0.197197
-0.203328
-0.212935
-0.227363
-0.249282
-0.280306
-0.316649
-0.352051
-0.374534
-0.384859
-0.380039
-0.370778
-0.358081
-0.34055
-0.329508
-0.319327
-0.313163
-0.209234
-0.211441
-0.216964
-0.215615
-0.213267
-0.21032
-0.20767
-0.205782
-0.203858
-0.202694
-0.202542
-0.203271
-0.205398
-0.209082
-0.214788
-0.223167
-0.235264
-0.252939
-0.276646
-0.30243
-0.324418
-0.341133
-0.345689
-0.342268
-0.333734
-0.322114
-0.309498
-0.298185
-0.289524
-0.283842
-0.219702
-0.221435
-0.225801
-0.224965
-0.222928
-0.220785
-0.218479
-0.216849
-0.215405
-0.214516
-0.214567
-0.215446
-0.217448
-0.220661
-0.225276
-0.231572
-0.239985
-0.250983
-0.26412
-0.276301
-0.279955
-0.291343
-0.290977
-0.286003
-0.278277
-0.269083
-0.260516
-0.253152
-0.247589
-0.243833
-0.23101
-0.232342
-0.235711
-0.235263
-0.2336
-0.232095
-0.230182
-0.228832
-0.227752
-0.227097
-0.227234
-0.228067
-0.2297
-0.23214
-0.235381
-0.239391
-0.244107
-0.249313
-0.254422
-0.258272
-0.259978
-0.259479
-0.257201
-0.252899
-0.247836
-0.242852
-0.238418
-0.234663
-0.231973
-0.230085
-0.243234
-0.244222
-0.246736
-0.24658
-0.245346
-0.244338
-0.242852
-0.241786
-0.240982
-0.2405
-0.240617
-0.241248
-0.242395
-0.243984
-0.245891
-0.24794
-0.249894
-0.251469
-0.252598
-0.252974
-0.252187
-0.25053
-0.248233
-0.245714
-0.24318
-0.240648
-0.238708
-0.236979
-0.235641
-0.234644
-0.256457
-0.257146
-0.258917
-0.258994
-0.258222
-0.257609
-0.256572
-0.255779
-0.255189
-0.254823
-0.254853
-0.255209
-0.255842
-0.256649
-0.257491
-0.258225
-0.258718
-0.258933
-0.258612
-0.257848
-0.256704
-0.255337
-0.253908
-0.25238
-0.251196
-0.249981
-0.249029
-0.248239
-0.247452
-0.246967
-0.27077
-0.271187
-0.272296
-0.272578
-0.272291
-0.272011
-0.271432
-0.270901
-0.270488
-0.27019
-0.270099
-0.270169
-0.270348
-0.270561
-0.270725
-0.270789
-0.270716
-0.27042
-0.269915
-0.26925
-0.268494
-0.267721
-0.266988
-0.266318
-0.265719
-0.26521
-0.264786
-0.264437
-0.264149
-0.26391
-0.286268
-0.286422
-0.286907
-0.287407
-0.287616
-0.28766
-0.287541
-0.287271
-0.28702
-0.286766
-0.286555
-0.28637
-0.286194
-0.286011
-0.285814
-0.285684
-0.285559
-0.285373
-0.285156
-0.284933
-0.284726
-0.28455
-0.284406
-0.284289
-0.284194
-0.284115
-0.28405
-0.283993
-0.283943
-0.283897
20.4265
20.2738
20.1737
19.8636
18.1565
12.6743
4.14164
-1.62258
-5.13729
-14.853
-1.03803
-0.0958442
-0.226475
-0.200228
-0.19834
-0.124614
-0.0395245
-0.0368903
-0.0382865
-0.0115825
-0.090325
-0.177537
-1.00228
-0.0395844
7.40073
11.4167
12.0227
12.157
9.76727
4.82751
20.4304
20.7414
20.3433
19.9401
19.4197
14.1777
7.19693
0.721825
-4.63383
-14.9684
-0.200577
-0.139584
-0.203569
-0.190799
-0.199996
-0.11736
-0.0472137
-0.0427992
-0.0438004
-0.0202076
-0.0893129
-0.166946
-0.134907
-2.41483
5.45384
9.8958
10.4544
10.6211
8.08933
3.05476
20.4533
20.6106
20.3198
19.9783
20.2979
15.7405
11.7199
3.32452
-15.601
-4.17356
-0.196571
-0.162718
-0.194609
-0.184225
-0.204565
-0.117086
-0.0554165
-0.0495063
-0.0488057
-0.0286047
-0.0885159
-0.158372
-0.0804117
-0.501267
2.71429
8.22192
8.74024
8.91505
6.36459
1.41342
20.2654
20.4114
20.3139
19.7819
20.4267
16.8436
15.8363
7.67603
-17.6018
-0.757399
-0.103019
-0.15205
-0.188969
-0.179662
-0.209191
-0.121557
-0.0623951
-0.0491096
-0.0538567
-0.0370577
-0.0893489
-0.153863
-0.0638109
-0.0456326
0.525661
6.10418
6.81334
6.97979
4.80142
0.55473
19.9715
20.1642
20.1155
19.943
20.3081
17.7447
17.7189
13.32
-7.25153
-0.0589676
-0.102197
-0.149656
-0.183052
-0.175814
-0.209821
-0.12306
-0.0673734
-0.0637894
-0.0589151
-0.0455336
-0.091329
-0.148471
-0.0677491
-0.131983
-0.88798
3.98778
4.6922
4.79549
3.07894
0.0302363
19.5992
19.7647
19.5634
19.5637
19.7259
18.7189
17.5621
6.58366
-1.41471
-0.0790802
-0.0698497
-0.144407
-0.177743
-0.172189
-0.204306
-0.132544
-0.0876342
-0.071649
-0.0641932
-0.0539828
-0.0941301
-0.143047
-0.0715633
-0.127542
-0.0745636
1.46271
2.36331
2.51505
1.36452
-0.056855
19.2271
19.1929
18.7318
18.5399
19.3297
19.2891
16.7599
-2.78248
0.137125
-0.197517
-0.10844
-0.139904
-0.173917
-0.169529
-0.195009
-0.138909
-0.0928751
-0.0792733
-0.0698046
-0.0623724
-0.0973862
-0.138271
-0.0791156
-0.122106
-0.0150594
-0.0680902
0.371958
0.545718
0.223668
-0.0938048
18.654
18.5107
17.8321
17.824
18.3298
20.7188
13.4675
0.582199
-0.930036
-0.182007
-0.158067
-0.147951
-0.172263
-0.168658
-0.186547
-0.153744
-0.0996283
-0.0869867
-0.0758249
-0.0706853
-0.100918
-0.134408
-0.0872807
-0.12314
-0.12947
-0.136082
-0.123806
-0.142929
-0.127805
-0.115492
17.9087
17.3864
16.0229
15.5774
16.2031
19.4044
0.972194
-0.481514
-0.643855
-0.104325
-0.186555
-0.156915
-0.171882
-0.167877
-0.182155
-0.163795
-0.107074
-0.0950472
-0.0822977
-0.0789139
-0.104705
-0.131611
-0.0947105
-0.126126
-0.12929
-0.138642
-0.127573
-0.152373
-0.129769
-0.118351
19.4291
16.6275
11.9603
4.81254
1.11489
1.39494
-0.169664
-0.223538
-0.293243
-0.226419
-0.201922
-0.163464
-0.171303
-0.172771
-0.182673
-0.170125
-0.113454
-0.10324
-0.0892071
-0.0870738
-0.108783
-0.129869
-0.102293
-0.129455
-0.13022
-0.14226
-0.131609
-0.156075
-0.132713
-0.121589
0.430922
-0.0362624
-0.0536203
-0.0611337
-0.0601182
-0.0616205
-0.123257
-0.225468
-0.282065
-0.230859
-0.205778
-0.170733
-0.169132
-0.174298
-0.18528
-0.171687
-0.119753
-0.111361
-0.0965167
-0.0951983
-0.113178
-0.129244
-0.109661
-0.132888
-0.131755
-0.14562
-0.136167
-0.159619
-0.135882
-0.124798
-0.0248997
-0.0115402
-0.0177835
-0.167685
-0.11197
-0.135187
-0.142828
-0.197727
-0.236267
-0.212246
-0.20119
-0.17495
-0.163797
-0.169549
-0.175886
-0.165774
-0.125086
-0.119505
-0.104178
-0.103318
-0.117921
-0.129713
-0.116956
-0.136292
-0.134043
-0.148998
-0.141309
-0.163637
-0.139482
-0.128606
-0.071142
-0.0731405
-0.0911772
-0.123169
0.0291475
-0.127007
-0.172185
-0.189723
-0.212656
-0.197779
-0.184397
-0.174944
-0.155161
-0.154778
-0.166727
-0.160969
-0.130835
-0.126973
-0.112126
-0.111462
-0.123034
-0.131284
-0.124106
-0.13977
-0.137116
-0.152417
-0.146907
-0.167413
-0.143524
-0.132693
-0.0826858
-0.0886199
-0.0983343
-0.0911539
-0.121538
-0.148583
-0.164204
-0.186811
-0.203192
-0.196667
-0.18269
-0.175753
-0.164671
-0.154845
-0.1601
-0.159441
-0.136987
-0.134158
-0.120326
-0.119665
-0.128532
-0.133935
-0.131114
-0.143451
-0.140971
-0.156005
-0.152691
-0.171094
-0.148003
-0.137201
-0.0860789
-0.0934891
-0.101285
-0.111335
-0.117012
-0.13345
-0.169522
-0.174929
-0.178274
-0.194061
-0.190977
-0.180356
-0.169585
-0.160501
-0.159482
-0.161042
-0.143517
-0.14133
-0.128764
-0.127959
-0.134434
-0.137646
-0.13801
-0.147432
-0.145594
-0.159814
-0.158419
-0.174366
-0.153364
-0.142169
-0.0873877
-0.0958959
-0.106794
-0.123068
-0.139966
-0.159419
-0.171433
-0.18145
-0.189483
-0.203989
-0.193737
-0.18482
-0.174979
-0.168583
-0.16375
-0.165022
-0.150659
-0.148636
-0.137448
-0.13638
-0.140757
-0.142376
-0.144886
-0.151799
-0.150918
-0.163874
-0.163943
-0.177755
-0.158306
-0.14763
-0.0931482
-0.102537
-0.115727
-0.129816
-0.147346
-0.165828
-0.1816
-0.200342
-0.205443
-0.207693
-0.200335
-0.190794
-0.18428
-0.178521
-0.171069
-0.17063
-0.158551
-0.156171
-0.146386
-0.144953
-0.147533
-0.148081
-0.151829
-0.156655
-0.156816
-0.168241
-0.169324
-0.180957
-0.163378
-0.153594
-0.108015
-0.116374
-0.128604
-0.142358
-0.160655
-0.179555
-0.197278
-0.209964
-0.218883
-0.221708
-0.213566
-0.203228
-0.195557
-0.18825
-0.180214
-0.177553
-0.167198
-0.164021
-0.155582
-0.153698
-0.154802
-0.154699
-0.158926
-0.162116
-0.163212
-0.17296
-0.174675
-0.184163
-0.168606
-0.159981
-0.138655
-0.143509
-0.152323
-0.164424
-0.180898
-0.202488
-0.217472
-0.233444
-0.244801
-0.245156
-0.235705
-0.222463
-0.210958
-0.200391
-0.191037
-0.185726
-0.176475
-0.172262
-0.165016
-0.162642
-0.162586
-0.162157
-0.166261
-0.168268
-0.170056
-0.178125
-0.180163
-0.187693
-0.174144
-0.166808
-0.182663
-0.184213
-0.188764
-0.195452
-0.206657
-0.240262
-0.256063
-0.272726
-0.283993
-0.281844
-0.269634
-0.249331
-0.23054
-0.21478
-0.202943
-0.194976
-0.186168
-0.180942
-0.174633
-0.171824
-0.170889
-0.170359