/*--------------------------------*- C++ -*----------------------------------*\
| =========                 |                                                 |
| \\      /  F ield         | OpenFOAM: The Open Source CFD Toolbox           |
|  \\    /   O peration     | Version:  2.4.0                                 |
|   \\  /    A nd           | Web:      www.OpenFOAM.org                      |
|    \\/     M anipulation  |                                                 |
\*---------------------------------------------------------------------------*/
FoamFile
{
    version     2.0;
    format      ascii;
    class       surfaceScalarField;
    location    "0.097";
    object      phi;
}
// * * * * * * * * * * * * * * * * * * * * * * * * * * * * * * * * * * * * * //

dimensions      [0 3 -1 0 0 0 0];

internalField   nonuniform List<scalar> 
7080
(
-2.90533e-08
2.90533e-08
-4.03391e-08
1.12858e-08
-3.6179e-08
-4.16008e-09
-2.35585e-08
-1.26205e-08
-2.99471e-09
-2.05638e-08
2.35914e-08
-2.65861e-08
5.38914e-08
-3.03e-08
8.51117e-08
-3.12203e-08
1.1604e-07
-3.09282e-08
1.44045e-07
-2.80045e-08
1.67508e-07
-2.34636e-08
1.81518e-07
-1.40097e-08
1.97407e-07
-1.58896e-08
1.67457e-07
2.99502e-08
1.79123e-07
-1.16655e-08
1.19603e-07
5.95194e-08
6.37516e-08
5.58516e-08
1.60031e-08
4.77485e-08
-5.45207e-08
7.05238e-08
-1.12958e-07
5.84374e-08
-2.13125e-07
1.00167e-07
-2.93601e-07
8.04757e-08
-2.13189e-07
-8.0412e-08
-6.9193e-08
-1.43996e-07
3.6711e-08
-1.05904e-07
1.16516e-07
-7.9805e-08
1.51908e-07
-3.53918e-08
1.35123e-07
1.67851e-08
7.78488e-08
5.7274e-08
7.38663e-08
3.98252e-09
-4.19204e-08
7.09737e-08
-6.21156e-08
3.1481e-08
-6.28938e-08
-3.38189e-09
-5.24441e-08
-2.30702e-08
-3.07695e-08
-4.22384e-08
5.21375e-10
-5.7877e-08
3.87696e-08
-6.85482e-08
8.07256e-08
-7.31765e-08
1.24188e-07
-7.43908e-08
1.66966e-07
-7.07824e-08
2.01703e-07
-5.82005e-08
2.33373e-07
-4.56798e-08
2.60597e-07
-4.3114e-08
2.37615e-07
5.29329e-08
2.75973e-07
-5.0024e-08
2.20479e-07
1.15013e-07
1.55207e-07
1.21124e-07
1.27674e-07
7.52819e-08
3.36301e-08
1.64567e-07
-1.40342e-07
2.3241e-07
-2.55071e-07
2.14896e-07
-3.01889e-07
1.27294e-07
-2.4216e-07
-1.40141e-07
-1.57735e-07
-2.28422e-07
-6.69163e-08
-1.96722e-07
8.34442e-09
-1.55066e-07
3.56259e-08
-6.26733e-08
1.91443e-08
3.32667e-08
-4.05401e-09
8.04723e-08
7.05233e-08
-7.11006e-10
-4.43706e-08
1.15344e-07
-6.64815e-08
5.35919e-08
-6.87601e-08
-1.1033e-09
-5.95511e-08
-3.22792e-08
-3.86113e-08
-6.31782e-08
-7.47896e-09
-8.90093e-08
3.12305e-08
-1.07258e-07
7.41103e-08
-1.16056e-07
1.18819e-07
-1.191e-07
1.63154e-07
-1.15117e-07
1.98619e-07
-9.36652e-08
2.35042e-07
-8.2103e-08
2.55138e-07
-6.321e-08
2.52995e-07
5.50752e-08
2.91175e-07
-8.82033e-08
2.46172e-07
1.60016e-07
1.89596e-07
1.77699e-07
1.66881e-07
9.79969e-08
9.49326e-08
2.36516e-07
-3.87716e-08
3.66114e-07
-1.77041e-07
3.53165e-07
-2.47536e-07
1.97788e-07
-2.44471e-07
-1.43206e-07
-2.06725e-07
-2.66167e-07
-1.51763e-07
-2.51685e-07
-9.69942e-08
-2.09834e-07
-5.03533e-08
-1.09314e-07
-3.3407e-08
1.63205e-08
-3.1562e-08
7.86273e-08
4.39031e-08
-4.94172e-09
-4.49671e-08
1.60311e-07
-6.74601e-08
7.60848e-08
-7.0019e-08
1.45562e-09
-6.11154e-08
-4.11828e-08
-4.03778e-08
-8.39158e-08
-9.3039e-09
-1.20083e-07
2.95327e-08
-1.46094e-07
7.26206e-08
-1.59144e-07
1.17694e-07
-1.64173e-07
1.62591e-07
-1.60015e-07
1.97454e-07
-1.28527e-07
2.39092e-07
-1.23742e-07
2.42601e-07
-6.67192e-08
2.68853e-07
2.88241e-08
2.95365e-07
-1.14716e-07
2.50534e-07
2.04847e-07
2.18622e-07
2.09612e-07
1.95498e-07
1.2112e-07
1.51721e-07
2.80293e-07
4.99929e-08
4.67842e-07
-7.36737e-08
4.76832e-07
-1.64978e-07
2.89092e-07
-2.27479e-07
-8.07055e-08
-2.47213e-07
-2.46433e-07
-2.17672e-07
-2.81226e-07
-1.64852e-07
-2.62654e-07
-1.04272e-07
-1.69894e-07
-5.75772e-08
-3.03748e-08
-1.39103e-08
3.49605e-08
3.04991e-08
-5.0636e-10
-4.53195e-08
2.05631e-07
-6.79421e-08
9.87074e-08
-7.05329e-08
4.04642e-09
-6.17384e-08
-4.99773e-08
-4.10786e-08
-1.04576e-07
-1.00177e-08
-1.51144e-07
2.89347e-08
-1.85047e-07
7.2135e-08
-2.02345e-07
1.1749e-07
-2.09528e-07
1.62861e-07
-2.05385e-07
1.9754e-07
-1.63207e-07
2.43205e-07
-1.69406e-07
2.31347e-07
-5.48616e-08
2.80282e-07
-2.01107e-08
2.71581e-07
-1.06014e-07
2.38273e-07
2.38154e-07
2.42017e-07
2.05868e-07
1.9215e-07
1.70988e-07
1.75648e-07
2.96795e-07
1.28717e-07
5.14773e-07
3.00028e-08
5.75546e-07
-5.8675e-08
3.7777e-07
-1.61734e-07
2.23539e-08
-2.12901e-07
-1.95266e-07
-2.19225e-07
-2.74902e-07
-1.98021e-07
-2.83858e-07
-1.46187e-07
-2.21727e-07
-8.16667e-08
-9.48953e-08
-2.25862e-08
-2.41201e-08
4.34865e-09
3.56434e-09
-4.56998e-08
2.51331e-07
-6.843e-08
1.21438e-07
-7.10087e-08
6.62513e-09
-6.23106e-08
-5.86755e-08
-4.17322e-08
-1.25154e-07
-1.07019e-08
-1.82175e-07
2.83552e-08
-2.24104e-07
7.16373e-08
-2.45627e-07
1.17291e-07
-2.55182e-07
1.63063e-07
-2.51157e-07
1.98633e-07
-1.98777e-07
2.45822e-07
-2.16595e-07
2.30273e-07
-3.9313e-08
2.87187e-07
-7.70242e-08
2.42251e-07
-6.1079e-08
2.21377e-07
2.59028e-07
2.49248e-07
1.77996e-07
1.9124e-07
2.28997e-07
2.09117e-07
2.78918e-07
2.03396e-07
5.20493e-07
1.36534e-07
6.42408e-07
7.66414e-08
4.37663e-07
1.69331e-08
8.20622e-08
-6.56285e-08
-1.12704e-07
-1.54157e-07
-1.86373e-07
-1.99095e-07
-2.38921e-07
-1.74872e-07
-2.45951e-07
-1.06163e-07
-1.63604e-07
-5.7726e-08
-7.25573e-08
-5.37941e-08
4.16692e-10
-4.61515e-08
2.97482e-07
-6.90037e-08
1.4429e-07
-7.15598e-08
9.18121e-09
-6.29762e-08
-6.72591e-08
-4.24998e-08
-1.4563e-07
-1.15171e-08
-2.13157e-07
2.76604e-08
-2.63281e-07
7.10057e-08
-2.88972e-07
1.17039e-07
-3.01216e-07
1.63131e-07
-2.97248e-07
2.01009e-07
-2.36656e-07
2.46077e-07
-2.61663e-07
2.43269e-07
-3.6505e-08
2.98909e-07
-1.32664e-07
2.47007e-07
-9.17776e-09
2.07201e-07
2.98834e-07
2.47143e-07
1.38055e-07
2.01555e-07
2.74584e-07
2.34087e-07
2.46386e-07
2.58143e-07
4.96438e-07
2.32844e-07
6.67707e-07
1.76492e-07
4.94015e-07
1.32159e-07
1.26395e-07
9.91768e-08
-7.97223e-08
-2.65165e-09
-8.45446e-08
-1.0749e-07
-1.34083e-07
-1.54938e-07
-1.98502e-07
-1.07946e-07
-2.10596e-07
-4.64954e-08
-1.34008e-07
-9.9873e-08
-4.16468e-10
-4.6682e-08
3.44164e-07
-6.96754e-08
1.67283e-07
-7.22019e-08
1.17078e-08
-6.37557e-08
-7.57053e-08
-4.3403e-08
-1.65983e-07
-1.24833e-08
-2.44077e-07
2.68407e-08
-3.02605e-07
7.02327e-08
-3.32364e-07
1.16717e-07
-3.477e-07
1.63085e-07
-3.43616e-07
2.0452e-07
-2.78091e-07
2.41644e-07
-2.98787e-07
2.71425e-07
-6.62855e-08
3.02446e-07
-1.63685e-07
2.81666e-07
1.16025e-08
2.10891e-07
3.6961e-07
2.3334e-07
1.15605e-07
2.04386e-07
3.03539e-07
2.12088e-07
2.38683e-07
3.00297e-07
4.08229e-07
3.20391e-07
6.47613e-07
2.83877e-07
5.30529e-07
2.31843e-07
1.78429e-07
1.89959e-07
-3.78379e-08
1.47777e-07
-4.23633e-08
6.62498e-08
-5.25556e-08
-3.22073e-08
-1.00045e-07
-6.55295e-08
-1.77273e-07
-2.57584e-08
-1.73779e-07
-1.25819e-07
1.87752e-10
-4.72935e-08
3.91458e-07
-7.04471e-08
1.90437e-07
-7.29366e-08
1.41972e-08
-6.46519e-08
-8.399e-08
-4.44447e-08
-1.8619e-07
-1.36043e-08
-2.74917e-07
2.5902e-08
-3.42111e-07
6.93093e-08
-3.75772e-07
1.16291e-07
-3.94682e-07
1.63164e-07
-3.90489e-07
2.07369e-07
-3.22295e-07
2.37038e-07
-3.28457e-07
2.94133e-07
-1.2338e-07
2.82787e-07
-1.5234e-07
2.90854e-07
3.53555e-09
2.59143e-07
4.01321e-07
2.61484e-07
1.13264e-07
2.74828e-07
2.90195e-07
2.23975e-07
2.89536e-07
2.90787e-07
3.41417e-07
3.68896e-07
5.69503e-07
3.81504e-07
5.17921e-07
3.55955e-07
2.03978e-07
2.84356e-07
3.37606e-08
2.36446e-07
5.54765e-09
1.92777e-07
-8.88751e-09
1.37675e-07
-4.49421e-08
7.37243e-08
-1.13323e-07
2.75465e-08
-1.27602e-07
-1.00319e-07
2.04598e-09
-4.79875e-08
4.39445e-07
-7.13199e-08
2.13769e-07
-7.37629e-08
1.66401e-08
-6.56651e-08
-9.20877e-08
-4.56259e-08
-2.0623e-07
-1.48825e-08
-3.05661e-07
2.48211e-08
-3.81815e-07
6.82198e-08
-4.1917e-07
1.15727e-07
-4.42189e-07
1.63539e-07
-4.38301e-07
2.0811e-07
-3.66866e-07
2.41406e-07
-3.61753e-07
2.97313e-07
-1.79287e-07
2.75417e-07
-1.30444e-07
2.92231e-07
-1.32783e-08
3.26393e-07
3.67159e-07
3.01484e-07
1.38173e-07
3.08277e-07
2.83403e-07
2.57444e-07
3.40369e-07
2.79882e-07
3.18979e-07
3.60124e-07
4.89261e-07
3.81612e-07
4.96433e-07
3.6292e-07
2.22671e-07
3.43412e-07
5.3269e-08
2.87778e-07
6.11808e-08
1.87123e-07
9.1768e-08
1.42302e-07
-1.21253e-10
1.23126e-07
-9.41462e-08
6.73355e-08
-7.18115e-08
-3.56876e-08
2.70446e-09
-4.87655e-08
4.88211e-07
-7.22945e-08
2.37298e-07
-7.46796e-08
1.90252e-08
-6.67951e-08
-9.99722e-08
-4.69471e-08
-2.26078e-07
-1.63209e-08
-3.36287e-07
2.36189e-08
-4.21755e-07
6.69519e-08
-4.62503e-07
1.1502e-07
-4.90258e-07
1.63956e-07
-4.87237e-07
2.08487e-07
-4.11397e-07
2.4998e-07
-4.03245e-07
2.91018e-07
-2.20324e-07
2.94779e-07
-1.34206e-07
3.22161e-07
-4.06605e-08
3.6029e-07
3.29031e-07
2.92021e-07
2.06441e-07
2.90074e-07
2.85349e-07
2.87742e-07
3.42701e-07
2.32935e-07
3.73786e-07
2.85079e-07
4.37117e-07
3.51378e-07
4.30135e-07
3.0722e-07
2.66829e-07
2.3417e-07
1.26318e-07
1.74139e-07
1.21212e-07
1.66763e-07
9.91444e-08
1.57978e-07
8.66353e-09
7.65386e-08
-1.27066e-08
2.57569e-08
-2.10297e-08
-1.65125e-08
6.5818e-09
-4.96293e-08
5.3784e-07
-7.33716e-08
2.61041e-07
-7.56849e-08
2.13385e-08
-6.8042e-08
-1.07615e-07
-4.84092e-08
-2.4571e-07
-1.79214e-08
-3.66775e-07
2.2254e-08
-4.6193e-07
6.54821e-08
-5.05731e-07
1.14138e-07
-5.38914e-07
1.64201e-07
-5.37299e-07
2.10312e-07
-4.57508e-07
2.53973e-07
-4.46907e-07
2.89687e-07
-2.56038e-07
3.2472e-07
-1.69239e-07
3.40855e-07
-5.67951e-08
3.48688e-07
3.21197e-07
2.9128e-07
2.63849e-07
2.77186e-07
2.99444e-07
2.70412e-07
3.49475e-07
2.39693e-07
4.04504e-07
2.72206e-07
4.04604e-07
2.65105e-07
4.37236e-07
2.40673e-07
2.9126e-07
2.5467e-07
1.12322e-07
2.81272e-07
9.46089e-08
2.90779e-07
8.96377e-08
2.01506e-07
9.7937e-08
7.51832e-08
1.13616e-07
1.32849e-08
4.08686e-08
1.05219e-10
-3.33285e-09
-5.05809e-08
5.88421e-07
-7.45523e-08
2.85012e-07
-7.67769e-08
2.35631e-08
-6.94057e-08
-1.14986e-07
-5.00129e-08
-2.65103e-07
-1.96869e-08
-3.97101e-07
2.07514e-08
-5.02369e-07
6.37846e-08
-5.48765e-07
1.13084e-07
-5.88213e-07
1.64414e-07
-5.88629e-07
2.129e-07
-5.05995e-07
2.52093e-07
-4.861e-07
3.05268e-07
-3.09213e-07
3.4136e-07
-2.05331e-07
3.44434e-07
-5.98689e-08
3.39858e-07
3.25773e-07
2.80802e-07
3.22905e-07
2.6372e-07
3.16526e-07
2.6858e-07
3.44615e-07
2.38978e-07
4.34106e-07
2.1708e-07
4.26503e-07
2.41013e-07
4.13303e-07
2.62537e-07
2.69736e-07
2.33621e-07
1.41237e-07
1.70154e-07
1.58076e-07
6.17178e-08
1.98074e-07
-2.74181e-08
1.87073e-07
-2.57312e-08
1.11929e-07
-3.54066e-09
1.8678e-08
-2.3342e-09
-1.10125e-09
-5.16224e-08
6.40043e-07
-7.58375e-08
3.09227e-07
-7.79525e-08
2.56781e-08
-7.08859e-08
-1.22053e-07
-5.17592e-08
-2.8423e-07
-2.16194e-08
-4.2724e-07
1.90867e-08
-5.43075e-07
6.18491e-08
-5.91527e-07
1.11949e-07
-6.38313e-07
1.64826e-07
-6.41506e-07
2.14211e-07
-5.5538e-07
2.51903e-07
-5.23792e-07
3.17107e-07
-3.74417e-07
3.53756e-07
-2.4198e-07
3.31761e-07
-3.78732e-08
3.03116e-07
3.54417e-07
2.88102e-07
3.37919e-07
2.74217e-07
3.30411e-07
2.29675e-07
3.89157e-07
1.86405e-07
4.77376e-07
1.61276e-07
4.51631e-07
1.80171e-07
3.94409e-07
1.64865e-07
2.85042e-07
1.03283e-07
2.02819e-07
5.07154e-08
2.10644e-07
2.8197e-08
2.20592e-07
5.68999e-08
1.5837e-07
8.40406e-08
8.4788e-08
5.0016e-08
5.27026e-08
5.41203e-08
-6.43849e-09
-5.27565e-08
6.928e-07
-7.72282e-08
3.33699e-07
-7.92083e-08
2.76581e-08
-7.24825e-08
-1.28779e-07
-5.36486e-08
-3.03064e-07
-2.37201e-08
-4.57169e-07
1.72558e-08
-5.84051e-07
5.96731e-08
-6.33945e-07
1.10779e-07
-6.89418e-07
1.65453e-07
-6.9618e-07
2.13755e-07
-6.03682e-07
2.54195e-07
-5.64231e-07
3.26189e-07
-4.4641e-07
3.4012e-07
-2.55911e-07
3.03708e-07
-1.46131e-09
3.18826e-07
3.39299e-07
3.08423e-07
3.48322e-07
3.12698e-07
3.26137e-07
2.67779e-07
4.34076e-07
2.41849e-07
5.03307e-07
2.68866e-07
4.24614e-07
3.33587e-07
3.29687e-07
4.387e-07
1.7993e-07
4.75863e-07
1.65655e-07
4.32328e-07
2.54179e-07
3.79021e-07
2.739e-07
3.17765e-07
2.19626e-07
2.13076e-07
1.89476e-07
9.19925e-08
1.73786e-07
1.49432e-07
-3.31925e-09
-5.39857e-08
7.46785e-07
-7.87258e-08
3.58439e-07
-8.05386e-08
2.94709e-08
-7.41952e-08
-1.35122e-07
-5.56822e-08
-3.21577e-07
-2.59897e-08
-4.86862e-07
1.52574e-08
-6.25298e-07
5.72685e-08
-6.75956e-07
1.09596e-07
-7.41745e-07
1.6617e-07
-7.52754e-07
2.10784e-07
-6.48296e-07
2.6395e-07
-6.17398e-07
3.0336e-07
-4.8582e-07
3.38051e-07
-2.90603e-07
3.38991e-07
-2.40103e-09
3.5724e-07
3.2105e-07
3.7295e-07
3.32611e-07
4.23048e-07
2.76039e-07
4.29186e-07
4.27938e-07
4.38224e-07
4.94269e-07
4.00968e-07
4.61869e-07
3.13722e-07
4.16933e-07
2.19795e-07
2.73857e-07
1.75658e-07
2.09792e-07
1.93874e-07
2.35963e-07
1.90812e-07
2.76962e-07
1.16166e-07
2.94272e-07
3.22052e-08
2.73437e-07
9.04519e-10
2.05087e-07
1.4936e-07
9.76455e-10
-5.53131e-08
8.02098e-07
-8.03314e-08
3.83457e-07
-8.19351e-08
3.10745e-08
-7.60239e-08
-1.41033e-07
-5.78608e-08
-3.3974e-07
-2.84276e-08
-5.16295e-07
1.30713e-08
-6.66797e-07
5.46535e-08
-7.17538e-07
1.08464e-07
-7.95555e-07
1.66097e-07
-8.10388e-07
2.09994e-07
-6.92193e-07
2.61357e-07
-6.68761e-07
2.82803e-07
-5.07266e-07
3.72298e-07
-3.80098e-07
4.24783e-07
-5.4886e-08
3.96138e-07
3.49695e-07
3.31958e-07
3.96791e-07
2.45951e-07
3.62045e-07
1.80041e-07
4.93848e-07
1.5857e-07
5.15741e-07
1.70315e-07
4.50124e-07
8.41466e-08
5.03102e-07
-1.1148e-07
4.69483e-07
-2.08535e-07
3.06847e-07
-1.74665e-07
2.02093e-07
-1.08266e-07
2.10563e-07
-1.0414e-07
2.90145e-07
-9.31789e-08
2.62476e-07
-4.87053e-08
1.60614e-07
9.90242e-08
1.63056e-09
-5.67419e-08
8.5884e-07
-8.20466e-08
4.08762e-07
-8.33888e-08
3.24167e-08
-7.79687e-08
-1.46453e-07
-6.01855e-08
-3.57523e-07
-3.10328e-08
-5.45447e-07
1.06979e-08
-7.08527e-07
5.18525e-08
-7.58693e-07
1.07387e-07
-8.51089e-07
1.64994e-07
-8.67995e-07
2.11282e-07
-7.3848e-07
2.42938e-07
-7.00417e-07
3.16368e-07
-5.80696e-07
4.23671e-07
-4.87401e-07
4.28879e-07
-6.00939e-08
3.26539e-07
4.52034e-07
2.1057e-07
5.12761e-07
2.14879e-07
3.57736e-07
3.02496e-07
4.06231e-07
3.89048e-07
4.2919e-07
4.10888e-07
4.28283e-07
3.95733e-07
5.18257e-07
2.73298e-07
5.91918e-07
1.01183e-07
4.78962e-07
-1.52956e-08
3.18572e-07
-8.42463e-08
2.79514e-07
-9.64487e-08
3.02347e-07
-7.10215e-08
2.37049e-07
-3.45915e-08
1.24184e-07
6.46301e-08
-1.97346e-10
-5.82758e-08
9.17116e-07
-8.38727e-08
4.34359e-07
-8.48901e-08
3.34341e-08
-8.00293e-08
-1.51314e-07
-6.26582e-08
-3.74894e-07
-3.38022e-08
-5.74303e-07
8.11938e-09
-7.50449e-07
4.88782e-08
-7.99451e-07
1.06315e-07
-9.08526e-07
1.63362e-07
-9.25043e-07
2.10124e-07
-7.85242e-07
2.28693e-07
-7.18986e-07
3.45693e-07
-6.97696e-07
4.21383e-07
-5.63091e-07
3.92512e-07
-3.12234e-08
2.84457e-07
5.60089e-07
3.4085e-07
4.56368e-07
3.04838e-07
3.93748e-07
1.39442e-07
5.71627e-07
1.19756e-07
4.48875e-07
8.12445e-08
4.66795e-07
2.03481e-07
3.96021e-07
3.56971e-07
4.38428e-07
3.00122e-07
5.35811e-07
1.64941e-07
4.53753e-07
6.77677e-08
3.76687e-07
3.4174e-08
3.35941e-07
3.36986e-08
2.37525e-07
2.33608e-08
1.34521e-07
8.80281e-08
-3.72462e-11
-5.99187e-08
9.77035e-07
-8.58116e-08
4.60252e-07
-8.64447e-08
3.40672e-08
-8.22056e-08
-1.55553e-07
-6.52805e-08
-3.91819e-07
-3.6731e-08
-6.02853e-07
5.30657e-09
-7.92486e-07
4.57222e-08
-8.39867e-07
1.0519e-07
-9.67994e-07
1.61249e-07
-9.81102e-07
2.03336e-07
-8.27329e-07
2.34077e-07
-7.49727e-07
3.24873e-07
-7.88491e-07
4.06681e-07
-6.44899e-07
5.01886e-07
-1.26428e-07
4.5671e-07
6.05265e-07
4.35872e-07
4.77206e-07
3.61714e-07
4.67906e-07
1.46123e-08
9.18729e-07
-3.68461e-08
5.00334e-07
6.01368e-08
3.69812e-07
-5.01625e-08
5.06321e-07
-3.05857e-08
4.18851e-07
1.91417e-08
4.86084e-07
2.28998e-08
4.49995e-07
4.14391e-08
3.58148e-07
7.80715e-08
2.99309e-07
8.88325e-08
2.26764e-07
5.72578e-08
1.66096e-07
1.41506e-07
3.77973e-09
-6.16749e-08
1.03871e-06
-8.78649e-08
4.86442e-07
-8.80799e-08
3.42822e-08
-8.44975e-08
-1.59136e-07
-6.80546e-08
-4.08262e-07
-3.98118e-08
-6.31096e-07
2.21062e-09
-8.34509e-07
4.23715e-08
-8.80028e-07
1.03638e-07
-1.02926e-06
1.55894e-07
-1.03336e-06
1.90029e-07
-8.61464e-07
2.25432e-07
-7.8513e-07
3.13495e-07
-8.76555e-07
5.10442e-07
-8.41845e-07
2.99274e-07
8.47395e-08
5.55526e-08
8.48986e-07
-7.11706e-08
6.03929e-07
5.67204e-08
3.40015e-07
2.22222e-07
7.53227e-07
3.25791e-07
3.96764e-07
4.19253e-07
2.7635e-07
2.31685e-07
6.93889e-07
-2.213e-08
6.72666e-07
-1.04701e-07
5.68655e-07
-7.22615e-08
4.17556e-07
8.38682e-09
2.775e-07
8.2461e-08
2.25234e-07
1.0216e-07
2.07064e-07
6.69291e-08
2.01327e-07
2.0042e-07
8.01507e-09
-6.35491e-08
1.10226e-06
-9.00344e-08
5.12927e-07
-8.98081e-08
3.40559e-08
-8.69048e-08
-1.62039e-07
-7.09832e-08
-4.24184e-07
-4.30304e-08
-6.59049e-07
-5.62731e-10
-8.76976e-07
3.88138e-08
-9.19405e-07
9.93046e-08
-1.08975e-06
1.39804e-07
-1.07386e-06
1.67152e-07
-8.88812e-07
2.01793e-07
-8.19772e-07
3.58395e-07
-1.03316e-06
-5.1117e-07
2.77196e-08
-1.29392e-06
8.67493e-07
-4.76306e-07
3.13684e-08
-2.92007e-07
4.1963e-07
-7.82161e-08
1.26224e-07
1.54469e-07
5.20542e-07
2.54963e-08
5.25737e-07
2.07209e-07
9.46375e-08
4.13072e-07
4.88026e-07
3.86013e-07
6.99726e-07
1.73663e-07
7.81005e-07
6.13626e-08
5.29856e-07
2.44991e-08
3.14363e-07
3.61112e-08
2.13622e-07
6.14131e-08
1.81763e-07
4.7029e-08
2.15711e-07
2.36995e-07
1.04545e-08
-6.5547e-08
1.16781e-06
-9.23222e-08
5.39703e-07
-9.16201e-08
3.33538e-08
-8.94275e-08
-1.64232e-07
-7.40689e-08
-4.39542e-07
-4.63764e-08
-6.86741e-07
-3.20353e-09
-9.20149e-07
3.47282e-08
-9.57336e-07
8.38645e-08
-1.13889e-06
1.01375e-07
-1.09137e-06
1.48201e-07
-9.35638e-07
1.86486e-07
-8.58056e-07
-1.6334e-06
7.86728e-07
-2.67005e-06
1.06437e-06
-1.38457e-06
-4.17991e-07
-5.07265e-07
-8.45934e-07
-1.60411e-07
7.2776e-08
-3.08364e-07
2.74177e-07
-3.35652e-07
5.47829e-07
-1.97065e-07
3.8715e-07
3.99619e-08
-1.42389e-07
2.37606e-07
2.90382e-07
4.10059e-07
5.27273e-07
3.05749e-07
8.85315e-07
1.48734e-07
6.8687e-07
3.40849e-08
4.29012e-07
3.27971e-10
2.47379e-07
1.61383e-08
1.65952e-07
2.00747e-08
2.11775e-07
2.44819e-07
1.22503e-08
-6.76648e-08
1.23547e-06
-9.47292e-08
5.66767e-07
-9.35073e-08
3.21319e-08
-9.20641e-08
-1.65675e-07
-7.73144e-08
-4.54292e-07
-4.98442e-08
-7.14211e-07
-6.20912e-09
-9.63784e-07
2.78769e-08
-9.91422e-07
3.94934e-08
-1.1505e-06
3.02665e-08
-1.08214e-06
2.55718e-07
-1.16109e-06
-7.69121e-07
1.66783e-07
-3.11674e-06
3.13435e-06
-2.12771e-06
7.53426e-08
-8.54589e-07
-1.69112e-06
-1.04646e-06
-6.54064e-07
-4.5947e-07
-5.14213e-07
-4.86981e-07
3.01688e-07
-3.9752e-07
4.58368e-07
-2.03255e-07
1.92886e-07
-1.68097e-08
-3.28834e-07
1.44505e-07
1.29068e-07
2.66685e-07
4.05092e-07
3.27023e-07
8.24977e-07
2.34561e-07
7.79333e-07
1.32089e-07
5.31484e-07
6.0934e-08
3.18535e-07
2.6016e-08
2.0087e-07
1.63299e-08
2.21461e-07
2.4717e-07
1.39785e-08
-7.00174e-08
1.30549e-06
-9.72609e-08
5.94011e-07
-9.54653e-08
3.03363e-08
-9.48153e-08
-1.66325e-07
-8.07229e-08
-4.68384e-07
-5.34441e-08
-7.4149e-07
-9.76253e-09
-1.00747e-06
8.92405e-09
-1.01011e-06
-2.82754e-08
-1.1133e-06
1.1847e-07
-1.22889e-06
7.07801e-07
-1.75042e-06
-7.02907e-08
9.44876e-07
-2.21838e-06
5.28243e-06
-2.26159e-06
1.18552e-07
-1.56534e-06
-2.38736e-06
-2.41719e-06
1.97779e-07
-7.4916e-07
-2.18224e-06
-4.70703e-07
2.32306e-08
-2.83832e-07
2.71497e-07
-2.14113e-07
1.23167e-07
-1.03944e-07
-4.39003e-07
1.4831e-07
-1.23187e-07
2.34037e-07
3.19366e-07
3.21717e-07
7.37296e-07
2.74539e-07
8.26511e-07
1.76653e-07
6.2937e-07
8.07801e-08
4.14408e-07
2.68813e-08
2.54769e-07
9.8769e-09
2.38465e-07
2.45255e-07
1.17921e-08
-7.15525e-08
1.37704e-06
-9.99102e-08
6.22368e-07
-9.74812e-08
2.79072e-08
-9.76758e-08
-1.6613e-07
-8.42971e-08
-4.81763e-07
-5.7302e-08
-7.68485e-07
-1.5916e-08
-1.04885e-06
-5.15402e-08
-9.74485e-07
-1.03976e-07
-1.06087e-06
5.43665e-07
-1.87653e-06
1.84259e-06
-3.04935e-06
1.94869e-06
8.38785e-07
1.00151e-06
6.2296e-06
-2.24232e-07
1.3443e-06
-1.66316e-06
-9.48441e-07
-1.14432e-06
-3.21064e-07
-1.11375e-06
-2.2128e-06
-5.36312e-07
-5.54209e-07
-3.42264e-07
7.74491e-08
-2.9783e-07
7.87328e-08
-2.82475e-07
-4.54358e-07
-1.02361e-08
-3.95426e-07
1.67065e-07
1.42064e-07
2.16052e-07
6.88309e-07
1.92344e-07
8.50219e-07
1.1455e-07
7.07164e-07
4.16933e-08
4.87265e-07
1.74498e-09
2.94717e-07
-5.03929e-09
2.4525e-07
2.32212e-07
8.00368e-09
-8.0444e-08
1.45748e-06
-1.02658e-07
6.44582e-07
-9.95796e-08
2.48292e-08
-1.00664e-07
-1.65046e-07
-8.81039e-08
-4.94323e-07
-6.22486e-08
-7.94341e-07
-3.35277e-08
-1.07757e-06
-1.35086e-07
-8.72926e-07
4.62157e-07
-1.65811e-06
2.33782e-06
-3.75219e-06
1.37734e-06
-2.08887e-06
1.3671e-06
8.49022e-07
2.1999e-06
5.39681e-06
1.73476e-06
1.80944e-06
-1.24448e-06
2.03079e-06
-1.15564e-06
-4.09905e-07
-1.6982e-06
-1.67024e-06
-6.53449e-07
-1.59896e-06
-4.81891e-07
-9.4109e-08
-4.19953e-07
1.67946e-08
-4.06731e-07
-4.6758e-07
-1.59385e-07
-6.42771e-07
2.73639e-09
-2.00574e-08
4.16809e-08
6.49365e-07
5.36771e-08
8.38223e-07
2.14821e-08
7.39359e-07
-2.16595e-09
5.10913e-07
-1.56093e-08
3.08161e-07
-1.10434e-08
2.40684e-07
2.13891e-07
7.27816e-09
-4.79599e-08
1.50544e-06
-1.06091e-07
7.02713e-07
-1.01514e-07
2.02518e-08
-1.03711e-07
-1.62848e-07
-9.25009e-08
-5.05534e-07
-7.27222e-08
-8.14119e-07
-9.12548e-08
-1.05904e-06
-7.56391e-08
-8.88542e-07
5.99431e-07
-2.33318e-06
4.18837e-07
-3.57159e-06
8.81525e-07
-2.55156e-06
8.3193e-07
8.98619e-07
1.97526e-06
4.25348e-06
7.93162e-07
2.99153e-06
-1.0874e-06
3.91135e-06
-1.36636e-06
-1.30942e-07
-2.66858e-07
-2.76974e-06
-1.39167e-07
-1.72666e-06
-5.84462e-07
3.51186e-07
-5.35776e-07
-3.18913e-08
-5.34474e-07
-4.68882e-07
-3.63288e-07
-8.13958e-07
-1.81937e-07
-2.01408e-07
-1.01819e-07
5.69247e-07
-6.33003e-08
7.99704e-07
-4.51635e-08
7.21222e-07
-1.90315e-08
4.84781e-07
-1.97394e-08
3.08869e-07
-1.13792e-08
2.32323e-07
1.96382e-07
6.12974e-09
-1.89701e-07
1.69515e-06
-1.03787e-07
6.16799e-07
-1.05522e-07
2.19876e-08
-1.07809e-07
-1.60561e-07
-1.0041e-07
-5.12932e-07
-1.0676e-07
-8.0777e-07
-2.09796e-07
-9.56004e-07
5.15992e-07
-1.61433e-06
6.64302e-07
-2.48149e-06
4.06484e-07
-3.31377e-06
4.27072e-07
-2.57214e-06
4.1697e-07
9.08723e-07
1.54456e-06
3.12589e-06
1.09522e-06
3.44088e-06
-1.17056e-07
5.12363e-06
7.86266e-07
-1.03427e-06
7.38975e-07
-2.72245e-06
-4.64758e-07
-5.22922e-07
-6.74631e-07
5.61061e-07
-4.46812e-07
-2.59711e-07
-5.17612e-07
-3.98082e-07
-4.93552e-07
-8.38017e-07
-3.22109e-07
-3.72851e-07
-2.58196e-07
5.05333e-07
-1.82532e-07
7.24041e-07
-1.1915e-07
6.5784e-07
-4.36169e-08
4.09248e-07
-2.53478e-08
2.90599e-07
-1.92066e-08
2.26182e-07
1.74439e-07
2.73545e-09
1.56213e-07
1.53893e-06
-1.17492e-07
8.90503e-07
-9.87698e-08
3.26571e-09
-1.08457e-07
-1.50874e-07
-1.26895e-07
-4.94495e-07
-2.4607e-07
-6.88594e-07
-1.08753e-07
-1.09332e-06
7.47681e-07
-2.47076e-06
1.60441e-06
-3.33822e-06
1.59325e-06
-3.30261e-06
5.3657e-07
-1.51546e-06
2.49739e-07
1.19556e-06
1.25414e-06
2.12149e-06
1.16402e-06
3.53099e-06
9.05502e-07
5.38214e-06
7.0491e-07
-8.33677e-07
-3.28381e-07
-1.68916e-06
-9.37329e-07
8.60256e-08
-2.27527e-07
-1.48739e-07
-4.20406e-07
-6.68297e-08
-4.88135e-07
-3.30353e-07
-5.59846e-07
-7.66307e-07
-4.97603e-07
-4.35094e-07
-4.16377e-07
4.24107e-07
-2.8229e-07
5.89955e-07
-1.68696e-07
5.44245e-07
-7.10191e-08
3.11571e-07
-3.20333e-08
2.51614e-07
-2.55661e-08
2.19715e-07
9.78199e-10
1.47895e-07
-7.1788e-08
7.57705e-08
-1.31944e-07
6.0156e-08
-1.50902e-07
1.89581e-08
-1.17516e-07
-3.33862e-08
-3.69623e-08
-8.05535e-08
6.62445e-08
-1.03207e-07
2.09002e-07
-1.42758e-07
2.91956e-07
-8.29531e-08
2.1371e-07
7.8246e-08
1.14381e-07
9.93282e-08
5.44679e-08
5.99135e-08
-1.65514e-08
7.10193e-08
-6.45423e-08
4.79909e-08
-1.20497e-07
5.59546e-08
-1.79944e-07
5.94473e-08
-1.68337e-07
-1.16075e-08
-1.97155e-07
2.88178e-08
-1.81554e-07
-1.56006e-08
-1.66912e-07
-1.46418e-08
-1.43798e-07
-2.31145e-08
-1.1579e-07
-2.80078e-08
-8.50506e-08
-3.07394e-08
-5.38185e-08
-3.12321e-08
-2.35247e-08
-3.02938e-08
3.02714e-09
-2.65519e-08
2.35458e-08
-2.05186e-08
3.61119e-08
-1.25661e-08
4.02185e-08
-4.10657e-09
2.89711e-08
1.12474e-08
2.89711e-08
3.49788e-09
7.15616e-08
-1.81886e-08
8.18425e-08
-3.51133e-08
3.58828e-08
-8.4893e-09
-6.00101e-08
6.68754e-08
-1.55918e-07
1.57124e-07
-1.93456e-07
2.40221e-07
-2.25855e-07
3.00419e-07
-1.43151e-07
2.54567e-07
1.24099e-07
1.38373e-07
2.15522e-07
-3.42518e-08
2.32538e-07
-1.27682e-07
1.6445e-07
-1.56194e-07
7.65022e-08
-2.21371e-07
1.21132e-07
-2.76768e-07
1.14845e-07
-2.3845e-07
-4.99259e-08
-2.60043e-07
5.04108e-08
-2.3335e-07
-4.22939e-08
-2.00993e-07
-4.69983e-08
-1.66619e-07
-5.74882e-08
-1.2388e-07
-7.07468e-08
-8.061e-08
-7.40097e-08
-3.86664e-08
-7.31758e-08
-4.51458e-10
-6.85087e-08
3.07889e-08
-5.77923e-08
5.23985e-08
-4.21283e-08
6.2789e-08
-2.29566e-08
6.19593e-08
-3.27688e-09
4.18228e-08
3.1384e-08
7.07939e-08
2.49194e-08
4.17005e-08
3.11395e-08
7.56225e-08
4.96323e-08
1.73899e-08
9.82254e-08
-1.08603e-07
1.5407e-07
-2.11763e-07
2.08894e-07
-2.4828e-07
2.46246e-07
-2.63207e-07
2.48293e-07
-1.45198e-07
1.77268e-07
1.95123e-07
3.89378e-08
3.53852e-07
-9.45559e-08
3.66032e-07
-1.66843e-07
2.36737e-07
-1.90282e-07
9.9941e-08
-2.46899e-07
1.77748e-07
-2.91595e-07
1.59541e-07
-2.53735e-07
-8.77858e-08
-2.54407e-07
5.10827e-08
-2.34983e-07
-6.1718e-08
-1.97894e-07
-8.40872e-08
-1.62792e-07
-9.25902e-08
-1.18508e-07
-1.15031e-07
-7.39758e-08
-1.18542e-07
-3.11257e-08
-1.16026e-07
7.54501e-09
-1.07179e-07
3.86278e-08
-8.88751e-08
5.94993e-08
-6.29997e-08
6.86498e-08
-3.21072e-08
6.63205e-08
-9.47552e-10
4.4271e-08
5.34334e-08
1.15065e-07
1.31764e-08
2.80178e-08
5.80578e-08
3.07411e-08
1.04993e-07
-2.95456e-08
1.6558e-07
-1.6919e-07
2.17347e-07
-2.63529e-07
2.47544e-07
-2.78477e-07
2.28824e-07
-2.44487e-07
1.6538e-07
-8.17547e-08
7.39618e-08
2.86542e-07
-4.85649e-08
4.76379e-07
-1.50172e-07
4.67639e-07
-1.95307e-07
2.81873e-07
-2.19682e-07
1.24316e-07
-2.5068e-07
2.08746e-07
-2.95373e-07
2.04233e-07
-2.69372e-07
-1.13786e-07
-2.41836e-07
2.35465e-08
-2.38947e-07
-6.46076e-08
-1.96741e-07
-1.26293e-07
-1.62219e-07
-1.27112e-07
-1.17384e-07
-1.59865e-07
-7.24902e-08
-1.63436e-07
-2.94291e-08
-1.59087e-07
9.37188e-09
-1.4598e-07
4.0395e-08
-1.19898e-07
6.10631e-08
-8.36678e-08
6.99077e-08
-4.09517e-08
6.72974e-08
1.6627e-09
4.48665e-08
7.58644e-08
1.59931e-07
2.64055e-08
5.17665e-09
8.14698e-08
-2.43232e-08
1.46299e-07
-9.43744e-08
1.98939e-07
-2.21831e-07
2.19632e-07
-2.84222e-07
2.13914e-07
-2.72758e-07
1.62897e-07
-1.9347e-07
5.90636e-08
2.20792e-08
-3.06344e-08
3.7624e-07
-1.29e-07
5.74744e-07
-1.75045e-07
5.13684e-07
-1.90409e-07
2.97238e-07
-2.42058e-07
1.75964e-07
-2.38276e-07
2.04965e-07
-2.70574e-07
2.36531e-07
-2.80776e-07
-1.03584e-07
-2.30782e-07
-2.64477e-08
-2.42963e-07
-5.24263e-08
-1.96849e-07
-1.72407e-07
-1.62478e-07
-1.61484e-07
-1.17188e-07
-2.05155e-07
-7.20075e-08
-2.08616e-07
-2.88332e-08
-2.02261e-07
1.00872e-08
-1.84901e-07
4.10966e-08
-1.50908e-07
6.16859e-08
-1.04257e-07
7.04207e-08
-4.96866e-08
6.77778e-08
4.30558e-09
4.52177e-08
9.84245e-08
2.05149e-07
5.82105e-08
-5.26171e-08
1.05602e-07
-7.17146e-08
1.7498e-07
-1.63752e-07
1.99882e-07
-2.46733e-07
1.55524e-07
-2.39864e-07
6.78806e-08
-1.85115e-07
-1.65872e-08
-1.09002e-07
-7.72272e-08
8.27191e-08
-1.36533e-07
4.35546e-07
-2.02857e-07
6.41068e-07
-2.08966e-07
5.19793e-07
-1.90591e-07
2.78863e-07
-2.50065e-07
2.35439e-07
-2.21563e-07
1.76462e-07
-2.41976e-07
2.56945e-07
-2.87844e-07
-5.77147e-08
-2.30247e-07
-8.4045e-08
-2.45464e-07
-3.72091e-08
-1.97968e-07
-2.19904e-07
-1.62667e-07
-1.96784e-07
-1.16997e-07
-2.50825e-07
-7.15066e-08
-2.54107e-07
-2.82583e-08
-2.4551e-07
1.07728e-08
-2.23932e-07
4.17509e-08
-1.81886e-07
6.22579e-08
-1.24764e-07
7.08956e-08
-5.83243e-08
6.82639e-08
6.93727e-09
4.55965e-08
1.21092e-07
2.50746e-07
4.6333e-08
-9.93665e-08
1.08842e-07
-1.34224e-07
1.55717e-07
-2.10627e-07
1.07905e-07
-1.98921e-07
2.7834e-09
-1.34742e-07
-9.93929e-08
-8.29386e-08
-1.32474e-07
-7.5921e-08
-1.75841e-07
1.26086e-07
-2.31905e-07
4.9161e-07
-2.57132e-07
6.66295e-07
-2.32462e-07
4.95123e-07
-1.99654e-07
2.46055e-07
-2.48197e-07
2.83982e-07
-2.0895e-07
1.37215e-07
-2.48432e-07
2.96427e-07
-3.00125e-07
-6.0223e-09
-2.4384e-07
-1.40329e-07
-2.45547e-07
-3.55018e-08
-2.00362e-07
-2.65089e-07
-1.62722e-07
-2.34424e-07
-1.16754e-07
-2.96794e-07
-7.08805e-08
-2.9998e-07
-2.75701e-08
-2.8882e-07
1.15895e-08
-2.63091e-07
4.25193e-08
-2.12816e-07
6.29232e-08
-1.45168e-07
7.14455e-08
-6.68467e-08
6.88354e-08
9.54739e-09
4.60465e-08
1.43881e-07
2.96792e-07
2.69537e-08
-1.26132e-07
6.71572e-08
-1.74427e-07
3.27274e-08
-1.76198e-07
-6.84674e-08
-9.77263e-08
-1.51676e-07
-5.15334e-08
-1.92536e-07
-4.20787e-08
-2.31273e-07
-3.71841e-08
-2.8184e-07
1.76652e-07
-3.19019e-07
5.2879e-07
-2.99237e-07
6.46513e-07
-2.09971e-07
4.05856e-07
-2.02606e-07
2.3869e-07
-2.34033e-07
3.15409e-07
-2.14373e-07
1.17555e-07
-2.84269e-07
3.66323e-07
-3.03582e-07
1.32903e-08
-2.72389e-07
-1.71522e-07
-2.40806e-07
-6.70852e-08
-2.03868e-07
-3.02027e-07
-1.62669e-07
-2.75622e-07
-1.16443e-07
-3.4302e-07
-7.01136e-08
-3.46309e-07
-2.67589e-08
-3.32175e-07
1.25575e-08
-3.02408e-07
4.34235e-08
-2.43682e-07
6.37024e-08
-1.65447e-07
7.20864e-08
-7.52306e-08
6.95044e-08
1.21293e-08
4.65751e-08
1.6681e-07
3.43367e-07
-2.30241e-08
-1.01062e-07
-6.93344e-08
-1.28117e-07
-1.33214e-07
-1.12318e-07
-1.90105e-07
-4.08352e-08
-2.34493e-07
-7.14522e-09
-2.82947e-07
6.37492e-09
-3.55011e-07
3.48799e-08
-3.80893e-07
2.02534e-07
-3.67095e-07
5.14992e-07
-2.89636e-07
5.69055e-07
-2.23367e-07
3.39587e-07
-2.74948e-07
2.90271e-07
-2.62645e-07
3.03105e-07
-2.62842e-07
1.17753e-07
-2.92851e-07
3.96332e-07
-2.82813e-07
3.25253e-09
-2.94989e-07
-1.59346e-07
-2.35851e-07
-1.26224e-07
-2.06674e-07
-3.31204e-07
-1.62747e-07
-3.1955e-07
-1.16028e-07
-3.89739e-07
-6.91966e-08
-3.93141e-07
-2.58403e-08
-3.75531e-07
1.36808e-08
-3.41929e-07
4.44665e-08
-2.74467e-07
6.45981e-08
-1.85578e-07
7.28195e-08
-8.3452e-08
7.02732e-08
1.46756e-08
4.71844e-08
1.89899e-07
3.90552e-07
-6.30828e-08
-3.5275e-08
-1.20596e-07
-7.06036e-08
-1.37239e-07
-9.5675e-08
-1.84643e-07
6.56912e-09
-2.89408e-07
9.76192e-08
-3.43151e-07
6.01186e-08
-3.59735e-07
5.14631e-08
-3.78726e-07
2.21525e-07
-3.58479e-07
4.94745e-07
-2.79074e-07
4.8965e-07
-2.56349e-07
3.16862e-07
-3.05828e-07