/*--------------------------------*- C++ -*----------------------------------*\
| =========                 |                                                 |
| \\      /  F ield         | OpenFOAM: The Open Source CFD Toolbox           |
|  \\    /   O peration     | Version:  2.4.0                                 |
|   \\  /    A nd           | Web:      www.OpenFOAM.org                      |
|    \\/     M anipulation  |                                                 |
\*---------------------------------------------------------------------------*/
FoamFile
{
    version     2.0;
    format      ascii;
    class       volVectorField;
    location    "0.387";
    object      U;
}
// * * * * * * * * * * * * * * * * * * * * * * * * * * * * * * * * * * * * * //

dimensions      [0 1 -1 0 0 0 0];

internalField   nonuniform List<vector> 
10000
(
(2.44602e-07 -2.54528e-07 0)
(-9.08801e-07 2.47641e-07 0)
(-4.36788e-06 8.77474e-07 0)
(-9.57046e-06 1.30391e-06 0)
(-1.56041e-05 1.45016e-06 0)
(-2.18546e-05 1.41939e-06 0)
(-2.77887e-05 1.29275e-06 0)
(-3.29956e-05 1.10844e-06 0)
(-3.71944e-05 8.83833e-07 0)
(-4.02085e-05 6.3269e-07 0)
(-4.19405e-05 3.68636e-07 0)
(-4.23521e-05 1.03161e-07 0)
(-4.14497e-05 -1.56233e-07 0)
(-3.92723e-05 -4.04517e-07 0)
(-3.58821e-05 -6.39053e-07 0)
(-3.1361e-05 -8.57747e-07 0)
(-2.58091e-05 -1.05759e-06 0)
(-1.93478e-05 -1.23397e-06 0)
(-1.21251e-05 -1.38032e-06 0)
(-4.32291e-06 -1.48844e-06 0)
(3.83599e-06 -1.54834e-06 0)
(1.20837e-05 -1.5501e-06 0)
(2.01075e-05 -1.48433e-06 0)
(2.7557e-05 -1.34391e-06 0)
(3.40591e-05 -1.12575e-06 0)
(3.92427e-05 -8.32743e-07 0)
(4.27712e-05 -4.75856e-07 0)
(4.43802e-05 -7.4543e-08 0)
(4.39125e-05 3.45343e-07 0)
(4.13437e-05 7.5468e-07 0)
(3.67925e-05 1.12364e-06 0)
(3.05072e-05 1.42742e-06 0)
(2.2823e-05 1.65376e-06 0)
(1.40983e-05 1.80939e-06 0)
(4.64209e-06 1.91816e-06 0)
(-5.33067e-06 2.00621e-06 0)
(-1.56828e-05 2.082e-06 0)
(-2.6283e-05 2.13172e-06 0)
(-3.69309e-05 2.1322e-06 0)
(-4.73335e-05 2.06732e-06 0)
(-5.71358e-05 1.92956e-06 0)
(-6.59782e-05 1.71742e-06 0)
(-7.35549e-05 1.43874e-06 0)
(-7.96599e-05 1.1181e-06 0)
(-8.42073e-05 7.91072e-07 0)
(-8.72292e-05 4.90461e-07 0)
(-8.8846e-05 2.26852e-07 0)
(-8.92411e-05 2.44391e-10 0)
(-8.86354e-05 -1.88797e-07 0)
(-8.72648e-05 -3.29971e-07 0)
(-2.54857e-07 8.7814e-07 0)
(-4.89782e-06 4.90218e-06 0)
(-1.42311e-05 8.56543e-06 0)
(-2.68331e-05 1.10011e-05 0)
(-4.10855e-05 1.20214e-05 0)
(-5.55895e-05 1.18588e-05 0)
(-6.91703e-05 1.08014e-05 0)
(-8.08818e-05 9.09759e-06 0)
(-9.00309e-05 6.95089e-06 0)
(-9.61528e-05 4.52795e-06 0)
(-9.89743e-05 1.96351e-06 0)
(-9.83768e-05 -6.37156e-07 0)
(-9.43635e-05 -3.19561e-06 0)
(-8.703e-05 -5.65374e-06 0)
(-7.65434e-05 -7.96795e-06 0)
(-6.31277e-05 -1.01008e-05 0)
(-4.70601e-05 -1.2013e-05 0)
(-2.86765e-05 -1.36568e-05 0)
(-8.38325e-06 -1.49722e-05 0)
(1.33273e-05 -1.58857e-05 0)
(3.58602e-05 -1.63131e-05 0)
(5.85079e-05 -1.61664e-05 0)
(8.04545e-05 -1.53648e-05 0)
(0.000100794 -1.38497e-05 0)
(0.00011857 -1.16023e-05 0)
(0.000132841 -8.65922e-06 0)
(0.000142757 -5.12524e-06 0)
(0.000147652 -1.17597e-06 0)
(0.000147128 2.95248e-06 0)
(0.00014112 6.98984e-06 0)
(0.000129919 1.06709e-05 0)
(0.000114139 1.37842e-05 0)
(9.46176e-05 1.62174e-05 0)
(7.22655e-05 1.79881e-05 0)
(4.78941e-05 1.92311e-05 0)
(2.21012e-05 2.01192e-05 0)
(-4.70124e-06 2.07381e-05 0)
(-3.21178e-05 2.10223e-05 0)
(-5.95883e-05 2.08066e-05 0)
(-8.63329e-05 1.99439e-05 0)
(-0.000111437 1.83818e-05 0)
(-0.000133998 1.61791e-05 0)
(-0.000153267 1.34831e-05 0)
(-0.000168755 1.05001e-05 0)
(-0.000180261 7.45702e-06 0)
(-0.000187868 4.56454e-06 0)
(-0.000191878 1.98208e-06 0)
(-0.000192754 -1.99858e-07 0)
(-0.000191055 -1.94061e-06 0)
(-0.000187372 -3.24003e-06 0)
(-8.96772e-07 4.34778e-06 0)
(-8.60279e-06 1.42745e-05 0)
(-2.23465e-05 2.23264e-05 0)
(-3.9965e-05 2.73818e-05 0)
(-5.93376e-05 2.93704e-05 0)
(-7.86184e-05 2.8669e-05 0)
(-9.62702e-05 2.58019e-05 0)
(-0.000111031 2.12976e-05 0)
(-0.000121944 1.5639e-05 0)
(-0.000128351 9.24481e-06 0)
(-0.000129857 2.46182e-06 0)
(-0.000126288 -4.43345e-06 0)
(-0.000117645 -1.12277e-05 0)
(-0.000104071 -1.7759e-05 0)
(-8.5816e-05 -2.39001e-05 0)
(-6.32186e-05 -2.95404e-05 0)
(-3.67019e-05 -3.45667e-05 0)
(-6.77908e-06 -3.88478e-05 0)
(2.59292e-05 -4.22233e-05 0)
(6.06731e-05 -4.45015e-05 0)
(9.65521e-05 -4.54663e-05 0)
(0.000132503 -4.48939e-05 0)
(0.000167303 -4.25823e-05 0)
(0.000199602 -3.8389e-05 0)
(0.000227978 -3.22751e-05 0)
(0.00025103 -2.43457e-05 0)
(0.000267499 -1.48792e-05 0)
(0.000276394 -4.3335e-06 0)
(0.000277121 6.68027e-06 0)
(0.000269583 1.74611e-05 0)
(0.000254216 2.73189e-05 0)
(0.000231946 3.5701e-05 0)
(0.000204045 4.23035e-05 0)
(0.000171912 4.71512e-05 0)
(0.000136779 5.05721e-05 0)
(9.9501e-05 5.30015e-05 0)
(6.05986e-05 5.46636e-05 0)
(2.05728e-05 5.53943e-05 0)
(-1.97563e-05 5.47706e-05 0)
(-5.91718e-05 5.24172e-05 0)
(-9.62363e-05 4.82114e-05 0)
(-0.000129548 4.23308e-05 0)
(-0.000157959 3.51913e-05 0)
(-0.000180723 2.73386e-05 0)
(-0.000197542 1.93522e-05 0)
(-0.000208544 1.17493e-05 0)
(-0.000214197 4.93807e-06 0)
(-0.000215199 -8.24232e-07 0)
(-0.000212376 -5.42466e-06 0)
(-0.000206599 -8.8702e-06 0)
(-1.31507e-06 9.55783e-06 0)
(-1.10851e-05 2.6927e-05 0)
(-2.75132e-05 3.99745e-05 0)
(-4.79231e-05 4.77644e-05 0)
(-6.97703e-05 5.0433e-05 0)
(-9.09422e-05 4.85753e-05 0)
(-0.00010968 4.30044e-05 0)
(-0.000124547 3.45774e-05 0)
(-0.000134446 2.41076e-05 0)
(-0.000138617 1.23188e-05 0)
(-0.000136604 -1.75171e-07 0)
(-0.000128214 -1.2876e-05 0)
(-0.000113463 -2.53923e-05 0)
(-9.25373e-05 -3.74214e-05 0)
(-6.57564e-05 -4.87219e-05 0)
(-3.35481e-05 -5.90832e-05 0)
(3.55541e-06 -6.82902e-05 0)
(4.49089e-05 -7.60977e-05 0)
(8.97325e-05 -8.22094e-05 0)
(0.000137083 -8.62736e-05 0)
(0.000185826 -8.78953e-05 0)
(0.00023462 -8.66678e-05 0)
(0.000281921 -8.22238e-05 0)
(0.000326015 -7.43063e-05 0)
(0.000365091 -6.28475e-05 0)
(0.000397361 -4.80437e-05 0)
(0.000421204 -3.04073e-05 0)
(0.00043534 -1.07784e-05 0)
(0.000438995 9.71886e-06 0)
(0.000432036 2.97865e-05 0)
(0.00041504 4.81357e-05 0)
(0.00038924 6.37266e-05 0)
(0.000356355 7.59774e-05 0)
(0.00031828 8.49365e-05 0)
(0.000276638 9.12691e-05 0)
(0.000232365 9.58823e-05 0)
(0.000185769 9.92412e-05 0)
(0.000137137 0.000100981 0)
(8.73905e-05 0.000100192 0)
(3.82029e-05 9.60973e-05 0)
(-8.37202e-06 8.84519e-05 0)
(-5.03438e-05 7.76158e-05 0)
(-8.61233e-05 6.4414e-05 0)
(-0.000114695 4.98996e-05 0)
(-0.000135663 3.51536e-05 0)
(-0.000149195 2.11302e-05 0)
(-0.000155906 8.56492e-06 0)
(-0.000156723 -2.06121e-06 0)
(-0.000152728 -1.05342e-05 0)
(-0.000145035 -1.68774e-05 0)
(-1.44785e-06 1.56149e-05 0)
(-1.21418e-05 4.12701e-05 0)
(-2.96256e-05 5.94279e-05 0)
(-5.07994e-05 6.96485e-05 0)
(-7.28092e-05 7.24061e-05 0)
(-9.33898e-05 6.86211e-05 0)
(-0.00011067 5.94446e-05 0)
(-0.000123135 4.60907e-05 0)
(-0.000129637 2.97286e-05 0)
(-0.000129387 1.14169e-05 0)
(-0.000121926 -7.93409e-06 0)
(-0.000107075 -2.75753e-05 0)
(-8.48875e-05 -4.69128e-05 0)
(-5.55977e-05 -6.54838e-05 0)
(-1.95819e-05 -8.29178e-05 0)
(2.26684e-05 -9.88895e-05 0)
(7.05512e-05 -0.000113069 0)
(0.00012334 -0.000125075 0)
(0.000180156 -0.000134451 0)
(0.00023993 -0.000140651 0)
(0.00030137 -0.000143062 0)
(0.00036293 -0.000141049 0)
(0.000422815 -0.000134036 0)
(0.000479011 -0.000121614 0)
(0.000529373 -0.000103668 0)
(0.000571758 -8.04929e-05 0)
(0.000604211 -5.28781e-05 0)
(0.000625166 -2.21277e-05 0)
(0.000633659 1.00019e-05 0)
(0.000629502 4.1458e-05 0)
(0.000613411 7.01707e-05 0)
(0.000586953 9.44526e-05 0)
(0.000552359 0.000113334 0)
(0.000512138 0.000126925 0)
(0.000468352 0.000136501 0)
(0.000421799 0.000143855 0)
(0.00037205 0.000149895 0)
(0.000318657 0.000153827 0)
(0.000262456 0.000153791 0)
(0.000205701 0.000148288 0)
(0.000151292 0.000136869 0)
(0.000102008 0.000120169 0)
(6.00022e-05 9.95912e-05 0)
(2.65968e-05 7.69039e-05 0)
(2.28258e-06 5.38686e-05 0)
(-1.31706e-05 3.20063e-05 0)
(-2.054e-05 1.24608e-05 0)
(-2.09678e-05 -4.03593e-06 0)
(-1.57894e-05 -1.71554e-05 0)
(-6.36922e-06 -2.69326e-05 0)
(-1.42387e-06 2.19443e-05 0)
(-1.20397e-05 5.59466e-05 0)
(-2.90698e-05 7.88756e-05 0)
(-4.91683e-05 9.09338e-05 0)
(-6.93218e-05 9.3026e-05 0)
(-8.71862e-05 8.64635e-05 0)
(-0.000100852 7.2778e-05 0)
(-0.000108799 5.35679e-05 0)
(-0.000109894 3.03796e-05 0)
(-0.00010338 4.62364e-06 0)
(-8.88372e-05 -2.24774e-05 0)
(-6.61406e-05 -4.99117e-05 0)
(-3.53988e-05 -7.68747e-05 0)
(3.09896e-06 -0.00010274 0)
(4.89291e-05 -0.000127008 0)
(0.000101562 -0.000149241 0)
(0.000160366 -0.000168991 0)
(0.000224589 -0.000185735 0)
(0.000293318 -0.000198836 0)
(0.00036543 -0.000207527 0)
(0.000439545 -0.000210938 0)
(0.000513987 -0.000208159 0)
(0.000586775 -0.000198353 0)
(0.000655647 -0.000180912 0)
(0.000718156 -0.000155636 0)
(0.000771826 -0.000122911 0)
(0.000814366 -8.38312e-05 0)
(0.000843917 -4.02297e-05 0)
(0.000859291 5.39449e-06 0)
(0.000860202 5.00705e-05 0)
(0.000847486 9.07331e-05 0)
(0.000823063 0.000124852 0)
(0.000789784 0.000150879 0)
(0.000751055 0.000169003 0)
(0.000709635 0.000181566 0)
(0.00066594 0.000192087 0)
(0.000617925 0.000202344 0)
(0.000563527 0.000210651 0)
(0.000503291 0.000213254 0)
(0.000440432 0.000207368 0)
(0.000379139 0.00019225 0)
(0.000323273 0.000169001 0)
(0.000275702 0.000139886 0)
(0.000238094 0.000107641 0)
(0.000211002 7.49175e-05 0)
(0.000194089 4.3944e-05 0)
(0.000186376 1.63593e-05 0)
(0.000186477 -6.82035e-06 0)
(0.000192807 -2.51592e-05 0)
(0.000203752 -3.87247e-05 0)
(-1.31959e-06 2.80026e-05 0)
(-1.10627e-05 6.97699e-05 0)
(-2.63569e-05 9.67732e-05 0)
(-4.38118e-05 0.000109851 0)
(-6.03974e-05 0.000110395 0)
(-7.37636e-05 0.000100152 0)
(-8.20242e-05 8.10664e-05 0)
(-8.37068e-05 5.5142e-05 0)
(-7.77442e-05 2.43174e-05 0)
(-6.34544e-05 -9.63352e-06 0)
(-4.05024e-05 -4.5169e-05 0)
(-8.84569e-06 -8.1013e-05 0)
(3.13291e-05 -0.000116155 0)
(7.96698e-05 -0.000149817 0)
(0.000135712 -0.000181387 0)
(0.000198912 -0.000210332 0)
(0.000268653 -0.000236101 0)
(0.000344213 -0.000258034 0)
(0.000424715 -0.000275301 0)
(0.000509053 -0.000286891 0)
(0.000595834 -0.000291636 0)
(0.000683324 -0.000288301 0)
(0.000769413 -0.000275721 0)
(0.000851635 -0.000253023 0)
(0.000927263 -0.000219872 0)
(0.000993493 -0.000176721 0)
(0.0010477 -0.000124977 0)
(0.00108771 -6.70536e-05 0)
(0.00111206 -6.27734e-06 0)
(0.00112029 5.32934e-05 0)
(0.00111329 0.000107329 0)
(0.00109331 0.000152219 0)
(0.0010639 0.000185463 0)
(0.00102989 0.000207173 0)
(0.00099548 0.000221473 0)
(0.00096052 0.000235279 0)
(0.000919812 0.000252147 0)
(0.000868107 0.000268575 0)
(0.000805516 0.000277036 0)
(0.0007371 0.000272555 0)
(0.000669118 0.000254107 0)
(0.000606912 0.000223666 0)
(0.000554157 0.000184817 0)
(0.000512824 0.000141625 0)
(0.000483453 9.78661e-05 0)
(0.000465514 5.66091e-05 0)
(0.000457765 2.00534e-05 0)
(0.000458543 -1.04745e-05 0)
(0.000465996 -3.44358e-05 0)
(0.000478264 -5.19624e-05 0)
(-1.15837e-06 3.33781e-05 0)
(-9.4403e-06 8.17826e-05 0)
(-2.1994e-05 0.000111836 0)
(-3.55555e-05 0.000124927 0)
(-4.71949e-05 0.000122945 0)
(-5.46303e-05 0.000108085 0)
(-5.60516e-05 8.27265e-05 0)
(-5.00784e-05 4.92954e-05 0)
(-3.57485e-05 1.0134e-05 0)
(-1.24944e-05 -3.26137e-05 0)
(1.99009e-05 -7.70849e-05 0)
(6.13651e-05 -0.000121745 0)
(0.00011161 -0.000165394 0)
(0.000170206 -0.000207126 0)
(0.000236652 -0.000246251 0)
(0.000310413 -0.00028218 0)
(0.000390927 -0.000314289 0)
(0.000477569 -0.000341796 0)
(0.000569565 -0.000363679 0)
(0.000665903 -0.000378655 0)
(0.000765253 -0.000385223 0)
(0.000865891 -0.000381759 0)
(0.000965635 -0.00036669 0)
(0.00106185 -0.000338789 0)
(0.00115153 -0.000297522 0)
(0.00123156 -0.000243368 0)
(0.00129897 -0.000178055 0)
(0.00135129 -0.0001046 0)
(0.00138673 -2.71881e-05 0)
(0.00140449 4.8889e-05 0)
(0.00140544 0.000117693 0)
(0.00139192 0.000174314 0)
(0.0013681 0.00021454 0)
(0.00134113 0.000237703 0)
(0.00131839 0.00025067 0)
(0.00129927 0.000267146 0)
(0.00127265 0.000294409 0)
(0.00122721 0.000325226 0)
(0.00116273 0.000344544 0)
(0.0010881 0.00034394 0)
(0.0010129 0.000322536 0)
(0.000944328 0.000284014 0)
(0.000886782 0.000234003 0)
(0.000842336 0.000178362 0)
(0.00081132 0.000122233 0)
(0.000792893 6.96193e-05 0)
(0.000785488 2.33048e-05 0)
(0.00078714 -1.50738e-05 0)
(0.000795721 -4.48957e-05 0)
(0.000809137 -6.63814e-05 0)
(-9.51505e-07 3.77885e-05 0)
(-7.36385e-06 9.12817e-05 0)
(-1.64502e-05 0.000123079 0)
(-2.51927e-05 0.000135018 0)
(-3.08505e-05 0.000129446 0)
(-3.12721e-05 0.000109007 0)
(-2.47685e-05 7.65215e-05 0)
(-1.00863e-05 3.48476e-05 0)
(1.35996e-05 -1.32597e-05 0)
(4.67112e-05 -6.52799e-05 0)
(8.93151e-05 -0.000119029 0)
(0.000141192 -0.000172725 0)
(0.000201923 -0.000224999 0)
(0.000270983 -0.000274859 0)
(0.000347823 -0.000321589 0)
(0.000431936 -0.000364599 0)
(0.000522862 -0.000403248 0)
(0.000620133 -0.000436667 0)
(0.000723163 -0.000463639 0)
(0.000831107 -0.000482588 0)
(0.000942772 -0.00049164 0)
(0.00105652 -0.000488709 0)
(0.00117014 -0.000471711 0)
(0.00128085 -0.000438955 0)
(0.00138537 -0.00038962 0)
(0.00148024 -0.000324184 0)
(0.0015622 -0.000244717 0)
(0.00162857 -0.000154842 0)
(0.00167722 -5.95105e-05 0)
(0.00170672 3.46933e-05 0)
(0.00171787 0.000119771 0)
(0.00171257 0.000189576 0)
(0.00169476 0.00023673 0)
(0.00167516 0.000257671 0)
(0.00166833 0.000262816 0)
(0.00167424 0.000279719 0)
(0.00167053 0.000323506 0)
(0.0016344 0.000379223 0)
(0.00156635 0.000416648 0)
(0.00148329 0.000422611 0)
(0.00139988 0.000398002 0)
(0.00132515 0.000349845 0)
(0.00126373 0.000286825 0)
(0.0012173 0.000217088 0)
(0.00118566 0.000147309 0)
(0.00116753 8.24344e-05 0)
(0.00116098 2.57816e-05 0)
(0.00116377 -2.07456e-05 0)
(0.00117352 -5.64716e-05 0)
(0.00118792 -8.17412e-05 0)
(-7.14935e-07 4.10545e-05 0)
(-5.00216e-06 9.77945e-05 0)
(-1.01477e-05 0.000129817 0)
(-1.34521e-05 0.000139304 0)
(-1.24248e-05 0.00012901 0)
(-5.08874e-06 0.000102006 0)
(1.00933e-05 6.15494e-05 0)
(3.42216e-05 1.09358e-05 0)
(6.7961e-05 -4.66582e-05 0)
(0.000111563 -0.000108328 0)
(0.000164913 -0.000171569 0)
(0.000227611 -0.000234357 0)
(0.000299072 -0.000295185 0)
(0.000378639 -0.00035302 0)
(0.000465701 -0.000407193 0)
(0.00055978 -0.000457201 0)
(0.000660558 -0.000502469 0)
(0.000767807 -0.000542091 0)
(0.00088121 -0.000574659 0)
(0.00100017 -0.000598277 0)
(0.00112372 -0.000610651 0)
(0.00125036 -0.00060916 0)
(0.00137792 -0.000591065 0)
(0.00150343 -0.000554062 0)
(0.00162329 -0.00049696 0)
(0.00173367 -0.000420229 0)
(0.0018311 -0.000326386 0)
(0.00191297 -0.000219683 0)
(0.00197694 -0.000105458 0)
(0.0020205 8.51897e-06 0)
(0.00204447 0.000111476 0)
(0.00204942 0.000197337 0)
(0.00203636 0.000252694 0)
(0.00202057 0.000266064 0)
(0.00203245 0.000250675 0)
(0.002076 0.000262313 0)
(0.00210721 0.00033272 0)
(0.00208168 0.00043123 0)
(0.00200448 0.000496485 0)
(0.00190913 0.000510611 0)
(0.001817 0.00048077 0)
(0.00173764 0.000420224 0)
(0.00167458 0.000341867 0)
(0.00162829 0.000256409 0)
(0.00159771 0.000171976 0)
(0.00158099 9.42793e-05 0)
(0.00157595 2.70338e-05 0)
(0.00158018 -2.76609e-05 0)
(0.00159113 -6.91044e-05 0)
(0.00160634 -9.78007e-05 0)
(-4.66076e-07 4.3076e-05 0)
(-2.50242e-06 0.000101045 0)
(-3.45784e-06 0.000131638 0)
(-9.86265e-07 0.00013728 0)
(7.11948e-06 0.000121077 0)
(2.26399e-05 8.64958e-05 0)
(4.69441e-05 3.72205e-05 0)
(8.09674e-05 -2.30133e-05 0)
(0.000125201 -9.0598e-05 0)
(0.000179707 -0.000162233 0)
(0.000244167 -0.000235082 0)
(0.000317963 -0.000306887 0)
(0.000400295 -0.000376024 0)
(0.000490327 -0.000441476 0)
(0.000587343 -0.000502708 0)
(0.00069088 -0.000559426 0)
(0.000800792 -0.000611247 0)
(0.000917178 -0.000657313 0)
(0.0010401 -0.000696022 0)
(0.00116931 -0.000725112 0)
(0.00130412 -0.000741839 0)
(0.00144329 -0.000742948 0)
(0.00158471 -0.000724836 0)
(0.00172511 -0.000684379 0)
(0.00186044 -0.000619931 0)
(0.00198638 -0.000532019 0)
(0.00209931 -0.000423956 0)
(0.0021974 -0.000300841 0)
(0.00227868 -0.000167339 0)
(0.0023388 -3.19144e-05 0)
(0.00237935 8.9726e-05 0)
(0.00239835 0.000197825 0)
(0.00238753 0.000266811 0)
(0.00236534 0.000265711 0)
(0.002395 0.000206026 0)
(0.00249382 0.000199498 0)
(0.00257631 0.000313807 0)
(0.00255813 0.000486538 0)
(0.00245953 0.000590889 0)
(0.00234726 0.000610305 0)
(0.00224864 0.000569532 0)
(0.0021694 0.000492273 0)
(0.00210937 0.000396133 0)
(0.00206689 0.000293894 0)
(0.00203978 0.000194552 0)
(0.00202588 0.000104145 0)
(0.00202304 2.65428e-05 0)
(0.00202895 -3.59809e-05 0)
(0.00204104 -8.26867e-05 0)
(0.00205675 -0.000114262 0)
(-2.18555e-07 4.38183e-05 0)
(1.13093e-08 0.000100926 0)
(3.29805e-06 0.000128367 0)
(1.16288e-05 0.000128722 0)
(2.69223e-05 0.000105386 0)
(5.07606e-05 6.21897e-05 0)
(8.43469e-05 3.2299e-06 0)
(0.000128454 -6.73169e-05 0)
(0.000183401 -0.000145398 0)
(0.000249054 -0.000227298 0)
(0.000324872 -0.000309828 0)
(0.000409983 -0.000390485 0)
(0.000503321 -0.000467542 0)
(0.0006038 -0.000540049 0)
(0.000710523 -0.000607712 0)
(0.000822985 -0.000670602 0)
(0.00094122 -0.000728719 0)
(0.00106575 -0.000781398 0)
(0.00119716 -0.000826833 0)
(0.00133565 -0.000862319 0)
(0.00148096 -0.000884639 0)
(0.00163223 -0.000889784 0)
(0.00178735 -0.000872938 0)
(0.00194259 -0.000829841 0)
(0.00209314 -0.000758316 0)
(0.00223377 -0.000659079 0)
(0.00236067 -0.000537155 0)
(0.00247406 -0.000399536 0)
(0.00257404 -0.000247774 0)
(0.00265317 -8.87918e-05 0)
(0.00271623 4.77775e-05 0)
(0.00275882 0.000189556 0)
(0.00274858 0.00029121 0)
(0.00269879 0.000268598 0)
(0.00273779 0.000120218 0)
(0.00291634 6.70742e-05 0)
(0.00307022 0.000257931 0)
(0.00304464 0.000561883 0)
(0.00290289 0.000712092 0)
(0.00277294 0.000721299 0)
(0.0026779 0.000658261 0)
(0.00260948 0.000559307 0)
(0.00256058 0.000444194 0)
(0.0025271 0.000325823 0)
(0.00250637 0.000212855 0)
(0.00249658 0.00011095 0)
(0.00249634 2.38892e-05 0)
(0.00250393 -4.57345e-05 0)
(0.00251688 -9.69632e-05 0)
(0.00253259 -0.000130677 0)
(1.796e-08 4.33023e-05 0)
(2.43502e-06 9.74751e-05 0)
(9.8414e-06 0.000120046 0)
(2.38853e-05 0.000113661 0)
(4.62161e-05 8.19521e-05 0)
(7.82362e-05 2.90786e-05 0)
(0.000121002 -4.04677e-05 0)
(0.000175145 -0.000122066 0)
(0.000240828 -0.000211201 0)
(0.000317737 -0.00030371 0)
(0.000405099 -0.000396015 0)
(0.000501768 -0.000485336 0)
(0.000606352 -0.000569831 0)
(0.000717428 -0.000648653 0)
(0.0008338 -0.000721849 0)
(0.000954803 -0.000790049 0)
(0.00108058 -0.000853921 0)
(0.00121215 -0.000913247 0)
(0.0013508 -0.000966015 0)
(0.00149738 -0.00100896 0)
(0.00165228 -0.0010384 0)
(0.00181523 -0.00104938 0)
(0.00198409 -0.00103527 0)
(0.00215424 -0.000990184 0)
(0.0023197 -0.00091129 0)
(0.00247335 -0.000799449 0)
(0.00261016 -0.000663295 0)
(0.0027344 -0.000515197 0)
(0.00285261 -0.000350228 0)
(0.00295284 -0.000163973 0)
(0.00304302 -2.52854e-05 0)
(0.00313589 0.000148516 0)
(0.00314132 0.000351235 0)
(0.00301381 0.000322731 0)
(0.0030421 -4.21232e-05 0)
(0.00334487 -0.000181687 0)
(0.00357585 0.000171824 0)
(0.00349629 0.00070234 0)
(0.0032847 0.000871973 0)
(0.00315608 0.000829134 0)
(0.00309214 0.000730253 0)
(0.0030536 0.000608785 0)
(0.00302669 0.000478016 0)
(0.00300765 0.000347755 0)
(0.00299535 0.000224901 0)
(0.00298983 0.00011412 0)
(0.00299169 1.90981e-05 0)
(0.00300043 -5.66311e-05 0)
(0.00301364 -0.000111396 0)
(0.00302849 -0.000146316 0)
(2.35619e-07 4.15981e-05 0)
(4.67884e-06 9.08627e-05 0)
(1.5927e-05 0.000106904 0)
(3.53302e-05 9.23616e-05 0)
(6.43091e-05 5.10461e-05 0)
(0.000104122 -1.25905e-05 0)
(0.000155715 -9.36765e-05 0)
(0.000219618 -0.000187145 0)
(0.000295878 -0.000287995 0)
(0.00038403 -0.000391576 0)
(0.000483099 -0.000493866 0)
(0.000591654 -0.000591741 0)
(0.000707944 -0.000683196 0)
(0.000830109 -0.000767476 0)
(0.000956505 -0.000845046 0)
(0.00108609 -0.00091728 0)
(0.0012189 -0.000985897 0)
(0.00135639 -0.00105157 0)
(0.00150072 -0.00111218 0)
(0.00165375 -0.00116385 0)
(0.00181703 -0.00120245 0)
(0.00199138 -0.00122172 0)
(0.00217453 -0.00121212 0)
(0.00236034 -0.00116543 0)
(0.00254124 -0.00107796 0)
(0.0027062 -0.000949551 0)
(0.00284591 -0.000795658 0)
(0.00296964 -0.000641941 0)
(0.00309959 -0.000479119 0)
(0.00323078 -0.00027041 0)
(0.00334792 -0.000130962 0)
(0.00349678 2.19675e-05 0)
(0.00361677 0.000387157 0)
(0.00344321 0.000556313 0)
(0.00337082 -0.000282081 0)
(0.00372718 -0.000548993 0)
(0.00396643 0.000100554 0)
(0.0037745 0.000978958 0)
(0.00352421 0.00103212 0)
(0.00348478 0.000882798 0)
(0.00350224 0.000754551 0)
(0.00351408 0.000624019 0)
(0.00351677 0.000489657 0)
(0.00351398 0.000356925 0)
(0.00350885 0.000230729 0)
(0.00350498 0.000114819 0)
(0.00350655 1.32708e-05 0)
(0.00351512 -6.78447e-05 0)
(0.00352768 -0.000125056 0)
(0.00354041 -0.000159995 0)
(4.26913e-07 3.88184e-05 0)
(6.66192e-06 8.1373e-05 0)
(2.1334e-05 8.93452e-05 0)
(4.55528e-05 6.53012e-05 0)
(8.05662e-05 1.31755e-05 0)
(0.000127538 -6.23238e-05 0)
(0.000187359 -0.000155964 0)
(0.000260509 -0.000262233 0)
(0.000346985 -0.00037562 0)
(0.000446233 -0.00049094 0)
(0.000557131 -0.000603651 0)
(0.000678009 -0.000710193 0)
(0.000806752 -0.000808295 0)
(0.000941002 -0.000897214 0)
(0.00107849 -0.000977812 0)
(0.00121749 -0.00105233 0)
(0.00135753 -0.00112395 0)
(0.00150014 -0.00119493 0)
(0.00164829 -0.00126343 0)
(0.00180537 -0.00132527 0)
(0.00197513 -0.00137602 0)
(0.00216051 -0.00140723 0)
(0.00235918 -0.00140458 0)
(0.00256243 -0.00135654 0)
(0.00276112 -0.00125861 0)
(0.0029376 -0.00110491 0)
(0.00307219 -0.000922292 0)
(0.00317589 -0.00075997 0)
(0.00328644 -0.000618093 0)
(0.00343039 -0.000422034 0)
(0.00356031 -0.000254409 0)
(0.00366985 -0.000162888 0)
(0.00390073 0.000155239 0)
(0.00402199 0.000825518 0)
(0.00392946 -0.000379794 0)
(0.00397279 -0.000801984 0)
(0.00397338 0.000145883 0)
(0.00371342 0.00137006 0)
(0.00367181 0.000980426 0)
(0.00387112 0.000810511 0)
(0.00397308 0.000709241 0)
(0.00402357 0.000599583 0)
(0.00404765 0.000480022 0)
(0.00405457 0.00035668 0)
(0.00405031 0.000234639 0)
(0.00404188 0.000117153 0)
(0.00403871 9.00649e-06 0)
(0.00404534 -7.80711e-05 0)
(0.00405648 -0.00013671 0)
(0.00406561 -0.000169999 0)
(5.8449e-07 3.51149e-05 0)
(8.31004e-06 6.93953e-05 0)
(2.58608e-05 6.79333e-05 0)
(5.41759e-05 3.3158e-05 0)
(9.43969e-05 -3.09216e-05 0)
(0.000147654 -0.00011938 0)
(0.00021484 -0.000226649 0)
(0.000296461 -0.000346775 0)
(0.000392538 -0.000473727 0)
(0.000502526 -0.000601736 0)
(0.000625256 -0.000725662 0)
(0.000758918 -0.000841389 0)
(0.000901109 -0.000946224 0)
(0.00104897 -0.00103925 0)
(0.00119949 -0.00112158 0)
(0.00134995 -0.00119625 0)
(0.00149877 -0.00126821 0)
(0.00164676 -0.0013421 0)
(0.00179715 -0.00141729 0)
(0.00195505 -0.00149045 0)
(0.00212776 -0.00155755 0)
(0.00232262 -0.00160661 0)
(0.00253824 -0.00161477 0)
(0.00276158 -0.00156582 0)
(0.00298284 -0.00145686 0)
(0.00317466 -0.00126343 0)
(0.00330072 -0.00103134 0)
(0.00337799 -0.000844769 0)
(0.00344423 -0.00071344 0)
(0.00352032 -0.000539908 0)
(0.00357777 -0.000315672 0)
(0.00350584 -0.000147453 0)
(0.00334991 2.71394e-05 0)
(0.00379146 0.00036597 0)
(0.00410149 -0.000226784 0)
(0.00387157 -0.000806113 0)
(0.00365516 0.00039796 0)
(0.00393104 0.00110952 0)
(0.00443016 0.000814269 0)
(0.0044848 0.000722075 0)
(0.00452929 0.00065079 0)
(0.00457968 0.000561479 0)
(0.00461533 0.000461951 0)
(0.0046269 0.000355091 0)
(0.00461774 0.000243789 0)
(0.00459716 0.000127511 0)
(0.00458374 9.58927e-06 0)
(0.0045878 -8.65219e-05 0)
(0.00459819 -0.000145405 0)
(0.00460243 -0.000174263 0)
(7.01446e-07 3.06747e-05 0)
(9.55573e-06 5.54141e-05 0)
(2.93251e-05 4.33763e-05 0)
(6.08559e-05 -3.20077e-06 0)
(0.000105255 -8.02819e-05 0)
(0.000163682 -0.000182764 0)
(0.000237095 -0.000304773 0)
(0.000326098 -0.000439932 0)
(0.000430827 -0.00058169 0)
(0.000550859 -0.000723672 0)
(0.000685121 -0.000860069 0)
(0.000831826 -0.000986088 0)
(0.000988449 -0.00109842 0)
(0.00115178 -0.00119569 0)
(0.00131808 -0.00127894 0)
(0.00148347 -0.00135167 0)
(0.00164462 -0.00142047 0)
(0.0018004 -0.00149302 0)
(0.00195304 -0.00157136 0)
(0.00210849 -0.0016551 0)
(0.00227795 -0.00174302 0)
(0.00247721 -0.00181937 0)
(0.00270949 -0.00184538 0)
(0.00295498 -0.00179605 0)
(0.00320497 -0.00168117 0)
(0.00341876 -0.00142825 0)
(0.00353317 -0.00111621 0)
(0.00359682 -0.000907862 0)
(0.00365777 -0.000763883 0)
(0.00370745 -0.000589627 0)
(0.00375166 -0.000328445 0)
(0.00377566 -4.14553e-05 0)
(0.00380277 0.000119794 0)
(0.00397486 -0.000196499 0)
(0.00386663 0.000143551 0)
(0.00362919 -0.000870774 0)
(0.00380385 0.000367257 0)
(0.00418083 0.000470092 0)
(0.00455269 0.000615258 0)
(0.00480616 0.000605923 0)
(0.00498527 0.000556356 0)
(0.00511694 0.000492194 0)
(0.00519659 0.000426027 0)
(0.00522421 0.000350903 0)
(0.00520898 0.00026354 0)
(0.00516634 0.000153792 0)
(0.00513515 1.79578e-05 0)
(0.00513864 -9.46122e-05 0)
(0.00515181 -0.000151372 0)
(0.00515016 -0.000170587 0)
(7.71624e-07 2.57175e-05 0)
(1.03407e-05 3.99986e-05 0)
(3.15699e-05 1.65138e-05 0)
(6.52951e-05 -4.27337e-05 0)
(0.00011266 -0.000133724 0)
(0.000174907 -0.000251216 0)
(0.00025312 -0.000389063 0)
(0.000348061 -0.000540504 0)
(0.000460064 -0.000698486 0)
(0.000588938 -0.000856034 0)
(0.000733856 -0.00100665 0)
(0.000893263 -0.00114476 0)
(0.00106479 -0.00126628 0)
(0.00124515 -0.00136904 0)
(0.00143023 -0.00145355 0)
(0.00161506 -0.0015231 0)
(0.00179426 -0.00158512 0)
(0.00196356 -0.00165028 0)
(0.00212217 -0.00172494 0)
(0.00227411 -0.0018137 0)
(0.00243158 -0.00192333 0)
(0.00262342 -0.00204086 0)
(0.00286617 -0.00209699 0)
(0.0031323 -0.00204739 0)
(0.00341289 -0.00193985 0)
(0.00365655 -0.00161231 0)
(0.00375141 -0.00115632 0)
(0.00380828 -0.000993629 0)
(0.00390831 -0.00083261 0)
(0.00397594 -0.000642207 0)
(0.00405299 -0.000406625 0)
(0.00421092 -0.000171864 0)
(0.00449445 -8.10861e-05 0)
(0.00474181 -0.000266285 0)
(0.00486357 0.000368561 0)
(0.00435929 -0.000340411 0)
(0.00388687 0.000129337 0)
(0.0042202 6.37463e-05 0)
(0.00470568 0.000201082 0)
(0.00513178 0.000294331 0)
(0.0054581 0.000330018 0)
(0.00568925 0.000342055 0)
(0.00581937 0.00035442 0)
(0.00585784 0.000344434 0)
(0.00582624 0.000303853 0)
(0.00574337 0.000209345 0)
(0.0056832 3.59904e-05 0)
(0.00569378 -0.000108808 0)
(0.00571823 -0.000156939 0)
(0.00570912 -0.000156159 0)
(7.90076e-07 2.04898e-05 0)
(1.06206e-05 2.37874e-05 0)
(3.24764e-05 -1.17059e-05 0)
(6.72647e-05 -8.42487e-05 0)
(0.00011623 -0.000189867 0)
(0.000180745 -0.000323217 0)
(0.000262055 -0.000477919 0)
(0.000361123 -0.000646864 0)
(0.000478531 -0.000822551 0)
(0.000614389 -0.000997444 0)
(0.000768241 -0.00116438 0)
(0.000938953 -0.00131704 0)
(0.00112459 -0.00145039 0)
(0.00132225 -0.0015613 0)
(0.00152793 -0.00164922 0)
(0.00173631 -0.00171637 0)
(0.00194055 -0.00176962 0)
(0.00213284 -0.00182116 0)
(0.00230715 -0.00188213 0)
(0.00246114 -0.00196239 0)
(0.00259974 -0.00208319 0)
(0.00276536 -0.0022603 0)
(0.00300215 -0.00236622 0)
(0.00329597 -0.00233203 0)
(0.00361071 -0.00222291 0)
(0.00380774 -0.00175748 0)
(0.003892 -0.00119416 0)
(0.00402279 -0.00114024 0)
(0.0041457 -0.000929245 0)
(0.00421731 -0.000716944 0)
(0.00431523 -0.000535955 0)
(0.00447995 -0.000395733 0)
(0.00467793 -0.000357115 0)
(0.00476538 -0.000312576 0)
(0.00490137 0.000197886 0)
(0.00501467 0.000195447 0)
(0.00507525 2.32934e-05 0)
(0.00523394 -0.000207415 0)
(0.00543663 -0.000173149 0)
(0.00573971 -7.03599e-05 0)
(0.0060639 2.51718e-05 0)
(0.00633138 0.000138355 0)
(0.00647221 0.00027324 0)
(0.00650504 0.000349319 0)
(0.00645922 0.00037793 0)
(0.00632257 0.000313595 0)
(0.0062222 5.83526e-05 0)
(0.00625634 -0.00014675 0)
(0.00630432 -0.000165933 0)
(0.00628119 -0.000124856 0)
(7.53798e-07 1.52568e-05 0)
(1.03709e-05 7.46601e-06 0)
(3.19798e-05 -4.02589e-05 0)
(6.66355e-05 -0.000126444 0)
(0.000115739 -0.000247176 0)
(0.000180823 -0.00039703 0)
(0.000263309 -0.000569427 0)
(0.00036437 -0.000756956 0)
(0.000484842 -0.00095172 0)
(0.000625151 -0.0011457 0)
(0.000785243 -0.00133116 0)
(0.000964486 -0.00150107 0)
(0.00116155 -0.00164955 0)
(0.00137423 -0.00177241 0)
(0.00159926 -0.00186783 0)
(0.00183199 -0.00193634 0)
(0.00206567 -0.00198282 0)
(0.00229068 -0.00201808 0)
(0.0024962 -0.00205604 0)
(0.00267032 -0.00210666 0)
(0.002797 -0.00220681 0)
(0.00290747 -0.00244786 0)
(0.00310005 -0.00264014 0)
(0.00337585 -0.00262433 0)
(0.00365902 -0.00248389 0)
(0.00382981 -0.00186633 0)
(0.00410135 -0.00145591 0)
(0.00433855 -0.00125677 0)
(0.00432136 -0.000967248 0)
(0.00433654 -0.00078183 0)
(0.00443102 -0.000654768 0)
(0.00457766 -0.000561331 0)
(0.00474199 -0.000507368 0)
(0.00489015 -0.00038522 0)
(0.00513577 -0.000108321 0)
(0.00545735 -7.3925e-05 0)
(0.00572649 -0.00018278 0)
(0.00595129 -0.000341946 0)
(0.00616194 -0.000394337 0)
(0.00641192 -0.000357877 0)
(0.00669386 -0.000265238 0)
(0.00695144 -7.11235e-05 0)
(0.0070905 0.000214199 0)
(0.00716026 0.00033081 0)
(0.00716139 0.000478724 0)
(0.00696542 0.000498839 0)
(0.00679888 7.66165e-05 0)
(0.00686368 -0.000233745 0)
(0.00693173 -0.000170408 0)
(0.00686869 -5.9271e-05 0)
(6.62591e-07 1.02902e-05 0)
(9.59407e-06 -8.26398e-06 0)
(3.00852e-05 -6.80922e-05 0)
(6.34088e-05 -0.000167965 0)
(0.000111166 -0.000304026 0)
(0.000175063 -0.000470773 0)
(0.000256693 -0.000661448 0)
(0.000357414 -0.000868367 0)
(0.000478277 -0.00108329 0)
(0.000619971 -0.00129778 0)
(0.000782774 -0.00150363 0)
(0.000966475 -0.00169322 0)
(0.00117029 -0.00185997 0)
(0.00139274 -0.00199877 0)
(0.00163149 -0.00210665 0)
(0.00188309 -0.00218255 0)
(0.00214252 -0.00222908 0)
(0.00240218 -0.00225394 0)
(0.00265226 -0.00226949 0)
(0.00288143 -0.00227737 0)
(0.00304597 -0.00230456 0)
(0.00307542 -0.00252992 0)
(0.00311063 -0.00285682 0)
(0.00332556 -0.00292545 0)
(0.0037024 -0.00281468 0)
(0.00402596 -0.00208286 0)
(0.00424348 -0.00175371 0)
(0.00428403 -0.00122439 0)
(0.00420279 -0.000936191 0)
(0.00426218 -0.000852488 0)
(0.00442849 -0.000796702 0)
(0.00464482 -0.000734593 0)
(0.00487277 -0.000690254 0)
(0.0051136 -0.00059799 0)
(0.00543043 -0.000452149 0)
(0.00581384 -0.000439336 0)
(0.00617099 -0.000473884 0)
(0.00646338 -0.00057697 0)
(0.00670831 -0.000623589 0)
(0.0069484 -0.000611099 0)
(0.00721523 -0.00054034 0)