/*--------------------------------*- C++ -*----------------------------------*\
| =========                 |                                                 |
| \\      /  F ield         | OpenFOAM: The Open Source CFD Toolbox           |
|  \\    /   O peration     | Version:  2.4.0                                 |
|   \\  /    A nd           | Web:      www.OpenFOAM.org                      |
|    \\/     M anipulation  |                                                 |
\*---------------------------------------------------------------------------*/
FoamFile
{
    version     2.0;
    format      ascii;
    class       volScalarField;
    location    "0.187";
    object      p_rgh;
}
// * * * * * * * * * * * * * * * * * * * * * * * * * * * * * * * * * * * * * //

dimensions      [1 -1 -2 0 0 0 0];

internalField   nonuniform List<scalar> 
57600
(
84.2819
84.6339
86.6225
87.3455
87.8604
89.7653
93.4836
97.6139
100.529
101.833
101.855
101.042
99.739
98.2036
96.6221
95.114
93.7467
92.5524
91.5399
90.7044
90.0316
89.503
89.098
88.7962
88.5785
88.4282
88.3308
88.2743
88.2488
88.2464
84.2812
84.3761
86.8672
87.41
88.1459
90.5142
94.5348
98.4912
101.014
101.958
101.731
100.766
99.3818
97.8188
96.2447
94.7644
93.4354
92.2832
91.3127
90.5162
89.8785
89.3803
89.0011
88.7205
88.5202
88.3837
88.2971
88.249
88.2298
88.2321
84.2841
84.3437
86.8716
87.4016
88.1148
90.4688
94.5224
98.5218
101.067
102.011
101.772
100.794
99.4006
97.83
96.2489
94.7617
93.426
92.2675
91.291
90.4888
89.846
89.3437
88.9613
88.6786
88.4769
88.3396
88.2527
88.2045
88.1856
88.1882
84.2907
84.2925
86.881
87.3893
88.066
90.3959
94.4981
98.5624
101.147
102.096
101.844
100.847
99.4362
97.8511
96.2567
94.7571
93.4099
92.2409
91.2546
90.4433
89.7925
89.2836
88.8963
88.6101
88.406
88.2675
88.1802
88.1321
88.1135
88.1168
84.3013
84.2211
86.8958
87.3729
87.9996
90.2951
94.464
98.6147
101.252
102.212
101.944
100.923
99.4887
97.8826
96.2688
94.751
93.3874
92.2036
91.2035
90.3797
89.7176
89.1997
88.8054
88.5144
88.3073
88.1671
88.0791
88.0311
88.0133
88.0176
84.3149
84.127
86.9164
87.3526
87.9155
90.1644
94.4202
98.679
101.384
102.358
102.071
101.02
99.5575
97.9245
96.2852
94.7436
93.3587
92.1557
91.1379
90.2976
89.621
89.0911
88.688
88.3909
88.18
88.0378
87.949
87.9012
87.8842
87.8899
84.3309
84.0069
86.9435
87.3284
87.8137
90.0015
94.3669
98.7553
101.543
102.533
102.224
101.139
99.6423
97.9767
96.3059
94.735
93.3238
92.0973
91.0577
90.1969
89.502
88.9573
88.5431
88.2386
88.0231
87.8786
87.789
87.7414
87.7255
87.7329
84.3491
83.8563
86.978
87.3006
87.6941
89.8032
94.3055
98.8432
101.729
102.738
102.403
101.279
99.7433
98.0392
96.3311
94.7252
93.2828
92.0285
90.9628
90.0773
89.3601
88.7972
88.3697
88.0563
87.8357
87.6885
87.5981
87.5508
87.536
87.5453
84.3688
83.6694
87.0207
87.2695
87.5572
89.5655
94.24
98.9424
101.944
102.974
102.608
101.441
99.8605
98.1122
96.3607
94.714
93.2356
91.9494
90.8535
89.9386
89.1946
88.6099
88.1664
87.8427
87.6163
87.4665
87.3753
87.3283
87.3144
87.3251
84.389
83.439
87.0726
87.2354
87.4034
89.2836
94.1788
99.0521
102.189
103.242
102.841
101.624
99.9942
98.1959
96.395
94.7016
93.182
91.8601
90.7298
89.7807
89.0046
88.3937
87.9314
87.596
87.3635
87.2113
87.1198
87.0732
87.0595
87.0701
84.4074
83.1567
87.1346
87.1987
87.2336
88.951
94.14
99.1713
102.463
103.543
103.101
101.828
100.145
98.2904
96.434
94.6876
93.1221
91.7609
90.5921
89.6036
88.7891
88.1469
87.6625
87.3139
87.0753
86.9215
86.8309
86.7859
86.7734
86.7852
84.42
82.8128
87.2078
87.1597
87.0491
88.5601
94.1557
99.2979
102.769
103.878
103.387
102.054
100.312
98.396
96.4778
94.6721
93.0556
91.652
90.441
89.4077
88.5466
87.8668
87.3563
86.9934
86.7493
86.5955
86.5077
86.4666
86.4578
86.4727
84.42
82.3972
87.2928
87.1191
86.8522
88.1002
94.2703
99.4296
103.104
104.247
103.701
102.302
100.496
98.5128
96.5266
94.6545
92.9821
91.5338
90.2769
89.1922
88.276
87.55
87.0084
86.6302
86.3819
86.2306
86.1482
86.1138
86.1122
86.1312
84.3975
81.9003
87.3906
87.0773
86.6457
87.5575
94.5275
99.565
103.47
104.651
104.042
102.569
100.698
98.6406
96.5806
94.6345
92.9008
91.4063
90.1005
88.9573
87.9754
87.1913
86.6123
86.218
85.9683
85.8224
85.7481
85.7227
85.7309
85.7628
84.3367
81.3123
87.5021
87.0348
86.4338
86.9124
94.9534
99.7086
103.862
105.09
104.408
102.857
100.918
98.7793
96.64
94.6111
92.8099
91.2676
89.9129
88.706
87.6414
86.783
86.1576
85.7476
85.5014
85.3657
85.3023
85.2873
85.3058
85.347
84.2114
80.6215
87.6272
86.9924
86.2223
86.1371
95.538
99.8761
104.284
105.565
104.797
103.162
101.156
98.928
96.705
94.5828
92.7039
91.1096
89.7152
88.4382
87.2719
86.3132
85.6281
85.2049
84.972
84.855
84.807
84.8047
84.8352
84.8886
83.9808
79.8088
87.7657
86.9507
86.0187
85.1904
96.2017
100.095
104.738
106.082
105.214
103.481
101.412
99.0849
96.7762
94.5476
92.565
90.9092
89.512
88.1604
86.862
85.7629
84.9977
84.569
84.3684
84.2865
84.2626
84.2766
84.321
84.389
83.5798
78.8302
87.917
86.9106
85.8327
84.0111
96.7922
100.396
105.231
106.638
105.651
103.811
101.687
99.2465
96.8541
94.5055
92.3518
90.6693
89.3164
87.8832
86.4058
85.1047
84.23
83.8174
83.6823
83.6651
83.6781
83.7104
83.7669
83.8481
82.9069
77.6585
88.081
86.8742
85.6766
82.5169
97.0113
100.809
105.763
107.235
106.107
104.142
101.982
99.4065
96.9382
94.4651
92.0403
90.4858
89.1493
87.6183
85.9009
84.3138
83.3034
82.944
82.9372
83.0148
83.0714
83.114
83.1714
83.258
81.7818
76.2582
88.258
86.8451
85.5665
80.5862
96.0519
101.35
106.313
107.874
106.577
104.465
102.305
99.5531
97.0239
94.4477
91.6535
90.3731
89.0182
87.3777
85.3683
83.3896
82.2076
82.0004
82.187
82.3762
82.4639
82.4892
82.5204
82.5968
79.7981
74.5831
88.4498
86.8287
85.5165
78.0707
91.9622
101.987
106.861
108.559
107.055
104.763
102.671
99.6681
97.1092
94.4769
91.1749
90.2237
88.898
87.1616
84.8277
82.2386
80.6235
80.8686
81.4603
81.8014
81.8865
81.8336
81.7796
81.8124
75.619
72.6095
88.6587
86.8363
85.4102
74.8495
73.8932
102.632
107.384
109.297
107.53
105.008
103.106
99.7272
97.2481
94.5524
90.6281
89.9683
88.7396
86.9477
84.2685
80.3123
77.2421
79.2747
80.856
81.3885
81.4029
81.1465
80.8788
80.7912
65.944
70.4586
88.8859
86.8839
85.4667
70.8678
74.681
103.138
107.852
110.093
107.987
105.151
103.595
99.7077
97.5218
94.6493
90.123
89.5355
88.5441
86.7615
83.6713
77.6602
72.5346
77.3253
80.5999
81.2612
81.1114
80.4397
79.6889
79.2935
54.0921
68.8285
89.1216
86.9656
85.2831
65.6132
82.5113
103.433
108.192
110.952
108.4
105.123
103.89
99.602
97.9133
94.8187
89.7401
88.8558
88.3355
86.7568
83.2977
76.5296
71.3948
76.6587
80.5951
81.4383
81.1871
79.8133
78.0001
76.7475
50.5084
67.5925
89.3183
86.9748
84.7714
27.829
72.3463
103.766
107.998
111.886
108.742
104.849
103.371
99.4382
98.3775
95.1813
89.3863
87.91
87.9817
86.9227
83.1272
76.7788
72.9298
76.5184
79.6232
81.8167
82.1389
79.683
75.8915
71.602
66.1846
66.2736
89.3858
86.6969
43.8716
1.54174
62.3117
104.429
107.042
112.855
109.013
104.362
101.847
99.3218
99.0351
95.786
88.709
86.3538
87.246
87.5145
82.5501
49.362
1.09454
0.0973941
0.110041
0.104622
0.116121
0.107004
0.10982
0.117973
77.7138
66.7729
89.4567
78.5015
-0.448635
0.443352
80.8948
104.854
106.872
113.826
109.255
103.626
101.44
99.2947
99.9143
96.8044
87.4074
83.6053
86.4216
41.3129
0.128426
0.052127
0.0784976
0.0916262
0.101478
0.102756
0.101877
0.107856
0.108634
0.113802
87.9925
41.0763
90.1567
-0.190715
-0.407136
0.368859
81.6729
104.202
105.61
114.883
109.553
102.846
101.374
99.7516
100.931
98.4081
84.4428
62.7005
0.125526
0.11022
0.354306
0.0206109
0.0540312
0.0773155
0.0929322
0.100086
0.105045
0.109599
0.10986
0.105174
70.8304
1.35179
43.1121
0.0146282
-0.347492
0.362709
25.148
103.592
103.05
115.632
110.006
103.428
99.9998
100.724
101.812
100.308
96.0229
0.26046
0.124934
0.122736
0.827278
0.00385091
0.0274635
0.0540532
0.0797717
0.0962308
0.110847
0.118438
0.120394
0.105561
2.61931
1.54243
0.450034
0.0380684
-0.279995
0.284951
-1.93059
106.379
107.33
115.167
110.585
106.44
98.9393
100.865
103.036
100.798
0.176999
0.123523
0.10608
0.104858
0.479714
0.00145329
0.011581
0.0481724
0.0668307
0.091928
0.11224
0.131271
0.151103
0.1386
88.2611
88.2923
88.3458
88.4277
88.5458
88.7088
88.9273
89.2129
89.579
90.0398
90.6103
91.3046
92.1339
93.104
94.2082
95.4217
96.6951
97.946
99.0344
99.7409
99.7775
98.7946
96.5094
93.1718
89.845
87.7201
87.4926
89.0325
91.5292
93.8749
88.2509
88.2874
88.3477
88.4385
88.5676
88.7443
88.9796
89.2855
89.6757
90.1647
90.7672
91.4967
92.3635
93.3708
94.5081
95.7449
97.0246
98.2532
99.2713
99.8407
99.6566
98.3584
95.7379
92.2653
89.135
87.4624
87.7449
89.6314
92.2367
94.2954
88.2075
88.2446
88.3058
88.3976
88.5281
88.7066
88.9441
89.2526
89.646
90.1387
90.7452
91.4792
92.3507
93.3631
94.5063
95.7498
97.0373
98.2751
99.3032
99.8829
99.7067
98.4036
95.7506
92.2394
89.0963
87.4263
87.7194
89.617
92.2317
94.2965
88.137
88.1752
88.2377
88.3314
88.4643
88.6457
88.8868
89.1997
89.5982
90.0968
90.7098
91.4509
92.3299
93.3508
94.5046
95.7608
97.0629
98.3163
99.36
99.9551
99.7877
98.4712
95.7637
92.1942
89.0332
87.3694
87.6806
89.5956
92.2255
94.3016
88.039
88.0789
88.1436
88.24
88.3762
88.5618
88.8079
89.1269
89.5326
90.0394
90.6616
91.4125
92.302
93.3351
94.5041
95.779
97.1023
98.3768
99.441
100.055
99.8975
98.5609
95.779
92.1312
88.9462
87.2919
87.628
89.5667
92.218
94.3109
87.9131
87.9552
88.0228
88.1228
88.2635
88.4545
88.7071
89.034
89.449
89.9666
90.6008
91.3644
92.2674
93.3163
94.5052
95.8041
97.1541
98.4554
99.5449
100.182
100.035
98.6731
95.7966
92.0492
88.835
87.1934
87.5613
89.5305
92.2091
94.3241
87.7583
87.8032
87.8744
87.979
88.1254
88.3233
88.5842
88.9208
89.3474
89.8783
90.5274
91.3067
92.2262
93.2943
94.508
95.8357
97.2173
98.551
99.6711
100.335
100.202
98.8091
95.8157
91.9464
88.6988
87.0736
87.4802
89.4867
92.1986
94.3411
87.5732
87.6217
87.6974
87.8078
87.9613
88.1676
88.4386
88.787
89.2276
89.7746
90.4415
91.2396
92.1781
93.2684
94.5122
95.8737
97.2919
98.6637
99.8198
100.514
100.398
98.9701
95.8355
91.8207
88.5371
86.9319
87.3843
89.4353
92.1865
94.3617
87.3559
87.4092
87.4905
87.608
87.7704
87.987
88.2699
88.6323
89.0892
89.6553
90.3434
91.1633
92.1229
93.2379
94.5176
95.9178
97.3778
98.7937
99.9912
100.721
100.624
99.158
95.8552
91.6692
88.3491
86.768
87.2732
89.3763
92.1724
94.3861
87.1016
87.1633
87.2516
87.3782
87.5516
87.7807
88.0776
88.4561
88.932
89.5203
90.2333
91.0783
92.0605
93.201
94.5243
95.968
97.4752
98.9414
100.186
100.956
100.883
99.3748
95.8736
91.4883
88.1343
86.5814
87.1461
89.3098
92.1563
94.4145
86.8179
87.0984
86.9735
87.1151
87.3035
87.548
87.861
88.2578
88.7555
89.3696
90.1117
90.9856
91.9907
93.1543
94.5321
96.0234
97.5843
99.1072
100.404
101.219
101.174
99.6228
95.8896
91.2732
87.8919
86.3715
87.0022
89.2358
92.1378
94.4469
86.5113
86.5768
86.6728
86.8213
87.0257
87.2883
87.6192
88.0364
88.5587
89.2027
89.9791
90.8868
91.9141
93.091
94.5407
96.0831
97.7069
99.2918
100.647
101.511
101.499
99.9047
95.9016
91.0174
87.6213
86.1374
86.8404
89.1545
92.1165
94.4831
86.2542
86.2437
86.3444
86.4998
86.7179
86.9996
87.3504
87.7902
88.3405
89.019
89.8363
90.7845
91.833
92.9946
94.5477
96.1441
97.8343
99.4959
100.914
101.832
101.858
100.224
95.9085
90.7112
87.3222
85.8784
86.659
89.0662
92.0919
94.5228
85.8103
85.8799
85.9862
86.1442
86.3747
86.6779
87.0513
87.5174
88.0993
88.8175
89.6839
90.6827
91.7534
92.8273
94.5437
96.2004
97.9746
99.7207
101.208
102.181
102.254
100.583
95.909
90.341
86.9945
85.593
86.4557
88.9714
92.0637
94.5656
85.4048
85.4824
85.5849
85.7339
85.9841
86.3222
86.7206
87.2168
87.8331
88.5963
89.5223
90.5863
91.6895
92.5391
94.4966
96.2411
98.1265
99.9673
101.527
102.558
102.687
100.987
95.9024
89.887
86.6392
85.2794
86.2275
88.871
92.0323
94.6112
84.9598
85.0516
85.1502
85.0136
85.4259
85.9402
86.3678
86.8896
87.5392
88.3524
89.3511
90.5002
91.6644
92.2868
94.3034
96.2496
98.2905
100.237
101.874
102.962
103.16
101.44
95.8877
89.3243
86.2595
84.9345
85.9699
88.7661
91.9987
94.6588
84.4775
84.5956
84.7639
85.7966
85.0961
85.5698
86.0003
86.5375
87.2139
88.0804
89.1683
90.4258
91.6956
92.3912
93.8093
96.2117
98.4683
100.533
102.249
103.388
103.674
101.947
95.8623
88.6269
85.8599
84.5535
85.6768
88.6586
91.9641
94.7079
83.9539
84.0973
84.302
84.5939
84.8484
85.1814
85.6127
86.1593
86.8508
87.7715
88.9705
90.3598
91.7611
92.6355
92.9919
96.1389
98.6645
100.856
102.654
103.845
104.227
102.515
95.8116
87.777
85.4363
84.1293
85.3398
88.551
91.93
94.7577
83.3781
83.5446
83.7729
84.0627
84.397
84.7707
85.2028
85.7547
86.4382
87.4103
88.7523
90.2958
91.8099
92.6794
92.1338
96.079
98.8835
101.21
103.09
104.327
104.82
103.147
95.7011
86.8071
84.9726
83.6481
84.9471
88.4469
91.898
94.8075
82.7296
82.9301
83.2057
83.5412
83.9318
84.4827
84.7929
85.3329
85.9582
86.9702
88.5046
90.2246
91.8274
92.4813
91.7724
96.1147
99.1293
101.596
103.559
104.825
105.45
103.844
95.5004
85.801
84.4346
83.0849
84.4779
88.3511
91.8697
94.8562
81.9576
82.225
82.6067
83.0459
83.4778
84.1656
84.4338
84.9089
85.386
86.4124
88.2074
90.1309
91.7968
92.2867
92.1233
96.2502
99.404
102.018
104.063
105.331
106.118
104.601
95.2323
84.8104
83.7289
82.4061
83.8991
88.2699
91.8457
94.9018
80.9487
81.3586
81.9689
82.6021
83.1063
83.5489
84.0352
84.4689
84.5668
85.6307
87.8646
90.0098
91.6596
92.1905
92.8042
96.4426
99.7065
102.479
104.607
105.84
106.82
105.414
95.0592
84.2052
82.6109
81.5693
83.2056
88.212
91.827
94.944
79.4632
80.2117
81.3374
82.3153
82.8104
83.1085
83.6236
83.9288
82.6835
84.3085
87.5215
89.8344
91.3519
92.059
93.2315
96.6404
100.033
102.984
105.2
106.352
107.554
106.271
95.2296
87.7534
80.6664
80.5102
82.4404
88.1872
91.8325
94.9899
76.8994
78.5771
81.0237
82.5889
82.6873
82.5053
83.2455
83.4723
80.778
82.9343
87.098
89.4604
90.8441
91.7876
93.1953
96.8339
100.375
103.538
105.854
106.873
108.316
107.145
95.5641
88.1346
77.5104
79.1381
81.6961
88.2016
91.9101
95.0377
71.4209
76.0113
82.312
84.4894
82.7176
81.0465
82.8405
83.8567
80.4782
82.7829
86.8969
88.802
90.1711
91.2883
93.0424
97.0614
100.708
104.154
106.599
107.412
109.104
107.993
95.7015
85.0549
72.8983
77.9817
81.1291
88.2551
92.0291
95.0796
0.12744
0.0840563
0.0995191
6.12103
20.4066
42.7671
78.8549
85.0858
78.8539
84.1124
87.2174
87.8868
89.4559
90.5684
92.8849
97.3764
100.981
104.865
107.473
107.997
109.91
108.74
95.611
85.4502
94.4194
76.2906
80.8152
88.3147
92.1022
95.0371
0.1066
0.0990237
0.0968528
0.0987967
0.111652
0.121097
0.118194
0.112296
0.125392
22.3509
87.507
86.6269
88.8077
89.5359
92.6789
97.7951
101.099
105.687
108.521
108.706
110.674
109.217
95.9345
85.746
82.1641
0.228565
0.129475
88.3685
91.965
94.9287
0.0960717
0.091911
0.0944723
0.101664
0.110621
0.117917
0.120628
0.117525
0.110525
0.0652457
0.0534475
0.0566169
77.8591
88.1164
92.5586
98.2601
100.937
106.594
109.726
109.437
111.088
109.488
98.4449
74.8426
0.0235793
0.192227
0.123794
0.0375305
91.6541
94.7263
0.0686286
0.0684737
0.0881869
0.101197
0.11062
0.117352
0.122079
0.117458
0.099779
0.0613051
0.0462336
0.0610865
0.0707041
0.150104
91.7634
98.8038
100.207
107.373
111.023
109.906
111.125
108.793
107.132
-1.7337
-0.0265697
0.162189
0.106972
0.0437796
0.0313141
94.3358
1.31214
0.0723859
0.0875571
0.10104
0.110251
0.11621
0.117771
0.109977
0.0814944
0.0405687
0.0344707
0.0653644
0.0690908
0.119907
0.200778
99.481
99.4861
106.139
112.029
109.906
110.233
108.196
114.487
-0.0844349
-0.094485
0.12933
0.0981179
0.0545229
0.0478124
44.7433
2.40747
0.524142
0.308764
0.04449
-0.234771
0.214178
0.190741
106.414
111.774
113.221
111.128
106.787
100.343
100.413
106.832
2.27435
0.149437
0.108826
0.0933801
0.122745
0.116097
0.136969
0.00863756
0.0240474
0.0621326
0.0875334
0.104025
0.130075
0.159691
1.36826
1.26985
0.616146
0.265975
0.0466994
-0.207881
0.174716
0.130607
104.261
112.178
112.098
111.128
107.11
101.947
99.7926
102.276
0.346328
0.130785
0.100573
0.092802
0.140556
0.0699753
0.0911862
0.0594108
0.0253049
0.0629379
0.0894831
0.0966827
0.11975
0.142293
17.9696
1.45439
0.702643
0.222778
0.0484192
-0.179731
0.142974
0.118648
102.286
111.08
111.192
110.219
107.197
103.481
43.4903
-0.0495969
0.222173
0.118793
0.111355
0.0954772
0.122189
0.0787253
0.0749093
0.041117
0.0309408
0.0510419
0.170148
0.0906569
0.106115
0.10902
0.11118
1.22822
0.728807
0.188892
0.0498552
-0.150811
0.121106
0.131528
79.4224
110.238
109.707
108.868
106.9
15.045
-0.228671
-0.0643028
0.11248
0.109008
0.0930586
0.105755
0.222493
0.0808783
0.0673224
0.0440088
0.036924
0.0461653
0.490138
0.0858113
0.0966256
0.10047
0.098243
1.30047
0.769984
0.159071
0.0510729
-0.122433
0.102829
0.087655
-2.78428
108.261
108.173
106.765
68.5782
-0.111086
-0.217599
-0.0919599
0.0724439
0.126225
0.0841499
0.115975
0.292485
0.0747447
0.0619962
0.0467877
0.041644
0.048624
0.0733814
0.0834353
0.0907412
0.0952496
0.0977042
0.711015
0.802676
0.13414
0.0520438
-0.0959782
0.0863204
0.0315863
0.00466814
108.201
110.437
103.533
0.353269
-0.121712
-0.191915
-0.0989488
0.0530304
0.0822676
0.07192
0.0939019
0.26856
0.0671336
0.058718
0.0482684
0.0454967
0.0519829
0.0734293
0.0847338
0.0922261
0.0905252
0.0966546
0.841016
0.779243
0.115178
0.0527013
-0.0724154
0.0720106
0.0468986
0.00472136
88.4905
113.121
0.0411839
0.413126
-0.123996
-0.161222
-0.0876422
0.040726
0.0590996
0.0610261
0.0995862
0.29669
0.0625709
0.0549626
0.0492957
0.0472571
0.053073
0.0628354
0.0710129
0.0800209
0.0889449
0.0958898
0.901471
0.679356
0.102204
0.0529599
-0.0512354
0.057639
0.048808
-0.00996201
0.833442
20.8185
0.138936
0.255973
-0.104852
-0.121442
-0.0164242
0.00344165
0.0425182
0.0510692
0.0523088
0.0560481
0.0562917
0.0512515
0.0474189
0.0466776
0.0515165
0.0586282
0.0640479
0.0739862
0.0853371
0.0939276
0.906056
0.500283
0.09306
0.0527315
-0.0355714
0.0322709
0.0531756
-0.0427397
0.409023
-0.10278
0.160312
0.465238
-0.122511
-0.111278
-0.0183338
-0.00631876
0.0635626
0.0410219
0.0787072
0.0501059
0.0503782
0.0472187
0.0468125
0.0438801
0.0487419
0.0744839
0.0560253
0.0666443
0.0788472
0.0880865
1.71715
0.31388
0.0859831
0.0519469
-0.0221755
-0.00355079
-0.0359354
-0.109337
0.557024
-0.0770921
0.349169
0.212223
-0.131831
-0.112912
-0.012622
-0.0116439
0.0270115
0.0325739
0.0422049
0.0432459
0.0447731
0.044207
0.0415237
0.0393597
0.0406662
0.416007
0.0508062
0.0678187
0.0740363
0.0797163
13.038
-0.00786771
0.0819187
0.0505881
-0.0119895
-0.0341548
-0.0808818
-0.0808782
0.0920244
-0.0648818
0.551176
0.262925
-0.129571
-0.101682
-0.0718066
0.00236798
0.0413402
0.0233797
0.030424
0.0376384
0.0402637
0.0412382
0.0362672
0.0362876
0.0392204
0.0449196
0.0557064
0.0576562
0.0695589
0.0897192
10.7678
-0.116191
0.0790039
0.0487034
-0.00433032
-0.0446908
-0.16266
-0.358012
0.278833
-0.070541
-0.0750084
-0.0113734
-0.0966419
-0.0995957
-0.0814982
0.0070053
-0.00379809
0.0153093
0.0917449
0.0335572
0.0364674
0.358912
0.136581
0.0346223
0.0359491
0.0422154
0.0480444
0.0573575
0.0658014
0.07208
0.686059
-0.259586
0.0743877
0.0464058
0.000889298
-0.0384358
-0.210057
-0.339981
0.0395252
-0.0842352
-0.0964773
-0.0660564
-0.099085
-0.0884049
-0.0872824
-0.0417823
-0.0183707
0.0150434
0.161426
0.028286
0.0314929
0.131784
0.0356972
0.0295647
0.046608
0.0422559
0.0499813
0.0602198
0.06552
0.0739388
0.366733
-0.460256
0.0685589
0.0438493
0.0047603
-0.0169376
-0.154723
-0.195213
-0.0711835
-0.100553
-0.0653238
-0.0682801
-0.0856133
-0.0909097
-0.0391462
-0.0668952
-0.0322957
0.0349213
0.0677981
0.0220938
0.0268755
0.0272272
0.0254694
0.0281682
0.0334613
0.0420593
0.0524752
0.0596778
0.0660037
0.0709074
0.411215
-0.56968
0.0633389
0.0411786
0.0068584
0.0323225
-0.0182668
-0.297985
-0.127599
-0.114459
-0.0562853
-0.121345
-0.0822572
-0.121739
-0.115737
-0.083949
-0.0469648
-0.0021504
0.118313
0.0178508
0.0246318
0.02662
0.0275365
0.0302939
0.0355555
0.0447283
0.0528944
0.0594851
0.0668937
0.0746806
0.0555383
-0.204318
0.0596679
0.0384601
0.00697243
0.101641
-0.310064
-0.357624
-0.131345
-0.127824
-0.0624284
-0.0970688
-0.082879
-0.117622
-0.119641
-0.10208
-0.0650527
-0.0345179
-0.0237735
0.0130498
0.0201876
0.0190552
0.029609
0.0304279
0.0346985
0.0415392
0.0508028
0.0744891
0.0669282
0.0727973
0.0172028
0.0559142
0.0569832
0.0356855
0.00469744
0.20474
3.05426
0.0259119
-0.237744
-0.137832
-0.0971699
-0.0851095
0.0323474
-0.129531
-0.141534
-0.122888
-0.0821058
-0.0424094
-0.0279605
0.00292728
0.0130569
0.0166883
0.0271379
0.0233927
0.0283772
0.0337064
0.039995
0.0485014
0.0609785
0.0693629
0.0246837
0.115049
0.0541638
0.0328431
0.000111398
0.0435754
-0.71241
-0.338136
-0.26167
-0.143949
-0.103297
-0.0899223
-0.0935554
-0.143908
-0.16365
-0.1415
-0.0939927
0.0174416
0.0607374
-0.00258148
0.00689474
0.0120338
0.0150854
0.0190972
0.0187246
0.0204073
0.0226205
0.0266202
0.0279312
0.0292113
0.0085644
0.114719
0.050496
0.0299629
-0.00600895
-0.0229238
-0.501402
-0.0692526
-0.263121
-0.145639
-0.106215
-0.094419
-0.108503
-0.154052
-0.176937
-0.149326
-0.0899968
-0.058911
-0.0249209
-0.0049821
0.00468699
0.0104342
0.0145286
0.0108213
0.00803187
0.00732319
0.0036823
0.0038773
9.67863e-05
-0.00753163
-0.0416686
0.0771208
0.0459865
0.0271276
-0.012169
-0.0931242
-0.378942
0.157609
-0.242376
-0.140762
-0.105438
-0.0835673
-0.112372
-0.152234
-0.172566
-0.140867
-0.0896394
-0.0534652
-0.0170042
0.0780946
0.00616055
0.0113712
0.0109206
0.00634789
0.000932016
-0.00431378
-0.00530148
-0.0078421
-0.0111383
-0.0122781
-0.121769
-0.029248
0.0413265
0.0244844
-0.0167315
-0.203855
-0.214215
0.208217
-0.196153
-0.129542
-0.101737
0.0426642
-0.1073
-0.1353
-0.147924
-0.115724
-0.0659269
-0.0433084
-0.0209632
-0.00209003
0.010118
0.0148693
0.0137679
0.00862212
0.00188295
-0.0046091
-0.00791587
-0.0100903
-0.00967586
-0.00692788
-0.110499
-0.0927367
0.0374482
0.0222151
-0.0173642
-0.180592
-0.179672
-0.0632299
-0.118884
-0.114034
-0.091879
-0.0792588
-0.0410477
-0.106596
-0.109344
-0.0821101
-0.0514281
-0.0290957
0.0385245
0.131178
0.0128729
0.0237641
0.0302954
0.0298361
0.0139142
0.00870198
0.00620979
0.00426654
0.00609937
0.00617794
-0.0258096
-0.00807337
0.0345347
0.0204553
-0.0131989
-0.105413
2.82605
-0.0434659
-0.064463
-0.100824
-0.0790803
-0.0664181
-0.0631587
-0.0763786
-0.0681255
-0.0479862
-0.0269212
-0.00672517
0.000320019
0.0118114
0.0355567
0.032721
0.0297556
0.0290022
0.0273583
0.0261201
0.0253182
0.0257048
0.0269419
0.0342412
0.0147436
0.0334222
0.0318487
0.0191921
-0.00566387
-0.0334308
0.0406206
0.0239252
-0.0949489
-0.0331783
-0.0644105
-0.0503383
-0.0418938
-0.0422595
-0.0334303
-0.0200639
-0.00617094
0.00453727
0.0139004
0.023026
0.0291719
0.0328674
0.0352352
0.0359763
0.0359422
0.036112
0.0371207
0.0397721
0.0453362
0.145867
0.0294806
0.0482931
0.0288278
0.0182026
0.00244294
0.00526158
0.0423998
1.09123
-0.146899
-0.00943319
-0.0491607
-0.034572
-0.0243869
-0.0201435
-0.0132939
-0.002525
0.00804597
0.0172666
0.0277498
0.0380079
0.0440918
0.0389212
0.0387192
0.039796
0.039082
0.0383013
0.0380606
0.0382565
0.0385953
0.0388304
0.0288347
0.0473163
0.0253334
0.0170883
0.00871063
0.0192618
0.0326803
0.146105
-0.0916084
0.0187586
-0.03421
-0.0223
-0.0145888
-0.00451887
0.0138767
0.0100091
0.138338
0.0203848
0.0280608
0.0415464
0.041058
0.0383913
0.0383702
0.0481415
0.0346091
0.0341697
0.0336648
0.0371063
0.0397691
0.0418346
0.0215025
0.0404192
0.0210458
0.0153949
0.0119385
0.021484
0.0580602
0.108004
-0.0491732
-0.0384353
-0.0228147
-0.0149315
-0.00864147
-0.00238535
0.00554086
0.0219587
0.0149114
0.0180699
0.0218073
0.0269213
0.0254375
0.0253783
0.0347089
0.063813
0.027163
0.0265725
0.06402
0.0319358
0.0333789
0.0353427
0.00821372
0.0274841
0.015772
0.0127418
0.011947
0.019345
0.0292049
0.0421233
0.00839519
-0.00689259
-0.0158499
-0.0118067
-0.00737517
-0.00267633
0.00157346
0.00591054
0.0079936
0.010057
0.0119859
0.0133197
0.0130151
0.0120383
0.00717803
0.00385499
0.00232425
0.0044855
0.00726114
0.0113963
0.0158185
0.0193733
-0.0188961
0.00120541
0.00976975
0.00890192
0.00909714
0.0137504
0.0204374
0.024651
0.0665109
-0.00530669
-0.0123401
-0.0123317
-0.00964467
-0.00620251
-0.00301888
-0.000437022
0.00173448
0.00362636
0.00528755
0.00653269
0.00724209
0.00741074
0.00726514
0.01049
0.00860854
0.00887639
0.0107409
0.0138426
0.0159261
0.0169726
-0.00686318
-0.00810634
0.00373738
0.00380714
0.00400319
0.00569742
0.00864405
0.0107141
0.00312951
-0.00694806
-0.0152235
-0.0167477
-0.0147796
-0.0118051
-0.00899773
-0.00668946
-0.00478771
-0.00310901
-0.00153635
-3.60019e-05
0.00139228
0.00274273
0.00400404
0.00515035
0.00618472
0.00714471
0.00800928
0.00888063
0.0104084
0.0119585
0.0224688
0.0889968
0.0912743
0.0998988
0.108212
0.113376
0.112402
0.100771
0.0696479
0.0237329
0.0250271
0.0564686
0.0915641
0.135508
0.174511
0.35517
98.2025
106.167
111.978
109.423
108.878
108.539
113.281
-0.0688856
-0.106078
0.105806
0.0853348
0.0597304
0.0387494
-0.0330149
0.186932
0.0996542
0.0917491
0.0982961
0.105802
0.110475
0.107295
0.093527
0.0623595
0.017088
0.0195327
0.0531552
0.0793106
0.130579
0.215883
0.276171
57.2659
106.699
112.695
109.543
107.891
107.965
115.618
-0.0702573
-0.123692
0.0933111
0.0815206
0.0618569
0.0320674
-0.032228
0.0768451
0.0884674
0.0901781
0.095672
0.102577
0.105843
0.101414
0.0893621
0.0418395
0.0104829
0.01343
0.0493394
0.0793925
0.125325
0.173478
0.190494
0.267799
107.605
113.136
109.212
107.044
107.186
125.644
-0.0603511
-0.139774
0.0821173
0.0780418
0.0607436
0.0259503
-0.0309578
0.0894219
0.0907433
0.0895986
0.0927104
0.0989528
0.154789
0.096704
0.0824511
0.0330741
0.00414827
0.00746419
0.0447577
0.0785091
0.11652
0.274591
0.163055
0.332403
3.21074
113.375
109.729
106.287
106.538
87.1364
-0.140495
-0.159631
0.0727427
0.0748402
0.0572033
0.0198888
-0.0298675
0.0966216
0.0977084
0.0912438
0.0912317
0.0944861
0.16267
0.0912169
0.0894106
0.025512
0.00589168
0.00213024
0.039832
0.0762484
0.170266
0.19962
0.12655
0.218943
2.05587
114.19
110.445
106.18
106.523
4.01833
-0.0942071
-0.17395
0.0653928
0.0718301
0.0544033
0.0145048
-0.0283784
0.0982632
0.10006
0.0927927
0.0902781
0.0917007
0.105439
0.0869912
0.0702632
0.0201681
0.00308437
-0.00191806
0.0349264
0.0729548
0.158948
0.144683
0.0987424
0.0863468
0.828757
-0.18998
111.409
107.378
109.414
-0.0209378
-0.0628706
-0.156503
0.0598475
0.0689363
0.0512761
0.0100427
-0.0263607
0.0988044
0.0981544
0.0959107
0.0892357
0.0897755
0.089076
0.0848358
0.0999128
0.0159875
-0.00819339
-0.00208002
0.0303307
0.0694248
0.172438
0.107496
0.0810665
0.053124
0.896853
0.0868552
0.143928
-0.237397
-0.0250815
-0.0472057
-0.0316877
-0.0886554
0.0558319
0.066098
0.0482909
0.00662366
-0.0238238
0.0969921
0.0963211
0.0932128
0.0895888
0.0891577
0.0886037
0.0813757
0.512032
0.0154064
-0.00758777
0.066998
0.0265629
0.0672393
0.082565
0.100457
0.0702761
0.0399828
0.404879
0.185428
0.0488857
-0.244891
-0.112485
-0.0911552
-0.0281557
-0.0124623
0.0524125
0.0632521
0.045457
0.00398677
-0.0209078
0.0927716
0.0930992
0.090666
0.0892813
0.0900758
0.0900365
0.0865441
0.546448
0.0194142
0.00156464
0.00756458
0.0329696
0.0734719
0.0789417
0.0932081
0.0571623
0.0248383
-0.105667
2.00236
-0.100455
-0.203748
-0.130667
-0.0901931
-0.0266253
0.023769
0.0493421
0.0603343
0.0427254
0.00216987
-0.0178366
0.090364
0.0889439
0.0889227
0.0894662
0.0915279
0.0930278
0.08973
0.0647436
0.0348416
0.0196163
0.0206348
0.0420558
0.0715233
0.0741151
0.0875065
0.0480254
0.0216063
-0.0693692
0.212356
-0.076114
-0.20981
-0.0809108
-0.0578805
-0.0147419
0.0149616
0.0461414
0.0572996
0.0400403
0.00119621
-0.0148785
0.0835607
0.0847087
0.0861787
0.0880522
0.0915632
0.0979197
0.0964945
0.075757
0.055962
0.049881
0.0371502
0.0500852
0.0654263
0.0925505
0.0784886
0.121368
0.0247636
-0.067882
0.103516
-0.136394
-0.117042
-0.13625
-0.0788768
-0.0449345
-0.0305782
0.0415203
0.0541214
0.0373789
0.000952505
-0.0122606
0.0760594
0.0802043
0.0828859
0.0850929
0.0865017
0.499533
0.0915826
0.0832532
0.0710716
0.0600445
0.0544654
0.0574412
0.0635108
0.104139
0.0751953
0.0730024
0.0348417
-0.0409249
-0.00923902
-0.1852
-0.252128
-0.146405
-0.0654186
-0.0490087
-0.0338972
0.0356794
0.0507918
0.0347476
0.00119082
-0.0101296
0.075522
0.0777851
0.0804791
0.0826354
0.0837057
0.0854126
0.101927
0.109632
0.0802151
0.0730198
0.0661838
0.0622518
0.0623716
0.0636625
0.0677395
0.0546411
0.0428047
-0.00702145
-0.117359
-0.195096
-0.221777
-0.168083
-0.0567966
-0.042639
-0.093663
0.0300893
0.0473225
0.032152
0.00172591
-0.008505
0.0735032
0.0763421
0.0792426
0.0812679
0.0829533
0.0853649
0.0882697
0.0888668
0.0851864
0.0809079
0.0701887
0.0692365
0.0613875
0.0623577
0.0637575
0.0598824
0.0527621
0.032339
0.0285246
-0.258234
-0.254306
-0.180215
-0.0601401
-0.0383164
-0.19757
0.0254196
0.0437392
0.0296167
0.00237712
-0.00726798
0.126683
0.0944555
0.0797755
0.0800424
0.0803506
0.0868401
0.0851219
0.0900556
0.0833422
0.075931
0.0711857
0.0623024
0.0596506
0.0600724
0.0612624
0.0632127
0.0659066
0.0653363
-0.0287005
-0.286487
-0.341938
-0.180247
-0.0780486
-0.0326742
-0.173915
0.0219118
0.0400837
0.0271568
0.00306444
-0.00620841
0.0733913
0.0813796
0.0810228
0.0781221
0.0754829
0.0743181
0.0743792
0.0959903
0.0756413
0.0720692
0.0648596
0.0594534
0.0565924
0.057284
0.0660015
0.0648886
0.0797461
0.130498
-0.0684181
-0.28886
-0.341017
-0.147879
-0.105419
-0.0246835
-0.0971059
0.0194356
0.0364073
0.024783
0.00371953
-0.00518005
0.0846361
0.0996505
0.0882664
0.0720814
0.0668389
0.064365
0.0630594
2.40149
0.261315
0.0608575
0.0575506
0.054036
0.0519111
0.057821
0.0558811
0.0655314
0.0938372
0.137328
-0.0369451
-0.104671
-0.293245
-0.17917
-0.123762
-0.015256
-0.0310793
0.0182444
0.0327688
0.0225142
0.00431481
-0.00411262
0.0431938
0.93253
0.952603
0.0554087
0.0465234
0.0516095
0.0489019
0.0489008
0.0506758
0.050488
0.0493234
0.0469749
0.045882
0.0451965
0.0482918
0.0622432
0.0966044
0.0850765
-0.0081281
-0.236112
-0.215293
-0.131021
-0.113113
-0.00873112
-0.000903866
0.0179324
0.0292304
0.0203511
0.00484393
-0.0029996
-0.014793
-0.0193049
-0.00585985
0.0091287
0.0226619
0.0319685
0.0378202
0.0414059
0.0429275
0.0429303
0.0416436
0.0393783
0.0437389
0.0382292
0.0400907
0.0625272
0.0871439
0.0468599
0.00759755
-0.165521
-0.168432
-0.0558999
-0.0654292
-0.00485022
0.00838073
0.0178235
0.0258508
0.0183052
0.00519433
-0.00189135
-0.0121216
-0.0100457
-0.00501221
0.00274261
0.012004
0.0210663
0.0289016
0.0346046
0.036986
0.0370972
0.0353443
0.032508