/*--------------------------------*- C++ -*----------------------------------*\
| =========                 |                                                 |
| \\      /  F ield         | OpenFOAM: The Open Source CFD Toolbox           |
|  \\    /   O peration     | Version:  2.4.0                                 |
|   \\  /    A nd           | Web:      www.OpenFOAM.org                      |
|    \\/     M anipulation  |                                                 |
\*---------------------------------------------------------------------------*/
FoamFile
{
    version     2.0;
    format      ascii;
    class       surfaceScalarField;
    location    "0.187";
    object      phi;
}
// * * * * * * * * * * * * * * * * * * * * * * * * * * * * * * * * * * * * * //

dimensions      [0 3 -1 0 0 0 0];

internalField   nonuniform List<scalar> 
114720
(
1.89802e-09
-3.76924e-09
-3.62545e-09
5.49667e-09
-5.59366e-09
7.95594e-09
8.88168e-10
-3.25045e-09
-1.48441e-08
1.74321e-08
1.1386e-09
-3.72668e-09
-2.26269e-08
2.33775e-08
2.03945e-10
-9.54596e-10
-2.34457e-08
2.28739e-08
-4.23935e-10
9.95723e-10
-1.92993e-08
1.75314e-08
-9.49994e-10
2.71781e-09
-1.02621e-08
7.55594e-09
-1.17653e-09
3.88265e-09
9.46077e-10
-3.32045e-09
-7.57145e-10
3.13152e-09
8.83342e-09
-9.88118e-09
-1.18505e-10
1.16627e-09
1.12634e-08
-1.11887e-08
2.90772e-10
-3.65419e-10
9.79057e-09
-9.06078e-09
4.75013e-10
-1.2048e-09
6.21454e-09
-5.2248e-09
5.17834e-10
-1.50758e-09
2.14127e-09
-1.23281e-09
4.402e-10
-1.34867e-09
-1.27074e-09
1.93432e-09
3.05412e-10
-9.68993e-10
-3.6165e-09
4.02418e-09
1.75785e-10
-5.8346e-10
-4.96422e-09
5.16498e-09
7.22548e-11
-2.73017e-10
-5.55146e-09
5.60592e-09
-1.65823e-12
-5.27961e-11
-5.60087e-09
5.55025e-09
-5.43232e-11
1.04944e-10
-5.2665e-09
5.14445e-09
-8.97118e-11
2.11768e-10
-4.68545e-09
4.52279e-09
-1.09637e-10
2.72298e-10
-3.97786e-09
3.79964e-09
-1.17117e-10
2.95337e-10
-3.23297e-09
3.05469e-09
-1.16259e-10
2.94538e-10
-2.50236e-09
2.33162e-09
-1.11152e-10
2.81892e-10
-1.80735e-09
1.64636e-09
-1.0421e-10
2.65198e-10
-1.15304e-09
1.00178e-09
-9.68874e-11
2.48154e-10
-5.40254e-10
3.99343e-10
-8.92098e-11
2.3012e-10
2.8117e-11
-1.57684e-10
-8.12692e-11
2.10837e-10
5.47403e-10
-6.64563e-10
-7.31173e-11
1.90277e-10
1.01403e-09
-1.1182e-09
-6.50753e-11
1.69242e-10
1.4271e-09
-1.51838e-09
-5.74057e-11
1.48691e-10
-4.10403e-09
-1.14311e-08
9.61222e-09
5.92295e-09
-1.52651e-08
8.31177e-09
1.82841e-08
-1.13308e-08
-3.39991e-08
1.39783e-08
3.83883e-08
-1.83675e-08
-4.78589e-08
4.11893e-09
4.97954e-08
-6.05545e-09
-5.2964e-08
-2.81225e-09
5.30839e-08
2.69235e-09
-5.02586e-08
-1.01689e-08
4.82775e-08
1.215e-08
-3.89008e-08
-1.60807e-08
3.49386e-08
2.00429e-08
-2.13589e-08
-1.48592e-08
1.68249e-08
1.93933e-08
-4.40256e-09
-8.14911e-09
1.01468e-09
1.1537e-08
6.86438e-09
-1.82998e-09
-8.63852e-09
3.60412e-09
1.18492e-08
2.41981e-09
-1.22776e-08
-1.99149e-09
1.2285e-08
4.17315e-09
-1.19987e-08
-4.45951e-09
1.06958e-08
3.9795e-09
-1.0199e-08
-4.47627e-09
8.63804e-09
3.00404e-09
-8.13451e-09
-3.50757e-09
6.67857e-09
1.97503e-09
-6.23759e-09
-2.41602e-09
5.01049e-09
1.15021e-09
-4.64951e-09
-1.51119e-09
3.68155e-09
5.3748e-10
-3.41203e-09
-8.07e-10
2.7383e-09
6.03663e-11
-2.56491e-09
-2.33754e-10
2.16346e-09
-2.75616e-10
-2.06828e-09
1.80443e-10
1.86244e-09
-4.68216e-10
-1.81721e-09
4.22988e-10
1.72644e-09
-5.4923e-10
-1.70855e-09
5.31343e-10
1.67953e-09
-5.65774e-10
-1.67702e-09
5.63256e-10
1.68807e-09
-5.57831e-10
-1.69777e-09
5.67534e-10
1.74673e-09
-5.4636e-10
-1.76931e-09
5.68942e-10
1.85812e-09
-5.33902e-10
-1.89333e-09
5.6912e-10
2.01675e-09
-5.14262e-10
-2.06137e-09
5.58883e-10
2.20563e-09
-4.82695e-10
-2.25417e-09
5.31232e-10
2.40102e-09
-4.39152e-10
-2.44766e-09
4.85793e-10
2.58167e-09
-3.88323e-10
-2.62224e-09
4.28891e-10
2.73358e-09
-3.33928e-10
-2.76587e-09
3.66216e-10
-3.61526e-09
-1.74001e-08
1.60508e-08
4.96456e-09
-1.35384e-08
2.06906e-08
1.66648e-08
-2.38171e-08
-3.31565e-08
3.22644e-08
3.78803e-08
-3.69883e-08
-4.84572e-08
1.27346e-08
5.07998e-08
-1.50773e-08
-5.54094e-08
-1.23426e-09
5.60765e-08
5.67235e-10
-5.50765e-08
-1.6879e-08
5.37464e-08
1.82091e-08
-4.65726e-08
-3.05379e-08
4.34167e-08
3.36938e-08
-3.24143e-08
-3.18642e-08
2.86771e-08
3.56014e-08
-1.81761e-08
-2.15032e-08
1.51804e-08
2.44989e-08
-7.7314e-09
-9.62094e-09
5.84415e-09
1.15082e-08
-1.54773e-09
-6.16345e-10
5.46732e-10
1.61734e-09
1.58997e-09
3.84627e-09
-2.05657e-09
-3.37966e-09
2.96745e-09
4.77652e-09
-3.11994e-09
-4.62402e-09
3.20668e-09
4.29393e-09
-3.12757e-09
-4.37303e-09
2.66837e-09
3.38276e-09
-2.4748e-09
-3.57632e-09
1.85283e-09
2.42482e-09
-1.65837e-09
-2.61928e-09
1.15161e-09
1.50741e-09
-1.02308e-09
-1.63593e-09
7.55643e-10
6.68889e-10
-7.06732e-10
-7.178e-10
6.55249e-10
4.1191e-11
-6.64071e-10
-3.23688e-11
7.42267e-10
-3.30019e-10
-7.79301e-10
3.67053e-10
9.0905e-10
-5.02737e-10
-9.5395e-10
5.47637e-10
1.09127e-09
-5.68661e-10
-1.13572e-09
6.13114e-10
1.27065e-09
-6.02971e-10
-1.31542e-09
6.4774e-10
1.45843e-09
-6.41527e-10
-1.50836e-09
6.91457e-10
1.67413e-09
-6.82471e-10
-1.73303e-09
7.41375e-10
1.92625e-09
-7.04689e-10
-1.9931e-09
7.71531e-10
2.20356e-09
-6.91604e-10
-2.27311e-09
7.61155e-10
2.48155e-09
-6.40335e-10
-2.54706e-09
7.05847e-10
2.73416e-09
-5.62599e-10
-2.79048e-09
6.18921e-10
2.94473e-09
-4.71441e-10
-2.98913e-09
5.15833e-10
-3.57184e-09
-2.24114e-08
2.11953e-08
4.78793e-09
-1.26926e-08
3.31648e-08
1.5803e-08
-3.62753e-08
-3.25708e-08
5.12423e-08
3.73473e-08
-5.60188e-08
-4.7966e-08
2.21539e-08
5.03235e-08
-2.45114e-08
-5.50443e-08
1.56643e-09
5.577e-08
-2.29222e-09
-5.50175e-08
-2.19612e-08
5.37932e-08
2.31856e-08
-4.70005e-08
-4.27685e-08
4.4013e-08
4.5756e-08
-3.37359e-08
-4.61102e-08
3.03333e-08
4.95129e-08
-2.11609e-08
-3.25698e-08
1.86675e-08
3.50632e-08
-1.27949e-08
-1.63792e-08
1.13967e-08
1.77774e-08
-8.35463e-09
-4.24874e-09
7.65338e-09
4.94998e-09
-6.06655e-09
1.95004e-09
5.67621e-09
-1.55969e-09
-4.74917e-09
3.93607e-09
4.51962e-09
-3.70652e-09
-4.01161e-09
4.27249e-09
3.89826e-09
-4.15914e-09
-3.64827e-09
3.75613e-09
3.58004e-09
-3.6879e-09
-3.3497e-09
2.76506e-09
3.25673e-09
-2.6721e-09
-2.89938e-09
1.59883e-09
2.7577e-09
-1.45715e-09
-2.25892e-09
4.96033e-10
2.07796e-09
-3.15077e-10
-1.49495e-09
-2.97792e-10
1.29929e-09
4.93454e-10
-7.09302e-10
-7.22882e-10
5.22727e-10
9.09456e-10
1.26521e-11
-8.75453e-10
-1.74725e-10
1.03753e-09
6.2535e-10
-8.93308e-10
-7.58362e-10
1.02632e-09
1.12421e-09
-8.88882e-10
-1.23212e-09
9.96795e-10
1.53259e-09
-9.14214e-10
-1.62316e-09
1.00479e-09
1.88293e-09
-9.64233e-10
-1.96362e-09
1.04493e-09
2.19963e-09
-9.98614e-10
-2.27375e-09
1.07273e-09
2.48951e-09
-9.82875e-10
-2.55614e-09
1.04951e-09
2.74455e-09
-9.06096e-10
-2.80068e-09
9.62231e-10
2.95221e-09
-7.84952e-10
-2.99511e-09
8.27858e-10
3.10507e-09
-6.41902e-10
-3.13428e-09
6.71108e-10
-3.74078e-09
-2.7108e-08
2.59594e-08
4.88938e-09
-1.23179e-08
4.55998e-08
1.54244e-08
-4.87063e-08
-3.25925e-08
7.04411e-08
3.74363e-08
-7.52849e-08
-4.80543e-08
3.1565e-08
5.03991e-08
-3.39098e-08
-5.51408e-08
4.49864e-09
5.58899e-08
-5.24773e-09
-5.52102e-08
-2.68396e-08
5.39996e-08
2.80502e-08
-4.71309e-08
-5.47711e-08
4.40977e-08
5.78044e-08
-3.35948e-08
-5.97492e-08
3.01384e-08
6.32056e-08
-2.10106e-08
-4.23345e-08
1.86027e-08
4.47424e-08
-1.31824e-08
-2.1586e-08
1.19842e-08
2.27843e-08
-9.67737e-09
-6.59044e-09
9.24566e-09
7.02216e-09
-8.47612e-09
7.65723e-10
8.32678e-09
-6.16377e-10
-7.95389e-09
3.16105e-09
7.82567e-09
-3.03283e-09
-7.34211e-09
3.67389e-09
7.14831e-09
-3.48008e-09
-6.46031e-09
3.17433e-09
6.21065e-09
-2.92468e-09
-5.39542e-09
2.0682e-09
5.11713e-09
-1.78991e-09
-4.24455e-09
7.63158e-10
3.95435e-09
-4.72958e-10
-3.06002e-09
-4.34858e-10
2.76642e-09
7.28458e-10
-1.87781e-09
-1.24173e-09
1.59324e-09
1.5263e-09
-7.55662e-10
-1.59829e-09
4.96027e-10
1.85793e-09
2.40063e-10
-1.62704e-09
-4.61339e-10
1.84831e-09
1.07252e-09
-1.50451e-09
-1.2514e-09
1.68339e-09
1.73562e-09
-1.37431e-09
-1.87491e-09
1.5136e-09
2.24743e-09
-1.30348e-09
-2.3535e-09
1.40955e-09
2.63479e-09
-1.28628e-09
-2.71415e-09
1.36564e-09
2.9221e-09
-1.26984e-09
-2.97974e-09
1.32748e-09
3.12651e-09
-1.20628e-09
-3.16539e-09
1.24516e-09
3.25755e-09
-1.07655e-09
-3.27931e-09
1.09831e-09
3.32139e-09
-8.98976e-10
-3.32757e-09
9.05158e-10
3.3252e-09
-7.01812e-10
-3.31811e-09
6.9472e-10
-4.012e-09
-3.14935e-08
3.04323e-08
5.07321e-09
-1.19459e-08
5.80203e-08
1.50479e-08
-6.11223e-08
-3.27452e-08
8.99459e-08
3.76794e-08
-9.488e-08
-4.82995e-08
4.09241e-08
5.063e-08
-4.32546e-08
-5.54134e-08
7.55165e-09
5.62031e-08
-8.34137e-09
-5.56543e-08
-3.16457e-08
5.44709e-08
3.28291e-08
-4.75123e-08
-6.69954e-08
4.44193e-08
7.00884e-08
-3.35266e-08
-7.37668e-08
2.99366e-08
7.73567e-08
-2.05306e-08
-5.20238e-08
1.80755e-08
5.44789e-08
-1.26426e-08
-2.63045e-08
1.14798e-08
2.74673e-08
-9.39906e-09
-8.11426e-09
9.08147e-09
8.43185e-09
-8.74595e-09
4.24778e-10
8.74762e-09
-4.2645e-10
-8.76613e-09
2.78908e-09
8.72334e-09
-2.74629e-09
-8.32958e-09
2.85135e-09
8.11275e-09
-2.63451e-09
-7.25047e-09
2.03623e-09
6.92601e-09
-1.71176e-09
-5.89166e-09
8.32907e-10
5.55161e-09
-4.92855e-10
-4.53035e-09
-4.75672e-10
4.20283e-09
8.03189e-10
-3.2106e-09
-1.66805e-09
2.88709e-09
1.99156e-09
-1.90466e-09
-2.43696e-09
1.58791e-09
2.75371e-09
-6.52246e-10
-2.6919e-09
3.60583e-10
2.98356e-09
4.71703e-10
-2.56103e-09
-7.22274e-10
2.8116e-09
1.41386e-09
-2.25913e-09
-1.61577e-09
2.46104e-09
2.15908e-09
-1.95854e-09
-2.31387e-09
2.11332e-09
2.72116e-09
-1.74079e-09
-2.83449e-09
1.85412e-09
3.12576e-09
-1.60217e-09
-3.20457e-09
1.68097e-09
3.40063e-09
-1.48623e-09
-3.45154e-09
1.53713e-09
3.57114e-09
-1.33869e-09
-3.5994e-09
1.36695e-09
3.6553e-09
-1.13533e-09
-3.66415e-09
1.14418e-09
3.66377e-09
-8.92242e-10
-3.65504e-09
8.83516e-10
3.6039e-09
-6.40041e-10
-3.57969e-09
6.15831e-10
-4.37261e-09
-3.54447e-08
3.45056e-08
5.31173e-09
-1.14872e-08
7.04182e-08
1.45817e-08
-7.35127e-08
-3.29521e-08
1.09843e-07
3.79977e-08
-1.14888e-07
-4.86113e-08
5.02198e-08
5.09234e-08
-5.25319e-08
-5.57583e-08
1.07866e-08
5.66012e-08
-1.16295e-08
-5.62295e-08
-3.63244e-08
5.50848e-08
3.74691e-08
-4.80295e-08
-7.945e-08
4.48833e-08
8.25962e-08
-3.3519e-08
-8.8356e-08
2.97706e-08
9.21043e-08
-2.00264e-08
-6.19414e-08
1.7505e-08
6.44628e-08
-1.1993e-08
-3.0943e-08
1.08388e-08
3.20972e-08
-8.86977e-09
-9.28772e-09
8.61429e-09
9.5432e-09
-8.52319e-09
5.72383e-10
8.61222e-09
-6.61406e-10
-8.86222e-09
2.70457e-09
8.87285e-09
-2.71521e-09
-8.55859e-09
1.98328e-09
8.34389e-09
-1.76858e-09
-7.44719e-09
7.05211e-10
7.10642e-09
-3.64443e-10
-6.03309e-09
-5.44841e-10
5.68696e-09
8.90969e-10
-4.66732e-09
-1.78802e-09
4.34288e-09
2.11246e-09
-3.35058e-09
-2.97401e-09
3.02074e-09
3.30386e-09
-1.99974e-09
-3.73269e-09
1.66448e-09
4.06796e-09
-6.61284e-10
-3.89469e-09
3.45801e-10
4.21017e-09
5.56652e-10
-3.59506e-09
-8.27921e-10
3.86633e-09
1.57281e-09
-3.08868e-09
-1.78826e-09
3.30414e-09
2.36079e-09
-2.5885e-09
-2.52137e-09
2.74908e-09
2.93753e-09
-2.19709e-09
-3.05158e-09
2.31115e-09
3.34239e-09
-1.91764e-09
-3.4211e-09
1.99635e-09
3.62081e-09
-1.69266e-09
-3.67486e-09
1.74671e-09
3.81203e-09
-1.45985e-09
-3.84882e-09
1.49663e-09
3.9376e-09
-1.18251e-09
-3.95877e-09
1.20367e-09
3.99619e-09
-8.66812e-10
-3.99868e-09
8.69297e-10
3.97223e-09
-5.43866e-10
-3.95218e-09
5.23819e-10
-4.84141e-09
-3.88084e-08
3.8032e-08
5.61784e-09
-1.09191e-08
8.27769e-08
1.39994e-08
-8.58573e-08
-3.32005e-08
1.30215e-07
3.83768e-08
-1.35391e-07
-4.89634e-08
5.94342e-08
5.12517e-08
-6.17225e-08
-5.6142e-08
1.42516e-08
5.70498e-08
-1.51594e-08
-5.69014e-08
-4.08325e-08
5.58061e-08
4.19279e-08
-4.86351e-08
-9.20948e-08
4.54548e-08
9.5275e-08
-3.35108e-08
-1.03619e-07
2.95761e-08
1.07553e-07
-1.9446e-08
-7.21339e-08
1.68513e-08
7.47286e-08
-1.12628e-08
-3.55402e-08
1.01232e-08
3.66798e-08
-8.28744e-09
-1.02157e-08
8.09729e-09
1.04058e-08
-8.23713e-09
1.04147e-09
8.40265e-09
-1.20699e-09
-8.84712e-09
2.81368e-09
8.90221e-09
-2.86878e-09
-8.66107e-09
1.13603e-09
8.45438e-09
-9.29338e-10
-7.55775e-09
-6.62333e-10
7.21427e-09
1.00581e-09
-6.14238e-09
-1.91961e-09
5.80288e-09
2.25911e-09
-4.82108e-09
-3.06711e-09
4.51085e-09
3.37734e-09
-3.54481e-09
-4.29388e-09
3.21446e-09
4.62424e-09
-2.15841e-09
-5.10293e-09
1.80342e-09
5.45792e-09
-7.25115e-10
-5.19499e-09
3.83109e-10
5.537e-09
5.95667e-10
-4.71163e-09
-8.88813e-10
5.00478e-09
1.68564e-09
-3.96755e-09
-1.91261e-09
4.19452e-09
2.5035e-09
-3.2333e-09
-2.66512e-09
3.39492e-09
3.07342e-09
-2.64775e-09
-3.18269e-09
2.75702e-09
3.45849e-09
-2.22902e-09
-3.53381e-09
2.30434e-09
3.7341e-09
-1.91721e-09
-3.79323e-09
1.97633e-09
3.96482e-09
-1.63248e-09
-4.01951e-09
1.68717e-09
4.18267e-09
-1.30779e-09
-4.23372e-09
1.35884e-09
4.37111e-09
-9.19397e-10
-4.40656e-09
9.54855e-10
4.46733e-09
-4.89163e-10
-4.46772e-09
4.89553e-10
-5.44618e-09
-4.14014e-08
4.08368e-08
6.0107e-09
-1.02335e-08
9.50669e-08
1.32901e-08
-9.81235e-08
-3.35099e-08
1.51142e-07
3.8838e-08
-1.5647e-07
-4.93719e-08
6.85461e-08
5.16312e-08
-7.08054e-08
-5.65795e-08
1.79964e-08
5.75659e-08
-1.89828e-08
-5.76943e-08
-4.51263e-08
5.66603e-08
4.61603e-08
-4.93395e-08
-1.04818e-07
4.61725e-08
1.07985e-07
-3.35019e-08
-1.19678e-07
2.93464e-08
1.23833e-07
-1.87699e-08
-8.26356e-08
1.6091e-08
8.53145e-08
-1.04237e-08
-4.00688e-08
9.3054e-09
4.11871e-08
-7.63974e-09
-1.0861e-08
7.52971e-09
1.0971e-08
-7.94505e-09
1.83145e-09
8.19957e-09
-2.08596e-09
-8.86641e-09
3.10542e-09
8.97064e-09
-3.20964e-09
-8.80454e-09
3.18398e-10
8.6029e-09
-1.16755e-10
-7.69316e-09
-2.04518e-09
7.34192e-09
2.39642e-09
-6.25979e-09
-3.2679e-09
5.92616e-09
3.60153e-09
-4.99424e-09
-4.27899e-09
4.7056e-09
4.56763e-09
-3.78642e-09
-5.61383e-09
3.45776e-09
5.9425e-09
-2.36221e-09
-6.55905e-09
1.98232e-09
6.93894e-09
-8.07578e-10
-6.61121e-09
4.3159e-10
6.9872e-09
6.45065e-10
-5.92418e-09
-9.66614e-10
6.24572e-09
1.83009e-09
-4.89544e-09
-2.07129e-09
5.13665e-09
2.68201e-09
-3.87904e-09
-2.84292e-09
4.03995e-09
3.23162e-09
-3.07105e-09
-3.33033e-09
3.16975e-09
3.56927e-09
-2.51651e-09
-3.63298e-09
2.58022e-09
3.80752e-09
-2.15348e-09
-3.86324e-09
2.2092e-09
4.04648e-09
-1.87532e-09
-4.1134e-09
1.94224e-09
4.34352e-09
-1.56433e-09
-4.42634e-09
1.64715e-09
4.68769e-09
-1.13124e-09
-4.76998e-09
1.21353e-09
4.97031e-09
-5.41158e-10
-5.00807e-09
5.78911e-10
-6.22727e-09
-4.29932e-08
4.2705e-08
6.51544e-09
-9.41561e-09
1.07241e-07
1.24338e-08
-1.10259e-07
-3.38909e-08
1.72706e-07
3.93906e-08
-1.78205e-07
-4.98357e-08
7.75331e-08
5.20604e-08
-7.97578e-08
-5.70656e-08
2.20775e-08
5.81459e-08
-2.31579e-08
-5.8615e-08
-4.91525e-08
5.76579e-08
5.01095e-08
-5.01306e-08
-1.17354e-07
4.70822e-08
1.20402e-07
-3.3487e-08
-1.36676e-07
2.90718e-08
1.41092e-07
-1.79861e-08
-9.34933e-08
1.52093e-08
9.62702e-08
-9.45768e-09
-4.45031e-08
8.36644e-09
4.55944e-08
-6.90536e-09
-1.11626e-08
6.8909e-09
1.1177e-08
-7.63889e-09
3.00657e-09
8.0026e-09
-3.37028e-09
-8.94328e-09
3.60747e-09
9.10678e-09
-3.77097e-09
-9.01998e-09
-4.86415e-10
8.81795e-09
6.88444e-10
-7.86438e-09
-3.47428e-09
7.49453e-09
3.84412e-09
-6.37657e-09
-4.5975e-09
6.04522e-09
4.92885e-09
-5.17772e-09
-5.38735e-09
4.92336e-09
5.64171e-09
-4.08343e-09
-6.921e-09
3.76061e-09
7.24382e-09
-2.61661e-09
-8.12465e-09
2.20451e-09
8.53675e-09
-9.06093e-10
-8.17806e-09
4.85223e-10
8.59893e-09
7.26223e-10
-7.26473e-09
-1.08645e-09
7.62495e-09
2.04146e-09
-5.88814e-09
-2.30282e-09
6.14951e-09
2.94213e-09
-4.52069e-09
-3.10166e-09
4.68022e-09
3.45805e-09
-3.4412e-09
-3.53843e-09
3.52158e-09
3.70513e-09
-2.73658e-09
-3.74162e-09
2.77308e-09
3.82922e-09
-2.34434e-09
-3.85652e-09
2.37164e-09
3.95755e-09
-2.12363e-09
-4.00014e-09
2.16622e-09
4.16842e-09
-1.89806e-09
-4.23632e-09
1.96597e-09
4.47296e-09
-1.49231e-09
-4.55432e-09
1.57367e-09
4.77458e-09
-7.49097e-10
-4.82745e-09
8.01975e-10
-7.24599e-09
-4.32518e-08
4.33352e-08
7.16256e-09
-8.44293e-09
1.19232e-07
1.14023e-08
-1.22192e-07
-3.4343e-08
1.94978e-07
4.00285e-08
-2.00664e-07
-5.03351e-08
8.63722e-08
5.2519e-08
-8.8556e-08
-5.7573e-08
2.656e-08
5.87649e-08
-2.77519e-08
-5.96503e-08
-5.28407e-08
5.87921e-08
5.36989e-08
-5.09643e-08
-1.29142e-07
4.82424e-08
1.31864e-07
-3.34484e-08
-1.54776e-07
2.87305e-08
1.59494e-07
-1.70793e-08
-1.04766e-07
1.41878e-08
1.07658e-07
-8.34925e-09
-4.88201e-08
7.29121e-09
4.98782e-08
-6.06967e-09
-1.10587e-08
6.16623e-09
1.09622e-08
-7.30881e-09
4.65295e-09
7.80539e-09
-5.14954e-09
-9.08289e-09
4.36517e-09
9.31848e-09
-4.60077e-09
-9.31528e-09
-1.30516e-09
9.10399e-09
1.51645e-09
-8.0681e-09
-4.99752e-09
7.66536e-09
5.40025e-09
-6.4753e-09
-5.92659e-09
6.13975e-09
6.26214e-09
-5.35828e-09
-6.33087e-09
5.15815e-09
6.531e-09
-4.45652e-09
-8.19652e-09
4.14687e-09
8.50617e-09
-2.94078e-09
-9.83331e-09
2.48559e-09
1.02885e-08
-1.02107e-09
-9.94588e-09
5.40361e-10
1.04266e-08
8.4824e-10
-8.77882e-09
-1.26101e-09
9.19159e-09
2.34556e-09
-6.97514e-09
-2.63615e-09
7.26573e-09
3.3192e-09
-5.15713e-09
-3.47797e-09
5.3159e-09
3.78838e-09
-3.72374e-09
-3.84068e-09
3.77603e-09
3.88791e-09
-2.81646e-09
-3.87562e-09
2.80418e-09
3.78912e-09
-2.36754e-09
-3.75177e-09
2.33019e-09
3.6329e-09
-2.18952e-09
-3.59616e-09
2.15277e-09
3.49944e-09
-2.04667e-09
-3.47279e-09
2.02002e-09
3.39126e-09
-1.66144e-09
-3.3564e-09
1.62658e-09
3.174e-09
-7.27364e-10
-3.0765e-09
6.29858e-10
-8.57327e-09
-4.17108e-08
4.22962e-08
7.98792e-09
-7.2952e-09
1.30954e-07
1.01711e-08
-1.33829e-07
-3.48909e-08
2.18015e-07
4.07742e-08
-2.23898e-07
-5.08856e-08
9.50408e-08
5.30239e-08
-9.71791e-08
-5.81137e-08
3.152e-08
5.94386e-08
-3.28449e-08
-6.08292e-08
-5.60861e-08
6.0106e-08
5.68093e-08
-5.18218e-08
-1.39157e-07
4.97661e-08
1.41213e-07
-3.33896e-08
-1.74163e-07
2.83172e-08
1.79236e-07
-1.6049e-08
-1.16534e-07
1.30166e-08
1.19566e-07
-7.08988e-09
-5.29954e-08
6.07112e-09
5.40142e-08
-5.12553e-09
-1.04876e-08
5.34855e-09
1.02646e-08
-6.95452e-09
6.87056e-09
7.61137e-09
-7.52742e-09
-9.3012e-09
5.43279e-09
9.62398e-09
-5.75556e-09
-9.70632e-09
-2.17684e-09
9.47476e-09
2.4084e-09
-8.30723e-09
-6.67619e-09
7.85509e-09
7.12833e-09
-6.54021e-09
-7.28915e-09
6.18827e-09
7.64109e-09
-5.51838e-09
-7.0093e-09
5.4089e-09
7.11878e-09
-4.94649e-09
-9.40805e-09
4.65785e-09
9.69669e-09
-3.36209e-09
-1.17363e-08
2.84846e-09
1.22499e-08
-1.16419e-09
-1.19812e-08
6.04849e-10
1.25406e-08
1.02218e-09
-1.05312e-08
-1.50726e-09
1.10163e-08
2.77389e-09
-8.19674e-09
-3.10754e-09
8.53039e-09
3.861e-09
-5.79404e-09
-4.02192e-09
5.95496e-09
4.27613e-09
-3.87901e-09
-4.29057e-09
3.89345e-09
4.16926e-09
-2.66771e-09
-4.0861e-09
2.58455e-09
3.7419e-09
-2.08287e-09
-3.60807e-09
1.94904e-09
3.16296e-09
-1.87902e-09
-3.01007e-09
1.72612e-09
2.53424e-09
-1.75456e-09
-2.37759e-09
1.59792e-09
1.91127e-09
-1.37116e-09
-1.77059e-09
1.23048e-09
1.46022e-09
-4.66036e-10
-1.42806e-09
4.33882e-10
-1.03003e-08
-3.77275e-08
3.89962e-08
9.03162e-09
-5.93924e-09
1.42299e-07
8.70352e-09
-1.45063e-07
-3.55411e-08
2.41856e-07
4.16312e-08
-2.47946e-07
-5.14781e-08
1.03522e-07
5.35676e-08
-1.05611e-07
-5.86711e-08
3.7049e-08
6.01545e-08
-3.85324e-08
-6.21511e-08
-5.86996e-08
6.16337e-08
5.92169e-08
-5.26769e-08
-1.45864e-07
5.17288e-08
1.46812e-07
-3.32878e-08
-1.95052e-07
2.78057e-08
2.00534e-07
-1.48895e-08
-1.28922e-07
1.16741e-08
1.32137e-07
-5.66586e-09
-5.70045e-08
4.69243e-09
5.7978e-08
-4.06163e-09
-9.38712e-09
4.42675e-09
9.022e-09
-6.57181e-09
9.77566e-09
7.421e-09
-1.06248e-08
-9.6163e-09
6.87517e-09
1.00444e-08
-7.30329e-09
-1.02116e-08
-3.15111e-09
9.9446e-09
3.41815e-09
-8.58352e-09
-8.58407e-09
8.06086e-09
9.10674e-09
-6.55001e-09
-8.75068e-09
6.15534e-09
9.14536e-09
-5.61723e-09
-7.24706e-09
5.65853e-09
7.20576e-09
-5.61764e-09
-1.05208e-08
5.35795e-09
1.07805e-08
-3.91233e-09
-1.39037e-08
3.31849e-09
1.44975e-08
-1.3494e-09
-1.43644e-08
6.8698e-10
1.50268e-08
1.25616e-09
-1.26106e-08
-1.84039e-09
1.31948e-08
3.36481e-09
-9.61941e-09
-3.76238e-09
1.0017e-08
4.63065e-09
-6.44865e-09
-4.80098e-09
6.61898e-09
4.99816e-09
-3.8706e-09
-4.96745e-09
3.8399e-09
4.63688e-09
-2.20541e-09
-4.46445e-09
2.03299e-09
3.79391e-09
-1.36896e-09
-3.53766e-09
1.11271e-09
2.67775e-09
-1.05118e-09
-2.37726e-09
7.50681e-10
1.42234e-09
-8.85209e-10
-1.10194e-09
5.64807e-10
1.25805e-10
-5.48035e-10
1.85256e-10
2.36974e-10
-1.07754e-09
4.4065e-11
1.35585e-09
-3.22378e-10
-1.25477e-08
-3.04026e-08
3.2609e-08
1.03413e-08
-4.32888e-09
1.53159e-07
6.95719e-09
-1.55787e-07
-3.63071e-08
2.66539e-07
4.2607e-08
-2.72839e-07
-5.21086e-08
1.11806e-07
5.41494e-08
-1.13847e-07
-5.92341e-08
4.32563e-08
6.09067e-08
-4.49289e-08
-6.36385e-08
-6.03427e-08
6.34183e-08
6.05628e-08
-5.35096e-08
-1.47426e-07
5.41723e-08
1.46763e-07
-3.30905e-08
-2.17647e-07
2.71617e-08
2.23576e-07
-1.36003e-08
-1.42132e-07
1.01378e-08
1.45594e-07
-4.06279e-09
-6.08232e-08
3.14134e-09
6.17446e-08
-2.86613e-09
-7.69607e-09
3.38805e-09
7.17415e-09
-6.15567e-09
1.35057e-08
7.23573e-09
-1.45857e-08
-1.00525e-08
8.77284e-09
1.06097e-08
-9.33001e-09
-1.08574e-08
-4.29641e-09
1.05338e-08
4.62002e-09
-8.89923e-09
-1.08074e-08
8.28326e-09
1.14234e-08
-6.47972e-09
-1.04465e-08
5.9932e-09
1.09331e-08
-5.56526e-09
-6.73984e-09
5.86475e-09
6.44036e-09
-6.60033e-09
-1.15169e-08
6.36429e-09
1.1753e-08
-4.61961e-09
-1.64319e-08
3.91778e-09
1.71337e-08
-1.59496e-09
-1.71989e-08
8.02999e-10
1.79908e-08
1.55399e-09
-1.5138e-08
-2.27415e-09
1.58581e-08
4.16481e-09
-1.13407e-08
-4.65755e-09
1.18334e-08
5.71208e-09
-7.15959e-09
-5.90592e-09
7.35343e-09
6.0608e-09
-3.67581e-09
-5.98183e-09
3.59684e-09
5.42053e-09
-1.37142e-09
-5.15124e-09
1.10213e-09
4.14526e-09
-1.59916e-10
-3.77078e-09
-2.14559e-10
2.53942e-09
3.53912e-10
-2.11658e-09
-7.76754e-10
7.97421e-10
5.96946e-10
-3.63565e-10
-1.0308e-09
-9.32498e-10
8.57301e-10
1.33998e-09
-1.26478e-09
-2.5182e-09
1.14691e-09
2.89218e-09
-1.52089e-09
-1.54729e-08
-1.84578e-08
2.19668e-08
1.19639e-08
-2.40463e-09
1.63449e-07
4.88359e-09
-1.65928e-07
-3.72449e-08
2.92001e-07
4.37067e-08
-2.98463e-07
-5.27728e-08
1.19901e-07
5.47696e-08
-1.21898e-07
-5.9791e-08
5.02736e-08
6.16903e-08
-5.21728e-08
-6.53763e-08
-6.0803e-08
6.5396e-08
6.07833e-08
-5.41744e-08
-1.41349e-07
5.74352e-08
1.38088e-07
-3.27058e-08
-2.4201e-07
2.63602e-08
2.48356e-07
-1.21731e-08
-1.56441e-07
8.39051e-09
1.60224e-07
-2.25225e-09
-6.44124e-08
1.40279e-09
6.52618e-08
-1.5243e-09
-5.35766e-09
2.21581e-09
4.66614e-09
-5.69834e-09
1.8224e-08
7.05462e-09
-1.95803e-08
-1.06427e-08
1.12315e-08
1.13603e-08
-1.19491e-08
-1.16778e-08
-5.70936e-09
1.12678e-08
6.11932e-09
-9.25811e-09
-1.34369e-08
8.52768e-09
1.41673e-08
-6.31641e-09
-1.26323e-08
5.64618e-09
1.33025e-08
-5.18275e-09
-4.92911e-09
5.95643e-09
4.15543e-09
-8.20509e-09
-1.24974e-08
7.90723e-09
1.27952e-08
-5.47452e-09
-1.94308e-08
4.6437e-09
2.02616e-08
-1.93487e-09
-2.05987e-08
9.81505e-10
2.15521e-08
1.90917e-09
-1.82804e-08
-2.81613e-09
1.91874e-08
5.22844e-09
-1.35067e-08
-5.86279e-09
1.4141e-08
7.21294e-09
-7.99567e-09
-7.45298e-09
8.23572e-09
7.59184e-09
-3.28422e-09
-7.46075e-09
3.15314e-09
6.63757e-09
-1.40579e-10
-6.26153e-09
-2.35461e-10
4.92104e-09
1.49172e-09
-4.44522e-09
-1.96753e-09
2.95972e-09
2.15247e-09
-2.47561e-09
-2.63658e-09
1.03894e-09
2.38474e-09
-5.8751e-10
-2.83618e-09
-7.1692e-10
2.51482e-09
1.11801e-09
-2.91591e-09
-2.258e-09
2.64974e-09
2.60348e-09
-2.99522e-09
-1.92948e-08
-3.21158e-11
5.37751e-09
1.39494e-08
9.3731e-12
1.73179e-07
2.43171e-09
-1.7562e-07
-3.83821e-08
3.18014e-07
4.49381e-08
-3.2457e-07
-5.34728e-08
1.27836e-07
5.54375e-08
-1.29801e-07
-6.03383e-08
5.82678e-08
6.25147e-08
-6.04441e-08
-6.74551e-08
-6.06393e-08
6.74998e-08
6.05946e-08
-5.4951e-08
-1.2214e-07
6.27611e-08
1.1433e-07
-3.21658e-08
-2.67938e-07
2.54569e-08
2.74647e-07
-1.05846e-08
-1.72129e-07
6.41559e-09
1.76298e-07
-1.5936e-10
-6.76108e-08
-5.27675e-10
6.82978e-08
-1.38774e-11
-2.31926e-09
8.91987e-10
1.44115e-09
-5.18676e-09
2.41289e-08
6.87518e-09
-2.58173e-08
-1.14307e-08
1.43911e-08
1.23514e-08
-1.53118e-08
-1.27196e-08
-7.52763e-09
1.21801e-08
8.06712e-09
-9.65603e-09
-1.655e-08
8.79568e-09
1.74103e-08
-6.09758e-09
-1.57647e-08
5.08812e-09
1.67742e-08
-4.2311e-09
-5.88221e-10
5.99066e-09
-1.17134e-09
-1.09564e-08
-1.41544e-08
1.02355e-08
1.48753e-08
-6.37887e-09
-2.29278e-08
5.45013e-09
2.38565e-08
-2.42669e-09
-2.46865e-08
1.28575e-09
2.58274e-08
2.29404e-09
-2.2266e-08
-3.45543e-09
2.34274e-08
6.60841e-09
-1.63318e-08
-7.45039e-09
1.71738e-08
9.25259e-09
-9.06195e-09
-9.57105e-09
9.38041e-09
9.72766e-09
-2.67133e-09
-9.53577e-09
2.47944e-09
8.38306e-09
1.55411e-09
-7.87394e-09
-2.06323e-09
6.15024e-09
3.54532e-09
-5.57584e-09
-4.11972e-09
3.91672e-09
4.12668e-09
-3.42008e-09
-4.62332e-09
2.06816e-09
4.12453e-09
-1.67917e-09
-4.51352e-09
6.45196e-10
3.98438e-09
-3.53712e-10
-4.27586e-09
-4.01887e-10
3.84748e-09
6.07005e-10
-4.0526e-09
-2.43228e-08
2.76402e-08
-1.96549e-08
1.63374e-08
2.26508e-09
1.82015e-07
-4.66286e-10
-1.83814e-07
-3.97275e-08
3.44274e-07
4.62884e-08
-3.50835e-07
-5.42019e-08
1.35659e-07
5.61412e-08
-1.37599e-07
-6.08681e-08
6.74618e-08
6.33836e-08
-6.99773e-08
-6.99566e-08
-6.0473e-08
6.99833e-08
6.04462e-08
-5.69843e-08
-8.24331e-08
7.03676e-08
6.90498e-08
-3.1528e-08
-2.9544e-07
2.4304e-08
3.02664e-07
-8.85159e-09
-1.89503e-07
4.1765e-09
1.94178e-07
2.16196e-09
-7.01392e-08
-2.67349e-09
7.06507e-08
1.64938e-09
1.42226e-09
-6.0916e-10
-2.46247e-09
-4.59837e-09
3.14574e-08
6.68622e-09
-3.35452e-08
-1.24693e-08
1.84476e-08
1.36548e-08
-1.96331e-08
-1.40392e-08
-9.94914e-09
1.33086e-08
1.06798e-08
-1.00638e-08
-2.01912e-08
9.0701e-09
2.11849e-08
-5.98904e-09
-2.05432e-08
4.44728e-09
2.2085e-08
-2.80862e-09
8.93394e-09
6.37364e-09
-1.2499e-08
-1.36844e-08
-1.82146e-08
1.22051e-08
1.96938e-08
-7.1985e-09
-2.66023e-08
6.35625e-09
2.74445e-08
-3.1867e-09
-2.95439e-08
1.85004e-09
3.08805e-08
2.61332e-09
-2.73875e-08
-4.10879e-09
2.88829e-08
8.26294e-09
-2.01004e-08
-9.38349e-09
2.12209e-08
1.1772e-08
-1.04851e-08
-1.21849e-08
1.0898e-08
1.23471e-08
-1.79724e-09
-1.20765e-08
1.52668e-09
1.05224e-08
3.81941e-09
-9.85822e-09
-4.48354e-09
7.73486e-09
5.97004e-09
-7.0824e-09
-6.6225e-09
5.40191e-09
6.04497e-09
-4.96715e-09
-6.47973e-09
3.96694e-09
5.47449e-09
-3.73205e-09
-5.70938e-09
3.23071e-09
4.88714e-09
-3.12315e-09
-4.9947e-09
2.92133e-09
4.39948e-09
-2.88907e-09
-4.43173e-09
-3.09941e-08
6.88079e-08
-5.69382e-08
1.91244e-08
4.9526e-09
1.87086e-07
-4.61228e-09
-1.87427e-07
-4.12919e-08
3.70396e-07
4.77473e-08
-3.76851e-07
-5.50339e-08
1.43295e-07
5.68369e-08
-1.45098e-07
-6.15229e-08
7.8076e-08
6.43925e-08
-8.09456e-08
-7.32071e-08
-6.07577e-08
7.28266e-08
6.11382e-08
-5.99402e-08
-2.16362e-08
7.80654e-08
3.51105e-09
-3.03277e-08
-3.25629e-07
2.21539e-08
3.33803e-07
-7.1086e-09
-2.09283e-07
1.63078e-09
2.14761e-07
4.8975e-09
-7.17103e-08
-5.04664e-09
7.18595e-08
3.52781e-09
5.83455e-09
-2.32184e-09
-7.04052e-09
-3.90061e-09
4.05005e-08
6.46799e-09
-4.30679e-08
-1.38276e-08
2.36925e-08
1.53737e-08
-2.52386e-08
-1.5715e-08
-1.32571e-08
1.47064e-08
1.42657e-08
-1.04083e-08
-2.43649e-08
9.28046e-09
2.54927e-08
-6.45652e-09
-2.76466e-08
4.30644e-09
2.97967e-08
-1.96708e-09
2.56573e-08
6.58114e-09
-3.02713e-08
-1.19054e-08
-2.43092e-08
1.06859e-08
2.55287e-08
-8.18325e-09
-2.94679e-08
7.7212e-09
2.993e-08
-4.48463e-09
-3.51695e-08
2.966e-09
3.66881e-08
2.5117e-09
-3.39419e-08
-4.3869e-09
3.58171e-08
9.60037e-09
-2.49935e-08
-1.09584e-08
2.63516e-08
1.35663e-08
-1.21294e-08
-1.38994e-08
1.24625e-08
1.35941e-08
-5.06499e-10
-1.31579e-08
7.02868e-11
1.12088e-08
6.66773e-09
-1.04579e-08
-7.4186e-09
8.22042e-09
8.61208e-09
-7.58986e-09
-9.24263e-09
6.17948e-09
7.59427e-09
-5.89465e-09
-7.87909e-09
5.4753e-09
6.1105e-09
-5.45137e-09
-6.13443e-09
5.58418e-09
5.02702e-09
-5.66769e-09
-4.94351e-09
5.95543e-09
4.33027e-09
-6.04576e-09
-4.23994e-09
-4.00492e-08
1.30252e-07
-1.12474e-07
2.22711e-08
7.97561e-09
1.85697e-07
-9.62716e-09
-1.84045e-07
-4.30747e-08
3.95916e-07
4.93032e-08
-4.02145e-07
-5.61664e-08
1.49736e-07
5.729e-08
-1.5086e-07
-6.2828e-08
8.97962e-08
6.57176e-08
-9.26857e-08
-7.70794e-08
-6.34847e-08
7.59723e-08
6.45918e-08
-6.32681e-08
5.88407e-08
8.72874e-08
-8.286e-08
-2.80742e-08
-3.59886e-07
1.89789e-08
3.68982e-07
-5.43471e-09
-2.32894e-07
-1.34814e-09
2.39677e-07
8.07613e-09
-7.14969e-08
-7.64927e-09
7.107e-08
5.6598e-09
1.08954e-08
-4.29658e-09
-1.22586e-08
-3.04415e-09
5.16059e-08
6.1905e-09
-5.47522e-08
-1.55903e-08
3.0599e-08
1.76636e-08
-3.26723e-08
-1.78564e-08
-1.78381e-08
1.64592e-08
1.92352e-08
-1.06089e-08
-2.90933e-08
9.33113e-09
3.03711e-08
-8.3741e-09
-3.68469e-08
5.94083e-09
3.92802e-08
-1.76143e-09
4.1274e-08
3.90887e-09
-4.34214e-08
-6.45592e-09
-2.67431e-08
7.03497e-09
2.6164e-08
-1.03398e-08
-3.07253e-08
1.02171e-08
3.0848e-08
-6.98702e-09
-4.14494e-08
5.36161e-09
4.30748e-08
8.56728e-10
-4.18972e-08
-2.98206e-09
4.40226e-08
8.61673e-09
-3.04319e-08
-9.91297e-09
3.17282e-08
1.15513e-08
-1.28204e-08
-1.13954e-08
1.26645e-08
9.76293e-09
1.58955e-09
-9.08845e-09
-2.26403e-09
7.2582e-09
9.40338e-09
-6.78129e-09
-9.88029e-09
5.60436e-09
1.07175e-08
-5.33645e-09
-1.09854e-08
4.95575e-09
8.32717e-09
-4.98129e-09
-8.30162e-09
5.44005e-09
5.83006e-09
-5.6798e-09
-5.5903e-09
6.52818e-09
4.40303e-09
-6.81291e-09
-4.1183e-09
7.60436e-09
3.79603e-09
-7.82288e-09
-3.57751e-09
-5.29006e-08
2.23607e-07
-1.9632e-07
2.56131e-08
1.1532e-08
1.7518e-07
-1.59009e-08
-1.70811e-07
-4.50061e-08
4.20366e-07
5.09124e-08
-4.26272e-07
-5.72829e-08
1.52464e-07
5.72935e-08
-1.52475e-07
-6.46385e-08
1.00228e-07
6.64965e-08
-1.02086e-07
-8.07399e-08
-6.77157e-08
8.01525e-08
6.83031e-08
-7.1122e-08
1.6895e-07
1.06143e-07
-2.03971e-07
-2.51377e-08
-3.96763e-07
1.58731e-08
4.06027e-07
-3.49455e-09
-2.62398e-07
-4.79235e-09
2.70685e-07
1.1567e-08
-6.88611e-08
-1.05712e-08
6.78653e-08
8.14492e-09
1.65997e-08
-6.60456e-09
-1.814e-08
-1.97588e-09
6.51856e-08
5.80774e-09
-6.90175e-08
-1.78371e-08
4.00248e-08
2.07575e-08
-4.29451e-08
-2.05975e-08
-2.4141e-08
1.87074e-08
2.6031e-08
-1.10436e-08
-3.43678e-08
9.73235e-09
3.56791e-08
-1.26814e-08
-4.61688e-08
1.07079e-08
4.81423e-08
-3.20523e-09
4.47469e-08
2.06027e-09
-4.36019e-08
-6.14355e-09
-2.1713e-08