/*--------------------------------*- C++ -*----------------------------------*\
| =========                 |                                                 |
| \\      /  F ield         | OpenFOAM: The Open Source CFD Toolbox           |
|  \\    /   O peration     | Version:  2.4.0                                 |
|   \\  /    A nd           | Web:      www.OpenFOAM.org                      |
|    \\/     M anipulation  |                                                 |
\*---------------------------------------------------------------------------*/
FoamFile
{
    version     2.0;
    format      ascii;
    class       volVectorField;
    location    "0.19";
    object      U;
}
// * * * * * * * * * * * * * * * * * * * * * * * * * * * * * * * * * * * * * //

dimensions      [0 1 -1 0 0 0 0];

internalField   nonuniform List<vector> 
60000
(
(-5.82859e-05 2.48871e-05 0)
(-0.000193067 2.4549e-05 0)
(-0.000332318 2.51241e-05 0)
(-0.000473841 2.54175e-05 0)
(-0.000617063 2.57506e-05 0)
(-0.000762406 2.61502e-05 0)
(-0.000910332 2.66301e-05 0)
(-0.00106133 2.71936e-05 0)
(-0.0012159 2.78427e-05 0)
(-0.00137455 2.85798e-05 0)
(-0.00153781 2.94064e-05 0)
(-0.00170622 3.0324e-05 0)
(-0.00188033 3.13351e-05 0)
(-0.0020607 3.2442e-05 0)
(-0.00224792 3.36469e-05 0)
(-0.00244259 3.49524e-05 0)
(-0.00264531 3.63613e-05 0)
(-0.00285675 3.78765e-05 0)
(-0.00307755 3.95012e-05 0)
(-0.0033084 4.12388e-05 0)
(-0.00355002 4.30927e-05 0)
(-0.00380313 4.50665e-05 0)
(-0.00406852 4.71638e-05 0)
(-0.00434696 4.93881e-05 0)
(-0.0046393 5.17434e-05 0)
(-0.00494637 5.4233e-05 0)
(-0.00526908 5.68608e-05 0)
(-0.00560834 5.96307e-05 0)
(-0.0059651 6.2546e-05 0)
(-0.00634037 6.56098e-05 0)
(-0.00673517 6.88248e-05 0)
(-0.00715055 7.21939e-05 0)
(-0.00758761 7.57192e-05 0)
(-0.00804747 7.94023e-05 0)
(-0.00853131 8.32442e-05 0)
(-0.00904031 8.72451e-05 0)
(-0.0095757 9.14045e-05 0)
(-0.0101387 9.57205e-05 0)
(-0.0107306 0.00010019 0)
(-0.0113528 0.000104809 0)
(-0.0120064 0.000109571 0)
(-0.0126929 0.000114468 0)
(-0.0134136 0.000119491 0)
(-0.0141697 0.000124628 0)
(-0.0149626 0.000129865 0)
(-0.0157936 0.000135183 0)
(-0.016664 0.000140564 0)
(-0.0175749 0.000145983 0)
(-0.0185275 0.000151413 0)
(-0.019523 0.000156824 0)
(-0.0205624 0.000162181 0)
(-0.0216464 0.000167446 0)
(-0.022776 0.000172573 0)
(-0.0239518 0.000177516 0)
(-0.0251742 0.000182219 0)
(-0.0264436 0.000186627 0)
(-0.02776 0.000190675 0)
(-0.0291232 0.000194296 0)
(-0.0305329 0.000197418 0)
(-0.0319884 0.000199965 0)
(-0.0334885 0.000201857 0)
(-0.035032 0.000203013 0)
(-0.0366172 0.00020335 0)
(-0.038242 0.000202786 0)
(-0.0399038 0.000201242 0)
(-0.0415998 0.000198639 0)
(-0.0433267 0.000194909 0)
(-0.0450809 0.00018999 0)
(-0.0468583 0.000183833 0)
(-0.0486544 0.000176405 0)
(-0.0504645 0.000167691 0)
(-0.0522836 0.000157699 0)
(-0.0541064 0.000146466 0)
(-0.0559275 0.00013406 0)
(-0.0577415 0.000120583 0)
(-0.0595431 0.00010618 0)
(-0.0613273 9.10371e-05 0)
(-0.0630891 7.53906e-05 0)
(-0.0648245 5.95265e-05 0)
(-0.0665299 4.37841e-05 0)
(-0.0682026 2.85582e-05 0)
(-0.0698411 1.43e-05 0)
(-0.0714451 1.51679e-06 0)
(-0.0730156 -9.22946e-06 0)
(-0.0745553 -1.73259e-05 0)
(-0.0760684 -2.21113e-05 0)
(-0.077561 -2.28923e-05 0)
(-0.0790406 -1.8982e-05 0)
(-0.0805162 -9.72733e-06 0)
(-0.0819978 5.53158e-06 0)
(-0.0834967 2.74986e-05 0)
(-0.0850244 5.68414e-05 0)
(-0.0865916 9.4086e-05 0)
(-0.0882078 0.00013975 0)
(-0.089882 0.000194437 0)
(-0.0916237 0.000257781 0)
(-0.0934342 0.000326227 0)
(-0.0952934 0.000392566 0)
(-0.0971619 0.000453712 0)
(-0.09901 0.000523838 0)
(-7.97302e-05 0.00010341 0)
(-0.000275144 0.000117166 0)
(-0.00047398 0.000119228 0)
(-0.000675448 0.000120572 0)
(-0.000879189 0.000122197 0)
(-0.00108601 0.000124206 0)
(-0.00129664 0.000126627 0)
(-0.0015118 0.000129475 0)
(-0.00173224 0.000132758 0)
(-0.00195873 0.000136487 0)
(-0.00219204 0.000140672 0)
(-0.00243297 0.000145325 0)
(-0.00268234 0.000150458 0)
(-0.00294101 0.000156086 0)
(-0.00320985 0.000162224 0)
(-0.00348977 0.000168888 0)
(-0.0037817 0.000176096 0)
(-0.00408662 0.000183868 0)
(-0.00440554 0.000192224 0)
(-0.00473952 0.000201186 0)
(-0.00508966 0.000210778 0)
(-0.00545709 0.000221024 0)
(-0.00584302 0.00023195 0)
(-0.00624868 0.000243584 0)
(-0.00667538 0.000255953 0)
(-0.00712448 0.000269088 0)
(-0.0075974 0.000283018 0)
(-0.00809563 0.000297777 0)
(-0.00862071 0.000313396 0)
(-0.00917428 0.000329907 0)
(-0.00975802 0.000347345 0)
(-0.0103737 0.000365742 0)
(-0.0110232 0.000385134 0)
(-0.0117084 0.000405553 0)
(-0.0124313 0.000427033 0)
(-0.013194 0.000449606 0)
(-0.0139987 0.000473304 0)
(-0.0148477 0.000498156 0)
(-0.0157432 0.000524189 0)
(-0.0166877 0.000551427 0)
(-0.0176837 0.000579892 0)
(-0.0187338 0.000609602 0)
(-0.0198406 0.000640568 0)
(-0.0210069 0.000672798 0)
(-0.0222355 0.000706293 0)
(-0.0235292 0.000741047 0)
(-0.024891 0.000777043 0)
(-0.0263238 0.000814258 0)
(-0.0278307 0.000852658 0)
(-0.0294146 0.000892195 0)
(-0.0310786 0.000932809 0)
(-0.0328257 0.000974428 0)
(-0.0346589 0.00101696 0)
(-0.0365812 0.0010603 0)
(-0.0385955 0.00110431 0)
(-0.0407044 0.00114887 0)
(-0.0429107 0.00119379 0)
(-0.0452169 0.00123889 0)
(-0.0476251 0.00128396 0)
(-0.0501375 0.00132877 0)
(-0.0527558 0.00137306 0)
(-0.0554814 0.00141655 0)
(-0.0583154 0.00145895 0)
(-0.0612584 0.00149995 0)
(-0.0643107 0.00153921 0)
(-0.0674718 0.0015764 0)
(-0.0707408 0.00161115 0)
(-0.0741163 0.00164313 0)
(-0.0775961 0.00167199 0)
(-0.0811773 0.0016974 0)
(-0.0848563 0.00171906 0)
(-0.0886288 0.00173669 0)
(-0.0924897 0.00175007 0)
(-0.0964331 0.00175905 0)
(-0.100452 0.00176351 0)
(-0.10454 0.00176348 0)
(-0.108687 0.00175904 0)
(-0.112886 0.0017504 0)
(-0.117127 0.0017379 0)
(-0.121398 0.001722 0)
(-0.12569 0.0017033 0)
(-0.129991 0.00168252 0)
(-0.134289 0.0016605 0)
(-0.13857 0.00163821 0)
(-0.142823 0.00161664 0)
(-0.147032 0.00159682 0)
(-0.151183 0.00157976 0)
(-0.15526 0.00156631 0)
(-0.159246 0.00155709 0)
(-0.163122 0.0015524 0)
(-0.166865 0.00155205 0)
(-0.170451 0.00155538 0)
(-0.173851 0.00156118 0)
(-0.177033 0.00156764 0)
(-0.179964 0.00157207 0)
(-0.182606 0.00157001 0)
(-0.184922 0.00155409 0)
(-0.186869 0.00151387 0)
(-0.188401 0.00144255 0)
(-0.189489 0.00134772 0)
(-8.29115e-05 0.000195275 0)
(-0.000287714 0.000219868 0)
(-0.000495231 0.000222631 0)
(-0.000705703 0.00022497 0)
(-0.000918511 0.000227999 0)
(-0.00113454 0.000231792 0)
(-0.00135456 0.000236377 0)
(-0.00157935 0.000241771 0)
(-0.00180967 0.000247992 0)
(-0.00204634 0.00025506 0)
(-0.00229018 0.000262995 0)
(-0.00254202 0.000271819 0)
(-0.00280274 0.000281559 0)
(-0.00307323 0.000292243 0)
(-0.00335441 0.000303901 0)
(-0.00364724 0.000316567 0)
(-0.00395271 0.000330277 0)
(-0.00427184 0.000345071 0)
(-0.00460572 0.000360989 0)
(-0.00495545 0.000378078 0)
(-0.0053222 0.000396383 0)
(-0.00570718 0.000415957 0)
(-0.00611166 0.000436852 0)
(-0.00653696 0.000459124 0)
(-0.00698446 0.000482835 0)
(-0.00745562 0.000508045 0)
(-0.00795194 0.00053482 0)
(-0.00847503 0.000563227 0)
(-0.00902653 0.000593337 0)
(-0.00960819 0.000625221 0)
(-0.0102218 0.000658955 0)
(-0.0108693 0.000694615 0)
(-0.0115527 0.000732278 0)
(-0.012274 0.000772023 0)
(-0.0130354 0.000813932 0)
(-0.0138392 0.000858083 0)
(-0.0146878 0.000904557 0)
(-0.0155835 0.000953433 0)
(-0.0165291 0.00100479 0)
(-0.017527 0.0010587 0)
(-0.0185801 0.00111524 0)
(-0.0196913 0.00117447 0)
(-0.0208635 0.00123646 0)
(-0.0220998 0.00130127 0)
(-0.0234033 0.00136893 0)
(-0.0247773 0.0014395 0)
(-0.0262251 0.001513 0)
(-0.0277502 0.00158943 0)
(-0.029356 0.00166881 0)
(-0.0310462 0.00175112 0)
(-0.0328242 0.00183631 0)
(-0.0346938 0.00192433 0)
(-0.0366586 0.00201509 0)
(-0.0387224 0.00210849 0)
(-0.0408887 0.00220439 0)
(-0.0431612 0.0023026 0)
(-0.0455435 0.00240293 0)
(-0.0480391 0.00250512 0)
(-0.0506512 0.00260889 0)
(-0.0533831 0.00271391 0)
(-0.0562377 0.0028198 0)
(-0.0592177 0.00292615 0)
(-0.0623255 0.00303248 0)
(-0.0655633 0.00313829 0)
(-0.0689326 0.00324302 0)
(-0.0724347 0.00334607 0)
(-0.0760701 0.0034468 0)
(-0.079839 0.00354455 0)
(-0.0837407 0.00363861 0)
(-0.0877739 0.00372825 0)
(-0.0919364 0.00381274 0)
(-0.096225 0.00389135 0)
(-0.100636 0.00396335 0)
(-0.105163 0.00402803 0)
(-0.109802 0.00408473 0)
(-0.114543 0.00413284 0)
(-0.119379 0.0041718 0)
(-0.124298 0.00420113 0)
(-0.129289 0.00422045 0)
(-0.134339 0.00422946 0)
(-0.139431 0.00422793 0)
(-0.144549 0.00421573 0)
(-0.149673 0.00419277 0)
(-0.154781 0.004159 0)
(-0.159851 0.00411434 0)
(-0.164855 0.00405869 0)
(-0.169766 0.00399182 0)
(-0.174552 0.00391325 0)
(-0.179179 0.00382196 0)
(-0.18361 0.00371628 0)
(-0.187805 0.00359409 0)
(-0.191723 0.00345333 0)
(-0.19532 0.00329199 0)
(-0.198555 0.00310768 0)
(-0.201386 0.00289731 0)
(-0.203776 0.00265748 0)
(-0.205692 0.00238515 0)
(-0.207107 0.00207897 0)
(-0.207985 0.00174341 0)
(-0.208312 0.00138886 0)
(-8.3305e-05 0.000287588 0)
(-0.000288803 0.000323938 0)
(-0.000496743 0.000327721 0)
(-0.000707894 0.000331111 0)
(-0.000921371 0.00033557 0)
(-0.00113808 0.000341175 0)
(-0.00135879 0.000347955 0)
(-0.00158427 0.000355936 0)
(-0.00181531 0.000365141 0)
(-0.00205272 0.0003756 0)
(-0.00229731 0.000387344 0)
(-0.00254994 0.000400406 0)
(-0.00281147 0.000414827 0)
(-0.0030828 0.000430647 0)
(-0.00336485 0.000447914 0)
(-0.0036586 0.000466677 0)
(-0.00396502 0.000486993 0)
(-0.00428517 0.00050892 0)
(-0.0046201 0.000532521 0)
(-0.00497094 0.000557864 0)
(-0.00533885 0.000585022 0)
(-0.00572507 0.00061407 0)
(-0.00613084 0.000645092 0)
(-0.00655752 0.000678173 0)
(-0.00700648 0.000713403 0)
(-0.00747918 0.00075088 0)
(-0.00797714 0.000790701 0)
(-0.00850196 0.000832973 0)
(-0.00905531 0.000877802 0)
(-0.00963893 0.000925302 0)
(-0.0102547 0.000975587 0)
(-0.0109044 0.00102878 0)
(-0.0115901 0.001085 0)
(-0.012314 0.00114437 0)
(-0.0130781 0.00120703 0)
(-0.0138848 0.00127309 0)
(-0.0147365 0.0013427 0)
(-0.0156355 0.00141597 0)
(-0.0165846 0.00149304 0)
(-0.0175863 0.00157404 0)
(-0.0186435 0.00165908 0)
(-0.019759 0.0017483 0)
(-0.0209358 0.0018418 0)
(-0.0221771 0.00193968 0)
(-0.023486 0.00204205 0)
(-0.0248658 0.00214899 0)
(-0.0263198 0.00226058 0)
(-0.0278515 0.00237686 0)
(-0.0294645 0.00249788 0)
(-0.0311624 0.00262364 0)
(-0.0329487 0.00275415 0)
(-0.0348273 0.00288935 0)
(-0.0368019 0.00302917 0)
(-0.0388762 0.00317352 0)
(-0.0410539 0.00332223 0)
(-0.0433388 0.00347511 0)
(-0.0457345 0.00363192 0)
(-0.0482447 0.00379235 0)
(-0.0508727 0.00395607 0)
(-0.0536218 0.00412264 0)
(-0.0564953 0.00429158 0)
(-0.0594959 0.00446235 0)
(-0.0626264 0.00463432 0)
(-0.0658888 0.00480679 0)
(-0.0692852 0.00497901 0)
(-0.072817 0.00515012 0)
(-0.0764851 0.00531921 0)
(-0.0802899 0.0054853 0)
(-0.084231 0.00564733 0)
(-0.0883074 0.00580419 0)
(-0.0925174 0.00595471 0)
(-0.096858 0.00609768 0)
(-0.101326 0.00623182 0)
(-0.105915 0.00635587 0)
(-0.110621 0.00646851 0)
(-0.115436 0.00656843 0)
(-0.12035 0.00665432 0)
(-0.125354 0.00672486 0)
(-0.130435 0.00677877 0)
(-0.13558 0.00681476 0)
(-0.140772 0.00683155 0)
(-0.145992 0.00682789 0)
(-0.151221 0.00680247 0)
(-0.156435 0.00675396 0)
(-0.161609 0.006681 0)
(-0.166714 0.00658217 0)
(-0.17172 0.00645599 0)
(-0.176594 0.0063007 0)
(-0.181299 0.00611391 0)
(-0.185798 0.00589272 0)
(-0.19005 0.00563432 0)
(-0.194014 0.0053368 0)
(-0.19765 0.00499899 0)
(-0.200918 0.00461963 0)
(-0.20378 0.0041972 0)
(-0.206205 0.00373096 0)
(-0.208164 0.00322097 0)
(-0.20962 0.00266684 0)
(-0.210521 0.00206849 0)
(-0.21083 0.00142675 0)
(-8.32046e-05 0.000379705 0)
(-0.000288185 0.000427783 0)
(-0.000495474 0.000432678 0)
(-0.000706097 0.00043713 0)
(-0.00091904 0.000443016 0)
(-0.00113521 0.000450428 0)
(-0.00135537 0.0004594 0)
(-0.00158028 0.000469962 0)
(-0.00181074 0.000482147 0)
(-0.00204755 0.000495991 0)
(-0.00229154 0.000511538 0)
(-0.00254353 0.000528832 0)
(-0.00280441 0.000547925 0)
(-0.00307506 0.000568874 0)
(-0.00335642 0.000591741 0)
(-0.00364943 0.000616593 0)
(-0.00395509 0.000643504 0)
(-0.00427444 0.000672553 0)
(-0.00460854 0.000703824 0)
(-0.00495851 0.000737409 0)
(-0.00532552 0.000773404 0)
(-0.00571077 0.000811913 0)
(-0.00611555 0.000853045 0)
(-0.00654117 0.000896917 0)
(-0.00698903 0.000943649 0)
(-0.00746057 0.000993372 0)
(-0.00795732 0.00104622 0)
(-0.00848087 0.00110233 0)
(-0.00903288 0.00116186 0)
(-0.00961509 0.00122494 0)
(-0.0102293 0.00129175 0)
(-0.0108775 0.00136245 0)
(-0.0115616 0.00143719 0)
(-0.0122838 0.00151616 0)
(-0.0130461 0.00159952 0)
(-0.0138509 0.00168746 0)
(-0.0147006 0.00178015 0)
(-0.0155976 0.00187778 0)
(-0.0165445 0.00198051 0)
(-0.0175439 0.00208854 0)
(-0.0185987 0.00220204 0)
(-0.0197118 0.00232117 0)
(-0.020886 0.0024461 0)
(-0.0221246 0.00257699 0)
(-0.0234306 0.00271398 0)
(-0.0248074 0.00285721 0)
(-0.0262583 0.00300679 0)
(-0.0277868 0.0031628 0)
(-0.0293963 0.00332534 0)
(-0.0310906 0.00349444 0)
(-0.0328732 0.00367011 0)
(-0.0347479 0.00385233 0)
(-0.0367183 0.00404104 0)
(-0.0387882 0.00423614 0)
(-0.0409613 0.00443745 0)
(-0.0432414 0.00464477 0)
(-0.0456319 0.00485781 0)
(-0.0481366 0.00507622 0)
(-0.0507588 0.00529958 0)
(-0.0535017 0.00552738 0)
(-0.0563685 0.00575902 0)
(-0.059362 0.00599384 0)
(-0.0624847 0.00623105 0)
(-0.0657388 0.00646976 0)
(-0.0691262 0.00670902 0)
(-0.0726481 0.00694772 0)
(-0.0763054 0.00718469 0)
(-0.0800984 0.00741863 0)
(-0.0840266 0.00764815 0)
(-0.088089 0.00787175 0)
(-0.0922835 0.00808784 0)
(-0.0966074 0.00829472 0)
(-0.101057 0.00849063 0)
(-0.105627 0.00867372 0)
(-0.110311 0.00884206 0)
(-0.115103 0.00899366 0)
(-0.119993 0.00912646 0)
(-0.124972 0.00923836 0)
(-0.130027 0.00932718 0)
(-0.135145 0.0093907 0)
(-0.14031 0.00942662 0)
(-0.145505 0.00943257 0)
(-0.15071 0.00940611 0)
(-0.155904 0.0093447 0)
(-0.161063 0.00924575 0)
(-0.166159 0.00910665 0)
(-0.171165 0.00892474 0)
(-0.176049 0.00869709 0)
(-0.180779 0.00842009 0)
(-0.185318 0.00808966 0)
(-0.189627 0.00770221 0)
(-0.193668 0.00725572 0)
(-0.1974 0.00674948 0)
(-0.200782 0.00618264 0)
(-0.203773 0.00555331 0)
(-0.206337 0.00485959 0)
(-0.208436 0.00410079 0)
(-0.210022 0.00327806 0)
(-0.211027 0.00239469 0)
(-0.211414 0.00145312 0)
(-8.29427e-05 0.000471516 0)
(-0.000287119 0.00053119 0)
(-0.000493524 0.000537233 0)
(-0.000703315 0.000542752 0)
(-0.000915421 0.000550063 0)
(-0.00113075 0.000559276 0)
(-0.00135004 0.000570432 0)
(-0.00157408 0.000583566 0)
(-0.00180365 0.000598719 0)
(-0.00203954 0.000615938 0)
(-0.00228258 0.000635273 0)
(-0.00253361 0.000656784 0)
(-0.00279348 0.000680534 0)
(-0.0030631 0.000706594 0)
(-0.00334338 0.000735042 0)
(-0.00363528 0.000765961 0)
(-0.00393979 0.000799445 0)
(-0.00425794 0.000835591 0)
(-0.00459079 0.000874506 0)
(-0.00493945 0.000916304 0)
(-0.00530509 0.000961107 0)
(-0.00568893 0.00100904 0)
(-0.00609221 0.00106025 0)
(-0.00651628 0.00111488 0)
(-0.00696251 0.00117307 0)
(-0.00743234 0.001235 0)
(-0.00792731 0.00130083 0)
(-0.00844898 0.00137074 0)
(-0.00899904 0.00144491 0)
(-0.00957921 0.00152354 0)
(-0.0101913 0.00160682 0)
(-0.0108373 0.00169496 0)
(-0.011519 0.00178818 0)
(-0.0122387 0.00188668 0)
(-0.0129985 0.00199069 0)
(-0.0138007 0.00210044 0)
(-0.0146476 0.00221615 0)
(-0.0155417 0.00233806 0)
(-0.0164856 0.0024664 0)
(-0.0174819 0.00260139 0)
(-0.0185335 0.00274326 0)
(-0.0196432 0.00289224 0)
(-0.020814 0.00304853 0)
(-0.022049 0.00321235 0)
(-0.0233514 0.00338389 0)
(-0.0247244 0.00356332 0)
(-0.0261715 0.0037508 0)
(-0.027696 0.00394648 0)
(-0.0293015 0.00415045 0)
(-0.0309917 0.0043628 0)
(-0.0327701 0.00458356 0)
(-0.0346405 0.00481272 0)
(-0.0366066 0.00505024 0)
(-0.0386722 0.00529601 0)
(-0.0408409 0.00554985 0)
(-0.0431166 0.00581152 0)
(-0.0455028 0.00608071 0)
(-0.0480032 0.006357 0)
(-0.050621 0.00663991 0)
(-0.0533597 0.00692883 0)
(-0.0562223 0.00722307 0)
(-0.0592115 0.00752181 0)
(-0.0623301 0.00782411 0)
(-0.0655801 0.00812891 0)
(-0.0689634 0.00843501 0)
(-0.0724812 0.00874109 0)
(-0.0761344 0.00904568 0)
(-0.0799232 0.00934717 0)
(-0.0838471 0.00964382 0)
(-0.087905 0.00993375 0)
(-0.0920947 0.0102149 0)
(-0.0964135 0.0104852 0)
(-0.100857 0.0107423 0)
(-0.105421 0.0109838 0)
(-0.110099 0.0112072 0)
(-0.114884 0.0114099 0)
(-0.119767 0.011589 0)
(-0.124738 0.0117418 0)
(-0.129784 0.0118652 0)
(-0.134894 0.0119561 0)
(-0.140052 0.0120115 0)
(-0.145241 0.0120278 0)
(-0.150442 0.0120017 0)
(-0.155635 0.0119296 0)
(-0.160797 0.0118077 0)
(-0.165903 0.0116324 0)
(-0.170925 0.0114 0)
(-0.175835 0.0111063 0)
(-0.1806 0.0107463 0)
(-0.185185 0.0103147 0)
(-0.189552 0.00980654 0)
(-0.193661 0.00921901 0)
(-0.197469 0.00855118 0)
(-0.200933 0.00780209 0)
(-0.204009 0.0069696 0)
(-0.206655 0.00605122 0)
(-0.208832 0.00504577 0)
(-0.210487 0.00395464 0)
(-0.211552 0.00278213 0)
(-0.211992 0.00153267 0)
(-8.2576e-05 0.000562954 0)
(-0.000285754 0.000634102 0)
(-0.000491108 0.000641307 0)
(-0.000699863 0.000647894 0)
(-0.000910927 0.000656626 0)
(-0.0011252 0.000667634 0)
(-0.00134343 0.000680964 0)
(-0.00156638 0.00069666 0)
(-0.00179483 0.00071477 0)
(-0.00202958 0.00073535 0)
(-0.00227145 0.00075846 0)
(-0.00252127 0.000784171 0)
(-0.00277991 0.00081256 0)
(-0.00304825 0.000843711 0)
(-0.0033272 0.000877717 0)
(-0.00361773 0.000914681 0)
(-0.00392081 0.000954711 0)
(-0.00423747 0.000997927 0)
(-0.00456878 0.00104446 0)
(-0.00491583 0.00109444 0)
(-0.0052798 0.00114801 0)
(-0.00566187 0.00120534 0)
(-0.00606333 0.00126659 0)
(-0.00648548 0.00133193 0)
(-0.00692971 0.00140155 0)
(-0.00739745 0.00147564 0)
(-0.00789023 0.00155441 0)
(-0.00840962 0.00163806 0)
(-0.00895728 0.00172684 0)
(-0.00953495 0.00182095 0)
(-0.0101444 0.00192065 0)
(-0.0107877 0.00202619 0)
(-0.0114666 0.00213781 0)
(-0.0121833 0.00225579 0)
(-0.01294 0.0023804 0)
(-0.013739 0.0025119 0)
(-0.0145825 0.00265057 0)
(-0.0154731 0.00279671 0)
(-0.0164134 0.00295058 0)
(-0.017406 0.00311247 0)
(-0.0184537 0.00328266 0)
(-0.0195595 0.00346142 0)
(-0.0207262 0.00364903 0)
(-0.0219569 0.00384572 0)
(-0.023255 0.00405175 0)
(-0.0246235 0.00426735 0)
(-0.0260661 0.00449271 0)
(-0.027586 0.00472801 0)
(-0.0291869 0.00497339 0)
(-0.0308723 0.00522897 0)
(-0.032646 0.00549481 0)
(-0.0345117 0.00577092 0)
(-0.0364731 0.00605726 0)
(-0.038534 0.00635373 0)
(-0.0406983 0.00666014 0)
(-0.0429695 0.00697622 0)
(-0.0453515 0.00730163 0)
(-0.0478478 0.0076359 0)
(-0.0504619 0.00797847 0)
(-0.0531971 0.00832866 0)
(-0.0560566 0.00868564 0)
(-0.0590433 0.00904847 0)
(-0.0621597 0.00941606 0)
(-0.0654081 0.00978714 0)
(-0.0687903 0.0101603 0)
(-0.0723078 0.010534 0)
(-0.0759614 0.0109065 0)
(-0.0797513 0.0112758 0)
(-0.0836773 0.0116398 0)
(-0.087738 0.0119963 0)
(-0.0919315 0.0123428 0)
(-0.0962551 0.0126768 0)
(-0.100705 0.0129953 0)
(-0.105275 0.0132954 0)
(-0.109961 0.0135741 0)
(-0.114755 0.013828 0)
(-0.119648 0.0140537 0)
(-0.124629 0.0142476 0)
(-0.129689 0.0144059 0)
(-0.134812 0.0145248 0)
(-0.139985 0.0146002 0)
(-0.145192 0.0146278 0)
(-0.150412 0.0146033 0)
(-0.155627 0.014522 0)
(-0.160814 0.0143792 0)
(-0.165949 0.0141701 0)
(-0.171004 0.0138899 0)
(-0.17595 0.0135332 0)
(-0.180756 0.0130936 0)
(-0.185387 0.0125639 0)
(-0.189804 0.0119378 0)
(-0.193965 0.0112115 0)
(-0.197829 0.0103833 0)
(-0.201349 0.00945181 0)
(-0.204482 0.00841418 0)
(-0.207184 0.00726721 0)
(-0.209414 0.00600983 0)
(-0.211119 0.00464499 0)
(-0.21223 0.00317958 0)
(-0.212714 0.00162179 0)
(-8.21209e-05 0.000653925 0)
(-0.000284117 0.000736447 0)
(-0.000488248 0.000744814 0)
(-0.00069578 0.000752469 0)
(-0.000905612 0.000762617 0)
(-0.00111864 0.000775412 0)
(-0.0013356 0.000790907 0)
(-0.00155726 0.000809153 0)
(-0.0017844 0.000830207 0)
(-0.0020178 0.000854131 0)
(-0.00225829 0.000881 0)
(-0.00250668 0.000910892 0)
(-0.00276385 0.000943898 0)
(-0.00303067 0.000980117 0)
(-0.00330806 0.00101966 0)
(-0.00359696 0.00106264 0)
(-0.00389836 0.00110918 0)
(-0.00421326 0.00115944 0)
(-0.00454274 0.00121355 0)
(-0.00488789 0.00127167 0)
(-0.00524987 0.00133399 0)
(-0.00562987 0.00140067 0)
(-0.00602917 0.00147191 0)
(-0.00644905 0.00154792 0)
(-0.00689092 0.00162891 0)
(-0.00735619 0.00171511 0)
(-0.00784638 0.00180676 0)
(-0.00836306 0.00190411 0)
(-0.0089079 0.00200743 0)
(-0.00948261 0.00211697 0)
(-0.010089 0.00223303 0)
(-0.010729 0.0023559 0)
(-0.0114046 0.00248587 0)
(-0.0121178 0.00262326 0)
(-0.0128708 0.00276838 0)
(-0.0136659 0.00292157 0)
(-0.0145055 0.00308314 0)
(-0.015392 0.00325342 0)
(-0.0163281 0.00343276 0)
(-0.0173162 0.00362149 0)
(-0.0183594 0.00381993 0)
(-0.0194604 0.00402842 0)
(-0.0206222 0.00424726 0)
(-0.021848 0.00447677 0)
(-0.0231409 0.00471725 0)
(-0.0245042 0.00496895 0)
(-0.0259414 0.00523214 0)
(-0.0274558 0.00550703 0)
(-0.0290512 0.0057938 0)
(-0.0307311 0.0060926 0)
(-0.0324992 0.00640352 0)
(-0.0343592 0.00672659 0)
(-0.0363151 0.00706178 0)
(-0.0383706 0.007409 0)
(-0.0405294 0.00776804 0)
(-0.0427955 0.00813863 0)
(-0.0451725 0.00852037 0)
(-0.047664 0.00891277 0)
(-0.0502738 0.00931518 0)
(-0.053005 0.00972683 0)
(-0.055861 0.0101468 0)
(-0.0588447 0.010574 0)
(-0.0619588 0.0110072 0)
(-0.0652056 0.0114449 0)
(-0.068587 0.0118856 0)
(-0.0721047 0.0123273 0)
(-0.0757594 0.0127681 0)
(-0.0795516 0.0132057 0)
(-0.083481 0.0136377 0)
(-0.0875465 0.0140614 0)
(-0.0917463 0.0144739 0)
(-0.0960775 0.0148722 0)
(-0.100536 0.0152528 0)
(-0.105118 0.0156124 0)
(-0.109817 0.0159471 0)
(-0.114625 0.0162531 0)
(-0.119534 0.0165262 0)
(-0.124535 0.0167621 0)
(-0.129615 0.0169563 0)
(-0.134761 0.0171041 0)
(-0.13996 0.0172006 0)
(-0.145194 0.0172406 0)
(-0.150445 0.0172188 0)
(-0.155692 0.0171296 0)
(-0.160915 0.0169673 0)
(-0.166087 0.0167258 0)
(-0.171183 0.0163994 0)
(-0.176174 0.0159811 0)
(-0.181027 0.0154633 0)
(-0.185707 0.0148368 0)
(-0.190176 0.0140939 0)
(-0.194392 0.0132296 0)
(-0.198312 0.0122418 0)
(-0.201891 0.0111286 0)
(-0.205083 0.00988633 0)
(-0.207844 0.0085113 0)
(-0.210133 0.00700271 0)
(-0.211895 0.00536477 0)
(-0.21306 0.00360646 0)
(-0.213595 0.0017397 0)
(-8.15848e-05 0.000744338 0)
(-0.000282216 0.000838139 0)
(-0.000484954 0.000847666 0)
(-0.000691079 0.000856385 0)
(-0.000899492 0.000867942 0)
(-0.00111108 0.000882514 0)
(-0.00132658 0.000900163 0)
(-0.00154676 0.000920946 0)
(-0.00177238 0.000944926 0)
(-0.00200423 0.000972179 0)
(-0.00224312 0.00100278 0)
(-0.00248988 0.00103684 0)
(-0.00274535 0.00107443 0)
(-0.00301043 0.00111569 0)
(-0.00328601 0.00116074 0)
(-0.00357304 0.0012097 0)
(-0.00387249 0.00126273 0)
(-0.00418537 0.00131999 0)
(-0.00451274 0.00138164 0)
(-0.0048557 0.00144787 0)
(-0.00521539 0.00151887 0)
(-0.00559301 0.00159485 0)
(-0.0059898 0.00167604 0)
(-0.00640708 0.00176266 0)
(-0.00684622 0.00185497 0)
(-0.00730864 0.00195322 0)
(-0.00779585 0.0020577 0)
(-0.00830941 0.00216868 0)
(-0.00885098 0.00228646 0)
(-0.00942228 0.00241137 0)
(-0.0100251 0.00254371 0)
(-0.0106614 0.00268383 0)
(-0.0113331 0.00283207 0)
(-0.0120422 0.0029888 0)
(-0.012791 0.00315436 0)
(-0.0135817 0.00332915 0)
(-0.0144167 0.00351353 0)
(-0.0152985 0.00370789 0)
(-0.0162296 0.00391261 0)
(-0.0172126 0.00412809 0)
(-0.0182505 0.0043547 0)
(-0.019346 0.00459283 0)
(-0.0205022 0.00484284 0)
(-0.0217221 0.0051051 0)
(-0.0230091 0.00537994 0)
(-0.0243663 0.0056677 0)
(-0.0257973 0.00596866 0)
(-0.0273054 0.00628309 0)
(-0.0288943 0.00661121 0)
(-0.0305677 0.00695321 0)
(-0.0323292 0.00730919 0)
(-0.0341828 0.00767923 0)
(-0.0361321 0.0080633 0)
(-0.0381811 0.00846131 0)
(-0.0403337 0.00887306 0)
(-0.0425936 0.00929825 0)
(-0.0449647 0.00973646 0)
(-0.0474506 0.0101871 0)
(-0.0500551 0.0106496 0)
(-0.0527816 0.0111229 0)
(-0.0556333 0.0116062 0)
(-0.0586133 0.012098 0)
(-0.0617245 0.0125972 0)
(-0.0649692 0.013102 0)
(-0.0683495 0.0136106 0)
(-0.0718669 0.0141209 0)
(-0.0755227 0.0146306 0)
(-0.0793172 0.0151371 0)
(-0.0832502 0.0156378 0)
(-0.0873209 0.0161294 0)
(-0.0915275 0.0166087 0)
(-0.0958672 0.0170721 0)
(-0.100337 0.0175158 0)
(-0.104931 0.0179358 0)
(-0.109644 0.0183276 0)
(-0.114469 0.0186867 0)
(-0.119398 0.0190083 0)
(-0.12442 0.0192874 0)
(-0.129524 0.0195187 0)
(-0.134697 0.0196967 0)
(-0.139925 0.0198156 0)
(-0.145191 0.0198694 0)
(-0.150478 0.0198517 0)
(-0.155764 0.019756 0)
(-0.161028 0.0195755 0)
(-0.166245 0.0193032 0)
(-0.171389 0.0189319 0)
(-0.176431 0.0184536 0)
(-0.181339 0.0178589 0)
(-0.186077 0.0171371 0)
(-0.190607 0.0162787 0)
(-0.194888 0.0152778 0)
(-0.198876 0.0141316 0)
(-0.202525 0.0128376 0)
(-0.205789 0.0113911 0)
(-0.208623 0.00978753 0)
(-0.210984 0.00802631 0)
(-0.212813 0.00611297 0)
(-0.21404 0.00405914 0)
(-0.214631 0.00188138 0)
(-8.09719e-05 0.000834109 0)
(-0.000280059 0.000939092 0)
(-0.000481229 0.000949771 0)
(-0.000685764 0.00095955 0)
(-0.000892575 0.000972508 0)
(-0.00110254 0.000988847 0)
(-0.00131639 0.00100864 0)
(-0.00153489 0.00103194 0)
(-0.00175879 0.00105883 0)
(-0.00198889 0.00108939 0)
(-0.00222598 0.00112371 0)
(-0.00247088 0.00116189 0)
(-0.00272444 0.00120405 0)
(-0.00298754 0.00125032 0)
(-0.00326108 0.00130084 0)
(-0.00354599 0.00135575 0)
(-0.00384324 0.00141522 0)
(-0.00415384 0.00147944 0)
(-0.00447883 0.00154858 0)
(-0.00481931 0.00162287 0)
(-0.00517641 0.00170251 0)
(-0.00555133 0.00178774 0)
(-0.0059453 0.00187881 0)
(-0.00635963 0.00197599 0)
(-0.00679568 0.00207955 0)
(-0.00725487 0.00218978 0)
(-0.0077387 0.00230701 0)
(-0.00824873 0.00243154 0)
(-0.00878661 0.00256372 0)
(-0.00935404 0.0027039 0)
(-0.00995284 0.00285245 0)
(-0.0105849 0.00300974 0)
(-0.0112521 0.00317616 0)
(-0.0119567 0.00335212 0)
(-0.0127007 0.00353804 0)
(-0.0134864 0.00373433 0)
(-0.0143162 0.00394142 0)
(-0.0151926 0.00415976 0)
(-0.016118 0.00438977 0)
(-0.0170953 0.0046319 0)
(-0.0181271 0.00488659 0)
(-0.0192164 0.00515427 0)
(-0.0203662 0.00543536 0)
(-0.0215795 0.00573027 0)
(-0.0228597 0.00603941 0)
(-0.02421 0.00636314 0)
(-0.0256338 0.00670181 0)
(-0.0271347 0.00705573 0)
(-0.0287162 0.00742516 0)
(-0.0303822 0.00781032 0)
(-0.0321362 0.00821136 0)
(-0.0339823 0.00862837 0)
(-0.0359241 0.00906134 0)
(-0.0379658 0.00951019 0)
(-0.040111 0.00997473 0)
(-0.0423638 0.0104546 0)
(-0.0447281 0.0109494 0)
(-0.0472075 0.0114586 0)
(-0.0498059 0.0119812 0)
(-0.0525267 0.0125165 0)
(-0.0553734 0.0130633 0)
(-0.0583491 0.0136203 0)
(-0.0614566 0.0141858 0)
(-0.0646987 0.0147581 0)
(-0.0680774 0.0153351 0)
(-0.0715944 0.0159146 0)
(-0.0752509 0.0164938 0)
(-0.0790477 0.0170701 0)
(-0.0829845 0.0176401 0)
(-0.0870607 0.0182005 0)
(-0.0912746 0.0187475 0)
(-0.0956236 0.0192771 0)
(-0.100104 0.0197848 0)
(-0.104712 0.0202662 0)
(-0.109442 0.0207162 0)
(-0.114285 0.0211297 0)
(-0.119235 0.0215012 0)
(-0.124281 0.0218248 0)
(-0.129412 0.0220946 0)
(-0.134615 0.0223043 0)
(-0.139876 0.0224471 0)
(-0.145179 0.0225161 0)
(-0.150505 0.0225042 0)
(-0.155835 0.0224038 0)
(-0.161146 0.0222069 0)
(-0.166415 0.0219054 0)
(-0.171614 0.0214911 0)
(-0.176715 0.0209547 0)
(-0.181686 0.020285 0)
(-0.186492 0.0194698 0)
(-0.191095 0.0184979 0)
(-0.195452 0.0173622 0)
(-0.19952 0.0160593 0)
(-0.203253 0.0145856 0)
(-0.206602 0.0129353 0)
(-0.209522 0.0111029 0)
(-0.211965 0.00908779 0)
(-0.213874 0.00689673 0)
(-0.215172 0.00454419 0)
(-0.215827 0.00205186 0)
(-8.02848e-05 0.000923155 0)
(-0.000277651 0.00103922 0)
(-0.000477076 0.00105104 0)
(-0.000679843 0.00106187 0)
(-0.000884869 0.00107622 0)
(-0.00109303 0.00109432 0)
(-0.00130504 0.00111623 0)
(-0.00152167 0.00114203 0)
(-0.00174366 0.00117181 0)
(-0.0019718 0.00120566 0)
(-0.00220687 0.00124366 0)
(-0.00244971 0.00128595 0)
(-0.00270114 0.00133265 0)
(-0.00296204 0.00138389 0)
(-0.00323331 0.00143984 0)
(-0.00351585 0.00150066 0)
(-0.00381065 0.00156653 0)
(-0.0041187 0.00163765 0)
(-0.00444104 0.00171424 0)
(-0.00477875 0.00179652 0)
(-0.00513297 0.00188474 0)
(-0.00550487 0.00197916 0)
(-0.00589569 0.00208005 0)
(-0.00630673 0.00218771 0)
(-0.00673934 0.00230245 0)
(-0.00719493 0.0024246 0)
(-0.00767499 0.00255449 0)
(-0.00818108 0.00269249 0)
(-0.00871482 0.00283898 0)
(-0.00927794 0.00299435 0)
(-0.00987223 0.003159 0)
(-0.0104996 0.00333336 0)
(-0.0111619 0.00351786 0)
(-0.0118613 0.00371296 0)
(-0.0125999 0.00391912 0)
(-0.0133801 0.00413681 0)
(-0.0142041 0.00436651 0)
(-0.0150744 0.00460871 0)
(-0.0159935 0.0048639 0)
(-0.0169643 0.00513258 0)
(-0.0179893 0.00541524 0)
(-0.0190717 0.00571236 0)
(-0.0202142 0.00602442 0)
(-0.0214202 0.0063519 0)
(-0.0226927 0.00669523 0)
(-0.0240352 0.00705486 0)
(-0.025451 0.00743116 0)
(-0.0269437 0.0078245 0)
(-0.028517 0.00823518 0)
(-0.0301746 0.00866346 0)
(-0.0319202 0.00910954 0)
(-0.0337578 0.00957351 0)
(-0.0356912 0.0100554 0)
(-0.0377244 0.0105552 0)
(-0.0398614 0.0110726 0)
(-0.0421062 0.0116073 0)
(-0.0444626 0.0121588 0)
(-0.0469346 0.0127266 0)
(-0.049526 0.0133098 0)
(-0.0522403 0.0139073 0)
(-0.0550812 0.014518 0)
(-0.0580518 0.0151403 0)
(-0.0611552 0.0157727 0)
(-0.064394 0.016413 0)
(-0.0677707 0.017059 0)
(-0.0712869 0.0177083 0)
(-0.0749441 0.0183578 0)
(-0.0787431 0.0190045 0)
(-0.0826839 0.0196448 0)
(-0.086766 0.0202749 0)
(-0.0909878 0.0208906 0)
(-0.095347 0.0214874 0)
(-0.0998402 0.0220604 0)
(-0.104463 0.0226044 0)
(-0.10921 0.023114 0)
(-0.114074 0.0235832 0)
(-0.119047 0.024006 0)
(-0.12412 0.0243757 0)
(-0.129281 0.0246855 0)
(-0.134518 0.0249285 0)
(-0.139816 0.0250969 0)
(-0.145159 0.0251831 0)
(-0.15053 0.0251789 0)
(-0.155909 0.0250756 0)
(-0.161273 0.0248643 0)
(-0.166599 0.0245359 0)
(-0.17186 0.0240809 0)
(-0.177029 0.0234886 0)
(-0.182072 0.0227463 0)
(-0.186956 0.02184 0)
(-0.191641 0.0207569 0)
(-0.196085 0.0194887 0)
(-0.200246 0.018031 0)
(-0.204075 0.016379 0)
(-0.207522 0.0145255 0)
(-0.21054 0.0124637 0)
(-0.21308 0.0101927 0)
(-0.215079 0.0077206 0)
(-0.216459 0.0050648 0)
(-0.217183 0.00225284 0)
(-7.95252e-05 0.0010114 0)
(-0.000274994 0.00113843 0)
(-0.000472501 0.00115138 0)
(-0.000673319 0.00116326 0)
(-0.00087638 0.00117899 0)
(-0.00108255 0.00119883 0)
(-0.00129254 0.00122285 0)
(-0.0015071 0.00125114 0)
(-0.00172699 0.00128378 0)
(-0.00195297 0.00132088 0)
(-0.00218583 0.00136255 0)
(-0.00242639 0.00140891 0)
(-0.00267548 0.00146011 0)
(-0.00293395 0.00151629 0)
(-0.0032027 0.00157762 0)
(-0.00348265 0.0016443 0)
(-0.00377475 0.00171652 0)
(-0.00407999 0.0017945 0)
(-0.0043994 0.00187848 0)
(-0.00473407 0.0019687 0)
(-0.0050851 0.00206543 0)