/*--------------------------------*- C++ -*----------------------------------*\
| =========                 |                                                 |
| \\      /  F ield         | OpenFOAM: The Open Source CFD Toolbox           |
|  \\    /   O peration     | Version:  2.4.0                                 |
|   \\  /    A nd           | Web:      www.OpenFOAM.org                      |
|    \\/     M anipulation  |                                                 |
\*---------------------------------------------------------------------------*/
FoamFile
{
    version     2.0;
    format      ascii;
    class       volScalarField;
    location    "0.363";
    object      alpha.water;
}
// * * * * * * * * * * * * * * * * * * * * * * * * * * * * * * * * * * * * * //

dimensions      [0 0 0 0 0 0 0];

internalField   nonuniform List<scalar> 
10000
(
2.0725e-50
1.38202e-46
6.63644e-43
1.43936e-39
7.3074e-37
1.0447e-34
5.75838e-33
1.51148e-31
2.16431e-30
1.85236e-29
1.04063e-28
4.21166e-28
1.38808e-27
4.39092e-27
1.46125e-26
5.15003e-26
1.9941e-25
8.31872e-25
3.39733e-24
1.3313e-23
4.94298e-23
1.72168e-22
5.6151e-22
1.7066e-21
4.79564e-21
1.22439e-20
2.78129e-20
5.52447e-20
9.17968e-20
1.1827e-19
1.16249e-19
8.73957e-20
5.16428e-20
2.51681e-20
1.06911e-20
4.19035e-21
1.5758e-21
5.67772e-22
1.91525e-22
5.9014e-23
1.6222e-23
3.90492e-24
8.1135e-25
1.43962e-25
2.16747e-26
2.79141e-27
4.10779e-28
3.32671e-28
6.93172e-28
1.3453e-27
1.34644e-47
1.41595e-43
1.00246e-39
2.0201e-36
8.24863e-34
9.9479e-32
4.83193e-30
1.15601e-28
1.55051e-27
1.26962e-26
6.90661e-26
2.71489e-25
8.63188e-25
2.60415e-24
8.20966e-24
2.73376e-23
9.8984e-23
3.82744e-22
1.45255e-21
5.26421e-21
1.8032e-20
5.81766e-20
1.76682e-19
5.02609e-19
1.3298e-18
3.22428e-18
7.01303e-18
1.33927e-17
2.17669e-17
2.87612e-17
3.05763e-17
2.62258e-17
1.83633e-17
1.07719e-17
5.48862e-18
2.5208e-18
1.0711e-18
4.24788e-19
1.56338e-19
5.26933e-20
1.59961e-20
4.30903e-21
1.01793e-21
2.09054e-22
3.71317e-23
5.73279e-24
9.23737e-25
6.05512e-25
1.36369e-24
3.13504e-24
2.84303e-45
5.02958e-41
4.37275e-37
7.36026e-34
2.44066e-31
2.49885e-29
1.07199e-27
2.33939e-26
2.93982e-25
2.304e-24
1.21475e-23
4.64778e-23
1.42778e-22
4.10616e-22
1.22273e-21
3.83676e-21
1.30144e-20
4.67579e-20
1.65524e-19
5.57292e-19
1.76434e-18
5.27103e-18
1.49056e-17
3.97448e-17
9.91256e-17
2.28344e-16
4.77192e-16
8.83508e-16
1.41518e-15
1.90212e-15
2.12691e-15
1.98179e-15
1.54773e-15
1.02891e-15
5.96736e-16
3.09859e-16
1.46928e-16
6.42334e-17
2.58761e-17
9.53283e-18
3.17494e-18
9.45155e-19
2.49125e-19
5.77443e-20
1.17267e-20
2.09894e-21
3.89686e-22
2.65465e-22
6.6766e-22
1.82996e-21
3.53454e-43
8.41617e-39
8.9129e-35
1.21613e-31
3.2823e-29
2.86357e-27
1.0875e-25
2.16797e-24
2.55448e-23
1.91737e-22
9.80825e-22
3.66111e-21
1.08887e-20
2.98596e-20
8.37742e-20
2.46865e-19
7.84482e-19
2.62356e-18
8.68313e-18
2.72569e-17
8.00161e-17
2.21525e-16
5.83274e-16
1.45862e-15
3.4351e-15
7.52434e-15
1.50984e-14
2.71538e-14
4.289e-14
5.82306e-14
6.74187e-14
6.6527e-14
5.60797e-14
4.07619e-14
2.59911e-14
1.48266e-14
7.68988e-15
3.65948e-15
1.6e-15
6.39336e-16
2.31417e-16
7.51772e-17
2.17456e-17
5.56989e-18
1.26016e-18
2.53935e-19
5.47207e-20
4.50909e-20
1.29389e-19
4.11374e-19
2.26364e-41
9.15858e-37
1.06315e-32
1.13765e-29
2.50549e-27
1.87059e-25
6.31038e-24
1.15161e-22
1.27356e-21
9.16071e-21
4.55132e-20
1.66099e-19
4.79546e-19
1.25551e-18
3.31381e-18
9.13911e-18
2.71634e-17
8.46342e-17
2.62249e-16
7.69439e-16
2.10201e-15
5.40472e-15
1.32588e-14
3.11033e-14
6.92183e-14
1.44282e-13
2.77771e-13
4.84884e-13
7.53769e-13
1.02777e-12
1.21906e-12
1.25548e-12
1.12112e-12
8.71718e-13
5.97562e-13
3.66922e-13
2.04688e-13
1.04646e-13
4.91267e-14
2.10856e-14
8.21123e-15
2.8772e-15
9.00716e-16
2.50713e-16
6.19428e-17
1.37441e-17
3.43268e-18
3.56994e-18
1.13499e-17
3.88246e-17
9.15363e-40
8.16264e-35
8.20587e-31
6.77591e-28
1.22405e-25
7.8635e-24
2.36607e-22
3.96151e-21
4.11532e-20
2.8376e-19
1.37027e-18
4.89822e-18
1.37714e-17
3.45028e-17
8.56633e-17
2.20459e-16
6.10939e-16
1.77292e-15
5.14755e-15
1.41414e-14
3.60538e-14
8.63319e-14
1.97623e-13
4.3508e-13
9.15221e-13
1.81546e-12
3.34995e-12
5.66415e-12
8.64306e-12
1.17727e-11
1.42029e-11
1.51259e-11
1.41466e-11
1.1608e-11
8.43062e-12
5.49444e-12
3.25642e-12
1.77012e-12
8.84291e-13
4.04374e-13
1.68041e-13
6.29534e-14
2.11169e-14
6.31363e-15
1.68031e-15
4.04259e-16
1.15269e-16
1.42619e-16
4.70767e-16
1.60517e-15
2.77206e-38
5.91749e-33
4.34387e-29
2.76858e-26
4.13242e-24
2.29817e-22
6.19181e-21
9.52829e-20
9.30122e-19
6.14639e-18
2.88547e-17
1.01157e-16
2.77916e-16
6.68498e-16
1.56352e-15
3.74752e-15
9.64258e-15
2.60235e-14
7.08058e-14
1.82401e-13
4.34974e-13
9.72165e-13
2.08042e-12
4.30327e-12
8.56089e-12
1.61582e-11
2.85379e-11
4.66049e-11
6.95823e-11
9.42443e-11
1.14991e-10
1.25837e-10
1.22383e-10
1.05046e-10
8.00356e-11
5.4825e-11
3.42222e-11
1.96336e-11
1.03729e-11
5.02674e-12
2.21807e-12
8.8399e-13
3.16009e-13
1.00856e-13
2.86987e-14
7.41198e-15
2.32351e-15
3.06185e-15
9.95422e-15
3.28197e-14
7.7597e-37
3.2474e-31
1.65199e-27
8.19388e-25
1.0185e-22
4.93071e-21
1.19318e-19
1.68945e-18
1.5492e-17
9.8012e-17
4.47078e-16
1.53779e-15
4.14222e-15
9.60552e-15
2.12271e-14
4.736e-14
1.12663e-13
2.82008e-13
7.18373e-13
1.73742e-12
3.88273e-12
8.11501e-12
1.62628e-11
3.16508e-11
5.95962e-11
1.07045e-10
1.80792e-10
2.84415e-10
4.13823e-10
5.5489e-10
6.81789e-10
7.63417e-10
7.68628e-10
6.85897e-10
5.44187e-10
3.88848e-10
2.53993e-10
1.53058e-10
8.52358e-11
4.36746e-11
2.04308e-11
8.65136e-12
3.29176e-12
1.11961e-12
3.39789e-13
9.36234e-14
3.07077e-14
3.8484e-14
1.19657e-13
3.77151e-13
2.90547e-35
1.32951e-29
4.70506e-26
1.83352e-23
1.91126e-21
8.09022e-20
1.76231e-18
2.29675e-17
1.97613e-16
1.19461e-15
5.28634e-15
1.78284e-14
4.72108e-14
1.06034e-13
2.22385e-13
4.62465e-13
1.01377e-12
2.34465e-12
5.58026e-12
1.26823e-11
2.66071e-11
5.20876e-11
9.79058e-11
1.79524e-10
3.20164e-10
5.4752e-10
8.84391e-10
1.33841e-09
1.89217e-09
2.50392e-09
3.08951e-09
3.53254e-09
3.67471e-09
3.39171e-09
2.7827e-09
2.05977e-09
1.40039e-09
8.83616e-10
5.18148e-10
2.8084e-10
1.39457e-10
6.28529e-11
2.55033e-11
9.26111e-12
3.00153e-12
8.80242e-13
2.90168e-13
3.11362e-13
8.99158e-13
2.71581e-12
1.50792e-33
4.16988e-28
1.03999e-24
3.21074e-22
2.82313e-20
1.0485e-18
2.0591e-17
2.46935e-16
1.98971e-15
1.14584e-14
4.90496e-14
1.61869e-13
4.22012e-13
9.22306e-13
1.8459e-12
3.59047e-12
7.24332e-12
1.54134e-11
3.41648e-11
7.2995e-11
1.44018e-10
2.6448e-10
4.66912e-10
8.07255e-10
1.36412e-09
2.22147e-09
3.43355e-09
5.00173e-09
6.87518e-09
8.99804e-09
1.11714e-08
1.30649e-08
1.40724e-08
1.33801e-08
1.12545e-08
8.54613e-09
6.00437e-09
3.95335e-09
2.43995e-09
1.40087e-09
7.40322e-10
3.5633e-10
1.5478e-10
6.02477e-11
2.09305e-11
6.54453e-12
2.13544e-12
1.78935e-12
4.60109e-12
1.33643e-11
7.301e-32
1.03341e-26
1.83605e-23
4.52345e-21
3.37105e-19
1.10163e-17
1.95276e-16
2.15368e-15
1.62126e-14
8.85946e-14
3.65305e-13
1.17542e-12
3.01591e-12
6.44021e-12
1.23734e-11
2.26381e-11
4.2096e-11
8.21201e-11
1.68841e-10
3.39049e-10
6.3008e-10
1.08724e-09
1.80444e-09
2.94186e-09
4.70728e-09
7.29205e-09
1.07797e-08
1.51345e-08
2.03292e-08
2.66334e-08
3.36711e-08
4.06903e-08
4.59828e-08
4.5034e-08
3.83815e-08
2.94376e-08
2.11095e-08
1.43942e-08
9.31368e-09
5.65467e-09
3.18034e-09
1.63732e-09
7.63603e-10
3.19886e-10
1.19681e-10
4.01068e-11
1.31148e-11
8.13837e-12
1.72468e-11
4.80545e-11
2.80623e-30
2.07367e-25
2.64766e-22
5.23668e-20
3.32124e-18
9.57548e-17
1.53406e-15
1.55557e-14
1.09162e-13
5.63626e-13
2.22669e-12
6.94948e-12
1.75001e-11
3.66127e-11
6.79135e-11
1.17714e-10
2.02785e-10
3.61999e-10
6.87359e-10
1.29665e-09
2.27235e-09
3.6897e-09
5.75968e-09
8.84853e-09
1.33771e-08
1.96441e-08
2.76681e-08
3.73684e-08
4.924e-08
6.59165e-08
8.70299e-08
1.11777e-07
1.39208e-07
1.42311e-07
1.2095e-07
9.10303e-08
6.51061e-08
4.52449e-08
3.03097e-08
1.92573e-08
1.14365e-08
6.26803e-09
3.13351e-09
1.4143e-09
5.71769e-10
2.06641e-10
6.96065e-11
3.28766e-11
5.08745e-11
1.33436e-10
8.70111e-29
3.42683e-24
3.16604e-21
5.05223e-19
2.73732e-17
6.98236e-16
1.01291e-14
9.44983e-14
6.1748e-13
3.00177e-12
1.12999e-11
3.3993e-11
8.35717e-11
1.71379e-10
3.08338e-10
5.1023e-10
8.21097e-10
1.34305e-09
2.34546e-09
4.15771e-09
6.87656e-09
1.05146e-08
1.5438e-08
2.23152e-08
3.17469e-08
4.39112e-08
5.85185e-08
7.57473e-08
9.75168e-08
1.37103e-07
1.98433e-07
2.91727e-07
4.45299e-07
4.91587e-07
4.0832e-07
2.8762e-07
1.96017e-07
1.33305e-07
8.90164e-08
5.736e-08
3.51815e-08
2.0251e-08
1.07791e-08
5.23206e-09
2.28929e-09
8.97027e-10
3.19785e-10
1.27601e-10
1.28901e-10
3.0003e-10
2.2031e-27
4.70276e-23
3.16224e-20
4.09025e-18
1.90045e-16
4.30264e-15
5.66669e-14
4.87318e-13
2.96683e-12
1.35574e-11
4.84257e-11
1.39565e-10
3.32667e-10
6.67058e-10
1.16731e-09
1.85711e-09
2.82063e-09
4.24787e-09
6.79743e-09
1.13499e-08
1.77377e-08
2.55348e-08
3.52352e-08
4.78468e-08
6.36997e-08
8.22612e-08
1.03156e-07
1.28678e-07
1.59648e-07
2.48597e-07
4.00689e-07
6.24449e-07
8.94773e-07
8.27721e-07
9.04384e-07
7.59795e-07
5.3884e-07
3.5834e-07
2.3091e-07
1.45901e-07
9.02148e-08
5.38304e-08
3.03745e-08
1.58773e-08
7.55553e-09
3.23472e-09
1.24766e-09
4.74481e-10
3.12944e-10
5.74121e-10
4.56701e-26
5.35888e-22
2.63932e-19
2.78106e-17
1.11267e-15
2.24375e-14
2.69127e-13
2.13951e-12
1.21637e-11
5.22911e-11
1.76955e-10
4.8663e-10
1.1171e-09
2.17964e-09
3.71182e-09
5.70729e-09
8.26486e-09
1.15387e-08
1.68774e-08
2.66546e-08
3.94345e-08
5.33783e-08
6.90509e-08
8.80749e-08
1.09131e-07
1.3016e-07
1.53089e-07
1.84523e-07
2.10691e-07
4.01787e-07
6.03894e-07
6.06982e-07
3.88183e-06
1.00004e-05
5.92808e-06
1.14642e-06
8.47701e-07
5.97299e-07
4.03686e-07
2.64792e-07
1.70957e-07
1.0827e-07
6.5986e-08
3.77509e-08
1.98217e-08
9.39747e-09
3.99741e-09
1.58032e-09
7.8753e-10
9.96646e-10
7.6853e-25
5.0394e-21
1.83351e-18
1.58325e-16
5.47932e-15
9.87802e-14
1.08259e-12
7.98119e-12
4.25052e-11
1.72356e-10
5.53303e-10
1.45088e-09
3.19495e-09
6.03404e-09
9.98807e-09
1.48913e-08
2.07332e-08
2.70237e-08
3.63486e-08
5.43802e-08
7.59128e-08
9.61666e-08
1.16066e-07
1.39591e-07
1.60254e-07
1.74857e-07
1.97683e-07
2.30172e-07
2.11729e-07
6.02434e-07
5.13449e-07
4.36288e-06
1.58644e-05
1.5864e-05
1.58624e-05
1.21287e-05
8.47261e-07
5.03503e-07
4.61894e-07
3.44407e-07
2.43104e-07
1.6749e-07
1.12012e-07
7.10135e-08
4.15797e-08
2.20357e-08
1.04546e-08
4.48966e-09
2.01445e-09
1.70067e-09
1.03246e-23
3.87693e-20
1.05418e-17
7.51367e-16
2.26082e-14
3.65788e-13
3.67467e-12
2.51959e-11
1.2607e-10
4.83681e-10
1.47717e-09
3.70138e-09
7.81901e-09
1.4256e-08
2.29181e-08
3.32206e-08
4.47706e-08
5.51022e-08
7.02374e-08
9.89935e-08
1.27367e-07
1.50177e-07
1.69181e-07
1.93465e-07
2.00513e-07
2.07064e-07
2.44828e-07
2.57038e-07
2.57693e-07
3.90713e-07
5.12909e-07
5.13151e-07
8.80912e-06
1.58616e-05
1.31201e-05
2.09326e-06
5.70031e-07
7.94978e-07
4.65824e-07
3.9851e-07
2.96045e-07
2.19479e-07
1.61091e-07
1.13306e-07
7.39927e-08
4.38176e-08
2.32089e-08
1.09973e-08
4.96265e-09
3.07196e-09
1.08695e-22
2.41958e-19
4.98915e-17
2.96069e-15
7.79119e-14
1.13618e-12
1.04961e-11
6.7109e-11
3.16223e-10
1.15073e-09
3.35223e-09
8.05015e-09
1.63594e-08
2.88359e-08
4.51082e-08
6.38901e-08
8.40488e-08
1.00586e-07
1.26458e-07
1.6638e-07
1.9038e-07
2.17137e-07
2.38436e-07
2.615e-07
2.24915e-07
3.9335e-07
4.2756e-07
3.54496e-07
3.07538e-07
2.98489e-07
4.00141e-07
6.36728e-07
1.60927e-06
3.29548e-06
2.85359e-06
1.67067e-06
5.55755e-07
5.46924e-07
4.73058e-07
3.79125e-07
3.07814e-07
2.5424e-07
2.07589e-07
1.62021e-07
1.17289e-07
7.70124e-08
4.52591e-08
2.37041e-08
1.13449e-08
5.98599e-09
8.83306e-22
1.21638e-18
1.93533e-16
9.66158e-15
2.23941e-13
2.95852e-12
2.52268e-11
1.50816e-10
6.70672e-10
2.31907e-09
6.45518e-09
1.48862e-08
2.91869e-08
4.99166e-08
7.63605e-08
1.06648e-07
1.39005e-07
1.69587e-07
2.09239e-07
2.54948e-07
2.68551e-07
3.23761e-07
3.77628e-07
4.02279e-07
4.00728e-07
3.81617e-07
6.03693e-07
4.63666e-07
3.49308e-07
3.14486e-07
3.23517e-07
4.05569e-07
5.8826e-07
7.31873e-07
6.15534e-07
5.98303e-07
5.57401e-07
4.69892e-07
3.98282e-07
3.52474e-07
3.22505e-07
2.9633e-07
2.65786e-07
2.26046e-07
1.77148e-07
1.25706e-07
8.02125e-08
4.5854e-08
2.36602e-08
1.20051e-08
5.4827e-21
4.89764e-18
6.13608e-16
2.6094e-14
5.3738e-13
6.4728e-12
5.11861e-11
2.87159e-10
1.20839e-09
3.97847e-09
1.05976e-08
2.34975e-08
4.45267e-08
7.41046e-08
1.11479e-07
1.55046e-07
2.04317e-07
2.61998e-07
3.32048e-07
3.93539e-07
4.35827e-07
4.57873e-07
5.67709e-07
6.21545e-07
5.93215e-07
5.23517e-07
4.31007e-07
3.77099e-07
3.48798e-07
3.35959e-07
3.3475e-07
3.46916e-07
3.79197e-07
4.12627e-07
4.13911e-07
6.64579e-07
4.63329e-07
4.2302e-07
4.0032e-07
3.95868e-07
3.97974e-07
3.97316e-07
3.87305e-07
3.51392e-07
2.8831e-07
2.12454e-07
1.40643e-07
8.44929e-08
4.62151e-08
2.38014e-08
2.57891e-20
1.57288e-17
1.58932e-15
5.84417e-14
1.08073e-12
1.1963e-11
8.82753e-11
4.67016e-10
1.8672e-09
5.87302e-09
1.50119e-08
3.20728e-08
5.88512e-08
9.55271e-08
1.41933e-07
1.97057e-07
2.65999e-07
3.67419e-07
4.87232e-07
5.80191e-07
6.63147e-07
6.50154e-07
8.05176e-07
8.15235e-07
7.67126e-07
6.80326e-07
5.78379e-07
4.90545e-07
4.24546e-07
3.87076e-07
3.71823e-07
3.70144e-07
3.75897e-07
3.97839e-07
4.35691e-07
4.42206e-07
4.61502e-07
4.71696e-07
4.81809e-07
5.00301e-07
5.26605e-07
5.67488e-07
6.00752e-07
5.25907e-07
4.40133e-07
3.79562e-07
2.68739e-07
1.65064e-07
9.25855e-08
4.8377e-08
9.11964e-20
4.02632e-17
3.37259e-15
1.091e-13
1.83402e-12
1.88328e-11
1.30663e-10
6.56089e-10
2.50654e-09
7.57171e-09
1.86637e-08
3.86022e-08
6.88821e-08
1.09462e-07
1.61196e-07
2.21044e-07
3.06151e-07
4.53839e-07
5.98293e-07
6.87464e-07
8.13739e-07
1.29248e-06
1.08863e-06
9.36168e-07
8.87618e-07
9.0934e-07
7.55064e-07
6.31107e-07
5.24978e-07
4.5066e-07
4.0187e-07
3.85133e-07
3.87217e-07
5.27073e-07
5.88352e-07
5.83332e-07
5.67396e-07
5.5674e-07
5.53594e-07
5.63052e-07
5.47556e-07
4.96748e-07
9.72354e-07
2.55612e-06
2.37175e-06
8.73509e-07
4.51097e-07
3.10218e-07
1.80146e-07
9.65665e-08
2.43249e-19
8.25527e-17
5.90223e-15
1.71116e-13
2.65021e-12
2.55119e-11
1.67894e-10
8.06387e-10
2.96538e-09
8.66509e-09
2.07487e-08
4.18578e-08
7.31688e-08
1.1454e-07
1.67761e-07
2.23446e-07
3.25789e-07
5.04088e-07
5.07511e-07
9.03136e-07
1.18613e-06
1.5896e-06
1.51797e-06
3.27998e-06
2.42396e-06
9.16608e-07
9.82227e-07
6.9322e-07
5.90412e-07
4.99872e-07
4.1094e-07
4.02278e-07
4.39597e-07
5.49981e-07
6.20093e-07
6.1999e-07
6.20455e-07
6.15277e-07
5.97424e-07
5.77634e-07
5.60962e-07
4.95205e-07
2.06751e-06
1.42706e-05
1.4748e-05
5.47055e-06
3.28015e-07
3.18977e-07
2.38842e-07
1.54333e-07
4.96366e-19
1.36891e-16
8.5969e-15
2.27606e-13
3.29333e-12
3.00548e-11
1.89432e-10
8.78011e-10
3.13464e-09
8.93828e-09
2.09836e-08
4.16889e-08
7.20681e-08
1.1196e-07
1.63302e-07
2.10821e-07
3.39827e-07
5.11841e-07
5.92814e-07
7.36192e-07
4.08145e-07
8.66054e-07
1.2073e-05
3.10061e-05
2.67594e-05
8.16858e-06
6.98414e-07
6.91365e-07
5.98348e-07
5.00381e-07
6.11084e-07
4.05261e-07
4.04877e-07
6.27608e-07
7.48499e-07
6.94715e-07
6.95991e-07
7.08828e-07
6.72066e-07
6.09068e-07
5.73751e-07
4.94621e-07
8.44665e-06
1.47504e-05
1.47494e-05
1.47479e-05
3.70194e-06
2.63433e-07
2.59011e-07
1.95311e-07
7.90028e-19
1.85718e-16
1.05249e-14
2.59176e-13
3.55291e-12
3.10963e-11
1.89646e-10
8.56442e-10
2.99679e-09
8.42036e-09
1.95789e-08
3.87118e-08
6.68539e-08
1.03849e-07
1.50763e-07
1.94678e-07
3.28477e-07
3.99944e-07
7.23185e-07
4.79857e-07
3.46083e-07
1.0856e-05
3.11875e-05
3.11833e-05
3.11687e-05
3.04715e-05
4.51181e-06
4.99347e-07
5.15746e-07
4.57913e-07
4.04784e-07
4.02e-07
4.02761e-07
4.05576e-07
4.06376e-07
5.99941e-07
9.13591e-07
9.16594e-07
9.10699e-07
8.11701e-07
5.09577e-07
4.94566e-07
6.94009e-07
1.27466e-05
1.47496e-05
8.56826e-06
5.44819e-07
3.32315e-07
3.38844e-07
2.62935e-07
9.9967e-19
2.0859e-16
1.09354e-14
2.5488e-13
3.35571e-12
2.84972e-11
1.69945e-10
7.55338e-10
2.61642e-09
7.31789e-09
1.70274e-08
3.38522e-08
5.89811e-08
9.23867e-08
1.34006e-07
1.78088e-07
2.67108e-07
3.83096e-07
3.59768e-07
5.418e-07
3.41977e-07
1.55912e-05
3.11792e-05
3.11691e-05
3.11641e-05
3.11542e-05
8.26666e-06
4.53467e-07
5.91121e-07
4.28074e-07
4.25422e-07
4.14935e-07
4.11122e-07
4.16882e-07
4.20594e-07
5.1916e-07
5.89333e-07
5.63018e-07
5.26945e-07
7.36416e-07
7.77013e-07
5.18669e-07
4.72592e-07
1.72811e-06
3.19602e-06
2.04332e-06
5.07126e-07
4.82238e-07
4.4412e-07
3.65177e-07
1.02277e-18
1.96088e-16
9.72345e-15
2.18016e-13
2.79285e-12
2.32745e-11
1.37153e-10
6.06038e-10
2.09893e-09
5.90166e-09
1.38759e-08
2.80012e-08
4.96673e-08
7.91569e-08
1.1581e-07
1.55377e-07
2.11333e-07
2.8868e-07
3.56409e-07
3.33448e-07
3.37945e-07
3.44645e-06
2.83801e-05
3.11625e-05
3.11571e-05
2.51729e-05
2.94283e-06
4.29817e-07
4.23648e-07
4.47575e-07
4.4347e-07
4.34908e-07
4.2881e-07
4.31918e-07
4.39685e-07
4.45139e-07
4.58901e-07
4.69527e-07
4.65769e-07
4.49136e-07
4.45244e-07
4.77502e-07
4.70257e-07
4.42986e-07
4.38931e-07
4.46288e-07
7.12169e-07
5.26918e-07
5.31691e-07
4.60712e-07
8.56058e-19
1.55454e-16
7.4378e-15
1.62831e-13
2.05478e-12
1.69874e-11
9.9927e-11
4.43312e-10
1.54994e-09
4.42221e-09
1.06e-08
2.18929e-08
3.98449e-08
6.51566e-08
9.7307e-08
1.34613e-07
1.71214e-07
2.12603e-07
2.5896e-07
3.03126e-07
6.1979e-07
3.22989e-07
2.90269e-06
2.13838e-05
1.86701e-05
2.35473e-06
3.98908e-07
5.9594e-07
4.13126e-07
4.62498e-07
4.71726e-07
4.54944e-07
4.5374e-07
4.38016e-07
4.4735e-07
4.54175e-07
4.84186e-07
4.96718e-07
4.87519e-07
4.71968e-07
4.48096e-07
5.27161e-07
4.67898e-07
4.66118e-07
4.5691e-07
4.46813e-07
4.23503e-07
7.47953e-07
7.93058e-07
4.72212e-07
5.89513e-19
1.041e-16
4.89369e-15
1.06141e-13
1.3354e-12
1.10693e-11
6.56545e-11
2.95267e-10
1.05183e-09
3.07188e-09
7.56695e-09
1.61098e-08
3.02749e-08
5.11242e-08
7.86775e-08
1.11544e-07
1.45684e-07
1.65336e-07
1.86785e-07
3.88716e-07
2.88535e-07
3.21982e-07
3.22695e-07
3.23446e-07
3.24482e-07
3.26156e-07
3.94346e-07
3.43538e-07
3.45008e-07
6.14808e-07
6.14958e-07
4.41713e-07
4.34272e-07
4.64305e-07
4.83368e-07
7.66091e-07
7.67172e-07
5.11743e-07
4.88862e-07
4.70034e-07
4.4957e-07
4.35416e-07
4.29671e-07
4.24637e-07
4.22645e-07
4.26482e-07
4.23301e-07
6.62347e-07
6.69719e-07
4.11966e-07
3.33349e-19
5.8597e-17
2.75805e-15
6.01412e-14
7.63646e-13
6.41708e-12
3.87719e-11
1.78449e-10
6.53368e-10
1.96857e-09
5.01751e-09
1.10741e-08
2.15919e-08
3.78178e-08
6.02902e-08
8.83788e-08
1.1812e-07
1.20828e-07
2.19112e-07
2.06731e-07
2.80893e-07
2.9302e-07
4.04299e-07
4.41612e-07
4.27656e-07
3.86124e-07
3.57194e-07
3.41585e-07
3.51437e-07
3.48834e-07
3.89048e-07
4.05255e-07
4.47615e-07
4.43544e-07
4.24421e-07
3.34394e-07
3.51313e-07
3.36947e-07
3.50997e-06
9.32701e-06
1.31393e-05
5.43567e-06
5.51749e-07
4.28576e-07
4.26916e-07
4.23778e-07
4.23192e-07
4.23574e-07
6.66045e-07
4.56539e-07
1.53278e-19
2.75378e-17
1.3239e-15
2.9464e-14
3.8251e-13
3.29618e-12
2.04929e-11
9.73845e-11
3.6928e-10
1.15526e-09
3.06253e-09
7.03534e-09
1.42772e-08
2.60144e-08
4.31164e-08
6.56729e-08
8.95947e-08
1.11016e-07
1.08373e-07
2.01097e-07
2.77274e-07
2.7276e-07
3.88498e-07
3.25998e-07
3.15308e-07
3.14792e-07
3.14608e-07
3.04495e-07
3.29969e-07
3.297e-07
3.41508e-07
3.57568e-07
3.47916e-07
3.37178e-07
3.32889e-07
3.28859e-07
3.23935e-07
3.25556e-07
3.92441e-05
6.24932e-05
6.25071e-05
5.30709e-05
6.9747e-06
4.34934e-07
4.28418e-07
4.34196e-07
4.36087e-07
4.3922e-07
4.39277e-07
5.21885e-07
5.72116e-20
1.07702e-17
5.38204e-16
1.24157e-14
1.67017e-13
1.49279e-12
9.64121e-12
4.76811e-11
1.88444e-10
6.15036e-10
1.70124e-09
4.07612e-09
8.62268e-09
1.63722e-08
2.82769e-08
4.48931e-08
6.18137e-08
7.58193e-08
9.87248e-08
1.48124e-07
3.60905e-07
2.16073e-07
5.16175e-07
2.51252e-07
2.82233e-07
2.95268e-07
2.95939e-07
2.95226e-07
2.88626e-07
2.93417e-07
3.02391e-07
3.11163e-07
3.18307e-07
3.23047e-07
3.2496e-07
3.24208e-07
3.22893e-07
1.82396e-05
6.25494e-05
6.25126e-05
6.25206e-05
6.25405e-05
4.05863e-05
9.79911e-07
4.34312e-07
4.35004e-07
4.56019e-07
4.65241e-07
4.6488e-07
4.74505e-07
1.72685e-20
3.48197e-18
1.84355e-16
4.47817e-15
6.32409e-14
5.92788e-13
4.01498e-12
2.08249e-11
8.62459e-11
2.94562e-10
8.51102e-10
2.12697e-09
4.68966e-09
9.2827e-09
1.67304e-08
2.77589e-08
3.81707e-08
4.56078e-08
6.46512e-08
1.45158e-07
1.105e-07
1.87576e-07
1.91841e-07
2.10465e-07
2.88113e-07
3.33429e-07
2.86319e-07
2.81225e-07
2.7761e-07
2.80659e-07
2.88317e-07
2.97694e-07
3.06945e-07
3.14982e-07
3.20589e-07
3.22875e-07
3.22876e-07
1.77624e-05
6.25481e-05
6.25282e-05
6.25135e-05
6.25278e-05
4.09063e-05
9.0662e-07
4.42274e-07
4.36259e-07
7.95709e-07
8.03681e-07
5.33629e-07
4.75333e-07
4.19658e-21
9.2306e-19
5.28359e-17
1.37455e-15
2.06905e-14
2.06204e-13
1.48217e-12
8.13059e-12
3.54311e-11
1.26708e-10
3.81842e-10
9.9307e-10
2.27739e-09
4.69208e-09
8.81809e-09
1.5293e-08
2.10988e-08
2.51092e-08
5.36871e-08
5.03521e-08
8.21825e-08
6.95407e-08
1.92536e-07
1.54348e-07
3.08016e-07
2.5455e-07
2.50505e-07
2.45131e-07
2.45158e-07
2.52042e-07
2.64276e-07
2.78404e-07
2.92752e-07
3.06912e-07
3.18577e-07
3.24328e-07
3.2291e-07
4.00968e-06
5.59302e-05
6.25177e-05
6.25118e-05
6.2611e-05
2.92459e-05
4.75432e-07
4.51886e-07
4.43416e-07
4.73571e-07
4.83436e-07
5.70243e-07
5.12676e-07
8.0691e-22
1.99545e-19
1.26419e-17
3.60372e-16
5.91254e-15
6.39588e-14
4.95553e-13
2.89982e-12
1.33301e-11
4.98322e-11
1.55991e-10
4.20103e-10
9.96881e-10
2.12682e-09
4.14729e-09
7.48251e-09
1.10448e-08
1.76828e-08
1.58286e-08
3.04888e-08
5.1595e-08
4.53698e-08
1.77266e-07
1.47472e-07
6.34953e-08
1.15257e-07
1.60751e-07
1.84983e-07
1.98744e-07
2.13649e-07
2.32004e-07
2.50916e-07
2.69829e-07
2.91164e-07
3.13478e-07
3.29364e-07
3.32411e-07
3.24546e-07
5.74526e-06
4.49799e-05
5.68031e-05
2.65057e-05
4.1028e-07
4.48432e-07
4.50389e-07
4.48374e-07
5.02911e-07
5.04807e-07
4.84709e-07
5.67979e-07
1.17071e-22
3.431e-20
2.5215e-18
8.22421e-17
1.53132e-15
1.8582e-14
1.59353e-13
1.01646e-12
5.00281e-12
1.9663e-11
6.37502e-11
1.76136e-10
4.26601e-10
9.27383e-10
1.84445e-09
3.40417e-09
5.88264e-09
7.90653e-09
1.19551e-08
1.86208e-08
2.77208e-08
3.84808e-08
2.99367e-08
4.60831e-08
5.83765e-08
8.85345e-08
1.16789e-07
1.34678e-07
1.49489e-07
1.67934e-07
1.8984e-07
2.11212e-07
2.31506e-07
2.56627e-07
2.93647e-07
3.29328e-07
3.63436e-07
3.36035e-07
3.12931e-07
3.13197e-07
3.13362e-07
3.13602e-07
3.2301e-07
5.43349e-07
5.49696e-07
4.62256e-07
4.58169e-07
4.76217e-07
4.83942e-07
4.82115e-07
1.29687e-23
4.79668e-21
4.35351e-19
1.7354e-17
3.89433e-16
5.73673e-15
6.12354e-14
4.76422e-13
2.69302e-12
1.14252e-11
3.81512e-11
1.05315e-10
2.49936e-10
5.26844e-10
1.01256e-09
1.81034e-09
3.05335e-09
4.89916e-09
7.32917e-09
1.03579e-08
1.42771e-08
1.94147e-08
2.5891e-08
3.35803e-08
4.26024e-08
4.85212e-08
5.94956e-08
7.5456e-08
9.46107e-08
1.16338e-07
1.3933e-07
1.6073e-07
1.78807e-07
1.97485e-07
2.45621e-07
3.05663e-07
3.42785e-07
3.33285e-07
3.12696e-07
3.25903e-07
3.46453e-07
3.8638e-07
4.03589e-07
3.96847e-07
3.95227e-07
4.2531e-07
4.44654e-07
4.53929e-07
4.59158e-07
4.62787e-07
1.11655e-24
5.5919e-22
6.92037e-20
3.71049e-18
1.20625e-16
3.18284e-15
5.56806e-14
5.63102e-13
3.54526e-12
1.54622e-11
5.08719e-11
1.35097e-10
3.03087e-10
5.95933e-10
1.05753e-09
1.73425e-09
2.6774e-09
3.94534e-09
5.56806e-09
7.57801e-09
1.00453e-08
1.30948e-08
1.68191e-08
2.12984e-08
2.67576e-08
3.36203e-08
4.23629e-08
5.28514e-08
6.49235e-08
7.88262e-08
9.47798e-08
1.11887e-07
1.27127e-07
1.35139e-07
1.8117e-07
2.28835e-07
2.59248e-07
2.67247e-07
2.46286e-07
2.47277e-07
5.93068e-07
5.934e-07
5.90725e-07
4.21998e-07
3.72268e-07
4.00957e-07
4.13136e-07
4.20212e-07
4.25896e-07
4.30444e-07
7.7312e-26
5.76914e-23
1.11084e-20
1.04456e-18
1.08803e-16
5.85681e-15
1.22672e-13
1.25259e-12
7.63342e-12
3.19335e-11
1.00602e-10
2.56061e-10
5.50201e-10
1.03403e-09
1.74809e-09
2.71888e-09
3.9601e-09
5.47359e-09
7.24776e-09
9.24544e-09
1.14403e-08
1.38423e-08
1.64552e-08
1.92912e-08
2.24495e-08
2.61512e-08
3.07116e-08
3.64705e-08
4.3353e-08
5.1522e-08
6.16618e-08
7.44322e-08
8.96462e-08
1.05744e-07
1.19058e-07
1.39429e-07
1.66375e-07
1.98494e-07
2.20896e-07
2.28114e-07
2.44967e-07
3.07182e-07
3.06552e-07
3.28e-07
3.6886e-07
3.84446e-07
3.94103e-07
4.01914e-07
4.09234e-07
4.15464e-07
4.52166e-27
5.36435e-24
2.06624e-21
1.20959e-18
3.01031e-16
1.65603e-14
3.19255e-13
3.00938e-12
1.71677e-11
6.80485e-11
2.04786e-10
5.01491e-10
1.04131e-09
1.89707e-09
3.11566e-09
4.71541e-09
6.69097e-09
9.01283e-09
1.16186e-08
1.44166e-08
1.72996e-08
2.01709e-08
2.29431e-08
2.55425e-08
2.7942e-08
3.01699e-08
3.23469e-08
3.4707e-08
3.75958e-08
4.14433e-08
4.67364e-08
5.3994e-08
6.3733e-08
7.64062e-08
9.23121e-08
1.11482e-07
1.33572e-07
1.57387e-07
1.82353e-07
2.08883e-07
2.33475e-07
2.59327e-07
2.8841e-07
3.1065e-07
3.32301e-07
3.5413e-07
3.78177e-07
3.92752e-07
4.03031e-07
4.03178e-07
2.04318e-28
4.56239e-25
1.61963e-21
4.23275e-18
9.70996e-16
4.62827e-14
7.96143e-13
6.8806e-12
3.6712e-11
1.37988e-10
3.97134e-10
9.37037e-10
1.8836e-09
3.33475e-09
5.3388e-09
7.89968e-09
1.09934e-08
1.45676e-08
1.85202e-08
2.27033e-08
2.69388e-08
3.10644e-08
3.49313e-08
3.83792e-08
4.1285e-08
4.35176e-08
4.50214e-08
4.58596e-08
4.627e-08
4.66464e-08
4.74983e-08
4.94159e-08
5.30465e-08
5.90653e-08
6.81291e-08
8.08106e-08
9.75342e-08
1.18545e-07
1.43841e-07
1.72976e-07
2.05056e-07
2.38843e-07
2.72223e-07
2.71319e-07
2.54513e-07
5.09373e-07
5.49386e-07
4.28829e-07
4.03335e-07
4.03645e-07
6.32877e-30
6.44853e-26
6.66968e-21
1.57854e-17
2.95352e-15
1.20887e-13
1.85869e-12
1.47756e-11
7.39498e-11
2.64131e-10
7.27851e-10
1.65578e-09
3.22291e-09
5.54597e-09
8.65598e-09
1.25221e-08
1.70914e-08
2.22878e-08
2.79718e-08
3.39464e-08
3.99758e-08
4.58723e-08
5.14564e-08
5.64913e-08
6.08124e-08
6.41185e-08
6.61942e-08
6.68817e-08
6.62691e-08
6.46871e-08
6.26154e-08
6.0625e-08
5.93747e-08
5.96211e-08
6.22138e-08
6.80621e-08
7.80827e-08
9.31307e-08
1.1382e-07
1.40167e-07
1.71529e-07
2.06755e-07
2.4094e-07
2.51973e-07
2.52801e-07
4.81009e-07
5.49503e-07
4.3347e-07
4.34157e-07
4.0478e-07
1.04651e-31
1.43827e-25
3.09207e-20
5.47634e-17
8.33766e-15
2.94322e-13
4.06508e-12
2.98531e-11
1.40599e-10
4.78195e-10
1.26302e-09
2.77136e-09
5.22337e-09
8.73715e-09
1.32945e-08
1.87979e-08
2.51484e-08
3.22419e-08
3.98983e-08
4.78778e-08
5.58974e-08
6.38025e-08
7.14206e-08
7.84581e-08
8.48082e-08
8.99332e-08
9.35553e-08
9.51846e-08
9.46444e-08
9.2258e-08
8.85311e-08
8.40063e-08
7.92757e-08
7.50364e-08
7.21423e-08
7.1628e-08
7.47013e-08
8.26856e-08
9.67763e-08
1.17513e-07
1.44637e-07
1.78301e-07
2.14874e-07
2.3955e-07
3.06821e-07
3.03747e-07
2.73123e-07
6.22937e-07
6.30977e-07
5.61068e-07
8.67687e-34
9.52838e-25
1.32787e-19
1.75605e-16
2.18687e-14
6.69758e-13
8.35577e-12
5.69355e-11
2.53078e-10
8.21041e-10
2.08026e-09
4.40398e-09
8.03688e-09
1.30722e-08
1.94012e-08
2.68212e-08
3.51664e-08
4.42966e-08
5.3985e-08
6.39533e-08
7.38795e-08
8.37208e-08
9.33223e-08
1.02381e-07
1.10984e-07
1.18221e-07
1.24148e-07
1.27927e-07
1.28579e-07
1.26512e-07
1.22318e-07
1.16541e-07
1.09707e-07
1.02398e-07
9.53434e-08
8.95112e-08
8.61714e-08
8.68951e-08
9.33267e-08
1.06537e-07
1.26222e-07
1.51564e-07
1.76895e-07
2.05036e-07
3.12367e-07
3.14892e-07
2.69675e-07
9.15069e-07
1.63816e-06
1.63608e-06
9.49566e-35
5.97049e-24
5.24983e-19
5.21248e-16
5.34391e-14
1.42928e-12
1.61976e-11
1.02819e-10
4.32397e-10
1.33976e-09
3.25838e-09
6.65637e-09
1.17605e-08
1.86128e-08
2.6974e-08
3.64977e-08
4.69299e-08
5.80804e-08
6.9664e-08
8.13624e-08
9.28147e-08
1.04165e-07
1.15204e-07
1.25745e-07
1.36116e-07
1.44862e-07
1.53069e-07
1.60691e-07
1.6374e-07
1.63558e-07
1.60511e-07
1.54932e-07
1.47394e-07
1.38447e-07
1.28698e-07
1.18951e-07
1.10348e-07
1.04459e-07
1.03169e-07
1.08193e-07
1.19528e-07
1.33479e-07
1.65043e-07
2.16571e-07
2.44924e-07
2.63829e-07
2.66367e-07
6.95195e-07
1.63796e-06
1.63679e-06
1.29115e-33
3.42825e-23
1.9129e-18
1.43557e-15
1.22046e-13
2.8703e-12
2.97071e-11
1.76279e-10
7.02623e-10
2.08078e-09
4.85987e-09
9.5808e-09
1.63872e-08
2.52602e-08
3.58035e-08
4.74997e-08
5.99871e-08
7.30034e-08
8.61858e-08
9.91627e-08
1.11521e-07
1.2361e-07
1.3498e-07
1.4579e-07
1.56484e-07
1.65265e-07
1.7428e-07
1.90627e-07
1.9464e-07
1.9651e-07
1.98324e-07
1.95191e-07
1.88651e-07
1.7958e-07
1.68654e-07
1.56563e-07
1.44244e-07
1.33063e-07
1.24849e-07
1.21714e-07
1.24296e-07
1.26438e-07
1.70623e-07
1.85125e-07
1.63283e-07
3.97868e-07
5.34598e-07
2.86719e-07
2.78072e-07
2.65037e-07
1.84883e-32
1.80425e-22
6.43499e-18
3.6785e-15
2.61391e-13
5.44283e-12
5.16934e-11
2.87501e-10
1.08733e-09
3.07865e-09
6.90786e-09
1.31436e-08
2.17642e-08
3.27161e-08
4.54451e-08
5.92556e-08
7.3666e-08
8.83099e-08
1.02724e-07
1.16456e-07
1.29018e-07
1.40867e-07
1.51092e-07
1.60393e-07
1.69438e-07
1.78513e-07
1.78214e-07
1.88568e-07
1.98613e-07
2.0141e-07
2.28523e-07
2.32246e-07
2.29094e-07
2.21683e-07
2.11208e-07
1.98457e-07
1.84221e-07
1.69594e-07
1.5611e-07
1.45754e-07
1.39486e-07
1.43667e-07
1.49383e-07
1.61402e-07
1.61757e-07
4.83309e-07
6.68048e-07
5.28487e-07
2.75712e-07
2.64367e-07
2.40622e-31
8.71195e-22
2.0029e-17
8.79723e-15
5.2686e-13
9.77643e-12
8.55434e-11
4.46716e-10
1.60388e-09
4.34185e-09
9.36302e-09
1.71994e-08
2.75787e-08
4.04872e-08
5.52397e-08
7.0984e-08
8.71202e-08
1.03142e-07
1.18463e-07
1.32524e-07
1.44733e-07
1.55433e-07
1.63245e-07
1.69107e-07
1.74669e-07
1.78859e-07
2.27583e-07
2.70493e-06
1.63322e-06
2.10455e-07
2.35111e-07
2.59485e-07
2.63451e-07
2.59845e-07
2.51641e-07
2.40081e-07
2.25946e-07
2.10107e-07
1.93767e-07
1.78565e-07
1.66574e-07
1.60067e-07
1.62548e-07
1.69807e-07
1.73569e-07
1.9698e-07
6.71217e-07
3.95526e-07
2.69731e-07
2.64298e-07
2.84637e-30
3.86503e-21
5.78312e-17
1.97038e-14
1.00291e-12
1.66806e-11
1.34866e-10
6.61943e-10
2.25636e-09
5.83935e-09
1.21088e-08
2.1488e-08
3.33865e-08
4.7945e-08
6.43931e-08
8.17774e-08
9.94059e-08
1.16599e-07
1.3264e-07
1.4685e-07
1.5852e-07
1.67601e-07
1.72618e-07
1.73527e-07
1.73268e-07
1.96684e-07
1.81845e-05
3.67031e-05
3.08814e-05
7.26887e-06
2.55745e-07
2.65389e-07
2.86642e-07
2.88763e-07
2.84546e-07
2.76133e-07
2.64421e-07
2.49874e-07
2.33476e-07
2.16499e-07
2.00545e-07
1.88485e-07
1.8416e-07
1.87327e-07
1.9442e-07
2.00692e-07
2.39441e-07
3.6537e-07
2.70492e-07
2.64277e-07