/*--------------------------------*- C++ -*----------------------------------*\
| =========                 |                                                 |
| \\      /  F ield         | OpenFOAM: The Open Source CFD Toolbox           |
|  \\    /   O peration     | Version:  2.4.0                                 |
|   \\  /    A nd           | Web:      www.OpenFOAM.org                      |
|    \\/     M anipulation  |                                                 |
\*---------------------------------------------------------------------------*/
FoamFile
{
    version     2.0;
    format      ascii;
    class       volScalarField;
    location    "0.368";
    object      p_rgh;
}
// * * * * * * * * * * * * * * * * * * * * * * * * * * * * * * * * * * * * * //

dimensions      [1 -1 -2 0 0 0 0];

internalField   nonuniform List<scalar> 
10000
(
-0.00545889
-0.00545927
-0.00545851
-0.0054565
-0.00545369
-0.00545061
-0.00544765
-0.00544514
-0.00544333
-0.00544238
-0.00544242
-0.0054435
-0.00544568
-0.00544898
-0.0054534
-0.00545896
-0.00546568
-0.00547356
-0.00548264
-0.00549295
-0.00550452
-0.00551738
-0.00553155
-0.00554704
-0.00556382
-0.00558179
-0.00560083
-0.0056207
-0.00564112
-0.00566173
-0.00568215
-0.00570198
-0.00572087
-0.00573857
-0.00575492
-0.00576991
-0.00578362
-0.0057962
-0.00580791
-0.005819
-0.00582975
-0.00584041
-0.00585121
-0.0058623
-0.00587381
-0.00588578
-0.00589824
-0.00591115
-0.00592446
-0.0059381
-0.00545851
-0.00545886
-0.00545836
-0.0054569
-0.00545484
-0.00545257
-0.00545043
-0.00544868
-0.00544754
-0.00544716
-0.00544766
-0.00544912
-0.00545159
-0.00545512
-0.00545972
-0.00546542
-0.00547223
-0.00548017
-0.00548927
-0.00549955
-0.00551102
-0.00552372
-0.00553763
-0.00555276
-0.00556905
-0.00558642
-0.00560473
-0.00562378
-0.00564332
-0.00566305
-0.00568263
-0.00570174
-0.00572008
-0.00573743
-0.00575367
-0.00576874
-0.00578271
-0.00579569
-0.00580786
-0.00581944
-0.00583065
-0.00584171
-0.0058528
-0.00586408
-0.00587566
-0.0058876
-0.00589993
-0.00591264
-0.00592569
-0.00593902
-0.00545932
-0.00545942
-0.00545889
-0.00545772
-0.00545616
-0.0054545
-0.00545299
-0.00545186
-0.00545127
-0.00545138
-0.00545229
-0.00545408
-0.00545683
-0.00546057
-0.00546533
-0.00547115
-0.00547805
-0.00548604
-0.00549514
-0.00550537
-0.00551674
-0.00552927
-0.00554294
-0.00555774
-0.00557361
-0.00559048
-0.0056082
-0.00562661
-0.00564547
-0.00566453
-0.0056835
-0.00570209
-0.00572004
-0.00573715
-0.00575329
-0.00576842
-0.00578257
-0.00579582
-0.00580832
-0.00582023
-0.00583175
-0.00584307
-0.00585435
-0.00586574
-0.00587734
-0.00588923
-0.00590143
-0.00591395
-0.00592677
-0.00593986
-0.0054613
-0.00546091
-0.0054601
-0.00545892
-0.00545756
-0.00545621
-0.00545508
-0.00545434
-0.00545413
-0.00545458
-0.00545579
-0.00545784
-0.0054608
-0.00546471
-0.00546961
-0.00547553
-0.00548248
-0.00549049
-0.00549958
-0.00550975
-0.00552102
-0.0055334
-0.00554687
-0.00556142
-0.005577
-0.00559352
-0.00561087
-0.0056289
-0.00564741
-0.00566614
-0.00568482
-0.00570318
-0.00572096
-0.00573794
-0.00575404
-0.00576919
-0.00578341
-0.00579678
-0.0058094
-0.00582143
-0.00583306
-0.00584445
-0.00585577
-0.00586716
-0.00587872
-0.00589052
-0.0059026
-0.00591497
-0.00592763
-0.00594053
-0.00546407
-0.00546298
-0.0054617
-0.00546032
-0.00545895
-0.00545772
-0.00545678
-0.00545627
-0.0054563
-0.00545699
-0.00545842
-0.00546067
-0.0054638
-0.00546784
-0.00547285
-0.00547883
-0.00548583
-0.00549384
-0.0055029
-0.00551301
-0.00552419
-0.00553643
-0.00554974
-0.0055641
-0.00557947
-0.00559578
-0.00561294
-0.00563082
-0.00564921
-0.00566788
-0.00568656
-0.00570494
-0.00572272
-0.0057397
-0.00575577
-0.00577091
-0.00578513
-0.00579847
-0.00581106
-0.00582304
-0.0058346
-0.00584592
-0.00585716
-0.00586845
-0.0058799
-0.00589159
-0.00590355
-0.00591579
-0.00592832
-0.0059411
-0.00546718
-0.0054653
-0.00546342
-0.00546172
-0.0054602
-0.00545896
-0.00545808
-0.00545769
-0.00545787
-0.00545872
-0.0054603
-0.0054627
-0.00546595
-0.0054701
-0.00547519
-0.00548123
-0.00548824
-0.00549625
-0.00550528
-0.00551532
-0.0055264
-0.00553852
-0.00555169
-0.0055659
-0.00558113
-0.00559735
-0.00561447
-0.00563237
-0.00565089
-0.00566978
-0.00568872
-0.00570736
-0.00572533
-0.00574238
-0.00575845
-0.00577353
-0.00578768
-0.00580089
-0.00581329
-0.00582506
-0.00583639
-0.00584749
-0.00585853
-0.00586964
-0.00588093
-0.00589248
-0.00590431
-0.00591645
-0.00592888
-0.00594158
-0.00547023
-0.00546755
-0.00546504
-0.00546294
-0.0054612
-0.00545984
-0.00545894
-0.00545858
-0.00545883
-0.00545977
-0.00546146
-0.00546396
-0.0054673
-0.00547154
-0.00547668
-0.00548276
-0.00548978
-0.00549778
-0.00550675
-0.00551672
-0.0055277
-0.0055397
-0.00555274
-0.00556684
-0.005582
-0.00559821
-0.00561541
-0.00563354
-0.00565242
-0.00567182
-0.00569135
-0.00571056
-0.00572892
-0.00574608
-0.00576212
-0.0057771
-0.0057911
-0.00580406
-0.00581611
-0.00582748
-0.00583841
-0.00584915
-0.00585987
-0.00587072
-0.0058818
-0.00589318
-0.00590488
-0.00591693
-0.0059293
-0.00594196
-0.00547294
-0.00546949
-0.00546635
-0.00546383
-0.00546182
-0.00546029
-0.0054593
-0.0054589
-0.00545917
-0.00546016
-0.00546191
-0.00546447
-0.00546789
-0.00547218
-0.00547736
-0.00548346
-0.00549049
-0.00549845
-0.00550737
-0.00551725
-0.00552812
-0.00554
-0.00555292
-0.00556691
-0.00558202
-0.00559828
-0.0056157
-0.00563422
-0.00565376
-0.00567402
-0.00569457
-0.00571478
-0.00573377
-0.00575102
-0.00576693
-0.0057817
-0.00579551
-0.00580806
-0.00581955
-0.00583029
-0.00584063
-0.00585085
-0.00586113
-0.00587164
-0.00588247
-0.00589366
-0.00590525
-0.00591722
-0.00592956
-0.00594224
-0.00547508
-0.00547095
-0.00546722
-0.00546428
-0.00546196
-0.00546022
-0.0054591
-0.00545864
-0.00545888
-0.00545987
-0.00546166
-0.00546427
-0.00546773
-0.00547206
-0.00547728
-0.00548339
-0.00549041
-0.00549833
-0.00550718
-0.00551697
-0.00552772
-0.00553944
-0.0055522
-0.00556608
-0.00558115
-0.00559752
-0.00561524
-0.00563438
-0.00565492
-0.00567654
-0.00569874
-0.00572065
-0.00574066
-0.00575777
-0.00577331
-0.00578765
-0.00580126
-0.00581316
-0.00582373
-0.00583352
-0.005843
-0.0058525
-0.00586223
-0.00587233
-0.00588287
-0.00589387
-0.00590535
-0.00591729
-0.00592965
-0.00594239
-0.0054765
-0.00547177
-0.00546751
-0.00546416
-0.00546154
-0.00545958
-0.0054583
-0.00545774
-0.00545793
-0.00545891
-0.00546071
-0.00546335
-0.00546685
-0.00547123
-0.00547648
-0.0054826
-0.00548959
-0.00549747
-0.00550624
-0.00551592
-0.00552651
-0.00553806
-0.00555063
-0.00556436
-0.0055794
-0.00559592
-0.00561407
-0.00563399
-0.00565592
-0.00567951
-0.00570421
-0.00572896
-0.00575069
-0.00576696
-0.00578175
-0.0057954
-0.0058091
-0.00581997
-0.00582905
-0.00583732
-0.00584552
-0.00585403
-0.00586306
-0.00587268
-0.00588292
-0.00589375
-0.00590515
-0.00591709
-0.00592951
-0.00594237
-0.0054771
-0.00547186
-0.00546712
-0.00546341
-0.00546049
-0.00545831
-0.00545686
-0.00545619
-0.00545632
-0.00545727
-0.00545907
-0.00546174
-0.00546528
-0.0054697
-0.00547498
-0.00548111
-0.00548808
-0.00549591
-0.0055046
-0.00551417
-0.00552462
-0.00553597
-0.00554834
-0.00556191
-0.0055769
-0.00559352
-0.00561197
-0.00563258
-0.00565611
-0.00568225
-0.00571051
-0.00573975
-0.00576454
-0.00577832
-0.00579183
-0.00580434
-0.00581953
-0.00582905
-0.00583595
-0.00584204
-0.0058484
-0.00585552
-0.00586359
-0.00587261
-0.00588251
-0.00589319
-0.00590457
-0.00591656
-0.00592911
-0.00594215
-0.00547684
-0.00547115
-0.00546599
-0.00546194
-0.00545875
-0.00545635
-0.00545474
-0.00545395
-0.00545401
-0.00545493
-0.00545674
-0.00545944
-0.00546303
-0.0054675
-0.00547283
-0.00547898
-0.00548594
-0.00549372
-0.00550237
-0.0055119
-0.00552227
-0.00553345
-0.00554558
-0.00555887
-0.00557355
-0.0055899
-0.00560814
-0.00562886
-0.00565385
-0.0056828
-0.00571596
-0.00575226
-0.00578057
-0.00578949
-0.00580049
-0.00581055
-0.00583206
-0.00584033
-0.00584425
-0.00584736
-0.00585146
-0.00585699
-0.00586393
-0.00587219
-0.00588164
-0.00589214
-0.00590353
-0.00591565
-0.00592839
-0.00594167
-0.00547568
-0.00546959
-0.00546407
-0.00545971
-0.00545627
-0.00545367
-0.0054519
-0.005451
-0.00545099
-0.00545188
-0.00545371
-0.00545645
-0.00546012
-0.00546468
-0.00547009
-0.00547631
-0.00548329
-0.00549107
-0.00549978
-0.00550943
-0.00551979
-0.00553073
-0.00554243
-0.00555508
-0.00556896
-0.00558443
-0.00560164
-0.00562147
-0.00564728
-0.00567666
-0.00571563
-0.00576545
-0.0057883
-0.00576907
-0.00578511
-0.00580681
-0.00584623
-0.00585361
-0.00585187
-0.00585052
-0.00585253
-0.00585716
-0.0058636
-0.00587143
-0.00588046
-0.00589068
-0.00590204
-0.00591432
-0.00592732
-0.00594091
-0.00547357
-0.00546715
-0.00546131
-0.00545669
-0.00545302
-0.00545022
-0.00544831
-0.0054473
-0.00544723
-0.00544811
-0.00544995
-0.00545278
-0.00545657
-0.0054613
-0.00546691
-0.00547331
-0.00548041
-0.00548826
-0.00549711
-0.00550694
-0.0055172
-0.0055277
-0.00553867
-0.00555029
-0.00556285
-0.00557699
-0.00559228
-0.0056097
-0.00563364
-0.00565778
-0.00569497
-0.00573834
-0.0057666
-0.00573134
-0.00575329
-0.0057672
-0.00583832
-0.00584809
-0.0058421
-0.00584157
-0.00584614
-0.00585293
-0.00586083
-0.0058695
-0.00587878
-0.00588895
-0.00590026
-0.00591264
-0.00592588
-0.00593981
-0.00547051
-0.0054638
-0.00545769
-0.00545283
-0.00544896
-0.00544599
-0.00544393
-0.00544283
-0.0054427
-0.00544357
-0.00544547
-0.00544843
-0.00545245
-0.00545751
-0.00546349
-0.00547024
-0.00547758
-0.00548549
-0.00549443
-0.00550435
-0.00551431
-0.00552414
-0.00553421
-0.00554449
-0.00555545
-0.00556848
-0.0055817
-0.00559487
-0.00560964
-0.00561895
-0.00563046
-0.00572153
-0.00599945
-0.0041688
-0.00448626
-0.00548118
-0.00590183
-0.005749
-0.00579127
-0.00581555
-0.00583051
-0.00584341
-0.00585498
-0.00586577
-0.00587606
-0.00588669
-0.00589829
-0.00591082
-0.0059242
-0.00593839
-0.00546646
-0.00545952
-0.00545318
-0.00544812
-0.00544407
-0.00544094
-0.00543876
-0.00543756
-0.00543738
-0.00543826
-0.00544026
-0.00544345
-0.00544787
-0.00545339
-0.00545985
-0.00546702
-0.00547466
-0.00548275
-0.00549179
-0.00550165
-0.00551105
-0.0055202
-0.00552937
-0.00553794
-0.00554709
-0.0055604
-0.00557165
-0.00558038
-0.00556444
-0.00550353
-0.00551902
-0.00537505
-0.000764835
0.00197422
0.00211788
0.00209446
-0.00451466
-0.00564398
-0.00574155
-0.00578154
-0.00580962
-0.00583157
-0.00584816
-0.0058615
-0.0058726
-0.00588366
-0.00589598
-0.00590904
-0.00592258
-0.0059368
-0.00546142
-0.0054543
-0.00544777
-0.00544253
-0.00543833
-0.00543506
-0.00543275
-0.00543146
-0.00543123
-0.00543214
-0.00543431
-0.00543785
-0.0054427
-0.00544863
-0.00545545
-0.00546301
-0.00547111
-0.0054798
-0.00548931
-0.00549898
-0.0055075
-0.00551609
-0.0055246
-0.00553078
-0.00553677
-0.0055538
-0.0055661
-0.00557654
-0.00556556
-0.00556079
-0.00554427
-0.00551057
-0.00510385
0.0014245
0.00178913
-0.00349093
-0.00565326
-0.00553305
-0.00572841
-0.00576512
-0.00579836
-0.00582511
-0.00584475
-0.0058599
-0.00586996
-0.00588015
-0.00589326
-0.00590727
-0.00592124
-0.0059354
-0.00545537
-0.00544811
-0.00544145
-0.00543607
-0.00543173
-0.00542833
-0.00542591
-0.00542451
-0.00542422
-0.00542518
-0.00542758
-0.00543142
-0.00543648
-0.00544251
-0.00544942
-0.00545724
-0.00546603
-0.00547597
-0.00548646
-0.005496
-0.00550338
-0.00551108
-0.00551918
-0.0055253
-0.00552197
-0.00552978
-0.00555477
-0.00554931
-0.00556241
-0.00553063
-0.00555792
-0.00555735
-0.0054883
-0.00491207
-0.00496552
-0.00519771
-0.00565617
-0.00566858
-0.00571002
-0.00576309
-0.00579561
-0.0058224
-0.00584713
-0.00586521
-0.00587051
-0.00587656
-0.00589016
-0.0059055
-0.00592018
-0.00593452
-0.00544831
-0.00544098
-0.00543422
-0.00542874
-0.00542428
-0.00542076
-0.00541821
-0.00541669
-0.00541634
-0.00541734
-0.00541988
-0.00542378
-0.00542868
-0.00543438
-0.00544092
-0.00544865
-0.00545785
-0.00546888
-0.00548074
-0.00549184
-0.00549965
-0.00550421
-0.00550979
-0.00551666
-0.0055316
-0.00550649
-0.00517497
-0.00553765
-0.00554368
-0.00553999
-0.00553309
-0.00557477
-0.00553582
-0.00542533
-0.00545097
-0.0056033
-0.00565085
-0.00568983
-0.00572291
-0.00575423
-0.00578632
-0.00582605
-0.00586218
-0.00588262
-0.00587417
-0.00586937
-0.00588493
-0.00590385
-0.00591971
-0.00593425
-0.00544025
-0.0054329
-0.0054261
-0.00542055
-0.005416
-0.00541235
-0.00540966
-0.00540801
-0.00540755
-0.00540853
-0.005411
-0.00541463
-0.005419
-0.00542396
-0.00542969
-0.00543664
-0.00544475
-0.00545436
-0.00546689
-0.00548349
-0.00549855
-0.00549625
-0.00548617
-0.00549986
-0.00550687
-0.00550337
-0.00549504
-0.00551397
-0.00552811
-0.00553401
-0.00553322
-0.00553101
-0.00552507
-0.00547657
-0.00548104
-0.00555279
-0.00564112
-0.00566698
-0.00570248
-0.00575328
-0.00579924
-0.0058442
-0.00589651
-0.00590717
-0.00587322
-0.00585441
-0.00587774
-0.0059048
-0.00592075
-0.00593463
-0.00543122
-0.00542391
-0.00541712
-0.00541153
-0.0054069
-0.00540314
-0.0054003
-0.00539847
-0.00539785
-0.00539867
-0.00540084
-0.00540392
-0.00540751
-0.0054115
-0.00541612
-0.00542167
-0.00542736
-0.00543195
-0.00543884
-0.00545505
-0.00548363
-0.00550043
-0.00546066
-0.00536555
-0.00546993
-0.00549774
-0.00553241
-0.00553458
-0.00553286
-0.00553545
-0.00553624
-0.00553476
-0.00552571
-0.00551766
-0.00553451
-0.00555416
-0.00563274
-0.0056799
-0.00572311
-0.00576478
-0.00581068
-0.00585135
-0.00580084
-0.00596309
-0.00583746
-0.00579887
-0.00585997
-0.00589754
-0.00591831
-0.00593314
-0.00542126
-0.00541406
-0.00540732
-0.00540173
-0.00539704
-0.00539316
-0.00539015
-0.00538812
-0.00538726
-0.00538777
-0.00538945
-0.0053918
-0.00539449
-0.00539743
-0.00540071
-0.00540503
-0.00540874
-0.00540437
-0.00541283
-0.00543422
-0.00550786
-0.00494653
-0.00546052
-0.00537632
-0.00542363
-0.00547645
-0.00555198
-0.00550758
-0.00552209
-0.00552779
-0.00553485
-0.00553725
-0.0055489
-0.00556226
-0.00557592
-0.00561558
-0.00563957
-0.00567268
-0.00571196
-0.00575484
-0.00580584
-0.00586565
-0.00599959
-0.0060464
-0.00539561
-0.00533873
-0.00579203
-0.00584776
-0.00589156
-0.00592098
-0.00541045
-0.00540341
-0.00539678
-0.00539121
-0.00538647
-0.00538248
-0.0053793
-0.00537703
-0.00537586
-0.00537594
-0.00537701
-0.00537858
-0.00538035
-0.00538227
-0.00538414
-0.00538783
-0.00538977
-0.00537214
-0.00537424
-0.00539974
-0.00514921
-0.00521109
-0.00555438
-0.004639
-0.00473122
-0.00515837
-0.00551793
-0.00552883
-0.00549372
-0.00550683
-0.00552214
-0.00553537
-0.00555367
-0.00556785
-0.00556601
-0.0055869
-0.00562111
-0.00565737
-0.00569255
-0.00573355
-0.00577657
-0.00580516
-0.00585544
-0.00485232
4.07284e-05
-0.000430628
-0.00489419
-0.00585736
-0.00586397
-0.00590554
-0.00539888
-0.00539205
-0.00538555
-0.00538004
-0.00537527
-0.00537118
-0.00536782
-0.00536529
-0.00536377
-0.00536335
-0.00536377
-0.00536457
-0.00536546
-0.00536632
-0.0053671
-0.00536999
-0.00536377
-0.00536271
-0.00527447
-0.00522476
-0.00505293
-0.00492996
-0.00356596
0.00272189
0.00328411
0.00110744
-0.00469785
-0.00538342
-0.00544762
-0.00547056
-0.00533058
-0.00553004
-0.00553966
-0.00556361
-0.0055078
-0.00556343
-0.00558441
-0.00561867
-0.00566639
-0.00569141
-0.00573139
-0.00570752
-0.00558455
-0.00251219
-0.000147369
-0.000201364
-0.000915628
-0.00560052
-0.00580911
-0.00590277
-0.00538666
-0.00538005
-0.00537373
-0.00536828
-0.0053635
-0.00535933
-0.00535581
-0.00535303
-0.00535112
-0.00535018
-0.00534997
-0.00535005
-0.00535009
-0.00534986
-0.00534972
-0.00534857
-0.00534498
-0.00534014
-0.00502467
-0.00519859
-0.00507354
-0.00523418
0.00334132
0.00320055
0.00315735
0.00302815
-0.00117006
-0.00531639
-0.00540882
-0.00546414
-0.00548528
-0.00551076
-0.00552889
-0.00554821
-0.00555858
-0.00555896
-0.00561049
-0.00536347
-0.0053033
-0.00538063
-0.00568654
-0.00564888
-0.00566441
-0.00547272
-0.000766997
-0.000253978
-0.0050075
-0.00597617
-0.0059451
-0.00594859
-0.00537388
-0.00536753
-0.00536139
-0.00535603
-0.00535126
-0.00534702
-0.00534336
-0.00534034
-0.00533807
-0.00533663
-0.00533585
-0.0053353
-0.00533462
-0.00533352
-0.00533141
-0.00532783
-0.00532338
-0.00524675
-0.00529828
-0.00526747
-0.00517674
-0.00526495
0.00315124
0.00313043
0.0031656
0.00312094
-0.00131758
-0.00532116
-0.00539695
-0.00546026
-0.00548658
-0.00550846
-0.00553046
-0.00555158
-0.00555715
-0.00561736
-0.00565001
-0.00568862
-0.00575008
-0.00571151
-0.00559485
-0.00570755
-0.00575492
-0.00583582
-0.00558359
-0.00562123
-0.00586446
-0.00602229
-0.00598255
-0.00597385
-0.00536067
-0.00535457
-0.00534862
-0.00534336
-0.00533861
-0.00533433
-0.00533056
-0.00532733
-0.00532475
-0.00532288
-0.00532161
-0.00532059
-0.0053194
-0.00531758
-0.00531468
-0.00531074
-0.00530084
-0.00529594
-0.00526947
-0.00519856
-0.00518822
-0.00517332
-0.00349021
0.00225704
0.00334564
0.00157239
-0.0047433
-0.00539318
-0.00536444
-0.0054478
-0.0054856
-0.00550809
-0.00552961
-0.0055542
-0.00558143
-0.00561487
-0.00565082
-0.0056939
-0.00572486
-0.00570755
-0.00568475
-0.00572755
-0.00577706
-0.00583356
-0.00580192
-0.00584172
-0.00596866
-0.00597783
-0.00597484
-0.00596788
-0.00534714
-0.00534127
-0.0053355
-0.00533033
-0.00532562
-0.00532132
-0.00531746
-0.00531409
-0.00531126
-0.00530904
-0.0053074
-0.00530606
-0.00530463
-0.00530267
-0.00529979
-0.00529527
-0.00528852
-0.00527977
-0.00526391
-0.0052493
-0.00503394
-0.00520233
-0.0052161
-0.0047703
-0.00419322
-0.00529836
-0.00553833
-0.00532764
-0.00538068
-0.00544194
-0.00540578
-0.00548644
-0.00552381
-0.00555265
-0.00558548
-0.00562945
-0.00566549
-0.00571564
-0.00574051
-0.00572725
-0.00561773
-0.00570781
-0.00578928
-0.00591696
-0.00587571
-0.00590355
-0.0059408
-0.00597518
-0.00570406
-0.00572781
-0.00533336
-0.00532769
-0.00532208
-0.00531701
-0.00531234
-0.00530803
-0.00530413
-0.00530066
-0.00529766
-0.00529519
-0.00529327
-0.00529175
-0.00529031
-0.00528857
-0.00528619
-0.00528262
-0.00527617
-0.00527087
-0.00526364
-0.00519674
-0.00526876
-0.00525359
-0.00528742
-0.00534091
-0.00538371
-0.00543627
-0.00546506
-0.00542968
-0.0054215
-0.00543045
-0.00543022
-0.00547999
-0.0054487
-0.00553199
-0.00557091
-0.00553588
-0.00546814
-0.00561801
-0.00576729
-0.00572757
-0.00544556
-0.00554006
-0.00581086
-0.00602007
-0.005967
-0.00593336
-0.00594818
-0.00597886
-0.00577997
-0.00602552
-0.00531943
-0.00531391
-0.00530843
-0.00530344
-0.00529881
-0.00529451
-0.00529059
-0.00528707
-0.00528397
-0.00528134
-0.00527923
-0.0052776
-0.00527623
-0.00527484
-0.00527314
-0.00526978
-0.00526571
-0.0052606
-0.00524427
-0.00525207
-0.00527463
-0.00527756
-0.00528755
-0.00524234
-0.00537926
-0.00540632
-0.00542311
-0.00540855
-0.0054134
-0.00544814
-0.00546133
-0.00548587
-0.00551955
-0.00552938
-0.00556756
-0.0056236
-0.00569782
-0.00574475
-0.00591151
-0.00557535
-0.00280165
-0.0024179
-0.0047124
-0.0063304
-0.00602847
-0.00594894
-0.00594925
-0.00597337
-0.00599142
-0.00602423
-0.00530538
-0.00529997
-0.00529457
-0.00528964
-0.00528505
-0.00528077
-0.00527685
-0.00527331
-0.00527018
-0.00526748
-0.00526527
-0.00526358
-0.00526233
-0.00526132
-0.00526024
-0.00525849
-0.0052557
-0.00525317
-0.00525184
-0.00526564
-0.00526614
-0.00528903
-0.00522824
-0.00532049
-0.00535767
-0.00536702
-0.00539224
-0.00540346
-0.00542013
-0.00543812
-0.00545483
-0.00547607
-0.00550179
-0.005529
-0.00555687
-0.00559252
-0.00563955
-0.00571103
-0.00586628
0.00563885
0.00932234
0.00976432
0.00858166
-0.00407306
-0.00580223
-0.00586338
-0.00590928
-0.00595302
-0.00597374
-0.00602485
-0.00529126
-0.00528589
-0.00528054
-0.00527564
-0.00527108
-0.00526682
-0.00526291
-0.00525938
-0.00525626
-0.00525357
-0.00525135
-0.00524966
-0.00524852
-0.00524787
-0.00524751
-0.00524709
-0.00524678
-0.00524775
-0.00525245
-0.00526059
-0.00523944
-0.00527576
-0.0051688
-0.00530078
-0.00532946
-0.0053388
-0.00537336
-0.00539128
-0.00540728
-0.00542486
-0.00544355
-0.00546385
-0.00548509
-0.0055068
-0.00552926
-0.00555328
-0.00557448
-0.00557048
-0.00298345
0.00998769
0.00962504
0.00972432
0.00974034
0.00297177
-0.00565364
-0.00581605
-0.00588342
-0.00596415
-0.00601978
-0.00603941
-0.00527707
-0.00527169
-0.00526633
-0.00526144
-0.00525688
-0.00525264
-0.00524876
-0.00524526
-0.00524219
-0.00523956
-0.0052374
-0.00523577
-0.00523474
-0.00523435
-0.00523458
-0.0052352
-0.00523598
-0.00523765
-0.00524215
-0.0052307
-0.00525598
-0.00526726
-0.00527514
-0.00528921
-0.00529943
-0.00518048
-0.00535346
-0.00537559
-0.00539295
-0.00541203
-0.00543098
-0.00544987
-0.00546818
-0.00548497
-0.00549929
-0.00550843
-0.00550524
-0.00547112
-0.00377695
0.00961371
0.00953269
0.00975428
0.00982102
0.00163282
-0.00574761
-0.0058252
-0.00585298
-0.00575647
-0.0056822
-0.00606162
-0.00526279
-0.00525734
-0.00525193
-0.00524702
-0.00524246
-0.00523823
-0.00523436
-0.00523091
-0.00522791
-0.00522537
-0.00522334
-0.00522186
-0.00522098
-0.00522079
-0.00522137
-0.00522261
-0.00522438
-0.00522726
-0.00523247
-0.00523897
-0.00525055
-0.0052533
-0.00526619
-0.00528573
-0.00527561
-0.00531432
-0.00534968
-0.00536206
-0.00538068
-0.00540016
-0.00541897
-0.00543706
-0.00545369
-0.00546729
-0.00547539
-0.00547337
-0.00545389
-0.00541454
-0.00531827
0.00463518
0.00904821
0.0100754
0.00899055
-0.00336113
-0.00581972
-0.00587745
-0.00592854
-0.00600166
-0.00603061
-0.00605916
-0.00524839
-0.00524282
-0.00523733
-0.00523236
-0.00522778
-0.00522355
-0.00521971
-0.00521631
-0.00521339
-0.00521098
-0.00520911
-0.00520782
-0.00520716
-0.00520722
-0.00520807
-0.00520978
-0.00521237
-0.00521633
-0.00522155
-0.00522945
-0.0052384
-0.0052486
-0.00526503
-0.00527718
-0.00528792
-0.00530984
-0.00533375
-0.00535267
-0.00537123
-0.00538996
-0.00540872
-0.00542673
-0.00544309
-0.00545628
-0.00546537
-0.00546806
-0.00544701
-0.00541557
-0.00532533
-0.00501783
2.625e-05
0.00174709
-0.00425714
-0.00613939
-0.00599366
-0.00597305
-0.00598643
-0.00600915
-0.00604737
-0.00607517
-0.00523383
-0.0052281
-0.00522248
-0.00521743
-0.00521281
-0.00520857
-0.00520476
-0.00520142
-0.00519859
-0.00519632
-0.00519463
-0.00519358
-0.0051932
-0.00519357
-0.00519476
-0.00519688
-0.00520007
-0.00520445
-0.00521052
-0.00521864
-0.00522845
-0.00523989
-0.00525308
-0.00526677
-0.00528216
-0.00530093
-0.00532253
-0.00534229
-0.00536156
-0.00538091
-0.00540029
-0.00541896
-0.00543634
-0.00545041
-0.0054618
-0.00545889
-0.0053795
-0.00542684
-0.00541433
-0.00538561
-0.00557592
-0.00584684
-0.00579509
-0.00590347
-0.00599824
-0.00591226
-0.00599595
-0.0060327
-0.00606332
-0.00609322
-0.00521905
-0.00521312
-0.00520734
-0.00520219
-0.00519751
-0.00519326
-0.00518948
-0.0051862
-0.00518348
-0.00518135
-0.00517987
-0.00517907
-0.00517902
-0.00517977
-0.00518139
-0.00518397
-0.00518763
-0.00519256
-0.005199
-0.00520707
-0.00521664
-0.00522804
-0.00524118
-0.00525591
-0.00527226
-0.00529137
-0.00531123
-0.00533136
-0.00535176
-0.00537253
-0.00539335
-0.00541353
-0.00543254
-0.00544982
-0.00546313
-0.00547022
-0.00548599
-0.00549723
-0.00549699
-0.00552273
-0.00564248
-0.00578861
-0.00581073
-0.00591697
-0.00597646
-0.00600775
-0.00602599
-0.00605256
-0.006083
-0.00611391
-0.00520399
-0.00519783
-0.00519187
-0.0051866
-0.00518186
-0.00517758
-0.00517382
-0.00517061
-0.005168
-0.00516604
-0.00516477
-0.00516426
-0.00516456
-0.00516573
-0.00516786
-0.00517102
-0.00517531
-0.00518086
-0.00518776
-0.0051961
-0.00520587
-0.0052172
-0.00523015
-0.00524456
-0.00526074
-0.0052789
-0.00529888
-0.00532003
-0.00534205
-0.00536456
-0.00538712
-0.0054093
-0.00543068
-0.00545105
-0.00547118
-0.00549181
-0.00551071
-0.00553127
-0.005556
-0.00558871
-0.00567132
-0.00576963
-0.00561974
-0.00568505
-0.00596011
-0.00599966
-0.00603805
-0.0060726
-0.00610535
-0.00613438
-0.00518856
-0.00518217
-0.005176
-0.00517061
-0.00516579
-0.00516149
-0.00515775
-0.00515461
-0.00515213
-0.00515034
-0.00514931
-0.00514909
-0.00514977
-0.0051514
-0.00515406
-0.00515784
-0.0051628
-0.00516904
-0.00517664
-0.00518568
-0.00519617
-0.00520812
-0.00522146
-0.00523619
-0.00525235
-0.00527001
-0.00528902
-0.00530933
-0.00533118
-0.00535435
-0.00537882
-0.00540423
-0.00542958
-0.00545449
-0.0054793
-0.00550473
-0.00553171
-0.00556222
-0.00559679
-0.00564102
-0.00571668
-0.00581991
-0.00589564
-0.00593547
-0.00596594
-0.0060022
-0.00604399
-0.00608607
-0.006123
-0.00615487
-0.00517271
-0.00516606
-0.00515969
-0.00515416
-0.00514926
-0.00514494
-0.00514122
-0.00513817
-0.00513581
-0.00513421
-0.00513343
-0.00513354
-0.00513462
-0.00513673
-0.00513994
-0.00514431
-0.00514989
-0.00515676
-0.00516498
-0.00517459
-0.00518562
-0.00519808
-0.00521196
-0.00522729
-0.00524414
-0.00526261
-0.00528271
-0.00530431
-0.00532711
-0.00535031
-0.00537424
-0.00539965
-0.005427
-0.00545587
-0.00548605
-0.00551711
-0.00554956
-0.00558501
-0.00562552
-0.00567492
-0.00574094
-0.00581581
-0.00588024
-0.00592947
-0.00597018
-0.0060162
-0.00606628
-0.00610899
-0.00614329
-0.00616702
-0.00515635
-0.00514945
-0.00514286
-0.0051372
-0.00513223
-0.00512788
-0.0051242
-0.00512123
-0.00511901
-0.00511762
-0.00511711
-0.00511758
-0.00511909
-0.0051217
-0.00512546
-0.00513038
-0.00513654
-0.00514398
-0.00515274
-0.00516287
-0.00517436
-0.00518722
-0.00520146
-0.0052171
-0.00523424
-0.00525306
-0.00527379
-0.00529675
-0.00532201
-0.00534792
-0.00537522
-0.00540368
-0.00543224
-0.00546097
-0.0054914
-0.00552534
-0.00556252
-0.00560298
-0.00564735
-0.00569774
-0.00575663
-0.00581904
-0.00587645
-0.00592468
-0.00596983
-0.00599988
-0.00604475
-0.00594712
-0.00612863
-0.00617387
-0.00513942
-0.00513226
-0.00512548
-0.00511968
-0.00511464
-0.00511027
-0.00510663
-0.00510375
-0.00510169
-0.00510052
-0.00510032
-0.00510117
-0.00510315
-0.00510627
-0.00511055
-0.00511602
-0.00512272
-0.0051307
-0.00513999
-0.00515061
-0.00516254
-0.00517576
-0.00519026
-0.00520603
-0.00522319
-0.00524201
-0.00526306
-0.00528729
-0.00531533
-0.00534275
-0.00537211
-0.00540441
-0.00543797
-0.00547212
-0.0055061
-0.0055399
-0.0055754
-0.0056163
-0.00566292
-0.00571436
-0.00577027
-0.00582805
-0.00588282
-0.00593246
-0.0059788
-0.00601957
-0.0060764
-0.00600961
-0.00615487
-0.00622699
-0.00512183
-0.00511445
-0.00510747
-0.00510155
-0.00509644
-0.00509207
-0.00508847
-0.0050857
-0.00508381
-0.00508288
-0.00508302
-0.00508431
-0.00508676
-0.00509038
-0.00509518
-0.00510117
-0.00510841
-0.00511693
-0.00512677
-0.0051379
-0.00515029
-0.00516389
-0.00517858
-0.00519433
-0.00521119
-0.00522942
-0.00524995
-0.00527565
-0.00530859
-0.00533604
-0.00536659
-0.00540337
-0.0054416
-0.00547975
-0.00551784
-0.00555638
-0.00559579
-0.00563555
-0.00567806
-0.00572713
-0.00578163
-0.00583727
-0.00588996
-0.00594006
-0.00598448
-0.00600444
-0.0060672
-0.00609659
-0.00621822
-0.00626241
-0.00510354
-0.00509593
-0.00508877
-0.00508275
-0.00507759
-0.00507322
-0.00506969
-0.00506703
-0.00506533
-0.00506469
-0.0050652
-0.00506693
-0.00506986
-0.00507397
-0.00507926
-0.00508577
-0.00509356
-0.00510267
-0.0051131
-0.00512483
-0.00513778
-0.00515182
-0.00516672
-0.00518233
-0.00519864
-0.00521586
-0.00523414
-0.00525898
-0.00530342
-0.00532675
-0.00535702
-0.00540089
-0.00544479
-0.00548702
-0.00552843
-0.00556981
-0.00561181
-0.00565483
-0.00569911
-0.00574417
-0.00579275
-0.00584565
-0.00589855
-0.0059501
-0.00600095
-0.00605588
-0.00605423
-0.00609519
-0.00618686
-0.00563326
-0.00508446
-0.00507666
-0.00506935
-0.00506323
-0.00505803
-0.00505369
-0.00505023
-0.00504771
-0.00504622
-0.00504589
-0.0050468
-0.00504898
-0.00505237
-0.00505696
-0.00506275
-0.00506979
-0.00507816
-0.00508791
-0.00509904
-0.0051115
-0.00512519
-0.00513986
-0.00515512
-0.0051705
-0.00518563
-0.00520077
-0.0052182
-0.00523865
-0.00529778
-0.00531391
-0.00534236
-0.00539762
-0.00544845
-0.00549474
-0.00553898
-0.00558251
-0.00562634
-0.00567101
-0.0057168
-0.00576358
-0.00581049
-0.00585719
-0.00590862
-0.00595499
-0.00600281
-0.00605363
-0.00609019
-0.00610471
-0.0061563
-0.00614916
-0.00506455
-0.00505658
-0.00504913
-0.00504294
-0.00503773
-0.00503342
-0.00503005
-0.00502769
-0.00502645
-0.00502645
-0.00502778
-0.0050304
-0.00503424
-0.0050393
-0.00504559
-0.00505319
-0.00506219
-0.00507265
-0.00508461
-0.00509801
-0.0051127
-0.00512833
-0.00514423
-0.00515913
-0.0051717
-0.00518098
-0.00518683
-0.00522453
-0.00528846
-0.00530374
-0.00532328
-0.00538652
-0.00545092
-0.00550373
-0.00555025
-0.00559514
-0.00564016
-0.00568595
-0.00573275
-0.00578046
-0.00582858
-0.00587601
-0.00592409
-0.00597268
-0.00601539
-0.00605746
-0.00611715
-0.00593772
-0.00617782
-0.00616071
-0.00504375
-0.00503563
-0.00502808
-0.00502183
-0.00501662
-0.00501237
-0.00500911
-0.00500693
-0.00500596
-0.00500634
-0.00500808
-0.00501111
-0.00501539
-0.00502092
-0.00502773
-0.00503592
-0.00504559
-0.00505687
-0.0050698
-0.00508441
-0.00510057
-0.00511777
-0.00513498
-0.00515027
-0.00515722
-0.00513506
-0.00510978
-0.00512098
-0.00498315
-0.00508652
-0.00524476
-0.00536252
-0.00545736
-0.00551508
-0.00556318
-0.00560831
-0.0056538
-0.00570029
-0.00574791
-0.00579657
-0.00584577
-0.00589469
-0.0059422
-0.00598771
-0.00603
-0.00606988
-0.00612204
-0.00593065
-0.00594671
-0.00622678
-0.00502202
-0.00501378
-0.00500614
-0.00499987
-0.00499468
-0.00499049
-0.00498736
-0.00498539
-0.00498472
-0.00498548
-0.00498762
-0.00499105
-0.00499577
-0.00500179
-0.00500915
-0.00501796
-0.00502835
-0.00504049
-0.00505456
-0.00507073
-0.00508913
-0.00510953
-0.0051308
-0.00515085
-0.00516713
-0.00514022
-0.00447684
0.000281682
0.00604329
0.0031957
-0.00360011
-0.00541049
-0.00549344
-0.00553548
-0.00557972
-0.00562273
-0.00566734
-0.00571433
-0.00576278
-0.00581253
-0.005863
-0.00591317
-0.00596208
-0.00600922
-0.00605561
-0.00609651
-0.00613972
-0.00613463
-0.0061324
-0.0061741
-0.00499929
-0.00499096
-0.00498327
-0.00497699
-0.00497184
-0.00496775
-0.00496477
-0.00496303
-0.00496268
-0.00496382
-0.00496634
-0.00497018
-0.00497533
-0.00498185
-0.0049898
-0.00499925
-0.00501037
-0.0050234
-0.00503862
-0.00505652
-0.00507792
-0.00510434
-0.00513859
-0.00518555
-0.00525582
-0.00543873
0.00108709
0.00509795
0.00546501
0.00514693
0.00377694
-0.00546284
-0.00557728
-0.00558911
-0.00560884
-0.00564047
-0.00568217
-0.00572859
-0.00577759
-0.00582864
-0.0058808
-0.00593278
-0.00598381
-0.00603204
-0.0060772
-0.00611987
-0.00615388
-0.00617735
-0.00619082
-0.00618616
-0.00497555
-0.00496715
-0.00495942