/*--------------------------------*- C++ -*----------------------------------*\
| =========                 |                                                 |
| \\      /  F ield         | OpenFOAM: The Open Source CFD Toolbox           |
|  \\    /   O peration     | Version:  2.4.0                                 |
|   \\  /    A nd           | Web:      www.OpenFOAM.org                      |
|    \\/     M anipulation  |                                                 |
\*---------------------------------------------------------------------------*/
FoamFile
{
    version     2.0;
    format      ascii;
    class       volScalarField;
    location    "0.469";
    object      alpha.water;
}
// * * * * * * * * * * * * * * * * * * * * * * * * * * * * * * * * * * * * * //

dimensions      [0 0 0 0 0 0 0];

internalField   nonuniform List<scalar> 
10000
(
2.32939e-47
4.62892e-44
6.91301e-41
3.0302e-38
5.55574e-36
4.84829e-34
2.13958e-32
5.09762e-31
6.99296e-30
5.9203e-29
3.37347e-28
1.57805e-27
6.63613e-27
2.59793e-26
1.02993e-25
4.10093e-25
1.68128e-24
6.94864e-24
2.71434e-23
9.70715e-23
3.14458e-22
9.2577e-22
2.48485e-21
6.06049e-21
1.33312e-20
2.61236e-20
4.55274e-20
7.29739e-20
1.04763e-19
1.26121e-19
1.18265e-19
8.79669e-20
5.18982e-20
2.53866e-20
1.0823e-20
4.25186e-21
1.61346e-21
5.95982e-22
2.11579e-22
7.18442e-23
2.33844e-23
6.87299e-24
1.77737e-24
4.307e-25
1.09974e-25
2.49631e-26
5.45007e-27
2.96828e-27
6.20328e-27
1.73045e-26
5.13427e-43
1.47119e-39
8.51866e-37
1.84523e-34
1.89297e-32
1.03007e-30
3.16853e-29
5.79493e-28
6.63017e-27
5.03026e-26
2.80549e-25
1.32725e-24
5.25488e-24
1.91703e-23
6.9276e-23
2.51449e-22
9.37338e-22
3.50378e-21
1.24512e-20
4.05515e-20
1.19692e-19
3.22361e-19
7.98014e-19
1.81306e-18
3.74991e-18
6.98008e-18
1.15715e-17
1.77443e-17
2.48518e-17
3.06542e-17
3.11488e-17
2.63991e-17
1.86099e-17
1.1054e-17
5.7077e-18
2.65267e-18
1.14368e-18
4.6528e-19
1.80042e-19
6.65184e-20
2.30785e-20
7.29881e-21
2.06941e-21
5.57388e-22
1.46793e-22
3.48918e-23
8.31033e-24
5.19117e-24
1.17849e-23
3.55698e-23
9.77188e-40
1.62863e-36
6.38856e-34
1.00758e-31
7.88262e-30
3.40528e-28
8.6764e-27
1.37307e-25
1.42047e-24
1.02688e-23
5.75471e-23
2.6127e-22
9.72985e-22
3.30871e-21
1.09647e-20
3.64838e-20
1.24688e-19
4.26837e-19
1.39731e-18
4.19378e-18
1.14114e-17
2.84136e-17
6.54238e-17
1.39422e-16
2.73098e-16
4.86457e-16
7.80798e-16
1.14701e-15
1.58272e-15
1.98512e-15
2.1371e-15
1.96835e-15
1.55978e-15
1.06295e-15
6.31582e-16
3.35311e-16
1.62946e-16
7.3577e-17
3.12319e-17
1.25359e-17
4.68823e-18
1.60298e-18
4.98662e-19
1.47502e-19
4.12395e-20
1.04838e-20
2.76632e-21
2.01422e-21
5.00399e-21
1.59112e-20
2.84725e-37
3.70067e-34
1.18116e-31
1.55873e-29
1.04322e-27
3.93605e-26
8.95859e-25
1.30112e-23
1.27712e-22
9.0735e-22
5.01463e-21
2.17841e-20
7.708e-20
2.45482e-19
7.50671e-19
2.2966e-18
7.19956e-18
2.26227e-17
6.84236e-17
1.90749e-16
4.82807e-16
1.11917e-15
2.40992e-15
4.84297e-15
9.03101e-15
1.54646e-14
2.40856e-14
3.42209e-14
4.64788e-14
5.86219e-14
6.57372e-14
6.43463e-14
5.53756e-14
4.17446e-14
2.77503e-14
1.64894e-14
8.88991e-15
4.41275e-15
2.04786e-15
8.90801e-16
3.59336e-16
1.32893e-16
4.52247e-17
1.45409e-17
4.35572e-18
1.1937e-18
3.48279e-19
2.84554e-19
7.47834e-19
2.41546e-18
2.6378e-35
3.04331e-32
8.72175e-30
1.04243e-27
6.36732e-26
2.21149e-24
4.69106e-23
6.46541e-22
6.16453e-21
4.33969e-20
2.35777e-19
9.89129e-19
3.36219e-18
1.00874e-17
2.86158e-17
8.02112e-17
2.29458e-16
6.61753e-16
1.85848e-15
4.84215e-15
1.14636e-14
2.4888e-14
5.03872e-14
9.58732e-14
1.70802e-13
2.82061e-13
4.27497e-13
5.932e-13
7.85908e-13
9.88085e-13
1.1402e-12
1.1698e-12
1.07206e-12
8.73788e-13
6.34354e-13
4.13614e-13
2.45005e-13
1.33426e-13
6.74712e-14
3.17715e-14
1.38282e-14
5.52304e-15
2.04307e-15
7.09586e-16
2.28436e-16
6.76678e-17
2.13431e-17
1.77418e-17
4.64207e-17
1.47258e-16
1.09899e-33
1.211e-30
3.31245e-28
3.77312e-26
2.19307e-24
7.25063e-23
1.47212e-21
1.96651e-20
1.84799e-19
1.29214e-18
6.87324e-18
2.80896e-17
9.24228e-17
2.62513e-16
6.91541e-16
1.77429e-15
4.62815e-15
1.22529e-14
3.19931e-14
7.8083e-14
1.73806e-13
3.55252e-13
6.79148e-13
1.22758e-12
2.09475e-12
3.343e-12
4.94064e-12
6.73587e-12
8.66854e-12
1.07719e-11
1.26465e-11
1.34633e-11
1.29729e-11
1.12669e-11
8.80129e-12
6.20997e-12
3.98984e-12
2.35692e-12
1.29146e-12
6.58063e-13
3.10541e-13
1.35265e-13
5.46838e-14
2.06073e-14
7.17513e-15
2.30891e-15
7.69427e-16
5.7054e-16
1.35937e-15
4.11543e-15
2.50155e-32
2.77029e-29
7.56231e-27
8.52272e-25
4.85584e-23
1.56272e-21
3.08747e-20
4.0455e-19
3.77329e-18
2.62522e-17
1.36273e-16
5.44452e-16
1.73386e-15
4.67633e-15
1.15059e-14
2.71476e-14
6.46208e-14
1.56641e-13
3.79375e-13
8.69475e-13
1.82658e-12
3.52836e-12
6.39029e-12
1.10009e-11
1.80154e-11
2.7827e-11
4.01301e-11
5.37271e-11
6.74376e-11
8.2294e-11
9.71913e-11
1.06319e-10
1.06774e-10
9.78584e-11
8.14326e-11
6.15761e-11
4.25161e-11
2.70119e-11
1.59164e-11
8.72784e-12
4.44655e-12
2.10258e-12
9.26778e-13
3.8049e-13
1.44377e-13
5.05457e-14
1.75752e-14
1.06532e-14
2.09354e-14
5.95664e-14
3.51449e-31
4.0823e-28
1.15546e-25
1.32981e-23
7.6055e-22
2.42398e-20
4.72503e-19
6.13879e-18
5.68071e-17
3.87535e-16
1.95591e-15
7.58678e-15
2.3364e-14
6.03092e-14
1.3963e-13
3.05187e-13
6.63593e-13
1.46894e-12
3.29173e-12
7.08361e-12
1.40752e-11
2.5772e-11
4.43351e-11
7.28232e-11
1.14588e-10
1.71492e-10
2.41581e-10
3.1801e-10
3.91572e-10
4.67922e-10
5.48711e-10
6.10924e-10
6.34505e-10
6.09154e-10
5.36131e-10
4.31475e-10
3.17837e-10
2.15551e-10
1.35629e-10
7.9606e-11
4.36264e-11
2.23386e-11
1.07067e-11
4.78471e-12
1.9796e-12
7.56373e-13
2.77301e-13
1.37103e-13
1.95299e-13
5.0542e-13
3.28646e-30
4.18947e-27
1.28139e-24
1.55769e-22
9.1606e-21
2.93779e-19
5.68539e-18
7.30787e-17
6.64863e-16
4.33324e-15
2.09973e-14
7.89399e-14
2.35857e-13
5.86165e-13
1.28737e-12
2.62493e-12
5.23901e-12
1.05776e-11
2.18399e-11
4.40733e-11
8.29481e-11
1.44287e-10
2.36188e-10
3.70476e-10
5.60185e-10
8.12319e-10
1.11868e-09
1.45147e-09
1.77014e-09
2.07129e-09
2.38779e-09
2.68087e-09
2.8586e-09
2.85721e-09
2.64529e-09
2.25491e-09
1.76218e-09
1.26557e-09
8.44042e-10
5.27179e-10
3.09608e-10
1.71296e-10
8.91832e-11
4.34264e-11
1.96292e-11
8.20276e-12
3.21905e-12
1.39889e-12
1.29362e-12
2.7941e-12
2.14113e-29
3.19683e-26
1.12297e-23
1.51007e-21
9.3301e-20
3.00477e-18
5.7115e-17
7.08421e-16
6.09854e-15
3.76863e-14
1.75035e-13
6.35375e-13
1.84684e-12
4.42609e-12
9.26848e-12
1.7767e-11
3.28006e-11
6.05575e-11
1.14833e-10
2.16776e-10
3.8647e-10
6.39524e-10
9.97164e-10
1.49355e-09
2.16754e-09
3.04038e-09
4.08983e-09
5.23617e-09
6.3515e-09
7.35219e-09
8.35589e-09
9.40648e-09
1.0244e-08
1.06163e-08
1.03052e-08
9.28284e-09
7.66604e-09
5.7652e-09
4.03065e-09
2.65825e-09
1.66536e-09
9.92851e-10
5.60737e-10
2.97489e-10
1.47042e-10
6.73496e-11
2.86938e-11
1.21324e-11
7.46134e-12
1.13248e-11
1.05653e-28
2.0609e-25
9.03088e-23
1.36537e-20
8.48684e-19
2.62114e-17
4.74565e-16
5.60225e-15
4.51192e-14
2.6408e-13
1.17669e-12
4.1029e-12
1.14783e-11
2.65341e-11
5.32405e-11
9.6788e-11
1.66957e-10
2.83561e-10
4.93202e-10
8.68161e-10
1.46417e-09
2.30554e-09
3.42519e-09
4.89463e-09
6.80036e-09
9.19107e-09
1.20318e-08
1.51769e-08
1.83579e-08
2.13456e-08
2.42696e-08
2.74858e-08
3.06184e-08
3.29665e-08
3.3643e-08
3.2224e-08
2.80285e-08
2.1726e-08
1.56184e-08
1.07369e-08
7.11718e-09
4.5469e-09
2.77434e-09
1.59875e-09
8.62019e-10
4.32114e-10
2.01073e-10
8.87106e-11
4.34904e-11
3.98511e-11
5.09964e-28
1.34986e-24
7.28665e-22
1.12824e-19
6.68746e-18
1.95633e-16
3.37094e-15
3.73565e-14
2.83229e-13
1.55788e-12
6.54221e-12
2.16189e-11
5.78021e-11
1.28597e-10
2.47898e-10
4.30325e-10
7.00457e-10
1.10393e-09
1.76443e-09
2.89005e-09
4.6046e-09
6.89942e-09
9.76767e-09
1.33082e-08
1.76545e-08
2.2877e-08
2.89653e-08
3.58199e-08
4.30682e-08
5.08461e-08
5.93234e-08
6.85552e-08
7.92304e-08
8.98601e-08
9.23537e-08
1.00605e-07
9.4718e-08
7.32509e-08
5.27353e-08
3.70302e-08
2.55691e-08
1.72813e-08
1.12605e-08
6.97535e-09
4.06613e-09
2.21508e-09
1.12334e-09
5.32907e-10
2.49368e-10
1.50714e-10
2.26504e-27
8.55462e-24
5.60007e-21
8.56096e-19
4.78168e-17
1.33472e-15
2.15562e-14
2.18283e-13
1.51534e-12
7.74261e-12
3.03806e-11
9.43307e-11
2.39715e-10
5.12081e-10
9.50059e-10
1.58204e-09
2.45093e-09
3.62113e-09
5.35074e-09
8.1545e-09
1.22506e-08
1.74521e-08
2.35358e-08
3.05497e-08
3.85906e-08
4.76887e-08
5.79951e-08
6.98612e-08
8.28434e-08
9.92275e-08
1.21858e-07
1.49158e-07
1.56641e-07
9.93366e-08
2.73235e-07
3.6596e-07
3.40663e-07
2.5489e-07
1.77651e-07
1.21036e-07
8.31615e-08
5.75797e-08
3.89991e-08
2.53796e-08
1.5703e-08
9.16697e-09
5.02081e-09
2.57575e-09
1.25636e-09
6.42249e-10
9.25093e-27
7.03294e-23
4.74354e-20
6.44225e-18
3.22822e-16
8.11272e-15
1.16328e-13
1.06561e-12
6.79313e-12
3.22793e-11
1.17833e-10
3.44303e-10
8.30501e-10
1.69801e-09
3.02893e-09
4.85349e-09
7.20923e-09
1.00994e-08
1.39591e-08
1.98701e-08
2.80836e-08
3.79701e-08
4.87589e-08
6.02791e-08
7.23537e-08
8.48952e-08
9.85783e-08
1.1488e-07
1.32743e-07
1.60344e-07
2.07394e-07
2.00765e-07
1.75889e-07
5.81738e-07
4.95093e-07
1.14504e-06
8.79747e-07
5.64026e-07
4.02049e-07
2.99894e-07
2.22626e-07
1.61146e-07
1.12428e-07
7.55352e-08
4.87563e-08
3.00833e-08
1.7629e-08
9.76048e-09
5.11228e-09
2.60936e-09
7.70669e-26
7.18868e-22
3.79133e-19
4.22119e-17
1.85425e-15
4.08118e-14
5.22214e-13
4.34155e-12
2.56653e-11
1.12753e-10
3.84921e-10
1.05666e-09
2.41254e-09
4.713e-09
8.08991e-09
1.25174e-08
1.79434e-08
2.41177e-08
3.16724e-08
4.25028e-08
5.66482e-08
7.25491e-08
8.87954e-08
1.04746e-07
1.19475e-07
1.32803e-07
1.46833e-07
1.64688e-07
1.82193e-07
2.12864e-07
2.75489e-07
3.36585e-07
4.133e-07
5.0504e-07
7.62978e-07
5.31764e-06
3.71565e-06
1.65253e-06
8.54577e-07
5.52561e-07
4.19609e-07
3.17929e-07
2.32784e-07
1.64423e-07
1.12249e-07
7.38941e-08
4.66372e-08
2.804e-08
1.59928e-08
8.71041e-09
9.90889e-25
6.561e-21
2.53877e-18
2.3383e-16
8.84497e-15
1.70206e-13
1.95066e-12
1.4875e-11
8.10566e-11
3.3062e-10
1.0535e-09
2.72273e-09
5.89775e-09
1.10212e-08
1.82381e-08
2.7354e-08
3.80979e-08
4.97972e-08
6.33167e-08
8.11644e-08
1.02577e-07
1.2532e-07
1.46891e-07
1.66459e-07
1.81671e-07
1.91429e-07
2.01845e-07
2.18302e-07
2.30702e-07
2.36861e-07
2.38875e-07
5.17126e-07
4.84549e-07
1.37319e-06
5.80317e-06
1.75058e-05
1.71384e-05
1.52445e-05
2.91776e-06
1.14021e-06
6.08421e-07
4.27889e-07
3.28866e-07
2.51448e-07
1.8706e-07
1.34471e-07
9.28532e-08
6.12349e-08
3.83827e-08
2.28735e-08
1.23448e-23
4.88628e-20
1.40454e-17
1.08105e-15
3.47816e-14
5.88877e-13
6.08277e-12
4.2631e-11
2.13762e-10
8.09416e-10
2.41756e-09
5.90423e-09
1.21742e-08
2.18229e-08
3.49268e-08
5.10164e-08
6.95667e-08
8.97495e-08
1.12624e-07
1.40262e-07
1.70428e-07
2.01019e-07
2.29504e-07
2.52263e-07
2.6857e-07
2.68252e-07
2.69918e-07
2.84079e-07
2.96859e-07
3.03816e-07
3.13376e-07
3.36125e-07
3.86361e-07
6.71743e-07
4.13054e-06
1.60329e-05
1.7144e-05
8.53507e-06
1.8201e-06
8.29923e-07
5.8976e-07
4.78531e-07
3.9348e-07
3.20388e-07
2.56445e-07
1.99885e-07
1.50398e-07
1.08552e-07
7.47386e-08
4.89638e-08
1.24639e-22
2.94902e-19
6.43693e-17
4.09658e-15
1.13084e-13
1.69557e-12
1.59389e-11
1.01847e-10
4.71391e-10
1.66504e-09
4.67651e-09
1.08236e-08
2.13106e-08
3.67669e-08
5.71405e-08
8.16863e-08
1.09969e-07
1.42056e-07
1.78775e-07
2.19979e-07
2.62003e-07
3.03818e-07
3.41368e-07
3.66439e-07
3.90462e-07
3.64812e-07
2.71279e-07
3.46919e-07
3.69816e-07
3.65446e-07
3.54205e-07
3.64889e-07
4.32146e-07
5.20395e-07
9.20696e-07
4.40656e-06
3.95283e-06
2.37701e-06
1.27344e-06
8.72069e-07
6.69688e-07
5.40598e-07
4.475e-07
3.74974e-07
3.14723e-07
2.60801e-07
2.10871e-07
1.65017e-07
1.24227e-07
8.94948e-08
9.84559e-22
1.43512e-18
2.42077e-16
1.27392e-14
3.04568e-13
4.08074e-12
3.48142e-11
2.04018e-10
8.7632e-10
2.89766e-09
7.68391e-09
1.69198e-08
3.19276e-08
5.31977e-08
8.05896e-08
1.13147e-07
1.51479e-07
1.97982e-07
2.52278e-07
3.1033e-07
3.67394e-07
4.24855e-07
4.66575e-07
4.8563e-07
5.3398e-07
3.67719e-07
1.4354e-06
5.07071e-07
4.57503e-07
4.21221e-07
3.91389e-07
3.71401e-07
3.76569e-07
4.20345e-07
4.95891e-07
1.22797e-06
1.36348e-06
8.71505e-07
6.03181e-07
5.61728e-07
5.14881e-07
4.71673e-07
4.29873e-07
3.89641e-07
3.5159e-07
3.13491e-07
2.73455e-07
2.31788e-07
1.89938e-07
1.50181e-07
5.98121e-21
5.60651e-18
7.39702e-16
3.26225e-14
6.83141e-13
8.23842e-12
6.39357e-11
3.46048e-10
1.38717e-09
4.31996e-09
1.08713e-08
2.28785e-08
4.15518e-08
6.71456e-08
9.95601e-08
1.37465e-07
1.83867e-07
2.43955e-07
3.14548e-07
3.86593e-07
4.53831e-07
5.24863e-07
5.60285e-07
5.32104e-07
6.57603e-07
6.97961e-07
6.01329e-07
5.75371e-07
5.2579e-07
4.82713e-07
4.45874e-07
4.1454e-07
3.92456e-07
3.83828e-07
3.81485e-07
5.24388e-07
5.91937e-07
5.21256e-07
4.79682e-07
4.67508e-07
4.58376e-07
4.48202e-07
4.07375e-07
4.04753e-07
3.96348e-07
3.80898e-07
3.56429e-07
3.23818e-07
2.85834e-07
2.47165e-07
2.79232e-20
1.75924e-17
1.84457e-15
6.92236e-14
1.28335e-12
1.40106e-11
9.99653e-11
5.03764e-10
1.89946e-09
5.60987e-09
1.34859e-08
2.72966e-08
4.80032e-08
7.56325e-08
1.10219e-07
1.49671e-07
2.00497e-07
2.68287e-07
3.45331e-07
4.17078e-07
4.72712e-07
5.20793e-07
5.62751e-07
9.54096e-07
1.0041e-06
1.01254e-06
9.30003e-07
8.03413e-07
6.25613e-07
5.72859e-07
5.19723e-07
4.77521e-07
4.44228e-07
4.22276e-07
4.1285e-07
4.2474e-07
4.43146e-07
4.50931e-07
4.63506e-07
4.78651e-07
4.93399e-07
4.48677e-07
1.14596e-06
4.32895e-07
4.31051e-07
4.23333e-07
4.06501e-07
3.86678e-07
3.0723e-07
4.08728e-07
1.01321e-19
4.48927e-17
3.82744e-15
1.24111e-13
2.05613e-12
2.04382e-11
1.35074e-10
6.38806e-10
2.28516e-09
6.45442e-09
1.49453e-08
2.93383e-08
5.03656e-08
7.79381e-08
1.12206e-07
1.50073e-07
2.00961e-07
2.6581e-07
3.3313e-07
3.87271e-07
3.87956e-07
1.61014e-06
7.28252e-07
7.8377e-07
1.56058e-06
4.41518e-06
4.82564e-06
8.28015e-07
9.94705e-07
6.0438e-07
5.78724e-07
5.16898e-07
4.74938e-07
4.50171e-07
4.43237e-07
4.53794e-07
4.76905e-07
5.05335e-07
5.34665e-07
5.58925e-07
5.77605e-07
5.85152e-07
5.85106e-07
5.74731e-07
5.67466e-07
5.76207e-07
6.14505e-07
6.26776e-07
7.80488e-07
5.5142e-07
2.87711e-19
9.41081e-17
6.68232e-15
1.89971e-13
2.84309e-12
2.60393e-11
1.60943e-10
7.19845e-10
2.45725e-09
6.68491e-09
1.50387e-08
2.89133e-08
4.89296e-08
7.50055e-08
1.07316e-07
1.4187e-07
1.87546e-07
2.38485e-07
2.81591e-07
2.88109e-07
7.20003e-07
3.71287e-07
3.90669e-07
1.83055e-06
1.87186e-05
3.61167e-05
3.40192e-05
1.59547e-05
7.29498e-07
6.60181e-07
5.10174e-07
4.99856e-07
4.66127e-07
4.465e-07
4.41535e-07
4.5192e-07
4.745e-07
5.03855e-07
5.36353e-07
5.70318e-07
6.02998e-07
6.2745e-07
6.36906e-07
6.28402e-07
6.06914e-07
5.84037e-07
5.74034e-07
5.90368e-07
6.06437e-07
7.11803e-06
6.44994e-19
1.64045e-16
9.90089e-15
2.51036e-13
3.43804e-12
2.93069e-11
1.70851e-10
7.28916e-10
2.39728e-09
6.33882e-09
1.39738e-08
2.6519e-08
4.46044e-08
6.82955e-08
9.76762e-08
1.27495e-07
1.62316e-07
1.94196e-07
2.05196e-07
8.09849e-07
3.42326e-07
3.60792e-07
8.59417e-07
7.21438e-06
3.29946e-05
3.61208e-05
3.61217e-05
3.13136e-05
4.3774e-06
1.42971e-06
1.63519e-06
4.63117e-07
4.30422e-07
4.2158e-07
4.20903e-07
4.27441e-07
4.40818e-07
4.5965e-07
4.84848e-07
5.19979e-07
5.68015e-07
6.30069e-07
6.66912e-07
6.79547e-07
6.55037e-07
6.14634e-07
5.81774e-07
6.35308e-07
8.49704e-06
1.63268e-05
1.12671e-18
2.38147e-16
1.25666e-14
2.8878e-13
3.6656e-12
2.93982e-11
1.63262e-10
6.70409e-10
2.14088e-09
5.54619e-09
1.20825e-08
2.28369e-08
3.84929e-08
5.92858e-08
8.50937e-08
1.08081e-07
1.31586e-07
1.57706e-07
3.20349e-07
2.12165e-07
3.79823e-07
3.32366e-07
7.62975e-07
7.63485e-06
3.51214e-05
3.61291e-05
3.57584e-05
3.06153e-05
5.21245e-06
1.60163e-06
6.59082e-07
4.37125e-07
3.98582e-07
3.9662e-07
4.00445e-07
4.05931e-07
4.12214e-07
4.19247e-07
4.28775e-07
4.39124e-07
4.42727e-07
5.04969e-07
1.04856e-06
6.966e-07
6.83796e-07
6.36662e-07
6.00821e-07
5.94257e-07
1.7941e-06
1.63265e-05
1.55683e-18
2.85866e-16
1.35513e-14
2.88676e-13
3.4433e-12
2.63269e-11
1.40808e-10
5.61789e-10
1.75829e-09
4.50219e-09
9.76638e-09
1.85042e-08
3.14351e-08
4.89352e-08
7.06098e-08
8.58036e-08
1.08745e-07
1.88512e-07
1.39244e-07
2.06256e-07
2.28797e-07
3.00272e-07
3.08488e-07
9.46109e-07
2.07256e-05
3.61341e-05
3.45396e-05
1.61701e-05
1.62519e-06
4.28157e-07
5.39103e-07
3.68199e-07
3.43951e-07
3.47539e-07
3.66737e-07
3.78566e-07
3.92394e-07
4.06121e-07
4.19884e-07
4.3328e-07
4.45684e-07
4.52154e-07
4.56122e-07
4.86311e-07
5.09707e-07
5.30311e-07
5.78034e-07
7.15008e-07
1.22926e-06
3.81591e-06
1.7533e-18
2.8844e-16
1.25707e-14
2.5078e-13
2.85677e-12
2.10407e-11
1.09489e-10
4.28661e-10
1.32729e-09
3.38425e-09
7.36005e-09
1.40591e-08
2.41757e-08
3.8166e-08
5.55343e-08
6.7929e-08
1.11245e-07
8.94006e-08
1.34086e-07
1.46912e-07
3.32095e-07
2.86699e-07
2.86122e-07
2.99352e-07
1.40898e-06
5.14591e-06
5.36661e-06
7.31366e-07
4.97307e-07
3.46319e-07
2.9165e-07
3.06515e-07
3.07473e-07
9.53508e-07
3.28878e-07
3.37858e-07
3.55118e-07
3.70293e-07
3.86877e-07
4.02908e-07
4.21805e-07
4.41758e-07
4.60098e-07
4.75088e-07
4.87382e-07
4.99331e-07
5.13999e-07
5.38196e-07
7.49323e-07
1.78531e-06
1.60372e-18
2.47047e-16
1.00964e-14
1.90371e-13
2.09219e-12
1.50173e-11
7.67021e-11
2.97201e-10
9.1742e-10
2.34658e-09
5.14418e-09
9.94388e-09
1.73494e-08
2.78337e-08
4.15811e-08
5.71658e-08
5.87529e-08
8.50154e-08
9.73957e-08
1.09541e-07
4.87741e-07
2.49245e-07
2.46857e-07
3.07158e-07
3.49672e-07
7.86595e-07
7.4005e-07
3.78375e-07
3.14647e-07
3.04172e-07
2.73861e-07
8.90499e-07
3.62542e-07
2.81185e-07
2.84453e-07
3.04287e-07
3.18998e-07
3.19308e-07
9.86802e-07
3.55346e-07
3.70329e-07
3.97324e-07
4.31808e-07
4.44768e-07
5.69659e-07
6.41354e-07
5.29424e-07
5.38789e-07
6.19308e-07
9.25287e-07
1.19672e-18
1.77802e-16
7.0086e-15
1.27152e-13
1.35119e-12
9.54613e-12
4.8317e-11
1.8669e-10
5.77965e-10
1.4918e-09
3.3094e-09
6.48841e-09
1.14961e-08
1.87411e-08
2.85045e-08
4.07658e-08
5.37553e-08
6.04403e-08
6.71612e-08
1.00747e-07
9.43727e-08
1.53054e-07
1.41905e-07
3.74279e-07
3.19634e-07
3.45631e-07
4.16587e-07
2.87922e-07
3.05088e-07
2.88646e-07
2.73453e-07
2.2098e-07
5.23819e-07
2.59171e-07
2.67057e-07
2.81723e-07
2.71565e-07
3.38059e-07
2.87554e-07
3.06102e-07
3.28948e-07
3.49702e-07
3.71554e-07
4.27943e-07
4.75042e-07
4.7633e-07
1.72716e-05
1.09337e-05
5.62485e-06
8.28186e-07
7.29947e-19
1.07197e-16
4.16247e-15
7.41388e-14
7.70599e-13
5.38966e-12
2.72698e-11
1.05828e-10
3.30445e-10
8.63008e-10
1.94294e-09
3.86703e-09
6.95696e-09
1.15175e-08
1.77938e-08
2.5842e-08
3.43936e-08
4.01373e-08
4.63663e-08
4.09605e-08
9.08699e-08
9.62586e-08
1.21815e-07
1.79733e-07
1.57698e-07
5.18287e-07
2.14057e-07
1.76155e-07
3.25233e-07
2.45541e-07
2.21077e-07
2.15773e-07
1.92039e-07
2.13514e-07
2.34626e-07
2.52656e-07
2.68152e-07
2.60613e-07
2.78371e-07
2.93872e-07
3.036e-07
3.05755e-07
3.00467e-07
3.10077e-07
3.65601e-07
3.46313e-05
7.19678e-05
7.1969e-05
6.88166e-05
8.25608e-06
3.63257e-19
5.40709e-17
2.10793e-15
3.74872e-14
3.87639e-13
2.6973e-12
1.37365e-11
5.3888e-11
1.70424e-10
4.51289e-10
1.03265e-09
2.08766e-09
3.81404e-09
6.41254e-09
1.00655e-08
1.48567e-08
1.99923e-08
2.47379e-08
2.38888e-08
3.42652e-08
5.16511e-08
4.73109e-08
8.78662e-08
7.03702e-08
8.21552e-08
6.36046e-08
7.53223e-08
1.63003e-07
9.94761e-08
1.24313e-07
1.48757e-07
1.66642e-07
1.80984e-07
1.94548e-07
2.08267e-07
2.22556e-07
2.37565e-07
2.52781e-07
2.68544e-07
2.83539e-07
2.94855e-07
2.99025e-07
2.92618e-07
3.61641e-07
7.28357e-06
7.17155e-05
7.196e-05
7.1976e-05
7.1963e-05
4.67861e-05
1.47835e-19
2.28285e-17
9.08808e-16
1.6369e-14
1.70525e-13
1.1939e-12
6.1622e-12
2.45551e-11
7.90159e-11
2.12966e-10
4.96395e-10
1.0236e-09
1.90796e-09
3.27377e-09
5.24492e-09
7.90243e-09
1.0805e-08
1.3707e-08
1.58062e-08
2.11347e-08
2.52438e-08
3.05995e-08
3.15839e-08
4.42394e-08
5.58241e-08
5.45593e-08
8.98823e-08
6.41046e-08
7.60296e-08
9.38539e-08
1.09161e-07
1.22103e-07
1.34567e-07
1.47825e-07
1.62442e-07
1.78636e-07
1.96406e-07
2.15457e-07
2.35963e-07
2.5776e-07
2.77383e-07
2.89527e-07
2.89242e-07
2.78533e-07
4.7117e-06
6.86082e-05
7.19556e-05
7.19616e-05
7.18567e-05
4.407e-05
4.92339e-20
8.06466e-18
3.33428e-16
6.16564e-15
6.54841e-14
4.66972e-13
2.46408e-12
1.00626e-11
3.32848e-11
9.26193e-11
2.23897e-10
4.82294e-10
9.40262e-10
1.68483e-09
2.80771e-09
4.38419e-09
6.25295e-09
8.37256e-09
1.07659e-08
1.24564e-08
1.64594e-08
2.06953e-08
2.57719e-08
3.18287e-08
3.80836e-08
4.25012e-08
4.1575e-08
4.86433e-08
5.65358e-08
6.47348e-08
7.35421e-08
8.31323e-08
9.37111e-08
1.05601e-07
1.19185e-07
1.34826e-07
1.52582e-07
1.72227e-07
1.94409e-07
2.21313e-07
2.50672e-07
2.73811e-07
2.83134e-07
2.76578e-07
3.21722e-07
4.17106e-05
7.1954e-05
7.1962e-05
6.85755e-05
1.27575e-05
1.34176e-20
2.38243e-18
1.04074e-16
2.00472e-15
2.20122e-14
1.6259e-13
8.96495e-13
3.87255e-12
1.38505e-11
4.27011e-11
1.15885e-10
2.80755e-10
6.0749e-10
1.18385e-09
2.10106e-09
3.43647e-09
5.18785e-09
7.3614e-09
9.91966e-09
1.27122e-08
1.61214e-08
1.97708e-08
2.36796e-08
2.79236e-08
3.22219e-08
3.62532e-08
4.01178e-08
4.41341e-08
4.8572e-08
5.35447e-08
5.90746e-08
6.52332e-08
7.2111e-08
7.99508e-08
8.92524e-08
1.00647e-07
1.14358e-07
1.3021e-07
1.48039e-07
1.71685e-07
2.0818e-07
2.45413e-07
2.686e-07
2.73377e-07
2.65069e-07
2.5445e-07
2.05365e-05
1.79261e-05
8.38727e-06
4.92821e-07
2.98895e-21
5.90272e-19
2.77835e-17
5.6843e-16
6.61328e-15
5.28613e-14
3.32153e-13
1.76201e-12
8.16262e-12
3.22915e-11
1.06747e-10
2.97077e-10
7.02416e-10
1.44247e-09
2.63302e-09
4.36528e-09
6.69642e-09
9.60629e-09
1.29872e-08
1.68203e-08
2.10253e-08
2.54623e-08
2.99354e-08
3.44264e-08
3.88423e-08
4.31129e-08
4.72107e-08
5.11559e-08
5.50275e-08
5.88755e-08
6.27136e-08
6.65825e-08
7.04284e-08
7.41579e-08
7.8153e-08
8.33322e-08
9.03851e-08
9.9587e-08
1.09224e-07
1.15608e-07
1.45715e-07
1.92406e-07
2.29747e-07
2.46943e-07
2.47989e-07
2.5436e-07
2.26236e-07
2.4568e-07
2.41452e-07
2.70452e-07
5.39879e-22
1.23089e-19
6.43628e-18
1.45443e-16
1.94506e-15
2.0488e-14
1.99886e-13
1.6528e-12
1.03435e-11
4.79573e-11
1.70133e-10
4.8511e-10
1.14737e-09
2.33059e-09
4.18735e-09
6.8353e-09
1.03119e-08
1.45204e-08
1.93776e-08
2.47528e-08
3.04822e-08
3.63982e-08
4.23378e-08
4.81562e-08
5.37267e-08
5.89278e-08
6.36559e-08
6.79016e-08
7.18648e-08
7.57069e-08
7.94679e-08
8.31619e-08
8.64467e-08
8.81323e-08
8.77936e-08
8.65757e-08
8.62561e-08
8.80686e-08
9.21874e-08
9.75167e-08
1.03794e-07
1.13659e-07
1.28951e-07
1.47706e-07
1.66726e-07
1.8817e-07
2.13688e-07
2.29499e-07
2.45833e-07
2.66291e-07
8.12152e-23
2.2283e-20
1.3717e-18
3.95457e-17
8.68562e-16
1.83212e-14
2.92524e-13
2.9706e-12
1.95962e-11
9.03984e-11
3.12531e-10
8.6297e-10
1.97302e-09
3.88069e-09
6.7807e-09
1.07911e-08
1.58331e-08
2.18016e-08
2.85425e-08
3.58469e-08
4.34818e-08
5.12191e-08
5.88495e-08
6.61806e-08
7.30431e-08
7.92747e-08
8.4752e-08
8.95214e-08
9.40779e-08
9.88985e-08
1.04214e-07
1.10351e-07
1.17666e-07
1.21528e-07
1.19049e-07
1.11683e-07
1.03633e-07
9.77174e-08
9.45788e-08
9.40555e-08
9.6063e-08
1.007e-07
1.07933e-07
1.1753e-07
1.29596e-07
1.44564e-07
1.62955e-07
1.79707e-07
1.97943e-07
2.21363e-07
1.08145e-23
3.91737e-21
3.66752e-19
2.24376e-17
1.10308e-15
3.50292e-14
6.14281e-13
6.14927e-12
3.88761e-11
1.7114e-10
5.64871e-10
1.49269e-09
3.27463e-09
6.20981e-09
1.05336e-08
1.62252e-08
2.31562e-08
3.11543e-08
3.99674e-08
4.93076e-08
5.88746e-08
6.83871e-08
7.75936e-08
8.62621e-08
9.41964e-08
1.01216e-07
1.07199e-07
1.12248e-07
1.17289e-07
1.23427e-07
1.31309e-07
1.42207e-07
1.64939e-07
1.78004e-07
1.75507e-07
1.60942e-07
1.42921e-07
1.2836e-07
1.18305e-07
1.11862e-07
1.08219e-07
1.06756e-07
1.07226e-07
1.09655e-07
1.14026e-07
1.2026e-07
1.28184e-07
1.36541e-07
1.44851e-07
1.52533e-07
1.83016e-24
1.30866e-21
3.03739e-19
3.67794e-17
2.35742e-15
7.81561e-14
1.32048e-12
1.24788e-11
7.44726e-11
3.10859e-10
9.75924e-10
2.45952e-09
5.16643e-09
9.45861e-09
1.54689e-08
2.30595e-08
3.20382e-08
4.21074e-08
5.29237e-08
6.41278e-08
7.5368e-08
8.63302e-08
9.67407e-08
1.06335e-07
1.14904e-07
1.22282e-07
1.28335e-07
1.33053e-07
1.37812e-07
1.44739e-07
1.54808e-07
1.71359e-07
2.37497e-07
2.68491e-07
2.59221e-07
2.40566e-07
2.07736e-07
1.80953e-07
1.63454e-07
1.51858e-07
1.42764e-07
1.35227e-07
1.29295e-07
1.2496e-07
1.22354e-07
1.21704e-07
1.2326e-07
1.27206e-07
1.33458e-07
1.41843e-07
1.2713e-24
1.67017e-21
5.67276e-19
7.98899e-17
5.33126e-15
1.71761e-13
2.73573e-12
2.42388e-11
1.36267e-10
5.38437e-10
1.60485e-09
3.85121e-09
7.7539e-09
1.36434e-08
2.14657e-08
3.10242e-08
4.19722e-08
5.39057e-08
6.64051e-08
7.90655e-08
9.15159e-08
1.0344e-07
1.14568e-07
1.24597e-07
1.33323e-07
1.40691e-07
1.46439e-07
1.4998e-07
1.53251e-07
1.59753e-07
1.69534e-07
1.71094e-07
5.11485e-07
3.45608e-07
2.60035e-07
3.77539e-07
3.24972e-07
2.66812e-07
2.35969e-07
2.15136e-07
1.98141e-07
1.84272e-07
1.72623e-07
1.62629e-07
1.54042e-07
1.469e-07
1.4149e-07
1.38287e-07
1.37781e-07
1.4059e-07
2.19881e-24
3.24221e-21
1.18846e-18
1.74812e-16
1.17862e-14
3.6373e-13
5.42479e-12
4.49851e-11
2.38041e-10
8.88547e-10
2.51049e-09
5.73943e-09
1.10638e-08
1.86055e-08
2.8237e-08
3.95865e-08
5.21813e-08
6.55374e-08
7.91941e-08
9.27417e-08
1.05832e-07
1.18181e-07
1.29547e-07
1.39559e-07
1.48039e-07
1.55343e-07
1.60594e-07
1.61996e-07
1.63005e-07
1.68364e-07
1.74293e-07
2.33689e-07
2.62805e-07
4.24714e-06
9.05761e-06
2.57918e-06
9.40449e-07
5.07172e-07
3.59904e-07
3.00702e-07
2.67558e-07
2.44684e-07
2.27107e-07
2.12562e-07
1.99805e-07
1.88207e-07
1.776e-07
1.68148e-07
1.60231e-07
1.54455e-07
4.22097e-24
6.5276e-21
2.49255e-18
3.75853e-16
2.52779e-14
7.40501e-13
1.02954e-11
7.98436e-11
3.96909e-10
1.39729e-09
3.74087e-09
8.16064e-09
1.49397e-08
2.40797e-08
3.52772e-08
4.80066e-08
6.17109e-08
7.58718e-08
9.00349e-08
1.03832e-07
1.16976e-07
1.29249e-07
1.40455e-07
1.50089e-07
1.57968e-07
1.6568e-07
1.7e-07
1.68573e-07
1.68349e-07
1.73841e-07
1.74586e-07
1.74561e-07
9.64965e-06
4.04678e-05
4.27081e-05
3.86169e-05
6.4156e-06
4.48833e-07
4.34248e-07
3.75908e-07
3.31088e-07
3.00085e-07
2.77946e-07
2.60935e-07
2.4664e-07
2.33608e-07
2.21071e-07
2.08718e-07
1.96571e-07
1.84947e-07
7.99513e-24
1.2889e-20
5.12442e-18
7.90849e-16
5.25691e-14
1.4486e-12
1.87146e-11
1.35594e-10
6.31503e-10
2.09556e-09
5.33088e-09
1.09989e-08
1.91603e-08
2.96342e-08
4.19421e-08
5.54562e-08
6.95945e-08
8.38598e-08
9.7851e-08
1.11279e-07
1.23952e-07
1.35728e-07
1.46474e-07
1.55442e-07
1.62171e-07
1.70947e-07
1.72826e-07
1.69623e-07
2.31267e-07
1.79378e-07
1.76137e-07
1.74562e-07
2.89146e-05
4.27025e-05
4.27039e-05
4.26994e-05
2.36844e-05
5.14691e-07
4.79409e-07
4.02327e-07
3.58531e-07
3.29036e-07
3.08299e-07
2.93196e-07
2.81093e-07
2.70098e-07
2.59195e-07
2.47801e-07
2.3572e-07
2.22725e-07
1.5213e-23
2.51853e-20
1.03577e-17
1.6309e-15
1.05942e-13
2.72217e-12
3.26213e-11
2.201e-10
9.59417e-10
3.01167e-09
7.21534e-09
1.40827e-08
2.33883e-08
3.4748e-08
4.75642e-08
6.11751e-08
7.50399e-08
8.87313e-08
1.01936e-07
1.14469e-07
1.26239e-07
1.37186e-07
1.47237e-07
1.55302e-07
1.59423e-07
1.66227e-07
1.9984e-07
1.76532e-07
1.76677e-07
1.80675e-07
1.77018e-07
1.74569e-07
3.25414e-05
4.27027e-05
4.26999e-05
4.26993e-05
2.607e-05
5.96972e-07
4.5879e-07
3.76787e-07
3.43021e-07
3.23126e-07
3.09427e-07
3.00785e-07
2.94388e-07
2.8778e-07
2.81365e-07
2.73397e-07
2.65146e-07
2.557e-07
2.93021e-23
4.88009e-20
2.05536e-17
3.29358e-15
2.06614e-13
4.91178e-12
5.45128e-11
3.41516e-10
1.39962e-09
4.12139e-09
9.2782e-09
1.71668e-08
2.72216e-08
3.89076e-08
5.15813e-08
6.46197e-08
7.75771e-08
9.01276e-08
1.02062e-07
1.13299e-07
1.23844e-07
1.33704e-07
1.42849e-07
1.4984e-07
1.45468e-07
2.02817e-07
1.69325e-07
2.38191e-07
1.77188e-07
1.82921e-07
1.78875e-07
1.80185e-07
3.00729e-06
3.77961e-05
4.26988e-05
3.5345e-05
2.6248e-06
3.91728e-07
3.50774e-07
3.09917e-07
2.99651e-07
2.93508e-07
2.85883e-07
2.85738e-07
2.85721e-07
2.80192e-07
2.84706e-07
2.76876e-07
2.73973e-07
2.7209e-07
5.69964e-23
9.3501e-20
3.99318e-17
6.51391e-15
3.89319e-13
8.52173e-12
8.72228e-11
5.0976e-10
1.95017e-09
5.36124e-09
1.13585e-08
1.99535e-08
3.02715e-08
4.17051e-08
5.36406e-08
6.55528e-08
7.71207e-08
8.81294e-08
9.84689e-08
1.0815e-07
1.17247e-07
1.25816e-07
1.33856e-07
1.39742e-07
1.36364e-07
1.54614e-07
1.65086e-07
1.46164e-07
1.67615e-07
1.73391e-07
1.74865e-07
1.90089e-07
1.78609e-07
1.52733e-06
2.76905e-07
5.43036e-07
2.29175e-07
2.31716e-07
2.42947e-07
2.46696e-07
2.63581e-07
2.63809e-07
2.46786e-07
2.60208e-07
2.61299e-07
2.33298e-07
4.86685e-07
2.38338e-07
2.56958e-07
2.69309e-07
1.12878e-22
1.7811e-19
7.59933e-17
1.26054e-14
7.07352e-13
1.4223e-11
1.345e-10
7.2926e-10
2.58468e-09
6.6362e-09
1.32567e-08
2.21519e-08
3.22348e-08
4.29067e-08
5.3644e-08
6.40513e-08
7.39353e-08
8.31813e-08
9.17629e-08
9.9757e-08
1.07283e-07
1.14419e-07
1.21179e-07
1.26129e-07
1.29643e-07
1.19866e-07
1.32309e-07
1.43889e-07
1.55934e-07
1.63847e-07
1.56248e-07
2.09622e-07
1.7353e-07
1.81684e-07
1.80572e-07
1.89755e-07
2.0633e-07
2.12194e-07
2.18952e-07
2.19436e-07
6.76165e-07
2.32786e-07
1.74879e-07
5.25098e-07
2.19791e-07
2.31278e-07
2.13095e-07
2.19356e-07
5.12389e-07
2.65066e-07
2.28808e-22
3.39679e-19
1.42041e-16
2.38317e-14
1.23964e-12
2.2968e-11
1.99574e-10
9.9373e-10
3.26339e-09
7.82862e-09
1.4772e-08
2.35338e-08
3.29448e-08
4.24773e-08
5.17305e-08
6.04429e-08
6.85301e-08
7.59575e-08
8.27605e-08
8.90574e-08
9.4987e-08
1.0063e-07
1.06002e-07
1.10243e-07
1.14207e-07
1.14089e-07
1.14781e-07
1.30724e-07
1.43408e-07
1.49077e-07
1.51862e-07
1.32641e-07
1.46621e-07
1.6561e-07
1.68051e-07
1.69904e-07
2.59759e-07
2.19643e-07
2.20677e-07
2.44596e-07
1.39515e-07
1.5626e-07
1.70422e-07
1.65468e-07
1.85156e-07
2.01125e-07
2.03679e-07
6.42607e-07
2.44348e-07
2.53806e-07
4.73171e-22
6.50832e-19
2.61951e-16
4.41344e-14
2.13145e-12
3.57997e-11
2.82649e-10
1.29096e-09
3.92843e-09
8.81383e-09
1.57419e-08
2.39743e-08
3.2388e-08
4.05589e-08
4.82133e-08
5.52063e-08
6.15339e-08
6.72197e-08
7.23414e-08
7.70362e-08
8.14421e-08
8.56313e-08
8.96143e-08
9.3133e-08
9.58439e-08
9.78662e-08
9.64582e-08
1.12877e-07
1.2509e-07
1.28778e-07
1.29238e-07
1.26529e-07
1.29434e-07
1.47077e-07
1.23223e-07
2.00466e-07
1.56194e-07
1.694e-07
2.33772e-07
1.19486e-07
1.31828e-07
1.42769e-07
1.52413e-07
1.62732e-07
1.67398e-07
1.68888e-07
3.71036e-07
2.05185e-07
2.21206e-07
1.94863e-07