/*--------------------------------*- C++ -*----------------------------------*\
| =========                 |                                                 |
| \\      /  F ield         | OpenFOAM: The Open Source CFD Toolbox           |
|  \\    /   O peration     | Version:  2.4.0                                 |
|   \\  /    A nd           | Web:      www.OpenFOAM.org                      |
|    \\/     M anipulation  |                                                 |
\*---------------------------------------------------------------------------*/
FoamFile
{
    version     2.0;
    format      ascii;
    class       volScalarField;
    location    "0.124";
    object      p_rgh;
}
// * * * * * * * * * * * * * * * * * * * * * * * * * * * * * * * * * * * * * //

dimensions      [1 -1 -2 0 0 0 0];

internalField   nonuniform List<scalar> 
57600
(
107.326
107.194
106.453
103.693
99.3623
94.6055
89.9745
85.7145
82.1387
79.695
78.9701
80.3831
83.6014
87.528
91.225
94.3562
96.9335
99.0542
100.805
102.246
103.423
104.371
105.124
105.711
106.16
106.496
106.742
106.915
107.031
107.103
107.329
107.109
105.99
102.736
98.2066
93.4524
88.8833
84.7534
81.3961
79.3011
79.0556
80.9784
84.5123
88.4783
92.0642
95.0556
97.51
99.5302
101.197
102.567
103.683
104.578
105.286
105.835
106.252
106.563
106.789
106.946
107.05
107.114
107.329
107.115
106.011
102.746
98.2028
93.4439
88.8675
84.7265
81.3495
79.2155
78.9119
80.815
84.405
88.4463
92.0813
95.0958
97.5595
99.583
101.25
102.618
103.73
104.622
105.326
105.872
106.287
106.596
106.819
106.976
107.08
107.143
107.327
107.123
106.047
102.765
98.199
93.4324
88.8438
84.6855
81.2788
79.0849
78.6878
80.5537
84.2253
88.382
92.0955
95.1503
97.6331
99.6662
101.338
102.706
103.816
104.705
105.405
105.948
106.361
106.668
106.89
107.047
107.15
107.214
107.322
107.135
106.098
102.792
98.1951
93.4178
88.8121
84.6302
81.1839
78.9099
78.382
80.1903
83.9738
88.2881
92.1062
95.2142
97.7223
99.7691
101.448
102.821
103.932
104.82
105.519
106.061
106.473
106.779
107.002
107.159
107.263
107.327
107.314
107.15
106.166
102.828
98.1907
93.4005
88.7725
84.5605
81.0646
78.6916
77.9914
79.7152
83.645
88.1646
92.1142
95.2868
97.8248
99.8888
101.58
102.96
104.076
104.966
105.666
106.209
106.622
106.93
107.154
107.312
107.417
107.482
107.302
107.167
106.249
102.872
98.1854
93.3807
88.7249
84.4765
80.9211
78.4322
77.5125
79.1148
83.2313
88.0113
92.1207
95.3687
97.9405
100.025
101.731
103.123
104.247
105.143
105.847
106.393
106.808
107.119
107.345
107.505
107.611
107.676
107.286
107.187
106.35
102.925
98.1789
93.359
88.6693
84.3782
80.7531
78.1343
76.9421
78.3709
82.723
87.8278
92.1269
95.4609
98.0689
100.176
101.902
103.31
104.446
105.351
106.062
106.612
107.032
107.345
107.574
107.735
107.843
107.909
107.266
107.208
106.468
102.987
98.1703
93.3357
88.6057
84.2657
80.5597
77.8018
76.2772
77.4593
82.1082
87.614
92.1344
95.5638
98.2095
100.342
102.092
103.521
104.673
105.59
106.31
106.867
107.292
107.609
107.841
108.004
108.113
108.18
107.241
107.23
106.605
103.057
98.1589
93.3119
88.5339
84.1392
80.3396
77.44
75.516
76.3471
81.3724
87.3698
92.1441
95.6742
98.3615
100.52
102.299
103.755
104.927
105.86
106.591
107.157
107.588
107.91
108.145
108.31
108.421
108.49
107.211
107.254
106.762
103.135
98.1436
93.2883
88.4538
83.9991
80.0903
77.0557
74.6591
74.9887
80.4955
87.0949
92.1567
95.8101
98.5236
100.709
102.522
104.009
105.207
106.159
106.905
107.482
107.921
108.248
108.487
108.654
108.767
108.837
107.175
107.279
106.94
103.22
98.1233
93.2664
88.3652
83.8462
79.8077
76.658
73.7112
73.3187
79.4557
86.7878
92.1711
95.9568
98.6945
100.905
102.757
104.283
105.512
106.486
107.25
107.84
108.289
108.623
108.866
109.036
109.151
109.222
107.132
107.306
107.14
103.314
98.0963
93.2479
88.268
83.6813
79.486
76.2581
72.6837
71.2393
78.2254
86.4445
92.1839
96.1193
98.8727
101.106
103.002
104.574
105.839
106.84
107.626
108.232
108.693
109.035
109.283
109.456
109.572
109.644
107.082
107.336
107.364
103.414
98.0608
93.2351
88.1618
83.5057
79.1161
75.8695
71.5995
68.6011
76.781
86.0554
92.1875
96.2972
99.0576
101.307
103.251
104.878
106.185
107.219
108.03
108.658
109.133
109.485
109.739
109.916
110.033
110.105
107.024
107.371
107.614
103.521
98.0147
93.2311
88.0461
83.321
78.6863
75.5048
70.4968
65.1734
75.113
85.6017
92.1679
96.4822
99.2501
101.502
103.496
105.189
106.545
107.617
108.461
109.115
109.61
109.974
110.235
110.415
110.536
110.61
106.957
107.416
107.892
103.634
97.9552
93.24
87.9205
83.1287
78.1854
75.1639
69.435
60.5379
73.1913
85.0545
92.1035
96.6392
99.4555
101.684
103.725
105.494
106.91
108.031
108.917
109.604
110.123
110.503
110.771
110.953
111.072
111.147
106.879
107.478
108.201
103.754
97.8793
93.267
87.7835
82.9311
77.5897
74.8254
68.5433
54.0315
70.9773
84.3982
91.9671
96.6549
99.6876
101.836
103.914
105.769
107.264
108.451
109.394
110.125
110.674
111.073
111.352
111.535
111.644
111.699
106.791
107.569
108.544
103.878
97.7832
93.3191
87.633
82.7396
76.7899
74.5433
68.1661
44.9704
69.1099
83.6941
91.7528
96.5778
99.9657
101.928
104.011
105.955
107.581
108.871
109.892
110.678
111.264
111.687
111.98
112.169
112.276
112.387
106.69
107.711
108.923
104.008
97.662
93.4051
87.4643
82.5662
76.033
74.4356
68.7137
33.2503
68.5915
82.9271
91.5108
96.7057
100.304
101.899
103.916
105.911
107.821
109.286
110.414
111.266
111.893
112.344
112.655
112.855
112.961
112.984
106.576
107.926
109.344
104.142
97.5074
93.5359
87.2682
82.4026
74.9822
74.5592
70.3531
2.92911
71.33
81.8467
91.2803
97.0894
100.839
101.653
103.46
105.426
107.965
109.712
110.972
111.895
112.564
113.041
113.37
113.581
113.692
113.722
106.447
108.236
109.811
104.28
97.3049
93.7232
87.0283
82.2452
73.5491
74.8575
72.2808
0.71353
92.4241
80.4444
91.0428
97.8438
101.821
101.015
102.531
104.5
108.12
110.194
111.589
112.574
113.278
113.776
114.118
114.335
114.453
114.49
106.304
108.643
110.33
104.423
97.0318
93.9788
86.7218
82.0767
72.1689
75.1706
29.8622
0.377788
30.9323
79.4267
90.6638
98.8556
102.968
99.4332
101.293
103.16
108.416
110.81
112.291
113.311
114.036
114.545
114.892
115.111
115.23
115.268
106.153
109.123
110.906
104.573
96.65
94.312
86.3479
81.8465
72.0071
76.0431
-0.0207125
0.165441
-0.129422
77.7213
90.2165
99.1302
102.638
95.8519
100.301
103.147
109.161
111.626
113.093
114.11
114.835
115.345
115.689
115.903
116.014
116.047
105.997
109.631
111.548
104.73
96.1074
94.7328
85.8927
81.4335
72.9873
-0.00259005
-0.000951071
0.134105
0.599353
89.5957
89.1474
96.5515
97.3291
91.3083
100.38
105.612
110.558
112.643
113.988
114.961
115.668
116.167
116.501
116.705
116.803
116.819
105.839
110.104
112.262
104.9
95.4003
95.2711
85.2356
80.9496
0.0720199
0.0299365
0.0309912
0.143234
0.340291
-0.521353
88.1033
89.1272
90.6489
89.436
102.358
109.386
112.295
113.775
114.936
115.842
116.52
117.001
117.322
117.513
117.599
117.607
105.667
110.46
113.056
105.09
94.8449
95.9852
84.0489
0.0120624
0.0600823
0.057233
0.0549883
0.173909
0.0920576
-0.00897418
86.4801
83.4107
87.3158
88.3837
106.947
112.429
113.897
114.887
115.883
116.721
117.367
117.831
118.139
118.318
118.394
118.398
105.444
110.597
113.931
105.317
94.1256
96.8518
79.6066
0.0878548
0.0438852
0.0483653
0.0693129
0.197589
0.0595936
-0.296959
-1.36122
77.7991
86.8771
92.3136
109.667
113.466
115.086
115.875
116.773
117.555
118.178
118.637
118.94
119.114
119.189
119.204
105.107
110.395
114.882
105.6
94.0097
97.9921
-0.309334
0.0982818
0.0350326
0.0441477
0.0773592
0.19398
-0.0224149
-0.389337
-0.672823
93.3779
97.7983
97.7608
108.145
113.352
115.788
116.718
117.583
118.314
118.927
119.403
119.723
119.907
119.998
120.037
104.553
109.736
115.878
106.017
94.5095
98.3375
-0.0678279
0.0951959
0.0528336
0.0420125
0.0844198
0.178971
-0.0416338
-0.34773
-0.440412
2.21043
101.335
101.454
107.566
113.805
116.199
117.472
118.379
119.033
119.612
120.121
120.492
120.71
120.826
120.883
103.629
108.531
116.851
106.67
94.8332
1.36412
-0.0483272
0.0919292
0.0396307
0.0406958
0.0739798
0.158985
0.0225823
-0.300922
-0.330219
-0.188928
103.482
102.357
107.437
112.987
116.318
118.203
119.307
119.859
120.316
120.811
121.259
121.531
121.67
121.736
107.142
107.155
107.139
107.082
106.973
106.796
106.53
106.154
105.64
104.961
104.085
102.978
101.602
99.9044
97.8124
95.2186
92.0108
88.2247
84.3576
81.4368
80.3181
81.1026
83.4757
87.0296
91.2656
95.8559
100.545
104.345
106.214
106.617
107.146
107.153
107.127
107.06
106.936
106.739
106.448
106.041
105.49
104.766
103.837
102.668
101.218
99.4321
97.2268
94.4848
91.1013
87.1919
83.4268
80.9088
80.3107
81.5491
84.2744
88.0592
92.4055
97.0697
101.662
105.036
106.403
106.694
107.175
107.182
107.158
107.091
106.968
106.773
106.485
106.081
105.534
104.814
103.889
102.723
101.275
99.4878
97.2767
94.5169
91.0898
87.1066
83.2786
80.7668
80.2172
81.4906
84.2367
88.0381
92.3922
97.064
101.673
105.053
106.411
106.696
107.246
107.254
107.229
107.163
107.041
106.848
106.562
106.161
105.617
104.901
103.98
102.816
101.366
99.5721
97.3466
94.5544
91.0571
86.9602
83.0389
80.5443
80.074
81.4015
84.1794
88.0067
92.3728
97.057
101.691
105.085
106.424
106.695
107.36
107.367
107.343
107.277
107.155
106.961
106.676
106.276
105.735
105.021
104.1
102.934
101.479
99.6747
97.43
94.5962
91.0064
86.7536
82.7043
80.2399
79.8818
81.2818
84.102
87.9648
92.3473
97.0484
101.717
105.13
106.443
106.693
107.515
107.523
107.498
107.431
107.308
107.113
106.827
106.427
105.884
105.169
104.247
103.076
101.611
99.7925
97.5251
94.6427
90.9386
86.4824
82.265
79.8496
79.6415
81.1315
84.0043
87.9126
92.3157
97.0382
101.753
105.189
106.468
106.687
107.71
107.718
107.693
107.625
107.5
107.303
107.015
106.612
106.067
105.348
104.42
103.24
101.762
99.9246
97.6319
94.6955
90.8548
86.1399
81.7073
79.3693
79.3548
80.9511
83.8862
87.8503
92.2778
97.0259
101.797
105.263
106.498
106.68
107.944
107.951
107.926
107.857
107.73
107.531
107.239
106.831
106.281
105.557
104.62
103.427
101.929
100.069
97.7498
94.7563
90.7571
85.7181
81.0128
78.7939
79.0242
80.7408
83.7474
87.7782
92.2337
97.0115
101.849
105.352
106.534
106.67
108.216
108.224
108.198
108.128
107.999
107.795
107.498
107.085
106.528
105.795
104.846
103.635
102.112
100.225
97.8768
94.8272
90.6485
85.2061
80.1566
78.1185
78.6534
80.5009
83.5878
87.6966
92.183
96.9944
101.911
105.457
106.575
106.657
108.526
108.534
108.509
108.437
108.305
108.096
107.793
107.371
106.805
106.061
105.097
103.863
102.309
100.387
98.0123
94.9102
90.5337
84.5907
79.1047
77.3389
78.2475
80.2314
83.4073
87.6059
92.1257
96.9743
101.982
105.577
106.62
106.641
108.874
108.884
108.858
108.784
108.648
108.433
108.121
107.69
107.112
106.354
105.372
104.111
102.515
100.552
98.1528
95.0073
90.4191
83.8553
77.8108
76.4527
77.8139
79.9315
83.206
87.5065
92.0614
96.9506
102.061
105.713
106.67
106.622
109.261
109.272
109.246
109.169
109.026
108.803
108.481
108.038
107.446
106.673
105.671
104.376
102.727
100.713
98.2936
95.1189
90.3135
82.9792
76.2094
75.4617
77.3621
79.5988
82.9842
87.3992
91.9897
96.9227
102.15
105.867
106.725
106.6
109.685
109.698
109.672
109.59
109.44
109.207
108.873
108.415
107.806
107.014
105.99
104.657
102.942
100.863
98.4273
95.2463
90.2284
81.938
74.2077
74.3744
76.9048
79.2279
82.743
87.2847
91.9101
96.8896
102.248
106.038
106.783
106.575
110.144
110.157
110.133
110.045
109.886
109.642
109.294
108.818
108.189
107.376
106.329
104.952
103.154
100.99
98.5427
95.3891
90.1766
80.7047
71.6733
73.2108
76.4576
78.8073
82.4842
87.1639
91.8217
96.8503
102.355
106.228
106.846
106.547
110.649
110.649
110.625
110.53
110.363
110.108
109.743
109.246
108.593
107.754
106.684
105.26
103.357
101.086
98.6219
95.5462
90.1688
79.253
68.4112
72.0063
76.0387
78.3124
82.2114
87.0378
91.7235
96.8033
102.471
106.438
106.914
106.517
111.242
111.391
111.147
111.051
110.876
110.606
110.221
109.699
109.013
108.141
107.046
105.574
103.547
101.139
98.6283
95.7175
90.202
77.5556
64.1403
70.8208
75.6695
77.6887
81.9296
86.9066
91.614
96.7467
102.595
106.669
106.987
106.485
111.734
111.754
111.72
111.618
111.427
111.137
110.729
110.176
109.449
108.529
107.401
105.872
103.712
101.152
98.4668
95.9113
90.2468
75.5954
58.3987
69.7419
75.3827
76.8749
81.6466
86.7679
91.4907
96.6778
102.728
106.923
107.066
106.453
112.345
112.332
112.312
112.212
112.008
111.699
111.267
110.681
109.902
108.908
107.714
106.066
103.822
101.144
97.9232
96.1665
90.3156
73.6153
50.4462
68.9352
75.2178
75.9975
81.3798
86.6123
91.3508
96.5931
102.868
107.2
107.153
106.421
112.975
112.961
112.933
112.831
112.617
112.293
111.84
111.22
110.38
109.276
107.927
105.841
103.778
101.119
97.0898
96.5887
90.4464
70.8784
39.2375
68.8579
75.1828
75.0705
81.1555
86.4124
91.1898
96.4878
103.014
107.503
107.25
106.391
113.7
113.654
113.595
113.48
113.255
112.92
112.453
111.804
110.901
109.651
107.956
104.524
103.355
100.718
96.2472
97.3596
90.6546
66.4895
7.73275
70.2917
75.2649
74.0487
80.9769
86.1228
91.0021
96.3555
103.165
107.834
107.363
106.366
114.467
114.4
114.303
114.158
113.925
113.586
113.112
112.445
111.494
110.091
107.638
101.673
102.407
99.5775
95.449
98.5925
90.7083
72.5778
1.41128
72.1651
75.4287
72.9788
80.8385
85.8017
90.7805
96.187
103.319
108.193
107.495
106.348
115.246
115.169
115.037
114.86
114.629
114.296
113.823
113.153
112.186
110.694
107.536
99.6802
101.364
98.426
92.3692
100.035
89.4299
-21.394
1.12066
0.229197
75.3617
72.278
80.7371
85.6816
90.5159
95.9687
103.474
108.584
107.653
106.339
116.02
115.949
115.761
115.577
115.379
115.055
114.588
113.929
112.99
111.548
108.567
101.014
101.003
98.1802
90.764
100.325
88.2822
4.90622
1.04343
0.26136
33.7727
72.4601
80.6265
85.5868
90.1971
95.678
103.626
109.008
107.847
106.344
116.769
116.601
123.789
116.47
116.19
115.862
115.4
114.764
113.89
112.635
110.556
105.15
101.434
95.2763
91.7206
99.0129
88.396
0.158665
0.706115
0.276325
0.164517
3.99125
80.603
85.4407
89.807
95.2743
103.771
109.468
108.089
106.362
117.564
117.51
117.215
117.22
117.026
116.703
116.245
115.636
114.846
113.833
112.6
109.716
102.706
88.167
88.788
92.1173
77.708
0.199468
0.519049
0.259233
0.185026
0.177253
72.1878
85.3417
89.3161
94.6971
103.902
109.969
108.396
106.395
118.364
118.315
118.225
118.086
117.892
117.559
117.099
116.517
115.809
115.007
114.307
112.862
103.93
87.1184
79.224
86.5036
1.88572
0.170181
0.447295
0.239008
0.197376
0.160844
-0.0331681
84.6928
88.6506
93.9406
104.008
110.52
108.79
106.439
119.193
119.165
119.104
118.977
118.75
118.392
117.931
117.38
116.74
116.073
115.641
114.022
104.576
92.0634
70.5149
80.0846
-0.505545
0.0314967
0.374186
0.221256
0.211255
0.149301
0.0129601
5.54894
87.7137
93.2398
104.074
111.134
109.3
106.486
120.048
120.035
119.973
119.825
119.559
119.161
118.711
118.203
117.627
117.009
116.522
114.4
108.875
99.0515
86.2195
1.08207
-0.611976
-0.0864599
0.313166
0.199966
0.160634
0.141805
0.0250047
-0.0592082
86.2049
93.2615
104.085
111.832
109.957
106.517
120.903
120.886
120.801
120.6
120.285
119.84
119.451
119.009
118.494
117.843
116.976
114.559
108.974
106.265
122.307
0.474895
-0.562718
-0.147418
0.245972
0.212297
0.155124
0.13139
0.031195
-0.00445748
-0.509681
93.6895
104.041
112.654
110.803
106.496
121.753
121.722
121.601
121.323
121.617
120.54
120.26
119.892
119.375
118.602
117.435
114.295
105.412
114.218
2.50896
0.155262
-0.432228
-0.227499
0.176814
0.213935
0.151901
0.127708
0.0371605
0.0207955
0.18295
94.7983
103.91
113.664
111.888
106.363
102.67
107.266
117.548
107.62
91.3804
0.185725
-0.0373868
0.116198
0.0383812
0.0398503
0.0716599
0.138507
0.0246225
-0.284783
-0.280521
-0.18844
25.1981
102.909
105.978
112.01
116.063
118.77
120.178
120.693
121.028
121.437
121.914
122.229
122.383
122.451
102.048
106.483
117.91
108.52
-7.98124
0.132333
-0.03053
0.111187
0.0388415
0.0392654
0.0695426
0.127494
0.0152004
-0.282455
-0.232321
-0.217836
-0.322657
99.5802
107.575
111.641
115.98
119.128
120.746
121.263
121.565
121.92
122.371
122.697
122.856
122.926
101.704
105.694
118.186
109.97
-0.413559
0.0795648
-0.0239803
0.100296
0.0366712
0.0384537
0.065843
0.110184
0.00165253
-0.294926
-0.252066
-0.080026
-0.408575
62.172
109.989
110.728
115.821
119.54
121.35
121.86
122.191
122.521
122.92
123.231
123.389
123.462
101.986
104.692
118.295
112.015
-0.129817
0.0342055
-0.0181726
0.04677
0.033895
0.0374011
0.0648694
0.101432
-0.00297903
-0.319801
-0.242643
0.310868
-0.427833
-0.0879766
111.092
109.077
115.455
120.059
121.981
122.461
122.885
123.246
123.572
123.837
123.99
124.07
103.228
104.126
118.099
103.654
-0.111143
-0.00156914
-0.01325
0.00374748
0.0455544
0.0359988
0.0563791
0.0768402
0.00354198
-0.361541
-0.2296
-0.218242
-0.437743
-0.0686957
103.682
106.955
115.431
120.63
122.567
123.094
123.649
124.059
124.309
124.516
124.667
124.759
2.64681
99.9416
117.432
3.59609
-0.0965357
-0.0274928
-0.00945453
0.00268095
0.0379887
0.0341548
0.0539462
0.0618293
-0.016496
-0.407012
-0.217326
-0.231384
-0.313664
-0.0715516
-0.846798
106.475
116.657
120.788
123.093
123.859
124.51
124.918
125.091
125.264
125.429
125.543
0.0470962
59.883
115.946
-0.0216556
-0.0866469
-0.0444538
-0.00687789
0.00736646
0.0313592
0.0318362
0.0461077
0.0507318
-0.028584
-0.361637
-0.243096
-0.247967
-0.388886
-0.148754
-0.521635
-0.451258
120.853
120.678
123.451
124.835
125.458
125.805
125.891
126.071
126.287
126.444
0.0415485
12.2975
112.973
0.00414703
-0.0798037
-0.0547561
-0.0056092
0.0140573
0.0282194
0.0290778
0.0394448
0.0529247
-0.0431943
-0.268097
-0.234621
0.478636
-0.356602
-0.181218
-0.370081
-0.0898139
122.525
121.727
123.666
126.127
126.815
126.474
126.657
126.905
127.259
127.515
0.0400697
-0.105421
3.70798
0.00246684
-0.0748881
-0.0595581
-0.00553753
0.0184756
0.0193093
0.0258107
0.0323041
0.0477723
-0.0551363
-0.23264
-0.264429
0.0355544
-0.320648
-0.117715
-0.324382
-0.193348
-0.388522
122.343
124.251
128.25
128.248
127.637
127.265
127.662
128.379
128.902
0.051584
0.00941774
-0.0491017
-0.00228954
-0.0708176
-0.0604371
-0.00637808
0.0175276
0.0177395
0.0270556
0.0250022
0.039223
-0.0623157
-0.211524
0.0796671
0.182722
-0.273441
-0.246886
-0.264743
-0.00856588
-0.17834
-0.0110881
88.0486
131.552
130.286
128.331
127.188
128.024
129.706
131.124
0.0164845
0.00932847
-0.106011
-0.00592701
-0.066532
-0.058836
-0.0078967
0.0244182
0.0169408
0.0165756
0.0161225
0.0155136
-0.0650006
-0.153568
0.0172254
-0.0744697
-0.226974
-0.264701
-0.192588
0.070969
-0.096052
-0.0892018
-0.0548944
-0.210945
16.4838
80.909
112.522
126.516
131.455
136.206
-0.00454241
-0.0158043
-0.0814814
-0.00986522
-0.0618792
-0.0557893
-0.00974315
0.00919851
0.00787514
0.0129192
0.00887683
-0.00797757
-0.0652724
-0.111063
-0.0106618
-0.0709283
-0.19848
-0.248029
-0.131564
-0.085512
-0.0611003
-0.0753238
-0.109525
-0.149912
-0.173708
-0.147786
-0.105217
-0.0216865
0.00219983
0.0164053
-0.00766882
-0.0210912
-0.0647799
-0.0141512
-0.0570032
-0.0519735
-0.0115745
0.00645711
0.00650091
0.00741323
0.00294602
-0.0163269
-0.0629158
-0.0864382
-0.0367823
-0.0756495
-0.101199
-0.235298
-0.134932
-0.0319115
-0.0586467
-0.0819201
-0.128379
-0.177039
-0.205163
-0.184648
-0.125094
-0.00225763
0.0488379
0.0463358
-0.00869412
-0.0256826
-0.0545194
-0.0183281
-0.0521881
-0.0478323
-0.0132162
0.0046679
0.0158235
0.00216406
-0.00333911
-0.0202284
-0.0588338
-0.0727198
-0.0532968
-0.0778796
-0.120501
-0.19047
-0.117741
-0.0984146
-0.0783933
-0.112669
-0.175996
-0.249711
-0.276261
-0.242187
-0.174904
-0.0974699
-0.0335499
2.48814
-0.00934404
-0.0267401
-0.0483857
-0.0218937
-0.0476068
-0.0436586
-0.0145707
-0.00051142
0.00358291
-0.00130504
-0.00721526
-0.0227752
-0.0538654
-0.0652491
-0.0622175
-0.0808921
-0.109317
-0.128087
-0.0459664
-0.115635
-0.114336
-0.163877
-0.246143
-0.331423
-0.337689
-0.305347
-0.244384
-0.182225
-0.121054
0.022444
-0.00964678
-0.0264032
-0.0443252
-0.0245624
-0.04337
-0.0396465
-0.0155952
-0.00268645
0.00240896
-0.00436124
-0.0130026
-0.0286109
-0.052016
-0.0618277
-0.0670404
-0.0827389
-0.103263
-0.120131
-0.127124
-0.128402
-0.149407
-0.218315
-0.308357
-0.392196
-0.410712
-0.385249
-0.342472
-0.0359287
0.259449
0.427684
-0.00960314
-0.0253182
-0.0409512
-0.0262443
-0.0395293
-0.0359134
-0.0162859
-0.00419325
0.000247832
-0.00221562
-0.0171984
-0.0308574
-0.0497796
-0.0610859
-0.0699403
-0.0835575
-0.0999708
-0.116384
-0.125343
-0.137493
-0.163918
-0.255312
-0.333725
-0.403279
-0.434035
-0.420042
-0.347407
0.0989551
-0.0147623
-0.216469
-0.00921892
-0.02389
-0.0375949
-0.0270028
-0.0360267
-0.0324872
-0.016662
-0.00611698
-0.00147471
-0.00810961
-0.0206343
-0.0255035
-0.041038
-0.062258
-0.0719927
-0.0836609
-0.0970465
-0.111341
-0.104787
-0.127683
-0.158348
0.431427
-0.302631
-0.349764
-0.378806
-0.393745
-0.435689
-0.291593
-0.272958
-0.274407
-0.00855953
-0.0223517
-0.0341742
-0.0269537
-0.032786
-0.0293554
-0.0167571
-0.00801471
-0.00352539
-0.0129305
-0.0229733
-0.0334379
-0.0160613
-0.0653482
-0.07379
-0.0832852
-0.0930097
-0.102825
-0.0901253
-0.101325
-0.105069
-0.0109332
-0.227653
-0.22276
-0.234716
-0.259483
-0.284478
-0.303301
-0.243927
-0.300918
-0.00772299
-0.0207227
-0.0307812
-0.0262353
-0.0297441
-0.0264943
-0.0166095
-0.00966696
-0.00827301
-0.0154764
-0.0249017
-0.0352994
-0.0507633
-0.0672196
-0.0764052
-0.0829098
-0.0880187
-0.0915089
-0.0906897
-0.0757308
-0.0724159
-0.0600798
-0.0530289
-0.0233619
0.00326878
0.0356985
0.281023
-0.0174892
0.00352477
-0.115157
-0.00681531
-0.0189667
-0.0274669
-0.0249743
-0.0268662
-0.0238739
-0.0162501
-0.0109954
-0.00951813
-0.017683
-0.0268527
-0.0381889
-0.0551841
-0.0730828
-0.082064
-0.0831796
-0.0825575
-0.0830303
-0.0832344
-0.0815609
-0.0523053
-0.0353625
0.0451896
0.106969
0.172442
0.678728
0.26187
0.242423
0.189105
0.181967
-0.00592057
-0.0170609
-0.0242572
-0.023269
-0.0241226
-0.021457
-0.0156966
-0.0120517
-0.0114337
-0.0196849
-0.0290082
-0.042126
-0.0637013
-0.0869239
-0.0948942
-0.0849345
-0.0738346
-0.0726466
-0.0781276
-0.0869083
-0.0700083
-0.00522692
0.084527
0.172249
0.281771
0.262859
0.287904
0.315976
0.288078
0.118994
-0.00507457
-0.0150462
-0.0212002
-0.0212244
-0.0214825
-0.0191984
-0.0149587
-0.012732
-0.0140423
-0.0217516
-0.03172
-0.0479781
-0.0803198
-0.118472
-0.126036
-0.0924083
-0.0459992
0.100263
-0.0568066
-0.0613135
-0.0430009
0.0441097
0.105891
0.162462
0.206534
0.267438
0.246634
0.260626
0.255913
0.244014
-0.00427652
-0.0130073
-0.0183087
-0.0189475
-0.0189135
-0.0170473
-0.0140634
-0.0126698
-0.0131953
-0.0243548
-0.0357683
-0.0565402
-0.111314
-0.190525
-0.201378
-0.123934
-0.041633
-0.0171852
0.139117
-0.021011
0.000312933
0.0310802
0.0627944
0.0809625
0.081713
0.527514
0.213663
0.0050044
0.652955
0.0484581
-0.00351666
-0.0110013
-0.0155561
-0.0165169
-0.0163798
-0.014946
-0.0130649
-0.0127091
-0.0160461
-0.028272
-0.0438056
-0.0694605
-0.164028
-0.334765
-0.335881
-0.19404
-0.0687182
-0.029572
0.248419
-0.0180324
0.0400902
0.0375245
0.0502205
0.0563181
0.0588341
0.0624203
0.103422
0.0674456
0.0618581
0.037605
-0.00279038
-0.00905176
-0.0129081
-0.0139813
-0.0138449
-0.0128241
-0.0119044
-0.013061
-0.0139599
-0.0344035
-0.0613508
-0.0915876
-0.22219
-0.475442
-0.329765
-0.25633
-0.145419
-0.0998026
-0.0818712
-0.0329124
0.00684824
0.0265056
0.0339909
0.0391377
0.0428895
0.044805
0.0454246
0.0457689
0.0703825
0.0761589
-0.00209848
-0.00715958
-0.0103319
-0.0113676
-0.0112705
-0.0105985
-0.0103679
-0.0125477
0.051386
-0.0399994
-0.0856326
-0.0987033
-0.18638
-0.253859
-0.328627
-0.307242
-0.311211
-0.288317
-0.206461
-0.024753
0.0968907
-0.0384728
-0.021191
-0.00676792
0.00257871
0.0381859
0.020456
0.0213754
0.0223247
0.0219604
-0.00144401
-0.00531399
-0.00779384
-0.00868359
-0.00861857
-0.00818835
-0.0082821
-0.0100616
-0.0142495
-0.035381
-0.0760348
-0.0667604
0.0132511
0.0840726
-0.0704853
-0.28007
-0.598019
-0.658117
-0.497306
-0.32536
-0.177658
-0.0993058
-0.0568732
-0.0357164
-0.0258692
-0.0157229
-0.0199508
-0.0088538
-0.00532592
-0.00497415
-0.000828407
-0.00349427
-0.00525583
-0.00591971
-0.00585315
-0.00553834
-0.00563052
-0.00685112
-0.00916873
-0.0144283
-0.00302612
0.0147231
0.122145
0.181796
0.0746669
-0.262997
-0.592117
-0.649269
-0.448356
-0.155096
-0.143162
-0.0689205
-0.0328918
-0.0128047
-0.000940832
0.006867
0.148518
0.0745402
-0.0182006
0.0258273
-0.000248686
-0.00166803
-0.00267142
-0.00305137
-0.0029459
-0.00263768
-0.00248216
-0.00290253
-0.00433863
-0.00625741
-0.00249011
0.011607
0.0540909
0.107942
0.0515535
-0.0565454
-0.166347
-0.14011
-0.119563
-0.0632285
-0.040765
-0.0244254
-0.0146789
-0.00996863
-0.0089342
-0.0104067
-0.0130966
-0.0157635
-0.0153875
0.0323641
122.465
122.423
122.277
121.964
121.642
121.295
121.028
120.675
120.086
119.212
117.498
114.893
103.236
120.694
0.409113
0.156253
-0.325507
-0.187278
0.134109
0.191081
0.181204
0.123189
0.0415462
0.0311317
0.141822
81.8526
103.733
114.683
112.997
106.101
122.94
122.898
122.754
122.467
122.152
121.841
121.529
121.156
120.524
119.551
117.733
114.417
94.2017
16.5037
0.479692
0.163625
-0.260392
-0.159759
0.101427
0.188608
0.159174
0.127526
0.0439727
0.0353909
0.12621
-0.238769
103.597
115.44
113.833
105.858
123.481
123.444
123.316
123.076
122.794
122.446
122.035
121.63
120.989
119.88
118.014
114.011
76.8176
-0.692838
0.111421
0.214897
-0.193673
-0.112598
0.0898876
0.195544
0.164506
0.103676
0.0463025
0.0388108
0.113381
0.0979955
103.416
116.377
114.887
105.632
124.097
124.072
123.973
123.787
123.529
123.104
122.533
122.068
121.468
120.16
118.153
111.752
-18.497
-0.613876
-0.0637015
0.144549
-0.137365
-0.0458488
0.0743435
0.177313
0.131153
0.10848
0.048788
0.0414226
0.102552
0.0780372
99.7404
117.557
116.233
105.7
124.798
124.789
124.724
124.591
124.353
123.85
123.036
122.387
121.725
120.608
118.356
105.379
-0.439775
-0.566903
-0.15103
0.0902989
-0.085558
0.0402091
0.073206
0.172196
0.129197
0.0999432
0.0510822
0.043376
0.0929333
0.0606049
1.59202
119.058
117.967
105.649
125.596
125.599
125.559
125.464
125.258
124.738
123.608
122.451
120.938
121.844
119.153
-7.92573
-0.340126
-0.528814
-0.178332
0.0148878
-0.0391231
0.125911
0.0783491
0.170127
0.122346
0.131085
0.0532767
0.0447469
0.0841542
0.0460459
-0.0579433
120.895
120.106
15.9481
126.511
126.504
126.46
126.388
126.224
127.663
124.345
122.059
118.475
123.491
119.666
0.0277809
-0.331398
-0.3998
-0.184026
-0.0188956
-0.0454598
0.187294
0.0828574
0.200963
0.114157
0.0936067
0.0548537
0.0456215
0.0760639
0.0371713
-0.0383319
123.057
122.284
0.214384
127.589
127.51
127.383
127.345
127.344
130.136
125.453
121.042
116.109
124.686
-0.190892
-0.0685946
-0.310756
-0.318483
-0.187283
-0.106532
-0.0119294
0.181914
0.0903232
0.223703
0.107428
0.0900667
0.0556582
0.0461052
0.0684023
0.0330548
-0.0133198
18.2334
126.619
0.207971
128.967
128.617
128.19
128.208
128.744
129.253
127.858
120.692
112.07
4.6281
-0.0167899
-0.0504139
-0.194019
-0.240038
-0.0896772
0.00462094
-0.0212699
0.177807
0.084482
0.157739
0.0997713
0.0857523
0.0557824
0.0462737
0.0616013
0.0313841
0.00490157
-0.210645
117.908
0.180734
131.189
129.836
128.353
128.65
130.183
132.276
132.364
111.769
0.0574976
0.00355971
-0.0679255
-0.163148
-0.125413
-0.227638
-0.140824
-0.104776
-0.0572906
0.139304
0.0826236
0.152327
0.0919927
0.0811732
0.0553548
0.0461637
0.0559316
0.0311145
0.0160947
-0.101215
-0.227423
0.095234
136.932
131.298
124.587
126.421
113.572
55.4683
0.181507
0.144956
0.108179
0.0306748
-0.0786152
-0.201762
-0.171116
-0.194807
-0.0398233
-0.0321758
-0.0321709
0.114806
0.0786395
0.119444
0.0849194
0.0761671
0.0544305
0.0457583
0.0514098
0.0315416
0.0223346
-0.086034
-0.15441
0.08261
0.0511566
0.125109
0.175421
0.159942
0.122403
0.143929
0.158899
0.147981
0.125811
0.0656516
-0.0576853
-0.192107
-0.145508
-0.145529
-0.083188
0.0934485
0.00440794
0.0995151
0.0712124
0.0596097
0.0781256
0.0708725
0.0530492
0.0450192
0.0478249
0.0320642
0.0253449
-0.0680058
-0.109024
0.0996673
0.340652
0.302422
0.445867
0.142016
0.123232
0.134405
0.157127
0.161871
0.145327
0.0905585
-0.0493725
-0.346053
-0.191968
-0.152278
-0.0861215
0.000563962
0.0219422
0.0871314
0.0707333
0.0521551
0.0709845
0.0653903
0.0512107
0.0439287
0.0448326
0.0322582
0.0265749
-0.050656
-0.0673438
0.0885423
2.78709
0.174308
0.366341
0.0306387
0.0693874
0.157187
0.139716
0.170337
0.171803
0.13115
-0.0477051
-0.208871
-0.206395
-0.164004
-0.0472683
-0.0171476
0.0343428
0.0735709
0.0600818
0.0471778
0.0626816
0.0597377
0.0489143
0.0424923
0.0421169
0.0319369
0.0266186
-0.0354825
-0.0311471
0.0588199
0.00597968
0.00920013
0.02359
-0.00219129
0.115945
0.0593634
0.0920896
0.148851
0.177706
0.166568
0.0486886
-0.0833997
-0.212327
-0.134908
-0.114647
-0.0239449
0.0371266
0.0737127
0.0486045
0.0417849
0.0544381
0.0539226
0.0461689
0.0407309
0.0395054
0.0311188
0.0259855
-0.0214056
-0.00471741
0.0607147
-0.144249
-0.118253
-0.114796
-0.119961
-0.128175
-0.0800802
0.00988715
0.0833192
0.137427
0.149912
0.105343
-0.0330027
-0.150467
-0.177252
-0.15286
-0.0443778
0.284598
0.18938
0.0609588
0.041872
0.0467438
0.0479656
0.0429972
0.0386607
0.0369257
0.0299285
0.0249002
-0.00917127
0.0115297
0.0423828
-0.234006
-0.275737
-0.309497
-0.329371
-0.309294
-0.237711
-0.124938
-0.0248483
0.0492305
0.0775746
0.119364
-0.0406823
-0.16213
-0.227127
-0.221697
-0.128306
-0.0707119
0.0134983
0.0362492
0.0341636
0.0374014
0.0419406
0.039439
0.0362856
0.0343706
0.0285075
0.023452
-0.000147282
0.0193714
0.0332744
-0.347642
-0.402061
-0.448898
-0.483034
-0.474331
-0.39496
-0.268244
-0.141747
-0.0566902
-0.0166213
-0.0110437
-0.102992
-0.209372
-0.305621
-0.338389
-0.230233
-0.122659
-0.0224622
0.0212175
0.0164761
0.0306097
0.0360165
0.0355476
0.0336139
0.0318306
0.0269463
0.0218585
0.00540117
0.0219905
0.0274101
-0.371413
-0.438377
-0.502221
-0.540935
-0.537925
-0.465042
-0.320563
-0.217971
-0.138806
-0.0974176
-0.0994757
-0.14341
-0.287855
-0.430874
-0.481831
-0.380575
-0.202558
-0.0660721
0.331343
0.00165663
0.0258792
0.0303411
0.0313795
0.0306677
0.0292682
0.0252582
0.0202862
0.00852575
0.0216703
0.0224241
-0.186847
-0.275206
-0.358245
-0.412852
-0.410487
-0.383519
-0.298265
-0.214603
-0.161018
-0.141479
-0.150592
-0.229079
-0.373492
-0.586636
-0.664705
-0.536922
-0.298057
-0.116289
0.301044
-0.0157355
0.0166477
0.0250803
0.0269748
0.0274834
0.0266499
0.0234426
0.0187963
0.0102683
0.0200245
0.0182355
0.0489894
-0.044257
-0.12119
-0.164504
-0.208115