/*--------------------------------*- C++ -*----------------------------------*\
| =========                 |                                                 |
| \\      /  F ield         | OpenFOAM: The Open Source CFD Toolbox           |
|  \\    /   O peration     | Version:  2.4.0                                 |
|   \\  /    A nd           | Web:      www.OpenFOAM.org                      |
|    \\/     M anipulation  |                                                 |
\*---------------------------------------------------------------------------*/
FoamFile
{
    version     2.0;
    format      ascii;
    class       volVectorField;
    location    "1.85";
    object      U;
}
// * * * * * * * * * * * * * * * * * * * * * * * * * * * * * * * * * * * * * //

dimensions      [0 1 -1 0 0 0 0];

internalField   nonuniform List<vector> 
2400
(
(0.0221264 -0.0157277 0)
(0.0829918 -0.0236792 0)
(0.15695 -0.0234489 0)
(0.227626 -0.0220976 0)
(0.293522 -0.0211762 0)
(0.357304 -0.0206829 0)
(0.420378 -0.0204034 0)
(0.482744 -0.0201242 0)
(0.543927 -0.0196745 0)
(0.603293 -0.0189572 0)
(0.660078 -0.0179801 0)
(0.713522 -0.0169132 0)
(0.763416 -0.0159893 0)
(0.809355 -0.0163286 0)
(0.853642 -0.017509 0)
(0.901948 -0.00221671 0)
(0.883591 0.0338891 0)
(0.755988 0.0660255 0)
(0.548744 0.0731765 0)
(0.328599 0.0577783 0)
(0.016943 -0.0349857 0)
(0.069426 -0.0516192 0)
(0.134771 -0.050254 0)
(0.195461 -0.0471259 0)
(0.251082 -0.0454114 0)
(0.30477 -0.0445954 0)
(0.357882 -0.0439866 0)
(0.410407 -0.0431938 0)
(0.462106 -0.0420348 0)
(0.512669 -0.0404335 0)
(0.561461 -0.0383613 0)
(0.607313 -0.0359197 0)
(0.648507 -0.0333589 0)
(0.683791 -0.0314319 0)
(0.709364 -0.0301216 0)
(0.728926 -0.017089 0)
(0.802642 0.0234484 0)
(0.876201 0.0853416 0)
(0.866742 0.136223 0)
(0.735428 0.157002 0)
(0.0176241 -0.054286 0)
(0.074101 -0.0840015 0)
(0.143708 -0.082408 0)
(0.208329 -0.0765258 0)
(0.267543 -0.0731483 0)
(0.324714 -0.0717461 0)
(0.381552 -0.0709963 0)
(0.438348 -0.0701834 0)
(0.494852 -0.0689574 0)
(0.550328 -0.0669594 0)
(0.603325 -0.0637106 0)
(0.651584 -0.0587951 0)
(0.692004 -0.0521169 0)
(0.720438 -0.0439525 0)
(0.731383 -0.0360533 0)
(0.716726 -0.0320675 0)
(0.686865 -0.0141242 0)
(0.696779 0.0478508 0)
(0.74368 0.133769 0)
(0.734039 0.207255 0)
(0.0188219 -0.0767545 0)
(0.0782779 -0.119549 0)
(0.151478 -0.117317 0)
(0.219859 -0.108691 0)
(0.282952 -0.103762 0)
(0.344161 -0.101897 0)
(0.405237 -0.10112 0)
(0.466406 -0.10026 0)
(0.527164 -0.0986125 0)
(0.5864 -0.0954383 0)
(0.642337 -0.089903 0)
(0.692657 -0.0812749 0)
(0.734629 -0.0690451 0)
(0.765037 -0.0529915 0)
(0.779703 -0.0328625 0)
(0.772208 -0.00734765 0)
(0.734451 0.0245977 0)
(0.675172 0.0657436 0)
(0.640521 0.134099 0)
(0.62476 0.22552 0)
(0.0192603 -0.0999138 0)
(0.0794984 -0.15565 0)
(0.15368 -0.152978 0)
(0.222997 -0.141883 0)
(0.287277 -0.135533 0)
(0.349924 -0.133244 0)
(0.412573 -0.132441 0)
(0.475381 -0.131477 0)
(0.537789 -0.129282 0)
(0.598617 -0.124792 0)
(0.656033 -0.116924 0)
(0.70773 -0.104807 0)
(0.751101 -0.0878447 0)
(0.783282 -0.0655869 0)
(0.800828 -0.0375582 0)
(0.800283 -0.00284409 0)
(0.776995 0.0412591 0)
(0.722674 0.0940255 0)
(0.646721 0.159494 0)
(0.576758 0.248193 0)
(0.019398 -0.123293 0)
(0.0799151 -0.191709 0)
(0.154115 -0.188523 0)
(0.223138 -0.175042 0)
(0.287335 -0.167389 0)
(0.350159 -0.164771 0)
(0.413147 -0.16403 0)
(0.476506 -0.16306 0)
(0.539829 -0.160432 0)
(0.602064 -0.154732 0)
(0.661417 -0.144598 0)
(0.715566 -0.128969 0)
(0.761802 -0.107067 0)
(0.797023 -0.0782593 0)
(0.817958 -0.0419767 0)
(0.821419 0.00318464 0)
(0.806218 0.0591426 0)
(0.768003 0.125776 0)
(0.697582 0.200951 0)
(0.602578 0.289409 0)
(0.0195828 -0.146722 0)
(0.0805086 -0.227651 0)
(0.154619 -0.223824 0)
(0.223177 -0.207969 0)
(0.287101 -0.19909 0)
(0.349885 -0.196223 0)
(0.413002 -0.195659 0)
(0.476813 -0.194897 0)
(0.541206 -0.192172 0)
(0.605331 -0.185671 0)
(0.667395 -0.173695 0)
(0.724928 -0.154954 0)
(0.774942 -0.128421 0)
(0.813905 -0.0933001 0)
(0.838182 -0.0490751 0)
(0.84498 0.00471204 0)
(0.833656 0.0701803 0)
(0.80455 0.149173 0)
(0.751809 0.239756 0)
(0.665293 0.338782 0)
(0.0199166 -0.170421 0)
(0.0813618 -0.263643 0)
(0.155362 -0.25899 0)
(0.223466 -0.240763 0)
(0.287155 -0.230742 0)
(0.349928 -0.227703 0)
(0.413221 -0.227456 0)
(0.477661 -0.227196 0)
(0.543544 -0.224814 0)
(0.610225 -0.21798 0)
(0.67576 -0.204545 0)
(0.737343 -0.182914 0)
(0.791627 -0.151722 0)
(0.834618 -0.10998 0)
(0.862192 -0.0575051 0)
(0.871677 0.0055394 0)
(0.862702 0.0797849 0)
(0.837394 0.167515 0)
(0.798225 0.269824 0)
(0.733656 0.382439 0)
(0.0203987 -0.19449 0)
(0.0823474 -0.299671 0)
(0.156171 -0.293985 0)
(0.223794 -0.273413 0)
(0.287281 -0.262348 0)
(0.35009 -0.259218 0)
(0.413605 -0.259468 0)
(0.478787 -0.260097 0)
(0.54644 -0.258612 0)
(0.616133 -0.251969 0)
(0.685625 -0.237426 0)
(0.751651 -0.21306 0)
(0.81051 -0.17717 0)
(0.857863 -0.128522 0)
(0.889089 -0.0673121 0)
(0.90103 0.00512804 0)
(0.89382 0.0880314 0)
(0.870614 0.18265 0)
(0.838899 0.291727 0)
(0.794246 0.414258 0)
(0.0209451 -0.219005 0)
(0.0834555 -0.335713 0)
(0.157144 -0.328789 0)
(0.224306 -0.305918 0)
(0.28769 -0.293937 0)
(0.350582 -0.290796 0)
(0.414144 -0.291721 0)
(0.479729 -0.293661 0)
(0.548957 -0.293686 0)
(0.621783 -0.287793 0)
(0.695611 -0.272481 0)
(0.766628 -0.245522 0)
(0.830675 -0.204921 0)
(0.883006 -0.149168 0)
(0.918709 -0.0787435 0)
(0.934114 0.00367076 0)
(0.928907 0.0955376 0)
(0.906882 0.195883 0)
(0.877729 0.307948 0)
(0.845127 0.435024 0)
(0.0214537 -0.244053 0)
(0.0851313 -0.371838 0)
(0.158895 -0.363432 0)
(0.225644 -0.338328 0)
(0.288939 -0.325564 0)
(0.351565 -0.322362 0)
(0.414242 -0.323959 0)
(0.479166 -0.32759 0)
(0.549614 -0.329888 0)
(0.626124 -0.325525 0)
(0.705325 -0.309983 0)
(0.78248 -0.280712 0)
(0.852694 -0.235405 0)
(0.910624 -0.17236 0)
(0.951339 -0.0924295 0)
(0.971729 0.000674816 0)
(0.970439 0.102678 0)
(0.949606 0.209772 0)
(0.918619 0.323376 0)
(0.888408 0.450149 0)
(0.0221712 -0.269791 0)
(0.0882387 -0.40834 0)
(0.161935 -0.397992 0)
(0.227956 -0.370646 0)
(0.290562 -0.357053 0)
(0.351642 -0.353365 0)
(0.41178 -0.355405 0)
(0.475394 -0.361405 0)
(0.548344 -0.367373 0)
(0.630878 -0.365796 0)
(0.717424 -0.350719 0)
(0.801702 -0.319331 0)
(0.87822 -0.269107 0)
(0.941591 -0.198395 0)
(0.987596 -0.108823 0)
(1.01431 -0.00496137 0)
(1.02049 0.107682 0)
(1.00566 0.22359 0)
(0.974296 0.340648 0)
(0.938409 0.46558 0)
(0.0240603 -0.296744 0)
(0.092995 -0.445489 0)
(0.165105 -0.432274 0)
(0.229308 -0.402485 0)
(0.289993 -0.387665 0)
(0.348057 -0.3828 0)
(0.405251 -0.385523 0)
(0.469874 -0.395776 0)
(0.549486 -0.407721 0)
(0.641183 -0.410112 0)
(0.735639 -0.395442 0)
(0.825341 -0.361344 0)
(0.905785 -0.305657 0)
(0.973449 -0.227133 0)
(1.02583 -0.128453 0)
(1.06207 -0.0150328 0)
(1.08078 0.10767 0)
(1.07949 0.233758 0)
(1.05698 0.358063 0)
(1.0171 0.484474 0)
(0.0282128 -0.325936 0)
(0.0976911 -0.482571 0)
(0.165167 -0.4653 0)
(0.226404 -0.433093 0)
(0.28489 -0.416707 0)
(0.340739 -0.410602 0)
(0.398268 -0.415788 0)
(0.469369 -0.433447 0)
(0.559344 -0.453201 0)
(0.659379 -0.459035 0)
(0.757455 -0.44296 0)
(0.847224 -0.404813 0)
(0.928167 -0.343644 0)
(1.00063 -0.258558 0)
(1.0634 -0.152731 0)
(1.11495 -0.0319126 0)
(1.15254 0.0993231 0)
(1.17124 0.236014 0)
(1.16714 0.37228 0)
(1.13433 0.507244 0)
(0.0341152 -0.357788 0)
(0.0992201 -0.51736 0)
(0.159583 -0.49569 0)
(0.218718 -0.462434 0)
(0.277756 -0.445106 0)
(0.335723 -0.43899 0)
(0.399117 -0.449442 0)
(0.480032 -0.476676 0)
(0.577643 -0.503337 0)
(0.678735 -0.509847 0)
(0.773089 -0.489986 0)
(0.859292 -0.447556 0)
(0.943336 -0.382978 0)
(1.02851 -0.294562 0)
(1.1106 -0.184542 0)
(1.184 -0.058765 0)
(1.2438 0.0795216 0)
(1.28488 0.227296 0)
(1.30254 0.375146 0)
(1.28444 0.520791 0)
(0.038595 -0.390901 0)
(0.0956207 -0.547791 0)
(0.150287 -0.523534 0)
(0.211403 -0.492266 0)
(0.276082 -0.475509 0)
(0.340761 -0.470751 0)
(0.411844 -0.487697 0)
(0.498392 -0.523423 0)
(0.595148 -0.553584 0)
(0.689895 -0.557853 0)
(0.778814 -0.534522 0)
(0.868938 -0.491067 0)
(0.971017 -0.427746 0)
(1.08459 -0.339444 0)
(1.19624 -0.225871 0)
(1.29484 -0.0931733 0)
(1.37507 0.0467174 0)
(1.43218 0.205057 0)
(1.4616 0.374894 0)
(1.4538 0.547417 0)
(0.037648 -0.423174 0)
(0.0880684 -0.574697 0)
(0.143508 -0.551902 0)
(0.211639 -0.525435 0)
(0.284843 -0.50986 0)
(0.355694 -0.505906 0)
(0.429465 -0.52757 0)
(0.513391 -0.568785 0)
(0.604629 -0.5994 0)
(0.695027 -0.601157 0)
(0.788811 -0.578779 0)
(0.901811 -0.542386 0)
(1.03872 -0.488225 0)
(1.18559 -0.40326 0)
(1.32193 -0.284784 0)
(1.43545 -0.145259 0)
(1.5288 0.0254901 0)
(1.60007 0.199892 0)
(1.64271 0.357881 0)
(1.64467 0.521421 0)
(0.0300783 -0.453527 0)
(0.0798994 -0.601708 0)
(0.14443 -0.585165 0)
(0.22126 -0.563933 0)
(0.299696 -0.547711 0)
(0.370695 -0.541856 0)
(0.440888 -0.565578 0)
(0.519923 -0.610894 0)
(0.611585 -0.642428 0)
(0.709379 -0.645689 0)
(0.823137 -0.631295 0)
(0.967277 -0.612081 0)
(1.12749 -0.573437 0)
(1.27769 -0.49334 0)
(1.40862 -0.374773 0)
(1.5191 -0.24173 0)
(1.62 -0.0993611 0)
(1.68284 0.0531362 0)
(1.71633 0.252512 0)
(1.74059 0.461951 0)
(0.0188135 -0.480616 0)
(0.0734191 -0.63138 0)
(0.151941 -0.623654 0)
(0.234952 -0.606266 0)
(0.311471 -0.58618 0)
(0.377385 -0.575949 0)
(0.444334 -0.601751 0)
(0.525865 -0.654163 0)
(0.627392 -0.693124 0)
(0.742775 -0.704037 0)
(0.877426 -0.70504 0)
(1.0229 -0.700669 0)
(1.15827 -0.659848 0)
(1.26202 -0.57223 0)
(1.36313 -0.449307 0)
(1.4445 -0.297437 0)
(1.50687 -0.0640015 0)
(1.61152 0.143081 0)
(1.65203 0.32745 0)
(1.67324 0.538292 0)
(0.00887235 -0.501806 0)
(0.0689695 -0.663417 0)
(0.160378 -0.661748 0)
(0.24713 -0.645684 0)
(0.318553 -0.619733 0)
(0.380386 -0.606877 0)
(0.450181 -0.639582 0)
(0.541012 -0.705464 0)
(0.651394 -0.758888 0)
(0.781065 -0.777546 0)
(0.914791 -0.791106 0)
(1.01432 -0.774026 0)
(1.09325 -0.694029 0)
(1.13174 -0.58348 0)
(1.22055 -0.437343 0)
(1.34261 -0.262585 0)
(1.31141 -0.0825268 0)
(1.28702 0.262902 0)
(1.0377 0.547003 0)
(1.09252 0.170604 0)
(0.183351 0.0310209 0)
(0.125371 0.0082242 0)
(0.0749499 0.010291 0)
(0.0102905 0.0338171 0)
(-0.0804305 0.0421912 0)
(-0.164167 0.0425391 0)
(-0.242242 0.0506809 0)
(-0.336873 0.0462138 0)
(-0.428403 0.0244429 0)
(-0.481295 -0.00190005 0)
(-0.481162 -0.0258452 0)
(-0.424812 -0.0466343 0)
(-0.326281 -0.0564671 0)
(-0.207312 -0.0433942 0)
(-0.120704 -0.0126111 0)
(-0.100568 0.00598578 0)
(-0.118846 0.00538983 0)
(-0.143923 -0.000597496 0)
(-0.165295 -0.0170333 0)
(-0.162642 -0.0243979 0)
(0.577134 0.147636 0)
(0.446142 0.120883 0)
(0.313525 0.108633 0)
(0.162388 0.149029 0)
(-0.0228046 0.168922 0)
(-0.152349 0.139743 0)
(-0.274368 0.14133 0)
(-0.378294 0.127066 0)
(-0.449158 0.0895234 0)
(-0.510319 0.0445138 0)
(-0.575453 -0.0116098 0)
(-0.596853 -0.0842214 0)
(-0.51979 -0.153351 0)
(-0.367418 -0.1686 0)
(-0.20197 -0.0948697 0)
(-0.102016 0.00781388 0)
(-0.113812 0.0525947 0)
(-0.158806 0.0532642 0)
(-0.234692 0.0395606 0)
(-0.361926 0.0657811 0)
(0.661099 0.24487 0)
(0.560297 0.251088 0)
(0.435608 0.253607 0)
(0.292048 0.303882 0)
(0.101181 0.34471 0)
(-0.0293606 0.263354 0)
(-0.141759 0.253092 0)
(-0.250503 0.229663 0)
(-0.384067 0.190039 0)
(-0.595501 0.167019 0)
(-0.807071 0.105862 0)
(-0.913615 -0.0625943 0)
(-0.863383 -0.286866 0)
(-0.701385 -0.387595 0)
(-0.482334 -0.282803 0)
(-0.29021 -0.0864138 0)
(-0.227836 0.0446341 0)
(-0.261521 0.106193 0)
(-0.367736 0.160579 0)
(-0.524791 0.206916 0)
(0.593028 0.299692 0)
(0.539993 0.342161 0)
(0.462718 0.374011 0)
(0.364202 0.444573 0)
(0.213762 0.510842 0)
(0.0854676 0.391381 0)
(-0.0156887 0.357533 0)
(-0.122 0.37366 0)
(-0.328821 0.406025 0)
(-0.649741 0.440604 0)
(-0.942575 0.314002 0)
(-1.03242 -0.0526752 0)
(-0.963345 -0.433852 0)
(-0.875332 -0.599252 0)
(-0.725239 -0.509411 0)
(-0.54256 -0.219691 0)
(-0.432425 0.050853 0)
(-0.430925 0.177948 0)
(-0.505256 0.275613 0)
(-0.603238 0.306454 0)
(0.53029 0.331988 0)
(0.495755 0.391387 0)
(0.453796 0.444962 0)
(0.397619 0.543136 0)
(0.298189 0.639794 0)
(0.179384 0.519362 0)
(0.0600344 0.457767 0)
(-0.0411036 0.536634 0)
(-0.25984 0.655678 0)
(-0.556429 0.712667 0)
(-0.768824 0.474667 0)
(-0.800967 -0.0463108 0)
(-0.779681 -0.454112 0)
(-0.784731 -0.663886 0)
(-0.743699 -0.644171 0)
(-0.663006 -0.359689 0)
(-0.549648 0.0145126 0)
(-0.539623 0.219153 0)
(-0.569891 0.331498 0)
(-0.600345 0.340438 0)
(0.531301 0.368552 0)
(0.489482 0.425981 0)
(0.45377 0.483129 0)
(0.418795 0.597549 0)
(0.366762 0.728565 0)
(0.270062 0.653637 0)
(0.124839 0.571245 0)
(0.0153456 0.69352 0)
(-0.162941 0.868282 0)
(-0.377023 0.908398 0)
(-0.4873 0.607512 0)
(-0.481298 0.0611248 0)
(-0.53116 -0.388735 0)
(-0.579418 -0.628545 0)
(-0.578774 -0.669033 0)
(-0.621799 -0.429353 0)
(-0.559371 -0.02665 0)
(-0.546859 0.231041 0)
(-0.550569 0.336004 0)
(-0.541164 0.33032 0)
(0.588137 0.417389 0)
(0.535856 0.46968 0)
(0.488838 0.519834 0)
(0.452683 0.624451 0)
(0.431472 0.779016 0)
(0.371039 0.785587 0)
(0.227738 0.709304 0)
(0.0993629 0.819594 0)
(-0.0196078 1.01314 0)
(-0.152195 1.02151 0)
(-0.201391 0.665647 0)
(-0.220123 0.0698576 0)
(-0.31347 -0.355601 0)
(-0.386109 -0.603392 0)
(-0.373515 -0.645836 0)
(-0.447727 -0.452355 0)
(-0.469372 -0.0705426 0)
(-0.455676 0.227341 0)
(-0.470314 0.323471 0)
(-0.458661 0.313504 0)
(0.669553 0.46828 0)
(0.618779 0.522628 0)
(0.564349 0.57017 0)
(0.517011 0.650248 0)
(0.49864 0.798163 0)
(0.480588 0.88091 0)
(0.383566 0.851258 0)
(0.261465 0.923761 0)
(0.181214 1.08669 0)
(0.119901 1.07884 0)
(0.109012 0.731158 0)
(0.0685103 0.19269 0)
(-0.0342678 -0.245002 0)
(-0.142925 -0.55439 0)
(-0.166304 -0.617552 0)
(-0.248281 -0.396179 0)
(-0.336728 -0.0658791 0)
(-0.32098 0.242387 0)
(-0.359732 0.332092 0)
(-0.383291 0.322039 0)
(0.74962 0.509405 0)
(0.710948 0.571454 0)
(0.66388 0.625703 0)
(0.611818 0.688699 0)
(0.58516 0.802975 0)
(0.590186 0.914 0)
(0.558017 0.947427 0)
(0.484924 1.00497 0)
(0.434904 1.11603 0)
(0.419987 1.09317 0)
(0.426766 0.788177 0)
(0.364754 0.304655 0)
(0.242456 -0.136796 0)
(0.138841 -0.455416 0)
(0.0544209 -0.547875 0)
(-0.0645181 -0.317959 0)
(-0.216352 0.00226583 0)
(-0.241959 0.287729 0)
(-0.286686 0.385252 0)
(-0.348773 0.373016 0)
(0.816617 0.53655 0)
(0.792406 0.606142 0)
(0.761447 0.670839 0)
(0.720387 0.731796 0)
(0.688217 0.81305 0)
(0.692547 0.908403 0)
(0.702903 0.973786 0)
(0.69241 1.03713 0)
(0.686068 1.11428 0)
(0.702702 1.08246 0)
(0.71507 0.829105 0)
(0.652799 0.421915 0)
(0.50487 0.00266339 0)
(0.379937 -0.332451 0)
(0.24327 -0.445097 0)
(0.0935206 -0.196821 0)
(-0.121323 0.127383 0)
(-0.22313 0.366699 0)
(-0.281651 0.458222 0)
(-0.361911 0.450912 0)
(0.867969 0.552852 0)
(0.854387 0.625881 0)
(0.838789 0.698296 0)
(0.816002 0.764753 0)
(0.790839 0.829874 0)
(0.785805 0.897933 0)
(0.802659 0.956778 0)
(0.825533 1.01745 0)
(0.855588 1.08009 0)
(0.898882 1.05324 0)
(0.916278 0.85627 0)
(0.852708 0.529138 0)
(0.71532 0.162298 0)
(0.57735 -0.163911 0)
(0.38543 -0.306044 0)
(0.162222 -0.020977 0)
(-0.0646293 0.303077 0)
(-0.212767 0.471115 0)
(-0.303126 0.541257 0)
(-0.402102 0.541803 0)
(0.91532 0.565013 0)
(0.903707 0.636092 0)
(0.895153 0.710031 0)
(0.885975 0.7812 0)
(0.873132 0.843795 0)
(0.864693 0.89598 0)
(0.869533 0.937511 0)
(0.890677 0.979573 0)
(0.927685 1.02658 0)
(0.978877 1.01234 0)
(1.00113 0.871602 0)
(0.944435 0.622861 0)
(0.842773 0.304594 0)
(0.73406 0.00570079 0)
(0.546631 -0.0985213 0)
(0.22013 0.215842 0)
(-0.0394855 0.517142 0)
(-0.215315 0.612396 0)
(-0.337101 0.649487 0)
(-0.451391 0.641984 0)
(0.98525 0.580948 0)
(0.966436 0.647537 0)
(0.953347 0.717561 0)
(0.945597 0.788127 0)
(0.939231 0.851728 0)
(0.932546 0.900673 0)
(0.928559 0.932162 0)
(0.93404 0.955 0)
(0.956566 0.979594 0)
(0.988906 0.974925 0)
(1.00327 0.884894 0)
(0.977366 0.691689 0)
(0.937547 0.411411 0)
(0.862878 0.149094 0)
(0.626533 0.147296 0)
(0.208589 0.525483 0)
(-0.0532736 0.748854 0)
(-0.243883 0.777952 0)
(-0.381634 0.776257 0)
(-0.49883 0.745308 0)
(1.09914 0.605643 0)
(1.07206 0.668785 0)
(1.04784 0.732034 0)
(1.02897 0.796148 0)
(1.01547 0.856966 0)
(1.00606 0.905676 0)
(0.997496 0.935903 0)
(0.987964 0.952089 0)
(0.985226 0.96348 0)
(0.995299 0.956841 0)
(1.01197 0.886061 0)
(1.03273 0.711625 0)
(1.0427 0.462696 0)
(0.937657 0.306229 0)
(0.571282 0.491505 0)
(0.11123 0.882039 0)
(-0.112109 0.972158 0)
(-0.299357 0.946393 0)
(-0.431934 0.903704 0)
(-0.538497 0.842551 0)
(1.25346 0.625762 0)
(1.22253 0.692333 0)
(1.1885 0.756414 0)
(1.15502 0.817268 0)
(1.12702 0.872154 0)
(1.1066 0.916953 0)
(1.08768 0.949144 0)
(1.06592 0.968012 0)
(1.05156 0.971856 0)
(1.06094 0.946292 0)
(1.10155 0.856583 0)
(1.15284 0.688582 0)
(1.12107 0.527565 0)
(0.859704 0.58171 0)
(0.34508 0.942715 0)
(-0.0371466 1.20228 0)
(-0.214358 1.1682 0)
(-0.374636 1.09762 0)
(-0.486197 1.01616 0)
(-0.575569 0.928203 0)
(1.43202 0.668008 0)
(1.40648 0.74066 0)
(1.37301 0.806035 0)
(1.3351 0.862283 0)
(1.29898 0.907767 0)
(1.264 0.945654 0)
(1.22842 0.975824 0)
(1.20315 0.987504 0)
(1.20247 0.96985 0)
(1.2321 0.911142 0)
(1.27216 0.808431 0)
(1.24182 0.708533 0)
(1.01601 0.744516 0)
(0.526656 1.04906 0)
(0.0165726 1.39041 0)
(-0.201911 1.42887 0)
(-0.342552 1.32371 0)
(-0.459963 1.21747 0)
(-0.546125 1.10684 0)
(-0.621238 1.00141 0)
(1.62828 0.655525 0)
(1.60635 0.747739 0)
(1.57857 0.826953 0)
(1.54551 0.888811 0)
(1.5025 0.939506 0)
(1.44808 0.982967 0)
(1.40096 1.00631 0)
(1.38377 0.992827 0)
(1.39355 0.944975 0)
(1.39463 0.881536 0)
(1.31192 0.849617 0)
(1.04762 0.937235 0)
(0.564053 1.22049 0)
(0.0328817 1.56712 0)
(-0.265517 1.66885 0)
(-0.377796 1.57003 0)
(-0.477803 1.43311 0)
(-0.556744 1.30336 0)
(-0.62704 1.17961 0)
(-0.699064 1.07087 0)
(1.74848 0.620827 0)
(1.73363 0.72425 0)
(1.69857 0.820541 0)
(1.64761 0.909889 0)
(1.58316 0.98795 0)
(1.52346 1.03758 0)
(1.48702 1.03523 0)
(1.47238 0.985028 0)
(1.4196 0.954379 0)
(1.25941 0.988708 0)
(0.916992 1.14794 0)
(0.421295 1.44114 0)
(-0.0830901 1.75111 0)
(-0.398886 1.88094 0)
(-0.503462 1.7946 0)
(-0.566069 1.64645 0)
(-0.632032 1.50184 0)
(-0.696047 1.36832 0)
(-0.768562 1.2508 0)
(-0.85073 1.15095 0)
(1.7122 0.728052 0)
(1.71461 0.837279 0)
(1.68422 0.907744 0)
(1.62929 0.974087 0)
(1.57148 1.05146 0)
(1.47854 1.09044 0)
(1.34183 1.04985 0)
(1.18326 1.05106 0)
(0.94723 1.15571 0)
(0.552821 1.3787 0)
(0.0740396 1.67802 0)
(-0.354143 1.93894 0)
(-0.616094 2.04931 0)
(-0.705909 1.99106 0)
(-0.735554 1.84922 0)
(-0.780022 1.70498 0)
(-0.837109 1.57111 0)
(-0.906965 1.44939 0)
(-0.988157 1.34137 0)
(-1.07628 1.24079 0)
(1.49469 0.46008 0)
(1.6541 0.743644 0)
(1.64258 0.943101 0)
(1.27697 1.16549 0)
(0.950024 1.25961 0)
(0.741456 1.27046 0)
(0.511849 1.29961 0)
(0.212239 1.43261 0)
(-0.152423 1.65812 0)
(-0.49571 1.88874 0)
(-0.782192 2.07409 0)
(-0.942301 2.14683 0)
(-0.994302 2.10391 0)
(-0.996891 1.9888 0)
(-1.0114 1.8547 0)
(-1.04995 1.72546 0)
(-1.10273 1.60039 0)
(-1.16612 1.48185 0)
(-1.23251 1.36932 0)
(-1.29686 1.25966 0)
(-0.215206 0.0146027 0)
(-0.420213 0.0714371 0)
(-0.657803 0.0688147 0)
(-0.791643 0.0344912 0)
(-0.826171 0.00452205 0)
(-0.804832 -0.0113088 0)
(-0.772235 -0.013572 0)
(-0.737671 -0.0138625 0)
(-0.699163 -0.0146705 0)
(-0.656198 -0.0158775 0)
(-0.607926 -0.0172549 0)
(-0.554798 -0.0184658 0)
(-0.497544 -0.0194289 0)
(-0.437066 -0.0201871 0)
(-0.374126 -0.0209109 0)
(-0.308835 -0.0218345 0)
(-0.23971 -0.0231616 0)
(-0.164233 -0.0247618 0)
(-0.0851241 -0.0247473 0)
(-0.0217121 -0.0158124 0)
(-0.575693 0.130642 0)
(-0.76171 0.155099 0)
(-0.789413 0.101189 0)
(-0.719589 0.0360206 0)
(-0.666875 -0.00138701 0)
(-0.65326 -0.0173521 0)
(-0.640206 -0.0221463 0)
(-0.620133 -0.0240406 0)
(-0.594176 -0.026905 0)
(-0.56101 -0.0306265 0)
(-0.522073 -0.0344582 0)
(-0.478221 -0.0379159 0)
(-0.430365 -0.0407963 0)
(-0.379313 -0.0430803 0)
(-0.325809 -0.0449828 0)
(-0.270058 -0.04703 0)
(-0.210565 -0.0500129 0)
(-0.144201 -0.0541161 0)
(-0.0726207 -0.0550056 0)
(-0.0166876 -0.0354022 0)
(-0.688824 0.219293 0)
(-0.718677 0.159924 0)
(-0.616353 0.0588187 0)
(-0.594947 0.00145519 0)
(-0.633899 -0.0121694 0)
(-0.658395 -0.0184449 0)
(-0.667796 -0.0263875 0)
(-0.659721 -0.0340702 0)
(-0.636516 -0.0422525 0)
(-0.602477 -0.0500873 0)
(-0.560371 -0.0568478 0)
(-0.512321 -0.0624139 0)
(-0.459975 -0.0668161 0)
(-0.40461 -0.0702471 0)
(-0.347125 -0.0731805 0)
(-0.287569 -0.0766566 0)
(-0.224136 -0.0821937 0)
(-0.153508 -0.0896775 0)
(-0.0774138 -0.0903045 0)
(-0.0173209 -0.055364 0)
(-0.663278 0.254257 0)
(-0.612074 0.133809 0)
(-0.566109 0.0507621 0)
(-0.631138 0.0365162 0)
(-0.681704 0.0194074 0)
(-0.706086 -0.00514733 0)
(-0.712445 -0.0240924 0)
(-0.701474 -0.0412719 0)
(-0.676255 -0.0567266 0)
(-0.640122 -0.0698196 0)
(-0.59523 -0.0805581 0)
(-0.543664 -0.0890177 0)
(-0.487304 -0.0954056 0)
(-0.427751 -0.100137 0)
(-0.36613 -0.104076 0)
(-0.302567 -0.108908 0)
(-0.235274 -0.116903 0)
(-0.160951 -0.127759 0)
(-0.0813739 -0.128561 0)
(-0.0184472 -0.0783483 0)
(-0.592663 0.251915 0)
(-0.553908 0.120792 0)
(-0.594403 0.0707248 0)
(-0.671899 0.0626946 0)
(-0.709108 0.0323276 0)
(-0.727938 -0.000210191 0)
(-0.730751 -0.0269693 0)
(-0.717911 -0.0511589 0)
(-0.691852 -0.0724539 0)
(-0.654724 -0.0904325 0)
(-0.608496 -0.105134 0)
(-0.5553 -0.116594 0)
(-0.497118 -0.125081 0)
(-0.4357 -0.131181 0)
(-0.372302 -0.136138 0)
(-0.307164 -0.142285 0)
(-0.238615 -0.152603 0)
(-0.163307 -0.166556 0)
(-0.0826476 -0.167339 0)
(-0.0188652 -0.102002 0)
(-0.518735 0.240813 0)
(-0.534951 0.13648 0)
(-0.629046 0.10888 0)
(-0.696875 0.0897466 0)
(-0.726136 0.0462234 0)
(-0.743419 0.00590031 0)
(-0.744412 -0.0290041 0)
(-0.729693 -0.0607487 0)
(-0.702043 -0.0883039 0)
(-0.663251 -0.111486 0)
(-0.615442 -0.130288 0)
(-0.560733 -0.144788 0)
(-0.501153 -0.155344 0)
(-0.438524 -0.162721 0)
(-0.374178 -0.168553 0)
(-0.308433 -0.17585 0)
(-0.239686 -0.188339 0)
(-0.16441 -0.20532 0)
(-0.0833897 -0.206171 0)
(-0.0190337 -0.125907 0)
(-0.462678 0.24612 0)
(-0.541289 0.175995 0)
(-0.657545 0.151297 0)
(-0.716234 0.112862 0)
(-0.74659 0.0583732 0)
(-0.763753 0.0103163 0)
(-0.762199 -0.0329262 0)
(-0.745101 -0.0718459 0)
(-0.714918 -0.105427 0)
(-0.673684 -0.133632 0)
(-0.623647 -0.156379 0)
(-0.566937 -0.173788 0)
(-0.505614 -0.186272 0)
(-0.441556 -0.194755 0)
(-0.376173 -0.201264 0)
(-0.309839 -0.209514 0)
(-0.240969 -0.224034 0)
(-0.165808 -0.244041 0)
(-0.0844399 -0.245099 0)
(-0.0192807 -0.149968 0)
(-0.4369 0.280879 0)
(-0.565822 0.232347 0)
(-0.683771 0.194197 0)
(-0.73975 0.135366 0)
(-0.774511 0.0712667 0)
(-0.790222 0.0140631 0)
(-0.785865 -0.0381942 0)
(-0.765769 -0.0843803 0)
(-0.732167 -0.124059 0)
(-0.687596 -0.157188 0)
(-0.634457 -0.183741 0)
(-0.57503 -0.2039 0)
(-0.511407 -0.218137 0)
(-0.445488 -0.227519 0)
(-0.37877 -0.234453 0)
(-0.311681 -0.243408 0)
(-0.24261 -0.259791 0)
(-0.167549 -0.282827 0)
(-0.0858336 -0.284313 0)
(-0.0197069 -0.174436 0)
(-0.44717 0.343743 0)
(-0.602237 0.297026 0)
(-0.711618 0.236284 0)
(-0.769504 0.159002 0)
(-0.80695 0.0842136 0)
(-0.820755 0.0163251 0)
(-0.814097 -0.0450725 0)
(-0.790689 -0.0987875 0)
(-0.753234 -0.144636 0)
(-0.704584 -0.18261 0)
(-0.647511 -0.212775 0)
(-0.584639 -0.235431 0)
(-0.518165 -0.251166 0)
(-0.449988 -0.261174 0)
(-0.381668 -0.268214 0)
(-0.31369 -0.277565 0)
(-0.24438 -0.295592 0)
(-0.169443 -0.32164 0)
(-0.0874164 -0.323819 0)
(-0.0203191 -0.199439 0)
(-0.487065 0.423036 0)
(-0.643704 0.362075 0)
(-0.741886 0.276937 0)
(-0.802569 0.183662 0)
(-0.840741 0.0970169 0)
(-0.853678 0.0177713 0)
(-0.845246 -0.0532565 0)
(-0.818743 -0.114999 0)
(-0.777345 -0.167301 0)
(-0.724156 -0.210214 0)
(-0.662465 -0.243842 0)
(-0.595428 -0.268697 0)
(-0.525582 -0.285594 0)
(-0.454886 -0.295884 0)
(-0.384887 -0.302643 0)
(-0.31604 -0.312011 0)
(-0.246504 -0.331423 0)
(-0.171631 -0.360462 0)
(-0.0891094 -0.363601 0)
(-0.0210206 -0.225054 0)
(-0.538447 0.506096 0)
(-0.683911 0.42246 0)
(-0.773044 0.315677 0)
(-0.836145 0.208756 0)
(-0.87514 0.109936 0)
(-0.888325 0.0188847 0)
(-0.878636 -0.0625093 0)
(-0.849522 -0.132882 0)
(-0.804367 -0.192108 0)
(-0.746499 -0.240202 0)
(-0.679511 -0.277249 0)
(-0.60728 -0.303994 0)
(-0.533201 -0.321588 0)
(-0.459679 -0.33169 0)
(-0.388261 -0.337712 0)
(-0.319076 -0.346714 0)
(-0.249698 -0.367304 0)
(-0.174865 -0.399401 0)
(-0.091327 -0.403785 0)
(-0.0216226 -0.251347 0)
(-0.586413 0.5865 0)
(-0.717754 0.477221 0)
(-0.802451 0.353442 0)
(-0.868964 0.234924 0)
(-0.910017 0.123574 0)
(-0.924037 0.0199181 0)
(-0.913637 -0.0727324 0)
(-0.882751 -0.152432 0)
(-0.834892 -0.219111 0)
(-0.77293 -0.27283 0)
(-0.700203 -0.313508 0)
(-0.621273 -0.341912 0)
(-0.541012 -0.359499 0)
(-0.46331 -0.368543 0)
(-0.390399 -0.37307 0)
(-0.321904 -0.381296 0)
(-0.253928 -0.403079 0)
(-0.179866 -0.438638 0)
(-0.095159 -0.444836 0)
(-0.0222043 -0.278492 0)
(-0.623239 0.661977 0)
(-0.742841 0.528879 0)
(-0.829264 0.392673 0)
(-0.900501 0.263076 0)
(-0.943413 0.138099 0)
(-0.957526 0.0209284 0)
(-0.946366 -0.0836849 0)
(-0.915299 -0.173053 0)
(-0.867221 -0.247679 0)
(-0.803428 -0.30792 0)
(-0.726298 -0.353135 0)
(-0.640227 -0.38358 0)
(-0.551285 -0.400542 0)
(-0.466088 -0.407065 0)
(-0.38947 -0.408454 0)
(-0.321683 -0.414942 0)
(-0.256761 -0.437949 0)
(-0.185633 -0.477802 0)
(-0.101447 -0.487242 0)
(-0.023659 -0.307009 0)
(-0.64927 0.731014 0)
(-0.764126 0.579311 0)
(-0.85723 0.433963 0)
(-0.930958 0.292685 0)
(-0.972328 0.153005 0)
(-0.983747 0.0219535 0)
(-0.970506 -0.0944148 0)
(-0.939789 -0.19293 0)
(-0.893669 -0.275789 0)
(-0.831734 -0.343756 0)
(-0.75479 -0.395227 0)
(-0.665186 -0.429487 0)
(-0.567926 -0.446539 0)
(-0.471963 -0.449463 0)
(-0.386759 -0.445161 0)
(-0.316392 -0.447494 0)
(-0.254391 -0.470698 0)
(-0.18885 -0.515362 0)
(-0.109214 -0.530521 0)
(-0.0274409 -0.337987 0)
(-0.676619 0.797137 0)
(-0.793916 0.634595 0)
(-0.893408 0.47933 0)
(-0.966325 0.322749 0)
(-1.00378 0.167211 0)
(-1.00964 0.0221448 0)
(-0.990239 -0.105123 0)
(-0.953682 -0.211814 0)
(-0.905793 -0.302454 0)
(-0.846677 -0.37812 0)
(-0.775271 -0.436727 0)
(-0.689783 -0.477399 0)
(-0.590644 -0.497368 0)
(-0.485727 -0.497986 0)
(-0.388301 -0.48634 0)
(-0.309301 -0.480965 0)
(-0.246151 -0.501203 0)
(-0.186412 -0.549334 0)
(-0.115463 -0.572632 0)
(-0.033985 -0.372544 0)
(-0.721934 0.858102 0)
(-0.850272 0.686228 0)
(-0.958764 0.521755 0)
(-1.03494 0.351855 0)
(-1.07271 0.178519 0)
(-1.07182 0.0163853 0)
(-1.03602 -0.119553 0)
(-0.976638 -0.234703 0)
(-0.911189 -0.331013 0)
(-0.845785 -0.41116 0)
(-0.778626 -0.474568 0)
(-0.702467 -0.522725 0)
(-0.610646 -0.549077 0)
(-0.505471 -0.551277 0)
(-0.399273 -0.533796 0)
(-0.308285 -0.518568 0)
(-0.23753 -0.531606 0)
(-0.179063 -0.579301 0)
(-0.117182 -0.611044 0)
(-0.0411992 -0.410314 0)
(-0.81014 0.929242 0)
(-0.957735 0.755003 0)
(-1.0851 0.574615 0)
(-1.18026 0.379759 0)
(-1.22684 0.188015 0)
(-1.21391 0.00890748 0)
(-1.14886 -0.143852 0)
(-1.0496 -0.27038 0)
(-0.94322 -0.366816 0)
(-0.850177 -0.444756 0)
(-0.772772 -0.507933 0)
(-0.699888 -0.561836 0)
(-0.617457 -0.596358 0)
(-0.520777 -0.604244 0)
(-0.416053 -0.58507 0)
(-0.317771 -0.561515 0)
(-0.236364 -0.565231 0)
(-0.17179 -0.607678 0)
(-0.113705 -0.644923 0)
(-0.0452697 -0.449109 0)
(-0.983254 1.0148 0)
(-1.15958 0.83662 0)
(-1.30334 0.646921 0)
(-1.40027 0.440555 0)
(-1.44028 0.217836 0)
(-1.41437 -0.00997116 0)
(-1.32384 -0.199088 0)
(-1.18837 -0.334834 0)
(-1.03493 -0.421122 0)
(-0.897098 -0.485652 0)
(-0.786246 -0.540879 0)
(-0.697654 -0.596796 0)
(-0.612827 -0.637502 0)
(-0.523208 -0.652781 0)
(-0.427939 -0.635731 0)
(-0.332369 -0.607987 0)
(-0.244734 -0.604208 0)
(-0.169672 -0.638727 0)
(-0.107178 -0.676277 0)
(-0.0437435 -0.487262 0)
(-1.20918 1.0826 0)
(-1.37592 0.85626 0)
(-1.4967 0.600795 0)
(-1.57637 0.334534 0)
(-1.60678 0.0910041 0)
(-1.56751 -0.114695 0)
(-1.47046 -0.304955 0)
(-1.32848 -0.441392 0)
(-1.16323 -0.518888 0)
(-0.998052 -0.562958 0)
(-0.844553 -0.594525 0)
(-0.720753 -0.643385 0)
(-0.614635 -0.6802 0)
(-0.518876 -0.697393 0)
(-0.429642 -0.682423 0)
(-0.342226 -0.65389 0)
(-0.256165 -0.647287 0)
(-0.173136 -0.675669 0)
(-0.100825 -0.708454 0)
(-0.0377767 -0.524948 0)
(-1.38206 1.09532 0)
(-1.48188 0.88013 0)
(-1.54541 0.658166 0)
(-1.56287 0.430592 0)
(-1.51922 0.185854 0)
(-1.48411 -0.0997361 0)
(-1.45032 -0.345071 0)
(-1.34908 -0.52342 0)
(-1.23308 -0.631159 0)
(-1.09437 -0.693193 0)
(-0.929809 -0.701975 0)
(-0.77308 -0.724312 0)
(-0.638465 -0.741565 0)
(-0.525422 -0.744635 0)
(-0.430376 -0.724314 0)
(-0.345805 -0.694259 0)
(-0.263308 -0.689279 0)
(-0.178082 -0.717367 0)
(-0.0967927 -0.743076 0)
(-0.031143 -0.560971 0)
(0.00535336 -0.543938 0)
(0.0727337 -0.765514 0)
(0.17969 -0.777709 0)
(0.280582 -0.745485 0)
(0.361823 -0.695875 0)
(0.431033 -0.68958 0)
(0.5085 -0.752965 0)
(0.60126 -0.842806 0)
(0.701915 -0.90977 0)
(0.810427 -0.933831 0)
(0.899088 -0.900282 0)
(0.91419 -0.813058 0)
(0.944128 -0.719353 0)
(0.889553 -0.653126 0)
(0.972502 -0.522733 0)
(1.41269 -0.170002 0)
(1.24086 -0.226731 0)
(0.931862 -1.09815 0)
(1.27892 0.382821 0)
(0.0508215 1.14434 0)
(0.0312848 -0.619906 0)
(0.105964 -0.972312 0)
(0.219706 -1.04201 0)
(0.356209 -0.965761 0)
(0.499007 -0.854213 0)
(0.602242 -0.849104 0)
(0.668675 -0.943588 0)
(0.723631 -1.03737 0)
(0.789801 -1.09344 0)
(0.818463 -1.13634 0)
(0.872635 -0.961791 0)
(0.939619 -0.8472 0)
(1.02358 -0.924399 0)
(0.880522 -0.967896 0)
(0.480146 -0.678281 0)
(0.312742 -0.930073 0)
(0.16025 0.779995 0)
(-1.41884 1.72046 0)
(-1.79668 2.14671 0)
(-1.94008 2.1657 0)
(0.10625 -0.806556 0)
(0.136266 -1.18698 0)
(0.235007 -1.35582 0)
(0.396324 -1.36235 0)
(0.650594 -1.21003 0)
(0.814214 -1.13437 0)
(0.962011 -1.03775 0)
(1.02568 -1.08711 0)
(0.969297 -1.17844 0)
(0.78093 -1.22042 0)
(0.588906 -0.68278 0)
(0.42124 -0.876776 0)
(-0.0464301 -0.620886 0)
(-0.503868 -0.215604 0)
(-1.14872 0.622377 0)
(-2.35505 1.74495 0)
(-2.77564 2.24714 0)
(-2.81883 2.39511 0)
(-2.71683 2.27318 0)
(-2.43948 2.08013 0)
(0.155108 -1.07415 0)
(0.0764344 -1.25137 0)
(0.218963 -1.51973 0)
(0.301407 -1.73423 0)
(0.456462 -1.7158 0)
(0.527669 -1.46635 0)
(0.409779 -1.05036 0)
(0.0575238 -0.896418 0)
(-0.353107 -0.555622 0)
(-0.756874 -0.399718 0)
(-1.0003 -0.434204 0)
(-1.26662 0.13494 0)
(-1.85405 1.05357 0)
(-2.81612 1.92394 0)