/*--------------------------------*- C++ -*----------------------------------*\
| =========                 |                                                 |
| \\      /  F ield         | OpenFOAM: The Open Source CFD Toolbox           |
|  \\    /   O peration     | Version:  2.4.0                                 |
|   \\  /    A nd           | Web:      www.OpenFOAM.org                      |
|    \\/     M anipulation  |                                                 |
\*---------------------------------------------------------------------------*/
FoamFile
{
    version     2.0;
    format      ascii;
    class       surfaceScalarField;
    location    "0.039";
    object      phiAlpha;
}
// * * * * * * * * * * * * * * * * * * * * * * * * * * * * * * * * * * * * * //

dimensions      [0 3 -1 0 0 0 0];

internalField   nonuniform List<scalar> 
7080
(
-5.81704e-13
5.81611e-13
-3.14654e-12
2.5648e-12
-8.8483e-12
5.70247e-12
-1.83707e-11
9.52347e-12
-3.23562e-11
1.39881e-11
-5.29287e-11
2.05781e-11
-7.92574e-11
2.63319e-11
-1.16815e-10
3.75583e-11
-1.57851e-10
4.1041e-11
-2.17121e-10
5.92711e-11
-2.68695e-10
5.15759e-11
-3.43539e-10
7.48417e-11
-3.81752e-10
3.82232e-11
-4.31215e-10
4.94655e-11
-3.98172e-10
-3.30397e-11
-3.47044e-10
-5.11237e-11
-2.13632e-10
-1.33407e-10
-9.89444e-11
-1.14684e-10
1.2523e-11
-1.11467e-10
8.19231e-11
-6.93917e-11
1.11366e-10
-2.94425e-11
1.20843e-10
-9.4764e-12
1.07614e-10
1.32409e-11
9.29441e-11
1.46497e-11
7.13448e-11
2.16329e-11
5.36932e-11
1.76113e-11
3.70551e-11
1.66804e-11
2.4516e-11
1.25018e-11
1.49468e-11
9.59594e-12
6.85943e-12
8.07337e-12
-1.18794e-12
1.76971e-12
-5.22989e-12
6.60761e-12
-1.29107e-11
1.33857e-11
-2.53615e-11
2.19775e-11
-4.32296e-11
3.18621e-11
-6.85271e-11
4.58846e-11
-1.00078e-10
5.78899e-11
-1.43578e-10
8.10618e-11
-1.90415e-10
8.78864e-11
-2.55837e-10
1.24699e-10
-3.10463e-10
1.06207e-10
-3.87645e-10
1.52025e-10
-4.19396e-10
6.99892e-11
-4.60025e-10
9.00992e-11
-4.06058e-10
-8.70007e-11
-3.33101e-10
-1.24071e-10
-1.75619e-10
-2.90884e-10
-4.29672e-11
-2.47323e-10
7.59712e-11
-2.30405e-10
1.44293e-10
-1.37704e-10
1.67451e-10
-5.25886e-11
1.68718e-10
-1.07633e-11
1.45571e-10
3.64332e-11
1.22122e-10
3.80386e-11
9.25251e-11
5.13046e-11
6.84459e-11
4.16138e-11
4.68068e-11
3.83877e-11
3.05728e-11
2.86851e-11
1.87589e-11
2.14376e-11
1.50761e-11
1.05348e-11
-1.20493e-12
2.97487e-12
-5.30127e-12
1.07047e-11
-1.28844e-11
2.09708e-11
-2.507e-11
3.41657e-11
-4.26013e-11
4.93984e-11
-6.77187e-11
7.101e-11
-9.91788e-11
8.93549e-11
-1.42974e-10
1.24859e-10
-1.89954e-10
1.34873e-10
-2.56112e-10
1.90859e-10
-3.10777e-10
1.60876e-10
-3.88781e-10
2.30027e-10
-4.1985e-10
1.01072e-10
-4.59409e-10
1.29663e-10
-4.01987e-10
-1.44418e-10
-3.23317e-10
-2.02731e-10
-1.60834e-10
-4.53363e-10
-2.47298e-11
-3.83415e-10
9.26883e-11
-3.47823e-10
1.58255e-10
-2.03261e-10
1.78129e-10
-7.24509e-11
1.76454e-10
-9.10835e-12
1.5112e-10
6.18125e-11
1.25919e-10
6.31802e-11
9.51135e-11
8.21838e-11
7.01304e-11
6.65214e-11
4.78747e-11
6.07105e-11
3.11266e-11
4.53834e-11
1.91523e-11
3.3439e-11
2.16084e-11
1.26137e-11
-1.0291e-12
4.00413e-12
-4.85076e-12
1.45268e-11
-1.23161e-11
2.84378e-11
-2.45419e-11
4.63936e-11
-4.22516e-11
6.71119e-11
-6.79042e-11
9.66704e-11
-9.99994e-11
1.21455e-10
-1.45111e-10
1.69972e-10
-1.93121e-10
1.82889e-10
-2.6162e-10
2.59361e-10
-3.17828e-10
2.17088e-10
-3.99015e-10
3.11212e-10
-4.31356e-10
1.33426e-10
-4.71655e-10
1.69965e-10
-4.11187e-10
-2.0488e-10
-3.2567e-10
-2.88239e-10
-1.56396e-10
-6.22634e-10
-1.56406e-11
-5.24158e-10
1.00787e-10
-4.64251e-10
1.6441e-10
-2.66876e-10
1.81708e-10
-8.97358e-11
1.78347e-10
-5.76862e-12
1.51982e-10
8.82224e-11
1.26245e-10
8.88586e-11
9.52183e-11
1.13283e-10
7.008e-11
9.15855e-11
4.78017e-11
8.30546e-11
3.11019e-11
6.20346e-11
1.89941e-11
4.55732e-11
2.95152e-11
1.10818e-11
-1.10802e-12
5.11226e-12
-5.07119e-12
1.84903e-11
-1.27762e-11
3.61441e-11
-2.54329e-11
5.90521e-11
-4.36488e-11
8.53315e-11
-7.02038e-11
1.23234e-10
-1.03205e-10
1.54461e-10
-1.5015e-10
2.16918e-10
-1.99619e-10
2.32366e-10
-2.71466e-10
3.31209e-10
-3.29889e-10
2.75515e-10
-4.15621e-10
3.96943e-10
-4.49803e-10
1.67621e-10
-4.91185e-10
2.11352e-10
-4.26557e-10
-2.69504e-10
-3.31528e-10
-3.8326e-10
-1.52649e-10
-8.01509e-10
-5.27991e-12
-6.71516e-10
1.09882e-10
-5.79413e-10
1.71115e-10
-3.28101e-10
1.85191e-10
-1.038e-10
1.79848e-10
-4.46236e-13
1.52363e-10
1.15751e-10
1.2612e-10
1.15044e-10
9.49644e-11
1.4451e-10
6.97933e-11
1.16684e-10
4.75727e-11
1.0534e-10
3.09403e-11
7.86195e-11
1.88682e-11
5.76709e-11
3.7643e-11
1.07356e-11
-1.18729e-12
6.29961e-12
-5.3635e-12
2.26667e-11
-1.34075e-11
4.41892e-11
-2.66281e-11
7.2274e-11
-4.55379e-11
1.04245e-10
-7.32923e-11
1.50996e-10
-1.07438e-10
1.88611e-10
-1.56729e-10
2.66209e-10
-2.08071e-10
2.83714e-10
-2.84222e-10
4.07361e-10
-3.45538e-10
3.36834e-10
-4.37155e-10
4.88556e-10
-4.73838e-10
2.04317e-10
-5.16573e-10
2.54089e-10
-4.46497e-10
-3.39575e-10
-3.38918e-10
-4.90831e-10
-1.47582e-10
-9.92842e-10
7.23425e-12
-8.26321e-10
1.21414e-10
-6.93593e-10
1.79408e-10
-3.86087e-10
1.89387e-10
-1.13766e-10
1.81578e-10
7.34186e-12
1.5273e-10
1.44643e-10
1.25886e-10
1.41831e-10
9.45929e-11
1.75873e-10
6.94067e-11
1.41799e-10
4.72709e-11
1.27538e-10
3.07184e-11
9.51259e-11
1.87284e-11
6.96855e-11
4.57143e-11
1.06531e-11
-1.26669e-12
7.56631e-12
-5.67473e-12
2.70747e-11
-1.41192e-11
5.26344e-11
-2.80344e-11
8.61901e-11
-4.77861e-11
1.23999e-10
-7.70122e-11
1.80229e-10
-1.1258e-10
2.24182e-10
-1.64733e-10
3.18361e-10
-2.18344e-10
3.37331e-10
-2.99805e-10
4.88823e-10
-3.64764e-10
4.01795e-10
-4.63744e-10
5.87532e-10
-5.03732e-10
2.44318e-10
-5.48079e-10
2.98438e-10
-4.71202e-10
-4.16448e-10
-3.47617e-10
-6.14407e-10
-1.40703e-10
-1.19975e-09
2.27518e-11
-9.89764e-10
1.35648e-10
-8.06489e-10
1.89409e-10
-4.39842e-10
1.94354e-10
-1.18698e-10
1.83568e-10
1.81065e-11
1.53119e-10
1.75135e-10
1.25579e-10
1.69316e-10
9.41325e-11
2.07387e-10
6.89363e-11
1.66926e-10
4.69065e-11
1.49629e-10
3.04498e-11
1.11538e-10
1.85617e-11
8.15973e-11
5.37277e-11
1.05448e-11
-1.44733e-12
9.01357e-12
-6.16816e-12
3.17955e-11
-1.502e-11
6.14872e-11
-2.975e-11
1.00921e-10
-5.04725e-11
1.44725e-10
-8.14124e-11
2.11177e-10
-1.18563e-10
2.61336e-10
-1.74115e-10
3.73912e-10
-2.30427e-10
3.93648e-10
-3.18256e-10
5.76652e-10
-3.87721e-10
4.71262e-10
-4.9571e-10
6.95517e-10
-5.40058e-10
2.8868e-10
-5.86322e-10
3.44703e-10
-5.01164e-10
-5.01601e-10
-3.57536e-10
-7.58027e-10
-1.3155e-10
-1.42574e-09
4.22044e-11
-1.16351e-09
1.52781e-10
-9.17066e-10
2.01134e-10
-4.88188e-10
2.0005e-10
-1.17601e-10
1.85785e-10
3.2351e-11
1.53513e-10
2.0745e-10
1.2519e-10
1.97584e-10
9.35814e-11
2.39062e-10
6.83814e-11
1.92059e-10
4.64793e-11
1.7159e-10
3.01355e-11
1.27839e-10
1.83656e-11
9.339e-11
6.16511e-11
1.04392e-11
-1.53728e-12
1.05508e-11
-6.61076e-12
3.68689e-11
-1.60129e-11
7.08903e-11
-3.17294e-11
1.16639e-10
-5.35858e-11
1.66585e-10
-8.64588e-11
2.44057e-10
-1.25395e-10
3.00276e-10
-1.84903e-10
4.3342e-10
-2.44299e-10
4.5305e-10
-3.39605e-10
6.71958e-10
-4.1456e-10
5.46218e-10
-5.33425e-10
8.14375e-10
-5.83485e-10
3.38755e-10
-6.31975e-10
3.93195e-10
-5.36937e-10
-5.96636e-10
-3.68534e-10
-9.26422e-10
-1.19545e-10
-1.67472e-09
6.60358e-11
-1.34907e-09
1.73017e-10
-1.02405e-09
2.14559e-10
-5.29723e-10
2.06397e-10
-1.09426e-10
1.88159e-10
5.05682e-11
1.53872e-10
2.41778e-10
1.24698e-10
2.26705e-10
9.29276e-11
2.70898e-10
6.77347e-11
2.17187e-10
4.59847e-11
1.93397e-10
2.9773e-11
1.44009e-10
1.81374e-11
1.05047e-10
6.94856e-11
1.03003e-11
-1.62869e-12
1.21795e-11
-7.11752e-12
4.23575e-11
-1.71906e-11
8.09634e-11
-3.42452e-11
1.33693e-10
-5.72274e-11
1.89569e-10
-9.24402e-11
2.79279e-10
-1.33182e-10
3.4102e-10
-1.97079e-10
4.97315e-10
-2.5997e-10
5.15945e-10
-3.63897e-10
7.75886e-10
-4.45501e-10
6.27823e-10
-5.77398e-10
9.46265e-10
-6.34933e-10
3.96305e-10
-6.86032e-10
4.44295e-10
-5.79399e-10
-7.03266e-10
-3.80495e-10
-1.12532e-09
-1.04005e-10
-1.95121e-09
9.48625e-11
-1.54793e-09
1.96617e-10
-1.1258e-09
2.29681e-10
-5.62781e-10
2.13336e-10
-9.30678e-11
1.90648e-10
7.32356e-11
1.54183e-10
2.78283e-10
1.24104e-10
2.56733e-10
9.21756e-11
3.02889e-10
6.70013e-11
2.42298e-10
4.54267e-11
2.15026e-10
2.93656e-11
1.6003e-10
1.78788e-11
1.16555e-10
7.72201e-11
1.01422e-11
-1.82726e-12
1.40067e-11
-8.06238e-12
4.85924e-11
-1.92862e-11
9.21887e-11
-3.76513e-11
1.5206e-10
-6.16633e-11
2.13586e-10
-9.82152e-11
3.15841e-10
-1.41036e-10
3.83843e-10
-2.10387e-10
5.66665e-10
-2.77212e-10
5.82774e-10
-3.911e-10
8.89771e-10
-4.80756e-10
7.1748e-10
-6.28213e-10
1.09371e-09
-6.95495e-10
4.63602e-10
-7.49616e-10
4.98416e-10
-6.29864e-10
-8.23016e-10
-3.93221e-10
-1.36195e-09
-8.40792e-11
-2.26035e-09
1.29441e-10
-1.76144e-09
2.23856e-10
-1.22022e-09
2.46456e-10
-5.85374e-10
2.2077e-10
-6.73679e-11
1.9318e-10
1.00805e-10
1.54413e-10
3.1709e-10
1.23393e-10
2.87702e-10
9.13212e-11
3.35022e-10
6.61799e-11
2.67379e-10
4.4805e-11
2.36454e-10
2.89132e-11
1.75883e-10
1.75898e-11
1.27898e-10
8.48448e-11
9.96336e-12
-1.90162e-12
1.59083e-11
-8.44565e-12
5.5136e-11
-1.96893e-11
1.03433e-10
-3.99021e-11
1.72275e-10
-6.4267e-11
2.37957e-10
-1.06055e-10
3.57639e-10
-1.51089e-10
4.2888e-10
-2.25943e-10
6.41516e-10
-2.9708e-10
6.53916e-10
-4.21187e-10
1.01388e-09
-5.20536e-10
8.16828e-10
-6.86454e-10
1.25962e-09
-7.66403e-10
5.43568e-10
-8.24088e-10
5.561e-10
-6.91116e-10
-9.55985e-10
-4.06423e-10
-1.64664e-09
-5.87495e-11
-2.60802e-09
1.70666e-10
-1.99084e-09
2.55012e-10
-1.30456e-09
2.64789e-10
-5.95145e-10
2.2856e-10
-3.11254e-11
1.9566e-10
1.33685e-10
1.54509e-10
3.58279e-10
1.2254e-10
3.19622e-10
9.03519e-11
3.67268e-10
6.52636e-11
2.92409e-10
4.41153e-11
2.57653e-10
2.84135e-11
1.91549e-10
1.72693e-11
1.39061e-10
9.2348e-11
9.76471e-12
-2.35389e-12
1.82621e-11
-1.11805e-11
6.39621e-11
-2.5107e-11
1.17362e-10
-4.58485e-11
1.93019e-10
-7.21288e-11
2.6424e-10
-1.11308e-10
3.96828e-10
-1.59173e-10
4.76748e-10
-2.40324e-10
7.22664e-10
-3.15467e-10
7.29064e-10
-4.53844e-10
1.15225e-09
-5.64886e-10
9.2787e-10
-7.52983e-10
1.4477e-09
-8.49185e-10
6.39789e-10
-9.11056e-10
6.17969e-10
-7.60039e-10
-1.107e-09
-4.1982e-10
-1.98685e-09
-2.68923e-11
-3.00095e-09
2.19612e-10
-2.23733e-09
2.90419e-10
-1.37537e-09
2.84584e-10
-5.89304e-10
2.3658e-10
1.68913e-11
1.98012e-10
1.72234e-10
1.54448e-10
4.01881e-10
1.21541e-10
3.52482e-10
8.92715e-11
3.99594e-10
6.42575e-11
3.17367e-10
4.33617e-11
2.78596e-10
2.78694e-11
2.07006e-10
1.69197e-11
1.50029e-10
9.97233e-11
9.54337e-12
-2.5795e-12
2.08417e-11
-9.60256e-12
7.09844e-11
-1.91918e-11
1.26952e-10
-4.64761e-11
2.20303e-10
-7.11351e-11
2.88901e-10
-1.23534e-10
4.49236e-10
-1.72007e-10
5.25224e-10
-2.59809e-10
8.10463e-10
-3.42002e-10
8.11261e-10
-4.89351e-10
1.29959e-09
-6.14852e-10
1.05337e-09
-8.28344e-10
1.66118e-09
-9.45835e-10
7.573e-10
-1.01276e-09
6.84897e-10
-8.39897e-10
-1.27987e-09
-4.32988e-10
-2.39375e-09
1.44474e-11
-3.44838e-09
2.77576e-10
-2.50045e-09
3.30418e-10
-1.42822e-09
3.05683e-10
-5.64564e-10
2.44651e-10
7.79363e-11
2.00133e-10
2.16733e-10
1.54186e-10
4.47863e-10
1.20381e-10
3.86242e-10
8.80753e-11
4.31953e-10
6.31606e-11
3.42229e-10
4.25442e-11
2.99259e-10
2.72812e-11
2.22236e-10
1.65417e-11
1.60785e-10
1.06967e-10
9.297e-12
-2.54462e-12
2.33865e-11
-2.12717e-11
8.97102e-11
-4.34422e-11
1.49124e-10
-6.31641e-11
2.40024e-10
-8.9173e-11
3.14914e-10
-1.24332e-10
4.84408e-10
-1.77151e-10
5.78045e-10
-2.71776e-10
9.05081e-10
-3.60198e-10
8.99686e-10
-5.2417e-10
1.46356e-09
-6.67108e-10
1.19631e-09
-9.13729e-10
1.90779e-09
-1.05801e-09
9.01601e-10
-1.13118e-09
7.58061e-10
-9.32506e-10
-1.47854e-09
-4.45215e-10
-2.88104e-09
6.95525e-11
-3.96315e-09
3.46205e-10
-2.77708e-09
3.75278e-10
-1.45729e-09
3.27829e-10
-5.1711e-10
2.52531e-10
1.53247e-10
2.01895e-10
2.67351e-10
1.5367e-10
4.96122e-10
1.19032e-10
4.20837e-10
8.67506e-11
4.64286e-10
6.19669e-11
3.66962e-10
4.16593e-11
3.19609e-10
2.66469e-11
2.37218e-10
1.61348e-11
1.71312e-10
1.1407e-10
9.03185e-12
-9.59055e-12
3.29759e-11
-1.77789e-11
9.78966e-11
-1.01125e-11
1.41457e-10
-5.58591e-11
2.8577e-10
-7.8075e-11
3.37132e-10
-1.42367e-10
5.48713e-10
-1.94662e-10
6.30339e-10
-2.95677e-10
1.00609e-09
-3.94438e-10
9.98449e-10
-5.66635e-10
1.63575e-09
-7.29728e-10
1.35939e-09
-1.00961e-09
2.18765e-09
-1.18998e-09
1.08199e-09
-1.27047e-09
8.38554e-10
-1.04102e-09
-1.70799e-09
-4.55919e-10
-3.46613e-09
1.37961e-10
-4.55703e-09
4.27466e-10
-3.06657e-09
4.25296e-10
-1.45512e-09
3.50736e-10
-4.42546e-10
2.59982e-10
2.44012e-10
2.03193e-10
3.24123e-10
1.52871e-10
5.46477e-10
1.17493e-10
4.56175e-10
8.53013e-11
4.96525e-10
6.06819e-11
3.91534e-10
4.07117e-11
3.3962e-10
2.59694e-11
2.51931e-10
1.57016e-11
1.81594e-10
1.21014e-10
8.75683e-12
7.46571e-12
2.55119e-11
-4.46597e-11
1.50021e-10
-1.03139e-10
1.99935e-10
-8.88967e-11
2.71527e-10
-1.01363e-10
3.49605e-10
-1.2584e-10
5.73206e-10
-1.86087e-10
6.90585e-10
-3.07943e-10
1.12793e-09
-4.08095e-10
1.0986e-09
-6.04286e-10
1.83193e-09
-7.84272e-10
1.53937e-09
-1.11772e-09
2.52108e-09
-1.34176e-09
1.30605e-09
-1.43148e-09
9.28269e-10
-1.16662e-09
-1.97286e-09
-4.63867e-10
-4.16888e-09
2.23719e-10
-5.24461e-09
5.24031e-10
-3.36687e-09
4.8072e-10
-1.41181e-09
3.7399e-10
-3.35812e-10
2.667e-10
3.51314e-10
2.03893e-10
3.86913e-10
1.51746e-10
5.98655e-10
1.15748e-10
4.92135e-10
8.3723e-11
5.28595e-10
5.93049e-11
4.15907e-10
3.97016e-11
3.59261e-10
2.52494e-11
2.66356e-10
1.52426e-11
1.91614e-10
1.27784e-10
8.47348e-12
-3.71625e-11
6.26703e-11
-8.5758e-11
1.98608e-10
-1.5393e-11
1.29572e-10
-8.91838e-11
3.4531e-10
-1.07475e-10
3.67894e-10
-1.5842e-10
6.24147e-10
-2.23792e-10
7.55947e-10
-3.27784e-10
1.23191e-09
-4.51881e-10
1.22269e-09
-6.53009e-10
2.03305e-09
-8.64909e-10
1.75126e-09
-1.24063e-09
2.89677e-09
-1.52611e-09
1.59156e-09
-1.62391e-09
1.02607e-09
-1.31583e-09
-2.28094e-09
-4.68518e-10
-5.01619e-09
3.30336e-10
-6.04347e-09
6.39944e-10
-3.67647e-09
5.41603e-10
-1.31347e-09
3.96976e-10
-1.91183e-10
2.72289e-10
4.76012e-10
2.03828e-10
4.55359e-10
1.50238e-10
6.52275e-10
1.13776e-10
5.2856e-10
8.20047e-11
5.60409e-10
5.783e-11
4.4004e-10
3.86259e-11
3.78501e-10
2.44851e-11
2.80472e-10
1.47567e-11
2.01354e-10
1.34361e-10
8.17941e-12
-2.76539e-11
9.0318e-11
-7.04793e-11
2.41432e-10
-1.48611e-10
2.07704e-10
-7.56545e-12
2.04254e-10
-9.35771e-12
3.69692e-10
-9.60702e-11
7.10887e-10
-1.59565e-10
8.19424e-10
-3.63682e-10
1.43602e-09
-4.60186e-10
1.3192e-09
-6.87179e-10
2.26003e-09
-9.06457e-10
1.97053e-09
-1.37011e-09
3.36039e-09
-1.73163e-09
1.95311e-09
-1.8406e-09
1.13502e-09
-1.48614e-09
-2.6354e-09
-4.66598e-10
-6.03572e-09
4.64685e-10
-6.97475e-09
7.76196e-10
-3.98796e-09
6.08187e-10
-1.14546e-09
4.19035e-10
-2.02874e-12
2.76366e-10
6.18692e-10
2.02867e-10
5.28843e-10
1.48322e-10
7.06847e-10
1.11579e-10
5.6527e-10
8.0151e-11
5.91876e-10
5.62618e-11
4.63891e-10
3.74885e-11
3.97306e-10
2.36799e-11
2.94258e-10
1.42454e-11
2.108e-10
1.40734e-10
7.87334e-12
-3.48979e-11
1.25219e-10
-2.68971e-10
4.75407e-10
-3.16713e-10
2.54908e-10
-1.77823e-10
6.53445e-11
-1.82818e-10
3.74696e-10
-1.82715e-10
7.10818e-10
-2.90029e-10
9.26728e-10
-3.52875e-10
1.49882e-09
-5.20497e-10
1.48683e-09
-7.39816e-10
2.47932e-09
-1.02117e-09
2.25187e-09
-1.5322e-09
3.87139e-09
-2.00194e-09
2.42289e-09
-2.11478e-09
1.24786e-09
-1.69419e-09
-3.05599e-09
-4.59668e-10
-7.27024e-09
6.29033e-10
-8.06345e-09
9.33087e-10
-4.292e-09
6.79331e-10
-8.9171e-10
4.39033e-10
2.38272e-10
2.78369e-10
7.79366e-10
2.00856e-10
6.06341e-10
1.45965e-10
7.61763e-10
1.09149e-10
6.02055e-10
7.81602e-11
6.22901e-10
5.46e-11
4.87416e-10
3.62897e-11
4.15646e-10
2.28344e-11
3.07693e-10
1.37083e-11
2.19935e-10
1.4689e-10
7.55345e-12
6.3243e-11
6.19968e-11
1.67155e-10
3.715e-10
6.80276e-10
-2.58538e-10
4.96024e-10
2.50302e-10
3.40743e-10
5.29972e-10
2.28945e-10
8.22664e-10
-1.51266e-10
1.30702e-09
-4.47925e-10
1.79552e-09
-5.41407e-10
1.58034e-09
-7.37338e-10
2.67526e-09
-1.00783e-09
2.52234e-09
-1.65737e-09
4.5209e-09
-2.28167e-09
3.04723e-09
-2.4204e-09
1.38658e-09
-1.92615e-09
-3.55024e-09
-4.38788e-10
-8.75761e-09
8.38713e-10
-9.34095e-09
1.12182e-09
-4.57509e-09
7.57976e-10
-5.27867e-10
4.56306e-10
5.39943e-10
2.77766e-10
9.57914e-10
1.97629e-10
6.86465e-10
1.43128e-10
8.16288e-10
1.06473e-10
6.3868e-10
7.60249e-11
6.53382e-10
5.28404e-11
5.10569e-10
3.50269e-11
4.33486e-10
2.19476e-11
3.20753e-10
1.3144e-11
2.28748e-10
1.52819e-10
7.21511e-12
6.48388e-11
-2.84989e-12
3.29241e-10
1.07146e-10
2.60954e-10
-1.88568e-10
-1.84514e-10
6.96035e-10
-5.52773e-10
8.98268e-10
-2.53182e-10
5.23202e-10
8.78298e-11
9.66059e-10
-3.85466e-10
2.26882e-09
-5.61597e-10
1.7565e-09
-8.17929e-10
2.93161e-09
-1.18247e-09
2.8869e-09
-1.89368e-09
5.23205e-09
-2.68689e-09
3.84048e-09
-2.81861e-09
1.51828e-09
-2.2178e-09
-4.15105e-09
-4.10446e-10
-1.0565e-08
1.08942e-09
-1.08408e-08
1.3334e-09
-4.81905e-09
8.3385e-10
-2.83228e-11
4.67237e-10
9.06557e-10
2.73747e-10
1.15141e-09
1.93053e-10
7.67147e-10
1.39807e-10
8.69556e-10
1.03561e-10
6.74901e-10
7.37531e-11
6.83219e-10
5.09891e-11
5.33304e-10
3.37043e-11
4.50794e-10
2.10224e-11
3.33419e-10
1.25569e-11
2.3722e-10
1.5851e-10
6.86676e-12
-7.00251e-11
6.7083e-11
2.40883e-10
-2.04692e-10
5.49114e-10
-4.97811e-10
5.53075e-10
6.93105e-10
1.82799e-10
1.26853e-09
-2.24794e-10
9.3086e-10
-6.78233e-10
1.41951e-09
-1.02366e-09
2.6142e-09
-7.75123e-10
1.50798e-09
-6.79061e-10
2.83553e-09
-1.02012e-09
3.22798e-09
-1.96552e-09
6.17746e-09
-3.05765e-09
4.93264e-09
-3.25663e-09
1.71725e-09
-2.53944e-09
-4.86824e-09
-3.55149e-10
-1.27492e-08
1.41565e-09
-1.26116e-08
1.60085e-09
-5.00423e-09
9.27177e-10
6.45347e-10
4.74938e-10
1.3588e-09
2.65871e-10
1.36049e-09
1.87034e-10
8.45973e-10
1.36006e-10
9.20603e-10
1.00418e-10
7.10466e-10
7.13478e-11
7.12314e-10
4.90482e-11
5.55579e-10
3.23232e-11
4.6754e-10
2.00594e-11
3.45669e-10
1.1944e-11
2.45342e-10
1.63958e-10
6.49745e-12
-1.10778e-10
1.77776e-10
-1.72267e-10
-1.41165e-10
-1.9813e-10
-4.72959e-10
-1.87723e-10
6.79932e-10
4.20297e-10
6.5879e-10
1.79049e-11
1.33323e-09
1.60943e-10
1.27648e-09
3.91567e-10
2.38358e-09
-8.82406e-10
2.78198e-09
-7.50901e-10
2.70399e-09
-1.30115e-09
3.77821e-09
-2.34979e-09
7.22607e-09
-3.67662e-09
6.25956e-09
-3.83424e-09
1.87484e-09
-2.94542e-09
-5.75706e-09
-2.8804e-10
-1.54066e-08
1.79489e-09
-1.46946e-08
1.88212e-09
-5.09143e-09
9.87826e-10
1.53963e-09
4.67032e-10
1.87959e-09
2.5265e-10
1.57488e-09
1.79381e-10
9.19232e-10
1.31708e-10
9.68293e-10
9.7024e-11
7.4513e-10
6.87922e-11
7.40569e-10
4.70058e-11
5.77344e-10
3.08756e-11
4.83687e-10
1.90551e-11
3.57477e-10
1.13116e-11
2.5309e-10
1.69143e-10
6.12761e-12
1.68494e-11
1.60581e-10
-3.89643e-10
2.6583e-10
-2.88123e-10
-5.76487e-10
-1.58409e-10
5.47483e-10
-9.19496e-10
1.41896e-09
-1.60996e-09
2.02386e-09
-1.47644e-09
1.14298e-09
-5.7779e-10
1.4849e-09
-4.88036e-10
2.69223e-09
-4.69224e-10
2.68513e-09
-7.09507e-10
4.01847e-09
-2.30082e-09
8.81734e-09
-4.18365e-09
8.14248e-09
-4.51048e-09
2.20166e-09
-3.41111e-09
-6.85642e-09
-1.70554e-10
-1.86472e-08
2.29913e-09
-1.71643e-08
2.26512e-09
-5.05738e-09
1.09144e-09
2.71331e-09
4.5823e-10
2.5128e-09
2.34656e-10
1.79845e-09
1.70259e-10
9.8362e-10
1.27049e-10
1.01152e-09
9.34882e-11
7.78673e-10
6.61543e-11
7.67921e-10
4.4914e-11
5.98566e-10
2.93975e-11
4.99218e-10
1.80315e-11
3.68834e-10
1.06619e-11
2.60464e-10
1.74073e-10
5.73407e-12
2.35572e-11
1.36659e-10
2.9322e-10
-3.59409e-12
9.43097e-10
-1.22619e-09
1.07248e-09
4.21766e-10
-4.81116e-10
2.97311e-09
-1.51892e-09
3.0618e-09
-1.44643e-09
1.0705e-09
-1.28318e-09
1.32158e-09
-6.13031e-10
2.0221e-09
-8.68874e-10
2.94094e-09
-1.23062e-09
4.38019e-09
-2.94529e-09
1.05319e-08
-5.11806e-09
1.03154e-08
-5.30223e-09
2.38581e-09
-3.94923e-09
-8.20942e-09
-2.12411e-11
-2.25752e-08
2.87632e-09
-2.00618e-08
2.64183e-09
-4.82285e-09
1.12932e-09
4.2258e-09
4.12885e-10
3.22924e-09
2.07741e-10
2.0036e-09
1.59181e-10
1.03217e-09
1.2188e-10
1.04883e-09
8.95911e-11
8.10948e-10
6.32608e-11
7.94266e-10
4.26305e-11
6.19182e-10
2.77887e-11
5.14071e-10
1.69234e-11
3.79691e-10
9.96887e-12
2.67421e-10
1.78708e-10
5.33508e-12
2.56741e-10
-9.64958e-11
4.8739e-10
-2.3108e-10
3.98235e-10
-1.13686e-09
1.41422e-10
6.78834e-10
3.15812e-10
2.80065e-09
5.55315e-10
2.82201e-09
1.50058e-10
1.47576e-09
1.63573e-09
-1.64053e-10
6.04932e-10
3.05288e-09
1.13498e-10
3.43236e-09
3.71266e-10
4.12241e-09
-2.54444e-09
1.34476e-08
-5.84123e-09
1.36123e-08
-6.35674e-09
2.9013e-09
-4.61201e-09
-9.95414e-09
1.6002e-10
-2.73472e-08
3.62665e-09
-2.35285e-08
3.16627e-09
-4.36241e-09
1.24393e-09
6.14812e-09
3.82768e-10
4.0904e-09
1.79718e-10
2.20666e-09
1.47505e-10
1.06438e-09
1.16794e-10
1.07955e-09
8.59312e-11
8.418e-10
6.05537e-11
8.19655e-10
4.05161e-11
6.39209e-10
2.63061e-11
5.28289e-10
1.59042e-11
3.90088e-10
9.32148e-12
2.74006e-10
1.83089e-10
4.94152e-12
3.75883e-10
-3.34737e-10
6.42646e-10
-3.75464e-10
7.88066e-10
-1.30023e-09
1.19101e-09
2.72417e-10
6.70794e-10
3.32146e-09
8.01264e-11
3.41259e-09
-1.40469e-09
2.96064e-09
-1.89941e-09
3.30407e-10
-1.47985e-09
2.63334e-09
-3.4742e-10
2.29992e-09
-1.71585e-09
5.49081e-09
-3.84606e-09
1.55777e-08
-6.87469e-09
1.6641e-08
-7.04714e-09
3.07373e-09
-4.89893e-09
-1.21023e-08
4.88756e-10
-3.27349e-08
4.53776e-09
-2.75775e-08
3.71745e-09
-3.54203e-09
1.23529e-09
8.63026e-09
2.66499e-10
5.0592e-09
1.30376e-10
2.34278e-09
1.33269e-10
1.06148e-09
1.11447e-10
1.10138e-09
8.17329e-11
8.71507e-10
5.73717e-11
8.44024e-10
3.79779e-11
6.58596e-10
2.45103e-11
5.41762e-10
1.46649e-11
3.9993e-10
8.54713e-12
2.80124e-10
1.87148e-10
4.4895e-12
-1.25063e-10
-2.41973e-10
6.35683e-10
-1.12697e-09
5.42094e-10
-1.22279e-09
1.69953e-10
6.46239e-10
4.6029e-10
3.03359e-09
1.7564e-09
2.11648e-09
3.96035e-09
7.56642e-10
3.04521e-09
1.24563e-09
3.56427e-09
2.11428e-09
3.89951e-09
1.96496e-09
4.27341e-10
8.96303e-09
-3.90727e-09
1.61684e-08
-6.6256e-09
8.56462e-09
-6.76223e-09
1.01696e-09
-4.51607e-09
-7.35795e-09
1.46379e-09
-3.55093e-08
5.61483e-09
-3.17286e-08
4.34538e-09
-2.2725e-09
1.32747e-09
1.16482e-08
2.24971e-10
6.16169e-09
1.07986e-10
2.45977e-09
1.30064e-10
1.0394e-09
1.13145e-10
1.1183e-09
8.31623e-11
9.01485e-10
5.8237e-11
8.68952e-10
3.82835e-11
6.78546e-10
2.45806e-11
5.55467e-10
1.45827e-11
4.09927e-10
8.46202e-12
2.86244e-10
1.91276e-10
4.3354e-12
-8.18035e-11
-1.64825e-10
1.21126e-09
-2.13297e-09
2.29097e-10
-3.84355e-11
-3.47743e-09
3.21798e-09
-1.63229e-09
1.19103e-09
2.18379e-09
-8.56203e-10
2.55882e-09
2.89948e-10
3.41976e-09
2.92695e-10
4.32856e-09
6.25685e-10
3.93878e-09
1.19e-09
1.2544e-08
-3.64386e-10
2.02625e-08
4.93288e-10
3.15999e-09
1.0403e-09
-1.29157e-09
-1.96387e-11
-1.69854e-09
-2.53669e-14
5.21771e-09
-1.25987e-08
7.85353e-09
-2.22083e-08
5.1558e-09
4.25324e-10
1.31921e-09
1.54847e-08
1.05957e-10
7.37495e-09
1.18722e-10
2.447e-09
1.9891e-10
9.59207e-10
1.74661e-10
1.14255e-09
1.292e-10
9.46945e-10
9.04695e-11
9.07686e-10
5.98898e-11
7.09125e-10
3.81379e-11
5.7722e-10
2.26687e-11
4.25397e-10
1.29904e-11
2.95923e-10
6.80462e-12
1.97463e-10
6.99137e-12
1.08412e-12
6.72e-12
2.85561e-13
6.00395e-12
6.93779e-13
4.6075e-12
1.42055e-12
3.43821e-12
1.1466e-12
2.8843e-12
5.7318e-13
2.35636e-12
5.13058e-13
1.92418e-12
4.42972e-13
1.49173e-12
4.25637e-13
1.31028e-12
1.85508e-13
1.13948e-12
1.69091e-13
8.31571e-13
3.08422e-13
5.77166e-13
2.54795e-13
4.60183e-13
1.16364e-13
3.51733e-13
1.09185e-13
3.22395e-13
2.87162e-14
2.07996e-13
1.14874e-13
1.6035e-13
4.72915e-14
2.51861e-13
-9.13448e-14
1.82285e-13
6.94303e-14
1.29267e-13
5.29634e-14
1.20515e-13
8.70248e-15
7.90697e-14
4.12546e-14
6.99329e-14
9.09043e-15
8.89879e-14
-1.93158e-14
4.01666e-14
4.87165e-14
-6.57782e-14
1.05667e-13
7.11607e-14
-1.37123e-13
1.5282e-13
-8.19231e-14
1.52579e-13
8.85662e-12
2.74376e-12
8.07307e-12
1.10595e-12
6.41178e-12
2.31226e-12
4.65842e-12
3.21508e-12
3.88107e-12
1.88836e-12
3.20457e-12
1.27811e-12
2.587e-12
1.11016e-12
2.18046e-12
8.63488e-13
1.74149e-12
8.56629e-13
1.54337e-12
3.87879e-13
1.33092e-12
3.8036e-13
8.28923e-13
8.10267e-13
5.96995e-13
4.87819e-13
5.79634e-13
1.32534e-13
4.70699e-13
2.1927e-13
3.73628e-13
1.24861e-13
3.15308e-13
1.73798e-13
2.55866e-13
1.06261e-13
2.30534e-13
-6.59111e-14
2.16864e-13
8.29155e-14
1.79363e-13
9.02269e-14
1.57948e-13
3.00243e-14
1.55979e-13
4.27897e-14
1.63026e-13
1.89655e-15
1.24973e-13
1.82206e-14
1.08261e-13
6.51502e-14
4.79756e-14
1.65433e-13
3.5977e-14
-1.25533e-13
-1.40679e-14
-3.23657e-14
1.38286e-13
1.03016e-11
5.03664e-12
6.43639e-12
5.00794e-12
4.71208e-12
3.99495e-12
4.40291e-12
3.56375e-12
3.88327e-12
2.37416e-12
3.20223e-12
1.98596e-12
2.58617e-12
1.70706e-12
2.28354e-12
1.17908e-12
1.94612e-12
1.18675e-12
1.35717e-12
9.80634e-13
8.7985e-13
8.56719e-13
8.22023e-13
8.67853e-13
7.28809e-13
5.82127e-13
6.18483e-13
2.41707e-13
4.90112e-13
3.48737e-13
3.5633e-13
2.57771e-13
3.63746e-13
1.66945e-13
2.99282e-13
1.70289e-13
1.31399e-13
1.02056e-13
1.49118e-13
6.50331e-14
1.98464e-13
4.06473e-14
1.75513e-13
5.28965e-14
2.14495e-13
3.39335e-15
2.40116e-13
-2.38579e-14
1.225e-13
1.35348e-13
1.20898e-13
6.64912e-14
6.05019e-14
2.25342e-13
-6.77214e-14
2.30413e-15
-1.25625e-13
2.50814e-14
1.24482e-14
9.08054e-12
7.01856e-12
7.0503e-12
7.07437e-12
5.7542e-12
5.25084e-12
4.84584e-12
4.50985e-12
3.97245e-12
3.21548e-12
3.21995e-12
2.76368e-12
2.58461e-12
2.32452e-12
2.15217e-12
1.62352e-12
1.75692e-12
1.57533e-12
1.33139e-12
1.40958e-12
1.01503e-12
1.17231e-12
8.57636e-13
1.02493e-12
7.41358e-13
6.99487e-13
6.57789e-13
3.24166e-13
5.11566e-13
4.95998e-13
4.0427e-13
3.64248e-13
3.52238e-13
2.19498e-13
2.77247e-13
2.44878e-13
2.20452e-13
1.5892e-13
2.01612e-13
8.3726e-14
1.90604e-13
5.14259e-14
1.72966e-13
7.04645e-14
1.6566e-13
1.03006e-14
1.59772e-13
-1.80957e-14
1.29322e-13
1.65334e-13
1.28707e-13
6.68547e-14
6.85676e-14
2.85021e-13
4.2359e-14
2.81433e-14
-3.69418e-14
1.0395e-13
-2.46984e-14
8.82949e-12
8.90543e-12
7.17037e-12
8.76898e-12
5.93771e-12
6.44468e-12
4.89693e-12
5.58669e-12
3.93849e-12
4.14352e-12
3.19503e-12
3.5309e-12
2.57653e-12
2.92631e-12
2.08963e-12
2.12154e-12
1.68532e-12
1.97355e-12
1.34223e-12
1.75574e-12
1.04729e-12
1.46664e-12
8.78047e-13
1.19381e-12
7.95588e-13
7.83009e-13
6.466e-13
4.72089e-13
4.9284e-13
6.50742e-13
4.03546e-13
4.52772e-13
3.35491e-13
2.88036e-13
2.65497e-13
3.145e-13
2.27209e-13
1.97261e-13
2.05194e-13
1.05608e-13
1.83594e-13
7.27977e-14
1.71483e-13
8.25114e-14
1.55459e-13
2.59399e-14
1.35311e-13
1.92989e-15
1.26209e-13
1.73991e-13
1.27629e-13
6.5191e-14
8.04438e-14
3.31765e-13
8.78075e-14
2.04219e-14
-3.17052e-14
2.23048e-13
-5.66021e-14
8.77954e-12
1.07599e-11
7.13262e-12
1.04507e-11
5.87327e-12
7.66655e-12
4.86377e-12
6.63068e-12
3.88598e-12
5.09244e-12
3.16378e-12
4.27551e-12
2.56177e-12
3.51267e-12
2.02286e-12
2.6708e-12
1.62647e-12
2.36436e-12
1.32215e-12
2.06282e-12
1.06561e-12
1.7227e-12
9.31645e-13
1.32736e-12
8.13592e-13
9.02108e-13
6.01702e-13
6.82955e-13
4.74123e-13
7.79255e-13
3.99494e-13
5.26675e-13
3.31287e-13
3.56691e-13
2.80597e-13
3.64844e-13
2.37638e-13
2.4026e-13
2.06245e-13
1.36879e-13
1.81912e-13
9.69034e-14
1.70143e-13
9.42191e-14
1.55727e-13
3.99814e-14
1.31545e-13
2.59907e-14
1.22472e-13
1.82635e-13
1.23202e-13
6.42212e-14
1.01024e-13
3.53518e-13
1.11671e-13
9.42579e-15
-6.90606e-14
4.03381e-13
-1.25856e-13
8.70028e-12
1.25855e-11
7.10885e-12
1.20761e-11
5.79288e-12
8.9463e-12
4.77304e-12
7.68353e-12
3.80921e-12
6.02884e-12
3.13019e-12
4.97566e-12
2.54474e-12
4.08348e-12
1.96273e-12
3.26243e-12
1.57209e-12
2.74989e-12
1.29524e-12
2.34216e-12
1.08962e-12
1.92798e-12
9.49014e-13
1.46752e-12
7.94181e-13
1.05797e-12
5.74999e-13
9.01154e-13
4.65942e-13
8.89198e-13
3.88401e-13
6.03531e-13
3.13831e-13
4.31676e-13
2.75886e-13
4.02466e-13
2.37644e-13
2.78527e-13
1.99209e-13
1.75201e-13
1.70563e-13
1.25324e-13
1.60028e-13
1.04694e-13
1.54649e-13
4.49965e-14
1.39417e-13
4.11015e-14
1.40722e-13
1.80915e-13
1.38903e-13
6.58021e-14
1.33404e-13
3.58607e-13
1.5298e-13
-1.04921e-14
-1.01141e-13
6.57115e-13
-2.27186e-13
8.61685e-12
1.43892e-11
7.04098e-12
1.36851e-11
5.68005e-12
1.02723e-11
4.66978e-12
8.72535e-12
3.73226e-12
6.94034e-12
3.06105e-12
5.66681e-12
2.49665e-12
4.63417e-12
1.98683e-12
3.78118e-12
1.57286e-12
3.15919e-12
1.26824e-12
2.649e-12
1.12651e-12
2.06948e-12
9.49814e-13
1.64374e-12
7.54391e-13
1.25439e-12
5.6782e-13
1.08678e-12
4.76918e-13
9.80941e-13
3.98629e-13
6.81174e-13
3.23493e-13
5.07195e-13
2.84908e-13
4.4075e-13
2.4452e-13
3.18926e-13
2.03984e-13
2.15633e-13
1.72685e-13
1.56396e-13
1.57969e-13
1.19352e-13
1.54633e-13
4.79769e-14
1.43465e-13
5.21492e-14
1.53944e-13
1.70034e-13
1.49009e-13
7.0502e-14
1.1124e-13
3.95979e-13
1.50437e-13
-5.00262e-14
-5.45723e-14
8.61749e-13
-2.81943e-13
8.49452e-12
1.61766e-11
6.95992e-12
1.5252e-11
5.58463e-12
1.1614e-11
4.57839e-12
9.76171e-12
3.66418e-12
7.82989e-12
3.00053e-12
6.34923e-12
2.45101e-12
5.17089e-12
1.98203e-12
4.25845e-12
1.58288e-12
3.55409e-12
1.28073e-12
2.95315e-12
1.09998e-12
2.25011e-12
9.01915e-13
1.84129e-12
7.12773e-13
1.44451e-12
5.55505e-13
1.24315e-12
4.65394e-13
1.07185e-12
3.89146e-13
7.56815e-13
3.15661e-13
5.81032e-13
2.70772e-13
4.85359e-13
2.33309e-13
3.56388e-13
1.96039e-13
2.52806e-13
1.6647e-13
1.8574e-13
1.51721e-13
1.34044e-13
1.51934e-13
4.74174e-14
1.48463e-13
5.54989e-14
1.76976e-13
1.4113e-13
1.6917e-13
7.80751e-14
1.183e-13
4.46465e-13
1.98375e-13
-1.30431e-13
-5.82465e-15
1.06559e-12
-2.87948e-13
8.34941e-12
1.79513e-11
6.85194e-12
1.67809e-11
5.48625e-12
1.29473e-11
4.49038e-12
1.07862e-11
3.60585e-12
8.69111e-12
2.95084e-12
7.02185e-12
2.40641e-12
5.70341e-12
1.9537e-12
4.71881e-12
1.57329e-12
3.93063e-12
1.28237e-12
3.24584e-12
1.06573e-12
2.46672e-12
8.67147e-13
2.03936e-12
6.84937e-13
1.62768e-12
5.52119e-13
1.37511e-12
4.58237e-13
1.16648e-12
3.87655e-13
8.26827e-13
3.24184e-13
6.44825e-13
2.77038e-13
5.32245e-13
2.40474e-13
3.9294e-13
2.03471e-13
2.89719e-13
1.74616e-13
2.14371e-13
1.56212e-13
1.5239e-13
1.49866e-13
5.34257e-14
1.48064e-13
5.71798e-14
1.6424e-13
1.24577e-13
1.53807e-13
8.82773e-14
9.45411e-14
5.0536e-13
1.32381e-13
-1.68594e-13
-5.04482e-14
1.24806e-12
-3.38572e-13
8.18342e-12
1.97135e-11
6.72311e-12