/*--------------------------------*- C++ -*----------------------------------*\
| =========                 |                                                 |
| \\      /  F ield         | OpenFOAM: The Open Source CFD Toolbox           |
|  \\    /   O peration     | Version:  2.4.0                                 |
|   \\  /    A nd           | Web:      www.OpenFOAM.org                      |
|    \\/     M anipulation  |                                                 |
\*---------------------------------------------------------------------------*/
FoamFile
{
    version     2.0;
    format      ascii;
    class       surfaceScalarField;
    location    "0.214";
    object      phi;
}
// * * * * * * * * * * * * * * * * * * * * * * * * * * * * * * * * * * * * * //

dimensions      [0 3 -1 0 0 0 0];

internalField   nonuniform List<scalar> 
119500
(
-4.15566e-10
4.15566e-10
-9.23456e-10
5.0789e-10
-1.4477e-09
5.24239e-10
-1.97653e-09
5.28829e-10
-2.50944e-09
5.32909e-10
-3.04705e-09
5.37616e-10
-3.5902e-09
5.43147e-10
-4.13971e-09
5.49506e-10
-4.69637e-09
5.56659e-10
-5.26093e-09
5.64561e-10
-5.83409e-09
5.73158e-10
-6.41647e-09
5.82381e-10
-7.00863e-09
5.92167e-10
-7.61108e-09
6.02447e-10
-8.22423e-09
6.13149e-10
-8.84843e-09
6.242e-10
-9.48395e-09
6.35525e-10
-1.0131e-08
6.47044e-10
-1.07897e-08
6.58673e-10
-1.146e-08
6.70325e-10
-1.21419e-08
6.81909e-10
-1.28352e-08
6.93328e-10
-1.35397e-08
7.0448e-10
-1.4255e-08
7.15255e-10
-1.49805e-08
7.25532e-10
-1.57157e-08
7.35188e-10
-1.64598e-08
7.44089e-10
-1.72119e-08
7.52096e-10
-1.79709e-08
7.59054e-10
-1.87357e-08
7.64799e-10
-1.95049e-08
7.69155e-10
-2.02768e-08
7.71944e-10
-2.10498e-08
7.72973e-10
-2.18218e-08
7.72041e-10
-2.25908e-08
7.68942e-10
-2.33542e-08
7.63465e-10
-2.41096e-08
7.55392e-10
-2.48541e-08
7.44498e-10
-2.55847e-08
7.3056e-10
-2.6298e-08
7.13352e-10
-2.69907e-08
6.92644e-10
-2.76589e-08
6.68201e-10
-2.82987e-08
6.3979e-10
-2.89058e-08
6.07172e-10
-2.9476e-08
5.70112e-10
-3.00043e-08
5.28369e-10
-3.0486e-08
4.81705e-10
-3.09159e-08
4.29886e-10
-3.12886e-08
3.72684e-10
-3.15985e-08
3.09885e-10
-3.18398e-08
2.41284e-10
-3.20065e-08
1.66699e-10
-3.20925e-08
8.59827e-11
-3.2094e-08
1.59814e-12
-3.20014e-08
-9.26284e-11
-3.18095e-08
-1.91917e-10
-3.15128e-08
-2.96712e-10
-3.11055e-08
-4.07264e-10
-3.05821e-08
-5.23405e-10
-2.99372e-08
-6.44879e-10
-2.91658e-08
-7.71404e-10
-2.82626e-08
-9.03266e-10
-2.72239e-08
-1.03869e-09
-2.60471e-08
-1.17682e-09
-2.4729e-08
-1.3181e-09
-2.32674e-08
-1.4616e-09
-2.16611e-08
-1.60629e-09
-1.991e-08
-1.75106e-09
-1.80156e-08
-1.89446e-09
-1.59794e-08
-2.03613e-09
-1.38051e-08
-2.17433e-09
-1.14978e-08
-2.30729e-09
-9.06426e-09
-2.43355e-09
-6.51291e-09
-2.55136e-09
-3.85455e-09
-2.65836e-09
-1.10196e-09
-2.75259e-09
1.72961e-09
-2.83157e-09
4.62213e-09
-2.89252e-09
7.55464e-09
-2.93251e-09
1.05027e-08
-2.9481e-09
1.34393e-08
-2.93652e-09
1.6334e-08
-2.89472e-09
1.91551e-08
-2.82115e-09
2.18591e-08
-2.70396e-09
2.44029e-08
-2.54377e-09
2.67454e-08
-2.34256e-09
2.88319e-08
-2.08644e-09
3.05998e-08
-1.76797e-09
3.19688e-08
-1.36891e-09
3.28385e-08
-8.69718e-10
3.30971e-08
-2.58653e-10
3.26684e-08
4.28754e-10
3.15369e-08
1.13147e-09
2.96992e-08
1.83767e-09
2.71723e-08
2.52692e-09
2.40232e-08
3.14911e-09
2.03662e-08
3.65699e-09
1.63875e-08
3.97871e-09
1.22566e-08
4.13087e-09
4.17408e-09
8.08255e-09
-7.03507e-10
1.11907e-09
-1.57646e-09
1.38084e-09
-2.46609e-09
1.41386e-09
-3.36194e-09
1.42468e-09
-4.26521e-09
1.43617e-09
-5.17769e-09
1.45009e-09
-6.1012e-09
1.46667e-09
-7.03757e-09
1.48587e-09
-7.98856e-09
1.50764e-09
-8.95589e-09
1.5319e-09
-9.94125e-09
1.55852e-09
-1.09463e-08
1.58739e-09
-1.19725e-08
1.61839e-09
-1.30214e-08
1.6514e-09
-1.40946e-08
1.68627e-09
-1.51932e-08
1.72288e-09
-1.63188e-08
1.76106e-09
-1.74724e-08
1.80068e-09
-1.86553e-08
1.84157e-09
-1.98685e-08
1.88356e-09
-2.11131e-08
1.92648e-09
-2.23899e-08
1.97014e-09
-2.36998e-08
2.01433e-09
-2.50434e-08
2.05884e-09
-2.64213e-08
2.10343e-09
-2.78339e-08
2.14785e-09
-2.92817e-08
2.19182e-09
-3.07646e-08
2.23505e-09
-3.22828e-08
2.27723e-09
-3.3836e-08
2.318e-09
-3.54238e-08
2.357e-09
-3.70457e-08
2.39384e-09
-3.87008e-08
2.4281e-09
-4.03881e-08
2.45935e-09
-4.21063e-08
2.48714e-09
-4.38539e-08
2.51099e-09
-4.56289e-08
2.5304e-09
-4.74293e-08
2.54488e-09
-4.92526e-08
2.55391e-09
-5.10962e-08
2.55696e-09
-5.29571e-08
2.55349e-09
-5.48318e-08
2.54294e-09
-5.67168e-08
2.52476e-09
-5.86079e-08
2.49836e-09
-6.0501e-08
2.46315e-09
-6.23912e-08
2.41854e-09
-6.42734e-08
2.36392e-09
-6.61422e-08
2.29868e-09
-6.79917e-08
2.22222e-09
-6.98158e-08
2.13394e-09
-7.16078e-08
2.03332e-09
-7.33609e-08
1.91985e-09
-7.50682e-08
1.7932e-09
-7.67203e-08
1.65378e-09
-7.83116e-08
1.49864e-09
-7.98334e-08
1.32984e-09
-8.12773e-08
1.1472e-09
-8.26351e-08
9.50549e-10
-8.38986e-08
7.40093e-10
-8.50597e-08
5.16208e-10
-8.61105e-08
2.79418e-10
-8.70419e-08
2.81712e-11
-8.78468e-08
-2.33831e-10
-8.85197e-08
-5.03977e-10
-8.90539e-08
-7.8386e-10
-8.9444e-08
-1.07145e-09
-8.96858e-08
-1.36454e-09
-8.9776e-08
-1.66084e-09
-8.97135e-08
-1.95694e-09
-8.94972e-08
-2.25248e-09
-8.91283e-08
-2.54324e-09
-8.86102e-08
-2.82532e-09
-8.79483e-08
-3.09546e-09
-8.71499e-08
-3.34983e-09
-8.62253e-08
-3.5829e-09
-8.51874e-08
-3.79055e-09
-8.40519e-08
-3.96704e-09
-8.28377e-08
-4.10672e-09
-8.15672e-08
-4.20302e-09
-8.02665e-08
-4.24877e-09
-7.89659e-08
-4.23713e-09
-7.76995e-08
-4.16115e-09
-7.65073e-08
-4.01336e-09
-7.5429e-08
-3.78226e-09
-7.45095e-08
-3.46325e-09
-7.38005e-08
-3.05152e-09
-7.33521e-08
-2.53488e-09
-7.3221e-08
-1.89905e-09
-7.34591e-08
-1.1308e-09
-7.41244e-08
-2.04417e-10
-7.52547e-08
8.71632e-10
-7.69124e-08
2.08641e-09
-7.91707e-08
3.38978e-09
-8.20316e-08
4.69862e-09
-8.542e-08
5.91528e-09
-8.91843e-08
6.91342e-09
-9.30784e-08
7.55109e-09
-9.68217e-08
7.72199e-09
-1.00164e-07
7.47314e-09
7.05215e-09
-1.03042e-07
-7.88148e-10
1.90722e-09
-1.76452e-09
2.35722e-09
-2.758e-09
2.40734e-09
-3.75828e-09
2.42497e-09
-4.76716e-09
2.44505e-09
-5.7869e-09
2.46983e-09
-6.81972e-09
2.49949e-09
-7.86784e-09
2.53398e-09
-8.93339e-09
2.57319e-09
-1.00185e-08
2.617e-09
-1.11252e-08
2.66525e-09
-1.22556e-08
2.71778e-09
-1.34117e-08
2.77444e-09
-1.45953e-08
2.83505e-09
-1.58085e-08
2.89942e-09
-1.70529e-08
2.96737e-09
-1.83306e-08
3.0387e-09
-1.96431e-08
3.1132e-09
-2.09922e-08
3.19067e-09
-2.23795e-08
3.27088e-09
-2.38066e-08
3.35358e-09
-2.5275e-08
3.43852e-09
-2.67861e-08
3.52543e-09
-2.83413e-08
3.61401e-09
-2.99418e-08
3.70394e-09
-3.15888e-08
3.79486e-09
-3.32834e-08
3.88641e-09
-3.50265e-08
3.97816e-09
-3.68189e-08
4.06966e-09
-3.86613e-08
4.16044e-09
-4.05543e-08
4.24997e-09
-4.24982e-08
4.33769e-09
-4.44931e-08
4.423e-09
-4.6539e-08
4.50527e-09
-4.86357e-08
4.58384e-09
-5.07827e-08
4.65802e-09
-5.29794e-08
4.72708e-09
-5.52248e-08
4.79029e-09
-5.75178e-08
4.84688e-09
-5.98569e-08
4.89606e-09
-6.22404e-08
4.93702e-09
-6.46664e-08
4.96893e-09
-6.71326e-08
4.99093e-09
-6.96363e-08
5.00213e-09
-7.21748e-08
5.00163e-09
-7.47448e-08
4.98849e-09
-7.73426e-08
4.96174e-09
-7.99643e-08
4.92041e-09
-8.26056e-08
4.86352e-09
-8.52618e-08
4.7901e-09
-8.79277e-08
4.69923e-09
-9.05979e-08
4.59005e-09
-9.32666e-08
4.46186e-09
-9.59269e-08
4.31417e-09
-9.85735e-08
4.14523e-09
-1.01199e-07
3.95555e-09
-1.03797e-07
3.74494e-09
-1.0636e-07
3.51316e-09
-1.0888e-07
3.2603e-09
-1.1135e-07
2.98663e-09
-1.13763e-07
2.69257e-09
-1.16113e-07
2.37814e-09
-1.18393e-07
2.04598e-09
-1.20595e-07
1.69795e-09
-1.22713e-07
1.33431e-09
-1.24742e-07
9.57182e-10
-1.26676e-07
5.69117e-10
-1.28509e-07
1.72975e-10
-1.30241e-07
-2.25697e-10
-1.31865e-07
-6.28544e-10
-1.33379e-07
-1.02885e-09
-1.34784e-07
-1.42034e-09
-1.3608e-07
-1.79966e-09
-1.37268e-07
-2.16187e-09
-1.38352e-07
-2.49863e-09
-1.39337e-07
-2.80534e-09
-1.4023e-07
-3.07375e-09
-1.4104e-07
-3.29688e-09
-1.41778e-07
-3.46548e-09
-1.42457e-07
-3.56967e-09
-1.43094e-07
-3.60047e-09
-1.43707e-07
-3.54772e-09
-1.4432e-07
-3.40007e-09
-1.44959e-07
-3.144e-09
-1.45652e-07
-2.7695e-09
-1.46438e-07
-2.26561e-09
-1.47354e-07
-1.61884e-09
-1.48443e-07
-8.10191e-10
-1.4974e-07
1.65948e-10
-1.51259e-07
1.31489e-09
-1.53018e-07
2.63085e-09
-1.54987e-07
4.05549e-09
-1.57091e-07
5.49362e-09
-1.5921e-07
6.8173e-09
-1.61179e-07
7.88397e-09
-1.62803e-07
8.53731e-09
-1.63877e-07
8.62584e-09
-1.64248e-07
8.09263e-09
-1.6391e-07
7.13475e-09
6.17612e-09
-1.63034e-07
-8.08804e-10
2.71602e-09
-1.80775e-09
3.35616e-09
-2.82465e-09
3.42424e-09
-3.84871e-09
3.44902e-09
-4.88169e-09
3.47803e-09
-5.926e-09
3.51414e-09
-6.98397e-09
3.55747e-09
-8.05792e-09
3.60793e-09
-9.15011e-09
3.66538e-09
-1.02628e-08
3.72966e-09
-1.13981e-08
3.80057e-09
-1.25582e-08
3.87793e-09
-1.37453e-08
3.96153e-09
-1.49614e-08
4.05115e-09
-1.62086e-08
4.14657e-09
-1.74888e-08
4.24757e-09
-1.8804e-08
4.35389e-09
-2.01561e-08
4.4653e-09
-2.15469e-08
4.58154e-09
-2.29784e-08
4.70233e-09
-2.44522e-08
4.82738e-09
-2.59701e-08
4.95639e-09
-2.75336e-08
5.08902e-09
-2.91445e-08
5.2249e-09
-3.08043e-08
5.36366e-09
-3.25143e-08
5.50486e-09
-3.42759e-08
5.64804e-09
-3.60904e-08
5.79267e-09
-3.7959e-08
5.93822e-09
-3.98826e-08
6.08406e-09
-4.18622e-08
6.22956e-09
-4.38985e-08
6.374e-09
-4.59921e-08
6.51663e-09
-4.81435e-08
6.65665e-09
-5.03529e-08
6.79324e-09
-5.26204e-08
6.9255e-09
-5.49458e-08
7.05252e-09
-5.73288e-08
7.17335e-09
-5.9769e-08
7.28702e-09
-6.22655e-08
7.39253e-09
-6.48173e-08
7.48882e-09
-6.74232e-08
7.57484e-09
-7.00817e-08
7.64948e-09
-7.27912e-08
7.71158e-09
-7.55495e-08
7.75997e-09
-7.83544e-08
7.79341e-09
-8.12033e-08
7.81061e-09
-8.40932e-08
7.81028e-09
-8.70207e-08
7.79108e-09
-8.99823e-08
7.75169e-09
-9.29739e-08
7.69084e-09
-9.59912e-08
7.6073e-09
-9.90293e-08
7.49997e-09
-1.02083e-07
7.36787e-09
-1.05147e-07
7.20955e-09
-1.08216e-07
7.02471e-09
-1.11284e-07
6.8129e-09
-1.14345e-07
6.57374e-09
-1.17392e-07
6.30713e-09
-1.20418e-07
6.01318e-09
-1.23418e-07
5.69226e-09
-1.26385e-07
5.3448e-09
-1.29311e-07
4.97272e-09
-1.32191e-07
4.57775e-09
-1.35018e-07
4.161e-09
-1.37785e-07
3.72467e-09
-1.40488e-07
3.27154e-09
-1.4312e-07
2.80494e-09
-1.45675e-07
2.32942e-09
-1.4815e-07
1.84667e-09
-1.50541e-07
1.36216e-09
-1.52843e-07
8.81696e-10
-1.55053e-07
4.10454e-10
-1.57166e-07
-4.89522e-11
-1.59181e-07
-4.83622e-10
-1.61095e-07
-8.91266e-10
-1.62908e-07
-1.2611e-09
-1.6462e-07
-1.58516e-09
-1.66233e-07
-1.8521e-09
-1.67753e-07
-2.04974e-09
-1.69186e-07
-2.16732e-09
-1.70544e-07
-2.18984e-09
-1.71843e-07
-2.10152e-09
-1.73103e-07
-1.88312e-09
-1.74355e-07
-1.51813e-09
-1.7563e-07
-9.90274e-10
-1.76964e-07
-2.85165e-10
-1.78384e-07
6.09591e-10
-1.79902e-07
1.68437e-09
-1.81501e-07
2.91336e-09
-1.83119e-07
4.24931e-09
-1.84666e-07
5.60251e-09
-1.8602e-07
6.8478e-09
-1.87038e-07
7.835e-09
-1.87562e-07
8.40761e-09
-1.87439e-07
8.41513e-09
-1.86552e-07
7.73817e-09
-1.8486e-07
6.40085e-09
-1.82478e-07
4.75269e-09
3.38619e-09
-1.79688e-07
-8.12375e-10
3.5284e-09
-1.81363e-09
4.35741e-09
-2.83338e-09
4.44399e-09
-3.86053e-09
4.47617e-09
-4.89671e-09
4.51422e-09
-5.94434e-09
4.56176e-09
-7.00579e-09
4.61891e-09
-8.08337e-09
4.68552e-09
-9.1794e-09
4.76141e-09
-1.02961e-08
4.84638e-09
-1.14358e-08
4.94022e-09
-1.26005e-08
5.04269e-09
-1.37925e-08
5.15353e-09
-1.50139e-08
5.27251e-09
-1.62667e-08
5.39936e-09
-1.75529e-08
5.53381e-09
-1.88746e-08
5.67557e-09
-2.02337e-08
5.82436e-09
-2.1632e-08
5.97989e-09
-2.30715e-08
6.14183e-09
-2.4554e-08
6.30985e-09
-2.60812e-08
6.48359e-09
-2.76548e-08
6.66266e-09
-2.92766e-08
6.84665e-09
-3.0948e-08
7.03509e-09
-3.26706e-08
7.2275e-09
-3.44459e-08
7.42331e-09
-3.62751e-08
7.62193e-09
-3.81596e-08
7.8227e-09
-4.01005e-08
8.0249e-09
-4.20987e-08
8.22776e-09
-4.41551e-08
8.43043e-09
-4.62705e-08
8.63201e-09
-4.84454e-08
8.83156e-09
-5.06802e-08
9.02806e-09
-5.29752e-08
9.22047e-09
-5.53303e-08
9.40767e-09
-5.77455e-08
9.58853e-09
-6.02204e-08
9.76187e-09
-6.27543e-08
9.9265e-09
-6.53467e-08
1.00811e-08
-6.79964e-08
1.02245e-08
-7.07022e-08
1.03553e-08
-7.34628e-08
1.04721e-08
-7.62763e-08
1.05735e-08
-7.91408e-08
1.06579e-08
-8.20541e-08
1.07238e-08
-8.50134e-08
1.07696e-08
-8.80159e-08
1.07936e-08
-9.10583e-08
1.07941e-08
-9.41369e-08
1.07695e-08
-9.72478e-08
1.07182e-08
-1.00387e-07
1.06388e-08
-1.03549e-07
1.05299e-08
-1.06729e-07
1.03899e-08
-1.09922e-07
1.02181e-08
-1.13123e-07
1.00138e-08
-1.16326e-07
9.7762e-09
-1.19524e-07
9.50513e-09
-1.22711e-07
9.2005e-09
-1.25881e-07
8.86252e-09
-1.29028e-07
8.49172e-09
-1.32145e-07
8.08955e-09
-1.35225e-07
7.65759e-09
-1.38261e-07
7.1973e-09
-1.41247e-07
6.7109e-09
-1.44177e-07
6.20119e-09
-1.47044e-07
5.6716e-09
-1.4984e-07
5.12618e-09
-1.52562e-07
4.56803e-09
-1.55202e-07
4.00224e-09
-1.57755e-07
3.4344e-09
-1.60214e-07
2.86994e-09
-1.62577e-07
2.31387e-09
-1.64836e-07
1.77591e-09
-1.6699e-07
1.2621e-09
-1.69034e-07
7.82727e-10
-1.70967e-07
3.48441e-10
-1.72792e-07
-2.78034e-11
-1.74511e-07
-3.30777e-10
-1.7613e-07
-5.47746e-10
-1.77662e-07
-6.57675e-10
-1.79124e-07
-6.39841e-10
-1.80537e-07
-4.6978e-10
-1.8193e-07
-1.25379e-10
-1.83331e-07
4.10209e-10
-1.84763e-07
1.14706e-09
-1.86234e-07
2.08049e-09
-1.87732e-07
3.18278e-09
-1.89221e-07
4.40186e-09
-1.9063e-07
5.65849e-09
-1.91868e-07
6.84043e-09
-1.92826e-07
7.80611e-09
-1.93384e-07
8.39264e-09
-1.9341e-07
8.43402e-09
-1.92776e-07
7.78159e-09
-1.91373e-07
6.33438e-09
-1.89143e-07
4.17103e-09
-1.86172e-07
1.78158e-09
-1.68869e-11
-1.82769e-07
-8.11768e-10
4.34016e-09
-1.81087e-09
5.35651e-09
-2.82881e-09
5.46193e-09
-3.85429e-09
5.50165e-09
-4.88888e-09
5.54881e-09
-5.93496e-09
5.60785e-09
-6.99492e-09
5.67886e-09
-8.07108e-09
5.76168e-09
-9.16576e-09
5.85609e-09
-1.02812e-08
5.96184e-09
-1.14197e-08
6.07869e-09
-1.25833e-08
6.20635e-09
-1.37744e-08
6.34455e-09
-1.49948e-08
6.493e-09
-1.62469e-08
6.65138e-09
-1.75325e-08
6.81939e-09
-1.88536e-08
6.99672e-09
-2.02123e-08
7.18303e-09
-2.16104e-08
7.37799e-09
-2.30498e-08
7.58123e-09
-2.45323e-08
7.79238e-09
-2.60597e-08
8.01103e-09
-2.76338e-08
8.23673e-09
-2.92562e-08
8.46903e-09
-3.09285e-08
8.70738e-09
-3.26522e-08
8.95124e-09
-3.44289e-08
9.19996e-09
-3.62598e-08
9.45285e-09
-3.81463e-08
9.70916e-09
-4.00894e-08
9.96806e-09
-4.20903e-08
1.02286e-08
-4.41498e-08
1.04899e-08
-4.62687e-08
1.07509e-08
-4.84476e-08
1.10104e-08
-5.06868e-08
1.12673e-08
-5.29867e-08
1.15204e-08
-5.53474e-08
1.17683e-08
-5.77686e-08
1.20097e-08
-6.025e-08
1.22433e-08
-6.27912e-08
1.24677e-08
-6.53915e-08
1.26814e-08
-6.80497e-08
1.28828e-08
-7.07649e-08
1.30705e-08
-7.35356e-08
1.32428e-08
-7.63601e-08
1.3398e-08
-7.92365e-08
1.35343e-08
-8.21625e-08
1.36499e-08
-8.51356e-08
1.37427e-08
-8.81529e-08
1.38109e-08
-9.12111e-08
1.38523e-08
-9.43067e-08
1.3865e-08
-9.74357e-08
1.38472e-08
-1.00594e-07
1.37968e-08
-1.03776e-07
1.37122e-08
-1.06978e-07
1.35917e-08
-1.10194e-07
1.3434e-08
-1.13418e-07
1.3238e-08
-1.16645e-07
1.3003e-08
-1.19868e-07
1.27283e-08
-1.23081e-07
1.24137e-08
-1.26278e-07
1.20593e-08
-1.29451e-07
1.16654e-08
-1.32595e-07
1.12332e-08
-1.35702e-07
1.07641e-08
-1.38764e-07
1.02598e-08
-1.41775e-07
9.72234e-09
-1.44729e-07
9.15468e-09
-1.47618e-07
8.56022e-09
-1.50434e-07
7.94291e-09
-1.53173e-07
7.30661e-09
-1.55827e-07
6.65643e-09
-1.58391e-07
5.99807e-09
-1.60858e-07
5.33751e-09
-1.63226e-07
4.6811e-09
-1.65487e-07
4.03784e-09
-1.67642e-07
3.4163e-09
-1.69687e-07
2.82797e-09
-1.71625e-07
2.28607e-09
-1.73458e-07
1.80595e-09
-1.75194e-07
1.40463e-09
-1.76841e-07
1.09942e-09
-1.78412e-07
9.13354e-10
-1.79924e-07
8.72276e-10
-1.81398e-07
1.0043e-09
-1.82857e-07
1.33391e-09
-1.84323e-07
1.87628e-09
-1.8581e-07
2.63312e-09
-1.87315e-07
3.58626e-09
-1.88824e-07
4.69117e-09
-1.90297e-07
5.8747e-09
-1.91674e-07
7.0355e-09
-1.92877e-07
8.04422e-09
-1.93817e-07
8.74547e-09
-1.94384e-07
8.96036e-09
-1.94454e-07
8.50335e-09
-1.93883e-07
7.21063e-09
-1.92522e-07
4.97322e-09
-1.90239e-07
1.88807e-09
-1.87041e-07
-1.41569e-09
-3.79479e-09
-1.83263e-07
-8.09869e-10
5.15003e-09
-1.80572e-09
6.35236e-09
-2.82058e-09
6.47679e-09
-3.84307e-09
6.52413e-09
-4.87474e-09
6.58047e-09
-5.91795e-09
6.65106e-09
-6.97508e-09
6.73599e-09
-8.04847e-09
6.83508e-09
-9.14044e-09
6.94806e-09
-1.02533e-08
7.07466e-09
-1.13892e-08
7.21459e-09
-1.25503e-08
7.36753e-09
-1.37389e-08
7.53316e-09
-1.49571e-08
7.71114e-09
-1.62068e-08
7.90114e-09
-1.74902e-08
8.1028e-09
-1.88093e-08
8.31578e-09
-2.0166e-08
8.53969e-09
-2.15621e-08
8.77417e-09
-2.29997e-08
9.01881e-09
-2.44805e-08
9.27319e-09
-2.60064e-08
9.53686e-09
-2.7579e-08
9.80932e-09
-2.92e-08
1.009e-08
-3.08711e-08
1.03785e-08
-3.25938e-08
1.06739e-08
-3.43695e-08
1.09757e-08
-3.61997e-08
1.12831e-08
-3.80857e-08
1.15951e-08
-4.00286e-08
1.19109e-08
-4.20294e-08
1.22295e-08
-4.40891e-08
1.25496e-08
-4.62085e-08
1.28702e-08
-4.83881e-08
1.319e-08
-5.06283e-08
1.35076e-08
-5.29295e-08
1.38216e-08
-5.52918e-08
1.41305e-08
-5.77149e-08
1.44328e-08
-6.01986e-08
1.4727e-08
-6.27423e-08
1.50114e-08
-6.53453e-08
1.52844e-08
-6.80067e-08
1.55442e-08
-7.07254e-08
1.57891e-08
-7.34998e-08
1.60172e-08
-7.63284e-08
1.62266e-08
-7.92091e-08
1.64151e-08
-8.21398e-08
1.65806e-08
-8.51178e-08
1.67208e-08
-8.81403e-08
1.68333e-08
-9.1204e-08
1.69159e-08
-9.43051e-08
1.69662e-08
-9.74397e-08
1.69817e-08
-1.00603e-07
1.69604e-08
-1.03791e-07
1.69e-08
-1.06998e-07
1.67986e-08
-1.10219e-07
1.66546e-08
-1.13447e-07
1.64665e-08
-1.16677e-07
1.62332e-08
-1.19903e-07
1.5954e-08
-1.23117e-07
1.56282e-08
-1.26314e-07
1.52557e-08
-1.29485e-07
1.48369e-08
-1.32625e-07
1.43725e-08
-1.35725e-07
1.3864e-08
-1.38778e-07
1.33128e-08
-1.41777e-07
1.27212e-08
-1.44714e-07
1.20922e-08
-1.47583e-07
1.14291e-08
-1.50376e-07
1.07361e-08
-1.53087e-07
1.00176e-08
-1.5571e-07
9.27915e-09
-1.58239e-07
8.52686e-09
-1.60669e-07
7.76752e-09
-1.62996e-07
7.00879e-09
-1.65219e-07
6.26027e-09
-1.67335e-07
5.53267e-09
-1.69347e-07
4.83937e-09
-1.71257e-07
4.19606e-09
-1.73071e-07
3.62038e-09
-1.74798e-07
3.13116e-09
-1.76447e-07
2.74845e-09
-1.7803e-07
2.49707e-09
-1.79564e-07
2.40602e-09
-1.81066e-07
2.50606e-09
-1.82555e-07
2.82311e-09
-1.84049e-07
3.37067e-09
-1.8556e-07
4.14383e-09
-1.87088e-07
5.11394e-09
-1.88619e-07
6.22217e-09
-1.90122e-07
7.37763e-09
-1.91546e-07
8.46028e-09
-1.92827e-07
9.32432e-09
-1.9388e-07
9.79929e-09
-1.94606e-07
9.68585e-09
-1.94871e-07
8.76835e-09
-1.94509e-07
6.84919e-09
-1.93317e-07
3.7803e-09
-1.91056e-07
-3.72573e-10
-1.8762e-07
-4.85151e-09
-8.05193e-09
-1.83363e-07
-8.07254e-10
5.95729e-09
-1.79928e-09
7.34439e-09
-2.81037e-09
7.48788e-09
-3.82917e-09
7.54293e-09
-4.8572e-09
7.60851e-09
-5.89684e-09
7.69069e-09
-6.95045e-09
7.78961e-09
-8.02039e-09
7.90502e-09
-9.10898e-09
8.03664e-09
-1.02185e-08
8.18417e-09
-1.13512e-08
8.34725e-09
-1.25092e-08
8.52555e-09
-1.36947e-08
8.71869e-09
-1.49099e-08
8.9263e-09
-1.61567e-08
9.148e-09
-1.74373e-08
9.3834e-09
-1.87537e-08
9.63212e-09
-2.01077e-08
9.89373e-09
-2.15014e-08
1.01678e-08
-2.29365e-08
1.0454e-08
-2.4415e-08
1.07517e-08
-2.59387e-08
1.10605e-08
-2.75092e-08
1.13798e-08
-2.91283e-08
1.17092e-08
-3.07976e-08
1.20478e-08
-3.25187e-08
1.2395e-08
-3.42931e-08
1.27501e-08
-3.61221e-08
1.31121e-08
-3.80071e-08
1.34801e-08
-3.99492e-08
1.38531e-08
-4.19496e-08
1.42299e-08
-4.40092e-08
1.46092e-08
-4.61287e-08
1.49897e-08
-4.83087e-08
1.53701e-08
-5.05498e-08
1.57487e-08
-5.28521e-08
1.61239e-08
-5.52158e-08
1.64942e-08
-5.76408e-08
1.68578e-08
-6.01267e-08
1.72129e-08
-6.2673e-08
1.75577e-08
-6.5279e-08
1.78904e-08
-6.79437e-08
1.8209e-08
-7.06661e-08
1.85115e-08
-7.34447e-08
1.87958e-08
-7.62779e-08
1.90597e-08
-7.91636e-08
1.93008e-08
-8.20998e-08
1.95167e-08
-8.50837e-08
1.97047e-08
-8.81125e-08
1.98622e-08
-9.11829e-08
1.99863e-08
-9.42911e-08
2.00744e-08
-9.74331e-08
2.01237e-08
-1.00604e-07
2.01316e-08
-1.038e-07
2.00955e-08
-1.07014e-07
2.00133e-08
-1.10243e-07
1.98828e-08
-1.13478e-07
1.97023e-08
-1.16715e-07
1.94704e-08
-1.19947e-07
1.91859e-08
-1.23167e-07
1.88481e-08
-1.26368e-07
1.84566e-08
-1.29543e-07
1.80115e-08
-1.32684e-07
1.75135e-08
-1.35783e-07
1.69637e-08
-1.38834e-07
1.63636e-08
-1.41829e-07
1.57155e-08
-1.44759e-07
1.50224e-08
-1.47618e-07
1.42879e-08
-1.50398e-07
1.35163e-08
-1.53093e-07
1.27126e-08
-1.55697e-07
1.18829e-08
-1.58204e-07
1.1034e-08
-1.6061e-07
1.01737e-08
-1.62912e-07
9.31094e-09
-1.65108e-07
8.4566e-09
-1.67199e-07
7.62333e-09
-1.69186e-07
6.82658e-09
-1.71074e-07
6.08429e-09
-1.7287e-07
5.41605e-09
-1.74581e-07
4.84218e-09
-1.76217e-07
4.38447e-09
-1.77789e-07
4.06927e-09
-1.79311e-07
3.92812e-09
-1.808e-07
3.99465e-09
-1.82274e-07
4.29683e-09
-1.83751e-07
4.84797e-09
-1.85247e-07
5.63944e-09
-1.86767e-07
6.63411e-09
-1.88305e-07
7.76074e-09
-1.89839e-07
8.91168e-09
-1.91327e-07
9.948e-09
-1.9271e-07
1.0707e-08
-1.93913e-07
1.10025e-08
-1.9484e-07
1.06127e-08
-1.95354e-07
9.28253e-09
-1.95264e-07
6.75926e-09
-1.94299e-07
2.81475e-09
-1.92082e-07
-2.58961e-09
-1.88325e-07
-8.60784e-09
-1.30067e-08
-1.8337e-07
-8.04046e-10
6.76133e-09
-1.7917e-09
8.33204e-09
-2.79843e-09
8.49461e-09
-3.81291e-09
8.55741e-09
-4.83669e-09
8.63229e-09
-5.87214e-09
8.72614e-09
-6.92163e-09
8.8391e-09
-7.98753e-09
8.97092e-09
-9.07215e-09
9.12126e-09
-1.01778e-08
9.28979e-09
-1.13066e-08
9.47613e-09
-1.2461e-08
9.67987e-09
-1.36429e-08
9.90061e-09
-1.48545e-08
1.01379e-08
-1.6098e-08
1.03914e-08
-1.73752e-08
1.06607e-08
-1.86884e-08
1.09452e-08
-2.00393e-08
1.12447e-08
-2.14299e-08
1.15585e-08
-2.28622e-08
1.18862e-08
-2.43379e-08
1.22274e-08
-2.58589e-08
1.25815e-08
-2.7427e-08
1.29479e-08
-2.90437e-08
1.33259e-08
-3.07109e-08
1.3715e-08
-3.24301e-08
1.41142e-08
-3.42027e-08
1.45227e-08
-3.60302e-08
1.49396e-08
-3.79139e-08
1.53639e-08
-3.98551e-08
1.57943e-08
-4.18549e-08
1.62296e-08
-4.39141e-08
1.66684e-08
-4.60336e-08
1.71093e-08
-4.82141e-08
1.75505e-08
-5.04559e-08
1.79905e-08
-5.27595e-08
1.84275e-08
-5.51248e-08
1.88596e-08
-5.75519e-08
1.92848e-08
-6.00403e-08
1.97013e-08
-6.25895e-08
2.0107e-08
-6.5199e-08
2.04999e-08
-6.78677e-08
2.08777e-08
-7.05945e-08
2.12383e-08
-7.33781e-08
2.15794e-08
-7.62168e-08
2.18984e-08
-7.91087e-08
2.21927e-08
-8.20515e-08
2.24596e-08
-8.50429e-08
2.2696e-08
-8.80797e-08
2.2899e-08
-9.11587e-08
2.30653e-08
-9.42762e-08
2.31919e-08
-9.7428e-08
2.32755e-08
-1.0061e-07
2.33131e-08
-1.03816e-07
2.33019e-08
-1.07042e-07
2.32391e-08
-1.10281e-07
2.31224e-08
-1.13529e-07
2.29497e-08
-1.16778e-07
2.27192e-08
-1.20021e-07
2.24295e-08
-1.23253e-07
2.20795e-08
-1.26465e-07
2.16686e-08
-1.2965e-07
2.11968e-08
-1.32801e-07
2.06644e-08
-1.35909e-07
2.00724e-08
-1.38968e-07
1.94223e-08
-1.41969e-07
1.87164e-08
-1.44904e-07
1.79577e-08
-1.47767e-07
1.715e-08
-1.50548e-07
1.62979e-08
-1.53242e-07
1.5407e-08
-1.55843e-07
1.44837e-08
-1.58345e-07
1.35359e-08
-1.60744e-07
1.25724e-08
-1.63037e-07
1.16035e-08
-1.65221e-07
1.06412e-08
-1.67298e-07
9.70029e-09
-1.6927e-07
8.798e-09
-1.7114e-07
7.95434e-09
-1.72914e-07
7.1906e-09
-1.746e-07
6.52844e-09
-1.76207e-07
5.99114e-09
-1.77745e-07
5.60683e-09
-1.79227e-07
5.41003e-09
-1.8067e-07
5.43811e-09
-1.82096e-07
5.72247e-09
-1.83526e-07
6.27807e-09
-1.84981e-07
7.09471e-09
-1.86476e-07
8.12881e-09
-1.88012e-07
9.29751e-09
-1.89577e-07
1.04761e-08
-1.91135e-07
1.15059e-08
-1.92634e-07
1.22061e-08
-1.94008e-07
1.23762e-08
-1.95168e-07
1.17734e-08
-1.95982e-07
1.00963e-08
-1.96235e-07
7.01174e-09
-1.95578e-07
2.1579e-09
-1.9345e-07
-4.71724e-09
-1.89278e-07
-1.278e-08
-1.89725e-08
-1.83312e-07
-8.00288e-10
7.56162e-09
-1.78301e-09
9.31476e-09
-2.78476e-09
9.49636e-09
-3.79433e-09
9.56698e-09
-4.81325e-09
9.65122e-09
-5.84391e-09
9.75679e-09
-6.88869e-09
9.88388e-09
-7.94996e-09
1.00322e-08
-9.03003e-09
1.02013e-08
-1.01312e-08
1.0391e-08
-1.12557e-08
1.06006e-08
-1.24058e-08
1.08299e-08
-1.35836e-08
1.10784e-08
-1.47912e-08
1.13455e-08
-1.60307e-08
1.16309e-08
-1.73041e-08
1.19341e-08
-1.86135e-08
1.22546e-08
-1.99609e-08
1.2592e-08
-2.1348e-08
1.29457e-08
-2.27769e-08
1.33152e-08
-2.42495e-08
1.36999e-08
-2.57674e-08
1.40994e-08
-2.73325e-08
1.4513e-08
-2.89465e-08
1.494e-08
-3.06112e-08
1.53796e-08
-3.2328e-08
1.5831e-08
-3.40985e-08
1.62932e-08
-3.59242e-08
1.67653e-08
-3.78064e-08
1.72461e-08
-3.97464e-08
1.77343e-08
-4.17453e-08
1.82284e-08
-4.3804e-08
1.87271e-08
-4.59234e-08
1.92287e-08
-4.81042e-08
1.97313e-08
-5.03468e-08
2.02332e-08
-5.26516e-08
2.07323e-08
-5.50186e-08
2.12266e-08
-5.74478e-08
2.1714e-08
-5.99389e-08
2.21924e-08
-6.24914e-08
2.26595e-08
-6.51046e-08
2.3113e-08
-6.77776e-08
2.35507e-08
-7.05093e-08
2.397e-08
-7.32983e-08
2.43685e-08
-7.61432e-08
2.47433e-08
-7.90419e-08
2.50915e-08
-8.19924e-08
2.54101e-08
-8.49921e-08
2.56957e-08
-8.8038e-08
2.59449e-08
-9.1127e-08
2.61542e-08
-9.42551e-08
2.632e-08
-9.74183e-08
2.64387e-08
-1.00612e-07
2.65068e-08
-1.03831e-07
2.65211e-08
-1.0707e-07
2.64784e-08
-1.10324e-07
2.6376e-08
-1.13586e-07
2.62115e-08
-1.16849e-07
2.59827e-08
-1.20108e-07
2.56879e-08
-1.23354e-07
2.53258e-08
-1.26581e-07
2.48956e-08
-1.29781e-07
2.43968e-08
-1.32947e-07
2.38298e-08
-1.36069e-07
2.31952e-08
-1.39142e-07
2.24945e-08
-1.42155e-07
2.173e-08
-1.45102e-07
2.09047e-08
-1.47975e-07
2.00225e-08
-1.50765e-07
1.90885e-08
-1.53467e-07
1.81085e-08
-1.56073e-07
1.70899e-08
-1.58578e-07
1.6041e-08
-1.60977e-07
1.49718e-08
-1.63267e-07
1.38937e-08
-1.65447e-07
1.28203e-08
-1.67514e-07
1.17678e-08
-1.69472e-07
1.07555e-08
-1.71322e-07
9.80514e-09
-1.73071e-07
8.93963e-09
-1.74725e-07
8.18204e-09
-1.76291e-07
7.55726e-09
-1.7778e-07
7.09586e-09
-1.79206e-07
6.83607e-09
-1.80588e-07
6.82016e-09
-1.8195e-07
7.0845e-09
-1.8332e-07
7.64756e-09
-1.84724e-07
8.49933e-09
-1.86188e-07
9.59194e-09
-1.87721e-07
1.08314e-08
-1.89321e-07
1.20754e-08
-1.90958e-07
1.31435e-08
-1.92588e-07
1.38362e-08
-1.94154e-07
1.39414e-08
-1.95582e-07
1.32018e-08
-1.96754e-07
1.12684e-08
-1.97444e-07
7.70166e-09
-1.97222e-07
1.93529e-09
-1.95281e-07
-6.65805e-09
-1.90599e-07
-1.74614e-08
-2.63957e-08
-1.83176e-07
-7.96e-10
8.35762e-09
-1.7732e-09
1.0292e-08
-2.76937e-09
1.04925e-08
-3.77341e-09
1.0571e-08
-4.78687e-09
1.06647e-08
-5.81214e-09
1.07821e-08
-6.85162e-09
1.09234e-08
-7.90767e-09
1.10882e-08
-8.98263e-09
1.12763e-08
-1.00788e-08
1.14871e-08
-1.11984e-08
1.17203e-08
-1.23437e-08
1.19752e-08
-1.35168e-08
1.22515e-08
-1.47198e-08
1.25486e-08
-1.59549e-08
1.2866e-08
-1.7224e-08
1.32033e-08
-1.85292e-08
1.35598e-08
-1.98725e-08
1.39352e-08
-2.12557e-08
1.43289e-08
-2.26808e-08
1.47402e-08
-2.41496e-08
1.51688e-08
-2.5664e-08
1.56138e-08
-2.72258e-08
1.60748e-08
-2.88367e-08
1.65509e-08
-3.04983e-08
1.70412e-08
-3.22124e-08
1.75451e-08
-3.39805e-08
1.80613e-08
-3.58041e-08
1.85889e-08
-3.76844e-08
1.91265e-08
-3.96229e-08
1.96727e-08
-4.16206e-08
2.02262e-08
-4.36786e-08
2.07851e-08
-4.57978e-08
2.13478e-08
-4.79788e-08
2.19123e-08
-5.02221e-08
2.24765e-08
-5.25281e-08
2.30382e-08
-5.48968e-08
2.35954e-08
-5.73283e-08
2.41455e-08
-5.98222e-08
2.46863e-08
-6.23781e-08
2.52154e-08
-6.49952e-08
2.57302e-08
-6.76728e-08
2.62283e-08
-7.04097e-08
2.6707e-08
-7.32047e-08
2.71635e-08
-7.60562e-08
2.75948e-08
-7.89624e-08
2.79977e-08
-8.19211e-08
2.83688e-08
-8.49299e-08
2.87045e-08
-8.79858e-08
2.90009e-08
-9.10856e-08
2.9254e-08
-9.42255e-08
2.94599e-08
-9.74014e-08
2.96145e-08
-1.00609e-07
2.97139e-08
-1.03842e-07
2.97544e-08
-1.07096e-07
2.97326e-08
-1.10365e-07
2.96451e-08
-1.13643e-07
2.94893e-08
-1.16923e-07
2.92627e-08
-1.20198e-07
2.89632e-08
-1.23462e-07
2.85893e-08
-1.26706e-07
2.81398e-08
-1.29923e-07
2.76141e-08
-1.33105e-07
2.70121e-08
-1.36245e-07
2.63346e-08
-1.39333e-07
2.55829e-08
-1.42362e-07
2.4759e-08
-1.45324e-07
2.38662e-08
-1.4821e-07
2.29084e-08
-1.51012e-07
2.1891e-08
-1.53724e-07
2.08203e-08
-1.56338e-07
1.97042e-08
-1.58849e-07
1.85518e-08
-1.61251e-07
1.7374e-08
-1.63541e-07
1.61834e-08
-1.65716e-07
1.49949e-08
-1.67774e-07
1.38261e-08
-1.69717e-07
1.26982e-08
-1.71546e-07
1.16346e-08
-1.73266e-07
1.06598e-08
-1.74883e-07
9.79843e-09
-1.76403e-07
9.07732e-09
-1.77837e-07
8.53001e-09
-1.792e-07
8.19935e-09
-1.80513e-07
8.13358e-09
-1.81805e-07
8.37558e-09
-1.83106e-07
8.94941e-09
-1.84455e-07
9.84772e-09
-1.85883e-07
1.10205e-08
-1.87415e-07
1.23635e-08
-1.89055e-07
1.37149e-08
-1.90782e-07
1.48706e-08
-1.92557e-07
1.5611e-08
-1.94332e-07
1.57166e-08
-1.96059e-07
1.49289e-08
-1.97655e-07
1.28644e-08
-1.98908e-07
8.95515e-09
-1.9931e-07
2.33702e-09
-1.97725e-07
-8.24332e-09
-1.92408e-07
-2.27781e-08
-3.60297e-08
-1.82774e-07
-7.91191e-10
9.14881e-09
-1.76227e-09
1.1263e-08
-2.75225e-09
1.14825e-08
-3.75015e-09
1.15689e-08
-4.75754e-09
1.16721e-08
-5.77682e-09
1.18013e-08
-6.81039e-09
1.19569e-08
-7.86065e-09
1.21385e-08
-8.92992e-09
1.23456e-08
-1.00205e-08
1.25777e-08
-1.11347e-08
1.28344e-08
-1.22746e-08
1.31152e-08
-1.34425e-08
1.34194e-08
-1.46405e-08
1.37465e-08
-1.58706e-08
1.40961e-08
-1.71349e-08
1.44676e-08
-1.84354e-08
1.48603e-08
-1.97741e-08
1.52739e-08
-2.11528e-08
1.57076e-08
-2.25736e-08
1.6161e-08
-2.40383e-08
1.66335e-08
-2.55488e-08
1.71243e-08
-2.71068e-08
1.76328e-08
-2.87141e-08
1.81582e-08
-3.03724e-08
1.86996e-08
-3.20834e-08
1.92561e-08
-3.38487e-08
1.98266e-08
-3.56697e-08
2.04099e-08
-3.75479e-08
2.10047e-08
-3.94846e-08
2.16094e-08
-4.14809e-08
2.22225e-08
-4.3538e-08
2.28422e-08
-4.56567e-08
2.34665e-08
-4.78378e-08
2.40933e-08
-5.00817e-08
2.47204e-08
-5.23888e-08
2.53454e-08
-5.47593e-08
2.59659e-08
-5.71931e-08
2.65793e-08
-5.969e-08
2.71831e-08
-6.22494e-08
2.77748e-08
-6.48707e-08
2.83515e-08
-6.75531e-08
2.89107e-08
-7.02956e-08
2.94494e-08
-7.30969e-08
2.99647e-08
-7.59555e-08
3.04533e-08
-7.88696e-08
3.09118e-08
-8.18372e-08
3.13364e-08
-8.48558e-08
3.17231e-08
-8.79225e-08
3.20676e-08
-9.10341e-08
3.23656e-08
-9.41868e-08
3.26126e-08
-9.73764e-08
3.28041e-08
-1.00598e-07
3.29358e-08
-1.03847e-07
3.30034e-08
-1.07118e-07
3.30031e-08
-1.10404e-07
3.29312e-08
-1.13699e-07
3.27847e-08
-1.16997e-07
3.25608e-08
-1.20291e-07
3.2257e-08
-1.23574e-07
3.18715e-08
-1.26837e-07
3.14029e-08
-1.30073e-07
3.08503e-08
-1.33274e-07
3.02134e-08
-1.36432e-07
2.94926e-08
-1.39538e-07
2.86893e-08
-1.42585e-07
2.78053e-08
-1.45563e-07
2.68439e-08
-1.48463e-07
2.58093e-08
-1.51279e-07
2.4707e-08
-1.54003e-07
2.35437e-08
-1.56626e-07
2.23278e-08
-1.59144e-07