/*--------------------------------*- C++ -*----------------------------------*\
| =========                 |                                                 |
| \\      /  F ield         | OpenFOAM: The Open Source CFD Toolbox           |
|  \\    /   O peration     | Version:  2.4.0                                 |
|   \\  /    A nd           | Web:      www.OpenFOAM.org                      |
|    \\/     M anipulation  |                                                 |
\*---------------------------------------------------------------------------*/
FoamFile
{
    version     2.0;
    format      ascii;
    class       volVectorField;
    location    "0.362";
    object      U;
}
// * * * * * * * * * * * * * * * * * * * * * * * * * * * * * * * * * * * * * //

dimensions      [0 1 -1 0 0 0 0];

internalField   nonuniform List<vector> 
10000
(
(-2.48244e-06 2.47902e-06 0)
(-5.61416e-06 1.55843e-06 0)
(-2.03757e-06 -2.95549e-07 0)
(8.7748e-06 -2.05506e-06 0)
(2.63246e-05 -3.47709e-06 0)
(4.94665e-05 -4.57004e-06 0)
(7.70263e-05 -5.3878e-06 0)
(0.000107969 -5.98716e-06 0)
(0.000141446 -6.41785e-06 0)
(0.000176783 -6.72123e-06 0)
(0.000213457 -6.93047e-06 0)
(0.000251068 -7.07161e-06 0)
(0.000289317 -7.16472e-06 0)
(0.000327984 -7.22511e-06 0)
(0.000366915 -7.26414e-06 0)
(0.000406 -7.28955e-06 0)
(0.000445155 -7.30548e-06 0)
(0.000484308 -7.31213e-06 0)
(0.000523376 -7.30535e-06 0)
(0.00056225 -7.27625e-06 0)
(0.000600765 -7.21096e-06 0)
(0.000638687 -7.09074e-06 0)
(0.00067569 -6.89296e-06 0)
(0.000711347 -6.59302e-06 0)
(0.00074513 -6.16785e-06 0)
(0.000776432 -5.60082e-06 0)
(0.000804609 -4.88795e-06 0)
(0.00082905 -4.04456e-06 0)
(0.000849279 -3.1105e-06 0)
(0.000865059 -2.15131e-06 0)
(0.000876491 -1.25209e-06 0)
(0.000884066 -5.03599e-07 0)
(0.000888644 1.75115e-08 0)
(0.000891348 2.6867e-07 0)
(0.000893394 2.4627e-07 0)
(0.000895927 -1.54552e-08 0)
(0.000899879 -4.56507e-07 0)
(0.000905885 -1.00221e-06 0)
(0.000914242 -1.57684e-06 0)
(0.00092493 -2.11477e-06 0)
(0.000937668 -2.56708e-06 0)
(0.000951993 -2.90334e-06 0)
(0.000967336 -3.11001e-06 0)
(0.000983099 -3.187e-06 0)
(0.000998699 -3.1437e-06 0)
(0.00101361 -2.99552e-06 0)
(0.0010274 -2.76105e-06 0)
(0.0010397 -2.46016e-06 0)
(0.00105027 -2.11269e-06 0)
(0.00105893 -1.73738e-06 0)
(-1.53991e-06 5.59599e-06 0)
(2.25631e-06 -2.23704e-06 0)
(2.19682e-05 -1.57451e-05 0)
(5.80732e-05 -2.93133e-05 0)
(0.000109424 -4.11297e-05 0)
(0.000173855 -5.07836e-05 0)
(0.000249001 -5.83794e-05 0)
(0.000332632 -6.41962e-05 0)
(0.000422804 -6.85497e-05 0)
(0.000517902 -7.17363e-05 0)
(0.000616623 -7.40146e-05 0)
(0.000717939 -7.56009e-05 0)
(0.000821059 -7.66719e-05 0)
(0.000925387 -7.7367e-05 0)
(0.00103048 -7.77909e-05 0)
(0.00113599 -7.80143e-05 0)
(0.00124167 -7.80736e-05 0)
(0.00134727 -7.79685e-05 0)
(0.00145251 -7.76604e-05 0)
(0.00155706 -7.70703e-05 0)
(0.00166045 -7.60786e-05 0)
(0.00176205 -7.45289e-05 0)
(0.00186102 -7.22377e-05 0)
(0.00195629 -6.9013e-05 0)
(0.00204657 -6.46849e-05 0)
(0.00213038 -5.91456e-05 0)
(0.00220621 -5.2399e-05 0)
(0.00227261 -4.46103e-05 0)
(0.00232851 -3.61417e-05 0)
(0.00237337 -2.75533e-05 0)
(0.00240748 -1.95488e-05 0)
(0.00243208 -1.28623e-05 0)
(0.00244923 -8.10438e-06 0)
(0.00246166 -5.61553e-06 0)
(0.00247229 -5.41646e-06 0)
(0.00248384 -7.22589e-06 0)
(0.00249855 -1.05494e-05 0)
(0.0025179 -1.47701e-05 0)
(0.0025426 -1.92547e-05 0)
(0.00257256 -2.34438e-05 0)
(0.0026071 -2.69098e-05 0)
(0.00264507 -2.9377e-05 0)
(0.0026851 -3.07127e-05 0)
(0.00272572 -3.09033e-05 0)
(0.00276555 -3.00226e-05 0)
(0.00280329 -2.82033e-05 0)
(0.0028379 -2.56119e-05 0)
(0.00286851 -2.24293e-05 0)
(0.00289452 -1.88369e-05 0)
(0.00291554 -1.50061e-05 0)
(2.90484e-07 2.02075e-06 0)
(1.56301e-05 -2.19242e-05 0)
(5.44732e-05 -5.46961e-05 0)
(0.000116016 -8.7259e-05 0)
(0.000198308 -0.000116141 0)
(0.000298611 -0.000140276 0)
(0.000413946 -0.000159679 0)
(0.000541416 -0.000174834 0)
(0.00067841 -0.000186382 0)
(0.000822691 -0.000194975 0)
(0.000972404 -0.000201211 0)
(0.00112605 -0.000205611 0)
(0.00128246 -0.000208613 0)
(0.00144071 -0.000210568 0)
(0.00160011 -0.000211744 0)
(0.00176014 -0.000212322 0)
(0.00192035 -0.000212396 0)
(0.00208035 -0.000211967 0)
(0.00223973 -0.00021094 0)
(0.00239796 -0.000209117 0)
(0.00255438 -0.000206204 0)
(0.00270806 -0.000201815 0)
(0.00285781 -0.0001955 0)
(0.00300208 -0.000186794 0)
(0.00313903 -0.000175288 0)
(0.00326656 -0.00016073 0)
(0.00338244 -0.000143146 0)
(0.00348457 -0.000122964 0)
(0.0035713 -0.0001011 0)
(0.00364178 -7.8967e-05 0)
(0.00369637 -5.83399e-05 0)
(0.0037368 -4.10716e-05 0)
(0.00376615 -2.87042e-05 0)
(0.00378843 -2.2086e-05 0)
(0.00380796 -2.1253e-05 0)
(0.00382875 -2.54766e-05 0)
(0.00385402 -3.34992e-05 0)
(0.00388591 -4.37557e-05 0)
(0.00392533 -5.46407e-05 0)
(0.0039721 -6.47404e-05 0)
(0.00402509 -7.29772e-05 0)
(0.00408261 -7.86593e-05 0)
(0.00414262 -8.14577e-05 0)
(0.00420298 -8.13431e-05 0)
(0.00426166 -7.8508e-05 0)
(0.00431685 -7.3293e-05 0)
(0.00436702 -6.61238e-05 0)
(0.00441098 -5.74619e-05 0)
(0.00444787 -4.7768e-05 0)
(0.00447713 -3.7476e-05 0)
(1.99738e-06 -8.66763e-06 0)
(2.89138e-05 -5.7773e-05 0)
(8.64818e-05 -0.000116109 0)
(0.000171858 -0.000172779 0)
(0.000281919 -0.000223185 0)
(0.000413345 -0.000265731 0)
(0.000562724 -0.000300344 0)
(0.00072674 -0.000327697 0)
(0.000902366 -0.000348769 0)
(0.00108696 -0.000364605 0)
(0.0012783 -0.000376196 0)
(0.00147454 -0.00038443 0)
(0.00167423 -0.000390067 0)
(0.00187619 -0.00039373 0)
(0.00207956 -0.0003959 0)
(0.00228364 -0.00039691 0)
(0.00248788 -0.000396937 0)
(0.0026918 -0.000395996 0)
(0.00289487 -0.000393927 0)
(0.0030965 -0.000390393 0)
(0.00329589 -0.000384877 0)
(0.00349197 -0.000376701 0)
(0.00368331 -0.000365069 0)
(0.00386807 -0.000349142 0)
(0.00404398 -0.000328174 0)
(0.00420841 -0.000301684 0)
(0.00435849 -0.000269676 0)
(0.00449141 -0.000232867 0)
(0.00460482 -0.000192877 0)
(0.00469736 -0.000152259 0)
(0.00476924 -0.000114282 0)
(0.00482257 -8.24099e-05 0)
(0.00486137 -5.95492e-05 0)
(0.00489102 -4.72636e-05 0)
(0.00491728 -4.55857e-05 0)
(0.00494543 -5.31107e-05 0)
(0.00497959 -6.74891e-05 0)
(0.00502242 -8.58128e-05 0)
(0.00507492 -0.00010512 0)
(0.0051366 -0.000122832 0)
(0.00520582 -0.000137019 0)
(0.00528025 -0.000146471 0)
(0.00535717 -0.00015064 0)
(0.00543387 -0.00014952 0)
(0.00550778 -0.00014349 0)
(0.00557667 -0.000133189 0)
(0.00563866 -0.0001194 0)
(0.00569233 -0.000102961 0)
(0.00573665 -8.47066e-05 0)
(0.00577102 -6.54159e-05 0)
(3.35338e-06 -2.59134e-05 0)
(4.03896e-05 -0.00010857 0)
(0.000114737 -0.000197964 0)
(0.000221394 -0.000282685 0)
(0.000355875 -0.000357719 0)
(0.000514173 -0.000421263 0)
(0.000692453 -0.000473287 0)
(0.000887063 -0.000514698 0)
(0.00109468 -0.000546827 0)
(0.00131239 -0.000571125 0)
(0.00153769 -0.000589 0)
(0.00176851 -0.000601735 0)
(0.00200318 -0.000610451 0)
(0.00224036 -0.000616081 0)
(0.00247904 -0.000619359 0)
(0.00271841 -0.000620804 0)
(0.00295787 -0.000620706 0)
(0.00319689 -0.000619112 0)
(0.00343495 -0.000615807 0)
(0.00367143 -0.000610309 0)
(0.00390553 -0.000601857 0)
(0.00413614 -0.000589434 0)
(0.00436175 -0.00057182 0)
(0.00458034 -0.000547707 0)
(0.00478933 -0.000515881 0)
(0.00498559 -0.000475487 0)
(0.00516559 -0.000426379 0)
(0.00532566 -0.000369494 0)
(0.0054625 -0.000307206 0)
(0.00557389 -0.00024347 0)
(0.00565955 -0.000183526 0)
(0.00572184 -0.000133082 0)
(0.0057659 -9.7011e-05 0)
(0.00579881 -7.78364e-05 0)
(0.00582812 -7.55339e-05 0)
(0.00586058 -8.76811e-05 0)
(0.0059013 -0.000110443 0)
(0.00595339 -0.000139094 0)
(0.00601775 -0.000168879 0)
(0.00609332 -0.000195748 0)
(0.0061777 -0.000216762 0)
(0.00626772 -0.000230166 0)
(0.00635994 -0.000235251 0)
(0.00645101 -0.000232123 0)
(0.0065379 -0.000221461 0)
(0.00661801 -0.000204306 0)
(0.00668924 -0.000181896 0)
(0.00675001 -0.000155534 0)
(0.00679925 -0.000126501 0)
(0.00683632 -9.59869e-05 0)
(4.38204e-06 -4.85578e-05 0)
(4.97475e-05 -0.000172173 0)
(0.000138412 -0.000297609 0)
(0.000263451 -0.000413814 0)
(0.000419027 -0.000515963 0)
(0.000600387 -0.000602414 0)
(0.000803231 -0.000673372 0)
(0.00102358 -0.000730074 0)
(0.00125785 -0.000774245 0)
(0.0015029 -0.000807761 0)
(0.00175604 -0.000832466 0)
(0.002015 -0.000850059 0)
(0.00227794 -0.00086205 0)
(0.00254342 -0.000869714 0)
(0.00281032 -0.000874075 0)
(0.00307779 -0.000875873 0)
(0.0033452 -0.000875547 0)
(0.00361206 -0.000873205 0)
(0.0038779 -0.000868601 0)
(0.00414218 -0.000861116 0)
(0.00440421 -0.000849743 0)
(0.00466297 -0.000833091 0)
(0.00491699 -0.000809447 0)
(0.00516422 -0.000776909 0)
(0.00540187 -0.000733625 0)
(0.00562639 -0.000678151 0)
(0.00583353 -0.000609939 0)
(0.00601853 -0.000529939 0)
(0.00617675 -0.000441212 0)
(0.00630456 -0.00034935 0)
(0.00640073 -0.000262164 0)
(0.00646757 -0.000188545 0)
(0.00651171 -0.000136321 0)
(0.00654262 -0.000109278 0)
(0.0065703 -0.000107234 0)
(0.00660338 -0.000126172 0)
(0.0066481 -0.00016026 0)
(0.00670807 -0.000202298 0)
(0.00678379 -0.000245144 0)
(0.00687327 -0.000282919 0)
(0.00697291 -0.000311568 0)
(0.00707843 -0.000328859 0)
(0.00718549 -0.000334071 0)
(0.00729008 -0.000327599 0)
(0.00738872 -0.000310581 0)
(0.00747852 -0.000284598 0)
(0.00755725 -0.000251448 0)
(0.00762328 -0.000212986 0)
(0.00767553 -0.000171007 0)
(0.00771346 -0.000127166 0)
(5.14727e-06 -7.54717e-05 0)
(5.7183e-05 -0.000246362 0)
(0.000157746 -0.000412315 0)
(0.000298347 -0.000563114 0)
(0.000471942 -0.000694553 0)
(0.000673029 -0.000805469 0)
(0.000896817 -0.000896507 0)
(0.00113898 -0.000969349 0)
(0.00139567 -0.00102618 0)
(0.00166353 -0.00106933 0)
(0.00193969 -0.00110111 0)
(0.00222171 -0.00112365 0)
(0.00250764 -0.00113889 0)
(0.00279591 -0.00114846 0)
(0.00308534 -0.00115373 0)
(0.00337508 -0.0011557 0)
(0.00366452 -0.00115499 0)
(0.00395325 -0.00115182 0)
(0.00424092 -0.00114595 0)
(0.00452716 -0.00113665 0)
(0.00481149 -0.00112268 0)
(0.00509312 -0.00110227 0)
(0.00537079 -0.00107314 0)
(0.00564256 -0.00103267 0)
(0.00590561 -0.000978161 0)
(0.00615607 -0.000907265 0)
(0.00638894 -0.000818646 0)
(0.00659822 -0.000712844 0)
(0.00677734 -0.000593325 0)
(0.00692053 -0.000467475 0)
(0.00702469 -0.000346428 0)
(0.00709154 -0.000243696 0)
(0.00712977 -0.000171799 0)
(0.00715239 -0.000136128 0)
(0.00717293 -0.000136189 0)
(0.00720252 -0.000165323 0)
(0.00724876 -0.000215096 0)
(0.00731585 -0.000274854 0)
(0.00740351 -0.000334202 0)
(0.00750811 -0.000384996 0)
(0.00762428 -0.000422044 0)
(0.00774627 -0.000442851 0)
(0.00786864 -0.000446982 0)
(0.0079867 -0.000435398 0)
(0.00809656 -0.00040992 0)
(0.00819515 -0.000372831 0)
(0.00828018 -0.000326611 0)
(0.00835005 -0.000273749 0)
(0.00840381 -0.000216615 0)
(0.00844107 -0.000157368 0)
(5.71424e-06 -0.000105711 0)
(6.30504e-05 -0.000329151 0)
(0.000173408 -0.000539575 0)
(0.000327085 -0.000727801 0)
(0.000516022 -0.000890514 0)
(0.000734021 -0.00102727 0)
(0.000975796 -0.00113933 0)
(0.00123666 -0.00122893 0)
(0.00151248 -0.0012988 0)
(0.00179967 -0.00135177 0)
(0.00209516 -0.00139064 0)
(0.00239637 -0.001418 0)
(0.00270118 -0.00143623 0)
(0.00300796 -0.0014474 0)
(0.00331545 -0.00145324 0)
(0.00362281 -0.00145505 0)
(0.0039295 -0.00145372 0)
(0.00423521 -0.0014496 0)
(0.00453978 -0.00144252 0)
(0.00484307 -0.0014317 0)
(0.0051449 -0.00141572 0)
(0.00544488 -0.00139243 0)
(0.00574211 -0.00135894 0)
(0.00603501 -0.00131181 0)
(0.00632093 -0.00124723 0)
(0.00659591 -0.00116161 0)
(0.00685437 -0.00105224 0)
(0.00708893 -0.000918537 0)
(0.00729055 -0.000763676 0)
(0.00745013 -0.000596773 0)
(0.00756124 -0.000433092 0)
(0.00762375 -0.000292963 0)
(0.00764924 -0.000196861 0)
(0.00765611 -0.000151971 0)
(0.00766312 -0.000157377 0)
(0.00768479 -0.000201752 0)
(0.00773029 -0.000273574 0)
(0.00780471 -0.000357188 0)
(0.00790628 -0.00043759 0)
(0.00802864 -0.000503864 0)
(0.00816382 -0.000549865 0)
(0.00830412 -0.000573313 0)
(0.0084429 -0.000574557 0)
(0.00857481 -0.00055553 0)
(0.00869571 -0.000519011 0)
(0.00880245 -0.000468169 0)
(0.00889281 -0.00040628 0)
(0.00896534 -0.000336544 0)
(0.00901929 -0.000261951 0)
(0.00905449 -0.000185197 0)
(6.13915e-06 -0.000138552 0)
(6.77199e-05 -0.000418922 0)
(0.000186174 -0.000677281 0)
(0.00035088 -0.000905516 0)
(0.000552957 -0.00110135 0)
(0.000785586 -0.00126522 0)
(0.00104301 -0.00139914 0)
(0.00132017 -0.00150603 0)
(0.00161263 -0.00158918 0)
(0.00191656 -0.00165201 0)
(0.00222867 -0.0016978 0)
(0.0025462 -0.00172967 0)
(0.00286686 -0.00175047 0)
(0.0031889 -0.00176272 0)
(0.00351101 -0.00176858 0)
(0.00383235 -0.00176975 0)
(0.00415246 -0.0017674 0)
(0.00447115 -0.00176211 0)
(0.00478847 -0.00175382 0)
(0.00510455 -0.00174179 0)
(0.00541963 -0.00172451 0)
(0.00573381 -0.00169952 0)
(0.0060468 -0.00166333 0)
(0.00635758 -0.00161157 0)
(0.00666405 -0.00153917 0)
(0.00696254 -0.00144086 0)
(0.00724732 -0.00131188 0)
(0.00750986 -0.00114937 0)
(0.00773811 -0.000954792 0)
(0.00791818 -0.000738418 0)
(0.00803796 -0.000520146 0)
(0.00809246 -0.000330338 0)
(0.0080974 -0.000203882 0)
(0.00807952 -0.000149136 0)
(0.00806546 -0.000165261 0)
(0.00807442 -0.000231968 0)
(0.00811712 -0.000335043 0)
(0.00820051 -0.00045114 0)
(0.0083199 -0.000558435 0)
(0.00846437 -0.000642765 0)
(0.00862213 -0.00069767 0)
(0.00878313 -0.000722014 0)
(0.00893961 -0.000717713 0)
(0.00908578 -0.000688198 0)
(0.00921746 -0.000637512 0)
(0.00933165 -0.00056987 0)
(0.00942633 -0.000489435 0)
(0.00950032 -0.000400167 0)
(0.00955312 -0.00030571 0)
(0.00958488 -0.000209304 0)
(6.46737e-06 -0.000173469 0)
(7.1519e-05 -0.000514438 0)
(0.000196773 -0.000823767 0)
(0.000370913 -0.00109437 0)
(0.0005844 -0.00132508 0)
(0.000829885 -0.0015173 0)
(0.00110118 -0.0016739 0)
(0.00139285 -0.00179854 0)
(0.00170016 -0.00189519 0)
(0.00201901 -0.00196781 0)
(0.00234586 -0.00202027 0)
(0.00267772 -0.00205619 0)
(0.0030121 -0.00207893 0)
(0.00334708 -0.00209155 0)
(0.00368126 -0.00209669 0)
(0.00401379 -0.0020965 0)
(0.00434427 -0.00209253 0)
(0.00467267 -0.00208563 0)
(0.0049992 -0.00207594 0)
(0.00532428 -0.00206288 0)
(0.0056486 -0.00204499 0)
(0.0059729 -0.00201962 0)
(0.00629767 -0.00198276 0)
(0.00662274 -0.00192912 0)
(0.00694692 -0.0018523 0)
(0.00726747 -0.00174504 0)
(0.00757936 -0.00159983 0)
(0.00787387 -0.00140993 0)
(0.00813576 -0.00117244 0)
(0.00834496 -0.000897242 0)
(0.00848009 -0.00060804 0)
(0.00852483 -0.000349384 0)
(0.00850074 -0.000184124 0)
(0.00844677 -0.000118019 0)
(0.00840212 -0.000153812 0)
(0.00839298 -0.000252171 0)
(0.00843102 -0.000399849 0)
(0.00852729 -0.000560567 0)
(0.0086712 -0.000701906 0)
(0.00884401 -0.000806351 0)
(0.00902868 -0.000868776 0)
(0.00921275 -0.000890861 0)
(0.00938774 -0.00087721 0)
(0.00954799 -0.000833348 0)
(0.00968968 -0.000764827 0)
(0.00981021 -0.000676985 0)
(0.00990791 -0.000574899 0)
(0.00998193 -0.000463304 0)
(0.0100321 -0.000346501 0)
(0.0100589 -0.000228279 0)
(6.73327e-06 -0.000210093 0)
(7.4712e-05 -0.000614792 0)
(0.000205817 -0.000977782 0)
(0.000388197 -0.00129293 0)
(0.000611793 -0.00156018 0)
(0.000868812 -0.00178197 0)
(0.00115268 -0.0019621 0)
(0.00145762 -0.00210501 0)
(0.00177859 -0.00221534 0)
(0.0021112 -0.0022977 0)
(0.00245163 -0.00235649 0)
(0.00279659 -0.0023959 0)
(0.00314336 -0.00241983 0)
(0.00348977 -0.00243189 0)
(0.00383429 -0.0024353 0)
(0.00417597 -0.00243276 0)
(0.00451448 -0.00242628 0)
(0.00484992 -0.00241705 0)
(0.00518262 -0.00240544 0)
(0.00551322 -0.00239118 0)
(0.00584284 -0.00237311 0)
(0.00617297 -0.00234859 0)
(0.006505 -0.00231319 0)
(0.0068398 -0.00226087 0)
(0.00717749 -0.002184 0)
(0.00751696 -0.00207343 0)
(0.00785525 -0.00191851 0)
(0.00818559 -0.00170685 0)
(0.00849063 -0.00142641 0)
(0.00874364 -0.00108407 0)
(0.0089098 -0.000702271 0)
(0.00894819 -0.000343172 0)
(0.00888773 -0.000128363 0)
(0.00878259 -4.58953e-05 0)
(0.0086937 -0.00011679 0)
(0.00866022 -0.000257321 0)
(0.00869182 -0.000469426 0)
(0.00880878 -0.000692213 0)
(0.00898781 -0.000875748 0)
(0.009197 -0.00100053 0)
(0.00941278 -0.00106654 0)
(0.00962109 -0.00108111 0)
(0.00981395 -0.00105293 0)
(0.00998678 -0.000990094 0)
(0.0101367 -0.000899687 0)
(0.0102617 -0.000788058 0)
(0.0103606 -0.000661123 0)
(0.0104329 -0.000524372 0)
(0.0104787 -0.000382751 0)
(0.010499 -0.00024058 0)
(6.96113e-06 -0.000248176 0)
(7.74968e-05 -0.000719348 0)
(0.000213777 -0.00113842 0)
(0.000403531 -0.00150014 0)
(0.000636285 -0.00180555 0)
(0.000903887 -0.00205816 0)
(0.00119943 -0.0022627 0)
(0.00151684 -0.00242445 0)
(0.00185078 -0.00254876 0)
(0.00219655 -0.00264084 0)
(0.00255002 -0.00270565 0)
(0.00290758 -0.00274791 0)
(0.00326616 -0.00277212 0)
(0.00362328 -0.00278248 0)
(0.00397713 -0.00278288 0)
(0.00432664 -0.00277668 0)
(0.00467148 -0.00276646 0)
(0.00501185 -0.00275379 0)
(0.00534815 -0.00273924 0)
(0.00568103 -0.00272303 0)
(0.00601201 -0.00270466 0)
(0.00634336 -0.00268175 0)
(0.00667734 -0.00264956 0)
(0.00701588 -0.00260161 0)
(0.0073606 -0.00252951 0)
(0.00771248 -0.00242274 0)
(0.00807228 -0.0022684 0)
(0.00843911 -0.00204733 0)
(0.00879674 -0.00173047 0)
(0.00911489 -0.00131946 0)
(0.00934318 -0.000819346 0)
(0.0093919 -0.000304642 0)
(0.00929578 -2.83402e-05 0)
(0.0091169 8.54615e-05 0)
(0.00895932 -4.82353e-05 0)
(0.00889381 -0.000238797 0)
(0.00891829 -0.000547139 0)
(0.0090716 -0.000858226 0)
(0.00930188 -0.00109121 0)
(0.00955615 -0.00123169 0)
(0.00980484 -0.00129298 0)
(0.0100353 -0.00129207 0)
(0.0102426 -0.00124287 0)
(0.0104243 -0.00115604 0)
(0.0105791 -0.00103974 0)
(0.0107059 -0.000900882 0)
(0.0108035 -0.000746044 0)
(0.0108718 -0.000581432 0)
(0.0109113 -0.000412641 0)
(0.0109231 -0.000244507 0)
(7.16648e-06 -0.000287554 0)
(8.00074e-05 -0.000827665 0)
(0.000220983 -0.00130503 0)
(0.000417477 -0.00171523 0)
(0.000658697 -0.00206039 0)
(0.000936205 -0.0023451 0)
(0.00124283 -0.00257505 0)
(0.00157225 -0.00275635 0)
(0.00191886 -0.00289505 0)
(0.00227767 -0.00299694 0)
(0.00264421 -0.00306753 0)
(0.00301451 -0.00311204 0)
(0.00338506 -0.00313552 0)
(0.00375292 -0.00314285 0)
(0.0041159 -0.00313863 0)
(0.00447262 -0.00312706 0)
(0.0048227 -0.00311146 0)
(0.00516648 -0.00309378 0)
(0.00550426 -0.00307464 0)
(0.00583652 -0.00305491 0)
(0.006165 -0.00303526 0)
(0.00649272 -0.00301384 0)
(0.00682262 -0.0029856 0)
(0.0071574 -0.00294401 0)
(0.00749999 -0.00288063 0)
(0.00785298 -0.00278478 0)
(0.00822178 -0.00264424 0)
(0.00861659 -0.00243538 0)
(0.00902933 -0.00210071 0)
(0.00943571 -0.00163937 0)
(0.00977725 -0.00100338 0)
(0.00988723 -0.000239809 0)
(0.00978326 0.000121733 0)
(0.00949348 0.000312484 0)
(0.00921478 6.11035e-05 0)
(0.00910347 -0.00017771 0)
(0.00912949 -0.000647126 0)
(0.00935276 -0.00108451 0)
(0.00965727 -0.00136418 0)
(0.00996152 -0.00150427 0)
(0.0102377 -0.00154581 0)
(0.0104817 -0.00151881 0)
(0.010695 -0.00144176 0)
(0.0108788 -0.00132661 0)
(0.0110336 -0.00118126 0)
(0.0111582 -0.0010124 0)
(0.0112516 -0.00082705 0)
(0.0113134 -0.000632186 0)
(0.0113443 -0.000434127 0)
(0.0113457 -0.000238228 0)
(7.3576e-06 -0.000328119 0)
(8.232e-05 -0.00093943 0)
(0.000227623 -0.00147715 0)
(0.000430365 -0.00193765 0)
(0.000679508 -0.00232413 0)
(0.000966412 -0.00264228 0)
(0.00128372 -0.00289875 0)
(0.00162491 -0.00310048 0)
(0.00198417 -0.00325418 0)
(0.00235626 -0.0033662 0)
(0.0027364 -0.0034425 0)
(0.00312019 -0.00348877 0)
(0.0035036 -0.00351054 0)
(0.00388312 -0.00351331 0)
(0.0042559 -0.00350254 0)
(0.00462005 -0.00348338 0)
(0.00497496 -0.00346022 0)
(0.00532111 -0.00343548 0)
(0.00565871 -0.00340938 0)
(0.0059878 -0.00338355 0)
(0.00631027 -0.00336055 0)
(0.00662972 -0.00333932 0)
(0.00694936 -0.00331405 0)
(0.00727222 -0.00327868 0)
(0.00760176 -0.00322513 0)
(0.00793946 -0.00314367 0)
(0.00829371 -0.00302884 0)
(0.00868947 -0.00286126 0)
(0.00914052 -0.00254713 0)
(0.00963959 -0.0020822 0)
(0.010149 -0.00133808 0)
(0.0104474 -0.000222595 0)
(0.0104543 0.000309131 0)
(0.00994656 0.000754436 0)
(0.00939041 0.000232049 0)
(0.00924773 -7.52695e-05 0)
(0.00935912 -0.000838611 0)
(0.00973284 -0.00142139 0)
(0.0101283 -0.00170688 0)
(0.0104653 -0.00181094 0)
(0.0107457 -0.0018119 0)
(0.0109838 -0.00174873 0)
(0.0111883 -0.00163941 0)
(0.0113638 -0.00149437 0)
(0.0115118 -0.00131911 0)
(0.0116302 -0.00111889 0)
(0.0117161 -0.000901143 0)
(0.0117686 -0.000674086 0)
(0.0117886 -0.00044503 0)
(0.0117777 -0.00021988 0)
(7.53677e-06 -0.000369783 0)
(8.44593e-05 -0.00105439 0)
(0.000233761 -0.00165438 0)
(0.000442302 -0.00216691 0)
(0.000698875 -0.0025963 0)
(0.000994714 -0.0029493 0)
(0.00132236 -0.00323356 0)
(0.00167518 -0.00345681 0)
(0.00204723 -0.00362641 0)
(0.00243308 -0.00374918 0)
(0.0028277 -0.00383147 0)
(0.00322626 -0.00387927 0)
(0.0036242 -0.00389849 0)
(0.00401724 -0.00389515 0)
(0.00440162 -0.00387554 0)
(0.00477453 -0.00384593 0)
(0.00513472 -0.00381225 0)
(0.00548269 -0.00377772 0)
(0.0058186 -0.00374154 0)
(0.00614231 -0.00370619 0)
(0.00645594 -0.00367671 0)
(0.00676337 -0.00365302 0)
(0.00706744 -0.00362786 0)
(0.0073714 -0.00359605 0)
(0.00767842 -0.00354847 0)
(0.00798276 -0.00347518 0)
(0.00828954 -0.00338791 0)
(0.00863344 -0.00328552 0)
(0.00906124 -0.00305707 0)
(0.00959711 -0.00267685 0)
(0.01029 -0.00200256 0)
(0.0110036 -0.000556212 0)
(0.0114565 0.000261673 0)
(0.0105841 0.00208632 0)
(0.00944314 0.000587826 0)
(0.00942588 6.30479e-05 0)
(0.00987333 -0.00130596 0)
(0.0104348 -0.00188272 0)
(0.0108225 -0.00207868 0)
(0.0111111 -0.00210893 0)
(0.0113483 -0.00205925 0)
(0.0115526 -0.00195983 0)
(0.0117301 -0.0018208 0)
(0.0118854 -0.00164974 0)
(0.01202 -0.00144754 0)
(0.0121284 -0.00121656 0)
(0.0122043 -0.000965386 0)
(0.0122452 -0.000704602 0)
(0.012252 -0.000443185 0)
(0.0122269 -0.000187701 0)
(7.70135e-06 -0.000412464 0)
(8.64062e-05 -0.00117229 0)
(0.000239349 -0.00183634 0)
(0.000453199 -0.00240255 0)
(0.000716653 -0.0028764 0)
(0.0010209 -0.00326575 0)
(0.00135846 -0.00357923 0)
(0.0017227 -0.00382535 0)
(0.00210764 -0.0040121 0)
(0.0025078 -0.0041467 0)
(0.00291796 -0.00423573 0)
(0.00333301 -0.00428533 0)
(0.00374783 -0.00430158 0)
(0.0041573 -0.00429079 0)
(0.0045565 -0.00425986 0)
(0.00494108 -0.00421621 0)
(0.00530842 -0.00416785 0)
(0.00565839 -0.00411953 0)
(0.00599101 -0.00406912 0)
(0.00630697 -0.00402067 0)
(0.00660971 -0.00398115 0)
(0.00690272 -0.00395088 0)
(0.00718732 -0.00392118 0)
(0.00746835 -0.0038897 0)
(0.00775039 -0.00383972 0)
(0.00800947 -0.00374799 0)
(0.00823864 -0.00366656 0)
(0.00846689 -0.00360118 0)
(0.00872153 -0.0034444 0)
(0.0089655 -0.00309407 0)
(0.0091029 -0.00245963 0)
(0.00955204 -0.00123897 0)
(0.010064 0.000154356 0)
(0.0101508 0.00302541 0)
(0.0102445 0.000672292 0)
(0.0109403 -0.000575538 0)
(0.0115426 -0.00166261 0)
(0.0115842 -0.00215157 0)
(0.0116842 -0.00230886 0)
(0.0118421 -0.00231951 0)
(0.0120151 -0.00225151 0)
(0.0121749 -0.00213149 0)
(0.0123133 -0.00197158 0)
(0.012439 -0.0017842 0)
(0.0125568 -0.00156248 0)
(0.0126547 -0.0013031 0)
(0.0127196 -0.00101772 0)
(0.0127475 -0.000721688 0)
(0.0127395 -0.000426676 0)
(0.0126988 -0.000140182 0)
(7.84487e-06 -0.000456056 0)
(8.81071e-05 -0.00129284 0)
(0.000244249 -0.00202255 0)
(0.000462807 -0.00264401 0)
(0.000732447 -0.00316385 0)
(0.00104439 -0.0035911 0)
(0.00139124 -0.00393537 0)
(0.00176645 -0.004206 0)
(0.00216416 -0.00441153 0)
(0.00257896 -0.00455955 0)
(0.00300564 -0.00465675 0)
(0.00343897 -0.00470922 0)
(0.00387346 -0.00472289 0)
(0.00430321 -0.00470395 0)
(0.00472197 -0.00465949 0)
(0.00512337 -0.00459762 0)
(0.00550224 -0.00452887 0)
(0.00585629 -0.00446046 0)
(0.00618451 -0.00438966 0)
(0.00648958 -0.00432466 0)
(0.00677928 -0.00427315 0)
(0.00705725 -0.00423098 0)
(0.00732042 -0.00418984 0)
(0.00757657 -0.00415949 0)
(0.00784272 -0.00410769 0)
(0.00807451 -0.00395538 0)
(0.0082422 -0.00384802 0)
(0.00838121 -0.00377397 0)
(0.00853125 -0.00364432 0)
(0.00871692 -0.00327551 0)
(0.00893792 -0.00260668 0)
(0.00923867 -0.00177464 0)
(0.00970265 -0.000187358 0)
(0.0103974 0.00251554 0)
(0.0110922 0.000144282 0)
(0.0115734 -0.0014376 0)
(0.0119302 -0.00185082 0)
(0.0121655 -0.00224793 0)
(0.012344 -0.00245843 0)
(0.0125375 -0.00248219 0)
(0.012706 -0.00240636 0)
(0.0128343 -0.00226212 0)
(0.0129248 -0.0020825 0)
(0.0130124 -0.00189287 0)
(0.0131147 -0.00166419 0)
(0.0132066 -0.0013794 0)
(0.0132625 -0.00105788 0)
(0.0132772 -0.00072434 0)
(0.0132539 -0.000394218 0)
(0.0131965 -7.61826e-05 0)
(7.9583e-06 -0.000500419 0)
(8.94852e-05 -0.00141565 0)
(0.000248264 -0.00221244 0)
(0.000470763 -0.00289054 0)
(0.000745683 -0.00345784 0)
(0.00106435 -0.00392455 0)
(0.00141953 -0.00430131 0)
(0.00180486 -0.00459828 0)
(0.00221472 -0.00482462 0)
(0.00264394 -0.00498822 0)
(0.00308759 -0.00509582 0)
(0.00354057 -0.00515328 0)
(0.00399736 -0.005166 0)
(0.00445162 -0.00513955 0)
(0.00489595 -0.00508041 0)
(0.00532179 -0.00499649 0)
(0.00572015 -0.00490005 0)
(0.00608405 -0.00480181 0)
(0.00640933 -0.00470082 0)
(0.00669976 -0.00461382 0)
(0.00697087 -0.00455209 0)
(0.00723368 -0.00449565 0)
(0.00748061 -0.00443359 0)
(0.007708 -0.00440114 0)
(0.00794464 -0.00436231 0)
(0.0081809 -0.00414852 0)
(0.00834384 -0.00396715 0)
(0.00845837 -0.00389138 0)
(0.00857725 -0.00377859 0)
(0.00871161 -0.00345404 0)
(0.00890346 -0.00286173 0)
(0.00921114 -0.00213372 0)
(0.00963596 -0.000829655 0)
(0.010736 0.00131524 0)
(0.0117868 -0.000384456 0)
(0.012172 -0.00178451 0)
(0.012552 -0.0021981 0)
(0.0128557 -0.00246117 0)
(0.0130859 -0.00266469 0)
(0.0132866 -0.00266509 0)
(0.0134445 -0.00254416 0)
(0.0135256 -0.0023422 0)
(0.0135449 -0.00213941 0)
(0.0135844 -0.00197459 0)
(0.0136814 -0.00176027 0)
(0.0137792 -0.00145107 0)
(0.0138307 -0.00108752 0)
(0.0138334 -0.000712849 0)
(0.0137956 -0.000345724 0)
(0.0137222 4.86188e-06 0)
(8.03154e-06 -0.000545369 0)
(9.04544e-05 -0.00154022 0)
(0.000251176 -0.00240525 0)
(0.000476661 -0.00314121 0)
(0.000755711 -0.00375729 0)
(0.00107981 -0.00426494 0)
(0.00144193 -0.00467589 0)
(0.00183599 -0.00500119 0)
(0.00225666 -0.00525062 0)
(0.00269922 -0.00543245 0)
(0.00315917 -0.00555344 0)
(0.00363194 -0.00561913 0)
(0.00411243 -0.00563417 0)
(0.0045945 -0.00560294 0)
(0.00507037 -0.00553035 0)
(0.00552993 -0.00542263 0)
(0.00596007 -0.00529122 0)
(0.00634663 -0.00514993 0)
(0.00667805 -0.00500296 0)
(0.00695288 -0.00487977 0)
(0.00718935 -0.00480662 0)
(0.00742585 -0.00475099 0)
(0.00767335 -0.00466816 0)
(0.00788635 -0.00460621 0)
(0.00807087 -0.00457751 0)
(0.00828646 -0.00436453 0)
(0.00851553 -0.00412113 0)
(0.00870583 -0.00403277 0)
(0.00884924 -0.00390128 0)
(0.0089836 -0.00361124 0)
(0.00919775 -0.00313121 0)
(0.00951252 -0.00251858 0)
(0.0100077 -0.00145211 0)
(0.0111651 -0.000210215 0)
(0.0123909 -0.000975633 0)
(0.0128967 -0.00212673 0)
(0.0131838 -0.00255562 0)
(0.0135249 -0.00275798 0)
(0.0138223 -0.00289812 0)
(0.014041 -0.00284279 0)
(0.0141723 -0.0026389 0)
(0.0141977 -0.00234825 0)
(0.014137 -0.00212742 0)
(0.0141297 -0.00204086 0)
(0.0142454 -0.00187277 0)
(0.0143687 -0.00152923 0)
(0.0144205 -0.00110919 0)
(0.0144126 -0.000688927 0)
(0.0143635 -0.000283129 0)
(0.014277 0.000101964 0)
(8.05527e-06 -0.000590676 0)
(9.09365e-05 -0.00166595 0)
(0.000252782 -0.00260008 0)
(0.000480129 -0.00339485 0)
(0.000761926 -0.00406084 0)
(0.00108985 -0.00461076 0)
(0.0014571 -0.00505748 0)
(0.00185787 -0.005413 0)
(0.00228722 -0.00568784 0)
(0.00274086 -0.00589071 0)
(0.00321491 -0.00602854 0)
(0.00370552 -0.00610658 0)
(0.00420848 -0.00612871 0)
(0.00471858 -0.00609784 0)
(0.00522889 -0.00601664 0)
(0.00572946 -0.00588796 0)
(0.00620545 -0.00571902 0)
(0.00663596 -0.00552201 0)
(0.00699608 -0.00530615 0)
(0.00727177 -0.00512031 0)
(0.00746213 -0.0050062 0)
(0.00763373 -0.00498122 0)
(0.00786586 -0.00491053 0)
(0.00808593 -0.00479847 0)
(0.00827097 -0.00476939 0)
(0.00851045 -0.00460905 0)
(0.0088159 -0.00439246 0)
(0.00906792 -0.00421172 0)
(0.00921252 -0.0040309 0)
(0.00935011 -0.00377329 0)
(0.00957501 -0.00342521 0)
(0.00992718 -0.00292805 0)
(0.0104946 -0.00218545 0)
(0.0115215 -0.00153343 0)
(0.0126433 -0.00185616 0)
(0.0133082 -0.00250491 0)
(0.0137195 -0.00294152 0)
(0.0141058 -0.00311267 0)
(0.014422 -0.00316044 0)
(0.0146503 -0.00301832 0)
(0.0148114 -0.00272173 0)
(0.0148604 -0.00229977 0)
(0.0147414 -0.00203275 0)
(0.0146804 -0.00211385 0)
(0.0148293 -0.00203106 0)
(0.0149813 -0.00161878 0)
(0.0150255 -0.00112182 0)
(0.0150076 -0.000656842 0)
(0.0149548 -0.000212049 0)
(0.0148617 0.000211196 0)
(8.0228e-06 -0.000636077 0)
(9.08767e-05 -0.00179215 0)
(0.000252945 -0.00279588 0)
(0.000480908 -0.00365012 0)
(0.000763901 -0.00436685 0)
(0.00109379 -0.00496009 0)
(0.001464 -0.0054439 0)
(0.00186898 -0.00583128 0)
(0.00230409 -0.00613357 0)
(0.00276547 -0.00636007 0)
(0.00324978 -0.00651801 0)
(0.00375391 -0.00661259 0)
(0.00427462 -0.0066471 0)
(0.00480795 -0.00662319 0)
(0.00534862 -0.00654132 0)
(0.00588888 -0.0064004 0)
(0.00641684 -0.00620157 0)
(0.00691225 -0.00594782 0)
(0.00733787 -0.00564097 0)
(0.00765239 -0.00535581 0)
(0.00782324 -0.0051389 0)
(0.0079169 -0.0051493 0)
(0.00810904 -0.00514882 0)
(0.00831835 -0.00499602 0)
(0.0085154 -0.00499969 0)
(0.0088341 -0.00490864 0)
(0.00914 -0.0046815 0)
(0.00934929 -0.00440186 0)
(0.00953606 -0.00419242 0)
(0.00976209 -0.00398555 0)
(0.0100714 -0.00375073 0)
(0.0104993 -0.00340156 0)
(0.011104 -0.00291696 0)
(0.0119881 -0.00259963 0)
(0.0129383 -0.00273686 0)
(0.0136808 -0.00308682 0)
(0.0142072 -0.00337554 0)
(0.0145821 -0.00347274 0)
(0.0148839 -0.00343363 0)
(0.0151477 -0.00323944 0)
(0.0154106 -0.00289099 0)
(0.0156267 -0.0023169 0)
(0.0155106 -0.00178992 0)
(0.0153266 -0.00217367 0)
(0.0154524 -0.00222918 0)
(0.0155956 -0.00169732 0)
(0.0156263 -0.0011277 0)
(0.0156158 -0.000630693 0)
(0.0155739 -0.000143756 0)
(0.01548 0.000326602 0)
(7.93168e-06 -0.000681287 0)
(9.02587e-05 -0.00191807 0)
(0.000251626 -0.00299154 0)
(0.000478925 -0.00390558 0)
(0.000761502 -0.00467356 0)
(0.00109141 -0.00531083 0)
(0.00146222 -0.00583264 0)
(0.00186858 -0.00625305 0)
(0.00230607 -0.00658427 0)
(0.00277109 -0.00683631 0)
(0.00326067 -0.00701684 0)
(0.00377222 -0.0071312 0)
(0.00430317 -0.00718237 0)
(0.00485056 -0.0071711 0)
(0.00541031 -0.00709614 0)
(0.00597607 -0.00695301 0)
(0.00653884 -0.00673812 0)
(0.00709142 -0.0064507 0)
(0.00761488 -0.00606641 0)
(0.00802686 -0.00563979 0)