/*--------------------------------*- C++ -*----------------------------------*\
| =========                 |                                                 |
| \\      /  F ield         | OpenFOAM: The Open Source CFD Toolbox           |
|  \\    /   O peration     | Version:  2.4.0                                 |
|   \\  /    A nd           | Web:      www.OpenFOAM.org                      |
|    \\/     M anipulation  |                                                 |
\*---------------------------------------------------------------------------*/
FoamFile
{
    version     2.0;
    format      ascii;
    class       surfaceScalarField;
    location    "0.127";
    object      phiAlpha;
}
// * * * * * * * * * * * * * * * * * * * * * * * * * * * * * * * * * * * * * //

dimensions      [0 3 -1 0 0 0 0];

internalField   nonuniform List<scalar> 
7080
(
-1.47754e-08
1.47754e-08
-3.80235e-09
-1.09731e-08
2.2436e-08
-2.62383e-08
4.92717e-08
-2.68358e-08
8.05177e-08
-3.1246e-08
1.08217e-07
-2.7699e-08
1.32446e-07
-2.42291e-08
1.4866e-07
-1.62139e-08
1.50544e-07
-1.88404e-09
1.36643e-07
1.39005e-08
1.14034e-07
2.26098e-08
7.6347e-08
3.76866e-08
5.12838e-08
2.50632e-08
-5.20093e-09
5.64847e-08
-3.70488e-08
3.18478e-08
-6.63171e-08
2.92683e-08
-9.72124e-08
3.08954e-08
-1.00723e-07
4.15091e-09
-1.04099e-07
3.37218e-09
-1.37471e-07
3.33675e-08
-1.71721e-07
3.36103e-08
-1.611e-07
-1.06512e-08
-1.40153e-07
-2.09232e-08
-1.15882e-07
-2.43044e-08
-9.14298e-08
-2.44817e-08
-1.01471e-07
9.92008e-09
-1.31796e-07
3.0555e-08
-8.57198e-08
-4.52814e-08
1.69237e-09
-8.6353e-08
5.63271e-09
-3.91571e-09
-3.26232e-08
4.73986e-08
-2.72413e-08
-1.6355e-08
2.0195e-09
-5.54991e-08
3.66682e-08
-6.14845e-08
7.80678e-08
-7.26456e-08
1.18397e-07
-6.80285e-08
1.56057e-07
-6.18888e-08
1.87199e-07
-4.73563e-08
2.00106e-07
-1.47903e-08
2.02889e-07
1.11168e-08
1.85603e-07
3.98961e-08
1.55323e-07
6.79662e-08
1.50064e-07
3.03221e-08
7.86707e-08
1.27878e-07
5.29923e-08
5.75262e-08
2.43269e-08
5.79336e-08
-4.41356e-08
9.93579e-08
-1.04149e-07
6.45689e-08
-1.68824e-07
6.8621e-08
-2.10988e-07
7.4656e-08
-2.5285e-07
7.54722e-08
-2.81561e-07
1.80603e-08
-2.67389e-07
-3.50949e-08
-2.2756e-07
-6.41339e-08
-1.87897e-07
-6.41425e-08
-1.3799e-07
-3.98336e-08
-8.77025e-08
-1.87796e-08
-4.11094e-08
-9.02888e-08
-2.41728e-08
-1.03352e-07
-1.81201e-08
-4.76043e-10
-3.77185e-08
8.51171e-08
-3.47294e-08
-1.93441e-08
-5.69481e-09
-8.45337e-08
2.87567e-08
-9.59359e-08
7.0786e-08
-1.14675e-07
1.12552e-07
-1.09795e-07
1.5221e-07
-1.01546e-07
1.86086e-07
-8.12323e-08
2.01255e-07
-2.99601e-08
2.09428e-07
2.9446e-09
1.91153e-07
5.81709e-08
1.7103e-07
8.8089e-08
1.74509e-07
2.68428e-08
1.09758e-07
1.92629e-07
9.48274e-08
7.24571e-08
7.82218e-08
7.45392e-08
7.85595e-09
1.69724e-07
-6.14239e-08
1.3394e-07
-1.45693e-07
1.5341e-07
-2.1977e-07
1.48021e-07
-2.90739e-07
1.46442e-07
-3.52742e-07
8.00635e-08
-3.60926e-07
-2.69111e-08
-3.27961e-07
-9.71041e-08
-2.75243e-07
-1.16878e-07
-1.78935e-07
-1.33717e-07
-7.82009e-08
-1.21422e-07
-3.92026e-08
-1.31767e-07
-4.06329e-08
-1.03606e-07
-5.84798e-08
-1.06828e-09
-3.91267e-08
1.24244e-07
-3.66309e-08
-2.18398e-08
-7.61264e-09
-1.13552e-07
2.68227e-08
-1.30371e-07
6.89188e-08
-1.56771e-07
1.10905e-07
-1.51781e-07
1.51096e-07
-1.41737e-07
1.85764e-07
-1.159e-07
2.01168e-07
-4.53648e-08
2.11527e-07
-7.41385e-09
1.86399e-07
8.32982e-08
1.79309e-07
9.51789e-08
1.7592e-07
3.02322e-08
1.22274e-07
2.46276e-07
1.25052e-07
6.96784e-08
1.09553e-07
9.00384e-08
4.06538e-08
2.38623e-07
-2.10655e-08
1.95659e-07
-1.12235e-07
2.44733e-07
-1.90784e-07
2.2572e-07
-2.72559e-07
2.28217e-07
-3.37746e-07
1.45251e-07
-3.54625e-07
-1.00479e-08
-3.34764e-07
-1.16971e-07
-2.80714e-07
-1.70945e-07
-2.2125e-07
-1.93238e-07
-1.64247e-07
-1.78468e-07
-1.26227e-07
-1.6979e-07
-7.03847e-08
-1.59451e-07
-1.30352e-07
1.46628e-09
-3.98272e-08
1.64071e-07
-3.74111e-08
-2.4256e-08
-8.21682e-09
-1.42746e-07
2.63246e-08
-1.64913e-07
6.85e-08
-1.98947e-07
1.10619e-07
-1.93899e-07
1.51314e-07
-1.82432e-07
1.86721e-07
-1.51307e-07
2.0246e-07
-6.11041e-08
2.14114e-07
-1.90677e-08
1.82197e-07
1.15216e-07
1.86255e-07
9.11209e-08
1.58491e-07
5.79956e-08
1.23542e-07
2.81225e-07
1.50369e-07
4.28514e-08
1.20894e-07
1.19513e-07
6.08757e-08
2.98641e-07
3.06307e-08
2.25904e-07
-1.7986e-08
2.93377e-07
-1.15434e-07
3.22824e-07
-1.86778e-07
2.99562e-07
-2.26993e-07
1.85414e-07
-2.47373e-07
1.02932e-08
-2.4517e-07
-1.19272e-07
-2.16054e-07
-2.00068e-07
-1.73627e-07
-2.35669e-07
-1.27323e-07
-2.24776e-07
-8.16244e-08
-2.15491e-07
-4.15093e-08
-1.99557e-07
-1.73596e-07
1.74826e-09
-4.05051e-08
2.04576e-07
-3.81105e-08
-2.66505e-08
-8.67402e-09
-1.72183e-07
2.59926e-08
-1.99579e-07
6.82446e-08
-2.41198e-07
1.10473e-07
-2.36128e-07
1.51769e-07
-2.23728e-07
1.8801e-07
-1.87548e-07
2.04628e-07
-7.77225e-08
2.16373e-07
-3.08131e-08
1.82276e-07
1.49313e-07
1.90822e-07
8.25751e-08
1.32261e-07
1.16556e-07
1.18238e-07
2.95248e-07
1.51512e-07
9.57755e-09
1.03076e-07
1.67949e-07
6.82132e-08
3.33504e-07
5.83534e-08
2.35764e-07
6.57999e-08
2.85933e-07
-4.3976e-09
3.92703e-07
-4.69194e-08
3.41818e-07
-6.06278e-08
1.99162e-07
-7.23576e-08
2.21079e-08
-8.1613e-08
-1.09939e-07
-6.75463e-08
-2.13131e-07
-3.79147e-08
-2.65274e-07
-1.84664e-08
-2.44226e-07
-8.39023e-09
-2.2557e-07
-1.62326e-09
-2.06335e-07
-1.7943e-07
4.21014e-09
-4.12981e-08
2.45874e-07
-3.89218e-08
-2.90267e-08
-9.19124e-09
-2.01913e-07
2.56402e-08
-2.34411e-07
6.79474e-08
-2.83506e-07
1.1028e-07
-2.78461e-07
1.52304e-07
-2.65752e-07
1.89499e-07
-2.24743e-07
2.07641e-07
-9.58641e-08
2.1793e-07
-4.11024e-08
1.87609e-07
1.79635e-07
1.96877e-07
7.33066e-08
1.16609e-07
1.96825e-07
1.11022e-07
3.00835e-07
1.19044e-07
1.55518e-09
7.69417e-08
2.10052e-07
8.45212e-08
3.25924e-07
7.8609e-08
2.41676e-07
1.04726e-07
2.59816e-07
1.05257e-07
3.91855e-07
8.70324e-08
3.60024e-07
5.21857e-08
2.34019e-07
3.36856e-08
4.06167e-08
5.55958e-09
-8.17015e-08
-3.64545e-09
-2.03944e-07
1.51219e-08
-2.83257e-07
2.86864e-08
-2.57726e-07
2.59918e-08
-2.22875e-07
1.8327e-08
-1.98679e-07
-1.66677e-07
5.56444e-09
-4.22335e-08
2.88108e-07
-3.98774e-08
-3.13828e-08
-9.79859e-09
-2.31992e-07
2.52284e-08
-2.69438e-07
6.75846e-08
-3.25862e-07
1.10031e-07
-3.20908e-07
1.52897e-07
-3.08617e-07
1.91229e-07
-2.63075e-07
2.11368e-07
-1.16004e-07
2.18303e-07
-4.80372e-08
1.98876e-07
1.99062e-07
2.02649e-07
6.95343e-08
1.27352e-07
2.72121e-07
1.15291e-07
3.12897e-07
9.10436e-08
2.58022e-08
6.10897e-08
2.40006e-07
9.29383e-08
2.94076e-07
7.02256e-08
2.64389e-07
1.07843e-07
2.22198e-07
1.75012e-07
3.25761e-07
1.84656e-07
3.51118e-07
1.65396e-07
2.53317e-07
1.37676e-07
6.83456e-08
9.46361e-08
-3.90676e-08
6.01595e-08
-1.69483e-07
4.63656e-08
-2.68623e-07
2.73768e-08
-2.38568e-07
1.12512e-08
-2.0675e-07
5.71056e-09
-1.93138e-07
-1.6412e-07
3.1375e-09
-4.33185e-08
3.31426e-07
-4.09838e-08
-3.37175e-08
-1.05002e-08
-2.62476e-07
2.47455e-08
-3.04683e-07
6.71502e-08
-3.68267e-07
1.09728e-07
-3.63485e-07
1.53515e-07
-3.52405e-07
1.93304e-07
-3.02864e-07
2.15206e-07
-1.37905e-07
2.18878e-07
-5.17092e-08
2.11494e-07
2.06445e-07
1.93692e-07
8.73361e-08
1.48796e-07
3.17017e-07
1.27912e-07
3.3378e-07
8.02629e-08
7.34515e-08
4.13292e-08
2.78939e-07
6.61915e-08
2.69214e-07
4.22473e-08
2.88333e-07
7.07703e-08
1.93675e-07
1.83217e-07
2.13382e-07
2.61253e-07
2.73289e-07
2.69494e-07
2.45036e-07
2.29898e-07
1.06348e-07
1.86568e-07
4.24483e-09
1.54659e-07
-1.3759e-07
1.25718e-07
-2.39447e-07
7.72222e-08
-1.89931e-07
2.3207e-08
-1.52734e-07
-4.89226e-10
-1.69442e-07
-1.66295e-07
1.6861e-09
-4.45573e-08
3.75983e-07
-4.22436e-08
-3.60312e-08
-1.12971e-08
-2.93422e-07
2.42085e-08
-3.40189e-07
6.66392e-08
-4.10697e-07
1.09373e-07
-4.0622e-07
1.54138e-07
-3.97169e-07
1.95762e-07
-3.44488e-07
2.18795e-07
-1.60939e-07
2.22554e-07
-5.54682e-08
2.16981e-07
2.12019e-07
1.7963e-07
1.24686e-07
1.63858e-07
3.3279e-07
1.3583e-07
3.61808e-07
8.39025e-08
1.25379e-07
3.18132e-08
3.31029e-07
4.48563e-08
2.5617e-07
7.18486e-08
2.61341e-07
6.80472e-08
1.97477e-07
1.37802e-07
1.43627e-07
2.56492e-07
1.54599e-07
3.0867e-07
1.91954e-07
2.91336e-07
1.23328e-07
2.51946e-07
4.36195e-08
2.06776e-07
-9.24357e-08
1.3509e-07
-1.67485e-07
8.05928e-08
-1.35433e-07
4.47659e-08
-1.16907e-07
1.43488e-08
-1.39025e-07
-1.53024e-07
1.08838e-09
-4.59537e-08
4.21937e-07
-4.36594e-08
-3.83255e-08
-1.21899e-08
-3.24892e-07
2.36272e-08
-3.76006e-07
6.60461e-08
-4.53116e-07
1.08966e-07
-4.49139e-07
1.54783e-07
-4.42986e-07
1.985e-07
-3.88205e-07
2.22833e-07
-1.85272e-07
2.28139e-07
-6.07735e-08
2.1749e-07
2.22668e-07
1.8062e-07
1.61556e-07
1.77941e-07
3.35469e-07
1.39943e-07
3.99806e-07
8.51584e-08
1.80164e-07
5.53563e-08
3.60831e-07
6.20102e-08
2.49516e-07
1.05379e-07
2.17972e-07
9.82903e-08
2.04565e-07
1.14196e-07
1.27721e-07
2.18978e-07
4.98173e-08
2.95016e-07
1.15916e-07
2.87237e-07
1.30237e-07
2.66665e-07
6.41747e-08
2.46723e-07
-7.21165e-08
1.48356e-07
-6.88073e-08
6.45348e-08
-5.16118e-08
4.913e-08
-1.01503e-07
2.73439e-08
-1.17231e-07
-1.21455e-07
-4.17068e-09
-4.7512e-08
4.69449e-07
-4.52338e-08
-4.06037e-08
-1.31787e-08
-3.56947e-07
2.29558e-08
-4.12141e-07
6.53639e-08
-4.95524e-07
1.08503e-07
-4.92278e-07
1.55466e-07
-4.8995e-07
2.01505e-07
-4.34244e-07
2.2776e-07
-2.11527e-07
2.33043e-07
-6.60568e-08
2.19055e-07
2.36656e-07
1.96681e-07
1.8393e-07
1.80033e-07
3.52118e-07
1.34314e-07
4.45524e-07
9.66839e-08
2.17794e-07
8.84734e-08
3.69041e-07
8.272e-08
2.5527e-07
1.17208e-07
1.83484e-07
1.43308e-07
1.78465e-07
1.50359e-07
1.2067e-07
1.85859e-07
1.43181e-08
2.4282e-07
5.89542e-08
2.42514e-07
1.30351e-07
2.28233e-07
7.85295e-08
1.94582e-07
-3.83786e-08
1.4934e-07
-2.35567e-08
1.27291e-07
-2.95632e-08
7.2289e-08
-4.65006e-08
1.13696e-08
-5.63118e-08
-1.02519e-07
-7.56858e-09
-4.92372e-08
5.18686e-07
-4.69699e-08
-4.2871e-08
-1.42644e-08
-3.89652e-07
2.22447e-08
-4.4865e-07
6.45848e-08
-5.37864e-07
1.07979e-07
-5.35672e-07
1.56187e-07
-5.38158e-07
2.04889e-07
-4.82946e-07
2.33165e-07
-2.39803e-07
2.37059e-07
-6.99507e-08
2.26394e-07
2.4732e-07
2.07592e-07
2.02733e-07
1.7349e-07
3.86219e-07
1.31256e-07
4.87758e-07
8.50463e-08
2.64004e-07
1.05253e-07
3.48834e-07
1.0652e-07
2.54002e-07
1.0722e-07
1.82785e-07
1.42464e-07
1.43222e-07
1.44403e-07
1.1873e-07
1.4473e-07
1.39904e-08
1.62417e-07
4.12681e-08
1.78049e-07
1.14718e-07
2.10574e-07
4.60052e-08
2.08765e-07
-3.65699e-08
1.94908e-07
-9.69994e-09
1.42708e-07
2.26373e-08
2.88475e-08
6.73597e-08
-1.10894e-08
-1.63785e-08
-1.18891e-07
5.28056e-09
-5.11344e-08
5.69821e-07
-4.88713e-08
-4.51341e-08
-1.5447e-08
-4.23077e-07
2.14288e-08
-4.85526e-07
6.37e-08
-5.80136e-07
1.07386e-07
-5.79357e-07
1.5694e-07
-5.87712e-07
2.08723e-07
-5.34729e-07
2.38404e-07
-2.69484e-07
2.4345e-07
-7.49972e-08
2.33792e-07
2.56978e-07
2.11917e-07
2.24608e-07
1.62824e-07
4.35312e-07
1.26395e-07
5.24188e-07
8.06226e-08
3.09776e-07
1.09493e-07
3.19964e-07
1.17246e-07
2.46249e-07
9.32656e-08
2.06765e-07
1.29363e-07
1.07124e-07
1.67936e-07
8.01575e-08
1.74023e-07
7.90368e-09
1.83808e-07
3.1483e-08
2.0283e-07
9.56959e-08
1.72658e-07
7.61773e-08
8.03822e-08
5.57062e-08
1.60496e-09
6.90764e-08
-6.17859e-08
8.60154e-08
-6.57227e-08
7.12765e-08
-2.00832e-08
-6.20275e-08
-1.3748e-07
-1.55389e-09
-5.32098e-08
6.23031e-07
-5.09413e-08
-4.74026e-08
-1.67279e-08
-4.5729e-07
2.05757e-08
-5.22829e-07
6.2698e-08
-6.22258e-07
1.0671e-07
-6.2337e-07
1.57733e-07
-6.38735e-07
2.1287e-07
-5.89866e-07
2.43938e-07
-3.00552e-07
2.52683e-07
-8.37418e-08
2.39423e-07
2.70237e-07
2.0749e-07
2.56541e-07
1.61545e-07
4.81258e-07
1.28284e-07
5.57448e-07
9.03111e-08
3.47749e-07
1.01877e-07
3.08398e-07
1.08473e-07
2.39653e-07
8.062e-08
2.34619e-07
6.69046e-08
1.20839e-07
4.59504e-08
1.01112e-07
2.79398e-08
2.59142e-08
3.95883e-08
1.98345e-08
5.62102e-08
7.9074e-08
2.21511e-08
1.10236e-07
-4.99541e-08
1.27811e-07
-7.93654e-08
9.85036e-08
-5.74622e-08
6.41126e-08
-1.40016e-08
2.78167e-08
3.21905e-09
-7.92479e-08
-1.264e-07
-7.86141e-09
-5.54695e-08
6.785e-07
-5.31844e-08
-4.96876e-08
-1.81072e-08
-4.92367e-07
1.96289e-08
-5.60565e-07
6.15659e-08
-6.64195e-07
1.05938e-07
-6.67742e-07
1.58568e-07
-6.91364e-07
2.17161e-07
-6.48459e-07
2.50668e-07
-3.34059e-07
2.63719e-07
-9.6793e-08
2.36036e-07
2.9792e-07
2.12556e-07
2.80021e-07
1.87063e-07
5.06751e-07
1.3923e-07
6.05282e-07
8.52981e-08
4.01681e-07
1.11378e-07
2.82318e-07
8.89366e-08
2.62094e-07
4.87705e-08
2.74785e-07
5.36096e-08
1.16e-07
6.46047e-08
9.01167e-08
6.88528e-08
2.1666e-08
7.27285e-08
1.59589e-08
1.04634e-07
4.71685e-08
1.34729e-07
8.01411e-08
1.44919e-07
1.17621e-07
1.51319e-07
9.2106e-08
1.41522e-07
7.39222e-08
1.25247e-07
4.40993e-08
7.71865e-08
-3.11859e-08
-4.24986e-08
-6.71532e-09
-5.79207e-08
7.36421e-07
-5.56049e-08
-5.20034e-08
-1.95864e-08
-5.28386e-07
1.86019e-08
-5.98754e-07
6.02869e-08
-7.0588e-07
1.05056e-07
-7.12511e-07
1.59413e-07
-7.45722e-07
2.21615e-07
-7.10661e-07
2.59553e-07
-3.71997e-07
2.69755e-07
-1.06995e-07
2.34254e-07
3.33422e-07
2.44047e-07
2.70227e-07
2.16494e-07
5.34304e-07
1.29986e-07
6.91789e-07
4.64957e-08
4.85172e-07
-5.06599e-10
3.2932e-07
8.00274e-09
2.53585e-07
5.67605e-08
2.26027e-07
9.47698e-08
7.79906e-08
1.3651e-07
4.83765e-08
1.20382e-07
3.77938e-08
6.33459e-08
7.29951e-08
8.69821e-08
2.35324e-08
1.36514e-07
3.06088e-08
2.00687e-07
5.34487e-08
2.31105e-07
6.16877e-08
2.18101e-07
8.6927e-08
1.906e-07
7.15998e-08
1.13282e-07
4.61325e-08
7.2761e-08
-1.9894e-09
-6.05712e-08
7.96992e-07
-5.82074e-08
-5.43672e-08
-2.11675e-08
-5.65426e-07
1.75138e-08
-6.37435e-07
5.88446e-08
-7.47211e-07
1.04049e-07
-7.57716e-07
1.60194e-07
-8.01866e-07
2.26772e-07
-7.77239e-07
2.67858e-07
-4.13083e-07
2.71648e-07
-1.10785e-07
2.43023e-07
3.62047e-07
2.69942e-07
2.43308e-07
1.81691e-07
6.22556e-07
6.0805e-08
8.12675e-07
-4.83833e-09
5.50815e-07
3.31306e-08
2.91351e-07
1.08746e-07
1.77969e-07
1.38001e-07
1.96773e-07
1.09769e-07
1.06222e-07
9.34758e-08
6.46699e-08
6.25527e-08
6.87169e-08
-5.75451e-08
1.93093e-07
-9.52002e-08
6.11876e-08
-4.61133e-08
-1.84773e-08
3.84483e-08
-3.1111e-08
9.69553e-08
3.18096e-09
1.041e-07
7.97826e-08
9.19855e-08
8.37139e-08
4.38142e-08
9.42902e-08
1.17521e-07
-9.5654e-10
-6.34294e-08
8.60421e-07
-6.09972e-08
-5.67994e-08
-2.28528e-08
-6.0357e-07
1.63572e-08
-6.76645e-07
5.72295e-08
-7.88083e-07
1.02898e-07
-8.03384e-07
1.60938e-07
-8.59906e-07
2.32379e-07
-8.4868e-07
2.72014e-07
-4.52718e-07
2.73998e-07
-1.12768e-07
2.45913e-07
3.90132e-07
2.72613e-07
2.16607e-07
2.25725e-07
6.69444e-07
1.23404e-07
9.14996e-07
1.95593e-08
6.54659e-07
7.15798e-08
2.39331e-07
7.84917e-08
1.71057e-07
-2.45126e-08
2.99777e-07
8.01762e-09
7.36917e-08
7.52172e-08
-2.52968e-09
1.26076e-07
1.78584e-08
6.4755e-08
2.54413e-07
-1.06576e-07
2.32519e-07
-1.87515e-07
6.24753e-08
-1.49308e-07
-6.93205e-08
-7.135e-08
-7.47857e-08
-5.62926e-08
6.47173e-08
-5.01114e-08
7.75303e-08
-2.99831e-08
7.41594e-08
8.58496e-08
1.68611e-09
-6.65045e-08
9.26926e-07
-6.39785e-08
-5.93254e-08
-2.46461e-08
-6.42902e-07
1.51302e-08
-7.16421e-07
5.54363e-08
-8.28389e-07
1.01567e-07
-8.49515e-07
1.61646e-07
-9.19985e-07
2.35423e-07
-9.22457e-07
2.66845e-07
-4.8414e-07
2.66261e-07
-1.12185e-07
2.23884e-07
4.32509e-07
2.3576e-07
2.04732e-07
2.19277e-08
8.83276e-07
-8.1827e-08
1.01875e-06
-5.97279e-08
6.3256e-07
-1.72435e-08
1.96846e-07
-5.66207e-08
2.10434e-07
-5.10817e-08
2.94238e-07
-3.99451e-08
6.2555e-08
4.7894e-08
-9.03688e-08
1.6867e-07
-1.02918e-07
1.53763e-07
2.6932e-07
8.05483e-08
3.05734e-07
-5.74257e-08
2.00452e-07
-1.43261e-07
1.65192e-08
-1.49584e-07
-6.84607e-08
-1.25489e-07
4.06264e-08
-1.08872e-07
6.09178e-08
-6.11506e-08
2.64498e-08
2.53594e-08
-6.44947e-10
-6.97946e-08
9.96721e-07
-6.71817e-08
-6.19383e-08
-2.65517e-08
-6.83532e-07
1.38378e-08
-7.56811e-07
5.34587e-08
-8.6801e-07
1.00026e-07
-8.96082e-07
1.60889e-07
-9.80849e-07
2.26223e-07
-9.87791e-07
2.39298e-07
-4.97215e-07
2.37053e-07
-1.0994e-07
1.98441e-07
4.71121e-07
3.1304e-07
8.57729e-08
2.82467e-07
9.13849e-07
1.12509e-07
1.18871e-06
-5.50465e-08
8.00116e-07
-1.23069e-08
1.54107e-07
5.90142e-08
1.39113e-07
-2.01973e-08
3.73449e-07
-1.42438e-07
1.84809e-07
-3.17967e-09
-2.28638e-07
1.10859e-07
-2.14799e-07
1.51825e-07
2.2864e-07
1.95728e-07
2.61831e-07
7.21504e-08
3.24029e-07
-1.3866e-08
1.02536e-07
-9.34125e-08
1.10859e-08
-1.0363e-07
5.08455e-08
-8.25404e-08
3.98259e-08
-4.88007e-08
-7.28998e-09
-1.95626e-08
-3.87866e-09
-7.33536e-08
1.07007e-06
-7.04528e-08
-6.48392e-08
-2.8582e-08
-7.25403e-07
1.24805e-08
-7.97873e-07
5.12624e-08
-9.06792e-07
9.81066e-08
-9.42926e-07
1.51046e-07
-1.03379e-06
1.82612e-07
-1.01936e-06
1.8616e-07
-5.00761e-07
2.40729e-07
-1.63643e-07
1.42662e-07
4.40083e-07
9.898e-08
8.251e-08
2.7218e-07
7.39112e-07
2.29147e-07
1.23174e-06
9.14125e-08
9.3785e-07
-7.68664e-08
3.22386e-07
5.03531e-08
1.14416e-08
9.03034e-08
3.32988e-07
-1.70453e-08
2.92153e-07
-1.21707e-08
-2.32301e-07
-1.68061e-08
-2.10213e-07
3.49498e-08
1.76859e-07
9.39922e-08
2.02789e-07
8.9135e-08
3.28886e-07
4.97461e-08
1.41924e-07
-1.84813e-08
7.93144e-08
-3.79048e-08
7.02672e-08
-2.04972e-08
2.24182e-08
-1.18666e-08
-1.59206e-08
-2.69316e-08
-4.49779e-09
-7.73545e-08
1.14743e-06
-7.43571e-08
-6.78366e-08
-3.07327e-08
-7.69028e-07
1.10479e-08
-8.39654e-07
4.86726e-08
-9.44417e-07
9.39998e-08
-9.88253e-07
1.11478e-07
-1.05127e-06
7.86011e-08
-9.86479e-07
1.71072e-07
-5.42437e-07
1.05736e-07
-5.28054e-08
-3.13412e-07
3.03192e-07
-5.39236e-07
2.22046e-07
-1.46571e-07
3.46542e-07
1.36123e-07
9.49049e-07
-4.99449e-08
1.11925e-06
-2.1508e-07
4.86516e-07
-4.03454e-08
-1.64149e-07
3.52395e-08
2.57268e-07
-3.3195e-08
3.60551e-07
3.96386e-08
-3.05188e-07
2.19489e-08
-1.92572e-07
-2.08423e-08
2.1955e-07
1.11648e-08
1.70781e-07
4.7268e-08
2.92783e-07
-1.68663e-09
1.90879e-07
-2.11351e-08
9.8763e-08
-3.23487e-09
5.23685e-08
2.15047e-08
-2.32139e-09
1.52118e-08
-9.62773e-09
-5.86921e-09
-5.85058e-09
-7.94113e-08
1.22684e-06
-7.752e-08
-6.97279e-08
-3.29906e-08
-8.13557e-07
9.45539e-09
-8.821e-07
4.48935e-08
-9.79855e-07
7.87448e-08
-1.0221e-06
2.23269e-08
-9.94849e-07
-2.19676e-08
-9.42165e-07
2.13564e-08
-1.68021e-07
-2.03303e-08
-1.31309e-09
-2.99993e-07
1.57128e-07
-6.03101e-07
3.58764e-07
-5.41396e-07
2.21143e-07
-1.98846e-07
5.88616e-07
-1.80508e-07
1.10384e-06
-2.56441e-07
5.6158e-07
-2.08467e-07
-2.12267e-07
-5.86998e-08
1.06859e-07
1.12493e-07
1.88414e-07
1.62504e-07
-3.57844e-07
7.45582e-09
-3.75761e-08
-1.21677e-07
3.48744e-07
-1.39397e-07
1.88502e-07
-9.8115e-08
2.515e-07
-1.032e-07
1.95964e-07
-7.11862e-08
6.67489e-08
-1.33667e-08
-5.44966e-09
1.80887e-08
-3.37738e-08
1.17634e-08
-3.30239e-09
1.44781e-08
-8.58384e-09
-9.37589e-08
1.3206e-06
-8.25591e-08
-8.09277e-08
-3.54124e-08
-8.60704e-07
7.23249e-09
-9.24744e-07
3.66516e-08
-1.00927e-06
3.16122e-08
-1.01707e-06
-7.7084e-08
-8.8603e-07
8.9393e-08
-6.036e-07
-3.78281e-08
-7.08446e-10
-1.51442e-07
1.98156e-09
-4.40737e-07
4.02879e-08
-6.27371e-07
1.91092e-07
-6.568e-07
1.26554e-07
-4.17963e-07
3.36898e-07
-2.79469e-07
9.6539e-07
-3.211e-07
6.02341e-07
-3.62041e-07
-1.72395e-07
-1.81739e-07
-7.35166e-08
7.12794e-08
-6.46771e-08
6.08208e-08
-3.44197e-07
-7.95439e-08
1.01992e-07
-2.62072e-07
5.31264e-07
-2.85294e-07
2.11724e-07
-2.19703e-07
1.85909e-07
-1.88652e-07
1.64913e-07
-1.12738e-07
-9.13793e-09
-5.14532e-08
-6.67149e-08
-2.40792e-08
-6.11493e-08
-9.36567e-09
-1.80146e-08
8.80382e-09
-3.69254e-09
-6.19121e-08
1.38251e-06
-8.54561e-08
-5.73836e-08
-3.78208e-08
-9.08339e-07
2.10227e-09
-9.64668e-07
1.40128e-08
-1.02118e-06
-6.05734e-08
-9.42479e-07
8.59025e-08
-9.96793e-07
1.28731e-08
-1.57361e-07
5.50369e-10
3.38299e-09
-3.88781e-12
-1.32276e-10
-1.50539e-07
-4.17028e-09
-5.32376e-07
6.83689e-08
-6.92323e-07
1.27649e-09
-5.36704e-07
1.0879e-07
-3.23901e-07
7.52563e-07
-3.73424e-07
6.53931e-07
-4.41147e-07
-1.04664e-07
-3.04752e-07
-2.09916e-07
-1.50419e-07
-2.16033e-07
-1.73149e-07
-3.2209e-07
-2.39081e-07
1.65357e-07
-3.72195e-07
6.64378e-07
-3.54677e-07
1.94206e-07
-2.84629e-07
1.15861e-07
-2.15911e-07
9.62611e-08
-1.31774e-07
-9.32753e-08
-9.63137e-08
-1.02176e-07
-6.54513e-08
-9.2012e-08
-3.16318e-08
-5.18443e-08
-2.10957e-08
-1.73256e-09
-1.61388e-07
1.5439e-06
-8.91729e-08
-1.29599e-07
-4.18303e-08
-9.55682e-07
-1.03339e-08
-9.96164e-07
-4.53605e-08
-9.86158e-07
-1.4446e-07
-8.29053e-07
1.05096e-07
-4.27696e-07
-1.18631e-09
-8.3719e-09
1.79664e-10
-1.2923e-11
-7.76281e-11
5.68032e-11
-2.87867e-08
-6.01725e-10
-2.25682e-07
-1.01577e-08
-6.54097e-07
-8.25472e-08
-6.13141e-07
-1.40699e-07
-3.97964e-07
5.37293e-07
-3.74184e-07
6.30151e-07
-4.5657e-07
-2.22707e-08
-3.93825e-07
-2.72664e-07
-3.06395e-07
-2.99298e-07
-3.30908e-07
-2.98195e-07
-3.28732e-07
1.59799e-07
-3.98187e-07
7.33833e-07
-3.6549e-07
1.61509e-07
-2.60258e-07
1.06292e-08
-1.93999e-07
3.00232e-08
-1.34871e-07
-1.52353e-07
-1.08252e-07
-1.28795e-07
-7.63614e-08
-1.23902e-07
-4.22402e-08
-8.60004e-08
-6.03651e-08
-2.97112e-09
1.28928e-08
1.53101e-06
-9.45165e-08
-2.21897e-08
-4.98891e-08
-1.00031e-06
-4.84147e-08
-9.97638e-07
-1.4455e-07
-8.90017e-07
3.71522e-07
-1.04492e-06
7.03407e-09
-6.77453e-08
1.01668e-10
-1.46935e-09
1.97936e-11
-1.69955e-11
6.2175e-11
6.30323e-12
-9.42297e-10
-1.22244e-09
-1.51084e-08
-6.33041e-10
-2.47772e-07
-4.15068e-08
-7.23639e-07
-1.90134e-07
-4.57853e-07
2.71499e-07
-3.66246e-07
5.38537e-07
-4.26659e-07
3.81426e-08
-4.64164e-07
-2.35182e-07
-4.75554e-07
-2.84874e-07
-4.70417e-07
-3.03971e-07
-4.08863e-07
9.75306e-08
-4.3211e-07
7.52476e-07
-3.71237e-07
1.00636e-07
-1.77334e-07
-1.83274e-07
-1.29206e-07
-1.81054e-08
-1.13624e-07
-1.67933e-07
-7.96974e-08
-1.62722e-07
-5.56454e-08
-1.48022e-07
-3.03017e-08
-1.11344e-07
-9.43687e-08
3.70144e-09
-1.94529e-07
1.72554e-06
-8.37364e-08
-1.32983e-07
-8.06168e-08
-1.00343e-06
-1.42132e-07
-9.36122e-07
-8.80861e-08
-8.91146e-07
5.23561e-08
-2.532e-07
1.33734e-09
-6.85219e-09
1.61312e-11
-1.22376e-10
9.38335e-13
-1.1649e-12
4.36122e-12
1.12102e-12
-9.87108e-11
-2.0757e-11
-4.20982e-10
-1.13792e-10
-3.91217e-08
-2.95053e-09
-5.06018e-07
-5.7034e-08
-5.70045e-07
-8.62341e-09
-4.31517e-07
3.99999e-07
-4.20715e-07
2.73172e-08
-5.33137e-07
-1.22799e-07
-6.3987e-07
-1.76905e-07
-5.99138e-07
-3.44005e-07
-4.56778e-07
-4.72016e-08
-4.25142e-07
7.19065e-07
-3.89263e-07
6.47574e-08
-1.42674e-07
-4.29868e-07
-3.48621e-08
-1.25916e-07
-6.07816e-08
-1.42026e-07
-2.92211e-08
-1.94318e-07
-1.82607e-08
-1.58986e-07
-3.56166e-09
-1.2604e-07
-1.10349e-07
1.27303e-08
-1.69229e-08
1.74246e-06
-1.30399e-07
-1.95067e-08
-1.77047e-07
-9.5678e-07
-2.62986e-07
-8.11754e-07
2.45341e-07
-3.58481e-07
6.45145e-09
-1.35018e-08
1.20541e-10
-4.94678e-10
1.27779e-12
-2.77525e-12
1.21806e-13
-1.65365e-14
8.04088e-13
1.73992e-13
-2.32861e-11
6.89505e-13
-5.95852e-11
-1.57216e-11
-2.94513e-09
-2.04576e-10
-5.75302e-08
-2.57782e-09
-4.83113e-07
-3.36267e-08
-5.03039e-07
1.92789e-07
-5.44361e-07
3.68774e-08
-6.0926e-07
-6.05001e-08
-6.39397e-07
-1.47801e-07
-6.39482e-07
-3.45146e-07
-4.78258e-07
-2.09404e-07
-3.26878e-07
5.68038e-07
-3.05047e-07
4.29261e-08
-1.59536e-07
-5.75378e-07
-3.40192e-09
-2.82048e-07
3.24019e-09
-1.48674e-07
-2.21504e-09
-1.88867e-07
7.55995e-09
-1.68763e-07
2.13141e-08
-1.39765e-07
1.92174e-08
-1.0819e-07
-7.70164e-09
3.88133e-09
8.16005e-08
-8.8242e-08
1.29326e-07
-4.70547e-08
1.00209e-07
2.93112e-08
9.27048e-08
7.40347e-09
1.19752e-07
-2.70788e-08
1.4568e-07
-2.59633e-08
1.65868e-07
-2.01704e-08
1.75788e-07
-9.95568e-09
1.41387e-07
3.37736e-08
1.08647e-07
3.27347e-08
1.04542e-07
4.10007e-09
1.00416e-07
4.77731e-09
6.83409e-08
3.20753e-08
3.74147e-08
3.09262e-08
4.03264e-09
3.33821e-08
-5.2676e-08
5.67086e-08
-7.68114e-08
2.41354e-08
-1.1586e-07
3.90482e-08
-1.39255e-07
2.33954e-08
-1.53302e-07
1.40476e-08
-1.49727e-07
-3.57595e-09
-1.33173e-07
-1.65535e-08
-1.0857e-07
-2.46032e-08
-8.07457e-08
-2.78241e-08
-4.9345e-08
-3.14007e-08
-2.24566e-08
-2.68884e-08
3.79107e-09
-2.62476e-08
1.47521e-08
-1.0961e-08
1.47521e-08
1.94411e-08
-1.60918e-08
3.77058e-08
-1.06569e-07
8.45003e-08
-9.22887e-08
1.36735e-07
-2.19689e-08
1.88936e-07
-4.46492e-08
2.31467e-07
-6.96082e-08
2.72619e-07
-6.71148e-08
2.8735e-07
-3.4901e-08
2.5833e-07
1.90644e-08
2.16637e-07
7.54669e-08
1.74536e-07
7.39418e-08
1.09207e-07
6.9998e-08
4.76049e-08
6.68037e-08
-2.24559e-08
1.02136e-07
-5.30191e-08
6.14894e-08
-7.98866e-08
6.02496e-08
-1.51255e-07
1.28077e-07
-1.55579e-07
2.84594e-08
-1.87507e-07
7.0977e-08
-2.05816e-07
4.17042e-08
-2.03248e-07
1.14793e-08
-1.88377e-07
-1.84465e-08
-1.56897e-07
-4.80343e-08
-1.18812e-07
-6.2688e-08
-7.8346e-08
-6.829e-08
-3.67783e-08
-7.29684e-08
-2.07537e-09
-6.15913e-08
2.71906e-08
-5.55135e-08
3.25673e-08
-1.63378e-08
4.73194e-08
3.97446e-08
-5.77137e-08
4.02812e-08
-1.08775e-07
7.85361e-08
-1.33065e-07
1.80171e-07
-1.25473e-07
2.76462e-07
-1.38721e-07
3.31527e-07
-1.24694e-07
3.65592e-07
-1.01186e-07
3.59106e-07
-2.84156e-08
2.98277e-07
7.98941e-08
2.26474e-07
1.4727e-07
1.5199e-07
1.477e-07
6.70896e-08
1.55405e-07
-4.69344e-09
1.38697e-07
-7.66236e-08
1.74066e-07
-9.48602e-08
7.97261e-08
-1.10727e-07
7.61167e-08
-1.75372e-07
1.92721e-07
-1.71323e-07
2.44104e-08
-1.93123e-07
9.27775e-08
-2.12441e-07
6.10217e-08
-2.04458e-07
3.4968e-09
-1.87202e-07
-3.5703e-08
-1.5304e-07
-8.21958e-08
-1.12963e-07
-1.02765e-07
-7.1072e-08
-1.10181e-07
-2.88704e-08
-1.1517e-07
5.63128e-09
-9.60931e-08
3.46692e-08
-8.45514e-08
3.76551e-08
-1.93238e-08
8.49746e-08
7.38218e-08
-1.30077e-07
1.26813e-07
-1.61769e-07
1.66215e-07
-1.72469e-07
2.22647e-07
-1.81905e-07
2.81616e-07
-1.97692e-07
3.35314e-07
-1.78414e-07
3.56788e-07
-1.22666e-07
3.43025e-07
-1.46634e-08
2.79769e-07
1.4315e-07
1.97529e-07
2.29511e-07
1.18955e-07
2.25518e-07
2.64308e-08
2.48073e-07
-3.78038e-08
2.02932e-07
-1.08122e-07
2.44384e-07
-1.25476e-07
9.70803e-08
-1.22841e-07
7.34817e-08
-1.76374e-07
2.46255e-07
-1.79559e-07
2.75952e-08
-1.88446e-07
1.01664e-07
-2.14595e-07
8.71704e-08
-2.04468e-07
-6.62996e-09
-1.8682e-07
-5.33508e-08
-1.51915e-07
-1.17101e-07
-1.11307e-07
-1.43373e-07
-6.92052e-08
-1.52283e-07
-2.69366e-08
-1.57438e-07
7.54834e-09
-1.30578e-07
3.65697e-08
-1.13573e-07
3.90617e-08
-2.18158e-08
1.24036e-07
4.47835e-08
-1.73097e-07
8.24465e-08
-1.99422e-07
1.26697e-07
-2.16722e-07
1.71603e-07
-2.26814e-07
2.13833e-07
-2.39926e-07
2.43224e-07
-2.07807e-07
2.48013e-07
-1.27543e-07
2.30916e-07
2.38128e-09
1.93802e-07
1.80218e-07
1.24077e-07
2.99235e-07
2.70056e-08
3.22177e-07
-2.50902e-08
3.00222e-07
-5.79584e-08
2.35801e-07
-1.19294e-07
3.0572e-07
-1.51136e-07
1.28923e-07
-1.24215e-07
4.656e-08
-1.58224e-07
2.80264e-07
-1.8626e-07
5.5631e-08
-1.84354e-07
9.97585e-08
-2.17258e-07
1.20074e-07
-2.059e-07
-1.79879e-08
-1.87697e-07
-7.15533e-08
-1.52113e-07
-1.52685e-07
-1.11006e-07
-1.8448e-07
-6.87839e-08
-1.94505e-07
-2.64325e-08
-1.9979e-07
8.15388e-09
-1.65164e-07
3.73502e-08
-1.42769e-07
3.97614e-08
-2.42271e-08
1.63798e-07
9.14742e-09
-1.78036e-07
1.27647e-08
-2.03049e-07
1.95522e-08
-2.23513e-07
3.72735e-08
-2.44534e-07
6.7245e-08
-2.69855e-07
8.2449e-08
-2.21954e-07
7.39253e-08
-1.18895e-07
6.50334e-08
1.13633e-08
5.43244e-08
1.9097e-07
1.50522e-08
3.38297e-07
-5.79725e-08
3.9487e-07
-5.353e-08
2.95783e-07
-6.50283e-08
2.47299e-07
-1.01783e-07
3.42474e-07
-1.52797e-07
1.79937e-07
-1.19566e-07
1.33286e-08
-1.31963e-07
2.92662e-07
-1.90426e-07
1.14094e-07
-1.84538e-07
9.38715e-08
-2.19632e-07
1.55168e-07
-2.08242e-07
-2.9378e-08
-1.8888e-07
-9.09152e-08
-1.52543e-07
-1.89022e-07
-1.1084e-07
-2.26183e-07
-6.85247e-08
-2.3682e-07
-2.61031e-08
-2.42211e-07
8.61315e-09
-1.99881e-07
3.80502e-08
-1.72206e-07
4.04385e-08
-2.66154e-08
2.04236e-07
-8.92789e-09
-1.63546e-07
-2.04271e-08
-1.9156e-07
-2.62571e-08
-2.17683e-07
-1.35232e-08
-2.57228e-07
6.33055e-09
-2.89012e-07
-2.11151e-09
-2.13529e-07
-3.02131e-08
-9.06485e-08
-4.65351e-08
2.76881e-08
-7.85725e-08
2.23012e-07
-9.83036e-08
3.57954e-07
-9.95385e-08
3.95773e-07
-7.48107e-08
2.71056e-07
-8.08657e-08
2.53354e-07
-7.60336e-08
3.37642e-07
-1.2178e-07
2.25683e-07
-1.14128e-07
5.67643e-09
-1.17451e-07
2.95985e-07
-1.95975e-07
1.92618e-07
-1.8993e-07
8.78265e-08
-2.21351e-07
1.86589e-07
-2.11466e-07
-3.92634e-08
-1.90241e-07
-1.1214e-07
-1.53048e-07
-2.26216e-07
-1.10632e-07
-2.68598e-07
-6.8223e-08
-2.7923e-07
-2.57472e-08
-2.84687e-07
9.13277e-09
-2.34761e-07
3.88622e-08
-2.01935e-07
4.12306e-08
-2.89838e-08
2.45467e-07
-1.51784e-10
-1.60279e-07
-6.43875e-09
-1.85274e-07
-2.35524e-08
-2.0057e-07
-4.3323e-08
-2.37335e-07
-5.70078e-08
-2.74408e-07
-9.1187e-08
-1.79365e-07
-1.31896e-07
-5.03464e-08
-1.60241e-07
5.60369e-08
-1.78724e-07
2.41508e-07
-1.68491e-07
3.48421e-07
-1.04205e-07
3.32529e-07
-6.76463e-08
2.34497e-07
-9.0424e-08
2.76132e-07
-6.04897e-08
3.07708e-07
-9.42933e-08
2.59487e-07
-1.2103e-07
3.24129e-08
-1.29826e-07
3.04781e-07
-2.00486e-07
2.63278e-07
-2.01314e-07
8.8654e-08
-2.2192e-07
2.07195e-07
-2.1545e-07
-4.5733e-08
-1.91818e-07
-1.35773e-07
-1.53604e-07
-2.64429e-07
-1.10371e-07
-3.11831e-07
-6.78553e-08
-3.21745e-07
-2.53273e-08
-3.27215e-07
9.74291e-09
-2.69831e-07
3.98186e-08
-2.32011e-07
4.21649e-08
-3.13302e-08
2.87632e-07
5.13444e-09
-1.63727e-07
-1.71272e-08
-1.63012e-07
-7.41248e-08
-1.43573e-07
-1.23889e-07
-1.87462e-07
-1.52189e-07
-2.45901e-07
-1.83558e-07
-1.4801e-07
-2.24709e-07
-9.21186e-09
-2.63375e-07
9.30468e-08
-2.55794e-07
2.34004e-07
-1.79881e-07
2.72751e-07
-6.61343e-08
2.18901e-07
-3.52913e-08
2.03654e-07
-6.37495e-08
3.0459e-07
-4.26439e-08
2.86602e-07
-8.34698e-08
3.00313e-07
-1.35433e-07
8.4376e-08
-1.51955e-07
3.21303e-07
-1.89398e-07
3.00721e-07
-2.13972e-07
1.13229e-07
-2.2275e-07
2.15972e-07
-2.19593e-07
-4.88902e-08
-1.93717e-07
-1.61648e-07
-1.54185e-07
-3.03961e-07
-1.10059e-07
-3.55958e-07
-6.74153e-08
-3.64389e-07
-2.48445e-08
-3.69786e-07
1.04478e-08
-3.05123e-07
4.09259e-08
-2.62489e-07
4.32487e-08
-3.3653e-08
3.3088e-07
-1.07129e-08
-1.51923e-07
-4.10492e-08
-1.32676e-07
-8.19167e-08
-1.02706e-07
-1.34364e-07
-1.35015e-07
-2.02725e-07
-1.77255e-07
-2.47197e-07
-1.03553e-07
-2.83166e-07
2.67438e-08
-3.01554e-07
1.11197e-07
-2.50685e-07
1.82135e-07
-1.30747e-07
1.52813e-07
-5.74767e-08
1.45631e-07