/*--------------------------------*- C++ -*----------------------------------*\
| =========                 |                                                 |
| \\      /  F ield         | OpenFOAM: The Open Source CFD Toolbox           |
|  \\    /   O peration     | Version:  2.4.0                                 |
|   \\  /    A nd           | Web:      www.OpenFOAM.org                      |
|    \\/     M anipulation  |                                                 |
\*---------------------------------------------------------------------------*/
FoamFile
{
    version     2.0;
    format      ascii;
    class       volScalarField;
    location    "0.03";
    object      alpha.water;
}
// * * * * * * * * * * * * * * * * * * * * * * * * * * * * * * * * * * * * * //

dimensions      [0 0 0 0 0 0 0];

internalField   nonuniform List<scalar> 
60000
(
1
1
1
1
1
1
1
1
1
1
1
1
1
1
1
1
1
1
1
1
1
1
1
1
1
1
1
1
1
1
1
1
1
1
1
1
1
1
1
1
1
1
1
1
1
1
1
1
1
1
1
1
1
1
1
1
1
1
1
1
1
1
1
1
1
1
1
1
1
1
1
1
1
1
1
1
1
1
1
1
1
1
1
1
1
1
1
1
1
1
1
1
1
1
1
1
1
1
1
1
1
1
1
1
1
1
1
1
1
1
1
1
1
1
1
1
1
1
1
1
1
1
1
1
1
1
1
1
1
1
1
1
1
1
1
1
1
1
1
1
1
1
1
1
1
1
1
1
1
1
1
1
1
1
1
1
1
1
1
1
1
1
1
1
1
1
1
1
1
1
1
1
1
1
1
1
1
1
1
1
1
1
1
1
1
1
1
1
1
1
1
1
1
1
1
1
1
1
1
1
1
1
1
1
1
1
1
1
1
1
1
1
1
1
1
1
1
1
1
1
1
1
1
1
1
1
1
1
1
1
1
1
1
1
1
1
1
1
1
1
1
1
1
1
1
1
1
1
1
1
1
1
1
1
1
1
1
1
1
1
1
1
1
1
1
1
1
1
1
1
1
1
1
1
1
1
1
1
1
1
1
1
1
1
1
1
1
1
1
1
1
1
1
1
1
1
1
1
1
1
1
1
1
1
1
1
1
1
1
1
1
1
1
1
1
1
1
1
1
1
1
1
1
1
1
1
1
1
1
1
1
1
1
1
1
1
1
1
1
1
1
1
1
1
1
1
1
1
1
1
1
1
1
1
1
1
1
1
1
1
1
1
1
1
1
1
1
1
1
1
1
1
1
1
1
1
1
1
1
1
1
1
1
1
1
1
1
1
1
1
1
1
1
1
1
1
1
1
1
1
1
1
1
1
1
1
1
1
1
1
1
1
1
1
1
1
1
1
1
1
1
1
1
1
1
1
1
1
1
1
1
1
1
1
1
1
1
1
1
1
1
1
1
1
1
1
1
1
1
1
1
1
1
1
1
1
1
1
1
1
1
1
1
1
1
1
1
1
1
1
1
1
1
1
1
1
1
1
1
1
1
1
1
1
1
1
1
1
1
1
1
1
1
1
1
1
1
1
1
1
1
1
1
1
1
1
1
1
1
1
1
1
1
1
1
1
1
1
1
1
1
1
1
1
1
1
1
1
1
1
1
1
1
1
1
1
1
1
1
1
1
1
1
1
1
1
1
1
1
1
1
1
1
1
1
1
1
1
1
1
1
1
1
1
1
1
1
1
1
1
1
1
1
1
1
1
1
1
1
1
1
1
1
1
1
1
1
1
1
1
1
1
1
1
1
1
1
1
1
1
1
1
1
1
1
1
1
1
1
1
1
1
1
1
1
1
1
1
1
1
1
1
1
1
1
1
1
1
1
1
1
1
1
1
1
1
1
1
1
1
1
1
1
1
1
1
1
1
1
1
1
1
1
1
1
1
1
1
1
1
1
1
1
1
1
1
1
1
1
1
1
1
1
1
1
1
1
1
1
1
1
1
1
1
1
1
1
1
1
1
1
1
1
1
1
1
1
1
1
1
1
1
1
1
1
1
1
1
1
1
1
1
1
1
1
1
1
1
1
1
1
1
1
1
1
1
1
1
1
1
1
1
1
1
1
1
1
1
1
1
1
1
1
1
1
1
1
1
1
1
1
1
1
1
1
1
1
1
1
1
1
1
1
1
1
1
1
1
1
1
1
1
1
1
1
1
1
1
1
1
1
1
1
1
1
1
1
1
1
1
1
1
1
1
1
1
1
1
1
1
1
1
1
1
1
1
1
1
1
1
1
1
1
1
1
1
1
1
1
1
1
1
1
1
1
1
1
1
1
1
1
1
1
1
1
1
1
1
1
1
1
1
1
1
1
1
1
1
1
1
1
1
1
1
1
1
1
1
1
1
1
1
1
1
1
1
1
1
1
1
1
1
1
1
1
1
1
1
1
1
1
1
1
1
1
1
1
1
1
1
1
1
1
1
1
1
1
1
1
1
1
1
1
1
1
1
1
1
1
1
1
1
1
1
1
1
1
1
1
1
1
1
1
1
1
1
1
1
1
1
1
1
1
1
1
1
1
1
1
1
1
1
1
1
1
1
1
1
1
1
1
1
1
1
1
1
1
1
1
1
1
1
1
1
1
1
1
1
1
1
1
1
1
1
1
1
1
1
1
1
1
1
1
1
1
1
1
1
1
1
1
1
1
1
1
1
1
1
1
1
1
1
1
1
1
1
1
1
1
1
1
1
1
1
1
1
1
1
1
1
1
1
1
1
1
1
1
1
1
1
1
1
1
1
1
1
1
1
1
1
1
1
1
1
1
1
1
1
1
1
1
1
1
1
1
1
1
1
1
1
1
1
1
1
1
1
1
1
1
1
1
1
1
1
1
1
1
1
1
1
1
1
1
1
1
1
1
1
1
1
1
1
1
1
1
1
1
1
1
1
1
1
1
1
1
1
1
1
1
1
1
1
1
1
1
1
1
1
1
1
1
1
1
1
1
1
1
1
1
1
1
1
1
1
1
1
1
1
1
1
1
1
1
1
1
1
1
1
1
1
1
1
1
1
1
1
1
1
1
1
1
1
1
1
1
1
1
1
1
1
1
1
1
1
1
1
1
1
1
1
1
1
1
1
1
1
1
1
1
1
1
1
1
1
1
1
1
1
1
1
1
1
1
1
1
1
1
1
1
1
1
1
1
1
1
1
1
1
1
1
1
1
1
1
1
1
1
1
1
1
1
1
1
1
1
1
1
1
1
1
1
1
1
1
1
1
1
1
1
1
1
1
1
1
1
1
1
1
1
1
1
1
1
1
1
1
1
1
1
1
1
1
1
1
1
1
1
1
1
1
1
1
1
1
1
1
1
1
1
1
1
1
1
1
1
1
1
1
1
1
1
1
1
1
1
1
1
1
1
1
1
1
1
1
1
1
1
1
1
1
1
1
1
1
1
1
1
1
1
1
1
1
1
1
1
1
1
1
1
1
1
1
1
1
1
1
1
1
1
1
1
1
1
1
1
1
1
1
1
1
1
1
1
1
1
1
1
1
1
1
1
1
1
1
1
1
1
1
1
1
1
1
1
1
1
1
1
1
1
1
1
1
1
1
1
1
1
1
1
1
1
1
1
1
1
1
1
1
1
1
1
1
1
1
1
1
1
1
1
1
1
1
1
1
1
1
1
1
1
1
1
1
1
1
1
1
1
1
1
1
1
1
1
1
1
1
1
1
1
1
1
1
1
1
1
1
1
1
1
1
1
1
1
1
1
1
1
1
1
1
1
1
1
1
1
1
1
1
1
1
1
1
1
1
1
1
1
1
1
1
1
1
1
1
1
1
1
1
1
1
1
1
1
1
1
1
1
1
1
1
1
1
1
1
1
1
1
1
1
1
1
1
1
1
1
1
1
1
1
1
1
1
1
1
1
1
1
1
1
1
1
1
1
1
1
1
1
1
1
1
1
1
1
1
1
1
1
1
1
1
1
1
1
1
1
1
1
1
1
1
1
1
1
1
1
1
1
1
1
1
1
1
1
1
1
1
1
1
1
1
1
1
1
1
1
1
1
1
1
1
1
1
1
1
1
1
1
1
1
1
1
1
1
1
1
1
1
1
1
1
1
1
1
1
1
1
1
1
1
1
1
1
1
1
1
1
1
1
1
1
1
1
1
1
1
1
1
1
1
1
1
1
1
1
1
1
1
1
1
1
1
1
1
1
1
1
1
1
1
1
1
1
1
1
1
1
1
1
1
1
1
1
1
1
1
1
1
1
1
1
1
1
1
1
1
1
1
1
1
1
1
1
1
1
1
1
1
1
1
1
1
1
1
1
1
1
1
1
1
1
1
1
1
1
1
1
1
1
1
1
1
1
1
1
1
1
1
1
1
1
1
1
1
1
1
1
1
1
1
1
1
1
1
1
1
1
1
1
1
1
1
1
1
1
1
1
1
1
1
1
1
1
1
1
1
1
1
1
1
1
1
1
1
1
1
1
1
1
1
1
1
1
1
1
1
1
1
1
1
1
1
1
1
1
1
1
1
1
1
1
1
1
1
1
1
1
1
1
1
1
1
1
1
1
1
1
1
1
1
1
1
1
1
1
1
1
1
1
1
1
1
1
1
1
1
1
1
1
1
1
1
1
1
1
1
1
1
1
1
1
1
1
1
1
1
1
1
1
1
1
1
1
1
1
1
1
1
1
1
1
1
1
1
1
1
1
1
1
1
1
1
1
1
1
1
1
1
1
1
1
1
1
1
1
1
1
1
1
1
1
1
1
1
1
1
1
1
1
1
1
1
1
1
1
1
1
1
1
1
1
1
1
1
1
1
1
1
1
1
1
1
1
1
1
1
1
1
1
1
1
1
1
1
1
1
1
1
1
1
1
1
1
1
1
1
1
1
1
1
1
1
1
1
1
1
1
1
1
1
1
1
1
1
1
1
1
1
1
1
1
1
1
1
1
1
1
1
1
1
1
1
1
1
1
1
1
1
1
1
1
1
1
1
1
1
1
1
1
1
1
1
1
1
1
1
1
1
1
1
1
1
1
1
1
1
1
1
1
1
1
1
1
1
1
1
1
1
1
1
1
1
1
1
1
1
1
1
1
1
1
1
1
1
1
1
1
1
1
1
1
1
1
1
1
1
1
1
1
1
1
1
1
1
1
1
1
1
1
1
1
1
1
1
1
1
1
1
1
1
1
1
1
1
1
1
1
1
1
1
1
1
1
1
1
1
1
1
1
1
1
1
1
1
1
1
1
1
1
1
1
1
1
1
1
1
1
1
1
1
1
1
1
1
1
1
1
1
1
1
1
1
1
1
1
1
1
1
1
1
1
1
1
1
1
1
1
1
1
1
1
1
1
1
1
1
1
1
1
1
1
1
1
1
1
1
1
1
1
1
1
1
1
1
1
1
1
1
1
1
1
1
1
1
1
1
1
1
1
1
1
1
1
1
1
1
1
1
1
1
1
1
1
1
1
1
1
1
1
1
1
1
1
1
1
1
1
1
1
1
1
1
1
1
1
1
1
1
1
1
1
1
1
1
1
1
1
1
1
1
1
1
1
1
1
1
1
1
1
1
1
1
1
1
1
1
1
1
1
1
1
1
1
1
1
1
1
1
1
1
1
1
1
1
1
1
1
1
1
1
1
1
1
1
1
1
1
1
1
1
1
1
1
1
1
1
1
1
1
1
1
1
1
1
1
1
1
1
1
1
1
1
1
1
1
1
1
1
1
1
1
1
1
1
1
1
1
1
1
1
1
1
1
1
1
1
1
1
1
1
1
1
1
1
1
1
1
1
1
1
1
1
1
1
1
1
1
1
1
1
1
1
1
1
1
1
1
1
1
1
1
1
1
1
1
1
1
1
1
1
1
1
1
1
1
1
1
1
1
1
1
1
1
1
1
1
1
1
1
1
1
1
1
1
1
1
1
1
1
1
1
1
1
1
1
1
1
1
1
1
1
1
1
1
1
1
1
1
1
1
1
1
1
1
1
1
1
1
1
1
1
1
1
1
1
1
1
1
1
1
1
1
1
1
1
1
1
1
1
1
1
1
1
1
1
1
1
1
1
1
1
1
1
1
1
1
1
1
1
1
1
1
1
1
1
1
1
1
1
1
1
1
1
1
1
1
1
1
1
1
1
1
1
1
1
1
1
1
1
1
1
1
1
1
1
1
1
1
1
1
1
1
1
1
1
1
1
1
1
1
1
1
1
1
1
1
1
1
1
1
1
1
1
1
1
1
1
1
1
1
1
1
1
1
1
1
1
1
1
1
1
1
1
1
1
1
1
1
1
1
1
1
1
1
1
1
1
1
1
1
1
1
1
1
1
1
1
1
1
1
1
1
1
1
1
1
1
1
1
1
1
1
1
1
1
1
1
1
1
1
1
1
1
1
1
1
1
1
1
1
1
1
1
1
1
1
1
1
1
1
1
1
1
1
1
1
1
1
1
1
1
1
1
1
1
1
1
1
1
1
1
1
1
1
1
1
1
1
1
1
1
1
1
1
1
1
1
1
1
1
1
1
1
1
1
1
1
1
1
1
1
1
1
1
1
1
1
1
1
1
1
1
1
1
1
1
1
1
1
1
1
1
1
1
1
1
1
1
1
1
1
1
1
1
1
1
1
1
1
1
1
1
1
1
1
1
1
1
1
1
1
1
1
1
1
1
1
1
1
1
1
1
1
1
1
1
1
1
1
1
1
1
1
1
1
1
1
1
1
1
1
1
1
1
1
1
1
1
1
1
1
1
1
1
1
1
1
1
1
1
1
1
1
1
1
1
1
1
1
1
1
1
1
1
1
1
1
1
1
1
1
1
1
1
1
1
1
1
1
1
1
1
1
1
1
1
1
1
1
1
1
1
1
1
1
1
1
1
1
1
1
1
1
1
1
1
1
1
1
1
1
1
1
1
1
1
1
1
1
1
1
1
1
1
1
1
1
1
1
1
1
1
1
1
1
1
1
1
1
1
1
1
1
1
1
1
1
1
1
1
1
1
1
1
1
1
1
1
1
1
1
1
1
1
1
1
1
1
1
1
1
1
1
1
1
1
1
1
1
1
1
1
1
1
1
1
1
1
1
1
1
1
1
1
1
1
1
1
1
1
1
1
1
1
1
1
1
1
1
1
1
1
1
1
1
1
1
1
1
1
1
1
1
1
1
1
1
1
1
1
1
1
1
1
1
1
1
1
1
1
1
1
1
1
1
1
1
1
1
1
1
1
1
1
1
1
1
1
1
1
1
1
1
1
1
1
1
1
1
1
1
1
1
1
1
1
1
1
1
1
1
1
1
1
1
1
1
1
1
1
1
1
1
1
1
1
1
1
1
1
1
1
1
1
1
1
1
1
1
1
1
1
1
1
1
1
1
1
1
1
1
1
1
1
1
1
1
1
1
1
1
1
1
1
1
1
1
1
1
1
1
1
1
1
1
1
1
1
1
1
1
1
1
1
1
1
1
1
1
1
1
1
1
1
1
1
1
1
1
1
1
1
1
1
1
1
1
1
1
1
1
1
1
1
1
1
1
1
1
1
1
1
1
1
1
1
1
1
1
1
1
1
1
1
1
1
1
1
1
1
1
1
1
1
1
1
1
1
1
1
1
1
1
1
1
1
1
1
1
1
1
1
1
1
1
1
1
1
1
1
1
1
1
1
1
1
1
1
1
1
1
1
1
1
1
1
1
1
1
1
1
1
1
1
1
1
1
1
1
1
1
1
1
1
1
1
1
1
1
1
1
1
1
1
1
1
1
1
1
1
1
1
1
1
1
1
1
1
1
1
1
1
1
1
1
1
1
1
1
1
1
1
1
1
1
1
1
1
1
1
1
1
1
1
1
1
1
1
1
1
1
1
1
1
1
1
1
1
1
1
1
1
1
1
1
1
1
1
1
1
1
1
1
1
1
1
1
1
1
1
1
1
1
1
1
1
1
1
1
1
1
1
1
1
1
1
1
1
1
1
1
1
1
1
1
1
1
1
1
1
1
1
1
1
1
1
1
1
1
1
1
1
1
1
1
1
1
1
1
1
1
1
1
1
1
1
1
1
1
1
1
1
1
1
1
1
1
1
1
1
1
1
1
1
1
1
1
1
1
1
1
1
1
1
1
1
1
1
1
1
1
1
1
1
1
1
1
1
1
1
1
1
1
1
1
1
1
1
1
1
1
1
1
1
1
1
1
1
1
1
1
1
1
1
1
1
1
1
1
1
1
1
1
1
1
1
1
1
1
1
1
1
1
1
1
1
1
1
1
1
1
1
1
1
1
1
1
1
1
1
1
1
1
1
1
1
1
1
1
1
1
1
1
1
1
1
1
1
1
1
1
1
1
1
1
1
1
1
1
1
1
1
1
1
1
1
1
1
1
1
1
1
1
1
1
1
1
1
1
1
1
1
1
1
1
1
1
1
1
1
1
1
1
1
1
1
1
1
1
1
1
1
1
1
1
1
1
1
1
1
1
1
1
1
1
1
1
1
1
1
1
1
1
1
1
1
1
1
1
1
1
1
1
1
1
1
1
1
1
1
1
1
1
1
1
1
1
1
1
1
1
1
1
1
1
1
1
1
1
1
1
1
1
1
1
1
1
1
1
1
1
1
1
1
1
1
1
1
1
1
1
1
1
1
1
1
1
1
1
1
1
1
1
1
1
1
1
1
1
1
1
1
1
1
1
1
1
1
1
1
1
1
1
1
1
1
1
1
1
1
1
1
1
1
1
1
1
1
1
1
1
1
1
1
1
1
1
1
1
1
1
1
1
1
1
1
1
1
1
1
1
1
1
1
1
1
1
1
1
1
1
1
1
1
1
1
1
1
1
1
1
1
1
1
1
1
1
1
1
1
1
1
1
1
1
1
1
1
1
1
1
1
1
1
1
1
1
1
1
1
1
1
1
1
1
1
1
1
1
1
1
1
1
1
1
1
1
1
1
1
1
1
1
1
1
1
1
1
1
1
1
1
1
1
1
1
1
1
1
1
1
1
1
1
1
1
1
1
1
1
1
1
1
1
1
1
1
1
1
1
1
1
1
1
1
1
1
1
1
1
1
1
1
1
1
1
1
1
1
1
1
1
1
1
1
1
1
1
1
1
1
1
1
1
1
1
1
1
1
1
1
1
1
1
1
1
1
1
1
1
1
1
1
1
1
1
1
1
1
1
1
1
1
1
1
1
1
1
1
1
1
1
1
1
1
1
1
1
1
1
1
1
1
1
1
1
1
1
1
1
1
1
1
1
1
1
1
1
1
1
1
1
1
1
1
1
1
1
1
1
1
1
1
1
1
1
1
1
1
1
1
1
1
1
1
1
1
1
1
1
1
1
1
1
1
1
1
1
1
1
1
1
1
1
1
1
1
1
1
1
1
1
1
1
1
1
1
1
1
1
1
1
1
1
1
1
1
1
1
1
1
1
1
1
1
1
1
1
1
1
1
1
1
1
1
1
1
1
1
1
1
1
1
1
1
1
1
1
1
1
1
1
1
1
1
1
1
1
1
1
1
1
1
1
1
1
1
1
1
1
1
1
1
1
1
1
1
1
1
1
1
1
1
1
1
1
1
1
1
1
1
1
1
1
1
1
1
1
1
1
1
1
1
1
1
1
1
1
1
1
1
1
1
1
1
1
1
1
1
1
1
1
1
1
1
1
1
1
1
1
1
1
1
1
1
1
1
1
1
1
1
1
1
1
1
1
1
1
1
1
1
1
1
1
1
1
1
1
1
1
1
1
1
1
1
1
1
1
1
1
1
1
1
1
1
1
1
1
1
1
1
1
1
1
1
1
1
1
1
1
1
1
1
1
1
1
1
1
1
1
1
1
1
1
1
1
1
1
1
1
1
1
1
1
1
1
1
1
1
1
1
1
1
1
1
1
1
1
1
1
1
1
1
1
1
1
1
1
1
1
1
1
1
1
1
1
1
1
1
1
1
1
1
1
1
1
1
1
1
1
1
1
1
1
1
1
1
1
1
1
1
1
1
1
1
1
1
1
1
1
1
1
1
1
1
1
1
1
1
1
1
1
1
1
1
1
1
1
1
1
1
1
1
1
1
1
1
1
1
1
1
1
1
1
1
1
1
1
1
1
1
1
1
1
1
1
1
1
1
1
1
1
1
1
1
1
1
1
1
1
1
1
1
1
1
1
1
1
1
1
1
1
1
1
1
1
1
1
1
1
1
1
1
1
1
1
1
1
1
1
1
1
1
1
1
1
1
1
1
1
1
1
1
1
1
1
1
1
1
1
1
1
1
1
1
1
1
1
1
1
1
1
1
1
1
1
1
1
1
1
1
1
1
1
1
1
1
1
1
1
1
1
1
1
1
1
1
1
1
1
1
1
1
1
1
1
1
1
1
1
1
1
1
1
1
1
1
1
1
1
1
1
1
1
1
1
1
1
1
1
1
1
1
1
1
1
1
1
1
1
1
1
1
1
1
1
1
1
1
1
1
1
1
1
1
1
1
1
1
1
1
1
1
1
1
1
1
1
1
1
1
1
1
1
1
1
1
1
1
1
1
1
1
1
1
1
1
1
1
1
1
1
1
1
1
1
1
1
1
1
1
1
1
1
1
1
1
1
1
1
1
1
1
1
1
1
1
1
1
1
1
1
1
1
1
1
1
1
1
1
1
1
1
1
1
1
1
1
1
1
1
1
1
1
1
1
1
1
1
1
1
1
1
1
1
1
1
1
1
1
1
1
1
1
1
1
1
1
1
1
1
1
1
1
1
1
1
1
1
1
1
1
1
1
1
1
1
1
1
1
1
1
1
1
1
1
1
1
1
1
1
1
1
1
1
1
1
1
1
1
1
1
1
1
1
1
1
1
1
1
1
1
1
1
1
1
1
1
1
1
1
1
1
1
1
1
1
1
1
1
1
1
1
1
1
1
1
1
1
1
1
1
1
1
1
1
1
1
1
1
1
1
1
1
1
1
1
1
1
1
1
1
1
1
1
1
1
1
1
1
1
1
1
1
1
1
1
1
1
1
1
1
1
1
1
1
1
1
1
1
1
1
1
1
1
1
1
1
1
1
1
1
1
1
1
1
1
1
1
1
1
1
1
1
1
1
1
1
1
1
1
1
1
1
1
1
1
1
1
1
1
1
1
1
1
1
1
1
1
1
1
1
1
1
1
1
1
1
1
1
1
1
1
1
1
1
1
1
1
1
1
1
1
1
1
1
1
1
1
1
1
1
1
1
1
1
1
1
1
1
1
1
1
1
1
1
1
1
1
1
1
1
1
1
1
1
1
1
1
1
1
1
1
1
1
1
1
1
1
1
1
1
1
1
1
1
1
1
1
1
1
1
1
1
1
1
1
1
1
1
1
1
1
1
1
1
1
1
1
1
1
1
1
1
1
1
1
1
1
1
1
1
1
1
1
1
1
1
1
1
1
1
1
1
1
1
1
1
1
1
1
1
1
1
1
1
1
1
1
1
1
1
1
1
1
1
1
1
1
1
1
1
1
1
1
1
1
1
1
1
1
1
1
1
1
1
1
1
1
1
1
1
1
1
1
1
1
1
1
1
1
1
1
1
1
1
1
1
1
1
1
1
1
1
1
1
1
1
1
1
1
1
1
1
1
1
1
1
1
1
1
1
1
1
1
1
1
1
1
1
1
1
1
1
1
1
1
1
1
1
1
1
1
1
1
1
1
0.999998
0.999972
0.999936
0.999934
0.999971
1
1
1
1
1
1
1
1
1
1
1
0.999966
0.999893
0.999791
0.999669
0.999527
0.99939
0.999248
0.999121
0.999011
0.998916
0.998862
0.998812
0.99884
0.998837
0.998971
0.998985
0.999252
0.999302
8.74138e-05
8.78874e-05
8.84728e-05
8.95622e-05
9.09576e-05
9.27108e-05
9.45822e-05
9.6975e-05
9.94747e-05
0.000102234
0.000105168
0.00010829
0.0001114
0.000114537
0.00011755
0.000120388
0.000122813
0.000124932
0.000126563
0.000127776
0.000128912
0.000130083
0.000131353
0.000133907
0.000138592
0.000145409
0.000154957
0.000168116
0.000185002
0.000204202
0.000222918
0.000238617
0.000250789
0.0002605
0.00026982
0.000280778
0.00029445
0.000310812
0.000329126
0.000348613
0.000368732
0.00038958
0.000411199
0.000434167
0.000458239
0.000484146
0.00051106
0.000540202
0.000570096
0.000602742
0.000635927
0.000672519
0.000709705
0.000751031
0.000793131
0.000839008
0.000884159
0.000930817
0.000976078
0.00102681
0.00108648
0.00116483
0.00125911
0.00136317
0.0014528
0.00150841
0.00152078
0.00151761
0.00150965
0.00151825
0.00158854
0.00177783
0.002092
0.00246572
0.00286808
0.0032647
0.00364381
0.00397351
0.00422823
0.00440132
0.00449376
0.00450094
0.00446215
0.00439648
0.00431301
0.00420402
0.00407925
0.00393025
0.00376586
0.00357533
0.00336477
0.00313538
0.00286529
0.00259667
0.00225276
0.00194687
0.00150363
0.00117613
0.000588537
0.000237897
8.61876e-10
5.83252e-09
5.46913e-09
5.30825e-09
4.9435e-09
4.65467e-09
4.77763e-09
4.79462e-09
5.20527e-09
5.42204e-09
5.8701e-09
6.21414e-09
6.73568e-09
7.16898e-09
7.70198e-09
8.17867e-09
6.82976e-09
3.54618e-09
1.33924e-09
9.32547e-10
3.23594e-10
3.71613e-10
1.40613e-09
2.82671e-09
4.56627e-09
3.45307e-09
3.1183e-09
3.02042e-09
2.6094e-09
9.31833e-10
1.67325e-10
1.13327e-10
1.07749e-10
1.04761e-10
1.03715e-10
1.03789e-10
1.04234e-10
1.04277e-10
1.03509e-10
1.02116e-10
1.00559e-10
9.91885e-11
9.80247e-11
9.7106e-11
9.62047e-11
9.54723e-11
9.46165e-11
9.40192e-11
9.32492e-11
9.2828e-11
9.21456e-11
9.18702e-11
9.12766e-11
9.11217e-11
9.07876e-11
9.09577e-11
9.11614e-11
9.17302e-11
9.19396e-11
9.17195e-11
9.16341e-11
9.22195e-11
9.45185e-11
9.68943e-11
1.00087e-10
1.08322e-10
1.5546e-11
1.55459e-11
1.55481e-11
1.04563e-10
1.06335e-10
1.2577e-10
1.70706e-10
2.34084e-10
3.1551e-10
3.98684e-10
4.83509e-10
5.44347e-10
5.24962e-10
2.65324e-10
1.54693e-10
4.1524e-11
4.15142e-11
4.15022e-11
4.14888e-11
4.14736e-11
4.14581e-11
4.14422e-11
4.14262e-11
4.14114e-11
4.13967e-11
4.13842e-11
4.13721e-11
4.13627e-11
4.13541e-11
4.13479e-11
4.13419e-11
4.1337e-11
4.13337e-11
4.13242e-11
9.65996e-13
1.68912e-12
4.56987e-13
1.62907e-13
4.82572e-14
2.61656e-14
5.04962e-14
1.04725e-13
1.77911e-13
2.21385e-13
2.68182e-13
3.00467e-13
3.45838e-13
3.80143e-13
4.23007e-13
4.62456e-13
4.93388e-13
4.33672e-13
3.31526e-13
3.15647e-13
2.75246e-13
2.82112e-13
3.48691e-13
4.29266e-13
5.32137e-13
4.44453e-13
4.58776e-13
5.25048e-13
6.12591e-13
6.4996e-13
6.00673e-13
5.69457e-13
5.56544e-13
5.38139e-13
5.14309e-13
4.87995e-13
4.64305e-13
4.45903e-13
4.51014e-13
4.59016e-13
4.69107e-13
4.81591e-13
4.9897e-13
5.36237e-13
5.82396e-13
6.5005e-13
7.20228e-13
8.13249e-13
9.38967e-13
1.06569e-12
1.24099e-12
1.41489e-12
1.66726e-12
1.91512e-12
2.28143e-12
2.60134e-12
3.08265e-12
3.42898e-12
4.02447e-12
4.49566e-12
5.6109e-12
6.94582e-12
9.67892e-12
1.20706e-11
1.4673e-11
1.4759e-11
1.59089e-11
1.55459e-11
1.69687e-11
1.66695e-11
2.19874e-11
4.18251e-11
8.68652e-11
1.50294e-10
2.31774e-10
3.14933e-10
3.99705e-10
4.60285e-10
5.0685e-10
5.19139e-10
5.44735e-10
5.34483e-10
5.68079e-10
5.38855e-10
5.84382e-10
5.31627e-10
5.87292e-10
5.08519e-10
5.68964e-10
4.6896e-10
5.23951e-10
4.12856e-10
4.47412e-10
3.46026e-10
3.51783e-10
2.80692e-10
2.57744e-10
1.91269e-10
9.41422e-11
4.13143e-11
3.68027e-15
9.94072e-16
5.08332e-17
3.66326e-18
3.16877e-20
1.15892e-26
4.35216e-23
4.59171e-19
4.02173e-18
8.06468e-18
1.16869e-17
1.42976e-17
1.73556e-17
1.95507e-17
2.20419e-17
2.42649e-17
2.6155e-17
2.58575e-17
2.24335e-17
2.19546e-17
2.01497e-17
2.07349e-17
2.38721e-17
2.80199e-17
3.39132e-17
3.25756e-17
3.80886e-17
4.91911e-17
6.52073e-17
8.13608e-17
8.84904e-17
9.38693e-17
9.88987e-17
1.01726e-16
1.03043e-16
1.03519e-16
1.03595e-16
1.03445e-16
1.08068e-16
1.12201e-16
1.15428e-16
1.17691e-16
1.19576e-16
1.27601e-16
1.3691e-16
1.54344e-16
1.68721e-16
1.93177e-16
2.29522e-16
2.66088e-16
3.19549e-16
3.76322e-16
4.58615e-16
5.5342e-16
6.8178e-16
8.21766e-16
1.01541e-15
1.21198e-15
1.49907e-15
1.79209e-15
2.29531e-15
2.87793e-15
3.95131e-15
5.08502e-15
6.69175e-15
7.46464e-15
8.40867e-15
8.47746e-15
9.43939e-15
9.84577e-15
1.33699e-14
2.14377e-14
4.77733e-14
9.81811e-14
1.91252e-13
3.13252e-13
4.77167e-13
6.26592e-13
7.87727e-13
8.60052e-13
9.51452e-13
9.13375e-13
9.86891e-13
9.09888e-13
1.0026e-12
8.84234e-13
9.88898e-13
8.26005e-13
9.33267e-13
7.43428e-13
8.48277e-13
6.61319e-13
7.74778e-13
6.59219e-13
9.34756e-13
1.20853e-12
2.39575e-12
2.7244e-12
2.18295e-12
7.22606e-13
1.54263e-17
8.07981e-19
6.86695e-21
7.30867e-23
3.05696e-38
1.63713e-34
1.0307e-30
2.37806e-26
5.21472e-23
2.65665e-22
4.99267e-22
6.83231e-22
8.71428e-22
9.985e-22
1.12273e-21
1.22377e-21
1.28963e-21
1.29726e-21
1.18111e-21
1.17068e-21
1.12492e-21
1.20133e-21
1.3887e-21
1.66735e-21
2.07847e-21
2.28214e-21
2.89375e-21
3.9672e-21
5.54712e-21
7.42355e-21
8.86933e-21
1.02434e-20
1.16256e-20
1.28439e-20
1.39382e-20
1.49685e-20
1.59637e-20
1.69276e-20
1.86788e-20
2.03907e-20
2.18924e-20
2.30584e-20
2.38967e-20
2.59634e-20
2.81227e-20
3.22887e-20
3.51888e-20
4.07917e-20
4.98015e-20
5.85038e-20
7.22515e-20
8.68364e-20
1.09291e-19
1.37223e-19
1.7483e-19
2.202e-19
2.82367e-19
3.55653e-19
4.60251e-19
5.84495e-19
7.82484e-19
1.03108e-18
1.44446e-18
1.92625e-18
2.61118e-18
3.11544e-18
3.71078e-18
3.95936e-18
4.60057e-18
5.32892e-18
7.69567e-18
1.21129e-17
2.55016e-17
5.40561e-17
1.20402e-16
2.25401e-16
3.9927e-16
5.8455e-16
8.20481e-16
9.5106e-16
1.1191e-15
1.07749e-15
1.17935e-15
1.07369e-15
1.19657e-15
1.04825e-15
1.18395e-15
9.92802e-16
1.13812e-15
9.38284e-16
1.11848e-15
9.67635e-16
1.31861e-15
1.53133e-15
3.7164e-15
8.25483e-15
2.49536e-14
4.31819e-14
4.51128e-14
1.04154e-14
6.29397e-20
7.60495e-22
1.05892e-24
1.46397e-27
6.39392e-45
8.54447e-41
1.34839e-36
2.29197e-32
3.67002e-28
7.9184e-27
2.08462e-26
3.25598e-26
4.36725e-26
5.07341e-26
5.64947e-26
6.05993e-26
6.21549e-26
6.20376e-26
5.80593e-26
5.91785e-26
6.10412e-26
6.98243e-26
8.41514e-26
1.05361e-25
1.36035e-25
1.64268e-25
2.19182e-25
3.09755e-25
4.42571e-25
6.12229e-25
7.76025e-25
9.5484e-25
1.15552e-24
1.36501e-24
1.58305e-24
1.81309e-24
2.05806e-24
2.31951e-24
2.70772e-24
3.12244e-24
3.52804e-24
3.8863e-24
4.17656e-24
4.68022e-24
5.19179e-24
6.11606e-24
6.73061e-24
7.93112e-24
9.94731e-24
1.18365e-23
1.50004e-23
1.83047e-23
2.37172e-23
3.0797e-23
4.04668e-23
5.29155e-23
7.02511e-23
9.2725e-23
1.25214e-22
1.67681e-22
2.34417e-22
3.24279e-22
4.68193e-22
6.51716e-22
9.11347e-22
1.15836e-21
1.46272e-21
1.70579e-21
2.13377e-21
2.69486e-21
4.0862e-21
6.6581e-21
1.35777e-20
2.82855e-20
6.59295e-20
1.33354e-19
2.6408e-19
4.242e-19
6.5773e-19
8.15779e-19
1.02972e-18
1.0324e-18
1.1505e-18
1.05514e-18
1.19362e-18
1.06641e-18
1.22626e-18
1.0712e-18
1.26912e-18
1.14274e-18
1.48549e-18
1.55785e-18
2.73664e-18
5.13241e-18
1.85704e-17
6.11604e-17
2.61708e-16
6.54168e-16
8.27334e-16
1.23173e-16
2.31943e-22
7.53511e-25
1.77749e-28
3.14089e-32
7.01192e-51
1.46076e-46
3.41599e-42
7.99613e-38
1.69006e-33
2.18047e-31
8.5071e-31
1.53981e-30
2.1795e-30
2.56859e-30
2.83312e-30
3.00155e-30
3.02729e-30
3.02017e-30
2.93084e-30
3.16127e-30
3.58702e-30
4.45123e-30
5.63068e-30
7.28232e-30
9.62374e-30
1.23596e-29
1.70558e-29
2.45062e-29
3.52816e-29
4.95791e-29
6.54402e-29
8.46226e-29
1.08211e-28
1.3568e-28
1.67044e-28
2.02751e-28
2.43632e-28
2.90661e-28
3.57782e-28
4.35045e-28
5.17373e-28
5.97528e-28
6.69583e-28
7.77616e-28
8.89573e-28
1.0792e-27
1.21038e-27
1.45558e-27
1.87548e-27
2.26517e-27
2.94265e-27
3.63991e-27
4.84348e-27
6.4776e-27
8.75492e-27
1.18302e-26
1.62212e-26
2.23253e-26
3.13875e-26
4.40799e-26
6.4245e-26
9.29017e-26
1.38528e-25
2.01518e-25
2.9222e-25
3.95549e-25
5.31202e-25
6.76027e-25
9.12265e-25
1.25507e-24
2.00587e-24
3.42665e-24
6.98359e-24
1.44814e-23
3.38105e-23
7.08986e-23
1.50367e-22
2.60153e-22
4.39041e-22
5.85581e-22
7.95437e-22
8.49686e-22
9.94265e-22
9.36929e-22
1.08524e-21
1.01359e-21
1.20422e-21
1.13257e-21
1.4264e-21
1.46657e-21
2.19113e-21
2.99668e-21
7.51025e-21
1.98995e-20
9.48537e-20
4.49027e-19
2.63909e-18
9.03525e-18
1.31527e-17
1.18003e-18
7.32424e-25
7.76773e-28
3.48211e-32
7.46551e-37
1.02037e-52
6.26954e-52
1.30536e-47
3.05335e-43
7.22601e-39
5.77589e-36
3.42421e-35
7.24048e-35
1.08526e-34
1.30141e-34
1.42971e-34
1.51429e-34
1.53559e-34
1.56847e-34
1.61223e-34
1.88297e-34
2.36205e-34
3.15381e-34
4.14486e-34
5.45474e-34
7.29746e-34
9.75842e-34
1.38062e-33
2.00629e-33
2.89586e-33
4.09976e-33
5.5715e-33
7.50049e-33
1.00549e-32
1.32767e-32
1.72173e-32
2.19833e-32
2.77856e-32
3.49056e-32
4.51052e-32
5.76225e-32
7.19421e-32
8.7014e-32
1.01753e-31
1.22581e-31
1.44998e-31
1.81371e-31
2.08486e-31
2.56587e-31
3.39559e-31
4.17313e-31
5.55455e-31
6.96622e-31
9.50461e-31
1.3056e-30
1.81141e-30
2.52075e-30
3.56189e-30
5.09114e-30
7.4353e-30
1.09026e-29
1.65443e-29
2.4926e-29
3.84277e-29
5.84102e-29
8.81539e-29
1.26972e-28
1.81607e-28
2.51211e-28
3.65168e-28
5.44556e-28
9.18774e-28
1.64987e-27
3.41305e-27
7.18006e-27
1.66914e-26
3.56903e-26
7.84236e-26
1.43676e-25
2.59302e-25
3.72383e-25
5.4359e-25
6.27629e-25
7.87753e-25
7.93461e-25
9.51489e-25
9.4899e-25
1.18675e-24
1.23372e-24
1.70564e-24
2.07978e-24
3.78773e-24
7.02011e-24
2.20232e-23
7.66999e-23
4.76155e-22
3.14668e-21
2.46732e-20
1.10419e-19
1.77154e-19
9.03782e-21
1.90684e-27
1.04646e-30
6.12244e-35
2.29025e-39
1.61506e-49
5.85326e-57
1.14929e-52
2.27171e-48
4.73234e-44
1.5428e-40
1.38017e-39
3.40824e-39
5.41879e-39
6.63816e-39
7.33352e-39
7.91972e-39
8.33286e-39
8.97334e-39
9.93684e-39
1.26185e-38
1.72659e-38
2.44153e-38
3.29463e-38
4.36583e-38
5.87504e-38
8.08194e-38
1.16786e-37
1.71486e-37
2.47927e-37
3.52274e-37
4.89148e-37
6.8059e-37
9.49934e-37
1.31115e-36
1.77741e-36
2.37015e-36
3.13113e-36
4.11964e-36
5.56311e-36
7.43657e-36
9.71415e-36
1.22736e-35
1.49598e-35
1.86796e-35
2.28588e-35
2.9478e-35
3.484e-35
4.39546e-35
5.97169e-35
7.48444e-35
1.02045e-34
1.29909e-34
1.81561e-34
2.55721e-34
3.63687e-34
5.19967e-34
7.55753e-34
1.11823e-33
1.69285e-33
2.58273e-33
4.07602e-33
6.38331e-33
1.01841e-32
1.61709e-32
2.54571e-32
3.89547e-32
5.93177e-32
8.8742e-32
1.38552e-31
2.22695e-31
3.96568e-31
7.48432e-31
1.58358e-30
3.41519e-30
7.96486e-30
1.73716e-29
3.89103e-29
7.46675e-29
1.41903e-28
2.19148e-28
3.42462e-28
4.31062e-28
5.8284e-28
6.47345e-28
8.33926e-28
9.08008e-28
1.2199e-27
1.4349e-27
2.2536e-27
3.34883e-27
7.32725e-27
1.66475e-26
6.35375e-26
2.86287e-25
2.28605e-24
2.04798e-23
2.0803e-22
1.16811e-21
1.98568e-21
5.47493e-23
3.97928e-30
2.20528e-33
3.44029e-37
2.78382e-41
1.68688e-46
8.10775e-62
1.89314e-57
3.78398e-53
6.96022e-49
4.33004e-45
5.66262e-44
1.61993e-43
2.72948e-43
3.43012e-43
3.86109e-43
4.3648e-43
4.93536e-43
5.73181e-43
6.85127e-43
9.34573e-43
1.36881e-42
2.02353e-42
2.78218e-42
3.6919e-42
4.98216e-42
7.00382e-42
1.03241e-41
1.53314e-41
2.22167e-41
3.16295e-41
4.46318e-41
6.38176e-41
9.22046e-41
1.32172e-40
1.86028e-40
2.57381e-40
3.53298e-40
4.8434e-40
6.80559e-40
9.48143e-40
1.2912e-39
1.69919e-39
2.15436e-39
2.78406e-39
3.52273e-39
4.68006e-39
5.69652e-39
7.37379e-39
1.02787e-38
1.31602e-38
1.83769e-38
2.37825e-38
3.40282e-38
4.90896e-38
7.15005e-38
1.04855e-37
1.56536e-37
2.39156e-37
3.74583e-37
5.92974e-37
9.7233e-37
1.58011e-36
2.6107e-36
4.32936e-36
7.11746e-36
1.1547e-35
1.86909e-35
3.00866e-35
5.028e-35
8.66377e-35
1.62683e-34
3.22347e-34
7.00772e-34
1.55655e-33
3.67224e-33
8.21314e-33
1.87014e-32
3.74362e-32
7.421e-32
1.22984e-31
2.04944e-31
2.82316e-31
4.11932e-31
5.07758e-31
7.13893e-31
8.76274e-31
1.30177e-30
1.75756e-30
3.12805e-30
5.46566e-30
1.39133e-29
3.84303e-29
1.77218e-28
1.01707e-27
1.02891e-26
1.2132e-25
1.55062e-24
1.0535e-23
1.82935e-23
2.60481e-25
6.52606e-33
4.89629e-36
1.19066e-39
1.27508e-43
2.85995e-48
2.62276e-61
4.20514e-62
1.00057e-57
1.80634e-53
1.31347e-49
2.39832e-48
7.83778e-48
1.3948e-47
1.80586e-47
2.10608e-47
2.5697e-47
3.21813e-47
4.06339e-47
5.18361e-47
7.4658e-47
1.15282e-46
1.76792e-46
2.46721e-46
3.27071e-46
4.42065e-46
6.32772e-46
9.51353e-46
1.43071e-45
2.08031e-45
2.96559e-45
4.23632e-45
6.19744e-45
9.22533e-45
1.366e-44
1.98463e-44
2.83272e-44
4.019e-44
5.71384e-44
8.32132e-44
1.20373e-43
1.70308e-43
2.32736e-43
3.06242e-43
4.0887e-43
5.34385e-43
7.30667e-43
9.16513e-43
1.21764e-42
1.74031e-42
2.27896e-42
3.2586e-42
4.29319e-42
6.2863e-42
9.28256e-42
1.38385e-41
2.07939e-41
3.18489e-41
5.01446e-41
8.1126e-41
1.32962e-40
2.26332e-40
3.81175e-40
6.52483e-40
1.12966e-39
1.94019e-39
3.32984e-39
5.71757e-39
9.8548e-39
1.75673e-38
3.22971e-38
6.38733e-38
1.32725e-37
2.97413e-37
6.81985e-37
1.63812e-36
3.77456e-36
8.76883e-36
1.83134e-35
3.77441e-35
6.6995e-35
1.18779e-34
1.79188e-34
2.82349e-34
3.87024e-34
5.95316e-34
8.25133e-34
1.36113e-33
2.10889e-33
4.24804e-33
8.69945e-33
2.56762e-32
8.55032e-32
4.72449e-31
3.39693e-30
4.27936e-29
6.44989e-28
1.00833e-26
8.02235e-26
1.37519e-25
9.69966e-28
8.30889e-36
8.59912e-39
2.54718e-42
3.30339e-46
1.08591e-50
4.60074e-58
1.29231e-66
3.56771e-62
6.03231e-58
4.36939e-54
1.05893e-52
3.88487e-52
7.26339e-52
9.7345e-52
1.20037e-51
1.62996e-51
2.30023e-51
3.13968e-51
4.2065e-51
6.3049e-51
1.01658e-50
1.61108e-50
2.27866e-50
3.0155e-50
4.08038e-50
5.9354e-50
9.10368e-50
1.38819e-49
2.02746e-49
2.8935e-49
4.17323e-49
6.22549e-49
9.51248e-49
1.44867e-48
2.16236e-48
3.16881e-48
4.62566e-48
6.79141e-48
1.02152e-47
1.52909e-47
2.24039e-47
3.17013e-47
4.31895e-47
5.94664e-47
8.0177e-47
1.12697e-46
1.45675e-46
1.98619e-46
2.90834e-46
3.89809e-46
5.70551e-46
7.66168e-46
1.1477e-45
1.73391e-45
2.64466e-45
4.06877e-45
6.38826e-45
1.03493e-44
1.72709e-44
2.92563e-44
5.16581e-44
9.00718e-44
1.59764e-43
2.8866e-43
5.17886e-43
9.38269e-43
1.70513e-42
3.13341e-42
5.93886e-42
1.16024e-41
2.4139e-41
5.25503e-41
1.2168e-40
2.8852e-40
7.09095e-40
1.68867e-39
4.02301e-39
8.78002e-39
1.88313e-38
3.57519e-38
6.74098e-38
1.11247e-37
1.89402e-37
2.88532e-37
4.86138e-37
7.6017e-37
1.39338e-36
2.47176e-36
5.62863e-36
1.34435e-35
4.58017e-35
1.82146e-34
1.19432e-33
1.05757e-32
1.62878e-31
3.05018e-30
5.67652e-29
5.13312e-28
8.41349e-28
2.82642e-30
8.17201e-39
1.14436e-41
3.70372e-45
5.15608e-49
2.11305e-53
9.72723e-60
5.52528e-71
1.46929e-66
2.32237e-62
1.59987e-58
4.90052e-57
1.9808e-56
3.86643e-56
5.39545e-56
7.20138e-56
1.11573e-55
1.77807e-55
2.59053e-55
3.59392e-55
5.55182e-55
9.29715e-55
1.52017e-54
2.17836e-54
2.87782e-54
3.89841e-54
5.75628e-54
9.0092e-54
1.39431e-53
2.04717e-53
2.92504e-53
4.25188e-53
6.45212e-53
1.00914e-52
1.57538e-52
2.40685e-52
3.60725e-52
5.39695e-52
8.15306e-52
1.26267e-51
1.94985e-51
2.94978e-51
4.31009e-51
6.06551e-51
8.59683e-51
1.19397e-50
1.72308e-50
2.29407e-50
3.20846e-50
4.80889e-50
6.5987e-50
9.88184e-50
1.35369e-49
2.07373e-49
3.20403e-49
4.99817e-49
7.86906e-49
1.26564e-48
2.10727e-48
3.62314e-48
6.33512e-48
1.15949e-47
2.09151e-47
3.84409e-47
7.24487e-47
1.35723e-46
2.5907e-46
4.97208e-46
9.70539e-46
1.95019e-45
4.03487e-45
8.82186e-45
2.01049e-44
4.82036e-44
1.1836e-43
2.98854e-43
7.37209e-43
1.80962e-42
4.13396e-42
9.2517e-42
1.87707e-41
3.76712e-41
6.78857e-41
1.2496e-40
2.11143e-40
3.89904e-40
6.86242e-40
1.39736e-39
2.82803e-39
7.2641e-39
2.01145e-38
7.86769e-38
3.69868e-37
2.84783e-36
3.0527e-35
5.64018e-34
1.2773e-32
2.75822e-31
2.75778e-30
4.1954e-30
6.46224e-33
6.22418e-42
1.1711e-44
3.93673e-48
5.46598e-52
2.49399e-56
1.8665e-62
2.69195e-75
6.77306e-71
9.96281e-67
6.42578e-63
2.38106e-61
1.04111e-60
2.10788e-60
3.08629e-60
4.57186e-60
8.20012e-60
1.4622e-59
2.24408e-59
3.19146e-59
5.05211e-59
8.76225e-59
1.47731e-58
2.14517e-58
2.8302e-58
3.83863e-58
5.74978e-58
9.18409e-58
1.44358e-57
2.13217e-57
3.05062e-57
4.46428e-57
6.87938e-57
1.09907e-56
1.75442e-56
2.73569e-56
4.18051e-56
6.39041e-56
9.90215e-56
1.57478e-55
2.50192e-55
3.89747e-55
5.86551e-55
8.50674e-55
1.23883e-54
1.76947e-54
2.61824e-54
3.58708e-54
5.14229e-54
7.88084e-54
1.10696e-53
1.69499e-53
2.36985e-53
3.71094e-53
5.86134e-53
9.34835e-53
1.50551e-52
2.47914e-52
4.23824e-52
7.50064e-52
1.35235e-51
2.56408e-51
4.78195e-51
9.10606e-51
1.78933e-50
3.49824e-50
7.02318e-50
1.42058e-49
2.93633e-49
6.23949e-49
1.36331e-48
3.1295e-48
7.46207e-48
1.85575e-47
4.72526e-47
1.23e-46
3.14866e-46
7.99536e-46
1.91437e-45
4.48379e-45
9.71542e-45
2.07837e-44
4.08148e-44
8.12824e-44
1.51945e-43
3.07592e-43
6.07489e-43
1.37298e-42
3.15663e-42
9.11923e-42
2.90833e-41
1.29812e-40
7.13888e-40
6.38474e-39
8.14629e-38
1.77215e-36
4.73188e-35
1.15758e-33
1.2475e-32
1.71361e-32
1.16535e-35
3.70884e-45
9.43693e-48
3.20995e-51
4.25683e-55
1.89176e-59
1.33936e-65
1.45602e-79
3.43241e-75
4.68221e-71
2.81048e-67
1.21359e-65
5.64403e-65
1.17809e-64
1.82822e-64
3.07914e-64
6.40979e-64
1.26062e-63
2.0165e-63
2.92112e-63
4.72342e-63
8.47218e-63
1.47262e-62
2.16763e-62
2.85755e-62
3.88125e-62
5.89512e-62
9.61031e-62
1.53487e-61
2.28183e-61
3.27017e-61
4.81472e-61
7.52562e-61
1.22628e-60
1.99793e-60
3.17295e-60
4.93232e-60
7.68382e-60
1.21803e-59
1.98453e-59
3.23595e-59
5.17788e-59
8.00661e-59
1.19397e-58
1.78322e-58
2.61502e-58
3.96138e-58
5.57812e-58
8.18828e-58
1.28168e-57
1.84203e-57
2.8817e-57
4.11312e-57
6.58013e-57
1.06201e-56
1.73117e-56
2.85081e-56
4.8042e-56
8.42666e-56
1.5338e-55
2.84926e-55
5.59328e-55
1.07799e-54
2.12639e-54
4.35421e-54
8.87815e-54
1.87182e-53
3.98302e-53
8.69506e-53
1.94961e-52
4.48832e-52
1.08083e-51
2.69537e-51
6.96306e-51
1.84108e-50
4.95533e-50
1.31859e-49
3.47517e-49
8.73057e-49
2.14577e-48
4.96292e-48
1.13334e-47
2.42067e-47
5.21846e-47
1.0763e-46
2.38823e-46
5.27491e-46
1.3215e-45
3.43546e-45
1.11247e-44
4.05831e-44
2.05386e-43
1.30759e-42
1.34377e-41
2.00788e-40
5.05115e-39
1.55356e-37
4.21144e-36
4.77835e-35
5.77837e-35
1.66968e-38
1.7604e-48
6.14097e-51
2.08455e-54
2.56192e-58
1.01605e-62
5.29947e-69
8.59217e-84
1.88471e-79
2.3798e-75
1.3269e-71
6.47295e-70
3.15438e-69
6.75293e-69
1.12517e-68
2.19838e-68
5.27161e-68
1.12689e-67
1.8647e-67
2.7409e-67
4.51919e-67
8.37609e-67
1.50088e-66
2.24029e-66
2.95272e-66
4.01719e-66
6.18556e-66
1.02913e-65
1.67058e-65
2.50112e-65
3.5918e-65
5.31889e-65
8.42625e-65
1.3989e-64
2.32315e-64
3.75172e-64
5.92205e-64
9.38298e-64
1.5182e-63
2.52904e-63
4.22322e-63
6.92534e-63
1.09779e-62
1.67952e-62
2.56776e-62
3.85914e-62
5.97585e-62
8.63676e-62
1.29674e-61
2.07062e-61
3.04299e-61
4.85972e-61
7.08126e-61
1.15673e-60
1.90681e-60
3.17573e-60
5.34574e-60
9.21563e-60
1.65744e-59
3.10065e-59
5.93068e-59
1.20476e-58
2.39847e-58
4.89927e-58
1.04487e-57
2.22034e-57
4.90918e-57
1.0971e-56
2.52382e-56
5.95992e-56
1.44289e-55
3.64243e-55
9.49792e-55
2.55199e-54
7.01597e-54
1.9576e-53
5.4235e-53
1.48772e-52
3.92552e-52
1.01471e-51
2.50414e-51
6.11173e-51
1.41724e-50
3.30838e-50
7.50823e-50
1.82535e-49
4.49301e-49
1.24561e-48
3.64386e-48
1.31776e-47
5.46077e-47
3.11324e-46
2.27138e-45
2.65396e-44
4.5736e-43
1.30821e-41
4.53771e-40
1.33596e-38
1.56205e-37