/*--------------------------------*- C++ -*----------------------------------*\
| =========                 |                                                 |
| \\      /  F ield         | OpenFOAM: The Open Source CFD Toolbox           |
|  \\    /   O peration     | Version:  2.4.0                                 |
|   \\  /    A nd           | Web:      www.OpenFOAM.org                      |
|    \\/     M anipulation  |                                                 |
\*---------------------------------------------------------------------------*/
FoamFile
{
    version     2.0;
    format      ascii;
    class       surfaceScalarField;
    location    "0.03";
    object      phiAlpha;
}
// * * * * * * * * * * * * * * * * * * * * * * * * * * * * * * * * * * * * * //

dimensions      [0 3 -1 0 0 0 0];

internalField   nonuniform List<scalar> 
119500
(
1.35433e-13
-1.35433e-13
9.27565e-14
4.26754e-14
1.62807e-14
7.64685e-14
-6.20755e-14
7.83447e-14
-1.331e-13
7.10094e-14
-2.05397e-13
7.22781e-14
-2.78028e-13
7.26097e-14
-3.50961e-13
7.29095e-14
-4.22461e-13
7.14737e-14
-4.92425e-13
6.99362e-14
-5.61871e-13
6.94162e-14
-6.33205e-13
7.13035e-14
-7.08107e-13
7.48713e-14
-7.86978e-13
7.88398e-14
-8.69173e-13
8.21641e-14
-9.53379e-13
8.41757e-14
-1.03834e-12
8.49347e-14
-1.12388e-12
8.55077e-14
-1.21078e-12
8.68749e-14
-1.30068e-12
8.98831e-14
-1.39484e-12
9.41444e-14
-1.49401e-12
9.91449e-14
-1.59813e-12
1.0411e-13
-1.70612e-12
1.07989e-13
-1.81631e-12
1.10181e-13
-1.92693e-12
1.10625e-13
-2.03655e-12
1.09625e-13
-2.14467e-12
1.08132e-13
-2.25186e-12
1.07206e-13
-2.35986e-12
1.0802e-13
-2.47187e-12
1.12032e-13
-2.59085e-12
1.19009e-13
-2.71899e-12
1.28176e-13
-2.85654e-12
1.37593e-13
-3.00188e-12
1.45392e-13
-3.15165e-12
1.49814e-13
-3.30384e-12
1.52243e-13
-3.46014e-12
1.56355e-13
-3.62618e-12
1.66103e-13
-3.80667e-12
1.8055e-13
-4.00447e-12
1.97866e-13
-4.21867e-12
2.14277e-13
-4.44734e-12
2.28732e-13
-4.69058e-12
2.43312e-13
-4.94981e-12
2.59296e-13
-5.23149e-12
2.81759e-13
-5.54049e-12
3.09061e-13
-5.87931e-12
3.38891e-13
-6.24994e-12
3.70688e-13
-6.65085e-12
4.00976e-13
-7.07805e-12
4.27257e-13
-7.528e-12
4.50003e-13
-7.99695e-12
4.69002e-13
-8.4825e-12
4.85587e-13
-8.98351e-12
5.01051e-13
-9.49897e-12
5.1549e-13
-1.00289e-11
5.29987e-13
-1.05741e-11
5.45231e-13
-1.11354e-11
5.61263e-13
-1.17144e-11
5.7901e-13
-1.2313e-11
5.98607e-13
-1.29322e-11
6.19222e-13
-1.35726e-11
6.40393e-13
-1.42332e-11
6.60637e-13
-1.49109e-11
6.7763e-13
-1.56009e-11
6.90003e-13
-1.62978e-11
6.96943e-13
-1.69956e-11
6.9778e-13
-1.76884e-11
6.92825e-13
-1.83715e-11
6.83148e-13
-1.90415e-11
6.70009e-13
-1.96966e-11
6.55122e-13
-2.03369e-11
6.40239e-13
-2.0962e-11
6.25199e-13
-2.15704e-11
6.08426e-13
-2.21596e-11
5.89203e-13
-2.2727e-11
5.67448e-13
-2.32687e-11
5.41825e-13
-2.37808e-11
5.12157e-13
-2.42613e-11
4.80591e-13
-2.47111e-11
4.49829e-13
-2.51338e-11
4.22838e-13
-2.55365e-11
4.028e-13
-2.59292e-11
3.92832e-13
-2.63237e-11
3.94609e-13
-2.67315e-11
4.0796e-13
-2.71643e-11
4.32941e-13
-2.76328e-11
4.68652e-13
-2.81466e-11
5.1402e-13
-2.87141e-11
5.67694e-13
-2.93414e-11
6.27425e-13
-3.00315e-11
6.90345e-13
-3.07847e-11
7.53366e-13
-3.15986e-11
8.14048e-13
-3.24647e-11
8.66387e-13
-3.33978e-11
9.33269e-13
-3.41934e-11
7.95842e-13
-3.57048e-11
1.51162e-12
-3.58388e-11
1.34217e-13
6.28496e-13
-3.64671e-11
2.18503e-13
-3.53947e-13
1.59848e-13
1.01322e-13
4.05023e-14
1.95796e-13
-7.89519e-14
1.97774e-13
-1.95859e-13
1.87886e-13
-3.11204e-13
1.87588e-13
-4.27319e-13
1.88685e-13
-5.43492e-13
1.89038e-13
-6.59314e-13
1.87248e-13
-7.74991e-13
1.85564e-13
-8.91144e-13
1.85518e-13
-1.00961e-12
1.89712e-13
-1.13151e-12
1.96724e-13
-1.25727e-12
2.04545e-13
-1.38677e-12
2.11613e-13
-1.51927e-12
2.16633e-13
-1.65427e-12
2.19888e-13
-1.79177e-12
2.22971e-13
-1.93232e-12
2.27386e-13
-2.07728e-12
2.34809e-13
-2.22754e-12
2.44385e-13
-2.38375e-12
2.55339e-13
-2.54623e-12
2.66576e-13
-2.71444e-12
2.76196e-13
-2.88729e-12
2.83042e-13
-3.06397e-12
2.87316e-13
-3.24386e-12
2.89542e-13
-3.42673e-12
2.9104e-13
-3.61345e-12
2.9397e-13
-3.80575e-12
3.00369e-13
-4.00595e-12
3.12285e-13
-4.21669e-12
3.29823e-13
-4.43969e-12
3.51252e-13
-4.67552e-12
3.73508e-13
-4.92315e-12
3.93116e-13
-5.18096e-12
4.07729e-13
-5.44816e-12
4.19553e-13
-5.72723e-12
4.35532e-13
-6.02246e-12
4.61456e-13
-6.33762e-12
4.95835e-13
-6.67425e-12
5.3462e-13
-7.03278e-12
5.72935e-13
-7.41294e-12
6.09023e-13
-7.8151e-12
6.456e-13
-8.24277e-12
6.87096e-13
-8.70028e-12
7.39389e-13
-9.19058e-12
7.99492e-13
-9.71653e-12
8.64955e-13
-1.02796e-11
9.3389e-13
-1.08792e-11
1.00065e-12
-1.15135e-11
1.06163e-12
-1.21804e-11
1.11706e-12
-1.2878e-11
1.16661e-12
-1.36047e-11
1.21244e-12
-1.43603e-11
1.25672e-12
-1.51446e-11
1.29981e-12
-1.59577e-11
1.34315e-12
-1.68009e-11
1.38839e-12
-1.76757e-11
1.43612e-12
-1.85837e-11
1.48703e-12
-1.95265e-11
1.54141e-12
-2.05056e-11
1.59835e-12
-2.15215e-11
1.65626e-12
-2.25731e-11
1.71231e-12
-2.36586e-11
1.76314e-12
-2.47746e-11
1.80594e-12
-2.59164e-11
1.83876e-12
-2.70793e-11
1.86072e-12
-2.82587e-11
1.87219e-12
-2.945e-11
1.87454e-12
-3.06499e-11
1.86997e-12
-3.18561e-11
1.86133e-12
-3.30667e-11
1.85086e-12
-3.42796e-11
1.83824e-12
-3.54928e-11
1.82164e-12
-3.67033e-11
1.79981e-12
-3.79076e-11
1.7719e-12
-3.91022e-11
1.73658e-12
-4.02845e-11
1.69464e-12
-4.14536e-11
1.64989e-12
-4.26112e-11
1.60763e-12
-4.37621e-11
1.57392e-12
-4.4914e-11
1.55491e-12
-4.6077e-11
1.55611e-12
-4.72631e-11
1.58093e-12
-4.84851e-11
1.6303e-12
-4.97561e-11
1.70419e-12
-5.10882e-11
1.80111e-12
-5.24927e-11
1.91876e-12
-5.39786e-11
2.05398e-12
-5.55525e-11
2.2017e-12
-5.7217e-11
2.35517e-12
-5.89698e-11
2.50653e-12
-6.08027e-11
2.64732e-12
-6.27019e-11
2.76595e-12
-6.46381e-11
2.86989e-12
-6.65928e-11
2.75089e-12
-6.86281e-11
3.54732e-12
-7.02567e-11
1.7632e-12
1.73129e-12
-7.1359e-11
2.08924e-13
-5.62879e-13
1.41966e-13
1.68286e-13
1.80837e-14
3.19675e-13
-1.0504e-13
3.20889e-13
-2.28574e-13
3.11405e-13
-3.50249e-13
3.09244e-13
-4.72124e-13
3.10537e-13
-5.94292e-13
3.1118e-13
-7.17777e-13
3.10703e-13
-8.42971e-13
3.10727e-13
-9.69757e-13
3.1227e-13
-1.09848e-12
3.18404e-13
-1.22916e-12
3.27363e-13
-1.36201e-12
3.37369e-13
-1.49772e-12
3.47291e-13
-1.63669e-12
3.55571e-13
-1.77939e-12
3.62559e-13
-1.92607e-12
3.69629e-13
-2.0769e-12
3.78196e-13
-2.23211e-12
3.90006e-13
-2.39177e-12
4.04033e-13
-2.55625e-12
4.19813e-13
-2.72596e-12
4.36287e-13
-2.90123e-12
4.51475e-13
-3.08247e-12
4.643e-13
-3.27022e-12
4.75087e-13
-3.46507e-12
4.84424e-13
-3.66725e-12
4.93264e-13
-3.8775e-12
5.0427e-13
-4.09657e-12
5.19487e-13
-4.32451e-12
5.40294e-13
-4.56225e-12
5.67627e-13
-4.81048e-12
5.99563e-13
-5.07007e-12
6.33181e-13
-5.34131e-12
6.64446e-13
-5.62549e-12
6.92007e-13
-5.92338e-12
7.17554e-13
-6.23627e-12
7.48527e-13
-6.56495e-12
7.90248e-13
-6.91046e-12
8.41461e-13
-7.27247e-12
8.96754e-13
-7.65288e-12
9.53464e-13
-8.05279e-12
1.00906e-12
-8.47304e-12
1.06597e-12
-8.91641e-12
1.13059e-12
-9.38224e-12
1.20533e-12
-9.87194e-12
1.28932e-12
-1.03878e-11
1.38094e-12
-1.09287e-11
1.47492e-12
-1.14957e-11
1.56777e-12
-1.20898e-11
1.65575e-12
-1.27112e-11
1.73857e-12
-1.33615e-11
1.81698e-12
-1.4041e-11
1.89205e-12
-1.475e-11
1.96575e-12
-1.54896e-11
2.03946e-12
-1.62601e-11
2.11372e-12
-1.70621e-11
2.19047e-12
-1.7897e-11
2.271e-12
-1.87651e-11
2.35518e-12
-1.96668e-11
2.44311e-12
-2.06025e-11
2.53412e-12
-2.15721e-11
2.62584e-12
-2.25748e-11
2.715e-12
-2.36102e-11
2.79853e-12
-2.46773e-11
2.87306e-12
-2.57743e-11
2.93577e-12
-2.68991e-11
2.98554e-12
-2.80491e-11
3.02222e-12
-2.92213e-11
3.04676e-12
-3.04127e-11
3.06144e-12
-3.16201e-11
3.06877e-12
-3.28393e-11
3.07017e-12
-3.40663e-11
3.06532e-12
-3.52979e-11
3.05332e-12
-3.65314e-11
3.03336e-12
-3.7764e-11
3.00467e-12
-3.89945e-11
2.96725e-12
-4.02231e-11
2.92337e-12
-4.14512e-11
2.87817e-12
-4.26821e-11
2.83866e-12
-4.39207e-11
2.81272e-12
-4.51741e-11
2.80855e-12
-4.64507e-11
2.83297e-12
-4.77601e-11
2.89052e-12
-4.91134e-11
2.98387e-12
-5.05225e-11
3.1135e-12
-5.19992e-11
3.27809e-12
-5.35546e-11
3.47453e-12
-5.51981e-11
3.69772e-12
-5.69364e-11
3.94029e-12
-5.8773e-11
4.19211e-12
-6.07066e-11
4.4405e-12
-6.273e-11
4.67103e-12
-6.48278e-11
4.86411e-12
-6.69709e-11
5.01325e-12
-6.91751e-11
4.95549e-12
-7.11686e-11
5.54114e-12
-7.33375e-11
3.9325e-12
2.83437e-12
-7.44402e-11
1.80376e-13
-7.43255e-13
1.17029e-13
2.31658e-13
-1.01136e-15
4.37729e-13
-1.20673e-13
4.4056e-13
-2.42224e-13
4.3296e-13
-3.63046e-13
4.30066e-13
-4.8425e-13
4.31737e-13
-6.06074e-13
4.32998e-13
-7.29733e-13
4.34353e-13
-8.55493e-13
4.36477e-13
-9.83219e-13
4.39983e-13
-1.11276e-12
4.47934e-13
-1.24385e-12
4.58438e-13
-1.37669e-12
4.70196e-13
-1.51215e-12
4.82734e-13
-1.65084e-12
4.94252e-13
-1.79355e-12
5.05264e-13
-1.94053e-12
5.16604e-13
-2.0919e-12
5.29559e-13
-2.24757e-12
5.45685e-13
-2.40733e-12
5.63802e-13
-2.57156e-12
5.84048e-13
-2.74067e-12
6.05421e-13
-2.91508e-12
6.25906e-13
-3.0959e-12
6.45156e-13
-3.28423e-12
6.63453e-13
-3.48083e-12
6.81074e-13
-3.68651e-12
6.98998e-13
-3.90174e-12
7.19565e-13
-4.12675e-12
7.44558e-13
-4.36109e-12
7.74707e-13
-4.60407e-12
8.10698e-13
-4.85668e-12
8.52253e-13
-5.11974e-12
8.96339e-13
-5.39461e-12
9.39419e-13
-5.68299e-12
9.80497e-13
-5.98636e-12
1.02104e-12
-6.30488e-12
1.06716e-12
-6.63872e-12
1.12421e-12
-6.98721e-12
1.19008e-12
-7.3507e-12
1.26037e-12
-7.72975e-12
1.33265e-12
-8.12654e-12
1.40597e-12
-8.54306e-12
1.48262e-12
-8.97887e-12
1.56653e-12
-9.43407e-12
1.66066e-12
-9.9091e-12
1.76447e-12
-1.04027e-11
1.8747e-12
-1.09161e-11
1.98836e-12
-1.14506e-11
2.10243e-12
-1.20081e-11
2.21332e-12
-1.25903e-11
2.32088e-12
-1.31988e-11
2.42564e-12
-1.38352e-11
2.52853e-12
-1.45006e-11
2.63113e-12
-1.51956e-11
2.73454e-12
-1.59212e-11
2.83945e-12
-1.66781e-11
2.94736e-12
-1.74663e-11
3.05924e-12
-1.82861e-11
3.17507e-12
-1.91376e-11
3.29468e-12
-2.00206e-11
3.41714e-12
-2.09349e-11
3.54016e-12
-2.18803e-11
3.66038e-12
-2.28565e-11
3.77473e-12
-2.38634e-11
3.88003e-12
-2.49006e-11
3.97304e-12
-2.59669e-11
4.05185e-12
-2.70604e-11
4.11579e-12
-2.81788e-11
4.16521e-12
-2.9319e-11
4.20162e-12
-3.0477e-11
4.22683e-12
-3.16483e-11
4.24158e-12
-3.28284e-11
4.24554e-12
-3.40135e-11
4.23846e-12
-3.52003e-11
4.2203e-12
-3.63867e-11
4.19125e-12
-3.7572e-11
4.15269e-12
-3.87571e-11
4.1086e-12
-3.99445e-11
4.06574e-12
-4.11379e-11
4.03224e-12
-4.23423e-11
4.01736e-12
-4.35645e-11
4.03099e-12
-4.48126e-11
4.08125e-12
-4.60955e-11
4.17372e-12
-4.74239e-11
4.31253e-12
-4.88096e-11
4.49942e-12
-5.02644e-11
4.73319e-12
-5.17998e-11
5.01021e-12
-5.34258e-11
5.32402e-12
-5.51501e-11
5.66491e-12
-5.69771e-11
6.01943e-12
-5.89066e-11
6.37029e-12
-6.09329e-11
6.69761e-12
-6.30416e-11
6.97324e-12
-6.52053e-11
7.17726e-12
-6.74332e-11
7.18368e-12
-6.94399e-11
7.54821e-12
-7.16572e-11
6.15014e-12
3.92966e-12
-7.27521e-11
1.65044e-13
-9.08289e-13
1.02324e-13
2.94428e-13
-9.76797e-15
5.49859e-13
-1.2697e-13
5.57794e-13
-2.4641e-13
5.52427e-13
-3.6612e-13
5.498e-13
-4.86489e-13
5.52127e-13
-6.07785e-13
5.54312e-13
-7.30977e-13
5.5756e-13
-8.56126e-13
5.61638e-13
-9.83505e-13
5.67373e-13
-1.11257e-12
5.77014e-13
-1.24316e-12
5.89037e-13
-1.37564e-12
6.02681e-13
-1.51078e-12
6.17893e-13
-1.64896e-12
6.32444e-13
-1.79123e-12
6.47548e-13
-1.93773e-12
6.63125e-13
-2.08847e-12
6.80314e-13
-2.24356e-12
7.00808e-13
-2.40276e-12
7.23028e-13
-2.56631e-12
7.47629e-13
-2.73483e-12
7.73985e-13
-2.90861e-12
7.99739e-13
-3.08878e-12
8.25381e-13
-3.27672e-12
8.51443e-13
-3.47314e-12
8.77566e-13
-3.67897e-12
9.04905e-13
-3.89471e-12
9.35382e-13
-4.12019e-12
9.70126e-13
-4.35489e-12
1.0095e-12
-4.59815e-12
1.05406e-12
-4.85033e-12
1.10454e-12
-5.11326e-12
1.15938e-12
-5.38826e-12
1.21454e-12
-5.677e-12
1.26936e-12
-5.98055e-12
1.32472e-12
-6.299e-12
1.38574e-12
-6.6319e-12
1.45724e-12
-6.97914e-12
1.53747e-12
-7.34083e-12
1.62221e-12
-7.71813e-12
1.71009e-12
-8.11251e-12
1.8005e-12
-8.52537e-12
1.89562e-12
-8.9576e-12
1.99891e-12
-9.40765e-12
2.11086e-12
-9.87509e-12
2.23205e-12
-1.03605e-11
2.36026e-12
-1.08647e-11
2.4927e-12
-1.13888e-11
2.6266e-12
-1.19349e-11
2.75955e-12
-1.25048e-11
2.8909e-12
-1.31003e-11
3.02124e-12
-1.37231e-11
3.15142e-12
-1.43742e-11
3.28232e-12
-1.50545e-11
3.41496e-12
-1.57651e-11
3.55011e-12
-1.65064e-11
3.68873e-12
-1.72786e-11
3.83151e-12
-1.8082e-11
3.97852e-12
-1.89166e-11
4.12934e-12
-1.97821e-11
4.28275e-12
-2.06785e-11
4.43655e-12
-2.16057e-11
4.58764e-12
-2.25638e-11
4.73295e-12
-2.35528e-11
4.86905e-12
-2.45721e-11
4.99237e-12
-2.56206e-11
5.10042e-12
-2.66968e-11
5.19209e-12
-2.77986e-11
5.26708e-12
-2.89228e-11
5.32584e-12
-3.0065e-11
5.36915e-12
-3.12206e-11
5.39723e-12
-3.23849e-11
5.40997e-12
-3.3554e-11
5.40767e-12
-3.47243e-11
5.39077e-12
-3.58933e-11
5.36045e-12
-3.70603e-11
5.31982e-12
-3.82261e-11
5.27457e-12
-3.9393e-11
5.23283e-12
-4.05649e-11
5.20436e-12
-4.17473e-11
5.20001e-12
-4.29469e-11
5.23077e-12
-4.41713e-11
5.3059e-12
-4.54301e-11
5.43281e-12
-4.67344e-11
5.61709e-12
-4.80961e-11
5.86134e-12
-4.95274e-11
6.1648e-12
-5.10404e-11
6.52356e-12
-5.26463e-11
6.93019e-12
-5.43539e-11
7.3728e-12
-5.61689e-11
7.8348e-12
-5.80928e-11
8.29448e-12
-6.01201e-11
8.7253e-12
-6.22379e-11
9.09129e-12
-6.4421e-11
9.36071e-12
-6.66655e-11
9.42853e-12
-6.87409e-11
9.62402e-12
-7.09271e-11
8.33667e-12
5.00982e-12
-7.20069e-11
1.52886e-13
-1.06115e-12
9.18047e-14
3.55589e-13
-1.4913e-14
6.56641e-13
-1.30174e-13
6.73116e-13
-2.47745e-13
6.70055e-13
-3.66541e-13
6.68649e-13
-4.86308e-13
6.71945e-13
-6.07292e-13
6.75343e-13
-7.30076e-13
6.80388e-13
-8.54568e-13
6.86172e-13
-9.81311e-13
6.94158e-13
-1.10978e-12
7.05527e-13
-1.23989e-12
7.19187e-13
-1.37214e-12
7.34964e-13
-1.5072e-12
7.52998e-13
-1.6451e-12
7.70385e-13
-1.78694e-12
7.89435e-13
-1.93297e-12
8.09205e-13
-2.08304e-12
8.30432e-13
-2.23743e-12
8.55253e-13
-2.39621e-12
8.81864e-13
-2.5594e-12
9.10881e-13
-2.72767e-12
9.42322e-13
-2.9015e-12
9.73645e-13
-3.08146e-12
1.00542e-12
-3.26903e-12
1.0391e-12
-3.46503e-12
1.07366e-12
-3.67006e-12
1.11003e-12
-3.88506e-12
1.15049e-12
-4.10964e-12
1.19481e-12
-4.34339e-12
1.24338e-12
-4.58583e-12
1.29662e-12
-4.83715e-12
1.35599e-12
-5.09936e-12
1.42173e-12
-5.374e-12
1.48932e-12
-5.66219e-12
1.5577e-12
-5.96502e-12
1.62771e-12
-6.28238e-12
1.70325e-12
-6.61347e-12
1.7885e-12
-6.95891e-12
1.88307e-12
-7.31892e-12
1.98238e-12
-7.69442e-12
2.08577e-12
-8.08737e-12
2.19362e-12
-8.49785e-12
2.30627e-12
-8.92664e-12
2.42787e-12
-9.37343e-12
2.55781e-12
-9.83827e-12
2.69705e-12
-1.03216e-11
2.84379e-12
-1.08238e-11
2.99502e-12
-1.13458e-11
3.14875e-12
-1.18895e-11
3.30342e-12
-1.2457e-11
3.45847e-12
-1.30497e-11
3.61415e-12
-1.36694e-11
3.77121e-12
-1.43171e-11
3.9301e-12
-1.49938e-11
4.09175e-12
-1.57005e-11
4.25692e-12
-1.64376e-11
4.426e-12
-1.72057e-11
4.59964e-12
-1.8005e-11
4.77792e-12
-1.88356e-11
4.96005e-12
-1.96975e-11
5.1447e-12
-2.05906e-11
5.32976e-12
-2.15152e-11
5.51226e-12
-2.24712e-11
5.68904e-12
-2.34585e-11
5.85646e-12
-2.44766e-11
6.0105e-12
-2.55243e-11
6.1482e-12
-2.66001e-11
6.26799e-12
-2.77017e-11
6.36881e-12
-2.88258e-11
6.45002e-12
-2.9968e-11
6.51152e-12
-3.11238e-11
6.55308e-12
-3.22881e-11
6.57445e-12
-3.34566e-11
6.5763e-12
-3.46255e-11
6.55981e-12
-3.5792e-11
6.52719e-12
-3.69551e-11
6.48311e-12
-3.81152e-11
6.43482e-12
-3.92742e-11
6.39209e-12
-4.04361e-11
6.36647e-12
-4.16063e-11
6.37048e-12
-4.27916e-11
6.41628e-12
-4.40001e-11
6.51464e-12
-4.52418e-11
6.67486e-12
-4.65283e-11
6.90387e-12
-4.78721e-11
7.20537e-12
-4.92863e-11
7.5793e-12
-5.07839e-11
8.02152e-12
-5.23772e-11
8.52382e-12
-5.40765e-11
9.07245e-12
-5.58891e-11
9.64766e-12
-5.78174e-11
1.02231e-11
-5.98572e-11
1.07655e-11
-6.19978e-11
1.12322e-11
-6.4216e-11
1.15792e-11
-6.6497e-11
1.17099e-11
-6.86651e-11
1.17925e-11
-7.08547e-11
1.05267e-11
6.12666e-12
-7.19712e-11
1.42918e-13
-1.20403e-12
8.38615e-14
4.14762e-13
-1.87176e-14
7.59319e-13
-1.32165e-13
7.86658e-13
-2.48184e-13
7.86165e-13
-3.66191e-13
7.86743e-13
-4.85407e-13
7.91245e-13
-6.06062e-13
7.96081e-13
-7.28416e-13
8.02823e-13
-8.52323e-13
8.10157e-13
-9.78376e-13
8.20287e-13
-1.10625e-12
8.33476e-13
-1.23594e-12
8.48955e-13
-1.36793e-12
8.67031e-13
-1.5027e-12
8.87835e-13
-1.64034e-12
9.08102e-13
-1.78171e-12
9.30884e-13
-1.92707e-12
9.54651e-13
-2.07649e-12
9.79936e-13
-2.23025e-12
1.0091e-12
-2.38847e-12
1.04017e-12
-2.55145e-12
1.07396e-12
-2.71954e-12
1.11051e-12
-2.89333e-12
1.14754e-12
-3.07331e-12
1.18551e-12
-3.2605e-12
1.22641e-12
-3.4559e-12
1.26919e-12
-3.65992e-12
1.31418e-12
-3.87352e-12
1.36422e-12
-4.09695e-12
1.41839e-12
-4.32948e-12
1.47605e-12
-4.57095e-12
1.53824e-12
-4.82135e-12
1.60656e-12
-5.08264e-12
1.68319e-12
-5.35656e-12
1.7634e-12
-5.64391e-12
1.84523e-12
-5.9455e-12
1.92947e-12
-6.26143e-12
2.01937e-12
-6.59087e-12
2.11812e-12
-6.93404e-12
2.22643e-12
-7.29228e-12
2.3408e-12
-7.66577e-12
2.45945e-12
-8.05629e-12
2.58433e-12
-8.465e-12
2.71517e-12
-8.8917e-12
2.85476e-12
-9.33692e-12
3.00322e-12
-9.80038e-12
3.16069e-12
-1.0282e-11
3.3256e-12
-1.07828e-11
3.49599e-12
-1.13039e-11
3.67001e-12
-1.18471e-11
3.84681e-12
-1.24142e-11
4.0257e-12
-1.30064e-11
4.20656e-12
-1.36253e-11
4.39018e-12
-1.4272e-11
4.57693e-12
-1.49473e-11
4.76727e-12
-1.56524e-11
4.96207e-12
-1.63879e-11
5.16164e-12
-1.71544e-11
5.36629e-12
-1.79523e-11
5.57595e-12
-1.87819e-11
5.78972e-12
-1.96433e-11
6.00621e-12
-2.05368e-11
6.22332e-12
-2.14624e-11
6.43797e-12
-2.242e-11
6.64679e-12
-2.34095e-11
6.84606e-12
-2.44305e-11
7.03159e-12
-2.5482e-11
7.19983e-12
-2.65622e-11
7.34833e-12
-2.76685e-11
7.47518e-12
-2.87973e-11
7.57897e-12
-2.99444e-11
7.65873e-12
-3.11048e-11
7.71372e-12
-3.22738e-11
7.74353e-12
-3.34462e-11
7.74887e-12
-3.46178e-11
7.73163e-12
-3.57857e-11
7.69527e-12
-3.69483e-11
7.64594e-12
-3.81058e-11
7.59253e-12
-3.92599e-11
7.54644e-12
-4.0414e-11
7.52088e-12
-4.15734e-11
7.53011e-12
-4.2745e-11
7.58816e-12
-4.39377e-11
7.70762e-12
-4.51621e-11
7.89954e-12
-4.64302e-11
8.17228e-12
-4.77553e-11
8.53079e-12
-4.91517e-11
8.97604e-12
-5.06339e-11
9.50402e-12
-5.22153e-11
1.01056e-11
-5.3908e-11
1.07655e-11
-5.57206e-11
1.14606e-11
-5.76571e-11
1.21601e-11
-5.97157e-11
1.28245e-11
-6.18875e-11
1.34044e-11
-6.41517e-11
1.38438e-11
-6.64879e-11
1.40465e-11
-6.87617e-11
1.40666e-11
-7.10006e-11
1.2766e-11
7.31494e-12
-7.21885e-11
1.3661e-13
-1.34058e-12
7.90656e-14
4.72463e-13
-2.08787e-14
8.59399e-13
-1.33074e-13
8.98986e-13
-2.47969e-13
9.0119e-13
-3.65342e-13
9.04243e-13
-4.84084e-13
9.10112e-13
-6.04379e-13
9.16498e-13
-7.26218e-13
9.24782e-13
-8.49606e-13
9.33663e-13
-9.7497e-13
9.45768e-13
-1.1022e-12
9.60821e-13
-1.23146e-12
9.78332e-13
-1.36314e-12
9.98824e-13
-1.49734e-12
1.02215e-12
-1.63455e-12
1.04544e-12
-1.77548e-12
1.07193e-12
-1.91997e-12
1.09926e-12
-2.06869e-12
1.12877e-12
-2.22201e-12
1.16255e-12
-2.37956e-12
1.19785e-12
-2.54215e-12
1.23668e-12
-2.71003e-12
1.27853e-12
-2.88339e-12
1.32103e-12
-3.06327e-12
1.36554e-12
-3.25021e-12
1.4135e-12
-3.44482e-12
1.46395e-12
-3.64776e-12
1.51729e-12
-3.85956e-12
1.57618e-12
-4.08143e-12
1.64043e-12
-4.3128e-12
1.7076e-12
-4.55341e-12
1.77904e-12
-4.80299e-12
1.85633e-12
-5.06317e-12
1.94356e-12
-5.33603e-12
2.03646e-12
-5.62228e-12
2.13168e-12
-5.92254e-12
2.22994e-12
-6.23678e-12
2.33383e-12
-6.56448e-12
2.44603e-12
-6.906e-12
2.56817e-12
-7.26241e-12
2.69743e-12
-7.63466e-12
2.83192e-12
-8.02399e-12
2.97388e-12
-8.43087e-12
3.12226e-12
-8.85551e-12
3.27961e-12
-9.29862e-12
3.44655e-12
-9.7598e-12
3.62207e-12
-1.02395e-11
3.80554e-12
-1.0739e-11
3.99563e-12
-1.12593e-11
4.1905e-12
-1.18019e-11
4.38962e-12
-1.23683e-11
4.59227e-12
-1.29597e-11
4.79821e-12
-1.35777e-11
5.00832e-12
-1.42234e-11
5.22275e-12
-1.48976e-11
5.44171e-12
-1.56014e-11
5.66603e-12
-1.63357e-11
5.89602e-12
-1.7101e-11
6.13176e-12
-1.7898e-11
6.37304e-12
-1.87269e-11
6.61885e-12
-1.95883e-11
6.86774e-12
-2.04825e-11
7.11757e-12
-2.14094e-11
7.36509e-12
-2.23693e-11
7.60673e-12
-2.33617e-11
7.83867e-12
-2.43865e-11
8.0565e-12
-2.54425e-11
8.25601e-12
-2.6528e-11
8.43391e-12
-2.76401e-11
8.58749e-12
-2.87754e-11
8.71438e-12
-2.99291e-11
8.81265e-12
-3.10962e-11
8.88101e-12
-3.22714e-11
8.91893e-12
-3.34494e-11
8.92705e-12
-3.46253e-11
8.90779e-12
-3.57957e-11
8.8659e-12
-3.69586e-11
8.80904e-12
-3.81136e-11
8.74778e-12
-3.92622e-11
8.69533e-12
-4.04077e-11
8.66662e-12
-4.1555e-11
8.67776e-12
-4.27114e-11
8.74484e-12
-4.38861e-11
8.88268e-12
-4.50905e-11
9.10421e-12
-4.63372e-11
9.41935e-12
-4.76407e-11
9.83457e-12
-4.90163e-11
1.0352e-11
-5.048e-11
1.09681e-11
-5.2047e-11
1.1673e-11
-5.37308e-11
1.24497e-11
-5.55422e-11
1.32723e-11
-5.74877e-11
1.4106e-11
-5.95681e-11
1.49052e-11
-6.17771e-11
1.56138e-11
-6.40964e-11
1.61635e-11
-6.65037e-11
1.64542e-11
-6.88957e-11
1.64589e-11
-7.12298e-11
1.51005e-11
8.59705e-12
-7.25114e-11
1.35059e-13
-1.47556e-12
7.80828e-14
5.29641e-13
-2.11123e-14
9.58772e-13
-1.32678e-13
1.01073e-12
-2.46941e-13
1.01563e-12
-3.63951e-13
1.02142e-12
-4.8235e-13
1.02868e-12
-6.023e-13
1.03662e-12
-7.2352e-13
1.04617e-12
-8.46443e-13
1.05675e-12
-9.71153e-13
1.07064e-12
-1.09771e-12
1.08754e-12
-1.22641e-12
1.10719e-12
-1.35765e-12
1.13022e-12
-1.49123e-12
1.1559e-12
-1.62776e-12
1.18212e-12
-1.76818e-12
1.21251e-12
-1.91184e-12
1.24308e-12
-2.05975e-12
1.27685e-12
-2.21253e-12
1.3155e-12
-2.36944e-12
1.35492e-12
-2.53125e-12
1.39866e-12
-2.69888e-12
1.44634e-12
-2.87201e-12
1.49434e-12
-3.05129e-12
1.545e-12
-3.23782e-12
1.60022e-12
-3.43156e-12
1.65788e-12
-3.63324e-12
1.71918e-12
-3.84332e-12
1.78646e-12
-4.06324e-12
1.86057e-12
-4.29315e-12
1.93773e-12
-4.53302e-12
2.01913e-12
-4.78196e-12
2.10549e-12
-5.04088e-12
2.20271e-12
-5.31254e-12
2.30836e-12
-5.59725e-12
2.41662e-12
-5.89598e-12
2.52891e-12
-6.20878e-12
2.64686e-12
-6.53462e-12
2.77212e-12
-6.87457e-12
2.90837e-12
-7.22983e-12
3.05294e-12
-7.6008e-12
3.20313e-12
-7.9882e-12
3.36153e-12
-8.39305e-12
3.52736e-12
-8.81584e-12
3.70265e-12
-9.25654e-12
3.88749e-12
-9.71583e-12
4.08161e-12
-1.01941e-11
4.28403e-12
-1.06921e-11
4.49385e-12
-1.12111e-11
4.70974e-12
-1.17524e-11
4.93111e-12
-1.23174e-11
5.15751e-12
-1.29076e-11
5.38865e-12
-1.35242e-11
5.6251e-12
-1.41684e-11
5.86716e-12
-1.48414e-11
6.11487e-12
-1.55439e-11
6.36873e-12
-1.62768e-11
6.62905e-12
-1.70408e-11
6.89597e-12
-1.78367e-11
7.16913e-12
-1.86651e-11
7.44741e-12
-1.95264e-11
7.72921e-12
-2.0421e-11
8.01228e-12
-2.13492e-11
8.29352e-12
-2.23114e-11
8.56909e-12
-2.33071e-11
8.83451e-12
-2.43357e-11
9.0853e-12
-2.53965e-11
9.31697e-12
-2.64877e-11
9.52526e-12
-2.76065e-11
9.70648e-12
-2.87492e-11
9.85725e-12
-2.99109e-11
9.97457e-12
-3.10861e-11
1.00565e-11
-3.22691e-11
1.01021e-11
-3.34538e-11
1.0112e-11
-3.46351e-11
1.00894e-11
-3.58088e-11
1.00398e-11
-3.69721e-11
9.97261e-12
-3.81243e-11
9.90029e-12
-3.92666e-11
9.83791e-12
-4.0402e-11
9.80233e-12
-4.15357e-11
9.81172e-12
-4.26747e-11
9.88422e-12
-4.38288e-11
1.00371e-11
-4.50097e-11
1.02855e-11
-4.62314e-11
1.06414e-11
-4.75094e-11
1.11129e-11
-4.88604e-11
1.17034e-11
-5.0302e-11
1.24101e-11
-5.18514e-11
1.32228e-11
-5.3524e-11
1.41226e-11
-5.5333e-11
1.50817e-11
-5.72877e-11
1.6061e-11
-5.9392e-11
1.70099e-11
-6.16423e-11
1.78644e-11
-6.4024e-11
1.85456e-11
-6.65165e-11
1.89471e-11
-6.90409e-11
1.89836e-11
-7.1515e-11
1.7575e-11
9.99855e-12
-7.29161e-11
1.37923e-13
-1.61337e-12
8.05614e-14
5.87254e-13
-1.96332e-14
1.05919e-12
-1.31227e-13
1.12254e-12
-2.45242e-13
1.12986e-12
-3.62092e-13
1.13849e-12
-4.80243e-13
1.14705e-12
-5.99867e-13
1.15645e-12
-7.20431e-13
1.16695e-12
-8.42879e-13
1.17941e-12
-9.66908e-13
1.19488e-12
-1.09283e-12
1.21367e-12
-1.22083e-12
1.2354e-12
-1.3514e-12
1.261e-12
-1.4844e-12
1.2891e-12
-1.62014e-12
1.31806e-12
-1.75984e-12
1.35243e-12
-1.90283e-12
1.38628e-12
-2.04996e-12
1.4242e-12
-2.20191e-12
1.46766e-12
-2.35817e-12
1.5114e-12
-2.51919e-12
1.5599e-12
-2.68613e-12
1.6135e-12
-2.85891e-12
1.66734e-12
-3.03743e-12
1.72375e-12
-3.22316e-12
1.78619e-12
-3.41617e-12
1.85112e-12
-3.61649e-12
1.91973e-12
-3.82493e-12
1.99515e-12
-4.043e-12
2.07888e-12
-4.27131e-12
2.16629e-12
-4.50981e-12
2.25788e-12
-4.75813e-12
2.35407e-12
-5.01603e-12
2.46087e-12
-5.28583e-12
2.57842e-12
-5.56894e-12
2.7e-12
-5.86564e-12
2.82588e-12
-6.1762e-12
2.9577e-12
-6.50028e-12
3.09647e-12
-6.83799e-12
3.24635e-12
-7.19055e-12
3.40577e-12
-7.55964e-12
3.5725e-12
-7.94545e-12
3.74761e-12
-8.3487e-12
3.93089e-12
-8.76939e-12
4.1236e-12
-9.20797e-12
4.32634e-12
-9.66526e-12
4.53916e-12
-1.01417e-11
4.76071e-12
-1.06381e-11
4.99049e-12
-1.11557e-11
5.2276e-12
-1.16956e-11
5.47129e-12
-1.22592e-11
5.72133e-12
-1.28479e-11
5.97759e-12
-1.3463e-11
6.24041e-12
-1.41057e-11
6.51009e-12
-1.47771e-11
6.78652e-12
-1.54781e-11
7.06992e-12
-1.62095e-11
7.36069e-12
-1.69723e-11
7.65895e-12
-1.77672e-11
7.96426e-12
-1.8595e-11
8.2754e-12
-1.94562e-11
8.59058e-12
-2.03513e-11
8.90757e-12
-2.1281e-11
9.22339e-12
-2.22455e-11
9.5338e-12
-2.32446e-11
9.83377e-12
-2.42777e-11
1.01186e-11
-2.53442e-11
1.03837e-11
-2.64422e-11
1.06235e-11
-2.75689e-11
1.08333e-11
-2.87201e-11
1.10087e-11
-2.9891e-11
1.11457e-11
-3.10757e-11
1.12414e-11
-3.22677e-11
1.12943e-11
-3.34604e-11
1.1305e-11
-3.4648e-11
1.12773e-11
-3.58256e-11
1.12177e-11
-3.69899e-11
1.11372e-11
-3.81395e-11
1.10501e-11
-3.92749e-11
1.09737e-11
-4.03991e-11
1.09268e-11
-4.15171e-11
1.093e-11
-4.26362e-11
1.10037e-11
-4.37663e-11
1.11676e-11
-4.49202e-11
1.14398e-11
-4.61128e-11
1.18343e-11
-4.73609e-11
1.23614e-11
-4.86829e-11
1.30259e-11
-5.00984e-11
1.3826e-11
-5.16266e-11
1.47513e-11
-5.32853e-11
1.57818e-11
-5.50902e-11
1.6887e-11
-5.70537e-11
1.80248e-11
-5.91829e-11
1.91395e-11
-6.14776e-11
2.01596e-11
-6.39283e-11
2.09967e-11
-6.65195e-11
2.15387e-11
-6.91926e-11
2.16571e-11
-7.18475e-11
2.02302e-11
1.15526e-11
-7.34011e-11
1.43735e-13
-1.75697e-12
8.55218e-14
6.45769e-13
-1.67481e-14
1.16173e-12
-1.28801e-13
1.23487e-12
-2.42913e-13
1.24424e-12
-3.5977e-13
1.25562e-12
-4.77721e-13
1.26527e-12
-5.96984e-13
1.27598e-12
-7.17009e-13
1.28724e-12
-8.38888e-13
1.30155e-12
-9.62139e-13
1.3184e-12
-1.08747e-12
1.33927e-12
-1.21473e-12
1.36292e-12
-1.34446e-12
1.39099e-12
-1.47676e-12
1.42167e-12
-1.61184e-12
1.4534e-12
-1.75078e-12
1.49163e-12
-1.89305e-12
1.52881e-12
-2.03953e-12
1.57094e-12
-2.19053e-12
1.61892e-12
-2.34585e-12
1.66698e-12
-2.50611e-12
1.72043e-12
-2.6721e-12
1.77976e-12
-2.84402e-12
1.83953e-12
-3.02182e-12
1.90182e-12
-3.20655e-12
1.9712e-12
-3.39865e-12
2.0435e-12
-3.59775e-12
2.11912e-12
-3.80454e-12
2.20222e-12
-4.02073e-12
2.29536e-12
-4.24733e-12
2.39319e-12
-4.48422e-12
2.49506e-12
-4.73144e-12
2.60159e-12
-4.98855e-12
2.71829e-12
-5.25605e-12
2.84621e-12
-5.53703e-12
2.98128e-12
-5.83166e-12
3.12082e-12
-6.13955e-12
3.26589e-12
-6.46126e-12
3.41849e-12
-6.79651e-12
3.5819e-12
-7.14713e-12
3.7567e-12
-7.51443e-12
3.94011e-12
-7.8981e-12
4.13158e-12
-8.29871e-12
4.3318e-12
-8.71685e-12
4.54205e-12
-9.15318e-12
4.76296e-12
-9.60812e-12
4.9944e-12
-1.00824e-11
5.23526e-12
-1.05769e-11
5.48533e-12
-1.10929e-11
5.7438e-12
-1.16312e-11
6.00994e-12
-1.21934e-11
6.2837e-12
-1.27806e-11
6.56507e-12
-1.33941e-11
6.85419e-12
-1.4035e-11
7.15126e-12
-1.47046e-11
7.45633e-12
-1.5404e-11
7.76955e-12
-1.61341e-11
8.09104e-12
-1.68957e-11
8.42081e-12
-1.76897e-11
8.75844e-12
-1.85168e-11
9.10271e-12
-1.93778e-11
9.45183e-12
-2.02736e-11
9.80355e-12
-2.12047e-11
1.01547e-11
-2.21715e-11
1.05008e-11
-2.31743e-11
1.08368e-11
-2.42128e-11
1.11573e-11
-2.52858e-11
1.14569e-11
-2.63915e-11
1.17295e-11
-2.75272e-11
1.19692e-11
-2.86883e-11
1.21702e-11
-2.98697e-11
1.23274e-11
-3.10651e-11
1.2437e-11
-3.22673e-11
1.24968e-11
-3.34694e-11
1.25074e-11
-3.46646e-11
1.24728e-11
-3.58473e-11
1.24007e-11
-3.70136e-11
1.23037e-11
-3.81609e-11
1.21978e-11
-3.92892e-11
1.21023e-11
-4.04008e-11
1.20388e-11
-4.15007e-11
1.20303e-11
-4.2597e-11
1.21003e-11
-4.37e-11
1.2271e-11
-4.48231e-11
1.25632e-11
-4.59825e-11
1.29941e-11
-4.71965e-11
1.35757e-11
-4.84851e-11
1.43149e-11
-4.98697e-11
1.52109e-11
-5.13721e-11
1.62541e-11
-5.30132e-11
1.74232e-11
-5.48111e-11
1.86854e-11
-5.67816e-11
1.99956e-11
-5.8935e-11
2.12934e-11
-6.1276e-11
2.25009e-11
-6.38005e-11
2.35216e-11
-6.65002e-11
2.42388e-11
-6.93329e-11
2.44902e-11
-7.21933e-11
2.3091e-11
1.32844e-11
-7.39246e-11
1.51128e-13
-1.90794e-12
9.18834e-14
7.0537e-13
-1.27949e-14
1.26673e-12
-1.25768e-13
1.34816e-12
-2.40243e-13
1.35904e-12
-3.572e-13
1.3729e-12
-4.7505e-13
1.38344e-12
-5.93881e-13
1.39514e-12
-7.13541e-13
1.40722e-12
-8.34802e-13
1.42313e-12
-9.5715e-13
1.44106e-12
-1.08176e-12
1.4642e-12
-1.20815e-12
1.48963e-12
-1.33701e-12
1.52016e-12
-1.46833e-12
1.5533e-12
-1.60262e-12
1.588e-12
-1.74075e-12
1.63008e-12
-1.88195e-12
1.67032e-12
-2.02771e-12
1.71701e-12
-2.17807e-12
1.7696e-12
-2.33248e-12
1.8217e-12
-2.49196e-12
1.88022e-12
-2.65705e-12
1.94517e-12
-2.8278e-12
2.01059e-12
-3.0047e-12
2.07904e-12
-3.18842e-12
2.15524e-12
-3.37928e-12
2.23468e-12
-3.57709e-12
2.31725e-12
-3.78244e-12
2.40789e-12
-3.9965e-12
2.50975e-12
-4.22134e-12
2.61836e-12
-4.45638e-12
2.73043e-12
-4.70198e-12
2.84752e-12
-4.95766e-12
2.9743e-12
-5.22356e-12
3.11246e-12
-5.50238e-12
3.26044e-12
-5.7946e-12
3.41338e-12
-6.10033e-12
3.57196e-12
-6.42015e-12
3.73864e-12
-6.75341e-12
3.9155e-12
-7.10175e-12
4.10538e-12
-7.4665e-12
4.3052e-12
-7.84762e-12
4.51303e-12
-8.24574e-12
4.73025e-12
-8.66138e-12
4.95801e-12
-9.09497e-12
5.19687e-12
-9.54742e-12
5.44717e-12
-1.00195e-11
5.70761e-12
-1.05119e-11
5.97806e-12
-1.10258e-11
6.25799e-12
-1.15622e-11
6.54667e-12
-1.21225e-11
6.84422e-12
-1.27078e-11
7.15071e-12
-1.33194e-11
7.46602e-12
-1.39582e-11
7.79036e-12
-1.46256e-11
8.12404e-12
-1.5323e-11
8.46714e-12
-1.60512e-11
8.8195e-12
-1.68111e-11
9.18099e-12
-1.76036e-11
9.55118e-12
-1.84296e-11
9.92898e-12
-1.92902e-11
1.03126e-11
-2.01861e-11
1.06998e-11
-2.11182e-11
1.10871e-11
-2.20872e-11
1.14701e-11
-2.30936e-11
1.18435e-11
-2.41371e-11
1.22011e-11
-2.52168e-11
1.25368e-11
-2.63309e-11
1.28439e-11
-2.74764e-11
1.31149e-11
-2.86488e-11
1.33429e-11
-2.98424e-11
1.35213e-11
-3.10503e-11
1.36451e-11
-3.22647e-11
1.37115e-11
-3.34778e-11
1.37209e-11
-3.4682e-11
1.36773e-11
-3.58709e-11