/*--------------------------------*- C++ -*----------------------------------*\
| =========                 |                                                 |
| \\      /  F ield         | OpenFOAM: The Open Source CFD Toolbox           |
|  \\    /   O peration     | Version:  2.4.0                                 |
|   \\  /    A nd           | Web:      www.OpenFOAM.org                      |
|    \\/     M anipulation  |                                                 |
\*---------------------------------------------------------------------------*/
FoamFile
{
    version     2.0;
    format      ascii;
    class       volScalarField;
    location    "0.146";
    object      p;
}
// * * * * * * * * * * * * * * * * * * * * * * * * * * * * * * * * * * * * * //

dimensions      [1 -1 -2 0 0 0 0];

internalField   nonuniform List<scalar> 
3600
(
100.652
99.2575
96.3705
92.7884
89.6604
86.8147
85.0112
84.5033
85.811
87.8604
90.7614
92.4214
94.0547
95.1796
95.7562
96.388
96.5309
96.8722
96.3119
95.4303
93.9724
93.4115
93.7883
94.8248
95.8682
98.3939
99.8413
99.9605
99.8745
100.012
97.3992
96.0028
93.1104
89.5247
86.3938
83.5411
81.7278
81.2129
82.5279
84.5925
87.5057
89.1733
90.8107
91.947
92.5147
93.1715
93.3312
93.4617
92.9002
91.816
90.665
89.9712
90.3223
91.3202
92.5671
93.7965
94.5908
95.2524
95.7538
95.8743
94.1515
92.7543
89.8535
86.2599
83.1236
80.2568
78.4235
77.8922
79.2189
81.3136
84.2538
85.931
87.5589
88.7067
89.2826
89.9597
90.1131
90.1963
89.7212
88.6549
87.2206
86.2909
86.7669
87.4137
88.9586
90.1477
90.9699
91.6
92.0207
92.1742
90.911
89.5129
86.5999
82.9937
79.8496
76.9615
75.0975
74.5411
75.8831
78.0231
81.0051
82.6988
84.2969
85.4611
86.0694
86.7402
86.8806
86.9848
86.4583
85.386
83.5918
81.8534
81.8393
82.6975
84.0586
85.9977
87.1433
87.7466
88.1332
88.2351
87.6771
86.2785
83.3495
79.7261
76.5717
73.655
71.7494
71.159
72.5201
74.7211
77.7602
79.4843
81.0315
82.2104
82.8738
83.4869
83.557
83.732
83.1742
81.9995
79.8401
77.5264
77.4252
78.9454
80.0707
81.6054
83.0178
83.7115
84.1608
84.3483
84.4497
83.0514
80.1022
76.4571
73.2901
70.3374
68.3788
67.7442
69.1288
71.4062
74.5162
76.2912
77.7994
78.9786
79.6667
80.2032
80.1553
80.361
79.7502
78.5735
76.2711
73.7636
73.6614
75.2408
76.1537
77.7179
79.2045
79.9787
80.433
80.6408
81.2289
79.8314
76.8583
73.1867
70.005
67.0089
64.9852
64.2954
65.708
68.0779
71.2706
73.115
74.6422
75.7935
76.433
76.9186
76.7554
76.9392
76.3855
75.3048
73.0183
70.6403
70.4731
71.701
72.5529
74.132
76.0161
76.4688
76.9085
77.0952
78.0146
76.6173
73.619
69.9148
66.7168
63.6698
61.568
60.8109
62.2564
64.7367
68.025
69.9421
71.5137
72.6617
73.1867
73.642
73.4339
73.5651
73.0496
72.0835
70.122
68.0643
67.9015
68.8592
69.6421
71.3391
72.9587
73.3624
73.7483
73.8843
74.8067
73.4101
70.3832
66.6414
63.4257
60.3202
58.1266
57.2885
58.7724
61.3848
64.7871
66.7627
68.3613
69.5409
70.0202
70.4086
70.2067
70.2695
69.7723
69.0336
67.9105
66.434
65.7454
66.501
67.2268
69.0485
70.0958
70.5042
70.7796
70.8363
71.6053
70.2101
67.1507
63.3665
60.1321
56.9605
54.6601
53.7254
55.2537
58.025
61.5649
63.5927
65.1743
66.4226
66.9088
67.2536
67.0017
66.994
66.5255
66.0368
65.3345
64.3259
63.6926
64.1212
64.9329
66.5166
67.0502
67.4987
67.6604
67.6963
68.4103
67.0173
63.9213
60.09
56.8365
53.5912
51.1676
50.1183
51.6975
54.6575
58.3589
60.4501
61.9638
63.3268
63.8733
64.1714
63.7845
63.7446
63.3223
62.9624
62.5239
61.8756
61.2983
61.562
62.4021
63.1637
63.7278
64.2368
64.4792
64.5516
65.2215
63.8318
60.6949
56.8118
53.5393
50.2127
47.6479
46.4631
48.1007
51.2809
55.1659
57.3308
58.7418
60.2776
60.879
61.1128
60.5554
60.5354
60.1179
59.7909
59.4244
59.0381
58.4697
58.7006
59.4121
60.001
60.4996
60.9738
61.1792
61.2921
62.0388
60.6539
57.4712
53.532
50.2412
46.8256
44.0997
42.7555
44.459
47.8957
51.9872
54.2253
55.5059
57.2519
57.8832
58.0609
57.3224
57.2916
56.9198
56.6822
56.4195
56.109
55.5974
55.6996
56.2156
56.606
56.9178
57.6038
58.0815
57.8964
58.8622
57.4835
54.2501
50.2507
46.9427
43.4306
40.5214
38.99
40.7675
44.5034
48.8298
51.1215
52.2693
54.3215
54.9805
55.0163
54.0666
54.0378
53.7109
53.6073
53.4832
53.1365
52.5939
52.5975
52.9324
53.2631
53.5966
53.8106
54.1514
54.0562
55.6915
54.3207
51.0315
46.9678
43.6442
40.0289
36.9112
35.16
37.0197
41.1058
45.7017
48.0205
48.9707
51.3177
52.0752
52.0268
50.8125
50.7663
50.4691
50.4225
50.413
50.0827
49.5974
49.6878
49.9166
49.5794
49.8726
50.0167
50.1142
50.3974
52.5265
51.1656
47.815
43.6834
40.3463
36.6218
33.2668
31.2581
33.2082
37.704
42.6111
44.9202
45.7297
48.4085
49.0131
48.9434
47.4986
47.4342
47.2618
47.1546
47.0901
46.9543
46.59
46.5325
46.9499
46.8606
46.7647
46.6194
46.6555
47.3348
49.367
48.0182
44.6006
40.3979
37.0493
33.2108
29.5858
27.2764
29.3239
34.2999
39.5622
41.842
42.3138
45.4999
46.4195
46.0755
44.1626
44.0247
43.9216
43.8648
43.9703
43.8558
43.3952
43.1768
43.5978
43.4239
43.4183
43.609
43.9925
44.655
46.2127
44.8787
41.3878
37.1112
33.7535
29.7981
25.865
23.2059
25.3579
30.8986
36.5566
38.8059
39.0138
42.5555
43.4327
42.9292
40.9406
40.6937
40.5823
40.7102
40.853
40.9319
40.3133
39.9788
40.4
40.049
40.0872
40.499
40.7705
41.1485
43.0633
41.7471
38.1763
33.8236
30.4591
26.3861
22.101
19.0346
21.2898
27.4992
33.616
35.5845
35.4729
39.719
40.6881
39.9788
37.431
37.2984
37.242
37.3416
37.8865
37.3434
36.7883
36.6031
36.9581
36.5907
36.7391
37.284
37.2146
37.5526
39.9186
38.6231
34.9658
30.5354
27.1664
22.9781
18.292
14.7454
17.135
24.115
30.7614
32.2869
31.7355
36.8756
38.3129
37.0003
33.9296
33.6252
33.7609
33.8918
34.2137
33.5083
33.1378
32.8578
33.3145
33.625
33.9304
34.2623
34.4834
34.6886
36.7779
35.5077
31.7556
27.2468
23.8754
19.5789
14.4424
10.3434
12.8197
20.6821
27.971
28.9197
28.065
34.0124
35.7072
33.5227
30.3412
29.806
30.0327
30.8684
30.6595
29.985
29.7635
29.4812
30.451
30.9046
31.0326
31.1118
31.372
31.5472
33.6415
32.3999
28.5455
23.9581
20.5862
16.1955
10.5769
5.84456
8.58867
17.3257
25.2206
26.1914
23.9954
30.8009
32.8953
30.3074
27.0418
25.7001
26.0422
27.4628
27.5652
26.7076
26.8311
27.2247
27.5941
27.7751
27.8913
27.8214
28.0227
28.1185
30.507
29.2991
25.3347
20.6694
17.2993
12.838
6.74134
1.48468
4.25399
13.9599
23.0007
28.2385
20.7204
27.3982
29.9183
28.009
24.6469
22.0845
23.2814
23.0899
24.4645
23.7025
23.7977
24.6202
24.7838
24.7301
24.7306
24.588
24.7108
24.7506
27.3787
26.2155
22.1226
17.3806
14.0164
9.51535
2.95372
-1.64394
1.49315
10.4006
21.3318
13.5538
21.275
24.1195
25.7729
25.5801
20.0391
18.5387
20.2644
20.1539
21.3352
20.3321
20.6134
21.7491
21.7595
21.5637
21.5466
21.2869
21.3706
21.3753
24.2456
23.1074
18.9086
14.0912
10.7405
6.22144
0.0693907
-0.731345
1.17412
8.49853
16.6977
10.8736
14.5124
21.5721
24.1168
22.7182
15.631
14.6938
17.0492
17.0494
17.4309
17.5611
17.62
18.607
18.249
18.1915
18.2343
17.9535
18.0238
17.9745
21.1196
20.0825
15.6921
10.7995
7.46187
2.50144
-0.601224
-0.917892
1.57552
7.01734
14.8692
9.91199
12.3091
19.1291
22.1146
19.8911
12.0429
11.2994
14.3103
12.9799
13.6453
14.0735
14.4908
15.4878
14.5241
14.5794
14.7276
14.5771
14.7714
14.6688
18.0039
16.9573
12.4763
7.50209
4.09051
0.161933
-0.11149
-0.0732868
0.839261
4.22135
11.0236
7.02386
8.15147
16.7402
19.5565
16.9648
9.19265
7.97632
10.2316
10.1218
10.0685
9.74136
9.91898
12.2879
10.6535
10.9374
11.1863
11.2243
11.369
11.2864
14.8537
13.9366
9.27507
4.18495
0.861163
-0.103688
-0.0549993
0.00601787
0.105394
1.19407
4.32949
3.66953
5.51617
14.3869
17.0929
14.3281
6.27464
4.97805
7.50137
7.1836
6.67785
3.96146
4.73163
8.53974
6.4662
7.5923
7.63924
7.82787
7.87025
7.82517
11.7876
10.805
6.11154
0.63511
-0.41258
-0.156554
-0.0749518
-0.01442
-0.0448608
0.0258602
0.532877
1.10449
2.90431
12.1561
14.4743
11.6715
5.44266
4.02952
4.15005
4.2717
3.73192
-0.0407328
0.397059
3.73945
3.65457
4.59305
4.27711
4.48694
4.38691
4.32062
8.61663
7.77388
2.92005
-0.924217
-0.101338
-0.157116
-0.0835054
-0.0341844
-0.0605182
-0.0947037
-0.0874947
0.125945
0.641621
9.68933
11.5844
8.85447
3.15846
1.18913
-0.0123304
1.3246
1.93577
-1.7365
-1.91496
0.391696
0.993931
1.03074
1.21826
1.56719
1.38687
1.20949
100.047
100.015
100.106
100.052
97.9652
95.936
94.8209
93.8116
93.346
93.7645
95.1386
95.9819
96.4971
96.0515
95.7581
94.9673
94.2557
93.0387
91.2701
89.7869
87.1361
85.3482
84.0551
84.6118
86.4673
89.441
92.636
96.2904
99.2145
100.624
95.976
95.8061
95.2147
94.6365
93.8517
92.7436
91.3679
90.3596
89.8966
90.4467
91.5307
92.5516
93.0795
92.8558
92.5407
91.7225
91.0191
89.7925
88.0143
86.5267
83.8684
82.068
80.7667
81.3279
83.1936
86.1747
89.3725
93.0305
95.9599
97.3716
92.1243
91.9551
91.6271
91.0314
90.2274
89.1008
87.442
86.6137
86.0915
86.9684
88.3646
89.3898
89.8256
89.6453
89.329
88.4819
87.7684
86.5343
84.7571
83.2654
80.5902
78.766
77.4495
78.0224
79.909
82.905
86.1078
89.7738
92.7118
94.1239
88.213
88.0918
87.775
87.2181
86.0832
84.1731
82.7819
81.6971
81.6576
83.3076
85.0912
86.1404
86.6149
86.419
86.1147
85.2567
84.5043
83.2613
81.503
80.0026
77.3016
75.4416
74.1034
74.6943
76.6133
79.6316
82.8419
86.5207
89.4707
90.8836
84.3518
84.1599
83.7618
83.1253
81.7632
80.2256
79.0823
77.5568
77.3635
79.555
81.7105
82.8671
83.3678
83.1118
82.8666
82.0447
81.226
79.9808
78.2602
76.7394
74.0026
72.0947
70.7334
71.3432
73.3063
76.3546
79.5748
83.271
86.2369
87.65
80.6462
80.4609
80.065
79.3423
77.9051
76.3315
75.3942
73.7866
73.6643
76.0343
78.2973
79.4573
80.0231
79.7185
79.5895
78.8209
77.9566
76.7298
75.0328
73.4727
70.6919
68.7249
67.3271
67.9686
69.9881
73.0742
76.3064
80.0247
83.0104
84.4229
77.1124
76.932
76.5681
76.135
74.42
72.7808
71.8967
70.6395
70.6235
72.8641
75.0884
76.1221
76.6356
76.3301
76.3068
75.5681
74.7258
73.5579
71.8158
70.1992
67.369
65.3315
63.8886
64.5696
66.6589
69.7906
73.0367
76.7818
79.7912
81.2025
73.8802
73.7742
73.4444
73.1041
71.5689
69.8993
69.1038
68.0862
68.1375
70.0828
71.9517
72.8369
73.2924
73.02
73.0316
72.2915
71.5439
70.419
68.5963
66.9189
64.0341
61.9142
60.4164
61.1456
63.3189
66.504
69.7657
73.5442
76.5777
77.9886
70.835
70.7741
70.5185
70.0901
69.194
67.4629
66.7488
65.9608
66.5997
68.0037
68.9913
69.6232
70.0361
69.8109
69.7929
69.1099
68.3669
67.2627
65.3654
63.6376
60.6901
58.4724
56.9085
57.6955
59.9684
63.2148
66.4933
70.3102
73.3713
74.7813
67.6893
67.6867
67.4673
66.9819
66.48
65.1212
64.3657
63.9214
64.5117
65.4998
66.066
66.4278
66.8009
66.6338
66.6358
65.9685
65.1856
64.0753
62.1355
60.3616
57.34
55.0051
53.3624
54.2184
56.6077
59.9233
63.2195
67.0795
70.1723
71.5805
64.5691
64.4892
64.1824
63.5956
63.0917
62.5399
61.7862
61.5186
62.0592
62.7394
63.0323
63.2622
63.5898
63.4552
63.5427
62.9175
62.0102
60.8683
58.9181
57.0903
53.9836
51.5114
49.775
50.7131
53.2372
56.63
59.9444
63.8519
66.9809
68.3861
61.3033
61.162
60.8836
60.3969
59.9484
59.5288
58.9891
58.745
59.2447
59.6619
59.8784
60.0984
60.42
60.2753
60.483
59.8868
58.858
57.651
55.7083
53.8185
50.6189
47.9904
46.1429
47.1781
49.8574
53.3353
56.6677
60.6274
63.797
65.198
57.8422
57.8733
57.3701
56.5819
56.459
56.3733
56
55.8994
56.3255
56.6937
56.7941
56.9451
57.2449
57.1132
57.4296
56.8622
55.7014
54.4326
52.4988
50.5447
47.2462
44.4407
42.462
43.6118
46.4688
50.0398
53.3897
57.4059
60.6207
62.0161
53.8353
53.798
53.4032
53.3193
53.3743
53.2752
53.0151
52.9775
53.358
53.7889
53.7834
53.8058
54.0481
53.9494
54.397
53.8774
52.5984
51.218
49.292
47.2716
43.8669
40.861
38.7271
40.0124
43.0719
46.7442
50.1104
54.1871
57.4522
58.8403
50.1714
49.7877
49.8911
50.1197
50.166
50.2187
50.0124
50.04
50.3112
50.7697
50.6393
50.5715
50.8705
50.7955
51.4318
50.896
49.4028
47.9994
46.0973
44.0017
40.4833
37.2499
34.9322
36.3779
39.6675
43.449
46.8298
50.9709
54.2914
55.6705
47.2154
46.7438
46.6873
46.7094
46.9065
47.1284
46.9427
47.0946
47.2171
47.5383
47.3444
47.3999
47.6255
47.6362
48.4336
47.8971
46.3453
44.8983
42.896
40.7402
37.0962
33.6063
31.0703
32.706
36.2568
40.155
43.548
47.7572
51.1384
52.5064
44.7098
44.205
43.6987
43.2605
43.3712
43.7614
43.6888
44.0278
44.1726
44.3566
44.1147
44.1348
44.3941
44.4516
45.6829
45.12
43.1788
41.5545
39.7248
37.4834
33.7055
29.9286
27.1335
28.9938
32.841
36.8626
40.2653
44.5456
47.9933
49.3478
41.123
40.6683
40.2172
39.5295
39.7403
40.3816
40.75
41.0618
41.0203
41.1028
40.8727
40.7235
41.1395
41.3773
42.6344
41.9845
40.1648
38.4477
36.5121
34.2308
30.3177
26.2155
23.1127
25.2383
29.4221
33.5723
36.9817
41.3358
44.8562
46.1946
37.5665
37.2098
36.9646
36.3669
36.3971
36.8265
36.9536
37.5951
38.0775
38.1828
37.5911
37.4379
38.0004
38.2729
39.9076
39.3129
37.044
35.1104
33.3489
30.9932
26.9216
22.4624
18.9966
21.4356
26.002
30.2847
33.6975
38.1276
41.7272
43.0463
34.6933
34.4707
34.1769
33.9264
33.7111
33.6432
33.5309
33.8052
34.8667
35.3889
34.1985
33.9675
34.7026
35.1023
37.1062
36.5812
33.8738
31.6514
30.1383
27.7547
23.577
18.6894
14.7693
17.5822
22.5837
27.0002
30.4129
34.9205
38.6059
39.9026
31.5438
31.3483
31.0843
31.0934
30.9348
30.6568
30.5283
30.4698
31.699
32.3947
30.7221
30.6406
31.3066
32.0454
34.2578
33.6452
30.821
28.3844
27.0987
24.5608
20.1498
14.8391
10.4371
13.678
19.1709
23.7194
27.1281
31.7141
35.4934
36.763
28.1071
27.9624
27.8387
27.9153
27.7957
27.6304
27.3602
27.2509
28.7998
28.7463
29.3545
29.0435
27.8859
29.0403
31.4369
30.5916
27.4859
25.1809
23.6981
21.296
16.9247
11.2092
6.03937
9.74279
15.7703
20.4428
23.8431
28.5079
32.3887
33.6277
24.7375
24.645
24.5955
24.6188
24.7192
24.7414
24.1325
23.9113
26.5672
25.5819
25.7316
24.8576
24.3287
25.8833
28.272
27.7342
22.7331
23.1577
22.5066
18.18
13.5767
7.35286
1.42089
5.82804
12.3969
17.1715
20.5581
25.3012
29.2911
30.4943
21.3739
21.3101
21.3345
21.3851
21.5947
21.7288
21.1598
20.9732
21.5063
22.6395
23.2084
22.4089
20.5187
22.6491
25.6131
25.6851
20.0432
19.2509
19.4547
14.8713
13.5268
5.7416
-1.93745
1.93788
9.07331
13.9081
17.273
22.0936
26.2107
27.3671
17.9995
17.9128
18.0033
18.0561
18.2923
18.3319
18.201
18.3674
18.6082
18.6615
18.6647
19.4386
16.5359
19.0884
23.4428
23.7482
17.2766
15.2928
15.7096
12.102
11.1618
6.4237
-2.37757
-1.0338
5.78587
10.6566
13.9868
18.8843
23.1063
24.2351
14.6778
14.6004
14.5752
14.6264
14.7633
14.6453
15.0171
14.5477
14.4628
14.8013
15.9509
15.5831
12.6129
16.279
22.9728
21.6633
14.568
12.5009
12.6424
8.57353
7.52586
4.83815
-0.433685
-0.745764
2.18367
7.40685
10.6971
15.6726
20.0849
21.1102
11.2599
11.2339
11.1881
11.1087
10.9912
10.3158
11.5123
9.33066
9.61226
11.4785
12.3908
12.8543
10.5815
12.5771
19.3511
18.9578
11.9586
8.66291
9.50888
4.68158
2.36322
2.02245
0.161201
-0.10789
0.101694
4.03214
7.39813
12.4619
16.9636
17.9954
7.91608
7.76881
7.72512
7.53119
7.36193
5.67776
7.00872
4.67769
4.91821
8.63643
9.73269
8.79332
6.79528
8.95281
16.0267
16.2159
9.21611
5.17841
6.27737
2.30448
0.344537
0.0154639
0.0170203
-0.041437
-0.0720191
0.787213
4.07643
9.26632
13.9473
14.8463
4.34444
4.28577
4.28335
4.1506
4.36854
3.02403
2.98031
1.28625
0.819769
6.35962
7.59556
6.90204
5.6163
6.58986
12.6712
13.5438
6.456
1.70125
2.60297
0.745325
-0.0706886
-0.070764
-0.00275913
-0.059721
-0.147513
-0.419833
0.499114
6.10795
10.8201
11.7814
1.32262
1.13491
1.27349
1.14747
1.25871
1.07141
-0.604297
-2.14018
-3.46954
4.43098
5.36076
4.35094
3.33191
3.66231
9.43375
10.9153
3.49591
-0.423155
-0.115322
-0.0583283
-0.111291
-0.0823281
-0.0221961
-0.07541
-0.153201
-0.118994
-1.07035
2.91046
7.79314
8.61124
6.35428
4.78799
0.481199
-0.452793
-0.0835768
-0.153897
-0.0958313
-0.0482149
-0.0675352
-0.0954685
-0.0797767
-0.18586
0.0572427
7.01911
9.40872
6.62441
1.02253
-0.45274
-0.823315
-0.14524
-0.0143739
-0.0620642
-0.0537832
-0.0287269
-0.03575
-0.0618221
-0.0748409
-0.0452711
-0.0476031
-0.0509028
4.78685
2.98112
-0.192864
-0.14712
-0.0865607
-0.152657
-0.102688
-0.0571558
-0.0730274
-0.0958097
-0.0834363
-0.133049
0.0567536
4.16884
7.13329
4.40145
0.0655564
-0.157882
-0.00864414
-0.0112353
-0.0428187
-0.0533291
-0.0557848
-0.0421285
-0.0484699
-0.0615417
-0.0676999
-0.0632409
-0.0623419
-0.0620112
3.0713
1.26173
0.0197133
-0.0730831
-0.0901668
-0.152157
-0.10841
-0.065753
-0.0799013
-0.0961913
-0.0854968
-0.136065
-0.137941
0.383971
1.47369
0.73858
-0.0740915
-0.0456177
-0.0239611
-0.0335863
-0.0435737
-0.0535443
-0.0537551
-0.0494026
-0.0530251
-0.0620125
-0.0665384
-0.0646577
-0.0640074
-0.0635294
1.23601
-0.0358391
-0.067366
-0.0732893
-0.0928043
-0.151474
-0.113096
-0.0741485
-0.0871799
-0.0969032
-0.0879482
-0.136774
-0.133408
-0.121909
-0.102743
-0.0942073
-0.0765184
-0.0619111
-0.0640533
-0.0592471
-0.057779
-0.0556349
-0.054452
-0.0539121
-0.0569508
-0.0633921
-0.0667457
-0.0663646
-0.0658836
-0.0653361
0.00927821
-0.121812
-0.0697463
-0.077884
-0.0955196
-0.150836
-0.116679
-0.0824176
-0.0940128
-0.0979306
-0.0906719
-0.138489
-0.139038
-0.122469
-0.106868
-0.0963904
-0.0827748
-0.0712022
-0.0672897
-0.0618607
-0.0599748
-0.0577155
-0.0565183
-0.0589755
-0.0607185
-0.0653472
-0.068016
-0.0683614
-0.0680561
-0.0675017
-0.134037
-0.124138
-0.0749734
-0.0822163
-0.0983043
-0.15019
-0.119224
-0.0905759
-0.0998384
-0.0990929
-0.0934324
-0.140565
-0.145316
-0.128874
-0.109897
-0.0983799
-0.081256
-0.0636571
-0.0709897
-0.0650221
-0.0606793
-0.0594707
-0.0587922
-0.063219
-0.0647258
-0.0680747
-0.0702649
-0.0708666
-0.0706653
-0.0700655
-0.131778
-0.126425
-0.0788701
-0.0866308
-0.101331
-0.149495
-0.120903
-0.0987165
-0.104286
-0.100511
-0.0961288
-0.142332
-0.149776
-0.13158
-0.112949
-0.100461
-0.0908023
-0.0833163
-0.07545
-0.0684158
-0.064769
-0.061847
-0.0637226
-0.0667285
-0.0690727
-0.0714863
-0.073337
-0.073939
-0.0737254
-0.0730395
-0.134145
-0.128603
-0.0829977
-0.0910509
-0.104607
-0.148827
-0.122142
-0.106988
-0.107326
-0.102259
-0.098816
-0.145472
-0.155276
-0.138366
-0.116831
-0.103076
-0.0933647
-0.0852191
-0.0801659
-0.0715379
-0.0680494
-0.0700167
-0.0637773
-0.0626493
-0.0734223
-0.0753724
-0.0769501
-0.0774554
-0.0770434
-0.0758738
-0.136287
-0.130945
-0.0875601
-0.0956145
-0.108157
-0.148257
-0.123423
-0.115299
-0.109399
-0.104469
-0.101404
-0.148389
-0.161303
-0.141069
-0.120918
-0.106281
-0.0967271
-0.0885058
-0.0746543
-0.0744254
-0.070645
-0.0751631
-0.0665102
-0.0663932
-0.0776441
-0.0793561
-0.0808844
-0.0812692
-0.0807506
-0.079746
-0.138536
-0.133449
-0.0923385
-0.100328
-0.111989
-0.147851
-0.125064
-0.122788
-0.111042
-0.107169
-0.103632
-0.151553
-0.167582
-0.150917
-0.126838
-0.110197
-0.100583
-0.0927415
-0.0844523
-0.0772495
-0.0802244
-0.0779778
-0.0701347
-0.077141
-0.0811699
-0.0831282
-0.0847347
-0.0849858
-0.0845441
-0.0836609
-0.140072
-0.136142
-0.0974078
-0.105225
-0.116106
-0.147673
-0.127146
-0.12823
-0.112577
-0.110331
-0.105094
-0.154877
-0.173774
-0.156788
-0.132297
-0.114685
-0.104744
-0.0972199
-0.0820507
-0.0845388
-0.0817617
-0.0802504
-0.0744855
-0.0815218
-0.084184
-0.0864046
-0.0879875
-0.0883617
-0.0880884
-0.087465
-0.144401
-0.139032
-0.102856
-0.110334
-0.120508
-0.147799
-0.129636
-0.131469
-0.114539
-0.113747
-0.105893
-0.158835
-0.178914
-0.16212
-0.137552
-0.119303
-0.108818
-0.100805
-0.0967169
-0.0906591
-0.0862827
-0.0855283
-0.0817951
-0.0853256
-0.0871717
-0.0892727
-0.090789
-0.0914248
-0.0915385
-0.091367
-0.147179
-0.142152
-0.108619
-0.115686
-0.125195
-0.148314
-0.132536
-0.133363
-0.116755
-0.117221
-0.105018
-0.162738
-0.183177
-0.166155
-0.141937
-0.12359
-0.112781
-0.104452
-0.099638
-0.0940138
-0.0908116
-0.0898779
-0.084011
-0.0893069
-0.0903337
-0.0919202
-0.0933192
-0.0947477
-0.0953392
-0.0958335
-0.150262
-0.145538
-0.114709
-0.121316
-0.130172
-0.149319
-0.135897
-0.135038
-0.119862
-0.122497
-0.103876
-0.166223
-0.184941
-0.167213
-0.145202
-0.127138
-0.116596
-0.107937
-0.10253
-0.0975247
-0.0951893
-0.0935612
-0.0875875
-0.09238
-0.09349
-0.0950467
-0.0968841
-0.0985241
-0.100259
-0.101269
-0.153689
-0.149201
-0.121191
-0.127258
-0.135452
-0.150918
-0.139787
-0.137474
-0.125074
-0.129603
-0.106533
-0.172931
-0.18418
-0.165768
-0.147112
-0.130673
-0.117534
-0.109873
-0.10534
-0.101104
-0.0992739
-0.0989616
-0.0961649
-0.0969718
-0.0980686
-0.100125
-0.0995578
-0.104174
-0.105452
-0.106943
-0.15752
-0.153208
-0.128059
-0.13355
-0.141054
-0.153211
-0.144229
-0.140969
-0.130808
-0.136706
-0.114961
-0.176803
-0.180746
-0.162761
-0.146946
-0.134392
-0.104451
-0.102979
-0.107793
-0.105162
-0.1035
-0.102955
-0.101899
-0.103595
-0.104737
-0.105193
-0.107271
-0.109031
-0.111013
-0.112543
-0.161815
-0.157651
-0.135368
-0.140241
-0.147011
-0.156292
-0.149238
-0.14524
-0.136214
-0.144522
-0.12808
-0.170906
-0.178326
-0.159911
-0.146345
-0.136319
-0.117697
-0.0951496
-0.107019
-0.110829
-0.110683
-0.111218
-0.112141
-0.0859917
-0.107668
-0.109502
-0.11085
-0.115099
-0.116568
-0.118199
-0.166634
-0.162605
-0.143164
-0.147366
-0.153374
-0.160237
-0.154833
-0.150281
-0.142792
-0.152292
-0.14747
-0.174557
-0.184946
-0.157988
-0.144899
-0.138638
-0.130627
-0.101334
-0.100933
-0.117549
-0.115313
-0.117301
-0.117967
-0.0996602
-0.101611
-0.115887
-0.116271
-0.117363
-0.121245
-0.123491
-0.172036
-0.168139
-0.151476
-0.154968
-0.160209
-0.165099
-0.161054
-0.156477
-0.15094
-0.159041
-0.163863
-0.194532
-0.203602
-0.157622
-0.146722
-0.143758
-0.13866
-0.10697
-0.104906
-0.120895
-0.12398
-0.124216
-0.124288
-0.116269
-0.112395
-0.11644
-0.120642
-0.126456
-0.126842
-0.128319
-0.178076
-0.174321
-0.160318
-0.163089
-0.167584
-0.170912
-0.167967
-0.163898
-0.160278
-0.165646
-0.172212
-0.209047
-0.217716
-0.160363
-0.153321
-0.150383
-0.144702
-0.114081
-0.116538
-0.134757
-0.134424
-0.133596
-0.133569
-0.133464
-0.135534
-0.128742
-0.126081
-0.126228
-0.132418
-0.136389
-0.18481
-0.181216
-0.169706
-0.171774
-0.175564
-0.17769
-0.175614
-0.172262
-0.170147
-0.174506
-0.177288
-0.216806
-0.217364
-0.165468
-0.162306
-0.158153
-0.155885
-0.145868
-0.147584
-0.148192
-0.145806
-0.144541
-0.144069
-0.144126
-0.145029
-0.145631
-0.14546
-0.144239
-0.128505
-0.146612
-0.192293
-0.188888
-0.17966
-0.181078
-0.184212
-0.185442
-0.184034
-0.181408
-0.180243
-0.184825
-0.184564
-0.226234
-0.211141
-0.172018
-0.172409
-0.16707
-0.166759
-0.163403
-0.160591
-0.158292
-0.15639
-0.155141
-0.154454
-0.154135
-0.154221
-0.154515
-0.15505
-0.155457
-0.154769
-0.153946
-0.200581
-0.197405
-0.190205
-0.191057
-0.193596
-0.194182
-0.193261
-0.191306
-0.190792
-0.195145
-0.193298
-0.229989
-0.208263
-0.180459
-0.182457
-0.177202
-0.175596
-0.173137
-0.170795
-0.16877
-0.167069
-0.165752
-0.164778
-0.164037
-0.163458
-0.162958
-0.162524
-0.162054
-0.161667
-0.161384
-0.209731
-0.206837
-0.201377
-0.201775
-0.203781
-0.20393
-0.203336
-0.201837
-0.201691
-0.205289
-0.202571
-0.22478
-0.207128
-0.190774
-0.19133
-0.188
-0.185997
-0.183828
-0.181763
-0.179882
-0.178209
-0.176775
-0.175547
-0.174532
-0.173658
-0.172883
-0.172151
-0.171366
-0.170455
-0.169267
-0.219803
-0.217251
-0.213231
-0.213303
-0.214838
-0.214715
-0.214322
-0.213274
-0.213198
-0.21548
-0.212863
-0.222162
-0.209274
-0.202652
-0.201247
-0.199478
-0.197666
-0.195704
-0.193767
-0.191896
-0.190081
-0.188288
-0.186466
-0.184757
-0.183078
-0.181581
-0.18026
-0.179419
-0.178973
-0.17882
-0.230856
-0.228706
-0.225845
-0.225714
-0.226842
-0.226572
-0.226289
-0.225572
-0.225451
-0.226613
-0.224238
-0.227039
-0.217913
-0.215969
-0.213847
-0.212528
-0.210862
-0.209081
-0.207287
-0.205513
-0.203742
-0.201933
-0.199937
-0.198054
-0.19613
-0.194623
-0.193342
-0.192672
-0.192343
-0.192795
-0.242956
-0.241255
-0.23932
-0.239092
-0.239874
-0.239546
-0.239317
-0.238829
-0.238642
-0.239045
-0.237083
-0.237814
-0.231391
-0.230882
-0.22858
-0.22738
-0.225885
-0.224332
-0.222751
-0.221328
-0.219976
-0.218727
-0.217469
-0.216358
-0.215505
-0.21479
-0.214823
-0.215162
-0.21607
-0.217263
-0.25617
-0.254955
-0.25377
-0.253528
-0.254015
-0.253694
-0.253497
-0.253159
-0.252944
-0.252938
-0.251496
-0.251414
-0.247191
-0.247392
-0.245331
-0.244227
-0.243055
-0.241953
-0.241038
-0.240259
-0.239704
-0.239329
-0.239104
-0.238947
-0.238837
-0.238802
-0.23889
-0.239121
-0.239542
-0.240182
-0.27057
-0.269873
-0.269315
-0.26912
-0.269357
-0.269086
-0.268914
-0.268686
-0.268503
-0.268369
-0.267502
-0.267235
-0.264974
-0.265078
-0.263773
-0.26299
-0.262211
-0.261557
-0.261221
-0.26118
-0.26144
-0.261952
-0.262683
-0.263583
-0.264672
-0.265837
-0.267027
-0.268154
-0.269102
-0.270039
-0.286233
-0.286081
-0.286095
-0.285985
-0.286002
-0.285804
-0.285661
-0.285534
-0.285434
-0.285351
-0.285082
-0.284952
-0.284336
-0.284349
-0.283994
-0.283829
-0.283761
-0.283866
-0.284115
-0.28463
-0.285494
-0.28676
-0.288473
-0.290627
-0.293036
-0.294968
-0.296049
-0.296683
-0.297166
-0.297137
-0.0548209
-0.0416311
-0.0258097
-0.0336378
-0.0303896
-0.0151396
-0.0599398
-0.370425
-0.429621
1.92112
2.44555
0.947309
0.433973
0.946894
7.05259
8.67383
1.7952
-0.211437
-0.0988133
-0.0886637
-0.113413
-0.0864665
-0.0354464
-0.0894166
-0.150936
-0.0953494
-0.488066
0.482812
4.8133
6.34934
-0.0614313
-0.0604565
-0.0586713
-0.0617264
-0.0569409
-0.047403
-0.0432468
-0.043909
-0.0548949
-0.076356
-0.0701061
-0.0661945
-0.38894
0.0584897
4.12778
4.60243
0.571953
-0.112195
-0.106011
-0.0895669
-0.114226
-0.089279
-0.0436129
-0.0980514
-0.149625
-0.0961473
-0.160855
-0.199118
2.97996
4.78254
-0.0629312
-0.0619293
-0.0606966
-0.061063
-0.0584403
-0.052621
-0.0494939
-0.051743
-0.0568102
-0.0634087
-0.0716249
-0.0815928
-0.0967893
-0.115181
0.18341
0.0528425
-0.120952
-0.116532
-0.106932
-0.0903686
-0.114662
-0.0925222
-0.0509686
-0.105474
-0.148645
-0.0988461
-0.0779205
0.0254545
1.2584
3.06766
-0.0646704
-0.0638097
-0.0627347
-0.0623005
-0.060202
-0.0555509
-0.0536649
-0.0547753
-0.062368
-0.0697588
-0.0759617
-0.0846676
-0.0998769
-0.11897
-0.136436
-0.133134
-0.11441
-0.119091
-0.108249
-0.0912317
-0.114632
-0.0959152
-0.0575532
-0.111884
-0.147492
-0.10047
-0.079094
-0.0684786
-0.0404641
1.23365
-0.0667899
-0.0659132
-0.0648789
-0.064067
-0.0623156
-0.0587828
-0.0568165
-0.0580713
-0.063073
-0.0699015
-0.0787751
-0.0884884
-0.103933
-0.122564
-0.139031
-0.135384
-0.119136
-0.120817
-0.109976
-0.0920321
-0.114145
-0.0992237
-0.0634979
-0.117336
-0.146529
-0.102095
-0.0845617
-0.0709939
-0.12893
0.0081623
-0.0692819
-0.0683277
-0.0672368
-0.0662285
-0.0647629
-0.0613945
-0.0597352
-0.0605329
-0.0678449
-0.0766432
-0.085026
-0.0934577
-0.10832
-0.126881
-0.14262
-0.13718
-0.120891
-0.121945
-0.111703
-0.0927352
-0.113106
-0.102206
-0.0689037
-0.121612
-0.145801
-0.103734
-0.089634
-0.0759524
-0.131156
-0.132769
-0.0721637
-0.0711096
-0.0699122
-0.0687725
-0.0675769
-0.0654712
-0.0659142
-0.0676193
-0.0712442
-0.0791256
-0.0880735
-0.0973265
-0.113206
-0.132166
-0.146974
-0.140773
-0.123028
-0.122984
-0.113393
-0.0933236
-0.111503
-0.104558
-0.0739206
-0.124316
-0.145239
-0.105627
-0.0945908
-0.0796254
-0.133345
-0.130592
-0.0747203
-0.0740676
-0.0729543
-0.0717668
-0.0707675
-0.0701251
-0.0703484
-0.071657
-0.07516
-0.0824557
-0.0913783
-0.101388
-0.118254
-0.137819
-0.152192
-0.144308
-0.125822
-0.124237
-0.115058
-0.093877
-0.109673
-0.106247
-0.078771
-0.124957
-0.144796
-0.107791
-0.0992811
-0.0834945
-0.135393
-0.132973
-0.0784717
-0.0776121
-0.0763983
-0.0752887
-0.0745236
-0.0742683
-0.0748171
-0.0762932
-0.0797963
-0.0860311
-0.0946495
-0.105332
-0.123268
-0.143577
-0.158121
-0.148862
-0.129486
-0.126418
-0.114963
-0.0945949
-0.10867
-0.107918
-0.0840998
-0.125566
-0.144476
-0.110269
-0.103949
-0.0878078
-0.137586
-0.135135
-0.0825755
-0.081411
-0.0803323
-0.0794901
-0.0788359
-0.0789543
-0.0797485
-0.0814049
-0.0845682
-0.0900737
-0.0982196
-0.109624
-0.127856
-0.148776
-0.163779
-0.153658
-0.134103
-0.130142
-0.11884
-0.0959226
-0.110243
-0.110549
-0.0903324
-0.12648
-0.14434
-0.113101
-0.108626
-0.0923397
-0.139927
-0.137408
-0.0866402
-0.0857613
-0.0849682
-0.0843618
-0.0841625
-0.0845221
-0.0853552
-0.0868695
-0.0896915
-0.0944955
-0.101931
-0.113456
-0.13163
-0.152873
-0.167674
-0.157643
-0.139965
-0.136298
-0.120956
-0.0987926
-0.116004
-0.114517
-0.0973103
-0.128091
-0.144471
-0.116319
-0.113372
-0.097194
-0.142443
-0.138814
-0.0911051
-0.0908007
-0.0904137
-0.0902118
-0.0901197
-0.0904334
-0.0912238
-0.0926733
-0.095086
-0.0992375
-0.105857
-0.116886
-0.134248
-0.155119
-0.169191
-0.159991
-0.145168
-0.145644
-0.126414
-0.103872
-0.125571
-0.119134
-0.104424
-0.130346
-0.144949
-0.119947
-0.11823
-0.102452
-0.145141
-0.143259
-0.0963066
-0.0964712
-0.0964576
-0.0964466
-0.0964894
-0.0967551
-0.0973999
-0.0986239
-0.100719
-0.104212
-0.110011
-0.11994
-0.135618
-0.154996
-0.167526
-0.159382
-0.149098
-0.157936
-0.136931
-0.111524
-0.134743
-0.123258
-0.111098
-0.133113
-0.145848
-0.124008
-0.123241
-0.108043
-0.148038
-0.146049
-0.101926
-0.102553
-0.102934
-0.103091
-0.103148
-0.103279
-0.103697
-0.104641
-0.106407
-0.109437
-0.114418
-0.122862
-0.136017
-0.152447
-0.162151
-0.155694
-0.15115
-0.169533
-0.149344
-0.118476
-0.139121
-0.12646
-0.117243
-0.136339
-0.147242
-0.12852
-0.128454
-0.113983
-0.151171
-0.149175
-0.108119
-0.108955
-0.109542
-0.109822
-0.109861
-0.109843
-0.110019
-0.110695
-0.112199
-0.114838
-0.119165
-0.125972
-0.13608
-0.148357
-0.154394
-0.149475
-0.150991
-0.175464
-0.159387
-0.123913
-0.137835
-0.130006
-0.122997
-0.14004
-0.149211
-0.133502
-0.133917
-0.120366
-0.154556
-0.152654
-0.114492
-0.115051
-0.115874
-0.116377
-0.116449
-0.116329
-0.116322
-0.116793
-0.11809
-0.12047
-0.124173
-0.129459
-0.136599
-0.144431
-0.147268
-0.143097
-0.149318
-0.174966
-0.166257
-0.128814
-0.136002
-0.13495
-0.12892
-0.144268
-0.15184
-0.138971
-0.139688
-0.127122
-0.158252
-0.156547
-0.119596
-0.12073
-0.121389
-0.122229
-0.122744
-0.122613
-0.122563
-0.122951
-0.124116
-0.126261
-0.129427
-0.133508
-0.138163
-0.142362
-0.142902
-0.139565
-0.147225
-0.169648
-0.168905
-0.134256
-0.136879
-0.141174
-0.135415
-0.149067
-0.155208
-0.144944
-0.145814
-0.134353
-0.162355
-0.160916
-0.124316
-0.125548
-0.126524
-0.127163
-0.128217
-0.128585
-0.128715
-0.129186
-0.130322
-0.132267
-0.134985
-0.138235
-0.14144
-0.143418
-0.142675
-0.140429
-0.146661
-0.165448
-0.167485
-0.140701
-0.140872
-0.147933
-0.142565
-0.15447
-0.159382
-0.151437
-0.152355
-0.142105
-0.166943
-0.165821
-0.130158
-0.131505
-0.132675
-0.131721
-0.13358
-0.134545
-0.134893
-0.135545
-0.136767
-0.13863
-0.141037
-0.143744
-0.146278
-0.147794
-0.147471
-0.146249
-0.150559
-0.164061