/*--------------------------------*- C++ -*----------------------------------*\
| =========                 |                                                 |
| \\      /  F ield         | OpenFOAM: The Open Source CFD Toolbox           |
|  \\    /   O peration     | Version:  2.4.0                                 |
|   \\  /    A nd           | Web:      www.OpenFOAM.org                      |
|    \\/     M anipulation  |                                                 |
\*---------------------------------------------------------------------------*/
FoamFile
{
    version     2.0;
    format      ascii;
    class       surfaceScalarField;
    location    "0.146";
    object      phi;
}
// * * * * * * * * * * * * * * * * * * * * * * * * * * * * * * * * * * * * * //

dimensions      [0 3 -1 0 0 0 0];

internalField   nonuniform List<scalar> 
7080
(
1.84913e-09
-1.84913e-09
2.6825e-08
-2.49759e-08
6.09529e-08
-3.41279e-08
8.64894e-08
-2.55365e-08
1.12191e-07
-2.57013e-08
1.29934e-07
-1.77436e-08
1.34914e-07
-4.97958e-09
1.22576e-07
1.23377e-08
9.22598e-08
3.03165e-08
5.64634e-08
3.57964e-08
2.72761e-08
2.91873e-08
-5.35919e-09
3.26353e-08
-2.83812e-08
2.3022e-08
-6.25567e-08
3.41755e-08
-8.25941e-08
2.00374e-08
-8.60426e-08
3.44851e-09
-8.15475e-08
-4.49513e-09
-6.07233e-08
-2.08242e-08
-6.88633e-08
8.13992e-09
-8.16685e-08
1.28052e-08
-1.14931e-07
3.32627e-08
-1.65651e-07
5.07198e-08
-2.10429e-07
4.47776e-08
-2.31566e-07
2.1137e-08
-2.1382e-07
-1.77459e-08
-1.47142e-07
-6.66779e-08
-8.57367e-08
-6.14052e-08
-3.81852e-08
-4.75515e-08
-2.31018e-08
-1.50834e-08
-1.61808e-08
-6.921e-09
-1.35961e-08
1.1747e-08
1.21845e-08
-5.07565e-08
5.62944e-08
-7.82377e-08
9.3556e-08
-6.27982e-08
1.32836e-07
-6.49816e-08
1.65366e-07
-5.02738e-08
1.83525e-07
-2.31384e-08
1.85327e-07
1.05365e-08
1.59635e-07
5.60083e-08
1.32648e-07
6.27827e-08
1.0487e-07
5.69652e-08
6.66785e-08
7.08271e-08
5.38154e-08
3.58852e-08
-3.02112e-09
9.1012e-08
-2.72553e-08
4.42716e-08
-4.96938e-08
2.5887e-08
-9.8152e-08
4.3963e-08
-1.25292e-07
6.31578e-09
-1.48495e-07
3.13431e-08
-1.85757e-07
5.00666e-08
-2.45505e-07
9.30111e-08
-2.95892e-07
1.01107e-07
-3.03062e-07
5.1947e-08
-2.65699e-07
-1.62261e-08
-1.96476e-07
-8.69692e-08
-1.33051e-07
-1.30103e-07
-1.10167e-07
-8.42885e-08
-9.11354e-08
-6.65834e-08
-5.05366e-08
-5.56823e-08
-6.41309e-08
-2.58647e-09
-1.96979e-08
3.14449e-08
4.2656e-09
-7.472e-08
4.88549e-08
-1.22827e-07
8.73376e-08
-1.01281e-07
1.2843e-07
-1.06074e-07
1.63565e-07
-8.54087e-08
1.84729e-07
-4.43023e-08
1.91149e-07
4.1165e-09
1.67732e-07
7.94255e-08
1.48256e-07
8.22582e-08
1.21931e-07
8.32907e-08
9.08622e-08
1.01896e-07
9.31237e-08
3.36237e-08
4.00041e-08
1.44132e-07
1.99516e-08
6.43241e-08
2.12044e-09
4.37181e-08
-6.14933e-08
1.07577e-07
-1.21308e-07
6.61305e-08
-1.83476e-07
9.35106e-08
-2.59017e-07
1.25608e-07
-3.3046e-07
1.64454e-07
-3.61114e-07
1.31761e-07
-3.32363e-07
2.31966e-08
-2.83644e-07
-6.49457e-08
-2.37458e-07
-1.33155e-07
-1.95826e-07
-1.71734e-07
-1.47901e-07
-1.32214e-07
-9.17541e-08
-1.2273e-07
-3.62529e-08
-1.11184e-07
-1.02628e-07
2.24384e-09
-2.15372e-08
5.29821e-08
2.03058e-09
-9.82878e-08
4.67814e-08
-1.67578e-07
8.53845e-08
-1.39884e-07
1.26816e-07
-1.47506e-07
1.62496e-07
-1.21089e-07
1.84414e-07
-6.62197e-08
1.91781e-07
-3.25056e-09
1.67466e-07
1.03741e-07
1.51367e-07
9.83566e-08
1.18868e-07
1.1579e-07
9.97163e-08
1.21048e-07
1.10847e-07
2.24931e-08
6.25787e-08
1.924e-07
5.11472e-08
7.57555e-08
3.97676e-08
5.50977e-08
-3.01824e-08
1.77527e-07
-1.14234e-07
1.50182e-07
-1.98303e-07
1.7758e-07
-2.68722e-07
1.96027e-07
-3.29264e-07
2.24995e-07
-3.41117e-07
1.43614e-07
-3.03835e-07
-1.40861e-08
-2.64893e-07
-1.03887e-07
-2.16568e-07
-1.8148e-07
-1.61329e-07
-2.26973e-07
-1.03754e-07
-1.8979e-07
-5.96553e-08
-1.66828e-07
-2.43344e-08
-1.46504e-07
-1.28643e-07
1.68055e-09
-2.23504e-08
7.53325e-08
1.25341e-09
-1.21892e-07
4.63235e-08
-2.12648e-07
8.50095e-08
-1.7857e-07
1.26715e-07
-1.89212e-07
1.6285e-07
-1.57224e-07
1.85487e-07
-8.88566e-08
1.93253e-07
-1.10168e-08
1.67585e-07
1.29408e-07
1.53127e-07
1.12815e-07
1.11078e-07
1.57839e-07
1.05271e-07
1.26855e-07
1.11654e-07
1.611e-08
7.19048e-08
2.32149e-07
7.94421e-08
6.82182e-08
6.94114e-08
6.51284e-08
7.09551e-09
2.39843e-07
-7.09269e-08
2.28204e-07
-1.52861e-07
2.59514e-07
-2.08018e-07
2.51184e-07
-2.38692e-07
2.55669e-07
-2.28913e-07
1.33835e-07
-1.96005e-07
-4.6994e-08
-1.65471e-07
-1.34421e-07
-1.40721e-07
-2.0623e-07
-1.12036e-07
-2.55659e-07
-7.29976e-08
-2.28828e-07
-5.07136e-08
-1.89113e-07
-2.59582e-08
-1.7126e-07
-1.54238e-07
-3.62611e-10
-2.30607e-08
9.83932e-08
6.67875e-10
-1.4562e-07
4.61198e-08
-2.581e-07
8.48791e-08
-2.17329e-07
1.26885e-07
-2.31217e-07
1.63552e-07
-1.93891e-07
1.87141e-07
-1.12445e-07
1.95184e-07
-1.90604e-08
1.68708e-07
1.55884e-07
1.5432e-07
1.27203e-07
1.05844e-07
2.06315e-07
1.07505e-07
1.25194e-07
9.08041e-08
3.28107e-08
6.95875e-08
2.53366e-07
1.0108e-07
3.67255e-08
7.82424e-08
8.79662e-08
2.79154e-08
2.9017e-07
-1.39756e-08
2.70095e-07
-6.1797e-08
3.07336e-07
-9.86766e-08
2.88063e-07
-1.07313e-07
2.64305e-07
-9.05503e-08
1.17072e-07
-6.38427e-08
-7.37017e-08
-6.58447e-08
-1.32419e-07
-8.6135e-08
-1.8594e-07
-8.86024e-08
-2.53192e-07
-6.84914e-08
-2.48939e-07
-4.90919e-08
-2.08512e-07
-2.68693e-08
-1.93482e-07
-1.78395e-07
-2.71307e-09
-2.38743e-08
1.22267e-07
5.75621e-11
-1.69552e-07
4.59136e-08
-3.03956e-07
8.47557e-08
-2.56171e-07
1.27098e-07
-2.7356e-07
1.6439e-07
-2.31183e-07
1.89199e-07
-1.37254e-07
1.97372e-07
-2.72328e-08
1.70854e-07
1.82402e-07
1.54996e-07
1.4306e-07
1.05834e-07
2.55477e-07
1.08617e-07
1.22411e-07
5.73525e-08
8.40752e-08
5.41008e-08
2.56618e-07
9.3187e-08
-2.36067e-09
5.73793e-08
1.23774e-07
3.16173e-08
3.15932e-07
3.70437e-08
2.64669e-07
4.57384e-08
2.98641e-07
8.64429e-09
3.25158e-07
1.68479e-08
2.56102e-07
3.69595e-08
9.69605e-08
3.18165e-08
-6.85587e-08
1.80771e-08
-1.1868e-07
7.87584e-09
-1.75739e-07
-1.53023e-09
-2.43786e-07
-1.10252e-08
-2.39444e-07
-1.30014e-08
-2.06536e-07
-1.25293e-08
-1.93955e-07
-1.86387e-07
-4.53662e-09
-2.48346e-08
1.47102e-07
-6.84438e-10
-1.93702e-07
4.56702e-08
-3.5031e-07
8.45943e-08
-2.95095e-07
1.27326e-07
-3.16292e-07
1.65346e-07
-2.69202e-07
1.91643e-07
-1.63551e-07
1.99824e-07
-3.54138e-08
1.74028e-07
2.08198e-07
1.54435e-07
1.62653e-07
1.11645e-07
2.98268e-07
1.15735e-07
1.18321e-07
4.09748e-08
1.58835e-07
3.3963e-08
2.63629e-07
5.60636e-08
-2.44612e-08
3.66248e-08
1.43213e-07
4.9635e-08
3.02921e-07
6.83524e-08
2.45951e-07
1.15717e-07
2.51276e-07
1.1943e-07
3.21445e-07
1.44008e-07
2.31524e-07
1.58338e-07
8.26299e-08
1.36983e-07
-4.72033e-08
1.22732e-07
-1.04429e-07
1.10843e-07
-1.6385e-07
9.21764e-08
-2.25119e-07
6.18725e-08
-2.0914e-07
3.53247e-08
-1.79988e-07
1.23454e-08
-1.70975e-07
-1.69044e-07
-4.99811e-09
-2.59527e-08
1.73055e-07
-1.58202e-09
-2.18073e-07
4.53859e-08
-3.97278e-07
8.43843e-08
-3.34094e-07
1.27559e-07
-3.59466e-07
1.66421e-07
-3.08065e-07
1.9444e-07
-1.9157e-07
2.02748e-07
-4.37213e-08
1.77648e-07
2.33298e-07
1.51337e-07
1.88964e-07
1.22426e-07
3.2718e-07
1.23448e-07
1.17299e-07
4.96644e-08
2.32619e-07
2.78459e-08
2.85448e-07
2.32976e-08
-1.99129e-08
2.74686e-08
1.39042e-07
6.5206e-08
2.65184e-07
5.66261e-08
2.54531e-07
1.02204e-07
2.05698e-07
1.6888e-07
2.54769e-07
2.28048e-07
1.72356e-07
2.54043e-07
5.66348e-08
2.42683e-07
-3.58434e-08
2.14828e-07
-7.65743e-08
1.87581e-07
-1.36603e-07
1.40229e-07
-1.77767e-07
9.06193e-08
-1.5953e-07
5.13889e-08
-1.40758e-07
2.23772e-08
-1.41964e-07
-1.40733e-07
-5.9338e-09
-2.72341e-08
2.00289e-07
-2.61741e-09
-2.42689e-07
4.50604e-08
-4.44956e-07
8.4127e-08
-3.73161e-07
1.27781e-07
-4.0312e-07
1.67615e-07
-3.47898e-07
1.9759e-07
-2.21546e-07
2.06404e-07
-5.25352e-08
1.80505e-07
2.59196e-07
1.48124e-07
2.21345e-07
1.30731e-07
3.44572e-07
1.18252e-07
1.29778e-07
6.04847e-08
2.90386e-07
3.69359e-08
3.08997e-07
2.08116e-08
-3.78864e-09
1.22742e-08
1.47579e-07
4.4572e-08
2.32886e-07
4.32721e-08
2.55831e-07
6.6236e-08
1.82734e-07
1.43832e-07
1.77173e-07
2.23667e-07
9.25213e-08
2.664e-07
1.39014e-08
2.80655e-07
-5.00981e-08
2.5824e-07
-5.41595e-08
2.20666e-07
-9.90284e-08
1.71363e-07
-1.28464e-07
1.00289e-07
-8.84562e-08
4.44618e-08
-8.4931e-08
1.38881e-08
-1.1139e-07
-1.20914e-07
-5.93106e-09
-2.86838e-08
2.28973e-07
-3.7895e-09
-2.67584e-07
4.46939e-08
-4.9344e-07
8.38192e-08
-4.12286e-07
1.27972e-07
-4.47273e-07
1.68914e-07
-3.88841e-07
2.01162e-07
-2.53793e-07
2.10687e-07
-6.20604e-08
1.82722e-07
2.87162e-07
1.47422e-07
2.56645e-07
1.33482e-07
3.58512e-07
1.04665e-07
1.58595e-07
6.99744e-08
3.25077e-07
5.41322e-08
3.24839e-07
2.53493e-08
2.49942e-08
3.00876e-09
1.6992e-07
2.8304e-08
2.07591e-07
5.86882e-08
2.25447e-07
6.38829e-08
1.77539e-07
9.8197e-08
1.42859e-07
1.6004e-07
3.06784e-08
2.1728e-07
-4.33384e-08
2.52135e-07
-8.49531e-08
2.3441e-07
-3.64345e-08
1.93436e-07
-5.80548e-08
1.53235e-07
-8.82635e-08
1.06797e-07
-4.20176e-08
5.96957e-08
-3.78301e-08
1.71574e-08
-6.88518e-08
-1.00478e-07
-3.27845e-09
-3.03072e-08
2.5928e-07
-5.0997e-09
-2.92791e-07
4.42873e-08
-5.42827e-07
8.34509e-08
-4.51449e-07
1.28114e-07
-4.91936e-07
1.70308e-07
-4.31035e-07
2.05205e-07
-2.8869e-07
2.15423e-07
-7.22785e-08
1.85199e-07
3.17385e-07
1.48584e-07
2.9326e-07
1.31656e-07
3.75439e-07
1.03505e-07
1.86747e-07
7.92564e-08
3.49325e-07
6.30618e-08
3.41033e-07
4.1005e-08
4.70511e-08
2.48122e-08
1.86112e-07
2.99689e-08
2.02434e-07
7.46281e-08
1.80788e-07
9.81237e-08
1.54044e-07
1.18579e-07
1.22403e-07
1.44816e-07
4.44152e-09
1.87546e-07
-8.60681e-08
2.01559e-07
-9.89664e-08
1.87504e-07
-2.23797e-08
1.59186e-07
-2.97362e-08
1.04265e-07
-3.3343e-08
8.62036e-08
-2.39561e-08
6.54625e-08
-1.70891e-08
1.90346e-08
-2.24239e-08
-8.59935e-08
4.5502e-09
-3.21104e-08
2.9139e-07
-6.55048e-09
-3.18351e-07
4.3841e-08
-5.93218e-07
8.3028e-08
-4.90636e-07
1.28233e-07
-5.37141e-07
1.71782e-07
-4.74584e-07
2.09721e-07
-3.26629e-07
2.20684e-07
-8.32413e-08
1.88516e-07
3.49553e-07
1.47882e-07
3.33895e-07
1.30808e-07
3.92513e-07
1.13215e-07
2.0434e-07
8.44106e-08
3.78129e-07
6.42317e-08
3.61212e-07
4.34633e-08
6.78194e-08
5.20045e-08
1.77571e-07
5.10968e-08
2.03342e-07
7.85499e-08
1.53335e-07
1.15643e-07
1.16951e-07
1.36351e-07
1.01695e-07
1.49879e-07
-9.08673e-09
1.63758e-07
-9.99468e-08
1.40536e-07
-7.57448e-08
1.30658e-07
-1.25008e-08
1.39835e-07
-3.89137e-08
1.28834e-07
-2.23418e-08
9.09496e-08
1.39281e-08
3.14177e-08
4.24428e-08
9.25778e-09
-2.64043e-10
-8.70395e-08
1.03038e-08
-3.41001e-08
3.2549e-07
-8.14492e-09
-3.44306e-07
4.33557e-08
-6.44719e-07
8.25453e-08
-5.29826e-07
1.28345e-07
-5.82941e-07
1.73302e-07
-5.19541e-07
2.14728e-07
-3.68056e-07
2.26825e-07
-9.53381e-08
1.91755e-07
3.84623e-07
1.45639e-07
3.8001e-07
1.30642e-07
4.0751e-07
1.25702e-07
2.09281e-07
7.97906e-08
4.2404e-07
5.58727e-08
3.8513e-07
2.70997e-08
9.65924e-08
6.79161e-08
1.36755e-07
8.58604e-08
1.85397e-07
7.48475e-08
1.64348e-07
1.04061e-07
8.7737e-08
1.33432e-07
7.23236e-08
1.42852e-07
-1.85061e-08
1.38433e-07
-9.55282e-08
1.3519e-07
-7.25017e-08
1.37463e-07
-1.47742e-08
1.12238e-07
-1.36882e-08
6.7289e-08
2.26069e-08
-3.78841e-09
8.50055e-08
-4.1839e-08
8.04934e-08
-1.31902e-08
-2.89129e-08
-1.00477e-07
2.47022e-10
-3.62839e-08
3.61774e-07
-9.88644e-09
-3.70704e-07
4.28318e-08
-6.97437e-07
8.20074e-08
-5.69001e-07
1.28454e-07
-6.29387e-07
1.74816e-07
-5.65902e-07
2.20349e-07
-4.13589e-07
2.33887e-07
-1.08877e-07
1.94614e-07
4.23896e-07
1.42281e-07
4.32343e-07
1.34462e-07
4.15329e-07
1.37223e-07
2.0652e-07
7.26205e-08
4.88643e-07
4.24108e-08
4.1534e-07
2.68829e-08
1.1212e-07
6.91973e-08
9.44404e-08
9.48321e-08
1.59763e-07
7.9607e-08
1.79573e-07
7.9424e-08
8.792e-08
6.84493e-08
8.32983e-08
4.69123e-08
3.03086e-09
3.97154e-08
-8.83313e-08
3.9482e-08
-7.22683e-08
1.14936e-08
1.32142e-08
-4.52536e-08
4.3059e-08
-7.75987e-08
5.49519e-08
-6.21987e-08
6.96055e-08
-2.78955e-08
4.61901e-08
-8.22662e-09
-4.85817e-08
-9.51062e-08
-1.35971e-08
-3.867e-08
4.00444e-07
-1.1779e-08
-3.97595e-07
4.22703e-08
-7.51486e-07
8.14141e-08
-6.08145e-07
1.28548e-07
-6.76522e-07
1.76337e-07
-6.13691e-07
2.26697e-07
-4.63948e-07
2.41738e-07
-1.23918e-07
1.96605e-07
4.69029e-07
1.42144e-07
4.86804e-07
1.38481e-07
4.18993e-07
1.30459e-07
2.14542e-07
2.94966e-08
5.89605e-07
3.8655e-09
4.40971e-07
2.60117e-08
8.9974e-08
9.93935e-08
2.10586e-08
1.2497e-07
1.34186e-07
7.77104e-08
2.26833e-07
5.04938e-08
1.15137e-07
5.2335e-08
8.14571e-08
6.37104e-08
-8.34455e-09
5.80274e-08
-8.26484e-08
5.30011e-08
-6.7242e-08
5.03393e-08
1.58759e-08
3.54257e-08
5.79726e-08
2.21092e-08
6.82685e-08
2.62961e-08
6.54185e-08
3.42719e-08
3.82143e-08
1.23201e-08
-2.66299e-08
-4.9465e-08
-3.33211e-08
-4.12675e-08
4.41712e-07
-1.38268e-08
-4.25036e-07
4.16713e-08
-8.06984e-07
8.07673e-08
-6.47241e-07
1.28606e-07
-7.2436e-07
1.7791e-07
-6.62995e-07
2.33808e-07
-5.19846e-07
2.49872e-07
-1.39982e-07
1.99706e-07
5.19195e-07
1.44075e-07
5.42434e-07
1.3858e-07
4.24488e-07
1.23299e-07
2.29823e-07
8.87633e-08
6.24141e-07
7.26774e-08
4.57057e-07
4.03207e-08
1.22331e-07
6.28115e-08
-1.43221e-09
5.16221e-08
1.45375e-07
3.86743e-08
2.3978e-07
4.4769e-08
1.09042e-07
7.87674e-08
4.74587e-08
9.53212e-08
-2.48984e-08
5.08512e-08
-3.81784e-08
3.31428e-08
-4.95336e-08
5.27467e-08
-3.72808e-09
8.77517e-08
2.29676e-08
1.15294e-07
4.07265e-08
1.21754e-07
5.89584e-08
1.15903e-07
4.40654e-08
7.17573e-08
1.75154e-08
2.35952e-08
-1.30297e-09
-4.40866e-08
4.85799e-07
-1.60341e-08
-4.53088e-07
4.10354e-08
-8.64054e-07
8.0069e-08
-6.86275e-07
1.28594e-07
-7.72885e-07
1.79595e-07
-7.13996e-07
2.41422e-07
-5.81673e-07
2.58707e-07
-1.57268e-07
2.04956e-07
5.72947e-07
1.41328e-07
6.06063e-07
1.3669e-07
4.29126e-07
1.2178e-07
2.44732e-07
-1.17888e-08
7.5771e-07
-6.39024e-08
5.09171e-07
-2.6668e-08
8.50962e-08
3.25418e-08
-6.0642e-08
4.45026e-08
1.33414e-07
8.24624e-08
2.01821e-07
8.73548e-08
1.04149e-07
7.33898e-08
6.14236e-08
1.84041e-08
3.00873e-08
-7.21823e-08
5.2408e-08
-8.80365e-08
-3.36795e-08
-5.08699e-08
-4.08947e-08
2.02724e-08
-4.81747e-08
7.49643e-08
-1.39655e-08
9.22959e-08
4.16268e-08
9.65538e-08
3.98074e-08
6.37346e-08
5.03345e-08
7.48208e-08
1.2509e-08
-4.71387e-08
5.32937e-07
-1.84052e-08
-4.81822e-07
4.03637e-08
-9.22823e-07
7.93211e-08
-7.25232e-07
1.28458e-07
-8.22022e-07
1.81487e-07
-7.67025e-07
2.48837e-07
-6.49023e-07
2.68351e-07
-1.76783e-07
2.1003e-07
6.31268e-07
1.3028e-07
6.85812e-07
1.36848e-07
4.22559e-07
1.7488e-07
2.06699e-07
9.83569e-08
8.34234e-07
2.41818e-08
5.83346e-07
-1.70985e-08
1.26377e-07
6.36729e-08
-1.41413e-07
1.25409e-07
7.16779e-08
7.00449e-08
2.57185e-07
1.80404e-08
1.56154e-07
3.14476e-08
4.80164e-08
-3.86784e-10
6.19217e-08
-1.16896e-07
1.68918e-07
-1.86074e-07
3.5498e-08
-1.61348e-07
-6.56206e-08
-9.19911e-08
-1.17532e-07
-4.58985e-08
-6.00581e-08
-2.80287e-08
2.3757e-08
-1.20115e-08
2.37902e-08
9.26062e-10
3.73969e-08
7.11997e-08
4.54717e-09
-5.04326e-08
5.8337e-07
-2.09471e-08
-5.11307e-07
3.9657e-08
-9.83427e-07
7.8523e-08
-7.64098e-07
1.28086e-07
-8.71586e-07
1.83525e-07
-8.22464e-07
2.5279e-07
-7.18287e-07
2.73879e-07
-1.97872e-07
2.05683e-07
6.99465e-07
1.24802e-07
7.66693e-07
1.55377e-07
3.91984e-07
1.88862e-07
1.73214e-07
1.08467e-07
9.14629e-07
1.72535e-08
6.74559e-07
-4.57449e-08
1.89375e-07
4.66431e-08
-2.33801e-07
7.42354e-08
4.40856e-08
1.48087e-08
3.16612e-07
-5.89189e-08
2.29882e-07
-1.89902e-08
8.08759e-09
9.72503e-08
-5.43188e-08
1.65037e-08
2.49664e-07
-1.18207e-07
1.70209e-07
-1.70461e-07
-1.33667e-08
-1.65492e-07
-1.22501e-07
-1.38457e-07
-8.70931e-08
-1.16586e-07
1.88649e-09
-8.31644e-08
-9.6318e-09
-4.08868e-08
-4.88072e-09
2.95869e-08
7.26025e-10
-5.40179e-08
6.37388e-07
-2.36648e-08
-5.4166e-07
3.89178e-08
-1.04601e-06
7.76549e-08
-8.02835e-07
1.27271e-07
-9.21202e-07
1.83541e-07
-8.78734e-07
2.42827e-07
-7.77572e-07
2.58549e-07
-2.13595e-07
2.07937e-07
7.50077e-07
7.73211e-08
8.97309e-07
1.18183e-07
3.51122e-07
1.66776e-07
1.24621e-07
1.66947e-08
1.06471e-06
-1.04617e-07
7.95871e-07
-8.86895e-08
1.73448e-07
7.3406e-08
-3.95897e-07
3.20547e-08
8.5437e-08
-7.02506e-08
4.18917e-07
-4.76748e-08
2.07306e-07
-3.11052e-08
-8.48198e-09
4.41853e-08
-1.29609e-07
8.03814e-08
2.13468e-07
3.38975e-08
2.16693e-07
-3.06177e-08
5.11485e-08
-9.29728e-08
-6.01459e-08
-1.18451e-07
-6.16152e-08
-9.70189e-08
-1.95452e-08
-7.6944e-08
-2.97067e-08
-4.81156e-08
-3.37092e-08
-1.75351e-08
-9.93616e-10
-5.7556e-08
6.94944e-07
-2.65384e-08
-5.72678e-07
3.81433e-08
-1.11069e-06
7.66068e-08
-8.41299e-07
1.253e-07
-9.69895e-07
1.71856e-07
-9.2529e-07
1.99176e-07
-8.04893e-07
2.03846e-07
-2.18265e-07
9.88383e-08
8.55085e-07
8.30623e-08
9.13085e-07
1.22094e-07
3.12091e-07
7.19579e-08
1.74757e-07
-6.67574e-08
1.20343e-06
-1.51162e-07
8.80276e-07
-7.50361e-08
9.73214e-08
-1.45981e-08
-4.56335e-07
-3.51318e-08
1.05971e-07
-5.40943e-08
4.3788e-07
6.27673e-08
9.04442e-08
1.78148e-08
3.64705e-08
-3.31391e-08
-7.86555e-08
6.30856e-08
1.17243e-07
7.07456e-08
2.09033e-07
1.60496e-08
1.05844e-07
-1.37167e-08
-3.03797e-08
-4.23663e-08
-3.29656e-08
-3.62882e-08
-2.56233e-08
-2.38725e-08
-4.21224e-08
-1.85876e-08
-3.89941e-08
-3.16002e-08
-4.52249e-09
-6.3388e-08
7.58332e-07
-2.96937e-08
-6.06372e-07
3.72678e-08
-1.17765e-06
7.49179e-08
-8.78949e-07
1.18471e-07
-1.01345e-06
1.29266e-07
-9.36086e-07
1.1321e-07
-7.88836e-07
9.63398e-08
-2.01395e-07
1.37266e-07
8.14159e-07
3.84554e-08
1.0119e-06
-2.62228e-07
6.12774e-07
-1.63669e-07
7.61971e-08
-8.26375e-08
1.12239e-06
-1.98304e-07
9.95942e-07
-1.50763e-07
4.9781e-08
-1.83173e-07
-4.23925e-07
1.87435e-08
-9.59462e-08
6.35481e-08
3.93075e-07
4.98409e-08
1.04151e-07
3.53724e-08
5.0939e-08
-3.50028e-08
-8.28037e-09
1.8481e-08
6.37594e-08
4.67077e-08
1.80806e-07
1.41231e-08
1.38429e-07
-1.05361e-08
-5.72047e-09
-1.23319e-08
-3.11698e-08
6.49035e-09
-4.44455e-08
1.4806e-08
-5.04381e-08
5.85163e-09
-3.00397e-08
-1.6156e-08
-9.59254e-09
-6.0128e-08
8.1846e-07
-3.28988e-08
-6.33601e-07
3.6114e-08
-1.24667e-06
7.08041e-08
-9.13639e-07
9.44424e-08
-1.03709e-06
5.27355e-08
-8.94379e-07
2.27308e-08
-7.58831e-07
-3.49147e-08
-1.4375e-07
-1.20203e-07
8.99447e-07
-2.62419e-07
1.15411e-06
-3.04613e-07
6.54968e-07
-1.08334e-07
-1.20082e-07
-9.29803e-08
1.10704e-06
-1.64718e-07
1.06768e-06
-1.26753e-07
1.18153e-08
-1.72505e-07
-3.78173e-07
4.02025e-08
-3.08654e-07
4.08804e-08
3.92397e-07
2.16393e-08
1.23392e-07
6.69841e-08
5.59423e-09
-7.15064e-08
1.3021e-07
-8.36133e-08
7.58664e-08
-3.97525e-08
1.36945e-07
-5.1866e-08
1.50543e-07
-5.75641e-08
-2.23743e-11
-2.11768e-08
-6.75571e-08
4.67848e-09
-7.03008e-08
8.16674e-09
-5.39263e-08
6.99804e-10
-2.25727e-08
-1.753e-09
-1.37032e-08
-8.96875e-08
9.08147e-07
-3.67085e-08
-6.8658e-07
3.31801e-08
-1.31655e-06
5.83453e-08
-9.38804e-07
3.42521e-08
-1.01299e-06
-1.0848e-09
-8.59042e-07
-7.02988e-08
-6.89617e-07
-6.5952e-07
4.45471e-07
-8.46834e-07
1.08676e-06
-1.93116e-07
5.00394e-07
-1.3863e-07
6.00483e-07
-2.75762e-07
1.705e-08
-8.72592e-08
9.18537e-07
-8.48262e-08
1.06525e-06
-2.09972e-07
1.36962e-07
-2.18877e-07
-3.69267e-07
-7.78578e-08
-4.49674e-07
2.98548e-08
2.84684e-07
-1.48427e-10
1.53396e-07
-5.44108e-08
5.98566e-08
-1.7629e-07
2.52089e-07
-2.13059e-07
1.12635e-07
-1.34639e-07
5.85253e-08
-1.02221e-07
1.18125e-07
-8.7014e-08
-1.52297e-08
-4.66718e-08
-1.07899e-07
-3.68625e-08
-8.011e-08
-2.47676e-08
-6.60212e-08
-1.19042e-08
-3.5436e-08
-8.59295e-09
-5.06423e-09
-3.03385e-08
9.38486e-07
-4.17799e-08
-6.75139e-07
2.41317e-08
-1.38247e-06
2.41119e-08
-9.38784e-07
-4.4329e-08
-9.44552e-07
2.0814e-07
-1.11151e-06
4.69007e-07
-9.50484e-07
-2.49793e-07
1.16427e-06
-8.17856e-07
1.65482e-06
-2.47966e-07
-6.94965e-08
-3.14064e-07
6.66581e-07
-4.89856e-07
1.92842e-07
-1.56456e-07
5.85137e-07
-9.50243e-08
1.00382e-06
-2.61293e-07
3.0323e-07
-2.39631e-07
-3.9093e-07
-2.0141e-07
-4.87894e-07
-1.16129e-07
1.99404e-07
-1.72953e-07
2.1022e-07
-2.76047e-07
1.6295e-07
-3.31046e-07
3.07088e-07
-3.04431e-07
8.60202e-08
-1.5307e-07
-9.28356e-08
-9.77514e-08
6.28067e-08
-1.00476e-07
-1.25046e-08
-8.17008e-08
-1.26675e-07
-6.64207e-08
-9.53901e-08
-4.30301e-08
-8.94118e-08
-2.02322e-08
-5.82339e-08
-3.11915e-08
2.36633e-09
-1.42174e-07
1.08066e-06
-4.99094e-08
-7.67403e-07
-5.802e-09
-1.42657e-06
-4.82712e-08
-8.96315e-07
-1.39388e-09
-9.91429e-07
7.99472e-07
-1.91238e-06
4.8552e-07
-6.36533e-07
-2.87949e-07
1.93774e-06
-7.75462e-07
2.14234e-06
-6.66227e-07
-1.78731e-07
-6.16452e-07
6.16806e-07
-6.12222e-07
1.88612e-07
-3.66915e-07
3.39831e-07
-2.10214e-07
8.47114e-07
-2.60693e-07
3.53709e-07
-2.69315e-07
-3.82307e-07
-3.17183e-07
-4.40026e-07
-3.03734e-07
1.85954e-07
-3.42547e-07
2.49033e-07
-3.96014e-07
2.16417e-07
-3.83974e-07
2.95048e-07
-2.98638e-07
6.84326e-10
-1.22444e-07
-2.69029e-07
-4.50968e-08
-1.45411e-08
-8.6631e-08
2.90296e-08
-7.55858e-08
-1.3772e-07
-4.76083e-08
-1.23368e-07
-3.40201e-08
-1.03e-07
-1.32089e-08
-7.90451e-08
-5.01744e-08
5.77419e-09
-4.52732e-09
1.08519e-06
-8.57123e-08
-6.86218e-07
-7.63742e-08
-1.43591e-06
-1.47851e-07
-8.24838e-07
5.56572e-07
-1.69585e-06
2.49497e-06
-3.85077e-06
1.63783e-06
2.20606e-07
1.60392e-07
3.41518e-06
-6.46706e-07
2.94943e-06
-8.10199e-07
-1.52384e-08
-7.72009e-07
5.78616e-07
-6.93395e-07
1.09997e-07
-5.05353e-07
1.5179e-07
-2.9823e-07
6.39991e-07
-2.5306e-07
3.08539e-07
-3.59049e-07
-2.76318e-07
-5.02975e-07
-2.961e-07
-4.75787e-07
1.58766e-07
-4.18987e-07
1.92232e-07
-4.03776e-07
2.01206e-07
-3.1553e-07
2.06801e-07
-2.2662e-07
-8.82258e-08
-1.70554e-07
-3.25094e-07
-5.08386e-08
-1.34257e-07
-2.89637e-08
7.1547e-09
-3.40941e-08
-1.3259e-07
-2.43118e-08
-1.3315e-07
-1.50527e-08
-1.12259e-07
7.85346e-10
-9.48831e-08
-5.91808e-08
9.79171e-09
-1.42378e-07
1.22757e-06
-1.59901e-07
-6.68696e-07
-2.04061e-07
-1.39175e-06
3.08711e-07
-1.33761e-06
7.38249e-07
-2.12539e-06
1.26752e-06
-4.38004e-06
1.48847e-06
-3.46423e-10
6.6473e-07
4.23892e-06
-4.67164e-07
4.08133e-06
-9.25452e-07
4.43052e-07
-8.19867e-07
4.7303e-07
-7.56091e-07
4.62207e-08
-6.01808e-07
-2.49298e-09
-3.74303e-07
4.12486e-07
-2.96156e-07
2.30391e-07
-4.41666e-07
-1.30808e-07
-6.09533e-07
-1.28234e-07
-5.13013e-07
6.22463e-08
-3.86837e-07
6.60559e-08
-3.06127e-07
1.20497e-07
-1.66822e-07
6.74968e-08
-9.59229e-08
-1.59125e-07
-2.02841e-07
-2.18176e-07
-1.19405e-07
-2.17693e-07
6.21404e-09
-1.18464e-07
-8.13685e-09
-1.18239e-07
-2.13038e-08
-1.19983e-07
-1.81056e-08
-1.15457e-07
-9.76612e-09
-1.03223e-07
-7.09864e-08
2.03946e-09
3.82307e-08
1.18933e-06
-3.30251e-07
-3.00214e-07
-1.87726e-07
-1.53428e-06
1.17698e-06
-2.70232e-06
2.0017e-06
-2.95011e-06
1.61741e-06
-3.99576e-06
1.36719e-06
2.49875e-07
1.06768e-06
4.53844e-06
-5.07773e-08
5.19977e-06
-7.53484e-07
1.14577e-06
-8.13012e-07
5.32558e-07
-7.8643e-07
1.96383e-08
-6.41744e-07
-1.47179e-07
-4.01959e-07
1.72702e-07
-3.30469e-07
1.58901e-07
-4.55819e-07
-5.45811e-09
-5.8889e-07
4.83766e-09
-5.17782e-07
-8.862e-09
-4.13628e-07
-3.8098e-08
-1.91691e-07
-1.0144e-07
3.94559e-08
-1.6365e-07
1.15742e-07
-2.35412e-07
3.68748e-09
-1.06121e-07
-8.50483e-08
-1.28957e-07
-5.97865e-08
-1.43726e-07
-4.29752e-08
-1.3505e-07
-4.21128e-08
-1.20845e-07
-3.60647e-08
-1.21506e-07
-3.26946e-08
-1.06593e-07
-3.20622e-09
-1.00475e-07
9.66116e-09
-1.65822e-08
3.13335e-08
-2.16723e-08
8.00559e-08
-4.87224e-08
1.44426e-07
-6.43698e-08
2.10908e-07
-6.64826e-08
2.29292e-07
-1.8384e-08
2.14624e-07
1.46683e-08
1.7555e-07
3.9074e-08
1.24844e-07
5.07058e-08
8.86037e-08
3.62404e-08
7.44894e-08
1.41143e-08
6.6805e-08
7.68437e-09
8.79689e-08
-2.11639e-08
9.32375e-08
-5.26857e-09
8.85696e-08
4.66789e-09
6.47218e-08
2.38478e-08
2.79757e-08
3.67461e-08
4.51918e-09
2.34565e-08
-3.14558e-08
3.59749e-08
-6.19873e-08
3.05315e-08
-9.64526e-08
3.44653e-08
-1.21937e-07
2.54847e-08
-1.35082e-07
1.31446e-08
-1.304e-07
-4.68216e-09
-1.1313e-07
-1.72703e-08
-8.70223e-08
-2.61073e-08
-6.13421e-08
-2.56801e-08
-2.69615e-08
-3.43806e-08
-1.90974e-09
-2.50518e-08
-1.90974e-09
4.70129e-08
-6.61816e-08
8.67976e-08
-6.14571e-08
1.02441e-07
-6.43656e-08
1.2652e-07
-8.84495e-08
1.91472e-07
-1.31435e-07
2.63175e-07
-9.00865e-08
3.05667e-07
-2.78245e-08
3.06746e-07
3.79953e-08
2.58165e-07
9.92873e-08
1.95952e-07
9.8453e-08
1.56904e-07
5.31621e-08
1.3389e-07
3.06987e-08
1.07366e-07
5.35975e-09
5.87734e-08
4.33241e-08
3.36313e-08
2.981e-08
4.51033e-09
5.29687e-08
-5.48342e-08
9.60907e-08
-6.75133e-08
3.61356e-08
-1.10147e-07
7.86086e-08
-1.39207e-07
5.95915e-08
-1.64337e-07
5.95956e-08
-1.84372e-07
4.55193e-08
-1.83721e-07
1.24934e-08
-1.65921e-07
-2.24819e-08
-1.33889e-07
-4.93021e-08
-9.41592e-08
-6.58372e-08
-5.67388e-08
-6.31006e-08
-1.23842e-08
-7.87352e-08
1.35024e-08
-5.09383e-08
1.15926e-08
3.83815e-08
-1.02319e-07
8.83925e-08
-1.11468e-07
1.45127e-07
-1.211e-07
1.92043e-07
-1.35366e-07
2.34771e-07
-1.74162e-07
2.8539e-07
-1.40706e-07
3.34716e-07
-7.71498e-08
3.6876e-07
3.95072e-09
3.4104e-07
1.27008e-07
2.70877e-07
1.68615e-07
1.94966e-07
1.29073e-07
1.32243e-07
9.34221e-08
7.20133e-08
6.55892e-08
7.15102e-09
1.08186e-07
-1.4066e-08
5.1027e-08
-3.84928e-08
7.73955e-08
-9.4382e-08
1.5198e-07
-9.18713e-08
3.36249e-08
-1.27578e-07
1.14315e-07
-1.55077e-07
8.70904e-08
-1.72394e-07
7.6913e-08
-1.89975e-07
6.30997e-08
-1.84904e-07
7.42311e-09
-1.64148e-07
-4.32382e-08
-1.29506e-07
-8.39436e-08
-8.79468e-08
-1.07397e-07
-4.93112e-08
-1.01736e-07
-4.5053e-09
-1.23541e-07
1.95954e-08
-7.5039e-08
3.1188e-08
2.60285e-08
-1.26667e-07
5.68928e-08
-1.42332e-07
9.85501e-08
-1.62758e-07
1.53455e-07
-1.90271e-07
2.09518e-07
-2.30224e-07
2.59201e-07
-1.90389e-07
2.98409e-07
-1.16358e-07
3.35903e-07
-3.35434e-08
3.32053e-07
1.30858e-07
2.77087e-07
2.23581e-07
2.08234e-07
1.97926e-07
1.24761e-07
1.76896e-07
4.09275e-08
1.49422e-07
-3.06553e-08
1.79769e-07
-4.51014e-08
6.54731e-08
-6.07873e-08
9.30814e-08
-1.12629e-07
2.03822e-07
-1.00949e-07
2.19447e-08
-1.24803e-07
1.38169e-07
-1.58485e-07
1.20773e-07
-1.72221e-07
9.06488e-08
-1.90406e-07
8.12847e-08
-1.84491e-07
1.50841e-09
-1.63105e-07
-6.46241e-08
-1.2791e-07
-1.19139e-07
-8.59939e-08
-1.49313e-07
-4.72392e-08
-1.40491e-07
-2.28842e-09
-1.68492e-07
2.14333e-08
-9.87608e-08
5.26214e-08
2.43252e-08
-1.51355e-07
4.58578e-08
-1.63865e-07
6.63813e-08
-1.83281e-07
1.05308e-07
-2.29198e-07
1.34175e-07
-2.59091e-07
1.58368e-07
-2.14582e-07
1.85707e-07
-1.43697e-07
2.21289e-07
-6.9125e-08
2.36756e-07
1.15391e-07
2.13055e-07
2.47282e-07
1.62145e-07
2.48836e-07
8.14059e-08
2.57635e-07
2.30341e-09
2.28525e-07
-6.0581e-08
2.42654e-07
-7.32626e-08
7.81547e-08
-6.99004e-08
8.97192e-08
-1.13751e-07
2.47672e-07
-1.06563e-07
1.47565e-08
-1.17292e-07
1.48898e-07
-1.60652e-07
1.64133e-07
-1.72519e-07
1.02515e-07
-1.91643e-07
1.00409e-07
-1.85418e-07
-4.71658e-09
-1.63495e-07
-8.65467e-08
-1.27831e-07
-1.54803e-07
-8.56142e-08
-1.9153e-07
-4.67797e-08
-1.79325e-07
-1.52644e-09
-2.13745e-07
2.22473e-08
-1.22534e-07
7.48686e-08
2.1447e-08
-1.75515e-07
4.24335e-08
-1.84852e-07
6.08107e-08
-2.01658e-07
8.09982e-08
-2.49385e-07
7.93565e-08
-2.57449e-07
6.0954e-08
-1.9618e-07
5.86014e-08
-1.41344e-07
8.41147e-08
-9.46383e-08
1.04794e-07
9.47111e-08
1.03293e-07
2.48783e-07
7.19355e-08
2.80194e-07
2.42754e-08
3.05295e-07
-1.95978e-08
2.72398e-07
-7.06226e-08
2.93678e-07
-9.5594e-08
1.03126e-07
-6.75887e-08
6.1714e-08
-9.30762e-08
2.7316e-07
-1.08582e-07
3.02627e-08
-1.12271e-07
1.52587e-07
-1.62368e-07
2.14229e-07
-1.73864e-07
1.14012e-07
-1.9328e-07
1.19824e-07
-1.86884e-07
-1.11123e-08
-1.64246e-07
-1.09185e-07
-1.28031e-07
-1.91017e-07
-8.5482e-08
-2.34079e-07
-4.6573e-08
-2.18234e-07
-9.06218e-10
-2.59412e-07
2.29592e-08
-1.464e-07
9.78278e-08
3.85709e-09
-1.83909e-07
4.48787e-09
-1.85482e-07
1.94211e-09
-1.99113e-07
-8.93332e-09
-2.3851e-07
-1.82026e-08
-2.4818e-07
-2.55602e-08
-1.88822e-07
-3.57381e-08
-1.31166e-07
-4.09434e-08
-8.94331e-08
-1.76635e-08
7.14312e-08
-3.93149e-09
2.35051e-07
-3.39377e-08
3.102e-07
-2.71283e-08
2.98485e-07
-2.33581e-08
2.68628e-07
-5.15366e-08
3.21857e-07
-9.03377e-08
1.41927e-07
-5.29727e-08
2.4349e-08
-5.98959e-08
2.80083e-07
-1.09327e-07
7.96936e-08
-1.12246e-07
1.55506e-07
-1.63706e-07
2.65689e-07
-1.76278e-07
1.26584e-07
-1.95117e-07
1.38663e-07
-1.88705e-07
-1.7524e-08
-1.6515e-07
-1.3274e-07
-1.28282e-07
-2.27885e-07
-8.53554e-08
-2.77006e-07
-4.63628e-08
-2.57227e-07
-2.54792e-10
-3.0552e-07
2.37749e-08
-1.7043e-07
1.21603e-07
-2.2838e-08
-1.66069e-07
-4.65645e-08
-1.61756e-07
-7.46051e-08
-1.71072e-07
-1.04342e-07
-2.08773e-07
-1.23153e-07
-2.29369e-07
-1.30945e-07
-1.8103e-07
-1.40436e-07
-1.21676e-07
-1.59713e-07
-7.01563e-08
-1.43291e-07
5.50093e-08
-1.14061e-07
2.05821e-07
-1.09962e-07
3.061e-07
-6.17963e-08
2.5032e-07
-3.95013e-08
2.46333e-07
-2.99416e-08
3.12297e-07
-5.52035e-08
1.67189e-07
-3.46671e-08
3.8126e-09
-4.41312e-08
2.89547e-07
-1.15586e-07
1.51148e-07
-1.18057e-07
1.57977e-07
-1.63946e-07
3.11578e-07
-1.79791e-07
1.42429e-07
-1.9717e-07
1.56042e-07
-1.90854e-07
-2.384e-08
-1.66192e-07
-1.57401e-07
-1.28557e-07
-2.6552e-07
-8.51917e-08
-3.20372e-07
-4.61146e-08
-2.96304e-07
4.76809e-10
-3.52111e-07
2.47375e-08
-1.9469e-07
1.4634e-07
-3.46029e-08
-1.374e-07
-6.40094e-08
-1.3235e-07
-1.02425e-07
-1.32657e-07
-1.49159e-07
-1.62039e-07
-1.94447e-07
-1.84081e-07
-2.20998e-07
-1.54479e-07
-2.44464e-07
-9.82101e-08
-2.54328e-07
-6.0292e-08
-2.25633e-07
2.63138e-08
-1.62704e-07
1.42893e-07
-9.73815e-08
2.40777e-07
-5.02026e-08
2.03141e-07
-5.58038e-08
2.51934e-07
-1.92072e-08
2.75701e-07
-1.9944e-08
1.67926e-07
-2.98236e-08
1.36922e-08
-5.28587e-08
3.12582e-07
-1.20983e-07
2.19272e-07
-1.29264e-07
1.66258e-07
-1.61753e-07
3.44068e-07
-1.83829e-07
1.64505e-07
-1.9966e-07
1.71872e-07
-1.9329e-07
-3.02104e-08
-1.67386e-07
-1.83305e-07
-1.28848e-07
-3.04057e-07
-8.49841e-08
-3.64236e-07
-4.58245e-08
-3.35463e-07
1.3824e-09
-3.99318e-07
2.58582e-08
-2.19166e-07
1.72198e-07
-2.57875e-08
-1.17544e-07
-5.43716e-08
-1.03765e-07
-1.06515e-07
-8.0514e-08
-1.7601e-07
-9.25437e-08
-2.20987e-07
-1.39104e-07
-2.55758e-07
-1.19707e-07
-2.74884e-07
-7.90842e-08
-2.59721e-07
-7.54545e-08
-2.15946e-07
-1.7462e-08
-1.35117e-07
6.20644e-08
-5.78509e-08
1.63511e-07
-3.18529e-08
1.77143e-07
-3.64056e-08
2.56487e-07