/*--------------------------------*- C++ -*----------------------------------*\
| =========                 |                                                 |
| \\      /  F ield         | OpenFOAM: The Open Source CFD Toolbox           |
|  \\    /   O peration     | Version:  2.4.0                                 |
|   \\  /    A nd           | Web:      www.OpenFOAM.org                      |
|    \\/     M anipulation  |                                                 |
\*---------------------------------------------------------------------------*/
FoamFile
{
    version     2.0;
    format      ascii;
    class       surfaceScalarField;
    location    "0.327";
    object      phi;
}
// * * * * * * * * * * * * * * * * * * * * * * * * * * * * * * * * * * * * * //

dimensions      [0 3 -1 0 0 0 0];

internalField   nonuniform List<scalar> 
19800
(
-2.20375e-13
2.20375e-13
-5.43853e-13
3.44616e-13
-8.93888e-13
3.46869e-13
-1.16865e-12
2.64329e-13
-1.31647e-12
1.42408e-13
-1.33363e-12
1.6554e-14
-1.24036e-12
-9.29808e-14
-1.06354e-12
-1.77719e-13
-8.29919e-13
-2.35563e-13
-5.63342e-13
-2.68738e-13
-2.83883e-13
-2.81306e-13
-7.49992e-15
-2.77764e-13
2.53937e-13
-2.62377e-13
4.92255e-13
-2.38894e-13
7.02328e-13
-2.10396e-13
8.81124e-13
-1.79002e-13
1.02687e-12
-1.4596e-13
1.13799e-12
-1.11444e-13
1.21116e-12
-7.36514e-14
1.24151e-12
-3.098e-14
1.22079e-12
1.99284e-14
1.13738e-12
8.25079e-14
9.74859e-13
1.61587e-13
7.1613e-13
2.57846e-13
3.43911e-13
3.71497e-13
-1.59101e-13
5.02527e-13
-8.03789e-13
6.44452e-13
-1.59245e-12
7.8861e-13
-2.51608e-12
9.23639e-13
-3.55348e-12
1.03734e-12
-4.6732e-12
1.11952e-12
-5.83824e-12
1.16472e-12
-7.01277e-12
1.17419e-12
-8.1667e-12
1.15373e-12
-9.27768e-12
1.11104e-12
-1.03323e-11
1.05505e-12
-1.13264e-11
9.94713e-13
-1.22634e-11
9.38016e-13
-1.31537e-11
8.91477e-13
-1.40123e-11
8.59905e-13
-1.4857e-11
8.4627e-13
-1.57069e-11
8.51665e-13
-1.65806e-11
8.7537e-13
-1.74941e-11
9.15059e-13
-1.84603e-11
9.67159e-13
-1.94874e-11
1.02729e-12
-2.05785e-11
1.09072e-12
-2.1732e-11
1.15269e-12
-2.29414e-11
1.20872e-12
1.25479e-12
-2.41966e-11
-3.52208e-13
5.454e-13
-8.79667e-13
8.69013e-13
-1.36939e-12
8.44376e-13
-1.65463e-12
5.51362e-13
-1.64529e-12
1.29752e-13
-1.32884e-12
-3.04177e-13
-7.41227e-13
-6.8402e-13
5.95457e-14
-9.81365e-13
1.01128e-12
-1.19018e-12
2.05605e-12
-1.31636e-12
3.14403e-12
-1.37174e-12
4.23489e-12
-1.37041e-12
5.29788e-12
-1.32649e-12
6.3111e-12
-1.25281e-12
7.26013e-12
-1.15996e-12
8.1361e-12
-1.05556e-12
8.93318e-12
-9.43787e-13
9.64571e-12
-8.24919e-13
1.0266e-11
-6.95093e-13
1.07807e-11
-5.47e-13
1.11694e-11
-3.70214e-13
1.14028e-11
-1.52368e-13
1.14456e-11
1.17366e-13
1.12546e-11
4.47704e-13
1.07862e-11
8.39065e-13
1.00024e-11
1.28588e-12
8.8771e-12
1.76948e-12
7.40497e-12
2.26052e-12
5.60739e-12
2.72088e-12
3.53453e-12
3.10964e-12
1.26101e-12
3.39234e-12
-1.1254e-12
3.5505e-12
-3.53884e-12
3.58734e-12
-5.90687e-12
3.52203e-12
-8.1749e-12
3.38001e-12
-1.03097e-11
3.19141e-12
-1.22997e-11
2.98668e-12
-1.41528e-11
2.79344e-12
-1.58933e-11
2.63452e-12
-1.75577e-11
2.52705e-12
-1.91904e-11
2.48185e-12
-2.08394e-11
2.50326e-12
-2.25513e-11
2.58938e-12
-2.43677e-11
2.7328e-12
-2.63221e-11
2.92172e-12
-2.84368e-11
3.14137e-12
-3.07225e-11
3.37541e-12
-3.31779e-11
3.60715e-12
-3.57901e-11
3.82063e-12
4.00147e-12
-3.85361e-11
-3.62012e-13
9.04246e-13
-8.737e-13
1.36713e-12
-1.24075e-12
1.20957e-12
-1.27296e-12
5.84549e-13
-8.76515e-13
-2.67091e-13
-4.47921e-14
-1.13801e-12
1.1723e-12
-1.90391e-12
2.69705e-12
-2.5089e-12
4.44391e-12
-2.93958e-12
6.33131e-12
-3.20598e-12
8.28773e-12
-3.32999e-12
1.02545e-11
-3.33852e-12
1.21862e-11
-3.25922e-12
1.40502e-11
-3.11768e-12
1.58249e-11
-2.93535e-12
1.74967e-11
-2.72806e-12
1.90569e-11
-2.50467e-12
2.04976e-11
-2.26627e-12
2.18076e-11
-2.00588e-12
2.29687e-11
-1.70885e-12
2.3952e-11
-1.35439e-12
2.4717e-11
-9.18317e-13
2.52111e-11
-3.77696e-13
2.53737e-11
2.8419e-13
2.51403e-11
1.07161e-12
2.44541e-11
1.97138e-12
2.32751e-11
2.94779e-12
2.15928e-11
3.94206e-12
1.94363e-11
4.87646e-12
1.68787e-11
5.66628e-12
1.4031e-11
6.23918e-12
1.10248e-11
6.55619e-12
7.98655e-12
6.62569e-12
5.0201e-12
6.48933e-12
2.20304e-12
6.19856e-12
-4.18372e-13
5.81475e-12
-2.8295e-12
5.39992e-12
-5.04406e-12
5.01007e-12
-7.09915e-12
4.69155e-12
-9.04957e-12
4.47927e-12
-1.09617e-11
4.3956e-12
-1.29067e-11
4.44969e-12
-1.49543e-11
4.63794e-12
-1.71665e-11
4.94546e-12
-1.95931e-11
5.34831e-12
-2.22684e-11
5.81636e-12
-2.52094e-11
6.31613e-12
-2.84155e-11
6.81342e-12
-3.18697e-11
7.27552e-12
7.67306e-12
-3.554e-11
-2.80889e-13
1.19168e-12
-5.83227e-13
1.66276e-12
-6.16148e-13
1.2385e-12
-1.90056e-13
1.57265e-13
7.77549e-13
-1.23532e-12
2.27841e-12
-2.6402e-12
4.2468e-12
-3.87436e-12
6.58828e-12
-4.85269e-12
9.19979e-12
-5.55324e-12
1.19823e-11
-5.99026e-12
1.4848e-11
-6.19716e-12
1.77242e-11
-6.21596e-12
2.05545e-11
-6.09063e-12
2.32984e-11
-5.86253e-12
2.59291e-11
-5.56694e-12
2.84306e-11
-5.23035e-12
3.07936e-11
-4.8682e-12
3.30102e-11
-4.48328e-12
3.50691e-11
-4.06507e-12
3.69502e-11
-3.59019e-12
3.86201e-11
-3.02471e-12
4.00298e-11
-2.32862e-12
4.11142e-11
-1.46284e-12
4.17955e-11
-3.98048e-13
4.19902e-11
8.75828e-13
4.16204e-11
2.34006e-12
4.0628e-11
3.93895e-12
3.8992e-11
5.57673e-12
3.67446e-11
7.12259e-12
3.39802e-11
8.42954e-12
3.08495e-11
9.36916e-12
2.75339e-11
9.87191e-12
2.42006e-11
9.95987e-12
2.09781e-11
9.71349e-12
1.79604e-11
9.21834e-12
1.51998e-11
8.57757e-12
1.27075e-11
7.89424e-12
1.04592e-11
7.25989e-12
8.4025e-12
6.74938e-12
6.46357e-12
6.41896e-12
4.55511e-12
6.30457e-12
2.58444e-12
6.42071e-12
4.61693e-13
6.76092e-12
-1.89277e-12
7.30006e-12
-4.54245e-12
7.99813e-12
-7.53075e-12
8.80496e-12
-1.0879e-11
9.665e-12
-1.45864e-11
1.05218e-11
-1.86313e-11
1.13218e-11
1.20169e-11
-2.29734e-11
-1.5245e-13
1.34741e-12
-1.33575e-13
1.64326e-12
2.9491e-13
8.07513e-13
1.29953e-12
-8.49286e-13
2.94181e-12
-2.87898e-12
5.19416e-12
-4.89399e-12
7.97329e-12
-6.65522e-12
1.11686e-11
-8.04985e-12
1.46617e-11
-9.04807e-12
1.83392e-11
-9.66918e-12
2.21002e-11
-9.95935e-12
2.58608e-11
-9.97773e-12
2.95563e-11
-9.78713e-12
3.31403e-11
-9.44757e-12
3.65835e-11
-9.01114e-12
3.98701e-11
-8.51772e-12
4.29929e-11
-7.99145e-12
4.59475e-11
-7.43808e-12
4.8726e-11
-6.84362e-12
5.13104e-11
-6.1747e-12
5.36669e-11
-5.38132e-12
5.5741e-11
-4.40308e-12
5.74568e-11
-3.17939e-12
5.87202e-11
-1.66233e-12
5.94255e-11
1.69302e-13
5.94688e-11
2.29533e-12
5.87656e-11
4.64051e-12
5.72751e-11
7.06574e-12
5.50251e-11
9.3712e-12
5.21326e-11
1.13213e-11
4.87994e-11
1.27023e-11
4.52761e-11
1.33961e-11
4.17794e-11
1.34583e-11
3.84543e-11
1.30408e-11
3.54061e-11
1.22689e-11
3.26853e-11
1.13005e-11
3.02911e-11
1.02901e-11
2.81816e-11
9.37032e-12
2.62843e-11
8.64718e-12
2.45034e-11
8.19983e-12
2.27293e-11
8.07846e-12
2.08475e-11
8.3023e-12
1.87484e-11
8.85984e-12
1.63363e-11
9.71212e-12
1.35361e-11
1.07985e-11
1.02979e-11
1.20439e-11
6.59819e-12
1.33657e-11
2.44057e-12
1.46808e-11
-2.14673e-12
1.59107e-11
1.69856e-11
-7.11371e-12
-7.58193e-15
1.35401e-12
3.67058e-13
1.26923e-12
1.30327e-12
-1.29864e-13
2.92882e-12
-2.47667e-12
5.27726e-12
-5.22929e-12
8.29853e-12
-7.91702e-12
1.18903e-11
-1.02486e-11
1.59252e-11
-1.20863e-11
2.027e-11
-1.33942e-11
2.47977e-11
-1.4198e-11
2.93957e-11
-1.45583e-11
3.39704e-11
-1.45534e-11
3.845e-11
-1.42677e-11
4.27844e-11
-1.3783e-11
4.69439e-11
-1.31717e-11
5.09156e-11
-1.24903e-11
5.46978e-11
-1.17742e-11
5.82936e-11
-1.10342e-11
6.17031e-11
-1.02532e-11
6.49152e-11
-9.38685e-12
6.78998e-11
-8.36595e-12
7.06007e-11
-7.10417e-12
7.2933e-11
-5.51225e-12
7.47854e-11
-3.51563e-12
7.60269e-11
-1.07338e-12
7.65197e-11
1.80114e-12
7.61405e-11
5.0182e-12
7.48126e-11
8.39244e-12
7.25466e-11
1.16365e-11
6.94809e-11
1.43871e-11
6.58895e-11
1.62946e-11
6.21334e-11
1.71538e-11
5.84961e-11
1.70978e-11
5.51211e-11
1.64181e-11
5.21205e-11
1.52718e-11
4.95338e-11
1.3889e-11
4.73366e-11
1.24886e-11
4.546e-11
1.12476e-11
4.38051e-11
1.03023e-11
4.22505e-11
9.75424e-12
4.06613e-11
9.66726e-12
3.88994e-11
1.00637e-11
3.68349e-11
1.09237e-11
3.4357e-11
1.21898e-11
3.13805e-11
1.37751e-11
2.78514e-11
1.55735e-11
2.37477e-11
1.74703e-11
1.90789e-11
1.93508e-11
1.38829e-11
2.11082e-11
2.26481e-11
8.22201e-12
1.33026e-13
1.21884e-12
8.58057e-13
5.43392e-13
2.2976e-12
-1.57057e-12
4.53781e-12
-4.71867e-12
7.58061e-12
-8.27417e-12
1.13511e-11
-1.16895e-11
1.57262e-11
-1.46255e-11
2.0561e-11
-1.69224e-11
2.57064e-11
-1.85406e-11
3.10216e-11
-1.95138e-11
3.63817e-11
-1.9919e-11
4.16837e-11
-1.9856e-11
4.68491e-11
-1.94339e-11
5.18252e-11
-1.87602e-11
5.65838e-11
-1.79315e-11
6.11177e-11
-1.70253e-11
6.54346e-11
-1.6092e-11
6.95494e-11
-1.51496e-11
7.34755e-11
-1.41795e-11
7.72148e-11
-1.31261e-11
8.07462e-11
-1.18973e-11
8.40161e-11
-1.03741e-11
8.69333e-11
-8.42968e-12
8.93697e-11
-5.95265e-12
9.11657e-11
-2.87035e-12
9.21413e-11
8.2452e-13
9.21176e-11
5.04098e-12
9.09571e-11
9.55254e-12
8.86268e-11
1.39671e-11
8.5278e-11
1.77368e-11
8.12868e-11
2.02874e-11
7.72075e-11
2.1235e-11
7.34204e-11
2.08868e-11
7.00183e-11
1.98221e-11
6.71203e-11
1.81713e-11
6.4744e-11
1.62668e-11
6.28246e-11
1.44092e-11
6.12547e-11
1.28185e-11
5.99029e-11
1.16547e-11
5.86184e-11
1.10388e-11
5.72377e-11
1.10475e-11
5.55967e-11
1.17038e-11
5.35441e-11
1.29753e-11
5.09535e-11
1.47796e-11
4.77318e-11
1.69964e-11
4.38236e-11
1.94818e-11
3.92122e-11
2.20822e-11
3.39171e-11
2.46468e-11
2.79898e-11
2.70365e-11
2.91303e-11
2.15088e-11
2.62415e-13
9.54875e-13
1.31503e-12
-5.11366e-13
3.23228e-12
-3.48959e-12
6.05955e-12
-7.54792e-12
9.76697e-12
-1.19838e-11
1.42537e-11
-1.61783e-11
1.93748e-11
-1.97484e-11
2.49663e-11
-2.25151e-11
3.08619e-11
-2.44369e-11
3.69053e-11
-2.55575e-11
4.29581e-11
-2.5972e-11
4.89063e-11
-2.58046e-11
5.46643e-11
-2.51926e-11
6.01769e-11
-2.42739e-11
6.54189e-11
-2.31749e-11
7.03914e-11
-2.19993e-11
7.51154e-11
-2.08174e-11
7.96227e-11
-1.96577e-11
8.39457e-11
-1.85029e-11
8.81064e-11
-1.72866e-11
9.21003e-11
-1.58908e-11
9.58819e-11
-1.41554e-11
9.93571e-11
-1.19048e-11
1.02384e-10
-8.97993e-12
1.04775e-10
-5.26196e-12
1.06302e-10
-7.02482e-13
1.06711e-10
4.63201e-12
1.05767e-10
1.04969e-11
1.03344e-10
1.63908e-11
9.9576e-11
2.15068e-11
9.49704e-11
2.48946e-11
9.04463e-11
2.57606e-11
8.65342e-11
2.48003e-11
8.31432e-11
2.32144e-11
8.04235e-11
2.08924e-11
7.83567e-11
1.8335e-11
7.68138e-11
1.59537e-11
7.5635e-11
1.39987e-11
7.46532e-11
1.26375e-11
7.36859e-11
1.20063e-11
7.25383e-11
1.21945e-11
7.10169e-11
1.32239e-11
6.89471e-11
1.50438e-11
6.61869e-11
1.75387e-11
6.26369e-11
2.05458e-11
5.82441e-11
2.38744e-11
5.3001e-11
2.73254e-11
4.69421e-11
3.07059e-11
4.01378e-11
3.38413e-11
3.65821e-11
3.26866e-11
3.79842e-13
5.74002e-13
1.73617e-12
-1.8701e-12
4.10123e-12
-5.85673e-12
7.48434e-12
-1.09331e-11
1.18253e-11
-1.63269e-11
1.69974e-11
-2.13525e-11
2.28333e-11
-2.5586e-11
2.91484e-11
-2.88314e-11
3.57576e-11
-3.10464e-11
4.24865e-11
-3.22863e-11
4.91808e-11
-3.26661e-11
5.57129e-11
-3.23367e-11
6.19879e-11
-3.14682e-11
6.79474e-11
-3.02346e-11
7.35699e-11
-2.8799e-11
7.88674e-11
-2.72986e-11
8.38781e-11
-2.58295e-11
8.86554e-11
-2.44358e-11
9.32574e-11
-2.3105e-11
9.77348e-11
-2.17636e-11
1.02109e-10
-2.02646e-11
1.0635e-10
-1.83954e-11
1.10364e-10
-1.5919e-11
1.14004e-10
-1.26193e-11
1.1706e-10
-8.31819e-12
1.19258e-10
-2.90068e-12
1.20258e-10
3.63341e-12
1.19678e-10
1.1078e-11
1.17215e-10
1.88552e-11
1.12899e-10
2.5825e-11
1.07365e-10
3.04294e-11
1.02252e-10
3.08745e-11
9.83526e-11
2.87008e-11
9.50473e-11
2.65205e-11
9.26195e-11
2.33214e-11
9.10028e-11
1.99532e-11
8.99648e-11
1.69937e-11
8.92792e-11
1.46858e-11
8.87464e-11
1.31712e-11
8.81536e-11
1.2599e-11
8.72716e-11
1.30756e-11
8.58736e-11
1.46204e-11
8.3759e-11
1.7157e-11
8.07703e-11
2.05264e-11
7.68039e-11
2.45116e-11
7.1813e-11
2.88652e-11
6.58048e-11
3.33334e-11
5.88346e-11
3.7676e-11
5.09968e-11
4.16792e-11
4.51636e-11
4.24158e-11
4.87808e-13
8.52306e-14
2.12849e-12
-3.51264e-12
4.9169e-12
-8.64694e-12
8.83048e-12
-1.48487e-11
1.37813e-11
-2.12798e-11
1.9618e-11
-2.71912e-11
2.61508e-11
-3.21204e-11
3.31737e-11
-3.58551e-11
4.04803e-11
-3.83532e-11
4.78757e-11
-3.96813e-11
5.51854e-11
-3.99753e-11
6.22646e-11
-3.94157e-11
6.90054e-11
-3.82096e-11
7.53437e-11
-3.65741e-11
8.12615e-11
-3.47184e-11
8.67839e-11
-3.28227e-11
9.19703e-11
-3.1017e-11
9.69004e-11
-2.93661e-11
1.01664e-10
-2.78681e-11
1.06351e-10
-2.64504e-11
1.11023e-10
-2.4935e-11
1.15668e-10
-2.30397e-11
1.20199e-10
-2.04498e-11
1.24471e-10
-1.68915e-11
1.28276e-10
-1.21227e-11
1.31314e-10
-5.93798e-12
1.33163e-10
1.78628e-12
1.33252e-10
1.09902e-11
1.3097e-10
2.11391e-11
1.26055e-10
3.07415e-11
1.19128e-10
3.73567e-11
1.1324e-10
3.6763e-11
1.0973e-10
3.22109e-11
1.06603e-10
2.96488e-11
1.04609e-10
2.53166e-11
1.03623e-10
2.09407e-11
1.03237e-10
1.73818e-11
1.03149e-10
1.47746e-11
1.03146e-10
1.31748e-11
1.02987e-10
1.27566e-11
1.02405e-10
1.36568e-11
1.01133e-10
1.58909e-11
9.89424e-11
1.93468e-11
9.56598e-11
2.38087e-11
9.11803e-11
2.89911e-11
8.54679e-11
3.45774e-11
7.85506e-11
4.02503e-11
7.05109e-11
4.57153e-11
6.14741e-11
5.07158e-11
5.5042e-11
5.15961e-11
5.90089e-13
-5.0576e-13
2.50213e-12
-5.42564e-12
5.69742e-12
-1.18434e-11
1.01252e-11
-1.92781e-11
1.56729e-11
-2.68293e-11
2.21665e-11
-3.36867e-11
2.93945e-11
-3.93498e-11
3.71289e-11
-4.35901e-11
4.51406e-11
-4.63647e-11
5.32103e-11
-4.77504e-11
6.11391e-11
-4.79035e-11
6.87585e-11
-4.70351e-11
7.59423e-11
-4.53939e-11
8.2616e-11
-4.32487e-11
8.87633e-11
-4.08669e-11
9.44245e-11
-3.84848e-11
9.96847e-11
-3.62773e-11
1.04653e-10
-3.43343e-11
1.09456e-10
-3.26701e-11
1.14239e-10
-3.12316e-11
1.19114e-10
-2.98094e-11
1.24096e-10
-2.8021e-11
1.29096e-10
-2.54494e-11
1.33986e-10
-2.1782e-11
1.38593e-10
-1.67284e-11
1.42638e-10
-9.9821e-12
1.4567e-10
-1.24387e-12
1.4695e-10
9.71173e-12
1.45403e-10
2.26871e-11
1.40085e-10
3.60603e-11
1.3113e-10
4.63122e-11
1.24203e-10
4.36898e-11
1.21868e-10
3.4547e-11
1.18945e-10
3.2572e-11
1.1753e-10
2.67328e-11
1.17345e-10
2.1127e-11
1.17716e-10
1.70111e-11
1.18303e-10
1.41881e-11
1.18895e-10
1.25818e-11
1.19219e-10
1.24313e-11
1.18957e-10
1.39186e-11
1.17798e-10
1.70488e-11
1.15484e-10
2.16617e-11
1.11824e-10
2.74686e-11
1.06717e-10
3.40989e-11
1.00142e-10
4.11526e-11
9.21539e-11
4.82379e-11
8.28702e-11
5.49986e-11
7.24543e-11
6.11317e-11
6.63959e-11
6.11013e-11
6.89951e-13
-1.19626e-12
2.86608e-12
-7.60193e-12
6.45906e-12
-1.5437e-11
1.13933e-11
-2.42136e-11
1.75348e-11
-3.29724e-11
2.469e-11
-4.08434e-11
3.26272e-11
-4.72881e-11
4.1097e-11
-5.20602e-11
4.98459e-11
-5.51133e-11
5.86271e-11
-5.6531e-11
6.72113e-11
-5.64871e-11
7.5399e-11
-5.52227e-11
8.30361e-11
-5.30313e-11
9.00301e-11
-5.02432e-11
9.63623e-11
-4.71994e-11
1.0209e-10
-4.42122e-11
1.0733e-10
-4.15168e-11
1.12225e-10
-3.92277e-11
1.16936e-10
-3.73799e-11
1.21682e-10
-3.59769e-11
1.26656e-10
-3.47826e-11
1.31886e-10
-3.32514e-11
1.37253e-10
-3.08164e-11
1.42659e-10
-2.71869e-11
1.48012e-10
-2.20809e-11
1.53132e-10
-1.51006e-11
1.57632e-10
-5.74318e-12
1.60786e-10
6.55898e-12
1.61233e-10
2.22407e-11
1.56571e-10
4.07237e-11
1.44578e-10
5.83058e-11
1.36775e-10
5.14937e-11
1.36104e-10
3.52184e-11
1.33575e-10
3.5102e-11
1.3273e-10
2.75783e-11
1.3332e-10
2.05368e-11
1.34482e-10
1.58482e-11
1.35803e-10
1.28659e-11
1.37033e-10
1.13515e-11
1.37856e-10
1.16068e-11
1.37897e-10
1.38783e-11
1.36801e-10
1.81449e-11
1.3428e-10
2.41833e-11
1.30131e-10
3.1619e-11
1.24253e-10
3.99773e-11
1.16646e-10
4.87588e-11
1.074e-10
5.7484e-11
9.6673e-11
6.5726e-11
8.46756e-11
7.31299e-11
7.94218e-11
7.1651e-11
7.89332e-13
-1.98562e-12
3.22587e-12
-1.00382e-11
7.21179e-12
-1.94233e-11
1.26501e-11
-2.96529e-11
1.93893e-11
-3.9713e-11
2.72197e-11
-4.8675e-11
3.58929e-11
-5.5962e-11
4.51397e-11
-6.13071e-11
5.46822e-11
-6.46553e-11
6.42431e-11
-6.60913e-11
7.35562e-11
-6.57999e-11
8.23812e-11
-6.40475e-11
9.05234e-11
-6.11733e-11
9.78583e-11
-5.75778e-11
1.04356e-10
-5.36965e-11
1.10092e-10
-4.99469e-11
1.15228e-10
-4.66505e-11
1.19938e-10
-4.39368e-11
1.24413e-10
-4.18532e-11
1.28976e-10
-4.05403e-11
1.33939e-10
-3.97449e-11
1.39313e-10
-3.86263e-11
1.44868e-10
-3.63706e-11
1.50539e-10
-3.28582e-11
1.564e-10
-2.79409e-11
1.62459e-10
-2.11581e-11
1.68533e-10
-1.18164e-11
1.73988e-10
1.10511e-12
1.78056e-10
1.81728e-11
1.78315e-10
4.04663e-11
1.62368e-10
7.42533e-11
1.52629e-10
6.12337e-11
1.55893e-10
3.19553e-11
1.51596e-10
3.93995e-11
1.50722e-10
2.84527e-11
1.52069e-10
1.91878e-11
1.54518e-10
1.33978e-11
1.5677e-10
1.06133e-11
1.58627e-10
9.49321e-12
1.5987e-10
1.03634e-11
1.60102e-10
1.36473e-11
1.58946e-10
1.93016e-11
1.56084e-10
2.70456e-11
1.5129e-10
3.64136e-11
1.44464e-10
4.68037e-11
1.35626e-10
5.75976e-11
1.24901e-10
6.82101e-11
1.12497e-10
7.81304e-11
9.86835e-11
8.69448e-11
9.4344e-11
8.37627e-11
8.8861e-13
-2.87389e-12
3.58241e-12
-1.27318e-11
7.95692e-12
-2.37983e-11
1.38974e-11
-3.55944e-11
2.12398e-11
-4.70564e-11
2.97631e-11
-5.71992e-11
3.92071e-11
-6.54062e-11
4.92863e-11
-7.13862e-11
5.97005e-11
-7.50692e-11
7.01407e-11
-7.65313e-11
8.02985e-11
-7.59576e-11
8.98808e-11
-7.36296e-11
9.86342e-11
-6.99261e-11
1.06381e-10
-6.53235e-11
1.13061e-10
-6.03749e-11
1.18763e-10
-5.56466e-11
1.23716e-10
-5.16016e-11
1.28142e-10
-4.83609e-11
1.32216e-10
-4.59272e-11
1.36438e-10
-4.4762e-11
1.41304e-10
-4.46118e-11
1.46745e-10
-4.40677e-11
1.52239e-10
-4.18647e-11
1.57747e-10
-3.83647e-11
1.63576e-10
-3.37694e-11
1.69978e-10
-2.75593e-11
1.77301e-10
-1.91378e-11
1.85554e-10
-7.1471e-12
1.95054e-10
8.6742e-12
2.02059e-10
3.34628e-11
1.98858e-10
7.74553e-11
1.72153e-10
8.79409e-11
1.76794e-10
2.73148e-11
1.69103e-10
4.709e-11
1.70761e-10
2.67935e-11
1.75477e-10
1.44699e-11
1.80326e-10
8.54754e-12
1.83056e-10
7.88298e-12
1.85055e-10
7.49375e-12
1.8629e-10
9.12861e-12
1.86353e-10
1.35858e-11
1.84872e-10
2.07828e-11
1.81469e-10
3.04481e-11
1.75839e-10
4.20441e-11
1.67857e-10
5.47864e-11
1.57552e-10
6.79028e-11
1.4509e-10
8.0674e-11
1.30736e-10
9.24854e-11
1.14829e-10
1.02853e-10
1.11428e-10
9.77459e-11
9.86535e-13
-3.86005e-12
3.9315e-12
-1.5677e-11
8.68587e-12
-2.85534e-11
1.51216e-11
-4.20311e-11
2.30675e-11
-5.50031e-11
3.22983e-11
-6.64303e-11
4.2548e-11
-7.5656e-11
5.35222e-11
-8.23603e-11
6.49031e-11
-8.64501e-11
7.63526e-11
-8.79809e-11
8.75171e-11
-8.71221e-11
9.80399e-11
-8.4152e-11
1.07588e-10
-7.94726e-11
1.15896e-10
-7.36302e-11
1.22837e-10
-6.73139e-11
1.28487e-10
-6.12939e-11
1.33168e-10
-5.62806e-11
1.37201e-10
-5.23943e-11
1.40727e-10
-4.94531e-11
1.44402e-10
-4.84375e-11
1.49164e-10
-4.93744e-11
1.54751e-10
-4.9655e-11
1.59993e-10
-4.71061e-11
1.64791e-10
-4.31616e-11
1.69661e-10
-3.86387e-11
1.75258e-10
-3.31544e-11
1.81998e-10
-2.58769e-11
1.91816e-10
-1.6964e-11
2.09426e-10
-8.93452e-12
2.38685e-10
4.20606e-12
2.46827e-10
6.93148e-11
2.7724e-10
5.75286e-11
1.71188e-10
1.33367e-10
1.94418e-10
2.3859e-11
2.04032e-10
1.71789e-11
2.12577e-10
5.92376e-12
2.14976e-10
6.14864e-12
2.162e-10
6.6591e-12
2.173e-10
6.39361e-12
2.17727e-10
8.70231e-12
2.17048e-10
1.42652e-11
2.14905e-10
2.29247e-11
2.10762e-10
3.45911e-11
2.04113e-10
4.86924e-11
1.94766e-10
6.41345e-11
1.82743e-10
7.99271e-11
1.68249e-10
9.51692e-11
1.51624e-10
1.09111e-10
1.33291e-10
1.21187e-10
1.30997e-10
1.13722e-10
1.08038e-12
-4.94037e-12
4.26399e-12
-1.88616e-11
9.3801e-12
-3.36706e-11
1.62926e-11
-4.89445e-11
2.48299e-11
-6.35409e-11
3.47703e-11
-7.63708e-11
4.58516e-11
-8.67373e-11
5.77796e-11
-9.42884e-11
7.0229e-11
-9.88999e-11
8.28407e-11
-1.00593e-10
9.52198e-11
-9.95015e-11
1.06941e-10
-9.58729e-11
1.17571e-10
-9.01014e-11
1.26718e-10
-8.27749e-11
1.34119e-10
-7.4712e-11
1.39766e-10
-6.6939e-11
1.44062e-10
-6.05762e-11
1.4744e-10
-5.57729e-11
1.50198e-10
-5.22121e-11
1.53244e-10
-5.14844e-11
1.57896e-10
-5.40263e-11
1.63921e-10
-5.56805e-11
1.69018e-10
-5.22015e-11
1.72866e-10
-4.70078e-11
1.754e-10
-4.11711e-11
1.76788e-10
-3.45408e-11
1.78538e-10
-2.76254e-11
1.80572e-10
-1.89971e-11
1.77279e-10
-5.63952e-12
1.66934e-10
1.45524e-11
2.3377e-10
2.48027e-12
2.69925e-10
2.13735e-11
3.19515e-10
8.3777e-11
3.43993e-10
-6.18895e-13
3.1039e-10
5.0781e-11
2.7856e-10
3.77535e-11
2.63372e-10
2.13379e-11
2.57805e-10
1.22271e-11
2.55578e-10
8.62137e-12
2.53894e-10
1.03866e-11
2.51831e-10
1.6327e-11
2.48862e-10
2.58926e-11
2.43987e-10
3.94654e-11
2.36258e-10
5.64207e-11
2.25392e-10
7.50018e-11
2.11403e-10
9.39174e-11
1.9455e-10
1.12023e-10
1.75276e-10
1.28386e-10
1.54117e-10
1.42347e-10
1.53453e-10
1.31661e-10
1.16613e-12
-6.10691e-12
4.56626e-12
-2.22631e-11
1.0012e-11
-3.91175e-11
1.73652e-11
-5.62983e-11
2.64615e-11
-7.26373e-11
3.70915e-11
-8.70007e-11
4.90076e-11
-9.86533e-11
6.19288e-11
-1.0721e-10
7.55378e-11
-1.1251e-10
8.94706e-11
-1.14527e-10
1.03306e-10
-1.13337e-10
1.16558e-10
-1.09125e-10
1.28689e-10
-1.0223e-10
1.39137e-10
-9.32212e-11
1.47418e-10
-8.29915e-11
1.53276e-10
-7.27957e-11
1.57213e-10
-6.45131e-11
1.59714e-10
-5.8275e-11
1.61032e-10
-5.35308e-11
1.63317e-10
-5.37704e-11
1.68074e-10
-5.87835e-11
1.74487e-10
-6.20925e-11
1.80148e-10
-5.78604e-11
1.83641e-10
-5.04994e-11
1.86405e-10
-4.39335e-11
1.84407e-10
-3.2541e-11
1.85122e-10
-2.83386e-11
1.91441e-10
-2.53149e-11
2.03338e-10
-1.75349e-11
2.24664e-10
-6.77291e-12
2.36484e-10
-9.33935e-12
2.61345e-10
-3.48759e-12
2.28919e-10
1.16203e-10
2.51164e-10
-2.28641e-11
2.78569e-10
2.33773e-11
2.82698e-10
3.36253e-11
2.88062e-10
1.59758e-11
2.92084e-10
8.20639e-12
2.93363e-10
7.34345e-12
2.91762e-10
1.19869e-11
2.89067e-10
1.90214e-11
2.85974e-10
2.89839e-11
2.80939e-10
4.45e-11
2.72311e-10
6.5048e-11
2.59874e-10
8.74388e-11
2.43698e-10
1.10094e-10
2.24124e-10
1.31598e-10
2.01748e-10
1.50762e-10
1.77273e-10
1.66822e-10
1.79296e-10
1.51429e-10
1.23888e-12
-7.34659e-12
4.82149e-12
-2.58474e-11
1.05473e-11
-4.48443e-11
1.82825e-11
-6.40338e-11
2.78776e-11
-8.22323e-11
3.91445e-11
-9.82674e-11
5.18613e-11
-1.1137e-10
6.57752e-11
-1.21125e-10
8.05964e-11
-1.27332e-10
9.59819e-11
-1.29913e-10
1.11514e-10
-1.28869e-10
1.26678e-10
-1.24288e-10
1.40845e-10
-1.16396e-10
1.53276e-10
-1.0565e-10
1.63194e-10
-9.29088e-11
1.69863e-10
-7.94644e-11
1.73489e-10
-6.81395e-11
1.74709e-10
-5.9495e-11
1.74103e-10
-5.29261e-11
1.74853e-10
-5.45204e-11
1.81355e-10
-6.52843e-11
1.87986e-10
-6.87224e-11
1.92203e-10
-6.20756e-11
1.95751e-10
-5.40461e-11
2.00867e-10
-4.90478e-11
2.00775e-10
-3.24468e-11
1.96393e-10
-2.39558e-11
2.02333e-10
-3.12539e-11
2.12445e-10
-2.76462e-11
2.22963e-10
-1.72906e-11
2.33602e-10
-1.99781e-11
2.20237e-10
9.87802e-12
2.62993e-10
7.34478e-11
2.49586e-10
-9.45665e-12
2.89513e-10
-1.65482e-11
3.09651e-10
1.34882e-11
3.22587e-10
3.04172e-12
3.32761e-10
-1.96662e-12
3.35603e-10
4.5024e-12
3.32041e-10
1.55483e-11
3.28331e-10
2.27308e-11
3.26045e-10
3.12692e-11
3.2178e-10
4.87638e-11
3.12494e-10
7.43343e-11
2.9844e-10
1.01493e-10
2.79848e-10
1.28686e-10
2.57148e-10
1.54298e-10
2.3111e-10
1.76801e-10
2.02713e-10
1.95219e-10
2.0915e-10
1.7286e-10
1.29332e-12
-8.64087e-12
5.01156e-12
-2.9567e-11
1.09488e-11
-5.07822e-11
1.89822e-11
-7.20673e-11
2.89835e-11
-9.22332e-11
4.07931e-11
-1.10077e-10
5.42242e-11
-1.24802e-10
6.90659e-11
-1.35967e-10
8.50763e-11
-1.43343e-10
1.01964e-10
-1.46802e-10
1.19361e-10
-1.46266e-10
1.36783e-10
-1.4171e-10
1.53584e-10
-1.33196e-10
1.68896e-10
-1.20961e-10
1.81601e-10
-1.05613e-10
1.90509e-10
-8.83728e-11
1.94745e-10
-7.23759e-11
1.94385e-10
-5.91345e-11
1.9071e-10
-4.92516e-11
1.87775e-10
-5.15843e-11
1.95963e-10
-7.34719e-11
2.07716e-10
-8.04739e-11
2.11276e-10
-6.56332e-11
2.11441e-10
-5.421e-11
2.10365e-10
-4.79697e-11
2.14017e-10
-3.60983e-11
2.16504e-10
-2.64413e-11
2.21387e-10
-3.61365e-11
2.29594e-10
-3.58535e-11
2.42274e-10
-2.99704e-11
2.44783e-10
-2.24868e-11
2.53932e-10
7.29721e-13
2.97745e-10
2.96354e-11
2.96471e-10
-8.18218e-12
3.10134e-10
-3.021e-11
3.44827e-10
-2.12039e-11
3.65302e-10
-1.7432e-11
3.78586e-10
-1.52496e-11
3.7947e-10
3.61928e-12
3.72813e-10
2.22055e-11
3.68589e-10
2.69547e-11
3.69099e-10
3.07588e-11
3.67139e-10
5.07231e-11
3.5728e-10
8.41933e-11
3.41433e-10
1.1734e-10
3.20165e-10
1.49953e-10
2.93892e-10
1.80572e-10
2.63532e-10
2.07162e-10
2.30455e-10
2.28297e-10
2.43758e-10
1.95847e-10
1.32458e-12
-9.96632e-12
5.11984e-12
-3.33633e-11
1.11824e-11
-5.6845e-11
1.94061e-11
-8.02909e-11
2.96881e-11
-1.02515e-10
4.19012e-11
-1.2229e-10
5.58984e-11
-1.38799e-10
7.15176e-11
-1.51587e-10
8.85782e-11
-1.60405e-10
1.06866e-10
-1.6509e-10
1.26107e-10
-1.65507e-10
1.45929e-10
-1.61532e-10
1.65792e-10
-1.53058e-10
1.84889e-10
-1.40058e-10
2.0196e-10
-1.22683e-10
2.15144e-10
-1.01557e-10
2.22265e-10
-7.94962e-11
2.22691e-10
-5.95603e-11
2.16317e-10
-4.2877e-11
2.06727e-10
-4.1993e-11
2.08658e-10
-7.54011e-11
2.24398e-10
-9.62134e-11
2.34167e-10
-7.54e-11
2.38859e-10
-5.89012e-11
2.3586e-10
-4.49696e-11
2.36899e-10
-3.71372e-11
2.48278e-10
-3.78196e-11
2.52249e-10
-4.01076e-11
2.57911e-10
-4.15158e-11
2.66241e-10
-3.82994e-11
2.73795e-10
-3.00402e-11
2.92607e-10
-1.80821e-11
3.23788e-10
-1.54476e-12
3.41038e-10
-2.54309e-11
3.53146e-10
-4.23177e-11
3.7794e-10
-4.59976e-11
4.04996e-10
-4.44866e-11
4.22296e-10
-3.25491e-11
4.2572e-10
1.95933e-13
4.15769e-10
3.21577e-11
4.12246e-10
3.04769e-11
4.16658e-10
2.63464e-11
4.18622e-10
4.8759e-11
4.07188e-10
9.56277e-11
3.89287e-10
1.35242e-10
3.65095e-10
1.74146e-10
3.34728e-10
2.10939e-10
2.9937e-10
2.42521e-10
2.60713e-10
2.66955e-10
2.8402e-10
2.20452e-10
1.3291e-12
-1.12961e-11
5.13442e-12
-3.71695e-11
1.12235e-11
-6.29344e-11
1.95115e-11
-8.85788e-11
2.99224e-11
-1.12926e-10
4.23606e-11
-1.34728e-10
5.67165e-11
-1.53155e-10
7.28739e-11
-1.67745e-10
9.07111e-11
-1.78242e-10
1.10093e-10
-1.84472e-10
1.3086e-10
-1.86274e-10
1.52794e-10
-1.83465e-10
1.75567e-10
-1.75832e-10
1.98666e-10
-1.63157e-10
2.21202e-10
-1.45219e-10
2.41329e-10
-1.21684e-10
2.54701e-10
-9.2867e-11
2.60709e-10
-6.55673e-11
2.54026e-10
-3.6193e-11
2.37831e-10
-2.57974e-11
2.30608e-10
-6.8177e-11
2.45516e-10
-1.1112e-10
2.66609e-10
-9.64917e-11
2.68552e-10
-6.08437e-11
2.61436e-10
-3.78525e-11
2.62468e-10
-3.81691e-11
2.72661e-10
-4.80128e-11
2.816e-10
-4.90462e-11
2.92487e-10
-5.24031e-11
3.03812e-10
-4.96237e-11
3.15405e-10
-4.16311e-11
3.3317e-10
-3.58465e-11
3.62342e-10
-3.07165e-11
3.85389e-10
-4.84774e-11
4.06212e-10
-6.314e-11
4.34271e-10
-7.40569e-11
4.53709e-10
-6.39234e-11
4.70668e-10
-4.95076e-11
4.80893e-10
-1.00287e-11
4.74817e-10
3.82347e-11
4.65213e-10
4.00808e-11
4.73813e-10
1.77459e-11
4.78704e-10
4.38686e-11
4.62685e-10
1.11648e-10
4.42898e-10
1.55031e-10
4.15249e-10
2.01797e-10
3.8011e-10
2.4608e-10
3.3901e-10
2.83622e-10
2.93874e-10
3.12091e-10
3.30941e-10
2.46953e-10
1.30552e-12
-1.26021e-11
5.05123e-12
-4.0916e-11
1.1064e-11
-6.89477e-11
1.9283e-11
-9.6798e-11
2.96583e-11
-1.23301e-10
4.2121e-11
-1.47191e-10
5.659e-11
-1.67624e-10
7.29823e-11
-1.84137e-10
9.12177e-11
-1.96477e-10
1.11219e-10
-2.04473e-10
1.32905e-10
-2.07961e-10
1.5618e-10
-2.0674e-10
1.80918e-10
-2.00571e-10
2.06956e-10
-1.89194e-10
2.33941e-10
-1.72204e-10
2.61391e-10
-1.49133e-10
2.86352e-10
-1.17827e-10
2.98266e-10
-7.748e-11
3.01905e-10
-3.98312e-11
2.8699e-10
-1.08811e-11
2.64924e-10
-4.61099e-11
2.74833e-10
-1.21028e-10
2.92892e-10
-1.1455e-10
2.8656e-10
-5.45114e-11
2.74025e-10
-2.5317e-11
2.77082e-10
-4.12266e-11
2.89822e-10
-6.07527e-11
3.10544e-10
-6.97681e-11
3.31611e-10
-7.34687e-11
3.54417e-10
-7.24286e-11
3.76853e-10
-6.40658e-11
3.97112e-10
-5.61044e-11
4.14629e-10
-4.82327e-11
4.34628e-10
-6.84763e-11
4.56487e-10
-8.4998e-11
4.74903e-10
-9.24733e-11
4.96863e-10
-8.58824e-11
5.21066e-10
-7.37111e-11
5.45233e-10
-3.4196e-11
5.53542e-10
2.9926e-11
5.26385e-10
6.72381e-11
5.35614e-10
8.51791e-12
5.42231e-10
3.72538e-11
5.26282e-10
1.27599e-10
5.02297e-10
1.79019e-10
4.70862e-10
2.33233e-10
4.30278e-10
2.86664e-10
3.82851e-10
3.31049e-10
3.30869e-10
3.64074e-10
3.8538e-10
2.7643e-10
1.25534e-12
-1.38579e-11
4.87621e-12
-4.4538e-11
1.07162e-11
-7.47884e-11
1.87405e-11
-1.04823e-10
2.89221e-11
-1.33483e-10
4.12122e-11
-1.5948e-10
5.55465e-11
-1.81958e-10
7.18581e-11
-2.00448e-10
9.00838e-11
-2.14702e-10
1.10167e-10
-2.24556e-10
1.32049e-10
-2.29844e-10
1.5567e-10
-2.30361e-10
1.80958e-10
-2.25859e-10
2.07829e-10
-2.16065e-10
2.36676e-10
-2.01051e-10
2.67463e-10
-1.7992e-10
3.01004e-10
-1.51367e-10
3.27757e-10
-1.04231e-10
3.43721e-10
-5.57948e-11
3.50607e-10
-1.77659e-11
3.23493e-10
-1.8995e-11
3.04379e-10
-1.01913e-10
3.10141e-10
-1.20311e-10
2.86563e-10
-3.09339e-11
2.71455e-10
-1.02092e-11
2.87219e-10
-5.69907e-11
3.14638e-10
-8.81715e-11
3.44905e-10
-1.00035e-10
3.77089e-10
-1.05651e-10
4.06747e-10
-1.02085e-10
4.37219e-10
-9.45362e-11
4.62308e-10
-8.11921e-11
4.69982e-10
-5.59057e-11
4.93605e-10
-9.20984e-11
5.10651e-10
-1.02043e-10
5.23376e-10
-1.05199e-10
5.35065e-10
-9.75711e-11
5.55218e-10
-9.38653e-11
5.98851e-10
-7.7829e-11
6.22908e-10
5.86842e-12
6.25248e-10
6.48994e-11
6.10902e-10
2.28665e-11
6.25101e-10
2.30575e-11
5.91224e-10
1.61479e-10
5.71157e-10
1.99088e-10
5.33857e-10
2.70534e-10
4.85996e-10
3.34526e-10
4.31718e-10
3.85326e-10
3.72634e-10
4.23158e-10
4.47915e-10
3.10099e-10
1.18315e-12
-1.50418e-11
4.62579e-12
-4.79821e-11
1.02142e-11
-8.03778e-11
1.79405e-11
-1.12549e-10
2.77977e-11
-1.43339e-10
3.97496e-11
-1.71431e-10
5.37387e-11
-1.95946e-10
6.9699e-11
-2.16407e-10
8.75643e-11
-2.32567e-10
1.07268e-10
-2.4426e-10
1.28732e-10
-2.51308e-10
1.51843e-10
-2.53473e-10
1.76429e-10
-2.50446e-10
2.02326e-10
-2.41963e-10
2.28901e-10
-2.27626e-10
2.56569e-10
-2.07587e-10
2.92207e-10
-1.87005e-10
3.35293e-10
-1.47316e-10
3.50018e-10
-7.05184e-11
3.43954e-10
-1.17013e-11
3.31175e-10
-6.21485e-12
3.31903e-10
-1.02642e-10
2.73986e-10
-6.23939e-11
2.70912e-10
-2.78605e-11
2.76401e-10
-1.5698e-11
3.16355e-10
-9.69452e-11
3.5989e-10
-1.31706e-10
3.96333e-10
-1.36476e-10
4.25838e-10
-1.35154e-10
4.57561e-10
-1.33807e-10
4.90754e-10
-1.27728e-10
5.24567e-10
-1.15003e-10
5.5783e-10
-8.91669e-11
5.62629e-10
-9.68952e-11
5.70685e-10
-1.10099e-10
5.76356e-10
-1.1087e-10
5.68892e-10
-9.01083e-11
5.67469e-10
-9.24439e-11
5.43083e-10
-5.34429e-11
6.01176e-10
-5.22238e-11
6.21052e-10
4.50256e-11
6.51283e-10
-7.36183e-12
6.85398e-10