/*--------------------------------*- C++ -*----------------------------------*\
| =========                 |                                                 |
| \\      /  F ield         | OpenFOAM: The Open Source CFD Toolbox           |
|  \\    /   O peration     | Version:  2.4.0                                 |
|   \\  /    A nd           | Web:      www.OpenFOAM.org                      |
|    \\/     M anipulation  |                                                 |
\*---------------------------------------------------------------------------*/
FoamFile
{
    version     2.0;
    format      ascii;
    class       surfaceScalarField;
    location    "0.105";
    object      phiAlpha;
}
// * * * * * * * * * * * * * * * * * * * * * * * * * * * * * * * * * * * * * //

dimensions      [0 3 -1 0 0 0 0];

internalField   nonuniform List<scalar> 
7080
(
-2.82996e-08
2.82996e-08
-3.44898e-08
6.19017e-09
-2.4005e-08
-1.04848e-08
-5.42768e-09
-1.85773e-08
2.00543e-08
-2.5482e-08
5.02075e-08
-3.01531e-08
8.08622e-08
-3.06548e-08
1.10536e-07
-2.96738e-08
1.38252e-07
-2.77165e-08
1.59918e-07
-2.16652e-08
1.74387e-07
-1.44689e-08
1.75222e-07
-8.35447e-10
1.79337e-07
-4.11542e-09
1.31255e-07
4.80823e-08
1.23193e-07
8.06258e-09
7.03294e-08
5.28632e-08
8.78403e-09
6.15454e-08
-4.13315e-08
5.01156e-08
-8.79251e-08
4.72602e-08
-1.24992e-07
3.67614e-08
-2.11796e-07
8.66805e-08
-2.54151e-07
4.2271e-08
-1.64205e-07
-9.01644e-08
-6.48065e-08
-9.95922e-08
1.44351e-08
-7.94142e-08
8.05698e-08
-6.60864e-08
9.6402e-08
-1.57834e-08
7.31891e-08
2.32251e-08
6.6255e-08
5.76242e-09
5.88595e-08
7.22362e-09
-4.33604e-08
7.166e-08
-5.84833e-08
2.13132e-08
-5.14011e-08
-1.7567e-08
-3.28528e-08
-3.71256e-08
-3.52396e-09
-5.48108e-08
3.38815e-08
-6.75586e-08
7.45525e-08
-7.13258e-08
1.16507e-07
-7.16281e-08
1.57375e-07
-6.85844e-08
1.95077e-07
-5.93676e-08
2.19343e-07
-3.87352e-08
2.3802e-07
-1.95119e-08
2.56845e-07
-2.29407e-08
2.08598e-07
9.63298e-08
2.26719e-07
-1.00583e-08
1.81883e-07
9.76992e-08
1.02424e-07
1.41004e-07
5.95386e-08
9.30013e-08
-4.01726e-08
1.47261e-07
-1.80922e-07
1.77205e-07
-2.552e-07
1.60811e-07
-2.77003e-07
6.39119e-08
-2.41807e-07
-1.25556e-07
-1.72432e-07
-1.6905e-07
-8.77865e-08
-1.6416e-07
-2.07976e-08
-1.3316e-07
1.13253e-08
-4.79043e-08
4.30936e-09
3.00911e-08
-2.06605e-08
3.0642e-08
4.08691e-08
-2.67117e-09
-4.65207e-08
1.18181e-07
-6.38238e-08
3.86163e-08
-5.81913e-08
-2.31995e-08
-4.06683e-08
-5.46486e-08
-1.17249e-08
-8.37543e-08
2.6009e-08
-1.05292e-07
6.74914e-08
-1.12808e-07
1.10767e-07
-1.14903e-07
1.53302e-07
-1.1112e-07
1.93219e-07
-9.92846e-08
2.17754e-07
-6.32698e-08
2.43867e-07
-4.56253e-08
2.55838e-07
-3.49118e-08
2.26867e-07
1.25301e-07
2.53276e-07
-3.6468e-08
2.15716e-07
1.3526e-07
1.41599e-07
2.1512e-07
1.04032e-07
1.30568e-07
3.10018e-08
2.20291e-07
-1.04041e-07
3.11936e-07
-2.0785e-07
2.64621e-07
-2.66281e-07
1.22345e-07
-2.89358e-07
-1.02478e-07
-2.54597e-07
-2.0381e-07
-1.9443e-07
-2.24326e-07
-1.32865e-07
-1.94723e-07
-7.9705e-08
-1.01064e-07
-5.217e-08
3.70722e-09
-5.03158e-08
2.87867e-08
-5.43152e-09
-4.01617e-09
-4.73246e-08
1.65505e-07
-6.50662e-08
5.63579e-08
-5.96965e-08
-2.85693e-08
-4.24248e-08
-7.19202e-08
-1.35967e-08
-1.12582e-07
2.42373e-08
-1.43126e-07
6.58617e-08
-1.54433e-07
1.09428e-07
-1.5847e-07
1.52471e-07
-1.54162e-07
1.9322e-07
-1.40034e-07
2.15974e-07
-8.60231e-08
2.5031e-07
-7.99616e-08
2.41279e-07
-2.5881e-08
2.40544e-07
1.26036e-07
2.71249e-07
-6.71728e-08
2.24342e-07
1.82168e-07
1.66076e-07
2.73386e-07
1.40038e-07
1.56607e-07
9.93074e-08
2.61022e-07
-5.95637e-09
4.16891e-07
-1.24531e-07
3.83196e-07
-2.22887e-07
2.20705e-07
-2.8844e-07
-3.69201e-08
-2.94899e-07
-1.97332e-07
-2.56116e-07
-2.63106e-07
-2.03003e-07
-2.47834e-07
-1.40944e-07
-1.63125e-07
-8.53741e-08
-5.11655e-08
-4.13632e-08
-1.44663e-08
-4.46792e-08
-2.11657e-09
-4.77877e-08
2.13293e-07
-6.56588e-08
7.4229e-08
-6.02841e-08
-3.39439e-08
-4.3076e-08
-8.91284e-08
-1.42729e-08
-1.41385e-07
2.3701e-08
-1.811e-07
6.53883e-08
-1.9612e-07
1.09139e-07
-2.02221e-07
1.52662e-07
-1.97685e-07
1.94079e-07
-1.81452e-07
2.15904e-07
-1.07847e-07
2.56322e-07
-1.2038e-07
2.24374e-07
6.06783e-09
2.49737e-07
1.00672e-07
2.6378e-07
-8.12155e-08
2.10435e-07
2.35514e-07
1.88909e-07
2.94911e-07
1.53349e-07
1.92168e-07
1.37561e-07
2.7681e-07
7.89562e-08
4.7586e-07
-1.83466e-08
4.79211e-07
-1.07724e-07
3.1007e-07
-2.04213e-07
5.95925e-08
-2.40691e-07
-1.6088e-07
-2.56748e-07
-2.47033e-07
-2.40788e-07
-2.6376e-07
-1.78723e-07
-2.25192e-07
-9.72615e-08
-1.32624e-07
-2.91907e-08
-8.25813e-08
-7.71405e-08
2.40945e-09
-4.82789e-08
2.61572e-07
-6.62459e-08
9.2196e-08
-6.08115e-08
-3.93784e-08
-4.36498e-08
-1.0629e-07
-1.4877e-08
-1.70158e-07
2.32453e-08
-2.19223e-07
6.49587e-08
-2.37833e-07
1.08875e-07
-2.46137e-07
1.52991e-07
-2.41801e-07
1.94837e-07
-2.23298e-07
2.17922e-07
-1.30932e-07
2.60305e-07
-1.62763e-07
2.19298e-07
4.70745e-08
2.56021e-07
6.39492e-08
2.3174e-07
-5.6935e-08
1.8837e-07
2.78884e-07
2.03444e-07
2.79837e-07
1.5584e-07
2.39772e-07
1.57966e-07
2.74684e-07
1.56958e-07
4.77085e-07
1.01797e-07
5.32965e-07
3.17495e-08
3.80106e-07
-2.12296e-08
1.12423e-07
-8.92619e-08
-9.27567e-08
-1.61323e-07
-1.74889e-07
-2.02204e-07
-2.22893e-07
-1.88649e-07
-2.38755e-07
-1.18943e-07
-2.02329e-07
-5.40552e-08
-1.47469e-07
-1.31564e-07
3.69123e-10
-4.88615e-08
3.10433e-07
-6.69348e-08
1.10269e-07
-6.14203e-08
-4.4893e-08
-4.43152e-08
-1.23395e-07
-1.55863e-08
-1.98887e-07
2.27026e-08
-2.57512e-07
6.44322e-08
-2.79563e-07
1.08521e-07
-2.90226e-07
1.53409e-07
-2.86689e-07
1.95354e-07
-2.65243e-07
2.22496e-07
-1.58074e-07
2.61928e-07
-2.02195e-07
2.32316e-07
7.66873e-08
2.69457e-07
2.68076e-08
2.17704e-07
-5.18216e-09
1.68608e-07
3.2798e-07
2.01812e-07
2.46632e-07
1.59877e-07
2.81708e-07
1.83776e-07
2.50784e-07
2.24347e-07
4.36503e-07
1.92434e-07
5.64616e-07
1.28114e-07
4.43515e-07
7.9569e-08
1.60867e-07
5.75298e-08
-7.05648e-08
1.66163e-08
-1.3413e-07
-5.22459e-08
-1.54158e-07
-1.05429e-07
-1.85569e-07
-9.24133e-08
-2.15342e-07
-3.74943e-08
-2.02372e-07
-1.69015e-07
-4.31671e-11
-4.95469e-08
3.5998e-07
-6.77428e-08
1.28465e-07
-6.2131e-08
-5.05048e-08
-4.50958e-08
-1.4043e-07
-1.64247e-08
-2.27558e-07
2.20655e-08
-2.96002e-07
6.37937e-08
-3.21291e-07
1.08068e-07
-3.345e-07
1.53886e-07
-3.32507e-07
1.95692e-07
-3.0705e-07
2.29281e-07
-1.91663e-07
2.56592e-07
-2.29506e-07
2.64204e-07
6.9076e-08
2.82589e-07
8.42177e-09
2.35341e-07
4.20665e-08
1.57971e-07
4.0535e-07
1.74969e-07
2.29635e-07
1.41459e-07
3.15218e-07
1.63356e-07
2.28888e-07
2.51657e-07
3.48201e-07
2.71145e-07
5.44875e-07
2.25665e-07
4.88878e-07
1.68268e-07
2.18163e-07
1.33862e-07
-3.5449e-08
1.28694e-07
-1.28947e-07
1.13572e-07
-1.39053e-07
5.85118e-08
-1.30553e-07
9.02758e-09
-1.65868e-07
6.36826e-11
-1.93416e-07
-1.70646e-07
1.73652e-09
-5.03382e-08
4.10318e-07
-6.86731e-08
1.468e-07
-6.2946e-08
-5.62319e-08
-4.5995e-08
-1.57381e-07
-1.73964e-08
-2.56157e-07
2.13297e-08
-3.34728e-07
6.30365e-08
-3.62998e-07
1.07504e-07
-3.78968e-07
1.54332e-07
-3.79335e-07
1.96486e-07
-3.49203e-07
2.34652e-07
-2.29829e-07
2.49055e-07
-2.4391e-07
2.90853e-07
2.7278e-08
2.71427e-07
2.78487e-08
2.40949e-07
7.25443e-08
1.81371e-07
4.64927e-07
1.79735e-07
2.31271e-07
1.89724e-07
3.05228e-07
1.68856e-07
2.49756e-07
2.454e-07
2.71658e-07
3.05971e-07
4.84541e-07
3.00023e-07
4.94717e-07
2.88252e-07
2.29837e-07
2.56921e-07
-2.63367e-09
2.18792e-07
-9.08177e-08
1.75073e-07
-9.53342e-08
1.41144e-07
-9.66235e-08
1.1381e-07
-1.38565e-07
6.0417e-08
-1.40032e-07
-1.14617e-07
4.37966e-09
-5.12376e-08
4.61556e-07
-6.97272e-08
1.6529e-07
-6.38646e-08
-6.20944e-08
-4.7013e-08
-1.74233e-07
-1.85037e-08
-2.84666e-07
2.05021e-08
-3.73734e-07
6.21467e-08
-4.04642e-07
1.06822e-07
-4.23643e-07
1.54705e-07
-4.27217e-07
1.9811e-07
-3.92609e-07
2.36138e-07
-2.67856e-07
2.54693e-07
-2.62465e-07
2.98705e-07
-1.6734e-08
2.60951e-07
6.56022e-08
2.39769e-07
9.37266e-08
2.32932e-07
4.71764e-07
2.26087e-07
2.38116e-07
2.47811e-07
2.83504e-07
1.91999e-07
3.05568e-07
2.32768e-07
2.30889e-07
3.40532e-07
3.76777e-07
3.53762e-07
4.82656e-07
3.19177e-07
2.6643e-07
3.04083e-07
1.27489e-08
2.94049e-07
-8.07841e-08
2.07665e-07
-8.94955e-09
1.17277e-07
-6.23631e-09
7.46911e-08
-9.5979e-08
4.50032e-08
-1.10381e-07
-7.37824e-08
4.16622e-09
-5.22474e-08
5.13803e-07
-7.09062e-08
1.83949e-07
-6.48859e-08
-6.81148e-08
-4.815e-08
-1.90969e-07
-1.97481e-08
-3.13068e-07
1.95493e-08
-4.13031e-07
6.11171e-08
-4.4621e-07
1.06022e-07
-4.68547e-07
1.5508e-07
-4.76276e-07
1.99824e-07
-4.37353e-07
2.37481e-07
-3.05513e-07
2.68066e-07
-2.93051e-07
2.96123e-07
-4.47901e-08
2.69526e-07
9.2199e-08
2.57236e-07
1.06017e-07
2.81727e-07
4.47273e-07
2.43273e-07
2.7657e-07
2.39908e-07
2.8687e-07
2.38049e-07
3.07427e-07
2.2892e-07
2.40018e-07
2.74895e-07
3.30802e-07
3.32053e-07
4.25563e-07
3.38546e-07
2.59938e-07
2.76127e-07
7.51718e-08
1.85477e-07
9.86643e-09
1.17126e-07
5.94016e-08
1.05344e-07
5.5455e-09
6.28672e-08
-5.35092e-08
1.60116e-08
-6.35317e-08
-6.43423e-08
6.56844e-09
-5.337e-08
5.67173e-07
-7.22116e-08
2.0279e-07
-6.60082e-08
-7.43181e-08
-4.94061e-08
-2.07571e-07
-2.11325e-08
-3.41342e-07
1.85028e-08
-4.52666e-07
5.99274e-08
-4.87635e-07
1.05105e-07
-5.13725e-07
1.5548e-07
-5.2665e-07
2.0112e-07
-4.82993e-07
2.41953e-07
-3.46346e-07
2.76276e-07
-3.27374e-07
2.93088e-07
-6.16021e-08
2.92437e-07
9.285e-08
2.78338e-07
1.20116e-07
2.87418e-07
4.38193e-07
2.40061e-07
3.23926e-07
2.30046e-07
2.96885e-07
2.39483e-07
2.9799e-07
1.93952e-07
2.85548e-07
2.26522e-07
2.98233e-07
2.8484e-07
3.67245e-07
2.65654e-07
2.79125e-07
2.23778e-07
1.17048e-07
1.88134e-07
4.55106e-08
2.11062e-07
3.64732e-08
2.01456e-07
1.51517e-08
1.12211e-07
3.57355e-08
3.25725e-08
1.60884e-08
-2.478e-08
-6.98314e-09
-5.46083e-08
6.21782e-07
-7.36448e-08
2.21827e-07
-6.72298e-08
-8.07331e-08
-5.07815e-08
-2.24019e-07
-2.26589e-08
-3.69464e-07
1.73456e-08
-4.92671e-07
5.85651e-08
-5.28854e-07
1.04085e-07
-5.59245e-07
1.55839e-07
-5.78404e-07
2.02439e-07
-5.29593e-07
2.47941e-07
-3.91849e-07
2.75909e-07
-3.55342e-07
3.07979e-07
-9.3672e-08
3.15159e-07
8.567e-08
2.82353e-07
1.52922e-07
2.89262e-07
4.31283e-07
2.3057e-07
3.82619e-07
2.02561e-07
3.24894e-07
2.20876e-07
2.79675e-07
2.07948e-07
2.98475e-07
2.23516e-07
2.82665e-07
2.52405e-07
3.38356e-07
2.62675e-07
2.68855e-07
2.57773e-07
1.2195e-07
2.33296e-07
6.99869e-08
1.6657e-07
1.03199e-07
3.57219e-08
1.4599e-07
-4.14799e-08
1.1291e-07
-2.39256e-08
-1.47706e-09
-4.97696e-08
1.07039e-09
-5.59654e-08
6.77747e-07
-7.52075e-08
2.41069e-07
-6.85478e-08
-8.73927e-08
-5.22758e-08
-2.40291e-07
-2.43293e-08
-3.97411e-07
1.60677e-08
-5.33068e-07
5.70119e-08
-5.69798e-07
1.02977e-07
-6.05209e-07
1.56145e-07
-6.31572e-07
2.04392e-07
-5.77841e-07
2.51289e-07
-4.38745e-07
2.78906e-07
-3.8296e-07
3.24254e-07
-1.3902e-07
3.32788e-07
7.71357e-08
2.87939e-07
1.97771e-07
2.53049e-07
4.66174e-07
2.138e-07
4.21867e-07
2.01951e-07
3.36744e-07
2.06323e-07
2.75303e-07
1.95517e-07
3.09281e-07
1.68652e-07
3.0953e-07
1.56181e-07
3.50826e-07
1.25926e-07
2.9911e-07
3.40441e-08
2.13833e-07
-5.02928e-08
1.54324e-07
-8.44734e-08
1.37379e-07
-7.81649e-08
1.39693e-07
-3.42461e-08
6.90336e-08
-7.46308e-09
-2.82712e-08
-5.32173e-08
-4.01116e-09
-5.74447e-08
7.35192e-07
-7.69015e-08
2.60526e-07
-6.99588e-08
-9.43354e-08
-5.38892e-08
-2.56361e-07
-2.61456e-08
-4.25154e-07
1.46706e-08
-5.73884e-07
5.52562e-08
-6.10384e-07
1.01784e-07
-6.51737e-07
1.56464e-07
-6.86252e-07
2.06774e-07
-6.28151e-07
2.51629e-07
-4.836e-07
2.88368e-07
-4.19699e-07
3.44082e-07
-1.94733e-07
3.28304e-07
9.29134e-08
2.56264e-07
2.69812e-07
2.22689e-07
4.99749e-07
1.94913e-07
4.49643e-07
1.78625e-07
3.53031e-07
1.2723e-07
3.26698e-07
6.38816e-08
3.7263e-07
4.48213e-08
3.28591e-07
9.38843e-08
3.01763e-07
1.87609e-07
2.05385e-07
2.54336e-07
1.47106e-07
2.47971e-07
1.60688e-07
1.99599e-07
1.85752e-07
1.77531e-07
1.61764e-07
1.73476e-07
7.30961e-08
1.04515e-07
4.06527e-08
5.8984e-08
-7.68304e-09
-5.905e-08
7.94242e-07
-7.87288e-08
2.80204e-07
-7.14565e-08
-1.01608e-07
-5.56216e-08
-2.72196e-07
-2.81092e-08
-4.52667e-07
1.3144e-08
-6.15137e-07
5.32919e-08
-6.50532e-07
1.00496e-07
-6.98941e-07
1.56899e-07
-7.42655e-07
2.08836e-07
-6.80089e-07
2.49727e-07
-5.24491e-07
3.09208e-07
-4.7918e-07
3.34741e-07
-2.20267e-07
3.10075e-07
1.17579e-07
2.43883e-07
3.36004e-07
2.05528e-07
5.38104e-07
2.0772e-07
4.4745e-07
2.61099e-07
2.99653e-07
2.80637e-07
3.0716e-07
3.05784e-07
3.47483e-07
3.15313e-07
3.19061e-07
3.42377e-07
2.74699e-07
4.03374e-07
1.44388e-07
4.1234e-07
1.3814e-07
3.8984e-07
1.83188e-07
3.4939e-07
2.26202e-07
2.99729e-07
2.11426e-07
2.08701e-07
1.64124e-07
9.05367e-08
1.5875e-07
1.54312e-07
-4.78811e-09
-6.07857e-08
8.55027e-07
-8.06915e-08
3.0011e-07
-7.30314e-08
-1.09268e-07
-5.74729e-08
-2.87754e-07
-3.02217e-08
-4.79918e-07
1.14884e-08
-6.56847e-07
5.11194e-08
-6.90163e-07
9.90904e-08
-7.46913e-07
1.57609e-07
-8.01174e-07
2.08684e-07
-7.31163e-07
2.54932e-07
-5.70739e-07
3.12252e-07
-5.365e-07
3.17897e-07
-2.25911e-07
3.26022e-07
1.09454e-07
2.88838e-07
3.73188e-07
2.4539e-07
5.81552e-07
2.73751e-07
4.19089e-07
2.61837e-07
3.11567e-07
2.14262e-07
3.54736e-07
1.73441e-07
3.88304e-07
1.28599e-07
3.63903e-07
4.18014e-08
3.61497e-07
-2.16809e-08
2.0787e-07
6.33201e-09
1.10127e-07
8.17726e-08
1.07747e-07
1.19889e-07
1.88086e-07
9.26408e-08
2.38674e-07
3.04209e-08
2.26295e-07
-1.20349e-09
1.90362e-07
1.5266e-07
5.04335e-10
-6.26561e-08
9.17684e-07
-8.27919e-08
3.20246e-07
-7.46695e-08
-1.1739e-07
-5.94433e-08
-3.0298e-07
-3.24838e-08
-5.06877e-07
9.69368e-09
-6.99025e-07
4.87485e-08
-7.29218e-07
9.75667e-08
-7.95731e-07
1.58381e-07
-8.61988e-07
2.07151e-07
-7.79934e-07
2.61265e-07
-6.24852e-07
2.9616e-07
-5.71395e-07
3.47445e-07
-2.77197e-07
3.95254e-07
6.16451e-08
3.44169e-07
4.24273e-07
3.03205e-07
6.22516e-07
2.0193e-07
5.20365e-07
1.18321e-07
3.95176e-07
1.4825e-07
3.24807e-07
1.88607e-07
3.47947e-07
2.72951e-07
2.79559e-07
2.37444e-07
3.97004e-07
5.46976e-09
4.39844e-07
-1.61287e-07
2.76883e-07
-1.81734e-07
1.28194e-07
-1.12134e-07
1.18485e-07
-9.45763e-08
2.21102e-07
-9.08039e-08
2.22508e-07
-5.21289e-08
1.51736e-07
1.006e-07
-6.89844e-11
-6.46664e-08
9.8235e-07
-8.50327e-08
3.40612e-07
-7.63749e-08
-1.26048e-07
-6.15328e-08
-3.17823e-07
-3.4896e-08
-5.33514e-07
7.74904e-09
-7.4167e-07
4.61961e-08
-7.67665e-07
9.59435e-08
-8.45478e-07
1.58843e-07
-9.24888e-07
2.05373e-07
-8.26464e-07
2.57376e-07
-6.76856e-07
2.96754e-07
-6.10773e-07
3.92375e-07
-3.72818e-07
4.2135e-07
3.26698e-08
2.67465e-07
5.78158e-07
1.05306e-07
7.84675e-07
9.58467e-08
5.29824e-07
5.49552e-08
4.36067e-07
1.34041e-07
2.45721e-07
2.41861e-07
2.40127e-07
2.69619e-07
2.518e-07
3.47893e-07
3.1873e-07
3.01649e-07
4.86088e-07
1.38197e-07
4.40335e-07
1.1142e-08
2.5525e-07
-6.73691e-08
1.97005e-07
-8.96619e-08
2.43386e-07
-7.99661e-08
2.12856e-07
-4.28427e-08
1.14612e-07
6.02045e-08
-2.44841e-09
-6.68221e-08
1.04917e-06
-8.74164e-08
3.61207e-07
-7.81764e-08
-1.35288e-07
-6.37416e-08
-3.32257e-07
-3.74575e-08
-5.59798e-07
5.63484e-09
-7.84762e-07
4.34844e-08
-8.05514e-07
9.42632e-08
-8.96257e-07
1.58309e-07
-9.88933e-07
2.00284e-07
-8.68439e-07
2.42572e-07
-7.19143e-07
3.21581e-07
-6.8978e-07
3.88741e-07
-4.39989e-07
3.64856e-07
4.28489e-08
2.99344e-07
6.4367e-07
2.46166e-07
8.37853e-07
3.70694e-07
4.05296e-07
3.42071e-07
4.6469e-07
3.90223e-08
5.48769e-07
-1.52398e-08
2.9439e-07
4.71958e-08
1.89365e-07
1.2212e-07
2.43807e-07
2.96022e-07
3.12185e-07
2.80437e-07
4.5592e-07
1.61631e-07
3.74056e-07
3.95156e-08
3.19124e-07
-1.40011e-08
2.9694e-07
-9.16565e-09
2.0802e-07
-1.24196e-09
1.06689e-07
6.0691e-08
-1.72913e-09
-6.91292e-08
1.1183e-06
-8.99458e-08
3.82023e-07
-8.00921e-08
-1.45142e-07
-6.60697e-08
-3.4628e-07
-4.01658e-08
-5.85702e-07
3.3104e-09
-8.28238e-07
4.06303e-08
-8.42834e-07
9.25179e-08
-9.48144e-07
1.53965e-07
-1.05038e-06
1.82879e-07
-8.97353e-07
2.24597e-07
-7.60861e-07
3.04771e-07
-7.69887e-07
2.22331e-07
-2.90137e-07
9.95174e-08
2.87348e-08
2.26598e-07
2.99425e-07
2.06505e-07
8.19442e-07
1.64372e-07
4.30554e-07
1.08966e-07
5.08114e-07
-1.11404e-07
7.69622e-07
2.76576e-08
1.55328e-07
1.95372e-07
2.16498e-08
1.65515e-08
4.22628e-07
1.65266e-08
3.1221e-07
8.39046e-08
3.88542e-07
4.34818e-08
4.14478e-07
1.74867e-08
3.45119e-07
3.62807e-08
2.78146e-07
4.98926e-08
1.94408e-07
3.42005e-08
1.22381e-07
9.32641e-08
1.62763e-09
-7.15934e-08
1.18989e-06
-9.26236e-08
4.03053e-07
-8.21219e-08
-1.55644e-07
-6.85177e-08
-3.59884e-07
-4.30154e-08
-6.11204e-07
7.53814e-10
-8.72008e-07
3.76351e-08
-8.79715e-07
8.98185e-08
-1.00033e-06
1.37179e-07
-1.09774e-06
1.44338e-07
-9.04511e-07
1.9776e-07
-8.14245e-07
6.01327e-08
-3.15495e-07
-2.06259e-07
-1.0669e-08
-5.31781e-07
2.9765e-08
-2.32481e-07
-1.29993e-07
-2.00012e-07
7.45171e-07
-3.04012e-07
5.2411e-07
-3.868e-08
2.37998e-07
1.50115e-07
5.81235e-07
6.53295e-08
2.40113e-07
2.04844e-07
-1.18126e-07
1.50547e-07
4.76925e-07
-6.59766e-08
5.28734e-07
-1.14289e-07
4.36855e-07
-7.98586e-08
3.80048e-07
-2.03909e-08
2.85652e-07
3.67407e-08
2.21014e-07
6.65781e-08
1.64571e-07
4.72912e-08
1.41668e-07
1.3639e-07
4.16566e-09
-7.42295e-08
1.26412e-06
-9.54531e-08
4.24277e-07
-8.42546e-08
-1.66842e-07
-7.10862e-08
-3.73052e-07
-4.59962e-08
-6.36294e-07
-1.07529e-09
-9.16928e-07
3.44257e-08
-9.15217e-07
8.10025e-08
-1.0469e-06
9.31545e-08
-1.10989e-06
9.34562e-08
-9.04809e-07
1.1678e-07
-5.99935e-07
-2.34889e-08
-1.46359e-09
-6.00165e-08
-3.45438e-09
-1.80012e-07
-3.79103e-09
-4.94603e-07
-2.09719e-07
-2.93306e-07
3.8291e-07
-1.96083e-07
4.02998e-07
-1.42664e-07
1.80998e-07
-8.58722e-08
5.24858e-07
-1.02161e-07
2.5326e-07
1.40774e-07
-3.65205e-07
2.58445e-07
3.56167e-07
1.46857e-07
6.40321e-07
-2.7951e-08
6.11663e-07
-8.5019e-08
4.37116e-07
-7.66832e-08
2.77316e-07
-3.04579e-08
1.74788e-07
1.91133e-08
1.15e-07
2.44431e-08
1.36338e-07
1.56567e-07
4.24423e-09
-7.69626e-08
1.34109e-06
-9.84363e-08
4.45751e-07
-8.64818e-08
-1.78797e-07
-7.3775e-08
-3.85759e-07
-4.91073e-08
-6.60962e-07
-3.04804e-09
-9.62988e-07
3.02621e-08
-9.48527e-07
4.96545e-08
-1.0663e-06
1.94077e-08
-1.07965e-06
1.29026e-07
-8.75612e-07
2.39989e-08
-1.19386e-07
5.33051e-08
-3.33409e-09
5.28009e-09
9.86294e-09
-1.57977e-08
3.4766e-10
-4.50497e-07
-1.03919e-07
-3.35365e-07
3.4709e-09
-2.86381e-07
3.32707e-07
-3.93559e-07
2.88292e-07
-2.73119e-07
4.05383e-07
-1.61823e-07
1.39368e-07
2.8772e-08
-5.55389e-07
2.54743e-07
1.27639e-07
2.48127e-07
6.44047e-07
1.02394e-07
7.57393e-07
-2.23383e-08
5.61848e-07
-8.0402e-08
3.3538e-07
-6.22327e-08
1.56624e-07
-2.15619e-08
7.43114e-08
2.27409e-09
1.12493e-07
1.50443e-07
8.39364e-09
-8.0514e-08
1.4216e-06
-1.01578e-07
4.66815e-07
-8.87993e-08
-1.91576e-07
-7.6585e-08
-3.97973e-07
-5.2365e-08
-6.85182e-07
-5.46119e-09
-1.00989e-06
2.09706e-08
-9.74958e-07
-3.08236e-08
-1.0145e-06
-9.71189e-09
-1.10074e-06
8.48627e-08
-4.30871e-07
4.32629e-10
-2.35122e-09
1.59495e-10
-2.64226e-09
-1.58347e-10
-1.27574e-09
-2.78122e-09
1.25723e-09
-2.50016e-07
-2.22533e-08
-4.96945e-07
-2.78413e-07
-3.81102e-07
1.09896e-07
-4.26989e-07
3.34279e-07
-3.10405e-07
2.90086e-07
-1.67631e-07
-2.15868e-09
-2.80213e-08
-6.9461e-07
2.14728e-07
-1.13359e-07
1.56761e-07
6.9922e-07
9.80526e-08
8.10149e-07
1.85918e-09
6.58037e-07
-3.49237e-08
3.72163e-07
-3.45927e-08
1.56306e-07
-2.3856e-08
6.35535e-08
-4.13434e-09
9.27415e-08
1.33674e-07
1.2641e-08
-7.9875e-08
1.50148e-06
-1.04897e-07
4.91837e-07
-9.11966e-08
-2.05276e-07
-7.9519e-08
-4.09651e-07
-5.5905e-08
-7.08796e-07
-9.53768e-09
-1.05626e-06
-7.06291e-09
-9.77433e-07
-9.7745e-08
-9.23669e-07
3.13903e-07
-9.6957e-07
2.20748e-09
-6.67819e-08
-1.21827e-10
1.20702e-10
-2.09518e-09
-8.31965e-11
-5.5567e-10
-3.21859e-10
-9.35913e-11
1.85895e-10
-2.24327e-08
-1.45941e-09
-4.54943e-07
-7.91001e-08
-4.76919e-07
-1.39681e-07
-4.09985e-07
2.67441e-07
-3.41002e-07
2.21156e-07
-2.338e-07
-1.09282e-07
-2.04165e-07
-7.22081e-07
1.12557e-09
-3.16111e-07
8.92447e-08
6.13384e-07
9.14487e-08
8.10023e-07
6.7656e-08
6.81172e-07
4.12373e-08
3.98581e-07
8.45441e-09
1.8909e-07
-1.23124e-08
8.43254e-08
-7.2225e-09
8.76475e-08
1.15214e-07
1.12447e-08
-1.03106e-07
1.60458e-06
-1.08159e-07
4.96891e-07
-9.36869e-08
-2.19749e-07
-8.26136e-08
-4.20724e-07
-6.05542e-08
-7.30855e-07
-2.17101e-08
-1.0951e-06
-9.19589e-08
-9.07184e-07
6.18663e-08
-1.12444e-06
5.7671e-08
-3.324e-07
-6.72307e-11
-8.88131e-09
3.80162e-11
-2.24688e-12
-4.34881e-11
-6.21483e-13
-3.8412e-10
1.07319e-11
-6.35541e-10
1.69573e-10
-8.94265e-10
-1.79274e-09
-6.45923e-08
-1.75665e-08
-5.25878e-07
-1.11909e-07
-4.96349e-07
9.79338e-08
-4.45845e-07
1.70688e-07
-3.82919e-07
-1.72171e-07
-2.76033e-07
-8.27241e-07
-3.77248e-08
-5.55385e-07
9.07203e-08
4.84042e-07
9.89785e-08
8.06526e-07
8.29645e-08
6.97634e-07
5.09392e-08
4.30606e-07
3.74302e-09
2.36287e-07
-1.66934e-08
1.04757e-07
-1.31105e-08
8.40604e-08
9.28566e-08
9.24559e-09
-2.86127e-08
1.63319e-06
-1.13144e-07
5.81422e-07
-9.61692e-08
-2.36723e-07
-8.60859e-08
-4.30807e-07
-7.03776e-08
-7.46564e-07
-6.09696e-08
-1.10451e-06
-2.01644e-07
-7.61145e-07
2.52604e-07
-7.19144e-07
8.79422e-09
-6.81414e-09
1.15107e-11
-8.86392e-11
2.78441e-12
-2.05339e-13
1.79482e-12
-4.42318e-16
-3.91659e-12
1.03694e-11
-2.25591e-10
2.78443e-10
9.2483e-10
1.98915e-10
-1.16913e-08
-3.64155e-09
-3.39016e-07
-4.41527e-08
-5.52033e-07
-1.40696e-07
-5.12588e-07
1.31284e-07
-4.79554e-07
-2.0518e-07
-4.20079e-07
-8.86835e-07
-2.05242e-07
-7.67063e-07
-7.85745e-08
3.56467e-07
-3.19161e-08
7.6011e-07
8.53935e-09
6.57725e-07
-1.65037e-08
4.55652e-07
-3.20273e-08
2.51808e-07
-3.07857e-08
1.03518e-07
-1.75007e-08
7.07963e-08
6.65556e-08
8.7905e-09
-2.44495e-07
1.87769e-06
-1.05371e-07
4.42297e-07
-9.99809e-08
-2.42114e-07
-9.16035e-08
-4.39185e-07
-1.0159e-07
-7.36577e-07
-1.59155e-07
-1.04694e-06
1.29637e-07
-9.89637e-07
5.33172e-09
-8.38301e-08
7.18257e-11
-1.54224e-09
6.88366e-13
-2.21515e-11
4.67602e-13
-1.34764e-15
4.33094e-13
5.89461e-14
5.48972e-12
3.30154e-12
2.45067e-10
2.0698e-11
-2.00342e-10
6.87081e-10
-3.09139e-09
-4.93143e-10
-4.28977e-08
-3.9235e-09
-3.70242e-07
-1.18335e-07
-4.82973e-07
-6.74077e-08
-4.76315e-07
-2.11813e-07
-5.56686e-07
-8.06712e-07
-4.53491e-07
-8.68777e-07
-3.22688e-07
2.24746e-07
-2.30662e-07
6.6104e-07
-1.2844e-07
5.55505e-07
-9.31117e-08
4.20326e-07
-5.43679e-08
2.13067e-07
-4.01675e-08
8.93153e-08
-2.13338e-08
5.19743e-08
3.88952e-08
6.32265e-09
1.20672e-07
1.75702e-06
-1.15796e-07
6.78765e-07
-9.74272e-08
-2.60483e-07
-1.07307e-07
-4.29305e-07
-2.09987e-07
-6.33896e-07
-2.51123e-07
-9.21991e-07
9.83955e-08
-3.38859e-07
7.31028e-10
-8.67612e-09
1.60069e-11
-8.38431e-10
-2.97812e-14
-5.68913e-12
2.36275e-14
-1.86901e-14
6.8312e-14
2.03735e-14
2.52171e-12
7.17977e-13
1.97794e-11
2.01388e-12
2.83459e-10
3.86883e-11
4.83425e-13
-1.18928e-11
-3.30324e-09
-2.01836e-10
-1.33978e-07
-9.71987e-09
-3.69378e-07
-1.52684e-07
-3.96476e-07
-3.22672e-07
-6.25654e-07
-5.7766e-07
-6.63546e-07
-8.28901e-07
-4.52282e-07
1.2514e-08
-3.72012e-07
5.79729e-07
-2.31518e-07
4.15012e-07
-1.5219e-07
3.40999e-07
-5.36344e-08
1.14536e-07
-3.6482e-08
7.21609e-08
-2.54302e-08
4.09232e-08
2.98161e-09
1.04847e-08
-4.89039e-08
5.5828e-08
-6.54571e-08
1.56123e-08
-9.31584e-08
2.77122e-08
-7.97064e-08
-1.3408e-08
-1.27664e-08
-6.68996e-08
6.44683e-08
-7.7401e-08
1.6149e-07
-9.72081e-08
2.52265e-07
-9.09805e-08
2.12313e-07
3.98829e-08
1.2714e-07
8.50545e-08
8.90403e-08
3.77833e-08
4.12022e-08
4.84975e-08
-9.61728e-09
5.08195e-08
-7.17634e-08
6.21461e-08
-1.24934e-07
5.3171e-08
-1.32804e-07
7.86946e-09
-1.79516e-07
4.67125e-08
-1.74634e-07
-4.88194e-09
-1.73412e-07
-1.22285e-09
-1.59467e-07
-1.3944e-08
-1.37993e-07
-2.14746e-08
-1.10594e-07
-2.73992e-08
-8.09401e-08
-2.96536e-08
-5.02609e-08
-3.06792e-08
-2.0083e-08
-3.01779e-08
5.40323e-09
-2.54862e-08
2.39565e-08
-1.85533e-08
3.4392e-08
-1.04355e-08
2.82187e-08
6.17334e-09
2.82187e-08
1.13353e-08
4.18205e-08
-5.91704e-09
3.26445e-08
-1.11399e-08
3.27455e-08
2.11475e-08
-4.56929e-08
8.88672e-08
-1.34688e-07
1.73334e-07
-1.61978e-07
2.41782e-07
-1.65769e-07
2.7695e-07
-1.26385e-07
2.55854e-07
6.08599e-08
1.80641e-07
1.60141e-07
4.08125e-08
1.77296e-07
-5.91576e-08
1.48754e-07
-1.03648e-07
9.53102e-08
-1.83459e-07
1.41957e-07
-2.2865e-07
9.83625e-08
-2.10133e-07
-1.06479e-08
-2.56714e-07
9.32932e-08
-2.37326e-07
-2.42694e-08
-2.18202e-07
-2.03474e-08
-1.94517e-07
-3.76289e-08
-1.57084e-07
-5.89075e-08
-1.16531e-07
-6.79516e-08
-7.46197e-08
-7.15653e-08
-3.39381e-08
-7.13608e-08
3.47504e-09
-6.75911e-08
3.27961e-08
-5.48073e-08
5.13114e-08
-3.70686e-08
5.83408e-08
-1.74649e-08
4.32548e-08
2.12593e-08
7.14735e-08
4.43393e-08
-6.53602e-09
5.07546e-08
2.62281e-08
7.97888e-08
4.8405e-09
1.33786e-07
-9.96892e-08
1.95322e-07
-1.96221e-07
2.55965e-07
-2.22617e-07
2.9151e-07
-2.0131e-07
2.69108e-07
-1.03979e-07
2.09713e-07
1.20259e-07
1.04568e-07
2.65288e-07
-3.03782e-08
3.11915e-07
-1.03784e-07
2.22159e-07
-1.42666e-07
1.34192e-07
-2.17271e-07
2.16561e-07
-2.55009e-07
1.36101e-07
-2.2827e-07
-3.73875e-08
-2.55405e-07
1.20428e-07
-2.43084e-07
-3.65905e-08
-2.16573e-07
-4.6858e-08
-1.9264e-07
-6.15617e-08
-1.53013e-07
-9.85342e-08
-1.10781e-07
-1.10184e-07
-6.7559e-08
-1.14787e-07
-2.60662e-08
-1.12854e-07
1.16744e-08
-1.05332e-07
4.06052e-08
-8.37381e-08
5.80952e-08
-5.45585e-08
6.36751e-08
-2.30449e-08
4.64117e-08
3.85226e-08
1.17885e-07
3.88678e-08
-4.75214e-08
8.54674e-08
-1.9622e-08
1.41492e-07
-5.04962e-08
2.04193e-07
-1.62391e-07
2.56326e-07
-2.48349e-07
2.95067e-07
-2.61354e-07
2.89594e-07
-1.95822e-07
2.24994e-07
-3.93829e-08
1.27282e-07
2.17976e-07
9.49655e-09
3.83074e-07
-9.73484e-08
4.18437e-07
-1.4017e-07
2.64981e-07
-1.67402e-07
1.61424e-07
-2.25376e-07
2.74535e-07
-2.72962e-07
1.83686e-07
-2.41755e-07
-6.85944e-08
-2.40699e-07
1.19373e-07
-2.49353e-07
-2.79367e-08
-2.14796e-07
-8.14149e-08
-1.92621e-07
-8.37365e-08
-1.52196e-07
-1.3896e-07
-1.09451e-07
-1.52929e-07
-6.5934e-08
-1.58304e-07
-2.42939e-08
-1.54494e-07
1.35472e-08
-1.43173e-07
4.23618e-08
-1.12553e-07
5.95997e-08
-7.17964e-08
6.49159e-08
-2.83611e-08
4.72142e-08
5.62244e-08
1.65099e-07
3.13229e-08
-7.73488e-08
9.57422e-08
-8.41427e-08
1.77489e-07
-1.3224e-07
2.40959e-07
-2.25862e-07
2.57507e-07
-2.64866e-07
2.4256e-07
-2.4638e-07
2.06715e-07
-1.59973e-07
1.09832e-07
5.75231e-08
2.01415e-08
3.07656e-07
-7.65892e-08
4.78654e-07
-1.35523e-07
4.77723e-07
-1.5196e-07
2.81418e-07
-1.89648e-07
1.99113e-07
-2.112e-07
2.96087e-07
-2.64639e-07
2.37125e-07
-2.51178e-07
-8.20549e-08
-2.23979e-07
9.21739e-08
-2.55137e-07
3.22044e-09
-2.14743e-07
-1.21809e-07
-1.93461e-07
-1.05019e-07
-1.52408e-07
-1.80013e-07
-1.09172e-07
-1.96165e-07
-6.5468e-08
-2.02008e-07
-2.37611e-08
-1.96201e-07
1.42244e-08
-1.81158e-07
4.30138e-08
-1.41342e-07
6.01874e-08
-8.897e-08
6.55074e-08
-3.36811e-08
4.7676e-08
7.40557e-08
2.12775e-07
5.43845e-08
-1.31363e-07
1.1802e-07
-1.47778e-07
1.88611e-07
-2.0283e-07
2.02544e-07
-2.39796e-07
1.621e-07
-2.24448e-07
9.08312e-08
-1.7503e-07
2.21069e-08
-9.11602e-08
-3.11116e-08
1.10592e-07
-1.00567e-07
3.77102e-07
-1.55296e-07
5.31843e-07
-1.56546e-07
4.7921e-07
-1.55226e-07
2.80098e-07
-2.04547e-07
2.48434e-07
-1.89203e-07
2.80743e-07
-2.33001e-07
2.80923e-07
-2.58004e-07
-5.7052e-08
-2.19614e-07
5.37841e-08
-2.58822e-07
4.24282e-08
-2.16775e-07
-1.63856e-07
-1.94196e-07
-1.27598e-07
-1.52764e-07
-2.21445e-07
-1.08919e-07
-2.4001e-07
-6.50486e-08
-2.45878e-07
-2.32996e-08
-2.3795e-07
1.48294e-08
-2.19287e-07
4.35886e-08
-1.70101e-07
6.07148e-08
-1.06096e-07
6.60931e-08
-3.90593e-08
4.81657e-08
9.19831e-08
2.60941e-07
3.7821e-08
-1.69227e-07
9.31056e-08
-2.03048e-07
1.0627e-07
-2.15992e-07
5.20525e-08
-1.85563e-07
-1.7772e-08
-1.54753e-07
-5.79786e-08
-1.34978e-07
-7.83523e-08
-7.06203e-08
-1.26288e-07
1.58418e-07
-1.90577e-07
4.40462e-07
-2.23183e-07
5.64156e-07
-1.82313e-07
4.38326e-07
-1.59028e-07
2.56813e-07
-2.03452e-07
2.92858e-07
-1.70707e-07
2.47998e-07
-2.20578e-07
3.30794e-07
-2.72559e-07
-5.07146e-09
-2.33403e-07
1.46281e-08
-2.59988e-07
6.90133e-08
-2.21339e-07
-2.02505e-07
-1.94693e-07
-1.54243e-07
-1.53214e-07
-2.62924e-07
-1.08584e-07
-2.8464e-07
-6.45341e-08
-2.89928e-07
-2.27596e-08
-2.79724e-07
1.554e-08
-2.57587e-07
4.42552e-08
-1.98816e-07
6.13237e-08
-1.23165e-07
6.67803e-08
-4.4516e-08
4.87465e-08
1.10017e-07
3.09688e-07
3.14767e-09
-1.70597e-07
-6.13559e-09
-1.93773e-07
-5.69574e-08
-1.6518e-07
-1.14322e-07
-1.28255e-07
-1.30303e-07
-1.38789e-07
-1.34377e-07
-1.30942e-07
-1.6619e-07
-3.80384e-08
-2.22629e-07
2.14756e-07
-2.68458e-07
4.86176e-07
-2.48975e-07
5.44415e-07
-1.60332e-07
3.49683e-07
-1.38847e-07
2.35328e-07
-1.76415e-07
3.30426e-07
-1.62335e-07
2.33918e-07
-2.3952e-07
4.07979e-07
-2.86123e-07
4.15316e-08
-2.65767e-07
-5.728e-09
-2.53864e-07
5.71111e-08
-2.28053e-07
-2.28316e-07
-1.95028e-07
-1.87268e-07
-1.53728e-07
-3.04224e-07
-1.08153e-07
-3.30215e-07
-6.39093e-08
-3.34171e-07
-2.21237e-08
-3.21509e-07
1.63799e-08
-2.96091e-07
4.50373e-08
-2.27474e-07
6.20346e-08
-1.40162e-07
6.75863e-08
-5.00677e-08
4.94297e-08
1.28174e-07
3.59117e-07
-5.25488e-08
-1.13677e-07
-1.07663e-07
-1.38668e-07
-1.36365e-07
-1.3651e-07
-1.71117e-07
-9.35039e-08
-2.15891e-07
-9.4014e-08
-2.55628e-07
-9.12053e-08
-2.86852e-07
-5.32836e-09
-2.97478e-07
2.25284e-07
-3.02844e-07
4.91431e-07
-2.42357e-07
4.84202e-07
-1.65624e-07
2.7295e-07
-1.8767e-07
2.57374e-07
-1.81014e-07
3.23771e-07
-1.86703e-07
2.39606e-07
-2.45054e-07
4.6633e-07
-2.73948e-07
7.0426e-08
-2.92337e-07
1.26604e-08
-2.45564e-07
1.03384e-08
-2.33254e-07
-2.40626e-07
-1.95847e-07
-2.24676e-07
-1.54219e-07
-3.45852e-07
-1.07615e-07
-3.76819e-07
-6.31694e-08
-3.78617e-07
-2.13883e-08
-3.63291e-07
1.73534e-08
-3.34832e-07
4.59381e-08
-2.56059e-07
6.28497e-08
-1.57073e-07
6.85143e-08
-5.57323e-08
5.02185e-08
1.46469e-07
4.09336e-07
-3.77123e-08
-7.18024e-08
-6.81115e-08
-1.08301e-07
-1.12191e-07
-9.24314e-08
-2.0838e-07
2.68513e-09
-2.94193e-07
-8.20048e-09
-3.0154e-07
-8.38583e-08
-3.15957e-07
9.35197e-09
-3.49262e-07
2.60592e-07
-3.37197e-07
4.80571e-07
-2.31713e-07
3.78717e-07
-1.8875e-07
2.29988e-07
-2.45488e-07
3.14112e-07
-2.28609e-07