/*--------------------------------*- C++ -*----------------------------------*\
| =========                 |                                                 |
| \\      /  F ield         | OpenFOAM: The Open Source CFD Toolbox           |
|  \\    /   O peration     | Version:  2.4.0                                 |
|   \\  /    A nd           | Web:      www.OpenFOAM.org                      |
|    \\/     M anipulation  |                                                 |
\*---------------------------------------------------------------------------*/
FoamFile
{
    version     2.0;
    format      ascii;
    class       volVectorField;
    location    "0.388";
    object      U;
}
// * * * * * * * * * * * * * * * * * * * * * * * * * * * * * * * * * * * * * //

dimensions      [0 1 -1 0 0 0 0];

internalField   nonuniform List<vector> 
10000
(
(1.96982e-07 -2.0111e-07 0)
(-6.32512e-07 3.64763e-07 0)
(-3.58731e-06 7.57953e-07 0)
(-8.04432e-06 1.01629e-06 0)
(-1.34495e-05 1.19367e-06 0)
(-1.90328e-05 1.231e-06 0)
(-2.43101e-05 1.13894e-06 0)
(-2.89144e-05 9.63637e-07 0)
(-3.2574e-05 7.44293e-07 0)
(-3.51047e-05 5.02302e-07 0)
(-3.63995e-05 2.48821e-07 0)
(-3.64117e-05 -8.17339e-09 0)
(-3.51392e-05 -2.61964e-07 0)
(-3.26133e-05 -5.07303e-07 0)
(-2.88902e-05 -7.40121e-07 0)
(-2.40478e-05 -9.56788e-07 0)
(-1.81843e-05 -1.15335e-06 0)
(-1.14207e-05 -1.32492e-06 0)
(-3.90635e-06 -1.46532e-06 0)
(4.17569e-06 -1.567e-06 0)
(1.26023e-05 -1.6214e-06 0)
(2.11069e-05 -1.61926e-06 0)
(2.93809e-05 -1.55179e-06 0)
(3.70813e-05 -1.41252e-06 0)
(4.38476e-05 -1.19925e-06 0)
(4.93262e-05 -9.15619e-07 0)
(5.32013e-05 -5.72016e-07 0)
(5.52281e-05 -1.85925e-07 0)
(5.52653e-05 2.17678e-07 0)
(5.32991e-05 6.08255e-07 0)
(4.94507e-05 9.57325e-07 0)
(4.39559e-05 1.24703e-06 0)
(3.71231e-05 1.47094e-06 0)
(2.9276e-05 1.63242e-06 0)
(2.06889e-05 1.74581e-06 0)
(1.15429e-05 1.83527e-06 0)
(1.93753e-06 1.92155e-06 0)
(-8.03593e-06 2.00289e-06 0)
(-1.82067e-05 2.04821e-06 0)
(-2.82889e-05 2.01741e-06 0)
(-3.7915e-05 1.89027e-06 0)
(-4.67066e-05 1.68145e-06 0)
(-5.43413e-05 1.42342e-06 0)
(-6.05904e-05 1.13933e-06 0)
(-6.53328e-05 8.34245e-07 0)
(-6.85562e-05 5.16655e-07 0)
(-7.03522e-05 2.16165e-07 0)
(-7.08978e-05 -2.78356e-08 0)
(-7.04142e-05 -1.98556e-07 0)
(-6.91293e-05 -3.17574e-07 0)
(-4.21787e-07 6.37725e-07 0)
(-4.20992e-06 4.20297e-06 0)
(-1.23408e-05 7.55481e-06 0)
(-2.35683e-05 9.68584e-06 0)
(-3.6458e-05 1.0668e-05 0)
(-4.95902e-05 1.0584e-05 0)
(-6.18377e-05 9.62425e-06 0)
(-7.23156e-05 8.01461e-06 0)
(-8.03554e-05 5.96059e-06 0)
(-8.54918e-05 3.62723e-06 0)
(-8.74411e-05 1.14272e-06 0)
(-8.60696e-05 -1.39306e-06 0)
(-8.13616e-05 -3.90278e-06 0)
(-7.33928e-05 -6.32674e-06 0)
(-6.23112e-05 -8.61718e-06 0)
(-4.8326e-05 -1.07316e-05 0)
(-3.17059e-05 -1.2626e-05 0)
(-1.27844e-05 -1.42492e-05 0)
(8.02863e-06 -1.55391e-05 0)
(3.02335e-05 -1.64226e-05 0)
(5.32287e-05 -1.68183e-05 0)
(7.63066e-05 -1.66438e-05 0)
(9.86594e-05 -1.5826e-05 0)
(0.000119403 -1.43162e-05 0)
(0.000137617 -1.21054e-05 0)
(0.000152409 -9.23886e-06 0)
(0.000162989 -5.82519e-06 0)
(0.000168748 -2.03598e-06 0)
(0.000169338 1.90481e-06 0)
(0.000164725 5.7437e-06 0)
(0.000155201 9.23552e-06 0)
(0.000141344 1.21935e-05 0)
(0.000123921 1.45302e-05 0)
(0.000103754 1.62786e-05 0)
(8.15516e-05 1.75746e-05 0)
(5.78064e-05 1.85846e-05 0)
(3.2824e-05 1.93916e-05 0)
(6.90461e-06 1.99295e-05 0)
(-1.94567e-05 2.00171e-05 0)
(-4.55044e-05 1.94689e-05 0)
(-7.0312e-05 1.81886e-05 0)
(-9.294e-05 1.62117e-05 0)
(-0.000112583 1.36912e-05 0)
(-0.00012867 1.08409e-05 0)
(-0.000140907 7.87913e-06 0)
(-0.000149281 4.99697e-06 0)
(-0.00015403 2.35789e-06 0)
(-0.000155578 8.9282e-08 0)
(-0.000154453 -1.72936e-06 0)
(-0.000151217 -3.09407e-06 0)
(-8.72175e-07 3.67175e-06 0)
(-7.64814e-06 1.23347e-05 0)
(-1.9842e-05 1.97643e-05 0)
(-3.57412e-05 2.45012e-05 0)
(-5.33701e-05 2.64357e-05 0)
(-7.0969e-05 2.58455e-05 0)
(-8.70287e-05 2.3174e-05 0)
(-0.00010034 1.89061e-05 0)
(-0.000109979 1.34974e-05 0)
(-0.000115292 7.34343e-06 0)
(-0.00011587 7.73577e-07 0)
(-0.000111517 -5.94609e-06 0)
(-0.000102208 -1.26054e-05 0)
(-8.80526e-05 -1.90389e-05 0)
(-6.92747e-05 -2.51118e-05 0)
(-4.61919e-05 -3.07029e-05 0)
(-1.92135e-05 -3.56881e-05 0)
(1.11519e-05 -3.99268e-05 0)
(4.42811e-05 -4.32529e-05 0)
(7.94173e-05 -4.5474e-05 0)
(0.000115655 -4.638e-05 0)
(0.000151932 -4.57609e-05 0)
(0.000187043 -4.34354e-05 0)
(0.000219672 -3.92867e-05 0)
(0.000248452 -3.33022e-05 0)
(0.000272061 -2.56085e-05 0)
(0.000289326 -1.64933e-05 0)
(0.000299345 -6.40433e-06 0)
(0.000301596 4.07927e-06 0)
(0.000296022 1.4306e-05 0)
(0.000283055 2.36453e-05 0)
(0.000263564 3.1608e-05 0)
(0.000238713 3.79488e-05 0)
(0.00020975 4.27338e-05 0)
(0.000177752 4.6306e-05 0)
(0.000143417 4.90942e-05 0)
(0.000107114 5.13019e-05 0)
(6.92016e-05 5.27352e-05 0)
(3.03888e-05 5.2921e-05 0)
(-8.15629e-06 5.14086e-05 0)
(-4.49766e-05 4.79895e-05 0)
(-7.85991e-05 4.27699e-05 0)
(-0.000107781 3.61316e-05 0)
(-0.000131662 2.86185e-05 0)
(-0.000149814 2.08157e-05 0)
(-0.000162224 1.32476e-05 0)
(-0.000169239 6.33422e-06 0)
(-0.00017148 3.72265e-07 0)
(-0.000169732 -4.47397e-06 0)
(-0.000164835 -8.17333e-06 0)
(-1.08694e-06 8.17639e-06 0)
(-9.82992e-06 2.3591e-05 0)
(-2.47e-05 3.5683e-05 0)
(-4.33138e-05 4.30785e-05 0)
(-6.33132e-05 4.56949e-05 0)
(-8.2728e-05 4.4033e-05 0)
(-9.98552e-05 3.88107e-05 0)
(-0.000113304 3.0812e-05 0)
(-0.000122007 2.07951e-05 0)
(-0.000125204 9.44172e-06 0)
(-0.000122425 -2.66488e-06 0)
(-0.000113444 -1.50446e-05 0)
(-9.82424e-05 -2.73122e-05 0)
(-7.69696e-05 -3.91608e-05 0)
(-4.99092e-05 -5.03372e-05 0)
(-1.74628e-05 -6.06127e-05 0)
(1.98549e-05 -6.97539e-05 0)
(6.14057e-05 -7.74977e-05 0)
(0.000106408 -8.35361e-05 0)
(0.00015391 -8.75153e-05 0)
(0.000202774 -8.90508e-05 0)
(0.000251662 -8.77607e-05 0)
(0.000299049 -8.33168e-05 0)
(0.000343266 -7.55105e-05 0)
(0.000382578 -6.43236e-05 0)
(0.000415292 -4.99914e-05 0)
(0.000439907 -3.30433e-05 0)
(0.000455259 -1.43016e-05 0)
(0.000460669 5.17012e-06 0)
(0.00045605 2.41723e-05 0)
(0.000441966 4.15351e-05 0)
(0.000419569 5.6338e-05 0)
(0.000390435 6.81006e-05 0)
(0.000356266 7.69422e-05 0)
(0.000318475 8.3558e-05 0)
(0.000277799 8.88519e-05 0)
(0.000234364 9.32492e-05 0)
(0.000188286 9.63158e-05 0)
(0.000140344 9.70389e-05 0)
(9.21298e-05 9.45113e-05 0)
(4.56993e-05 8.83503e-05 0)
(3.13319e-06 7.87886e-05 0)
(-3.38304e-05 6.6559e-05 0)
(-6.40119e-05 5.26864e-05 0)
(-8.6856e-05 3.82701e-05 0)
(-0.000102375 2.43058e-05 0)
(-0.000111035 1.15698e-05 0)
(-0.000113634 5.88763e-07 0)
(-0.000111176 -8.36037e-06 0)
(-0.000104742 -1.52257e-05 0)
(-1.21632e-06 1.36331e-05 0)
(-1.08314e-05 3.65604e-05 0)
(-2.67665e-05 5.33885e-05 0)
(-4.6163e-05 6.31176e-05 0)
(-6.63907e-05 6.58732e-05 0)
(-8.5312e-05 6.24198e-05 0)
(-0.000101124 5.37877e-05 0)
(-0.000112358 4.10928e-05 0)
(-0.000117888 2.54246e-05 0)
(-0.000116924 7.77905e-06 0)
(-0.000108982 -1.09792e-05 0)
(-9.38479e-05 -3.01293e-05 0)
(-7.15312e-05 -4.90881e-05 0)
(-4.22211e-05 -6.73876e-05 0)
(-6.25224e-06 -8.46401e-05 0)
(3.59158e-05 -0.000100494 0)
(8.37014e-05 -0.00011459 0)
(0.000136387 -0.000126519 0)
(0.00019309 -0.000135804 0)
(0.000252732 -0.000141894 0)
(0.000314009 -0.000144191 0)
(0.000375377 -0.0001421 0)
(0.000435059 -0.000135107 0)
(0.000491095 -0.000122881 0)
(0.000541426 -0.000105388 0)
(0.000584031 -8.29859e-05 0)
(0.000617099 -5.64904e-05 0)
(0.000639213 -2.71758e-05 0)
(0.000649531 3.29703e-06 0)
(0.000647924 3.3035e-05 0)
(0.000635082 6.01671e-05 0)
(0.000612459 8.32043e-05 0)
(0.000582098 0.000101335 0)
(0.000546276 0.000114761 0)
(0.000506819 0.000124778 0)
(0.000464312 0.000133179 0)
(0.00041812 0.000140828 0)
(0.000367597 0.000146842 0)
(0.000313403 0.000149189 0)
(0.000257689 0.000146148 0)
(0.000203345 0.000137057 0)
(0.000153234 0.00012237 0)
(0.000109681 0.000103355 0)
(7.42237e-05 8.1708e-05 0)
(4.75618e-05 5.91956e-05 0)
(2.96512e-05 3.74019e-05 0)
(1.98752e-05 1.75642e-05 0)
(1.72307e-05 5.05198e-07 0)
(2.04915e-05 -1.3363e-05 0)
(2.83536e-05 -2.39879e-05 0)
(-1.25409e-06 1.93396e-05 0)
(-1.08097e-05 4.98902e-05 0)
(-2.63436e-05 7.11827e-05 0)
(-4.47725e-05 8.26739e-05 0)
(-6.33096e-05 8.48451e-05 0)
(-7.97214e-05 7.8789e-05 0)
(-9.21705e-05 6.5884e-05 0)
(-9.91765e-05 4.76013e-05 0)
(-9.96218e-05 2.53811e-05 0)
(-9.27391e-05 5.49377e-07 0)
(-7.80813e-05 -2.57332e-05 0)
(-5.54778e-05 -5.24935e-05 0)
(-2.4986e-05 -7.89427e-05 0)
(1.31581e-05 -0.000104448 0)
(5.85789e-05 -0.000128487 0)
(0.000110784 -0.000150585 0)
(0.000169167 -0.000170249 0)
(0.000232982 -0.000186918 0)
(0.000301311 -0.000199921 0)
(0.000373012 -0.000208481 0)
(0.000446685 -0.000211747 0)
(0.000520643 -0.000208866 0)
(0.000592917 -0.00019909 0)
(0.000661297 -0.000181927 0)
(0.000723435 -0.000157302 0)
(0.000776999 -0.000125697 0)
(0.000819878 -8.82464e-05 0)
(0.000850394 -4.67375e-05 0)
(0.000867511 -3.52585e-06 0)
(0.000871023 3.86544e-05 0)
(0.000861727 7.70344e-05 0)
(0.00084139 0.00010938 0)
(0.000812614 0.000134374 0)
(0.000778515 0.00015231 0)
(0.000741618 0.000165505 0)
(0.000702165 0.000177456 0)
(0.000657933 0.000189904 0)
(0.000606631 0.000201102 0)
(0.000548566 0.000207071 0)
(0.000486809 0.000204691 0)
(0.000425532 0.000192888 0)
(0.000368682 0.000172495 0)
(0.000319302 0.000145601 0)
(0.000279298 0.000114849 0)
(0.000249479 8.2883e-05 0)
(0.000229739 5.1998e-05 0)
(0.000219286 2.39616e-05 0)
(0.000216878 -6.16516e-08 0)
(0.00022104 -1.94946e-05 0)
(0.000230234 -3.42872e-05 0)
(-1.18604e-06 2.47729e-05 0)
(-9.94208e-06 6.24283e-05 0)
(-2.38597e-05 8.75534e-05 0)
(-3.98344e-05 0.000100048 0)
(-5.50444e-05 0.000100801 0)
(-6.72425e-05 9.12818e-05 0)
(-7.46109e-05 7.32486e-05 0)
(-7.57117e-05 4.85506e-05 0)
(-6.94845e-05 1.89938e-05 0)
(-5.52302e-05 -1.37558e-05 0)
(-3.25761e-05 -4.82356e-05 0)
(-1.42727e-06 -8.32198e-05 0)
(3.80902e-05 -0.000117719 0)
(8.56856e-05 -0.000150948 0)
(0.000140951 -0.000182263 0)
(0.000203387 -0.000211082 0)
(0.000272403 -0.000236792 0)
(0.000347286 -0.000258675 0)
(0.000427143 -0.000275852 0)
(0.000510839 -0.000287291 0)
(0.000596942 -0.000291849 0)
(0.000683688 -0.000288361 0)
(0.000768961 -0.00027579 0)
(0.00085034 -0.000253424 0)
(0.000925202 -0.000221109 0)
(0.000990915 -0.000179441 0)
(0.00104507 -0.000129893 0)
(0.00108572 -7.48152e-05 0)
(0.00111159 -1.73278e-05 0)
(0.00112231 3.88529e-05 0)
(0.00111874 8.98182e-05 0)
(0.00110291 0.00013237 0)
(0.00107804 0.000164322 0)
(0.00104858 0.000185881 0)
(0.00101851 0.00020103 0)
(0.000987642 0.00021662 0)
(0.000950719 0.000236187 0)
(0.000902264 0.000256284 0)
(0.000842023 0.000269132 0)
(0.000774828 0.000269297 0)
(0.000706889 0.000255274 0)
(0.000643637 0.000228642 0)
(0.000588935 0.000192741 0)
(0.000545002 0.000151522 0)
(0.000512657 0.000108762 0)
(0.000491639 6.76125e-05 0)
(0.000480932 3.04254e-05 0)
(0.000479038 -1.27705e-06 0)
(0.000484214 -2.67532e-05 0)
(0.000494671 -4.59563e-05 0)
(-1.03215e-06 2.95664e-05 0)
(-8.42882e-06 7.32855e-05 0)
(-1.97789e-05 0.000101276 0)
(-3.21038e-05 0.000113827 0)
(-4.26612e-05 0.00011223 0)
(-4.92649e-05 9.83537e-05 0)
(-5.01663e-05 7.43546e-05 0)
(-4.40128e-05 4.24759e-05 0)
(-2.98409e-05 4.90109e-06 0)
(-7.05692e-06 -3.63563e-05 0)
(2.46029e-05 -7.95317e-05 0)
(6.51283e-05 -0.000123153 0)
(0.000114302 -0.000166047 0)
(0.000171766 -0.0002073 0)
(0.000237086 -0.00024618 0)
(0.000309778 -0.000282033 0)
(0.000389315 -0.000314152 0)
(0.000475075 -0.00034167 0)
(0.000566263 -0.000363493 0)
(0.000661817 -0.000378304 0)
(0.00076034 -0.000384621 0)
(0.000860046 -0.00038091 0)
(0.000958721 -0.000365766 0)
(0.00105375 -0.00033819 0)
(0.00114225 -0.000297893 0)
(0.00122127 -0.000245569 0)
(0.00128813 -0.000183047 0)
(0.00134063 -0.000113269 0)
(0.00137723 -4.01368e-05 0)
(0.00139723 3.15432e-05 0)
(0.00140145 9.64237e-05 0)
(0.00139195 0.000150156 0)
(0.00137244 0.000188941 0)
(0.00134952 0.00021215 0)
(0.00133042 0.000226208 0)
(0.00131475 0.0002447 0)
(0.00129163 0.000274931 0)
(0.00124954 0.000310044 0)
(0.00118767 0.000334736 0)
(0.00111453 0.000339956 0)
(0.00103957 0.00032417 0)
(0.000970047 0.000290513 0)
(0.000910576 0.000244258 0)
(0.000863494 0.000191111 0)
(0.000829426 0.000136222 0)
(0.000807824 8.37161e-05 0)
(0.00079738 3.65668e-05 0)
(0.000796324 -3.35147e-06 0)
(0.000802652 -3.51606e-05 0)
(0.000814331 -5.88383e-05 0)
(-8.25472e-07 3.3454e-05 0)
(-6.46512e-06 8.1795e-05 0)
(-1.45472e-05 0.00011141 0)
(-2.23228e-05 0.000122905 0)
(-2.72205e-05 0.000117942 0)
(-2.71746e-05 9.87851e-05 0)
(-2.05477e-05 6.79972e-05 0)
(-6.10664e-06 2.82249e-05 0)
(1.69832e-05 -1.79619e-05 0)
(4.9179e-05 -6.81973e-05 0)
(9.06042e-05 -0.000120416 0)
(0.000141112 -0.00017291 0)
(0.000200368 -0.000224347 0)
(0.000267929 -0.000273721 0)
(0.00034333 -0.000320266 0)
(0.000426125 -0.000363307 0)
(0.000515893 -0.000402094 0)
(0.000612174 -0.000435638 0)
(0.000714346 -0.000462617 0)
(0.000821492 -0.000481395 0)
(0.000932313 -0.000490104 0)
(0.00104506 -0.000486768 0)
(0.00115745 -0.00046952 0)
(0.00126669 -0.000436972 0)
(0.00136959 -0.00038865 0)
(0.00146291 -0.000325333 0)
(0.00154371 -0.000249247 0)
(0.00160967 -0.000163936 0)
(0.00165896 -7.3976e-05 0)
(0.00169032 1.47156e-05 0)
(0.00170442 9.49678e-05 0)
(0.00170283 0.000161399 0)
(0.00168884 0.000207216 0)
(0.00167226 0.000228765 0)
(0.0016676 0.000235312 0)
(0.00167558 0.00025421 0)
(0.00167469 0.000300663 0)
(0.00164202 0.000360947 0)
(0.00157703 0.000404607 0)
(0.00149598 0.000417571 0)
(0.0014133 0.00039983 0)
(0.00133799 0.000357683 0)
(0.0012749 0.000299321 0)
(0.001226 0.000232668 0)
(0.00119143 0.000164399 0)
(0.00117022 9.96209e-05 0)
(0.00116072 4.19022e-05 0)
(0.00116091 -6.56172e-06 0)
(0.00116856 -4.47826e-05 0)
(0.00118144 -7.28058e-05 0)
(-5.9267e-07 3.62554e-05 0)
(-4.22111e-06 8.74913e-05 0)
(-8.56784e-06 0.000117288 0)
(-1.11814e-05 0.000126484 0)
(-9.72332e-06 0.000117067 0)
(-2.28973e-06 9.16787e-05 0)
(1.26146e-05 5.32862e-05 0)
(3.60789e-05 4.94374e-06 0)
(6.87857e-05 -5.03849e-05 0)
(0.00011103 -0.000109975 0)
(0.000162766 -0.000171459 0)
(0.000223678 -0.000232908 0)
(0.000293278 -0.000292852 0)
(0.000371012 -0.00035025 0)
(0.000456367 -0.000404366 0)
(0.000548944 -0.000454591 0)
(0.000648476 -0.000500204 0)
(0.000754744 -0.00054014 0)
(0.000867385 -0.000572838 0)
(0.000985702 -0.000596297 0)
(0.00110856 -0.000608211 0)
(0.0012343 -0.000606075 0)
(0.00136061 -0.000587421 0)
(0.00148443 -0.000550352 0)
(0.00160226 -0.00049415 0)
(0.00171051 -0.000419714 0)
(0.00180607 -0.000329797 0)
(0.00188678 -0.000228573 0)
(0.00195071 -0.000120908 0)
(0.00199558 -1.3665e-05 0)
(0.00202207 8.3521e-05 0)
(0.00203031 0.000165612 0)
(0.00202041 0.000220186 0)
(0.00200601 0.000235505 0)
(0.00201751 0.000221996 0)
(0.00206059 0.000235219 0)
(0.00209338 0.000306813 0)
(0.00207163 0.000409465 0)
(0.00199827 0.000481587 0)
(0.00190583 0.000503856 0)
(0.00181531 0.000482207 0)
(0.00173612 0.000428926 0)
(0.00167195 0.000356248 0)
(0.00162362 0.000274562 0)
(0.00159043 0.000191973 0)
(0.00157093 0.000114384 0)
(0.00156321 4.58247e-05 0)
(0.00156512 -1.12338e-05 0)
(0.00157428 -5.57104e-05 0)
(0.0015883 -8.77489e-05 0)
(-3.50618e-07 3.78672e-05 0)
(-1.83813e-06 9.00927e-05 0)
(-2.19466e-06 0.000118493 0)
(6.98003e-07 0.000124056 0)
(8.91369e-06 0.000109041 0)
(2.41719e-05 7.64449e-05 0)
(4.78094e-05 2.96271e-05 0)
(8.07584e-05 -2.79478e-05 0)
(0.000123536 -9.29132e-05 0)
(0.000176258 -0.000162175 0)
(0.000238683 -0.000233058 0)
(0.000310293 -0.000303414 0)
(0.000390403 -0.000371669 0)
(0.000478301 -0.000436797 0)
(0.00057339 -0.000498184 0)
(0.000675311 -0.000555405 0)
(0.000783987 -0.000607889 0)
(0.000899531 -0.000654563 0)
(0.00102196 -0.00069361 0)
(0.00115087 -0.000722596 0)
(0.00128537 -0.00073872 0)
(0.00142396 -0.000738841 0)
(0.00156426 -0.000719688 0)
(0.00170289 -0.000678665 0)
(0.00183583 -0.000614773 0)
(0.00195899 -0.000529145 0)
(0.00206922 -0.000425455 0)
(0.00216524 -0.000308737 0)
(0.00224563 -0.000183088 0)
(0.00230637 -5.57471e-05 0)
(0.00234887 5.91164e-05 0)
(0.00237077 0.000163018 0)
(0.00236268 0.000232447 0)
(0.00233974 0.000236318 0)
(0.00236509 0.000179258 0)
(0.00245912 0.000173489 0)
(0.00254115 0.000285198 0)
(0.00252751 0.000460497 0)
(0.00243404 0.000572072 0)
(0.00232606 0.000600716 0)
(0.00223039 0.000569565 0)
(0.00215245 0.000501012 0)
(0.00209222 0.000411746 0)
(0.00204837 0.000314105 0)
(0.00201921 0.000217038 0)
(0.002003 0.000126802 0)
(0.00199793 4.76474e-05 0)
(0.00200198 -1.76918e-05 0)
(0.00201276 -6.7998e-05 0)
(0.00202778 -0.000103519 0)
(-1.1044e-07 3.82524e-05 0)
(5.65788e-07 8.94812e-05 0)
(4.26349e-06 0.000114838 0)
(1.27615e-05 0.000115381 0)
(2.78636e-05 9.35896e-05 0)
(5.11019e-05 5.27817e-05 0)
(8.36549e-05 -3.30189e-06 0)
(0.0001263 -7.07846e-05 0)
(0.000179388 -0.000145885 0)
(0.000242849 -0.00022512 0)
(0.00031623 -0.00030549 0)
(0.000398773 -0.000384621 0)
(0.000489549 -0.000460852 0)
(0.000587619 -0.000533224 0)
(0.000692236 -0.000601357 0)
(0.000803029 -0.000665159 0)
(0.000920127 -0.000724399 0)
(0.00104408 -0.000778125 0)
(0.00117543 -0.00082423 0)
(0.0013142 -0.00085974 0)
(0.00145983 -0.000881303 0)
(0.00161109 -0.000885 0)
(0.00176548 -0.000866407 0)
(0.00191901 -0.00082194 0)
(0.00206683 -0.000750302 0)
(0.002204 -0.000653068 0)
(0.00232723 -0.000535789 0)
(0.00243746 -0.000405445 0)
(0.00253549 -0.00026297 0)
(0.0026144 -0.000113607 0)
(0.00267871 1.51535e-05 0)
(0.00272397 0.000151852 0)
(0.00271706 0.000255622 0)
(0.00266468 0.000244668 0)
(0.00269403 0.000100145 0)
(0.00286066 4.66092e-05 0)
(0.00301075 0.000226678 0)
(0.00299141 0.000530136 0)
(0.00285658 0.000687892 0)
(0.00273272 0.000707255 0)
(0.00264238 0.000655418 0)
(0.0025767 0.000566914 0)
(0.00252868 0.000460136 0)
(0.00249469 0.000347365 0)
(0.00247263 0.000237213 0)
(0.00246115 0.000135606 0)
(0.00245929 4.6776e-05 0)
(0.00246563 -2.61324e-05 0)
(0.00247792 -8.15571e-05 0)
(0.0024936 -0.000119828 0)
(1.18942e-07 3.74303e-05 0)
(2.88953e-06 8.56832e-05 0)
(1.05355e-05 0.000106345 0)
(2.45156e-05 0.000100468 0)
(4.63808e-05 7.07034e-05 0)
(7.74921e-05 2.0654e-05 0)
(0.000118888 -4.55717e-05 0)
(0.000171208 -0.000123682 0)
(0.000234656 -0.000209463 0)
(0.000308984 -0.000299016 0)
(0.000393522 -0.000388981 0)
(0.000487252 -0.000476732 0)
(0.000588943 -0.000560511 0)
(0.000697347 -0.000639471 0)
(0.000811454 -0.000713569 0)
(0.000930773 -0.000783242 0)
(0.00105558 -0.000848872 0)
(0.00118695 -0.000909873 0)
(0.00132614 -0.000963818 0)
(0.00147378 -0.00100704 0)
(0.0016299 -0.00103559 0)
(0.0017937 -0.00104453 0)
(0.00196249 -0.00102769 0)
(0.00213118 -0.000980025 0)
(0.00229364 -0.00089991 0)
(0.00244305 -0.000789422 0)
(0.0025751 -0.000657949 0)
(0.00269488 -0.000517901 0)
(0.00280987 -0.000363831 0)
(0.00290891 -0.000189089 0)
(0.00299947 -5.90756e-05 0)
(0.00309443 0.000108155 0)
(0.00310561 0.000312535 0)
(0.00297743 0.000308851 0)
(0.00298957 -4.66076e-05 0)
(0.00326877 -0.000189404 0)
(0.00349195 0.000136898 0)
(0.00342112 0.000663182 0)
(0.00321799 0.000841 0)
(0.00309729 0.000808592 0)
(0.00303995 0.000722758 0)
(0.00300552 0.000613946 0)
(0.00298048 0.000493288 0)
(0.00296176 0.000369806 0)
(0.00294887 0.000250401 0)
(0.00294237 0.000140091 0)
(0.00294329 4.30846e-05 0)
(0.00295154 -3.64321e-05 0)
(0.00296492 -9.60225e-05 0)
(0.00298058 -0.000136101 0)
(3.29372e-07 3.54677e-05 0)
(5.04384e-06 7.88513e-05 0)
(1.63798e-05 9.32206e-05 0)
(3.55154e-05 7.95554e-05 0)
(6.37859e-05 4.06216e-05 0)
(0.000102414 -1.97224e-05 0)
(0.000152333 -9.70169e-05 0)
(0.000214083 -0.000186553 0)
(0.000287755 -0.000283662 0)
(0.000372957 -0.00038399 0)
(0.000468823 -0.000483765 0)
(0.000574071 -0.000580051 0)
(0.000687126 -0.000670952 0)
(0.000806341 -0.000755731 0)
(0.000930299 -0.00083476 0)
(0.00105818 -0.0009092 0)
(0.00119021 -0.000980421 0)
(0.00132794 -0.00104864 0)
(0.00147352 -0.00111117 0)
(0.00162859 -0.00116356 0)
(0.00179426 -0.00120119 0)
(0.00197063 -0.00121771 0)
(0.00215467 -0.00120406 0)
(0.00233947 -0.00115306 0)
(0.00251712 -0.00106268 0)
(0.00267697 -0.000934515 0)
(0.00281068 -0.000785067 0)
(0.00292855 -0.000640001 0)
(0.00305376 -0.000489677 0)
(0.00318245 -0.000294837 0)
(0.00329922 -0.000164827 0)
(0.00344854 -1.87931e-05 0)
(0.00357327 0.000343952 0)
(0.00340786 0.000547491 0)
(0.00332653 -0.000262597 0)
(0.00364382 -0.000527699 0)
(0.00386289 5.78535e-05 0)
(0.00368058 0.000932883 0)
(0.00343918 0.000992798 0)
(0.00341031 0.000853326 0)
(0.00343589 0.000740851 0)
(0.00345239 0.000625745 0)
(0.00345735 0.000503476 0)
(0.00345541 0.000378747 0)
(0.00345034 0.000256642 0)
(0.00344618 0.00014137 0)
(0.00344755 3.75846e-05 0)
(0.00345644 -4.79112e-05 0)
(0.00347016 -0.000110646 0)
(0.00348474 -0.000151313 0)
(5.13155e-07 3.24734e-05 0)
(6.94804e-06 6.92523e-05 0)
(2.1577e-05 7.58441e-05 0)
(4.53539e-05 5.30887e-05 0)
(7.945e-05 3.81874e-06 0)
(0.000124998 -6.78879e-05 0)
(0.000182874 -0.000157238 0)
(0.000253572 -0.000259103 0)
(0.000337129 -0.00036834 0)
(0.000433071 -0.000480094 0)
(0.000540391 -0.000590112 0)
(0.000657574 -0.000695059 0)
(0.00078271 -0.000792808 0)
(0.000913683 -0.000882663 0)
(0.0010485 -0.000965407 0)
(0.00118571 -0.00104305 0)
(0.0013251 -0.00111836 0)
(0.00146837 -0.00119304 0)
(0.00161852 -0.00126451 0)
(0.00177874 -0.00132778 0)
(0.00195227 -0.00137763 0)
(0.00214116 -0.0014053 0)
(0.00234199 -0.00139689 0)
(0.00254494 -0.00134214 0)
(0.00274013 -0.0012388 0)
(0.00291039 -0.00108374 0)
(0.00303759 -0.000905171 0)
(0.00313424 -0.000752175 0)
(0.00323902 -0.000624391 0)
(0.00337946 -0.000445168 0)
(0.00351041 -0.000290668 0)
(0.00362743 -0.000209429 0)
(0.00387002 0.000103315 0)
(0.00400792 0.000810124 0)
(0.00392487 -0.000350677 0)
(0.00391393 -0.000710538 0)
(0.00386131 8.59597e-05 0)
(0.00360461 0.0013201 0)
(0.00357599 0.000925101 0)
(0.00378965 0.000770114 0)
(0.00389788 0.000689405 0)
(0.00395113 0.000598121 0)
(0.00397662 0.000492301 0)
(0.00398439 0.00037786 0)
(0.00398066 0.000260358 0)
(0.00397261 0.000143585 0)
(0.00396993 3.2863e-05 0)
(0.00397775 -5.93724e-05 0)
(0.00399122 -0.000124385 0)
(0.00400343 -0.000163903 0)
(6.62961e-07 2.8595e-05 0)
(8.52813e-06 5.72569e-05 0)
(2.59264e-05 5.47511e-05 0)
(5.36551e-05 2.17146e-05 0)
(9.27846e-05 -3.90021e-05 0)
(0.000144413 -0.000123137 0)
(0.000209419 -0.000225585 0)
(0.000288318 -0.000340806 0)
(0.00038117 -0.000463166 0)
(0.000487505 -0.000587267 0)
(0.000606272 -0.000708299 0)
(0.000735824 -0.000822416 0)
(0.000873974 -0.000927116 0)
(0.00101814 -0.00102157 0)
(0.00116562 -0.00110684 0)
(0.00131405 -0.00118573 0)
(0.00146219 -0.00126274 0)
(0.00161112 -0.00134181 0)
(0.00176417 -0.00142141 0)
(0.00192633 -0.00149707 0)
(0.00210433 -0.00156358 0)
(0.00230444 -0.00160829 0)
(0.00252384 -0.00160863 0)
(0.00274788 -0.00154969 0)
(0.00296533 -0.00143169 0)
(0.00314936 -0.00123467 0)
(0.00326615 -0.00100618 0)
(0.00333494 -0.000830006 0)
(0.00339413 -0.000714287 0)
(0.00346501 -0.000561018 0)
(0.0035221 -0.000357411 0)
(0.00345435 -0.000206644 0)
(0.00331095 -3.98313e-05 0)
(0.00378226 0.00032157 0)
(0.00408203 -0.000164383 0)
(0.00382223 -0.000656824 0)
(0.00357857 0.000362883 0)
(0.00384585 0.00103606 0)
(0.00436107 0.000749088 0)
(0.00441016 0.000678973 0)
(0.00444998 0.000630195 0)
(0.00449823 0.000559531 0)
(0.00453357 0.000473644 0)
(0.00454582 0.00037556 0)
(0.00453782 0.000268742 0)
(0.00451849 0.000153098 0)
(0.00450633 3.22237e-05 0)
(0.00451243 -7.01059e-05 0)
(0.00452651 -0.000136495 0)
(0.00453526 -0.000171915 0)
(7.71959e-07 2.40153e-05 0)
(9.71688e-06 4.33316e-05 0)
(2.92462e-05 3.06238e-05 0)
(6.00763e-05 -1.37319e-05 0)
(0.000103245 -8.69128e-05 0)
(0.000159875 -0.000184509 0)
(0.000230908 -0.000301133 0)
(0.00031695 -0.000430848 0)
(0.000418169 -0.000567531 0)
(0.000534211 -0.000705217 0)
(0.000664111 -0.000838472 0)
(0.000806245 -0.000962824 0)
(0.000958309 -0.00107521 0)
(0.00111738 -0.00117442 0)
(0.00128008 -0.00126147 0)
(0.00144294 -0.00133968 0)
(0.00160306 -0.00141513 0)
(0.00175972 -0.0014947 0)
(0.0019154 -0.00157936 0)
(0.00207606 -0.00166717 0)
(0.00225233 -0.00175516 0)
(0.00245875 -0.00182645 0)
(0.00269675 -0.00184227 0)
(0.00294436 -0.00177875 0)
(0.00319023 -0.00164952 0)
(0.00339406 -0.00138997 0)
(0.00349691 -0.00108119 0)
(0.00355095 -0.000885061 0)
(0.00360482 -0.000758235 0)
(0.00364838 -0.000605851 0)
(0.00368688 -0.000369173 0)
(0.00370488 -0.000100767 0)
(0.00372137 5.2031e-05 0)
(0.00387327 -0.000247332 0)
(0.00378126 0.000204313 0)
(0.00361337 -0.000762891 0)
(0.00380143 0.00038955 0)
(0.00413681 0.000398569 0)
(0.00448441 0.000564054 0)
(0.00472331 0.000572604 0)
(0.00489503 0.000540999 0)
(0.00502356 0.000492321 0)
(0.00510286 0.000437704 0)
(0.00513212 0.000370055 0)
(0.0051197 0.000286613 0)
(0.00508007 0.000177453 0)
(0.00505117 3.8602e-05 0)
(0.00505741 -8.15657e-05 0)
(0.00507586 -0.000147445 0)
(0.00508022 -0.000173117 0)
(8.34198e-07 1.8949e-05 0)
(1.04564e-05 2.80282e-05 0)
(3.13805e-05 4.27564e-06 0)
(6.4321e-05 -5.22417e-05 0)
(0.00011035 -0.000138768 0)
(0.000170671 -0.000250782 0)
(0.00024634 -0.000382644 0)
(0.000338115 -0.000528055 0)
(0.00044635 -0.000680424 0)
(0.000570906 -0.000833222 0)
(0.000711051 -0.000980369 0)
(0.000865378 -0.00111668 0)
(0.00103172 -0.00123837 0)
(0.00120709 -0.00134351 0)
(0.00138773 -0.00143267 0)
(0.00156914 -0.00150902 0)
(0.00174648 -0.00157949 0)
(0.00191601 -0.00165387 0)
(0.00207742 -0.0017373 0)
(0.00223501 -0.00183241 0)
(0.00240068 -0.00194336 0)
(0.00260176 -0.00205525 0)
(0.0028524 -0.00209857 0)
(0.00312257 -0.00202987 0)
(0.00339876 -0.00190032 0)
(0.00362917 -0.00156188 0)
(0.00370977 -0.00110964 0)
(0.0037569 -0.000962544 0)
(0.00385059 -0.000820449 0)
(0.00391248 -0.000651561 0)
(0.00398197 -0.000438573 0)
(0.00412923 -0.000219188 0)
(0.00439702 -0.000136406 0)
(0.0046365 -0.000304681 0)
(0.00477991 0.000374887 0)
(0.0043081 -0.000281004 0)
(0.00384274 0.000181004 0)
(0.00415032 3.72285e-05 0)
(0.00460965 0.000168682 0)
(0.00502748 0.000269469 0)
(0.00535057 0.000318599 0)
(0.00558098 0.000343105 0)
(0.00571275 0.000364477 0)
(0.00575529 0.000360134 0)
(0.00572958 0.000322731 0)
(0.00565308 0.000229225 0)
(0.00559685 5.39607e-05 0)
(0.00561037 -0.000100136 0)
(0.00564179 -0.000159893 0)
(0.00564003 -0.000164297 0)
(8.45185e-07 1.36374e-05 0)
(1.07031e-05 1.19682e-05 0)
(3.22118e-05 -2.33711e-05 0)
(6.61619e-05 -9.26554e-05 0)
(0.000113723 -0.000193225 0)
(0.00017622 -0.000320476 0)
(0.000254864 -0.000468555 0)
(0.000350599 -0.000630837 0)
(0.000464012 -0.000800306 0)
(0.000595247 -0.00096991 0)
(0.000743914 -0.00113295 0)
(0.000908998 -0.00128353 0)
(0.00108873 -0.00141702 0)
(0.00128048 -0.00153059 0)
(0.00148057 -0.00162388 0)
(0.00168416 -0.00169906 0)
(0.001885 -0.00176263 0)
(0.00207597 -0.00182585 0)
(0.00225177 -0.00189856 0)
(0.00241076 -0.0019884 0)
(0.00255847 -0.00211298 0)
(0.00273579 -0.00228427 0)
(0.00298322 -0.00237427 0)
(0.00328367 -0.00231599 0)
(0.00359369 -0.00217361 0)
(0.0037726 -0.00169134 0)
(0.00384048 -0.00113507 0)
(0.00396362 -0.0011015 0)
(0.00408168 -0.000910833 0)
(0.00414795 -0.000719088 0)
(0.00423751 -0.000557312 0)
(0.00439075 -0.000430721 0)
(0.00457553 -0.000402042 0)
(0.00465227 -0.000352446 0)
(0.00478572 0.000191304 0)
(0.00491656 0.000238974 0)
(0.00500204 6.97955e-05 0)
(0.00515834 -0.000207478 0)
(0.00534029 -0.000190556 0)
(0.00562777 -8.71254e-05 0)
(0.00594444 1.65235e-05 0)
(0.00621094 0.000138329 0)
(0.00635472 0.00027938 0)
(0.00639357 0.000358698 0)
(0.00635757 0.000388611 0)
(0.00623399 0.000326412 0)
(0.00614113 7.32497e-05 0)
(0.00617723 -0.000143122 0)
(0.00623381 -0.000178321 0)
(0.00621858 -0.000137964 0)
(8.0257e-07 8.33904e-06 0)
(1.04339e-05 -4.1801e-06 0)
(3.1677e-05 -5.13187e-05 0)
(6.54722e-05 -0.000133704 0)
(0.000113139 -0.000248785 0)
(0.000176156 -0.000391896 0)
(0.000255898 -0.000556997 0)
(0.000353506 -0.000737175 0)
(0.000469801 -0.000925042 0)
(0.000605219 -0.00111309 0)
(0.000759737 -0.00129408 0)
(0.000932795 -0.00146147 0)
(0.00112317 -0.00160983 0)
(0.00132885 -0.00173535 0)
(0.00154684 -0.00183653 0)
(0.00177286 -0.00191402 0)
(0.00200078 -0.00197245 0)
(0.00222174 -0.00202186 0)
(0.0024258 -0.00207485 0)
(0.00260215 -0.00213934 0)
(0.00273742 -0.00224851 0)
(0.00286244 -0.0024847 0)
(0.00307014 -0.00265762 0)
(0.0033571 -0.00261314 0)
(0.00363278 -0.00241839 0)
(0.0037741 -0.00177716 0)
(0.00402751 -0.00138793 0)
(0.00426496 -0.00121388 0)
(0.0042487 -0.000945397 0)
(0.00426301 -0.000778713 0)
(0.00435318 -0.000667484 0)
(0.0044914 -0.000584943 0)
(0.0046433 -0.000540401 0)
(0.00477759 -0.000416131 0)
(0.00501719 -0.000113048 0)
(0.00534517 -5.17449e-05 0)
(0.00562657 -0.000155573 0)
(0.00585321 -0.000333459 0)
(0.00605268 -0.000397508 0)
(0.00629144 -0.000363847 0)
(0.00656669 -0.000269749 0)
(0.00682182 -7.14314e-05 0)
(0.00696193 0.000215939 0)
(0.00703791 0.000331177 0)
(0.0070546 0.000473082 0)
(0.00688566 0.000496089 0)
(0.00673488 8.83138e-05 0)
(0.00679808 -0.000234284 0)
(0.0068757 -0.000196015 0)
(0.00681921 -7.26969e-05 0)
(7.06788e-07 3.31831e-06 0)
(9.65211e-06 -1.97328e-05 0)
(2.97832e-05 -7.85411e-05 0)
(6.22559e-05 -0.00017407 0)
(0.000108583 -0.000303866 0)
(0.000170407 -0.000463207 0)
(0.000249265 -0.000645877 0)
(0.000346469 -0.000844708 0)
(0.000463032 -0.00105198 0)
(0.000599627 -0.00125979 0)
(0.000756523 -0.00146045 0)
(0.000933523 -0.00164685 0)
(0.00112987 -0.00181291 0)
(0.00134416 -0.00195399 0)
(0.00157418 -0.00206753 0)
(0.00181674 -0.00215275 0)
(0.00206724 -0.00221225 0)
(0.0023188 -0.00225325 0)
(0.0025625 -0.00228693 0)
(0.00278798 -0.00231328 0)
(0.00295595 -0.00235857 0)
(0.00300151 -0.0025863 0)
(0.0030662 -0.00289798 0)
(0.00329814 -0.00291653 0)
(0.00365702 -0.00271856 0)
(0.00393534 -0.00195324 0)
(0.00413332 -0.00168673 0)
(0.00418988 -0.00118761 0)
(0.00412038 -0.000918458 0)
(0.00418576 -0.000850101 0)
(0.00435183 -0.000805269 0)
(0.00456191 -0.000749159 0)
(0.00477782 -0.000709783 0)
(0.00500364 -0.000616188 0)
(0.00531038 -0.000455031 0)
(0.00569386 -0.000423273 0)
(0.00605658 -0.000453934 0)
(0.00634949 -0.000564063 0)
(0.00658753 -0.000617288 0)
(0.00681881 -0.000608615 0)
(0.0070791 -0.000540005 0)
(0.00734304 -0.000291417 0)