/*--------------------------------*- C++ -*----------------------------------*\
| =========                 |                                                 |
| \\      /  F ield         | OpenFOAM: The Open Source CFD Toolbox           |
|  \\    /   O peration     | Version:  2.4.0                                 |
|   \\  /    A nd           | Web:      www.OpenFOAM.org                      |
|    \\/     M anipulation  |                                                 |
\*---------------------------------------------------------------------------*/
FoamFile
{
    version     2.0;
    format      ascii;
    class       volScalarField;
    location    "0.419";
    object      alpha.water;
}
// * * * * * * * * * * * * * * * * * * * * * * * * * * * * * * * * * * * * * //

dimensions      [0 0 0 0 0 0 0];

internalField   nonuniform List<scalar> 
10000
(
5.18635e-48
3.75378e-44
5.32508e-41
2.39479e-38
4.61609e-36
4.24111e-34
1.9477e-32
4.77378e-31
6.67608e-30
5.7225e-29
3.27271e-28
1.53205e-27
6.44254e-27
2.51411e-26
9.9399e-26
3.94213e-25
1.61133e-24
6.66467e-24
2.61052e-23
9.36692e-23
3.04371e-22
8.98599e-22
2.41884e-21
5.91769e-21
1.30628e-20
2.56873e-20
4.48619e-20
7.21368e-20
1.04145e-19
1.26351e-19
1.19266e-19
8.9261e-20
5.29213e-20
2.5986e-20
1.11088e-20
4.37216e-21
1.66175e-21
6.1489e-22
2.18683e-22
7.43865e-23
2.42781e-23
7.15741e-24
1.85473e-24
4.49589e-25
1.15101e-25
2.61666e-26
5.61198e-27
2.78684e-27
5.44809e-27
1.28958e-26
3.00421e-43
8.58991e-40
5.22752e-37
1.2171e-34
1.35271e-32
7.94883e-31
2.60852e-29
5.01536e-28
5.95204e-27
4.6148e-26
2.58985e-25
1.23708e-24
4.90474e-24
1.78026e-23
6.39428e-23
2.30029e-22
8.52021e-22
3.18803e-21
1.14011e-20
3.74206e-20
1.11217e-19
3.01355e-19
7.50627e-19
1.7171e-18
3.57927e-18
6.72277e-18
1.12018e-17
1.72888e-17
2.44598e-17
3.06675e-17
3.16236e-17
2.71918e-17
1.94218e-17
1.16616e-17
6.07301e-18
2.84133e-18
1.23191e-18
5.03743e-19
1.95886e-19
7.27895e-20
2.54349e-20
8.10633e-21
2.31003e-21
6.24451e-22
1.65534e-22
3.94684e-23
8.94484e-24
4.32418e-24
8.60014e-24
2.22964e-23
4.45868e-40
8.01444e-37
3.4539e-34
6.02332e-32
5.20259e-30
2.45881e-28
6.75436e-27
1.13384e-25
1.22358e-24
9.04713e-24
5.15558e-23
2.38082e-22
8.8977e-22
3.01327e-21
9.90922e-21
3.25878e-20
1.10469e-19
3.78239e-19
1.24847e-18
3.78681e-18
1.03995e-17
2.60942e-17
6.05449e-17
1.30145e-16
2.57483e-16
4.63923e-16
7.51814e-16
1.11094e-15
1.54939e-15
1.98122e-15
2.17523e-15
2.04135e-15
1.64779e-15
1.14164e-15
6.87647e-16
3.6911e-16
1.81073e-16
8.24567e-17
3.52854e-17
1.42968e-17
5.40518e-18
1.86867e-18
5.85771e-19
1.74579e-19
4.92774e-20
1.25694e-20
3.05923e-21
1.48554e-21
3.03058e-21
8.54045e-21
1.13097e-37
1.64584e-34
5.92063e-32
8.79781e-30
6.5837e-28
2.74048e-26
6.75912e-25
1.04397e-23
1.06976e-22
7.80732e-22
4.4303e-21
1.9663e-20
7.00395e-20
2.22641e-19
6.75682e-19
2.0421e-18
6.34574e-18
1.99138e-17
6.07216e-17
1.71293e-16
4.38238e-16
1.02455e-15
2.22378e-15
4.50946e-15
8.50057e-15
1.47383e-14
2.32522e-14
3.31968e-14
4.55375e-14
5.84874e-14
6.70327e-14
6.69837e-14
5.88745e-14
4.52636e-14
3.061e-14
1.84562e-14
1.00763e-14
5.05666e-15
2.37269e-15
1.04512e-15
4.2747e-16
1.60216e-16
5.50878e-17
1.79048e-17
5.42665e-18
1.49155e-18
3.91641e-19
1.89991e-19
3.88884e-19
1.16592e-18
9.59396e-36
1.27103e-32
4.186e-30
5.71653e-28
3.9426e-26
1.51843e-24
3.49556e-23
5.1201e-22
5.0934e-21
3.70156e-20
2.07806e-19
8.92868e-19
3.06682e-18
9.20899e-18
2.59897e-17
7.20627e-17
2.04156e-16
5.86586e-16
1.65889e-15
4.37518e-15
1.0475e-14
2.29418e-14
4.68092e-14
8.98414e-14
1.61766e-13
2.70499e-13
4.15686e-13
5.80641e-13
7.75256e-13
9.88895e-13
1.16595e-12
1.22146e-12
1.14389e-12
9.52036e-13
7.04198e-13
4.66573e-13
2.80274e-13
1.54633e-13
7.92514e-14
3.78869e-14
1.67623e-14
6.79673e-15
2.54659e-15
8.9618e-16
2.92298e-16
8.686e-17
2.45277e-17
1.14576e-17
2.21122e-17
6.80319e-17
3.78641e-34
4.8919e-31
1.56375e-28
2.06092e-26
1.36274e-24
5.00708e-23
1.10157e-21
1.55921e-20
1.5278e-19
1.1081e-18
6.09965e-18
2.55551e-17
8.52557e-17
2.43117e-16
6.39033e-16
1.62472e-15
4.19502e-15
1.10429e-14
2.8988e-14
7.1545e-14
1.61012e-13
3.3195e-13
6.39294e-13
1.16481e-12
2.00731e-12
3.24153e-12
4.85375e-12
6.68359e-12
8.65237e-12
1.0859e-11
1.29926e-11
1.41075e-11
1.38759e-11
1.22993e-11
9.7869e-12
7.01533e-12
4.57076e-12
2.73688e-12
1.52183e-12
7.88435e-13
3.78717e-13
1.67748e-13
6.88556e-14
2.63381e-14
9.2965e-15
3.00554e-15
9.16091e-16
3.96973e-16
6.4648e-16
1.93172e-15
8.39724e-33
1.11103e-29
3.60047e-27
4.74865e-25
3.0945e-23
1.10605e-21
2.35794e-20
3.25842e-19
3.16351e-18
2.29122e-17
1.22792e-16
5.02857e-16
1.62625e-15
4.41184e-15
1.08583e-14
2.54353e-14
5.9986e-14
1.44444e-13
3.50918e-13
8.11942e-13
1.72307e-12
3.35552e-12
6.11851e-12
1.06084e-11
1.75255e-11
2.73618e-11
3.99404e-11
5.40928e-11
6.83035e-11
8.38781e-11
1.00563e-10
1.11911e-10
1.14456e-10
1.06851e-10
9.04084e-11
6.93117e-11
4.84546e-11
3.1186e-11
1.86566e-11
1.04114e-11
5.40409e-12
2.6009e-12
1.16548e-12
4.86069e-13
1.87072e-13
6.59533e-14
2.17018e-14
8.68192e-15
1.06873e-14
2.9414e-14
1.18034e-31
1.66729e-28
5.68838e-26
7.74022e-24
5.07463e-22
1.78807e-20
3.73471e-19
5.09639e-18
4.90766e-17
3.47617e-16
1.8046e-15
7.15368e-15
2.23447e-14
5.8068e-14
1.34594e-13
2.92723e-13
6.31802e-13
1.38987e-12
3.11821e-12
6.75853e-12
1.35444e-11
2.4981e-11
4.32413e-11
7.1478e-11
1.13331e-10
1.71198e-10
2.43781e-10
3.24619e-10
4.02531e-10
4.83531e-10
5.73026e-10
6.46826e-10
6.81975e-10
6.64865e-10
5.93023e-10
4.8197e-10
3.58296e-10
2.45755e-10
1.56997e-10
9.38449e-11
5.24294e-11
2.734e-11
1.33281e-11
6.04995e-12
2.53743e-12
9.77803e-13
3.49422e-13
1.3401e-13
1.15464e-13
2.69309e-13
1.13265e-30
1.78566e-27
6.68446e-25
9.69076e-23
6.52023e-21
2.29646e-19
4.72493e-18
6.34406e-17
6.00172e-16
4.02887e-15
1.99416e-14
7.62414e-14
2.30405e-13
5.75833e-13
1.26548e-12
2.57145e-12
5.10603e-12
1.02578e-11
2.11777e-11
4.2955e-11
8.14063e-11
1.4252e-10
2.34632e-10
3.70139e-10
5.63313e-10
8.23177e-10
1.14383e-09
1.4989e-09
1.84367e-09
2.16995e-09
2.51935e-09
2.85831e-09
3.08366e-09
3.1185e-09
2.91281e-09
2.49175e-09
1.95418e-09
1.41658e-09
9.59168e-10
6.10539e-10
3.65689e-10
2.06091e-10
1.09107e-10
5.39166e-11
2.46722e-11
1.03993e-11
4.0502e-12
1.56254e-12
9.52891e-13
1.65238e-12
7.71529e-30
1.4482e-26
6.34878e-24
1.02984e-21
7.25324e-20
2.53351e-18
5.07177e-17
6.52677e-16
5.78019e-15
3.64415e-14
1.71678e-13
6.29831e-13
1.84345e-12
4.42491e-12
9.2548e-12
1.76923e-11
3.25614e-11
5.99382e-11
1.13668e-10
2.15403e-10
3.86182e-10
6.42682e-10
1.00749e-09
1.51704e-09
2.21385e-09
3.12411e-09
4.23082e-09
5.4585e-09
6.67561e-09
7.7806e-09
8.89927e-09
1.01031e-08
1.11053e-08
1.16062e-08
1.13064e-08
1.01218e-08
8.30552e-09
6.30077e-09
4.48049e-09
3.01566e-09
1.92736e-09
1.16949e-09
6.70461e-10
3.60149e-10
1.79807e-10
8.29646e-11
3.53536e-11
1.43218e-11
6.951e-12
7.77822e-12
3.99766e-29
1.01768e-25
5.86e-23
1.07346e-20
7.39441e-19
2.41535e-17
4.5292e-16
5.48448e-15
4.491e-14
2.65493e-13
1.19028e-12
4.16241e-12
1.16368e-11
2.68407e-11
5.37093e-11
9.73703e-11
1.67604e-10
2.84329e-10
4.95151e-10
8.75206e-10
1.48394e-09
2.34917e-09
3.50841e-09
5.03999e-09
7.03774e-09
9.55632e-09
1.25655e-08
1.5929e-08
1.93886e-08
2.27114e-08
2.60211e-08
2.97242e-08
3.34245e-08
3.62372e-08
3.69123e-08
3.45184e-08
2.93898e-08
2.30325e-08
1.69697e-08
1.19437e-08
8.08021e-09
5.24349e-09
3.23622e-09
1.88023e-09
1.01959e-09
5.13025e-10
2.38905e-10
1.04025e-10
4.65542e-11
3.31908e-11
2.34778e-28
8.43113e-25
5.91619e-22
1.03329e-19
6.48101e-18
1.95585e-16
3.43052e-15
3.83183e-14
2.91137e-13
1.60257e-12
6.73054e-12
2.21904e-11
5.91216e-11
1.31045e-10
2.51742e-10
4.35622e-10
7.07832e-10
1.11555e-09
1.78821e-09
2.94573e-09
4.72028e-09
7.1083e-09
1.01127e-08
1.38473e-08
1.84512e-08
2.39868e-08
3.04329e-08
3.77068e-08
4.54951e-08
5.41274e-08
6.38146e-08
7.4549e-08
8.74568e-08
1.00487e-07
1.01499e-07
1.04173e-07
9.41306e-08
7.46674e-08
5.60906e-08
4.05899e-08
2.86191e-08
1.95742e-08
1.28291e-08
7.96336e-09
4.64117e-09
2.52471e-09
1.27714e-09
6.02014e-10
2.73613e-10
1.4674e-10
1.55574e-27
7.4698e-24
5.50883e-21
8.71927e-19
4.92079e-17
1.37758e-15
2.2274e-14
2.25697e-13
1.56755e-12
8.01339e-12
3.13872e-11
9.71579e-11
2.45986e-10
5.23229e-10
9.66832e-10
1.60513e-09
2.48312e-09
3.67023e-09
5.44713e-09
8.36957e-09
1.2663e-08
1.8128e-08
2.45535e-08
3.20196e-08
4.05996e-08
5.02588e-08
6.1087e-08
7.34557e-08
8.70801e-08
1.05192e-07
1.31116e-07
1.62976e-07
1.7029e-07
1.84118e-07
3.27858e-07
3.63392e-07
3.26541e-07
2.49926e-07
1.82338e-07
1.30127e-07
9.21716e-08
6.42453e-08
4.34037e-08
2.80842e-08
1.72557e-08
1.00019e-08
5.44022e-09
2.77013e-09
1.33372e-09
6.53732e-10
9.2666e-27
7.14227e-23
4.85154e-20
6.62083e-18
3.32879e-16
8.38429e-15
1.20396e-13
1.10417e-12
7.04667e-12
3.34403e-11
1.21702e-10
3.53828e-10
8.49733e-10
1.73158e-09
3.08067e-09
4.92635e-09
7.30937e-09
1.02372e-08
1.42081e-08
2.04322e-08
2.91517e-08
3.96209e-08
5.10693e-08
6.34121e-08
7.63441e-08
8.96165e-08
1.03777e-07
1.20247e-07
1.38082e-07
1.68252e-07
2.22404e-07
2.02998e-07
2.71422e-07
6.27122e-07
5.25598e-07
7.46784e-07
7.19847e-07
4.92004e-07
4.08739e-07
3.25868e-07
2.45375e-07
1.7593e-07
1.21107e-07
8.03164e-08
5.12285e-08
3.12652e-08
1.81383e-08
9.94541e-09
5.15067e-09
2.57674e-09
7.75215e-26
7.30029e-22
3.87596e-19
4.33563e-17
1.91096e-15
4.21569e-14
5.40369e-13
4.49945e-12
2.65788e-11
1.16303e-10
3.94824e-10
1.08004e-09
2.46077e-09
4.80058e-09
8.23076e-09
1.27215e-08
1.82229e-08
2.44612e-08
3.22159e-08
4.36698e-08
5.87141e-08
7.56844e-08
9.29781e-08
1.10153e-07
1.25898e-07
1.39913e-07
1.54272e-07
1.71477e-07
1.87003e-07
2.1893e-07
2.90381e-07
3.71823e-07
4.53165e-07
4.96708e-07
1.11452e-06
5.56193e-06
4.85476e-06
1.46678e-06
8.10418e-07
5.81481e-07
4.42859e-07
3.30609e-07
2.38304e-07
1.66026e-07
1.11927e-07
7.28117e-08
4.5436e-08
2.70125e-08
1.52196e-08
8.1533e-09
9.96679e-25
6.6567e-21
2.59164e-18
2.39757e-16
9.0974e-15
1.75448e-13
2.01436e-12
1.53584e-11
8.33037e-11
3.38086e-10
1.07446e-09
2.77396e-09
6.0088e-09
1.12337e-08
1.85955e-08
2.78873e-08
3.8829e-08
5.06386e-08
6.44809e-08
8.33547e-08
1.05947e-07
1.29888e-07
1.53185e-07
1.7444e-07
1.9063e-07
2.00637e-07
2.11914e-07
2.26936e-07
2.35167e-07
2.37115e-07
2.3734e-07
5.37041e-07
4.49802e-07
8.44818e-07
1.12834e-05
1.61128e-05
1.61104e-05
1.4002e-05
1.59681e-06
7.45584e-07
5.07468e-07
4.01823e-07
3.17683e-07
2.42965e-07
1.79197e-07
1.27302e-07
8.68144e-08
5.65464e-08
3.49701e-08
2.04548e-08
1.2405e-23
4.94784e-20
1.43016e-17
1.10518e-15
3.56532e-14
6.0481e-13
6.25037e-12
4.36236e-11
2.17811e-10
8.23195e-10
2.45805e-09
6.00964e-09
1.24153e-08
2.23016e-08
3.57539e-08
5.22764e-08
7.13144e-08
9.18263e-08
1.1534e-07
1.44399e-07
1.75564e-07
2.07009e-07
2.37515e-07
2.62988e-07
2.81083e-07
2.7848e-07
2.84065e-07
2.96771e-07
3.04076e-07
3.06162e-07
3.15363e-07
3.4167e-07
3.76918e-07
3.84935e-07
7.57692e-06
1.61087e-05
1.61117e-05
8.61353e-06
6.57446e-07
6.34734e-07
5.46609e-07
4.55216e-07
3.74652e-07
3.04007e-07
2.41133e-07
1.85576e-07
1.37768e-07
9.81158e-08
6.65642e-08
4.26706e-08
1.25103e-22
2.97889e-19
6.53226e-17
4.17025e-15
1.15345e-13
1.73112e-12
1.62259e-11
1.03305e-10
4.77397e-10
1.68665e-09
4.74817e-09
1.10285e-08
2.18001e-08
3.77491e-08
5.88456e-08
8.43136e-08
1.13702e-07
1.4696e-07
1.85282e-07
2.28375e-07
2.70854e-07
3.12648e-07
3.51444e-07
3.78848e-07
4.08793e-07
3.66773e-07
3.52596e-07
3.78974e-07
3.79504e-07
3.655e-07
3.51837e-07
3.69967e-07
4.60886e-07
5.65761e-07
1.23746e-06
4.75462e-06
4.88056e-06
2.03259e-06
1.196e-06
8.38455e-07
6.31132e-07
5.03814e-07
4.16914e-07
3.49545e-07
2.92009e-07
2.40104e-07
1.92507e-07
1.4927e-07
1.10792e-07
7.76884e-08
9.87273e-22
1.44636e-18
2.44841e-16
1.29114e-14
3.09012e-13
4.13506e-12
3.5156e-11
2.0571e-10
8.84136e-10
2.93228e-09
7.81092e-09
1.72918e-08
3.28089e-08
5.49473e-08
8.36165e-08
1.17847e-07
1.58395e-07
2.08117e-07
2.66278e-07
3.2728e-07
3.84834e-07
4.4148e-07
4.79674e-07
4.94449e-07
5.59401e-07
3.69898e-07
1.46116e-06
4.89316e-07
4.43899e-07
4.10726e-07
3.82162e-07
3.64363e-07
3.73672e-07
4.39526e-07
5.40067e-07
6.28361e-07
6.20414e-07
5.46256e-07
5.25692e-07
5.05683e-07
4.78099e-07
4.43362e-07
4.05788e-07
3.68595e-07
3.32069e-07
2.94916e-07
2.56145e-07
2.15897e-07
1.74369e-07
1.32459e-07
5.99335e-21
5.63962e-18
7.45855e-16
3.29264e-14
6.89231e-13
8.29e-12
6.42536e-11
3.47948e-10
1.39894e-09
4.37785e-09
1.10856e-08
2.3489e-08
4.29455e-08
6.98191e-08
1.04105e-07
1.44486e-07
1.94632e-07
2.61202e-07
3.39136e-07
4.15806e-07
4.83779e-07
5.55829e-07
5.72463e-07
5.48718e-07
7.10363e-07
7.41515e-07
6.13753e-07
5.50163e-07
5.06897e-07
4.69032e-07
4.33136e-07
4.02616e-07
3.82645e-07
3.77817e-07
3.77722e-07
4.7883e-07
4.9064e-07
4.73338e-07
4.61937e-07
4.55783e-07
4.50507e-07
4.40717e-07
4.10005e-07
4.0192e-07
3.93192e-07
3.76348e-07
3.50576e-07
3.17029e-07
2.75607e-07
2.23984e-07
2.77161e-20
1.75783e-17
1.85004e-15
6.95497e-14
1.28874e-12
1.40424e-11
1.00188e-10
5.06017e-10
1.91649e-09
5.696e-09
1.37963e-08
2.81461e-08
4.98685e-08
7.91012e-08
1.16027e-07
1.58467e-07
2.14567e-07
2.92129e-07
3.79251e-07
4.55252e-07
5.08173e-07
5.97654e-07
5.73487e-07
1.20354e-06
9.88443e-07
8.14072e-07
1.02417e-06
7.96066e-07
6.32896e-07
5.52159e-07
5.02281e-07
4.62777e-07
4.3163e-07
4.1304e-07
4.09674e-07
4.15985e-07
4.30895e-07
4.51063e-07
4.71127e-07
4.87783e-07
5.00599e-07
4.42006e-07
1.09129e-06
4.2174e-07
4.24959e-07
4.17043e-07
3.983e-07
3.87704e-07
3.91889e-07
3.46206e-07
9.68415e-20
4.36741e-17
3.76028e-15
1.22633e-13
2.03876e-12
2.03321e-11
1.349e-10
6.41055e-10
2.30585e-09
6.56037e-09
1.53191e-08
3.03307e-08
5.24821e-08
8.17823e-08
1.18556e-07
1.59445e-07
2.16848e-07
2.92956e-07
3.70358e-07
4.25857e-07
4.29042e-07
1.69762e-06
7.0151e-07
7.57935e-07
3.71742e-06
6.73642e-06
6.78716e-06
1.48024e-06
8.40326e-07
6.36584e-07
5.45285e-07
4.94466e-07
4.607e-07
4.41921e-07
4.44035e-07
4.65875e-07
4.98113e-07
5.30959e-07
5.58402e-07
5.77688e-07
5.87984e-07
5.88296e-07
5.75906e-07
5.63181e-07
5.63534e-07
6.15268e-07
7.36102e-07
8.08877e-07
1.24443e-06
1.22088e-06
2.57743e-19
8.71146e-17
6.31671e-15
1.82192e-13
2.75582e-12
2.54644e-11
1.58764e-10
7.16604e-10
2.47019e-09
6.7883e-09
1.54225e-08
2.99122e-08
5.10136e-08
7.87318e-08
1.13374e-07
1.50748e-07
2.03299e-07
2.62814e-07
3.12003e-07
3.44081e-07
7.50683e-07
3.09385e-07
3.00633e-07
4.15913e-06
3.03866e-05
3.36113e-05
3.36098e-05
1.40051e-05
6.50186e-07
6.31363e-07
5.40009e-07
4.79881e-07
4.53931e-07
4.40596e-07
4.42865e-07
4.63059e-07
4.95388e-07
5.32086e-07
5.68772e-07
6.0354e-07
6.32016e-07
6.43645e-07
6.3395e-07
6.07625e-07
5.77404e-07
5.6006e-07
5.59168e-07
5.5965e-07
1.27821e-05
1.44101e-05
5.44919e-19
1.43379e-16
8.89148e-15
2.30461e-13
3.21697e-12
2.78872e-11
1.65141e-10
7.14997e-10
2.38454e-09
6.39009e-09
1.42623e-08
2.73622e-08
4.64296e-08
7.15635e-08
1.02922e-07
1.35594e-07
1.755e-07
2.09602e-07
2.22554e-07
8.79417e-07
3.32559e-07
3.22165e-07
2.9856e-07
1.77284e-05
3.36041e-05
3.3604e-05
3.36127e-05
3.01524e-05
2.75372e-06
9.51629e-07
1.39278e-06
4.28023e-07
4.23381e-07
4.20687e-07
4.2311e-07
4.35167e-07
4.56151e-07
4.83546e-07
5.19107e-07
5.67642e-07
6.33491e-07
6.81915e-07
6.98449e-07
6.66984e-07
6.15116e-07
5.71761e-07
5.5801e-07
9.67662e-06
1.50244e-05
1.50228e-05
9.03469e-19
1.97315e-16
1.07167e-14
2.52704e-13
3.28619e-12
2.69743e-11
1.53212e-10
6.42738e-10
2.0938e-09
5.52348e-09
1.2225e-08
2.34122e-08
3.98697e-08
6.18514e-08
8.93922e-08
1.15264e-07
1.39223e-07
1.60324e-07
3.58246e-07
2.20382e-07
3.80963e-07
3.15271e-07
2.98508e-07
1.81144e-05
3.36028e-05
3.36004e-05
3.36027e-05
2.91873e-05
2.61267e-06
8.79584e-07
4.45302e-07
4.00736e-07
3.97992e-07
4.03472e-07
4.08208e-07
4.13213e-07
4.18703e-07
4.25565e-07
4.38127e-07
4.4775e-07
4.47934e-07
1.11507e-06
7.32107e-07
7.02407e-07
6.50661e-07
5.96374e-07
5.64727e-07
9.57019e-07
1.39473e-05
1.50211e-05
1.19835e-18
2.2664e-16
1.10345e-14
2.4194e-13
2.96572e-12
2.3299e-11
1.28012e-10
5.24158e-10
1.68216e-09
4.40806e-09
9.75649e-09
1.87984e-08
3.23576e-08
5.08564e-08
7.43657e-08
9.07829e-08
1.09572e-07
2.09372e-07
1.45561e-07
2.17619e-07
2.31554e-07
3.02054e-07
2.98465e-07
1.3639e-06
2.62808e-05
3.35958e-05
3.35917e-05
8.76376e-06
3.27534e-07
3.098e-07
6.05162e-07
3.37425e-07
3.55046e-07
3.71266e-07
3.82228e-07
3.9705e-07
4.12087e-07
4.25698e-07
4.38728e-07
4.50598e-07
4.59109e-07
4.60255e-07
4.85553e-07
5.07059e-07
5.23934e-07
5.62808e-07
6.8817e-07
1.06388e-06
2.3066e-06
2.85678e-06
1.308e-18
2.20438e-16
9.84772e-15
2.02024e-13
2.37246e-12
1.80056e-11
9.66164e-11
3.8978e-10
1.24188e-09
3.25349e-09
7.24997e-09
1.4142e-08
2.47378e-08
3.95842e-08
5.88821e-08
6.82442e-08
1.23812e-07
9.45197e-08
1.4298e-07
1.46825e-07
3.13735e-07
2.89641e-07
2.89988e-07
3.00629e-07
8.80396e-07
4.34751e-07
1.35972e-06
3.60124e-07
4.77295e-07
2.99085e-07
2.8837e-07
3.17055e-07
3.19945e-07
8.74979e-07
3.28408e-07
3.59343e-07
3.8298e-07
3.99639e-07
4.15669e-07
4.32792e-07
4.52626e-07
4.66917e-07
4.77861e-07
4.86542e-07
4.94398e-07
4.95788e-07
4.98827e-07
5.4763e-07
7.7439e-07
8.6358e-07
1.15935e-18
1.82974e-16
7.66062e-15
1.47983e-13
1.67897e-12
1.24582e-11
6.58094e-11
2.63795e-10
8.40968e-10
2.21853e-09
5.0044e-09
9.92214e-09
1.76919e-08
2.89006e-08
4.38694e-08
6.25284e-08
6.34632e-08
9.176e-08
1.06164e-07
1.16679e-07
5.60066e-07
2.56457e-07
2.57202e-07
3.08491e-07
3.13727e-07
3.11509e-07
3.34914e-07
3.08351e-07
3.06926e-07
3.04971e-07
2.84523e-07
8.83309e-07
3.72241e-07
2.78284e-07
3.07148e-07
3.32862e-07
3.47574e-07
3.48417e-07
9.36591e-07
3.62281e-07
4.09747e-07
4.44549e-07
4.824e-07
5.45313e-07
6.67058e-07
5.94475e-07
5.15124e-07
5.8788e-07
5.39475e-07
5.17872e-07
8.39611e-19
1.27527e-16
5.15669e-15
9.5913e-14
1.04923e-12
7.68635e-12
4.03607e-11
1.61967e-10
5.20279e-10
1.38995e-09
3.18782e-09
6.4433e-09
1.17304e-08
1.95786e-08
3.03724e-08
4.42542e-08
5.98158e-08
6.70712e-08
7.24433e-08
1.22636e-07
1.09375e-07
1.70583e-07
1.93009e-07
3.33662e-07
3.25836e-07
3.2541e-07
4.33733e-07
2.38361e-07
3.23404e-07
2.86151e-07
2.83317e-07
2.35623e-07
5.88737e-07
2.68738e-07
2.90592e-07
3.07547e-07
2.98565e-07
3.62876e-07
3.05875e-07
3.38579e-07
3.69253e-07
3.91695e-07
4.17455e-07
5.57454e-07
1.9983e-06
3.99418e-06
7.06267e-06
2.24286e-06
9.31535e-07
6.04066e-07
4.97195e-19
7.43706e-17
2.96053e-15
5.42188e-14
5.79635e-13
4.21109e-12
2.21923e-11
8.98266e-11
2.92525e-10
7.94983e-10
1.85911e-09
3.8361e-09
7.1331e-09
1.2163e-08
1.92836e-08
2.87352e-08
3.92666e-08
4.54551e-08
5.57448e-08
4.36355e-08
1.06987e-07
1.14147e-07
1.31719e-07
3.09072e-07
2.45185e-07
5.64166e-07
1.66193e-07
1.7134e-07
4.04023e-07
2.36464e-07
2.23979e-07
2.333e-07
2.20187e-07
2.46776e-07
2.66291e-07
2.82026e-07
2.95099e-07
2.85288e-07
3.01415e-07
3.10316e-07
3.11434e-07
3.04094e-07
2.91674e-07
2.91689e-07
2.87083e-05
6.89988e-05
6.89946e-05
4.45668e-05
1.53907e-06
5.83428e-07
2.39547e-19
3.61537e-17
1.44261e-15
2.64117e-14
2.81977e-13
2.03908e-12
1.0885e-11
4.4773e-11
1.48588e-10
4.12229e-10
9.84766e-10
2.0756e-09
3.94155e-09
6.86399e-09
1.1119e-08
1.69417e-08
2.3367e-08
2.95388e-08
2.71689e-08
4.00843e-08
6.54021e-08
5.28586e-08
1.26178e-07
6.83747e-08
9.82825e-08
9.08134e-08
9.97914e-08
2.4859e-07
1.31557e-07
1.70434e-07
1.91654e-07
2.05302e-07
2.16975e-07
2.28882e-07
2.41533e-07
2.54791e-07
2.68275e-07
2.81362e-07
2.93659e-07
3.02678e-07
3.0522e-07
2.99076e-07
2.82309e-07
1.77749e-05
6.90037e-05
6.8999e-05
6.89922e-05
6.89922e-05
3.68176e-05
5.72913e-07
9.39623e-20
1.46262e-17
5.94237e-16
1.1029e-14
1.19055e-13
8.69382e-13
4.74019e-12
1.9968e-11
6.78978e-11
1.93065e-10
4.72464e-10
1.01949e-09
1.98114e-09
3.52979e-09
5.84973e-09
9.11757e-09
1.27527e-08
1.63547e-08
1.84922e-08
2.66011e-08
3.07379e-08
3.72042e-08
3.37797e-08
5.69482e-08
7.09871e-08
8.7014e-08
1.0573e-07
7.25086e-08
1.15617e-07
1.36231e-07
1.4867e-07
1.59866e-07
1.71956e-07
1.85525e-07
2.00643e-07
2.17088e-07
2.34378e-07
2.51863e-07
2.70547e-07
2.876e-07
2.97111e-07
2.96273e-07
2.82304e-07
3.02022e-07
6.28728e-05
6.89898e-05
6.89895e-05
6.90029e-05
1.27899e-05
5.59166e-07
2.99635e-20
4.90602e-18
2.06162e-16
3.93188e-15
4.34326e-14
3.25326e-13
1.8303e-12
7.98424e-12
2.8114e-11
8.29302e-11
2.1074e-10
4.7232e-10
9.52143e-10
1.75487e-09
2.99645e-09
4.79562e-09
6.91166e-09
9.23544e-09
1.17878e-08
1.29588e-08
1.8136e-08
2.33615e-08
3.02835e-08
3.90122e-08
4.77814e-08
5.10877e-08
5.43285e-08
6.41879e-08
7.52585e-08
8.72198e-08
9.94574e-08
1.12045e-07
1.25443e-07
1.4011e-07
1.56393e-07
1.74349e-07
1.93383e-07
2.12922e-07
2.37151e-07
2.67188e-07
2.88048e-07
2.9312e-07
2.822e-07
8.10014e-06
6.49542e-05
6.89619e-05
6.90012e-05
6.90072e-05
2.63566e-05
5.68135e-07
7.7496e-21
1.35814e-18
5.99647e-17
1.19271e-15
1.36829e-14
1.071e-13
6.36817e-13
2.96142e-12
1.13001e-11
3.66531e-11
1.02804e-10
2.52639e-10
5.50165e-10
1.07502e-09
1.91302e-09
3.14517e-09
4.73139e-09
6.65967e-09
8.94266e-09
1.13418e-08
1.47253e-08
1.83466e-08
2.26626e-08
2.7817e-08
3.29701e-08
3.72159e-08
4.13853e-08
4.66206e-08
5.32927e-08
6.11708e-08
6.99553e-08
7.95928e-08
9.03126e-08
1.02481e-07
1.1651e-07
1.32601e-07
1.49535e-07
1.6681e-07
1.87657e-07
2.33062e-07
2.81783e-07
2.9166e-07
2.82298e-07
2.60618e-07
7.07871e-06
5.07587e-05
5.59193e-05
2.08402e-05
3.85576e-07
5.57696e-07
1.61365e-21
3.09771e-19
1.46334e-17
3.09888e-16
3.78424e-15
3.21959e-14
2.18745e-13
1.25196e-12
6.18317e-12
2.5485e-11
8.57563e-11
2.38726e-10
5.60887e-10
1.14257e-09
2.07017e-09
3.41063e-09
5.18862e-09
7.39156e-09
9.96099e-09
1.29473e-08
1.63552e-08
2.00521e-08
2.37077e-08
2.75921e-08
3.15047e-08
3.54539e-08
3.96019e-08
4.40635e-08
4.88758e-08
5.40061e-08
5.94467e-08
6.52746e-08
7.17487e-08
7.93205e-08
8.85487e-08
9.98764e-08
1.11535e-07
1.24302e-07
1.25467e-07
1.16592e-07
3.11704e-07
2.88872e-07
2.71346e-07
2.60516e-07
2.35409e-07
2.35715e-07
2.35842e-07
2.36365e-07
3.73691e-07
4.58392e-07
2.64467e-22
5.77632e-20
3.01706e-18
7.0747e-17
9.75356e-16
1.06222e-14
1.16478e-13
1.10857e-12
7.62178e-12
3.71041e-11
1.34016e-10
3.8168e-10
8.95313e-10
1.80005e-09
3.20036e-09
5.15953e-09
7.69643e-09
1.07812e-08
1.43607e-08
1.83546e-08
2.26616e-08
2.71761e-08
3.17741e-08
3.63621e-08
4.08707e-08
4.52294e-08
4.93807e-08
5.33587e-08
5.72988e-08
6.11731e-08
6.48646e-08
6.81346e-08
7.09188e-08
7.37149e-08
7.73344e-08
8.25944e-08
8.85239e-08
9.78362e-08
1.07127e-07
1.11318e-07
1.14191e-07
1.51947e-07
1.85553e-07
2.11504e-07
2.31487e-07
2.4737e-07
2.67182e-07
2.93313e-07
3.14619e-07
3.39423e-07
3.48647e-23
9.05858e-21
5.48396e-19
1.54957e-17
3.08949e-16
7.85771e-15
1.71201e-13
2.08905e-12
1.5081e-11
7.24645e-11
2.53381e-10
6.95387e-10
1.57343e-09
3.05965e-09
5.27786e-09
8.2801e-09
1.20523e-08
1.65293e-08
2.16028e-08
2.71315e-08
3.29535e-08
3.89101e-08
4.48561e-08
5.06584e-08
5.62011e-08
6.13651e-08
6.60682e-08
7.04403e-08
7.49071e-08
7.93934e-08
8.36224e-08
8.6726e-08
8.74218e-08
8.6219e-08
8.44709e-08
8.36034e-08
8.45523e-08
8.68346e-08
9.11038e-08
9.83869e-08
1.09279e-07
1.23903e-07
1.41796e-07
1.62066e-07
1.83958e-07
2.07182e-07
2.37164e-07
2.76855e-07
3.24988e-07
3.70189e-07
3.83435e-24
1.25481e-21
9.92206e-20
4.7988e-18
2.82297e-16
1.61654e-14
3.96635e-13
4.64849e-12
3.15581e-11
1.43052e-10
4.73466e-10
1.23866e-09
2.68619e-09
5.03393e-09
8.4094e-09
1.28296e-08
1.82238e-08
2.44627e-08
3.13722e-08
3.87459e-08
4.63596e-08
5.40017e-08
6.14843e-08
6.86398e-08
7.53318e-08
8.14167e-08
8.68361e-08
9.19722e-08
9.80097e-08
1.04909e-07
1.12524e-07
1.19817e-07
1.20825e-07
1.16481e-07
1.09406e-07
1.02509e-07
9.72391e-08
9.41313e-08
9.34534e-08
9.54322e-08
1.00234e-07
1.0784e-07
1.1798e-07
1.29992e-07
1.4265e-07
1.5415e-07
1.63064e-07
1.68217e-07
1.68722e-07
4.269e-07
3.92418e-25
1.94534e-22
3.3719e-20
5.24657e-18
6.87645e-16
4.19666e-14
9.41184e-13
1.0078e-11
6.34437e-11
2.69442e-10
8.42198e-10
2.09715e-09
4.3538e-09
7.85764e-09
1.2709e-08
1.88557e-08
2.61429e-08
3.43579e-08
4.32489e-08
5.25401e-08
6.19461e-08
7.1209e-08
8.01051e-08
8.84364e-08
9.60501e-08
1.02777e-07
1.08621e-07
1.14361e-07
1.22623e-07
1.33566e-07
1.47798e-07
1.68555e-07
1.72814e-07
1.65821e-07
1.52206e-07
1.38087e-07
1.26471e-07
1.17576e-07
1.11071e-07
1.06756e-07
1.04681e-07
1.05073e-07
1.08199e-07
1.1424e-07
1.2313e-07
1.34384e-07
1.47009e-07
1.59361e-07
1.6985e-07
1.79702e-07
8.06263e-26
1.02177e-22
4.60486e-20
1.20226e-17
1.94923e-15
1.06292e-13
2.12562e-12
2.07245e-11
1.20916e-10
4.80808e-10
1.41976e-09
3.36421e-09
6.68357e-09
1.16151e-08
1.81915e-08
2.6257e-08
3.55514e-08
4.57694e-08
5.65811e-08
6.76469e-08
7.86314e-08
8.92414e-08
9.92234e-08
1.08344e-07
1.16428e-07
1.23272e-07
1.28965e-07
1.34688e-07
1.4497e-07
1.60672e-07
1.8373e-07
2.29828e-07
2.4305e-07
2.33127e-07
2.15008e-07
1.90527e-07
1.70598e-07
1.55532e-07
1.4402e-07
1.3495e-07
1.27733e-07
1.22286e-07
1.18892e-07
1.18025e-07
1.20197e-07
1.25832e-07
1.35168e-07
1.48225e-07
1.65091e-07
1.86331e-07
1.05078e-25
1.89878e-22
1.06959e-19
3.18955e-17
5.33998e-15
2.54659e-13
4.53521e-12
4.0365e-11
2.18197e-10
8.13269e-10
2.26939e-09
5.11692e-09
9.72621e-09
1.62776e-08
2.46968e-08
3.47019e-08
4.59232e-08
5.79702e-08
7.04484e-08
8.2974e-08
9.51825e-08
1.0676e-07
1.17432e-07
1.26908e-07
1.34988e-07
1.4143e-07
1.46388e-07
1.51078e-07
1.60922e-07
1.7973e-07
2.11597e-07
2.25023e-07
2.45851e-07
2.42635e-07
3.0805e-07
2.6246e-07
2.29306e-07
2.0551e-07
1.88191e-07
1.74966e-07
1.64068e-07
1.54579e-07
1.46316e-07
1.39585e-07
1.34969e-07
1.33132e-07
1.34633e-07
1.39829e-07
1.49111e-07
1.63326e-07
2.24647e-25
4.28352e-22
2.67853e-19
8.95788e-17
1.38614e-14
5.75521e-13
9.14905e-12
7.44758e-11
3.73356e-10
1.30532e-09
3.44303e-09
7.3874e-09
1.34354e-08
2.16607e-08
3.18573e-08
4.36165e-08
5.64787e-08
6.99933e-08
8.37293e-08
9.72884e-08
1.10306e-07
1.22468e-07
1.33483e-07
1.42969e-07
1.50729e-07
1.56508e-07
1.60399e-07
1.6233e-07
1.6513e-07
1.83285e-07
1.9445e-07
2.48399e-06
9.61734e-06
7.26834e-06
4.74094e-07
3.78869e-07
3.03385e-07
2.64698e-07
2.38831e-07
2.20868e-07
2.07185e-07
1.95412e-07
1.84431e-07
1.74017e-07
1.64505e-07
1.56537e-07
1.50847e-07
1.48116e-07
1.49113e-07
1.55076e-07
5.07718e-25
9.82322e-22
6.60676e-19
2.48961e-16
3.39915e-14
1.22756e-12
1.74884e-11
1.30281e-10
6.06595e-10
1.98994e-09
4.96274e-09
1.01348e-08
1.76417e-08
2.74159e-08
3.91201e-08
5.22452e-08
6.62825e-08
8.07606e-08
9.5248e-08
1.09367e-07
1.22786e-07
1.3521e-07
1.46344e-07
1.55622e-07
1.62994e-07
1.68312e-07
1.71191e-07
1.66472e-07
1.94696e-07
1.76094e-07
2.91985e-06
3.17111e-05
4.14632e-05
4.14671e-05
1.61958e-05
4.13921e-07
3.9327e-07
3.26637e-07
2.88605e-07
2.65006e-07
2.49293e-07
2.36955e-07
2.25501e-07
2.13914e-07
2.02112e-07
1.9051e-07
1.798e-07
1.70785e-07
1.64474e-07
1.62412e-07
1.22554e-24
2.39013e-21
1.67462e-18
6.70678e-16
7.86811e-14
2.475e-12
3.17017e-11
2.16408e-10
9.36706e-10
2.88368e-09
6.80198e-09
1.32274e-08
2.20537e-08
3.30668e-08
4.58265e-08
5.97721e-08
7.44e-08
8.92606e-08
1.03959e-07
1.18172e-07
1.31627e-07
1.44068e-07
1.55209e-07
1.64126e-07
1.71233e-07
1.77026e-07
1.79186e-07
1.80109e-07
1.77695e-07
1.7596e-07
1.96269e-05
4.14647e-05
4.1463e-05
4.14611e-05
3.92926e-05
3.89365e-06
3.76244e-07
3.67622e-07
3.24855e-07
2.98007e-07
2.82264e-07
2.71523e-07
2.62037e-07
2.51791e-07
2.40444e-07
2.2808e-07
2.15252e-07
2.02752e-07
1.91603e-07
1.83112e-07
3.15728e-24
6.14446e-21
4.33959e-18
1.72177e-15
1.71945e-13
4.72672e-12
5.45366e-11
3.41786e-10
1.37588e-09
3.97525e-09
8.87321e-09
1.64445e-08
2.62926e-08
3.80851e-08
5.13297e-08
6.54728e-08
8.00688e-08
9.47274e-08
1.09118e-07
1.22998e-07
1.36173e-07
1.48437e-07
1.59522e-07
1.67863e-07
1.74791e-07
1.83407e-07
1.84661e-07
1.84851e-07
1.81183e-07
1.75967e-07
1.84441e-05
4.14634e-05
4.14631e-05
4.14617e-05
3.86564e-05
4.12729e-06
3.75905e-07
3.67153e-07
3.31634e-07
3.11238e-07
3.01042e-07
2.93729e-07
2.883e-07
2.80726e-07
2.72934e-07
2.62605e-07
2.5046e-07
2.37242e-07
2.23762e-07
2.11335e-07
8.46252e-24
1.61491e-20
1.11687e-17
4.19438e-15
3.55014e-13
8.57161e-12
8.91688e-11
5.13722e-10
1.92368e-09
5.21709e-09
1.10284e-08
1.95019e-08
2.99542e-08
4.19881e-08
5.51169e-08
6.88488e-08
8.28355e-08
9.67683e-08
1.10398e-07
1.23573e-07
1.36186e-07
1.4808e-07
1.59015e-07
1.66412e-07
1.7297e-07
1.89441e-07
1.8744e-07
1.87496e-07
1.85108e-07
1.78198e-07
1.82547e-07
2.64708e-05
4.14656e-05
4.03974e-05
9.6905e-06
3.05056e-07
4.61283e-07
3.17006e-07
3.09271e-07
3.0522e-07
3.13524e-07
3.04883e-07
3.01678e-07
2.86679e-07
2.92928e-07
2.88866e-07
2.79967e-07
2.68628e-07
2.55738e-07
2.42255e-07
2.32438e-23
4.28807e-20
2.83841e-17
9.67403e-15
6.93675e-13
1.47589e-11
1.38765e-10
7.35404e-10
2.56186e-09
6.52426e-09
1.30756e-08
2.20991e-08
3.26823e-08
4.44253e-08
5.68967e-08
6.97039e-08
8.26128e-08
9.54029e-08
1.0791e-07
1.20072e-07
1.31859e-07
1.43161e-07
1.53761e-07
1.59693e-07
1.65637e-07
1.96891e-07
1.85658e-07
1.86896e-07
1.90123e-07
1.89689e-07
1.89912e-07
1.89914e-07
3.42309e-06
1.08138e-06
2.19322e-07
2.94407e-07
2.58075e-07
2.75653e-07
2.80718e-07
2.90029e-07
4.41734e-07
3.04041e-07
2.93057e-07
3.69684e-07
2.97387e-07
3.04101e-07
3.00332e-07
2.92494e-07
2.82305e-07
2.70485e-07
6.44378e-23
1.13641e-19
7.0774e-17
2.11127e-14
1.28579e-12
2.41695e-11
2.05752e-10
1.00333e-09
3.25221e-09
7.78288e-09
1.48105e-08
2.39734e-08
3.42314e-08
4.52309e-08
5.66276e-08
6.81418e-08
7.96488e-08
9.10089e-08
1.02135e-07
1.13044e-07
1.23765e-07
1.34217e-07
1.44208e-07
1.48139e-07
1.54857e-07
1.97124e-07
1.73796e-07
1.80086e-07
1.86348e-07
1.9057e-07
1.92852e-07
1.93995e-07
1.94039e-07
1.94411e-07
2.16378e-07
2.37629e-07
2.52266e-07
2.56633e-07
2.58645e-07
3.72433e-07
2.54692e-07
2.76156e-07
2.90633e-07
2.89801e-07
3.0766e-07
3.12569e-07
3.10809e-07
3.06479e-07
2.99414e-07
2.90664e-07
1.77465e-22
2.96426e-19
1.71666e-16
4.36326e-14
2.26951e-12
3.76989e-11
2.90915e-10
1.30548e-09
3.93896e-09
8.86766e-09
1.60527e-08
2.49476e-08
3.45003e-08
4.44292e-08
5.44867e-08
6.44992e-08
7.44293e-08
8.42039e-08
9.38012e-08
1.03294e-07
1.12748e-07
1.22099e-07
1.31164e-07
1.33184e-07
1.57914e-07
1.32708e-07
1.48089e-07
1.67941e-07
1.76763e-07
1.81933e-07
1.85462e-07
1.90473e-07
1.97138e-07
2.08252e-07
2.17662e-07
2.33831e-07
2.44067e-07
2.38108e-07
2.84589e-07
2.20673e-07
2.41338e-07
2.58362e-07
2.69539e-07
2.8392e-07
3.05289e-07
3.12355e-07
3.17109e-07
3.08906e-07
3.04935e-07
2.98877e-07