/*--------------------------------*- C++ -*----------------------------------*\
| =========                 |                                                 |
| \\      /  F ield         | OpenFOAM: The Open Source CFD Toolbox           |
|  \\    /   O peration     | Version:  2.4.0                                 |
|   \\  /    A nd           | Web:      www.OpenFOAM.org                      |
|    \\/     M anipulation  |                                                 |
\*---------------------------------------------------------------------------*/
FoamFile
{
    version     2.0;
    format      ascii;
    class       volScalarField;
    location    "0.029";
    object      p;
}
// * * * * * * * * * * * * * * * * * * * * * * * * * * * * * * * * * * * * * //

dimensions      [1 -1 -2 0 0 0 0];

internalField   nonuniform List<scalar> 
10000
(
0.0227499
0.0227516
0.0227514
0.0227492
0.022745
0.0227388
0.0227307
0.0227208
0.0227089
0.0226952
0.0226797
0.0226623
0.0226432
0.0226223
0.0225997
0.0225753
0.0225492
0.0225215
0.0224921
0.0224612
0.0224287
0.0223947
0.0223593
0.0223224
0.0222841
0.0222444
0.0222034
0.0221611
0.0221175
0.0220727
0.0220267
0.0219795
0.0219311
0.0218816
0.021831
0.0217793
0.0217265
0.0216726
0.0216178
0.0215621
0.0215054
0.0214478
0.0213894
0.02133
0.0212697
0.0212085
0.0211463
0.021083
0.0210186
0.0209529
0.0227468
0.0227486
0.0227486
0.0227463
0.0227421
0.0227358
0.0227277
0.0227176
0.0227056
0.0226917
0.0226759
0.0226583
0.0226388
0.0226175
0.0225944
0.0225696
0.022543
0.0225146
0.0224847
0.0224532
0.0224201
0.0223855
0.0223496
0.0223122
0.0222735
0.0222335
0.0221923
0.0221499
0.0221064
0.0220619
0.0220164
0.0219699
0.0219225
0.0218742
0.0218251
0.021775
0.0217241
0.0216724
0.0216198
0.0215664
0.0215122
0.021457
0.0214009
0.0213439
0.0212857
0.0212263
0.0211657
0.0211037
0.0210402
0.0209751
0.0227431
0.0227447
0.0227446
0.0227423
0.022738
0.0227316
0.0227233
0.022713
0.0227008
0.0226866
0.0226705
0.0226524
0.0226325
0.0226107
0.022587
0.0225615
0.0225342
0.0225052
0.0224746
0.0224423
0.0224085
0.0223732
0.0223365
0.0222985
0.0222592
0.0222187
0.0221772
0.0221346
0.0220911
0.0220468
0.0220017
0.0219559
0.0219093
0.0218622
0.0218144
0.021766
0.0217169
0.0216673
0.021617
0.021566
0.0215143
0.0214617
0.0214081
0.0213534
0.0212975
0.0212402
0.0211814
0.0211209
0.0210585
0.0209943
0.0227382
0.0227397
0.0227395
0.0227371
0.0227326
0.0227261
0.0227175
0.0227069
0.0226943
0.0226798
0.0226632
0.0226447
0.0226242
0.0226017
0.0225773
0.0225511
0.022523
0.0224932
0.0224616
0.0224285
0.0223938
0.0223576
0.0223201
0.0222812
0.0222412
0.0222001
0.022158
0.022115
0.0220713
0.022027
0.021982
0.0219366
0.0218907
0.0218444
0.0217977
0.0217507
0.0217033
0.0216556
0.0216074
0.0215586
0.0215092
0.021459
0.0214079
0.0213555
0.0213019
0.0212467
0.0211897
0.0211308
0.0210698
0.0210065
0.0227321
0.0227335
0.0227331
0.0227306
0.0227259
0.022719
0.0227102
0.0226992
0.0226863
0.0226712
0.0226541
0.0226349
0.0226137
0.0225905
0.0225653
0.0225382
0.0225092
0.0224784
0.0224458
0.0224116
0.0223758
0.0223386
0.0223
0.0222601
0.0222191
0.0221771
0.0221343
0.0220907
0.0220465
0.0220018
0.0219567
0.0219114
0.0218659
0.0218202
0.0217745
0.0217287
0.0216827
0.0216367
0.0215904
0.0215437
0.0214966
0.0214488
0.0214
0.0213501
0.0212987
0.0212456
0.0211906
0.0211335
0.0210739
0.0210119
0.0227248
0.0227261
0.0227256
0.0227228
0.0227178
0.0227107
0.0227014
0.0226901
0.0226766
0.022661
0.0226433
0.0226234
0.0226014
0.0225773
0.0225512
0.022523
0.0224929
0.0224609
0.0224272
0.0223917
0.0223547
0.0223161
0.0222762
0.022235
0.0221928
0.0221496
0.0221056
0.0220611
0.022016
0.0219707
0.0219252
0.0218797
0.0218342
0.0217889
0.0217438
0.0216989
0.0216542
0.0216097
0.0215652
0.0215206
0.0214756
0.0214301
0.0213837
0.0213362
0.0212871
0.0212363
0.0211833
0.021128
0.02107
0.0210093
0.0227164
0.0227175
0.0227169
0.0227138
0.0227085
0.022701
0.0226914
0.0226795
0.0226655
0.0226492
0.0226308
0.0226101
0.0225871
0.0225621
0.0225349
0.0225055
0.0224742
0.0224409
0.0224057
0.0223688
0.0223302
0.0222901
0.0222486
0.0222058
0.0221619
0.0221172
0.0220718
0.0220258
0.0219795
0.0219331
0.0218868
0.0218407
0.0217949
0.0217495
0.0217047
0.0216604
0.0216167
0.0215734
0.0215305
0.0214877
0.0214449
0.0214016
0.0213576
0.0213124
0.0212657
0.0212171
0.0211662
0.0211128
0.0210565
0.0209972
0.022707
0.0227079
0.022707
0.0227037
0.022698
0.0226902
0.02268
0.0226676
0.022653
0.022636
0.0226167
0.0225951
0.0225712
0.022545
0.0225166
0.0224859
0.0224531
0.0224183
0.0223815
0.0223428
0.0223025
0.0222605
0.022217
0.0221723
0.0221264
0.0220797
0.0220323
0.0219844
0.0219364
0.0218884
0.0218406
0.0217933
0.0217467
0.0217007
0.0216557
0.0216116
0.0215685
0.0215262
0.0214846
0.0214435
0.0214025
0.0213614
0.0213196
0.0212768
0.0212324
0.021186
0.0211373
0.0210858
0.0210312
0.0209734
0.0226967
0.0226973
0.0226961
0.0226924
0.0226864
0.0226781
0.0226674
0.0226544
0.0226391
0.0226213
0.0226011
0.0225785
0.0225535
0.0225261
0.0224964
0.0224642
0.0224299
0.0223933
0.0223547
0.022314
0.0222715
0.0222272
0.0221814
0.0221342
0.0220859
0.0220366
0.0219867
0.0219363
0.0218858
0.0218355
0.0217857
0.0217365
0.0216883
0.0216412
0.0215954
0.0215509
0.0215078
0.021466
0.0214254
0.0213856
0.0213464
0.0213072
0.0212676
0.0212271
0.021185
0.021141
0.0210944
0.0210448
0.020992
0.0209357
0.0226854
0.0226857
0.0226842
0.0226801
0.0226737
0.0226649
0.0226537
0.02264
0.0226239
0.0226053
0.0225842
0.0225606
0.0225344
0.0225057
0.0224744
0.0224407
0.0224045
0.022366
0.0223253
0.0222823
0.0222373
0.0221904
0.0221417
0.0220915
0.0220401
0.0219876
0.0219343
0.0218807
0.021827
0.0217735
0.0217207
0.0216688
0.0216182
0.0215691
0.0215217
0.0214761
0.0214324
0.0213906
0.0213504
0.0213116
0.0212738
0.0212364
0.0211989
0.0211607
0.0211211
0.0210794
0.0210351
0.0209877
0.0209368
0.0208822
0.0226732
0.0226731
0.0226712
0.0226668
0.0226599
0.0226506
0.0226387
0.0226244
0.0226076
0.0225881
0.022566
0.0225412
0.0225138
0.0224837
0.0224509
0.0224154
0.0223773
0.0223366
0.0222934
0.0222478
0.0221999
0.0221498
0.0220977
0.0220439
0.0219886
0.0219321
0.0218747
0.0218168
0.0217589
0.0217012
0.0216444
0.0215888
0.0215347
0.0214825
0.0214325
0.0213849
0.0213397
0.0212971
0.0212567
0.0212184
0.0211817
0.0211459
0.0211105
0.0210747
0.0210377
0.0209988
0.0209572
0.0209124
0.0208639
0.0208113
0.0226601
0.0226596
0.0226573
0.0226525
0.0226451
0.0226352
0.0226228
0.0226078
0.0225901
0.0225698
0.0225467
0.0225208
0.022492
0.0224604
0.0224259
0.0223885
0.0223483
0.0223052
0.0222593
0.0222106
0.0221593
0.0221055
0.0220494
0.0219912
0.0219311
0.0218697
0.0218071
0.0217439
0.0216806
0.0216176
0.0215554
0.0214947
0.0214359
0.0213793
0.0213255
0.0212746
0.021227
0.0211825
0.0211412
0.0211028
0.0210668
0.0210325
0.0209992
0.0209662
0.0209324
0.0208969
0.0208589
0.0208176
0.0207723
0.0207227
0.022646
0.0226453
0.0226425
0.0226371
0.0226292
0.0226188
0.0226058
0.0225901
0.0225717
0.0225505
0.0225263
0.0224993
0.0224692
0.022436
0.0223998
0.0223603
0.0223177
0.0222719
0.0222229
0.0221708
0.0221156
0.0220575
0.0219966
0.0219331
0.0218675
0.0218
0.0217311
0.0216613
0.0215912
0.0215214
0.0214524
0.0213851
0.0213198
0.0212574
0.0211982
0.0211427
0.0210912
0.0210438
0.0210006
0.0209614
0.0209257
0.0208929
0.0208621
0.0208324
0.0208028
0.0207721
0.0207392
0.020703
0.0206626
0.0206175
0.0226311
0.0226299
0.0226267
0.0226209
0.0226125
0.0226015
0.0225879
0.0225716
0.0225524
0.0225303
0.0225052
0.022477
0.0224455
0.0224108
0.0223726
0.022331
0.0222858
0.022237
0.0221846
0.0221286
0.022069
0.0220058
0.0219394
0.0218699
0.0217975
0.0217229
0.0216463
0.0215685
0.02149
0.0214117
0.0213341
0.0212583
0.0211848
0.0211146
0.0210483
0.0209864
0.0209296
0.020878
0.0208319
0.0207911
0.0207554
0.0207242
0.0206965
0.0206714
0.0206476
0.0206236
0.0205981
0.0205696
0.0205369
0.0204989
0.0226154
0.0226137
0.02261
0.0226037
0.0225948
0.0225834
0.0225692
0.0225523
0.0225324
0.0225095
0.0224834
0.0224541
0.0224212
0.0223848
0.0223447
0.0223007
0.0222528
0.0222008
0.0221446
0.0220842
0.0220196
0.0219509
0.0218781
0.0218015
0.0217213
0.0216382
0.0215525
0.021465
0.0213765
0.0212877
0.0211996
0.0211132
0.0210294
0.0209493
0.0208737
0.0208036
0.0207397
0.0206824
0.0206323
0.0205895
0.0205537
0.0205244
0.020501
0.0204821
0.0204664
0.0204522
0.0204375
0.0204205
0.0203992
0.0203723
0.0225987
0.0225966
0.0225923
0.0225856
0.0225763
0.0225644
0.0225498
0.0225323
0.0225118
0.0224882
0.0224612
0.0224308
0.0223966
0.0223585
0.0223164
0.02227
0.0222191
0.0221637
0.0221034
0.0220382
0.0219681
0.021893
0.021813
0.0217283
0.0216392
0.0215462
0.0214499
0.021351
0.0212504
0.0211491
0.0210482
0.0209488
0.0208523
0.0207599
0.0206729
0.0205925
0.0205196
0.0204553
0.0204002
0.0203548
0.0203191
0.0202928
0.0202751
0.0202649
0.0202606
0.02026
0.0202606
0.0202598
0.020255
0.020244
0.0225811
0.0225785
0.0225737
0.0225666
0.0225569
0.0225447
0.0225296
0.0225117
0.0224907
0.0224665
0.0224388
0.0224073
0.0223718
0.0223322
0.022288
0.0222392
0.0221853
0.0221261
0.0220615
0.0219911
0.0219149
0.0218328
0.0217448
0.0216511
0.0215519
0.0214476
0.0213389
0.0212267
0.021112
0.0209959
0.0208797
0.0207649
0.0206531
0.0205458
0.0204449
0.0203518
0.0202682
0.0201955
0.0201346
0.0200865
0.0200514
0.0200294
0.0200199
0.0200216
0.0200326
0.0200504
0.0200716
0.0200927
0.0201103
0.0201209
0.0225625
0.0225594
0.0225542
0.0225467
0.0225367
0.0225242
0.0225089
0.0224907
0.0224693
0.0224446
0.0224162
0.0223839
0.0223473
0.0223062
0.0222601
0.0222087
0.0221518
0.0220888
0.0220196
0.0219438
0.0218611
0.0217714
0.0216746
0.0215708
0.0214602
0.0213433
0.0212206
0.0210932
0.0209621
0.0208287
0.0206945
0.0205614
0.0204313
0.0203063
0.0201887
0.0200808
0.0199846
0.0199021
0.019835
0.0197844
0.0197512
0.0197354
0.0197368
0.0197542
0.0197854
0.019827
0.0198747
0.0199239
0.0199697
0.0200076
0.0225429
0.0225393
0.0225337
0.0225258
0.0225157
0.022503
0.0224876
0.0224692
0.0224477
0.0224227
0.0223939
0.0223609
0.0223233
0.0222808
0.022233
0.0221793
0.0221193
0.0220526
0.0219787
0.0218972
0.0218077
0.0217099
0.0216037
0.0214889
0.0213658
0.0212347
0.0210963
0.0209516
0.0208017
0.0206482
0.020493
0.0203384
0.0201867
0.0200408
0.0199036
0.0197782
0.0196675
0.0195742
0.0195005
0.0194481
0.0194182
0.0194111
0.0194268
0.0194642
0.019521
0.0195923
0.0196727
0.0197557
0.0198352
0.0199054
0.0225222
0.0225181
0.0225121
0.0225041
0.0224938
0.0224811
0.0224658
0.0224475
0.022426
0.0224009
0.0223719
0.0223385
0.0223003
0.0222567
0.0222073
0.0221515
0.0220887
0.0220184
0.0219399
0.0218527
0.0217562
0.02165
0.0215337
0.0214072
0.0212704
0.0211237
0.0209677
0.0208033
0.0206319
0.0204553
0.0202756
0.0200957
0.0199185
0.0197478
0.0195874
0.0194415
0.019314
0.0192086
0.0191282
0.019075
0.0190501
0.0190543
0.0190878
0.0191499
0.0192379
0.0193454
0.0194644
0.0195869
0.0197046
0.0198103
0.0225002
0.0224957
0.0224894
0.0224812
0.022471
0.0224585
0.0224434
0.0224254
0.0224042
0.0223794
0.0223505
0.022317
0.0222785
0.0222343
0.0221837
0.0221262
0.022061
0.0219874
0.0219046
0.0218118
0.0217084
0.0215935
0.0214668
0.0213277
0.0211761
0.0210122
0.0208365
0.02065
0.020454
0.0202505
0.0200421
0.0198322
0.0196246
0.0194241
0.0192359
0.0190655
0.0189183
0.0187992
0.0187119
0.0186586
0.0186405
0.0186582
0.0187126
0.0188042
0.0189298
0.01908
0.0192441
0.0194112
0.0195708
0.0197139
0.0224769
0.0224719
0.0224654
0.0224573
0.0224473
0.0224352
0.0224205
0.0224031
0.0223825
0.0223583
0.0223299
0.0222968
0.0222584
0.0222141
0.022163
0.0221043
0.0220372
0.0219608
0.0218742
0.0217763
0.0216661
0.0215427
0.0214051
0.0212528
0.0210853
0.0209025
0.0207047
0.0204929
0.0202685
0.0200336
0.0197913
0.0195454
0.019301
0.0190642
0.0188419
0.0186416
0.0184706
0.0183354
0.0182405
0.0181879
0.0181778
0.0182102
0.0182876
0.0184127
0.0185836
0.0187841
0.0189999
0.0192173
0.0194227
0.0196049
0.0224519
0.0224466
0.0224399
0.022432
0.0224224
0.0224109
0.0223971
0.0223805
0.0223609
0.0223377
0.0223103
0.0222781
0.0222405
0.0221966
0.0221457
0.0220867
0.0220185
0.0219402
0.0218505
0.021748
0.0216316
0.0214998
0.0213513
0.0211851
0.0210004
0.0207966
0.020574
0.0203332
0.0200757
0.0198038
0.0195209
0.0192315
0.0189419
0.01866
0.0183953
0.0181578
0.0179573
0.0178025
0.017699
0.0176475
0.0176456
0.0176917
0.0177912
0.0179528
0.0181797
0.01844
0.0187155
0.0189905
0.0192474
0.0194717
0.022425
0.0224194
0.0224128
0.0224052
0.0223963
0.0223856
0.0223729
0.0223576
0.0223394
0.0223177
0.0222919
0.0222613
0.0222251
0.0221826
0.0221327
0.0220743
0.0220061
0.0219269
0.0218351
0.0217291
0.0216071
0.0214673
0.0213079
0.0211272
0.0209238
0.0206968
0.0204459
0.0201717
0.0198754
0.0195595
0.0192278
0.0188856
0.01854
0.0182019
0.017884
0.0176003
0.0173632
0.0171846
0.0170714
0.0170217
0.0170265
0.0170811
0.0171968
0.0173948
0.0176929
0.018027
0.0183729
0.0187149
0.0190321
0.0193053
0.0223958
0.0223902
0.0223837
0.0223767
0.0223686
0.0223591
0.0223478
0.0223343
0.022318
0.0222984
0.0222748
0.0222465
0.0222127
0.0221724
0.0221246
0.022068
0.0220012
0.0219225
0.02183
0.0217216
0.0215951
0.0214479
0.0212776
0.0210817
0.0208581
0.0206052
0.0203221
0.020009
0.0196672
0.0192992
0.0189093
0.0185032
0.0180889
0.0176811
0.017297
0.0169562
0.016674
0.0164663
0.0163429
0.0162994
0.0163087
0.0163571
0.016473
0.0167062
0.0170958
0.0175268
0.0179567
0.0183775
0.0187673
0.0191003
0.0223641
0.0223584
0.0223523
0.0223461
0.0223392
0.0223312
0.0223218
0.0223104
0.0222966
0.0222797
0.022259
0.0222339
0.0222035
0.0221666
0.0221222
0.0220688
0.0220048
0.0219282
0.0218367
0.0217276
0.0215978
0.0214442
0.0212633
0.0210516
0.0208061
0.0205243
0.0202047
0.0198468
0.019452
0.0190231
0.0185648
0.0180829
0.0175854
0.0170919
0.0166262
0.0162164
0.0158778
0.0156322
0.0154988
0.0154699
0.0154962
0.0155235
0.0155482
0.0158338
0.0163786
0.0169352
0.0174583
0.0179705
0.0184485
0.0188549
0.0223294
0.0223239
0.0223183
0.0223131
0.0223076
0.0223015
0.0222944
0.0222857
0.0222749
0.0222614
0.0222446
0.0222236
0.0221976
0.0221654
0.0221259
0.0220774
0.0220181
0.0219456
0.021857
0.0217491
0.0216178
0.0214589
0.0212679
0.0210401
0.0207712
0.0204576
0.0200969
0.0196883
0.019233
0.0187343
0.018198
0.01763
0.0170324
0.0164336
0.015867
0.0153747
0.0149635
0.0146656
0.0145204
0.014528
0.0146294
0.014669
0.016219
0.0145536
0.0156858
0.016256
0.0168576
0.0174885
0.0180776
0.0185714
0.0222912
0.0222859
0.0222812
0.0222772
0.0222736
0.0222697
0.0222653
0.0222598
0.0222527
0.0222435
0.0222313
0.0222155
0.0221951
0.0221691
0.0221361
0.0220943
0.0220417
0.0219755
0.0218923
0.0217879
0.0216573
0.0214949
0.0212949
0.0210512
0.0207579
0.0204102
0.0200045
0.0195396
0.0190168
0.0184406
0.0178189
0.0171565
0.0164365
0.0157056
0.0150169
0.0144245
0.0139154
0.013533
0.0133764
0.0134188
0.013627
0.0135816
0.0132891
0.0162053
0.0216588
0.0160202
0.016089
0.0169238
0.017659
0.0182591
0.0222489
0.0222442
0.0222404
0.022238
0.0222365
0.0222353
0.0222341
0.0222324
0.0222297
0.0222254
0.0222189
0.0222093
0.0221959
0.0221775
0.0221528
0.0221198
0.0220763
0.022019
0.0219439
0.0218458
0.0217186
0.0215553
0.0213484
0.02109
0.0207727
0.02039
0.0199369
0.0194115
0.0188153
0.0181557
0.0174465
0.0166862
0.0158209
0.0149255
0.0140556
0.013346
0.0127108
0.0122222
0.0119934
0.0123254
0.0126934
0.0125864
0.0122991
0.0118202
0.0204827
0.0202828
0.0155226
0.0162246
0.017184
0.0179458
0.022202
0.0221979
0.0221954
0.022195
0.0221959
0.0221978
0.0222003
0.022203
0.0222053
0.0222068
0.0222068
0.0222047
0.0221996
0.0221905
0.0221759
0.022154
0.022122
0.0220765
0.0220125
0.0219241
0.0218039
0.0216433
0.021433
0.0211632
0.0208246
0.0204084
0.0199082
0.0193203
0.018646
0.0178995
0.0171183
0.0162765
0.0153197
0.0142585
0.0128297
0.0121372
0.0113443
0.0105648
0.0103736
0.0110564
0.0115327
0.0118576
0.0117508
0.0115617
0.0126381
0.0181243
0.0136276
0.0151057
0.016634
0.0177092
0.0221497
0.0221466
0.0221457
0.0221473
0.0221511
0.0221565
0.0221632
0.0221708
0.0221789
0.0221869
0.0221945
0.0222009
0.0222055
0.0222072
0.0222048
0.0221962
0.0221785
0.0221479
0.0220987
0.0220241
0.0219153
0.0217625
0.0215544
0.0212794
0.0209255
0.0204816
0.0199377
0.0192876
0.0185298
0.017679
0.0168018
0.0166301
0.0177808
0.0174349
0.0130377
0.0109533
0.00988597
0.0085443
0.007959
0.00937483
0.0107335
0.0113381
0.0111962
0.0101703
0.00872961
0.0146222
0.0162046
0.0138447
0.0164299
0.0179157
0.0220914
0.0220895
0.0220904
0.0220945
0.0221015
0.0221108
0.0221222
0.0221353
0.0221497
0.0221651
0.022181
0.022197
0.0222126
0.0222268
0.0222384
0.0222455
0.0222451
0.0222327
0.0222023
0.0221463
0.0220549
0.0219167
0.0217193
0.0214489
0.0210911
0.0206307
0.0200517
0.0193395
0.0184804
0.017478
0.0167077
0.0190881
0.0176951
0.0162651
0.0140302
0.0100307
0.00842227
0.00601656
0.00458012
0.00674336
0.0100719
0.0114821
0.0109046
0.00702451
0.00437508
0.0110379
0.0145055
0.0135479
0.0171591
0.0191209
0.0220265
0.0220259
0.0220289
0.0220358
0.0220463
0.0220599
0.0220764
0.0220954
0.0221168
0.0221402
0.0221653
0.022192
0.0222197
0.0222479
0.0222755
0.0223005
0.0223201
0.0223296
0.0223226
0.0222908
0.0222237
0.0221094
0.0219342
0.0216834
0.02134
0.020884
0.0202905
0.0195282
0.0185659
0.0173733
0.016683
0.0192559
0.0167796
0.0132392
0.00945229
0.00878906
0.00737504
0.00278636
-0.00147803
0.00283103
0.00999615
0.0136446
0.0116355
0.0036747
-0.000675296
0.00608524
0.00936205
0.014877
0.0196672
0.0219695
0.0219541
0.0219551
0.0219605
0.0219705
0.0219848
0.022003
0.0220249
0.0220504
0.0220792
0.0221111
0.0221462
0.0221843
0.0222252
0.0222687
0.0223139
0.0223591
0.0224016
0.0224366
0.0224577
0.0224563
0.0224219
0.0223426
0.022205
0.021994
0.0216914
0.0212727
0.0207027
0.0199324
0.0188927
0.0174627
0.0155346
0.0151564
0.0134135
0.0101355
0.00820929
0.00795916
0.00839852
0.00054835
-0.0113193
-0.00161433
0.0111603
0.01941
0.0190819
0.00767234
0.00164188
0.00654329
0.0148292
0.0223224
0.0260903
0.0257363
0.0218735
0.0218764
0.0218844
0.0218977
0.021916
0.0219391
0.0219669
0.0219991
0.0220357
0.0220767
0.0221221
0.0221723
0.0222273
0.0222871
0.0223514
0.0224187
0.0224866
0.0225506
0.0226045
0.0226401
0.0226477
0.0226162
0.022534
0.0223878
0.0221599
0.0218232
0.0213342
0.0206235
0.0195831
0.0180642
0.0159332
0.0133529
0.010291
0.00701675
0.00515376
0.00654615
0.0099314
0.0117708
0.00473871
0.0737682
0.0237515
0.0623938
0.0636741
0.0246625
-0.0310762
-0.0907678
-0.0747385
-0.00477274
0.0399902
0.0786478
0.021784
0.0217889
0.0217998
0.0218166
0.0218392
0.0218674
0.0219012
0.0219404
0.0219851
0.0220353
0.0220916
0.0221542
0.0222238
0.0223007
0.0223851
0.022476
0.0225715
0.0226677
0.0227589
0.0228378
0.0228963
0.0229257
0.0229179
0.0228633
0.0227475
0.0225435
0.0222013
0.0216329
0.0206906
0.0191391
0.016762
0.0133191
0.0084523
0.00196212
-0.00347757
0.00223533
0.0118955
0.0091678
0.0276931
0.156893
0.099196
0.165191
0.290393
0.554149
1.22331
6.55491
15.4637
23.0702
28.306
29.8859
0.0216848
0.021692
0.0217059
0.0217264
0.0217534
0.0217869
0.0218268
0.0218731
0.021926
0.0219857
0.0220527
0.022128
0.0222123
0.0223068
0.0224119
0.0225274
0.0226521
0.0227829
0.022915
0.0230427
0.02316
0.0232622
0.023346
0.0234084
0.0234413
0.0234229
0.0233052
0.0229992
0.022326
0.0209349
0.0184946
0.0143949
0.00729296
-0.00489034
-0.02194
-0.0133392
0.0247622
-0.0230467
0.00862782
-0.0422771
1.11751
5.52951
6.95705
18.473
35.1133
39.219
36.352
35.2252
36.0863
36.3031
0.0215752
0.0215848
0.0216018
0.0216261
0.0216577
0.0216965
0.0217426
0.021796
0.021857
0.021926
0.0220038
0.0220915
0.0221906
0.0223024
0.0224284
0.022569
0.0227237
0.0228905
0.0230659
0.0232461
0.0234281
0.0236115
0.0237994
0.0239973
0.0242075
0.0244208
0.0246073
0.0247127
0.0246127
0.0238725
0.0221046
0.0184039
0.0100928
-0.00954999
-0.0506948
-0.0492175
0.0119985
0.0322344
0.0530385
1.98454
13.2365
26.9956
39.09
40.8508
40.2132
39.1051
37.8166
37.1485
36.9984
36.8034
0.0214545
0.0214667
0.0214869
0.021515
0.0215511
0.0215952
0.0216474
0.0217078
0.0217767
0.0218547
0.0219429
0.0220426
0.0221558
0.0222846
0.022431
0.0225965
0.0227812
0.0229844
0.0232041
0.0234383
0.0236872
0.0239549
0.0242513
0.024591
0.0249896
0.0254573
0.0260048
0.0266246
0.0277537
0.0286001
0.0295779
0.0292659
0.0265003
0.0109745
-0.0490581
0.234715
-0.0015887
0.167711
2.2766
20.0109
34.3995
43.6592
42.9267
41.5634
40.5054
39.5143
38.655
38.0906
37.7556
37.4816
0.0213221
0.0213369
0.0213604
0.0213923
0.0214328
0.0214821
0.0215401
0.0216071
0.0216835
0.02177
0.0218679
0.0219789
0.0221055
0.0222503
0.0224162
0.0226054
0.0228194
0.0230583
0.0233214
0.0236086
0.0239226
0.0242715
0.0246703
0.025141
0.0257107
0.0264096
0.0272902
0.0288369
0.0361997
0.0411456
0.0435663
0.0457274
0.0578994
0.0829585
0.149963
0.231198
-0.659598
2.31538
24.06
46.9769
46.9014
44.3782
42.8507
41.6876
40.7454
39.8987
39.2213
38.7185
38.3633
38.1097
0.0211774
0.0211948
0.0212216
0.0212572
0.021302
0.0213561
0.0214197
0.0214929
0.0215762
0.0216705
0.0217772
0.0218985
0.0220371
0.0221965
0.0223803
0.0225917
0.0228331
0.0231057
0.0234099
0.0237467
0.0241206
0.0245411
0.0250249
0.0255932
0.0262676
0.0270841
0.0280637
0.0305162
0.0402155
0.0428944
0.0440458
0.055143
0.0710339
0.123495
0.279808
0.692949
-0.160398
24.1898
49.4103
47.6624
46.2273
44.2313
42.734
41.6976
40.865
40.1666
39.6089
39.1683
38.8459
38.6308
0.02102
0.02104
0.0210699
0.021109
0.0211578
0.0212165
0.0212851
0.021364
0.0214536
0.0215548
0.0216693
0.0217995
0.0219486
0.0221208
0.0223205
0.0225518
0.022818
0.0231211
0.0234624
0.0238438
0.02427
0.0247511
0.0253032
0.0259451
0.0266923
0.027557
0.0285253
0.0310863
0.0404816
0.0387628
0.0466993
0.0511537
0.0587297
0.0801004
0.463468
1.06239
0.220897
28.9514
48.0275
46.1536
45.0739
43.6133
42.4485
41.5913
40.9047
40.3297
39.8593
39.4866
39.2131
39.0395
0.0208494
0.0208719
0.0209047
0.0209471
0.0209996
0.0210624
0.0211356
0.0212195
0.0213145
0.0214217
0.0215428
0.0216804
0.0218384
0.0220214
0.0222346
0.0224829
0.0227706
0.0231003
0.0234739
0.0238931
0.0243625
0.0248916
0.0254946
0.0261869
0.0269793
0.0278745
0.0288663
0.0301434
0.0418586
0.0379658
0.044462
0.0468694
0.0461658
0.0468065
0.112901
3.81552
14.6442
38.2924
43.1066
43.5551
43.2654
42.648
41.968
41.3658
40.8395
40.3824
39.9997
39.6949
39.474
39.3375
0.0206653
0.0206901
0.0207256
0.020771
0.0208267
0.0208931
0.0209703
0.0210585
0.0211581
0.0212701
0.0213966
0.0215402
0.0217052
0.0218967
0.0221207
0.022383
0.0226884
0.0230402
0.0234401
0.0238895
0.0243922
0.0249558
0.0255924
0.0263142
0.0271277
0.0280348
0.0290171
0.0297566
0.0415144
0.0366131
0.0411744
0.0421111
0.0382298
0.0397898
0.114426
6.63166
33.1465
41.002
41.6166
41.9442
41.9417
41.7438
41.4199
41.051
40.6829
40.3429
40.05
39.8126
39.6434
39.5382
0.0204675
0.0204943
0.0205323
0.0205802
0.0206387
0.0207082
0.0207887
0.0208803
0.0209836
0.0210995
0.0212299
0.0213779
0.021548
0.0217458
0.0219778
0.0222506
0.0225697
0.0229384
0.0233581
0.0238294
0.0243543
0.024939
0.0255942
0.0263329
0.0271665
0.0281054
0.0291913
0.0307226
0.0362963
0.039515
0.0374578
0.0375461
0.041248
0.0582404
0.181343
4.21665
39.9512
40.2858
40.586
40.8435
40.9839
40.9989
40.8905
40.6995
40.4723
40.2435
40.036
39.8638
39.7371
39.6603
0.0202559
0.0202845
0.0203244
0.0203745
0.0204353
0.0205072
0.0205903
0.0206846
0.0207905
0.0209091
0.0210422
0.021193
0.0213663
0.021568
0.0218053
0.0220852
0.0224134
0.0227935
0.023226
0.0237098
0.0242446
0.0248338
0.025485
0.0262072
0.0270049
0.0278779
0.0288467
0.0299707
0.0311436
0.0313792
0.0335982
0.0306673
0.0323402
0.0419968
-0.142268
16.3574
37.7494
38.8028
39.511
39.923
40.2143
40.3757
40.4125
40.3556
40.2455
40.1131
39.9814
39.8667
39.7788
39.7249
0.0200304
0.0200603
0.0201019
0.0201536
0.0202161
0.0202899
0.0203748
0.0204709
0.0205785
0.0206986
0.0208331
0.0209853
0.0211599
0.0213634
0.0216031
0.0218865
0.0222197
0.0226055
0.0230434
0.0235303
0.0240628
0.0246406
0.0252677
0.0259475
0.0266749
0.0274291
0.0281736
0.0288179
0.0290553
0.0281097
0.0264254
0.0247234
0.0256459
-0.00797012
0.379011
32.7784
37.5087
37.946
38.6469
39.1927
39.5972
39.863
40.0044
40.0497
40.0312
39.9767
39.9079
39.8406
39.7856
39.7503
0.0197909
0.019822
0.0198646
0.0199174
0.0199811
0.020056
0.020142
0.020239
0.0203474
0.020468
0.0206027
0.0207547
0.020929
0.0211321
0.0213717
0.0216553
0.0219889
0.022375
0.0228115
0.0232927
0.0238119
0.0243656
0.0249543
0.0255788
0.0262296
0.0268758
0.0274591
0.0278767
0.0279362
0.0272348
0.0261578
0.0261169
0.0295404
-0.0173167
2.81431
35.3073
36.5386
37.2314
37.9985
38.6362
39.1216
39.4626
39.6792
39.7983
39.8477
39.8521
39.8315
39.8013
39.7723
39.7517
0.0195377
0.0195694
0.0196127
0.0196661
0.0197303
0.0198056
0.0198919
0.0199891
0.0200973
0.0202174
0.0203511
0.0205017
0.0206741
0.0208749
0.0211118
0.0213925
0.0217225
0.0221037
0.0225323
0.0229999
0.0234968
0.0240159
0.0245558
0.0251171
0.0256909
0.0262465
0.0267272
0.0270559
0.0271461
0.0269276
0.0271385
0.0297395
0.0383391
0.0126951
4.76842
30.6773
34.5838
36.3654
37.4668
38.2313
38.7833
39.176
39.4425
39.6106
39.7059
39.751
39.7643
39.7605
39.7502
39.7405
0.0192709
0.0193027
0.0193462
0.0193996
0.0194637
0.0195388
0.0196246
0.0197211
0.0198282
0.0199468
0.0200785
0.0202265
0.0203957
0.0205925
0.0208246
0.0210994
0.0214222
0.0217937
0.0222086
0.0226561
0.0231231
0.0235995
0.0240821
0.0245717
0.025062
0.0255248
0.0259051
0.0261345
0.0261625
0.0260292
0.0265218
0.0296613
0.0395415
0.0244021
7.23397
30.2
34.3288
36.1638
37.27
38.0362
38.5975
39.0078
39.2976
39.4914
39.6123
39.6805
39.7137
39.7258
39.7273
39.7249
0.020886
0.0208176
0.0207477
0.0206764
0.0206034
0.020529
0.0204531
0.0203758
0.0202974
0.0202179
0.0201377
0.0200569
0.0199759
0.019895
0.0198143
0.0197344
0.0196554
0.0195776
0.0195014
0.0194269
0.0193544
0.0192842
0.0192162
0.0191507
0.0190878
0.0190275
0.01897
0.0189152
0.018863
0.0188135
0.0187667
0.0187226
0.018681
0.0186421
0.0186057
0.0185717
0.0185402
0.0185109
0.0184839
0.0184591
0.0184364
0.0184159
0.0183974
0.018381
0.0183666
0.0183543
0.0183438
0.0183349
0.0183273
0.0183213
0.0209084
0.0208399
0.0207695
0.0206972
0.020623
0.020547
0.0204692
0.0203899
0.0203092
0.0202274
0.0201448
0.0200616
0.0199782
0.0198949
0.0198121
0.01973
0.019649
0.0195695
0.0194917
0.0194159
0.0193423
0.0192711
0.0192024
0.0191364
0.0190732
0.0190128
0.0189552
0.0189005
0.0188486
0.0187995
0.0187532
0.0187095
0.0186686
0.0186302
0.0185944
0.0185611
0.0185302
0.0185015
0.0184752
0.0184509
0.0184288
0.0184088
0.0183907
0.0183747
0.0183606
0.0183484
0.018338
0.0183291
0.0183216
0.0183156
0.020928
0.0208595
0.0207888
0.0207158
0.0206405
0.0205631
0.0204837
0.0204025
0.0203197
0.0202357
0.0201507
0.0200651
0.0199793
0.0198936
0.0198085
0.0197243
0.0196413
0.0195598
0.0194803
0.019403
0.0193281
0.0192559
0.0191864
0.0191198
0.0190562
0.0189956
0.0189381
0.0188835
0.0188319
0.0187832
0.0187374
0.0186943
0.018654
0.0186163
0.0185812
0.0185485
0.0185183
0.0184904
0.0184647
0.0184411
0.0184197
0.0184002
0.0183827
0.0183671
0.0183533
0.0183413
0.018331
0.0183223
0.0183148
0.0183089
0.0209409
0.0208728
0.0208021
0.0207287
0.0206528
0.0205744
0.0204937
0.020411
0.0203266
0.0202407
0.0201537
0.0200661
0.0199782
0.0198905
0.0198032
0.019717
0.0196321
0.0195489
0.0194678
0.019389
0.0193129
0.0192396
0.0191693
0.0191021
0.0190381
0.0189773
0.0189197
0.0188653
0.0188141
0.0187658
0.0187205
0.018678
0.0186383
0.0186013
0.0185669
0.0185349
0.0185054
0.0184782
0.0184533
0.0184304
0.0184096
0.0183907
0.0183737
0.0183586
0.0183451
0.0183335
0.0183234
0.0183148
0.0183075
0.0183018
0.0209471
0.0208796
0.0208091
0.0207357
0.0206595
0.0205804
0.0204989
0.0204151
0.0203293
0.0202419
0.0201534
0.020064
0.0199743
0.0198848
0.0197958
0.0197077
0.019621
0.0195361
0.0194533
0.0193732
0.0192958
0.0192214
0.0191503
0.0190826
0.0190182
0.0189572
0.0188997
0.0188455
0.0187946
0.0187468
0.0187021
0.0186603
0.0186213
0.018585
0.0185513
0.0185201
0.0184914
0.0184649
0.0184406
0.0184185
0.0183984
0.0183802
0.0183638
0.0183492
0.0183362
0.0183248
0.018315
0.0183067
0.0182996
0.0182939
0.0209456
0.0208789
0.0208089
0.0207358
0.0206594
0.0205801
0.020498
0.0204134
0.0203267
0.0202382
0.0201484
0.0200577
0.0199666
0.0198756
0.019785
0.0196954
0.0196071
0.0195207
0.0194365
0.0193549
0.0192764
0.019201
0.0191291
0.0190608
0.0189961
0.018935
0.0188776
0.0188237
0.0187732
0.018726
0.0186819
0.0186408
0.0186026
0.0185671
0.0185343
0.0185039
0.018476
0.0184503
0.0184268
0.0184054
0.018386
0.0183685
0.0183528
0.0183387
0.0183262
0.0183153
0.0183058
0.0182978
0.0182908
0.0182853
0.0209347
0.0208689
0.0207996
0.0207269
0.0206507
0.0205713
0.020489
0.0204041
0.0203168
0.0202278
0.0201372
0.0200457
0.0199537
0.0198616
0.01977
0.0196792
0.0195897
0.019502
0.0194166
0.0193339
0.0192543
0.019178
0.0191054
0.0190365
0.0189716
0.0189105
0.0188532
0.0187996
0.0187496
0.0187031
0.0186598
0.0186196
0.0185822
0.0185477
0.0185158
0.0184864
0.0184594
0.0184346
0.0184119
0.0183913
0.0183727
0.0183559
0.0183409
0.0183274
0.0183154
0.018305
0.0182959
0.0182881
0.0182814
0.018276
0.0209121
0.0208474
0.0207789
0.0207068
0.020631
0.0205519
0.0204698
0.0203849
0.0202976
0.0202085
0.0201178
0.0200261
0.0199338
0.0198414
0.0197493
0.019658
0.0195678
0.0194794
0.0193931
0.0193095
0.019229
0.019152
0.0190788
0.0190096
0.0189444
0.0188834
0.0188263
0.0187732
0.0187239
0.0186781
0.0186357
0.0185965
0.0185602
0.0185267
0.0184959
0.0184676
0.0184415
0.0184177
0.0183959
0.0183762
0.0183584
0.0183424
0.018328
0.0183152
0.0183039
0.018294
0.0182853
0.0182779
0.0182714
0.0182661
0.0208758
0.0208121
0.0207446
0.0206731
0.020598
0.0205195
0.0204378
0.0203534
0.0202667
0.0201781
0.020088
0.0199968
0.0199051
0.0198132
0.0197216
0.0196305
0.0195404
0.0194518
0.0193653
0.0192813
0.0192003
0.0191228
0.0190493
0.0189798
0.0189146
0.0188537
0.018797
0.0187445
0.0186958
0.018651
0.0186096
0.0185715
0.0185364
0.0185041
0.0184745
0.0184474
0.0184225
0.0183997
0.018379
0.0183602
0.0183433
0.018328
0.0183144
0.0183024
0.0182916
0.0182823
0.0182741
0.018267
0.0182607
0.0182556
0.0208237
0.0207612
0.0206947
0.0206241
0.0205498
0.020472
0.0203912
0.0203077
0.0202219
0.0201344
0.0200456
0.0199559
0.0198657
0.0197754
0.0196852
0.0195954
0.0195063
0.0194185
0.0193325
0.0192487
0.0191678
0.0190903
0.0190166
0.0189471
0.018882
0.0188214
0.0187652
0.0187134
0.0186656
0.0186218
0.0185816
0.0185447