/*--------------------------------*- C++ -*----------------------------------*\
| =========                 |                                                 |
| \\      /  F ield         | OpenFOAM: The Open Source CFD Toolbox           |
|  \\    /   O peration     | Version:  2.4.0                                 |
|   \\  /    A nd           | Web:      www.OpenFOAM.org                      |
|    \\/     M anipulation  |                                                 |
\*---------------------------------------------------------------------------*/
FoamFile
{
    version     2.0;
    format      ascii;
    class       surfaceScalarField;
    location    "0.108";
    object      phi;
}
// * * * * * * * * * * * * * * * * * * * * * * * * * * * * * * * * * * * * * //

dimensions      [0 3 -1 0 0 0 0];

internalField   nonuniform List<scalar> 
19800
(
5.95343e-13
-5.95344e-13
7.66288e-13
-1.75543e-13
2.08065e-13
5.53969e-13
-1.02051e-12
1.22752e-12
-2.82827e-12
1.80826e-12
-5.10363e-12
2.27587e-12
-7.72654e-12
2.62277e-12
-1.05788e-11
2.85131e-12
-1.35507e-11
2.97031e-12
-1.65447e-11
2.99187e-12
-1.94757e-11
2.92867e-12
-2.22703e-11
2.79247e-12
-2.48655e-11
2.59361e-12
-2.72074e-11
2.34105e-12
-2.925e-11
2.04244e-12
-3.09536e-11
1.70418e-12
-3.22844e-11
1.33161e-12
-3.32136e-11
9.29983e-13
-3.37174e-11
5.04502e-13
-3.37619e-11
4.49051e-14
-3.33501e-11
-4.11726e-13
-3.24725e-11
-8.77826e-13
-3.11354e-11
-1.33768e-12
-2.93593e-11
-1.77689e-12
-2.71778e-11
-2.18214e-12
-2.46371e-11
-2.54115e-12
-2.17936e-11
-2.84349e-12
-1.87124e-11
-3.0808e-12
-1.54656e-11
-3.24616e-12
-1.21317e-11
-3.33333e-12
-8.79546e-12
-3.33603e-12
-5.54773e-12
-3.24806e-12
-2.48451e-12
-3.06398e-12
2.94415e-13
-2.77984e-12
2.68823e-12
-2.39462e-12
4.59879e-12
-1.91116e-12
5.93489e-12
-1.33659e-12
6.61664e-12
-6.82215e-13
6.57941e-12
3.68667e-14
5.77358e-12
8.05858e-13
4.16786e-12
1.60643e-12
1.75059e-12
2.41861e-12
-1.47861e-12
3.23071e-12
-5.50544e-12
4.02795e-12
-1.03025e-11
4.7975e-12
-1.58299e-11
5.52679e-12
-2.20331e-11
6.20209e-12
-2.88413e-11
6.80728e-12
-3.61659e-11
7.32399e-12
7.73368e-12
-4.39002e-11
4.33303e-13
-1.03036e-12
-2.8652e-13
5.4404e-13
-2.51844e-12
2.78413e-12
-6.28529e-12
4.99308e-12
-1.13994e-11
6.92188e-12
-1.7613e-11
8.48898e-12
-2.46457e-11
9.65395e-12
-3.22062e-11
1.04091e-11
-4.00141e-11
1.07747e-11
-4.7813e-11
1.0787e-11
-5.53757e-11
1.04879e-11
-6.25035e-11
9.91769e-12
-6.90233e-11
9.1121e-12
-7.47843e-11
8.10176e-12
-7.96541e-11
6.91284e-12
-8.3517e-11
5.5682e-12
-8.62732e-11
4.08888e-12
-8.7838e-11
2.49567e-12
-8.81432e-11
8.09994e-13
-8.71525e-11
-9.46146e-13
-8.48282e-11
-2.73671e-12
-8.11758e-11
-4.53127e-12
-7.62238e-11
-6.29079e-12
-7.00296e-11
-7.97197e-12
-6.26822e-11
-9.52999e-12
-5.43033e-11
-1.092e-11
-4.50475e-11
-1.20985e-11
-3.51032e-11
-1.3024e-11
-2.46903e-11
-1.3658e-11
-1.40571e-11
-1.3966e-11
-3.47406e-12
-1.39193e-11
6.77419e-12
-1.34974e-11
1.63986e-11
-1.26898e-11
2.51146e-11
-1.14972e-11
3.26499e-11
-9.93109e-12
3.87498e-11
-8.01198e-12
4.31801e-11
-5.76753e-12
4.57289e-11
-3.23128e-12
4.62088e-11
-4.42619e-13
4.44635e-11
2.55226e-12
4.03693e-11
5.70243e-12
3.3844e-11
8.94601e-12
2.48555e-11
1.22208e-11
1.34252e-11
1.54585e-11
-3.66567e-13
1.85886e-11
-1.63796e-11
2.15388e-11
-3.44163e-11
2.42374e-11
-5.42243e-11
2.66142e-11
-7.55032e-11
2.86022e-11
3.01409e-11
-9.79119e-11
-2.04827e-13
-8.2979e-13
-2.31403e-12
2.65244e-12
-6.60882e-12
7.07897e-12
-1.2966e-11
1.13502e-11
-2.11415e-11
1.50969e-11
-3.08027e-11
1.81492e-11
-4.15607e-11
2.04104e-11
-5.30051e-11
2.18514e-11
-6.47343e-11
2.25013e-11
-7.63754e-11
2.24254e-11
-8.75925e-11
2.17025e-11
-9.80874e-11
2.04105e-11
-1.07596e-10
1.86194e-11
-1.15884e-10
1.63893e-11
-1.22744e-10
1.37727e-11
-1.27992e-10
1.08165e-11
-1.31469e-10
7.56648e-12
-1.33044e-10
4.06998e-12
-1.32614e-10
3.79537e-13
-1.30113e-10
-3.44784e-12
-1.25508e-10
-7.34207e-12
-1.18812e-10
-1.1228e-11
-1.10081e-10
-1.50222e-11
-9.94175e-11
-1.86357e-11
-8.69716e-11
-2.19757e-11
-7.29424e-11
-2.49486e-11
-5.75785e-11
-2.74611e-11
-4.11784e-11
-2.94224e-11
-2.4089e-11
-3.07457e-11
-6.70145e-12
-3.13524e-11
1.05564e-11
-3.11771e-11
2.72331e-11
-3.01749e-11
4.28677e-11
-2.83257e-11
5.70051e-11
-2.5636e-11
6.92092e-11
-2.2136e-11
7.90706e-11
-1.78739e-11
8.62119e-11
-1.29091e-11
9.02906e-11
-7.31003e-12
9.10033e-11
-1.15535e-12
8.80928e-11
5.46319e-12
8.13593e-11
1.24366e-11
7.06681e-11
1.96383e-11
5.59651e-11
2.69251e-11
3.72844e-11
3.41401e-11
1.47564e-11
4.11168e-11
-1.13896e-11
4.76849e-11
-4.08277e-11
5.36754e-11
-7.31417e-11
5.89275e-11
-1.07833e-10
6.32929e-11
6.66415e-11
-1.44335e-10
-8.12981e-13
-1.89799e-14
-4.41687e-12
6.25478e-12
-1.07288e-11
1.33906e-11
-1.95125e-11
2.01334e-11
-3.04362e-11
2.60199e-11
-4.30882e-11
3.08e-11
-5.69974e-11
3.43182e-11
-7.16677e-11
3.65202e-11
-8.66107e-11
3.74426e-11
-1.01368e-10
3.71804e-11
-1.1552e-10
3.58528e-11
-1.28691e-10
3.35797e-11
-1.40543e-10
3.047e-11
-1.50774e-10
2.66188e-11
-1.59111e-10
2.21098e-11
-1.65316e-10
1.70211e-11
-1.69181e-10
1.14305e-11
-1.70534e-10
5.42172e-12
-1.69242e-10
-9.12582e-13
-1.65223e-10
-7.46762e-12
-1.58442e-10
-1.41232e-11
-1.48922e-10
-2.07477e-11
-1.36745e-10
-2.71987e-11
-1.22054e-10
-3.33258e-11
-1.05055e-10
-3.89744e-11
-8.60141e-11
-4.39884e-11
-6.52609e-11
-4.82125e-11
-4.31872e-11
-5.14938e-11
-2.02463e-11
-5.36844e-11
3.05038e-12
-5.46478e-11
2.61419e-11
-5.42685e-11
4.84327e-11
-5.24666e-11
6.93131e-11
-4.92073e-11
8.81795e-11
-4.45032e-11
1.04451e-10
-3.84079e-11
1.17581e-10
-3.10042e-11
1.27063e-10
-2.2391e-11
1.32431e-10
-1.26791e-11
1.3327e-10
-1.99483e-12
1.29221e-10
9.51133e-12
1.20001e-10
2.16568e-11
1.05417e-10
3.42244e-11
8.53805e-11
4.69631e-11
5.99294e-11
5.95931e-11
2.92319e-11
7.18153e-11
-6.40471e-12
8.33218e-11
-4.65369e-11
9.38075e-11
-9.05927e-11
1.02982e-10
-1.37883e-10
1.10582e-10
1.16377e-10
-1.8762e-10
-1.37813e-12
1.35872e-12
-6.32392e-12
1.11985e-11
-1.45001e-11
2.15652e-11
-2.5506e-11
3.11379e-11
-3.89016e-11
3.9414e-11
-5.41922e-11
4.60892e-11
-7.08351e-11
5.09601e-11
-8.82675e-11
5.39516e-11
-1.05936e-10
5.511e-11
-1.23319e-10
5.45611e-11
-1.39934e-10
5.24659e-11
-1.55343e-10
4.89878e-11
-1.69152e-10
4.42769e-11
-1.80999e-10
3.84658e-11
-1.90564e-10
3.16739e-11
-1.97558e-10
2.40146e-11
-2.01732e-10
1.56041e-11
-2.02881e-10
6.56956e-12
-2.00846e-10
-2.94721e-12
-1.95529e-10
-1.27838e-11
-1.86893e-10
-2.27583e-11
-1.7497e-10
-3.26705e-11
-1.59862e-10
-4.23056e-11
-1.41748e-10
-5.14395e-11
-1.20879e-10
-5.98437e-11
-9.75765e-11
-6.72896e-11
-7.22364e-11
-7.35506e-11
-4.5324e-11
-7.84036e-11
-1.73763e-11
-8.16301e-11
1.09996e-11
-8.30226e-11
3.91324e-11
-8.24015e-11
6.63054e-11
-7.96404e-11
9.17809e-11
-7.46837e-11
1.14828e-10
-6.75504e-11
1.34743e-10
-5.83228e-11
1.50862e-10
-4.71239e-11
1.62564e-10
-3.4094e-11
1.69269e-10
-1.93854e-11
1.70445e-10
-3.17183e-12
1.65622e-10
1.43335e-11
1.54417e-10
3.28631e-11
1.36555e-10
5.20887e-11
1.11897e-10
7.16235e-11
8.04607e-11
9.10307e-11
4.24378e-11
1.09839e-10
-1.80036e-12
1.2756e-10
-5.17024e-11
1.43709e-10
-1.06547e-10
1.57826e-10
-1.65459e-10
1.69493e-10
1.78351e-10
-2.27433e-10
-1.84974e-12
3.20805e-12
-7.96992e-12
1.73158e-11
-1.7809e-11
3.14015e-11
-3.08121e-11
4.41385e-11
-4.64232e-11
5.50232e-11
-6.40616e-11
6.37263e-11
-8.31177e-11
7.00155e-11
-1.02972e-10
7.38057e-11
-1.23022e-10
7.51582e-11
-1.42694e-10
7.42322e-11
-1.61461e-10
7.1231e-11
-1.78837e-10
6.63622e-11
-1.94378e-10
5.98174e-11
-2.0768e-10
5.1768e-11
-2.18377e-10
4.23707e-11
-2.2614e-10
3.17774e-11
-2.30682e-10
2.01468e-11
-2.31767e-10
7.65434e-12
-2.29213e-10
-5.50074e-12
-2.22904e-10
-1.90916e-11
-2.12797e-10
-3.28634e-11
-1.98931e-10
-4.65359e-11
-1.81427e-10
-5.98098e-11
-1.60492e-10
-7.23754e-11
-1.36415e-10
-8.39209e-11
-1.09565e-10
-9.41385e-11
-8.03863e-11
-1.02727e-10
-4.93966e-11
-1.09391e-10
-1.71894e-11
-1.13836e-10
1.55598e-11
-1.15771e-10
4.8094e-11
-1.14936e-10
7.95935e-11
-1.11141e-10
1.09211e-10
-1.04301e-10
1.36104e-10
-9.44445e-11
1.59469e-10
-8.1688e-11
1.78546e-10
-6.62012e-11
1.92612e-10
-4.81617e-11
2.00976e-10
-2.77512e-11
2.02981e-10
-5.17754e-12
1.98025e-10
1.92902e-11
1.85594e-10
4.52955e-11
1.65303e-10
7.23821e-11
1.36928e-10
9.99994e-11
1.00443e-10
1.27515e-10
5.60414e-11
1.5424e-10
4.1425e-12
1.79458e-10
-5.46035e-11
2.02455e-10
-1.1933e-10
2.22552e-10
-1.88976e-10
2.39138e-10
2.51692e-10
-2.62318e-10
-2.24765e-12
5.45428e-12
-9.3488e-12
2.44135e-11
-2.06284e-11
4.2678e-11
-3.53932e-11
5.89007e-11
-5.29742e-11
7.26025e-11
-7.27058e-11
8.3457e-11
-9.39152e-11
9.12244e-11
-1.15933e-10
9.58234e-11
-1.38114e-10
9.73378e-11
-1.59847e-10
9.59642e-11
-1.80566e-10
9.19494e-11
-1.99749e-10
8.55445e-11
-2.16914e-10
7.69823e-11
-2.31618e-10
6.64726e-11
-2.43456e-10
5.42095e-11
-2.52063e-10
4.03845e-11
-2.57116e-10
2.52008e-11
-2.58347e-10
8.88554e-12
-2.55547e-10
-8.29922e-12
-2.48583e-10
-2.60548e-11
-2.37403e-10
-4.40432e-11
-2.22047e-10
-6.1892e-11
-2.02653e-10
-7.92046e-11
-1.79456e-10
-9.55739e-11
-1.5278e-10
-1.10597e-10
-1.23034e-10
-1.23884e-10
-9.06964e-11
-1.35064e-10
-5.63112e-11
-1.43775e-10
-2.04967e-11
-1.49649e-10
1.60373e-11
-1.52305e-10
5.24729e-11
-1.51372e-10
8.79043e-11
-1.46573e-10
1.21386e-10
-1.37783e-10
1.51981e-10
-1.2504e-10
1.78803e-10
-1.08511e-10
2.01022e-10
-8.84211e-11
2.17834e-10
-6.4974e-11
2.28433e-10
-3.83516e-11
2.32019e-10
-8.76293e-12
2.2782e-10
2.34901e-11
2.1515e-10
5.79657e-11
1.93467e-10
9.40654e-11
1.62424e-10
1.31042e-10
1.21915e-10
1.68024e-10
7.21054e-11
2.04049e-10
1.345e-11
2.38113e-10
-5.33113e-11
2.69216e-10
-1.27167e-10
2.96408e-10
-2.06865e-10
3.18834e-10
3.35777e-10
-2.90951e-10
-2.57044e-12
8.02244e-12
-1.04829e-11
3.23229e-11
-2.29943e-11
5.5187e-11
-3.93008e-11
7.52054e-11
-5.86318e-11
9.19325e-11
-8.02429e-11
1.05068e-10
-1.03402e-10
1.14384e-10
-1.27396e-10
1.19817e-10
-1.51542e-10
1.21483e-10
-1.75199e-10
1.1962e-10
-1.97769e-10
1.1452e-10
-2.18701e-10
1.06476e-10
-2.37481e-10
9.57625e-11
-2.53632e-10
8.26247e-11
-2.66715e-10
6.72929e-11
-2.76327e-10
4.99972e-11
-2.82112e-10
3.09851e-11
-2.83763e-10
1.05373e-11
-2.81043e-10
-1.10182e-11
-2.73795e-10
-3.33031e-11
-2.61953e-10
-5.58858e-11
-2.45558e-10
-7.82878e-11
-2.24765e-10
-9.99994e-11
-1.99838e-10
-1.20502e-10
-1.71143e-10
-1.39292e-10
-1.39125e-10
-1.55903e-10
-1.04283e-10
-1.69905e-10
-6.71633e-11
-1.80894e-10
-2.83635e-11
-1.88449e-10
1.14197e-11
-1.92089e-10
5.13382e-11
-1.91291e-10
9.04131e-11
-1.85648e-10
1.27607e-10
-1.74978e-10
1.61899e-10
-1.59333e-10
1.92344e-10
-1.38956e-10
2.18079e-10
-1.14156e-10
2.38241e-10
-8.51363e-11
2.5191e-10
-5.2021e-11
2.58103e-10
-1.49567e-11
2.55829e-10
2.57641e-11
2.44165e-10
6.96286e-11
2.2235e-10
1.1588e-10
1.89857e-10
1.63535e-10
1.46454e-10
2.11426e-10
9.22508e-11
2.58251e-10
2.77157e-11
3.02647e-10
-4.6327e-11
3.43258e-10
-1.28717e-10
3.78797e-10
-2.17995e-10
4.0811e-10
4.30235e-10
-3.12456e-10
-2.83259e-12
1.08529e-11
-1.14197e-11
4.09085e-11
-2.4992e-11
6.87585e-11
-4.266e-11
9.28731e-11
-6.35667e-11
1.12839e-10
-8.68977e-11
1.28399e-10
-1.11868e-10
1.39354e-10
-1.37724e-10
1.45673e-10
-1.63753e-10
1.47511e-10
-1.89286e-10
1.45153e-10
-2.13702e-10
1.38936e-10
-2.36423e-10
1.29197e-10
-2.56908e-10
1.16248e-10
-2.7465e-10
1.00367e-10
-2.89177e-10
8.18193e-11
-3.00049e-10
6.08685e-11
-3.06869e-10
3.78043e-11
-3.09292e-10
1.29602e-11
-3.07043e-10
-1.32678e-11
-2.99932e-10
-4.0415e-11
-2.87874e-10
-6.79444e-11
-2.7091e-10
-9.52535e-11
-2.49213e-10
-1.21698e-10
-2.2309e-10
-1.46627e-10
-1.92958e-10
-1.69425e-10
-1.59311e-10
-1.8955e-10
-1.22668e-10
-2.06549e-10
-8.35393e-11
-2.20023e-10
-4.24393e-11
-2.2955e-10
2.46366e-14
-2.34554e-10
4.30163e-11
-2.34284e-10
8.5494e-11
-2.28127e-10
1.26325e-10
-2.15809e-10
1.64402e-10
-1.9741e-10
1.9875e-10
-1.73303e-10
2.28536e-10
-1.43942e-10
2.52879e-10
-1.0948e-10
2.70735e-10
-6.98784e-11
2.80888e-10
-2.511e-11
2.8204e-10
2.46113e-11
2.72945e-10
7.87225e-11
2.52537e-10
1.36286e-10
2.20036e-10
1.96035e-10
1.75032e-10
2.56429e-10
1.17536e-10
3.15746e-10
4.80097e-11
3.72173e-10
-3.26418e-11
4.23909e-10
-1.23097e-10
4.69251e-10
-2.21666e-10
5.06677e-10
5.34924e-10
-3.26356e-10
-3.04941e-12
1.39013e-11
-1.22176e-11
5.00774e-11
-2.67309e-11
8.32727e-11
-4.56345e-11
1.11778e-10
-6.80003e-11
1.35206e-10
-9.29542e-11
1.53354e-10
-1.19665e-10
1.66065e-10
-1.47345e-10
1.73353e-10
-1.75254e-10
1.75419e-10
-2.02701e-10
1.726e-10
-2.29045e-10
1.6528e-10
-2.53686e-10
1.53838e-10
-2.7606e-10
1.38621e-10
-2.95633e-10
1.19939e-10
-3.11897e-10
9.80819e-11
-3.24375e-10
7.33449e-11
-3.32626e-10
4.60535e-11
-3.36257e-10
1.65901e-11
-3.34944e-10
-1.4582e-11
-3.28454e-10
-4.69056e-11
-3.16675e-10
-7.97246e-11
-2.99641e-10
-1.12289e-10
-2.77553e-10
-1.43787e-10
-2.50779e-10
-1.73402e-10
-2.19823e-10
-2.00382e-10
-1.85256e-10
-2.24117e-10
-1.47629e-10
-2.44176e-10
-1.07383e-10
-2.60269e-10
-6.48435e-11
-2.7209e-10
-2.03956e-11
-2.79003e-10
2.52017e-11
-2.79883e-10
7.08431e-11
-2.73768e-10
1.15277e-10
-2.60241e-10
1.57287e-10
-2.39419e-10
1.9589e-10
-2.11907e-10
2.30403e-10
-1.78455e-10
2.59994e-10
-1.39072e-10
2.83482e-10
-9.33685e-11
2.99326e-10
-4.09542e-11
3.05803e-10
1.81331e-11
3.01222e-10
8.33034e-11
2.841e-10
1.53407e-10
2.53316e-10
2.26817e-10
2.08209e-10
3.01535e-10
1.48649e-10
3.75307e-10
7.50649e-11
4.45757e-10
-1.15556e-11
5.10529e-10
-1.09709e-10
5.67403e-10
-2.17436e-10
6.14403e-10
6.49892e-10
-3.32405e-10
-3.23515e-12
1.7137e-11
-1.29334e-11
5.97777e-11
-2.83197e-11
9.86607e-11
-4.83892e-11
1.31848e-10
-7.21566e-11
1.58974e-10
-9.86978e-11
1.79895e-10
-1.27143e-10
1.94511e-10
-1.56674e-10
2.02884e-10
-1.8653e-10
2.05275e-10
-2.16002e-10
2.02071e-10
-2.44432e-10
1.93709e-10
-2.71203e-10
1.80609e-10
-2.9573e-10
1.63147e-10
-3.17453e-10
1.4166e-10
-3.35833e-10
1.1646e-10
-3.50351e-10
8.78606e-11
-3.60516e-10
5.62159e-11
-3.65876e-10
2.19487e-11
-3.66043e-10
-1.44146e-11
-3.60728e-10
-5.22212e-11
-3.49773e-10
-9.06803e-11
-3.332e-10
-1.28862e-10
-3.11248e-10
-1.6574e-10
-2.84378e-10
-2.00272e-10
-2.53237e-10
-2.31523e-10
-2.18547e-10
-2.58807e-10
-1.80931e-10
-2.81792e-10
-1.40733e-10
-3.00469e-10
-9.79232e-11
-3.14901e-10
-5.24149e-11
-3.24513e-10
-4.79819e-12
-3.27499e-10
4.37443e-11
-3.2231e-10
9.17855e-11
-3.08282e-10
1.37912e-10
-2.85545e-10
1.81145e-10
-2.55139e-10
2.21173e-10
-2.18485e-10
2.57335e-10
-1.75236e-10
2.88284e-10
-1.24319e-10
3.12001e-10
-6.46712e-11
3.26166e-10
3.9676e-12
3.28479e-10
8.09886e-11
3.16911e-10
1.64974e-10
2.89888e-10
2.5384e-10
2.46417e-10
3.45005e-10
1.86173e-10
4.35551e-10
1.09529e-10
5.224e-10
1.75602e-11
6.02497e-10
-8.80157e-11
6.72978e-10
-2.04917e-10
7.31303e-10
7.7538e-10
-3.30405e-10
-3.40285e-12
2.05413e-11
-1.36142e-11
6.99912e-11
-2.985e-11
1.14898e-10
-5.10646e-11
1.53064e-10
-7.62267e-11
1.84137e-10
-1.04371e-10
2.0804e-10
-1.34595e-10
2.24735e-10
-1.66058e-10
2.34347e-10
-1.97981e-10
2.37197e-10
-2.29642e-10
2.33732e-10
-2.60371e-10
2.24438e-10
-2.89538e-10
2.09775e-10
-3.16543e-10
1.90151e-10
-3.40803e-10
1.65919e-10
-3.61747e-10
1.37402e-10
-3.78814e-10
1.04925e-10
-3.91454e-10
6.88549e-11
-3.99146e-10
2.96409e-11
-4.01422e-10
-1.21382e-11
-3.97907e-10
-5.57359e-11
-3.88375e-10
-1.00212e-10
-3.72821e-10
-1.44417e-10
-3.51524e-10
-1.87037e-10
-3.25088e-10
-2.26709e-10
-2.94394e-10
-2.62217e-10
-2.60443e-10
-2.92758e-10
-2.24045e-10
-3.18191e-10
-1.85448e-10
-3.39066e-10
-1.44012e-10
-3.56338e-10
-9.87123e-11
-3.69812e-10
-4.98295e-11
-3.76381e-10
1.32053e-12
-3.73459e-10
5.30446e-11
-3.60005e-10
1.03517e-10
-3.36018e-10
1.51685e-10
-3.03308e-10
1.98097e-10
-2.64897e-10
2.42455e-10
-2.19593e-10
2.83163e-10
-1.65027e-10
3.17463e-10
-9.89717e-11
3.42198e-10
-2.07687e-11
3.54266e-10
6.89196e-11
3.50934e-10
1.68305e-10
3.30056e-10
2.74718e-10
2.90216e-10
3.84845e-10
2.30829e-10
4.94937e-10
1.52191e-10
6.01037e-10
5.54696e-11
6.99217e-10
-5.73569e-11
7.85804e-10
-1.83614e-10
8.57559e-10
9.11839e-10
-3.20075e-10
-3.56417e-12
2.4107e-11
-1.42947e-11
8.07226e-11
-3.13877e-11
1.31991e-10
-5.37627e-11
1.75439e-10
-8.03498e-11
2.10725e-10
-1.10149e-10
2.3784e-10
-1.42233e-10
2.56818e-10
-1.75742e-10
2.67855e-10
-2.09883e-10
2.71338e-10
-2.43929e-10
2.67778e-10
-2.77204e-10
2.57713e-10
-3.09069e-10
2.41641e-10
-3.38915e-10
2.19996e-10
-3.6614e-10
1.93143e-10
-3.90147e-10
1.61407e-10
-4.1033e-10
1.25107e-10
-4.26078e-10
8.46034e-11
-4.36787e-10
4.03511e-11
-4.41884e-10
-7.04033e-12
-4.40876e-10
-5.67428e-11
-4.33429e-10
-1.07659e-10
-4.19472e-10
-1.58374e-10
-3.99318e-10
-2.07191e-10
-3.73757e-10
-2.5227e-10
-3.44041e-10
-2.91932e-10
-3.11666e-10
-3.25134e-10
-2.7786e-10
-3.51997e-10
-2.42887e-10
-3.74039e-10
-2.05144e-10
-3.94081e-10
-1.6182e-10
-4.13136e-10
-1.12683e-10
-4.25518e-10
-5.92684e-11
-4.26873e-10
-3.66074e-12
-4.15612e-10
5.14794e-11
-3.91157e-10
1.04656e-10
-3.56484e-10
1.58397e-10
-3.18637e-10
2.12992e-10
-2.74188e-10
2.6636e-10
-2.18397e-10
3.14567e-10
-1.4718e-10
3.53306e-10
-5.95077e-11
3.78467e-10
4.37571e-11
3.86467e-10
1.60305e-10
3.74457e-10
2.86728e-10
3.40494e-10
4.18806e-10
2.83664e-10
5.51766e-10
2.04148e-10
6.80553e-10
1.03221e-10
8.00144e-10
-1.68269e-11
9.0585e-10
-1.52839e-10
9.93569e-10
1.05998e-09
-3.00986e-10
-3.72873e-12
2.78363e-11
-1.49961e-11
9.19893e-11
-3.2972e-11
1.49966e-10
-5.65436e-11
1.9901e-10
-8.46069e-11
2.38788e-10
-1.16133e-10
2.69366e-10
-1.50172e-10
2.90857e-10
-1.85853e-10
3.03535e-10
-2.22377e-10
3.07862e-10
-2.59014e-10
3.04416e-10
-2.95089e-10
2.93789e-10
-3.29966e-10
2.76519e-10
-3.63029e-10
2.5306e-10
-3.93669e-10
2.23784e-10
-4.21265e-10
1.89003e-10
-4.45174e-10
1.49016e-10
-4.64723e-10
1.04153e-10
-4.79212e-10
5.48426e-11
-4.8794e-10
1.68885e-12
-4.90251e-10
-5.44305e-11
-4.85639e-10
-1.12271e-10
-4.73893e-10
-1.7012e-10
-4.5531e-10
-2.25775e-10
-4.30886e-10
-2.76693e-10
-4.02402e-10
-3.20416e-10
-3.72185e-10
-3.55351e-10
-3.42325e-10
-3.81857e-10
-3.13442e-10
-4.02922e-10
-2.82621e-10
-4.24903e-10
-2.4372e-10
-4.52036e-10
-1.95895e-10
-4.73344e-10
-1.40737e-10
-4.8203e-10
-8.08724e-11
-4.75476e-10
-2.06179e-11
-4.5141e-10
3.72113e-11
-4.14312e-10
9.94454e-11
-3.80872e-10
1.66974e-10
-3.41718e-10
2.3674e-10
-2.88164e-10
3.02856e-10
-2.13297e-10
3.5954e-10
-1.16192e-10
4.01546e-10
1.75057e-12
4.24331e-10
1.37518e-10
4.24215e-10
2.86842e-10
3.98608e-10
4.44412e-10
3.46167e-10
6.04206e-10
2.66908e-10
7.59811e-10
1.62225e-10
9.04827e-10
3.47837e-11
1.03329e-09
-1.11664e-10
1.14002e-09
1.22086e-09
-2.72543e-10
-3.90288e-12
3.17387e-11
-1.57271e-11
1.03812e-10
-3.46167e-11
1.68855e-10
-5.94274e-11
2.2382e-10
-8.90225e-11
2.68382e-10
-1.22347e-10
3.02689e-10
-1.58435e-10
3.26944e-10
-1.96408e-10
3.41507e-10
-2.35469e-10
3.46923e-10
-2.74893e-10
3.43841e-10
-3.14011e-10
3.3291e-10
-3.52198e-10
3.14708e-10
-3.88844e-10
2.89708e-10
-4.23341e-10
2.58281e-10
-4.55058e-10
2.20722e-10
-4.83325e-10
1.77284e-10
-5.07413e-10
1.28243e-10
-5.26526e-10
7.39579e-11
-5.39811e-10
1.49752e-11
-5.464e-10
-4.78416e-11
-5.45518e-10
-1.13153e-10
-5.3669e-10
-1.78947e-10
-5.20055e-10
-2.42409e-10
-4.96753e-10
-2.99994e-10
-4.69215e-10
-3.47954e-10
-4.41056e-10
-3.8351e-10
-4.15975e-10
-4.06939e-10
-3.9578e-10
-4.23117e-10
-3.76169e-10
-4.44515e-10
-3.45031e-10
-4.83175e-10
-3.01293e-10
-5.17082e-10
-2.45998e-10
-5.37323e-10
-1.81083e-10
-5.40389e-10
-1.15574e-10
-5.16918e-10
-5.35654e-11
-4.76322e-10
1.88325e-11
-4.53271e-10
1.03246e-10
-4.26132e-10
1.94403e-10
-3.79321e-10
2.83009e-10
-3.01904e-10
3.61872e-10
-1.95056e-10
4.24715e-10
-6.10948e-11
4.65975e-10
9.62552e-11
4.81022e-10
2.71792e-10
4.66445e-10
4.58988e-10
4.20327e-10
6.50324e-10
3.42439e-10
8.37697e-10
2.34289e-10
1.01298e-09
9.90061e-11
1.16857e-09
-5.89194e-11
1.29794e-09
1.39593e-09
-2.33979e-10
-4.08872e-12
3.58264e-11
-1.64852e-11
1.16208e-10
-3.63141e-11
1.88684e-10
-6.23989e-11
2.49905e-10
-9.35705e-11
2.99553e-10
-1.28751e-10
3.37868e-10
-1.66962e-10
3.65154e-10
-2.07325e-10
3.81869e-10
-2.49049e-10
3.88648e-10
-2.91421e-10
3.86216e-10
-3.33792e-10
3.75283e-10
-3.75551e-10
3.56469e-10
-4.16109e-10
3.30267e-10
-4.54872e-10
2.97045e-10
-4.91217e-10
2.57067e-10
-5.24466e-10
2.10534e-10
-5.53856e-10
1.57634e-10
-5.7851e-10
9.86126e-11
-5.97416e-10
3.38817e-11
-6.09443e-10
-3.58134e-11
-6.1344e-10
-1.09156e-10
-6.08463e-10
-1.83924e-10
-5.94222e-10
-2.5665e-10
-5.7174e-10
-3.22475e-10
-5.44056e-10
-3.75637e-10
-5.16523e-10
-4.11043e-10
-4.95349e-10
-4.28114e-10
-4.8545e-10
-4.33017e-10
-4.81997e-10
-4.4797e-10
-4.63497e-10
-5.01675e-10
-4.29105e-10
-5.51473e-10
-3.79188e-10
-5.87239e-10
-3.09822e-10
-6.09754e-10
-2.3739e-10
-5.8935e-10
-1.72347e-10
-5.41365e-10
-8.62808e-11
-5.39339e-10
2.28078e-11
-5.35221e-10
1.41737e-10
-4.9825e-10
2.57294e-10
-4.17462e-10
3.62358e-10
-3.00123e-10
4.4994e-10
-1.4868e-10
5.13453e-10
3.27401e-11
5.47114e-10
2.38129e-10
5.46424e-10
4.59678e-10
5.08654e-10
6.88093e-10
4.33192e-10
9.13158e-10
3.2165e-10
1.12452e-09
1.77717e-10
1.31251e-09
6.81408e-12
1.46885e-09
1.58711e-09
-1.84373e-10
-4.28365e-12
4.01093e-11
-1.72588e-11
1.29183e-10
-3.80382e-11
2.09463e-10
-6.5413e-11
2.77279e-10
-9.81817e-11
3.32321e-10
-1.35245e-10
3.7493e-10
-1.7562e-10
4.05528e-10
-2.18431e-10
4.2468e-10
-2.629e-10
4.3312e-10
-3.08337e-10
4.31655e-10
-3.54115e-10
4.21063e-10
-3.99651e-10
4.02007e-10
-4.44386e-10
3.75003e-10
-4.87758e-10
3.40417e-10
-5.29176e-10
2.98485e-10
-5.67986e-10
2.49344e-10
-6.03428e-10
1.93076e-10
-6.34582e-10
1.29767e-10
-6.6031e-10
5.96094e-11
-6.79206e-10
-1.69169e-11
-6.89635e-10
-9.87265e-11
-6.89928e-10
-1.83631e-10
-6.78925e-10
-2.67651e-10
-6.56996e-10
-3.44403e-10
-6.27355e-10
-4.05278e-10
-5.97202e-10
-4.41196e-10
-5.75293e-10
-4.50024e-10
-5.72455e-10
-4.35857e-10
-5.87687e-10
-4.32738e-10
-5.91203e-10
-4.98158e-10
-5.74829e-10
-5.67846e-10
-5.45603e-10
-6.16464e-10
-4.90669e-10
-6.64688e-10
-3.93353e-10
-6.86667e-10
-3.31169e-10
-6.03549e-10
-2.16297e-10
-6.5421e-10
-6.63845e-11
-6.85133e-10
8.44344e-11
-6.4907e-10
2.29719e-10
-5.62749e-10
3.64019e-10
-4.34425e-10
4.79779e-10
-2.64442e-10
5.69265e-10
-5.67477e-11
6.25176e-10
1.82217e-10
6.41458e-10
4.43395e-10
6.1418e-10
7.15369e-10
5.42124e-10
9.85213e-10
4.26973e-10
1.23967e-09
2.73116e-10
1.46636e-09
8.71544e-11
1.65481e-09
1.797e-09
-1.22734e-10
-4.48092e-12
4.45903e-11
-1.80283e-11
1.42731e-10
-3.97486e-11
2.31184e-10
-6.84003e-11
3.05931e-10
-1.02751e-10
3.66671e-10
-1.41685e-10
4.13864e-10
-1.84217e-10
4.4806e-10
-2.29483e-10
4.69947e-10
-2.76725e-10
4.80364e-10
-3.25279e-10
4.8021e-10
-3.74548e-10
4.70333e-10
-4.23987e-10
4.51446e-10
-4.73078e-10
4.24093e-10
-5.21308e-10
3.88646e-10
-5.68142e-10
3.45318e-10
-6.12988e-10
2.94189e-10
-6.55148e-10
2.35234e-10
-6.93734e-10
1.68353e-10
-7.27569e-10
9.34444e-11
-7.55047e-10
1.05606e-11
-7.7403e-10
-7.97444e-11
-7.81891e-10
-1.75769e-10
-7.76032e-10
-2.73509e-10
-7.55337e-10
-3.65098e-10
-7.22551e-10
-4.38063e-10
-6.86574e-10
-4.77174e-10
-6.5549e-10
-4.8111e-10
-6.4145e-10
-4.49898e-10
-6.59511e-10
-4.14677e-10
-6.84051e-10
-4.73617e-10
-7.5708e-10
-4.94816e-10
-7.61503e-10
-6.12041e-10
-7.1494e-10
-7.11251e-10
-6.5845e-10
-7.43156e-10
-5.42501e-10
-7.19496e-10
-3.32312e-10
-8.64399e-10
-1.48466e-10
-8.6898e-10
3.09073e-11
-8.28445e-10
2.05553e-10
-7.37395e-10
3.70234e-10
-5.99108e-10
5.1687e-10
-4.11079e-10
6.36048e-10
-1.75927e-10
7.18184e-10
1.0008e-10
7.54896e-10
4.06682e-10
7.40443e-10
7.29822e-10
6.72675e-10
1.05298e-09
5.53313e-10
1.35903e-09
3.87645e-10
1.63203e-09
1.83804e-10
1.85865e-09
2.02893e-09
-4.8126e-11
-4.67094e-12
4.92619e-11
-1.87682e-11
1.56829e-10
-4.13924e-11
2.53808e-10
-7.12712e-11
3.35809e-10
-1.07145e-10
4.02544e-10
-1.47887e-10
4.54606e-10
-1.92515e-10
4.92689e-10
-2.40183e-10
5.17616e-10
-2.90159e-10
5.30341e-10
-3.4181e-10
5.31861e-10
-3.94575e-10
5.23098e-10
-4.47951e-10
5.04821e-10
-5.01471e-10
4.77611e-10
-5.54681e-10
4.41854e-10
-6.07126e-10
3.97761e-10
-6.58313e-10
3.45376e-10
-7.07667e-10
2.84587e-10
-7.54445e-10
2.1513e-10
-7.97593e-10
1.36592e-10
-8.35522e-10
4.84882e-11
-8.65796e-10
-4.94708e-11
-8.84832e-10
-1.56733e-10
-8.87989e-10
-2.70351e-10
-8.71365e-10
-3.8172e-10
-8.37191e-10
-4.72237e-10
-7.99377e-10
-5.1499e-10
-7.62077e-10
-5.1841e-10
-7.06402e-10
-5.05574e-10
-6.42475e-10
-4.78604e-10
-5.33445e-10
-5.82647e-10
-5.77967e-10
-4.50292e-10
-7.47591e-10
-4.42417e-10
-8.88267e-10
-5.70574e-10
-8.19658e-10
-8.11764e-10
-5.44733e-10
-9.94422e-10
-3.88391e-10
-1.02074e-09
-2.00912e-10
-1.05646e-09
-7.70188e-12
-1.02165e-09
1.89387e-10
-9.34485e-10
3.83307e-10
-7.93029e-10
5.63167e-10
-5.90941e-10
7.16253e-10
-3.29013e-10
8.2929e-10
-1.29575e-11
8.90474e-10
3.45497e-10
8.91467e-10
7.2883e-10
8.28737e-10
1.11571e-09
7.04037e-10
1.48373e-09
5.23876e-10
1.81219e-09
2.98413e-10
2.08411e-09
2.28718e-09
4.01666e-11
-4.84297e-12
5.41055e-11
-1.94486e-11
1.71435e-10
-4.29077e-11
2.77267e-10
-7.39205e-11
3.66821e-10
-1.11207e-10
4.39831e-10
-1.53637e-10
4.97036e-10
-2.00239e-10
5.39292e-10
-2.5019e-10
5.67568e-10
-3.02789e-10
5.82942e-10
-3.57439e-10
5.86511e-10
-4.13619e-10
5.79278e-10
-4.7087e-10
5.62071e-10
-5.28776e-10
5.35515e-10
-5.86949e-10
5.00026e-10
-6.45018e-10
4.55828e-10
-7.02608e-10
4.02965e-10
-7.59317e-10
3.41295e-10
-8.14652e-10
2.70464e-10
-8.67906e-10
1.89843e-10
-9.17887e-10
9.84686e-11
-9.62451e-10
-4.90786e-12
-9.97733e-10
-1.2145e-10
-1.01699e-09
-2.51094e-10
-1.01057e-09
-3.88133e-10
-9.77306e-10
-5.05506e-10
-9.59797e-10
-5.32499e-10
-9.46122e-10
-5.32086e-10
-9.51574e-10
-5.00122e-10
-8.06611e-10
-6.23566e-10
-6.82717e-10
-7.0654e-10
-6.78379e-10
-4.54629e-10
-7.08953e-10
-4.11841e-10
-6.92018e-10
-5.87508e-10
-6.68857e-10
-8.34926e-10
-5.91825e-10
-1.07145e-09
-4.21366e-10
-1.1912e-09
-2.45342e-10
-1.23248e-09
-4.28876e-11
-1.22411e-09
1.76392e-10
-1.15377e-09
4.01655e-10
-1.01829e-09
6.19157e-10
-8.08443e-10
8.11959e-10
-5.21816e-10
9.61866e-10
-1.62864e-10
1.05249e-09
2.54876e-10
1.07186e-09
7.09456e-10
1.01464e-09
1.17293e-09
8.8272e-10
1.61565e-09
6.84332e-10
2.01058e-09
4.3234e-10
2.3361e-09
2.57715e-09
1.42371e-10
-4.98667e-12
5.90923e-11
-2.00366e-11
1.86484e-10
-4.42248e-11
3.01454e-10
-7.62313e-11
3.98828e-10
-1.14766e-10
4.78366e-10
-1.58701e-10
5.40972e-10
-2.07088e-10
5.8768e-10
-2.59132e-10
6.19612e-10
-3.14169e-10
6.3798e-10
-3.71642e-10
6.43984e-10
-4.31072e-10
6.38707e-10
-4.92045e-10
6.23042e-10
-5.5419e-10
5.97659e-10
-6.17175e-10
5.6301e-10
-6.80695e-10
5.19348e-10
-7.44474e-10
4.66745e-10
-8.08273e-10
4.05093e-10
-8.71885e-10
3.34075e-10
-9.35109e-10
2.53066e-10
-9.9758e-10
1.60939e-10
-1.05832e-09
5.58296e-11
-1.115e-09
-6.47614e-11
-1.16223e-09
-2.0387e-10
-1.18285e-09
-3.67506e-10
-1.15418e-09
-5.34184e-10
-1.13488e-09
-5.51792e-10
-1.21352e-09
-4.53447e-10
-1.29477e-09
-4.18877e-10
-1.25765e-09
-6.60684e-10
-1.26976e-09
-6.94428e-10
-1.1286e-09
-5.95788e-10
-9.64917e-10
-5.75521e-10
-8.35327e-10
-7.17098e-10
-7.24974e-10
-9.4528e-10
-6.22421e-10
-1.17401e-09
-4.82391e-10
-1.33123e-09
-2.9912e-10
-1.41575e-09
-8.235e-11
-1.44088e-09
1.6325e-10
-1.39937e-09
4.24795e-10
-1.27984e-09
6.86449e-10
-1.0701e-09
9.26458e-10
-7.61826e-10
1.12061e-09
-3.57021e-10
1.24641e-09
1.29083e-10
1.28709e-09
6.68769e-10
1.23516e-09
1.22486e-09
1.09294e-09
1.75787e-09
8.71135e-10
2.23239e-09
5.86245e-10
2.62099e-09
2.90554e-09
2.57854e-10
-5.09309e-12
6.41848e-11
-2.04976e-11
2.01887e-10
-4.52689e-11
3.26225e-10
-7.80771e-11
4.31636e-10
-1.17634e-10
5.17923e-10
-1.62829e-10
5.86167e-10
-2.1274e-10
6.37591e-10
-2.66613e-10
6.73485e-10
-3.23828e-10
6.95195e-10
-3.83872e-10
7.04028e-10
-4.46314e-10
7.01148e-10
-5.10781e-10
6.87508e-10
-5.76942e-10
6.63819e-10
-6.44496e-10
6.30564e-10
-7.13165e-10
5.88018e-10
-7.82701e-10
5.36282e-10
-8.5292e-10
4.75311e-10
-9.23763e-10
4.04916e-10
-9.95406e-10
3.24708e-10
-1.06838e-09
2.33909e-10
-1.14341e-09
1.30865e-10
-1.22095e-09
1.27783e-11
-1.30306e-09
-1.21761e-10
-1.38723e-09
-2.83333e-10
-1.41832e-09
-5.03098e-10
-1.49621e-09
-4.73898e-10
-1.57828e-09
-3.71375e-10
-1.52353e-09
-4.73624e-10
-1.52679e-09
-6.57429e-10
-1.49487e-09
-7.26338e-10
-1.37663e-09
-7.14034e-10
-1.19616e-09
-7.55994e-10
-1.0196e-09
-8.93653e-10
-8.65502e-10
-1.09938e-09
-7.23473e-10
-1.31604e-09
-5.62958e-10
-1.49175e-09
-3.61976e-10
-1.61674e-09
-1.21937e-10
-1.68092e-09
1.54299e-10
-1.6756e-09
4.57914e-10
-1.58345e-09
7.71022e-10
-1.38321e-09
1.06664e-09
-1.05744e-09
1.31302e-09
-6.03404e-10
1.47967e-09
-3.75722e-11
1.54384e-09
6.046e-10
1.49544e-09
1.27326e-09
1.33785e-09
1.91546e-09
1.08544e-09
2.48479e-09
7.59532e-10
2.9469e-09
3.28043e-09
3.84643e-10
-5.15488e-12
6.93389e-11
-2.07956e-11
2.17527e-10
-4.59608e-11
3.51391e-10
-7.93249e-11
4.65001e-10
-1.19616e-10
5.58215e-10
-1.65753e-10
6.32305e-10
-2.16856e-10
6.88694e-10
-2.72218e-10
7.28848e-10
-3.31275e-10
7.54252e-10
-3.93568e-10
7.6632e-10
-4.58719e-10
7.66297e-10
-5.26401e-10
7.55189e-10
-5.9632e-10
7.33738e-10
-6.68186e-10
7.02432e-10
-7.41701e-10
6.61534e-10
-8.16545e-10
6.11126e-10
-8.92389e-10
5.51155e-10
-9.68955e-10
4.81481e-10
-1.04614e-09
4.01893e-10
-1.12423e-09
3.12002e-10
-1.20406e-09
2.10697e-10
-1.28568e-09
9.43985e-11
-1.36648e-09
-4.09611e-11
-1.45406e-09
-1.95751e-10
-1.49259e-09
-4.64569e-10
-1.53116e-09
-4.35326e-10
-1.65644e-09
-2.46094e-10
-1.6304e-09
-4.99669e-10
-1.64882e-09
-6.39001e-10
-1.62946e-09
-7.45698e-10
-1.52664e-09
-8.16861e-10
-1.35944e-09
-9.23193e-10
-1.17804e-09
-1.07505e-09
-9.98184e-10
-1.27924e-09
-8.21381e-10
-1.49284e-09
-6.28404e-10
-1.68472e-09
-4.05848e-10
-1.83929e-09
-1.4264e-10
-1.94413e-09
1.66131e-10
-1.98437e-09
5.15553e-10
-1.93288e-09
8.86367e-10
-1.75402e-09
1.24531e-09
-1.41638e-09
1.55101e-09
-9.09111e-10
1.76298e-09
-2.4954e-10
1.85051e-09
5.17068e-10
1.80077e-09
1.32301e-09
1.6195e-09
2.09674e-09
1.32657e-09
2.77772e-09
9.49566e-10
3.32391e-09
3.71119e-09
5.18799e-10
-5.1658e-12
7.45043e-11
-2.08937e-11
2.33256e-10
-4.62184e-11
3.76716e-10
-7.98359e-11
4.98618e-10
-1.20508e-10
5.98887e-10
-1.67198e-10
6.78994e-10
-2.19079e-10
7.40576e-10
-2.75511e-10
7.85279e-10
-3.35994e-10
8.14734e-10
-4.0014e-10
8.30464e-10
-4.67637e-10
8.33792e-10
-5.38222e-10
8.25773e-10
-6.11646e-10
8.07163e-10
-6.87642e-10
7.78428e-10
-7.65877e-10
7.3977e-10
-8.4591e-10
6.91158e-10
-9.27135e-10
6.3238e-10
-1.00875e-09