/*--------------------------------*- C++ -*----------------------------------*\
| =========                 |                                                 |
| \\      /  F ield         | OpenFOAM: The Open Source CFD Toolbox           |
|  \\    /   O peration     | Version:  2.4.0                                 |
|   \\  /    A nd           | Web:      www.OpenFOAM.org                      |
|    \\/     M anipulation  |                                                 |
\*---------------------------------------------------------------------------*/
FoamFile
{
    version     2.0;
    format      ascii;
    class       volScalarField;
    location    "0.371";
    object      alpha.water;
}
// * * * * * * * * * * * * * * * * * * * * * * * * * * * * * * * * * * * * * //

dimensions      [0 0 0 0 0 0 0];

internalField   nonuniform List<scalar> 
10000
(
5.38927e-49
3.32864e-45
5.84137e-42
4.40807e-39
1.5286e-36
2.19238e-34
1.30743e-32
3.7344e-31
5.71743e-30
5.17139e-29
3.03176e-28
1.26095e-27
4.1761e-27
1.29503e-26
4.16432e-26
1.40701e-25
5.16346e-25
2.02275e-24
7.78105e-24
2.85995e-23
9.92432e-23
3.23154e-22
9.85108e-22
2.79336e-21
7.30106e-21
1.73078e-20
3.65449e-20
6.7377e-20
1.0433e-19
1.26641e-19
1.19388e-19
8.93166e-20
5.29917e-20
2.60729e-20
1.11816e-20
4.41802e-21
1.68649e-21
6.26763e-22
2.2384e-22
7.64363e-23
2.5051e-23
7.41691e-24
1.92827e-24
4.36743e-25
8.55298e-26
1.4261e-26
2.2726e-27
1.01834e-27
1.77953e-27
3.30492e-27
2.05931e-45
9.2941e-42
1.21895e-38
7.07026e-36
1.95294e-33
2.31512e-31
1.19141e-29
3.02572e-28
4.28176e-27
3.67996e-26
2.08904e-25
8.48628e-25
2.7214e-24
8.03164e-24
2.42164e-23
7.64497e-23
2.60362e-22
9.39356e-22
3.34255e-21
1.13247e-20
3.60947e-20
1.0829e-19
3.06113e-19
8.10839e-19
1.99476e-18
4.49228e-18
9.07727e-18
1.61702e-17
2.46954e-17
3.10174e-17
3.17808e-17
2.7197e-17
1.93722e-17
1.16464e-17
6.09336e-18
2.87296e-18
1.25754e-18
5.1973e-19
2.04269e-19
7.66878e-20
2.7079e-20
8.71037e-21
2.49914e-21
6.36586e-22
1.40946e-22
2.70684e-23
4.83038e-24
1.78559e-24
3.03206e-24
6.5954e-24
4.61869e-43
2.27391e-39
3.33081e-36
2.12059e-33
5.73539e-31
5.93429e-29
2.6828e-27
6.17868e-26
8.1579e-25
6.71796e-24
3.69273e-23
1.45646e-22
4.50731e-22
1.26408e-21
3.57518e-21
1.05441e-20
3.34466e-20
1.11775e-19
3.70299e-19
1.16554e-18
3.43532e-18
9.53512e-18
2.50682e-17
6.22337e-17
1.44563e-16
3.10149e-16
6.04443e-16
1.0471e-15
1.585e-15
2.04023e-15
2.21552e-15
2.05652e-15
1.64465e-15
1.1319e-15
6.82511e-16
3.68981e-16
1.82761e-16
8.42976e-17
3.65798e-17
1.50431e-17
5.76723e-18
2.01886e-18
6.3817e-19
1.79751e-19
4.46046e-20
9.7449e-21
1.97624e-21
7.12794e-22
1.21063e-21
3.051e-21
3.4143e-41
2.34011e-37
4.36376e-34
3.0544e-31
7.45011e-29
6.73766e-27
2.70064e-25
5.66824e-24
7.01725e-23
5.50226e-22
2.91994e-21
1.12127e-20
3.36122e-20
8.98514e-20
2.3854e-19
6.56259e-19
1.93833e-18
6.01347e-18
1.86018e-17
5.46442e-17
1.49753e-16
3.86004e-16
9.45995e-16
2.20532e-15
4.84871e-15
9.92618e-15
1.86501e-14
3.1552e-14
4.72467e-14
6.17339e-14
6.97671e-14
6.85855e-14
5.93671e-14
4.49468e-14
3.00535e-14
1.80371e-14
9.88318e-15
5.01751e-15
2.38454e-15
1.06653e-15
4.42829e-16
1.68228e-16
5.80146e-17
1.7901e-17
4.9143e-18
1.20076e-18
2.74233e-19
1.05292e-19
1.86635e-19
5.29722e-19
2.11274e-39
1.72004e-35
3.60805e-32
2.54651e-29
5.49791e-27
4.31831e-25
1.53949e-23
2.95822e-22
3.41483e-21
2.54845e-20
1.30633e-19
4.88891e-19
1.42347e-18
3.63824e-18
9.07908e-18
2.3271e-17
6.39014e-17
1.84224e-16
5.33142e-16
1.46663e-15
3.75468e-15
9.0248e-15
2.06717e-14
4.53212e-14
9.44436e-14
1.84682e-13
3.34337e-13
5.51563e-13
8.16325e-13
1.07378e-12
1.24748e-12
1.28054e-12
1.17471e-12
9.54868e-13
6.90469e-13
4.49401e-13
2.67074e-13
1.46882e-13
7.55355e-14
3.63723e-14
1.62316e-14
6.64569e-15
2.47231e-15
8.26841e-16
2.47662e-16
6.65229e-17
1.68414e-17
7.06615e-18
1.31886e-17
4.00725e-17
9.13335e-38
8.74337e-34
2.10081e-30
1.40146e-27
2.60693e-25
1.77729e-23
5.66274e-22
9.93658e-21
1.06774e-19
7.56883e-19
3.74512e-18
1.36734e-17
3.88004e-17
9.51941e-17
2.23918e-16
5.34581e-16
1.36141e-15
3.64546e-15
9.87803e-15
2.55089e-14
6.12233e-14
1.37728e-13
2.95682e-13
6.10695e-13
1.2074e-12
2.25621e-12
3.93217e-12
6.30964e-12
9.20565e-12
1.21112e-11
1.43338e-11
1.52291e-11
1.4608e-11
1.25572e-11
9.66109e-12
6.71025e-12
4.26162e-12
2.50609e-12
1.37827e-12
7.08339e-13
3.37265e-13
1.47665e-13
5.87748e-14
2.11161e-14
6.82557e-15
1.98865e-15
5.49214e-16
2.46304e-16
4.63989e-16
1.42327e-15
3.17844e-36
3.44057e-32
9.11122e-29
5.43502e-26
8.60106e-24
5.10798e-22
1.4541e-20
2.3181e-19
2.31565e-18
1.5586e-17
7.44358e-17
2.65241e-16
7.35714e-16
1.74018e-15
3.8736e-15
8.62281e-15
2.0316e-14
5.04389e-14
1.27919e-13
3.10628e-13
7.00855e-13
1.4799e-12
2.98546e-12
5.81963e-12
1.09282e-11
1.95216e-11
3.27262e-11
5.09377e-11
7.2952e-11
9.55587e-11
1.14337e-10
1.2471e-10
1.24164e-10
1.11785e-10
9.05094e-11
6.63321e-11
4.45373e-11
2.77362e-11
1.61704e-11
8.81043e-12
4.45295e-12
2.07236e-12
8.78224e-13
3.37e-13
1.16733e-13
3.65662e-14
1.08572e-14
4.95403e-15
8.80641e-15
2.62886e-14
9.2058e-35
1.09455e-30
3.07288e-27
1.56143e-24
2.09433e-22
1.08141e-20
2.73188e-19
3.96309e-18
3.68156e-17
2.35045e-16
1.0823e-15
3.76218e-15
1.02233e-14
2.3416e-14
4.95666e-14
1.03148e-13
2.24495e-13
5.15396e-13
1.22136e-12
2.79158e-12
5.93386e-12
1.1788e-11
2.2393e-11
4.1268e-11
7.36803e-11
1.25887e-10
2.02948e-10
3.05807e-10
4.28213e-10
5.55991e-10
6.68393e-10
7.43838e-10
7.64661e-10
7.16263e-10
6.05531e-10
4.64274e-10
3.26868e-10
2.14054e-10
1.3152e-10
7.56679e-11
4.04956e-11
1.99737e-11
8.99417e-12
3.67721e-12
1.36047e-12
4.5602e-13
1.43984e-13
6.36678e-14
9.9441e-14
2.81766e-13
2.28637e-33
3.01952e-29
8.21285e-26
3.46087e-23
3.89183e-21
1.74123e-19
3.91625e-18
5.17793e-17
4.47094e-16
2.70238e-15
1.19722e-14
4.05324e-14
1.08025e-13
2.40596e-13
4.86942e-13
9.51318e-13
1.91309e-12
4.04969e-12
8.94226e-12
1.9241e-11
3.85974e-11
7.22746e-11
1.295e-10
2.25897e-10
3.83721e-10
6.27317e-10
9.72927e-10
1.41864e-09
1.93832e-09
2.4866e-09
2.99274e-09
3.38333e-09
3.57938e-09
3.47172e-09
3.04435e-09
2.42384e-09
1.77684e-09
1.21676e-09
7.85128e-10
4.76201e-10
2.69662e-10
1.40991e-10
6.74898e-11
2.94031e-11
1.16146e-11
4.16007e-12
1.3894e-12
5.78958e-13
7.35201e-13
1.93183e-12
4.89188e-32
7.4288e-28
1.77679e-24
6.02263e-22
5.67172e-20
2.20403e-18
4.42762e-17
5.34097e-16
4.28235e-15
2.44406e-14
1.03846e-13
3.41441e-13
8.92162e-13
1.9388e-12
3.7725e-12
6.95841e-12
1.29639e-11
2.52483e-11
5.1764e-11
1.04788e-10
1.98626e-10
3.51144e-10
5.94189e-10
9.8158e-10
1.58619e-09
2.48035e-09
3.70107e-09
5.22623e-09
6.97756e-09
8.86717e-09
1.07073e-08
1.22907e-08
1.33857e-08
1.3415e-08
1.21258e-08
9.9378e-09
7.52103e-09
5.35222e-09
3.6155e-09
2.31012e-09
1.38408e-09
7.67904e-10
3.91234e-10
1.81866e-10
7.67922e-11
2.94148e-11
1.03971e-11
4.09121e-12
3.93409e-12
9.20433e-12
9.21547e-31
1.62521e-26
3.12579e-23
8.38429e-21
6.64445e-19
2.25099e-17
4.05e-16
4.46164e-15
3.31861e-14
1.78319e-13
7.23764e-13
2.3018e-12
5.88379e-12
1.25028e-11
2.35076e-11
4.12085e-11
7.15001e-11
1.28073e-10
2.42881e-10
4.62024e-10
8.28194e-10
1.38414e-09
2.21359e-09
3.46228e-09
5.31571e-09
7.93474e-09
1.1372e-08
1.55525e-08
2.03608e-08
2.59058e-08
3.18034e-08
3.74061e-08
4.23623e-08
4.4082e-08
4.08841e-08
3.40979e-08
2.63047e-08
1.92603e-08
1.3538e-08
9.08162e-09
5.73725e-09
3.37059e-09
1.82553e-09
9.05239e-10
4.0885e-10
1.67713e-10
6.30017e-11
2.40784e-11
1.69497e-11
3.27408e-11
1.57196e-29
3.12073e-25
4.45847e-22
9.52796e-20
6.37414e-18
1.8901e-16
3.05408e-15
3.07693e-14
2.12247e-13
1.07112e-12
4.13585e-12
1.26618e-11
3.15379e-11
6.55567e-11
1.19585e-10
2.00586e-10
3.26578e-10
5.39242e-10
9.42943e-10
1.6837e-09
2.85542e-09
4.51529e-09
6.82622e-09
1.00998e-08
1.46936e-08
2.08478e-08
2.85643e-08
3.77248e-08
4.84395e-08
6.26453e-08
8.01757e-08
9.91187e-08
1.21121e-07
1.33949e-07
1.27664e-07
1.06743e-07
8.22367e-08
6.08698e-08
4.39172e-08
3.05264e-08
2.00738e-08
1.23542e-08
7.05854e-09
3.71684e-09
1.79226e-09
7.87628e-10
3.15975e-10
1.21823e-10
6.53717e-11
9.35766e-11
2.55621e-28
5.10581e-24
5.22817e-21
8.94919e-19
5.06929e-17
1.3206e-15
1.92205e-14
1.7747e-13
1.13626e-12
5.37939e-12
1.96962e-11
5.77748e-11
1.39503e-10
2.83205e-10
5.02488e-10
8.11461e-10
1.25075e-09
1.9136e-09
3.08e-09
5.16097e-09
8.28483e-09
1.23986e-08
1.77122e-08
2.47575e-08
3.40009e-08
4.55592e-08
5.92719e-08
7.5303e-08
9.4227e-08
1.26208e-07
1.74836e-07
2.40549e-07
3.38035e-07
4.29904e-07
4.26425e-07
3.51267e-07
2.60542e-07
1.86944e-07
1.32903e-07
9.20151e-08
6.09883e-08
3.84136e-08
2.28094e-08
1.26498e-08
6.4906e-09
3.0562e-09
1.31557e-09
5.28624e-10
2.40502e-10
2.34419e-10
4.18317e-27
6.8764e-23
5.07351e-20
6.98286e-18
3.36284e-16
7.72485e-15
1.01597e-13
8.62133e-13
5.13402e-12
2.28163e-11
7.91055e-11
2.21585e-10
5.16016e-10
1.01973e-09
1.7614e-09
2.75187e-09
4.05131e-09
5.78552e-09
8.5764e-09
1.34981e-08
2.05213e-08
2.90523e-08
3.91704e-08
5.16698e-08
6.67071e-08
8.3778e-08
1.02886e-07
1.25661e-07
1.5105e-07
2.16044e-07
3.27921e-07
3.97484e-07
7.71808e-07
5.95673e-07
5.42259e-07
6.87557e-07
6.44244e-07
4.91538e-07
3.46776e-07
2.34034e-07
1.53151e-07
9.72841e-08
5.95579e-08
3.47081e-08
1.89847e-08
9.62194e-09
4.47796e-09
1.92214e-09
8.3115e-10
5.66016e-10
6.7438e-26
7.62318e-22
4.07863e-19
4.53269e-17
1.86417e-15
3.79019e-14
4.51956e-13
3.53568e-12
1.96393e-11
8.21065e-11
2.69755e-10
7.20823e-10
1.61329e-09
3.09174e-09
5.19709e-09
7.88219e-09
1.11703e-08
1.50165e-08
2.0613e-08
3.05128e-08
4.38695e-08
5.86502e-08
7.44737e-08
9.27115e-08
1.12071e-07
1.31216e-07
1.52081e-07
1.78136e-07
1.97077e-07
3.10629e-07
4.64246e-07
5.39298e-07
5.39552e-07
6.11955e-06
8.66173e-06
3.85524e-06
7.69857e-07
7.2723e-07
5.55287e-07
3.94257e-07
2.69985e-07
1.80053e-07
1.168e-07
7.29623e-08
4.3223e-08
2.38984e-08
1.2175e-08
5.69175e-09
2.53372e-09
1.38043e-09
1.00005e-24
6.92538e-21
2.71031e-18
2.44553e-16
8.63128e-15
1.55933e-13
1.69145e-12
1.22361e-11
6.35861e-11
2.50789e-10
7.82538e-10
1.99725e-09
4.29283e-09
7.95869e-09
1.30129e-08
1.9212e-08
2.63835e-08
3.37435e-08
4.35345e-08
6.06889e-08
8.18516e-08
1.02978e-07
1.23061e-07
1.4494e-07
1.63051e-07
1.79803e-07
2.00757e-07
2.24528e-07
2.07227e-07
3.99171e-07
5.49237e-07
4.33637e-07
9.1227e-06
1.53301e-05
1.53329e-05
1.53298e-05
9.21024e-06
4.99791e-07
4.90936e-07
4.22392e-07
3.34731e-07
2.48423e-07
1.76426e-07
1.20494e-07
7.83652e-08
4.77598e-08
2.68634e-08
1.38236e-08
6.59567e-09
3.30902e-09
1.25591e-23
5.12364e-20
1.48387e-17
1.09484e-15
3.3345e-14
5.3755e-13
5.32207e-12
3.57041e-11
1.74043e-10
6.49325e-10
1.92931e-09
4.71477e-09
9.7481e-09
1.74862e-08
2.78366e-08
4.0151e-08
5.38105e-08
6.65983e-08
8.28871e-08
1.09124e-07
1.36106e-07
1.61398e-07
1.83866e-07
2.0685e-07
2.14506e-07
2.37329e-07
2.65835e-07
2.79e-07
2.75571e-07
3.04164e-07
4.02219e-07
4.3352e-07
5.84832e-07
1.39335e-05
1.53317e-05
1.13431e-05
1.05251e-06
1.12508e-06
4.2283e-07
4.16861e-07
3.66981e-07
2.96407e-07
2.28364e-07
1.70176e-07
1.21583e-07
8.17463e-08
5.07822e-08
2.88048e-08
1.49519e-08
7.53465e-09
1.2674e-22
3.06852e-19
6.67221e-17
4.06177e-15
1.0745e-13
1.55317e-12
1.40869e-11
8.78917e-11
4.02853e-10
1.42484e-09
4.04004e-09
9.47507e-09
1.88938e-08
3.28697e-08
5.11045e-08
7.24322e-08
9.56787e-08
1.17739e-07
1.4508e-07
1.81493e-07
2.0949e-07
2.39269e-07
2.7134e-07
2.98481e-07
2.94239e-07
3.39079e-07
3.70446e-07
3.79144e-07
3.46603e-07
3.1824e-07
3.49369e-07
4.81937e-07
8.10808e-07
2.2415e-06
3.71382e-06
3.08094e-06
8.96661e-07
5.8703e-07
5.10137e-07
4.47606e-07
3.79858e-07
3.18208e-07
2.65012e-07
2.16789e-07
1.70621e-07
1.2626e-07
8.61289e-08
5.35316e-08
3.02656e-08
1.59844e-08
9.9821e-22
1.48006e-18
2.45809e-16
1.24843e-14
2.8911e-13
3.76903e-12
3.14528e-11
1.8312e-10
7.91253e-10
2.65862e-09
7.20639e-09
1.62473e-08
3.13139e-08
5.29858e-08
8.08084e-08
1.13346e-07
1.49566e-07
1.8864e-07
2.34397e-07
2.8285e-07
3.15631e-07
3.52745e-07
4.11453e-07
4.50161e-07
4.65162e-07
3.43515e-07
8.95061e-07
3.95915e-07
3.80238e-07
3.45843e-07
3.30915e-07
3.60856e-07
4.6218e-07
6.01526e-07
5.96618e-07
5.64065e-07
5.55829e-07
5.19064e-07
4.63312e-07
4.10659e-07
3.70368e-07
3.39358e-07
3.10089e-07
2.77494e-07
2.37613e-07
1.90174e-07
1.39529e-07
9.30797e-08
5.64863e-08
3.15679e-08
6.03952e-21
5.72551e-18
7.41349e-16
3.18324e-14
6.51461e-13
7.71427e-12
5.95577e-11
3.24959e-10
1.32825e-09
4.2515e-09
1.10408e-08
2.39721e-08
4.47366e-08
7.37979e-08
1.10844e-07
1.54583e-07
2.06414e-07
2.72416e-07
3.49584e-07
4.21445e-07
4.79942e-07
5.11524e-07
5.86222e-07
6.05167e-07
6.43766e-07
6.11183e-07
5.07826e-07
4.56619e-07
4.06035e-07
3.7129e-07
3.53051e-07
3.50012e-07
3.63203e-07
3.88036e-07
3.8844e-07
6.66899e-07
4.49249e-07
4.45124e-07
4.33255e-07
4.22805e-07
4.18558e-07
4.13352e-07
3.9561e-07
3.87796e-07
3.53376e-07
2.98004e-07
2.31887e-07
1.63084e-07
1.03868e-07
6.0554e-08
2.78009e-20
1.77153e-17
1.83237e-15
6.75673e-14
1.23577e-12
1.34057e-11
9.6403e-11
4.95707e-10
1.92585e-09
5.89696e-09
1.47263e-08
3.08926e-08
5.59842e-08
9.02755e-08
1.33972e-07
1.85406e-07
2.52346e-07
3.51788e-07
4.61881e-07
5.60572e-07
6.47366e-07
7.38912e-07
7.27922e-07
9.89445e-07
7.50073e-07
7.3571e-07
6.68036e-07
5.53341e-07
5.03696e-07
4.47237e-07
4.05605e-07
3.84566e-07
3.79193e-07
3.96512e-07
4.28039e-07
4.32613e-07
4.60898e-07
4.78036e-07
4.88448e-07
4.98801e-07
5.12172e-07
4.14603e-07
7.37499e-07
5.03069e-07
4.06261e-07
3.24171e-07
3.17204e-07
2.73705e-07
1.93345e-07
1.19541e-07
9.65679e-20
4.38617e-17
3.72616e-15
1.20097e-13
1.98804e-12
1.99517e-11
1.34719e-10
6.57383e-10
2.44284e-09
7.19828e-09
1.73867e-08
3.54401e-08
6.27014e-08
9.92839e-08
1.46034e-07
1.98965e-07
2.77875e-07
4.04702e-07
5.15495e-07
6.06215e-07
7.46794e-07
1.19714e-06
9.14956e-07
7.19528e-07
6.95405e-07
6.76367e-07
6.71316e-07
8.11787e-07
5.12483e-07
5.16052e-07
4.54618e-07
4.13801e-07
4.00418e-07
4.51292e-07
5.24617e-07
5.6872e-07
5.82208e-07
5.80463e-07
5.74139e-07
5.69596e-07
5.62508e-07
5.37639e-07
5.0284e-07
6.7646e-07
2.95379e-06
3.60565e-06
1.70337e-06
3.72375e-07
3.20687e-07
2.19605e-07
2.5402e-19
8.7357e-17
6.27704e-15
1.80189e-13
2.73667e-12
2.56825e-11
1.64309e-10
7.67043e-10
2.74726e-09
7.84999e-09
1.84828e-08
3.6902e-08
6.42416e-08
1.00545e-07
1.47017e-07
1.96164e-07
2.85653e-07
4.18725e-07
5.11341e-07
5.12834e-07
9.82268e-07
9.42039e-07
9.18069e-07
7.73437e-06
1.21313e-05
8.11035e-06
1.51276e-06
6.12912e-07
6.07805e-07
5.54934e-07
4.69742e-07
4.29028e-07
4.21566e-07
4.64046e-07
5.56181e-07
6.06295e-07
6.28053e-07
6.37492e-07
6.34449e-07
6.17185e-07
5.91898e-07
5.51427e-07
5.00855e-07
6.64755e-07
1.31812e-05
1.47343e-05
1.02048e-05
6.35521e-07
3.25309e-07
2.47792e-07
5.12906e-19
1.4133e-16
8.83744e-15
2.3025e-13
3.25365e-12
2.88762e-11
1.76757e-10
7.96516e-10
2.77372e-09
7.75374e-09
1.79609e-08
3.54613e-08
6.13157e-08
9.55778e-08
1.39232e-07
1.83498e-07
2.772e-07
3.73131e-07
5.50116e-07
7.28165e-07
3.24729e-07
3.21806e-07
8.18471e-06
3.17391e-05
3.17384e-05
3.17354e-05
1.28819e-05
6.0434e-07
5.96761e-07
5.32428e-07
7.57012e-07
4.16871e-07
4.13586e-07
4.08832e-07
5.70301e-07
6.27584e-07
6.58466e-07
7.11275e-07
7.28624e-07
7.06112e-07
6.26004e-07
5.5911e-07
4.99187e-07
4.76515e-06
1.47379e-05
1.47364e-05
1.47336e-05
7.67028e-06
2.63658e-07
2.56465e-07
8.09837e-19
1.87898e-16
1.04961e-14
2.52808e-13
3.37041e-12
2.86151e-11
1.69299e-10
7.43481e-10
2.54095e-09
7.0156e-09
1.61455e-08
3.18379e-08
5.52064e-08
8.6396e-08
1.25763e-07
1.67064e-07
2.37211e-07
2.42644e-07
7.12332e-07
4.26646e-07
3.49557e-07
3.21726e-07
2.7007e-05
3.17376e-05
3.17355e-05
3.17344e-05
2.80234e-05
2.46982e-06
3.92662e-07
4.80292e-07
4.15769e-07
4.14216e-07
4.10263e-07
4.09338e-07
4.08024e-07
4.14551e-07
4.15295e-07
8.68267e-07
1.05974e-06
1.06186e-06
8.41426e-07
5.02349e-07
4.99114e-07
4.98358e-07
9.28878e-06
1.47361e-05
1.00138e-05
7.08738e-07
3.90041e-07
3.40015e-07
1.01853e-18
2.07446e-16
1.06115e-14
2.40431e-13
3.06505e-12
2.51784e-11
1.45465e-10
6.28632e-10
2.12883e-09
5.86125e-09
1.35303e-08
2.69008e-08
4.72036e-08
7.47895e-08
1.09518e-07
1.48112e-07
1.50769e-07
3.69955e-07
2.62553e-07
4.65053e-07
3.375e-07
3.21711e-07
2.2251e-05
3.17338e-05
3.17347e-05
3.17326e-05
2.53232e-05
1.97694e-06
3.7443e-07
4.48635e-07
4.39608e-07
4.32255e-07
4.26087e-07
4.23133e-07
4.15244e-07
4.51128e-07
4.64378e-07
4.65981e-07
4.73702e-07
4.68989e-07
6.32001e-07
5.77919e-07
5.41415e-07
5.64759e-07
1.1621e-06
1.72445e-06
1.59974e-06
8.61658e-07
4.05283e-07
4.10001e-07
1.03739e-18
1.921e-16
9.20265e-15
1.9929e-13
2.46037e-12
1.97699e-11
1.12653e-10
4.83675e-10
1.6382e-09
4.53901e-09
1.06032e-08
2.14342e-08
3.8365e-08
6.20361e-08
9.2252e-08
1.2401e-07
1.75709e-07
1.6768e-07
2.60512e-07
2.22906e-07
3.19459e-07
3.21709e-07
2.13025e-06
2.55125e-05
3.17358e-05
2.93552e-05
6.07516e-06
3.73425e-07
3.69352e-07
4.05042e-07
4.43467e-07
4.48172e-07
4.44871e-07
4.38569e-07
4.36983e-07
4.43925e-07
4.58985e-07
4.70016e-07
4.72538e-07
4.6884e-07
4.59048e-07
4.61308e-07
4.68234e-07
4.66174e-07
4.53216e-07
4.46316e-07
4.75359e-07
5.39609e-07
5.27448e-07
5.08275e-07
8.65265e-19
1.50213e-16
6.87867e-15
1.44399e-13
1.74724e-12
1.38764e-11
7.87406e-11
3.38983e-10
1.15853e-09
3.25769e-09
7.76171e-09
1.6067e-08
2.95262e-08
4.90508e-08
7.47486e-08
1.05735e-07
1.34151e-07
1.66187e-07
1.92622e-07
2.1709e-07
6.12161e-07
3.31763e-07
3.11169e-07
6.68364e-07
4.80524e-06
6.83171e-07
3.47938e-07
5.88168e-07
3.43077e-07
3.9562e-07
4.81178e-07
5.00527e-07
4.744e-07
4.43037e-07
4.33854e-07
4.55061e-07
5.06327e-07
5.26199e-07
4.99665e-07
4.88618e-07
4.49371e-07
5.77212e-07
4.71537e-07
5.1877e-07
4.35344e-07
4.39561e-07
4.36319e-07
4.2676e-07
7.05655e-07
8.16078e-07
5.94226e-19
9.92958e-17
4.4274e-15
9.13717e-14
1.09631e-12
8.69379e-12
4.95949e-11
2.16005e-10
7.51165e-10
2.16002e-09
5.28456e-09
1.12666e-08
2.13617e-08
3.66295e-08
5.75596e-08
8.37287e-08
1.12336e-07
1.2428e-07
1.28213e-07
3.38005e-07
2.3987e-07
2.86645e-07
3.08902e-07
3.33898e-07
3.20201e-07
3.22368e-07
3.45992e-07
3.01456e-07
3.38582e-07
3.9408e-07
4.49546e-07
4.13633e-07
6.24557e-07
3.80463e-07
3.96537e-07
3.82937e-07
7.29905e-07
7.47925e-07
4.42884e-07
4.37941e-07
4.41928e-07
4.81963e-07
4.48873e-07
4.39033e-07
4.34466e-07
4.28991e-07
4.26188e-07
4.25174e-07
6.84279e-07
5.43951e-07
3.35323e-19
5.52156e-17
2.44307e-15
5.02881e-14
6.05451e-13
4.84505e-12
2.80535e-11
1.24682e-10
4.44549e-10
1.31585e-09
3.3235e-09
7.32851e-09
1.43829e-08
2.55305e-08
4.1511e-08
6.24358e-08
8.56114e-08
8.10682e-08
1.68662e-07
1.04546e-07
2.38477e-07
2.61441e-07
2.63594e-07
5.47908e-07
3.40943e-07
4.16323e-07
3.13318e-07
3.00285e-07
3.60972e-07
3.43402e-07
3.40304e-07
3.42454e-07
3.17961e-07
3.69393e-07
3.82767e-07
3.49497e-07
3.24579e-07
3.223e-07
3.2006e-07
1.01897e-06
1.63084e-05
3.09388e-05
2.45027e-05
4.43929e-06
4.39041e-07
4.43088e-07
4.31731e-07
4.2742e-07
4.85406e-07
5.08655e-07
1.54038e-19
2.56607e-17
1.14918e-15
2.39495e-14
2.92998e-13
2.39206e-12
1.41899e-11
6.48682e-11
2.38692e-10
7.31e-10
1.9132e-09
4.37417e-09
8.90168e-09
1.63827e-08
2.76169e-08
4.30726e-08
6.01093e-08
7.59167e-08
6.25697e-08
9.01184e-08
2.96962e-07
2.28171e-07
3.57375e-07
2.55908e-07
2.76471e-07
2.79782e-07
3.03848e-07
2.99478e-07
2.76637e-07
2.91178e-07
3.03573e-07
3.15296e-07
3.16927e-07
3.19913e-07
3.23968e-07
3.26204e-07
3.25941e-07
3.23112e-07
3.20002e-07
2.25973e-05
6.39691e-05
6.39596e-05
6.39273e-05
4.49899e-05
2.21142e-06
4.43719e-07
4.40851e-07
4.38578e-07
4.39383e-07
4.39345e-07
5.75035e-20
9.93296e-18
4.58187e-16
9.81955e-15
1.23657e-13
1.04124e-12
6.38552e-12
3.02481e-11
1.15507e-10
3.67364e-10
9.98306e-10
2.36849e-09
4.99953e-09
9.54377e-09
1.66956e-08
2.70452e-08
3.81806e-08
4.79802e-08
6.02977e-08
7.93205e-08
1.52282e-07
1.24489e-07
3.80827e-07
2.54095e-07
2.2881e-07
3.2188e-07
2.97224e-07
2.81213e-07
2.75473e-07
2.75125e-07
2.79297e-07
2.86749e-07
2.95716e-07
3.04721e-07
3.12629e-07
3.18357e-07
3.21182e-07
3.20184e-07
3.2e-07
5.04559e-05
6.39451e-05
6.39213e-05
6.39164e-05
6.38894e-05
1.5679e-05
4.46786e-07
4.42481e-07
4.51288e-07
4.69788e-07
4.40391e-07
1.73815e-20
3.18103e-18
1.54037e-16
3.4489e-15
4.52976e-14
3.97862e-13
2.5474e-12
1.2603e-11
5.02056e-11
1.66248e-10
4.69301e-10
1.15464e-09
2.52555e-09
4.99675e-09
9.06912e-09
1.52663e-08
2.18179e-08
2.76078e-08
2.92121e-08
8.15261e-08
5.76043e-08
8.11033e-08
8.39953e-08
1.3852e-07
1.41397e-07
3.58794e-07
2.66201e-07
2.43343e-07
2.41689e-07
2.45438e-07
2.52703e-07
2.62937e-07
2.74968e-07
2.87773e-07
3.00464e-07
3.11084e-07
3.18609e-07
3.20005e-07
3.2e-07
4.64834e-05
6.39224e-05
6.39105e-05
6.3889e-05
6.38938e-05
1.22884e-05
4.44247e-07
4.45093e-07
6.66994e-07
7.69024e-07
7.38985e-07
4.23561e-21
8.36187e-19
4.33693e-17
1.03256e-15
1.43768e-14
1.33748e-13
9.06445e-13
4.73361e-12
1.98025e-11
6.8474e-11
2.00816e-10
5.11552e-10
1.15655e-09
2.36448e-09
4.43887e-09
7.74229e-09
1.14202e-08
1.54263e-08
2.34491e-08
1.74925e-08
4.08631e-08
3.34696e-08
1.25334e-07
1.14388e-07
1.65176e-07
6.40818e-08
1.2789e-07
1.66278e-07
1.86031e-07
1.99408e-07
2.12945e-07
2.28285e-07
2.44948e-07
2.62666e-07
2.81759e-07
2.98124e-07
3.16648e-07
3.22143e-07
3.20002e-07
1.36518e-05
6.1877e-05
6.38889e-05
6.38846e-05
4.29343e-05
2.0696e-06
4.33177e-07
4.47529e-07
4.48311e-07
4.9032e-07
5.07524e-07
8.18417e-22
1.79357e-19
1.02033e-17
2.64742e-16
4.00752e-15
4.05093e-14
2.9834e-13
1.68872e-12
7.59109e-12
2.78284e-11
8.53051e-11
2.24654e-10
5.21151e-10
1.08864e-09
2.08564e-09
3.71622e-09
5.86525e-09
8.82993e-09
1.08574e-08
1.62122e-08
2.5167e-08
3.1298e-08
2.42467e-08
6.06358e-08
3.7352e-08
6.07826e-08
8.67492e-08
1.10762e-07
1.30613e-07
1.48212e-07
1.66182e-07
1.85297e-07
2.05075e-07
2.25842e-07
2.5041e-07
2.65299e-07
3.20343e-07
3.3161e-07
3.25819e-07
3.07747e-07
8.01091e-06
3.10214e-05
2.2171e-05
1.92978e-06
3.27619e-07
4.30261e-07
4.31128e-07
5.0472e-07
4.94656e-07
4.72232e-07
1.1995e-22
3.06751e-20
2.00629e-18
5.94013e-17
1.02519e-15
1.20267e-14
1.07269e-13
7.43475e-13
3.92934e-12
1.59858e-11
5.17378e-11
1.39002e-10
3.21317e-10
6.59237e-10
1.23154e-09
2.13718e-09
3.49485e-09
5.09999e-09
7.34263e-09
1.05129e-08
1.47367e-08
1.99975e-08
2.30813e-08
2.82947e-08
3.55e-08
4.56037e-08
5.83878e-08
7.23032e-08
8.6669e-08
1.0216e-07
1.19533e-07
1.38502e-07
1.58072e-07
1.78131e-07
2.04079e-07
1.85291e-07
3.6298e-07
3.48075e-07
3.29329e-07
3.07816e-07
2.88064e-07
2.88503e-07
2.89026e-07
2.92756e-07
3.169e-07
5.24318e-07
5.29111e-07
4.36291e-07
4.57557e-07
4.66819e-07
1.35086e-23
4.27678e-21
3.42534e-19
1.24355e-17
2.77084e-16
5.21932e-15
7.89799e-14
7.6562e-13
4.75017e-12
2.05347e-11
6.69395e-11
1.76042e-10
3.90731e-10
7.59218e-10
1.32974e-09
2.14921e-09
3.26524e-09
4.72699e-09
6.54259e-09
8.70624e-09
1.12611e-08
1.42956e-08
1.78856e-08
2.20626e-08
2.68942e-08
3.19708e-08
3.79521e-08
4.56323e-08
5.52961e-08
6.69849e-08
8.06838e-08
9.60917e-08
1.12418e-07
1.28719e-07
1.50769e-07
1.83099e-07
1.59199e-07
2.23811e-07
2.6194e-07
2.76583e-07
2.87801e-07
3.22075e-07
3.93219e-07
4.36309e-07
4.13563e-07
3.71352e-07
3.83811e-07
4.07638e-07
4.26584e-07
4.40848e-07
1.19331e-24
4.99374e-22
5.41001e-20
2.8132e-18
1.53848e-16
7.26393e-15
1.52895e-13
1.58053e-12
9.69503e-12
4.06006e-11
1.27427e-10
3.22443e-10
6.87893e-10
1.28282e-09
2.15119e-09
3.31859e-09
4.79578e-09
6.58148e-09
8.65471e-09
1.09765e-08
1.35057e-08
1.62209e-08
1.9109e-08
2.21611e-08
2.54073e-08
2.89473e-08
3.29608e-08
3.76385e-08
4.31347e-08
4.9651e-08
5.75154e-08
6.70656e-08
7.82976e-08
9.04035e-08
1.06181e-07
1.28082e-07
1.54707e-07
1.81812e-07
2.03286e-07
2.14247e-07
2.14912e-07
2.08956e-07
5.18076e-07
6.17013e-07
6.17466e-07
3.08505e-07
3.53735e-07
3.82492e-07
4.00006e-07
4.11846e-07
8.61059e-26
5.19465e-23
8.84638e-21
1.50687e-18
3.26558e-16
1.89786e-14
3.80249e-13
3.66045e-12
2.10857e-11
8.37789e-11
2.51304e-10
6.11855e-10
1.26148e-09
2.2812e-09
3.71832e-09
5.58495e-09
7.86803e-09
1.05341e-08
1.35232e-08
1.67469e-08
2.01e-08
2.34872e-08
2.68236e-08
3.00268e-08
3.30407e-08
3.58334e-08
3.8424e-08
4.08965e-08
4.33846e-08
4.6117e-08
4.94716e-08
5.39627e-08
6.01246e-08
6.83188e-08
7.8465e-08
9.10626e-08
1.0701e-07
1.26847e-07
1.49346e-07
1.71718e-07
1.91123e-07
2.04894e-07
2.08668e-07
2.28188e-07
2.35767e-07
2.9605e-07
3.36049e-07
3.64132e-07
3.82408e-07
3.94665e-07
5.37377e-27
5.13304e-24
2.58575e-21
3.88122e-18
1.00207e-15
5.14721e-14
9.22748e-13
8.14952e-12
4.39095e-11
1.65387e-10
4.74229e-10
1.11178e-09
2.21807e-09
3.8979e-09
6.19506e-09
9.09861e-09
1.25673e-08
1.65388e-08
2.0916e-08
2.5566e-08
3.03289e-08
3.50608e-08
3.96297e-08
4.38965e-08
4.77445e-08
5.10308e-08
5.36369e-08
5.54787e-08
5.65482e-08
5.70038e-08
5.71944e-08
5.7612e-08
5.8842e-08
6.15206e-08
6.62946e-08
7.3767e-08
8.44216e-08
9.84958e-08
1.15947e-07
1.3656e-07
1.59823e-07
1.85323e-07
2.12893e-07
2.39954e-07
2.62605e-07
2.8268e-07
3.14914e-07
3.58387e-07
3.80965e-07
3.84513e-07
3.35866e-28
1.37488e-24
5.51237e-21
1.39566e-17
2.98621e-15
1.3166e-13
2.10809e-12
1.71141e-11
8.64257e-11
3.09043e-10
8.47777e-10
1.91453e-09
3.6965e-09
6.31459e-09
9.79011e-09
1.40666e-08
1.90591e-08
2.46701e-08
3.07641e-08
3.71657e-08
4.36686e-08
5.011e-08
5.63418e-08
6.21966e-08
6.75428e-08
7.21604e-08
7.58426e-08
7.83747e-08
7.94988e-08
7.91461e-08
7.75763e-08
7.52658e-08
7.27796e-08
7.07619e-08
6.99175e-08
7.09945e-08
7.47596e-08
8.19497e-08
9.31988e-08
1.08931e-07
1.29276e-07
1.54079e-07
1.82676e-07
2.1033e-07
2.29775e-07
2.38643e-07
2.3989e-07
5.09886e-07
6.05771e-07
4.68706e-07
2.599e-28
4.00217e-24
2.28911e-20
4.7858e-17
8.30806e-15
3.15212e-13
4.52708e-12
3.39069e-11
1.60892e-10
5.46996e-10
1.43665e-09
3.12593e-09
5.8404e-09
9.69994e-09
1.46752e-08
2.06341e-08
2.74263e-08
3.49074e-08
4.28972e-08
5.11777e-08
5.95015e-08
6.77172e-08
7.56837e-08
8.32379e-08
9.02928e-08
9.66028e-08
1.01917e-07
1.06198e-07
1.08667e-07
1.08847e-07
1.06849e-07
1.03362e-07
9.88219e-08
9.37725e-08
8.88758e-08
8.48911e-08
8.26813e-08
8.32052e-08
8.74643e-08
9.63691e-08
1.10552e-07
1.30276e-07
1.55164e-07
1.80686e-07
2.01864e-07
2.25009e-07
2.36701e-07
2.4444e-07
5.82144e-07
4.22359e-07
9.76348e-28
1.58109e-23
9.44127e-20
1.52419e-16
2.1553e-14
7.07563e-13
9.16042e-12
6.35293e-11
2.83893e-10
9.18739e-10
2.31168e-09
4.84697e-09
8.76247e-09
1.41538e-08
2.09103e-08
2.8793e-08
3.75647e-08
4.70193e-08
5.69217e-08
6.70071e-08
7.69868e-08
8.67436e-08
9.61438e-08
1.05057e-07
1.13503e-07
1.21258e-07
1.27787e-07
1.35297e-07
1.40425e-07
1.42565e-07
1.40748e-07
1.37441e-07
1.32608e-07
1.26352e-07
1.19188e-07
1.11811e-07
1.05059e-07
9.99391e-08
9.76244e-08
9.934e-08
1.06111e-07
1.18532e-07
1.36887e-07
1.56962e-07
1.67815e-07
1.71058e-07
3.33005e-07
2.69663e-07
2.49689e-07
5.58903e-07
3.69595e-27
5.97785e-23
3.67306e-19
4.50844e-16
5.22493e-14
1.49326e-12
1.75135e-11
1.12835e-10
4.75698e-10
1.46659e-09
3.53687e-09
7.14714e-09
1.25015e-08
1.96503e-08
2.83784e-08
3.83175e-08
4.91274e-08
6.05252e-08
7.22073e-08
8.38526e-08
9.51244e-08
1.05939e-07
1.16134e-07
1.25618e-07
1.34567e-07
1.42472e-07
1.47138e-07
1.62776e-07
1.70632e-07
1.77168e-07
1.75401e-07
1.72613e-07
1.69366e-07
1.63983e-07
1.56547e-07
1.47675e-07
1.3815e-07
1.28933e-07
1.21202e-07
1.16316e-07
1.15555e-07
1.19636e-07
1.29705e-07
1.43869e-07
1.63584e-07
1.72433e-07
2.45493e-07
2.66027e-07
2.49629e-07
4.11075e-07
1.35558e-26
2.14821e-22
1.33491e-18
1.24089e-15
1.1868e-13
2.97149e-12
3.1718e-11
1.90354e-10
7.58058e-10
2.22749e-09
5.15084e-09
1.00332e-08
1.69816e-08
2.59941e-08
3.67461e-08
4.87354e-08
6.15151e-08
7.47115e-08
8.79385e-08
1.00806e-07
1.12914e-07
1.24176e-07
1.3434e-07
1.43298e-07
1.51405e-07
1.55801e-07
1.53757e-07
1.92053e-07
1.738e-07
1.79699e-07
2.13304e-07
2.04405e-07
2.04088e-07
2.0172e-07
1.96157e-07
1.87835e-07
1.77511e-07
1.66101e-07
1.54696e-07
1.4462e-07
1.37262e-07
1.33545e-07
1.35956e-07
1.39652e-07
1.6257e-07
1.7956e-07
1.90436e-07
2.35875e-07
2.50719e-07
2.5003e-07
4.87856e-26
7.39456e-22
4.51698e-18
3.18548e-15
2.53317e-13
5.59124e-12
5.4538e-11
3.05506e-10
1.1501e-09
3.22155e-09
7.14583e-09
1.34215e-08
2.19879e-08
3.28082e-08
4.54672e-08
5.93488e-08
7.39129e-08
8.86869e-08
1.03192e-07
1.16956e-07
1.29506e-07
1.40677e-07
1.50063e-07
1.57409e-07
1.63192e-07
1.57479e-07
2.54528e-07
1.95419e-07
3.9027e-07
5.10939e-07
2.16959e-07
2.16927e-07
2.33132e-07
2.34993e-07
2.33033e-07
2.27211e-07
2.18088e-07
2.0657e-07
1.93646e-07
1.80456e-07
1.68304e-07
1.58493e-07
1.53652e-07
1.55057e-07
1.5803e-07
1.60864e-07
1.61096e-07
3.76219e-07
6.21086e-07
3.32948e-07
1.73872e-25
2.45625e-21
1.42019e-17
7.64773e-15
5.09637e-13
9.9744e-12
8.92009e-11
4.67022e-10
1.66253e-09
4.43955e-09
9.45076e-09
1.71259e-08
2.71746e-08
3.95691e-08
5.38435e-08
6.93121e-08
8.53765e-08
1.01467e-07
1.1701e-07
1.31455e-07
1.44245e-07
1.55063e-07
1.63322e-07
1.68401e-07
1.70641e-07
1.74723e-07
1.78011e-07
4.44946e-06
2.36824e-05
2.58058e-05
8.73098e-06
3.58842e-07
2.42547e-07
2.60801e-07
2.62835e-07
2.60766e-07
2.54524e-07
2.44837e-07
2.32741e-07
2.19027e-07
2.04698e-07
1.91212e-07
1.80333e-07
1.73562e-07
1.70705e-07
1.69759e-07
1.64835e-07
3.4986e-07
6.2711e-07
6.22397e-07
6.1392e-25
7.91199e-21
4.15467e-17
1.72232e-14
9.69356e-13
1.69096e-11
1.38986e-10
6.80623e-10
2.29132e-09
5.83337e-09
1.19257e-08
2.08696e-08
3.21103e-08
4.56883e-08
6.11359e-08
7.77607e-08
9.49606e-08
1.12083e-07
1.28475e-07
1.43527e-07
1.56615e-07
1.67211e-07
1.74567e-07
1.77503e-07
1.75642e-07
1.73308e-07
2.69428e-06
3.40905e-05
3.95238e-05
3.9527e-05
3.95278e-05
7.86925e-06
2.50194e-07
2.75254e-07
2.82706e-07
2.84487e-07
2.82512e-07
2.75431e-07
2.66202e-07
2.54653e-07
2.41347e-07
2.26829e-07
2.12924e-07
2.01798e-07
1.94588e-07
1.90812e-07
1.8894e-07
1.90647e-07
3.70858e-07
3.21823e-07
2.1345e-24
2.47597e-20
1.13329e-16
3.65027e-14
1.74823e-12
2.72975e-11
2.06546e-10
9.46332e-10
3.01271e-09
7.31385e-09
1.43735e-08
2.43233e-08
3.63531e-08
5.06207e-08
6.67005e-08
8.3963e-08
1.01868e-07
1.19708e-07
1.36786e-07
1.52477e-07
1.66114e-07
1.7697e-07
1.84152e-07
1.85951e-07
1.80672e-07
1.73311e-07
1.31282e-05
3.9521e-05
3.95233e-05
3.95237e-05
3.95265e-05
1.90865e-05
3.21331e-07
3.16556e-07
2.87673e-07
2.95672e-07
3.03905e-07
2.94859e-07
2.89041e-07
2.80476e-07
2.72298e-07
2.60337e-07
2.46179e-07
2.33018e-07
2.22777e-07
2.1616e-07
2.12435e-07
2.10284e-07
2.09303e-07
2.23541e-07
7.25206e-24