/*--------------------------------*- C++ -*----------------------------------*\
| =========                 |                                                 |
| \\      /  F ield         | OpenFOAM: The Open Source CFD Toolbox           |
|  \\    /   O peration     | Version:  2.4.0                                 |
|   \\  /    A nd           | Web:      www.OpenFOAM.org                      |
|    \\/     M anipulation  |                                                 |
\*---------------------------------------------------------------------------*/
FoamFile
{
    version     2.0;
    format      ascii;
    class       surfaceScalarField;
    location    "0.046";
    object      phi;
}
// * * * * * * * * * * * * * * * * * * * * * * * * * * * * * * * * * * * * * //

dimensions      [0 3 -1 0 0 0 0];

internalField   nonuniform List<scalar> 
7080
(
-6.58815e-09
6.58815e-09
-1.34994e-08
6.91128e-09
-2.05215e-08
7.02203e-09
-2.72113e-08
6.68982e-09
-3.21951e-08
4.98382e-09
-3.45472e-08
2.35205e-09
-3.25734e-08
-1.97371e-09
-2.44319e-08
-8.14152e-09
-8.11576e-09
-1.63161e-08
1.71752e-08
-2.52909e-08
5.05084e-08
-3.33333e-08
9.0944e-08
-4.04356e-08
1.35622e-07
-4.4678e-08
1.81536e-07
-4.59143e-08
2.29422e-07
-4.78853e-08
2.73729e-07
-4.43078e-08
3.06359e-07
-3.26293e-08
1.54346e-07
1.52012e-07
-2.49423e-07
4.03769e-07
-6.20196e-07
3.70774e-07
-3.96916e-07
-2.2328e-07
2.18132e-07
-6.15048e-07
6.09864e-07
-3.91731e-07
6.76878e-07
-6.70141e-08
5.41943e-07
1.34934e-07
3.71166e-07
1.70777e-07
2.84307e-07
8.68586e-08
2.11953e-07
7.2354e-08
9.26456e-08
1.19308e-07
9.45966e-08
-1.95095e-09
-8.1911e-09
1.47792e-08
-1.70132e-08
1.57334e-08
-2.64617e-08
1.64705e-08
-3.61689e-08
1.63971e-08
-4.4647e-08
1.34619e-08
-5.1026e-08
8.73104e-09
-5.35741e-08
5.74487e-10
-5.03827e-08
-1.1333e-08
-3.92941e-08
-2.74048e-08
-1.83392e-08
-4.62458e-08
1.16514e-08
-6.33239e-08
4.76886e-08
-7.64727e-08
8.7505e-08
-8.44945e-08
1.26712e-07
-8.51216e-08
1.63754e-07
-8.49269e-08
1.88447e-07
-6.90013e-08
1.92745e-07
-3.69269e-08
9.81151e-08
2.46642e-07
-1.40332e-07
6.42216e-07
-3.68957e-07
5.99399e-07
-2.68998e-07
-3.23239e-07
-6.61044e-08
-8.17942e-07
2.45537e-07
-7.03373e-07
3.83616e-07
-2.05092e-07
3.42053e-07
1.76497e-07
2.99735e-07
2.13096e-07
2.92737e-07
9.38566e-08
2.43179e-07
1.21912e-07
1.48069e-07
2.14418e-07
2.43646e-07
-9.80225e-10
-8.3646e-09
2.31438e-08
-1.74193e-08
2.47881e-08
-2.7212e-08
2.62632e-08
-3.74216e-08
2.66067e-08
-4.65882e-08
2.26284e-08
-5.39096e-08
1.60525e-08
-5.7716e-08
4.38084e-09
-5.61424e-08
-1.29065e-08
-4.69866e-08
-3.65606e-08
-2.82066e-08
-6.50257e-08
-4.16501e-10
-9.11141e-08
3.31967e-08
-1.10086e-07
6.9419e-08
-1.20717e-07
1.03654e-07
-1.19357e-07
1.31741e-07
-1.13013e-07
1.41968e-07
-7.9229e-08
1.29964e-07
-2.49231e-08
9.1663e-08
2.84943e-07
-9.2803e-09
7.43159e-07
-1.27891e-07
7.18009e-07
-3.27463e-08
-4.18383e-07
2.4721e-09
-8.5316e-07
1.33294e-07
-8.34195e-07
2.26096e-07
-2.97894e-07
1.99308e-07
2.03284e-07
1.73742e-07
2.38662e-07
1.81712e-07
8.58863e-08
1.4683e-07
1.56795e-07
9.88076e-08
2.6244e-07
3.43004e-07
-5.50744e-10
-8.36624e-09
3.151e-08
-1.74383e-08
3.38602e-08
-2.72748e-08
3.60997e-08
-3.75715e-08
3.69034e-08
-4.68716e-08
3.19286e-08
-5.441e-08
2.35909e-08
-5.85484e-08
8.51921e-09
-5.74439e-08
-1.4011e-08
-4.88346e-08
-4.51699e-08
-3.05711e-08
-8.32892e-08
-3.38634e-09
-1.18299e-07
3.00526e-08
-1.43525e-07
6.57226e-08
-1.56387e-07
9.92024e-08
-1.52836e-07
1.25383e-07
-1.39194e-07
1.35842e-07
-8.96884e-08
1.29347e-07
-1.84282e-08
1.36798e-07
2.77493e-07
2.03254e-07
6.76703e-07
1.50308e-07
7.70956e-07
2.08781e-07
-4.76857e-07
3.2305e-07
-9.67429e-07
2.45407e-07
-7.56552e-07
1.72868e-07
-2.25355e-07
7.30708e-08
3.03081e-07
2.20183e-08
2.89714e-07
-2.15522e-08
1.29457e-07
-2.64233e-08
1.61666e-07
-4.12049e-08
2.77222e-07
3.01498e-07
3.01122e-10
-8.34495e-09
3.9855e-08
-1.74085e-08
4.29238e-08
-2.72549e-08
4.59461e-08
-3.75939e-08
4.72423e-08
-4.69631e-08
4.12979e-08
-5.46345e-08
3.12622e-08
-5.90006e-08
1.28854e-08
-5.82445e-08
-1.47671e-08
-5.00339e-08
-5.33805e-08
-3.20695e-08
-1.01254e-07
-5.03658e-09
-1.45332e-07
2.86196e-08
-1.77181e-07
6.47605e-08
-1.92528e-07
9.88884e-08
-1.86964e-07
1.26585e-07
-1.6689e-07
1.4331e-07
-1.06413e-07
1.49885e-07
-2.50034e-08
1.93158e-07
2.3422e-07
3.5915e-07
5.10711e-07
4.6673e-07
6.63375e-07
3.89737e-07
-3.99864e-07
4.21785e-07
-9.99477e-07
3.81462e-07
-7.16229e-07
3.20965e-07
-1.64858e-07
1.51828e-07
4.72219e-07
-3.85496e-08
4.80092e-07
-1.72526e-07
2.63434e-07
-1.68486e-07
1.57625e-07
-1.16692e-07
2.25428e-07
1.79994e-07
4.81193e-09
-8.31575e-09
4.81707e-08
-1.73652e-08
5.19733e-08
-2.72187e-08
5.57995e-08
-3.76026e-08
5.76262e-08
-4.70454e-08
5.07407e-08
-5.48634e-08
3.90802e-08
-5.94879e-08
1.75099e-08
-5.91356e-08
-1.51194e-08
-5.13924e-08
-6.11237e-08
-3.37579e-08
-1.18888e-07
-6.82169e-09
-1.72268e-07
2.72192e-08
-2.11222e-07
6.40203e-08
-2.29329e-07
9.97842e-08
-2.22728e-07
1.3092e-07
-1.98027e-07
1.59228e-07
-1.34721e-07
1.82985e-07
-4.87601e-08
2.55914e-07
1.6129e-07
4.5652e-07
3.10105e-07
5.71463e-07
5.48432e-07
5.43084e-07
-3.71484e-07
5.40418e-07
-9.96811e-07
4.94552e-07
-6.70363e-07
3.13601e-07
1.6093e-08
2.40018e-07
5.45802e-07
1.69345e-07
5.50765e-07
4.38154e-08
3.88963e-07
-3.14822e-08
2.32923e-07
1.06956e-09
1.92876e-07
1.91149e-07
-1.0085e-08
-8.27994e-09
5.64506e-08
-1.73115e-08
6.10049e-08
-2.71719e-08
6.56599e-08
-3.76083e-08
6.80626e-08
-4.71361e-08
6.02686e-08
-5.5125e-08
4.7069e-08
-6.0054e-08
2.2439e-08
-6.01854e-08
-1.4988e-08
-5.30095e-08
-6.82996e-08
-3.57721e-08
-1.36125e-07
-8.92945e-09
-1.99111e-07
2.55333e-08
-2.45684e-07
6.31828e-08
-2.66979e-07
1.00437e-07
-2.59982e-07
1.34471e-07
-2.3206e-07
1.7103e-07
-1.71281e-07
2.00979e-07
-7.87092e-08
3.1029e-07
5.198e-08
5.05928e-07
1.14466e-07
5.3468e-07
5.1968e-07
5.66784e-07
-4.03588e-07
4.75746e-07
-9.05773e-07
4.01812e-07
-5.96429e-07
2.69901e-07
1.48004e-07
2.3039e-07
5.85312e-07
2.45451e-07
5.35704e-07
1.3508e-07
4.99334e-07
7.70971e-09
3.60293e-07
1.66606e-09
1.9892e-07
1.67121e-07
2.56936e-08
-8.23757e-09
6.46882e-08
-1.72474e-08
7.00148e-08
-2.71145e-08
7.55269e-08
-3.76112e-08
7.85593e-08
-4.72355e-08
6.9893e-08
-5.54193e-08
5.52528e-08
-6.06997e-08
2.77194e-08
-6.13991e-08
-1.42886e-08
-5.48987e-08
-7.47999e-08
-3.81354e-08
-1.52889e-07
-1.13962e-08
-2.2585e-07
2.35526e-08
-2.80633e-07
6.21733e-08
-3.05599e-07
1.0117e-07
-2.98979e-07
1.38853e-07
-2.69743e-07
1.84117e-07
-2.16545e-07
2.17091e-07
-1.11683e-07
3.47398e-07
-7.83267e-08
5.74604e-07
-1.1274e-07
5.56977e-07
5.37307e-07
6.16312e-07
-4.62923e-07
5.83759e-07
-8.7322e-07
4.76845e-07
-4.89515e-07
4.97754e-07
1.27096e-07
4.639e-07
6.19166e-07
3.74082e-07
6.25522e-07
2.83469e-07
5.89947e-07
1.95467e-07
4.48295e-07
7.93367e-08
3.1505e-07
2.64096e-07
-1.76379e-08
-8.18866e-09
7.28768e-08
-1.71728e-08
7.8999e-08
-2.70461e-08
8.54002e-08
-3.76109e-08
8.91241e-08
-4.73424e-08
7.96245e-08
-5.57438e-08
6.36541e-08
-6.14213e-08
3.33969e-08
-6.27756e-08
-1.29343e-08
-5.70645e-08
-8.05109e-08
-4.08609e-08
-1.69092e-07
-1.4248e-08
-2.52463e-07
2.1224e-08
-3.16105e-07
6.08225e-08
-3.45198e-07
1.01351e-07
-3.39508e-07
1.41647e-07
-3.10039e-07
1.89424e-07
-2.64322e-07
2.37774e-07
-1.60033e-07
3.49583e-07
-1.90135e-07
5.80401e-07
-3.43558e-07
7.28701e-07
3.89007e-07
7.77323e-07
-5.11545e-07
6.96834e-07
-7.92731e-07
5.63484e-07
-3.56165e-07
5.13203e-07
1.77376e-07
5.2284e-07
6.09529e-07
4.31428e-07
7.16934e-07
3.39471e-07
6.81904e-07
2.28166e-07
5.59601e-07
9.54419e-08
4.47774e-07
3.677e-07
-8.16243e-09
-8.13316e-09
8.101e-08
-1.70876e-08
8.79534e-08
-2.69663e-08
9.5279e-08
-3.76067e-08
9.97645e-08
-4.74553e-08
8.94732e-08
-5.60952e-08
7.2294e-08
-6.22135e-08
3.95152e-08
-6.43113e-08
-1.08365e-08
-5.95116e-08
-8.53107e-08
-4.39609e-08
-1.84643e-07
-1.75054e-08
-2.78919e-07
1.84694e-08
-3.5208e-07
5.94161e-08
-3.86145e-07
1.01201e-07
-3.81292e-07
1.44406e-07
-3.53244e-07
1.9083e-07
-3.10746e-07
2.63294e-07
-2.32497e-07
3.34223e-07
-2.61065e-07
4.34772e-07
-4.44108e-07
7.70654e-07
5.31258e-08
8.59976e-07
-6.00868e-07
7.31528e-07
-6.64283e-07
6.80443e-07
-3.0508e-07
8.19939e-07
3.78802e-08
6.68142e-07
7.61326e-07
4.00865e-07
9.84212e-07
3.20663e-07
7.62106e-07
1.57657e-07
7.22607e-07
7.79785e-08
5.27452e-07
4.42357e-07
3.32191e-09
-8.07107e-09
8.9081e-08
-1.69915e-08
9.68738e-08
-2.68746e-08
1.05162e-07
-3.75979e-08
1.10488e-07
-4.75725e-08
9.94478e-08
-5.64698e-08
8.11912e-08
-6.30702e-08
4.61157e-08
-6.60032e-08
-7.90348e-09
-6.22449e-08
-8.90689e-08
-4.74505e-08
-1.99437e-07
-2.12002e-08
-3.05169e-07
1.54803e-08
-3.8876e-07
5.73501e-08
-4.28014e-07
1.00473e-07
-4.24415e-07
1.45455e-07
-3.98226e-07
1.88037e-07
-3.53328e-07
2.81426e-07
-3.25885e-07
3.04324e-07
-2.83963e-07
3.57175e-07
-4.96959e-07
7.32559e-07
-3.22258e-07
8.36173e-07
-7.04482e-07
7.92705e-07
-6.20815e-07
9.66573e-07
-4.78948e-07
1.37096e-06
-3.66503e-07
7.3612e-07
1.39616e-06
5.49946e-07
1.17039e-06
2.31248e-07
1.0808e-06
1.61978e-07
7.91877e-07
1.0261e-07
5.8682e-07
5.43563e-07
1.40481e-09
-8.00236e-09
9.70834e-08
-1.68843e-08
1.05756e-07
-2.6771e-08
1.15049e-07
-3.75837e-08
1.21301e-07
-4.76922e-08
1.09556e-07
-5.68632e-08
9.03622e-08
-6.39842e-08
5.32368e-08
-6.78466e-08
-4.04108e-09
-6.52685e-08
-9.16471e-08
-5.13468e-08
-2.13359e-07
-2.53563e-08
-3.31159e-07
1.19935e-08
-4.2611e-07
5.51689e-08
-4.7119e-07
9.93732e-08
-4.6862e-07
1.45061e-07
-4.43914e-07
1.87265e-07
-3.95531e-07
2.74164e-07
-4.12784e-07
3.3431e-07
-3.44109e-07
3.30318e-07
-4.92967e-07
6.63975e-07
-6.55915e-07
7.34792e-07
-7.753e-07
6.61844e-07
-5.47867e-07
1.10644e-06
-9.23548e-07
1.15047e-06
-4.10532e-07
1.19018e-06
1.35646e-06
1.00206e-06
1.35851e-06
6.53099e-07
1.42976e-06
3.86568e-07
1.05841e-06
1.48337e-07
8.25051e-07
6.92941e-07
-1.04204e-09
-7.92701e-09
1.0501e-07
-1.67658e-08
1.14595e-07
-2.66574e-08
1.2494e-07
-3.75632e-08
1.32206e-07
-4.78123e-08
1.19806e-07
-5.72708e-08
9.98206e-08
-6.49478e-08
6.09138e-08
-6.98372e-08
8.48322e-10
-6.85872e-08
-9.2897e-08
-5.56679e-08
-2.26278e-07
-3.00063e-08
-3.56821e-07
8.13361e-09
-4.6425e-07
5.25431e-08
-5.15599e-07
9.78778e-08
-5.13954e-07
1.43494e-07
-4.8953e-07
1.86548e-07
-4.38586e-07
2.56654e-07
-4.8289e-07
3.56614e-07
-4.44069e-07
3.61778e-07
-4.9813e-07
5.47972e-07
-8.42109e-07
5.68727e-07
-7.96055e-07
7.24329e-07
-7.03469e-07
1.33472e-07
-3.32691e-07
3.67421e-07
-6.44481e-07
1.13519e-06
5.88684e-07
1.55106e-06
9.42639e-07
1.56987e-06
1.41095e-06
1.46291e-06
1.16537e-06
1.02413e-06
1.26383e-06
1.6169e-06
1.00174e-07
-7.84498e-09
1.12855e-07
-1.66357e-08
1.23385e-07
-2.65346e-08
1.34839e-07
-3.75355e-08
1.43207e-07
-4.79309e-08
1.30201e-07
-5.76874e-08
1.09577e-07
-6.59481e-08
6.91746e-08
-7.19669e-08
6.86711e-09
-7.22085e-08
-9.26555e-08
-6.04341e-08
-2.38053e-07
-3.51894e-08
-3.82066e-07
3.72217e-09
-5.03161e-07
4.94793e-08
-5.61356e-07
9.60666e-08
-5.60542e-07
1.40692e-07
-5.34156e-07
1.82473e-07
-4.80367e-07
2.4012e-07
-5.40537e-07
3.36623e-07
-5.40572e-07
4.37988e-07
-5.99495e-07
5.63267e-07
-9.67388e-07
4.61178e-07
-6.93966e-07
6.63661e-07
-9.05951e-07
1.76495e-07
1.54472e-07
1.00959e-07
-5.68941e-07
9.31615e-07
-2.41977e-07
1.24201e-06
6.32243e-07
1.2602e-06
1.39277e-06
8.53204e-07
1.57236e-06
3.51692e-07
1.76534e-06
1.95537e-06
1.32168e-08
-7.75624e-09
1.20612e-07
-1.64937e-08
1.32123e-07
-2.64022e-08
1.44748e-07
-3.74998e-08
1.54305e-07
-4.80458e-08
1.40747e-07
-5.81074e-08
1.19639e-07
-6.69746e-08
7.80418e-08
-7.4229e-08
1.41216e-08
-7.61348e-08
-9.07497e-08
-6.56661e-08
-2.48521e-07
-4.0942e-08
-4.0679e-07
-1.45984e-09
-5.42643e-07
4.6184e-08
-6.09e-07
9.40916e-08
-6.08449e-07
1.37572e-07
-5.77636e-07
1.7709e-07
-5.19885e-07
2.22147e-07
-5.85594e-07
3.1035e-07
-6.28775e-07
5.06608e-07
-7.95753e-07
5.87146e-07
-1.04793e-06
5.84055e-07
-6.90875e-07
3.48716e-07
-6.70613e-07
1.0426e-06
-5.39415e-07
7.86861e-07
-3.132e-07
7.56789e-07
-2.11902e-07
7.1073e-07
6.78297e-07
6.05763e-07
1.49774e-06
3.60451e-07
1.81767e-06
1.14596e-07
2.0112e-06
2.07166e-06
-1.68845e-09
-7.66078e-09
1.28272e-07
-1.63394e-08
1.40802e-07
-2.62597e-08
1.54668e-07
-3.7455e-08
1.655e-07
-4.81548e-08
1.51447e-07
-5.85248e-08
1.30008e-07
-6.80122e-08
8.75292e-08
-7.6608e-08
2.27173e-08
-8.03738e-08
-8.69839e-08
-7.13887e-08
-2.57506e-07
-4.73008e-08
-4.30878e-07
-7.08437e-09
-5.8286e-07
4.25565e-08
-6.58641e-07
9.19562e-08
-6.57849e-07
1.33711e-07
-6.19391e-07
1.6711e-07
-5.53284e-07
2.12548e-07
-6.31031e-07
2.67899e-07
-6.84127e-07
5.04439e-07
-1.03229e-06
5.4251e-07
-1.086e-06
1.21991e-06
-1.36828e-06
3.24753e-07
2.24547e-07
7.81688e-08
-2.92836e-07
2.41066e-07
-4.76095e-07
1.62663e-07
-1.33494e-07
2.06031e-07
6.34928e-07
2.01352e-07
1.50242e-06
9.72748e-08
1.92175e-06
-4.59137e-10
2.10893e-06
2.07851e-06
-7.31659e-09
-7.55856e-09
1.35831e-07
-1.61724e-08
1.49415e-07
-2.61067e-08
1.64602e-07
-3.74e-08
1.76793e-07
-4.82558e-08
1.62303e-07
-5.89334e-08
1.40686e-07
-6.90431e-08
9.76389e-08
-7.90869e-08
3.27611e-08
-8.49287e-08
-8.11421e-08
-7.76281e-08
-2.64807e-07
-5.43013e-08
-4.54205e-07
-1.31707e-08
-6.2399e-07
3.88412e-08
-7.10653e-07
9.01649e-08
-7.09173e-07
1.30575e-07
-6.59801e-07
1.56675e-07
-5.79385e-07
1.97062e-07
-6.71418e-07
2.91068e-07
-7.78133e-07
4.86492e-07
-1.22772e-06
2.1242e-07
-8.11925e-07
-7.83543e-07
-3.72314e-07
-1.88072e-07
-3.70921e-07
-1.40837e-07
-3.40075e-07
-1.45485e-07
-4.71452e-07
-1.87959e-07
-9.10175e-08
-1.85982e-07
6.32952e-07
-1.37668e-07
1.4541e-06
-1.12762e-07
1.89684e-06
-6.829e-08
2.06446e-06
2.01117e-06
-9.53539e-10
-7.44956e-09
1.4328e-07
-1.59919e-08
1.57958e-07
-2.59428e-08
1.74553e-07
-3.73338e-08
1.88184e-07
-4.83464e-08
1.73315e-07
-5.93267e-08
1.51666e-07
-7.00441e-08
1.08356e-07
-8.16279e-08
4.43449e-08
-8.98048e-08
-7.29652e-08
-8.44175e-08
-2.70194e-07
-6.20179e-08
-4.76604e-07
-1.99462e-08
-6.66062e-07
3.42912e-08
-7.6489e-07
8.76106e-08
-7.62492e-07
1.26559e-07
-6.98749e-07
1.42566e-07
-5.95392e-07
1.69855e-07
-6.98706e-07
3.16255e-07
-9.24533e-07
4.67482e-07
-1.37894e-06
5.96136e-07
-9.40579e-07
2.52901e-07
-2.90795e-08
-4.82136e-08
-6.98063e-08
-2.08993e-07
-1.79297e-07
-3.82207e-07
-2.98237e-07
-4.87826e-07
1.46048e-08
-5.19749e-07
6.64874e-07
-4.47847e-07
1.3822e-06
-3.14901e-07
1.7639e-06
-1.56909e-07
1.90646e-06
1.843e-06
1.12612e-08
-7.3338e-09
1.50614e-07
-1.57973e-08
1.66421e-07
-2.57677e-08
1.84524e-07
-3.72551e-08
1.99672e-07
-4.84247e-08
1.84485e-07
-5.96983e-08
1.6294e-07
-7.09853e-08
1.19643e-07
-8.42034e-08
5.7563e-08
-9.50026e-08
-6.2166e-08
-9.17658e-08
-2.73431e-07
-7.0404e-08
-4.97966e-07
-2.71185e-08
-7.09348e-07
2.99093e-08
-8.21918e-07
8.57205e-08
-8.18304e-07
1.25983e-07
-7.39012e-07
1.40122e-07
-6.09531e-07
1.39543e-07
-6.98127e-07
3.23545e-07
-1.10853e-06
3.14719e-07
-1.37012e-06
3.00697e-07
-9.26558e-07
-3.76499e-08
3.09267e-07
-2.57496e-07
1.50039e-07
-3.646e-07
-7.21932e-08
-5.19324e-07
-1.43514e-07
-6.4202e-07
1.37304e-07
-7.07937e-07
7.30793e-07
-6.08258e-07
1.28252e-06
-3.93303e-07
1.54894e-06
-1.56158e-07
1.66932e-06
1.66998e-06
1.68686e-08
-7.21127e-09
1.57825e-07
-1.55876e-08
1.74798e-07
-2.55809e-08
1.94517e-07
-3.71628e-08
2.11254e-07
-4.84893e-08
1.95811e-07
-6.00422e-08
1.74493e-07
-7.18399e-08
1.31441e-07
-8.6863e-08
7.25861e-08
-1.0054e-07
-4.84886e-08
-9.97992e-08
-2.74172e-07
-7.9991e-08
-5.17774e-07
-3.67799e-08
-7.52559e-07
1.97956e-08
-8.78494e-07
7.5832e-08
-8.7434e-07
1.23083e-07
-7.86263e-07
1.45321e-07
-6.31769e-07
1.05459e-07
-6.58265e-07
3.04634e-07
-1.30771e-06
3.91228e-08
-1.10461e-06
-2.35622e-07
-6.51812e-07
-1.89189e-07
2.62832e-07
-3.32583e-07
2.93432e-07
-4.20655e-07
1.58818e-08
-5.58236e-07
-5.9341e-09
-6.44008e-07
2.23076e-07
-6.11128e-07
6.97914e-07
-4.91647e-07
1.16304e-06
-3.50721e-07
1.40802e-06
-1.6262e-07
1.48122e-06
1.47198e-06
3.53767e-08
-7.08205e-09
1.64907e-07
-1.53618e-08
1.83077e-07
-2.53824e-08
2.04537e-07
-3.70556e-08
2.22927e-07
-4.85419e-08
2.07298e-07
-6.03529e-08
1.86304e-07
-7.26357e-08
1.43724e-07
-8.96259e-08
8.95764e-08
-1.06374e-07
-3.17402e-08
-1.08291e-07
-2.72255e-07
-8.98704e-08
-5.36195e-07
-4.7127e-08
-7.95302e-07
5.44244e-09
-9.31063e-07
5.68028e-08
-9.257e-07
1.18461e-07
-8.47921e-07
1.82092e-07
-6.954e-07
1.93157e-07
-6.6933e-07
3.44709e-07
-1.45926e-06
1.627e-07
-9.22598e-07
-5.37999e-07
4.88873e-08
-4.88441e-07
2.13274e-07
-3.97613e-07
2.02602e-07
-4.34114e-07
5.23822e-08
-5.53577e-07
1.1353e-07
-6.23874e-07
2.93373e-07
-5.45685e-07
6.19727e-07
-4.32938e-07
1.05029e-06
-3.15719e-07
1.2908e-06
-1.61693e-07
1.3272e-06
1.30117e-06
9.11926e-09
-6.9462e-09
1.71854e-07
-1.51185e-08
1.9125e-07
-2.51719e-08
2.14591e-07
-3.6932e-08
2.34687e-07
-4.85843e-08
2.1895e-07
-6.06247e-08
1.98344e-07
-7.33657e-08
1.56465e-07
-9.24916e-08
1.08702e-07
-1.12622e-07
-1.16094e-08
-1.18068e-07
-2.6681e-07
-1.03591e-07
-5.50671e-07
-6.85897e-08
-8.30303e-07
-2.79026e-08
-9.7175e-07
1.79341e-08
-9.71537e-07
1.11645e-07
-9.41632e-07
2.15783e-07
-7.99538e-07
3.21445e-07
-7.74992e-07
3.27188e-07
-1.465e-06
7.38146e-08
-6.69225e-07
-4.34677e-07
5.57379e-07
-3.80916e-07
1.59512e-07
-3.88039e-07
2.09727e-07
-4.18024e-07
8.23657e-08
-5.14422e-07
2.0993e-07
-5.94779e-07
3.7373e-07
-5.94234e-07
6.19182e-07
-4.91743e-07
9.47801e-07
-3.44123e-07
1.14318e-06
-1.79567e-07
1.16265e-06
1.13726e-06
-1.56525e-08
-6.80391e-09
1.78658e-07
-1.48564e-08
1.99302e-07
-2.49495e-08
2.24684e-07
-3.67905e-08
2.46528e-07
-4.86186e-08
2.30778e-07
-6.08524e-08
2.10578e-07
-7.40109e-08
1.69623e-07
-9.54233e-08
1.30115e-07
-1.18988e-07
1.19553e-08
-1.27469e-07
-2.58329e-07
-1.16037e-07
-5.62103e-07
-8.84726e-08
-8.57868e-07
-5.19443e-08
-1.00828e-06
2.4258e-08
-1.04774e-06
1.67265e-07
-1.08464e-06
2.12631e-07
-8.44904e-07
3.20159e-07
-8.8252e-07
2.09095e-07
-1.35394e-06
-5.65406e-07
1.05276e-07
-3.01325e-07
2.93298e-07
-2.48241e-07
1.06427e-07
-2.75516e-07
2.37004e-07
-3.54415e-07
1.61264e-07
-4.34093e-07
2.89608e-07
-5.22012e-07
4.61651e-07
-5.56803e-07
6.5397e-07
-4.76378e-07
8.67376e-07
-3.32994e-07
9.99803e-07
-1.81481e-07
1.01113e-06
9.82922e-07
-2.71433e-08
-6.65538e-09
1.85313e-07
-1.4574e-08
2.07221e-07
-2.47151e-08
2.34825e-07
-3.66288e-08
2.58442e-07
-4.86458e-08
2.42795e-07
-6.10267e-08
2.22959e-07
-7.45332e-08
1.8313e-07
-9.84067e-08
1.53988e-07
-1.26232e-07
3.97809e-08
-1.41016e-07
-2.43546e-07
-1.40478e-07
-5.62641e-07
-1.25855e-07
-8.72491e-07
-9.08821e-08
-1.04325e-06
-7.3238e-09
-1.1313e-06
3.15744e-08
-1.12354e-06
9.79252e-08
-9.11255e-07
2.15416e-07
-1.00001e-06
-2.61248e-07
-8.77277e-07
5.13054e-07
-6.69026e-07
3.92743e-07
4.13608e-07
3.04676e-08
4.68705e-07
-7.63557e-08
3.43825e-07
-2.32977e-07
3.17884e-07
-3.24738e-07
3.8137e-07
-4.0692e-07
5.43834e-07
-4.40177e-07
6.87226e-07
-3.88225e-07
8.15428e-07
-2.81249e-07
8.92832e-07
-1.63891e-07
8.93776e-07
8.53053e-07
-3.40221e-08
-6.50091e-09
1.91814e-07
-1.42698e-08
2.1499e-07
-2.44694e-08
2.45025e-07
-3.64452e-08
2.70417e-07
-4.86713e-08
2.55021e-07
-6.11508e-08
2.35439e-07
-7.49376e-08
1.96917e-07
-1.01349e-07
1.804e-07
-1.32502e-07
7.09336e-08
-1.48299e-07
-2.27749e-07
-1.43513e-07
-5.67427e-07
-1.03151e-07
-9.12853e-07
-2.54389e-08
-1.12096e-06
7.02519e-08
-1.22699e-06
1.64822e-07
-1.21811e-06
2.23608e-07
-9.7004e-07
2.53234e-07
-1.02964e-06
1.03666e-07
-7.27709e-07
2.03379e-06
-2.59915e-06
8.09797e-07
1.6376e-06
5.75814e-07
7.02689e-07
2.28998e-07
6.90637e-07
-3.3076e-08
5.79955e-07
-1.88558e-07
5.36854e-07
-2.85096e-07
6.4037e-07
-3.20597e-07
7.22727e-07
-2.93884e-07
7.88722e-07
-2.20407e-07
8.19356e-07
-1.29252e-07
8.0262e-07
7.5555e-07
-3.1748e-08
-6.34051e-09
1.98154e-07
-1.39417e-08
2.22591e-07
-2.4211e-08
2.55294e-07
-3.62311e-08
2.82438e-07
-4.86845e-08
2.67475e-07
-6.11817e-08
2.47936e-07
-7.51221e-08
2.10857e-07
-1.04433e-07
2.09711e-07
-1.42098e-07
1.08598e-07
-1.73696e-07
-1.9615e-07
-1.96647e-07
-5.44475e-07
-1.88043e-07
-9.21458e-07
-1.48636e-07
-1.16037e-06
-1.18074e-07
-1.25755e-06
1.0591e-08
-1.34677e-06
1.16489e-07
-1.07594e-06
3.09624e-09
-9.16244e-07
-1.33398e-06
6.09369e-07
1.03237e-07
-4.03637e-06
1.72461e-06
1.62232e-08
1.10291e-06
1.32439e-06
5.75539e-07
1.218e-06
1.62333e-07
9.93161e-07
-6.70754e-08
7.66262e-07
-1.83075e-07
7.56367e-07
-2.2205e-07
7.61705e-07
-2.08977e-07
7.75652e-07
-1.5991e-07
7.70288e-07
-9.51455e-08
7.37854e-07
6.8623e-07
-2.58246e-08
-6.17735e-09
2.04332e-07
-1.35906e-08
2.30004e-07
-2.39456e-08
2.65649e-07
-3.59991e-08
2.94491e-07
-4.87252e-08
2.80201e-07
-6.11893e-08
2.604e-07
-7.51896e-08
2.24857e-07
-1.07178e-07
2.417e-07
-1.46256e-07
1.47676e-07
-1.6559e-07
-1.76816e-07
-1.47117e-07
-5.62948e-07
-8.34316e-08
-9.85143e-07
-1.87794e-08
-1.22502e-06
4.34769e-08
-1.31981e-06
1.64818e-07
-1.46811e-06
2.53593e-07
-1.16471e-06
2.97907e-07
-9.60558e-07
3.50895e-06
-2.60167e-06
1.46073e-06
-1.98815e-06
1.91542e-07
1.28541e-06
6.49945e-07
8.65988e-07
4.44149e-07
1.4238e-06
1.35704e-07
1.30161e-06
-3.70833e-08
9.39045e-07
-1.26068e-07
8.45352e-07
-1.56174e-07
7.91815e-07
-1.47864e-07
7.67342e-07
-1.14033e-07
7.36453e-07
-6.84792e-08
6.92301e-07
6.37967e-07
-2.02156e-08
-6.04758e-09
2.10379e-07
-1.32051e-08
2.37162e-07
-2.36535e-08
2.76097e-07
-3.57025e-08
3.0654e-07
-4.86903e-08
2.93188e-07
-6.09864e-08
2.72696e-07
-7.48647e-08
2.38736e-07
-1.09483e-07
2.76318e-07
-1.55236e-07
1.93429e-07
-1.97264e-07
-1.34789e-07
-2.32029e-07
-5.28183e-07
-2.40342e-07
-9.7683e-07
-1.94088e-07
-1.27128e-06
-9.94064e-08
-1.41449e-06
1.12646e-07
-1.68017e-06
2.18247e-07
-1.27031e-06
6.76406e-07
-1.41872e-06
1.11543e-06
-3.04069e-06
-6.08156e-07
-2.64572e-07
-2.14775e-07
8.92033e-07
2.1342e-07
4.3779e-07
1.29539e-07
1.50768e-06
3.81498e-08
1.393e-06
-5.5244e-08
1.03244e-06
-1.0361e-07
8.9372e-07
-1.19184e-07
8.07392e-07
-1.09592e-07
7.57747e-07
-8.36882e-08
7.10545e-07
-5.03213e-08
6.58935e-07
6.03343e-07
-1.56964e-08
-6.5032e-09
2.16882e-07
-1.28321e-08
2.43491e-07
-2.34646e-08
2.8673e-07
-3.56532e-08
3.18729e-07
-4.90212e-08
3.06557e-07
-6.08778e-08
2.84553e-07
-7.43348e-08
2.52193e-07
-1.15346e-07
3.17329e-07
-1.73139e-07
2.51222e-07
-2.19867e-07
-8.8061e-08
-2.45159e-07
-5.02891e-07
-2.48233e-07
-9.73756e-07
-2.3737e-07
-1.28214e-06
-1.67544e-07
-1.48432e-06
-2.95091e-08
-1.8182e-06
-9.04191e-08
-1.2094e-06
1.71213e-06
-3.22127e-06
5.17959e-07
-1.84652e-06
-3.30863e-07
5.84251e-07
-2.02875e-08
5.81455e-07
-3.45643e-07
7.63145e-07
-1.65933e-07
1.32797e-06
-4.04883e-08
1.26755e-06
-8.7041e-08
1.07899e-06
-9.95426e-08
9.06225e-07
-1.00702e-07
8.08552e-07
-8.72858e-08
7.44327e-07
-6.4891e-08
6.88148e-07
-3.85943e-08
6.32639e-07
5.76909e-07
-1.21605e-08
-7.75089e-09
2.24633e-07
-1.01428e-08
2.45882e-07
-1.90387e-08
2.95626e-07
-2.99253e-08
3.29615e-07
-4.51255e-08
3.21757e-07
-6.05918e-08
3.00019e-07
-7.59611e-08
2.67562e-07
-1.09408e-07
3.50777e-07
-1.53834e-07
2.95647e-07
-2.02274e-07
-3.962e-08
-2.17854e-07
-4.87311e-07
-1.81813e-07
-1.0098e-06
-1.15989e-07
-1.34796e-06
2.8794e-08
-1.6291e-06
1.65627e-07
-1.95503e-06
1.91121e-07
-1.2349e-06
2.42533e-06
-5.45548e-06
1.37093e-06
-7.92115e-07
1.24326e-06
7.11916e-07
3.20353e-07
1.50436e-06
-1.64566e-07
1.24807e-06
-2.36678e-07
1.40008e-06
-1.09596e-07
1.14047e-06
-1.06955e-07
1.07634e-06
-9.88595e-08
8.98131e-07
-8.85953e-08
7.98287e-07
-7.27471e-08
7.28474e-07
-5.23691e-08
6.67769e-07
-3.04762e-08
6.10747e-07
-9.159e-09
5.5559e-07
-9.56231e-08
9.36722e-08
-2.13836e-07
1.18213e-07
-2.855e-07
7.16632e-08
-3.71316e-07
8.58167e-08
-5.42166e-07
1.7085e-07
-6.77688e-07
1.35522e-07
-6.10966e-07
-6.67229e-08
-2.19939e-07
-3.91026e-07
3.95856e-07
-6.15795e-07
6.20254e-07
-2.24397e-07
2.49131e-07
3.71122e-07
-1.54406e-07
4.03537e-07
-3.06298e-07
1.51892e-07
-2.73639e-07
-3.26589e-08
-2.29383e-07
-4.42564e-08
-1.81503e-07
-4.78796e-08
-1.35597e-07
-4.59063e-08
-9.09309e-08
-4.46661e-08
-5.05077e-08
-4.04232e-08
-1.71928e-08
-3.33149e-08
8.07521e-09
-2.5268e-08
2.43728e-08
-1.62976e-08
3.25008e-08
-8.12804e-09
3.44771e-08
-1.97631e-09
3.2151e-08
2.32615e-09
2.71861e-08
4.96488e-09
2.05265e-08
6.65965e-09
1.34968e-08
7.02971e-09
6.59158e-09
6.90521e-09
6.59156e-09
-1.50315e-07
2.43007e-07
-2.45507e-07
2.13405e-07
-2.94321e-07
1.20477e-07
-3.00926e-07
9.24212e-08
-3.43153e-07
2.13077e-07
-3.84536e-07
1.76905e-07
-2.46642e-07
-2.04617e-07
6.47355e-08
-7.02404e-07
2.67498e-07
-8.18558e-07
3.68135e-07
-3.25034e-07
1.3939e-07
5.99866e-07
-9.86163e-08
6.41544e-07
-1.92874e-07
2.4615e-07
-1.88457e-07
-3.70757e-08
-1.63738e-07
-6.89755e-08
-1.2668e-07
-8.49376e-08
-8.7473e-08
-8.51132e-08
-4.76646e-08
-8.44745e-08
-1.16397e-08
-7.6448e-08
1.83272e-08
-6.32818e-08
3.92542e-08
-4.61951e-08
5.03196e-08
-2.7363e-08
5.34953e-08
-1.13037e-08
5.09502e-08
5.68735e-10
4.45998e-08
8.67657e-09
3.61402e-08
1.34246e-08
2.64677e-08
1.63321e-08
1.701e-08
1.64875e-08
8.19485e-09
1.57203e-08
1.47864e-08
-9.9783e-08
3.4224e-07
-1.4753e-07
2.61152e-07
-1.82979e-07
1.55926e-07
-1.74668e-07
8.41099e-08
-1.99795e-07
2.38205e-07
-2.26519e-07
2.03629e-07
-1.33134e-07
-2.98002e-07
-2.09902e-09
-8.33439e-07
3.14754e-08
-8.52132e-07
1.26592e-07
-4.2015e-07
8.42832e-09
7.1803e-07
-9.22851e-08
7.42257e-07
-1.30221e-07
2.84086e-07
-1.42072e-07
-2.52251e-08
-1.31757e-07
-7.92898e-08
-1.03634e-07
-1.13061e-07
-6.93879e-08
-1.19359e-07
-3.3171e-08
-1.20691e-07
4.32262e-10
-1.10051e-07
2.81971e-08
-9.10466e-08
4.69477e-08
-6.49457e-08
5.6079e-08
-3.64943e-08
5.7636e-08
-1.28607e-08
5.38328e-08
4.3719e-09
4.65407e-08
1.59688e-08
3.73925e-08
2.25727e-08
2.72182e-08
2.65064e-08
1.74159e-08
2.62898e-08
8.36829e-09
2.4768e-08
2.31547e-08
4.25959e-08
2.99945e-07
2.59801e-08
2.77768e-07
1.95805e-08
1.62326e-07
-2.41409e-08
1.27831e-07
-7.30677e-08
2.87132e-07
-1.71407e-07
3.01969e-07
-2.43441e-07
-2.25969e-07
-3.22034e-07
-7.54846e-07
-2.09591e-07
-9.64575e-07
-1.51242e-07
-4.785e-07
-2.04548e-07
7.71336e-07
-1.37333e-07
6.75043e-07
-1.29654e-07
2.76406e-07
-1.35976e-07
-1.89026e-08
-1.25415e-07
-8.9851e-08
-9.91848e-08
-1.39292e-07
-6.56919e-08
-1.52852e-07
-3.00281e-08
-1.56355e-07
3.40229e-09
-1.43482e-07
3.05623e-08
-1.18207e-07
4.87959e-08
-8.31793e-08
5.73801e-08
-4.50785e-08
5.84677e-08
-1.39483e-08
5.43325e-08
8.50715e-09
4.68239e-08
2.34773e-08
3.75426e-08
3.18541e-08
2.72818e-08
3.67672e-08
1.74349e-08
3.61367e-08
8.36992e-09
3.3833e-08
3.15246e-08
1.23803e-07
1.80954e-07
1.69753e-07
2.31818e-07
1.72235e-07
1.59843e-07
3.94651e-08
2.60602e-07
-1.50203e-07
4.768e-07
-3.20521e-07
4.72287e-07
-3.80243e-07
-1.66247e-07
-4.22204e-07
-7.12885e-07
-3.89932e-07
-9.96847e-07
-4.66456e-07
-4.01976e-07
-3.60198e-07
6.65078e-07
-1.93471e-07
5.08316e-07
-1.50174e-07
2.33109e-07
-1.43448e-07
-2.56289e-08
-1.26614e-07
-1.06685e-07
-9.88662e-08
-1.67039e-07
-6.47259e-08
-1.86992e-07
-2.85867e-08
-1.92494e-07
5.05385e-09
-1.77122e-07
3.20612e-08
-1.45214e-07
4.99948e-08
-1.01113e-07
5.81798e-08
-5.32635e-08
5.89187e-08
-1.46872e-08
5.4556e-08
1.28699e-08
4.69153e-08
3.1118e-08
3.75652e-08
4.12043e-08
2.72629e-08
4.70695e-08
1.7405e-08
4.59945e-08
8.34862e-09
4.28894e-08
3.98732e-08
-1.50863e-08
1.85956e-07
2.48695e-08
1.91862e-07
-4.39518e-08
2.28665e-07
-1.68527e-07
3.85177e-07
-2.40504e-07
5.48777e-07
-3.08067e-07
5.3985e-07
-4.9149e-07
1.71763e-08
-5.4146e-07
-6.62914e-07
-5.42314e-07
-9.95993e-07
-5.71175e-07
-3.73115e-07
-4.5769e-07
5.51593e-07
-2.55909e-07
3.06536e-07
-1.8319e-07
1.6039e-07
-1.59319e-07
-4.94992e-08
-1.30929e-07
-1.35075e-07
-9.97545e-08
-1.98214e-07
-6.39812e-08
-2.22765e-07
-2.71884e-08
-2.29287e-07
6.84016e-09
-2.11151e-07
3.375e-08
-1.72124e-07
5.13528e-08
-1.18716e-07
5.90697e-08
-6.09804e-08
5.94047e-08
-1.50221e-08
5.47838e-08
1.74908e-08
4.69975e-08
3.89042e-08
3.75743e-08
5.06275e-08
2.72279e-08
5.74159e-08
1.73617e-08
5.58607e-08
8.31941e-09
5.19318e-08
4.81926e-08
3.45276e-08
1.77122e-07
1.48112e-08
2.11579e-07
-1.21054e-07
3.6453e-07
-2.37824e-07
5.01947e-07
-2.27719e-07
5.38672e-07
-2.75602e-07
5.87732e-07
-4.01857e-07
1.43432e-07
-4.76127e-07
-5.88645e-07
-5.65663e-07
-9.06458e-07
-5.34952e-07
-4.03826e-07
-5.06582e-07
5.23223e-07
-3.10049e-07
1.10003e-07
-2.01063e-07
5.1403e-08
-1.71059e-07
-7.95029e-08
-1.34454e-07
-1.7168e-07
-1.00396e-07
-2.32273e-07
-6.31382e-08
-2.60023e-07
-2.55004e-08
-2.66925e-07
8.94926e-09
-2.45601e-07
3.57647e-08
-1.98939e-07
5.29693e-08
-1.3592e-07
6.01181e-08
-6.81292e-08
5.99687e-08
-1.48726e-08
5.50438e-08
2.24157e-08
4.70881e-08
4.68599e-08
3.75805e-08
6.01351e-08
2.71827e-08
6.78137e-08
1.73079e-08
6.57355e-08
8.28358e-09
6.09561e-08
5.64761e-08
-1.03413e-07
2.62897e-07
-2.03457e-07
3.11623e-07
-2.94163e-07
4.55235e-07
-3.73859e-07
5.81644e-07
-4.60148e-07
6.24961e-07
-4.97367e-07
6.24951e-07
-4.81679e-07
1.27744e-07
-5.82744e-07
-4.8758e-07
-6.16481e-07
-8.72721e-07
-5.5656e-07
-4.63748e-07
-5.74243e-07
5.40907e-07
-3.47346e-07
-1.16895e-07
-2.17012e-07
-7.89308e-08
-1.84114e-07
-1.12401e-07
-1.38815e-07
-2.16979e-07
-1.01118e-07
-2.6997e-07
-6.21105e-08
-2.9903e-07
-2.35176e-08
-3.05518e-07
1.14172e-08
-2.80535e-07
3.81286e-08
-2.2565e-07
5.48579e-08
-1.5265e-07
6.13303e-08
-7.46017e-08
6.06122e-08
-1.41545e-08
5.53364e-08
2.76915e-08
4.71873e-08
5.5009e-08
3.75841e-08
6.97383e-08
2.71273e-08
7.82704e-08
1.72438e-08
7.5619e-08
8.24119e-09
6.99587e-08
6.47173e-08
-1.06744e-07
3.61479e-07
-2.32648e-07
4.37527e-07
-3.38839e-07
5.61426e-07
-4.26514e-07
6.69319e-07
-5.17696e-07
7.16143e-07
-5.07194e-07
6.14448e-07
-5.62835e-07
1.83386e-07
-6.96173e-07
-3.54241e-07
-7.77223e-07
-7.91671e-07
-7.28365e-07
-5.12606e-07
-5.79278e-07
3.91821e-07
-3.49643e-07
-3.4653e-07
-2.37579e-07
-1.90995e-07
-1.89364e-07
-1.60616e-07
-1.41582e-07
-2.6476e-07
-1.01283e-07
-3.10269e-07
-6.07636e-08
-3.39549e-07
-2.11868e-08
-3.45095e-07
1.42703e-08
-3.15993e-07
4.08545e-08
-2.52235e-07
5.70226e-08
-1.68818e-07
6.27053e-08
-8.02844e-08
6.13312e-08
-1.27805e-08
5.56588e-08
3.33639e-08
4.72941e-08
6.33737e-08
3.75845e-08
7.94479e-08
2.70613e-08
8.87936e-08
1.71691e-08
8.55112e-08
8.19223e-09
7.89356e-08
7.29095e-08
-6.46334e-08
4.29434e-07
-1.57639e-07
5.30533e-07
-3.06989e-07
7.10776e-07
-3.98215e-07
7.60545e-07
-6.63442e-07
9.8137e-07
-8.13115e-07
7.6412e-07
-6.76309e-07
4.65798e-08
-7.29935e-07
-3.00616e-07
-8.59677e-07
-6.61929e-07
-7.70961e-07
-6.01322e-07