/*--------------------------------*- C++ -*----------------------------------*\
| =========                 |                                                 |
| \\      /  F ield         | OpenFOAM: The Open Source CFD Toolbox           |
|  \\    /   O peration     | Version:  2.4.0                                 |
|   \\  /    A nd           | Web:      www.OpenFOAM.org                      |
|    \\/     M anipulation  |                                                 |
\*---------------------------------------------------------------------------*/
FoamFile
{
    version     2.0;
    format      ascii;
    class       volVectorField;
    location    "0.046";
    object      U;
}
// * * * * * * * * * * * * * * * * * * * * * * * * * * * * * * * * * * * * * //

dimensions      [0 1 -1 0 0 0 0];

internalField   nonuniform List<vector> 
3600
(
(-0.000947252 5.68304e-05 0)
(-0.00293239 6.05425e-05 0)
(-0.00501548 6.4308e-05 0)
(-0.00711577 6.19755e-05 0)
(-0.00892055 3.9047e-05 0)
(-0.0100806 -4.97161e-06 0)
(-0.01025 -8.91943e-05 0)
(-0.00887322 -0.000223918 0)
(-0.00544415 -0.000428476 0)
(0.000642305 -0.000688221 0)
(0.00952983 -0.000968203 0)
(0.0207759 -0.00128455 0)
(0.033735 -0.00157701 0)
(0.0474412 -0.0018251 0)
(0.0616878 -0.00219051 0)
(0.0747188 -0.00248761 0)
(0.0887799 -0.00299199 0)
(0.0852615 0.00522087 0)
(0.0270967 0.0208411 0)
(-0.188247 0.00978784 0)
(-0.231618 -0.0548496 0)
(0.0360561 -0.130729 0)
(0.0702158 -0.0781693 0)
(0.233783 -0.0259038 0)
(0.216182 0.00663407 0)
(0.118557 0.0258381 0)
(0.0905221 0.0185908 0)
(0.0755916 0.0131888 0)
(0.052635 0.0312557 0)
(0.0118422 0.0376122 0)
(-0.00116825 0.000205941 0)
(-0.00365429 0.000243946 0)
(-0.00636972 0.000279476 0)
(-0.00927773 0.000302141 0)
(-0.0120476 0.000263119 0)
(-0.0143168 0.00016528 0)
(-0.0157491 -5.07388e-05 0)
(-0.0157659 -0.000427749 0)
(-0.0138225 -0.00102791 0)
(-0.00919756 -0.00184253 0)
(-0.00165827 -0.00274575 0)
(0.00833848 -0.003683 0)
(0.0200119 -0.00453171 0)
(0.0321032 -0.00514783 0)
(0.043999 -0.00588834 0)
(0.0533305 -0.00589478 0)
(0.0618707 -0.00450459 0)
(0.0472569 0.0248866 0)
(0.0261744 0.069237 0)
(-0.122385 0.0751557 0)
(-0.133462 -0.0284773 0)
(0.00617199 -0.113904 0)
(-0.0491554 -0.0958499 0)
(0.153563 -0.0106516 0)
(0.11079 0.0442552 0)
(0.0883794 0.0510116 0)
(0.0818318 0.0257232 0)
(0.082074 0.027649 0)
(0.0689298 0.0485001 0)
(0.0324311 0.0380769 0)
(-0.0011911 0.000368604 0)
(-0.00373332 0.000436929 0)
(-0.00653072 0.000510783 0)
(-0.00956189 0.000569661 0)
(-0.0125043 0.000529628 0)
(-0.01501 0.000402223 0)
(-0.0167624 8.76661e-05 0)
(-0.0171998 -0.000489562 0)
(-0.0157826 -0.00142719 0)
(-0.0117589 -0.00275016 0)
(-0.00487839 -0.00423098 0)
(0.00438412 -0.00566517 0)
(0.0151902 -0.00691443 0)
(0.0260548 -0.00764938 0)
(0.0361441 -0.00823295 0)
(0.0418198 -0.0068179 0)
(0.0462252 -0.00269899 0)
(0.0273824 0.0330733 0)
(0.0399681 0.0904127 0)
(-0.0467501 0.0914356 0)
(-0.0498669 -0.0679648 0)
(0.0391753 -0.142738 0)
(-0.0352285 -0.147652 0)
(0.0936816 -0.0609013 0)
(0.058951 0.0500312 0)
(0.0573293 0.067842 0)
(0.042632 0.0293704 0)
(0.0565779 0.0445052 0)
(0.0333695 0.0888953 0)
(0.0331991 0.132209 0)
(-0.0011906 0.000531744 0)
(-0.00373505 0.000632686 0)
(-0.00654078 0.000745937 0)
(-0.0095912 0.000842265 0)
(-0.0125649 0.000802217 0)
(-0.0151201 0.000646188 0)
(-0.0169513 0.000232613 0)
(-0.0175046 -0.000542248 0)
(-0.016243 -0.00182009 0)
(-0.0123825 -0.00365945 0)
(-0.00564064 -0.00572709 0)
(0.00350057 -0.00768851 0)
(0.0142005 -0.00931063 0)
(0.0248456 -0.0101326 0)
(0.0346888 -0.0103884 0)
(0.0393655 -0.007665 0)
(0.0454609 -0.00236322 0)
(0.02786 0.0312872 0)
(0.0681378 0.0918637 0)
(0.033248 0.0978435 0)
(0.0376035 -0.0721378 0)
(0.115623 -0.145299 0)
(0.0615171 -0.151944 0)
(0.0842711 -0.0575637 0)
(0.0218562 0.0493567 0)
(0.0227016 0.0586704 0)
(-0.00852606 0.021372 0)
(-0.00895269 0.0548219 0)
(-0.00787527 0.0999503 0)
(-0.010039 0.146232 0)
(-0.00118681 0.000694416 0)
(-0.0037267 0.000828429 0)
(-0.00653231 0.000981523 0)
(-0.00959097 0.00111617 0)
(-0.0125803 0.00107708 0)
(-0.0151633 0.000894624 0)
(-0.0170457 0.00038696 0)
(-0.017681 -0.000578602 0)
(-0.0165366 -0.00219259 0)
(-0.0127891 -0.00455028 0)
(-0.0061108 -0.00720537 0)
(0.0030229 -0.0097159 0)
(0.0137975 -0.0117133 0)
(0.0245433 -0.0126231 0)
(0.0347685 -0.0125356 0)
(0.0396522 -0.00858469 0)
(0.0501901 -0.00115161 0)
(0.0342399 0.0308366 0)
(0.0971373 0.0793364 0)
(0.089203 0.110577 0)
(0.158691 -0.0666545 0)
(0.111658 -0.172819 0)
(0.131874 -0.134085 0)
(0.110824 -0.035181 0)
(0.068747 0.0889318 0)
(0.0183313 0.0823932 0)
(-0.038585 0.0520952 0)
(-0.0616916 0.0551278 0)
(-0.0425769 0.105252 0)
(-0.0219012 0.0922304 0)
(-0.00118172 0.000856534 0)
(-0.00371508 0.00102387 0)
(-0.00651935 0.00121722 0)
(-0.00958649 0.00139109 0)
(-0.0125924 0.00135385 0)
(-0.0152055 0.00114733 0)
(-0.0171452 0.000549642 0)
(-0.0178742 -0.000601548 0)
(-0.0168669 -0.0025477 0)
(-0.0132503 -0.00542781 0)
(-0.00663768 -0.00867981 0)
(0.0025123 -0.0117661 0)
(0.0134295 -0.0141627 0)
(0.0244132 -0.0152281 0)
(0.035356 -0.0150076 0)
(0.0413919 -0.010957 0)
(0.0581685 -0.00406593 0)
(0.0448153 0.021476 0)
(0.124161 0.0521494 0)
(0.120628 0.0887025 0)
(0.194998 -0.0394989 0)
(0.159156 -0.169677 0)
(0.175004 -0.144096 0)
(0.128653 -0.0416055 0)
(0.0552451 0.118183 0)
(0.0753939 0.166157 0)
(0.0356966 0.101209 0)
(-0.00501863 0.0417978 0)
(-0.0126606 0.0577784 0)
(0.0133496 0.0584677 0)
(-0.00117548 0.00101802 0)
(-0.00370074 0.00121895 0)
(-0.00650308 0.00145307 0)
(-0.00958003 0.00166728 0)
(-0.0126052 0.0016329 0)
(-0.0152532 0.00140515 0)
(-0.0172602 0.000722439 0)
(-0.0181002 -0.000606293 0)
(-0.0172582 -0.00287979 0)
(-0.0138002 -0.00628753 0)
(-0.00726749 -0.0101496 0)
(0.00190882 -0.0138413 0)
(0.0130032 -0.0166602 0)
(0.0242778 -0.0179395 0)
(0.0358902 -0.0176288 0)
(0.0428569 -0.0136205 0)
(0.0637599 -0.00572155 0)
(0.0497469 0.0143045 0)
(0.150148 0.0271679 0)
(0.128799 0.0720499 0)
(0.175259 -0.0617489 0)
(0.168361 -0.153561 0)
(0.142534 -0.104333 0)
(0.0907252 0.0516329 0)
(0.0604547 0.15221 0)
(0.0694447 0.133046 0)
(0.0759351 0.126965 0)
(0.0144337 0.104634 0)
(-0.00581627 0.065391 0)
(0.0047846 0.0705816 0)
(-0.0011681 0.00117874 0)
(-0.00368371 0.00141361 0)
(-0.00648352 0.00168908 0)
(-0.00957168 0.00194495 0)
(-0.0126188 0.00191462 0)
(-0.0153065 0.00166894 0)
(-0.0173906 0.000907095 0)
(-0.0183596 -0.000589994 0)
(-0.017713 -0.00318548 0)
(-0.0144439 -0.007126 0)
(-0.00800893 -0.0116157 0)
(0.00120066 -0.0159446 0)
(0.0125064 -0.0192231 0)
(0.0241372 -0.020793 0)
(0.0364913 -0.0206731 0)
(0.0447933 -0.0177721 0)
(0.0693524 -0.0100487 0)
(0.0544471 -0.00192447 0)
(0.166249 0.00310786 0)
(0.157506 0.0655878 0)
(0.153752 -0.0817036 0)
(0.214971 -0.15004 0)
(0.161671 -0.119724 0)
(0.122682 0.00478099 0)
(0.147328 0.117526 0)
(0.123354 0.146915 0)
(0.106041 0.158671 0)
(0.0773308 0.126458 0)
(0.0391026 0.0867126 0)
(0.0163271 0.07922 0)
(-0.00115957 0.00133857 0)
(-0.00366393 0.00160775 0)
(-0.00646059 0.00192524 0)
(-0.00956133 0.00222434 0)
(-0.012633 0.00219934 0)
(-0.0153649 0.00193946 0)
(-0.0175356 0.00110529 0)
(-0.0186516 -0.000549379 0)
(-0.0182314 -0.00345765 0)
(-0.0151838 -0.00793951 0)
(-0.00886729 -0.0130738 0)
(0.000378823 -0.0180781 0)
(0.0119166 -0.0218489 0)
(0.0238974 -0.0237516 0)
(0.0367545 -0.0238515 0)
(0.0463247 -0.0218388 0)
(0.0703013 -0.0130397 0)
(0.0675337 -0.0152832 0)
(0.153018 -0.0326015 0)
(0.174849 0.0711906 0)
(0.237471 -0.0640044 0)
(0.247893 -0.145241 0)
(0.193559 -0.0728684 0)
(0.139477 0.0461417 0)
(0.143261 0.177236 0)
(0.153578 0.17744 0)
(0.123825 0.169205 0)
(0.0963813 0.148682 0)
(0.0391518 0.123678 0)
(0.0213163 0.111879 0)
(-0.00114986 0.00149739 0)
(-0.00364138 0.0018013 0)
(-0.00643419 0.00216154 0)
(-0.00954886 0.00250563 0)
(-0.0126475 0.00248736 0)
(-0.0154279 0.00221742 0)
(-0.0176941 0.00131865 0)
(-0.0189744 -0.000480766 0)
(-0.0188136 -0.00369062 0)
(-0.0160221 -0.00872373 0)
(-0.00984774 -0.0145236 0)
(-0.000562465 -0.0202431 0)
(0.0112337 -0.0245577 0)
(0.0236013 -0.0268302 0)
(0.0369492 -0.0273659 0)
(0.0480083 -0.0264304 0)
(0.0686243 -0.0195818 0)
(0.0873131 -0.0267801 0)
(0.12026 -0.0513808 0)
(0.135248 0.0358189 0)
(0.294705 -0.0822846 0)
(0.236688 -0.112753 0)
(0.218798 -0.0568111 0)
(0.209952 0.0375218 0)
(0.209471 0.0880068 0)
(0.181681 0.155462 0)
(0.0959456 0.185976 0)
(0.080521 0.18916 0)
(0.0278116 0.163795 0)
(0.0172293 0.161634 0)
(-0.00113896 0.00165507 0)
(-0.00361602 0.00199415 0)
(-0.00640422 0.00239796 0)
(-0.00953413 0.00278902 0)
(-0.0126621 0.00277895 0)
(-0.0154948 0.00250347 0)
(-0.0178647 0.0015487 0)
(-0.0193266 -0.000380338 0)
(-0.0194594 -0.00388156 0)
(-0.0169617 -0.00947178 0)
(-0.010956 -0.0159646 0)
(-0.0016355 -0.0224447 0)
(0.0104437 -0.0273429 0)
(0.0231784 -0.0299941 0)
(0.03687 -0.0309985 0)
(0.0489039 -0.0303873 0)
(0.0653279 -0.0280978 0)
(0.104543 -0.0306702 0)
(0.0710435 -0.0607008 0)
(0.162597 -0.0161352 0)
(0.238533 -0.109149 0)
(0.254713 -0.118753 0)
(0.239754 -0.0708093 0)
(0.293403 -0.0384777 0)
(0.344388 0.152145 0)
(0.209626 0.236617 0)
(0.0917842 0.243267 0)
(0.0781626 0.217909 0)
(0.0368394 0.192599 0)
(0.0347104 0.216392 0)
(-0.00112687 0.00181147 0)
(-0.00358778 0.00218623 0)
(-0.00637056 0.00263447 0)
(-0.00951697 0.00307469 0)
(-0.0126764 0.00307437 0)
(-0.0155647 0.00279818 0)
(-0.0180459 0.00179689 0)
(-0.0197062 -0.000245037 0)
(-0.0201683 -0.00402617 0)
(-0.0180052 -0.0101792 0)
(-0.0121994 -0.017394 0)
(-0.00284525 -0.024688 0)
(0.00954484 -0.0302007 0)
(0.0226542 -0.0332518 0)
(0.0367267 -0.0347782 0)
(0.0488586 -0.0343053 0)
(0.0648507 -0.0378717 0)
(0.101196 -0.0346011 0)
(0.0871575 -0.0628359 0)
(0.133243 -0.0741265 0)
(0.227575 -0.10879 0)
(0.206515 -0.1001 0)
(0.181622 -0.116448 0)
(0.317903 -0.142182 0)
(0.383932 0.25527 0)
(0.424439 0.340663 0)
(0.225637 0.390983 0)
(0.115918 0.279911 0)
(0.0659735 0.258915 0)
(0.0570505 0.253488 0)
(-0.00111356 0.00196647 0)
(-0.00355663 0.00237742 0)
(-0.00633307 0.00287108 0)
(-0.00949722 0.00336279 0)
(-0.01269 0.00337382 0)
(-0.0156369 0.00310204 0)
(-0.0182359 0.00206456 0)
(-0.0201114 -6.87806e-05 0)
(-0.02094 -0.00411158 0)
(-0.0191558 -0.0108416 0)
(-0.0135851 -0.0188059 0)
(-0.00420207 -0.0269755 0)
(0.00853229 -0.0331446 0)
(0.0220211 -0.0365938 0)
(0.036495 -0.038565 0)
(0.0480808 -0.0382502 0)
(0.0654951 -0.0458456 0)
(0.0895981 -0.0441417 0)
(0.111883 -0.0623876 0)
(0.125326 -0.109826 0)
(0.16926 -0.118724 0)
(0.180797 -0.101975 0)
(0.246421 -0.28748 0)
(-0.0968983 -0.135187 0)
(0.270874 0.386524 0)
(0.406931 0.367504 0)
(0.510386 0.449746 0)
(0.404524 0.387158 0)
(0.45049 0.416701 0)
(0.357478 0.425728 0)
(-0.00109901 0.00211994 0)
(-0.0035225 0.00256763 0)
(-0.00629163 0.00310784 0)
(-0.00947472 0.00365338 0)
(-0.0127028 0.0036775 0)
(-0.0157104 0.00341545 0)
(-0.0184327 0.00235285 0)
(-0.0205387 0.000151877 0)
(-0.0217743 -0.00413489 0)
(-0.0204171 -0.0114512 0)
(-0.015122 -0.0201965 0)
(-0.00571626 -0.0293099 0)
(0.00740007 -0.036172 0)
(0.021284 -0.0400243 0)
(0.0361303 -0.0423138 0)
(0.0467046 -0.042156 0)
(0.0647706 -0.0521461 0)
(0.0779768 -0.0564641 0)
(0.12314 -0.0635431 0)
(0.152418 -0.138173 0)
(0.153027 -0.121813 0)
(0.1261 -0.124188 0)
(0.231625 0.139496 0)
(-0.142845 -0.00954457 0)
(0.2419 0.0410602 0)
(0.261705 0.198483 0)
(0.41822 0.377456 0)
(0.359834 0.382878 0)
(0.226112 0.451467 0)
(0.0886005 0.619715 0)
(-0.0010832 0.00227175 0)
(-0.00348534 0.00275675 0)
(-0.00624608 0.0033448 0)
(-0.00944927 0.00394652 0)
(-0.0127141 0.00398554 0)
(-0.0157845 0.0037387 0)
(-0.0186341 0.00266268 0)
(-0.0209859 0.000418564 0)
(-0.0226703 -0.00408959 0)
(-0.0217922 -0.0120006 0)
(-0.0168188 -0.0215632 0)
(-0.00739743 -0.0316849 0)
(0.00614657 -0.0393076 0)
(0.0204815 -0.0435207 0)
(0.0357763 -0.0460019 0)
(0.0451985 -0.0460366 0)
(0.0631847 -0.0575588 0)
(0.0672886 -0.0665394 0)
(0.126408 -0.0839079 0)
(0.17244 -0.142158 0)
(0.139226 -0.10526 0)
(0.178406 -0.199937 0)
(0.132666 -0.0204581 0)
(0.290423 -0.137897 0)
(0.226777 -0.122033 0)
(0.174044 0.163254 0)
(0.231209 0.424782 0)
(0.177286 0.534832 0)
(0.0818409 0.656971 0)
(0.0144297 0.79226 0)
(-0.00106612 0.00242176 0)
(-0.00344506 0.00294466 0)
(-0.00619627 0.00358202 0)
(-0.00942071 0.00424224 0)
(-0.0127238 0.00429806 0)
(-0.015858 0.00407196 0)
(-0.0188377 0.0029947 0)
(-0.0214487 0.000736691 0)
(-0.0236269 -0.00396504 0)
(-0.0232853 -0.0124812 0)
(-0.0186846 -0.0229005 0)
(-0.00926203 -0.0340981 0)
(0.00476827 -0.0425828 0)
(0.0196197 -0.0471332 0)
(0.0353406 -0.0493466 0)
(0.0434959 -0.0490885 0)
(0.0587273 -0.0616915 0)
(0.0650312 -0.0745138 0)
(0.106572 -0.10794 0)
(0.168553 -0.153351 0)
(0.127228 -0.12791 0)
(0.483019 -0.0133696 0)
(-0.143069 -0.188467 0)
(0.132065 -0.0451612 0)
(0.0419319 -0.0107995 0)
(0.0370661 0.186674 0)
(0.0814036 0.456412 0)
(0.0573451 0.624205 0)
(0.0140125 0.758437 0)
(-0.00788912 0.842873 0)
(-0.00104774 0.00256985 0)
(-0.00340159 0.00313124 0)
(-0.00614205 0.00381954 0)
(-0.00938884 0.00454055 0)
(-0.0127315 0.00461513 0)
(-0.0159301 0.00441527 0)
(-0.0190409 0.00334922 0)
(-0.0219237 0.00111065 0)
(-0.0246427 -0.00375372 0)
(-0.0249004 -0.0128839 0)
(-0.0207287 -0.0241968 0)
(-0.0113269 -0.0365673 0)
(0.00325252 -0.046002 0)
(0.0187902 -0.0510562 0)
(0.0351421 -0.0533615 0)
(0.0419645 -0.0525704 0)
(0.053786 -0.0667688 0)
(0.0623697 -0.0826364 0)
(0.123911 -0.147922 0)
(0.132965 -0.126003 0)
(-0.00144965 -0.177618 0)
(-0.201421 0.0634731 0)
(-0.0540491 0.0170518 0)
(-0.0450916 -0.125782 0)
(-0.0655063 -0.0307769 0)
(-0.0731812 0.170708 0)
(-0.0330833 0.439134 0)
(-0.0257045 0.632217 0)
(-0.0245218 0.765559 0)
(-0.0123145 0.824345 0)
(-0.00102804 0.00271589 0)
(-0.00335484 0.00331634 0)
(-0.00608325 0.00405743 0)
(-0.00935348 0.00484145 0)
(-0.0127366 0.0049368 0)
(-0.0159997 0.00476853 0)
(-0.0192407 0.00372599 0)
(-0.0224053 0.00154454 0)
(-0.0257158 -0.00344182 0)
(-0.0266412 -0.0131986 0)
(-0.0229661 -0.0254419 0)
(-0.0136174 -0.0390776 0)
(0.00153225 -0.0494503 0)
(0.017712 -0.0543688 0)
(0.0347782 -0.0552117 0)
(0.0400394 -0.0530738 0)
(0.0462309 -0.0689895 0)
(0.060964 -0.0924333 0)
(0.13907 -0.174229 0)
(0.10191 -0.114937 0)
(0.153575 -0.00628904 0)
(0.0303401 -0.127864 0)
(-0.0144655 -0.0782497 0)
(-0.099667 -0.0777018 0)
(-0.145214 -0.00700183 0)
(-0.166347 0.174074 0)
(-0.138584 0.416736 0)
(-0.10557 0.602916 0)
(-0.0702048 0.721569 0)
(-0.022698 0.771449 0)
(-0.00100701 0.00285974 0)
(-0.00330473 0.00349982 0)
(-0.00601971 0.00429575 0)
(-0.00931445 0.00514494 0)
(-0.012739 0.00526308 0)
(-0.0160659 0.00513152 0)
(-0.0194339 0.00412406 0)
(-0.0228882 0.00204206 0)
(-0.026844 -0.00302132 0)
(-0.0285108 -0.0134146 0)
(-0.0253999 -0.0266602 0)
(-0.0161078 -0.0417167 0)
(-0.000232002 -0.053569 0)
(0.0167707 -0.0596912 0)
(0.0347695 -0.0610212 0)
(0.039546 -0.0566933 0)
(0.0427642 -0.0724421 0)
(0.048909 -0.111562 0)
(0.130947 -0.178317 0)
(0.0411628 -0.124921 0)
(0.0870301 -0.0126121 0)
(-0.0999413 0.0508937 0)
(-0.0849907 -0.0195699 0)
(-0.141158 -0.0468758 0)
(-0.183547 0.0186515 0)
(-0.212277 0.18127 0)
(-0.201362 0.381229 0)
(-0.149517 0.527825 0)
(-0.0811888 0.631996 0)
(-0.0205555 0.688417 0)
(-0.000984623 0.00300127 0)
(-0.00325114 0.00368151 0)
(-0.00595127 0.00453458 0)
(-0.00927156 0.00545095 0)
(-0.0127382 0.00559398 0)
(-0.0161279 0.00550383 0)
(-0.019617 0.00454163 0)
(-0.0233658 0.00260817 0)
(-0.028025 -0.00248031 0)
(-0.0305221 -0.013513 0)
(-0.0280854 -0.0277603 0)
(-0.0190504 -0.0441742 0)
(-0.00299702 -0.0565809 0)
(0.0135116 -0.0617786 0)
(0.0323367 -0.0603126 0)
(0.0400035 -0.0545065 0)
(0.0432066 -0.0685526 0)
(0.0276229 -0.131385 0)
(0.131056 -0.146578 0)
(-0.0891785 -0.125788 0)
(0.0178871 0.126878 0)
(-0.156085 0.028184 0)
(-0.0884816 -0.00220631 0)
(-0.156293 -0.0148251 0)
(-0.186833 0.0418773 0)
(-0.194187 0.182487 0)
(-0.170972 0.343397 0)
(-0.129845 0.455736 0)
(-0.0761792 0.544452 0)
(-0.0173035 0.607187 0)
(-0.000960862 0.00314035 0)
(-0.00319398 0.00386122 0)
(-0.00587773 0.00477401 0)
(-0.00922464 0.00575943 0)
(-0.0127339 0.00592954 0)
(-0.0161848 0.00588496 0)
(-0.0197862 0.0049774 0)
(-0.0238307 0.00325097 0)
(-0.0292541 -0.00180696 0)
(-0.0326548 -0.0134865 0)
(-0.0309156 -0.0288903 0)
(-0.0220201 -0.0472691 0)
(-0.00615442 -0.0619443 0)
(0.00842852 -0.0694985 0)
(0.0263402 -0.0706733 0)
(0.0427704 -0.0614454 0)
(0.0607725 -0.0670687 0)
(0.0647816 -0.164907 0)
(0.11646 -0.129946 0)
(-0.0184531 -0.0741448 0)
(-0.210073 0.0240524 0)
(-0.144461 0.0507365 0)
(-0.100864 0.00830727 0)
(-0.156318 0.0121666 0)
(-0.182516 0.0586486 0)
(-0.183579 0.169785 0)
(-0.14994 0.316547 0)
(-0.112054 0.423844 0)
(-0.0729856 0.489487 0)
(-0.0218568 0.537395 0)
(-0.000935713 0.00327685 0)
(-0.00313312 0.00403873 0)
(-0.00579893 0.00501415 0)
(-0.0091735 0.00607025 0)
(-0.0127257 0.00626982 0)
(-0.016236 0.0062738 0)
(-0.0199368 0.00542933 0)
(-0.024275 0.00397188 0)
(-0.0305314 -0.00100869 0)
(-0.0349776 -0.0133157 0)
(-0.0343004 -0.029661 0)
(-0.0266561 -0.0487643 0)
(-0.0141368 -0.0625431 0)
(-0.00438062 -0.0669216 0)
(0.0149212 -0.0675152 0)
(0.0493274 -0.0661974 0)
(0.0755563 -0.0746933 0)
(0.123758 -0.177524 0)
(0.0567715 -0.0853307 0)
(-0.0166099 0.0754073 0)
(-0.159299 0.0159824 0)
(-0.122841 0.038002 0)
(-0.103922 0.0128562 0)
(-0.142901 0.0349149 0)
(-0.170358 0.0762757 0)
(-0.187851 0.156771 0)
(-0.166054 0.285092 0)
(-0.125117 0.388393 0)
(-0.0804612 0.437659 0)
(-0.0287 0.472827 0)
(-0.000909164 0.00341065 0)
(-0.00306844 0.00421378 0)
(-0.00571468 0.00525517 0)
(-0.00911797 0.0063834 0)
(-0.0127136 0.00661546 0)
(-0.0162809 0.00667071 0)
(-0.0200647 0.00590091 0)
(-0.0246909 0.00479637 0)
(-0.0318429 1.32191e-05 0)
(-0.0373349 -0.012935 0)
(-0.037402 -0.030645 0)
(-0.0308531 -0.0522845 0)
(-0.02166 -0.0686403 0)
(-0.0117779 -0.0785169 0)
(0.0256416 -0.0903653 0)
(0.068448 -0.0791064 0)
(0.061965 -0.0760522 0)
(0.128236 -0.167104 0)
(-0.0148287 -0.0723053 0)
(-0.182958 0.14298 0)
(-0.106146 0.0121745 0)
(-0.0557901 0.036848 0)
(-0.0928326 0.0221031 0)
(-0.117634 0.0532241 0)
(-0.145474 0.0969193 0)
(-0.168388 0.16104 0)
(-0.160278 0.254889 0)
(-0.123699 0.337569 0)
(-0.0788289 0.379146 0)
(-0.0308616 0.409578 0)
(-0.000881209 0.00354158 0)
(-0.00299978 0.00438604 0)
(-0.00562479 0.00549701 0)
(-0.00905782 0.00669794 0)
(-0.0126971 0.00696468 0)
(-0.0163187 0.00706786 0)
(-0.0201624 0.00637148 0)
(-0.0250606 0.00566565 0)
(-0.033207 0.00104352 0)
(-0.040135 -0.0125379 0)
(-0.0424771 -0.0306825 0)
(-0.0399885 -0.051352 0)
(-0.0344227 -0.0666527 0)
(-0.0232987 -0.0788311 0)
(0.0183825 -0.0877756 0)
(-0.000683521 -0.0761615 0)
(0.0578179 -0.0939844 0)
(0.0697627 -0.110495 0)
(-0.245988 0.0593734 0)
(0.367781 0.0135077 0)
(0.0162722 0.0415386 0)
(0.0173167 0.0440753 0)
(-0.0522622 0.0430057 0)
(-0.0849404 0.0692892 0)
(-0.11167 0.116686 0)
(-0.131536 0.171169 0)
(-0.12908 0.236408 0)
(-0.103259 0.294752 0)
(-0.0683012 0.330205 0)
(-0.02996 0.354015 0)
(-0.000851851 0.00366971 0)
(-0.00292702 0.00455555 0)
(-0.00552913 0.0057413 0)
(-0.008993 0.00701735 0)
(-0.0126767 0.00732745 0)
(-0.0163504 0.00749074 0)
(-0.0202297 0.00690939 0)
(-0.0253901 0.00678445 0)
(-0.0345563 0.00264198 0)
(-0.0423926 -0.0113844 0)
(-0.0444135 -0.0308465 0)
(-0.0399945 -0.0542047 0)
(-0.0217256 -0.0724348 0)
(0.00371643 -0.0878418 0)
(0.0396923 -0.0968873 0)
(0.0534316 -0.0869943 0)
(0.0749609 -0.109802 0)
(0.0767839 -0.0912 0)
(0.0254962 -0.153822 0)
(0.611011 0.112259 0)
(0.243273 0.0962547 0)
(0.122775 0.0841912 0)
(0.0247702 0.0816553 0)
(-0.040642 0.0926113 0)
(-0.074574 0.135625 0)
(-0.0944925 0.180109 0)
(-0.0958389 0.226667 0)
(-0.0796237 0.267195 0)
(-0.0536613 0.293413 0)
(-0.024674 0.308418 0)
(-0.000821143 0.00379503 0)
(-0.0028499 0.0047212 0)
(-0.00542727 0.00598222 0)
(-0.00892261 0.00732506 0)
(-0.0126503 0.00766294 0)
(-0.0163701 0.00783198 0)
(-0.0202456 0.00727395 0)
(-0.0256364 0.00761978 0)
(-0.0360357 0.00354971 0)
(-0.0464119 -0.0110823 0)
(-0.0550014 -0.0310927 0)
(-0.0602931 -0.0571078 0)
(-0.0514517 -0.0802729 0)
(-0.0416234 -0.0962193 0)
(-0.0253543 -0.106081 0)
(0.0282204 -0.091733 0)
(0.0331799 -0.104418 0)
(-0.0341657 -0.0581944 0)
(-0.523992 -0.507612 0)
(0.479879 0.0838017 0)
(0.348017 0.141044 0)
(0.250856 0.160782 0)
(0.105213 0.144229 0)
(-0.000713396 0.134294 0)
(-0.0420272 0.160325 0)
(-0.0643525 0.18991 0)
(-0.0674089 0.221813 0)
(-0.0572889 0.249439 0)
(-0.0392128 0.267834 0)
(-0.0185404 0.277682 0)
(-0.000790799 0.00391943 0)
(-0.00276863 0.00489054 0)
(-0.00532 0.00625633 0)
(-0.00884906 0.00769243 0)
(-0.0126249 0.00813209 0)
(-0.0163945 0.00842893 0)
(-0.0202353 0.00810757 0)
(-0.0258374 0.00938706 0)
(-0.0373272 0.00632798 0)
(-0.0475215 -0.00828829 0)
(-0.0493031 -0.0289093 0)
(-0.0374607 -0.0551404 0)
(-0.0127844 -0.075775 0)
(-0.000426145 -0.0921318 0)
(0.0277097 -0.117357 0)
(0.0689072 -0.110475 0)
(0.0688437 -0.0969771 0)
(0.099238 0.0335329 0)
(1.54746 -0.499735 0)
(-0.273255 0.0700143 0)
(0.260339 0.202216 0)
(0.178031 0.221296 0)
(0.0833094 0.21644 0)
(-0.000344538 0.180276 0)
(-0.0255157 0.186333 0)
(-0.0457218 0.199854 0)
(-0.0476183 0.219575 0)
(-0.0406757 0.237254 0)
(-0.0280608 0.249414 0)
(-0.0135622 0.255884 0)
(-0.000786293 0.00403068 0)
(-0.00268116 0.00502393 0)
(-0.00520348 0.0064103 0)
(-0.0087629 0.00788974 0)
(-0.0125796 0.00828057 0)
(-0.0163817 0.0084541 0)
(-0.0201343 0.00804033 0)
(-0.0258897 0.00993564 0)
(-0.0384901 0.00673827 0)
(-0.0515126 -0.0089191 0)
(-0.0634095 -0.0314158 0)
(-0.0726181 -0.0616949 0)
(-0.0702038 -0.0852585 0)
(-0.0510163 -0.0998718 0)
(-0.00632904 -0.124024 0)
(0.0663841 -0.106852 0)
(0.0514834 -0.0754536 0)
(0.357152 -0.288591 0)
(0.000533727 0.187108 0)
(-0.292848 0.13097 0)
(0.139921 0.0775742 0)
(0.0198728 0.253537 0)
(0.04485 0.26595 0)
(-0.0190176 0.209082 0)
(-0.0206322 0.203603 0)
(-0.0367012 0.206435 0)
(-0.0356036 0.217606 0)
(-0.0299041 0.228409 0)
(-0.0205485 0.236192 0)
(-0.0100621 0.240439 0)
(-0.00115182 0.00407977 0)
(-0.00259816 0.00516638 0)
(-0.00509369 0.00686559 0)
(-0.00872715 0.00827972 0)
(-0.0126278 0.00902935 0)
(-0.0164832 0.00940593 0)
(-0.0199758 0.00932527 0)
(-0.0258715 0.0122095 0)
(-0.0417041 0.0106079 0)
(-0.0586171 -0.00451843 0)
(-0.0696182 -0.0276597 0)
(-0.0741946 -0.0591592 0)
(-0.0730149 -0.0879186 0)
(-0.0746147 -0.112634 0)
(-0.0203315 -0.150764 0)
(-0.00449965 -0.116759 0)
(-0.0729571 -0.309962 0)
(0.862434 -0.436158 0)
(-0.370277 -0.256921 0)
(0.0634524 0.13221 0)
(-0.0442381 0.0902744 0)
(-0.143996 0.26006 0)
(0.0251648 0.26013 0)
(-0.0413389 0.222716 0)
(-0.0210112 0.210589 0)
(-0.0332005 0.208665 0)
(-0.0288252 0.21453 0)
(-0.023383 0.22109 0)
(-0.0157904 0.226125 0)
(-0.0077105 0.229007 0)
(-0.00258653 0.00432106 0)
(-0.00204729 0.00530679 0)
(-0.00410021 0.00683067 0)
(-0.00703566 0.00888348 0)
(-0.0109561 0.00910076 0)
(-0.0157021 0.0092945 0)
(-0.0205159 0.00908487 0)
(-0.0264871 0.0135353 0)
(-0.0375516 0.0118734 0)
(-0.0514313 -0.00401874 0)
(-0.0658467 -0.0273549 0)
(-0.0621851 -0.0605545 0)
(-0.0464497 -0.0875198 0)
(-0.0281352 -0.114284 0)
(0.0451611 -0.150982 0)
(0.0337708 -0.108585 0)
(0.141152 -0.261307 0)
(0.668322 0.221958 0)
(0.532742 0.268153 0)
(0.22723 0.104869 0)
(0.00489742 0.143279 0)
(-0.137987 0.229223 0)
(0.00200781 0.227256 0)
(-0.0525832 0.227141 0)
(-0.0227328 0.210123 0)
(-0.0307782 0.207022 0)
(-0.0244257 0.2101 0)
(-0.0190871 0.214273 0)
(-0.0125812 0.217756 0)
(-0.00600662 0.219872 0)
(-0.013141 0.0376885 0)
(-0.0531632 0.0312329 0)
(-0.076115 0.0128922 0)
(-0.0905752 0.0181945 0)
(-0.118557 0.0257317 0)
(-0.216472 0.00680033 0)
(-0.234066 -0.0259058 0)
(-0.0705114 -0.0782488 0)
(-0.0367282 -0.130966 0)
(0.231738 -0.0550504 0)
(0.188182 0.00974248 0)
(-0.0272071 0.0208198 0)
(-0.0852082 0.00522532 0)
(-0.0887809 -0.00299052 0)
(-0.0746917 -0.00248404 0)
(-0.0616777 -0.00219009 0)
(-0.0474319 -0.00182463 0)
(-0.0337289 -0.00157654 0)
(-0.0207732 -0.00128417 0)
(-0.00953189 -0.000967791 0)
(-0.000651184 -0.00068775 0)
(0.00542908 -0.000428115 0)
(0.00885325 -0.000223673 0)
(0.0102274 -8.92311e-05 0)
(0.0100641 -5.37955e-06 0)
(0.00890982 3.87639e-05 0)
(0.0071123 6.16046e-05 0)
(0.00501665 6.44032e-05 0)
(0.00293248 6.04774e-05 0)
(0.000948298 5.68655e-05 0)
(-0.033119 0.0372197 0)
(-0.0696471 0.0476687 0)
(-0.0826702 0.0275192 0)
(-0.0820865 0.0255824 0)
(-0.0887148 0.0512131 0)
(-0.111231 0.0443454 0)
(-0.153751 -0.0105188 0)
(0.0487807 -0.0955446 0)
(-0.00669543 -0.113967 0)
(0.133199 -0.0286417 0)
(0.122099 0.0752507 0)
(-0.0264965 0.0692035 0)
(-0.0472776 0.0248582 0)
(-0.0619019 -0.00451115 0)
(-0.053318 -0.00588858 0)
(-0.0439917 -0.00588811 0)
(-0.0320927 -0.00514713 0)
(-0.0200029 -0.00453059 0)
(-0.00833243 -0.00368188 0)
(0.00165896 -0.00274413 0)
(0.00918943 -0.00184073 0)
(0.0138066 -0.00102658 0)
(0.0157442 -0.000426869 0)
(0.0157245 -5.08872e-05 0)
(0.0142992 0.000163966 0)
(0.0120356 0.000262277 0)
(0.00927363 0.000300886 0)
(0.00637109 0.000279764 0)
(0.00365436 0.000243742 0)
(0.0011694 0.000206044 0)
(-0.033572 0.132697 0)
(-0.0335883 0.0892658 0)
(-0.0568667 0.0438446 0)
(-0.0430124 0.0286515 0)
(-0.0574169 0.0675411 0)
(-0.0592043 0.0501255 0)
(-0.0937748 -0.0608817 0)
(0.035495 -0.147552 0)
(-0.0392088 -0.142845 0)
(0.0493623 -0.0683431 0)
(0.0463808 0.0914866 0)
(-0.0403479 0.0903248 0)
(-0.0274327 0.0329873 0)
(-0.046291 -0.00272672 0)
(-0.0418229 -0.00681879 0)
(-0.036142 -0.00823512 0)
(-0.0260451 -0.00764909 0)
(-0.0151809 -0.00691286 0)
(-0.00437728 -0.00566336 0)
(0.00488 -0.00422799 0)
(0.0117513 -0.00274697 0)
(0.0157667 -0.0014248 0)
(0.0171779 -0.000488204 0)
(0.0167374 8.7404e-05 0)
(0.0149923 0.000399973 0)
(0.0124923 0.000528256 0)
(0.00955771 0.000567473 0)
(0.00653213 0.000511301 0)
(0.00373335 0.000436572 0)
(0.00119226 0.000368779 0)
(0.0101372 0.144892 0)
(0.00853431 0.0982219 0)
(0.00823528 0.0545998 0)
(0.0079343 0.0209401 0)
(-0.0232215 0.0589982 0)
(-0.0214509 0.0493592 0)
(-0.0839718 -0.0575145 0)
(-0.0604121 -0.152015 0)
(-0.116125 -0.144861 0)
(-0.0376896 -0.0723032 0)
(-0.0336327 0.097902 0)
(-0.0684505 0.0917305 0)
(-0.0279111 0.0311814 0)
(-0.0455438 -0.00239926 0)
(-0.0393738 -0.00767599 0)
(-0.0346887 -0.0103944 0)
(-0.024836 -0.0101331 0)
(-0.0141913 -0.00930913 0)
(-0.00349349 -0.00768618 0)
(0.0056426 -0.00572273 0)
(0.012375 -0.00365484 0)
(0.0162271 -0.00181657 0)
(0.0174825 -0.000540221 0)
(0.0169261 0.000232234 0)
(0.0151023 0.000642973 0)
(0.0125529 0.000800302 0)
(0.0095871 0.000839128 0)
(0.00654228 0.000746697 0)
(0.00373506 0.000632175 0)
(0.00119177 0.000531991 0)
(0.0248399 0.094406 0)
(0.0434793 0.1077 0)
(0.0622029 0.0559635 0)
(0.0378378 0.0518488 0)
(-0.0169447 0.0805984 0)
(-0.0691847 0.0886135 0)
(-0.110447 -0.0363389 0)
(-0.131085 -0.133175 0)
(-0.11249 -0.171927 0)
(-0.158079 -0.066965 0)
(-0.0896055 0.110679 0)
(-0.0973185 0.079099 0)
(-0.0342798 0.0307035 0)
(-0.050274 -0.00120692 0)
(-0.0396605 -0.00860501 0)
(-0.0347676 -0.0125464 0)
(-0.0245326 -0.0126246 0)
(-0.0137876 -0.0117115 0)
(-0.00301529 -0.00971285 0)
(0.00611309 -0.00719963 0)
(0.0127815 -0.00454419 0)
(0.0165204 -0.00218794 0)
(0.0176586 -0.000575959 0)
(0.0170201 0.000386463 0)
(0.0151453 0.000890423 0)
(0.0125683 0.00107461 0)
(0.00958699 0.00111207 0)
(0.00653395 0.000982544 0)
(0.00372668 0.000827764 0)
(0.00118802 0.000694734 0)
(-0.0209528 0.054924 0)
(0.0126819 0.0570781 0)
(0.00083332 0.042412 0)
(-0.0316792 0.0991125 0)
(-0.0788327 0.166739 0)
(-0.0522823 0.117902 0)
(-0.127742 -0.0404979 0)
(-0.17492 -0.14282 0)
(-0.159495 -0.169542 0)
(-0.194227 -0.0398448 0)
(-0.121236 0.0890275 0)
(-0.124177 0.0517851 0)
(-0.0448291 0.0213522 0)
(-0.0582305 -0.00413488 0)
(-0.0413928 -0.0109847 0)
(-0.0353529 -0.015022 0)
(-0.0244009 -0.0152308 0)
(-0.0134189 -0.0141602 0)
(-0.00250424 -0.0117622 0)
(0.0066403 -0.00867265 0)
(0.0132426 -0.00542013 0)
(0.0168504 -0.00254188 0)
(0.0178515 -0.000598057 0)
(0.0171192 0.000549018 0)
(0.0151874 0.00114211 0)
(0.0125804 0.0013508 0)
(0.00958266 0.00138601 0)
(0.00652116 0.00121853 0)
(0.00371502 0.00102305 0)
(0.00118297 0.000856924 0)
(0.0125684 0.0729108 0)
(0.0106483 0.0667632 0)
(-0.00340695 0.101819 0)
(-0.0790114 0.127779 0)
(-0.0634123 0.131614 0)
(-0.0647169 0.150548 0)
(-0.0899365 0.0504107 0)
(-0.143296 -0.103208 0)
(-0.167812 -0.153659 0)
(-0.17519 -0.0617956 0)
(-0.129211 0.072617 0)
(-0.150049 0.026618 0)
(-0.0497264 0.0142294 0)
(-0.0637941 -0.0057967 0)
(-0.042848 -0.0136551 0)
(-0.0358832 -0.0176455 0)
(-0.0242633 -0.0179435 0)
(-0.0129918 -0.016656 0)
(-0.00190027 -0.0138366 0)
(0.00727051 -0.010141 0)
(0.0137924 -0.00627821 0)
(0.0172414 -0.0028728 0)
(0.018077 -0.000601826 0)
(0.0172335 0.000721675 0)
(0.0152349 0.00139888 0)
(0.0125932 0.00162927 0)
(0.00957639 0.00166119 0)
(0.0065051 0.0014547 0)
(0.00370064 0.00121798 0)
(0.00117677 0.00101848 0)
(-0.0294586 0.0821972 0)
(-0.0374243 0.0899867 0)
(-0.0820865 0.128899 0)
(-0.108365 0.156548 0)
(-0.123499 0.148213 0)
(-0.143849 0.119336 0)
(-0.126473 0.00392324 0)
(-0.160605 -0.118609 0)
(-0.21524 -0.150199 0)
(-0.153809 -0.0817798 0)
(-0.157242 0.0659482 0)
(-0.166305 0.00250431 0)
(-0.0543589 -0.00199025 0)
(-0.0693714 -0.010121 0)
(-0.0447776 -0.0178118 0)
(-0.0364803 -0.0206916 0)
(-0.02412 -0.0207974 0)
(-0.012494 -0.0192177 0)
(-0.00119172 -0.0159391 0)
(0.00801239 -0.0116056 0)
(0.0144359 -0.00711499 0)
(0.0176958 -0.00317781 0)
(0.0183358 -0.00058492 0)
(0.0173632 0.00090617 0)
(0.015288 0.00166156 0)
(0.0126068 0.00191038 0)
(0.00956826 0.00193782 0)
(0.00648579 0.00169108 0)
(0.00368355 0.00141248 0)
(0.00116945 0.00117927 0)
(-0.0257192 0.111389 0)
(-0.0434967 0.120632 0)
(-0.0998532 0.150286 0)
(-0.119479 0.166261 0)
(-0.155784 0.177156 0)
(-0.13787 0.178351 0)
(-0.140915 0.0472264 0)
(-0.192486 -0.0728942 0)
(-0.247904 -0.144961 0)
(-0.237727 -0.0644375 0)
(-0.174186 0.0717594 0)
(-0.153139 -0.0331124 0)
(-0.0674179 -0.0153653 0)
(-0.0702898 -0.0131083 0)
(-0.0463016 -0.0218811 0)
(-0.0367378 -0.0238704 0)
(-0.0238772 -0.0237551 0)
(-0.0119031 -0.0218427 0)
(-0.000369454 -0.0180717 0)
(0.00887119 -0.0130621 0)
(0.0151756 -0.00792667 0)