/*--------------------------------*- C++ -*----------------------------------*\
| =========                 |                                                 |
| \\      /  F ield         | OpenFOAM: The Open Source CFD Toolbox           |
|  \\    /   O peration     | Version:  2.4.0                                 |
|   \\  /    A nd           | Web:      www.OpenFOAM.org                      |
|    \\/     M anipulation  |                                                 |
\*---------------------------------------------------------------------------*/
FoamFile
{
    version     2.0;
    format      ascii;
    class       volVectorField;
    location    "0.056";
    object      U;
}
// * * * * * * * * * * * * * * * * * * * * * * * * * * * * * * * * * * * * * //

dimensions      [0 1 -1 0 0 0 0];

internalField   nonuniform List<vector> 
60000
(
(-1.90248e-08 1.24238e-08 0)
(-5.34369e-08 4.20203e-09 0)
(-1.14381e-07 1.12218e-08 0)
(-1.82938e-07 9.99907e-09 0)
(-2.55833e-07 1.06107e-08 0)
(-3.24561e-07 1.09826e-08 0)
(-3.96072e-07 1.08151e-08 0)
(-4.66769e-07 1.08488e-08 0)
(-5.37631e-07 1.08039e-08 0)
(-6.08443e-07 1.0827e-08 0)
(-6.7958e-07 1.09008e-08 0)
(-7.51396e-07 1.10248e-08 0)
(-8.24313e-07 1.12098e-08 0)
(-8.98564e-07 1.13799e-08 0)
(-9.74035e-07 1.14997e-08 0)
(-1.0505e-06 1.15556e-08 0)
(-1.12779e-06 1.16346e-08 0)
(-1.20585e-06 1.16888e-08 0)
(-1.28492e-06 1.18296e-08 0)
(-1.36535e-06 1.20364e-08 0)
(-1.44731e-06 1.2183e-08 0)
(-1.53112e-06 1.24573e-08 0)
(-1.61695e-06 1.26851e-08 0)
(-1.70471e-06 1.29246e-08 0)
(-1.79428e-06 1.31182e-08 0)
(-1.88537e-06 1.33102e-08 0)
(-1.97764e-06 1.33605e-08 0)
(-2.07082e-06 1.34395e-08 0)
(-2.16475e-06 1.34634e-08 0)
(-2.25965e-06 1.3495e-08 0)
(-2.35588e-06 1.36362e-08 0)
(-2.45387e-06 1.37429e-08 0)
(-2.55389e-06 1.39045e-08 0)
(-2.6561e-06 1.40538e-08 0)
(-2.7604e-06 1.42025e-08 0)
(-2.86624e-06 1.42126e-08 0)
(-2.97295e-06 1.41081e-08 0)
(-3.08037e-06 1.39726e-08 0)
(-3.18895e-06 1.40063e-08 0)
(-3.29926e-06 1.39132e-08 0)
(-3.41182e-06 1.40531e-08 0)
(-3.52649e-06 1.38847e-08 0)
(-3.64286e-06 1.37389e-08 0)
(-3.76083e-06 1.38325e-08 0)
(-3.87967e-06 1.30766e-08 0)
(-4.00008e-06 1.31048e-08 0)
(-4.12296e-06 1.29275e-08 0)
(-4.24685e-06 1.19203e-08 0)
(-4.37167e-06 1.15589e-08 0)
(-4.49775e-06 1.10435e-08 0)
(-4.62342e-06 1.00094e-08 0)
(-4.74671e-06 8.72229e-09 0)
(-4.86479e-06 6.57837e-09 0)
(-4.97467e-06 4.10261e-09 0)
(-5.07418e-06 1.24518e-09 0)
(-5.16037e-06 -2.48323e-09 0)
(-5.23026e-06 -6.52713e-09 0)
(-5.28164e-06 -1.09763e-08 0)
(-5.31181e-06 -1.62843e-08 0)
(-5.31858e-06 -2.21421e-08 0)
(-5.30008e-06 -2.7393e-08 0)
(-5.25427e-06 -3.28828e-08 0)
(-5.17974e-06 -3.86022e-08 0)
(-5.07569e-06 -4.41926e-08 0)
(-4.94135e-06 -4.99302e-08 0)
(-4.77595e-06 -5.55929e-08 0)
(-4.57945e-06 -6.09657e-08 0)
(-4.35248e-06 -6.60078e-08 0)
(-4.09622e-06 -7.06216e-08 0)
(-3.81246e-06 -7.46459e-08 0)
(-3.50371e-06 -7.80121e-08 0)
(-3.17327e-06 -8.05694e-08 0)
(-2.82545e-06 -8.21478e-08 0)
(-2.46499e-06 -8.28047e-08 0)
(-2.09626e-06 -8.27606e-08 0)
(-1.72337e-06 -8.1984e-08 0)
(-1.35067e-06 -8.03455e-08 0)
(-9.82377e-07 -7.80647e-08 0)
(-6.22005e-07 -7.53534e-08 0)
(-2.72969e-07 -7.20965e-08 0)
(6.15042e-08 -6.82193e-08 0)
(3.7734e-07 -6.42988e-08 0)
(6.70251e-07 -5.98981e-08 0)
(9.37041e-07 -5.48316e-08 0)
(1.17379e-06 -4.96254e-08 0)
(1.37769e-06 -4.4071e-08 0)
(1.54571e-06 -3.89749e-08 0)
(1.67512e-06 -3.33679e-08 0)
(1.76528e-06 -2.77856e-08 0)
(1.81451e-06 -2.24733e-08 0)
(1.8211e-06 -1.76765e-08 0)
(1.78576e-06 -1.2253e-08 0)
(1.71011e-06 -7.35468e-09 0)
(1.59232e-06 -2.41256e-09 0)
(1.45513e-06 2.1101e-09 0)
(1.20229e-06 1.36594e-09 0)
(1.16883e-06 8.37405e-09 0)
(5.99389e-07 2.19226e-08 0)
(7.02095e-07 3.44274e-09 0)
(1.6699e-07 1.86514e-08 0)
(2.00923e-08 2.509e-08 0)
(-1.8639e-08 3.90593e-08 0)
(-1.54407e-07 6.12892e-08 0)
(-2.61502e-07 6.24422e-08 0)
(-3.92691e-07 6.23165e-08 0)
(-5.08399e-07 6.27055e-08 0)
(-6.29858e-07 6.26792e-08 0)
(-7.49876e-07 6.27744e-08 0)
(-8.7063e-07 6.27245e-08 0)
(-9.91593e-07 6.28485e-08 0)
(-1.11325e-06 6.32548e-08 0)
(-1.23603e-06 6.40759e-08 0)
(-1.36054e-06 6.5221e-08 0)
(-1.48716e-06 6.64055e-08 0)
(-1.61599e-06 6.74951e-08 0)
(-1.74706e-06 6.83725e-08 0)
(-1.88022e-06 6.91508e-08 0)
(-2.01542e-06 6.99538e-08 0)
(-2.15298e-06 7.11051e-08 0)
(-2.29321e-06 7.24937e-08 0)
(-2.43647e-06 7.40037e-08 0)
(-2.58323e-06 7.593e-08 0)
(-2.73364e-06 7.76795e-08 0)
(-2.88763e-06 7.9453e-08 0)
(-3.04514e-06 8.10197e-08 0)
(-3.20564e-06 8.21972e-08 0)
(-3.36896e-06 8.32021e-08 0)
(-3.535e-06 8.40322e-08 0)
(-3.70342e-06 8.48007e-08 0)
(-3.87497e-06 8.59916e-08 0)
(-4.05009e-06 8.74808e-08 0)
(-4.22945e-06 8.94706e-08 0)
(-4.41363e-06 9.14772e-08 0)
(-4.60276e-06 9.36692e-08 0)
(-4.79666e-06 9.55261e-08 0)
(-4.99459e-06 9.68401e-08 0)
(-5.19592e-06 9.75883e-08 0)
(-5.40077e-06 9.86195e-08 0)
(-5.60968e-06 1.00236e-07 0)
(-5.82369e-06 1.02338e-07 0)
(-6.04353e-06 1.04857e-07 0)
(-6.2691e-06 1.06855e-07 0)
(-6.50047e-06 1.08709e-07 0)
(-6.73648e-06 1.10488e-07 0)
(-6.97771e-06 1.11541e-07 0)
(-7.2261e-06 1.14618e-07 0)
(-7.48136e-06 1.17066e-07 0)
(-7.74336e-06 1.18262e-07 0)
(-8.0123e-06 1.20569e-07 0)
(-8.28667e-06 1.21845e-07 0)
(-8.56447e-06 1.21398e-07 0)
(-8.84344e-06 1.19342e-07 0)
(-9.12043e-06 1.14292e-07 0)
(-9.39189e-06 1.07294e-07 0)
(-9.65438e-06 9.83391e-08 0)
(-9.90443e-06 8.64535e-08 0)
(-1.01382e-05 7.25431e-08 0)
(-1.03518e-05 5.66413e-08 0)
(-1.0542e-05 3.81468e-08 0)
(-1.07053e-05 1.77612e-08 0)
(-1.08384e-05 -3.32867e-09 0)
(-1.09387e-05 -2.56953e-08 0)
(-1.1003e-05 -4.89096e-08 0)
(-1.1029e-05 -7.36353e-08 0)
(-1.10148e-05 -9.95685e-08 0)
(-1.09585e-05 -1.26166e-07 0)
(-1.08586e-05 -1.52857e-07 0)
(-1.07145e-05 -1.79168e-07 0)
(-1.05267e-05 -2.04494e-07 0)
(-1.02966e-05 -2.28159e-07 0)
(-1.0027e-05 -2.4957e-07 0)
(-9.72131e-06 -2.67906e-07 0)
(-9.38453e-06 -2.82354e-07 0)
(-9.02233e-06 -2.92817e-07 0)
(-8.64084e-06 -2.99689e-07 0)
(-8.24637e-06 -3.02972e-07 0)
(-7.8451e-06 -3.02383e-07 0)
(-7.44309e-06 -2.98411e-07 0)
(-7.04655e-06 -2.91489e-07 0)
(-6.66184e-06 -2.81265e-07 0)
(-6.29526e-06 -2.67505e-07 0)
(-5.95389e-06 -2.50847e-07 0)
(-5.64531e-06 -2.30454e-07 0)
(-5.37659e-06 -2.05981e-07 0)
(-5.15517e-06 -1.78262e-07 0)
(-4.9883e-06 -1.4723e-07 0)
(-4.88318e-06 -1.14254e-07 0)
(-4.84604e-06 -7.84614e-08 0)
(-4.88089e-06 -4.10645e-08 0)
(-4.99204e-06 -3.77697e-09 0)
(-5.18237e-06 3.39971e-08 0)
(-5.45232e-06 7.23717e-08 0)
(-5.80079e-06 1.09474e-07 0)
(-6.22734e-06 1.44755e-07 0)
(-6.71082e-06 1.79546e-07 0)
(-7.34697e-06 1.96184e-07 0)
(-7.66231e-06 2.33161e-07 0)
(-8.97744e-06 2.85489e-07 0)
(-8.59786e-06 1.75345e-07 0)
(-1.02271e-05 1.0857e-07 0)
(3.81932e-08 1.02107e-08 0)
(-1.27704e-10 9.35045e-08 0)
(-1.66237e-07 1.25452e-07 0)
(-2.82728e-07 1.30228e-07 0)
(-4.28962e-07 1.28313e-07 0)
(-5.59041e-07 1.2826e-07 0)
(-6.9558e-07 1.28434e-07 0)
(-8.30416e-07 1.28798e-07 0)
(-9.66573e-07 1.29037e-07 0)
(-1.10348e-06 1.29481e-07 0)
(-1.24151e-06 1.30342e-07 0)
(-1.38078e-06 1.31955e-07 0)
(-1.52164e-06 1.34068e-07 0)
(-1.66452e-06 1.3638e-07 0)
(-1.80966e-06 1.38753e-07 0)
(-1.95736e-06 1.40954e-07 0)
(-2.10782e-06 1.42965e-07 0)
(-2.2612e-06 1.45135e-07 0)
(-2.41753e-06 1.47744e-07 0)
(-2.57697e-06 1.507e-07 0)
(-2.74001e-06 1.54128e-07 0)
(-2.90676e-06 1.58005e-07 0)
(-3.0774e-06 1.61711e-07 0)
(-3.2521e-06 1.65475e-07 0)
(-3.43068e-06 1.68958e-07 0)
(-3.61307e-06 1.71682e-07 0)
(-3.79959e-06 1.74655e-07 0)
(-3.99019e-06 1.77111e-07 0)
(-4.18494e-06 1.79718e-07 0)
(-4.38448e-06 1.83183e-07 0)
(-4.58882e-06 1.8681e-07 0)
(-4.79841e-06 1.918e-07 0)
(-5.01363e-06 1.96398e-07 0)
(-5.23463e-06 2.01646e-07 0)
(-5.4611e-06 2.05968e-07 0)
(-5.69265e-06 2.098e-07 0)
(-5.92936e-06 2.12626e-07 0)
(-6.1715e-06 2.16261e-07 0)
(-6.4191e-06 2.20328e-07 0)
(-6.67285e-06 2.2608e-07 0)
(-6.93283e-06 2.31557e-07 0)
(-7.19909e-06 2.37261e-07 0)
(-7.47212e-06 2.42306e-07 0)
(-7.75061e-06 2.46401e-07 0)
(-8.03615e-06 2.51964e-07 0)
(-8.32935e-06 2.58908e-07 0)
(-8.62911e-06 2.6511e-07 0)
(-8.93713e-06 2.71144e-07 0)
(-9.25248e-06 2.76897e-07 0)
(-9.57242e-06 2.80587e-07 0)
(-9.89566e-06 2.81871e-07 0)
(-1.02201e-05 2.80133e-07 0)
(-1.05435e-05 2.74177e-07 0)
(-1.08633e-05 2.64491e-07 0)
(-1.1176e-05 2.51038e-07 0)
(-1.14782e-05 2.33142e-07 0)
(-1.17664e-05 2.11034e-07 0)
(-1.20363e-05 1.85046e-07 0)
(-1.22843e-05 1.55161e-07 0)
(-1.25068e-05 1.2176e-07 0)
(-1.26996e-05 8.49733e-08 0)
(-1.28593e-05 4.54488e-08 0)
(-1.29832e-05 3.66326e-09 0)
(-1.30679e-05 -4.10787e-08 0)
(-1.31111e-05 -8.78069e-08 0)
(-1.31112e-05 -1.35886e-07 0)
(-1.30671e-05 -1.84672e-07 0)
(-1.29784e-05 -2.33084e-07 0)
(-1.28456e-05 -2.79972e-07 0)
(-1.26703e-05 -3.24331e-07 0)
(-1.24553e-05 -3.6487e-07 0)
(-1.22041e-05 -4.00267e-07 0)
(-1.19213e-05 -4.29399e-07 0)
(-1.16117e-05 -4.51707e-07 0)
(-1.12812e-05 -4.67086e-07 0)
(-1.09367e-05 -4.75646e-07 0)
(-1.05846e-05 -4.7733e-07 0)
(-1.02317e-05 -4.72291e-07 0)
(-9.88544e-06 -4.60748e-07 0)
(-9.55345e-06 -4.4245e-07 0)
(-9.24333e-06 -4.17074e-07 0)
(-8.96313e-06 -3.84577e-07 0)
(-8.72131e-06 -3.44318e-07 0)
(-8.52591e-06 -2.96181e-07 0)
(-8.38492e-06 -2.40615e-07 0)
(-8.30639e-06 -1.77906e-07 0)
(-8.29819e-06 -1.09207e-07 0)
(-8.36742e-06 -3.51367e-08 0)
(-8.51997e-06 4.3563e-08 0)
(-8.76016e-06 1.24288e-07 0)
(-9.091e-06 2.06811e-07 0)
(-9.51421e-06 2.89139e-07 0)
(-1.00285e-05 3.69288e-07 0)
(-1.06334e-05 4.45275e-07 0)
(-1.13062e-05 5.14456e-07 0)
(-1.21467e-05 5.7724e-07 0)
(-1.2623e-05 6.06137e-07 0)
(-1.4293e-05 7.20534e-07 0)
(-1.37611e-05 5.0145e-07 0)
(-1.60653e-05 2.169e-07 0)
(8.51328e-09 6.98473e-09 0)
(-3.18187e-08 1.43561e-07 0)
(-1.71344e-07 1.92042e-07 0)
(-2.94006e-07 1.99248e-07 0)
(-4.42665e-07 1.9716e-07 0)
(-5.76069e-07 1.96708e-07 0)
(-7.16133e-07 1.97061e-07 0)
(-8.54258e-07 1.97743e-07 0)
(-9.93833e-07 1.98483e-07 0)
(-1.13454e-06 1.99496e-07 0)
(-1.27683e-06 2.01023e-07 0)
(-1.4206e-06 2.03432e-07 0)
(-1.56598e-06 2.0643e-07 0)
(-1.71322e-06 2.09805e-07 0)
(-1.86255e-06 2.13393e-07 0)
(-2.01421e-06 2.16894e-07 0)
(-2.16865e-06 2.20364e-07 0)
(-2.32626e-06 2.241e-07 0)
(-2.48702e-06 2.28254e-07 0)
(-2.65123e-06 2.32956e-07 0)
(-2.8191e-06 2.38288e-07 0)
(-2.99047e-06 2.43995e-07 0)
(-3.16576e-06 2.49775e-07 0)
(-3.34528e-06 2.5559e-07 0)
(-3.52883e-06 2.61101e-07 0)
(-3.71707e-06 2.66082e-07 0)
(-3.91024e-06 2.71329e-07 0)
(-4.10817e-06 2.76147e-07 0)
(-4.31142e-06 2.81357e-07 0)
(-4.51996e-06 2.87371e-07 0)
(-4.73399e-06 2.93703e-07 0)
(-4.95325e-06 3.01424e-07 0)
(-5.17791e-06 3.08888e-07 0)
(-5.40836e-06 3.17037e-07 0)
(-5.64435e-06 3.24155e-07 0)
(-5.88606e-06 3.30908e-07 0)
(-6.13387e-06 3.36701e-07 0)
(-6.388e-06 3.43367e-07 0)
(-6.6485e-06 3.504e-07 0)
(-6.91503e-06 3.59427e-07 0)
(-7.18726e-06 3.67871e-07 0)
(-7.46521e-06 3.76912e-07 0)
(-7.74913e-06 3.85145e-07 0)
(-8.03986e-06 3.92319e-07 0)
(-8.3372e-06 4.01701e-07 0)
(-8.64043e-06 4.11717e-07 0)
(-8.94947e-06 4.21235e-07 0)
(-9.26412e-06 4.30899e-07 0)
(-9.58353e-06 4.39052e-07 0)
(-9.90663e-06 4.44515e-07 0)
(-1.02322e-05 4.46863e-07 0)
(-1.05585e-05 4.45056e-07 0)
(-1.08836e-05 4.38164e-07 0)
(-1.12053e-05 4.26066e-07 0)
(-1.15206e-05 4.08444e-07 0)
(-1.18261e-05 3.8479e-07 0)
(-1.21183e-05 3.54918e-07 0)
(-1.23931e-05 3.19109e-07 0)
(-1.26464e-05 2.77529e-07 0)
(-1.28742e-05 2.30276e-07 0)
(-1.30722e-05 1.77647e-07 0)
(-1.32367e-05 1.20362e-07 0)
(-1.33643e-05 5.87436e-08 0)
(-1.34519e-05 -6.46134e-09 0)
(-1.34971e-05 -7.44495e-08 0)
(-1.34985e-05 -1.44325e-07 0)
(-1.34555e-05 -2.15184e-07 0)
(-1.33682e-05 -2.85509e-07 0)
(-1.32376e-05 -3.53685e-07 0)
(-1.30654e-05 -4.1825e-07 0)
(-1.28545e-05 -4.77386e-07 0)
(-1.26084e-05 -5.29341e-07 0)
(-1.23313e-05 -5.72795e-07 0)
(-1.20282e-05 -6.06819e-07 0)
(-1.17045e-05 -6.30741e-07 0)
(-1.13669e-05 -6.44425e-07 0)
(-1.1022e-05 -6.47918e-07 0)
(-1.06774e-05 -6.41046e-07 0)
(-1.03409e-05 -6.23542e-07 0)
(-1.00208e-05 -5.95364e-07 0)
(-9.72538e-06 -5.56096e-07 0)
(-9.46314e-06 -5.05431e-07 0)
(-9.24252e-06 -4.42836e-07 0)
(-9.07176e-06 -3.68326e-07 0)
(-8.959e-06 -2.82315e-07 0)
(-8.91211e-06 -1.85329e-07 0)
(-8.9387e-06 -7.86683e-08 0)
(-9.04557e-06 3.64836e-08 0)
(-9.23923e-06 1.5893e-07 0)
(-9.52464e-06 2.86686e-07 0)
(-9.90489e-06 4.16961e-07 0)
(-1.03819e-05 5.47148e-07 0)
(-1.09546e-05 6.73908e-07 0)
(-1.16228e-05 7.93784e-07 0)
(-1.23628e-05 9.02121e-07 0)
(-1.32818e-05 1.00092e-06 0)
(-1.38068e-05 1.04897e-06 0)
(-1.56133e-05 1.17083e-06 0)
(-1.50263e-05 9.19101e-07 0)
(-1.76398e-05 3.74605e-07 0)
(4.29428e-09 1.90391e-08 0)
(-4.23148e-08 1.87542e-07 0)
(-1.79074e-07 2.56598e-07 0)
(-3.00287e-07 2.68299e-07 0)
(-4.47569e-07 2.66563e-07 0)
(-5.80936e-07 2.65998e-07 0)
(-7.21295e-07 2.66552e-07 0)
(-8.59839e-07 2.67567e-07 0)
(-9.99968e-07 2.68894e-07 0)
(-1.14139e-06 2.70599e-07 0)
(-1.28445e-06 2.72919e-07 0)
(-1.42901e-06 2.76144e-07 0)
(-1.57521e-06 2.79997e-07 0)
(-1.72316e-06 2.8435e-07 0)
(-1.87308e-06 2.89077e-07 0)
(-2.02535e-06 2.93812e-07 0)
(-2.18039e-06 2.98781e-07 0)
(-2.33863e-06 3.04139e-07 0)
(-2.50014e-06 3.09953e-07 0)
(-2.66518e-06 3.16474e-07 0)
(-2.83384e-06 3.23632e-07 0)
(-3.00598e-06 3.3119e-07 0)
(-3.18202e-06 3.39035e-07 0)
(-3.36225e-06 3.46943e-07 0)
(-3.54667e-06 3.54637e-07 0)
(-3.73598e-06 3.62227e-07 0)
(-3.93052e-06 3.69881e-07 0)
(-4.13029e-06 3.77467e-07 0)
(-4.33562e-06 3.85509e-07 0)
(-4.54666e-06 3.94185e-07 0)
(-4.7634e-06 4.03421e-07 0)
(-4.98545e-06 4.13588e-07 0)
(-5.21293e-06 4.23936e-07 0)
(-5.44608e-06 4.34744e-07 0)
(-5.68476e-06 4.44858e-07 0)
(-5.92925e-06 4.54611e-07 0)
(-6.17993e-06 4.63687e-07 0)
(-6.43702e-06 4.73421e-07 0)
(-6.7006e-06 4.83581e-07 0)
(-6.97015e-06 4.95283e-07 0)
(-7.24521e-06 5.06713e-07 0)
(-7.52558e-06 5.18414e-07 0)
(-7.81159e-06 5.29766e-07 0)
(-8.10417e-06 5.40365e-07 0)
(-8.40298e-06 5.5248e-07 0)
(-8.707e-06 5.65126e-07 0)
(-9.01601e-06 5.77332e-07 0)
(-9.32973e-06 5.89209e-07 0)
(-9.64722e-06 5.99192e-07 0)
(-9.96765e-06 6.06027e-07 0)
(-1.029e-05 6.09038e-07 0)
(-1.06128e-05 6.07023e-07 0)
(-1.09344e-05 5.9902e-07 0)
(-1.12527e-05 5.84545e-07 0)
(-1.15647e-05 5.62906e-07 0)
(-1.18672e-05 5.33532e-07 0)
(-1.21565e-05 4.96084e-07 0)
(-1.24287e-05 4.50569e-07 0)
(-1.26793e-05 3.97113e-07 0)
(-1.29039e-05 3.35883e-07 0)
(-1.30985e-05 2.67267e-07 0)
(-1.32588e-05 1.92045e-07 0)
(-1.33811e-05 1.10933e-07 0)
(-1.34625e-05 2.49208e-08 0)
(-1.35006e-05 -6.48543e-08 0)
(-1.34939e-05 -1.57048e-07 0)
(-1.34421e-05 -2.50295e-07 0)
(-1.33455e-05 -3.42735e-07 0)
(-1.32051e-05 -4.3227e-07 0)
(-1.30231e-05 -5.16886e-07 0)
(-1.28024e-05 -5.94496e-07 0)
(-1.25465e-05 -6.62968e-07 0)
(-1.22595e-05 -7.20637e-07 0)
(-1.19461e-05 -7.66233e-07 0)
(-1.16122e-05 -7.98739e-07 0)
(-1.12641e-05 -8.17611e-07 0)
(-1.09091e-05 -8.22663e-07 0)
(-1.05546e-05 -8.13485e-07 0)
(-1.02087e-05 -7.89601e-07 0)
(-9.8799e-06 -7.50738e-07 0)
(-9.5769e-06 -6.96539e-07 0)
(-9.30838e-06 -6.26646e-07 0)
(-9.08281e-06 -5.40642e-07 0)
(-8.90837e-06 -4.38599e-07 0)
(-8.79317e-06 -3.20982e-07 0)
(-8.74515e-06 -1.88602e-07 0)
(-8.77201e-06 -4.284e-08 0)
(-8.88083e-06 1.14966e-07 0)
(-9.07799e-06 2.82289e-07 0)
(-9.36863e-06 4.57122e-07 0)
(-9.75638e-06 6.36051e-07 0)
(-1.02434e-05 8.15269e-07 0)
(-1.08289e-05 9.9018e-07 0)
(-1.15135e-05 1.15575e-06 0)
(-1.22719e-05 1.30554e-06 0)
(-1.32207e-05 1.43964e-06 0)
(-1.37531e-05 1.51516e-06 0)
(-1.56187e-05 1.62994e-06 0)
(-1.50106e-05 1.36333e-06 0)
(-1.76515e-05 5.46956e-07 0)
(3.37649e-09 2.84998e-08 0)
(-4.74643e-08 2.33978e-07 0)
(-1.84381e-07 3.19934e-07 0)
(-3.03976e-07 3.36273e-07 0)
(-4.49512e-07 3.35314e-07 0)
(-5.82175e-07 3.34991e-07 0)
(-7.22164e-07 3.35855e-07 0)
(-8.60514e-07 3.37274e-07 0)
(-1.00049e-06 3.39216e-07 0)
(-1.14181e-06 3.41629e-07 0)
(-1.28474e-06 3.44747e-07 0)
(-1.42914e-06 3.48797e-07 0)
(-1.57522e-06 3.53526e-07 0)
(-1.72305e-06 3.58837e-07 0)
(-1.87281e-06 3.64674e-07 0)
(-2.02491e-06 3.70662e-07 0)
(-2.17981e-06 3.77116e-07 0)
(-2.33792e-06 3.84079e-07 0)
(-2.49927e-06 3.91602e-07 0)
(-2.66421e-06 3.99927e-07 0)
(-2.83277e-06 4.0888e-07 0)
(-3.00478e-06 4.18331e-07 0)
(-3.18076e-06 4.28194e-07 0)
(-3.36093e-06 4.38194e-07 0)
(-3.54537e-06 4.48199e-07 0)
(-3.73473e-06 4.5836e-07 0)
(-3.92946e-06 4.68622e-07 0)
(-4.12954e-06 4.79046e-07 0)
(-4.33521e-06 4.89962e-07 0)
(-4.54673e-06 5.01487e-07 0)
(-4.76402e-06 5.13553e-07 0)
(-4.98668e-06 5.26348e-07 0)
(-5.21481e-06 5.39439e-07 0)
(-5.44864e-06 5.52972e-07 0)
(-5.6881e-06 5.66045e-07 0)
(-5.93334e-06 5.78853e-07 0)
(-6.18472e-06 5.91167e-07 0)
(-6.44227e-06 6.03985e-07 0)
(-6.70622e-06 6.17179e-07 0)
(-6.97628e-06 6.31541e-07 0)
(-7.2517e-06 6.45791e-07 0)
(-7.53236e-06 6.60157e-07 0)
(-7.81859e-06 6.74487e-07 0)
(-8.11092e-06 6.88247e-07 0)
(-8.40927e-06 7.03084e-07 0)
(-8.71293e-06 7.18123e-07 0)
(-9.02143e-06 7.32791e-07 0)
(-9.33451e-06 7.46746e-07 0)
(-9.65137e-06 7.5838e-07 0)
(-9.97118e-06 7.6648e-07 0)
(-1.0293e-05 7.70123e-07 0)
(-1.06156e-05 7.6796e-07 0)
(-1.09373e-05 7.58915e-07 0)
(-1.12559e-05 7.42131e-07 0)
(-1.15686e-05 7.1658e-07 0)
(-1.1872e-05 6.81547e-07 0)
(-1.21624e-05 6.36532e-07 0)
(-1.24356e-05 5.81276e-07 0)
(-1.26871e-05 5.15827e-07 0)
(-1.29125e-05 4.40427e-07 0)
(-1.31072e-05 3.55527e-07 0)
(-1.32671e-05 2.61992e-07 0)
(-1.33883e-05 1.60881e-07 0)
(-1.34676e-05 5.34929e-08 0)
(-1.35027e-05 -5.85764e-08 0)
(-1.34922e-05 -1.73556e-07 0)
(-1.34354e-05 -2.89632e-07 0)
(-1.33328e-05 -4.04538e-07 0)
(-1.31856e-05 -5.15701e-07 0)
(-1.29958e-05 -6.2065e-07 0)
(-1.27664e-05 -7.16967e-07 0)
(-1.2501e-05 -8.02189e-07 0)
(-1.22039e-05 -8.74319e-07 0)
(-1.188e-05 -9.31716e-07 0)
(-1.15349e-05 -9.72961e-07 0)
(-1.11752e-05 -9.9713e-07 0)
(-1.08083e-05 -1.00373e-06 0)
(-1.04419e-05 -9.92117e-07 0)
(-1.00842e-05 -9.61783e-07 0)
(-9.7438e-06 -9.12136e-07 0)
(-9.42927e-06 -8.42767e-07 0)
(-9.14947e-06 -7.53267e-07 0)
(-8.91305e-06 -6.43493e-07 0)
(-8.72836e-06 -5.13557e-07 0)
(-8.60358e-06 -3.63976e-07 0)
(-8.54674e-06 -1.95753e-07 0)
(-8.56563e-06 -1.04094e-08 0)
(-8.66773e-06 1.90257e-07 0)
(-8.85961e-06 4.03375e-07 0)
(-9.14661e-06 6.26181e-07 0)
(-9.5328e-06 8.54719e-07 0)
(-1.00208e-05 1.08417e-06 0)
(-1.06102e-05 1.30876e-06 0)
(-1.13021e-05 1.52194e-06 0)
(-1.20707e-05 1.71552e-06 0)
(-1.30403e-05 1.88596e-06 0)
(-1.35784e-05 1.99258e-06 0)
(-1.54878e-05 2.09877e-06 0)
(-1.48885e-05 1.80972e-06 0)
(-1.75327e-05 7.04711e-07 0)
(2.11125e-09 4.00599e-08 0)
(-5.14077e-08 2.81793e-07 0)
(-1.87727e-07 3.82534e-07 0)
(-3.06234e-07 4.03319e-07 0)
(-4.50365e-07 4.03395e-07 0)
(-5.82295e-07 4.03608e-07 0)
(-7.21806e-07 4.04892e-07 0)
(-8.59837e-07 4.06779e-07 0)
(-9.99518e-07 4.09334e-07 0)
(-1.14053e-06 4.12461e-07 0)
(-1.28311e-06 4.16375e-07 0)
(-1.42717e-06 4.21238e-07 0)
(-1.5729e-06 4.26854e-07 0)
(-1.72036e-06 4.33133e-07 0)
(-1.86982e-06 4.40049e-07 0)
(-2.02159e-06 4.47289e-07 0)
(-2.17616e-06 4.55247e-07 0)
(-2.33401e-06 4.63795e-07 0)
(-2.49503e-06 4.7302e-07 0)
(-2.65964e-06 4.8316e-07 0)
(-2.82792e-06 4.93893e-07 0)
(-2.99964e-06 5.05248e-07 0)
(-3.1754e-06 5.17136e-07 0)
(-3.35543e-06 5.29254e-07 0)
(-3.53976e-06 5.41631e-07 0)
(-3.72904e-06 5.54343e-07 0)
(-3.92373e-06 5.67282e-07 0)
(-4.12376e-06 5.80517e-07 0)
(-4.32932e-06 5.94315e-07 0)
(-4.54076e-06 6.08716e-07 0)
(-4.758e-06 6.23617e-07 0)
(-4.98064e-06 6.39096e-07 0)
(-5.20876e-06 6.54929e-07 0)
(-5.44269e-06 6.71218e-07 0)
(-5.68244e-06 6.87299e-07 0)
(-5.92793e-06 7.03107e-07 0)
(-6.17947e-06 7.1868e-07 0)
(-6.43701e-06 7.34478e-07 0)
(-6.70073e-06 7.5069e-07 0)
(-6.97073e-06 7.67769e-07 0)
(-7.24624e-06 7.84768e-07 0)
(-7.52686e-06 8.01848e-07 0)
(-7.81295e-06 8.191e-07 0)
(-8.10509e-06 8.35876e-07 0)
(-8.40312e-06 8.5351e-07 0)
(-8.70669e-06 8.71091e-07 0)
(-9.01544e-06 8.8821e-07 0)
(-9.32875e-06 9.04297e-07 0)
(-9.64612e-06 9.17772e-07 0)
(-9.96705e-06 9.2732e-07 0)
(-1.02906e-05 9.31841e-07 0)
(-1.06156e-05 9.2982e-07 0)
(-1.09403e-05 9.19936e-07 0)
(-1.12624e-05 9.01027e-07 0)
(-1.1579e-05 8.71764e-07 0)
(-1.18866e-05 8.31178e-07 0)
(-1.21814e-05 7.78619e-07 0)
(-1.24591e-05 7.13604e-07 0)
(-1.2715e-05 6.36094e-07 0)
(-1.29444e-05 5.4636e-07 0)
(-1.31428e-05 4.44924e-07 0)
(-1.33059e-05 3.32786e-07 0)
(-1.34295e-05 2.11303e-07 0)
(-1.35106e-05 8.2108e-08 0)
(-1.35465e-05 -5.27819e-08 0)
(-1.35354e-05 -1.91118e-07 0)
(-1.3477e-05 -3.30581e-07 0)
(-1.33714e-05 -4.68481e-07 0)
(-1.322e-05 -6.01841e-07 0)
(-1.30247e-05 -7.27722e-07 0)
(-1.27884e-05 -8.43286e-07 0)
(-1.25149e-05 -9.45724e-07 0)
(-1.22086e-05 -1.03267e-06 0)
(-1.18747e-05 -1.10217e-06 0)
(-1.15192e-05 -1.15246e-06 0)
(-1.11485e-05 -1.18221e-06 0)
(-1.077e-05 -1.19052e-06 0)
(-1.03917e-05 -1.1766e-06 0)
(-1.0022e-05 -1.13975e-06 0)
(-9.66946e-06 -1.07932e-06 0)
(-9.34279e-06 -9.94748e-07 0)
(-9.05079e-06 -8.85603e-07 0)
(-8.8022e-06 -7.51869e-07 0)
(-8.60565e-06 -5.93784e-07 0)
(-8.46964e-06 -4.1196e-07 0)
(-8.4024e-06 -2.07503e-07 0)
(-8.41185e-06 1.79039e-08 0)
(-8.50568e-06 2.61958e-07 0)
(-8.69089e-06 5.21635e-07 0)
(-8.97325e-06 7.93438e-07 0)
(-9.3572e-06 1.07281e-06 0)
(-9.84581e-06 1.35403e-06 0)
(-1.04393e-05 1.63015e-06 0)
(-1.11395e-05 1.89311e-06 0)
(-1.192e-05 2.13288e-06 0)
(-1.29122e-05 2.34194e-06 0)
(-1.34641e-05 2.48191e-06 0)
(-1.5419e-05 2.5841e-06 0)
(-1.4848e-05 2.26339e-06 0)
(-1.75203e-05 8.66931e-07 0)
(1.02569e-09 5.25282e-08 0)
(-5.39721e-08 3.30054e-07 0)
(-1.89722e-07 4.44675e-07 0)
(-3.0751e-07 4.69709e-07 0)
(-4.50627e-07 4.70983e-07 0)
(-5.81913e-07 4.71943e-07 0)
(-7.20953e-07 4.73723e-07 0)
(-8.58625e-07 4.76142e-07 0)
(-9.97989e-07 4.79295e-07 0)
(-1.13864e-06 4.83122e-07 0)
(-1.28079e-06 4.87831e-07 0)
(-1.42442e-06 4.93494e-07 0)
(-1.5697e-06 4.99978e-07 0)
(-1.71666e-06 5.07241e-07 0)
(-1.86571e-06 5.15232e-07 0)
(-2.01711e-06 5.23731e-07 0)
(-2.17133e-06 5.33214e-07 0)
(-2.32886e-06 5.43341e-07 0)
(-2.48949e-06 5.54248e-07 0)
(-2.65369e-06 5.66214e-07 0)
(-2.82161e-06 5.78762e-07 0)
(-2.99297e-06 5.92058e-07 0)
(-3.16849e-06 6.06033e-07 0)
(-3.34837e-06 6.20334e-07 0)
(-3.53255e-06 6.35078e-07 0)
(-3.72171e-06 6.50309e-07 0)
(-3.91631e-06 6.65908e-07 0)
(-4.11617e-06 6.81887e-07 0)
(-4.32151e-06 6.98562e-07 0)
(-4.53277e-06 7.15822e-07 0)
(-4.74981e-06 7.33612e-07 0)
(-4.97227e-06 7.5182e-07 0)
(-5.20021e-06 7.70435e-07 0)
(-5.43406e-06 7.89498e-07 0)
(-5.67391e-06 8.08641e-07 0)
(-5.91956e-06 8.27418e-07 0)
(-6.17112e-06 8.46201e-07 0)
(-6.42856e-06 8.64971e-07 0)
(-6.6921e-06 8.84133e-07 0)
(-6.96189e-06 9.03969e-07 0)
(-7.23734e-06 9.23769e-07 0)
(-7.518e-06 9.43534e-07 0)
(-7.80401e-06 9.63677e-07 0)
(-8.09593e-06 9.83479e-07 0)
(-8.39377e-06 1.00393e-06 0)
(-8.69741e-06 1.0243e-06 0)
(-9.00664e-06 1.04398e-06 0)
(-9.32089e-06 1.06235e-06 0)
(-9.63974e-06 1.07796e-06 0)
(-9.96275e-06 1.08928e-06 0)
(-1.02891e-05 1.09507e-06 0)
(-1.06177e-05 1.09357e-06 0)
(-1.09467e-05 1.08315e-06 0)
(-1.12737e-05 1.06239e-06 0)
(-1.15959e-05 1.02967e-06 0)
(-1.19096e-05 9.83708e-07 0)
(-1.22107e-05 9.23677e-07 0)
(-1.24948e-05 8.48922e-07 0)
(-1.27572e-05 7.59295e-07 0)
(-1.29928e-05 6.55066e-07 0)
(-1.3197e-05 5.36829e-07 0)
(-1.33651e-05 4.05766e-07 0)
(-1.3493e-05 2.63515e-07 0)
(-1.35773e-05 1.12021e-07 0)
(-1.36152e-05 -4.62811e-08 0)
(-1.3605e-05 -2.08623e-07 0)
(-1.35459e-05 -3.72147e-07 0)
(-1.34382e-05 -5.33745e-07 0)
(-1.32828e-05 -6.89992e-07 0)
(-1.30821e-05 -8.3746e-07 0)
(-1.28391e-05 -9.72927e-07 0)
(-1.25574e-05 -1.09321e-06 0)
(-1.22417e-05 -1.19551e-06 0)
(-1.18974e-05 -1.27748e-06 0)
(-1.15307e-05 -1.33712e-06 0)
(-1.11482e-05 -1.37276e-06 0)
(-1.07574e-05 -1.38308e-06 0)
(-1.03663e-05 -1.36701e-06 0)
(-9.9833e-06 -1.32374e-06 0)
(-9.61723e-06 -1.2525e-06 0)
(-9.27696e-06 -1.1527e-06 0)
(-8.97131e-06 -1.02395e-06 0)
(-8.70904e-06 -8.66177e-07 0)
(-8.49901e-06 -6.79738e-07 0)
(-8.35002e-06 -4.65378e-07 0)
(-8.2706e-06 -2.24334e-07 0)
(-8.26895e-06 4.15718e-08 0)
(-8.35301e-06 3.29829e-07 0)
(-8.53025e-06 6.37052e-07 0)
(-8.807e-06 9.59115e-07 0)
(-9.18823e-06 1.29084e-06 0)
(-9.67756e-06 1.62568e-06 0)
(-1.02759e-05 1.95548e-06 0)
(-1.0986e-05 2.27063e-06 0)
(-1.17814e-05 2.5592e-06 0)
(-1.2799e-05 2.81002e-06 0)
(-1.33728e-05 2.9861e-06 0)
(-1.5378e-05 3.09128e-06 0)
(-1.48489e-05 2.73336e-06 0)
(-1.75681e-05 1.04095e-06 0)
(6.2665e-10 6.55857e-08 0)
(-5.48165e-08 3.78514e-07 0)
(-1.90549e-07 5.06654e-07 0)
(-3.07907e-07 5.35735e-07 0)
(-4.50377e-07 5.38254e-07 0)
(-5.8113e-07 5.40071e-07 0)
(-7.19771e-07 5.42383e-07 0)
(-8.57065e-07 5.4538e-07 0)
(-9.96084e-07 5.49118e-07 0)
(-1.13634e-06 5.53618e-07 0)
(-1.27796e-06 5.59099e-07 0)
(-1.42108e-06 5.65569e-07 0)
(-1.56585e-06 5.72894e-07 0)
(-1.71224e-06 5.81142e-07 0)
(-1.86084e-06 5.90234e-07 0)
(-2.01183e-06 6.00019e-07 0)
(-2.16565e-06 6.11018e-07 0)
(-2.32281e-06 6.22701e-07 0)
(-2.48296e-06 6.35297e-07 0)
(-2.64672e-06 6.49074e-07 0)
(-2.81424e-06 6.63471e-07 0)
(-2.98522e-06 6.78765e-07 0)
(-3.16047e-06 6.9487e-07 0)
(-3.34017e-06 7.11416e-07 0)
(-3.52414e-06 7.2851e-07 0)
(-3.7131e-06 7.46233e-07 0)
(-3.90754e-06 7.64488e-07 0)
(-4.10721e-06 7.83158e-07 0)
(-4.31227e-06 8.02685e-07 0)
(-4.52333e-06 8.22822e-07 0)
(-4.74019e-06 8.43513e-07 0)
(-4.96245e-06 8.64555e-07 0)
(-5.19014e-06 8.85951e-07 0)
(-5.42383e-06 9.0785e-07 0)
(-5.66366e-06 9.29991e-07 0)
(-5.9094e-06 9.51843e-07 0)
(-6.16105e-06 9.73712e-07 0)
(-6.41835e-06 9.95481e-07 0)
(-6.68164e-06 1.01756e-06 0)
(-6.95119e-06 1.04014e-06 0)
(-7.22647e-06 1.0628e-06 0)
(-7.50712e-06 1.08533e-06 0)
(-7.79328e-06 1.10832e-06 0)
(-8.08527e-06 1.13113e-06 0)
(-8.3832e-06 1.15446e-06 0)
(-8.687e-06 1.17774e-06 0)
(-8.99669e-06 1.2002e-06 0)
(-9.31203e-06 1.22117e-06 0)
(-9.63264e-06 1.2392e-06 0)
(-9.95816e-06 1.25269e-06 0)
(-1.02879e-05 1.26014e-06 0)
(-1.06206e-05 1.25954e-06 0)
(-1.09545e-05 1.24899e-06 0)
(-1.12874e-05 1.22676e-06 0)
(-1.16161e-05 1.1909e-06 0)
(-1.19371e-05 1.13981e-06 0)
(-1.2246e-05 1.07245e-06 0)
(-1.25381e-05 9.87988e-07 0)
(-1.28083e-05 8.86184e-07 0)
(-1.30516e-05 7.67271e-07 0)
(-1.32629e-05 6.31935e-07 0)
(-1.34373e-05 4.81526e-07 0)
(-1.35705e-05 3.17935e-07 0)
(-1.36587e-05 1.43517e-07 0)
(-1.36992e-05 -3.88241e-08 0)
(-1.36902e-05 -2.25875e-07 0)
(-1.36307e-05 -4.14302e-07 0)
(-1.35206e-05 -6.00449e-07 0)
(-1.33612e-05 -7.80397e-07 0)
(-1.31547e-05 -9.50211e-07 0)
(-1.29042e-05 -1.1063e-06 0)
(-1.26136e-05 -1.24507e-06 0)
(-1.22876e-05 -1.36339e-06 0)
(-1.19317e-05 -1.45833e-06 0)
(-1.15524e-05 -1.52774e-06 0)
(-1.11566e-05 -1.56956e-06 0)
(-1.07518e-05 -1.58216e-06 0)
(-1.03461e-05 -1.56422e-06 0)
(-9.94803e-06 -1.51471e-06 0)
(-9.5665e-06 -1.43272e-06 0)
(-9.21056e-06 -1.3177e-06 0)
(-8.88919e-06 -1.16931e-06 0)
(-8.61136e-06 -9.87461e-07 0)
(-8.38604e-06 -7.72539e-07 0)
(-8.22216e-06 -5.25415e-07 0)
(-8.12862e-06 -2.47293e-07 0)
(-8.11405e-06 5.97644e-08 0)
(-8.18665e-06 3.93055e-07 0)
(-8.35429e-06 7.48908e-07 0)
(-8.62394e-06 1.12267e-06 0)
(-9.00128e-06 1.50849e-06 0)
(-9.49066e-06 1.89901e-06 0)
(-1.00938e-05 2.28491e-06 0)
(-1.08146e-05 2.65502e-06 0)
(-1.1627e-05 2.99558e-06 0)
(-1.26729e-05 3.29225e-06 0)
(-1.3276e-05 3.50849e-06 0)
(-1.53374e-05 3.62504e-06 0)
(-1.48628e-05 3.22836e-06 0)
(-1.76486e-05 1.22935e-06 0)
(9.53127e-10 7.87047e-08 0)
(-5.40295e-08 4.27118e-07 0)
(-1.9031e-07 5.68739e-07 0)
(-3.07492e-07 6.01614e-07 0)
(-4.49653e-07 6.05345e-07 0)
(-5.79965e-07 6.08032e-07 0)
(-7.18297e-07 6.10876e-07 0)
(-8.55198e-07 6.14457e-07 0)
(-9.93802e-07 6.1876e-07 0)
(-1.1336e-06 6.2392e-07 0)
(-1.27468e-06 6.30123e-07 0)
(-1.41723e-06 6.37409e-07 0)
(-1.56142e-06 6.45567e-07 0)
(-1.70724e-06 6.54795e-07 0)
(-1.85537e-06 6.65017e-07 0)
(-2.0059e-06 6.76124e-07 0)
(-2.1593e-06 6.88623e-07 0)
(-2.31603e-06 7.01821e-07 0)
(-2.47563e-06 7.16145e-07 0)
(-2.63896e-06 7.31726e-07 0)
(-2.80606e-06 7.47968e-07 0)
(-2.97657e-06 7.65302e-07 0)
(-3.1515e-06 7.83547e-07 0)
(-3.33094e-06 8.02359e-07 0)
(-3.51458e-06 8.21824e-07 0)
(-3.70327e-06 8.42059e-07 0)
(-3.8975e-06 8.62965e-07 0)
(-4.09694e-06 8.84361e-07 0)
(-4.30172e-06 9.06647e-07 0)
(-4.51252e-06 9.29731e-07 0)
(-4.7292e-06 9.53283e-07 0)
(-4.95128e-06 9.7726e-07 0)
(-5.17869e-06 1.00142e-06 0)
(-5.41213e-06 1.02625e-06 0)
(-5.65195e-06 1.05129e-06 0)
(-5.89773e-06 1.07631e-06 0)
(-6.14934e-06 1.10119e-06 0)
(-6.4065e-06 1.12594e-06 0)
(-6.66948e-06 1.15089e-06 0)
(-6.9387e-06 1.17625e-06 0)
(-7.21376e-06 1.20177e-06 0)
(-7.49439e-06 1.2272e-06 0)
(-7.78066e-06 1.25306e-06 0)
(-8.07273e-06 1.27886e-06 0)
(-8.37076e-06 1.30514e-06 0)
(-8.67478e-06 1.33137e-06 0)
(-8.98508e-06 1.35687e-06 0)
(-9.3016e-06 1.38076e-06 0)
(-9.62414e-06 1.40159e-06 0)
(-9.95244e-06 1.41766e-06 0)
(-1.02858e-05 1.42718e-06 0)
(-1.06232e-05 1.42794e-06 0)
(-1.09629e-05 1.41775e-06 0)
(-1.13026e-05 1.39448e-06 0)
(-1.1639e-05 1.35586e-06 0)
(-1.19684e-05 1.29999e-06 0)
(-1.22863e-05 1.22549e-06 0)
(-1.25878e-05 1.13138e-06 0)
(-1.28674e-05 1.01731e-06 0)
(-1.31198e-05 8.83509e-07 0)
(-1.33396e-05 7.30737e-07 0)
(-1.35217e-05 5.60465e-07 0)
(-1.36614e-05 3.74891e-07 0)
(-1.37547e-05 1.7686e-07 0)
(-1.37989e-05 -3.02937e-08 0)
(-1.37915e-05 -2.43001e-07 0)
(-1.37313e-05 -4.57307e-07 0)
(-1.36188e-05 -6.68913e-07 0)
(-1.34549e-05 -8.73488e-07 0)
(-1.3242e-05 -1.0666e-06 0)
(-1.2983e-05 -1.2442e-06 0)
(-1.26821e-05 -1.40216e-06 0)
(-1.23443e-05 -1.53715e-06 0)
(-1.19754e-05 -1.64571e-06 0)
(-1.15818e-05 -1.7254e-06 0)
(-1.11707e-05 -1.7738e-06 0)
(-1.07499e-05 -1.78899e-06 0)
(-1.03276e-05 -1.76954e-06 0)
(-9.91234e-06 -1.71395e-06 0)
(-9.51322e-06 -1.62135e-06 0)
(-9.13939e-06 -1.4912e-06 0)
(-8.80005e-06 -1.32311e-06 0)
(-8.50452e-06 -1.11712e-06 0)
(-8.26191e-06 -8.73594e-07 0)
(-8.08116e-06 -5.93268e-07 0)
(-7.97157e-06 -2.7767e-07 0)
(-7.94225e-06 7.13124e-08 0)
(-8.00173e-06 4.50486e-07 0)
(-8.1583e-06 8.56126e-07 0)
(-8.41958e-06 1.28314e-06 0)
(-8.79212e-06 1.72502e-06 0)
(-9.28117e-06 2.17355e-06 0)
(-9.8894e-06 2.61831e-06 0)
(-1.06219e-05 3.04675e-06 0)
(-1.14536e-05 3.44329e-06 0)
(-1.25309e-05 3.79098e-06 0)
(-1.31704e-05 4.05284e-06 0)
(-1.5295e-05 4.19037e-06 0)
(-1.48876e-05 3.75741e-06 0)
(-1.77667e-05 1.43801e-06 0)
(1.82769e-09 9.13166e-08 0)
(-5.19893e-08 4.75709e-07 0)
(-1.89166e-07 6.31052e-07 0)
(-3.06361e-07 6.67453e-07 0)
(-4.48514e-07 6.72305e-07 0)