/*--------------------------------*- C++ -*----------------------------------*\
| =========                 |                                                 |
| \\      /  F ield         | OpenFOAM: The Open Source CFD Toolbox           |
|  \\    /   O peration     | Version:  2.4.0                                 |
|   \\  /    A nd           | Web:      www.OpenFOAM.org                      |
|    \\/     M anipulation  |                                                 |
\*---------------------------------------------------------------------------*/
FoamFile
{
    version     2.0;
    format      ascii;
    class       surfaceScalarField;
    location    "0.08";
    object      phiAlpha;
}
// * * * * * * * * * * * * * * * * * * * * * * * * * * * * * * * * * * * * * //

dimensions      [0 3 -1 0 0 0 0];

internalField   nonuniform List<scalar> 
7080
(
-2.30379e-08
2.30379e-08
-3.92887e-08
1.62508e-08
-4.71582e-08
7.86953e-09
-4.89119e-08
1.75362e-09
-4.34114e-08
-5.50046e-09
-2.98843e-08
-1.35271e-08
-8.50852e-09
-2.13758e-08
2.01832e-08
-2.86917e-08
5.47328e-08
-3.45496e-08
9.1873e-08
-3.71402e-08
1.28512e-07
-3.66386e-08
1.61397e-07
-3.28856e-08
1.92849e-07
-3.14521e-08
2.00457e-07
-7.60752e-09
2.37867e-07
-3.74106e-08
1.78917e-07
5.89502e-08
1.79324e-07
-4.06622e-10
1.39346e-07
3.99779e-08
1.67495e-08
1.22596e-07
-1.24991e-07
1.40976e-07
-3.05406e-07
1.79722e-07
-3.55947e-07
4.87051e-08
-2.88186e-07
-6.73497e-08
-1.24629e-07
-1.63164e-07
5.821e-08
-1.84074e-07
1.73772e-07
-1.17302e-07
1.86081e-07
-1.3301e-08
1.44085e-07
4.19953e-08
9.42924e-08
4.97924e-08
9.28563e-08
1.43611e-09
-3.07254e-08
5.37634e-08
-5.38446e-08
3.937e-08
-6.75446e-08
2.15695e-08
-7.41927e-08
8.40167e-09
-7.18907e-08
-7.80242e-09
-5.90748e-08
-2.63431e-08
-3.53559e-08
-4.50947e-08
-9.53266e-10
-6.30943e-08
4.24639e-08
-7.79667e-08
9.07848e-08
-8.54612e-08
1.3902e-07
-8.48738e-08
1.85322e-07
-7.9188e-08
2.26139e-07
-7.22685e-08
2.47194e-07
-2.86628e-08
2.97533e-07
-8.77493e-08
2.4544e-07
1.11043e-07
2.5539e-07
-1.03565e-08
2.4172e-07
5.3648e-08
1.18831e-07
2.4543e-07
-7.85497e-08
3.37081e-07
-2.79623e-07
3.7949e-07
-3.82396e-07
1.51464e-07
-3.21517e-07
-1.28235e-07
-1.82677e-07
-3.02011e-07
-5.52633e-08
-3.1086e-07
4.2044e-08
-2.14566e-07
9.81625e-08
-6.94056e-08
1.04468e-07
3.4547e-08
7.89108e-08
7.5349e-08
1.78394e-07
-3.69208e-09
-3.19093e-08
8.56726e-08
-5.62057e-08
6.36664e-08
-7.11176e-08
3.64813e-08
-7.90491e-08
1.63332e-08
-7.79376e-08
-8.9139e-09
-6.60526e-08
-3.82281e-08
-4.28912e-08
-6.82561e-08
-8.62179e-09
-9.73638e-08
3.511e-08
-1.21699e-07
8.39581e-08
-1.34309e-07
1.32602e-07
-1.33517e-07
1.79915e-07
-1.26501e-07
2.18451e-07
-1.10805e-07
2.49364e-07
-5.95752e-08
2.84936e-07
-1.23322e-07
2.6507e-07
1.30909e-07
2.71272e-07
-1.65579e-08
2.50661e-07
7.42583e-08
1.4424e-07
3.51852e-07
-1.67498e-08
4.96721e-07
-1.55734e-07
5.18606e-07
-2.43315e-07
2.3903e-07
-1.96446e-07
-1.75116e-07
-1.39839e-07
-3.58486e-07
-8.2355e-08
-3.6847e-07
-2.21536e-08
-2.74743e-07
2.06021e-08
-1.12147e-07
3.24798e-08
2.26302e-08
1.65261e-08
9.20618e-08
1.93397e-07
2.94207e-09
-3.21375e-08
1.1781e-07
-5.66519e-08
8.81808e-08
-7.17959e-08
5.16254e-08
-8.00432e-08
2.45805e-08
-7.92752e-08
-9.68188e-09
-6.76953e-08
-4.98081e-08
-4.47454e-08
-9.1206e-08
-1.05162e-08
-1.31593e-07
3.34521e-08
-1.65667e-07
8.26245e-08
-1.83482e-07
1.31528e-07
-1.82421e-07
1.80261e-07
-1.75235e-07
2.14444e-07
-1.44988e-07
2.59412e-07
-1.04543e-07
2.67754e-07
-1.31665e-07
2.80278e-07
1.18385e-07
2.86057e-07
-2.2336e-08
2.48761e-07
1.11553e-07
1.85193e-07
4.1542e-07
4.95617e-08
6.33866e-07
-3.59984e-08
6.07168e-07
-5.3986e-08
2.57001e-07
-3.62444e-08
-1.92751e-07
-2.9341e-08
-3.65056e-07
-4.62411e-08
-3.51772e-07
-5.76524e-08
-2.63514e-07
-4.404e-08
-1.25754e-07
-3.2396e-08
1.09861e-08
-2.8952e-08
8.86178e-08
1.61084e-07
3.36187e-09
-3.22516e-08
1.50062e-07
-5.68497e-08
1.12779e-07
-7.20631e-08
6.68388e-08
-8.04631e-08
3.29805e-08
-7.98952e-08
-1.02498e-08
-6.85152e-08
-6.11881e-08
-4.5734e-08
-1.13987e-07
-1.15614e-08
-1.65766e-07
3.26048e-08
-2.09833e-07
8.20636e-08
-2.32941e-07
1.3127e-07
-2.31627e-07
1.81371e-07
-2.25335e-07
2.11904e-07
-1.75522e-07
2.68502e-07
-1.6114e-07
2.44259e-07
-1.07422e-07
2.84557e-07
7.80868e-08
2.78504e-07
-1.62833e-08
2.3216e-07
1.57897e-07
2.5838e-07
3.89201e-07
1.92027e-07
7.03339e-07
1.32542e-07
6.66815e-07
9.88108e-08
2.90703e-07
6.93236e-08
-1.63377e-07
8.28439e-09
-3.04175e-07
-5.46033e-08
-2.89296e-07
-7.91064e-08
-2.39194e-07
-6.64697e-08
-1.38552e-07
-5.27872e-08
-2.6964e-09
-4.98464e-08
8.5677e-08
1.11351e-07
-1.13004e-10
-3.23709e-08
1.82433e-07
-5.70463e-08
1.37454e-07
-7.2312e-08
8.21044e-08
-8.08656e-08
4.1534e-08
-8.05146e-08
-1.06007e-08
-6.93673e-08
-7.23354e-08
-4.6807e-08
-1.36548e-07
-1.27462e-08
-1.99826e-07
3.16352e-08
-2.54214e-07
8.13559e-08
-2.82661e-07
1.31033e-07
-2.81305e-07
1.82176e-07
-2.76478e-07
2.11997e-07
-2.05342e-07
2.74616e-07
-2.2376e-07
2.3511e-07
-6.79155e-08
2.83023e-07
3.0174e-08
3.01448e-07
-3.47092e-08
2.52873e-07
2.06473e-07
3.22194e-07
3.19879e-07
3.18611e-07
7.06923e-07
3.22596e-07
6.62831e-07
2.83446e-07
3.29354e-07
1.54392e-07
-3.44345e-08
9.78189e-10
-1.50704e-07
-9.23463e-08
-1.95944e-07
-1.16713e-07
-2.15379e-07
-8.00413e-08
-1.7527e-07
-3.70576e-08
-4.56801e-08
-3.11037e-08
7.9723e-08
8.30362e-08
-2.78928e-09
-3.25114e-08
2.14944e-07
-5.72758e-08
1.62219e-07
-7.25988e-08
9.74274e-08
-8.13339e-08
5.02691e-08
-8.12428e-08
-1.06917e-08
-7.03799e-08
-8.31983e-08
-4.80972e-08
-1.5883e-07
-1.41862e-08
-2.33737e-07
3.04373e-08
-2.98838e-07
8.04568e-08
-3.32681e-07
1.30841e-07
-3.31689e-07
1.82448e-07
-3.28085e-07
2.16022e-07
-2.38917e-07
2.79281e-07
-2.87019e-07
2.50039e-07
-3.86737e-08
2.85109e-07
-4.89619e-09
3.4611e-07
-9.57102e-08
2.63261e-07
2.89322e-07
3.21818e-07
2.61322e-07
4.20002e-07
6.0874e-07
4.32586e-07
6.50246e-07
4.01446e-07
3.60294e-07
3.11209e-07
5.56895e-08
1.13703e-07
4.69695e-08
-8.01266e-08
-2.08747e-09
-1.40646e-07
-1.54834e-07
-1.18056e-07
-1.97744e-07
-4.80699e-08
-1.15666e-07
-1.69675e-08
4.86206e-08
6.63486e-08
-2.79882e-10
-3.26752e-08
2.47619e-07
-5.75423e-08
1.87086e-07
-7.293e-08
1.12815e-07
-8.18781e-08
5.92171e-08
-8.20942e-08
-1.04756e-08
-7.15691e-08
-9.37234e-08
-4.96204e-08
-1.80779e-07
-1.5896e-08
-2.67462e-07
2.90273e-08
-3.43761e-07
7.93579e-08
-3.83011e-07
1.30685e-07
-3.83016e-07
1.8178e-07
-3.7918e-07
2.25668e-07
-2.82804e-07
2.74502e-07
-3.35853e-07
2.95421e-07
-5.95921e-08
2.95383e-07
-4.85818e-09
3.68539e-07
-1.68867e-07
3.0054e-07
3.57322e-07
2.7702e-07
2.84842e-07
4.12957e-07
4.72802e-07
4.97474e-07
5.65729e-07
4.5294e-07
4.04776e-07
3.38809e-07
1.69949e-07
2.12444e-07
1.73495e-07
7.26771e-08
1.37701e-07
-5.81124e-08
-2.40582e-08
-1.20026e-07
-1.35918e-07
-7.14114e-08
-1.64255e-07
-1.52755e-08
-7.51528e-09
5.29646e-08
-1.89147e-09
-3.28629e-08
2.80482e-07
-5.78462e-08
2.12069e-07
-7.33053e-08
1.28274e-07
-8.24987e-08
6.84105e-08
-8.30695e-08
-9.90479e-09
-7.29367e-08
-1.03856e-07
-5.13809e-08
-2.02335e-07
-1.78827e-08
-3.0096e-07
2.73865e-08
-3.89031e-07
7.8058e-08
-4.33683e-07
1.30421e-07
-4.35379e-07
1.80762e-07
-4.2952e-07
2.36499e-07
-3.38542e-07
2.57055e-07
-3.56409e-07
3.2717e-07
-1.29707e-07
3.31276e-07
-8.96448e-09
3.66803e-07
-2.04394e-07
3.87033e-07
3.37092e-07
2.88601e-07
3.83273e-07
3.21518e-07
4.39885e-07
4.16506e-07
4.70741e-07
4.26011e-07
3.95271e-07
3.62235e-07
2.33726e-07
3.12811e-07
2.22919e-07
2.73196e-07
1.77316e-07
1.57579e-07
9.15074e-08
4.109e-08
-1.95165e-08
-2.53326e-08
-9.7753e-08
-7.37858e-09
-2.54667e-08
4.66116e-08
-1.02564e-09
-3.30746e-08
3.13557e-07
-5.81872e-08
2.37182e-07
-7.37232e-08
1.4381e-07
-8.31948e-08
7.78821e-08
-8.41681e-08
-8.93148e-09
-7.4483e-08
-1.13541e-07
-5.33817e-08
-2.23436e-07
-2.0154e-08
-3.34188e-07
2.55118e-08
-4.34696e-07
7.65489e-08
-4.8472e-07
1.29817e-07
-4.88647e-07
1.81134e-07
-4.80838e-07
2.40045e-07
-3.97453e-07
2.51291e-07
-3.67655e-07
3.39127e-07
-2.17543e-07
3.71366e-07
-4.12035e-08
3.31965e-07
-1.64992e-07
3.81982e-07
2.87074e-07
3.23011e-07
4.42244e-07
2.80232e-07
4.82665e-07
3.36881e-07
4.14091e-07
3.86826e-07
3.45327e-07
3.92553e-07
2.27999e-07
3.72893e-07
2.42579e-07
3.31216e-07
2.18993e-07
2.92009e-07
1.30715e-07
2.17926e-07
5.44348e-08
9.70816e-08
2.30407e-08
3.42748e-08
3.73937e-08
8.10336e-08
-1.47252e-10
-3.33106e-08
3.46867e-07
-5.85653e-08
2.62436e-07
-7.4182e-08
1.59427e-07
-8.39646e-08
8.76647e-08
-8.53885e-08
-7.50766e-09
-7.62086e-08
-1.22721e-07
-5.56269e-08
-2.44018e-07
-2.27184e-08
-3.67096e-07
2.33863e-08
-4.80801e-07
7.48144e-08
-5.36148e-07
1.28898e-07
-5.42731e-07
1.82857e-07
-5.34797e-07
2.36868e-07
-4.51464e-07
2.69329e-07
-4.00116e-07
3.48717e-07
-2.96931e-07
3.7566e-07
-6.81458e-08
3.29834e-07
-1.19167e-07
3.64079e-07
2.52829e-07
3.74758e-07
4.31565e-07
3.67494e-07
4.89929e-07
3.67613e-07
4.13973e-07
3.71853e-07
3.41086e-07
3.92926e-07
2.06926e-07
4.14074e-07
2.21431e-07
3.52876e-07
2.80192e-07
2.26716e-07
2.56874e-07
9.03816e-08
1.90651e-07
6.50263e-09
1.06869e-07
-9.55478e-09
5.34644e-08
6.6966e-08
4.51285e-09
-3.35713e-08
3.80439e-07
-5.898e-08
2.87845e-07
-7.46793e-08
1.75126e-07
-8.48066e-08
9.7792e-08
-8.67299e-08
-5.58437e-09
-7.81133e-08
-1.31338e-07
-5.81207e-08
-2.64011e-07
-2.55852e-08
-3.99632e-07
2.09946e-08
-5.27381e-07
7.28156e-08
-5.87969e-07
1.27879e-07
-5.97794e-07
1.84144e-07
-5.91063e-07
2.34023e-07
-5.01343e-07
2.91392e-07
-4.57485e-07
3.36851e-07
-3.42389e-07
3.74036e-07
-1.05331e-07
3.74069e-07
-1.192e-07
3.88229e-07
2.3867e-07
4.22622e-07
3.97172e-07
4.33889e-07
4.78662e-07
4.30432e-07
4.1743e-07
4.30825e-07
3.40693e-07
3.58623e-07
2.79128e-07
2.77548e-07
3.02506e-07
2.17792e-07
3.39948e-07
1.84215e-07
2.90451e-07
1.40959e-07
2.33874e-07
7.89916e-08
1.68785e-07
2.74304e-08
1.05042e-07
9.71832e-08
-2.78627e-09
-3.38569e-08
4.14295e-07
-5.94313e-08
3.1342e-07
-7.52127e-08
1.90908e-07
-8.57192e-08
1.08298e-07
-8.81901e-08
-3.11351e-09
-8.01971e-08
-1.39331e-07
-6.08675e-08
-2.8334e-07
-2.87644e-08
-4.31735e-07
1.83075e-08
-5.74453e-07
7.05228e-08
-6.40185e-07
1.26832e-07
-6.54102e-07
1.84013e-07
-6.48244e-07
2.37643e-07
-5.54973e-07
2.93387e-07
-5.13229e-07
3.37458e-07
-3.8646e-07
3.74845e-07
-1.42718e-07
4.13435e-07
-1.57791e-07
4.72868e-07
1.79237e-07
4.98525e-07
3.71515e-07
5.03581e-07
4.73606e-07
4.40637e-07
4.80374e-07
3.11028e-07
4.70302e-07
1.99591e-07
3.90565e-07
2.1886e-07
2.83237e-07
2.69921e-07
2.88888e-07
2.57249e-07
3.03123e-07
1.74822e-07
3.16303e-07
9.36459e-08
2.49912e-07
3.38504e-08
1.6491e-07
1.29838e-07
1.19644e-09
-3.41679e-08
4.48463e-07
-5.99186e-08
3.3917e-07
-7.5779e-08
2.06768e-07
-8.6699e-08
1.19218e-07
-8.97685e-08
-4.39606e-11
-8.24603e-08
-1.46639e-07
-6.38716e-08
-3.01929e-07
-3.22672e-08
-4.63339e-07
1.53104e-08
-6.2203e-07
6.79204e-08
-6.92794e-07
1.25599e-07
-7.11782e-07
1.83428e-07
-7.06072e-07
2.39661e-07
-6.11206e-07
2.93316e-07
-5.66884e-07
3.13222e-07
-4.06366e-07
4.02873e-07
-2.3237e-07
5.06706e-07
-2.61624e-07
5.77307e-07
1.08636e-07
5.7284e-07
3.75982e-07
4.91681e-07
5.54765e-07
3.59803e-07
6.12252e-07
3.16976e-07
5.1313e-07
3.43427e-07
3.64114e-07
3.30655e-07
2.96008e-07
2.48006e-07
3.71537e-07
1.00107e-07
4.51022e-07
1.30347e-08
4.03372e-07
-5.94682e-09
2.69075e-07
-6.18959e-09
1.65211e-07
1.21275e-07
2.37357e-09
-3.45047e-08
4.82968e-07
-6.04417e-08
3.65107e-07
-7.63739e-08
2.227e-07
-8.77435e-08
1.30588e-07
-9.14626e-08
3.67511e-09
-8.49025e-08
-1.53199e-07
-6.71384e-08
-3.19693e-07
-3.61059e-08
-4.94372e-07
1.19746e-08
-6.70111e-07
6.49798e-08
-7.458e-07
1.24114e-07
-7.70916e-07
1.81383e-07
-7.63341e-07
2.42762e-07
-6.72585e-07
2.64453e-07
-5.88576e-07
3.27066e-07
-4.68978e-07
4.78212e-07
-3.83516e-07
5.41994e-07
-3.25406e-07
5.41117e-07
1.09513e-07
4.4808e-07
4.69019e-07
3.81398e-07
6.21448e-07
3.57455e-07
6.36194e-07
2.79805e-07
5.9078e-07
8.06257e-08
5.63293e-07
-1.02966e-07
4.79599e-07
-1.7365e-07
4.42221e-07
-1.73886e-07
4.51258e-07
-1.13945e-07
3.43432e-07
-4.98047e-08
2.04937e-07
-1.64466e-08
1.31858e-07
1.07368e-07
-2.53967e-09
-3.48679e-08
5.17836e-07
-6.10003e-08
3.9124e-07
-7.69916e-08
2.38692e-07
-8.88504e-08
1.42447e-07
-9.32697e-08
8.09443e-09
-8.75228e-08
-1.58946e-07
-7.06731e-08
-3.36543e-07
-4.02912e-08
-5.24753e-07
8.25011e-09
-7.18652e-07
6.16827e-08
-7.99232e-07
1.21877e-07
-8.31111e-07
1.78966e-07
-8.2043e-07
2.33403e-07
-7.27022e-07
2.39682e-07
-5.94855e-07
3.53032e-07
-5.82329e-07
5.07279e-07
-5.37762e-07
4.07654e-07
-2.25781e-07
3.48465e-07
1.68702e-07
4.00284e-07
4.17201e-07
4.20332e-07
6.01399e-07
3.59084e-07
6.97443e-07
3.29373e-07
6.20491e-07
3.15252e-07
5.77414e-07
2.63559e-07
5.31292e-07
1.95199e-07
5.10581e-07
1.80412e-07
4.66041e-07
1.87782e-07
3.3606e-07
1.55086e-07
2.37634e-07
8.35885e-08
2.03345e-07
1.96279e-07
-5.35247e-09
-3.52582e-08
5.53094e-07
-6.1594e-08
4.17575e-07
-7.76245e-08
2.54722e-07
-9.0018e-08
1.5484e-07
-9.51874e-08
1.32638e-08
-9.03204e-08
-1.63813e-07
-7.44813e-08
-3.52382e-07
-4.48333e-08
-5.54401e-07
4.0394e-09
-7.67525e-07
5.79792e-08
-8.53172e-07
1.18429e-07
-8.91561e-07
1.74774e-07
-8.76774e-07
2.10098e-07
-7.62346e-07
2.58812e-07
-6.43569e-07
3.52557e-07
-6.76073e-07
3.97153e-07
-5.82358e-07
3.63951e-07
-1.92579e-07
4.49272e-07
8.33804e-08
4.87544e-07
3.78929e-07
5.39566e-07
5.49377e-07
5.57656e-07
6.79353e-07
4.99769e-07
6.78377e-07
4.92799e-07
5.84384e-07
4.71403e-07
5.52688e-07
4.26835e-07
5.55149e-07
4.06415e-07
4.86453e-07
3.53582e-07
3.88886e-07
2.47206e-07
3.44011e-07
1.2009e-07
3.30418e-07
3.21523e-07
-5.15846e-09
-3.56762e-08
5.8877e-07
-6.22224e-08
4.44122e-07
-7.82742e-08
2.70774e-07
-9.12449e-08
1.67811e-07
-9.72127e-08
1.92316e-08
-9.32939e-08
-1.67732e-07
-7.8569e-08
-3.67107e-07
-4.97385e-08
-5.83232e-07
-3.29281e-10
-8.16934e-07
5.37534e-08
-9.07255e-07
1.13562e-07
-9.51369e-07
1.67124e-07
-9.30337e-07
1.89215e-07
-7.84437e-07
2.81403e-07
-7.35757e-07
3.00305e-07
-6.94976e-07
3.57266e-07
-6.39319e-07
5.4487e-07
-3.80184e-07
5.7308e-07
5.51742e-08
5.00651e-07
4.51358e-07
5.20576e-07
5.29451e-07
5.58117e-07
6.41812e-07
3.69775e-07
8.66719e-07
1.53838e-07
8.00321e-07
1.13916e-07
5.9261e-07
1.60283e-07
5.0878e-07
1.97352e-07
4.49381e-07
2.06239e-07
3.80002e-07
1.59854e-07
3.90397e-07
7.49128e-08
4.15287e-07
3.9583e-07
6.01791e-10
-3.61227e-08
6.24893e-07
-6.28854e-08
4.70884e-07
-7.89484e-08
2.86837e-07
-9.25294e-08
1.81392e-07
-9.93422e-08
2.60445e-08
-9.64413e-08
-1.70633e-07
-8.29441e-08
-3.80604e-07
-5.50112e-08
-6.11165e-07
-4.18682e-09
-8.67759e-07
4.88694e-08
-9.60311e-07
1.07887e-07
-1.01039e-06
1.57528e-07
-9.79977e-07
1.95606e-07
-8.22515e-07
2.64773e-07
-8.04924e-07
2.87576e-07
-7.17778e-07
4.60802e-07
-8.12544e-07
5.16558e-07
-4.35936e-07
5.16096e-07
5.56397e-08
7.05979e-07
2.15356e-07
8.16935e-07
4.18495e-07
1.00782e-06
4.50926e-07
9.44667e-07
9.29872e-07
6.97385e-07
1.0476e-06
3.82092e-07
9.07903e-07
1.76006e-07
7.14866e-07
8.27224e-08
5.42671e-07
6.70169e-08
3.95705e-07
6.36776e-08
3.93373e-07
2.91742e-08
4.49828e-07
4.18851e-07
6.18094e-09
-3.65986e-08
6.61492e-07
-6.35824e-08
4.97868e-07
-7.96524e-08
3.02907e-07
-9.38697e-08
1.95609e-07
-1.01572e-07
3.3747e-08
-9.97589e-08
-1.72446e-07
-8.76152e-08
-3.92747e-07
-6.06756e-08
-6.38104e-07
-8.67164e-09
-9.19762e-07
4.33948e-08
-1.01238e-06
1.03144e-07
-1.07014e-06
1.49959e-07
-1.02679e-06
2.12301e-07
-8.84857e-07
2.25253e-07
-8.17876e-07
3.6756e-07
-8.60085e-07
3.6507e-07
-8.10004e-07
4.30829e-07
-4.55741e-07
5.49902e-07
-1.18707e-07
4.47418e-07
1.81457e-07
2.85006e-07
5.21962e-07
3.79837e-07
2.86083e-07
6.20809e-07
6.20825e-07
7.50762e-07
9.17659e-07
5.424e-07
1.11627e-06
3.14488e-07
9.42777e-07
1.56167e-07
7.00987e-07
6.97031e-08
4.82167e-07
3.04009e-08
4.32517e-07
1.01889e-08
4.70082e-07
4.2468e-07
4.35758e-09
-3.71049e-08
6.98597e-07
-6.43133e-08
5.25077e-07
-8.03867e-08
3.1898e-07
-9.52637e-08
2.10486e-07
-1.03898e-07
4.23812e-08
-1.03244e-07
-1.731e-07
-9.25943e-08
-4.03397e-07
-6.67492e-08
-6.63949e-07
-1.36133e-08
-9.72898e-07
3.78092e-08
-1.0638e-06
1.00636e-07
-1.13296e-06
1.45987e-07
-1.07214e-06
2.06405e-07
-9.45275e-07
2.33298e-07
-8.44768e-07
2.52513e-07
-8.79267e-07
4.36719e-07
-8.07406e-07
8.17242e-08
-9.30377e-08
-2.16694e-07
-1.21818e-08
-3.50868e-07
1.45837e-07
-3.16258e-07
4.24908e-07
-2.76249e-07
2.5556e-07
-1.30881e-07
4.40415e-07
3.5765e-07
3.80824e-07
5.59714e-07
9.14141e-07
4.37362e-07
1.06513e-06
2.82541e-07
8.55802e-07
1.39689e-07
6.2502e-07
5.49116e-08
5.1714e-07
1.71853e-08
5.07824e-07
4.41621e-07
3.46685e-11
-3.76427e-08
7.36239e-07
-6.50776e-08
5.52512e-07
-8.1147e-08
3.3505e-07
-9.67089e-08
2.26048e-07
-1.06315e-07
5.19871e-08
-1.06891e-07
-1.72524e-07
-9.78935e-08
-4.12395e-07
-7.3241e-08
-6.88602e-07
-1.89059e-08
-1.02723e-06
3.2596e-08
-1.1153e-06
9.88272e-08
-1.19919e-06
1.40282e-07
-1.1136e-06
1.87532e-07
-9.92524e-07
2.26098e-07
-8.83299e-07
1.7245e-07
-6.93201e-07
9.14523e-08
-1.83024e-07
3.03618e-09
-9.44669e-10
-1.44362e-07
1.59909e-08
-1.37159e-07
-8.61977e-08
-1.99814e-07
3.07046e-07
-3.74076e-08
5.56436e-08
2.8698e-08
4.05329e-07
2.21513e-07
2.07899e-07
4.80746e-07
6.38397e-07
4.46749e-07
1.09658e-06
3.11862e-07
9.90678e-07
1.67181e-07
7.69701e-07
7.17015e-08
6.12871e-07
2.6406e-08
5.5167e-07
4.70153e-07
-2.12682e-09
-3.8213e-08
7.74452e-07
-6.5875e-08
5.80174e-07
-8.1929e-08
3.51104e-07
-9.82027e-08
2.42322e-07
-1.08818e-07
6.26024e-08
-1.10699e-07
-1.70643e-07
-1.03526e-07
-4.19568e-07
-8.01439e-08
-7.11984e-07
-2.44376e-08
-1.08294e-06
2.72666e-08
-1.16701e-06
9.31557e-08
-1.26508e-06
1.29125e-07
-1.14957e-06
1.77826e-07
-1.04121e-06
1.49442e-07
-7.53424e-07
1.80539e-07
-2.01699e-07
3.04628e-09
-6.37123e-09
1.94102e-09
4.6628e-11
1.52638e-08
2.26653e-09
-9.26784e-08
5.77635e-09
-1.71854e-07
1.10276e-07
-1.76277e-08
-1.59882e-07
1.36768e-07
2.48761e-07
1.61834e-07
1.8328e-07
2.42335e-07
5.5675e-07
3.29325e-07
1.00878e-06
2.52898e-07
1.0671e-06
1.60149e-07
8.62448e-07
8.79863e-08
6.85124e-07
3.83779e-08
6.00387e-07
5.09888e-07
-1.29199e-09
-3.88171e-08
8.13269e-07
-6.67048e-08
6.08061e-07
-8.27282e-08
3.67127e-07
-9.97406e-08
2.59334e-07
-1.11398e-07
7.42601e-08
-1.14659e-07
-1.67382e-07
-1.09507e-07
-4.2472e-07
-8.74542e-08
-7.34037e-07
-3.02529e-08
-1.14014e-06
1.94701e-08
-1.21673e-06
7.77993e-08
-1.32341e-06
1.18581e-07
-1.19034e-06
1.89491e-07
-1.02757e-06
1.98448e-07
-3.01816e-07
5.78809e-09
-9.95995e-09
-2.00839e-11
-6.1789e-10
7.69175e-11
-3.20664e-11
2.08937e-09
1.70027e-10
7.13499e-09
7.47042e-10
-1.2701e-07
3.31418e-09
-3.11625e-07
-1.61082e-07
-7.24187e-08
8.66615e-09
-2.03066e-08
1.31611e-07
6.21541e-08
4.7354e-07
1.66257e-07
8.98257e-07
1.52506e-07
1.08051e-06
1.20523e-07
8.94431e-07
7.54683e-08
7.30173e-07
2.92062e-08
6.46642e-07
5.40953e-07
-1.81663e-09
-3.94567e-08
8.52726e-07
-6.75675e-08
6.36172e-07
-8.3542e-08
3.83102e-07
-1.01323e-07
2.77115e-07
-1.14058e-07
8.69949e-08
-1.18774e-07
-1.62665e-07
-1.15852e-07
-4.27642e-07
-9.51606e-08
-7.54729e-07
-3.67708e-08
-1.19853e-06
3.76857e-09
-1.25727e-06
4.72985e-08
-1.36694e-06
1.24272e-07
-1.25344e-06
2.52049e-07
-4.60186e-07
9.52525e-09
-1.07772e-08
5.37886e-10
-5.87995e-10
2.58254e-11
-4.28292e-11
2.63215e-11
-1.42546e-11
1.41744e-10
6.61422e-11
3.35478e-10
5.78077e-10
-5.44823e-08
1.54647e-08
-4.26842e-07
-2.38312e-07
-2.848e-07
-1.3239e-07
-1.22095e-07
-3.01662e-08
-6.93203e-08
4.3486e-07
1.17751e-08
8.13357e-07
4.8317e-08
1.04435e-06
4.06805e-08
9.02071e-07
2.11041e-08
7.49752e-07
7.60831e-09
6.60138e-07
5.5132e-07
-4.41819e-09
-4.01251e-08
8.92851e-07
-6.84583e-08
6.64505e-07
-8.4361e-08
3.99004e-07
-1.02933e-07
2.95687e-07
-1.16759e-07
1.00821e-07
-1.23004e-07
-1.5642e-07
-1.22569e-07
-4.28077e-07
-1.03271e-07
-7.74027e-07
-4.61227e-08
-1.25568e-06
-3.68353e-08
-1.26656e-06
7.30128e-09
-1.41104e-06
2.1649e-07
-5.25976e-07
1.12638e-08
-5.01291e-09
6.36333e-10
-1.50205e-10
5.32775e-11
-6.0132e-12
1.16874e-11
-1.92968e-13
1.23531e-11
-3.49785e-12
3.89833e-11
5.59425e-11
-2.12296e-09
2.7578e-09
-2.86587e-09
1.52068e-08
-2.77361e-07
-1.33593e-07
-3.5231e-07
-1.71798e-07
-2.19219e-07
-1.6325e-07
-1.58851e-07
3.79019e-07
-1.16664e-07
7.87062e-07
-5.44993e-08
9.81573e-07
-2.87757e-08
8.76353e-07
-2.28726e-08
7.41191e-07
-6.27541e-09
6.43543e-07
5.46346e-07
-1.30128e-09
-4.09872e-08
9.33838e-07
-6.94065e-08
6.92925e-07
-8.52141e-08
4.14812e-07
-1.04617e-07
3.1509e-07
-1.19564e-07
1.15768e-07
-1.27397e-07
-1.48587e-07
-1.29676e-07
-4.25798e-07
-1.1177e-07
-7.91934e-07
-6.74245e-08
-1.30002e-06
-8.45368e-08
-1.24932e-06
2.09787e-07
-9.98694e-07
4.78784e-09
-2.59174e-08
1.42955e-10
-3.09398e-10
9.16581e-12
-1.53431e-11
2.73655e-12
-9.48957e-13
3.84506e-12
1.60358e-12
1.71534e-11
-5.38343e-12
4.29065e-11
4.57777e-11
-2.38386e-10
1.50695e-09
5.81579e-10
3.78388e-09
-1.20705e-07
-1.54338e-08
-3.71897e-07
-1.17866e-07
-3.32597e-07
-2.0254e-07
-2.2873e-07
2.75183e-07
-1.70203e-07
7.32911e-07
-9.42124e-08
9.05796e-07
-4.1332e-08
8.23337e-07
-2.64132e-08
7.26289e-07
-2.13858e-09
6.19283e-07
5.4e-07
4.2093e-09
-3.94977e-08
9.73336e-07
-7.01496e-08
7.23576e-07
-8.57743e-08
4.30437e-07
-1.06015e-07
3.3533e-07
-1.22218e-07
1.31972e-07
-1.31837e-07
-1.38969e-07
-1.37258e-07
-4.20376e-07
-1.21026e-07
-8.08166e-07
-1.19511e-07
-1.30154e-06
-2.39616e-08
-1.33757e-06
2.48602e-08
-1.88024e-07
2.58028e-10
-1.36901e-09
1.07226e-11
-6.65817e-11
2.32597e-12
-7.42791e-12
1.43915e-12
-7.4679e-13
1.2213e-12
1.16012e-12
6.04659e-11
-1.77913e-11
4.3731e-11
7.68335e-11
2.79048e-10
2.02513e-10
2.26317e-09
4.90257e-10
-1.35284e-08
-7.91102e-11
-4.47813e-07
7.4146e-09
-4.48491e-07
-2.01855e-07
-3.44765e-07
1.71455e-07
-2.63677e-07
6.51831e-07
-1.68889e-07
8.11448e-07
-1.10329e-07
7.65013e-07
-5.02166e-08
6.66193e-07
-1.40616e-08
5.83129e-07
5.22519e-07
4.39431e-09
-6.43059e-08
1.03764e-06
-7.24576e-08
7.31728e-07
-8.89217e-08
4.46901e-07
-1.0973e-07
3.56139e-07
-1.26e-07
1.48241e-07
-1.36564e-07
-1.28404e-07
-1.45142e-07
-4.11799e-07
-1.32045e-07
-8.21262e-07
-1.43422e-07
-1.28018e-06
1.7905e-07
-7.67663e-07
7.90935e-10
-1.53235e-08
3.26956e-11
-6.39827e-10
4.35746e-12
-3.90013e-11
5.36361e-13
-4.57596e-12
2.17251e-12
-2.69224e-12
1.96836e-11
3.31432e-11
3.95719e-11
-3.35242e-11
2.35897e-11
1.06018e-10
6.89599e-11
1.6825e-10
3.01376e-10
1.88775e-10
3.90514e-10
-3.8649e-10
-2.15122e-07
3.32037e-08
-5.36576e-07
-4.96208e-08
-4.39714e-07
7.45903e-08
-3.40452e-07
5.52569e-07
-2.0748e-07
6.78481e-07
-1.58955e-07
7.17304e-07
-8.84378e-08
5.95835e-07
-3.76314e-08
5.32329e-07
4.85859e-07
-1.06297e-10
9.38512e-08
9.43791e-07
-7.34882e-08
8.99068e-07
-7.82047e-08
4.51617e-07
-1.03756e-07
3.81691e-07
-1.25554e-07
1.70039e-07
-1.42197e-07
-1.11761e-07
-1.58428e-07
-3.95568e-07
-2.096e-07
-7.7009e-07
2.54484e-07
-1.81057e-06
1.33733e-08
-2.62834e-07
5.94661e-10
-2.03252e-09
5.59058e-11
-6.06818e-11
4.83541e-12
-4.10932e-12
7.64994e-13
-2.04325e-12
9.39113e-12
-4.17504e-11
3.5794e-11
9.24732e-12
2.39122e-11
-1.7007e-11
3.4396e-11
1.35358e-10
3.89322e-11
1.50698e-10
1.17897e-10
8.10347e-11
-2.90572e-10
1.46606e-11
5.89734e-09
1.53967e-08
-5.91444e-07
2.89892e-07
-4.56998e-07
-5.98574e-08
-2.8631e-07
3.81881e-07
-1.81087e-07
5.7326e-07
-1.46355e-07
6.82863e-07
-9.44622e-08
5.46257e-07
-4.18533e-08
4.8108e-07
1.32251e-09
4.42688e-07
-9.62084e-08
9.76445e-08
-1.45549e-07
4.93404e-08
-1.88329e-07
4.27797e-08
-1.78919e-07
-1.03814e-08
-6.40502e-08
-1.16639e-07
1.19878e-07
-1.84307e-07
2.85789e-07
-1.65748e-07
3.552e-07
-6.90669e-08
3.05089e-07
4.8262e-08
1.24232e-07
1.80222e-07
-1.77279e-08
1.41157e-07
-1.39867e-07
1.22139e-07
-1.79349e-07
3.94818e-08
-1.78928e-07
-4.20925e-10
-2.37306e-07
5.83778e-08
-2.00352e-07
-3.69538e-08
-1.92183e-07
-8.16979e-09
-1.61115e-07
-3.10674e-08
-1.28102e-07
-3.30134e-08
-9.16291e-08
-3.64727e-08
-5.44786e-08
-3.71505e-08
-2.00254e-08
-3.44531e-08
8.63971e-09
-2.86651e-08
2.99445e-08
-2.13048e-08
4.33937e-08
-1.34492e-08
4.88352e-08
-5.44154e-09
4.70616e-08
1.77362e-09
3.92047e-08
7.85688e-09
2.30219e-08
1.61829e-08
2.30219e-08
-8.27933e-08
1.79724e-07
-1.06015e-07
7.25618e-08
-9.99666e-08
3.55104e-08
-4.54164e-08
-6.49192e-08
5.05354e-08
-2.12537e-07
1.76341e-07
-3.10068e-07
3.17501e-07
-3.06893e-07
3.79845e-07
-1.31415e-07
2.7795e-07
1.50141e-07
7.77609e-08
3.79121e-07
-1.19565e-07
3.37082e-07
-2.4195e-07
2.44521e-07
-2.5542e-07
5.29516e-08
-2.45473e-07
-1.03673e-08
-2.96841e-07
1.09746e-07
-2.47104e-07
-8.66916e-08
-2.25383e-07
-2.98905e-08
-1.85008e-07
-7.14429e-08
-1.38571e-07
-7.94501e-08
-9.04981e-08
-8.45455e-08
-4.21856e-08
-8.54631e-08
1.15969e-09
-7.77984e-08
3.54924e-08
-6.29979e-08
5.91186e-08
-4.4931e-08
7.1841e-08
-2.61716e-08
7.40807e-08
-7.6813e-09
6.74246e-08
8.42972e-09
5.37494e-08
2.15321e-08
3.07104e-08
3.92218e-08
5.37323e-08
-1.11015e-08
1.95197e-07
-2.97302e-08
9.19551e-08
-2.01074e-08
2.58405e-08
2.23988e-08
-1.07413e-07
8.17301e-08
-2.7183e-07
1.36614e-07
-3.65108e-07
1.93308e-07
-3.63462e-07
2.41056e-07
-1.79178e-07
1.54289e-07
2.36891e-07
1.73477e-08
5.16291e-07
-1.44351e-07
4.97379e-07
-2.50791e-07
3.50962e-07
-2.71083e-07
7.32432e-08
-2.65024e-07
-1.64261e-08
-2.83963e-07
1.28684e-07
-2.49277e-07
-1.21377e-07
-2.17661e-07
-6.15062e-08
-1.79592e-07
-1.09512e-07
-1.32149e-07
-1.26893e-07
-8.36631e-08
-1.33032e-07
-3.48228e-08
-1.34303e-07
8.82695e-09
-1.21448e-07
4.30294e-08
-9.72003e-08
6.60948e-08
-6.79964e-08
7.78833e-08
-3.79601e-08
7.89318e-08
-8.72973e-09
7.09942e-08
1.63673e-08
5.61091e-08
3.64172e-08
3.18946e-08
6.34363e-08
8.56269e-08
3.50096e-08
1.6355e-07
3.47963e-08
9.21684e-08
4.64065e-08
1.42303e-08
6.2222e-08
-1.23232e-07
5.07971e-08
-2.60602e-07
3.06443e-08
-3.45172e-07
3.6094e-08
-3.68576e-07
5.31063e-08
-1.96089e-07
3.50573e-08
2.54922e-07
-5.04842e-08
6.04852e-07
-1.86237e-07
6.32361e-07
-2.48303e-07
4.13028e-07
-2.85894e-07
1.10834e-07
-2.79946e-07
-2.23744e-08
-2.66494e-07
1.15233e-07
-2.59284e-07
-1.28588e-07
-2.13645e-07
-1.07145e-07
-1.79933e-07
-1.43225e-07
-1.31076e-07
-1.7575e-07
-8.23348e-08
-1.81773e-07
-3.31566e-08
-1.83482e-07
1.07218e-08
-1.65327e-07
4.48853e-08
-1.31364e-07
6.77381e-08
-9.08493e-08
7.92196e-08
-4.94416e-08
7.99243e-08
-9.43442e-09
7.16711e-08
2.46205e-08
5.65546e-08
5.15336e-08
3.21232e-08
8.78678e-08
1.1775e-07
4.96435e-08
1.13794e-07
5.35212e-08
8.82908e-08
6.92025e-08
-1.45108e-09
8.33718e-08
-1.37547e-07
5.91567e-08
-2.36583e-07
-4.82203e-09
-2.81631e-07
-6.89684e-08
-3.0455e-07
-1.00194e-07
-1.64971e-07
-1.34204e-07
2.88897e-07
-1.92509e-07
6.6335e-07
-2.59675e-07
7.04886e-07
-2.32042e-07
3.85394e-07
-2.77211e-07
1.56003e-07
-2.84102e-07
-1.54826e-08
-2.42792e-07
7.39231e-08
-2.6834e-07
-1.0304e-07
-2.11128e-07
-1.64357e-07
-1.81037e-07
-1.73316e-07
-1.30819e-07
-2.25967e-07
-8.17757e-08
-2.30816e-07
-3.23183e-08
-2.32939e-07
1.1767e-08
-2.09412e-07
4.58747e-08
-1.65471e-07
6.85584e-08
-1.13533e-07
7.98382e-08
-6.07214e-08
8.03425e-08
-9.93875e-09
7.19368e-08
3.30261e-08
5.67518e-08
6.67187e-08
3.22378e-08
1.12382e-07
1.49988e-07
2.75931e-08
8.34112e-08
3.59404e-08
7.99435e-08
8.1864e-08
-4.73747e-08
1.19145e-07
-1.74862e-07
9.46386e-08
-2.12634e-07
2.99039e-09
-1.89956e-07
-1.53151e-07
-1.48376e-07
-2.84059e-07
-3.41686e-08
-3.23664e-07
3.27988e-07
-3.19344e-07
6.59031e-07
-3.23091e-07
7.08632e-07
-2.52934e-07
3.15238e-07
-3.01671e-07
2.0474e-07
-2.8255e-07
-3.46031e-08
-2.34156e-07
2.55282e-08
-2.74456e-07
-6.27397e-08
-2.11297e-07
-2.27516e-07
-1.81835e-07
-2.02778e-07
-1.30583e-07
-2.77219e-07
-8.10686e-08
-2.80331e-07
-3.13414e-08
-2.82666e-07
1.29511e-08
-2.53704e-07
4.69486e-08
-1.99469e-07
6.94106e-08
-1.35995e-07
8.04559e-08
-7.17666e-08
8.07429e-08
-1.02258e-08
7.2184e-08
4.1585e-08
5.69476e-08
8.19552e-08
3.23577e-08
1.36972e-07
1.82346e-07
1.62484e-08
6.68829e-08
4.77215e-08
4.84704e-08
1.17726e-07
-1.17379e-07
1.4119e-07
-1.98202e-07
8.34637e-08
-1.54881e-07
-1.07369e-07
9.0355e-10
-3.09127e-07
5.35565e-08
-4.01467e-07
5.8066e-08
-4.31884e-07
3.58218e-07
-4.20096e-07
6.47243e-07
-3.23693e-07
6.1223e-07
-2.64493e-07
2.56037e-07
-3.45313e-07
2.85561e-07
-2.85016e-07
-9.49007e-08
-2.49748e-07
-9.73955e-09
-2.79176e-07
-3.33116e-08
-2.15423e-07
-2.91269e-07
-1.82099e-07
-2.36102e-07
-1.30389e-07
-3.28929e-07
-8.01744e-08
-3.30545e-07
-3.0155e-08
-3.32686e-07
1.43909e-08
-2.9825e-07
4.82396e-08
-2.33318e-07
7.04233e-08
-1.58179e-07
8.11821e-08
-8.25254e-08
8.12086e-08
-1.02524e-08
7.24688e-08
5.03248e-08
5.71761e-08
9.7248e-08
3.2499e-08
1.61649e-07
2.14845e-07
1.21449e-08
5.28465e-08
7.01958e-08
-9.58053e-09
1.17961e-07
-1.6512e-07
5.44507e-08
-1.34776e-07
-7.73081e-08
-2.31272e-08
-2.17151e-07
1.40767e-07
-3.39448e-07
1.76014e-07
-4.51288e-07
1.70039e-07
-4.96694e-07
4.03572e-07
-4.13429e-07
5.63978e-07
-2.78407e-07
4.77207e-07
-3.0218e-07
2.79811e-07
-3.67646e-07
3.51027e-07
-2.95288e-07
-1.67259e-07
-2.95465e-07
-9.56263e-09
-2.74343e-07
-5.44336e-08
-2.25152e-07
-3.4046e-07
-1.8142e-07
-2.79834e-07
-1.30228e-07
-3.80121e-07
-7.9082e-08
-3.81691e-07
-2.87384e-08
-3.83029e-07
1.61002e-08
-3.43089e-07
4.9764e-08
-2.66981e-07
7.16124e-08
-1.80027e-07
8.20307e-08
-9.29436e-08
8.17502e-08
-9.97187e-09
7.27976e-08
5.92773e-08
5.74414e-08
1.12604e-07
3.26638e-08
1.86426e-07
2.47508e-07
8.11942e-09
4.37015e-08
2.97056e-08
-3.11623e-08
-3.66523e-08
-9.86865e-08
-1.5458e-07
-1.69333e-08
-2.69855e-07
9.20963e-08
-3.1125e-07
1.82162e-07
-3.63261e-07
2.28025e-07
-4.23563e-07
2.30341e-07
-4.14354e-07
3.94362e-07
-3.22604e-07
4.72229e-07
-2.89078e-07
4.43681e-07
-3.87252e-07
3.77984e-07
-3.6501e-07
3.28784e-07
-3.31106e-07
-2.01163e-07
-3.26726e-07
-1.39429e-08
-2.56669e-07
-1.2449e-07
-2.35957e-07
-3.61172e-07
-1.80406e-07
-3.35385e-07
-1.29953e-07
-4.30574e-07
-7.77808e-08
-4.33863e-07
-2.71067e-08
-4.33703e-07
1.80869e-08
-3.88283e-07
5.15259e-08
-3.0042e-07
7.29802e-08
-2.01482e-07
8.30029e-08
-1.02966e-07
8.23675e-08
-9.33646e-09
7.31702e-08
6.84747e-08
5.7744e-08
1.2803e-07
3.28526e-08
2.11318e-07
2.80361e-07
-3.59647e-08
7.95189e-08
-1.02776e-07
3.57008e-08
-2.22171e-07
2.0662e-08
-2.93813e-07
5.45797e-08
-3.31938e-07
1.30221e-07
-3.70915e-07
2.2114e-07
-3.9169e-07
2.488e-07
-3.85802e-07
2.24452e-07
-3.35774e-07
3.44335e-07
-2.79928e-07
4.16383e-07
-3.2218e-07
4.85933e-07
-3.80939e-07