/*--------------------------------*- C++ -*----------------------------------*\
| =========                 |                                                 |
| \\      /  F ield         | OpenFOAM: The Open Source CFD Toolbox           |
|  \\    /   O peration     | Version:  2.4.0                                 |
|   \\  /    A nd           | Web:      www.OpenFOAM.org                      |
|    \\/     M anipulation  |                                                 |
\*---------------------------------------------------------------------------*/
FoamFile
{
    version     2.0;
    format      ascii;
    class       volScalarField;
    location    "0.198";
    object      alpha.water;
}
// * * * * * * * * * * * * * * * * * * * * * * * * * * * * * * * * * * * * * //

dimensions      [0 0 0 0 0 0 0];

internalField   nonuniform List<scalar> 
10000
(
4.4106e-59
2.18541e-55
3.39064e-52
1.71602e-49
3.86976e-47
5.15397e-45
4.76105e-43
3.36246e-41
1.92862e-39
9.37425e-38
3.92683e-36
1.39711e-34
4.11372e-33
9.73154e-32
1.85523e-30
2.87557e-29
3.64857e-28
3.75228e-27
3.16639e-26
2.25617e-25
1.37965e-24
7.39534e-24
3.54215e-23
1.52446e-22
5.86477e-22
1.99617e-21
5.91325e-21
1.47866e-20
2.9127e-20
3.85273e-20
3.37253e-20
1.95751e-20
7.75492e-21
2.19113e-21
4.58328e-22
7.25021e-23
9.57492e-24
1.0693e-24
9.68552e-26
6.91308e-27
3.86285e-28
1.68137e-29
5.68101e-31
1.46836e-32
2.84551e-34
4.05651e-36
4.12196e-38
2.87883e-40
6.03016e-42
3.17924e-40
1.02895e-55
6.11555e-52
1.04989e-48
5.34577e-46
1.17877e-43
1.49018e-41
1.28178e-39
8.30029e-38
4.31114e-36
1.87862e-34
7.02715e-33
2.2299e-31
5.8535e-30
1.23443e-28
2.09561e-27
2.88673e-26
3.2548e-25
2.98405e-24
2.24867e-23
1.4312e-22
7.8398e-22
3.78024e-21
1.63835e-20
6.42936e-20
2.27589e-19
7.19584e-19
1.99672e-18
4.69826e-18
8.81202e-18
1.18281e-17
1.11966e-17
7.54651e-18
3.70146e-18
1.38046e-18
4.14623e-19
1.05586e-19
2.36532e-20
4.54875e-21
7.33103e-22
9.71184e-23
1.0377e-23
8.74668e-25
5.67751e-26
2.77094e-27
9.85879e-29
2.43927e-30
4.02061e-32
4.60345e-34
1.62414e-33
5.91519e-32
5.63825e-53
5.24735e-49
9.86466e-46
4.82054e-43
9.87197e-41
1.14611e-38
8.99281e-37
5.27762e-35
2.46555e-33
9.59012e-32
3.19419e-30
9.03585e-29
2.11787e-27
3.99366e-26
6.06013e-25
7.44827e-24
7.48463e-23
6.12917e-22
4.13276e-21
2.35448e-20
1.157e-19
5.02294e-19
1.97022e-18
7.04975e-18
2.29776e-17
6.76422e-17
1.76681e-16
3.9586e-16
7.17443e-16
9.69676e-16
9.70671e-16
7.25224e-16
4.10181e-16
1.8338e-16
6.83686e-17
2.24094e-17
6.49758e-18
1.63605e-18
3.50168e-19
6.24861e-20
9.10618e-21
1.05613e-21
9.39936e-23
6.15594e-24
2.83778e-25
8.67675e-27
1.68408e-28
5.79493e-30
1.28051e-28
3.1818e-27
1.74453e-50
2.62063e-46
4.74507e-43
2.08256e-40
3.82878e-38
4.0158e-36
2.84633e-34
1.50508e-32
6.30185e-31
2.18246e-29
6.45825e-28
1.6275e-26
3.4089e-25
5.75948e-24
7.83271e-23
8.61543e-22
7.73356e-21
5.66367e-20
3.42083e-19
1.74702e-18
7.71191e-18
3.01867e-17
1.07306e-16
3.50466e-16
1.05268e-15
2.88807e-15
7.11245e-15
1.52151e-14
2.68079e-14
3.6429e-14
3.79012e-14
3.05379e-14
1.91762e-14
9.73035e-15
4.21578e-15
1.61917e-15
5.54442e-16
1.66321e-16
4.28118e-17
9.26981e-18
1.65188e-18
2.35687e-19
2.59094e-20
2.06932e-21
1.12372e-22
3.82514e-24
8.02149e-26
1.4545e-26
3.63364e-25
6.78661e-24
4.52032e-48
8.81585e-44
1.37579e-40
5.2352e-38
8.53618e-36
8.01673e-34
5.10223e-32
2.42111e-30
9.06347e-29
2.78978e-27
7.31838e-26
1.64064e-24
3.07059e-23
4.65314e-22
5.68215e-21
5.6077e-20
4.50643e-19
2.95504e-18
1.59991e-17
7.33077e-17
2.90978e-16
1.0282e-15
3.31754e-15
9.90354e-15
2.74264e-14
7.01025e-14
1.62728e-13
3.32651e-13
5.70722e-13
7.78069e-13
8.35789e-13
7.12555e-13
4.84501e-13
2.71135e-13
1.3093e-13
5.64004e-14
2.17825e-14
7.42177e-15
2.18689e-15
5.46147e-16
1.13015e-16
1.88331e-17
2.42916e-18
2.28034e-19
1.41456e-20
5.22418e-22
1.14694e-23
7.21229e-24
1.58223e-22
2.35338e-21
1.15723e-45
2.06401e-41
2.63783e-38
8.60522e-36
1.23448e-33
1.03158e-31
5.86961e-30
2.49152e-28
8.32277e-27
2.274e-25
5.27707e-24
1.05016e-22
1.75427e-21
2.38434e-20
2.61704e-19
2.32202e-18
1.67425e-17
9.8447e-17
4.78111e-16
1.96611e-15
7.01958e-15
2.24063e-14
6.57027e-14
1.79515e-13
4.58528e-13
1.09067e-12
2.38218e-12
4.6498e-12
7.76908e-12
1.06141e-11
1.17144e-11
1.04468e-11
7.56822e-12
4.57994e-12
2.40589e-12
1.13332e-12
4.8098e-13
1.8126e-13
5.95134e-14
1.6684e-14
3.90248e-15
7.398e-16
1.09195e-16
1.18016e-17
8.39839e-19
3.39765e-20
7.75092e-22
1.04856e-21
1.98296e-20
2.4813e-19
2.56467e-43
3.49772e-39
3.59417e-36
9.9748e-34
1.25083e-31
9.25617e-30
4.69164e-28
1.77637e-26
5.28529e-25
1.28068e-23
2.62421e-22
4.62309e-21
6.87813e-20
8.37453e-19
8.26141e-18
6.59825e-17
4.2776e-16
2.25974e-15
9.85494e-15
3.63709e-14
1.1676e-13
3.36612e-13
8.97577e-13
2.2469e-12
5.2957e-12
1.17071e-11
2.39947e-11
4.46262e-11
7.2521e-11
9.91626e-11
1.12142e-10
1.04018e-10
7.94176e-11
5.12019e-11
2.88379e-11
1.46258e-11
6.71398e-12
2.75517e-12
9.92893e-13
3.08002e-13
8.03443e-14
1.71146e-14
2.86038e-15
3.53194e-16
2.89939e-17
1.31775e-18
3.19971e-20
6.06749e-20
1.01594e-18
1.11304e-17
4.67082e-41
4.48103e-37
3.66328e-34
8.59222e-32
9.36919e-30
6.11606e-28
2.75252e-26
9.26917e-25
2.45177e-23
5.26489e-22
9.51262e-21
1.47907e-19
1.95391e-18
2.12601e-17
1.88262e-16
1.35374e-15
7.90469e-15
3.76049e-14
1.4756e-13
4.88771e-13
1.4094e-12
3.66605e-12
8.88741e-12
2.03929e-11
4.43714e-11
9.10809e-11
1.74657e-10
3.08617e-10
4.86317e-10
6.64992e-10
7.70089e-10
7.40353e-10
5.90633e-10
4.0136e-10
2.40002e-10
1.29833e-10
6.38983e-11
2.83198e-11
1.11201e-11
3.79323e-12
1.09788e-12
2.61789e-13
4.94387e-14
6.97705e-15
6.66603e-16
3.54155e-17
9.31218e-19
1.71413e-18
2.63052e-17
2.60455e-16
6.79973e-39
4.46857e-35
2.8962e-32
5.71182e-30
5.39409e-28
3.09564e-26
1.233e-24
3.68211e-23
8.64027e-22
1.64305e-20
2.61574e-19
3.57967e-18
4.18402e-17
4.05474e-16
3.21505e-15
2.07932e-14
1.09479e-13
4.70306e-13
1.66593e-12
4.95532e-12
1.28156e-11
3.0019e-11
6.60931e-11
1.38982e-10
2.79258e-10
5.32131e-10
9.52242e-10
1.59446e-09
2.42395e-09
3.32097e-09
3.94582e-09
3.91772e-09
3.2394e-09
2.30032e-09
1.45043e-09
8.32377e-10
4.37261e-10
2.08554e-10
8.9003e-11
3.33433e-11
1.07088e-11
2.86267e-12
6.12786e-13
9.93759e-14
1.11494e-14
7.1922e-16
2.13414e-17
2.72548e-17
3.96755e-16
3.64649e-15
7.81552e-37
3.54277e-33
1.82127e-30
3.0107e-28
2.45479e-26
1.23462e-24
4.33815e-23
1.14561e-21
2.37967e-20
4.0035e-19
5.61518e-18
6.75084e-17
6.95716e-16
5.98246e-15
4.2331e-14
2.45709e-13
1.16681e-12
4.5396e-12
1.45883e-11
3.90254e-11
9.038e-11
1.90117e-10
3.79489e-10
7.30628e-10
1.35568e-09
2.39881e-09
3.99874e-09
6.34146e-09
9.23637e-09
1.28638e-08
1.5816e-08
1.61668e-08
1.36698e-08
1.00133e-08
6.60467e-09
4.00391e-09
2.24032e-09
1.14909e-09
5.33309e-10
2.19883e-10
7.86361e-11
2.36791e-11
5.78048e-12
1.08552e-12
1.444e-13
1.15671e-14
4.1673e-16
2.70615e-16
3.84781e-15
3.36415e-14
7.13929e-35
2.26415e-31
9.25442e-29
1.28069e-26
8.99346e-25
3.95233e-23
1.22164e-21
2.84658e-20
5.22485e-19
7.76828e-18
9.60265e-17
1.01346e-15
9.18354e-15
6.98379e-14
4.39362e-13
2.28214e-12
9.76839e-12
3.45228e-11
1.0135e-10
2.44456e-10
5.06465e-10
9.53671e-10
1.72225e-09
3.02993e-09
5.18817e-09
8.52741e-09
1.32217e-08
1.992e-08
2.76492e-08
4.12818e-08
5.34614e-08
5.59975e-08
4.74262e-08
3.49177e-08
2.36343e-08
1.49819e-08
8.89323e-09
4.90147e-09
2.47682e-09
1.12697e-09
4.50664e-10
1.53686e-10
4.30602e-11
9.434e-12
1.5003e-12
1.51115e-13
7.1154e-15
1.84329e-15
2.57098e-14
2.19057e-13
5.20516e-33
1.17475e-29
3.82287e-27
4.43023e-25
2.67508e-23
1.02487e-21
2.7814e-20
5.713e-19
9.25962e-18
1.21606e-16
1.326e-15
1.22883e-14
9.77558e-14
6.55971e-13
3.65824e-12
1.69525e-11
6.53266e-11
2.10336e-10
5.69283e-10
1.24149e-09
2.30207e-09
3.86996e-09
6.31707e-09
1.01187e-08
1.59522e-08
2.43252e-08
3.49657e-08
5.01561e-08
6.59359e-08
1.17594e-07
1.57962e-07
1.6321e-07
1.40345e-07
1.03625e-07
7.03379e-08
4.5568e-08
2.82779e-08
1.66229e-08
9.12132e-09
4.58265e-09
2.0547e-09
7.96816e-10
2.57523e-10
6.61923e-11
1.26565e-11
1.60599e-12
1.04081e-13
1.02278e-14
1.24684e-13
1.06221e-12
3.03281e-31
4.92133e-28
1.27773e-25
1.24345e-23
6.45955e-22
2.15549e-20
5.13285e-19
9.29558e-18
1.33173e-16
1.5468e-15
1.49041e-14
1.21438e-13
8.47942e-13
5.01525e-12
2.47604e-11
1.02149e-10
3.53937e-10
1.04118e-09
2.62733e-09
5.18378e-09
8.62997e-09
1.29412e-08
1.91613e-08
2.77885e-08
4.00975e-08
5.63775e-08
7.45162e-08
1.00067e-07
6.95281e-08
3.69649e-07
3.46468e-07
2.63431e-07
2.47415e-07
2.32401e-07
1.74214e-07
1.16779e-07
7.44287e-08
4.57712e-08
2.69447e-08
1.48718e-08
7.47205e-09
3.30088e-09
1.23383e-09
3.73084e-10
8.59369e-11
1.36963e-11
1.23117e-12
6.66753e-14
4.56526e-13
4.00239e-12
1.40662e-29
1.63042e-26
3.41362e-24
2.81164e-22
1.26197e-20
3.672e-19
7.67145e-18
1.22538e-16
1.55449e-15
1.60164e-14
1.36745e-13
9.82827e-13
6.03218e-12
3.14404e-11
1.37467e-10
5.04739e-10
1.5718e-09
4.23596e-09
1.01031e-08
1.79392e-08
2.70379e-08
3.61581e-08
4.92122e-08
6.41362e-08
8.37181e-08
1.06932e-07
1.28075e-07
1.52227e-07
2.10739e-07
2.96932e-07
1.70009e-06
6.676e-06
4.71162e-06
6.94319e-07
4.50793e-07
2.83934e-07
1.73164e-07
1.05585e-07
6.45133e-08
3.85013e-08
2.15544e-08
1.08336e-08
4.68339e-09
1.66544e-09
4.61276e-10
9.17096e-11
1.11968e-11
6.29718e-13
1.30668e-12
1.2133e-11
4.94579e-28
4.20266e-25
7.22395e-23
5.09957e-21
1.9923e-19
5.07191e-18
9.30294e-17
1.31e-15
1.47209e-14
1.34853e-13
1.02325e-12
6.52036e-12
3.52959e-11
1.62341e-10
6.29227e-10
2.05927e-09
5.77094e-09
1.42852e-08
3.28718e-08
5.19962e-08
7.20614e-08
8.50183e-08
1.0939e-07
1.26973e-07
1.47008e-07
1.66629e-07
1.79513e-07
1.8075e-07
1.77505e-07
2.62609e-07
1.12438e-05
1.32349e-05
1.32346e-05
6.17931e-06
3.83843e-07
3.71002e-07
2.69067e-07
1.80636e-07
1.19428e-07
7.81016e-08
4.88948e-08
2.79735e-08
1.39688e-08
5.82462e-09
1.92943e-09
4.73618e-10
7.62669e-11
6.06205e-12
3.09472e-12
3.0392e-11
1.28457e-26
8.40536e-24
1.21161e-21
7.40907e-20
2.5374e-18
5.67806e-17
9.16621e-16
1.13813e-14
1.13276e-13
9.23659e-13
6.2456e-12
3.54077e-11
1.69813e-10
6.9171e-10
2.37939e-09
6.95057e-09
1.75873e-08
4.01121e-08
9.32376e-08
1.33458e-07
1.64676e-07
1.69703e-07
2.14476e-07
2.18818e-07
2.18247e-07
2.14298e-07
2.13564e-07
2.04877e-07
1.80058e-07
2.02225e-06
1.30818e-05
1.324e-05
1.32346e-05
1.18403e-05
9.99716e-07
3.51032e-07
2.57235e-07
2.06554e-07
1.61145e-07
1.2166e-07
8.7212e-08
5.71969e-08
3.29509e-08
1.60203e-08
6.28935e-09
1.87908e-09
3.87464e-10
4.44948e-11
7.22805e-12
6.41976e-11
2.41985e-25
1.28496e-22
1.59624e-20
8.60218e-19
2.60569e-17
5.14538e-16
7.33014e-15
8.05236e-14
7.1017e-13
5.15284e-12
3.1112e-11
1.57429e-10
6.71597e-10
2.42682e-09
7.42354e-09
1.93508e-08
4.43783e-08
9.36251e-08
2.46243e-07
3.5891e-07
2.04267e-07
3.10965e-07
3.81744e-07
3.31078e-07
2.72748e-07
2.28013e-07
2.3376e-07
2.36172e-07
2.38623e-07
2.37906e-07
4.81768e-06
1.32532e-05
1.32417e-05
3.79695e-06
3.36197e-07
8.72431e-07
2.60597e-07
2.26963e-07
1.95284e-07
1.65046e-07
1.32711e-07
9.7964e-08
6.40233e-08
3.57253e-08
1.63564e-08
5.83551e-09
1.49672e-09
2.35338e-10
2.31003e-11
1.16552e-10
3.32689e-24
1.48576e-21
1.62009e-19
7.79197e-18
2.11767e-16
3.74725e-15
4.75261e-14
4.64215e-13
3.6424e-12
2.35169e-11
1.26837e-10
5.73544e-10
2.18169e-09
6.99781e-09
1.8985e-08
4.41431e-08
9.19506e-08
1.78e-07
6.54726e-07
1.10004e-06
3.47274e-06
8.32183e-07
6.72489e-07
4.4676e-07
2.82757e-07
5.50179e-07
2.71509e-07
2.63572e-07
2.69799e-07
2.72591e-07
2.79188e-07
8.60166e-07
8.37848e-07
4.24607e-07
3.25219e-07
2.92169e-07
2.70981e-07
2.51385e-07
2.32156e-07
2.10068e-07
1.81957e-07
1.46481e-07
1.05997e-07
6.65543e-08
3.48946e-08
1.45745e-08
4.52669e-09
9.2316e-10
1.00286e-10
1.86263e-10
3.28776e-23
1.27344e-20
1.23905e-18
5.38225e-17
1.33063e-15
2.14649e-14
2.46887e-13
2.16688e-12
1.52683e-11
8.83958e-11
4.26399e-10
1.71988e-09
5.80978e-09
1.65161e-08
3.96601e-08
8.20041e-08
1.55708e-07
2.5229e-07
1.66355e-06
8.85425e-06
9.72257e-06
8.05277e-06
1.26301e-06
5.54465e-07
3.56181e-07
3.06468e-07
6.38794e-07
2.73967e-07
2.8801e-07
2.93324e-07
2.93007e-07
3.05819e-07
3.146e-07
3.02736e-07
2.95324e-07
2.75211e-07
2.7172e-07
2.66571e-07
2.58792e-07
2.46096e-07
2.25457e-07
1.94366e-07
1.53045e-07
1.06368e-07
6.28345e-08
3.01785e-08
1.10893e-08
2.81568e-09
4.02044e-10
2.77013e-10
2.33658e-22
8.05427e-20
7.08682e-18
2.80813e-16
6.38075e-15
9.50113e-14
1.00934e-12
8.12314e-12
5.19419e-11
2.71969e-10
1.17752e-09
4.24058e-09
1.27325e-08
3.19986e-08
6.79581e-08
1.25518e-07
2.178e-07
2.19399e-07
6.32502e-06
9.72614e-06
9.72584e-06
9.72824e-06
2.29219e-06
5.27038e-07
3.60827e-07
3.17962e-07
2.9989e-07
2.9928e-07
3.09053e-07
3.22434e-07
3.22479e-07
3.22001e-07
3.26152e-07
3.29514e-07
2.95855e-07
6.3255e-07
2.81016e-07
2.82921e-07
2.79496e-07
2.72776e-07
2.59364e-07
2.35369e-07
1.98364e-07
1.50198e-07
9.84172e-08
5.34618e-08
2.27787e-08
6.98125e-09
1.30021e-09
4.16451e-10
1.19954e-21
3.74207e-19
3.0116e-17
1.10316e-15
2.3319e-14
3.24154e-13
3.21559e-12
2.40599e-11
1.4142e-10
6.73562e-10
2.6387e-09
8.55338e-09
2.30224e-08
5.1783e-08
9.8723e-08
1.6411e-07
2.55852e-07
3.20086e-07
1.5867e-06
5.44886e-06
8.24002e-06
3.46614e-06
6.34582e-07
4.58236e-07
3.58537e-07
3.32018e-07
3.22612e-07
3.09692e-07
3.30008e-07
3.75643e-07
3.75763e-07
3.68038e-07
3.77222e-07
3.83869e-07
3.46647e-07
3.33766e-07
3.00913e-07
3.02161e-07
3.04679e-07
3.02089e-07
2.65422e-07
2.61129e-07
2.36755e-07
1.92947e-07
1.3804e-07
8.34573e-08
4.05041e-08
1.46224e-08
3.41788e-09
7.23801e-10
4.48556e-21
1.28535e-18
9.60941e-17
3.29292e-15
6.53532e-14
8.54072e-13
7.9608e-12
5.58049e-11
3.05325e-10
1.34098e-09
4.82392e-09
1.4331e-08
3.54175e-08
7.32903e-08
1.28309e-07
1.93319e-07
2.58982e-07
3.19551e-07
3.23303e-07
3.21787e-07
3.22174e-07
3.23605e-07
4.48494e-07
4.40145e-07
3.76721e-07
3.48564e-07
3.30237e-07
3.13028e-07
5.0991e-07
5.35183e-07
4.93127e-07
4.47863e-07
4.3854e-07
5.7397e-07
6.36126e-07
1.26533e-06
1.96732e-06
1.94188e-06
1.35061e-06
4.29171e-07
5.27428e-07
2.9738e-07
2.40376e-07
2.33368e-07
1.80161e-07
1.18535e-07
6.42463e-08
2.67433e-08
7.58877e-09
1.47191e-09
1.25285e-20
3.36515e-18
2.37544e-16
7.72045e-15
1.45583e-13
1.8078e-12
1.59948e-11
1.06243e-10
5.48905e-10
2.26333e-09
7.60336e-09
2.1121e-08
4.89114e-08
9.48819e-08
1.54795e-07
2.14795e-07
2.63172e-07
3.08948e-07
3.66625e-07
3.29262e-07
3.34222e-07
3.31755e-07
4.53702e-07
5.65481e-07
4.06503e-07
3.57906e-07
3.30552e-07
3.40014e-07
3.41624e-07
6.45195e-07
6.46525e-07
5.65022e-07
4.95066e-07
4.71242e-07
2.12317e-06
8.81987e-06
8.91442e-06
8.91703e-06
8.91362e-06
7.18091e-06
6.73535e-07
3.1345e-07
3.9612e-07
2.3502e-07
2.16193e-07
1.5545e-07
9.29744e-08
4.38841e-08
1.47364e-08
3.1451e-09
2.68781e-20
6.90549e-18
4.6838e-16
1.46512e-14
2.6599e-13
3.17675e-12
2.69868e-11
1.71821e-10
8.49663e-10
3.34701e-09
1.0724e-08
2.84282e-08
6.27766e-08
1.15588e-07
1.77892e-07
2.34028e-07
2.82463e-07
3.54517e-07
3.81694e-07
2.49383e-06
1.011e-05
8.8102e-06
2.01585e-06
7.44646e-07
3.93691e-07
3.49068e-07
3.26349e-07
3.39274e-07
3.45587e-07
9.15486e-07
9.76489e-07
7.06579e-07
6.27811e-07
5.09533e-07
5.14109e-07
6.99908e-06
8.91617e-06
8.92029e-06
8.91251e-06
8.91092e-06
8.22219e-06
1.43241e-06
3.02855e-07
2.93157e-07
2.5213e-07
1.91713e-07
1.25032e-07
6.60347e-08
2.57259e-08
6.43978e-09
4.51892e-20
1.1338e-17
7.52351e-16
2.30073e-14
4.07993e-13
4.75406e-12
3.93531e-11
2.43899e-10
1.17462e-09
4.50881e-09
1.40313e-08
3.58048e-08
7.53857e-08
1.31346e-07
1.91741e-07
2.44379e-07
2.97616e-07
3.30931e-07
3.28806e-06
2.13257e-05
2.39766e-05
2.39788e-05
1.84337e-05
2.35968e-06
3.16999e-07
3.28473e-07
3.21739e-07
3.28153e-07
3.63746e-07
6.2247e-07
6.41716e-07
9.45831e-07
8.02624e-07
5.85361e-07
5.00643e-07
1.31042e-06
2.21855e-06
1.93011e-06
7.49009e-06
8.91023e-06
8.90488e-06
7.92965e-06
8.4303e-07
3.85638e-07
3.01243e-07
2.29604e-07
1.59523e-07
9.28104e-08
4.12188e-08
1.21764e-08
6.02433e-20
1.50915e-17
9.97772e-16
3.03221e-14
5.32676e-13
6.13209e-12
5.00194e-11
3.04722e-10
1.43833e-09
5.39744e-09
1.63622e-08
4.04553e-08
8.21948e-08
1.38513e-07
1.9779e-07
2.50109e-07
2.99387e-07
3.64256e-07
1.43525e-05
2.39979e-05
2.39914e-05
2.39784e-05
2.39871e-05
8.64604e-06
3.11703e-07
3.13756e-07
3.17828e-07
5.60687e-07
3.6196e-07
4.09944e-07
5.22616e-07
1.66667e-06
2.07386e-06
7.35379e-07
4.91785e-07
5.74201e-07
5.0256e-07
5.45648e-07
9.01029e-07
1.97566e-06
3.44685e-06
4.79705e-06
1.49835e-06
3.26108e-07
3.16921e-07
2.61377e-07
1.93815e-07
1.22947e-07
6.13666e-08
2.11583e-08
6.392e-20
1.63795e-17
1.10045e-15
3.37889e-14
5.96648e-13
6.87123e-12
5.58361e-11
3.37544e-10
1.57502e-09
5.82033e-09
1.73279e-08
4.19884e-08
8.34882e-08
1.38204e-07
1.96211e-07
2.51509e-07
3.13803e-07
4.89292e-07
1.71659e-05
2.40162e-05
2.39978e-05
2.39986e-05
2.3994e-05
5.83764e-06
3.11717e-07
3.1352e-07
3.20121e-07
3.20631e-07
3.60895e-07
4.03664e-07
5.3524e-07
6.84951e-07
9.09009e-07
7.09756e-07
4.62071e-07
4.00505e-07
3.71238e-07
3.59506e-07
3.99136e-07
5.44472e-07
5.48511e-07
5.56592e-07
6.13509e-07
4.17713e-07
3.42782e-07
2.86537e-07
2.24245e-07
1.5392e-07
8.54038e-08
3.39083e-08
5.38453e-20
1.45106e-17
1.01246e-15
3.19728e-14
5.76158e-13
6.7263e-12
5.50744e-11
3.3367e-10
1.55295e-09
5.69959e-09
1.67972e-08
4.02682e-08
7.94341e-08
1.31271e-07
1.88168e-07
2.45698e-07
3.02196e-07
3.14032e-07
7.4339e-06
2.4017e-05
2.40109e-05
2.40084e-05
1.49756e-05
3.12759e-07
3.13189e-07
3.1695e-07
3.32502e-07
3.52012e-07
3.74241e-07
4.01406e-07
4.28639e-07
4.12312e-07
4.62487e-07
5.23889e-07
4.14351e-07
3.79736e-07
3.73491e-07
3.62013e-07
3.69459e-07
4.01015e-07
6.85645e-07
9.19595e-07
6.84432e-07
3.01629e-07
2.88261e-07
2.86425e-07
2.46025e-07
1.82869e-07
1.11685e-07
5.03779e-08
3.56865e-20
1.04579e-17
7.7716e-16
2.57565e-14
4.81579e-13
5.78068e-12
4.83049e-11
2.96715e-10
1.39226e-09
5.13109e-09
1.51528e-08
3.64254e-08
7.24136e-08
1.21446e-07
1.77824e-07
2.37885e-07
2.96727e-07
3.94957e-07
5.56265e-07
6.8511e-06
1.41388e-05
8.17158e-06
3.12376e-07
3.13167e-07
3.16042e-07
3.28385e-07
3.60068e-07
3.81328e-07
4.12673e-07
4.119e-07
4.12317e-07
4.54891e-07
4.29238e-07
4.20573e-07
4.18887e-07
5.69361e-07
3.77024e-07
4.633e-07
3.75414e-07
3.82978e-07
5.9528e-07
3.86813e-06
3.91494e-06
3.82723e-06
8.86963e-07
2.51945e-07
2.48666e-07
2.02757e-07
1.3658e-07
6.95258e-08
1.82493e-20
6.07112e-18
4.95434e-16
1.76461e-14
3.4906e-13
4.37885e-12
3.78752e-11
2.39044e-10
1.14516e-09
4.28774e-09
1.28326e-08
3.12578e-08
6.31429e-08
1.08252e-07
1.62689e-07
2.22774e-07
2.62742e-07
4.42345e-07
4.1801e-07
3.10066e-07
3.10066e-07
3.10078e-07
3.12747e-07
3.14479e-07
3.59131e-07
3.57579e-07
4.26882e-07
4.695e-07
5.28474e-07
4.58093e-07
4.23011e-07
4.19156e-07
4.19179e-07
4.27132e-07
4.71019e-07
3.34338e-07
3.95417e-07
3.56883e-07
5.86252e-07
4.00637e-07
4.68086e-07
3.48701e-07
3.60106e-06
3.92685e-06
3.92711e-06
2.6229e-06
2.35713e-07
2.24424e-07
1.59137e-07
8.98381e-08
6.96363e-21
2.78109e-18
2.5919e-16
1.02123e-14
2.18685e-13
2.92367e-12
2.66239e-11
1.75246e-10
8.69889e-10
3.35649e-09
1.03171e-08
2.57982e-08
5.35798e-08
9.48172e-08
1.46778e-07
2.04938e-07
2.61231e-07
2.70704e-07
6.46036e-07
3.10128e-07
3.10476e-07
3.12903e-07
3.24546e-07
3.18656e-07
3.42624e-07
4.07356e-07
6.14994e-07
1.12351e-06
7.22619e-07
4.70388e-07
7.86773e-06
2.62652e-05
2.67091e-05
3.55931e-06
3.33583e-07
3.33896e-07
3.34477e-07
3.55873e-07
2.54566e-07
2.52974e-07
2.22104e-07
2.05257e-07
2.63716e-07
5.72472e-07
2.45862e-06
2.60475e-06
1.15793e-06
1.81835e-07
1.71796e-07
1.09112e-07
2.03796e-21
1.02211e-18
1.12541e-16
5.03462e-15
1.19238e-13
1.73126e-12
1.68989e-11
1.18007e-10
6.16643e-10
2.49357e-09
8.00085e-09
2.08364e-08
4.49926e-08
8.2458e-08
1.31231e-07
1.85781e-07
2.40805e-07
2.85515e-07
2.86525e-07
3.12331e-07
3.10158e-07
3.18365e-07
4.66381e-07
3.21139e-07
3.55162e-07
4.13342e-07
1.08479e-06
1.07207e-06
7.31819e-07
8.2178e-06
3.41161e-05
3.48776e-05
3.48404e-05
2.64056e-05
3.33613e-07
3.39613e-07
3.45138e-07
3.4071e-07
3.30561e-07
2.72105e-07
2.5313e-07
2.15964e-07
1.99293e-07
2.29157e-07
2.20538e-07
5.4025e-07
5.898e-07
2.19503e-07
1.85577e-07
1.26454e-07
4.68662e-22
3.08325e-19
4.14095e-17
2.15995e-15
5.78642e-14
9.29623e-13
9.88387e-12
7.43463e-11
4.14838e-10
1.77962e-09
6.03499e-09
1.65454e-08
3.75243e-08
7.20054e-08
1.19276e-07
1.72619e-07
2.21246e-07
2.58836e-07
2.891e-07
3.11903e-07
3.08984e-07
3.02152e-07
3.05751e-07
3.3146e-07
3.64601e-07
4.18433e-07
5.11787e-07
3.79468e-07
7.71844e-07
2.04638e-05
3.49065e-05
3.49173e-05
3.4879e-05
2.82526e-05
3.36883e-07
3.62831e-07
3.61311e-07
3.55027e-07
4.10259e-07
7.98885e-07
2.95034e-07
2.45338e-07
2.17593e-07
2.07901e-07
2.0104e-07
2.23729e-07
1.9598e-07
2.06879e-07
1.83107e-07
1.3657e-07
8.7778e-23
8.07993e-20
1.36567e-17
8.39529e-16
2.5548e-14
4.5764e-13
5.3705e-12
4.41265e-11
2.66257e-10
1.22552e-09
4.43193e-09
1.2908e-08
3.09326e-08
6.23593e-08
1.07805e-07
1.60736e-07
2.02855e-07
2.15423e-07
5.82419e-07
2.82037e-07
3.27019e-07
3.0383e-07
3.07515e-07
3.16566e-07
4.68596e-07
3.17951e-07
3.39367e-07
3.45012e-07
1.47335e-06
2.67827e-05
3.51248e-05
3.50058e-05
3.44235e-05
2.36372e-05
1.39371e-06
3.70822e-07
3.70248e-07
3.70151e-07
4.89449e-07
1.381e-06
8.69422e-07
2.74138e-07
2.4111e-07
2.21906e-07
2.05274e-07
1.9284e-07
1.86694e-07
1.83227e-07
1.70774e-07
1.39127e-07
1.35639e-23
1.85356e-20
4.17798e-18
3.13459e-16
1.1035e-14
2.20823e-13
2.82691e-12
2.50761e-11
1.63339e-10
8.13024e-10
3.15416e-09
9.78056e-09
2.4821e-08
5.278e-08
9.64342e-08
1.53849e-07
2.11635e-07
2.44324e-07
2.47319e-07
2.80512e-07
2.83372e-07
3.59834e-07
2.93196e-07
2.95012e-07
2.98329e-07
3.17734e-07
3.38187e-07
3.43313e-07
1.58462e-06
2.65104e-05
3.52277e-05
3.51873e-05
3.49992e-05
1.40563e-05
4.04565e-07
3.90393e-07
8.2226e-07
3.7638e-07
3.99893e-07
1.17475e-06
1.545e-06
3.0884e-07
2.39478e-07
2.26256e-07
2.22277e-07
2.01018e-07
4.12175e-07
1.25652e-07
1.17557e-07
1.07106e-07
1.71807e-24
3.81431e-21
1.20414e-18
1.12692e-16
4.65154e-15
1.05078e-13
1.48191e-12
1.42219e-11
9.85912e-11
5.1668e-10
2.12846e-09
7.06138e-09
1.90216e-08
4.275e-08
8.25056e-08
1.3891e-07
2.00196e-07
2.42259e-07
2.5697e-07
7.50632e-07
2.8134e-07
2.81967e-07
3.06646e-07
2.9321e-07
3.02931e-07
3.17345e-07
3.26071e-07
3.38341e-07
7.96269e-06
3.50517e-05
3.51841e-05
3.49709e-05
3.49922e-05
1.21104e-05
4.17653e-07
4.07915e-07
1.2912e-06
1.35681e-06
5.70025e-07
4.64762e-07
2.90938e-06
6.46335e-07
1.30071e-06
5.0047e-07
2.23581e-07
2.10972e-07
5.01265e-06
4.5877e-06
2.90989e-07
9.82123e-08
1.63922e-25
6.94427e-22
3.35438e-19
4.05794e-17
1.97988e-15
5.03312e-14
7.74313e-13
7.94225e-12
5.81844e-11
3.21469e-10
1.38634e-09
4.78074e-09
1.3636e-08
3.27319e-08
6.69972e-08
1.20317e-07
1.86458e-07
2.4146e-07
2.68379e-07
2.7839e-07
3.20135e-07
2.79767e-07
2.83695e-07
2.93448e-07
3.06134e-07
3.2646e-07
3.77846e-07
3.71001e-07
1.16076e-05
3.50188e-05
3.49875e-05
3.49932e-05
3.50307e-05
1.43821e-05
4.42182e-07
4.41029e-07
8.8884e-07
6.01519e-06
7.32146e-07
4.70122e-07
3.41525e-06
3.41434e-06
5.38159e-06
1.77174e-06
2.69133e-07
3.06287e-07
4.1442e-06
1.33076e-05
8.47552e-06
3.15416e-07
1.19382e-26
1.28101e-22
9.58413e-20
1.47533e-17
8.43641e-16
2.40043e-14
4.01892e-13
4.40075e-12
3.39467e-11
1.9516e-10
8.6927e-10
3.12629e-09
9.29312e-09
2.32139e-08
5.0386e-08
9.69329e-08
1.62698e-07
2.2916e-07
2.47081e-07
3.27819e-07
2.85629e-07
2.83166e-07
2.81835e-07
2.89924e-07
3.02422e-07
3.22228e-07
3.66721e-07
3.72961e-07
8.20381e-06
3.51246e-05
3.499e-05
3.50645e-05
3.50517e-05
8.33248e-06
4.43137e-07
4.53259e-07
8.61142e-07
6.70375e-06
1.01023e-06
3.51494e-06
1.30719e-05
1.62651e-05
4.63198e-06
1.89894e-06
1.22524e-05
1.84616e-06
6.21683e-06
1.42824e-05
6.82202e-06
1.77958e-07
8.77134e-28
2.34927e-23
2.66977e-20
5.17143e-18
3.44967e-16
1.09729e-14
1.99982e-13
2.34277e-12
1.90793e-11
1.14567e-10
5.3003e-10
1.9695e-09
6.05107e-09
1.58436e-08
3.56599e-08
7.10449e-08
1.28142e-07
2.00127e-07
2.57059e-07
2.75339e-07
2.85278e-07
2.815e-07
2.81051e-07
2.88874e-07
3.06188e-07
3.42473e-07
4.04995e-07
4.02388e-07
2.96349e-06
1.8506e-05
3.51116e-05
3.512e-05
2.05326e-05
1.87363e-06
4.53864e-07
1.73715e-06
1.54508e-06
6.59844e-06
1.71669e-05
2.58597e-05
2.12258e-05
2.28578e-05
3.08461e-05
8.00918e-05
0.000158576
1.92753e-05
7.63598e-06
6.99839e-06
6.33234e-07
7.5112e-08
3.27745e-29
4.17509e-24
6.95866e-21
1.6892e-18
1.31567e-16
4.68769e-15
9.3158e-14
1.16924e-12
1.0086e-11
6.36171e-11
3.07613e-10
1.18726e-09
3.77822e-09
1.02114e-08
2.40297e-08
4.99194e-08
9.31712e-08
1.56133e-07
2.2393e-07
2.68615e-07
2.81815e-07
2.8011e-07
2.78658e-07
2.79504e-07
3.12718e-07
3.87803e-07
6.26668e-07
1.30709e-06
4.93599e-06
2.17349e-06
9.0527e-06
1.32651e-05
4.39043e-07
7.08553e-07
1.0306e-06
8.61282e-06
1.32904e-05
2.33094e-05
3.64845e-05
4.65851e-05
2.28006e-05
2.28575e-05
0.000196263
0.000198648
0.000239591
0.000136241
4.68742e-07
1.39868e-07
4.60158e-08
3.75932e-08
1.52938e-30
6.76211e-25
1.64462e-21
5.01742e-19
4.58226e-17
1.83554e-15
3.99037e-14
5.38052e-13
4.92569e-12
3.27205e-11
1.65975e-10
6.69802e-10
2.22324e-09
6.24376e-09
1.52363e-08
3.28201e-08
6.39154e-08
1.12708e-07
1.76169e-07
2.34771e-07
2.67173e-07
2.76572e-07
2.74572e-07
4.76266e-07
2.95977e-07
3.34169e-07
4.15141e-07
1.07994e-06
4.93515e-06
4.62836e-07
3.06187e-07
3.06225e-07
3.11214e-07
7.27607e-07
3.16702e-06
8.55516e-06
1.6605e-05
3.88746e-05
4.65842e-05
4.66022e-05
3.62833e-05
8.1097e-05
0.000288945
0.000207263
0.00026296
0.00651277
0.0161568
0.0410387
0.155979
0.324515
8.25634e-32
9.5844e-26
3.43548e-22
1.32745e-19
1.42411e-17
6.43995e-16
1.53888e-14
2.2374e-13
2.18145e-12
1.5305e-11
8.15649e-11
3.45166e-10
1.20196e-09
3.53475e-09
9.0056e-09
2.02518e-08
4.09944e-08
7.53321e-08
1.25996e-07
1.85326e-07
2.34198e-07
2.60624e-07
2.7105e-07
2.73106e-07
2.90505e-07
3.19892e-07
3.69687e-07
1.1904e-06
1.31597e-06
3.07051e-07
3.10501e-07
3.12652e-07
3.95985e-07
4.55655e-06
6.91275e-06
6.85689e-06
6.87686e-06
7.02387e-06
2.65881e-05
3.98426e-05
4.50035e-05
0.000255686
0.000282314
0.000990617
0.0470652
0.171312
0.392859
0.708818
0.905549
0.985967
4.04691e-33
1.15628e-26
6.12843e-23
3.02989e-20
3.85626e-18
1.97601e-16
5.19753e-15
8.17755e-14
8.51808e-13
6.33781e-12
3.56831e-11
1.58976e-10
5.81715e-10
1.80398e-09
4.8395e-09
1.14681e-08
2.43552e-08
4.68932e-08
8.27164e-08
1.3162e-07
1.84548e-07
2.26288e-07
2.51958e-07
2.66883e-07
2.8238e-07
3.1621e-07
3.75726e-07
7.18878e-07
3.18391e-07
3.15631e-07
3.13431e-07
3.16706e-07
4.71726e-07
3.75022e-06
6.11037e-06
1.17683e-05
1.11404e-05
7.88048e-06
9.29622e-06
1.36782e-05
0.000137509
0.000214583
0.000578774
0.111083
0.388321
0.70715
0.949358
0.999444
0.999966
1
1.66453e-34
1.15608e-27
9.09393e-24
5.77713e-21
8.80846e-19
5.16403e-17
1.50586e-15
2.56881e-14
2.86131e-13
2.25705e-12
1.34196e-11
6.32547e-11
2.45569e-10
8.05003e-10
2.29615e-09
5.78197e-09
1.30672e-08
2.66888e-08
4.98285e-08
8.4896e-08
1.30212e-07
1.76657e-07
2.14814e-07
2.42957e-07
2.66147e-07
2.68166e-07
4.79941e-07
4.32154e-07
3.38014e-07
3.07963e-07
3.10834e-07
3.27587e-07
3.60259e-07
3.63067e-07
1.21783e-06
1.90912e-05
2.82006e-05
2.25693e-05
1.16219e-05
2.51346e-05
0.00012895
0.00061641
0.177426
0.599984
0.901597
0.999601
0.999835
0.999979
1
1
5.61323e-36
9.35025e-29
1.09927e-24
8.95105e-22
1.6229e-19
1.08461e-17
3.51574e-16
6.55416e-15
7.8849e-14
6.65732e-13
4.20858e-12
2.09744e-11
8.60307e-11
3.02522e-10
9.24664e-10
2.508e-09
6.10306e-09
1.34589e-08
2.69781e-08
4.94287e-08
8.24102e-08
1.23248e-07
1.6507e-07
2.03051e-07
2.36586e-07
2.733e-07
3.29517e-07
4.21055e-07
3.26742e-07
2.97064e-07
3.10249e-07
3.22512e-07
3.46369e-07
3.53545e-07
3.623e-07
3.79214e-06
2.5615e-05
7.26284e-05
2.69548e-05
8.52869e-05
0.000544056
0.216391
0.739388
0.980207
0.999874
0.999979
0.999992
0.999999
1
1
1.523e-37
6.01062e-30
1.03829e-25
1.06968e-22
2.29032e-20
1.74029e-18
6.2579e-17
1.27442e-15
1.65996e-14
1.51019e-13
1.02624e-12
5.49442e-12
2.42043e-11
9.05188e-11
2.98669e-10
8.87106e-10
2.36991e-09
5.74011e-09
1.26536e-08
2.53397e-08
4.62344e-08
7.63132e-08
1.13186e-07
1.53205e-07
1.93444e-07
2.40911e-07
2.26692e-07
7.50983e-07
3.52431e-07
2.94886e-07
3.17493e-07
3.25119e-07
3.18928e-07
3.51369e-06
1.36986e-05
1.53842e-05
7.48372e-05
7.78949e-05
8.55468e-05
0.000379409
0.201041
0.761669
0.99997
0.999992
0.999994
0.999999
1
1
1
1
3.25436e-39
2.9689e-31
7.34377e-27
9.47777e-24
2.40348e-21
2.0878e-19
8.36379e-18
1.85855e-16
2.60482e-15
2.53451e-14
1.84094e-13
1.05749e-12
5.02658e-12
2.04783e-11
7.31802e-11
2.35234e-10
7.07684e-10
1.94095e-09
4.83655e-09
1.09323e-08
2.23041e-08
4.11185e-08
6.81927e-08
1.0271e-07
1.427e-07
1.91196e-07
1.98356e-07
5.07281e-07
8.78685e-07
3.68036e-07
3.05298e-07
2.78566e-07
2.5661e-07
9.18364e-06
2.18419e-05
1.55661e-05
0.000187606
9.34685e-05
0.000210456
0.132884
0.664981
0.983374
0.999992
0.999996
1
1
1
1
1
1
5.52314e-41
1.78234e-32
1.60616e-27
4.92712e-24
2.01264e-21
2.17417e-19
9.11762e-18
1.88157e-16
2.24379e-15
1.73891e-14
9.62276e-14
4.1399e-13
1.50101e-12
4.9504e-12
1.56646e-11
4.92903e-11
1.5232e-10
4.69136e-10
1.37379e-09
3.65762e-09
8.72979e-09
1.85287e-08
3.50645e-08
5.97482e-08
9.28655e-08
1.36015e-07
1.64457e-07
2.42385e-07
8.73566e-07
4.70533e-07
2.98262e-07
2.32241e-07
2.38457e-07
2.53974e-07
4.76826e-07
0.000167912
0.000518295
0.000217195
0.0517493
0.462978
0.93692
0.999941
0.999998
1
1
1
1
1
1
1
5.75661e-41
2.34774e-31
2.54798e-26
6.6372e-23
2.28593e-20
2.14253e-18
8.00701e-17
1.50353e-15
1.6533e-14
1.18607e-13
6.01362e-13
2.29349e-12
6.89956e-12
1.6945e-11
3.3981e-11
5.8111e-11
9.156e-11
1.52843e-10
3.20406e-10
8.74209e-10
2.49745e-09
6.46885e-09
1.45897e-08
2.89788e-08
5.15763e-08
8.4472e-08
1.1913e-07
1.34487e-07
4.9594e-07
4.87103e-07
2.7912e-07
1.89436e-07
2.00772e-07
2.98779e-07
2.04249e-06
1.81387e-05
0.000121737
0.00284467
0.206941
0.789626
0.999727
0.99999
1
1
1
1
1
1
1
1
4.04749e-39
6.04144e-30
4.0788e-25
7.84224e-22
2.17557e-19
1.73398e-17
5.72422e-16
9.77345e-15
1.00007e-13
6.80805e-13
3.33359e-12
1.24884e-11
3.75569e-11
9.38131e-11
1.92492e-10
3.32841e-10
4.98437e-10
6.62593e-10
7.84955e-10
8.4698e-10
9.92054e-10
1.84863e-09
4.59608e-09
1.09844e-08
2.32096e-08
4.3869e-08
7.23202e-08
1.10001e-07
1.15758e-07
2.00522e-07
2.35931e-07
1.79196e-07
4.29922e-07
3.73492e-06
2.27123e-06
2.11134e-06
2.09004e-07
0.00875004
0.477317
0.977414