/*--------------------------------*- C++ -*----------------------------------*\
| =========                 |                                                 |
| \\      /  F ield         | OpenFOAM: The Open Source CFD Toolbox           |
|  \\    /   O peration     | Version:  2.4.0                                 |
|   \\  /    A nd           | Web:      www.OpenFOAM.org                      |
|    \\/     M anipulation  |                                                 |
\*---------------------------------------------------------------------------*/
FoamFile
{
    version     2.0;
    format      ascii;
    class       surfaceScalarField;
    location    "0.156";
    object      phiAlpha;
}
// * * * * * * * * * * * * * * * * * * * * * * * * * * * * * * * * * * * * * //

dimensions      [0 3 -1 0 0 0 0];

internalField   nonuniform List<scalar> 
28560
(
3.5589e-09
-5.80039e-09
2.24149e-09
-8.65327e-09
1.91477e-08
-1.04945e-08
-2.43535e-08
2.99045e-08
-5.55101e-09
-3.56863e-08
3.8329e-08
-2.64273e-09
-4.16392e-08
4.19626e-08
-3.23409e-10
-4.24074e-08
4.02941e-08
2.11336e-09
-3.83636e-08
3.4762e-08
3.60158e-09
-2.88468e-08
2.21235e-08
6.7233e-09
-1.21918e-08
2.3929e-09
9.79889e-09
7.91889e-09
-1.67179e-08
8.79901e-09
2.39041e-08
-2.80978e-08
4.19371e-09
3.03404e-08
-3.08259e-08
4.85509e-10
3.02268e-08
-2.89864e-08
-1.24041e-09
2.72666e-08
-2.55233e-08
-1.74327e-09
2.36576e-08
-2.19535e-08
-1.70415e-09
2.02485e-08
-1.87217e-08
-1.52682e-09
1.72151e-08
-1.58698e-08
-1.3453e-09
1.45388e-08
-1.33542e-08
-1.18456e-09
1.21848e-08
-1.11428e-08
-1.042e-09
1.01162e-08
-9.2042e-09
-9.11982e-10
8.3085e-09
-7.51403e-09
-7.94464e-10
6.73434e-09
-6.04521e-09
-6.8913e-10
5.37137e-09
-4.77787e-09
-5.93504e-10
4.19985e-09
-3.69337e-09
-5.06484e-10
3.20198e-09
-2.77258e-09
-4.29399e-10
2.3569e-09
-1.99337e-09
-3.63527e-10
1.64012e-09
-1.32988e-09
-3.1024e-10
1.02672e-09
-7.58169e-10
-2.68546e-10
4.93646e-10
-2.57502e-10
-2.36144e-10
2.34425e-11
1.86321e-10
-2.09763e-10
5.12304e-09
-2.32597e-09
-2.79708e-09
-4.98634e-09
2.18016e-08
2.6616e-08
-4.34313e-08
-3.35413e-08
4.44956e-08
1.52397e-08
-2.61939e-08
-5.88155e-08
6.57753e-08
8.25121e-09
-1.5211e-08
-7.55378e-08
8.11395e-08
3.68845e-09
-9.29007e-09
-8.75395e-08
9.14946e-08
-1.00498e-09
-2.95018e-09
-9.53326e-08
9.69367e-08
-4.78142e-09
3.17735e-09
-9.5207e-08
9.13518e-08
-1.32359e-08
1.7091e-08
-8.15438e-08
6.96515e-08
-2.34038e-08
3.52962e-08
-5.38967e-08
3.71317e-08
-2.51586e-08
4.19236e-08
-1.87889e-08
3.08349e-09
-1.70971e-08
3.28025e-08
1.10698e-08
-2.17978e-08
-7.35052e-09
1.80784e-08
3.0442e-08
-3.64376e-08
-1.45498e-09
7.4506e-09
4.08251e-08
-4.36268e-08
1.34712e-09
1.4546e-09
4.53635e-08
-4.6118e-08
2.48724e-09
-1.73282e-09
4.61127e-08
-4.54772e-08
2.99316e-09
-3.62874e-09
4.42825e-08
-4.27528e-08
3.20784e-09
-4.73754e-09
4.08309e-08
-3.87975e-08
3.24779e-09
-5.28124e-09
3.65135e-08
-3.42688e-08
3.15555e-09
-5.40024e-09
3.18739e-08
-2.96067e-08
2.97505e-09
-5.24221e-09
2.72581e-08
-2.50832e-08
2.74361e-09
-4.91851e-09
2.28692e-08
-2.08505e-08
2.4887e-09
-4.50735e-09
1.88227e-08
-1.69945e-08
2.22437e-09
-4.05263e-09
1.5176e-08
-1.35528e-08
1.96198e-09
-3.58524e-09
1.19498e-08
-1.05268e-08
1.71584e-09
-3.13889e-09
9.12937e-09
-7.89181e-09
1.49467e-09
-2.73223e-09
6.67707e-09
-5.59935e-09
1.30763e-09
-2.38535e-09
4.53895e-09
-3.5949e-09
1.15174e-09
-2.09579e-09
2.66276e-09
-1.82843e-09
1.02346e-09
-1.85779e-09
9.99181e-10
-2.55142e-10
9.14901e-10
-1.65894e-09
-1.81338e-09
6.71998e-09
-4.9066e-09
6.92564e-10
1.54628e-08
5.98107e-08
-7.59661e-08
-2.723e-08
3.85874e-08
3.74511e-08
-4.88085e-08
-5.41733e-08
6.16819e-08
2.26258e-08
-3.01345e-08
-7.2935e-08
8.003e-08
1.59671e-08
-2.30621e-08
-8.79245e-08
9.37431e-08
8.27191e-09
-1.40905e-08
-9.9346e-08
1.03064e-07
-6.62115e-11
-3.65165e-09
-1.03726e-07
1.02697e-07
-1.90409e-08
2.00699e-08
-9.6089e-08
8.76316e-08
-4.50356e-08
5.34929e-08
-7.59982e-08
6.30928e-08
-5.66771e-08
6.95825e-08
-4.77101e-08
3.3442e-08
-4.82809e-08
6.2549e-08
-1.94207e-08
7.97126e-09
-2.97414e-08
4.11908e-08
2.02353e-09
-9.60708e-09
-1.48451e-08
2.24287e-08
1.57117e-08
-2.00442e-08
-5.45322e-09
9.7857e-09
2.32384e-08
-2.52274e-08
8.35424e-11
1.90551e-09
2.64034e-08
-2.67963e-08
3.6151e-09
-3.22224e-09
2.66009e-08
-2.5971e-08
5.78924e-09
-6.41922e-09
2.49559e-08
-2.37563e-08
6.93007e-09
-8.12968e-09
2.23258e-08
-2.08713e-08
7.30896e-09
-8.76346e-09
1.92883e-08
-1.77724e-08
7.19774e-09
-8.71358e-09
1.61869e-08
-1.47145e-08
6.8007e-09
-8.27307e-09
1.32144e-08
-1.18482e-08
6.2465e-09
-7.61272e-09
1.04807e-08
-9.25623e-09
5.61327e-09
-6.83776e-09
8.05107e-09
-6.99169e-09
4.94917e-09
-6.00855e-09
5.96678e-09
-5.08112e-09
4.30613e-09
-5.19179e-09
4.23939e-09
-3.52262e-09
3.71555e-09
-4.43231e-09
2.84896e-09
-2.27957e-09
3.21103e-09
-3.78043e-09
1.74606e-09
-1.29312e-09
2.79455e-09
-3.2475e-09
8.64233e-10
-4.94231e-10
2.45931e-09
-2.82931e-09
1.37607e-10
1.77273e-10
2.18746e-09
-2.50234e-09
-1.20814e-08
1.77585e-08
-5.67715e-09
2.67218e-09
1.37768e-08
9.22462e-08
-1.08695e-07
-2.5398e-08
3.69067e-08
6.02469e-08
-7.17556e-08
-5.25241e-08
6.00179e-08
3.76397e-08
-4.51335e-08
-7.15006e-08
7.88407e-08
3.03177e-08
-3.76578e-08
-8.69065e-08
9.2947e-08
2.00694e-08
-2.61099e-08
-9.88681e-08
1.02898e-07
7.58467e-09
-1.16143e-08
-1.03974e-07
1.03498e-07
-2.07247e-08
2.12005e-08
-9.72602e-08
8.94766e-08
-6.14225e-08
6.92061e-08
-7.88879e-08
6.73879e-08
-8.14542e-08
9.29542e-08
-5.36949e-08
4.10627e-08
-7.57715e-08
8.84037e-08
-2.85353e-08
1.8172e-08
-5.20505e-08
6.24138e-08
-9.02846e-09
1.96137e-09
-2.97903e-08
3.68574e-08
3.79929e-09
-7.98064e-09
-1.4089e-08
1.82704e-08
1.11619e-08
-1.32636e-08
-3.98717e-09
6.08888e-09
1.47054e-08
-1.54886e-08
2.59641e-09
-1.81323e-09
1.58263e-08
-1.57926e-08
6.70833e-09
-6.74199e-09
1.54711e-08
-1.49649e-08
8.93219e-09
-9.43835e-09
1.42776e-08
-1.35225e-08
9.81237e-09
-1.05675e-08
1.26545e-08
-1.17846e-08
9.84958e-09
-1.07195e-08
1.0844e-08
-9.94449e-09
9.40432e-09
-1.03038e-08
9.0008e-09
-8.11843e-09
8.68553e-09
-9.56791e-09
7.21383e-09
-6.38576e-09
7.81569e-09
-8.64376e-09
5.55413e-09
-4.80962e-09
6.8632e-09
-7.6077e-09
4.07861e-09
-3.43947e-09
5.90586e-09
-6.545e-09
2.82748e-09
-2.30484e-09
5.00071e-09
-5.52335e-09
1.81509e-09
-1.40395e-09
4.2167e-09
-4.62785e-09
1.02305e-09
-7.04308e-10
3.57751e-09
-3.89625e-09
4.07847e-10
-1.56421e-10
3.0851e-09
-3.33653e-09
-8.311e-11
2.91317e-10
2.71323e-09
-2.92144e-09
-2.37061e-08
2.99242e-08
-6.21812e-09
3.41634e-09
1.34884e-08
1.25355e-07
-1.4226e-07
-2.51233e-08
3.67226e-08
8.3316e-08
-9.49153e-08
-5.23182e-08
5.9813e-08
5.26243e-08
-6.0119e-08
-7.13307e-08
7.88096e-08
4.50659e-08
-5.25448e-08
-8.68376e-08
9.29515e-08
3.21883e-08
-3.83022e-08
-9.90883e-08
1.03276e-07
1.57201e-08
-1.9908e-08
-1.04631e-07
1.04462e-07
-2.15311e-08
2.17009e-08
-9.80427e-08
9.02477e-08
-7.69785e-08
8.47736e-08
-7.95869e-08
6.79455e-08
-1.04445e-07
1.16087e-07
-5.41424e-08
4.16645e-08
-1.00835e-07
1.13313e-07
-2.94934e-08
1.95551e-08
-7.24782e-08
8.24165e-08
-1.08915e-08
4.20562e-09
-4.36919e-08
5.03777e-08
1.24364e-09
-5.20789e-09
-2.23276e-08
2.62919e-08
8.28016e-09
-1.03722e-08
-8.19037e-09
1.02824e-08
1.19025e-08
-1.28449e-08
9.25961e-10
1.65104e-11
1.34148e-08
-1.36413e-08
6.60927e-09
-6.38273e-09
1.36174e-08
-1.33997e-08
9.75516e-09
-9.97283e-09
1.30106e-08
-1.2531e-08
1.11406e-08
-1.16202e-08
1.19375e-08
-1.13167e-08
1.14264e-08
-1.20472e-08
1.0622e-08
-9.93549e-09
1.10663e-08
-1.17527e-08
9.19992e-09
-8.4979e-09
1.03359e-08
-1.10379e-08
7.76298e-09
-7.07444e-09
9.38475e-09
-1.00733e-08
6.36465e-09
-5.71001e-09
8.29502e-09
-8.94966e-09
5.0443e-09
-4.43779e-09
7.15886e-09
-7.76538e-09
3.82921e-09
-3.28114e-09
6.05112e-09
-6.5992e-09
2.73627e-09
-2.24972e-09
5.06902e-09
-5.55557e-09
1.76943e-09
-1.34155e-09
4.26154e-09
-4.68942e-09
9.19217e-10
-5.42308e-10
3.64245e-09
-4.01936e-09
1.68542e-10
1.6651e-10
3.18492e-09
-3.51997e-09
-3.64328e-08
4.32627e-08
-6.82989e-09
4.07912e-09
1.34024e-08
1.59438e-07
-1.76919e-07
-2.51017e-08
3.67537e-08
1.06544e-07
-1.18196e-07
-5.2347e-08
5.98565e-08
6.76206e-08
-7.51302e-08
-7.13629e-08
7.90076e-08
6.01017e-08
-6.77465e-08
-8.6931e-08
9.31222e-08
4.44531e-08
-5.06442e-08
-9.95088e-08
1.03887e-07
2.41867e-08
-2.8565e-08
-1.05619e-07
1.05844e-07
-2.16852e-08
2.146e-08
-9.9181e-08
9.13349e-08
-9.25946e-08
1.00441e-07
-8.05154e-08
6.84295e-08
-1.27938e-07
1.40023e-07
-5.39972e-08
4.10916e-08
-1.2597e-07
1.38876e-07
-2.86782e-08
1.86966e-08
-9.2343e-08
1.02325e-07
-1.01281e-08
3.57224e-09
-5.69786e-08
6.35345e-08
1.69829e-09
-5.5457e-09
-3.0191e-08
3.40384e-08
8.51892e-09
-1.05651e-08
-1.23564e-08
1.44025e-08
1.20865e-08
-1.30438e-08
-9.80381e-10
1.93767e-09
1.36457e-08
-1.39104e-08
6.11766e-09
-5.85293e-09
1.39282e-08
-1.37505e-08
1.01526e-08
-1.03303e-08
1.34022e-08
-1.29606e-08
1.20642e-08
-1.25057e-08
1.24101e-08
-1.18312e-08
1.2632e-08
-1.32109e-08
1.11832e-08
-1.05474e-08
1.24015e-08
-1.30373e-08
9.86787e-09
-9.22034e-09
1.17031e-08
-1.23506e-08
8.54171e-09
-7.90312e-09
1.07299e-08
-1.13685e-08
7.23931e-09
-6.6183e-09
9.58338e-09
-1.02044e-08
5.97385e-09
-5.37136e-09
8.369e-09
-8.9715e-09
4.74749e-09
-4.16554e-09
7.16686e-09
-7.74881e-09
3.56521e-09
-3.00819e-09
6.08268e-09
-6.63969e-09
2.4376e-09
-1.91181e-09
5.17343e-09
-5.69922e-09
1.37692e-09
-8.87984e-10
4.46044e-09
-4.94938e-09
3.94217e-10
5.35756e-11
3.91907e-09
-4.36686e-09
-5.04476e-08
5.80239e-08
-7.57634e-09
4.87274e-09
1.33225e-08
1.9474e-07
-2.12936e-07
-2.5118e-08
3.68092e-08
1.29869e-07
-1.41561e-07
-5.24033e-08
5.99267e-08
8.26482e-08
-9.01715e-08
-7.14248e-08
7.92842e-08
7.5492e-08
-8.33515e-08
-8.70553e-08
9.33407e-08
5.68805e-08
-6.3166e-08
-1.00024e-07
1.04626e-07
3.30515e-08
-3.76533e-08
-1.06862e-07
1.07576e-07
-2.1002e-08
2.0288e-08
-1.00605e-07
9.2707e-08
-1.08313e-07
1.16211e-07
-8.17559e-08
6.91316e-08
-1.52367e-07
1.64991e-07
-5.38984e-08
4.03779e-08
-1.52073e-07
1.65593e-07
-2.75283e-08
1.73373e-08
-1.124e-07
1.22591e-07
-8.7282e-09
2.20504e-09
-7.00684e-08
7.65915e-08
2.9311e-09
-6.68751e-09
-3.78412e-08
4.15976e-08
9.54879e-09
-1.1513e-08
-1.64115e-08
1.83757e-08
1.29692e-08
-1.38732e-08
-2.87411e-09
3.77808e-09
1.44219e-08
-1.46364e-08
5.60674e-09
-5.39229e-09
1.45989e-08
-1.43687e-08
1.05297e-08
-1.07599e-08
1.39682e-08
-1.34815e-08
1.29639e-08
-1.34506e-08
1.289e-08
-1.22803e-08
1.38e-08
-1.44097e-08
1.16085e-08
-1.0958e-08
1.36755e-08
-1.4326e-08
1.02702e-08
-9.62069e-09
1.29944e-08
-1.36439e-08
8.9444e-09
-8.31065e-09
1.20003e-08
-1.2634e-08
7.65232e-09
-7.03489e-09
1.08202e-08
-1.14376e-08
6.3914e-09
-5.7842e-09
9.57511e-09
-1.01823e-08
5.14911e-09
-4.54971e-09
8.34069e-09
-8.94009e-09
3.92353e-09
-3.33505e-09
7.21637e-09
-7.80485e-09
2.72494e-09
-2.15658e-09
6.25214e-09
-6.8205e-09
1.57331e-09
-1.03609e-09
5.46956e-09
-6.00678e-09
4.90655e-10
5.30679e-12
4.84579e-09
-5.34175e-09
-6.60311e-08
7.45081e-08
-8.47705e-09
5.83457e-09
1.32239e-08
2.31542e-07
-2.506e-07
-2.51472e-08
3.68613e-08
1.53265e-07
-1.64979e-07
-5.24459e-08
5.99762e-08
9.76982e-08
-1.05228e-07
-7.14846e-08
7.96114e-08
9.13377e-08
-9.94645e-08
-8.71794e-08
9.3577e-08
6.95048e-08
-7.59024e-08
-1.00599e-07
1.05451e-07
4.2377e-08
-4.72289e-08
-1.08354e-07
1.09645e-07
-1.92966e-08
1.80061e-08
-1.02291e-07
9.43421e-08
-1.24135e-07
1.32084e-07
-8.33069e-08
7.00323e-08
-1.77923e-07
1.91198e-07
-5.38359e-08
3.95723e-08
-1.79468e-07
1.93731e-07
-2.61944e-08
1.57307e-08
-1.32912e-07
1.43376e-07
-7.05352e-09
5.33427e-10
-8.31095e-08
8.96296e-08
4.4571e-09
-8.10822e-09
-4.53029e-08
4.8954e-08
1.08323e-08
-1.26887e-08
-2.0289e-08
2.21454e-08
1.40554e-08
-1.48759e-08
-4.64249e-09
5.46299e-09
1.53406e-08
-1.5477e-08
5.21518e-09
-5.0788e-09
1.53564e-08
-1.50438e-08
1.10282e-08
-1.13409e-08
1.45599e-08
-1.3997e-08
1.39733e-08
-1.45361e-08
1.33352e-08
-1.26666e-08
1.50466e-08
-1.57152e-08
1.19418e-08
-1.12488e-08
1.49957e-08
-1.56887e-08
1.05232e-08
-9.84379e-09
1.4306e-08
-1.49854e-08
9.14141e-09
-8.48632e-09
1.32761e-08
-1.39312e-08
7.80845e-09
-7.17459e-09
1.20613e-08
-1.26952e-08
6.51434e-09
-5.89322e-09
1.07956e-08
-1.14167e-08
5.24476e-09
-4.63369e-09
9.54555e-09
-1.01566e-08
3.99581e-09
-3.39689e-09
8.39995e-09
-8.99886e-09
2.77643e-09
-2.19839e-09
7.39632e-09
-7.97436e-09
1.60568e-09
-1.05983e-09
6.55129e-09
-7.09714e-09
5.05826e-10
-1.81051e-12
5.8449e-09
-6.34891e-09
-8.3496e-08
9.30386e-08
-9.5426e-09
6.97773e-09
1.3106e-08
2.70151e-07
-2.90234e-07
-2.51941e-08
3.69082e-08
1.76697e-07
-1.88411e-07
-5.24654e-08
5.99981e-08
1.12761e-07
-1.20293e-07
-7.1542e-08
7.9981e-08
1.07743e-07
-1.16182e-07
-8.7297e-08
9.38263e-08
8.23635e-08
-8.88928e-08
-1.01221e-07
1.06346e-07
5.22138e-08
-5.7338e-08
-1.10125e-07
1.12073e-07
-1.63964e-08
1.44482e-08
-1.04245e-07
9.62586e-08
-1.40055e-07
1.48041e-07
-8.52214e-08
7.11462e-08
-2.04852e-07
2.18927e-07
-5.37857e-08
3.86351e-08
-2.0842e-07
2.2357e-07
-2.46455e-08
1.38664e-08
-1.53992e-07
1.64771e-07
-5.12401e-09
-1.40329e-09
-9.61703e-08
1.02698e-07
6.21e-09
-9.73555e-09
-5.25462e-08
5.60717e-08
1.22909e-08
-1.40172e-08
-2.39387e-08
2.5665e-08
1.52792e-08
-1.60038e-08
-6.23652e-09
6.96111e-09
1.63718e-08
-1.64194e-08
4.98558e-09
-4.93798e-09
1.62021e-08
-1.5788e-08
1.17018e-08
-1.21159e-08
1.52024e-08
-1.45505e-08
1.51413e-08
-1.57932e-08
1.38009e-08
-1.30582e-08
1.64192e-08
-1.71619e-08
1.22661e-08
-1.15168e-08
1.6409e-08
-1.71583e-08
1.07405e-08
-1.00195e-08
1.5685e-08
-1.64059e-08
9.27841e-09
-8.59118e-09
1.46014e-08
-1.52886e-08
7.88334e-09
-7.22307e-09
1.3342e-08
-1.40023e-08
6.53945e-09
-5.89957e-09
1.20468e-08
-1.26867e-08
5.23522e-09
-4.6129e-09
1.07732e-08
-1.13956e-08
3.96777e-09
-3.36502e-09
9.60004e-09
-1.02028e-08
2.74379e-09
-2.16825e-09
8.55158e-09
-9.12712e-09
1.5803e-09
-1.04057e-09
7.64073e-09
-8.18045e-09
4.93881e-10
2.7237e-12
6.85018e-09
-7.34678e-09
-1.0318e-07
1.13965e-07
-1.07849e-08
8.31642e-09
1.29726e-08
3.10898e-07
-3.32187e-07
-2.52707e-08
3.6955e-08
2.00115e-07
-2.118e-07
-5.24662e-08
5.99992e-08
1.27827e-07
-1.3536e-07
-7.16124e-08
8.04048e-08
1.24792e-07
-1.33585e-07
-8.74171e-08
9.41011e-08
9.54966e-08
-1.02181e-07
-1.01889e-07
1.07321e-07
6.26105e-08
-6.80423e-08
-1.12227e-07
1.14903e-07
-1.21434e-08
9.46729e-09
-1.06487e-07
9.85022e-08
-1.56034e-07
1.64019e-07
-8.75936e-08
7.25152e-08
-2.33475e-07
2.48554e-07
-5.37406e-08
3.75343e-08
-2.39227e-07
2.55433e-07
-2.28412e-08
1.17079e-08
-1.75724e-07
1.86857e-07
-2.91173e-09
-3.58886e-09
-1.09216e-07
1.15717e-07
8.19095e-09
-1.15683e-08
-5.95291e-08
6.29064e-08
1.39184e-08
-1.54919e-08
-2.73168e-08
2.88902e-08
1.66431e-08
-1.72619e-08
-7.63373e-09
8.25251e-09
1.75268e-08
-1.74809e-08
4.93628e-09
-4.98211e-09
1.7153e-08
-1.66254e-08
1.25852e-08
-1.31128e-08
1.59205e-08
-1.51631e-08
1.64959e-08
-1.72534e-08
1.431e-08
-1.3481e-08
1.79464e-08
-1.87754e-08
1.26097e-08
-1.17975e-08
1.79386e-08
-1.87509e-08
1.09642e-08
-1.01974e-08
1.71497e-08
-1.79165e-08
9.41473e-09
-8.69268e-09
1.59936e-08
-1.67157e-08
7.95172e-09
-7.26551e-09
1.46754e-08
-1.53616e-08
6.55793e-09
-5.89914e-09
1.33362e-08
-1.3995e-08
5.21961e-09
-4.5868e-09
1.20231e-08
-1.26559e-08
3.93436e-09
-3.32933e-09
1.08069e-08
-1.14119e-08
2.70929e-09
-2.1376e-09
9.70064e-09
-1.02723e-08
1.55581e-09
-1.02316e-09
8.71619e-09
-9.24885e-09
4.84682e-10
4.43015e-12
7.83873e-09
-8.32784e-09
-1.25442e-07
1.37662e-07
-1.22197e-08
9.86298e-09
1.28236e-08
3.54148e-07
-3.76835e-07
-2.53837e-08
3.69952e-08
2.23453e-07
-2.35064e-07
-5.24327e-08
5.9968e-08
1.42892e-07
-1.50428e-07
-7.1682e-08
8.08692e-08
1.42569e-07
-1.51756e-07
-8.75164e-08
9.43814e-08
1.08951e-07
-1.15816e-07
-1.02554e-07
1.08359e-07
7.36486e-08
-7.94534e-08
-1.14685e-07
1.18127e-07
-6.40927e-09
2.9666e-09
-1.08996e-07
1.01099e-07
-1.71975e-07
1.79872e-07
-9.05171e-08
7.41661e-08
-2.64228e-07
2.80579e-07
-5.36699e-08
3.62203e-08
-2.72235e-07
2.89685e-07
-2.07299e-08
9.21392e-09
-1.98178e-07
2.09694e-07
-3.37368e-10
-6.07803e-09
-1.22191e-07
1.28607e-07
1.04121e-08
-1.36113e-08
-6.61982e-08
6.93974e-08
1.57084e-08
-1.71083e-08
-3.03807e-08
3.17806e-08
1.81417e-08
-1.86462e-08
-8.8151e-09
9.31958e-09
1.88051e-08
-1.86652e-08
5.07543e-09
-5.21538e-09
1.8215e-08
-1.75567e-08
1.37036e-08
-1.43618e-08
1.67152e-08
-1.58324e-08
1.8071e-08
-1.89539e-08
1.4858e-08
-1.39284e-08
1.96532e-08
-2.05827e-08
1.2969e-08
-1.20875e-08
1.95969e-08
-2.04783e-08
1.11975e-08
-1.03857e-08
1.87063e-08
-1.9518e-08
9.56297e-09
-8.8084e-09
1.74546e-08
-1.82092e-08
8.03857e-09
-7.32844e-09
1.60603e-08
-1.67704e-08
6.59942e-09
-5.92421e-09
1.46624e-08
-1.53376e-08
5.23097e-09
-4.58871e-09
1.32935e-08
-1.39358e-08
3.93017e-09
-3.3223e-09
1.20179e-08
-1.26257e-08
2.70209e-09
-2.13235e-09
1.08425e-08
-1.14122e-08
1.55383e-09
-1.02485e-09
9.77949e-09
-1.03085e-08
4.90358e-10
-5.57043e-12
8.81568e-09
-9.30046e-09
-1.50675e-07
1.64536e-07
-1.3861e-08
1.16348e-08
1.26606e-08
4.00299e-07
-4.24594e-07
-2.55447e-08
3.70241e-08
2.46619e-07
-2.58098e-07
-5.23537e-08
5.99067e-08
1.57969e-07
-1.65522e-07
-7.17499e-08
8.13754e-08
1.61157e-07
-1.70783e-07
-8.75865e-08
9.46669e-08
1.22784e-07
-1.29864e-07
-1.03156e-07
1.09491e-07
8.54934e-08
-9.18284e-08
-1.1755e-07
1.21704e-07
8.49316e-10
-5.0032e-09
-1.1176e-07
1.04124e-07
-1.87668e-07
1.95303e-07
-9.41437e-08
7.61499e-08
-2.97698e-07
3.15692e-07
-5.35441e-08
3.46406e-08
-3.07834e-07
3.26738e-07
-1.82536e-08
6.34797e-09
-2.21406e-07
2.33311e-07
2.58513e-09
-8.87877e-09
-1.34946e-07
1.41239e-07
1.28794e-08
-1.58586e-08
-7.24911e-08
7.54703e-08
1.76501e-08
-1.88562e-08
-3.30884e-08
3.42944e-08
1.9772e-08
-2.01552e-08
-9.76324e-09
1.01465e-08
2.021e-08
-1.99797e-08
5.40099e-09
-5.63135e-09
1.93964e-08
-1.85873e-08
1.50928e-08
-1.59019e-08
1.7586e-08
-1.65547e-08
1.99074e-08
-2.09387e-08
1.54362e-08
-1.43913e-08
2.15678e-08
-2.26127e-08
1.33344e-08
-1.23815e-08
2.13949e-08
-2.23478e-08
1.14333e-08
-1.05789e-08
2.03516e-08
-2.1206e-08
9.7218e-09
-8.94047e-09
1.89777e-08
-1.97591e-08
8.14669e-09
-7.41726e-09
1.74911e-08
-1.82205e-08
6.67145e-09
-5.98254e-09
1.602e-08
-1.67089e-08
5.277e-09
-4.62551e-09
1.45832e-08
-1.52347e-08
3.95921e-09
-3.34548e-09
1.32365e-08
-1.38502e-08
2.72055e-09
-2.14783e-09
1.19831e-08
-1.25558e-08
1.56814e-09
-1.03984e-09
1.08362e-08
-1.13645e-08
5.07739e-10
-2.53756e-11
9.78328e-09
-1.02656e-08
-1.79301e-07
1.95027e-07
-1.57267e-08
1.36544e-08
1.24882e-08
4.49783e-07
-4.75926e-07
-2.57758e-08
3.70401e-08
2.69483e-07
-2.80747e-07
-5.22209e-08
5.98288e-08
1.73097e-07
-1.80705e-07
-7.18302e-08
8.19423e-08
1.80645e-07
-1.90757e-07
-8.76324e-08
9.49802e-08
1.37071e-07
-1.44419e-07
-1.036e-07
1.10872e-07
9.85567e-08
-1.05829e-07
-1.20872e-07
1.25443e-07
9.42452e-09
-1.3996e-08
-1.14799e-07
1.07739e-07
-2.02699e-07
2.09759e-07
-9.86996e-08
7.85467e-08
-3.34692e-07
3.54845e-07
-5.33258e-08
3.27357e-08
-3.46461e-07
3.67051e-07
-1.5341e-08
3.06619e-09
-2.45413e-07
2.57687e-07
5.86821e-09
-1.20164e-08
-1.47468e-07
1.53616e-07
1.56008e-08
-1.83207e-08
-7.83118e-08
8.10317e-08
1.97217e-08
-2.07104e-08
-3.54049e-08
3.63937e-08
2.15291e-08
-2.17857e-08
-1.04599e-08
1.07165e-08
2.17485e-08
-2.14418e-08
5.90161e-09
-6.20833e-09
2.07118e-08
-1.97279e-08
1.67953e-08
-1.77791e-08
1.85386e-08
-1.73268e-08
2.20554e-08
-2.32672e-08
1.6034e-08
-1.48554e-08
2.3722e-08
-2.49005e-08
1.36921e-08
-1.26658e-08
2.33375e-08
-2.43638e-08
1.16637e-08
-1.07728e-08
2.20794e-08
-2.29703e-08
9.88697e-09
-9.08477e-09
2.05519e-08
-2.13541e-08
8.27444e-09
-7.53197e-09
1.89574e-08
-1.96999e-08
6.77474e-09
-6.07705e-09
1.74025e-08
-1.81002e-08
5.36451e-09
-4.70804e-09
1.58888e-08
-1.65453e-08
4.038e-09
-3.42183e-09
1.44656e-08
-1.50818e-08
2.79521e-09
-2.22014e-09
1.31304e-08
-1.37055e-08
1.63685e-09
-1.10332e-09
1.1895e-08
-1.24286e-08
5.63326e-10
-7.18312e-11
1.0751e-08
-1.12425e-08
-2.11779e-07
2.2962e-07
-1.78404e-08
1.59448e-08
1.23065e-08
5.03086e-07
-5.31338e-07
-2.60934e-08
3.70178e-08
2.9186e-07
-3.02784e-07
-5.19974e-08
5.9727e-08
1.88362e-07
-1.96092e-07
-7.19147e-08
8.25665e-08
2.01132e-07
-2.11784e-07
-8.7627e-08
9.52952e-08
1.51922e-07
-1.5959e-07
-1.03728e-07
1.12754e-07
1.13854e-07
-1.2288e-07
-1.2441e-07
1.28837e-07
1.85632e-08
-2.29894e-08
-1.18272e-07
1.12187e-07
-2.16375e-07
2.2246e-07
-1.0442e-07
8.14285e-08
-3.76328e-07
3.9932e-07
-5.29276e-08
3.04289e-08
-3.88608e-07
4.11107e-07
-1.18819e-08
-7.41038e-10
-2.70161e-07
2.82784e-07
9.58214e-09
-1.55299e-08
-1.5966e-07
1.65607e-07
1.85785e-08
-2.09249e-08
-8.35578e-08
8.59041e-08
2.18077e-08
-2.26113e-08
-3.72912e-08
3.80947e-08
2.33915e-08
-2.35222e-08
-1.08814e-08
1.10121e-08
2.34221e-08
-2.30668e-08
6.54595e-09
-6.90126e-09
2.21728e-08
-2.09848e-08
1.88606e-08
-2.00487e-08
1.95726e-08
-1.81343e-08
2.4585e-08
-2.60233e-08
1.66247e-08
-1.52917e-08
2.61538e-08
-2.74868e-08
1.40171e-08
-1.29203e-08
2.54259e-08
-2.65227e-08
1.18714e-08
-1.0952e-08
2.38767e-08
-2.47961e-08
1.00484e-08
-9.23487e-09
2.21624e-08
-2.2976e-08
8.41272e-09
-7.66107e-09
2.04476e-08
-2.11992e-08
6.8965e-09
-6.1928e-09
1.88019e-08
-1.95056e-08
5.47376e-09
-4.81116e-09
1.72047e-08
-1.78673e-08
4.13526e-09
-3.51506e-09
1.56989e-08
-1.63191e-08
2.88494e-09
-2.30715e-09
1.42806e-08
-1.48583e-08
1.71991e-09
-1.18165e-09
1.29646e-08
-1.35028e-08
6.35193e-10
-1.36286e-10
1.17394e-08
-1.22383e-08
-2.48614e-07
2.68835e-07
-2.02207e-08
1.8534e-08
1.21175e-08
5.60751e-07
-5.91403e-07
-2.65234e-08
3.69273e-08
3.13475e-07
-3.23879e-07
-5.16435e-08
5.96042e-08
2.0392e-07
-2.11881e-07
-7.20106e-08
8.32604e-08
2.22727e-07
-2.33977e-07
-8.75574e-08
9.55264e-08
1.67419e-07
-1.75388e-07
-1.03619e-07
1.15148e-07
1.33121e-07
-1.44649e-07
-1.27409e-07
1.31812e-07
2.72695e-08
-3.16732e-08
-1.23083e-07
1.17916e-07
-2.2801e-07
2.33177e-07
-1.11467e-07
8.48703e-08
-4.24074e-07
4.5067e-07
-5.21985e-08
2.76987e-08
-4.34848e-07
4.59348e-07
-7.68738e-09
-5.19683e-09
-2.95621e-07
3.08506e-07
1.35945e-08
-1.96065e-08
-1.71216e-07
1.77228e-07
2.1978e-08
-2.35196e-08
-8.82003e-08
8.97419e-08
2.38571e-08
-2.4572e-08
-3.86893e-08
3.94042e-08
2.53021e-08
-2.53158e-08
-1.10046e-08
1.10183e-08
2.52464e-08
-2.48882e-08
7.28021e-09
-7.6385e-09
2.37995e-08
-2.23709e-08
2.13511e-08
-2.27798e-08
2.06912e-08
-1.89569e-08
2.75995e-08
-2.93338e-08
1.71699e-08
-1.5663e-08
2.89042e-08
-3.04112e-08
1.42793e-08
-1.31212e-08
2.76525e-08
-2.88106e-08
1.20415e-08
-1.11098e-08
2.57243e-08
-2.6656e-08
1.02005e-08
-9.38572e-09
2.37934e-08
-2.46081e-08
8.56767e-09
-7.8227e-09
2.19489e-08
-2.26938e-08
7.0621e-09
-6.35831e-09
2.02088e-08
-2.09126e-08
5.63623e-09
-4.96782e-09
1.85333e-08
-1.92017e-08
4.28253e-09
-3.64853e-09
1.69464e-08
-1.75804e-08
3.00108e-09
-2.40779e-09
1.54432e-08
-1.60365e-08
1.80848e-09
-1.26347e-09
1.40443e-08
-1.45893e-08
7.15247e-10
-2.18152e-10
1.27356e-08
-1.32327e-08
-2.90354e-07
3.13247e-07
-2.2893e-08
2.1462e-08
1.19227e-08
6.23378e-07
-6.56763e-07
-2.71001e-08
3.67268e-08
3.33933e-07
-3.4356e-07
-5.11127e-08
5.94741e-08
2.20017e-07
-2.28378e-07
-7.21414e-08
8.40493e-08
2.45549e-07
-2.57457e-07
-8.74833e-08
9.55546e-08
1.83447e-07
-1.91518e-07
-1.03711e-07
1.17189e-07
1.57321e-07
-1.70799e-07
-1.29806e-07
1.36362e-07
3.6795e-08
-4.33506e-08
-1.31227e-07
1.25606e-07
-2.38325e-07
2.43945e-07
-1.19286e-07
8.87336e-08
-4.79476e-07
5.10029e-07
-5.09376e-08
2.45844e-08
-4.85806e-07
5.12159e-07
-2.45069e-09
-1.11278e-08
-3.21433e-07
3.35011e-07
1.79897e-08
-2.41816e-08
-1.8176e-07
1.87952e-07
2.64016e-08
-2.68822e-08
-9.20608e-08
9.25414e-08
2.63819e-08
-2.68936e-08
-3.97166e-08
4.02283e-08
2.74168e-08
-2.7231e-08
-1.08077e-08
1.06219e-08
2.72793e-08
-2.6944e-08
7.99123e-09
-8.32649e-09
2.56026e-08
-2.38935e-08
2.43431e-08
-2.60522e-08
2.19051e-08
-1.97608e-08
3.12556e-08
-3.33999e-08
1.76012e-08
-1.59055e-08
3.20112e-08
-3.37069e-08
1.44397e-08
-1.32466e-08
2.99905e-08
-3.11836e-08
1.21453e-08
-1.12102e-08
2.75915e-08
-2.85267e-08
1.03153e-08
-9.51783e-09
2.54144e-08
-2.62119e-08
8.70786e-09
-7.96686e-09
2.34371e-08
-2.41781e-08
7.2128e-09
-6.51981e-09
2.16148e-08
-2.23078e-08
5.81137e-09
-5.15585e-09
1.98667e-08
-2.05222e-08
4.48225e-09
-3.85858e-09
1.82137e-08
-1.88373e-08
3.2194e-09
-2.62731e-09
1.66326e-08
-1.72247e-08
2.02217e-09
-1.46387e-09
1.51399e-08
-1.56982e-08
8.93069e-10
-3.69659e-10
1.37378e-08
-1.42612e-08
-3.37597e-07
3.63486e-07
-2.58889e-08
2.47704e-08
1.17173e-08
6.91648e-07
-7.28135e-07
-2.78552e-08
3.6335e-08
3.52667e-07
-3.61147e-07
-5.03157e-08
5.9331e-08
2.37027e-07
-2.46043e-07
-7.23078e-08
8.49313e-08
2.69715e-07
-2.82338e-07
-8.74518e-08
9.5394e-08
1.99541e-07
-2.07483e-07
-1.03828e-07
1.1815e-07
1.84742e-07
-1.99064e-07
-1.34286e-07
1.44067e-07
5.17233e-08
-6.15051e-08
-1.42753e-07
1.34669e-07
-2.50584e-07
2.58668e-07
-1.25026e-07
9.19108e-08
-5.42634e-07
5.75749e-07
-4.91566e-08
2.09969e-08
-5.41724e-07
5.69883e-07
3.09631e-09
-1.8585e-08
-3.46845e-07
3.62334e-07
2.48016e-08
-2.86373e-08
-1.92223e-07
1.96058e-07
2.93132e-08
-2.94682e-08
-9.42625e-08
9.44175e-08
2.88133e-08
-2.92835e-08
-4.03668e-08
4.0837e-08
2.95973e-08
-2.91437e-08
-1.03992e-08
9.94562e-09
2.95232e-08
-2.92658e-08
8.60128e-09
-8.8587e-09
2.74915e-08
-2.55209e-08
2.79145e-08
-2.98851e-08
2.32384e-08
-2.04217e-08
3.58186e-08
-3.86353e-08
1.7651e-08
-1.57788e-08
3.54987e-08
-3.73709e-08
1.4367e-08
-1.32443e-08
3.23651e-08
-3.34877e-08
1.21862e-08
-1.12952e-08
2.94451e-08
-3.03361e-08
1.04335e-08
-9.6639e-09
2.70019e-08
-2.77715e-08
8.88137e-09
-8.18148e-09
2.4905e-08
-2.56049e-08
7.45892e-09
-6.77699e-09
2.29902e-08
-2.36722e-08
6.06885e-09
-5.41245e-09
2.11733e-08
-2.18297e-08
4.74485e-09
-4.13202e-09
1.94511e-08
-2.00639e-08
3.50476e-09
-2.92001e-09
1.78098e-08
-1.83945e-08
2.31101e-09
-1.73725e-09
1.62662e-08
-1.68399e-08
1.14021e-09
-5.83733e-10
1.48072e-08
-1.53636e-08
-3.91e-07
4.20234e-07
-2.9234e-08
2.85173e-08
1.1494e-08
7.6633e-07
-8.06341e-07
-2.88337e-08
3.56322e-08
3.68867e-07
-3.75665e-07
-4.91348e-08
5.91873e-08
2.55518e-07
-2.6557e-07
-7.2527e-08
8.59187e-08
2.9534e-07
-3.08732e-07
-8.74385e-08
9.51123e-08
2.15319e-07
-2.22993e-07
-1.03129e-07
1.19415e-07
2.14077e-07
-2.30363e-07
-1.41766e-07
1.50435e-07
7.14634e-08
-8.01329e-08
-1.52637e-07
1.3945e-07
-2.68847e-07
2.82034e-07
-1.2232e-07
9.21629e-08
-6.08721e-07
6.38878e-07
-4.64765e-08
1.65011e-08
-6.01899e-07
6.31874e-07
6.38285e-09
-2.14335e-08
-3.72356e-07
3.87406e-07
3.1438e-08
-3.46126e-08
-2.01963e-07
2.05138e-07
3.34473e-08
-3.31052e-08
-9.46264e-08
9.42843e-08
3.14658e-08
-3.15341e-08
-4.07321e-08
4.08003e-08
3.15911e-08
-3.12566e-08
-9.53018e-09
9.19565e-09
3.22114e-08
-3.16793e-08
9.15532e-09
-9.68748e-09
2.92319e-08
-2.72833e-08
3.19529e-08
-3.39015e-08
2.45364e-08
-2.01866e-08
4.20343e-08
-4.63841e-08
1.63384e-08
-1.46623e-08
3.92408e-08
-4.09168e-08
1.3835e-08
-1.3013e-08
3.44936e-08
-3.53156e-08
1.20704e-08
-1.12267e-08
3.12027e-08
-3.20465e-08
1.04318e-08
-9.7688e-09
2.84925e-08
-2.91555e-08
9.0445e-09
-8.37645e-09
2.62814e-08
-2.69494e-08
7.65849e-09
-6.98345e-09
2.43592e-08
-2.50342e-08
6.29108e-09
-5.64094e-09
2.24901e-08
-2.31402e-08
4.96588e-09
-4.33246e-09
2.06858e-08
-2.13192e-08
3.67904e-09
-3.07543e-09
1.89866e-08
-1.95902e-08
2.46144e-09
-1.8988e-09
1.74108e-08
-1.79734e-08
1.32728e-09
-8.00676e-10
1.59112e-08
-1.64378e-08
-4.51282e-07
4.84243e-07
-3.29611e-08
3.27856e-08
1.12412e-08
8.48296e-07
-8.92322e-07
-3.00937e-08
3.43942e-08
3.81343e-07
-3.85644e-07
-4.73723e-08
5.90836e-08
2.76352e-07
-2.88063e-07
-7.28285e-08
8.70244e-08
3.22524e-07
-3.3672e-07
-8.74639e-08
9.44069e-08
2.30392e-07
-2.37335e-07
-1.01651e-07
1.21464e-07
2.4841e-07
-2.68223e-07
-1.46412e-07
1.50653e-07
8.65928e-08
-9.08335e-08
-1.55815e-07
1.3291e-07
-2.99616e-07
3.22522e-07
-1.06401e-07
8.69275e-08
-6.66175e-07
6.85648e-07
-3.93793e-08
5.74526e-09
-6.63944e-07
6.97579e-07
1.59534e-08
-2.69933e-08
-3.99702e-07
4.10742e-07
3.52677e-08
-3.94425e-08
-2.06946e-07
2.1112e-07
3.77513e-08
-3.5875e-08
-9.3943e-08
9.20667e-08
3.37801e-08
-3.39668e-08
-4.05316e-08
4.07183e-08
3.40902e-08
-3.35095e-08
-9.16158e-09
8.58086e-09
3.47342e-08
-3.3625e-08
1.0454e-08
-1.15632e-08
3.05203e-08
-2.89778e-08
3.5649e-08
-3.71916e-08
2.51978e-08
-1.84716e-08
5.19244e-08
-5.86506e-08
1.37099e-08
-1.28123e-08
4.22077e-08
-4.31053e-08
1.28912e-08
-1.26395e-08
3.58794e-08
-3.61311e-08
1.20849e-08
-1.12736e-08
3.28673e-08
-3.36786e-08
1.04643e-08
-9.85847e-09
2.97857e-08
-3.03915e-08
9.11978e-09
-8.50748e-09
2.76044e-08
-2.82167e-08
7.86389e-09
-7.26054e-09
2.56713e-08
-2.62747e-08
6.63807e-09
-6.02884e-09
2.37684e-08
-2.43776e-08
5.38159e-09
-4.75933e-09
2.19566e-08
-2.25789e-08
4.10702e-09
-3.49775e-09
2.02023e-08
-2.08116e-08
2.87343e-09
-2.29902e-09
1.85349e-08
-1.91093e-08
1.71211e-09
-1.17038e-09
1.69543e-08
-1.74961e-08
-5.19226e-07
5.56337e-07
-3.71109e-08
3.76821e-08
1.09265e-08
9.3856e-07
-9.87169e-07
-3.16929e-08
3.20497e-08
3.8822e-07
-3.88576e-07
-4.45356e-08
5.91053e-08
3.00988e-07
-3.15558e-07
-7.31956e-08
8.81667e-08
3.51314e-07
-3.66285e-07
-8.73249e-08
9.23826e-08
2.43551e-07
-2.48609e-07
-9.83049e-08
1.18244e-07
2.89009e-07
-3.08949e-07
-1.37284e-07
1.3977e-07
9.35819e-08
-9.60683e-08
-1.48987e-07
1.17063e-07
-3.50779e-07
3.82703e-07
-8.29377e-08
7.12685e-08
-7.02202e-07
7.13871e-07
-2.56211e-08
-6.61112e-09
-7.26575e-07
7.58808e-07
2.70266e-08
-3.77643e-08
-4.23392e-07
4.34129e-07
4.47819e-08
-4.58149e-08
-2.14663e-07
2.15696e-07
4.46308e-08
-3.97868e-08
-8.88778e-08
8.40338e-08
3.57491e-08
-3.65256e-08
-4.11091e-08
4.18856e-08
3.57508e-08
-3.61265e-08
-8.285e-09
8.66068e-09
3.71831e-08
-3.39952e-08
1.36854e-08
-1.68733e-08
3.15947e-08
-3.22191e-08
3.78873e-08
-3.72629e-08
2.83383e-08
-2.07055e-08
6.6172e-08
-7.38048e-08
1.50827e-08
-1.3106e-08
4.41411e-08
-4.61178e-08
1.22471e-08
-1.20146e-08
3.61658e-08
-3.63983e-08
1.21294e-08
-1.13531e-08
3.44888e-08
-3.52651e-08
1.0472e-08
-1.01665e-08
3.09038e-08
-3.12093e-08
9.52986e-09
-8.98501e-09
2.87756e-08
-2.93205e-08
8.3054e-09
-7.64872e-09
2.68884e-08
-2.75451e-08
7.037e-09
-6.47572e-09
2.49693e-08
-2.55306e-08
5.92311e-09
-5.39673e-09
2.31614e-08
-2.36878e-08
4.83072e-09
-4.26998e-09
2.14028e-08
-2.19636e-08
3.65415e-09
-3.04666e-09
1.97061e-08
-2.03136e-08
2.39026e-09
-1.75995e-09
1.80876e-08
-1.87179e-08
-5.9569e-07