/*--------------------------------*- C++ -*----------------------------------*\
| =========                 |                                                 |
| \\      /  F ield         | OpenFOAM: The Open Source CFD Toolbox           |
|  \\    /   O peration     | Version:  2.4.0                                 |
|   \\  /    A nd           | Web:      www.OpenFOAM.org                      |
|    \\/     M anipulation  |                                                 |
\*---------------------------------------------------------------------------*/
FoamFile
{
    version     2.0;
    format      ascii;
    class       surfaceScalarField;
    location    "0.006";
    object      phi;
}
// * * * * * * * * * * * * * * * * * * * * * * * * * * * * * * * * * * * * * //

dimensions      [0 3 -1 0 0 0 0];

internalField   nonuniform List<scalar> 
19800
(
8.03182e-14
-8.03182e-14
9.0297e-14
-1.10935e-14
3.05972e-14
5.8938e-14
-7.95685e-14
1.09675e-13
-2.12975e-13
1.33044e-13
-3.46441e-13
1.32972e-13
-4.65191e-13
1.17909e-13
-5.6085e-13
9.44778e-14
-6.28769e-13
6.66478e-14
-6.64833e-13
3.50403e-14
-6.6624e-13
8.6556e-16
-6.3051e-13
-3.57588e-14
-5.56321e-13
-7.3846e-14
-4.40896e-13
-1.14897e-13
-2.82902e-13
-1.5741e-13
-8.13212e-14
-2.00987e-13
1.64523e-13
-2.45261e-13
4.54841e-13
-2.89805e-13
7.89872e-13
-3.34681e-13
1.1669e-12
-3.76891e-13
1.58439e-12
-4.17505e-13
2.03948e-12
-4.55051e-13
2.52789e-12
-4.88109e-13
3.0439e-12
-5.15413e-13
3.5805e-12
-5.35911e-13
4.12947e-12
-5.48522e-13
4.68121e-12
-5.51831e-13
5.22274e-12
-5.42172e-13
5.74229e-12
-5.20432e-13
6.22553e-12
-4.83943e-13
6.6564e-12
-4.31115e-13
7.01764e-12
-3.61085e-13
7.28758e-12
-2.69666e-13
7.44513e-12
-1.57497e-13
7.47223e-12
-2.73406e-14
7.3448e-12
1.27053e-13
7.04073e-12
3.03847e-13
6.53804e-12
5.02744e-13
5.81557e-12
7.22656e-13
4.85396e-12
9.61637e-13
3.6367e-12
1.21688e-12
2.15109e-12
1.48473e-12
3.89317e-13
1.76065e-12
-1.65035e-12
2.03873e-12
-3.96318e-12
2.31214e-12
-6.53744e-12
2.57365e-12
-9.35341e-12
2.81551e-12
-1.23838e-11
3.02981e-12
-1.55944e-11
3.20954e-12
3.34865e-12
-1.89443e-11
7.01856e-15
-8.85566e-14
-1.47291e-13
1.41628e-13
-4.49359e-13
3.60077e-13
-8.65422e-13
5.25032e-13
-1.346e-12
6.12679e-13
-1.8483e-12
6.33807e-13
-2.34526e-12
6.12952e-13
-2.82256e-12
5.69812e-13
-3.27268e-12
5.1523e-13
-3.69212e-12
4.5366e-13
-4.07835e-12
3.87019e-13
-4.42988e-12
3.16233e-13
-4.7452e-12
2.42204e-13
-5.02469e-12
1.65462e-13
-5.26847e-12
8.7295e-14
-5.47747e-12
8.92048e-15
-5.65365e-12
-6.83528e-14
-5.80014e-12
-1.42922e-13
-5.91687e-12
-2.1793e-13
-6.01493e-12
-2.78988e-13
-6.09783e-12
-3.34575e-13
-6.1739e-12
-3.78465e-13
-6.25374e-12
-4.07291e-13
-6.35033e-12
-4.17778e-13
-6.47931e-12
-4.06407e-13
-6.65797e-12
-3.7023e-13
-6.90432e-12
-3.06671e-13
-7.24837e-12
-1.99575e-13
-7.71189e-12
-5.79931e-14
-8.32474e-12
1.28549e-13
-9.1202e-12
3.64563e-13
-1.01355e-11
6.54557e-13
-1.14085e-11
1.00347e-12
-1.2981e-11
1.41482e-12
-1.48999e-11
1.8912e-12
-1.72093e-11
2.43627e-12
-1.99562e-11
3.05079e-12
-2.31873e-11
3.73393e-12
-2.6948e-11
4.4828e-12
-3.12795e-11
5.29191e-12
-3.62169e-11
6.15264e-12
-4.17867e-11
7.05275e-12
-4.80038e-11
7.97617e-12
-5.48691e-11
8.90296e-12
-6.23671e-11
9.80969e-12
-7.04649e-11
1.06707e-11
-7.91101e-11
1.14593e-11
-8.82303e-11
1.21487e-11
-9.7736e-11
1.27135e-11
1.31315e-11
-1.07521e-10
-8.31185e-14
-6.19981e-15
-4.21276e-13
4.78901e-13
-9.6389e-13
9.02148e-13
-1.65954e-12
1.22017e-12
-2.45048e-12
1.40284e-12
-3.29023e-12
1.4724e-12
-4.15099e-12
1.47231e-12
-5.01956e-12
1.43704e-12
-5.89096e-12
1.38557e-12
-6.76428e-12
1.3263e-12
-7.64028e-12
1.26267e-12
-8.52066e-12
1.19654e-12
-9.40774e-12
1.12945e-12
-1.03049e-11
1.06304e-12
-1.12161e-11
9.9891e-13
-1.21458e-11
9.38974e-13
-1.30995e-11
8.85237e-13
-1.40828e-11
8.39946e-13
-1.51069e-11
8.05462e-13
-1.61742e-11
7.87881e-13
-1.72978e-11
7.89172e-13
-1.84898e-11
8.14238e-13
-1.97645e-11
8.68313e-13
-2.11388e-11
9.57018e-13
-2.2632e-11
1.08658e-12
-2.42669e-11
1.26378e-12
-2.60713e-11
1.49648e-12
-2.8067e-11
1.79516e-12
-3.02909e-11
2.16537e-12
-3.27787e-11
2.61642e-12
-3.55711e-11
3.15726e-12
-3.87129e-11
3.79677e-12
-4.22526e-11
4.54359e-12
-4.62434e-11
5.40584e-12
-5.07422e-11
6.39021e-12
-5.58083e-11
7.50222e-12
-6.15029e-11
8.74481e-12
-6.78875e-11
1.01176e-11
-7.5022e-11
1.16159e-11
-8.29613e-11
1.32298e-11
-9.1752e-11
1.49422e-11
-1.01428e-10
1.67285e-11
-1.12008e-10
1.85559e-11
-1.23489e-10
2.03835e-11
-1.35842e-10
2.21636e-11
-1.49015e-10
2.3843e-11
-1.62922e-10
2.53662e-11
-1.77453e-10
2.66778e-11
-1.92465e-10
2.7725e-11
2.84614e-11
-2.07797e-10
-1.65139e-13
1.585e-13
-6.70284e-13
9.83515e-13
-1.41833e-12
1.64979e-12
-2.33909e-12
2.14049e-12
-3.3712e-12
2.43438e-12
-4.47091e-12
2.57141e-12
-5.61466e-12
2.61527e-12
-6.7932e-12
2.61474e-12
-8.00496e-12
2.59644e-12
-9.25184e-12
2.57226e-12
-1.05373e-11
2.54733e-12
-1.18659e-11
2.52453e-12
-1.32429e-11
2.50621e-12
-1.46745e-11
2.49467e-12
-1.61677e-11
2.49215e-12
-1.77301e-11
2.50115e-12
-1.93702e-11
2.52452e-12
-2.10969e-11
2.56565e-12
-2.2921e-11
2.62875e-12
-2.48525e-11
2.7192e-12
-2.69052e-11
2.8423e-12
-2.90946e-11
3.00435e-12
-3.14385e-11
3.21265e-12
-3.3957e-11
3.47542e-12
-3.66732e-11
3.80201e-12
-3.96131e-11
4.20275e-12
-4.28066e-11
4.68908e-12
-4.62855e-11
5.2734e-12
-5.00881e-11
5.96775e-12
-5.4257e-11
6.7853e-12
-5.88393e-11
7.7398e-12
-6.38871e-11
8.84526e-12
-6.94583e-11
1.01155e-11
-7.56154e-11
1.15635e-11
-8.24262e-11
1.3201e-11
-8.99621e-11
1.50375e-11
-9.82974e-11
1.70787e-11
-1.07507e-10
1.93256e-11
-1.17664e-10
2.17715e-11
-1.28835e-10
2.44007e-11
-1.41079e-10
2.71856e-11
-1.54436e-10
3.00857e-11
-1.68925e-10
3.30463e-11
-1.8454e-10
3.59989e-11
-2.01239e-10
3.8863e-11
-2.18944e-10
4.15487e-11
-2.3754e-10
4.39618e-11
-2.56871e-10
4.60082e-11
-2.76747e-10
4.75995e-11
4.86569e-11
-2.96943e-10
-2.2544e-13
3.83672e-13
-8.51207e-13
1.60872e-12
-1.73944e-12
2.53754e-12
-2.80395e-12
3.20467e-12
-3.98246e-12
3.61271e-12
-5.23613e-12
3.82497e-12
-6.5467e-12
3.92561e-12
-7.90876e-12
3.97625e-12
-9.32309e-12
4.00979e-12
-1.0793e-11
4.04093e-12
-1.23232e-11
4.07626e-12
-1.39191e-11
4.11968e-12
-1.55875e-11
4.17435e-12
-1.73361e-11
4.24324e-12
-1.91734e-11
4.32935e-12
-2.11087e-11
4.43595e-12
-2.3152e-11
4.56685e-12
-2.53138e-11
4.72662e-12
-2.76061e-11
4.92075e-12
-3.00425e-11
5.15577e-12
-3.26386e-11
5.439e-12
-3.54128e-11
5.77899e-12
-3.83858e-11
6.18567e-12
-4.15811e-11
6.6704e-12
-4.50258e-11
7.24597e-12
-4.87502e-11
7.92648e-12
-5.27892e-11
8.72738e-12
-5.71818e-11
9.66531e-12
-6.19725e-11
1.07578e-11
-6.7211e-11
1.20235e-11
-7.29529e-11
1.3482e-11
-7.926e-11
1.51531e-11
-8.62006e-11
1.70568e-11
-9.38492e-11
1.92124e-11
-1.02286e-10
2.16377e-11
-1.11597e-10
2.43475e-11
-1.21871e-10
2.73517e-11
-1.33199e-10
3.06529e-11
-1.45671e-10
3.42428e-11
-1.59369e-10
3.80991e-11
-1.74366e-10
4.21823e-11
-1.90712e-10
4.64325e-11
-2.08432e-10
5.07679e-11
-2.27517e-10
5.50848e-11
-2.47914e-10
5.92608e-11
-2.69524e-10
6.31591e-11
-2.92198e-10
6.66355e-11
-3.15737e-10
6.95468e-11
-3.39897e-10
7.17582e-11
7.31514e-11
-3.64393e-10
-2.65555e-13
6.48925e-13
-9.66598e-13
2.30894e-12
-1.93277e-12
3.50319e-12
-3.06652e-12
4.33834e-12
-4.30723e-12
4.85377e-12
-5.62197e-12
5.14018e-12
-6.99757e-12
5.30138e-12
-8.43145e-12
5.40964e-12
-9.9253e-12
5.50247e-12
-1.14823e-11
5.59647e-12
-1.31067e-11
5.69936e-12
-1.48036e-11
5.81603e-12
-1.65798e-11
5.95051e-12
-1.84429e-11
6.10664e-12
-2.04017e-11
6.28828e-12
-2.24656e-11
6.49968e-12
-2.46449e-11
6.74575e-12
-2.69508e-11
7.0323e-12
-2.93962e-11
7.36626e-12
-3.19957e-11
7.75587e-12
-3.47669e-11
8.2108e-12
-3.773e-11
8.7424e-12
-4.0908e-11
9.36382e-12
-4.43278e-11
1.009e-11
-4.80201e-11
1.09378e-11
-5.20201e-11
1.19258e-11
-5.63681e-11
1.30744e-11
-6.11097e-11
1.44057e-11
-6.62965e-11
1.59436e-11
-7.19866e-11
1.77131e-11
-7.8245e-11
1.97404e-11
-8.51439e-11
2.20525e-11
-9.27632e-11
2.46766e-11
-1.0119e-10
2.76398e-11
-1.1052e-10
3.09672e-11
-1.20853e-10
3.46807e-11
-1.32298e-10
3.87958e-11
-1.44963e-10
4.33182e-11
-1.5896e-10
4.82395e-11
-1.74392e-10
5.35319e-11
-1.91352e-10
5.91431e-11
-2.0991e-10
6.49911e-11
-2.30103e-10
7.09619e-11
-2.51926e-10
7.69091e-11
-2.75323e-10
8.2658e-11
-3.00177e-10
8.8013e-11
-3.26309e-10
9.27671e-11
-3.53478e-10
9.67147e-11
-3.81384e-10
9.96636e-11
1.01446e-10
-4.0968e-10
-2.9454e-13
9.42984e-13
-1.04184e-12
3.05527e-12
-2.04403e-12
4.50499e-12
-3.19637e-12
5.49103e-12
-4.44263e-12
6.10089e-12
-5.75683e-12
6.45524e-12
-7.13077e-12
6.6756e-12
-8.5639e-12
6.84218e-12
-1.00578e-11
6.99504e-12
-1.16145e-11
7.15167e-12
-1.32367e-11
7.32057e-12
-1.49284e-11
7.50757e-12
-1.66952e-11
7.71779e-12
-1.85439e-11
7.9561e-12
-2.04824e-11
8.2274e-12
-2.25193e-11
8.53702e-12
-2.46643e-11
8.89103e-12
-2.69284e-11
9.2966e-12
-2.93241e-11
9.76242e-12
-3.18665e-11
1.02989e-11
-3.45734e-11
1.09184e-11
-3.74658e-11
1.16356e-11
-4.05686e-11
1.24671e-11
-4.39106e-11
1.34321e-11
-4.75254e-11
1.45521e-11
-5.14519e-11
1.58512e-11
-5.57347e-11
1.73558e-11
-6.0425e-11
1.90946e-11
-6.55809e-11
2.10984e-11
-7.12678e-11
2.33994e-11
-7.75593e-11
2.60316e-11
-8.45371e-11
2.90303e-11
-9.22915e-11
3.24315e-11
-1.00922e-10
3.62712e-11
-1.10538e-10
4.05838e-11
-1.21257e-10
4.54e-11
-1.33204e-10
5.07438e-11
-1.46514e-10
5.66275e-11
-1.6132e-10
6.30461e-11
-1.77757e-10
6.9969e-11
-1.95946e-10
7.73322e-11
-2.15985e-10
8.50308e-11
-2.37937e-10
9.29142e-11
-2.61813e-10
1.00786e-10
-2.87562e-10
1.08407e-10
-3.15058e-10
1.15509e-10
-3.44098e-10
1.21807e-10
-3.744e-10
1.27016e-10
-4.0561e-10
1.30873e-10
1.3315e-10
-4.37314e-10
-3.20315e-13
1.26267e-12
-1.10062e-12
3.83473e-12
-2.11652e-12
5.52088e-12
-3.25909e-12
6.63439e-12
-4.47905e-12
7.32202e-12
-5.75878e-12
7.73589e-12
-7.09541e-12
8.01238e-12
-8.49017e-12
8.23619e-12
-9.94401e-12
8.44758e-12
-1.14573e-11
8.66372e-12
-1.30309e-11
8.89356e-12
-1.46671e-11
9.14396e-12
-1.63698e-11
9.42131e-12
-1.81441e-11
9.7317e-12
-1.99968e-11
1.00811e-11
-2.1935e-11
1.0476e-11
-2.39672e-11
1.09237e-11
-2.6103e-11
1.14328e-11
-2.83541e-11
1.2014e-11
-3.07344e-11
1.26801e-11
-3.32613e-11
1.34465e-11
-3.59555e-11
1.43309e-11
-3.88419e-11
1.53542e-11
-4.19501e-11
1.65402e-11
-4.53147e-11
1.7916e-11
-4.89766e-11
1.95119e-11
-5.29831e-11
2.13611e-11
-5.73891e-11
2.34995e-11
-6.22572e-11
2.59655e-11
-6.76582e-11
2.87996e-11
-7.36716e-11
3.20447e-11
-8.03862e-11
3.57452e-11
-8.79009e-11
3.99472e-11
-9.63253e-11
4.46969e-11
-1.0578e-10
5.004e-11
-1.16399e-10
5.60195e-11
-1.28328e-10
6.2672e-11
-1.41722e-10
7.00221e-11
-1.5675e-10
7.80738e-11
-1.7358e-10
8.67992e-11
-1.92375e-10
9.61275e-11
-2.13277e-10
1.05932e-10
-2.36387e-10
1.16024e-10
-2.61749e-10
1.26148e-10
-2.8933e-10
1.35988e-10
-3.19006e-10
1.45184e-10
-3.50553e-10
1.53353e-10
-3.83652e-10
1.60114e-10
-4.17891e-10
1.65112e-10
1.68043e-10
-4.52785e-10
-3.47275e-13
1.60937e-12
-1.15709e-12
4.64409e-12
-2.177e-12
6.54116e-12
-3.29564e-12
7.75404e-12
-4.47303e-12
8.50054e-12
-5.70153e-12
8.9651e-12
-6.98436e-12
9.29516e-12
-8.32473e-12
9.57577e-12
-9.72296e-12
9.84466e-12
-1.11776e-11
1.01174e-11
-1.26874e-11
1.0403e-11
-1.42527e-11
1.07096e-11
-1.58753e-11
1.1045e-11
-1.75588e-11
1.14165e-11
-1.9308e-11
1.18314e-11
-2.11284e-11
1.2297e-11
-2.30266e-11
1.2822e-11
-2.50103e-11
1.34167e-11
-2.70892e-11
1.40935e-11
-2.92756e-11
1.48677e-11
-3.1585e-11
1.57573e-11
-3.40366e-11
1.67836e-11
-3.6654e-11
1.79719e-11
-3.94656e-11
1.93514e-11
-4.25055e-11
2.09552e-11
-4.58145e-11
2.28202e-11
-4.9441e-11
2.4987e-11
-5.34411e-11
2.74991e-11
-5.78796e-11
3.04034e-11
-6.28301e-11
3.37496e-11
-6.83754e-11
3.75902e-11
-7.46089e-11
4.19796e-11
-8.16345e-11
4.69742e-11
-8.95689e-11
5.26323e-11
-9.85421e-11
5.90135e-11
-1.087e-10
6.61772e-11
-1.20207e-10
7.41783e-11
-1.33245e-10
8.30609e-11
-1.48019e-10
9.28472e-11
-1.64743e-10
1.03523e-10
-1.83634e-10
1.15019e-10
-2.04896e-10
1.27194e-10
-2.2869e-10
1.39818e-10
-2.5511e-10
1.52569e-10
-2.84159e-10
1.65038e-10
-3.15726e-10
1.7675e-10
-3.49574e-10
1.872e-10
-3.85341e-10
1.95881e-10
-4.22555e-10
2.02325e-10
2.06135e-10
-4.60647e-10
-3.77154e-13
1.98615e-12
-1.21761e-12
5.48446e-12
-2.23805e-12
7.56214e-12
-3.32568e-12
8.84255e-12
-4.45185e-12
9.62754e-12
-5.62062e-12
1.01343e-11
-6.84229e-12
1.05167e-11
-8.12253e-12
1.08553e-11
-9.46113e-12
1.11823e-11
-1.08548e-11
1.15103e-11
-1.23001e-11
1.18481e-11
-1.37951e-11
1.22051e-11
-1.53398e-11
1.25906e-11
-1.69358e-11
1.30135e-11
-1.85859e-11
1.34819e-11
-2.02934e-11
1.40045e-11
-2.20625e-11
1.4591e-11
-2.38986e-11
1.5253e-11
-2.58087e-11
1.60046e-11
-2.78026e-11
1.68629e-11
-2.98931e-11
1.78488e-11
-3.20963e-11
1.89873e-11
-3.44329e-11
2.03084e-11
-3.69286e-11
2.18469e-11
-3.96154e-11
2.36421e-11
-4.25327e-11
2.57377e-11
-4.57276e-11
2.8182e-11
-4.92558e-11
3.10272e-11
-5.31818e-11
3.43293e-11
-5.75797e-11
3.81479e-11
-6.25334e-11
4.25449e-11
-6.81376e-11
4.75849e-11
-7.44986e-11
5.33357e-11
-8.17354e-11
5.9869e-11
-8.99829e-11
6.72607e-11
-9.93962e-11
7.55902e-11
-1.10156e-10
8.49376e-11
-1.22472e-10
9.53768e-11
-1.36588e-10
1.06962e-10
-1.52777e-10
1.19711e-10
-1.71328e-10
1.3357e-10
-1.92529e-10
1.48395e-10
-2.16627e-10
1.63917e-10
-2.43796e-10
1.79738e-10
-2.74093e-10
1.95335e-10
-3.07433e-10
2.1009e-10
-3.43571e-10
2.23337e-10
-3.82101e-10
2.3441e-10
-4.22472e-10
2.42696e-10
2.47677e-10
-4.64015e-10
-4.10381e-13
2.3964e-12
-1.28422e-12
6.3583e-12
-2.30412e-12
8.58239e-12
-3.35639e-12
9.89532e-12
-4.42558e-12
1.06972e-11
-5.52914e-12
1.12381e-11
-6.68556e-12
1.1673e-11
-7.90342e-12
1.20728e-11
-9.18215e-12
1.24605e-11
-1.05166e-11
1.28442e-11
-1.1901e-11
1.32325e-11
-1.33315e-11
1.36358e-11
-1.48058e-11
1.40653e-11
-1.63236e-11
1.45314e-11
-1.78851e-11
1.50433e-11
-1.94914e-11
1.56105e-11
-2.11438e-11
1.62435e-11
-2.28448e-11
1.69547e-11
-2.45987e-11
1.77594e-11
-2.64113e-11
1.86764e-11
-2.82916e-11
1.97294e-11
-3.02514e-11
2.09472e-11
-3.23071e-11
2.23644e-11
-3.44807e-11
2.40211e-11
-3.68008e-11
2.59629e-11
-3.93033e-11
2.82409e-11
-4.20327e-11
3.09118e-11
-4.50422e-11
3.40371e-11
-4.83947e-11
3.76827e-11
-5.2163e-11
4.19174e-11
-5.64302e-11
4.68132e-11
-6.12897e-11
5.24448e-11
-6.68457e-11
5.88916e-11
-7.32155e-11
6.62385e-11
-8.05336e-11
7.45787e-11
-8.89586e-11
8.40151e-11
-9.86823e-11
9.46606e-11
-1.0994e-10
1.06633e-10
-1.23019e-10
1.2004e-10
-1.38262e-10
1.34953e-10
-1.56054e-10
1.51363e-10
-1.76797e-10
1.69139e-10
-2.00864e-10
1.87985e-10
-2.28539e-10
2.07413e-10
-2.59967e-10
2.26762e-10
-2.95104e-10
2.45227e-10
-3.33701e-10
2.61933e-10
-3.75295e-10
2.76004e-10
-4.1924e-10
2.86639e-10
2.9317e-10
-4.64733e-10
-4.46927e-13
2.84326e-12
-1.3571e-12
7.26824e-12
-2.3759e-12
9.60114e-12
-3.38915e-12
1.09087e-11
-4.39634e-12
1.17046e-11
-5.42989e-12
1.22718e-11
-6.51751e-12
1.27606e-11
-7.67121e-12
1.32263e-11
-8.89014e-12
1.36791e-11
-1.01673e-11
1.41212e-11
-1.14948e-11
1.45599e-11
-1.28664e-11
1.50073e-11
-1.42778e-11
1.54765e-11
-1.57262e-11
1.59793e-11
-1.72094e-11
1.65261e-11
-1.87257e-11
1.71268e-11
-2.02736e-11
1.77921e-11
-2.18524e-11
1.85344e-11
-2.34622e-11
1.93699e-11
-2.51045e-11
2.03189e-11
-2.67828e-11
2.14077e-11
-2.85038e-11
2.26686e-11
-3.02786e-11
2.41403e-11
-3.21242e-11
2.58679e-11
-3.40641e-11
2.79037e-11
-3.61296e-11
3.03069e-11
-3.83607e-11
3.31434e-11
-4.08072e-11
3.64846e-11
-4.35293e-11
4.04062e-11
-4.65977e-11
4.4987e-11
-5.00927e-11
5.03087e-11
-5.41038e-11
5.6456e-11
-5.87298e-11
6.35178e-11
-6.4081e-11
7.15902e-11
-7.02841e-11
8.07821e-11
-7.7492e-11
9.12221e-11
-8.58979e-11
1.03065e-10
-9.57548e-11
1.16488e-10
-1.07396e-10
1.31681e-10
-1.21247e-10
1.48804e-10
-1.37817e-10
1.67934e-10
-1.57667e-10
1.88989e-10
-1.81341e-10
2.11659e-10
-2.0929e-10
2.35363e-10
-2.41784e-10
2.59256e-10
-2.78846e-10
2.82289e-10
-3.20221e-10
3.03308e-10
-3.65378e-10
3.2116e-10
-4.13538e-10
3.34799e-10
3.4336e-10
-4.63727e-10
-4.86606e-13
3.32966e-12
-1.43571e-12
8.21681e-12
-2.45267e-12
1.06178e-11
-3.42322e-12
1.18792e-11
-4.36335e-12
1.26448e-11
-5.322e-12
1.32307e-11
-6.33698e-12
1.37758e-11
-7.42415e-12
1.43135e-11
-8.58257e-12
1.48376e-11
-9.80351e-12
1.53421e-11
-1.10769e-11
1.58331e-11
-1.23941e-11
1.63241e-11
-1.37486e-11
1.68304e-11
-1.51349e-11
1.73654e-11
-1.65485e-11
1.794e-11
-1.79847e-11
1.85641e-11
-1.9439e-11
1.92476e-11
-2.09067e-11
2.00028e-11
-2.2383e-11
2.08463e-11
-2.38638e-11
2.17996e-11
-2.53464e-11
2.28908e-11
-2.68313e-11
2.41547e-11
-2.83233e-11
2.56337e-11
-2.98327e-11
2.73782e-11
-3.13763e-11
2.94476e-11
-3.29792e-11
3.19101e-11
-3.4676e-11
3.48411e-11
-3.65126e-11
3.83224e-11
-3.85459e-11
4.24405e-11
-4.08435e-11
4.72851e-11
-4.3482e-11
5.29475e-11
-4.65454e-11
5.95203e-11
-5.01242e-11
6.70978e-11
-5.43154e-11
7.57822e-11
-5.92273e-11
8.56936e-11
-6.49917e-11
9.69851e-11
-7.17867e-11
1.09858e-10
-7.98695e-11
1.2457e-10
-8.96147e-11
1.41426e-10
-1.01543e-10
1.60732e-10
-1.16323e-10
1.82713e-10
-1.3473e-10
2.07396e-10
-1.57558e-10
2.34488e-10
-1.85495e-10
2.63301e-10
-2.18994e-10
2.92756e-10
-2.58177e-10
3.21472e-10
-3.02787e-10
3.47916e-10
-3.52193e-10
3.70566e-10
-4.05443e-10
3.88048e-10
3.99248e-10
-4.61331e-10
-5.29134e-13
3.85837e-12
-1.51923e-12
9.20631e-12
-2.53325e-12
1.16315e-11
-3.45724e-12
1.28031e-11
-4.32512e-12
1.35129e-11
-5.20368e-12
1.41095e-11
-6.14167e-12
1.4714e-11
-7.15926e-12
1.53314e-11
-8.25576e-12
1.59343e-11
-9.42074e-12
1.65071e-11
-1.06418e-11
1.70538e-11
-1.19081e-11
1.75898e-11
-1.32106e-11
1.81325e-11
-1.45415e-11
1.86967e-11
-1.58936e-11
1.92935e-11
-1.72596e-11
1.99316e-11
-1.86312e-11
2.06201e-11
-1.99988e-11
2.13707e-11
-2.13521e-11
2.21995e-11
-2.26803e-11
2.31283e-11
-2.3974e-11
2.41858e-11
-2.52262e-11
2.54085e-11
-2.64338e-11
2.68422e-11
-2.75984e-11
2.8543e-11
-2.87284e-11
3.05777e-11
-2.98414e-11
3.30235e-11
-3.09662e-11
3.59664e-11
-3.21436e-11
3.95001e-11
-3.34268e-11
4.37237e-11
-3.48803e-11
4.87389e-11
-3.65775e-11
5.4646e-11
-3.85971e-11
6.15417e-11
-4.10182e-11
6.95202e-11
-4.39169e-11
7.86808e-11
-4.73684e-11
8.91443e-11
-5.14624e-11
1.01078e-10
-5.63353e-11
1.14731e-10
-6.22225e-11
1.30457e-10
-6.95239e-11
1.48726e-10
-7.88636e-11
1.70069e-10
-9.11131e-11
1.94961e-10
-1.07345e-10
2.23629e-10
-1.28707e-10
2.55851e-10
-1.5623e-10
2.90825e-10
-1.90635e-10
3.27161e-10
-2.32183e-10
3.6302e-10
-2.80614e-10
3.96347e-10
-3.35162e-10
4.25115e-10
-3.94636e-10
4.47521e-10
4.6213e-10
-4.57517e-10
-5.74085e-13
4.43198e-12
-1.60669e-12
1.02387e-11
-2.61642e-12
1.26413e-11
-3.48988e-12
1.36767e-11
-4.28017e-12
1.43033e-11
-5.07307e-12
1.49025e-11
-5.92924e-12
1.55705e-11
-6.87372e-12
1.62763e-11
-7.90628e-12
1.69672e-11
-9.01497e-12
1.76157e-11
-1.01852e-11
1.82235e-11
-1.14036e-11
1.88077e-11
-1.2659e-11
1.93882e-11
-1.39416e-11
1.99805e-11
-1.52417e-11
2.05952e-11
-1.65486e-11
2.12398e-11
-1.78499e-11
2.19218e-11
-1.91306e-11
2.26514e-11
-2.03737e-11
2.34432e-11
-2.15619e-11
2.43177e-11
-2.26776e-11
2.53031e-11
-2.37047e-11
2.64366e-11
-2.46297e-11
2.77676e-11
-2.54438e-11
2.93572e-11
-2.61454e-11
3.12797e-11
-2.67432e-11
3.36215e-11
-2.72581e-11
3.64811e-11
-2.77251e-11
3.99665e-11
-2.81935e-11
4.4192e-11
-2.87263e-11
4.92726e-11
-2.93958e-11
5.53173e-11
-3.02765e-11
6.24236e-11
-3.14337e-11
7.06775e-11
-3.29145e-11
8.0161e-11
-3.4744e-11
9.09739e-11
-3.69407e-11
1.03276e-10
-3.95591e-11
1.17349e-10
-4.2768e-11
1.33664e-10
-4.69597e-11
1.52915e-10
-5.28634e-11
1.75972e-10
-6.16085e-11
2.03706e-10
-7.46759e-11
2.36697e-10
-9.37134e-11
2.7489e-10
-1.20248e-10
3.1736e-10
-1.55382e-10
3.62295e-10
-1.99576e-10
4.07214e-10
-2.52562e-10
4.49333e-10
-3.13383e-10
4.85935e-10
-3.80518e-10
5.14655e-10
5.33644e-10
-4.52033e-10
-6.20954e-13
5.0527e-12
-1.69715e-12
1.13153e-11
-2.70094e-12
1.36455e-11
-3.5197e-12
1.44956e-11
-4.22677e-12
1.50103e-11
-4.92811e-12
1.56038e-11
-5.69714e-12
1.63398e-11
-6.56448e-12
1.7144e-11
-7.53073e-12
1.79335e-11
-8.5825e-12
1.8667e-11
-9.70297e-12
1.93434e-11
-1.08769e-11
1.99816e-11
-1.20912e-11
2.06033e-11
-1.33341e-11
2.12248e-11
-1.45935e-11
2.18556e-11
-1.58551e-11
2.25017e-11
-1.71016e-11
2.31684e-11
-1.83124e-11
2.38627e-11
-1.94641e-11
2.45961e-11
-2.05312e-11
2.53862e-11
-2.14868e-11
2.62595e-11
-2.23033e-11
2.72535e-11
-2.29548e-11
2.84195e-11
-2.34198e-11
2.9823e-11
-2.36845e-11
3.1545e-11
-2.37458e-11
3.36826e-11
-2.36144e-11
3.63488e-11
-2.33179e-11
3.96693e-11
-2.29021e-11
4.37768e-11
-2.24307e-11
4.88025e-11
-2.1978e-11
5.48652e-11
-2.1616e-11
6.20611e-11
-2.13967e-11
7.04577e-11
-2.13312e-11
8.00959e-11
-2.1376e-11
9.10198e-11
-2.1441e-11
1.03342e-10
-2.14413e-11
1.17348e-10
-2.14123e-11
1.33633e-10
-2.16857e-11
1.53188e-10
-2.30858e-11
1.77372e-10
-2.70644e-11
2.07685e-10
-3.56576e-11
2.4529e-10
-5.12161e-11
2.90449e-10
-7.597e-11
3.42115e-10
-1.11564e-10
3.9789e-10
-1.5873e-10
4.54381e-10
-2.17178e-10
5.0778e-10
-2.85682e-10
5.54438e-10
-3.62277e-10
5.9125e-10
6.15845e-10
-4.44479e-10
-6.69256e-13
5.72217e-12
-1.78964e-12
1.24365e-11
-2.7855e-12
1.46418e-11
-3.54505e-12
1.52551e-11
-4.16288e-12
1.56278e-11
-4.7662e-12
1.6207e-11
-5.44231e-12
1.7016e-11
-6.22794e-12
1.79297e-11
-7.12489e-12
1.88302e-11
-8.1186e-12
1.96602e-11
-9.19062e-12
2.04151e-11
-1.03241e-11
2.11153e-11
-1.15045e-11
2.17844e-11
-1.27184e-11
2.24391e-11
-1.39511e-11
2.30881e-11
-1.51842e-11
2.37347e-11
-1.63961e-11
2.43806e-11
-1.75603e-11
2.50279e-11
-1.86466e-11
2.56834e-11
-1.96205e-11
2.63606e-11
-2.04431e-11
2.70824e-11
-2.10737e-11
2.78847e-11
-2.14717e-11
2.88189e-11
-2.16001e-11
2.99527e-11
-2.14289e-11
3.13741e-11
-2.0939e-11
3.3192e-11
-2.01271e-11
3.55363e-11
-1.9011e-11
3.85535e-11
-1.76326e-11
4.23992e-11
-1.60569e-11
4.72268e-11
-1.43624e-11
5.31697e-11
-1.26222e-11
6.03199e-11
-1.08781e-11
6.8714e-11
-9.10165e-12
7.83207e-11
-7.16098e-12
8.90795e-11
-4.81488e-12
1.00995e-10
-1.76979e-12
1.14303e-10
2.15821e-12
1.29705e-10
6.7698e-12
1.48576e-10
1.1172e-11
1.7297e-10
1.35241e-11
2.05332e-10
1.10495e-11
2.47764e-10
4.27449e-13
3.01071e-10
-2.15443e-11
3.64088e-10
-5.72501e-11
4.33595e-10
-1.07778e-10
5.04907e-10
-1.7279e-10
5.72793e-10
-2.50696e-10
6.32344e-10
-3.38948e-10
6.79502e-10
7.11248e-10
-4.34351e-10
-7.18464e-13
6.44123e-12
-1.8831e-12
1.3602e-11
-2.86852e-12
1.56273e-11
-3.56395e-12
1.59501e-11
-4.08586e-12
1.61493e-11
-4.58421e-12
1.67052e-11
-5.16088e-12
1.75927e-11
-5.85941e-12
1.8628e-11
-6.68332e-12
1.96536e-11
-7.61743e-12
2.05938e-11
-8.64223e-12
2.14397e-11
-9.73999e-12
2.22131e-11
-1.08952e-11
2.29394e-11
-1.20927e-11
2.36358e-11
-1.33149e-11
2.43096e-11
-1.45403e-11
2.49602e-11
-1.57429e-11
2.55842e-11
-1.68916e-11
2.61775e-11
-1.79478e-11
2.674e-11
-1.88662e-11
2.72789e-11
-1.95959e-11
2.78124e-11
-2.0078e-11
2.83682e-11
-2.02576e-11
2.90001e-11
-2.00772e-11
2.97733e-11
-1.94841e-11
3.07809e-11
-1.84373e-11
3.21451e-11
-1.69143e-11
3.40139e-11
-1.49178e-11
3.65576e-11
-1.24804e-11
3.99614e-11
-9.66455e-12
4.44096e-11
-6.55409e-12
5.00583e-11
-3.22147e-12
5.69874e-11
2.94313e-13
6.51988e-11
4.06496e-12
7.45501e-11
8.32456e-12
8.48191e-11
1.35019e-11
9.58168e-11
2.01594e-11
1.07646e-10
2.87872e-11
1.21079e-10
3.94133e-11
1.3795e-10
5.11039e-11
1.61278e-10
6.15474e-11
1.94889e-10
6.70417e-11
2.4227e-10
6.29766e-11
3.05136e-10
4.48849e-11
3.82179e-10
9.42807e-12
4.69052e-10
-4.49316e-11
5.59266e-10
-1.17786e-10
6.45648e-10
-2.07069e-10
7.21628e-10
-3.09513e-10
7.81945e-10
8.22793e-10
-4.2106e-10
-7.68224e-13
7.21009e-12
-1.97627e-12
1.48102e-11
-2.94782e-12
1.65984e-11
-3.57325e-12
1.65748e-11
-3.99221e-12
1.65677e-11
-4.37776e-12
1.70905e-11
-4.8475e-12
1.80621e-11
-5.45247e-12
1.92325e-11
-6.19841e-12
2.03991e-11
-7.07057e-12
2.14657e-11
-8.0493e-12
2.24182e-11
-9.11648e-12
2.32795e-11
-1.02558e-11
2.40774e-11
-1.14505e-11
2.48293e-11
-1.26812e-11
2.55401e-11
-1.39249e-11
2.62047e-11
-1.51516e-11
2.68117e-11
-1.63235e-11
2.73497e-11
-1.73936e-11
2.78098e-11
-1.83051e-11
2.81904e-11
-1.89917e-11
2.85001e-11
-1.93863e-11
2.87643e-11
-1.94032e-11
2.9018e-11
-1.89598e-11
2.93301e-11
-1.79761e-11
2.97974e-11
-1.63812e-11
3.0551e-11
-1.41237e-11
3.17571e-11
-1.11779e-11
3.36115e-11
-7.5537e-12
3.63359e-11
-3.29674e-12
4.01519e-11
1.51921e-12
4.52428e-11
6.80274e-12
5.17046e-11
1.25493e-11
5.94519e-11
1.88715e-11
6.8227e-11
2.61051e-11
7.75853e-11
3.48656e-11
8.70572e-11
4.60027e-11
9.65099e-11
6.034e-11
1.06742e-10
7.82065e-11
1.20083e-10
9.86372e-11
1.40847e-10
1.18806e-10
1.7472e-10
1.33881e-10
2.27195e-10
1.37741e-10
3.01273e-10
1.24413e-10
3.95505e-10
8.94285e-11
5.04036e-10
3.07188e-11
6.17977e-10
-5.12462e-11
7.27613e-10
-1.53881e-10
8.24262e-10
-2.73119e-10
9.01183e-10
9.53607e-10
-4.03935e-10
-8.18052e-13
8.02839e-12
-2.06749e-12
1.60589e-11
-3.02074e-12
1.75506e-11
-3.56974e-12
1.71229e-11
-3.8775e-12
1.68748e-11
-4.1414e-12
1.73538e-11
-4.49506e-12
1.84152e-11
-4.99804e-12
1.9735e-11
-5.65981e-12
2.10606e-11
-6.46682e-12
2.22725e-11
-7.39991e-12
2.33506e-11
-8.44109e-12
2.43192e-11
-9.5738e-12
2.52085e-11
-1.07811e-11
2.60359e-11
-1.20432e-11
2.68027e-11
-1.33347e-11
2.74973e-11
-1.4623e-11
2.81005e-11
-1.58646e-11
2.85911e-11
-1.70048e-11
2.89501e-11
-1.79762e-11
2.91626e-11
-1.86987e-11
2.92238e-11
-1.90766e-11
2.91427e-11
-1.90074e-11
2.89487e-11
-1.83746e-11
2.86975e-11
-1.70568e-11
2.84805e-11
-1.4942e-11
2.84371e-11
-1.1931e-11
2.87458e-11
-7.95424e-12
2.96337e-11
-2.97203e-12
3.13533e-11
3.00951e-12
3.41711e-11
9.95587e-12
3.82974e-11
1.78409e-11
4.38197e-11
2.66811e-11
5.06111e-11
3.66409e-11
5.82674e-11
4.81256e-11
6.61018e-11
6.18601e-11
7.33233e-11
7.88673e-11
7.95022e-11
1.00232e-10
8.5377e-11
1.26416e-10
9.38995e-11
1.56444e-10
1.10819e-10
1.86983e-10
1.4418e-10
2.1211e-10
2.02065e-10
2.24152e-10
2.89231e-10
2.15674e-10
4.03982e-10
1.81068e-10
5.38642e-10
1.17661e-10
6.81385e-10
2.58513e-11
8.19423e-10
-9.14196e-11
9.41531e-10
-2.29414e-10
1.03918e-09
1.10637e-09
-3.82177e-10
-8.67227e-13
8.89528e-12
-2.15461e-12
1.73451e-11
-3.08396e-12
1.84789e-11
-3.54908e-12
1.75872e-11
-3.73638e-12
1.70614e-11
-3.86791e-12
1.74846e-11
-4.09453e-12
1.86411e-11
-4.4854e-12
2.01256e-11
-5.05471e-12
2.16299e-11
-5.79141e-12
2.30088e-11
-6.67754e-12
2.42355e-11
-7.69596e-12
2.53361e-11
-8.83107e-12
2.63427e-11
-1.00669e-11
2.7272e-11
-1.13844e-11
2.81211e-11
-1.27579e-11
2.88714e-11
-1.41518e-11
2.94946e-11
-1.55185e-11
2.99582e-11
-1.6796e-11
3.02284e-11
-1.7906e-11
3.02735e-11
-1.87532e-11
3.0071e-11
-1.92208e-11
2.96096e-11
-1.91714e-11
2.8899e-11
-1.8453e-11
2.79796e-11
-1.69025e-11
2.69307e-11
-1.43392e-11
2.58736e-11
-1.05928e-11
2.49985e-11
-5.50456e-12
2.45453e-11
1.04958e-12
2.48002e-11
9.17318e-12
2.60486e-11
1.89519e-11
2.85191e-11
3.0479e-11
3.22929e-11
4.38863e-11
3.72047e-11
5.94057e-11
4.27493e-11
7.74311e-11
4.80769e-11
9.85721e-11
5.21818e-11
1.23651e-10
5.4423e-11
1.53492e-10
5.55365e-11
1.88397e-10
5.89942e-11
2.27192e-10
7.20234e-11
2.66229e-10
1.05142e-10
2.98997e-10
1.69296e-10
3.16868e-10
2.7136e-10
3.11691e-10
4.09159e-10
2.77041e-10
5.73291e-10
2.09474e-10
7.48952e-10
1.08806e-10
9.20092e-10
-2.22914e-11
1.07263e-09
-1.78959e-10
1.19584e-09
1.28207e-09
-3.54653e-10
-9.14838e-13
9.80935e-12
-2.23547e-12
1.86648e-11
-3.13459e-12
1.93773e-11
-3.50636e-12
1.79584e-11
-3.56209e-12
1.71164e-11
-3.54842e-12
1.74701e-11
-3.6346e-12
1.87269e-11
-3.90059e-12
2.03916e-11
-4.36674e-12
2.20959e-11
-5.02514e-12
2.36665e-11
-5.86034e-12
2.50694e-11
-6.85722e-12
2.6332e-11
-8.00264e-12
2.74881e-11
-9.28326e-12
2.85533e-11
-1.06818e-11
2.95202e-11
-1.21731e-11
3.03628e-11
-1.37207e-11
3.10425e-11
-1.52742e-11
3.15127e-11
-1.67672e-11
3.17224e-11
-1.81143e-11
3.16205e-11
-1.92031e-11
3.11587e-11
-1.98946e-11
3.03003e-11
-2.00204e-11
2.90248e-11
-1.93789e-11
2.73384e-11
-1.77358e-11
2.52871e-11
-1.48393e-11
2.29762e-11
-1.04126e-11
2.05716e-11
-4.1638e-12
1.82975e-11
4.20771e-12
1.64297e-11
1.50146e-11
1.52422e-11
2.85944e-11
1.49398e-11
4.53145e-11
1.55742e-11
6.5559e-11
1.69618e-11
8.96745e-11
1.86342e-11
1.17876e-10
1.98748e-11
1.50167e-10
1.98914e-11
1.86322e-10
1.82682e-11
2.25896e-10
1.59624e-11
2.68073e-10
1.68165e-11
3.11158e-10
2.89379e-11
3.51803e-10
6.44982e-11
3.84422e-10
1.36677e-10
4.01188e-10
2.54593e-10
3.95341e-10
4.15007e-10
3.60454e-10
6.08179e-10
2.91794e-10
8.17609e-10
1.87209e-10
1.02468e-09
4.75552e-11
1.21228e-09
-1.23442e-10
1.36684e-09
1.47799e-09
-3.19372e-10
-9.59741e-13
1.07684e-11
-2.30693e-12
2.00119e-11
-3.16621e-12
2.02367e-11
-3.435e-12
1.8227e-11
-3.34631e-12
1.70271e-11
-3.17245e-12
1.72958e-11
-3.10155e-12
1.8656e-11
-3.22647e-12
2.05167e-11
-3.57494e-12
2.24441e-11
-4.14379e-12
2.42345e-11
-4.92075e-12
2.58457e-11
-5.89454e-12
2.73057e-11
-7.05613e-12
2.86502e-11
-8.39617e-12
2.98936e-11
-9.90033e-12
3.10243e-11
-1.15457e-11
3.20084e-11
-1.3298e-11
3.27957e-11
-1.5108e-11
3.33238e-11
-1.69077e-11
3.35223e-11
-1.86037e-11
3.33157e-11
-2.00726e-11
3.26268e-11
-2.11547e-11
3.13821e-11
-2.1648e-11
2.9518e-11
-2.12969e-11
2.69866e-11
-1.97915e-11
2.37807e-11
-1.67696e-11
1.99541e-11
-1.18038e-11
1.56066e-11
-4.40678e-12
1.0901e-11
5.99761e-12
6.02539e-12
2.00841e-11
1.15607e-12
3.86479e-11
-3.62285e-12
6.25715e-11
-8.34807e-12
9.27093e-11
-1.31755e-11
1.29581e-10
-1.82377e-11
1.72923e-10
-2.34664e-11
2.21251e-10
-2.84349e-11
2.71779e-10
-3.22606e-11
3.20937e-10
-3.31953e-11
3.65121e-10
-2.73672e-11
4.01625e-10
-7.56506e-12
4.2884e-10
3.72838e-11
4.45428e-10
1.2009e-10
4.4783e-10
2.5219e-10
4.35052e-10
4.27783e-10
4.0188e-10
6.41351e-10
3.40704e-10
8.78787e-10
2.44363e-10
1.12102e-09
1.08945e-10
1.3477e-09
-6.50322e-11
1.54081e-09
1.68543e-09
-2.72466e-10
-1.0006e-12
1.17688e-11
-2.36584e-12
2.13782e-11
-3.17599e-12
2.10476e-11
-3.32865e-12
1.83798e-11
-3.07981e-12
1.67782e-11
-2.72687e-12
1.6943e-11
-2.47926e-12
1.84087e-11
-2.44314e-12
2.04806e-11
-2.65516e-12
2.26557e-11
-3.11821e-12
2.46971e-11
-3.82535e-12
2.65529e-11
-4.77075e-12
2.82517e-11
-5.95088e-12
2.98306e-11
-7.36127e-12
3.13038e-11
-8.99258e-12
3.26554e-11
-1.08272e-11
3.38436e-11
-1.2836e-11
3.48055e-11
-1.49747e-11
3.54629e-11
-1.71775e-11
3.57246e-11
-1.93506e-11
3.54884e-11
-2.13647e-11
3.46409e-11
-2.30433e-11
3.30607e-11
-2.41496e-11
3.06234e-11
-2.43811e-11
2.7217e-11
-2.33534e-11
2.27528e-11
-2.05394e-11
1.71409e-11
-1.53328e-11
1.04004e-11
-6.96427e-12
2.53213e-12
5.54312e-12
-6.48214e-12
2.34105e-11
-1.67108e-11