/*--------------------------------*- C++ -*----------------------------------*\
| =========                 |                                                 |
| \\      /  F ield         | OpenFOAM: The Open Source CFD Toolbox           |
|  \\    /   O peration     | Version:  2.4.0                                 |
|   \\  /    A nd           | Web:      www.OpenFOAM.org                      |
|    \\/     M anipulation  |                                                 |
\*---------------------------------------------------------------------------*/
FoamFile
{
    version     2.0;
    format      ascii;
    class       volVectorField;
    location    "0.138";
    object      U;
}
// * * * * * * * * * * * * * * * * * * * * * * * * * * * * * * * * * * * * * //

dimensions      [0 1 -1 0 0 0 0];

internalField   nonuniform List<vector> 
3600
(
(-0.00229757 -1.9423e-05 0)
(-0.000691806 -0.000215467 0)
(0.00886589 -0.000312195 0)
(0.017853 -0.000249863 0)
(0.0258657 -0.000275795 0)
(0.0339863 -0.000219621 0)
(0.0403062 -9.90547e-05 0)
(0.042491 0.00018077 0)
(0.0423205 0.000537449 0)
(0.0310551 0.000952693 0)
(0.0273123 0.000890306 0)
(0.00881346 0.00114202 0)
(0.00514977 0.00114632 0)
(-0.00797904 0.00119692 0)
(-0.0223045 0.000964004 0)
(-0.0223299 4.0321e-05 0)
(-0.0320799 -0.00111833 0)
(-0.0254858 -0.00268185 0)
(-0.0256115 -0.000814675 0)
(-0.0275451 0.00127415 0)
(-0.0402152 0.0016799 0)
(-0.0435179 0.000727617 0)
(-0.0471204 0.00237991 0)
(-0.0542256 0.00235373 0)
(-0.0546778 0.00276266 0)
(-0.060488 0.00165368 0)
(-0.0538846 -0.00906546 0)
(-0.0273079 -0.0224225 0)
(-0.0116544 -0.0123345 0)
(-0.000480111 -0.00276493 0)
(-0.00557449 0.000243882 0)
(-0.00718012 -0.000648474 0)
(0.00396157 -0.00124909 0)
(0.0156406 -0.00120412 0)
(0.0269379 -0.00142069 0)
(0.0392263 -0.00138097 0)
(0.0498763 -0.00104861 0)
(0.0558314 -0.000330298 0)
(0.0609247 0.0011044 0)
(0.0490803 0.00211295 0)
(0.0543855 0.00261391 0)
(0.0280873 0.00371685 0)
(0.0327689 0.00257949 0)
(0.0191918 0.00569563 0)
(-0.00511301 0.00346818 0)
(0.00257403 0.00257514 0)
(-0.0205859 0.00315999 0)
(-0.0313115 -0.000913354 0)
(-0.0461498 0.00296009 0)
(-0.0546125 0.00485882 0)
(-0.0684334 0.00542825 0)
(-0.0848913 0.00595849 0)
(-0.0885192 0.00525185 0)
(-0.0837566 0.00258878 0)
(-0.0734928 0.00381421 0)
(-0.0498472 -0.0054206 0)
(-0.0261117 -0.0195409 0)
(-0.0147595 -0.0287998 0)
(-0.019155 -0.0128486 0)
(-0.00678333 -0.0101391 0)
(-0.00663485 0.000801474 0)
(-0.00947474 -0.000983619 0)
(0.00154943 -0.00217245 0)
(0.0133183 -0.0021981 0)
(0.0249122 -0.00264255 0)
(0.037753 -0.00267895 0)
(0.0490918 -0.00217961 0)
(0.0558854 -0.00113363 0)
(0.0623195 0.00147963 0)
(0.0506125 0.00274837 0)
(0.0598515 0.00404985 0)
(0.0300662 0.00591195 0)
(0.0429126 0.00267825 0)
(0.0296832 0.0102687 0)
(0.00731564 0.00546752 0)
(0.0178063 0.00478299 0)
(-0.00317962 0.0103181 0)
(-0.0208503 0.00678424 0)
(-0.042381 0.00919505 0)
(-0.0636858 0.0110962 0)
(-0.0878163 0.0161666 0)
(-0.111378 0.0134627 0)
(-0.113344 0.00273124 0)
(-0.101716 -0.00784688 0)
(-0.0839709 -0.0202029 0)
(-0.0573537 -0.0402594 0)
(-0.0461701 -0.0376855 0)
(-0.0370086 -0.0276384 0)
(-0.0251183 -0.0220527 0)
(-0.0070192 -0.0334026 0)
(-0.00696142 0.00136933 0)
(-0.0101236 -0.00131411 0)
(0.000937825 -0.00310681 0)
(0.0127029 -0.00320646 0)
(0.0243292 -0.00388108 0)
(0.0372794 -0.00400338 0)
(0.0487621 -0.00334584 0)
(0.0558154 -0.00198245 0)
(0.0624716 0.00185447 0)
(0.0504043 0.0032251 0)
(0.0616076 0.00577373 0)
(0.0260797 0.00758886 0)
(0.0511474 0.0021366 0)
(0.0290784 0.0144155 0)
(0.0184541 0.00700905 0)
(0.0255906 0.00581277 0)
(0.0099618 0.0170549 0)
(-0.0122998 0.0151426 0)
(-0.0385029 0.0199909 0)
(-0.0626776 0.022747 0)
(-0.0851007 0.0280073 0)
(-0.110292 0.0208465 0)
(-0.104969 -0.000379819 0)
(-0.0961826 -0.0203461 0)
(-0.0804414 -0.0350358 0)
(-0.0639353 -0.0494563 0)
(-0.0548601 -0.0463946 0)
(-0.0324493 -0.0486883 0)
(-0.0174938 -0.0501047 0)
(-0.00381471 -0.0498052 0)
(-0.00712222 0.00195878 0)
(-0.0104138 -0.00164097 0)
(0.000756384 -0.00404508 0)
(0.012565 -0.00421703 0)
(0.0242022 -0.00512177 0)
(0.0372433 -0.00533785 0)
(0.0488484 -0.00453209 0)
(0.0561735 -0.00286019 0)
(0.0628905 0.00226616 0)
(0.0505602 0.00357856 0)
(0.0628212 0.00801541 0)
(0.0212586 0.00838687 0)
(0.0588096 0.00188929 0)
(0.0182075 0.0180274 0)
(0.0316041 0.00705352 0)
(0.0299297 0.00632034 0)
(0.0193771 0.0229911 0)
(-0.00270941 0.0239145 0)
(-0.0173289 0.0300561 0)
(-0.0455361 0.0299215 0)
(-0.0635531 0.036828 0)
(-0.0788322 0.0249963 0)
(-0.0681135 -0.00365002 0)
(-0.0631114 -0.0256977 0)
(-0.0542809 -0.0468933 0)
(-0.0355118 -0.0633711 0)
(-0.0242778 -0.0654745 0)
(-0.0128388 -0.0666779 0)
(-0.00682911 -0.0648329 0)
(-0.00288554 -0.0623307 0)
(-0.00726855 0.00256068 0)
(-0.0106779 -0.00196976 0)
(0.000627797 -0.00499124 0)
(0.0124993 -0.00523133 0)
(0.0241345 -0.00636541 0)
(0.0372763 -0.00668548 0)
(0.0490227 -0.00574684 0)
(0.0567015 -0.00376823 0)
(0.0633999 0.00269261 0)
(0.0512553 0.0038933 0)
(0.0633035 0.0106477 0)
(0.0190775 0.00850739 0)
(0.0624404 0.00334588 0)
(0.000233897 0.0209223 0)
(0.0449529 0.00412228 0)
(0.0270548 0.00842656 0)
(0.0203152 0.0290171 0)
(0.00303929 0.0277596 0)
(0.00701148 0.0381834 0)
(-0.0118049 0.0399166 0)
(-0.0317295 0.0428765 0)
(-0.0297832 0.0271941 0)
(-0.0220374 -0.0043674 0)
(-0.0204428 -0.0250727 0)
(-0.0251352 -0.0487002 0)
(-0.0213933 -0.0719935 0)
(-0.0175414 -0.0715312 0)
(-0.0101835 -0.0650182 0)
(-0.00707096 -0.0626969 0)
(-0.0012394 -0.0598915 0)
(-0.00743607 0.0031773 0)
(-0.0109842 -0.00230033 0)
(0.000483342 -0.00594644 0)
(0.0124318 -0.0062491 0)
(0.0240588 -0.00761066 0)
(0.0373167 -0.00804804 0)
(0.0492296 -0.0069978 0)
(0.057356 -0.00470761 0)
(0.0639431 0.0031022 0)
(0.0525385 0.00424445 0)
(0.0629004 0.0133847 0)
(0.020605 0.00844146 0)
(0.0630229 0.00709257 0)
(-0.0168207 0.0217985 0)
(0.0518379 0.00115167 0)
(0.00991965 0.0121346 0)
(0.0212307 0.0329698 0)
(0.00654251 0.0290313 0)
(0.0261743 0.037846 0)
(0.0210507 0.0471102 0)
(0.00539461 0.0456751 0)
(0.012808 0.0245948 0)
(0.0107387 -0.00741451 0)
(0.00721231 -0.0258861 0)
(-0.00433879 -0.0489023 0)
(-0.00548043 -0.0740402 0)
(-0.0103158 -0.0771334 0)
(-0.00856549 -0.0715059 0)
(-0.00791764 -0.0714056 0)
(-0.00312032 -0.0695576 0)
(-0.00763302 0.00381149 0)
(-0.0113462 -0.00263281 0)
(0.0003129 -0.0069124 0)
(0.0123531 -0.00727089 0)
(0.023967 -0.00885747 0)
(0.0373571 -0.00942805 0)
(0.0494656 -0.00829369 0)
(0.0581295 -0.00567922 0)
(0.0645511 0.00345617 0)
(0.0543494 0.00474921 0)
(0.0611837 0.0160096 0)
(0.0266786 0.00807564 0)
(0.0625264 0.0122492 0)
(-0.0195318 0.0221929 0)
(0.0471649 -0.000878378 0)
(-0.00778754 0.0155627 0)
(0.0274918 0.0331747 0)
(0.0133448 0.0265987 0)
(0.0259765 0.0316013 0)
(0.0403852 0.0511295 0)
(0.0429543 0.0450116 0)
(0.0453395 0.0263587 0)
(0.0438639 -0.00207589 0)
(0.036263 -0.0191 0)
(0.0279056 -0.0388077 0)
(0.0284113 -0.0642639 0)
(0.0139334 -0.0711309 0)
(0.00558589 -0.0669518 0)
(-0.00131404 -0.0703305 0)
(-0.00167793 -0.0743477 0)
(-0.00786166 0.0044663 0)
(-0.0117668 -0.00296748 0)
(0.000115081 -0.00789098 0)
(0.0122626 -0.00829699 0)
(0.0238583 -0.0101058 0)
(0.0373946 -0.0108281 0)
(0.0497311 -0.0096417 0)
(0.059008 -0.0066907 0)
(0.0653457 0.00372962 0)
(0.0561794 0.00559672 0)
(0.058476 0.0179501 0)
(0.0360223 0.00813537 0)
(0.0552445 0.0176309 0)
(-0.0047374 0.0232956 0)
(0.0357202 0.00044804 0)
(-0.011899 0.0162757 0)
(0.023873 0.0280062 0)
(0.0150937 0.0275985 0)
(0.00823692 0.026423 0)
(0.0398375 0.0428427 0)
(0.064209 0.0415455 0)
(0.0725618 0.0283225 0)
(0.0766145 0.00457035 0)
(0.0667285 -0.0159945 0)
(0.0548664 -0.0335207 0)
(0.052938 -0.0552614 0)
(0.0316289 -0.0582115 0)
(0.0195518 -0.0529829 0)
(0.00980852 -0.0606291 0)
(0.00191437 -0.0702678 0)
(-0.00812306 0.00514485 0)
(-0.0122481 -0.00330465 0)
(-0.000110387 -0.00888418 0)
(0.0121608 -0.00932754 0)
(0.0237315 -0.0113549 0)
(0.0374264 -0.0122514 0)
(0.0500244 -0.0110479 0)
(0.0599911 -0.0077628 0)
(0.0664146 0.00397359 0)
(0.0574392 0.00672287 0)
(0.0572622 0.0190852 0)
(0.0416303 0.00944789 0)
(0.0427026 0.0217048 0)
(0.0134766 0.025609 0)
(0.0263498 0.00252287 0)
(-0.00300158 0.0174883 0)
(0.00541153 0.0243935 0)
(0.0147094 0.0307448 0)
(0.00801601 0.0235019 0)
(0.0244269 0.0237626 0)
(0.0561011 0.0241552 0)
(0.0772306 0.0201292 0)
(0.0903536 0.00606009 0)
(0.0852836 -0.00898664 0)
(0.0705789 -0.0249796 0)
(0.067899 -0.0426974 0)
(0.0323461 -0.0461107 0)
(0.0155733 -0.0454855 0)
(0.0101051 -0.0512875 0)
(0.00188802 -0.0586435 0)
(-0.00841813 0.00585038 0)
(-0.0127915 -0.00364473 0)
(-0.000363648 -0.00989407 0)
(0.0120483 -0.0103627 0)
(0.023586 -0.0126037 0)
(0.0374493 -0.0137026 0)
(0.0503414 -0.0125198 0)
(0.0611032 -0.00891108 0)
(0.0676553 0.00424426 0)
(0.0585444 0.0079368 0)
(0.0578694 0.0199801 0)
(0.0422429 0.011927 0)
(0.0347457 0.0238063 0)
(0.027625 0.0271674 0)
(0.0222473 0.00616003 0)
(0.00270285 0.0214906 0)
(0.000831653 0.0232498 0)
(0.0153041 0.0273921 0)
(0.0221172 0.0217751 0)
(0.0194555 0.0182565 0)
(0.0368344 0.00901866 0)
(0.0614636 0.00994082 0)
(0.0862029 0.00250783 0)
(0.0826541 -0.000683904 0)
(0.0649622 -0.0179148 0)
(0.0663844 -0.025818 0)
(0.0395631 -0.0182953 0)
(0.0228458 -0.029543 0)
(0.00854089 -0.0432313 0)
(-0.000170778 -0.0487402 0)
(-0.00874784 0.00658622 0)
(-0.0133991 -0.00398836 0)
(-0.000644816 -0.0109228 0)
(0.0119262 -0.0114025 0)
(0.0234205 -0.0138507 0)
(0.0374591 -0.0151859 0)
(0.0506798 -0.0140667 0)
(0.062353 -0.0101407 0)
(0.0690107 0.00453621 0)
(0.0600463 0.00915565 0)
(0.0585389 0.0212871 0)
(0.040972 0.0142483 0)
(0.0386143 0.0247895 0)
(0.0297178 0.0291974 0)
(0.0216666 0.00924392 0)
(0.0113474 0.0230399 0)
(0.00903723 0.0205595 0)
(0.0150001 0.0215925 0)
(0.0317432 0.0227423 0)
(0.0351896 0.0169995 0)
(0.0394903 -0.00213329 0)
(0.0502027 -0.00944843 0)
(0.0713912 -0.00696176 0)
(0.0665418 0.00444879 0)
(0.0591663 -0.0133444 0)
(0.0421365 -0.0189483 0)
(0.0311854 -0.00162261 0)
(0.0360437 -0.0126402 0)
(0.00806175 -0.0291204 0)
(-0.000855268 -0.0405619 0)
(-0.00911327 0.00735581 0)
(-0.014073 -0.00433557 0)
(-0.000954027 -0.0119726 0)
(0.0117954 -0.0124469 0)
(0.0232335 -0.0150948 0)
(0.0374513 -0.0167044 0)
(0.0510386 -0.0156972 0)
(0.0637311 -0.0114603 0)
(0.0705779 0.0048025 0)
(0.0618929 0.0105848 0)
(0.05762 0.0227242 0)
(0.0430926 0.0160749 0)
(0.0430657 0.0261586 0)
(0.0266382 0.0314874 0)
(0.022424 0.0108484 0)
(0.00799997 0.0238886 0)
(0.0255918 0.0235901 0)
(0.0152946 0.0157604 0)
(0.0320517 0.0166499 0)
(0.041787 0.0160392 0)
(0.0411699 0.000904652 0)
(0.0436778 -0.0086276 0)
(0.0488277 -0.000486724 0)
(0.0420427 0.00880067 0)
(0.0523301 -0.00380811 0)
(0.0445749 -0.00593711 0)
(0.042553 -0.0162481 0)
(0.0292577 -0.00412088 0)
(-0.00446424 0.00370599 0)
(0.00547696 -0.0395572 0)
(-0.00951558 0.00816267 0)
(-0.0148154 -0.0046872 0)
(-0.00129139 -0.0130459 0)
(0.0116571 -0.0134958 0)
(0.0230235 -0.0163362 0)
(0.0374208 -0.0182605 0)
(0.0514141 -0.0174195 0)
(0.0652428 -0.0128953 0)
(0.0724927 0.00507385 0)
(0.0633824 0.0122524 0)
(0.0568374 0.024149 0)
(0.0462275 0.0170556 0)
(0.0457661 0.0290684 0)
(0.0193089 0.035721 0)
(0.0228836 0.0159942 0)
(-0.00172427 0.0200656 0)
(0.0398873 0.0189282 0)
(0.0185485 0.0190834 0)
(0.0243717 0.011926 0)
(0.0408181 0.0122971 0)
(0.0438545 -0.00461672 0)
(0.044097 -0.0147318 0)
(0.0427295 -0.00325772 0)
(0.0533028 -8.80821e-05 0)
(0.0456814 -0.0156 0)
(0.0256031 -0.00566923 0)
(0.00448026 0.0253293 0)
(-0.0186089 0.0305054 0)
(-0.0101506 -0.0114732 0)
(-0.00106163 -0.0500527 0)
(-0.00995611 0.00901049 0)
(-0.0156291 -0.00504349 0)
(-0.00165697 -0.0141454 0)
(0.0115125 -0.0145487 0)
(0.0227885 -0.0175746 0)
(0.0373623 -0.0198551 0)
(0.0517989 -0.0192459 0)
(0.0669347 -0.0144675 0)
(0.074655 0.00537732 0)
(0.0646169 0.0141864 0)
(0.0568584 0.0252619 0)
(0.050332 0.018055 0)
(0.0428862 0.0324307 0)
(0.0131576 0.0334936 0)
(0.0197462 0.0151744 0)
(0.0030987 0.0174948 0)
(0.0333519 0.0204774 0)
(0.0257754 0.0182381 0)
(0.0187681 0.00913978 0)
(0.0243149 0.00652797 0)
(0.0114184 -0.00204557 0)
(0.00849843 -0.00923442 0)
(0.0115108 -0.00217409 0)
(0.0170917 0.00871408 0)
(-0.00615637 0.0167728 0)
(-0.0267543 0.0196768 0)
(-0.0228004 0.0208777 0)
(-0.0176772 0.0143453 0)
(0.00137857 -0.0242601 0)
(-0.00238359 -0.049556 0)
(-0.0104362 0.0099031 0)
(-0.016517 -0.00540491 0)
(-0.00205089 -0.0152737 0)
(0.0113632 -0.0156054 0)
(0.022527 -0.0188108 0)
(0.0372691 -0.0214882 0)
(0.0521868 -0.0211925 0)
(0.0688415 -0.016186 0)
(0.0769094 0.00578643 0)
(0.0659777 0.0161393 0)
(0.0592459 0.0262879 0)
(0.0498392 0.0190755 0)
(0.0356892 0.0408215 0)
(0.00989503 0.0461311 0)
(0.0151116 0.0196381 0)
(0.00798773 0.0117655 0)
(0.0448738 0.0134736 0)
(0.022485 0.0232793 0)
(0.0119985 0.0138584 0)
(0.0128182 0.0160036 0)
(0.0158367 0.00189189 0)
(0.0176482 -0.0128036 0)
(0.0114806 -0.00601289 0)
(0.0252595 0.00990345 0)
(0.0206598 0.0185371 0)
(0.0150824 0.0206569 0)
(0.0198166 0.0178404 0)
(0.0156248 0.00746845 0)
(0.0189522 -0.0204791 0)
(0.00503482 -0.0355346 0)
(-0.0109575 0.0108443 0)
(-0.0174822 -0.00577301 0)
(-0.00247315 -0.0164337 0)
(0.0112104 -0.0166654 0)
(0.0222369 -0.0200444 0)
(0.0371338 -0.0231598 0)
(0.052577 -0.0232773 0)
(0.0709542 -0.0180343 0)
(0.0791669 0.00619973 0)
(0.06881 0.0181288 0)
(0.0599605 0.0277505 0)
(0.047802 0.0221233 0)
(0.0381829 0.0378431 0)
(0.0397531 0.0316224 0)
(0.0161685 0.0183816 0)
(0.00511901 0.00906827 0)
(0.00981171 0.0185524 0)
(0.00321556 0.02822 0)
(0.0151755 0.0108931 0)
(0.0179077 0.0032366 0)
(0.03763 -0.00478523 0)
(0.0240383 -0.00994683 0)
(0.00542496 -0.00795896 0)
(0.0210032 0.00372133 0)
(0.0282852 0.0158383 0)
(0.0403829 0.0175316 0)
(0.0520645 0.0180193 0)
(0.0463233 0.0163943 0)
(0.0410197 -0.000880844 0)
(0.0193911 -0.00449108 0)
(-0.0115217 0.0118389 0)
(-0.0185283 -0.00614847 0)
(-0.00292372 -0.0176283 0)
(0.0110557 -0.017728 0)
(0.0219164 -0.0212737 0)
(0.0369474 -0.0248688 0)
(0.0529717 -0.0255151 0)
(0.07318 -0.0200352 0)
(0.0819672 0.00646377 0)
(0.0720085 0.0207175 0)
(0.0562236 0.0295006 0)
(0.0506156 0.0209519 0)
(0.0484492 0.0522947 0)
(-0.0135619 0.0576634 0)
(-0.011996 0.023898 0)
(-0.0116414 0.00939117 0)
(0.0143013 0.0171591 0)
(0.0180238 0.0226456 0)
(0.0418323 0.0101878 0)
(0.0162605 0.00764556 0)
(0.0298229 0.00149202 0)
(-0.0120868 0.00692042 0)
(-0.0334588 -0.00337388 0)
(-0.0230002 -0.000419633 0)
(-0.00293238 0.00185955 0)
(0.0176949 0.00269027 0)
(0.0327049 0.0128704 0)
(0.0326404 0.0114988 0)
(0.0264742 0.0127382 0)
(0.0128948 0.0269872 0)
(-0.0121305 0.0128886 0)
(-0.0196592 -0.00652924 0)
(-0.00340248 -0.0188611 0)
(0.0109012 -0.0187926 0)
(0.0215636 -0.0224987 0)
(0.0366986 -0.0266134 0)
(0.0533711 -0.0279251 0)
(0.07539 -0.0222792 0)
(0.0852608 0.00657552 0)
(0.0729973 0.0239172 0)
(0.0515185 0.0314693 0)
(0.0587169 0.019647 0)
(0.0636507 0.0464137 0)
(0.0599967 0.0416498 0)
(0.0012007 0.0231587 0)
(-0.0114197 0.00128994 0)
(0.0365827 0.00637854 0)
(0.0334783 0.0181641 0)
(-0.00871213 0.0112837 0)
(0.0110896 0.00448016 0)
(0.013832 0.0129287 0)
(0.00963946 0.0213816 0)
(-0.0458193 -0.00529044 0)
(-0.0650446 -0.0157668 0)
(-0.0419395 -0.0224327 0)
(-0.0273941 -0.0144892 0)
(-0.00616178 0.0106225 0)
(-0.0134048 0.0171684 0)
(-0.0047057 0.0267744 0)
(-0.000898438 0.0404724 0)
(-0.012786 0.0140087 0)
(-0.020879 -0.00687069 0)
(-0.00390944 -0.0201362 0)
(0.0107486 -0.0198582 0)
(0.0211769 -0.0237175 0)
(0.0363633 -0.0283933 0)
(0.053814 -0.0305185 0)
(0.076565 -0.0249324 0)
(0.0867038 0.00763598 0)
(0.0703664 0.0276233 0)
(0.0501588 0.0304503 0)
(0.0622746 0.0200456 0)
(0.0336073 0.0628747 0)
(0.00548173 0.0696783 0)
(-0.0186531 0.0396485 0)
(-0.0242822 -0.0033106 0)
(0.0220326 0.00789795 0)
(-0.0170363 0.0341485 0)
(-0.000172076 0.0215681 0)
(-0.0350901 0.00134545 0)
(0.0291996 -0.00205746 0)
(0.0511024 0.0459735 0)
(-0.00638485 0.0388374 0)
(-0.0383001 0.000555375 0)
(-0.0509361 -0.0354498 0)
(-0.0517841 -0.025448 0)
(-0.038762 0.00990605 0)
(-0.0375465 0.00756745 0)
(-0.0220965 0.00946161 0)
(-0.00793026 0.023237 0)
(-0.0134968 0.0151654 0)
(-0.022193 -0.00750461 0)
(-0.00444435 -0.0214521 0)
(0.0106 -0.0209237 0)
(0.0207529 -0.0249262 0)
(0.0358831 -0.0302137 0)
(0.0541743 -0.0331864 0)
(0.0727356 -0.0277348 0)
(0.0805335 0.00682571 0)
(0.0629153 0.0326459 0)
(0.0279332 0.0309219 0)
(0.0605203 0.0175445 0)
(0.035589 0.0599643 0)
(-0.0384786 0.0648865 0)
(-0.0497899 0.0300555 0)
(-0.0325123 -0.0158632 0)
(0.0374388 0.00421541 0)
(-0.0310144 0.0318147 0)
(-0.0210654 0.013149 0)
(-0.0242564 -0.0153424 0)
(0.00787615 -0.0306609 0)
(0.0240689 0.0362559 0)
(0.0362477 0.0508252 0)
(0.0180318 0.0214644 0)
(-0.0125289 -0.00920127 0)
(-0.0319294 -0.0219869 0)
(-0.0426865 -0.00333285 0)
(-0.0266894 -0.00224628 0)
(-0.0221896 -0.0102405 0)
(-0.00867367 -0.00465609 0)
(-0.0141559 0.0164797 0)
(-0.0236038 -0.0073314 0)
(-0.00499725 -0.0228315 0)
(0.0104573 -0.0219879 0)
(0.0202763 -0.0261167 0)
(0.0351098 -0.0320585 0)
(0.0525942 -0.0354435 0)
(0.0557499 -0.0293767 0)
(0.0586182 0.0110591 0)
(0.036922 0.036564 0)
(0.0690053 0.0352873 0)
(-0.00726516 0.0180152 0)
(0.0678546 0.0803212 0)
(-0.0512149 0.0773109 0)
(-0.032918 0.0329042 0)
(-0.00465407 -0.0289811 0)
(-0.0303863 0.013316 0)
(0.0263768 0.045971 0)
(-0.00921357 0.0221347 0)
(0.038681 -0.0102247 0)
(-0.0279635 -0.0155487 0)
(-0.00154747 0.0312693 0)
(0.0359335 0.0451497 0)
(0.0178973 0.0387757 0)
(0.00254307 0.00105561 0)
(-0.0043579 -0.00736288 0)
(-0.0198977 -0.00139138 0)
(-0.00970128 -0.00791575 0)
(-0.00639426 -0.0148108 0)
(-0.00462794 -0.0168217 0)
(-0.0156525 0.0176366 0)
(-0.0251198 -0.00890255 0)
(-0.00561257 -0.0242313 0)
(0.010321 -0.0230495 0)
(0.0196698 -0.0272687 0)
(0.0334557 -0.0337102 0)
(0.041787 -0.0359972 0)
(0.0233708 -0.027672 0)
(0.0191634 0.00657678 0)
(0.0610632 0.0299166 0)
(-0.0564374 0.0347784 0)
(-0.178192 0.0125724 0)
(0.0509371 0.079012 0)
(-0.0190267 0.0931838 0)
(-0.0082197 0.0269146 0)
(-0.054928 -0.0155945 0)
(-0.0756327 -0.0101329 0)
(0.0885225 0.0346709 0)
(-0.0159673 0.0116445 0)
(0.0414198 -0.00582 0)
(-0.00697984 -0.0154156 0)
(-0.0107337 0.00531043 0)
(0.00450442 0.0325119 0)
(0.0159182 0.0461334 0)
(-0.000447215 0.00645255 0)
(-0.00421017 0.000679127 0)
(-0.00557653 -0.000609005 0)
(0.0044398 -0.0115235 0)
(0.00577645 -0.0134975 0)
(-0.000117942 -0.0129684 0)
(-0.0131062 0.0194633 0)
(-0.0267583 -0.00733403 0)
(-0.00617285 -0.025752 0)
(0.0101721 -0.0240986 0)
(0.0185974 -0.0283111 0)
(0.0283899 -0.0342934 0)
(0.00781401 -0.0331879 0)
(-0.00615754 -0.028373 0)
(-0.0167939 0.0057588 0)
(-0.104448 0.0524217 0)
(-0.045548 0.0639352 0)
(-0.0991711 0.0048098 0)
(-0.0682867 0.0497284 0)
(0.0626701 0.0995567 0)
(-0.00542029 0.0395384 0)
(-0.0620215 -0.0131501 0)
(-0.0750941 -0.0355526 0)
(0.047181 0.0307503 0)
(-0.0361983 0.0261842 0)
(0.0628893 -0.0134007 0)
(0.00238223 0.0114955 0)
(-0.0340868 0.0153541 0)
(-0.0395277 0.0277 0)
(-0.0024881 0.0465259 0)
(-0.0302557 0.0126058 0)
(-0.017911 -0.00102022 0)
(-0.00265756 -0.0113431 0)
(0.00430605 -0.0183683 0)
(0.0051698 -0.00982941 0)
(-0.00132013 -0.00411846 0)
(-0.0267855 0.0200154 0)
(-0.0282713 -0.0109708 0)
(-0.0070002 -0.0272169 0)
(0.00988911 -0.0250987 0)
(0.015802 -0.0289734 0)
(0.0130549 -0.0324601 0)
(-0.0234792 -0.0314215 0)
(0.0583455 -0.0161857 0)
(-0.363456 0.0294661 0)
(-0.308733 0.0334568 0)
(0.0167889 0.0468349 0)
(-0.115579 0.018988 0)
(-0.14249 0.0310052 0)
(0.0317653 0.0829462 0)
(-0.0436584 0.0575968 0)
(-0.0863402 -0.00132884 0)
(-0.106119 -0.0426568 0)
(-0.029613 0.0214915 0)
(0.00978754 0.00687213 0)
(0.00230849 -0.0168179 0)
(-0.0264801 0.033357 0)
(-0.0705329 0.0300702 0)
(-0.0900146 0.0225696 0)
(-0.0240406 0.0394781 0)
(-0.0566109 0.010701 0)
(-0.0213724 -0.0181659 0)
(-0.0130924 -0.024917 0)
(-0.00994511 -0.019997 0)
(-0.00346244 -0.0078321 0)
(-0.00324707 -7.31593e-05 0)
(0.0077623 0.0234795 0)
(-0.0301559 -0.00697868 0)
(-0.00777927 -0.0289271 0)
(0.0088304 -0.0259327 0)
(0.00760062 -0.0284335 0)
(-0.0201352 -0.0295374 0)
(-0.00697384 -0.0427398 0)
(0.190143 0.00182679 0)
(-0.0323183 0.0611925 0)
(-0.280782 -0.00916189 0)
(-0.148603 0.0219941 0)
(-0.204963 0.0352742 0)
(-0.181787 0.0214512 0)
(-0.0799652 0.0708724 0)
(-0.0636698 0.0706924 0)
(-0.103131 -0.000596087 0)
(-0.118698 -0.0517032 0)
(-0.068393 -0.0102353 0)
(-0.0226766 0.00496308 0)
(-0.0846261 0.00572799 0)
(-0.0826996 0.0519911 0)
(-0.122216 0.0346691 0)
(-0.118084 0.00468307 0)
(-0.0327405 0.027679 0)
(-0.0673802 -0.0012469 0)
(-0.0164005 -0.0320114 0)
(-0.033631 -0.0268969 0)
(-0.0178478 -0.0251514 0)
(-0.0122261 -0.0157985 0)
(-0.00481439 -0.00712747 0)
(-0.0670535 0.0220609 0)
(-0.0282544 -0.0124847 0)
(-0.0104058 -0.0303576 0)
(0.00455845 -0.0262926 0)
(-0.013352 -0.0256811 0)
(-0.05458 -0.0339172 0)
(0.258944 -0.0603025 0)
(0.257643 -0.00234349 0)
(0.0716283 0.108847 0)
(-0.290585 0.0280125 0)
(-0.262627 0.0279185 0)
(-0.23936 0.0260876 0)
(-0.21535 0.0079984 0)
(-0.147893 0.0594975 0)
(-0.0750436 0.0668757 0)
(-0.101904 0.00614578 0)
(-0.1145 -0.0528712 0)
(-0.106298 -0.0162891 0)
(-0.0828249 0.00937415 0)
(-0.125485 0.0174538 0)
(-0.111735 0.061167 0)
(-0.147496 0.0352276 0)
(-0.120169 -0.0267601 0)
(-0.0196759 0.00680786 0)
(-0.0509711 -0.00930074 0)
(-0.0208353 -0.0352428 0)
(-0.0326748 -0.0339161 0)
(-0.0141125 -0.0341352 0)
(-0.0139127 -0.0266883 0)
(-0.00374156 -0.0196106 0)
(0.0353658 0.0278421 0)
(-0.0306181 -0.00857473 0)
(-0.0167227 -0.031983 0)
(-0.00986302 -0.0252886 0)
(-0.0494061 -0.0236207 0)
(0.0402668 -0.0593782 0)
(0.0258098 -0.0724622 0)
(0.521531 0.0139027 0)
(0.188751 0.162554 0)
(-0.230036 0.0376958 0)
(-0.27598 0.0188278 0)
(-0.268628 0.0181008 0)
(-0.231725 0.00322416 0)
(-0.16836 0.0356826 0)
(-0.089664 0.0590262 0)
(-0.0823328 0.0111556 0)
(-0.127621 -0.0416106 0)
(-0.15786 -0.0152502 0)
(-0.155502 0.0111485 0)
(-0.148552 0.0236342 0)
(-0.118116 0.0607348 0)
(-0.136714 0.029479 0)
(-0.103851 -0.0652746 0)
(-0.0166585 -0.0303385 0)
(-0.0159165 -0.00284066 0)
(-0.0152074 -0.0346105 0)
(-0.017664 -0.0451674 0)
(-0.00803139 -0.0379032 0)
(-0.00564989 -0.0353419 0)
(0.00107979 -0.0290033 0)
(-0.0738299 0.0249803 0)
(-0.0192742 -0.0113503 0)
(-0.0381896 -0.0315096 0)
(-0.0454185 -0.0220856 0)
(-0.0818319 -0.0301449 0)
(0.228183 -0.033954 0)
(0.443268 -0.112329 0)
(0.547991 -0.00595784 0)
(0.302038 0.208726 0)
(-0.0576154 0.106253 0)
(-0.243178 0.0265618 0)
(-0.274616 0.0175609 0)
(-0.2374 -0.0108166 0)
(-0.189021 0.0208068 0)
(-0.106857 0.0438928 0)
(-0.0932047 0.0118508 0)
(-0.141545 -0.0238401 0)
(-0.200348 -0.00428009 0)
(-0.185019 -0.00233966 0)
(-0.150581 0.0132244 0)
(-0.0959742 0.0467476 0)
(-0.107388 0.0194974 0)
(-0.0415633 -0.0871163 0)
(-0.0653777 -0.0858691 0)
(-0.008476 -0.00511499 0)
(0.00280328 -0.0264649 0)
(-0.00917767 -0.0481659 0)
(-0.00447238 -0.0403416 0)
(-0.00134848 -0.0410685 0)
(0.00278688 -0.0296422 0)
(0.0483701 0.0299417 0)
(-0.03299 -0.00846702 0)
(-0.09082 -0.0291502 0)
(-0.100283 -0.024541 0)
(0.367369 -0.0669158 0)
(0.738268 -0.105821 0)
(0.40379 -0.116834 0)
(0.471783 0.0234215 0)
(0.342833 0.242001 0)
(0.0810746 0.144187 0)
(-0.0982229 0.0548683 0)
(-0.255948 0.0249578 0)
(-0.245025 -0.0164324 0)
(-0.196351 0.00221451 0)
(-0.123729 0.0278108 0)
(-0.111017 0.0169497 0)
(-0.163343 -0.00473664 0)
(-0.19156 0.00190009 0)
(-0.180882 -0.0164295 0)
(-0.162986 -0.00210596 0)
(-0.0631642 0.0221734 0)
(-0.0426117 0.00664303 0)
(0.0524729 -0.0667185 0)
(-0.0525745 -0.0652888 0)
(-0.0478901 -0.038961 0)
(0.0169695 -0.0364901 0)
(-0.0143724 -0.036859 0)
(-0.0055326 -0.0415027 0)
(-0.0113644 -0.0443998 0)
(-0.00304462 -0.0301698 0)
(-0.00322496 -0.00311515 0)
(0.00836486 -0.0145112 0)
(0.0261072 -0.0229504 0)
(0.0523572 -0.00871497 0)
(0.0587952 0.00176439 0)
(0.0537902 0.00233892 0)
(0.054937 0.00184613 0)
(0.049047 0.00238951 0)
(0.0453251 0.000895895 0)
(0.0414741 0.00175645 0)
(0.0286369 0.00126831 0)
(0.0266511 -0.000784175 0)
(0.0265702 -0.00268938 0)
(0.0331552 -0.00113582 0)
(0.023282 9.61234e-05 0)
(0.0222943 0.00109317 0)
(0.00706047 0.00124955 0)
(-0.00568523 0.00111592 0)
(-0.00919294 0.00115699 0)
(-0.0279223 0.000875858 0)
(-0.0315252 0.000943903 0)
(-0.0422511 0.000480087 0)
(-0.0421774 0.000213369 0)
(-0.0403282 -9.61544e-05 0)
(-0.0340268 -0.000213587 0)
(-0.0259443 -0.000277977 0)
(-0.0178939 -0.00025029 0)
(-0.00888684 -0.000313514 0)
(0.000687603 -0.000215435 0)
(0.00229466 -1.93905e-05 0)
(0.00546813 -0.00816607 0)
(0.0163591 -0.0149232 0)
(0.0114833 -0.0293595 0)
(0.0238125 -0.0195211 0)
(0.0479628 -0.00580286 0)
(0.0725706 0.00213941 0)
(0.0841628 0.000991791 0)
(0.0902842 0.00455106 0)
(0.0871673 0.00627127 0)
(0.0704219 0.00594541 0)
(0.0561894 0.00484995 0)
(0.0478641 0.00292851 0)
(0.0329148 -0.000919265 0)
(0.02202 0.00319168 0)
(-0.00159841 0.00286015 0)
(0.00485485 0.00387312 0)
(-0.0202066 0.0058265 0)
(-0.0333357 0.00242878 0)
(-0.0285346 0.00380058 0)
(-0.055152 0.00257684 0)
(-0.0497335 0.00207409 0)
(-0.0608525 0.000903798 0)
(-0.0555145 -0.000231157 0)
(-0.0499203 -0.00104095 0)
(-0.0392818 -0.00136311 0)
(-0.0270309 -0.00142797 0)
(-0.0156903 -0.00120578 0)
(-0.00399379 -0.00125266 0)
(0.00716316 -0.000648725 0)
(0.00556759 0.000243392 0)
(0.0061963 -0.0315041 0)
(0.025141 -0.0229833 0)
(0.0361086 -0.0286629 0)
(0.0456833 -0.0391706 0)
(0.057018 -0.040655 0)
(0.0835489 -0.0227116 0)
(0.101797 -0.0103034 0)
(0.113983 0.00167136 0)
(0.113241 0.0135697 0)
(0.0904717 0.0166306 0)
(0.0657168 0.0111392 0)
(0.0445015 0.00917185 0)
(0.0227417 0.00687942 0)
(0.00452711 0.0105124 0)
(-0.0168438 0.00532924 0)
(-0.00763976 0.00615273 0)
(-0.0305718 0.0104957 0)
(-0.0435681 0.00239769 0)
(-0.0305255 0.00607219 0)
(-0.0606573 0.0039867 0)
(-0.0512936 0.00267864 0)
(-0.0622047 0.00112444 0)
(-0.0555587 -0.000963162 0)
(-0.0491446 -0.00216784 0)
(-0.037813 -0.00264888 0)
(-0.0250101 -0.00265536 0)
(-0.0133712 -0.00220079 0)
(-0.00158511 -0.00217804 0)
(0.00945401 -0.000984383 0)
(0.00662682 0.000800015 0)
(0.00423951 -0.0497343 0)
(0.0175994 -0.0503144 0)
(0.031537 -0.0490794 0)
(0.0525901 -0.0473524 0)
(0.0620286 -0.0498624 0)
(0.0788367 -0.0376641 0)
(0.0947275 -0.0229753 0)
(0.103561 -0.00254556 0)
(0.110693 0.0203172 0)
(0.0874403 0.0282543 0)
(0.064504 0.0228821 0)
(0.0406822 0.0200124 0)
(0.0139988 0.0153738 0)
(-0.00860285 0.0173911 0)
(-0.024877 0.00659598 0)
(-0.0186117 0.00796116 0)
(-0.0299033 0.0147457 0)
(-0.0519339 0.00173219 0)
(-0.0265525 0.00782234 0)
(-0.062433 0.00568545 0)
(-0.051115 0.00312174 0)
(-0.0623404 0.00133665 0)
(-0.0554544 -0.00173273 0)
(-0.0488265 -0.00332928 0)
(-0.0373412 -0.00396089 0)
(-0.02443 -0.00389979 0)
(-0.0127562 -0.00321007 0)
(-0.000973985 -0.00311462 0)
(0.0101023 -0.00131531 0)
(0.00695311 0.00136691 0)
(0.0037155 -0.0615364 0)
(0.00664884 -0.0633732 0)
(0.0119277 -0.0657616 0)
(0.0221461 -0.065539 0)
(0.0338981 -0.0640962 0)
(0.0521326 -0.0491474 0)
(0.0606728 -0.0278552 0)
(0.065928 -0.00645261 0)
(0.0781961 0.023363 0)
(0.0653091 0.0367079 0)
(0.0477332 0.0298403 0)
(0.0200406 0.0299617 0)
(0.00414181 0.0243246 0)
(-0.0179919 0.0235197 0)
(-0.029347 0.00732968 0)
(-0.031837 0.00819315 0)
(-0.018825 0.0185238 0)
(-0.0596524 0.00133959 0)
(-0.0217527 0.00869483 0)
(-0.0636682 0.00790029 0)
(-0.0513126 0.00344241 0)
(-0.0627436 0.00157735 0)
(-0.0557627 -0.00252533 0)
(-0.0489285 -0.00450975 0)
(-0.0373072 -0.00528283 0)
(-0.0243059 -0.00514672 0)
(-0.0126178 -0.00422166 0)
(-0.000792518 -0.00405516 0)
(0.0103925 -0.00164257 0)
(0.0071138 0.00195538 0)
(0.00170509 -0.0587205 0)
(0.00682971 -0.0602804 0)
(0.0092748 -0.0633783 0)
(0.0157186 -0.0715578 0)
(0.0206665 -0.0731823 0)
(0.024053 -0.0510838 0)
(0.0196342 -0.0275015 0)
(0.0206592 -0.00729498 0)
(0.0292314 0.0250033 0)
(0.0331143 0.0418728 0)
(0.0144707 0.0395193 0)
(-0.00398437 0.0385277 0)
(-0.0018187 0.0285233 0)
(-0.0191016 0.0295888 0)
(-0.0268771 0.00969664 0)
(-0.0453766 0.00548351 0)
(-0.000756522 0.021514 0)
(-0.0632566 0.00269524 0)
(-0.0195596 0.0088903 0)
(-0.0641835 0.0105069 0)
(-0.0520579 0.00372058 0)
(-0.0632296 0.00182084 0)
(-0.0562264 -0.00334084 0)
(-0.0491229 -0.00571747 0)
(-0.0373431 -0.00661776 0)
(-0.0242416 -0.00639734 0)
(-0.0125513 -0.00523676 0)
(-0.000663854 -0.00500347 0)
(0.0106568 -0.00197175 0)
(0.00726006 0.00255631 0)
(0.00217131 -0.0681167 0)
(0.00682064 -0.0682039 0)
(0.00764042 -0.0690638 0)
(0.00872223 -0.0768109 0)
(0.00465625 -0.0752775 0)
(0.00306444 -0.0513044 0)
(-0.00682111 -0.0282011 0)
(-0.0118197 -0.0111521 0)
(-0.0122579 0.0217457 0)
(-0.00396386 0.043901 0)
(-0.0184842 0.0461271 0)
(-0.0243079 0.0385568 0)
(-0.00486542 0.03007 0)
(-0.0197895 0.0338318 0)
(-0.0105846 0.0135335 0)
(-0.0527395 0.00246096 0)
(0.0159724 0.0224964 0)
(-0.0638853 0.00629511 0)
(-0.0209797 0.00891393 0)
(-0.0638313 0.0132242 0)
(-0.0533986 0.00403431 0)
(-0.0637433 0.00202886 0)
(-0.0568002 -0.00417877 0)
(-0.0493551 -0.00695962 0)
(-0.0373874 -0.00796719 0)
(-0.0241699 -0.00765055 0)
(-0.0124828 -0.0062554 0)
(-0.000519317 -0.00596085 0)
(0.0109635 -0.00230269 0)
(0.0074275 0.00317197 0)
(0.000121337 -0.0732199 0)
(0.000364055 -0.0676415 0)
(-0.0066958 -0.0645265 0)
(-0.0163028 -0.0708657 0)
(-0.030093 -0.0653832 0)
(-0.0308141 -0.0412279 0)
(-0.0364968 -0.0215123 0)
(-0.0443322 -0.00563937 0)
(-0.0451447 0.0231241 0)
(-0.0415194 0.0429894 0)
(-0.0389412 0.0502459 0)
(-0.0259484 0.0325226 0)
(-0.0117979 0.027495 0)
(-0.0255996 0.0343914 0)
(0.00714902 0.0175875 0)
(-0.0486785 0.000546242 0)
(0.0176525 0.022951 0)
(-0.0631062 0.011232 0)
(-0.0269896 0.00864448 0)
(-0.0621624 0.015844 0)
(-0.0552822 0.00449716 0)
(-0.0643183 0.00216437 0)
(-0.0574743 -0.00503901 0)
(-0.049622 -0.00824424 0)
(-0.0374325 -0.00933355 0)
(-0.024083 -0.00890617 0)
(-0.0124028 -0.00727809 0)
(-0.000348777 -0.00692903 0)
(0.0113258 -0.0026355 0)
(0.00762435 0.0038052 0)
(-0.0036702 -0.06975 0)
(-0.0112751 -0.0580416 0)
(-0.0216627 -0.0499756 0)
(-0.0344527 -0.0585849 0)
(-0.0541649 -0.0569057 0)
(-0.0567499 -0.0370701 0)
(-0.0664856 -0.0205444 0)
(-0.0764943 0.000515783 0)
(-0.0725841 0.0245651 0)
(-0.0630497 0.0392566 0)