/*--------------------------------*- C++ -*----------------------------------*\
| =========                 |                                                 |
| \\      /  F ield         | OpenFOAM: The Open Source CFD Toolbox           |
|  \\    /   O peration     | Version:  2.4.0                                 |
|   \\  /    A nd           | Web:      www.OpenFOAM.org                      |
|    \\/     M anipulation  |                                                 |
\*---------------------------------------------------------------------------*/
FoamFile
{
    version     2.0;
    format      ascii;
    class       volScalarField;
    location    "0.059";
    object      p;
}
// * * * * * * * * * * * * * * * * * * * * * * * * * * * * * * * * * * * * * //

dimensions      [1 -1 -2 0 0 0 0];

internalField   nonuniform List<scalar> 
14400
(
98.0555
100.58
102.271
104.635
107.265
109.666
111.481
112.469
112.575
111.855
110.405
108.365
105.834
102.97
100.031
97.2978
94.9902
93.2272
92.0114
91.2659
90.8744
90.7195
90.7044
90.7591
90.8387
90.9176
90.9831
91.0306
91.0601
91.0738
94.7908
97.3188
99.0089
101.375
104.007
106.409
108.225
109.21
109.312
108.588
107.134
105.095
102.564
99.6974
96.7521
94.0107
91.6962
89.9274
88.7114
87.9716
87.5899
87.4467
87.4429
87.5075
87.595
87.6796
87.749
87.7989
87.8298
87.844
91.5209
94.0522
95.7399
98.1089
100.749
103.157
104.978
105.963
106.061
105.332
103.873
101.836
99.3054
96.4317
93.4708
90.7069
88.3665
86.5735
85.3409
84.5951
84.2164
84.0819
84.0888
84.1638
84.2599
84.3512
84.4253
84.4785
84.5113
84.5265
88.2457
90.7807
92.4641
94.8385
97.4894
99.9089
101.74
102.727
102.821
102.086
100.618
98.5843
96.0559
93.1712
90.1851
87.3847
85.0012
83.1663
81.9026
81.1413
80.7618
80.6357
80.6551
80.7425
80.8491
80.9483
81.0281
81.0849
81.1199
81.1364
84.9652
87.5043
89.1818
91.5632
94.2298
96.6651
98.5121
99.5045
99.5931
98.8482
97.3693
95.3413
92.8159
89.9156
86.894
84.0418
81.5957
79.6992
78.3877
77.601
77.2174
77.1018
77.1379
77.2426
77.364
77.4746
77.5625
77.6247
77.663
77.6811
81.6796
84.2229
85.8927
88.2829
90.9695
93.4255
95.2938
96.2937
96.377
95.6147
94.1265
92.1062
89.5855
86.665
83.5969
80.6769
78.1477
76.167
74.7886
73.9648
73.5741
73.472
73.5311
73.6598
73.802
73.9287
74.0281
74.098
74.141
74.1615
78.3887
80.9363
82.5967
84.9975
87.7084
90.19
92.0854
93.0954
93.1727
92.3885
90.8885
88.8788
86.3653
83.4196
80.2939
77.2897
74.6546
72.5642
71.0963
70.2219
69.8213
69.7378
69.8282
69.9897
70.1602
70.3087
70.4236
70.504
70.5532
70.5769
75.0925
77.6446
79.294
81.7069
84.4465
86.9587
88.8871
89.9095
89.9802
89.1697
87.6541
85.6588
83.1558
80.1799
76.985
73.8795
71.1136
68.884
67.2991
66.358
65.9451
65.8876
66.021
66.2268
66.435
66.6122
66.7476
66.8414
66.8985
66.926
71.7911
74.3476
75.9845
78.4109
81.1835
83.7312
85.699
86.7361
86.7995
85.9574
84.4219
82.4457
79.9578
76.9465
73.6699
70.4457
67.5214
65.1172
63.382
62.3538
61.9268
61.9067
62.0991
62.3644
62.6224
62.8369
62.9983
63.1091
63.1755
63.2076
68.4845
71.045
72.6684
75.1093
77.9192
80.5077
82.5212
83.5753
83.6306
82.7511
81.1899
79.2388
76.7724
73.7199
70.3486
66.9884
63.8744
61.2529
59.3256
58.1842
57.7422
57.7764
58.0501
58.3949
58.7184
58.9804
59.1742
59.3057
59.384
59.4232
65.1726
67.7368
69.3458
71.8019
74.6532
77.2878
79.3541
80.4273
80.4735
79.5498
77.9559
76.0379
73.6012
70.5009
67.021
63.5078
60.1687
57.2771
55.1052
53.8159
53.3603
53.4733
53.8587
54.3098
54.7197
55.0419
55.275
55.4323
55.5287
55.5764
61.8555
64.4226
66.0169
68.4886
71.3852
74.0714
76.1979
77.2921
77.3281
76.3526
74.7168
72.8422
70.4458
67.2903
63.6859
60.0038
56.3996
53.1719
50.6891
49.2044
48.7401
48.9681
49.5069
50.1001
50.6219
51.0221
51.3072
51.4967
51.6042
51.6536
58.5331
61.1023
62.6821
65.1691
68.1145
70.8581
73.0529
74.1697
74.1947
73.1582
71.4691
69.6514
67.3086
64.0887
60.3419
56.4743
52.5606
48.9132
46.0367
44.2901
43.8288
44.2244
44.9746
45.759
46.4222
46.9237
47.2647
47.4827
47.621
47.6888
55.2054
57.776
59.3416
61.8431
64.8406
67.6478
69.9194
71.0603
71.0732
69.9655
68.2081
66.4653
64.1927
60.8973
56.9872
52.9129
48.6364
44.4669
41.0948
38.9928
38.5575
39.1911
40.239
41.2789
42.1358
42.7562
43.173
43.4336
43.5795
43.6536
51.8725
54.4434
55.9955
58.51
61.5627
64.4398
66.7978
67.9638
67.9639
66.7728
64.9284
63.2841
61.1018
57.717
53.6198
49.3103
44.6001
39.7789
35.7877
33.2132
32.8455
33.8066
35.2728
36.6564
37.7518
38.5148
39.005
39.3155
39.4977
39.5869
48.5343
51.1045
52.6437
55.1692
58.2797
61.2336
63.6885
64.8802
64.8668
63.5776
61.6236
60.1094
58.0408
54.5485
50.2382
45.6791
40.3826
34.7631
29.9787
26.8285
26.592
28.0107
30.0628
31.8736
33.2644
34.2312
34.7889
35.1356
35.3907
35.5295
45.1908
47.7596
49.2861
51.8195
54.9905
58.0286
60.5919
61.8094
61.7821
60.3781
58.2866
56.9446
55.0154
51.3924
46.8384
42.0821
35.9446
29.3507
23.3882
19.6472
19.479
21.6687
24.5082
26.9081
28.7296
29.9166
30.5609
30.9442
31.2233
31.3857
41.8421
44.4086
45.9221
48.4592
51.6934
54.8237
57.5082
58.7509
58.7099
57.1719
54.9093
53.7965
52.0327
48.2492
43.4147
38.507
31.7498
24.2391
14.9013
11.2636
11.0521
14.1602
18.267
21.7051
24.0822
25.4997
26.3152
26.747
27.014
27.1846
38.4879
41.0515
42.551
45.0859
48.3865
51.6178
54.4378
55.7042
55.6502
53.9562
51.4835
50.6769
49.1016
45.1182
39.9943
35.0514
27.9903
16.8704
2.72472
1.11624
0.799998
5.84684
11.4627
16.1727
19.1778
20.9681
22.0703
22.6362
22.8867
22.9835
35.1285
37.6885
39.1719
41.6965
45.0671
48.4093
51.3829
52.6686
52.6031
50.7277
48.0005
47.6042
46.234
41.9951
36.5304
31.7454
23.6193
13.2815
-5.56666
-8.87974
-11.6533
-3.92966
4.71268
10.587
14.2983
16.4665
17.8441
18.5744
18.8535
18.9843
31.7637
34.3195
35.7833
38.2866
41.7317
45.196
48.3405
49.6427
49.568
47.4825
44.4527
44.6047
43.445
38.8749
33.1328
28.8342
18.2617
6.21574
-7.98153
-3.36459
0.185749
-1.36295
-3.93406
4.31669
9.51511
12.1414
13.9503
14.4707
14.8087
15.0499
28.3934
30.9442
32.3841
34.8485
38.3756
41.975
45.3119
46.6248
46.5443
44.2161
40.8332
41.7088
40.7541
35.7203
29.6615
24.9209
14.2237
5.42362
-2.08183
0.432864
0.376058
0.329434
0.298996
0.31717
-0.493479
1.97301
9.10555
9.35866
10.7755
11.7551
25.0176
27.5627
28.9716
31.3718
34.9929
38.7429
42.2968
43.6128
43.531
40.9241
37.1281
38.9425
38.1885
32.4306
26.2047
22.1633
13.0109
-12.3166
0.582165
0.374196
0.338248
0.307601
0.284855
0.272694
0.263883
0.275065
0.280619
0.300669
0.320929
0.308531
21.6363
24.1746
25.5418
27.8432
31.5757
35.4949
39.2944
40.6038
40.526
37.6021
33.3018
36.3201
35.7768
29.0481
22.8449
18.0295
12.332
-2.30634
0.389136
0.342234
0.308399
0.282786
0.267288
0.258278
0.259276
0.272031
0.285003
0.298619
0.308552
0.314481
18.2491
20.7798
22.0914
24.2477
28.114
32.2253
36.3041
37.5945
37.5263
34.2443
29.2894
33.8398
33.5052
25.8737
18.5087
13.9347
-10.7935
0.0469178
0.298341
0.308789
0.283176
0.260696
0.246501
0.239384
0.245021
0.261058
0.277952
0.292253
0.302127
0.307555
14.8561
17.3781
18.6183
20.569
24.597
28.9287
33.3255
34.5812
34.5276
30.8388
25.0311
31.1811
31.3077
22.263
11.9977
9.6963
-1.31504
0.154168
0.256996
0.279823
0.261628
0.242001
0.227647
0.219513
0.224903
0.241895
0.261199
0.276867
0.287281
0.293089
11.4571
13.97
15.1219
16.7914
21.0145
25.6029
30.3585
31.5598
31.5222
27.3032
20.5487
28.4674
28.982
18.1012
4.84266
-5.88783
0.485946
0.203335
0.233807
0.256824
0.242768
0.226431
0.212539
0.202388
0.205286
0.220963
0.239916
0.25582
0.266697
0.272857
8.05189
10.5563
11.6025
12.9091
17.3613
22.2532
27.4036
28.5265
28.4866
23.2724
15.4706
25.8669
26.3798
13.8361
-1.68305
-0.396625
0.418867
0.211733
0.227241
0.238639
0.226107
0.218494
0.202678
0.18948
0.189616
0.203345
0.220183
0.234874
0.24534
0.25141
4.64278
7.13901
8.06037
8.95336
13.6417
18.8888
24.4615
25.4804
25.3631
18.3847
9.92399
23.2146
23.0254
10.8543
-23.7218
0.33329
0.392555
0.238736
0.222459
0.223637
0.212068
0.20845
0.195513
0.189582
0.179309
0.191227
0.205368
0.218034
0.227398
0.23294
1.30669
3.72145
4.50775
5.00038
9.87508
15.5199
21.5321
22.4225
22.1115
13.0131
6.29889
21.5654
18.637
8.48783
-2.71294
0.252638
0.352016
0.239174
0.215371
0.210655
0.200978
0.192708
0.188648
0.177918
0.176077
0.185087
0.196269
0.206749
0.214778
0.219603
91.0747
91.0635
91.0375
90.9936
90.93
90.8481
90.7552
90.6686
90.621
90.6668
90.8861
91.3835
92.2754
93.6606
95.584
97.9964
100.749
103.608
106.31
108.64
110.453
111.6
111.919
111.313
109.796
107.528
104.853
102.312
100.374
99.2181
87.845
87.8337
87.8069
87.7613
87.6947
87.6082
87.5088
87.4135
87.3554
87.3896
87.5981
88.0876
88.9763
90.3643
92.2927
94.7122
97.4708
100.334
103.039
105.369
107.185
108.335
108.659
108.056
106.54
104.271
101.594
99.0508
97.1123
95.9564
84.5278
84.5162
84.4882
84.4403
84.3701
84.2784
84.1718
84.0674
83.9991
84.0238
84.2264
84.7171
85.6166
87.024
88.9758
91.4171
94.193
97.068
99.7768
102.107
103.925
105.082
105.412
104.81
103.291
101.015
98.33
95.7829
93.8447
92.6898
81.1381
81.126
81.0968
81.0465
80.9723
80.8745
80.7594
80.6443
80.5641
80.5786
80.7774
81.2761
82.1984
83.6408
85.632
88.1091
90.9129
93.8061
96.5215
98.8506
100.674
101.838
102.179
101.576
100.048
97.7599
95.0627
92.5088
90.5716
89.4183
77.6833
77.6707
77.6397
77.5857
77.5057
77.399
77.2718
77.1416
77.0451
77.0465
77.2422
77.7555
78.7138
80.209
82.2577
84.7861
87.6297
90.5486
93.2734
95.601
97.43
98.6059
98.9586
98.3537
96.8131
94.5067
91.7917
89.2287
87.2929
86.1419
74.1643
74.151
74.1172
74.058
73.9693
73.8501
73.7057
73.5542
73.4352
73.4189
73.6116
74.147
75.1566
76.7253
78.8513
81.4471
84.3428
87.2956
90.0324
92.3571
94.1932
95.3879
95.7521
95.143
93.585
91.2549
88.5168
85.9422
84.0087
82.8607
70.5806
70.5661
70.5285
70.4621
70.3616
70.2251
70.0571
69.8766
69.7266
69.686
69.8746
70.4407
71.5202
73.1864
75.4113
78.0915
81.052
84.0473
86.7988
89.1183
90.9628
92.1817
92.5593
91.9442
90.364
88.0044
85.2379
82.6493
80.7187
79.5746
66.9307
66.9148
66.8725
66.7966
66.6806
66.5212
66.3218
66.1018
65.9094
65.8349
66.017
66.6237
67.7958
69.5883
71.9358
74.7182
77.7568
80.8039
83.5727
85.8838
87.7382
88.9867
89.3804
88.7575
87.1502
84.7552
81.955
79.35
77.4232
76.2836
63.2133
63.1957
63.1477
63.0602
62.9242
62.7351
62.4942
62.2214
61.971
61.8489
62.0195
62.6791
63.972
65.9263
68.4223
71.3258
74.4566
77.5657
80.3544
82.6522
84.5183
85.8023
86.2155
85.5828
83.9435
81.5071
78.6677
76.0439
74.122
72.9877
59.4308
59.4095
59.3531
59.2512
59.0904
58.8637
58.5688
58.2252
57.8956
57.7061
57.8568
58.5845
60.0347
62.1949
64.8677
67.9124
71.1506
74.3332
77.1445
79.4222
81.3022
82.6283
83.0647
82.4203
80.744
78.2601
75.3761
72.7309
70.8152
69.687
55.5862
55.5604
55.4924
55.369
55.1791
54.905
54.5393
54.1016
53.6637
53.3785
53.4954
54.3112
55.9661
58.3877
61.2692
64.4758
67.838
71.107
73.9441
76.192
78.0887
79.4645
79.9284
79.2703
77.5516
75.014
72.0797
69.4109
67.5027
66.3814
51.6636
51.6383
51.5665
51.4236
51.1927
50.8569
50.3991
49.8374
49.2504
48.8299
48.8907
49.8204
51.7437
54.4975
57.6237
61.0131
64.5172
67.8877
70.7545
72.9591
74.8764
76.3104
76.8067
76.1326
74.3662
71.7686
68.7784
66.0835
64.1844
63.0709
47.7018
47.6681
47.5692
47.3985
47.1313
46.7193
46.1415
45.4164
44.626
44.0143
43.9849
45.0607
47.3391
50.5155
53.9307
57.5218
61.1867
64.6762
67.5778
69.7208
71.6636
73.1658
73.6998
73.0075
71.1878
68.5238
65.4719
62.7483
60.8604
59.7556
43.6694
43.6302
43.5276
43.3374
43.0086
42.5056
41.7777
40.8246
39.7591
38.8734
38.7022
39.9603
42.7182
46.4302
50.1967
54.0005
57.8447
61.4734
64.417
66.4733
68.4486
70.0304
70.6082
69.8951
68.0165
65.2793
62.1599
59.4051
57.5307
56.4356
39.6047
39.5596
39.4321
39.196
38.8142
38.2081
37.3011
36.0428
34.6009
33.3354
32.9381
34.4125
37.8477
42.2169
46.4359
50.449
54.489
58.2804
61.2763
63.2115
65.2295
66.9038
67.532
66.7954
64.8521
62.035
58.8421
56.0533
54.1954
53.1107
35.5573
35.4843
35.29
34.9951
34.5795
33.8377
32.6852
31.0743
29.1039
27.2928
26.5501
28.2749
32.7281
37.7972
42.6673
46.867
51.1164
55.098
58.1615
59.9288
62.0038
63.7855
64.4718
63.7086
61.6947
58.7904
55.5182
52.6925
50.8544
49.7812
31.4191
31.334
31.1085
30.7964
30.3039
29.4623
27.9491
25.8286
23.2014
20.4792
19.3421
21.2295
27.3495
33.0183
38.9414
43.2456
47.7224
51.9262
55.08
56.6156
58.7689
60.6749
61.4279
60.6347
58.5443
55.5455
52.188
49.3221
47.5079
46.4471
27.218
27.1317
26.9083
26.5906
25.9755
24.9281
23.0728
20.2174
16.3713
12.4
10.8606
12.487
21.2731
28.2452
35.0968
39.5722
44.2996
48.7644
52.0408
53.2577
55.5211
57.5713
58.4008
57.5737
55.4009
52.2999
48.8511
45.9412
44.1562
43.1086
22.9853
22.9695
22.8082
22.4363
21.5989
20.1856
17.97
14.15
8.77376
2.78578
0.560601
1.56298
11.6594
23.1338
31.0968
35.8114
40.8338
45.6113
49.0543
49.8336
52.2563
54.4739
55.3908
54.5257
52.2646
49.0532
45.5072
42.549
40.7994
39.7659
19.0004
18.9826
18.7887
18.2993
17.1805
15.4099
12.7045
8.15335
0.884358
-8.3676
-11.7567
-7.47637
5.69003
16.8884
27.2864
32.0006
37.3177
42.4636
46.1317
46.3105
48.9692
51.3817
52.3986
51.4907
49.1359
45.8052
42.1564
39.1446
37.4382
36.4191
15.1749
15.1083
14.7454
14.2805
13.1289
10.7444
7.36509
-0.295554
-3.3363
0.0866277
-0.495513
-10.6046
-1.81457
13.2004
22.9687
28.0557
33.6879
39.3161
43.2844
42.6401
45.653
48.2936
49.4246
48.4684
46.015
42.5554
38.7984
35.7267
34.0729
33.0686
11.9927
11.4342
10.0941
9.53804
6.47636
-1.35287
0.124475
0.327559
0.385676
0.416215
0.508319
0.414637
-5.80813
9.60578
18.6578
24.6809
29.9245
36.1661
40.523
38.761
42.2977
45.2076
46.4694
45.4588
42.9027
39.3037
35.433
32.2937
30.7043
29.7146
0.306569
0.323705
0.321577
0.305246
0.293117
0.304126
0.2951
0.317276
0.350422
0.382972
0.442576
0.593538
-3.89948
11.6356
16.0119
21.0263
26.1374
32.9933
37.8557
34.6131
38.8885
42.121
43.5335
42.4619
39.8003
36.0499
32.0603
28.8439
27.3333
26.3577
0.316899
0.317043
0.313101
0.305955
0.297582
0.291427
0.289224
0.300936
0.32393
0.353842
0.406629
0.503594
0.109462
-7.65458
11.7666
17.3104
21.9463
29.8148
35.2895
30.1475
35.4016
39.0289
40.6176
39.4772
36.7092
32.7935
28.6799
25.3754
23.9612
22.9983
0.30988
0.309784
0.306243
0.298586
0.287851
0.276417
0.270817
0.278997
0.298723
0.32728
0.374108
0.435143
0.32779
-0.0479963
4.45898
13.7217
17.2289
26.6038
32.8106
25.3174
31.8057
35.9236
37.7223
36.5042
33.6317
29.5338
25.2911
21.8859
20.5892
19.6369
0.295397
0.294735
0.290435
0.281576
0.268428
0.254547
0.248208
0.256422
0.275727
0.302504
0.342458
0.382738
0.354277
0.828689
-12.5546
10.6098
12.258
23.4011
30.5988
20.12
28.0922
32.7916
34.8481
33.5424
30.5703
26.2687
21.8926
18.373
17.2192
16.2743
0.275128
0.273964
0.268834
0.259155
0.245514
0.231886
0.226783
0.236639
0.255724
0.278527
0.311586
0.336623
0.318709
0.50688
-1.23594
4.74685
4.71111
20.4246
28.5321
14.8787
24.3132
29.5992
31.9951
30.5907
27.5275
22.9944
18.4818
14.8339
13.8531
12.9113
0.253545
0.252102
0.246724
0.237294
0.224762
0.212746
0.208545
0.220664
0.239259
0.255252
0.281825
0.297844
0.282759
0.309407
-0.222882
-11.5197
-6.6784
17.5728
26.2422
9.72196
20.045
26.2543
29.1618
27.6473
24.5045
19.7056
15.055
11.2661
10.4936
9.54874
0.234823
0.233313
0.228184
0.219689
0.208944
0.198631
0.193479
0.211547
0.228655
0.234032
0.253645
0.26234
0.247029
0.211199
-0.108763
-0.824852
-28.8189
14.7038
23.307
5.47089
13.8997
22.6458
26.3387
24.7102
21.502
16.3963
11.6072
7.66649
7.14388
6.18784
0.221169
0.219669
0.214977
0.207568
0.198673
0.190603
0.188493
0.202326
0.211812
0.214773
0.227807
0.229834
0.210852
0.165713
-0.00696189
0.103605
-23.98
12.9062
20.7058
1.18814
5.95924
18.7158
23.4968
21.7758
18.5179
13.0594
8.13208
4.03212
3.80775
2.82815
-0.100647
0.727483
1.4165
1.6124
6.56657
12.5738
18.9801
19.7313
19.1705
8.45261
2.21478
19.7457
15.2793
-6.83924
-1.17906
0.243587
0.303696
0.22965
0.206836
0.200184
0.1923
0.185041
0.178866
0.174962
0.176045
0.182973
0.192186
0.201088
0.208073
0.212269
-0.102503
-0.22613
-0.205173
3.63219
4.62549
10.8453
17.4923
18.1393
17.4162
5.90121
-0.825671
18.4363
13.9284
-6.20104
-0.612633
0.211295
0.276518
0.221367
0.201
0.194253
0.187489
0.181432
0.176636
0.174231
0.176017
0.182426
0.190854
0.199057
0.205515
0.209368
-0.104363
-0.230102
-0.204395
0.582582
2.57713
8.97805
15.897
16.3986
15.4922
3.44414
-4.27183
16.4616
13.6754
3.89305
-0.522533
0.164981
0.247949
0.2109
0.194
0.187809
0.182319
0.177591
0.174273
0.173215
0.175868
0.182015
0.189807
0.197363
0.203255
0.206717
-0.105792
0.49798
-0.409203
-0.133602
6.55549
7.60539
14.2134
14.6761
13.4034
0.807474
0.504435
12.0189
-6.3715
-0.530022
-0.378709
0.116173
0.218219
0.198285
0.185797
0.180767
0.176707
0.173738
0.171894
0.171566
0.175182
0.18143
0.188719
0.195641
0.200889
0.203888
-0.107157
0.0408053
-0.405896
-0.126514
0.891337
5.32859
13.1633
12.4687
11.1757
-9.25917
1.04715
-4.20154
-0.653525
-0.415274
-0.301601
0.0720875
0.187642
0.18372
0.176343
0.173043
0.170556
0.16872
0.16824
0.169396
0.176475
0.180173
0.186993
0.193288
0.197815
0.200303
-0.108209
0.0324566
-0.396672
-0.0542793
-0.293718
3.13827
10.7387
10.291
8.29493
-0.614394
0.900742
0.311511
-0.254296
-0.405049
-0.257087
0.0379573
0.157119
0.167488
0.165625
0.164568
0.163793
0.163521
0.16435
0.166617
0.17191
0.177762
0.183598
0.189685
0.193518
0.195489
-0.110431
0.0251702
-0.376893
-0.0642886
-0.276475
1.08116
6.92066
8.04335
7.41321
-0.729234
0.448508
-0.0701535
-0.315437
-0.362872
-0.226636
0.0110152
0.127987
0.149927
0.153724
0.155292
0.156351
0.157588
0.159607
0.162857
0.167879
0.173301
0.179153
0.184252
0.188374
0.190561
-0.112586
0.0180349
-0.372253
-0.0710799
-0.216784
0.0146254
2.7247
5.38445
-0.366356
-0.728129
-0.0307104
-0.107769
-0.321691
-0.329235
-0.214834
-0.0116806
0.100397
0.131407
0.140779
0.145236
0.148192
0.15081
0.153796
0.157605
0.162345
0.167145
0.171422
0.174982
0.177815
0.179165
-0.115098
-0.0103858
-0.325822
-0.0793711
-0.223699
-0.223916
-0.191671
-0.196667
-0.45816
-0.705514
-0.0471364
-0.135006
-0.302692
-0.313199
-0.226072
-0.0312537
0.0740332
0.112153
0.126885
0.134436
0.139294
0.143096
0.146747
0.150734
0.155073
0.159245
0.162872
0.165806
0.167872
0.168839
-0.118153
-0.0253219
-0.411949
-0.0883172
-0.229495
-0.227359
-0.20792
-0.239892
-0.461211
-0.611132
-0.0281084
-0.156713
-0.284429
-0.299931
-0.235569
-0.0633187
0.0481737
0.0922408
0.112145
0.122933
0.129652
0.13437
0.13833
0.142149
0.145923
0.149386
0.1523
0.154537
0.15598
0.156577
-0.121565
-0.0859001
-0.399387
-0.0993979
-0.234157
-0.228484
-0.210336
-0.249716
-0.435042
-0.469998
-0.0461772
-0.168469
-0.273593
-0.29386
-0.246905
-0.083965
0.0212494
0.0715206
0.0965029
0.110714
0.119245
0.124541
0.128415
0.131757
0.134828
0.137538
0.139745
0.141351
0.142302
0.142613
-0.125292
-0.0960606
-0.379165
-0.111432
-0.235522
-0.229022
-0.217448
-0.257533
-0.399065
-0.390777
-0.109452
-0.175118
-0.272459
-0.285998
-0.259312
-0.107873
-0.00324207
0.0495673
0.0795137
0.0975741
0.107992
0.11346
0.116843
0.119447
0.121733
0.123712
0.125287
0.126382
0.126969
0.127077
-0.129491
-0.0996796
-0.352433
-0.124738
-0.235442
-0.23043
-0.221082
-0.261594
-0.364328
-0.354414
-0.149314
-0.179448
-0.266531
-0.31526
-0.286039
-0.106865
-0.0255897
0.0249614
0.0599913
0.0829025
0.0956631
0.100837
0.103356
0.105043
0.106549
0.107897
0.108973
0.109694
0.110034
0.110015
-0.134186
-0.107743
-0.323237
-0.138761
-0.235343
-0.231951
-0.224666
-0.261631
-0.328571
-0.322684
-0.170475
-0.183901
-0.263171
-0.302559
-0.297352
-0.119852
-0.0560574
-0.00571037
0.0395201
0.0728259
0.0821264
0.0860405
0.0874966
0.0882459
0.0891185
0.0900339
0.0908014
0.0913075
0.0915168
0.0914456
-0.139382
-0.117819
-0.295587
-0.151934
-0.235506
-0.233109
-0.227926
-0.258646
-0.297751
-0.293389
-0.181322
-0.187638
-0.23143
-0.288382
-0.266642
-0.168604
-0.0918747
-0.0341837
-0.00460849
0.042936
0.0687775
0.0690775
0.068532
0.0686557
0.0692674
0.0700794
0.0707898
0.0712638
0.0714677
0.0714201
-0.145082
-0.128375
-0.271556
-0.164444
-0.235726
-0.233954
-0.230734
-0.254596
-0.272643
-0.265451
-0.186362
-0.188126
-0.285948
-0.278326
-0.246545
-0.184208
-0.127901
-0.0705351
-0.0295146
0.0144306
0.0479528
0.0491073
0.0463335
0.045822
0.0468921
0.0480727
0.0490278
0.0496638
0.0499838
0.0500298
-0.151291
-0.139118
-0.253283
-0.176522
-0.23597
-0.23475
-0.233116
-0.250535
-0.256208
-0.242025
-0.188002
-0.186164
-0.260696
-0.273554
-0.23777
-0.203294
-0.175216
-0.0869414
-0.0704779
0.00928671
0.032521
0.0253248
0.0220869
0.0193625
0.0221334
0.0242557
0.0257578
0.0267285
0.0272642
0.0274563
-0.158013
-0.149873
-0.240362
-0.18799
-0.236296
-0.235676
-0.235163
-0.24691
-0.245909
-0.227233
-0.188034
-0.180339
-0.22862
-0.228579
-0.231141
-0.220045
-0.209083
-0.149781
-0.124701
-0.0206485
-0.00760978
0.00525281
-0.0157084
-0.00892632
-0.0039778
-0.000676483
0.00150383
0.0028814
0.00366918
0.00402154
-0.16526
-0.160511
-0.231859
-0.198695
-0.23683
-0.236865
-0.236989
-0.243933
-0.239019
-0.218787
-0.18662
-0.17192
-0.194171
-0.20785
-0.216941
-0.221145
-0.222163
-0.167522
-0.13942
-0.0678639
-0.0492494
-0.0405305
-0.0467812
-0.0361182
-0.0297021
-0.0255755
-0.0229144
-0.0212487
-0.0202821
-0.0198157
-0.173052
-0.17097
-0.226986
-0.208538
-0.237699
-0.238412
-0.238719
-0.241756
-0.234368
-0.214028
-0.185122
-0.164014
-0.160309
-0.176544
-0.207381
-0.202544
-0.212629
-0.173913
-0.140899
-0.123577
-0.0966021
-0.0802451
-0.0684684
-0.0595813
-0.0534761
-0.0494102
-0.046752
-0.0450705
-0.0440805
-0.0435868
-0.181414
-0.181256
-0.225102
-0.217456
-0.239033
-0.240378
-0.240509
-0.240516
-0.231561
-0.211785
-0.185069
-0.159905
-0.13863
-0.153274
-0.196359
-0.196988
-0.196687
-0.163303
-0.138526
-0.124382
-0.109003
-0.0971992
-0.087721
-0.0806119
-0.0755889
-0.0721438
-0.0698354
-0.0683478
-0.0674581
-0.0670058
-0.19038
-0.191434
-0.225682
-0.225431
-0.240983
-0.242794
-0.242539
-0.240348
-0.230538
-0.211857
-0.187467
-0.162124
-0.138799
-0.147202
-0.183091
-0.19041
-0.177986
-0.156144
-0.14083
-0.129785
-0.120132
-0.111997
-0.10549
-0.100484
-0.096779
-0.0941302
-0.0923012
-0.0910977
-0.0903672
-0.0899918
-0.19999
-0.201606
-0.228308
-0.232579
-0.243688
-0.245713
-0.245006
-0.241366
-0.231321
-0.214219
-0.192705
-0.170186
-0.150903
-0.148613
-0.175901
-0.180839
-0.172642
-0.160296
-0.149636
-0.141222
-0.13433
-0.128635
-0.124043
-0.120456
-0.117749
-0.115769
-0.114377
-0.113449
-0.112881
-0.112587
-0.210289
-0.211892
-0.232658
-0.239214
-0.247244
-0.249215
-0.248102
-0.243666
-0.233927
-0.218805
-0.2006
-0.182407
-0.168397
-0.166704
-0.177104
-0.179682
-0.17576
-0.168938
-0.162021
-0.155981
-0.150905
-0.146722
-0.143361
-0.140732
-0.138733
-0.137263
-0.136223
-0.135525
-0.135097
-0.134875
-0.221332
-0.222427
-0.238489
-0.245746
-0.251682
-0.253399
-0.252004
-0.247321
-0.238356
-0.225459
-0.21067
-0.196704
-0.186748
-0.184158
-0.187131
-0.187701
-0.185187
-0.181023
-0.176509
-0.172312
-0.168679
-0.165652
-0.16321
-0.161294
-0.159833
-0.158754
-0.157986
-0.157467
-0.157145
-0.156974
-0.233179
-0.233341
-0.245621
-0.252528
-0.257005
-0.258369
-0.256863
-0.25238
-0.24455
-0.233978
-0.222409
-0.211976
-0.204686
-0.201716
-0.201495
-0.200695
-0.198684
-0.195878
-0.192854
-0.189975
-0.18745
-0.185322
-0.183594
-0.182232
-0.181189
-0.180415
-0.179861
-0.179484
-0.179245
-0.179115
-0.245902
-0.244767
-0.253921
-0.259826
-0.263217
-0.264226
-0.262791
-0.258863
-0.252423
-0.244164
-0.235471
-0.227864
-0.222479
-0.219523
-0.218122
-0.216784
-0.21506
-0.213054
-0.210989
-0.209043
-0.207325
-0.205875
-0.204692
-0.203756
-0.203036
-0.202499
-0.202111
-0.201844
-0.201672
-0.201574
-0.259587
-0.256834
-0.263301
-0.267841
-0.270333
-0.271045
-0.269861
-0.266763
-0.261885
-0.255859
-0.249696
-0.244384
-0.240504
-0.238019
-0.236415
-0.235067
-0.233677
-0.232252
-0.230863
-0.229588
-0.228457
-0.227515
-0.226745
-0.226134
-0.225662
-0.225307
-0.225049
-0.224869
-0.224751
-0.22468
-0.274332
-0.269674
-0.27371
-0.276711
-0.278371
-0.278867
-0.278097
-0.276041
-0.272841
-0.268966
-0.265068
-0.261725
-0.259213
-0.257465
-0.256213
-0.255182
-0.254224
-0.253311
-0.252461
-0.251695
-0.251033
-0.250478
-0.250025
-0.249666
-0.249387
-0.249177
-0.249022
-0.248913
-0.24884
-0.248796
-0.290249
-0.283423
-0.285128
-0.286503
-0.287337
-0.287691
-0.287471
-0.286623
-0.285201
-0.28344
-0.281663
-0.280138
-0.278977
-0.278144
-0.277531
-0.277034
-0.276596
-0.276196
-0.275833
-0.275512
-0.275236
-0.275006
-0.274818
-0.274668
-0.274552
-0.274464
-0.2744
-0.274354
-0.274322
-0.274302
0.213551
0.212062
0.207708
0.201042
0.193334
0.186686
0.184224
0.188596
0.193935
0.200232
0.207017
0.203833
0.181236
0.129731
-0.00414948
0.0427139
-1.62565
14.1946
20.2924
-5.42815
-1.41703
15.0813
20.9618
19.2026
15.916
10.106
5.05909
0.815581
0.898212
0.0160241
0.210491
0.209007
0.204812
0.19845
0.191165
0.184854
0.182058
0.184337
0.187897
0.192064
0.195578
0.189632
0.165013
0.111451
-0.00976859
-0.0632816
-0.817346
14.7043
20.8964
-9.1633
-5.86575
12.8941
19.4511
17.6865
14.3923
8.3563
3.23902
-0.732517
-0.127214
-0.0231868
0.20767
0.206221
0.202226
0.196151
0.189177
0.182952
0.179579
0.179897
0.181536
0.183424
0.183781
0.175073
0.148418
0.0931066
-0.0232047
-0.182682
-0.668574
-8.04669
21.8632
-11.4956
-10.6684
10.5072
17.7917
16.0389
12.749
6.44747
2.10801
-0.827192
0.000535199
-0.0195345
0.204658
0.203289
0.199578
0.19383
0.187109
0.180708
0.176501
0.175207
0.174999
0.174259
0.171647
0.160236
0.131597
0.074616
-0.0429401
-0.279156
-0.683457
0.97471
21.5624
-6.60592
-6.05084
7.96677
15.9667
14.2901
10.926
5.24879
1.63726
-0.00675234
-0.239488
-0.0274154
0.20087
0.199607
0.196269
0.19088
0.184385
0.177542
0.173232
0.169896
0.167399
0.164573
0.159172
0.145202
0.114674
0.0560547
-0.0655089
-0.341122
-0.562437
-0.180608
9.80948
-0.124247
1.20804
6.3904
13.9343
12.2742
9.80756
2.19517
-0.62391
-0.385945
-0.256345
-0.0383944
0.195798
0.19461
0.191718
0.18636
0.181787
0.174243
0.167807
0.163528
0.159372
0.154409
0.146401
0.130068
0.0977604
0.0377289
-0.0868914
-0.367454
-0.503078
-0.0138854
19.1096
0.00267444
2.02134
-5.92518
11.6773
9.98512
7.8341
0.00536165
-0.162084
-0.382087
-0.280741
-0.0779468
0.190236
0.188208
0.185128
0.180981
0.174953
0.168165
0.161971
0.156388
0.150693
0.14374
0.133382
0.114919
0.0810271
0.0200138
-0.105113
-0.370567
-0.441616
-0.0684198
-0.0809656
-0.0175459
-0.236826
-2.54756
9.1838
7.31425
4.53333
-0.936907
-0.215267
-0.375275
-0.305491
-0.116319
0.179437
0.178528
0.176001
0.17233
0.167432
0.161226
0.154746
0.148266
0.14126
0.132599
0.120207
0.0998909
0.0646706
0.00332713
-0.118209
-0.359792
-0.390424
-0.11066
-0.1246
-0.0661516
-0.521269
-0.398535
2.16603
4.01976
1.3106
-0.19077
-0.211917
-0.368522
-0.314007
-0.128295
0.168853
0.167935
0.165838
0.162598
0.158137
0.152455
0.146002
0.139
0.131032
0.121025
0.106975
0.0850712
0.0488096
-0.0121018
-0.1264
-0.334359
-0.349221
-0.139089
-0.100602
-0.0711218
-0.441685
-0.204625
-0.350563
-0.194619
-0.161245
-0.203203
-0.209575
-0.361532
-0.31369
-0.134637
0.156438
0.155576
0.153792
0.150972
0.147009
0.141862
0.13568
0.128522
0.119992
0.109064
0.0937767
0.0705659
0.0335496
-0.0262045
-0.129674
-0.300139
-0.299635
-0.158242
-0.0797307
-0.0262772
-0.269728
-0.180311
-0.365163
-0.257396
-0.166137
-0.201531
-0.205639
-0.358595
-0.309081
-0.138361
0.142372
0.141569
0.140026
0.137589
0.134123
0.129531
0.123786
0.116792
0.108116
0.096735
0.0806677
0.0564215
0.0187624
-0.0391013
-0.130234
-0.268416
-0.254831
-0.169974
-0.0754473
0.0166124
-0.111839
-0.140939
-0.3814
-0.261219
-0.173807
-0.202112
-0.205842
-0.342882
-0.305158
-0.140105
0.126773
0.126027
0.124681
0.122582
0.119583
0.115548
0.11035
0.103783
0.0953596
0.0840204
0.0676596
0.042545
0.00401976
-0.0516323
-0.131544
-0.231339
-0.222376
-0.180171
-0.0805948
0.0151998
-0.0686879
-0.159356
-0.383421
-0.264644
-0.181124
-0.203251
-0.208296
-0.33207
-0.305092
-0.142635
0.109683
0.109004
0.107833
0.106035
0.103464
0.099969
0.0953797
0.0894392
0.0816268
0.0708265
0.0546726
0.028564
-0.0115293
-0.0652448
-0.135804
-0.204844
-0.201287
-0.183054
-0.0909123
-0.00699866
-0.0821206
-0.167811
-0.372906
-0.26666
-0.189392
-0.206132
-0.243302
-0.320632
-0.302303
-0.146966
0.0911275
0.0905257
0.0895164
0.0879799
0.0857836
0.0827838
0.0788106
0.0736153
0.0666974
0.0568927
0.0414624
0.0134551
-0.0295342
-0.0814306
-0.142665
-0.193794
-0.171391
-0.181698
-0.102957
-0.0350131
-0.102493
-0.181887
-0.355231
-0.266708
-0.198187
-0.210238
-0.243121
-0.307756
-0.298443
-0.152521
0.0711543
0.0706414
0.0697751
0.068451
0.066553
0.0639569
0.0605239
0.0560667
0.0501867
0.0416092
0.0274437
-0.00513979
-0.0525248
-0.102722
-0.154453
-0.186448
-0.17478
-0.162729
-0.116018
-0.0627792
-0.124913
-0.199429
-0.333709
-0.26487
-0.207126
-0.214686
-0.247788
-0.29474
-0.293477
-0.158887
0.0498497
0.0494309
0.0486818
0.0475065
0.0457992
0.0434527
0.040366
0.0364408
0.0314664
0.0245629
0.0110845
-0.0293039
-0.0807283
-0.132297
-0.174563
-0.187589
-0.177534
-0.167101
-0.134001
-0.0872728
-0.147018
-0.219446
-0.310845
-0.262021
-0.215429
-0.219378
-0.248912
-0.283783
-0.287656
-0.165821
0.027383
0.0270538
0.0263863
0.0252831
0.0236335
0.0213235
0.0182573
0.014392
0.00966113
0.00437286
0.00510001
-0.051165
-0.0804268
-0.168143
-0.206167
-0.195862
-0.189806
-0.192329
-0.154594
-0.107001
-0.16297
-0.230776
-0.290302
-0.258774
-0.222844
-0.224179
-0.249979
-0.275033
-0.281403
-0.173108
0.00405364
0.00379807
0.00317543
0.00207571
0.000363119
-0.00212486
-0.0055785
-0.0102049
-0.0145562
-0.0120164
-0.0215479
-0.0748229
-0.124256
-0.20201
-0.241191
-0.204724
-0.195251
-0.202936
-0.155902
-0.122193
-0.170846
-0.231191
-0.273493
-0.255553
-0.229228
-0.228971
-0.2509
-0.268597
-0.275174
-0.180589
-0.019709
-0.0199142
-0.0205112
-0.0216247
-0.0234208
-0.0261276
-0.0300902
-0.0359256
-0.0440194
-0.0312714
-0.0530283
-0.100236
-0.145009
-0.222624
-0.251159
-0.208124
-0.201624
-0.193492
-0.154819
-0.133374
-0.174045
-0.227202
-0.260512
-0.252647
-0.234617
-0.233683
-0.251788
-0.264263
-0.269385
-0.188126
-0.0434507
-0.0436224
-0.0441793
-0.0452476
-0.0469976
-0.0496647
-0.0535974
-0.0593414
-0.067545
-0.0783353
-0.0897316
-0.110539
-0.15299
-0.209913
-0.235097
-0.20328
-0.188426
-0.1783
-0.143267
-0.140834
-0.176881
-0.222451
-0.251016
-0.250285
-0.239145
-0.238295
-0.252817
-0.261716
-0.264417
-0.195645
-0.0668726
-0.0670155
-0.067504
-0.0684508
-0.0700052
-0.0723668
-0.0758129
-0.0807436
-0.0876964
-0.0958105
-0.107082
-0.123406