/*--------------------------------*- C++ -*----------------------------------*\
| =========                 |                                                 |
| \\      /  F ield         | OpenFOAM: The Open Source CFD Toolbox           |
|  \\    /   O peration     | Version:  2.4.0                                 |
|   \\  /    A nd           | Web:      www.OpenFOAM.org                      |
|    \\/     M anipulation  |                                                 |
\*---------------------------------------------------------------------------*/
FoamFile
{
    version     2.0;
    format      ascii;
    class       volScalarField;
    location    "0.012";
    object      alpha.water;
}
// * * * * * * * * * * * * * * * * * * * * * * * * * * * * * * * * * * * * * //

dimensions      [0 0 0 0 0 0 0];

internalField   nonuniform List<scalar> 
3600
(
1
1
1
1
1
1
1
1
1
1
1
1
1
1
1
1
1
1
1
1
1
1
1
1
1
1
1
1
1
1
1
1
1
1
1
1
1
1
1
1
1
1
1
1
1
1
1
1
1
1
1
1
1
1
1
1
1
1
1
1
1
1
1
1
1
1
1
1
1
1
1
1
1
1
1
1
1
1
1
1
1
1
1
1
1
1
1
1
1
1
1
1
1
1
1
1
1
1
1
1
1
1
1
1
1
1
1
1
1
1
1
1
1
1
1
1
1
1
1
1
1
1
1
1
1
1
1
1
1
1
1
1
1
1
1
1
1
1
1
1
1
1
1
1
1
1
1
1
1
1
1
1
1
1
1
1
1
1
1
1
1
1
1
1
1
1
1
1
1
1
1
1
1
1
1
1
1
1
1
1
1
1
1
1
1
1
1
1
1
1
1
1
1
1
1
1
1
1
1
1
1
1
1
1
1
1
1
1
1
1
1
1
1
1
1
1
1
1
1
1
1
1
1
1
1
1
1
1
1
1
1
1
1
1
1
1
1
1
1
1
1
1
1
1
1
1
1
1
1
1
1
1
1
1
1
1
1
1
1
1
1
1
1
0.999999
0.999999
0.999999
1
0.999999
0.999999
0.999999
1
1
1
1
1
1
1
1
1
1
1
1
1
1
1
1
1
1
1
1
1
1
1
0.999998
0.999992
0.999997
0.999997
0.999992
0.999994
0.999992
1
1
1
1
1
1
1
1
1
1
1
1
1
1
1
1
1
1
1
1
1
1
1
1
0.999989
0.999978
0.999975
0.999951
0.999953
0.999944
1
1
1
1
1
1
1
1
1
1
1
1
1
1
1
1
1
1
1
1
1
1
1
1
0.999994
0.999913
0.999836
0.999704
0.999657
0.999637
1
1
1
1
1
1
1
1
1
1
1
1
1
1
1
1
1
1
1
1
1
1
1
1
0.999959
0.999554
0.999147
0.998478
0.997909
0.997805
1
1
1
1
1
1
1
1
1
1
1
1
1
1
1
1
1
1
1
1
1
1
1
0.999999
0.999676
0.997278
0.99495
0.972981
0.932181
0.923656
1
1
1
1
1
1
1
1
1
1
1
1
1
1
1
1
1
1
1
1
1
1
1
0.999989
0.997543
0.865018
0.648628
0.436527
0.304422
0.28916
1
1
1
1
1
1
1
1
1
1
1
1
1
1
1
1
1
1
1
1
1
1
1.00001
0.99967
0.803476
0.187978
0.0262317
1.68725e-08
2.55859e-12
1.51577e-13
1
1
1
1
1
1
1
1
1
1
1
1
1
1
1
1
1
1
1
1
1
0.999999
0.999947
0.717815
0.121038
-1.70362e-08
1.2165e-08
-1.30392e-12
-6.24559e-10
-3.81196e-08
1
1
1
1
1
1
1
1
1
1
1
1
1
1
1
1
1
1
1
1
0.999999
0.99996
0.938202
0.111885
2.12035e-05
1.41865e-06
1.07494e-06
6.62908e-08
1.15408e-09
-5.46209e-08
1
1
1
1
1
1
1
1
1
1
1
1
1
1
1
1
1
1
1
1
0.999986
0.992588
0.470281
0.00326615
-2.41143e-05
-3.16799e-08
-2.4425e-07
1.0449e-08
1.50279e-11
-5.2594e-08
1
1
1
1
1
1
1
1
1
1
1
1
1
1
1
1
1
1
1
0.999994
0.999552
0.704584
-4.44256e-08
-7.1903e-06
1.78183e-12
-9.14993e-07
-1.07848e-07
-1.82002e-08
-1.50611e-08
-8.80623e-08
1
1
1
1
1
1
1
1
1
1
1
1
1
1
1
1
1
1
0.999999
0.999937
0.897854
0.139561
4.69268e-06
1.96209e-06
5.55881e-08
2.76378e-08
-2.12289e-08
-6.32646e-08
-1.34998e-07
-2.27108e-07
1
1
1
1
1
1
1
1
1
1
1
1
1
1
1
1
1
1
0.999996
0.999845
0.707974
0.00271911
2.54072e-05
7.35887e-06
5.12376e-06
-2.5037e-08
-1.5144e-07
-2.561e-07
-3.71872e-07
-4.43728e-07
1
1
1
1
1
1
1
1
1
1
1
1
1
1
1
1
1
0.999999
0.999965
0.968208
0.47494
0.00455206
1.19416e-05
1.30095e-05
9.07837e-06
-1.53168e-07
-3.27944e-07
-4.85483e-07
-6.07568e-07
-6.56752e-07
1
1
1
1
1
1
1
1
1
1
1
1
1
1
1
1
1
0.999999
0.999994
0.981477
0.38145
4.30743e-06
1.45059e-05
2.65343e-05
2.59586e-05
-1.91255e-07
-3.99078e-07
-6.0979e-07
-7.6049e-07
-8.23635e-07
1
1
1
1
1
1
1
1
1
1
1
1
1
1
1
1
1
1
0.999928
0.919562
0.244747
3.35678e-06
1.62154e-05
2.65606e-05
2.57584e-05
-1.71293e-07
-4.37683e-07
-6.85943e-07
-8.65018e-07
-9.61487e-07
1
1
1
1
1
1
1
1
1
1
1
1
1
1
1
1
1
0.999998
0.999931
0.92138
0.188292
2.55691e-06
1.24502e-05
9.13895e-06
2.50365e-05
-1.42371e-07
-3.89191e-07
-6.46998e-07
-8.59545e-07
-1.01042e-06
1
1
1
1
1
1
1
1
1
1
1
1
1
1
1
1
0.999999
0.999999
0.999974
0.834917
0.0820293
2.48533e-06
2.35062e-06
1.19583e-06
6.77517e-06
-8.45472e-08
-2.72058e-07
-5.23327e-07
-7.56195e-07
-9.6477e-07
1
1
1
1
1
1
1
1
1
1
1
1
1
1
1
1
1
0.999999
0.999862
0.683534
0.011809
2.59237e-06
1.36771e-06
1.59328e-08
-1.05787e-11
-2.48315e-08
-1.69933e-07
-3.75173e-07
-6.0754e-07
-8.64286e-07
1
1
1
1
1
1
1
1
1
1
1
1
1
1
1
1
1
0.999981
0.992806
0.465786
8.63946e-06
6.69556e-06
3.07674e-06
1.484e-05
1.5904e-08
3.60127e-11
-6.89066e-08
-2.21414e-07
-4.46315e-07
-7.42304e-07
1
1
1
1
1
1
1
1
1
1
1
1
1
1
1
1
1
0.999988
0.996772
0.532152
1.49914e-05
8.90865e-06
0.000110475
0.000165118
1.13922e-07
2.70506e-07
-1.73991e-08
-1.19418e-07
-3.15265e-07
-6.15779e-07
1
1
1
1
1
1
1
1
1
1
1
1
1
1
1
1
1
1
1
1
1
1
1
1
1
1
1
1
1
1
1
1
1
1
1
1
1
1
1
1
1
1
1
1
1
1
1
1
1
1
1
1
1
1
1
1
1
1
1
1
1
1
1
1
1
1
1
1
1
1
1
1
1
1
1
1
1
1
1
1
1
1
1
1
1
1
1
1
1
1
1
1
1
1
1
1
1
1
1
1
1
1
1
1
1
1
1
1
1
1
1
1
1
1
1
1
1
1
1
1
1
1
1
1
1
1
1
1
1
1
1
1
1
1
1
1
1
1
1
1
1
1
1
1
1
1
1
1
1
1
1
1
1
1
1
1
1
1
1
1
1
1
1
1
1
1
1
1
1
1
1
1
1
1
1
1
1
1
1
1
1
1
1
1
1
1
1
1
1
1
1
1
1
1
1
1
1
1
1
1
1
1
1
1
1
1
1
1
1
1
1
1
1
1
1
1
1
1
1
1
1
1
1
1
1
1
1
1
1
1
1
1
1
1
1
1
1
1
1
1
0.999999
0.999999
0.999999
1
1
0.999999
1
1
1
1
1
1
1
1
1
1
1
1
1
1
1
1
1
1
1
1
1
1
1
1
0.999992
0.999994
0.999992
0.999998
0.999997
0.999994
0.999999
1
1
1
1
1
1
1
1
1
1
1
1
1
1
1
1
1
1
1
1
1
1
1
0.999944
0.999952
0.999951
0.999976
0.999979
0.999992
1
1
1
1
1
1
1
1
1
1
1
1
1
1
1
1
1
1
1
1
1
1
1
1
0.999637
0.999654
0.999702
0.999837
0.999914
0.999994
1
1
1
1
1
1
1
1
1
1
1
1
1
1
1
1
1
1
1
1
1
1
1
1
0.997807
0.997896
0.998467
0.999146
0.999556
0.999959
1
1
1
1
1
1
1
1
1
1
1
1
1
1
1
1
1
1
1
1
1
1
1
1
0.923767
0.931868
0.97271
0.994942
0.99729
0.999675
0.999999
1
1
1
1
1
1
1
1
1
1
1
1
1
1
1
1
1
1
1
1
1
1
1
0.289421
0.304029
0.435395
0.648673
0.866167
0.997555
0.999989
1
1
1
1
1
1
1
1
1
1
1
1
1
1
1
1
1
1
1
1
1
1
1
1.4808e-13
2.54921e-12
1.68793e-08
0.026143
0.188951
0.804989
0.999669
1.00001
1
1
1
1
1
1
1
1
1
1
1
1
1
1
1
1
1
1
1
1
1
1
-3.43473e-08
-1.03993e-10
-1.25696e-12
1.50314e-08
6.1993e-08
0.122498
0.718083
0.999947
0.999999
1
1
1
1
1
1
1
1
1
1
1
1
1
1
1
1
1
1
1
1
1
-4.84741e-08
1.63964e-09
6.63157e-08
9.51968e-07
1.37353e-06
2.05835e-05
0.111912
0.938155
0.99996
0.999999
1
1
1
1
1
1
1
1
1
1
1
1
1
1
1
1
1
1
1
1
-4.36604e-08
1.59061e-11
3.03367e-08
-3.27134e-07
-3.18543e-08
-2.24244e-05
0.00326552
0.470711
0.992596
0.999986
1
1
1
1
1
1
1
1
1
1
1
1
1
1
1
1
1
1
1
1
-7.86871e-08
-1.54023e-08
-1.89685e-08
-1.05806e-07
-9.46476e-07
6.05933e-12
-7.94699e-06
-4.09101e-08
0.704735
0.999555
0.999994
1
1
1
1
1
1
1
1
1
1
1
1
1
1
1
1
1
1
1
-2.24097e-07
-1.36499e-07
-6.63966e-08
-2.07929e-08
4.64126e-08
9.35258e-08
2.10126e-06
4.95743e-06
0.139796
0.897906
0.999937
0.999999
1
1
1
1
1
1
1
1
1
1
1
1
1
1
1
1
1
1
-4.46471e-07
-3.80628e-07
-2.69508e-07
-1.63708e-07
-2.70981e-08
5.34985e-06
7.67819e-06
2.63874e-05
0.00258607
0.707557
0.999845
0.999996
1
1
1
1
1
1
1
1
1
1
1
1
1
1
1
1
1
1
-6.63908e-07
-6.20939e-07
-5.04928e-07
-3.46443e-07
-1.63318e-07
8.58762e-06
1.29327e-05
1.18216e-05
0.00438197
0.474094
0.96802
0.999965
0.999999
1
1
1
1
1
1
1
1
1
1
1
1
1
1
1
1
1
-8.32976e-07
-7.75979e-07
-6.32161e-07
-4.18563e-07
-1.96452e-07
2.50216e-05
2.56615e-05
1.35089e-05
3.46845e-06
0.382858
0.981591
0.999994
0.999999
1
1
1
1
1
1
1
1
1
1
1
1
1
1
1
1
1
-9.72292e-07
-8.80368e-07
-7.06653e-07
-4.55453e-07
-1.74788e-07
2.48408e-05
2.57081e-05
1.49003e-05
3.09776e-06
0.246754
0.919578
0.999928
1
1
1
1
1
1
1
1
1
1
1
1
1
1
1
1
1
1
-1.022e-06
-8.73032e-07
-6.62982e-07
-4.00266e-07
-1.43056e-07
2.39803e-05
1.11258e-05
1.39299e-05
2.72039e-06
0.189767
0.921965
0.999931
0.999998
1
1
1
1
1
1
1
1
1
1
1
1
1
1
1
1
1
-9.76618e-07
-7.66614e-07
-5.33607e-07
-2.75556e-07
-8.2695e-08
5.91869e-06
1.35934e-06
2.68984e-06
2.72371e-06
0.0829083
0.836552
0.999973
0.999999
0.999999
1
1
1
1
1
1
1
1
1
1
1
1
1
1
1
1
-8.76245e-07
-6.15836e-07
-3.81325e-07
-1.69755e-07
-2.51938e-08
-6.70435e-12
1.18812e-08
1.4489e-06
2.73784e-06
0.0115292
0.682828
0.999861
0.999999
1
1
1
1
1
1
1
1
1
1
1
1
1
1
1
1
1
-7.54503e-07
-4.53814e-07
-2.25659e-07
-6.76837e-08
3.86797e-11
1.18745e-08
3.78996e-05
5.51551e-06
7.22759e-06
9.08398e-06
0.467459
0.992925
0.999981
1
1
1
1
1
1
1
1
1
1
1
1
1
1
1
1
1
-6.28697e-07
-3.23995e-07
-1.24371e-07
-1.76588e-08
2.37111e-07
3.77071e-07
0.000139567
0.00014847
9.08402e-06
1.43856e-05
0.531609
0.996794
0.999987
1
1
1
1
1
1
1
1
1
1
1
1
1
1
1
1
1
0.0355359
0.0507101
0.0910444
0.161293
0.275771
0.446196
0.65688
0.863896
1
1
1
1
1
1
1
1
1
0.999989
0.999494
0.624182
0.00052417
2.48628e-05
0.000272027
0.000155389
8.53983e-07
7.24224e-07
1.02167e-09
-5.40201e-08
-2.1595e-07
-4.96558e-07
4.73998e-11
8.38738e-11
1.23504e-07
6.8151e-07
3.44239e-06
0.00392752
0.0423291
0.173083
0.471757
0.884643
1
1
1
1
1
1
1
0.999987
0.999474
0.655823
6.48653e-05
4.23406e-05
0.000282353
1.67197e-05
2.65582e-07
1.30968e-07
2.13178e-10
-3.63916e-08
-1.80812e-07
-4.42712e-07
4.73431e-11
1.27958e-11
8.60505e-11
2.11362e-09
4.04315e-08
3.44228e-06
3.2885e-05
0.000339488
0.0108238
0.240187
0.787344
0.994245
0.999841
0.999999
1
1
1
0.999988
0.999459
0.658452
9.92956e-05
0.000146229
0.00021991
8.70677e-06
1.01123e-07
6.66211e-09
-2.1613e-10
-2.29713e-08
-1.4976e-07
-3.89725e-07
9.88618e-12
1.22742e-11
2.16724e-11
1.14542e-10
3.7244e-09
3.72176e-08
4.64089e-06
0.000352663
0.0757893
0.450547
0.770989
0.981546
0.999997
0.999997
1
1
1
0.999995
0.999046
0.602189
0.00968933
2.99003e-05
6.35582e-06
3.53817e-06
1.57548e-06
1.13427e-08
1.44507e-10
-1.38085e-08
-1.2444e-07
-3.38533e-07
1.06853e-13
1.5539e-13
9.62752e-12
5.87701e-11
8.64428e-11
7.7783e-09
8.55006e-05
0.00530088
0.0122294
0.0543695
0.637089
0.926383
0.989116
1
1
1
1
0.999943
0.994751
0.486397
4.53559e-05
3.2644e-05
1.87188e-05
1.41432e-05
1.78258e-06
8.98385e-09
-2.30297e-10
-1.0226e-08
-1.05501e-07
-2.89718e-07
1.96971e-16
2.37711e-15
2.60877e-13
1.08151e-11
2.31237e-11
1.56641e-09
7.00824e-05
0.000778813
4.59497e-06
0.000257395
0.0718537
0.225857
0.466618
0.919041
1
1
1
0.999998
0.997093
0.342021
6.32185e-05
9.55549e-05
4.49125e-05
3.15837e-06
2.33189e-08
1.57624e-09
3.60976e-13
-1.30177e-08
-9.32034e-08
-2.432e-07
4.69392e-19
4.65718e-17
9.17782e-15
1.57961e-12
1.55818e-11
6.52648e-10
3.96008e-08
8.14937e-07
6.36145e-07
2.94531e-06
9.27379e-06
0.000115862
0.0337427
0.486137
1
1
1
0.999988
0.961502
0.216888
0.000240141
0.000112629
9.7199e-06
6.03283e-08
3.24005e-09
6.7048e-11
1.47138e-12
-1.92721e-08
-8.6523e-08
-1.97596e-07
3.78279e-21
1.39814e-18
5.32724e-16
1.66606e-13
1.35369e-11
3.58726e-11
3.37535e-09
3.31174e-07
6.21542e-08
2.36725e-07
7.56917e-06
0.000166125
0.016425
0.32206
0.890197
0.999999
0.999998
0.999935
0.898587
0.0788877
6.37278e-05
3.43029e-06
1.0059e-07
8.67441e-09
5.95865e-10
7.32279e-11
-2.96137e-09
-2.80669e-08
-7.93612e-08
-1.48697e-07
1.0687e-22
7.66508e-20
4.26018e-17
1.64377e-14
3.94268e-12
1.27741e-11
2.79058e-10
2.59194e-08
2.32889e-08
4.26063e-09
1.08413e-05
0.000517789
0.00163269
0.00151601
0.517957
0.999997
0.999991
0.999419
0.692838
0.00958212
1.60601e-05
3.62936e-06
8.48687e-07
3.64864e-07
5.92917e-08
2.03369e-09
-6.36833e-09
-3.0974e-08
-6.25877e-08
-9.70569e-08
6.97751e-24
6.30255e-21
3.8838e-18
1.5577e-15
3.72642e-13
2.59805e-11
4.53951e-11
1.99637e-09
1.80657e-09
4.09417e-10
2.61547e-07
1.04637e-05
2.18765e-05
1.42913e-07
0.167379
0.864021
0.999807
0.972107
0.0489945
0.000397238
4.90714e-05
6.18192e-06
1.39908e-06
6.8985e-07
1.15779e-07
1.1314e-08
-1.85925e-09
-2.00322e-08
-3.80135e-08
-5.43247e-08
6.20115e-25
5.84669e-22
3.68365e-19
1.49634e-16
3.61813e-14
4.42694e-12
1.67798e-11
1.86514e-10
2.23142e-10
3.89244e-10
2.60867e-10
1.65427e-08
1.78129e-06
1.05452e-08
3.13407e-07
0.264425
0.857828
0.583603
0.0383418
-3.38489e-05
-8.12669e-06
-1.24518e-06
-9.78304e-09
-8.63912e-10
-2.7781e-10
8.74789e-11
4.13497e-11
-7.13872e-09
-1.83329e-08
-2.67899e-08
5.76725e-26
5.48555e-23
3.50365e-20
1.4524e-17
3.62464e-15
5.06456e-13
1.86411e-11
3.82005e-11
7.47044e-11
1.19834e-10
8.15742e-11
4.2381e-10
-9.36605e-10
-8.29689e-11
-2.44536e-08
0.00227647
0.129589
0.00707977
3.72312e-07
4.15275e-08
2.38635e-08
5.07075e-09
5.68191e-10
8.89375e-11
5.44619e-13
9.33269e-14
-7.134e-10
-3.66644e-09
-8.00011e-09
-1.12586e-08
4.9881e-27
4.73752e-24
3.04423e-21
1.28065e-18
3.2925e-16
4.84029e-14
3.92649e-12
1.54911e-11
4.42764e-11
7.25058e-11
5.04017e-11
4.81142e-11
7.57959e-11
-4.50195e-12
-4.1347e-09
1.19463e-06
0.000420377
0.000906651
6.11625e-05
6.99361e-08
1.34815e-09
7.2063e-11
6.54779e-11
5.36539e-11
4.96344e-11
3.07183e-12
-3.02866e-10
-1.4478e-09
-2.72575e-09
-3.29126e-09
3.82491e-28
3.62481e-25
2.335e-22
9.91277e-20
2.60963e-17
4.01739e-15
3.51962e-13
1.30934e-11
2.22831e-11
3.261e-11
2.04809e-11
2.82731e-11
3.02611e-11
1.17536e-11
-1.73338e-09
-3.12187e-09
1.503e-05
2.50125e-05
2.53892e-06
-1.37625e-08
5.96987e-11
1.30521e-11
8.01144e-12
3.4355e-12
9.22611e-13
2.31244e-13
-4.44295e-11
-1.85836e-10
-3.88755e-10
-5.19689e-10
2.51426e-29
2.38637e-26
1.5434e-23
6.60331e-21
1.7737e-18
2.85128e-16
2.70045e-14
1.6501e-12
6.19076e-12
9.67231e-12
5.7528e-12
6.52813e-12
2.62132e-11
1.08506e-11
-2.70547e-11
-1.87519e-09
2.06162e-07
3.11271e-07
3.5299e-08
4.81069e-11
3.99067e-11
4.31335e-11
4.76986e-12
3.51294e-13
3.63476e-14
1.47502e-14
7.43335e-15
1.95176e-15
2.13719e-16
1.05448e-17
1.38321e-30
1.32349e-27
8.63804e-25
3.7349e-22
1.02375e-19
1.71619e-17
1.7596e-15
1.52291e-13
1.11542e-12
2.0492e-12
1.24752e-12
1.05973e-12
1.37441e-12
1.13551e-12
8.57942e-12
-4.20285e-11
-3.08379e-10
6.25227e-12
2.12269e-11
4.2226e-12
5.986e-12
8.07114e-13
1.13568e-13
1.40742e-14
1.63142e-15
3.20407e-16
1.4053e-16
6.22036e-17
2.03018e-17
4.02428e-18
6.26364e-32
6.09208e-29
4.03991e-26
1.77444e-23
4.97719e-21
8.70033e-19
9.65805e-17
1.07232e-14
1.40864e-13
3.22706e-13
2.07483e-13
1.62439e-13
1.3005e-13
1.1059e-13
1.32698e-12
1.59323e-11
6.39554e-13
1.3228e-14
4.24072e-13
5.18199e-13
1.11379e-13
1.55119e-14
1.59688e-15
1.35024e-16
1.01464e-17
1.25525e-18
2.99992e-19
6.50058e-20
8.3466e-21
4.56036e-22
2.30927e-33
2.30329e-30
1.56392e-27
7.02428e-25
2.02583e-22
3.69895e-20
4.45424e-18
5.92831e-16
1.29167e-14
3.83418e-14
2.66011e-14
1.9904e-14
1.32918e-14
8.91871e-15
1.26878e-14
1.51865e-14
4.40412e-15
9.60446e-16
1.78777e-16
2.96964e-17
4.6201e-18
7.33551e-19
1.22147e-19
2.25316e-20
4.88427e-21
1.21281e-21
3.09335e-22
6.58189e-23
9.5461e-24
6.83122e-25
6.87838e-35
7.10064e-32
4.97694e-29
2.30257e-26
6.86831e-24
1.31381e-21
1.72308e-19
2.62479e-17
8.76534e-16
3.44404e-15
2.61952e-15
1.833e-15
1.01524e-15
4.94226e-16
2.17103e-16
5.44688e-17
1.19746e-17
2.5904e-18
5.46894e-19
1.10574e-19
2.11619e-20
3.77947e-21
6.27329e-22
9.40878e-23
1.28238e-23
1.57288e-24
1.76221e-25
1.86063e-26
1.70573e-27
9.66224e-29
1.64585e-36
1.77569e-33
1.29562e-30
6.22049e-28
1.93093e-25
3.88173e-23
5.57527e-21
9.42283e-19
4.453e-17
2.32827e-16
1.95812e-16
1.23479e-16
5.27734e-17
1.71335e-17
3.58839e-18
6.80549e-19
1.28918e-19
2.45365e-20
4.55064e-21
8.00247e-22
1.31218e-22
1.98532e-23
2.74172e-24
3.44471e-25
3.82952e-26
3.7009e-27
2.90477e-28
1.64762e-29
5.7226e-31
9.24409e-33
3.1488e-38
3.58825e-35
2.74942e-32
1.38018e-29
4.48454e-27
9.49646e-25
1.50305e-22
2.75816e-20
1.70634e-18
1.17536e-17
1.091e-17
5.91472e-18
1.73677e-18
3.56157e-19
5.85321e-20
8.81674e-21
1.29779e-21
1.89767e-22
2.72511e-23
3.77444e-24
4.95808e-25
6.07535e-26
6.82915e-27
6.89318e-28
6.14295e-29
4.69873e-30
3.02075e-31
1.56756e-32
5.89677e-34
1.18219e-35
4.79431e-40
5.84017e-37
4.74404e-34
2.50908e-31
8.5791e-29
1.91542e-26
3.36322e-24
6.57651e-22
4.95521e-20
4.38822e-19
4.4252e-19
1.93583e-19
3.75702e-20
5.12347e-21
6.21592e-22
7.39051e-23
8.75471e-24
1.02242e-24
1.1559e-25
1.24479e-26
1.26005e-27
1.18567e-28
1.02486e-29
8.0235e-31
5.56558e-32
3.32243e-33
1.62614e-34
6.06188e-36
1.52026e-37
1.92233e-39
5.77882e-42
7.63163e-39
6.64317e-36
3.73224e-33
1.34941e-30
3.17344e-28
6.21598e-26
1.27187e-23
1.09321e-21
1.19827e-20
1.26951e-20
4.07179e-21
5.15689e-22
5.36113e-23
4.94324e-24
4.36102e-25
3.80605e-26
3.30173e-27
2.81723e-28
2.32407e-29
1.82049e-30
1.33048e-31
8.91537e-33
5.37626e-34
2.85676e-35
1.30126e-36
4.89119e-38
1.42627e-39
2.87008e-41
2.9687e-43
5.47758e-44
7.97899e-41
7.53908e-38
4.54128e-35
1.7445e-32
4.30874e-30
9.44324e-28
1.98272e-25
1.833e-23
2.36273e-22
2.48543e-22
4.95836e-23
4.20209e-24
3.17454e-25
2.30197e-26
1.62058e-27
1.10805e-28
7.3255e-30
4.64739e-31
2.80445e-32
1.59476e-33
8.45744e-35
4.13102e-36
1.8291e-37
7.18663e-39
2.43347e-40
6.80652e-42
1.47178e-43
2.18208e-45
1.65164e-47
4.04517e-46
6.64546e-43
6.92722e-40
4.52555e-37
1.85946e-34
4.87074e-32
1.17398e-29
2.47678e-27
2.33305e-25
3.3149e-24
3.16807e-24
3.37267e-25
2.18536e-26
1.16715e-27
5.9441e-29
3.03067e-30
1.55131e-31
7.85291e-33
3.85354e-34
1.79927e-35
7.86332e-37
3.16851e-38
1.15956e-39
3.78987e-41
1.08378e-42
2.63867e-44
5.25795e-46
8.05022e-48
8.42056e-50
4.48119e-52
2.29414e-48
4.38041e-45
5.1472e-42
3.70182e-39
1.6412e-36
4.60071e-34
1.19181e-31
2.46807e-29
2.25021e-27
3.25505e-26
2.45402e-26
1.31511e-27
6.29879e-29
2.56944e-30
9.54276e-32
3.36574e-33
1.15049e-34
3.83401e-36
1.24423e-37
3.90961e-39
1.17824e-40
3.36124e-42
8.92443e-44
2.1595e-45
4.64076e-47
8.57101e-49
1.30109e-50
1.5172e-52
1.20369e-54
4.81649e-57
9.7468e-51
2.25924e-47
3.08402e-44
2.49189e-41
1.20601e-38
3.63684e-36
9.88983e-34
1.96029e-31
1.64454e-29
2.20021e-28
1.02847e-28
2.70575e-30
7.5129e-32
2.16544e-33
6.18185e-35
1.70948e-36
4.53095e-38
1.14296e-39
2.72445e-41
6.08719e-43
1.26313e-44
2.40859e-46
4.16775e-48
6.44377e-50
8.72593e-52
1.00718e-53
9.52367e-56
6.92285e-58
3.43655e-60
8.64283e-63
2.95927e-53
8.92169e-50
1.47981e-46
1.3837e-43
7.4357e-41
2.42049e-38
6.74881e-36
1.24816e-33
9.16258e-32
1.01225e-30
1.8884e-31
3.66482e-33
5.64251e-35
8.38986e-37
1.28885e-38
2.08338e-40
3.5021e-42
5.95636e-44
9.9484e-46
1.59023e-47
2.38264e-49
3.28772e-51
4.10925e-53
4.57027e-55
4.42767e-57
3.63295e-59
2.42462e-61
1.2342e-63
4.25293e-66
7.3526e-69
5.79631e-56
2.57966e-52
5.59491e-49
6.34134e-46
3.8876e-43
1.37215e-40
3.84071e-38
6.47627e-36
3.96847e-34
3.19622e-33
1.65486e-34
2.36855e-36
2.43299e-38
2.19106e-40
1.85332e-42
1.51079e-44
1.19641e-46
9.19989e-49
6.83798e-51
4.88024e-53
3.31868e-55
2.13158e-57
1.2798e-59
7.08708e-62
3.55261e-64
1.56835e-66
5.84679e-69
1.71977e-71
3.52478e-74
3.71161e-77
5.61828e-59
4.96023e-55
1.60743e-51
2.38636e-48
1.74627e-45
6.75163e-43
1.8692e-40
2.8274e-38
1.39528e-36
7.35562e-36
9.24701e-38
5.00558e-40
1.91794e-42
6.27881e-45
1.88868e-47
5.38392e-50
1.47166e-52
3.86501e-55
9.72095e-58
2.32656e-60
5.25422e-63
1.10825e-65
2.15631e-68
3.81073e-71
5.99428e-74
8.16146e-77
9.23042e-80
8.11655e-83
4.91141e-86
1.51091e-89
-5.11228e-07
-2.2595e-07
-6.01108e-08
1.16693e-09
6.312e-07
4.74675e-07
0.00012987
0.000254542
2.68783e-05
0.000478036
0.623042
0.999489
0.999988
1
1
1
1
1
1
1
1
1
0.863917
0.656853
0.446155
0.275756
0.16127
0.0910408
0.0506997
0.0355304
-4.5865e-07
-1.91294e-07
-4.27738e-08
2.82725e-10
1.79665e-07
2.44236e-07
1.30112e-05
0.000259778
4.18443e-05
6.50809e-05
0.650547
0.999466
0.999986
1
1
1
1
1
1
1
0.884149
0.471222
0.172998
0.0422999
0.00392303
3.4294e-06
6.80292e-07
1.23337e-07
8.31769e-11
4.74076e-11
-4.0636e-07
-1.60501e-07
-2.93293e-08
2.10941e-10
5.20713e-09
6.00188e-08
8.90608e-06
0.000180853
0.000136079
0.000105879
0.659964
0.99946
0.999988
1
1
1
0.999996
0.999852
0.994415
0.784737
0.236921
0.0102736
0.000336089
3.25528e-05
3.42934e-06
3.57778e-08
2.09269e-09
8.53654e-11
1.27698e-11
4.73515e-11
-3.54857e-07
-1.3492e-07
-1.99718e-08
1.47761e-10
8.10861e-09
1.45863e-06
3.43837e-06
5.8135e-06
3.3602e-05
0.0092269
0.601096
0.999028
0.999994
1
1
1
0.999996
0.999995
0.98123
0.768313
0.447274
0.0713726
0.0003158
3.93172e-06
3.4209e-08
3.65819e-09
1.14767e-10
2.16146e-11
1.22535e-11
9.88629e-12
-3.04465e-07
-1.15032e-07
-1.56866e-08
-2.26482e-10
7.38513e-09
1.39105e-06
1.44898e-05
2.30579e-05
4.18745e-05
5.6776e-05
0.48876
0.99483
0.999939
1
1
1
1
0.991316
0.930986
0.64151
0.0543252
0.0133791
0.00490073
6.11292e-05
6.46729e-09
8.97118e-11
5.45875e-11
9.58923e-12
1.54799e-13
1.06873e-13
-2.55013e-07
-1.01038e-07
-1.71363e-08
1.27436e-11
6.74932e-10
2.68903e-08
5.03245e-06
6.28997e-05
9.95031e-05
7.05919e-05
0.33957
0.996994
0.999997
1
1
1
0.91936
0.471217
0.234543
0.0768228
0.000337697
4.05498e-05
0.000728551
6.12081e-05
1.33898e-09
2.30378e-11
9.77613e-12
2.54537e-13
2.35407e-15
1.96933e-16
-2.05522e-07
-9.20981e-08
-2.25079e-08
-7.84543e-11
5.54504e-11
2.85299e-09
5.2303e-08
4.294e-06
0.000117965
0.000302234
0.213095
0.95966
0.999987
1
1
1
0.48138
0.033446
0.000122807
1.06568e-05
4.05249e-06
4.48964e-07
8.88406e-07
8.96287e-07
2.67732e-09
1.34098e-11
1.45789e-12
8.81921e-15
4.56896e-17
4.67316e-19
-1.52723e-07
-8.24339e-08
-3.00587e-08
-3.04496e-09
3.31549e-11
4.76862e-10
1.28953e-08
1.61059e-07
3.42204e-06
6.75706e-05
0.0798026
0.899192
0.999935
0.999997
0.999999
0.888253
0.321631
0.0162311
0.000170706
7.95739e-06
2.63158e-07
8.20169e-08
3.41903e-07
3.23922e-09
8.21564e-11
1.373e-11
1.63254e-13
5.26113e-16
1.38498e-18
3.74794e-21
-9.85828e-08
-6.37438e-08
-3.16514e-08
-6.46046e-09
1.59347e-09
4.8692e-08
3.19508e-07
1.01934e-06
6.43862e-06
2.00248e-05
0.00889637
0.692571
0.999379
0.999991
0.999997
0.514633
0.00150999
0.00161947
0.000525672
1.26883e-05
5.04479e-09
2.51105e-08
2.91619e-08
2.73765e-10
1.85453e-11
3.84075e-12
1.71365e-14
4.49343e-17
8.11285e-20
1.12029e-22
-5.48505e-08
-3.84004e-08
-2.01361e-08
-2.247e-09
9.21517e-09
9.63702e-08
5.42243e-07
1.04315e-06
6.10244e-06
5.12646e-05
0.000400458
0.0512746
0.97384
0.999806
0.863881
0.167261
1.78144e-07
2.11911e-05
1.06634e-05
3.51246e-07
4.15264e-10
1.75372e-09
2.13127e-09
4.71291e-11
2.17905e-11
4.01798e-13
1.72008e-15
4.35739e-18
7.15897e-21
7.9848e-24
-2.6928e-08
-1.85021e-08
-7.37613e-09
4.19411e-11
8.73859e-11
-1.56949e-10
-6.55671e-10
-7.60745e-09
-7.71232e-07
-8.21976e-06
-3.34153e-05
0.0381426
0.581016
0.858484
0.263278
2.98523e-07
9.51092e-09
1.53906e-06
1.7042e-08
2.70842e-10
3.97412e-10
2.02523e-10
1.66208e-10
1.62097e-11
4.68103e-12
4.01849e-14
1.70508e-16
4.27428e-19
6.89701e-22
7.43332e-25
-1.12332e-08
-8.02081e-09
-3.64281e-09
-6.90104e-10
1.14739e-13
5.59344e-13
9.75452e-11
5.43473e-10
4.88996e-09
1.90139e-08
3.957e-08
3.66824e-07
0.00646573
0.130014
0.00218342
-2.65077e-08
-1.39352e-10
-8.78524e-10
4.06507e-10
9.02806e-11
1.22532e-10
7.78838e-11
3.60289e-11
1.79281e-11
5.31544e-13
4.02795e-15
1.66014e-17
4.08941e-20
6.52575e-23
6.99006e-26
-3.25071e-09
-2.72057e-09
-1.43196e-09
-2.92972e-10
2.95239e-12
4.59796e-11
5.34048e-11
6.62002e-11
8.43079e-11
1.57326e-09
7.02769e-08
5.98359e-05
0.000902896
0.000420291
1.19145e-06
-4.23756e-09
-2.81542e-12
6.87063e-11
4.77554e-11
4.55821e-11
7.7191e-11
5.06611e-11
1.54218e-11
3.75653e-12
5.18401e-14
3.69001e-16
1.47164e-18
3.56808e-21
5.65459e-24
6.05732e-27
-5.10093e-10
-3.84866e-10
-1.81766e-10
-4.29486e-11
2.31634e-13
9.16301e-13
3.46375e-12
8.71592e-12
1.47714e-11
6.64491e-11
-1.30099e-08
2.51404e-06
2.52812e-05
1.50164e-05
-3.50163e-09
-1.72678e-09
1.15731e-11
2.96386e-11
2.82018e-11
2.32745e-11
3.58279e-11
2.46838e-11
1.32663e-11
3.58123e-13
4.41165e-15
2.96136e-17
1.14846e-19
2.753e-22
4.3432e-25
4.65026e-28
1.35166e-17
2.40036e-16
2.05587e-15
7.69303e-15
1.52311e-14
3.76045e-14
3.54622e-13
4.6834e-12
4.2057e-11
3.92629e-11
4.82298e-11
3.57479e-08
3.16059e-07
2.06536e-07
-1.83867e-09
-2.73587e-11
1.07923e-11
2.31725e-11
6.87328e-12
6.56532e-12
1.08871e-11
6.64458e-12
1.71213e-12
2.87867e-14
3.20283e-16
2.04378e-18
7.74632e-21
1.83878e-23
2.88223e-26
3.07065e-29
4.57888e-18
2.24314e-17
6.81009e-17
1.53638e-16
3.43901e-16
1.64416e-15
1.37675e-14
1.10742e-13
7.93965e-13
5.98309e-12
4.26805e-12
2.11792e-11
6.31824e-12
-2.93896e-10
-4.42168e-11
7.88817e-12
1.13335e-12
1.31937e-12
1.13226e-12
1.43027e-12
2.35129e-12
1.18079e-12
1.60066e-13
1.93427e-15
1.96717e-17
1.20072e-19
4.45375e-22
1.04396e-24
1.61634e-27
1.70087e-30
5.75603e-22
1.02327e-20
7.92023e-20
3.62715e-19
1.43279e-18
1.03627e-17
1.31595e-16
1.52694e-15
1.45913e-14
1.03289e-13
4.7585e-13
3.87975e-13
1.3052e-14
7.38236e-13
1.56239e-11
1.11429e-12
1.11624e-13
1.32659e-13
1.74068e-13
2.37921e-13
3.76101e-13
1.49398e-13
1.14035e-14
1.0894e-16
1.01872e-18
5.95728e-21
2.15581e-23
4.95877e-26
7.52296e-29
7.74755e-32
1.01546e-24
1.41954e-23
9.61526e-23
4.35179e-22
1.5965e-21
5.8382e-21
2.45037e-20
1.25074e-19
7.25641e-19
4.42628e-18
2.74492e-17
1.59654e-16
8.29809e-16
3.68482e-15
1.23367e-14
1.11472e-14
9.10578e-15
1.37725e-14
2.13631e-14
3.04111e-14
4.52491e-14
1.38782e-14
6.40894e-16
5.14913e-18
4.42946e-20
2.47551e-22
8.68648e-25
1.9453e-27
2.86706e-30
2.86319e-33
1.68264e-28
2.65915e-27
2.61281e-26
2.22045e-25
1.8063e-24
1.38679e-23
9.88184e-23
6.52209e-22
3.92016e-21
2.19551e-20
1.14793e-19
5.67273e-19
2.67725e-18
1.22841e-17
5.52206e-17
2.17527e-16
5.10782e-16
1.06127e-15
1.97244e-15
2.98083e-15
4.10386e-15
9.60519e-16
2.90269e-17
2.03911e-19
1.60688e-21
8.54327e-24
2.88622e-26
6.243e-29
8.86497e-32
8.50837e-35
1.09725e-32
6.45525e-31
1.79082e-29
3.0883e-28
3.89259e-27
4.01291e-26
3.6096e-25
2.87796e-24
2.08986e-23
1.38584e-22
8.47977e-22
4.83575e-21
2.61185e-20
1.3723e-19
7.22768e-19
3.79125e-18
1.79909e-17
5.57514e-17
1.3339e-16
2.21676e-16
2.79347e-16
4.99488e-17
1.07103e-18
6.73543e-21
4.83019e-23
2.43171e-25
7.85622e-28
1.62927e-30
2.21144e-33
2.0216e-36
1.3044e-35
6.32514e-34
1.6666e-32
3.20182e-31
4.97706e-30
6.51025e-29
7.31516e-28
7.26082e-27
6.47286e-26
5.2937e-25
4.03804e-24
2.92068e-23
2.03692e-22
1.39461e-21
9.4798e-21
6.29041e-20
3.82011e-19
1.86076e-18
6.42367e-18
1.22903e-17
1.41628e-17
1.9616e-18
3.22732e-20
1.84543e-22
1.19575e-24
5.68182e-27
1.74533e-29
3.44666e-32
4.43671e-35
3.82604e-38
2.16201e-39
1.66315e-37
6.56794e-36
1.75432e-34
3.57789e-33
5.99104e-32
8.64036e-31
1.1047e-29
1.27975e-28
1.36228e-27
1.34821e-26
1.25415e-25
1.11093e-24
9.52068e-24
8.03668e-23
6.75363e-22
5.56224e-21
4.08114e-20
2.11749e-19
4.96405e-19
5.29805e-19
5.83418e-20
7.9052e-22
4.17409e-24
2.42615e-26
1.08675e-28
3.15896e-31
5.90072e-34
7.14331e-37
5.74781e-40
3.40801e-43
3.19775e-41
1.57237e-39
5.36609e-38
1.42443e-36
3.12476e-35
5.88103e-34
9.75712e-33
1.45691e-31
1.99415e-30
2.54556e-29
3.08411e-28
3.61179e-27
4.16145e-26
4.77052e-25
5.41781e-24
5.89351e-23
5.68294e-22
4.49897e-21
1.41977e-20
1.44661e-20
1.3152e-21
1.56197e-23
7.75736e-26
4.02067e-28
1.69949e-30
4.65613e-33
8.16888e-36
9.21116e-39
6.82563e-42
1.94638e-47
2.48171e-45
1.65003e-43
7.56705e-42
2.68956e-40
7.9072e-39
2.00529e-37
4.51642e-36
9.22903e-35
1.73871e-33
3.05826e-32
5.07499e-31
8.01954e-30
1.21724e-28
1.7874e-27
2.54859e-26
3.52286e-25
4.66663e-24
5.55409e-23
2.77596e-22
2.84741e-22
2.24513e-23
2.47111e-25
1.17855e-27
5.4334e-30
2.17418e-32
5.59285e-35
9.14139e-38
9.48923e-41
6.37046e-44
5.36695e-52
9.63458e-50
9.04536e-48
5.85116e-46
2.92007e-44
1.19558e-42
4.17417e-41
1.27646e-39
3.48844e-38
8.66153e-37
1.98298e-35
4.24826e-34
8.65596e-33
1.70888e-31
3.33626e-30
6.54518e-29
1.28851e-27
2.42704e-26
3.77546e-25
3.54305e-24
3.98288e-24
2.89579e-25
3.11003e-27
1.45816e-29
6.05419e-32
2.28337e-34
5.48592e-37
8.26787e-40
7.7821e-43
4.63287e-46
6.08685e-57
1.43945e-54
1.77318e-52
1.50004e-50
9.78602e-49
5.25664e-47
2.42848e-45
9.96626e-44
3.72831e-42
1.29877e-40
4.28758e-39
1.36006e-37
4.18738e-36
1.25892e-34
3.69997e-33
1.05636e-31
2.86855e-30
7.08997e-29
1.48485e-27
2.76033e-26
3.89617e-26
2.81534e-27
3.10107e-29
1.46762e-31
5.62398e-34
1.98032e-36
4.4081e-39
6.04078e-42
5.05064e-45
2.58911e-48
1.07346e-62
3.98728e-60
7.80159e-58
1.05555e-55
1.10483e-53
9.51076e-52
6.99778e-50
4.51926e-48
2.61243e-46
1.37254e-44
6.63634e-43
2.98431e-41
1.25966e-39
5.03057e-38
1.91368e-36
6.976e-35
2.45704e-33
8.51905e-32
3.05053e-30
1.17477e-28
2.6231e-28
2.06276e-29
2.45011e-31
1.20353e-33
4.36575e-36
1.42772e-38
2.91159e-41
3.55742e-44
2.56597e-47
1.08517e-50
9.29763e-69
5.04397e-66
1.42679e-63
2.76451e-61
4.10795e-59
4.98055e-57
5.12405e-55
4.59755e-53
3.67327e-51
2.65898e-49
1.77224e-47
1.10642e-45
6.60341e-44
3.86564e-42
2.28861e-40
1.41107e-38
9.19202e-37
6.22649e-35
4.11326e-33
2.20007e-31
1.20248e-30
1.14625e-31
1.54451e-33
8.09669e-36
2.85121e-38
8.63004e-41
1.58554e-43
1.6777e-46
9.99037e-50
3.25582e-53
4.89296e-77
4.32998e-74
2.03699e-71
6.74015e-69
1.76722e-66
3.92535e-64
7.70431e-62
1.374e-59
2.26921e-57
3.51705e-55
5.16697e-53
7.2545e-51
9.80398e-49
1.28313e-46
1.63313e-44
2.02172e-42
2.41462e-40
2.71204e-38
2.6748e-36
1.8991e-34
3.78749e-33
4.92943e-34
7.90635e-36
4.53497e-38
1.58585e-40
4.4224e-43
7.12494e-46
6.23613e-49
2.85214e-52
6.31955e-56
1.79078e-89
5.46179e-86
8.79681e-83
9.86678e-80
8.65475e-77
6.3286e-74
4.01579e-71
2.27275e-68
1.17038e-65
5.56875e-63
2.4786e-60
1.04255e-57
4.17891e-55
1.60636e-52
5.94044e-50
2.10904e-47
7.10393e-45
2.20105e-42
5.83225e-40
1.09371e-37
8.70144e-36
1.7147e-36
3.39753e-38
2.17043e-40
7.65657e-43
1.94695e-45
2.62921e-48
1.76245e-51
5.42908e-55
6.11249e-59
)
;

boundaryField
{
    leftWall
    {
        type            zeroGradient;
    }
    rightWall
    {
        type            zeroGradient;
    }
    lowerWall
    {
        type            zeroGradient;
    }
    atmosphere
    {
        type            inletOutlet;
        inletValue      uniform 0;
        value           nonuniform List<scalar> 
120
(
0.0355359
4.73998e-11
4.73431e-11
9.88618e-12
1.06853e-13
1.96971e-16
4.69392e-19
3.78279e-21
1.0687e-22
6.97751e-24
6.20115e-25
5.76725e-26
4.9881e-27
3.82491e-28
2.51426e-29
1.38321e-30
6.26364e-32
2.30927e-33
6.87838e-35
1.64585e-36
3.1488e-38
4.79431e-40
5.77882e-42
5.47758e-44
4.04517e-46
2.29414e-48
9.7468e-51
2.95927e-53
5.79631e-56
5.61828e-59
5.61828e-59
4.96023e-55
1.60743e-51
2.38636e-48
1.74627e-45
6.75163e-43
1.8692e-40
2.8274e-38
1.39528e-36
7.35562e-36
0
0
0
0
0
0
0
0
0
0
0
0
0
0
0
0
0
0
0
0
0
0
0
0
0
0
0
0
0
0
0
0
0
0
0
0
0
0
0
0
8.70144e-36
1.7147e-36
3.39753e-38
2.17043e-40
7.65657e-43
1.94695e-45
2.62921e-48
1.76245e-51
5.42908e-55
6.11249e-59
0.0355304
4.74076e-11
4.73515e-11
9.88629e-12
1.06873e-13
1.96933e-16
4.67316e-19
3.74794e-21
1.12029e-22
7.9848e-24
7.43332e-25
6.99006e-26
6.05732e-27
4.65026e-28