/*--------------------------------*- C++ -*----------------------------------*\
| =========                 |                                                 |
| \\      /  F ield         | OpenFOAM: The Open Source CFD Toolbox           |
|  \\    /   O peration     | Version:  2.4.0                                 |
|   \\  /    A nd           | Web:      www.OpenFOAM.org                      |
|    \\/     M anipulation  |                                                 |
\*---------------------------------------------------------------------------*/
FoamFile
{
    version     2.0;
    format      ascii;
    class       volScalarField;
    location    "0.17";
    object      alpha.water;
}
// * * * * * * * * * * * * * * * * * * * * * * * * * * * * * * * * * * * * * //

dimensions      [0 0 0 0 0 0 0];

internalField   nonuniform List<scalar> 
3600
(
1
1
1
1
1
1
1
1
1
1
1
1
1
1
1
1
0.99781
0.994286
0.994286
0.996899
0.999841
0.999495
0.989398
0.985942
0.985935
0.985935
0.985931
0.98592
0.985898
0.98588
1
1
1
1
1
1
1
1
1
1
1
1
1
1
1
1
0.998146
0.994927
0.998233
0.999814
0.99985
0.999428
0.999005
0.998999
0.998706
0.997459
0.997989
0.999002
0.998489
0.998764
1
1
1
1
1
1
1
1
1
1
1
1
1
1
1
0.999999
0.998974
0.997369
0.998862
0.999861
0.999861
0.999159
0.997876
0.998426
0.999558
0.999977
0.999991
0.999992
0.999992
0.999993
1
1
1
1
1
1
1
1
1
1
1
1
1
1
1
1
0.999759
0.999107
0.999629
0.999698
0.997396
0.995118
0.995118
0.995118
0.99512
0.997797
0.998621
0.999991
0.999961
0.999814
1
1
1
1
1
1
1
1
1
1
1
1
1
1
1
1
1
0.999901
0.999898
0.998127
0.995124
0.995121
0.995551
0.995415
0.995161
0.995214
0.995277
0.998462
0.99989
0.999697
1
1
1
1
1
1
1
1
1
1
1
1
1
1
1
1
1
0.999983
0.999842
0.998958
0.996623
0.997634
0.999685
0.999608
0.999042
0.99875
0.995577
0.995581
0.999765
0.99968
1
1
1
1
1
1
1
1
1
1
1
1
1
1
1
1
1
0.999999
0.999882
0.999957
0.999941
0.999904
0.999674
0.999327
0.999829
0.999908
0.999538
0.998663
0.999662
0.999701
1
1
1
1
1
1
1
1
1
1
1
1
1
1
1
1
1
1
0.999996
0.999995
0.999994
0.999797
0.998049
0.998049
0.998194
0.999866
0.999984
0.999984
0.99991
0.9997
1
1
1
1
1
1
1
1
1
1
1
1
1
1
1
1
1
1
1
0.999346
0.998768
0.998064
0.998057
0.998113
0.998952
0.999883
0.999984
0.999985
0.999936
0.999701
1
1
1
1
1
1
1
1
1
1
1
1
1
1
1
1
1
1
1
0.999324
0.998073
0.998069
0.998535
1
0.999999
0.999926
0.999962
0.999985
0.999884
0.999702
1
1
1
1
1
1
1
1
1
1
1
1
1
1
1
1
1
1
1
0.999934
0.999337
0.9997
1
1
0.999986
0.999926
0.999945
0.999986
0.999911
0.999803
1
1
1
1
1
1
1
1
1
1
1
1
1
1
1
1
1
1
1
1
1
1
1
1
0.999982
0.999929
0.999971
1
0.999912
0.999999
1
1
1
1
1
1
1
1
1
1
1
1
1
1
1
1
1
1
1
1
1
1
1
1
1
1
1
1
0.999906
0.999983
1
1
1
1
1
1
1
1
1
1
1
1
1
1
1
1
1
1
1
1
1
1
1
1
0.99999
1
1
0.999999
0.999944
1
1
1
1
1
1
1
1
1
1
1
1
1
1
1
1
1
1
1
1
1
1
1
1
1
0.999938
0.99983
0.99993
1
1
1
1
1
1
1
1
1
1
1
1
1
1
1
1
1
1
1
1
1
1
1
1
1
1
1
1
0.999827
0.999827
0.999851
0.999945
0.999999
1
1
1
1
1
1
1
1
1
1
1
1
1
1
1
1
1
1
1
1
1
0.999999
1
1
1
0.99998
0.999827
0.999817
0.999868
0.999998
1
1
1
1
1
1
1
1
1
1
1
1
1
1
1
1
1
1
1
1
1
0.999993
0.999959
0.999962
0.999991
0.999994
0.999976
0.999904
0.999962
1
1
1
1
1
1
1
1
1
1
1
1
1
1
1
1
0.999886
1
1
1
1
1
0.999978
0.99992
0.99992
0.999921
0.999985
0.999991
0.999984
0.999954
1
1
1
1
1
1
1
1
1
1
1
1
1
1
1
1
0.994551
0.999767
1
1
1
1
0.999992
0.999991
0.999929
0.999885
0.999885
0.999885
0.999885
0.999885
0.999901
1
1
1
1
1
1
1
1
1
1
1
1
1
1
0.999166
0.992426
0.997
0.999999
0.999717
0.997359
0.989426
0.999961
0.999999
0.999999
0.999999
0.999983
0.999979
0.999985
0.99991
0.999888
1
1
1
1
1
1
1
1
1
1
0.999677
0.97988
0.99715
1
0.997547
0.992423
0.997565
0.999997
0.999996
0.989034
0.988863
0.994887
0.999933
0.999999
0.999999
0.999999
0.999991
0.999998
0.999997
0.999984
1
1
1
1
1
1
1
1
1
1
0.977592
0.967787
0.996891
1
0.994685
0.992424
0.998016
0.999996
0.999996
0.989208
0.988863
0.993733
0.999936
0.999999
0.999999
0.999887
0.999875
0.999925
0.999993
1
1
1
1
1
1
1
1
0.996
0.993683
0.997908
0.967788
0.967787
0.99918
0.99963
0.992426
0.992429
0.999589
0.999996
0.999996
0.997607
0.988863
0.99885
0.999998
0.999999
0.999859
0.999687
0.999687
0.999743
0.999986
0.999995
1
1
1
1
0.999978
0.861404
0.920995
0.896606
0.997736
0.991066
0.981869
0.995986
0.999502
0.999
0.997831
0.992426
0.998242
0.999996
0.998201
0.992854
0.992051
0.999998
0.999998
0.999983
0.999704
0.999706
0.999824
0.999973
0.999989
0.999983
1
1
1
0.999972
0.741525
0.27508
0.658028
0.912497
0.998293
0.998027
0.997592
0.994736
0.996615
0.999571
0.999569
0.992431
0.992983
0.999995
0.994572
0.995087
0.999765
0.999998
0.999973
0.999824
0.999729
0.999992
0.999992
0.999992
0.999992
0.999989
1
1
0.999996
0.77834
0.103854
0.0632455
0.516346
0.929692
0.994758
0.998348
0.998348
0.995127
0.993286
0.999564
0.999583
0.997276
0.992949
0.996636
0.998177
0.999655
0.999995
0.999998
0.99999
0.999861
0.99987
0.999992
0.999992
0.999992
0.999992
0.999992
1
0.999991
0.837611
0.0732381
6.41298e-05
0.0473823
0.3739
0.79972
0.941558
0.998164
0.998331
0.995064
0.993342
0.999598
0.999599
0.998165
0.994998
0.998625
0.999983
0.999988
0.999991
0.999995
0.999991
0.999986
0.999983
0.999628
0.998641
0.997492
0.999992
0.999992
1
0.999996
0.185911
0.00165459
1.00933e-05
0.00412088
0.127094
0.530227
0.858071
0.985522
0.998305
0.998142
0.999413
0.999599
0.999599
0.999601
0.999962
0.999977
0.999979
0.999983
0.961116
0.813213
0.759223
0.753945
0.670685
0.596013
0.566029
0.564379
0.558553
0.554526
1
0.569962
0.00415314
7.46428e-06
2.69027e-06
1.89543e-06
0.000566269
0.110944
0.482068
0.902386
0.993866
0.916323
0.999461
0.999572
0.973942
0.878296
0.80648
0.870395
0.456046
0.368197
0.150777
0.170356
0.109746
0.0423662
0.0257872
0.0401984
0.0289053
0.0135186
0.00514332
0.00304036
0.985856
0.985826
0.985768
0.985707
0.985707
0.985714
0.985999
0.996097
0.999862
0.999862
0.997339
0.994389
0.994389
0.997281
1
1
1
1
1
1
1
1
1
1
1
1
1
1
1
1
0.999027
0.999484
0.999571
0.997747
0.998851
0.999226
0.999233
0.999236
0.999593
0.999862
0.999787
0.998676
0.995059
0.997732
1
1
1
1
1
1
1
1
1
1
1
1
1
1
1
1
0.999993
0.999993
0.999993
0.999992
0.999889
0.998958
0.997882
0.996848
0.9978
0.999859
0.999855
0.999255
0.997569
0.998723
0.99999
1
1
1
1
1
1
1
1
1
1
1
1
1
1
1
0.999993
0.999988
0.999917
0.998144
0.996106
0.995196
0.995194
0.995194
0.995194
0.99589
0.998947
0.999796
0.999197
0.999664
1
1
1
1
1
1
1
1
1
1
1
1
1
1
1
1
0.999933
0.999643
0.997092
0.995616
0.99561
0.99582
0.996113
0.996405
0.995202
0.995206
0.9979
0.999879
0.999881
1
1
1
1
1
1
1
1
1
1
1
1
1
1
1
1
1
0.999681
0.999065
0.996281
0.996529
0.999277
0.999713
0.999716
0.999712
0.998906
0.99768
0.999275
0.99982
0.999963
1
1
1
1
1
1
1
1
1
1
1
1
1
1
1
1
1
0.999542
0.999477
0.998901
0.999999
0.999999
0.999649
0.999087
0.999202
0.99994
0.999982
0.999983
0.999853
0.999994
1
1
1
1
1
1
1
1
1
1
1
1
1
1
1
1
1
0.999769
1
1
1
0.999905
0.998316
0.998047
0.998037
0.998961
0.999983
0.999983
0.999983
1
1
1
1
1
1
1
1
1
1
1
1
1
1
1
1
1
1
0.999809
1
1
0.999997
0.999985
0.999613
0.998758
0.998033
0.998004
0.998132
0.999242
1
1
1
1
1
1
1
1
1
1
1
1
1
1
1
1
1
1
1
0.999905
1
0.999996
0.99996
0.99996
0.999999
1
0.999855
0.998149
0.998128
0.999178
1
1
1
1
1
1
1
1
1
1
1
1
1
1
1
1
1
1
1
0.999984
1
0.999997
0.99996
0.999957
0.999977
1
1
1
0.999648
0.99994
1
1
1
1
1
1
1
1
1
1
1
1
1
1
1
1
1
1
1
1
0.999931
1
0.999995
0.999972
0.999985
1
1
1
1
1
1
1
1
1
1
1
1
1
1
1
1
1
1
1
1
1
1
1
1
1
0.999903
1
1
1
1
1
1
1
1
1
1
1
1
1
1
1
1
1
1
1
1
1
1
1
1
1
1
1
1
1
0.999938
1
0.999852
0.999985
1
1
1
1
1
1
1
1
1
1
1
1
1
1
1
1
1
1
1
1
1
1
1
1
1
0.999979
0.999966
0.999879
0.999772
0.999867
1
1
1
1
1
1
1
1
1
1
1
1
1
1
1
1
1
1
1
1
1
1
1
1
1
0.999874
0.999812
0.999812
0.999834
0.999993
0.999994
0.999995
1
1
1
1
1
1
1
1
1
1
1
1
1
1
1
1
1
1
1
1
1
1
1
0.99998
0.999866
0.999857
0.999998
0.999985
0.99994
0.999951
0.999999
1
1
1
1
1
1
1
1
1
1
1
1
1
1
1
1
1
1
1
1
1
1
1
0.999997
0.999994
0.999998
0.999992
0.999932
0.999933
0.999979
1
0.999822
1
1
1
1
1
1
1
1
1
1
1
1
1
1
1
1
1
1
1
1
1
1
0.999993
0.999996
0.999912
0.999932
0.999984
0.999984
0.996259
0.989845
1
1
1
1
1
1
1
1
1
1
1
1
1
1
1
1
1
1
1
1
0.999956
0.999909
0.999874
0.999874
0.999875
0.99997
0.999988
0.998711
0.986151
0.982069
1
1
1
1
1
1
1
1
1
1
1
1
1
1
1
1
1
1
1
1
0.999888
0.999929
0.999982
0.999984
1
1
1
0.998619
0.982652
0.981805
1
1
1
1
1
1
1
1
1
1
1
1
1
1
1
1
1
1
1
1
0.999982
0.999998
1
0.99999
1
1
0.999999
0.995122
0.982228
0.981749
0.990401
0.992956
0.999661
1
1
1
1
1
1
1
1
1
1
1
1
1
1
1
1
1
1
1
1
1
0.999998
0.999999
0.999989
0.998781
0.996722
0.98176
0.981749
0.992297
0.99989
0.999974
0.999215
0.999988
1
0.999938
0.999577
1
1
1
1
1
1
1
1
1
1
1
0.999999
0.999973
0.999954
0.999925
0.999844
0.999999
0.999999
0.999999
0.999999
0.992989
0.994528
0.999003
0.999847
0.99949
0.990294
0.999283
1
0.999998
0.990968
0.999753
0.997178
0.997236
1
1
1
1
1
1
1
1
0.999991
0.999987
0.999867
0.999791
0.999791
0.999894
0.999999
0.999991
0.999999
0.994993
0.994691
0.998475
0.999843
0.999666
0.989794
0.997805
0.999998
0.993339
0.990647
0.998436
0.997632
0.97978
0.993875
0.983373
0.891792
0.999981
1
1
1
1
0.999991
0.999992
0.999982
0.999957
0.999969
0.99987
0.999957
0.99998
0.999999
0.998733
0.994666
0.994667
0.999839
0.990735
0.990895
0.996101
0.999985
0.992963
0.995017
0.99627
0.99855
0.998552
0.960613
0.77988
0.371096
0.750358
0.999971
1
1
1
0.999992
0.999992
0.999992
0.999992
0.999992
0.999884
0.999884
0.99998
0.999999
0.99998
0.99915
0.994804
0.998814
0.990179
0.998534
0.99883
0.998555
0.997614
0.998783
0.999015
0.996981
0.998553
0.989582
0.6456
0.185419
0.132699
0.764449
0.999996
1
1
0.999992
0.999992
0.998469
0.998087
0.997374
0.999952
0.999954
0.999968
0.999986
0.999968
0.999957
0.998146
0.994657
0.992612
0.998407
0.99911
0.998165
0.998377
0.999215
0.999238
0.999236
0.994915
0.968463
0.614764
0.12637
0.000553642
0.0727737
0.83444
0.999989
1
0.552468
0.553248
0.557112
0.564984
0.582685
0.650921
0.707622
0.723388
0.793657
0.911927
0.965897
0.998293
0.998316
0.998644
0.999072
0.99911
0.998997
0.999235
0.999238
0.999237
0.951787
0.852902
0.726265
0.347058
0.0308819
2.52373e-05
0.00017045
0.177315
0.999996
1
0.00238776
0.00488017
0.00936607
0.0186318
0.029278
0.0106026
0.0330808
0.0919144
0.102889
0.135931
0.223594
0.445708
0.756883
0.847314
0.921171
0.978341
0.997713
0.897035
0.959232
0.960281
0.529471
0.241979
0.101622
0.0115856
2.53229e-05
5.58067e-06
8.12591e-06
0.00198578
0.56186
1
0.974086
8.29148e-05
6.36696e-06
2.15954e-06
8.67694e-07
1.13693e-07
1.30247e-06
0.000128664
0.0805904
0.581166
0.939748
0.437884
0.919613
0.945919
0.534807
0.194332
0.00280848
0.0549351
1.03639e-05
9.14504e-06
9.18046e-06
5.07225e-06
9.75454e-07
6.51044e-07
9.3083e-07
3.58815e-05
9.63987e-06
1.69826e-05
5.16214e-06
1.07325e-06
0.472611
0.0183884
4.20785e-07
8.76123e-07
1.85632e-07
1.41293e-08
9.01465e-08
4.29474e-06
0.00546322
0.186745
0.64475
0.0270862
0.26782
0.406944
0.0559241
0.0256719
0.000199746
7.21432e-05
0.00012347
9.2401e-05
2.18666e-05
9.75484e-07
6.50853e-07
6.18549e-07
3.80738e-07
1.92474e-06
7.31766e-07
7.27452e-07
1.82547e-07
3.92812e-08
4.49968e-07
4.21513e-07
4.1422e-07
1.77339e-06
1.11025e-07
3.48635e-09
1.27368e-08
2.77113e-07
3.40446e-06
0.000281154
0.0584334
4.75422e-06
4.12665e-06
0.0060922
2.47036e-05
2.46034e-05
6.74357e-05
0.000160954
0.000160954
0.000160892
1.49292e-06
8.52354e-07
1.27034e-06
9.54196e-07
5.51669e-08
1.48789e-07
3.44404e-07
3.88729e-08
1.86109e-08
1.58412e-08
7.81845e-07
3.34107e-06
4.10413e-07
1.76405e-06
1.85898e-07
1.40121e-09
3.51426e-09
8.19462e-09
5.491e-06
6.35962e-05
2.87421e-06
5.14147e-06
4.00712e-06
4.12665e-06
5.1385e-05
0.000122723
0.000158626
0.000160955
0.000160937
0.000160613
1.43707e-05
8.43538e-07
5.72526e-06
4.70166e-07
4.64185e-08
6.26474e-08
3.24628e-07
1.36567e-08
1.36368e-08
1.48696e-08
7.40062e-06
8.36105e-06
3.92456e-07
3.08359e-07
8.00684e-08
8.91864e-10
5.05637e-10
8.08209e-10
2.87579e-08
3.40503e-08
3.76874e-07
1.07921e-05
3.37379e-06
2.0793e-05
0.000124131
0.000160793
0.000160855
0.000160937
0.000161078
9.15955e-05
5.49634e-06
8.32217e-07
5.74425e-06
2.6307e-07
4.32387e-08
2.00151e-07
1.75994e-07
1.27811e-08
1.31152e-08
1.36881e-08
8.37608e-06
8.37608e-06
6.39053e-08
5.35735e-11
2.49294e-10
2.63873e-10
3.10526e-10
2.04972e-10
8.53096e-09
9.88037e-07
4.41589e-06
7.3269e-06
2.64623e-06
8.2089e-07
4.07286e-07
2.68183e-05
0.000155818
0.000157241
5.60023e-05
1.85919e-07
1.83349e-07
8.34016e-07
1.06194e-06
4.07491e-08
4.08246e-08
1.02511e-07
1.27931e-08
1.27296e-08
1.28254e-08
1.32538e-08
8.37608e-06
8.35662e-06
4.55795e-11
1.86652e-11
6.9953e-11
1.98812e-10
2.91723e-10
1.5839e-10
1.0916e-07
4.74124e-06
9.10425e-06
1.345e-07
1.34772e-07
1.34527e-07
1.61709e-07
1.4722e-05
4.53086e-05
1.85818e-05
1.8537e-07
1.83212e-07
1.83501e-07
2.10785e-07
4.07258e-08
4.07242e-08
4.08272e-08
1.74244e-07
1.21564e-07
1.29246e-08
1.31666e-08
3.15316e-08
4.17833e-06
8.33651e-06
8.74394e-09
2.73256e-12
8.3957e-11
1.07914e-10
1.99076e-10
1.55428e-10
1.03815e-07
1.1867e-05
1.28048e-05
7.13076e-07
1.3451e-07
1.58242e-07
1.31823e-06
2.11149e-06
7.73739e-07
1.89028e-07
1.83446e-07
1.85927e-07
1.83481e-07
1.86537e-07
1.47204e-07
9.77296e-08
4.95296e-07
8.78989e-07
4.44121e-07
1.36491e-08
1.43013e-08
2.04027e-08
1.37089e-21
8.31245e-06
9.17265e-08
2.35986e-12
3.5781e-11
7.15553e-11
1.58021e-10
1.55365e-10
7.26237e-09
7.46562e-06
1.77333e-05
1.26956e-05
1.14815e-06
2.12456e-07
2.02096e-06
2.66841e-06
2.66701e-06
1.92127e-07
1.38777e-06
5.28374e-06
1.16833e-06
1.73349e-06
3.33299e-06
3.33299e-06
2.51385e-06
9.27394e-08
9.26944e-08
9.75435e-08
9.71009e-07
1.22059e-06
1.31294e-16
2.11398e-06
1.97665e-07
2.34023e-12
1.7666e-11
6.7979e-11
1.70962e-10
1.5655e-10
1.60614e-10
1.26569e-06
1.78024e-05
2.04419e-05
1.61442e-05
2.47896e-06
1.21038e-06
1.20762e-06
1.18643e-06
1.18646e-06
1.08821e-05
1.85772e-05
1.07322e-05
1.53775e-06
2.43034e-06
3.30048e-06
1.89373e-06
9.56418e-08
4.91396e-07
1.21853e-06
1.22029e-06
1.22055e-06
1.53412e-14
3.56084e-14
1.26501e-07
2.33414e-12
1.40373e-11
7.15669e-11
2.7854e-10
1.92384e-10
1.85381e-10
2.19183e-10
6.18388e-06
2.04347e-05
2.04532e-05
1.54618e-05
2.0427e-06
1.20841e-06
1.2045e-06
1.29783e-06
1.49275e-05
1.85772e-05
1.72001e-05
5.37883e-09
1.36856e-06
1.90297e-06
1.17823e-07
2.9606e-07
4.84803e-07
3.56917e-07
1.86131e-07
2.06377e-07
6.07544e-14
3.39873e-11
2.33026e-12
2.33018e-12
1.19919e-11
6.92585e-11
3.27475e-10
2.30942e-10
2.15391e-10
2.27089e-10
1.61716e-09
8.80572e-06
2.04502e-05
2.04541e-05
1.35928e-05
8.88124e-06
4.6336e-06
1.20578e-05
1.31716e-05
1.85772e-05
1.4267e-05
2.54907e-09
1.09601e-07
2.80774e-07
5.0677e-08
1.27182e-07
9.45641e-08
2.14591e-09
2.45353e-09
3.65416e-09
1.4219e-13
5.08257e-12
4.13525e-12
3.30657e-12
9.40948e-12
6.2419e-11
3.41677e-10
2.86944e-10
2.23711e-10
2.34768e-10
3.26665e-10
4.96723e-09
2.04518e-05
7.70338e-06
5.36753e-08
6.73234e-05
0.000189958
0.00029989
1.10229e-05
1.08281e-05
8.27569e-06
1.87273e-09
3.33593e-08
6.98918e-08
2.44649e-09
1.54671e-09
1.8022e-09
2.07037e-09
2.09177e-09
2.31874e-09
2.59147e-13
9.97024e-12
1.06421e-11
6.44066e-12
6.06274e-12
4.81638e-11
2.87345e-10
6.72827e-10
2.8283e-10
3.16254e-10
3.25407e-10
3.82577e-10
1.1668e-05
2.11532e-06
1.81464e-08
1.14654e-05
0.000297421
0.000456903
0.000205851
5.97607e-06
5.86863e-06
1.87229e-09
2.29983e-09
2.98078e-09
5.22427e-09
1.36903e-09
1.82712e-09
1.90206e-09
2.02674e-09
1.94855e-09
3.9387e-13
1.53605e-11
1.63788e-11
8.06524e-12
3.23915e-12
2.78923e-11
2.14364e-10
9.07489e-10
3.60257e-10
3.21465e-10
3.81569e-10
3.90541e-10
1.64278e-08
8.48401e-10
1.7915e-08
1.81341e-08
1.92225e-08
0.000460948
0.000464327
6.54412e-06
7.02338e-06
3.08385e-08
1.30541e-09
1.27246e-09
1.2484e-09
1.24641e-09
1.24754e-09
1.24897e-09
1.27247e-09
1.87921e-09
4.96486e-13
1.99854e-11
2.02509e-11
7.26355e-12
1.56834e-12
1.26567e-11
1.14191e-10
6.38431e-10
4.26695e-10
3.6435e-10
4.64074e-10
5.19297e-10
4.03882e-10
2.25531e-10
9.82351e-08
9.38918e-08
1.02183e-07
0.000343585
0.000466273
0.000111542
8.59723e-06
5.93005e-06
1.33007e-09
7.04533e-07
1.52785e-07
1.24789e-09
5.95352e-09
3.74672e-07
2.23253e-07
2.07181e-08
4.80045e-13
2.19123e-11
1.94917e-11
5.47033e-12
7.45221e-13
4.75986e-12
5.85954e-11
4.97145e-10
9.82481e-10
5.00853e-10
7.69657e-10
7.27346e-10
2.53178e-10
1.88618e-10
1.07287e-07
1.87737e-07
2.85829e-07
0.000272267
0.000466348
0.000455451
8.71977e-06
1.05021e-05
3.50482e-06
7.07792e-07
1.33995e-06
1.28406e-05
1.92594e-05
1.95526e-05
1.26893e-05
2.26006e-08
3.14259e-13
1.78159e-11
1.44723e-11
3.9522e-12
3.5289e-13
1.52852e-12
2.91953e-11
3.90938e-10
1.84221e-09
1.14667e-09
4.18995e-10
3.14966e-10
2.10665e-10
1.8632e-10
5.34258e-08
1.31932e-07
3.82473e-09
9.05567e-05
0.000466381
0.000466425
0.000208658
6.02414e-06
5.75683e-06
9.12738e-07
1.05769e-06
1.13413e-06
1.33393e-06
1.97032e-05
1.96964e-05
1.96217e-05
1.06927e-13
9.60578e-12
8.14545e-12
2.22746e-12
1.60224e-13
4.10648e-13
1.15215e-11
2.52783e-10
1.8649e-09
1.64847e-09
3.51566e-10
1.84145e-10
2.23247e-10
1.85791e-10
2.86204e-10
1.03326e-08
3.80331e-09
2.54263e-10
0.000232579
0.000466425
0.000432624
4.62376e-05
8.86913e-07
9.41827e-07
9.74097e-07
1.80379e-05
8.5922e-05
3.09051e-05
1.25673e-05
1.1089e-05
3.1782e-14
3.58472e-12
3.54689e-12
9.77557e-13
6.6082e-14
8.45045e-14
3.0415e-12
8.44988e-11
8.62211e-10
9.8084e-10
2.49879e-10
1.83025e-10
2.0302e-10
1.81324e-10
1.92691e-10
2.17792e-10
2.44895e-10
2.54261e-10
2.57956e-10
0.000350909
0.000430833
0.000159407
4.21168e-07
1.28378e-05
8.07917e-05
0.000192268
0.000201406
0.000182517
0.000201553
0.000201467
5.68592e-15
1.34641e-12
1.20251e-12
3.37219e-13
2.37119e-14
1.12725e-14
4.47478e-13
1.77887e-11
2.71422e-10
3.63644e-10
9.73362e-11
1.0307e-10
4.63855e-10
2.53518e-10
2.13023e-10
2.13024e-10
5.16421e-08
2.32851e-08
6.84631e-09
9.96905e-05
0.000170791
5.54627e-05
3.31438e-08
7.6487e-06
0.000146931
0.000201406
0.00020148
0.000201553
0.000201555
0.000201555
6.97525e-16
2.24523e-13
3.46619e-13
1.04306e-13
7.11842e-15
1.19297e-15
3.16169e-14
1.61964e-12
5.18979e-11
9.80222e-11
6.97985e-12
7.1342e-08
6.211e-09
2.13344e-10
2.13023e-10
1.84008e-06
1.24377e-06
2.38661e-08
1.49894e-05
2.52007e-05
9.25069e-06
1.38531e-06
1.22074e-08
1.19465e-06
2.74113e-05
5.44059e-05
0.000117318
0.000153579
0.000102584
4.44599e-05
5.65615e-17
2.01536e-14
7.74608e-14
2.37335e-14
1.57413e-15
1.65903e-16
2.1834e-15
8.58493e-14
5.31067e-12
1.29517e-11
6.67737e-12
1.09554e-06
2.84272e-06
3.87495e-07
2.35571e-06
4.86854e-06
1.86821e-06
1.32595e-06
3.10059e-06
1.94349e-09
9.05387e-10
5.89453e-10
1.15292e-08
5.06499e-09
4.6768e-09
1.29458e-08
1.17992e-06
1.3638e-06
7.59469e-07
1.10985e-08
2.96604e-18
9.56269e-16
1.21039e-14
3.54162e-15
2.24244e-16
4.29831e-17
9.08256e-16
1.71593e-14
4.39044e-13
6.74176e-12
6.69034e-12
2.36456e-06
9.74576e-06
9.33028e-06
7.82475e-06
2.92415e-06
3.57575e-07
3.75164e-07
6.735e-10
4.34214e-10
5.0347e-10
4.33391e-10
2.05968e-09
5.51273e-10
8.08245e-10
6.43048e-09
1.28079e-08
8.47305e-09
8.12167e-09
8.00783e-09
9.89805e-20
2.22364e-17
1.108e-15
2.98356e-16
1.78828e-17
1.07228e-17
5.22711e-16
1.96058e-14
4.86429e-13
2.27847e-11
1.70361e-11
3.06797e-06
9.76903e-06
9.76903e-06
1.45119e-06
3.82005e-08
2.0424e-10
2.60858e-10
4.25572e-10
3.95187e-10
5.159e-10
4.0936e-10
3.63604e-10
3.73311e-10
4.87279e-07
2.85142e-07
9.67494e-09
8.14806e-09
8.0004e-09
7.93224e-09
2.07949e-21
1.84023e-19
5.13205e-17
1.23152e-17
6.87198e-19
9.67422e-19
9.18553e-17
8.65484e-15
6.5836e-13
6.03859e-11
4.81591e-11
8.8039e-07
6.5321e-06
2.7481e-06
1.53327e-10
1.27069e-10
1.60449e-10
2.25887e-10
5.8835e-10
3.73243e-10
3.42608e-10
2.98361e-10
2.76452e-10
2.82726e-07
1.00186e-06
9.34602e-07
1.8881e-07
8.02509e-09
7.96421e-09
7.95726e-09
2.72115e-23
4.62563e-22
1.03683e-18
2.11551e-19
1.05851e-20
4.39346e-20
6.92009e-18
1.02025e-15
9.1163e-14
5.83077e-12
1.17326e-10
6.53398e-10
6.08781e-08
1.49149e-10
6.1666e-11
1.13638e-10
1.52766e-10
2.19295e-10
1.05075e-10
3.28999e-09
5.47633e-10
5.35776e-10
2.76468e-10
2.4785e-07
1.00689e-06
1.0073e-06
1.00732e-06
4.67962e-07
8.46295e-09
3.73894e-07
2.21884e-25
5.5884e-25
7.37417e-21
1.18049e-21
5.07182e-23
9.17298e-22
2.10415e-19
4.34395e-17
4.99233e-15
3.30089e-13
1.09383e-11
1.33407e-10
8.92753e-11
5.09169e-11
5.16247e-11
3.07228e-11
7.31397e-11
8.79844e-11
5.01749e-11
5.28138e-11
2.59177e-08
3.06904e-08
2.79998e-10
3.60372e-07
1.00729e-06
1.00729e-06
1.00731e-06
1.00732e-06
3.10107e-07
7.26367e-08
1.15454e-27
7.65102e-28
1.43937e-23
1.52538e-24
5.68911e-26
6.9404e-24
2.82952e-21
9.8385e-19
1.78272e-16
1.51603e-14
7.64386e-13
1.34182e-11
1.05238e-10
4.54746e-11
9.2743e-12
1.21623e-11
6.84962e-11
5.20208e-11
4.39291e-09
5.05018e-08
5.09007e-08
1.2424e-08
3.6216e-10
4.85096e-08
2.62433e-07
5.5316e-07
5.25395e-07
1.0034e-06
5.9684e-07
6.20747e-08
4.23867e-30
1.69094e-30
8.07539e-27
3.16189e-28
6.39085e-30
5.25824e-27
7.14917e-24
7.35326e-21
3.47918e-18
4.26195e-16
3.58994e-14
8.76991e-13
1.48648e-11
4.42589e-12
1.38372e-12
4.18903e-12
2.62432e-11
2.46853e-11
6.34728e-10
3.31986e-09
1.63494e-09
1.25644e-09
8.93253e-10
2.64867e-11
1.71961e-10
2.54425e-09
6.85228e-09
4.64733e-08
9.48724e-08
6.21095e-08
5.95063e-07
2.08455e-06
8.84957e-06
1.5768e-05
7.74289e-05
4.68261e-07
3.96212e-07
3.98783e-07
3.96144e-07
3.99179e-07
4.07041e-07
4.2136e-07
4.39234e-07
0.0130418
0.241047
0.422991
0.535802
0.244865
0.488468
0.47608
0.0529201
0.000274986
2.47641e-05
1.07892e-05
1.06695e-06
1.05405e-06
5.46266e-06
5.22996e-06
8.12201e-05
0.973802
3.08972e-08
9.43721e-08
4.13711e-07
1.20558e-06
7.08008e-06
1.87366e-06
2.81262e-06
8.07584e-07
3.31038e-06
2.74019e-06
2.11296e-06
1.4868e-06
1.79374e-06
1.79298e-06
0.000575599
6.88508e-08
4.55644e-08
4.28725e-08
0.02258
0.0176502
3.19045e-07
8.05574e-09
7.56197e-07
1.04518e-06
1.74673e-07
2.24505e-07
5.21027e-07
3.31076e-07
0.0178359
0.465257
1.73181e-08
3.41983e-08
9.51734e-08
4.54123e-07
1.2384e-06
6.34528e-06
8.35182e-06
6.68034e-06
5.68006e-06
4.26908e-06
3.68607e-06
3.49437e-06
3.4396e-06
2.61188e-06
7.26821e-08
5.2904e-08
5.04292e-08
3.98451e-08
3.9814e-08
2.03144e-08
1.0763e-09
7.87014e-10
8.00503e-09
5.94769e-08
1.79811e-08
1.22794e-07
4.56631e-07
3.31079e-07
3.31718e-07
3.4884e-07
1.57727e-08
1.71776e-08
1.78508e-06
5.38197e-06
5.36001e-06
6.31021e-06
8.38266e-06
7.97058e-06
7.88982e-08
1.94349e-08
1.83615e-08
1.70535e-08
2.0902e-08
1.50392e-06
1.69416e-06
3.25884e-07
2.3448e-07
8.89533e-07
1.41114e-07
9.12794e-10
7.5186e-10
7.08831e-10
6.37879e-10
3.23138e-09
2.09029e-09
1.10435e-07
1.04981e-06
6.50156e-07
4.38117e-06
9.84746e-07
1.6216e-08
4.23811e-06
1.15548e-05
1.15457e-05
1.14561e-05
1.13183e-05
5.61057e-06
2.54036e-08
2.55765e-08
2.26989e-08
1.78651e-08
1.62113e-08
2.76748e-08
2.38124e-07
2.65356e-07
2.7739e-07
1.45314e-06
2.06992e-06
1.37707e-06
2.17276e-08
1.19011e-09
6.7564e-10
3.9499e-10
3.93738e-10
1.08542e-09
2.96787e-08
5.03255e-09
2.30684e-06
8.99383e-06
7.80935e-06
1.84269e-08
3.66757e-06
1.15457e-05
1.15449e-05
1.09669e-05
2.58098e-06
2.90349e-08
2.86234e-08
6.18169e-08
1.50396e-08
9.27126e-09
9.24984e-09
1.60761e-08
9.22271e-09
9.24197e-09
3.60376e-07
2.06125e-06
2.06993e-06
1.57565e-07
5.84344e-10
1.48133e-09
5.04903e-10
3.27039e-10
2.29042e-10
1.78152e-10
1.75439e-11
6.83634e-12
6.98559e-07
9.00921e-06
9.00922e-06
6.35656e-07
1.39218e-06
1.93919e-06
2.47609e-06
1.07488e-06
4.52977e-07
2.22261e-07
1.65538e-08
1.01652e-08
9.32633e-09
9.25459e-09
9.20732e-09
9.19479e-09
9.18009e-09
9.18007e-09
3.36832e-07
2.05079e-06
4.02574e-07
4.05654e-10
5.50398e-10
5.70111e-10
3.82234e-10
3.07504e-10
2.2644e-10
1.78737e-10
1.84637e-11
7.19554e-12
7.2861e-12
8.99315e-06
9.00922e-06
1.79013e-07
3.92166e-07
9.26171e-07
1.48147e-06
1.04225e-06
3.48731e-07
3.4173e-08
9.34076e-09
9.33644e-09
9.35818e-09
9.3423e-09
9.273e-09
9.20439e-09
9.17792e-09
9.17824e-09
9.24511e-08
4.88941e-07
4.05828e-10
4.05642e-10
4.19391e-10
3.86213e-10
2.92177e-10
2.15365e-10
1.36505e-10
1.43398e-10
9.11339e-11
1.18986e-12
2.54959e-09
8.96722e-06
5.76537e-06
1.21972e-06
1.22109e-06
1.21889e-06
1.21677e-06
4.23949e-07
1.05665e-08
9.50013e-09
9.36162e-09
9.41206e-09
1.49193e-08
1.01585e-08
9.87212e-09
9.08663e-09
9.34931e-09
1.36526e-08
1.5747e-09
1.39712e-09
3.89977e-10
3.68797e-10
3.23155e-10
3.05167e-10
2.33038e-10
1.53649e-10
8.69949e-11
7.0982e-11
2.87677e-11
9.37557e-13
9.28405e-08
8.13476e-06
1.20409e-21
1.22029e-06
1.21968e-06
8.36418e-07
8.82286e-08
8.76382e-08
1.11702e-07
6.87529e-08
9.50669e-09
9.48852e-09
2.97173e-08
2.26385e-07
1.67222e-08
8.43929e-09
8.12673e-09
7.86703e-09
1.547e-09
1.55001e-09
2.34405e-07
2.64216e-10
2.85112e-10
2.55645e-10
1.94932e-10
1.18365e-10
5.28826e-11
2.59524e-11
8.8766e-12
9.25809e-13
4.52336e-07
4.66623e-07
4.53211e-16
1.74952e-07
1.36944e-07
1.31535e-07
1.42459e-07
6.55619e-07
8.08196e-07
6.45896e-07
8.78756e-08
9.86498e-09
1.09216e-08
4.46847e-07
3.3915e-06
4.47666e-06
2.02644e-07
8.01042e-09
1.094e-07
2.83139e-06
2.8121e-06
2.62539e-10
2.62538e-10
2.21235e-10
1.67954e-10
9.67144e-11
2.41327e-11
1.09218e-11
3.90792e-12
9.24911e-13
4.51955e-07
2.29208e-13
1.30162e-14
5.09841e-09
1.61674e-08
4.75461e-07
8.0904e-07
8.08628e-07
8.08652e-07
8.08653e-07
6.5026e-07
1.09256e-08
1.80216e-08
3.67352e-07
8.60044e-06
9.75857e-06
5.77912e-06
2.99548e-07
1.28526e-06
3.22258e-06
1.83306e-08
2.7377e-10
2.87019e-10
1.98315e-10
1.50186e-10
8.63382e-11
1.90048e-11
6.31071e-12
2.62201e-12
1.21021e-12
9.26542e-08
1.00317e-09
4.07545e-14
2.1182e-08
5.6506e-07
8.08525e-07
8.08755e-07
8.08526e-07
8.08234e-07
8.08589e-07
8.08465e-07
4.83427e-07
3.00633e-08
1.34089e-07
5.07824e-06
9.74721e-06
9.75532e-06
9.46224e-06
9.24709e-06
1.20143e-06
8.16708e-10
1.33425e-09
3.36468e-10
1.86421e-10
1.42367e-10
8.52624e-11
1.7746e-11
4.3723e-12
2.07862e-12
2.06359e-11
1.00496e-11
1.99003e-11
1.1592e-13
2.29678e-09
4.31823e-08
5.74392e-07
8.09186e-07
8.0851e-07
8.08536e-07
8.08544e-07
8.08457e-07
8.09221e-07
2.1597e-07
4.73186e-08
7.91915e-07
9.31652e-06
9.75532e-06
9.75532e-06
6.8211e-06
8.81194e-10
8.23388e-10
1.97891e-09
3.67403e-10
1.88044e-10
1.45747e-10
7.20041e-11
1.48338e-11
3.06676e-12
1.68651e-12
4.83575e-11
1.31331e-11
1.37688e-11
2.20832e-13
2.56306e-09
2.62639e-09
1.90826e-09
2.75569e-09
2.73761e-07
7.25443e-07
8.08536e-07
8.07966e-07
8.07687e-07
6.59313e-07
3.50803e-08
2.00435e-08
3.56065e-06
9.75533e-06
7.80339e-06
1.84187e-07
1.05397e-09
3.1524e-09
1.92068e-09
3.65695e-10
2.47072e-10
2.78939e-10
5.50031e-11
9.22836e-12
1.70595e-12
1.31602e-12
1.04967e-11
1.73724e-11
2.00476e-11
3.54411e-13
2.63637e-09
1.85458e-09
8.73148e-10
8.10748e-10
6.03548e-10
5.40764e-10
1.17995e-07
6.41923e-07
8.05939e-07
7.98523e-07
1.6514e-07
1.24102e-08
1.99246e-07
1.25212e-06
1.06705e-06
3.90861e-09
3.7639e-09
8.09805e-09
1.33391e-09
3.41123e-10
2.9986e-10
3.51652e-10
3.82727e-11
4.01414e-12
6.74856e-13
9.7253e-13
6.36693e-12
2.20893e-11
2.47519e-11
4.73398e-13
1.415e-06
2.08855e-06
2.73818e-07
6.26245e-10
5.99094e-10
5.15322e-10
5.05078e-10
4.85166e-10
2.31451e-07
5.43017e-07
3.14437e-07
1.18063e-08
1.08428e-08
9.72824e-09
9.02258e-09
1.07211e-08
1.0741e-08
7.6593e-09
1.79341e-09
1.027e-10
1.00859e-10
4.7337e-11
1.43365e-11
1.02788e-12
1.86025e-13
6.57656e-13
5.10634e-12
2.20884e-11
2.54148e-11
4.84735e-13
1.96228e-05
1.90775e-05
3.69462e-06
2.41977e-07
5.27087e-10
4.989e-10
4.97553e-10
4.61933e-10
4.38879e-10
4.76154e-10
8.53643e-08
1.09085e-07
2.47344e-08
9.21826e-09
8.47686e-09
1.07796e-08
9.69489e-09
1.70495e-10
3.30404e-09
4.63251e-09
1.68429e-09
2.85147e-11
2.57508e-12
1.45031e-13
4.50618e-14
3.96984e-13
3.4607e-12
1.65909e-11
1.80618e-11
3.35864e-13
1.10979e-05
1.49515e-05
1.72239e-05
1.67706e-05
5.0681e-07
4.99517e-10
5.22807e-10
4.98858e-10
4.37798e-10
4.72746e-10
5.94618e-10
3.55872e-08
5.50638e-08
5.09865e-08
7.85121e-09
2.80782e-09
2.40981e-09
1.36826e-10
2.60022e-09
6.86055e-09
6.86361e-09
1.28978e-10
1.59731e-12
1.67087e-14
1.43941e-14
2.08957e-13
1.8661e-12
8.85667e-12
8.78594e-12
1.12524e-13
0.000146622
2.38336e-05
7.53135e-06
1.05603e-05
6.24773e-06
1.71982e-09
6.262e-10
7.35205e-10
6.43366e-10
4.60214e-10
4.10688e-10
8.44637e-10
1.5037e-08
2.94184e-08
2.18636e-08
2.23381e-09
5.91313e-11
5.8604e-11
4.39629e-10
5.00552e-09
6.27972e-09
2.25649e-10
9.06537e-13
3.07105e-15
5.29563e-15
9.14015e-14
8.01748e-13
3.40131e-12
2.83834e-12
3.24227e-14
0.000201555
0.000201209
9.67703e-05
6.74784e-07
1.22966e-06
5.42043e-07
6.53252e-10
1.75566e-09
1.44951e-09
8.82576e-10
4.80828e-10
2.13401e-10
9.76461e-11
5.84703e-10
3.07247e-09
1.85899e-09
2.54015e-10
1.63375e-11
4.55574e-11
4.01624e-10
8.84959e-10
2.87122e-11
9.04925e-14
5.82945e-16
1.71265e-15
3.29251e-14
2.89212e-13
1.16472e-12
1.05479e-12
5.67628e-15
1.23436e-05
2.18549e-05
1.36344e-05
6.1854e-07
5.23377e-07
5.2444e-07
7.342e-10
7.48724e-09
1.16653e-08
9.0371e-09
6.57127e-11
6.32044e-11
6.73841e-11
1.12472e-10
2.75787e-10
1.87916e-10
2.93583e-11
3.05277e-12
5.16511e-12
6.3015e-11
1.31924e-10
3.84711e-12
1.10857e-14
7.69518e-17
4.34472e-16
9.835e-15
9.05944e-14
3.3311e-13
1.90303e-13
6.80325e-16
8.61685e-09
8.4358e-09
7.01675e-07
5.81704e-07
7.59302e-07
3.83718e-07
7.82015e-10
3.80811e-09
1.18264e-08
9.64865e-09
6.45205e-11
7.51071e-11
6.79652e-11
3.03893e-11
2.60637e-11
1.35641e-11
4.62547e-12
9.33867e-13
4.27987e-13
5.59108e-12
1.32946e-11
2.7489e-13
4.54111e-16
7.20182e-18
8.05412e-17
2.16559e-15
2.09961e-14
7.40084e-14
1.94149e-14
5.39474e-17
7.9438e-09
7.93566e-09
7.97066e-09
2.05792e-05
1.31826e-05
5.47954e-08
8.00197e-10
5.31852e-09
2.15915e-08
5.20941e-09
7.94745e-10
1.15733e-09
1.6086e-09
2.19298e-11
2.1413e-11
1.38162e-11
5.013e-12
7.19215e-13
8.39789e-14
2.41329e-13
8.29696e-13
8.45343e-15
7.55116e-18
7.2041e-19
9.82694e-18
3.06937e-16
3.22245e-15
1.15539e-14
1.02564e-15
2.76706e-18
7.91137e-09
7.91341e-09
7.91098e-09
4.7981e-05
4.02333e-05
2.68174e-07
7.94147e-10
7.95191e-10
9.29945e-09
1.31146e-08
2.54953e-08
2.13627e-08
2.79741e-11
2.77309e-11
2.53726e-11
1.73796e-11
5.63745e-12
6.13052e-13
4.48432e-14
6.03022e-15
2.28765e-14
5.62774e-17
6.17816e-19
6.33074e-20
6.81217e-19
2.43203e-17
2.82187e-16
1.0708e-15
2.61398e-17
9.05316e-20
2.78401e-06
2.22746e-05
4.98479e-05
6.63765e-05
3.1046e-05
1.56016e-07
6.77396e-07
6.83482e-07
6.05912e-09
6.05907e-09
6.07304e-09
2.85488e-08