/*--------------------------------*- C++ -*----------------------------------*\
| =========                 |                                                 |
| \\      /  F ield         | OpenFOAM: The Open Source CFD Toolbox           |
|  \\    /   O peration     | Version:  2.4.0                                 |
|   \\  /    A nd           | Web:      www.OpenFOAM.org                      |
|    \\/     M anipulation  |                                                 |
\*---------------------------------------------------------------------------*/
FoamFile
{
    version     2.0;
    format      ascii;
    class       surfaceScalarField;
    location    "1.75";
    object      phiAlpha;
}
// * * * * * * * * * * * * * * * * * * * * * * * * * * * * * * * * * * * * * //

dimensions      [0 3 -1 0 0 0 0];

internalField   nonuniform List<scalar> 
4700
(
5.99782e-05
-5.99782e-05
0.000127139
-6.71604e-05
0.000192378
-6.52389e-05
0.000257581
-6.52031e-05
0.0003234
-6.58195e-05
0.000389925
-6.65253e-05
0.000457343
-6.74176e-05
0.000526397
-6.9054e-05
0.000599106
-7.27087e-05
0.00067875
-7.96438e-05
0.000765696
-8.69467e-05
0.000846818
-8.1122e-05
0.00088976
-4.29418e-05
0.000873418
1.63424e-05
0.000816792
5.66263e-05
0.000749023
6.77686e-05
0.000671639
7.73841e-05
0.000567072
0.000104567
0.000425194
0.000141878
0.00015778
0.000267414
3.88837e-05
-9.88617e-05
8.31295e-05
-0.000111406
0.000126045
-0.000108154
0.00016866
-0.000107818
0.000211605
-0.000108764
0.000255006
-0.000109926
0.000299697
-0.000112109
0.000347515
-0.000116873
0.000400727
-0.00012592
0.000460515
-0.000139432
0.000527418
-0.00015385
0.000603168
-0.000156872
0.000688095
-0.000127869
0.000763241
-5.88028e-05
0.000798485
2.13818e-05
0.000783871
8.23823e-05
0.000727186
0.000134069
0.0006266
0.000205154
0.000488413
0.000280064
0.000310302
0.000335891
3.90412e-05
-0.000137903
8.4174e-05
-0.000156539
0.000127279
-0.000151259
0.000169571
-0.000150109
0.000212031
-0.000151224
0.000255657
-0.000153552
0.000301604
-0.000158056
0.000350693
-0.000165962
0.000401606
-0.000176833
0.000450569
-0.000188395
0.000492936
-0.000196217
0.000528128
-0.000192064
0.000563399
-0.00016314
0.000606083
-0.000101486
0.000645076
-1.7612e-05
0.000659533
6.7926e-05
0.000632523
0.000161079
0.000568989
0.000268687
0.000503617
0.000345436
0.000356752
0.00034548
4.47966e-05
-0.000182699
9.68245e-05
-0.000208567
0.000146477
-0.000200911
0.000195332
-0.000198965
0.000244873
-0.000200764
0.000295929
-0.000204608
0.000348991
-0.000211118
0.000403476
-0.000220446
0.000457277
-0.000230634
0.000506522
-0.00023764
0.000546975
-0.00023667
0.000576368
-0.000221456
0.000597786
-0.000184558
0.000617847
-0.000121547
0.000637043
-3.68087e-05
0.000642582
6.23874e-05
0.000624138
0.000179523
0.000589244
0.000303581
0.000560782
0.000373898
0.000398248
0.000399582
4.85945e-05
-0.000231294
0.000105105
-0.000265077
0.000159375
-0.000255181
0.000213267
-0.000252857
0.000267964
-0.000255461
0.00032374
-0.000260384
0.000380189
-0.000267567
0.000436044
-0.000276301
0.000489257
-0.000283847
0.000537695
-0.000286079
0.000579717
-0.000278692
0.00061471
-0.00025645
0.000643611
-0.000213459
0.000667902
-0.000145838
0.000686139
-5.50456e-05
0.000691327
5.71989e-05
0.000681516
0.000189334
0.000664771
0.000320326
0.000630877
0.000407792
0.000493118
0.000521792
4.9893e-05
-0.000281187
0.0001078
-0.000322984
0.000163751
-0.000311132
0.000219601
-0.000308708
0.000276352
-0.000312211
0.00033388
-0.000317912
0.000391317
-0.000325005
0.000447213
-0.000332197
0.000499936
-0.00033657
0.000548318
-0.000334461
0.000592043
-0.000322417
0.000631338
-0.000295744
0.000667158
-0.000249279
0.000700122
-0.000178801
0.000728184
-8.31078e-05
0.000745893
3.94896e-05
0.000752167
0.000183061
0.000746935
0.000325558
0.000703388
0.000451339
0.00055901
0.000605044
4.99613e-05
-0.000331148
0.00010769
-0.000380712
0.000163659
-0.000367102
0.000219685
-0.000364734
0.000276661
-0.000369187
0.00033435
-0.000375602
0.000391844
-0.000382498
0.000447881
-0.000388235
0.000501284
-0.000389972
0.000551366
-0.000384544
0.000597955
-0.000369005
0.000640815
-0.000338604
0.000680521
-0.000288985
0.000718613
-0.000216893
0.000754273
-0.000118767
0.00078549
8.27264e-06
0.000810514
0.000158037
0.000813154
0.000322918
0.000781051
0.000483442
0.00052775
0.000635915
4.96966e-05
-0.000380844
0.000106813
-0.000437828
0.000162281
-0.00042257
0.000217896
-0.000420348
0.000274508
-0.000425799
0.00033193
-0.000433023
0.000389449
-0.000440018
0.000446195
-0.00044498
0.000501301
-0.000445078
0.0005541
-0.000437343
0.000603577
-0.000418483
0.00064848
-0.000383507
0.00068936
-0.000329866
0.000728681
-0.000256214
0.000768761
-0.000158847
0.000811901
-3.48674e-05
0.000850253
0.000119685
0.000864932
0.000308239
0.000879886
0.000468488
0.000455651
0.000816959
4.94127e-05
-0.000430257
0.000105888
-0.000494303
0.000160797
-0.000477478
0.000215948
-0.000475498
0.000272182
-0.000482033
0.000329431
-0.000490272
0.000387282
-0.000497869
0.000445251
-0.000502949
0.00050264
-0.000502467
0.000558174
-0.000492876
0.000609592
-0.000469901
0.000654487
-0.000428401
0.00069442
-0.000369798
0.00073434
-0.000296135
0.000779884
-0.000204392
0.000831117
-8.61001e-05
0.000878861
7.19414e-05
0.000899476
0.000251872
0.000956255
0.000358067
0.000277532
0.00116871
4.91439e-05
-0.000479401
0.000104978
-0.000550137
0.000159343
-0.000531844
0.000214086
-0.000530242
0.000270054
-0.000538001
0.000327328
-0.000547546
0.000385838
-0.000556379
0.000445408
-0.000562519
0.000505196
-0.000562255
0.000563032
-0.000550711
0.000615351
-0.000522221
0.000659222
-0.000472273
0.000697816
-0.000408392
0.000738872
-0.000337191
0.000787843
-0.000253363
0.000844454
-0.000142711
0.00089025
3.87317e-06
0.000979532
0.000152992
0.00115977
0.000197326
4.1321e-05
0.00141553
4.88567e-05
-0.000528259
0.000103991
-0.000605272
0.000157785
-0.000585638
0.000212136
-0.000584593
0.000267901
-0.000593766
0.000325327
-0.000604972
0.000384726
-0.000615778
0.000446099
-0.000623892
0.000508218
-0.000624374
0.000567918
-0.000610412
0.000621232
-0.000575534
0.000665137
-0.000516178
0.000702872
-0.000446126
0.000743394
-0.000377713
0.000796754
-0.000306722
0.000869456
-0.000217915
0.000974618
-0.000104755
0.00113329
-4.70334e-06
0.00135111
-1.53491e-05
-0.000199099
0.00159119
4.85174e-05
-0.000576776
0.000102845
-0.000659599
0.000155989
-0.000638782
0.000209897
-0.000638502
0.000265443
-0.000649311
0.000323063
-0.000662592
0.000383488
-0.000676202
0.000446769
-0.000687173
0.000511174
-0.000688779
0.00057267
-0.000671908
0.000628103
-0.000630968
0.000673906
-0.000561981
0.0007138
-0.00048602
0.000763627
-0.000427568
0.000841312
-0.000384467
0.000956128
-0.000332702
0.00110996
-0.000258585
0.00130353
-0.000198284
0.00152375
-0.000235569
-0.000405337
0.00172989
4.80887e-05
-0.000624865
0.000101472
-0.000712983
0.000153849
-0.000691159
0.000207225
-0.000691878
0.000262492
-0.000704578
0.000320288
-0.000720387
0.000381828
-0.000737743
0.000447083
-0.000752427
0.000513827
-0.000755522
0.00057743
-0.000735511
0.000635927
-0.000689464
0.000685472
-0.000611525
0.000736093
-0.000536641
0.000811687
-0.000503162
0.000928456
-0.000501236
0.00108481
-0.000489057
0.00126962
-0.000443393
0.00147148
-0.000400153
0.00165254
-0.000416743
-0.000463698
0.00142654
4.75198e-05
-0.000672384
9.98251e-05
-0.000765288
0.00015133
-0.000742664
0.000204137
-0.000744685
0.000259092
-0.000759532
0.000316949
-0.000778245
0.000379478
-0.000800272
0.000446598
-0.000819548
0.000515765
-0.000824689
0.000581862
-0.000801608
0.000644026
-0.000751629
0.000699997
-0.000667496
0.000770166
-0.00060681
0.000880309
-0.000613305
0.00103676
-0.000657684
0.00122601
-0.000678309
0.0014259
-0.000643289
0.00158897
-0.000563425
0.00128262
-0.000379903
-9.91174e-05
0.000203023
4.68048e-05
-0.000719189
9.80237e-05
-0.000816507
0.000148713
-0.000793352
0.00020107
-0.000797043
0.000255565
-0.000814028
0.000312871
-0.000835552
0.000375677
-0.000863078
0.000444381
-0.000888252
0.000516221
-0.000896529
0.000585814
-0.000871201
0.00065316
-0.000818975
0.000718142
-0.000732478
0.00081419
-0.000702857
0.000964098
-0.000763213
0.0011584
-0.000851986
0.00136694
-0.000886868
0.00150239
-0.000779139
0.000948609
-0.000335082
0.000100291
-6.27427e-05
-1.28675e-06
1.15284e-06
4.61708e-05
-0.00076536
9.66335e-05
-0.00086697
0.000146751
-0.00084347
0.000198626
-0.000848918
0.000251715
-0.000867117
0.00030686
-0.000890697
0.000368934
-0.000925152
0.000439671
-0.000958989
0.000515472
-0.00097233
0.000590584
-0.000946312
0.000664655
-0.000893046
0.00074051
-0.000808334
0.000868665
-0.000831012
0.00105883
-0.000953379
0.00127784
-0.00107099
0.00139131
-0.00100097
0.000632079
-0.000362302
6.35226e-05
-4.11338e-05
1.4213e-06
-1.44049e-06
-5.08035e-08
8.46373e-08
4.62014e-05
-0.000811561
9.64608e-05
-0.000917229
0.000145765
-0.000892774
0.00019588
-0.000899033
0.00024528
-0.000916517
0.000296697
-0.000942114
0.000358893
-0.000987348
0.000434162
-0.00103426
0.000516329
-0.0010545
0.000597385
-0.00102737
0.000676383
-0.000972044
0.00076478
-0.000896731
0.000930759
-0.00099699
0.00115103
-0.00117365
0.00128156
-0.00120172
0.000524768
-0.000576075
4.1183e-05
-4.36993e-05
1.54109e-06
-2.28106e-06
6.15381e-08
-2.16582e-08
-3.38306e-10
2.75949e-10
4.72923e-05
-0.000858853
9.69631e-05
-0.0009669
0.000143583
-0.000939394
0.000188885
-0.000944334
0.000232816
-0.000960448
0.00028256
-0.000991859
0.000349645
-0.00105443
0.000432649
-0.00111726
0.000520789
-0.00114262
0.000602678
-0.00110914
0.000682559
-0.00105192
0.000788451
-0.00100262
0.000992618
-0.00120116
0.00118345
-0.00136449
0.000714626
-0.000964313
4.27013e-05
-9.10971e-05
2.32139e-06
-4.04562e-06
2.89533e-08
-3.08548e-08
1.62576e-09
1.50153e-09
2.71957e-09
-2.2103e-09
4.84571e-05
-0.000907311
9.47735e-05
-0.00101322
0.000135904
-0.000980524
0.000174263
-0.000982694
0.000215353
-0.00100154
0.00027069
-0.00104719
0.000347874
-0.0011316
0.000436717
-0.00120521
0.000523242
-0.00122801
0.000598382
-0.00118384
0.000681304
-0.00113483
0.000814389
-0.0011357
0.001031
-0.00141776
0.000957035
-0.00135058
8.71681e-05
-0.000243894
3.87595e-06
-8.39841e-06
3.5785e-08
-2.32971e-07
1.41053e-09
1.16834e-09
-8.67047e-10
3.2328e-09
2.88744e-09
-1.35026e-09
4.74689e-05
-0.000954779
8.69339e-05
-0.00105268
0.000122373
-0.00101596
0.000156781
-0.0010171
0.000201607
-0.00104636
0.000268062
-0.00111359
0.000352086
-0.00121182
0.000438583
-0.00128808
0.000515132
-0.00130292
0.00058217
-0.00125052
0.000677075
-0.0012297
0.000830235
-0.00128873
0.000919313
-0.00150683
0.000248565
-0.000790595
7.95426e-06
-3.39523e-05
2.42987e-07
-7.64e-07
1.68031e-10
9.78196e-09
-1.12844e-09
2.19767e-09
-9.0224e-10
2.74864e-09
-9.5043e-10
2.65993e-09
0.000123854
8.23079e-05
5.0061e-05
7.41297e-05
-6.10961e-06
5.6201e-05
-3.58004e-05
3.0003e-05
-4.61949e-05
1.0649e-05
-5.42288e-05
4.49374e-06
-5.27551e-05
-1.45028e-06
-5.07072e-05
-2.02977e-06
-5.04415e-05
-2.79206e-07
-6.01205e-05
9.66554e-06
-8.35037e-05
2.33698e-05
-0.000113912
2.6777e-05
-0.000119583
1.7986e-07
-0.000109753
-1.29966e-05
-9.20193e-05
-1.91959e-05
-6.69394e-05
-2.44226e-05
-3.57418e-05
-3.32546e-05
2.3806e-06
-3.91495e-05
4.15959e-05
-3.95321e-05
-2.83931e-05
7.06966e-05
0.000194726
0.000133851
0.00014516
0.000123728
0.00010857
9.26647e-05
9.39329e-05
4.48328e-05
0.000102448
2.42985e-05
9.3026e-05
1.07909e-05
8.6657e-05
3.28508e-06
8.33957e-05
3.07486e-07
8.95308e-05
2.27616e-06
7.63499e-05
2.67427e-05
3.78592e-05
6.74989e-05
-1.39913e-05
8.23312e-05
-5.64577e-05
4.31442e-05
-6.1148e-05
-8.65223e-06
-4.85018e-05
-3.17137e-05
-3.70011e-05
-3.6273e-05
-2.03414e-05
-5.06441e-05
2.12932e-06
-6.14615e-05
2.66486e-05
-6.38539e-05
-2.14016e-05
1.98808e-05
0.000294779
0.000182486
0.00025217
0.000166211
0.000193384
0.000151108
0.000174203
0.000133956
0.000110548
8.85882e-05
7.96256e-05
4.18492e-05
8.50234e-05
-1.94615e-06
0.000101671
-1.64997e-05
0.000108951
-5.02203e-06
8.21916e-05
5.2394e-05
3.5934e-05
0.000112753
-2.62406e-05
0.000143412
-7.44686e-05
9.03528e-05
-8.81403e-05
4.51737e-06
-8.97108e-05
-3.08276e-05
-9.29318e-05
-3.39392e-05
-9.44626e-05
-4.98702e-05
-0.000116959
-3.98267e-05
-0.000155662
-1.59924e-05
4.01204e-05
-0.00019027
0.00037091
0.000226096
0.000335228
0.000236537
0.000307069
0.000284811
0.000193929
0.000247333
9.16364e-05
0.000191017
3.56614e-05
9.79993e-05
1.56469e-05
1.79473e-05
4.95318e-06
-3.66961e-06
-7.95149e-06
7.2881e-06
-3.13703e-06
4.69105e-05
-1.42172e-05
0.00012277
-4.31779e-05
0.000171277
-8.21742e-05
0.000128255
-0.000144069
5.57233e-05
-0.000185046
8.89703e-06
-0.000223909
4.27496e-06
-0.000303797
2.9131e-05
-0.000394495
7.89202e-05
-0.000350419
7.62177e-05
7.97258e-05
-0.000392406
0.000467643
0.000298254
0.000414072
0.000331823
0.000337462
0.00031851
0.000273345
0.000251342
0.000211702
0.000129865
0.00026758
2.26404e-05
0.000325645
-5.89355e-05
0.000356366
-5.27192e-05
0.000500594
2.2289e-05
0.000410599
0.000125436
0.000260787
0.000211682
0.000155897
0.000176962
3.59398e-05
0.000103221
-0.000113426
5.68082e-05
-0.000314086
7.48321e-05
-0.000513584
0.000118731
-0.000645429
0.000209694
-0.000530775
0.000164465
-0.000581314
0.000124361
9.61474e-05
-0.00060012
0.000513149
0.000291627
0.000465148
0.000288246
0.000528502
0.000243571
0.000647874
0.000146608
0.000859229
-2.22053e-05
0.00111686
-0.000179918
0.00139168
-0.000279407
0.00158573
-0.000254152
0.00174076
-0.000143509
0.00181739
2.86054e-05
0.00142189
0.000173522
0.000488136
0.000118361
0.000184428
1.37132e-05
0.000208968
5.9091e-05
3.98729e-05
0.000127493
-0.000479007
0.000397977
-0.000755767
0.000507769
-0.000789711
0.000230696
-0.000838013
0.000171606
0.000159955
-0.000817349
0.000657173
0.000251494
0.000756056
0.000210259
0.000914608
0.000110889
0.00112946
-3.98991e-05
0.00146499
-0.000225777
0.00165058
-0.000372379
0.00178094
-0.000430548
0.00184133
-0.000391381
0.00178195
-0.000129255
0.00181061
-2.63915e-05
0.0014442
4.14408e-05
0.000185777
0.000105867
5.19494e-05
4.57462e-05
-1.41818e-05
6.01272e-05
-0.000232831
0.000142514
-0.000526043
0.000308281
-0.00058167
0.000310726
-0.000964188
0.000207218
-0.00115687
0.000183514
0.000130211
-0.00113179
0.000945733
0.00016929
0.00115211
8.18349e-05
0.00139988
-5.34398e-05
0.00159658
-0.000222678
0.00174943
-0.000380284
0.00184073
-0.000466954
0.00171277
-0.000411527
0.000728483
-0.000114881
5.90335e-05
-5.27234e-06
3.01055e-05
-1.4684e-06
5.71793e-05
-2.42335e-06
9.87406e-06
6.04603e-06
-9.99984e-06
3.88185e-05
-8.47358e-05
7.41246e-05
-0.000280865
0.000140451
-0.000277024
4.38202e-05
-0.000255214
0.000105442
-0.00094102
0.000123387
-0.00124911
3.28837e-05
4.70624e-05
-0.0011665
0.0013167
4.02037e-05
0.00149336
-7.00957e-05
0.00165643
-0.000211711
0.00179
-0.000359918
0.00185381
-0.000449819
0.00147978
-0.000378942
0.00028801
-8.18299e-05
1.27835e-05
-5.2169e-07
5.12235e-06
6.84889e-07
-2.03728e-07
9.69817e-07
-9.60671e-06
2.9799e-06
-2.39241e-05
1.4324e-05
-4.5771e-05
4.35079e-05
-6.42278e-05
8.11046e-05
-2.4896e-05
0.000160249
-0.000156992
0.00017896
-0.000240028
5.26712e-05
-0.00115563
-0.000111688
-0.00141341
-0.000161125
-8.24295e-05
-0.00128391
0.00155235
-9.38928e-05
0.00168903
-0.000205873
0.00180683
-0.000329327
0.00183664
-0.000391719
0.00126266
-0.000283964
0.00010299
-4.81279e-05
2.57214e-06
-5.42929e-07
6.44861e-07
1.8393e-07
-5.28527e-07
8.1773e-07
-3.01253e-06
1.37463e-06
-8.72224e-06
5.87346e-06
-2.04095e-05
2.14131e-05
-4.42037e-05
5.65588e-05
-8.68834e-05
0.00010274
-0.000238965
0.000209875
-0.000991372
3.55089e-05
-0.001374
-0.000415729
-0.00144944
-0.000425489
-0.00145376
-0.000315043
-0.000200761
-0.00138731
0.00171041
-0.000213078
0.00180777
-0.000302954
0.00178006
-0.000305064
0.000993934
-0.000146846
5.47686e-05
-2.07073e-05
2.33035e-06
-7.3722e-07
1.85761e-07
1.59137e-07
-2.52901e-07
2.36723e-07
-6.54331e-07
4.16542e-07
-2.36071e-06
2.04788e-06
-7.74157e-06
9.18585e-06
-2.60073e-05
3.3737e-05
-8.65858e-05
0.000100872
-0.000216446
0.000186218
-0.00168555
0.000183937
-0.00191291
-0.000444558
-0.00176777
-0.000571139
-0.00167857
-0.000521351
-0.00157082
-0.000426379
-0.000316709
-0.00147169
0.00178828
-0.000272904
0.0015149
-0.000222393
0.000439807
-7.3431e-05
2.37616e-05
-7.5302e-07
1.71519e-06
-4.80463e-07
1.05214e-07
6.40213e-08
-1.12831e-07
1.00846e-07
-1.66178e-07
1.2559e-07
-6.05483e-07
4.14004e-07
-1.58489e-06
2.23978e-06
-3.97524e-06
9.4842e-06
-1.18005e-05
3.5031e-05
-2.1305e-05
9.10384e-05
-0.000261064
0.000160934
-0.00115272
-1.048e-05
-0.00153464
-0.000155246
-0.00178296
-0.000279975
-0.00179953
-0.000539027
-0.00172954
-0.000500015
-0.000420532
-0.00162605
0.000768052
-9.09712e-05
7.54887e-05
-2.14676e-05
1.9161e-06
-1.14578e-06
8.29298e-07
-3.05237e-07
4.03069e-08
1.44955e-08
-6.287e-08
3.94211e-08
-5.50003e-08
3.70204e-08
-6.85736e-08
6.42621e-08
-1.3009e-07
3.09399e-07
2.15075e-07
1.45058e-06
2.04479e-06
6.11624e-06
9.56035e-06
2.18872e-05
-9.86415e-05
8.75049e-05
-0.000185768
5.13484e-05
-6.05689e-05
-2.16655e-06
-0.000115135
-8.3044e-06
-0.000354064
-1.95588e-05
-0.00111501
-7.39487e-05
-0.00164963
-0.000174695
-0.000408646
-0.00175244
2.27814e-05
-3.65853e-07
1.3653e-06
-6.58426e-07
3.72926e-07
-1.07808e-07
6.70608e-09
-8.58066e-09
-3.48643e-08
1.38771e-08
-2.68145e-08
1.46873e-08
-2.43149e-08
2.25475e-08
-3.67819e-08
4.98438e-08
3.04217e-09
1.95124e-07
3.4744e-07
8.08746e-07
1.72179e-06
3.55277e-06
5.09275e-06
1.34863e-05
-6.62776e-05
4.64985e-05
-0.000143734
1.28804e-05
-2.85948e-05
4.68976e-06
-1.48988e-05
-6.88521e-06
-3.00924e-05
-3.37078e-06
-9.78694e-05
-6.73318e-06
-0.000278376
-1.54054e-05
-9.17191e-05
-0.00104748
7.55824e-07
-5.5875e-08
1.09105e-07
-2.03093e-08
-3.62311e-09
-8.74827e-10
-2.14592e-08
5.22097e-09
-1.80959e-08
6.68322e-09
-1.45147e-08
7.05162e-09
-1.20447e-08
1.67121e-08
-1.66869e-08
4.00338e-08
2.29519e-08
1.18738e-07
1.6701e-07
4.06117e-07
7.01123e-07
1.8457e-06
4.98418e-07
7.97006e-06
-1.48931e-05
1.4494e-05
-5.78389e-05
3.46241e-06
-2.7925e-05
2.43973e-05
-1.01713e-05
-4.34501e-06
-7.79048e-06
-6.1808e-06
-1.2344e-05
-1.97673e-06
-2.56858e-05
-2.26794e-06
-8.01566e-06
-0.000111646
1.94929e-08
-2.6578e-09
-8.32993e-09
5.93168e-10
-1.3014e-08
4.24544e-09
-1.18047e-08
5.43956e-09
-1.01893e-08
1.25841e-08
-8.31951e-09
1.28696e-08
-9.03214e-09
1.94467e-08
-1.2602e-08
3.8215e-08
-5.29106e-10
8.57587e-08
5.48785e-08
2.56441e-07
1.88001e-07
8.00067e-07
-2.7109e-07
4.10994e-06
-8.55244e-07
2.07105e-06
-1.47236e-05
6.88863e-07
-4.15741e-05
5.37093e-06
-3.60409e-05
3.29579e-07
-5.80353e-06
-2.76827e-06
-3.40117e-06
-3.62174e-06
-3.66877e-06
-1.51548e-06
-5.11257e-07
-1.0869e-05
-5.21446e-09
1.58765e-09
-6.62913e-09
1.73903e-09
-6.51521e-09
5.79176e-09
-5.94881e-09
7.52903e-09
-7.60279e-09
1.86985e-08
-7.76419e-09
2.26082e-08
-9.25949e-09
2.96348e-08
-1.42185e-08
4.40743e-08
-1.35812e-08
7.74133e-08
-1.3303e-09
2.15589e-07
5.17663e-09
6.84274e-07
4.74983e-07
1.78087e-06
1.47687e-06
6.59713e-07
-3.67162e-07
-4.49015e-07
-2.79517e-06
-1.258e-06
-3.20738e-06
-1.17826e-07
-4.21719e-06
-5.45671e-07
-3.81223e-06
-7.93561e-08
-6.27168e-07
-8.92218e-07
-2.56417e-07
-6.69046e-07
-2.48321e-09
1.6101e-09
-2.77378e-09
2.57701e-09
-3.57429e-09
8.31824e-09
-5.53244e-09
1.19001e-08
-6.94627e-09
2.21543e-08
-8.83978e-09
2.89322e-08
-1.00161e-08
4.60162e-08
-1.03576e-08
6.7007e-08
-2.73793e-09
1.26708e-07
6.67961e-09
4.02017e-07
1.92401e-07
6.90906e-07
7.20681e-07
4.77411e-07
9.30974e-07
2.66738e-07
9.68106e-07
4.42969e-08
4.22571e-07
-2.66938e-07
-3.10884e-10
-2.04404e-08
-5.19475e-07
-3.2596e-08
-2.86848e-07
-2.14317e-08
-4.60868e-07
-1.44521e-07
-1.25701e-07
-2.09226e-07
-1.28035e-09
1.44844e-09
-2.06249e-09
3.07747e-09
-2.19041e-09
9.39492e-09
-1.45892e-08
3.56001e-08
-2.45198e-08
1.14021e-07
-3.63793e-08
1.99718e-07
-2.85148e-08
1.77638e-07
-8.93459e-09
2.34275e-07
-2.29477e-09
2.00915e-07
3.32503e-08
1.84414e-07
1.50661e-07
1.90064e-07
2.68398e-07
7.20264e-08
3.82364e-07
3.97336e-08
3.85111e-07
-1.22884e-08
1.89362e-07
-6.71593e-08
5.35665e-08
2.88359e-08
1.8625e-08
4.27359e-09
1.74237e-09
-1.39536e-11
1.33653e-08
-1.7045e-09
-3.24244e-09
-5.29627e-09
-1.4046e-09
1.73905e-09
-2.67686e-09
4.22267e-09
-5.33756e-09
2.80209e-08
-3.5542e-08
1.19957e-07
-2.67989e-08
1.08365e-07
-3.38831e-08
2.30734e-07
-1.95802e-08
1.24069e-07
-3.72037e-08
2.14778e-07
-2.88982e-09
2.00905e-07
1.81745e-08
3.89765e-09
4.5531e-08
6.5376e-09
9.40196e-08
1.27505e-08
1.16485e-07
7.91902e-09
1.04774e-07
-2.22292e-09
4.93838e-08
-9.95639e-09
4.64279e-08
-6.29228e-09
3.13659e-09
4.60166e-09
2.27514e-09
3.80554e-10
5.02265e-10
1.05532e-11
1.04111e-08
5.7483e-10
-9.64841e-05
0.000165728
-0.000439979
0.000343495
-0.000727426
0.000287446
-0.000899141
0.000171716
-0.000956544
5.74029e-05
-0.000954399
-2.14551e-06
-0.000936446
-1.79521e-05
-0.000889579
-4.68676e-05
-0.000813054
-7.65247e-05
-0.00072586
-8.7194e-05
-0.000641749
-8.4111e-05
-0.000563735
-7.8014e-05
-0.000489776
-7.39592e-05
-0.00041772
-7.20552e-05
-0.000346669
-7.1051e-05
-0.000276342
-7.03275e-05
-0.000206495
-6.98465e-05
-0.000136281
-7.02141e-05
-6.36992e-05
-7.25818e-05
-6.36993e-05
-0.000164035
0.000305537
-0.000549919
0.000729379
-0.000852865
0.000590393
-0.000889457
0.000208308
-0.000824939
-7.11041e-06
-0.000776729
-5.03557e-05
-0.000728192
-6.64889e-05
-0.00066024
-0.00011482
-0.000586136
-0.000150628
-0.000515882
-0.000157448
-0.00045146
-0.000148533
-0.000392374
-0.0001371
-0.000337943
-0.000128391
-0.000286898
-0.000123101
-0.000237643
-0.000120305
-0.000189244
-0.000118727
-0.00014132
-0.00011777
-9.29389e-05
-0.000118595
-4.29729e-05
-0.000122548
-0.000106672
-0.000372163
0.000260312
-0.00055934
0.000817553
-0.000705285
0.000736338
-0.000714027
0.000217395
-0.000687626
-3.40274e-05
-0.000670313
-6.76685e-05
-0.000634885
-0.000101917
-0.0005933
-0.000156405
-0.000552614
-0.000191314
-0.000507249
-0.000202813
-0.00045527
-0.000200512
-0.000399679
-0.00019269
-0.000344402
-0.000183669
-0.000291417
-0.000176085
-0.000240807
-0.000170915
-0.000191855
-0.000167678
-0.000143611
-0.000166014
-9.45667e-05
-0.000167639
-4.33216e-05
-0.000173793
-0.000149994
-0.000437901
0.000299584
-0.000626582
0.000512385
-0.000613313
0.000723078
-0.000635466
0.00023643
-0.00066702
-2.474e-06
-0.000683527
-5.11615e-05
-0.000665721
-0.000119723
-0.000637635
-0.000184491
-0.000603635
-0.000225314
-0.000559974
-0.000246473
-0.000507365
-0.000253122
-0.000449483
-0.000250572
-0.000389818
-0.000243333
-0.000330771
-0.000235132
-0.000273444
-0.000228242
-0.000217739
-0.000223381
-0.000162913
-0.00022084
-0.000107303
-0.00022325
-4.90837e-05
-0.000232011
-0.000199078
-0.000564575
0.000259248
-0.000533918
0.000475485
-0.000658233
0.000508546
-0.000661503
0.0002397
-0.00071599
5.20136e-05
-0.000729856
-3.72954e-05
-0.00070769
-0.000141889
-0.000674508
-0.000217673
-0.000634296
-0.000265526
-0.000587305
-0.000293464
-0.000534358
-0.000306068
-0.000476931
-0.000307999
-0.000416757
-0.000303507
-0.00035557
-0.000296319
-0.000294662
-0.00028915
-0.000234643
-0.0002834
-0.000175338
-0.000280145
-0.000115348
-0.000283239
-5.27916e-05
-0.000294569
-0.000251869
-0.000762764
0.000359509
-0.000707903
0.000431557
-0.000761499
0.00040225
-0.0007504
0.000228602
-0.000781801
8.34135e-05
-0.000767623
-5.14725e-05
-0.000732566
-0.000176947
-0.000691259
-0.000258979
-0.000645425
-0.00031136
-0.000595715
-0.000343174
-0.00054213
-0.000359653
-0.000484944
-0.000365185
-0.000424988
-0.000363464
-0.000363442
-0.000357866
-0.000301527
-0.000351065
-0.000240071
-0.000344856
-0.00017922
-0.000340996
-0.000117814
-0.000344645
-5.40279e-05
-0.000358356
-0.000305897
-0.0010607
0.00031027
-0.000958145
0.000357224
-0.000869416
0.000321288
-0.000848378
0.000207279
-0.000834803
6.98381e-05
-0.000796044
-9.02314e-05
-0.000751433
-0.000221558
-0.000703139
-0.000307273
-0.000651919
-0.00036258
-0.000598543
-0.00039655
-0.000542846
-0.00041535
-0.000484742
-0.000423288
-0.000424576
-0.000423629
-0.000363066
-0.000419376
-0.000301195
-0.000412935
-0.000239725
-0.000406324
-0.000178868
-0.000401854
-0.000117586
-0.000405927
-5.40872e-05
-0.000421854
-0.000359984
-0.00106996
0.000213751
-0.00101609
0.000303363
-0.000967726
0.00027293
-0.00092388
0.000163428
-0.000874336
2.02942e-05
-0.000823132
-0.000141435
-0.000771958
-0.000272731
-0.000717171
-0.00036206
-0.0006602
-0.00041955
-0.0006022
-0.00045455
-0.000543267
-0.000474284
-0.000483323
-0.000483231
-0.000422352
-0.0004846
-0.000360663
-0.000481065
-0.000298965
-0.000474632
-0.000237828
-0.000467461
-0.000177397
-0.000462286
-0.000116672
-0.000466652
-5.38481e-05
-0.000484678
-0.000413832
-0.00113349
6.33428e-05
-0.00107036
0.00024024
-0.00102852
0.000231091
-0.000971663
0.000106567
-0.000906213
-4.51548e-05
-0.000847656
-0.000199993
-0.000791345
-0.000329042
-0.000732071
-0.000421334
-0.000670478
-0.000481144
-0.000607907
-0.00051712
-0.000545238
-0.000536953
-0.000482859
-0.00054561
-0.000420637
-0.000546822
-0.000358473
-0.000543228
-0.00029678
-0.000536327
-0.000235905
-0.000528337
-0.000175893
-0.000522299
-0.000115747
-0.000526798
-5.36082e-05
-0.000546816
-0.000467442
-0.00120739
-0.000116575
-0.00110512
0.000137972
-0.00104812
0.000174089
-0.000990847
4.92926e-05
-0.000924553
-0.000111449
-0.000861692
-0.000262853
-0.000803307
-0.000387427
-0.000743817
-0.000480824
-0.000680471
-0.000544489
-0.00061464
-0.000582951
-0.000548503
-0.000603091
-0.000483368
-0.000610744
-0.000419563
-0.000610628
-0.000356689
-0.000606101
-0.000294836
-0.00059818
-0.00023411
-0.000589063
-0.000174447
-0.000581962
-0.000114853
-0.000586395
-5.3397e-05
-0.000608274
-0.000520839
-0.00127622
-0.000323662
-0.00112573
-1.25122e-05
-0.00103654
8.48934e-05
-0.000976996
-1.02476e-05
-0.000917425
-0.000171021
-0.000859637
-0.000320641
-0.000805705
-0.00044136
-0.000749973
-0.000536556
-0.000687832
-0.00060663
-0.000620889
-0.000649894
-0.000552301
-0.000671678
-0.000484398
-0.000678647
-0.000418737
-0.000676289
-0.000354969
-0.00066987
-0.00029286
-0.000660289
-0.000232241
-0.000649682
-0.000172911
-0.000641292
-0.000113892
-0.000645413
-5.31809e-05
-0.000668985
-0.00057402
-0.00138618
-0.000563545
-0.00117067
-0.000228015
-0.00102114
-6.4636e-05
-0.000934875
-9.65165e-05
-0.00088207
-0.000223826
-0.000840454
-0.000362256
-0.000799346
-0.000482467
-0.000750716
-0.000585186
-0.000691633
-0.000665713
-0.000625484
-0.000716043
-0.000555911
-0.000741251
-0.000485555
-0.000749003
-0.00041782
-0.000744024
-0.000353001
-0.00073469
-0.000290588
-0.000722702
-0.000230106
-0.000710164
-0.000171154
-0.000700244
-0.000112785
-0.000703782
-5.29292e-05
-0.000728841
-0.000626949
-0.00154301
-0.000773393
-0.00128468
-0.000486358
-0.00106854
-0.000280769
-0.000931315
-0.000233746
-0.00085768
-0.00029746
-0.000818075
-0.000401862
-0.000786566
-0.000513976
-0.000746601
-0.000625151
-0.000692317
-0.000719997
-0.000627964
-0.000780396
-0.00055863
-0.000810585
-0.000486519
-0.000821114
-0.000416622
-0.000813921
-0.00035061
-0.000800701
-0.000287854
-0.000785458
-0.00022757
-0.000770449
-0.000169075
-0.000758739
-0.000111459
-0.000761398
-5.26081e-05
-0.000787693
-0.000679556
-0.00163523
-0.000571321
-0.00144865
-0.000673357
-0.00120137
-0.000528053
-0.00100927
-0.000425848
-0.000885784
-0.000420944
-0.000814345
-0.000473301
-0.000773603
-0.000554718
-0.000738941
-0.000659813
-0.000690763
-0.000768175
-0.000628364
-0.000842795
-0.000559811
-0.000879138
-0.00048684
-0.000894085
-0.000415022
-0.00088574
-0.000347795
-0.000867928
-0.00028467
-0.000848582
-0.000224614
-0.000830505
-0.000166618
-0.000816735
-0.00010983
-0.000818185
-5.21512e-05
-0.000845371
-0.000731707
-0.00101772
-9.27193e-05
-0.00154009
-0.000438415
-0.00136535
-0.00070319
-0.00113731
-0.000653903
-0.000957345
-0.000600916
-0.000835587
-0.000595059
-0.000767493
-0.000622812
-0.000730469
-0.000696836
-0.000687706
-0.000810938
-0.000626882
-0.000903619
-0.000559272
-0.000946748
-0.000486044
-0.000967314
-0.000412811
-0.000958972
-0.000344584
-0.000936155
-0.000281242
-0.000911923
-0.000221512
-0.000890235
-0.000163985
-0.000874263
-0.000107928
-0.000874242
-5.14745e-05
-0.000901825
-0.000783182
-9.96761e-05
-3.97077e-06
-0.000731109
-3.8896e-05
-0.00140649
-0.000242883
-0.00129369
-0.000796493
-0.00107368
-0.000821024
-0.00088981
-0.000778936
-0.00077419
-0.000738433
-0.000721742
-0.000749284
-0.000681911
-0.000850768
-0.000623221
-0.000962309
-0.000557629
-0.00101234
-0.000484302
-0.00104064
-0.000409681
-0.00103359
-0.00034058
-0.00100526
-0.000277492
-0.000975011
-0.000218705
-0.000949022
-0.000161868
-0.0009311
-0.000106236
-0.000929873
-5.06555e-05
-0.000957405
-0.000833837
-4.13671e-06
-3.72892e-07
-4.12989e-05
-1.68963e-06
-0.000308671
-9.55668e-06
-0.00109878
-0.000186421
-0.00121877
-0.000758582
-0.0010036
-0.000994263
-0.000813551
-0.00092849
-0.000715252
-0.000847583
-0.00066985
-0.00089617
-0.000615027
-0.00101713
-0.000555109
-0.00107226
-0.000482824
-0.00111293
-0.000405974
-0.00111044
-0.000335034
-0.0010762
-0.000272294
-0.00103775
-0.000215728
-0.00100559
-0.00016082
-0.000986008
-0.000105672
-0.000985022
-5.02149e-05
-0.00101286
-0.000884052
-2.38193e-07
-2.29241e-07
-1.49208e-06
-2.78526e-07
-1.02673e-05
-6.92203e-07
-0.000186944
-1.0259e-05
-0.000931517
-0.000152353
-0.00114076
-0.000853517
-0.000909089
-0.0011601
-0.000730488
-0.00102618
-0.000654571
-0.000972086
-0.00059853
-0.00107317
-0.000548788
-0.001122
-0.000482059
-0.00117965
-0.000403502
-0.001189
-0.000328659
-0.00115104
-0.00026426
-0.00110215
-0.000210155
-0.00105969
-0.000159404
-0.00103676
-0.000106337
-0.00103809
-5.09512e-05
-0.00106825
-0.000935003
-8.41165e-08
-3.78768e-08
-8.27374e-08
-4.98955e-08
-4.95007e-07
-1.28352e-07
-1.0195e-05
-5.90703e-07
-0.000152287
-1.06913e-05
-0.000923519
-0.000181648
-0.00102596
-0.00109157
-0.000788429
-0.00126365
-0.0006532
-0.00110729
-0.000575714
-0.00115065
-0.000533219
-0.00116449
-0.000478536
-0.00123434
-0.000403724
-0.00126377
-0.000324785
-0.00122997
-0.000254676
-0.00117226
-0.000199526
-0.00111484
-0.000153645
-0.00108264
-0.000105895
-0.00108584
-5.28592e-05
-0.00112128
-0.000987863
3.49099e-09
-2.0441e-12
-2.40177e-08
-8.07558e-11
-1.64192e-08
-4.20757e-09
-5.90819e-07
-1.48714e-08
-1.03798e-05