/*--------------------------------*- C++ -*----------------------------------*\
| =========                 |                                                 |
| \\      /  F ield         | OpenFOAM: The Open Source CFD Toolbox           |
|  \\    /   O peration     | Version:  2.4.0                                 |
|   \\  /    A nd           | Web:      www.OpenFOAM.org                      |
|    \\/     M anipulation  |                                                 |
\*---------------------------------------------------------------------------*/
FoamFile
{
    version     2.0;
    format      ascii;
    class       volVectorField;
    location    "0.25";
    object      U;
}
// * * * * * * * * * * * * * * * * * * * * * * * * * * * * * * * * * * * * * //

dimensions      [0 1 -1 0 0 0 0];

internalField   nonuniform List<vector> 
60000
(
(-0.000604795 0.000254487 0)
(-0.00199999 0.000248436 0)
(-0.00342317 0.000250315 0)
(-0.00483687 0.000246864 0)
(-0.00622043 0.000241712 0)
(-0.00756509 0.000235071 0)
(-0.00886352 0.000227092 0)
(-0.0101093 0.000217819 0)
(-0.0112969 0.000207406 0)
(-0.0124219 0.000195956 0)
(-0.0134812 0.000183597 0)
(-0.0144727 0.000170551 0)
(-0.0153953 0.00015698 0)
(-0.0162492 0.000143196 0)
(-0.0170353 0.000129287 0)
(-0.017755 0.00011536 0)
(-0.0184104 0.000101584 0)
(-0.0190036 8.80348e-05 0)
(-0.019537 7.47472e-05 0)
(-0.0200131 6.17878e-05 0)
(-0.0204337 4.92071e-05 0)
(-0.0208009 3.69092e-05 0)
(-0.021116 2.48658e-05 0)
(-0.0213801 1.30305e-05 0)
(-0.0215935 1.34157e-06 0)
(-0.0217564 -1.02759e-05 0)
(-0.0218683 -2.19128e-05 0)
(-0.0219284 -3.37424e-05 0)
(-0.0219356 -4.57052e-05 0)
(-0.0218873 -5.69874e-05 0)
(-0.0217818 -6.84804e-05 0)
(-0.021617 -8.03325e-05 0)
(-0.0213908 -9.22215e-05 0)
(-0.021101 -0.000104366 0)
(-0.0207447 -0.000116817 0)
(-0.0203192 -0.000129534 0)
(-0.0198218 -0.00014253 0)
(-0.01925 -0.00015575 0)
(-0.0186011 -0.000169174 0)
(-0.0178727 -0.00018277 0)
(-0.0170625 -0.00019649 0)
(-0.0161684 -0.000210297 0)
(-0.0151885 -0.000224142 0)
(-0.0141212 -0.000237984 0)
(-0.0129652 -0.000251771 0)
(-0.0117197 -0.000265442 0)
(-0.010384 -0.000278937 0)
(-0.00895826 -0.000292193 0)
(-0.00744263 -0.000305144 0)
(-0.00583796 -0.000317713 0)
(-0.00414553 -0.000329834 0)
(-0.00236705 -0.000341466 0)
(-0.000505345 -0.000352696 0)
(0.00143701 -0.000362836 0)
(0.00345814 -0.000371892 0)
(0.00555357 -0.000380689 0)
(0.00771874 -0.000388301 0)
(0.00995066 -0.000394529 0)
(0.0122445 -0.000400249 0)
(0.0145951 -0.000404897 0)
(0.0169983 -0.000408747 0)
(0.0194492 -0.000411452 0)
(0.021943 -0.000413309 0)
(0.0244751 -0.000414166 0)
(0.0270408 -0.000414288 0)
(0.0296358 -0.000413511 0)
(0.0322557 -0.000412056 0)
(0.0348964 -0.000409913 0)
(0.0375537 -0.00040718 0)
(0.0402238 -0.000403775 0)
(0.0429027 -0.000399747 0)
(0.0455866 -0.000395152 0)
(0.0482714 -0.000389954 0)
(0.0509533 -0.000384136 0)
(0.0536281 -0.000377698 0)
(0.0562919 -0.000370635 0)
(0.0589405 -0.000362986 0)
(0.0615701 -0.000354798 0)
(0.064177 -0.000346085 0)
(0.0667573 -0.000336865 0)
(0.0693075 -0.000327135 0)
(0.0718237 -0.000316826 0)
(0.0743016 -0.000305795 0)
(0.0767358 -0.000293826 0)
(0.0791199 -0.000280705 0)
(0.0814461 -0.000266265 0)
(0.0837054 -0.000250477 0)
(0.0858883 -0.000233524 0)
(0.0879858 -0.000215915 0)
(0.0899906 -0.000198234 0)
(0.0918971 -0.000180824 0)
(0.0937009 -0.000163488 0)
(0.0953964 -0.000145181 0)
(0.0969732 -0.000123295 0)
(0.0984101 -9.29485e-05 0)
(0.0996655 -4.75125e-05 0)
(0.100675 1.73612e-05 0)
(0.101351 9.89461e-05 0)
(0.101638 0.000170995 0)
(0.101468 0.000198192 0)
(-0.000849847 0.00108076 0)
(-0.00294007 0.00121415 0)
(-0.00504774 0.00121434 0)
(-0.00713242 0.00119236 0)
(-0.00916736 0.00116154 0)
(-0.0111415 0.00112389 0)
(-0.0130456 0.00108049 0)
(-0.0148721 0.00103219 0)
(-0.0166152 0.00098009 0)
(-0.0182712 0.000925137 0)
(-0.0198385 0.000868393 0)
(-0.0213174 0.000810918 0)
(-0.0227092 0.000753518 0)
(-0.0240171 0.000697123 0)
(-0.0252444 0.000642078 0)
(-0.0263951 0.000588889 0)
(-0.0274737 0.000537864 0)
(-0.0284844 0.000489042 0)
(-0.0294314 0.000442368 0)
(-0.0303183 0.000397736 0)
(-0.0311481 0.000354908 0)
(-0.0319229 0.000313434 0)
(-0.0326443 0.000272941 0)
(-0.0333128 0.000233001 0)
(-0.0339281 0.000193175 0)
(-0.0344892 0.000153022 0)
(-0.0349942 0.000112113 0)
(-0.0354406 6.99936e-05 0)
(-0.0358249 2.65158e-05 0)
(-0.0361444 -1.79803e-05 0)
(-0.0363943 -6.42874e-05 0)
(-0.0365691 -0.000112604 0)
(-0.0366638 -0.000164113 0)
(-0.0366737 -0.000218058 0)
(-0.0365931 -0.000274741 0)
(-0.0364165 -0.000334024 0)
(-0.0361382 -0.000395886 0)
(-0.0357526 -0.000460241 0)
(-0.0352545 -0.000527122 0)
(-0.0346386 -0.000596281 0)
(-0.0338999 -0.000667596 0)
(-0.0330339 -0.000740857 0)
(-0.0320362 -0.000815829 0)
(-0.0309034 -0.000892231 0)
(-0.0296322 -0.000969755 0)
(-0.02822 -0.00104809 0)
(-0.026665 -0.0011269 0)
(-0.0249659 -0.00120582 0)
(-0.0231221 -0.00128447 0)
(-0.0211338 -0.00136245 0)
(-0.0190018 -0.00143937 0)
(-0.0167278 -0.00151487 0)
(-0.0143144 -0.00158875 0)
(-0.0117644 -0.00165969 0)
(-0.00908077 -0.00172771 0)
(-0.00626842 -0.00179349 0)
(-0.00333219 -0.00185555 0)
(-0.000276731 -0.00191369 0)
(0.002892 -0.00196874 0)
(0.00616771 -0.00201983 0)
(0.00954477 -0.002067 0)
(0.0130167 -0.00211022 0)
(0.0165768 -0.0021495 0)
(0.0202192 -0.0021847 0)
(0.0239372 -0.00221621 0)
(0.0277248 -0.00224387 0)
(0.0315757 -0.00226795 0)
(0.0354838 -0.0022887 0)
(0.0394437 -0.0023058 0)
(0.043449 -0.00231975 0)
(0.0474946 -0.0023302 0)
(0.0515741 -0.0023374 0)
(0.0556818 -0.00234121 0)
(0.059812 -0.00234159 0)
(0.0639584 -0.00233856 0)
(0.0681153 -0.00233202 0)
(0.0722766 -0.00232208 0)
(0.0764363 -0.00230887 0)
(0.0805885 -0.00229245 0)
(0.0847274 -0.00227286 0)
(0.0888472 -0.00225007 0)
(0.092942 -0.00222384 0)
(0.0970052 -0.00219362 0)
(0.101029 -0.00215853 0)
(0.105004 -0.0021175 0)
(0.10892 -0.00206938 0)
(0.112762 -0.00201331 0)
(0.116515 -0.00194895 0)
(0.120163 -0.00187693 0)
(0.123692 -0.00179846 0)
(0.127088 -0.00171471 0)
(0.13034 -0.00162593 0)
(0.133438 -0.00153038 0)
(0.136372 -0.00142285 0)
(0.139129 -0.00129291 0)
(0.141685 -0.00112423 0)
(0.144008 -0.000899295 0)
(0.146036 -0.000607144 0)
(0.147719 -0.00026087 0)
(0.148854 9.24187e-05 0)
(-0.000896137 0.00207487 0)
(-0.00313511 0.00232518 0)
(-0.00538834 0.00231712 0)
(-0.0076216 0.00227404 0)
(-0.00980498 0.00221563 0)
(-0.0119282 0.00214535 0)
(-0.0139825 0.00206515 0)
(-0.0159609 0.00197701 0)
(-0.0178584 0.00188308 0)
(-0.0196721 0.00178529 0)
(-0.0214013 0.00168575 0)
(-0.0230469 0.00158633 0)
(-0.0246112 0.00148838 0)
(-0.0260978 0.00139322 0)
(-0.0275106 0.0013016 0)
(-0.028854 0.00121418 0)
(-0.0301327 0.00113122 0)
(-0.0313514 0.0010526 0)
(-0.0325141 0.000978041 0)
(-0.0336244 0.000907083 0)
(-0.0346849 0.000839068 0)
(-0.0356977 0.000773155 0)
(-0.0366637 0.000708515 0)
(-0.037583 0.000644259 0)
(-0.0384547 0.000579505 0)
(-0.0392769 0.000513405 0)
(-0.0400471 0.000445171 0)
(-0.0407618 0.000374135 0)
(-0.0414168 0.000299661 0)
(-0.0420076 0.000220926 0)
(-0.0425289 0.000137805 0)
(-0.0429753 4.99143e-05 0)
(-0.0433412 -4.41537e-05 0)
(-0.0436199 -0.000144022 0)
(-0.0438051 -0.000249195 0)
(-0.04389 -0.000359874 0)
(-0.0438686 -0.000476125 0)
(-0.0437346 -0.000598073 0)
(-0.0434817 -0.000725348 0)
(-0.043104 -0.000857819 0)
(-0.0425959 -0.000995093 0)
(-0.0419521 -0.00113678 0)
(-0.0411679 -0.00128241 0)
(-0.0402388 -0.00143144 0)
(-0.0391614 -0.00158325 0)
(-0.0379324 -0.00173715 0)
(-0.0365497 -0.00189246 0)
(-0.0350118 -0.00204842 0)
(-0.0333179 -0.0022043 0)
(-0.031468 -0.0023593 0)
(-0.0294629 -0.00251265 0)
(-0.0273043 -0.00266358 0)
(-0.0249947 -0.00281134 0)
(-0.022537 -0.00295481 0)
(-0.0199348 -0.00309355 0)
(-0.0171927 -0.0032273 0)
(-0.0143159 -0.00335511 0)
(-0.0113094 -0.00347656 0)
(-0.00817956 -0.00359155 0)
(-0.00493258 -0.0036996 0)
(-0.00157472 -0.00380023 0)
(0.00188723 -0.00389402 0)
(0.00544652 -0.00398043 0)
(0.00909652 -0.00405951 0)
(0.0128304 -0.00413148 0)
(0.0166417 -0.00419655 0)
(0.0205238 -0.0042547 0)
(0.0244705 -0.00430645 0)
(0.0284756 -0.00435143 0)
(0.0325331 -0.00439018 0)
(0.0366373 -0.00442241 0)
(0.0407813 -0.00444851 0)
(0.0449593 -0.0044681 0)
(0.0491652 -0.0044812 0)
(0.0533925 -0.00448778 0)
(0.0576348 -0.00448767 0)
(0.0618854 -0.00448108 0)
(0.0661373 -0.00446811 0)
(0.0703838 -0.00444885 0)
(0.074618 -0.00442336 0)
(0.0788329 -0.00439159 0)
(0.0830208 -0.0043531 0)
(0.0871735 -0.00430689 0)
(0.0912809 -0.00425137 0)
(0.0953314 -0.0041845 0)
(0.0993104 -0.00410399 0)
(0.103201 -0.0040079 0)
(0.106985 -0.00389528 0)
(0.110644 -0.00376672 0)
(0.114159 -0.00362397 0)
(0.117515 -0.00346938 0)
(0.120702 -0.0033047 0)
(0.123714 -0.00312923 0)
(0.126548 -0.00293838 0)
(0.129206 -0.00272194 0)
(0.131693 -0.00246284 0)
(0.134014 -0.00214043 0)
(0.136149 -0.00173796 0)
(0.138077 -0.00124206 0)
(0.139646 -0.000644503 0)
(-0.000911715 0.00308981 0)
(-0.00319659 0.00347059 0)
(-0.00549463 0.00345809 0)
(-0.00777597 0.00339497 0)
(-0.0100085 0.00331 0)
(-0.0121824 0.00320821 0)
(-0.0142892 0.00309255 0)
(-0.0163222 0.00296609 0)
(-0.0182767 0.00283204 0)
(-0.0201503 0.00269335 0)
(-0.0219422 0.00255295 0)
(-0.0236539 0.00241349 0)
(-0.0252876 0.00227702 0)
(-0.0268473 0.00214521 0)
(-0.0283372 0.00201924 0)
(-0.0297617 0.00189979 0)
(-0.0311261 0.00178711 0)
(-0.0324349 0.00168097 0)
(-0.0336923 0.00158079 0)
(-0.034902 0.00148578 0)
(-0.0360668 0.00139483 0)
(-0.0371883 0.00130668 0)
(-0.0382676 0.00122 0)
(-0.0393046 0.00113341 0)
(-0.0402982 0.00104557 0)
(-0.0412462 0.000955168 0)
(-0.0421459 0.000860989 0)
(-0.0429936 0.00076194 0)
(-0.0437847 0.00065703 0)
(-0.0445142 0.000545318 0)
(-0.0451767 0.000426104 0)
(-0.0457662 0.000298707 0)
(-0.0462764 0.000163125 0)
(-0.0467004 1.85293e-05 0)
(-0.0470319 -0.000134632 0)
(-0.047264 -0.000296785 0)
(-0.04739 -0.00046786 0)
(-0.047403 -0.000647804 0)
(-0.0472966 -0.000836227 0)
(-0.0470648 -0.0010328 0)
(-0.0467015 -0.00123699 0)
(-0.0462012 -0.00144819 0)
(-0.045559 -0.00166566 0)
(-0.0447704 -0.00188859 0)
(-0.0438315 -0.00211605 0)
(-0.0427392 -0.002347 0)
(-0.0414908 -0.00258036 0)
(-0.0400847 -0.00281499 0)
(-0.03852 -0.00304973 0)
(-0.0367967 -0.00328339 0)
(-0.0349155 -0.00351479 0)
(-0.032878 -0.00374276 0)
(-0.0306866 -0.00396611 0)
(-0.0283445 -0.00418357 0)
(-0.0258552 -0.00439423 0)
(-0.0232235 -0.00459735 0)
(-0.0204544 -0.00479191 0)
(-0.0175536 -0.00497723 0)
(-0.014527 -0.00515289 0)
(-0.0113811 -0.00531838 0)
(-0.00812246 -0.00547329 0)
(-0.00475793 -0.00561781 0)
(-0.00129432 -0.00575162 0)
(0.0022616 -0.00587489 0)
(0.00590283 -0.0059875 0)
(0.00962275 -0.00608994 0)
(0.0134146 -0.00618212 0)
(0.017272 -0.00626478 0)
(0.0211887 -0.00633787 0)
(0.0251586 -0.00640107 0)
(0.0291754 -0.00645511 0)
(0.0332325 -0.00649974 0)
(0.0373235 -0.0065347 0)
(0.0414417 -0.00655993 0)
(0.04558 -0.0065752 0)
(0.0497312 -0.00658034 0)
(0.0538874 -0.00657537 0)
(0.0580404 -0.00656025 0)
(0.0621821 -0.00653499 0)
(0.0663036 -0.00649956 0)
(0.0703958 -0.00645359 0)
(0.0744486 -0.00639613 0)
(0.0784504 -0.00632541 0)
(0.0823875 -0.00623881 0)
(0.0862439 -0.00613301 0)
(0.0900001 -0.00600431 0)
(0.0936346 -0.00584968 0)
(0.0971239 -0.00566789 0)
(0.100445 -0.00545999 0)
(0.103577 -0.0052292 0)
(0.106504 -0.00498035 0)
(0.109219 -0.00471797 0)
(0.111718 -0.00444423 0)
(0.114007 -0.00415766 0)
(0.116097 -0.00385121 0)
(0.118007 -0.00350948 0)
(0.119763 -0.00310872 0)
(0.121374 -0.00262192 0)
(0.122848 -0.00202517 0)
(0.124058 -0.00129359 0)
(-0.000922693 0.00411624 0)
(-0.00323468 0.00463057 0)
(-0.00555788 0.00461481 0)
(-0.00786548 0.00453183 0)
(-0.0101235 0.0044204 0)
(-0.0123224 0.00428724 0)
(-0.0144537 0.00413633 0)
(-0.0165105 0.00397183 0)
(-0.0184885 0.00379796 0)
(-0.0203852 0.00361873 0)
(-0.0222002 0.003438 0)
(-0.023935 0.00325911 0)
(-0.0255924 0.00308488 0)
(-0.0271766 0.0029174 0)
(-0.0286921 0.00275812 0)
(-0.0301437 0.00260786 0)
(-0.0315368 0.00246683 0)
(-0.0328764 0.00233464 0)
(-0.034167 0.00221043 0)
(-0.0354122 0.00209301 0)
(-0.036615 0.00198084 0)
(-0.0377773 0.00187217 0)
(-0.0389 0.00176518 0)
(-0.039983 0.00165798 0)
(-0.0410251 0.00154872 0)
(-0.0420243 0.00143565 0)
(-0.0429775 0.00131711 0)
(-0.0438808 0.00119163 0)
(-0.0447298 0.00105786 0)
(-0.0455191 0.000914631 0)
(-0.0462431 0.000760993 0)
(-0.0468956 0.000596159 0)
(-0.04747 0.000419782 0)
(-0.0479593 0.000231401 0)
(-0.0483568 3.0512e-05 0)
(-0.0486556 -0.00018294 0)
(-0.0488485 -0.000408791 0)
(-0.0489287 -0.000646681 0)
(-0.0488893 -0.000896394 0)
(-0.048724 -0.00115724 0)
(-0.0484266 -0.00142861 0)
(-0.0479915 -0.00170965 0)
(-0.0474135 -0.00199938 0)
(-0.0466879 -0.00229668 0)
(-0.0458106 -0.0026003 0)
(-0.0447784 -0.00290888 0)
(-0.0435886 -0.00322099 0)
(-0.0422393 -0.00353507 0)
(-0.0407296 -0.00384952 0)
(-0.0390591 -0.00416275 0)
(-0.0372285 -0.00447313 0)
(-0.0352395 -0.00477909 0)
(-0.0330944 -0.00507904 0)
(-0.0307962 -0.00537143 0)
(-0.0283488 -0.00565494 0)
(-0.0257567 -0.00592841 0)
(-0.0230251 -0.00619065 0)
(-0.0201597 -0.00644073 0)
(-0.0171666 -0.00667797 0)
(-0.0140524 -0.00690173 0)
(-0.0108236 -0.00711161 0)
(-0.00748727 -0.00730753 0)
(-0.00405034 -0.00748932 0)
(-0.000519619 -0.00765729 0)
(0.00309784 -0.00781101 0)
(0.00679518 -0.00795152 0)
(0.0105654 -0.00807792 0)
(0.0144021 -0.00819214 0)
(0.018299 -0.00829345 0)
(0.0222496 -0.00838181 0)
(0.0262471 -0.00845772 0)
(0.0302848 -0.00852089 0)
(0.0343557 -0.00857103 0)
(0.0384524 -0.00860782 0)
(0.042567 -0.00863081 0)
(0.046691 -0.0086396 0)
(0.0508156 -0.00863391 0)
(0.0549313 -0.00861356 0)
(0.0590284 -0.00857838 0)
(0.0630968 -0.00852799 0)
(0.0671255 -0.0084616 0)
(0.0711025 -0.00837754 0)
(0.0750141 -0.00827309 0)
(0.0788443 -0.00814428 0)
(0.0825737 -0.00798625 0)
(0.0861796 -0.0077938 0)
(0.0896366 -0.00756289 0)
(0.0929169 -0.00729203 0)
(0.0959935 -0.00698324 0)
(0.098844 -0.0066424 0)
(0.101453 -0.00627785 0)
(0.103811 -0.0058979 0)
(0.105921 -0.00550856 0)
(0.107792 -0.00511253 0)
(0.109442 -0.00470691 0)
(0.110898 -0.00427967 0)
(0.112199 -0.00380764 0)
(0.113366 -0.00325524 0)
(0.114414 -0.00257671 0)
(0.115187 -0.00170051 0)
(-0.000932951 0.00515338 0)
(-0.00326735 0.00580082 0)
(-0.00561065 0.00578177 0)
(-0.00793824 0.00567856 0)
(-0.0102145 0.0055401 0)
(-0.0124299 0.00537488 0)
(-0.0145757 0.00518805 0)
(-0.016645 0.00498479 0)
(-0.0186334 0.00477046 0)
(-0.0205387 0.0045501 0)
(-0.0223608 0.00432858 0)
(-0.0241013 0.00410994 0)
(-0.0257635 0.00389781 0)
(-0.0273521 0.00369475 0)
(-0.0288718 0.0035024 0)
(-0.0303279 0.00332174 0)
(-0.0317263 0.00315294 0)
(-0.0330722 0.0029954 0)
(-0.0343702 0.00284799 0)
(-0.0356243 0.00270906 0)
(-0.0368377 0.00257663 0)
(-0.0380122 0.00244845 0)
(-0.0391489 0.00232215 0)
(-0.0402477 0.00219533 0)
(-0.0413074 0.00206564 0)
(-0.0423259 0.00193082 0)
(-0.0432999 0.00178881 0)
(-0.0442255 0.0016377 0)
(-0.0450982 0.00147582 0)
(-0.0459124 0.00130171 0)
(-0.0466623 0.00111418 0)
(-0.0473416 0.000912265 0)
(-0.0479435 0.000695336 0)
(-0.0484611 0.000462846 0)
(-0.0488871 0.00021433 0)
(-0.0492145 -5.01726e-05 0)
(-0.0494361 -0.000330603 0)
(-0.0495447 -0.000626605 0)
(-0.0495335 -0.000937674 0)
(-0.0493958 -0.00126314 0)
(-0.0491253 -0.00160212 0)
(-0.0487161 -0.00195354 0)
(-0.0481628 -0.00231616 0)
(-0.0474606 -0.00268856 0)
(-0.0466053 -0.00306917 0)
(-0.0455935 -0.00345627 0)
(-0.0444223 -0.00384803 0)
(-0.0430898 -0.0042425 0)
(-0.041595 -0.0046377 0)
(-0.0399375 -0.00503158 0)
(-0.0381179 -0.00542208 0)
(-0.0361378 -0.0058072 0)
(-0.0339994 -0.00618494 0)
(-0.0317059 -0.00655341 0)
(-0.0292611 -0.00691089 0)
(-0.0266697 -0.00725587 0)
(-0.023937 -0.00758689 0)
(-0.0210686 -0.00790278 0)
(-0.0180709 -0.00820262 0)
(-0.0149504 -0.00848566 0)
(-0.011714 -0.0087514 0)
(-0.00836873 -0.00899963 0)
(-0.00492163 -0.00923025 0)
(-0.00137958 -0.00944345 0)
(0.00225007 -0.00963913 0)
(0.00596069 -0.00981807 0)
(0.00974476 -0.00997973 0)
(0.0135956 -0.0101258 0)
(0.0175074 -0.0102556 0)
(0.0214729 -0.0103693 0)
(0.0254853 -0.010467 0)
(0.0295374 -0.0105486 0)
(0.0336218 -0.0106133 0)
(0.0377305 -0.0106607 0)
(0.041855 -0.01069 0)
(0.0459862 -0.0107004 0)
(0.0501144 -0.0106916 0)
(0.0542296 -0.010663 0)
(0.0583212 -0.0106143 0)
(0.0623784 -0.0105449 0)
(0.0663899 -0.0104535 0)
(0.0703431 -0.0103376 0)
(0.0742241 -0.0101937 0)
(0.0780161 -0.0100163 0)
(0.0816993 -0.00979865 0)
(0.0852495 -0.00953396 0)
(0.0886389 -0.00921668 0)
(0.0918366 -0.00884485 0)
(0.0948123 -0.00842196 0)
(0.097541 -0.00795718 0)
(0.100006 -0.00746291 0)
(0.1022 -0.00695219 0)
(0.104127 -0.00643573 0)
(0.105799 -0.00592095 0)
(0.107242 -0.00541018 0)
(0.108492 -0.00489587 0)
(0.109596 -0.00435494 0)
(0.110589 -0.00373822 0)
(0.111485 -0.00296662 0)
(0.112069 -0.0019115 0)
(-0.000943902 0.00620131 0)
(-0.0033009 0.00698106 0)
(-0.00566435 0.00695822 0)
(-0.00801143 0.00683408 0)
(-0.0103048 0.0066676 0)
(-0.0125349 0.00646919 0)
(-0.0146927 0.00624521 0)
(-0.0167712 0.00600194 0)
(-0.0187659 0.00574598 0)
(-0.0206749 0.0054834 0)
(-0.0224982 0.00522015 0)
(-0.0242381 0.00496103 0)
(-0.025898 0.00471047 0)
(-0.0274833 0.00447142 0)
(-0.0289992 0.00424593 0)
(-0.0304513 0.00403496 0)
(-0.0318461 0.00383867 0)
(-0.0331889 0.00365624 0)
(-0.0344849 0.00348617 0)
(-0.0357383 0.00332641 0)
(-0.0369523 0.00317445 0)
(-0.038129 0.00302751 0)
(-0.0392694 0.00288268 0)
(-0.0403734 0.00273701 0)
(-0.0414398 0.00258762 0)
(-0.0424664 0.00243176 0)
(-0.0434499 0.0022669 0)
(-0.0443863 0.00209075 0)
(-0.0452707 0.00190128 0)
(-0.0460976 0.00169674 0)
(-0.046861 0.00147567 0)
(-0.0475544 0.00123693 0)
(-0.048171 0.000979687 0)
(-0.0487034 0.000703288 0)
(-0.0491446 0.0004073 0)
(-0.0494872 9.16676e-05 0)
(-0.0497238 -0.000243474 0)
(-0.0498472 -0.000597748 0)
(-0.0498503 -0.000970531 0)
(-0.0497263 -0.00136099 0)
(-0.0494687 -0.00176805 0)
(-0.0490715 -0.00219039 0)
(-0.0485291 -0.00262654 0)
(-0.0478366 -0.00307475 0)
(-0.0469896 -0.00353313 0)
(-0.0459846 -0.00399959 0)
(-0.0448187 -0.0044719 0)
(-0.0434898 -0.00494773 0)
(-0.0419969 -0.00542464 0)
(-0.0403395 -0.00590015 0)
(-0.0385183 -0.00637179 0)
(-0.0365348 -0.00683707 0)
(-0.0343913 -0.00729362 0)
(-0.032091 -0.00773913 0)
(-0.0296379 -0.00817152 0)
(-0.0270366 -0.0085889 0)
(-0.0242926 -0.00898954 0)
(-0.0214117 -0.00937202 0)
(-0.0184004 -0.0097352 0)
(-0.0152653 -0.0100782 0)
(-0.0120135 -0.0104004 0)
(-0.00865202 -0.0107015 0)
(-0.00518825 -0.0109814 0)
(-0.00162907 -0.0112402 0)
(0.00201805 -0.0114783 0)
(0.00574636 -0.0116954 0)
(0.00954814 -0.0118933 0)
(0.0134167 -0.0120709 0)
(0.0173463 -0.0122293 0)
(0.0213293 -0.012368 0)
(0.0253589 -0.0124874 0)
(0.0294277 -0.0125868 0)
(0.0335282 -0.0126655 0)
(0.0376522 -0.0127226 0)
(0.0417907 -0.012757 0)
(0.0459344 -0.0127679 0)
(0.0500734 -0.0127543 0)
(0.0541973 -0.0127158 0)
(0.0582956 -0.0126517 0)
(0.0623575 -0.0125613 0)
(0.0663715 -0.0124429 0)
(0.0703258 -0.0122936 0)
(0.0742068 -0.0121086 0)
(0.0779986 -0.0118811 0)
(0.0816819 -0.0116025 0)
(0.0852321 -0.0112635 0)
(0.0886194 -0.0108564 0)
(0.0918101 -0.0103787 0)
(0.0947703 -0.00983548 0)
(0.0974718 -0.00923938 0)
(0.0998962 -0.00860779 0)
(0.102037 -0.00795933 0)
(0.103899 -0.00731029 0)
(0.105498 -0.00667363 0)
(0.106865 -0.00605816 0)
(0.108045 -0.00546277 0)
(0.109101 -0.0048662 0)
(0.110085 -0.00420353 0)
(0.111034 -0.00334845 0)
(0.111681 -0.00209193 0)
(-0.00095633 0.00726097 0)
(-0.00333861 0.00817235 0)
(-0.00572472 0.00814504 0)
(-0.00809345 0.00799899 0)
(-0.0104055 0.00780324 0)
(-0.0126515 0.00757022 0)
(-0.0148217 0.00730751 0)
(-0.0169091 0.00702268 0)
(-0.0189093 0.00672351 0)
(-0.0208205 0.00641731 0)
(-0.0226432 0.00611109 0)
(-0.0243799 0.00581052 0)
(-0.0260347 0.00552077 0)
(-0.0276135 0.00524518 0)
(-0.0291221 0.00498635 0)
(-0.0305668 0.00474507 0)
(-0.0319543 0.00452151 0)
(-0.0332906 0.00431458 0)
(-0.0345811 0.00412242 0)
(-0.0358303 0.00394247 0)
(-0.0370416 0.00377171 0)
(-0.0382172 0.00360679 0)
(-0.0393582 0.00344422 0)
(-0.0404645 0.00328046 0)
(-0.0415348 0.00311209 0)
(-0.0425667 0.00293586 0)
(-0.0435569 0.00274878 0)
(-0.0445012 0.00254813 0)
(-0.0453946 0.00233154 0)
(-0.0462314 0.00209696 0)
(-0.0470055 0.00184268 0)
(-0.0477102 0.00156735 0)
(-0.0483384 0.00126996 0)
(-0.0488829 0.000949766 0)
(-0.0493363 0.000606315 0)
(-0.049691 0.000239501 0)
(-0.0499396 -0.000150505 0)
(-0.0500747 -0.000563253 0)
(-0.050089 -0.000998024 0)
(-0.0499756 -0.00145383 0)
(-0.0497278 -0.00192939 0)
(-0.0493396 -0.00242319 0)
(-0.0488052 -0.00293345 0)
(-0.0481194 -0.00345812 0)
(-0.0472779 -0.00399497 0)
(-0.046277 -0.00454153 0)
(-0.0451137 -0.00509519 0)
(-0.0437858 -0.00565319 0)
(-0.0422923 -0.00621264 0)
(-0.0406328 -0.00677064 0)
(-0.0388078 -0.00732423 0)
(-0.036819 -0.00787051 0)
(-0.0346686 -0.00840665 0)
(-0.0323599 -0.00892995 0)
(-0.0298971 -0.00943794 0)
(-0.027285 -0.00992835 0)
(-0.024529 -0.0103992 0)
(-0.0216352 -0.0108487 0)
(-0.0186101 -0.0112757 0)
(-0.0154607 -0.0116789 0)
(-0.0121942 -0.0120578 0)
(-0.00881773 -0.012412 0)
(-0.00533881 -0.0127413 0)
(-0.00176455 -0.0130458 0)
(0.00189781 -0.0133262 0)
(0.00564084 -0.0135819 0)
(0.00945721 -0.0138152 0)
(0.0133405 -0.0140246 0)
(0.0172843 -0.0142112 0)
(0.0212814 -0.0143751 0)
(0.0253248 -0.0145158 0)
(0.0294074 -0.0146328 0)
(0.0335215 -0.0147251 0)
(0.037659 -0.0147916 0)
(0.0418108 -0.0148308 0)
(0.0459677 -0.0148416 0)
(0.0501196 -0.0148228 0)
(0.0542563 -0.0147738 0)
(0.0583671 -0.014694 0)
(0.0624414 -0.0145823 0)
(0.0664683 -0.0144369 0)
(0.0704363 -0.0142544 0)
(0.0743331 -0.0140292 0)
(0.0781439 -0.0137529 0)
(0.0818501 -0.0134147 0)
(0.0854273 -0.0130022 0)
(0.0888438 -0.0125051 0)
(0.0920626 -0.0119195 0)
(0.0950451 -0.0112518 0)
(0.0977591 -0.0105189 0)
(0.100184 -0.00974426 0)
(0.102314 -0.0089527 0)
(0.104154 -0.00816661 0)
(0.105724 -0.00740542 0)
(0.107056 -0.0066858 0)
(0.108205 -0.00601627 0)
(0.109253 -0.00538213 0)
(0.110288 -0.00470533 0)
(0.111394 -0.00380042 0)
(0.112265 -0.00234146 0)
(-0.000970613 0.00833396 0)
(-0.00338196 0.00937634 0)
(-0.00579424 0.00934372 0)
(-0.00818783 0.00917455 0)
(-0.0105213 0.00894806 0)
(-0.0127851 0.00867872 0)
(-0.0149693 0.00837539 0)
(-0.0170664 0.00804714 0)
(-0.0190723 0.00770289 0)
(-0.0209852 0.0073514 0)
(-0.0228063 0.00700074 0)
(-0.0245384 0.00665752 0)
(-0.0261864 0.00632766 0)
(-0.0277568 0.00601495 0)
(-0.0292561 0.0057225 0)
(-0.0306913 0.00545091 0)
(-0.0320695 0.00520034 0)
(-0.0333974 0.00496937 0)
(-0.0346807 0.00475573 0)
(-0.0359243 0.00455636 0)
(-0.0371316 0.00436764 0)
(-0.0383052 0.00418561 0)
(-0.0394461 0.00400616 0)
(-0.0405541 0.00382518 0)
(-0.0416279 0.00363865 0)
(-0.0426651 0.00344281 0)
(-0.0436621 0.00323419 0)
(-0.0446145 0.00300965 0)
(-0.0455173 0.00276646 0)
(-0.0463645 0.00250226 0)
(-0.0471498 0.00221511 0)
(-0.0478664 0.00190345 0)
(-0.0485069 0.0015661 0)
(-0.0490641 0.00120222 0)
(-0.0495303 0.00081133 0)
(-0.0498978 0.000393287 0)
(-0.050159 -5.17108e-05 0)
(-0.0503063 -0.000523141 0)
(-0.0503324 -0.00102018 0)
(-0.0502302 -0.00154167 0)
(-0.0499929 -0.00208616 0)
(-0.049614 -0.0026519 0)
(-0.049088 -0.00323682 0)
(-0.0484094 -0.00383857 0)
(-0.0475737 -0.00445457 0)
(-0.0465771 -0.00508196 0)
(-0.0454167 -0.00571774 0)
(-0.0440901 -0.00635869 0)
(-0.0425962 -0.0070015 0)
(-0.0409346 -0.00764278 0)
(-0.0391059 -0.00827912 0)
(-0.0371117 -0.00890716 0)
(-0.0349544 -0.00952362 0)
(-0.0326374 -0.0101254 0)
(-0.0301649 -0.0107096 0)
(-0.0275419 -0.0112736 0)
(-0.0247739 -0.0118151 0)
(-0.0218673 -0.0123321 0)
(-0.0188288 -0.0128231 0)
(-0.0156655 -0.0132868 0)
(-0.0123846 -0.0137225 0)
(-0.00899374 -0.0141298 0)
(-0.0055004 -0.0145084 0)
(-0.0019119 -0.0148587 0)
(0.00176448 -0.015181 0)
(0.00552122 -0.0154756 0)
(0.00935108 -0.0157436 0)
(0.0132476 -0.0159848 0)
(0.0172044 -0.0161997 0)
(0.0212145 -0.0163885 0)
(0.025271 -0.0165505 0)
(0.029367 -0.0166852 0)
(0.0334949 -0.0167913 0)
(0.0376464 -0.0168672 0)
(0.041813 -0.0169114 0)
(0.0459852 -0.0169223 0)
(0.0501531 -0.0168986 0)
(0.0543063 -0.0168394 0)
(0.0584344 -0.016744 0)
(0.0625267 -0.0166114 0)
(0.0665726 -0.0164397 0)
(0.0705615 -0.0162251 0)
(0.0744822 -0.0159614 0)
(0.0783217 -0.0156387 0)
(0.0820625 -0.0152434 0)
(0.0856804 -0.0147597 0)
(0.0891422 -0.0141732 0)
(0.092406 -0.0134782 0)
(0.0954276 -0.0126821 0)
(0.0981694 -0.0118067 0)
(0.100608 -0.0108827 0)
(0.102738 -0.00994222 0)
(0.104566 -0.00901394 0)
(0.106113 -0.00812411 0)
(0.107413 -0.00729894 0)
(0.108524 -0.00656106 0)
(0.109555 -0.00591161 0)
(0.110648 -0.00526862 0)
(0.111973 -0.00437396 0)
(0.113183 -0.00272817 0)
(-0.000986945 0.00942235 0)
(-0.00343165 0.010595 0)
(-0.00587404 0.0105561 0)
(-0.00829614 0.0103623 0)
(-0.0106541 0.0101034 0)
(-0.0129382 0.00979567 0)
(-0.015138 0.00944954 0)
(-0.0172459 0.00907564 0)
(-0.0192578 0.00868417 0)
(-0.0211723 0.00828543 0)
(-0.0229909 0.0078886 0)
(-0.0247172 0.00750137 0)
(-0.0263568 0.00713031 0)
(-0.027917 0.0067799 0)
(-0.0294052 0.00645346 0)
(-0.030829 0.00615159 0)
(-0.0321963 0.00587432 0)
(-0.0335142 0.00561988 0)
(-0.0347891 0.00538552 0)
(-0.0360259 0.0051676 0)
(-0.0372287 0.00496189 0)
(-0.0383998 0.00476378 0)
(-0.0395404 0.00456849 0)
(-0.0406503 0.00437127 0)
(-0.0417282 0.00416753 0)
(-0.0427713 0.00395294 0)
(-0.043776 0.00372355 0)
(-0.0447378 0.00347581 0)
(-0.0456512 0.00320661 0)
(-0.0465102 0.00291328 0)
(-0.0473082 0.00259365 0)
(-0.0480382 0.00224594 0)
(-0.0486927 0.00186884 0)
(-0.0492642 0.00146141 0)
(-0.0497449 0.00102311 0)
(-0.0501268 0.000553785 0)
(-0.0504023 5.3663e-05 0)
(-0.0505636 -0.000476664 0)
(-0.0506031 -0.00103626 0)
(-0.0505135 -0.00162382 0)
(-0.050288 -0.0022377 0)
(-0.04992 -0.0028759 0)
(-0.0494035 -0.00353607 0)
(-0.0487332 -0.00421556 0)
(-0.0479043 -0.00491143 0)
(-0.0469129 -0.00562044 0)
(-0.045756 -0.00633915 0)
(-0.0444312 -0.0070639 0)
(-0.0429372 -0.00779092 0)
(-0.0412737 -0.00851634 0)
(-0.0394414 -0.00923629 0)
(-0.0374416 -0.00994691 0)
(-0.0352772 -0.0106445 0)
(-0.0329513 -0.0113254 0)
(-0.0304685 -0.0119865 0)
(-0.0278339 -0.0126247 0)
(-0.0250532 -0.0132373 0)
(-0.0221328 -0.0138222 0)
(-0.0190799 -0.0143775 0)
(-0.0159015 -0.0149019 0)
(-0.0126054 -0.0153945 0)
(-0.00919913 -0.0158548 0)
(-0.00569043 -0.0162828 0)
(-0.00208678 -0.0166787 0)
(0.00160456 -0.017043 0)
(0.0053759 -0.0173758 0)
(0.00922003 -0.0176787 0)
(0.0131307 -0.0179516 0)
(0.0171015 -0.0181947 0)
(0.0211257 -0.0184084 0)
(0.0251966 -0.018592 0)
(0.0293074 -0.0187446 0)
(0.0334507 -0.0188648 0)
(0.0376187 -0.0189507 0)
(0.0418025 -0.0190002 0)
(0.0459929 -0.0190116 0)
(0.05018 -0.0189834 0)
(0.0543534 -0.0189144 0)
(0.0585024 -0.018804 0)
(0.0626165 -0.018651 0)
(0.0666853 -0.0184538 0)
(0.0706992 -0.0182084 0)
(0.0746483 -0.0179083 0)
(0.0785216 -0.0175421 0)
(0.082304 -0.0170933 0)
(0.0859723 -0.0165415 0)
(0.0894909 -0.0158672 0)
(0.0928121 -0.015061 0)
(0.0958835 -0.0141315 0)
(0.0986609 -0.0131067 0)
(0.101118 -0.0120258 0)
(0.10325 -0.0109292 0)
(0.105065 -0.00985208 0)
(0.106583 -0.00882708 0)
(0.107837 -0.00789109 0)
(0.108888 -0.00708675 0)
(0.109868 -0.00644707 0)
(0.111 -0.00590564 0)
(0.112602 -0.00511265 0)
(0.114282 -0.00330907 0)
(-0.00100556 0.0105283 0)
(-0.00348822 0.0118305 0)
(-0.00596489 0.0117842 0)
(-0.00841942 0.0115641 0)
(-0.010805 0.0112706 0)
(-0.0131121 0.0109222 0)
(-0.0153293 0.0105307 0)
(-0.0174492 0.0101086 0)
(-0.0194674 0.00966738 0)
(-0.0213831 0.00921914 0)
(-0.0231983 0.00877415 0)
(-0.0249176 0.00834132 0)
(-0.0265471 0.00792791 0)
(-0.0280952 0.00753908 0)
(-0.0295703 0.00717827 0)
(-0.0309808 0.00684624 0)
(-0.0323354 0.00654265 0)
(-0.0336418 0.00626541 0)
(-0.0349069 0.00601121 0)
(-0.0361361 0.0057758 0)
(-0.0373335 0.00555425 0)
(-0.0385018 0.00534124 0)
(-0.0396423 0.00513129 0)
(-0.0407545 0.00491898 0)
(-0.041837 0.00469909 0)
(-0.042887 0.00446674 0)
(-0.0439005 0.00421748 0)
(-0.0448729 0.0039473 0)
(-0.0457984 0.00365275 0)
(-0.0466708 0.00333085 0)
(-0.0474833 0.00297917 0)
(-0.0482286 0.00259575 0)
(-0.048899 0.00217913 0)
(-0.0494867 0.00172827 0)
(-0.0499838 0.0012426 0)
(-0.0503822 0.00072194 0)
(-0.0506738 0.000166547 0)
(-0.0508509 -0.000422915 0)
(-0.0509055 -0.00104539 0)
(-0.0508304 -0.00169944 0)
(-0.0506183 -0.0023832 0)
(-0.0502625 -0.00309443 0)
(-0.049757 -0.00383055 0)
(-0.0490962 -0.00458852 0)
(-0.0482751 -0.00536507 0)
(-0.0472898 -0.00615655 0)
(-0.046137 -0.00695909 0)
(-0.0448144 -0.00776858 0)
(-0.0433206 -0.00858079 0)
(-0.0416552 -0.00939133 0)
(-0.0398189 -0.0101958 0)
(-0.0378132 -0.01099 0)
(-0.0356408 -0.0117695 0)
(-0.0333052 -0.0125305 0)
(-0.030811 -0.0132692 0)
(-0.0281634 -0.0139822 0)
(-0.0253685 -0.0146665 0)
(-0.0224329 -0.0153196 0)
(-0.0193638 -0.0159396 0)
(-0.0161688 -0.0165249 0)
(-0.0128556 -0.0170745 0)
(-0.00943219 -0.017588 0)
(-0.00590636 -0.0180652 0)
(-0.00228583 -0.0185065 0)
(0.00142225 -0.0189127 0)
(0.00520986 -0.0192835 0)
(0.00906985 -0.0196213 0)
(0.0129964 -0.0199257 0)
(0.0169829 -0.0201971 0)
(0.0210228 -0.0204359 0)
(0.02511 -0.0206413 0)
(0.0292376 -0.0208121 0)
(0.0333986 -0.0209468 0)
(0.0375853 -0.0210431 0)
(0.0417889 -0.0210986 0)
(0.0460004 -0.0211111 0)
(0.0502096 -0.0210789 0)
(0.0544061 -0.0210006 0)
(0.058579 -0.0208755 0)
(0.0627179 -0.0207027 0)
(0.0668125 -0.0204806 0)
(0.0708539 -0.0202059 0)
(0.0748343 -0.0198717 0)
(0.0787455 -0.0194656 0)
(0.0825755 -0.0189679 0)
(0.0863027 -0.0183526 0)
(0.0898894 -0.0175927 0)
(0.0932802 -0.0166734 0)
(0.0964119 -0.0156043 0)
(0.0992318 -0.0144212 0)
(0.10171 -0.0131742 0)
(0.103843 -0.0119126 0)
(0.105641 -0.0106782 0)
(0.107122 -0.00950854 0)
(0.108315 -0.008451 0)
(0.109273 -0.00757518 0)
(0.110148 -0.00697065 0)
(0.111268 -0.00662434 0)
(0.11319 -0.00607051 0)
(0.115507 -0.00416148 0)
(-0.00102668 0.0116542 0)
(-0.00355218 0.0130851 0)
(-0.00606758 0.0130301 0)
(-0.00855872 0.0127818 0)
(-0.0109754 0.0124514 0)
(-0.0133082 0.0120593 0)
(-0.0155448 0.0116197 0)
(-0.0176776 0.0111463 0)
(-0.0197025 0.0106525 0)
(-0.0216188 0.0101522 0)
(-0.0234297 0.0096568 0)
(-0.0251402 0.00917659 0)
(-0.0267578 0.00871954 0)
(-0.0282917 0.00829148 0)
(-0.0297515 0.00789592 0)
(-0.0311467 0.00753388 0)
(-0.0324866 0.00720445 0)