/*--------------------------------*- C++ -*----------------------------------*\
| =========                 |                                                 |
| \\      /  F ield         | OpenFOAM: The Open Source CFD Toolbox           |
|  \\    /   O peration     | Version:  2.4.0                                 |
|   \\  /    A nd           | Web:      www.OpenFOAM.org                      |
|    \\/     M anipulation  |                                                 |
\*---------------------------------------------------------------------------*/
FoamFile
{
    version     2.0;
    format      ascii;
    class       volScalarField;
    location    "0.09";
    object      p;
}
// * * * * * * * * * * * * * * * * * * * * * * * * * * * * * * * * * * * * * //

dimensions      [1 -1 -2 0 0 0 0];

internalField   nonuniform List<scalar> 
60000
(
97.0828
97.0828
97.0828
97.0828
97.0828
97.0828
97.0828
97.0828
97.0828
97.0828
97.0828
97.0829
97.0829
97.0829
97.0829
97.083
97.083
97.083
97.083
97.0831
97.0831
97.0831
97.0832
97.0832
97.0832
97.0833
97.0833
97.0833
97.0834
97.0834
97.0834
97.0835
97.0835
97.0835
97.0836
97.0836
97.0836
97.0836
97.0836
97.0836
97.0836
97.0836
97.0836
97.0836
97.0835
97.0835
97.0834
97.0833
97.0832
97.0831
97.083
97.0829
97.0827
97.0826
97.0824
97.0822
97.0821
97.0819
97.0817
97.0815
97.0813
97.0811
97.0809
97.0807
97.0805
97.0803
97.0801
97.0798
97.0796
97.0795
97.0793
97.0791
97.0789
97.0787
97.0785
97.0784
97.0782
97.078
97.0779
97.0777
97.0776
97.0774
97.0773
97.0772
97.077
97.0769
97.0768
97.0767
97.0766
97.0765
97.0765
97.0764
97.0764
97.0763
97.0763
97.0763
97.0763
97.0763
97.0763
97.0763
95.1208
95.1208
95.1208
95.1208
95.1208
95.1208
95.1208
95.1208
95.1208
95.1208
95.1208
95.1209
95.1209
95.1209
95.1209
95.121
95.121
95.121
95.121
95.1211
95.1211
95.1211
95.1212
95.1212
95.1212
95.1213
95.1213
95.1213
95.1214
95.1214
95.1214
95.1215
95.1215
95.1215
95.1216
95.1216
95.1216
95.1216
95.1216
95.1216
95.1216
95.1216
95.1216
95.1216
95.1215
95.1215
95.1214
95.1213
95.1212
95.1211
95.121
95.1209
95.1207
95.1206
95.1204
95.1202
95.1201
95.1199
95.1197
95.1195
95.1193
95.1191
95.1189
95.1187
95.1185
95.1183
95.118
95.1178
95.1176
95.1174
95.1173
95.1171
95.1169
95.1167
95.1165
95.1164
95.1162
95.116
95.1159
95.1157
95.1156
95.1154
95.1153
95.1152
95.115
95.1149
95.1148
95.1147
95.1146
95.1145
95.1145
95.1144
95.1143
95.1143
95.1143
95.1143
95.1143
95.1143
95.1143
95.1143
93.1588
93.1588
93.1588
93.1588
93.1588
93.1588
93.1588
93.1588
93.1588
93.1588
93.1588
93.1589
93.1589
93.1589
93.1589
93.159
93.159
93.159
93.159
93.1591
93.1591
93.1591
93.1592
93.1592
93.1592
93.1593
93.1593
93.1593
93.1594
93.1594
93.1594
93.1595
93.1595
93.1595
93.1596
93.1596
93.1596
93.1596
93.1596
93.1596
93.1596
93.1596
93.1596
93.1596
93.1595
93.1595
93.1594
93.1593
93.1592
93.1591
93.159
93.1589
93.1587
93.1586
93.1584
93.1582
93.1581
93.1579
93.1577
93.1575
93.1573
93.1571
93.1569
93.1567
93.1565
93.1563
93.156
93.1558
93.1556
93.1554
93.1553
93.1551
93.1549
93.1547
93.1545
93.1543
93.1542
93.154
93.1539
93.1537
93.1536
93.1534
93.1533
93.1532
93.153
93.1529
93.1528
93.1527
93.1526
93.1525
93.1525
93.1524
93.1523
93.1523
93.1523
93.1523
93.1523
93.1523
93.1523
93.1523
91.1968
91.1968
91.1968
91.1968
91.1968
91.1968
91.1968
91.1968
91.1968
91.1968
91.1968
91.1969
91.1969
91.1969
91.1969
91.197
91.197
91.197
91.197
91.1971
91.1971
91.1971
91.1972
91.1972
91.1972
91.1973
91.1973
91.1973
91.1974
91.1974
91.1974
91.1975
91.1975
91.1975
91.1976
91.1976
91.1976
91.1976
91.1976
91.1977
91.1976
91.1976
91.1976
91.1976
91.1975
91.1975
91.1974
91.1973
91.1972
91.1971
91.197
91.1969
91.1967
91.1966
91.1964
91.1962
91.1961
91.1959
91.1957
91.1955
91.1953
91.1951
91.1949
91.1947
91.1945
91.1943
91.194
91.1938
91.1936
91.1934
91.1933
91.1931
91.1929
91.1927
91.1925
91.1923
91.1922
91.192
91.1919
91.1917
91.1916
91.1914
91.1913
91.1912
91.191
91.1909
91.1908
91.1907
91.1906
91.1905
91.1905
91.1904
91.1903
91.1903
91.1903
91.1903
91.1903
91.1903
91.1903
91.1903
89.2348
89.2348
89.2348
89.2348
89.2348
89.2348
89.2348
89.2348
89.2348
89.2348
89.2348
89.2349
89.2349
89.2349
89.2349
89.235
89.235
89.235
89.235
89.2351
89.2351
89.2351
89.2352
89.2352
89.2352
89.2353
89.2353
89.2353
89.2354
89.2354
89.2354
89.2355
89.2355
89.2355
89.2356
89.2356
89.2356
89.2356
89.2357
89.2357
89.2357
89.2356
89.2356
89.2356
89.2355
89.2355
89.2354
89.2353
89.2352
89.2351
89.235
89.2349
89.2347
89.2346
89.2344
89.2343
89.2341
89.2339
89.2337
89.2335
89.2333
89.2331
89.2329
89.2327
89.2325
89.2323
89.232
89.2318
89.2316
89.2314
89.2312
89.2311
89.2309
89.2307
89.2305
89.2303
89.2302
89.23
89.2299
89.2297
89.2296
89.2294
89.2293
89.2291
89.229
89.2289
89.2288
89.2287
89.2286
89.2285
89.2284
89.2284
89.2283
89.2283
89.2283
89.2283
89.2283
89.2283
89.2283
89.2283
87.2728
87.2728
87.2728
87.2728
87.2728
87.2728
87.2728
87.2728
87.2728
87.2728
87.2728
87.2729
87.2729
87.2729
87.2729
87.273
87.273
87.273
87.273
87.2731
87.2731
87.2731
87.2732
87.2732
87.2732
87.2733
87.2733
87.2733
87.2734
87.2734
87.2734
87.2735
87.2735
87.2735
87.2736
87.2736
87.2736
87.2737
87.2737
87.2737
87.2737
87.2737
87.2736
87.2736
87.2736
87.2735
87.2734
87.2734
87.2733
87.2732
87.273
87.2729
87.2728
87.2726
87.2724
87.2723
87.2721
87.2719
87.2717
87.2715
87.2713
87.2711
87.2709
87.2707
87.2705
87.2703
87.27
87.2698
87.2696
87.2694
87.2692
87.2691
87.2689
87.2687
87.2685
87.2683
87.2682
87.268
87.2679
87.2677
87.2676
87.2674
87.2673
87.2671
87.267
87.2669
87.2668
87.2667
87.2666
87.2665
87.2664
87.2664
87.2663
87.2663
87.2663
87.2662
87.2662
87.2663
87.2663
87.2663
85.3108
85.3108
85.3108
85.3108
85.3108
85.3108
85.3108
85.3108
85.3108
85.3108
85.3108
85.3109
85.3109
85.3109
85.3109
85.311
85.311
85.311
85.311
85.3111
85.3111
85.3111
85.3112
85.3112
85.3112
85.3113
85.3113
85.3113
85.3114
85.3114
85.3114
85.3115
85.3115
85.3116
85.3116
85.3116
85.3116
85.3117
85.3117
85.3117
85.3117
85.3117
85.3117
85.3116
85.3116
85.3115
85.3115
85.3114
85.3113
85.3112
85.3111
85.3109
85.3108
85.3106
85.3105
85.3103
85.3101
85.3099
85.3097
85.3095
85.3093
85.3091
85.3089
85.3087
85.3085
85.3082
85.308
85.3078
85.3076
85.3074
85.3072
85.307
85.3069
85.3067
85.3065
85.3063
85.3062
85.306
85.3058
85.3057
85.3055
85.3054
85.3053
85.3051
85.305
85.3049
85.3048
85.3047
85.3046
85.3045
85.3044
85.3044
85.3043
85.3043
85.3042
85.3042
85.3042
85.3042
85.3043
85.3043
83.3488
83.3488
83.3488
83.3488
83.3488
83.3488
83.3488
83.3488
83.3488
83.3488
83.3488
83.3489
83.3489
83.3489
83.3489
83.349
83.349
83.349
83.349
83.3491
83.3491
83.3491
83.3492
83.3492
83.3492
83.3493
83.3493
83.3493
83.3494
83.3494
83.3494
83.3495
83.3495
83.3496
83.3496
83.3496
83.3497
83.3497
83.3497
83.3497
83.3497
83.3497
83.3497
83.3496
83.3496
83.3496
83.3495
83.3494
83.3493
83.3492
83.3491
83.3489
83.3488
83.3486
83.3485
83.3483
83.3481
83.3479
83.3477
83.3475
83.3473
83.3471
83.3469
83.3467
83.3465
83.3462
83.346
83.3458
83.3456
83.3454
83.3452
83.345
83.3449
83.3447
83.3445
83.3443
83.3442
83.344
83.3438
83.3437
83.3435
83.3434
83.3433
83.3431
83.343
83.3429
83.3428
83.3427
83.3426
83.3425
83.3424
83.3423
83.3423
83.3423
83.3422
83.3422
83.3422
83.3422
83.3422
83.3423
81.3867
81.3867
81.3868
81.3868
81.3868
81.3868
81.3868
81.3868
81.3868
81.3868
81.3868
81.3869
81.3869
81.3869
81.3869
81.387
81.387
81.387
81.387
81.3871
81.3871
81.3871
81.3872
81.3872
81.3872
81.3873
81.3873
81.3873
81.3874
81.3874
81.3874
81.3875
81.3875
81.3876
81.3876
81.3876
81.3877
81.3877
81.3877
81.3877
81.3877
81.3877
81.3877
81.3877
81.3876
81.3876
81.3875
81.3874
81.3873
81.3872
81.3871
81.387
81.3868
81.3867
81.3865
81.3863
81.3861
81.3859
81.3857
81.3855
81.3853
81.3851
81.3849
81.3847
81.3845
81.3842
81.384
81.3838
81.3836
81.3834
81.3832
81.383
81.3829
81.3827
81.3825
81.3823
81.3822
81.382
81.3818
81.3817
81.3815
81.3814
81.3813
81.3811
81.381
81.3809
81.3808
81.3807
81.3806
81.3805
81.3804
81.3803
81.3803
81.3802
81.3802
81.3802
81.3802
81.3802
81.3802
81.3803
79.4247
79.4247
79.4247
79.4248
79.4248
79.4248
79.4248
79.4248
79.4248
79.4248
79.4248
79.4249
79.4249
79.4249
79.4249
79.425
79.425
79.425
79.425
79.4251
79.4251
79.4251
79.4252
79.4252
79.4252
79.4253
79.4253
79.4253
79.4254
79.4254
79.4255
79.4255
79.4255
79.4256
79.4256
79.4257
79.4257
79.4257
79.4257
79.4257
79.4258
79.4257
79.4257
79.4257
79.4257
79.4256
79.4255
79.4255
79.4254
79.4253
79.4251
79.425
79.4248
79.4247
79.4245
79.4243
79.4241
79.4239
79.4237
79.4235
79.4233
79.4231
79.4229
79.4227
79.4225
79.4222
79.422
79.4218
79.4216
79.4214
79.4212
79.421
79.4208
79.4207
79.4205
79.4203
79.4202
79.42
79.4198
79.4197
79.4195
79.4194
79.4192
79.4191
79.419
79.4189
79.4187
79.4186
79.4185
79.4185
79.4184
79.4183
79.4183
79.4182
79.4182
79.4182
79.4182
79.4182
79.4182
79.4183
77.4627
77.4627
77.4627
77.4628
77.4628
77.4628
77.4628
77.4628
77.4628
77.4628
77.4628
77.4629
77.4629
77.4629
77.4629
77.463
77.463
77.463
77.463
77.4631
77.4631
77.4631
77.4632
77.4632
77.4632
77.4633
77.4633
77.4633
77.4634
77.4634
77.4635
77.4635
77.4635
77.4636
77.4636
77.4637
77.4637
77.4637
77.4638
77.4638
77.4638
77.4638
77.4638
77.4637
77.4637
77.4636
77.4636
77.4635
77.4634
77.4633
77.4632
77.463
77.4629
77.4627
77.4625
77.4624
77.4622
77.462
77.4618
77.4616
77.4613
77.4611
77.4609
77.4607
77.4605
77.4602
77.46
77.4598
77.4596
77.4594
77.4592
77.459
77.4588
77.4587
77.4585
77.4583
77.4581
77.458
77.4578
77.4577
77.4575
77.4574
77.4572
77.4571
77.457
77.4568
77.4567
77.4566
77.4565
77.4564
77.4564
77.4563
77.4562
77.4562
77.4562
77.4561
77.4561
77.4562
77.4562
77.4562
75.5007
75.5007
75.5007
75.5007
75.5008
75.5008
75.5008
75.5008
75.5008
75.5008
75.5008
75.5009
75.5009
75.5009
75.5009
75.501
75.501
75.501
75.501
75.5011
75.5011
75.5011
75.5012
75.5012
75.5012
75.5013
75.5013
75.5013
75.5014
75.5014
75.5015
75.5015
75.5016
75.5016
75.5016
75.5017
75.5017
75.5018
75.5018
75.5018
75.5018
75.5018
75.5018
75.5018
75.5017
75.5017
75.5016
75.5015
75.5014
75.5013
75.5012
75.5011
75.5009
75.5007
75.5006
75.5004
75.5002
75.5
75.4998
75.4996
75.4993
75.4991
75.4989
75.4987
75.4985
75.4982
75.498
75.4978
75.4976
75.4974
75.4972
75.497
75.4968
75.4966
75.4965
75.4963
75.4961
75.496
75.4958
75.4957
75.4955
75.4954
75.4952
75.4951
75.495
75.4948
75.4947
75.4946
75.4945
75.4944
75.4943
75.4943
75.4942
75.4942
75.4941
75.4941
75.4941
75.4941
75.4942
75.4942
73.5387
73.5387
73.5387
73.5387
73.5388
73.5388
73.5388
73.5388
73.5388
73.5388
73.5388
73.5389
73.5389
73.5389
73.5389
73.539
73.539
73.539
73.539
73.5391
73.5391
73.5391
73.5392
73.5392
73.5392
73.5393
73.5393
73.5393
73.5394
73.5394
73.5395
73.5395
73.5396
73.5396
73.5397
73.5397
73.5397
73.5398
73.5398
73.5398
73.5398
73.5398
73.5398
73.5398
73.5398
73.5397
73.5397
73.5396
73.5395
73.5394
73.5392
73.5391
73.5389
73.5388
73.5386
73.5384
73.5382
73.538
73.5378
73.5376
73.5374
73.5371
73.5369
73.5367
73.5365
73.5362
73.536
73.5358
73.5356
73.5354
73.5352
73.535
73.5348
73.5346
73.5345
73.5343
73.5341
73.534
73.5338
73.5337
73.5335
73.5334
73.5332
73.5331
73.5329
73.5328
73.5327
73.5326
73.5325
73.5324
73.5323
73.5322
73.5322
73.5321
73.5321
73.5321
73.5321
73.5321
73.5321
73.5322
71.5767
71.5767
71.5767
71.5767
71.5767
71.5768
71.5768
71.5768
71.5768
71.5768
71.5768
71.5769
71.5769
71.5769
71.5769
71.577
71.577
71.577
71.577
71.5771
71.5771
71.5771
71.5772
71.5772
71.5772
71.5773
71.5773
71.5773
71.5774
71.5774
71.5775
71.5775
71.5776
71.5776
71.5777
71.5777
71.5778
71.5778
71.5778
71.5779
71.5779
71.5779
71.5779
71.5779
71.5778
71.5778
71.5777
71.5776
71.5775
71.5774
71.5773
71.5771
71.577
71.5768
71.5766
71.5764
71.5762
71.576
71.5758
71.5756
71.5754
71.5751
71.5749
71.5747
71.5745
71.5742
71.574
71.5738
71.5736
71.5734
71.5732
71.573
71.5728
71.5726
71.5725
71.5723
71.5721
71.572
71.5718
71.5716
71.5715
71.5713
71.5712
71.5711
71.5709
71.5708
71.5707
71.5706
71.5704
71.5704
71.5703
71.5702
71.5701
71.5701
71.5701
71.5701
71.5701
71.5701
71.5701
71.5701
69.6147
69.6147
69.6147
69.6147
69.6147
69.6148
69.6148
69.6148
69.6148
69.6148
69.6148
69.6148
69.6149
69.6149
69.6149
69.615
69.615
69.615
69.615
69.6151
69.6151
69.6151
69.6152
69.6152
69.6152
69.6153
69.6153
69.6153
69.6154
69.6154
69.6155
69.6155
69.6156
69.6156
69.6157
69.6157
69.6158
69.6158
69.6159
69.6159
69.6159
69.6159
69.6159
69.6159
69.6159
69.6158
69.6158
69.6157
69.6156
69.6155
69.6153
69.6152
69.615
69.6149
69.6147
69.6145
69.6143
69.6141
69.6138
69.6136
69.6134
69.6132
69.6129
69.6127
69.6125
69.6122
69.612
69.6118
69.6116
69.6114
69.6112
69.611
69.6108
69.6106
69.6104
69.6103
69.6101
69.6099
69.6098
69.6096
69.6095
69.6093
69.6092
69.609
69.6089
69.6088
69.6086
69.6085
69.6084
69.6083
69.6082
69.6082
69.6081
69.6081
69.608
69.608
69.608
69.608
69.6081
69.6081
67.6527
67.6527
67.6527
67.6527
67.6527
67.6527
67.6528
67.6528
67.6528
67.6528
67.6528
67.6528
67.6529
67.6529
67.6529
67.653
67.653
67.653
67.653
67.6531
67.6531
67.6531
67.6532
67.6532
67.6532
67.6533
67.6533
67.6533
67.6534
67.6534
67.6535
67.6535
67.6536
67.6536
67.6537
67.6538
67.6538
67.6539
67.6539
67.6539
67.654
67.654
67.654
67.654
67.6539
67.6539
67.6538
67.6537
67.6536
67.6535
67.6534
67.6532
67.6531
67.6529
67.6527
67.6525
67.6523
67.6521
67.6519
67.6516
67.6514
67.6512
67.6509
67.6507
67.6505
67.6502
67.65
67.6498
67.6496
67.6494
67.6492
67.649
67.6488
67.6486
67.6484
67.6483
67.6481
67.6479
67.6478
67.6476
67.6475
67.6473
67.6472
67.647
67.6469
67.6468
67.6466
67.6465
67.6464
67.6463
67.6462
67.6461
67.6461
67.646
67.646
67.646
67.646
67.646
67.646
67.6461
65.6907
65.6907
65.6907
65.6907
65.6907
65.6907
65.6908
65.6908
65.6908
65.6908
65.6908
65.6908
65.6909
65.6909
65.6909
65.691
65.691
65.691
65.691
65.6911
65.6911
65.6911
65.6912
65.6912
65.6912
65.6913
65.6913
65.6913
65.6914
65.6914
65.6915
65.6915
65.6916
65.6917
65.6917
65.6918
65.6918
65.6919
65.6919
65.692
65.692
65.692
65.692
65.692
65.692
65.6919
65.6919
65.6918
65.6917
65.6916
65.6914
65.6913
65.6911
65.6909
65.6908
65.6906
65.6903
65.6901
65.6899
65.6897
65.6894
65.6892
65.6889
65.6887
65.6885
65.6882
65.688
65.6878
65.6876
65.6874
65.6872
65.687
65.6868
65.6866
65.6864
65.6863
65.6861
65.6859
65.6858
65.6856
65.6855
65.6853
65.6852
65.685
65.6849
65.6847
65.6846
65.6845
65.6844
65.6843
65.6842
65.6841
65.684
65.684
65.6839
65.6839
65.6839
65.6839
65.684
65.684
63.7287
63.7287
63.7287
63.7287
63.7287
63.7287
63.7287
63.7288
63.7288
63.7288
63.7288
63.7288
63.7289
63.7289
63.7289
63.729
63.729
63.729
63.729
63.7291
63.7291
63.7291
63.7292
63.7292
63.7292
63.7293
63.7293
63.7293
63.7294
63.7294
63.7295
63.7295
63.7296
63.7297
63.7297
63.7298
63.7299
63.7299
63.73
63.73
63.7301
63.7301
63.7301
63.7301
63.7301
63.73
63.7299
63.7299
63.7298
63.7296
63.7295
63.7294
63.7292
63.729
63.7288
63.7286
63.7284
63.7282
63.7279
63.7277
63.7274
63.7272
63.727
63.7267
63.7265
63.7262
63.726
63.7258
63.7256
63.7253
63.7251
63.7249
63.7248
63.7246
63.7244
63.7242
63.7241
63.7239
63.7238
63.7236
63.7235
63.7233
63.7231
63.723
63.7229
63.7227
63.7226
63.7224
63.7223
63.7222
63.7221
63.722
63.722
63.7219
63.7219
63.7219
63.7219
63.7219
63.7219
63.722
61.7667
61.7667
61.7667
61.7667
61.7667
61.7667
61.7667
61.7668
61.7668
61.7668
61.7668
61.7668
61.7669
61.7669
61.7669
61.7669
61.767
61.767
61.767
61.7671
61.7671
61.7671
61.7672
61.7672
61.7672
61.7673
61.7673
61.7673
61.7674
61.7674
61.7675
61.7675
61.7676
61.7677
61.7677
61.7678
61.7679
61.768
61.768
61.7681
61.7681
61.7681
61.7682
61.7681
61.7681
61.7681
61.768
61.7679
61.7678
61.7677
61.7676
61.7674
61.7672
61.7671
61.7669
61.7666
61.7664
61.7662
61.766
61.7657
61.7655
61.7652
61.765
61.7647
61.7645
61.7642
61.764
61.7638
61.7635
61.7633
61.7631
61.7629
61.7627
61.7626
61.7624
61.7622
61.7621
61.7619
61.7618
61.7616
61.7614
61.7613
61.7611
61.761
61.7608
61.7607
61.7605
61.7604
61.7603
61.7602
61.7601
61.76
61.7599
61.7599
61.7598
61.7598
61.7598
61.7598
61.7599
61.76
59.8047
59.8047
59.8047
59.8047
59.8047
59.8047
59.8047
59.8047
59.8048
59.8048
59.8048
59.8048
59.8049
59.8049
59.8049
59.8049
59.805
59.805
59.8051
59.8051
59.8051
59.8051
59.8052
59.8052
59.8052
59.8053
59.8053
59.8053
59.8054
59.8054
59.8055
59.8055
59.8056
59.8057
59.8058
59.8058
59.8059
59.806
59.8061
59.8061
59.8062
59.8062
59.8062
59.8062
59.8062
59.8062
59.8061
59.806
59.8059
59.8058
59.8056
59.8055
59.8053
59.8051
59.8049
59.8047
59.8045
59.8042
59.804
59.8037
59.8035
59.8032
59.803
59.8027
59.8025
59.8022
59.802
59.8018
59.8015
59.8013
59.8011
59.8009
59.8007
59.8005
59.8004
59.8002
59.8001
59.7999
59.7997
59.7996
59.7994
59.7993
59.7991
59.799
59.7988
59.7987
59.7985
59.7984
59.7982
59.7981
59.798
59.7979
59.7979
59.7978
59.7978
59.7978
59.7978
59.7978
59.7978
59.7979
57.8427
57.8427
57.8427
57.8427
57.8427
57.8427
57.8427
57.8427
57.8428
57.8428
57.8428
57.8428
57.8428
57.8429
57.8429
57.8429
57.843
57.843
57.8431
57.8431
57.8431
57.8431
57.8432
57.8432
57.8432
57.8433
57.8433
57.8433
57.8434
57.8434
57.8435
57.8435
57.8436
57.8437
57.8438
57.8439
57.844
57.844
57.8441
57.8442
57.8442
57.8443
57.8443
57.8443
57.8443
57.8442
57.8442
57.8441
57.844
57.8439
57.8437
57.8436
57.8434
57.8432
57.843
57.8427
57.8425
57.8423
57.842
57.8418
57.8415
57.8412
57.841
57.8407
57.8405
57.8402
57.84
57.8397
57.8395
57.8393
57.8391
57.8389
57.8387
57.8385
57.8384
57.8382
57.838
57.8379
57.8377
57.8376
57.8374
57.8373
57.8371
57.8369
57.8368
57.8366
57.8365
57.8363
57.8362
57.8361
57.836
57.8359
57.8358
57.8357
57.8357
57.8357
57.8357
57.8357
57.8358
57.8358
55.8807
55.8807
55.8807
55.8807
55.8807
55.8807
55.8807
55.8807
55.8807
55.8808
55.8808
55.8808
55.8808
55.8809
55.8809
55.8809
55.881
55.881
55.8811
55.8811
55.8811
55.8811
55.8812
55.8812
55.8812
55.8813
55.8813
55.8813
55.8814
55.8814
55.8815
55.8815
55.8816
55.8817
55.8818
55.8819
55.882
55.8821
55.8822
55.8822
55.8823
55.8823
55.8824
55.8824
55.8824
55.8823
55.8823
55.8822
55.8821
55.882
55.8818
55.8816
55.8814
55.8812
55.881
55.8808
55.8806
55.8803
55.8801
55.8798
55.8795
55.8793
55.879
55.8787
55.8785
55.8782
55.878
55.8777
55.8775
55.8773
55.8771
55.8769
55.8767
55.8765
55.8763
55.8762
55.876
55.8759
55.8757
55.8756
55.8754
55.8753
55.8751
55.8749
55.8748
55.8746
55.8745
55.8743
55.8742
55.874
55.8739
55.8738
55.8737
55.8737
55.8736
55.8736
55.8736
55.8737
55.8737
55.8738
53.9187
53.9187
53.9187
53.9187
53.9187
53.9187
53.9187
53.9187
53.9187
53.9188
53.9188
53.9188
53.9188
53.9189
53.9189
53.9189
53.919
53.919
53.9191
53.9191
53.9191
53.9192
53.9192
53.9192
53.9192
53.9193
53.9193
53.9193
53.9194
53.9194
53.9195
53.9195
53.9196
53.9197
53.9198
53.9199
53.92
53.9201
53.9202
53.9203
53.9204
53.9204
53.9205
53.9205
53.9205
53.9204
53.9204
53.9203
53.9202
53.92
53.9199
53.9197
53.9195
53.9193
53.9191
53.9189
53.9186
53.9184
53.9181
53.9178
53.9176
53.9173
53.917
53.9167
53.9165
53.9162
53.9159
53.9157
53.9155
53.9152
53.915
53.9148
53.9147
53.9145
53.9143
53.9142
53.914
53.9139
53.9137
53.9136
53.9134
53.9132
53.9131
53.9129
53.9127
53.9126
53.9124
53.9123
53.9121
53.912
53.9119
53.9118
53.9117
53.9116
53.9116
53.9115
53.9116
53.9116
53.9116
53.9117
51.9567
51.9567
51.9567
51.9567
51.9567
51.9567
51.9567
51.9567
51.9567
51.9567
51.9568
51.9568
51.9568
51.9569
51.9569
51.9569
51.957
51.957
51.9571
51.9571
51.9571
51.9572
51.9572
51.9572
51.9572
51.9572
51.9573
51.9573
51.9574
51.9574
51.9575
51.9575
51.9576
51.9577
51.9578
51.9579
51.958
51.9582
51.9583
51.9584
51.9584
51.9585
51.9585
51.9586
51.9586
51.9585
51.9585
51.9584
51.9583
51.9581
51.958
51.9578
51.9576
51.9574
51.9572
51.9569
51.9567
51.9564
51.9561
51.9559
51.9556
51.9553
51.955
51.9547
51.9545
51.9542
51.9539
51.9537
51.9534
51.9532
51.953
51.9528
51.9526
51.9525
51.9523
51.9521
51.952
51.9519
51.9517
51.9516
51.9514
51.9512
51.9511
51.9509
51.9507
51.9506
51.9504
51.9502
51.9501
51.9499
51.9498
51.9497
51.9496
51.9495
51.9495
51.9495
51.9495
51.9495
51.9496
51.9497
49.9947
49.9947
49.9947
49.9947
49.9947
49.9947
49.9947
49.9947
49.9947
49.9947
49.9948
49.9948
49.9948
49.9949
49.9949
49.9949
49.995
49.995
49.9951
49.9951
49.9951
49.9952
49.9952
49.9952
49.9952
49.9952
49.9953
49.9953
49.9953
49.9954
49.9955
49.9955
49.9956
49.9957
49.9958
49.996
49.9961
49.9962
49.9963
49.9964
49.9965
49.9966
49.9966
49.9967
49.9967
49.9966
49.9966
49.9965
49.9964
49.9962
49.9961
49.9959
49.9957
49.9955
49.9952
49.995
49.9947
49.9944
49.9942
49.9939
49.9936
49.9933
49.993
49.9927
49.9925
49.9922
49.9919
49.9917
49.9914
49.9912
49.991
49.9908
49.9906
49.9904
49.9903
49.9901
49.99
49.9898
49.9897
49.9895
49.9894
49.9892
49.9891
49.9889
49.9887
49.9885
49.9883
49.9882
49.988
49.9879
49.9877
49.9876
49.9875
49.9874
49.9874
49.9874
49.9874
49.9874
49.9875
49.9876
48.0326
48.0326
48.0326
48.0327
48.0327
48.0327
48.0327
48.0327
48.0327
48.0327
48.0327
48.0328
48.0328
48.0328
48.0329
48.0329
48.033
48.033
48.0331
48.0331
48.0331
48.0332
48.0332
48.0332
48.0332
48.0332
48.0333
48.0333
48.0333
48.0334
48.0334
48.0335
48.0336
48.0337
48.0339
48.034
48.0341
48.0343
48.0344
48.0345
48.0346
48.0347
48.0347
48.0348
48.0348
48.0348
48.0347
48.0346
48.0345
48.0344
48.0342
48.034
48.0338
48.0335
48.0333
48.033
48.0328
48.0325
48.0322
48.0319
48.0316
48.0313
48.031
48.0307
48.0305
48.0302
48.0299
48.0296
48.0294
48.0292
48.0289
48.0287
48.0286
48.0284
48.0283
48.0281
48.028
48.0278
48.0277
48.0275
48.0274
48.0272
48.027
48.0269
48.0267
48.0265
48.0263
48.0261
48.026
48.0258
48.0256
48.0255
48.0254
48.0254
48.0253
48.0253
48.0253
48.0253
48.0254
48.0255
46.0706
46.0706
46.0706
46.0706
46.0707
46.0707
46.0707
46.0707
46.0707
46.0707
46.0707
46.0708
46.0708
46.0708
46.0709
46.0709
46.071
46.071
46.0711
46.0711
46.0712
46.0712
46.0712
46.0712
46.0712
46.0712
46.0712
46.0713
46.0713
46.0714
46.0714
46.0715
46.0716
46.0717
46.0719
46.072
46.0722
46.0723
46.0724
46.0726
46.0727
46.0728
46.0728
46.0729
46.0729
46.0729
46.0728
46.0727
46.0726
46.0725
46.0723
46.0721
46.0719
46.0716
46.0714
46.0711
46.0708
46.0706
46.0703
46.07
46.0697
46.0694
46.0691
46.0687
46.0684
46.0682
46.0679
46.0676
46.0674
46.0671
46.0669
46.0667
46.0665
46.0664
46.0662
46.0661
46.066
46.0658
46.0657
46.0655
46.0654
46.0652
46.065
46.0649
46.0647
46.0645
46.0643
46.0641
46.0639
46.0637
46.0636
46.0634
46.0633
46.0633
46.0632
46.0632
46.0632
46.0632
46.0633
46.0634
44.1086
44.1086
44.1086
44.1086
44.1086
44.1087
44.1087
44.1087
44.1087
44.1087
44.1087
44.1087
44.1088
44.1088
44.1089
44.1089
44.109
44.109
44.1091
44.1091
44.1092
44.1092
44.1092
44.1092
44.1092
44.1092
44.1092
44.1093
44.1093
44.1093
44.1094
44.1095
44.1096
44.1097
44.1099
44.11
44.1102
44.1104
44.1105
44.1106
44.1108
44.1109
44.111
44.111
44.111
44.111
44.111
44.1109
44.1108
44.1106
44.1104
44.1102
44.11
44.1097
44.1095
44.1092
44.1089
44.1086
44.1083
44.108
44.1077
44.1074
44.1071
44.1067
44.1064
44.1061
44.1058
44.1056
44.1053
44.1051
44.1049
44.1047
44.1045
44.1043
44.1042
44.1041
44.1039
44.1038
44.1037
44.1035
44.1034
44.1032
44.103
44.1028
44.1026
44.1024
44.1022
44.102
44.1018
44.1016
44.1015
44.1013
44.1012
44.1012
44.1011
44.1011
44.1011
44.1011
44.1012
44.1013
42.1466
42.1466
42.1466
42.1466
42.1466
42.1466
42.1467
42.1467
42.1467
42.1467
42.1467
42.1467
42.1468
42.1468
42.1469
42.1469
42.147
42.147
42.1471
42.1471
42.1472
42.1472
42.1472
42.1472
42.1472
42.1472
42.1472
42.1472
42.1473
42.1473
42.1474
42.1475
42.1476
42.1477
42.1479
42.1481
42.1482
42.1484
42.1486
42.1487
42.1489
42.149
42.1491
42.1491
42.1492
42.1491
42.1491
42.149
42.1489
42.1487
42.1485
42.1483
42.1481
42.1478
42.1475
42.1473
42.147
42.1467
42.1464
42.146
42.1457
42.1454
42.1451
42.1447
42.1444
42.1441
42.1438
42.1435
42.1433
42.143
42.1428
42.1426
42.1425
42.1423
42.1422
42.1421
42.1419
42.1418
42.1417
42.1415
42.1414
42.1412
42.141
42.1408
42.1406
42.1404
42.1402
42.14
42.1398
42.1396
42.1394
42.1392
42.1391
42.139
42.139
42.139
42.139
42.139
42.1391
42.1392
40.1846
40.1846
40.1846
40.1846
40.1846
40.1846
40.1846
40.1846
40.1847
40.1847
40.1847
40.1847
40.1848
40.1848
40.1849
40.1849
40.185
40.1851
40.1851
40.1852
40.1852
40.1852
40.1852
40.1852
40.1852
40.1852
40.1852
40.1852
40.1852
40.1853
40.1854
40.1855
40.1856
40.1857
40.1859
40.1861
40.1863
40.1865
40.1866
40.1868
40.187
40.1871
40.1872
40.1873
40.1873
40.1873
40.1873
40.1872
40.187
40.1869
40.1867
40.1864
40.1862
40.1859
40.1856
40.1853
40.185
40.1847
40.1844
40.1841
40.1838
40.1834
40.1831
40.1827
40.1824
40.1821
40.1818
40.1815
40.1812
40.181
40.1808
40.1806
40.1804
40.1803
40.1801
40.18
40.1799
40.1798
40.1797
40.1796
40.1794
40.1792
40.179
40.1788
40.1786
40.1784
40.1781
40.1779
40.1777
40.1775
40.1773
40.1771
40.177
40.1769
40.1769
40.1768
40.1769
40.1769
40.177
40.1771
38.2226
38.2226
38.2226
38.2226
38.2226
38.2226
38.2226
38.2226
38.2226
38.2227
38.2227
38.2227
38.2227
38.2228
38.2228
38.2229
38.223
38.2231
38.2231
38.2232
38.2232
38.2232
38.2232
38.2232
38.2232
38.2232
38.2232
38.2232
38.2232
38.2232
38.2233
38.2234
38.2236
38.2237
38.2239
38.2241
38.2243
38.2245
38.2247
38.2249
38.2251
38.2252
38.2253
38.2254
38.2255
38.2255
38.2254
38.2253
38.2252
38.225
38.2248
38.2246
38.2243
38.224
38.2237
38.2234
38.2231
38.2228
38.2225
38.2221
38.2218
38.2214
38.2211
38.2207
38.2204
38.2201
38.2197
38.2194
38.2192
38.2189
38.2187
38.2185
38.2184
38.2182
38.2181
38.218
38.2179
38.2178
38.2177
38.2176
38.2174
38.2172
38.217
38.2168
38.2166
38.2164
38.2161
38.2159
38.2156
38.2154
38.2152
38.215
38.2149
38.2148
38.2147
38.2147
38.2147
38.2148
38.2149
38.215
36.2606
36.2606
36.2606
36.2606
36.2606
36.2606
36.2606
36.2606
36.2606
36.2606
36.2606
36.2607
36.2607
36.2608
36.2608
36.2609
36.261
36.2611
36.2611
36.2612
36.2612
36.2613
36.2613
36.2612
36.2612
36.2612
36.2612
36.2611
36.2612
36.2612
36.2613
36.2614
36.2615
36.2617
36.2619
36.2621
36.2623
36.2626
36.2628
36.263
36.2632
36.2634
36.2635
36.2636
36.2636
36.2636
36.2636
36.2635
36.2634
36.2632
36.263
36.2627
36.2624
36.2621
36.2618
36.2615
36.2612
36.2608
36.2605
36.2602
36.2598
36.2595
36.2591
36.2587
36.2584
36.258
36.2577
36.2574
36.2571
36.2568
36.2566
36.2564
36.2563
36.2562
36.2561
36.256
36.2559
36.2558
36.2557
36.2556
36.2554
36.2553
36.2551
36.2548
36.2546
36.2543
36.2541
36.2538
36.2535
36.2533
36.2531
36.2529
36.2528
36.2527
36.2526
36.2526
36.2526
36.2527
36.2528
36.2529
34.2985
34.2986
34.2986
34.2986
34.2986
34.2986
34.2986
34.2986
34.2986
34.2986
34.2986
34.2986
34.2987
34.2987
34.2988
34.2989
34.299
34.2991
34.2992
34.2992
34.2993
34.2993
34.2993
34.2992
34.2992
34.2992
34.2991
34.2991
34.2991
34.2991
34.2992
34.2993
34.2995
34.2997
34.2999
34.3001
34.3004
34.3006
34.3009
34.3011
34.3013
34.3015
34.3016
34.3017
34.3018
34.3018
34.3018
34.3017
34.3015
34.3013
34.3011
34.3008
34.3005
34.3002
34.2999
34.2996
34.2992
34.2989
34.2986
34.2982
34.2979
34.2975
34.2971
34.2967
34.2964
34.296
34.2956
34.2953
34.295
34.2948
34.2945
34.2944
34.2942
34.2941
34.294
34.294
34.2939
34.2938
34.2937
34.2936
34.2935
34.2933
34.2931
34.2928
34.2926
34.2923
34.292
34.2917
34.2915
34.2912
34.291
34.2908
34.2906
34.2905
34.2904
34.2904
34.2904
34.2905
34.2906
34.2908
32.3365
32.3365
32.3365
32.3366
32.3366
32.3366
32.3366
32.3366
32.3366
32.3366
32.3366
32.3366
32.3367
32.3367
32.3368
32.3369
32.337
32.3371
32.3372
32.3373
32.3373
32.3373
32.3373
32.3373
32.3372
32.3371
32.3371
32.3371
32.337
32.3371
32.3372
32.3373
32.3374
32.3376
32.3379
32.3381
32.3384
32.3387
32.339
32.3392
32.3395
32.3396
32.3398
32.3399
32.34
32.34
32.34
32.3399
32.3397
32.3395
32.3393
32.339
32.3387
32.3383
32.338
32.3377
32.3373
32.337
32.3366
32.3363
32.3359
32.3355
32.3351
32.3347
32.3343
32.334
32.3336
32.3333
32.3329
32.3327
32.3325
32.3323
32.3322
32.3321
32.332
32.3319
32.3319
32.3318
32.3317
32.3316
32.3315
32.3313
32.3311
32.3308
32.3306
32.3303
32.33
32.3297
32.3294
32.3291
32.3289
32.3286
32.3285
32.3283
32.3283
32.3282
32.3283
32.3284
32.3285
32.3286
30.3745
30.3745
30.3745
30.3746
30.3746
30.3746
30.3746
30.3746
30.3746
30.3746
30.3746
30.3746
30.3746
30.3747
30.3748
30.3749
30.375
30.3751
30.3752
30.3753
30.3753
30.3754
30.3753
30.3753
30.3752
30.3751
30.3751
30.375
30.375
30.375
30.3751
30.3752
30.3754
30.3756
30.3759
30.3761
30.3764
30.3768
30.3771
30.3773
30.3776
30.3778
30.378
30.3781
30.3782
30.3782
30.3782
30.3781
30.3779
30.3777
30.3774
30.3771
30.3768
30.3765
30.3761
30.3757
30.3754
30.375
30.3747
30.3743
30.3739
30.3735
30.3731
30.3727
30.3723
30.3719
30.3715
30.3712
30.3709
30.3706
30.3704
30.3702
30.3701
30.37
30.3699
30.3699
30.3699
30.3698
30.3698
30.3697
30.3695
30.3694
30.3691
30.3689
30.3686
30.3683
30.3679
30.3676
30.3673
30.367
30.3667
30.3665
30.3663
30.3662
30.3661
30.3661
30.3661
30.3662
30.3663
30.3665
28.4125
28.4125
28.4125
28.4125
28.4126
28.4126
28.4126
28.4126
28.4126
28.4125
28.4125
28.4125
28.4126
28.4127
28.4128
28.4129
28.413
28.4131
28.4133
28.4133
28.4134
28.4134
28.4134
28.4133
28.4132
28.4131
28.413
28.4129
28.4129
28.4129
28.413
28.4131
28.4133
28.4135
28.4138
28.4141
28.4145
28.4148
28.4152
28.4155
28.4157
28.416
28.4162
28.4163
28.4164
28.4164
28.4164
28.4163
28.4161
28.4159
28.4156
28.4153
28.4149
28.4146
28.4142
28.4138
28.4135
28.4131
28.4127
28.4124
28.412
28.4116
28.4112
28.4107
28.4103
28.4099
28.4095
28.4091
28.4088
28.4085
28.4083
28.4081
28.408
28.4079
28.4079
28.4079
28.4079
28.4079
28.4078
28.4077
28.4076
28.4074
28.4072
28.4069
28.4066
28.4062
28.4059
28.4055
28.4052
28.4049
28.4046
28.4043
28.4041
28.404
28.4039
28.4039
28.4039
28.404
28.4042
28.4043
26.4504
26.4505
26.4505
26.4505
26.4506
26.4506
26.4506
26.4506
26.4505
26.4505
26.4505
26.4505
26.4505
26.4506
26.4507
26.4509
26.451
26.4512
26.4513
26.4514
26.4515
26.4515
26.4514
26.4513
26.4512
26.4511
26.451
26.4509
26.4508
26.4508
26.4509
26.451
26.4512
26.4515
26.4518
26.4521
26.4525
26.4529
26.4533
26.4536
26.4539
26.4542
26.4544
26.4545
26.4546
26.4547
26.4547
26.4546
26.4544
26.4541
26.4538
26.4535
26.4531
26.4527
26.4523
26.4519
26.4515
26.4512
26.4508
26.4504
26.45
26.4496
26.4492
26.4487
26.4483
26.4478
26.4474
26.447
26.4466
26.4463
26.4461
26.446
26.4459
26.4458
26.4458
26.4459
26.4459
26.4459
26.4459
26.4458
26.4457
26.4455
26.4452
26.4449
26.4446
26.4442
26.4438
26.4435
26.4431