/*--------------------------------*- C++ -*----------------------------------*\
| =========                 |                                                 |
| \\      /  F ield         | OpenFOAM: The Open Source CFD Toolbox           |
|  \\    /   O peration     | Version:  2.4.0                                 |
|   \\  /    A nd           | Web:      www.OpenFOAM.org                      |
|    \\/     M anipulation  |                                                 |
\*---------------------------------------------------------------------------*/
FoamFile
{
    version     2.0;
    format      ascii;
    class       volScalarField;
    location    "0.088";
    object      p_rgh;
}
// * * * * * * * * * * * * * * * * * * * * * * * * * * * * * * * * * * * * * //

dimensions      [1 -1 -2 0 0 0 0];

internalField   nonuniform List<scalar> 
57600
(
103.022
103.88
105.471
106.702
106.6
104.395
100.378
95.3939
90.3615
86.1415
83.1709
81.3677
80.4955
80.4186
81.0471
82.266
83.9282
85.8408
87.797
89.63
91.2425
92.5961
93.6919
94.552
95.2074
95.6906
96.0319
96.2582
96.3933
96.4578
103.017
104.235
105.84
106.852
106.279
103.567
99.2266
94.1365
89.2157
85.2706
82.6003
81.0414
80.3683
80.47
81.2539
82.599
84.3504
86.3069
88.2631
90.0646
91.6276
92.9252
93.9661
94.7764
95.3889
95.836
96.1475
96.3498
96.466
96.516
103.005
104.231
105.845
106.872
106.315
103.601
99.2486
94.136
89.1808
85.2074
82.5256
80.9621
80.2808
80.3758
81.1555
82.5008
84.2658
86.2512
88.2433
90.0789
91.6695
92.9874
94.0419
94.8611
95.479
95.9292
96.2425
96.4455
96.5615
96.6108
102.985
104.224
105.853
106.905
106.374
103.658
99.2859
94.1368
89.127
85.1076
82.4075
80.8374
80.1437
80.2295
81.0046
82.349
84.1331
86.1615
88.2071
90.0921
91.7212
93.0659
94.1376
94.9663
95.5885
96.0396
96.352
96.5534
96.6676
96.7152
102.957
104.213
105.862
106.949
106.455
103.736
99.3387
94.1395
89.0545
84.9708
82.2454
80.6669
79.956
80.0298
80.7996
82.1406
83.9479
86.0347
88.1536
90.105
91.7843
93.1629
94.2552
95.0948
95.7208
96.1711
96.4803
96.6778
96.7886
96.8336
102.922
104.198
105.873
107.004
106.559
103.838
99.4075
94.1445
88.9631
84.7958
82.0385
80.4508
79.7164
79.7748
80.5389
81.871
83.7037
85.8657
88.0799
90.1157
91.8572
93.2769
94.394
95.2468
95.878
96.3284
96.6345
96.8279
96.9348
96.9766
102.878
104.18
105.885
107.071
106.687
103.962
99.4928
94.1527
88.8526
84.5813
81.7857
80.189
79.4233
79.4622
80.2212
81.535
83.3921
85.6486
87.9843
90.1248
91.9405
93.4078
94.5533
95.4217
96.0601
96.5122
96.817
97.0072
97.1105
97.1487
102.826
104.157
105.899
107.149
106.839
104.11
99.5952
94.165
88.7228
84.3258
81.4854
79.8816
79.0746
79.089
79.8451
81.126
83.0019
85.3764
87.8658
90.134
92.0366
93.5574
94.7343
95.6201
96.2674
96.723
97.0278
97.2159
97.3157
97.3498
102.766
104.131
105.914
107.237
107.017
104.281
99.7153
94.1825
88.5737
84.0273
81.1358
79.5289
78.6671
78.651
79.41
80.6357
82.5176
85.0402
87.7242
90.1467
92.1484
93.7279
94.9384
95.843
96.5004
96.9607
97.2666
97.4532
97.5495
97.5789
102.697
104.101
105.929
107.336
107.22
104.476
99.8541
94.2066
88.4053
83.6834
80.7346
79.1308
78.1966
78.1417
78.9159
80.0543
81.9181
84.6292
87.5607
90.1673
92.2799
93.9217
95.167
96.0912
96.7593
97.225
97.5327
97.7182
97.8108
97.8345
102.619
104.067
105.945
107.444
107.45
104.695
100.012
94.2388
88.2173
83.2916
80.2789
78.6869
77.6575
77.5484
78.364
79.3704
81.1737
84.1312
87.3795
90.2027
92.4351
94.1407
95.4209
96.3646
97.0436
97.5151
97.8248
98.0093
98.0981
98.115
102.533
104.029
105.961
107.562
107.708
104.938
100.192
94.2809
88.0091
82.8492
79.7641
78.1974
77.0453
76.846
77.7544
78.5717
80.2414
83.5325
87.1892
90.2617
92.6182
94.3859
95.7
96.6629
97.3528
97.8298
98.1412
98.3238
98.4073
98.4157
102.437
103.987
105.976
107.688
107.996
105.206
100.393
94.335
87.7789
82.3539
79.1819
77.6672
76.3616
75.9898
77.0785
77.6441
79.0556
82.8201
87.0051
90.355
92.8317
94.6569
96.0034
96.9856
97.6862
98.1683
98.4808
98.6599
98.7319
98.7167
102.332
103.941
105.991
107.821
108.316
105.498
100.617
94.4033
87.5304
81.8042
78.515
77.1103
75.6158
74.9237
76.3057
76.5635
77.5079
81.9866
86.8525
90.493
93.0749
94.9505
96.3294
97.332
98.0436
98.5306
98.8444
99.0224
99.091
99.077
102.218
103.89
106.005
107.96
108.668
105.815
100.867
94.4883
87.2723
81.2024
77.7334
76.5475
74.8134
73.5333
75.3113
75.272
75.399
81.0446
86.7665
90.6813
93.3401
95.26
96.6756
97.7027
98.4268
98.9178
99.2317
99.4096
99.4793
99.4647
102.093
103.836
106.018
108.104
109.056
106.157
101.145
94.5926
86.9971
80.5577
76.7862
75.9985
73.9387
71.4911
73.685
73.6966
72.2379
80.0656
86.7824
90.9084
93.6079
95.5749
97.0398
98.1002
98.8401
99.3347
99.6446
99.8142
99.8703
99.8287
101.957
103.777
106.029
108.25
109.482
106.521
101.452
94.7189
86.7053
79.8866
75.589
75.4752
72.8405
68.0517
70.4762
71.7905
67.328
79.0684
86.8473
91.1213
93.8422
95.8815
97.4221
98.5301
99.292
99.7914
100.096
100.254
100.298
100.251
101.81
103.714
106.039
108.394
109.949
106.908
101.792
94.8697
86.3978
79.2055
74.0112
75.0315
70.7818
65.3916
65.6411
69.7213
61.6619
77.687
86.6548
91.1955
93.9916
96.1687
97.8273
99.0023
99.7943
100.303
100.605
100.758
100.803
100.775
101.651
103.647
106.046
108.535
110.46
107.314
102.168
95.0466
86.0734
78.5594
71.8166
74.8999
67.902
65.0442
60.9874
68.3656
56.9733
74.6805
85.6596
90.9547
94.0081
96.438
98.2684
99.5305
100.361
100.883
101.189
101.342
101.391
101.374
101.48
103.574
106.052
108.666
111.019
107.739
102.586
95.2505
85.7242
77.975
69.1564
74.8473
67.986
63.3298
59.0919
69.8884
52.3152
68.9711
83.332
90.2542
93.8836
96.7154
98.7685
100.131
101.004
101.544
101.857
102.012
102.058
102.033
101.294
103.496
106.055
108.783
111.629
108.177
103.052
95.4802
85.325
77.5407
66.6863
73.9854
68.2679
60.1069
59.1489
74.7626
43.5128
62.6406
80.0083
89.1679
93.6775
97.0442
99.3558
100.822
101.734
102.293
102.615
102.772
102.811
102.766
101.094
103.41
106.058
108.876
112.295
108.624
103.573
95.7312
84.96
77.5385
63.7356
74.5195
0.271119
0.2808
0.376057
0.520304
32.1056
60.4554
77.285
87.9693
93.4831
97.4746
100.058
101.614
102.557
103.132
103.466
103.627
103.66
103.6
100.878
103.317
106.061
108.936
113.02
109.076
104.163
95.9929
85.0378
78.6053
16.8504
0.232946
0.252434
0.274849
0.363095
0.463932
-0.113712
62.6012
76.512
86.8983
93.3997
98.1027
100.893
102.508
103.469
104.063
104.415
104.582
104.603
104.506
100.643
103.214
106.065
108.949
113.806
109.523
104.837
96.2469
85.3638
81.5894
0.157361
0.237895
0.23951
0.262909
0.344205
0.273926
0.0818152
64.5449
77.6171
86.5125
93.7906
99.0448
101.842
103.48
104.458
105.087
105.473
105.658
105.674
105.551
100.386
103.098
106.072
108.896
114.655
109.957
105.617
96.4598
86.0136
51.7256
0.0650048
0.214871
0.195052
0.25069
0.320141
0.265226
0.175521
1.9508
80.1894
85.9443
94.8053
100.177
102.832
104.48
105.511
106.212
106.657
106.879
106.911
106.787
100.1
102.965
106.086
108.753
115.563
110.36
106.521
96.5602
88.4679
0.729161
0.0765292
0.175392
0.143897
0.239431
0.296516
0.287505
0.276912
1.18029
84.4907
83.0982
95.2491
101.131
103.834
105.502
106.63
107.46
107.994
108.271
108.331
108.213
99.7805
102.811
106.111
108.485
116.524
110.691
107.562
96.3933
91.999
0.791794
0.102813
0.163732
0.111576
0.223419
0.2772
0.26512
0.285693
0.765871
120.009
81.7711
95.0656
102.118
104.993
106.674
107.893
108.871
109.512
109.856
109.951
109.844
99.415
102.629
106.154
108.047
117.525
110.873
108.73
95.7705
104.121
0.653803
0.125247
0.140176
0.111406
0.200758
0.259271
0.245417
0.278361
0.431864
23.6784
84.1629
96.6802
103.542
106.462
108.125
109.373
110.468
111.237
111.653
111.781
111.688
98.9888
102.411
106.223
107.376
118.545
110.772
109.97
94.8094
-6.06517
0.476552
0.140474
0.1005
0.0876995
0.17847
0.239609
0.238262
0.24986
0.242444
-0.0102435
82.7491
99.8657
105.466
108.13
109.783
111.01
112.259
113.192
113.671
113.82
113.737
98.4908
102.148
106.328
106.382
119.556
110.172
111.119
93.109
0.316312
0.357768
0.149124
0.104432
0.100825
0.161273
0.218952
0.229997
0.213032
0.0986129
0.261119
99.6924
104.989
108.078
109.881
111.454
112.894
114.326
115.4
115.899
116.049
115.968
96.4692
96.4349
96.3436
96.1786
95.9201
95.5454
95.0293
94.343
93.457
92.3439
90.9847
89.3834
87.5862
85.7046
83.925
82.4777
81.5851
81.436
82.1635
83.8303
86.5156
90.2655
94.7875
99.4608
103.663
106.701
107.84
107.108
105.478
103.822
96.5157
96.4676
96.3582
96.1701
95.8827
95.4727
94.9136
94.1766
93.2309
92.0496
90.6172
88.9455
87.0967
85.2046
83.4758
82.145
81.425
81.4936
82.4624
84.3853
87.3551
91.3635
95.9986
100.613
104.594
107.207
107.808
106.74
105.03
103.543
96.6093
96.5597
96.4484
96.2578
95.9674
95.554
94.9902
94.2463
93.2902
92.0929
90.6376
88.9358
87.0519
85.1268
83.3765
82.0387
81.3197
81.3964
82.3785
84.3125
87.3007
91.3419
96.0047
100.631
104.623
107.241
107.831
106.746
105.028
103.535
96.7123
96.6613
96.5486
96.3568
96.0653
95.6503
95.0832
94.3324
93.3639
92.1462
90.6602
88.9157
86.9798
85.0043
83.2219
81.8745
81.1564
81.2446
82.247
84.1975
87.2144
91.308
96.0151
100.662
104.67
107.297
107.867
106.754
105.023
103.519
96.8289
96.7765
96.6632
96.4714
96.1804
95.7649
95.195
94.4368
93.4536
92.211
90.686
88.8854
86.8787
84.8334
83.0085
81.6507
80.9332
81.0368
82.0675
84.0396
87.0955
91.2623
96.0306
100.706
104.737
107.376
107.917
106.764
105.017
103.497
96.9695
96.9153
96.8007
96.6083
96.3168
95.8999
95.3257
94.5583
93.5577
92.2856
90.7136
88.8431
86.745
84.6083
82.7313
81.3653
80.6479
80.7716
81.84
83.8377
86.9429
91.2055
96.0521
100.762
104.823
107.477
107.98
106.776
105.007
103.467
97.1383
97.0811
96.9637
96.769
96.4751
96.0548
95.4744
94.6956
93.6751
92.3696
90.7433
88.789
86.5761
84.3218
82.384
81.0164
80.2976
80.447
81.5644
83.5904
86.7553
91.1383
96.0799
100.832
104.928
107.602
108.056
106.789
104.995
103.431
97.3352
97.2736
97.1519
96.953
96.655
96.2295
95.6411
94.8489
93.8062
92.4639
90.7767
88.7243
86.369
83.9641
81.9585
80.6026
79.8782
80.0605
81.2414
83.296
86.5308
91.062
96.1152
100.914
105.053
107.751
108.146
106.804
104.981
103.388
97.5587
97.4912
97.3637
97.1596
96.8565
96.4243
95.826
95.0183
93.9512
92.5694
90.816
88.6512
86.1213
83.5218
81.444
80.1231
79.3838
79.609
80.8721
82.952
86.2671
90.9778
96.1596
101.008
105.197
107.924
108.25
106.819
104.964
103.338
97.8073
97.7321
97.5977
97.3884
97.0797
96.6397
96.0292
95.2035
94.1097
92.6865
90.8633
88.5737
85.8314
82.9762
80.8268
79.5791
78.8051
79.0889
80.4592
82.5551
85.9615
90.8876
96.215
101.116
105.362
108.123
108.367
106.834
104.945
103.281
98.0788
97.9941
97.8533
97.6405
97.3262
96.8759
96.25
95.4029
94.2798
92.8139
90.9203
88.4973
85.5005
82.3004
80.0889
78.9738
78.1273
78.4964
80.0073
82.1008
85.6104
90.7937
96.2835
101.235
105.546
108.349
108.498
106.848
104.924
103.216
98.3664
98.2724
98.1341
97.9208
97.598
97.1329
96.4868
95.6136
94.4577
92.9485
90.9869
88.4289
85.1346
81.4546
79.2063
78.3116
77.3262
77.8282
79.5225
81.583
85.2097
90.6994
96.3674
101.367
105.75
108.603
108.642
106.861
104.9
103.144
98.6398
98.5705
98.4608
98.2362
97.8954
97.4091
96.7365
95.8311
94.6373
93.0836
91.0594
88.3748
84.7475
80.3732
78.1408
77.5933
76.3637
77.0802
79.0083
80.9938
84.7524
90.6086
96.4691
101.511
105.974
108.886
108.799
106.872
104.874
103.065
99.0663
99.0215
98.823
98.5726
98.2125
97.7011
96.9951
96.0489
94.8093
93.2076
91.1274
88.335
84.3607
78.9227
76.8034
76.8104
75.172
76.2451
78.4614
80.3231
84.2256
90.5265
96.5915
101.665
106.218
109.2
108.97
106.879
104.846
102.978
99.4135
99.3041
99.1357
98.9139
98.5462
98.0061
97.2578
96.2594
94.9616
93.3032
91.17
88.2942
83.997
76.9187
74.9622
75.9132
73.5665
75.3076
77.8713
79.5612
83.6064
90.4593
96.7378
101.829
106.482
109.547
109.154
106.882
104.816
102.883
99.7719
99.6911
99.5491
99.3028
98.9064
98.3239
97.5203
96.4543
95.0798
93.3467
91.1526
88.2054
83.6789
73.6757
72.1954
74.5798
71.0768
74.2216
77.2195
78.6969
82.855
90.4143
96.9119
102.003
106.766
109.929
109.351
106.879
104.785
102.78
100.175
100.133
100.021
99.742
99.2941
98.6525
97.7784
96.6264
95.1487
93.3084
91.0241
87.964
83.2801
68.4122
67.9917
71.8013
66.9495
72.8084
76.5132
77.6971
81.9075
90.3988
97.1181
102.184
107.07
110.348
109.559
106.869
104.752
102.669
100.715
100.665
100.53
100.205
99.6984
98.9872
98.0295
96.7714
95.1563
93.1567
90.7168
87.376
82.1415
63.905
63.5219
66.1672
63.7323
70.612
75.8875
76.4775
80.6776
90.4186
97.3618
102.371
107.394
110.806
109.779
106.849
104.717
102.549
101.321
101.249
101.063
100.683
100.113
99.326
98.2747
96.8916
95.0998
92.867
90.1595
86.2373
79.191
61.3118
62.6335
59.0039
63.4791
68.1103
75.2213
74.8323
79.0309
90.475
97.6485
102.564
107.738
111.306
110.01
106.818
104.681
102.421
101.964
101.852
101.611
101.175
100.539
99.6728
98.5205
96.9969
94.9916
92.4408
89.3171
84.514
74.1688
56.8462
66.6723
56.1492
60.6636
68.5514
74.396
72.7351
76.9955
90.5491
97.9839
102.76
108.101
111.849
110.25
106.773
104.644
102.284
102.654
102.492
102.184
101.696
100.991
100.039
98.7787
97.1029
94.8589
91.9192
88.2484
82.4915
68.8799
49.259
69.3679
58.117
54.436
67.5718
73.5084
71.9734
74.2683
90.552
98.3723
102.956
108.482
112.439
110.498
106.713
104.606
102.137
103.394
108.88
102.866
102.273
101.489
100.441
99.0633
97.224
94.7247
91.3629
87.1199
80.7436
66.2834
46.0672
6.81281
0.330744
0.294175
0.30445
73.5085
71.8799
70.3943
90.6438
98.8124
103.145
108.881
113.077
110.75
106.633
104.567
101.98
104.255
104.081
103.514
102.936
102.066
100.9
99.3844
97.3646
94.5864
90.8281
86.1054
79.7988
68.0113
1.18818
0.121362
0.328876
0.292942
0.303799
0.316188
12.1608
65.7067
91.7605
99.2915
103.317
109.294
113.764
111.006
106.53
104.526
101.812
105.313
104.978
104.464
103.757
102.763
101.439
99.7406
97.4949
94.4072
90.3176
85.2872
79.9854
70.435
0.0494668
0.108958
0.32128
0.283397
0.290116
0.325762
0.439136
49.0124
93.8289
99.7568
103.456
109.714
114.503
111.263
106.4
104.483
101.632
106.536
106.155
105.583
104.761
103.616
102.079
100.115
97.5964
94.1393
89.682
83.8916
81.5371
63.4846
0.309212
0.195203
0.314788
0.271439
0.242502
0.33428
0.387529
0.00174668
96.8555
100.06
103.538
110.133
115.293
111.515
106.238
104.436
101.438
107.949
107.532
106.897
105.97
104.661
102.89
100.617
97.8013
93.7987
88.4492
80.8293
83.0492
-3.41031
0.307405
0.255538
0.301154
0.260271
0.203198
0.289603
0.379666
0.564482
102.365
99.9987
103.534
110.534
116.136
111.76
106.038
104.384
101.228
109.574
109.129
108.443
107.42
105.932
103.949
101.504
98.3421
93.6319
86.7766
76.5211
87.1779
1.83611
0.50826
0.51209
0.289323
0.246504
0.165093
0.287818
0.349133
0.484201
117.804
99.6265
103.403
110.895
117.034
111.988
105.791
104.321
100.996
111.418
110.962
110.247
109.161
107.487
105.145
102.712
99.2661
93.836
85.2919
70.5567
104.136
0.769894
0.528497
0.351527
0.278046
0.232905
0.151866
0.271312
0.326617
0.380794
4.68727
99.5569
103.044
111.176
117.99
112.189
105.489
104.243
100.736
113.474
113.021
112.306
111.206
109.748
106.974
104.241
100.467
94.6795
84.7586
59.4874
12.1444
0.795469
0.55771
0.34496
0.262806
0.225364
0.151333
0.267813
0.301021
0.308002
-0.468009
99.1909
102.135
111.313
119.005
112.349
105.119
104.146
100.436
115.711
115.269
114.572
113.499
111.807
109.333
106.039
102.053
96.8416
86.8012
30.3641
-3.68745
0.909288
0.505126
0.329554
0.277639
0.221328
0.152466
0.208628
0.271367
0.254644
-0.0977137
96.3222
100.409
111.195
120.07
112.453
104.668
104.016
100.079
98.2523
101.895
106.452
105.246
120.346
109.26
111.859
90.2124
0.380059
0.303613
0.150762
0.114372
0.108095
0.149325
0.205596
0.209816
0.185706
0.070838
-0.334723
168.374
107.952
110.229
111.28
112.822
114.71
116.273
117.368
117.833
117.975
117.896
3.92258
101.715
106.551
104.327
120.832
109.624
112.216
78.8694
0.353029
0.277949
0.150536
0.111504
0.111104
0.14022
0.19131
0.222149
0.170256
0.0697338
-0.14199
3.50058
108.493
111.241
112.057
113.757
115.948
117.604
118.668
119.104
119.246
119.171
0.105005
95.0682
106.672
103.13
121.336
109.544
112.454
-9.94801
0.308466
0.254783
0.149643
0.106992
0.112392
0.125336
0.208641
0.186466
0.155496
0.0624861
0.168144
-0.869032
110.897
111.472
112.698
114.812
117.318
119.059
120.077
120.503
120.656
120.592
0.0901556
11.4154
106.767
101.689
121.85
109.94
112.48
-0.483747
0.260691
0.234726
0.147986
0.108558
0.0931863
0.106726
0.185404
0.178767
0.141728
0.0522219
0.236334
-0.288433
22.9152
110.934
113.111
115.967
118.703
120.367
121.573
122.054
122.231
122.181
0.131532
-0.0163507
86.8732
100.452
122.38
109.824
112.082
-0.36527
0.20664
0.217181
0.146165
0.110231
0.121802
0.0869533
0.185714
0.166771
0.128319
0.0501818
0.414984
-0.767615
-0.902889
112.321
112.857
117.472
120.003
124.453
123.238
123.818
124.021
123.984
0.0940011
-0.234519
0.21476
97.8997
122.984
109.152
113.932
-0.238489
0.320953
0.201338
0.143818
0.100061
0.0798119
0.141373
0.161452
0.155064
0.115946
0.0542012
0.19547
0.0349529
-1.08551
0.241724
109.47
119.955
122.476
124.573
125.329
125.873
126.094
126.065
0.00784386
-0.228539
0.0209131
49.7441
123.722
109.377
-0.19795
-0.176225
0.227506
0.18618
0.140599
0.0976193
0.0460177
0.08776
0.176202
0.142232
0.104468
0.0490906
0.368923
-2.08247
-1.0612
-2.63882
109.624
123.98
125.488
126.799
127.71
128.274
128.528
128.509
0.00226177
-0.250725
0.0253478
-1.54464
124.661
98.0638
-0.0802058
-0.127072
0.181611
0.170582
0.137657
0.118243
0.0559805
-0.00025722
0.134269
0.129102
0.0940211
0.0473843
0.0604369
-1.14774
-1.13395
-0.9034
0.278774
128.944
128.61
129.507
130.384
131.08
131.427
131.419
-0.0166232
-0.265269
0.0392235
-0.280018
125.731
0.232019
-0.0646592
-0.0880284
0.147091
0.154927
0.136622
0.097758
0.0204052
0.0308129
0.117432
0.11625
0.0845171
0.044862
0.0658971
-0.582327
-1.0213
-0.58581
-0.424925
132.491
131.362
132.382
133.397
134.415
134.92
134.919
-0.0240412
-0.267989
0.0451432
-0.24488
65.4615
0.208621
-0.0587431
-0.0591893
0.120006
0.140958
0.130457
0.101751
0.237289
0.0285468
0.105508
0.103873
0.0753059
0.0419913
0.0282029
-0.437493
-0.639455
-0.402925
-0.00330627
0.254289
131.496
134.522
136.723
138.583
139.224
139.177
-0.0307431
-0.205347
0.0398044
-0.191161
0.0447239
0.157953
-0.0520979
-0.04198
0.0860673
0.128761
0.128877
0.0984973
0.0157167
0.0504132
0.0946996
0.0921525
0.0668354
0.0360501
-0.00634488
-0.35811
-0.255403
-0.243453
0.034915
-0.0184251
-0.244495
43.135
139.953
144.41
144.741
144.409
-0.0342204
-0.203264
0.00688887
-0.144574
0.0564362
0.114353
-0.0422223
-0.016887
0.0673826
0.118405
0.121649
0.0956922
0.0443867
0.0592224
0.0854322
0.0813196
0.0590157
0.029829
-0.00940136
0.0144221
-0.0896152
-0.102013
-0.100807
-0.0280319
0.0103497
0.0213034
-0.0289319
-0.0783791
2.5724
8.37223
-0.0349356
-0.194233
-0.0124658
-0.106396
0.0433689
0.0819182
-0.0310014
-0.00705955
0.0595249
0.111188
0.116538
0.10142
0.060341
0.0634637
0.0776193
0.0715827
0.0519344
0.0259642
-0.00258285
0.0133402
-0.0492462
-0.0718127
-0.0714363
-0.0319156
-0.00969101
-0.00663755
-0.0186075
-0.0288483
-0.03304
-0.0352346
-0.0339017
-0.167376
-0.0241279
-0.0785918
0.0336901
0.058225
-0.0200595
0.00460034
0.0634362
0.107443
0.115082
0.115161
0.0669788
0.0651371
0.0710869
0.0630291
0.0457627
0.0234787
0.00138567
-0.00955228
-0.0410605
-0.0603729
-0.052589
-0.0309235
-0.0165668
-0.0128115
-0.0160602
-0.0207365
-0.0244212
-0.0271489
-0.0318264
-0.13962
-0.0384783
-0.0589853
0.0229393
0.0413508
-0.0102648
0.014723
0.103173
0.10534
0.111876
0.134424
0.0710414
0.0654575
0.0658061
0.0555915
0.0405782
0.0217474
0.00304517
-0.0149786
-0.0355993
-0.0444065
-0.0379382
-0.0244532
-0.0155175
-0.0125669
-0.0130889
-0.0148847
-0.0167968
-0.0184295
-0.0293334
-0.117055
-0.0457956
-0.0456884
0.0140275
0.0296712
-0.00203187
0.0219396
0.0754004
0.104103
0.112332
0.135654
0.0718673
0.064825
0.0621967
0.0490937
0.0363696
0.0207331
0.00458676
-0.0113263
-0.0249074
-0.0285491
-0.0224021
-0.0144257
-0.00983161
-0.00828071
-0.00826984
-0.00886152
-0.009597
-0.0102991
-0.026685
-0.0986618
-0.0482243
-0.0367027
0.00819661
0.0217927
0.00445969
0.0270337
0.07179
0.10335
0.108865
0.0909373
0.0704539
0.0639175
0.154242
0.0440629
0.0330396
0.0203661
0.00791549
-0.00285554
-0.0107872
-0.0116674
-0.00788695
-0.0040792
-0.00226545
-0.00186406
-0.00199784
-0.00225772
-0.00249207
-0.00272134
-0.023952
-0.0835096
-0.0480293
-0.0305774
0.00466532
0.0165831
0.00915747
0.0302886
0.0701047
0.102898
0.110565
0.0861251
0.0825748
0.0601899
0.126757
0.040325
0.0303591
0.0203774
0.0114707
0.0046956
0.001137
0.00105305
0.00278198
0.00429395
0.00490569
0.00554436
0.00477387
0.00487431
0.00465267
0.00456017
-0.0213359
-0.0707763
-0.0459684
-0.0262581
0.0022102
0.0130996
0.0121542
0.0318573
0.0674509
0.102786
0.118552
0.0872306
0.0646394
0.0554627
0.0450999
0.0359028
0.0278664
0.0203203
0.0142572
0.0103259
0.00868676
0.00880607
0.00962831
0.0103173
0.0106228
0.0106525
0.0106253
0.0105415
0.0104671
0.0103658
-0.0188027
-0.0598519
-0.0426618
-0.0230294
0.000427499
0.0105858
0.0136255
0.0317923
0.0640742
0.10256
0.123017
0.0846207
0.0640488
0.0529284
0.0391754
0.0306493
0.0247742
0.0195473
0.0157026
0.0135392
0.0128638
0.0131241
0.0137079
0.014225
0.014554
0.0147207
0.0147855
0.0147807
0.0147204
0.0146118
-0.0163588
-0.0503383
-0.0386271
-0.0204511
-0.000934204
0.00845363
0.0135617
0.0299572
0.0590841
0.100926
0.128008
0.0755845
0.0391624
0.0302178
0.0249369
0.0344036
0.0199162
0.0172211
0.0153517
0.0145419
0.0146132
0.0151448
0.0157885
0.0163497
0.0167648
0.0170362
0.0171879
0.0172453
0.0172268
0.0171486
-0.0140356
-0.0419961
-0.034243
-0.0182652
-0.00211261
0.00634059
0.0121113
0.0261464
0.0513043
0.0959255
0.152719
0.0447653
0.00875298
0.0104636
0.00848714
0.0113761
0.0138973
0.0129502
0.0129893
0.0135172
0.0144408
0.0154096
0.0162711
0.0169644
0.0174838
0.0178469
0.0180803
0.0182074
0.0182494
0.0182245
-0.0118402
-0.0346922
-0.0297671
-0.0163117
-0.00315983
0.00419728
0.00944803
0.020133
0.0406218
0.0989319
0.0795297
-0.00717221
-0.0488272
-0.0335751
-0.0161712
-0.00487606
0.0197604
0.035114
0.00834795
0.0109825
0.0128871
0.0143426
0.0154614
0.0163107
0.0169417
0.0173957
0.0177081
0.0179077
0.0180186
0.0180589
-0.0097784
-0.0283258
-0.0253665
-0.0144793
-0.00398283
0.00206
0.00575171
0.0116992
0.0254769
0.0487688
0.030566
-0.0980469
-0.0654398
-0.088608
-0.0459198
-0.0220295
-0.00982817
-0.00257432
0.00422017
0.00810028
0.0105813
0.0123357
0.0136314
0.0146032
0.0153338
0.0158774
0.0162737
0.0165534
0.0167393
0.0168511
-0.00786472
-0.0227576
-0.0211387
-0.0126797
-0.00453497
-7.43158e-06
0.00135462
0.000822852
0.00990607
0.00831141
-0.0450907
-0.204641
-0.245759
-0.151761
-0.0753663
-0.036937
-0.0172582
-0.00584731
0.000919189
0.00493688
0.00760114
0.00950845
0.0109294
0.0120128
0.0128461
0.0134891
0.0139832
0.014358
0.0146364
0.0148365
-0.00611365
-0.0178441
-0.0171292
-0.0108503
-0.00479973
-0.00185545
-0.00310249
-0.0116008
0.0313006
-0.0674559
-0.106064
-0.274802
-0.303714
-0.198043
-0.095097
-0.0472815
-0.0239122
-0.0111245
-0.00375021
0.000771445
0.00378487
0.00593332
0.00753592
0.00877006
0.00974106
0.010516
0.0111391
0.0116395
0.012041
0.0123616
-0.00452592
-0.0134682
-0.0133414
-0.00895763
-0.00475191
-0.0032501
-0.006568
-0.0209359
-0.0688272
-0.140207
-0.160397
-0.255577
-0.283292
-0.185625
-0.094062
-0.0498496
-0.027905
-0.0156323
-0.00822663
-0.00346286
-0.00020508
0.00214701
0.00392229
0.0053103
0.00642851
0.00734898
0.00812022
0.00877505
0.00933524
0.00981647
-0.00308446
-0.00952214
-0.009747
-0.00698259
-0.00435994
-0.00392938
-0.00794407
-0.0224344
-0.068124
-0.190545
-0.197933
-0.155154
-0.184794
-0.126718
-0.0705681
-0.0422844
-0.0265466
-0.0169789
-0.0107552
-0.00649015
-0.00343087
-0.00114111
0.000641938
0.00208037
0.003278
0.00430195
0.00519669
0.00599071
0.00670317
0.00734846
-0.00175354
-0.00588184
-0.0062849
-0.00490698
-0.00361269
-0.00374003
-0.00682006
-0.0157933
-0.0373504
-0.0852874
-0.0430967
-0.0505558
-0.0616431
-0.054299
-0.0383378
-0.0279362
-0.020528
-0.0150719
-0.0110027
-0.00792474
-0.00554888
-0.00366749
-0.00213429
-0.000845464
0.000270538
0.00126103
0.00215747
0.00298096
0.00374613
0.0044617
-0.00047824
-0.00238952
-0.00285694
-0.00271443
-0.00255725
-0.00281224
-0.00386038
-0.00578179
-0.00774634
-0.00520071
0.00690711
0.00457168
-0.00735469
-0.00977218
-0.0132422
-0.0142441
-0.0133643
-0.0117264
-0.00997999
-0.00837884
-0.00698844
-0.00579657
-0.00477013
-0.00387317
-0.00307466
-0.00235169
-0.00168669
-0.0010675
-0.000484738
6.58826e-05
117.642
117.206
116.53
115.503
113.823
111.319
107.859
103.708
99.0167
90.2328
55.6097
-1.66035
0.842066
0.492181
0.301343
0.260996
0.230294
0.150576
0.193443
0.253865
0.221645
-0.0945962
76.744
98.3866
110.832
120.96
112.487
104.23
103.874
99.775
118.918
118.483
117.816
116.817
115.101
112.721
109.201
104.991
100.564
92.1448
74.5333
-2.63346
0.650344
0.508148
0.338736
0.233548
0.1959
0.145158
0.191174
0.256664
0.203827
-0.0800984
0.220015
96.7375
110.529
121.522
112.483
103.915
103.76
90.5045
120.34
119.899
119.232
118.24
116.335
114.415
110.756
106.664
102.23
92.7694
0.42734
-0.227769
0.457192
0.393577
0.24301
0.221049
0.16193
0.13832
0.185331
0.222779
0.186574
-0.0713321
-0.12963
94.4997
109.687
122.111
112.458
103.566
103.646
-0.0449419
121.931
121.481
120.798
119.75
117.333
116.037
112.57
108.889
104.193
95.7111
-0.551713
0.932568
0.319345
0.334052
0.225937
0.208736
0.332223
0.117882
0.202334
0.211079
0.169669
-0.0710993
-0.149041
91.3891
109.927
122.704
112.429
103.283
54.7297
-0.30038
123.734
123.275
122.573
121.471
119.387
117.362
114.864
111.502
104.492
-0.757232
-0.849489
-0.177815
0.22197
0.285004
0.213918
0.195682
0.224457
0.124379
0.173654
0.21103
0.152963
-0.0718044
-0.120104
50.2828
110.017
123.107
112.56
92.4656
-0.192868
-0.299347
125.812
125.339
124.619
123.546
121.968
120.033
118.123
112.387
95.2029
-0.446526
-0.676849
-0.248688
0.151701
0.240629
0.199826
0.190118
0.574078
0.11733
0.202262
0.198078
0.136809
-0.0738096
-0.103306
-0.43632
110.76
123.605
113.258
0.147655
-0.160607
-0.149412
128.246
127.747
126.978
125.882
124.48
123.013
122.197
116.38
-0.481232
-0.338277
-0.488628
0.436714
0.102534
0.201194
0.187219
0.172604
0.0724795
0.1182
0.160157
0.170703
0.121314
-0.0552851
-0.0929767
-0.17252
111.417
124.168
113.898
-0.201846
-0.225062
-0.141997
131.142
130.589
129.676
128.447
127.064
125.689
125.912
30.1579
-0.196033
-0.305127
-0.368236
-0.0917538
0.0722912
0.167081
0.171164
0.142135
0.11292
0.115363
0.212567
0.153427
0.111592
-0.0576395
-0.075535
-0.134159
2.6192
124.324
38.4492
-0.207568
-0.198944
-0.165187
134.616
133.991
132.868
131.297
129.764
127.883
129.941
0.425507
0.13522
-0.282228
-0.252097
-0.0673135
0.0550798
0.138075
0.153417
0.135907
0.0786987
0.111269
0.177964
0.129155
0.109713
-0.0263354
-0.0690738
-0.10961
-0.00971491
123.753
0.933836
-0.125313
-0.222202
-0.155611
138.79
138.175
136.881
134.209
131.606
124.959
-0.430736
0.00843924
-0.0252606
-0.1793
-0.183007
-0.0572922
0.0422998
0.11395
0.135469
0.125579
0.0954567
0.110962
0.18586
0.121021
0.0890012
-0.0497302
-0.0504295
-0.0918764
-0.039644
0.308494
-0.0954008
-0.121037
-0.203142
-0.128827
143.425
143.425
143.526
134.714
9.83527
-0.0637062
-0.0543452
-0.0346355
-0.0648048
-0.0857018
-0.156502
-0.0599849
0.0325424
0.0940023
0.118324
0.114993
0.0993695
0.109478
0.184371
0.114989
0.119108
-0.0181244
-0.0542924
-0.0849879
-0.0615828
0.0690503
-0.047318
-0.129813
-0.211867
-0.129035
4.50786
-0.0338136
-0.0786576
-0.0830463
-0.0490729
-0.0178236
-0.0278991
-0.0368699
-0.0455233
-0.0475685
1.08698
-0.0662721
0.0247459
0.0777423
0.102544
0.10423
0.0963602
0.105282
0.16594
0.089813
0.0562347
-0.0141315
-0.0487847
-0.0721703
-0.0695299
0.038541
-0.0263361
-0.105517
-0.162514
-0.111825
-0.0384626
-0.0442543
-0.0493305
-0.0500865
-0.0421882
-0.032652
-0.0336792
-0.0378374
-0.0360357
-0.000470467
0.0373583
-0.0377489
0.0214162
0.0648118
0.0883844
0.0934391
0.0897052
0.0975477
0.106631
0.131092
0.0481992
0.0128367
-0.0397569
-0.0610728
-0.0675488
0.0205673
-0.0157986
-0.0896953
-0.201403
-0.0969038
-0.0294145
-0.0314535
-0.0329542
-0.0332691
-0.0326446
-0.0335449
-0.0372663
-0.029338
-0.0274308
-0.00792843
0.0122762
-0.00942851
0.0217447
0.0548061
0.0759245
0.0827482
0.0806811
0.0867196
0.11959
0.115983
0.0442999
0.00331553
-0.0318174
-0.0520423
-0.0602898
0.0097529
-0.0113438
-0.0777927
-0.131151
-0.0838764
-0.0197771
-0.0209208
-0.0218861
-0.0229134
-0.0247974
-0.0285468
-0.0325424
-0.0313014
-0.0220231
-0.00697885
0.00312783
0.00419556
0.0229329
0.0471084
0.0651359
0.0723901
0.0699922
0.0844647
0.0762938
0.106045
0.0407696
0.00806911
-0.0250106
-0.0445201
-0.0514567
0.00287392
-0.00891832
-0.0693824
-0.141067
-0.0722756
-0.0109548
-0.0116372
-0.0125812
-0.0140562
-0.0165895
-0.0202699
-0.0233835
-0.022573
-0.0158393
-0.00526454
0.00298075
0.00988594
0.0233539
0.0409749
0.0558793
0.0627502
0.0583711
0.0768488
0.0509024
0.040509
0.0370328
0.00877772
-0.0193376
-0.0379505
-0.042915
-0.0013898
-0.00857033
-0.0625242
-0.0858182
-0.06173
-0.00300567
-0.00345481
-0.00423189
-0.00554848
-0.00758058
-0.0100026
-0.0118281
-0.0111399
-0.00797949
-0.00171969
0.00501538
0.0123453
0.022725
0.0357199
0.0478819
0.054652
0.040202
0.0715396
0.0290729
0.0242465
0.0318735
0.0107655
-0.0145886
-0.0319337
-0.0353675
-0.00400725
-0.00981828
-0.0563209
-0.0877364
-0.0523353
0.00442774
0.00397747
0.00346632
0.00263979
0.00133333
0.000172945
-0.00155448
-0.00166302
-0.000243557
0.00299909
0.007576
0.0134486
0.0212484
0.0307808
0.0405242
0.0507299
-0.0238967
0.112721
-0.0032931
0.0101798
0.0319473
0.0117066
-0.0104754
-0.0263081
-0.0289885
-0.00586752
-0.0116396
-0.0506793
-0.0729667
-0.0440844
0.0101958
0.00994594
0.00956698
0.00896187
0.00810433
0.00707231
0.00606774
0.00547573
0.00573715
0.00713359
0.0097644
0.0136917
0.0190667
0.0257247
0.0326339
0.0341663
5.12835
0.0322634
-0.0109027
0.00319572
0.0253204
0.0123393
-0.00682726
-0.0210825
-0.0237246
-0.00745189
-0.0132459
-0.0454492
-0.0621949
-0.0369046
0.014452
0.0142188
0.013874
0.0133817
0.0127184
0.0119025
0.0110202
0.01025
0.0098413
0.0100463
0.0110668
0.0130533
0.0161352
0.0203052
0.0246379
0.00162861
5.16268
0.0119864
-0.0212042
0.00454863
0.0250515
0.0128467
-0.00353993
-0.0162965
-0.0193608
-0.00886173
-0.0143059
-0.0405723
-0.0533533
-0.0307286
0.0170184
0.0168212
0.0165283
0.0161158
0.0155616
0.0148588
0.0140258
0.013123
0.0122558