/*--------------------------------*- C++ -*----------------------------------*\
| =========                 |                                                 |
| \\      /  F ield         | OpenFOAM: The Open Source CFD Toolbox           |
|  \\    /   O peration     | Version:  2.4.0                                 |
|   \\  /    A nd           | Web:      www.OpenFOAM.org                      |
|    \\/     M anipulation  |                                                 |
\*---------------------------------------------------------------------------*/
FoamFile
{
    version     2.0;
    format      ascii;
    class       volScalarField;
    location    "0.216";
    object      alpha.water;
}
// * * * * * * * * * * * * * * * * * * * * * * * * * * * * * * * * * * * * * //

dimensions      [0 0 0 0 0 0 0];

internalField   nonuniform List<scalar> 
10000
(
4.44431e-58
2.48001e-54
5.33926e-51
5.29489e-48
2.28778e-45
4.70979e-43
5.54863e-41
4.11899e-39
2.10382e-37
7.98373e-36
2.39336e-34
5.83779e-33
1.15738e-31
1.83622e-30
2.36513e-29
2.50663e-28
2.23995e-27
1.68852e-26
1.09949e-25
6.27108e-25
3.1443e-24
1.4111e-23
5.78388e-23
2.18596e-22
7.56785e-22
2.37644e-21
6.6249e-21
1.58644e-20
3.04352e-20
4.00124e-20
3.5347e-20
2.09903e-20
8.60373e-21
2.52949e-21
5.51385e-22
9.12686e-23
1.23602e-23
1.40029e-24
1.30229e-25
9.80465e-27
5.92773e-28
2.82935e-29
1.0594e-30
3.07416e-32
6.78814e-34
1.11685e-35
1.32592e-37
1.10429e-39
1.12191e-40
6.05332e-39
1.97184e-54
1.30091e-50
2.67774e-47
2.21853e-44
7.59585e-42
1.35054e-39
1.37627e-37
8.99687e-36
4.09048e-34
1.38447e-32
3.72251e-31
8.21414e-30
1.47846e-28
2.12751e-27
2.4783e-26
2.38037e-25
1.93527e-24
1.31581e-23
7.61399e-23
3.88314e-22
1.75319e-21
7.10106e-21
2.63284e-20
9.02049e-20
2.86365e-19
8.33345e-19
2.17234e-18
4.89835e-18
8.97266e-18
1.20603e-17
1.16639e-17
8.16211e-18
4.20563e-18
1.65182e-18
5.20358e-19
1.38505e-19
3.22804e-20
6.53348e-21
1.12649e-21
1.62175e-22
1.91386e-23
1.81408e-24
1.35172e-25
7.70838e-27
3.29341e-28
1.01889e-29
2.17796e-31
5.35093e-33
7.60384e-32
1.95776e-30
1.57181e-51
1.25775e-47
2.68344e-44
1.96127e-41
5.994e-39
9.40359e-37
8.51966e-35
4.9286e-33
1.99242e-31
6.02702e-30
1.45186e-28
2.88596e-27
4.71531e-26
6.19769e-25
6.56238e-24
5.70074e-23
4.16527e-22
2.5701e-21
1.33667e-20
6.08281e-20
2.47243e-19
9.06773e-19
3.05626e-18
9.56587e-18
2.78662e-17
7.53692e-17
1.85094e-16
3.97691e-16
7.07824e-16
9.65905e-16
9.96971e-16
7.8151e-16
4.69831e-16
2.23729e-16
8.86498e-17
3.05538e-17
9.30404e-18
2.4842e-18
5.72601e-19
1.11771e-19
1.81293e-20
2.3883e-21
2.48197e-22
1.96123e-23
1.1301e-24
4.55121e-26
1.23291e-27
2.52091e-28
5.07214e-27
8.66284e-26
5.0964e-49
4.76148e-45
1.0949e-41
7.71026e-39
2.1868e-36
3.02209e-34
2.37578e-32
1.20644e-30
4.32375e-29
1.16556e-27
2.50723e-26
4.47139e-25
6.60365e-24
7.89921e-23
7.6372e-22
6.02373e-21
3.96213e-20
2.21156e-19
1.04323e-18
4.26497e-18
1.56081e-17
5.19482e-17
1.59626e-16
4.58096e-16
1.23102e-15
3.09126e-15
7.15834e-15
1.47109e-14
2.55503e-14
3.52937e-14
3.81704e-14
3.24961e-14
2.18794e-14
1.19648e-14
5.55702e-15
2.26203e-15
8.17414e-16
2.60528e-16
7.22139e-17
1.71196e-17
3.40443e-18
5.53873e-19
7.14738e-20
7.00956e-21
4.9412e-22
2.34723e-23
7.30996e-25
6.49011e-25
1.09031e-23
1.43546e-22
8.20729e-47
1.01907e-42
2.88437e-39
1.92195e-36
4.69894e-34
5.4829e-32
3.70768e-30
1.64974e-28
5.24245e-27
1.26029e-25
2.41957e-24
3.86134e-23
5.13641e-22
5.57265e-21
4.90853e-20
3.5297e-19
2.10262e-18
1.0595e-17
4.54253e-17
1.68238e-16
5.55468e-16
1.67981e-15
4.71993e-15
1.24575e-14
3.0976e-14
7.23992e-14
1.57633e-13
3.0999e-13
5.2554e-13
7.3147e-13
8.21586e-13
7.44992e-13
5.46857e-13
3.32394e-13
1.73164e-13
7.94828e-14
3.25344e-14
1.18184e-14
3.75249e-15
1.02242e-15
2.35059e-16
4.46241e-17
6.75631e-18
7.80197e-19
6.43953e-20
3.49296e-21
1.25959e-22
2.46844e-22
3.54623e-21
3.88759e-20
9.10628e-45
2.14978e-40
5.70028e-37
3.16732e-34
6.35566e-32
6.25067e-30
3.6537e-28
1.42858e-26
4.0315e-25
8.65223e-24
1.48301e-22
2.11405e-21
2.5247e-20
2.47566e-19
1.98101e-18
1.29885e-17
7.03257e-17
3.21123e-16
1.25225e-15
4.214e-15
1.26197e-14
3.46894e-14
8.93001e-14
2.17301e-13
5.01196e-13
1.09255e-12
2.23346e-12
4.19329e-12
6.92731e-12
9.67665e-12
1.12092e-11
1.06959e-11
8.41158e-12
5.55571e-12
3.16361e-12
1.59279e-12
7.17794e-13
2.88684e-13
1.02234e-13
3.12764e-14
8.08342e-15
1.72824e-15
2.97923e-16
3.94011e-17
3.73497e-18
2.29412e-19
9.60243e-21
2.63841e-20
3.37194e-19
3.22859e-18
1.00542e-42
3.73412e-38
7.93089e-35
3.52296e-32
5.80453e-30
4.84684e-28
2.45959e-26
8.47349e-25
2.12734e-23
4.08179e-22
6.25321e-21
7.95613e-20
8.50735e-19
7.51372e-18
5.44408e-17
3.24762e-16
1.60289e-15
6.66014e-15
2.36614e-14
7.25021e-14
1.97443e-13
4.93987e-13
1.16637e-12
2.62146e-12
5.61843e-12
1.14367e-11
2.19476e-11
3.91852e-11
6.28941e-11
8.77941e-11
1.04313e-10
1.04021e-10
8.66308e-11
6.11537e-11
3.74374e-11
2.03299e-11
9.91183e-12
4.3349e-12
1.68094e-12
5.68056e-13
1.63453e-13
3.89462e-14
7.48197e-15
1.11871e-15
1.20775e-16
8.4598e-18
3.99549e-19
1.1317e-18
1.32865e-17
1.14944e-16
1.54253e-40
4.87109e-36
7.84341e-33
2.77069e-30
3.78087e-28
2.69567e-26
1.19194e-24
3.62745e-23
8.11782e-22
1.395e-20
1.91364e-19
2.17386e-18
2.07743e-17
1.64753e-16
1.0771e-15
5.82952e-15
2.62346e-14
9.94696e-14
3.23404e-13
9.04011e-13
2.24111e-12
5.1116e-12
1.10715e-11
2.30071e-11
4.5893e-11
8.73247e-11
1.57154e-10
2.65953e-10
4.12692e-10
5.7328e-10
6.96277e-10
7.22162e-10
6.31396e-10
4.70909e-10
3.06176e-10
1.77252e-10
9.25427e-11
4.35692e-11
1.83184e-11
6.76936e-12
2.15237e-12
5.71844e-13
1.2241e-13
2.04826e-14
2.51737e-15
2.03305e-16
1.05745e-17
2.4153e-17
2.67608e-16
2.14864e-15
2.2457e-38
4.69848e-34
5.69248e-31
1.60315e-28
1.8244e-26
1.11578e-24
4.3123e-23
1.16214e-21
2.32308e-20
3.58275e-19
4.41141e-18
4.48082e-17
3.82438e-16
2.71731e-15
1.59769e-14
7.81929e-14
3.20345e-13
1.11155e-12
3.32414e-12
8.498e-12
1.91959e-11
3.99057e-11
7.92489e-11
1.52298e-10
2.83066e-10
5.04166e-10
8.51443e-10
1.36217e-09
2.02982e-09
2.79603e-09
3.46839e-09
3.72878e-09
3.39768e-09
2.65098e-09
1.81332e-09
1.11062e-09
6.16589e-10
3.10811e-10
1.41114e-10
5.68222e-11
1.98843e-11
5.88718e-12
1.41903e-12
2.65949e-13
3.72892e-14
3.51207e-15
2.04159e-16
2.96596e-16
3.16933e-15
2.41623e-14
2.4883e-36
3.41287e-32
3.10135e-29
7.01749e-27
6.70003e-25
3.5291e-23
1.1954e-21
2.85891e-20
5.11526e-19
7.09607e-18
7.86404e-17
7.16002e-16
5.46152e-15
3.47304e-14
1.83206e-13
8.08116e-13
3.00682e-12
9.56395e-12
2.6462e-11
6.20645e-11
1.27926e-10
2.42134e-10
4.40411e-10
7.82111e-10
1.35521e-09
2.26241e-09
3.58723e-09
5.42991e-09
7.71453e-09
1.057e-08
1.34735e-08
1.50212e-08
1.41557e-08
1.14067e-08
8.1082e-09
5.20686e-09
3.05846e-09
1.64615e-09
8.05965e-10
3.5388e-10
1.36476e-10
4.50429e-11
1.22906e-11
2.63253e-12
4.19965e-13
4.66583e-14
3.154e-15
2.33875e-15
2.4351e-14
1.80015e-13
2.13218e-34
1.89734e-30
1.29411e-27
2.37066e-25
1.90994e-23
8.69658e-22
2.58793e-20
5.50231e-19
8.82775e-18
1.10398e-16
1.10431e-15
9.04196e-15
6.17633e-14
3.51654e-13
1.66255e-12
6.59255e-12
2.22184e-11
6.48232e-11
1.66988e-10
3.608e-10
6.80037e-10
1.17086e-09
1.94758e-09
3.19026e-09
5.14905e-09
8.06143e-09
1.20018e-08
1.72673e-08
2.32855e-08
3.25881e-08
4.3608e-08
5.07253e-08
4.90538e-08
4.00022e-08
2.88912e-08
1.91108e-08
1.17517e-08
6.72321e-09
3.5479e-09
1.70041e-09
7.249e-10
2.67533e-10
8.27371e-11
2.04898e-11
3.78965e-12
4.96473e-13
4.05712e-14
1.3253e-14
1.30225e-13
9.53161e-13
1.42425e-32
8.14041e-29
4.19422e-26
6.2721e-24
4.28934e-22
1.69453e-20
4.43932e-19
8.40204e-18
1.21027e-16
1.36699e-15
1.23746e-14
9.14512e-14
5.61171e-13
2.866e-12
1.21534e-11
4.3279e-11
1.31822e-10
3.52631e-10
8.5152e-10
1.70137e-09
2.9435e-09
4.60532e-09
7.00655e-09
1.0562e-08
1.58334e-08
2.31923e-08
3.23326e-08
4.42177e-08
5.58219e-08
8.54844e-08
1.22435e-07
1.46123e-07
1.44205e-07
1.19159e-07
8.64689e-08
5.78016e-08
3.65603e-08
2.19766e-08
1.24208e-08
6.48538e-09
3.05758e-09
1.26564e-09
4.44336e-10
1.27157e-10
2.78635e-11
4.30168e-12
4.34373e-13
6.58311e-14
5.11876e-13
3.78664e-12
7.4116e-31
2.70943e-27
1.06682e-24
1.31438e-22
7.67722e-21
2.64124e-19
6.10368e-18
1.02927e-16
1.33197e-15
1.36035e-14
1.1167e-13
7.47468e-13
4.13623e-12
1.90078e-11
7.24807e-11
2.32075e-10
6.38371e-10
1.56412e-09
3.56885e-09
6.617e-09
1.05497e-08
1.49768e-08
2.0929e-08
2.89837e-08
4.01098e-08
5.45156e-08
7.05846e-08
9.01487e-08
8.41722e-08
2.10797e-07
2.90449e-07
2.74315e-07
2.06649e-07
2.30827e-07
1.9246e-07
1.39882e-07
9.35557e-08
5.90927e-08
3.54329e-08
1.99742e-08
1.03632e-08
4.8044e-09
1.91945e-09
6.33067e-10
1.64209e-10
3.06403e-11
3.79136e-12
3.8323e-13
1.54678e-12
1.17858e-11
2.97636e-29
7.02823e-26
2.14726e-23
2.20136e-21
1.10517e-19
3.32417e-18
6.78986e-17
1.02093e-15
1.18702e-14
1.09644e-13
8.17123e-13
4.967e-12
2.48804e-11
1.03272e-10
3.55474e-10
1.0271e-09
2.55696e-09
5.73107e-09
1.25157e-08
2.16419e-08
3.16518e-08
4.07829e-08
5.28666e-08
6.72607e-08
8.50348e-08
1.05506e-07
1.24981e-07
1.43669e-07
1.76382e-07
2.38051e-07
3.92412e-07
2.11895e-06
4.76476e-06
1.88796e-06
8.86354e-07
4.25754e-07
2.40553e-07
1.43908e-07
8.6373e-08
5.07861e-08
2.84422e-08
1.46276e-08
6.6289e-09
2.52543e-09
7.67053e-10
1.74543e-10
2.64124e-11
2.68003e-12
3.76792e-12
2.97504e-11
9.05689e-28
1.42722e-24
3.4433e-22
2.96723e-20
1.28868e-18
3.40343e-17
6.15937e-16
8.26566e-15
8.63322e-14
7.20794e-13
4.877e-12
2.6955e-11
1.22565e-10
4.61074e-10
1.43855e-09
3.77088e-09
8.54964e-09
1.75322e-08
3.75722e-08
6.14034e-08
8.00466e-08
9.40163e-08
1.14972e-07
1.34411e-07
1.52528e-07
1.68408e-07
1.80477e-07
1.84461e-07
1.81567e-07
1.81023e-07
1.28204e-06
1.20429e-05
1.35986e-05
1.21262e-05
1.63997e-06
6.26094e-07
3.51923e-07
2.31672e-07
1.53587e-07
9.91225e-08
6.12692e-08
3.52224e-08
1.8113e-08
7.97299e-09
2.84499e-09
7.73685e-10
1.46547e-10
1.75521e-11
8.15458e-12
6.26526e-11
2.07051e-26
2.27813e-23
4.42126e-21
3.23463e-19
1.22339e-17
2.85135e-16
4.58702e-15
5.50224e-14
5.16284e-13
3.8922e-12
2.38838e-11
1.19964e-10
4.95612e-10
1.69271e-09
4.80081e-09
1.14763e-08
2.39387e-08
4.50692e-08
9.9691e-08
1.61062e-07
1.66994e-07
1.87466e-07
2.2149e-07
2.34997e-07
2.31858e-07
2.21294e-07
2.19799e-07
2.15057e-07
2.0026e-07
1.84022e-07
6.15284e-06
1.35979e-05
1.36013e-05
1.36053e-05
7.44502e-06
3.53338e-07
2.9378e-07
2.40355e-07
1.88659e-07
1.41914e-07
1.01127e-07
6.66226e-08
3.92715e-08
1.99493e-08
8.35243e-09
2.70518e-09
6.30845e-10
9.33381e-11
1.93334e-11
1.12944e-10
3.59959e-25
2.86799e-22
4.55971e-20
2.85939e-18
9.48569e-17
1.96331e-15
2.82089e-14
3.03212e-13
2.55761e-12
1.73947e-11
9.66028e-11
4.39989e-10
1.64937e-09
5.1112e-09
1.31805e-08
2.88096e-08
5.58182e-08
9.69161e-08
2.34824e-07
4.14502e-07
2.70473e-07
3.6661e-07
4.05096e-07
3.65037e-07
2.95161e-07
2.33219e-07
2.46041e-07
2.4433e-07
2.44506e-07
2.42412e-07
3.15349e-07
1.10753e-05
1.35967e-05
1.20744e-05
1.5475e-06
9.57384e-07
3.68054e-07
2.58821e-07
2.16114e-07
1.80283e-07
1.4415e-07
1.06981e-07
7.13073e-08
4.12425e-08
1.99114e-08
7.61817e-09
2.13447e-09
3.97899e-10
5.90373e-11
1.78862e-10
4.81719e-24
2.89503e-21
3.79817e-19
2.0528e-17
6.01472e-16
1.11392e-14
1.43907e-13
1.39189e-12
1.05722e-11
6.48512e-11
3.25111e-10
1.33814e-09
4.53795e-09
1.27294e-08
2.97845e-08
5.94894e-08
1.0739e-07
1.54452e-07
5.60777e-07
4.54712e-07
1.97984e-06
5.77447e-07
7.96796e-07
5.08107e-07
3.18434e-07
6.06748e-07
2.92569e-07
2.7515e-07
2.73747e-07
2.7504e-07
2.75478e-07
1.19326e-06
2.40854e-06
1.33991e-06
5.79609e-07
3.93005e-07
3.00696e-07
2.66541e-07
2.43266e-07
2.19255e-07
1.90013e-07
1.53972e-07
1.13161e-07
7.2998e-08
3.98569e-08
1.76153e-08
5.87178e-09
1.34458e-09
2.02613e-10
2.59206e-10
4.93947e-23
2.33066e-20
2.57162e-18
1.20953e-16
3.1471e-15
5.23952e-14
6.12093e-13
5.35393e-12
3.6709e-11
2.03217e-10
9.17839e-10
3.40383e-09
1.0414e-08
2.63851e-08
5.59231e-08
1.01881e-07
1.70727e-07
2.22512e-07
2.28928e-07
4.96066e-06
1.03934e-05
6.98718e-06
1.16027e-06
6.32852e-07
3.94521e-07
3.32653e-07
6.63675e-07
2.83672e-07
2.92111e-07
2.97431e-07
2.9661e-07
3.50497e-07
5.00822e-07
4.07764e-07
3.27937e-07
2.81593e-07
2.76713e-07
2.7006e-07
2.62808e-07
2.50877e-07
2.30851e-07
2.00341e-07
1.59534e-07
1.12953e-07
6.86584e-08
3.43824e-08
1.33935e-08
3.69101e-09
6.5464e-10
3.69636e-10
3.76007e-22
1.45657e-19
1.38261e-17
5.75368e-16
1.3479e-14
2.04179e-13
2.18106e-12
1.74224e-11
1.08551e-10
5.42588e-10
2.20734e-09
7.36936e-09
2.03238e-08
4.65042e-08
8.93387e-08
1.484e-07
2.27902e-07
2.54074e-07
1.57723e-06
1.04252e-05
1.04207e-05
1.0423e-05
1.90984e-06
6.44658e-07
3.98571e-07
3.38671e-07
3.06292e-07
3.05559e-07
3.17957e-07
3.32282e-07
3.32228e-07
3.27866e-07
3.33205e-07
3.30744e-07
3.10701e-07
6.13284e-07
2.87229e-07
2.85491e-07
2.93938e-07
2.81602e-07
2.64872e-07
2.40529e-07
2.03964e-07
1.56182e-07
1.04219e-07
5.82544e-08
2.59536e-08
8.48323e-09
1.82715e-09
5.71573e-10
2.14461e-21
7.05434e-19
5.89324e-17
2.20819e-15
4.71773e-14
6.562e-13
6.45491e-12
4.74482e-11
2.709e-10
1.23476e-09
4.56892e-09
1.38501e-08
3.46313e-08
7.19672e-08
1.25921e-07
1.90881e-07
2.64576e-07
3.28496e-07
5.5797e-07
4.46167e-06
1.04167e-05
5.85508e-06
7.22886e-07
4.88001e-07
3.91613e-07
3.50794e-07
3.31751e-07
3.19241e-07
3.56589e-07
4.00675e-07
4.03238e-07
3.8731e-07
3.78552e-07
3.77764e-07
3.60073e-07
3.7572e-07
3.30469e-07
3.68961e-07
6.38545e-07
4.98424e-07
3.46514e-07
2.8186e-07
2.4138e-07
1.96505e-07
1.42348e-07
8.77471e-08
4.39753e-08
1.67605e-08
4.3599e-09
1.02383e-09
8.96846e-21
2.60769e-18
1.96781e-16
6.74932e-15
1.3309e-13
1.71669e-12
1.56908e-11
1.0714e-10
5.66825e-10
2.38522e-09
8.13181e-09
2.2712e-08
5.23559e-08
1.00279e-07
1.61547e-07
2.25088e-07
2.85022e-07
3.47149e-07
4.86962e-07
1.14578e-06
5.19565e-06
8.92838e-07
5.21067e-07
4.86455e-07
4.15291e-07
3.64085e-07
3.37237e-07
3.27952e-07
3.99453e-07
5.16616e-07
5.31355e-07
4.9707e-07
4.62374e-07
4.99516e-07
5.47449e-07
6.25018e-07
7.69109e-07
1.60119e-06
3.12313e-06
2.33113e-06
8.4896e-07
5.2209e-07
2.4314e-07
2.24154e-07
1.76969e-07
1.19837e-07
6.69065e-08
2.92018e-08
9.05935e-09
2.06432e-09
2.78917e-20
7.3713e-18
5.12961e-16
1.63872e-14
3.0262e-13
3.66538e-12
3.14879e-11
2.02023e-10
1.00291e-09
3.95177e-09
1.25937e-08
3.28621e-08
7.06724e-08
1.26035e-07
1.8928e-07
2.49362e-07
3.11126e-07
3.93908e-07
4.82427e-07
4.8973e-07
7.57387e-07
5.29801e-07
5.27655e-07
6.1397e-07
4.33282e-07
3.61604e-07
3.33702e-07
3.36309e-07
3.43635e-07
5.42333e-07
5.97608e-07
6.10228e-07
5.57178e-07
5.06649e-07
4.89399e-07
6.05271e-07
7.86774e-06
9.97565e-06
9.97954e-06
9.9818e-06
6.43346e-06
5.92132e-07
6.22714e-07
2.202e-07
1.97177e-07
1.49014e-07
9.27965e-08
4.59184e-08
1.68202e-08
4.26643e-09
6.57157e-20
1.62492e-17
1.06676e-15
3.23164e-14
5.67475e-13
6.54245e-12
5.35062e-11
3.26752e-10
1.54334e-09
5.77909e-09
1.74596e-08
4.30432e-08
8.71701e-08
1.46403e-07
2.09369e-07
2.73131e-07
3.81923e-07
7.50592e-07
1.93544e-06
1.22697e-05
1.494e-05
1.14825e-05
1.98271e-06
1.06371e-06
3.78317e-07
3.38332e-07
3.254e-07
3.32797e-07
3.50776e-07
3.99383e-07
1.53122e-06
6.95538e-07
6.84984e-07
5.77364e-07
5.02661e-07
5.04321e-07
6.53069e-06
9.97091e-06
9.97816e-06
9.98276e-06
9.93396e-06
4.09921e-06
3.80657e-07
2.6093e-07
2.28108e-07
1.80532e-07
1.21869e-07
6.72172e-08
2.85134e-08
8.52062e-09
1.20025e-19
2.85041e-17
1.8046e-15
5.27612e-14
8.94997e-13
9.967e-12
7.86966e-11
4.63657e-10
2.1106e-09
7.59812e-09
2.19661e-08
5.15414e-08
9.91307e-08
1.58963e-07
2.21395e-07
2.9579e-07
4.72134e-07
1.16795e-06
1.78386e-05
2.47409e-05
2.47445e-05
2.47456e-05
1.55732e-05
6.86568e-07
3.14307e-07
3.20793e-07
3.20858e-07
3.29187e-07
3.65061e-07
5.06839e-07
5.20195e-07
9.79934e-07
8.75001e-07
6.24454e-07
5.2597e-07
8.56994e-07
1.50789e-06
1.97888e-06
5.92777e-06
9.82252e-06
9.93795e-06
9.03515e-06
1.83236e-06
3.09236e-07
2.64099e-07
2.16596e-07
1.55469e-07
9.40106e-08
4.52995e-08
1.60472e-08
1.72746e-19
4.03698e-17
2.5144e-15
7.22171e-14
1.20063e-12
1.30805e-11
1.00817e-10
5.78361e-10
2.55636e-09
8.91028e-09
2.48718e-08
5.6264e-08
1.04598e-07
1.63893e-07
2.29887e-07
3.40961e-07
7.35154e-07
2.55447e-06
2.47416e-05
2.47412e-05
2.47391e-05
2.47428e-05
2.4069e-05
3.13581e-07
3.13383e-07
3.17527e-07
3.24669e-07
5.84481e-07
3.66083e-07
4.21966e-07
6.33502e-07
1.40707e-06
2.44344e-06
4.96142e-07
4.93428e-07
5.3339e-07
5.25463e-07
6.77792e-07
1.02001e-06
1.59099e-06
1.36551e-06
2.77254e-06
2.58738e-06
5.33252e-07
3.41753e-07
2.62432e-07
1.94685e-07
1.27223e-07
6.86275e-08
2.8319e-08
1.97625e-19
4.65257e-17
2.90721e-15
8.34378e-14
1.38042e-12
1.49045e-11
1.13437e-10
6.40412e-10
2.77672e-09
9.47015e-09
2.58363e-08
5.71751e-08
1.04431e-07
1.62312e-07
2.29069e-07
3.46487e-07
7.69417e-07
2.58108e-06
2.30008e-05
2.47389e-05
2.47382e-05
2.47401e-05
1.9534e-05
3.14999e-07
3.17789e-07
3.2765e-07
3.45521e-07
3.47722e-07
3.8257e-07
4.23228e-07
5.44281e-07
6.70944e-07
5.74334e-07
6.30473e-07
3.8938e-07
3.87208e-07
3.71159e-07
3.75036e-07
4.25251e-07
5.54077e-07
5.70724e-07
7.42791e-07
9.18428e-07
5.72692e-07
4.10575e-07
3.15997e-07
2.40716e-07
1.67693e-07
9.98219e-08
4.71559e-08
1.80308e-19
4.37974e-17
2.80082e-15
8.17097e-14
1.3662e-12
1.48278e-11
1.12855e-10
6.34303e-10
2.72851e-09
9.21126e-09
2.48684e-08
5.46023e-08
9.94761e-08
1.54805e-07
2.13913e-07
2.72063e-07
3.23883e-07
3.38784e-07
6.85308e-06
2.4037e-05
2.47385e-05
1.95062e-05
2.21446e-06
3.17879e-07
3.31008e-07
3.55217e-07
3.95521e-07
4.19006e-07
4.1476e-07
4.13536e-07
4.30484e-07
4.48778e-07
4.79634e-07
4.47787e-07
3.92067e-07
3.77571e-07
3.70408e-07
3.69892e-07
3.74149e-07
3.88747e-07
3.7022e-07
1.11715e-06
1.14179e-06
7.63048e-07
2.80995e-07
2.63938e-07
2.59551e-07
2.05321e-07
1.36624e-07
7.34478e-08
1.3103e-19
3.37038e-17
2.25264e-15
6.80209e-14
1.168e-12
1.29337e-11
9.9879e-11
5.6674e-10
2.45133e-09
8.30523e-09
2.25101e-08
4.97635e-08
9.17592e-08
1.45278e-07
2.04588e-07
2.64631e-07
3.21733e-07
3.58142e-07
3.33872e-07
8.20421e-07
8.96524e-07
8.65219e-07
4.53712e-07
3.30554e-07
3.64411e-07
4.19483e-07
4.94383e-07
5.20254e-07
4.76094e-07
4.26696e-07
4.26685e-07
4.62428e-07
4.04494e-07
4.02219e-07
3.46231e-07
6.77462e-07
3.62227e-07
4.49607e-07
3.64126e-07
3.60713e-07
3.59856e-07
2.71771e-07
3.22071e-06
3.3695e-06
3.36848e-06
1.28283e-06
2.28837e-07
2.197e-07
1.67774e-07
1.03822e-07
7.52411e-20
2.11194e-17
1.51102e-15
4.8173e-14
8.6441e-13
9.92312e-12
7.89427e-11
4.59103e-10
2.02689e-09
6.98885e-09
1.92654e-08
4.33788e-08
8.16848e-08
1.32025e-07
1.86849e-07
2.30591e-07
2.44617e-07
6.3801e-07
3.12008e-07
3.22533e-07
3.25517e-07
3.40776e-07
3.33111e-07
3.601e-07
4.29371e-07
5.29083e-07
6.12651e-07
6.69088e-07
5.96569e-07
4.28959e-07
4.24823e-07
4.26242e-07
4.46991e-07
4.21867e-07
3.36763e-07
3.38897e-07
3.60344e-07
3.58298e-07
5.19341e-07
3.32547e-07
3.25514e-07
2.59858e-07
3.19108e-07
6.90832e-07
3.19829e-06
3.22094e-06
2.7067e-06
1.8046e-07
1.37977e-07
1.23247e-07
3.35472e-20
1.06426e-17
8.38618e-16
2.89004e-14
5.52987e-13
6.70051e-12
5.58329e-11
3.38296e-10
1.55008e-09
5.52925e-09
1.57418e-08
3.66169e-08
7.12896e-08
1.19192e-07
1.75072e-07
2.28651e-07
2.64794e-07
2.7974e-07
5.79127e-07
3.11122e-07
3.15499e-07
3.22822e-07
3.30968e-07
3.9637e-07
4.90155e-07
5.19182e-07
1.2189e-06
8.59326e-07
2.4578e-06
9.91327e-06
1.01487e-05
4.74672e-06
5.29084e-07
4.18916e-07
3.40081e-07
3.52631e-07
3.59792e-07
3.5532e-07
3.59916e-07
4.48787e-07
3.14396e-07
2.58714e-07
2.34199e-07
2.47084e-07
3.5585e-07
1.56716e-06
2.69539e-06
2.56357e-06
5.42928e-07
1.02651e-07
1.17516e-20
4.33365e-18
3.85953e-16
1.47095e-14
3.06426e-13
3.99594e-12
3.55257e-11
2.28184e-10
1.104e-09
4.14976e-09
1.24129e-08
3.02316e-08
6.13709e-08
1.06321e-07
1.60682e-07
2.15742e-07
2.59844e-07
2.82384e-07
2.90257e-07
3.11376e-07
3.13639e-07
3.19383e-07
6.39394e-07
3.92513e-07
5.00351e-07
5.61293e-07
5.69197e-07
4.81927e-06
3.3281e-05
4.01298e-05
4.01333e-05
3.83146e-05
1.07804e-05
3.47118e-07
3.46127e-07
3.82696e-07
4.05863e-07
3.83079e-07
4.49443e-07
7.02717e-07
4.14624e-07
3.02103e-07
2.66641e-07
2.46679e-07
2.36213e-07
2.9422e-07
3.3699e-07
2.4747e-06
1.45552e-06
1.26535e-07
3.26093e-21
1.43523e-18
1.48288e-16
6.40471e-15
1.48481e-13
2.1257e-12
2.05393e-11
1.42269e-10
7.37781e-10
2.9599e-09
9.42767e-09
2.43733e-08
5.22448e-08
9.47083e-08
1.47591e-07
2.0064e-07
2.43545e-07
2.72599e-07
2.77925e-07
3.0634e-07
3.08333e-07
3.11073e-07
3.26399e-07
3.90878e-07
4.47319e-07
4.18596e-07
1.66764e-06
2.97585e-05
4.01507e-05
4.01361e-05
4.01526e-05
4.01659e-05
3.36954e-05
5.43213e-06
3.46288e-07
4.3437e-07
5.00572e-07
4.12341e-07
5.10493e-07
1.18092e-06
5.46287e-07
3.36158e-07
3.02237e-07
2.76155e-07
2.55501e-07
2.43178e-07
2.84271e-07
2.57031e-07
1.29395e-06
3.66083e-07
7.2733e-22
3.92636e-19
4.81225e-17
2.39562e-15
6.27761e-14
1.00335e-12
1.07275e-11
8.15385e-11
4.60495e-10
1.99908e-09
6.85231e-09
1.89688e-08
4.32654e-08
8.2711e-08
1.33734e-07
1.83281e-07
2.165e-07
2.33234e-07
7.11627e-07
2.58434e-07
3.13913e-07
3.08402e-07
3.11267e-07
3.20433e-07
5.76042e-07
3.70579e-07
3.17433e-06
3.53999e-05
4.0149e-05
4.01452e-05
4.01465e-05
4.01742e-05
3.84353e-05
6.22127e-06
3.47078e-07
5.05272e-07
6.54646e-07
4.35851e-07
4.66381e-07
1.13225e-06
8.1829e-07
3.80535e-07
3.39968e-07
3.10356e-07
2.80067e-07
2.59917e-07
2.49398e-07
2.45436e-07
3.51491e-07
3.73855e-07
1.26741e-22
8.81547e-20
1.33768e-17
7.9141e-16
2.38815e-14
4.29689e-13
5.09365e-12
4.26285e-11
2.64561e-10
1.25824e-09
4.68721e-09
1.40005e-08
3.42838e-08
7.02846e-08
1.22464e-07
1.81466e-07
2.27372e-07
2.47907e-07
2.59974e-07
2.56413e-07
2.6331e-07
4.03271e-07
3.02093e-07
3.14451e-07
3.33593e-07
3.41912e-07
3.28272e-06
3.56475e-05
4.01552e-05
4.01467e-05
4.01454e-05
4.01654e-05
3.96501e-05
6.06491e-06
3.48896e-07
5.82179e-07
8.59591e-07
4.79515e-07
5.50823e-07
5.73251e-07
1.01189e-06
3.87559e-07
5.5545e-07
3.64549e-07
3.02911e-07
2.75565e-07
2.57851e-07
2.44098e-07
2.52436e-07
3.2321e-07
1.59068e-23
1.53887e-20
3.08782e-18
2.26818e-16
8.11101e-15
1.67473e-13
2.22996e-12
2.06223e-11
1.39593e-10
7.20534e-10
2.92401e-09
9.51381e-09
2.51745e-08
5.55339e-08
1.04028e-07
1.65384e-07
2.20741e-07
2.53261e-07
2.69044e-07
7.83362e-07
2.63471e-07
2.69845e-07
3.67712e-07
3.21802e-07
3.55774e-07
4.91095e-07
7.92929e-07
2.59513e-05
4.01502e-05
4.01497e-05
4.01686e-05
4.01851e-05
3.1232e-05
4.8581e-07
3.89058e-07
5.81553e-07
7.48e-07
4.87166e-07
5.56734e-07
8.12721e-07
9.60404e-07
1.64067e-06
1.70556e-06
3.51614e-07
3.36042e-07
2.71175e-07
2.6622e-07
2.46456e-07
2.27929e-07
2.10151e-07
1.4946e-24
2.2435e-21
6.58331e-19
6.3512e-17
2.7493e-15
6.5122e-14
9.59468e-13
9.59817e-12
6.94691e-11
3.83005e-10
1.66287e-09
5.81199e-09
1.67397e-08
4.02631e-08
8.2013e-08
1.42665e-07
2.07604e-07
2.52799e-07
2.74646e-07
2.89582e-07
3.14291e-07
2.72216e-07
2.8429e-07
3.14772e-07
3.37587e-07
3.69069e-07
3.82666e-07
3.23342e-06
2.71253e-05
4.01475e-05
4.01475e-05
2.95137e-05
4.59794e-06
4.11297e-07
5.04612e-07
5.3276e-07
6.492e-07
7.15055e-06
1.77716e-05
2.52538e-05
1.07626e-05
4.93078e-06
1.71649e-06
2.18138e-06
3.4292e-07
2.83613e-07
2.58246e-07
2.38053e-07
2.01572e-07
1.91562e-07
1.09416e-25
2.98195e-22
1.44318e-19
1.89835e-17
1.00201e-15
2.71572e-14
4.40434e-13
4.727e-12
3.60788e-11
2.07025e-10
9.28163e-10
3.37856e-09
1.02371e-08
2.61965e-08
5.79363e-08
1.1125e-07
1.80301e-07
2.35903e-07
2.44067e-07
3.97051e-07
2.86682e-07
2.82766e-07
2.90408e-07
3.07608e-07
3.37063e-07
3.93059e-07
4.76495e-07
4.93604e-07
9.41339e-07
3.12258e-06
4.38564e-06
1.22751e-06
3.91296e-07
4.31321e-07
6.25767e-07
1.71761e-06
1.29685e-05
3.58616e-05
4.01364e-05
4.01388e-05
4.01394e-05
1.57249e-05
2.70703e-06
3.20163e-06
7.72188e-07
2.332e-06
2.84683e-07
2.60776e-07
1.19027e-06
5.31951e-07
5.20361e-27
3.6871e-23
3.3632e-20
6.06408e-18
3.85045e-16
1.17855e-14
2.08206e-13
2.38029e-12
1.90543e-11
1.13367e-10
5.24068e-10
1.96131e-09
6.11319e-09
1.6295e-08
3.76801e-08
7.69472e-08
1.38607e-07
2.08744e-07
2.49567e-07
2.56799e-07
2.8352e-07
2.82542e-07
2.86169e-07
2.99961e-07
3.30063e-07
4.0375e-07
6.04833e-07
1.15019e-06
1.59654e-06
3.37889e-07
3.50409e-07
3.78633e-07
3.81164e-07
4.4694e-07
6.58871e-07
1.28249e-05
2.99972e-05
3.99133e-05
4.01383e-05
4.01396e-05
4.00909e-05
3.20187e-05
2.23566e-05
3.80828e-06
1.03054e-06
8.08211e-06
4.23361e-06
8.00163e-07
4.23257e-06
7.04903e-06
1.34829e-28
5.63139e-24
8.48777e-21
1.93543e-18
1.42978e-16
4.86545e-15
9.29725e-14
1.12998e-12
9.51299e-12
5.90759e-11
2.83809e-10
1.09954e-09
3.54313e-09
9.76521e-09
2.34798e-08
5.001e-08
9.54457e-08
1.5953e-07
2.22268e-07
2.59154e-07
2.79801e-07
2.80964e-07
2.81061e-07
2.81461e-07
3.23458e-07
4.17675e-07
6.10998e-07
1.50774e-06
1.88174e-06
3.2543e-07
3.39373e-07
4.07983e-07
4.92702e-07
4.54165e-07
1.4392e-06
1.51718e-05
1.23418e-05
1.0709e-05
1.93924e-05
2.34933e-05
2.1742e-05
3.49901e-05
3.46792e-05
1.36862e-05
1.37318e-06
7.04304e-06
5.5254e-05
3.98983e-06
4.65396e-06
1.20129e-05
3.58871e-30
8.89748e-25
1.98099e-21
5.61898e-19
4.80994e-17
1.81962e-15
3.76416e-14
4.8682e-13
4.31413e-12
2.80342e-11
1.40714e-10
5.6833e-10
1.90846e-09
5.47343e-09
1.3705e-08
3.04109e-08
6.08267e-08
1.09116e-07
1.70043e-07
2.25008e-07
2.60446e-07
2.7414e-07
2.64569e-07
5.17711e-07
2.94509e-07
3.41761e-07
4.85533e-07
1.08356e-06
9.30913e-07
3.3536e-07
3.37333e-07
3.76391e-07
1.66846e-06
4.05375e-06
8.31267e-06
6.92363e-06
6.89878e-06
6.8988e-06
6.90011e-06
6.90306e-06
6.92586e-06
3.02921e-05
3.94244e-05
2.29609e-05
4.48299e-05
4.83283e-05
0.000133599
2.3522e-06
2.19619e-07
1.09907e-07
1.39547e-31
1.25351e-25
4.05032e-22
1.43206e-19
1.42034e-17
5.98346e-16
1.34358e-14
1.8535e-13
1.73347e-12
1.18107e-11
6.19322e-11
2.61667e-10
9.22374e-10
2.77693e-09
7.30332e-09
1.69989e-08
3.5633e-08
6.75995e-08
1.14643e-07
1.69498e-07
2.17874e-07
2.49559e-07
2.63147e-07
2.64513e-07
2.8332e-07
3.10651e-07
3.93804e-07
8.07762e-07
4.08107e-07
3.25089e-07
3.35834e-07
4.5138e-07
4.09952e-07
1.18265e-05
1.89675e-05
8.87046e-06
6.89883e-06
6.89919e-06
6.90497e-06
6.92649e-06
7.05187e-06
4.29665e-05
6.50397e-05
6.10629e-05
0.000115911
7.64933e-05
0.000345246
0.000108486
2.41654e-06
1.56744e-07
6.29794e-33
1.48924e-26
6.97051e-23
3.08983e-20
3.57204e-18
1.68057e-16
4.09743e-15
6.03452e-14
5.9568e-13
4.26342e-12
2.34894e-11
1.04124e-10
3.85097e-10
1.22697e-09
3.42361e-09
8.48126e-09
1.88385e-08
3.78404e-08
6.89036e-08
1.11944e-07
1.60234e-07
2.03419e-07
2.34655e-07
2.54195e-07
2.71312e-07
2.9518e-07
3.52296e-07
5.51383e-07
3.65137e-07
3.26488e-07
3.48453e-07
4.04087e-07
4.02638e-07
1.06032e-05
1.89637e-05
1.89646e-05
1.39057e-05
1.38082e-05
1.75069e-05
2.3201e-05
1.1049e-05
1.56046e-05
1.86572e-05
1.9665e-05
0.000134896
8.35404e-05
0.000158097
0.0313655
0.0872816
0.262798
2.54771e-34
1.44269e-27
9.77145e-24
5.46838e-21
7.44468e-19
3.93655e-17
1.04467e-15
1.6415e-14
1.70766e-13
1.2781e-12
7.34631e-12
3.41879e-11
1.34059e-10
4.52563e-10
1.34822e-09
3.59877e-09
8.64395e-09
1.87151e-08
3.66985e-08
6.50182e-08
1.03036e-07
1.45592e-07
1.85657e-07
2.18631e-07
2.45483e-07
2.34775e-07
4.64117e-07
4.73642e-07
3.64465e-07
3.24565e-07
3.39354e-07
3.67529e-07
4.05416e-07
1.74758e-06
9.95829e-06
1.0549e-05
1.6183e-05
3.68829e-05
5.63258e-05
5.62106e-05
4.77518e-05
1.58343e-05
2.27876e-05
3.24442e-05
0.000105764
0.000158093
0.0800494
0.302937
0.671723
0.928474
8.41573e-36
1.10774e-28
1.09858e-24
7.70193e-22
1.21695e-19
7.21482e-18
2.10642e-16
3.57375e-15
3.95223e-14
3.10883e-13
1.86171e-12
8.99482e-12
3.67014e-11
1.31845e-10
4.23686e-10
1.22646e-09
3.23347e-09
7.75348e-09
1.67874e-08
3.2743e-08
5.75185e-08
9.06767e-08
1.2883e-07
1.67372e-07
2.03379e-07
2.28199e-07
2.47842e-07
2.90359e-07
3.2037e-07
3.15682e-07
3.32516e-07
3.60767e-07
3.92433e-07
4.44961e-07
4.59716e-07
4.33234e-06
2.03971e-05
2.68538e-05
2.37172e-05
5.35608e-05
5.4198e-05
1.88318e-05
5.50135e-05
8.01016e-05
0.00214817
0.178896
0.548908
0.898066
0.999225
0.999905
2.19423e-37
6.67442e-30
9.42697e-26
8.22131e-23
1.59059e-20
1.11416e-18
3.66804e-17
6.74227e-16
7.84777e-15
6.38397e-14
3.92515e-13
1.94009e-12
8.08753e-12
2.96264e-11
9.97587e-11
3.14643e-10
9.21006e-10
2.48143e-09
6.14414e-09
1.36837e-08
2.71909e-08
4.83933e-08
7.74483e-08
1.12565e-07
1.51016e-07
1.89385e-07
1.66938e-07
5.59109e-07
3.27414e-07
3.25875e-07
3.29645e-07
3.57603e-07
3.79752e-07
8.26046e-07
4.78684e-07
3.6575e-06
1.61399e-05
2.10936e-05
2.2791e-05
5.45884e-05
5.23821e-05
3.26903e-05
0.000114415
0.000139015
0.196698
0.722676
0.976368
0.999665
0.999956
0.999999
4.4735e-39
3.23929e-31
1.199e-26
3.22948e-23
1.2823e-20
1.29974e-18
4.9245e-17
8.95464e-16
9.27957e-15
6.21218e-14
2.96224e-13
1.09352e-12
3.37288e-12
9.34017e-12
2.46638e-11
6.66677e-11
1.92532e-10
5.70198e-10
1.62568e-09
4.32208e-09
1.02562e-08
2.13404e-08
3.93881e-08
6.52946e-08
9.8634e-08
1.38217e-07
1.62817e-07
1.82073e-07
4.75307e-07
3.45568e-07
3.30697e-07
3.34389e-07
9.95612e-07
1.17231e-06
5.54198e-07
5.67868e-07
1.53476e-06
2.4694e-05
2.39055e-05
3.07466e-05
5.06367e-05
0.000153095
0.00014014
0.219258
0.796742
0.999148
0.999872
0.999969
0.999997
1
1.30698e-40
8.01026e-31
1.27196e-25
3.76053e-22
1.29261e-19
1.12258e-17
3.72191e-16
6.05645e-15
5.71563e-14
3.51912e-13
1.54166e-12
5.13585e-12
1.36911e-11
3.02451e-11
5.60533e-11
8.93617e-11
1.2929e-10
1.94334e-10
3.74907e-10
9.68331e-10
2.7653e-09
7.21612e-09
1.61644e-08
3.16514e-08
5.53006e-08
8.80724e-08
1.22805e-07
1.6564e-07
2.42297e-07
4.32516e-07
3.40178e-07
3.39667e-07
5.34919e-07
5.49263e-07
3.10036e-07
1.03575e-06
2.52762e-06
6.53684e-06
8.3931e-05
5.05722e-05
0.000158595
0.00101297
0.167661
0.756206
0.999314
0.999816
0.99998
0.999997
1
1
4.3562e-39
2.06884e-29
1.96978e-24
4.16135e-21
1.12337e-18
8.13324e-17
2.34517e-15
3.42762e-14
2.98137e-13
1.72847e-12
7.26215e-12
2.35845e-11
6.22359e-11
1.37868e-10
2.58722e-10
4.16109e-10
5.82697e-10
7.21541e-10
7.99632e-10
8.25347e-10
9.73554e-10
1.92332e-09
5.04586e-09
1.21977e-08
2.56678e-08
4.78537e-08
7.80636e-08
1.11856e-07
1.60353e-07
3.56626e-07
5.45786e-07
3.5008e-07
3.53696e-07
3.12794e-07
3.07032e-07
3.24755e-06
2.09464e-05
8.4108e-06
0.000251053
0.000185685
0.000954949
0.12152
0.611736
0.991058
0.999883
0.999978
0.999996
1
1
1
2.46935e-37
4.15936e-28
2.38826e-23
3.64039e-20
7.7742e-18
4.71636e-16
1.18644e-14
1.55932e-13
1.24884e-12
6.79468e-12
2.72165e-11
8.54163e-11
2.20604e-10
4.83447e-10
9.09942e-10