/*--------------------------------*- C++ -*----------------------------------*\
| =========                 |                                                 |
| \\      /  F ield         | OpenFOAM: The Open Source CFD Toolbox           |
|  \\    /   O peration     | Version:  2.4.0                                 |
|   \\  /    A nd           | Web:      www.OpenFOAM.org                      |
|    \\/     M anipulation  |                                                 |
\*---------------------------------------------------------------------------*/
FoamFile
{
    version     2.0;
    format      ascii;
    class       surfaceScalarField;
    location    "0.216";
    object      phi;
}
// * * * * * * * * * * * * * * * * * * * * * * * * * * * * * * * * * * * * * //

dimensions      [0 3 -1 0 0 0 0];

internalField   nonuniform List<scalar> 
19800
(
3.50544e-14
-3.50543e-14
-1.99163e-13
2.34132e-13
-4.77277e-13
2.77954e-13
-6.50329e-13
1.7343e-13
-6.41147e-13
-7.84786e-15
-4.22988e-13
-2.16229e-13
-1.6184e-14
-4.04977e-13
5.45681e-13
-5.60659e-13
1.21665e-12
-6.7049e-13
1.94793e-12
-7.3129e-13
2.69064e-12
-7.42865e-13
3.39691e-12
-7.06285e-13
4.02222e-12
-6.25073e-13
4.52639e-12
-5.03725e-13
4.87625e-12
-3.49332e-13
5.04682e-12
-1.70013e-13
5.02383e-12
2.3523e-14
4.80746e-12
2.16919e-13
4.4116e-12
3.96431e-13
3.85635e-12
5.55797e-13
3.17083e-12
6.85895e-13
2.38758e-12
7.83285e-13
1.53858e-12
8.48621e-13
6.51986e-13
8.85866e-13
-2.49441e-13
9.00592e-13
-1.14777e-12
8.97687e-13
-2.02742e-12
8.79423e-13
-2.87165e-12
8.44421e-13
-3.66011e-12
7.88931e-13
-4.3692e-12
7.09673e-13
-4.9779e-12
6.0932e-13
-5.47747e-12
5.00269e-13
-5.87958e-12
4.02899e-13
-6.21587e-12
3.36962e-13
-6.5291e-12
3.13423e-13
-6.86414e-12
3.34415e-13
-7.26516e-12
3.9964e-13
-7.77751e-12
5.10747e-13
-8.45082e-12
6.72202e-13
-9.34052e-12
8.89457e-13
-1.05065e-11
1.16628e-12
-1.20089e-11
1.5027e-12
-1.39036e-11
1.8943e-12
-1.6237e-11
2.33254e-12
-1.9043e-11
2.80553e-12
-2.23413e-11
3.29883e-12
-2.61363e-11
3.79631e-12
-3.04168e-11
4.28127e-12
-3.5155e-11
4.73773e-12
5.15148e-12
-4.03082e-11
-2.03319e-13
1.66934e-13
-7.77241e-13
8.07747e-13
-1.33547e-12
8.37844e-13
-1.61067e-12
4.51466e-13
-1.4453e-12
-1.69984e-13
-7.92164e-13
-8.66514e-13
3.20431e-13
-1.51567e-12
1.80675e-12
-2.04611e-12
3.55807e-12
-2.42163e-12
5.45364e-12
-2.62687e-12
7.36881e-12
-2.6578e-12
9.18041e-12
-2.51726e-12
1.07705e-11
-2.21424e-12
1.20322e-11
-1.76431e-12
1.28752e-11
-1.19116e-12
1.32326e-11
-5.26198e-13
1.30661e-11
1.91131e-13
1.23683e-11
9.15863e-13
1.11606e-11
1.60507e-12
9.49502e-12
2.22195e-12
7.44123e-12
2.73961e-12
5.07889e-12
3.14492e-12
2.4878e-12
3.43855e-12
-2.59776e-13
3.63224e-12
-3.10325e-12
3.74326e-12
-5.99342e-12
3.78771e-12
-8.88707e-12
3.77358e-12
-1.17391e-11
3.69732e-12
-1.44962e-11
3.54714e-12
-1.70989e-11
3.31339e-12
-1.9494e-11
3.0055e-12
-2.16578e-11
2.66526e-12
-2.36154e-11
2.36145e-12
-2.54397e-11
2.16135e-12
-2.72312e-11
2.10376e-12
-2.90975e-11
2.19847e-12
-3.11472e-11
2.44687e-12
-3.34944e-11
2.85617e-12
-3.62644e-11
3.44183e-12
-3.95962e-11
4.22174e-12
-4.36373e-11
5.20781e-12
-4.85346e-11
6.39948e-12
-5.44222e-11
7.78071e-12
-6.14106e-11
9.32029e-12
-6.95789e-11
1.09744e-11
-7.89686e-11
1.26901e-11
-8.95812e-11
1.44099e-11
-1.01377e-10
1.60756e-11
-1.14273e-10
1.76319e-11
1.90286e-11
-1.28153e-10
-2.409e-13
4.07674e-13
-8.00683e-13
1.36783e-12
-1.20358e-12
1.24246e-12
-1.13742e-12
3.87919e-13
-4.22832e-13
-8.81884e-13
9.90692e-13
-2.27794e-12
3.05287e-12
-3.57656e-12
5.64761e-12
-4.64018e-12
8.62024e-12
-5.39383e-12
1.17963e-11
-5.80232e-12
1.49922e-11
-5.85287e-12
1.80232e-11
-5.5472e-12
2.07105e-11
-4.90021e-12
2.28893e-11
-3.94163e-12
2.44183e-11
-2.71869e-12
2.51907e-11
-1.29701e-12
2.51419e-11
2.4141e-13
2.42546e-11
1.80435e-12
2.25597e-11
3.30064e-12
2.01315e-11
4.65041e-12
1.70743e-11
5.7965e-12
1.35084e-11
6.7103e-12
9.55419e-12
7.39207e-12
5.31997e-12
7.86601e-12
8.93814e-13
8.16939e-12
-3.65572e-12
8.33764e-12
-8.27124e-12
8.38975e-12
-1.28937e-11
8.32053e-12
-1.74506e-11
8.10468e-12
-2.1854e-11
7.71747e-12
-2.60199e-11
7.17225e-12
-2.99069e-11
6.55316e-12
-3.35517e-11
6.00682e-12
-3.70674e-11
5.6768e-12
-4.06059e-11
5.64095e-12
-4.43218e-11
5.91238e-12
-4.83668e-11
6.4902e-12
-5.29011e-11
7.38986e-12
-5.81049e-11
8.64609e-12
-6.41805e-11
1.02982e-11
-7.13447e-11
1.23721e-11
-7.98123e-11
1.48661e-11
-8.97784e-11
1.77454e-11
-1.01402e-10
2.09431e-11
-1.14792e-10
2.43656e-11
-1.30003e-10
2.79015e-11
-1.47023e-10
3.14304e-11
-1.6578e-10
3.48315e-11
-1.86141e-10
3.79901e-11
4.08014e-11
-2.07915e-10
-1.36834e-13
5.44964e-13
-4.03525e-13
1.63567e-12
-3.17574e-13
1.15829e-12
4.31121e-13
-3.58619e-13
2.01345e-12
-2.46221e-12
4.46624e-12
-4.7292e-12
7.7191e-12
-6.82834e-12
1.16279e-11
-8.54807e-12
1.60038e-11
-9.76874e-12
2.06311e-11
-1.04284e-11
2.52789e-11
-1.04992e-11
2.971e-11
-9.97677e-12
3.36907e-11
-8.87912e-12
3.70014e-11
-7.25043e-12
3.94506e-11
-5.16598e-12
4.08899e-11
-2.73441e-12
4.12268e-11
-9.40343e-14
4.04346e-11
2.59741e-12
3.85541e-11
5.1815e-12
3.56854e-11
7.51902e-12
3.19718e-11
9.50989e-12
2.75777e-11
1.11042e-11
2.26665e-11
1.23033e-11
1.73807e-11
1.3152e-11
1.18293e-11
1.37213e-11
6.08631e-12
1.40811e-11
2.03421e-13
1.42731e-11
-5.76719e-12
1.42915e-11
-1.1749e-11
1.40867e-11
-1.76296e-11
1.35984e-11
-2.32846e-11
1.28276e-11
-2.86426e-11
1.19117e-11
-3.37547e-11
1.11191e-11
-3.87908e-11
1.07124e-11
-4.39649e-11
1.08138e-11
-4.94701e-11
1.14161e-11
-5.54809e-11
1.25001e-11
-6.21821e-11
1.40912e-11
-6.97915e-11
1.62565e-11
-7.85645e-11
1.90719e-11
-8.87794e-11
2.25866e-11
-1.00714e-10
2.67992e-11
-1.14619e-10
3.16492e-11
-1.30697e-10
3.70198e-11
-1.4908e-10
4.275e-11
-1.69828e-10
4.86496e-11
-1.92913e-10
5.4515e-11
-2.18226e-10
6.0143e-11
-2.45578e-10
6.53411e-11
6.99339e-11
-2.74711e-10
5.61647e-14
4.89426e-13
2.66427e-13
1.42694e-12
1.05903e-12
3.67336e-13
2.71605e-12
-2.01404e-12
5.3815e-12
-5.12631e-12
9.06925e-12
-8.41582e-12
1.36874e-11
-1.14453e-11
1.90694e-11
-1.39288e-11
2.49995e-11
-1.56974e-11
3.12289e-11
-1.66561e-11
3.7486e-11
-1.67544e-11
4.34855e-11
-1.59744e-11
4.89393e-11
-1.43309e-11
5.35707e-11
-1.18797e-11
5.71327e-11
-8.72592e-12
5.94296e-11
-5.02954e-12
6.03374e-11
-1.00082e-12
5.98192e-11
3.11605e-12
5.79301e-11
7.07054e-12
5.4807e-11
1.06419e-11
5.06454e-11
1.36714e-11
4.56685e-11
1.60814e-11
4.00945e-11
1.78776e-11
3.41071e-11
1.91398e-11
2.78334e-11
1.99952e-11
2.13399e-11
2.05749e-11
1.46494e-11
2.09636e-11
7.77865e-12
2.11619e-11
7.84427e-13
2.10805e-11
-6.19809e-12
2.05806e-11
-1.29782e-11
1.96076e-11
-1.94256e-11
1.83591e-11
-2.56107e-11
1.73042e-11
-3.17992e-11
1.69001e-11
-3.82972e-11
1.73107e-11
-4.53277e-11
1.84454e-11
-5.30605e-11
2.02325e-11
-6.16802e-11
2.27116e-11
-7.14299e-11
2.60072e-11
-8.26155e-11
3.02578e-11
-9.55818e-11
3.55519e-11
-1.10676e-10
4.18914e-11
-1.28209e-10
4.9181e-11
-1.48427e-10
5.72377e-11
-1.71489e-10
6.58121e-11
-1.97452e-10
7.46133e-11
-2.26271e-10
8.3333e-11
-2.57794e-10
9.16658e-11
-2.91778e-10
9.93237e-11
1.06046e-10
-3.27889e-10
2.88494e-13
2.01592e-13
1.05294e-12
6.63888e-13
2.65479e-12
-1.23326e-12
5.32407e-12
-4.6823e-12
9.16972e-12
-8.9711e-12
1.41804e-11
-1.34256e-11
2.02447e-11
-1.75085e-11
2.71782e-11
-2.08608e-11
3.47442e-11
-2.32617e-11
4.26661e-11
-2.45762e-11
5.06352e-11
-2.47218e-11
5.83184e-11
-2.36558e-11
6.53694e-11
-2.13799e-11
7.1446e-11
-1.79543e-11
7.62349e-11
-1.3513e-11
7.94815e-11
-8.27495e-12
8.10217e-11
-2.54046e-12
8.08066e-11
3.3311e-12
7.89133e-11
8.96354e-12
7.55328e-11
1.40222e-11
7.09365e-11
1.82677e-11
6.54314e-11
2.15868e-11
5.9315e-11
2.39941e-11
5.28299e-11
2.56251e-11
4.61258e-11
2.66993e-11
3.9248e-11
2.74523e-11
3.21604e-11
2.80506e-11
2.48022e-11
2.85191e-11
1.71721e-11
2.87095e-11
9.42421e-12
2.83276e-11
1.86459e-12
2.71667e-11
-5.25342e-12
2.54768e-11
-1.20249e-11
2.40753e-11
-1.88889e-11
2.37632e-11
-2.63039e-11
2.47243e-11
-3.45007e-11
2.6641e-11
-4.35961e-11
2.93275e-11
-5.37406e-11
3.28565e-11
-6.51933e-11
3.74606e-11
-7.83204e-11
4.33848e-11
-9.35506e-11
5.07809e-11
-1.11317e-10
5.96566e-11
-1.32006e-10
6.98688e-11
-1.55914e-10
8.11461e-11
-1.83226e-10
9.31249e-11
-2.14001e-10
1.05388e-10
-2.48167e-10
1.17498e-10
-2.8553e-10
1.29028e-10
-3.25782e-10
1.39576e-10
1.48783e-10
-3.68519e-10
5.11946e-13
-3.09725e-13
1.83799e-12
-6.61205e-13
4.25212e-12
-3.64666e-12
7.93218e-12
-8.36189e-12
1.29516e-11
-1.39901e-11
1.92761e-11
-1.97495e-11
2.6779e-11
-2.50103e-11
3.52633e-11
-2.93438e-11
4.44772e-11
-3.24741e-11
5.4121e-11
-3.42185e-11
6.38507e-11
-3.445e-11
7.32829e-11
-3.30865e-11
8.20054e-11
-3.01008e-11
8.95973e-11
-2.55445e-11
9.56606e-11
-1.95751e-11
9.9863e-11
-1.24766e-11
1.01984e-10
-4.66148e-12
1.01958e-10
3.35726e-12
9.98926e-11
1.10284e-11
9.60585e-11
1.78561e-11
9.08377e-11
2.34882e-11
8.46589e-11
2.77653e-11
7.7938e-11
3.07146e-11
7.10083e-11
3.25543e-11
6.40572e-11
3.36498e-11
5.70981e-11
3.44106e-11
4.99961e-11
3.51514e-11
4.25493e-11
3.59643e-11
3.46219e-11
3.66354e-11
2.63649e-11
3.65834e-11
1.82927e-11
3.52384e-11
1.09237e-11
3.28455e-11
4.13289e-12
3.08653e-11
-2.8514e-12
3.0746e-11
-1.07513e-11
3.26224e-11
-1.97418e-11
3.56301e-11
-2.97933e-11
3.93785e-11
-4.09743e-11
4.40378e-11
-5.3561e-11
5.00477e-11
-6.80072e-11
5.78305e-11
-8.4859e-11
6.76318e-11
-1.04666e-10
7.94624e-11
-1.27906e-10
9.31095e-11
-1.54941e-10
1.08182e-10
-1.85984e-10
1.24168e-10
-2.21091e-10
1.40494e-10
-2.60162e-10
1.56568e-10
-3.02954e-10
1.71819e-10
-3.49093e-10
1.85715e-10
1.97783e-10
-3.98093e-10
7.13367e-13
-1.02259e-12
2.54778e-12
-2.4952e-12
5.70584e-12
-6.80457e-12
1.03173e-11
-1.29734e-11
1.6425e-11
-2.00979e-11
2.39774e-11
-2.73017e-11
3.28396e-11
-3.38719e-11
4.28094e-11
-3.93126e-11
5.36263e-11
-4.32899e-11
6.49729e-11
-4.55641e-11
7.6472e-11
-4.59481e-11
8.76867e-11
-4.43001e-11
9.81286e-11
-4.05415e-11
1.0728e-10
-3.46944e-11
1.14632e-10
-2.69264e-11
1.19745e-10
-1.7589e-11
1.22316e-10
-7.23224e-12
1.22247e-10
3.42567e-12
1.1969e-10
1.35858e-11
1.15026e-10
2.25192e-11
1.08798e-10
2.97155e-11
1.01606e-10
3.4956e-11
9.40432e-11
3.82769e-11
8.65851e-11
4.00116e-11
7.94879e-11
4.07462e-11
7.27285e-11
4.11688e-11
6.60272e-11
4.18512e-11
5.89475e-11
4.30422e-11
5.10742e-11
4.45073e-11
4.24749e-11
4.51819e-11
3.4021e-11
4.36919e-11
2.67964e-11
4.00696e-11
2.06618e-11
3.69988e-11
1.41916e-11
3.72141e-11
6.19127e-12
4.06204e-11
-3.28635e-12
4.5106e-11
-1.389e-11
4.99816e-11
-2.55489e-11
5.5697e-11
-3.8584e-11
6.3083e-11
-5.35939e-11
7.28402e-11
-7.12982e-11
8.53355e-11
-9.24023e-11
1.00567e-10
-1.17504e-10
1.18211e-10
-1.47035e-10
1.37714e-10
-1.81239e-10
1.58372e-10
-2.20167e-10
1.7942e-10
-2.63683e-10
2.00083e-10
-3.11487e-10
2.19622e-10
-3.63133e-10
2.37361e-10
2.527e-10
-4.18049e-10
8.7943e-13
-1.90176e-12
3.13738e-12
-4.75325e-12
6.92347e-12
-1.0591e-11
1.23305e-11
-1.83809e-11
1.93802e-11
-2.71481e-11
2.80133e-11
-3.59349e-11
3.80956e-11
-4.39539e-11
4.9429e-11
-5.06454e-11
6.17539e-11
-5.56141e-11
7.47425e-11
-5.85519e-11
8.79884e-11
-5.91934e-11
1.01e-10
-5.73107e-11
1.13202e-10
-5.27426e-11
1.23958e-10
-4.54494e-11
1.32615e-10
-3.55831e-11
1.38583e-10
-2.35558e-11
1.41431e-10
-1.008e-11
1.41004e-10
3.85303e-12
1.37501e-10
1.70884e-11
1.31465e-10
2.85543e-11
1.23662e-10
3.75166e-11
1.14929e-10
4.36889e-11
1.06111e-10
4.70941e-11
9.79108e-11
4.82107e-11
9.07083e-11
4.79478e-11
8.44523e-11
4.74234e-11
7.86781e-11
4.76239e-11
7.25952e-11
4.91236e-11
6.52485e-11
5.18532e-11
5.63983e-11
5.40319e-11
4.74638e-11
5.26262e-11
4.07179e-11
4.68148e-11
3.60876e-11
4.16274e-11
3.08529e-11
4.24464e-11
2.29679e-11
4.85033e-11
1.31543e-11
5.49183e-11
2.38297e-12
6.07527e-11
-9.10562e-12
6.71859e-11
-2.17667e-11
7.57443e-11
-3.64493e-11
8.75227e-11
-5.41254e-11
1.03012e-10
-7.57054e-11
1.22147e-10
-1.01927e-10
1.44433e-10
-1.333e-10
1.69087e-10
-1.70093e-10
1.95164e-10
-2.12339e-10
2.21664e-10
-2.59859e-10
2.47601e-10
-3.12286e-10
2.72049e-10
-3.69095e-10
2.94171e-10
3.13231e-10
-4.29626e-10
1.00176e-12
-2.90355e-12
3.57687e-12
-7.32883e-12
7.84027e-12
-1.48551e-11
1.38625e-11
-2.4404e-11
2.16568e-11
-3.49431e-11
3.11674e-11
-4.54459e-11
4.22727e-11
-5.5059e-11
5.47905e-11
-6.31626e-11
6.84737e-11
-6.92967e-11
8.29956e-11
-7.30732e-11
9.793e-11
-7.41272e-11
1.12733e-10
-7.21133e-11
1.26737e-10
-6.6746e-11
1.39165e-10
-5.78763e-11
1.4918e-10
-4.55964e-11
1.55977e-10
-3.03525e-11
1.58933e-10
-1.30354e-11
1.57778e-10
5.00794e-12
1.52763e-10
2.21034e-11
1.44654e-10
3.66618e-11
1.34535e-10
4.76346e-11
1.23534e-10
5.46896e-11
1.12862e-10
5.77654e-11
1.03571e-10
5.75011e-11
9.62498e-11
5.52684e-11
9.08452e-11
5.28269e-11
8.67058e-11
5.17622e-11
8.2602e-11
5.32267e-11
7.6573e-11
5.78821e-11
6.75803e-11
6.30247e-11
5.77155e-11
6.24908e-11
5.16275e-11
5.29017e-11
4.95328e-11
4.37203e-11
4.63341e-11
4.56432e-11
3.84014e-11
5.64345e-11
2.81616e-11
6.51577e-11
1.76379e-11
7.12766e-11
7.15004e-12
7.76741e-11
-4.11535e-12
8.70099e-11
-1.74231e-11
1.00831e-10
-3.40916e-11
1.19681e-10
-5.52768e-11
1.43333e-10
-8.18664e-11
1.71023e-10
-1.14442e-10
2.01661e-10
-1.53281e-10
2.34001e-10
-1.98385e-10
2.66766e-10
-2.49515e-10
2.98731e-10
-3.06229e-10
3.28764e-10
-3.67914e-10
3.55857e-10
3.79132e-10
-4.33816e-10
1.07438e-12
-3.9782e-12
3.84192e-12
-1.0097e-11
8.40202e-12
-1.9416e-11
1.4819e-11
-3.08218e-11
2.31112e-11
-4.32359e-11
3.32394e-11
-5.55742e-11
4.5107e-11
-6.69261e-11
5.85616e-11
-7.66165e-11
7.3384e-11
-8.41183e-11
8.92648e-11
-8.89535e-11
1.05774e-10
-9.06358e-11
1.22328e-10
-8.86671e-11
1.38169e-10
-8.25867e-11
1.52366e-10
-7.20715e-11
1.63852e-10
-5.70811e-11
1.71536e-10
-3.80355e-11
1.74491e-10
-1.59902e-11
1.72232e-10
7.26646e-12
1.65043e-10
2.92919e-11
1.54013e-10
4.76904e-11
1.40676e-10
6.09718e-11
1.26479e-10
6.88865e-11
1.13145e-10
7.1099e-11
1.02258e-10
6.83877e-11
9.47363e-11
6.27894e-11
9.05421e-11
5.70203e-11
8.88747e-11
5.34291e-11
8.82997e-11
5.38018e-11
8.52086e-11
6.09734e-11
7.63824e-11
7.1851e-11
6.47337e-11
7.41389e-11
5.91765e-11
5.84577e-11
6.05362e-11
4.23593e-11
6.01757e-11
4.60028e-11
5.12824e-11
6.53276e-11
4.02675e-11
7.61728e-11
3.06701e-11
8.08744e-11
2.24025e-11
8.5942e-11
1.38463e-11
9.55664e-11
3.12264e-12
1.11555e-10
-1.14925e-11
1.34297e-10
-3.14082e-11
1.63249e-10
-5.76481e-11
1.97262e-10
-9.08397e-11
2.34851e-10
-1.31245e-10
2.74404e-10
-1.78809e-10
3.1433e-10
-2.33218e-10
3.5314e-10
-2.93942e-10
3.89488e-10
-3.60275e-10
4.22191e-10
4.50222e-10
-4.31366e-10
1.09131e-12
-5.06985e-12
3.90901e-12
-1.29152e-11
8.55666e-12
-2.40643e-11
1.51084e-11
-3.7374e-11
2.36014e-11
-5.1729e-11
3.40251e-11
-6.59974e-11
4.6321e-11
-7.92211e-11
6.03806e-11
-9.0675e-11
7.60299e-11
-9.97668e-11
9.29985e-11
-1.05922e-10
1.10877e-10
-1.08514e-10
1.29068e-10
-1.06858e-10
1.46745e-10
-1.00263e-10
1.62823e-10
-8.81483e-11
1.75978e-10
-7.02347e-11
1.84742e-10
-4.67988e-11
1.87732e-10
-1.89804e-11
1.84055e-10
1.09423e-11
1.73964e-10
3.93818e-11
1.59028e-10
6.26259e-11
1.41459e-10
7.85409e-11
1.22931e-10
8.74148e-11
1.05887e-10
8.81436e-11
9.27213e-11
8.15526e-11
8.48335e-11
7.06765e-11
8.21625e-11
5.9691e-11
8.36606e-11
5.19309e-11
8.82782e-11
4.91843e-11
9.19307e-11
5.73209e-11
8.53467e-11
7.84346e-11
6.98142e-11
8.96707e-11
6.3846e-11
6.44254e-11
6.93336e-11
3.68716e-11
7.15365e-11
4.38002e-11
5.93212e-11
7.75434e-11
4.73919e-11
8.81026e-11
4.04877e-11
8.77789e-11
3.64066e-11
9.00233e-11
3.21742e-11
9.97992e-11
2.53186e-11
1.18411e-10
1.37773e-11
1.45839e-10
-4.06622e-12
1.81092e-10
-2.93289e-11
2.22524e-10
-6.26439e-11
2.68164e-10
-1.04221e-10
3.15981e-10
-1.53925e-10
3.64034e-10
-2.11346e-10
4.10561e-10
-2.75858e-10
4.54e-10
-3.46661e-10
4.92994e-10
5.26372e-10
-4.22812e-10
1.0463e-12
-6.11639e-12
3.75473e-12
-1.5624e-11
8.25314e-12
-2.8563e-11
1.46409e-11
-4.37618e-11
2.29858e-11
-6.00735e-11
3.33165e-11
-7.63271e-11
4.56229e-11
-9.15261e-11
5.98533e-11
-1.04904e-10
7.58962e-11
-1.15809e-10
9.35444e-11
-1.2357e-10
1.12442e-10
-1.27412e-10
1.32022e-10
-1.26438e-10
1.51432e-10
-1.19673e-10
1.69475e-10
-1.0619e-10
1.84571e-10
-8.53308e-11
1.94806e-10
-5.70341e-11
1.98137e-10
-2.23122e-11
1.92916e-10
1.61623e-11
1.79179e-10
5.31174e-11
1.59212e-10
8.25931e-11
1.36387e-10
1.01366e-10
1.12175e-10
1.11626e-10
9.01174e-11
1.10201e-10
7.38625e-11
9.78069e-11
6.54224e-11
7.9116e-11
6.43655e-11
6.07474e-11
6.95694e-11
4.67267e-11
7.97287e-11
3.90245e-11
9.33909e-11
4.3658e-11
1.00187e-10
7.16383e-11
8.23041e-11
1.07553e-10
6.60569e-11
8.06729e-11
7.50755e-11
2.78538e-11
7.35551e-11
4.53216e-11
5.49204e-11
9.61789e-11
4.65099e-11
9.65135e-11
4.73452e-11
8.69437e-11
5.01796e-11
8.71891e-11
5.17793e-11
9.81999e-11
4.98175e-11
1.20373e-10
4.21339e-11
1.53522e-10
2.69777e-11
1.96248e-10
3.16743e-12
2.46333e-10
-2.99046e-11
3.01236e-10
-7.23626e-11
3.58439e-10
-1.2396e-10
4.15633e-10
-1.84178e-10
4.70779e-10
-2.52292e-10
5.22113e-10
-3.27417e-10
5.68117e-10
6.07481e-10
-4.08526e-10
9.3345e-13
-7.04987e-12
3.3579e-12
-1.80486e-11
7.44586e-12
-3.2651e-11
1.33355e-11
-4.96512e-11
2.11346e-11
-6.78717e-11
3.09172e-11
-8.61085e-11
4.27273e-11
-1.03335e-10
5.65779e-11
-1.18754e-10
7.24333e-11
-1.31665e-10
9.01719e-11
-1.41309e-10
1.09529e-10
-1.4677e-10
1.30022e-10
-1.46931e-10
1.50855e-10
-1.40505e-10
1.70808e-10
-1.26143e-10
1.8813e-10
-1.02654e-10
2.00464e-10
-6.9369e-11
2.04898e-10
-2.67475e-11
1.9842e-10
2.26384e-11
1.80364e-10
7.11738e-11
1.54039e-10
1.08918e-10
1.25078e-10
1.30327e-10
9.35875e-11
1.43116e-10
6.50542e-11
1.38734e-10
4.50355e-11
1.17825e-10
3.61032e-11
8.80475e-11
3.64312e-11
6.04186e-11
4.44525e-11
3.87045e-11
5.86944e-11
2.47816e-11
7.96092e-11
2.27422e-11
1.06961e-10
4.42864e-11
1.21117e-10
9.33966e-11
1.06739e-10
9.50516e-11
4.16104e-11
9.29838e-11
4.35804e-11
4.33525e-11
3.54532e-11
1.04307e-10
4.58552e-11
8.61116e-11
5.79431e-11
7.48559e-11
6.75013e-11
7.7631e-11
7.46437e-11
9.10577e-11
7.76383e-11
1.17379e-10
7.40831e-11
1.57077e-10
6.19306e-11
2.08399e-10
3.98583e-11
2.68405e-10
7.26632e-12
3.33828e-10
-3.58686e-11
4.01575e-10
-8.91676e-11
4.68932e-10
-1.51991e-10
5.33601e-10
-2.23523e-10
5.93644e-10
-3.02812e-10
6.47405e-10
6.93446e-10
-3.88777e-10
7.48387e-13
-7.7982e-12
2.70368e-12
-2.00043e-11
6.10274e-12
-3.60503e-11
1.11341e-11
-5.46823e-11
1.79504e-11
-7.46871e-11
2.6672e-11
-9.4829e-11
3.73956e-11
-1.14058e-10
5.01979e-11
-1.31557e-10
6.51219e-11
-1.4659e-10
8.21444e-11
-1.58333e-10
1.01123e-10
-1.65749e-10
1.2172e-10
-1.67528e-10
1.43298e-10
-1.62083e-10
1.64773e-10
-1.47618e-10
1.84421e-10
-1.22304e-10
1.99645e-10
-8.4595e-11
2.06641e-10
-3.37453e-11
2.00053e-10
2.92253e-11
1.77324e-10
9.39025e-11
1.42906e-10
1.43336e-10
1.07142e-10
1.66091e-10
6.63651e-11
1.83892e-10
3.00596e-11
1.75038e-10
6.56273e-12
1.4132e-10
-1.86683e-12
9.64758e-11
3.41058e-13
5.82095e-11
8.48513e-12
3.05592e-11
2.03393e-11
1.29264e-11
3.79044e-11
5.17662e-12
6.39112e-11
1.82796e-11
6.12249e-11
9.60834e-11
7.46048e-11
8.16725e-11
8.14656e-11
8.61237e-11
6.87103e-11
5.61081e-11
4.99978e-11
1.23019e-10
7.1518e-11
6.45912e-11
8.08742e-11
6.54996e-11
9.08148e-11
6.76905e-11
1.01236e-10
8.06362e-11
1.0873e-10
1.09885e-10
1.09449e-10
1.56357e-10
1.00567e-10
2.17282e-10
8.0452e-11
2.8852e-10
4.85115e-11
3.6577e-10
4.86446e-12
4.45223e-10
-4.99458e-11
5.23742e-10
-1.15151e-10
5.98805e-10
-1.89864e-10
6.68354e-10
-2.731e-10
7.30641e-10
7.84116e-10
-3.63769e-10
4.93404e-13
-8.29174e-12
1.78873e-12
-2.13008e-11
4.21504e-12
-3.84774e-11
8.01781e-12
-5.84851e-11
1.33944e-11
-8.0063e-11
2.0506e-11
-1.0194e-10
2.9492e-11
-1.23044e-10
4.04793e-11
-1.42545e-10
5.35765e-11
-1.59688e-10
6.88512e-11
-1.73609e-10
8.6291e-11
-1.83189e-10
1.05745e-10
-1.86982e-10
1.26834e-10
-1.83171e-10
1.48801e-10
-1.69586e-10
1.70269e-10
-1.43773e-10
1.88879e-10
-1.03206e-10
2.00683e-10
-4.55516e-11
1.97059e-10
3.28484e-11
1.7029e-10
1.20671e-10
1.2525e-10
1.88375e-10
8.15684e-11
2.09772e-10
2.88183e-11
2.36642e-10
-1.58378e-11
2.19693e-10
-4.07774e-11
1.66259e-10
-4.33376e-11
9.90348e-11
-3.77101e-11
5.2581e-11
-2.86333e-11
2.14817e-11
-1.88882e-11
3.18105e-12
-1.07688e-11
-2.94276e-12
-8.41412e-12
1.59253e-11
6.67089e-11
2.09607e-11
5.1075e-11
9.73067e-11
3.41024e-11
1.03096e-10
3.20592e-12
8.70045e-11
9.88732e-11
2.73516e-11
9.11549e-11
7.23092e-11
9.80751e-11
5.85792e-11
1.10642e-10
5.51232e-11
1.26556e-10
6.47224e-11
1.40365e-10
9.60768e-11
1.46679e-10
1.50043e-10
1.41883e-10
2.22077e-10
1.24155e-10
3.06249e-10
9.30932e-11
3.96832e-10
4.91302e-11
4.89186e-10
-6.93348e-12
5.79805e-10
-7.41891e-11
6.66059e-10
-1.51713e-10
7.45877e-10
-2.38551e-10
8.17481e-10
8.79232e-10
-3.33666e-10
1.62064e-13
-8.4544e-12
6.22854e-13
-2.17634e-11
1.80668e-12
-3.96624e-11
4.02373e-12
-6.07023e-11
7.51329e-12
-8.35521e-11
1.24667e-11
-1.06893e-10
1.90465e-11
-1.29624e-10
2.74041e-11
-1.50903e-10
3.76808e-11
-1.69966e-10
4.9998e-11
-1.85926e-10
6.44394e-11
-1.9763e-10
8.10266e-11
-2.03568e-10
9.96787e-11
-2.01822e-10
1.20122e-10
-1.90029e-10
1.41653e-10
-1.65305e-10
1.62653e-10
-1.24207e-10
1.80458e-10
-6.33584e-11
1.87078e-10
2.6228e-11
1.60633e-10
1.47115e-10
9.79798e-11
2.51028e-10
4.88734e-11
2.58878e-10
-2.51044e-11
3.10619e-10
-7.62408e-11
2.70829e-10
-9.19515e-11
1.81969e-10
-7.97954e-11
8.68781e-11
-6.93265e-11
4.21121e-11
-5.39593e-11
6.11501e-12
-3.87692e-11
-1.20084e-11
-2.75285e-11
-1.4183e-11
-9.52331e-12
-2.07978e-12
-1.28491e-11
2.42864e-11
1.35613e-11
7.0896e-11
2.5467e-11
9.11904e-11
1.49985e-11
9.74726e-11
2.34474e-11
1.89021e-11
6.64021e-11
2.9354e-11
9.20154e-11
3.29659e-11
1.17662e-10
2.94773e-11
1.45867e-10
3.65177e-11
1.70159e-10
7.17848e-11
1.84405e-10
1.35797e-10
1.84826e-10
2.21656e-10
1.69923e-10
3.21152e-10
1.39924e-10
4.26832e-10
9.58671e-11
5.33242e-10
3.89332e-11
6.36738e-10
-2.98389e-11
7.34831e-10
-1.09571e-10
8.2561e-10
-1.99445e-10
9.07357e-10
9.78357e-10
-2.98569e-10
-2.31938e-13
-8.22362e-12
-7.61726e-13
-2.12358e-11
-1.05777e-12
-3.93675e-11
-7.42578e-13
-6.10175e-11
4.60533e-13
-8.47545e-11
2.75645e-12
-1.09188e-10
6.30963e-12
-1.33177e-10
1.12599e-11
-1.55854e-10
1.77314e-11
-1.76438e-10
2.5832e-11
-1.94026e-10
3.5656e-11
-2.07453e-10
4.72986e-11
-2.15209e-10
6.08866e-11
-2.15409e-10
7.66107e-11
-2.05753e-10
9.4658e-11
-1.83353e-10
1.1462e-10
-1.4417e-10
1.35094e-10
-8.38338e-11
1.50985e-10
1.03371e-11
1.48607e-10
1.49494e-10
6.28964e-11
3.36739e-10
-4.72367e-12
3.26499e-10
-1.05644e-10
4.1154e-10
-1.46895e-10
3.1208e-10
-1.32445e-10
1.67518e-10
-1.15756e-10
7.01895e-11
-8.93796e-11
1.57375e-11
-6.65108e-11
-1.67523e-11
-4.37582e-11
-3.47599e-11
-2.4534e-11
-3.34069e-11
-9.02362e-12
-1.75905e-11
6.94812e-12
8.31411e-12
2.98962e-11
4.79475e-11
3.25339e-11
8.85522e-11
5.33538e-11
7.6652e-11
5.18699e-11
2.03854e-11
6.29716e-11
1.82519e-11
9.04611e-11
5.4768e-12
1.24096e-10
-4.15711e-12
1.63899e-10
-3.28459e-12
2.00067e-10
3.56169e-11
2.23164e-10
1.127e-10
2.28959e-10
2.15859e-10
2.16623e-10
3.33487e-10
1.87514e-10
4.55942e-10
1.4356e-10
5.77196e-10
8.63529e-11
6.93945e-10
1.69421e-11
8.04241e-10
-6.40222e-11
9.06576e-10
-1.56027e-10
9.99363e-10
1.08079e-09
-2.58461e-10
-6.66763e-13
-7.55833e-12
-2.31366e-12
-1.95907e-11
-4.27575e-12
-3.74059e-11
-6.10805e-12
-5.91845e-11
-7.50452e-12
-8.33566e-11
-8.25607e-12
-1.08435e-10
-8.22187e-12
-1.3321e-10
-7.30733e-12
-1.56768e-10
-5.45862e-12
-1.78285e-10
-2.66288e-12
-1.9682e-10
1.06067e-12
-2.11174e-10
5.70052e-12
-2.19846e-10
1.13582e-11
-2.21064e-10
1.84217e-11
-2.12815e-10
2.77839e-11
-1.92716e-10
4.09932e-11
-1.5738e-10
5.84518e-11
-1.01293e-10
8.15941e-11
-1.2805e-11
9.38967e-11
1.37192e-10
3.6752e-11
3.93885e-10
-1.32871e-10
4.96122e-10
-2.19259e-10
4.97928e-10
-1.73112e-10
2.65934e-10
-1.35989e-10
1.30396e-10
-1.09103e-10
4.33055e-11
-8.50579e-11
-8.3053e-12
-5.92706e-11
-4.25377e-11
-3.56789e-11
-5.83508e-11
-1.7846e-11
-5.124e-11
-3.10699e-12
-3.23301e-11
1.3191e-11
-7.98435e-12
3.624e-11
2.48982e-11
6.59082e-11
5.88836e-11
8.25423e-11
6.00173e-11
7.79328e-11
2.49942e-11
9.28472e-11
3.3374e-12
1.01528e-10
-3.20288e-12
1.33278e-10
-3.59073e-11
1.83762e-10
-5.37679e-11
2.32297e-10
-1.29196e-11
2.63313e-10
8.16812e-11
2.73192e-10
2.0598e-10
2.62145e-10
3.44533e-10
2.33439e-10
4.84648e-10
1.89956e-10
6.20679e-10
1.33542e-10
7.50359e-10
6.49753e-11
8.72808e-10
-1.5649e-11
9.87201e-10
-1.08394e-10
1.09211e-09
1.18548e-09
-2.13088e-10
-1.13396e-12
-6.42566e-12
-3.96891e-12
-1.67565e-11
-7.7092e-12
-3.3665e-11
-1.18386e-11
-5.50534e-11
-1.6022e-11
-7.91711e-11
-2.00546e-11
-1.04401e-10
-2.38282e-11
-1.29435e-10
-2.73136e-11
-1.53281e-10
-3.05617e-11
-1.75036e-10
-3.37173e-11
-1.93663e-10
-3.70312e-11
-2.07857e-10
-4.08372e-11
-2.16037e-10
-4.54551e-11
-2.16444e-10
-5.09738e-11
-2.07295e-10
-5.68258e-11
-1.86863e-10
-6.13752e-11
-1.52831e-10
-6.03353e-11
-1.02333e-10
-5.13756e-11
-2.17639e-11
-4.14637e-11
1.27281e-10
-3.79819e-11
3.90405e-10
-1.21614e-10
5.79756e-10
-1.18174e-10
4.94489e-10
-1.0929e-10
2.5705e-10
-8.53173e-11
1.06426e-10
-6.41714e-11
2.21621e-11
-4.65011e-11
-2.59733e-11
-3.01718e-11
-5.88655e-11
-1.66561e-11
-7.18663e-11
-4.47728e-12
-6.34195e-11
8.24742e-12
-4.50554e-11
2.34981e-11
-2.32353e-11
5.03008e-11
-1.9045e-12
8.58252e-11
2.3359e-11
1.13929e-10
3.19132e-11
1.09941e-10
2.89814e-11
1.00075e-10
1.32026e-11
1.07575e-10
-1.07024e-11
1.39344e-10
-6.76765e-11
2.04239e-10
-1.18663e-10
2.6599e-10
-7.46735e-11
3.02831e-10
4.48388e-11
3.13503e-10
1.95307e-10
3.02205e-10
3.55831e-10
2.73721e-10
5.13132e-10
2.31772e-10
6.62627e-10
1.78212e-10
8.03918e-10
1.12989e-10
9.38032e-10
3.51514e-11
1.06504e-09
-5.62849e-11
1.18355e-09
1.29096e-09
-1.61764e-10
-1.60837e-12
-4.81793e-12
-5.65248e-12
-1.27118e-11
-1.12022e-11
-2.81135e-11
-1.76673e-11
-4.85859e-11
-2.46806e-11
-7.21555e-11
-3.20361e-11
-9.70437e-11
-3.96518e-11
-1.21819e-10
-4.75539e-11
-1.45379e-10
-5.58863e-11
-1.66703e-10
-6.49435e-11
-1.84604e-10
-7.5217e-11
-1.97581e-10
-8.74237e-11
-2.03827e-10
-1.02488e-10
-2.01378e-10
-1.21349e-10
-1.88433e-10
-1.4436e-10
-1.63853e-10
-1.69497e-10
-1.27694e-10
-1.9039e-10
-8.14392e-11
-1.85815e-10
-2.63382e-11
-1.05518e-10
4.69863e-11
-3.03672e-11
3.15254e-10
-1.6762e-10
7.1701e-10
-1.26668e-10
4.53537e-10
-3.70803e-11
1.67464e-10
-1.98142e-11
8.91616e-11
-2.11791e-11
2.35292e-11
-1.95538e-11
-2.75968e-11
-1.37619e-11
-6.46569e-11
-4.34265e-12
-8.1286e-11
7.68953e-12
-7.54525e-11
1.92548e-11
-5.66211e-11
3.72724e-11
-4.12526e-11
6.39794e-11
-2.86111e-11
1.01304e-10
-1.39662e-11
1.30689e-10
2.52747e-12
1.44886e-10
1.47839e-11
1.33648e-10
2.44401e-11
1.28643e-10
-5.69729e-12
1.51733e-10
-9.07679e-11
2.30542e-10
-1.97474e-10
3.01815e-10
-1.45949e-10
3.35748e-10
1.09039e-11
3.42408e-10
1.88646e-10
3.30632e-10
3.67608e-10
3.02483e-10
5.4128e-10
2.64684e-10
7.00425e-10
2.17828e-10
8.50773e-10
1.59969e-10
9.95891e-10
8.8539e-11
1.13647e-09
1.25571e-12
1.27083e-09
1.39531e-09
-1.03099e-10
-2.06869e-12
-2.74902e-12
-7.28947e-12
-7.48938e-12
-1.45979e-11
-2.08029e-11
-2.33266e-11
-3.98549e-11
-3.30675e-11
-6.24127e-11
-4.35985e-11
-8.65118e-11
-5.48385e-11
-1.10579e-10
-6.68274e-11
-1.3339e-10
-7.97378e-11
-1.53792e-10
-9.39201e-11
-1.7042e-10
-1.09977e-10
-1.81522e-10
-1.28879e-10
-1.84923e-10
-1.52141e-10
-1.78114e-10
-1.82027e-10
-1.58547e-10
-2.21753e-10
-1.24126e-10
-2.75602e-10
-7.38451e-11
-3.47152e-10
-9.88849e-12
-4.29142e-10
5.56529e-11
-4.94068e-10
1.11914e-10
-3.75704e-10
1.9689e-10
7.0561e-11
2.70745e-10
2.15433e-10
3.08665e-10
1.3382e-10
2.49077e-10
6.06515e-11
1.62332e-10
9.73353e-12
7.44486e-11
-1.21681e-11
-5.69437e-12
-1.73332e-11
-5.94921e-11
-1.06035e-11
-8.80167e-11
5.64509e-12
-9.17017e-11
2.12292e-11
-7.22049e-11
3.7268e-11
-5.72906e-11
6.49331e-11
-5.62757e-11
1.00249e-10
-4.92823e-11
1.38073e-10
-3.52976e-11
1.76254e-10
-2.33988e-11
2.08846e-10
-8.1523e-12
1.97226e-10
5.92222e-12
1.76367e-10
-6.99103e-11
2.89043e-10
-3.10153e-10
3.35388e-10
-1.92297e-10
3.37224e-10
9.06741e-12
3.51931e-10
1.73939e-10
3.34835e-10
3.84704e-10
3.10683e-10
5.65432e-10
2.83745e-10
7.27362e-10
2.50252e-10
8.84265e-10
2.05827e-10
1.04032e-09
1.45801e-10
1.1965e-09
6.63216e-11
1.35031e-09
1.49634e-09
-3.47094e-11
-2.49617e-12
-2.52006e-13
-8.81363e-12
-1.17018e-12
-1.77575e-11
-1.18571e-11
-2.85808e-11
-2.903e-11
-4.0825e-11
-5.01676e-11
-5.42315e-11
-7.31056e-11
-6.86832e-11
-9.61279e-11
-8.41717e-11
-1.17903e-10
-1.00792e-10
-1.37172e-10
-1.18768e-10
-1.52444e-10
-1.38501e-10
-1.61788e-10
-1.60667e-10
-1.62755e-10
-1.86372e-10
-1.52408e-10
-2.17368e-10
-1.27549e-10
-2.56244e-10
-8.52496e-11
-3.06102e-10
-2.3987e-11
-3.71546e-10
5.55561e-11
-4.59335e-10
1.43443e-10
-4.9742e-10
1.49999e-10
-3.70738e-10
7.02081e-11
-3.91886e-11
-6.08056e-11
1.26257e-10
1.43218e-10
7.70077e-11
2.98327e-10
-6.15715e-12
2.45497e-10
-3.84287e-11
1.06721e-10
-5.25573e-11
8.43435e-12
-5.27444e-11
-5.93058e-11
-4.30582e-11
-9.77038e-11
-2.43996e-11
-1.1036e-10
-2.41766e-12
-9.4186e-11
9.81033e-12
-6.95176e-11
4.03173e-11
-8.67824e-11
7.68084e-11
-8.57742e-11
1.20565e-10
-7.90552e-11
1.82042e-10
-8.48764e-11
2.61308e-10
-8.74189e-11
3.78044e-10
-1.10815e-10
4.42936e-10
-1.34804e-10
3.60304e-10
-2.27524e-10
3.22929e-10
-1.54922e-10
3.27293e-10
4.703e-12
3.0795e-10
1.93283e-10
2.94328e-10
3.98326e-10
2.88357e-10
5.71402e-10
2.84568e-10
7.31149e-10
2.74994e-10
8.93839e-10
2.52561e-10
1.06275e-09
2.10195e-10
1.23886e-09
1.42658e-10
1.41785e-09
1.59187e-09
4.71334e-11
-2.87671e-12
2.62567e-12
-1.01726e-11
6.1268e-12
-2.05725e-11
-1.45641e-12
-3.32495e-11
-1.63525e-11
-4.76892e-11
-3.57283e-11
-6.35805e-11
-5.72154e-11
-8.07413e-11
-7.89688e-11
-9.90624e-11
-9.9583e-11
-1.18472e-10
-1.17763e-10
-1.38914e-10
-1.32001e-10
-1.60334e-10
-1.40368e-10
-1.8267e-10
-1.40418e-10
-2.0584e-10
-1.29237e-10
-2.29679e-10
-1.0371e-10
-2.53745e-10
-6.11825e-11
-2.76701e-10
-1.03061e-12
-2.93982e-10
7.28376e-11
-3.02225e-10
1.51687e-10
-2.85826e-10
1.336e-10
-1.84529e-10
-3.10903e-11
-2.91622e-10
4.62853e-11
-1.98636e-10
5.02321e-11
-1.9725e-10
2.96941e-10
-1.54264e-10
2.02511e-10
-1.37526e-10
8.99838e-11
-1.24943e-10
-4.14912e-12
-1.13845e-10
-7.04041e-11
-1.00867e-10
-1.10683e-10
-7.95285e-11
-1.31698e-10
-4.46087e-11
-1.29105e-10
-2.15927e-11
-9.25326e-11
-1.72718e-11
-9.11032e-11
2.90534e-12
-1.05952e-10
3.78371e-11
-1.13988e-10
9.39757e-11
-1.41015e-10