/*--------------------------------*- C++ -*----------------------------------*\
| =========                 |                                                 |
| \\      /  F ield         | OpenFOAM: The Open Source CFD Toolbox           |
|  \\    /   O peration     | Version:  2.4.0                                 |
|   \\  /    A nd           | Web:      www.OpenFOAM.org                      |
|    \\/     M anipulation  |                                                 |
\*---------------------------------------------------------------------------*/
FoamFile
{
    version     2.0;
    format      ascii;
    class       volScalarField;
    location    "0.163";
    object      alpha.water;
}
// * * * * * * * * * * * * * * * * * * * * * * * * * * * * * * * * * * * * * //

dimensions      [0 0 0 0 0 0 0];

internalField   nonuniform List<scalar> 
10000
(
1.93332e-61
1.53441e-57
1.5816e-54
3.00001e-52
2.0788e-50
7.90938e-49
2.28103e-47
6.14994e-46
1.80347e-44
6.06475e-43
2.24917e-41
8.93484e-40
3.53261e-38
1.3516e-36
4.93292e-35
1.64376e-33
4.65156e-32
1.10421e-30
2.2858e-29
3.96731e-28
5.64263e-27
6.64537e-26
6.48538e-25
5.23105e-24
3.45823e-23
1.85084e-22
7.96575e-22
2.709e-21
6.84857e-21
1.062e-20
1.04866e-20
6.85709e-21
3.04773e-21
9.39992e-22
1.98967e-22
2.95637e-23
3.41639e-24
3.02689e-25
1.95979e-26
9.55119e-28
3.51727e-29
9.90285e-31
2.14874e-32
3.57536e-34
4.50657e-36
4.30775e-38
2.99497e-40
1.44256e-42
2.863e-44
1.38307e-42
6.0608e-58
5.76577e-54
5.40048e-51
1.00271e-48
7.26782e-47
3.03397e-45
9.86767e-44
2.99382e-42
9.64316e-41
3.34138e-39
1.2127e-37
4.3755e-36
1.49444e-34
4.73905e-33
1.39845e-31
3.76572e-30
8.72158e-29
1.70246e-27
2.89152e-26
4.17997e-25
5.01607e-24
5.02986e-23
4.22308e-22
2.96369e-21
1.7259e-20
8.27941e-20
3.25574e-19
1.02802e-18
2.44586e-18
3.74192e-18
3.8112e-18
2.66981e-18
1.34253e-18
4.92008e-19
1.33532e-19
2.76211e-20
4.75702e-21
6.58696e-22
7.13849e-23
5.98937e-24
3.87289e-25
1.9082e-26
7.0708e-28
1.94376e-29
3.79695e-31
4.84983e-33
3.75376e-35
1.4036e-37
2.4047e-37
1.11754e-35
5.58873e-55
6.22465e-51
5.15881e-48
9.31519e-46
7.01603e-44
3.18541e-42
1.15129e-40
3.86008e-39
1.32082e-37
4.58285e-36
1.55524e-34
4.97926e-33
1.45538e-31
3.84249e-30
9.26461e-29
2.03473e-27
3.88685e-26
6.29018e-25
8.83926e-24
1.07063e-22
1.09079e-21
9.38668e-21
6.84833e-20
4.23029e-19
2.19888e-18
9.57898e-18
3.47562e-17
1.02475e-16
2.30288e-16
3.46152e-16
3.60253e-16
2.6701e-16
1.46252e-16
6.0816e-17
1.94782e-17
4.99799e-18
1.0805e-18
1.90497e-19
2.67395e-20
2.94624e-21
2.52031e-22
1.64221e-23
7.97444e-25
2.80751e-26
6.80011e-28
1.00238e-29
7.83512e-32
7.66889e-34
2.00297e-32
5.68074e-31
3.24701e-52
3.29504e-48
2.37459e-45
4.13192e-43
3.20636e-41
1.56496e-39
6.15358e-38
2.21512e-36
7.77795e-35
2.59859e-33
8.06576e-32
2.26797e-30
5.66404e-29
1.25434e-27
2.50197e-26
4.53474e-25
7.21592e-24
9.79509e-23
1.15356e-21
1.1808e-20
1.02893e-19
7.65452e-19
4.89062e-18
2.68138e-17
1.25569e-16
5.00811e-16
1.68549e-15
4.65058e-15
9.88018e-15
1.45292e-14
1.53088e-14
1.18854e-14
6.94211e-15
3.17889e-15
1.15136e-15
3.44464e-16
8.75123e-17
1.82127e-17
3.04987e-18
4.04889e-19
4.18079e-20
3.28538e-21
1.90748e-22
7.87869e-24
2.18381e-25
3.52112e-27
2.87972e-29
3.87754e-30
9.91028e-29
1.9325e-27
1.36352e-49
1.06527e-45
6.59317e-43
1.09947e-40
8.68977e-39
4.49638e-37
1.88206e-35
7.04263e-34
2.43824e-32
7.62826e-31
2.12633e-29
5.21224e-28
1.11437e-26
2.08884e-25
3.49447e-24
5.29717e-23
7.10458e-22
8.18759e-21
8.18106e-20
7.13891e-19
5.3571e-18
3.46567e-17
1.94918e-16
9.53601e-16
4.0462e-15
1.48363e-14
4.64162e-14
1.1992e-13
2.40881e-13
3.45309e-13
3.65808e-13
2.94405e-13
1.81465e-13
8.98835e-14
3.59438e-14
1.212e-14
3.4931e-15
8.29704e-16
1.59817e-16
2.45668e-17
2.95193e-18
2.69415e-19
1.80528e-20
8.51666e-22
2.66257e-23
4.80572e-25
4.93802e-27
3.84924e-27
7.83907e-26
1.18202e-24
4.35133e-47
2.38052e-43
1.25839e-40
2.00109e-38
1.59955e-36
8.64352e-35
3.75964e-33
1.40839e-31
4.62129e-30
1.32131e-28
3.26214e-27
6.93494e-26
1.27194e-24
2.03753e-23
2.89713e-22
3.72239e-21
4.25573e-20
4.20582e-19
3.60337e-18
2.70268e-17
1.75724e-16
9.93284e-16
4.93339e-15
2.15957e-14
8.32148e-14
2.80793e-13
8.16422e-13
1.97438e-12
3.7506e-12
5.22878e-12
5.54123e-12
4.58589e-12
2.96358e-12
1.56834e-12
6.83839e-13
2.55211e-13
8.20307e-14
2.18986e-14
4.77341e-15
8.3493e-16
1.14709e-16
1.19991e-17
9.19407e-19
4.95668e-20
1.78013e-21
3.83343e-23
5.88188e-25
1.03595e-24
1.77501e-23
2.2284e-22
1.06865e-44
4.00525e-41
1.8124e-38
2.73737e-36
2.20049e-34
1.21996e-32
5.34503e-31
1.92464e-29
5.78731e-28
1.47657e-26
3.19684e-25
5.89079e-24
9.30335e-23
1.27788e-21
1.56068e-20
1.71845e-19
1.69028e-18
1.44403e-17
1.06961e-16
6.94323e-16
3.93175e-15
1.95071e-14
8.58003e-14
3.36411e-13
1.17675e-12
3.64884e-12
9.83904e-12
2.22543e-11
4.00179e-11
5.42039e-11
5.72795e-11
4.84336e-11
3.2709e-11
1.83537e-11
8.65408e-12
3.5388e-12
1.2607e-12
3.76558e-13
9.24688e-14
1.83173e-14
2.86393e-15
3.4319e-16
3.02374e-17
1.88579e-18
8.01271e-20
2.17555e-21
4.69039e-23
1.06477e-22
1.60917e-21
1.76599e-20
2.07757e-42
5.45828e-39
2.12716e-36
3.04784e-34
2.43482e-32
1.34966e-30
5.70837e-29
1.90526e-27
5.1492e-26
1.15184e-24
2.17506e-23
3.46594e-22
4.71776e-21
5.57709e-20
5.86851e-19
5.55282e-18
4.72602e-17
3.5073e-16
2.25863e-15
1.2749e-14
6.31041e-14
2.75836e-13
1.07749e-12
3.7886e-12
1.20075e-11
3.40986e-11
8.5008e-11
1.79668e-10
3.06468e-10
4.03542e-10
4.24617e-10
3.64752e-10
2.56384e-10
1.52237e-10
7.73009e-11
3.44804e-11
1.3616e-11
4.55836e-12
1.264e-12
2.84347e-13
5.07458e-14
6.99297e-15
7.1537e-16
5.23791e-17
2.69205e-18
9.42716e-20
2.51565e-21
5.21145e-21
7.20927e-20
7.16529e-19
3.25659e-40
6.21422e-37
2.10192e-34
2.84292e-32
2.21183e-30
1.17811e-28
4.62348e-27
1.39628e-25
3.33978e-24
6.49862e-23
1.06209e-21
1.47001e-20
1.73926e-19
1.78554e-18
1.62463e-17
1.32191e-16
9.71861e-16
6.28352e-15
3.52722e-14
1.73651e-13
7.5281e-13
2.90071e-12
1.00834e-11
3.18483e-11
9.13339e-11
2.36547e-10
5.43101e-10
1.07233e-09
1.74103e-09
2.23288e-09
2.33975e-09
2.03058e-09
1.48064e-09
9.3273e-10
5.08738e-10
2.47225e-10
1.0839e-10
4.08677e-11
1.28872e-11
3.31878e-12
6.8157e-13
1.08864e-13
1.30921e-14
1.14226e-15
7.16312e-17
3.20707e-18
9.78756e-20
1.4063e-19
1.83461e-18
1.6984e-17
3.98249e-38
5.90288e-35
1.76801e-32
2.25034e-30
1.66711e-28
8.25288e-27
2.93032e-25
7.80352e-24
1.618e-22
2.71105e-21
3.8163e-20
4.59816e-19
4.75532e-18
4.26958e-17
3.39451e-16
2.40326e-15
1.52384e-14
8.55333e-14
4.1951e-13
1.80245e-12
6.84994e-12
2.32774e-11
7.19202e-11
2.0395e-10
5.29475e-10
1.24681e-09
2.62612e-09
4.84966e-09
7.51943e-09
9.42409e-09
9.83563e-09
8.58287e-09
6.50023e-09
4.36849e-09
2.54879e-09
1.34957e-09
6.58197e-10
2.81423e-10
1.01895e-10
3.03589e-11
7.25072e-12
1.35545e-12
1.93259e-13
2.03103e-14
1.55611e-15
8.7219e-17
3.0927e-18
2.32538e-18
2.92228e-17
2.58143e-16
3.84239e-36
4.62706e-33
1.23422e-30
1.44887e-28
9.83386e-27
4.37715e-25
1.3793e-23
3.23636e-22
5.86669e-21
8.50977e-20
1.02875e-18
1.07943e-17
9.7931e-17
7.75681e-16
5.43281e-15
3.37917e-14
1.86791e-13
9.07206e-13
3.87818e-12
1.45775e-11
4.84738e-11
1.45242e-10
3.98635e-10
1.01276e-09
2.37563e-09
5.08521e-09
9.80313e-09
1.70157e-08
2.50753e-08
3.11033e-08
3.21307e-08
2.8126e-08
2.23024e-08
1.60979e-08
9.98023e-09
5.75357e-09
3.11464e-09
1.51765e-09
6.36648e-10
2.21886e-10
6.23527e-11
1.37914e-11
2.34908e-12
2.99658e-13
2.79686e-14
1.91945e-15
8.45829e-17
2.5802e-17
3.11974e-16
2.68925e-15
2.8774e-34
2.87864e-31
6.83416e-29
7.25781e-27
4.41245e-25
1.74711e-23
4.87112e-22
1.0042e-20
1.59682e-19
2.03005e-18
2.13321e-17
1.94405e-16
1.55341e-15
1.08871e-14
6.74442e-14
3.71059e-13
1.80449e-12
7.66224e-12
2.8378e-11
9.33287e-11
2.71727e-10
7.15641e-10
1.74438e-09
3.96571e-09
8.38932e-09
1.63032e-08
2.87698e-08
4.76842e-08
6.47972e-08
8.61026e-08
8.54386e-08
7.38997e-08
6.16378e-08
4.76849e-08
3.10351e-08
1.93345e-08
1.1552e-08
6.433e-09
3.14799e-09
1.29534e-09
4.3306e-10
1.14618e-10
2.35347e-11
3.66939e-12
4.20791e-13
3.50722e-14
1.9491e-15
2.19699e-16
2.35071e-15
2.02241e-14
1.62786e-32
1.38916e-29
2.92795e-27
2.77725e-25
1.5085e-23
5.32725e-22
1.31301e-20
2.38779e-19
3.34464e-18
3.73968e-17
3.45631e-16
2.73695e-15
1.93576e-14
1.20197e-13
6.60902e-13
3.2259e-12
1.38614e-11
5.18836e-11
1.68082e-10
4.79789e-10
1.22535e-09
2.8316e-09
6.1178e-09
1.24474e-08
2.37334e-08
4.18694e-08
6.73018e-08
1.11736e-07
1.33202e-07
2.64432e-07
2.3873e-07
1.75072e-07
1.45561e-07
1.15235e-07
7.6693e-08
5.05953e-08
3.32356e-08
2.11532e-08
1.213e-08
5.93388e-09
2.38125e-09
7.61577e-10
1.90262e-10
3.64633e-11
5.2085e-12
5.33509e-13
3.70843e-14
2.05759e-15
1.30265e-14
1.14467e-13
6.92179e-31
5.12018e-28
9.59303e-26
8.13291e-24
3.9432e-22
1.23208e-20
2.68996e-19
4.34699e-18
5.42362e-17
5.39919e-16
4.41777e-15
3.07936e-14
1.91828e-13
1.05875e-12
5.18577e-12
2.25254e-11
8.58431e-11
2.84338e-10
8.12756e-10
2.02402e-09
4.51316e-09
9.15904e-09
1.75004e-08
3.18765e-08
5.47652e-08
8.76569e-08
1.25466e-07
2.34879e-07
2.38488e-07
1.30872e-06
1.01809e-06
3.76008e-07
3.22736e-07
2.32973e-07
1.50079e-07
1.00817e-07
7.26507e-08
5.29168e-08
3.56502e-08
2.07889e-08
1.00628e-08
3.91904e-09
1.20227e-09
2.85492e-10
5.12283e-11
6.59685e-12
5.74485e-13
2.95608e-14
5.51422e-14
5.05986e-13
2.19254e-29
1.42533e-26
2.38135e-24
1.80224e-22
7.75954e-21
2.15726e-19
4.20611e-18
6.08869e-17
6.82203e-16
6.10805e-15
4.48801e-14
2.78494e-13
1.52736e-12
7.53009e-12
3.2958e-11
1.27782e-10
4.3371e-10
1.2779e-09
3.2459e-09
7.15137e-09
1.38844e-08
2.47602e-08
4.17372e-08
6.79519e-08
1.04938e-07
1.51528e-07
1.78046e-07
3.98671e-07
6.0953e-06
1.21668e-05
1.16804e-05
4.30777e-06
5.82132e-07
3.84266e-07
2.32507e-07
1.53782e-07
1.19556e-07
9.96728e-08
7.87851e-08
5.4592e-08
3.18366e-08
1.51449e-08
5.74148e-09
1.70291e-09
3.86523e-10
6.41891e-11
7.17036e-12
4.67314e-13
1.88207e-13
1.80505e-12
5.12896e-28
2.9596e-25
4.41907e-23
2.98783e-21
1.15077e-19
2.87289e-18
5.04604e-17
6.59846e-16
6.69392e-15
5.43561e-14
3.62299e-13
2.03011e-12
9.87384e-12
4.3646e-11
1.71099e-10
5.94008e-10
1.80538e-09
4.77324e-09
1.09298e-08
2.16957e-08
3.69251e-08
5.80035e-08
8.57968e-08
1.23423e-07
1.70065e-07
2.18843e-07
1.78567e-07
3.41275e-06
1.21681e-05
1.21662e-05
1.21643e-05
1.21625e-05
2.6486e-06
2.81462e-07
2.71431e-07
1.91237e-07
1.58453e-07
1.46974e-07
1.33049e-07
1.07616e-07
7.47026e-08
4.31282e-08
2.01594e-08
7.47008e-09
2.14719e-09
4.61407e-10
6.77655e-11
5.9501e-12
6.60226e-13
5.35188e-12
8.77655e-27
4.53047e-24
6.07381e-22
3.69464e-20
1.28545e-18
2.90874e-17
4.64431e-16
5.53454e-15
5.12739e-14
3.8084e-13
2.32344e-12
1.18889e-11
5.22753e-11
2.06781e-10
7.28988e-10
2.27695e-09
6.25441e-09
1.50874e-08
3.20153e-08
5.83366e-08
8.68842e-08
1.22895e-07
1.61386e-07
1.95891e-07
2.3674e-07
2.4571e-07
1.93309e-07
1.92849e-06
1.06798e-05
1.21671e-05
1.21677e-05
9.63803e-06
1.75706e-06
2.76938e-07
2.66147e-07
5.65712e-07
1.98844e-07
1.98316e-07
1.88584e-07
1.67676e-07
1.33525e-07
9.14727e-08
5.20089e-08
2.38782e-08
8.64216e-09
2.38403e-09
4.6541e-10
5.56421e-11
3.93336e-12
1.35403e-11
1.09057e-25
5.07368e-23
6.15885e-21
3.40365e-19
1.07987e-17
2.23526e-16
3.27344e-15
3.58592e-14
3.05957e-13
2.09594e-12
1.18032e-11
5.57146e-11
2.24848e-10
7.99982e-10
2.55544e-09
7.25149e-09
1.82924e-08
4.13092e-08
8.36453e-08
1.31225e-07
1.7122e-07
2.24495e-07
3.00724e-07
2.73368e-07
2.80619e-07
3.21813e-07
2.45512e-07
2.6973e-07
6.96959e-07
5.33812e-06
4.77782e-06
3.34313e-07
2.81845e-07
2.77293e-07
2.64878e-07
2.48025e-07
2.46537e-07
2.41626e-07
2.33349e-07
2.18513e-07
1.91423e-07
1.50353e-07
1.01371e-07
5.65817e-08
2.53819e-08
8.84393e-09
2.25178e-09
3.62793e-10
3.0864e-11
2.99525e-11
9.85095e-25
4.16549e-22
4.61701e-20
2.33948e-18
6.82881e-17
1.30417e-15
1.76631e-14
1.79291e-13
1.41967e-12
9.03664e-12
4.73264e-11
2.07768e-10
7.7748e-10
2.53041e-09
7.41618e-09
1.93921e-08
4.56209e-08
9.78222e-08
1.88235e-07
1.44221e-07
2.51187e-07
2.37677e-07
5.56398e-07
3.21359e-07
2.89768e-07
2.76008e-07
4.4811e-07
2.77127e-07
2.74043e-07
2.74053e-07
2.74143e-07
2.78929e-07
2.81981e-07
2.82855e-07
2.76017e-07
2.60702e-07
2.72866e-07
2.71779e-07
2.64887e-07
2.54197e-07
2.35663e-07
2.03814e-07
1.57265e-07
1.03642e-07
5.61916e-08
2.4136e-08
7.769e-09
1.65841e-09
1.91149e-10
6.27303e-11
6.52662e-24
2.53134e-21
2.58545e-19
1.21188e-17
3.28241e-16
5.83141e-15
7.36147e-14
6.97598e-13
5.16362e-12
3.07611e-11
1.50957e-10
6.21776e-10
2.18391e-09
6.64192e-09
1.79693e-08
4.32217e-08
9.3144e-08
1.8209e-07
3.62575e-07
3.78027e-06
6.45366e-06
4.08843e-06
8.40325e-07
3.04223e-07
2.77337e-07
2.78191e-07
2.78434e-07
2.83081e-07
2.81688e-07
2.86086e-07
2.92659e-07
2.99438e-07
3.04239e-07
3.05642e-07
2.7757e-07
5.12223e-07
2.80874e-07
2.92677e-07
2.89436e-07
2.81578e-07
2.68227e-07
2.45223e-07
2.0767e-07
1.55759e-07
9.89443e-08
5.09517e-08
2.01226e-08
5.49398e-09
8.4229e-10
1.43341e-10
3.22448e-23
1.15837e-20
1.10063e-18
4.81577e-17
1.22091e-15
2.03463e-14
2.41334e-13
2.15144e-12
1.49936e-11
8.41311e-11
3.88829e-10
1.50689e-09
4.96671e-09
1.40737e-08
3.45292e-08
7.37006e-08
1.31707e-07
1.4459e-07
3.61408e-06
9.11907e-06
9.11997e-06
9.12223e-06
1.35211e-06
2.6359e-07
2.76132e-07
2.88971e-07
2.96325e-07
2.89692e-07
2.87783e-07
2.95586e-07
3.13573e-07
3.32452e-07
3.36924e-07
3.46619e-07
3.40088e-07
3.09854e-07
3.0572e-07
3.00218e-07
3.02816e-07
3.0151e-07
2.94208e-07
2.77997e-07
2.49167e-07
2.04546e-07
1.47019e-07
8.8069e-08
4.14607e-08
1.39733e-08
2.75717e-09
3.84104e-10
1.21328e-22
4.07689e-20
3.63576e-18
1.49674e-16
3.57596e-15
5.62086e-14
6.28944e-13
5.28631e-12
3.46866e-11
1.82834e-10
7.91211e-10
2.85938e-09
8.74989e-09
2.29165e-08
5.15481e-08
9.88885e-08
1.58636e-07
2.22348e-07
6.21066e-06
9.12054e-06
9.12125e-06
7.42311e-06
9.92486e-07
2.76376e-07
2.93891e-07
3.05521e-07
3.10181e-07
2.93378e-07
5.14977e-07
3.03124e-07
3.45938e-07
4.06852e-07
3.48869e-07
4.34061e-07
4.25942e-07
3.31488e-07
3.15385e-07
5.44541e-07
3.09479e-07
3.10068e-07
3.07328e-07
2.92481e-07
2.71272e-07
2.38693e-07
1.90151e-07
1.29792e-07
7.12488e-08
2.87802e-08
7.10651e-09
1.04564e-09
3.56668e-22
1.13387e-19
9.59125e-18
3.751e-16
8.52012e-15
1.27331e-13
1.35384e-12
1.07994e-11
6.71282e-11
3.34375e-10
1.36338e-09
4.62709e-09
1.32495e-08
3.23331e-08
6.73613e-08
1.18868e-07
1.73542e-07
1.86183e-07
2.15817e-06
6.42453e-06
5.654e-06
3.28005e-07
2.99066e-07
3.04545e-07
3.20899e-07
3.25765e-07
3.24632e-07
3.15181e-07
3.16112e-07
3.13911e-07
3.28959e-07
5.61165e-07
3.06624e-06
5.99002e-06
6.19399e-06
4.61244e-06
1.85216e-06
3.35965e-07
3.17908e-07
5.24784e-07
3.30081e-07
3.1382e-07
2.7154e-07
2.42204e-07
2.11652e-07
1.64679e-07
1.0485e-07
4.99373e-08
1.50356e-08
2.55552e-09
8.37782e-22
2.55363e-19
2.07427e-17
7.79482e-16
1.70116e-14
2.44118e-13
2.48954e-12
1.90185e-11
1.12996e-10
5.36676e-10
2.07978e-09
6.67788e-09
1.79735e-08
4.09551e-08
8.00788e-08
1.3884e-07
2.16429e-07
2.95357e-07
2.99408e-07
3.00217e-07
3.0098e-07
3.32142e-07
3.36332e-07
3.49795e-07
3.59766e-07
3.6571e-07
3.3477e-07
3.25009e-07
3.88299e-07
3.16605e-07
1.56994e-06
6.17883e-06
7.68762e-06
7.69008e-06
7.69292e-06
7.69372e-06
7.69448e-06
4.34648e-06
3.85477e-07
3.94981e-07
3.64587e-07
2.56868e-07
1.79702e-07
1.78505e-07
1.78422e-07
1.75247e-07
1.3351e-07
7.49587e-08
2.6997e-08
5.42087e-09
1.59557e-21
4.73557e-19
3.74646e-17
1.37054e-15
2.90892e-14
4.05411e-13
4.00896e-12
2.96469e-11
1.70243e-10
7.80591e-10
2.91993e-09
9.06824e-09
2.37502e-08
5.3215e-08
1.02787e-07
1.68382e-07
2.26762e-07
2.37731e-07
5.40531e-07
3.04644e-07
3.46746e-07
3.92154e-07
3.43882e-07
3.62979e-07
3.71481e-07
5.06984e-07
3.34753e-07
3.32553e-07
4.24897e-07
3.30654e-07
3.28268e-06
7.42512e-06
7.68655e-06
7.47355e-06
7.24564e-06
7.52922e-06
7.69599e-06
7.67005e-06
4.70331e-06
4.36602e-07
2.64551e-07
2.41595e-07
5.53573e-06
7.96196e-06
1.62507e-07
1.56191e-07
1.49458e-07
9.89126e-08
4.20003e-08
9.95183e-09
2.47893e-21
7.29291e-19
5.71024e-17
2.06346e-15
4.31691e-14
5.9168e-13
5.74093e-12
4.15669e-11
2.3325e-10
1.04343e-09
3.80296e-09
1.1489e-08
2.91681e-08
6.28184e-08
1.14977e-07
1.77429e-07
2.30761e-07
2.58103e-07
2.60935e-07
3.27248e-07
3.72368e-07
4.40549e-07
6.13365e-06
1.04989e-05
6.76946e-06
6.5246e-07
3.40809e-07
5.1654e-07
4.32017e-07
1.43507e-06
8.23461e-07
7.08632e-07
1.3321e-06
7.65036e-07
4.2461e-07
6.82614e-07
4.1294e-06
7.66849e-06
5.69597e-06
4.4395e-07
2.76196e-07
8.0542e-06
4.8862e-05
5.30572e-05
3.23191e-05
3.37053e-07
1.18886e-07
1.14354e-07
5.67898e-08
1.58365e-08
3.13362e-21
9.33059e-19
7.36186e-17
2.67006e-15
5.58549e-14
7.62781e-13
7.34977e-12
5.26846e-11
2.91875e-10
1.28584e-09
4.60356e-09
1.3618e-08
3.36833e-08
7.01354e-08
1.23113e-07
1.82302e-07
2.31617e-07
2.64658e-07
2.87845e-07
3.02686e-07
3.41482e-07
9.55464e-06
2.13944e-05
2.1397e-05
2.1386e-05
4.19408e-06
3.18367e-07
3.20346e-07
4.23924e-07
1.75852e-06
3.82945e-07
3.66945e-07
3.50132e-07
3.41905e-07
3.36283e-07
3.2881e-07
3.27528e-07
8.38515e-07
1.73124e-06
6.01157e-07
2.90477e-07
4.13253e-05
5.30834e-05
5.30918e-05
5.30781e-05
2.10987e-05
9.66826e-08
7.21753e-08
6.39201e-08
2.19359e-08
3.18992e-21
9.8593e-19
8.00277e-17
2.96496e-15
6.29809e-14
8.68764e-13
8.41499e-12
6.0374e-11
3.33443e-10
1.45904e-09
5.1694e-09
1.50708e-08
3.65446e-08
7.41073e-08
1.25909e-07
1.80417e-07
2.24939e-07
2.58802e-07
2.9302e-07
3.00226e-07
5.26968e-06
2.11122e-05
2.1402e-05
2.14155e-05
2.14035e-05
4.65782e-06
3.18147e-07
3.38493e-07
3.80198e-07
1.18441e-06
5.41402e-07
1.10387e-06
1.23014e-06
6.2659e-07
3.59487e-07
3.39372e-07
3.31052e-07
3.28203e-07
3.31525e-07
8.21037e-07
3.02467e-07
3.28247e-05
5.31459e-05
5.31214e-05
5.30918e-05
4.0189e-05
9.73737e-07
8.06875e-08
7.5424e-08
2.88155e-08
2.56353e-21
8.49865e-19
7.27665e-17
2.81051e-15
6.16715e-14
8.7214e-13
8.60345e-12
6.2493e-11
3.47564e-10
1.52405e-09
5.38754e-09
1.56115e-08
3.75201e-08
7.53855e-08
1.27628e-07
1.85361e-07
2.41076e-07
3.00089e-07
3.02593e-07
4.70167e-06
1.7298e-05
2.14099e-05
2.14211e-05
2.14423e-05
9.11338e-06
3.1434e-07
3.18055e-07
3.23298e-07
3.51597e-07
3.17475e-07
6.98329e-07
1.74832e-06
1.74866e-06
1.45284e-06
3.52459e-07
3.39469e-07
3.35795e-07
3.36345e-07
3.33237e-07
1.88163e-06
2.27885e-06
3.9248e-06
3.79192e-05
5.30933e-05
5.30783e-05
2.54136e-05
1.92539e-07
9.41423e-08
8.69026e-08
3.7e-08
1.57132e-21
5.85079e-19
5.45743e-17
2.25245e-15
5.20947e-14
7.68219e-13
7.83237e-12
5.83457e-11
3.30498e-10
1.46695e-09
5.22143e-09
1.51727e-08
3.64936e-08
7.3474e-08
1.2539e-07
1.8578e-07
2.55238e-07
3.40909e-07
1.602e-06
1.76793e-05
2.13869e-05
2.1401e-05
1.12042e-05
7.92752e-06
3.09347e-07
3.14303e-07
3.11406e-07
3.12457e-07
3.24895e-07
3.21691e-07
6.48501e-07
1.52289e-06
1.35525e-06
5.45252e-07
3.61861e-07
3.41897e-07
3.45953e-07
3.58535e-07
3.34442e-07
2.02948e-06
1.68011e-06
1.46355e-06
2.40323e-06
1.00799e-05
1.08326e-05
4.62649e-06
4.22908e-07
1.11108e-07
1.01749e-07
4.67091e-08
6.9179e-22
3.10579e-19
3.30025e-17
1.50262e-15
3.75439e-14
5.89132e-13
6.31615e-12
4.89896e-11
2.86466e-10
1.30271e-09
4.71998e-09
1.38921e-08
3.37528e-08
6.87101e-08
1.19363e-07
1.83175e-07
2.68448e-07
4.12755e-07
2.81075e-06
2.13358e-05
2.13753e-05
1.95208e-05
3.29919e-06
3.12495e-07
3.10439e-07
3.06928e-07
3.07857e-07
3.06307e-07
3.06922e-07
3.17451e-07
6.05842e-07
3.23575e-07
3.24541e-07
3.3684e-07
3.80352e-07
3.53037e-07
3.51442e-07
3.56053e-07
3.41599e-07
4.25351e-07
2.4325e-06
1.70704e-06
6.615e-07
3.05635e-07
2.69463e-07
2.71881e-07
5.16622e-07
1.45099e-07
1.17041e-07
5.65845e-08
2.02e-22
1.20824e-19
1.55386e-17
8.14043e-16
2.26822e-14
3.88326e-13
4.47014e-12
3.676e-11
2.25513e-10
1.06618e-09
3.98477e-09
1.20199e-08
2.97905e-08
6.16935e-08
1.08731e-07
1.67013e-07
2.26733e-07
2.27407e-07
2.32731e-06
1.15353e-05
1.83021e-05
4.67537e-06
1.71383e-06
3.45904e-07
3.11917e-07
3.05344e-07
3.05213e-07
3.02111e-07
3.04178e-07
3.13463e-07
3.14789e-07
3.29771e-07
4.06372e-07
8.57225e-07
3.76285e-07
3.59035e-07
3.6294e-07
5.0586e-07
6.23394e-07
4.42406e-06
8.82642e-06
8.38236e-06
2.47077e-06
2.75641e-07
2.63277e-07
2.63855e-07
4.59097e-07
1.61466e-07
1.26661e-07
6.4809e-08
4.15339e-23
3.75231e-20
6.14243e-18
3.80012e-16
1.20102e-14
2.27439e-13
2.84636e-12
2.51217e-11
1.63754e-10
8.15715e-10
3.18783e-09
9.99099e-09
2.55849e-08
5.44934e-08
9.82745e-08
1.52921e-07
2.06242e-07
2.33483e-07
5.42848e-07
9.63152e-07
1.78836e-06
3.10742e-07
3.10726e-07
3.10367e-07
3.06187e-07
3.02939e-07
3.0317e-07
2.99191e-07
3.02938e-07
3.12418e-07
3.26048e-07
3.33792e-07
7.51872e-07
1.94439e-06
1.31216e-06
4.50188e-07
9.81395e-06
2.01252e-05
2.05961e-05
1.4132e-05
7.64917e-06
5.20643e-06
9.49326e-07
2.9983e-07
2.71879e-07
2.76903e-07
2.85526e-07
1.61648e-07
1.30121e-07
6.92174e-08
6.2562e-24
1.07361e-20
2.37254e-18
1.76999e-16
6.38844e-15
1.3391e-13
1.81823e-12
1.71686e-11
1.18492e-10
6.19833e-10
2.52556e-09
8.20149e-09
2.16416e-08
4.72577e-08
8.7031e-08
1.37968e-07
1.9185e-07
2.49946e-07
3.93588e-07
3.15601e-07
3.14178e-07
3.13357e-07
3.09137e-07
3.06008e-07
3.97915e-07
3.00704e-07
3.01893e-07
2.97086e-07
3.04603e-07
3.94238e-07
9.87352e-07
7.82877e-07
6.35799e-07
1.51175e-06
4.93567e-06
1.38542e-05
3.29346e-05
3.2931e-05
3.29414e-05
9.74199e-06
3.33702e-06
3.09433e-06
1.06502e-06
4.01492e-07
5.44261e-07
5.31163e-07
1.22751e-07
1.82298e-07
1.26967e-07
6.85989e-08
7.92284e-25
2.78396e-21
8.51986e-19
7.7793e-17
3.2353e-15
7.5459e-14
1.11487e-12
1.12793e-11
8.24657e-11
4.53115e-10
1.92654e-09
6.49429e-09
1.77164e-08
3.98646e-08
7.54689e-08
1.22871e-07
1.76913e-07
2.36855e-07
3.38615e-07
3.45348e-07
3.50779e-07
3.93693e-07
3.02641e-07
3.02312e-07
2.96486e-07
3.00601e-07
3.01929e-07
2.95374e-07
3.02595e-07
8.04189e-07
1.82565e-06
1.71227e-06
6.3199e-07
6.37122e-07
6.73075e-06
3.28929e-05
3.29276e-05
3.29177e-05
2.7668e-05
4.54712e-06
3.26615e-06
3.11883e-06
1.18367e-05
2.40437e-06
6.88306e-07
1.32164e-06
7.88899e-08
1.39679e-07
9.03078e-08
6.20809e-08
8.53532e-26
6.43019e-22
2.77617e-19
3.14138e-17
1.51919e-15
3.9696e-14
6.41441e-13
6.98204e-12
5.42666e-11
3.14239e-10
1.39931e-09
4.91788e-09
1.39427e-08
3.25239e-08
6.37101e-08
1.07235e-07
1.60127e-07
2.2039e-07
2.67261e-07
4.99783e-07
3.08766e-07
3.0701e-07
3.06063e-07
2.98764e-07
2.9619e-07
2.97385e-07
3.06333e-07
2.88527e-07
2.88618e-07
6.4701e-07
1.82793e-06
1.78429e-06
6.34988e-07
9.21084e-07
8.57951e-06
3.16492e-05
3.20023e-05
2.22952e-05
6.58717e-06
4.53091e-06
3.48365e-06
3.37004e-06
3.79948e-05
2.78613e-05
-8.52285e-09
3.19654e-08
2.95365e-08
2.18948e-08
2.00885e-08
2.00456e-08
8.40705e-27
1.38117e-22
8.43881e-20
1.18676e-17
6.69296e-16
1.96449e-14
3.48033e-13
4.08554e-12
3.38416e-11
2.07078e-10
9.68657e-10
3.56145e-09
1.05362e-08
2.55975e-08
5.21522e-08
9.12051e-08
1.4082e-07
2.01252e-07
2.59711e-07
2.62056e-07
3.43493e-07
3.15548e-07
3.00645e-07
2.93121e-07
2.87679e-07
2.79007e-07
3.3264e-07
2.72592e-07
2.83964e-07
2.84468e-07
4.30808e-07
6.44852e-07
8.0893e-07
1.03189e-05
1.89471e-05
1.15398e-05
1.15379e-05
1.03449e-05
1.02458e-05
6.72088e-05
4.49982e-05
0.000172351
0.000321668
0.00159536
3.975e-05
-5.88665e-09
3.15456e-08
2.56687e-08
0.0352706
0.0926751
7.66692e-28
2.79798e-23
2.42708e-20
4.24686e-18
2.79549e-16
9.22463e-15
1.79338e-13
2.27269e-12
2.00883e-11
1.30085e-10
6.40287e-10
2.46772e-09
7.63658e-09
1.93793e-08
4.12019e-08
7.50952e-08
1.20233e-07
1.76884e-07
2.40399e-07
2.93139e-07
3.00055e-07
3.06226e-07
2.95341e-07
2.87611e-07
2.80272e-07
2.7345e-07
2.66874e-07
2.72058e-07
2.75265e-07
2.79533e-07
2.8097e-07
2.88534e-07
3.20481e-07
1.29964e-05
3.729e-05
2.59523e-05
1.15418e-05
1.17005e-05
9.91804e-05
0.000264174
0.000340765
0.000231324
0.000480219
0.0119243
0.0911323
0.211808
0.448956
0.69795
0.85617
0.885451
6.25894e-29
5.24172e-24
6.53194e-21
1.43029e-18
1.10257e-16
4.09941e-15
8.75997e-14
1.19988e-12
1.13298e-11
7.77266e-11
4.03e-10
1.63017e-09
5.28419e-09
1.40294e-08
3.11818e-08
5.93382e-08
9.88272e-08
1.48521e-07
2.07694e-07
2.6424e-07
2.93858e-07
2.9668e-07
2.90347e-07
2.83545e-07
2.74315e-07
2.69785e-07
2.66524e-07
2.69529e-07
2.7807e-07
2.81494e-07
2.90545e-07
3.05547e-07
5.23558e-06
2.77253e-05
4.34424e-05
4.28457e-05
3.93765e-05
0.000154561
0.00025498
0.000283462
0.000450747
0.00105642
0.0580553
0.301528
0.604692
0.874937
0.998389
1
1
1
4.41934e-30
8.81082e-25
1.60545e-21
4.44583e-19
4.04162e-17
1.70147e-15
4.0107e-14
5.95332e-13
6.01732e-12
4.38054e-11
2.39589e-10
1.01853e-09
3.46217e-09
9.62791e-09
2.23991e-08
4.45742e-08
7.74892e-08
1.20131e-07
1.72112e-07
2.27712e-07
2.68128e-07
2.82937e-07
2.83675e-07
2.76145e-07
2.69752e-07
2.66752e-07
2.6485e-07
2.72872e-07
2.87715e-07
3.07605e-07
3.06679e-07
3.5369e-07
1.24293e-05
4.36465e-05
4.60135e-05
4.69677e-05
9.61485e-05
0.00029341
0.000312947
0.000348994
0.000697992
0.132793
0.510956
0.831789
0.990035
1
1
1
1
1
2.64735e-31
1.29561e-25
3.51541e-22
1.24673e-19
1.34904e-17
6.4762e-16
1.6932e-14
2.73528e-13
2.96935e-12
2.30011e-11
1.33007e-10
5.9538e-10
2.12551e-09
6.19995e-09
1.51205e-08
3.15241e-08
5.73582e-08
9.28519e-08
1.36319e-07
1.87197e-07
2.33231e-07
2.55137e-07
2.61457e-07
5.17439e-07
2.63691e-07
2.64502e-07
2.63334e-07
2.6306e-07
4.47076e-07
1.9391e-06
2.70572e-06
1.10185e-06
2.8417e-06
2.60994e-05
4.71298e-05
4.77354e-05
0.000253826
0.000302801
0.00031336
0.00059115
0.173213
0.639163
0.938342
0.999834
0.999984
1
1
1
1
1
1.33218e-32
1.63502e-26
6.71222e-23
3.08687e-20
4.0162e-18
2.21682e-16
6.47236e-15
1.14429e-13
1.34032e-12
1.10899e-11
6.80221e-11
3.21485e-10
1.2081e-09
3.70383e-09
9.48849e-09
2.07735e-08
3.96775e-08
6.73723e-08
1.03396e-07
1.45838e-07
1.91882e-07
2.24598e-07
2.26988e-07
2.53926e-07
2.62887e-07
2.62621e-07
3.52298e-07
2.51297e-07
7.14595e-07
9.4558e-06
1.05008e-05
8.08216e-06
3.92582e-06
3.68342e-05
0.000146733
0.000137764
0.000241599
0.000348716
0.000328415
0.173411
0.673611
0.989933
0.999889
0.99999
0.999999
1
1
1
1
1
5.59717e-34
1.73947e-27
1.09466e-23
6.60444e-21
1.04383e-18
6.68399e-17
2.19609e-15
4.27739e-14
5.43649e-13
4.82812e-12
3.15431e-11
1.57962e-10
6.26771e-10
2.02542e-09
5.46555e-09
1.26028e-08
2.53543e-08
4.53421e-08
7.32314e-08
1.08285e-07
1.48203e-07
1.87304e-07
2.07448e-07
2.28099e-07
2.52649e-07
2.51145e-07
2.37378e-07
2.42873e-07
2.62212e-07
9.09016e-07
5.61928e-06
1.51872e-05
2.69214e-05
9.03193e-05
0.000205853
0.000265402
0.000263496
0.000320769
0.138419
0.632981
0.997631
0.999937
0.999992
0.999999
1
1
1
1
1
1
1.9596e-35
1.52625e-28
1.48539e-24
1.18906e-21
2.30715e-19
1.73046e-17
6.45389e-16
1.39556e-14
1.93772e-13
1.85812e-12
1.29977e-11
6.92845e-11
2.9148e-10
9.96666e-10
2.84364e-09
6.93263e-09
1.47511e-08
2.79108e-08
4.7699e-08
7.45759e-08
1.07715e-07
1.44462e-07
1.73947e-07
2.01262e-07
2.28694e-07
2.32864e-07
2.2559e-07
2.33348e-07
2.39172e-07
2.49788e-07
4.01145e-06
3.7912e-05
6.25122e-05
0.000100858
8.56436e-05
0.00016298
0.000787269
0.0776453
0.514864
0.968537
0.999937
0.99999
0.999999
1
1
1
1
1
1
1
5.68743e-37
1.07361e-29
1.60597e-25
1.72604e-22
4.16677e-20
3.70366e-18
1.58469e-16
3.84089e-15
5.87642e-14
6.13132e-13
4.6237e-12
2.63976e-11
1.18429e-10
4.30836e-10
1.30665e-09
3.3861e-09
7.66214e-09
1.5427e-08
2.80693e-08
4.67322e-08
7.18751e-08
1.02776e-07
1.34164e-07
1.64234e-07
1.97383e-07
2.16046e-07
2.16789e-07
2.25046e-07
2.62011e-07
2.98663e-07
8.18372e-06
1.23141e-05
4.23647e-06
1.14713e-05
7.48163e-06
0.000268009
0.0216133
0.326271
0.871825
0.999741
0.999984
0.999999
1
1
1
1
1
1
1
1
1.36702e-38
5.95298e-31
1.3173e-26
1.86262e-23
5.64825e-21
6.08591e-19
3.04698e-17
8.41074e-16
1.43651e-14
1.64977e-13
1.35525e-12
8.36621e-12
4.03863e-11
1.57659e-10
5.12501e-10
1.42329e-09
3.45289e-09
7.4578e-09
1.45648e-08
2.60375e-08
4.30104e-08
6.60871e-08
9.36295e-08
1.23353e-07
1.57169e-07
1.86721e-07
2.02809e-07
2.11633e-07
2.35823e-07
4.58695e-07
1.95342e-06
3.67818e-07
3.88783e-07
4.65717e-07
3.85327e-06
6.10465e-06
0.121896
0.670281
0.999499
0.999959
0.999997
1
1
1
1
1
1
1
1
1
2.70728e-40
2.66056e-32
8.36989e-28
1.46731e-24
5.25902e-22
6.55761e-20
3.85899e-18
1.25252e-16
2.48683e-15
3.25509e-14
2.9936e-13
2.03812e-12
1.07671e-11
4.58202e-11
1.62049e-10
4.89205e-10
1.28983e-09
3.02771e-09
6.42621e-09
1.24827e-08
2.23956e-08
3.73583e-08
5.7746e-08
8.28687e-08
1.13209e-07
1.45759e-07
1.73337e-07
1.91695e-07
2.02688e-07
3.12504e-07
1.59222e-07
3.33398e-07
3.73715e-07
3.1413e-07
5.41209e-07
6.4958e-06
0.346766
0.937439
0.999912
0.999998
1
1
1
1
1
1
1
1
1
1
4.17346e-42
1.0046e-33
4.77277e-29
1.07144e-25
4.41816e-23
5.99812e-21
3.67015e-19
1.21708e-17
2.51709e-16
3.58964e-15
3.76721e-14
3.03139e-13
1.88172e-12
9.22498e-12
3.6892e-11
1.24949e-10
3.68167e-10
9.63023e-10
2.27168e-09
4.89141e-09
9.70185e-09
1.78426e-08
3.04192e-08
4.80852e-08
7.1494e-08
1.00112e-07
1.30369e-07
1.56765e-07
1.77419e-07
1.61976e-07
1.40763e-07
2.24414e-07
1.96964e-06
2.82604e-07
-2.26618e-06
0.00400253
0.687223
1
1
1
1
1
1
1
1
1
1
1
1
1
5.14762e-44
5.85598e-35
8.18575e-30
3.24907e-26
1.71589e-23
2.44063e-21
1.37358e-19
3.87132e-18
6.40438e-17
6.98108e-16
5.45736e-15
3.33905e-14
1.73587e-13
8.73503e-13
4.30927e-12
1.84539e-11
6.67398e-11
2.08338e-10
5.75656e-10
1.43227e-09
3.24728e-09
6.76454e-09
1.29825e-08
2.29776e-08
3.78282e-08
5.8206e-08
8.32368e-08
1.09769e-07
1.34411e-07
1.51138e-07
1.17146e-07
1.32121e-07
7.58363e-07
2.13852e-07
1.42659e-07
0.110944
0.897004
1
1
1
1
1
1
1
1
1
1
1
1
1
2.51316e-43
1.14336e-33
1.5315e-28
5.11605e-25
2.3195e-22
2.91103e-20
1.47011e-18
3.73831e-17
5.5446e-16
5.3215e-15
3.56255e-14
1.75932e-13
6.66817e-13
1.99217e-12
4.77459e-12
9.40685e-12
1.66244e-11
3.42624e-11
9.43301e-11
2.74845e-10
7.46923e-10
1.84341e-09
4.12795e-09
8.40846e-09
1.56898e-08
2.69841e-08
4.27453e-08
6.2083e-08
8.28605e-08
1.00763e-07
1.0431e-07
9.62799e-08
7.25749e-08
3.78296e-08
3.98856e-08
0.260446
0.997546
1
1
1
1
1
1
1
1
1
1
1
1
1
7.3943e-41
3.3103e-39
1.23007e-37
3.88348e-36
1.0759e-34
2.7147e-33
6.47056e-32
1.49621e-30
3.38124e-29
7.33813e-28
1.46168e-26
2.48113e-25
3.23858e-24
2.88652e-23
1.76522e-22
7.55973e-22
2.44355e-21
6.00664e-21
1.10805e-20
1.58875e-20
1.8134e-20
1.67161e-20
1.25339e-20
7.65788e-21
3.79793e-21
1.52218e-21
4.88436e-22
1.24088e-22
2.4938e-23
3.9789e-24
5.02605e-25
5.035e-26
4.01111e-27
2.55431e-28
1.3352e-29
6.20508e-31
2.63963e-32
1.01552e-33
3.51927e-35
1.09349e-36
3.0152e-38
7.22701e-40
1.44443e-41
2.23932e-43
2.39673e-45