/*--------------------------------*- C++ -*----------------------------------*\
| =========                 |                                                 |
| \\      /  F ield         | OpenFOAM: The Open Source CFD Toolbox           |
|  \\    /   O peration     | Version:  2.4.0                                 |
|   \\  /    A nd           | Web:      www.OpenFOAM.org                      |
|    \\/     M anipulation  |                                                 |
\*---------------------------------------------------------------------------*/
FoamFile
{
    version     2.0;
    format      ascii;
    class       volScalarField;
    location    "0.163";
    object      p;
}
// * * * * * * * * * * * * * * * * * * * * * * * * * * * * * * * * * * * * * //

dimensions      [1 -1 -2 0 0 0 0];

internalField   nonuniform List<scalar> 
10000
(
-0.0042527
-0.00425172
-0.0042496
-0.00424628
-0.00424178
-0.00423613
-0.00422936
-0.00422149
-0.00421255
-0.00420259
-0.00419171
-0.00418004
-0.00416774
-0.00415501
-0.00414209
-0.00412922
-0.00411665
-0.00410461
-0.00409337
-0.00408316
-0.00407421
-0.00406675
-0.00406097
-0.00405709
-0.00405534
-0.00405595
-0.0040592
-0.00406539
-0.0040748
-0.00408764
-0.00410407
-0.00412411
-0.00414766
-0.00417453
-0.00420445
-0.0042371
-0.00427208
-0.00430896
-0.00434728
-0.00438652
-0.00442613
-0.00446551
-0.00450402
-0.00454097
-0.00457564
-0.0046073
-0.00463524
-0.00465877
-0.00467725
-0.00469008
-0.00425374
-0.00425275
-0.00425066
-0.00424739
-0.00424294
-0.00423734
-0.00423062
-0.00422281
-0.00421396
-0.00420412
-0.00419341
-0.00418194
-0.00416988
-0.00415743
-0.00414481
-0.00413223
-0.00411994
-0.00410816
-0.00409714
-0.00408711
-0.0040783
-0.00407093
-0.00406521
-0.00406135
-0.00405955
-0.00406007
-0.00406316
-0.00406908
-0.00407809
-0.00409039
-0.00410611
-0.00412526
-0.00414777
-0.00417348
-0.00420214
-0.00423344
-0.004267
-0.00430242
-0.00433925
-0.00437697
-0.00441508
-0.00445299
-0.00449009
-0.00452571
-0.00455917
-0.00458977
-0.00461683
-0.0046397
-0.00465777
-0.00467046
-0.00425586
-0.00425486
-0.0042528
-0.00424957
-0.00424517
-0.00423962
-0.00423293
-0.00422515
-0.00421632
-0.00420653
-0.00419588
-0.0041845
-0.00417256
-0.00416025
-0.00414777
-0.00413533
-0.00412317
-0.0041115
-0.00410056
-0.00409057
-0.00408177
-0.00407436
-0.00406856
-0.00406456
-0.00406257
-0.00406283
-0.00406558
-0.00407108
-0.00407956
-0.00409123
-0.00410621
-0.00412454
-0.00414615
-0.00417088
-0.00419849
-0.0042287
-0.00426115
-0.00429544
-0.00433113
-0.00436774
-0.00440478
-0.00444168
-0.00447785
-0.00451263
-0.00454537
-0.00457541
-0.00460209
-0.00462477
-0.00464284
-0.00465575
-0.0042591
-0.00425813
-0.00425612
-0.00425295
-0.0042486
-0.00424306
-0.00423637
-0.00422856
-0.0042197
-0.00420985
-0.00419914
-0.0041877
-0.0041757
-0.00416333
-0.00415079
-0.0041383
-0.00412607
-0.00411432
-0.00410328
-0.00409317
-0.00408422
-0.00407662
-0.00407058
-0.00406629
-0.00406395
-0.00406378
-0.00406603
-0.00407095
-0.0040788
-0.0040898
-0.00410412
-0.0041218
-0.00414279
-0.00416689
-0.00419388
-0.00422346
-0.00425529
-0.00428897
-0.00432411
-0.00436023
-0.00439684
-0.00443341
-0.00446933
-0.00450399
-0.00453671
-0.00456685
-0.00459377
-0.00461683
-0.00463543
-0.004649
-0.00426337
-0.00426251
-0.0042606
-0.00425752
-0.00425322
-0.00424769
-0.00424097
-0.00423308
-0.0042241
-0.0042141
-0.00420321
-0.00419157
-0.00417935
-0.00416676
-0.00415398
-0.00414125
-0.00412878
-0.00411678
-0.00410549
-0.00409512
-0.00408588
-0.00407797
-0.00407156
-0.00406684
-0.00406399
-0.00406324
-0.00406483
-0.00406902
-0.00407612
-0.00408641
-0.00410012
-0.00411733
-0.00413795
-0.00416176
-0.0041885
-0.00421785
-0.00424949
-0.00428305
-0.00431814
-0.00435432
-0.00439109
-0.00442793
-0.00446424
-0.00449939
-0.00453271
-0.00456355
-0.00459127
-0.00461524
-0.00463484
-0.00464948
-0.0042686
-0.00426796
-0.00426625
-0.0042633
-0.00425906
-0.00425354
-0.00424675
-0.00423873
-0.00422955
-0.00421931
-0.00420811
-0.00419614
-0.00418355
-0.00417056
-0.00415739
-0.00414425
-0.00413137
-0.00411897
-0.00410729
-0.00409652
-0.00408688
-0.00407854
-0.00407166
-0.0040664
-0.00406292
-0.00406145
-0.00406222
-0.00406552
-0.00407171
-0.00408121
-0.00409436
-0.00411129
-0.00413185
-0.00415574
-0.00418261
-0.00421214
-0.00424402
-0.00427792
-0.00431346
-0.00435023
-0.00438773
-0.00442543
-0.00446271
-0.00449893
-0.00453343
-0.00456554
-0.0045946
-0.00461997
-0.00464101
-0.00465711
-0.0042748
-0.0042745
-0.00427309
-0.00427033
-0.00426619
-0.00426066
-0.00425378
-0.00424557
-0.00423612
-0.00422551
-0.0042139
-0.00420144
-0.00418833
-0.00417479
-0.00416104
-0.00414732
-0.00413387
-0.00412092
-0.0041087
-0.00409744
-0.0040873
-0.00407845
-0.00407101
-0.00406512
-0.00406092
-0.0040586
-0.0040584
-0.00406061
-0.00406568
-0.00407425
-0.00408688
-0.00410379
-0.00412474
-0.00414916
-0.0041766
-0.00420674
-0.00423932
-0.00427403
-0.00431055
-0.00434845
-0.00438726
-0.0044264
-0.00446525
-0.00450315
-0.0045394
-0.00457333
-0.00460425
-0.00463148
-0.00465437
-0.00467228
-0.00428202
-0.00428221
-0.00428121
-0.0042787
-0.00427468
-0.00426915
-0.00426213
-0.00425368
-0.00424386
-0.00423279
-0.00422063
-0.00420754
-0.00419374
-0.00417946
-0.00416496
-0.00415048
-0.00413629
-0.00412264
-0.00410977
-0.0040979
-0.0040872
-0.00407779
-0.00406976
-0.00406321
-0.00405824
-0.004055
-0.00405368
-0.00405453
-0.00405815
-0.00406555
-0.0040777
-0.004095
-0.00411695
-0.00414252
-0.00417106
-0.00420227
-0.004236
-0.00427203
-0.00431006
-0.00434968
-0.00439039
-0.00443158
-0.00447261
-0.00451278
-0.00455138
-0.00458767
-0.00462093
-0.00465046
-0.00467557
-0.00469559
-0.00429038
-0.00429121
-0.00429073
-0.00428854
-0.00428466
-0.00427911
-0.00427192
-0.00426315
-0.00425288
-0.00424124
-0.00422838
-0.0042145
-0.00419984
-0.00418464
-0.00416919
-0.00415376
-0.00413864
-0.00412413
-0.00411049
-0.00409794
-0.00408665
-0.0040767
-0.00406812
-0.00406094
-0.00405522
-0.00405105
-0.00404858
-0.0040478
-0.00404941
-0.0040552
-0.00406687
-0.00408517
-0.00410915
-0.00413665
-0.00416683
-0.00419956
-0.0042349
-0.00427274
-0.00431285
-0.00435479
-0.00439802
-0.00444191
-0.00448576
-0.00452883
-0.00457034
-0.00460952
-0.00464559
-0.00467782
-0.00470547
-0.00472786
-0.00430006
-0.00430167
-0.00430181
-0.00429999
-0.00429627
-0.00429069
-0.00428329
-0.00427413
-0.0042633
-0.00425096
-0.00423726
-0.00422242
-0.00420671
-0.00419038
-0.00417376
-0.00415717
-0.00414093
-0.00412539
-0.00411086
-0.00409759
-0.00408574
-0.00407533
-0.00406631
-0.00405865
-0.00405236
-0.00404748
-0.00404405
-0.00404138
-0.00403991
-0.00404311
-0.00405414
-0.00407461
-0.00410249
-0.00413305
-0.00416533
-0.00419984
-0.0042371
-0.00427721
-0.00431996
-0.00436486
-0.0044113
-0.00445858
-0.00450593
-0.00455253
-0.00459754
-0.00464011
-0.00467943
-0.00471471
-0.00474519
-0.00477012
-0.00431129
-0.00431379
-0.00431465
-0.00431324
-0.00430968
-0.00430405
-0.00429639
-0.00428676
-0.00427528
-0.0042621
-0.0042474
-0.00423143
-0.00421444
-0.00419676
-0.00417873
-0.00416072
-0.00414314
-0.00412638
-0.00411083
-0.00409682
-0.0040845
-0.00407384
-0.00406465
-0.00405686
-0.00405049
-0.00404545
-0.00404146
-0.00403617
-0.00402919
-0.00402749
-0.00403756
-0.00406249
-0.00409794
-0.00413348
-0.00416853
-0.0042049
-0.00424415
-0.00428678
-0.00433266
-0.00438117
-0.00443156
-0.00448298
-0.00453455
-0.00458535
-0.00463445
-0.00468093
-0.00472392
-0.00476258
-0.00479611
-0.00482372
-0.0043243
-0.0043278
-0.00432945
-0.0043285
-0.00432511
-0.0043194
-0.00431142
-0.00430124
-0.00428899
-0.00427484
-0.00425897
-0.00424165
-0.00422317
-0.00420387
-0.00418414
-0.00416443
-0.00414521
-0.004127
-0.00411029
-0.00409552
-0.00408298
-0.00407246
-0.00406363
-0.00405636
-0.00405061
-0.0040462
-0.00404228
-0.00403216
-0.00401456
-0.0040035
-0.0040128
-0.00404647
-0.00409587
-0.00413959
-0.00417809
-0.00421626
-0.00425758
-0.00430305
-0.00435256
-0.00440526
-0.00446028
-0.00451662
-0.00457318
-0.00462888
-0.00468269
-0.00473361
-0.0047807
-0.00482306
-0.00485985
-0.00489024
-0.0043394
-0.00434399
-0.00434649
-0.00434602
-0.0043428
-0.00433697
-0.00432862
-0.00431781
-0.00430468
-0.00428939
-0.00427218
-0.00425329
-0.00423305
-0.00421183
-0.00419007
-0.00416829
-0.00414709
-0.00412711
-0.00410901
-0.00409353
-0.00408121
-0.00407161
-0.00406394
-0.00405781
-0.00405308
-0.00405049
-0.00404978
-0.00403407
-0.0039955
-0.00395661
-0.00396517
-0.00402084
-0.0040999
-0.00415459
-0.00419493
-0.00423418
-0.00427772
-0.00432687
-0.00438107
-0.00443882
-0.00449911
-0.00456101
-0.00462331
-0.00468467
-0.00474384
-0.00479977
-0.00485142
-0.00489786
-0.00493819
-0.0049715
-0.00435691
-0.00436265
-0.00436605
-0.00436607
-0.004363
-0.00435704
-0.00434824
-0.00433672
-0.00432259
-0.00430603
-0.00428727
-0.00426657
-0.00424428
-0.00422079
-0.0041966
-0.00417232
-0.00414868
-0.0041265
-0.00410671
-0.0040906
-0.00407937
-0.00407181
-0.00406603
-0.00406145
-0.00405778
-0.00405826
-0.00406835
-0.00403503
-0.00396089
-0.00379995
-0.00380574
-0.00395415
-0.00410117
-0.00417385
-0.00421631
-0.00425681
-0.00430451
-0.00435822
-0.00441829
-0.00448259
-0.00454944
-0.00461767
-0.00468627
-0.00475394
-0.00481918
-0.00488073
-0.00493753
-0.00498856
-0.00503284
-0.00506937
-0.00437719
-0.00438412
-0.00438845
-0.00438896
-0.00438603
-0.00437989
-0.0043706
-0.00435827
-0.00434303
-0.00432505
-0.00430455
-0.0042818
-0.00425714
-0.00423099
-0.00420389
-0.00417657
-0.00414991
-0.00412501
-0.00410311
-0.00408634
-0.00407747
-0.00407343
-0.00407017
-0.00406737
-0.00406491
-0.00406809
-0.00408741
-0.00411604
-0.00267056
-0.000238858
-0.000659778
-0.00314881
-0.00416348
-0.00418095
-0.00423937
-0.00428833
-0.00434143
-0.00439749
-0.00446346
-0.0045356
-0.00461078
-0.00468708
-0.00476301
-0.0048375
-0.00490938
-0.00497728
-0.00503998
-0.00509634
-0.00514527
-0.00518563
-0.00440061
-0.00440876
-0.00441401
-0.00441501
-0.00441221
-0.00440584
-0.00439602
-0.00438282
-0.00436637
-0.00434682
-0.00432439
-0.00429933
-0.00427197
-0.00424274
-0.00421222
-0.00418125
-0.00415095
-0.0041226
-0.00409743
-0.00407912
-0.00407512
-0.00407778
-0.0040777
-0.00407585
-0.00407457
-0.00408219
-0.00406334
-0.00362116
0.00033805
9.67254e-06
4.3916e-05
0.000433545
-0.00387179
-0.00420639
-0.00425838
-0.00433431
-0.00438549
-0.00444162
-0.00451465
-0.00459557
-0.00468075
-0.0047673
-0.00485273
-0.00493538
-0.00501446
-0.00508938
-0.00515898
-0.00522184
-0.0052766
-0.00532189
-0.0044276
-0.00443694
-0.00444311
-0.00444457
-0.00444186
-0.00443525
-0.00442484
-0.00441071
-0.00439297
-0.00437175
-0.00434722
-0.00431962
-0.00428924
-0.00425651
-0.00422204
-0.00418691
-0.00415243
-0.0041191
-0.00408699
-0.00406346
-0.00406995
-0.00408398
-0.0040909
-0.00408957
-0.00407951
-0.0040855
-0.00407797
-0.00396997
-0.000574298
-8.80032e-05
-0.000164479
-0.00107083
-0.00410155
-0.00424666
-0.0042321
-0.00396989
-0.00442906
-0.00449216
-0.00456878
-0.00465897
-0.00475601
-0.00485518
-0.00495253
-0.00504561
-0.00513346
-0.0052163
-0.00529397
-0.00536503
-0.00542751
-0.00547957
-0.00445856
-0.00446905
-0.00447609
-0.00447798
-0.00447533
-0.00446845
-0.00445743
-0.00444234
-0.00442326
-0.00440029
-0.00437355
-0.00434322
-0.00430956
-0.00427297
-0.00423414
-0.0041943
-0.00415501
-0.0041152
-0.00406981
-0.00403603
-0.00405762
-0.00409192
-0.00410295
-0.00410291
-0.00407972
-0.00405765
-0.00407147
-0.0041092
-0.00381652
-0.00279448
-0.00292016
-0.00387897
-0.0041797
-0.0042324
-0.0042735
-0.00435125
-0.00444396
-0.00452849
-0.00461871
-0.00472196
-0.00483367
-0.00494789
-0.00505935
-0.00516496
-0.00526366
-0.00535641
-0.00544399
-0.00552556
-0.00559856
-0.00566013
-0.00449392
-0.00450548
-0.00451331
-0.00451559
-0.00451297
-0.00450581
-0.00449418
-0.00447813
-0.0044577
-0.00443295
-0.00440394
-0.00437079
-0.0043337
-0.00429307
-0.0042494
-0.00420327
-0.00415672
-0.00410575
-0.00402646
-0.00397386
-0.00400439
-0.00411714
-0.00405922
-0.00412155
-0.00408313
-0.00406719
-0.00385966
-0.00397811
-0.00386935
-0.00379133
-0.00381398
-0.0039456
-0.00411617
-0.00422551
-0.00430796
-0.00437065
-0.00446742
-0.0045573
-0.00466423
-0.00478326
-0.00491193
-0.00504377
-0.00517142
-0.00529104
-0.00540191
-0.00550692
-0.00560778
-0.0057034
-0.00579078
-0.00586573
-0.00453408
-0.00454658
-0.00455512
-0.00455772
-0.00455511
-0.00454767
-0.00453546
-0.00451848
-0.00449676
-0.00447028
-0.00443904
-0.00440308
-0.00436259
-0.00431779
-0.00426838
-0.00421321
-0.00415281
-0.00407148
-0.00396494
-0.00316607
-0.00261379
-0.003281
-0.00413714
-0.0041069
-0.00406711
-0.0040534
-0.00403139
-0.00398563
-0.00392744
-0.00389931
-0.00393038
-0.00402363
-0.00414828
-0.00425514
-0.00434987
-0.00421476
-0.00450041
-0.00458186
-0.00469872
-0.00483619
-0.00498685
-0.00514124
-0.0052883
-0.00542337
-0.00554636
-0.00566518
-0.00578396
-0.00589955
-0.00600676
-0.00610007
-0.00457941
-0.00459269
-0.0046018
-0.00460465
-0.00460204
-0.00459434
-0.0045816
-0.0045638
-0.0045409
-0.00451282
-0.00447952
-0.00444101
-0.00439742
-0.00434857
-0.00429344
-0.00422932
-0.00415594
-0.00405694
-0.00319972
-0.000544218
-9.94992e-05
-0.000205844
-0.00391115
-0.0040083
-0.00403453
-0.00404787
-0.00403252
-0.00400373
-0.00397494
-0.00396478
-0.00399896
-0.00407107
-0.00418527
-0.00429778
-0.00438356
-0.00440111
-0.00447058
-0.00457303
-0.00470674
-0.00487224
-0.00505491
-0.0052409
-0.00541222
-0.0055642
-0.00569636
-0.00582921
-0.00597204
-0.00611645
-0.00625169
-0.00636951
-0.00463023
-0.00464407
-0.0046536
-0.00465664
-0.00465401
-0.0046461
-0.00463293
-0.00461445
-0.00459055
-0.00456112
-0.00452604
-0.00448536
-0.00443919
-0.00438735
-0.00432961
-0.00426681
-0.00420062
-0.00409763
-0.00237239
-9.65084e-06
-0.000239785
-0.00154178
-0.00383121
-0.0039673
-0.00404267
-0.0040674
-0.00405532
-0.00402471
-0.0037479
-0.00399936
-0.00404581
-0.00408654
-0.00421559
-0.00435094
-0.00445579
-0.00445699
-0.00441398
-0.00444062
-0.00467459
-0.00489142
-0.00512066
-0.00534991
-0.00554851
-0.00571567
-0.00584946
-0.00599677
-0.00617278
-0.00635879
-0.00653398
-0.00668409
-0.00468677
-0.00470094
-0.00471071
-0.00471385
-0.0047112
-0.00470315
-0.00468969
-0.00467073
-0.00464611
-0.0046156
-0.00457904
-0.00453643
-0.00448776
-0.00443306
-0.00437338
-0.00431045
-0.00425687
-0.00425564
-0.00396656
-0.00218819
-0.0025079
-0.00355322
-0.00383421
-0.00399118
-0.00409444
-0.00412137
-0.00409381
-0.00404678
-0.00400319
-0.00403217
-0.00411157
-0.00401104
-0.00409524
-0.0035198
-0.00356672
-0.00426137
-0.00422728
-0.00435745
-0.00462745
-0.00475291
-0.00519955
-0.0054937
-0.00572644
-0.00589378
-0.00600179
-0.00616224
-0.00638556
-0.0066338
-0.00686594
-0.00705814
-0.00474918
-0.0047634
-0.00477321
-0.00477636
-0.00477371
-0.00476562
-0.00475207
-0.00473291
-0.00470789
-0.00467669
-0.004639
-0.00459452
-0.00454267
-0.00448268
-0.00441437
-0.00433931
-0.00426358
-0.00418733
-0.00414808
-0.00387805
-0.00368428
-0.0037085
-0.00388045
-0.00406701
-0.00419792
-0.00422945
-0.00416439
-0.00408014
-0.00406155
-0.00402402
-0.00407712
-0.00209383
-0.00115695
-0.00181675
-0.00214498
-0.00219636
-0.00254786
-0.00388
-0.00465062
-0.0048733
-0.00524506
-0.00567188
-0.00591167
-0.00609298
-0.00618907
-0.0063009
-0.00659665
-0.00695137
-0.00726502
-0.00751117
-0.00481749
-0.00483145
-0.00484108
-0.00484416
-0.00484153
-0.00483355
-0.00482016
-0.00480116
-0.00477624
-0.00474494
-0.00470678
-0.00466107
-0.00460644
-0.00454094
-0.00446233
-0.00436869
-0.00426211
-0.00414952
-0.0038492
-0.00374116
-0.00365929
-0.00373801
-0.00390415
-0.00412705
-0.00437958
-0.0044188
-0.00427849
-0.00411159
-0.00400702
-0.00383665
-0.00341179
-0.000567825
-0.00126147
-0.00211814
-0.00259449
-0.0026016
-0.00179891
-0.0018483
-0.00385984
-0.00478994
-0.00517785
-0.00608152
-0.00578003
-0.00593779
-0.00642224
-0.00625823
-0.00677727
-0.00733026
-0.00775808
-0.00806923
-0.00489158
-0.00490497
-0.00491419
-0.00491712
-0.00491456
-0.00490684
-0.00489391
-0.00487554
-0.00485134
-0.00482079
-0.00478324
-0.00473757
-0.00468162
-0.00461216
-0.00452501
-0.00441518
-0.00427782
-0.00410531
-0.00387908
-0.00360546
-0.00343908
-0.00360137
-0.00309497
-0.00257607
-0.00356152
-0.00493143
-0.0043867
-0.00416938
-0.00397242
-0.00344791
-0.00371111
-0.00359404
-0.00305747
-0.00256273
-0.00227335
-0.00246376
-0.00356011
-0.00176544
-0.0034329
-0.00399382
-0.00483996
-0.00448076
0.00775591
0.0097944
0.000280032
-0.00562381
-0.00699298
-0.00782355
-0.0083879
-0.00876805
-0.00497119
-0.00498368
-0.00499227
-0.00499496
-0.00499252
-0.00498526
-0.00497313
-0.00495589
-0.00493316
-0.0049044
-0.00486891
-0.00482532
-0.00477091
-0.00470156
-0.00461162
-0.00449362
-0.00433695
-0.00411748
-0.00379734
-0.00332545
-0.00288008
-0.00213136
0.000596867
0.00199993
0.00333013
-0.00413592
-0.00422497
-0.00395946
-0.0039356
-0.00238313
-0.00332234
-0.00287152
-0.00250753
-0.00246111
-0.00249954
-0.00274175
-0.00340366
-0.00410826
-0.00476302
-0.00436336
-0.00464311
0.00511535
0.00966751
0.00829546
0.00565533
-0.00316807
-0.00773861
-0.00864855
-0.00926367
-0.00966903
-0.0050559
-0.00506717
-0.00507491
-0.00507729
-0.00507502
-0.0050684
-0.00505739
-0.00504179
-0.00502128
-0.00499544
-0.00496367
-0.00492467
-0.00487582
-0.00481307
-0.00473071
-0.0046206
-0.00446909
-0.00424607
-0.00385887
-0.0030859
-0.00230636
-0.000964833
0.000177048
0.00121715
0.00250215
-0.00363534
-0.00393141
-0.0037626
-0.00362988
-0.00320874
-0.00311913
-0.00298028
-0.00269574
-0.00260902
-0.00253019
-0.0026587
-0.00303121
-0.00344822
-0.00379123
-0.00419253
-0.00436491
0.00196154
0.008201
0.0081591
0.00796028
0.00131494
-0.00913491
-0.00991059
-0.0104484
-0.0108067
-0.0051451
-0.00515488
-0.00516157
-0.00516357
-0.00516151
-0.00515567
-0.00514604
-0.00513251
-0.00511486
-0.00509286
-0.00506624
-0.00503418
-0.00499484
-0.00494558
-0.00488311
-0.00480327
-0.00469771
-0.00454664
-0.00430362
-0.00319384
-0.00261729
-0.000738862
-0.000247295
0.000258895
-0.00190307
-0.00366111
-0.00357982
-0.00345291
-0.00329061
-0.00303377
-0.0029161
-0.00212776
-0.00179055
-0.00203934
-0.00230839
-0.00236717
-0.00259759
-0.00290587
-0.00326102
-0.00348863
-0.00400528
-0.00439296
0.00231287
0.00821276
0.00847993
-0.00435047
-0.0107703
-0.0113124
-0.0118033
-0.0121469
-0.00523806
-0.00524613
-0.0052516
-0.00525315
-0.00525131
-0.00524633
-0.00523825
-0.00522703
-0.00521261
-0.00519497
-0.00517423
-0.00515024
-0.00512234
-0.00508989
-0.00505319
-0.00501408
-0.00497348
-0.00492651
-0.00474163
-0.000685119
0.000945552
-0.000811053
-0.00168405
-0.00191047
-0.00273336
-0.0031328
-0.00323321
-0.00317849
-0.00304836
-0.00286011
-0.00269136
-0.00201193
-0.00203472
-0.0021213
-0.00198035
-0.00194655
-0.00208222
-0.00234494
-0.00262911
-0.00299857
-0.00350883
-0.00363153
-0.00486199
-0.00561431
-0.00733849
-0.0106936
-0.012086
-0.0126971
-0.0132858
-0.0136851
-0.00533395
-0.00534013
-0.00534426
-0.0053453
-0.00534365
-0.00533955
-0.00533307
-0.00532423
-0.00531307
-0.00529977
-0.00528474
-0.00526841
-0.00525106
-0.0052336
-0.00521858
-0.00521067
-0.0052129
-0.00522473
-0.00504066
0.00233255
0.00223868
-0.000770071
-0.00161872
-0.00177072
-0.00259608
-0.00293849
-0.0030272
-0.00297675
-0.00284401
-0.00268066
-0.00238062
-0.00221808
-0.00190129
-0.00165375
-0.00153636
-0.00140908
-0.00145829
-0.0016628
-0.00184085
-0.00217274
-0.00313117
-0.00402567
-0.00429627
-0.0057564
-0.00839288
-0.0112201
-0.0128559
-0.0141875
-0.0149712
-0.0154751
-0.00543186
-0.00543605
-0.00543876
-0.00543921
-0.00543772
-0.00543447
-0.00542954
-0.00542297
-0.00541487
-0.00540546
-0.00539532
-0.0053852
-0.00537601
-0.00536973
-0.00537104
-0.00538733
-0.0054337
-0.00553323
-0.0054602
-0.0025686
0.000190434
-0.00357231
-0.00313891
-0.00277788
-0.00290727
-0.0030031
-0.00298023
-0.00286839
-0.00269159
-0.00245517
-0.00213675
-0.00188179
-0.00166388
-0.00142187
-0.00103334
-0.000675703
-0.000716745
-0.000842524
-0.000888145
-0.00166643
0.00151897
0.000845158
-0.00411054
-0.00526067
-0.00845449
-0.0120335
-0.0145215
-0.0161497
-0.017048
-0.017634
-0.00553087
-0.00553302
-0.00553426
-0.0055341
-0.00553272
-0.00553026
-0.00552676
-0.00552228
-0.00551687
-0.0055107
-0.00550423
-0.00549816
-0.00549321
-0.00549077
-0.00549359
-0.00550594
-0.00554486
-0.00564947
-0.00579079
-0.00564641
-0.00498352
-0.00453295
-0.00388071
-0.00343333
-0.00326377
-0.00316006
-0.00302217
-0.00283469
-0.0026034
-0.00231923
-0.00194573
-0.00156002
-0.00134054
-0.000228473
-0.000443914
0.000530462
0.00112207
0.00181984
0.00363855
0.00307725
0.00142905
-0.000485789
-0.00238471
-0.00393067
-0.00837075
-0.0137264
-0.0172399
-0.0188619
-0.019639
-0.0201498
-0.00563007
-0.00563021
-0.00562997
-0.00562916
-0.00562786
-0.00562612
-0.00562397
-0.00562138
-0.00561834
-0.00561484
-0.00561107
-0.00560735
-0.00560375
-0.00560025
-0.00559717
-0.00559582
-0.00560291
-0.00561946
-0.00558347
-0.00542537
-0.00506333
-0.00463544
-0.00417769
-0.00380867
-0.00344902
-0.00334058
-0.00311412
-0.00285657
-0.00257269
-0.00225846
-0.00170784
-0.00135113
-0.000757398
-0.000409976
7.64978e-05
0.00246297
0.00692482
0.00958782
0.0112238
0.00262165
0.00500272
0.00328753
-0.0004118
-0.00209166
-0.00805434
-0.0162275
-0.0208325
-0.0222099
-0.0224972
-0.0224515
-0.00572863
-0.00572678
-0.00572509
-0.00572364
-0.0057224
-0.00572135
-0.00572048
-0.00571969
-0.00571883
-0.0057177
-0.00571615
-0.00571404
-0.00571076
-0.00570509
-0.00569556
-0.00568079
-0.00565929
-0.00561818
-0.00553801
-0.00535661
-0.00510712
-0.00473335
-0.0044206
-0.00408871
-0.00380418
-0.00352841
-0.0032402
-0.00292233
-0.00256801
-0.00208872
-0.000812222
-0.000641077
-7.00333e-05
0.000748365
0.000448429
0.00876725
0.00823713
0.00853531
0.00438793
0.00793828
0.0102106
0.00766212
0.000360719
-0.000204953
-0.00848471
-0.019295
-0.0240054
-0.0245715
-0.0243174
-0.0238629
-0.00582573
-0.00582196
-0.00581885
-0.00581679
-0.00581562
-0.00581528
-0.00581569
-0.00581669
-0.00581801
-0.00581926
-0.00581997
-0.00581959
-0.00581703
-0.00581036
-0.00579707
-0.00577421
-0.00573722
-0.00567756
-0.00558963
-0.00521363
-0.0052039
-0.00493303
-0.00463599
-0.00433689
-0.00404206
-0.003736
-0.0034023
-0.00303611
-0.00262232
-0.00208455
-0.000775102
-0.000365569
8.95517e-05
0.00112033
0.00097477
0.00808143
0.0071548
0.00240601
0.0105257
0.0111613
0.0127378
0.0101895
-0.00671486
0.0102824
-0.00824416
-0.0211471
-0.0243324
-0.0236845
-0.0294065
-0.0424596
-0.00592063
-0.00591499
-0.00591052
-0.00590787
-0.00590682
-0.00590723
-0.005909
-0.00591189
-0.00591555
-0.00591943
-0.00592283
-0.00592486
-0.0059242
-0.00591857
-0.0059049
-0.00587962
-0.00583826
-0.00577528
-0.00567886
-0.00554757
-0.00533479
-0.00511592
-0.00486267
-0.00458817
-0.00429587
-0.00397823
-0.00359182
-0.00321582
-0.00275552
-0.00221906
-0.00152418
-0.000851143
-0.00027613
0.000980903
0.00335215
0.00979008
0.0116314
0.0116728
0.00354815
0.00261849
0.0147983
0.0133702
0.0277252
0.139664
0.0499127
-0.0279873
-0.0908885
-0.0727036
-0.0979412
1.65696
-0.00601261
-0.00600514
-0.00599935
-0.00599617
-0.00599528
-0.00599653
-0.00599976
-0.00600473
-0.00601101
-0.00601795
-0.0060247
-0.00603017
-0.00603292
-0.00603061
-0.00602005
-0.00599755
-0.00595889
-0.00589879
-0.00581053
-0.0056924
-0.00552951
-0.00533189
-0.00511308
-0.00486516
-0.00458814
-0.00427618
-0.00391489
-0.00349241
-0.00298269
-0.00234256
-0.00151368
-0.000583342
0.000303789
0.00153555
0.0117998
0.00725497
0.0144239
0.0170802
0.0153979
0.0365735
0.0304452
0.0382634
0.167635
0.638008
1.95027
1.8389
6.0013
26.3382
45.4042
45.6315
-0.00610097
-0.00609171
-0.00608462
-0.00608094
-0.00608029
-0.00608245
-0.00608731
-0.00609458
-0.00610381
-0.00611432
-0.00612518
-0.00613522
-0.00614298
-0.00614629
-0.00614213
-0.00612699
-0.00609701
-0.00604804
-0.00597549
-0.00587337
-0.00574107
-0.00558196
-0.00539755
-0.00518165
-0.00493356
-0.00464792
-0.00430754
-0.00389929
-0.00338402
-0.00265987
-0.00161075
-0.000497195
0.000265022
0.00527619
0.0122456
0.0109396
0.006439
0.0164149
0.0171116
0.027751
0.00636931
0.0874349
1.3248
8.33405
17.4023
29.7535
41.7988
46.0424
48.0072
47.0796
-0.00618501
-0.00617395
-0.00616559
-0.00616145
-0.00616108
-0.00616427
-0.00617089
-0.00618068
-0.00619321
-0.00620779
-0.00622352
-0.00623923
-0.00625351
-0.0062645
-0.00626953
-0.00626544
-0.00624888
-0.00621648
-0.00616482
-0.00609028
-0.00598985
-0.00586819
-0.00572074
-0.00554305
-0.00534473
-0.00510712
-0.00481717
-0.00447153
-0.00404095
-0.00329961
-0.00178856
0.000417363
0.00135068
0.0101191
0.0134309
0.0166472
0.0138218
0.0262604
0.026004
0.017994
-0.0528004
3.39854
12.936
27.3683
40.757
41.942
42.6688
44.1154
45.1134
44.9701
-0.00626401
-0.00625114
-0.00624151
-0.00623693
-0.0062369
-0.00624119
-0.00624971
-0.00626222
-0.00627834
-0.00629744
-0.00631869
-0.00634103
-0.00636317
-0.00638357
-0.0064001
-0.00641011
-0.00641076
-0.0063993
-0.00637317
-0.00632972
-0.00626621
-0.00618726
-0.00608684
-0.0056392
-0.00582623
-0.00565956
-0.00545342
-0.0052174
-0.00497917
-0.00429706
-0.00344687
0.000978018
0.00328076
0.00498698
0.0138586
0.0340677
0.0293034
0.0288412
0.0362489
0.0717523
4.58163
19.3727
30.7765
37.8855
39.8302
40.8007
41.7533
42.7511
43.4087
43.489
-0.00633722
-0.00632252
-0.00631161
-0.00630661
-0.00630695
-0.00631241
-0.00632292
-0.0063383
-0.00635822
-0.00638219
-0.00640949
-0.00643921
-0.00647028
-0.00650149
-0.00653133
-0.00655781
-0.00657871
-0.00659191
-0.0065955
-0.00658783
-0.00656695
-0.00653413
-0.00649383
-0.0064371
-0.00636549
-0.00628606
-0.00614503
-0.00605992
-0.00579936
-0.00166522
-0.000580438
-0.00361542
0.00199701
-0.0017278
0.0290889
0.0340966
0.0355911
0.0230675
0.0436924
4.14857
18.595
33.4289
37.2447
37.9284
39.0791
40.0398
40.9594
41.775
42.2894
42.4408
-0.00640387
-0.00638733
-0.00637514
-0.00636972
-0.00637046
-0.0063771
-0.00638964
-0.00640796
-0.00643183
-0.00646088
-0.00649455
-0.00653217
-0.00657294
-0.00661603
-0.00666051
-0.00670519
-0.0067486
-0.00678931
-0.00682607
-0.00685791
-0.00688416
-0.00690592
-0.00692577
-0.00694179
-0.00695418
-0.00697427
-0.00699823
-0.00701736
-0.00699766
-0.00670961
-0.00747151
-0.00739949
-0.0040974
0.00775547
0.051011
0.0803185
0.0506533
0.0214598
3.73389
17.2063
31.791
34.8725
36.807
37.822
38.7834
39.6267
40.4224
41.0952
41.5392
41.7162
-0.00646316
-0.00644479
-0.00643132
-0.00642549
-0.00642661
-0.00643443
-0.00644899
-0.00647026
-0.0064981
-0.00653229
-0.00657249
-0.00661828
-0.0066692
-0.00672483
-0.00678483
-0.00684883
-0.00691627
-0.00698654
-0.00705912
-0.0071338
-0.00721081
-0.00729158
-0.00737943
-0.00747704
-0.00758794
-0.00771886
-0.0078699
-0.00803946
-0.00818138
-0.00806596
-0.00817594
0.00304268
0.0157975
0.0295789
0.027404
0.0254029
0.050016
1.93509
12.8852
31.2307
35.1382
36.1979
37.2435
37.9484
38.7001
39.4289
40.1023
40.6618
41.0475
41.2305
-0.00651429
-0.00649412
-0.0064794
-0.00647316
-0.00647464
-0.0064836
-0.00650011
-0.00652425
-0.00655599
-0.00659525
-0.00664192
-0.00669588
-0.00675706
-0.00682552
-0.00690148
-0.00698535
-0.00707758
-0.00717854
-0.00728859
-0.00740841
-0.00753918
-0.00768338
-0.0078458
-0.00803233
-0.00825012
-0.0085084
-0.00881559
-0.00916795
-0.00951933
-0.00980589
-0.00659059
-0.00544014
-0.00441476
0.00866564
0.0350799
0.0399171
0.586339
5.40667
24.913
35.7734
35.9661
36.6989
37.5078
38.1338
38.7635
39.3814
39.9408
40.402
40.7315
40.9083
-0.00655648
-0.00653458
-0.00651864
-0.006512
-0.00651381
-0.00652383
-0.00654219
-0.00656904
-0.00660449
-0.00664861
-0.00670152
-0.0067634
-0.00683461
-0.00691573
-0.00700761
-0.0071114
-0.00722848
-0.00736031
-0.00750833
-0.00767418
-0.00786015
-0.00807001
-0.00831023
-0.00858997
-0.00892103
-0.00931752
-0.0097931
-0.0103499
-0.0109623
-0.0115455
-0.0114486
-0.0106592
-0.00795749
-0.00079843
0.00651319
-0.00217638
1.86346
13.1267
35.0384
35.6596
36.2118
36.8893
37.6283
38.2826
38.8771
39.413
39.8751
40.2513
40.5266
40.6888
-0.00658895
-0.00656544
-0.00654836
-0.00654133
-0.00654343
-0.00655442
-0.00657447
-0.00660382
-0.00664269
-0.00669132
-0.00675004
-0.00681937
-0.00690007
-0.00699328
-0.00710052
-0.00722369
-0.00736505
-0.00752706
-0.00771229
-0.00792349
-0.00816416
-0.00843954
-0.00875819
-0.00913289
-0.00958094
-0.0101239
-0.0107853
-0.0115865
-0.0125277
-0.0134891
-0.0143733
-0.0149438
-0.0143916
-0.0104241
-0.00496558
-0.0169448
1.22729
29.7784
36.2466
36.2607
36.6644
37.2102
37.8487
38.4703
39.0194
39.4824
39.8618
40.1644
40.3898
40.5324
-0.006611
-0.00658604
-0.00656794
-0.00656053
-0.00656289
-0.00657472
-0.00659627
-0.00662785
-0.00666976
-0.00672242
-0.00678637
-0.00686244
-0.00695182
-0.00705618
-0.0071777
-0.0073191
-0.00748347
-0.00767418
-0.00789473
-0.00814895
-0.0084416
-0.00877955
-0.00917365
-0.00964056
-0.0102039
-0.0108947
-0.0117522
-0.0128202
-0.0141424
-0.0157572
-0.0177309
-0.0201973
-0.0206527
-0.0207087
-0.00702187
0.0426263
12.3873
38.292
37.3071
37.0719
37.2656
37.6701
38.1943
38.7249
39.1929
39.5757
39.8794
40.1176
40.2973
40.4176
-0.00662201
-0.0065958
-0.00657683
-0.00656914
-0.00657166
-0.00658419
-0.006607
-0.00664046
-0.00668498
-0.00674108
-0.00680953
-0.00689144
-0.00698841
-0.00710263
-0.00723694
-0.00739482
-0.0075802
-0.00779726
-0.00805026
-0.00834372
-0.00868341
-0.00907778
-0.00953996
-0.0100901
-0.0107577
-0.0115828
-0.0126185
-0.0139339
-0.0156238
-0.0178529
-0.0209838
-0.0253496
-0.0299075
-0.0307945
-0.0681519
-0.974727
30.6836
39.1092
38.3056
37.9702
37.9794
38.2203
38.6144
39.02
39.3866
39.6849
39.9178
40.0992
40.2381
40.3359
-0.00662143
-0.00659422
-0.00657452
-0.00656655
-0.00656924
-0.00658233
-0.00660616
-0.00664112
-0.0066877
-0.00674657
-0.00681866
-0.00690535
-0.00700861
-0.0071311
-0.0072763
-0.00744842
-0.00765217
-0.00789245
-0.00817399
-0.00850163
-0.00888153
-0.00932321
-0.00984177
-0.0104601
-0.0112112
-0.0121402
-0.0133062
-0.0147858
-0.0166898
-0.0192179
-0.0227844
-0.0274984
-0.0319245
-0.0314773
-0.128014
2.80722
40.5895
39.6938
39.0956
38.7513
38.6589
38.7737
39.024
39.3139
39.5811
39.7993
39.969
40.1015
40.2055
40.2828
-0.00469673
-0.00469675
-0.0046898
-0.00467566
-0.00465419
-0.00462541
-0.00458944
-0.00454649
-0.0044969
-0.00444109
-0.00437957
-0.00431289
-0.00424168
-0.0041666
-0.00408834
-0.00400758
-0.00392497
-0.00384117
-0.00375679
-0.00367241
-0.00358854
-0.00350565
-0.00342414