/*--------------------------------*- C++ -*----------------------------------*\
| =========                 |                                                 |
| \\      /  F ield         | OpenFOAM: The Open Source CFD Toolbox           |
|  \\    /   O peration     | Version:  2.4.0                                 |
|   \\  /    A nd           | Web:      www.OpenFOAM.org                      |
|    \\/     M anipulation  |                                                 |
\*---------------------------------------------------------------------------*/
FoamFile
{
    version     2.0;
    format      ascii;
    class       surfaceScalarField;
    location    "0.149";
    object      phi;
}
// * * * * * * * * * * * * * * * * * * * * * * * * * * * * * * * * * * * * * //

dimensions      [0 3 -1 0 0 0 0];

internalField   nonuniform List<scalar> 
114720
(
5.38479e-10
4.76826e-10
-2.69362e-10
-7.45944e-10
-1.96185e-09
3.39497e-09
7.58569e-10
-2.19169e-09
-9.36441e-09
1.13357e-08
8.04135e-10
-2.77543e-09
-1.73349e-08
1.90087e-08
6.31102e-10
-2.30491e-09
-2.32352e-08
2.42288e-08
2.89249e-10
-1.28289e-09
-2.63894e-08
2.68794e-08
4.92718e-11
-5.39257e-10
-2.80677e-08
2.8243e-08
-1.03054e-10
-7.22919e-11
-2.77072e-08
2.703e-08
-4.99974e-10
1.17713e-09
-2.27091e-08
2.05644e-08
-1.18474e-09
3.32943e-09
-1.14459e-08
8.04496e-09
-1.59544e-09
4.99636e-09
2.87653e-09
-6.08665e-09
-1.23462e-09
4.44474e-09
1.44823e-08
-1.65284e-08
-5.80451e-10
2.62649e-09
2.11956e-08
-2.21894e-08
-1.42076e-10
1.13588e-09
2.42551e-08
-2.46606e-08
3.40874e-11
3.71362e-10
2.54655e-08
-2.56122e-08
6.9091e-11
7.75633e-11
2.58366e-08
-2.58395e-08
7.393e-11
-7.1064e-11
2.56286e-08
-2.54881e-08
9.50094e-11
-2.35492e-10
2.48021e-08
-2.45094e-08
1.33132e-10
-4.25917e-10
2.33664e-08
-2.29429e-08
1.72086e-10
-5.95639e-10
2.14468e-08
-2.09316e-08
2.01697e-10
-7.16933e-10
1.92129e-08
-1.86474e-08
2.18308e-10
-7.83818e-10
1.68271e-08
-1.6246e-08
2.23246e-10
-8.04322e-10
1.44193e-08
-1.38477e-08
2.18988e-10
-7.90541e-10
1.20802e-08
-1.15358e-08
2.08122e-10
-7.52429e-10
9.8712e-09
-9.36325e-09
1.93692e-10
-7.01647e-10
7.82395e-09
-7.3576e-09
1.77252e-10
-6.43606e-10
5.95109e-09
-5.52665e-09
1.60845e-10
-5.85289e-10
4.25122e-09
-3.86732e-09
1.45067e-10
-5.28966e-10
2.71569e-09
-2.36976e-09
1.30494e-10
-4.76415e-10
1.33147e-09
-1.01992e-09
1.17429e-10
-4.28981e-10
2.3394e-09
5.48885e-09
-3.49515e-09
-4.3331e-09
2.51734e-09
9.06299e-09
-3.84441e-10
-1.11959e-08
-9.25132e-09
1.25905e-08
1.28812e-08
-1.62203e-08
-2.37911e-08
1.04097e-08
2.71575e-08
-1.37762e-08
-3.63652e-08
6.80123e-09
3.89177e-08
-9.35372e-09
-4.56097e-08
4.64638e-09
4.75922e-08
-6.62884e-09
-5.3017e-08
2.45735e-09
5.44929e-08
-3.93322e-09
-5.72231e-08
-3.21576e-09
5.73447e-08
3.09411e-09
-5.45596e-08
-1.21004e-08
5.24629e-08
1.41972e-08
-4.23803e-08
-1.92184e-08
3.80111e-08
2.35877e-08
-2.26109e-08
-1.90263e-08
1.72526e-08
2.43845e-08
-1.35408e-09
-1.38364e-08
-3.44338e-09
1.86339e-08
1.62774e-08
-8.36182e-09
-1.98172e-08
1.19016e-08
2.86445e-08
-4.61939e-09
-3.09222e-08
6.89717e-09
3.62462e-08
-2.3085e-09
-3.75102e-08
3.57246e-09
4.01296e-08
-6.46784e-10
-4.06203e-08
1.13749e-09
4.11454e-08
8.08575e-10
-4.10322e-08
-9.21744e-10
3.99681e-08
2.02364e-09
-3.94209e-08
-2.57086e-09
3.72889e-08
2.88909e-09
-3.64717e-08
-3.70635e-09
3.37266e-08
3.40514e-09
-3.27694e-08
-4.36239e-09
2.97465e-08
3.6329e-09
-2.87397e-08
-4.63973e-09
2.56646e-08
3.65014e-09
-2.46676e-08
-4.64708e-09
2.16855e-08
3.52676e-09
-2.07358e-08
-4.47652e-09
1.79364e-08
3.31439e-09
-1.70564e-08
-4.19439e-09
1.44892e-08
3.05633e-09
-1.36896e-08
-3.85587e-09
1.13743e-08
2.78209e-09
-1.06572e-08
-3.49918e-09
8.58684e-09
2.51599e-09
-7.94685e-09
-3.15598e-09
6.10016e-09
2.26682e-09
-5.52883e-09
-2.83815e-09
3.8778e-09
2.04191e-09
-3.36526e-09
-2.55445e-09
1.88125e-09
1.83655e-09
-1.42045e-09
-2.29735e-09
3.01003e-09
1.51943e-08
-1.26051e-08
-5.59923e-09
5.51419e-09
1.73107e-08
-3.52394e-09
-1.9301e-08
-6.00115e-09
2.72692e-08
9.69677e-09
-3.09649e-08
-2.09476e-08
2.42749e-08
2.44837e-08
-2.7811e-08
-3.43258e-08
1.75441e-08
3.7104e-08
-2.03223e-08
-4.45403e-08
1.31785e-08
4.67941e-08
-1.54322e-08
-5.31434e-08
9.08979e-09
5.49638e-08
-1.09102e-08
-5.8895e-08
-1.78403e-09
5.94735e-08
1.20561e-09
-5.83648e-08
-1.9157e-08
5.6927e-08
2.05948e-08
-4.92768e-08
-3.4974e-08
4.58343e-08
3.84165e-08
-3.33722e-08
-3.91356e-08
2.88903e-08
4.36174e-08
-1.50036e-08
-3.27897e-08
1.05979e-08
3.71954e-08
1.79672e-09
-2.30965e-08
-5.40772e-09
2.67075e-08
1.48394e-08
-1.44998e-08
-1.73836e-08
1.7044e-08
2.35468e-08
-7.9461e-09
-2.50702e-08
9.46951e-09
2.84139e-08
-2.9937e-09
-2.91273e-08
3.70702e-09
3.03356e-08
9.48713e-10
-3.04547e-08
-8.29641e-10
3.01388e-08
3.89474e-09
-2.98488e-08
-4.1847e-09
2.85272e-08
5.81794e-09
-2.79795e-08
-6.36566e-09
2.60534e-08
6.88464e-09
-2.53593e-08
-7.57875e-09
2.31133e-08
7.31854e-09
-2.23502e-08
-8.08168e-09
1.99828e-08
7.31395e-09
-1.92055e-08
-8.09133e-09
1.68588e-08
7.02011e-09
-1.61063e-08
-7.77257e-09
1.38816e-08
6.54175e-09
-1.31821e-08
-7.24128e-09
1.11491e-08
5.96735e-09
-1.05204e-08
-6.59612e-09
8.71861e-09
5.36435e-09
-8.1678e-09
-5.91516e-09
6.60019e-09
4.79344e-09
-6.1229e-09
-5.27073e-09
4.76378e-09
4.28047e-09
-4.34813e-09
-4.69613e-09
3.15615e-09
3.83963e-09
-2.78797e-09
-4.20781e-09
1.72273e-09
3.45242e-09
-1.39154e-09
-3.78361e-09
3.24084e-09
2.60463e-08
-2.3278e-08
-6.00913e-09
6.25828e-09
2.52714e-08
-4.25208e-09
-2.72776e-08
-5.31854e-09
4.20972e-08
9.05022e-09
-4.58289e-08
-2.03463e-08
3.84449e-08
2.38991e-08
-4.19977e-08
-3.3788e-08
2.86538e-08
3.65605e-08
-3.14263e-08
-4.3976e-08
2.223e-08
4.62462e-08
-2.45003e-08
-5.27168e-08
1.64757e-08
5.45994e-08
-1.83583e-08
-5.87488e-08
6.75011e-10
5.94132e-08
-1.33937e-09
-5.8576e-08
-2.47531e-08
5.72094e-08
2.61198e-08
-4.97417e-08
-4.84875e-08
4.63781e-08
5.18511e-08
-3.44244e-08
-5.64318e-08
3.02225e-08
6.06337e-08
-1.74982e-08
-4.95854e-08
1.35373e-08
5.35463e-08
-2.49513e-09
-3.68785e-08
-7.186e-10
4.00922e-08
9.20854e-09
-2.43639e-08
-1.1552e-08
2.67073e-08
1.74406e-08
-1.40617e-08
-1.89761e-08
1.55972e-08
2.25958e-08
-6.09047e-09
-2.34627e-08
6.95732e-09
2.52782e-08
9.14345e-11
-2.56285e-08
2.58834e-10
2.6071e-08
4.624e-09
-2.60341e-08
-4.66089e-09
2.54638e-08
7.60159e-09
-2.51486e-08
-7.91682e-09
2.38768e-08
9.31311e-09
-2.33772e-08
-9.81271e-09
2.1664e-08
1.00901e-08
-2.10558e-08
-1.06983e-08
1.91056e-08
1.0205e-08
-1.8447e-08
-1.08635e-08
1.64127e-08
9.86623e-09
-1.57468e-08
-1.05321e-08
1.37419e-08
9.22226e-09
-1.31004e-08
-9.86375e-09
1.12059e-08
8.40078e-09
-1.06108e-08
-8.99593e-09
8.88077e-09
7.51096e-09
-8.34446e-09
-8.04727e-09
6.79896e-09
6.66222e-09
-6.32263e-09
-7.13854e-09
4.95243e-09
5.91303e-09
-4.52931e-09
-6.33615e-09
3.30648e-09
5.28988e-09
-2.92617e-09
-5.67019e-09
1.82019e-09
4.76107e-09
-1.47479e-09
-5.10646e-09
3.41335e-09
3.74202e-08
-3.45315e-08
-6.30206e-09
6.58772e-09
3.33742e-08
-4.52546e-09
-3.54364e-08
-5.1571e-09
5.70969e-08
8.93946e-09
-6.08793e-08
-2.02943e-08
5.26822e-08
2.38652e-08
-5.62531e-08
-3.38093e-08
3.9727e-08
3.65704e-08
-4.24881e-08
-4.39237e-08
3.13163e-08
4.61972e-08
-3.35898e-08
-5.27626e-08
2.40923e-08
5.4706e-08
-2.60356e-08
-5.90743e-08
3.45906e-09
5.98296e-08
-4.21438e-09
-5.92511e-08
-3.01685e-08
5.79241e-08
3.14955e-08
-5.03516e-08
-6.20862e-08
4.68863e-08
6.55515e-08
-3.45518e-08
-7.33508e-08
3.02436e-08
7.7659e-08
-1.74024e-08
-6.52884e-08
1.34818e-08
6.9209e-08
-2.74178e-09
-4.94639e-08
-3.4202e-10
5.25477e-08
8.46379e-09
-3.35693e-08
-1.07219e-08
3.58274e-08
1.65107e-08
-2.02323e-08
-1.80666e-08
2.17882e-08
2.18721e-08
-9.71428e-09
-2.28279e-08
1.06701e-08
2.49518e-08
-1.50362e-09
-2.54065e-08
1.95836e-09
2.61499e-08
4.59653e-09
-2.62024e-08
-4.54403e-09
2.58732e-08
8.72338e-09
-2.56264e-08
-8.97017e-09
2.4536e-08
1.12038e-08
-2.40885e-08
-1.16513e-08
2.25181e-08
1.24378e-08
-2.1952e-08
-1.30039e-08
2.01179e-08
1.27725e-08
-1.94936e-08
-1.33968e-08
1.75504e-08
1.24831e-08
-1.69092e-08
-1.31243e-08
1.49602e-08
1.17673e-08
-1.43295e-08
-1.23981e-08
1.244e-08
1.07928e-08
-1.18363e-08
-1.13964e-08
1.00463e-08
9.70284e-09
-9.47914e-09
-1.02701e-08
7.80626e-09
8.64541e-09
-7.27852e-09
-9.17315e-09
5.72781e-09
7.70367e-09
-5.23973e-09
-8.19175e-09
3.80834e-09
6.91672e-09
-3.35808e-09
-7.36699e-09
2.04008e-09
6.24489e-09
-1.627e-09
-6.65797e-09
3.61704e-09
4.93147e-08
-4.62863e-08
-6.64543e-09
6.92446e-09
4.17269e-08
-4.79058e-09
-4.38608e-08
-5.03881e-09
7.23135e-08
8.88076e-09
-7.61554e-08
-2.03072e-08
6.69985e-08
2.39005e-08
-7.05917e-08
-3.39205e-08
5.07518e-08
3.66674e-08
-5.34988e-08
-4.39359e-08
4.04144e-08
4.62117e-08
-4.26902e-08
-5.28942e-08
3.19764e-08
5.49145e-08
-3.39968e-08
-5.95593e-08
6.65532e-09
6.04383e-08
-7.53438e-09
-6.02192e-08
-3.53858e-08
5.89579e-08
3.66471e-08
-5.12949e-08
-7.6116e-08
4.77149e-08
7.9696e-08
-3.48761e-08
-9.08477e-08
3.0385e-08
9.53388e-08
-1.70803e-08
-8.11072e-08
1.30566e-08
8.51309e-08
-2.14961e-09
-6.17996e-08
-9.50849e-10
6.49001e-08
9.07286e-09
-4.25851e-08
-1.13283e-08
4.48406e-08
1.71374e-08
-2.6486e-08
-1.87122e-08
2.80608e-08
2.26078e-08
-1.36005e-08
-2.35991e-08
1.45919e-08
2.58273e-08
-3.37713e-09
-2.63106e-08
3.86045e-09
2.71134e-08
4.3599e-09
-2.71758e-08
-4.29752e-09
2.68536e-08
9.70423e-09
-2.66037e-08
-9.9541e-09
2.54971e-08
1.29944e-08
-2.50432e-08
-1.34483e-08
2.34558e-08
1.47006e-08
-2.28854e-08
-1.5271e-08
2.10426e-08
1.52634e-08
-2.04169e-08
-1.58891e-08
1.8473e-08
1.50406e-08
-1.7832e-08
-1.56816e-08
1.58809e-08
1.42896e-08
-1.52476e-08
-1.49229e-08
1.33401e-08
1.32222e-08
-1.2726e-08
-1.38363e-08
1.08868e-08
1.20085e-08
-1.02972e-08
-1.2598e-08
8.53704e-09
1.08153e-08
-7.97481e-09
-1.13775e-08
6.30438e-09
9.73042e-09
-5.77333e-09
-1.02615e-08
4.20423e-09
8.79794e-09
-3.70774e-09
-9.29443e-09
2.24924e-09
7.97507e-09
-1.79106e-09
-8.43325e-09
3.86967e-09
6.18475e-08
-5.86469e-08
-7.0703e-09
7.33044e-09
5.03844e-08
-5.11271e-09
-5.26021e-08
-4.90308e-09
8.77815e-08
8.81379e-09
-9.16922e-08
-2.03277e-08
8.14114e-08
2.39488e-08
-8.50325e-08
-3.40694e-08
6.17132e-08
3.67978e-08
-6.44416e-08
-4.39524e-08
4.95198e-08
4.62295e-08
-5.17968e-08
-5.3054e-08
4.01925e-08
5.51675e-08
-4.2306e-08
-6.01404e-08
1.04013e-08
6.11816e-08
-1.14425e-08
-6.1425e-08
-4.03021e-08
6.02558e-08
4.14714e-08
-5.24924e-08
-9.06286e-08
4.87792e-08
9.43418e-08
-3.53423e-08
-1.09128e-07
3.06323e-08
1.13838e-07
-1.67538e-08
-9.74041e-08
1.25904e-08
1.01568e-07
-1.40087e-09
-7.42753e-08
-1.75253e-09
7.74287e-08
9.96913e-09
-5.16316e-08
-1.22426e-08
5.39051e-08
1.80987e-08
-3.281e-08
-1.96904e-08
3.44016e-08
2.36485e-08
-1.75994e-08
-2.46623e-08
1.86132e-08
2.695e-08
-5.32992e-09
-2.74459e-08
5.82591e-09
2.82563e-08
4.12031e-09
-2.8311e-08
-4.06555e-09
2.79385e-08
1.0734e-08
-2.76662e-08
-1.10064e-08
2.64808e-08
1.48463e-08
-2.59998e-08
-1.53273e-08
2.43286e-08
1.70167e-08
-2.37319e-08
-1.76134e-08
2.18137e-08
1.77951e-08
-2.1165e-08
-1.84438e-08
1.91547e-08
1.76295e-08
-1.84934e-08
-1.82907e-08
1.64847e-08
1.68446e-08
-1.58338e-08
-1.74955e-08
1.38748e-08
1.57006e-08
-1.32445e-08
-1.63309e-08
1.13567e-08
1.43913e-08
-1.07514e-08
-1.49966e-08
8.94303e-09
1.3092e-08
-8.36502e-09
-1.36701e-08
6.64584e-09
1.18852e-08
-6.09867e-09
-1.24324e-08
4.47912e-09
1.08165e-08
-3.96561e-09
-1.133e-08
2.45376e-09
9.84083e-09
-1.97758e-09
-1.0317e-08
4.17945e-09
7.5163e-08
-7.17525e-08
-7.58997e-09
7.81109e-09
5.9394e-08
-5.49832e-09
-6.17068e-08
-4.74328e-09
1.03536e-07
8.7302e-09
-1.07523e-07
-2.03433e-08
9.59422e-08
2.39967e-08
-9.95956e-08
-3.42443e-08
7.25912e-08
3.69477e-08
-7.52946e-08
-4.39496e-08
5.86265e-08
4.62252e-08
-6.09021e-08
-5.32155e-08
4.88043e-08
5.54374e-08
-5.10262e-08
-6.07814e-08
1.48655e-08
6.20341e-08
-1.61182e-08
-6.28569e-08
-4.48006e-08
6.18153e-08
4.58422e-08
-5.39307e-08
-1.05707e-07
5.00619e-08
1.09576e-07
-3.59028e-08
-1.28346e-07
3.09297e-08
1.3332e-07
-1.63745e-08
-1.14292e-07
1.205e-08
1.18616e-07
-5.4145e-10
-8.69779e-08
-2.67197e-09
9.01913e-08
1.09891e-08
-6.07538e-08
-1.32815e-08
6.30462e-08
1.91883e-08
-3.92041e-08
-2.07992e-08
4.0815e-08
2.48308e-08
-2.16926e-08
-2.58718e-08
2.27335e-08
2.82349e-08
-7.33659e-09
-2.87477e-08
7.84941e-09
2.95702e-08
3.91639e-09
-2.96148e-08
-3.87177e-09
2.9175e-08
1.1868e-08
-2.88714e-08
-1.21716e-08
2.75767e-08
1.68249e-08
-2.70574e-08
-1.73442e-08
2.52678e-08
1.94585e-08
-2.46324e-08
-2.0094e-08
2.2598e-08
2.04427e-08
-2.19121e-08
-2.11286e-08
1.97932e-08
2.0322e-08
-1.90981e-08
-2.10171e-08
1.69923e-08
1.94892e-08
-1.63121e-08
-2.01694e-08
1.42735e-08
1.82538e-08
-1.36207e-08
-1.89066e-08
1.16769e-08
1.68337e-08
-1.10575e-08
-1.74531e-08
9.21888e-09
1.54151e-08
-8.63475e-09
-1.59993e-08
6.90582e-09
1.40789e-08
-6.35749e-09
-1.46272e-08
4.73656e-09
1.2875e-08
-4.22235e-09
-1.33892e-08
2.7037e-09
1.17546e-08
-2.22331e-09
-1.2235e-08
4.55174e-09
8.94179e-08
-8.57571e-08
-8.21245e-09
8.37077e-09
6.88025e-08
-5.95077e-09
-7.12225e-08
-4.56212e-09
1.19608e-07
8.63347e-09
-1.2368e-07
-2.03602e-08
1.10612e-07
2.40519e-08
-1.14303e-07
-3.44633e-08
8.33596e-08
3.71347e-08
-8.6031e-08
-4.3938e-08
6.77243e-08
4.62096e-08
-6.99959e-08
-5.33933e-08
5.78727e-08
5.57385e-08
-6.02179e-08
-6.14881e-08
2.02701e-08
6.30194e-08
-2.18013e-08
-6.45569e-08
-4.87194e-08
6.36929e-08
4.95834e-08
-5.56512e-08
-1.21445e-07
5.1603e-08
1.25493e-07
-3.6567e-08
-1.48699e-07
3.12751e-08
1.53991e-07
-1.5917e-08
-1.3186e-07
1.14072e-08
1.3637e-07
4.54361e-10
-9.99215e-08
-3.72736e-09
1.03194e-07
1.21378e-08
-6.99491e-08
-1.44462e-08
7.22574e-08
2.04037e-08
-4.56813e-08
-2.20376e-08
4.73152e-08
2.61648e-08
-2.59089e-08
-2.72429e-08
2.6987e-08
2.97153e-08
-9.42482e-09
-3.02551e-08
9.96467e-09
3.11068e-08
3.75313e-09
-3.11413e-08
-3.71866e-09
3.06198e-08
1.31379e-08
-3.02775e-08
-1.34802e-08
2.88464e-08
1.89706e-08
-2.82797e-08
-1.95373e-08
2.63443e-08
2.20691e-08
-2.56614e-08
-2.27521e-08
2.34842e-08
2.32527e-08
-2.27525e-08
-2.39843e-08
2.04981e-08
2.31642e-08
-1.97604e-08
-2.39019e-08
1.75322e-08
2.22633e-08
-1.68151e-08
-2.29803e-08
1.46769e-08
2.09047e-08
-1.39966e-08
-2.1585e-08
1.1987e-08
1.93332e-08
-1.13526e-08
-1.99676e-08
9.48877e-09
1.77554e-08
-8.90285e-09
-1.83413e-08
7.18513e-09
1.62632e-08
-6.64478e-09
-1.68035e-08
5.05467e-09
1.49203e-08
-4.5507e-09
-1.54243e-08
3.05567e-09
1.3674e-08
-2.57884e-09
-1.41508e-08
4.99334e-09
1.04783e-07
-1.00828e-07
-8.94828e-09
9.01053e-09
7.86578e-08
-6.47107e-09
-8.11972e-08
-4.3612e-09
1.36029e-07
8.5244e-09
-1.40192e-07
-2.03771e-08
1.25443e-07
2.41131e-08
-1.29179e-07
-3.47341e-08
9.39868e-08
3.73645e-08
-9.66172e-08
-4.39116e-08
7.68001e-08
4.61752e-08
-7.90637e-08
-5.35818e-08
6.74551e-08
5.60642e-08
-6.99375e-08
-6.22391e-08
2.69179e-08
6.41416e-08
-2.88203e-08
-6.65533e-08
-5.18278e-08
6.59386e-08
5.24425e-08
-5.76826e-08
-1.37933e-07
5.34333e-08
1.42182e-07
-3.73365e-08
-1.70421e-07
3.16604e-08
1.76097e-07
-1.53574e-08
-1.50208e-07
1.06362e-08
1.54929e-07
1.60602e-09
-1.13104e-07
-4.93884e-09
1.16437e-07
1.34243e-08
-7.91999e-08
-1.57426e-08
8.15182e-08
2.1745e-08
-5.22557e-08
-2.34054e-08
5.3916e-08
2.7652e-08
-3.02911e-08
-2.87793e-08
3.14185e-08
3.14075e-08
-1.16411e-08
-3.19889e-08
1.22225e-08
3.28951e-08
3.63025e-09
-3.29196e-08
-3.60575e-09
3.22971e-08
1.45765e-08
-3.19062e-08
-1.49675e-08
3.03075e-08
2.13193e-08
-2.96837e-08
-2.1943e-08
2.75768e-08
2.48814e-08
-2.68387e-08
-2.56195e-08
2.44972e-08
2.6256e-08
-2.37131e-08
-2.70401e-08
2.13029e-08
2.6187e-08
-2.05158e-08
-2.69741e-08
1.81444e-08
2.51947e-08
-1.73837e-08
-2.59554e-08
1.51257e-08
2.36742e-08
-1.44117e-08
-2.43882e-08
1.23204e-08
2.18971e-08
-1.16672e-08
-2.25503e-08
9.77365e-09
2.0099e-08
-9.18764e-09
-2.0685e-08
7.49909e-09
1.84005e-08
-6.97705e-09
-1.89226e-08
5.46241e-09
1.69013e-08
-4.98651e-09
-1.73772e-08
3.57014e-09
1.55598e-08
-3.11226e-09
-1.60177e-08
5.51249e-09
1.21443e-07
-1.17146e-07
-9.80963e-09
9.72744e-09
8.90075e-08
-7.05767e-09
-9.16772e-08
-4.14112e-09
1.52825e-07
8.40085e-09
-1.57085e-07
-2.03844e-08
1.40459e-07
2.41697e-08
-1.44244e-07
-3.50546e-08
1.04432e-07
3.76314e-08
-1.07009e-07
-4.3847e-08
8.58349e-08
4.60962e-08
-8.80841e-08
-5.37555e-08
7.7605e-08
5.63876e-08
-8.02372e-08
-6.2982e-08
3.52298e-08
6.53842e-08
-3.7632e-08
-6.88632e-08
-5.37992e-08
6.85974e-08
5.4065e-08
-6.00372e-08
-1.55249e-07
5.55732e-08
1.59713e-07
-3.81985e-08
-1.93788e-07
3.20623e-08
1.99925e-07
-1.46632e-08
-1.69438e-07
9.70613e-09
1.74395e-07
2.93664e-09
-1.26516e-07
-6.32203e-09
1.29902e-07
1.48484e-08
-8.84756e-08
-1.71657e-08
9.0793e-08
2.31975e-08
-5.89391e-08
-2.48864e-08
6.06281e-08
2.92754e-08
-3.48905e-08
-3.04659e-08
3.6081e-08
3.33117e-08
-1.40527e-08
-3.39559e-08
1.46969e-08
3.49545e-08
3.54719e-09
-3.49689e-08
-3.53273e-09
3.42159e-08
1.62286e-08
-3.37626e-08
-1.6682e-08
3.19565e-08
2.3912e-08
-3.12653e-08
-2.46032e-08
2.89601e-08
2.79241e-08
-2.81599e-08
-2.87243e-08
2.56368e-08
2.94778e-08
-2.47946e-08
-3.032e-08
2.22095e-08
2.9417e-08
-2.13665e-08
-3.026e-08
1.88304e-08
2.83119e-08
-1.80181e-08
-2.91241e-08
1.56137e-08
2.65914e-08
-1.48565e-08
-2.73486e-08
1.26532e-08
2.45483e-08
-1.19712e-08
-2.52302e-08
1.00206e-08
2.24482e-08
-9.42753e-09
-2.30413e-08
7.75723e-09
2.04533e-08
-7.25448e-09
-2.09561e-08
5.83439e-09
1.87401e-08
-5.39878e-09
-1.91758e-08
4.11181e-09
1.73384e-08
-3.68963e-09
-1.77605e-08
6.11921e-09
1.39601e-07
-1.3491e-07
-1.08108e-08
1.05245e-08
9.98954e-08
-7.71364e-09
-1.02706e-07
-3.90624e-09
1.70015e-07
8.26706e-09
-1.74376e-07
-2.03873e-08
1.55682e-07
2.42277e-08
-1.59522e-07
-3.54509e-08
1.14642e-07
3.79586e-08
-1.1715e-07
-4.37512e-08
9.48013e-08
4.59779e-08
-9.7028e-08
-5.39255e-08
8.83768e-08
5.6724e-08
-9.11752e-08
-6.36951e-08
4.57923e-08
6.67752e-08
-4.88725e-08
-7.15699e-08
-5.41844e-08
7.17897e-08
5.39646e-08
-6.27767e-08
-1.73433e-07
5.80962e-08
1.78113e-07
-3.91641e-08
-2.19133e-07
3.24737e-08
2.25823e-07
-1.38065e-08
-1.89652e-07
8.58781e-09
1.94871e-07
4.47047e-09
-1.40126e-07
-7.89863e-09
1.43555e-07
1.64176e-08
-9.77264e-08
-1.87183e-08
1.00027e-07
2.47568e-08
-6.5741e-08
-2.64769e-08
6.74611e-08
3.10311e-08
-3.97657e-08
-3.23003e-08
4.10349e-08
3.54511e-08
-1.67598e-08
-3.61905e-08
1.74991e-08
3.7341e-08
3.50459e-09
-3.73451e-08
-3.50049e-09
3.64121e-08
1.81619e-08
-3.58736e-08
-1.87004e-08
3.38067e-08
2.67919e-08
-3.30362e-08
-2.75624e-08
3.05089e-08
3.12249e-08
-2.96408e-08
-3.2093e-08
2.69155e-08
3.29416e-08
-2.6009e-08
-3.38481e-08
2.32311e-08
3.28805e-08
-2.23259e-08
-3.37856e-08
1.95991e-08
3.16501e-08
-1.87252e-08
-3.25239e-08
1.61377e-08
2.97017e-08
-1.53229e-08
-3.05165e-08
1.29548e-08
2.73425e-08
-1.22232e-08
-2.80741e-08
1.01349e-08
2.48677e-08
-9.50055e-09
-2.55021e-08
7.70772e-09
2.24967e-08
-7.16459e-09
-2.30398e-08
5.62402e-09
2.04942e-08
-5.15566e-09
-2.09625e-08
3.83327e-09
1.89919e-08
-3.42924e-09
-1.93959e-08
6.82566e-09
1.59479e-07
-1.54336e-07
-1.19688e-08
1.13995e-08
1.11362e-07
-8.43901e-09
-1.14322e-07
-3.66023e-09
1.87613e-07
8.12314e-09
-1.92076e-07
-2.03811e-08
1.71131e-07
2.42801e-08
-1.7503e-07
-3.59371e-08
1.24545e-07
3.83544e-08
-1.26962e-07
-4.36077e-08
1.03662e-07
4.58001e-08
-1.05854e-07
-5.40726e-08
9.98574e-08
5.70745e-08
-1.02859e-07
-6.42797e-08
5.93825e-08
6.82465e-08
-6.33493e-08
-7.46653e-08
-5.23354e-08
7.56057e-08
5.13949e-08
-6.59464e-08
-1.92454e-07
6.10789e-08
1.97321e-07
-4.02228e-08
-2.46862e-07
3.28612e-08
2.54223e-07
-1.27441e-08
-2.10949e-07
7.24021e-09
2.16453e-07
6.23354e-09
-1.53888e-07
-9.69043e-09
1.57345e-07
1.81319e-08
-1.06877e-07
-2.03918e-08
1.09137e-07
2.64026e-08
-7.26727e-08
-2.81578e-08
7.44279e-08
3.28923e-08
-4.49786e-08
-3.42546e-08
4.63409e-08
3.78332e-08
-1.99164e-08
-3.87183e-08
2.08015e-08
4.01168e-08
3.5058e-09
-4.01086e-08
-3.514e-09
3.89084e-08
2.04815e-08
-3.82502e-08
-2.11396e-08
3.58512e-08
3.00079e-08
-3.4989e-08
-3.08701e-08
3.22173e-08
3.48062e-08
-3.12762e-08
-3.57473e-08
2.83378e-08
3.66692e-08
-2.73629e-08
-3.76441e-08
2.43751e-08
3.66055e-08
-2.33998e-08
-3.75808e-08
2.04569e-08
3.52507e-08
-1.95109e-08
-3.61968e-08
1.66982e-08
3.30678e-08
-1.58085e-08
-3.39575e-08
1.321e-08
3.03746e-08
-1.2403e-08
-3.11816e-08
1.00852e-08
2.75141e-08
-9.3759e-09
-2.82235e-08
7.3544e-09
2.47963e-08
-6.73629e-09
-2.54144e-08
4.96244e-09
2.25158e-08
-4.40951e-09
-2.30687e-08
2.71468e-09
2.07527e-08
-2.11169e-09
-2.13557e-08
7.64734e-09
1.81318e-07
-1.7566e-07
-1.33055e-08
1.23499e-08
1.23436e-07
-9.23447e-09
-1.26551e-07
-3.40695e-09
2.05617e-07
7.97016e-09
-2.1018e-07
-2.03633e-08
1.86817e-07
2.43213e-08
-1.90775e-07
-3.6537e-08
1.34047e-07
3.88359e-08
-1.36346e-07
-4.34028e-08
1.12361e-07
4.55442e-08
-1.14502e-07
-5.41747e-08
1.12278e-07
5.74777e-08
-1.15581e-07
-6.45353e-08
7.67383e-08
6.94854e-08
-8.16885e-08
-7.75152e-08
-4.67662e-08
7.99095e-08
4.43719e-08
-6.95777e-08
-2.12087e-07
6.46508e-08
2.17014e-07
-4.13621e-08
-2.77491e-07
3.31758e-08
2.85677e-07
-1.14244e-08
-2.33416e-07
5.61591e-09
2.39225e-07
8.26052e-09
-1.67733e-07
-1.17241e-08
1.71196e-07
1.99916e-08
-1.15815e-07
-2.21743e-08
1.17998e-07
2.81091e-08
-7.97561e-08
-2.9909e-08
8.1556e-08
3.482e-08
-5.05769e-08
-3.62812e-08
5.20381e-08
4.04646e-08
-2.37659e-08
-4.15768e-08
2.48781e-08
4.33867e-08
3.56088e-09
-4.33629e-08
-3.58469e-09
4.17337e-08
2.33592e-08
-4.08955e-08
-2.41973e-08
3.80721e-08
3.36067e-08
-3.71087e-08
-3.45701e-08
3.40833e-08
3.86826e-08
-3.30677e-08
-3.96981e-08
2.99101e-08
4.06754e-08
-2.88639e-08
-4.17215e-08
2.5655e-08
4.06173e-08
-2.46052e-08
-4.1667e-08
2.14243e-08
3.91555e-08
-2.03961e-08
-4.01837e-08
1.7317e-08
3.67602e-08
-1.63347e-08
-3.77425e-08
1.34369e-08
3.3746e-08
-1.25275e-08
-3.46554e-08
9.89524e-09
3.04809e-08
-9.08751e-09
-3.12886e-08
6.8097e-09
2.73287e-08
-6.12969e-09
-2.80087e-08
4.25683e-09
2.47021e-08
-3.7051e-09
-2.52539e-08
2.18895e-09
2.32062e-08
-1.77293e-09
-2.36222e-08
8.60008e-09
2.05385e-07
-1.99143e-07
-1.4842e-08
1.33705e-08
1.36131e-07
-1.01007e-08
-1.39401e-07
-3.14909e-09
2.24017e-07
7.809e-09
-2.28676e-07
-2.03303e-08
2.02734e-07
2.43431e-08
-2.06747e-07
-3.72821e-08
1.43024e-07
3.94268e-08
-1.45169e-07
-4.31184e-08
1.20825e-07
4.51863e-08
-1.22892e-07
-5.4235e-08
1.26038e-07
5.78849e-08
-1.29688e-07
-6.5208e-08
9.7673e-08
7.06686e-08
-1.03134e-07
-8.01568e-08
-3.35902e-08
8.49298e-08
2.88173e-08
-7.3061e-08
-2.31349e-07
6.86203e-08
2.3579e-07
-4.25451e-08
-3.11703e-07
3.33372e-08
3.20911e-07
-9.78113e-09
-2.57122e-07
3.65749e-09
2.63246e-07
1.05879e-08
-1.81568e-07
-1.40316e-08
1.85012e-07
2.19958e-08
-1.24369e-07
-2.40462e-08
1.2642e-07
2.98397e-08
-8.70479e-08
-3.17085e-08
8.89167e-08
3.67581e-08
-5.65522e-08
-3.82957e-08
5.80898e-08
4.33397e-08
-2.87014e-08
-4.48108e-08
3.01726e-08
4.73234e-08
3.68133e-09
-4.72837e-08
-3.72104e-09
4.49081e-08
2.71018e-08
-4.37784e-08
-2.82316e-08
4.04296e-08
3.76127e-08
-3.93674e-08
-3.86748e-08
3.61039e-08
4.28531e-08
-3.50176e-08
-4.39395e-08
3.16421e-08
4.49682e-08
-3.05239e-08
-4.60864e-08
2.70903e-08
4.49315e-08
-2.59637e-08
-4.6058e-08
2.25329e-08
4.33999e-08
-2.14164e-08
-4.45164e-08
1.80418e-08
4.08472e-08
-1.69523e-08
-4.19366e-08
1.36859e-08
3.75805e-08
-1.26393e-08
-3.8627e-08
9.52521e-09
3.39597e-08
-8.53644e-09
-3.49484e-08
5.62496e-09
3.03629e-08
-4.70766e-09
-3.12802e-08
2.00574e-09
2.73052e-08
-1.14907e-09
-2.81618e-08
-1.4644e-09
2.52369e-08
2.19751e-09
-2.597e-08
9.70469e-09
2.31976e-07
-2.25075e-07
-1.66061e-08
1.44541e-08
1.49432e-07
-1.10397e-08
-1.52847e-07
-2.89108e-09
2.42794e-07
7.64138e-09
-2.47545e-07
-2.02802e-08
2.18856e-07
2.4337e-08
-2.22913e-07
-3.82192e-08
1.51321e-07
4.01661e-08
-1.53268e-07
-4.27347e-08
1.28953e-07
4.47009e-08
-1.30919e-07
-5.42896e-08
1.40948e-07
5.81232e-08
-1.44782e-07
-6.8181e-08
1.17337e-07
7.12403e-08
-1.20397e-07
-8.77126e-08
-1.33895e-08
9.21709e-08
8.93118e-09
-7.47015e-08
-2.47716e-07
7.079e-08
2.51628e-07
-4.36174e-08
-3.50292e-07
3.32217e-08
3.60688e-07
-7.73035e-09
-2.82091e-07
1.2961e-09
2.88526e-07
1.32589e-08
-1.95288e-07
-1.66573e-08
1.98686e-07
2.41466e-08
-1.32278e-07
-2.59803e-08
1.34112e-07
3.15396e-08
-9.46867e-08
-3.35347e-08
9.66818e-08
3.86648e-08
-6.26966e-08
-4.01477e-08
6.41796e-08
4.64287e-08
-3.53623e-08
-4.84733e-08
3.74069e-08
5.22289e-08
3.84425e-09
-5.21961e-08
-3.87705e-09
4.839e-08
3.23016e-08
-4.67381e-08
-3.39535e-08
4.287e-08
4.19763e-08
-4.17436e-08
-4.31027e-08
3.82851e-08
4.72946e-08
-3.71371e-08
-4.84426e-08
3.35479e-08
4.95481e-08
-3.23587e-08
-5.07373e-08
2.8707e-08
4.95513e-08
-2.75055e-08
-5.07528e-08
2.38281e-08
4.79991e-08
-2.26236e-08
-4.92036e-08
1.89512e-08
4.537e-08
-1.77531e-08
-4.65681e-08
1.41106e-08
4.19855e-08
-1.29229e-08
-4.31732e-08
9.30205e-09
3.82241e-08
-8.11764e-09
-3.94085e-08
4.50482e-09
3.4445e-08
-3.32654e-09
-3.56233e-08
-2.16689e-10
3.11777e-08
1.34277e-09
-3.23038e-08
-4.66506e-09
2.85482e-08
5.75886e-09
-2.9642e-08
1.09901e-08
2.61419e-07
-2.53771e-07
-1.86378e-08
1.55786e-08
1.63274e-07
-1.205e-08
-1.66803e-07
-2.63719e-09
2.61916e-07
7.46599e-09
-2.66745e-07
-2.02021e-08
2.35123e-07
2.42805e-08
-2.39202e-07
-3.93972e-08
1.58751e-07
4.10947e-08
-1.60449e-07
-4.22055e-08
1.36627e-07
4.40385e-08
-1.3846e-07
-5.42407e-08
1.56745e-07
5.85127e-08
-1.61017e-07
-6.9432e-08
1.22502e-07
6.85875e-08
-1.21657e-07
-9.58656e-08
-1.67168e-09
9.5605e-08
1.93219e-09
-8.05014e-08
-2.67838e-07
7.24055e-08
2.75934e-07
-4.40724e-08
-3.93566e-07
3.26349e-08
4.05003e-07
-5.19277e-09
-3.08294e-07
-1.52878e-09
3.15015e-07
1.63278e-08
-2.08789e-07
-1.9656e-08
2.12118e-07
2.64413e-08
-1.39142e-07
-2.79294e-08
1.4063e-07
3.30816e-08
-1.02986e-07
-3.53215e-08
1.05226e-07
4.04177e-08
-6.8086e-08
-4.13977e-08
6.90659e-08
4.96317e-08
-4.4776e-08
-5.2585e-08
4.77293e-08
5.85788e-08
3.88688e-09
-5.86179e-08
-3.8478e-09
5.15483e-08
4.01878e-08
-4.8945e-08
-4.27911e-08
4.53652e-08
4.64662e-08
-4.42865e-08
-4.75448e-08
4.06321e-08
5.19561e-08
-3.94431e-08
-5.3145e-08
3.56295e-08
5.44077e-08
-3.43722e-08
-5.5665e-08
3.05217e-08
5.44616e-08
-2.92524e-08
-5.5731e-08
2.53496e-08
5.29413e-08
-2.40639e-08
-5.42269e-08
2.01197e-08
5.03109e-08
-1.88253e-08
-5.16053e-08
1.48709e-08
4.69068e-08
-1.35771e-08
-4.82006e-08
9.62855e-09
4.31498e-08
-8.33786e-09
-4.44405e-08
4.4118e-09
3.9364e-08
-3.13597e-09
-4.06399e-08
-6.92464e-10
3.59245e-08
1.91324e-09
-3.71452e-08
-5.47593e-09
3.28833e-08
6.57392e-09
-3.39813e-08
1.24818e-08
2.94076e-07
-2.85589e-07
-2.0969e-08
1.67235e-08
1.77492e-07
-1.31358e-08
-1.81079e-07
-2.39332e-09
2.81328e-07
7.28285e-09
-2.86218e-07
-2.00902e-08
2.51422e-07
2.4147e-08
-2.55479e-07
-4.09e-08
1.65099e-07
4.22898e-08
-1.66489e-07
-4.14801e-08
1.4372e-07
4.3147e-08
-1.45386e-07
-5.41531e-08
1.75334e-07
5.95608e-08
-1.80742e-07
-6.79683e-08
1.2052e-07
6.85347e-08
-1.21086e-07
-9.75419e-08
-1.19095e-08
9.18665e-08
1.7585e-08
-9.44638e-08
-3.09328e-07
8.06013e-08
3.23191e-07
-4.32232e-08
-4.40254e-07
3.14259e-08
4.52052e-07
-2.14253e-09
-3.35599e-07
-4.91262e-09
3.42654e-07
1.98704e-08
-2.21986e-07
-2.31111e-08
2.25226e-07
2.89005e-08
-1.44355e-07
-2.98455e-08
1.453e-07
3.41283e-08
-1.12481e-07
-3.67027e-08
1.15056e-07
4.08066e-08
-7.04337e-08
-4.0884e-08
7.0511e-08
5.27924e-08
-5.85067e-08
-5.71392e-08
6.28535e-08
6.67903e-08
3.70843e-09
-6.67663e-08
-3.7324e-09
5.28632e-08
5.22505e-08
-4.92371e-08
-5.58765e-08
4.8022e-08
5.03824e-08
-4.72692e-08
-5.11353e-08
4.31664e-08
5.67567e-08
-4.19356e-08
-5.79875e-08
3.78824e-08
5.95278e-08
-3.65692e-08
-6.0841e-08
3.25542e-08
5.96262e-08
-3.12301e-08
-6.09503e-08
2.71392e-08
5.81927e-08
-2.57834e-08
-5.95485e-08
2.15997e-08
5.56178e-08
-2.02207e-08
-5.69967e-08
1.60044e-08
5.22093e-08
-1.46277e-08
-5.3586e-08
1.04545e-08
4.8405e-08
-9.10402e-09
-4.97555e-08
5.05194e-09
4.44994e-08
-3.75499e-09
-4.57964e-08
-8.27965e-11
4.07962e-08
1.29334e-09
-4.20067e-08
-4.81483e-09
3.7285e-08
5.90524e-09
-3.83754e-08
1.42209e-08
3.30355e-07
-3.20923e-07
-2.36529e-08
1.79158e-08
1.91877e-07
-1.43236e-08
-1.95469e-07
-2.16672e-09
3.00952e-07
7.09295e-09
-3.05878e-07
-1.99441e-08
2.67531e-07
2.38989e-08
-2.71486e-07
-4.28708e-08
1.70119e-07
4.38848e-08
-1.71133e-07
-4.04973e-08
1.50108e-07
4.19779e-08
-1.51588e-07
-5.47345e-08
1.9914e-07
6.15101e-08
-2.05916e-07
-6.52428e-08
1.24879e-07
6.83162e-08
-1.27952e-07
-9.74917e-08
-2.9891e-08
9.84754e-08
2.89073e-08
-1.12544e-07
-3.7507e-07
9.08602e-08
3.96754e-07
-4.08203e-08
-4.8737e-07
2.9189e-08
4.99001e-07
1.54787e-09
-3.63966e-07
-8.86003e-09
3.71278e-07
2.39809e-08
-2.34849e-07
-2.71407e-08
2.38008e-07
3.16026e-08
-1.46978e-07
-3.16945e-08
1.4707e-07
3.31125e-08
-1.21894e-07
-3.42291e-08
1.2301e-07
3.20252e-08
-7.45974e-08
-3.68298e-08
7.9402e-08
5.58533e-08
-7.84874e-08
-6.19427e-08
8.45767e-08
7.62705e-08
4.11556e-09
-7.61271e-08
-4.25895e-09
5.70855e-08
6.81229e-08
-5.28657e-08
-7.23426e-08
5.14409e-08
5.31908e-08
-5.05363e-08
-5.40954e-08
4.59e-08
6.18771e-08
-4.45128e-08
-6.32643e-08
4.02907e-08
6.48353e-08
-3.89451e-08
-6.61809e-08
3.48261e-08
6.4982e-08
-3.34679e-08
-6.63401e-08
2.92439e-08
6.37065e-08
-2.78308e-08
-6.51195e-08
2.343e-08
6.12556e-08
-2.19695e-08
-6.27161e-08
1.74949e-08
5.78379e-08
-1.60364e-08
-5.92963e-08
1.16439e-08
5.38961e-08
-1.02358e-08
-5.53042e-08
6.06655e-09
4.97211e-08
-4.7533e-09
-5.10344e-08
9.42119e-10
4.56057e-08
2.33597e-10
-4.67814e-08
-3.5667e-09
4.15445e-08
4.56817e-09
-4.25459e-08
1.62523e-08
3.70693e-07
-3.60202e-07
-2.67436e-08
1.91364e-08
2.0619e-07
-1.55779e-08
-2.09749e-07
-1.96457e-09
3.20673e-07
6.89317e-09
-3.25602e-07
-1.97583e-08
2.83035e-07
2.34623e-08
-2.86739e-07
-4.54982e-08
1.73496e-07
4.60234e-08
-1.74022e-07
-3.91377e-08
1.558e-07
4.04879e-08
-1.5715e-07
-5.59118e-08
2.26361e-07
6.18933e-08
-2.32343e-07
-5.44918e-08
1.49718e-07
6.49305e-08
-1.60157e-07
-8.05341e-08
-6.18936e-09
9.29838e-08
-6.26034e-09
-1.09223e-07
-4.69615e-07
8.59217e-08
4.92916e-07
-3.43039e-08
-5.30804e-07
2.4852e-08
5.40255e-07
6.07607e-09
-3.93367e-07
-1.36659e-08
4.00957e-07
2.87341e-08
-2.47462e-07
-3.18791e-08
2.50607e-07
3.46996e-08
-1.4553e-07
-3.34522e-08
1.44282e-07
2.59414e-08
-1.17767e-07
-2.01969e-08
1.12023e-07
1.42431e-08
-1.105e-07
-2.9337e-08
1.25594e-07
5.86808e-08
-1.05378e-07
-6.6346e-08
1.13043e-07
8.36216e-08
5.64555e-09