/*--------------------------------*- C++ -*----------------------------------*\
| =========                 |                                                 |
| \\      /  F ield         | OpenFOAM: The Open Source CFD Toolbox           |
|  \\    /   O peration     | Version:  2.4.0                                 |
|   \\  /    A nd           | Web:      www.OpenFOAM.org                      |
|    \\/     M anipulation  |                                                 |
\*---------------------------------------------------------------------------*/
FoamFile
{
    version     2.0;
    format      ascii;
    class       volScalarField;
    location    "0.112";
    object      p_rgh;
}
// * * * * * * * * * * * * * * * * * * * * * * * * * * * * * * * * * * * * * //

dimensions      [1 -1 -2 0 0 0 0];

internalField   nonuniform List<scalar> 
3600
(
97.5054
97.5043
97.4888
97.5091
97.4682
97.5202
97.4404
97.5484
97.4076
97.5908
97.3988
97.6652
97.4081
97.7473
97.441
97.8119
97.4705
97.853
97.4847
97.8012
97.5612
97.5361
97.4026
97.4768
97.6777
97.6945
97.7741
97.733
97.7505
97.7261
97.5018
97.5039
97.4863
97.5063
97.4633
97.5161
97.4376
97.547
97.4035
97.5872
97.3985
97.6637
97.408
97.7471
97.4415
97.8119
97.4708
97.854
97.4843
97.8022
97.5633
97.5353
97.4011
97.4756
97.6779
97.6947
97.7742
97.7331
97.7505
97.7261
97.486
97.4902
97.474
97.4948
97.4539
97.5067
97.4295
97.5369
97.402
97.5845
97.395
97.6629
97.4063
97.7478
97.4414
97.8122
97.4707
97.856
97.483
97.8044
97.567
97.5335
97.398
97.4734
97.6786
97.6952
97.7745
97.7332
97.7506
97.7261
97.4658
97.4696
97.4495
97.4794
97.4308
97.4941
97.4122
97.5265
97.3933
97.5803
97.3892
97.6618
97.4033
97.7485
97.4411
97.8134
97.4701
97.8593
97.4811
97.8078
97.5723
97.5305
97.3932
97.4701
97.6797
97.696
97.775
97.7335
97.7507
97.7261
97.4466
97.451
97.4329
97.4611
97.4158
97.484
97.4006
97.5202
97.3848
97.5792
97.3824
97.6635
97.3993
97.7516
97.4405
97.8145
97.4691
97.864
97.4781
97.8123
97.5794
97.5264
97.3867
97.4658
97.6814
97.6971
97.7757
97.7339
97.7508
97.7262
97.416
97.4223
97.4003
97.4391
97.3892
97.4692
97.3777
97.5121
97.3707
97.5747
97.3745
97.6632
97.3948
97.7537
97.4401
97.8178
97.4678
97.87
97.4745
97.8181
97.5885
97.5211
97.3784
97.4603
97.6835
97.6985
97.7766
97.7344
97.7509
97.7263
97.399
97.4067
97.3884
97.4262
97.3799
97.4625
97.3711
97.5139
97.3612
97.578
97.3663
97.6681
97.3898
97.7598
97.4402
97.8185
97.4662
97.8775
97.4691
97.8251
97.5998
97.5147
97.3682
97.4537
97.6861
97.7002
97.7777
97.735
97.751
97.7263
97.3722
97.3822
97.358
97.4082
97.3502
97.4538
97.3468
97.5121
97.3448
97.5752
97.3575
97.6694
97.3846
97.7633
97.441
97.8246
97.465
97.8872
97.4637
97.8334
97.6134
97.5071
97.356
97.446
97.6892
97.7024
97.779
97.7357
97.7512
97.7264
97.3709
97.384
97.3627
97.4134
97.3594
97.4616
97.3501
97.5249
97.3418
97.586
97.3489
97.6789
97.3793
97.7734
97.4427
97.8234
97.4621
97.8964
97.4555
97.843
97.6293
97.4984
97.3417
97.437
97.6928
97.7048
97.7805
97.7366
97.7513
97.7265
97.3549
97.3722
97.3408
97.4064
97.3317
97.46
97.3237
97.5272
97.3241
97.5859
97.3363
97.6811
97.3736
97.7783
97.4467
97.8362
97.4628
97.9116
97.4477
97.8541
97.6479
97.4886
97.3252
97.4268
97.697
97.7077
97.7822
97.7375
97.7515
97.7266
97.3812
97.4012
97.3701
97.438
97.3647
97.4876
97.3463
97.5513
97.3271
97.6063
97.3251
97.6954
97.3671
97.7938
97.4512
97.8297
97.4573
97.9223
97.4356
97.8666
97.6697
97.4775
97.3061
97.4153
97.7018
97.711
97.7842
97.7385
97.7517
97.7268
97.369
97.3956
97.3433
97.4371
97.3252
97.4856
97.3119
97.5456
97.3016
97.6008
97.3052
97.6967
97.3598
97.7965
97.4605
97.8425
97.4615
97.9442
97.4257
97.8809
97.6952
97.4651
97.2844
97.4025
97.7072
97.7147
97.7863
97.7397
97.7519
97.7269
97.4193
97.4488
97.3949
97.4906
97.3795
97.5318
97.3459
97.5873
97.3063
97.6283
97.2905
97.7153
97.3497
97.8193
97.4695
97.8372
97.4527
97.957
97.4079
97.8957
97.7245
97.4512
97.2598
97.3882
97.7133
97.7189
97.7887
97.741
97.7521
97.727
97.3842
97.4277
97.3255
97.4767
97.2992
97.5072
97.286
97.5533
97.2623
97.6048
97.2554
97.7139
97.3377
97.8232
97.4867
97.8454
97.4605
97.9861
97.3935
97.9179
97.7584
97.4361
97.232
97.3725
97.7201
97.7237
97.7913
97.7424
97.7524
97.7272
97.4419
97.4911
97.3936
97.5549
97.3762
97.5804
97.3331
97.6257
97.262
97.6511
97.2302
97.735
97.3202
97.847
97.5029
97.8391
97.4496
98.0025
97.3698
97.9301
97.7971
97.4197
97.2005
97.3553
97.7276
97.7289
97.7942
97.744
97.7526
97.7273
97.3704
97.4493
97.2216
97.5091
97.2252
97.492
97.2393
97.5284
97.1987
97.586
97.1746
97.7318
97.2989
97.8568
97.5318
97.8411
97.4589
98.0393
97.3489
97.9551
97.8415
97.4025
97.1648
97.3363
97.7356
97.7351
97.7973
97.7457
97.7528
97.7275
97.3056
97.4589
97.3209
97.6449
97.3431
97.6415
97.3134
97.6754
97.198
97.6621
97.1314
97.7626
97.27
97.8802
97.5602
97.8291
97.4472
98.0616
97.3168
97.9753
97.8916
97.3844
97.1242
97.3156
97.744
97.7422
97.8007
97.7475
97.753
97.7276
97.9728
97.7336
96.9167
97.5245
97.1153
97.4
97.2012
97.4586
97.1172
97.5273
97.0593
97.7422
97.2399
97.8969
97.6067
97.8231
97.456
98.106
97.2883
98.0053
97.9489
97.366
97.0787
97.293
97.753
97.7503
97.8044
97.7495
97.7531
97.7277
98.256
98.7847
97.1811
97.716
97.3329
97.765
97.3157
97.7828
97.1151
97.6595
96.9944
97.7748
97.2
97.9233
97.6557
97.7981
97.4449
98.1366
97.2431
98.0298
98.013
97.3472
97.0268
97.2683
97.7625
97.7594
97.8084
97.7516
97.7533
97.7279
97.7531
98.4527
96.8224
97.4845
97.1196
97.1239
97.2168
97.3291
97.0265
97.4105
96.9015
97.7421
97.149
97.9544
97.7296
97.7832
97.4505
98.189
97.2036
98.0685
98.0863
97.3287
96.9694
97.2413
97.7726
97.7698
97.8127
97.7538
97.7534
97.728
97.6297
98.191
96.9049
97.4159
97.0995
98.0902
97.2967
98.0251
97.0214
97.6261
96.8045
97.7801
97.0863
97.9941
97.8125
97.7361
97.4393
98.2296
97.1422
98.0951
98.1676
97.3104
96.9035
97.2118
97.7832
97.7815
97.8174
97.7561
97.7535
97.7281
97.4557
97.6794
95.8522
95.7775
97.0302
96.342
97.2961
97.1683
96.9386
97.1912
96.6809
97.7458
97.011
98.0391
97.9285
97.7095
97.4401
98.2896
97.0953
98.1389
98.2611
97.293
96.8312
97.1794
97.7943
97.7948
97.8224
97.7586
97.7535
97.7282
96.8164
98.514
96.7925
97.6968
96.2976
98.806
97.4998
98.4133
96.9931
97.4768
96.5539
97.7684
96.9286
98.0948
98.0705
97.6113
97.4266
98.3407
97.017
98.1624
98.3649
97.277
96.7492
97.1427
97.8057
97.8099
97.828
97.7612
97.7535
97.7283
97.4303
96.6359
93.3991
94.0509
96.3351
95.1406
97.8734
96.9867
96.8417
96.776
96.3653
97.7286
96.8118
98.1661
98.2536
97.5725
97.423
98.4055
96.9644
98.209
98.4847
97.2625
96.6565
97.1061
97.8179
97.827
97.8337
97.7638
97.7534
97.7283
90.2102
102.181
92.1613
102.256
96.0209
100.476
98.5084
99.0471
97.0679
97.0852
96.1647
97.7308
96.7134
98.2464
98.4808
97.4495
97.3962
98.4645
96.8706
98.2223
98.6208
97.2485
96.5599
97.0575
97.8279
97.8457
97.8404
97.7667
97.7532
97.7284
195.597
108.37
81.1788
89.8765
95.4904
93.7296
99.24
97.3505
96.6904
95.9075
95.8396
97.6802
96.5405
98.3035
98.7129
97.3938
97.3851
98.5253
96.8177
98.2772
98.7685
97.234
96.441
97.0162
97.8464
97.8707
97.8462
97.7695
97.7528
97.7283
182.661
122.903
70.46
111.895
100.385
100.839
101.506
100.363
96.9584
96.301
95.5579
97.6201
96.4434
98.5002
99.0545
97.2426
97.3318
98.5823
96.7229
98.2702
98.9363
97.2378
96.3289
96.9515
97.8425
97.8875
97.854
97.7727
97.7525
97.7284
40.4395
144.151
32.8963
103.11
93.3474
93.9398
101.496
99.687
95.985
94.9961
94.908
97.4689
96.2218
98.5013
99.3907
97.1924
97.3069
98.6147
96.6741
98.3419
99.1545
97.2074
96.1726
96.8983
97.8835
97.9334
97.8645
97.7752
97.7516
97.7282
-123.526
104.824
84.4418
101.196
108.731
101.214
103.613
103.097
96.2947
94.8295
95.089
97.1728
96.2895
98.784
99.6195
97.0658
97.2218
98.6289
96.6332
98.3024
99.2031
97.253
96.0753
96.8267
97.848
97.9355
97.8663
97.7786
97.7515
97.7285
28.2767
41.9973
10.9481
58.648
103.236
87.6176
105.287
104.107
77.5936
74.7356
67.6844
81.1526
75.6293
89.4662
91.5008
82.3855
78.5771
87.1015
73.8621
87.5798
92.2794
78.8641
66.7779
78.3998
92.8143
97.2768
97.8889
97.7813
97.7495
97.7278
97.7237
97.7191
97.7173
97.7145
97.7124
97.7106
97.7088
97.7072
97.7057
97.7047
97.7037
97.7029
97.7021
97.7014
97.7006
97.7
97.6993
97.6988
97.6981
97.6981
97.6966
97.6981
97.6947
97.6986
97.6924
97.699
97.6904
97.6988
97.6913
97.6962
97.7237
97.7191
97.7172
97.7145
97.7124
97.7106
97.7088
97.7072
97.7057
97.7047
97.7037
97.7029
97.7021
97.7014
97.7006
97.7
97.6993
97.6988
97.6981
97.6981
97.6966
97.6981
97.6947
97.6986
97.6924
97.699
97.6904
97.6989
97.6913
97.6962
97.7237
97.7191
97.7172
97.7145
97.7124
97.7106
97.7088
97.7072
97.7057
97.7047
97.7037
97.7029
97.7021
97.7014
97.7006
97.7
97.6993
97.6988
97.6981
97.6981
97.6966
97.6981
97.6947
97.6986
97.6923
97.6991
97.6904
97.6989
97.6912
97.6963
97.7237
97.7191
97.7172
97.7145
97.7124
97.7105
97.7087
97.7072
97.7057
97.7047
97.7037
97.7029
97.7021
97.7013
97.7006
97.7
97.6993
97.6988
97.6981
97.6981
97.6966
97.6981
97.6947
97.6986
97.6923
97.6991
97.6903
97.699
97.6911
97.6964
97.7237
97.7191
97.7172
97.7145
97.7124
97.7105
97.7087
97.7072
97.7057
97.7047
97.7036
97.7029
97.702
97.7013
97.7006
97.7
97.6993
97.6988
97.6981
97.6981
97.6967
97.6981
97.6947
97.6986
97.6923
97.6991
97.6902
97.6991
97.6909
97.6965
97.7237
97.7191
97.7171
97.7145
97.7124
97.7105
97.7087
97.7072
97.7056
97.7046
97.7036
97.7029
97.702
97.7013
97.7006
97.7
97.6993
97.6988
97.6981
97.6981
97.6967
97.6981
97.6947
97.6986
97.6923
97.6992
97.69
97.6993
97.6907
97.6966
97.7237
97.7191
97.7171
97.7145
97.7123
97.7104
97.7086
97.7071
97.7056
97.7046
97.7036
97.7028
97.702
97.7013
97.7006
97.7
97.6993
97.6988
97.6981
97.6981
97.6967
97.6981
97.6948
97.6986
97.6922
97.6993
97.6899
97.6995
97.6904
97.6968
97.7236
97.7191
97.7171
97.7144
97.7123
97.7104
97.7086
97.7071
97.7056
97.7046
97.7036
97.7028
97.702
97.7013
97.7006
97.6999
97.6993
97.6988
97.6981
97.6981
97.6967
97.6981
97.6948
97.6986
97.6922
97.6993
97.6896
97.6998
97.69
97.697
97.7236
97.7191
97.717
97.7144
97.7122
97.7103
97.7085
97.707
97.7055
97.7045
97.7035
97.7028
97.7019
97.7012
97.7005
97.6999
97.6993
97.6988
97.6981
97.6981
97.6968
97.6981
97.6948
97.6986
97.6922
97.6994
97.6894
97.7
97.6896
97.6973
97.7236
97.7191
97.717
97.7143
97.7122
97.7103
97.7085
97.707
97.7055
97.7045
97.7035
97.7027
97.7019
97.7012
97.7005
97.6999
97.6993
97.6988
97.6981
97.6981
97.6968
97.698
97.6948
97.6986
97.6921
97.6995
97.6891
97.7004
97.6892
97.6976
97.7235
97.7191
97.7169
97.7143
97.7121
97.7102
97.7084
97.7069
97.7054
97.7044
97.7034
97.7027
97.7019
97.7012
97.7005
97.6999
97.6993
97.6988
97.6982
97.6981
97.6968
97.698
97.6949
97.6986
97.6921
97.6997
97.6888
97.7007
97.6886
97.6979
97.7235
97.7191
97.7168
97.7142
97.712
97.7101
97.7083
97.7068
97.7054
97.7044
97.7034
97.7026
97.7018
97.7011
97.7005
97.6999
97.6992
97.6988
97.6982
97.6981
97.6969
97.698
97.6949
97.6986
97.692
97.6998
97.6885
97.7011
97.6879
97.6983
97.7234
97.719
97.7168
97.7141
97.7119
97.71
97.7082
97.7068
97.7053
97.7043
97.7033
97.7026
97.7018
97.7011
97.7004
97.6998
97.6992
97.6988
97.6982
97.6981
97.6969
97.698
97.695
97.6986
97.692
97.6999
97.6881
97.7015
97.6872
97.6988
97.7234
97.719
97.7167
97.714
97.7118
97.7099
97.7081
97.7067
97.7053
97.7042
97.7033
97.7025
97.7017
97.701
97.7004
97.6998
97.6992
97.6988
97.6982
97.6981
97.697
97.698
97.695
97.6986
97.692
97.7001
97.6877
97.702
97.6863
97.6994
97.7233
97.719
97.7166
97.714
97.7117
97.7098
97.708
97.7066
97.7052
97.7042
97.7032
97.7024
97.7017
97.701
97.7003
97.6998
97.6992
97.6988
97.6982
97.6981
97.6971
97.698
97.6951
97.6986
97.6919
97.7002
97.6872
97.7026
97.6853
97.7
97.7232
97.7189
97.7165
97.7139
97.7116
97.7097
97.7079
97.7065
97.7051
97.7041
97.7031
97.7024
97.7016
97.7009
97.7003
97.6998
97.6992
97.6988
97.6983
97.6981
97.6971
97.698
97.6952
97.6985
97.6919
97.7003
97.6868
97.7031
97.6842
97.7008
97.7231
97.7188
97.7164
97.7137
97.7115
97.7096
97.7078
97.7064
97.705
97.704
97.7031
97.7023
97.7015
97.7009
97.7003
97.6997
97.6992
97.6988
97.6983
97.6981
97.6972
97.698
97.6953
97.6985
97.6919
97.7005
97.6863
97.7037
97.6829
97.7017
97.723
97.7188
97.7162
97.7136
97.7114
97.7095
97.7077
97.7063
97.7049
97.7039
97.703
97.7022
97.7015
97.7008
97.7002
97.6997
97.6992
97.6987
97.6983
97.6981
97.6973
97.6979
97.6954
97.6985
97.692
97.7006
97.6858
97.7044
97.6814
97.7027
97.7229
97.7187
97.7161
97.7135
97.7112
97.7093
97.7076
97.7062
97.7048
97.7038
97.7029
97.7021
97.7014
97.7008
97.7002
97.6996
97.6991
97.6987
97.6984
97.6981
97.6974
97.6979
97.6956
97.6985
97.692
97.7007
97.6853
97.7051
97.6797
97.7038
97.7228
97.7186
97.716
97.7133
97.7111
97.7092
97.7075
97.706
97.7047
97.7037
97.7028
97.702
97.7013
97.7007
97.7001
97.6996
97.6991
97.6987
97.6984
97.6981
97.6975
97.6979
97.6957
97.6985
97.6921
97.7008
97.6848
97.7058
97.6778
97.7053
97.7226
97.7185
97.7158
97.7132
97.7109
97.7091
97.7073
97.7059
97.7046
97.7036
97.7027
97.7019
97.7012
97.7006
97.7001
97.6996
97.6991
97.6987
97.6984
97.6981
97.6976
97.6979
97.6959
97.6984
97.6922
97.7009
97.6843
97.7065
97.6756
97.7066
97.7225
97.7184
97.7156
97.713
97.7108
97.7089
97.7072
97.7058
97.7045
97.7035
97.7026
97.7018
97.7012
97.7006
97.7
97.6995
97.6991
97.6987
97.6984
97.6981
97.6977
97.6978
97.6961
97.6984
97.6923
97.7009
97.6838
97.7073
97.6733
97.709
97.7223
97.7182
97.7155
97.7129
97.7106
97.7087
97.707
97.7056
97.7044
97.7034
97.7025
97.7017
97.7011
97.7005
97.6999
97.6995
97.6991
97.6987
97.6985
97.6981
97.6978
97.6978
97.6963
97.6983
97.6925
97.7009
97.6834
97.7078
97.6706
97.7096
97.7221
97.7181
97.7153
97.7127
97.7104
97.7085
97.7068
97.7055
97.7042
97.7032
97.7024
97.7016
97.701
97.7004
97.6999
97.6994
97.699
97.6987
97.6985
97.6981
97.6979
97.6978
97.6965
97.6982
97.6928
97.7009
97.6832
97.7086
97.668
97.7146
97.7219
97.7179
97.7151
97.7125
97.7102
97.7084
97.7067
97.7053
97.7041
97.7031
97.7023
97.7015
97.7009
97.7003
97.6998
97.6994
97.699
97.6986
97.6985
97.6981
97.698
97.6978
97.6967
97.6982
97.693
97.7007
97.6828
97.7087
97.6643
97.7122
97.7216
97.7177
97.7148
97.7122
97.71
97.7081
97.7065
97.7051
97.7039
97.703
97.7021
97.7014
97.7008
97.7002
97.6997
97.6993
97.699
97.6986
97.6986
97.6981
97.6981
97.6977
97.697
97.6981
97.6935
97.7004
97.6832
97.7092
97.6625
97.7226
97.7215
97.7176
97.7147
97.7121
97.7099
97.708
97.7064
97.705
97.7038
97.7029
97.702
97.7013
97.7007
97.7002
97.6997
97.6993
97.699
97.6986
97.6986
97.6981
97.6982
97.6977
97.6972
97.6979
97.6938
97.7001
97.683
97.7083
97.6567
97.7138
97.721
97.7172
97.7143
97.7117
97.7095
97.7076
97.706
97.7047
97.7036
97.7026
97.7018
97.7011
97.7005
97.7
97.6996
97.6992
97.6989
97.6986
97.6986
97.6981
97.6983
97.6978
97.6976
97.6978
97.6947
97.6995
97.6845
97.7077
97.6584
97.7338
97.721
97.7173
97.7143
97.7117
97.7095
97.7077
97.7061
97.7047
97.7036
97.7026
97.7018
97.7011
97.7005
97.7
97.6996
97.6992
97.6989
97.6986
97.6986
97.6982
97.6983
97.6978
97.6977
97.6977
97.6949
97.6989
97.6849
97.7052
97.6488
97.7123
97.7201
97.7165
97.7136
97.711
97.7089
97.707
97.7055
97.7042
97.7031
97.7022
97.7015
97.7008
97.7003
97.6998
97.6994
97.699
97.6988
97.6985
97.6986
97.6982
97.6929
97.6978
97.6625
97.6975
97.5913
97.6975
97.4595
97.7016
97.3201
97.7481
6.02481
34.872
3.21248
8.63649
20.9838
23.5109
27.2091
23.7144
8.25161
6.90441
5.23164
7.89272
6.55314
11.1405
12.4528
9.9846
9.30736
13.9788
8.25076
13.2824
14.6179
4.83708
0.0376722
0.19634
2.52494
2.28594
2.20746
1.23559
0.863481
0.489229
-0.244591
-0.152454
-0.145926
-0.404463
-0.0463689
-0.165114
0.011015
-0.0765
0.0349932
-0.0247055
0.0144718
-0.0018035
-0.000119012
-0.0015553
-0.00242113
0.00310705
0.00131175
0.00321227
0.00066183
0.000986344
-0.000306774
0.00459151
-0.00202678
0.00222068
-0.00110685
0.00115241
-0.000778967
0.000626499
-0.000277135
0.000358415
-1.02518
0.0851368
-0.0541509
-0.222506
0.215343
-0.179033
0.0966571
-0.0980519
0.0408171
-0.027834
0.0151466
-0.00508985
0.00158789
0.0022801
0.00121547
0.00349851
0.00111324
0.00175375
0.00117301
0.00192164
-0.000767279
0.0018988
0.000754245
0.004854
-0.00160124
0.00127504
-0.000795726
0.000661663
-0.000277414
0.000370169
-0.226193
0.119049
0.378008
0.188161
0.112615
0.0617181
0.0447895
0.0170492
0.0210077
0.00584724
0.00982963
0.00129846
0.00214745
0.0016919
0.00094823
0.00313357
0.0011263
0.00222192
0.00106642
0.00144535
-0.000153239
0.00247056
-3.36719e-05
0.00191562
-0.0013124
0.00130756
-0.000768387
0.000671406
-0.000291519
0.000366268
-0.0823207
0.0245202
0.0287637
-0.0543046
-0.00231607
-0.0333444
-0.00280771
-0.0214279
0.00243816
-0.00238045
0.00391363
0.00152616
0.00241731
0.00228925
0.0015754
0.00303892
0.00117664
0.00198675
0.00113414
0.00177711
-0.000163325
0.00192315
0.000934591
0.00360938
-0.00126132
0.00134615
-0.000746963
0.000683423
-0.000294019
0.000367131
0.0201023
0.220102
0.0912354
0.103441
0.0347213
0.0608707
0.025088
0.0313187
0.0134053
0.0121367
0.00565094
0.00399442
0.00295774
0.00263707
0.00166539
0.0028792
0.00119878
0.0021574
0.000999198
0.00169725
1.98645e-05
0.00180354
0.000547897
0.00182174
-0.00115131
0.00133142
-0.00072128
0.000686213
-0.000296817
0.000364448
0.14424
0.0945025
0.0166428
0.0542483
-0.0403567
-0.0208994
-0.0161371
-0.0076324
-0.00212765
0.00204639
0.00321037
0.00334477
0.00303386
0.00283768
0.00184246
0.00281157
0.00119572
0.00219735
0.000924531
0.00177789
0.00010642
0.00176495
0.000730882
0.0024256
-0.00104048
0.0013182
-0.000692376
0.000684739
-0.000296152
0.000360785
0.25667
0.299642
0.16274
0.0645158
0.0449297
0.0381561
0.0262117
0.0214192
0.0112833
0.0110079
0.0051458
0.00465486
0.00319382
0.00307588
0.00188095
0.00276774
0.00116719
0.00224633
0.000828265
0.00181961
0.000155007
0.00170627
0.000580573
0.00192686
-0.000938215
0.00128261
-0.000661555
0.0006785
-0.00029358
0.000355772
4.51104
0.242174
0.0722223
0.0204686
0.0203012
0.00564412
-0.0100612
0.00596188
0.00176534
0.00678355
0.00445947
0.00457994
0.00324221
0.00317516
0.00187816
0.00273319
0.00111704
0.00227306
0.000735303
0.00185192
0.000186468
0.00167399
0.00055886
0.00189452
-0.000842609
0.00124416
-0.000629461
0.000668254
-0.000289091
0.000349463
8.36792
0.0441435
0.05273
-0.00519213
-5.12224e-05
0.010905
0.0145107
0.011119
0.00673345
0.00561009
0.0037872
0.00395972
0.00274977
0.0031373
0.00177897
0.0026797
0.00104775
0.00227436
0.000646276
0.00186696
0.000189488
0.00164493
0.000455013
0.00176953
-0.00075834
0.00119915
-0.000596712
0.00065448
-0.00028306
0.000341899
8.96467
0.416301
0.263684
0.206673
0.114479
0.15217
0.257688
0.196658
0.0415757
0.00998731
0.00751428
0.00575955
0.00352563
0.00323342
0.00174546
0.0026031
0.00096677
0.00225156
0.000561658
0.00186905
0.000183362
0.00161815
0.000392664
0.00167041
-0.000686098
0.00115053
-0.000563721
0.000637597
-0.000275649
0.000333113
8.40237
1.23718
0.0191459
0.0149043
0.00861642
0.0152472
0.0302651
0.0106259
0.00519129
0.00231732
0.0025973
0.00252919
0.00209795
0.00273107
0.00148314
0.0024757
0.000869842
0.00220469
0.000481177
0.00185401
0.000163392
0.00158645
0.000296049
0.00157707
-0.000620451
0.00109901
-0.000530772
0.000617965
-0.000267056
0.000323142
6.34421
0.0398504
0.0863085
-0.0196756
0.0276945
0.0145501
-0.000259591
0.0025305
0.0042704
0.00481708
0.00421444
0.00384238
0.00255495
0.00257042
0.00139948
0.00232141
0.000771903
0.00213703
0.000405591
0.00182506
0.00014046
0.00154939
0.000242152
0.00148899
-0.000560315
0.00104554
-0.000498089
0.000595892
-0.000257429
0.000312023
1.46054
-0.0449992
0.0182961
-0.0436629
0.0253346
-0.0197663
0.00736112
-0.00745709
0.00731421
-0.00241091
0.00358938
0.000137573
0.00166891
0.0019378
0.00113369
0.00213649
0.000667449
0.00205122
0.000334779
0.00178129
0.000112775
0.00150506
0.000181543
0.00140151
-0.000505747
0.000990649
-0.000465848
0.000571647
-0.000246893
0.000299804
0.480262
0.36998
0.309705
-0.173463
0.104625
0.0207874
0.0182379
0.000245097
0.00488136
-0.000140958
0.00264063
0.00168279
0.00180406
0.00173038
0.00101722
0.00193983
0.000567272
0.00195128
0.00026931
0.001725
8.46647e-05
0.0014534
0.000131214
0.00131613
-0.000456296
0.000934737
-0.000434162
0.000545455
-0.00023555
0.000286538
5.80175
4.13023
0.736141
0.113412
0.128686
-0.12017
0.0210229
-0.0325503
0.0242105
-0.0116279
0.00901184
-0.00296013
0.00187677
0.00098382
0.000795671
0.00173388
0.000467472
0.0018414
0.000209249
0.00165703
5.69288e-05
0.00139434
8.82173e-05
0.00123219
-0.000411503
0.000878031
-0.000403093
0.000517513
-0.000223482
0.000272294
8.18088
7.50676
2.23128
0.956034
0.107927
0.197613
0.361661
-0.028678
-0.0137023
-0.012609
-0.00191243
-0.00279455
0.000792939
0.000746864
0.000611523
0.00154076
0.000373457
0.00172422
0.000154903
0.00157904
3.08721e-05
0.00132827
5.21929e-05
0.00114927
-0.000370856
0.000820683
-0.000372673
0.000487999
-0.000210763
0.000257177
6.4557
8.61208
2.52254
1.61463
0.450964
0.400578
0.138544
-0.000128641
0.0108016
-0.00666717
0.00627444
-0.00315097
0.00101646
0.000503151
0.000453777
0.00137984
0.000287567
0.00160534
0.000106555
0.00149237
7.2176e-06
0.00125564
2.25359e-05
0.00106687
-0.000333818
0.000762763
-0.00034289
0.00045707
-0.000197451
0.000241267
5.73092
6.13522
0.534092
0.782752
0.7044
-0.0209938
0.00379252
-0.0166394
-0.000764914
-0.00954612
-0.000277463
-0.00273868
0.000176762
0.000420152
0.000304589
0.0012281
0.000210363
0.00148408
6.43321e-05
0.00139821
-1.34882e-05
0.00117699
-1.30768e-06
0.000984634
-0.000299858
0.000704302
-0.00031371
0.000424866
-0.000183603
0.00022481
7.30735
3.03332
0.799913
0.338887
0.998938
-0.0156688
-0.0141362
-0.0149734
-0.00121868
-0.00668744
0.00100294
-0.00225144
-6.43587e-05
0.000355306
0.000188467
0.00111474
0.000144181
0.00136482
2.84502e-05
0.00129772
-3.0892e-05
0.00109289
-1.98763e-05
0.000902246
-0.000268471
0.000645326
-0.000285082
0.000391525
-0.000169273
0.000207668
0.366616
0.145984
0.554903
0.155058
0.451009
-0.00390258
-0.0142767
-0.015014
-0.00419032
-0.0066553
-0.00093381
-0.00144419
-0.000285029
0.000325973
0.000101354
0.00100448
8.94419e-05
0.00124469
-1.11472e-06
0.00119169
-4.47774e-05
0.00100389
-3.36724e-05
0.000819467
-0.000239179
0.000585838
-0.000256939
0.000357167
-0.000154509
0.000189868
0.383487
0.0155988
0.0106267
0.0331941
0.0206547
0.00220318
0.00878868
-0.00196693
0.00293792
-0.00244748
6.25933e-05
-0.00059174
-0.000199124
0.000385858
5.30293e-05
0.000922373
4.69579e-05
0.00112572
-2.43857e-05
0.00108088
-5.50185e-05
0.000910495
-4.31557e-05
0.00073612
-0.000211547
0.000525845
-0.000229206
0.000321907
-0.000139352
0.000171466
0.747363
0.0094594
0.0101813
0.0178526
0.0165072
0.00535828
0.00620951
0.00044333
0.00169923
-0.00067474
5.86494e-05
-9.17635e-05
-9.73696e-05
0.000427579
2.6778e-05
0.000834387
1.50582e-05
0.00100507
-4.16007e-05
0.000965794
-6.16005e-05
0.00081322
-4.87494e-05
0.000652104
-0.000185192
0.000465371
-0.000201811
0.000285858
-0.000123845
0.000152532
0.803128
-0.000832368
0.00326583
0.0109014
0.00996119
0.00619478
0.00502462
0.0016033
0.00153977
0.000391803
0.000187253
0.00020391
-1.36455e-05
0.000470186
1.5046e-05
0.000752499
-7.54852e-06
0.000882823
-5.31483e-05
0.000846888
-6.46113e-05
0.00071251
-5.08548e-05
0.000567355
-0.000159778
0.000404437
-0.000174679
0.000249122
-0.000108027
0.00013313
0.688066
-0.0021283
0.000938149
0.00660682
0.00483968
0.00460986
0.00335132
0.00192252
0.00125551
0.000621368
0.000271356
0.000335046
3.57761e-05
0.000461283
7.60092e-06
0.0006595
-2.31332e-05
0.000757455
-5.95724e-05
0.000724513
-6.42226e-05
0.000608791
-4.98562e-05
0.000481851
-0.000135018
0.000343073
-0.000147742
0.000211796
-9.19341e-05
0.000113324
0.162248
-0.00384411
-0.00393087
0.000686021
0.00137937
0.00224626
0.00172997
0.00128218
0.000780068
0.000520588
0.000228309
0.000361123
5.47471e-05
0.000427742
9.78837e-07
0.000559068
-3.33038e-05
0.000628784
-6.14569e-05
0.000599044
-6.06751e-05
0.000502485
-4.61324e-05
0.000395628
-0.000110682
0.000281328
-0.000120942
0.000173979
-7.56065e-05
9.31803e-05
0.00162304
0.00171827
0.00166359
0.00323201
0.00271295
0.00228733
0.00162853
0.00145233
0.000758218
0.00055176
0.000249636
0.000351917
5.62792e-05
0.000365642
-8.12503e-06
0.000449588
-3.96135e-05
0.000496008
-5.93723e-05
0.000470775
-5.42561e-05
0.000393964
-4.00605e-05
0.000308732
-8.65807e-05
0.000219247
-9.42237e-05
0.000135759
-5.90812e-05
7.27609e-05
-0.00377796
-0.00396783
-0.0035304
-0.00171497
8.90368e-05
0.00071001
0.00500477
0.000962089
0.000423943
0.00038972
0.00015586
0.000265724
2.83778e-05
0.000277496
-2.24379e-05
0.000331583
-4.31038e-05
0.00036013
-5.38954e-05
0.000339985
-4.52799e-05
0.00028357
-3.20338e-05
0.000221234
-6.25753e-05
0.000156883
-6.7547e-05
9.72217e-05
-4.23986e-05
5.21245e-05
-0.00395499
-0.00528744
-0.00560093
-0.00426896
-0.00235243
0.00155947
0.0034743
0.000281984
-0.000334874
0.000226914
1.49061e-06
0.000183616
-1.32069e-05
0.000181005
-3.9212e-05
0.000207141
-4.33362e-05
0.000219752
-4.5212e-05
0.000206903
-3.4087e-05
0.000171656
-2.24998e-05
0.000133244
-3.85763e-05
9.43126e-05
-4.08897e-05
5.84628e-05
-2.56092e-05
3.1333e-05
0.00114781
-0.000955877
-0.0014123
-0.000692601
-0.000652246
0.00248583
0.00235588
0.000325664
-0.000197923
-6.52199e-05
-7.6441e-06
2.14007e-05
-5.07905e-05
6.04809e-05
-5.6493e-05
7.42743e-05
-3.74391e-05
8.03952e-05
-3.27779e-05
7.15897e-05
-2.0662e-05
5.83369e-05
-1.17726e-05
4.47831e-05
-1.44784e-05
3.15646e-05
-1.4233e-05
1.95498e-05
-8.75816e-06
1.04474e-05
0.3664
0.304909
0.258017
0.215158
0.180492
0.150093
0.125206
0.103731
0.0860504
0.0709652
0.0584997
0.047953
0.0392247
0.0318509
0.0257407
0.0205604
0.0162574
0.0126299
0.00841741
0.00690875
-6.245e-05
0.00258664
-0.000122875
0.00118679
-0.000260186
0.0143978
-0.000953968
0.0815976
-0.011561
0.232603
0.000107569
0.000199582
0.000128095
0.000182952
0.000145537
0.000176353
0.000157293
0.000175902
0.000167872
0.000176627
0.000166552
0.000153907
0.00012433
8.73435e-05
4.91378e-05
2.07052e-05
8.50466e-06
6.16175e-06
-2.42826e-06
-1.28701e-05
-6.61739e-05
-8.42449e-05
-0.000121557
-0.000163416
-0.000227316
-0.000207882
-0.000303164
0.000118363
-0.00031638
0.00949701
0.000101143
0.00020877
0.000127254
0.000189195
0.000146702
0.000180654
0.000158783
0.000179052
0.000169766
0.000179532
0.00016877
0.000156327
0.000125802
8.8374e-05
4.98426e-05
2.21188e-05
1.1141e-05
7.53376e-06
2.77232e-06
-1.76867e-05
-5.14651e-05
-8.49202e-05
-0.000112076
-0.000164754
-0.000246125
-0.000370037
-0.000703984
-0.000997912
-0.00338399
-0.00103418
9.40736e-05
0.000203809
0.000122527
0.000184388
0.000142154
0.000176161
0.00015455
0.000175127
0.000166295
0.000176422
0.000165985
0.00015356
0.000122882
8.50431e-05
4.65809e-05
1.96296e-05
9.69188e-06
6.39839e-06
-2.90764e-08
-2.15109e-05
-5.42331e-05
-8.71335e-05
-0.000108444
-0.000162371
-0.000199883
-0.000256808
-0.000179275
-4.58077e-05
0.0005362
0.00327069
8.89425e-05
0.000203651
0.000119637
0.000183882
0.000139994
0.000175115
0.000152713
0.000173957
0.000164948
0.000175629
0.000165243
0.000153214
0.000122454
8.45498e-05
4.60167e-05
1.94822e-05
1.01225e-05
6.1507e-06
-5.65615e-07
-2.36625e-05
-4.88216e-05
-8.56698e-05
-0.000104104
-0.000161529
-0.000197866
-0.000330564
-0.000377309
-0.000675431
-0.000662971
-0.000853354
8.43127e-05
0.000200376
0.000116075
0.000180773
0.000136618
0.00017187
0.000149503
0.000170869
0.000162133
0.000173029
0.000162965
0.000151068
0.000120351
8.23754e-05
4.39839e-05
1.79986e-05
9.31554e-06
5.18186e-06
-2.67288e-06
-2.55015e-05
-4.69743e-05
-8.29806e-05
-9.87057e-05
-0.000155118
-0.000164839
-0.000267211
-0.000129592
-0.000178691
0.000432592
0.000738398
8.0176e-05
0.000197038
0.000112546
0.000177661
0.000133238
0.000168629
0.000146269
0.00016777
0.000159279
0.000170493
0.000160847
0.000149499
0.000119048
8.10352e-05
4.25216e-05
1.67325e-05
8.45664e-06
4.06685e-06
-4.7303e-06
-2.71348e-05
-4.42815e-05
-7.95694e-05
-9.28116e-05
-0.000149191
-0.000146482
-0.000275685
-0.000159404
-0.000415818
3.89983e-05
-0.000594792
7.63056e-05
0.000193086
0.000108858
0.000173998
0.000129551
0.000164871
0.000142648
0.000164145
0.000155955
0.000167386
0.000158221
0.000147249
0.000117246
7.93835e-05
4.08227e-05
1.51314e-05
7.18517e-06
2.7138e-06
-6.82486e-06
-2.86836e-05
-4.20792e-05
-7.59778e-05
-8.60064e-05
-0.000140108
-0.000122767
-0.000246812
-8.29208e-05
-0.000253198
0.000259051
-6.50555e-05
7.26244e-05
0.000188616
0.000105036
0.000169863
0.000125605
0.000160683
0.000138698
0.000160089
0.000152243
0.000163863
0.000155275
0.00014493
0.000115482
7.78185e-05
3.91134e-05
1.3288e-05
5.50507e-06
1.12479e-06
-8.79344e-06
-3.00881e-05
-4.03432e-05
-7.27968e-05
-7.91333e-05
-0.000130706
-0.000103173
-0.000228773
-6.15796e-05
-0.000282001
0.000172256
-0.0003864
6.90797e-05
0.000183653
0.000101087
0.000165273
0.000121408
0.000156078
0.000134427
0.00015561
0.00014814
0.000159901
0.000151953
0.000142286
0.000113592
7.62696e-05
3.73941e-05
1.12064e-05
3.38121e-06
-7.46529e-07
-1.05673e-05
-3.12188e-05
-3.90258e-05
-7.02671e-05
-7.25815e-05
-0.000121188
-8.49238e-05
-0.000205113
-3.46338e-05
-0.000240095
0.000175675
-0.000254018
6.56409e-05
0.00017821
9.70152e-05
0.000160242
0.00011697
0.000151071
0.000129843
0.000150721
0.000143649
0.000155504
0.000148246
0.000139346
0.000111578
7.47493e-05
3.57045e-05
8.9229e-06
7.94733e-07
-2.9769e-06
-1.21639e-05
-3.1949e-05
-3.79205e-05
-6.83474e-05
-6.67631e-05
-0.000112982
-7.00113e-05
-0.000184779
-1.79478e-05
-0.000221943
0.000153344
-0.000271172
6.22927e-05
0.000172297
9.28252e-05
0.00015478
0.000112302
0.000145676
0.000124959
0.000145436
0.000138777
0.00015067
0.000144137
0.000136078
0.00010941
7.32559e-05
3.4088e-05
6.50091e-06
-2.24279e-06
-5.65471e-06
-1.36925e-05
-3.22299e-05
-3.67568e-05
-6.66907e-05
-6.16159e-05
-0.00010629
-5.79665e-05
-0.000166519
-4.72244e-06
-0.000199984
0.000137996
-0.000235836
5.90323e-05
0.000165922
8.8523e-05
0.000148902
0.000107414
0.000139909
0.000119788
0.000139768
0.000133532
0.000145401
0.000139614
0.000132454
0.000107055
7.17781e-05
3.25872e-05
4.02938e-06
-5.67518e-06
-8.8491e-06
-1.53327e-05
-3.21392e-05
-3.5328e-05
-6.48382e-05
-5.68255e-05
-0.000100882
-4.8551e-05
-0.000151727
3.82104e-06
-0.000182684
0.000122655
-0.000211343
5.58654e-05
0.000159097
8.4116e-05
0.000142623
0.00010232
0.000133788
0.000114347
0.000133737
0.000127925
0.000139703
0.000134663
0.000128442
0.000104471