/*--------------------------------*- C++ -*----------------------------------*\
| =========                 |                                                 |
| \\      /  F ield         | OpenFOAM: The Open Source CFD Toolbox           |
|  \\    /   O peration     | Version:  2.4.0                                 |
|   \\  /    A nd           | Web:      www.OpenFOAM.org                      |
|    \\/     M anipulation  |                                                 |
\*---------------------------------------------------------------------------*/
FoamFile
{
    version     2.0;
    format      ascii;
    class       volScalarField;
    location    "0.209";
    object      p_rgh;
}
// * * * * * * * * * * * * * * * * * * * * * * * * * * * * * * * * * * * * * //

dimensions      [1 -1 -2 0 0 0 0];

internalField   nonuniform List<scalar> 
60000
(
101.135
101.139
101.149
101.165
101.186
101.212
101.245
101.283
101.327
101.376
101.432
101.492
101.559
101.631
101.708
101.791
101.88
101.974
102.073
102.178
102.288
102.402
102.522
102.646
102.774
102.907
103.044
103.184
103.328
103.474
103.623
103.774
103.926
104.08
104.233
104.387
104.539
104.689
104.837
104.981
105.12
105.253
105.379
105.497
105.606
105.704
105.789
105.861
105.916
105.955
105.975
105.973
105.949
105.899
105.823
105.717
105.58
105.408
105.201
104.955
104.668
104.338
103.961
103.536
103.061
102.533
101.949
101.308
100.608
99.8466
99.022
98.132
97.1763
96.1536
95.0627
93.9028
92.6738
91.3755
90.0083
88.5729
87.0705
85.5029
83.8721
82.1809
80.4327
78.6312
76.7812
74.8878
72.9573
70.9959
69.0068
67.0079
65.0098
63.0194
61.0466
59.101
57.1913
55.3246
53.5062
51.7397
101.135
101.139
101.149
101.164
101.186
101.212
101.245
101.283
101.327
101.376
101.431
101.492
101.559
101.631
101.708
101.792
101.88
101.974
102.074
102.178
102.288
102.403
102.522
102.647
102.775
102.908
103.045
103.185
103.329
103.476
103.625
103.776
103.929
104.082
104.236
104.39
104.542
104.693
104.84
104.984
105.124
105.257
105.384
105.503
105.611
105.71
105.795
105.867
105.923
105.962
105.982
105.981
105.957
105.908
105.832
105.727
105.59
105.419
105.212
104.966
104.679
104.349
103.973
103.548
103.073
102.545
101.962
101.321
100.621
99.8597
99.0355
98.1452
97.1895
96.1667
95.0757
93.9157
92.6866
91.3881
90.0208
88.5852
87.0827
85.5148
83.8839
82.1925
80.444
78.6423
76.792
74.898
72.9664
71.0032
69.0148
67.016
65.0167
63.025
61.0506
59.1034
57.1917
55.3223
53.5007
51.7316
101.134
101.138
101.147
101.163
101.184
101.211
101.243
101.281
101.325
101.375
101.43
101.491
101.557
101.629
101.707
101.79
101.879
101.973
102.073
102.177
102.287
102.402
102.522
102.646
102.775
102.908
103.045
103.185
103.329
103.476
103.625
103.777
103.93
104.084
104.238
104.392
104.545
104.696
104.844
104.988
105.128
105.262
105.39
105.509
105.618
105.717
105.803
105.876
105.933
105.973
105.993
105.993
105.97
105.922
105.847
105.742
105.606
105.436
105.23
104.985
104.699
104.369
103.994
103.57
103.096
102.568
101.985
101.345
100.646
99.8843
99.0596
98.1713
97.2161
96.1935
95.1026
93.9427
92.7135
91.415
90.0475
88.6117
87.109
85.5409
83.9096
82.2179
80.469
78.6668
76.8159
74.9214
72.989
71.0252
69.0374
67.0371
65.0342
63.0381
61.0581
59.1037
57.183
55.3036
53.4726
51.6963
101.13
101.134
101.144
101.159
101.181
101.207
101.24
101.278
101.322
101.371
101.427
101.488
101.554
101.626
101.704
101.787
101.876
101.97
102.07
102.175
102.285
102.4
102.519
102.644
102.773
102.906
103.043
103.184
103.328
103.476
103.625
103.777
103.93
104.085
104.239
104.394
104.547
104.699
104.848
104.993
105.134
105.268
105.396
105.516
105.627
105.727
105.814
105.888
105.946
105.987
106.009
106.01
105.988
105.941
105.867
105.764
105.629
105.461
105.256
105.012
104.728
104.4
104.026
103.603
103.13
102.604
102.022
101.383
100.685
99.9243
99.1008
98.2128
97.2582
96.236
95.1455
93.9858
92.7568
91.4583
90.0907
88.6548
87.1518
85.5833
83.9515
82.2591
80.5093
78.706
76.8536
74.9574
73.0228
71.0567
69.0666
67.0624
65.0537
63.0501
61.0612
59.0961
57.1629
55.2699
53.4267
51.6398
101.125
101.129
101.139
101.155
101.176
101.203
101.235
101.273
101.317
101.367
101.422
101.483
101.549
101.622
101.699
101.783
101.872
101.966
102.066
102.171
102.281
102.396
102.516
102.64
102.77
102.903
103.041
103.182
103.326
103.474
103.624
103.776
103.93
104.085
104.24
104.396
104.55
104.702
104.852
104.998
105.139
105.275
105.404
105.525
105.637
105.738
105.827
105.902
105.962
106.004
106.028
106.03
106.01
105.965
105.893
105.792
105.659
105.492
105.29
105.048
104.766
104.439
104.067
103.647
103.175
102.651
102.071
101.433
100.736
99.9773
99.1551
98.2679
97.3142
96.2929
95.2029
94.0436
92.8148
91.5163
90.1485
88.7122
87.2086
85.6393
84.0064
82.3126
80.5612
78.7559
76.9011
75.002
73.0641
71.094
69.0993
67.0889
65.0723
63.0588
61.0584
59.0801
57.1321
55.2236
53.366
51.566
101.119
101.123
101.133
101.148
101.169
101.196
101.229
101.267
101.311
101.36
101.416
101.477
101.543
101.615
101.693
101.777
101.866
101.96
102.06
102.165
102.275
102.39
102.511
102.636
102.765
102.899
103.037
103.178
103.323
103.471
103.622
103.775
103.929
104.085
104.241
104.397
104.552
104.705
104.856
105.003
105.146
105.283
105.413
105.536
105.649
105.752
105.842
105.919
105.98
106.025
106.05
106.055
106.037
105.994
105.925
105.826
105.695
105.531
105.331
105.092
104.812
104.488
104.119
103.701
103.232
102.709
102.132
101.496
100.801
100.044
99.2232
98.3375
97.385
96.3647
95.2755
94.1168
92.8883
91.5898
90.2218
88.785
87.2804
85.7098
84.0753
82.3794
80.6255
78.8172
76.9588
75.0554
73.1125
71.1366
69.1352
67.1165
65.0897
63.0641
61.0499
59.0561
57.0911
55.1648
53.2906
51.4749
101.111
101.115
101.125
101.14
101.162
101.188
101.221
101.259
101.303
101.353
101.408
101.469
101.536
101.608
101.686
101.769
101.858
101.953
102.053
102.158
102.268
102.384
102.504
102.629
102.759
102.893
103.032
103.174
103.319
103.468
103.619
103.772
103.927
104.084
104.241
104.398
104.554
104.708
104.86
105.008
105.152
105.291
105.423
105.547
105.662
105.767
105.859
105.938
106.002
106.048
106.076
106.084
106.068
106.028
105.961
105.865
105.738
105.577
105.38
105.144
104.867
104.546
104.18
103.765
103.299
102.779
102.204
101.572
100.879
100.124
99.3054
98.4215
97.4706
96.4516
95.3635
94.2056
92.9774
91.679
90.3106
88.873
87.3672
85.7949
84.1582
82.4596
80.7022
78.8898
77.0267
75.1176
73.1683
71.1849
69.1747
67.1457
65.1065
63.0666
61.0361
59.0246
57.0401
55.0936
53.2002
51.3669
101.102
101.106
101.116
101.131
101.152
101.179
101.212
101.25
101.294
101.343
101.399
101.46
101.526
101.599
101.676
101.76
101.849
101.944
102.044
102.149
102.26
102.376
102.496
102.622
102.752
102.886
103.025
103.168
103.314
103.463
103.615
103.769
103.925
104.082
104.24
104.398
104.555
104.711
104.864
105.014
105.16
105.3
105.434
105.56
105.677
105.784
105.878
105.96
106.026
106.075
106.106
106.116
106.104
106.067
106.004
105.911
105.787
105.63
105.436
105.204
104.931
104.614
104.251
103.839
103.377
102.861
102.289
101.66
100.97
100.218
99.4017
98.52
97.5711
96.5538
95.4669
94.3099
93.0822
91.7838
90.415
88.9764
87.4691
85.8947
84.2552
82.5531
80.7915
78.974
77.1049
75.189
73.2316
71.239
69.2182
67.1767
65.1231
63.0666
61.0174
58.9855
56.979
55.0095
53.0947
51.242
101.091
101.095
101.105
101.12
101.141
101.168
101.201
101.239
101.283
101.332
101.388
101.449
101.515
101.588
101.666
101.749
101.839
101.933
102.033
102.139
102.25
102.366
102.487
102.613
102.743
102.878
103.017
103.16
103.307
103.457
103.609
103.764
103.921
104.08
104.239
104.398
104.556
104.713
104.868
105.02
105.167
105.31
105.446
105.574
105.693
105.802
105.9
105.984
106.053
106.105
106.139
106.153
106.144
106.111
106.051
105.963
105.843
105.689
105.5
105.272
105.003
104.69
104.332
103.924
103.466
102.954
102.386
101.76
101.074
100.325
99.5121
98.6331
97.6866
96.6711
95.5859
94.4299
93.2028
91.9045
90.5352
89.0954
87.5863
86.0093
84.3664
82.6601
80.8935
79.07
77.1938
75.2696
73.3028
71.2994
69.266
67.2102
65.14
63.0645
60.9941
58.9391
56.9079
54.9125
52.9737
51.1008
101.079
101.083
101.092
101.108
101.129
101.156
101.188
101.226
101.27
101.32
101.375
101.436
101.503
101.575
101.653
101.737
101.826
101.921
102.022
102.127
102.238
102.355
102.476
102.602
102.733
102.868
103.008
103.152
103.299
103.45
103.603
103.759
103.917
104.077
104.237
104.397
104.557
104.716
104.873
105.026
105.176
105.32
105.458
105.589
105.711
105.823
105.923
106.01
106.083
106.139
106.176
106.194
106.189
106.16
106.104
106.02
105.905
105.756
105.571
105.348
105.084
104.776
104.423
104.02
103.566
103.059
102.496
101.874
101.191
100.446
99.6368
98.7609
97.817
96.8039
95.7204
94.5657
93.3394
92.0411
90.6712
89.2301
87.7189
86.1389
84.4922
82.781
81.0084
79.1779
77.2935
75.3599
73.3822
71.3663
69.3187
67.2466
65.1576
63.0607
60.9664
58.8855
56.8267
54.802
52.8365
50.9433
101.065
101.069
101.078
101.094
101.115
101.142
101.174
101.212
101.256
101.306
101.361
101.422
101.489
101.561
101.64
101.723
101.813
101.908
102.008
102.114
102.225
102.342
102.464
102.59
102.721
102.857
102.998
103.142
103.29
103.441
103.596
103.753
103.912
104.073
104.234
104.396
104.558
104.718
104.877
105.032
105.184
105.331
105.472
105.605
105.73
105.845
105.949
106.039
106.115
106.175
106.217
106.238
106.238
106.214
106.163
106.084
105.973
105.83
105.65
105.433
105.174
104.872
104.523
104.126
103.678
103.175
102.617
102
101.322
100.581
99.7757
98.9033
97.9626
96.9521
95.8707
94.7175
93.492
92.1939
90.8233
89.3807
87.8671
86.2838
84.6326
82.916
81.1367
79.2983
77.4046
75.4602
73.4702
71.4403
69.3767
67.2863
65.1765
63.0557
60.9346
58.8247
56.7352
54.6777
52.6823
50.7696
101.049
101.053
101.063
101.078
101.1
101.126
101.159
101.197
101.241
101.29
101.346
101.407
101.474
101.546
101.624
101.708
101.797
101.893
101.993
102.099
102.211
102.328
102.45
102.577
102.709
102.845
102.986
103.131
103.28
103.432
103.587
103.745
103.906
104.068
104.231
104.394
104.558
104.72
104.881
105.039
105.193
105.342
105.486
105.622
105.75
105.869
105.976
106.07
106.15
106.214
106.26
106.287
106.291
106.272
106.226
106.153
106.048
105.91
105.737
105.525
105.272
104.976
104.634
104.242
103.8
103.303
102.751
102.139
101.466
100.73
99.929
99.0606
98.1234
97.1159
96.0369
94.8854
93.6608
92.3629
90.9916
89.5474
88.0312
86.4441
84.7881
83.0653
81.2786
79.4313
77.5272
75.5709
73.5673
71.5218
69.4405
67.33
65.1972
63.0501
60.8991
58.7568
56.633
54.5388
52.5094
50.5787
101.032
101.036
101.046
101.062
101.083
101.109
101.142
101.18
101.224
101.273
101.329
101.39
101.456
101.529
101.607
101.691
101.781
101.876
101.977
102.083
102.195
102.312
102.434
102.562
102.694
102.831
102.973
103.118
103.268
103.421
103.578
103.737
103.899
104.062
104.227
104.392
104.557
104.722
104.885
105.045
105.202
105.354
105.501
105.64
105.772
105.894
106.005
106.104
106.188
106.257
106.307
106.339
106.349
106.335
106.295
106.227
106.129
105.997
105.83
105.625
105.379
105.089
104.754
104.369
103.933
103.443
102.896
102.291
101.624
100.893
100.097
99.2329
98.2996
97.2954
96.219
95.0695
93.8461
92.5484
91.1764
89.7305
88.2114
86.6203
84.9589
83.2294
81.4345
79.5774
77.662
75.6925
73.6738
71.6112
69.5105
67.3781
65.2204
63.0445
60.8605
58.6819
56.5198
54.3844
52.3159
50.3681
101.014
101.018
101.028
101.043
101.064
101.091
101.123
101.161
101.205
101.255
101.31
101.371
101.438
101.51
101.589
101.673
101.762
101.858
101.959
102.065
102.177
102.295
102.417
102.545
102.678
102.816
102.958
103.105
103.255
103.409
103.567
103.728
103.891
104.056
104.222
104.389
104.557
104.723
104.889
105.051
105.211
105.366
105.516
105.659
105.795
105.921
106.036
106.139
106.228
106.302
106.358
106.395
106.41
106.403
106.369
106.308
106.216
106.091
105.931
105.733
105.495
105.212
104.884
104.507
104.078
103.595
103.055
102.456
101.795
101.07
100.279
99.4201
98.4912
97.4907
96.4174
95.2701
94.048
92.7507
91.378
89.9303
88.4081
86.8126
85.1455
83.4087
81.6048
79.7371
77.8092
75.8253
73.7903
71.7092
69.5875
67.4314
65.2467
63.0396
60.8194
58.6
56.395
54.2136
52.0999
50.132
100.994
100.998
101.008
101.023
101.044
101.071
101.103
101.141
101.185
101.235
101.29
101.351
101.418
101.49
101.568
101.653
101.742
101.838
101.939
102.046
102.158
102.276
102.399
102.527
102.661
102.799
102.942
103.089
103.241
103.396
103.555
103.717
103.882
104.048
104.216
104.386
104.555
104.724
104.892
105.058
105.22
105.379
105.532
105.679
105.819
105.949
106.069
106.176
106.271
106.35
106.411
106.454
106.476
106.475
106.448
106.394
106.309
106.192
106.04
105.85
105.619
105.344
105.024
104.654
104.233
103.758
103.225
102.633
101.979
101.261
100.476
99.6225
98.6984
97.7021
96.6321
95.4873
94.2668
92.97
91.5967
90.147
88.6216
87.0215
85.3481
83.6035
81.79
79.9108
77.9694
75.9701
73.9173
71.8162
69.6721
67.4906
65.2769
63.0363
60.7766
58.5118
56.2579
54.0256
51.858
49.8557
100.972
100.977
100.986
101.002
101.023
101.049
101.082
101.12
101.163
101.213
101.268
101.329
101.396
101.468
101.547
101.631
101.721
101.816
101.918
102.025
102.137
102.255
102.379
102.508
102.642
102.781
102.925
103.073
103.225
103.382
103.542
103.705
103.871
104.04
104.21
104.381
104.553
104.725
104.895
105.064
105.23
105.392
105.549
105.7
105.844
105.978
106.103
106.216
106.316
106.4
106.468
106.517
106.546
106.551
106.532
106.485
106.409
106.3
106.155
105.974
105.751
105.485
105.173
104.812
104.4
103.933
103.408
102.824
102.177
101.466
100.688
99.8401
98.9213
97.9296
96.8634
95.7214
94.5026
93.2065
91.8326
90.381
88.8523
87.2473
85.5673
83.8143
81.9906
80.0991
78.1433
76.1272
74.0555
71.933
69.7648
67.5563
65.3121
63.0356
60.7332
58.418
56.1086
53.8184
51.58
49.5066
100.949
100.954
100.963
100.979
101
101.026
101.059
101.097
101.14
101.19
101.245
101.306
101.373
101.445
101.523
101.608
101.698
101.793
101.895
102.002
102.115
102.233
102.357
102.487
102.621
102.761
102.906
103.055
103.208
103.366
103.527
103.692
103.86
104.03
104.203
104.376
104.55
104.725
104.898
105.07
105.24
105.405
105.566
105.722
105.87
106.009
106.139
106.257
106.363
106.453
106.528
106.584
106.619
106.632
106.621
106.582
106.514
106.414
106.278
106.105
105.892
105.636
105.333
104.981
104.577
104.119
103.604
103.028
102.389
101.686
100.914
100.073
99.1602
98.1735
97.1114
95.9725
94.7559
93.4605
92.0862
90.6327
89.1005
87.4903
85.8035
84.0416
82.2071
80.3025
78.3313
76.2974
74.2054
72.06
69.8663
67.6296
65.3531
63.0387
60.6908
58.3204
55.9484
53.5891
51.2528
49.0286
100.925
100.929
100.939
100.954
100.975
101.002
101.034
101.072
101.116
101.165
101.22
101.281
101.348
101.42
101.499
101.583
101.673
101.769
101.87
101.978
102.091
102.21
102.334
102.464
102.599
102.74
102.885
103.035
103.19
103.349
103.512
103.678
103.848
104.02
104.194
104.37
104.547
104.724
104.901
105.076
105.249
105.419
105.584
105.744
105.897
106.041
106.177
106.301
106.412
106.509
106.59
106.653
106.697
106.718
106.714
106.684
106.625
106.534
106.408
106.245
106.042
105.795
105.502
105.16
104.766
104.318
103.811
103.245
102.615
101.919
101.156
100.322
99.4151
98.4339
97.3764
96.2411
95.0267
93.7325
92.3578
90.9024
89.3667
87.7512
86.0571
84.286
82.44
80.5217
78.5341
76.4813
74.3678
72.1981
69.9774
67.711
65.4011
63.0471
60.6511
58.2223
55.7808
53.3371
50.8626
48.38
100.899
100.903
100.913
100.928
100.949
100.976
101.008
101.046
101.089
101.139
101.194
101.255
101.321
101.394
101.472
101.556
101.646
101.742
101.844
101.952
102.065
102.185
102.309
102.44
102.576
102.717
102.863
103.014
103.17
103.33
103.495
103.663
103.834
104.008
104.185
104.363
104.543
104.723
104.903
105.082
105.258
105.432
105.602
105.766
105.924
106.075
106.215
106.346
106.463
106.567
106.656
106.726
106.778
106.807
106.813
106.792
106.742
106.661
106.545
106.392
106.199
105.963
105.681
105.35
104.966
104.528
104.032
103.475
102.854
102.168
101.412
100.586
99.6862
98.711
97.6586
96.5272
95.3155
94.0226
92.6477
91.1905
89.6512
88.0303
86.3288
84.5481
82.6901
80.7573
78.7525
76.6797
74.5432
72.3477
70.0986
67.8015
65.4572
63.062
60.6164
58.1279
55.6123
53.0706
50.4353
47.6333
100.872
100.876
100.885
100.901
100.922
100.948
100.98
101.018
101.062
101.111
101.166
101.227
101.293
101.366
101.444
101.528
101.618
101.714
101.816
101.924
102.038
102.158
102.283
102.414
102.551
102.692
102.84
102.992
103.149
103.31
103.476
103.646
103.819
103.995
104.174
104.355
104.538
104.721
104.904
105.087
105.268
105.446
105.62
105.79
105.953
106.109
106.256
106.392
106.517
106.628
106.724
106.802
106.862
106.901
106.915
106.904
106.865
106.794
106.689
106.547
106.365
106.14
105.87
105.549
105.177
104.75
104.264
103.718
103.107
102.43
101.684
100.866
99.9737
99.0051
97.9582
96.8311
95.6225
94.3312
92.9563
91.4975
89.9546
88.3282
86.619
84.8283
82.9579
81.01
78.9872
76.8932
74.7326
72.5097
70.2306
67.9016
65.5221
63.085
60.5892
58.0417
55.4523
52.8085
50.0127
46.9493
100.843
100.847
100.856
100.872
100.893
100.919
100.951
100.989
101.032
101.081
101.136
101.197
101.263
101.336
101.414
101.498
101.589
101.685
101.787
101.895
102.009
102.129
102.255
102.386
102.524
102.666
102.814
102.968
103.126
103.289
103.456
103.628
103.803
103.981
104.163
104.346
104.532
104.718
104.905
105.091
105.276
105.459
105.638
105.813
105.982
106.144
106.297
106.44
106.572
106.691
106.794
106.882
106.95
106.998
107.023
107.022
106.993
106.933
106.84
106.71
106.54
106.327
106.068
105.76
105.399
104.984
104.51
103.974
103.375
102.708
101.971
101.162
100.278
99.3164
98.2755
97.1532
95.9481
94.6587
93.2841
91.8237
90.2774
88.6454
86.9283
85.1274
83.2442
81.2806
79.239
77.123
74.9367
72.6847
70.3738
68.0119
65.5966
63.1165
60.5709
57.968
55.3121
52.5742
49.6328
46.4538
100.812
100.817
100.826
100.841
100.862
100.888
100.92
100.958
101.001
101.05
101.105
101.166
101.232
101.305
101.383
101.467
101.557
101.653
101.756
101.864
101.978
102.099
102.225
102.357
102.495
102.639
102.788
102.942
103.101
103.266
103.435
103.608
103.785
103.966
104.15
104.336
104.525
104.714
104.905
105.095
105.285
105.472
105.657
105.837
106.012
106.18
106.339
106.49
106.629
106.755
106.867
106.963
107.041
107.099
107.134
107.144
107.127
107.079
106.998
106.88
106.722
106.522
106.276
105.98
105.633
105.229
104.767
104.244
103.656
103
102.274
101.474
100.599
99.645
98.6107
97.4938
96.2925
95.0054
93.6314
92.1697
90.62
88.9824
87.2574
85.446
83.5497
81.5701
79.509
77.3698
75.1565
72.8733
70.5285
68.1326
65.6804
63.1558
60.5617
57.9103
55.1962
52.3664
49.2817
46.12
100.781
100.785
100.794
100.809
100.83
100.856
100.888
100.926
100.969
101.018
101.073
101.133
101.199
101.272
101.35
101.434
101.524
101.621
101.723
101.831
101.946
102.067
102.194
102.326
102.465
102.609
102.759
102.915
103.075
103.241
103.412
103.587
103.766
103.949
104.136
104.325
104.517
104.71
104.904
105.099
105.293
105.485
105.675
105.861
106.042
106.216
106.383
106.54
106.687
106.822
106.943
107.048
107.136
107.204
107.25
107.272
107.266
107.231
107.162
107.057
106.913
106.726
106.493
106.211
105.877
105.487
105.038
104.527
103.951
103.307
102.592
101.803
100.937
99.9912
98.9641
97.8531
96.6562
95.3718
93.9987
92.5359
90.9829
89.3397
87.6068
85.7849
83.8752
81.8791
79.798
77.6349
75.393
73.0761
70.6949
68.2636
65.7724
63.1988
60.5576
57.8692
55.1025
52.1595
48.8646
45.6641
100.747
100.751
100.761
100.776
100.797
100.823
100.855
100.892
100.935
100.984
101.038
101.099
101.165
101.237
101.315
101.399
101.49
101.586
101.688
101.797
101.912
102.033
102.16
102.294
102.433
102.578
102.729
102.886
103.048
103.215
103.387
103.564
103.746
103.931
104.12
104.312
104.507
104.704
104.903
105.101
105.3
105.498
105.693
105.885
106.072
106.253
106.427
106.592
106.747
106.89
107.02
107.135
107.233
107.312
107.37
107.403
107.41
107.388
107.333
107.242
107.111
106.939
106.72
106.452
106.132
105.756
105.321
104.824
104.261
103.629
102.926
102.147
101.292
100.355
99.3361
98.2315
97.0395
95.7583
94.3864
92.9227
91.3667
89.7181
87.9771
86.1446
84.2215
82.2087
80.1072
77.9194
75.6474
73.2937
70.8728
68.4046
65.87
63.2368
60.5512
57.847
55.0263
51.9239
48.35
44.8322
100.713
100.717
100.726
100.741
100.762
100.788
100.82
100.857
100.9
100.948
101.003
101.063
101.129
101.201
101.279
101.363
101.453
101.55
101.652
101.761
101.876
101.998
102.125
102.259
102.399
102.545
102.697
102.855
103.018
103.187
103.361
103.54
103.723
103.911
104.103
104.298
104.497
104.697
104.9
105.103
105.307
105.51
105.711
105.909
106.103
106.291
106.472
106.645
106.809
106.961
107.1
107.225
107.333
107.423
107.493
107.539
107.56
107.551
107.51
107.433
107.318
107.16
106.957
106.704
106.399
106.037
105.617
105.134
104.584
103.966
103.275
102.509
101.664
100.737
99.7267
98.6293
97.4428
96.1652
94.795
93.3308
91.772
90.118
88.3691
86.5258
84.5893
82.5598
80.4378
78.225
75.921
73.5262
71.0608
68.5541
65.9691
63.2556
60.522
57.8325
54.9595
51.6504
47.6324
43.03
100.676
100.68
100.69
100.705
100.725
100.751
100.783
100.82
100.863
100.911
100.965
101.025
101.091
101.163
101.241
101.325
101.415
101.511
101.614
101.723
101.839
101.96
102.089
102.223
102.364
102.51
102.663
102.822
102.987
103.157
103.333
103.514
103.7
103.89
104.085
104.283
104.485
104.689
104.896
105.104
105.313
105.521
105.728
105.933
106.134
106.329
106.518
106.699
106.871
107.032
107.181
107.316
107.436
107.538
107.62
107.68
107.714
107.72
107.694
107.632
107.532
107.39
107.203
106.966
106.676
106.33
105.925
105.457
104.922
104.318
103.641
102.887
102.054
101.138
100.136
99.0468
97.8664
96.5931
95.225
93.7607
92.1992
90.5401
88.7833
86.9294
84.9794
82.9334
80.7909
78.5531
76.2158
73.7741
71.2572
68.7112
66.0693
63.2344
60.4197
57.8095
54.9486
51.35
46.745
31.8881
100.639
100.643
100.652
100.667
100.688
100.713
100.745
100.782
100.824
100.873
100.927
100.986
101.052
101.124
101.201
101.285
101.375
101.472
101.574
101.684
101.799
101.921
102.05
102.185
102.326
102.474
102.628
102.788
102.954
103.126
103.303
103.486
103.674
103.867
104.065
104.266
104.472
104.68
104.891
105.104
105.318
105.532
105.745
105.956
106.164
106.367
106.564
106.754
106.934
107.105
107.264
107.41
107.541
107.655
107.751
107.824
107.873
107.894
107.883
107.838
107.755
107.629
107.458
107.238
106.964
106.635
106.246
105.794
105.275
104.685
104.022
103.282
102.461
101.557
100.565
99.4844
98.3108
97.0423
95.6768
94.2128
92.649
90.9849
89.2203
87.3558
85.3926
83.3303
81.1677
78.9058
76.5339
74.0366
71.4569
68.8732
66.1693
63.1368
60.222
57.9491
55.3411
51.177
39.9541
3.15203
100.6
100.604
100.613
100.628
100.648
100.674
100.705
100.742
100.785
100.833
100.886
100.946
101.011
101.083
101.16
101.244
101.334
101.43
101.533
101.642
101.758
101.88
102.009
102.145
102.287
102.436
102.59
102.751
102.919
103.092
103.271
103.456
103.647
103.842
104.043
104.248
104.457
104.669
104.884
105.102
105.322
105.542
105.761
105.98
106.195
106.406
106.611
106.809
106.999
107.179
107.348
107.505
107.648
107.775
107.884
107.972
108.036
108.073
108.079
108.051
107.984
107.876
107.722
107.52
107.264
106.952
106.58
106.144
105.641
105.068
104.42
103.694
102.887
101.995
101.014
99.9423
98.7763
97.5133
96.1511
94.6878
93.122
91.4531
89.6807
87.8057
85.8295
83.7513
81.5696
79.2855
76.8781
74.3128
71.6525
69.0343
66.2748
62.9798
59.9873
58.4681
56.1896
49.7434
9.39001
0.534889
100.559
100.563
100.573
100.587
100.608
100.633
100.664
100.701
100.743
100.791
100.844
100.904
100.969
101.04
101.117
101.201
101.291
101.387
101.49
101.599
101.715
101.838
101.967
102.103
102.246
102.395
102.551
102.713
102.882
103.057
103.238
103.425
103.618
103.816
104.019
104.228
104.44
104.657
104.876
105.099
105.324
105.55
105.777
106.002
106.225
106.444
106.658
106.865
107.064
107.254
107.434
107.602
107.757
107.898
108.021
108.124
108.204
108.257
108.281
108.27
108.222
108.132
107.996
107.812
107.574
107.28
106.926
106.508
106.023
105.466
104.834
104.123
103.33
102.451
101.483
100.421
99.2634
98.0066
96.6483
95.1862
93.6188
91.9453
90.1652
88.2795
86.2907
84.1971
81.9971
79.6943
77.2522
74.6004
71.8298
69.1809
66.409
62.8312
59.6436
59.1899
57.3838
29.5227
0.0295101
0.499718
100.517
100.521
100.531
100.545
100.566
100.591
100.622
100.658
100.7
100.748
100.801
100.86
100.925
100.996
101.073
101.156
101.246
101.342
101.444
101.554
101.67
101.793
101.923
102.059
102.203
102.353
102.51
102.673
102.843
103.019
103.202
103.391
103.587
103.788
103.994
104.205
104.422
104.642
104.867
105.095
105.325
105.558
105.791
106.024
106.255
106.483
106.705
106.921
107.129
107.329
107.52
107.7
107.868
108.022
108.16
108.279
108.376
108.447
108.488
108.496
108.466
108.395
108.279
108.114
107.895
107.62
107.285
106.886
106.418
105.879
105.264
104.57
103.792
102.927
101.972
100.921
99.7725
98.5227
97.1689
95.7086
94.14
92.4621
90.6743
88.7779
86.7764
84.6681
82.4511
80.1361
77.6632
74.8983
71.967
69.2768
66.5984
62.8101
59.1166
59.9311
53.2745
1.90977
0.364934
0.43708
100.474
100.478
100.487
100.502
100.522
100.547
100.578
100.614
100.656
100.703
100.756
100.815
100.879
100.95
101.026
101.109
101.199
101.295
101.397
101.507
101.623
101.746
101.876
102.014
102.158
102.309
102.466
102.631
102.802
102.98
103.165
103.356
103.554
103.757
103.967
104.182
104.401
104.626
104.855
105.089
105.325
105.564
105.805
106.046
106.285
106.521
106.752
106.977
107.195
107.406
107.607
107.799
107.98
108.148
108.302
108.437
108.551
108.64
108.701
108.728
108.718
108.667
108.571
108.426
108.227
107.972
107.657
107.276
106.828
106.308
105.711
105.034
104.273
103.423
102.481
101.442
100.304
99.0621
97.7136
96.2558
94.6864
93.0043
91.2087
89.3011
87.2866
85.1636
82.9303
80.6117
78.1147
75.1736
71.98
69.2928
66.8582
63.0728
58.3892
60.0041
18.5159
0.319194
0.361849
0.394222
100.429
100.434
100.443
100.457
100.477
100.502
100.533
100.569
100.61
100.657
100.71
100.768
100.832
100.902
100.979
101.061
101.15
101.246
101.348
101.458
101.574
101.698
101.828
101.966
102.111
102.262
102.421
102.587
102.759
102.939
103.125
103.318
103.518
103.725
103.937
104.156
104.379
104.608
104.842
105.081
105.323
105.569
105.817
106.066
106.314
106.559
106.799
107.034
107.262
107.482
107.694
107.898
108.093
108.276
108.445
108.598
108.73
108.839
108.919
108.967
108.978
108.947
108.872
108.748
108.57
108.336
108.041
107.681
107.253
106.752
106.174
105.516
104.772
103.938
103.011
101.986
100.858
99.6254
98.283
96.8283
95.2586
93.5726
91.769
89.8495
87.8212
85.6832
83.4329
81.1196
78.6174
75.4336
71.8311
69.327
67.5604
63.6499
55.5015
44.3693
0.462213
0.412495
0.394676
0.436994
100.383
100.388
100.397
100.411
100.431
100.456
100.486
100.522
100.563
100.609
100.661
100.719
100.783
100.853
100.929
101.011
101.1
101.195
101.298
101.407
101.523
101.647
101.778
101.916
102.062
102.214
102.374
102.54
102.714
102.895
103.083
103.279
103.481
103.69
103.906
104.127
104.355
104.588
104.827
105.071
105.319
105.572
105.828
106.085
106.342
106.596
106.846
107.091
107.328
107.558
107.782
107.998
108.206
108.404
108.59
108.761
108.913
109.041
109.142
109.211
109.244
109.235
109.182
109.079
108.923
108.711
108.437
108.099
107.692
107.212
106.654
106.015
105.29
104.474
103.562
102.551
101.436
100.213
98.8777
97.4269
95.8575
94.1678
92.3562
90.4239
88.3801
86.2236
83.9514
81.6492
79.1681
75.7127
71.5455
68.9769
68.1301
65.3852
53.1278
-5.6224
0.646656
0.409447
0.456184
0.417145
100.336
100.34
100.349
100.364
100.383
100.408
100.438
100.473
100.514
100.56
100.612
100.669
100.733
100.802
100.878
100.959
101.048
101.143
101.245
101.354
101.471
101.594
101.726
101.864
102.01
102.164
102.324
102.492
102.667
102.849
103.039
103.236
103.441
103.653
103.872
104.097
104.328
104.566
104.809
105.059
105.313
105.573
105.837
106.103
106.37
106.634
106.893
107.147
107.394
107.635
107.869
108.098
108.32
108.534
108.737
108.926
109.098
109.247
109.37
109.462
109.517
109.531
109.501
109.421
109.287
109.097
108.846
108.53
108.145
107.687
107.151
106.532
105.827
105.029
104.135
103.14
102.038
100.826
99.4984
98.0523
96.484
94.7909
92.971
91.0249
88.9629
86.7869
84.4968
82.204
79.7817
76.1829
71.2764
68.849
69.6209
68.153
41.5222
-0.0152949
0.542247
0.384704
0.425918
0.382367
100.287
100.291
100.301
100.315
100.334
100.359
100.389
100.424
100.464
100.51
100.561
100.618
100.681
100.75
100.825
100.906
100.994
101.089
101.19
101.299
101.416
101.54
101.671
101.811
101.957
102.111
102.272
102.441
102.617
102.801
102.992
103.192
103.399
103.614
103.836
104.064
104.299
104.541
104.789
105.044
105.305
105.572
105.844
106.12
106.396
106.67
106.94
107.204
107.46
107.711
107.956
108.197
108.433
108.663
108.884
109.093
109.286
109.458
109.603
109.718
109.797
109.835
109.828
109.772
109.662
109.495
109.267
108.975
108.613
108.178
107.664
107.067
106.383
105.605
104.73
103.751
102.664
101.464
100.146
98.7055
97.1389
95.4429
93.6147
91.6541
89.5711
87.3698
85.0525
82.7445
80.3905
76.9897
72.8108
69.7871
70.8595
70.8828
11.5683
0.212085
0.446062
0.389239
0.398298
0.386023
100.237
100.241
100.25
100.265
100.284
100.308
100.338
100.372
100.412
100.458
100.508
100.565
100.627
100.695
100.77
100.851
100.938
101.032
101.134
101.242
101.359
101.483
101.615
101.754
101.902
102.057
102.219
102.388
102.565
102.75
102.943
103.145
103.355
103.573
103.798
104.029
104.268
104.514
104.766
105.027
105.294
105.569
105.85
106.135
106.422
106.707
106.987
107.26
107.526
107.786
108.042
108.295
108.546
108.793
109.032
109.262
109.476
109.671
109.841
109.98
110.084
110.147
110.164
110.132
110.047
109.904
109.701
109.432
109.095
108.684
108.194
107.62
106.958
106.202
105.346
104.385
103.314
102.128
100.82
99.3872
97.8234
96.125
94.2885
92.3126
90.2062
87.9737
85.6204
83.2701
80.9479
78.0281
74.1657
71.2608
71.3602
66.8044
5.28271
0.19916
0.402912
0.398697
0.400905
0.390831
100.186
100.19
100.199
100.213
100.232
100.256
100.286
100.32
100.359
100.404
100.454
100.51
100.572
100.64
100.713
100.794
100.88
100.974
101.075
101.183
101.3
101.424
101.556
101.696
101.844
102
102.162
102.333
102.51
102.696
102.891
103.095
103.308
103.529
103.757
103.992
104.234
104.484
104.741
105.006
105.28
105.563
105.853
106.148
106.446
106.743
107.034
107.316
107.591
107.86
108.127
108.392
108.657
108.921
109.18
109.431
109.668
109.887
110.082
110.248
110.377
110.466
110.509
110.502
110.442
110.324
110.146
109.903
109.591
109.205
108.74
108.191
107.553
106.819
105.984
105.043
103.99
102.818
101.523
100.098
98.5385
96.8387
94.9941
93.0023
90.87
88.6011
86.2009
83.7749
81.3701
78.5494
75.0557
71.6649
65.205