/*--------------------------------*- C++ -*----------------------------------*\
| =========                 |                                                 |
| \\      /  F ield         | OpenFOAM: The Open Source CFD Toolbox           |
|  \\    /   O peration     | Version:  2.4.0                                 |
|   \\  /    A nd           | Web:      www.OpenFOAM.org                      |
|    \\/     M anipulation  |                                                 |
\*---------------------------------------------------------------------------*/
FoamFile
{
    version     2.0;
    format      ascii;
    class       volScalarField;
    location    "0.424";
    object      p;
}
// * * * * * * * * * * * * * * * * * * * * * * * * * * * * * * * * * * * * * //

dimensions      [1 -1 -2 0 0 0 0];

internalField   nonuniform List<scalar> 
10000
(
0.00105012
0.00104978
0.00104943
0.00104925
0.00104932
0.00104969
0.00105039
0.00105142
0.00105279
0.00105448
0.00105648
0.00105879
0.00106138
0.00106426
0.0010674
0.0010708
0.00107445
0.00107834
0.00108245
0.0010868
0.00109138
0.00109619
0.00110125
0.00110656
0.00111215
0.00111803
0.00112424
0.00113082
0.00113779
0.00114521
0.0011531
0.00116151
0.00117045
0.00117992
0.00118991
0.00120035
0.00121121
0.00122244
0.001234
0.00124589
0.00125813
0.0012707
0.00128362
0.00129685
0.00131038
0.00132415
0.00133812
0.00135224
0.00136644
0.00138067
0.00105047
0.00105012
0.00104985
0.00104975
0.0010499
0.00105033
0.00105106
0.0010521
0.00105345
0.00105511
0.00105707
0.00105932
0.00106186
0.00106468
0.00106777
0.00107111
0.00107471
0.00107856
0.00108266
0.00108699
0.00109158
0.00109641
0.0011015
0.00110686
0.00111251
0.00111847
0.00112476
0.00113143
0.00113849
0.001146
0.00115397
0.00116244
0.00117143
0.00118094
0.00119094
0.00120141
0.00121229
0.00122354
0.00123513
0.00124706
0.00125931
0.00127188
0.00128476
0.00129794
0.00131137
0.00132502
0.00133884
0.0013528
0.00136683
0.00138088
0.00105081
0.00105041
0.00105013
0.00105009
0.00105029
0.00105076
0.00105151
0.00105255
0.00105389
0.00105552
0.00105744
0.00105964
0.00106213
0.00106489
0.00106792
0.00107122
0.00107478
0.00107859
0.00108266
0.00108698
0.00109156
0.00109641
0.00110152
0.00110692
0.00111262
0.00111863
0.00112499
0.00113173
0.00113886
0.00114643
0.00115446
0.00116299
0.00117203
0.00118158
0.00119164
0.00120216
0.0012131
0.0012244
0.00123604
0.00124801
0.00126029
0.00127287
0.00128574
0.00129886
0.00131223
0.00132578
0.0013395
0.00135332
0.00136721
0.00138112
0.00105098
0.0010505
0.00105019
0.00105015
0.00105038
0.00105087
0.00105163
0.00105267
0.00105399
0.00105559
0.00105748
0.00105964
0.00106208
0.0010648
0.00106779
0.00107104
0.00107456
0.00107834
0.00108239
0.00108669
0.00109127
0.00109611
0.00110124
0.00110665
0.00111237
0.00111842
0.00112481
0.00113158
0.00113874
0.00114634
0.00115441
0.00116297
0.00117205
0.00118167
0.00119181
0.00120243
0.00121346
0.00122485
0.00123656
0.00124858
0.0012609
0.00127351
0.00128638
0.0012995
0.00131284
0.00132635
0.00134
0.00135374
0.00136754
0.00138135
0.00105089
0.00105034
0.00105
0.00104996
0.00105019
0.00105069
0.00105145
0.00105248
0.00105379
0.00105537
0.00105722
0.00105935
0.00106175
0.00106443
0.00106737
0.00107059
0.00107407
0.00107782
0.00108184
0.00108613
0.00109069
0.00109553
0.00110065
0.00110607
0.00111179
0.00111784
0.00112424
0.00113101
0.00113817
0.00114577
0.00115384
0.00116241
0.00117153
0.00118122
0.00119148
0.00120227
0.00121345
0.00122495
0.00123674
0.00124883
0.0012612
0.00127386
0.00128677
0.00129991
0.00131326
0.00132676
0.00134039
0.00135411
0.00136786
0.00138161
0.00105047
0.0010499
0.00104954
0.0010495
0.00104974
0.00105024
0.001051
0.00105203
0.00105332
0.00105488
0.0010567
0.00105879
0.00106115
0.00106378
0.00106668
0.00106986
0.00107331
0.00107703
0.00108103
0.00108529
0.00108984
0.00109466
0.00109977
0.00110517
0.00111089
0.00111692
0.0011233
0.00113004
0.00113717
0.00114473
0.00115276
0.00116131
0.00117045
0.00118022
0.00119066
0.00120169
0.0012131
0.00122475
0.00123664
0.0012488
0.00126124
0.00127395
0.00128693
0.00130012
0.00131351
0.00132705
0.0013407
0.00135442
0.00136817
0.0013819
0.00104971
0.00104915
0.0010488
0.00104877
0.00104902
0.00104953
0.00105029
0.00105131
0.00105258
0.00105411
0.0010559
0.00105795
0.00106027
0.00106286
0.00106572
0.00106886
0.00107228
0.00107597
0.00107993
0.00108418
0.0010887
0.0010935
0.00109859
0.00110397
0.00110965
0.00111566
0.00112199
0.00112867
0.00113573
0.00114321
0.00115115
0.00115963
0.00116874
0.00117859
0.00118927
0.00120072
0.00121246
0.00122429
0.00123626
0.00124849
0.001261
0.0012738
0.00128686
0.00130014
0.00131362
0.00132723
0.00134094
0.00135471
0.00136848
0.00138223
0.00104861
0.00104809
0.00104778
0.00104778
0.00104805
0.00104857
0.00104933
0.00105034
0.00105159
0.00105309
0.00105484
0.00105685
0.00105913
0.00106167
0.00106449
0.00106758
0.00107096
0.00107462
0.00107856
0.00108278
0.00108728
0.00109205
0.00109711
0.00110246
0.0011081
0.00111404
0.00112031
0.0011269
0.00113384
0.00114116
0.00114894
0.00115727
0.00116624
0.00117612
0.00118716
0.00119935
0.0012116
0.00122364
0.00123563
0.00124789
0.00126048
0.00127338
0.00128656
0.00129998
0.00131358
0.00132731
0.00134112
0.00135498
0.00136882
0.00138261
0.00104718
0.00104673
0.00104648
0.00104652
0.00104682
0.00104735
0.00104812
0.00104911
0.00105034
0.00105181
0.00105353
0.00105549
0.00105771
0.0010602
0.00106297
0.00106602
0.00106937
0.001073
0.00107691
0.0010811
0.00108557
0.00109031
0.00109533
0.00110062
0.00110619
0.00111204
0.00111818
0.00112462
0.00113136
0.00113841
0.00114589
0.0011539
0.00116252
0.00117226
0.00118378
0.00119742
0.00121054
0.00122277
0.00123466
0.00124692
0.00125961
0.00127267
0.00128603
0.00129962
0.0013134
0.0013273
0.00134126
0.00135525
0.00136921
0.00138308
0.00104545
0.00104509
0.00104493
0.00104502
0.00104535
0.0010459
0.00104667
0.00104765
0.00104886
0.00105029
0.00105196
0.00105387
0.00105603
0.00105846
0.00106117
0.00106418
0.00106748
0.00107109
0.00107498
0.00107914
0.00108355
0.00108823
0.00109317
0.00109836
0.00110379
0.00110945
0.00111538
0.00112159
0.00112803
0.00113465
0.00114166
0.00114919
0.00115705
0.00116619
0.0011782
0.00119484
0.00120927
0.00122144
0.00123286
0.00124516
0.00125811
0.0012715
0.00128516
0.00129904
0.00131308
0.00132721
0.00134139
0.00135556
0.00136967
0.00138367
0.00104345
0.00104321
0.00104313
0.00104329
0.00104366
0.00104423
0.001045
0.00104597
0.00104715
0.00104854
0.00105015
0.00105199
0.00105407
0.00105643
0.00105907
0.00106202
0.00106529
0.00106888
0.00107274
0.00107683
0.00108113
0.00108567
0.00109044
0.00109543
0.00110066
0.00110612
0.00111186
0.00111792
0.00112407
0.00113011
0.00113648
0.00114342
0.00115006
0.00115779
0.00117012
0.00119233
0.00120867
0.00121988
0.00122979
0.00124198
0.00125535
0.00126932
0.00128358
0.001298
0.00131251
0.00132701
0.00134149
0.00135592
0.00137024
0.00138441
0.00104121
0.0010411
0.00104113
0.00104136
0.00104177
0.00104236
0.00104313
0.00104409
0.00104523
0.00104656
0.0010481
0.00104986
0.00105185
0.00105411
0.00105666
0.00105953
0.00106274
0.00106628
0.00107007
0.001074
0.00107809
0.00108241
0.00108698
0.00109179
0.00109689
0.00110227
0.00110801
0.00111427
0.00112035
0.00112569
0.00113158
0.00113773
0.00114216
0.00114828
0.00115958
0.00119347
0.0012128
0.00122037
0.00122635
0.00123745
0.00125107
0.00126575
0.00128077
0.00129598
0.00131125
0.00132643
0.00134146
0.0013563
0.00137095
0.00138535
0.00103879
0.0010388
0.00103894
0.00103924
0.00103969
0.0010403
0.00104107
0.00104201
0.00104311
0.00104438
0.00104583
0.00104748
0.00104935
0.00105146
0.00105384
0.00105655
0.00105963
0.00106306
0.00106673
0.00107047
0.00107436
0.00107854
0.00108301
0.00108771
0.00109278
0.00109815
0.00110405
0.00111109
0.00111767
0.00112185
0.00112776
0.00113785
0.00113632
0.00113038
0.00115482
0.00122502
0.00124188
0.00123186
0.00122185
0.00122995
0.00124533
0.00126164
0.00127751
0.00129334
0.00130924
0.00132513
0.0013409
0.00135646
0.0013717
0.0013865
0.00103622
0.00103636
0.0010366
0.00103696
0.00103746
0.00103809
0.00103885
0.00103976
0.00104081
0.00104201
0.00104336
0.00104486
0.00104653
0.00104837
0.00105046
0.00105287
0.00105571
0.00105901
0.00106262
0.00106631
0.00107021
0.00107447
0.00107893
0.00108349
0.00108847
0.00109357
0.0010992
0.00110754
0.00111628
0.00112297
0.00113363
0.00113936
0.00113043
0.00118999
0.00113193
0.00131115
0.00132861
0.00126491
0.00120681
0.00122216
0.00124475
0.00126275
0.00127776
0.00129266
0.00130809
0.00132391
0.00133998
0.00135617
0.00137222
0.00138773
0.00103355
0.0010338
0.00103414
0.00103456
0.00103509
0.00103573
0.00103649
0.00103737
0.00103837
0.00103947
0.00104068
0.00104196
0.0010433
0.00104474
0.0010464
0.00104846
0.00105105
0.00105425
0.00105787
0.00106173
0.00106598
0.00107061
0.00107513
0.00107932
0.00108395
0.00108798
0.00109204
0.00110178
0.00111389
0.00112483
0.00114141
0.00115065
0.00114352
0.00107003
0.00104134
0.00224486
0.00198339
0.00143555
0.00129167
0.00127501
0.00127768
0.00127883
0.00128517
0.00129571
0.00130904
0.00132381
0.0013395
0.0013559
0.00137265
0.00138893
0.00103082
0.00103116
0.00103158
0.00103205
0.0010326
0.00103326
0.00103401
0.00103486
0.0010358
0.0010368
0.00103781
0.00103876
0.00103966
0.00104068
0.00104202
0.00104381
0.0010462
0.00104922
0.00105283
0.00105702
0.00106199
0.0010675
0.00107237
0.00107594
0.00107969
0.00108088
0.00108182
0.00109417
0.0011104
0.00113289
0.00115743
0.00125219
0.00122318
0.00140361
0.0048056
0.0101564
0.0102279
0.00817643
0.00167839
0.00140013
0.0013182
0.00129642
0.0012924
0.00129836
0.00130992
0.00132384
0.00133919
0.00135585
0.00137351
0.00139063
0.00102806
0.00102848
0.00102894
0.00102945
0.00103002
0.00103069
0.00103143
0.00103225
0.00103313
0.00103401
0.00103475
0.00103533
0.00103589
0.0010367
0.00103794
0.00103965
0.00104189
0.00104468
0.00104823
0.00105287
0.0010589
0.0010661
0.00107233
0.00107551
0.00107834
0.00107263
0.00106488
0.00108305
0.00110443
0.0011199
0.00114081
0.00116434
0.00120761
0.00129205
0.00282071
0.0101351
0.0103942
0.00430179
0.0014029
0.0013494
0.00131357
0.00129296
0.00128682
0.00129453
0.00130779
0.00132214
0.00133761
0.00135513
0.00137489
0.00139369
0.00102531
0.00102576
0.00102625
0.00102677
0.00102736
0.00102803
0.00102877
0.00102958
0.00103041
0.00103113
0.00103161
0.00103194
0.00103242
0.00103333
0.00103476
0.00103663
0.00103894
0.0010418
0.00104557
0.0010507
0.00105797
0.00106802
0.00107717
0.00108212
0.00109662
0.00107449
0.00102651
0.00108052
0.00111183
0.00112002
0.00113154
0.00114447
0.00113774
0.00113703
0.00115327
0.00213695
0.00207952
0.00151094
0.0014354
0.00134625
0.00131122
0.00128464
0.00127558
0.00128712
0.00130293
0.00131739
0.0013327
0.00135183
0.00137627
0.00139914
0.00102258
0.00102302
0.0010235
0.00102403
0.00102462
0.00102529
0.00102605
0.00102686
0.00102764
0.00102823
0.00102856
0.00102887
0.00102953
0.0010308
0.00103267
0.00103495
0.00103778
0.00104156
0.0010464
0.00105237
0.00106178
0.00107735
0.00108412
0.00109415
0.00108728
0.0011043
0.00226577
0.00111908
0.00112764
0.00112471
0.00112612
0.0011422
0.00113169
0.00111821
0.00115284
0.00131304
0.00134484
0.00125598
0.00120788
0.00122911
0.00124518
0.00125217
0.00126322
0.00128132
0.00129691
0.00130885
0.00132276
0.00134449
0.00137801
0.00140961
0.00101987
0.00102026
0.0010207
0.00102121
0.00102179
0.00102248
0.00102326
0.00102409
0.00102486
0.00102541
0.00102576
0.00102626
0.00102728
0.00102902
0.0010314
0.00103413
0.00103756
0.0010428
0.0010497
0.00105751
0.00107621
0.00109551
0.00110728
0.00110148
0.00114432
0.00124115
0.00143204
0.00122364
0.00113365
0.00112208
0.00112437
0.00112777
0.00114411
0.00117116
0.00119702
0.00123628
0.00125435
0.00123937
0.0012392
0.00124786
0.00125993
0.00125889
0.00125438
0.00127447
0.0012892
0.0012955
0.00130453
0.00132846
0.00138067
0.00143007
0.00101716
0.00101745
0.00101783
0.00101829
0.00101887
0.00101958
0.00102039
0.00102128
0.0010221
0.00102271
0.00102324
0.00102409
0.00102557
0.00102778
0.00103063
0.00103356
0.00103714
0.00104333
0.00105208
0.00105553
0.00106091
0.00108472
0.00111573
0.00129532
0.00121354
0.00128342
0.00124812
0.00111278
0.00109125
0.00111289
0.00112554
0.00112844
0.00113351
0.00115068
0.00118355
0.00123034
0.00124394
0.00123509
0.00122604
0.0012301
0.00123789
0.00127338
0.00207351
0.00127734
0.00128852
0.00128135
0.00127359
0.00129182
0.00139493
0.00148784
0.00101441
0.00101458
0.00101485
0.00101527
0.00101583
0.00101655
0.00101742
0.00101839
0.00101933
0.00102013
0.00102097
0.00102224
0.00102422
0.00102694
0.00103037
0.00103364
0.00103779
0.00104489
0.00105441
0.00103353
0.000991294
0.00236975
0.00120565
0.000997066
0.00133854
0.00161749
0.00198865
0.00105592
0.001118
0.00111269
0.0011285
0.00113449
0.00113562
0.00114574
0.00116274
0.00118814
0.00120683
0.00121869
0.00123337
0.00123964
0.00123639
0.00126184
0.00130356
0.00126998
0.0012577
0.0012681
0.00128715
0.00132092
0.00149003
0.00170924
0.00101158
0.00101159
0.00101174
0.00101209
0.00101263
0.00101337
0.00101431
0.0010154
0.00101651
0.00101758
0.00101881
0.00102055
0.00102306
0.00102645
0.00103076
0.00103539
0.00104225
0.00105263
0.00105991
0.00107829
0.00133198
0.00125443
0.00141937
0.00133093
0.00793568
0.0106044
0.0103953
0.00395081
0.00124455
0.00115961
0.00111915
0.00112345
0.00113087
0.00114227
0.00115727
0.00117723
0.00119699
0.00121421
0.00123057
0.001244
0.00125814
0.0012623
0.00126849
0.00126425
0.00125676
0.00126869
0.00124052
0.00103319
0.00392218
0.00697075
0.0010086
0.00100842
0.00100843
0.0010087
0.00100922
0.00100999
0.001011
0.00101222
0.00101355
0.00101495
0.00101658
0.00101879
0.00102184
0.00102593
0.00103123
0.00103764
0.00104752
0.00105704
0.00107339
0.00172579
0.00111192
0.00120539
0.00132092
0.00363105
0.0105452
0.0105588
0.0106416
0.0096381
0.00150679
0.00116709
0.00153175
0.00111291
0.00112916
0.00113858
0.00115355
0.00116872
0.00118419
0.00119882
0.00121247
0.00122215
0.00123331
0.00126192
0.00128749
0.00128865
0.00127113
0.00130641
0.00142283
0.00260403
0.00726662
0.00722864
0.00100539
0.00100502
0.00100488
0.00100507
0.00100556
0.00100635
0.00100743
0.00100879
0.00101036
0.00101209
0.00101412
0.00101675
0.00102028
0.00102496
0.00103138
0.00103974
0.00104983
0.00106297
0.00116241
0.00108522
0.00110767
0.00117274
0.00123754
0.00409095
0.0104518
0.0105179
0.0105852
0.00934631
0.00154145
0.00114224
0.00111674
0.0011372
0.00114453
0.00114605
0.00115282
0.00116684
0.00118323
0.00119957
0.00121482
0.00123136
0.0012474
0.00163511
0.0013522
0.00129899
0.00127821
0.0012668
0.00127141
0.00117041
0.00501689
0.00718989
0.00100188
0.00100132
0.00100103
0.00100113
0.00100159
0.0010024
0.00100355
0.00100504
0.00100683
0.00100887
0.00101126
0.00101426
0.00101813
0.00102324
0.00103063
0.0010389
0.00104909
0.00109231
0.00107612
0.00108903
0.00115221
0.00114419
0.00114344
0.00116437
0.0070815
0.0105254
0.0103719
0.00332887
0.00120772
0.00121089
0.00119653
0.001201
0.00118583
0.00115676
0.00115379
0.00116244
0.00118273
0.00120252
0.0012159
0.00122355
0.00123275
0.00122745
0.00122853
0.00124767
0.00125755
0.00124762
0.00120829
0.00126282
0.00152712
0.00185155
0.000998
0.000997258
0.000996824
0.000996841
0.000997265
0.000998078
0.000999284
0.00100089
0.00100286
0.00100518
0.0010079
0.00101118
0.00101527
0.00102079
0.00102767
0.00103565
0.0010552
0.00105769
0.00106538
0.00108998
0.00114465
0.00113333
0.00112186
0.00110306
0.001387
0.00137243
0.0016288
0.00112606
0.00120412
0.00120856
0.00122269
0.0012406
0.00124315
0.00183752
0.00115127
0.00117034
0.00118138
0.001206
0.00123938
0.00123014
0.00122307
0.00122404
0.00122151
0.00122782
0.00126649
0.00130687
0.00130273
0.00135042
0.00128382
0.00136381
0.000993673
0.00099277
0.000992206
0.000992146
0.000992535
0.000993351
0.000994597
0.000996283
0.000998407
0.00100095
0.00100393
0.00100744
0.00101172
0.00101705
0.00102367
0.00103257
0.00104126
0.00105129
0.00106212
0.00107034
0.00143886
0.00112281
0.00113386
0.00115463
0.00125435
0.00130254
0.00129602
0.00118715
0.00115991
0.0011784
0.00119264
0.0019227
0.00118097
0.00118885
0.00116733
0.00117793
0.00118611
0.00120261
0.00200905
0.0012425
0.00123636
0.00122363
0.0012019
0.00117885
0.0012106
0.00133534
0.00127896
0.00139606
0.00136875
0.00135412
0.000988847
0.00098781
0.000987136
0.000987009
0.000987365
0.000988177
0.000989449
0.000991192
0.000993418
0.000996123
0.000999307
0.00100302
0.0010074
0.00101264
0.00101895
0.0010266
0.00103628
0.00104591
0.00105487
0.00107401
0.00107825
0.00110218
0.00113485
0.00118174
0.00121711
0.00127227
0.00127814
0.00118007
0.00116256
0.00115731
0.00114409
0.00111886
0.00138451
0.00118021
0.00117177
0.00117606
0.00118867
0.0012171
0.0012021
0.00123476
0.0012526
0.00124262
0.00120019
0.00113716
0.00112795
0.0019896
0.00116314
0.00174432
0.00108634
0.00116409
0.000983478
0.000982337
0.000981578
0.000981397
0.000981723
0.000982527
0.000983812
0.00098559
0.000987876
0.00099068
0.000994006
0.000997871
0.00100234
0.00100752
0.00101358
0.00102078
0.00102934
0.00103867
0.00104765
0.0010613
0.00107163
0.00109237
0.00111248
0.0011422
0.00115706
0.00137594
0.00116273
0.00118607
0.00119634
0.00111548
0.00112567
0.00112304
0.00113321
0.00115656
0.00116698
0.00117389
0.00118619
0.00119905
0.00121524
0.0012439
0.00127485
0.00130709
0.00132015
0.00113875
0.00454984
0.0181901
0.0191895
0.0145014
0.00227318
0.00113874
0.000977535
0.000976326
0.000975507
0.000975286
0.000975589
0.000976383
0.000977671
0.000979462
0.000981774
0.000984623
0.000988024
0.000991987
0.000996535
0.00100172
0.00100761
0.00101435
0.00102223
0.00103134
0.00104266
0.00105201
0.0010635
0.00107782
0.00109988
0.00110284
0.00111368
0.0011178
0.00113597
0.00116233
0.00109678
0.00110439
0.00111561
0.0011208
0.00112961
0.00114306
0.00115435
0.00116562
0.00117949
0.00119735
0.001222
0.00125754
0.0013067
0.00138087
0.00154976
0.00235159
0.0173836
0.0186034
0.0188975
0.0186615
0.0131549
0.00168402
0.000971005
0.00096976
0.000968908
0.000968663
0.000968949
0.000969733
0.000971014
0.000972804
0.000975116
0.000977968
0.000981381
0.000985374
0.000989962
0.000995159
0.00100099
0.00100754
0.00101503
0.00102372
0.0010333
0.001042
0.00105219
0.00106402
0.0010761
0.00108436
0.00109306
0.00109908
0.00110819
0.00109883
0.0010934
0.00109964
0.00110669
0.00111317
0.00112231
0.00113229
0.00114338
0.00115576
0.00117091
0.00118974
0.00121382
0.0012485
0.00129608
0.00136465
0.00145967
0.00143678
0.0103089
0.0189694
0.0190826
0.0191227
0.00573241
0.00139908
0.000963884
0.000962634
0.000961775
0.000961521
0.000961798
0.000962572
0.000963842
0.000965617
0.000967909
0.000970734
0.000974112
0.000978068
0.000982622
0.000987788
0.000993573
0.00100001
0.00100722
0.00101527
0.00102385
0.00103282
0.00104205
0.00105191
0.00106077
0.00106886
0.00107609
0.0010809
0.00108576
0.00108623
0.00108718
0.0010907
0.00109744
0.00110479
0.0011132
0.00112259
0.00113249
0.00114388
0.00115806
0.00117571
0.00119867
0.00123084
0.00127826
0.00134434
0.00145229
0.00173346
0.0132926
0.0186547
0.0193659
0.0188199
0.00776149
0.00146695
0.000956179
0.000954952
0.000954109
0.000953861
0.000954136
0.000954902
0.000956158
0.00095791
0.000960167
0.000962941
0.000966252
0.000970118
0.000974562
0.000979599
0.000985237
0.000991484
0.00099836
0.00100584
0.00101379
0.00102208
0.00103063
0.00103945
0.00104772
0.0010552
0.00106201
0.00106777
0.00107285
0.00107605
0.00107883
0.00108365
0.00108988
0.00109685
0.0011044
0.00111226
0.00112019
0.00112918
0.00114103
0.00115606
0.00117275
0.00119573
0.00122954
0.001272
0.00129527
0.00124478
0.0012002
0.00708975
0.01237
0.00465104
0.000417331
0.000951577
0.000947908
0.000946728
0.00094592
0.000945691
0.000945972
0.000946733
0.000947973
0.000949695
0.000951906
0.000954615
0.000957833
0.000961574
0.000965845
0.000970648
0.000975974
0.000981809
0.000988131
0.000994904
0.00100204
0.00100941
0.00101708
0.00102484
0.00103247
0.00103969
0.00104628
0.00105206
0.00105751
0.00106264
0.00106802
0.00107463
0.00108243
0.00109084
0.00109856
0.00110411
0.00110801
0.00111251
0.00112023
0.00113204
0.00114714
0.00116613
0.00118725
0.00120285
0.00119576
0.00116335
0.00112718
0.00105624
0.000720512
0.000939525
0.000823458
0.000926463
0.000939094
0.000937979
0.000937222
0.000937022
0.000937317
0.000938077
0.0009393
0.00094099
0.00094315
0.000945784
0.000948897
0.000952489
0.000956552
0.000961067
0.000966014
0.000971376
0.000977134
0.000983253
0.000989666
0.000996294
0.00100304
0.00100976
0.00101624
0.00102233
0.00102803
0.00103352
0.00103904
0.00104437
0.00105036
0.00105779
0.001067
0.00107774
0.00108793
0.00109473
0.00109745
0.00109808
0.00110095
0.00110662
0.00111616
0.00112522
0.00112945
0.00113419
0.00113028
0.00111158
0.00107035
0.00100989
0.000901482
0.000932753
0.000923236
0.00097921
0.000929764
0.000928727
0.000928034
0.000927872
0.000928186
0.000928949
0.000930159
0.000931816
0.000933923
0.000936479
0.000939481
0.000942914
0.000946752
0.00095097
0.000955558
0.000960514
0.000965825
0.000971452
0.000977329
0.000983365
0.000989458
0.000995484
0.00100129
0.00100679
0.00101202
0.00101713
0.00102231
0.00102776
0.00103403
0.00104203
0.00105247
0.00106554
0.00107683
0.00108013
0.00107711
0.00107374
0.00107598
0.00108189
0.00108835
0.00109301
0.00109479
0.00109475
0.00108961
0.00107365
0.00104521
0.00101017
0.000956125
0.000965626
0.000961084
0.000990447
0.000919948
0.000918997
0.000918375
0.000918259
0.000918598
0.000919368
0.000920567
0.000922194
0.00092425
0.00092673
0.000929619
0.000932885
0.000936491
0.000940429
0.000944711
0.000949349
0.000954328
0.000959597
0.000965083
0.000970684
0.000976289
0.000981777
0.000987028
0.000991965
0.000996619
0.00100113
0.00100576
0.00101081
0.00101698
0.0010258
0.0010392
0.00105885
0.00107585
0.00107583
0.00106188
0.00104547
0.00104032
0.00104369
0.00105146
0.00105948
0.00106426
0.00106441
0.00105868
0.00104619
0.00102745
0.00100542
0.000977602
0.000982559
0.000993683
0.00101132
0.000909674
0.000908814
0.000908268
0.000908202
0.00090857
0.000909351
0.000910544
0.000912146
0.000914156
0.000916563
0.000919335
0.000922425
0.000925808
0.000929506
0.000933555
0.00093797
0.000942722
0.000947749
0.00095296
0.000958246
0.00096348
0.000968528
0.00097326
0.000977579
0.000981475
0.000985061
0.000988591
0.000992432
0.00099748
0.00100672
0.00102606
0.00106247
0.00108989
0.00108352
0.00105263
0.00101446
0.00100255
0.00100525
0.00101291
0.0010211
0.00102849
0.00103392
0.00103518
0.00102895
0.00101705
0.00100266
0.0009887
0.000990222
0.000996128
0.00100875
0.000898971
0.000898203
0.000897734
0.00089772
0.000898121
0.000898918
0.000900109
0.000901691
0.000903661
0.000905997
0.000908647
0.000911561
0.000914749
0.000918269
0.000922168
0.000926451
0.000931074
0.000935958
0.000941001
0.000946077
0.00095104
0.000955732
0.000959985
0.000963637
0.000966578
0.000968786
0.000970382
0.000971657
0.000973302
0.000979471
0.00100491
0.00106829
0.00114075
0.00112627
0.00104462
0.000965098
0.000950745
0.000961321
0.000974851
0.000986627
0.000995834
0.00100158
0.00100387
0.00100412
0.00100228
0.000997939
0.000991848
0.000991863
0.000996791
0.00100816
0.000887864
0.000887185
0.000886793
0.000886833
0.000887269
0.000888085
0.000889279
0.000890848
0.000892783
0.000895046
0.000897568
0.000900322
0.000903367
0.000906783
0.000910613
0.000914847
0.000919427
0.000924262
0.000929237
0.000934212
0.000939022
0.000943473
0.000947342
0.000950359
0.000952241
0.000952686
0.000951366
0.000947971
0.000941384
0.00093354
0.000953198
0.00106061
0.00125432
0.00124177
0.00102708
0.000868218
0.000874891
0.000911186
0.000936505
0.000954346
0.00096747
0.000975925
0.000980415
0.000982019
0.000981666
0.000981615
0.000983807
0.000989185
0.00099482
0.00100309
0.000876376
0.000875782
0.000875464
0.000875557
0.000876031
0.000876869
0.000878071
0.000879632
0.000881535
0.00088372
0.000886116
0.000888745
0.000891711
0.000895095
0.000898927
0.000903183
0.000907796
0.000912668
0.000917677
0.000922675
0.000927478
0.000931868
0.000935561
0.000938158
0.000939189
0.000938024
0.000933774
0.000924379
0.000906754
0.000870326
0.000811933
0.00134864
0.00395013
0.00440186
0.0015068
0.000610275
0.000799026
0.000868045
0.000902303
0.000926296
0.00094364
0.000954508
0.000960706
0.000963974
0.000965635
0.000967036
0.000969363
0.000974628
0.000984154
0.000995558
0.000864525
0.00086401
0.000863763
0.000863909
0.00086442
0.000865284
0.000866498
0.000868056
0.000869927
0.000872028
0.000874316
0.00087687
0.000879821
0.000883233
0.000887122
0.000891455
0.000896162
0.000901147
0.000906287
0.000911433
0.000916402
0.000920977
0.00092484
0.000927505
0.000928515
0.000927163
0.000921053
0.000910618
0.000890869
0.000843772
0.000789966
0.00861676
0.0125527
0.0127992
0.00966205
0.00113166
0.000827426
0.000863845
0.000889978
0.000908969
0.000926509
0.000937552
0.000944099
0.000948092
0.000950844
0.000953175
0.000955903
0.000960127
0.000966432
0.000975848
0.000852326
0.000851884
0.000851704
0.000851901
0.000852451
0.000853341
0.000854571
0.00085613
0.000857965
0.000859984
0.000862193
0.000864729
0.00086772
0.000871206
0.00087519
0.000879635
0.000884477
0.000889624
0.000894961
0.000900347
0.000905623
0.000910608
0.000915019
0.000918289
0.00092025
0.000919829
0.000913757
0.000901782
0.000886902
0.00088154
0.00150408
0.0133295
0.0128618
0.0129371
0.0132793
0.00199032
0.000871904
0.000868796
0.000877769
0.000896683
0.000913964
0.000923947
0.000929609
0.000934023
0.000936809
0.00093938
0.000941906
0.000945083
0.000949548
0.000955762
0.000839791
0.000839417
0.000839299
0.000839545
0.000840133
0.000841053
0.000842301
0.00084386
0.000845655
0.000847603
0.000849776
0.000852344
0.000855415
0.000859004
0.000863101
0.000867673
0.000872659
0.000877973
0.000883506
0.000889138
0.000894749
0.000900239
0.000905477
0.000909695
0.000913082
0.000915606
0.000915122
0.000911796
0.00090749
0.000899317
0.00121362
0.0113761
0.0126762
0.0129381
0.0125434
0.00185506
0.000845109
0.00086371
0.000879175
0.000892443
0.000907083
0.000915701
0.000919214
0.000920042
0.000922673
0.000925819
0.000927618
0.000929328
0.000931766
0.000935212
0.000826929
0.000826617
0.000826557
0.000826851
0.000827478
0.000828427
0.000829696
0.000831254
0.000833008
0.000834907
0.000837086
0.000839725
0.000842902
0.000846604
0.000850815
0.0008555
0.000860596
0.00086602
0.000871669
0.000877449
0.000883296
0.000889232
0.000895335
0.000900185
0.000904634
0.000913291
0.000916691
0.000921841
0.000923341
0.000919427
0.000918693
0.00262327
0.0101798
0.0110643
0.00309793
0.000673086
0.000861057
0.000867892
0.000879565
0.000893113
0.000909777
0.000912433
0.000909941
0.000905177
0.00091012
0.000912563
0.00091323
0.00091314
0.000913397
0.000913827
0.000813746
0.000813491
0.000813487
0.000813827
0.000814492
0.000815473
0.000816762
0.000818317
0.000820034
0.000821913
0.000824137
0.000826873
0.000830162
0.000833972
0.000838276
0.000843027
0.000848161
0.000853596
0.000859249
0.000865073
0.000871071
0.000877374
0.000884379
0.000890332
0.000897051
0.000962464
0.000914944
0.000926307
0.00094243
0.000970916
0.00105323
0.0012649
0.00127027
0.00122529
0.0012276
0.000951453
0.000887123
0.000890514
0.000896139
0.000897891
0.00112826
0.000903241
0.000914315
0.00102037
0.00089178
0.000899033
0.000898805
0.000897903
0.000895467
0.000892734
0.000800245
0.000800045
0.000800094
0.000800479
0.000801183
0.000802195
0.000803506
0.000805055
0.000806748
0.00080864
0.000810935
0.000813777
0.000817171
0.000821065
0.000825417
0.000830167
0.000835255
0.000840619
0.000846218
0.000852059
0.000858189
0.000864836
0.00087207
0.000879881
0.000889175
0.000896238
0.000906364
0.000923975
0.000946169
0.000980074
0.00103913
0.00113159
0.00114689
0.00112712
0.00109565
0.000981642
0.000926629
0.000906556
0.000899102
0.000958574
0.000880732
0.000888708
0.000899533
0.000906403
0.000892379
0.000900017
0.000885865
0.000883719
0.00087884
0.000872724
0.00078643
0.000786282
0.000786383
0.000786814
0.000787556
0.000788602
0.000789933
0.000791478
0.000793164
0.000795097
0.00079748
0.000800423
0.000803897
0.000807834
0.000812176
0.000816863
0.000821855
0.000827129
0.000832686
0.000838563
0.000844821
0.000851692
0.000859253
0.000867155
0.000877125
0.000887527
0.000900892
0.0009159
0.000937306
0.000964298
0.001002
0.00105229
0.00106064
0.00105041
0.00103264
0.000972465
0.000931664
0.000906759
0.000914234
0.000882654
0.000876859
0.000875305
0.000879004
0.00088932
0.000876747
0.00086784
0.000947475
0.000864632
0.000859835
0.000852822
0.000772303
0.000772207
0.00077236
0.000772836
0.000773618
0.000774697
0.000776048
0.000777594
0.000779295
0.000781292
0.000783766
0.000786789
0.000790307
0.000794238
0.000798521
0.000803114
0.000808009
0.000813215
0.000818755
0.000824675
0.000831039
0.000837936
0.000845702
0.00085426
0.000863703
0.000874312
0.000889216
0.00090549
0.000921477
0.000940902
0.000965843
0.00099533
0.00100875
0.00100863
0.000983282
0.000958324
0.000923092
0.000897842
0.000887934
0.000875056
0.000869457
0.000862678
0.000860618
0.00113888
0.000860872
0.000854927
0.000849844
0.000845099
0.000837294
0.000827197
0.00139489
0.00140905
0.0014231
0.00143703
0.0014508
0.0014644
0.0014778
0.00149099
0.00150394
0.00151662
0.00152901
0.00154107
0.00155276
0.00156407
0.00157495
0.00158539
0.00159539
0.00160495
0.00161409
0.00162283
0.0016312
0.00163919
0.00164684
0.0016542
0.00166132
0.00166823
0.00167493
0.00168139
0.00168759
0.00169352
0.00169915
0.00170448
0.0017095
0.00171422
0.00171864
0.00172278
0.00172664
0.00173024
0.00173359
0.00173669
0.00173953
0.00174213
0.00174446
0.0017465
0.00174823
0.00174961
0.0017506
0.00175118
0.00175135
0.00175123
0.00139493
0.00140891
0.0014228
0.00143657
0.00145019
0.00146364
0.0014769
0.00148994
0.00150274
0.00151528
0.00152753
0.00153945
0.00155103
0.00156224
0.00157305
0.00158346
0.00159346
0.00160306
0.00161228
0.00162114
0.00162966
0.00163784
0.0016457
0.00165326
0.00166058
0.00166766
0.00167449
0.00168107
0.00168736
0.00169336
0.00169905
0.00170443
0.0017095
0.00171426
0.00171872
0.00172289
0.00172677
0.00173039
0.00173374
0.00173682
0.00173965
0.00174221
0.00174449
0.00174648
0.00174816
0.00174949
0.00175047
0.00175105
0.00175123
0.00175111
0.00139501
0.00140884
0.00142258
0.00143621
0.00144969
0.001463
0.00147612
0.00148903
0.0015017
0.00151411
0.00152624
0.00153805