/*--------------------------------*- C++ -*----------------------------------*\
| =========                 |                                                 |
| \\      /  F ield         | OpenFOAM: The Open Source CFD Toolbox           |
|  \\    /   O peration     | Version:  2.4.0                                 |
|   \\  /    A nd           | Web:      www.OpenFOAM.org                      |
|    \\/     M anipulation  |                                                 |
\*---------------------------------------------------------------------------*/
FoamFile
{
    version     2.0;
    format      ascii;
    class       surfaceScalarField;
    location    "0.11";
    object      phi;
}
// * * * * * * * * * * * * * * * * * * * * * * * * * * * * * * * * * * * * * //

dimensions      [0 3 -1 0 0 0 0];

internalField   nonuniform List<scalar> 
7080
(
-2.62475e-08
2.62475e-08
-2.84665e-08
2.21904e-09
-1.38438e-08
-1.46227e-08
7.96259e-09
-2.18064e-08
3.5383e-08
-2.74204e-08
6.67142e-08
-3.13312e-08
9.64157e-08
-2.97015e-08
1.24588e-07
-2.81724e-08
1.48828e-07
-2.42403e-08
1.64584e-07
-1.57558e-08
1.71396e-07
-6.81207e-09
1.61723e-07
9.67343e-09
1.56826e-07
4.89648e-09
9.9938e-08
5.68883e-08
7.97925e-08
2.01455e-08
3.14432e-08
4.83493e-08
-2.73505e-08
5.87937e-08
-7.21182e-08
4.47677e-08
-1.01198e-07
2.90797e-08
-1.35338e-07
3.41405e-08
-2.12237e-07
7.68991e-08
-2.27339e-07
1.5102e-08
-1.45531e-07
-8.18089e-08
-7.26792e-08
-7.28514e-08
-3.78357e-09
-6.88956e-08
4.95642e-08
-5.33478e-08
5.29197e-08
-3.35554e-09
2.78283e-08
2.50913e-08
4.69504e-08
-1.91221e-08
4.29985e-08
3.95178e-09
-4.24961e-08
6.87436e-08
-5.32802e-08
1.30031e-08
-4.07066e-08
-2.71963e-08
-1.72813e-08
-4.52317e-08
1.58459e-08
-6.05475e-08
5.58948e-08
-7.13802e-08
9.67487e-08
-7.05554e-08
1.3804e-07
-6.94641e-08
1.75463e-07
-6.16627e-08
2.07993e-07
-4.8286e-08
2.23473e-07
-2.22924e-08
2.30615e-07
2.53187e-09
2.43056e-07
-7.54493e-09
1.81189e-07
1.18755e-07
1.83829e-07
1.75053e-08
1.45418e-07
8.67612e-08
6.46283e-08
1.39583e-07
1.24946e-08
9.69014e-08
-9.04888e-08
1.32063e-07
-1.96958e-07
1.4061e-07
-2.54635e-07
1.34576e-07
-2.73406e-07
3.38729e-08
-2.50131e-07
-1.05084e-07
-1.83157e-07
-1.39826e-07
-1.04401e-07
-1.47651e-07
-4.60518e-08
-1.11697e-07
-1.57957e-08
-3.36118e-08
-1.89846e-08
2.82801e-08
-2.78563e-08
-1.02506e-08
1.72263e-08
-2.08413e-09
-4.61439e-08
1.14887e-07
-5.92359e-08
2.60951e-08
-4.80018e-08
-3.84304e-08
-2.54049e-08
-6.78287e-08
7.71301e-09
-9.36654e-08
4.82657e-08
-1.11933e-07
9.01838e-08
-1.12473e-07
1.33089e-07
-1.12369e-07
1.72398e-07
-1.00972e-07
2.07737e-07
-8.36255e-08
2.22989e-07
-3.75439e-08
2.39183e-07
-1.36627e-08
2.47145e-07
-1.55066e-08
2.01461e-07
1.6444e-07
2.15787e-07
3.17928e-09
1.85308e-07
1.17239e-07
1.07907e-07
2.16984e-07
6.06135e-08
1.44195e-07
-2.17115e-08
2.14388e-07
-1.45128e-07
2.64026e-07
-2.30631e-07
2.20079e-07
-2.88292e-07
9.15344e-08
-3.15526e-07
-7.78504e-08
-2.74663e-07
-1.80688e-07
-2.16952e-07
-2.05362e-07
-1.57272e-07
-1.71378e-07
-1.02442e-07
-8.84412e-08
-6.25422e-08
-1.16203e-08
-5.55273e-08
-1.72656e-08
-3.40048e-08
-4.29626e-09
-4.70906e-08
1.61978e-07
-6.06512e-08
3.96558e-08
-4.96471e-08
-4.94345e-08
-2.7257e-08
-9.02188e-08
5.813e-09
-1.26735e-07
4.65235e-08
-1.52643e-07
8.8601e-08
-1.54551e-07
1.31914e-07
-1.55682e-07
1.71772e-07
-1.4083e-07
2.0823e-07
-1.20084e-07
2.20559e-07
-4.98729e-08
2.46885e-07
-3.99885e-08
2.33766e-07
-2.38774e-09
2.13136e-07
1.8507e-07
2.4006e-07
-2.37452e-08
1.99506e-07
1.57794e-07
1.31623e-07
2.84867e-07
1.01109e-07
1.74709e-07
5.67069e-08
2.5879e-07
-6.46364e-08
3.8537e-07
-1.69632e-07
3.25075e-07
-2.5988e-07
1.81782e-07
-3.12701e-07
-2.50292e-08
-3.13709e-07
-1.79681e-07
-2.80913e-07
-2.38159e-07
-2.26728e-07
-2.25563e-07
-1.54646e-07
-1.60523e-07
-8.52852e-08
-8.09813e-08
-4.23602e-08
-6.01906e-08
-7.46058e-08
-1.75928e-09
-4.76193e-08
2.09597e-07
-6.13067e-08
5.33431e-08
-5.02598e-08
-6.04814e-08
-2.7903e-08
-1.12576e-07
5.23957e-09
-1.59878e-07
4.60647e-08
-1.93469e-07
8.82003e-08
-1.96687e-07
1.31836e-07
-1.99318e-07
1.72252e-07
-1.81246e-07
2.09576e-07
-1.57408e-07
2.20101e-07
-6.03974e-08
2.5386e-07
-7.37481e-08
2.13668e-07
3.78051e-08
2.19529e-07
1.7921e-07
2.4392e-07
-4.81364e-08
1.88386e-07
2.13327e-07
1.50716e-07
3.22537e-07
1.21653e-07
2.03772e-07
1.09294e-07
2.7115e-07
4.4203e-08
4.50461e-07
-5.94356e-08
4.28713e-07
-1.43594e-07
2.6594e-07
-2.22786e-07
5.41635e-08
-2.59354e-07
-1.43113e-07
-2.74948e-07
-2.22565e-07
-2.52319e-07
-2.48191e-07
-1.88939e-07
-2.23904e-07
-1.10191e-07
-1.59729e-07
-4.34963e-08
-1.26885e-07
-1.19704e-07
1.60213e-09
-4.81704e-08
2.57768e-07
-6.19439e-08
6.71166e-08
-5.07921e-08
-7.16332e-08
-2.8452e-08
-1.34916e-07
4.76212e-09
-1.93092e-07
4.57066e-08
-2.34413e-07
8.78575e-08
-2.38837e-07
1.31837e-07
-2.43297e-07
1.72996e-07
-2.22405e-07
2.10762e-07
-1.95174e-07
2.226e-07
-7.22357e-08
2.58813e-07
-1.09961e-07
2.03563e-07
9.30551e-08
2.23628e-07
1.59145e-07
2.16025e-07
-4.05337e-08
1.64599e-07
2.64753e-07
1.66685e-07
3.20451e-07
1.30061e-07
2.40396e-07
1.31349e-07
2.69862e-07
1.20637e-07
4.61173e-07
6.6486e-08
4.82865e-07
3.9406e-09
3.28486e-07
-4.32945e-08
1.01399e-07
-1.01678e-07
-8.47293e-08
-1.4844e-07
-1.75803e-07
-1.79246e-07
-2.17386e-07
-1.73183e-07
-2.29967e-07
-1.14834e-07
-2.18078e-07
-5.15045e-08
-1.90215e-07
-1.71043e-07
-1.65864e-10
-4.88225e-08
3.0659e-07
-6.26904e-08
8.09845e-08
-5.14043e-08
-8.29193e-08
-2.90876e-08
-1.57232e-07
4.1362e-09
-2.26316e-07
4.52786e-08
-2.75555e-07
8.74271e-08
-2.80986e-07
1.31802e-07
-2.87671e-07
1.73953e-07
-2.64556e-07
2.11576e-07
-2.32798e-07
2.28658e-07
-8.93176e-08
2.62064e-07
-1.43366e-07
2.12858e-07
1.42261e-07
2.35106e-07
1.36896e-07
1.91895e-07
2.67704e-09
1.43346e-07
3.13302e-07
1.7295e-07
2.90846e-07
1.3635e-07
2.76996e-07
1.54926e-07
2.51287e-07
1.95266e-07
4.20832e-07
1.675e-07
5.10631e-07
1.07527e-07
3.88459e-07
6.2581e-08
1.46344e-07
3.94035e-08
-6.15518e-08
2.79553e-08
-1.64355e-07
-4.81036e-09
-1.84621e-07
-4.55691e-08
-1.89208e-07
-5.1854e-08
-2.11793e-07
-2.18141e-08
-2.20255e-07
-1.93654e-07
7.96471e-10
-4.95903e-08
3.56181e-07
-6.35669e-08
9.4961e-08
-5.21194e-08
-9.43667e-08
-2.98358e-08
-1.79516e-07
3.42915e-09
-2.59581e-07
4.47654e-08
-3.16892e-07
8.68888e-08
-3.23109e-07
1.31728e-07
-3.32511e-07
1.75069e-07
-3.07897e-07
2.12094e-07
-2.69823e-07
2.3791e-07
-1.15134e-07
2.57571e-07
-1.63027e-07
2.43078e-07
1.56755e-07
2.52774e-07
1.272e-07
1.97691e-07
5.77599e-08
1.26278e-07
3.84715e-07
1.45882e-07
2.71243e-07
1.09034e-07
3.13844e-07
1.34704e-07
2.25616e-07
2.27444e-07
3.28093e-07
2.54785e-07
4.8329e-07
2.16411e-07
4.26833e-07
1.51222e-07
2.11534e-07
1.12406e-07
-2.27356e-08
1.07834e-07
-1.59783e-07
1.16116e-07
-1.92903e-07
9.51037e-08
-1.68195e-07
5.86478e-08
-1.75338e-07
2.65767e-08
-1.88183e-07
-1.70585e-07
3.50769e-09
-5.04777e-08
4.06658e-07
-6.45775e-08
1.09061e-07
-5.29401e-08
-1.06004e-07
-3.07005e-08
-2.01756e-07
2.63698e-09
-2.92918e-07
4.41625e-08
-3.58417e-07
8.6227e-08
-3.65174e-07
1.31619e-07
-3.77903e-07
1.76173e-07
-3.52451e-07
2.13339e-07
-3.0699e-07
2.45483e-07
-1.47277e-07
2.47351e-07
-1.64896e-07
2.71119e-07
1.32987e-07
2.50188e-07
1.48131e-07
2.00707e-07
1.07241e-07
1.30959e-07
4.54464e-07
1.31667e-07
2.70535e-07
1.34032e-07
3.11479e-07
1.32059e-07
2.2759e-07
2.24733e-07
2.35418e-07
2.88207e-07
4.19816e-07
2.70961e-07
4.44079e-07
2.4516e-07
2.37334e-07
2.28117e-07
-5.69175e-09
2.08418e-07
-1.40084e-07
1.60818e-07
-1.45303e-07
1.17738e-07
-1.25115e-07
9.89623e-08
-1.56562e-07
6.01294e-08
-1.4935e-07
-1.15434e-07
4.97881e-09
-5.14874e-08
4.58146e-07
-6.57243e-08
1.23298e-07
-5.38657e-08
-1.17863e-07
-3.16832e-08
-2.23938e-07
1.76588e-09
-3.26367e-07
4.34684e-08
-4.0012e-07
8.54196e-08
-4.07125e-07
1.31471e-07
-4.23954e-07
1.77198e-07
-3.98178e-07
2.15958e-07
-3.45749e-07
2.4782e-07
-1.79139e-07
2.50987e-07
-1.68063e-07
2.83514e-07
1.0046e-07
2.40049e-07
1.91596e-07
2.00182e-07
1.47108e-07
1.66923e-07
4.87722e-07
1.64965e-07
2.72493e-07
1.98614e-07
2.77829e-07
1.52654e-07
2.7355e-07
1.93053e-07
1.9502e-07
3.10382e-07
3.02486e-07
3.36124e-07
4.18337e-07
2.9939e-07
2.74069e-07
2.64152e-07
2.95459e-08
2.59324e-07
-1.35256e-07
2.07418e-07
-9.3397e-08
1.12395e-07
-3.0092e-08
4.59434e-08
-9.011e-08
2.0696e-08
-1.24103e-07
-9.86708e-08
3.93293e-09
-5.2622e-08
5.10768e-07
-6.70089e-08
1.37685e-07
-5.4895e-08
-1.29977e-07
-3.27854e-08
-2.46048e-07
6.90607e-10
-3.59843e-07
4.26736e-08
-4.42103e-07
8.44666e-08
-4.48918e-07
1.31285e-07
-4.70773e-07
1.78316e-07
-4.45209e-07
2.18724e-07
-3.86156e-07
2.49859e-07
-2.10274e-07
2.66366e-07
-1.8457e-07
2.85179e-07
8.16473e-08
2.41415e-07
2.3536e-07
2.07261e-07
1.81263e-07
2.16154e-07
4.78828e-07
1.96597e-07
2.9205e-07
2.05076e-07
2.6935e-07
1.95442e-07
2.83185e-07
2.07074e-07
1.83388e-07
2.78901e-07
2.3066e-07
3.18634e-07
3.78603e-07
3.30398e-07
2.62306e-07
2.94406e-07
6.55378e-08
1.98348e-07
-3.91981e-08
1.06559e-07
-1.60843e-09
8.45667e-08
-8.09964e-09
5.75647e-08
-6.3108e-08
1.50115e-08
-8.15498e-08
-8.83551e-08
4.69576e-09
-5.38844e-08
5.64652e-07
-6.84331e-08
1.52233e-07
-5.60263e-08
-1.42383e-07
-3.40082e-08
-2.68066e-07
-5.33344e-10
-3.93318e-07
4.17818e-08
-4.84418e-07
8.33671e-08
-4.90504e-07
1.31072e-07
-5.18478e-07
1.79578e-07
-4.93715e-07
2.20817e-07
-4.27395e-07
2.56126e-07
-2.45583e-07
2.78429e-07
-2.06873e-07
2.79592e-07
8.04843e-08
2.54579e-07
2.60373e-07
2.2451e-07
2.11332e-07
2.32079e-07
4.71259e-07
2.00503e-07
3.23626e-07
1.98855e-07
2.70998e-07
2.16956e-07
2.65084e-07
1.85235e-07
2.15109e-07
2.06366e-07
2.09529e-07
2.67373e-07
3.17595e-07
2.74645e-07
2.55034e-07
2.38087e-07
1.02095e-07
1.74978e-07
2.39116e-08
1.62374e-07
1.09958e-08
1.6719e-07
-1.29157e-08
1.05329e-07
-1.2467e-09
3.40054e-08
-1.02266e-08
-4.51151e-08
-9.23457e-09
-5.5278e-08
6.1993e-07
-6.99991e-08
1.66955e-07
-5.72572e-08
-1.55125e-07
-3.53523e-08
-2.89971e-07
-1.79659e-09
-4.26874e-07
4.07878e-08
-5.27002e-07
8.21287e-08
-5.31844e-07
1.30859e-07
-5.67208e-07
1.80824e-07
-5.4368e-07
2.22954e-07
-4.69525e-07
2.64976e-07
-2.87604e-07
2.79886e-07
-2.21784e-07
2.88732e-07
7.1638e-08
2.74373e-07
2.74732e-07
2.242e-07
2.61504e-07
2.39959e-07
4.55501e-07
1.98942e-07
3.64643e-07
1.70095e-07
2.99845e-07
1.92503e-07
2.42676e-07
1.77025e-07
2.30587e-07
1.90714e-07
1.95839e-07
2.39023e-07
2.69286e-07
2.63733e-07
2.30324e-07
2.63239e-07
1.02589e-07
2.43779e-07
4.3372e-08
2.00347e-07
5.44274e-08
8.62824e-08
1.01149e-07
-2.28026e-08
1.07838e-07
-2.50213e-08
-8.00792e-09
-7.0949e-08
8.12735e-10
-5.68065e-08
6.76737e-07
-7.17092e-08
1.81857e-07
-5.85845e-08
-1.6825e-07
-3.6819e-08
-3.11736e-07
-3.15611e-09
-4.60537e-07
3.96879e-08
-5.69846e-07
8.07547e-08
-5.72911e-07
1.30671e-07
-6.17124e-07
1.81931e-07
-5.9494e-07
2.26241e-07
-5.13835e-07
2.70715e-07
-3.32078e-07
2.83115e-07
-2.34184e-07
3.04214e-07
5.05388e-08
2.92616e-07
2.86331e-07
2.38102e-07
3.16018e-07
2.18969e-07
4.74634e-07
1.81773e-07
4.01838e-07
1.63205e-07
3.18413e-07
1.88094e-07
2.17787e-07
2.03936e-07
2.14745e-07
1.999e-07
1.99875e-07
1.95632e-07
2.73555e-07
1.56667e-07
2.69289e-07
5.50234e-08
2.04233e-07
-4.21794e-08
1.40575e-07
-8.84952e-08
1.00743e-07
-9.70282e-08
1.09682e-07
-6.19303e-08
7.27405e-08
-2.43028e-08
-4.56354e-08
-9.32668e-08
-1.98504e-09
-5.84738e-08
7.35211e-07
-7.35658e-08
1.96949e-07
-6.00037e-08
-1.81812e-07
-3.84105e-08
-3.33329e-07
-4.61344e-09
-4.94334e-07
3.84784e-08
-6.12938e-07
7.92504e-08
-6.13683e-07
1.30505e-07
-6.68379e-07
1.82997e-07
-6.47433e-07
2.30234e-07
-5.61072e-07
2.73226e-07
-3.7507e-07
2.94008e-07
-2.54966e-07
3.31585e-07
1.29619e-08
2.96922e-07
3.20993e-07
2.18885e-07
3.94055e-07
1.84318e-07
5.09201e-07
1.53294e-07
4.32863e-07
1.28047e-07
3.43661e-07
8.6688e-08
2.59146e-07
2.98783e-08
2.71554e-07
6.75014e-09
2.23004e-07
3.99959e-08
2.40309e-07
9.49068e-08
2.14378e-07
1.26812e-07
1.72328e-07
1.1457e-07
1.52817e-07
8.1438e-08
1.33875e-07
6.34865e-08
1.27634e-07
8.34994e-08
5.27275e-08
6.34104e-08
-2.55463e-08
-2.26463e-08
-7.2101e-09
-6.02846e-08
7.95495e-07
-7.55718e-08
2.12236e-07
-6.15081e-08
-1.95876e-07
-4.01286e-08
-3.54709e-07
-6.16669e-09
-5.28296e-07
3.71541e-08
-6.56259e-07
7.76192e-08
-6.54148e-07
1.30343e-07
-7.21103e-07
1.84238e-07
-7.01328e-07
2.33521e-07
-6.10355e-07
2.73904e-07
-4.15453e-07
3.21022e-07
-3.02083e-07
3.37117e-07
-3.13361e-09
2.7344e-07
3.84671e-07
1.85134e-07
4.8236e-07
1.41325e-07
5.53011e-07
1.27662e-07
4.46526e-07
1.61619e-07
3.09704e-07
1.80404e-07
2.40361e-07
2.02503e-07
2.49455e-07
2.11358e-07
2.14149e-07
2.42339e-07
2.09328e-07
3.29023e-07
1.27694e-07
3.83163e-07
1.18188e-07
3.90073e-07
1.45907e-07
3.45658e-07
1.78291e-07
2.97583e-07
1.75708e-07
2.40012e-07
1.10299e-07
1.27108e-07
8.73575e-08
1.10029e-07
-5.56652e-09
-6.22437e-08
8.57739e-07
-7.77302e-08
2.27723e-07
-6.30896e-08
-2.10516e-07
-4.1976e-08
-3.75823e-07
-7.81226e-09
-5.62459e-07
3.57096e-08
-6.99781e-07
7.58584e-08
-6.94297e-07
1.30168e-07
-7.75412e-07
1.85887e-07
-7.57046e-07
2.3335e-07
-6.57819e-07
2.85249e-07
-4.67352e-07
3.33095e-07
-3.49929e-07
3.1419e-07
1.57715e-08
2.59591e-07
4.3927e-07
1.83245e-07
5.58706e-07
1.21717e-07
6.14539e-07
1.801e-07
3.88143e-07
2.17128e-07
2.72675e-07
2.00564e-07
2.56926e-07
1.85416e-07
2.64602e-07
1.33886e-07
2.65679e-07
6.56485e-08
2.77566e-07
7.2236e-08
1.21106e-07
1.32484e-07
5.79398e-08
1.93389e-07
8.50015e-08
2.10885e-07
1.60796e-07
1.89992e-07
1.96601e-07
1.26758e-07
1.73533e-07
4.59017e-08
1.68213e-07
1.58091e-07
-2.1601e-09
-6.43565e-08
9.22095e-07
-8.00444e-08
2.43411e-07
-6.47378e-08
-2.25823e-07
-4.39557e-08
-3.96605e-07
-9.54529e-09
-5.9687e-07
3.41385e-08
-7.43464e-07
7.3955e-08
-7.34114e-07
1.30031e-07
-8.31488e-07
1.8733e-07
-8.14345e-07
2.3199e-07
-7.02479e-07
2.96904e-07
-5.32266e-07
3.21576e-07
-3.74601e-07
3.22353e-07
1.49943e-08
3.06127e-07
4.55496e-07
2.3886e-07
6.25974e-07
2.53595e-07
5.99803e-07
2.21014e-07
4.20724e-07
1.3328e-07
3.60409e-07
1.16231e-07
2.73974e-07
1.21963e-07
2.58871e-07
1.83576e-07
2.04065e-07
1.16637e-07
3.44505e-07
-7.18773e-08
3.09621e-07
-1.55952e-07
1.42014e-07
-1.1262e-07
4.16705e-08
-3.18182e-08
7.99933e-08
-2.3186e-08
1.87969e-07
-4.14825e-08
1.9183e-07
-3.19064e-08
1.58637e-07
1.25641e-07
5.43346e-10
-6.6629e-08
9.88724e-07
-8.25179e-08
2.59299e-07
-6.64664e-08
-2.41874e-07
-4.6071e-08
-4.17e-07
-1.13598e-08
-6.31581e-07
3.24342e-08
-7.87258e-07
7.18908e-08
-7.7357e-07
1.30003e-07
-8.896e-07
1.87728e-07
-8.72071e-07
2.30781e-07
-7.45531e-07
2.93148e-07
-5.94633e-07
3.22333e-07
-4.03787e-07
3.70387e-07
-3.30591e-08
3.64104e-07
4.61778e-07
2.06406e-07
7.83672e-07
8.38348e-08
7.22375e-07
1.76209e-08
4.86938e-07
-5.91084e-08
4.37139e-07
6.33858e-08
1.5148e-07
1.94464e-07
1.27792e-07
2.67704e-07
1.30826e-07
3.24329e-07
2.8788e-07
1.97013e-07
4.36936e-07
-1.37811e-08
3.52809e-07
-1.28263e-07
1.56153e-07
-1.26263e-07
7.79928e-08
-1.08979e-07
1.70685e-07
-1.00046e-07
1.82897e-07
-5.60319e-08
1.14623e-07
7.14226e-08
-1.81366e-09
-6.90675e-08
1.05779e-06
-8.51544e-08
2.75386e-07
-6.83023e-08
-2.58726e-07
-4.83254e-08
-4.36977e-07
-1.32475e-08
-6.66659e-07
3.0589e-08
-8.31095e-07
6.96482e-08
-8.12629e-07
1.30083e-07
-9.50035e-07
1.85483e-07
-9.27471e-07
2.2263e-07
-7.82678e-07
2.77945e-07
-6.49948e-07
3.47926e-07
-4.73767e-07
4.13027e-07
-9.81604e-08
3.5696e-07
5.17845e-07
1.81476e-07
9.59155e-07
7.53061e-08
8.28545e-07
1.70197e-07
3.92047e-07
2.19813e-07
3.87522e-07
6.67515e-08
3.04542e-07
5.2303e-08
1.42241e-07
1.21128e-07
6.20006e-08
2.1043e-07
1.98577e-07
3.01889e-07
3.45477e-07
2.13588e-07
4.4111e-07
1.05035e-07
2.64706e-07
-1.24787e-08
1.95506e-07
-6.42318e-08
2.22438e-07
-6.18703e-08
1.80535e-07
-3.41783e-08
8.6931e-08
4.10757e-08
-3.83136e-09
-7.16792e-08
1.12947e-06
-8.79578e-08
2.91665e-07
-7.02523e-08
-2.76432e-07
-5.07228e-08
-4.56506e-07
-1.5198e-08
-7.02184e-07
2.85934e-08
-8.74886e-07
6.72227e-08
-8.51259e-07
1.29601e-07
-1.01241e-06
1.751e-07
-9.7297e-07
1.95563e-07
-8.03141e-07
2.66917e-07
-7.21302e-07
3.28246e-07
-5.35096e-07
2.97415e-07
-6.73294e-08
1.97853e-07
6.17407e-07
1.86119e-07
9.7089e-07
1.67592e-07
8.47071e-07
2.7086e-07
2.8878e-07
1.50899e-07
5.07483e-07
-1.79527e-07
6.34967e-07
-1.09405e-08
-2.63452e-08
1.74524e-07
-1.23464e-07
6.62789e-08
3.06822e-07
1.71024e-07
2.40732e-07
2.15652e-07
3.96482e-07
1.25593e-07
3.54765e-07
2.60015e-08
2.95098e-07
-8.40508e-09
2.56844e-07
1.59345e-09
1.70537e-07
4.48096e-09
8.40435e-08
4.75888e-08
-2.03217e-09
-7.44688e-08
1.20394e-06
-9.09322e-08
3.08128e-07
-7.23101e-08
-2.95054e-07
-5.32678e-08
-4.75549e-07
-1.71997e-08
-7.38252e-07
2.64323e-08
-9.18518e-07
6.46033e-08
-8.8943e-07
1.24509e-07
-1.07232e-06
1.44311e-07
-9.92772e-07
1.52089e-07
-8.10918e-07
2.50233e-07
-8.19447e-07
-1.54834e-07
-1.30029e-07
-7.78814e-07
5.5665e-07
-5.87733e-07
4.26326e-07
-5.48003e-08
4.37958e-07
-1.35766e-07
9.28036e-07
-1.927e-07
3.45714e-07
-1.15333e-08
3.26317e-07
2.54564e-08
5.97977e-07
1.43841e-08
-1.52729e-08
1.51424e-07
-2.60503e-07
5.9736e-08
3.9851e-07
-3.81601e-08
3.38628e-07
1.34783e-08
3.44844e-07
3.79402e-09
3.64449e-07
-1.33989e-09
3.00232e-07
2.7984e-08
2.2752e-07
4.92198e-08
1.49301e-07
3.43018e-08
9.89615e-08
8.13065e-08
5.84021e-10
-7.74746e-08
1.28141e-06
-9.40822e-08
3.24736e-07
-7.44647e-08
-3.14671e-07
-5.59655e-08
-4.94048e-07
-1.92426e-08
-7.74975e-07
2.40619e-08
-9.61823e-07
6.12396e-08
-9.26607e-07
1.0125e-07
-1.11233e-06
8.27058e-08
-9.74228e-07
1.42485e-07
-8.70698e-07
1.80003e-07
-8.56964e-07
-4.50966e-07
5.00941e-07
-1.14192e-06
1.24761e-06
-7.874e-07
7.18024e-08
-4.15949e-07
6.65073e-08
-2.70365e-07
7.82452e-07
-2.90239e-07
3.65588e-07
-1.12513e-07
1.48591e-07
-6.68014e-08
5.52266e-07
-1.16138e-07
3.40634e-08
1.44811e-07
-5.21452e-07
1.42911e-07
4.00411e-07
-7.62237e-08
5.57763e-07
-1.46091e-07
4.14711e-07
-1.18975e-07
3.37333e-07
-6.7529e-08
2.48786e-07
-1.20333e-08
1.72025e-07
3.18838e-08
1.05384e-07
2.76652e-08
1.0318e-07
1.09498e-07
-5.26714e-10
-8.04376e-08
1.36185e-06
-9.74122e-08
3.4171e-07
-7.67081e-08
-3.35375e-07
-5.88206e-08
-5.11935e-07
-2.13319e-08
-8.12464e-07
2.12967e-08
-1.00445e-06
5.31636e-08
-9.58474e-07
3.27455e-08
-1.09191e-06
1.33529e-08
-9.54836e-07
3.77324e-07
-1.23467e-06
5.76802e-08
-5.3732e-07
9.13163e-07
-3.54542e-07
5.51047e-07
1.60972e-06
-7.5974e-07
1.38259e-06
-4.56664e-07
-2.36568e-07
-2.31764e-07
5.57552e-07
-2.99047e-07
4.3287e-07
-3.01065e-07
1.5061e-07
-1.59756e-07
4.10957e-07
-1.18172e-07
-7.52121e-09
5.75827e-08
-6.97207e-07
1.88772e-07
2.69221e-07
2.70089e-08
7.19526e-07
-9.08951e-08
5.32614e-07
-1.30704e-07
3.77142e-07
-1.24871e-07
2.42953e-07
-7.15033e-08
1.18657e-07
-1.67229e-08
5.06031e-08
2.71373e-09
8.37435e-08
1.1182e-07
3.92018e-10
-8.53071e-08
1.44716e-06
-1.00922e-07
3.57325e-07
-7.90367e-08
-3.57261e-07
-6.18414e-08
-5.29131e-07
-2.35716e-08
-8.50733e-07
1.70744e-08
-1.0451e-06
2.59031e-08
-9.67303e-07
-5.2307e-08
-1.0137e-06
2.53385e-07
-1.26053e-06
1.34428e-06
-2.32557e-06
1.17387e-06
-3.66913e-07
9.37448e-07
-1.18114e-07
-2.82171e-07
2.82934e-06
-1.18791e-06
2.28833e-06
-6.98043e-07
-7.2644e-07
-3.53766e-07
2.13275e-07
-3.63737e-07
4.42841e-07
-4.31113e-07
2.17985e-07
-2.22421e-07
2.02265e-07
-6.34652e-08
-1.66477e-07
4.32404e-08
-8.03912e-07
2.29154e-07
8.33082e-08
1.1316e-07
8.35519e-07
-1.44418e-08
6.60216e-07
-1.18217e-07
4.80917e-07
-1.31718e-07
2.56454e-07
-9.14166e-08
7.83554e-08
-4.98345e-08
9.02098e-09
-1.52975e-08
4.92064e-08
9.04351e-08
6.08741e-09
-8.07046e-08
1.52786e-06
-1.04663e-07
3.81284e-07
-8.14383e-08
-3.80486e-07
-6.50568e-08
-5.45512e-07
-2.65851e-08
-8.89205e-07
6.1529e-09
-1.07784e-06
-5.52225e-08
-9.05928e-07
-9.09458e-08
-9.77978e-07
8.05912e-07
-2.15739e-06
2.31861e-06
-3.83826e-06
1.71621e-06
2.35487e-07
4.42255e-08
1.55387e-06
-1.01943e-06
3.893e-06
-9.40459e-07
2.20936e-06
-9.38173e-07
-7.28728e-07
-5.39927e-07
-1.84971e-07
-4.30977e-07
3.33891e-07
-4.36657e-07
2.23666e-07
-3.21859e-07
8.74665e-08
-1.36518e-07
-3.51818e-07
-7.52245e-08
-8.65206e-07
4.90547e-08
-4.0971e-08
2.08478e-08
8.63726e-07
-5.12933e-08
7.32357e-07
-1.02758e-07
5.32382e-07
-9.19998e-08
2.45695e-07
-7.06764e-08
5.7032e-08
-5.44052e-08
-7.25031e-09
-2.48453e-08
1.96466e-08
5.87312e-08
6.85868e-09
-1.19706e-07
1.64757e-06
-1.08154e-07
3.69732e-07
-8.39617e-08
-4.04678e-07
-6.8643e-08
-5.60831e-07
-3.33565e-08
-9.24491e-07
-2.43476e-08
-1.08684e-06
-1.55071e-07
-7.75204e-07
4.56024e-07
-1.58907e-06
3.08589e-06
-4.78725e-06
2.57997e-06
-3.33234e-06
1.44968e-06
1.36578e-06
-2.72031e-07
3.27558e-06
-1.22266e-06
4.84362e-06
-1.27243e-06
2.25914e-06
-1.26976e-06
-7.31397e-07
-7.95415e-07
-6.59316e-07
-5.1031e-07
4.87861e-08
-4.77726e-07
1.91082e-07
-4.28906e-07
3.86471e-08
-3.18728e-07
-4.61996e-07
-2.50844e-07
-9.3309e-07
-1.00123e-07
-1.91692e-07
-8.60871e-08
8.49691e-07
-8.38839e-08
7.30154e-07
-6.76336e-08
5.16132e-07
-4.75075e-08
2.25569e-07
-4.92293e-08
5.87539e-08
-4.69486e-08
-9.53098e-09
-2.75101e-08
2.08089e-10
2.49886e-08
6.23247e-09
-1.0637e-08
1.65821e-06
-1.13991e-07
4.73086e-07
-8.64778e-08
-4.32191e-07
-7.37252e-08
-5.73584e-07
-5.51102e-08
-9.43106e-07
-1.05804e-07
-1.03615e-06
8.79544e-09
-8.89803e-07
3.93438e-07
-1.97372e-06
1.76745e-07
-4.57056e-06
1.01618e-06
-4.17177e-06
7.87288e-07
1.59468e-06
-3.59154e-07
4.42202e-06
-1.16103e-06
5.6455e-06
-9.52707e-07
2.05081e-06
-9.29992e-07
-7.5411e-07
-1.14869e-06
-4.40614e-07
-5.85799e-07
-5.14107e-07
-4.98049e-07
1.03331e-07
-4.7666e-07
1.72585e-08
-4.66285e-07
-4.72372e-07
-4.59694e-07
-9.3968e-07
-2.36715e-07
-4.14672e-07
-1.16463e-07
7.29439e-07
-9.40142e-08
7.07705e-07
-4.80991e-08
4.70217e-07
-4.33902e-08
2.2086e-07
-5.31236e-08
6.84874e-08
-4.58096e-08
-1.6845e-08
-2.45337e-08
-2.10678e-08
-8.47117e-09
8.92611e-09
-2.57617e-07
1.91582e-06
-1.01982e-07
3.17451e-07
-9.0513e-08
-4.4366e-07
-8.65339e-08
-5.77563e-07
-1.24696e-07
-9.04944e-07
-2.48769e-07
-9.12077e-07
3.46458e-07
-1.48503e-06
1.88661e-06
-3.51387e-06
1.2062e-06
-3.89015e-06
4.41449e-07
-3.40702e-06
3.11668e-07
1.72446e-06
-2.87877e-07
5.02157e-06
-1.09974e-06
6.45735e-06
-2.25179e-06
3.20287e-06
-2.41008e-06
-5.95817e-07
-2.35134e-06
-4.99352e-07
-6.60807e-07
-2.20464e-06
-5.21929e-07
-3.55464e-08
-4.23762e-07
-8.09086e-08
-5.28061e-07
-3.68073e-07
-5.71994e-07
-8.95747e-07
-3.64504e-07
-6.22163e-07
-2.50714e-07
6.15649e-07
-1.7008e-07
6.27071e-07
-8.13697e-08
3.81507e-07
-7.63285e-08
2.15819e-07
-5.39444e-08
4.61033e-08
-4.25875e-08
-2.82018e-08
-2.26609e-08
-4.09944e-08
-3.98313e-08
8.69918e-09
7.11518e-08
1.84467e-06
-1.13948e-07
5.02551e-07
-9.42985e-08
-4.6331e-07
-1.31505e-07
-5.40356e-07
-3.14085e-07
-7.22364e-07
6.43853e-08
-1.29055e-06
6.30854e-07
-2.0515e-06
1.26967e-06
-4.15269e-06
9.11841e-07
-3.53232e-06
1.19377e-08
-2.50712e-06
1.19867e-07
1.61653e-06
5.22931e-08
5.08914e-06
-4.6397e-07
6.97362e-06
-3.71961e-07
3.11086e-06
-6.93399e-07
-2.74381e-07
-9.54802e-07
-2.37958e-07
-8.55872e-07
-2.30357e-06
-6.03629e-07
-2.87789e-07
-4.07848e-07
-2.76689e-07
-4.64785e-07
-3.11136e-07
-5.97369e-07
-7.63163e-07
-5.46897e-07
-6.72635e-07
-4.16336e-07
4.85088e-07
-3.00012e-07
5.10746e-07
-1.46602e-07
2.28097e-07
-1.11302e-07
1.80519e-07
-3.56923e-08
-2.95064e-08
-2.86378e-08
-3.52563e-08
-2.03705e-08
-4.92618e-08
7.43671e-09
-6.76384e-08
-4.42672e-08
4.8219e-08
-2.61007e-08
-1.81666e-08
-5.19593e-08
2.58586e-08
-4.99628e-08
-1.99656e-09
4.67946e-09
-5.46423e-08
7.29734e-08
-6.82939e-08
1.43805e-07
-7.08321e-08
2.25118e-07
-8.13131e-08
2.11613e-07
1.35059e-08
1.36854e-07
7.47584e-08
1.02131e-07
3.47231e-08
7.19655e-08
3.01655e-08
2.6562e-08
4.54035e-08
-3.27802e-08
5.93422e-08
-8.1284e-08
4.85038e-08
-1.00899e-07
1.96148e-08
-1.5638e-07
5.54808e-08
-1.60344e-07
3.96455e-09
-1.70226e-07
9.88223e-09
-1.64207e-07
-6.0196e-09
-1.48919e-07
-1.52879e-08
-1.24921e-07
-2.39979e-08
-9.66791e-08
-2.82418e-08
-6.68857e-08
-2.97934e-08
-3.54532e-08
-3.14324e-08
-7.99872e-09
-2.74545e-08
1.38112e-08
-2.181e-08
2.83947e-08
-1.45834e-08
2.61802e-08
2.21446e-09
2.61802e-08
2.72663e-08
1.88685e-08
1.80882e-08
-8.98866e-09
1.46702e-08
2.92766e-08
4.48801e-08
-3.22066e-08
1.04186e-07
-1.13948e-07
1.83447e-07
-1.47555e-07
2.50109e-07
-1.37494e-07
2.73283e-07
-1.04488e-07
2.55201e-07
3.15879e-08
1.97318e-07
1.32642e-07
9.10739e-08
1.40967e-07
-1.22443e-08
1.33484e-07
-6.58456e-08
9.90048e-08
-1.47036e-07
1.40532e-07
-1.85618e-07
8.70867e-08
-1.82063e-07
1.60589e-08
-2.42201e-07
1.15619e-07
-2.29021e-07
-9.21518e-09
-2.22069e-07
2.93012e-09
-2.07485e-07
-2.06037e-08
-1.75542e-07
-4.72311e-08
-1.38348e-07
-6.11915e-08
-9.70126e-08
-6.95776e-08
-5.60729e-08
-7.07331e-08
-1.59367e-08
-7.15686e-08
1.72128e-08
-6.06041e-08
4.06341e-08
-4.52312e-08
5.3161e-08
-2.71103e-08
4.24001e-08
1.29753e-08
6.85803e-08
4.93951e-08
-3.48229e-08
6.03645e-08
-1.99582e-08
1.01704e-07
-1.20631e-08
1.57475e-07
-8.79776e-08
2.17212e-07
-1.73685e-07
2.74943e-07
-2.05287e-07
3.16263e-07
-1.78813e-07
2.90792e-07
-7.90166e-08
2.32447e-07
8.99322e-08
1.44617e-07
2.20472e-07
2.25737e-08
2.6301e-07
-6.00008e-08
2.16058e-07
-1.09092e-07
1.48096e-07
-1.86989e-07
2.18429e-07
-2.17436e-07
1.17534e-07
-2.02096e-07
7.18918e-10
-2.45841e-07
1.59364e-07
-2.37493e-07
-1.75636e-08
-2.21544e-07
-1.30186e-08
-2.07223e-07
-3.49245e-08
-1.72497e-07
-8.19569e-08
-1.33389e-07
-1.00299e-07
-9.04475e-08
-1.12519e-07
-4.84433e-08
-1.12737e-07
-7.79945e-09
-1.12212e-07
2.53296e-08
-9.37331e-08
4.79223e-08
-6.78239e-08
5.91095e-08
-3.82975e-08
4.60434e-08
2.60414e-08
1.14624e-07
3.94536e-08
-7.60359e-08
8.44974e-08
-6.5002e-08
1.54402e-07
-8.19678e-08
2.27203e-07
-1.60779e-07
2.80828e-07
-2.2731e-07
3.13781e-07
-2.38239e-07
3.13526e-07
-1.78559e-07
2.61854e-07
-2.7344e-08
1.72715e-07
1.7907e-07
6.81242e-08
3.25064e-07
-5.48704e-08
3.86005e-07
-1.01438e-07
2.62626e-07
-1.32979e-07
1.79637e-07
-2.00784e-07
2.86234e-07
-2.41869e-07
1.58619e-07
-2.13491e-07
-2.76592e-08
-2.321e-07
1.77973e-07
-2.45011e-07
-4.65331e-09
-2.19121e-07
-3.8908e-08
-2.077e-07
-4.63461e-08
-1.71908e-07
-1.17749e-07
-1.32222e-07
-1.39986e-07
-8.88684e-08
-1.55873e-07
-4.67002e-08
-1.54905e-07
-5.92577e-09
-1.52987e-07
2.71818e-08
-1.26841e-07
4.95674e-08
-9.02094e-08
6.05235e-08
-4.92536e-08
4.69887e-08
3.95762e-08
1.61612e-07
4.52727e-08
-1.19706e-07
1.08748e-07
-1.28477e-07
1.87253e-07
-1.60473e-07
2.51505e-07
-2.25031e-07
2.74509e-07
-2.50314e-07
2.60372e-07
-2.24102e-07
2.25397e-07
-1.43584e-07
1.46351e-07
5.17022e-08
6.25091e-08
2.62913e-07
-4.05539e-08
4.28127e-07
-1.07171e-07
4.52621e-07
-1.20929e-07
2.76385e-07
-1.51637e-07
2.10345e-07
-1.89313e-07
3.23911e-07
-2.45114e-07
2.14419e-07
-2.20161e-07
-5.26115e-08
-2.11922e-07
1.69734e-07
-2.51736e-07
3.51607e-08
-2.1869e-07
-7.19541e-08
-2.09033e-07
-5.60034e-08
-1.72442e-07
-1.54339e-07
-1.32155e-07
-1.80273e-07
-8.84738e-08
-1.99554e-07
-4.6242e-08
-1.97137e-07
-5.36375e-09
-1.93865e-07
2.78291e-08
-1.60034e-07
5.01807e-08
-1.12561e-07
6.11781e-08
-6.02509e-08
4.75162e-08
5.32381e-08
2.09129e-07
5.13107e-08
-1.71183e-07
1.14024e-07
-1.9119e-07
1.73063e-07
-2.19512e-07
1.79142e-07
-2.3111e-07
1.4818e-07
-2.19352e-07
1.02064e-07
-1.77986e-07
4.37301e-08
-8.52498e-08
-3.00605e-09
9.84384e-08
-6.46079e-08
3.24514e-07
-1.18432e-07
4.81951e-07
-1.30015e-07
4.64205e-07
-1.29752e-07
2.76122e-07
-1.67807e-07
2.484e-07
-1.65588e-07
3.21692e-07
-2.17569e-07
2.664e-07
-2.2498e-07
-4.52011e-08
-2.02476e-07
1.4723e-07
-2.56344e-07
8.90285e-08
-2.21209e-07
-1.07089e-07
-2.10209e-07
-6.70033e-08
-1.73256e-07
-1.91292e-07
-1.32166e-07
-2.21362e-07
-8.81393e-08
-2.43581e-07
-4.58813e-08
-2.39395e-07
-4.8646e-09
-2.34882e-07
2.83797e-08
-1.93278e-07
5.0714e-08
-1.34895e-07
6.18145e-08
-7.13514e-08
4.80658e-08
6.69868e-08
2.57194e-07
2.33669e-08
-1.93754e-07
5.32139e-08
-2.21037e-07
4.61066e-08
-2.12405e-07
3.89727e-09
-1.88901e-07
-2.97939e-08
-1.85661e-07
-4.02411e-08
-1.67539e-07
-6.15581e-08
-6.39328e-08
-1.06113e-07
1.42993e-07
-1.65782e-07
3.84184e-07
-1.93618e-07
5.09787e-07
-1.5389e-07
4.24477e-07
-1.36586e-07
2.58818e-07
-1.74709e-07
2.86523e-07
-1.45217e-07
2.92199e-07
-1.9499e-07
3.16174e-07
-2.37844e-07
-2.34738e-09
-2.1259e-07
1.21977e-07
-2.59032e-07
1.3547e-07
-2.27254e-07
-1.38867e-07
-2.11023e-07
-8.32352e-08
-1.74298e-07
-2.28017e-07
-1.32149e-07
-2.63511e-07
-8.77182e-08
-2.88012e-07
-4.54532e-08
-2.8166e-07
-4.22e-09
-2.76115e-07
2.90174e-08
-2.26515e-07
5.13272e-08
-1.57205e-07
6.25598e-08
-8.25839e-08
4.87162e-08
8.08303e-08
3.05911e-07
-2.02519e-08
-1.69994e-07
-5.42155e-08
-1.87074e-07
-9.32873e-08
-1.73333e-07
-1.16272e-07
-1.65916e-07
-1.08186e-07
-1.93747e-07
-1.1233e-07
-1.63395e-07
-1.48762e-07
-2.7501e-08
-2.13353e-07
2.07583e-07
-2.52841e-07
4.23672e-07
-2.26231e-07
4.83178e-07
-1.32695e-07
3.3094e-07
-1.07273e-07
2.33396e-07
-1.47866e-07
3.27116e-07
-1.30289e-07
2.74622e-07
-2.01814e-07
3.87699e-07
-2.56287e-07
5.21259e-08
-2.43227e-07
1.08916e-07
-2.53505e-07
1.45748e-07
-2.36419e-07
-1.55952e-07
-2.11564e-07
-1.0809e-07
-1.75516e-07
-2.64065e-07
-1.32095e-07
-3.06932e-07
-8.71903e-08
-3.32916e-07
-4.49394e-08
-3.23911e-07
-3.51744e-09
-3.17537e-07
2.9768e-08
-2.59801e-07
5.20438e-08
-1.79481e-07
6.34349e-08
-9.39751e-08
4.9482e-08
9.47832e-08
3.55393e-07
-5.16295e-08
-1.13386e-07
-9.2689e-08
-1.46014e-07
-1.13388e-07
-1.52635e-07
-1.57007e-07
-1.22297e-07
-2.06014e-07
-1.4474e-07
-2.27184e-07
-1.42224e-07
-2.43858e-07
-1.08276e-08
-2.68328e-07
2.32054e-07
-2.8492e-07
4.40264e-07
-2.21705e-07
4.19962e-07
-1.28957e-07
2.38192e-07
-1.31107e-07
2.35546e-07
-1.32976e-07
3.28986e-07
-1.36827e-07
2.78473e-07
-2.05034e-07
4.55905e-07
-2.52767e-07
9.98587e-08
-2.70866e-07
1.27016e-07
-2.42364e-07
1.17245e-07
-2.43758e-07
-1.54558e-07
-2.12877e-07
-1.38971e-07
-1.76743e-07
-3.00198e-07
-1.32005e-07
-3.5167e-07
-8.65417e-08
-3.7838e-07
-4.43355e-08
-3.66118e-07
-2.71329e-09
-3.59159e-07
3.06353e-08
-2.93149e-07
5.2866e-08
-2.01712e-07
6.44441e-08
-1.05553e-07
5.0367e-08
1.0886e-07
4.0576e-07
-1.32351e-08
-9.62177e-08
-3.90155e-08
-1.20234e-07
-1.09136e-07
-8.25138e-08
-2.09258e-07
-2.21753e-08
-2.58239e-07
-9.57587e-08
-2.61132e-07
-1.39332e-07
-2.95702e-07
2.37429e-08
-3.31132e-07
2.67484e-07
-3.07952e-07
4.17083e-07
-1.91716e-07
3.03726e-07