/*--------------------------------*- C++ -*----------------------------------*\
| =========                 |                                                 |
| \\      /  F ield         | OpenFOAM: The Open Source CFD Toolbox           |
|  \\    /   O peration     | Version:  2.4.0                                 |
|   \\  /    A nd           | Web:      www.OpenFOAM.org                      |
|    \\/     M anipulation  |                                                 |
\*---------------------------------------------------------------------------*/
FoamFile
{
    version     2.0;
    format      ascii;
    class       volScalarField;
    location    "0.333";
    object      alpha.water;
}
// * * * * * * * * * * * * * * * * * * * * * * * * * * * * * * * * * * * * * //

dimensions      [0 0 0 0 0 0 0];

internalField   nonuniform List<scalar> 
60000
(
1
1
1
1
1
1
1
1
1
1
1
1
1
1
1
1
1
1
1
1
1
1
1
1
1
1
1
1
1
1
1
1
1
1
1
1
1
1
1
1
1
1
1
1
1
1
1
1
1
1
1
1
1
1
1
1
1
1
1
1
1
1
1
1
1
1
1
1
1
1
1
1
1
1
1
1
1
1
1
1
1
1
1
1
1
1
1
1
1
1
1
1
1
1
1
1
1
1
1
1
1
1
1
1
1
1
1
1
1
1
1
1
1
1
1
1
1
1
1
1
1
1
1
1
1
1
1
1
1
1
1
1
1
1
1
1
1
1
1
1
1
1
1
1
1
1
1
1
1
1
1
1
1
1
1
1
1
1
1
1
1
1
1
1
1
1
1
1
1
1
1
1
1
1
1
1
1
1
1
1
1
1
1
1
1
1
1
1
1
1
1
1
1
1
1
1
1
1
1
1
1
1
1
1
1
1
1
1
1
1
1
1
1
1
1
1
1
1
1
1
1
1
1
1
1
1
1
1
1
1
1
1
1
1
1
1
1
1
1
1
1
1
1
1
1
1
1
1
1
1
1
1
1
1
1
1
1
1
1
1
1
1
1
1
1
1
1
1
1
1
1
1
1
1
1
1
1
1
1
1
1
1
1
1
1
1
1
1
1
1
1
1
1
1
1
1
1
1
1
1
1
1
1
1
1
1
1
1
1
1
1
1
1
1
1
1
1
1
1
1
1
1
1
1
1
1
1
1
1
1
1
1
1
1
1
1
1
1
1
1
1
1
1
1
1
1
1
1
1
1
1
1
1
1
1
1
1
1
1
1
1
1
1
1
1
1
1
1
1
1
1
1
1
1
1
1
1
1
1
1
1
1
1
1
1
1
1
1
1
1
1
1
1
1
1
1
1
1
1
1
1
1
1
1
1
1
1
1
1
1
1
1
1
1
1
1
1
1
1
1
1
1
1
1
1
1
1
1
1
1
1
1
1
1
1
1
1
1
1
1
1
1
1
1
1
1
1
1
1
1
1
1
1
1
1
1
1
1
1
1
1
1
1
1
1
1
1
1
1
1
1
1
1
1
1
1
1
1
1
1
1
1
1
1
1
1
1
1
1
1
1
1
1
1
1
1
1
1
1
1
1
1
1
1
1
1
1
1
1
1
1
1
1
1
1
1
1
1
1
1
1
1
1
1
1
1
1
1
1
1
1
1
1
1
1
1
1
1
1
1
1
1
1
1
1
1
1
1
1
1
1
1
1
1
1
1
1
1
1
1
1
1
1
1
1
1
1
1
1
1
1
1
1
1
1
1
1
1
1
1
1
1
1
1
1
1
1
1
1
1
1
1
1
1
1
1
1
1
1
1
1
1
1
1
1
1
1
1
1
1
1
1
1
1
1
1
1
1
1
1
1
1
1
1
1
1
1
1
1
1
1
1
1
1
1
1
1
1
1
1
1
1
1
1
1
1
1
1
1
1
1
1
1
1
1
1
1
1
1
1
1
1
1
1
1
1
1
1
1
1
1
1
1
1
1
1
1
1
1
1
1
1
1
1
1
1
1
1
1
1
1
1
1
1
1
1
1
1
1
1
1
1
1
1
1
1
1
1
1
1
1
1
1
1
1
1
1
1
1
1
1
1
1
1
1
1
1
1
1
1
1
1
1
1
1
1
1
1
1
1
1
1
1
1
1
1
1
1
1
1
1
1
1
1
1
1
1
1
1
1
1
1
1
1
1
1
1
1
1
1
1
1
1
1
1
1
1
1
1
1
1
1
1
1
1
1
1
1
1
1
1
1
1
1
1
1
1
1
1
1
1
1
1
1
1
1
1
1
1
1
1
1
1
1
1
1
1
1
1
1
1
1
1
1
1
1
1
1
1
1
1
1
1
1
1
1
1
1
1
1
1
1
1
1
1
1
1
1
1
1
1
1
1
1
1
1
1
1
1
1
1
1
1
1
1
1
1
1
1
1
1
1
1
1
1
1
1
1
1
1
1
1
1
1
1
1
1
1
1
1
1
1
1
1
1
1
1
1
1
1
1
1
1
1
1
1
1
1
1
1
1
1
1
1
1
1
1
1
1
1
1
1
1
1
1
1
1
1
1
1
1
1
1
1
1
1
1
1
1
1
1
1
1
1
1
1
1
1
1
1
1
1
1
1
1
1
1
1
1
1
1
1
1
1
1
1
1
1
1
1
1
1
1
1
1
1
1
1
1
1
1
1
1
1
1
1
1
1
1
1
1
1
1
1
1
1
1
1
1
1
1
1
1
1
1
1
1
1
1
1
1
1
1
1
1
1
1
1
1
1
1
1
1
1
1
1
1
1
1
1
1
1
1
1
1
1
1
1
1
1
1
1
1
1
1
1
1
1
1
1
1
1
1
1
1
1
1
1
1
1
1
1
1
1
1
1
1
1
1
1
1
1
1
1
1
1
1
1
1
1
1
1
1
1
1
1
1
1
1
1
1
1
1
1
1
1
1
1
1
1
1
1
1
1
1
1
1
1
1
1
1
1
1
1
1
1
1
1
1
1
1
1
1
1
1
1
1
1
1
1
1
1
1
1
1
1
1
1
1
1
1
1
1
1
1
1
1
1
1
1
1
1
1
1
1
1
1
1
1
1
1
1
1
1
1
1
1
1
1
1
1
1
1
1
1
1
1
1
1
1
1
1
1
1
1
1
1
1
1
1
1
1
1
1
1
1
1
1
1
1
1
1
1
1
1
1
1
1
1
1
1
1
1
1
1
1
1
1
1
1
1
1
1
1
1
1
1
1
1
1
1
1
1
1
1
1
1
1
1
1
1
1
1
1
1
1
1
1
1
1
1
1
1
1
1
1
1
1
1
1
1
1
1
1
1
1
1
1
1
1
1
1
1
1
1
1
1
1
1
1
1
1
1
1
1
1
1
1
1
1
1
1
1
1
1
1
1
1
1
1
1
1
1
1
1
1
1
1
1
1
1
1
1
1
1
1
1
1
1
1
1
1
1
1
1
1
1
1
1
1
1
1
1
1
1
1
1
1
1
1
1
1
1
1
1
1
1
1
1
1
1
1
1
1
1
1
1
1
1
1
1
1
1
1
1
1
1
1
1
1
1
1
1
1
1
1
1
1
1
1
1
1
1
1
1
1
1
1
1
1
1
1
1
1
1
1
1
1
1
1
1
1
1
1
1
1
1
1
1
1
1
1
1
1
1
1
1
1
1
1
1
1
1
1
1
1
1
1
1
1
1
1
1
1
1
1
1
1
1
1
1
1
1
1
1
1
1
1
1
1
1
1
1
1
1
1
1
1
1
1
1
1
1
1
1
1
1
1
1
1
1
1
1
1
1
1
1
1
1
1
1
1
1
1
1
1
1
1
1
1
1
1
1
1
1
1
1
1
1
1
1
1
1
1
1
1
1
1
1
1
1
1
1
1
1
1
1
1
1
1
1
1
1
1
1
1
1
1
1
1
1
1
1
1
1
1
1
1
1
1
1
1
1
1
1
1
1
1
1
1
1
1
1
1
1
1
1
1
1
1
1
1
1
1
1
1
1
1
1
1
1
1
1
1
1
1
1
1
1
1
1
1
1
1
1
1
1
1
1
1
1
1
1
1
1
1
1
1
1
1
1
1
1
1
1
1
1
1
1
1
1
1
1
1
1
1
1
1
1
1
1
1
1
1
1
1
1
1
1
1
1
1
1
1
1
1
1
1
1
1
1
1
1
1
1
1
1
1
1
1
1
1
1
1
1
1
1
1
1
1
1
1
1
1
1
1
1
1
1
1
1
1
1
1
1
1
1
1
1
1
1
1
1
1
1
1
1
1
1
1
1
1
1
1
1
1
1
1
1
1
1
1
1
1
1
1
1
1
1
1
1
1
1
1
1
1
1
1
1
1
1
1
1
1
1
1
1
1
1
1
1
1
1
1
1
1
1
1
1
1
1
1
1
1
1
1
1
1
1
1
1
1
1
1
1
1
1
1
1
1
1
1
1
1
1
1
1
1
1
1
1
1
1
1
1
1
1
1
1
1
1
1
1
1
1
1
1
1
1
1
1
1
1
1
1
1
1
1
1
1
1
1
1
1
1
1
1
1
1
1
1
1
1
1
1
1
1
1
1
1
1
1
1
1
1
1
1
1
1
1
1
1
1
1
1
1
1
1
1
1
1
1
1
1
1
1
1
1
1
1
1
1
1
1
1
1
1
1
1
1
1
1
1
1
1
1
1
1
1
1
1
1
1
1
1
1
1
1
1
1
1
1
1
1
1
1
1
1
1
1
1
1
1
1
1
1
1
1
1
1
1
1
1
1
1
1
1
1
1
1
1
1
1
1
1
1
1
1
1
1
1
1
1
1
1
1
1
1
1
1
1
1
1
1
1
1
1
1
1
1
1
1
1
1
1
1
1
1
1
1
1
1
1
1
1
1
1
1
1
1
1
1
1
1
1
1
1
1
1
1
1
1
1
1
1
1
1
1
1
1
1
1
1
1
1
1
1
1
1
1
1
1
1
1
1
1
1
1
1
1
1
1
1
1
1
1
1
1
1
1
1
1
1
1
1
1
1
1
1
1
1
1
1
1
1
1
1
1
1
1
1
1
1
1
1
1
1
1
1
1
1
1
1
1
1
1
1
1
1
1
1
1
1
1
1
1
1
1
1
1
1
1
1
1
1
1
1
1
1
1
1
1
1
1
1
1
1
1
1
1
1
1
1
1
1
1
1
1
1
1
1
1
1
1
1
1
1
1
1
1
1
1
1
1
1
1
1
1
1
1
1
1
1
1
1
1
1
1
1
1
1
1
1
1
1
1
1
1
1
1
1
1
1
1
1
1
1
1
1
1
1
1
1
1
1
1
1
1
1
1
1
1
1
1
1
1
1
1
1
1
1
1
1
1
1
1
1
1
1
1
1
1
1
1
1
1
1
1
1
1
1
1
1
1
1
1
1
1
1
1
1
1
1
1
1
1
1
1
1
1
1
1
1
1
1
1
1
1
1
1
1
1
1
1
1
1
1
1
1
1
1
1
1
1
1
1
1
1
1
1
1
1
1
1
1
1
1
1
1
1
1
1
1
1
1
1
1
1
1
1
1
1
1
1
1
1
1
1
1
1
1
1
1
1
1
1
1
1
1
1
1
1
1
1
1
1
1
1
1
1
1
1
1
1
1
1
1
1
1
1
1
1
1
1
1
1
1
1
1
1
1
1
1
1
1
1
1
1
1
1
1
1
1
1
1
1
1
1
1
1
1
1
1
1
1
1
1
1
1
1
1
1
1
1
1
1
1
1
1
1
1
1
1
1
1
1
1
1
1
1
1
1
1
1
1
1
1
1
1
1
1
1
1
1
1
1
1
1
1
1
1
1
1
1
1
1
1
1
1
1
1
1
1
1
1
1
1
1
1
1
1
1
1
1
1
1
1
1
1
1
1
1
1
1
1
1
1
1
1
1
1
1
1
1
1
1
1
1
1
1
1
1
1
1
1
1
1
1
1
1
1
1
1
1
1
1
1
1
1
1
1
1
1
1
1
1
1
1
1
1
1
1
1
1
1
1
1
1
1
1
1
1
1
1
1
1
1
1
1
1
1
1
1
1
1
1
1
1
1
1
1
1
1
1
1
1
1
1
1
1
1
1
1
1
1
1
1
1
1
1
1
1
1
1
1
1
1
1
1
1
1
1
1
1
1
1
1
1
1
1
1
1
1
1
1
1
1
1
1
1
1
1
1
1
1
1
1
1
1
1
1
1
1
1
1
1
1
1
1
1
1
1
1
1
1
1
1
1
1
1
1
1
1
1
1
1
1
1
1
1
1
1
1
1
1
1
1
1
1
1
1
1
1
1
1
1
1
1
1
1
1
1
1
1
1
1
1
1
1
1
1
1
1
1
1
1
1
1
1
1
1
1
1
1
1
1
1
1
1
1
1
1
1
1
1
1
1
1
1
1
1
1
1
1
1
1
1
1
1
1
1
1
1
1
1
1
1
1
1
1
1
1
1
1
1
1
1
1
1
1
1
1
1
1
1
1
1
1
1
1
1
1
1
1
1
1
1
1
1
1
1
1
1
1
1
1
1
1
1
1
1
1
1
1
1
1
1
1
1
1
1
1
1
1
1
1
1
1
1
1
1
1
1
1
1
1
1
1
1
1
1
1
1
1
1
1
1
1
1
1
1
1
1
1
1
1
1
1
1
1
1
1
1
1
1
1
1
1
1
1
1
1
1
1
1
1
1
1
1
1
1
1
1
1
1
1
1
1
1
1
1
1
1
1
1
1
1
1
1
1
1
1
1
1
1
1
1
1
1
1
1
1
1
1
1
1
1
1
1
1
1
1
1
1
1
1
1
1
1
1
1
1
1
1
1
1
1
1
1
1
1
1
1
1
1
1
1
1
1
1
1
1
1
1
1
1
1
1
1
1
1
1
1
1
1
1
1
1
1
1
1
1
1
1
1
1
1
1
1
1
1
1
1
1
1
1
1
1
1
1
1
1
1
1
1
1
1
1
1
1
1
1
1
1
1
1
1
1
1
1
1
1
1
1
1
1
1
1
1
1
1
1
1
1
1
1
1
1
1
1
1
1
1
1
1
1
1
1
1
1
1
1
1
1
1
1
1
1
1
1
1
1
1
1
1
1
1
1
1
1
1
1
1
1
1
1
1
1
1
1
1
1
1
1
1
1
1
1
1
1
1
1
1
1
1
1
1
1
1
1
1
1
1
1
1
1
1
1
0.994061
0.958656
0.900191
0.833076
0.830686
0.870955
0.991141
1
1
1
1
1
1
1
1
1
1
1
1
1
1
1
1
1
1
1
1
1
1
1
1
1
1
1
1
1
1
1
1
1
1
1
1
1
1
1
1
1
1
1
1
1
1
1
1
1
1
1
1
1
1
1
1
1
1
1
1
1
1
1
1
1
1
1
1
1
1
1
1
1
1
1
1
1
1
1
1
1
1
1
1
1
1
1
1
0.981412
0.925008
0.837271
0.721395
0.597954
0.488406
0.371285
0.241375
0.139911
0.119209
0.137346
0.226564
0.488651
0.761026
0.999999
1
1
1
1
1
1
1
1
1
1
1
1
1
1
1
1
1
1
1
1
1
1
1
1
1
1
1
1
1
1
1
1
1
1
1
1
1
1
1
1
1
1
1
1
1
1
1
1
1
1
1
1
1
1
1
1
1
1
1
1
1
1
1
1
1
1
1
1
1
1
1
1
1
1
1
1
1
1
1
1
1
1
1
0.972761
0.835622
0.58434
0.353691
0.20616
0.126237
0.0849997
0.0380344
0.00167677
0.000208648
0.000144116
9.80418e-05
0.000107559
0.000202862
0.00644426
0.048084
0.256586
0.607091
0.980346
1.00002
1
1
1
1
1
1
1
1
1
1
1
1
1
1
1
1
1
1
1
1
1
1
1
1
1
1
1
1
1
1
1
1
1
1
1
1
1
1
1
1
1
1
1
1
1
1
1
1
1
1
1
1
1
1
1
1
1
1
1
1
1
1
1
1
1
1
1
1
1
1
1
1
1
1
1
1
1
1
0.961225
0.729496
0.381022
0.0973839
0.00118171
4.00345e-06
6.59449e-07
1.85481e-07
1.06378e-07
1.84533e-08
1.9486e-06
3.97479e-06
3.99163e-06
4.69571e-06
7.16504e-06
0.000107374
0.000114374
6.84373e-05
0.000106336
0.0218161
0.20588
0.635923
0.999951
1
1
1
1
1
1
1
1
1
1
1
1
1
1
1
1
1
1
1
1
1
1
1
1
1
1
1
1
1
1
1
1
1
1
1
1
1
1
1
1
1
1
1
1
1
1
1
1
1
1
1
1
1
1
1
1
1
1
1
1
1
1
1
1
1
1
1
1
1
1
1
1
1
1
1
0.970415
0.737626
0.330676
0.0427925
3.89285e-05
2.63109e-06
2.69098e-07
1.2638e-07
9.60041e-08
9.41807e-08
9.24273e-08
9.36675e-08
1.94722e-07
-3.0661e-07
2.70721e-07
4.30266e-07
7.18428e-07
0.000102385
0.000134123
4.90882e-05
2.03928e-05
2.92959e-05
7.85573e-05
0.0343263
0.305137
0.818175
0.99998
0.999999
1
1
1
1
1
1
1
1
1
1
1
1
1
1
1
1
1
1
1
1
1
1
1
1
1
1
1
1
1
1
1
1
1
1
1
1
1
1
1
1
1
1
1
1
1
1
1
1
1
1
1
1
1
1
1
1
1
1
1
1
1
1
1
1
1
1
0.999999
1
1
1
0.972488
0.755341
0.341492
0.0450992
0.000198145
-4.45717e-06
3.20901e-07
2.50629e-07
1.11913e-07
9.55905e-08
9.23665e-08
9.28336e-08
9.28214e-08
9.28827e-08
1.02403e-07
1.00725e-07
1.45e-07
1.80675e-07
2.29458e-07
3.92251e-05
0.00010177
5.61276e-05
1.30879e-05
1.46395e-05
1.73894e-05
5.41787e-05
0.000132841
0.110198
0.513804
0.973542
1
0.999999
1
1
1
1
1
1
1
1
1
1
1
1
1
1
1
1
1
1
1
1
1
1
1
1
1
1
1
1
1
1
1
1
1
1
1
1
1
1
1
1
1
1
1
1
1
1
1
1
1
1
1
1
1
1
1
1
1
1
1
1
1
1
1
0.999999
1
1
0.920949
0.655632
0.280181
0.0340317
2.42941e-06
1.08037e-05
1.63562e-07
-1.43421e-07
1.16074e-07
2.1623e-07
4.02219e-07
4.13029e-07
9.47894e-08
1.40922e-07
9.26102e-08
1.0236e-07
1.12858e-07
1.14723e-07
1.2125e-07
1.54325e-07
1.74995e-07
2.25428e-07
1.75444e-05
1.68225e-05
1.13951e-05
1.29757e-05
1.49905e-05
1.73886e-05
1.34507e-05
9.10237e-05
0.0097594
0.205068
0.665875
0.99993
0.999996
1
1
1
1
1
1
1
1
1
1
1
1
1
1
1
1
1
1
1
1
1
1
1
1
1
1
1
1
1
1
1
1
1
1
1
1
1
1
1
1
1
1
1
1
1
1
1
1
1
1
1
1
1
1
1
1
1
1
1
1
0.999996
0.99999
0.966167
0.726329
0.415805
0.0973088
8.29822e-06
1.67486e-06
1.61639e-06
4.41279e-07
1.72836e-07
1.37266e-07
1.34226e-07
1.94151e-07
2.18775e-07
1.30454e-07
2.72014e-08
2.69619e-08
3.27642e-07
2.30766e-06
1.20995e-06
1.1475e-07
1.21068e-07
1.40214e-07
1.55906e-07
1.64697e-07
1.7977e-07
4.63039e-07
2.09343e-06
7.47761e-06
2.75244e-05
3.15431e-05
1.9022e-05
7.83439e-06
1.03895e-05
1.65176e-05
5.09943e-05
0.0350564
0.340966
0.877949
0.999982
1
1
1
1
1
1
1
1
1
1
1
1
1
1
1
1
0.999999
0.999998
1
1
1
1
1
1
1
1
1
1
1
1
1
1
1
1
1
1
1
1
1
1
1
1
1
1
1
1
1
1
1
1
1
1
1
1
1
1
1
1
0.999991
0.960248
0.688065
0.28233
0.00936132
3.11548e-05
7.61422e-06
3.20309e-06
1.85699e-06
1.66466e-06
1.68831e-06
1.69431e-06
1.06047e-06
8.24057e-08
8.23161e-08
8.11302e-08
7.07739e-08
6.33361e-08
2.00456e-08
1.84136e-07
6.62565e-06
8.51195e-07
1.93937e-07
8.25751e-05
0.000824496
0.00073964
8.59529e-05
4.63042e-07
2.78532e-06
9.96474e-06
3.07798e-05
3.20503e-05
3.21066e-05
3.18379e-05
6.94195e-06
6.54957e-06
6.98966e-06
8.23658e-06
4.88909e-05
0.000649656
0.190854
0.742193
0.999806
1
1
1
1
1
1
1
1
1
1
1
1
0.999994
0.999987
0.999998
0.999977
0.999973
0.999994
1
1
1
1
1
1
1
1
1
1
1
1
1
1
1
1
1
1
1
1
1
1
1
1
1
1
1
1
1
1
1
1
1
1
1
1
1
1
0.999991
0.875028
0.407904
0.0340411
1.89675e-05
6.66215e-06
0.000175796
0.000180392
0.000168961
7.67399e-05
6.01602e-06
3.53609e-07
5.64348e-07
3.3632e-07
1.08466e-07
8.23592e-08
2.18999e-07
5.7889e-07
3.98313e-07
1.50992e-08
1.0515e-08
1.08212e-08
6.84564e-05
0.000515087
0.00114716
0.00119293
0.00121384
0.000482617
1.70021e-05
7.9364e-06
3.17976e-05
3.20754e-05
3.20862e-05
3.20854e-05
1.28426e-05
6.19084e-06
6.4131e-06
6.69279e-06
6.95855e-06
8.26163e-06
6.34616e-05
9.76693e-05
0.108983
0.486409
1
1
1
1
1
1
1
1
1
1
1
1
0.99999
0.999872
0.999958
0.990754
0.986078
0.998261
0.999995
1
1
1
1
1
1
1
1
1
1
1
1
1
1
1
1
1
1
1
1
1
1
1
1
1
1
1
1
1
1
1
1
1
1
1
1
0.99862
0.766033
0.199262
6.86661e-05
1.86495e-05
6.48824e-06
6.45067e-06
6.44766e-06
0.0002165
0.000218242
0.000168822
5.57676e-06
1.23287e-07
1.12781e-07
1.12425e-07
1.10798e-07
5.78791e-07
2.97092e-06
2.83346e-06
1.83367e-07
1.04462e-08
1.00572e-08
1.04631e-08
0.000333971
0.00119828
0.00118314
0.00119273
0.00120292
0.00119574
7.95269e-05
7.88442e-06
1.35567e-05
3.1627e-05
2.6577e-05
9.44967e-06
6.13849e-06
6.19084e-06
9.31797e-06
7.23594e-06
7.26597e-06
7.17749e-06
1.10375e-05
4.46944e-06
2.55167e-06
0.0167519
1
1
1
1
1
1
1
1
1
1
1
1
1
1
0.985462
0.956615
0.956493
0.973178
0.998713
0.999998
1
1
1
1
1
1
1
1
1
1
1
1
1
1
1
1
1
1
1
1
1
1
1
1
1
1
1
1
1
1
1
1
1
1
0.953959
0.594177
0.0962551
3.82421e-05
8.25758e-06
6.46867e-06
6.44287e-06
6.44433e-06
6.44765e-06
0.000133267
0.000218242
5.42425e-05
1.39295e-07
1.15561e-07
1.13993e-07
1.12753e-07
1.12864e-07
3.19191e-06
3.18718e-06
1.14905e-06
1.15387e-08
9.87105e-09
9.98164e-09
1.00408e-08
1.12503e-05
0.00107624
0.00119215
0.00120046
0.00120149
0.000658934
4.78294e-05
6.23291e-06
5.73791e-06
6.10843e-06
6.62172e-06
6.77244e-06
9.77952e-06
1.37488e-05
1.41299e-05
1.40813e-05
1.2775e-05
1.35482e-05
7.30561e-06
1.79802e-06
2.40312e-06
2.55131e-06
1
1
1
1
1
1
1
1
1
1
1
1
1
1
0.961475
0.956493
0.956339
0.956134
0.985971
0.999992
1
1
1
1
1
1
1
1
1
1
1
1
1
1
1
1
1
1
1
1
1
1
1
1
1
1
1
1
0.999999
0.999999
0.997353
0.982781
0.901771
0.670909
0.286802
0.0174467
2.49029e-05
7.51714e-06
6.49198e-06
6.42207e-06
6.43086e-06
6.44389e-06
6.44359e-06
5.8247e-05
9.92757e-05
2.04089e-05
1.86866e-07
1.39454e-07
1.15559e-07
1.14018e-07
2.33543e-06
3.19191e-06
2.45023e-06
1.0376e-08
9.85537e-09
9.79283e-09
1.00107e-08
1.00847e-08
2.10598e-08
0.000281494
0.00118452
0.00119215
0.000736431
5.00402e-05
2.6471e-05
5.73542e-06
5.73256e-06
5.73286e-06
6.23033e-06
1.24683e-05
1.30888e-05
1.31453e-05
1.41537e-05
1.41526e-05
1.4173e-05
1.41527e-05
6.39695e-06
9.30206e-07
1.54526e-06
5.95022e-06
1
1
1
1
1
1
1
1
1
1
1
0.999885
1
0.999259
0.999153
0.95665
0.956485
0.956339
0.974674
0.999869
1
1
1
1
1
1
1
1
1
1
1
1
1
1
1
1
1
1
1
1
1
1
1
1
1
1
0.999998
0.999987
0.984831
0.875469
0.609423
0.363409
0.180913
0.0373175
2.5515e-05
8.31831e-06
6.90876e-06
6.45072e-06
6.40481e-06
6.41659e-06
6.42263e-06
6.50595e-06
7.07453e-06
2.32481e-05
1.79885e-05
2.05391e-05
1.18929e-05
3.29878e-06
2.93175e-06
4.83079e-06
4.99814e-06
2.73423e-06
1.01662e-08
9.80838e-09
9.77022e-09
9.78552e-09
9.87446e-09
1.01469e-08
2.14141e-08
1.00145e-05
0.000238586
0.00044426
1.98222e-05
5.93243e-06
5.73825e-06
5.73818e-06
5.73537e-06
1.02126e-05
1.19886e-05
1.19588e-05
8.26847e-06
2.33442e-06
2.6737e-06
4.57218e-06
1.38359e-05
1.4107e-05
7.72913e-06
6.57774e-07
4.61753e-07
7.34759e-05
1
1
1
1
1
1
1
1
1
1
1
0.998918
0.999949
0.99977
0.999746
0.983531
0.956594
0.956437
0.975788
0.999873
1
1
1
1
1
1
1
1
1
1
1
1
1
1
1
1
1
1
1
1
1
1
0.999999
0.999997
0.99999
0.999971
0.979673
0.848296
0.454643
0.120492
0.00937754
0.00012666
6.65144e-05
1.51291e-05
1.10704e-05
6.46623e-06
6.41935e-06
6.39165e-06
6.39401e-06
6.40576e-06
6.40518e-06
6.48648e-05
1.62949e-05
2.76151e-06
8.54852e-09
2.81368e-05
2.81614e-05
2.59385e-05
2.47649e-05
2.05615e-05
3.40033e-06
1.01655e-08
9.80656e-09
9.7716e-09
9.76841e-09
9.7792e-09
9.82117e-09
9.73953e-09
4.39913e-08
1.02157e-06
9.06813e-07
3.77468e-06
5.31721e-06
5.44761e-06
5.83443e-06
8.07113e-06
1.07949e-05
1.09216e-05
9.52247e-06
3.069e-06
1.79544e-07
1.53043e-08
1.44187e-08
2.16575e-08
1.46218e-06
5.23889e-06
3.43012e-06
5.68756e-07
6.37793e-08
9.88666e-06
1
1
1
1
1
1
1
1
1
1
0.999982
0.998886
0.99958
0.999289
0.99833
0.998934
0.962643
0.957096
0.991612
0.999997
1
1
1
1
1
1
1
1
1
1
1
1
1
1
1
1
1
1
1
1
0.999998
0.999993
0.99996
0.999901
0.961061
0.793184
0.42499
0.0668956
1.80422e-05
7.67464e-06
4.72314e-06
5.27632e-06
1.30167e-05
6.97996e-06
6.47618e-06
6.42256e-06
6.4078e-06
6.39332e-06
6.40446e-06
6.40604e-06
3.14535e-05
0.000309505
8.25105e-09
8.2261e-09
8.25562e-09
2.70065e-05
2.8164e-05
2.81591e-05
2.20799e-05
2.80625e-06
1.58707e-08
1.12598e-08
9.92327e-09
9.79806e-09
9.78192e-09
9.83652e-09
1.00233e-08
1.07645e-08
1.32174e-08
4.17486e-08
9.66394e-08
9.06845e-07
4.52307e-06
6.79906e-06
1.02115e-05
1.05466e-05
1.06195e-05
5.63553e-06
6.2967e-07
1.52705e-08
1.00637e-08
1.00422e-08
1.01274e-08
1.06762e-08
1.76325e-08
4.6266e-08
5.46778e-08
1.63965e-07
2.65429e-08
3.9238e-09
1
1
1
1
1
1
1
1
1
1
0.999999
0.998886
0.999056
0.998262
0.991978
0.998956
0.996366
0.995292
0.999446
1
1
1
1
1
1
1
1
1
1
1
1
1
1
1
1
1
1
1
0.999999
0.999993
0.999954
0.999808
0.943519
0.735121
0.372813
0.0508277
9.2797e-06
1.76391e-05
7.79372e-06
6.86239e-06
2.45438e-06
1.97641e-06
1.53697e-05
6.47721e-06
6.4299e-06
6.42215e-06
6.41533e-06
6.40802e-06
8.00428e-06
1.44403e-05
0.000455955
0.000311543
8.20322e-09
8.14069e-09
2.06552e-08
5.7916e-06
2.74497e-05
1.18299e-05
8.242e-09
8.24769e-09
8.7114e-09
1.59118e-08
1.05944e-08
9.80176e-09
9.64839e-09
1.21881e-08
1.44961e-08
2.10077e-08
2.60208e-07
4.87963e-07
4.06908e-06
9.29581e-06
1.00832e-05
1.02248e-05
1.01408e-05
8.6695e-06
2.45988e-06
4.25198e-08
1.09315e-08
9.176e-09
8.86276e-09
9.6186e-09
9.90607e-09
9.92483e-09
1.05835e-08
1.41931e-08
2.01387e-08
1.90701e-08
1.58838e-08
-1.26902e-09
1
1
1
1
1
1
1
1
1
1
1
0.999037
0.999683
0.998613
0.991781
0.99567
0.999995
0.999998
0.999998
0.999998
1
1
1
1
1
1
1
1
1
1
1
1
1
1
1
0.999999
0.999998
0.99999
0.999955
0.999796
0.953301
0.720408
0.326479
0.0290037
7.91032e-06
5.03211e-07
9.54616e-08
2.33385e-05
4.57772e-05
1.64953e-05
1.98486e-06
1.85049e-06
4.08865e-06
1.85237e-05
8.60215e-06
6.41751e-06
6.4147e-06
6.40282e-06
6.39454e-06
9.68234e-05
0.000627079
0.000150966
8.11436e-09
8.08764e-09
8.06093e-09
7.9611e-09
1.87255e-06
8.07437e-09
8.14821e-09
8.42903e-09
4.1463e-07
4.6508e-06
6.90454e-08
2.72151e-08
9.5492e-09
1.15166e-08
9.82234e-08
2.17582e-07
1.4884e-06
5.8878e-06
7.27805e-06
7.1637e-06
7.9545e-06
7.2154e-06
3.5543e-06
5.28198e-07
1.41655e-08
9.65595e-09
8.92078e-09
8.75332e-09
8.71785e-09
1.02186e-08
9.89351e-09
9.89299e-09
9.90237e-09
1.05686e-08
1.42144e-08
1.56797e-08
1.48463e-08
1.10449e-08
1
1
1
1
1
1
1
1
1
1
1
0.9997
0.999797
0.999796
0.991584
0.991547
0.999235
0.999995
0.999986
0.999992
1
1
1
1
1
1
1
1
1
1
1
1
1
0.999999
0.999996
0.999983
0.999935
0.999742
0.963286
0.741611
0.326905
0.00948793
1.14254e-05
2.18908e-07
1.26621e-07
2.89595e-08
3.50034e-08
6.74971e-05
8.46463e-05
5.37372e-05
2.0672e-06
1.81447e-06
2.11928e-06
3.91874e-05
1.42054e-05
6.4064e-06
6.42513e-06
6.40204e-06
6.59222e-06
0.000200386
0.000632644
4.77823e-05
8.27987e-09
7.99112e-09
7.93653e-09
7.93655e-09
7.9366e-09
8.07293e-09
8.2341e-09
1.64907e-07
1.52644e-05
2.22634e-05
1.17312e-05
3.71398e-08
9.51362e-09
9.62289e-09
1.22694e-07
7.10499e-07
1.00378e-06
1.39211e-06
2.06393e-06
6.52708e-07
7.52398e-07
2.84574e-07
3.48984e-08
1.04018e-08
9.17973e-09
8.85314e-09
8.73569e-09
8.67233e-09
8.66765e-09
3.05858e-08
1.26994e-07
1.73248e-07
1.26685e-07
1.42823e-08
1.58057e-08
1.50266e-08
1.46888e-08
1.11576e-08
1
1
1
1
1
1
1
1
1
1
0.999627
0.999409
0.999553
0.999797
0.994115
0.991536
0.997366
0.999999
1
1
1
1
1
1
1
1
1
1
1
1
1
0.999999
0.999995
0.99998
0.999911
0.99962
0.964043
0.746496
0.348071
0.0182866
8.16881e-06
3.79329e-07
1.52019e-07
-3.28616e-08
2.65672e-08
3.47368e-08
3.4483e-08
3.37466e-05
8.49392e-05
4.96785e-05
1.82601e-06
1.79949e-06
5.68163e-06
3.92964e-05
1.18299e-05
1.54148e-05
1.49487e-05
6.61278e-06
0.000394599
0.000437162
0.000732117
8.50355e-05
1.21099e-08
8.03352e-09
7.94825e-09
7.96393e-09
8.01578e-09
8.14115e-09
1.01249e-08
6.92012e-06
2.2273e-05
2.22748e-05
2.22634e-05
1.0007e-07
9.47987e-09
1.41842e-08
2.06377e-08
1.39308e-08
1.38278e-08
2.20058e-08
2.56815e-08
5.15839e-08
8.26677e-08
7.84108e-08
4.19644e-08
9.00188e-09
8.86322e-09
8.75744e-09
8.70539e-09
8.66517e-09
8.66556e-09
8.19083e-08
1.97496e-07
1.9869e-07
1.99813e-07
1.87155e-07
1.54906e-08
1.47019e-08
1.46197e-08
1.39601e-08
1
1
1
1
1
1
1
1
1
1
0.999093
0.998923
0.998924
0.999703
0.999785
0.991568
0.994439
0.999923
0.999999
0.999999
1
1
1
1
1
1
1
1
1
0.999999
0.999995
0.99998
0.999895
0.999569
0.956979
0.728004
0.34166
0.0270675
6.3347e-06
2.51196e-07
1.66427e-07
-1.19366e-07
2.29345e-08
3.50089e-08
3.46336e-08
3.46243e-08
3.46206e-08
2.0057e-06
5.89273e-05
3.06743e-05
1.79902e-06
1.79759e-06
8.37781e-06
3.93686e-05
1.18014e-05
1.55195e-05
8.6482e-07
0.000482793
0.00345994
0.000764946
0.000965042
0.000106446
2.88692e-08
7.84495e-09
8.03773e-09
8.07032e-09
8.11605e-09
8.46072e-09
1.53708e-06
2.105e-05
2.22748e-05
2.22728e-05
1.19089e-05
9.46736e-09
9.46656e-09
9.54816e-09
9.72828e-09
1.18791e-08
1.43938e-08
3.55884e-08
1.73731e-07
6.72446e-07
4.08432e-07
1.41989e-07
8.94607e-09
8.91251e-09
8.93468e-09
9.0783e-09
8.84256e-09
8.71419e-09
8.66603e-09
8.69551e-09
6.17003e-08
1.99869e-07
1.99856e-07
1.998e-07
1.8413e-07
1.50956e-08
1.46835e-08
1.50247e-08
1
1
1
1
1
1
1
1
1
1
0.999971
0.99897
0.998923
0.999694
0.999999
0.99269
0.992334
0.998999
0.999997
0.999998
1
1
1
1
1
1
1
1
0.999996
0.999979
0.999865
0.998993
0.927956
0.688627
0.314446
0.0184148
2.03396e-06
-8.98632e-07
1.32249e-07
-8.19918e-08
3.79941e-08
3.69406e-08
3.4966e-08
3.46798e-08
3.46253e-08
3.4619e-08
3.46206e-08
3.07046e-06
5.80049e-05
2.32549e-05
1.79581e-06
1.79759e-06
5.4651e-06
3.95492e-05
1.61909e-05
4.9408e-06
5.55162e-07
0.00088945
0.00523091
0.00419111
0.00157943
1.21309e-06
2.34539e-08
7.8239e-09
8.0889e-09
8.12094e-09
8.22496e-09
2.9328e-08
8.22491e-06
2.22633e-05
2.22728e-05
2.12202e-05
9.72208e-09
9.63827e-09
9.49127e-09
1.05228e-08
6.51348e-08
2.77243e-07
7.83617e-07
1.75716e-06
3.61643e-06
4.06072e-06
4.08964e-06
3.93646e-06
3.67641e-06
1.67647e-06
4.47119e-07
1.00835e-08
8.74986e-09
8.68709e-09
8.67188e-09
8.67052e-09
1.08519e-08
6.87036e-08
1.99835e-07
2.00092e-07
1.99732e-07
1.39599e-07
1.50804e-08
1.66395e-08
1
1
1
1
1
1
1
1
1
1
1
0.99981
0.999675
0.999958
1
0.998758
0.992334
0.995957
0.999908
1
1
1
1
1
1
1
1
0.999994
0.999888
0.992965
0.866532
0.576729
0.237617
2.36559e-05
5.32167e-06
2.62426e-06
8.05788e-07
8.02305e-08
6.76423e-08
6.92768e-08
6.45826e-08
5.6084e-08
3.68356e-08
3.50583e-08
3.4715e-08
3.4625e-08
3.46091e-08
3.46071e-08
3.95884e-05
2.88205e-05
1.80559e-06
1.79759e-06
1.91563e-06
3.99176e-05
4.02299e-05
1.82985e-06
3.0385e-07
0.00370498
0.00535662
0.00535823
0.00271399
3.58739e-05
1.10625e-08
8.09926e-09
8.00544e-09
8.07908e-09
8.40496e-09
1.64387e-06
1.9123e-05
2.22674e-05
2.22633e-05
5.50239e-06
9.71429e-09
9.95504e-09
9.70684e-09
1.1557e-08
6.86501e-07
2.54191e-06
2.60039e-06
2.60041e-06
2.3639e-06
3.35261e-06
5.75403e-06
5.75365e-06
5.75346e-06
5.74997e-06
2.16208e-06
9.37832e-09
8.82396e-09
8.72631e-09
8.75135e-09
8.67582e-09
8.69178e-09
1.45782e-08
9.81135e-08
2.00478e-07
1.99423e-07
2.00484e-07
9.32594e-08
1.79219e-08
1
1
1
1
1
1
1
1
1
1
1
1
1
1
1
1
0.994648
0.994345
0.999438
1
1
1
1
1
1
1
0.999999
0.999779
0.854244
0.479691
0.131866
1.4194e-05
-5.83373e-06
6.34658e-06
3.90455e-06
1.54266e-06
4.03439e-07
1.57482e-07
9.92556e-08
8.12853e-08
6.93422e-08
6.5747e-08
5.54358e-08
3.98515e-08
3.54948e-08
3.47932e-08
3.46296e-08
3.47719e-08
8.95534e-06
2.86721e-05
2.3084e-05
5.15363e-06
2.07593e-06
4.01765e-05
4.02299e-05
2.91096e-06
1.46027e-07
0.00429303
0.0053576
0.00535833
0.00368747
0.000188388
-1.28614e-08
8.08768e-09
8.17345e-09
8.23323e-09
9.13239e-09
4.84999e-06
2.21762e-05
2.22616e-05
1.91767e-05
1.07405e-08
1.00017e-08
1.2325e-08
1.18032e-08
2.44479e-08
8.35755e-07
2.47309e-06
2.55919e-06
1.53611e-06
1.32145e-06
2.55515e-06
5.75416e-06
5.75402e-06
5.75362e-06
5.75343e-06
2.02957e-06
9.23435e-09
8.86608e-09
8.78152e-09
8.76849e-09
8.76459e-09
8.97536e-09
9.29613e-09
9.67408e-09
2.38442e-08
1.29871e-07
1.97737e-07
1.90746e-07
4.88946e-08
1
1
1
1
1
0.99999
0.999999
1
0.999999
1
0.999999
0.999999
1
1
1
1
0.999997
0.998886
0.999396
0.999996
1
1
1
1
1
1
0.998295
0.647889
0.141742
0.000103211
7.95055e-06
9.3009e-07
1.4627e-06
4.44667e-06
2.22867e-05
4.50512e-05
2.10633e-05
2.06127e-06
5.04233e-07
9.02672e-08
7.56137e-08
2.09434e-07
4.04362e-07
4.15394e-07
6.45473e-07
1.24823e-07
3.48566e-08
3.53833e-08
3.62905e-08
2.85107e-05
3.41167e-05
3.47012e-05
2.52577e-05
2.16223e-05
2.69214e-05
1.55946e-06
8.97029e-08
0.00488517
0.00535836
0.00535833
0.0042344
0.000245727
7.08694e-09
7.93254e-09
8.1493e-09
8.22425e-09
8.79326e-09
2.08971e-06
1.4869e-05
1.97802e-05
2.42915e-06
1.08581e-08
1.18611e-08
5.10122e-08
3.02874e-08
1.4223e-08
1.31632e-08
1.30528e-08
1.40973e-07
1.78936e-07
1.63724e-06
5.21181e-06
5.75445e-06
5.75432e-06
5.75389e-06
4.29747e-06
8.95252e-07
9.18154e-09
8.8806e-09
8.81709e-09
9.5506e-09
2.13069e-08
3.5965e-08
2.55903e-08
1.12363e-08
1.26756e-08
2.01227e-08
6.81203e-08
1.00005e-07
6.37634e-08
1
1
0.999998
1
0.999987
0.999893
0.999936
0.999972
0.999995
1
0.999996
0.999995
0.999998
1
1
1
1
1
0.999979
0.999965
0.999999
1
1
1
1
0.999986
0.520583
0.0169633
6.7051e-05
7.78723e-06
6.59478e-07
2.31631e-07
7.61944e-07
3.09647e-05
0.000117259
0.000117738
0.000117947
4.10029e-05
7.10919e-07
1.65266e-07
9.70631e-07
0.000180967
0.000258658
9.33813e-05
5.38062e-06
1.05824e-07
4.1693e-08
3.6338e-08
4.25965e-08
1.42855e-05
3.47147e-05
3.47188e-05
3.47147e-05
7.04286e-06
6.71323e-07
1.77258e-07
7.68991e-08
0.00458179
0.00535833
0.00535834
0.00442587
0.000244915
7.72582e-09
7.93024e-09
7.95149e-09
8.173e-09
8.33609e-09
3.08952e-08
1.25508e-07
1.05684e-07
9.72781e-09
1.05527e-08
8.66174e-07
2.96516e-05
3.63946e-05
1.32184e-08
1.30624e-08
1.2889e-08
1.31007e-08
2.58959e-07
4.58226e-06
5.74226e-06
5.75501e-06
4.49126e-06
1.7031e-06
1.32777e-08
1.36105e-07
7.39673e-08
9.4099e-09
8.83545e-09
2.52912e-08
3.83503e-08
3.85568e-08
3.85016e-08
2.9458e-08
1.50835e-08
1.36077e-08
1.35371e-08
1.26413e-08
1.99057e-08
1
1
0.999995
1
0.999889
0.999885
0.999892
0.999949
0.999996
0.999999
0.999995
0.999995
0.999995
0.999997
1
1
1
1
1
0.999997
0.999996
1
1
1
1
0.577023
0.000776953
7.30951e-05
5.26639e-06
5.83646e-07
2.50933e-07
1.36677e-07
6.04164e-08
8.34434e-05
0.000117738
0.000118373
0.000118164
9.41496e-05
2.88047e-06
3.95337e-07
3.65396e-05
0.000751401
0.000848608
0.000444874
1.56877e-05
3.19902e-07
6.86841e-08
4.26854e-08
5.15853e-08
5.38912e-08
3.18914e-05
3.47147e-05
3.08556e-05
2.74185e-06
9.89418e-08
7.66285e-08
7.33523e-08
0.00385296
0.00535814
0.00535833
0.00535816
1.61596e-05
7.96992e-09
7.92843e-09
7.91388e-09
7.97246e-09
8.01471e-09
7.9903e-09
7.99824e-09
8.02478e-09
8.47427e-09
1.47903e-08
1.76711e-05
7.83474e-05
7.85105e-05
2.6651e-05
1.28643e-08
1.2657e-08
1.29314e-08
4.65435e-07
2.92467e-06
3.54702e-06
1.142e-06
1.35905e-08
1.32818e-08
1.30766e-08
1.25319e-08
7.38336e-08
1.38856e-08
8.94363e-09
1.12813e-08
1.57705e-08
2.53751e-08
3.80738e-08
3.77092e-08
2.05436e-08
1.13727e-08
1.19651e-08
1.00244e-08
8.76348e-09
0.999999
0.999998
0.999995
0.999958
0.999879
0.999902
0.999878
0.999862
0.999991
0.999998
0.999996
0.999996
0.999995
0.999995
0.999997
1
1
1
1
1
0.999999
1
1
1
0.738375
0.0442368
0.000358225
3.90986e-05
5.84379e-06
4.49611e-07
8.60163e-08
3.73913e-08
7.89533e-09
1.54217e-09
5.63172e-05
0.000118274
0.000118315
6.3867e-05
9.38061e-07
6.0069e-08
0.000202266
0.000849027
0.000854406
0.000785976
0.000116138
9.00971e-07
1.35722e-07
5.71772e-08
5.37509e-08
5.95864e-08
5.00582e-06
2.21473e-05
6.98132e-06
4.71593e-07
7.82759e-08
7.34183e-08
7.19569e-08
0.00251206
0.00535633
0.00535804
0.00473455
0.000157696
6.75292e-05
7.90154e-09
7.90838e-09
7.9086e-09
7.90954e-09
7.94618e-09
8.12378e-09
8.40176e-09
1.28061e-08
7.70256e-08
4.11606e-05
7.85152e-05
7.85134e-05
7.77234e-05
6.43418e-08
1.24303e-08
2.91416e-08
5.65958e-08
1.51988e-08
1.49404e-08
1.4613e-08
1.43607e-08
1.37404e-08
1.35346e-08
1.22897e-08
5.33172e-08
9.89688e-09
9.02671e-09
9.05934e-09
9.08048e-09
9.09731e-09
9.13423e-09
1.70001e-08
1.16838e-08
1.09348e-08
1.00371e-08
8.87786e-09
8.18184e-09
0.999712
0.999946
0.999995
0.999862
0.999881
0.999998
0.999737
0.99911
0.999789
0.999994
0.999997
0.999998
0.999996
0.999995
0.999995
1
1
1
1
1
1
1
1
0.910719
0.172637
0.000573653
6.7192e-05
9.56743e-06
9.4734e-07
2.18877e-07
3.61797e-08
4.7577e-09
1.59941e-09
5.35206e-10
3.48139e-10
3.29285e-05
3.73433e-05
6.69102e-06
1.69325e-10
3.19351e-11
0.000254517
0.000854461
0.000858681
0.000858798
0.000251349
1.45259e-06
2.01933e-07
7.41549e-08
5.96084e-08
7.20978e-08
7.78954e-08
5.64885e-07
1.74645e-07
1.00855e-07
7.56588e-08
7.21296e-08
7.16577e-08
0.000147572
0.00481354
0.00535624
0.00165043
0.000433496
0.000198098
8.58586e-09
7.91274e-09
5.2742e-08
1.85138e-07
9.07005e-08
8.46077e-09
1.08685e-08
5.36189e-08
6.60981e-07
4.02167e-05
7.85183e-05
7.85182e-05
7.85205e-05
1.79966e-05
1.24103e-08
1.26833e-08
2.13409e-08
1.85314e-08
1.66793e-08
1.50827e-08
1.50274e-08
2.28766e-08
2.12531e-08
1.16257e-08
9.67598e-09
9.36448e-09
9.09224e-09
9.09066e-09
9.10055e-09
9.12086e-09
9.18522e-09
1.00844e-08
1.03243e-08
1.06718e-08
1.56412e-07
3.17344e-08
7.96801e-09
0.997928
0.999906
0.999994
0.999862
0.999987
0.999999
0.99961
0.999086
0.999471
0.999778
0.999995
0.999998
0.999998
0.999998
0.999997
0.999999
0.999999
0.999999
0.999998
0.999984
0.999999
1
0.999175
0.454339
0.00455208
0.000174191
2.42246e-05
3.16032e-06
6.19856e-07
1.09228e-07
2.10432e-08
4.49573e-09
8.37516e-10
4.83641e-10
2.41797e-10
6.36218e-11
4.90855e-11
3.81346e-11
3.1521e-11
3.14292e-11
0.000250199
0.000856299
0.000858831
0.000858798
0.00034629
2.27612e-06
4.90239e-07
2.82261e-07
3.85521e-07
4.30955e-07
3.49479e-07
1.3307e-07
9.13601e-08
7.54744e-08
7.23114e-08
7.16831e-08
7.12523e-08
4.68611e-08
0.00435379
0.00433415
0.000105022
0.000244144
0.000298484
0.000155705
8.53881e-09
1.80113e-07
3.14302e-07
2.03966e-07
1.0824e-08
4.47389e-08
1.19787e-06
5.35546e-06
1.40317e-05
7.64695e-05
7.85168e-05
7.85205e-05
2.31002e-05
1.23866e-08
1.30395e-08
2.23405e-08
2.56461e-08
1.69472e-08
1.62807e-08
1.59639e-08
1.27662e-07
1.49043e-07
9.96838e-09
9.74171e-09
9.44886e-09
9.34149e-09
9.16746e-09
9.16241e-09
9.19148e-09
1.10221e-08
1.03513e-08
1.07078e-08
1.08609e-08
3.68479e-07
3.71163e-07
8.28489e-09
0.997924
0.999908
0.999985
0.999862
0.999999
0.999999
0.999921
0.999086
0.999527
0.999578
0.999992
0.999998
0.999998
0.999998
0.999997
0.999992
0.999991
0.999923
0.999726
0.99993
0.999999
0.999995
0.757321
0.107698
0.00091845
0.000134687
1.73882e-05
3.17667e-06
5.63407e-07
1.07286e-07
2.1823e-08
5.46779e-09
1.9982e-09
1.19211e-09
7.20941e-10
8.86691e-10
6.49983e-10
5.05859e-10
4.08424e-10
3.14295e-11
0.000166849
0.000855504
0.000858798
0.000858855
0.000352715
2.37686e-06
5.48254e-07
3.34064e-07
3.34903e-07
4.56455e-07
4.42448e-07
1.04104e-07
7.96524e-08
7.47234e-08
7.29367e-08