/*--------------------------------*- C++ -*----------------------------------*\
| =========                 |                                                 |
| \\      /  F ield         | OpenFOAM: The Open Source CFD Toolbox           |
|  \\    /   O peration     | Version:  2.4.0                                 |
|   \\  /    A nd           | Web:      www.OpenFOAM.org                      |
|    \\/     M anipulation  |                                                 |
\*---------------------------------------------------------------------------*/
FoamFile
{
    version     2.0;
    format      ascii;
    class       surfaceScalarField;
    location    "0.232";
    object      phiAlpha;
}
// * * * * * * * * * * * * * * * * * * * * * * * * * * * * * * * * * * * * * //

dimensions      [0 3 -1 0 0 0 0];

internalField   nonuniform List<scalar> 
19800
(
2.1301e-69
-6.52419e-66
3.07858e-65
-5.26526e-62
1.69733e-61
-2.59356e-58
4.25622e-58
-5.48943e-55
3.88288e-55
-3.76347e-52
1.29969e-52
-9.13772e-50
1.92184e-50
-9.77186e-48
1.48556e-48
-5.54342e-46
6.84098e-47
-1.89677e-44
2.07175e-45
-4.27916e-43
4.51178e-44
-6.87462e-42
7.53577e-43
-8.29236e-41
9.87038e-42
-7.4897e-40
1.01587e-40
-4.8085e-39
8.43093e-40
-1.91806e-38
6.01423e-39
-2.40139e-39
4.06952e-38
9.43816e-40
2.52697e-37
1.22805e-38
1.40007e-36
1.07186e-37
6.89035e-36
7.46793e-37
2.94914e-35
4.31275e-36
1.10143e-34
2.13718e-35
3.57875e-34
9.29435e-35
9.93601e-34
3.59896e-34
2.20724e-33
1.2373e-33
3.19099e-33
3.75224e-33
-2.25919e-33
9.85033e-33
-4.63797e-32
2.17484e-32
-1.12146e-31
3.77359e-32
-1.41789e-31
4.45376e-32
-1.09273e-31
3.56148e-32
-5.57097e-32
1.98293e-32
-2.01086e-32
8.17397e-33
-5.43179e-33
2.65136e-33
-1.15516e-33
6.96039e-34
-2.08638e-34
1.49476e-34
-3.22472e-35
2.74703e-35
-4.09385e-36
4.29083e-36
-3.99074e-37
5.45204e-37
-2.65186e-38
5.27992e-38
-1.09353e-39
3.47041e-39
-3.08551e-41
1.41221e-40
-9.76818e-43
3.92523e-42
-2.60854e-44
1.22135e-43
-5.33628e-46
3.19535e-45
-8.06465e-48
6.37765e-47
-8.81431e-50
9.35833e-49
-4.45067e-50
9.87792e-51
-2.38642e-48
4.78929e-51
2.45069e-49
-1.08814e-46
7.70607e-66
-6.93556e-63
1.42075e-61
-8.49373e-59
9.13564e-58
-5.95938e-55
2.32859e-54
-1.3828e-51
1.92647e-51
-8.24731e-49
5.62039e-49
-1.668e-46
7.29216e-47
-1.52793e-44
5.03198e-45
-7.63618e-43
2.0999e-43
-2.34514e-41
5.81687e-42
-4.7951e-40
1.1638e-40
-6.9915e-39
1.79557e-39
-7.63502e-38
2.18052e-38
-6.1983e-37
2.07296e-37
-3.42707e-36
1.59513e-36
-9.37319e-36
1.02928e-35
1.78305e-37
6.11391e-35
3.86502e-36
3.33201e-34
3.88875e-35
1.56458e-33
2.86671e-34
6.38269e-33
1.74623e-33
2.19047e-32
9.06251e-33
5.89e-32
4.03791e-32
1.01917e-31
1.58569e-31
-1.94105e-31
5.56825e-31
-4.37259e-30
1.76048e-30
-2.10857e-29
4.97576e-30
-6.84121e-29
1.23255e-29
-1.61828e-28
2.59062e-29
-2.6516e-28
4.3705e-29
-3.01818e-28
5.38904e-29
-2.43137e-28
4.81044e-29
-1.42565e-28
3.18267e-29
-6.32357e-29
1.62814e-29
-2.23536e-29
6.74702e-30
-6.6378e-30
2.35976e-30
-1.70899e-30
7.16873e-31
-3.78797e-31
1.91142e-31
-7.04262e-32
4.38941e-32
-1.06624e-32
8.42631e-33
-1.3465e-33
1.31285e-33
-1.43162e-34
1.70189e-34
-1.22391e-35
1.85284e-35
-8.13131e-37
1.61625e-36
-4.10176e-38
1.08997e-37
-1.51958e-39
5.54256e-39
-3.95543e-41
2.05282e-40
-5.48917e-42
5.29357e-42
-1.33217e-40
7.20897e-43
-3.01438e-39
1.70064e-41
3.70583e-40
-5.59568e-38
5.08986e-63
-2.43906e-60
1.40698e-58
-5.13706e-56
1.2533e-54
-5.97485e-52
3.25117e-51
-1.18553e-48
2.22065e-48
-5.43766e-46
5.27144e-46
-8.96063e-44
5.74596e-44
-6.9982e-42
3.44392e-42
-3.07376e-40
1.27774e-40
-8.46092e-39
3.19242e-39
-1.56832e-37
5.8036e-38
-2.08074e-36
8.1935e-37
-2.07003e-35
9.2072e-36
-1.53558e-34
8.17376e-35
-7.72955e-34
5.84763e-34
-1.76459e-33
3.50392e-33
1.01757e-34
1.87362e-32
1.73284e-33
9.33806e-32
1.555e-32
3.97444e-31
1.02734e-31
1.46484e-30
5.61015e-31
4.56466e-30
2.62321e-30
1.12512e-29
1.05889e-29
1.83068e-29
3.78246e-29
-1.78134e-29
1.21459e-28
-5.53527e-28
3.53213e-28
-2.57696e-27
9.312e-28
-8.05571e-27
2.18341e-27
-1.86156e-26
4.40245e-27
-3.11003e-26
7.26049e-27
-3.78824e-26
9.1557e-27
-3.41687e-26
8.7784e-27
-2.32596e-26
6.52195e-27
-1.23846e-26
3.87682e-27
-5.42606e-27
1.92487e-27
-2.04844e-27
8.30407e-28
-6.77974e-28
3.1855e-28
-1.95546e-28
1.08401e-28
-4.84589e-29
3.2188e-29
-1.02982e-29
8.19619e-30
-1.85866e-30
1.78653e-30
-2.75037e-31
3.30281e-31
-3.23644e-32
4.99738e-32
-2.92664e-33
5.99352e-33
-1.94701e-34
5.49523e-34
-9.08384e-36
3.68048e-35
-3.13245e-37
1.71404e-36
-7.52929e-37
5.8449e-38
-1.37583e-35
1.37584e-37
-2.04084e-34
2.43832e-36
3.47477e-35
-2.45427e-33
1.51745e-60
-4.35882e-58
6.73772e-56
-2.96241e-53
9.58473e-52
-3.34353e-49
2.08819e-48
-4.71342e-46
1.07457e-45
-1.66094e-43
2.03845e-43
-2.24204e-41
1.86316e-41
-1.49752e-39
9.68384e-40
-5.79011e-38
3.188e-38
-1.43043e-36
7.17109e-37
-2.40782e-35
1.18196e-35
-2.91412e-34
1.52083e-34
-2.64856e-33
1.57235e-33
-1.80563e-32
1.29912e-32
-8.44594e-32
8.66278e-32
-1.83941e-31
4.84568e-31
1.62793e-32
2.36487e-30
2.58446e-31
1.08268e-29
2.11943e-30
4.2783e-29
1.28182e-29
1.46741e-28
6.35463e-29
4.31213e-28
2.68246e-28
1.05298e-27
9.8332e-28
1.9877e-27
3.20132e-27
2.01046e-27
9.42961e-27
-1.16193e-26
2.53208e-26
-8.45745e-26
6.20935e-26
-2.88364e-25
1.37674e-25
-6.91017e-25
2.66546e-25
-1.20825e-24
4.3072e-25
-1.5758e-24
5.50996e-25
-1.56421e-24
5.54537e-25
-1.20105e-24
4.47248e-25
-7.36425e-25
2.97311e-25
-3.78195e-25
1.69292e-25
-1.68735e-25
8.53583e-26
-6.64633e-26
3.85081e-26
-2.30449e-26
1.54807e-26
-6.98632e-27
5.47822e-27
-1.83615e-27
1.69176e-27
-4.06564e-28
4.52437e-28
-7.39111e-29
1.01895e-28
-1.06904e-29
1.8821e-29
-1.17749e-30
2.75811e-30
-9.34476e-32
3.06263e-31
-4.97992e-33
2.4333e-32
-3.04513e-34
1.28733e-33
-2.55448e-33
7.74317e-35
-3.61367e-32
6.32909e-34
-4.07232e-31
8.64218e-33
9.31464e-32
-3.70796e-30
2.32409e-58
-5.37726e-56
3.00894e-53
-1.27255e-50
4.18582e-49
-1.01104e-46
6.58544e-46
-1.02892e-43
2.60748e-43
-2.8347e-41
4.02898e-41
-3.16831e-39
3.12493e-39
-1.82095e-37
1.41881e-37
-6.22154e-36
4.16384e-36
-1.38332e-34
8.45824e-35
-2.11998e-33
1.26612e-33
-2.34682e-32
1.48312e-32
-1.95196e-31
1.40478e-31
-1.22382e-30
1.07355e-30
-5.34155e-30
6.65988e-30
-1.15208e-29
3.47021e-29
1.17884e-30
1.55721e-28
1.87344e-29
6.5268e-28
1.4168e-28
2.39243e-27
7.89247e-28
7.64306e-27
3.58061e-27
2.10002e-26
1.36862e-26
4.94615e-26
4.56046e-26
9.70853e-26
1.35693e-25
1.42552e-25
3.67214e-25
7.10373e-26
9.11922e-25
-1.06695e-24
2.08192e-24
-4.82058e-24
4.34495e-24
-1.25886e-23
8.06539e-24
-2.34208e-23
1.27549e-23
-3.27113e-23
1.64542e-23
-3.52594e-23
1.71528e-23
-2.98489e-23
1.46822e-23
-2.04673e-23
1.06219e-23
-1.18564e-23
6.7437e-24
-6.00813e-24
3.83757e-24
-2.70584e-24
1.96089e-24
-1.08291e-24
8.94712e-25
-3.82249e-25
3.61823e-25
-1.16043e-25
1.28758e-25
-2.97193e-26
3.94011e-26
-6.28051e-27
1.018e-26
-1.05725e-27
2.1702e-27
-1.35185e-28
3.67721e-28
-1.22954e-29
4.71044e-29
-7.25342e-31
4.26281e-30
-9.63159e-32
2.48149e-31
-1.08969e-30
3.22226e-32
-1.27687e-29
3.53224e-31
-1.18375e-28
3.97409e-30
3.5065e-29
-8.86351e-28
2.38246e-56
-1.26226e-53
9.95837e-51
-3.34998e-48
9.96825e-47
-1.81879e-44
1.16019e-43
-1.37163e-41
3.63051e-41
-3.01146e-39
4.65549e-39
-2.81869e-37
3.10184e-37
-1.4035e-35
1.24041e-35
-4.25623e-34
3.26401e-34
-8.54577e-33
6.0136e-33
-1.196e-31
8.20149e-32
-1.21473e-30
8.75236e-31
-9.26467e-30
7.57392e-30
-5.33929e-29
5.3249e-29
-2.16921e-28
3.05755e-28
-4.61081e-28
1.47724e-27
4.7828e-29
6.11867e-27
7.94495e-28
2.34739e-26
5.58183e-27
7.94875e-26
2.87158e-26
2.34883e-25
1.19456e-25
5.97338e-25
4.15117e-25
1.32113e-24
1.25731e-24
2.52737e-24
3.42331e-24
3.97747e-24
8.52436e-24
4.18679e-24
1.95906e-23
-3.08174e-24
4.16505e-23
-4.54769e-23
8.15736e-23
-1.37763e-22
1.44657e-22
-2.7592e-22
2.23233e-22
-4.12278e-22
2.88722e-22
-4.77291e-22
3.08799e-22
-4.37272e-22
2.75815e-22
-3.27349e-22
2.12865e-22
-2.08459e-22
1.47889e-22
-1.16906e-22
9.32013e-23
-5.86804e-23
5.2734e-23
-2.64125e-23
2.66251e-23
-1.04792e-23
1.19768e-23
-3.58582e-24
4.7372e-24
-1.03445e-24
1.61842e-24
-2.4588e-25
4.67423e-25
-4.68243e-26
1.11376e-25
-6.79115e-27
2.12298e-26
-6.9644e-28
3.06794e-27
-4.54252e-29
3.1132e-28
-1.07009e-29
1.99248e-29
-1.20651e-28
4.56428e-30
-1.23013e-27
4.95895e-29
-9.87977e-27
4.82933e-28
3.67357e-27
-6.39986e-26
4.61667e-54
-3.01004e-51
2.05469e-48
-5.58081e-46
1.43429e-44
-2.10123e-42
1.26539e-41
-1.20236e-39
3.19561e-39
-2.13866e-37
3.45019e-37
-1.69354e-35
1.99432e-35
-7.35247e-34
7.07396e-34
-1.98767e-32
1.67801e-32
-3.61619e-31
2.81642e-31
-4.63661e-30
3.51327e-30
-4.33575e-29
3.42318e-29
-3.04118e-28
2.70359e-28
-1.61155e-27
1.74174e-27
-6.07377e-27
9.21047e-27
-1.25302e-26
4.10457e-26
1.22652e-27
1.57147e-25
2.19826e-26
5.5253e-25
1.44255e-25
1.72606e-24
6.87724e-25
4.68439e-24
2.62238e-24
1.0932e-23
8.29865e-24
2.23347e-23
2.28622e-23
4.02797e-23
5.696e-23
6.22142e-23
1.3059e-22
7.36122e-23
2.77839e-22
3.24326e-23
5.49688e-22
-2.76564e-22
1.00853e-21
-1.03807e-21
1.69952e-21
-2.23952e-21
2.55067e-21
-3.55461e-21
3.29315e-21
-4.37453e-21
3.58138e-21
-4.2614e-21
3.2916e-21
-3.40121e-21
2.66491e-21
-2.33101e-21
2.00147e-21
-1.4227e-21
1.38448e-21
-7.83657e-22
8.57032e-22
-3.87952e-22
4.7136e-22
-1.69683e-22
2.30383e-22
-6.43565e-23
9.93147e-23
-2.06901e-23
3.7288e-23
-5.47826e-24
1.19319e-23
-1.15982e-24
3.15383e-24
-1.88721e-25
6.65865e-25
-2.17598e-26
1.07531e-25
-1.59845e-27
1.2214e-26
-4.83393e-28
8.76076e-28
-5.10178e-27
2.56297e-28
-4.69971e-26
2.59301e-27
-3.39161e-25
2.27003e-26
1.54419e-25
-1.96904e-24
9.1574e-52
-5.41734e-49
2.74431e-46
-6.2242e-44
1.34874e-42
-1.65133e-40
9.19459e-40
-7.30999e-38
1.90298e-37
-1.06779e-35
1.74877e-35
-7.21646e-34
8.83709e-34
-2.74718e-32
2.79618e-32
-6.64621e-31
6.00672e-31
-1.09904e-29
9.22333e-30
-1.2951e-28
1.0568e-28
-1.11912e-27
9.43438e-28
-7.24721e-27
6.80639e-27
-3.53816e-26
4.00948e-26
-1.23487e-25
1.94407e-25
-2.43909e-25
7.95402e-25
2.13834e-26
2.81011e-24
4.2529e-25
9.06625e-24
2.61627e-24
2.61493e-23
1.16086e-23
6.48889e-23
4.06028e-23
1.37968e-22
1.17053e-22
2.57558e-22
2.93563e-22
4.28821e-22
6.68661e-22
6.23605e-22
1.41071e-21
7.27352e-22
2.77829e-21
4.50404e-22
5.11079e-21
-1.32576e-21
8.75912e-21
-6.041e-21
1.3966e-20
-1.36945e-20
2.02956e-20
-2.27967e-20
2.60874e-20
-2.94695e-20
2.86765e-20
-2.99428e-20
2.66839e-20
-2.48425e-20
2.22361e-20
-1.79436e-20
1.79729e-20
-1.17621e-20
1.36395e-20
-7.0379e-21
9.16342e-21
-3.78718e-21
5.42497e-21
-1.80535e-21
2.8424e-21
-7.50353e-22
1.32098e-21
-2.6644e-22
5.40177e-22
-7.85657e-23
1.90435e-22
-1.85133e-23
5.60049e-23
-3.36082e-24
1.31471e-23
-4.37674e-25
2.36391e-24
-3.67618e-26
3.02289e-25
-1.07344e-26
2.46874e-26
-1.03981e-25
6.93998e-27
-8.91951e-25
6.41169e-26
-5.94918e-24
5.20064e-25
3.2541e-24
-3.17883e-23
1.38618e-49
-6.99923e-47
2.50309e-44
-4.85862e-42
8.76005e-41
-9.21478e-39
4.68419e-38
-3.20608e-36
8.03859e-36
-3.88952e-34
6.34056e-34
-2.2603e-32
2.81792e-32
-7.58147e-31
7.98939e-31
-1.64675e-29
1.56017e-29
-2.48157e-28
2.19996e-28
-2.69503e-27
2.32524e-27
-2.15976e-26
1.91048e-26
-1.29715e-25
1.26253e-25
-5.85636e-25
6.80081e-25
-1.89437e-24
3.01504e-24
-3.55284e-24
1.12809e-23
2.63364e-25
3.66519e-23
6.03556e-24
1.08674e-22
3.49337e-23
2.89831e-22
1.44937e-22
6.55541e-22
4.65618e-22
1.26253e-21
1.2237e-21
2.13066e-21
2.79197e-21
3.21808e-21
5.80504e-21
4.27511e-21
1.12543e-20
4.58648e-21
2.04982e-20
2.62192e-21
3.50294e-20
-6.82922e-21
5.59814e-20
-2.96867e-20
8.41194e-20
-6.70592e-20
1.17809e-19
-1.15288e-19
1.50904e-19
-1.55207e-19
1.67437e-19
-1.61404e-19
1.54559e-19
-1.34977e-19
1.28869e-19
-1.00433e-19
1.12558e-19
-7.01952e-20
9.46001e-20
-4.52818e-20
6.86428e-20
-2.63162e-20
4.31835e-20
-1.3578e-20
2.40415e-20
-6.14315e-21
1.19844e-20
-2.39391e-21
5.3261e-21
-7.84415e-22
2.06632e-21
-2.07728e-22
6.77811e-22
-4.22609e-23
1.79256e-22
-6.26437e-24
3.61274e-23
-6.07611e-25
5.24782e-24
-1.39312e-25
4.93089e-25
-1.19201e-24
1.08329e-25
-9.76832e-24
8.79498e-25
-6.16128e-23
6.77993e-24
3.99193e-23
-3.09354e-22
1.52047e-47
-6.64546e-45
1.62144e-42
-2.74225e-40
4.08403e-39
-3.7705e-37
1.73406e-36
-1.04503e-34
2.49066e-34
-1.06308e-32
1.6976e-32
-5.34642e-31
6.66682e-31
-1.5866e-29
1.69956e-29
-3.1022e-28
3.02596e-28
-4.26854e-27
3.93092e-27
-4.28167e-26
3.84815e-26
-3.19217e-25
2.9247e-25
-1.78656e-24
1.77835e-24
-7.49775e-24
8.78058e-24
-2.25609e-23
3.558e-23
-4.00923e-23
1.21416e-22
2.28428e-24
3.6136e-22
6.50459e-23
9.84894e-22
3.55385e-22
2.43212e-21
1.38538e-21
5.00572e-21
4.10004e-21
8.68626e-21
9.83673e-21
1.3094e-20
2.03944e-20
1.75894e-20
3.86321e-20
2.06148e-20
6.86607e-20
1.87926e-20
1.15448e-19
6.05914e-21
1.83004e-19
-3.9917e-20
2.71892e-19
-1.27243e-19
3.84134e-19
-2.71332e-19
5.16716e-19
-4.78971e-19
6.67443e-19
-6.74547e-19
7.55881e-19
-7.08902e-19
6.76279e-19
-5.74737e-19
5.36131e-19
-4.28376e-19
5.15217e-19
-3.1771e-19
4.88833e-19
-2.20213e-19
3.78417e-19
-1.37366e-19
2.49324e-19
-7.61997e-20
1.4626e-19
-3.7328e-20
7.80569e-20
-1.59292e-20
3.77965e-20
-5.78584e-21
1.62313e-20
-1.72957e-21
5.96242e-21
-4.02157e-22
1.79201e-21
-6.81755e-23
4.13838e-22
-7.74632e-24
6.86771e-23
-1.26456e-24
7.53243e-24
-8.56586e-24
1.17239e-24
-6.86159e-23
7.49347e-24
-4.17439e-22
5.61492e-23
3.1717e-22
-2.00314e-21
1.23227e-45
-4.70064e-43
7.65945e-41
-1.1462e-38
1.40406e-37
-1.15933e-35
4.78411e-35
-2.59028e-33
5.79677e-33
-2.22816e-31
3.43341e-31
-9.75322e-30
1.19606e-29
-2.56995e-28
2.74884e-28
-4.53277e-27
4.47163e-27
-5.70226e-26
5.36477e-26
-5.29029e-25
4.88122e-25
-3.6781e-24
3.44945e-24
-1.92657e-23
1.94094e-23
-7.56089e-23
8.82558e-23
-2.12941e-22
3.27718e-22
-3.59995e-22
1.01945e-21
1.25333e-23
2.76999e-21
5.4583e-22
6.93999e-21
2.82978e-21
1.58651e-20
1.04091e-20
2.9684e-20
2.85044e-20
4.61489e-20
6.25683e-20
6.12201e-20
1.17817e-19
7.10818e-20
2.02897e-19
6.91909e-20
3.29485e-19
4.39962e-20
5.09722e-19
-3.29589e-20
7.47393e-19
-2.11002e-19
1.02747e-18
-4.68115e-19
1.36041e-18
-9.1987e-19
1.75489e-18
-1.69879e-18
2.38497e-18
-2.5596e-18
2.85732e-18
-2.71798e-18
2.42171e-18
-2.04767e-18
1.65168e-18
-1.47768e-18
1.84003e-18
-1.16009e-18
2.02434e-18
-8.5578e-19
1.62163e-18
-5.64812e-19
1.08855e-18
-3.3299e-19
6.6409e-19
-1.75354e-19
3.7912e-19
-8.16579e-20
2.01173e-19
-3.29157e-20
9.63988e-20
-1.11004e-20
4.00353e-20
-2.9841e-21
1.37346e-20
-5.90487e-22
3.68468e-21
-7.96179e-23
7.13312e-22
-9.88265e-24
9.24645e-23
-4.17753e-23
1.08791e-23
-3.33896e-22
4.3112e-23
-1.99538e-21
3.20256e-22
1.76631e-21
-9.28628e-21
7.44202e-44
-2.49073e-41
2.6854e-39
-3.61331e-37
3.62682e-36
-2.7301e-34
1.0013e-33
-4.97127e-32
1.03061e-31
-3.64345e-30
5.33058e-30
-1.39534e-28
1.65248e-28
-3.27522e-27
3.43054e-27
-5.21982e-26
5.10569e-26
-6.00785e-25
5.66587e-25
-5.15792e-24
4.80414e-24
-3.34879e-23
3.17148e-23
-1.64721e-22
1.66194e-22
-6.08097e-22
7.00561e-22
-1.6155e-21
2.39761e-21
-2.62234e-21
6.81835e-21
1.37464e-23
1.68869e-20
3.62854e-21
3.88907e-20
1.80064e-20
8.21481e-20
6.27655e-20
1.39448e-19
1.59801e-19
1.93011e-19
3.22062e-19
2.20414e-19
5.50825e-19
2.10373e-19
8.62075e-19
1.45224e-19
1.2745e-18
-2.24018e-21
1.80452e-18
-3.70937e-19
2.43224e-18
-8.85466e-19
3.07133e-18
-1.43933e-18
3.7643e-18
-2.58961e-18
4.53623e-18
-5.02147e-18
7.09242e-18
-8.3129e-18
9.62205e-18
-9.03576e-18
7.3406e-18
-6.27066e-18
3.45328e-18
-4.3823e-18
5.32384e-18
-3.7015e-18
7.23719e-18
-2.83579e-18
5.68879e-18
-1.91553e-18
3.72707e-18
-1.17054e-18
2.32408e-18
-6.52566e-19
1.41411e-18
-3.29443e-19
8.25496e-19
-1.47352e-19
4.45172e-19
-5.6218e-20
2.11095e-19
-1.74596e-20
8.33133e-20
-4.116e-21
2.59809e-20
-6.65566e-22
5.98411e-21
-7.71714e-23
9.25023e-22
-1.47825e-22
1.00895e-22
-1.19333e-21
1.79729e-22
-7.13045e-21
1.33807e-21
7.3271e-21
-3.26113e-20
3.34825e-42
-9.89307e-40
7.06845e-38
-8.71647e-36
7.1276e-35
-4.999e-33
1.60882e-32
-7.49443e-31
1.41543e-30
-4.71257e-29
6.4213e-29
-1.5869e-27
1.77633e-27
-3.32857e-26
3.33588e-26
-4.80055e-25
4.54515e-25
-5.05637e-24
4.66808e-24
-4.01582e-23
3.69437e-23
-2.4352e-22
2.28665e-22
-1.12699e-21
1.12287e-21
-3.93279e-21
4.42252e-21
-9.93595e-21
1.40718e-20
-1.56827e-20
3.68644e-20
-2.43177e-21
8.33474e-20
1.92878e-20
1.75832e-19
9.2625e-20
3.43673e-19
3.09091e-19
5.27314e-19
7.35551e-19
6.43541e-19
1.36523e-18
6.08899e-19
2.12206e-18
4.23888e-19
3.02791e-18
6.51129e-20
4.06374e-18
-6.86663e-19
5.21748e-18
-1.68188e-18
6.39494e-18
-2.80232e-18
7.31139e-18
-3.01645e-18
8.08938e-18
-6.86762e-18
7.20997e-18
-1.07407e-17
1.77386e-17
-1.66567e-17
2.76097e-17
-2.97884e-17
1.81017e-17
-1.45554e-17
3.28909e-18
-1.08167e-17
1.24273e-17
-1.07743e-17
2.00559e-17
-8.24911e-18
1.50069e-17
-5.47047e-18
9.78466e-18
-3.36094e-18
6.35579e-18
-1.93986e-18
4.14506e-18
-1.04595e-18
2.66461e-18
-5.16266e-19
1.61935e-18
-2.24436e-19
8.80485e-19
-8.09578e-20
4.04141e-19
-2.27057e-20
1.47184e-19
-4.50562e-21
4.01636e-20
-5.87367e-22
7.55055e-21
-4.12651e-22
9.16156e-22
-3.27835e-21
5.92303e-22
-1.99447e-20
4.29843e-21
2.37646e-20
-9.07762e-20
1.11588e-40
-2.9426e-38
1.40622e-36
-1.62878e-34
1.0734e-33
-7.20659e-32
1.99733e-31
-8.97992e-30
1.51058e-29
-4.87666e-28
6.03529e-28
-1.451e-26
1.49357e-26
-2.72852e-25
2.53994e-25
-3.56611e-24
3.16806e-24
-3.43706e-23
3.01008e-23
-2.52252e-22
2.22409e-22
-1.42707e-21
1.29351e-21
-6.21423e-21
5.98316e-21
-2.05587e-20
2.21956e-20
-4.97321e-20
6.63698e-20
-7.73358e-20
1.62218e-19
-2.59515e-20
3.37453e-19
8.19343e-20
6.50439e-19
3.88782e-19
1.18222e-18
1.265e-18
1.631e-18
2.83622e-18
1.71693e-18
4.82354e-18
1.24479e-18
6.82918e-18
3.70799e-19
8.95427e-18
-1.13294e-18
1.08842e-17
-3.03104e-18
1.24842e-17
-4.97766e-18
1.37003e-17
-6.67298e-18
1.39478e-17
-8.35911e-18
1.34293e-17
-1.06528e-17
1.41687e-17
-1.42052e-17
1.96798e-17
-6.50976e-17
3.77977e-17
-2.17266e-16
6.34967e-16
-1.77023e-16
6.80503e-16
-8.43341e-17
1.21194e-16
-4.44329e-17
1.00181e-16
-2.41277e-17
4.38268e-17
-1.3787e-17
2.42444e-17
-8.00659e-18
1.52978e-17
-4.60906e-18
1.01885e-17
-2.59122e-18
6.99889e-18
-1.39303e-18
4.71686e-18
-6.87479e-19
2.91746e-18
-2.92317e-19
1.5509e-18
-9.83172e-20
6.66282e-19
-2.40257e-20
2.15752e-19
-3.82721e-21
4.92072e-20
-1.08203e-21
7.18452e-21
-7.1734e-21
1.84328e-21
-4.52885e-20
1.10294e-20
6.26421e-20
-2.07775e-19
2.73132e-39
-6.59216e-37
2.11926e-35
-2.38525e-33
1.24089e-32
-8.27044e-31
1.9174e-30
-8.64086e-29
1.25283e-28
-4.07811e-27
4.42456e-27
-1.07742e-25
9.8174e-26
-1.82259e-24
1.51272e-24
-2.16188e-23
1.72595e-23
-1.90594e-22
1.51481e-22
-1.29035e-21
1.04367e-21
-6.793e-21
5.70543e-21
-2.77778e-20
2.49458e-20
-8.71513e-20
8.77864e-20
-2.02667e-19
2.49544e-19
-3.13662e-19
5.78869e-19
-1.62176e-19
1.12782e-18
2.73549e-19
1.98967e-18
1.33671e-18
3.41771e-18
4.38637e-18
4.2163e-18
9.44857e-18
3.63384e-18
1.43468e-17
1.60232e-18
1.85896e-17
-1.37983e-18
2.2672e-17
-4.97222e-18
2.48193e-17
-7.97812e-18
2.48175e-17
-1.03409e-17
2.37702e-17
-1.19227e-17
2.16553e-17
-1.24692e-17
1.81098e-17
-1.35696e-17
1.51463e-17
-7.48762e-17
1.53893e-17
-2.33334e-16
1.37689e-16
-5.28281e-16
1.40817e-15
-1.59791e-15
8.6492e-16
-1.76994e-16
1.08127e-15
-6.73043e-17
2.41853e-16
-3.18429e-17
6.2134e-17
-1.9679e-17
3.58174e-17
-1.25942e-17
2.46121e-17
-7.79079e-18
1.805e-17
-4.69369e-18
1.3861e-17
-2.77304e-18
1.06274e-17
-1.56662e-18
7.56092e-18
-7.91943e-19
4.67012e-18
-3.26868e-19
2.36074e-18
-9.91071e-20
9.17216e-19
-1.99442e-20
2.53194e-19
-3.50024e-21
4.56647e-20
-1.2881e-20
7.13766e-21
-8.58809e-20
2.33497e-20
1.38345e-19
-4.02761e-19
4.89062e-38
-1.13631e-35
2.41288e-34
-2.77377e-32
1.09532e-31
-7.64132e-30
1.41315e-29
-6.7478e-28
8.00855e-28
-2.7844e-26
2.5074e-26
-6.56326e-25
4.99614e-25
-1.00233e-23
6.97302e-24
-1.08069e-22
7.26323e-23
-8.70937e-22
5.87059e-22
-5.42554e-21
3.75937e-21
-2.64717e-20
1.92824e-20
-1.01224e-19
7.98109e-20
-3.00377e-19
2.67978e-19
-6.71714e-19
7.32241e-19
-1.03915e-18
1.64284e-18
-7.20104e-19
3.09733e-18
6.79238e-19
5.03982e-18
3.76239e-18
8.50682e-18
1.32138e-17
9.50172e-18
2.8723e-17
5.75892e-18
3.57165e-17
-2.23519e-19
4.37148e-17
-7.66744e-18
5.04416e-17
-1.26803e-17
4.83186e-17
-1.44038e-17
4.00506e-17
-1.57751e-17
3.29673e-17
-1.66182e-17
2.77549e-17
-1.73154e-17
2.24474e-17
-4.27074e-17
1.89884e-17
-5.6241e-16
4.3514e-17
-2.94014e-16
3.71951e-16
-9.93211e-16
6.80871e-16
-1.20205e-15
7.01232e-16
-1.43244e-15
9.46387e-16
-3.36348e-17
4.43062e-16
-1.97073e-17
8.14387e-17
-1.6521e-17
3.45261e-17
-1.28176e-17
2.56307e-17
-8.97957e-18
2.14766e-17
-5.91776e-18
1.94729e-17
-3.88393e-18
1.78576e-17
-2.55769e-18
1.51095e-17
-1.57395e-18
1.1e-17
-8.10797e-19
6.5627e-18
-3.12768e-19
3.04442e-18
-8.04665e-20
1.02625e-18
-1.37651e-20
2.28951e-19
-1.97672e-20
3.40116e-20
-1.38906e-19
4.25897e-20
2.62036e-19
-6.7676e-19
6.44966e-37
-1.53429e-34
2.05254e-33
-2.60084e-31
7.24934e-31
-5.7526e-29
7.82291e-29
-4.32928e-27
3.85085e-27
-1.57163e-25
1.06957e-25
-3.32083e-24
1.9125e-24
-4.59434e-23
2.41074e-23
-4.5102e-22
2.28076e-22
-3.31989e-21
1.68666e-21
-1.89642e-20
9.97069e-21
-8.52745e-20
4.77508e-20
-3.02919e-19
1.87033e-19
-8.4509e-19
6.02871e-19
-1.81055e-18
1.60514e-18
-2.79621e-18
3.55365e-18
-2.37321e-18
6.74378e-18
1.05974e-18
1.06113e-17
8.28113e-18
1.2015e-17
7.36503e-17
1.75789e-17
8.30757e-17
5.67172e-18
7.11897e-17
-6.51554e-18
9.83125e-17
-2.22826e-17
2.22409e-16
-2.33614e-17
7.93436e-17
-1.6871e-17
4.95209e-17
-1.91253e-17
4.41541e-17
-1.83193e-17
3.05361e-17
-1.77227e-17
2.49993e-17
-1.76313e-17
2.16156e-17
-3.77139e-17
2.06992e-17
-6.64445e-16
5.17787e-17
-3.80356e-16
7.3769e-16
-1.85143e-15
5.32776e-16
-7.57846e-16
3.26598e-16
-9.45671e-17
1.18594e-16
-3.29868e-17
8.31348e-17
-1.91039e-17
3.76404e-17
-1.36023e-17
2.56092e-17
-9.12434e-18
2.20361e-17
-5.73128e-18
2.28822e-17
-3.79215e-18
2.49904e-17
-2.89511e-18
2.50987e-17
-2.26049e-18
2.13819e-17
-1.50494e-18
1.4869e-17
-7.48474e-19
8.1262e-18
-2.51229e-19
3.29046e-18
-5.17516e-20
9.11509e-19
-2.86543e-20
1.57538e-19
-1.94232e-19
7.42184e-20
4.32583e-19
-1.0031e-18
6.20253e-36
-1.61612e-33
1.25945e-32
-1.98947e-30
3.40724e-30
-3.58197e-28
3.05008e-28
-2.3183e-26
1.29603e-26
-7.45424e-25
3.17021e-25
-1.419e-23
5.03719e-24
-1.78508e-22
5.65815e-23
-1.59941e-21
4.77861e-22
-1.0751e-20
3.16983e-21
-5.61039e-20
1.69694e-20
-2.3097e-19
7.48759e-20
-7.55289e-19
2.77141e-19
-1.9603e-18
8.70719e-19
-3.98434e-18
2.33844e-18
-6.10112e-18
5.3609e-18
-5.99686e-18
1.07994e-17
1.96903e-19
1.93394e-17
8.02867e-18
4.88178e-17
1.05117e-16
1.27999e-17
1.49642e-16
-9.18967e-19
1.08172e-16
-3.68848e-17
1.40934e-16
-8.11796e-17
2.45824e-16
-3.30944e-17
9.98927e-17
-3.91291e-17
5.55634e-17
-3.25806e-17
5.72516e-17
-1.6632e-17
6.00198e-17
-1.33322e-17
2.48691e-17
-1.12073e-17
2.20715e-17
-9.89201e-18
2.05295e-17
-4.02901e-17
2.08305e-17
-1.19339e-16
1.3136e-16
-1.06839e-16
3.29557e-16
-4.5727e-17
2.02172e-16
-2.93375e-17
4.38465e-17
-2.20977e-17
3.73842e-17
-1.74032e-17
2.67352e-17
-1.29583e-17
2.23153e-17
-7.97458e-18
2.04421e-17
-3.66197e-18
2.39891e-17
-1.55576e-18
3.12424e-17
-1.5282e-18
3.68497e-17
-2.05335e-18
3.60315e-17
-2.03021e-18
2.8596e-17
-1.36763e-18
1.79915e-17
-6.02505e-19
8.59782e-18
-1.62064e-19
2.89094e-18
-4.7338e-20
6.21923e-19
-2.36782e-19
1.49761e-19
6.2995e-19
-1.32646e-18
4.14321e-35
-1.29536e-32
4.8774e-32
-1.22782e-29
9.15731e-30
-1.85316e-27
6.30966e-28
-1.04838e-25
2.16816e-26
-3.01838e-24
4.33595e-25
-5.21552e-23
5.54308e-24
-5.99874e-22
4.82289e-23
-4.9242e-21
2.97455e-22
-3.02807e-20
1.33408e-21
-1.44144e-19
4.49713e-21
-5.40616e-19
1.31995e-20
-1.61212e-18
4.83996e-20
-3.83617e-18
2.33148e-19
-7.26172e-18
1.03803e-18
-1.07888e-17
3.73712e-18
-1.18503e-17
1.04723e-17
-5.85846e-18
2.02611e-17
1.20454e-17
3.09325e-17
5.90296e-17
3.01153e-17
4.33221e-16
-1.00563e-16
4.53432e-15
-9.58768e-17
2.29035e-15
-6.76079e-17
2.1495e-16
-3.18541e-17
1.13635e-16
-2.01615e-17
5.4826e-17
-1.60742e-17
4.08263e-17
-1.18111e-17
4.12977e-17
-3.97857e-18
2.26633e-17
-3.05613e-18
2.264e-17
-3.61636e-18
2.28281e-17
-6.94354e-18
2.29125e-17
-1.29067e-17
3.47303e-17
-3.41617e-18
6.69853e-17
-5.2144e-18
5.69114e-17
-8.99597e-18
2.90042e-17
-7.89137e-18
4.41515e-17
-1.12459e-17
2.77239e-17
-1.01821e-17
2.15975e-17
-4.93191e-18
1.72862e-17
1.14177e-18
2.16224e-17
4.33521e-18
3.47972e-17
3.2127e-18
4.87024e-17
-1.06512e-20
5.38214e-17
-1.69396e-18
4.7842e-17
-1.86238e-18
3.39697e-17
-1.12156e-18
1.87152e-17
-4.0057e-19
7.51549e-18
-9.88642e-20
2.00331e-18
-2.56075e-19
3.90985e-19
8.28136e-19
-1.56906e-18
1.52603e-34
-7.92869e-32
2.94924e-32
-6.03102e-29
-4.70534e-28
-7.79899e-27
-3.33275e-26
-3.91878e-25
-9.68142e-25
-1.02047e-23
-1.69332e-23
-1.60872e-22
-2.03811e-22
-1.6948e-21
-1.80518e-21
-1.27471e-20
-1.22375e-20
-7.16203e-20
-6.48549e-20
-3.10017e-19
-2.71987e-19
-1.05376e-18
-9.08666e-19
-2.84163e-18
-2.42366e-18
-6.11526e-18
-5.17287e-18
-1.05507e-17
-8.86854e-18
-1.46692e-17
-1.20359e-17
-1.62735e-17
-9.49476e-18
-1.25927e-17
2.23162e-18
4.9604e-18
2.85421e-16
1.86365e-16
-9.01093e-17
4.99498e-15
-1.0284e-15
5.4239e-15
-5.4447e-16
4.95651e-15
-3.18721e-17
2.74345e-16
-5.03089e-18
1.01586e-16
5.27844e-18
4.69426e-17
9.30729e-18
3.47343e-17
1.07129e-17
2.83263e-17
1.00694e-17
2.51198e-17
8.74016e-18
2.64171e-17
6.59908e-18
2.8135e-17
4.27428e-18
2.80815e-17
5.99524e-18
2.78671e-17
1.02123e-17
3.22769e-17
1.47651e-17
3.41494e-17
8.1109e-18
3.23564e-17
1.62763e-18
6.59155e-17
-5.22881e-18
3.51502e-17
-7.25928e-18
2.56779e-17
1.44465e-19
1.37335e-17
1.03383e-17
1.7216e-17
1.39496e-17
3.67765e-17
1.10065e-17
6.02576e-17
5.61331e-18
7.2966e-17
1.8012e-19
7.10531e-17
-1.7091e-18
5.59601e-17
-1.59752e-18
3.48497e-17
-7.74068e-19
1.63879e-17
-2.22393e-19
5.31945e-18
-2.55616e-19
1.14049e-18
1.03274e-18
-1.65378e-18
3.96077e-35
-3.55398e-31
-9.27144e-29
-2.26524e-28
-1.03778e-26
-2.57697e-26
-4.27541e-25
-1.16634e-24
-9.53075e-24
-2.76904e-23
-1.36227e-22
-4.00503e-22
-1.37051e-21
-3.88077e-21
-1.02779e-20
-2.68358e-20
-5.9663e-20
-1.38201e-19
-2.74682e-19
-5.4547e-19
-1.01813e-18
-1.67977e-18
-3.07041e-18
-4.07121e-18
-7.61161e-18
-7.78555e-18
-1.57597e-17
-1.1759e-17
-2.80245e-17
-1.41309e-17
-4.43219e-17
-1.38241e-17
-6.54452e-17
-1.10529e-17
-1.0523e-16
-1.84011e-18
-9.2998e-17
3.70512e-17
9.63381e-17
2.17668e-15
-1.18395e-15
6.65875e-15
-1.04227e-16
2.05307e-15
4.53368e-17
1.31618e-16
4.76415e-17
7.01618e-17
3.80528e-17
4.64714e-17
3.20234e-17
3.77742e-17
2.77007e-17
3.24846e-17
2.40231e-17
2.89635e-17
2.37007e-17
3.21815e-17
2.29195e-17
3.75971e-17
2.14131e-17
3.62287e-17
2.21716e-17
3.16653e-17
2.82163e-17
2.92105e-17
3.21604e-17
3.438e-17
3.17857e-17
3.7149e-17
2.44747e-17
5.07226e-17
1.01938e-17
5.58855e-17
4.08773e-18
5.4579e-17
1.63504e-17
1.03261e-17
3.54317e-17
1.20508e-17
3.66011e-17
5.31465e-17
2.14075e-17
8.26579e-17
1.2322e-17
9.40006e-17
4.87804e-18
9.56641e-17
-4.28952e-19
8.19148e-17
-1.59846e-18
5.68458e-17
-1.14977e-18
3.06622e-17
-4.36412e-19
1.19998e-17
-2.58876e-19
3.0978e-18
1.36926e-18
-1.54404e-18
-9.64733e-31
-1.16436e-30
-6.12763e-28
-6.42921e-28
-5.37754e-26
-6.57968e-26
-1.92684e-24
-2.73293e-24
-3.83994e-23
-6.00746e-23
-4.94817e-22
-8.0715e-22
-4.49674e-21
-7.26724e-21
-3.04527e-20
-4.66051e-20
-1.59582e-19
-2.21642e-19
-6.64378e-19
-8.01988e-19
-2.23718e-18
-2.23828e-18
-6.17703e-18
-4.8237e-18
-1.41979e-17
-7.90991e-18
-2.78834e-17
-9.45236e-18
-4.92811e-17
-7.02207e-18
-8.57467e-17
6.6108e-19
-1.52223e-16
1.37829e-17
-2.01823e-16
3.13475e-17
-2.23468e-16
3.97185e-17
-1.79761e-15
6.07919e-16
8.88645e-16
3.16824e-15
5.93235e-16
5.46752e-16
2.13728e-16
1.63254e-16
1.11745e-16
9.60945e-17
7.1978e-17
6.76569e-17
5.0779e-17
5.07551e-17
3.91382e-17
4.04134e-17
3.32141e-17
3.43477e-17
3.69163e-17
3.70958e-17
4.49495e-17
4.9594e-17
4.46634e-17
4.99618e-17
4.59885e-17
3.7709e-17
4.82782e-17
3.09914e-17
5.67673e-17
3.73436e-17
6.71845e-17
4.64188e-17
8.63686e-17
6.43055e-17
9.32554e-17
1.43043e-16
1.0686e-16
9.84783e-16
4.52484e-16
1.13014e-16
4.62834e-16
6.2163e-17
1.35439e-16
7.83888e-16
5.82761e-17
1.9033e-16
2.23837e-17
1.40284e-16
1.00933e-17
1.21202e-16
3.36985e-18
1.07712e-16
-5.68989e-19
8.24647e-17
-1.14035e-18
5.05318e-17
-6.63254e-19
2.33747e-17
-2.9761e-19
7.49752e-18
2.25609e-18
-1.2521e-18
-5.06708e-30
-2.84238e-30
-2.22739e-27
-1.40223e-27
-1.72247e-25
-1.3245e-25
-5.62228e-24
-5.15093e-24
-1.03056e-22
-1.06563e-22
-1.2239e-21
-1.34865e-21
-1.02396e-20
-1.14238e-20
-6.3682e-20
-6.87326e-20
-3.05494e-19
-3.05157e-19
-1.16069e-18
-1.02184e-18
-3.55837e-18
-2.59928e-18
-8.93036e-18
-4.9652e-18
-1.86769e-17
-6.7834e-18
-3.36561e-17
-5.44408e-18
-5.54483e-17
1.48009e-18
-8.96202e-17
1.51738e-17
-1.47267e-16
3.91235e-17
-2.59582e-16
7.36816e-17
-5.18298e-16
6.84744e-17
-4.9375e-16
-1.60657e-16
5.37919e-16
5.59532e-17
4.00153e-16
4.71882e-17
1.812e-16
1.76304e-16
1.16288e-16
2.24221e-16
7.98705e-17
9.17389e-17
5.30973e-17
6.32449e-17
4.01939e-17
4.76649e-17
3.5478e-17
3.94398e-17
3.52905e-17
3.43902e-17
5.29922e-17
4.95633e-17
5.34111e-17
1.6423e-16
6.45164e-17
3.97497e-17
6.59402e-17
3.26906e-17
6.57189e-17
3.39239e-17
7.46107e-17
3.15327e-17
9.08098e-17
3.76673e-17
2.41766e-15
2.03068e-16
3.2269e-15
1.41247e-15
2.27346e-15
9.35893e-16
1.53224e-15
9.83867e-16
4.57654e-16
1.67302e-15
1.0764e-16
4.15353e-16
3.86924e-17
2.5704e-16
1.65587e-17
1.62404e-16
8.65684e-18
1.31118e-16
3.51207e-18
1.07615e-16
-6.90223e-20
7.44726e-17
-5.61276e-19
4.03229e-17
-3.49237e-19
1.59257e-17
4.73073e-18
-8.46494e-19
-1.47534e-29
-5.31673e-30
-5.56079e-27
-2.4084e-27
-3.9677e-25
-2.14854e-25
-1.21003e-23
-7.97327e-24
-2.0778e-22
-1.57842e-22
-2.30917e-21
-1.90997e-21
-1.80283e-20
-1.54327e-20
-1.04202e-19
-8.8266e-20
-4.62016e-19
-3.7055e-19
-1.61114e-18
-1.16314e-18
-4.49941e-18
-2.7334e-18
-1.022e-17
-4.69727e-18
-1.9302e-17
-5.39677e-18
-3.18079e-17
-2.37062e-18
-5.09233e-17
6.04681e-18
-9.09007e-17
2.22274e-17
-1.78123e-16
5.70522e-17
-3.47007e-16
1.48117e-16
-4.81023e-16
4.68207e-17
-4.71196e-16
-2.29103e-15
-5.79765e-16
1.56207e-15
6.94524e-17
-8.70179e-16
7.43391e-17
1.562e-16
4.03035e-17
1.94784e-16
4.62094e-17
7.6549e-17
3.74818e-17
6.17285e-17
3.1279e-17
5.0538e-17
2.88246e-17
4.20821e-17
3.18967e-17
3.37497e-17
5.48818e-17
2.78576e-17
7.92225e-17
7.96799e-17
7.34822e-17
5.82651e-17
7.08252e-17
4.34109e-17