/*--------------------------------*- C++ -*----------------------------------*\
| =========                 |                                                 |
| \\      /  F ield         | OpenFOAM: The Open Source CFD Toolbox           |
|  \\    /   O peration     | Version:  2.4.0                                 |
|   \\  /    A nd           | Web:      www.OpenFOAM.org                      |
|    \\/     M anipulation  |                                                 |
\*---------------------------------------------------------------------------*/
FoamFile
{
    version     2.0;
    format      ascii;
    class       volVectorField;
    location    "0.038";
    object      U;
}
// * * * * * * * * * * * * * * * * * * * * * * * * * * * * * * * * * * * * * //

dimensions      [0 1 -1 0 0 0 0];

internalField   nonuniform List<vector> 
60000
(
(2.63883e-08 -2.89109e-09 0)
(3.33316e-08 5.04409e-09 0)
(-2.21038e-08 7.55566e-09 0)
(-5.94619e-08 7.87265e-09 0)
(-1.09367e-07 6.96175e-09 0)
(-1.48897e-07 7.41638e-09 0)
(-1.93514e-07 7.24486e-09 0)
(-2.36845e-07 7.34148e-09 0)
(-2.80311e-07 7.25011e-09 0)
(-3.23323e-07 7.17129e-09 0)
(-3.66305e-07 7.1581e-09 0)
(-4.09807e-07 7.31276e-09 0)
(-4.54553e-07 7.59421e-09 0)
(-5.0105e-07 7.90183e-09 0)
(-5.4917e-07 8.16402e-09 0)
(-5.98532e-07 8.32573e-09 0)
(-6.48783e-07 8.42247e-09 0)
(-6.99717e-07 8.4976e-09 0)
(-7.51478e-07 8.66058e-09 0)
(-8.04584e-07 8.95791e-09 0)
(-8.59528e-07 9.30604e-09 0)
(-9.16716e-07 9.75374e-09 0)
(-9.76391e-07 1.01789e-08 0)
(-1.03835e-06 1.05413e-08 0)
(-1.1021e-06 1.07722e-08 0)
(-1.16711e-06 1.08892e-08 0)
(-1.2328e-06 1.08421e-08 0)
(-1.2987e-06 1.07707e-08 0)
(-1.36478e-06 1.06859e-08 0)
(-1.43148e-06 1.06707e-08 0)
(-1.49964e-06 1.09036e-08 0)
(-1.57015e-06 1.12623e-08 0)
(-1.64392e-06 1.1791e-08 0)
(-1.72143e-06 1.23176e-08 0)
(-1.80241e-06 1.27925e-08 0)
(-1.88601e-06 1.29772e-08 0)
(-1.97143e-06 1.29796e-08 0)
(-2.05868e-06 1.30029e-08 0)
(-2.14893e-06 1.34726e-08 0)
(-2.24381e-06 1.41037e-08 0)
(-2.34469e-06 1.5057e-08 0)
(-2.45186e-06 1.57588e-08 0)
(-2.56467e-06 1.63121e-08 0)
(-2.68304e-06 1.69662e-08 0)
(-2.8068e-06 1.71795e-08 0)
(-2.93721e-06 1.80924e-08 0)
(-3.07644e-06 1.91848e-08 0)
(-3.22514e-06 2.00531e-08 0)
(-3.38406e-06 2.1339e-08 0)
(-3.55364e-06 2.25354e-08 0)
(-3.73271e-06 2.33526e-08 0)
(-3.91978e-06 2.39751e-08 0)
(-4.1133e-06 2.41909e-08 0)
(-4.31183e-06 2.4225e-08 0)
(-4.51461e-06 2.41664e-08 0)
(-4.7209e-06 2.38558e-08 0)
(-4.93006e-06 2.34769e-08 0)
(-5.14184e-06 2.30298e-08 0)
(-5.35596e-06 2.23726e-08 0)
(-5.57215e-06 2.16583e-08 0)
(-5.79028e-06 2.08704e-08 0)
(-6.00994e-06 1.98425e-08 0)
(-6.23029e-06 1.85887e-08 0)
(-6.45003e-06 1.69942e-08 0)
(-6.66695e-06 1.48114e-08 0)
(-6.87811e-06 1.19866e-08 0)
(-7.08024e-06 8.52482e-09 0)
(-7.26988e-06 4.36733e-09 0)
(-7.44367e-06 -4.46737e-10 0)
(-7.5986e-06 -5.80189e-09 0)
(-7.73223e-06 -1.15842e-08 0)
(-7.84297e-06 -1.75848e-08 0)
(-7.93037e-06 -2.35062e-08 0)
(-7.99475e-06 -2.92878e-08 0)
(-8.03646e-06 -3.51012e-08 0)
(-8.05591e-06 -4.09472e-08 0)
(-8.05443e-06 -4.65105e-08 0)
(-8.03296e-06 -5.07777e-08 0)
(-7.99217e-06 -5.47122e-08 0)
(-7.93403e-06 -5.81394e-08 0)
(-7.86144e-06 -6.08972e-08 0)
(-7.77823e-06 -6.28572e-08 0)
(-7.68924e-06 -6.39207e-08 0)
(-7.6004e-06 -6.3843e-08 0)
(-7.51832e-06 -6.25888e-08 0)
(-7.44954e-06 -6.03496e-08 0)
(-7.40037e-06 -5.71576e-08 0)
(-7.37717e-06 -5.30434e-08 0)
(-7.38459e-06 -4.67455e-08 0)
(-7.42666e-06 -4.00748e-08 0)
(-7.50749e-06 -3.3063e-08 0)
(-7.62936e-06 -2.58241e-08 0)
(-7.79316e-06 -1.85032e-08 0)
(-7.9994e-06 -1.09825e-08 0)
(-8.24334e-06 -4.57924e-09 0)
(-8.55359e-06 1.22958e-08 0)
(-8.67047e-06 -2.58803e-08 0)
(-9.58288e-06 1.00061e-07 0)
(-9.05015e-06 -7.29103e-08 0)
(-1.03292e-05 1.11033e-08 0)
(5.97832e-08 -3.11631e-08 0)
(8.67094e-08 2.13172e-08 0)
(-1.24078e-08 3.88907e-08 0)
(-6.7987e-08 3.90161e-08 0)
(-1.53323e-07 3.70302e-08 0)
(-2.18731e-07 3.73239e-08 0)
(-2.92711e-07 3.74846e-08 0)
(-3.64299e-07 3.76148e-08 0)
(-4.36517e-07 3.73361e-08 0)
(-5.08649e-07 3.71055e-08 0)
(-5.81339e-07 3.72303e-08 0)
(-6.54909e-07 3.80886e-08 0)
(-7.29954e-07 3.94804e-08 0)
(-8.07078e-07 4.10055e-08 0)
(-8.86217e-07 4.23521e-08 0)
(-9.67315e-07 4.33099e-08 0)
(-1.05031e-06 4.39558e-08 0)
(-1.13512e-06 4.45601e-08 0)
(-1.22191e-06 4.5483e-08 0)
(-1.31106e-06 4.69124e-08 0)
(-1.40299e-06 4.86967e-08 0)
(-1.49805e-06 5.08266e-08 0)
(-1.59655e-06 5.29015e-08 0)
(-1.69837e-06 5.47236e-08 0)
(-1.80317e-06 5.60656e-08 0)
(-1.91062e-06 5.68714e-08 0)
(-2.02044e-06 5.72854e-08 0)
(-2.1323e-06 5.75338e-08 0)
(-2.24618e-06 5.79262e-08 0)
(-2.36296e-06 5.88975e-08 0)
(-2.48341e-06 6.07433e-08 0)
(-2.60836e-06 6.34563e-08 0)
(-2.73887e-06 6.67228e-08 0)
(-2.87549e-06 7.0122e-08 0)
(-3.01793e-06 7.31012e-08 0)
(-3.16551e-06 7.5179e-08 0)
(-3.31805e-06 7.67107e-08 0)
(-3.47614e-06 7.88067e-08 0)
(-3.64087e-06 8.25304e-08 0)
(-3.81369e-06 8.75253e-08 0)
(-3.99581e-06 9.34392e-08 0)
(-4.18764e-06 9.89798e-08 0)
(-4.38939e-06 1.04112e-07 0)
(-4.60095e-06 1.09341e-07 0)
(-4.82317e-06 1.14722e-07 0)
(-5.0579e-06 1.22472e-07 0)
(-5.30628e-06 1.31289e-07 0)
(-5.56946e-06 1.40436e-07 0)
(-5.84843e-06 1.50576e-07 0)
(-6.14305e-06 1.60153e-07 0)
(-6.4525e-06 1.68443e-07 0)
(-6.77584e-06 1.75655e-07 0)
(-7.11183e-06 1.81332e-07 0)
(-7.4593e-06 1.86134e-07 0)
(-7.81751e-06 1.90474e-07 0)
(-8.18594e-06 1.94093e-07 0)
(-8.564e-06 1.9741e-07 0)
(-8.95138e-06 2.00648e-07 0)
(-9.34809e-06 2.03648e-07 0)
(-9.75407e-06 2.06624e-07 0)
(-1.01689e-05 2.09519e-07 0)
(-1.05922e-05 2.11939e-07 0)
(-1.1023e-05 2.13596e-07 0)
(-1.14596e-05 2.13879e-07 0)
(-1.18995e-05 2.11976e-07 0)
(-1.23397e-05 2.07416e-07 0)
(-1.27764e-05 1.99965e-07 0)
(-1.32057e-05 1.89532e-07 0)
(-1.36239e-05 1.76323e-07 0)
(-1.40274e-05 1.60756e-07 0)
(-1.44132e-05 1.43411e-07 0)
(-1.47789e-05 1.2515e-07 0)
(-1.51231e-05 1.06911e-07 0)
(-1.54452e-05 8.89801e-08 0)
(-1.57449e-05 7.1118e-08 0)
(-1.60224e-05 5.34416e-08 0)
(-1.62781e-05 3.6538e-08 0)
(-1.65131e-05 2.11972e-08 0)
(-1.67292e-05 6.80757e-09 0)
(-1.69291e-05 -5.81047e-09 0)
(-1.71165e-05 -1.57312e-08 0)
(-1.72967e-05 -2.2073e-08 0)
(-1.74763e-05 -2.3989e-08 0)
(-1.76629e-05 -2.06312e-08 0)
(-1.78647e-05 -1.16887e-08 0)
(-1.80905e-05 2.57087e-09 0)
(-1.83492e-05 2.19551e-08 0)
(-1.86486e-05 4.609e-08 0)
(-1.89968e-05 7.55286e-08 0)
(-1.94003e-05 1.08275e-07 0)
(-1.98638e-05 1.43417e-07 0)
(-2.03905e-05 1.79841e-07 0)
(-2.09815e-05 2.16341e-07 0)
(-2.16366e-05 2.51892e-07 0)
(-2.23455e-05 2.84232e-07 0)
(-2.31501e-05 3.19495e-07 0)
(-2.36359e-05 3.01641e-07 0)
(-2.55166e-05 4.84311e-07 0)
(-2.42971e-05 1.57763e-07 0)
(-2.77021e-05 1.91729e-07 0)
(6.34096e-08 -7.44683e-08 0)
(8.89114e-08 4.61827e-08 0)
(-1.94777e-08 7.89072e-08 0)
(-7.71129e-08 7.94804e-08 0)
(-1.69738e-07 7.72783e-08 0)
(-2.41107e-07 7.71026e-08 0)
(-3.21486e-07 7.73735e-08 0)
(-3.99086e-07 7.7623e-08 0)
(-4.77887e-07 7.75678e-08 0)
(-5.57419e-07 7.76432e-08 0)
(-6.3822e-07 7.81375e-08 0)
(-7.20024e-07 7.96282e-08 0)
(-8.02924e-07 8.1784e-08 0)
(-8.8729e-07 8.41952e-08 0)
(-9.73183e-07 8.65679e-08 0)
(-1.06101e-06 8.86046e-08 0)
(-1.15123e-06 9.03492e-08 0)
(-1.24404e-06 9.21506e-08 0)
(-1.33945e-06 9.43498e-08 0)
(-1.43759e-06 9.72044e-08 0)
(-1.53855e-06 1.00589e-07 0)
(-1.64229e-06 1.04383e-07 0)
(-1.74913e-06 1.08193e-07 0)
(-1.85926e-06 1.11752e-07 0)
(-1.97262e-06 1.14777e-07 0)
(-2.08954e-06 1.17124e-07 0)
(-2.21037e-06 1.19251e-07 0)
(-2.33504e-06 1.2108e-07 0)
(-2.46371e-06 1.23254e-07 0)
(-2.59706e-06 1.26355e-07 0)
(-2.73522e-06 1.30453e-07 0)
(-2.87835e-06 1.36037e-07 0)
(-3.02701e-06 1.4222e-07 0)
(-3.18162e-06 1.48866e-07 0)
(-3.34207e-06 1.54861e-07 0)
(-3.50844e-06 1.6002e-07 0)
(-3.68144e-06 1.64497e-07 0)
(-3.86193e-06 1.7005e-07 0)
(-4.05025e-06 1.7751e-07 0)
(-4.24667e-06 1.87063e-07 0)
(-4.45121e-06 1.97349e-07 0)
(-4.66425e-06 2.07836e-07 0)
(-4.88677e-06 2.17865e-07 0)
(-5.11898e-06 2.27745e-07 0)
(-5.36218e-06 2.3916e-07 0)
(-5.61677e-06 2.52881e-07 0)
(-5.88245e-06 2.67967e-07 0)
(-6.16067e-06 2.8429e-07 0)
(-6.45151e-06 3.01205e-07 0)
(-6.75426e-06 3.17434e-07 0)
(-7.06916e-06 3.32386e-07 0)
(-7.39609e-06 3.45975e-07 0)
(-7.73521e-06 3.57937e-07 0)
(-8.08667e-06 3.68742e-07 0)
(-8.45002e-06 3.78865e-07 0)
(-8.82519e-06 3.88257e-07 0)
(-9.21207e-06 3.9703e-07 0)
(-9.61016e-06 4.05593e-07 0)
(-1.00194e-05 4.14015e-07 0)
(-1.04393e-05 4.22107e-07 0)
(-1.08692e-05 4.29718e-07 0)
(-1.13079e-05 4.36531e-07 0)
(-1.17543e-05 4.41854e-07 0)
(-1.22064e-05 4.44775e-07 0)
(-1.26623e-05 4.44471e-07 0)
(-1.31196e-05 4.40136e-07 0)
(-1.35758e-05 4.31214e-07 0)
(-1.40276e-05 4.17664e-07 0)
(-1.44723e-05 3.99728e-07 0)
(-1.49068e-05 3.77874e-07 0)
(-1.53284e-05 3.52973e-07 0)
(-1.57346e-05 3.262e-07 0)
(-1.61233e-05 2.98656e-07 0)
(-1.64925e-05 2.70963e-07 0)
(-1.68412e-05 2.43466e-07 0)
(-1.71697e-05 2.16667e-07 0)
(-1.74785e-05 1.91163e-07 0)
(-1.77691e-05 1.67046e-07 0)
(-1.80445e-05 1.45257e-07 0)
(-1.83085e-05 1.27076e-07 0)
(-1.85659e-05 1.14004e-07 0)
(-1.88224e-05 1.0757e-07 0)
(-1.90847e-05 1.09263e-07 0)
(-1.936e-05 1.20198e-07 0)
(-1.9656e-05 1.40955e-07 0)
(-1.9981e-05 1.71594e-07 0)
(-2.03436e-05 2.1177e-07 0)
(-2.07521e-05 2.60739e-07 0)
(-2.12144e-05 3.17102e-07 0)
(-2.17375e-05 3.80042e-07 0)
(-2.23262e-05 4.47662e-07 0)
(-2.29839e-05 5.17705e-07 0)
(-2.37119e-05 5.87565e-07 0)
(-2.45106e-05 6.54552e-07 0)
(-2.53671e-05 7.14927e-07 0)
(-2.63366e-05 7.71855e-07 0)
(-2.69212e-05 7.68381e-07 0)
(-2.91256e-05 9.53015e-07 0)
(-2.76128e-05 5.98817e-07 0)
(-3.18656e-05 4.15573e-07 0)
(5.02631e-08 -1.11081e-07 0)
(6.96653e-08 6.78004e-08 0)
(-2.80895e-08 1.15776e-07 0)
(-8.56748e-08 1.17154e-07 0)
(-1.78007e-07 1.15186e-07 0)
(-2.49658e-07 1.14668e-07 0)
(-3.30493e-07 1.15064e-07 0)
(-4.08572e-07 1.15507e-07 0)
(-4.88095e-07 1.15906e-07 0)
(-5.68753e-07 1.16535e-07 0)
(-6.5097e-07 1.17612e-07 0)
(-7.34234e-07 1.19752e-07 0)
(-8.18484e-07 1.22562e-07 0)
(-9.03918e-07 1.25715e-07 0)
(-9.90643e-07 1.28998e-07 0)
(-1.0792e-06 1.32056e-07 0)
(-1.17022e-06 1.34981e-07 0)
(-1.264e-06 1.3804e-07 0)
(-1.36051e-06 1.41512e-07 0)
(-1.45986e-06 1.45716e-07 0)
(-1.56199e-06 1.50482e-07 0)
(-1.66663e-06 1.55688e-07 0)
(-1.77426e-06 1.61066e-07 0)
(-1.88522e-06 1.66258e-07 0)
(-1.99951e-06 1.71047e-07 0)
(-2.11795e-06 1.754e-07 0)
(-2.24098e-06 1.79662e-07 0)
(-2.36854e-06 1.83773e-07 0)
(-2.50099e-06 1.8843e-07 0)
(-2.63862e-06 1.94083e-07 0)
(-2.78149e-06 2.00761e-07 0)
(-2.92922e-06 2.08946e-07 0)
(-3.08214e-06 2.1792e-07 0)
(-3.24072e-06 2.27517e-07 0)
(-3.40493e-06 2.36605e-07 0)
(-3.57527e-06 2.45228e-07 0)
(-3.75268e-06 2.53465e-07 0)
(-3.93802e-06 2.63003e-07 0)
(-4.13167e-06 2.74548e-07 0)
(-4.33314e-06 2.88331e-07 0)
(-4.54189e-06 3.02715e-07 0)
(-4.75807e-06 3.17653e-07 0)
(-4.98259e-06 3.32403e-07 0)
(-5.21679e-06 3.47225e-07 0)
(-5.46097e-06 3.64061e-07 0)
(-5.71468e-06 3.82882e-07 0)
(-5.97788e-06 4.03257e-07 0)
(-6.25039e-06 4.2511e-07 0)
(-6.53206e-06 4.47222e-07 0)
(-6.82329e-06 4.68823e-07 0)
(-7.12462e-06 4.89336e-07 0)
(-7.43657e-06 5.08549e-07 0)
(-7.75964e-06 5.26462e-07 0)
(-8.09431e-06 5.43265e-07 0)
(-8.44078e-06 5.59295e-07 0)
(-8.79903e-06 5.74687e-07 0)
(-9.16906e-06 5.89334e-07 0)
(-9.55071e-06 6.03577e-07 0)
(-9.94343e-06 6.1754e-07 0)
(-1.03465e-05 6.30804e-07 0)
(-1.07591e-05 6.43079e-07 0)
(-1.11799e-05 6.53981e-07 0)
(-1.16075e-05 6.6259e-07 0)
(-1.204e-05 6.67836e-07 0)
(-1.24756e-05 6.68886e-07 0)
(-1.29123e-05 6.64799e-07 0)
(-1.33479e-05 6.54814e-07 0)
(-1.37801e-05 6.388e-07 0)
(-1.42062e-05 6.16957e-07 0)
(-1.46236e-05 5.89789e-07 0)
(-1.50296e-05 5.58311e-07 0)
(-1.54213e-05 5.23811e-07 0)
(-1.57963e-05 4.87432e-07 0)
(-1.61525e-05 4.50102e-07 0)
(-1.64885e-05 4.12741e-07 0)
(-1.68042e-05 3.7626e-07 0)
(-1.71002e-05 3.41514e-07 0)
(-1.73787e-05 3.0939e-07 0)
(-1.7643e-05 2.81358e-07 0)
(-1.78974e-05 2.59178e-07 0)
(-1.81474e-05 2.44782e-07 0)
(-1.83986e-05 2.40177e-07 0)
(-1.86578e-05 2.47321e-07 0)
(-1.8932e-05 2.67613e-07 0)
(-1.9229e-05 3.01811e-07 0)
(-1.95566e-05 3.50165e-07 0)
(-1.99234e-05 4.12235e-07 0)
(-2.03377e-05 4.87033e-07 0)
(-2.08077e-05 5.72969e-07 0)
(-2.13403e-05 6.68295e-07 0)
(-2.19409e-05 7.70456e-07 0)
(-2.26132e-05 8.76182e-07 0)
(-2.33585e-05 9.81476e-07 0)
(-2.4178e-05 1.08193e-06 0)
(-2.50579e-05 1.17229e-06 0)
(-2.60646e-05 1.25231e-06 0)
(-2.66425e-05 1.27461e-06 0)
(-2.89531e-05 1.42484e-06 0)
(-2.73481e-05 1.10668e-06 0)
(-3.17995e-05 6.53569e-07 0)
(4.59286e-08 -1.39798e-07 0)
(5.94925e-08 8.93544e-08 0)
(-3.44013e-08 1.52685e-07 0)
(-9.02814e-08 1.56341e-07 0)
(-1.81063e-07 1.54792e-07 0)
(-2.52077e-07 1.5418e-07 0)
(-3.32498e-07 1.54736e-07 0)
(-4.10357e-07 1.5544e-07 0)
(-4.89727e-07 1.56382e-07 0)
(-5.70335e-07 1.57619e-07 0)
(-6.52456e-07 1.59336e-07 0)
(-7.35589e-07 1.62049e-07 0)
(-8.19761e-07 1.654e-07 0)
(-9.05048e-07 1.69193e-07 0)
(-9.91628e-07 1.73344e-07 0)
(-1.08006e-06 1.77418e-07 0)
(-1.17093e-06 1.81623e-07 0)
(-1.26459e-06 1.86054e-07 0)
(-1.36094e-06 1.90923e-07 0)
(-1.46016e-06 1.96569e-07 0)
(-1.56218e-06 2.02732e-07 0)
(-1.66665e-06 2.09391e-07 0)
(-1.7741e-06 2.1638e-07 0)
(-1.88491e-06 2.2325e-07 0)
(-1.99908e-06 2.29927e-07 0)
(-2.11746e-06 2.36519e-07 0)
(-2.24064e-06 2.4306e-07 0)
(-2.36853e-06 2.49717e-07 0)
(-2.50139e-06 2.57e-07 0)
(-2.63964e-06 2.65212e-07 0)
(-2.78317e-06 2.74451e-07 0)
(-2.93157e-06 2.84924e-07 0)
(-3.08518e-06 2.96461e-07 0)
(-3.24451e-06 3.08792e-07 0)
(-3.40952e-06 3.20984e-07 0)
(-3.58064e-06 3.33048e-07 0)
(-3.75866e-06 3.45054e-07 0)
(-3.94431e-06 3.58348e-07 0)
(-4.13818e-06 3.7362e-07 0)
(-4.33995e-06 3.90935e-07 0)
(-4.54888e-06 4.09024e-07 0)
(-4.76492e-06 4.27722e-07 0)
(-4.98898e-06 4.46748e-07 0)
(-5.22216e-06 4.66256e-07 0)
(-5.46491e-06 4.8758e-07 0)
(-5.71669e-06 5.10757e-07 0)
(-5.97687e-06 5.35517e-07 0)
(-6.24539e-06 5.6159e-07 0)
(-6.52234e-06 5.88097e-07 0)
(-6.80803e-06 6.14342e-07 0)
(-7.10305e-06 6.39806e-07 0)
(-7.40811e-06 6.64248e-07 0)
(-7.72383e-06 6.87683e-07 0)
(-8.05083e-06 7.10248e-07 0)
(-8.3894e-06 7.32091e-07 0)
(-8.73961e-06 7.53296e-07 0)
(-9.10153e-06 7.73787e-07 0)
(-9.47501e-06 7.93678e-07 0)
(-9.85947e-06 8.12933e-07 0)
(-1.02542e-05 8.31141e-07 0)
(-1.06583e-05 8.47849e-07 0)
(-1.10705e-05 8.62464e-07 0)
(-1.14892e-05 8.74016e-07 0)
(-1.19128e-05 8.8136e-07 0)
(-1.23396e-05 8.83529e-07 0)
(-1.27674e-05 8.7953e-07 0)
(-1.31942e-05 8.68492e-07 0)
(-1.36176e-05 8.50106e-07 0)
(-1.40351e-05 8.24526e-07 0)
(-1.4444e-05 7.92267e-07 0)
(-1.48414e-05 7.54331e-07 0)
(-1.52245e-05 7.12053e-07 0)
(-1.55905e-05 6.66729e-07 0)
(-1.59372e-05 6.19618e-07 0)
(-1.62632e-05 5.72127e-07 0)
(-1.65682e-05 5.25631e-07 0)
(-1.68531e-05 4.81499e-07 0)
(-1.71199e-05 4.41317e-07 0)
(-1.73719e-05 4.07126e-07 0)
(-1.76136e-05 3.81216e-07 0)
(-1.78503e-05 3.65943e-07 0)
(-1.80884e-05 3.63695e-07 0)
(-1.83344e-05 3.76758e-07 0)
(-1.85954e-05 4.06817e-07 0)
(-1.88793e-05 4.54835e-07 0)
(-1.91943e-05 5.21149e-07 0)
(-1.9549e-05 6.05317e-07 0)
(-1.99522e-05 7.06193e-07 0)
(-2.04121e-05 8.21981e-07 0)
(-2.09359e-05 9.50353e-07 0)
(-2.15295e-05 1.08804e-06 0)
(-2.21971e-05 1.23079e-06 0)
(-2.29406e-05 1.3733e-06 0)
(-2.37614e-05 1.50948e-06 0)
(-2.46452e-05 1.63233e-06 0)
(-2.56675e-05 1.73795e-06 0)
(-2.62317e-05 1.7877e-06 0)
(-2.86014e-05 1.90456e-06 0)
(-2.6977e-05 1.61613e-06 0)
(-3.14234e-05 8.87675e-07 0)
(4.24458e-08 -1.65502e-07 0)
(5.20635e-08 1.10918e-07 0)
(-3.8507e-08 1.8792e-07 0)
(-9.2971e-08 1.94209e-07 0)
(-1.8227e-07 1.93217e-07 0)
(-2.52619e-07 1.92799e-07 0)
(-3.32611e-07 1.93599e-07 0)
(-4.10251e-07 1.94626e-07 0)
(-4.89395e-07 1.96089e-07 0)
(-5.69777e-07 1.9788e-07 0)
(-6.51539e-07 2.0026e-07 0)
(-7.3429e-07 2.03577e-07 0)
(-8.18181e-07 2.07541e-07 0)
(-9.03198e-07 2.12055e-07 0)
(-9.89613e-07 2.17109e-07 0)
(-1.07791e-06 2.22166e-07 0)
(-1.16856e-06 2.27608e-07 0)
(-1.26199e-06 2.33355e-07 0)
(-1.35803e-06 2.39569e-07 0)
(-1.45693e-06 2.46629e-07 0)
(-1.5587e-06 2.54194e-07 0)
(-1.66291e-06 2.62305e-07 0)
(-1.77019e-06 2.70871e-07 0)
(-1.88092e-06 2.79413e-07 0)
(-1.99498e-06 2.87987e-07 0)
(-2.11322e-06 2.96794e-07 0)
(-2.23631e-06 3.05692e-07 0)
(-2.36404e-06 3.14898e-07 0)
(-2.49661e-06 3.24859e-07 0)
(-2.63462e-06 3.35708e-07 0)
(-2.77788e-06 3.4751e-07 0)
(-2.92597e-06 3.60428e-07 0)
(-3.07931e-06 3.74484e-07 0)
(-3.23857e-06 3.89662e-07 0)
(-3.40367e-06 4.05e-07 0)
(-3.57483e-06 4.20535e-07 0)
(-3.75267e-06 4.36271e-07 0)
(-3.93768e-06 4.53305e-07 0)
(-4.13074e-06 4.72202e-07 0)
(-4.33199e-06 4.93113e-07 0)
(-4.54049e-06 5.14898e-07 0)
(-4.75604e-06 5.37461e-07 0)
(-4.97957e-06 5.6075e-07 0)
(-5.21181e-06 5.84695e-07 0)
(-5.45306e-06 6.10513e-07 0)
(-5.70321e-06 6.37912e-07 0)
(-5.9619e-06 6.66928e-07 0)
(-6.22913e-06 6.97299e-07 0)
(-6.50488e-06 7.28143e-07 0)
(-6.78923e-06 7.58897e-07 0)
(-7.08272e-06 7.8918e-07 0)
(-7.3861e-06 8.18738e-07 0)
(-7.70005e-06 8.47589e-07 0)
(-8.02515e-06 8.75799e-07 0)
(-8.36173e-06 9.03351e-07 0)
(-8.70992e-06 9.30302e-07 0)
(-9.0698e-06 9.56569e-07 0)
(-9.44121e-06 9.82049e-07 0)
(-9.82369e-06 1.00659e-06 0)
(-1.02166e-05 1.02975e-06 0)
(-1.06191e-05 1.0509e-06 0)
(-1.103e-05 1.06927e-06 0)
(-1.14477e-05 1.08381e-06 0)
(-1.18708e-05 1.09331e-06 0)
(-1.22973e-05 1.09667e-06 0)
(-1.27252e-05 1.09277e-06 0)
(-1.31524e-05 1.08061e-06 0)
(-1.35763e-05 1.05975e-06 0)
(-1.39941e-05 1.0303e-06 0)
(-1.4403e-05 9.92776e-07 0)
(-1.48e-05 9.48129e-07 0)
(-1.5182e-05 8.97745e-07 0)
(-1.55463e-05 8.43111e-07 0)
(-1.58906e-05 7.8582e-07 0)
(-1.62133e-05 7.27742e-07 0)
(-1.65141e-05 6.70746e-07 0)
(-1.67939e-05 6.16741e-07 0)
(-1.70545e-05 5.67978e-07 0)
(-1.72994e-05 5.27074e-07 0)
(-1.75327e-05 4.96854e-07 0)
(-1.776e-05 4.80211e-07 0)
(-1.79875e-05 4.79979e-07 0)
(-1.8222e-05 4.9872e-07 0)
(-1.84711e-05 5.38363e-07 0)
(-1.87426e-05 6.00136e-07 0)
(-1.90453e-05 6.84466e-07 0)
(-1.93881e-05 7.90931e-07 0)
(-1.97803e-05 9.18266e-07 0)
(-2.02303e-05 1.06439e-06 0)
(-2.07459e-05 1.22653e-06 0)
(-2.13335e-05 1.40071e-06 0)
(-2.19978e-05 1.58178e-06 0)
(-2.27411e-05 1.76333e-06 0)
(-2.35654e-05 1.93779e-06 0)
(-2.44564e-05 2.09613e-06 0)
(-2.5496e-05 2.23048e-06 0)
(-2.60604e-05 2.30798e-06 0)
(-2.84832e-05 2.4015e-06 0)
(-2.68709e-05 2.1218e-06 0)
(-3.13179e-05 1.11799e-06 0)
(3.93157e-08 -1.88998e-07 0)
(4.64025e-08 1.32348e-07 0)
(-4.13398e-08 2.21884e-07 0)
(-9.46794e-08 2.31256e-07 0)
(-1.82821e-07 2.31016e-07 0)
(-2.52575e-07 2.31062e-07 0)
(-3.32167e-07 2.32196e-07 0)
(-4.09581e-07 2.33618e-07 0)
(-4.88488e-07 2.35596e-07 0)
(-5.68608e-07 2.3792e-07 0)
(-6.4997e-07 2.40956e-07 0)
(-7.32318e-07 2.44874e-07 0)
(-8.15888e-07 2.49466e-07 0)
(-9.0058e-07 2.54724e-07 0)
(-9.86792e-07 2.60668e-07 0)
(-1.07493e-06 2.66687e-07 0)
(-1.16533e-06 2.73337e-07 0)
(-1.25851e-06 2.80373e-07 0)
(-1.35423e-06 2.87907e-07 0)
(-1.4528e-06 2.96365e-07 0)
(-1.55427e-06 3.05325e-07 0)
(-1.65821e-06 3.14877e-07 0)
(-1.76535e-06 3.24979e-07 0)
(-1.87597e-06 3.35235e-07 0)
(-1.9899e-06 3.45765e-07 0)
(-2.10799e-06 3.56781e-07 0)
(-2.23092e-06 3.68057e-07 0)
(-2.3584e-06 3.79736e-07 0)
(-2.49059e-06 3.92329e-07 0)
(-2.6282e-06 4.05788e-07 0)
(-2.77104e-06 4.20099e-07 0)
(-2.9186e-06 4.35448e-07 0)
(-3.07137e-06 4.52006e-07 0)
(-3.23023e-06 4.70035e-07 0)
(-3.3952e-06 4.88612e-07 0)
(-3.56619e-06 5.07563e-07 0)
(-3.74363e-06 5.27027e-07 0)
(-3.92789e-06 5.47708e-07 0)
(-4.11996e-06 5.70201e-07 0)
(-4.32044e-06 5.94713e-07 0)
(-4.52839e-06 6.20238e-07 0)
(-4.74328e-06 6.46691e-07 0)
(-4.96586e-06 6.74226e-07 0)
(-5.19713e-06 7.02571e-07 0)
(-5.43739e-06 7.3281e-07 0)
(-5.68669e-06 7.64578e-07 0)
(-5.94484e-06 7.97961e-07 0)
(-6.21145e-06 8.32658e-07 0)
(-6.48655e-06 8.67898e-07 0)
(-6.77047e-06 9.03214e-07 0)
(-7.06376e-06 9.38371e-07 0)
(-7.36718e-06 9.73117e-07 0)
(-7.68122e-06 1.00738e-06 0)
(-8.00633e-06 1.04119e-06 0)
(-8.34288e-06 1.07447e-06 0)
(-8.69103e-06 1.10717e-06 0)
(-9.05079e-06 1.1392e-06 0)
(-9.42212e-06 1.17034e-06 0)
(-9.80473e-06 1.2003e-06 0)
(-1.01981e-05 1.22857e-06 0)
(-1.06013e-05 1.25436e-06 0)
(-1.10134e-05 1.27673e-06 0)
(-1.14331e-05 1.29455e-06 0)
(-1.18587e-05 1.30646e-06 0)
(-1.22883e-05 1.3112e-06 0)
(-1.27198e-05 1.30755e-06 0)
(-1.31507e-05 1.2944e-06 0)
(-1.35786e-05 1.27114e-06 0)
(-1.40005e-05 1.23778e-06 0)
(-1.4413e-05 1.19478e-06 0)
(-1.4813e-05 1.14314e-06 0)
(-1.51972e-05 1.08429e-06 0)
(-1.55628e-05 1.01994e-06 0)
(-1.59073e-05 9.51995e-07 0)
(-1.62294e-05 8.82739e-07 0)
(-1.65283e-05 8.14596e-07 0)
(-1.68049e-05 7.50101e-07 0)
(-1.7061e-05 6.92152e-07 0)
(-1.72999e-05 6.43942e-07 0)
(-1.7526e-05 6.0885e-07 0)
(-1.77446e-05 5.90309e-07 0)
(-1.79618e-05 5.91611e-07 0)
(-1.81849e-05 6.15629e-07 0)
(-1.84215e-05 6.6455e-07 0)
(-1.86803e-05 7.39835e-07 0)
(-1.89702e-05 8.42064e-07 0)
(-1.93006e-05 9.70905e-07 0)
(-1.96812e-05 1.12506e-06 0)
(-2.0121e-05 1.30219e-06 0)
(-2.06285e-05 1.49906e-06 0)
(-2.12104e-05 1.71113e-06 0)
(-2.18721e-05 1.93239e-06 0)
(-2.26167e-05 2.15531e-06 0)
(-2.3447e-05 2.3708e-06 0)
(-2.43488e-05 2.56756e-06 0)
(-2.54094e-05 2.73391e-06 0)
(-2.59863e-05 2.83984e-06 0)
(-2.84638e-05 2.92087e-06 0)
(-2.68804e-05 2.63389e-06 0)
(-3.13623e-05 1.35806e-06 0)
(3.71642e-08 -2.1101e-07 0)
(4.29316e-08 1.53306e-07 0)
(-4.30762e-08 2.54954e-07 0)
(-9.55737e-08 2.67685e-07 0)
(-1.82946e-07 2.68361e-07 0)
(-2.52198e-07 2.6914e-07 0)
(-3.31442e-07 2.70675e-07 0)
(-4.08614e-07 2.72536e-07 0)
(-4.87274e-07 2.74998e-07 0)
(-5.67103e-07 2.77829e-07 0)
(-6.48038e-07 2.81492e-07 0)
(-7.29967e-07 2.86016e-07 0)
(-8.13157e-07 2.9126e-07 0)
(-8.97465e-07 2.97289e-07 0)
(-9.83406e-07 3.04097e-07 0)
(-1.07128e-06 3.11101e-07 0)
(-1.16141e-06 3.18952e-07 0)
(-1.25434e-06 3.27236e-07 0)
(-1.34966e-06 3.36119e-07 0)
(-1.44789e-06 3.46026e-07 0)
(-1.54906e-06 3.56416e-07 0)
(-1.65266e-06 3.67535e-07 0)
(-1.75962e-06 3.79296e-07 0)
(-1.87008e-06 3.9131e-07 0)
(-1.98376e-06 4.03768e-07 0)
(-2.10169e-06 4.16862e-07 0)
(-2.22443e-06 4.30389e-07 0)
(-2.3516e-06 4.44432e-07 0)
(-2.48337e-06 4.59545e-07 0)
(-2.62056e-06 4.75635e-07 0)
(-2.76297e-06 4.92504e-07 0)
(-2.90998e-06 5.10341e-07 0)
(-3.06204e-06 5.29432e-07 0)
(-3.22031e-06 5.50287e-07 0)
(-3.38498e-06 5.72155e-07 0)
(-3.55571e-06 5.94471e-07 0)
(-3.73269e-06 6.17589e-07 0)
(-3.9162e-06 6.41869e-07 0)
(-4.10734e-06 6.67922e-07 0)
(-4.30704e-06 6.96013e-07 0)
(-4.51444e-06 7.25352e-07 0)
(-4.72891e-06 7.55721e-07 0)
(-4.9511e-06 7.87478e-07 0)
(-5.18181e-06 8.20277e-07 0)
(-5.42128e-06 8.54893e-07 0)
(-5.6697e-06 8.91154e-07 0)
(-5.927e-06 9.28899e-07 0)
(-6.19285e-06 9.67905e-07 0)
(-6.46742e-06 1.00767e-06 0)
(-6.75115e-06 1.04772e-06 0)
(-7.04451e-06 1.08789e-06 0)
(-7.34805e-06 1.1279e-06 0)
(-7.66223e-06 1.16759e-06 0)
(-7.9875e-06 1.20703e-06 0)
(-8.32424e-06 1.24607e-06 0)
(-8.67264e-06 1.28455e-06 0)
(-9.03274e-06 1.3224e-06 0)
(-9.40453e-06 1.35931e-06 0)
(-9.78782e-06 1.39486e-06 0)
(-1.01822e-05 1.42845e-06 0)
(-1.05869e-05 1.45913e-06 0)
(-1.10011e-05 1.48583e-06 0)
(-1.14235e-05 1.50727e-06 0)
(-1.18525e-05 1.52193e-06 0)
(-1.22862e-05 1.52832e-06 0)
(-1.27224e-05 1.52516e-06 0)
(-1.31585e-05 1.5112e-06 0)
(-1.35916e-05 1.48565e-06 0)
(-1.40186e-05 1.44835e-06 0)
(-1.4436e-05 1.39975e-06 0)
(-1.48402e-05 1.34083e-06 0)
(-1.52279e-05 1.27309e-06 0)
(-1.55959e-05 1.19849e-06 0)
(-1.59417e-05 1.1193e-06 0)
(-1.62637e-05 1.03818e-06 0)
(-1.65613e-05 9.58126e-07 0)
(-1.68349e-05 8.82361e-07 0)
(-1.70864e-05 8.14464e-07 0)
(-1.73188e-05 7.5825e-07 0)
(-1.75366e-05 7.17674e-07 0)
(-1.77451e-05 6.96662e-07 0)
(-1.79508e-05 6.98923e-07 0)
(-1.81609e-05 7.27696e-07 0)
(-1.83836e-05 7.85495e-07 0)
(-1.86278e-05 8.74012e-07 0)
(-1.8903e-05 9.94012e-07 0)
(-1.92192e-05 1.14532e-06 0)
(-1.95864e-05 1.32668e-06 0)
(-2.00144e-05 1.53562e-06 0)
(-2.0512e-05 1.76848e-06 0)
(-2.1087e-05 2.02015e-06 0)
(-2.17454e-05 2.28381e-06 0)
(-2.24912e-05 2.55069e-06 0)
(-2.33283e-05 2.80993e-06 0)
(-2.42435e-05 3.04807e-06 0)
(-2.53278e-05 3.25e-06 0)
(-2.5927e-05 3.38665e-06 0)
(-2.84619e-05 3.46614e-06 0)
(-2.69207e-05 3.16366e-06 0)
(-3.14667e-05 1.61574e-06 0)
(3.64501e-08 -2.32214e-07 0)
(4.2035e-08 1.74066e-07 0)
(-4.3597e-08 2.87824e-07 0)
(-9.56351e-08 3.03924e-07 0)
(-1.82618e-07 3.05483e-07 0)
(-2.51475e-07 3.07126e-07 0)
(-3.30476e-07 3.09081e-07 0)
(-4.07403e-07 3.11401e-07 0)
(-4.85806e-07 3.14302e-07 0)
(-5.653e-07 3.17642e-07 0)
(-6.45778e-07 3.21894e-07 0)
(-7.27263e-07 3.27026e-07 0)
(-8.1e-07 3.32941e-07 0)
(-8.9387e-07 3.3976e-07 0)
(-9.79521e-07 3.474e-07 0)
(-1.06704e-06 3.55403e-07 0)
(-1.15682e-06 3.64466e-07 0)
(-1.24949e-06 3.73922e-07 0)
(-1.34433e-06 3.84175e-07 0)
(-1.44215e-06 3.9558e-07 0)
(-1.54303e-06 4.07406e-07 0)
(-1.64621e-06 4.20166e-07 0)
(-1.75292e-06 4.33719e-07 0)
(-1.86325e-06 4.47495e-07 0)
(-1.97662e-06 4.61815e-07 0)
(-2.09428e-06 4.76938e-07 0)
(-2.21681e-06 4.92609e-07 0)
(-2.34357e-06 5.08936e-07 0)
(-2.47486e-06 5.26464e-07 0)
(-2.61164e-06 5.45191e-07 0)
(-2.75364e-06 5.64693e-07 0)
(-2.9001e-06 5.85141e-07 0)
(-3.05137e-06 6.0677e-07 0)
(-3.20886e-06 6.30399e-07 0)
(-3.37309e-06 6.55513e-07 0)
(-3.54346e-06 6.81206e-07 0)
(-3.71999e-06 7.07892e-07 0)
(-3.90284e-06 7.3578e-07 0)
(-4.09311e-06 7.6536e-07 0)
(-4.29203e-06 7.97078e-07 0)
(-4.49897e-06 8.30321e-07 0)
(-4.7131e-06 8.64665e-07 0)
(-4.93481e-06 9.00594e-07 0)
(-5.1648e-06 9.37769e-07 0)
(-5.40352e-06 9.76762e-07 0)
(-5.65112e-06 1.01746e-06 0)
(-5.90765e-06 1.05962e-06 0)
(-6.17307e-06 1.10305e-06 0)
(-6.44736e-06 1.14743e-06 0)
(-6.73087e-06 1.19231e-06 0)
(-7.02405e-06 1.23753e-06 0)
(-7.32739e-06 1.28283e-06 0)
(-7.64145e-06 1.328e-06 0)
(-7.96667e-06 1.37309e-06 0)
(-8.30343e-06 1.41794e-06 0)
(-8.65203e-06 1.46232e-06 0)
(-9.01255e-06 1.50606e-06 0)
(-9.38494e-06 1.54885e-06 0)
(-9.76906e-06 1.59018e-06 0)
(-1.01646e-05 1.62932e-06 0)
(-1.05711e-05 1.66518e-06 0)
(-1.09877e-05 1.69653e-06 0)
(-1.14131e-05 1.72192e-06 0)
(-1.18459e-05 1.73967e-06 0)
(-1.22843e-05 1.74812e-06 0)
(-1.27259e-05 1.74572e-06 0)
(-1.31678e-05 1.73111e-06 0)
(-1.3607e-05 1.70332e-06 0)
(-1.404e-05 1.66206e-06 0)
(-1.44631e-05 1.6077e-06 0)
(-1.48725e-05 1.54122e-06 0)
(-1.52645e-05 1.46415e-06 0)
(-1.56356e-05 1.3787e-06 0)
(-1.59833e-05 1.28755e-06 0)
(-1.63056e-05 1.19379e-06 0)
(-1.66018e-05 1.10097e-06 0)
(-1.68722e-05 1.01301e-06 0)
(-1.71184e-05 9.34191e-07 0)
(-1.73433e-05 8.69027e-07 0)
(-1.75515e-05 8.22092e-07 0)
(-1.77483e-05 7.9781e-07 0)
(-1.79406e-05 8.00305e-07 0)
(-1.81358e-05 8.33199e-07 0)
(-1.83424e-05 8.99395e-07 0)
(-1.85699e-05 1.0009e-06 0)
(-1.88282e-05 1.13867e-06 0)
(-1.91279e-05 1.31272e-06 0)
(-1.94794e-05 1.52185e-06 0)
(-1.98932e-05 1.76355e-06 0)
(-2.03791e-05 2.03383e-06 0)
(-2.09453e-05 2.32697e-06 0)
(-2.15992e-05 2.63529e-06 0)
(-2.23457e-05 2.94871e-06 0)
(-2.31902e-05 3.25466e-06 0)
(-2.41205e-05 3.53771e-06 0)
(-2.52309e-05 3.77981e-06 0)
(-2.58599e-05 3.95171e-06 0)
(-2.84564e-05 4.04102e-06 0)
(-2.69699e-05 3.7217e-06 0)
(-3.16075e-05 1.89585e-06 0)
(3.70972e-08 -2.53234e-07 0)
(4.34961e-08 1.9506e-07 0)
(-4.29782e-08 3.20918e-07 0)
(-9.49637e-08 3.40262e-07 0)
(-1.81898e-07 3.42587e-07 0)
(-2.50425e-07 3.45056e-07 0)
(-3.29289e-07 3.47435e-07 0)
(-4.05973e-07 3.50221e-07 0)
(-4.84097e-07 3.53518e-07 0)
(-5.63208e-07 3.57404e-07 0)
(-6.43202e-07 3.62209e-07 0)
(-7.24234e-07 3.67964e-07 0)
(-8.06474e-07 3.7456e-07 0)
(-8.89851e-07 3.82192e-07 0)
(-9.75191e-07 3.90666e-07 0)
(-1.06229e-06 3.99652e-07 0)
(-1.15165e-06 4.09941e-07 0)
(-1.24404e-06 4.20522e-07 0)
(-1.33836e-06 4.3213e-07 0)
(-1.43573e-06 4.45022e-07 0)
(-1.53627e-06 4.58255e-07 0)
(-1.63899e-06 4.72593e-07 0)
(-1.74538e-06 4.8794e-07 0)
(-1.85552e-06 5.03503e-07 0)
(-1.96853e-06 5.19677e-07 0)
(-2.08582e-06 5.36904e-07 0)
(-2.20809e-06 5.54721e-07 0)
(-2.33443e-06 5.73275e-07 0)
(-2.46513e-06 5.93123e-07 0)
(-2.60141e-06 6.14472e-07 0)
(-2.74298e-06 6.36622e-07 0)
(-2.88893e-06 6.59776e-07 0)
(-3.03938e-06 6.83967e-07 0)
(-3.19592e-06 7.10321e-07 0)
(-3.35955e-06 7.38554e-07 0)
(-3.52949e-06 7.67663e-07 0)
(-3.70543e-06 7.97863e-07 0)
(-3.88746e-06 8.29343e-07 0)
(-4.0767e-06 8.62452e-07 0)
(-4.2745e-06 8.97793e-07 0)
(-4.4803e-06 9.34934e-07 0)
(-4.69355e-06 9.73366e-07 0)
(-4.91468e-06 1.01346e-06 0)
(-5.14412e-06 1.05499e-06 0)
(-5.38216e-06 1.09833e-06 0)
(-5.62897e-06 1.1434e-06 0)
(-5.8848e-06 1.19006e-06 0)
(-6.14969e-06 1.23801e-06 0)
(-6.42363e-06 1.28704e-06 0)
(-6.70694e-06 1.33678e-06 0)
(-7.00002e-06 1.38704e-06 0)
(-7.30328e-06 1.43762e-06 0)
(-7.61729e-06 1.4883e-06 0)
(-7.94254e-06 1.53905e-06 0)
(-8.27944e-06 1.58976e-06 0)
(-8.62829e-06 1.64011e-06 0)
(-8.98926e-06 1.68984e-06 0)
(-9.36234e-06 1.73862e-06 0)
(-9.74751e-06 1.7859e-06 0)
(-1.01446e-05 1.83082e-06 0)
(-1.05532e-05 1.87217e-06 0)
(-1.09725e-05 1.90852e-06 0)
(-1.14015e-05 1.93823e-06 0)
(-1.18389e-05 1.9595e-06 0)
(-1.22827e-05 1.9704e-06 0)
(-1.27305e-05 1.96906e-06 0)
(-1.31791e-05 1.95393e-06 0)
(-1.36254e-05 1.92399e-06 0)
(-1.40656e-05 1.87871e-06 0)
(-1.44955e-05 1.81836e-06 0)
(-1.49109e-05 1.74392e-06 0)
(-1.53079e-05 1.65702e-06 0)
(-1.56829e-05 1.56007e-06 0)
(-1.60329e-05 1.45613e-06 0)
(-1.63557e-05 1.3488e-06 0)
(-1.66504e-05 1.24223e-06 0)
(-1.69171e-05 1.141e-06 0)
(-1.71571e-05 1.05011e-06 0)
(-1.73735e-05 9.74842e-07 0)
(-1.75707e-05 9.20432e-07 0)
(-1.77543e-05 8.91849e-07 0)
(-1.79312e-05 8.93696e-07 0)
(-1.81095e-05 9.2998e-07 0)
(-1.82979e-05 1.00402e-06 0)
(-1.85063e-05 1.11819e-06 0)
(-1.87453e-05 1.27374e-06 0)
(-1.90258e-05 1.47082e-06 0)
(-1.93591e-05 1.70837e-06 0)
(-1.97563e-05 1.98393e-06 0)
(-2.0228e-05 2.29322e-06 0)
(-2.07837e-05 2.62995e-06 0)
(-2.14317e-05 2.98545e-06 0)
(-2.21783e-05 3.34839e-06 0)
(-2.30304e-05 3.70476e-06 0)
(-2.39773e-05 4.03724e-06 0)
(-2.51164e-05 4.3253e-06 0)
(-2.57817e-05 4.53885e-06 0)
(-2.84455e-05 4.64988e-06 0)
(-2.70261e-05 4.31837e-06 0)
(-3.17842e-05 2.20543e-06 0)
(3.86938e-08 -2.74976e-07 0)
(4.66175e-08 2.16239e-07 0)
(-4.14451e-08 3.54265e-07 0)
(-9.36276e-08 3.76669e-07 0)
(-1.80826e-07 3.79646e-07 0)
(-2.49071e-07 3.82773e-07 0)
(-3.27867e-07 3.85531e-07 0)
(-4.04315e-07 3.88711e-07 0)
(-4.82139e-07 3.92287e-07 0)
(-5.60841e-07 3.96663e-07 0)
(-6.40346e-07 4.01914e-07 0)
(-7.20911e-07 4.08258e-07 0)