/*--------------------------------*- C++ -*----------------------------------*\
| =========                 |                                                 |
| \\      /  F ield         | OpenFOAM: The Open Source CFD Toolbox           |
|  \\    /   O peration     | Version:  2.4.0                                 |
|   \\  /    A nd           | Web:      www.OpenFOAM.org                      |
|    \\/     M anipulation  |                                                 |
\*---------------------------------------------------------------------------*/
FoamFile
{
    version     2.0;
    format      ascii;
    class       surfaceScalarField;
    location    "0.315";
    object      phi;
}
// * * * * * * * * * * * * * * * * * * * * * * * * * * * * * * * * * * * * * //

dimensions      [0 3 -1 0 0 0 0];

internalField   nonuniform List<scalar> 
119500
(
3.27568e-09
-3.27568e-09
6.83354e-09
-3.55786e-09
1.02543e-08
-3.42072e-09
1.36429e-08
-3.38866e-09
1.70302e-08
-3.38729e-09
2.04163e-08
-3.38607e-09
2.37988e-08
-3.38251e-09
2.71763e-08
-3.37751e-09
3.0547e-08
-3.37071e-09
3.39088e-08
-3.3618e-09
3.72591e-08
-3.35032e-09
4.05948e-08
-3.33565e-09
4.39121e-08
-3.3173e-09
4.72069e-08
-3.29487e-09
5.04749e-08
-3.26801e-09
5.37112e-08
-3.23629e-09
5.69106e-08
-3.19939e-09
6.00678e-08
-3.15718e-09
6.31774e-08
-3.10959e-09
6.6234e-08
-3.0566e-09
6.92318e-08
-2.99786e-09
7.21654e-08
-2.93354e-09
7.50291e-08
-2.8637e-09
7.78173e-08
-2.78823e-09
8.05244e-08
-2.7071e-09
8.31447e-08
-2.62026e-09
8.56724e-08
-2.52778e-09
8.8102e-08
-2.42954e-09
9.04274e-08
-2.32538e-09
9.26428e-08
-2.21543e-09
9.47423e-08
-2.09956e-09
9.672e-08
-1.97764e-09
9.85694e-08
-1.84942e-09
1.00284e-07
-1.71498e-09
1.01859e-07
-1.57481e-09
1.03289e-07
-1.42936e-09
1.04568e-07
-1.27897e-09
1.05692e-07
-1.12413e-09
1.06657e-07
-9.65546e-10
1.07461e-07
-8.03948e-10
1.08101e-07
-6.4016e-10
1.08576e-07
-4.74876e-10
1.08885e-07
-3.08667e-10
1.09025e-07
-1.40382e-10
1.08994e-07
3.13525e-11
1.08789e-07
2.05252e-10
1.08423e-07
3.65734e-10
1.07904e-07
5.18795e-10
1.0724e-07
6.6387e-10
1.06438e-07
8.01977e-10
1.05505e-07
9.32869e-10
1.04451e-07
1.0541e-09
1.03287e-07
1.1641e-09
1.02026e-07
1.2615e-09
1.00681e-07
1.34461e-09
9.92696e-08
1.41148e-09
9.78085e-08
1.46111e-09
9.63168e-08
1.49165e-09
9.48144e-08
1.50249e-09
9.33213e-08
1.49301e-09
9.18579e-08
1.46347e-09
9.04432e-08
1.41466e-09
8.90937e-08
1.34948e-09
8.7824e-08
1.26971e-09
8.66455e-08
1.17855e-09
8.55641e-08
1.08133e-09
8.45813e-08
9.8284e-10
8.36984e-08
8.82913e-10
8.29039e-08
7.94514e-10
8.2184e-08
7.19909e-10
8.15202e-08
6.63768e-10
8.08896e-08
6.30597e-10
8.02653e-08
6.24273e-10
7.96179e-08
6.47466e-10
7.89156e-08
7.023e-10
7.81259e-08
7.89685e-10
7.7216e-08
9.09895e-10
7.61532e-08
1.06278e-09
7.49114e-08
1.24181e-09
7.34628e-08
1.44864e-09
7.1784e-08
1.67876e-09
6.98569e-08
1.92709e-09
6.76686e-08
2.18832e-09
6.52128e-08
2.45578e-09
6.24889e-08
2.72389e-09
5.9502e-08
2.98689e-09
5.62628e-08
3.23922e-09
5.27867e-08
3.47611e-09
4.90928e-08
3.69391e-09
4.52024e-08
3.89036e-09
4.11378e-08
4.06461e-09
3.69207e-08
4.2171e-09
3.25716e-08
4.34918e-09
2.81087e-08
4.46288e-09
2.35481e-08
4.56062e-09
1.89026e-08
4.64547e-09
1.41829e-08
4.71974e-09
9.3934e-09
4.78945e-09
4.54338e-09
4.85002e-09
4.93167e-09
-3.88289e-10
4.55634e-09
-7.83202e-09
9.36171e-09
-8.36323e-09
1.38757e-08
-7.93475e-09
1.83308e-08
-7.84374e-09
2.27923e-08
-7.84873e-09
2.72668e-08
-7.86063e-09
3.17552e-08
-7.87094e-09
3.62583e-08
-7.88059e-09
4.07762e-08
-7.88857e-09
4.5308e-08
-7.89365e-09
4.98524e-08
-7.89469e-09
5.44068e-08
-7.89004e-09
5.89678e-08
-7.87825e-09
6.35312e-08
-7.85827e-09
6.80922e-08
-7.82904e-09
7.2645e-08
-7.78911e-09
7.71835e-08
-7.73787e-09
8.17007e-08
-7.67441e-09
8.61901e-08
-7.59895e-09
9.06438e-08
-7.51037e-09
9.50544e-08
-7.40842e-09
9.94141e-08
-7.29329e-09
1.03715e-07
-7.1648e-09
1.0795e-07
-7.02271e-09
1.1211e-07
-6.86689e-09
1.16186e-07
-6.69713e-09
1.20172e-07
-6.51371e-09
1.24059e-07
-6.31613e-09
1.27838e-07
-6.10427e-09
1.31501e-07
-5.87836e-09
1.35039e-07
-5.63802e-09
1.38445e-07
-5.38333e-09
1.41709e-07
-5.1135e-09
1.44823e-07
-4.82875e-09
1.47778e-07
-4.5301e-09
1.50567e-07
-4.21828e-09
1.53182e-07
-3.89449e-09
1.55618e-07
-3.56009e-09
1.5787e-07
-3.21687e-09
1.59933e-07
-2.86676e-09
1.61804e-07
-2.51196e-09
1.63484e-07
-2.15471e-09
1.64973e-07
-1.79716e-09
1.66274e-07
-1.44187e-09
1.67398e-07
-1.09201e-09
1.68351e-07
-7.48478e-10
1.69133e-07
-4.16335e-10
1.69745e-07
-9.3328e-11
1.70196e-07
2.13655e-10
1.70497e-07
5.01001e-10
1.70663e-07
7.66326e-10
1.70713e-07
1.0046e-09
1.70663e-07
1.21335e-09
1.70535e-07
1.38998e-09
1.70348e-07
1.5312e-09
1.70127e-07
1.63277e-09
1.69895e-07
1.69349e-09
1.69677e-07
1.70928e-09
1.695e-07
1.6797e-09
1.69389e-07
1.604e-09
1.69369e-07
1.48331e-09
1.69464e-07
1.31998e-09
1.69692e-07
1.12167e-09
1.70068e-07
8.92819e-10
1.70606e-07
6.41293e-10
1.71307e-07
3.79899e-10
1.7217e-07
1.20224e-10
1.73194e-07
-1.41086e-10
1.74358e-07
-3.70159e-10
1.75643e-07
-5.64233e-10
1.77018e-07
-7.12073e-10
1.78453e-07
-8.03608e-10
1.79907e-07
-8.30328e-10
1.8134e-07
-7.85524e-10
1.82707e-07
-6.64223e-10
1.8396e-07
-4.63371e-10
1.85051e-07
-1.81225e-10
1.85927e-07
1.87125e-10
1.8654e-07
6.28654e-10
1.86839e-07
1.14951e-09
1.86777e-07
1.74021e-09
1.86312e-07
2.39288e-09
1.85402e-07
3.09835e-09
1.84015e-07
3.8423e-09
1.82125e-07
4.61351e-09
1.79714e-07
5.39875e-09
1.76769e-07
6.18428e-09
1.73288e-07
6.95703e-09
1.69276e-07
7.70555e-09
1.64746e-07
8.42063e-09
1.59715e-07
9.09567e-09
1.54205e-07
9.72674e-09
1.48242e-07
1.03123e-08
1.41852e-07
1.0853e-08
1.35061e-07
1.13515e-08
1.27894e-07
1.18122e-08
1.20373e-07
1.2241e-08
1.12515e-07
1.26471e-08
1.04332e-07
1.3033e-08
1.34322e-08
9.58317e-08
4.3796e-09
-1.22116e-08
8.74063e-09
-1.27243e-08
1.27815e-08
-1.19756e-08
1.67751e-08
-1.18374e-08
2.07884e-08
-1.1862e-08
2.48314e-08
-1.19037e-08
2.89088e-08
-1.19483e-08
3.30239e-08
-1.19957e-08
3.71792e-08
-1.20438e-08
4.1376e-08
-1.20905e-08
4.56144e-08
-1.21331e-08
4.98931e-08
-1.21687e-08
5.42101e-08
-1.21953e-08
5.85615e-08
-1.22097e-08
6.29434e-08
-1.22109e-08
6.73502e-08
-1.21959e-08
7.17763e-08
-1.2164e-08
7.62151e-08
-1.21132e-08
8.06593e-08
-1.20431e-08
8.51019e-08
-1.1953e-08
8.95355e-08
-1.1842e-08
9.39523e-08
-1.17101e-08
9.83448e-08
-1.15572e-08
1.02705e-07
-1.1383e-08
1.07025e-07
-1.11867e-08
1.11297e-07
-1.09689e-08
1.15512e-07
-1.07291e-08
1.19663e-07
-1.04669e-08
1.23741e-07
-1.01823e-08
1.27738e-07
-9.87516e-09
1.31645e-07
-9.54587e-09
1.35455e-07
-9.19312e-09
1.39159e-07
-8.81684e-09
1.42747e-07
-8.41733e-09
1.46212e-07
-7.99523e-09
1.49546e-07
-7.55222e-09
1.52741e-07
-7.08967e-09
1.55791e-07
-6.61004e-09
1.5869e-07
-6.11604e-09
1.61434e-07
-5.61068e-09
1.6402e-07
-5.09739e-09
1.66445e-07
-4.57976e-09
1.68709e-07
-4.06128e-09
1.70813e-07
-3.54583e-09
1.72759e-07
-3.03789e-09
1.74551e-07
-2.54059e-09
1.76193e-07
-2.05833e-09
1.77694e-07
-1.59425e-09
1.79063e-07
-1.15513e-09
1.80308e-07
-7.44524e-10
1.81441e-07
-3.66294e-10
1.82473e-07
-2.71441e-11
1.83418e-07
2.67767e-10
1.84295e-07
5.13159e-10
1.85122e-07
7.04422e-10
1.85921e-07
8.33317e-10
1.86715e-07
8.99357e-10
1.87529e-07
8.9518e-10
1.88389e-07
8.19711e-10
1.89321e-07
6.7207e-10
1.90351e-07
4.53413e-10
1.91505e-07
1.66044e-10
1.92802e-07
-1.75269e-10
1.94264e-07
-5.69169e-10
1.95904e-07
-9.98628e-10
1.97731e-07
-1.44717e-09
1.99749e-07
-1.89757e-09
2.01945e-07
-2.33718e-09
2.04312e-07
-2.73762e-09
2.06832e-07
-3.08371e-09
2.09478e-07
-3.35847e-09
2.12221e-07
-3.54639e-09
2.15025e-07
-3.63426e-09
2.17851e-07
-3.6115e-09
2.20657e-07
-3.47028e-09
2.23399e-07
-3.20546e-09
2.26032e-07
-2.81423e-09
2.28515e-07
-2.29568e-09
2.30801e-07
-1.65705e-09
2.32848e-07
-8.97605e-10
2.34614e-07
-2.62521e-11
2.36052e-07
9.54971e-10
2.37116e-07
2.03465e-09
2.37767e-07
3.19137e-09
2.37967e-07
4.41327e-09
2.37682e-07
5.68331e-09
2.36883e-07
6.98356e-09
2.35544e-07
8.29602e-09
2.33646e-07
9.60349e-09
2.31176e-07
1.08905e-08
2.28128e-07
1.21442e-08
2.245e-07
1.33548e-08
2.20297e-07
1.45152e-08
2.15528e-07
1.56216e-08
2.10207e-07
1.66729e-08
2.04348e-07
1.76713e-08
1.97968e-07
1.86211e-08
1.91085e-07
1.953e-08
1.83715e-07
2.0403e-08
2.12557e-08
1.75891e-07
4.07946e-09
-1.62911e-08
7.92772e-09
-1.65725e-08
1.1462e-08
-1.55099e-08
1.49661e-08
-1.53414e-08
1.85011e-08
-1.53971e-08
2.20787e-08
-1.54813e-08
2.57056e-08
-1.55752e-08
2.93872e-08
-1.56773e-08
3.31269e-08
-1.57835e-08
3.69275e-08
-1.58911e-08
4.07897e-08
-1.59953e-08
4.47125e-08
-1.60915e-08
4.86953e-08
-1.6178e-08
5.27334e-08
-1.62478e-08
5.68229e-08
-1.63005e-08
6.0959e-08
-1.6332e-08
6.51354e-08
-1.63404e-08
6.93452e-08
-1.6323e-08
7.35818e-08
-1.62797e-08
7.7838e-08
-1.62092e-08
8.21063e-08
-1.61102e-08
8.63793e-08
-1.59832e-08
9.06495e-08
-1.58274e-08
9.49092e-08
-1.56427e-08
9.91511e-08
-1.54286e-08
1.03367e-07
-1.51849e-08
1.0755e-07
-1.49115e-08
1.1169e-07
-1.46079e-08
1.15783e-07
-1.42744e-08
1.19817e-07
-1.39097e-08
1.23785e-07
-1.35142e-08
1.2768e-07
-1.30875e-08
1.31491e-07
-1.26285e-08
1.35212e-07
-1.2138e-08
1.38834e-07
-1.16169e-08
1.42348e-07
-1.10664e-08
1.45747e-07
-1.0489e-08
1.49025e-07
-9.88807e-09
1.52176e-07
-9.26683e-09
1.55195e-07
-8.62936e-09
1.58078e-07
-7.98016e-09
1.60822e-07
-7.32391e-09
1.63426e-07
-6.66523e-09
1.65889e-07
-6.009e-09
1.68211e-07
-5.36043e-09
1.70395e-07
-4.72426e-09
1.72442e-07
-4.10575e-09
1.74358e-07
-3.5103e-09
1.76148e-07
-2.94489e-09
1.77819e-07
-2.41546e-09
1.79381e-07
-1.92839e-09
1.80845e-07
-1.49133e-09
1.82225e-07
-1.11171e-09
1.83535e-07
-7.9675e-10
1.84793e-07
-5.53744e-10
1.86018e-07
-3.91318e-10
1.87232e-07
-3.14884e-10
1.88459e-07
-3.31755e-10
1.89724e-07
-4.45799e-10
1.91055e-07
-6.58853e-10
1.92479e-07
-9.6991e-10
1.94019e-07
-1.37432e-09
1.95703e-07
-1.85952e-09
1.9755e-07
-2.41566e-09
1.99575e-07
-3.02378e-09
2.0179e-07
-3.66238e-09
2.04201e-07
-4.30808e-09
2.06801e-07
-4.93787e-09
2.09585e-07
-5.52154e-09
2.12536e-07
-6.03473e-09
2.15632e-07
-6.4541e-09
2.18844e-07
-6.75851e-09
2.2214e-07
-6.93003e-09
2.25483e-07
-6.95437e-09
2.28833e-07
-6.82098e-09
2.32151e-07
-6.52299e-09
2.35393e-07
-6.05694e-09
2.3852e-07
-5.42267e-09
2.41489e-07
-4.62519e-09
2.44259e-07
-3.66837e-09
2.46795e-07
-2.56235e-09
2.49067e-07
-1.3161e-09
2.5104e-07
6.07122e-11
2.52684e-07
1.54795e-09
2.53965e-07
3.13251e-09
2.54854e-07
4.79412e-09
2.55324e-07
6.51332e-09
2.5535e-07
8.2705e-09
2.54907e-07
1.00463e-08
2.53975e-07
1.18227e-08
2.52535e-07
1.35838e-08
2.50574e-07
1.53162e-08
2.4808e-07
1.70091e-08
2.45047e-07
1.86546e-08
2.41472e-07
2.02477e-08
2.37357e-07
2.17863e-08
2.32707e-07
2.3271e-08
2.27533e-07
2.47043e-08
2.21847e-07
2.60883e-08
2.742e-08
2.15683e-07
3.9054e-09
-2.01965e-08
7.4635e-09
-2.01306e-08
1.07123e-08
-1.87587e-08
1.39423e-08
-1.85714e-08
1.72111e-08
-1.86658e-08
2.05302e-08
-1.88004e-08
2.39073e-08
-1.89524e-08
2.73479e-08
-1.91179e-08
3.08582e-08
-1.92938e-08
3.44396e-08
-1.94724e-08
3.80931e-08
-1.96489e-08
4.18197e-08
-1.98181e-08
4.56157e-08
-1.9974e-08
4.94796e-08
-2.01118e-08
5.34057e-08
-2.02266e-08
5.73888e-08
-2.0315e-08
6.14226e-08
-2.03743e-08
6.55008e-08
-2.04011e-08
6.96159e-08
-2.03949e-08
7.37609e-08
-2.03542e-08
7.79285e-08
-2.02778e-08
8.21114e-08
-2.01661e-08
8.63021e-08
-2.00181e-08
9.04932e-08
-1.98338e-08
9.46773e-08
-1.96127e-08
9.8847e-08
-1.93546e-08
1.02995e-07
-1.90592e-08
1.07113e-07
-1.87257e-08
1.11192e-07
-1.8354e-08
1.15226e-07
-1.79433e-08
1.19205e-07
-1.74932e-08
1.2312e-07
-1.70031e-08
1.26964e-07
-1.64724e-08
1.30728e-07
-1.59019e-08
1.34403e-07
-1.52918e-08
1.37981e-07
-1.46444e-08
1.41455e-07
-1.39626e-08
1.44817e-07
-1.32504e-08
1.48062e-07
-1.25118e-08
1.51185e-07
-1.17519e-08
1.54181e-07
-1.09763e-08
1.57047e-07
-1.01905e-08
1.59782e-07
-9.40026e-09
1.62384e-07
-8.61116e-09
1.64853e-07
-7.82925e-09
1.67189e-07
-7.06031e-09
1.69394e-07
-6.31065e-09
1.71471e-07
-5.58718e-09
1.73424e-07
-4.89779e-09
1.75259e-07
-4.25039e-09
1.76984e-07
-3.65344e-09
1.78609e-07
-3.11613e-09
1.80145e-07
-2.64801e-09
1.81607e-07
-2.25872e-09
1.83011e-07
-1.95806e-09
1.84376e-07
-1.75638e-09
1.85724e-07
-1.66265e-09
1.87078e-07
-1.68566e-09
1.88464e-07
-1.83177e-09
1.89909e-07
-2.10416e-09
1.91442e-07
-2.50219e-09
1.93087e-07
-3.02014e-09
1.94873e-07
-3.64549e-09
1.96821e-07
-4.36312e-09
1.98948e-07
-5.15061e-09
2.01267e-07
-5.98118e-09
2.03783e-07
-6.82494e-09
2.06496e-07
-7.65042e-09
2.09397e-07
-8.42241e-09
2.12471e-07
-9.10867e-09
2.15696e-07
-9.67913e-09
2.19044e-07
-1.01069e-08
2.22483e-07
-1.03692e-08
2.25977e-07
-1.04481e-08
2.29486e-07
-1.03303e-08
2.32971e-07
-1.00076e-08
2.3639e-07
-9.47597e-09
2.39703e-07
-8.73556e-09
2.42869e-07
-7.79118e-09
2.4585e-07
-6.64938e-09
2.48609e-07
-5.32093e-09
2.5111e-07
-3.81796e-09
2.53327e-07
-2.15587e-09
2.5523e-07
-3.54851e-10
2.56794e-07
1.56796e-09
2.57997e-07
3.59148e-09
2.58817e-07
5.69342e-09
2.59235e-07
7.85231e-09
2.59234e-07
1.00469e-08
2.588e-07
1.22576e-08
2.57917e-07
1.44668e-08
2.56574e-07
1.66593e-08
2.5476e-07
1.88225e-08
2.52468e-07
2.09465e-08
2.49692e-07
2.30237e-08
2.46429e-07
2.50491e-08
2.42681e-07
2.70197e-08
2.38452e-07
2.89334e-08
2.33752e-07
3.07877e-08
3.25695e-08
2.28603e-07
3.82637e-09
-2.40228e-08
7.25152e-09
-2.35558e-08
1.03687e-08
-2.18759e-08
1.34719e-08
-2.16746e-08
1.66186e-08
-2.18125e-08
1.98199e-08
-2.20017e-08
2.30838e-08
-2.22162e-08
2.64166e-08
-2.24507e-08
2.98231e-08
-2.27003e-08
3.33067e-08
-2.2956e-08
3.68688e-08
-2.3211e-08
4.05089e-08
-2.34581e-08
4.42252e-08
-2.36904e-08
4.80142e-08
-2.39007e-08
5.18714e-08
-2.40838e-08
5.5791e-08
-2.42347e-08
5.97668e-08
-2.43501e-08
6.37916e-08
-2.44259e-08
6.78589e-08
-2.44622e-08
7.19609e-08
-2.44562e-08
7.60906e-08
-2.44076e-08
8.02406e-08
-2.43161e-08
8.44037e-08
-2.41812e-08
8.85726e-08
-2.40026e-08
9.27397e-08
-2.37798e-08
9.6898e-08
-2.35129e-08
1.0104e-07
-2.32007e-08
1.05157e-07
-2.2843e-08
1.09242e-07
-2.24388e-08
1.13285e-07
-2.19869e-08
1.17279e-07
-2.14872e-08
1.21214e-07
-2.09382e-08
1.25082e-07
-2.03404e-08
1.28874e-07
-1.96935e-08
1.3258e-07
-1.89982e-08
1.36193e-07
-1.82572e-08
1.39705e-07
-1.74744e-08
1.43108e-07
-1.66537e-08
1.46397e-07
-1.58005e-08
1.49566e-07
-1.49208e-08
1.52611e-07
-1.40213e-08
1.55529e-07
-1.31084e-08
1.58317e-07
-1.21886e-08
1.60975e-07
-1.12686e-08
1.635e-07
-1.03548e-08
1.65894e-07
-9.45408e-09
1.68157e-07
-8.57371e-09
1.70292e-07
-7.72185e-09
1.72302e-07
-6.90758e-09
1.74192e-07
-6.14056e-09
1.7597e-07
-5.43116e-09
1.77644e-07
-4.79044e-09
1.79226e-07
-4.23008e-09
1.80729e-07
-3.76212e-09
1.8217e-07
-3.39889e-09
1.83567e-07
-3.15314e-09
1.84941e-07
-3.03693e-09
1.86317e-07
-3.06149e-09
1.87721e-07
-3.23562e-09
1.89181e-07
-3.56425e-09
1.90726e-07
-4.04737e-09
1.92385e-07
-4.67872e-09
1.94184e-07
-5.4448e-09
1.96147e-07
-6.32645e-09
1.98294e-07
-7.2971e-09
2.00637e-07
-8.32436e-09
2.03184e-07
-9.37157e-09
2.05933e-07
-1.03993e-08
2.08876e-07
-1.13657e-08
2.11998e-07
-1.22309e-08
2.15277e-07
-1.29578e-08
2.18683e-07
-1.35135e-08
2.22185e-07
-1.38703e-08
2.25743e-07
-1.40065e-08
2.29319e-07
-1.39064e-08
2.32871e-07
-1.35601e-08
2.36359e-07
-1.29631e-08
2.39739e-07
-1.21162e-08
2.42973e-07
-1.10245e-08
2.4602e-07
-9.69662e-09
2.48844e-07
-8.14488e-09
2.5141e-07
-6.3842e-09
2.53687e-07
-4.43278e-09
2.55644e-07
-2.31236e-09
2.57257e-07
-4.48237e-11
2.58503e-07
2.34608e-09
2.59361e-07
4.83498e-09
2.59815e-07
7.39809e-09
2.59851e-07
1.0011e-08
2.59457e-07
1.26517e-08
2.58624e-07
1.53002e-08
2.57343e-07
1.79395e-08
2.55611e-07
2.05551e-08
2.53422e-07
2.31352e-08
2.50775e-07
2.56708e-08
2.4767e-07
2.81545e-08
2.44109e-07
3.05807e-08
2.40098e-07
3.2944e-08
2.35647e-07
3.52384e-08
3.74463e-08
2.3077e-07
3.79173e-09
-2.78146e-08
7.1574e-09
-2.69215e-08
1.0215e-08
-2.49334e-08
1.3261e-08
-2.47206e-08
1.63531e-08
-2.49047e-08
1.95026e-08
-2.51512e-08
2.27173e-08
-2.54309e-08
2.60038e-08
-2.57372e-08
2.93673e-08
-2.60638e-08
3.28113e-08
-2.64e-08
3.63373e-08
-2.67371e-08
3.99451e-08
-2.70659e-08
4.36325e-08
-2.73777e-08
4.73963e-08
-2.76645e-08
5.12315e-08
-2.79189e-08
5.51322e-08
-2.81354e-08
5.90914e-08
-2.83092e-08
6.3104e-08
-2.84385e-08
6.71607e-08
-2.8519e-08
7.12549e-08
-2.85504e-08
7.5379e-08
-2.85316e-08
7.95262e-08
-2.84633e-08
8.36889e-08
-2.83439e-08
8.78593e-08
-2.81731e-08
9.20319e-08
-2.79524e-08
9.61978e-08
-2.76787e-08
1.0035e-07
-2.73526e-08
1.0448e-07
-2.69729e-08
1.08579e-07
-2.65385e-08
1.12641e-07
-2.60483e-08
1.16654e-07
-2.55005e-08
1.20611e-07
-2.48954e-08
1.24502e-07
-2.42313e-08
1.28317e-07
-2.35089e-08
1.32049e-07
-2.27298e-08
1.35687e-07
-2.18957e-08
1.39224e-07
-2.10114e-08
1.42653e-07
-2.00823e-08
1.45967e-07
-1.91142e-08
1.4916e-07
-1.81143e-08
1.52229e-07
-1.70904e-08
1.55171e-07
-1.60497e-08
1.57982e-07
-1.49998e-08
1.60661e-07
-1.39479e-08
1.63208e-07
-1.29013e-08
1.65621e-07
-1.18675e-08
1.67902e-07
-1.08548e-08
1.70053e-07
-9.87247e-09
1.72076e-07
-8.93091e-09
1.73977e-07
-8.04143e-09
1.75762e-07
-7.21629e-09
1.7744e-07
-6.46859e-09
1.79022e-07
-5.81215e-09
1.80521e-07
-5.26142e-09
1.81954e-07
-4.83132e-09
1.83338e-07
-4.53729e-09
1.84696e-07
-4.39454e-09
1.86051e-07
-4.41723e-09
1.87433e-07
-4.6169e-09
1.88869e-07
-5.00051e-09
1.90391e-07
-5.56901e-09
1.92028e-07
-6.31587e-09
1.93809e-07
-7.22622e-09
1.9576e-07
-8.2773e-09
1.97901e-07
-9.43798e-09
2.00246e-07
-1.067e-08
2.02804e-07
-1.19294e-08
2.05574e-07
-1.31687e-08
2.08547e-07
-1.43386e-08
2.11707e-07
-1.53912e-08
2.15031e-07
-1.6282e-08
2.18489e-07
-1.69718e-08
2.22047e-07
-1.74279e-08
2.25665e-07
-1.76248e-08
2.29303e-07
-1.75442e-08
2.32918e-07
-1.71748e-08
2.36466e-07
-1.65119e-08
2.39907e-07
-1.55565e-08
2.43197e-07
-1.43148e-08
2.46297e-07
-1.27971e-08
2.4917e-07
-1.10178e-08
2.5178e-07
-8.9942e-09
2.54095e-07
-6.74726e-09
2.56083e-07
-4.30081e-09
2.57719e-07
-1.68021e-09
2.58977e-07
1.08755e-09
2.59838e-07
3.97407e-09
2.60284e-07
6.95214e-09
2.603e-07
9.99459e-09
2.59876e-07
1.30762e-08
2.59002e-07
1.61743e-08
2.57672e-07
1.92693e-08
2.55883e-07
2.23445e-08
2.53632e-07
2.53862e-08
2.50919e-07
2.83832e-08
2.47747e-07
3.13263e-08
2.44121e-07
3.42074e-08
2.40046e-07
3.70186e-08
2.35534e-07
3.9751e-08
4.23841e-08
2.30596e-07
3.77314e-09
-3.15877e-08
7.10644e-09
-3.02548e-08
1.01321e-08
-2.79591e-08
1.31475e-08
-2.77361e-08
1.62117e-08
-2.79689e-08
1.93354e-08
-2.82749e-08
2.25262e-08
-2.86217e-08
2.5792e-08
-2.9003e-08
2.91372e-08
-2.9409e-08
3.25658e-08
-2.98286e-08
3.60797e-08
-3.0251e-08
3.9678e-08
-3.06642e-08
4.33595e-08
-3.10592e-08
4.71195e-08
-3.14246e-08
5.09534e-08
-3.17529e-08
5.4855e-08
-3.2037e-08
5.88178e-08
-3.2272e-08
6.28342e-08
-3.24549e-08
6.68966e-08
-3.25814e-08
7.09984e-08
-3.26521e-08
7.51309e-08
-3.26642e-08
7.92873e-08
-3.26196e-08
8.34606e-08
-3.25173e-08
8.76439e-08
-3.23563e-08
9.1829e-08
-3.21375e-08
9.6009e-08
-3.18587e-08
1.00176e-07
-3.15199e-08
1.04323e-07
-3.11197e-08
1.08441e-07
-3.06564e-08
1.12521e-07
-3.01284e-08
1.16555e-07
-2.95344e-08
1.20532e-07
-2.88729e-08
1.24444e-07
-2.81433e-08
1.28281e-07
-2.73458e-08
1.32033e-07
-2.64817e-08
1.35692e-07
-2.55542e-08
1.39248e-07
-2.45678e-08
1.42694e-07
-2.35286e-08
1.46024e-07
-2.24439e-08
1.49232e-07
-2.13222e-08
1.52314e-07
-2.01721e-08
1.55266e-07
-1.90021e-08
1.58087e-07
-1.78202e-08
1.60773e-07
-1.66347e-08
1.63325e-07
-1.54533e-08
1.65742e-07
-1.42844e-08
1.68025e-07
-1.3137e-08
1.70174e-07
-1.20215e-08
1.72192e-07
-1.09496e-08
1.74085e-07
-9.93431e-09
1.75859e-07
-8.98981e-09
1.77521e-07
-8.13128e-09
1.79084e-07
-7.37476e-09
1.8056e-07
-6.73707e-09
1.81964e-07
-6.2358e-09
1.83316e-07
-5.8893e-09
1.84638e-07
-5.71609e-09
1.85954e-07
-5.73371e-09
1.87294e-07
-5.95682e-09
1.88688e-07
-6.39485e-09
1.90169e-07
-7.05002e-09
1.91769e-07
-7.91575e-09
1.93519e-07
-8.97564e-09
1.95445e-07
-1.02035e-08
1.9757e-07
-1.15634e-08
1.99911e-07
-1.30106e-08
2.02475e-07
-1.44937e-08
2.05263e-07
-1.59567e-08
2.08266e-07
-1.73417e-08
2.11468e-07
-1.85924e-08
2.14842e-07
-1.96566e-08
2.18359e-07
-2.04886e-08
2.21981e-07
-2.10502e-08
2.25669e-07
-2.13122e-08
2.29378e-07
-2.12537e-08
2.33066e-07
-2.08623e-08
2.36687e-07
-2.01329e-08
2.40198e-07
-1.90673e-08
2.43556e-07
-1.76727e-08
2.4672e-07
-1.59614e-08
2.49652e-07
-1.39496e-08
2.52315e-07
-1.16575e-08
2.54676e-07
-9.10847e-09
2.56704e-07
-6.32905e-09
2.58372e-07
-3.34784e-09
2.59655e-07
-1.95056e-10
2.60531e-07
3.09796e-09
2.60983e-07
6.49984e-09
2.60997e-07
9.98101e-09
2.6056e-07
1.35128e-08
2.59664e-07
1.70699e-08
2.58304e-07
2.063e-08
2.56474e-07
2.41744e-08
2.54173e-07
2.7687e-08
2.51402e-07
3.11547e-08
2.48161e-07
3.45664e-08
2.44457e-07
3.79119e-08
2.40295e-07
4.11808e-08
2.35683e-07
4.43622e-08
4.74321e-08
2.30636e-07
3.75874e-09
-3.53464e-08
7.06687e-09
-3.35629e-08
1.00691e-08
-3.09613e-08
1.30634e-08
-3.07304e-08
1.61078e-08
-3.10133e-08
1.92144e-08
-3.13815e-08
2.23908e-08
-3.1798e-08
2.56443e-08
-3.22565e-08
2.89806e-08
-3.27453e-08
3.24034e-08
-3.32514e-08
3.59144e-08
-3.3762e-08
3.95131e-08
-3.42629e-08
4.31966e-08
-3.47427e-08
4.69623e-08
-3.51903e-08
5.08043e-08
-3.55949e-08
5.47159e-08
-3.59485e-08
5.86896e-08
-3.62458e-08
6.27178e-08
-3.64831e-08
6.67933e-08
-3.66569e-08
7.09073e-08
-3.67662e-08
7.50545e-08
-3.68114e-08
7.92257e-08
-3.67909e-08
8.34137e-08
-3.67053e-08
8.76118e-08
-3.65544e-08
9.18124e-08
-3.63382e-08
9.60093e-08
-3.60556e-08
1.00194e-07
-3.57047e-08
1.04359e-07
-3.52842e-08
1.08495e-07
-3.47927e-08
1.12594e-07
-3.42279e-08
1.16648e-07
-3.35876e-08
1.20645e-07
-3.28706e-08
1.24577e-07
-3.20754e-08
1.28434e-07
-3.12022e-08
1.32205e-07
-3.02531e-08
1.35881e-07
-2.92304e-08
1.39454e-07
-2.81402e-08
1.42914e-07
-2.69893e-08
1.46257e-07
-2.57861e-08
1.49475e-07
-2.45403e-08
1.52565e-07
-2.32619e-08
1.55523e-07
-2.19603e-08
1.58347e-07
-2.06445e-08
1.61036e-07
-1.93232e-08
1.63587e-07
-1.8005e-08
1.66001e-07
-1.66985e-08
1.68278e-07
-1.54138e-08
1.70419e-07
-1.41621e-08
1.72426e-07
-1.29564e-08
1.74303e-07
-1.18116e-08
1.76057e-07
-1.07438e-08
1.77696e-07
-9.7703e-09
1.79231e-07
-8.90934e-09
1.80674e-07
-8.18015e-09
1.82041e-07
-7.60301e-09
1.83351e-07
-7.19934e-09
1.84626e-07
-6.99127e-09
1.85893e-07
-7.0002e-09
1.8718e-07
-7.24444e-09
1.88522e-07
-7.73634e-09
1.89951e-07
-8.4798e-09
1.91504e-07
-9.46841e-09
1.93213e-07
-1.06843e-08
1.95107e-07
-1.20978e-08
1.97211e-07
-1.36679e-08
1.99544e-07
-1.5343e-08
2.02114e-07
-1.70635e-08
2.04921e-07
-1.87643e-08
2.07958e-07
-2.03783e-08
2.11206e-07
-2.18401e-08
2.14638e-07
-2.30892e-08
2.18222e-07
-2.40728e-08
2.2192e-07
-2.47473e-08
2.25687e-07
-2.50795e-08
2.2948e-07
-2.50463e-08
2.33251e-07
-2.46341e-08
2.36956e-07
-2.38379e-08
2.40549e-07
-2.26601e-08
2.43986e-07
-2.11096e-08
2.47225e-07
-1.92004e-08
2.50227e-07
-1.69511e-08
2.52954e-07
-1.43844e-08
2.55372e-07
-1.15264e-08
2.57449e-07
-8.40669e-09
2.59158e-07
-5.05707e-09
2.60475e-07
-1.5112e-09
2.61376e-07
2.19654e-09
2.61846e-07
6.03009e-09
2.61869e-07
9.95768e-09
2.61435e-07
1.3947e-08
2.60535e-07
1.79698e-08
2.59163e-07
2.20016e-08
2.57316e-07
2.60214e-08
2.54992e-07
3.00112e-08
2.52191e-07
3.39561e-08
2.48914e-07
3.78432e-08
2.45165e-07
4.16606e-08
2.4095e-07
4.53962e-08
2.36275e-07
4.90371e-08
5.25555e-08
2.31152e-07
3.74409e-09
-3.90905e-08
7.02668e-09
-3.68455e-08
1.00061e-08
-3.39407e-08
1.29812e-08
-3.37055e-08
1.60078e-08
-3.40399e-08
1.90992e-08
-3.44728e-08
2.22631e-08
-3.49619e-08
2.55072e-08
-3.55006e-08
2.88374e-08
-3.60755e-08
3.22576e-08
-3.66716e-08
3.57695e-08
-3.72739e-08
3.93723e-08
-3.78657e-08
4.30636e-08
-3.84341e-08
4.68388e-08
-3.89655e-08
5.06924e-08
-3.94485e-08
5.4617e-08
-3.98731e-08
5.86052e-08
-4.0234e-08
6.2649e-08
-4.05269e-08
6.67403e-08
-4.07482e-08
7.08714e-08
-4.08973e-08
7.50341e-08
-4.09741e-08
7.92215e-08
-4.09782e-08
8.34264e-08
-4.09102e-08
8.76417e-08
-4.07698e-08
9.18602e-08
-4.05566e-08
9.60742e-08
-4.02696e-08
1.00277e-07
-3.99071e-08
1.04461e-07
-3.94681e-08
1.08616e-07
-3.89485e-08
1.12736e-07
-3.83472e-08
1.16809e-07
-3.76613e-08
1.20828e-07
-3.68888e-08
1.2478e-07
-3.6028e-08
1.28657e-07
-3.50791e-08
1.32447e-07
-3.40433e-08
1.36142e-07
-3.29248e-08
1.39731e-07
-3.17289e-08
1.43205e-07
-3.04639e-08
1.46559e-07
-2.91398e-08
1.49786e-07
-2.77676e-08
1.52883e-07
-2.63585e-08
1.55845e-07
-2.4923e-08
1.58672e-07
-2.3471e-08
1.61361e-07
-2.20118e-08
1.6391e-07
-2.05544e-08
1.66319e-07
-1.91079e-08
1.68588e-07
-1.76829e-08
1.70718e-07
-1.62916e-08
1.7271e-07
-1.49486e-08
1.74569e-07
-1.36702e-08
1.76299e-07
-1.24747e-08
1.77911e-07
-1.13815e-08
1.79413e-07
-1.04112e-08
1.80818e-07
-9.58545e-09
1.82142e-07
-8.92707e-09
1.83403e-07
-8.46078e-09
1.84625e-07
-8.21264e-09
1.85833e-07
-8.20849e-09
1.8706e-07
-8.47093e-09
1.88339e-07
-9.01584e-09
1.89708e-07
-9.84926e-09
1.91205e-07
-1.09652e-08
1.92865e-07
-1.23444e-08
1.94721e-07
-1.39538e-08
1.968e-07
-1.57467e-08
1.99122e-07
-1.76644e-08
2.01697e-07
-1.96384e-08
2.04526e-07
-2.15937e-08
2.07601e-07
-2.3453e-08
2.10901e-07
-2.51409e-08
2.144e-07
-2.6588e-08
2.18061e-07
-2.7734e-08
2.21844e-07
-2.85298e-08
2.25702e-07
-2.89381e-08
2.2959e-07
-2.89337e-08
2.33458e-07
-2.8502e-08
2.37258e-07
-2.76384e-08
2.40944e-07
-2.63463e-08
2.44471e-07
-2.46363e-08
2.47795e-07
-2.25245e-08
2.50876e-07
-2.0032e-08
2.53675e-07
-1.7184e-08
2.56159e-07
-1.40096e-08
2.58294e-07
-1.05416e-08
2.60052e-07
-6.81504e-09
2.61408e-07
-2.86747e-09
2.6234e-07
1.26386e-09
2.62833e-07
5.53731e-09
2.62872e-07
9.91917e-09
2.62446e-07
1.4373e-08
2.61548e-07
1.8868e-08
2.60172e-07
2.3377e-08
2.58317e-07
2.7877e-08
2.5598e-07
3.23484e-08
2.53161e-07
3.67745e-08
2.49863e-07
4.11411e-08
2.46089e-07
4.54351e-08
2.41842e-07
4.96429e-08
2.37129e-07
5.37505e-08
5.77265e-08
2.31958e-07
3.72754e-09
-4.28181e-08
6.98126e-09
-4.00992e-08
9.93755e-09
-3.6897e-08
1.28912e-08
-3.66592e-08
1.58995e-08
-3.70482e-08
1.89745e-08
-3.75477e-08
2.21254e-08
-3.81129e-08
2.53601e-08
-3.87353e-08
2.86847e-08
-3.94001e-08
3.21031e-08
-4.009e-08
3.56169e-08
-4.07877e-08
3.92255e-08
-4.14742e-08
4.29259e-08
-4.21345e-08
4.6713e-08
-4.27526e-08
5.05807e-08
-4.33162e-08
5.45209e-08
-4.38133e-08
5.85264e-08
-4.42396e-08
6.2588e-08
-4.45884e-08
6.66972e-08
-4.48574e-08
7.08462e-08
-4.50463e-08
7.50275e-08
-4.51554e-08
7.92335e-08
-4.51842e-08
8.34566e-08
-4.51333e-08
8.76901e-08
-4.50033e-08
9.19271e-08
-4.47936e-08
9.61606e-08
-4.45031e-08
1.00383e-07
-4.41297e-08
1.04586e-07
-4.36714e-08
1.08763e-07
-4.31254e-08
1.12904e-07
-4.24881e-08
1.17e-07
-4.17571e-08
1.2104e-07
-4.09292e-08
1.25016e-07
-4.00033e-08
1.28914e-07
-3.89778e-08
1.32726e-07
-3.78551e-08
1.3644e-07
-3.66385e-08
1.40046e-07
-3.5335e-08
1.43536e-07
-3.39537e-08
1.46902e-07
-3.25059e-08
1.50139e-07
-3.10045e-08
1.53242e-07
-2.9462e-08
1.56209e-07
-2.789e-08
1.59038e-07
-2.62995e-08
1.61726e-07
-2.47002e-08
1.64273e-07
-2.31011e-08
1.66677e-07
-2.15119e-08
1.68938e-07
-1.99436e-08
1.71055e-07
-1.84092e-08
1.73031e-07
-1.69247e-08
1.74869e-07
-1.55081e-08
1.76575e-07
-1.418e-08
1.78155e-07
-1.2962e-08
1.79621e-07
-1.1877e-08
1.80984e-07
-1.09489e-08
1.8226e-07
-1.02031e-08
1.83467e-07
-9.66775e-09
1.84628e-07
-9.3733e-09
1.8577e-07
-9.35066e-09
1.86927e-07
-9.62757e-09
1.88135e-07
-1.02241e-08
1.89435e-07
-1.11491e-08
1.90867e-07
-1.23973e-08
1.92471e-07
-1.3948e-08
1.94282e-07
-1.57648e-08
1.9633e-07
-1.77951e-08
1.98638e-07
-1.99723e-08
2.01218e-07
-2.22182e-08
2.04071e-07
-2.44471e-08
2.07188e-07
-2.65703e-08
2.10549e-07
-2.85015e-08
2.14123e-07
-3.01616e-08
2.17871e-07
-3.14824e-08
2.2175e-07
-3.24088e-08
2.25712e-07
-3.28997e-08
2.29706e-07
-3.29277e-08
2.33682e-07
-3.24779e-08
2.37589e-07
-3.1546e-08
2.4138e-07
-3.01371e-08
2.45008e-07
-2.82636e-08
2.48427e-07
-2.5944e-08
2.51597e-07
-2.32018e-08
2.54478e-07
-2.00652e-08
2.57035e-07
-1.65662e-08
2.59234e-07
-1.27409e-08
2.61047e-07
-8.62811e-09
2.62449e-07
-4.26904e-09
2.63418e-07
2.94535e-10
2.63937e-07
5.018e-09
2.63994e-07
9.86243e-09
2.63579e-07
1.47885e-08
2.62684e-07
1.97622e-08
2.61307e-07
2.47541e-08
2.59445e-07
2.97393e-08
2.57097e-07
3.46964e-08
2.54264e-07
3.96074e-08
2.50948e-07
4.44567e-08
2.47153e-07
4.92306e-08
2.42881e-07
5.39147e-08
2.38137e-07
5.84944e-08
6.29354e-08
2.32928e-07
3.70839e-09
-4.65265e-08
6.92934e-09
-4.33201e-08
9.85902e-09
-3.98267e-08
1.27895e-08
-3.95898e-08
1.57769e-08
-4.00356e-08
1.88336e-08
-4.06044e-08
2.19699e-08
-4.12492e-08
2.51946e-08
-4.196e-08
2.8513e-08
-4.27185e-08
3.19296e-08
-4.35066e-08
3.54455e-08
-4.43036e-08
3.90612e-08
-4.50899e-08
4.2772e-08
-4.58453e-08
4.65728e-08
-4.65533e-08
5.04566e-08
-4.72e-08
5.4415e-08
-4.77717e-08
5.84394e-08
-4.8264e-08
6.25202e-08
-4.86692e-08
6.665e-08
-4.89872e-08
7.08194e-08
-4.92157e-08
7.50204e-08
-4.93564e-08
7.92456e-08
-4.94095e-08
8.34888e-08
-4.93764e-08
8.77429e-08
-4.92575e-08
9.20005e-08
-4.90512e-08
9.62545e-08
-4.87571e-08
1.00498e-07
-4.83737e-08
1.04724e-07
-4.78974e-08
1.08924e-07
-4.73247e-08
1.13088e-07
-4.66528e-08
1.17208e-07
-4.58771e-08
1.21274e-07
-4.49948e-08
1.25274e-07
-4.40031e-08
1.29197e-07
-4.29011e-08
1.33032e-07
-4.169e-08
1.36767e-07
-4.0374e-08
1.40393e-07
-3.89606e-08
1.43899e-07
-3.74601e-08
1.47279e-07
-3.58857e-08
1.50527e-07
-3.42519e-08
1.53638e-07
-3.25729e-08
1.56609e-07
-3.08619e-08
1.5944e-07
-2.91304e-08
1.62129e-07
-2.73885e-08
1.64673e-07
-2.56454e-08
1.67072e-07
-2.39108e-08
1.69324e-07
-2.21958e-08
1.71429e-07
-2.05144e-08
1.73388e-07
-1.88837e-08
1.75204e-07
-1.7324e-08
1.76882e-07
-1.58577e-08
1.78429e-07
-1.45092e-08
1.79855e-07
-1.33035e-08
1.81173e-07
-1.22665e-08
1.82396e-07
-1.14264e-08
1.83543e-07
-1.08145e-08
1.84636e-07
-1.04663e-08
1.85704e-07
-1.04186e-08
1.86782e-07
-1.07052e-08
1.87909e-07
-1.13515e-08
1.89129e-07
-1.23694e-08
1.90487e-07
-1.37549e-08
1.92025e-07
-1.54863e-08
1.93784e-07
-1.75234e-08
1.95796e-07
-1.98075e-08
1.98087e-07
-2.22635e-08
2.00672e-07
-2.48026e-08
2.03552e-07
-2.73269e-08
2.06717e-07
-2.97353e-08
2.10145e-07
-3.19295e-08
2.13803e-07
-3.38197e-08
2.17649e-07
-3.53291e-08
2.21637e-07
-3.63965e-08
2.25714e-07
-3.69769e-08
2.29828e-07
-3.70412e-08
2.33924e-07
-3.65743e-08
2.37951e-07
-3.55731e-08
2.41858e-07
-3.40443e-08
2.45597e-07
-3.20027e-08
2.49123e-07
-2.94693e-08
2.52391e-07
-2.64704e-08
2.55363e-07
-2.3037e-08
2.58001e-07
-1.92044e-08
2.60272e-07
-1.5012e-08
2.62147e-07
-1.05026e-08
2.63599e-07