/*--------------------------------*- C++ -*----------------------------------*\
| =========                 |                                                 |
| \\      /  F ield         | OpenFOAM: The Open Source CFD Toolbox           |
|  \\    /   O peration     | Version:  2.4.0                                 |
|   \\  /    A nd           | Web:      www.OpenFOAM.org                      |
|    \\/     M anipulation  |                                                 |
\*---------------------------------------------------------------------------*/
FoamFile
{
    version     2.0;
    format      ascii;
    class       volScalarField;
    location    "0.104";
    object      p_rgh;
}
// * * * * * * * * * * * * * * * * * * * * * * * * * * * * * * * * * * * * * //

dimensions      [1 -1 -2 0 0 0 0];

internalField   nonuniform List<scalar> 
10000
(
0.0238689
0.0238675
0.0238644
0.023861
0.0238588
0.0238586
0.0238606
0.0238649
0.0238713
0.0238798
0.0238901
0.0239019
0.0239152
0.0239295
0.0239447
0.0239606
0.023977
0.0239935
0.02401
0.0240262
0.0240418
0.0240567
0.0240706
0.0240832
0.0240945
0.0241042
0.0241123
0.0241186
0.0241232
0.0241261
0.0241274
0.0241273
0.0241262
0.0241246
0.0241229
0.0241217
0.0241218
0.024124
0.024129
0.0241376
0.0241509
0.0241697
0.0241948
0.0242272
0.0242678
0.0243173
0.0243764
0.0244456
0.0245256
0.0246165
0.0238691
0.0238677
0.0238657
0.0238637
0.0238627
0.0238634
0.023866
0.0238706
0.0238771
0.0238854
0.0238953
0.0239066
0.0239192
0.0239328
0.0239471
0.0239621
0.0239773
0.0239928
0.0240081
0.0240231
0.0240375
0.0240512
0.0240639
0.0240755
0.0240858
0.0240946
0.024102
0.0241078
0.024112
0.0241147
0.0241161
0.0241164
0.024116
0.0241152
0.0241145
0.0241146
0.0241162
0.02412
0.0241268
0.0241374
0.0241528
0.0241737
0.024201
0.0242357
0.0242785
0.0243301
0.0243913
0.0244625
0.0245441
0.0246365
0.0238688
0.0238664
0.0238643
0.023863
0.0238627
0.023864
0.0238671
0.0238719
0.0238784
0.0238865
0.0238961
0.0239071
0.0239191
0.023932
0.0239456
0.0239597
0.0239741
0.0239887
0.0240031
0.0240172
0.0240307
0.0240436
0.0240555
0.0240663
0.0240759
0.0240842
0.0240911
0.0240965
0.0241005
0.0241032
0.0241047
0.0241052
0.0241051
0.0241048
0.0241048
0.0241057
0.0241082
0.0241131
0.0241211
0.0241331
0.0241499
0.0241725
0.0242015
0.024238
0.0242827
0.0243363
0.0243993
0.0244724
0.0245558
0.0246499
0.0238658
0.0238619
0.0238592
0.0238578
0.0238578
0.0238593
0.0238625
0.0238674
0.0238739
0.0238819
0.0238912
0.0239018
0.0239134
0.0239259
0.023939
0.0239527
0.0239666
0.0239807
0.0239946
0.0240083
0.0240215
0.024034
0.0240457
0.0240563
0.0240658
0.024074
0.0240808
0.0240861
0.0240901
0.0240927
0.0240941
0.0240946
0.0240944
0.0240941
0.0240941
0.0240951
0.0240978
0.0241029
0.0241112
0.0241237
0.0241411
0.0241643
0.0241943
0.0242318
0.0242777
0.0243326
0.0243972
0.0244718
0.0245569
0.0246527
0.0238585
0.0238534
0.0238497
0.023848
0.0238479
0.0238495
0.0238527
0.0238576
0.023864
0.0238718
0.023881
0.0238914
0.0239028
0.023915
0.0239279
0.0239413
0.0239551
0.0239691
0.023983
0.0239968
0.0240101
0.0240228
0.0240348
0.0240457
0.0240554
0.0240638
0.0240708
0.0240763
0.0240802
0.0240826
0.0240837
0.0240837
0.024083
0.0240821
0.0240814
0.0240817
0.0240837
0.0240882
0.024096
0.024108
0.0241252
0.0241483
0.0241784
0.0242162
0.0242627
0.0243184
0.024384
0.0244599
0.0245465
0.024644
0.0238461
0.02384
0.0238356
0.0238335
0.0238332
0.0238346
0.0238378
0.0238426
0.0238489
0.0238567
0.0238658
0.0238761
0.0238874
0.0238996
0.0239125
0.0239261
0.0239401
0.0239544
0.0239688
0.0239831
0.0239971
0.0240105
0.0240232
0.0240348
0.0240451
0.024054
0.0240613
0.0240668
0.0240705
0.0240725
0.0240729
0.024072
0.0240701
0.0240678
0.0240657
0.0240645
0.024065
0.024068
0.0240744
0.0240851
0.0241011
0.0241233
0.0241526
0.02419
0.0242362
0.0242921
0.0243582
0.024435
0.0245228
0.0246218
0.0238283
0.0238214
0.0238164
0.0238138
0.0238133
0.0238146
0.0238176
0.0238223
0.0238287
0.0238364
0.0238456
0.0238559
0.0238674
0.0238799
0.0238932
0.0239073
0.023922
0.0239371
0.0239524
0.0239678
0.023983
0.0239976
0.0240113
0.024024
0.0240352
0.0240447
0.0240522
0.0240577
0.0240609
0.024062
0.0240612
0.0240586
0.0240548
0.0240504
0.024046
0.0240425
0.0240406
0.0240412
0.0240453
0.0240538
0.0240677
0.0240879
0.0241156
0.0241517
0.0241969
0.0242522
0.0243181
0.0243952
0.0244838
0.0245842
0.0238048
0.0237973
0.0237918
0.0237888
0.0237881
0.0237892
0.0237922
0.0237969
0.0238032
0.0238111
0.0238205
0.0238312
0.0238431
0.0238561
0.0238702
0.0238853
0.0239011
0.0239176
0.0239345
0.0239514
0.0239682
0.0239845
0.0239998
0.0240138
0.024026
0.0240361
0.0240438
0.0240488
0.0240511
0.0240508
0.024048
0.024043
0.0240365
0.0240291
0.0240216
0.0240148
0.0240097
0.0240071
0.024008
0.0240133
0.0240242
0.0240416
0.0240667
0.0241004
0.0241437
0.0241975
0.0242624
0.0243392
0.0244281
0.0245295
0.0237755
0.0237675
0.0237615
0.0237583
0.0237573
0.0237584
0.0237613
0.0237661
0.0237726
0.0237808
0.0237906
0.0238019
0.0238145
0.0238286
0.0238439
0.0238605
0.023878
0.0238964
0.0239153
0.0239345
0.0239535
0.0239718
0.023989
0.0240045
0.0240177
0.0240283
0.0240358
0.02404
0.0240409
0.0240384
0.0240329
0.0240247
0.0240145
0.0240033
0.0239919
0.0239812
0.0239721
0.0239654
0.0239623
0.0239635
0.0239704
0.0239839
0.0240052
0.0240355
0.0240758
0.0241272
0.0241903
0.024266
0.0243548
0.0244569
0.0237402
0.0237318
0.0237256
0.0237221
0.023721
0.0237219
0.023725
0.0237299
0.0237368
0.0237455
0.023756
0.0237681
0.023782
0.0237975
0.0238146
0.0238332
0.023853
0.0238739
0.0238955
0.0239174
0.023939
0.0239598
0.0239791
0.0239961
0.0240103
0.0240211
0.0240281
0.024031
0.0240297
0.0240246
0.0240156
0.0240033
0.0239888
0.023973
0.023957
0.0239417
0.0239279
0.0239165
0.0239085
0.0239048
0.0239065
0.0239149
0.0239313
0.0239569
0.023993
0.0240407
0.0241011
0.024175
0.0242631
0.0243658
0.023699
0.0236902
0.0236836
0.02368
0.0236788
0.0236798
0.023683
0.0236883
0.0236958
0.0237052
0.0237167
0.0237302
0.0237456
0.0237631
0.0237825
0.0238037
0.0238264
0.0238504
0.0238753
0.0239004
0.0239252
0.0239487
0.0239702
0.0239889
0.0240039
0.0240146
0.0240205
0.0240215
0.0240177
0.0240092
0.0239962
0.023979
0.0239593
0.0239385
0.0239174
0.0238969
0.0238779
0.0238612
0.0238475
0.0238377
0.0238331
0.023835
0.0238449
0.0238642
0.0238947
0.0239375
0.0239941
0.0240655
0.0241524
0.0242555
0.0236516
0.0236425
0.0236356
0.0236318
0.0236306
0.0236318
0.0236354
0.0236412
0.0236494
0.0236599
0.0236727
0.0236879
0.0237055
0.0237255
0.0237477
0.0237722
0.0237984
0.0238262
0.0238549
0.0238837
0.0239119
0.0239384
0.0239624
0.0239826
0.0239982
0.0240085
0.0240131
0.0240117
0.0240048
0.0239927
0.0239753
0.0239522
0.0239267
0.0239004
0.0238738
0.0238477
0.0238232
0.0238006
0.0237803
0.0237632
0.0237506
0.0237441
0.0237456
0.0237569
0.0237799
0.0238164
0.0238679
0.0239357
0.024021
0.0241244
0.023598
0.0235885
0.0235814
0.0235775
0.0235764
0.0235778
0.0235819
0.0235885
0.0235977
0.0236096
0.0236242
0.0236415
0.0236617
0.0236847
0.0237105
0.0237387
0.0237691
0.0238012
0.0238341
0.0238671
0.0238991
0.0239289
0.0239553
0.0239772
0.0239934
0.0240031
0.0240059
0.0240017
0.0239912
0.0239759
0.0239542
0.0239239
0.0238916
0.0238595
0.0238272
0.0237951
0.0237648
0.0237359
0.0237078
0.0236817
0.0236591
0.0236421
0.0236328
0.0236337
0.0236471
0.0236752
0.0237201
0.0237834
0.0238664
0.0239699
0.0235379
0.023528
0.0235207
0.0235168
0.0235158
0.0235177
0.0235224
0.02353
0.0235406
0.0235542
0.023571
0.023591
0.0236143
0.0236409
0.0236706
0.0237033
0.0237384
0.0237752
0.0238128
0.0238503
0.0238864
0.0239198
0.023949
0.0239727
0.0239895
0.0239987
0.0239995
0.023992
0.0239784
0.0239612
0.0239365
0.0238962
0.0238557
0.0238174
0.0237786
0.0237397
0.0237033
0.0236677
0.0236307
0.0235937
0.0235586
0.0235282
0.0235053
0.0234928
0.0234939
0.0235114
0.0235478
0.0236051
0.023685
0.0237884
0.0234711
0.0234608
0.0234533
0.0234495
0.0234488
0.0234513
0.0234569
0.0234657
0.0234779
0.0234936
0.023513
0.0235361
0.023563
0.0235937
0.023628
0.0236656
0.0237057
0.0237477
0.0237905
0.0238329
0.0238735
0.0239109
0.0239433
0.0239694
0.0239874
0.0239961
0.0239948
0.023984
0.0239691
0.0239531
0.0239284
0.023872
0.0238215
0.0237756
0.0237311
0.0236832
0.0236393
0.0235968
0.0235497
0.0234995
0.0234491
0.023402
0.0233619
0.0233328
0.0233184
0.0233223
0.0233478
0.0233973
0.0234728
0.0235755
0.0233975
0.0233868
0.0233791
0.0233754
0.0233752
0.0233784
0.0233851
0.0233954
0.0234096
0.0234278
0.0234501
0.0234767
0.0235078
0.023543
0.0235823
0.0236251
0.0236707
0.0237183
0.0237665
0.0238142
0.0238599
0.0239019
0.0239385
0.0239678
0.0239879
0.023997
0.0239936
0.0239799
0.0239665
0.0239573
0.0239357
0.0238538
0.0237887
0.0237379
0.0236838
0.0236229
0.0235716
0.0235254
0.0234664
0.0234
0.0233309
0.0232635
0.0232024
0.0231525
0.0231188
0.0231056
0.0231171
0.0231564
0.0232258
0.0233266
0.0233167
0.0233057
0.0232979
0.0232943
0.0232947
0.0232988
0.0233068
0.0233189
0.0233354
0.0233564
0.0233821
0.0234127
0.0234481
0.0234883
0.0235329
0.0235813
0.0236327
0.023686
0.02374
0.0237935
0.0238449
0.0238926
0.0239347
0.0239691
0.0239932
0.024004
0.0239982
0.0239798
0.0239679
0.0239859
0.0239884
0.0238452
0.0237311
0.0237341
0.0236378
0.0235604
0.023507
0.02346
0.0233851
0.0232976
0.0232056
0.0231137
0.0230271
0.0229519
0.0228941
0.0228594
0.0228529
0.0228786
0.0229394
0.0230369
0.0232286
0.0232172
0.0232093
0.0232061
0.0232071
0.0232123
0.0232219
0.023236
0.023255
0.0232792
0.0233086
0.0233434
0.0233837
0.0234291
0.0234792
0.0235333
0.0235906
0.0236499
0.0237101
0.02377
0.0238281
0.0238829
0.0239326
0.023975
0.0240067
0.0240215
0.0240107
0.023981
0.0239613
0.0239854
0.0243023
0.0246789
0.0256025
0.024583
0.0238427
0.0235195
0.0234724
0.0234082
0.0233111
0.0231973
0.0230768
0.0229545
0.0228369
0.0227306
0.022643
0.022581
0.0225513
0.022559
0.0226077
0.0226995
0.0231327
0.023121
0.0231132
0.0231104
0.0231122
0.0231187
0.02313
0.0231465
0.0231683
0.0231958
0.0232292
0.0232685
0.0233138
0.0233645
0.0234203
0.0234803
0.0235436
0.0236092
0.0236759
0.0237427
0.0238085
0.0238723
0.023933
0.0239885
0.0240338
0.0240569
0.0240352
0.0239832
0.0238716
0.0247066
0.0278532
0.027682
0.027443
0.0279516
0.027698
0.0236919
0.0235153
0.023383
0.0232545
0.0231052
0.0229483
0.0227882
0.0226318
0.0224868
0.0223617
0.0222651
0.0222055
0.0221894
0.0222217
0.0223048
0.0230289
0.023017
0.0230092
0.023007
0.0230098
0.0230177
0.023031
0.0230499
0.0230748
0.0231059
0.0231435
0.0231875
0.0232378
0.023294
0.0233555
0.0234214
0.0234907
0.0235626
0.0236361
0.0237104
0.0237852
0.0238606
0.0239369
0.0240139
0.0240852
0.0241253
0.0240847
0.0240421
0.0239186
0.0274668
0.0283825
0.0273021
0.0270311
0.0268893
0.024665
0.0237393
0.0235521
0.0233723
0.0232105
0.0230194
0.0228199
0.0226144
0.0224104
0.0222166
0.0220436
0.0219028
0.0218047
0.0217579
0.0217684
0.0218395
0.0229169
0.0229048
0.0228972
0.0228956
0.0228996
0.0229091
0.0229245
0.022946
0.0229741
0.023009
0.0230508
0.0230996
0.023155
0.0232167
0.0232838
0.0233556
0.0234311
0.0235093
0.0235897
0.0236719
0.0237568
0.023846
0.0239422
0.0240519
0.0241838
0.0242538
0.0241575
0.0239903
0.0238506
0.0238198
0.0242027
0.0252528
0.0252376
0.0248636
0.0242031
0.0237897
0.0236002
0.0233941
0.0231755
0.0229387
0.0226891
0.0224302
0.0221683
0.0219134
0.0216792
0.0214812
0.0213338
0.0212478
0.0212304
0.0212858
0.0227962
0.0227841
0.0227769
0.0227761
0.0227813
0.0227925
0.0228101
0.0228344
0.0228658
0.0229045
0.0229506
0.0230041
0.0230647
0.0231318
0.0232046
0.0232822
0.0233638
0.0234485
0.0235357
0.023626
0.0237211
0.0238243
0.0239401
0.0240971
0.024339
0.024798
0.0261683
0.0273352
0.0237683
0.0244417
0.0245739
0.0248156
0.0248741
0.0246573
0.0242812
0.0239473
0.0237168
0.0234058
0.0231375
0.0228521
0.0225487
0.0222292
0.0218985
0.0215679
0.0212559
0.0209841
0.0207733
0.0206378
0.0205861
0.0206224
0.0226668
0.0226548
0.022648
0.0226481
0.0226546
0.0226677
0.0226876
0.0227147
0.0227494
0.0227919
0.0228423
0.0229005
0.0229662
0.0230386
0.0231171
0.0232007
0.0232885
0.0233796
0.0234738
0.0235713
0.0236733
0.0237834
0.0239022
0.0240503
0.0245656
0.0263288
0.0269252
0.0271199
0.024637
0.0246974
0.024703
0.0247848
0.024776
0.0246027
0.024314
0.0240199
0.0237207
0.0234144
0.0230951
0.0227562
0.0223946
0.0220062
0.0215939
0.0211694
0.0207578
0.0203906
0.0200983
0.0199011
0.0198083
0.0198234
0.0225281
0.0225164
0.0225102
0.0225113
0.0225193
0.0225342
0.0225565
0.0225864
0.0226243
0.0226706
0.0227252
0.0227881
0.0228587
0.0229365
0.0230208
0.0231106
0.023205
0.0233032
0.0234049
0.0235095
0.0236148
0.0237182
0.0238147
0.0239232
0.0250845
0.0271604
0.0268544
0.0256313
0.0247056
0.024796
0.0248065
0.0248375
0.024893
0.0246082
0.0243705
0.0240817
0.0237612
0.0234137
0.0230431
0.0226478
0.0222223
0.021757
0.0212479
0.0207047
0.020163
0.0196709
0.0192748
0.0190024
0.0188629
0.0188571
0.0223801
0.0223688
0.0223634
0.0223656
0.0223751
0.0223919
0.0224164
0.022449
0.0224902
0.0225401
0.0225988
0.0226661
0.0227417
0.0228249
0.0229151
0.0230115
0.0231134
0.0232203
0.023332
0.023447
0.0235617
0.0236715
0.0237644
0.023802
0.0253076
0.0273933
0.0257804
0.0251776
0.0249751
0.0249401
0.0249585
0.0249543
0.0249867
0.0247008
0.0244605
0.0241577
0.0238011
0.0234044
0.0229768
0.0225205
0.0220272
0.0214767
0.0208525
0.0201558
0.0194399
0.018781
0.0182543
0.017895
0.017707
0.0176849
0.0222225
0.0222118
0.0222072
0.0222106
0.0222216
0.0222403
0.022267
0.0223023
0.0223465
0.0223998
0.0224624
0.022534
0.0226144
0.0227031
0.0227995
0.022903
0.0230135
0.0231312
0.0232561
0.0233871
0.0235212
0.0236542
0.023778
0.0238859
0.0239298
0.0243024
0.0245863
0.0249751
0.0250338
0.0250797
0.0251103
0.0250963
0.0250168
0.0248472
0.0245913
0.0242571
0.0238497
0.0233869
0.0228876
0.0223601
0.0217943
0.0211514
0.02039
0.0194887
0.018536
0.0176555
0.0169697
0.0165206
0.0162912
0.0162623
0.0220549
0.022045
0.0220415
0.0220462
0.0220587
0.0220792
0.022108
0.0221457
0.0221927
0.0222492
0.0223154
0.0223911
0.0224762
0.0225702
0.0226728
0.0227839
0.0229039
0.0230338
0.0231743
0.0233256
0.0234867
0.0236544
0.0238261
0.0240049
0.0242787
0.0248034
0.0249869
0.0250148
0.0251087
0.0252876
0.0253085
0.0253142
0.0252357
0.0250553
0.0247749
0.0243981
0.023917
0.0233586
0.0227604
0.0221418
0.0214971
0.0207562
0.0198428
0.0186674
0.0173774
0.0161927
0.0153286
0.0148105
0.0145634
0.0145429
0.0218773
0.0218684
0.0218661
0.0218721
0.0218861
0.0219083
0.021939
0.0219789
0.0220284
0.0220879
0.0221574
0.0222369
0.0223262
0.0224253
0.0225339
0.0226525
0.0227821
0.0229243
0.0230803
0.0232513
0.0234379
0.0236408
0.0238596
0.0241106
0.0243365
0.024628
0.0248174
0.0249609
0.0251847
0.0254283
0.0255637
0.0256039
0.0255384
0.0253484
0.0250371
0.0246111
0.0240254
0.0233238
0.0225747
0.0218223
0.0210891
0.0202569
0.0191874
0.017707
0.0159063
0.0142422
0.013212
0.0126907
0.0124782
0.0124862
0.0216894
0.0216818
0.0216809
0.0216883
0.0217037
0.0217274
0.0217598
0.0218017
0.0218534
0.0219153
0.0219877
0.0220705
0.0221638
0.0222674
0.0223814
0.0225069
0.0226454
0.0227986
0.0229684
0.0231563
0.023364
0.0235934
0.0238447
0.0241254
0.0244548
0.0256954
0.0305328
0.0283529
0.0254068
0.0257342
0.0259153
0.0259974
0.0259607
0.025762
0.0254145
0.0249473
0.0242252
0.0233152
0.0223206
0.0213436
0.0204888
0.0195523
0.0183978
0.0163446
0.0138133
0.011576
0.0104584
0.0101021
0.0100217
0.0100701
0.0214912
0.0214851
0.0214857
0.0214945
0.0215112
0.0215363
0.0215703
0.0216137
0.0216673
0.0217313
0.0218061
0.0218916
0.0219881
0.0220953
0.0222139
0.0223452
0.0224909
0.0226532
0.0228338
0.0230347
0.0232581
0.0235087
0.0237906
0.0241114
0.0248107
0.0292272
0.0300636
0.0302751
0.0266986
0.026193
0.0263845
0.0265244
0.0265456
0.0263479
0.0259666
0.0254876
0.0246132
0.0234443
0.0220864
0.0207274
0.0196416
0.0185353
0.0176311
0.0148106
0.0111102
0.00767063
0.00678705
0.00705661
0.0072582
0.00731273
0.0212827
0.0212783
0.0212805
0.0212907
0.0213088
0.021335
0.0213702
0.0214149
0.0214699
0.0215355
0.0216121
0.0216997
0.0217984
0.0219082
0.02203
0.0221653
0.0223161
0.0224845
0.0226723
0.0228812
0.0231134
0.0233715
0.0236671
0.0240129
0.0251547
0.0297717
0.0301895
0.0304393
0.0271286
0.0266204
0.026914
0.0271867
0.0273328
0.0271454
0.0267707
0.0264396
0.0254043
0.0238775
0.0221635
0.0202684
0.0187926
0.0174011
0.0170316
0.0136651
0.00893733
0.00252503
0.00203163
0.00369754
0.00443662
0.00433888
0.0210638
0.0210614
0.0210654
0.021077
0.0210962
0.0211235
0.0211596
0.0212053
0.0212612
0.0213278
0.0214054
0.0214942
0.021594
0.0217051
0.0218284
0.0219656
0.0221188
0.0222902
0.0224815
0.0226942
0.0229305
0.023194
0.0234849
0.023798
0.0242611
0.0281895
0.0305923
0.0295168
0.0265626
0.0269796
0.027482
0.0280089
0.0283971
0.0281109
0.0276611
0.0281581
0.0271039
0.027307
0.0228481
0.0203066
0.0185305
0.0161975
0.0159907
0.0133711
0.030301
-0.00257115
-0.00296233
0.000944172
0.0024069
0.00169531
0.0208347
0.0208345
0.0208405
0.0208535
0.0208738
0.0209019
0.0209386
0.0209848
0.0210411
0.0211081
0.021186
0.0212748
0.0213746
0.0214853
0.0216079
0.0217445
0.0218974
0.0220686
0.0222599
0.0224731
0.02271
0.0229728
0.023261
0.0235671
0.0238336
0.0247039
0.0257944
0.0258224
0.0263655
0.0272457
0.0280506
0.0289438
0.0300272
0.0295175
0.0286657
0.0316225
0.0284636
0.0297177
0.0295804
0.0263653
0.018409
0.0124465
0.014639
0.00826975
-0.00755397
-0.0151534
-0.00760356
0.000753649
0.00245478
-0.000255332
0.0205955
0.0205978
0.0206059
0.0206204
0.0206416
0.0206702
0.0207073
0.0207536
0.0208098
0.0208765
0.0209537
0.0210415
0.0211396
0.0212481
0.0213679
0.0215013
0.0216508
0.0218187
0.0220072
0.0222186
0.0224558
0.0227225
0.0230224
0.0233574
0.0237439
0.024253
0.0249371
0.0256376
0.0265297
0.0276584
0.0287463
0.029733
0.0312241
0.0326679
0.0482323
0.0630545
0.0592411
0.0406834
0.033546
0.0280975
0.0418174
0.0714595
0.0303419
0.0274753
-0.0165628
-0.0267144
-0.00821582
0.00934411
0.000513359
-0.0145721
0.0203466
0.0203515
0.0203618
0.0203777
0.0203998
0.0204288
0.0204659
0.0205119
0.0205675
0.0206331
0.0207086
0.020794
0.0208889
0.0209933
0.0211079
0.0212353
0.0213783
0.0215398
0.0217222
0.0219284
0.0221625
0.02243
0.0227383
0.0230985
0.0235315
0.024075
0.0247522
0.0255766
0.0265865
0.0277773
0.0290806
0.0306378
0.0345676
0.035195
0.0499526
0.0652767
0.0457001
0.0483949
0.0327679
0.0452937
0.0468167
0.0423606
0.152107
0.156156
0.0204493
-0.142025
-0.126918
0.00650288
0.319084
1.46763
0.0200882
0.020096
0.0201086
0.0201259
0.0201486
0.0201779
0.0202147
0.0202599
0.0203143
0.020378
0.0204508
0.0205326
0.0206227
0.020721
0.0208282
0.0209468
0.0210802
0.0212317
0.0214042
0.0216008
0.0218257
0.0220855
0.02239
0.0227532
0.0231967
0.0237524
0.0244525
0.0253328
0.026438
0.0278017
0.0293597
0.03239
0.0371608
0.0372203
0.0402377
0.043537
0.056196
0.0491187
0.0520846
0.0635857
0.110344
0.0282027
1.38598
1.26083
0.273528
3.00175
12.7177
25.8173
35.1844
42.0237
0.0198207
0.0198315
0.0198465
0.0198652
0.0198885
0.0199178
0.019954
0.019998
0.0200505
0.0201114
0.0201806
0.0202573
0.020341
0.0204315
0.0205292
0.0206366
0.0207575
0.0208956
0.0210539
0.0212351
0.0214433
0.0216847
0.0219697
0.0223135
0.022739
0.023279
0.0239759
0.0248689
0.026036
0.027534
0.0295775
0.032638
0.0363428
0.0408307
0.0460603
0.0538881
0.0633483
0.0488465
0.0908984
0.0646786
0.0696634
2.75131
6.20105
8.6851
25.0893
40.3933
41.094
41.1572
42.9265
45.1002
0.0195447
0.0195586
0.019576
0.019596
0.0196198
0.0196488
0.0196841
0.0197264
0.0197764
0.0198338
0.0198981
0.0199685
0.0200444
0.0201254
0.0202119
0.0203061
0.0204119
0.0205331
0.0206726
0.0208327
0.0210158
0.0212273
0.0214763
0.0217792
0.0221586
0.0226474
0.0233128
0.0241533
0.0253085
0.0268689
0.0290347
0.0319308
0.0356924
0.0480931
0.0484646
0.0576279
0.0680739
0.0740239
0.0612735
-0.0370857
5.28142
10.2611
22.591
36.205
39.1592
40.1665
40.6163
41.2587
42.3602
43.4855
0.0192607
0.0192777
0.0192975
0.0193188
0.0193429
0.0193714
0.0194054
0.0194457
0.0194925
0.0195456
0.0196041
0.0196671
0.0197338
0.0198039
0.0198778
0.0199573
0.0200458
0.020147
0.0202634
0.020396
0.020546
0.0207169
0.0209145
0.0211558
0.0214629
0.0218665
0.0224109
0.0231687
0.0242265
0.025742
0.0278942
0.0312073
0.0480227
0.0532783
0.0478455
0.0539322
0.0541424
0.0759187
0.239249
6.3683
17.8669
32.8206
36.6953
37.2556
38.2924
39.3245
40.1422
40.9127
41.7184
42.4012
0.0189691
0.0189893
0.0190115
0.0190339
0.0190583
0.0190861
0.0191186
0.0191563
0.0191995
0.0192475
0.0192994
0.0193541
0.0194106
0.0194687
0.0195289
0.0195926
0.0196623
0.019741
0.0198301
0.0199293
0.020039
0.0201566
0.0202943
0.0204571
0.0206676
0.0209535
0.0213419
0.0219284
0.022809
0.0241407
0.0260773
0.0293433
0.0408271
0.0416175
0.0476086
0.0576351
0.0696617
0.0701193
7.76492
23.66
33.4181
36.1945
36.5593
37.0283
37.9188
38.9598
39.8101
40.5597
41.2042
41.6654
0.0186708
0.0186941
0.0187185
0.018742
0.0187664
0.0187934
0.018824
0.0188589
0.0188978
0.0189403
0.018985
0.0190306
0.0190763
0.0191217
0.0191676
0.0192148
0.0192648
0.0193191
0.0193778
0.0194402
0.0195014
0.0195638
0.0197242
0.0197013
0.0197907
0.0199296
0.020127
0.0204711
0.0211304
0.0221302
0.0237527
0.0266213
0.0315309
0.042012
0.0518357
0.0380971
0.119928
7.04353
26.6122
33.9309
35.3353
36.2781
36.7462
37.2341
37.9979
38.8813
39.6808
40.3578
40.8891
41.2286
0.0183663
0.0183925
0.0184191
0.0184435
0.0184678
0.0184938
0.0185223
0.0185539
0.0185884
0.0186248
0.0186618
0.0186981
0.0187326
0.0187653
0.0187965
0.0188269
0.0188567
0.0188856
0.0189121
0.0189335
0.0189442
0.0189427
0.018926
0.0188926
0.0188586
0.0189105
0.0187921
0.018846
0.0190441
0.0197458
0.0207942
0.0231923
0.0272964
0.033399
0.0787321
0.0400814
5.506
24.1659
35.0135
35.5765
36.3049
36.8525
37.2552
37.725
38.3627
39.0795
39.7551
40.3259
40.7589
41.0203
0.0180562
0.0180852
0.0181138
0.018139
0.0181631
0.0181878
0.018214
0.0182421
0.0182718
0.0183019
0.018331
0.0183578
0.0183814
0.0184014
0.0184181
0.0184316
0.0184411
0.0184445
0.0184382
0.0184178
0.0183771
0.0183112
0.0182167
0.0180894
0.0179322
0.0177726
0.0174784
0.0171554
0.0168854
0.01679
0.0171854
0.018464
0.0266665
0.0363351
0.0191683
3.19628
14.9956
36.4002
37.2861
37.0066
37.3063
37.6257
37.9564
38.3738
38.886
39.4385
39.9671
40.4156
40.7531
40.9544
0.0177413
0.0177728
0.0178031
0.0178289
0.0178526
0.017876
0.0178998
0.0179242
0.0179488
0.0179725
0.0179938
0.0180113
0.0180242
0.0180321
0.0180347
0.0180316
0.018021
0.0179992
0.0179609
0.0179001
0.0178099
0.0176834
0.017514
0.0172891
0.0169951
0.0166069
0.0161339
0.0155263
0.0148144
0.0139702
0.0133099
0.0133224
0.017559
0.0293353
0.702499
6.9073
29.9643
38.574
38.0649
37.8704
38.0311
38.3141
38.6456
39.0212
39.4286
39.8437
40.226
40.5535
40.8017
40.9515
0.0174222
0.0174559
0.0174877
0.0175139
0.0175371
0.0175589
0.0175801
0.0176008
0.0176204
0.0176376
0.0176512
0.0176598
0.0176625
0.0176589
0.0176482
0.0176292
0.0175991
0.0175531
0.0174849
0.017387
0.017252
0.0170713
0.0168348
0.0165265
0.0161259
0.0156024
0.0149217
0.0140342
0.0128914
0.0112791
0.00919379
0.00672496
0.00856372
0.0171615
1.13715
16.7265
39.4171
38.9433
38.6409
38.5366
38.6555
38.9211
39.2437
39.5762
39.8967
40.1943
40.4593
40.6833
40.8544
40.9593
0.0170995
0.0171351
0.017168
0.0171945
0.017217
0.0172372
0.0172557
0.0172726
0.0172871
0.017298
0.0173041
0.0173043
0.0172976
0.0172833
0.0172602
0.0172262
0.0171776
0.017109
0.0170136
0.0168836
0.0167106
0.016485
0.0161944
0.0158206
0.0153397
0.0147204
0.0139093
0.0128397
0.0114155
0.00932089
0.00637368
0.00335641
0.00427698
-0.0538014
2.15577
36.084
41.0336
40.0598
39.4435
39.2586
39.2879
39.4887
39.7568
40.0254
40.2642
40.4673
40.6387
40.7814
40.8904
40.9582
0.0167738
0.0168109
0.0168447
0.0168712
0.0168928
0.0169113
0.0169272
0.0169402
0.0169497
0.0169545
0.0169536
0.0169459
0.0169305
0.0169064
0.0168719
0.0168239
0.0167583
0.0166693
0.0165502
0.0163934
0.0161902
0.0159298
0.0155984
0.0151778
0.014645
0.0139729
0.0131253
0.0120627
0.0107001
0.00882618
0.00665842
0.0059158
0.00989921
-0.0894423
9.0354
43.478
41.9584
40.9575
40.2781
39.9541
39.8903
40.0029
40.1886
40.378
40.5382
40.6643
40.7644
40.8457
40.9097
40.9498
0.0164456
0.0164838
0.0165182
0.0165445
0.0165652
0.0165819
0.016595
0.0166043
0.0166089
0.0166079
0.0166003
0.0165853
0.0165619
0.0165289
0.0164839
0.0164234
0.0163426
0.016236
0.0160971
0.015919
0.0156929
0.0154071
0.0150471
0.0145954
0.0140329
0.0133406
0.0125015
0.0115077
0.0103569
0.00905092
0.00807993
0.00948756
0.019065
0.0192108
27.4572
44.6054
42.8849
41.7323
40.9741
40.5594
40.4097
40.4334
40.5347
40.6462
40.7367
40.8019
40.8504
40.8899
40.9215
40.9414
0.0161157
0.0161545
0.0161891
0.0162149
0.0162346
0.0162495
0.0162599
0.0162654
0.0162653
0.0162587
0.0162448
0.016223
0.0161924
0.0161513
0.016097
0.0160254
0.0159317
0.0158105
0.0156562
0.0154623
0.0152197
0.0149165
0.0145377
0.0140666
0.0134867
0.0127827
0.0119432
0.0109617
0.00982771
0.00857794
0.00777831
0.00867081
0.00194266
0.18116
39.6752
45.0669
43.3329
42.1729
41.4161
40.9798
40.7879
40.7526
40.7891
40.8387
40.8753
40.8957
40.909
40.9216
40.9342
40.9432
0.0157843
0.0158234
0.0158578
0.015883
0.0159014
0.0159145
0.0159222
0.015924
0.0159193
0.0159073
0.0158874
0.0158593
0.015822
0.0157737
0.0157113
0.0156302
0.0155258
0.0153933
0.0152279
0.0150234
0.0147706
0.0144569
0.0140674
0.0135865
0.0129995
0.0122921
0.0114521
0.0104647
0.00929385
0.00798628
0.00714173
0.00716411
-0.012009
2.15882
42.0479
44.5152
43.1923
42.2338
41.576
41.1817
40.9951
40.9402
40.9441
40.9577
40.9612
40.9547
40.9467
40.9444
40.9471
40.9513
0.0247185
0.0248316
0.0249556
0.0250902
0.0252349
0.0253891
0.0255518
0.0257223
0.0258994
0.026082
0.026269
0.0264592
0.0266512
0.0268439
0.027036
0.0272263
0.027414
0.0275978
0.027777
0.0279508
0.0281183
0.0282792
0.028433
0.0285793
0.028718
0.028849
0.0289724
0.0290883
0.0291968
0.0292979
0.0293917
0.0294782
0.0295575
0.0296293
0.0296939
0.0297514
0.0298018
0.0298455
0.029883
0.0299147
0.0299411
0.0299627
0.0299802
0.029994
0.0300048
0.0300129
0.0300186
0.0300221
0.0300236
0.0300224
0.0247397
0.0248536
0.0249782
0.025113
0.0252575
0.0254111
0.025573
0.0257423
0.025918
0.026099
0.0262841
0.0264723
0.0266622
0.0268527
0.0270427
0.027231
0.0274166
0.0275985
0.0277759
0.0279481
0.0281142
0.0282739
0.0284266
0.028572
0.0287098
0.0288401
0.0289629
0.0290782
0.0291862
0.0292869
0.0293805
0.029467
0.0295463
0.0296186
0.0296837
0.0297418
0.0297931
0.0298378
0.0298763
0.0299089
0.0299362
0.0299588
0.0299772
0.0299919
0.0300033
0.0300119
0.030018
0.0300219
0.0300237
0.0300226
0.0247546
0.0248699
0.0249956
0.0251314
0.0252766
0.0254307
0.0255928
0.0257621
0.0259377
0.0261183
0.026303
0.0264905
0.0266796
0.0268693
0.0270583
0.0272456
0.0274301
0.0276109
0.0277871
0.0279581
0.0281232
0.0282817
0.0284333
0.0285774
0.028714
0.0288429
0.0289641
0.0290777
0.0291839
0.029283
0.029375
0.0294602
0.0295387
0.0296104
0.0296755
0.0297339
0.0297859
0.0298316
0.0298711
0.0299049
0.0299333
0.029957
0.0299763
0.0299918
0.0300039
0.030013
0.0300195
0.0300236
0.0300255
0.0300243
0.0247592
0.0248763
0.0250038
0.0251412
0.0252881
0.0254438
0.0256075
0.0257783
0.0259552
0.0261372
0.026323
0.0265116
0.0267017
0.0268922
0.0270818
0.0272695
0.0274542
0.027635
0.0278111
0.0279817
0.0281462
0.028304
0.0284545
0.0285975
0.0287325
0.0288594
0.0289783
0.0290894
0.0291928
0.029289
0.0293782
0.0294609
0.0295372
0.0296073
0.0296714
0.0297295
0.0297817
0.0298279
0.0298684
0.0299033
0.0299329
0.0299577
0.029978
0.0299943
0.0300071
0.0300166
0.0300234
0.0300275
0.0300292
0.0300282
0.0247524
0.0248716
0.0250013
0.0251411
0.0252905
0.0254488
0.0256152
0.0257887
0.0259684
0.026153
0.0263415
0.0265327
0.0267252
0.0269179
0.0271096
0.027299
0.0274852
0.0276671
0.0278439
0.0280149
0.0281794
0.0283369
0.0284869
0.0286289
0.0287626
0.0288877
0.0290042
0.0291124
0.0292125
0.0293052
0.0293908
0.02947
0.0295431
0.0296106
0.0296728
0.0297296
0.0297813
0.0298276
0.0298686
0.0299044
0.029935
0.0299608
0.0299821
0.0299992
0.0300126
0.0300226
0.0300295
0.0300337
0.0300353
0.0300342
0.0247322
0.0248536
0.024986
0.0251287
0.0252813
0.0254431
0.0256132
0.0257906
0.0259742
0.0261629
0.0263555
0.0265505
0.0267469
0.0269431
0.0271381
0.0273305
0.0275193
0.0277033
0.0278818
0.0280541
0.0282194
0.0283772
0.0285272
0.0286688
0.0288016
0.0289255
0.0290402
0.0291459
0.029243
0.0293321
0.0294139
0.0294891
0.0295583
0.0296223
0.0296814
0.0297359
0.029786
0.0298316
0.0298725
0.0299086
0.0299399
0.0299665
0.0299886
0.0300064
0.0300204
0.0300308
0.0300379
0.0300421
0.0300436
0.0300423
0.0246964
0.0248202
0.0249555
0.0251017
0.0252583
0.0254244
0.0255992
0.0257816
0.0259705
0.0261646
0.0263625
0.0265629
0.0267643
0.0269655
0.027165
0.0273616
0.0275541
0.0277413
0.0279225
0.0280968
0.0282636
0.0284225
0.028573
0.0287148
0.0288476
0.0289709
0.0290845
0.0291886
0.0292834
0.0293695
0.0294478
0.029519
0.029584
0.0296437
0.0296989
0.02975
0.0297974
0.029841
0.0298808
0.0299165
0.0299479
0.0299749
0.0299975
0.030016
0.0300304
0.0300412
0.0300486
0.0300529
0.0300542
0.0300528
0.0246435
0.0247699
0.0249084
0.0250586
0.0252198
0.0253912
0.0255718
0.0257605
0.025956
0.0261568
0.0263616
0.0265687
0.0267768
0.0269842
0.0271896
0.0273915
0.0275888
0.0277802
0.0279649
0.028142
0.028311
0.0284714
0.028623
0.0287655
0.0288986
0.029022
0.0291355
0.0292389
0.0293323
0.0294164
0.0294919
0.0295596
0.0296205
0.0296758
0.0297264
0.0297732
0.0298167
0.0298573
0.0298948
0.029929
0.0299596
0.0299864
0.0300092
0.0300279
0.0300428
0.0300539
0.0300615
0.0300659
0.0300672
0.0300658
0.0245726
0.0247017
0.024844
0.0249988
0.0251656
0.0253434
0.0255311
0.0257273
0.0259308
0.02614
0.0263531
0.0265686
0.0267848
0.0269999
0.0272124
0.0274209
0.027624
0.0278205
0.0280095
0.0281901
0.0283619
0.0285242
0.0286771
0.0288203
0.028954
0.0290779
0.0291916
0.0292949
0.0293879
0.0294709
0.0295445
0.0296097
0.0296672
0.0297183
0.0297642
0.0298061
0.0298449
0.0298812
0.0299153
0.0299469
0.0299758
0.0300016
0.0300239
0.0300426
0.0300575
0.0300689
0.0300767
0.0300813
0.0300826
0.0300812
0.0244833
0.0246155
0.0247621
0.0249225
0.025096
0.0252814
0.0254776
0.025683
0.0258961
0.0261152
0.0263384
0.0265639
0.0267897
0.0270141
0.0272352
0.0274515
0.0276615
0.027864
0.028058
0.0282428
0.0284177
0.0285823
0.0287364
0.0288803
0.0290142
0.0291382
0.0292522
0.0293556
0.0294486
0.0295311
0.0296038
0.0296672