/*--------------------------------*- C++ -*----------------------------------*\
| =========                 |                                                 |
| \\      /  F ield         | OpenFOAM: The Open Source CFD Toolbox           |
|  \\    /   O peration     | Version:  2.4.0                                 |
|   \\  /    A nd           | Web:      www.OpenFOAM.org                      |
|    \\/     M anipulation  |                                                 |
\*---------------------------------------------------------------------------*/
FoamFile
{
    version     2.0;
    format      ascii;
    class       volVectorField;
    location    "0.042";
    object      U;
}
// * * * * * * * * * * * * * * * * * * * * * * * * * * * * * * * * * * * * * //

dimensions      [0 1 -1 0 0 0 0];

internalField   nonuniform List<vector> 
60000
(
(1.53802e-08 1.68435e-09 0)
(1.26902e-08 4.48287e-09 0)
(-4.28873e-08 7.94245e-09 0)
(-8.582e-08 8.04237e-09 0)
(-1.39401e-07 7.46131e-09 0)
(-1.84455e-07 7.90004e-09 0)
(-2.33859e-07 7.71663e-09 0)
(-2.82104e-07 7.80172e-09 0)
(-3.30518e-07 7.73473e-09 0)
(-3.7862e-07 7.69802e-09 0)
(-4.26814e-07 7.71922e-09 0)
(-4.75588e-07 7.86867e-09 0)
(-5.25576e-07 8.12199e-09 0)
(-5.77211e-07 8.38946e-09 0)
(-6.30377e-07 8.613e-09 0)
(-6.8475e-07 8.74982e-09 0)
(-7.40043e-07 8.85368e-09 0)
(-7.96107e-07 8.93664e-09 0)
(-8.53115e-07 9.1091e-09 0)
(-9.11559e-07 9.40001e-09 0)
(-9.71851e-07 9.70755e-09 0)
(-1.03437e-06 1.01264e-08 0)
(-1.09937e-06 1.05219e-08 0)
(-1.16666e-06 1.08762e-08 0)
(-1.23587e-06 1.11283e-08 0)
(-1.30654e-06 1.13132e-08 0)
(-1.37815e-06 1.1331e-08 0)
(-1.45029e-06 1.13548e-08 0)
(-1.52292e-06 1.135e-08 0)
(-1.59638e-06 1.13815e-08 0)
(-1.67138e-06 1.1627e-08 0)
(-1.74867e-06 1.19121e-08 0)
(-1.82895e-06 1.23525e-08 0)
(-1.91262e-06 1.27613e-08 0)
(-1.99947e-06 1.31675e-08 0)
(-2.08878e-06 1.33267e-08 0)
(-2.17983e-06 1.33573e-08 0)
(-2.27259e-06 1.3374e-08 0)
(-2.36808e-06 1.37786e-08 0)
(-2.46761e-06 1.42108e-08 0)
(-2.57234e-06 1.49681e-08 0)
(-2.68243e-06 1.54329e-08 0)
(-2.79731e-06 1.58173e-08 0)
(-2.91692e-06 1.63545e-08 0)
(-3.04095e-06 1.63149e-08 0)
(-3.17047e-06 1.70044e-08 0)
(-3.30735e-06 1.77688e-08 0)
(-3.45174e-06 1.8165e-08 0)
(-3.60424e-06 1.90515e-08 0)
(-3.76538e-06 1.98639e-08 0)
(-3.93404e-06 2.03136e-08 0)
(-4.10888e-06 2.062e-08 0)
(-4.28837e-06 2.04993e-08 0)
(-4.47098e-06 2.02145e-08 0)
(-4.65594e-06 1.98297e-08 0)
(-4.84228e-06 1.91174e-08 0)
(-5.02903e-06 1.82884e-08 0)
(-5.21558e-06 1.73155e-08 0)
(-5.40113e-06 1.60006e-08 0)
(-5.58478e-06 1.4507e-08 0)
(-5.76575e-06 1.28117e-08 0)
(-5.94292e-06 1.07304e-08 0)
(-6.11473e-06 8.29738e-09 0)
(-6.27925e-06 5.42339e-09 0)
(-6.43375e-06 1.89265e-09 0)
(-6.57495e-06 -2.29108e-09 0)
(-6.69944e-06 -7.06497e-09 0)
(-6.80388e-06 -1.24453e-08 0)
(-6.88517e-06 -1.83684e-08 0)
(-6.94076e-06 -2.47249e-08 0)
(-6.96885e-06 -3.1478e-08 0)
(-6.969e-06 -3.83868e-08 0)
(-6.94143e-06 -4.40444e-08 0)
(-6.88715e-06 -4.91697e-08 0)
(-6.80792e-06 -5.4013e-08 0)
(-6.70521e-06 -5.85405e-08 0)
(-6.5814e-06 -6.22731e-08 0)
(-6.4393e-06 -6.54662e-08 0)
(-6.28133e-06 -6.81482e-08 0)
(-6.11038e-06 -7.0182e-08 0)
(-5.9302e-06 -7.14319e-08 0)
(-5.74535e-06 -7.17888e-08 0)
(-5.56109e-06 -7.12511e-08 0)
(-5.3834e-06 -6.96222e-08 0)
(-5.21876e-06 -6.69212e-08 0)
(-5.07318e-06 -6.3439e-08 0)
(-4.95275e-06 -5.89327e-08 0)
(-4.86298e-06 -5.39867e-08 0)
(-4.80833e-06 -4.85975e-08 0)
(-4.79285e-06 -4.24658e-08 0)
(-4.81903e-06 -3.50956e-08 0)
(-4.8885e-06 -2.77685e-08 0)
(-5.00215e-06 -2.05243e-08 0)
(-5.16034e-06 -1.31498e-08 0)
(-5.35754e-06 -7.22054e-09 0)
(-5.62914e-06 9.84664e-09 0)
(-5.70741e-06 -2.41875e-08 0)
(-6.51203e-06 8.14303e-08 0)
(-6.10155e-06 -5.48144e-08 0)
(-7.14072e-06 8.39988e-09 0)
(5.08738e-08 -1.71306e-08 0)
(6.407e-08 2.43061e-08 0)
(-4.10322e-08 4.28215e-08 0)
(-1.05594e-07 4.33156e-08 0)
(-1.99034e-07 4.16674e-08 0)
(-2.73682e-07 4.19634e-08 0)
(-3.56204e-07 4.20533e-08 0)
(-4.36549e-07 4.21829e-08 0)
(-5.17556e-07 4.19875e-08 0)
(-5.98548e-07 4.18752e-08 0)
(-6.80131e-07 4.20935e-08 0)
(-7.62673e-07 4.29532e-08 0)
(-8.46797e-07 4.42889e-08 0)
(-9.33064e-07 4.57393e-08 0)
(-1.02146e-06 4.70444e-08 0)
(-1.11195e-06 4.80184e-08 0)
(-1.20445e-06 4.87527e-08 0)
(-1.29889e-06 4.94697e-08 0)
(-1.39547e-06 5.0522e-08 0)
(-1.49457e-06 5.20198e-08 0)
(-1.59663e-06 5.38127e-08 0)
(-1.70203e-06 5.59812e-08 0)
(-1.81104e-06 5.80737e-08 0)
(-1.92356e-06 5.99865e-08 0)
(-2.03933e-06 6.14988e-08 0)
(-2.15793e-06 6.25327e-08 0)
(-2.27911e-06 6.32132e-08 0)
(-2.4026e-06 6.37459e-08 0)
(-2.5283e-06 6.4361e-08 0)
(-2.65707e-06 6.5488e-08 0)
(-2.7896e-06 6.73482e-08 0)
(-2.9267e-06 6.99171e-08 0)
(-3.06932e-06 7.29353e-08 0)
(-3.21792e-06 7.60665e-08 0)
(-3.37226e-06 7.88615e-08 0)
(-3.53166e-06 8.08546e-08 0)
(-3.6958e-06 8.23524e-08 0)
(-3.86517e-06 8.43124e-08 0)
(-4.04077e-06 8.76637e-08 0)
(-4.22402e-06 9.20129e-08 0)
(-4.41606e-06 9.72088e-08 0)
(-4.61719e-06 1.01961e-07 0)
(-4.8276e-06 1.06411e-07 0)
(-5.04691e-06 1.1093e-07 0)
(-5.27592e-06 1.15328e-07 0)
(-5.51655e-06 1.22027e-07 0)
(-5.76968e-06 1.29371e-07 0)
(-6.0362e-06 1.36697e-07 0)
(-6.31704e-06 1.45124e-07 0)
(-6.61187e-06 1.52982e-07 0)
(-6.91979e-06 1.59629e-07 0)
(-7.23981e-06 1.65309e-07 0)
(-7.57057e-06 1.69368e-07 0)
(-7.91064e-06 1.7253e-07 0)
(-8.25907e-06 1.7514e-07 0)
(-8.61502e-06 1.76755e-07 0)
(-8.97745e-06 1.77795e-07 0)
(-9.34549e-06 1.78401e-07 0)
(-9.71857e-06 1.78273e-07 0)
(-1.00959e-05 1.77588e-07 0)
(-1.04762e-05 1.76236e-07 0)
(-1.08582e-05 1.73781e-07 0)
(-1.124e-05 1.69972e-07 0)
(-1.16189e-05 1.64261e-07 0)
(-1.19916e-05 1.55947e-07 0)
(-1.23542e-05 1.44724e-07 0)
(-1.27025e-05 1.30535e-07 0)
(-1.30321e-05 1.13461e-07 0)
(-1.33392e-05 9.38514e-08 0)
(-1.36203e-05 7.22158e-08 0)
(-1.38728e-05 4.91765e-08 0)
(-1.40949e-05 2.57965e-08 0)
(-1.42863e-05 4.06163e-09 0)
(-1.44477e-05 -1.62258e-08 0)
(-1.45802e-05 -3.52395e-08 0)
(-1.46853e-05 -5.25294e-08 0)
(-1.47653e-05 -6.83422e-08 0)
(-1.48231e-05 -8.23349e-08 0)
(-1.48621e-05 -9.46911e-08 0)
(-1.48868e-05 -1.04201e-07 0)
(-1.49022e-05 -1.10171e-07 0)
(-1.49149e-05 -1.1206e-07 0)
(-1.49327e-05 -1.09002e-07 0)
(-1.49638e-05 -1.00421e-07 0)
(-1.50171e-05 -8.62758e-08 0)
(-1.51013e-05 -6.70229e-08 0)
(-1.52261e-05 -4.39513e-08 0)
(-1.54e-05 -1.62494e-08 0)
(-1.56299e-05 1.52791e-08 0)
(-1.5922e-05 5.02385e-08 0)
(-1.62815e-05 8.82214e-08 0)
(-1.67113e-05 1.27199e-07 0)
(-1.7212e-05 1.66062e-07 0)
(-1.77835e-05 2.03925e-07 0)
(-1.84145e-05 2.38485e-07 0)
(-1.91555e-05 2.76894e-07 0)
(-1.95777e-05 2.63859e-07 0)
(-2.13067e-05 4.3074e-07 0)
(-2.032e-05 1.50571e-07 0)
(-2.32019e-05 1.5914e-07 0)
(5.80775e-08 -5.52926e-08 0)
(7.12083e-08 5.40477e-08 0)
(-4.75497e-08 8.70278e-08 0)
(-1.15506e-07 8.84558e-08 0)
(-2.17712e-07 8.62086e-08 0)
(-2.99901e-07 8.6045e-08 0)
(-3.90532e-07 8.62761e-08 0)
(-4.78606e-07 8.65601e-08 0)
(-5.67902e-07 8.6595e-08 0)
(-6.57911e-07 8.6785e-08 0)
(-7.49141e-07 8.74014e-08 0)
(-8.4145e-07 8.89563e-08 0)
(-9.35031e-07 9.11405e-08 0)
(-1.03028e-06 9.35741e-08 0)
(-1.12731e-06 9.60018e-08 0)
(-1.22649e-06 9.81444e-08 0)
(-1.32822e-06 1.00033e-07 0)
(-1.43267e-06 1.02016e-07 0)
(-1.53987e-06 1.04422e-07 0)
(-1.64997e-06 1.07419e-07 0)
(-1.7632e-06 1.10945e-07 0)
(-1.87953e-06 1.14904e-07 0)
(-1.99927e-06 1.18843e-07 0)
(-2.12261e-06 1.22613e-07 0)
(-2.24944e-06 1.25925e-07 0)
(-2.37999e-06 1.28548e-07 0)
(-2.51459e-06 1.31064e-07 0)
(-2.65319e-06 1.33238e-07 0)
(-2.79591e-06 1.35706e-07 0)
(-2.94346e-06 1.39067e-07 0)
(-3.09593e-06 1.43216e-07 0)
(-3.25359e-06 1.48781e-07 0)
(-3.41698e-06 1.54722e-07 0)
(-3.58647e-06 1.61163e-07 0)
(-3.76192e-06 1.66933e-07 0)
(-3.94328e-06 1.71973e-07 0)
(-4.1311e-06 1.763e-07 0)
(-4.3261e-06 1.81633e-07 0)
(-4.52857e-06 1.88534e-07 0)
(-4.73898e-06 1.97419e-07 0)
(-4.95741e-06 2.06832e-07 0)
(-5.18423e-06 2.16463e-07 0)
(-5.42028e-06 2.25618e-07 0)
(-5.6654e-06 2.34433e-07 0)
(-5.921e-06 2.44789e-07 0)
(-6.18759e-06 2.57257e-07 0)
(-6.46473e-06 2.70626e-07 0)
(-6.7541e-06 2.85009e-07 0)
(-7.05563e-06 2.999e-07 0)
(-7.36827e-06 3.13958e-07 0)
(-7.69209e-06 3.26762e-07 0)
(-8.02672e-06 3.38177e-07 0)
(-8.3721e-06 3.47763e-07 0)
(-8.72814e-06 3.56e-07 0)
(-9.094e-06 3.63289e-07 0)
(-9.46929e-06 3.69409e-07 0)
(-9.85347e-06 3.74369e-07 0)
(-1.02455e-05 3.78487e-07 0)
(-1.06446e-05 3.81697e-07 0)
(-1.10499e-05 3.83664e-07 0)
(-1.14596e-05 3.84129e-07 0)
(-1.18717e-05 3.82736e-07 0)
(-1.22842e-05 3.78779e-07 0)
(-1.26942e-05 3.71396e-07 0)
(-1.30985e-05 3.59919e-07 0)
(-1.34942e-05 3.43739e-07 0)
(-1.38777e-05 3.22546e-07 0)
(-1.42453e-05 2.96618e-07 0)
(-1.45938e-05 2.66517e-07 0)
(-1.49201e-05 2.32991e-07 0)
(-1.52218e-05 1.97227e-07 0)
(-1.54972e-05 1.60759e-07 0)
(-1.5745e-05 1.24692e-07 0)
(-1.59646e-05 9.01479e-08 0)
(-1.61566e-05 5.7704e-08 0)
(-1.63229e-05 2.80887e-08 0)
(-1.64659e-05 1.1591e-09 0)
(-1.65884e-05 -2.22639e-08 0)
(-1.66951e-05 -4.17544e-08 0)
(-1.67914e-05 -5.58413e-08 0)
(-1.68838e-05 -6.31773e-08 0)
(-1.69791e-05 -6.27404e-08 0)
(-1.70852e-05 -5.31737e-08 0)
(-1.72107e-05 -3.3748e-08 0)
(-1.7364e-05 -4.26665e-09 0)
(-1.75543e-05 3.50474e-08 0)
(-1.77905e-05 8.2715e-08 0)
(-1.80808e-05 1.3921e-07 0)
(-1.84335e-05 2.03252e-07 0)
(-1.88553e-05 2.73343e-07 0)
(-1.93513e-05 3.4754e-07 0)
(-1.99246e-05 4.2398e-07 0)
(-2.05763e-05 5.00064e-07 0)
(-2.13064e-05 5.732e-07 0)
(-2.21008e-05 6.39677e-07 0)
(-2.30236e-05 7.04135e-07 0)
(-2.35636e-05 7.07057e-07 0)
(-2.5632e-05 8.86541e-07 0)
(-2.43829e-05 5.64394e-07 0)
(-2.80868e-05 3.57506e-07 0)
(4.09866e-08 -8.52548e-08 0)
(4.91388e-08 8.05591e-08 0)
(-5.51795e-08 1.29524e-07 0)
(-1.24381e-07 1.32064e-07 0)
(-2.26786e-07 1.29948e-07 0)
(-3.09786e-07 1.29421e-07 0)
(-4.01422e-07 1.29793e-07 0)
(-4.9046e-07 1.30303e-07 0)
(-5.80957e-07 1.30806e-07 0)
(-6.72589e-07 1.31558e-07 0)
(-7.65792e-07 1.32788e-07 0)
(-8.60165e-07 1.35038e-07 0)
(-9.55703e-07 1.37949e-07 0)
(-1.05263e-06 1.41223e-07 0)
(-1.15108e-06 1.44659e-07 0)
(-1.25154e-06 1.4792e-07 0)
(-1.35457e-06 1.51093e-07 0)
(-1.46053e-06 1.54451e-07 0)
(-1.56938e-06 1.5824e-07 0)
(-1.6813e-06 1.62735e-07 0)
(-1.79632e-06 1.67827e-07 0)
(-1.91419e-06 1.73354e-07 0)
(-2.0354e-06 1.79049e-07 0)
(-2.16027e-06 1.84618e-07 0)
(-2.28877e-06 1.8982e-07 0)
(-2.42165e-06 1.94577e-07 0)
(-2.55931e-06 1.99324e-07 0)
(-2.70167e-06 2.03854e-07 0)
(-2.84912e-06 2.08892e-07 0)
(-3.00189e-06 2.14856e-07 0)
(-3.16007e-06 2.21673e-07 0)
(-3.32333e-06 2.29941e-07 0)
(-3.49195e-06 2.38758e-07 0)
(-3.6664e-06 2.48224e-07 0)
(-3.84663e-06 2.571e-07 0)
(-4.03307e-06 2.65567e-07 0)
(-4.22654e-06 2.73556e-07 0)
(-4.42778e-06 2.82753e-07 0)
(-4.63711e-06 2.93578e-07 0)
(-4.85412e-06 3.06602e-07 0)
(-5.07838e-06 3.19995e-07 0)
(-5.31004e-06 3.33987e-07 0)
(-5.54986e-06 3.4768e-07 0)
(-5.79907e-06 3.61178e-07 0)
(-6.05786e-06 3.76779e-07 0)
(-6.32574e-06 3.94083e-07 0)
(-6.60274e-06 4.12534e-07 0)
(-6.88871e-06 4.32311e-07 0)
(-7.18346e-06 4.52106e-07 0)
(-7.48722e-06 4.71159e-07 0)
(-7.80031e-06 4.8905e-07 0)
(-8.12297e-06 5.05467e-07 0)
(-8.45545e-06 5.20296e-07 0)
(-8.79801e-06 5.33667e-07 0)
(-9.15052e-06 5.45816e-07 0)
(-9.51262e-06 5.56719e-07 0)
(-9.8839e-06 5.6609e-07 0)
(-1.02637e-05 5.74138e-07 0)
(-1.06508e-05 5.80824e-07 0)
(-1.10439e-05 5.85503e-07 0)
(-1.14413e-05 5.87726e-07 0)
(-1.18407e-05 5.87044e-07 0)
(-1.22397e-05 5.8249e-07 0)
(-1.26355e-05 5.73037e-07 0)
(-1.30252e-05 5.58041e-07 0)
(-1.34059e-05 5.36801e-07 0)
(-1.37745e-05 5.08879e-07 0)
(-1.4128e-05 4.74587e-07 0)
(-1.44636e-05 4.34588e-07 0)
(-1.47783e-05 3.89818e-07 0)
(-1.50698e-05 3.41762e-07 0)
(-1.53361e-05 2.9216e-07 0)
(-1.55756e-05 2.42443e-07 0)
(-1.57875e-05 1.94017e-07 0)
(-1.59721e-05 1.48077e-07 0)
(-1.61309e-05 1.05563e-07 0)
(-1.62665e-05 6.77956e-08 0)
(-1.63824e-05 3.55782e-08 0)
(-1.64837e-05 1.03206e-08 0)
(-1.65764e-05 -6.64343e-09 0)
(-1.66674e-05 -1.35489e-08 0)
(-1.67639e-05 -8.73896e-09 0)
(-1.68738e-05 9.18776e-09 0)
(-1.70055e-05 4.12193e-08 0)
(-1.71673e-05 8.7727e-08 0)
(-1.73683e-05 1.48566e-07 0)
(-1.76169e-05 2.23503e-07 0)
(-1.79219e-05 3.10695e-07 0)
(-1.82915e-05 4.08809e-07 0)
(-1.87324e-05 5.15826e-07 0)
(-1.92501e-05 6.29087e-07 0)
(-1.98481e-05 7.45526e-07 0)
(-2.05274e-05 8.61229e-07 0)
(-2.1289e-05 9.71938e-07 0)
(-2.21172e-05 1.0724e-06 0)
(-2.30883e-05 1.16368e-06 0)
(-2.36339e-05 1.19464e-06 0)
(-2.58159e-05 1.3491e-06 0)
(-2.44796e-05 1.04947e-06 0)
(-2.84125e-05 5.76293e-07 0)
(3.70799e-08 -1.06128e-07 0)
(3.92629e-08 1.05514e-07 0)
(-6.18755e-08 1.71251e-07 0)
(-1.29368e-07 1.7651e-07 0)
(-2.30204e-07 1.74794e-07 0)
(-3.12609e-07 1.74171e-07 0)
(-4.03913e-07 1.74722e-07 0)
(-4.928e-07 1.75521e-07 0)
(-5.83236e-07 1.76586e-07 0)
(-6.74924e-07 1.77977e-07 0)
(-7.68159e-07 1.79896e-07 0)
(-8.62543e-07 1.82793e-07 0)
(-9.58137e-07 1.86339e-07 0)
(-1.05503e-06 1.90356e-07 0)
(-1.15343e-06 1.94747e-07 0)
(-1.25384e-06 1.99099e-07 0)
(-1.35683e-06 2.03629e-07 0)
(-1.46275e-06 2.08447e-07 0)
(-1.57158e-06 2.13727e-07 0)
(-1.68351e-06 2.19793e-07 0)
(-1.79853e-06 2.26428e-07 0)
(-1.91636e-06 2.33551e-07 0)
(-2.03751e-06 2.41015e-07 0)
(-2.16232e-06 2.48421e-07 0)
(-2.29083e-06 2.55636e-07 0)
(-2.42381e-06 2.62775e-07 0)
(-2.5618e-06 2.69887e-07 0)
(-2.70474e-06 2.77065e-07 0)
(-2.85289e-06 2.84832e-07 0)
(-3.00663e-06 2.93436e-07 0)
(-3.16585e-06 3.02951e-07 0)
(-3.33017e-06 3.13621e-07 0)
(-3.49987e-06 3.25143e-07 0)
(-3.6754e-06 3.37403e-07 0)
(-3.85672e-06 3.49432e-07 0)
(-4.04427e-06 3.61334e-07 0)
(-4.23874e-06 3.73082e-07 0)
(-4.44078e-06 3.86014e-07 0)
(-4.65087e-06 4.00571e-07 0)
(-4.86865e-06 4.17095e-07 0)
(-5.09353e-06 4.34209e-07 0)
(-5.32544e-06 4.5189e-07 0)
(-5.56518e-06 4.69792e-07 0)
(-5.81382e-06 4.87896e-07 0)
(-6.07163e-06 5.0778e-07 0)
(-6.33795e-06 5.29262e-07 0)
(-6.61227e-06 5.51939e-07 0)
(-6.89453e-06 5.7573e-07 0)
(-7.1847e-06 5.99664e-07 0)
(-7.48297e-06 6.23032e-07 0)
(-7.78976e-06 6.45412e-07 0)
(-8.10553e-06 6.66481e-07 0)
(-8.4307e-06 6.86152e-07 0)
(-8.76566e-06 7.04476e-07 0)
(-9.11043e-06 7.21466e-07 0)
(-9.46474e-06 7.37032e-07 0)
(-9.8283e-06 7.50882e-07 0)
(-1.02005e-05 7.62929e-07 0)
(-1.058e-05 7.72913e-07 0)
(-1.09655e-05 7.80153e-07 0)
(-1.13553e-05 7.83976e-07 0)
(-1.1747e-05 7.83665e-07 0)
(-1.21381e-05 7.78186e-07 0)
(-1.25258e-05 7.66434e-07 0)
(-1.29073e-05 7.47642e-07 0)
(-1.32797e-05 7.21121e-07 0)
(-1.36399e-05 6.86424e-07 0)
(-1.39848e-05 6.43797e-07 0)
(-1.43117e-05 5.94001e-07 0)
(-1.46177e-05 5.38157e-07 0)
(-1.49004e-05 4.77897e-07 0)
(-1.51575e-05 4.15171e-07 0)
(-1.53874e-05 3.51787e-07 0)
(-1.5589e-05 2.89545e-07 0)
(-1.57628e-05 2.30239e-07 0)
(-1.59101e-05 1.75452e-07 0)
(-1.60335e-05 1.26863e-07 0)
(-1.61368e-05 8.60583e-08 0)
(-1.62251e-05 5.49559e-08 0)
(-1.63047e-05 3.54977e-08 0)
(-1.63824e-05 2.96073e-08 0)
(-1.64661e-05 3.92917e-08 0)
(-1.65635e-05 6.62652e-08 0)
(-1.6683e-05 1.11674e-07 0)
(-1.68331e-05 1.76003e-07 0)
(-1.70229e-05 2.5915e-07 0)
(-1.72614e-05 3.60496e-07 0)
(-1.75573e-05 4.78329e-07 0)
(-1.79189e-05 6.10783e-07 0)
(-1.83534e-05 7.55298e-07 0)
(-1.88666e-05 9.08494e-07 0)
(-1.94624e-05 1.06618e-06 0)
(-2.01422e-05 1.22317e-06 0)
(-2.09076e-05 1.3735e-06 0)
(-2.1742e-05 1.5102e-06 0)
(-2.27317e-05 1.63046e-06 0)
(-2.32668e-05 1.69191e-06 0)
(-2.55069e-05 1.81924e-06 0)
(-2.41505e-05 1.54162e-06 0)
(-2.80857e-05 7.94098e-07 0)
(3.4126e-08 -1.2439e-07 0)
(3.23273e-08 1.31212e-07 0)
(-6.61913e-08 2.11521e-07 0)
(-1.32304e-07 2.19768e-07 0)
(-2.3158e-07 2.18673e-07 0)
(-3.13269e-07 2.18265e-07 0)
(-4.04128e-07 2.19088e-07 0)
(-4.92771e-07 2.2024e-07 0)
(-5.82968e-07 2.21862e-07 0)
(-6.74428e-07 2.23858e-07 0)
(-7.67328e-07 2.26482e-07 0)
(-8.61354e-07 2.30048e-07 0)
(-9.56677e-07 2.34283e-07 0)
(-1.05331e-06 2.39093e-07 0)
(-1.15151e-06 2.44455e-07 0)
(-1.25175e-06 2.49881e-07 0)
(-1.3545e-06 2.55734e-07 0)
(-1.46018e-06 2.61968e-07 0)
(-1.56871e-06 2.68718e-07 0)
(-1.68034e-06 2.76326e-07 0)
(-1.79511e-06 2.84498e-07 0)
(-1.91269e-06 2.93226e-07 0)
(-2.03366e-06 3.02417e-07 0)
(-2.15837e-06 3.11649e-07 0)
(-2.28675e-06 3.20915e-07 0)
(-2.4196e-06 3.30398e-07 0)
(-2.55752e-06 3.39978e-07 0)
(-2.70037e-06 3.49821e-07 0)
(-2.84835e-06 3.60348e-07 0)
(-3.00197e-06 3.71692e-07 0)
(-3.16108e-06 3.83873e-07 0)
(-3.32526e-06 3.97098e-07 0)
(-3.49486e-06 4.1125e-07 0)
(-3.67043e-06 4.26397e-07 0)
(-3.85194e-06 4.41595e-07 0)
(-4.03962e-06 4.56963e-07 0)
(-4.23405e-06 4.72421e-07 0)
(-4.43564e-06 4.8907e-07 0)
(-4.64511e-06 5.07253e-07 0)
(-4.86254e-06 5.27318e-07 0)
(-5.08709e-06 5.48093e-07 0)
(-5.31862e-06 5.69546e-07 0)
(-5.55795e-06 5.91604e-07 0)
(-5.80572e-06 6.14038e-07 0)
(-6.06215e-06 6.38202e-07 0)
(-6.327e-06 6.63674e-07 0)
(-6.59992e-06 6.90401e-07 0)
(-6.88088e-06 7.18212e-07 0)
(-7.16976e-06 7.46157e-07 0)
(-7.46655e-06 7.73661e-07 0)
(-7.77164e-06 8.00382e-07 0)
(-8.08557e-06 8.25994e-07 0)
(-8.40885e-06 8.50425e-07 0)
(-8.74184e-06 8.73621e-07 0)
(-9.08464e-06 8.95401e-07 0)
(-9.43706e-06 9.15624e-07 0)
(-9.7988e-06 9.33951e-07 0)
(-1.01692e-05 9.50006e-07 0)
(-1.05473e-05 9.63342e-07 0)
(-1.09316e-05 9.73201e-07 0)
(-1.13205e-05 9.78662e-07 0)
(-1.17116e-05 9.78764e-07 0)
(-1.21024e-05 9.72384e-07 0)
(-1.24903e-05 9.58341e-07 0)
(-1.28721e-05 9.35741e-07 0)
(-1.32448e-05 9.03855e-07 0)
(-1.36053e-05 8.62212e-07 0)
(-1.39504e-05 8.11033e-07 0)
(-1.4277e-05 7.5119e-07 0)
(-1.45821e-05 6.83968e-07 0)
(-1.4863e-05 6.1114e-07 0)
(-1.51175e-05 5.34878e-07 0)
(-1.53437e-05 4.57368e-07 0)
(-1.55409e-05 3.80845e-07 0)
(-1.57091e-05 3.07691e-07 0)
(-1.58497e-05 2.40115e-07 0)
(-1.59654e-05 1.80281e-07 0)
(-1.60602e-05 1.30453e-07 0)
(-1.61391e-05 9.30803e-08 0)
(-1.62083e-05 7.06159e-08 0)
(-1.62749e-05 6.54619e-08 0)
(-1.63465e-05 7.9913e-08 0)
(-1.64314e-05 1.15873e-07 0)
(-1.65381e-05 1.74637e-07 0)
(-1.66754e-05 2.56848e-07 0)
(-1.68527e-05 3.62418e-07 0)
(-1.70792e-05 4.90542e-07 0)
(-1.73642e-05 6.39457e-07 0)
(-1.77163e-05 8.06823e-07 0)
(-1.8143e-05 9.89606e-07 0)
(-1.86505e-05 1.18371e-06 0)
(-1.92433e-05 1.38394e-06 0)
(-1.99234e-05 1.58396e-06 0)
(-2.06926e-05 1.7763e-06 0)
(-2.15343e-05 1.952e-06 0)
(-2.25421e-05 2.1041e-06 0)
(-2.30776e-05 2.19656e-06 0)
(-2.53685e-05 2.30478e-06 0)
(-2.40238e-05 2.03103e-06 0)
(-2.79595e-05 1.00592e-06 0)
(3.13444e-08 -1.40685e-07 0)
(2.70565e-08 1.5713e-07 0)
(-6.905e-08 2.50587e-07 0)
(-1.34165e-07 2.6216e-07 0)
(-2.32204e-07 2.61902e-07 0)
(-3.13245e-07 2.61991e-07 0)
(-4.03673e-07 2.6318e-07 0)
(-4.92054e-07 2.64755e-07 0)
(-5.81986e-07 2.66925e-07 0)
(-6.73161e-07 2.69509e-07 0)
(-7.65663e-07 2.72833e-07 0)
(-8.59288e-07 2.77064e-07 0)
(-9.54271e-07 2.82006e-07 0)
(-1.05056e-06 2.87631e-07 0)
(-1.14852e-06 2.93948e-07 0)
(-1.24854e-06 3.00431e-07 0)
(-1.35101e-06 3.07589e-07 0)
(-1.45643e-06 3.1521e-07 0)
(-1.56461e-06 3.23407e-07 0)
(-1.6759e-06 3.32552e-07 0)
(-1.79037e-06 3.42249e-07 0)
(-1.90765e-06 3.52577e-07 0)
(-2.02844e-06 3.63474e-07 0)
(-2.15303e-06 3.74559e-07 0)
(-2.28127e-06 3.85928e-07 0)
(-2.41398e-06 3.97741e-07 0)
(-2.55177e-06 4.09807e-07 0)
(-2.6944e-06 4.2225e-07 0)
(-2.84206e-06 4.355e-07 0)
(-2.99533e-06 4.49567e-07 0)
(-3.15409e-06 4.64388e-07 0)
(-3.31785e-06 4.80166e-07 0)
(-3.48699e-06 4.96946e-07 0)
(-3.66226e-06 5.14983e-07 0)
(-3.84369e-06 5.33436e-07 0)
(-4.03124e-06 5.52199e-07 0)
(-4.22535e-06 5.71382e-07 0)
(-4.42631e-06 5.91639e-07 0)
(-4.63492e-06 6.13437e-07 0)
(-4.85169e-06 6.37065e-07 0)
(-5.07578e-06 6.61519e-07 0)
(-5.30672e-06 6.86782e-07 0)
(-5.54519e-06 7.12963e-07 0)
(-5.7921e-06 7.3967e-07 0)
(-6.04766e-06 7.68072e-07 0)
(-6.31179e-06 7.97684e-07 0)
(-6.58429e-06 8.2854e-07 0)
(-6.86472e-06 8.60386e-07 0)
(-7.15303e-06 8.92392e-07 0)
(-7.44946e-06 9.24072e-07 0)
(-7.75443e-06 9.55197e-07 0)
(-8.06852e-06 9.85443e-07 0)
(-8.39207e-06 1.01465e-06 0)
(-8.7253e-06 1.04272e-06 0)
(-9.06841e-06 1.06935e-06 0)
(-9.42124e-06 1.09429e-06 0)
(-9.78348e-06 1.11715e-06 0)
(-1.01546e-05 1.13734e-06 0)
(-1.05337e-05 1.15423e-06 0)
(-1.09195e-05 1.16692e-06 0)
(-1.13103e-05 1.17425e-06 0)
(-1.1704e-05 1.17503e-06 0)
(-1.2098e-05 1.16801e-06 0)
(-1.24896e-05 1.15187e-06 0)
(-1.28756e-05 1.12556e-06 0)
(-1.32526e-05 1.08833e-06 0)
(-1.36174e-05 1.03969e-06 0)
(-1.39666e-05 9.79845e-07 0)
(-1.42968e-05 9.09686e-07 0)
(-1.46048e-05 8.30666e-07 0)
(-1.48874e-05 7.44781e-07 0)
(-1.51424e-05 6.54452e-07 0)
(-1.53679e-05 5.6225e-07 0)
(-1.5563e-05 4.70863e-07 0)
(-1.57279e-05 3.83205e-07 0)
(-1.58639e-05 3.02137e-07 0)
(-1.59736e-05 2.30449e-07 0)
(-1.60611e-05 1.71043e-07 0)
(-1.61315e-05 1.26897e-07 0)
(-1.61911e-05 1.00965e-07 0)
(-1.62468e-05 9.61212e-08 0)
(-1.63064e-05 1.14993e-07 0)
(-1.63785e-05 1.59696e-07 0)
(-1.64718e-05 2.31674e-07 0)
(-1.65957e-05 3.31695e-07 0)
(-1.67597e-05 4.5972e-07 0)
(-1.69737e-05 6.1489e-07 0)
(-1.72471e-05 7.95359e-07 0)
(-1.75891e-05 9.984e-07 0)
(-1.80079e-05 1.22048e-06 0)
(-1.85101e-05 1.45685e-06 0)
(-1.91007e-05 1.70143e-06 0)
(-1.97824e-05 1.94668e-06 0)
(-2.05579e-05 2.18362e-06 0)
(-2.14105e-05 2.40112e-06 0)
(-2.24396e-05 2.58829e-06 0)
(-2.29877e-05 2.71255e-06 0)
(-2.53311e-05 2.81155e-06 0)
(-2.40159e-05 2.52702e-06 0)
(-2.79843e-05 1.22608e-06 0)
(2.93855e-08 -1.55536e-07 0)
(2.38134e-08 1.8288e-07 0)
(-7.07645e-08 2.88769e-07 0)
(-1.35172e-07 3.03925e-07 0)
(-2.3236e-07 3.0467e-07 0)
(-3.1285e-07 3.05508e-07 0)
(-4.02893e-07 3.07132e-07 0)
(-4.90996e-07 3.09179e-07 0)
(-5.80656e-07 3.11867e-07 0)
(-6.71513e-07 3.15017e-07 0)
(-7.63579e-07 3.19017e-07 0)
(-8.56777e-07 3.23914e-07 0)
(-9.51356e-07 3.29575e-07 0)
(-1.04722e-06 3.36039e-07 0)
(-1.14488e-06 3.4329e-07 0)
(-1.2446e-06 3.50846e-07 0)
(-1.34676e-06 3.5931e-07 0)
(-1.4519e-06 3.68286e-07 0)
(-1.55966e-06 3.77943e-07 0)
(-1.67058e-06 3.88663e-07 0)
(-1.78472e-06 3.9992e-07 0)
(-1.90165e-06 4.11942e-07 0)
(-2.02223e-06 4.24645e-07 0)
(-2.14665e-06 4.37633e-07 0)
(-2.27467e-06 4.5108e-07 0)
(-2.40721e-06 4.65126e-07 0)
(-2.54484e-06 4.79586e-07 0)
(-2.68719e-06 4.94529e-07 0)
(-2.83447e-06 5.10429e-07 0)
(-2.98739e-06 5.27217e-07 0)
(-3.14577e-06 5.44732e-07 0)
(-3.30906e-06 5.63107e-07 0)
(-3.47761e-06 5.82549e-07 0)
(-3.65238e-06 6.03453e-07 0)
(-3.83356e-06 6.25214e-07 0)
(-4.0209e-06 6.47319e-07 0)
(-4.21462e-06 6.70159e-07 0)
(-4.41492e-06 6.93984e-07 0)
(-4.62275e-06 7.19359e-07 0)
(-4.83882e-06 7.4654e-07 0)
(-5.06243e-06 7.74747e-07 0)
(-5.29304e-06 8.03834e-07 0)
(-5.53122e-06 8.3411e-07 0)
(-5.77767e-06 8.65138e-07 0)
(-6.03257e-06 8.97738e-07 0)
(-6.29599e-06 9.31629e-07 0)
(-6.56783e-06 9.66605e-07 0)
(-6.84768e-06 1.00247e-06 0)
(-7.13565e-06 1.03867e-06 0)
(-7.43208e-06 1.07469e-06 0)
(-7.73731e-06 1.11036e-06 0)
(-8.05177e-06 1.14535e-06 0)
(-8.37576e-06 1.17938e-06 0)
(-8.70955e-06 1.21237e-06 0)
(-9.05334e-06 1.24397e-06 0)
(-9.40709e-06 1.27372e-06 0)
(-9.77049e-06 1.30123e-06 0)
(-1.01431e-05 1.32577e-06 0)
(-1.05241e-05 1.34648e-06 0)
(-1.09124e-05 1.36227e-06 0)
(-1.13062e-05 1.37178e-06 0)
(-1.17037e-05 1.3736e-06 0)
(-1.21021e-05 1.36628e-06 0)
(-1.24988e-05 1.3483e-06 0)
(-1.28903e-05 1.31845e-06 0)
(-1.32732e-05 1.27594e-06 0)
(-1.36439e-05 1.2203e-06 0)
(-1.39987e-05 1.15163e-06 0)
(-1.43339e-05 1.07087e-06 0)
(-1.46458e-05 9.79652e-07 0)
(-1.49315e-05 8.80177e-07 0)
(-1.51881e-05 7.75117e-07 0)
(-1.54138e-05 6.67494e-07 0)
(-1.56075e-05 5.60523e-07 0)
(-1.57695e-05 4.57603e-07 0)
(-1.5901e-05 3.62224e-07 0)
(-1.60046e-05 2.77899e-07 0)
(-1.60843e-05 2.08197e-07 0)
(-1.61453e-05 1.56665e-07 0)
(-1.61938e-05 1.26765e-07 0)
(-1.62372e-05 1.21774e-07 0)
(-1.62833e-05 1.4463e-07 0)
(-1.63409e-05 1.97722e-07 0)
(-1.6419e-05 2.82711e-07 0)
(-1.65275e-05 4.00468e-07 0)
(-1.66765e-05 5.51004e-07 0)
(-1.6876e-05 7.33482e-07 0)
(-1.71361e-05 9.46031e-07 0)
(-1.74665e-05 1.18565e-06 0)
(-1.78759e-05 1.44831e-06 0)
(-1.83717e-05 1.72865e-06 0)
(-1.89595e-05 2.0197e-06 0)
(-1.9643e-05 2.3127e-06 0)
(-2.04258e-05 2.59692e-06 0)
(-2.1292e-05 2.85916e-06 0)
(-2.23453e-05 3.08501e-06 0)
(-2.29153e-05 3.24337e-06 0)
(-2.53147e-05 3.34349e-06 0)
(-2.40421e-05 3.04049e-06 0)
(-2.80702e-05 1.46228e-06 0)
(2.87115e-08 -1.69582e-07 0)
(2.29163e-08 2.08598e-07 0)
(-7.13191e-08 3.26665e-07 0)
(-1.3531e-07 3.45449e-07 0)
(-2.32043e-07 3.47192e-07 0)
(-3.12096e-07 3.48903e-07 0)
(-4.01852e-07 3.50984e-07 0)
(-4.8967e-07 3.53526e-07 0)
(-5.79044e-07 3.56697e-07 0)
(-6.69543e-07 3.60404e-07 0)
(-7.61129e-07 3.65045e-07 0)
(-8.5386e-07 3.7061e-07 0)
(-9.47964e-07 3.76996e-07 0)
(-1.04336e-06 3.84314e-07 0)
(-1.14067e-06 3.92484e-07 0)
(-1.24001e-06 4.01129e-07 0)
(-1.34179e-06 4.10903e-07 0)
(-1.44663e-06 4.21176e-07 0)
(-1.5539e-06 4.32308e-07 0)
(-1.66438e-06 4.44635e-07 0)
(-1.77818e-06 4.57467e-07 0)
(-1.89468e-06 4.71252e-07 0)
(-2.015e-06 4.85867e-07 0)
(-2.13925e-06 5.00783e-07 0)
(-2.26698e-06 5.16259e-07 0)
(-2.39928e-06 5.32499e-07 0)
(-2.5367e-06 5.49281e-07 0)
(-2.67871e-06 5.66651e-07 0)
(-2.82557e-06 5.85123e-07 0)
(-2.97812e-06 6.04643e-07 0)
(-3.13614e-06 6.24903e-07 0)
(-3.29895e-06 6.45991e-07 0)
(-3.46684e-06 6.6809e-07 0)
(-3.64096e-06 6.91843e-07 0)
(-3.82177e-06 7.16851e-07 0)
(-4.0088e-06 7.42336e-07 0)
(-4.20212e-06 7.68729e-07 0)
(-4.40186e-06 7.96138e-07 0)
(-4.60892e-06 8.25054e-07 0)
(-4.82432e-06 8.55822e-07 0)
(-5.04753e-06 8.87879e-07 0)
(-5.27789e-06 9.20842e-07 0)
(-5.5157e-06 9.55168e-07 0)
(-5.7616e-06 9.9044e-07 0)
(-6.01592e-06 1.02724e-06 0)
(-6.27871e-06 1.06536e-06 0)
(-6.54997e-06 1.10451e-06 0)
(-6.82959e-06 1.14451e-06 0)
(-7.11749e-06 1.18499e-06 0)
(-7.41392e-06 1.22546e-06 0)
(-7.71923e-06 1.26574e-06 0)
(-8.03379e-06 1.30552e-06 0)
(-8.35803e-06 1.34445e-06 0)
(-8.69225e-06 1.38246e-06 0)
(-9.03666e-06 1.41912e-06 0)
(-9.39137e-06 1.4539e-06 0)
(-9.75614e-06 1.48624e-06 0)
(-1.01305e-05 1.51533e-06 0)
(-1.05138e-05 1.54015e-06 0)
(-1.0905e-05 1.55939e-06 0)
(-1.13025e-05 1.57145e-06 0)
(-1.17044e-05 1.57467e-06 0)
(-1.2108e-05 1.56736e-06 0)
(-1.25104e-05 1.54784e-06 0)
(-1.29084e-05 1.51473e-06 0)
(-1.32982e-05 1.46707e-06 0)
(-1.36758e-05 1.40432e-06 0)
(-1.40371e-05 1.3266e-06 0)
(-1.43781e-05 1.2349e-06 0)
(-1.4695e-05 1.13102e-06 0)
(-1.49843e-05 1.01737e-06 0)
(-1.52432e-05 8.96864e-07 0)
(-1.54695e-05 7.72995e-07 0)
(-1.5662e-05 6.49548e-07 0)
(-1.58209e-05 5.30466e-07 0)
(-1.59475e-05 4.19879e-07 0)
(-1.60443e-05 3.22e-07 0)
(-1.61151e-05 2.41076e-07 0)
(-1.61652e-05 1.81313e-07 0)
(-1.6201e-05 1.46717e-07 0)
(-1.623e-05 1.40959e-07 0)
(-1.62605e-05 1.67278e-07 0)
(-1.63013e-05 2.28336e-07 0)
(-1.63621e-05 3.26065e-07 0)
(-1.64529e-05 4.61506e-07 0)
(-1.65844e-05 6.34744e-07 0)
(-1.67671e-05 8.44963e-07 0)
(-1.70117e-05 1.09027e-06 0)
(-1.73283e-05 1.36752e-06 0)
(-1.77264e-05 1.67224e-06 0)
(-1.82141e-05 1.9984e-06 0)
(-1.87981e-05 2.33819e-06 0)
(-1.94829e-05 2.68151e-06 0)
(-2.02736e-05 3.01599e-06 0)
(-2.11552e-05 3.32649e-06 0)
(-2.22351e-05 3.59559e-06 0)
(-2.28345e-05 3.79242e-06 0)
(-2.52946e-05 3.9045e-06 0)
(-2.40771e-05 3.58166e-06 0)
(-2.81911e-05 1.71898e-06 0)
(2.9273e-08 -1.83473e-07 0)
(2.41534e-08 2.34489e-07 0)
(-7.08082e-08 3.6475e-07 0)
(-1.34654e-07 3.87006e-07 0)
(-2.313e-07 3.89648e-07 0)
(-3.10997e-07 3.92204e-07 0)
(-4.00571e-07 3.94742e-07 0)
(-4.88102e-07 3.97782e-07 0)
(-5.77156e-07 4.01394e-07 0)
(-6.67248e-07 4.05675e-07 0)
(-7.58329e-07 4.10914e-07 0)
(-8.5057e-07 4.17159e-07 0)
(-9.44154e-07 4.24273e-07 0)
(-1.03902e-06 4.32458e-07 0)
(-1.13597e-06 4.41556e-07 0)
(-1.23487e-06 4.51289e-07 0)
(-1.33621e-06 4.62379e-07 0)
(-1.4407e-06 4.73907e-07 0)
(-1.54742e-06 4.86525e-07 0)
(-1.65744e-06 5.00453e-07 0)
(-1.77087e-06 5.14845e-07 0)
(-1.88688e-06 5.30371e-07 0)
(-2.00687e-06 5.46905e-07 0)
(-2.1309e-06 5.63776e-07 0)
(-2.25827e-06 5.81286e-07 0)
(-2.39022e-06 5.99779e-07 0)
(-2.5274e-06 6.18886e-07 0)
(-2.66904e-06 6.38658e-07 0)
(-2.81539e-06 6.59608e-07 0)
(-2.96751e-06 6.81871e-07 0)
(-3.12514e-06 7.04871e-07 0)
(-3.28752e-06 7.28763e-07 0)
(-3.45471e-06 7.53527e-07 0)
(-3.62802e-06 7.80118e-07 0)
(-3.80832e-06 8.08244e-07 0)
(-3.99498e-06 8.37163e-07 0)
(-4.18778e-06 8.67039e-07 0)
(-4.38677e-06 8.98013e-07 0)
(-4.59289e-06 9.30454e-07 0)
(-4.80727e-06 9.6481e-07 0)
(-5.02946e-06 1.00071e-06 0)
(-5.25905e-06 1.03767e-06 0)
(-5.49643e-06 1.07605e-06 0)
(-5.74194e-06 1.11554e-06 0)
(-5.99577e-06 1.15652e-06 0)
(-6.25798e-06 1.19881e-06 0)
(-6.52877e-06 1.24222e-06 0)
(-6.8081e-06 1.28647e-06 0)
(-7.0959e-06 1.33127e-06 0)
(-7.39241e-06 1.37623e-06 0)
(-7.69791e-06 1.42113e-06 0)
(-8.01273e-06 1.4657e-06 0)
(-8.33733e-06 1.50962e-06 0)
(-8.67211e-06 1.55272e-06 0)
(-9.01731e-06 1.59458e-06 0)
(-9.37312e-06 1.63455e-06 0)
(-9.73944e-06 1.67194e-06 0)
(-1.01159e-05 1.70585e-06 0)
(-1.05019e-05 1.73509e-06 0)
(-1.08965e-05 1.75815e-06 0)
(-1.12984e-05 1.77317e-06 0)
(-1.17054e-05 1.7782e-06 0)
(-1.21151e-05 1.77128e-06 0)
(-1.25244e-05 1.75059e-06 0)
(-1.29301e-05 1.71449e-06 0)
(-1.33279e-05 1.66174e-06 0)
(-1.37134e-05 1.59175e-06 0)
(-1.40824e-05 1.50475e-06 0)
(-1.44305e-05 1.40173e-06 0)
(-1.47533e-05 1.28458e-06 0)
(-1.50471e-05 1.156e-06 0)
(-1.53086e-05 1.01924e-06 0)
(-1.55357e-05 8.78212e-07 0)
(-1.5727e-05 7.37257e-07 0)
(-1.58825e-05 6.00947e-07 0)
(-1.60034e-05 4.74099e-07 0)
(-1.60922e-05 3.61596e-07 0)
(-1.61528e-05 2.68377e-07 0)
(-1.61905e-05 1.99364e-07 0)
(-1.62118e-05 1.59134e-07 0)
(-1.62245e-05 1.518e-07 0)
(-1.6237e-05 1.80956e-07 0)
(-1.62588e-05 2.4951e-07 0)
(-1.62999e-05 3.59662e-07 0)
(-1.63706e-05 5.12701e-07 0)
(-1.64821e-05 7.08841e-07 0)
(-1.66456e-05 9.47287e-07 0)
(-1.68721e-05 1.22612e-06 0)
(-1.71726e-05 1.54217e-06 0)
(-1.75572e-05 1.89059e-06 0)
(-1.80351e-05 2.26471e-06 0)
(-1.86142e-05 2.65574e-06 0)
(-1.92999e-05 3.05236e-06 0)
(-2.00988e-05 3.4408e-06 0)
(-2.09976e-05 3.804e-06 0)
(-2.21067e-05 4.12209e-06 0)
(-2.27422e-05 4.36354e-06 0)
(-2.52689e-05 4.4991e-06 0)
(-2.41191e-05 4.1606e-06 0)
(-2.83473e-05 2.00318e-06 0)
(3.07054e-08 -1.98045e-07 0)
(2.69249e-08 2.6043e-07 0)
(-6.94273e-08 4.03151e-07 0)
(-1.33305e-07 4.28626e-07 0)
(-2.30184e-07 4.32037e-07 0)
(-3.09579e-07 4.35297e-07 0)
(-3.99038e-07 4.38244e-07 0)
(-4.86288e-07 4.41714e-07 0)
(-5.74995e-07 4.45671e-07 0)
(-6.64649e-07 4.50486e-07 0)
(-7.55225e-07 4.5623e-07 0)