/*--------------------------------*- C++ -*----------------------------------*\
| =========                 |                                                 |
| \\      /  F ield         | OpenFOAM: The Open Source CFD Toolbox           |
|  \\    /   O peration     | Version:  2.4.0                                 |
|   \\  /    A nd           | Web:      www.OpenFOAM.org                      |
|    \\/     M anipulation  |                                                 |
\*---------------------------------------------------------------------------*/
FoamFile
{
    version     2.0;
    format      ascii;
    class       surfaceScalarField;
    location    "0.081";
    object      phiAlpha;
}
// * * * * * * * * * * * * * * * * * * * * * * * * * * * * * * * * * * * * * //

dimensions      [0 3 -1 0 0 0 0];

internalField   nonuniform List<scalar> 
7080
(
3.3634e-13
-3.36318e-13
1.04681e-12
-7.10648e-13
1.52672e-12
-4.80461e-13
1.82172e-12
-2.95865e-13
2.11483e-12
-2.94425e-13
2.01005e-12
1.03348e-13
1.515e-12
4.93199e-13
-3.64444e-14
1.5492e-12
-2.18519e-12
2.14631e-12
-6.9328e-12
4.74468e-12
-1.28242e-11
5.88841e-12
-2.56438e-11
1.28154e-11
-4.00495e-11
1.44023e-11
-7.07187e-11
3.06643e-11
-1.02618e-10
3.18953e-11
-1.64311e-10
6.1687e-11
-2.20616e-10
5.63029e-11
-3.36623e-10
1.15997e-10
-4.62671e-10
1.26047e-10
-5.54759e-10
9.20831e-11
-4.51922e-10
-1.02843e-10
-2.55947e-10
-1.95973e-10
-4.03533e-11
-2.15599e-10
9.95426e-11
-1.39891e-10
1.46228e-10
-4.66939e-11
1.54206e-10
-7.97019e-12
1.27004e-10
2.71928e-11
9.96278e-11
2.73834e-11
6.84614e-11
3.11609e-11
2.41756e-11
4.42881e-11
-3.10187e-13
-2.63563e-14
-1.3664e-12
3.44767e-13
-3.37544e-12
1.52741e-12
-6.65418e-12
2.98113e-12
-1.12906e-11
4.34006e-12
-1.75643e-11
6.37577e-12
-2.55069e-11
8.43277e-12
-3.6027e-11
1.20647e-11
-4.93906e-11
1.55059e-11
-6.75054e-11
2.28535e-11
-8.91867e-11
2.75638e-11
-1.21544e-10
4.51631e-11
-1.53934e-10
4.6788e-11
-2.0984e-10
8.65604e-11
-2.56166e-10
7.8214e-11
-3.39346e-10
1.44857e-10
-3.9707e-10
1.14023e-10
-5.12882e-10
2.31794e-10
-6.11532e-10
2.24693e-10
-6.55271e-10
1.35817e-10
-4.82902e-10
-2.75222e-10
-2.20109e-10
-4.5876e-10
2.77338e-11
-4.63455e-10
1.84352e-10
-2.96497e-10
2.21851e-10
-8.42098e-11
2.18769e-10
-4.87415e-12
1.74289e-10
7.16583e-11
1.33845e-10
6.78369e-11
9.08954e-11
7.41044e-11
5.61406e-11
5.89312e-11
-3.90778e-13
3.64215e-13
-1.76846e-12
1.72175e-12
-4.12205e-12
3.88008e-12
-7.69282e-12
6.55051e-12
-1.28991e-11
9.54491e-12
-1.99826e-11
1.34587e-11
-2.96851e-11
1.81328e-11
-4.15769e-11
2.39524e-11
-5.85101e-11
3.24359e-11
-7.85013e-11
4.28393e-11
-1.04417e-10
5.34739e-11
-1.3898e-10
7.97178e-11
-1.75083e-10
8.28872e-11
-2.32669e-10
1.44138e-10
-2.78834e-10
1.24373e-10
-3.61229e-10
2.27244e-10
-4.13458e-10
1.66247e-10
-5.23666e-10
3.41987e-10
-6.18652e-10
3.19675e-10
-6.55115e-10
1.72275e-10
-4.73084e-10
-4.57263e-10
-1.99764e-10
-7.32075e-10
5.01099e-11
-7.13342e-10
2.04568e-10
-4.50942e-10
2.37113e-10
-1.16773e-10
2.2999e-10
2.26365e-12
1.81831e-10
1.19803e-10
1.38737e-10
1.1094e-10
9.40445e-11
1.18792e-10
8.65913e-11
6.35944e-11
-1.44161e-13
5.08205e-13
-9.95326e-13
2.57228e-12
-2.91973e-12
5.80355e-12
-6.0459e-12
9.67532e-12
-1.10759e-11
1.45735e-11
-1.7677e-11
2.0059e-11
-2.82666e-11
2.87201e-11
-3.96741e-11
3.53558e-11
-5.79501e-11
5.07088e-11
-7.72552e-11
6.21391e-11
-1.04496e-10
8.07098e-11
-1.38252e-10
1.13465e-10
-1.75808e-10
1.2044e-10
-2.32061e-10
2.00382e-10
-2.79057e-10
1.71363e-10
-3.60741e-10
3.08919e-10
-4.11779e-10
2.17281e-10
-5.21388e-10
4.51583e-10
-6.24234e-10
4.22517e-10
-6.62936e-10
2.10974e-10
-4.75681e-10
-6.44529e-10
-1.9355e-10
-1.0142e-09
5.89766e-11
-9.65881e-10
2.12058e-10
-6.0401e-10
2.41637e-10
-1.46369e-10
2.32304e-10
1.1611e-11
1.8295e-10
1.69142e-10
1.39297e-10
1.54601e-10
9.40746e-11
1.64009e-10
1.19138e-10
6.15283e-11
-1.85005e-13
6.93039e-13
-1.03698e-12
3.42363e-12
-2.94679e-12
7.71247e-12
-5.88627e-12
1.26135e-11
-1.10835e-11
1.97693e-11
-1.71547e-11
2.61294e-11
-2.82107e-11
3.97737e-11
-3.88995e-11
4.60406e-11
-5.80558e-11
6.98622e-11
-7.63424e-11
8.04204e-11
-1.04512e-10
1.08874e-10
-1.373e-10
1.46244e-10
-1.75951e-10
1.59088e-10
-2.30743e-10
2.55166e-10
-2.79754e-10
2.20367e-10
-3.61131e-10
3.90289e-10
-4.11586e-10
2.67732e-10
-5.20668e-10
5.60651e-10
-6.35716e-10
5.37562e-10
-6.78191e-10
2.53445e-10
-4.83936e-10
-8.38795e-10
-1.89693e-10
-1.30844e-09
6.69962e-11
-1.22258e-09
2.18805e-10
-7.55806e-10
2.45139e-10
-1.72719e-10
2.33544e-10
2.322e-11
1.83195e-10
2.19477e-10
1.3916e-10
1.98645e-10
9.38205e-11
2.09343e-10
1.5229e-10
6.06691e-11
-2.32132e-13
9.25e-13
-1.12487e-12
4.31576e-12
-3.12546e-12
9.7122e-12
-5.97823e-12
1.54649e-11
-1.1392e-11
2.51817e-11
-1.71264e-11
3.18631e-11
-2.8749e-11
5.1394e-11
-3.86266e-11
5.59142e-11
-5.87949e-11
9.00274e-11
-7.59625e-11
9.75827e-11
-1.05052e-10
1.37959e-10
-1.36987e-10
1.78171e-10
-1.7673e-10
1.98827e-10
-2.31173e-10
3.09602e-10
-2.81545e-10
2.70733e-10
-3.62691e-10
4.71427e-10
-4.12471e-10
3.17509e-10
-5.2182e-10
6.69988e-10
-6.51259e-10
6.66998e-10
-6.98547e-10
3.00731e-10
-4.95361e-10
-1.04199e-09
-1.85185e-10
-1.6186e-09
7.67812e-11
-1.48456e-09
2.26914e-10
-9.05927e-10
2.49183e-10
-1.95005e-10
2.34836e-10
3.75807e-11
1.83329e-10
2.70971e-10
1.38853e-10
2.4313e-10
9.34943e-11
2.54697e-10
1.85493e-10
6.02916e-11
-2.38973e-13
1.16381e-12
-1.11318e-12
5.18938e-12
-3.15422e-12
1.17524e-11
-5.85385e-12
1.81633e-11
-1.16095e-11
3.09361e-11
-1.69198e-11
3.71726e-11
-2.9419e-11
6.38908e-11
-3.83622e-11
6.48535e-11
-5.97965e-11
1.11459e-10
-7.5848e-11
1.13629e-10
-1.05839e-10
1.67945e-10
-1.37024e-10
2.09346e-10
-1.77868e-10
2.39669e-10
-2.32272e-10
3.63997e-10
-2.84081e-10
3.22537e-10
-3.65024e-10
5.52363e-10
-4.1429e-10
3.66772e-10
-5.2401e-10
7.79696e-10
-6.70479e-10
8.13463e-10
-7.23818e-10
3.54068e-10
-5.09622e-10
-1.2562e-09
-1.79439e-10
-1.94878e-09
8.88602e-11
-1.75287e-09
2.36751e-10
-1.05381e-09
2.54006e-10
-2.12275e-10
2.36334e-10
5.52664e-11
1.83456e-10
3.23835e-10
1.38461e-10
2.88134e-10
9.31024e-11
3.0005e-10
2.18649e-10
5.99461e-11
-3.64257e-13
1.52789e-12
-1.33751e-12
6.16204e-12
-3.36777e-12
1.37818e-11
-5.90978e-12
2.0704e-11
-1.18951e-11
3.69201e-11
-1.69463e-11
4.22229e-11
-3.03752e-11
7.73174e-11
-3.84975e-11
7.29719e-11
-6.1495e-11
1.34453e-10
-7.60049e-11
1.28133e-10
-1.06838e-10
1.98774e-10
-1.37301e-10
2.39801e-10
-1.79259e-10
2.81624e-10
-2.33887e-10
4.18616e-10
-2.87464e-10
3.76108e-10
-3.68019e-10
6.32911e-10
-4.16233e-10
4.14983e-10
-5.26421e-10
8.89872e-10
-6.93457e-10
9.80496e-10
-7.54342e-10
4.14953e-10
-5.26061e-10
-1.48449e-09
-1.72228e-10
-2.3026e-09
1.03459e-10
-2.02857e-09
2.48407e-10
-1.19874e-09
2.59624e-10
-2.23508e-10
2.38033e-10
7.68704e-11
1.83576e-10
3.78279e-10
1.37989e-10
3.33729e-10
9.26376e-11
3.45396e-10
2.51719e-10
5.95676e-11
-3.85616e-13
1.91332e-12
-1.27621e-12
7.05215e-12
-3.16357e-12
1.56685e-11
-5.16927e-12
2.27087e-11
-1.18022e-11
4.35521e-11
-1.58475e-11
4.62674e-11
-3.10006e-11
9.24683e-11
-3.74358e-11
7.94031e-11
-6.24305e-11
1.59444e-10
-7.59877e-11
1.41685e-10
-1.07543e-10
2.30324e-10
-1.37764e-10
2.70013e-10
-1.80838e-10
3.24695e-10
-2.35992e-10
4.73762e-10
-2.91653e-10
4.31764e-10
-3.71631e-10
7.12882e-10
-4.16849e-10
4.60197e-10
-5.28574e-10
1.00159e-09
-7.20333e-10
1.17225e-09
-7.90564e-10
4.85184e-10
-5.44412e-10
-1.73066e-09
-1.63335e-10
-2.68367e-09
1.20784e-10
-2.3127e-09
2.61922e-10
-1.33987e-09
2.66001e-10
-2.27602e-10
2.3989e-10
1.02994e-10
1.83661e-10
4.34495e-10
1.37422e-10
3.79976e-10
9.20872e-11
3.90727e-10
2.84695e-10
5.91114e-11
-3.59423e-13
2.27256e-12
-1.20865e-12
7.90096e-12
-3.34192e-12
1.78011e-11
-5.52899e-12
2.48948e-11
-1.29704e-11
5.09927e-11
-1.67961e-11
5.00923e-11
-3.30984e-11
1.08769e-10
-3.89274e-11
8.52285e-11
-6.61098e-11
1.86624e-10
-7.74537e-11
1.53024e-10
-1.09564e-10
2.62429e-10
-1.38449e-10
2.98889e-10
-1.82639e-10
3.68883e-10
-2.38614e-10
5.29728e-10
-2.96184e-10
4.89329e-10
-3.75984e-10
7.92676e-10
-4.16125e-10
5.00335e-10
-5.30111e-10
1.11556e-09
-7.51455e-10
1.39359e-09
-8.33192e-10
5.66921e-10
-5.65202e-10
-1.99866e-09
-1.52536e-10
-3.09633e-09
1.41087e-10
-2.60634e-09
2.77386e-10
-1.47615e-09
2.73141e-10
-2.23371e-10
2.41897e-10
1.3425e-10
1.83713e-10
4.92667e-10
1.36769e-10
4.26927e-10
9.1457e-11
4.36034e-10
3.17565e-10
5.85869e-11
-2.92313e-13
2.56467e-12
-1.03987e-12
8.64825e-12
-3.51948e-12
2.028e-11
-4.87803e-12
2.62523e-11
-1.27966e-11
5.89103e-11
-1.34197e-11
5.07142e-11
-3.2568e-11
1.27915e-10
-3.55217e-11
8.81786e-11
-6.60927e-11
2.17192e-10
-7.63407e-11
1.63266e-10
-1.08321e-10
2.94405e-10
-1.39132e-10
3.29691e-10
-1.84481e-10
4.1423e-10
-2.41776e-10
5.87014e-10
-3.00835e-10
5.48384e-10
-3.81114e-10
8.72949e-10
-4.14053e-10
5.33271e-10
-5.30591e-10
1.2321e-09
-7.87203e-10
1.6502e-09
-8.8301e-10
6.6273e-10
-5.88816e-10
-2.29286e-09
-1.39537e-10
-3.5456e-09
1.64652e-10
-2.91054e-09
2.94874e-10
-1.60636e-09
2.81017e-10
-2.09528e-10
2.44021e-10
1.71257e-10
1.83713e-10
5.52963e-10
1.36022e-10
4.74626e-10
9.07451e-11
4.81307e-10
3.50313e-10
5.79968e-11
-2.92615e-13
2.85706e-12
-1.00384e-12
9.35928e-12
-3.79983e-12
2.30754e-11
-4.70998e-12
2.71615e-11
-1.35611e-11
6.77609e-11
-1.44406e-11
5.15927e-11
-3.67033e-11
1.50176e-10
-4.05079e-11
9.19798e-11
-7.40281e-11
2.5071e-10
-8.17032e-11
1.70936e-10
-1.13401e-10
3.26099e-10
-1.40504e-10
3.56786e-10
-1.86981e-10
4.60705e-10
-2.45505e-10
6.4553e-10
-3.06142e-10
6.09017e-10
-3.87429e-10
9.5423e-10
-4.1022e-10
5.56059e-10
-5.2929e-10
1.35116e-09
-8.28083e-10
1.94899e-09
-9.40865e-10
7.75515e-10
-6.15513e-10
-2.61823e-09
-1.23973e-10
-4.03713e-09
1.91788e-10
-3.22631e-09
3.1444e-10
-1.729e-09
2.89572e-10
-1.84673e-10
2.46202e-10
2.14638e-10
1.83629e-10
6.15525e-10
1.35165e-10
5.23097e-10
8.9942e-11
5.26526e-10
3.82918e-10
5.73371e-11
9.21292e-14
2.76468e-12
4.34348e-13
9.01729e-12
-9.65055e-13
2.44745e-11
1.12743e-12
2.50687e-11
-8.24724e-12
7.71359e-11
-5.58786e-12
4.89317e-11
-3.39094e-11
1.78496e-10
-3.31157e-11
9.11834e-11
-7.1338e-11
2.8893e-10
-7.71292e-11
1.76723e-10
-1.06876e-10
3.55842e-10
-1.40309e-10
3.9021e-10
-1.88182e-10
5.08577e-10
-2.49791e-10
7.07131e-10
-3.12468e-10
6.7169e-10
-3.94936e-10
1.03669e-09
-4.04369e-10
5.65489e-10
-5.25729e-10
1.47252e-09
-8.75506e-10
2.29876e-09
-1.00796e-09
9.07978e-10
-6.45658e-10
-2.98055e-09
-1.05433e-10
-4.57735e-09
2.22886e-10
-3.55464e-09
3.36194e-10
-1.8423e-09
2.98789e-10
-1.47281e-10
2.48416e-10
2.65022e-10
1.83455e-10
6.80475e-10
1.34202e-10
5.72356e-10
8.90549e-11
5.7167e-10
4.15366e-10
5.66062e-11
1.59261e-13
2.60511e-12
1.61967e-12
7.55749e-12
9.00037e-14
2.60043e-11
2.83863e-12
2.23202e-11
-1.07671e-11
9.07423e-11
-9.21957e-12
4.73835e-11
-4.34694e-11
2.12744e-10
-4.48751e-11
9.2587e-11
-8.74169e-11
3.3147e-10
-9.14745e-11
1.80776e-10
-1.18899e-10
3.83263e-10
-1.43867e-10
4.1517e-10
-1.92618e-10
5.57328e-10
-2.54976e-10
7.69482e-10
-3.20457e-10
7.37168e-10
-4.05168e-10
1.1214e-09
-3.95201e-10
5.55518e-10
-5.18427e-10
1.59574e-09
-9.29434e-10
2.70976e-09
-1.08562e-09
1.06417e-09
-6.79601e-10
-3.38658e-09
-8.3405e-11
-5.17354e-09
2.58382e-10
-3.89644e-09
3.60231e-10
-1.94414e-09
3.08617e-10
-9.56792e-11
2.50615e-10
3.23034e-10
1.8317e-10
7.47909e-10
1.33128e-10
6.22405e-10
8.8083e-11
6.16711e-10
4.47649e-10
5.58001e-11
1.16356e-12
1.44129e-12
4.96382e-12
3.75869e-12
4.23895e-12
2.67298e-11
1.26874e-11
1.38726e-11
-3.10316e-12
1.06534e-10
6.41073e-12
3.78681e-11
-3.65208e-11
2.55677e-10
-3.12093e-11
8.72755e-11
-8.02824e-11
3.80542e-10
-7.98548e-11
1.80346e-10
-1.00482e-10
4.03889e-10
-1.38739e-10
4.5342e-10
-1.90367e-10
6.08956e-10
-2.59647e-10
8.38754e-10
-3.29394e-10
8.06913e-10
-4.14534e-10
1.20654e-09
-3.84389e-10
5.25369e-10
-5.08276e-10
1.71963e-09
-9.87763e-10
3.18924e-09
-1.17534e-09
1.25176e-09
-7.17651e-10
-3.84429e-09
-5.72551e-11
-5.83392e-09
2.98753e-10
-4.25246e-09
3.86612e-10
-2.03199e-09
3.18963e-10
-2.80419e-11
2.52719e-10
3.89288e-10
1.82735e-10
8.17884e-10
1.31922e-10
6.73222e-10
8.70178e-11
6.61613e-10
4.7974e-10
5.49265e-11
1.13161e-12
3.09514e-13
9.42348e-12
-4.53171e-12
7.19626e-12
2.89581e-11
2.01236e-11
9.47484e-13
-4.83915e-12
1.315e-10
1.99473e-12
3.10351e-11
-5.2093e-11
3.09769e-10
-5.47896e-11
8.99738e-11
-1.11575e-10
4.37328e-10
-1.11939e-10
1.80708e-10
-1.25954e-10
4.17902e-10
-1.47717e-10
4.75175e-10
-1.99768e-10
6.61007e-10
-2.68435e-10
9.07415e-10
-3.42118e-10
8.80593e-10
-4.32759e-10
1.29718e-09
-3.63589e-10
4.56195e-10
-4.87788e-10
1.84383e-09
-1.05203e-09
3.75348e-09
-1.27902e-09
1.47876e-09
-7.60357e-10
-4.36297e-09
-2.61757e-11
-6.5681e-09
3.44593e-10
-4.62324e-09
4.15466e-10
-2.10285e-09
3.29778e-10
5.76349e-11
2.54687e-10
4.64388e-10
1.8214e-10
8.90422e-10
1.30591e-10
7.24776e-10
8.58663e-11
7.06335e-10
5.11601e-10
5.40048e-11
6.33236e-12
-6.02225e-12
2.3211e-11
-2.14068e-11
1.70994e-11
3.50724e-11
4.27352e-11
-2.46836e-11
1.45787e-11
1.59663e-10
3.60332e-11
9.58152e-12
-3.89791e-11
3.84784e-10
-3.71688e-11
8.81684e-11
-1.00083e-10
5.00246e-10
-8.74892e-11
1.68114e-10
-8.32042e-11
4.13618e-10
-1.28048e-10
5.20014e-10
-1.88317e-10
7.21278e-10
-2.72113e-10
9.91206e-10
-3.53483e-10
9.61961e-10
-4.45226e-10
1.38892e-09
-3.49409e-10
3.60373e-10
-4.69998e-10
1.96443e-09
-1.12352e-09
4.40699e-09
-1.39905e-09
1.75429e-09
-8.08221e-10
-4.95381e-09
9.73354e-12
-7.38604e-09
3.96555e-10
-5.01007e-09
4.46909e-10
-2.1532e-09
3.40958e-10
1.63576e-10
2.56444e-10
5.4891e-10
1.81358e-10
9.655e-10
1.29127e-10
7.77013e-10
8.46271e-11
7.50832e-10
5.4319e-10
5.30383e-11
1.36099e-11
-1.96317e-11
5.58448e-11
-6.36343e-11
3.02961e-11
6.06254e-11
6.89174e-11
-6.32984e-11
1.83259e-11
2.10264e-10
3.21402e-11
-4.2251e-12
-6.81309e-11
4.85065e-10
-8.31471e-11
1.03191e-10
-1.59909e-10
5.77012e-10
-1.54312e-10
1.62518e-10
-1.35811e-10
3.9512e-10
-1.52234e-10
5.36433e-10
-2.09636e-10
7.78682e-10
-2.87727e-10
1.06929e-09
-3.73782e-10
1.04801e-09
-4.71424e-10
1.48656e-09
-3.04558e-10
1.93501e-10
-4.2383e-10
2.08371e-09
-1.20197e-09
5.18512e-09
-1.53736e-09
2.0897e-09
-8.61919e-10
-5.62926e-09
5.06552e-11
-8.29861e-09
4.55314e-10
-5.41473e-09
4.81e-10
-2.17887e-09
3.52355e-10
2.92211e-10
2.57888e-10
6.43385e-10
1.80345e-10
1.04303e-09
1.27511e-10
8.29851e-10
8.32904e-11
7.95051e-10
5.74461e-10
5.20183e-11
5.86416e-11
-7.82707e-11
2.06751e-10
-2.11721e-10
1.48643e-10
1.18736e-10
1.80868e-10
-9.55183e-11
8.23584e-11
3.08778e-10
8.9554e-11
-1.14107e-11
-4.78182e-11
6.22427e-10
-7.35711e-11
1.28953e-10
-1.45353e-10
6.48801e-10
-1.02117e-10
1.19286e-10
-4.09043e-11
3.33911e-10
-9.58334e-11
5.91359e-10
-1.77372e-10
8.60221e-10
-2.93106e-10
1.18502e-09
-3.90369e-10
1.14528e-09
-4.96047e-10
1.59224e-09
-2.91455e-10
-1.10976e-11
-3.97164e-10
2.18944e-09
-1.28999e-09
6.07794e-09
-1.69823e-09
2.49794e-09
-9.22177e-10
-6.40533e-09
1.00235e-10
-9.32101e-09
5.21785e-10
-5.83629e-09
5.17872e-10
-2.17495e-09
3.63851e-10
4.46223e-10
2.58948e-10
7.48295e-10
1.79085e-10
1.12289e-09
1.25749e-10
8.83191e-10
8.18614e-11
8.38937e-10
6.05377e-10
5.0945e-11
6.03175e-11
-1.3859e-10
3.20788e-10
-4.6992e-10
2.4961e-10
1.90678e-10
2.99823e-10
-1.45725e-10
1.02167e-10
5.06442e-10
6.71969e-11
2.35766e-11
-1.31163e-10
8.20773e-10
-1.76875e-10
1.74664e-10
-2.57103e-10
7.29042e-10
-2.28085e-10
9.02734e-11
-1.44902e-10
2.50734e-10
-1.54319e-10
6.00778e-10
-2.22126e-10
9.28031e-10
-3.12277e-10
1.27517e-09
-4.18005e-10
1.25101e-09
-5.257e-10
1.69994e-09
-2.04619e-10
-3.32187e-10
-3.09009e-10
2.29385e-09
-1.3847e-09
7.15362e-09
-1.88266e-09
2.99592e-09
-9.89867e-10
-7.29814e-09
1.59308e-10
-1.04702e-08
5.9684e-10
-6.27383e-09
5.57597e-10
-2.1357e-09
3.75266e-10
6.28545e-10
2.59523e-10
8.64045e-10
1.77547e-10
1.20486e-09
1.23835e-10
9.36908e-10
8.03377e-11
8.82432e-10
6.35902e-10
4.98127e-11
-9.50813e-12
-1.27763e-10
1.15417e-10
-5.94639e-10
2.97555e-10
9.64398e-12
4.36303e-10
-2.83668e-10
2.64297e-10
6.78245e-10
1.85674e-10
1.02216e-10
-1.26477e-10
1.13297e-09
-2.13684e-10
2.61899e-10
-2.65179e-10
7.80557e-10
-1.40625e-10
-3.42807e-11
3.60287e-11
7.40856e-11
-1.9525e-11
6.56339e-10
-1.46325e-10
1.05483e-09
-3.18048e-10
1.44689e-09
-4.50961e-10
1.38392e-09
-5.79307e-10
1.82829e-09
-1.95404e-10
-7.16099e-10
-2.68024e-10
2.36649e-09
-1.49602e-09
8.3816e-09
-2.10049e-09
3.6004e-09
-1.0665e-09
-8.33215e-09
2.29627e-10
-1.17663e-08
6.81826e-10
-6.72604e-09
6.00236e-10
-2.0541e-09
3.86349e-10
8.42424e-10
2.59479e-10
9.90922e-10
1.75682e-10
1.28865e-09
1.2175e-10
9.90843e-10
7.87109e-11
9.25469e-10
6.66e-10
4.86124e-11
-5.22834e-11
-7.5413e-11
-2.60915e-10
-3.8583e-10
-1.90375e-10
-6.00046e-11
1.45421e-11
-4.89301e-10
-6.95394e-11
7.62409e-10
-4.25404e-11
7.52438e-11
-2.70143e-11
1.11753e-09
-3.47111e-10
5.82035e-10
-4.35101e-10
8.68583e-10
-3.5029e-10
-1.1908e-10
-1.30919e-10
-1.45281e-10
-1.34829e-10
6.60254e-10
-2.32801e-10
1.15281e-09
-3.33612e-10
1.5477e-09
-4.79219e-10
1.52953e-09
-6.06791e-10
1.95586e-09
-4.48662e-11
-1.27804e-09
-1.19793e-10
2.44145e-09
-1.60891e-09
9.87071e-09
-2.34492e-09
4.33642e-09
-1.15155e-09
-9.52553e-09
3.10692e-10
-1.32285e-08
7.77193e-10
-7.19254e-09
6.45696e-10
-1.9226e-09
3.96774e-10
1.09134e-09
2.5871e-10
1.12899e-09
1.73473e-10
1.37388e-09
1.19502e-10
1.04482e-09
7.69888e-11
9.67981e-10
6.95637e-10
4.73516e-11
-4.30969e-11
-3.22433e-11
-3.0593e-10
-1.228e-10
-3.25918e-10
-4.02472e-11
-6.73125e-11
-7.52728e-10
-3.96771e-10
1.09217e-09
-3.25406e-10
3.92739e-12
-4.92285e-10
1.28447e-09
-6.52583e-10
7.42338e-10
-4.65312e-10
6.81346e-10
-1.71881e-10
-4.12503e-10
1.90829e-10
-5.07988e-10
1.63922e-10
6.87178e-10
-7.30457e-11
1.38977e-09
-3.55482e-10
1.83013e-09
-5.50455e-10
1.72451e-09
-7.08132e-10
2.11354e-09
-3.89175e-11
-1.94726e-09
-5.75607e-11
2.46013e-09
-1.75818e-09
1.15713e-08
-2.64555e-09
5.2238e-09
-1.25155e-09
-1.09195e-08
4.08487e-10
-1.48886e-08
8.86189e-10
-7.67025e-09
6.9462e-10
-1.73102e-09
4.05959e-10
1.37999e-09
2.571e-10
1.27785e-09
1.70891e-10
1.46008e-09
1.17086e-10
1.09863e-09
7.51708e-11
1.0099e-09
7.24777e-10
4.60303e-11
-1.11148e-10
7.89563e-11
-1.85654e-10
-4.80594e-11
-3.70307e-10
1.41165e-10
5.6937e-11
-1.17994e-09
6.98276e-11
1.07929e-09
-9.28717e-11
1.6664e-10
-2.48419e-10
1.44004e-09
-7.12309e-10
1.20625e-09
-9.44728e-10
9.13799e-10
-4.70286e-10
-8.86941e-10
2.5209e-13
-9.78536e-10
-7.96835e-11
7.67137e-10
-2.5717e-10
1.56725e-09
-3.54394e-10
1.92734e-09
-5.67649e-10
1.93778e-09
-7.38958e-10
2.28485e-09
1.68279e-10
-2.85451e-09
2.02897e-10
2.42555e-09
-1.89021e-09
1.36644e-08
-2.96731e-09
6.30091e-09
-1.35738e-09
-1.25295e-08
5.19481e-10
-1.67654e-08
1.00693e-09
-8.15771e-09
7.451e-10
-1.46918e-09
4.11918e-10
1.71317e-09
2.54423e-10
1.43535e-09
1.67877e-10
1.54662e-09
1.14481e-10
1.15202e-09
7.32472e-11
1.05113e-09
7.53377e-10
4.46472e-11
1.37728e-10
-5.80204e-11
-5.97545e-11
1.49686e-10
-3.44341e-10
4.24659e-10
-2.03533e-10
-1.32073e-09
1.36192e-10
7.3958e-10
-1.49266e-10
4.52121e-10
-1.6416e-10
1.45496e-09
-2.63885e-10
1.306e-09
-7.34465e-10
1.38441e-09
-2.2432e-10
-1.39709e-09
5.6936e-10
-1.77222e-09
5.36588e-10
7.99945e-10
8.53471e-11
2.01849e-09
-4.17995e-10
2.43067e-09
-7.12371e-10
2.23217e-09
-9.02701e-10
2.47519e-09
1.75097e-10
-3.93232e-09
3.09843e-10
2.29085e-09
-2.10023e-09
1.60745e-08
-3.38665e-09
7.58734e-09
-1.49279e-09
-1.44234e-08
6.52887e-10
-1.89111e-08
1.1462e-09
-8.65103e-09
8.01281e-10
-1.12425e-09
4.19231e-10
2.09522e-09
2.50706e-10
1.60388e-09
1.64482e-10
1.63285e-09
1.11737e-10
1.20477e-09
7.12492e-11
1.09162e-09
7.81409e-10
4.32168e-11
-3.31782e-10
2.73209e-10
-3.98278e-10
2.15815e-10
-4.16615e-10
4.41562e-10
-4.02275e-10
-1.33507e-09
-4.30497e-10
7.6736e-10
-7.48255e-10
7.69975e-10
-8.11823e-10
1.51856e-09
-1.25517e-09
1.74934e-09
-1.18497e-09
1.31423e-09
-6.10051e-10
-1.97199e-09
3.39755e-10
-2.72205e-09
2.67773e-11
1.11295e-09
-3.33706e-10
2.37898e-09
-3.7712e-10
2.47407e-09
-6.88616e-10
2.54368e-09
-9.5812e-10
2.74469e-09
4.58511e-10
-5.34897e-09
7.26309e-10
2.0231e-09
-2.24864e-09
1.90494e-08
-3.8173e-09
9.156e-09
-1.62106e-09
-1.66196e-08
8.15161e-10
-2.13473e-08
1.30367e-09
-9.13954e-09
8.56102e-10
-6.76675e-10
4.22808e-10
2.52851e-09
2.45285e-10
1.78141e-09
1.60516e-10
1.71761e-09
1.08735e-10
1.25655e-09
6.90948e-11
1.13125e-09
8.0881e-10
4.1693e-11
-1.21632e-10
3.95081e-10
3.7989e-11
5.71761e-11
-4.28915e-10
9.0852e-10
-7.0177e-10
-1.06232e-09
-1.13184e-09
1.19708e-09
-8.09102e-10
4.47369e-10
-2.74929e-10
9.8441e-10
-4.30914e-10
1.90532e-09
-2.43646e-10
1.12697e-09
-6.97397e-11
-2.14589e-09
1.13456e-09
-3.92638e-09
9.14615e-10
1.33293e-09
-4.72784e-12
3.29831e-09
-5.00404e-10
2.96973e-09
-9.06377e-10
2.94967e-09
-1.13359e-09
2.97191e-09
5.20571e-10
-7.00314e-09
8.99266e-10
1.64446e-09
-2.52902e-09
2.24777e-08
-4.37962e-09
1.10066e-08
-1.80297e-09
-1.91963e-08
9.79297e-10
-2.41296e-08
1.4685e-09
-9.62875e-09
9.17463e-10
-1.25633e-10
4.28481e-10
3.01749e-09
2.39573e-10
1.97032e-09
1.56559e-10
1.80062e-09
1.05884e-10
1.30723e-09
6.7064e-11
1.17007e-09
8.35623e-10
4.02508e-11
2.19378e-10
1.10982e-10
5.46208e-10
-2.23894e-10
2.76523e-10
1.17825e-09
-3.50263e-10
-4.35618e-10
-9.21453e-11
9.38708e-10
-1.7256e-10
5.27929e-10
4.55506e-10
3.56359e-10
-1.35378e-09
3.71459e-09
-9.92519e-10
7.65721e-10
4.44876e-10
-3.58333e-09
5.8891e-10
-4.07042e-09
6.68979e-10
1.25287e-09
1.18585e-09
2.78139e-09
1.2776e-10
4.02781e-09
-4.47324e-10
3.52476e-09
-1.00131e-09
3.52591e-09
1.06164e-09
-9.06609e-09
1.69763e-09
1.00853e-09
-2.54089e-09
2.67162e-08
-4.87195e-09
1.33377e-08
-1.90934e-09
-2.21589e-08
1.25515e-09
-2.72941e-08
1.70497e-09
-1.00786e-08
9.88451e-10
5.9089e-10
4.2817e-10
3.57777e-09
2.31867e-10
2.16662e-09
1.52793e-10
1.8797e-09
1.03356e-10
1.35667e-09
6.51728e-11
1.20826e-09
8.61979e-10
3.88169e-11
2.11325e-10
-1.79477e-10
-2.87243e-11
1.12291e-10
5.02362e-10
6.47199e-10
1.52051e-10
-8.68829e-11
9.06318e-10
1.84507e-10
2.05909e-09
-6.24912e-10
2.60055e-09
-1.85112e-10
1.12508e-09
5.1901e-09
8.77197e-10
1.01357e-09
2.82672e-09
-5.53279e-09
1.51741e-10
-1.39542e-09
-3.67402e-09
5.0785e-09
-1.97688e-09
1.08437e-09
2.85958e-10
1.76494e-09
1.1951e-09
2.61562e-09
-4.75255e-11
4.76853e-09
1.87498e-09
-1.09886e-08
2.34097e-09
5.42606e-10
-2.36495e-09
3.14221e-08
-5.01615e-09
1.29448e-08
-1.77159e-09
-2.4784e-08
1.54996e-09
-3.06156e-08
1.91289e-09
-1.04415e-08
1.0722e-09
1.43159e-09
4.54502e-10
4.19546e-09
2.43916e-10
2.37721e-09
1.61928e-10
1.96168e-09
1.0965e-10
1.40895e-09
6.89063e-11
1.249e-09
8.90138e-10
4.07464e-11
-9.31661e-10
6.53964e-10
-1.01673e-09
2.15818e-10
3.359e-10
-4.36983e-10
-6.14544e-10
6.92074e-10
-1.91032e-09
1.15963e-09
-6.05541e-10
-6.4906e-10
8.7898e-10
-6.3876e-10
-5.21783e-10
2.836e-09
-1.52912e-09
9.71025e-10
3.26029e-09
-6.97277e-09
1.4256e-09
8.46042e-11
-1.27452e-09
5.2858e-09
3.59202e-09
-1.49726e-09
1.03446e-08
-1.94759e-09
1.02828e-08
1.90869e-09
4.63128e-09
4.95202e-09
5.68044e-09
-5.07898e-09
7.34317e-09
-1.92927e-10
9.04406e-10
1.39583e-08
-2.34974e-09
2.19512e-09
-2.28073e-10
-7.36169e-09
2.76393e-09
-1.05855e-08
2.67407e-09
-3.36602e-09
1.42846e-09
2.6772e-09
6.20179e-10
5.00374e-09
3.5925e-10
2.63814e-09
2.4739e-10
2.07354e-09
1.71611e-10
1.48473e-09
1.08563e-10
1.31205e-09
6.50413e-11
9.3366e-10
3.87774e-11
5.51023e-12
3.47065e-11
4.06765e-12
3.03457e-11
4.36519e-12
2.51441e-11
5.19729e-12
2.08245e-11
4.32337e-12
1.76983e-11
3.12349e-12
1.49824e-11
2.71787e-12
1.2631e-11
2.35023e-12
1.0572e-11
2.05969e-12
9.10751e-12
1.4641e-12
7.74893e-12
1.35874e-12
6.38697e-12
1.36185e-12
5.23992e-12
1.14705e-12
4.48469e-12
7.55223e-13
3.81512e-12
6.6957e-13
3.35958e-12
4.55571e-13
2.78421e-12
5.75432e-13
2.38347e-12
4.00765e-13
2.30306e-12
8.05374e-14
2.04486e-12
2.58185e-13
1.8826e-12
1.62501e-13
1.81548e-12
6.69424e-14
1.76174e-12
5.42047e-14
1.80926e-12
-4.79545e-14
1.64711e-12
1.63002e-13
1.75984e-12
-1.13488e-13
5.83365e-13
1.17787e-12
1.26811e-12
-6.85773e-13
-3.8345e-13
1.65339e-12
-3.8464e-13
5.0871e-11
1.3574e-11
4.46914e-11
1.024e-11
3.76818e-11
1.13827e-11
3.09953e-11
1.1877e-11
2.64793e-11
8.84495e-12
2.23892e-11
7.20985e-12
1.88991e-11
6.21056e-12
1.60638e-11
5.18393e-12
1.34716e-11
4.65278e-12
1.15141e-11
3.42107e-12
9.79046e-12
3.08253e-12
7.76958e-12
3.38263e-12
6.41091e-12
2.50572e-12
5.58964e-12
1.57652e-12
4.72303e-12
1.53623e-12
4.00039e-12
1.17827e-12
3.45138e-12
1.12461e-12
2.99244e-12
8.59719e-13
2.69115e-12
3.82174e-13
2.46227e-12
4.86887e-13
2.33002e-12
2.95421e-13
2.21613e-12
1.80262e-13
2.21944e-12
5.21326e-14
2.25955e-12
-8.91762e-14
1.94954e-12
4.75137e-13
2.09286e-12
-2.58482e-13
7.90744e-13
2.48306e-12
1.35651e-12
-1.25362e-12
-7.15465e-13
3.7292e-12
-1.10125e-12
5.43195e-11
2.28526e-11
4.30944e-11
2.14578e-11
3.59567e-11
1.8528e-11
3.13065e-11
1.65208e-11
2.71164e-11
1.30402e-11
2.29343e-11
1.13884e-11
1.93408e-11
9.80647e-12
1.6603e-11
7.92035e-12
1.41199e-11
7.13658e-12
1.14766e-11
6.06399e-12
9.25422e-12
5.30502e-12
7.94337e-12
4.69337e-12
6.73451e-12
3.71459e-12
5.75087e-12
2.56018e-12
4.80782e-12
2.47932e-12
3.99745e-12
1.9887e-12
3.55638e-12
1.56586e-12
3.09506e-12
1.32104e-12
2.57515e-12
9.02434e-13
2.39939e-12
6.62446e-13
2.39878e-12
2.96697e-13
2.27781e-12
3.00647e-13
2.34803e-12
-1.68536e-14
2.40362e-12
-1.45901e-13
1.96191e-12
9.18944e-13
2.12709e-12
-4.25336e-13
8.12422e-13
3.80071e-12
1.20318e-12
-1.64645e-12
-9.56033e-13
5.89201e-12
-2.05837e-12
5.26179e-11
3.17667e-11
4.39262e-11
3.01425e-11
3.73855e-11
2.5076e-11
3.20002e-11
2.19e-11
2.7247e-11
1.77983e-11
2.29759e-11
1.56561e-11
1.93422e-11
1.34424e-11
1.63977e-11
1.08636e-11
1.38021e-11
9.7329e-12
1.13884e-11
8.47721e-12
9.4062e-12
7.28739e-12
7.97189e-12
6.1276e-12
6.78209e-12
4.90439e-12
5.82054e-12
3.52175e-12
4.83765e-12
3.46226e-12
4.07022e-12
2.75617e-12
3.53681e-12
2.09944e-12
3.0526e-12
1.80525e-12
2.68856e-12
1.26682e-12
2.46365e-12
8.87155e-13
2.38237e-12
3.78632e-13
2.27173e-12
4.10701e-13
2.28475e-12
-2.86623e-14
2.28851e-12
-1.5079e-13
1.99348e-12
1.21603e-12
2.16267e-12
-5.96173e-13
8.44667e-13
5.12162e-12
1.40296e-12
-2.20676e-12
-9.22128e-13
8.22048e-12
-2.98151e-12
5.19718e-11
4.04676e-11
4.40876e-11
3.80199e-11
3.77285e-11
3.1442e-11
3.20948e-11
2.75279e-11
2.71281e-11
2.27696e-11
2.28795e-11
1.99016e-11
1.92711e-11
1.70529e-11
1.62127e-11
1.39208e-11
1.36064e-11
1.23399e-11
1.13549e-11
1.07284e-11
9.43937e-12
9.20298e-12
7.98944e-12
7.57744e-12
6.87758e-12
6.01626e-12
5.76505e-12
4.6343e-12
4.79201e-12
4.43534e-12
4.06433e-12
3.4839e-12
3.5024e-12
2.66153e-12
3.02956e-12
2.27808e-12
2.70457e-12
1.59214e-12
2.46807e-12
1.12345e-12
2.36645e-12
4.80898e-13
2.26419e-12
5.12372e-13
2.26671e-12
-2.9985e-14
2.23763e-12
-1.2282e-13
2.01199e-12
1.44369e-12
2.18236e-12
-7.6817e-13
8.8346e-13
6.42335e-12
1.52328e-12
-2.84852e-12
-1.03073e-12
1.07777e-11
-4.0132e-12
5.16862e-11
4.90766e-11
4.39651e-11
4.57343e-11
3.75808e-11
3.7833e-11
3.19501e-11
3.31532e-11
2.69333e-11
2.77907e-11
2.27413e-11
2.40907e-11
1.91743e-11
2.06219e-11
1.60118e-11
1.70822e-11
1.34206e-11
1.49316e-11
1.12701e-11
1.28785e-11
9.44679e-12
1.10264e-11
8.05513e-12
8.96902e-12
6.88127e-12
7.19012e-12
5.65291e-12
5.86268e-12
4.72795e-12
5.36034e-12
4.03207e-12
4.17983e-12
3.46547e-12
3.2283e-12
3.02426e-12
2.71927e-12
2.70286e-12
1.91386e-12
2.45129e-12
1.37481e-12
2.34619e-12
5.8664e-13
2.24762e-12
6.10356e-13
2.26935e-12
-5.05322e-14
2.23186e-12
-8.64351e-14
2.04995e-12
1.62758e-12
2.21254e-12
-9.32349e-13
9.47967e-13
7.69068e-12
1.6278e-12
-3.53022e-12
-1.24735e-12
1.36559e-11
-5.26145e-12
5.14103e-11
5.76159e-11
4.37718e-11
5.33663e-11
3.72937e-11
4.43176e-11
3.167e-11
3.87717e-11
2.66859e-11
3.27789e-11
2.25745e-11
2.81994e-11
1.90675e-11
2.41306e-11
1.58254e-11
2.03233e-11
1.32507e-11
1.75068e-11
1.116e-11
1.49689e-11
9.44767e-12
1.27388e-11
8.05323e-12
1.03634e-11
6.80623e-12
8.43712e-12
5.56454e-12
7.10439e-12
4.6913e-12
6.23362e-12
3.99663e-12
4.87454e-12
3.42295e-12
3.80213e-12
3.0066e-12
3.13561e-12
2.69119e-12
2.2296e-12
2.42808e-12
1.63771e-12
2.32151e-12
6.93847e-13
2.22207e-12
7.09214e-13
2.2753e-12
-1.02596e-13
2.24766e-12
-5.98759e-14
2.11997e-12
1.75722e-12
2.26899e-12
-1.08292e-12
1.02259e-12
8.93977e-12
1.74183e-12
-4.25125e-12
-1.49841e-12
1.6899e-11
-6.76069e-12
5.10836e-11
6.61034e-11
4.34942e-11
6.09493e-11
3.69339e-11
5.08841e-11
3.13334e-11
4.43673e-11
2.64122e-11
3.77039e-11
2.2335e-11
3.22741e-11
1.88553e-11
2.7612e-11
1.57674e-11
2.34103e-11
1.31638e-11
2.01109e-11
1.10424e-11
1.70901e-11
9.46764e-12
1.43136e-11
7.99759e-12
1.18334e-11
6.67542e-12
9.75928e-12
5.50124e-12
8.27859e-12
4.66556e-12
7.06934e-12
3.97285e-12
5.56729e-12
3.39704e-12
4.37811e-12
2.98192e-12
3.55071e-12
2.66997e-12
2.54187e-12
2.40556e-12
1.9019e-12
2.3026e-12
7.97434e-13
2.19868e-12
8.12551e-13
2.28227e-12
-1.85023e-13
2.26447e-12
-4.31497e-14
2.20773e-12
1.81588e-12
2.34035e-12
-1.21705e-12
1.03881e-12
1.02439e-11
1.82323e-12
-5.03737e-12
-1.6717e-12
2.03966e-11
-8.43317e-12
5.0668e-11
7.45502e-11
4.31469e-11
6.84643e-11
3.65596e-11
5.74774e-11
3.09927e-11
4.99295e-11
2.61353e-11
4.2565e-11
2.20865e-11
3.63205e-11
1.8648e-11
3.1052e-11
1.56578e-11
2.63996e-11
1.30914e-11
2.26778e-11
1.09842e-11
1.9197e-11
9.34572e-12
1.59522e-11
7.85106e-12
1.3328e-11
6.53583e-12
1.10745e-11
5.43573e-12
9.3787e-12
4.61262e-12
7.89251e-12
3.93188e-12
6.24806e-12
3.36462e-12
4.94553e-12
2.94247e-12
3.97283e-12
2.63652e-12
2.84815e-12
2.37727e-12
2.16092e-12
2.28422e-12
8.91106e-13
2.17699e-12
9.19211e-13
2.2877e-12
-2.94593e-13
2.27721e-12
-3.37106e-14
2.30133e-12
1.79364e-12
2.4132e-12
-1.33039e-12
1.08341e-12
1.15762e-11
1.947e-12
-5.90256e-12
-1.9081e-12
2.42543e-11
-1.0342e-11
5.01743e-11
8.29661e-11
4.27294e-11
7.59033e-11
3.61674e-11
6.4045e-11
3.0638e-11
5.54545e-11
2.58594e-11
4.73469e-11
2.18433e-11
4.03345e-11
1.84275e-11
3.44692e-11
1.54886e-11
2.93377e-11
1.29767e-11
2.51901e-11
1.09028e-11
2.12706e-11
9.20135e-12
1.76537e-11
7.7095e-12
1.48198e-11
6.40479e-12
1.23792e-11
5.35972e-12
1.04238e-11
4.53683e-12
8.71544e-12
3.87351e-12
6.9114e-12
3.32876e-12
5.49044e-12
2.90235e-12
4.39922e-12
2.6058e-12
3.14501e-12
2.34976e-12
2.41674e-12
2.2713e-12
9.70189e-13
2.16157e-12
1.02836e-12
2.29042e-12
-4.22311e-13
2.28575e-12
-3.00706e-14
2.36723e-12
1.71401e-12
2.45552e-12
-1.42011e-12