/*--------------------------------*- C++ -*----------------------------------*\
| =========                 |                                                 |
| \\      /  F ield         | OpenFOAM: The Open Source CFD Toolbox           |
|  \\    /   O peration     | Version:  2.4.0                                 |
|   \\  /    A nd           | Web:      www.OpenFOAM.org                      |
|    \\/     M anipulation  |                                                 |
\*---------------------------------------------------------------------------*/
FoamFile
{
    version     2.0;
    format      ascii;
    class       surfaceScalarField;
    location    "0.093";
    object      phiAlpha;
}
// * * * * * * * * * * * * * * * * * * * * * * * * * * * * * * * * * * * * * //

dimensions      [0 3 -1 0 0 0 0];

internalField   nonuniform List<scalar> 
119500
(
-1.88628e-13
1.88628e-13
-4.24371e-13
2.3621e-13
-7.00802e-13
2.76822e-13
-9.83614e-13
2.8318e-13
-1.26644e-12
2.83162e-13
-1.54816e-12
2.82024e-13
-1.8275e-12
2.79626e-13
-2.10464e-12
2.77418e-13
-2.37909e-12
2.74713e-13
-2.6507e-12
2.71877e-13
-2.91938e-12
2.68942e-13
-3.185e-12
2.65886e-13
-3.44724e-12
2.62532e-13
-3.70547e-12
2.58539e-13
-3.9591e-12
2.53965e-13
-4.20742e-12
2.48697e-13
-4.45024e-12
2.43209e-13
-4.68768e-12
2.37852e-13
-4.92055e-12
2.33299e-13
-5.14928e-12
2.29172e-13
-5.3741e-12
2.25271e-13
-5.59603e-12
2.22377e-13
-5.81484e-12
2.19247e-13
-6.03068e-12
2.16255e-13
-6.24293e-12
2.12635e-13
-6.45063e-12
2.0805e-13
-6.6521e-12
2.01779e-13
-6.84555e-12
1.93715e-13
-7.02843e-12
1.83114e-13
-7.19802e-12
1.69801e-13
-7.35106e-12
1.53231e-13
-7.48359e-12
1.32699e-13
-7.59097e-12
1.07554e-13
-7.66863e-12
7.78347e-14
-7.71117e-12
4.27302e-14
-7.71344e-12
2.47656e-15
-7.66941e-12
-4.37928e-14
-7.57387e-12
-9.52649e-14
-7.42356e-12
-1.50003e-13
-7.21536e-12
-2.07858e-13
-6.94678e-12
-2.68201e-13
-6.61533e-12
-3.31027e-13
-6.22022e-12
-3.94665e-13
-5.76103e-12
-4.58722e-13
-5.23902e-12
-5.21514e-13
-4.65845e-12
-5.80078e-13
-4.02141e-12
-6.36564e-13
-3.33166e-12
-6.89304e-13
-2.59538e-12
-7.3589e-13
-1.8181e-12
-7.76966e-13
-1.0053e-12
-8.12556e-13
-1.62811e-13
-8.42314e-13
7.03828e-13
-8.66513e-13
1.58809e-12
-8.84164e-13
2.48302e-12
-8.94831e-13
3.3821e-12
-8.98979e-13
4.27835e-12
-8.96129e-13
5.16534e-12
-8.86855e-13
6.0368e-12
-8.7133e-13
6.88544e-12
-8.48515e-13
7.7064e-12
-8.20845e-13
8.49459e-12
-7.88104e-13
9.24532e-12
-7.50652e-13
9.9562e-12
-7.10808e-13
1.06217e-11
-6.65421e-13
1.12417e-11
-6.19953e-13
1.18148e-11
-5.73081e-13
1.23406e-11
-5.2564e-13
1.28183e-11
-4.77687e-13
1.32499e-11
-4.31449e-13
1.3636e-11
-3.85977e-13
1.39765e-11
-3.40416e-13
1.4273e-11
-2.96279e-13
1.45268e-11
-2.53605e-13
1.4738e-11
-2.11018e-13
1.49065e-11
-1.68366e-13
1.50331e-11
-1.26408e-13
1.51174e-11
-8.43157e-14
1.51592e-11
-4.17809e-14
1.51578e-11
1.32131e-15
1.51093e-11
4.8367e-14
1.5011e-11
9.80815e-14
1.48597e-11
1.51161e-13
1.46505e-11
2.08908e-13
1.43796e-11
2.70613e-13
1.40417e-11
3.37548e-13
1.36317e-11
4.09635e-13
1.31449e-11
4.86407e-13
1.25771e-11
5.67332e-13
1.19257e-11
6.50808e-13
1.11893e-11
7.35926e-13
1.03676e-11
8.21178e-13
9.46347e-12
9.03714e-13
8.47514e-12
9.87939e-13
7.43464e-12
1.04016e-12
6.2523e-12
1.18205e-12
5.13611e-12
1.11594e-12
3.79467e-12
1.3412e-12
2.63072e-12
1.16376e-12
1.13122e-12
1.49934e-12
-2.83778e-13
4.72848e-13
-7.38229e-13
6.91442e-13
-1.24711e-12
7.86376e-13
-1.77676e-12
8.13446e-13
-2.30153e-12
8.08509e-13
-2.82359e-12
8.04637e-13
-3.34305e-12
7.99605e-13
-3.85991e-12
7.94802e-13
-4.37373e-12
7.8905e-13
-4.88417e-12
7.82839e-13
-5.39111e-12
7.76421e-13
-5.89473e-12
7.70073e-13
-6.39481e-12
7.63217e-13
-6.89093e-12
7.55305e-13
-7.38275e-12
7.46485e-13
-7.86971e-12
7.36396e-13
-8.35111e-12
7.25367e-13
-8.82716e-12
7.14695e-13
-9.29843e-12
7.05372e-13
-9.76499e-12
6.96539e-13
-1.02278e-11
6.88851e-13
-1.06875e-11
6.82874e-13
-1.11438e-11
6.76311e-13
-1.15967e-11
6.69862e-13
-1.2046e-11
6.62522e-13
-1.24893e-11
6.51979e-13
-1.29263e-11
6.39272e-13
-1.33543e-11
6.22105e-13
-1.37703e-11
5.99522e-13
-1.41721e-11
5.71966e-13
-1.45549e-11
5.36441e-13
-1.49152e-11
4.93307e-13
-1.52462e-11
4.3892e-13
-1.55416e-11
3.73695e-13
-1.57938e-11
2.95302e-13
-1.59942e-11
2.03333e-13
-1.61348e-11
9.73526e-14
-1.62085e-11
-2.09746e-14
-1.62092e-11
-1.48648e-13
-1.61316e-11
-2.84733e-13
-1.597e-11
-4.29154e-13
-1.57192e-11
-5.81044e-13
-1.53751e-11
-7.37952e-13
-1.49342e-11
-8.98743e-13
-1.43965e-11
-1.05845e-12
-1.37641e-11
-1.21165e-12
-1.30375e-11
-1.36242e-12
-1.22189e-11
-1.50732e-12
-1.13142e-11
-1.64011e-12
-1.03274e-11
-1.76337e-12
-9.26289e-12
-1.87674e-12
-8.12689e-12
-1.97809e-12
-6.92536e-12
-2.06786e-12
-5.66619e-12
-2.14315e-12
-4.35776e-12
-2.20306e-12
-3.00848e-12
-2.24803e-12
-1.62794e-12
-2.27643e-12
-2.26401e-13
-2.28815e-12
1.18557e-12
-2.28306e-12
2.60097e-12
-2.2637e-12
4.00838e-12
-2.22806e-12
5.3989e-12
-2.17846e-12
6.76261e-12
-2.11419e-12
8.0935e-12
-2.04155e-12
9.38155e-12
-1.95332e-12
1.06244e-11
-1.8627e-12
1.18161e-11
-1.76463e-12
1.29539e-11
-1.66321e-12
1.40327e-11
-1.5563e-12
1.50513e-11
-1.44986e-12
1.60068e-11
-1.34118e-12
1.68955e-11
-1.22887e-12
1.77152e-11
-1.11569e-12
1.84627e-11
-1.00083e-12
1.91363e-11
-8.84383e-13
1.97337e-11
-7.65608e-13
2.02518e-11
-6.44516e-13
2.06887e-11
-5.21275e-13
2.10418e-11
-3.95131e-13
2.13057e-11
-2.62876e-13
2.14758e-11
-1.22089e-13
2.1545e-11
2.84634e-14
2.1506e-11
1.89717e-13
2.1349e-11
3.65428e-13
2.10638e-11
5.55205e-13
2.06413e-11
7.59319e-13
2.00706e-11
9.79534e-13
1.93425e-11
1.21365e-12
1.84496e-11
1.4593e-12
1.73846e-11
1.71493e-12
1.61437e-11
1.97608e-12
1.47253e-11
2.23879e-12
1.31313e-11
2.4971e-12
1.13664e-11
2.75228e-12
9.45658e-12
2.94946e-12
7.35458e-12
3.2836e-12
5.21744e-12
3.25267e-12
2.93046e-12
3.62783e-12
9.27831e-13
3.1661e-12
2.48437e-12
-4.25557e-13
-3.04069e-13
7.77309e-13
-8.34883e-13
1.22298e-12
-1.43581e-12
1.38794e-12
-2.05459e-12
1.43283e-12
-2.6725e-12
1.42699e-12
-3.28624e-12
1.41893e-12
-3.8976e-12
1.41152e-12
-4.50679e-12
1.40455e-12
-5.11356e-12
1.39637e-12
-5.7174e-12
1.38724e-12
-6.31813e-12
1.37772e-12
-6.91586e-12
1.36838e-12
-7.51033e-12
1.35828e-12
-8.10143e-12
1.34703e-12
-8.68902e-12
1.33472e-12
-9.27277e-12
1.32082e-12
-9.85241e-12
1.30569e-12
-1.04281e-11
1.29106e-12
-1.09995e-11
1.2775e-12
-1.15673e-11
1.26507e-12
-1.21327e-11
1.25491e-12
-1.26953e-11
1.24618e-12
-1.32561e-11
1.23769e-12
-1.38146e-11
1.22903e-12
-1.43703e-11
1.2188e-12
-1.49222e-11
1.20447e-12
-1.54695e-11
1.18709e-12
-1.60096e-11
1.16265e-12
-1.65405e-11
1.13087e-12
-1.70588e-11
1.09074e-12
-1.75603e-11
1.0383e-12
-1.80407e-11
9.74187e-13
-1.84934e-11
8.92007e-13
-1.8912e-11
7.9273e-13
-1.92877e-11
6.71404e-13
-1.96125e-11
5.28673e-13
-1.98779e-11
3.6316e-13
-2.00768e-11
1.78416e-13
-2.02012e-11
-2.37157e-14
-2.02452e-11
-2.40181e-13
-2.0202e-11
-4.71891e-13
-2.00664e-11
-7.16126e-13
-1.98326e-11
-9.71202e-13
-1.94976e-11
-1.23316e-12
-1.90601e-11
-1.49547e-12
-1.85194e-11
-1.75182e-12
-1.78772e-11
-2.00423e-12
-1.71347e-11
-2.24935e-12
-1.62947e-11
-2.47979e-12
-1.53608e-11
-2.69705e-12
-1.43371e-11
-2.90024e-12
-1.3229e-11
-3.08597e-12
-1.20428e-11
-3.25395e-12
-1.07856e-11
-3.4002e-12
-9.46522e-12
-3.52317e-12
-8.09041e-12
-3.6226e-12
-6.67005e-12
-3.69653e-12
-5.21413e-12
-3.74379e-12
-3.73207e-12
-3.76484e-12
-2.23488e-12
-3.76062e-12
-7.32318e-13
-3.73036e-12
7.64752e-13
-3.67528e-12
2.24996e-12
-3.59918e-12
3.71102e-12
-3.50241e-12
5.14857e-12
-3.39069e-12
6.5454e-12
-3.25937e-12
7.90068e-12
-3.11976e-12
9.20413e-12
-2.96652e-12
1.04603e-11
-2.81233e-12
1.16568e-11
-2.64621e-12
1.27917e-11
-2.47594e-12
1.38597e-11
-2.29672e-12
1.48573e-11
-2.1132e-12
1.57787e-11
-1.92216e-12
1.66205e-11
-1.72615e-12
1.73789e-11
-1.52411e-12
1.80494e-11
-1.31519e-12
1.86254e-11
-1.09748e-12
1.9103e-11
-8.73034e-13
1.94742e-11
-6.34437e-13
1.97311e-11
-3.79273e-13
1.98639e-11
-1.04755e-13
1.98637e-11
1.89453e-13
1.97155e-11
5.13174e-13
1.9408e-11
8.62234e-13
1.89269e-11
1.23986e-12
1.82602e-11
1.6456e-12
1.73961e-11
2.07715e-12
1.63247e-11
2.53006e-12
1.50374e-11
3.00171e-12
1.35283e-11
3.48463e-12
1.1795e-11
3.97157e-12
9.84029e-12
4.45136e-12
7.67113e-12
4.92103e-12
5.30784e-12
5.31235e-12
2.75776e-12
5.83329e-12
1.68847e-14
5.99317e-12
-2.68259e-12
6.32695e-12
-5.14276e-12
5.62598e-12
3.9103e-12
-6.56896e-12
-3.42389e-13
1.12009e-12
-8.77195e-13
1.75854e-12
-1.50047e-12
2.01188e-12
-2.14721e-12
2.08023e-12
-2.79558e-12
2.07601e-12
-3.44112e-12
2.06512e-12
-4.08451e-12
2.05555e-12
-4.72579e-12
2.0465e-12
-5.36513e-12
2.03636e-12
-6.00231e-12
2.02508e-12
-6.63717e-12
2.01324e-12
-7.26937e-12
2.00123e-12
-7.89858e-12
1.98816e-12
-8.52454e-12
1.97366e-12
-9.14684e-12
1.95769e-12
-9.76498e-12
1.93963e-12
-1.03794e-11
1.92073e-12
-1.09901e-11
1.90248e-12
-1.15972e-11
1.88524e-12
-1.22017e-11
1.87021e-12
-1.2804e-11
1.85794e-12
-1.34043e-11
1.84713e-12
-1.40036e-11
1.83755e-12
-1.46018e-11
1.82791e-12
-1.51982e-11
1.81577e-12
-1.57934e-11
1.80036e-12
-1.63854e-11
1.77963e-12
-1.69727e-11
1.75056e-12
-1.75534e-11
1.71212e-12
-1.8123e-11
1.66085e-12
-1.86783e-11
1.59414e-12
-1.92128e-11
1.50922e-12
-1.97214e-11
1.40112e-12
-2.01964e-11
1.26823e-12
-2.06303e-11
1.10583e-12
-2.10147e-11
9.13532e-13
-2.13418e-11
6.90706e-13
-2.16035e-11
4.40514e-13
-2.17913e-11
1.64444e-13
-2.18983e-11
-1.32762e-13
-2.19173e-11
-4.526e-13
-2.18426e-11
-7.90483e-13
-2.16694e-11
-1.14414e-12
-2.13932e-11
-1.50905e-12
-2.10134e-11
-1.87504e-12
-2.05272e-11
-2.23771e-12
-1.99357e-11
-2.59551e-12
-1.92419e-11
-2.94299e-12
-1.84465e-11
-3.27501e-12
-1.75524e-11
-3.59095e-12
-1.65652e-11
-3.88732e-12
-1.54899e-11
-4.16108e-12
-1.43335e-11
-4.41018e-12
-1.31033e-11
-4.6302e-12
-1.18069e-11
-4.81927e-12
-1.04531e-11
-4.97611e-12
-9.05096e-12
-5.09839e-12
-7.60965e-12
-5.18477e-12
-6.1389e-12
-5.23525e-12
-4.64879e-12
-5.25038e-12
-3.14852e-12
-5.23029e-12
-1.64729e-12
-5.17619e-12
-1.55233e-13
-5.09094e-12
1.31995e-12
-4.97733e-12
2.76939e-12
-4.83992e-12
4.18921e-12
-4.67901e-12
5.56846e-12
-4.49888e-12
6.90122e-12
-4.29918e-12
8.18252e-12
-4.09355e-12
9.40853e-12
-3.87218e-12
1.05739e-11
-3.64128e-12
1.16724e-11
-3.39529e-12
1.2702e-11
-3.14289e-12
1.36561e-11
-2.87638e-12
1.45307e-11
-2.60102e-12
1.53208e-11
-2.31448e-12
1.602e-11
-2.01478e-12
1.66245e-11
-1.7023e-12
1.71237e-11
-1.37259e-12
1.75076e-11
-1.01878e-12
1.77711e-11
-6.43173e-13
1.78997e-11
-2.33668e-13
1.78812e-11
2.07545e-13
1.77039e-11
6.90015e-13
1.73527e-11
1.21294e-12
1.68149e-11
1.77729e-12
1.60754e-11
2.38465e-12
1.51214e-11
3.03076e-12
1.394e-11
3.71101e-12
1.25228e-11
4.41855e-12
1.08627e-11
5.14438e-12
8.95721e-12
5.87676e-12
6.8088e-12
6.59944e-12
4.42578e-12
7.3037e-12
1.82007e-12
7.91769e-12
-9.54601e-13
8.60757e-12
-3.93436e-12
8.97252e-12
-6.93891e-12
9.33113e-12
-9.72329e-12
8.41002e-12
5.63892e-12
-1.14522e-11
-3.60277e-13
1.48079e-12
-9.03797e-13
2.30285e-12
-1.52772e-12
2.63653e-12
-2.18036e-12
2.73359e-12
-2.83638e-12
2.73277e-12
-3.49105e-12
2.72054e-12
-4.14414e-12
2.7094e-12
-4.79555e-12
2.69869e-12
-5.44542e-12
2.68701e-12
-6.09358e-12
2.67401e-12
-6.73971e-12
2.66012e-12
-7.38338e-12
2.64565e-12
-8.02412e-12
2.62962e-12
-8.66142e-12
2.61168e-12
-9.29486e-12
2.59183e-12
-9.92429e-12
2.56973e-12
-1.05498e-11
2.54695e-12
-1.11718e-11
2.52512e-12
-1.17906e-11
2.50472e-12
-1.24067e-11
2.48695e-12
-1.30207e-11
2.47261e-12
-1.36332e-11
2.46032e-12
-1.42447e-11
2.44966e-12
-1.48558e-11
2.43966e-12
-1.54666e-11
2.4273e-12
-1.6077e-11
2.41138e-12
-1.66862e-11
2.38957e-12
-1.72927e-11
2.35769e-12
-1.78938e-11
2.31388e-12
-1.84863e-11
2.25399e-12
-1.90649e-11
2.17338e-12
-1.96247e-11
2.06963e-12
-2.01586e-11
1.93564e-12
-2.066e-11
1.77013e-12
-2.11206e-11
1.56699e-12
-2.15332e-11
1.32653e-12
-2.18885e-11
1.04646e-12
-2.21795e-11
7.31899e-13
-2.23962e-11
3.81394e-13
-2.25315e-11
2.70668e-15
-2.2578e-11
-4.05912e-13
-2.25287e-11
-8.39667e-13
-2.23802e-11
-1.2925e-12
-2.21279e-11
-1.7613e-12
-2.17687e-11
-2.23409e-12
-2.13014e-11
-2.70497e-12
-2.07267e-11
-3.1701e-12
-2.00462e-11
-3.62343e-12
-1.9261e-11
-4.06009e-12
-1.83749e-11
-4.47694e-12
-1.73931e-11
-4.86892e-12
-1.63216e-11
-5.23244e-12
-1.51678e-11
-5.56375e-12
-1.39393e-11
-5.85849e-12
-1.26438e-11
-6.11445e-12
-1.12906e-11
-6.32901e-12
-9.88883e-12
-6.49984e-12
-8.44749e-12
-6.62575e-12
-6.97613e-12
-6.70622e-12
-5.48462e-12
-6.74148e-12
-3.98199e-12
-6.73253e-12
-2.47709e-12
-6.68071e-12
-9.79174e-13
-6.58853e-12
5.03514e-13
-6.45974e-12
1.9612e-12
-6.29738e-12
3.38679e-12
-6.10443e-12
4.77035e-12
-5.88232e-12
6.11522e-12
-5.64399e-12
7.40542e-12
-5.38374e-12
8.63779e-12
-5.10461e-12
9.80646e-12
-4.81007e-12
1.09131e-11
-4.50213e-12
1.19469e-11
-4.17693e-12
1.29091e-11
-3.83896e-12
1.37907e-11
-3.48304e-12
1.45877e-11
-3.11191e-12
1.52946e-11
-2.72219e-12
1.5902e-11
-2.31018e-12
1.64042e-11
-1.87519e-12
1.67928e-11
-1.40779e-12
1.70528e-11
-9.03655e-13
1.71774e-11
-3.58659e-13
1.71501e-11
2.34477e-13
1.69581e-11
8.81644e-13
1.65881e-11
1.58255e-12
1.60244e-11
2.34068e-12
1.52526e-11
3.15612e-12
1.42589e-11
4.02421e-12
1.30308e-11
4.93893e-12
1.15577e-11
5.89141e-12
9.83191e-12
6.86999e-12
7.85018e-12
7.85829e-12
5.61285e-12
8.83651e-12
3.13194e-12
9.78429e-12
4.05354e-13
1.06439e-11
-2.49829e-12
1.15108e-11
-5.57617e-12
1.205e-11
-8.69165e-12
1.24462e-11
-1.15744e-11
1.12924e-11
7.3227e-12
-1.32586e-11
-3.6715e-13
1.84838e-12
-9.17887e-13
2.85441e-12
-1.54299e-12
3.26239e-12
-2.19472e-12
3.3861e-12
-2.85129e-12
3.39013e-12
-3.50788e-12
3.37796e-12
-4.16352e-12
3.36589e-12
-4.81787e-12
3.3539e-12
-5.47096e-12
3.34097e-12
-6.12267e-12
3.32656e-12
-6.7725e-12
3.31078e-12
-7.41992e-12
3.29387e-12
-8.0644e-12
3.27489e-12
-8.70522e-12
3.25326e-12
-9.34184e-12
3.22919e-12
-9.9744e-12
3.203e-12
-1.06031e-11
3.17637e-12
-1.1228e-11
3.15069e-12
-1.18498e-11
3.12718e-12
-1.2469e-11
3.10677e-12
-1.30857e-11
3.08995e-12
-1.37012e-11
3.07648e-12
-1.4316e-11
3.06521e-12
-1.49307e-11
3.05501e-12
-1.55464e-11
3.04371e-12
-1.61626e-11
3.02833e-12
-1.67789e-11
3.00654e-12
-1.73942e-11
2.97369e-12
-1.80052e-11
2.92561e-12
-1.86092e-11
2.85868e-12
-1.92007e-11
2.76562e-12
-1.97742e-11
2.6438e-12
-2.03231e-11
2.48509e-12
-2.08397e-11
2.28731e-12
-2.13163e-11
2.0441e-12
-2.17449e-11
1.7556e-12
-2.21171e-11
1.41902e-12
-2.24237e-11
1.0388e-12
-2.26567e-11
6.14582e-13
-2.28065e-11
1.52608e-13
-2.28661e-11
-3.4622e-13
-2.28292e-11
-8.76462e-13
-2.26904e-11
-1.43134e-12
-2.24463e-11
-2.00545e-12
-2.20942e-11
-2.58619e-12
-2.16309e-11
-3.16837e-12
-2.10568e-11
-3.74415e-12
-2.03741e-11
-4.30609e-12
-1.95844e-11
-4.84972e-12
-1.86919e-11
-5.36933e-12
-1.77022e-11
-5.85849e-12
-1.66214e-11
-6.313e-12
-1.54571e-11
-6.72779e-12
-1.42175e-11
-7.0979e-12
-1.29105e-11
-7.42109e-12
-1.15453e-11
-7.69393e-12
-1.01314e-11
-7.91344e-12
-8.678e-12
-8.07879e-12
-7.19461e-12
-8.18923e-12
-5.69091e-12
-8.24479e-12
-4.17601e-12
-8.24706e-12
-2.65873e-12
-8.19763e-12
-1.14816e-12
-8.09879e-12
3.47194e-13
-7.95482e-12
1.81709e-12
-7.76706e-12
3.25532e-12
-7.5425e-12
4.65355e-12
-7.28044e-12
6.00402e-12
-6.99443e-12
7.30186e-12
-6.68161e-12
8.5437e-12
-6.34657e-12
9.72119e-12
-5.98777e-12
1.08337e-11
-5.61498e-12
1.18757e-11
-5.21925e-12
1.28416e-11
-4.80533e-12
1.373e-11
-4.37201e-12
1.4534e-11
-3.91646e-12
1.52476e-11
-3.4363e-12
1.58657e-11
-2.92876e-12
1.63769e-11
-2.38689e-12
1.67728e-11
-1.80412e-12
1.70419e-11
-1.17312e-12
1.71726e-11
-4.89804e-13
1.71506e-11
2.56146e-13
1.69647e-11
1.06715e-12
1.65972e-11
1.94972e-12
1.60336e-11
2.90403e-12
1.526e-11
3.92956e-12
1.42604e-11
5.02364e-12
1.30222e-11
6.17703e-12
1.1534e-11
7.37951e-12
9.78719e-12
8.6167e-12
7.77702e-12
9.86827e-12
5.50361e-12
1.11097e-11
2.97569e-12
1.23119e-11
1.94247e-13
1.3425e-11
-2.77514e-12
1.44798e-11
-5.91689e-12
1.51913e-11
-9.09549e-12
1.56244e-11
-1.20107e-11
1.42072e-11
9.01011e-12
-1.36986e-11
-3.70275e-13
2.21912e-12
-9.26251e-13
3.41121e-12
-1.55268e-12
3.8896e-12
-2.20266e-12
4.03688e-12
-2.85826e-12
4.04655e-12
-3.51486e-12
4.03543e-12
-4.17108e-12
4.02299e-12
-4.82638e-12
4.01011e-12
-5.48062e-12
3.9961e-12
-6.13368e-12
3.98051e-12
-6.78502e-12
3.96299e-12
-7.43384e-12
3.94354e-12
-8.07958e-12
3.92145e-12
-8.72156e-12
3.89603e-12
-9.35907e-12
3.86746e-12
-9.99229e-12
3.83695e-12
-1.06218e-11
3.80656e-12
-1.12472e-11
3.77682e-12
-1.18691e-11
3.74969e-12
-1.24884e-11
3.72673e-12
-1.31051e-11
3.70737e-12
-1.37205e-11
3.69251e-12
-1.43359e-11
3.68133e-12
-1.49517e-11
3.67149e-12
-1.55692e-11
3.66184e-12
-1.61885e-11
3.64841e-12
-1.68088e-11
3.62757e-12
-1.74295e-11
3.59502e-12
-1.80476e-11
3.54446e-12
-1.86596e-11
3.47131e-12
-1.92612e-11
3.36788e-12
-1.98455e-11
3.22875e-12
-2.04065e-11
3.04669e-12
-2.09358e-11
2.81715e-12
-2.14262e-11
2.53498e-12
-2.18681e-11
2.19783e-12
-2.22543e-11
1.80557e-12
-2.25738e-11
1.35861e-12
-2.28188e-11
8.59747e-13
-2.29803e-11
3.14305e-13
-2.30499e-11
-2.76518e-13
-2.30213e-11
-9.0503e-13
-2.28901e-11
-1.56257e-12
-2.26507e-11
-2.24488e-12
-2.22998e-11
-2.93714e-12
-2.18358e-11
-3.63234e-12
-2.12585e-11
-4.32149e-12
-2.05693e-11
-4.99522e-12
-1.97719e-11
-5.64704e-12
-1.88701e-11
-6.27094e-12
-1.78695e-11
-6.85894e-12
-1.67765e-11
-7.40571e-12
-1.55988e-11
-7.90525e-12
-1.43448e-11
-8.35171e-12
-1.30229e-11
-8.7427e-12
-1.16421e-11
-9.07452e-12
-1.0212e-11
-9.34329e-12
-8.74219e-12
-9.54833e-12
-7.24213e-12
-9.68899e-12
-5.72161e-12
-9.76501e-12
-4.19026e-12
-9.7781e-12
-2.6574e-12
-9.73021e-12
-1.13218e-12
-9.62376e-12
3.76729e-13
-9.46351e-12
1.85817e-12
-9.24833e-12
3.30582e-12
-8.99e-12
4.71742e-12
-8.69194e-12
6.08033e-12
-8.35731e-12
7.38976e-12
-7.99108e-12
8.63814e-12
-7.59509e-12
9.82577e-12
-7.17565e-12
1.09443e-11
-6.73387e-12
1.19916e-11
-6.26694e-12
1.29675e-11
-5.78168e-12
1.38646e-11
-5.26963e-12
1.46777e-11
-4.73008e-12
1.54013e-11
-4.16042e-12
1.60304e-11
-3.55826e-12
1.65536e-11
-2.91048e-12
1.69631e-11
-2.21407e-12
1.72471e-11
-1.45754e-12
1.73929e-11
-6.35975e-13
1.73882e-11
2.60519e-13
1.7217e-11
1.23804e-12
1.68649e-11
2.30157e-12
1.63159e-11
3.45283e-12
1.55541e-11
4.69118e-12
1.45639e-11
6.01376e-12
1.33312e-11
7.40961e-12
1.18441e-11
8.86657e-12
1.00932e-11
1.03674e-11
8.07244e-12
1.18888e-11
5.78108e-12
1.34007e-11
3.22398e-12
1.48686e-11
4.09585e-13
1.6239e-11
-2.61509e-12
1.75041e-11
-5.81606e-12
1.83919e-11
-9.0628e-12
1.88708e-11
-1.20301e-11
1.71741e-11
1.07377e-11
-1.37581e-11
-3.72191e-13
2.59177e-12
-9.31817e-13
3.97162e-12
-1.55927e-12
4.51779e-12
-2.20799e-12
4.68635e-12
-2.86271e-12
4.70207e-12
-3.51903e-12
4.69259e-12
-4.17535e-12
4.68018e-12
-4.83121e-12
4.66686e-12
-5.48615e-12
4.65193e-12
-6.13995e-12
4.63519e-12
-6.79219e-12
4.6161e-12
-7.44192e-12
4.59411e-12
-8.08824e-12
4.56858e-12
-8.7307e-12
4.53929e-12
-9.36874e-12
4.50626e-12
-1.00022e-11
4.47115e-12
-1.06316e-11
4.43672e-12
-1.1257e-11
4.40285e-12
-1.18781e-11
4.37153e-12
-1.24963e-11
4.34556e-12
-1.31123e-11
4.32399e-12
-1.37268e-11
4.30769e-12
-1.43416e-11
4.2968e-12
-1.4958e-11
4.28849e-12
-1.55765e-11
4.281e-12
-1.6198e-11
4.2706e-12
-1.68222e-11
4.25237e-12
-1.74474e-11
4.22089e-12
-1.80724e-11
4.17003e-12
-1.86923e-11
4.09183e-12
-1.93036e-11
3.97971e-12
-1.98992e-11
3.82484e-12
-2.04726e-11
3.62061e-12
-2.10152e-11
3.36028e-12
-2.15197e-11
3.03994e-12
-2.19762e-11
2.65467e-12
-2.2376e-11
2.20573e-12
-2.27094e-11
1.69237e-12
-2.29669e-11
1.11748e-12
-2.31392e-11
4.86834e-13
-2.3219e-11
-1.9649e-13
-2.31983e-11
-9.25684e-13
-2.30716e-11
-1.68911e-12
-2.28351e-11
-2.48125e-12
-2.24853e-11
-3.28687e-12
-2.20207e-11
-4.09686e-12
-2.14407e-11
-4.90145e-12
-2.07468e-11
-5.689e-12
-1.99415e-11
-6.45211e-12
-1.90296e-11
-7.18268e-12
-1.80171e-11
-7.87114e-12
-1.69111e-11
-8.51152e-12
-1.57191e-11
-9.09701e-12
-1.44495e-11
-9.62106e-12
-1.31113e-11
-1.00808e-11
-1.17136e-11
-1.04721e-11
-1.0266e-11
-1.07908e-11
-8.77826e-12
-1.10359e-11
-7.26047e-12
-1.12066e-11
-5.72239e-12
-1.13029e-11
-4.17382e-12
-1.13265e-11
-2.6245e-12
-1.12794e-11
-1.08388e-12
-1.11642e-11
4.37412e-13
-1.09846e-11
1.93673e-12
-1.07475e-11
3.40029e-12
-1.04534e-11
4.82012e-12
-1.01117e-11
6.19142e-12
-9.72854e-12
7.50615e-12
-9.30582e-12
8.76814e-12
-8.85717e-12
9.96151e-12
-8.36921e-12
1.10901e-11
-7.86269e-12
1.21469e-11
-7.32413e-12
1.31291e-11
-6.76424e-12
1.40338e-11
-6.17476e-12
1.48563e-11
-5.55297e-12
1.55918e-11
-4.8963e-12
1.62319e-11
-4.19869e-12
1.6769e-11
-3.44788e-12
1.71936e-11
-2.63897e-12
1.74959e-11
-1.76025e-12
1.76615e-11
-8.01879e-13
1.76775e-11
2.44164e-13
1.75281e-11
1.38723e-12
1.71977e-11
2.63165e-12
1.66704e-11
3.97996e-12
1.59292e-11
5.4323e-12
1.49571e-11
6.98574e-12
1.3739e-11
8.62752e-12
1.22613e-11
1.03441e-11
1.05134e-11
1.21151e-11
8.48768e-12
1.39143e-11
6.18168e-12
1.57064e-11
3.60039e-12
1.74496e-11
7.52188e-13
1.90868e-11
-2.32802e-12
2.05839e-11
-5.59639e-12
2.166e-11
-8.92968e-12
2.22037e-11
-1.19753e-11
2.02194e-11
1.25142e-11
-1.37523e-11
-3.73353e-13
2.96556e-12
-9.35312e-13
4.53429e-12
-1.56376e-12
5.1469e-12
-2.21187e-12
5.33516e-12
-2.86615e-12
5.35708e-12
-3.52238e-12
5.34959e-12
-4.17884e-12
5.33743e-12
-4.83517e-12
5.32401e-12
-5.49082e-12
5.30841e-12
-6.14528e-12
5.29047e-12
-6.7982e-12
5.26983e-12
-7.44879e-12
5.24551e-12
-8.09577e-12
5.21635e-12
-8.73862e-12
5.18292e-12
-9.37719e-12
5.14559e-12
-1.00111e-11
5.10582e-12
-1.06403e-11
5.06661e-12
-1.1265e-11
5.02823e-12
-1.18854e-11
4.99261e-12
-1.2502e-11
4.96286e-12
-1.31165e-11
4.93905e-12
-1.373e-11
4.92184e-12
-1.43438e-11
4.9112e-12
-1.49602e-11
4.90539e-12
-1.55798e-11
4.9012e-12
-1.62033e-11
4.8946e-12
-1.68313e-11
4.88092e-12
-1.74619e-11
4.85203e-12
-1.80938e-11
4.80239e-12
-1.8723e-11
4.72147e-12
-1.93446e-11
4.60179e-12
-1.99527e-11
4.4333e-12
-2.05397e-11
4.20803e-12
-2.10977e-11
3.91868e-12
-2.16175e-11
3.56017e-12
-2.20905e-11
3.1281e-12
-2.25062e-11
2.6218e-12
-2.28544e-11
2.04098e-12
-2.31261e-11
1.38947e-12
-2.33109e-11
6.72033e-13
-2.34007e-11
-1.0634e-13
-2.33892e-11
-9.36855e-13
-2.327e-11
-1.80803e-12
-2.3038e-11
-2.71303e-12
-2.269e-11
-3.63462e-12
-2.22241e-11
-4.56253e-12
-2.16405e-11
-5.48484e-12
-2.09404e-11
-6.3888e-12
-2.01266e-11
-7.26567e-12
-1.92042e-11
-8.10483e-12
-1.81792e-11
-8.89583e-12
-1.70588e-11
-9.63174e-12
-1.58511e-11
-1.03045e-11
-1.45647e-11
-1.09073e-11
-1.32088e-11
-1.14367e-11
-1.17926e-11
-1.18882e-11
-1.03262e-11
-1.22572e-11
-8.81946e-12
-1.25425e-11
-7.28265e-12
-1.27434e-11
-5.72574e-12
-1.28598e-11
-4.15886e-12
-1.28933e-11
-2.59184e-12
-1.28463e-11
-1.0339e-12
-1.27221e-11
5.06942e-13
-1.25254e-11
2.01764e-12
-1.22581e-11
3.49368e-12
-1.19293e-11
4.92609e-12
-1.1544e-11
6.30943e-12
-1.11118e-11
7.63727e-12
-1.06336e-11
8.90088e-12
-1.01208e-11
1.01064e-11
-9.57483e-12
1.12388e-11
-8.99517e-12
1.23053e-11
-8.39089e-12
1.32961e-11
-7.75517e-12
1.42076e-11
-7.08647e-12
1.50421e-11
-6.38765e-12
1.57889e-11
-5.64332e-12
1.64427e-11
-4.8527e-12
1.69954e-11
-4.00076e-12
1.74384e-11
-3.08223e-12
1.77605e-11
-2.08265e-12
1.79484e-11
-9.90002e-13
1.79873e-11
2.04993e-13
1.78646e-11
1.50965e-12
1.75611e-11
2.93495e-12
1.70599e-11
4.48102e-12
1.63429e-11
6.14911e-12
1.53945e-11
7.93394e-12
1.4196e-11
9.82584e-12
1.27325e-11
1.18073e-11
1.09916e-11
1.38557e-11
8.9641e-12
1.59415e-11
6.64624e-12
1.8024e-11
4.03973e-12
2.00558e-11
1.1526e-12
2.19737e-11
-1.98926e-12
2.37256e-11
-5.33805e-12
2.50086e-11
-8.77824e-12
2.56437e-11
-1.19273e-11
2.33681e-11
1.4343e-11
-1.37564e-11
-3.73807e-13
3.33975e-12
-9.36994e-13
5.0981e-12
-1.56653e-12
5.77702e-12
-2.21473e-12
5.98396e-12
-2.86901e-12
6.01199e-12
-3.52545e-12
6.00669e-12
-4.18221e-12
5.99489e-12
-4.83895e-12
5.98146e-12
-5.49528e-12
5.96546e-12
-6.1506e-12
5.94652e-12
-6.80427e-12
5.92424e-12
-7.4557e-12
5.89767e-12
-8.10363e-12
5.86503e-12
-8.74723e-12
5.82725e-12
-9.38632e-12
5.78541e-12
-1.00208e-11
5.74101e-12
-1.06499e-11
5.69642e-12
-1.12736e-11
5.65256e-12
-1.18929e-11
5.61253e-12
-1.2508e-11
5.57866e-12
-1.31204e-11
5.55198e-12
-1.37324e-11
5.53435e-12
-1.43452e-11
5.52447e-12
-1.49608e-11
5.52153e-12
-1.55813e-11
5.52207e-12
-1.6207e-11
5.52078e-12
-1.68387e-11
5.51297e-12
-1.74757e-11
5.48944e-12
-1.81152e-11
5.44224e-12
-1.87547e-11
5.36126e-12
-1.93883e-11
5.23571e-12
-2.00104e-11
5.0557e-12
-2.06129e-11
4.81088e-12
-2.11882e-11
4.49442e-12
-2.17263e-11
4.09864e-12
-2.22177e-11
3.61985e-12
-2.2652e-11
3.05661e-12
-2.30182e-11
2.40758e-12
-2.33059e-11
1.67766e-12
-2.3506e-11
8.72702e-13
-2.36096e-11
-2.27491e-15
-2.36093e-11
-9.3665e-13
-2.34976e-11
-1.91917e-12
-2.32704e-11
-2.93984e-12
-2.29239e-11
-3.98068e-12
-2.24566e-11
-5.02953e-12
-2.18686e-11
-6.07249e-12
-2.11612e-11
-7.09578e-12
-2.03378e-11
-8.0888e-12
-1.94033e-11
-9.03894e-12
-1.83642e-11
-9.93468e-12
-1.7228e-11
-1.07677e-11
-1.60031e-11
-1.15292e-11
-1.46981e-11
-1.22121e-11
-1.33224e-11
-1.28123e-11
-1.18861e-11
-1.33246e-11
-1.0399e-11
-1.37444e-11
-8.87128e-12
-1.40703e-11
-7.31343e-12
-1.43013e-11
-5.73597e-12
-1.44373e-11
-4.14912e-12
-1.44802e-11
-2.56267e-12
-1.44328e-11
-9.86368e-13
-1.42983e-11
5.71282e-13
-1.4083e-11
2.09576e-12
-1.37824e-11
3.58181e-12
-1.34152e-11
5.02767e-12
-1.29897e-11
6.42294e-12
-1.25069e-11
7.76426e-12
-1.19748e-11
9.04237e-12
-1.13988e-11
1.02529e-11
-1.07854e-11
1.13969e-11
-1.01391e-11
1.24683e-11
-9.46224e-12
1.34658e-11
-8.75273e-12
1.43912e-11
-8.01183e-12
1.52348e-11
-7.23127e-12
1.59944e-11
-6.40292e-12
1.66635e-11
-5.52188e-12
1.72348e-11
-4.57213e-12
1.76986e-11
-3.54614e-12
1.80432e-11
-2.42749e-12
1.82568e-11
-1.2037e-12
1.83252e-11
1.36344e-13
1.82311e-11
1.6036e-12
1.79582e-11
3.20772e-12
1.74874e-11
4.95165e-12
1.68002e-11
6.83607e-12
1.58779e-11
8.85598e-12
1.4702e-11
1.10015e-11
1.32554e-11
1.32537e-11
1.15232e-11
1.55876e-11
9.49485e-12
1.79695e-11
7.1634e-12
2.03552e-11
4.52763e-12
2.26914e-11
1.59594e-12
2.49053e-11
-1.6163e-12
2.69377e-11
-5.06104e-12
2.84532e-11
-8.63044e-12
2.92129e-11
-1.19141e-11
2.66515e-11
1.62455e-11
-1.38169e-11
-3.73651e-13
3.71373e-12
-9.3718e-13
5.66216e-12
-1.56788e-12
6.40821e-12
-2.21683e-12
6.63343e-12
-2.87147e-12
6.66716e-12
-3.52825e-12
6.66404e-12
-4.18549e-12
6.65271e-12
-4.84273e-12
6.6393e-12
-5.49973e-12
6.62307e-12
-6.15612e-12
6.60354e-12
-6.8109e-12
6.57966e-12
-7.46326e-12
6.55067e-12
-8.11226e-12
6.51469e-12
-8.75711e-12
6.47276e-12
-9.39702e-12
6.42598e-12
-1.00319e-11
6.3765e-12
-1.0661e-11
6.32623e-12
-1.12838e-11
6.27594e-12
-1.19014e-11
6.23069e-12
-1.25148e-11
6.19267e-12
-1.3125e-11
6.16269e-12
-1.37346e-11
6.14434e-12
-1.43459e-11
6.13619e-12
-1.49607e-11
6.13674e-12
-1.55812e-11
6.14289e-12
-1.62094e-11
6.14932e-12
-1.68449e-11
6.14874e-12
-1.74884e-11
6.13323e-12
-1.81369e-11
6.09094e-12
-1.87874e-11
6.01203e-12
-1.94348e-11
5.88331e-12
-2.00727e-11
5.69387e-12
-2.06934e-11
5.43186e-12
-2.12882e-11
5.08955e-12
-2.18472e-11
4.65813e-12
-2.23597e-11
4.13278e-12
-2.28151e-11
3.51247e-12
-2.32018e-11
2.7948e-12
-2.3509e-11
1.98553e-12
-2.37258e-11
1.09011e-12
-2.38439e-11
1.16463e-13
-2.38557e-11
-9.24238e-13
-2.37531e-11
-2.02115e-12
-2.35314e-11
-3.16092e-12
-2.3187e-11
-4.32459e-12
-2.27183e-11
-5.49778e-12
-2.21256e-11
-6.66475e-12
-2.14103e-11
-7.81067e-12
-2.0576e-11
-8.92274e-12
-1.96282e-11
-9.98641e-12
-1.85736e-11
-1.0989e-11
-1.74202e-11
-1.19209e-11
-1.61762e-11
-1.2773e-11
-1.48506e-11
-1.35376e-11
-1.34533e-11
-1.42096e-11
-1.19945e-11
-1.47835e-11
-1.04843e-11
-1.52547e-11
-8.93352e-12
-1.56213e-11
-7.35272e-12
-1.58823e-11
-5.75244e-12
-1.60378e-11
-4.14319e-12
-1.60896e-11
-2.53545e-12
-1.60406e-11
-9.39828e-13
-1.5894e-11
6.29586e-13
-1.56523e-11
2.17796e-12
-1.53307e-11
3.68456e-12
-1.49217e-11
5.1441e-12
-1.4449e-11
6.55138e-12
-1.3914e-11
7.89928e-12
-1.33226e-11
9.18395e-12
-1.26833e-11
1.04063e-11
-1.20076e-11
1.15587e-11
-1.12913e-11
1.26403e-11
-1.05437e-11
1.36487e-11
-9.76096e-12
1.45819e-11
-8.94483e-12
1.5437e-11
-8.08619e-12
1.62112e-11
-7.17704e-12
1.68974e-11
-6.20799e-12
1.74891e-11
-5.16372e-12
1.79766e-11
-4.0337e-12
1.83489e-11
-2.79979e-12
1.85933e-11
-1.44815e-12
1.86927e-11
3.68649e-14
1.86334e-11
1.66284e-12
1.83968e-11
3.44419e-12
1.79615e-11
5.38678e-12
1.73079e-11
7.48946e-12
1.64171e-11
9.74652e-12
1.52677e-11
1.21507e-11
1.3841e-11
1.468e-11
1.212e-11
1.73084e-11
1.00916e-11
1.99977e-11
7.7462e-12
2.27005e-11
5.08016e-12
2.53574e-11
2.09646e-12
2.7889e-11
-1.19165e-12
3.02258e-11
-4.74762e-12
3.20091e-11
-8.465e-12
3.29302e-11
-1.19117e-11
3.0098e-11
1.82468e-11
-1.39133e-11
-3.73065e-13
4.08707e-12
-9.36352e-13
6.22591e-12
-1.56816e-12
7.04044e-12
-2.21833e-12
7.28404e-12
-2.87359e-12
7.32288e-12
-3.53077e-12
7.32168e-12
-4.18858e-12
7.311e-12
-4.84661e-12
7.29781e-12
-5.50446e-12
7.28142e-12
-6.16198e-12
7.26156e-12
-6.81815e-12
7.23636e-12
-7.47181e-12
7.20487e-12
-8.12203e-12
7.16546e-12
-8.76842e-12
7.11971e-12
-9.40969e-12
7.06781e-12
-1.00449e-11
7.01227e-12
-1.06738e-11
6.95569e-12
-1.12958e-11
6.89852e-12
-1.19115e-11
6.8469e-12
-1.25225e-11
6.8041e-12
-1.31303e-11
6.77096e-12
-1.37371e-11
6.75147e-12
-1.4346e-11
6.74542e-12
-1.49597e-11
6.75076e-12
-1.558e-11
6.76341e-12
-1.62099e-11
6.77954e-12
-1.68499e-11
6.78893e-12
-1.74998e-11
6.7833e-12
-1.81581e-11
6.74946e-12
-1.88208e-11
6.67495e-12
-1.94835e-11
6.54626e-12
-2.01391e-11
6.34971e-12
-2.078e-11
6.07313e-12
-2.1397e-11
5.70691e-12
-2.19794e-11
5.24093e-12
-2.25162e-11
4.67005e-12
-2.29956e-11
3.99232e-12
-2.34052e-11
3.20506e-12
-2.3734e-11
2.31496e-12
-2.39705e-11
1.32721e-12
-2.41054e-11
2.52126e-13
-2.41305e-11
-8.98546e-13
-2.40376e-11
-2.11337e-12
-2.38223e-11
-3.37555e-12
-2.34805e-11
-4.66588e-12
-2.30103e-11
-5.96744e-12
-2.24123e-11
-7.26232e-12
-2.16881e-11
-8.5345e-12
-2.08419e-11
-9.76851e-12
-1.98795e-11
-1.09484e-11
-1.88077e-11
-1.20605e-11
-1.76346e-11
-1.30938e-11
-1.63693e-11
-1.40381e-11
-1.50209e-11
-1.48859e-11
-1.35994e-11
-1.56311e-11
-1.21154e-11
-1.62674e-11
-1.05796e-11
-1.67905e-11
-9.00281e-12
-1.71982e-11
-7.39578e-12
-1.74894e-11
-5.76929e-12
-1.76644e-11
-4.13444e-12
-1.77245e-11
-2.50213e-12
-1.76729e-11
-8.8247e-13
-1.75136e-11
7.16325e-13
-1.7251e-11
2.28056e-12
-1.68948e-11
3.80276e-12
-1.64437e-11
5.2776e-12
-1.59237e-11
6.69753e-12
-1.53337e-11
8.05911e-12
-1.46839e-11
9.35672e-12
-1.39808e-11
1.05861e-11