/*--------------------------------*- C++ -*----------------------------------*\
| =========                 |                                                 |
| \\      /  F ield         | OpenFOAM: The Open Source CFD Toolbox           |
|  \\    /   O peration     | Version:  2.4.0                                 |
|   \\  /    A nd           | Web:      www.OpenFOAM.org                      |
|    \\/     M anipulation  |                                                 |
\*---------------------------------------------------------------------------*/
FoamFile
{
    version     2.0;
    format      ascii;
    class       volVectorField;
    location    "0.093";
    object      U;
}
// * * * * * * * * * * * * * * * * * * * * * * * * * * * * * * * * * * * * * //

dimensions      [0 1 -1 0 0 0 0];

internalField   nonuniform List<vector> 
60000
(
(-4.09572e-08 1.80379e-08 0)
(-1.48868e-07 1.55649e-08 0)
(-2.79853e-07 1.9231e-08 0)
(-4.20642e-07 1.90358e-08 0)
(-5.63984e-07 1.9172e-08 0)
(-7.04604e-07 1.91581e-08 0)
(-8.45306e-07 1.88687e-08 0)
(-9.84566e-07 1.86476e-08 0)
(-1.12266e-06 1.8353e-08 0)
(-1.25931e-06 1.80479e-08 0)
(-1.39448e-06 1.77208e-08 0)
(-1.52811e-06 1.73587e-08 0)
(-1.66012e-06 1.69553e-08 0)
(-1.79026e-06 1.64727e-08 0)
(-1.91823e-06 1.59251e-08 0)
(-2.04371e-06 1.53056e-08 0)
(-2.16645e-06 1.46939e-08 0)
(-2.28644e-06 1.40995e-08 0)
(-2.40394e-06 1.36135e-08 0)
(-2.51926e-06 1.31915e-08 0)
(-2.63258e-06 1.27657e-08 0)
(-2.74423e-06 1.24726e-08 0)
(-2.8544e-06 1.21502e-08 0)
(-2.96302e-06 1.18511e-08 0)
(-3.07002e-06 1.1469e-08 0)
(-3.1749e-06 1.10223e-08 0)
(-3.277e-06 1.03288e-08 0)
(-3.37547e-06 9.45666e-09 0)
(-3.46909e-06 8.28164e-09 0)
(-3.5566e-06 6.75616e-09 0)
(-3.63643e-06 4.88689e-09 0)
(-3.70677e-06 2.53017e-09 0)
(-3.76548e-06 -2.85328e-10 0)
(-3.8102e-06 -3.56527e-09 0)
(-3.83845e-06 -7.37812e-09 0)
(-3.84764e-06 -1.18623e-08 0)
(-3.83486e-06 -1.63945e-08 0)
(-3.79728e-06 -2.1278e-08 0)
(-3.73291e-06 -2.64298e-08 0)
(-3.6402e-06 -3.19274e-08 0)
(-3.51781e-06 -3.75174e-08 0)
(-3.36448e-06 -4.32224e-08 0)
(-3.17951e-06 -4.88217e-08 0)
(-2.96249e-06 -5.4209e-08 0)
(-2.71368e-06 -5.93639e-08 0)
(-2.43474e-06 -6.38681e-08 0)
(-2.12719e-06 -6.79599e-08 0)
(-1.79247e-06 -7.15193e-08 0)
(-1.4332e-06 -7.4296e-08 0)
(-1.05238e-06 -7.63442e-08 0)
(-6.52737e-07 -7.76849e-08 0)
(-2.37136e-07 -7.8325e-08 0)
(1.91656e-07 -7.83346e-08 0)
(6.30533e-07 -7.76484e-08 0)
(1.07602e-06 -7.62624e-08 0)
(1.52485e-06 -7.4259e-08 0)
(1.97376e-06 -7.16223e-08 0)
(2.41922e-06 -6.8496e-08 0)
(2.85803e-06 -6.48738e-08 0)
(3.28699e-06 -6.06571e-08 0)
(3.70306e-06 -5.61746e-08 0)
(4.10376e-06 -5.13959e-08 0)
(4.48665e-06 -4.64012e-08 0)
(4.84997e-06 -4.14357e-08 0)
(5.19171e-06 -3.60576e-08 0)
(5.51055e-06 -3.09366e-08 0)
(5.80618e-06 -2.59204e-08 0)
(6.07822e-06 -2.10444e-08 0)
(6.32642e-06 -1.63405e-08 0)
(6.55111e-06 -1.20796e-08 0)
(6.75297e-06 -8.12883e-09 0)
(6.93213e-06 -4.38155e-09 0)
(7.08905e-06 -1.02283e-09 0)
(7.22428e-06 1.91933e-09 0)
(7.33827e-06 4.75597e-09 0)
(7.43098e-06 7.51392e-09 0)
(7.50265e-06 1.00492e-08 0)
(7.55327e-06 1.25555e-08 0)
(7.58266e-06 1.51308e-08 0)
(7.59076e-06 1.80062e-08 0)
(7.57614e-06 2.02907e-08 0)
(7.53726e-06 2.28573e-08 0)
(7.47258e-06 2.57486e-08 0)
(7.38005e-06 2.91631e-08 0)
(7.25749e-06 3.28872e-08 0)
(7.10262e-06 3.70397e-08 0)
(6.91282e-06 4.15139e-08 0)
(6.68556e-06 4.62894e-08 0)
(6.41871e-06 5.13569e-08 0)
(6.11062e-06 5.64661e-08 0)
(5.7602e-06 6.15993e-08 0)
(5.36701e-06 6.66467e-08 0)
(4.93212e-06 7.12319e-08 0)
(4.45354e-06 7.66787e-08 0)
(3.95192e-06 7.63943e-08 0)
(3.36587e-06 9.22942e-08 0)
(2.84234e-06 7.51814e-08 0)
(2.14476e-06 1.0636e-07 0)
(1.58563e-06 8.81564e-08 0)
(9.03004e-07 1.06907e-07 0)
(-5.00595e-08 8.06598e-08 0)
(-2.4038e-07 1.0801e-07 0)
(-4.97941e-07 1.25119e-07 0)
(-7.55434e-07 1.28727e-07 0)
(-1.02364e-06 1.28532e-07 0)
(-1.28437e-06 1.27973e-07 0)
(-1.54591e-06 1.27021e-07 0)
(-1.80542e-06 1.26086e-07 0)
(-2.06373e-06 1.24952e-07 0)
(-2.3203e-06 1.23749e-07 0)
(-2.57512e-06 1.22505e-07 0)
(-2.82817e-06 1.21232e-07 0)
(-3.07947e-06 1.19845e-07 0)
(-3.32888e-06 1.18215e-07 0)
(-3.5762e-06 1.1636e-07 0)
(-3.82119e-06 1.14237e-07 0)
(-4.06351e-06 1.11997e-07 0)
(-4.30306e-06 1.09822e-07 0)
(-4.54004e-06 1.07954e-07 0)
(-4.77461e-06 1.06238e-07 0)
(-5.00708e-06 1.04657e-07 0)
(-5.23785e-06 1.03448e-07 0)
(-5.46701e-06 1.0215e-07 0)
(-5.69448e-06 1.00874e-07 0)
(-5.92015e-06 9.9375e-08 0)
(-6.14335e-06 9.73963e-08 0)
(-6.36341e-06 9.47971e-08 0)
(-6.57947e-06 9.14144e-08 0)
(-6.79006e-06 8.69807e-08 0)
(-6.99394e-06 8.14764e-08 0)
(-7.18925e-06 7.45777e-08 0)
(-7.37391e-06 6.60935e-08 0)
(-7.54531e-06 5.56401e-08 0)
(-7.70021e-06 4.32136e-08 0)
(-7.83507e-06 2.84485e-08 0)
(-7.9457e-06 1.11366e-08 0)
(-8.02799e-06 -8.15577e-09 0)
(-8.0782e-06 -2.91484e-08 0)
(-8.09296e-06 -5.212e-08 0)
(-8.06957e-06 -7.67375e-08 0)
(-8.0053e-06 -1.02509e-07 0)
(-7.89741e-06 -1.29501e-07 0)
(-7.74376e-06 -1.57091e-07 0)
(-7.54222e-06 -1.85049e-07 0)
(-7.29204e-06 -2.12647e-07 0)
(-6.99405e-06 -2.38614e-07 0)
(-6.64885e-06 -2.6392e-07 0)
(-6.25714e-06 -2.87857e-07 0)
(-5.82107e-06 -3.09262e-07 0)
(-5.34321e-06 -3.28531e-07 0)
(-4.82569e-06 -3.45706e-07 0)
(-4.27121e-06 -3.60517e-07 0)
(-3.68281e-06 -3.73092e-07 0)
(-3.06396e-06 -3.82915e-07 0)
(-2.41883e-06 -3.89839e-07 0)
(-1.75161e-06 -3.94007e-07 0)
(-1.06677e-06 -3.95158e-07 0)
(-3.69218e-07 -3.93408e-07 0)
(3.36356e-07 -3.88787e-07 0)
(1.04475e-06 -3.81448e-07 0)
(1.75079e-06 -3.71508e-07 0)
(2.45007e-06 -3.59243e-07 0)
(3.13796e-06 -3.44708e-07 0)
(3.81077e-06 -3.28915e-07 0)
(4.4642e-06 -3.10655e-07 0)
(5.09505e-06 -2.92177e-07 0)
(5.70165e-06 -2.72836e-07 0)
(6.28184e-06 -2.53066e-07 0)
(6.83345e-06 -2.32862e-07 0)
(7.35515e-06 -2.131e-07 0)
(7.84613e-06 -1.93427e-07 0)
(8.30453e-06 -1.73504e-07 0)
(8.72905e-06 -1.53896e-07 0)
(9.11823e-06 -1.34585e-07 0)
(9.47091e-06 -1.15205e-07 0)
(9.78586e-06 -9.56906e-08 0)
(1.00623e-05 -7.62245e-08 0)
(1.02983e-05 -5.66105e-08 0)
(1.04927e-05 -3.67433e-08 0)
(1.06444e-05 -1.59674e-08 0)
(1.07501e-05 5.18706e-09 0)
(1.08071e-05 2.72229e-08 0)
(1.08118e-05 5.19331e-08 0)
(1.07597e-05 7.88793e-08 0)
(1.06459e-05 1.0796e-07 0)
(1.04654e-05 1.39152e-07 0)
(1.02134e-05 1.72694e-07 0)
(9.88468e-06 2.08295e-07 0)
(9.47501e-06 2.4562e-07 0)
(8.98084e-06 2.84226e-07 0)
(8.39929e-06 3.23586e-07 0)
(7.72879e-06 3.63047e-07 0)
(6.9706e-06 4.01566e-07 0)
(6.12028e-06 4.40009e-07 0)
(5.21874e-06 4.67603e-07 0)
(4.14213e-06 5.2514e-07 0)
(3.20949e-06 5.07506e-07 0)
(1.88075e-06 5.91423e-07 0)
(9.92656e-07 5.16135e-07 0)
(-9.69371e-08 4.58974e-07 0)
(-4.80197e-08 1.54963e-07 0)
(-2.63483e-07 2.37469e-07 0)
(-5.71059e-07 2.69504e-07 0)
(-8.7197e-07 2.77959e-07 0)
(-1.18725e-06 2.76697e-07 0)
(-1.49378e-06 2.75151e-07 0)
(-1.80164e-06 2.73562e-07 0)
(-2.10733e-06 2.72028e-07 0)
(-2.41218e-06 2.70193e-07 0)
(-2.71555e-06 2.68166e-07 0)
(-3.01739e-06 2.66061e-07 0)
(-3.31764e-06 2.63985e-07 0)
(-3.61627e-06 2.61753e-07 0)
(-3.91322e-06 2.59241e-07 0)
(-4.2084e-06 2.5648e-07 0)
(-4.50169e-06 2.53355e-07 0)
(-4.79294e-06 2.49969e-07 0)
(-5.08214e-06 2.46703e-07 0)
(-5.36925e-06 2.43761e-07 0)
(-5.65437e-06 2.41049e-07 0)
(-5.93799e-06 2.38763e-07 0)
(-6.2203e-06 2.36889e-07 0)
(-6.50145e-06 2.34965e-07 0)
(-6.78159e-06 2.33015e-07 0)
(-7.06041e-06 2.30706e-07 0)
(-7.33751e-06 2.27455e-07 0)
(-7.61246e-06 2.23446e-07 0)
(-7.88428e-06 2.17948e-07 0)
(-8.15179e-06 2.10784e-07 0)
(-8.41368e-06 2.01875e-07 0)
(-8.66794e-06 1.90426e-07 0)
(-8.91245e-06 1.76475e-07 0)
(-9.14445e-06 1.58858e-07 0)
(-9.36068e-06 1.37676e-07 0)
(-9.55728e-06 1.12089e-07 0)
(-9.72997e-06 8.21057e-08 0)
(-9.8746e-06 4.75388e-08 0)
(-9.98732e-06 9.4262e-09 0)
(-1.00643e-05 -3.24142e-08 0)
(-1.01022e-05 -7.69899e-08 0)
(-1.00979e-05 -1.24364e-07 0)
(-1.00482e-05 -1.74179e-07 0)
(-9.95075e-06 -2.25864e-07 0)
(-9.80303e-06 -2.78841e-07 0)
(-9.6041e-06 -3.3151e-07 0)
(-9.35378e-06 -3.8235e-07 0)
(-9.05214e-06 -4.32421e-07 0)
(-8.70009e-06 -4.80656e-07 0)
(-8.29882e-06 -5.2537e-07 0)
(-7.84979e-06 -5.67183e-07 0)
(-7.35502e-06 -6.05906e-07 0)
(-6.81698e-06 -6.40938e-07 0)
(-6.23859e-06 -6.72283e-07 0)
(-5.62326e-06 -6.99089e-07 0)
(-4.97478e-06 -7.20995e-07 0)
(-4.2973e-06 -7.38089e-07 0)
(-3.59522e-06 -7.4989e-07 0)
(-2.87328e-06 -7.5624e-07 0)
(-2.13635e-06 -7.5723e-07 0)
(-1.38956e-06 -7.53229e-07 0)
(-6.37999e-07 -7.43949e-07 0)
(1.13679e-07 -7.29859e-07 0)
(8.60441e-07 -7.1133e-07 0)
(1.59865e-06 -6.89156e-07 0)
(2.32292e-06 -6.63323e-07 0)
(3.02927e-06 -6.34866e-07 0)
(3.71615e-06 -6.04545e-07 0)
(4.3804e-06 -5.72189e-07 0)
(5.01882e-06 -5.39179e-07 0)
(5.62918e-06 -5.04868e-07 0)
(6.21022e-06 -4.69875e-07 0)
(6.75911e-06 -4.33342e-07 0)
(7.2737e-06 -3.96267e-07 0)
(7.75141e-06 -3.58066e-07 0)
(8.19005e-06 -3.1911e-07 0)
(8.58791e-06 -2.79172e-07 0)
(8.94333e-06 -2.38132e-07 0)
(9.25283e-06 -1.95877e-07 0)
(9.51376e-06 -1.52507e-07 0)
(9.72399e-06 -1.06757e-07 0)
(9.87866e-06 -5.80432e-08 0)
(9.974e-06 -6.32278e-09 0)
(1.00047e-05 5.01632e-08 0)
(9.96479e-06 1.11936e-07 0)
(9.84802e-06 1.78666e-07 0)
(9.64733e-06 2.50507e-07 0)
(9.35678e-06 3.27743e-07 0)
(8.97023e-06 4.09734e-07 0)
(8.48204e-06 4.95602e-07 0)
(7.88759e-06 5.84821e-07 0)
(7.18327e-06 6.7599e-07 0)
(6.36665e-06 7.67742e-07 0)
(5.43954e-06 8.57992e-07 0)
(4.39488e-06 9.4663e-07 0)
(3.28906e-06 1.01845e-06 0)
(1.95955e-06 1.12398e-06 0)
(8.15242e-07 1.13774e-06 0)
(-8.47867e-07 1.22855e-06 0)
(-1.84803e-06 1.08055e-06 0)
(-3.28445e-06 7.95791e-07 0)
(-6.07658e-08 2.3591e-07 0)
(-2.87248e-07 3.7329e-07 0)
(-5.95758e-07 4.25135e-07 0)
(-9.11118e-07 4.38957e-07 0)
(-1.24141e-06 4.37539e-07 0)
(-1.56365e-06 4.35088e-07 0)
(-1.88765e-06 4.32907e-07 0)
(-2.20942e-06 4.30832e-07 0)
(-2.53053e-06 4.28439e-07 0)
(-2.8505e-06 4.2576e-07 0)
(-3.16933e-06 4.22952e-07 0)
(-3.48684e-06 4.20147e-07 0)
(-3.80288e-06 4.17116e-07 0)
(-4.11731e-06 4.13772e-07 0)
(-4.42994e-06 4.10124e-07 0)
(-4.74057e-06 4.06024e-07 0)
(-5.04917e-06 4.01673e-07 0)
(-5.35593e-06 3.97486e-07 0)
(-5.66081e-06 3.93582e-07 0)
(-5.96409e-06 3.90112e-07 0)
(-6.26624e-06 3.87297e-07 0)
(-6.56731e-06 3.84857e-07 0)
(-6.86758e-06 3.82577e-07 0)
(-7.16737e-06 3.80251e-07 0)
(-7.46636e-06 3.77359e-07 0)
(-7.76454e-06 3.73463e-07 0)
(-8.06158e-06 3.6845e-07 0)
(-8.35649e-06 3.61411e-07 0)
(-8.64839e-06 3.5219e-07 0)
(-8.93571e-06 3.4025e-07 0)
(-9.2164e-06 3.24759e-07 0)
(-9.48802e-06 3.05481e-07 0)
(-9.74765e-06 2.80972e-07 0)
(-9.99207e-06 2.51162e-07 0)
(-1.02174e-05 2.14846e-07 0)
(-1.04196e-05 1.72076e-07 0)
(-1.05946e-05 1.226e-07 0)
(-1.07386e-05 6.73683e-08 0)
(-1.08472e-05 6.72809e-09 0)
(-1.09168e-05 -5.80824e-08 0)
(-1.09439e-05 -1.27571e-07 0)
(-1.0925e-05 -2.00744e-07 0)
(-1.08578e-05 -2.77133e-07 0)
(-1.074e-05 -3.55666e-07 0)
(-1.05703e-05 -4.34154e-07 0)
(-1.0348e-05 -5.11277e-07 0)
(-1.00726e-05 -5.87166e-07 0)
(-9.74551e-06 -6.60684e-07 0)
(-9.36754e-06 -7.30302e-07 0)
(-8.93951e-06 -7.96209e-07 0)
(-8.46372e-06 -8.57806e-07 0)
(-7.94285e-06 -9.14391e-07 0)
(-7.37996e-06 -9.6562e-07 0)
(-6.77874e-06 -1.01051e-06 0)
(-6.14286e-06 -1.04857e-06 0)
(-5.47647e-06 -1.07966e-06 0)
(-4.78407e-06 -1.10322e-06 0)
(-4.07017e-06 -1.11894e-06 0)
(-3.33958e-06 -1.1269e-06 0)
(-2.59724e-06 -1.12727e-06 0)
(-1.84794e-06 -1.12e-06 0)
(-1.09625e-06 -1.10544e-06 0)
(-3.46837e-07 -1.08436e-06 0)
(3.96729e-07 -1.05725e-06 0)
(1.12906e-06 -1.02534e-06 0)
(1.84539e-06 -9.88235e-07 0)
(2.54388e-06 -9.47776e-07 0)
(3.22102e-06 -9.03382e-07 0)
(3.87338e-06 -8.58154e-07 0)
(4.49858e-06 -8.09644e-07 0)
(5.0948e-06 -7.59484e-07 0)
(5.65915e-06 -7.06395e-07 0)
(6.18962e-06 -6.5194e-07 0)
(6.68399e-06 -5.94813e-07 0)
(7.13954e-06 -5.35902e-07 0)
(7.55395e-06 -4.7487e-07 0)
(7.9252e-06 -4.1133e-07 0)
(8.24934e-06 -3.45073e-07 0)
(8.52282e-06 -2.75874e-07 0)
(8.74236e-06 -2.01938e-07 0)
(8.90232e-06 -1.23129e-07 0)
(8.99795e-06 -3.77427e-08 0)
(9.0232e-06 5.41445e-08 0)
(8.97183e-06 1.54915e-07 0)
(8.83738e-06 2.63859e-07 0)
(8.61222e-06 3.81603e-07 0)
(8.28928e-06 5.08188e-07 0)
(7.86206e-06 6.42755e-07 0)
(7.32393e-06 7.84135e-07 0)
(6.66959e-06 9.31084e-07 0)
(5.89512e-06 1.08155e-06 0)
(4.99758e-06 1.23317e-06 0)
(3.97927e-06 1.38258e-06 0)
(2.82978e-06 1.5283e-06 0)
(1.61968e-06 1.65295e-06 0)
(1.59523e-07 1.80343e-06 0)
(-1.10166e-06 1.86832e-06 0)
(-2.93345e-06 1.95394e-06 0)
(-3.99711e-06 1.74931e-06 0)
(-5.75051e-06 1.19286e-06 0)
(-6.67172e-08 3.2443e-07 0)
(-3.005e-07 5.08499e-07 0)
(-6.07714e-07 5.81817e-07 0)
(-9.26371e-07 6.02619e-07 0)
(-1.25979e-06 6.01863e-07 0)
(-1.58641e-06 5.98872e-07 0)
(-1.91525e-06 5.96205e-07 0)
(-2.24201e-06 5.93648e-07 0)
(-2.56832e-06 5.90811e-07 0)
(-2.8937e-06 5.87643e-07 0)
(-3.21816e-06 5.84278e-07 0)
(-3.54142e-06 5.80816e-07 0)
(-3.86326e-06 5.77022e-07 0)
(-4.18346e-06 5.72817e-07 0)
(-4.50175e-06 5.68205e-07 0)
(-4.81798e-06 5.63067e-07 0)
(-5.1322e-06 5.5775e-07 0)
(-5.44458e-06 5.52663e-07 0)
(-5.75522e-06 5.47907e-07 0)
(-6.0644e-06 5.43774e-07 0)
(-6.37242e-06 5.40446e-07 0)
(-6.67946e-06 5.37559e-07 0)
(-6.98589e-06 5.35014e-07 0)
(-7.29198e-06 5.32514e-07 0)
(-7.5978e-06 5.29352e-07 0)
(-7.90345e-06 5.25234e-07 0)
(-8.20867e-06 5.19645e-07 0)
(-8.51275e-06 5.11622e-07 0)
(-8.81467e-06 5.00822e-07 0)
(-9.11289e-06 4.86313e-07 0)
(-9.40529e-06 4.67141e-07 0)
(-9.68917e-06 4.42749e-07 0)
(-9.96153e-06 4.11547e-07 0)
(-1.0219e-05 3.73256e-07 0)
(-1.04576e-05 3.26469e-07 0)
(-1.06735e-05 2.7127e-07 0)
(-1.08627e-05 2.07259e-07 0)
(-1.10211e-05 1.35593e-07 0)
(-1.11444e-05 5.62612e-08 0)
(-1.12284e-05 -2.9092e-08 0)
(-1.12693e-05 -1.20901e-07 0)
(-1.12637e-05 -2.17925e-07 0)
(-1.1209e-05 -3.1917e-07 0)
(-1.11033e-05 -4.23641e-07 0)
(-1.09449e-05 -5.28508e-07 0)
(-1.07325e-05 -6.32542e-07 0)
(-1.04661e-05 -7.3503e-07 0)
(-1.01465e-05 -8.34564e-07 0)
(-9.77433e-06 -9.29956e-07 0)
(-9.35082e-06 -1.02074e-06 0)
(-8.87836e-06 -1.10588e-06 0)
(-8.35978e-06 -1.18456e-06 0)
(-7.79846e-06 -1.25606e-06 0)
(-7.19828e-06 -1.31933e-06 0)
(-6.56306e-06 -1.37384e-06 0)
(-5.89703e-06 -1.4191e-06 0)
(-5.20486e-06 -1.45456e-06 0)
(-4.49111e-06 -1.4799e-06 0)
(-3.76039e-06 -1.49508e-06 0)
(-3.01759e-06 -1.5002e-06 0)
(-2.26741e-06 -1.49542e-06 0)
(-1.51427e-06 -1.48108e-06 0)
(-7.62626e-07 -1.45784e-06 0)
(-1.60904e-08 -1.42665e-06 0)
(7.19908e-07 -1.38831e-06 0)
(1.44039e-06 -1.34337e-06 0)
(2.14329e-06 -1.29254e-06 0)
(2.82439e-06 -1.23736e-06 0)
(3.48066e-06 -1.17889e-06 0)
(4.10977e-06 -1.11619e-06 0)
(4.70945e-06 -1.05045e-06 0)
(5.27686e-06 -9.81235e-07 0)
(5.81014e-06 -9.0908e-07 0)
(6.30747e-06 -8.33512e-07 0)
(6.76611e-06 -7.54611e-07 0)
(7.18402e-06 -6.72372e-07 0)
(7.55868e-06 -5.86152e-07 0)
(7.88584e-06 -4.95487e-07 0)
(8.16201e-06 -3.99762e-07 0)
(8.38318e-06 -2.9693e-07 0)
(8.54344e-06 -1.86683e-07 0)
(8.63768e-06 -6.70515e-08 0)
(8.65947e-06 6.26372e-08 0)
(8.60233e-06 2.04307e-07 0)
(8.45924e-06 3.57742e-07 0)
(8.22284e-06 5.23546e-07 0)
(7.88561e-06 7.01849e-07 0)
(7.44052e-06 8.9155e-07 0)
(6.88084e-06 1.09119e-06 0)
(6.20084e-06 1.29882e-06 0)
(5.39599e-06 1.5118e-06 0)
(4.46286e-06 1.72663e-06 0)
(3.40386e-06 1.93879e-06 0)
(2.20513e-06 2.14465e-06 0)
(9.48433e-07 2.32802e-06 0)
(-5.74437e-07 2.52168e-06 0)
(-1.89287e-06 2.63453e-06 0)
(-3.80219e-06 2.72716e-06 0)
(-4.87867e-06 2.46844e-06 0)
(-6.70109e-06 1.62643e-06 0)
(-6.81246e-08 4.16234e-07 0)
(-3.06407e-07 6.45472e-07 0)
(-6.15122e-07 7.38532e-07 0)
(-9.33891e-07 7.66262e-07 0)
(-1.26693e-06 7.66616e-07 0)
(-1.59432e-06 7.63471e-07 0)
(-1.92435e-06 7.60482e-07 0)
(-2.25253e-06 7.57545e-07 0)
(-2.5804e-06 7.54353e-07 0)
(-2.90751e-06 7.50792e-07 0)
(-3.23381e-06 7.46929e-07 0)
(-3.55895e-06 7.42837e-07 0)
(-3.8827e-06 7.38287e-07 0)
(-4.20472e-06 7.33167e-07 0)
(-4.52469e-06 7.27517e-07 0)
(-4.84249e-06 7.21336e-07 0)
(-5.15829e-06 7.15039e-07 0)
(-5.4722e-06 7.09013e-07 0)
(-5.78432e-06 7.03462e-07 0)
(-6.09503e-06 6.98659e-07 0)
(-6.4045e-06 6.9475e-07 0)
(-6.71295e-06 6.91516e-07 0)
(-7.021e-06 6.88755e-07 0)
(-7.32886e-06 6.86165e-07 0)
(-7.63682e-06 6.83083e-07 0)
(-7.9452e-06 6.78962e-07 0)
(-8.25368e-06 6.73177e-07 0)
(-8.56178e-06 6.64629e-07 0)
(-8.86846e-06 6.52541e-07 0)
(-9.17212e-06 6.35935e-07 0)
(-9.47073e-06 6.13339e-07 0)
(-9.76136e-06 5.84114e-07 0)
(-1.00409e-05 5.46393e-07 0)
(-1.0306e-05 4.99737e-07 0)
(-1.05524e-05 4.42626e-07 0)
(-1.07764e-05 3.75143e-07 0)
(-1.09739e-05 2.9671e-07 0)
(-1.11404e-05 2.08549e-07 0)
(-1.12716e-05 1.10489e-07 0)
(-1.13633e-05 4.30887e-09 0)
(-1.14112e-05 -1.10077e-07 0)
(-1.14119e-05 -2.31334e-07 0)
(-1.13626e-05 -3.57861e-07 0)
(-1.12615e-05 -4.88568e-07 0)
(-1.11068e-05 -6.20374e-07 0)
(-1.08971e-05 -7.51901e-07 0)
(-1.06319e-05 -8.81665e-07 0)
(-1.03118e-05 -1.00801e-06 0)
(-9.93789e-06 -1.12981e-06 0)
(-9.51162e-06 -1.24599e-06 0)
(-9.03553e-06 -1.35511e-06 0)
(-8.5126e-06 -1.45624e-06 0)
(-7.94632e-06 -1.54827e-06 0)
(-7.34071e-06 -1.63007e-06 0)
(-6.69982e-06 -1.7011e-06 0)
(-6.02792e-06 -1.76061e-06 0)
(-5.32972e-06 -1.80795e-06 0)
(-4.60994e-06 -1.84289e-06 0)
(-3.87324e-06 -1.86529e-06 0)
(-3.12441e-06 -1.87521e-06 0)
(-2.36815e-06 -1.87298e-06 0)
(-1.6089e-06 -1.85899e-06 0)
(-8.51042e-07 -1.83386e-06 0)
(-9.8221e-08 -1.79865e-06 0)
(6.43992e-07 -1.75384e-06 0)
(1.37065e-06 -1.70078e-06 0)
(2.07904e-06 -1.63959e-06 0)
(2.76507e-06 -1.57347e-06 0)
(3.42625e-06 -1.50148e-06 0)
(4.05971e-06 -1.42442e-06 0)
(4.6631e-06 -1.34267e-06 0)
(5.23398e-06 -1.25747e-06 0)
(5.77052e-06 -1.16737e-06 0)
(6.271e-06 -1.07338e-06 0)
(6.73295e-06 -9.74709e-07 0)
(7.15451e-06 -8.71294e-07 0)
(7.53323e-06 -7.62432e-07 0)
(7.8644e-06 -6.47363e-07 0)
(8.14474e-06 -5.24976e-07 0)
(8.37023e-06 -3.93311e-07 0)
(8.5346e-06 -2.50987e-07 0)
(8.6327e-06 -9.68374e-08 0)
(8.65807e-06 7.1215e-08 0)
(8.60378e-06 2.54237e-07 0)
(8.46252e-06 4.52944e-07 0)
(8.22704e-06 6.67775e-07 0)
(7.88941e-06 8.98651e-07 0)
(7.44218e-06 1.14465e-06 0)
(6.87843e-06 1.40371e-06 0)
(6.19209e-06 1.67345e-06 0)
(5.37814e-06 1.9506e-06 0)
(4.43261e-06 2.23053e-06 0)
(3.35764e-06 2.50766e-06 0)
(2.1369e-06 2.7759e-06 0)
(8.5941e-07 3.02165e-06 0)
(-6.97751e-07 3.26077e-06 0)
(-2.0461e-06 3.41635e-06 0)
(-3.99854e-06 3.51826e-06 0)
(-5.08843e-06 3.19668e-06 0)
(-6.93033e-06 2.05218e-06 0)
(-6.83911e-08 5.08924e-07 0)
(-3.09487e-07 7.84279e-07 0)
(-6.20073e-07 8.95421e-07 0)
(-9.38428e-07 9.2942e-07 0)
(-1.27053e-06 9.31119e-07 0)
(-1.59777e-06 9.28126e-07 0)
(-1.928e-06 9.24973e-07 0)
(-2.25659e-06 9.21759e-07 0)
(-2.58502e-06 9.18271e-07 0)
(-2.91278e-06 9.1438e-07 0)
(-3.23981e-06 9.10054e-07 0)
(-3.5657e-06 9.05325e-07 0)
(-3.89012e-06 8.99998e-07 0)
(-4.21274e-06 8.93921e-07 0)
(-4.53321e-06 8.87152e-07 0)
(-4.85139e-06 8.79894e-07 0)
(-5.16754e-06 8.72628e-07 0)
(-5.48178e-06 8.656e-07 0)
(-5.79403e-06 8.59197e-07 0)
(-6.10478e-06 8.53737e-07 0)
(-6.4143e-06 8.49193e-07 0)
(-6.72274e-06 8.45628e-07 0)
(-7.0309e-06 8.4279e-07 0)
(-7.3392e-06 8.40208e-07 0)
(-7.64792e-06 8.37444e-07 0)
(-7.95754e-06 8.33605e-07 0)
(-8.2679e-06 8.27895e-07 0)
(-8.57844e-06 8.19189e-07 0)
(-8.88829e-06 8.06163e-07 0)
(-9.19582e-06 7.87767e-07 0)
(-9.499e-06 7.6216e-07 0)
(-9.79492e-06 7.28316e-07 0)
(-1.00803e-05 6.84365e-07 0)
(-1.03516e-05 6.29459e-07 0)
(-1.06047e-05 5.62223e-07 0)
(-1.08355e-05 4.82397e-07 0)
(-1.10398e-05 3.89684e-07 0)
(-1.1213e-05 2.84737e-07 0)
(-1.13504e-05 1.67885e-07 0)
(-1.1448e-05 4.06293e-08 0)
(-1.15013e-05 -9.674e-08 0)
(-1.15066e-05 -2.42531e-07 0)
(-1.14612e-05 -3.94786e-07 0)
(-1.1363e-05 -5.52284e-07 0)
(-1.12097e-05 -7.1162e-07 0)
(-1.10001e-05 -8.71239e-07 0)
(-1.07338e-05 -1.02903e-06 0)
(-1.04112e-05 -1.18291e-06 0)
(-1.00337e-05 -1.33155e-06 0)
(-9.60305e-06 -1.4735e-06 0)
(-9.12184e-06 -1.60698e-06 0)
(-8.59309e-06 -1.73083e-06 0)
(-8.02038e-06 -1.84368e-06 0)
(-7.40777e-06 -1.94421e-06 0)
(-6.75951e-06 -2.03186e-06 0)
(-6.07996e-06 -2.10575e-06 0)
(-5.37379e-06 -2.16506e-06 0)
(-4.64584e-06 -2.20961e-06 0)
(-3.90087e-06 -2.23926e-06 0)
(-3.14368e-06 -2.254e-06 0)
(-2.37911e-06 -2.25426e-06 0)
(-1.61187e-06 -2.24051e-06 0)
(-8.46485e-07 -2.21336e-06 0)
(-8.64243e-08 -2.17397e-06 0)
(6.62558e-07 -2.1224e-06 0)
(1.39567e-06 -2.06098e-06 0)
(2.10979e-06 -1.99009e-06 0)
(2.80085e-06 -1.91185e-06 0)
(3.4669e-06 -1.82644e-06 0)
(4.10495e-06 -1.73475e-06 0)
(4.71234e-06 -1.63719e-06 0)
(5.28712e-06 -1.53532e-06 0)
(5.82772e-06 -1.42738e-06 0)
(6.33194e-06 -1.31501e-06 0)
(6.79778e-06 -1.1968e-06 0)
(7.22359e-06 -1.07231e-06 0)
(7.60708e-06 -9.4097e-07 0)
(7.94364e-06 -8.01982e-07 0)
(8.23002e-06 -6.52947e-07 0)
(8.46212e-06 -4.92566e-07 0)
(8.63333e-06 -3.18495e-07 0)
(8.73882e-06 -1.29626e-07 0)
(8.77221e-06 7.65687e-08 0)
(8.72599e-06 3.01118e-07 0)
(8.59254e-06 5.45362e-07 0)
(8.36437e-06 8.09547e-07 0)
(8.03342e-06 1.09352e-06 0)
(7.5917e-06 1.39654e-06 0)
(7.03173e-06 1.71594e-06 0)
(6.34711e-06 2.04891e-06 0)
(5.53243e-06 2.39148e-06 0)
(4.58322e-06 2.73815e-06 0)
(3.50108e-06 3.08207e-06 0)
(2.26784e-06 3.41525e-06 0)
(9.76543e-07 3.72483e-06 0)
(-6.076e-07 4.01356e-06 0)
(-1.97914e-06 4.21203e-06 0)
(-3.96857e-06 4.32382e-06 0)
(-5.08698e-06 3.93354e-06 0)
(-6.95828e-06 2.48031e-06 0)
(-6.85295e-08 6.02027e-07 0)
(-3.11438e-07 9.24289e-07 0)
(-6.23456e-07 1.05258e-06 0)
(-9.4153e-07 1.09217e-06 0)
(-1.2729e-06 1.09535e-06 0)
(-1.5999e-06 1.09271e-06 0)
(-1.93012e-06 1.08952e-06 0)
(-2.25891e-06 1.08613e-06 0)
(-2.58768e-06 1.08239e-06 0)
(-2.91582e-06 1.0782e-06 0)
(-3.24327e-06 1.07344e-06 0)
(-3.56962e-06 1.06806e-06 0)
(-3.89443e-06 1.06189e-06 0)
(-4.21729e-06 1.05483e-06 0)
(-4.53801e-06 1.04691e-06 0)
(-4.85638e-06 1.03851e-06 0)
(-5.17256e-06 1.03025e-06 0)
(-5.48677e-06 1.02219e-06 0)
(-5.79881e-06 1.0148e-06 0)
(-6.1091e-06 1.00864e-06 0)
(-6.41812e-06 1.0035e-06 0)
(-6.72614e-06 9.9959e-07 0)
(-7.03395e-06 9.96798e-07 0)
(-7.34226e-06 9.94454e-07 0)
(-7.65143e-06 9.92159e-07 0)
(-7.96191e-06 9.88905e-07 0)
(-8.27384e-06 9.83602e-07 0)
(-8.58657e-06 9.74989e-07 0)
(-8.89935e-06 9.61513e-07 0)
(-9.21067e-06 9.41584e-07 0)
(-9.51834e-06 9.1342e-07 0)
(-9.81956e-06 8.75252e-07 0)
(-1.01109e-05 8.25372e-07 0)
(-1.03886e-05 7.62399e-07 0)
(-1.06487e-05 6.85243e-07 0)
(-1.08867e-05 5.93054e-07 0)
(-1.10981e-05 4.86011e-07 0)
(-1.12781e-05 3.64145e-07 0)
(-1.14221e-05 2.28209e-07 0)
(-1.15255e-05 7.96203e-08 0)
(-1.15839e-05 -8.1035e-08 0)
(-1.15936e-05 -2.51888e-07 0)
(-1.15513e-05 -4.30384e-07 0)
(-1.14549e-05 -6.1525e-07 0)
(-1.13025e-05 -8.02763e-07 0)
(-1.10929e-05 -9.90898e-07 0)
(-1.08256e-05 -1.17729e-06 0)
(-1.05011e-05 -1.35933e-06 0)
(-1.01203e-05 -1.53531e-06 0)
(-9.68506e-06 -1.7035e-06 0)
(-9.19828e-06 -1.86172e-06 0)
(-8.66323e-06 -2.0086e-06 0)
(-8.0836e-06 -2.14256e-06 0)
(-7.46348e-06 -2.26207e-06 0)
(-6.80721e-06 -2.36652e-06 0)
(-6.11931e-06 -2.45495e-06 0)
(-5.40451e-06 -2.52638e-06 0)
(-4.66769e-06 -2.58062e-06 0)
(-3.9138e-06 -2.61753e-06 0)
(-3.14777e-06 -2.63708e-06 0)
(-2.3745e-06 -2.63973e-06 0)
(-1.59885e-06 -2.626e-06 0)
(-8.25525e-07 -2.59655e-06 0)
(-5.76931e-08 -2.55248e-06 0)
(6.98361e-07 -2.49453e-06 0)
(1.43753e-06 -2.42426e-06 0)
(2.15737e-06 -2.34322e-06 0)
(2.85388e-06 -2.25268e-06 0)
(3.52501e-06 -2.15344e-06 0)
(4.16762e-06 -2.04743e-06 0)
(4.77892e-06 -1.93374e-06 0)
(5.35765e-06 -1.81502e-06 0)
(5.90208e-06 -1.68932e-06 0)
(6.41016e-06 -1.55861e-06 0)
(6.88032e-06 -1.42086e-06 0)
(7.31056e-06 -1.27567e-06 0)
(7.69877e-06 -1.1222e-06 0)
(8.04113e-06 -9.59437e-07 0)
(8.33442e-06 -7.84182e-07 0)
(8.57414e-06 -5.95425e-07 0)
(8.75365e-06 -3.90252e-07 0)
(8.86836e-06 -1.66846e-07 0)
(8.91198e-06 7.70654e-08 0)
(8.87651e-06 3.43249e-07 0)
(8.75404e-06 6.32952e-07 0)
(8.5368e-06 9.4657e-07 0)
(8.21644e-06 1.28412e-06 0)
(7.78443e-06 1.64475e-06 0)
(7.2327e-06 2.0254e-06 0)
(6.55416e-06 2.42281e-06 0)
(5.74262e-06 2.83224e-06 0)
(4.79301e-06 3.24744e-06 0)
(3.7062e-06 3.66022e-06 0)
(2.46263e-06 4.06096e-06 0)
(1.15775e-06 4.43593e-06 0)
(-4.53657e-07 4.77969e-06 0)
(-1.8499e-06 5.02326e-06 0)
(-3.88019e-06 5.1482e-06 0)
(-5.04216e-06 4.68626e-06 0)
(-6.95203e-06 2.91919e-06 0)
(-6.86414e-08 6.95496e-07 0)
(-3.1259e-07 1.06502e-06 0)
(-6.25682e-07 1.21002e-06 0)
(-9.43726e-07 1.25471e-06 0)
(-1.27472e-06 1.25944e-06 0)
(-1.6016e-06 1.25726e-06 0)
(-1.93186e-06 1.25411e-06 0)
(-2.26081e-06 1.25065e-06 0)
(-2.58991e-06 1.2467e-06 0)
(-2.91842e-06 1.24219e-06 0)
(-3.2462e-06 1.23703e-06 0)
(-3.57295e-06 1.23101e-06 0)
(-3.89815e-06 1.22392e-06 0)
(-4.22125e-06 1.21582e-06 0)
(-4.54219e-06 1.20678e-06 0)
(-4.86081e-06 1.1972e-06 0)
(-5.17705e-06 1.18782e-06 0)
(-5.49102e-06 1.17866e-06 0)
(-5.80267e-06 1.17021e-06 0)
(-6.11238e-06 1.16321e-06 0)
(-6.42063e-06 1.15753e-06 0)
(-6.728e-06 1.15335e-06 0)
(-7.03532e-06 1.15064e-06 0)
(-7.34341e-06 1.14882e-06 0)
(-7.65288e-06 1.14722e-06 0)
(-7.96418e-06 1.1448e-06 0)
(-8.27764e-06 1.14035e-06 0)
(-8.59278e-06 1.13213e-06 0)
(-8.90873e-06 1.11866e-06 0)
(-9.22419e-06 1.09763e-06 0)
(-9.53688e-06 1.06726e-06 0)
(-9.84389e-06 1.02521e-06 0)
(-1.01418e-05 9.69675e-07 0)
(-1.04268e-05 8.98953e-07 0)
(-1.06946e-05 8.1196e-07 0)
(-1.09407e-05 7.07594e-07 0)
(-1.11601e-05 5.85998e-07 0)
(-1.13478e-05 4.47087e-07 0)
(-1.1499e-05 2.91774e-07 0)
(-1.16089e-05 1.21427e-07 0)
(-1.16729e-05 -6.29181e-08 0)
(-1.16874e-05 -2.59237e-07 0)
(-1.16492e-05 -4.64594e-07 0)
(-1.15556e-05 -6.77413e-07 0)
(-1.14046e-05 -8.93653e-07 0)
(-1.11949e-05 -1.11088e-06 0)
(-1.09264e-05 -1.32639e-06 0)
(-1.05993e-05 -1.53715e-06 0)
(-1.02147e-05 -1.74115e-06 0)
(-9.77462e-06 -1.93609e-06 0)
(-9.28198e-06 -2.11949e-06 0)
(-8.74011e-06 -2.28979e-06 0)
(-8.1529e-06 -2.44515e-06 0)
(-7.52459e-06 -2.58393e-06 0)
(-6.85963e-06 -2.7054e-06 0)
(-6.16264e-06 -2.80851e-06 0)
(-5.4385e-06 -2.89219e-06 0)
(-4.69218e-06 -2.95618e-06 0)
(-3.92876e-06 -3.00033e-06 0)
(-3.15327e-06 -3.02464e-06 0)
(-2.37072e-06 -3.02957e-06 0)
(-1.58608e-06 -3.01567e-06 0)
(-8.0402e-07 -2.98375e-06 0)
(-2.80091e-08 -2.9349e-06 0)
(7.35535e-07 -2.8702e-06 0)
(1.48151e-06 -2.79093e-06 0)
(2.20763e-06 -2.69887e-06 0)
(2.91026e-06 -2.59599e-06 0)
(3.58647e-06 -2.4827e-06 0)
(4.23379e-06 -2.36195e-06 0)
(4.84936e-06 -2.23239e-06 0)
(5.43179e-06 -2.09642e-06 0)
(5.97989e-06 -1.95349e-06 0)
(6.49169e-06 -1.80403e-06 0)
(6.96626e-06 -1.64677e-06 0)
(7.40114e-06 -1.48161e-06 0)
(7.79446e-06 -1.30628e-06 0)
(8.14312e-06 -1.11996e-06 0)
(8.44388e-06 -9.19095e-07 0)
(8.69199e-06 -7.02471e-07 0)
(8.88115e-06 -4.66772e-07 0)
(9.00662e-06 -2.09327e-07 0)
(9.06197e-06 7.20195e-08 0)
(9.03899e-06 3.79324e-07 0)
(8.92963e-06 7.14422e-07 0)
(8.72566e-06 1.07758e-06 0)
(8.41823e-06 1.46907e-06 0)
(7.99831e-06 1.88771e-06 0)
(7.45726e-06 2.33056e-06 0)
(6.78722e-06 2.79372e-06 0)
(5.98109e-06 3.27173e-06 0)
(5.03294e-06 3.75754e-06 0)
(3.94279e-06 4.24166e-06 0)
(2.68964e-06 4.71287e-06 0)
(1.3699e-06 5.15603e-06 0)
(-2.71937e-07 5.56038e-06 0)
(-1.69766e-06 5.85293e-06 0)
(-3.77551e-06 5.99674e-06 0)
(-4.99453e-06 5.46157e-06 0)
(-6.95154e-06 3.37126e-06 0)
(-6.86943e-08 7.89202e-07 0)
(-3.13006e-07 1.20619e-06 0)
(-6.26953e-07 1.36775e-06 0)
(-9.45222e-07 1.41723e-06 0)
(-1.27618e-06 1.4235e-06 0)
(-1.6031e-06 1.42185e-06 0)
(-1.93352e-06 1.41877e-06 0)
(-2.26266e-06 1.41529e-06 0)
(-2.59205e-06 1.41119e-06 0)
(-2.92097e-06 1.40639e-06 0)
(-3.24917e-06 1.40079e-06 0)
(-3.57632e-06 1.39416e-06 0)
(-3.90196e-06 1.38615e-06 0)
(-4.22547e-06 1.37694e-06 0)
(-4.54674e-06 1.36676e-06 0)
(-4.86562e-06 1.35599e-06 0)
(-5.18197e-06 1.34532e-06 0)
(-5.49567e-06 1.3349e-06 0)
(-5.80673e-06 1.32537e-06 0)
(-6.11578e-06 1.31741e-06 0)
(-6.42314e-06 1.31112e-06 0)
(-6.72957e-06 1.30681e-06 0)
(-7.03625e-06 1.30428e-06 0)
(-7.34396e-06 1.30317e-06 0)
(-7.65349e-06 1.30258e-06 0)
(-7.96563e-06 1.30131e-06 0)
(-8.28066e-06 1.29813e-06 0)
(-8.59841e-06 1.29085e-06 0)
(-8.91796e-06 1.27774e-06 0)
(-9.23802e-06 1.25621e-06 0)
(-9.55638e-06 1.22398e-06 0)
(-9.87e-06 1.17856e-06 0)
(-1.01754e-05 1.11768e-06 0)
(-1.04687e-05 1.03963e-06 0)
(-1.07455e-05 9.42899e-07 0)
(-1.10007e-05 8.26499e-07 0)
(-1.12294e-05 6.90276e-07 0)
(-1.14262e-05 5.3407e-07 0)
(-1.15858e-05 3.59056e-07 0)
(-1.17035e-05 1.66619e-07 0)
(-1.17746e-05 -4.19305e-08 0)
(-1.17952e-05 -2.64105e-07 0)
(-1.17616e-05 -4.97008e-07 0)
(-1.1671e-05 -7.38519e-07 0)
(-1.15214e-05 -9.84225e-07 0)
(-1.13116e-05 -1.23131e-06 0)
(-1.10415e-05 -1.47658e-06 0)
(-1.07113e-05 -1.7167e-06 0)
(-1.03223e-05 -1.94931e-06 0)
(-9.87672e-06 -2.17152e-06 0)
(-9.37743e-06 -2.38062e-06 0)
(-8.82797e-06 -2.57475e-06 0)
(-8.23244e-06 -2.75185e-06 0)
(-7.59511e-06 -2.9102e-06 0)
(-6.9205e-06 -3.04893e-06 0)
(-6.21349e-06 -3.16687e-06 0)
(-5.47909e-06 -3.2629e-06 0)
(-4.72234e-06 -3.3367e-06 0)
(-3.9484e-06 -3.38809e-06 0)
(-3.1625e-06 -3.41707e-06 0)
(-2.36983e-06 -3.42413e-06 0)
(-1.57535e-06 -3.40993e-06 0)
(-7.83874e-07 -3.37535e-06 0)
(9.96141e-10 -3.32175e-06 0)
(7.72477e-07 -3.24898e-06 0)
(1.52566e-06 -3.16039e-06 0)
(2.25847e-06 -3.05768e-06 0)
(2.96721e-06 -2.94224e-06 0)
(3.64856e-06 -2.81512e-06 0)
(4.30037e-06 -2.67847e-06 0)
(4.92064e-06 -2.53314e-06 0)
(5.5074e-06 -2.37973e-06 0)
(6.05958e-06 -2.21949e-06 0)
(6.57574e-06 -2.05136e-06 0)
(7.0547e-06 -1.8752e-06 0)
(7.49471e-06 -1.69019e-06 0)
(7.89408e-06 -1.49344e-06 0)
(8.24982e-06 -1.28414e-06 0)
(8.55889e-06 -1.05833e-06 0)
(8.81655e-06 -8.14459e-07 0)
(9.017e-06 -5.48659e-07 0)
(9.15507e-06 -2.57886e-07 0)
(9.22386e-06 6.044e-08 0)
(9.21537e-06 4.08432e-07 0)
(9.12126e-06 7.88695e-07 0)
(8.9326e-06 1.20153e-06 0)
(8.64017e-06 1.64727e-06 0)
(8.23433e-06 2.12443e-06 0)
(7.70573e-06 2.63046e-06 0)
(7.04568e-06 3.16075e-06 0)
(6.24607e-06 3.70926e-06 0)
(5.29997e-06 4.26801e-06 0)
(4.20639e-06 4.82634e-06 0)
(2.9428e-06 5.37159e-06 0)
(1.60587e-06 5.8867e-06 0)
(-7.08071e-08 6.35768e-06 0)
(-1.53193e-06 6.70476e-06 0)
(-3.6654e-06 6.875e-06 0)
(-4.95579e-06 6.2668e-06 0)
(-6.9788e-06 3.83969e-06 0)
(-6.86768e-08 8.82968e-07 0)
(-3.12804e-07 1.34756e-06 0)
(-6.2744e-07 1.5258e-06 0)
(-9.46151e-07 1.57988e-06 0)
(-1.2774e-06 1.58763e-06 0)
(-1.60445e-06 1.58653e-06 0)
(-1.93511e-06 1.58355e-06 0)
(-2.2645e-06 1.58006e-06 0)
(-2.5942e-06 1.57585e-06 0)
(-2.92357e-06 1.57082e-06 0)