/*--------------------------------*- C++ -*----------------------------------*\
| =========                 |                                                 |
| \\      /  F ield         | OpenFOAM: The Open Source CFD Toolbox           |
|  \\    /   O peration     | Version:  2.4.0                                 |
|   \\  /    A nd           | Web:      www.OpenFOAM.org                      |
|    \\/     M anipulation  |                                                 |
\*---------------------------------------------------------------------------*/
FoamFile
{
    version     2.0;
    format      ascii;
    class       surfaceScalarField;
    location    "0.268";
    object      phi;
}
// * * * * * * * * * * * * * * * * * * * * * * * * * * * * * * * * * * * * * //

dimensions      [0 3 -1 0 0 0 0];

internalField   nonuniform List<scalar> 
119500
(
-1.67506e-09
1.67506e-09
-3.74752e-09
2.07246e-09
-5.87593e-09
2.12841e-09
-7.99663e-09
2.1207e-09
-1.01002e-08
2.10358e-09
-1.218e-08
2.07977e-09
-1.42293e-08
2.04929e-09
-1.62409e-08
2.01157e-09
-1.8207e-08
1.96614e-09
-2.01195e-08
1.91251e-09
-2.197e-08
1.85048e-09
-2.375e-08
1.78004e-09
-2.54513e-08
1.70126e-09
-2.70658e-08
1.61446e-09
-2.85855e-08
1.51977e-09
-3.0003e-08
1.41751e-09
-3.13111e-08
1.3081e-09
-3.2503e-08
1.1919e-09
-3.35724e-08
1.06933e-09
-3.45131e-08
9.40707e-10
-3.53193e-08
8.0627e-10
-3.59855e-08
6.66153e-10
-3.65059e-08
5.20447e-10
-3.68751e-08
3.69203e-10
-3.70875e-08
2.12377e-10
-3.7138e-08
5.04834e-11
-3.702e-08
-1.17968e-10
-3.67228e-08
-2.97195e-10
-3.62434e-08
-4.79483e-10
-3.55747e-08
-6.68628e-10
-3.47111e-08
-8.63661e-10
-3.36484e-08
-1.06266e-09
-3.23815e-08
-1.26689e-09
-3.09052e-08
-1.47632e-09
-2.92148e-08
-1.69038e-09
-2.73064e-08
-1.9084e-09
-2.51768e-08
-2.12959e-09
-2.28238e-08
-2.35303e-09
-2.02462e-08
-2.57765e-09
-1.74438e-08
-2.80236e-09
-1.44179e-08
-3.02595e-09
-1.11706e-08
-3.24729e-09
-7.70534e-09
-3.46524e-09
-4.02651e-09
-3.67883e-09
-1.38903e-10
-3.88761e-09
3.95081e-09
-4.08971e-09
8.23347e-09
-4.28266e-09
1.27046e-08
-4.47116e-09
1.7349e-08
-4.64434e-09
2.21599e-08
-4.81098e-09
2.71324e-08
-4.97241e-09
3.22572e-08
-5.1248e-09
3.75234e-08
-5.26628e-09
4.29212e-08
-5.39776e-09
4.84388e-08
-5.51762e-09
5.40658e-08
-5.62695e-09
5.97892e-08
-5.72338e-09
6.55954e-08
-5.80624e-09
7.14706e-08
-5.87521e-09
7.73996e-08
-5.92893e-09
8.33654e-08
-5.96587e-09
8.93502e-08
-5.98482e-09
9.53347e-08
-5.9845e-09
1.01298e-07
-5.9635e-09
1.07219e-07
-5.92063e-09
1.13074e-07
-5.85469e-09
1.18838e-07
-5.76463e-09
1.24488e-07
-5.64957e-09
1.29996e-07
-5.50873e-09
1.35338e-07
-5.34157e-09
1.40486e-07
-5.14778e-09
1.45413e-07
-4.9275e-09
1.50095e-07
-4.68133e-09
1.54505e-07
-4.41039e-09
1.58622e-07
-4.11651e-09
1.62424e-07
-3.8023e-09
1.65895e-07
-3.47139e-09
1.69024e-07
-3.12848e-09
1.71803e-07
-2.77936e-09
1.74234e-07
-2.4309e-09
1.76325e-07
-2.09087e-09
1.78093e-07
-1.76768e-09
1.79563e-07
-1.46999e-09
1.80769e-07
-1.20614e-09
1.81752e-07
-9.83516e-10
1.8256e-07
-8.07685e-10
1.83242e-07
-6.81649e-10
1.83847e-07
-6.05127e-10
1.84421e-07
-5.74282e-10
1.85003e-07
-5.81945e-10
1.85621e-07
-6.18595e-10
1.86296e-07
-6.74052e-10
1.87035e-07
-7.39412e-10
1.87843e-07
-8.08011e-10
1.88718e-07
-8.75185e-10
1.89655e-07
-9.37036e-10
1.90644e-07
-9.88573e-10
1.91666e-07
-1.02218e-09
1.92693e-07
-1.02727e-09
-9.84971e-10
1.93678e-07
-3.12947e-09
4.80452e-09
-7.07733e-09
6.02032e-09
-1.10909e-08
6.14202e-09
-1.509e-08
6.11971e-09
-1.90631e-08
6.07669e-09
-2.30015e-08
6.01821e-09
-2.68957e-08
5.94347e-09
-3.07349e-08
5.85081e-09
-3.45076e-08
5.7388e-09
-3.82012e-08
5.60614e-09
-4.18028e-08
5.45211e-09
-4.5299e-08
5.27623e-09
-4.86761e-08
5.07837e-09
-5.19205e-08
4.85881e-09
-5.50185e-08
4.61777e-09
-5.79569e-08
4.35593e-09
-6.07229e-08
4.07412e-09
-6.33042e-08
3.77319e-09
-6.5689e-08
3.45407e-09
-6.78658e-08
3.11754e-09
-6.98238e-08
2.76422e-09
-7.15522e-08
2.39459e-09
-7.30408e-08
2.00902e-09
-7.42793e-08
1.60777e-09
-7.52581e-08
1.19114e-09
-7.59671e-08
7.59528e-10
-7.63969e-08
3.1179e-10
-7.65354e-08
-1.58691e-10
-7.63731e-08
-6.41823e-10
-7.58971e-08
-1.14458e-09
-7.50971e-08
-1.6637e-09
-7.39642e-08
-2.19559e-09
-7.24915e-08
-2.73957e-09
-7.06715e-08
-3.29633e-09
-6.84969e-08
-3.86493e-09
-6.59617e-08
-4.44365e-09
-6.30608e-08
-5.0305e-09
-5.97907e-08
-5.62316e-09
-5.61493e-08
-6.21904e-09
-5.21362e-08
-6.8154e-09
-4.77528e-08
-7.40933e-09
-4.30022e-08
-7.99795e-09
-3.7889e-08
-8.57843e-09
-3.24197e-08
-9.14814e-09
-2.66025e-08
-9.70476e-09
-2.04467e-08
-1.02455e-08
-1.39614e-08
-1.0768e-08
-7.16013e-09
-1.12724e-08
-5.06224e-11
-1.17538e-08
7.35512e-09
-1.22167e-08
1.50331e-08
-1.26504e-08
2.29741e-08
-1.30657e-08
3.11626e-08
-1.34548e-08
3.9584e-08
-1.38191e-08
4.8223e-08
-1.41566e-08
5.70633e-08
-1.44673e-08
6.60853e-08
-1.47454e-08
7.52697e-08
-1.49906e-08
8.45958e-08
-1.52014e-08
9.40422e-08
-1.53753e-08
1.03586e-07
-1.55094e-08
1.13202e-07
-1.56014e-08
1.22866e-07
-1.56484e-08
1.3255e-07
-1.56475e-08
1.42226e-07
-1.55962e-08
1.51863e-07
-1.54922e-08
1.61432e-07
-1.5333e-08
1.70899e-07
-1.5117e-08
1.80233e-07
-1.48422e-08
1.89399e-07
-1.45077e-08
1.98363e-07
-1.41125e-08
2.07093e-07
-1.36568e-08
2.15553e-07
-1.31416e-08
2.23712e-07
-1.2569e-08
2.31538e-07
-1.19427e-08
2.39003e-07
-1.12677e-08
2.46083e-07
-1.05517e-08
2.52759e-07
-9.80419e-09
2.59017e-07
-9.03733e-09
2.64852e-07
-8.26565e-09
2.70267e-07
-7.50586e-09
2.75276e-07
-6.77632e-09
2.79902e-07
-6.09626e-09
2.8418e-07
-5.48471e-09
2.88156e-07
-4.95901e-09
2.91881e-07
-4.53314e-09
2.95416e-07
-4.21582e-09
2.98819e-07
-4.00865e-09
3.0215e-07
-3.90508e-09
3.05458e-07
-3.89018e-09
3.08782e-07
-3.94202e-09
3.12142e-07
-4.03499e-09
3.15548e-07
-4.14471e-09
3.18992e-07
-4.25191e-09
3.2246e-07
-4.3438e-09
3.25937e-07
-4.41329e-09
3.29404e-07
-4.45596e-09
3.32848e-07
-4.4665e-09
3.36258e-07
-4.43709e-09
-4.35146e-09
3.39625e-07
-3.77193e-09
8.57645e-09
-8.51478e-09
1.07632e-08
-1.33205e-08
1.09477e-08
-1.81054e-08
1.09046e-08
-2.28567e-08
1.08281e-08
-2.75646e-08
1.07261e-08
-3.22184e-08
1.05972e-08
-3.68065e-08
1.04389e-08
-4.13165e-08
1.02488e-08
-4.57356e-08
1.00252e-08
-5.00502e-08
9.76674e-09
-5.42466e-08
9.47258e-09
-5.83106e-08
9.14244e-09
-6.22282e-08
8.7764e-09
-6.59854e-08
8.37495e-09
-6.95684e-08
7.93895e-09
-7.29638e-08
7.46952e-09
-7.61585e-08
6.96791e-09
-7.91398e-08
6.43533e-09
-8.18951e-08
5.87286e-09
-8.44122e-08
5.28134e-09
-8.66791e-08
4.66144e-09
-8.86837e-08
4.01363e-09
-9.04141e-08
3.33821e-09
-9.18585e-08
2.63545e-09
-9.30045e-08
1.9056e-09
-9.38405e-08
1.14778e-09
-9.43586e-08
3.59407e-10
-9.45441e-08
-4.56356e-10
-9.43857e-08
-1.30293e-09
-9.38715e-08
-2.17796e-09
-9.29881e-08
-3.079e-09
-9.17252e-08
-4.00245e-09
-9.00741e-08
-4.94736e-09
-8.80269e-08
-5.91212e-09
-8.55768e-08
-6.89377e-09
-8.27185e-08
-7.88887e-09
-7.94482e-08
-8.89337e-09
-7.57644e-08
-9.90292e-09
-7.1667e-08
-1.09128e-08
-6.71581e-08
-1.19182e-08
-6.22418e-08
-1.29142e-08
-5.69241e-08
-1.38961e-08
-5.12129e-08
-1.48594e-08
-4.51177e-08
-1.58e-08
-3.86494e-08
-1.67138e-08
-3.18199e-08
-1.75975e-08
-2.46432e-08
-1.84491e-08
-1.71323e-08
-1.92648e-08
-9.30406e-09
-2.00449e-08
-1.1703e-09
-2.07842e-08
7.25058e-09
-2.14866e-08
1.59418e-08
-2.21461e-08
2.48853e-08
-2.27625e-08
3.40638e-08
-2.33352e-08
4.3457e-08
-2.38605e-08
5.30489e-08
-2.43373e-08
6.28195e-08
-2.47611e-08
7.27465e-08
-2.51284e-08
8.28078e-08
-2.54365e-08
9.298e-08
-2.56817e-08
1.03239e-07
-2.58601e-08
1.13558e-07
-2.59677e-08
1.23911e-07
-2.60007e-08
1.3427e-07
-2.59552e-08
1.44606e-07
-2.58276e-08
1.54887e-07
-2.56147e-08
1.65084e-07
-2.53135e-08
1.75163e-07
-2.49216e-08
1.85093e-07
-2.44369e-08
1.94838e-07
-2.38584e-08
2.04367e-07
-2.31856e-08
2.13646e-07
-2.24199e-08
2.22641e-07
-2.15639e-08
2.3132e-07
-2.06225e-08
2.39656e-07
-1.9603e-08
2.4762e-07
-1.8516e-08
2.55191e-07
-1.73754e-08
2.62353e-07
-1.61989e-08
2.69095e-07
-1.5008e-08
2.75417e-07
-1.38279e-08
2.81327e-07
-1.26863e-08
2.86844e-07
-1.16131e-08
2.91997e-07
-1.06382e-08
2.96828e-07
-9.78962e-09
3.01386e-07
-9.09077e-09
3.05727e-07
-8.55753e-09
3.09914e-07
-8.19505e-09
3.14004e-07
-7.99551e-09
3.18051e-07
-7.93711e-09
3.22094e-07
-7.98524e-09
3.26157e-07
-8.09732e-09
3.30243e-07
-8.23093e-09
3.34342e-07
-8.3511e-09
3.38433e-07
-8.43447e-09
3.4249e-07
-8.47028e-09
3.46491e-07
-8.45678e-09
3.5042e-07
-8.39617e-09
3.54274e-07
-8.29054e-09
-8.13564e-09
3.58058e-07
-3.99222e-09
1.25687e-08
-8.99476e-09
1.57657e-08
-1.40648e-08
1.60177e-08
-1.9116e-08
1.59558e-08
-2.41351e-08
1.58472e-08
-2.91125e-08
1.57034e-08
-3.40377e-08
1.55224e-08
-3.88992e-08
1.53004e-08
-4.36849e-08
1.50345e-08
-4.83818e-08
1.47221e-08
-5.29764e-08
1.43614e-08
-5.74548e-08
1.3951e-08
-6.18029e-08
1.34905e-08
-6.60063e-08
1.29799e-08
-7.0051e-08
1.24196e-08
-7.39228e-08
1.18108e-08
-7.76081e-08
1.11548e-08
-8.10932e-08
1.0453e-08
-8.43647e-08
9.70685e-09
-8.74094e-08
8.91759e-09
-9.02143e-08
8.08619e-09
-9.27662e-08
7.21336e-09
-9.50521e-08
6.29955e-09
-9.70589e-08
5.34502e-09
-9.87733e-08
4.34986e-09
-1.00182e-07
3.31413e-09
-1.01271e-07
2.23716e-09
-1.0203e-07
1.11806e-09
-1.02444e-07
-4.18765e-11
-1.02503e-07
-1.24457e-09
-1.02193e-07
-2.48735e-09
-1.01503e-07
-3.76976e-09
-1.00418e-07
-5.08702e-09
-9.89298e-08
-6.43559e-09
-9.70293e-08
-7.81253e-09
-9.47096e-08
-9.21353e-09
-9.19651e-08
-1.06334e-08
-8.87922e-08
-1.20662e-08
-8.51894e-08
-1.35057e-08
-8.11571e-08
-1.49451e-08
-7.6698e-08
-1.63773e-08
-7.18169e-08
-1.77954e-08
-6.65204e-08
-1.91926e-08
-6.08173e-08
-2.05625e-08
-5.47182e-08
-2.18991e-08
-4.8235e-08
-2.3197e-08
-4.13809e-08
-2.44516e-08
-3.41706e-08
-2.56594e-08
-2.66189e-08
-2.68165e-08
-1.87428e-08
-2.79211e-08
-1.05571e-08
-2.89698e-08
-2.08063e-09
-2.99631e-08
6.6702e-09
-3.08969e-08
1.56767e-08
-3.17691e-08
2.49197e-08
-3.25782e-08
3.43805e-08
-3.33213e-08
4.40388e-08
-3.39956e-08
5.3875e-08
-3.45972e-08
6.38667e-08
-3.51202e-08
7.39912e-08
-3.5561e-08
8.4225e-08
-3.59154e-08
9.4543e-08
-3.61781e-08
1.04919e-07
-3.63439e-08
1.15326e-07
-3.6408e-08
1.25737e-07
-3.63654e-08
1.36121e-07
-3.62116e-08
1.46448e-07
-3.59422e-08
1.56688e-07
-3.55533e-08
1.66808e-07
-3.50419e-08
1.76776e-07
-3.44051e-08
1.86559e-07
-3.36413e-08
1.96124e-07
-3.27501e-08
2.05436e-07
-3.17325e-08
2.14464e-07
-3.05919e-08
2.23176e-07
-2.93342e-08
2.31542e-07
-2.79686e-08
2.39534e-07
-2.65085e-08
2.47131e-07
-2.4972e-08
2.54314e-07
-2.33819e-08
2.61072e-07
-2.17666e-08
2.67404e-07
-2.01593e-08
2.73315e-07
-1.85973e-08
2.78822e-07
-1.71207e-08
2.83955e-07
-1.57704e-08
2.8875e-07
-1.45851e-08
2.93257e-07
-1.35977e-08
2.97531e-07
-1.28315e-08
3.01631e-07
-1.2295e-08
3.05614e-07
-1.19789e-08
3.09531e-07
-1.18536e-08
3.13416e-07
-1.18707e-08
3.17288e-07
-1.19693e-08
3.21145e-07
-1.20873e-08
3.24967e-07
-1.21734e-08
3.28727e-07
-1.2195e-08
3.32397e-07
-1.21402e-08
3.35953e-07
-1.20124e-08
3.3938e-07
-1.18238e-08
3.42679e-07
-1.15889e-08
-1.1326e-08
3.45869e-07
-4.06494e-09
1.66336e-08
-9.14576e-09
2.08465e-08
-1.42996e-08
2.11716e-08
-1.94385e-08
2.10947e-08
-2.4549e-08
2.09577e-08
-2.96219e-08
2.07763e-08
-3.4647e-08
2.05475e-08
-3.96131e-08
2.02666e-08
-4.45081e-08
1.99295e-08
-4.93189e-08
1.95329e-08
-5.40318e-08
1.90743e-08
-5.86326e-08
1.85518e-08
-6.31069e-08
1.79648e-08
-6.74401e-08
1.7313e-08
-7.16175e-08
1.65971e-08
-7.56249e-08
1.58182e-08
-7.9448e-08
1.49779e-08
-8.30728e-08
1.40778e-08
-8.64854e-08
1.31194e-08
-8.9672e-08
1.21042e-08
-9.2619e-08
1.10332e-08
-9.53127e-08
9.907e-09
-9.77392e-08
8.72611e-09
-9.98848e-08
7.49063e-09
-1.01735e-07
6.2005e-09
-1.03277e-07
4.85556e-09
-1.04495e-07
3.4553e-09
-1.05376e-07
1.99934e-09
-1.05907e-07
4.88631e-10
-1.06074e-07
-1.07711e-09
-1.05865e-07
-2.69617e-09
-1.05268e-07
-4.36692e-09
-1.0427e-07
-6.08513e-09
-1.0286e-07
-7.84556e-09
-1.01029e-07
-9.64346e-09
-9.877e-08
-1.14729e-08
-9.60766e-08
-1.33268e-08
-9.29454e-08
-1.51974e-08
-8.93749e-08
-1.70762e-08
-8.53659e-08
-1.89541e-08
-8.09212e-08
-2.0822e-08
-7.60461e-08
-2.26705e-08
-7.07478e-08
-2.44909e-08
-6.50358e-08
-2.62745e-08
-5.89212e-08
-2.80137e-08
-5.24166e-08
-2.97015e-08
-4.55362e-08
-3.1332e-08
-3.82952e-08
-3.29004e-08
-3.07094e-08
-3.44022e-08
-2.2796e-08
-3.58346e-08
-1.45715e-08
-3.71943e-08
-6.05442e-09
-3.84802e-08
2.73752e-09
-3.96889e-08
1.17859e-08
-4.08175e-08
2.10713e-08
-4.18636e-08
3.05734e-08
-4.28233e-08
4.0273e-08
-4.36952e-08
5.01483e-08
-4.44725e-08
6.01775e-08
-4.51494e-08
7.03379e-08
-4.57214e-08
8.0605e-08
-4.61825e-08
9.09537e-08
-4.65268e-08
1.01358e-07
-4.67479e-08
1.11789e-07
-4.68397e-08
1.2222e-07
-4.67965e-08
1.32621e-07
-4.66125e-08
1.42961e-07
-4.62823e-08
1.5321e-07
-4.58015e-08
1.63334e-07
-4.51658e-08
1.733e-07
-4.43719e-08
1.83077e-07
-4.34177e-08
1.92629e-07
-4.23023e-08
2.01923e-07
-4.10269e-08
2.10926e-07
-3.9595e-08
2.19606e-07
-3.80136e-08
2.27931e-07
-3.62937e-08
2.35874e-07
-3.44515e-08
2.43411e-07
-3.25086e-08
2.50522e-07
-3.04936e-08
2.57197e-07
-2.84413e-08
2.63431e-07
-2.63932e-08
2.6923e-07
-2.43962e-08
2.7461e-07
-2.25011e-08
2.79599e-07
-2.07599e-08
2.84237e-07
-1.92222e-08
2.8857e-07
-1.79311e-08
2.92656e-07
-1.69172e-08
2.96554e-07
-1.61928e-08
3.00321e-07
-1.57461e-08
3.04006e-07
-1.55386e-08
3.07641e-07
-1.55058e-08
3.11238e-07
-1.55659e-08
3.14785e-07
-1.56348e-08
3.18256e-07
-1.56445e-08
3.21616e-07
-1.55548e-08
3.24831e-07
-1.53556e-08
3.27878e-07
-1.50588e-08
3.30744e-07
-1.46896e-08
3.33431e-07
-1.42766e-08
-1.38641e-08
3.35969e-07
-4.09641e-09
2.073e-08
-9.20684e-09
2.59569e-08
-1.43939e-08
2.63586e-08
-1.95687e-08
2.62696e-08
-2.4718e-08
2.6107e-08
-2.98326e-08
2.58909e-08
-3.49026e-08
2.56175e-08
-3.99168e-08
2.52807e-08
-4.48629e-08
2.48756e-08
-4.97277e-08
2.43977e-08
-5.44972e-08
2.38438e-08
-5.91569e-08
2.32115e-08
-6.3692e-08
2.24998e-08
-6.80876e-08
2.17086e-08
-7.23289e-08
2.08384e-08
-7.64012e-08
1.98905e-08
-8.02901e-08
1.88668e-08
-8.39813e-08
1.7769e-08
-8.74606e-08
1.65988e-08
-9.07141e-08
1.53577e-08
-9.37278e-08
1.40469e-08
-9.64878e-08
1.2667e-08
-9.89799e-08
1.12183e-08
-1.0119e-07
9.70081e-09
-1.03104e-07
8.11433e-09
-1.04707e-07
6.45849e-09
-1.05984e-07
4.7328e-09
-1.06922e-07
2.93713e-09
-1.07506e-07
1.0722e-09
-1.07722e-07
-8.61154e-10
-1.07557e-07
-2.86105e-09
-1.06999e-07
-4.92502e-09
-1.06035e-07
-7.04864e-09
-1.04655e-07
-9.22591e-09
-1.02848e-07
-1.14502e-08
-1.00607e-07
-1.37137e-08
-9.79263e-08
-1.60077e-08
-9.48016e-08
-1.83221e-08
-9.12315e-08
-2.06463e-08
-8.72168e-08
-2.29688e-08
-8.27607e-08
-2.52781e-08
-7.78687e-08
-2.75626e-08
-7.25484e-08
-2.98111e-08
-6.68098e-08
-3.20131e-08
-6.06645e-08
-3.4159e-08
-5.41258e-08
-3.62402e-08
-4.72084e-08
-3.82495e-08
-3.9928e-08
-4.01808e-08
-3.2301e-08
-4.20291e-08
-2.43449e-08
-4.37907e-08
-1.60769e-08
-4.54623e-08
-7.51552e-09
-4.70415e-08
1.321e-09
-4.85254e-08
1.04141e-08
-4.99106e-08
1.97443e-08
-5.11938e-08
2.9292e-08
-5.2371e-08
3.90365e-08
-5.34397e-08
4.89569e-08
-5.43929e-08
5.90313e-08
-5.52237e-08
6.92363e-08
-5.59264e-08
7.95479e-08
-5.64942e-08
8.99408e-08
-5.69197e-08
1.00388e-07
-5.71955e-08
1.10863e-07
-5.73146e-08
1.21337e-07
-5.72698e-08
1.31779e-07
-5.70546e-08
1.42159e-07
-5.66627e-08
1.52446e-07
-5.60884e-08
1.62607e-07
-5.53268e-08
1.72609e-07
-5.43739e-08
1.82418e-07
-5.32267e-08
1.92e-07
-5.18842e-08
2.0132e-07
-5.03471e-08
2.10344e-07
-4.86192e-08
2.19039e-07
-4.67083e-08
2.27372e-07
-4.46268e-08
2.35314e-07
-4.23935e-08
2.42839e-07
-4.00339e-08
2.49927e-07
-3.75816e-08
2.56564e-07
-3.50785e-08
2.62746e-07
-3.25744e-08
2.68476e-07
-3.01262e-08
2.7377e-07
-2.77957e-08
2.78657e-07
-2.56469e-08
2.83176e-07
-2.37413e-08
2.87378e-07
-2.21328e-08
2.91321e-07
-2.08607e-08
2.9507e-07
-1.99418e-08
2.98687e-07
-1.93624e-08
3.02222e-07
-1.90736e-08
3.05708e-07
-1.89924e-08
3.09154e-07
-1.90116e-08
3.12541e-07
-1.90217e-08
3.15832e-07
-1.89359e-08
3.18984e-07
-1.87069e-08
3.21957e-07
-1.83286e-08
3.24724e-07
-1.78252e-08
3.27272e-07
-1.72384e-08
3.29608e-07
-1.6612e-08
-1.60207e-08
3.31764e-07
-4.11593e-09
2.4846e-08
-9.24338e-09
3.10844e-08
-1.44496e-08
3.15648e-08
-1.96454e-08
3.14654e-08
-2.48176e-08
3.12793e-08
-2.99573e-08
3.10306e-08
-3.50544e-08
3.07146e-08
-4.00977e-08
3.0324e-08
-4.50747e-08
2.98526e-08
-4.99719e-08
2.9295e-08
-5.47751e-08
2.8647e-08
-5.94695e-08
2.79059e-08
-6.404e-08
2.70703e-08
-6.84714e-08
2.614e-08
-7.27488e-08
2.51158e-08
-7.68573e-08
2.3999e-08
-8.07822e-08
2.27918e-08
-8.45093e-08
2.14961e-08
-8.80244e-08
2.01138e-08
-9.13134e-08
1.86467e-08
-9.43624e-08
1.70958e-08
-9.71573e-08
1.54619e-08
-9.96841e-08
1.37451e-08
-1.01928e-07
1.19451e-08
-1.03876e-07
1.00617e-08
-1.05512e-07
8.09424e-09
-1.06821e-07
6.0422e-09
-1.07789e-07
3.90549e-09
-1.08402e-07
1.6848e-09
-1.08645e-07
-6.1846e-10
-1.08504e-07
-3.00194e-09
-1.07966e-07
-5.46235e-09
-1.0702e-07
-7.99464e-09
-1.05654e-07
-1.0592e-08
-1.03858e-07
-1.32464e-08
-1.01624e-07
-1.59481e-08
-9.89453e-08
-1.86862e-08
-9.58186e-08
-2.14488e-08
-9.22421e-08
-2.42228e-08
-8.82167e-08
-2.69942e-08
-8.37456e-08
-2.97492e-08
-7.88345e-08
-3.24737e-08
-7.34916e-08
-3.51541e-08
-6.7727e-08
-3.77778e-08
-6.15528e-08
-4.03332e-08
-5.49828e-08
-4.28102e-08
-4.80322e-08
-4.52001e-08
-4.07172e-08
-4.74959e-08
-3.30545e-08
-4.96918e-08
-2.50618e-08
-5.17834e-08
-1.67569e-08
-5.37672e-08
-8.15803e-09
-5.56404e-08
7.16288e-10
-5.73997e-08
9.84749e-09
-5.90418e-08
1.92164e-08
-6.05627e-08
2.88031e-08
-6.19578e-08
3.85879e-08
-6.32245e-08
4.85489e-08
-6.43539e-08
5.86651e-08
-6.53399e-08
6.8913e-08
-6.61743e-08
7.92687e-08
-6.68499e-08
8.97065e-08
-6.73575e-08
1.00201e-07
-6.76897e-08
1.10723e-07
-6.78369e-08
1.21245e-07
-6.77917e-08
1.31737e-07
-6.75462e-08
1.42167e-07
-6.70933e-08
1.52505e-07
-6.64261e-08
1.62717e-07
-6.55389e-08
1.7277e-07
-6.44269e-08
1.8263e-07
-6.30865e-08
1.92261e-07
-6.15157e-08
2.01629e-07
-5.9715e-08
2.10698e-07
-5.76882e-08
2.19433e-07
-5.54434e-08
2.27801e-07
-5.29945e-08
2.3577e-07
-5.03622e-08
2.43312e-07
-4.75761e-08
2.50405e-07
-4.46747e-08
2.57033e-07
-4.17069e-08
2.6319e-07
-3.87312e-08
2.68879e-07
-3.5815e-08
2.74115e-07
-3.30316e-08
2.78926e-07
-3.04579e-08
2.83353e-07
-2.81686e-08
2.87451e-07
-2.62302e-08
2.91283e-07
-2.46925e-08
2.94919e-07
-2.35784e-08
2.9843e-07
-2.28736e-08
3.01875e-07
-2.25182e-08
3.0529e-07
-2.24069e-08
3.08681e-07
-2.24027e-08
3.12024e-07
-2.23651e-08
3.15273e-07
-2.21846e-08
3.18372e-07
-2.1806e-08
3.21273e-07
-2.12296e-08
3.23944e-07
-2.04959e-08
3.26371e-07
-1.96659e-08
3.28559e-07
-1.88002e-08
-1.80062e-08
3.30545e-07
-4.13131e-09
2.89773e-08
-9.27229e-09
3.62253e-08
-1.44936e-08
3.67861e-08
-1.9706e-08
3.66778e-08
-2.48968e-08
3.647e-08
-3.00568e-08
3.61906e-08
-3.51762e-08
3.58339e-08
-4.02434e-08
3.53913e-08
-4.52458e-08
3.4855e-08
-5.01696e-08
3.42188e-08
-5.50002e-08
3.34776e-08
-5.97225e-08
3.26282e-08
-6.43211e-08
3.16689e-08
-6.87806e-08
3.05996e-08
-7.30859e-08
2.94211e-08
-7.7222e-08
2.81351e-08
-8.11742e-08
2.67439e-08
-8.49281e-08
2.525e-08
-8.84696e-08
2.36553e-08
-9.17848e-08
2.19619e-08
-9.48597e-08
2.01708e-08
-9.76805e-08
1.82826e-08
-1.00233e-07
1.62976e-08
-1.02503e-07
1.42151e-08
-1.04476e-07
1.20346e-08
-1.06137e-07
9.75534e-09
-1.07471e-07
7.37661e-09
-1.08464e-07
4.89829e-09
-1.091e-07
2.32106e-09
-1.09365e-07
-3.53364e-10
-1.09245e-07
-3.12214e-09
-1.08726e-07
-5.98125e-09
-1.07796e-07
-8.9248e-09
-1.06443e-07
-1.19451e-08
-1.04657e-07
-1.50324e-08
-1.0243e-07
-1.81756e-08
-9.97542e-08
-2.13616e-08
-9.66268e-08
-2.45762e-08
-9.30458e-08
-2.78038e-08
-8.90118e-08
-3.10282e-08
-8.45283e-08
-3.42327e-08
-7.96012e-08
-3.74008e-08
-7.42387e-08
-4.05165e-08
-6.84515e-08
-4.35649e-08
-6.22522e-08
-4.65326e-08
-5.56548e-08
-4.94075e-08
-4.8675e-08
-5.21799e-08
-4.13294e-08
-5.48415e-08
-3.36353e-08
-5.73859e-08
-2.56103e-08
-5.98084e-08
-1.72726e-08
-6.21049e-08
-8.64051e-09
-6.42725e-08
2.67658e-10
-6.63079e-08
9.4333e-09
-6.82074e-08
1.88373e-08
-6.99667e-08
2.84604e-08
-7.15808e-08
3.82824e-08
-7.30466e-08
4.82831e-08
-7.43545e-08
5.84399e-08
-7.54966e-08
6.87304e-08
-7.64648e-08
7.91304e-08
-7.72499e-08
8.9615e-08
-7.7842e-08
1.00157e-07
-7.8232e-08
1.1073e-07
-7.84094e-08
1.21304e-07
-7.83656e-08
1.31849e-07
-7.80916e-08
1.42335e-07
-7.75791e-08
1.52729e-07
-7.68204e-08
1.62999e-07
-7.58088e-08
1.73111e-07
-7.45385e-08
1.83029e-07
-7.3005e-08
1.92719e-07
-7.12057e-08
2.02145e-07
-6.91403e-08
2.11269e-07
-6.68123e-08
2.20055e-07
-6.42298e-08
2.28468e-07
-6.14078e-08
2.36475e-07
-5.8369e-08
2.44045e-07
-5.51462e-08
2.51154e-07
-5.17833e-08
2.57783e-07
-4.83361e-08
2.63924e-07
-4.48721e-08
2.69578e-07
-4.14694e-08
2.74761e-07
-3.8214e-08
2.79499e-07
-3.51964e-08
2.83837e-07
-3.25061e-08
2.87831e-07
-3.02245e-08
2.91553e-07
-2.84143e-08
2.95082e-07
-2.71073e-08
2.98498e-07
-2.62899e-08
3.01871e-07
-2.58912e-08
3.05244e-07
-2.57802e-08
3.08625e-07
-2.57835e-08
3.11982e-07
-2.57221e-08
3.15256e-07
-2.54584e-08
3.18377e-07
-2.49278e-08
3.21288e-07
-2.41406e-08
3.23951e-07
-2.3158e-08
3.26348e-07
-2.20634e-08
3.28481e-07
-2.09335e-08
-1.99103e-08
3.30385e-07
-4.14538e-09
3.31226e-08
-9.29933e-09
4.13793e-08
-1.45351e-08
4.20218e-08
-1.97637e-08
4.19064e-08
-2.49727e-08
4.1679e-08
-3.01531e-08
4.1371e-08
-3.52949e-08
4.09757e-08
-4.03864e-08
4.04828e-08
-4.54146e-08
3.98833e-08
-5.03654e-08
3.91696e-08
-5.52239e-08
3.8336e-08
-5.99745e-08
3.73788e-08
-6.46015e-08
3.62959e-08
-6.90893e-08
3.50874e-08
-7.34225e-08
3.37543e-08
-7.75859e-08
3.22985e-08
-8.1565e-08
3.0723e-08
-8.53452e-08
2.90302e-08
-8.89127e-08
2.72228e-08
-9.22535e-08
2.53027e-08
-9.53539e-08
2.32712e-08
-9.82002e-08
2.11289e-08
-1.00778e-07
1.88756e-08
-1.03074e-07
1.65107e-08
-1.05072e-07
1.40333e-08
-1.06759e-07
1.14423e-08
-1.0812e-07
8.73678e-09
-1.09138e-07
5.91657e-09
-1.09799e-07
2.98228e-09
-1.10088e-07
-6.42286e-11
-1.09991e-07
-3.21962e-09
-1.09493e-07
-6.47932e-09
-1.08581e-07
-9.83645e-09
-1.07244e-07
-1.32823e-08
-1.05471e-07
-1.68057e-08
-1.03252e-07
-2.03937e-08
-1.00583e-07
-2.40313e-08
-9.7457e-08
-2.77019e-08
-9.38734e-08
-3.13874e-08
-8.98328e-08
-3.50689e-08
-8.53383e-08
-3.87271e-08
-8.03963e-08
-4.23429e-08
-7.50152e-08
-4.58976e-08
-6.9206e-08
-4.93742e-08
-6.29816e-08
-5.27569e-08
-5.63569e-08
-5.60323e-08
-4.93478e-08
-5.9189e-08
-4.19713e-08
-6.2218e-08
-3.42451e-08
-6.51121e-08
-2.61872e-08
-6.78662e-08
-1.7816e-08
-7.04762e-08
-9.14958e-09
-7.29389e-08
-2.06423e-10
-7.5251e-08
8.99508e-09
-7.74089e-08
1.84361e-08
-7.94077e-08
2.8099e-08
-8.12437e-08
3.79609e-08
-8.29085e-08
4.8002e-08
-8.43957e-08
5.82027e-08
-8.56973e-08
6.85394e-08
-8.68015e-08
7.89881e-08
-8.76986e-08
8.95236e-08
-8.83776e-08
1.00119e-07
-8.88276e-08
1.10748e-07
-8.90378e-08
1.21379e-07
-8.89975e-08
1.31985e-07
-8.86969e-08
1.42532e-07
-8.81267e-08
1.5299e-07
-8.72782e-08
1.63325e-07
-8.61436e-08
1.73503e-07
-8.47161e-08
1.83488e-07
-8.29903e-08
1.93245e-07
-8.09625e-08
2.02736e-07
-7.86314e-08
2.11924e-07
-7.59999e-08
2.2077e-07
-7.3076e-08
2.29237e-07
-6.98749e-08
2.37289e-07
-6.64212e-08
2.44894e-07
-6.27509e-08
2.52023e-07
-5.89128e-08
2.58657e-07
-5.49698e-08
2.64784e-07
-5.09986e-08
2.70403e-07
-4.70886e-08
2.75528e-07
-4.3339e-08
2.80187e-07
-3.98554e-08
2.84425e-07
-3.6744e-08
2.88303e-07
-3.41032e-08
2.91901e-07
-3.20121e-08
2.95309e-07
-3.05147e-08
2.9862e-07
-2.96011e-08
3.01918e-07
-2.91896e-08
3.05258e-07
-2.91197e-08
3.08647e-07
-2.91724e-08
3.12044e-07
-2.912e-08
3.15375e-07
-2.87894e-08
3.18554e-07
-2.81062e-08
3.21508e-07
-2.70951e-08
3.24194e-07
-2.58439e-08
3.26593e-07
-2.44623e-08
3.28699e-07
-2.30397e-08
-2.17519e-08
3.30541e-07
-4.15933e-09
3.7282e-08
-9.32685e-09
4.65468e-08
-1.45779e-08
4.72729e-08
-1.98238e-08
4.71523e-08
-2.50523e-08
4.69076e-08
-3.02548e-08
4.65735e-08
-3.54211e-08
4.61419e-08
-4.05392e-08
4.56009e-08
-4.55959e-08
4.494e-08
-5.05766e-08
4.41503e-08
-5.54659e-08
4.32253e-08
-6.02478e-08
4.21606e-08
-6.49062e-08
4.09543e-08
-6.94251e-08
3.96063e-08
-7.3789e-08
3.81181e-08
-7.79825e-08
3.6492e-08
-8.19909e-08
3.47314e-08
-8.58e-08
3.28393e-08
-8.93958e-08
3.08186e-08
-9.27647e-08
2.86716e-08
-9.58931e-08
2.63996e-08
-9.87673e-08
2.40031e-08
-1.01373e-07
2.14817e-08
-1.03697e-07
1.88347e-08
-1.05725e-07
1.60606e-08
-1.0744e-07
1.3158e-08
-1.08829e-07
1.01258e-08
-1.09876e-07
6.9635e-09
-1.10566e-07
3.67167e-09
-1.10882e-07
2.52231e-10
-1.10811e-07
-3.29111e-09
-1.10337e-07
-6.9532e-09
-1.09447e-07
-1.07263e-08
-1.08129e-07
-1.46006e-08
-1.06371e-07
-1.85634e-08
-1.04165e-07
-2.26e-08
-1.01503e-07
-2.66934e-08
-9.83801e-08
-3.08244e-08
-9.4795e-08
-3.49725e-08
-9.07479e-08
-3.9116e-08
-8.62423e-08
-4.32327e-08
-8.12845e-08
-4.73007e-08
-7.58833e-08
-5.12988e-08
-7.00502e-08
-5.52073e-08
-6.37985e-08
-5.90085e-08
-5.71437e-08
-6.26871e-08
-5.01022e-08
-6.62305e-08
-4.26917e-08
-6.96285e-08
-3.49301e-08
-7.28737e-08
-2.68359e-08
-7.59604e-08
-1.84275e-08
-7.88846e-08
-9.72318e-09
-8.16432e-08
-7.41282e-10
-8.42329e-08
8.49994e-09
-8.66501e-08
1.79818e-08
-8.88896e-08
2.76856e-08
-9.09475e-08
3.75925e-08
-9.28154e-08
4.76818e-08
-9.44849e-08
5.79317e-08
-9.59472e-08
6.83202e-08
-9.71901e-08
7.88234e-08
-9.82018e-08
8.94162e-08
-9.89703e-08
1.00072e-07
-9.94833e-08
1.10763e-07
-9.97286e-08
1.2146e-07
-9.96945e-08
1.32132e-07
-9.93697e-08
1.4275e-07
-9.8744e-08
1.53279e-07
-9.78077e-08
1.63687e-07
-9.65518e-08
1.7394e-07
-9.49685e-08
1.84001e-07
-9.30513e-08
1.93833e-07
-9.07951e-08
2.034e-07
-8.81976e-08
2.1266e-07
-8.52605e-08
2.21575e-07
-8.19911e-08
2.30105e-07
-7.84047e-08
2.38211e-07
-7.45272e-08
2.45857e-07
-7.03972e-08
2.53013e-07
-6.60685e-08
2.59654e-07
-6.16112e-08
2.65767e-07
-5.71113e-08
2.71348e-07
-5.26699e-08
2.7641e-07
-4.84004e-08
2.80979e-07
-4.44248e-08
2.85103e-07
-4.08677e-08
2.88848e-07
-3.78478e-08
2.923e-07
-3.54646e-08
2.95564e-07
-3.37789e-08
2.98752e-07
-3.27885e-08
3.01964e-07
-3.24019e-08
3.05269e-07
-3.24244e-08
3.08676e-07
-3.25801e-08
3.12135e-07
-3.25782e-08
3.15546e-07
-3.22006e-08
3.18802e-07
-3.13629e-08
3.21818e-07
-3.01107e-08
3.24541e-07
-2.85669e-08
3.26951e-07
-2.68722e-08
3.29035e-07
-2.51237e-08
-2.3525e-08
3.30808e-07
-4.17359e-09
4.14556e-08
-9.35559e-09
5.17288e-08
-1.46231e-08
5.25404e-08
-1.98877e-08
5.24169e-08
-2.51378e-08
5.21577e-08
-3.03647e-08
5.18004e-08
-3.55582e-08
5.13354e-08
-4.07062e-08
5.07489e-08
-4.57948e-08
5.00286e-08
-5.0809e-08
4.91645e-08
-5.57328e-08
4.81491e-08
-6.05498e-08
4.69776e-08
-6.52433e-08
4.56479e-08
-6.97971e-08
4.41601e-08
-7.41952e-08
4.25162e-08
-7.84222e-08
4.07191e-08
-8.24634e-08
3.87726e-08
-8.63046e-08
3.66805e-08
-8.9932e-08
3.4446e-08
-9.33321e-08
3.20718e-08
-9.64917e-08
2.95591e-08
-9.93971e-08
2.69085e-08
-1.02035e-07
2.41194e-08
-1.04391e-07
2.11904e-08
-1.0645e-07
1.812e-08
-1.08198e-07
1.49061e-08
-1.0962e-07
1.15473e-08
-1.10699e-07
8.04281e-09
-1.1142e-07
4.39296e-09
-1.11768e-07
5.99668e-10
-1.11726e-07
-3.33297e-09
-1.1128e-07
-7.39949e-09
-1.10415e-07
-1.15911e-08
-1.09118e-07
-1.58969e-08
-1.07379e-07
-2.03029e-08
-1.05186e-07
-2.47925e-08
-1.02533e-07
-2.93463e-08
-9.94149e-08
-3.39429e-08
-9.58284e-08
-3.8559e-08
-9.17744e-08
-4.317e-08
-8.72564e-08
-4.77507e-08
-8.22809e-08
-5.22762e-08
-7.68571e-08
-5.67226e-08
-7.0997e-08
-6.10674e-08
-6.47146e-08
-6.52909e-08
-5.80258e-08
-6.93759e-08
-5.09479e-08
-7.33084e-08
-4.34989e-08
-7.70775e-08
-3.56976e-08
-8.0675e-08
-2.75626e-08
-8.40954e-08
-1.91126e-08
-8.73346e-08
-1.0366e-08
-9.03898e-08
-1.34084e-09
-9.32581e-08
7.94473e-09
-9.59357e-08
1.74721e-08
-9.84169e-08
2.72235e-08
-1.00699e-07
3.718e-08
-1.02772e-07
4.73211e-08
-1.04626e-07
5.7626e-08
-1.06252e-07
6.80723e-08
-1.07636e-07
7.86364e-08
-1.08766e-07
8.92931e-08
-1.09627e-07
1.00016e-07
-1.10206e-07
1.10777e-07
-1.10489e-07
1.21546e-07
-1.10464e-07
1.32294e-07
-1.10118e-07
1.4299e-07
-1.09439e-07
1.53599e-07
-1.08417e-07
1.64089e-07
-1.07042e-07
1.74426e-07
-1.05305e-07
1.84571e-07
-1.03197e-07
1.94489e-07
-1.00713e-07
2.04141e-07
-9.78487e-08
2.13484e-07
-9.46041e-08
2.22478e-07
-9.09852e-08
2.3108e-07
-8.70068e-08
2.39249e-07
-8.26956e-08
2.46944e-07
-7.80926e-08
2.54132e-07
-7.32563e-08
2.60784e-07
-6.82638e-08
2.66884e-07
-6.32108e-08
2.72425e-07
-5.82106e-08
2.77416e-07
-5.33916e-08
2.81884e-07
-4.88932e-08
2.85878e-07
-4.48609e-08
2.89467e-07
-4.14372e-08
2.92749e-07
-3.87465e-08
2.95843e-07
-3.68731e-08
2.98883e-07
-3.58282e-08
3.01994e-07
-3.55126e-08
3.05261e-07
-3.56916e-08
3.08698e-07
-3.60174e-08
3.12238e-07
-3.61179e-08
3.15754e-07
-3.5717e-08
3.19111e-07
-3.47195e-08
3.22202e-07
-3.32018e-08
3.2497e-07
-3.13351e-08
3.27395e-07
-2.92977e-08
3.2946e-07
-2.71878e-08
-2.52219e-08
3.31156e-07
-4.1882e-09
4.56438e-08
-9.38547e-09
5.69261e-08
-1.46706e-08
5.78255e-08
-1.99555e-08
5.77019e-08
-2.52293e-08
5.74315e-08
-3.04831e-08
5.70542e-08
-3.57069e-08
5.65592e-08
-4.0888e-08
5.593e-08
-4.60122e-08
5.51528e-08
-5.10638e-08
5.42161e-08
-5.60262e-08
5.31115e-08
-6.08824e-08
5.18337e-08
-6.56151e-08
5.03806e-08
-7.02076e-08
4.87527e-08
-7.46437e-08
4.69523e-08
-7.89079e-08
4.49832e-08
-8.29854e-08
4.28501e-08
-8.68621e-08
4.05572e-08
-9.05244e-08
3.81084e-08
-9.39592e-08
3.55065e-08
-9.71532e-08
3.27531e-08
-1.00093e-07
2.98486e-08
-1.02766e-07
2.6792e-08
-1.05157e-07
2.35816e-08
-1.07252e-07
2.02152e-08
-1.09037e-07
1.66904e-08
-1.10495e-07
1.30052e-08
-1.1161e-07
9.1584e-09
-1.12367e-07
5.15004e-09
-1.1275e-07
9.81969e-10
-1.12741e-07
-3.34161e-09
-1.12326e-07
-7.81459e-09
-1.11489e-07
-1.24276e-08
-1.10218e-07
-1.71685e-08
-1.08499e-07
-2.20218e-08
-1.06322e-07
-2.69691e-08
-1.0368e-07
-3.19888e-08
-1.00566e-07
-3.70568e-08
-9.6978e-08
-4.2147e-08
-9.29163e-08
-4.72317e-08
-8.83843e-08
-5.22827e-08
-8.33889e-08
-5.72717e-08
-7.79396e-08
-6.21718e-08
-7.20491e-08
-6.6958e-08
-6.57319e-08
-7.1608e-08
-5.90049e-08
-7.61029e-08
-5.1886e-08
-8.04273e-08
-4.43941e-08
-8.45694e-08
-3.65483e-08
-8.85208e-08
-2.83679e-08
-9.22758e-08
-1.98717e-08
-9.58309e-08
-1.10781e-08
-9.91834e-08
-2.00519e-09
-1.02331e-07
7.32952e-09
-1.0527e-07
1.6909e-08
-1.07996e-07
2.67106e-08
-1.10501e-07
3.67217e-08
-1.12783e-07
4.69202e-08
-1.14825e-07
5.72856e-08
-1.16617e-07
6.77956e-08
-1.18146e-07
7.84267e-08
-1.19397e-07
8.91542e-08
-1.20354e-07
9.99509e-08
-1.21003e-07
1.10789e-07
-1.21328e-07
1.21639e-07
-1.21314e-07