/*--------------------------------*- C++ -*----------------------------------*\
| =========                 |                                                 |
| \\      /  F ield         | OpenFOAM: The Open Source CFD Toolbox           |
|  \\    /   O peration     | Version:  2.4.0                                 |
|   \\  /    A nd           | Web:      www.OpenFOAM.org                      |
|    \\/     M anipulation  |                                                 |
\*---------------------------------------------------------------------------*/
FoamFile
{
    version     2.0;
    format      ascii;
    class       volScalarField;
    location    "0.003";
    object      alpha.water;
}
// * * * * * * * * * * * * * * * * * * * * * * * * * * * * * * * * * * * * * //

dimensions      [0 0 0 0 0 0 0];

internalField   nonuniform List<scalar> 
10000
(
1.264e-184
3.95287e-179
3.61053e-176
6.24328e-171
3.30294e-165
7.14152e-160
5.99583e-155
2.57809e-150
6.39477e-146
1.00729e-141
1.0709e-137
8.01552e-134
4.35496e-130
1.75702e-126
5.35531e-123
1.24971e-119
2.25629e-116
3.17579e-113
3.50348e-110
3.03833e-107
2.07113e-104
1.10701e-101
4.62194e-99
1.49806e-96
3.73681e-94
7.09717e-92
1.01391e-89
1.07189e-87
8.11787e-86
4.27133e-84
1.49986e-82
3.31046e-81
4.15103e-80
2.64398e-79
5.43387e-79
1.12285e-79
8.97835e-82
3.92149e-84
1.2703e-86
3.41724e-89
7.99103e-92
1.64796e-94
3.06693e-97
5.02296e-100
6.98245e-103
7.87365e-106
1.03542e-105
4.36305e-103
1.76944e-100
6.93404e-98
1.58212e-178
4.94926e-173
6.08569e-170
7.55041e-167
3.73573e-161
1.25962e-155
1.89959e-150
1.01957e-145
2.71197e-141
4.29837e-137
4.45672e-133
3.20205e-129
1.65711e-125
6.35045e-122
1.83926e-118
4.08825e-115
7.0557e-112
9.5313e-109
1.01356e-105
8.51567e-103
5.65316e-100
2.95723e-97
1.21445e-94
3.89096e-92
9.63591e-90
1.82133e-87
2.58515e-85
2.70194e-83
2.03658e-81
1.08751e-79
3.97541e-78
9.31341e-77
1.27311e-75
8.55579e-75
2.13548e-74
7.91816e-75
1.02035e-76
8.99086e-79
6.1998e-81
3.51714e-83
1.68241e-85
6.91549e-88
2.47492e-90
7.42507e-93
1.79818e-95
3.55995e-98
1.20512e-97
2.75723e-95
5.94226e-93
1.20949e-90
5.41206e-173
1.48997e-167
2.59141e-164
1.7276e-161
7.14201e-157
7.27246e-152
4.64625e-147
2.26099e-142
6.55912e-138
1.08033e-133
1.12408e-129
8.04987e-126
4.15034e-122
1.58885e-118
4.62965e-115
1.03968e-111
1.82694e-108
2.53116e-105
2.77157e-102
2.41339e-99
1.67277e-96
9.17312e-94
3.96158e-91
1.33849e-88
3.50359e-86
7.0144e-84
1.05824e-81
1.18603e-79
9.68728e-78
5.55939e-76
2.16741e-74
5.48419e-73
8.53718e-72
7.11958e-71
2.15681e-70
1.18588e-70
2.31651e-72
2.78188e-74
2.48779e-76
1.77477e-78
1.04296e-80
5.22689e-83
2.22072e-85
7.73704e-88
2.24184e-90
5.15982e-93
1.71143e-92
3.38351e-90
6.18435e-88
1.04852e-85
8.31373e-168
1.9739e-162
4.28967e-159
6.17554e-156
6.13919e-152
3.75614e-147
1.3021e-142
2.97481e-138
4.51082e-134
5.04132e-130
4.12852e-126
2.52635e-122
1.16753e-118
4.05588e-115
1.09828e-111
2.31276e-108
3.86153e-105
5.16571e-102
5.49181e-99
4.67707e-96
3.20914e-93
1.75616e-90
7.62002e-88
2.60676e-85
6.98631e-83
1.44697e-80
2.27251e-78
2.65292e-76
2.24571e-74
1.34371e-72
5.58161e-71
1.58231e-69
2.77324e-68
2.70924e-67
1.1066e-66
9.547e-67
3.16803e-68
4.64877e-70
4.60438e-72
3.5087e-74
2.21909e-76
1.17261e-78
5.1929e-81
1.96161e-83
5.85194e-86
1.43783e-88
1.96386e-88
3.7737e-86
6.61734e-84
1.06261e-81
7.01643e-163
1.4088e-157
3.48555e-154
7.43213e-151
4.33772e-147
1.26176e-142
3.00961e-138
4.92065e-134
5.48536e-130
4.44923e-126
2.71142e-122
1.28247e-118
4.77194e-115
1.37864e-111
3.2328e-108
6.04492e-105
9.03067e-102
1.10192e-98
1.0803e-95
8.56333e-93
5.5392e-90
2.89039e-87
1.20784e-84
4.016e-82
1.05226e-79
2.14616e-77
3.34606e-75
3.91205e-73
3.39323e-71
2.13646e-69
9.40826e-68
2.81052e-66
5.65341e-65
6.43726e-64
3.50287e-63
4.66972e-63
3.32384e-64
5.35861e-66
5.40995e-68
4.21353e-70
2.68397e-72
1.47002e-74
6.74221e-77
2.63516e-79
8.38696e-82
2.1112e-84
8.32446e-85
1.591e-82
2.75689e-80
4.3343e-78
3.58801e-158
6.03175e-153
1.59722e-149
4.09547e-146
2.17748e-142
3.1543e-138
5.2339e-134
5.94427e-130
5.02653e-126
3.19934e-122
1.57582e-118
5.94398e-115
1.8043e-111
4.32901e-108
8.63238e-105
1.3924e-101
1.8289e-98
1.99623e-95
1.7796e-92
1.29517e-89
7.77698e-87
3.81083e-84
1.50833e-81
4.79111e-79
1.20964e-76
2.39829e-74
3.71562e-72
4.37231e-70
3.8237e-68
2.43192e-66
1.13718e-64
3.68541e-63
8.07324e-62
1.10957e-60
7.60951e-60
1.53553e-59
2.66046e-60
4.43027e-62
4.47831e-64
3.47246e-66
2.26637e-68
1.25942e-70
6.07654e-73
2.44883e-75
8.37232e-78
2.19837e-80
2.36722e-81
4.45211e-79
7.64143e-77
1.18134e-74
1.18224e-153
1.66192e-148
4.53047e-145
1.24873e-141
6.20402e-138
5.35962e-134
6.4822e-130
5.70401e-126
3.71604e-122
1.82423e-118
7.18425e-115
2.22101e-111
5.66352e-108
1.15837e-104
1.95728e-101
2.72802e-98
3.14179e-95
3.04329e-92
2.43726e-89
1.61253e-86
8.8901e-84
4.04414e-81
1.50252e-78
4.53973e-76
1.1042e-73
2.13572e-71
3.22878e-69
3.74744e-67
3.32442e-65
2.18568e-63
1.04063e-61
3.65479e-60
8.77837e-59
1.41311e-57
1.2076e-56
3.77462e-56
1.41028e-56
2.60009e-58
2.93996e-60
2.60566e-62
1.9486e-64
1.26041e-66
7.05663e-69
3.3161e-71
1.30811e-73
3.98877e-76
6.28737e-78
1.02095e-75
1.73198e-73
2.62882e-71
2.6234e-149
3.09797e-144
8.49332e-141
2.37854e-137
1.09114e-133
6.82431e-130
5.68008e-126
4.05613e-122
2.15524e-118
8.62337e-115
2.72632e-111
6.97708e-108
1.4718e-104
2.55276e-101
3.70655e-98
4.52576e-95
4.57298e-92
3.92336e-89
2.82614e-86
1.69641e-83
8.55512e-81
3.59705e-78
1.25026e-75
3.56157e-73
8.25241e-71
1.53394e-68
2.26372e-66
2.61914e-64
2.31448e-62
1.55005e-60
7.74628e-59
2.83626e-57
7.60161e-56
1.38145e-54
1.50539e-53
6.90168e-53
5.23024e-53
1.28307e-54
2.01569e-56
2.42937e-58
2.37142e-60
1.91735e-62
1.28578e-64
7.27474e-67
3.28425e-69
1.18732e-71
4.25017e-74
2.11631e-72
3.54035e-70
5.25945e-68
4.05629e-145
4.05585e-140
1.10399e-136
3.03621e-133
1.25037e-129
6.33428e-126
3.68658e-122
2.13826e-118
9.47989e-115
3.21093e-111
8.64178e-108
1.85248e-104
3.25742e-101
4.85078e-98
6.03239e-95
6.41242e-92
5.70808e-89
4.34389e-86
2.79903e-83
1.51557e-80
6.97317e-78
2.70762e-75
8.75176e-73
2.33925e-70
5.15393e-68
9.25021e-66
1.32942e-63
1.50518e-61
1.33297e-59
9.02703e-58
4.64722e-56
1.80057e-54
5.21745e-53
1.07757e-51
1.45551e-50
9.24241e-50
1.36496e-49
5.79599e-51
1.28689e-52
1.95075e-54
2.24518e-56
2.07065e-58
1.57406e-60
9.84825e-63
5.03519e-65
2.0345e-67
6.1366e-70
4.19026e-69
6.90282e-67
1.00095e-64
4.49143e-141
3.83914e-136
1.03188e-132
2.73245e-129
1.00496e-125
4.26642e-122
1.87762e-118
8.56807e-115
3.2112e-111
9.37983e-108
2.18597e-104
4.07239e-101
6.26334e-98
7.9919e-95
8.58415e-92
7.90663e-89
6.18064e-86
4.15249e-83
2.3957e-80
1.17326e-77
4.90776e-75
1.74974e-72
5.25852e-70
1.32408e-67
2.76352e-65
4.72958e-63
6.58834e-61
7.35643e-59
6.44879e-57
4.39942e-55
2.3161e-53
9.39321e-52
2.89181e-50
6.82122e-49
1.0862e-47
9.21933e-47
2.39648e-46
4.10839e-47
1.04714e-48
1.61079e-50
1.87186e-52
1.76836e-54
1.38738e-56
9.18343e-59
5.04177e-61
2.17558e-63
7.25941e-66
8.24011e-66
1.33513e-63
1.88634e-61
3.64209e-137
2.68916e-132
7.131e-129
1.79909e-125
5.9379e-122
2.16068e-118
7.78584e-115
2.67925e-111
8.46501e-108
2.15634e-104
4.39617e-101
7.27655e-98
9.96282e-95
1.12584e-91
1.06363e-88
8.51887e-86
5.86677e-83
3.47855e-80
1.7913e-77
7.91437e-75
3.00838e-72
9.84761e-70
2.74443e-67
6.4612e-65
1.27533e-62
2.09184e-60
2.81316e-58
3.0523e-56
2.66713e-54
1.82484e-52
9.7249e-51
4.06687e-49
1.34232e-47
3.43404e-46
6.45767e-45
7.33292e-44
3.12111e-43
1.56227e-43
4.36155e-45
7.11534e-47
8.68067e-49
8.78572e-51
7.54272e-53
5.4008e-55
3.26227e-57
1.61287e-59
6.07826e-62
1.62166e-62
2.57436e-60
3.5429e-58
2.203e-133
1.42037e-128
3.72372e-125
8.92342e-122
2.65354e-118
8.27318e-115
2.48926e-111
6.90577e-108
1.82077e-104
4.02382e-101
7.22001e-98
1.0638e-94
1.29874e-91
1.31522e-88
1.11801e-85
8.02553e-83
4.906e-80
2.58376e-77
1.18588e-74
4.71918e-72
1.62613e-69
4.86727e-67
1.25389e-64
2.75603e-62
5.13134e-60
8.01744e-58
1.03914e-55
1.10159e-53
9.40553e-52
6.44985e-50
3.49518e-48
1.49284e-46
5.10717e-45
1.4247e-43
3.08176e-42
4.34246e-41
2.7525e-40
3.45359e-40
1.40262e-41
3.6106e-43
7.09732e-45
1.11442e-46
1.42104e-48
1.4807e-50
1.20824e-52
7.73846e-55
3.71703e-57
4.19751e-59
4.74228e-57
6.36441e-55
1.00915e-129
5.74404e-125
1.49394e-121
3.40647e-118
9.19378e-115
2.51325e-111
6.48028e-108
1.50167e-104
3.18093e-101
6.08671e-98
9.68254e-95
1.27654e-91
1.40298e-88
1.28425e-85
9.89853e-83
6.44806e-80
3.58019e-77
1.70154e-74
7.01682e-72
2.53056e-69
7.93257e-67
2.16902e-64
5.14733e-62
1.0502e-59
1.82857e-57
2.69206e-55
3.33233e-53
3.4321e-51
2.88585e-49
1.95361e-47
1.0632e-45
4.66025e-44
1.64632e-42
4.83033e-41
1.16049e-39
2.00844e-38
1.80555e-37
4.45844e-37
4.99059e-38
2.01443e-39
5.15832e-41
9.78515e-43
1.45173e-44
1.69246e-46
1.5934e-48
1.12115e-50
6.08879e-53
2.75083e-55
7.82693e-54
1.02603e-51
3.5446e-126
1.80072e-121
4.66695e-118
1.01466e-114
2.48606e-111
6.01567e-108
1.35396e-104
2.67995e-101
4.7319e-98
7.72224e-95
1.08849e-91
1.28278e-88
1.27331e-85
1.05934e-82
7.42819e-80
4.41675e-77
2.24271e-74
9.83071e-72
3.72516e-69
1.22042e-66
3.49198e-64
8.70824e-62
1.89823e-59
3.5884e-57
5.8391e-55
8.10716e-53
9.53744e-51
9.37313e-49
7.60572e-47
5.10311e-45
2.77012e-43
1.22376e-41
4.47477e-40
1.36925e-38
3.56922e-37
7.1765e-36
8.47575e-35
3.65998e-34
1.89636e-34
8.68831e-36
2.34791e-37
4.7332e-39
7.65939e-41
9.91321e-43
9.9225e-45
7.856e-47
4.46488e-49
1.86933e-51
1.16428e-50
1.48811e-48
9.64387e-123
4.41963e-118
1.14804e-114
2.39662e-111
5.38118e-108
1.16728e-104
2.3119e-101
3.94763e-98
5.96309e-95
8.26056e-92
1.0225e-88
1.07906e-85
9.68528e-83
7.3575e-80
4.72901e-77
2.58666e-74
1.21414e-71
4.92609e-69
1.72522e-66
5.22116e-64
1.36955e-61
3.12841e-59
6.25882e-57
1.0936e-54
1.65951e-52
2.16963e-50
2.41989e-48
2.27494e-46
1.78369e-44
1.15515e-42
6.15768e-41
2.73027e-39
1.00687e-37
3.22701e-36
8.91843e-35
2.0253e-33
3.02155e-32
1.97737e-31
2.86016e-31
1.67194e-32
6.16057e-34
1.79987e-35
4.38271e-37
8.78739e-39
1.3803e-40
1.56692e-42
1.26298e-44
6.78787e-47
1.89878e-47
2.33758e-45
2.049e-119
8.55912e-115
2.24232e-111
4.51634e-108
9.34566e-105
1.84302e-101
3.24253e-98
4.87857e-95
6.45133e-92
7.6164e-89
8.14804e-86
7.68815e-83
6.23025e-80
4.34274e-77
2.56757e-74
1.29433e-71
5.6278e-69
2.12574e-66
6.92126e-64
1.94339e-61
4.73117e-59
9.99871e-57
1.84198e-54
2.96954e-52
4.18431e-50
5.12169e-48
5.39963e-46
4.85056e-44
3.66622e-42
2.30222e-40
1.19795e-38
5.16402e-37
1.90573e-35
6.16411e-34
1.81716e-32
4.50537e-31
7.98513e-30
7.23458e-29
2.2289e-28
4.20311e-29
2.79011e-30
1.18784e-31
3.79311e-33
9.57606e-35
1.88118e-36
2.70596e-38
2.43866e-40
1.36364e-42
4.31483e-44
4.70699e-42
3.42138e-116
1.31576e-111
3.50221e-108
6.85741e-105
1.31652e-101
2.37155e-98
3.72077e-95
4.99775e-92
5.82711e-89
5.97886e-86
5.60171e-83
4.70071e-80
3.45107e-77
2.19494e-74
1.19763e-71
5.58809e-69
2.25567e-66
7.90865e-64
2.39534e-61
6.28616e-59
1.42933e-56
2.81465e-54
4.81677e-52
7.18502e-50
9.38579e-48
1.07017e-45
1.05945e-43
9.02169e-42
6.53269e-40
3.97561e-38
2.0158e-36
8.50058e-35
3.05701e-33
9.74309e-32
2.91598e-30
7.95521e-29
1.61253e-27
1.87474e-26
9.71622e-26
9.32117e-26
7.15181e-27
3.3011e-28
1.15833e-29
3.30045e-31
7.51206e-33
1.30901e-34
1.53705e-36
9.39409e-39
1.08237e-40
9.28686e-39
4.5108e-113
1.612e-108
4.38964e-105
8.42562e-102
1.52084e-98
2.52458e-95
3.57356e-92
4.32257e-89
4.48159e-86
4.05958e-83
3.33481e-80
2.48081e-77
1.64124e-74
9.4903e-72
4.78501e-69
2.07224e-66
7.76184e-64
2.53911e-61
7.19291e-59
1.76514e-56
3.75215e-54
6.93189e-52
1.10895e-49
1.54381e-47
1.87457e-45
1.98933e-43
1.8391e-41
1.47123e-39
1.00976e-37
5.89157e-36
2.89247e-34
1.19188e-32
4.16232e-31
1.29679e-29
3.7962e-28
1.06278e-26
2.48185e-25
3.52598e-24
2.64384e-23
6.75445e-23
7.22162e-24
5.1513e-25
2.96316e-26
1.40604e-27
5.3362e-29
1.52832e-30
3.02454e-32
3.34011e-34
1.50389e-36
1.49882e-35
4.70949e-110
1.57782e-105
4.41903e-102
8.3441e-99
1.42503e-95
2.19352e-92
2.8337e-89
3.11751e-86
2.91376e-83
2.36701e-80
1.72746e-77
1.14332e-74
6.7553e-72
3.55534e-69
1.64129e-66
6.62445e-64
2.31236e-61
7.06541e-59
1.87238e-56
4.30165e-54
8.59161e-52
1.48872e-49
2.2411e-47
2.93537e-45
3.33815e-43
3.29912e-41
2.84462e-39
2.13054e-37
1.37629e-35
7.59162e-34
3.54236e-32
1.40078e-30
4.73368e-29
1.42135e-27
4.05904e-26
1.12594e-24
2.73381e-23
4.74024e-22
4.96678e-21
2.35359e-20
1.6602e-20
1.91867e-21
1.3983e-22
7.85251e-24
3.50551e-25
1.19007e-26
2.79209e-28
3.93366e-30
1.87779e-32
1.95474e-32
3.89782e-107
1.23482e-102
3.57894e-99
6.68843e-96
1.08844e-92
1.56048e-89
1.85485e-86
1.86932e-83
1.58956e-80
1.17283e-77
7.69869e-75
4.57026e-72
2.42877e-69
1.1541e-66
4.90614e-64
1.8451e-61
6.02717e-59
1.71716e-56
4.27182e-54
9.21008e-52
1.72129e-49
2.79707e-47
3.96633e-45
4.88105e-43
5.22052e-41
4.85311e-39
3.91914e-37
2.74356e-35
1.65618e-33
8.54799e-32
3.76154e-30
1.40522e-28
4.46922e-27
1.27425e-25
3.46168e-24
9.3116e-23
2.30899e-21
4.26819e-20
5.80148e-19
5.00266e-18
1.30403e-17
1.57602e-18
1.26558e-19
8.39392e-21
4.70431e-22
2.12521e-23
7.01047e-25
1.43926e-26
1.35469e-28
2.72047e-29
2.55391e-104
7.71401e-100
2.32794e-96
4.34361e-93
6.8034e-90
9.1504e-87
1.00977e-83
9.39288e-81
7.33007e-78
4.94696e-75
2.95005e-72
1.58043e-69
7.60004e-67
3.28621e-64
1.28604e-61
4.45837e-59
1.36549e-56
3.62938e-54
8.47295e-52
1.71942e-49
3.02685e-47
4.63124e-45
6.15695e-43
7.11198e-41
7.20635e-39
6.3264e-37
4.79731e-35
3.14156e-33
1.77368e-31
8.58285e-30
3.52521e-28
1.21827e-26
3.58373e-25
9.41873e-24
2.36035e-22
5.9397e-21
1.42305e-19
2.7538e-18
4.2878e-17
5.31481e-16
4.83148e-15
4.58222e-15
4.7574e-16
4.15601e-17
3.23361e-18
2.05845e-19
9.63235e-21
2.79655e-22
3.8493e-24
1.35816e-25
1.32031e-101
3.83216e-97
1.20897e-93
2.2672e-90
3.44796e-87
4.38654e-84
4.54084e-81
3.93579e-78
2.85043e-75
1.77685e-72
9.73951e-70
4.74974e-67
2.07945e-64
8.22498e-62
2.93892e-59
9.42776e-57
2.67349e-54
6.68024e-52
1.45412e-49
2.78052e-47
4.61543e-45
6.66168e-43
8.3644e-41
9.15507e-39
8.69827e-37
7.17287e-35
5.11443e-33
3.13916e-31
1.65499e-29
7.46902e-28
2.86136e-26
9.21578e-25
2.49522e-23
5.84972e-22
1.31039e-20
2.94981e-19
6.47415e-18
1.20822e-16
1.9843e-15
2.97425e-14
4.71564e-13
3.047e-12
4.65725e-13
4.15943e-14
3.3355e-15
2.37625e-16
1.33837e-17
5.04539e-19
9.32421e-21
1.39517e-22
5.36049e-99
1.50627e-94
4.98326e-91
9.44729e-88
1.40517e-84
1.70311e-81
1.66941e-78
1.3596e-75
9.23307e-73
5.36499e-70
2.73315e-67
1.2295e-64
4.94821e-62
1.80177e-59
5.90563e-57
1.74268e-54
4.58068e-52
1.06288e-49
2.17161e-47
3.89019e-45
6.09428e-43
8.2916e-41
9.83229e-39
1.01946e-36
9.17196e-35
7.10424e-33
4.74096e-31
2.74477e-29
1.35729e-27
5.71644e-26
2.03148e-24
6.03323e-23
1.49047e-21
3.14899e-20
6.05868e-19
1.16655e-17
2.21654e-16
3.71989e-15
5.83357e-14
8.8752e-13
1.74535e-11
1.59735e-10
7.48422e-11
8.72376e-12
8.8946e-13
7.9984e-14
5.73074e-15
2.84306e-16
7.50988e-18
8.85504e-20
1.69751e-96
4.65064e-92
1.61805e-88
3.1232e-85
4.57285e-82
5.31996e-79
4.9865e-76
3.84798e-73
2.47591e-70
1.35274e-67
6.47124e-65
2.71683e-62
1.01445e-59
3.42601e-57
1.03777e-54
2.82151e-52
6.84444e-50
1.47737e-47
2.81347e-45
4.7186e-43
6.99042e-41
8.99381e-39
1.00594e-36
9.82659e-35
8.338e-33
6.08936e-31
3.85234e-29
2.07784e-27
9.60989e-26
3.7672e-24
1.24211e-22
3.40973e-21
7.73148e-20
1.46047e-18
2.42018e-17
3.7896e-16
5.85004e-15
8.29088e-14
1.1374e-12
1.51707e-11
2.97459e-10
2.42295e-09
2.16395e-09
4.51741e-10
7.69244e-11
1.08132e-11
1.15245e-12
8.25958e-14
3.25892e-15
4.74267e-17
4.15462e-94
1.11667e-89
4.09579e-86
8.12913e-83
1.1763e-79
1.32437e-76
1.19914e-73
8.84473e-71
5.45169e-68
2.83081e-65
1.28327e-62
5.08217e-60
1.77893e-57
5.61118e-55
1.58316e-52
3.99372e-50
8.97e-48
1.79283e-45
3.18043e-43
5.01232e-41
6.93397e-39
8.437e-37
8.94496e-35
8.23319e-33
6.58499e-31
4.52388e-29
2.68614e-27
1.36138e-25
5.84021e-24
2.12498e-22
6.47996e-21
1.6407e-19
3.41602e-18
5.85641e-17
8.51724e-16
1.0804e-14
1.24534e-13
1.39104e-12
1.53177e-11
1.52503e-10
2.49247e-09
1.24148e-08
1.55502e-08
6.5222e-09
1.88649e-09
4.15134e-10
6.51961e-11
6.60649e-12
3.69217e-13
7.68054e-15
7.77211e-92
2.05779e-87
7.97723e-84
1.64154e-80
2.35964e-77
2.60008e-74
2.29321e-71
1.63243e-68
9.74767e-66
4.88139e-63
2.11044e-60
7.97401e-58
2.64522e-55
7.84893e-53
2.07993e-50
4.91044e-48
1.02663e-45
1.9051e-43
3.14742e-41
4.62823e-39
5.99759e-37
6.89829e-35
6.91844e-33
5.97987e-31
4.50475e-29
2.91716e-27
1.62133e-25
7.62815e-24
3.04505e-22
1.01935e-20
2.85402e-19
6.62431e-18
1.26401e-16
1.98613e-15
2.617e-14
2.86119e-13
2.42922e-12
1.88738e-11
1.52475e-10
8.94139e-10
1.09323e-08
1.96159e-08
2.43838e-08
1.69404e-08
1.02309e-08
3.77856e-09
8.93363e-10
1.29687e-10
1.02237e-11
3.19442e-13
1.0974e-89
2.86238e-85
1.17778e-81
2.52405e-78
3.62999e-75
3.98661e-72
3.43413e-69
2.39992e-66
1.39549e-63
6.8277e-61
2.84313e-58
1.03721e-55
3.29928e-53
9.27811e-51
2.33013e-48
5.19873e-46
1.02023e-43
1.76674e-41
2.72061e-39
3.72291e-37
4.541e-35
4.88792e-33
4.58869e-31
3.74463e-29
2.64489e-27
1.61062e-25
8.39324e-24
3.68485e-22
1.35422e-20
4.14395e-19
1.05022e-17
2.19942e-16
3.79462e-15
5.44743e-14
6.63176e-13
6.66541e-12
4.54933e-11
2.65911e-10
1.25546e-09
2.90277e-09
6.58926e-09
1.74907e-08
2.91618e-08
1.12167e-08
1.02965e-08
1.0933e-08
3.92264e-09
7.88987e-10
8.22697e-11
3.52297e-12
1.15007e-87
2.94655e-83
1.29875e-79
2.89502e-76
4.20532e-73
4.65298e-70
3.9593e-67
2.75886e-64
1.57392e-61
7.62377e-59
3.12303e-56
1.10293e-53
3.40859e-51
9.17609e-49
2.20921e-46
4.68794e-44
8.719e-42
1.42006e-39
2.04441e-37
2.60663e-35
2.97962e-33
2.99409e-31
2.6256e-29
2.01534e-27
1.33067e-25
7.5663e-24
3.67743e-22
1.50502e-20
5.10743e-19
1.41793e-17
3.20367e-16
5.89909e-15
8.91528e-14
1.13438e-12
1.24416e-11
1.14671e-10
6.09446e-10
2.67275e-09
1.10856e-08
3.01822e-09
7.79768e-07
4.45872e-07
2.96006e-08
2.64953e-06
1.03714e-06
1.08685e-08
1.05082e-08
2.62392e-09
3.25654e-10
1.54874e-11
8.66178e-86
2.19816e-81
1.047e-77
2.41899e-74
3.62228e-71
4.04551e-68
3.49927e-65
2.42571e-62
1.39206e-59
6.67969e-57
2.73236e-54
9.48571e-52
2.87702e-49
7.55519e-47
1.74536e-44
3.55588e-42
6.33486e-40
9.79231e-38
1.3251e-35
1.58042e-33
1.68741e-31
1.58069e-29
1.2968e-27
9.25569e-26
5.69206e-24
2.9908e-22
1.34425e-20
5.09809e-19
1.5891e-17
4.00672e-16
8.0286e-15
1.26369e-13
1.60153e-12
1.70189e-11
1.56863e-10
1.23193e-09
4.41788e-09
1.23448e-08
1.04996e-08
3.75472e-09
8.02672e-07
2.31548e-06
5.36934e-05
3.20803e-05
1.32551e-08
1.11555e-08
1.07514e-08
5.309e-09
4.68212e-10
1.66766e-11
4.54659e-84
1.16644e-79
5.95792e-76
1.43561e-72
2.26922e-69
2.56552e-66
2.29362e-63
1.62038e-60
9.40851e-58
4.56089e-55
1.87294e-52
6.54863e-50
1.95417e-47
5.08255e-45
1.13549e-42
2.24672e-40
3.8673e-38
5.73025e-36
7.33256e-34
8.23089e-32
8.1941e-30
7.15197e-28
5.46955e-26
3.62407e-24
2.05929e-22
9.97367e-21
4.08348e-19
1.41305e-17
4.0007e-16
9.0164e-15
1.5844e-13
2.13426e-12
2.19483e-11
1.80019e-10
1.26845e-09
7.6779e-09
1.57893e-08
1.49878e-08
1.09078e-06
3.59664e-07
4.94595e-07
3.60177e-05
0.000140712
2.77586e-05
1.04006e-07
1.43985e-08
1.06469e-08
5.06355e-09
3.23212e-10
1.79905e-11
1.59786e-82
4.25122e-78
2.3139e-74
5.94182e-71
9.95894e-68
1.19669e-64
1.09054e-61
8.08727e-59
4.83803e-56
2.40105e-53
1.00155e-50
3.56025e-48
1.07651e-45
2.76716e-43
6.1354e-41
1.17817e-38
1.96711e-36
2.8217e-34
3.4456e-32
3.64713e-30
3.3779e-28
2.74836e-26
1.94912e-24
1.19651e-22
6.27199e-21
2.77908e-19
1.03092e-17
3.17123e-16
8.00799e-15
1.58285e-13
2.37745e-12
2.66111e-11
2.20631e-10
1.36253e-09
6.48224e-09
2.57543e-08
2.24987e-08
2.19832e-08
3.31495e-06
9.15484e-06
5.95335e-07
1.45642e-06
0.000141363
4.12051e-06
2.35896e-07
1.08254e-07
1.08158e-08
7.44924e-09
4.7153e-09
1.07338e-10
3.54286e-81
9.97209e-77
5.85636e-73
1.68271e-69
2.97723e-66
3.8851e-63
3.83106e-60
2.96098e-57
1.87455e-54
9.74785e-52
4.19779e-49
1.52777e-46
4.73492e-44
1.23554e-41
2.72833e-39
5.11938e-37
8.37184e-35
1.16614e-32
1.37007e-30
1.36633e-28
1.17183e-26
8.88029e-25
5.80694e-23
3.29262e-21
1.59071e-19
6.45322e-18
2.15392e-16
5.81503e-15
1.25731e-13
2.13141e-12
2.66028e-11
2.37603e-10
1.49184e-09
6.39526e-09
1.80239e-08
2.85905e-08
2.9107e-08
6.14487e-08
2.62766e-06
3.96251e-06
0.000446466
0.000365807
0.000121839
3.79961e-06
2.03415e-06
2.67208e-06
3.61442e-07
8.93273e-08
1.4496e-06
4.09557e-09
4.48668e-80
1.37188e-75
9.15212e-72
2.96029e-68
6.00487e-65
8.53112e-62
9.23301e-59
7.95282e-56
5.4308e-53
3.00518e-50
1.38797e-47
5.24821e-45
1.67796e-42
4.53047e-40
1.01609e-37
1.90473e-35
3.02065e-33
4.08538e-31
4.64351e-29
4.37476e-27
3.49584e-25
2.41223e-23
1.43935e-21
7.48673e-20
3.31996e-18
1.23407e-16
3.72293e-15
8.78869e-14
1.58631e-12
2.1927e-11
2.20614e-10
1.49199e-09
6.3919e-09
1.55852e-08
2.90802e-08
3.29354e-08
1.16993e-07
4.53474e-07
9.77984e-06
0.00025327
0.000428791
0.000892593
7.16593e-06
5.76038e-06
1.86174e-05
3.28702e-05
6.49847e-06
5.60915e-06
3.38057e-05
4.27113e-05
2.90657e-79
9.33053e-75
7.72352e-71
2.91625e-67
6.89591e-64
1.17996e-60
1.49323e-57
1.4503e-54
1.12617e-51
7.09046e-49
3.55477e-46
1.46897e-43
4.93631e-41
1.3927e-38
3.2657e-36
6.21806e-34
9.74232e-32
1.28403e-29
1.39901e-27
1.25336e-25
9.2178e-24
5.70051e-22
3.05955e-20
1.41827e-18
5.70455e-17
1.9433e-15
5.35848e-14
1.1215e-12
1.68946e-11
1.79301e-10
1.36354e-09
6.3956e-09
1.55607e-08
2.83224e-08
6.49501e-08
8.16257e-08
2.46635e-06
5.36389e-06
2.17759e-05
0.00147483
0.000428819
0.00168239
0.00152623
0.00115137
0.000128199
0.000148747
2.0931e-05
6.84234e-06
5.39798e-05
6.05629e-05
6.18165e-79
2.40067e-74
2.39199e-70
1.21874e-66
3.81122e-63
8.18888e-60
1.2869e-56
1.59495e-53
1.52903e-50
1.13278e-47
6.70597e-45
3.18059e-42
1.19167e-39
3.64338e-37
9.05336e-35
1.83784e-32
2.93967e-30
3.78597e-28
4.02633e-26
3.41643e-24
2.32776e-22
1.28668e-20
5.91628e-19
2.36193e-17
8.31328e-16
2.56457e-14
6.53704e-13
1.23346e-11
1.5617e-10
1.26639e-09
6.50184e-09
1.80098e-08
2.89996e-08
6.21959e-08
1.03672e-05
1.62746e-06
0.000169047
0.00186492
0.00442907
0.00444664
0.00322679
0.00360146
0.00160372
0.0016629
0.00806564
0.0267235
0.0293261
0.0196766
7.75965e-05
0.0199928
1.36466e-79
9.48199e-75
1.38627e-70
1.10154e-66
5.27127e-63
1.69934e-59
4.13402e-56
7.43439e-53
9.8202e-50
9.71982e-47
7.6532e-44
4.49697e-41
2.06835e-38
7.33551e-36
2.06101e-33
4.56844e-31
8.03773e-29
1.07038e-26
1.11968e-24
9.25049e-23
5.87629e-21
2.91609e-19
1.14894e-17
3.72203e-16
1.0571e-14
2.80649e-13
6.57708e-12
1.13875e-10
1.22836e-09
7.66674e-09
2.56938e-08
2.84771e-08
3.28313e-08
8.11658e-08
1.61109e-06
1.90516e-05
0.00175088
0.00886232
0.0090467
0.00444
0.00443188
0.00363283
0.100464
0.275808
0.513415
0.663393
0.690636
0.695597
0.661589
0.635885
1.16464e-81
1.26135e-76
2.94401e-72
3.99139e-68
4.20509e-64
3.21653e-60
1.63338e-56
5.92351e-53
1.49772e-49
2.59074e-46
3.30714e-43
2.87547e-40
1.87122e-37
8.70512e-35
3.08513e-32
8.11908e-30
1.63346e-27
2.50529e-25
2.75042e-23
2.29992e-21
1.41594e-19
6.42031e-18
2.19649e-16
5.79126e-15
1.22875e-13
2.38697e-12
4.49309e-11
6.05172e-10
4.3884e-09
1.55984e-08
2.25513e-08
2.90982e-08
1.16141e-07
2.35624e-06
0.000168201
0.00173737
0.00268397
0.0112851
0.00540744
0.0044036
0.0232195
0.347536
0.701134
0.885657
0.992614
1
1
1
0.999977
0.999214
5.21307e-84
1.13929e-78
3.62292e-74
5.93202e-70
6.73697e-66
5.32073e-62
3.05373e-58
1.4812e-54
7.05791e-51
4.82453e-47
1.72487e-43
3.71748e-40
4.71485e-37
3.80149e-34
2.035e-31
7.38999e-29
1.90625e-26
3.57547e-24
4.78387e-22
4.27683e-20
2.74864e-18
1.20469e-16
3.70533e-15
8.24928e-14
1.38009e-12
1.86833e-11
2.62402e-10
2.64215e-09
1.20507e-08
1.44644e-08
2.18235e-08
6.33595e-08
4.76733e-07
5.27826e-06
0.00184458
0.00884447
0.0112827
0.0111949
0.00968256
0.0472375
0.418036
0.87324
0.999878
0.999996
1
1
1
1
0.999955
1
1.71266e-86
7.99236e-81
3.25796e-76
5.87484e-72
6.73353e-68
5.35337e-64
3.52833e-60
2.38056e-56
1.58549e-52
1.21248e-48
4.74597e-45
1.52546e-41
5.5856e-38
2.03417e-34
2.99411e-31
2.29991e-28
9.92936e-26
2.68607e-23
5.03891e-21
5.85498e-19
4.29495e-17
1.98503e-15
5.82985e-14
1.13562e-12
1.52914e-11
1.52273e-10
1.23919e-09
1.10763e-08
1.05307e-08
1.13287e-06
3.14658e-06
2.63291e-06
1.26681e-05
2.33549e-05
0.00441876
0.00902729
0.00541909
0.00968335
0.0366007
0.383977
0.898814
0.999956
0.999998
1
1
1
1
1
1
1
4.65623e-89
4.59357e-83
2.32721e-78
4.46932e-74
5.21352e-70
4.13983e-66
3.21571e-62
2.91832e-58
2.39071e-54
1.84522e-50
7.66299e-47
3.97835e-43
2.24707e-39
9.18264e-36
1.75275e-32
4.59081e-29
9.7124e-26
6.91797e-23
2.39182e-20
5.08071e-18
5.34978e-16
2.98702e-14
8.90231e-13
1.52058e-11
1.5279e-10
8.95321e-10
2.90082e-09
3.01736e-09
3.72097e-09
4.47261e-07
1.10337e-05
4.05854e-06
0.000229405
0.00149218
0.00445727
0.00445682
0.00441926
0.0472659
0.383996
0.943889
1
1
1
1
1
1
1
1
1
1
1.09909e-91
2.22231e-85
1.3698e-80
2.82362e-76
3.30869e-72
2.69786e-68
2.4718e-64
2.8907e-60
2.72315e-56
2.14176e-52
9.41653e-49
7.93424e-45
5.68955e-41
2.45184e-37
6.55487e-34
3.01545e-30
7.32432e-27
7.3991e-24
1.7189e-20
1.32995e-17
4.91504e-15
4.75744e-13
1.75471e-11
2.98531e-10
2.50204e-09
1.09977e-08
6.33538e-09
7.76302e-07
8.12578e-07
5.72941e-07
6.84393e-07
0.000458723
0.000424745
0.000425398
0.0032728
0.00440509
0.0232004
0.418094
0.898842
1
1
1
1
1
1
1
1
1
1
1
2.2878e-94
9.23053e-88
6.891e-83
1.49443e-78
1.80972e-74
1.49945e-70
1.63776e-66
2.36403e-62
2.49617e-58
2.01076e-54
9.62797e-51
1.25601e-46
1.06817e-42
4.91646e-39
1.94905e-35
1.26237e-31
3.33334e-28
5.30328e-25
1.96297e-21
1.58468e-18
5.01305e-15
3.09673e-12
1.60914e-10
2.44409e-09
1.25681e-08
1.97557e-08
2.04658e-08
4.46079e-07
2.36651e-06
3.69949e-05
1.61765e-06
0.000382028
0.000907093
0.00171996
0.00361809
0.00364527
0.347557
0.873259
0.999956
1
1
1
1
1
1
1
1
1
1
1
4.30404e-97
3.34096e-90
2.94465e-85
6.64625e-81
8.3226e-77
7.26074e-73
9.36036e-69
1.59987e-64
1.89054e-60
1.57578e-56
8.28956e-53
1.63067e-48
1.57481e-44
7.88805e-41
4.79604e-37
3.98702e-33
1.1609e-29
3.05946e-26
1.41612e-22
1.26192e-19
5.00284e-16
4.77125e-13
7.55323e-11
2.17698e-09
1.55569e-08
2.22261e-08
2.70816e-08
2.76387e-08
5.37125e-05
0.000141441
0.000141867
0.000123649
7.1249e-06
0.00155621
0.00158246
0.100576
0.701165
0.999878
0.999998
1
1
1
1
1
1
1
1
1
1
1
7.12882e-100
1.01568e-92
1.03536e-87
2.52913e-83
3.27138e-79
2.94525e-75
4.48792e-71
9.12388e-67
1.17964e-62
1.04354e-58
5.98679e-55
1.71431e-50
1.84688e-46
1.02162e-42
9.69855e-39
9.98917e-35
3.27585e-31
1.4504e-27
7.88429e-24
8.32995e-21
4.26225e-17
4.19833e-14
8.714e-12
4.53323e-10
6.53509e-09
1.6761e-08
1.13444e-08
2.67034e-06
3.17691e-05
2.60988e-05
4.45823e-06
3.746e-06
5.70378e-06
0.00115717
0.00166896
0.27574
0.885734
0.999996
1
1
1
1
1
1
1
1
1
1
1
1
1.00497e-102
2.50178e-95
3.03027e-90
7.63727e-86
1.05192e-81
1.01741e-77
1.80472e-73
4.16054e-69
6.03749e-65
5.7321e-61
3.65501e-57
1.40769e-52
1.75088e-48
1.02857e-44
1.52976e-40
1.95182e-36
7.46706e-33
5.49863e-29
3.48951e-25
4.65278e-22
3.26851e-18
3.32536e-15
8.83102e-13
7.67807e-11
1.88411e-09
1.02337e-08
1.03123e-08
1.0357e-06
1.30984e-08
1.05139e-07
2.38074e-07
2.03752e-06
1.88774e-05
0.000127213
0.00804741
0.513292
0.992619
1
1
1
1
1
1
1
1
1
1
1
1
1
1.17386e-105
5.34784e-98
7.5347e-93
1.94598e-88
2.69496e-84
2.70753e-80
5.62573e-76
1.52292e-71
2.45135e-67
2.48449e-63
1.82791e-59
9.06465e-55
1.23292e-50
8.28038e-47
1.74333e-42
2.77268e-38
1.3e-34
1.56993e-30
1.17152e-26
2.09364e-23
2.05913e-19
2.34815e-16
7.90688e-14
1.07397e-11
4.1324e-10
3.77313e-09
1.0956e-08
1.08048e-08
1.11928e-08
1.44584e-08
1.09554e-07
2.7031e-06
3.32523e-05
0.000149971
0.0267068
0.663303
1
1
1
1
1
1
1
1
1
1
1
1
1
1
9.53609e-105
9.14961e-97
1.1176e-91
1.17564e-87
4.4535e-84
1.13326e-80
2.50716e-77
8.67184e-74
8.03237e-70
8.46234e-66
7.0263e-62
4.37645e-57
6.7027e-53
4.73169e-49
1.4356e-44
2.5132e-40
1.51944e-36
3.10656e-32
2.73807e-28
6.85231e-25
9.52834e-21
1.31165e-17
5.63681e-15
1.13879e-12
6.46495e-11
8.89143e-10
3.91315e-09
1.04745e-08
1.0731e-08
1.06735e-08
1.15881e-08
3.67773e-07
6.51628e-06
2.13938e-05
0.029356
0.690611
1
1
1
1
1
1
1
1
1
1
1
1
1
1
3.9097e-102
2.03811e-94
2.15216e-89
2.1993e-85
8.31038e-82
2.10212e-78
4.39814e-75
8.45566e-72
1.55987e-68
2.82726e-65
4.98536e-62
9.60005e-59
3.73628e-55
2.09168e-51
7.76123e-47
1.42992e-42
9.60144e-39
3.41462e-34
3.8629e-30
1.41228e-26
2.72568e-22
4.88112e-19
2.77267e-16
8.10292e-14
6.51401e-12
1.28473e-10
7.8374e-10
2.61595e-09
5.30146e-09
5.09201e-09
7.75938e-09
9.12625e-08
5.71968e-06
6.98949e-06
0.0196807
0.695576
1
1
1
1
1
1
1
1
1
1
1
1
1
1
1.54826e-99
4.285e-92
3.8414e-87
3.76256e-83
1.40588e-79
3.52219e-76
7.27869e-73
1.37817e-69
2.501e-66
4.45911e-63
7.73139e-60
1.25662e-56
1.89821e-53
2.75241e-50
4.45481e-47
8.78428e-44
1.74077e-40
1.64893e-36
1.85102e-32
1.3259e-28
3.72917e-24
8.91418e-21
7.17052e-18
3.14824e-15
3.59949e-13
1.00422e-11
8.11524e-11
3.23291e-10
4.66729e-10
3.2123e-10
4.26583e-09
1.56469e-06
3.39751e-05
5.3763e-05
7.71123e-05
0.661621
0.999977
0.999956
1
1
1
1
1
1
1
1
1
1
1
1
5.95811e-97
8.5289e-90
6.37832e-85
5.91163e-81
2.16487e-77
5.33394e-74
1.08156e-70
2.00185e-67
3.54225e-64
6.14964e-61
1.03804e-57
1.64344e-54
2.41586e-51
3.40756e-48
5.33906e-45
9.82661e-42
1.66218e-38
2.39365e-35
2.688e-32
3.98901e-29
1.71834e-25
1.52682e-22
9.01942e-20
4.63481e-17
7.42359e-15
3.09198e-13
3.43572e-12
1.51557e-11
1.61569e-11
1.76738e-11
1.16233e-10
3.90977e-09
4.21426e-05
6.0014e-05
0.0200107
0.635932
0.999215
1
1
1
1
1
1
1
1
1
1
1
1
1
2.64831e-95
1.00056e-92
3.82568e-90
1.52286e-87
6.46629e-85
2.95501e-82
1.1038e-79
2.87063e-77
5.94167e-75
9.09099e-73
9.46574e-71
5.76385e-69
1.40273e-67
6.24149e-67
7.13681e-67
3.77831e-67
1.15238e-67
2.08907e-68
2.22417e-69
1.41112e-70
5.54338e-72
1.40219e-73
2.35968e-75
2.725e-77
2.21883e-79
1.30507e-81
5.65418e-84
1.83191e-86
4.48847e-89
8.4758e-92
1.24757e-94
1.41792e-97
1.27523e-100
8.9772e-104
4.97007e-107
2.16666e-110
7.40315e-114
1.96951e-117
4.11155e-121
6.58009e-125
8.19734e-129
7.86047e-133
5.81913e-137
3.39048e-141
1.60268e-145
6.29269e-150
1.98307e-154
3.68335e-159
1.34355e-164
1.11718e-172
2.33376e-88
4.28969e-86
7.55988e-84
1.28844e-81
2.14734e-79
3.5465e-77
5.8861e-75
9.93595e-73
1.66036e-70
2.13767e-68
1.92199e-66
1.02315e-64
2.15186e-63
8.39766e-63
8.77231e-63
4.37476e-63
1.2778e-63
2.24398e-64
2.33872e-65
1.4668e-66
5.74734e-68