/*--------------------------------*- C++ -*----------------------------------*\
| =========                 |                                                 |
| \\      /  F ield         | OpenFOAM: The Open Source CFD Toolbox           |
|  \\    /   O peration     | Version:  2.4.0                                 |
|   \\  /    A nd           | Web:      www.OpenFOAM.org                      |
|    \\/     M anipulation  |                                                 |
\*---------------------------------------------------------------------------*/
FoamFile
{
    version     2.0;
    format      ascii;
    class       surfaceScalarField;
    location    "0.02";
    object      phiAlpha;
}
// * * * * * * * * * * * * * * * * * * * * * * * * * * * * * * * * * * * * * //

dimensions      [0 3 -1 0 0 0 0];

internalField   nonuniform List<scalar> 
7080
(
-1.53266e-08
1.53266e-08
-2.9898e-08
1.45713e-08
-4.42994e-08
1.44014e-08
-5.89014e-08
1.46021e-08
-7.40113e-08
1.51096e-08
-9.00139e-08
1.60029e-08
-1.07437e-07
1.74229e-08
-1.26986e-07
1.95495e-08
-1.49386e-07
2.23995e-08
-1.75309e-07
2.59238e-08
-2.05163e-07
2.98535e-08
-2.38994e-07
3.38317e-08
-2.7636e-07
3.73654e-08
-3.16215e-07
3.9856e-08
-3.56864e-07
4.06493e-08
-3.96026e-07
3.91617e-08
-4.30992e-07
3.49657e-08
-4.58957e-07
2.79655e-08
-4.77377e-07
1.84199e-08
-4.84325e-07
6.94743e-09
-4.78176e-07
-6.14915e-09
-4.58253e-07
-1.99227e-08
-4.25026e-07
-3.32276e-08
-3.79879e-07
-4.51471e-08
-3.25046e-07
-5.48327e-08
-2.63432e-07
-6.16149e-08
-1.98183e-07
-6.52488e-08
-1.32222e-07
-6.59609e-08
-6.81847e-08
-6.40371e-08
-5.99757e-08
-8.20895e-09
-1.61594e-08
3.14861e-08
-3.15533e-08
2.99651e-08
-4.67946e-08
2.96425e-08
-6.22745e-08
3.00824e-08
-7.82987e-08
3.11332e-08
-9.52346e-08
3.29393e-08
-1.13584e-07
3.57722e-08
-1.34038e-07
4.00037e-08
-1.57298e-07
4.56589e-08
-1.84034e-07
5.26608e-08
-2.14655e-07
6.04745e-08
-2.49234e-07
6.84114e-08
-2.87393e-07
7.55246e-08
-3.28208e-07
8.06711e-08
-3.70157e-07
8.25985e-08
-4.1118e-07
8.01847e-08
-4.48807e-07
7.25923e-08
-4.80406e-07
5.95647e-08
-5.03486e-07
4.14995e-08
-5.16002e-07
1.94626e-08
-5.16343e-07
-5.80887e-09
-5.03065e-07
-3.32001e-08
-4.75855e-07
-6.04381e-08
-4.35055e-07
-8.59472e-08
-3.81671e-07
-1.08217e-07
-3.17405e-07
-1.25881e-07
-2.44834e-07
-1.3782e-07
-1.67102e-07
-1.43692e-07
-8.72727e-08
-1.43867e-07
-1.39252e-07
-7.99633e-09
-1.61228e-08
4.7609e-08
-3.14774e-08
4.53196e-08
-4.66755e-08
4.48405e-08
-6.20983e-08
4.55056e-08
-7.80286e-08
4.70629e-08
-9.47987e-08
4.97099e-08
-1.12869e-07
5.38426e-08
-1.3292e-07
6.00544e-08
-1.55629e-07
6.83677e-08
-1.817e-07
7.87329e-08
-2.11602e-07
9.03761e-08
-2.45534e-07
1.02344e-07
-2.83343e-07
1.13333e-07
-3.24444e-07
1.21773e-07
-3.67777e-07
1.25931e-07
-4.11806e-07
1.24213e-07
-4.546e-07
1.15386e-07
-4.93942e-07
9.89062e-08
-5.27487e-07
7.50443e-08
-5.52938e-07
4.49135e-08
-5.6912e-07
1.03736e-08
-5.73322e-07
-2.8998e-08
-5.64034e-07
-6.97262e-08
-5.39839e-07
-1.10143e-07
-4.9931e-07
-1.48746e-07
-4.41029e-07
-1.84162e-07
-3.63739e-07
-2.1511e-07
-2.67181e-07
-2.40251e-07
-1.50863e-07
-2.60185e-07
-2.8345e-07
-6.66513e-09
-1.60484e-08
6.36574e-08
-3.13242e-08
6.05954e-08
-4.64365e-08
5.99526e-08
-6.17512e-08
6.08207e-08
-7.75173e-08
6.28287e-08
-9.40151e-08
6.62082e-08
-1.11637e-07
7.14647e-08
-1.31052e-07
7.9469e-08
-1.52892e-07
9.02085e-08
-1.77915e-07
1.03756e-07
-2.06659e-07
1.19119e-07
-2.39497e-07
1.35183e-07
-2.76576e-07
1.50412e-07
-3.17782e-07
1.62979e-07
-3.62688e-07
1.70837e-07
-4.10492e-07
1.72016e-07
-4.60038e-07
1.64932e-07
-5.09808e-07
1.48676e-07
-5.58047e-07
1.23284e-07
-6.0283e-07
8.96966e-08
-6.42085e-07
4.96278e-08
-6.76e-07
4.91774e-09
-6.99947e-07
-4.57797e-08
-7.12766e-07
-9.7324e-08
-7.11477e-07
-1.50035e-07
-6.91718e-07
-2.03921e-07
-6.45894e-07
-2.60934e-07
-5.55607e-07
-3.30538e-07
-3.66506e-07
-4.49286e-07
-6.4769e-07
-2.26614e-09
-1.59486e-08
7.9606e-08
-3.11192e-08
7.5766e-08
-4.61175e-08
7.49508e-08
-6.12902e-08
7.59938e-08
-7.68441e-08
7.83823e-08
-9.29942e-08
8.23588e-08
-1.10028e-07
8.84987e-08
-1.28611e-07
9.80524e-08
-1.49295e-07
1.10892e-07
-1.72909e-07
1.27371e-07
-2.00042e-07
1.46252e-07
-2.3126e-07
1.66401e-07
-2.67037e-07
1.86189e-07
-3.07792e-07
2.03733e-07
-3.53845e-07
2.16891e-07
-4.05298e-07
2.23468e-07
-4.62002e-07
2.21636e-07
-5.23388e-07
2.10063e-07
-5.88536e-07
1.88431e-07
-6.56264e-07
1.57425e-07
-7.2542e-07
1.18784e-07
-7.95227e-07
7.47241e-08
-8.68081e-07
2.70743e-08
-9.44423e-07
-2.09814e-08
-1.02758e-06
-6.68825e-08
-1.11837e-06
-1.13124e-07
-1.19402e-06
-1.85287e-07
-1.14691e-06
-3.77653e-07
-7.3413e-07
-8.62062e-07
-1.38431e-06
2.48712e-09
-1.58241e-08
9.54302e-08
-3.08634e-08
9.08053e-08
-4.57207e-08
8.98081e-08
-6.07208e-08
9.09942e-08
-7.60199e-08
9.36813e-08
-9.17627e-08
9.8102e-08
-1.08078e-07
1.04815e-07
-1.25656e-07
1.1563e-07
-1.44896e-07
1.30132e-07
-1.66743e-07
1.49219e-07
-1.91783e-07
1.71291e-07
-2.20747e-07
1.95364e-07
-2.54409e-07
2.19852e-07
-2.93701e-07
2.43025e-07
-3.39699e-07
2.62889e-07
-3.93434e-07
2.77204e-07
-4.55792e-07
2.83994e-07
-5.27185e-07
2.81456e-07
-6.07681e-07
2.68926e-07
-6.96984e-07
2.46728e-07
-7.94706e-07
2.16506e-07
-9.01535e-07
1.81553e-07
-1.02113e-06
1.46674e-07
-1.15928e-06
1.1716e-07
-1.32182e-06
9.56579e-08
-1.49572e-06
6.07752e-08
-1.607e-06
-7.4e-08
-1.45502e-06
-5.29637e-07
-6.49013e-07
-1.66807e-06
-2.0263e-06
-7.02159e-09
-1.56754e-08
1.11106e-07
-3.05576e-08
1.05687e-07
-4.52484e-08
1.04499e-07
-6.00484e-08
1.05795e-07
-7.50564e-08
1.08689e-07
-9.03468e-08
1.13393e-07
-1.0583e-07
1.20298e-07
-1.22262e-07
1.32062e-07
-1.39771e-07
1.47641e-07
-1.59509e-07
1.68957e-07
-1.81953e-07
1.93735e-07
-2.07954e-07
2.21365e-07
-2.38479e-07
2.50377e-07
-2.74881e-07
2.79428e-07
-3.18958e-07
3.06965e-07
-3.72703e-07
3.30949e-07
-4.38368e-07
3.49659e-07
-5.17456e-07
3.60543e-07
-6.1034e-07
3.6181e-07
-7.15766e-07
3.52155e-07
-8.306e-07
3.31339e-07
-9.49178e-07
3.00131e-07
-1.06165e-06
2.59149e-07
-1.15355e-06
2.09055e-07
-1.2065e-06
1.48611e-07
-1.20004e-06
5.43173e-08
-1.09519e-06
-1.78852e-07
-8.33963e-07
-7.90865e-07
-3.53354e-09
-2.4985e-06
-2.01666e-06
-1.31759e-08
-1.55032e-08
1.26609e-07
-3.0203e-08
1.20387e-07
-4.4703e-08
1.18999e-07
-5.92795e-08
1.20371e-07
-7.39664e-08
1.23376e-07
-8.87745e-08
1.28201e-07
-1.03331e-07
1.34854e-07
-1.18534e-07
1.47266e-07
-1.34016e-07
1.63123e-07
-1.51348e-07
1.8629e-07
-1.70696e-07
2.13082e-07
-1.92987e-07
2.43657e-07
-2.1919e-07
2.7658e-07
-2.50817e-07
3.11055e-07
-2.90152e-07
3.463e-07
-3.39583e-07
3.80381e-07
-4.02451e-07
4.12526e-07
-4.81306e-07
4.39398e-07
-5.78519e-07
4.59024e-07
-6.94504e-07
4.6814e-07
-8.23028e-07
4.59863e-07
-9.46436e-07
4.23539e-07
-1.02861e-06
3.41326e-07
-1.01069e-06
1.91136e-07
-8.23611e-07
-3.84724e-08
-4.1852e-07
-3.50774e-07
-6.31192e-08
-5.34253e-07
1.8103e-07
-1.03501e-06
3.1e-07
-2.62747e-06
-1.73064e-06
2.39827e-08
-1.53081e-08
1.41917e-07
-2.98005e-08
1.3488e-07
-4.40871e-08
1.33285e-07
-5.84209e-08
1.34705e-07
-7.27641e-08
1.37719e-07
-8.70803e-08
1.42517e-07
-1.00606e-07
1.4838e-07
-1.14549e-07
1.61208e-07
-1.27734e-07
1.76308e-07
-1.4247e-07
2.01026e-07
-1.58252e-07
2.28864e-07
-1.7616e-07
2.61565e-07
-1.96899e-07
2.97319e-07
-2.21866e-07
3.36021e-07
-2.5404e-07
3.78474e-07
-2.95986e-07
4.22326e-07
-3.539e-07
4.70441e-07
-4.32014e-07
5.17512e-07
-5.34163e-07
5.61173e-07
-6.64546e-07
5.98523e-07
-8.23443e-07
6.18761e-07
-1.01449e-06
6.14589e-07
-1.21165e-06
5.38485e-07
-1.26559e-06
2.45077e-07
-9.22725e-07
-3.81341e-07
-3.13313e-07
-9.60186e-07
1.78496e-07
-1.02606e-06
6.95949e-07
-1.55247e-06
1.45907e-07
-2.07743e-06
-1.63103e-06
4.63022e-08
-1.50909e-08
1.57008e-07
-2.93512e-08
1.4914e-07
-4.34034e-08
1.47338e-07
-5.74802e-08
1.48782e-07
-7.14641e-08
1.51703e-07
-8.53073e-08
1.56361e-07
-9.76876e-08
1.6076e-07
-1.10384e-07
1.73905e-07
-1.21006e-07
1.86929e-07
-1.33033e-07
2.13054e-07
-1.4489e-07
2.40721e-07
-1.57827e-07
2.74502e-07
-1.71963e-07
3.11454e-07
-1.87823e-07
3.51882e-07
-2.08272e-07
3.98923e-07
-2.33034e-07
4.47088e-07
-2.69458e-07
5.06866e-07
-3.22607e-07
5.7066e-07
-4.04534e-07
6.431e-07
-5.51463e-07
7.45452e-07
-7.84183e-07
8.51481e-07
-1.12759e-06
9.57996e-07
-1.48133e-06
8.92228e-07
-1.61077e-06
3.74519e-07
-1.40444e-06
-5.87672e-07
-1.04678e-06
-1.31785e-06
-5.27322e-07
-1.54552e-06
1.3573e-07
-2.21552e-06
-3.20089e-07
-1.62161e-06
-1.94893e-06
-2.19094e-09
-1.48526e-08
1.71861e-07
-2.88563e-08
1.63144e-07
-4.26543e-08
1.61136e-07
-5.64647e-08
1.62593e-07
-7.00805e-08
1.65319e-07
-8.35057e-08
1.69786e-07
-9.46074e-08
1.71862e-07
-1.06173e-07
1.85472e-07
-1.1386e-07
1.94615e-07
-1.23187e-07
2.22381e-07
-1.30832e-07
2.48366e-07
-1.38406e-07
2.82077e-07
-1.45273e-07
3.1832e-07
-1.50909e-07
3.57519e-07
-1.59021e-07
4.07034e-07
-1.67235e-07
4.55302e-07
-1.8644e-07
5.26071e-07
-2.21819e-07
6.06039e-07
-2.72263e-07
6.93543e-07
-3.62836e-07
8.36025e-07
-4.67856e-07
9.56501e-07
-6.2193e-07
1.11207e-06
-7.62263e-07
1.03256e-06
-8.30728e-07
4.42984e-07
-7.93654e-07
-6.24746e-07
-6.30209e-07
-1.4813e-06
-2.98497e-07
-1.87723e-06
-4.05728e-07
-2.10829e-06
-2.97793e-07
-1.72954e-06
-2.21188e-06
-3.48495e-08
-1.45941e-08
1.86455e-07
-2.83165e-08
1.76866e-07
-4.18418e-08
1.74661e-07
-5.5382e-08
1.76133e-07
-6.86235e-08
1.7856e-07
-8.17313e-08
1.82894e-07
-9.13737e-08
1.81504e-07
-1.02072e-07
1.9617e-07
-1.06353e-07
1.98897e-07
-1.13232e-07
2.29259e-07
-1.16512e-07
2.51646e-07
-1.1862e-07
2.84186e-07
-1.17736e-07
3.17436e-07
-1.11248e-07
3.5103e-07
-1.01587e-07
3.97374e-07
-7.85945e-08
4.32309e-07
-4.79549e-08
4.95432e-07
6.81459e-09
5.51269e-07
8.07256e-08
6.19632e-07
1.9488e-07
7.2187e-07
4.02654e-07
7.48726e-07
6.52793e-07
8.61931e-07
1.03191e-06
6.53444e-07
1.19102e-06
2.83871e-07
1.08406e-06
-5.17781e-07
1.20401e-06
-1.60125e-06
1.18919e-06
-1.86241e-06
4.79003e-07
-1.3981e-06
4.67582e-07
-1.71812e-06
-1.70081e-06
-4.34868e-08
-1.43167e-08
2.00772e-07
-2.77326e-08
1.90282e-07
-4.09675e-08
1.87896e-07
-5.42388e-08
1.89404e-07
-6.70952e-08
1.91417e-07
-8.00425e-08
1.95841e-07
-8.8011e-08
1.89472e-07
-9.8246e-08
2.06405e-07
-9.86054e-08
1.99256e-07
-1.03511e-07
2.34165e-07
-1.02457e-07
2.50592e-07
-9.95833e-08
2.81312e-07
-9.1822e-08
3.09675e-07
-7.43037e-08
3.33512e-07
-5.25402e-08
3.75611e-07
-8.51362e-09
3.88282e-07
4.17111e-08
4.45207e-07
1.2822e-07
4.64761e-07
2.50178e-07
4.97672e-07
4.01494e-07
5.70555e-07
6.5923e-07
4.90989e-07
9.03797e-07
6.17365e-07
1.38264e-06
1.74602e-07
1.54332e-06
1.23192e-07
1.54668e-06
-5.21147e-07
1.49936e-06
-1.55393e-06
1.26486e-06
-1.6279e-06
1.1734e-06
-1.30664e-06
7.99385e-07
-1.3441e-06
-8.30873e-07
-7.05491e-08
-1.40215e-08
2.14793e-07
-2.71051e-08
2.03366e-07
-4.00321e-08
2.00823e-07
-5.30415e-08
2.02414e-07
-6.54785e-08
2.03854e-07
-7.84909e-08
2.08854e-07
-8.46651e-08
1.95647e-07
-9.48457e-08
2.16586e-07
-9.09435e-08
1.95354e-07
-9.43348e-08
2.37557e-07
-8.90257e-08
2.45283e-07
-8.21374e-08
2.74424e-07
-6.89363e-08
2.96474e-07
-4.3863e-08
3.08439e-07
-1.18512e-08
3.436e-07
4.31998e-08
3.33231e-07
1.03305e-07
3.85101e-07
2.01215e-07
3.66851e-07
2.76507e-07
4.2238e-07
4.13744e-07
4.33318e-07
4.6312e-07
4.41613e-07
6.16154e-07
4.64331e-07
6.77457e-07
1.13299e-07
6.19548e-07
1.81102e-07
6.27848e-07
-5.29447e-07
8.41034e-08
-1.01019e-06
-3.24604e-07
-1.21919e-06
-1.15748e-07
-1.5155e-06
-1.18233e-07
-1.34162e-06
-9.08254e-07
-4.0852e-08
-1.37099e-08
2.28503e-07
-2.64343e-08
2.1609e-07
-3.90351e-08
2.13424e-07
-5.17964e-08
2.15175e-07
-6.37681e-08
2.15825e-07
-7.71039e-08
2.2219e-07
-8.16061e-08
2.00149e-07
-9.19747e-08
2.26955e-07
-8.36631e-08
1.87043e-07
-8.59069e-08
2.39801e-07
-7.64421e-08
2.35818e-07
-6.67652e-08
2.64747e-07
-4.99534e-08
2.79662e-07
-2.11745e-08
2.7966e-07
1.88658e-08
3.0356e-07
8.94076e-08
2.62689e-07
1.63223e-07
3.11285e-07
2.9012e-07
2.39955e-07
4.17813e-07
2.94687e-07
5.61067e-07
2.90064e-07
8.21842e-07
1.80837e-07
1.03019e-06
2.55983e-07
8.18756e-07
3.24733e-07
1.21615e-06
-2.16295e-07
1.17123e-06
-4.84528e-07
9.90259e-07
-8.29214e-07
7.21691e-07
-9.50627e-07
2.16976e-07
-1.01078e-06
-1.71751e-07
-9.52891e-07
-1.05574e-06
-2.42645e-08
-1.33838e-08
2.41887e-07
-2.572e-08
2.28426e-07
-3.79746e-08
2.25679e-07
-5.05081e-08
2.27709e-07
-6.2027e-08
2.27344e-07
-7.58785e-08
2.36042e-07
-7.90391e-08
2.03309e-07
-8.97198e-08
2.37636e-07
-7.68488e-08
1.74172e-07
-7.83134e-08
2.41265e-07
-6.57187e-08
2.23223e-07
-5.36583e-08
2.52688e-07
-3.33692e-08
2.59373e-07
-6.53711e-09
2.52828e-07
3.78253e-08
2.59197e-07
9.95675e-08
2.00947e-07
1.79333e-07
2.31518e-07
3.14173e-07
1.05115e-07
3.87213e-07
2.21647e-07
6.48132e-07
2.91451e-08
1.04137e-06
-2.12405e-07
1.0284e-06
2.68955e-07
8.56754e-07
4.96381e-07
1.45896e-06
-8.18499e-07
1.80848e-06
-8.34054e-07
2.26758e-06
-1.28831e-06
1.98228e-06
-6.65334e-07
1.41892e-06
-4.47424e-07
7.25419e-07
-2.59386e-07
-2.32857e-07
-9.74646e-08
-1.3045e-08
2.54932e-07
-2.49618e-08
2.40343e-07
-3.68459e-08
2.37563e-07
-4.91733e-08
2.40036e-07
-6.03613e-08
2.38532e-07
-7.47969e-08
2.50478e-07
-7.70808e-08
2.05593e-07
-8.81873e-08
2.48743e-07
-7.0493e-08
1.56477e-07
-7.16742e-08
2.42447e-07
-5.76846e-08
2.09233e-07
-4.78733e-08
2.42877e-07
-3.55419e-08
2.47042e-07
-1.4843e-08
2.32129e-07
2.52721e-08
2.19082e-07
9.42998e-08
1.3192e-07
1.62872e-07
1.62946e-07
3.17972e-07
-4.99848e-08
3.42929e-07
1.96691e-07
5.80043e-07
-2.0797e-07
8.79219e-07
-5.1158e-07
6.37334e-07
5.10838e-07
5.72986e-07
5.6073e-07
8.19632e-07
-1.06515e-06
1.32503e-06
-1.33945e-06
7.78866e-07
-7.42147e-07
2.32543e-07
-1.1901e-07
4.38713e-07
-6.53594e-07
5.69341e-07
-3.90013e-07
4.09058e-07
-7.25734e-08
-1.26958e-08
2.67628e-07
-2.4159e-08
2.51806e-07
-3.56394e-08
2.49043e-07
-4.77734e-08
2.5217e-07
-5.88302e-08
2.49589e-07
-7.38387e-08
2.65486e-07
-7.58619e-08
2.07616e-07
-8.74937e-08
2.60374e-07
-6.44737e-08
1.33457e-07
-6.46944e-08
2.42668e-07
-4.53328e-08
1.89871e-07
-2.69621e-08
2.24506e-07
-3.53731e-09
2.23617e-07
8.11841e-09
2.20473e-07
4.32328e-08
1.83968e-07
6.5152e-08
1.1e-07
1.48984e-07
7.91144e-08
1.76859e-07
-7.78607e-08
4.01819e-07
-2.82684e-08
4.68146e-07
-2.74298e-07
5.72345e-07
-6.15779e-07
7.15804e-07
3.67379e-07
9.88261e-07
2.88273e-07
1.12475e-06
-1.20164e-06
1.30452e-06
-1.51921e-06
8.5059e-07
-2.88221e-07
6.31573e-07
1.00007e-07
2.31547e-09
-2.43367e-08
-5.58691e-08
-3.31829e-07
3.96328e-07
-4.31393e-08
-1.23393e-08
2.79967e-07
-2.33105e-08
2.62777e-07
-3.43449e-08
2.60078e-07
-4.62739e-08
2.64099e-07
-5.74305e-08
2.60745e-07
-7.29767e-08
2.81033e-07
-7.55589e-08
2.10198e-07
-8.78276e-08
2.72643e-07
-5.9172e-08
1.04801e-07
-6.39169e-08
2.47413e-07
-5.48903e-08
1.80845e-07
-4.71984e-08
2.16814e-07
-5.17088e-08
2.28128e-07
-5.56393e-08
2.24403e-07
-2.90324e-08
1.57361e-07
5.68815e-10
8.03991e-08
8.11047e-08
-1.42123e-09
1.03881e-07
-1.00637e-07
2.84613e-07
-2.09e-07
3.16258e-07
-3.05943e-07
2.78315e-07
-5.77837e-07
6.85879e-07
-4.01846e-08
1.16935e-06
-1.952e-07
9.12082e-07
-9.44368e-07
3.74951e-07
-9.8208e-07
2.56545e-07
-1.69815e-07
1.64548e-07
1.92004e-07
-3.81052e-07
5.21263e-07
-5.48386e-07
-1.64495e-07
-1.68939e-07
1.68811e-08
-1.1979e-08
2.91947e-07
-2.24145e-08
2.73212e-07
-3.29803e-08
2.70644e-07
-4.46318e-08
2.7575e-07
-5.61369e-08
2.7225e-07
-7.21701e-08
2.97066e-07
-7.63694e-08
2.14397e-07
-8.90333e-08
2.85307e-07
-5.23812e-08
6.81491e-08
-4.79378e-08
2.42969e-07
-1.61924e-08
1.49099e-07
9.6025e-09
1.91019e-07
2.75837e-08
2.10147e-07
1.70302e-08
2.34957e-07
1.2414e-08
1.61977e-07
-2.65768e-08
1.1939e-07
-3.2937e-08
4.93898e-09
-8.00936e-08
-5.34806e-08
-5.14934e-08
-2.376e-07
-1.39202e-07
-2.18234e-07
-1.52965e-07
-5.64073e-07
1.25559e-07
-3.18709e-07
2.2439e-07
-2.9403e-07
-4.30944e-07
-2.89034e-07
-8.56706e-07
-5.56318e-07
-9.43783e-07
-8.27382e-08
-6.70283e-07
-8.1495e-08
1.89408e-07
-3.38429e-07
1.35812e-07
-1.10898e-07
9.3986e-08
-1.27114e-07
-1.16196e-08
3.03566e-07
-2.14675e-08
2.8306e-07
-3.15569e-08
2.80733e-07
-4.28037e-08
2.86997e-07
-5.49096e-08
2.84356e-07
-7.137e-08
3.13526e-07
-7.8641e-08
2.21668e-07
-9.28513e-08
2.99517e-07
-5.01993e-08
2.54972e-08
-6.57264e-08
2.58497e-07
-6.51108e-08
1.48484e-07
-5.8127e-08
1.84036e-07
-8.59779e-08
2.37998e-07
-1.27614e-07
2.76593e-07
-1.32406e-07
1.66769e-07
-9.95299e-08
8.65144e-08
-1.01431e-07
6.84005e-09
-7.65191e-08
-7.83924e-08
-8.82144e-08
-2.25905e-07
-1.12018e-07
-1.94431e-07
-2.47504e-07
-4.28587e-07
-1.153e-07
-4.50913e-07
1.71568e-08
-4.26487e-07
-5.69416e-08
-2.14935e-07
-2.34947e-07
-3.78313e-07
-8.9792e-08
-2.27893e-07
2.79436e-07
-4.50723e-07
6.07076e-07
-6.66068e-07
4.85331e-07
1.08456e-08
7.89071e-07
-2.09754e-07
-1.12662e-08
3.14833e-07
-2.04625e-08
2.92256e-07
-3.00733e-08
2.90344e-07
-4.07496e-08
2.97673e-07
-5.36831e-08
2.97289e-07
-7.04691e-08
3.30312e-07
-8.25699e-08
2.33769e-07
-9.36578e-08
3.10605e-07
-3.72006e-08
-3.09601e-08
-2.80707e-08
2.49367e-07
2.79166e-08
9.24963e-08
8.07825e-08
1.3117e-07
8.04147e-08
2.38365e-07
5.65251e-08
3.00483e-07
-1.27733e-08
2.36068e-07
-1.0155e-07
1.75291e-07
-2.01454e-07
1.06744e-07
-2.52566e-07
-2.72802e-08
-4.00921e-07
-7.75495e-08
-4.81701e-07
-1.13652e-07
-4.57329e-07
-4.52958e-07
-1.67696e-07
-7.40542e-07
1.46733e-07
-7.40907e-07
6.31756e-07
-6.99954e-07
7.15859e-07
-4.6241e-07
6.01256e-07
-1.13289e-07
2.0785e-07
-5.73178e-08
-3.49468e-07
-1.08744e-07
-1.64617e-07
-1.74005e-07
6.83694e-07
-5.92402e-08
-1.09249e-08
3.25758e-07
-1.93904e-08
3.00721e-07
-2.8523e-08
2.99477e-07
-3.84329e-08
3.07583e-07
-5.23578e-08
3.11214e-07
-6.94824e-08
3.47436e-07
-8.85354e-08
2.52822e-07
-1.07566e-07
3.29635e-07
-4.41187e-08
-9.44074e-08
-7.51067e-08
2.80355e-07
-8.13011e-08
9.86905e-08
-7.84916e-08
1.2836e-07
-1.12638e-07
2.72512e-07
-2.38313e-07
4.26158e-07
-2.51965e-07
2.49719e-07
-1.87754e-07
1.11081e-07
-3.50468e-07
2.69457e-07
-3.06742e-07
-7.10062e-08
-4.71272e-07
8.69813e-08
-5.16723e-07
-6.81997e-08
-4.70191e-07
-4.99475e-07
-2.2727e-07
-8.84976e-07
-5.26325e-08
-6.93867e-07
7.0223e-09
-5.70954e-07
1.64042e-07
-3.30921e-07
2.06857e-09
5.11034e-08
-1.18179e-07
7.34799e-08
-4.14321e-08
-9.40406e-08
-1.09497e-06
3.88801e-07
8.19678e-08
-6.70599e-07
-1.06006e-08
3.36358e-07
-1.82394e-08
3.0836e-07
-2.68951e-08
3.08133e-07
-3.58149e-08
3.16503e-07
-5.07693e-08
3.26169e-07
-6.79207e-08
3.64588e-07
-9.85923e-08
2.83493e-07
-1.00111e-07
3.31154e-07
-1.71848e-08
-1.77334e-07
-1.68443e-08
2.80015e-07
8.09582e-08
8.87721e-10
2.14503e-07
-5.18424e-09
1.75643e-07
3.11371e-07
1.5538e-07
4.46422e-07
2.86047e-08
3.76495e-07
-1.53969e-07
2.93654e-07
-2.7463e-07
3.90119e-07
-4.29177e-07
8.35409e-08
-8.83112e-07
5.40916e-07
-1.26473e-06
3.13431e-07
-9.00186e-07
-3.56213e-07
-3.79596e-07
-2.28966e-07
-5.22345e-07
-1.5883e-09
-3.17887e-07
-6.99124e-09
-5.51284e-08
-1.79278e-07
8.02214e-08
-1.09243e-07
2.49044e-07
-1.41692e-07
8.08801e-08
-1.52117e-07
6.7555e-08
1.85677e-07
-4.44117e-08
5.89844e-08
-1.03067e-08
3.46665e-07
-1.70365e-08
3.1509e-07
-2.52052e-08
3.16301e-07
-3.2888e-08
3.24186e-07
-4.87197e-08
3.42e-07
-6.67744e-08
3.82642e-07
-1.09705e-07
3.26423e-07
-1.35542e-07
3.56991e-07
-4.01029e-08
-2.72773e-07
-8.59931e-08
3.25905e-07
-1.01472e-07
1.6366e-08
-8.29344e-08
-2.37216e-08
-1.1827e-07
3.46707e-07
-3.94745e-07
7.22896e-07
-2.54299e-07
2.3605e-07
-1.75801e-07
2.15156e-07
-5.48284e-07
7.62605e-07
6.68868e-08
-5.31531e-07
-1.32552e-07
7.404e-07
-5.7198e-08
2.25327e-07
-4.23352e-08
-5.63579e-08
-1.75307e-09
4.22847e-09
-1.96763e-09
-1.63566e-09
1.21126e-09
-1.03549e-08
-2.84091e-09
-4.67308e-10
-4.01321e-08
3.84527e-09
-1.67655e-08
-9.65659e-08
3.37368e-08
-2.49461e-07
1.41818e-08
8.77919e-08
-1.48122e-07
1.0346e-08
-1.00025e-08
3.56668e-07
-1.56566e-08
3.20744e-07
-2.33626e-08
3.24008e-07
-2.94991e-08
3.30322e-07
-4.57641e-08
3.58266e-07
-6.2587e-08
3.99465e-07
-1.31427e-07
3.95263e-07
-1.08598e-07
3.34162e-07
9.32404e-09
-3.90695e-07
-4.99663e-08
3.85196e-07
1.34895e-07
-1.68495e-07
4.61205e-07
-3.50032e-07
2.76483e-07
5.3143e-07
2.69575e-07
7.29804e-07
7.85829e-08
4.27042e-07
9.82241e-09
2.83917e-07
-1.77637e-07
9.50065e-07
-1.18749e-06
4.78323e-07
-8.21701e-07
4.28694e-07
8.76597e-08
-8.1486e-07
-2.12081e-08
-9.25033e-08
5.66328e-09
-4.36989e-09
1.23089e-08
-7.36447e-10
3.14478e-09
-1.35987e-09
3.91546e-09
1.20522e-10
7.98326e-09
5.87283e-10
3.74678e-07
-9.92721e-08
2.32878e-07
-1.30357e-07
6.64435e-08
1.40012e-07
-3.52933e-07
-9.39064e-09
-9.84365e-09
3.66511e-07
-1.47177e-08
3.25618e-07
-2.19066e-08
3.31197e-07
-2.60565e-08
3.34472e-07
-4.178e-08
3.73989e-07
-6.23803e-08
4.20065e-07
-1.51223e-07
4.84106e-07
-1.74872e-07
3.57811e-07
-3.41083e-08
-5.31458e-07
-6.84004e-08
4.19488e-07
-1.15737e-07
-1.21158e-07
-9.16058e-09
-4.56609e-07
-1.31999e-08
5.35469e-07
-4.28333e-07
1.14494e-06
2.51686e-07
-2.52977e-07
-1.37222e-07
6.72825e-07
-1.30557e-06
2.11842e-06
-5.95178e-07
-2.32023e-07
3.22475e-07
-4.88934e-07
-8.99666e-07
7.33519e-07
-3.25743e-09
-1.27958e-06
1.72653e-09
-9.36915e-09
1.59831e-09
-7.92996e-10
-3.56279e-10
4.26468e-10
-1.4646e-09
1.08055e-09
-3.14047e-09
5.02486e-09
-1.31154e-07
9.20498e-08
-1.70316e-07
-1.31417e-07
-1.32006e-07
2.15143e-07
-3.96635e-07
-2.56701e-08
-9.53917e-09
3.76051e-07
-1.23754e-08
3.28454e-07
-1.92925e-08
3.38114e-07
-2.14445e-08
3.36624e-07
-3.512e-08
3.87664e-07
-5.09816e-08
4.35927e-07
-1.95723e-07
6.28847e-07
-1.11009e-07
2.73097e-07
4.215e-08
-6.84617e-07
-2.01721e-07
6.63359e-07
1.75158e-07
-4.98038e-07
9.12714e-07
-1.19417e-06
7.74492e-08
1.37073e-06
2.02088e-07
1.0203e-06
1.17791e-06
-1.2288e-06
1.40266e-06
4.48068e-07
1.52804e-06
1.99304e-06
1.03949e-06
2.56526e-07
-5.40117e-07
1.09067e-06
-9.11795e-07
1.1633e-06
-1.15532e-07
-2.126e-06
-3.89906e-09
-1.20947e-07
-4.69681e-09
-1.96094e-11
-2.80133e-09
-1.63726e-09
-1.67775e-09
-4.01732e-10
1.21348e-08
4.2288e-09
2.96214e-08
-2.28867e-09
-5.72748e-07
-4.49344e-08
-3.41823e-07
-3.95674e-07
-8.70052e-07
1.95165e-07
-1.30138e-08
3.89064e-07
-1.40421e-08
3.29482e-07
-1.91415e-08
3.43213e-07
-1.80403e-08
3.35522e-07
-2.70169e-08
3.96641e-07
-5.35884e-08
4.62498e-07
-2.35179e-07
8.10438e-07
-2.02635e-07
2.40553e-07
7.03168e-08
-9.57569e-07
3.31459e-07
4.02216e-07
-1.50042e-08
-1.51573e-07
2.15144e-07
-1.42431e-06
2.93592e-07
1.29229e-06
7.204e-07
5.9349e-07
-9.14976e-08
-4.16898e-07
-9.06687e-07
1.26382e-06
1.03933e-06
3.73623e-08
-1.13628e-06
2.43213e-06
-1.0903e-06
9.64144e-07
5.21817e-07
-3.77891e-07
3.86585e-07
-1.24739e-06
-6.68804e-10
5.49435e-08
-2.43658e-09
1.79385e-09
-4.2142e-08
3.79449e-08
-1.86037e-08
-2.55692e-08
-2.84286e-08
-2.02496e-08
-2.84671e-09
-7.26423e-08
-2.31851e-07
6.58002e-09
-3.52625e-07
-9.51913e-08
-1.28831e-07
-5.51716e-07
1.04684e-07
2.84381e-07
-2.26631e-08
4.56829e-07
-1.08815e-08
3.31432e-07
-8.5501e-09
3.33191e-07
-8.66214e-09
3.96753e-07
-2.25032e-08
4.7634e-07
-3.05196e-07
1.09313e-06
3.44725e-08
-9.91154e-08
-1.65254e-06
7.29439e-07
3.52015e-07
-1.60234e-06
-2.42917e-07
4.43358e-07
-3.1501e-06
1.77397e-06
-8.29924e-09
-1.47857e-06
3.11637e-06
-2.52775e-06
9.00175e-07
1.7993e-06
1.22121e-06
9.42803e-07
6.72121e-07
-1.29738e-08
2.03874e-06
2.57122e-08
3.02177e-06
-6.06937e-07
4.38208e-06
-2.2607e-06
6.25638e-06
-1.76478e-06
4.28276e-06
2.33571e-06
2.91365e-06
8.69537e-07
6.81449e-07
3.89464e-07
1.95864e-07
4.36358e-08
5.86721e-07
1.03214e-08
2.34514e-07
-1.41663e-08
1.33969e-07
-3.19099e-07
1.98108e-08
-4.83485e-07
3.21131e-08
-1.02332e-07
5.17226e-08
-5.99315e-08
1.15641e-07
-6.39188e-08
1.81423e-07
-6.57813e-08
2.46438e-07
-6.50156e-08
3.07778e-07
-6.13402e-08
3.6231e-07
-5.45325e-08
4.07156e-07
-4.48453e-08
4.40114e-07
-3.29586e-08
4.59846e-07
-1.97328e-08
4.65942e-07
-6.09587e-09
4.59133e-07
6.80928e-09
4.41113e-07
1.80198e-08
4.13867e-07
2.72456e-08
3.79985e-07
3.3882e-08
3.42295e-07
3.76902e-08
3.03501e-07
3.87938e-08
2.65852e-07
3.7649e-08
2.30984e-07
3.48687e-08
1.99847e-07
3.11367e-08
1.72761e-07
2.70858e-08
1.49515e-07
2.32469e-08
1.295e-07
2.00145e-08
1.11832e-07
1.76677e-08
9.56016e-08
1.62308e-08
8.00076e-08
1.55939e-08
6.45491e-08
1.54586e-08
4.89995e-08
1.55496e-08
3.32517e-08
1.57477e-08
1.70896e-08
1.6162e-08
1.70895e-08
7.10775e-08
-1.39005e-07
1.50624e-07
-1.43465e-07
2.28035e-07
-1.43193e-07
3.00254e-07
-1.37235e-07
3.64147e-07
-1.25233e-07
4.17146e-07
-1.07532e-07
4.5757e-07
-8.52698e-08
4.84448e-07
-5.98374e-08
4.97491e-07
-3.27754e-08
4.97072e-07
-5.67707e-09
4.84693e-07
1.91882e-08
4.62037e-07
4.0676e-08
4.31203e-07
5.80791e-08
3.94724e-07
7.03611e-08
3.55247e-07
7.71677e-08
3.15231e-07
7.88091e-08
2.76703e-07
7.61779e-08
2.41118e-07
7.04539e-08
2.09307e-07
6.29476e-08
1.81521e-07
5.4872e-08
1.57519e-07
4.72489e-08
1.36687e-07
4.08465e-08
1.18138e-07
3.62161e-08
1.00982e-07
3.33865e-08
8.44374e-08
3.21388e-08
6.80374e-08
3.18586e-08
5.15791e-08
3.20077e-08
3.49616e-08
3.2365e-08
1.79492e-08
3.31743e-08
3.50387e-08
1.36039e-07
-2.8171e-07
2.51364e-07
-2.5879e-07
3.47232e-07
-2.3906e-07
4.23947e-07
-2.13951e-07
4.81697e-07
-1.82983e-07
5.21706e-07
-1.47541e-07
5.45396e-07
-1.08959e-07
5.54234e-07
-6.8675e-08
5.49726e-07
-2.82677e-08
5.33419e-07
1.06294e-08
5.08115e-07
4.44921e-08
4.75048e-07
7.3743e-08
4.36559e-07
9.65683e-08
3.95016e-07
1.11904e-07
3.5264e-07
1.19543e-07
3.1134e-07
1.20109e-07
2.72611e-07
1.14907e-07
2.37449e-07
1.05617e-07
2.06343e-07
9.40537e-08
1.79321e-07
8.18935e-08
1.56016e-07
7.05533e-08
1.3575e-07
6.11133e-08
1.176e-07
5.43658e-08
1.00695e-07
5.02916e-08
8.42688e-08
4.85645e-08
6.79194e-08
4.82079e-08
5.14866e-08
4.84404e-08
3.48942e-08
4.89573e-08
1.79138e-08
5.01547e-08
5.29524e-08
3.5518e-07
-6.39156e-07
5.40166e-07
-4.43777e-07
6.29046e-07
-3.2794e-07
6.74285e-07
-2.5919e-07
6.93511e-07
-2.02208e-07
6.9417e-07
-1.482e-07
6.80659e-07
-9.54489e-08
6.56041e-07
-4.40568e-08
6.21791e-07
5.98227e-09
5.82356e-07
5.00643e-08
5.37751e-07
8.90967e-08
4.90098e-07
1.21396e-07
4.41335e-07
1.45331e-07
3.93214e-07
1.60025e-07
3.47231e-07
1.65526e-07
3.04509e-07
1.62832e-07
2.65803e-07
1.53612e-07
2.31475e-07
1.39945e-07
2.01547e-07
1.23981e-07
1.75749e-07
1.07692e-07
1.5354e-07
9.27619e-08
1.3416e-07
8.0493e-08
1.16638e-07
7.18883e-08
1.00133e-07
6.67962e-08
8.39083e-08
6.47891e-08
6.76581e-08
6.44581e-08
5.1286e-08
6.48124e-08
3.47526e-08
6.54905e-08
1.78404e-08
6.70668e-08
7.07927e-08
7.30042e-07
-1.36671e-06
1.13292e-06
-8.46659e-07
1.1761e-06
-3.71114e-07
1.09996e-06
-1.83051e-07
1.00898e-06
-1.1123e-07
9.25165e-07
-6.43845e-08
8.47931e-07
-1.82148e-08
7.74014e-07
2.98599e-08
7.03521e-07
7.64747e-08
6.34237e-07
1.19349e-07
5.66883e-07
1.56451e-07
5.02545e-07
1.85733e-07
4.42412e-07
2.05464e-07
3.87382e-07
2.15055e-07
3.37981e-07
2.14927e-07
2.94311e-07
2.06502e-07
2.56227e-07
1.91696e-07
2.23336e-07
1.72837e-07
1.95138e-07
1.52179e-07
1.71034e-07
1.31796e-07
1.50298e-07
1.13498e-07
1.321e-07
9.86907e-08
1.15397e-07
8.85918e-08
9.94062e-08
8.27865e-08
8.34346e-08
8.07607e-08
6.73101e-08
8.05824e-08
5.10165e-08
8.1106e-08
3.45619e-08
8.19449e-08
1.77416e-08
8.38871e-08
8.85344e-08
6.40419e-07
-2.01415e-06
1.44838e-06
-1.65462e-06
1.59733e-06
-5.20066e-07
1.48252e-06
-6.82402e-08
1.30502e-06
6.62662e-08
1.13975e-06
1.00885e-07
9.99408e-07
1.22126e-07
8.78505e-07
1.50763e-07
7.70806e-07
1.84174e-07
6.72953e-07
2.17202e-07
5.84197e-07
2.45206e-07
5.04852e-07
2.65079e-07
4.3509e-07
2.75226e-07
3.74749e-07
2.75396e-07
3.23364e-07
2.66313e-07
2.79997e-07
2.49868e-07
2.43582e-07
2.28111e-07
2.12966e-07
2.03453e-07
1.87155e-07
1.77991e-07
1.65246e-07
1.53705e-07
1.46358e-07
1.32386e-07
1.29634e-07
1.15415e-07
1.13918e-07
1.04307e-07
9.8538e-08
9.81667e-08
8.28575e-08
9.64412e-08
6.68793e-08
9.65605e-08
5.06791e-08
9.73061e-08
3.43224e-08
9.83016e-08
1.76177e-08
1.00592e-07
1.06152e-07
-9.15882e-09
-2.01817e-06
8.45156e-07
-2.50893e-06
1.11169e-06
-7.86603e-07
1.20694e-06
-1.6349e-07
1.20082e-06
7.2391e-08
1.13674e-06
1.64962e-07
1.03825e-06
2.20616e-07
9.22606e-07
2.66409e-07
8.03055e-07
3.03725e-07
6.88609e-07
3.31648e-07
5.84391e-07
3.49425e-07
4.93282e-07
3.56188e-07
4.16361e-07
3.52147e-07
3.53158e-07
3.38599e-07
3.02125e-07
3.17345e-07
2.60963e-07
2.91031e-07
2.27678e-07
2.61395e-07
2.00376e-07
2.30755e-07
1.77681e-07
2.00686e-07
1.58483e-07
1.72902e-07
1.41809e-07
1.4906e-07
1.26848e-07
1.30376e-07
1.12242e-07
1.18914e-07
9.75536e-08
1.12855e-07
8.21881e-08
1.11807e-07
6.63697e-08
1.12379e-07
5.02745e-08
1.13401e-07
3.40338e-08
1.14542e-07
1.74685e-08
1.17157e-07
1.23621e-07
-2.68768e-07
-1.72542e-06
-1.36934e-07
-2.64076e-06
1.00973e-07
-1.02451e-06
4.39413e-07
-5.01929e-07
8.22255e-07
-3.10451e-07
9.86979e-07
2.37914e-10
9.98147e-07
2.09448e-07
9.13165e-07
3.51391e-07
7.89837e-07
4.27054e-07
6.6307e-07
4.58414e-07
5.49525e-07
4.62969e-07
4.55047e-07
4.50666e-07
3.79061e-07
4.28133e-07
3.1917e-07
3.9849e-07
2.72856e-07
3.63659e-07
2.36723e-07
3.27163e-07
2.08488e-07
2.89631e-07
1.85683e-07
2.5356e-07
1.66874e-07
2.19495e-07
1.50897e-07
1.8888e-07
1.36763e-07
1.63194e-07
1.23824e-07
1.43314e-07
1.1041e-07
1.32327e-07
9.64825e-08
1.26783e-07
8.14391e-08
1.2685e-07
6.57853e-08
1.28032e-07
4.98027e-08
1.29384e-07
3.36958e-08
1.30649e-07
1.72943e-08
1.33558e-07
1.40915e-07
-6.41244e-08
-1.61499e-06
-6.28614e-07
-2.07627e-06
-1.58702e-07
-1.49442e-06
2.97497e-07
-9.58127e-07
8.91342e-07
-9.04296e-07
1.21803e-06
-3.26455e-07
1.15687e-06
2.70613e-07
9.65171e-07
5.43089e-07
7.81167e-07
6.11057e-07
6.27769e-07
6.11812e-07
5.01796e-07
5.88942e-07
4.03613e-07
5.48849e-07
3.29167e-07
5.02579e-07
2.74777e-07
4.5288e-07
2.36389e-07
4.02046e-07
2.0766e-07
3.55892e-07
1.86416e-07
3.10875e-07
1.69213e-07
2.70762e-07
1.55002e-07
2.33707e-07
1.427e-07
2.01182e-07
1.31342e-07
1.74551e-07
1.20626e-07
1.54031e-07
1.08469e-07
1.44484e-07
9.53621e-08
1.3989e-07
8.06241e-08
1.41588e-07
6.51303e-08
1.43526e-07
4.92636e-08
1.4525e-07
3.33078e-08
1.46605e-07
1.7095e-08
1.49771e-07
1.5801e-07
3.05383e-07
-1.92257e-06
-1.57089e-07
-1.6138e-06
5.06397e-07
-2.15791e-06
9.9963e-07
-1.45136e-06
1.35581e-06
-1.26048e-06
1.55369e-06
-5.24335e-07
1.41347e-06
4.10836e-07
1.06395e-06
8.92606e-07
7.32006e-07
9.43004e-07
5.09379e-07
8.34439e-07
3.69742e-07
7.28579e-07
2.9291e-07
6.2568e-07
2.43936e-07
5.51553e-07
2.11318e-07
4.85498e-07
1.90424e-07
4.22941e-07
1.73566e-07
3.72751e-07
1.61837e-07