/*--------------------------------*- C++ -*----------------------------------*\
| =========                 |                                                 |
| \\      /  F ield         | OpenFOAM: The Open Source CFD Toolbox           |
|  \\    /   O peration     | Version:  2.4.0                                 |
|   \\  /    A nd           | Web:      www.OpenFOAM.org                      |
|    \\/     M anipulation  |                                                 |
\*---------------------------------------------------------------------------*/
FoamFile
{
    version     2.0;
    format      ascii;
    class       surfaceScalarField;
    location    "0.284";
    object      phi;
}
// * * * * * * * * * * * * * * * * * * * * * * * * * * * * * * * * * * * * * //

dimensions      [0 3 -1 0 0 0 0];

internalField   nonuniform List<scalar> 
19800
(
-3.18283e-13
3.18283e-13
-2.25492e-13
-9.63559e-14
3.46534e-13
-5.74099e-13
1.28515e-12
-9.38718e-13
2.46115e-12
-1.17571e-12
3.77e-12
-1.30874e-12
5.13196e-12
-1.36193e-12
6.48717e-12
-1.35508e-12
7.79059e-12
-1.30322e-12
9.00795e-12
-1.21722e-12
1.01131e-11
-1.10515e-12
1.10866e-11
-9.73736e-13
1.19158e-11
-8.29555e-13
1.25951e-11
-6.79774e-13
1.31271e-11
-5.32406e-13
1.35228e-11
-3.96149e-13
1.38023e-11
-2.79884e-13
1.39939e-11
-1.91914e-13
1.41327e-11
-1.39072e-13
1.42581e-11
-1.258e-13
1.4411e-11
-1.5341e-13
1.463e-11
-2.19689e-13
1.4948e-11
-3.18969e-13
1.53896e-11
-4.42696e-13
1.5969e-11
-5.80422e-13
1.66892e-11
-7.21078e-13
1.7543e-11
-8.54317e-13
1.85143e-11
-9.71622e-13
1.9581e-11
-1.06689e-12
2.07174e-11
-1.1364e-12
2.18956e-11
-1.17842e-12
2.30888e-11
-1.19338e-12
2.42735e-11
-1.1851e-12
2.54352e-11
-1.16199e-12
2.65694e-11
-1.13462e-12
2.76786e-11
-1.10967e-12
2.87669e-11
-1.08889e-12
2.9836e-11
-1.06985e-12
3.08828e-11
-1.04764e-12
3.18986e-11
-1.01663e-12
3.287e-11
-9.72004e-13
3.378e-11
-9.10611e-13
3.46108e-11
-8.31418e-13
3.53455e-11
-7.35458e-13
3.59701e-11
-6.2551e-13
3.6475e-11
-5.05677e-13
3.68555e-11
-3.8103e-13
3.71127e-11
-2.57286e-13
3.72533e-11
-1.4039e-13
-3.62955e-14
3.72901e-11
1.04637e-13
2.15463e-13
1.20478e-12
-1.19556e-12
3.30137e-12
-2.67219e-12
6.16092e-12
-3.79963e-12
9.53867e-12
-4.55391e-12
1.32187e-11
-4.98852e-12
1.70231e-11
-5.16584e-12
2.081e-11
-5.14156e-12
2.44676e-11
-4.96064e-12
2.7908e-11
-4.65774e-12
3.10627e-11
-4.26029e-12
3.38806e-11
-3.79236e-12
3.63282e-11
-3.27792e-12
3.83907e-11
-2.743e-12
4.00739e-11
-2.21635e-12
4.1406e-11
-1.72888e-12
4.24375e-11
-1.31195e-12
4.32396e-11
-9.94707e-13
4.39009e-11
-8.01079e-13
4.45206e-11
-7.46585e-13
4.52017e-11
-8.35825e-13
4.60415e-11
-1.06117e-12
4.71239e-11
-1.40308e-12
4.85116e-11
-1.83203e-12
5.02418e-11
-2.31193e-12
5.23244e-11
-2.80441e-12
5.4743e-11
-3.27337e-12
5.74599e-11
-3.68872e-12
6.04214e-11
-4.02859e-12
6.35638e-11
-4.27922e-12
6.68185e-11
-4.43375e-12
7.01172e-11
-4.49279e-12
7.33997e-11
-4.46844e-12
7.66252e-11
-4.38845e-12
7.97777e-11
-4.28803e-12
8.28563e-11
-4.18941e-12
8.58645e-11
-4.0984e-12
8.88004e-11
-4.00711e-12
9.1651e-11
-3.89962e-12
9.43909e-11
-3.75779e-12
9.69839e-11
-3.56609e-12
9.93867e-11
-3.31449e-12
1.01554e-10
-2.99986e-12
1.03443e-10
-2.62598e-12
1.05019e-10
-2.2027e-12
1.06257e-10
-1.74475e-12
1.07146e-10
-1.27035e-12
1.0769e-10
-8.00158e-13
1.07905e-10
-3.55401e-13
4.3385e-14
1.07826e-10
5.83746e-13
-3.70356e-13
2.68214e-12
-3.29374e-12
6.06755e-12
-6.05793e-12
1.04261e-11
-8.15871e-12
1.54493e-11
-9.5773e-12
2.08616e-11
-1.04005e-11
2.64281e-11
-1.07319e-11
3.19548e-11
-1.0668e-11
3.72837e-11
-1.02894e-11
4.22869e-11
-9.66126e-12
4.6863e-11
-8.8369e-12
5.0935e-11
-7.86494e-12
5.44512e-11
-6.79477e-12
5.7388e-11
-5.68027e-12
5.97522e-11
-4.58107e-12
6.1584e-11
-3.56118e-12
6.29571e-11
-2.68551e-12
6.39764e-11
-2.0146e-12
6.47728e-11
-1.59825e-12
6.54943e-11
-1.46906e-12
6.62945e-11
-1.63707e-12
6.73193e-11
-2.08708e-12
6.86944e-11
-2.77914e-12
7.05142e-11
-3.65264e-12
7.2835e-11
-4.63316e-12
7.56717e-11
-5.6414e-12
7.90009e-11
-6.60267e-12
8.2767e-11
-7.45501e-12
8.68916e-11
-8.1537e-12
9.12825e-11
-8.67089e-12
9.58394e-11
-8.99166e-12
1.0046e-10
-9.11433e-12
1.05051e-10
-9.06003e-12
1.09547e-10
-8.88581e-12
1.13926e-10
-8.6678e-12
1.18187e-10
-8.45098e-12
1.22333e-10
-8.24551e-12
1.26358e-10
-8.03402e-12
1.30242e-10
-7.78384e-12
1.33942e-10
-7.45882e-12
1.37404e-10
-7.02863e-12
1.40563e-10
-6.47435e-12
1.43353e-10
-5.79093e-12
1.45713e-10
-4.98716e-12
1.47593e-10
-4.08407e-12
1.4896e-10
-3.11251e-12
1.498e-10
-2.11051e-12
1.5012e-10
-1.12044e-12
1.49952e-10
-1.87042e-13
6.48188e-13
1.49347e-10
9.50539e-13
-1.32266e-12
3.82471e-12
-6.16878e-12
8.20727e-12
-1.04407e-11
1.36889e-11
-1.36403e-11
1.99072e-11
-1.57955e-11
2.65471e-11
-1.70399e-11
3.33384e-11
-1.75229e-11
4.00539e-11
-1.73833e-11
4.65039e-11
-1.67398e-11
5.25317e-11
-1.56895e-11
5.80094e-11
-1.43152e-11
6.28379e-11
-1.2694e-11
6.69488e-11
-1.09061e-11
7.03082e-11
-9.03999e-12
7.2921e-11
-7.19423e-12
7.48347e-11
-5.47534e-12
7.61406e-11
-3.99198e-12
7.69716e-11
-2.84625e-12
7.74956e-11
-2.12295e-12
7.79043e-11
-1.87842e-12
7.83978e-11
-2.13114e-12
7.9167e-11
-2.85679e-12
8.03767e-11
-3.98908e-12
8.21504e-11
-5.42643e-12
8.45608e-11
-7.04359e-12
8.76263e-11
-8.7069e-12
9.13143e-11
-1.02909e-11
9.55517e-11
-1.1693e-11
1.00239e-10
-1.28415e-11
1.0526e-10
-1.36937e-11
1.10491e-10
-1.42245e-11
1.15799e-10
-1.44232e-11
1.21052e-10
-1.43144e-11
1.26163e-10
-1.3997e-11
1.3111e-10
-1.36158e-11
1.35903e-10
-1.32448e-11
1.40552e-10
-1.28947e-11
1.45047e-10
-1.25306e-11
1.49358e-10
-1.20953e-11
1.53427e-10
-1.15288e-11
1.57181e-10
-1.07826e-11
1.60534e-10
-9.82815e-12
1.63402e-10
-8.65985e-12
1.65709e-10
-7.29451e-12
1.67392e-10
-5.76867e-12
1.68413e-10
-4.13468e-12
1.68757e-10
-2.45581e-12
1.6844e-10
-8.03417e-13
1.67505e-10
7.47803e-13
2.12983e-12
1.66023e-10
1.20024e-12
-2.52358e-12
4.63579e-12
-9.60528e-12
9.75419e-12
-1.55593e-11
1.60604e-11
-1.99463e-11
2.31419e-11
-2.28766e-11
3.06507e-11
-2.45484e-11
3.82914e-11
-2.51635e-11
4.58135e-11
-2.49057e-11
5.30047e-11
-2.39315e-11
5.96852e-11
-2.23707e-11
6.57052e-11
-2.03358e-11
7.09448e-11
-1.79341e-11
7.5318e-11
-1.52796e-11
7.8778e-11
-1.25002e-11
8.13236e-11
-9.74017e-12
8.30051e-11
-7.15728e-12
8.39267e-11
-4.91427e-12
8.42459e-11
-3.16603e-12
8.41656e-11
-2.04321e-12
8.39214e-11
-1.63446e-12
8.37612e-11
-1.97109e-12
8.39231e-11
-3.01868e-12
8.46123e-11
-4.67821e-12
8.59822e-11
-6.79616e-12
8.81208e-11
-9.18224e-12
9.10467e-11
-1.1633e-11
9.47137e-11
-1.39586e-11
9.90272e-11
-1.60076e-11
1.03865e-10
-1.7681e-11
1.09096e-10
-1.89266e-11
1.1458e-10
-1.97095e-11
1.20151e-10
-1.9996e-11
1.2563e-10
-1.97939e-11
1.30894e-10
-1.92616e-11
1.35945e-10
-1.86681e-11
1.4082e-10
-1.81195e-11
1.45538e-10
-1.76134e-11
1.5009e-10
-1.70831e-11
1.5443e-10
-1.64358e-11
1.58482e-10
-1.55808e-11
1.62148e-10
-1.44489e-11
1.65321e-10
-1.30024e-11
1.67899e-10
-1.12381e-11
1.69788e-10
-9.18483e-12
1.70917e-10
-6.8996e-12
1.71243e-10
-4.46152e-12
1.70752e-10
-1.96596e-12
1.69466e-10
4.82625e-13
1.67442e-10
2.77176e-12
4.79981e-12
1.64772e-10
1.36297e-12
-3.88669e-12
5.18832e-12
-1.3431e-11
1.08331e-11
-2.12041e-11
1.77354e-11
-2.68482e-11
2.5439e-11
-3.05797e-11
3.35676e-11
-3.26768e-11
4.18052e-11
-3.34013e-11
4.98829e-11
-3.29841e-11
5.75701e-11
-3.16196e-11
6.46675e-11
-2.94689e-11
7.1004e-11
-2.66729e-11
7.64385e-11
-2.33689e-11
8.08644e-11
-1.97056e-11
8.42175e-11
-1.58535e-11
8.64851e-11
-1.20082e-11
8.77146e-11
-8.38722e-12
8.80187e-11
-5.21895e-12
8.75768e-11
-2.72459e-12
8.6628e-11
-1.09469e-12
8.54556e-11
-4.6213e-13
8.43621e-11
-8.77647e-13
8.36398e-11
-2.29627e-12
8.35403e-11
-4.57881e-12
8.42505e-11
-7.50649e-12
8.58741e-11
-1.08062e-11
8.84255e-11
-1.4185e-11
9.18368e-11
-1.7371e-11
9.59821e-11
-2.01543e-11
1.00713e-10
-2.24137e-11
1.05891e-10
-2.41064e-11
1.11376e-10
-2.51961e-11
1.16977e-10
-2.55983e-11
1.2243e-10
-2.52475e-11
1.27555e-10
-2.43867e-11
1.32418e-10
-2.35313e-11
1.37102e-10
-2.2804e-11
1.41646e-10
-2.21579e-11
1.46033e-10
-2.147e-11
1.50194e-10
-2.05972e-11
1.54025e-10
-1.94119e-11
1.57399e-10
-1.78236e-11
1.60184e-10
-1.57883e-11
1.62255e-10
-1.33095e-11
1.63502e-10
-1.04341e-11
1.63846e-10
-7.24483e-12
1.63237e-10
-3.8533e-12
1.61663e-10
-3.92697e-13
1.59154e-10
2.99155e-12
1.55779e-10
6.14742e-12
8.92846e-12
1.51651e-10
1.46728e-12
-5.35397e-12
5.55789e-12
-1.75213e-11
1.15736e-11
-2.72194e-11
1.89046e-11
-3.41787e-11
2.70605e-11
-3.87354e-11
3.56415e-11
-4.1258e-11
4.43142e-11
-4.20746e-11
5.27946e-11
-4.14655e-11
6.08355e-11
-3.96616e-11
6.82189e-11
-3.68532e-11
7.47522e-11
-3.32067e-11
8.02698e-11
-2.88868e-11
8.46398e-11
-2.40758e-11
8.77743e-11
-1.89881e-11
8.96412e-11
-1.38754e-11
9.02773e-11
-9.02378e-12
8.97982e-11
-4.74022e-12
8.84026e-11
-1.3293e-12
8.63686e-11
9.39146e-13
8.40354e-11
1.87081e-12
8.1772e-11
1.38547e-12
7.99368e-11
-4.61512e-13
7.88391e-11
-3.48164e-12
7.87061e-11
-7.37422e-12
7.96595e-11
-1.17605e-11
8.17046e-11
-1.62311e-11
8.47384e-11
-2.0406e-11
8.85853e-11
-2.40025e-11
9.30588e-11
-2.68887e-11
9.80273e-11
-2.90766e-11
1.03392e-10
-3.05619e-11
1.08953e-10
-3.1161e-11
1.14295e-10
-3.05898e-11
1.19113e-10
-2.92049e-11
1.23633e-10
-2.80517e-11
1.28021e-10
-2.71914e-11
1.32324e-10
-2.64617e-11
1.36503e-10
-2.56486e-11
1.40451e-10
-2.45452e-11
1.44022e-10
-2.29842e-11
1.47055e-10
-2.0857e-11
1.49385e-10
-1.81199e-11
1.50865e-10
-1.47906e-11
1.5137e-10
-1.09405e-11
1.50809e-10
-6.68456e-12
1.49127e-10
-2.17227e-12
1.46314e-10
2.42038e-12
1.42404e-10
6.90173e-12
1.3748e-10
1.10715e-11
1.47341e-11
1.31674e-10
1.5352e-12
-6.88907e-12
5.80697e-12
-2.17924e-11
1.20851e-11
-3.34969e-11
1.97286e-11
-4.18218e-11
2.82226e-11
-4.72293e-11
3.71498e-11
-5.01856e-11
4.6163e-11
-5.10887e-11
5.49654e-11
-5.02689e-11
6.3295e-11
-4.79922e-11
7.0915e-11
-4.44739e-11
7.7609e-11
-3.99012e-11
8.31832e-11
-3.44612e-11
8.74736e-11
-2.83664e-11
9.0359e-11
-2.18738e-11
9.17778e-11
-1.52944e-11
9.17454e-11
-8.99163e-12
9.03713e-11
-3.36642e-12
8.78697e-11
1.17209e-12
8.45615e-11
4.24697e-12
8.08546e-11
5.57721e-12
7.72016e-11
5.03762e-12
7.40457e-11
2.69324e-12
7.17696e-11
-1.20667e-12
7.0653e-11
-6.25876e-12
7.08411e-11
-1.19497e-11
7.23253e-11
-1.77162e-11
7.49485e-11
-2.30302e-11
7.84518e-11
-2.75068e-11
8.25796e-11
-3.10176e-11
8.72272e-11
-3.37253e-11
9.24222e-11
-3.57578e-11
9.80287e-11
-3.67682e-11
1.03332e-10
-3.58936e-11
1.07742e-10
-3.36151e-11
1.11878e-10
-3.21878e-11
1.16019e-10
-3.1332e-11
1.20188e-10
-3.06307e-11
1.24284e-10
-2.97452e-11
1.2814e-10
-2.84019e-11
1.31556e-10
-2.64014e-11
1.34326e-10
-2.36276e-11
1.36253e-10
-2.00486e-11
1.37167e-10
-1.57061e-11
1.36929e-10
-1.07036e-11
1.35438e-10
-5.19362e-12
1.32634e-10
6.30943e-13
1.28505e-10
6.54916e-12
1.2309e-10
1.23162e-11
1.16483e-10
1.76782e-11
2.23825e-11
1.08834e-10
1.58174e-12
-8.47052e-12
5.98051e-12
-2.61902e-11
1.24486e-11
-3.99642e-11
2.03267e-11
-4.96995e-11
2.90851e-11
-5.59878e-11
3.82954e-11
-5.93964e-11
4.76016e-11
-6.03957e-11
5.66971e-11
-5.93653e-11
6.53071e-11
-5.6603e-11
7.31759e-11
-5.23433e-11
8.00615e-11
-4.67871e-11
8.57362e-11
-4.01362e-11
8.99956e-11
-3.2626e-11
9.26736e-11
-2.4552e-11
9.36642e-11
-1.62852e-11
9.29465e-11
-8.27408e-12
9.06104e-11
-1.03046e-12
8.68782e-11
4.9039e-12
8.21164e-11
9.00813e-12
7.68188e-11
1.08738e-11
7.15482e-11
1.03069e-11
6.68577e-11
7.38239e-12
6.32245e-11
2.42523e-12
6.09985e-11
-4.03374e-12
6.03599e-11
-1.13118e-11
6.12859e-11
-1.86426e-11
6.35423e-11
-2.52871e-11
6.67301e-11
-3.06952e-11
7.04532e-11
-3.47414e-11
7.46391e-11
-3.7912e-11
7.96066e-11
-4.0726e-11
8.54947e-11
-4.26566e-11
9.1006e-11
-4.14052e-11
9.48867e-11
-3.74958e-11
9.8694e-11
-3.59952e-11
1.02813e-10
-3.54513e-11
1.07131e-10
-3.49492e-11
1.11427e-10
-3.40422e-11
1.15445e-10
-3.24203e-11
1.18919e-10
-2.98767e-11
1.21599e-10
-2.6308e-11
1.23258e-10
-2.17092e-11
1.23709e-10
-1.61578e-11
1.228e-10
-9.7963e-12
1.20425e-10
-2.81897e-12
1.16517e-10
4.53783e-12
1.11063e-10
1.20029e-11
1.041e-10
1.92777e-11
9.57306e-11
2.60472e-11
3.19939e-11
8.61192e-11
1.61568e-12
-1.00857e-11
6.10613e-12
-3.06797e-11
1.27148e-11
-4.65722e-11
2.07743e-11
-5.77586e-11
2.9749e-11
-6.49625e-11
3.92069e-11
-6.88546e-11
4.87887e-11
-6.99781e-11
5.81828e-11
-6.876e-11
6.71043e-11
-6.5525e-11
7.52803e-11
-6.05197e-11
8.2441e-11
-5.39482e-11
8.83199e-11
-4.60154e-11
9.2662e-11
-3.69683e-11
9.52418e-11
-2.7132e-11
9.58902e-11
-1.69337e-11
9.45286e-11
-6.91249e-12
9.12063e-11
2.29159e-12
8.61388e-11
9.97094e-12
7.97381e-11
1.54079e-11
7.26096e-11
1.80012e-11
6.54627e-11
1.74526e-11
5.89936e-11
1.38504e-11
5.38002e-11
7.61779e-12
5.03268e-11
-5.60727e-13
4.88092e-11
-9.79431e-12
4.92219e-11
-1.90553e-11
5.12386e-11
-2.73037e-11
5.42361e-11
-3.36928e-11
5.75208e-11
-3.80263e-11
6.0996e-11
-4.13875e-11
6.55273e-11
-4.52576e-11
7.20884e-11
-4.9218e-11
7.82715e-11
-4.75884e-11
8.13556e-11
-4.05801e-11
8.5017e-11
-3.96569e-11
8.95841e-11
-4.00188e-11
9.45275e-11
-3.98932e-11
9.94385e-11
-3.89539e-11
1.0396e-10
-3.69428e-11
1.0777e-10
-3.36867e-11
1.1058e-10
-2.91187e-11
1.12148e-10
-2.32784e-11
1.12278e-10
-1.62887e-11
1.10815e-10
-8.33516e-12
1.07648e-10
3.46789e-13
1.02706e-10
9.47932e-12
9.59653e-11
1.87422e-11
8.7461e-11
2.77811e-11
7.7293e-11
3.62148e-11
4.36514e-11
6.56357e-11
1.64096e-12
-1.17261e-11
6.19689e-12
-3.52347e-11
1.29084e-11
-5.3283e-11
2.11083e-11
-6.59581e-11
3.02638e-11
-7.41179e-11
3.9947e-11
-7.8538e-11
4.98027e-11
-7.98341e-11
5.95203e-11
-7.84778e-11
6.88099e-11
-7.4815e-11
7.73842e-11
-6.90943e-11
8.4946e-11
-6.15103e-11
9.11851e-11
-5.22548e-11
9.57856e-11
-4.15691e-11
9.84456e-11
-2.9792e-11
9.89093e-11
-1.73974e-11
9.70114e-11
-5.0147e-12
9.273e-11
6.57268e-12
8.62437e-11
1.64566e-11
7.80053e-11
2.36456e-11
6.87659e-11
2.72398e-11
5.94368e-11
2.67811e-11
5.0899e-11
2.23878e-11
4.39e-11
1.46168e-11
3.90055e-11
4.33397e-12
3.65378e-11
-7.32616e-12
3.64955e-11
-1.90125e-11
3.84845e-11
-2.92924e-11
4.16099e-11
-3.68181e-11
4.454e-11
-4.09565e-11
4.68905e-11
-4.37382e-11
5.03884e-11
-4.87558e-11
5.80648e-11
-5.68946e-11
6.57554e-11
-5.52792e-11
6.74241e-11
-4.2249e-11
7.14515e-11
-4.36847e-11
7.72964e-11
-4.58642e-11
8.35155e-11
-4.61128e-11
8.95243e-11
-4.4963e-11
9.49101e-11
-4.23288e-11
9.93256e-11
-3.81023e-11
1.02477e-10
-3.22709e-11
1.04126e-10
-2.4928e-11
1.04083e-10
-1.62462e-11
1.02198e-10
-6.45184e-12
9.83572e-11
4.18593e-12
9.24815e-11
1.53539e-11
8.45334e-11
2.66895e-11
7.45316e-11
3.77823e-11
6.2566e-11
4.81803e-11
5.74073e-11
4.88104e-11
1.6581e-12
-1.33836e-11
6.25499e-12
-3.98307e-11
1.30336e-11
-6.0061e-11
2.13348e-11
-7.4259e-11
3.06371e-11
-8.34199e-11
4.05252e-11
-8.8426e-11
5.06562e-11
-8.99652e-11
6.07287e-11
-8.85505e-11
7.04555e-11
-8.4542e-11
7.95404e-11
-7.81796e-11
8.76618e-11
-6.9632e-11
9.44638e-11
-5.9057e-11
9.95602e-11
-4.66656e-11
1.02554e-10
-3.27855e-11
1.03074e-10
-1.79175e-11
1.00832e-10
-2.77314e-12
9.56907e-11
1.17135e-11
8.77397e-11
2.44071e-11
7.745e-11
3.3935e-11
6.57703e-11
3.89193e-11
5.38991e-11
3.86526e-11
4.29523e-11
3.33351e-11
3.38502e-11
2.37196e-11
2.73061e-11
1.08788e-11
2.37649e-11
-3.78438e-12
2.32782e-11
-1.85253e-11
2.54522e-11
-3.14662e-11
2.93217e-11
-4.06874e-11
3.26853e-11
-4.43203e-11
3.34803e-11
-4.45336e-11
3.43731e-11
-4.9649e-11
4.30613e-11
-6.55833e-11
5.37384e-11
-6.59567e-11
5.28084e-11
-4.13194e-11
5.86898e-11
-4.95664e-11
6.71282e-11
-5.43029e-11
7.53485e-11
-5.43331e-11
8.28615e-11
-5.24759e-11
8.93614e-11
-4.88285e-11
9.45532e-11
-4.32939e-11
9.81777e-11
-3.58956e-11
1.00024e-10
-2.67754e-11
9.99255e-11
-1.61485e-11
9.77431e-11
-4.27075e-12
9.33592e-11
8.56877e-12
8.66771e-11
2.20353e-11
7.76326e-11
3.57337e-11
6.62146e-11
4.92002e-11
5.24875e-11
6.19074e-11
7.32837e-11
3.66112e-11
1.66531e-12
-1.50484e-11
6.2752e-12
-4.44401e-11
1.30806e-11
-6.6866e-11
2.1438e-11
-8.26162e-11
3.08456e-11
-9.28274e-11
4.091e-11
-9.84904e-11
5.13099e-11
-1.00365e-10
6.17631e-11
-9.9004e-11
7.19951e-11
-9.47744e-11
8.17112e-11
-8.7896e-11
9.05724e-11
-7.84935e-11
9.81797e-11
-6.66644e-11
1.0407e-10
-5.25559e-11
1.07733e-10
-3.64481e-11
1.0865e-10
-1.88357e-11
1.06369e-10
-4.91496e-13
1.00577e-10
1.75045e-11
9.11841e-11
3.38e-11
7.86236e-11
4.64958e-11
6.4124e-11
5.34195e-11
4.93018e-11
5.34756e-11
3.55622e-11
4.70756e-11
2.40185e-11
3.52642e-11
1.55465e-11
1.93515e-11
1.07545e-11
1.00807e-12
9.73983e-12
-1.75105e-11
1.21453e-11
-3.38716e-11
1.72453e-11
-4.57877e-11
2.32853e-11
-5.03608e-11
2.45835e-11
-4.58325e-11
1.92333e-11
-4.42994e-11
2.6506e-11
-7.28565e-11
3.9513e-11
-7.89641e-11
3.55001e-11
-3.73067e-11
4.80091e-11
-6.20756e-11
6.09687e-11
-6.72626e-11
7.17551e-11
-6.51194e-11
8.08523e-11
-6.15728e-11
8.83876e-11
-5.63633e-11
9.4281e-11
-4.9187e-11
9.83525e-11
-3.99671e-11
1.0042e-10
-2.88434e-11
1.00334e-10
-1.60633e-11
9.79626e-11
-1.90008e-12
9.31741e-11
1.3357e-11
8.58385e-11
2.93709e-11
7.5846e-11
4.57263e-11
6.31348e-11
6.19114e-11
4.77235e-11
7.73186e-11
9.12664e-11
2.97405e-11
1.65949e-12
-1.67075e-11
6.2477e-12
-4.9028e-11
1.30303e-11
-7.36484e-11
2.13872e-11
-9.09731e-11
3.08447e-11
-1.02285e-10
4.10401e-11
-1.08686e-10
5.16841e-11
-1.11009e-10
6.25249e-11
-1.09845e-10
7.33144e-11
-1.05564e-10
8.37733e-11
-9.83551e-11
9.35597e-11
-8.828e-11
1.02241e-10
-7.53459e-11
1.09279e-10
-5.95938e-11
1.14034e-10
-4.12033e-11
1.15809e-10
-2.06106e-11
1.1393e-10
1.3869e-12
1.07861e-10
2.35734e-11
9.71834e-11
4.44777e-11
8.21315e-11
6.15481e-11
6.43858e-11
7.11661e-11
4.61745e-11
7.16879e-11
2.92556e-11
6.39955e-11
1.4945e-11
4.95754e-11
4.28604e-12
3.00108e-11
-1.97901e-12
7.27318e-12
-3.87028e-12
-1.56194e-11
-1.75562e-12
-3.59867e-11
4.38144e-12
-5.19254e-11
1.61021e-11
-6.20823e-11
2.56437e-11
-5.53751e-11
2.09497e-11
-3.96064e-11
1.33497e-11
-6.52572e-11
7.40903e-12
-7.30237e-11
2.85892e-11
-5.8487e-11
4.67111e-11
-8.01975e-11
6.48032e-11
-8.53546e-11
7.63721e-11
-7.66882e-11
8.55702e-11
-7.07708e-11
9.31732e-11
-6.3966e-11
9.92234e-11
-5.52368e-11
1.03479e-10
-4.42229e-11
1.05681e-10
-3.10447e-11
1.05632e-10
-1.60142e-11
1.03174e-10
5.57312e-13
9.81403e-11
1.83914e-11
9.03426e-11
3.71692e-11
7.95995e-11
5.64698e-11
6.57717e-11
7.57393e-11
4.88066e-11
9.42834e-11
1.11293e-10
2.87794e-11
1.63688e-12
-1.83442e-11
6.16049e-12
-5.35517e-11
1.28591e-11
-8.03471e-11
2.11441e-11
-9.92582e-11
3.05773e-11
-1.11718e-10
4.0835e-11
-1.18944e-10
5.16694e-11
-1.21844e-10
6.2872e-11
-1.21048e-10
7.42358e-11
-1.16928e-10
8.55171e-11
-1.09637e-10
9.63935e-11
-9.91563e-11
1.06422e-10
-8.53741e-11
1.15001e-10
-6.81733e-11
1.21359e-10
-4.75612e-11
1.24582e-10
-2.38341e-11
1.23716e-10
2.25236e-12
1.17929e-10
2.93605e-11
1.06347e-10
5.606e-11
8.87295e-11
7.91662e-11
6.71378e-11
9.27586e-11
4.50905e-11
9.37359e-11
2.47468e-11
8.43397e-11
7.53372e-12
6.67887e-11
-5.3516e-12
4.28961e-11
-1.3162e-11
1.50833e-11
-1.63859e-11
-1.23961e-11
-1.69933e-11
-3.53801e-11
-1.4141e-11
-5.47789e-11
-4.18517e-12
-7.20395e-11
2.44505e-11
-8.40121e-11
2.47651e-11
-3.9922e-11
9.08038e-12
-4.9573e-11
3.25594e-11
-9.65029e-11
3.99891e-11
-6.59167e-11
7.34647e-11
-1.13673e-10
8.3734e-11
-9.56242e-11
9.08037e-11
-8.37583e-11
9.74362e-11
-7.74034e-11
1.03801e-10
-7.03302e-11
1.09418e-10
-6.08538e-11
1.13623e-10
-4.84272e-11
1.15902e-10
-3.33238e-11
1.15948e-10
-1.60596e-11
1.1355e-10
2.95635e-12
1.08481e-10
2.34609e-11
1.00473e-10
4.51785e-11
8.92433e-11
6.76998e-11
7.45457e-11
9.0437e-11
5.62266e-11
1.12602e-10
1.33237e-10
3.42824e-11
1.59374e-12
-1.9938e-11
6.00169e-12
-5.796e-11
1.25437e-11
-8.68894e-11
2.06694e-11
-1.07384e-10
2.99828e-11
-1.21032e-10
4.02057e-11
-1.29167e-10
5.11396e-11
-1.32779e-10
6.26297e-11
-1.32539e-10
7.45273e-11
-1.28826e-10
8.6647e-11
-1.21756e-10
9.8718e-11
-1.11227e-10
1.10326e-10
-9.69817e-11
1.20847e-10
-7.8694e-11
1.29392e-10
-5.61071e-11
1.34802e-10
-2.92441e-11
1.35769e-10
1.28535e-12
1.3106e-10
3.40692e-11
1.18889e-10
6.8231e-11
9.89416e-11
9.91142e-11
7.31949e-11
1.18505e-10
4.64157e-11
1.20515e-10
2.22812e-11
1.08474e-10
3.10408e-12
8.59657e-11
-1.13952e-11
5.73951e-11
-2.00731e-11
2.37609e-11
-2.47558e-11
-7.71411e-12
-2.77569e-11
-3.23801e-11
-3.17057e-11
-5.08314e-11
-4.18486e-11
-6.1898e-11
-6.11363e-11
-6.47256e-11
1.94253e-11
-1.20484e-10
5.85612e-11
-8.87091e-11
4.10629e-11
-7.90046e-11
1.39765e-10
-1.64619e-10
1.17443e-10
-9.1352e-11
1.08934e-10
-8.71155e-11
1.09352e-10
-8.41773e-11
1.13007e-10
-8.10584e-11
1.18285e-10
-7.56081e-11
1.23793e-10
-6.63613e-11
1.28268e-10
-5.29009e-11
1.30883e-10
-3.59384e-11
1.31247e-10
-1.6423e-11
1.29161e-10
5.04377e-12
1.24355e-10
2.82673e-11
1.1647e-10
5.30646e-11
1.05102e-10
7.90688e-11
8.98671e-11
1.05672e-10
7.048e-11
1.31989e-10
1.56887e-10
4.68302e-11
1.52708e-12
-2.14653e-11
5.76192e-12
-6.21953e-11
1.20651e-11
-9.31931e-11
1.99308e-11
-1.15251e-10
2.90089e-11
-1.30111e-10
3.90697e-11
-1.39229e-10
4.99681e-11
-1.43677e-10
6.16106e-11
-1.44181e-10
7.39195e-11
-1.41135e-10
8.67912e-11
-1.34628e-10
1.00044e-10
-1.2448e-10
1.13351e-10
-1.10288e-10
1.26143e-10
-9.14852e-11
1.37491e-10
-6.74558e-11
1.46e-10
-3.77525e-11
1.49833e-10
-2.54749e-12
1.47623e-10
3.62788e-11
1.35993e-10
7.98612e-11
1.12982e-10
1.22125e-10
8.30473e-11
1.4844e-10
5.14047e-11
1.52158e-10
2.14106e-11
1.38468e-10
7.86074e-13
1.0659e-10
-1.14754e-11
6.96565e-11
-1.75735e-11
2.98586e-11
-1.88147e-11
-6.4736e-12
-1.62765e-11
-3.49193e-11
-7.73648e-12
-5.93727e-11
4.59721e-12
-7.42329e-11
3.45819e-11
-9.47111e-11
2.95241e-11
-1.15427e-10
2.25307e-11
-8.17156e-11
5.0278e-11
-1.06752e-10
5.22154e-11
-1.66556e-10
8.81917e-11
-1.27329e-10
1.0479e-10
-1.03714e-10
1.16881e-10
-9.62693e-11
1.26152e-10
-9.03288e-11
1.33967e-10
-8.3423e-11
1.41096e-10
-7.34891e-11
1.46889e-10
-5.86931e-11
1.50436e-10
-3.94845e-11
1.51488e-10
-1.7475e-11
1.50065e-10
6.46857e-12
1.45915e-10
3.24183e-11
1.38576e-10
6.04048e-11
1.27504e-10
9.01415e-11
1.12158e-10
1.21017e-10
9.20886e-11
1.52058e-10
1.81927e-10
6.70478e-11
1.43536e-12
-2.2901e-11
5.43675e-12
-6.61972e-11
1.14145e-11
-9.91713e-11
1.89113e-11
-1.22748e-10
2.76236e-11
-1.38823e-10
3.73687e-11
-1.48974e-10
4.80533e-11
-1.54362e-10
5.96449e-11
-1.55773e-10
7.21421e-11
-1.53632e-10
8.55388e-11
-1.48024e-10
9.97768e-11
-1.38718e-10
1.14678e-10
-1.2519e-10
1.29839e-10
-1.06646e-10
1.44448e-10
-8.20641e-11
1.5707e-10
-5.03744e-11
1.6512e-10
-1.05978e-11
1.66613e-10
3.47863e-11
1.57135e-10
8.93388e-11
1.32868e-10
1.46391e-10
9.65878e-11
1.8472e-10
6.17385e-11
1.87007e-10
2.28998e-11
1.77307e-10
-1.31407e-13
1.29622e-10
-8.79641e-12
7.83216e-11
-3.34978e-12
2.44118e-11
2.32137e-12
-1.21452e-11
8.1725e-12
-4.07711e-11
2.40751e-11
-7.52761e-11
4.42659e-11
-9.44243e-11
5.6566e-11
-1.07012e-10
5.28952e-11
-1.11756e-10
6.23959e-11
-9.12162e-11
7.11991e-11
-1.15555e-10
7.7828e-11
-1.73186e-10
1.01641e-10
-1.51142e-10
1.18041e-10
-1.20115e-10
1.34381e-10
-1.12609e-10
1.45364e-10
-1.01311e-10
1.53428e-10
-9.14864e-11
1.62251e-10
-8.23112e-11
1.70072e-10
-6.65138e-11
1.74905e-10
-4.43162e-11
1.76855e-10
-1.94244e-11
1.76404e-10
6.92089e-12
1.7335e-10
3.54732e-11
1.67061e-10
6.66945e-11
1.56796e-10
1.00407e-10
1.41852e-10
1.3596e-10
1.21591e-10
1.72319e-10
2.07926e-10
9.55923e-11
1.31922e-12
-2.42205e-11
5.02912e-12
-6.99076e-11
1.05977e-11
-1.0474e-10
1.76178e-11
-1.29768e-10
2.58294e-11
-1.47035e-10
3.50902e-11
-1.58234e-10
4.53493e-11
-1.64621e-10
5.66251e-11
-1.67048e-10
6.89841e-11
-1.65991e-10
8.25158e-11
-1.61556e-10
9.72993e-11
-1.53501e-10
1.13355e-10
-1.41244e-10
1.30551e-10
-1.23841e-10
1.48412e-10
-9.99235e-11
1.65745e-10
-6.77078e-11
1.80254e-10
-2.51067e-11
1.87606e-10
2.74343e-11
1.81372e-10
9.5572e-11
1.57375e-10
1.70387e-10
1.17062e-10
2.25033e-10
7.07583e-11
2.33311e-10
3.71834e-11
2.10882e-10
3.86499e-12
1.6294e-10
3.35659e-12
7.88301e-11
1.54578e-11
1.23105e-11
3.18687e-11
-2.85563e-11
4.92306e-11
-5.81333e-11
6.32772e-11
-8.93229e-11
7.64294e-11
-1.07577e-10
8.66613e-11
-1.17244e-10
9.15437e-11
-1.16638e-10
1.14226e-10
-1.13899e-10
1.30248e-10
-1.31576e-10
1.20317e-10
-1.63255e-10
1.34126e-10
-1.64951e-10
1.57751e-10
-1.43739e-10
1.64705e-10
-1.19562e-10
1.70614e-10
-1.07219e-10
1.76306e-10
-9.71775e-11
1.8786e-10
-9.38642e-11
1.98718e-10
-7.73712e-11
2.04899e-10
-5.04976e-11
2.07617e-10
-2.21417e-11
2.08319e-10
6.21978e-12
2.06848e-10
3.69449e-11
2.02211e-10
7.13326e-11
1.93339e-10
1.09278e-10
1.79376e-10
1.49923e-10
1.59516e-10
1.92178e-10
2.34322e-10
1.3312e-10
1.18201e-12
-2.54027e-11
4.55119e-12
-7.3277e-11
9.63935e-12
-1.09828e-10
1.60886e-11
-1.36217e-10
2.3676e-11
-1.54621e-10
3.22883e-11
-1.66846e-10
4.19003e-11
-1.74232e-10
5.25593e-11
-1.77707e-10
6.43723e-11
-1.77804e-10
7.74936e-11
-1.74677e-10
9.21138e-11
-1.68121e-10
1.08446e-10
-1.57576e-10
1.26681e-10
-1.42076e-10
1.4689e-10
-1.20132e-10
1.68683e-10
-8.95011e-11
1.90436e-10
-4.68597e-11
2.0794e-10
9.92996e-12
2.1365e-10
8.98611e-11
1.93807e-10
1.90231e-10
1.39529e-10
2.79312e-10
7.8773e-11
2.94067e-10
2.19306e-11
2.67725e-10
2.14621e-11
1.63409e-10
4.01643e-11
6.0128e-11
6.22664e-11
-9.79159e-12
8.65218e-11
-5.28116e-11
1.08934e-10
-8.05452e-11
1.22437e-10
-1.02826e-10
1.29309e-10
-1.14448e-10
1.3611e-10
-1.24045e-10
1.47282e-10
-1.27811e-10
1.68858e-10
-1.35474e-10
1.83664e-10
-1.46382e-10
1.87221e-10
-1.6681e-10
1.8569e-10
-1.63418e-10
1.92309e-10
-1.50357e-10
1.97722e-10
-1.24973e-10
1.98882e-10
-1.08378e-10
2.02051e-10
-1.00345e-10
2.18614e-10
-1.10427e-10
2.34058e-10
-9.28147e-11
2.41448e-10
-5.7887e-11
2.43752e-10
-2.44454e-11
2.45726e-10
4.24614e-12
2.46551e-10
3.612e-11
2.443e-10
7.35834e-11
2.37502e-10
1.16077e-10
2.2512e-10
1.62305e-10
2.06319e-10
2.10979e-10
2.60411e-10
1.8023e-10
1.02998e-12
-2.64328e-11
4.02491e-12
-7.62721e-11
8.58422e-12
-1.14388e-10
1.43966e-11
-1.42029e-10
2.12679e-11
-1.61492e-10
2.90997e-11
-1.74676e-10
3.7871e-11
-1.83003e-10
4.76267e-11
-1.87462e-10
5.84687e-11
-1.88646e-10
7.05503e-11
-1.86759e-10
8.40831e-11
-1.81654e-10
9.93455e-11
-1.72837e-10
1.16712e-10
-1.59441e-10
1.36693e-10
-1.40112e-10
1.59916e-10
-1.12725e-10
1.86878e-10
-7.38222e-11
2.14853e-10
-1.80455e-11
2.41276e-10
6.34375e-11
2.38643e-10
1.92864e-10
2.00185e-10
3.1777e-10
9.46925e-11
3.99559e-10
5.27969e-11
3.09621e-10
6.54047e-11
1.50801e-10
9.96627e-11
2.58698e-11
1.31554e-10
-4.16827e-11
1.56756e-10
-7.80132e-11
1.76548e-10
-1.00337e-10
1.88564e-10
-1.14842e-10
1.97089e-10
-1.22973e-10
1.99317e-10
-1.26272e-10
2.03955e-10
-1.32449e-10
2.21172e-10
-1.52691e-10
2.37929e-10
-1.63138e-10
2.43718e-10
-1.72597e-10
2.48014e-10
-1.67713e-10
2.46699e-10
-1.49041e-10
2.41849e-10
-1.20122e-10
2.32122e-10
-9.86506e-11
2.37585e-10
-1.05807e-10
2.60626e-10
-1.33467e-10
2.83435e-10
-1.15624e-10
2.84382e-10
-5.8834e-11
2.83134e-10
-2.31982e-11
2.88182e-10
-8.0102e-13
2.92682e-10
3.16195e-11
2.93624e-10
7.26429e-11
2.89551e-10
1.2015e-10
2.79324e-10
1.72533e-10
2.62259e-10
2.28044e-10
2.85291e-10
2.37379e-10
8.71959e-13
-2.73048e-11
3.48089e-12
-7.88812e-11
7.49525e-12
-1.18402e-10
1.26468e-11
-1.47179e-10
1.87622e-11
-1.67606e-10
2.5745e-11
-1.81658e-10
3.35592e-11
-1.90816e-10
4.22168e-11
-1.9612e-10
5.17675e-11
-1.98196e-10
6.22892e-11
-1.9728e-10
7.38831e-11
-1.93247e-10
8.6662e-11
-1.85616e-10
1.0077e-10
-1.73549e-10
1.16498e-10
-1.5584e-10
1.34593e-10
-1.3082e-10
1.56595e-10
-9.58254e-11
1.83182e-10
-4.46329e-11
2.17101e-10
2.95183e-11
2.85778e-10
1.24187e-10
2.62035e-10
3.41513e-10
1.35267e-10
5.26327e-10
9.01451e-11
3.54743e-10
1.63032e-10
7.79135e-11
2.02763e-10
-1.38611e-11
2.22992e-10
-6.19123e-11
2.37771e-10
-9.27917e-11
2.48995e-10
-1.1156e-10
2.58023e-10
-1.2387e-10
2.64714e-10
-1.29664e-10
2.70398e-10
-1.31957e-10
2.76205e-10
-1.38256e-10
2.81067e-10
-1.57552e-10
2.88759e-10
-1.70829e-10
2.89991e-10
-1.73828e-10
2.93031e-10
-1.70752e-10
2.99488e-10
-1.55497e-10
3.09848e-10
-1.30481e-10
2.91954e-10
-8.07563e-11
2.80137e-10
-9.39893e-11
3.14433e-10
-1.67764e-10
3.29177e-10
-1.30368e-10
3.14607e-10
-4.42645e-11
3.2208e-10
-3.06713e-11
3.36547e-10
-1.52682e-11
3.46102e-10
2.20657e-11
3.50589e-10
6.81572e-11
3.49588e-10
1.21153e-10
3.42102e-10
1.80018e-10
3.27449e-10
2.42698e-10
3.07981e-10
3.04757e-10
7.18377e-13
-2.80233e-11
2.95516e-12
-8.11182e-11
6.44683e-12
-1.21893e-10
1.09649e-11
-1.51697e-10
1.63521e-11
-1.72993e-10
2.25065e-11
-1.87812e-10
2.93675e-11
-1.97677e-10
3.69019e-11
-2.03654e-10
4.509e-11
-2.06384e-10
5.39102e-11
-2.061e-10
6.33116e-11
-2.02648e-10
7.31717e-11
-1.95476e-10
8.32182e-11
-1.83595e-10
9.28822e-11
-1.65505e-10
1.01147e-10
-1.39086e-10
1.06713e-10
-1.01392e-10
1.08617e-10
-4.65373e-11
1.04582e-10
3.35529e-11
7.70241e-11
1.51745e-10
2.04326e-10
2.14211e-10
2.73468e-10
4.57185e-10
3.80522e-10
2.47687e-10
3.58231e-10
1.00204e-10
3.40868e-10
3.50226e-12
3.29209e-10
-5.02526e-11
3.25317e-10
-8.89002e-11
3.25877e-10
-1.12119e-10
3.27213e-10
-1.25206e-10
3.31693e-10
-1.34144e-10
3.35715e-10
-1.35979e-10
3.33283e-10
-1.35823e-10
3.39356e-10
-1.63625e-10
3.37109e-10
-1.68581e-10
3.35367e-10
-1.72086e-10
3.35474e-10
-1.70858e-10
3.40056e-10
-1.60078e-10
3.57731e-10
-1.48155e-10
3.88465e-10
-1.1149e-10
3.73375e-10
-7.88989e-11
3.49993e-10
-1.44382e-10
3.5194e-10
-1.32316e-10
3.53385e-10
-4.57107e-11
3.86422e-10
-6.37081e-11
4.015e-10
-3.03447e-11
4.1034e-10
1.32268e-11
4.15938e-10
6.25612e-11
4.17401e-10
1.19691e-10
4.13001e-10
1.84419e-10
4.01307e-10
2.54393e-10
3.27487e-10
3.81801e-10
5.79863e-13
-2.86034e-11
2.48428e-12
-8.30229e-11
5.51447e-12
-1.24923e-10
9.47944e-12
-1.55661e-10
1.4236e-11
-1.77749e-10
1.96772e-11
-1.93253e-10
2.572e-11
-2.0372e-10
3.22947e-11
-2.10229e-10
3.93339e-11
-2.13424e-10
4.67625e-11
-2.13529e-10
5.44848e-11
-2.10371e-10
6.23886e-11
-2.0338e-10
7.03768e-11
-1.91584e-10
7.84551e-11
-1.73585e-10
8.6866e-11
-1.47499e-10
9.65764e-11
-1.11103e-10
1.12339e-10
-6.23009e-11
1.24462e-10
2.14303e-11
1.661e-10
1.10107e-10
2.20646e-10
1.59665e-10
2.71046e-10
4.06784e-10
3.8478e-10
1.33953e-10
4.18951e-10
6.60331e-11
4.16535e-10
5.91799e-12
4.05828e-10
-3.95447e-11
3.96617e-10
-7.96886e-11
3.89146e-10
-1.04649e-10
3.84941e-10
-1.21002e-10
3.88135e-10
-1.37338e-10
3.9852e-10
-1.46365e-10
4.07264e-10
-1.44566e-10
3.91338e-10
-1.47698e-10
3.8626e-10
-1.63503e-10
3.76347e-10
-1.62172e-10
3.66581e-10
-1.61092e-10
3.51824e-10
-1.4532e-10
3.37851e-10