/*--------------------------------*- C++ -*----------------------------------*\
| =========                 |                                                 |
| \\      /  F ield         | OpenFOAM: The Open Source CFD Toolbox           |
|  \\    /   O peration     | Version:  2.4.0                                 |
|   \\  /    A nd           | Web:      www.OpenFOAM.org                      |
|    \\/     M anipulation  |                                                 |
\*---------------------------------------------------------------------------*/
FoamFile
{
    version     2.0;
    format      ascii;
    class       surfaceScalarField;
    location    "0.019";
    object      phiAlpha;
}
// * * * * * * * * * * * * * * * * * * * * * * * * * * * * * * * * * * * * * //

dimensions      [0 3 -1 0 0 0 0];

internalField   nonuniform List<scalar> 
114720
(
-1.11989e-10
9.5745e-11
2.13257e-10
-1.97013e-10
3.20352e-10
-4.07895e-10
-3.76582e-11
1.25201e-10
7.4109e-10
-8.70493e-10
-5.34913e-11
1.82893e-10
1.37835e-09
-1.57609e-09
-7.87098e-11
2.76453e-10
2.33925e-09
-2.62982e-09
-1.1095e-10
4.01511e-10
3.71876e-09
-4.12123e-09
-1.46084e-10
5.48553e-10
5.5812e-09
-6.104e-09
-1.77959e-10
7.00755e-10
7.93731e-09
-8.57237e-09
-1.98836e-10
8.33889e-10
1.07227e-08
-1.14417e-08
-2.01121e-10
9.20146e-10
1.37875e-08
-1.45428e-08
-1.80071e-10
9.35343e-10
1.6912e-08
-1.76451e-08
-1.37761e-10
8.7089e-10
1.9857e-08
-2.05155e-08
-8.52496e-11
7.43796e-10
2.24352e-08
-2.29886e-08
-3.93964e-11
5.92786e-10
2.45603e-08
-2.50031e-08
-1.44298e-11
4.57218e-10
2.62366e-08
-2.65767e-08
-1.40604e-11
3.54114e-10
2.7497e-08
-2.7739e-08
-3.05715e-11
2.72525e-10
2.83402e-08
-2.84749e-08
-4.88795e-11
1.83547e-10
2.87048e-08
-2.87102e-08
-5.36633e-11
5.90389e-11
2.84984e-08
-2.83536e-08
-3.75268e-11
-1.0725e-10
2.7645e-08
-2.73404e-08
-9.46762e-14
-3.0448e-10
2.61363e-08
-2.56824e-08
4.94075e-11
-5.03347e-10
2.40472e-08
-2.34726e-08
1.00149e-10
-6.74735e-10
2.15148e-08
-2.08574e-08
1.43004e-10
-8.00418e-10
1.86977e-08
-1.79956e-08
1.73805e-10
-8.75911e-10
1.57453e-08
-1.50289e-08
1.92722e-10
-9.09067e-10
1.27774e-08
-1.20723e-08
2.00758e-10
-9.05848e-10
9.88555e-09
-9.20904e-09
2.00315e-10
-8.76823e-10
7.13385e-09
-6.49808e-09
1.93176e-10
-8.2895e-10
4.56419e-09
-3.97663e-09
1.81338e-10
-7.68897e-10
2.19881e-09
-1.66237e-09
1.66765e-10
-7.03203e-10
1.12521e-10
6.8039e-10
-5.61317e-10
-2.31594e-10
6.28663e-10
-5.638e-10
-7.81722e-10
7.16859e-10
1.36277e-09
-8.62811e-10
-1.60011e-09
1.10015e-09
2.51188e-09
-1.32779e-09
-2.88179e-09
1.69769e-09
4.27389e-09
-1.95327e-09
-4.82564e-09
2.50501e-09
6.84494e-09
-2.71194e-09
-7.62372e-09
3.49072e-09
1.03924e-08
-3.545e-09
-1.1431e-08
4.58359e-09
1.5017e-08
-4.35728e-09
-1.63251e-08
5.66532e-09
2.07086e-08
-5.02427e-09
-2.22614e-08
6.57708e-09
2.73034e-08
-5.41167e-09
-2.9033e-08
7.14128e-09
3.44616e-08
-5.42798e-09
-3.62596e-08
7.22601e-09
4.16944e-08
-5.05481e-09
-4.34246e-08
6.78509e-09
4.8438e-08
-4.36252e-09
-4.99621e-08
5.88662e-09
5.41572e-08
-3.45967e-09
-5.53578e-08
4.66034e-09
5.84275e-08
-2.43504e-09
-5.92236e-08
3.23108e-09
6.09831e-08
-1.33745e-09
-6.13352e-08
1.68955e-09
6.17297e-08
-1.93318e-10
-6.16403e-08
1.03895e-10
6.07334e-08
9.61128e-10
-6.02395e-08
-1.45506e-09
5.81842e-08
2.06651e-09
-5.73474e-08
-2.90327e-09
5.43573e-08
3.04629e-09
-5.32532e-08
-4.15038e-09
4.95712e-08
3.82521e-09
-4.82812e-08
-5.11517e-09
4.41533e-08
4.36111e-09
-4.27558e-08
-5.75868e-09
3.84057e-08
4.65718e-09
-3.69672e-08
-6.09573e-09
3.2576e-08
4.7474e-09
-3.11483e-08
-6.17518e-09
2.68487e-08
4.6811e-09
-2.54678e-08
-6.062e-09
2.13536e-08
4.49991e-09
-2.00443e-08
-5.80923e-09
1.61717e-08
4.24609e-09
-1.49479e-08
-5.46991e-09
1.13524e-08
3.94438e-09
-1.02225e-08
-5.07429e-09
6.92014e-09
3.62264e-09
-5.88608e-09
-4.65669e-09
2.87687e-09
3.28778e-09
-1.93992e-09
-4.22473e-09
1.12161e-10
1.15673e-09
-1.03775e-09
-2.31142e-10
6.30397e-10
-1.17794e-09
-7.83895e-10
1.33144e-09
1.36684e-09
-1.81554e-09
-1.60504e-09
2.05373e-09
2.52046e-09
-2.81332e-09
-2.89198e-09
3.18484e-09
4.29087e-09
-4.17033e-09
-4.84559e-09
4.72505e-09
6.87713e-09
-5.84364e-09
-7.66117e-09
6.62768e-09
1.04511e-08
-7.72582e-09
-1.14986e-08
8.77338e-09
1.51201e-08
-9.63004e-09
-1.64428e-08
1.09527e-08
2.08827e-08
-1.1295e-08
-2.24582e-08
1.28705e-08
2.75841e-08
-1.24113e-08
-2.93461e-08
1.41733e-08
3.48884e-08
-1.27204e-08
-3.67279e-08
1.45599e-08
4.22985e-08
-1.20839e-08
-4.40747e-08
1.38601e-08
4.92254e-08
-1.05545e-08
-5.07916e-08
1.21207e-08
5.50984e-08
-8.32414e-09
-5.63285e-08
9.55425e-09
5.94621e-08
-5.63502e-09
-6.02701e-08
6.44296e-09
6.20402e-08
-2.71906e-09
-6.23882e-08
3.06708e-09
6.27529e-08
2.18984e-10
-6.26494e-08
-3.22409e-10
6.16924e-08
3.0017e-09
-6.11808e-08
-3.51326e-09
5.90715e-08
5.47647e-09
-5.82172e-08
-6.33084e-09
5.51738e-08
7.51944e-09
-5.40522e-08
-8.64102e-09
5.03155e-08
9.03632e-09
-4.9007e-08
-1.03449e-08
4.48203e-08
9.99798e-09
-4.34029e-08
-1.14154e-08
3.89914e-08
1.04535e-08
-3.75327e-08
-1.19122e-08
3.30809e-08
1.04962e-08
-3.16336e-08
-1.19435e-08
2.72756e-08
1.02391e-08
-2.58759e-08
-1.16388e-08
2.17045e-08
9.76945e-09
-2.03764e-08
-1.10975e-08
1.64463e-08
9.17259e-09
-1.52035e-08
-1.04154e-08
1.15499e-08
8.49423e-09
-1.0401e-08
-9.64313e-09
7.04135e-09
7.7875e-09
-5.98891e-09
-8.83994e-09
2.92534e-09
7.06202e-09
-1.9713e-09
-8.01606e-09
1.11302e-10
1.63163e-09
-1.51308e-09
-2.29853e-10
6.26959e-10
-1.79069e-09
-7.79563e-10
1.94329e-09
1.3592e-09
-2.76647e-09
-1.59607e-09
3.00334e-09
2.50651e-09
-4.29665e-09
-2.87606e-09
4.66619e-09
4.26778e-09
-6.38541e-09
-4.81977e-09
6.9374e-09
6.84188e-09
-8.97506e-09
-7.6225e-09
9.75567e-09
1.04014e-08
-1.19109e-08
-1.14452e-08
1.29548e-08
1.50559e-08
-1.49166e-08
-1.63755e-08
1.62361e-08
2.08087e-08
-1.75956e-08
-2.23832e-08
1.91701e-08
2.75117e-08
-1.94635e-08
-2.92766e-08
2.12284e-08
3.48362e-08
-2.00902e-08
-3.66841e-08
2.19381e-08
4.22891e-08
-1.92082e-08
-4.40795e-08
2.09985e-08
4.9281e-08
-1.68449e-08
-5.08662e-08
1.84301e-08
5.52369e-08
-1.3275e-08
-5.64897e-08
1.45278e-08
5.9697e-08
-8.90066e-09
-6.05302e-08
9.73386e-09
6.23803e-08
-4.1472e-09
-6.2755e-08
4.52195e-09
6.32019e-08
5.96287e-10
-6.31251e-08
-6.73022e-10
6.22475e-08
5.01359e-09
-6.17609e-08
-5.50026e-09
5.97209e-08
8.86619e-09
-5.88864e-08
-9.7007e-09
5.58919e-08
1.19898e-08
-5.47816e-08
-1.31001e-08
5.10628e-08
1.42696e-08
-4.97545e-08
-1.55779e-08
4.55526e-08
1.56803e-08
-4.41255e-08
-1.71073e-08
3.9674e-08
1.63094e-08
-3.81995e-08
-1.77839e-08
3.36947e-08
1.63105e-08
-3.22291e-08
-1.77762e-08
2.7813e-08
1.58651e-08
-2.63936e-08
-1.72845e-08
2.21602e-08
1.51109e-08
-2.08109e-08
-1.64601e-08
1.68128e-08
1.4176e-08
-1.55467e-08
-1.54421e-08
1.18191e-08
1.31241e-08
-1.06452e-08
-1.4298e-08
7.20841e-09
1.20318e-08
-6.1307e-09
-1.31095e-08
2.99157e-09
1.09107e-08
-2.01363e-09
-1.18886e-08
1.10121e-10
2.10451e-09
-1.98651e-09
-2.28125e-10
6.21999e-10
-2.39927e-09
-7.73312e-10
2.55058e-09
1.34818e-09
-3.71123e-09
-1.58313e-09
3.94618e-09
2.48633e-09
-5.77074e-09
-2.853e-09
6.13741e-09
4.23424e-09
-8.58767e-09
-4.78222e-09
9.13564e-09
6.79037e-09
-1.20903e-08
-7.56591e-09
1.28659e-08
1.03281e-08
-1.60783e-08
-1.13663e-08
1.71164e-08
1.49601e-08
-2.01878e-08
-1.62746e-08
2.15023e-08
2.06958e-08
-2.38904e-08
-2.2268e-08
2.54626e-08
2.7397e-08
-2.65279e-08
-2.91652e-08
2.8296e-08
3.47458e-08
-2.74972e-08
-3.66047e-08
2.93561e-08
4.22563e-08
-2.63967e-08
-4.40661e-08
2.82066e-08
4.93395e-08
-2.32236e-08
-5.09519e-08
2.48359e-08
5.54156e-08
-1.83325e-08
-5.67016e-08
1.96186e-08
6.0017e-08
-1.22854e-08
-6.08874e-08
1.31557e-08
6.28537e-08
-5.70036e-09
-6.3267e-08
6.11364e-09
6.38307e-08
8.50376e-10
-6.37913e-08
-8.89753e-10
6.30236e-08
6.91188e-09
-6.2571e-08
-7.36447e-09
6.06263e-08
1.21657e-08
-5.9819e-08
-1.2973e-08
5.68915e-08
1.6409e-08
-5.57967e-08
-1.75038e-08
5.21021e-08
1.95027e-08
-5.07938e-08
-2.0811e-08
4.65682e-08
2.14085e-08
-4.51266e-08
-2.28501e-08
4.06153e-08
2.22392e-08
-3.91178e-08
-2.37367e-08
3.45374e-08
2.2209e-08
-3.30463e-08
-2.37001e-08
2.8552e-08
2.15791e-08
-2.7107e-08
-2.30241e-08
2.27937e-08
2.05469e-08
-2.14173e-08
-2.19234e-08
1.7331e-08
1.92843e-08
-1.6034e-08
-2.05813e-08
1.22058e-08
1.78683e-08
-1.09972e-08
-1.90769e-08
7.45088e-09
1.63933e-08
-6.33669e-09
-1.75075e-08
3.08718e-09
1.48712e-08
-2.07403e-09
-1.58843e-08
1.0861e-10
2.57501e-09
-2.45762e-09
-2.26e-10
6.15744e-10
-3.00219e-09
-7.65423e-10
3.15187e-09
1.33425e-09
-4.64761e-09
-1.56677e-09
4.88013e-09
2.46082e-09
-7.23224e-09
-2.82384e-09
7.59526e-09
4.19179e-09
-1.07724e-08
-4.73467e-09
1.13152e-08
6.72509e-09
-1.51833e-08
-7.49414e-09
1.59524e-08
1.0235e-08
-2.02207e-08
-1.12659e-08
2.12516e-08
1.48381e-08
-2.54368e-08
-1.61461e-08
2.67448e-08
2.05516e-08
-3.01751e-08
-2.21207e-08
3.17443e-08
2.725e-08
-3.36066e-08
-2.90222e-08
3.53787e-08
3.46299e-08
-3.49534e-08
-3.6503e-08
3.68265e-08
4.22156e-08
-3.3673e-08
-4.40512e-08
3.55085e-08
4.94197e-08
-2.97248e-08
-5.10682e-08
3.13734e-08
5.56556e-08
-2.35396e-08
-5.69857e-08
2.48698e-08
6.04447e-08
-1.58365e-08
-6.1364e-08
1.67558e-08
6.34831e-08
-7.42495e-09
-6.39465e-08
7.88832e-09
6.46611e-08
9.38821e-10
-6.46699e-08
-9.29992e-10
6.4043e-08
8.66008e-09
-6.36338e-08
-9.06923e-09
6.18111e-08
1.53444e-08
-6.10394e-08
-1.61161e-08
5.82009e-08
2.07587e-08
-5.71272e-08
-2.18324e-08
5.34663e-08
2.47363e-08
-5.21581e-08
-2.60446e-08
4.78996e-08
2.72039e-08
-4.64373e-08
-2.86662e-08
4.18411e-08
2.82751e-08
-4.03109e-08
-2.98053e-08
3.56261e-08
2.82218e-08
-3.41011e-08
-2.97467e-08
2.9508e-08
2.74041e-08
-2.80323e-08
-2.88799e-08
2.36268e-08
2.60986e-08
-2.22195e-08
-2.75058e-08
1.80317e-08
2.45263e-08
-1.66979e-08
-2.58601e-08
1.27443e-08
2.27676e-08
-1.14903e-08
-2.40216e-08
7.79506e-09
2.09216e-08
-6.62971e-09
-2.2087e-08
3.22228e-09
1.89945e-08
-2.15815e-09
-2.00586e-08
1.06708e-10
3.04287e-09
-2.92616e-09
-2.23421e-10
6.082e-10
-3.59804e-09
-7.55907e-10
3.74575e-09
1.31745e-09
-5.57349e-09
-1.54705e-09
5.80309e-09
2.43002e-09
-8.67794e-09
-2.78863e-09
9.03655e-09
4.14048e-09
-1.2935e-08
-4.67721e-09
1.34717e-08
6.64609e-09
-1.82481e-08
-7.40727e-09
1.90093e-08
1.01222e-08
-2.43315e-08
-1.11442e-08
2.53535e-08
1.46897e-08
-3.06573e-08
-1.59897e-08
3.19572e-08
2.03756e-08
-3.64461e-08
-2.19408e-08
3.80113e-08
2.70697e-08
-4.0702e-08
-2.88466e-08
4.24789e-08
3.44869e-08
-4.24708e-08
-3.63774e-08
4.43613e-08
4.2165e-08
-4.10609e-08
-4.40324e-08
4.29283e-08
4.95191e-08
-3.63838e-08
-5.12127e-08
3.80774e-08
5.59542e-08
-2.89396e-08
-5.73396e-08
3.03249e-08
6.09775e-08
-1.96015e-08
-6.19579e-08
2.05818e-08
6.42667e-08
-9.36794e-09
-6.47922e-08
9.89344e-09
6.56929e-08
8.18438e-10
-6.57607e-08
-7.5062e-10
6.53062e-08
1.02196e-08
-6.49505e-08
-1.05752e-08
6.32803e-08
1.83667e-08
-6.25538e-08
-1.90932e-08
5.98325e-08
2.50127e-08
-5.8788e-08
-2.60572e-08
5.51781e-08
2.99671e-08
-5.38719e-08
-3.12732e-08
4.95726e-08
3.30922e-08
-4.80824e-08
-3.45823e-08
4.33683e-08
3.44591e-08
-4.17926e-08
-3.60348e-08
3.6965e-08
3.43849e-08
-3.53953e-08
-3.59546e-08
3.06816e-08
3.33574e-08
-2.91719e-08
-3.48671e-08
2.46747e-08
3.17723e-08
-2.32389e-08
-3.32081e-08
1.89555e-08
2.99183e-08
-1.75848e-08
-3.1289e-08
1.34913e-08
2.78638e-08
-1.21819e-08
-2.91732e-08
8.2903e-09
2.56826e-08
-7.05344e-09
-2.69195e-08
3.41687e-09
2.33545e-08
-2.27711e-09
-2.44943e-08
1.04429e-10
3.50811e-09
-3.39205e-09
-2.20497e-10
5.99175e-10
-4.18542e-09
-7.44516e-10
4.33076e-09
1.29733e-09
-6.4868e-09
-1.52343e-09
6.7129e-09
2.39313e-09
-1.01047e-08
-2.74645e-09
1.0458e-08
4.07893e-09
-1.5071e-08
-4.60822e-09
1.56003e-08
6.5511e-09
-2.1279e-08
-7.30274e-09
2.20306e-08
9.98608e-09
-2.84038e-08
-1.09972e-08
2.94149e-08
1.45097e-08
-3.58424e-08
-1.57995e-08
3.71323e-08
2.016e-08
-4.2699e-08
-2.17198e-08
4.42588e-08
2.68453e-08
-4.78159e-08
-2.86266e-08
4.95973e-08
3.43024e-08
-5.00612e-08
-3.62125e-08
5.19713e-08
4.20866e-08
-4.85841e-08
-4.3991e-08
5.04886e-08
4.96166e-08
-4.32353e-08
-5.13635e-08
4.49822e-08
5.62881e-08
-3.45759e-08
-5.77391e-08
3.60268e-08
6.15905e-08
-2.36283e-08
-6.26438e-08
2.46817e-08
6.51793e-08
-1.15774e-08
-6.57791e-08
1.21772e-08
6.69018e-08
4.45614e-10
-6.70396e-08
-3.0779e-10
6.67902e-08
1.15493e-08
-6.64986e-08
-1.18408e-08
6.50144e-08
2.1191e-08
-6.43449e-08
-2.18605e-08
6.17785e-08
2.91328e-08
-6.07754e-08
-3.01359e-08
5.72469e-08
3.51819e-08
-5.59488e-08
-3.648e-08
5.16066e-08
3.91036e-08
-5.00806e-08
-4.06296e-08
4.52045e-08
4.08507e-08
-4.35646e-08
-4.24906e-08
3.85362e-08
4.07479e-08
-3.69059e-08
-4.23782e-08
3.20436e-08
3.94479e-08
-3.04991e-08
-4.09924e-08
2.59335e-08
3.75433e-08
-2.44836e-08
-3.89932e-08
2.01561e-08
3.54427e-08
-1.87634e-08
-3.68354e-08
1.45527e-08
3.31909e-08
-1.31841e-08
-3.45596e-08
9.04265e-09
3.07712e-08
-7.70374e-09
-3.21101e-08
3.71709e-09
2.80747e-08
-2.45705e-09
-2.93347e-08
1.0173e-10
3.97096e-09
-3.85545e-09
-2.17232e-10
5.88907e-10
-4.76285e-09
-7.31545e-10
4.90549e-09
1.27442e-09
-7.38541e-09
-1.49653e-09
7.60753e-09
2.35109e-09
-1.15092e-08
-2.69836e-09
1.18565e-08
4.00873e-09
-1.71759e-08
-4.52953e-09
1.76967e-08
6.44263e-09
-2.42697e-08
-7.18335e-09
2.50104e-08
9.83037e-09
-3.24303e-08
-1.0829e-08
3.34289e-08
1.43032e-08
-4.09848e-08
-1.55812e-08
4.22628e-08
1.99118e-08
-4.89285e-08
-2.14648e-08
5.04815e-08
2.65851e-08
-5.49485e-08
-2.83711e-08
5.67345e-08
3.40865e-08
-5.77344e-08
-3.60188e-08
5.96667e-08
4.1992e-08
-5.62647e-08
-4.39394e-08
5.8212e-08
4.97262e-08
-5.03134e-08
-5.15351e-08
5.21223e-08
5.66732e-08
-4.04915e-08
-5.82009e-08
4.20192e-08
6.2302e-08
-2.7966e-08
-6.34407e-08
2.91047e-08
6.62419e-08
-1.41028e-08
-6.69285e-08
1.47894e-08
6.831e-08
-2.24657e-10
-6.85295e-08
4.44166e-10
6.85183e-08
1.26066e-08
-6.83014e-08
-1.28235e-08
6.70379e-08
2.37682e-08
-6.64384e-08
-2.43677e-08
6.40739e-08
3.30637e-08
-6.31294e-08
-3.40082e-08
5.97319e-08
4.03499e-08
-5.84537e-08
-4.16281e-08
5.40763e-08
4.52726e-08
-5.25051e-08
-4.68438e-08
4.74021e-08
4.75412e-08
-4.56672e-08
-4.92761e-08
4.03365e-08
4.73923e-08
-3.86157e-08
-4.91131e-08
3.35472e-08
4.56808e-08
-3.19647e-08
-4.72633e-08
2.7378e-08
4.3328e-08
-2.59478e-08
-4.47582e-08
2.17177e-08
4.09948e-08
-2.03544e-08
-4.2358e-08
1.61543e-08
3.87384e-08
-1.47472e-08
-4.01455e-08
1.03188e-08
3.63342e-08
-8.82936e-09
-3.78236e-08
4.25258e-09
3.33969e-08
-2.77444e-09
-3.48751e-08
9.85729e-11
4.43188e-09
-4.3168e-09
-2.13651e-10
5.77416e-10
-5.32895e-09
-7.17016e-10
5.46855e-09
1.24876e-09
-8.2673e-09
-1.4664e-09
8.48494e-09
2.30396e-09
-1.28883e-08
-2.64446e-09
1.32288e-08
3.92998e-09
-1.92451e-08
-4.44123e-09
1.97563e-08
6.3208e-09
-2.72145e-08
-7.04919e-09
2.79429e-08
9.65516e-09
-3.64039e-08
-1.06396e-08
3.73883e-08
1.40702e-08
-4.60771e-08
-1.53346e-08
4.73416e-08
1.96301e-08
-5.5129e-08
-2.11751e-08
5.66739e-08
2.62877e-08
-6.20996e-08
-2.80783e-08
6.38902e-08
3.38363e-08
-6.54999e-08
-3.57932e-08
6.74568e-08
4.18776e-08
-6.41247e-08
-4.38733e-08
6.61204e-08
4.98432e-08
-5.76521e-08
-5.17227e-08
5.95316e-08
5.71048e-08
-4.67303e-08
-5.87202e-08
4.83457e-08
6.31078e-08
-3.26641e-08
-6.43448e-08
3.3901e-08
6.7452e-08
-1.69952e-08
-6.82387e-08
1.7782e-08
6.99179e-08
-1.2389e-09
-7.02307e-08
1.5517e-09
7.04902e-08
1.335e-08
-7.03582e-08
-1.34821e-08
6.93497e-08
2.60445e-08
-6.88343e-08
-2.656e-08
6.67292e-08
3.67264e-08
-6.58673e-08
-3.75882e-08
6.26818e-08
4.54071e-08
-6.14475e-08
-4.66414e-08
5.70707e-08
5.16343e-08
-5.54473e-08
-5.32577e-08
5.00276e-08
5.46772e-08
-4.81488e-08
-5.6556e-08
4.23362e-08
5.44742e-08
-4.04662e-08
-5.63442e-08
3.50579e-08
5.20846e-08
-3.34188e-08
-5.37238e-08
2.88644e-08
4.89535e-08
-2.7512e-08
-5.03059e-08
2.36817e-08
4.62648e-08
-2.24806e-08
-4.74659e-08
1.87217e-08
4.43134e-08
-1.73959e-08
-4.56393e-08
1.28217e-08
4.25918e-08
-1.1123e-08
-4.42905e-08
5.43011e-09
3.98934e-08
-3.47678e-09
-4.18467e-08
9.49112e-11
4.89161e-09
-4.77674e-09
-2.09783e-10
5.64523e-10
-5.88231e-09
-7.007e-10
6.01848e-09
1.21995e-09
-9.13047e-09
-1.43258e-09
9.34309e-09
2.25103e-09
-1.42391e-08
-2.58389e-09
1.4572e-08
3.8414e-09
-2.12742e-08
-4.34187e-09
2.17747e-08
6.18352e-09
-3.01075e-08
-6.89792e-09
3.08219e-08
9.45712e-09
-4.03176e-08
-1.04252e-08
4.12857e-08
1.38054e-08
-5.11117e-08
-1.5054e-08
5.23602e-08
1.93075e-08
-6.1294e-08
-2.08422e-08
6.28288e-08
2.59418e-08
-6.92676e-08
-2.7736e-08
7.10618e-08
3.35365e-08
-7.33658e-08
-3.55193e-08
7.53486e-08
4.17235e-08
-7.21853e-08
-4.37722e-08
7.42339e-08
4.99443e-08
-6.52853e-08
-5.19024e-08
6.72433e-08
5.75567e-08
-5.33358e-08
-5.92704e-08
5.50495e-08
6.39802e-08
-3.77739e-08
-6.5328e-08
3.91218e-08
6.87821e-08
-2.03084e-08
-6.96826e-08
2.12089e-08
7.16996e-08
-2.64423e-09
-7.21175e-08
3.06222e-09
7.26793e-08
1.37402e-08
-7.2641e-08
-1.37785e-08
7.1918e-08
2.79639e-08
-7.14999e-08
-2.83819e-08
6.97198e-08
4.00125e-08
-6.89729e-08
-4.07594e-08
6.6129e-08
5.02277e-08
-6.49852e-08
-5.13716e-08
6.07096e-08
5.8204e-08
-5.90385e-08
-5.9875e-08
5.31916e-08
6.2493e-08
-5.10929e-08
-6.45917e-08
4.44855e-08
6.23e-08
-4.2353e-08
-6.44324e-08
3.6303e-08
5.87923e-08
-3.45406e-08
-6.05547e-08
2.99841e-08
5.41684e-08
-2.87697e-08
-5.53828e-08
2.58123e-08
5.05312e-08
-2.50385e-08
-5.1305e-08
2.28791e-08
4.90474e-08
-2.20939e-08
-4.98326e-08
1.85674e-08
4.96414e-08
-1.67981e-08
-5.14108e-08
8.90212e-09
4.9226e-08
-5.62652e-09
-5.25016e-08
9.06886e-11
5.35125e-09
-5.23628e-09
-2.05658e-10
5.50469e-10
-6.4215e-09
-6.82888e-10
6.55392e-09
1.18851e-09
-9.97291e-09
-1.39566e-09
1.01801e-08
2.19323e-09
-1.55583e-08
-2.51774e-09
1.58828e-08
3.74458e-09
-2.32587e-08
-4.23323e-09
2.37474e-08
6.03326e-09
-3.29426e-08
-6.73229e-09
3.36416e-08
9.23991e-09
-4.41636e-08
-1.019e-08
4.51137e-08
1.3514e-08
-5.60799e-08
-1.47447e-08
5.73106e-08
1.89502e-08
-6.74159e-08
-2.0473e-08
6.89387e-08
2.55551e-08
-7.64491e-08
-2.7352e-08
7.8246e-08
3.31958e-08
-8.1338e-08
-3.5206e-08
8.33482e-08
4.15398e-08
-8.04656e-08
-4.36464e-08
8.25722e-08
5.00414e-08
-7.32455e-08
-5.20864e-08
7.52905e-08
5.8043e-08
-6.03516e-08
-5.98662e-08
6.21747e-08
6.49356e-08
-4.33478e-08
-6.64078e-08
4.482e-08
7.02528e-08
-2.40989e-08
-7.12821e-08
2.51282e-08
7.36808e-08
-4.48896e-09
-7.42165e-08
5.02473e-09
7.51101e-08
1.37441e-08
-7.51724e-08
-1.36818e-08
7.47535e-08
2.94779e-08
-7.44421e-08
-2.97893e-08
7.30485e-08
4.27832e-08
-7.24543e-08
-4.33773e-08
7.01432e-08
5.45764e-08
-6.91733e-08
-5.55463e-08
6.52336e-08
6.49244e-08
-6.35525e-08
-6.66056e-08
5.7169e-08
7.13465e-08
-5.47368e-08
-7.37787e-08
4.68044e-08
7.14533e-08
-4.41989e-08
-7.40587e-08
3.68735e-08
6.62115e-08
-3.48118e-08
-6.82732e-08
2.99084e-08
5.88274e-08
-2.88008e-08
-5.9935e-08
2.69908e-08
5.26142e-08
-2.69166e-08
-5.26884e-08
2.83203e-08
5.00409e-08
-2.92978e-08
-4.90634e-08
3.27412e-08
5.50551e-08
-3.31275e-08
-5.46688e-08
2.30046e-08
6.76207e-08
-1.46823e-08
-7.59431e-08
8.58284e-11
5.81228e-09
-5.6968e-09
-2.01308e-10
5.35216e-10
-6.94516e-09
-6.63527e-10
7.07347e-09
1.15436e-09
-1.07927e-08
-1.35555e-09
1.09939e-08
2.1304e-09
-1.6843e-08
-2.4458e-09
1.71584e-08
3.63921e-09
-2.51944e-08
-4.11496e-09
2.56702e-08
5.86947e-09
-3.57141e-08
-6.55166e-09
3.63963e-08
9.00257e-09
-4.79348e-08
-9.93271e-09
4.88649e-08
1.31943e-08
-6.09736e-08
-1.44049e-08
6.21842e-08
1.85554e-08
-7.34866e-08
-2.00639e-08
7.49951e-08
2.51225e-08
-8.36398e-08
-2.69208e-08
8.5438e-08
3.28062e-08
-8.94215e-08
-3.48447e-08
9.14599e-08
4.13157e-08
-8.89846e-08
-4.34846e-08
9.11535e-08
5.01216e-08
-8.15659e-08
-5.22616e-08
8.37058e-08
5.85496e-08
-6.78216e-08
-6.0493e-08
6.97651e-08
6.59595e-08
-4.94396e-08
-6.75697e-08
5.10498e-08
7.18518e-08
-2.84281e-08
-7.30259e-08
2.96023e-08
7.58544e-08
-6.8253e-09
-7.65219e-08
7.49282e-09
7.77757e-08
1.33389e-08
-7.79424e-08
-1.31722e-08
7.78274e-08
3.05614e-08
-7.76228e-08
-3.0766e-08
7.66511e-08
4.48864e-08
-7.62452e-08
-4.52923e-08
7.47182e-08
5.80388e-08
-7.40629e-08
-5.8694e-08
7.09742e-08
7.15383e-08
-6.94087e-08
-7.31039e-08
6.24607e-08
8.17549e-08
-5.95377e-08
-8.46778e-08
4.94145e-08
8.29939e-08
-4.59595e-08
-8.6449e-08
3.61265e-08
7.53101e-08
-3.33854e-08
-7.80512e-08
2.71633e-08
6.33641e-08
-2.58956e-08
-6.46318e-08
2.43209e-08
5.21585e-08
-2.4527e-08
-5.19523e-08
2.8038e-08
4.254e-08
-3.07004e-08
-3.98776e-08
4.60934e-08
4.14061e-08
-5.3767e-08
-3.37326e-08
3.88866e-08
1.23266e-07
-1.50865e-08
-1.47236e-07
8.02434e-11
6.27669e-09
-6.16013e-09
-1.96803e-10
5.18803e-10
-7.45183e-09
-6.42654e-10
7.57568e-09
1.11756e-09
-1.15881e-08
-1.31234e-09
1.17828e-08
2.06267e-09
-1.80901e-08
-2.36824e-09
1.83957e-08
3.5255e-09
-2.70769e-08
-3.98729e-09
2.75387e-08
5.69244e-09
-3.84159e-08
-6.35632e-09
3.90798e-08
8.74537e-09
-5.16233e-08
-9.65366e-09
5.25316e-08
1.28462e-08
-6.57833e-08
-1.40344e-08
6.69714e-08
1.81224e-08
-7.94963e-08
-1.9614e-08
8.0988e-08
2.4642e-08
-9.08326e-08
-2.64396e-08
9.26302e-08
3.23636e-08
-9.76181e-08
-3.44304e-08
9.9685e-08
4.10447e-08
-9.77586e-08
-4.32799e-08
9.99938e-08
5.01772e-08
-9.02777e-08
-5.242e-08
9.25205e-08
5.90681e-08
-7.57889e-08
-6.11426e-08
7.78633e-08
6.70433e-08
-5.6104e-08
-6.88054e-08
5.7866e-08
7.35729e-08
-3.33631e-08
-7.49097e-08
3.46999e-08
7.82237e-08
-9.71171e-09
-7.90391e-08
1.05272e-08
8.06831e-08
1.25145e-08
-8.09545e-08
-1.22431e-08
8.11151e-08
3.12344e-08
-8.10023e-08
-3.13471e-08
8.04242e-08
4.62067e-08
-8.02185e-08
-4.64124e-08
7.97187e-08
5.99541e-08
-7.95795e-08
-6.00934e-08
7.83923e-08
7.72799e-08
-7.72752e-08
-7.83969e-08
6.98733e-08
9.44545e-08
-6.61997e-08
-9.8128e-08
5.22184e-08
9.89113e-08
-4.71106e-08
-1.04019e-07
3.19713e-08
8.82259e-08
-2.76428e-08
-9.25544e-08
1.76042e-08
6.94295e-08
-1.54288e-08
-7.16048e-08
1.14116e-08
5.245e-08
-1.06103e-08
-5.32513e-08
7.84037e-09
3.67163e-08
-6.76169e-09
-3.7795e-08
-8.41953e-10
3.93271e-08
1.66196e-08
-5.51053e-08
-4.70461e-08
1.82473e-07
4.02416e-08
-1.75668e-07
7.37943e-11
6.74712e-09
-6.62876e-09
-1.92149e-10
5.01267e-10
-7.94014e-09
-6.20302e-10
8.05917e-09
1.07821e-09
-1.2357e-08
-1.26614e-09
1.2545e-08
1.99018e-09
-1.92968e-08
-2.28521e-09
1.95919e-08
3.40365e-09
-2.89019e-08
-3.85043e-09
2.93487e-08
5.50242e-09
-4.10423e-08
-6.14654e-09
4.16864e-08
8.46857e-09
-5.52215e-08
-9.35307e-09
5.6106e-08
1.247e-08
-7.04996e-08
-1.36333e-08
7.16629e-08
1.76505e-08
-8.54346e-08
-1.91225e-08
8.69067e-08
2.41113e-08
-9.80194e-08
-2.59058e-08
9.98139e-08
3.18632e-08
-1.05928e-07
-3.3958e-08
1.08023e-07
4.07197e-08
-1.06803e-07
-4.30246e-08
1.09108e-07
5.01997e-08
-9.94126e-08
-5.25531e-08
1.01766e-07
5.95896e-08
-8.42962e-08
-6.18057e-08
8.65123e-08
6.81772e-08
-6.33967e-08
-7.01049e-08
6.53244e-08
7.54088e-08
-3.89777e-08
-7.69281e-08
4.0497e-08
8.07939e-08
-1.3219e-08
-8.17779e-08
1.4203e-08
8.38494e-08
1.1274e-08
-8.42234e-08
-1.08999e-08
8.4597e-08
3.15869e-08
-8.45399e-08
-3.16441e-08
8.42221e-08
4.67683e-08
-8.41737e-08
-4.68167e-08
8.46839e-08
5.95297e-08
-8.51841e-08
-5.90295e-08
8.73325e-08
8.03666e-08
-8.73281e-08
-8.03709e-08
8.00964e-08
1.10666e-07
-7.56739e-08
-1.15089e-07
5.59234e-08
1.23452e-07
-4.81855e-08
-1.3119e-07
2.6094e-08
1.09227e-07
-1.98992e-08
-1.15422e-07
5.41549e-09
8.09516e-08
-1.66623e-09
-8.47008e-08
-9.8172e-09
5.96911e-08
1.4067e-08
-6.39407e-08
-2.9227e-08
5.16275e-08
3.48022e-08
-5.72023e-08
-5.45033e-08
6.95097e-08
5.84513e-08
-7.34075e-08
-1.53319e-08
1.28526e-07
-1.52931e-08
-9.78986e-08
6.63309e-11
7.22702e-09
-7.10594e-09
-1.87414e-10
4.82711e-10
-8.40863e-09
-5.96579e-10
8.5225e-09
1.03651e-09
-1.3098e-08
-1.21718e-09
1.32786e-08
1.91332e-09
-2.04603e-08
-2.19713e-09
2.07441e-08
3.27429e-09
-3.06653e-08
-3.70507e-09
3.10961e-08
5.30035e-09
-4.35875e-08
-5.92335e-09
4.42105e-08
8.17346e-09
-5.87216e-08
-9.03233e-09
5.95804e-08
1.2067e-08
-7.51127e-08
-1.3203e-08
7.62488e-08
1.71413e-08
-9.12898e-08
-1.85908e-08
9.27393e-08
2.35311e-08
-1.05189e-07
-2.53196e-08
1.06978e-07
3.13038e-08
-1.14348e-07
-3.34257e-08
1.1647e-07
4.03376e-08
-1.16131e-07
-4.27155e-08
1.18509e-07
5.01856e-08
-1.09001e-07
-5.26575e-08
1.11473e-07
6.01112e-08
-9.33856e-08
-6.24795e-08
9.57539e-08
6.9358e-08
-7.13726e-08
-7.14652e-08
7.34797e-08
7.73581e-08
-4.53544e-08
-7.90819e-08
4.70783e-08
8.35813e-08
-1.744e-08
-8.47622e-08
1.86208e-08
8.73192e-08
9.62571e-09
-8.77947e-08
-9.1502e-09
8.82807e-08
3.18014e-08
-8.8217e-08
-3.18651e-08
8.79003e-08
4.68587e-08
-8.7884e-08
-4.6875e-08
8.81928e-08
5.73484e-08
-8.82879e-08
-5.72534e-08
9.33479e-08
7.5178e-08
-9.93974e-08
-6.91285e-08
1.15052e-07
1.23397e-07
-1.15289e-07
-1.23111e-07
9.28859e-08
1.53241e-07
-7.73064e-08
-7.08247e-08
4.23854e-08
9.73221e-08
-2.92663e-08
-7.78052e-17
6.30763e-09
2.84737e-08
-6.83422e-10
-3.35632e-16
1.10589e-15
3.15692e-14
-6.47987e-16
-2.97616e-14
-3.29844e-17
-3.53914e-16
1.20884e-17
8.89103e-16
2.95004e-16
-5.23082e-15
2.2224e-16
1.49006e-14
-1.783e-15
-2.48679e-15
-1.946e-16
2.51255e-15
5.76889e-11
7.72085e-09
-7.59579e-09
-1.82744e-10
4.63059e-10
-8.85585e-09
-5.7137e-10
8.96416e-09
9.92313e-10
-1.38092e-08
-1.16529e-09
1.39821e-08
1.83178e-09
-2.15778e-08
-2.10366e-09
2.18497e-08
3.13686e-09
-3.2363e-08
-3.55059e-09
3.27767e-08
5.08527e-09
-4.60457e-08
-5.68565e-09
4.66461e-08
7.85843e-09
-6.21157e-08
-8.68956e-09
6.29469e-08
1.16346e-08
-7.96122e-08
-1.27406e-08
8.07182e-08
1.65902e-08
-9.70489e-08
-1.80134e-08
9.84722e-08
2.28934e-08
-1.12329e-07
-2.46719e-08
1.14107e-07
3.06726e-08
-1.22873e-07
-3.28192e-08
1.2502e-07
3.988e-08
-1.25754e-07
-4.23328e-08
1.28206e-07
5.01127e-08
-1.19074e-07
-5.27102e-08
1.21671e-07
6.0608e-08
-1.03098e-07
-6.31382e-08
1.05628e-07
7.05557e-08
-8.00844e-08
-7.28546e-08
8.23833e-08
7.93874e-08
-5.25837e-08
-8.13393e-08
5.45355e-08
8.65719e-08
-2.25034e-08
-8.79895e-08
2.39211e-08
9.1133e-08
7.56726e-09
-9.17158e-08
-6.98445e-09
9.21749e-08
3.21752e-08
-9.20059e-08
-3.23442e-08
9.12273e-08
4.71816e-08
-9.09324e-08
-4.74765e-08
8.60068e-08
6.29449e-08
-8.04185e-08
-6.85331e-08
7.99966e-08
3.52962e-08
-5.53911e-08
-2.87526e-08
-6.08856e-11
4.66273e-11
1.55385e-12
-1.08964e-11
-1.99707e-14
4.55488e-15
-1.43249e-16
1.3391e-14
6.14263e-17
2.18296e-16
-9.2097e-17
-2.90513e-16
2.16672e-16
4.29253e-16
-2.79022e-16
-4.89035e-16
2.49767e-14
8.85354e-14
-3.14778e-14
7.93223e-15
3.3038e-17
4.83822e-15
-7.55532e-15
-8.15529e-15
-9.8235e-16
-1.19351e-15
1.94594e-15
-1.05441e-14
-6.8181e-15
8.11487e-14
-1.51557e-14
-3.73938e-14
4.76141e-11
8.23421e-09
-8.10368e-09
-1.78147e-10
4.42366e-10
-9.28027e-09
-5.44714e-10
9.38262e-09
9.45723e-10
-1.4489e-08
-1.1106e-09
1.46539e-08
1.74576e-09
-2.26466e-08
-2.00502e-09
2.29059e-08
2.99168e-09
-3.3991e-08
-3.38732e-09
3.43867e-08
4.85761e-09
-4.84115e-08
-5.4339e-09
4.89878e-08
7.52399e-09
-6.53961e-08
-8.32528e-09
6.61974e-08
1.11732e-08
-8.39875e-08
-1.22463e-08
8.50605e-08
1.59968e-08
-1.02698e-07
-1.73899e-08
1.04091e-07
2.21961e-08
-1.19423e-07
-2.39601e-08
1.21187e-07
2.99641e-08
-1.31492e-07
-3.21321e-08
1.3366e-07
3.93375e-08
-1.35679e-07
-4.18665e-08
1.38208e-07
4.99695e-08
-1.29661e-07
-5.26999e-08
1.32391e-07
6.10684e-08
-1.13472e-07
-6.37697e-08
1.16173e-07
7.17551e-08
-8.95803e-08
-7.42562e-08
9.20814e-08
8.14748e-08
-6.07613e-08
-8.36784e-08
6.29649e-08
8.97634e-08
-2.85932e-08
-9.14744e-08
3.03042e-08
9.53882e-08
5.04514e-09
-9.61093e-08
-4.32405e-09
9.63581e-08
3.31992e-08
-9.59041e-08
-3.36533e-08
9.33062e-08
4.97653e-08
-9.17568e-08
-5.13147e-08
7.99473e-08
9.60833e-08
-6.88222e-08
-1.07207e-07
-7.16309e-10
1.03508e-09
1.01764e-10
-4.24851e-10
-1.76682e-11
-1.34592e-11
1.65913e-11
1.72461e-11
-1.35281e-12
1.58177e-12
8.59414e-13
-1.07471e-12
-2.05632e-15
-1.42906e-15
2.30172e-14
-1.78429e-14
-1.85467e-14
1.60226e-12
-3.71529e-14
-1.52899e-12
1.54465e-13
1.17197e-12
-4.27053e-14
-4.35761e-14
3.06043e-16
7.78978e-15
-2.36356e-16
-1.2398e-16
1.31636e-16
5.0539e-15
-6.92729e-17
-6.05487e-15
-2.56855e-17
2.02793e-16
2.54671e-17
-3.36356e-16
3.58682e-11
8.77422e-09
-8.63629e-09
-1.73803e-10
4.20792e-10
-9.68026e-09
-5.16768e-10
9.77624e-09
8.97085e-10
-1.5136e-08
-1.05351e-09
1.52924e-08
1.65587e-09
-2.36641e-08
-1.90191e-09
2.39101e-08
2.83977e-09
-3.55454e-08
-3.2164e-09
3.59221e-08
4.61894e-09
-5.06791e-08
-5.16984e-09
5.123e-08
7.17243e-09
-6.85544e-08
-7.94198e-09
6.9324e-08
1.06859e-08
-8.82272e-08
-1.17233e-08
8.92646e-08
1.53649e-08
-1.08221e-07
-1.6724e-08
1.0958e-07
2.14425e-08
-1.26451e-07
-2.31869e-08
1.28196e-07
2.91797e-08
-1.40192e-07
-3.13652e-08
1.42378e-07
3.87091e-08
-1.45911e-07
-4.13153e-08
1.48517e-07
4.97555e-08
-1.40792e-07
-5.26269e-08
1.43663e-07
6.14954e-08
-1.24546e-07
-6.43775e-08
1.27428e-07
7.29569e-08
-9.98988e-08
-7.56683e-08
1.0261e-07
8.36094e-08
-6.99803e-08
-8.60864e-08
7.24573e-08
9.31588e-08
-3.59664e-08
-9.52404e-08
3.8048e-08
1.00254e-07
1.85993e-09
-1.01204e-07
-9.09892e-10
1.00974e-07
3.58753e-08
-9.98224e-08
-3.70267e-08
9.24016e-08
5.97339e-08
-8.89711e-08
-6.31644e-08
8.5616e-09
1.57349e-07
8.66141e-09
-6.19189e-08
-6.27979e-13
5.31423e-13
1.0429e-13
-1.32947e-13
5.39166e-13
3.1095e-13
1.51152e-14
1.03217e-12
-1.72274e-16
4.60265e-17
9.71468e-17
-2.15438e-18
-4.92846e-17
3.17449e-16
4.07661e-17
-3.39961e-16
-6.04951e-17
3.3543e-16
7.10806e-17
-5.71453e-16
-5.64834e-17
2.0392e-16
3.12469e-17
-2.04053e-16
-1.19751e-17
1.19889e-16
1.21024e-17
-1.17595e-16
-2.64022e-18
2.5403e-17
2.55709e-18
-2.79435e-17
-1.28063e-17
1.66406e-16
2.22882e-17
-8.7825e-17
2.21983e-11
9.34948e-09
-9.20183e-09
-1.69851e-10
3.98343e-10
-1.00541e-08
-4.87482e-10
1.01432e-08
8.46397e-10
-1.57486e-08
-9.94021e-10
1.58962e-08
1.5621e-09
-2.46277e-08
-1.79428e-09
2.48598e-08
2.68106e-09
-3.70223e-08
-3.03773e-09
3.7379e-08
4.36908e-09
-5.2843e-08
-4.89323e-09
5.33672e-08
6.80333e-09
-7.15827e-08
-7.53912e-09
7.23185e-08
1.01716e-08
-9.232e-08
-1.11705e-08
9.33188e-08
1.46923e-08
-1.13602e-07
-1.6013e-08
1.14922e-07
2.06279e-08
-1.33393e-07
-2.23467e-08
1.35112e-07
2.83097e-08
-1.48954e-07
-3.05071e-08
1.51152e-07
3.79786e-08
-1.56451e-07
-4.06614e-08
1.59134e-07
4.9451e-08
-1.52499e-07
-5.24715e-08
1.55519e-07
6.187e-08
-1.36357e-07
-6.49422e-08
1.39429e-07
7.41358e-08
-1.11066e-07
-7.70617e-08
1.13992e-07
8.57421e-08
-8.03172e-08
-8.85065e-08
8.30817e-08
9.66938e-08
-4.49589e-08
-9.92393e-08
4.75044e-08
1.05901e-07
-2.51219e-09
-1.07296e-07