/*--------------------------------*- C++ -*----------------------------------*\
| =========                 |                                                 |
| \\      /  F ield         | OpenFOAM: The Open Source CFD Toolbox           |
|  \\    /   O peration     | Version:  2.4.0                                 |
|   \\  /    A nd           | Web:      www.OpenFOAM.org                      |
|    \\/     M anipulation  |                                                 |
\*---------------------------------------------------------------------------*/
FoamFile
{
    version     2.0;
    format      ascii;
    class       volScalarField;
    location    "0.174";
    object      alpha.water;
}
// * * * * * * * * * * * * * * * * * * * * * * * * * * * * * * * * * * * * * //

dimensions      [0 0 0 0 0 0 0];

internalField   nonuniform List<scalar> 
10000
(
1.4076e-60
1.3614e-56
1.57179e-53
3.27936e-51
2.55779e-49
1.15731e-47
4.21126e-46
1.49271e-44
5.71285e-43
2.32618e-41
9.64387e-40
3.88504e-38
1.44926e-36
4.78817e-35
1.39055e-33
3.53805e-32
7.63038e-31
1.36516e-29
2.08832e-28
2.7354e-27
3.01742e-26
2.82993e-25
2.26732e-24
1.54794e-23
8.91333e-23
4.26896e-22
1.67722e-21
5.25528e-21
1.22504e-20
1.77701e-20
1.63503e-20
9.75985e-21
3.9119e-21
1.09796e-21
2.33906e-22
3.71499e-23
4.58866e-24
4.39893e-25
3.16811e-26
1.72082e-27
7.05436e-29
2.17738e-30
5.03741e-32
8.64758e-34
1.07367e-35
9.39986e-38
5.50189e-40
2.02248e-42
2.40997e-43
1.51561e-41
4.1805e-57
4.29814e-53
4.24175e-50
8.53664e-48
6.86236e-46
3.33377e-44
1.31671e-42
4.96913e-41
1.93945e-39
7.69185e-38
2.9819e-36
1.09053e-34
3.60737e-33
1.03747e-31
2.58554e-30
5.62248e-29
1.04181e-27
1.60629e-26
2.10949e-25
2.38193e-24
2.28141e-23
1.86879e-22
1.3175e-21
7.97842e-21
4.11338e-20
1.7875e-19
6.46555e-19
1.89009e-18
4.17352e-18
6.03707e-18
5.82826e-18
3.82857e-18
1.781e-18
6.29001e-19
1.79584e-19
4.09777e-20
7.70242e-21
1.18297e-21
1.45163e-22
1.39443e-23
1.02795e-24
5.65438e-26
2.23437e-27
6.10027e-29
1.09321e-30
1.16197e-32
6.03724e-35
4.70464e-37
1.75243e-35
6.64535e-34
3.79446e-54
3.98938e-50
3.43945e-47
6.6225e-45
5.42963e-43
2.79245e-41
1.17035e-39
4.56881e-38
1.7628e-36
6.63381e-35
2.35664e-33
7.70536e-32
2.23741e-30
5.57586e-29
1.19531e-27
2.22953e-26
3.56182e-25
4.75191e-24
5.38118e-23
5.24788e-22
4.3692e-21
3.1304e-20
1.94749e-19
1.05145e-18
4.89198e-18
1.94622e-17
6.53199e-17
1.79169e-16
3.76373e-16
5.40111e-16
5.39478e-16
3.82166e-16
1.97459e-16
8.10994e-17
2.76737e-17
7.83571e-18
1.86391e-18
3.68039e-19
5.90112e-20
7.51098e-21
7.4021e-22
5.45075e-23
2.83227e-24
9.67128e-26
1.96395e-27
2.07341e-29
8.96998e-32
4.21035e-32
1.38082e-30
3.35746e-29
1.93405e-51
1.88656e-47
1.40317e-44
2.56353e-42
2.11799e-40
1.13594e-38
4.94597e-37
1.94447e-35
7.22907e-34
2.53255e-32
8.14746e-31
2.36329e-29
6.00257e-28
1.29685e-26
2.40116e-25
3.8579e-24
5.33039e-23
6.1768e-22
6.06032e-21
5.12036e-20
3.71396e-19
2.33313e-18
1.2844e-17
6.20619e-17
2.6196e-16
9.59099e-16
2.99888e-15
7.7393e-15
1.54958e-14
2.19617e-14
2.24431e-14
1.68636e-14
9.44897e-15
4.32477e-15
1.67275e-15
5.49342e-16
1.53718e-16
3.60222e-17
6.91543e-18
1.06318e-18
1.27281e-19
1.14022e-20
7.16038e-22
2.84424e-23
6.14228e-25
6.05213e-27
3.0484e-29
2.02278e-28
4.7093e-27
8.25709e-26
7.21192e-49
5.61389e-45
3.5838e-42
6.17925e-40
5.11563e-38
2.82025e-36
1.24623e-34
4.80105e-33
1.6788e-31
5.37805e-30
1.55059e-28
3.96494e-27
8.7871e-26
1.64809e-24
2.64469e-23
3.6737e-22
4.40111e-21
4.44341e-20
3.79419e-19
2.78834e-18
1.76724e-17
9.76075e-17
4.76521e-16
2.06547e-15
7.92989e-15
2.67742e-14
7.80994e-14
1.89859e-13
3.62777e-13
5.06139e-13
5.25041e-13
4.12945e-13
2.47631e-13
1.23161e-13
5.24901e-14
1.92982e-14
6.11195e-15
1.6345e-15
3.60818e-16
6.42363e-17
8.95906e-18
9.38179e-19
6.88318e-20
3.1299e-21
7.23721e-23
6.8337e-25
9.29544e-27
1.46224e-25
2.63417e-24
3.60967e-23
2.04619e-46
1.19217e-42
6.52378e-40
1.06134e-37
8.74464e-36
4.86414e-34
2.12273e-32
7.79326e-31
2.50608e-29
7.21846e-28
1.84792e-26
4.14481e-25
8.00441e-24
1.30497e-22
1.81885e-21
2.18968e-20
2.27837e-19
2.00744e-18
1.49733e-17
9.60559e-17
5.33464e-16
2.59739e-15
1.12678e-14
4.38667e-14
1.53248e-13
4.76971e-13
1.29699e-12
2.97058e-12
5.42351e-12
7.4351e-12
7.78706e-12
6.34911e-12
4.03753e-12
2.1488e-12
9.93002e-13
4.00935e-13
1.40855e-13
4.21488e-14
1.04924e-14
2.12115e-15
3.38107e-16
4.07063e-17
3.45213e-18
1.80906e-19
4.6449e-21
4.59952e-23
1.76509e-24
2.97136e-23
4.42295e-22
5.01733e-21
4.56371e-44
1.95962e-40
9.22574e-38
1.41532e-35
1.14644e-33
6.27723e-32
2.62758e-30
8.96426e-29
2.60001e-27
6.63389e-26
1.49566e-24
2.93321e-23
4.93645e-22
7.00691e-21
8.49339e-20
8.87175e-19
8.02136e-18
6.16806e-17
4.02601e-16
2.26035e-15
1.10221e-14
4.74078e-14
1.83096e-13
6.40848e-13
2.03531e-12
5.82667e-12
1.47359e-11
3.1782e-11
5.55271e-11
7.47659e-11
7.87981e-11
6.61168e-11
4.43017e-11
2.50145e-11
1.24124e-11
5.4423e-12
2.09938e-12
6.96949e-13
1.94195e-13
4.42805e-14
8.01976e-15
1.10647e-15
1.08732e-16
6.7132e-18
2.04051e-19
2.33003e-21
1.53572e-22
2.38617e-21
3.08646e-20
3.02895e-19
8.24761e-42
2.61465e-38
1.06528e-35
1.53382e-33
1.19855e-31
6.28083e-30
2.45594e-28
7.63134e-27
1.96723e-25
4.38834e-24
8.64392e-23
1.48007e-21
2.17626e-20
2.69773e-19
2.84957e-18
2.58573e-17
2.03078e-16
1.36121e-15
7.7725e-15
3.82381e-14
1.63875e-13
6.2319e-13
2.14551e-12
6.75759e-12
1.94897e-11
5.11563e-11
1.19926e-10
2.43367e-10
4.07614e-10
5.39621e-10
5.71392e-10
4.90478e-10
3.43992e-10
2.05331e-10
1.08915e-10
5.15822e-11
2.17662e-11
8.0025e-12
2.49499e-12
6.42149e-13
1.32388e-13
2.10066e-14
2.41056e-15
1.78813e-16
6.81999e-18
9.6355e-20
6.72362e-21
9.34763e-20
1.09378e-18
9.61482e-18
1.21637e-39
2.89066e-36
1.0246e-33
1.37076e-31
1.01066e-29
4.93876e-28
1.76779e-26
4.92985e-25
1.11797e-23
2.15585e-22
3.67616e-21
5.49176e-20
7.07811e-19
7.70237e-18
7.12152e-17
5.63432e-16
3.84438e-15
2.24351e-14
1.11866e-13
4.82182e-13
1.81617e-12
6.10431e-12
1.87344e-11
5.31122e-11
1.39026e-10
3.33567e-10
7.22035e-10
1.37798e-09
2.21549e-09
2.89314e-09
3.07553e-09
2.68664e-09
1.96155e-09
1.2378e-09
7.00999e-10
3.57915e-10
1.65082e-10
6.73133e-11
2.35687e-11
6.8838e-12
1.62626e-12
2.9912e-13
4.05093e-14
3.66865e-15
1.81343e-16
3.39545e-18
1.72981e-19
2.05436e-18
2.2504e-17
1.82388e-16
1.46139e-37
2.64886e-34
8.20741e-32
1.00931e-29
6.87562e-28
3.06938e-26
9.91261e-25
2.45909e-23
4.87959e-22
8.08871e-21
1.18292e-19
1.53588e-18
1.73393e-17
1.66256e-16
1.35451e-15
9.40178e-15
5.59011e-14
2.83995e-13
1.23462e-12
4.65573e-12
1.53996e-11
4.57055e-11
1.24933e-10
3.18493e-10
7.56212e-10
1.65548e-09
3.29681e-09
5.92507e-09
9.12572e-09
1.1898e-08
1.26696e-08
1.11767e-08
8.46266e-09
5.66272e-09
3.42453e-09
1.88386e-09
9.5023e-10
4.31131e-10
1.70551e-10
5.69744e-11
1.55607e-11
3.34885e-12
5.40451e-13
6.0338e-14
3.955e-15
1.05686e-16
3.19485e-18
2.79329e-17
2.95482e-16
2.26377e-15
1.40432e-35
1.99279e-32
5.41749e-30
6.03483e-28
3.7207e-26
1.49818e-24
4.32643e-23
9.50371e-22
1.65464e-20
2.37128e-19
2.96295e-18
3.32185e-17
3.27122e-16
2.76279e-15
1.98786e-14
1.21869e-13
6.35311e-13
2.81715e-12
1.06794e-11
3.51642e-11
1.0199e-10
2.66826e-10
6.4908e-10
1.48633e-09
3.1966e-09
6.37991e-09
1.1656e-08
1.98663e-08
2.89988e-08
3.99632e-08
4.23649e-08
3.66813e-08
2.84526e-08
2.02305e-08
1.30605e-08
7.73241e-09
4.26077e-09
2.15454e-09
9.67812e-10
3.72554e-10
1.18662e-10
3.01529e-11
5.84683e-12
8.09015e-13
7.03901e-14
2.84059e-15
5.55487e-17
2.51846e-16
2.64901e-15
1.96156e-14
1.06185e-33
1.22462e-30
2.9279e-28
2.91255e-26
1.61148e-24
5.79297e-23
1.48471e-21
2.87668e-20
4.39972e-19
5.50712e-18
5.8985e-17
5.68297e-16
4.865e-15
3.604e-14
2.28579e-13
1.23973e-12
5.70752e-12
2.22218e-11
7.36859e-11
2.11676e-10
5.37197e-10
1.23623e-09
2.67275e-09
5.49571e-09
1.06978e-08
1.94529e-08
3.24775e-08
5.35325e-08
7.28339e-08
1.3174e-07
1.36709e-07
1.06152e-07
7.8895e-08
5.82579e-08
3.97437e-08
2.51462e-08
1.5056e-08
8.47494e-09
4.33564e-09
1.93397e-09
7.23405e-10
2.18661e-10
5.12756e-11
8.82032e-12
1.00922e-12
6.07224e-14
1.19632e-15
1.59198e-15
1.70971e-14
1.24955e-13
6.3651e-32
6.10758e-29
1.26696e-26
1.11014e-24
5.45411e-23
1.74232e-21
3.94886e-20
6.74269e-19
9.0749e-18
9.98465e-17
9.32482e-16
7.77451e-15
5.80172e-14
3.75654e-13
2.09409e-12
1.00258e-11
4.08841e-11
1.40938e-10
4.11734e-10
1.03465e-09
2.29047e-09
4.62933e-09
8.87711e-09
1.63846e-08
2.88615e-08
4.78153e-08
7.21726e-08
1.18897e-07
1.5206e-07
5.41772e-07
4.17422e-07
3.32159e-07
2.04691e-07
1.4283e-07
9.83723e-08
6.4905e-08
4.17131e-08
2.60276e-08
1.51774e-08
7.87223e-09
3.47427e-09
1.25533e-09
3.57409e-10
7.6456e-11
1.13813e-11
9.99636e-13
3.19796e-14
7.54551e-15
8.27832e-14
6.09517e-13
2.95147e-30
2.36396e-27
4.23155e-25
3.268e-23
1.42669e-21
4.04858e-20
8.12938e-19
1.22662e-17
1.45897e-16
1.41879e-15
1.16658e-14
8.45816e-14
5.5316e-13
3.1628e-12
1.54981e-11
6.53216e-11
2.36117e-10
7.25902e-10
1.89013e-09
4.18621e-09
8.07427e-09
1.43059e-08
2.42955e-08
4.01364e-08
6.38877e-08
9.61205e-08
1.27433e-07
2.06195e-07
2.46436e-07
2.24869e-06
3.53403e-06
1.2913e-06
5.53842e-07
3.17377e-07
2.03187e-07
1.32933e-07
8.94529e-08
6.13809e-08
4.07866e-08
2.46383e-08
1.28527e-08
5.56159e-09
1.92517e-09
5.11511e-10
9.81291e-11
1.20675e-11
6.72193e-13
3.296e-14
3.11514e-13
2.36048e-12
1.02585e-28
6.86151e-26
1.0684e-23
7.32527e-22
2.85236e-20
7.22472e-19
1.29408e-17
1.73792e-16
1.83652e-15
1.58629e-14
1.15635e-13
7.35697e-13
4.22578e-12
2.14107e-11
9.31332e-11
3.47081e-10
1.11285e-09
3.0746e-09
7.26032e-09
1.42737e-08
2.41662e-08
3.73953e-08
5.64564e-08
8.25233e-08
1.18015e-07
1.5889e-07
1.74998e-07
1.75019e-07
3.92479e-06
1.25816e-05
1.25803e-05
1.10481e-05
1.58725e-06
5.85253e-07
3.42342e-07
2.15224e-07
1.48003e-07
1.10347e-07
8.32849e-08
5.85048e-08
3.60041e-08
1.86206e-08
7.81968e-09
2.57101e-09
6.29555e-10
1.05065e-10
9.57161e-12
2.80432e-13
9.38179e-13
7.48346e-12
2.591e-27
1.47495e-24
2.02698e-22
1.24444e-20
4.36702e-19
9.96226e-18
1.60059e-16
1.92243e-15
1.8165e-14
1.40201e-13
9.13174e-13
5.15536e-12
2.60608e-11
1.17067e-10
4.53913e-10
1.51202e-09
4.33987e-09
1.08782e-08
2.38637e-08
4.17058e-08
6.35731e-08
8.44427e-08
1.16261e-07
1.45713e-07
1.84646e-07
2.12549e-07
1.93658e-07
1.75093e-07
1.09655e-05
1.2578e-05
1.25735e-05
1.25713e-05
7.41748e-06
3.158e-07
3.00971e-07
2.36126e-07
1.87571e-07
1.55952e-07
1.32649e-07
1.06907e-07
7.66975e-08
4.69494e-08
2.37131e-08
9.55713e-09
2.94632e-09
6.48837e-10
8.79522e-11
4.45804e-12
2.33865e-12
1.99289e-11
4.6966e-26
2.32556e-23
2.86781e-21
1.59579e-19
5.07909e-18
1.04946e-16
1.52781e-15
1.6617e-14
1.41127e-13
9.8095e-13
5.75107e-12
2.91087e-11
1.30265e-10
5.19716e-10
1.80483e-09
5.41689e-09
1.41381e-08
3.26603e-08
6.90836e-08
1.0945e-07
1.52855e-07
1.64463e-07
2.21883e-07
2.24668e-07
2.4601e-07
2.17864e-07
2.09894e-07
2.08561e-07
2.45046e-06
1.174e-05
1.25732e-05
1.09547e-05
2.53023e-06
2.87457e-07
2.76803e-07
6.26988e-07
2.07212e-07
1.99082e-07
1.8423e-07
1.6229e-07
1.30479e-07
9.19267e-08
5.47126e-08
2.65666e-08
1.01214e-08
2.8611e-09
5.3903e-10
4.94259e-11
5.42408e-12
4.55906e-11
6.08492e-25
2.67972e-22
2.99639e-20
1.51785e-18
4.39593e-17
8.28558e-16
1.10432e-14
1.1017e-13
8.58399e-13
5.41492e-12
2.87991e-11
1.31785e-10
5.28035e-10
1.88261e-09
5.89173e-09
1.60315e-08
3.83744e-08
8.38335e-08
1.78332e-07
3.1229e-07
2.46646e-07
2.79553e-07
3.94795e-07
3.00014e-07
2.69949e-07
3.98992e-07
2.22761e-07
2.62544e-07
2.64941e-07
1.3058e-06
2.68997e-06
6.06103e-07
3.01082e-07
2.88064e-07
2.76488e-07
2.56892e-07
2.50672e-07
2.4281e-07
2.31125e-07
2.13185e-07
1.85124e-07
1.45606e-07
9.96038e-08
5.70071e-08
2.62496e-08
9.25933e-09
2.30332e-09
3.29992e-10
1.97755e-11
9.10451e-11
5.63729e-24
2.2415e-21
2.28804e-19
1.05998e-17
2.81724e-16
4.8928e-15
6.02766e-14
5.57265e-13
4.02702e-12
2.34913e-11
1.14319e-10
4.78037e-10
1.73921e-09
5.59054e-09
1.57882e-08
3.88094e-08
8.49184e-08
1.79641e-07
3.1797e-07
1.11702e-06
2.75102e-06
5.61412e-07
6.20624e-07
3.35956e-07
2.8932e-07
2.79752e-07
5.1697e-07
2.72894e-07
2.7842e-07
2.79112e-07
2.79759e-07
2.86318e-07
2.91979e-07
2.92203e-07
2.85338e-07
2.69106e-07
2.69089e-07
2.68923e-07
2.63586e-07
2.51342e-07
2.30005e-07
1.96275e-07
1.50176e-07
9.88164e-08
5.3658e-08
2.29596e-08
7.22977e-09
1.45153e-09
1.2152e-10
1.60859e-10
3.76253e-23
1.36655e-20
1.28304e-18
5.48741e-17
1.35239e-15
2.18517e-14
2.51115e-13
2.17016e-12
1.46856e-11
8.02067e-11
3.62939e-10
1.40218e-09
4.67666e-09
1.35471e-08
3.40503e-08
7.4027e-08
1.45008e-07
2.83807e-07
2.495e-06
9.05571e-06
9.34213e-06
6.9837e-06
8.5594e-07
3.32457e-07
2.82661e-07
2.84911e-07
2.85131e-07
2.86628e-07
2.87807e-07
2.9083e-07
3.00851e-07
3.12211e-07
3.23135e-07
3.39394e-07
2.86471e-07
6.16904e-07
2.79077e-07
2.86999e-07
2.85864e-07
2.78878e-07
2.63991e-07
2.38011e-07
1.97883e-07
1.45624e-07
9.08439e-08
4.58834e-08
1.76653e-08
4.63799e-09
6.13087e-10
2.58591e-10
1.83857e-22
6.1675e-20
5.37908e-18
2.14767e-16
4.95915e-15
7.52789e-14
8.143e-13
6.63197e-12
4.23097e-11
2.1775e-10
9.23913e-10
3.2949e-09
1.00125e-08
2.59004e-08
5.70943e-08
1.07622e-07
1.83381e-07
3.72317e-07
7.66954e-06
9.3385e-06
9.34453e-06
9.34499e-06
1.34588e-06
3.57064e-07
2.90638e-07
2.98796e-07
3.04677e-07
2.93957e-07
2.96111e-07
3.02767e-07
3.2175e-07
3.41316e-07
3.69004e-07
3.17318e-07
3.0024e-07
3.21935e-07
3.17848e-07
3.26498e-07
3.11852e-07
3.00669e-07
2.89002e-07
2.70154e-07
2.38335e-07
1.91119e-07
1.33482e-07
7.75596e-08
3.5461e-08
1.16398e-08
2.21378e-09
4.30328e-10
6.70312e-22
2.09866e-19
1.71767e-17
6.45861e-16
1.4075e-14
2.01858e-13
2.063e-12
1.5858e-11
9.52754e-11
4.60196e-10
1.82403e-09
6.02033e-09
1.67902e-08
3.9638e-08
7.95909e-08
1.38572e-07
2.25604e-07
3.97947e-07
4.34901e-06
8.22135e-06
7.79732e-06
2.6867e-06
5.74291e-07
3.16154e-07
3.10626e-07
3.1817e-07
3.18873e-07
2.9564e-07
6.2997e-07
3.1576e-07
3.40789e-07
3.56427e-07
3.82349e-07
1.8399e-06
3.69927e-06
3.29076e-06
1.81581e-06
5.15908e-07
4.42516e-07
3.58778e-07
3.16397e-07
2.93734e-07
2.68306e-07
2.29267e-07
1.75374e-07
1.14731e-07
6.0883e-08
2.42104e-08
6.12428e-09
9.30212e-10
1.87338e-21
5.5465e-19
4.31208e-17
1.54373e-15
3.20661e-14
4.38399e-13
4.26824e-12
3.12085e-11
1.77951e-10
8.13305e-10
3.0399e-09
9.4154e-09
2.44363e-08
5.35242e-08
9.93806e-08
1.57456e-07
2.15143e-07
2.69505e-07
2.69683e-07
2.7003e-07
2.70324e-07
2.75898e-07
3.44101e-07
3.42392e-07
3.41045e-07
3.35794e-07
3.28846e-07
3.26919e-07
3.2915e-07
3.63995e-07
3.41811e-07
1.4314e-06
4.88511e-06
7.90948e-06
7.91209e-06
7.91539e-06
7.9165e-06
5.3621e-06
6.53775e-07
4.4376e-07
3.89824e-07
3.32055e-07
2.95054e-07
2.58642e-07
2.10742e-07
1.51863e-07
9.1777e-08
4.32383e-08
1.38624e-08
2.42355e-09
4.11109e-21
1.16887e-18
8.75308e-17
3.02156e-15
6.05239e-14
7.97458e-13
7.47342e-12
5.25049e-11
2.86959e-10
1.25307e-09
4.45804e-09
1.31078e-08
3.22522e-08
6.77228e-08
1.22235e-07
1.88767e-07
2.46891e-07
2.85727e-07
3.19008e-07
2.99799e-07
3.30971e-07
3.77613e-07
4.06824e-07
4.49139e-07
3.72089e-07
3.35881e-07
3.29406e-07
3.36431e-07
4.1433e-07
4.42851e-07
3.54981e-07
2.51088e-06
7.02137e-06
7.8914e-06
7.87957e-06
7.83666e-06
7.91872e-06
7.91701e-06
7.91521e-06
2.48132e-06
3.60344e-07
3.52868e-07
3.12835e-07
2.72867e-07
2.29552e-07
1.78868e-07
1.21875e-07
6.73042e-08
2.66461e-08
6.05024e-09
7.19401e-21
1.99975e-18
1.46535e-16
4.9471e-15
9.68081e-14
1.24441e-12
1.13615e-11
7.76661e-11
4.1272e-10
1.75297e-09
6.07964e-09
1.75057e-08
4.22529e-08
8.57723e-08
1.45344e-07
2.04223e-07
2.43445e-07
2.60127e-07
5.76269e-07
3.12497e-07
3.22884e-07
1.21998e-06
1.79562e-06
7.04935e-07
3.84467e-07
4.66109e-07
3.2032e-07
3.29919e-07
4.06465e-07
1.36278e-06
8.70273e-07
4.02326e-07
3.87674e-07
1.19323e-06
1.4605e-06
1.69947e-06
3.90851e-06
7.90533e-06
7.91318e-06
7.88842e-06
1.37416e-06
2.94018e-07
2.91919e-07
2.51475e-07
2.12655e-07
1.77163e-07
1.37205e-07
8.97494e-08
4.36862e-08
1.29381e-08
1.01044e-20
2.80355e-18
2.04609e-16
6.86148e-15
1.33007e-13
1.68925e-12
1.5202e-11
1.02225e-10
5.33464e-10
2.2217e-09
7.54011e-09
2.11667e-08
4.95291e-08
9.65073e-08
1.56638e-07
2.13414e-07
2.52701e-07
2.75448e-07
2.82933e-07
2.98893e-07
7.9526e-06
1.84641e-05
2.17941e-05
1.17944e-05
1.50193e-06
3.11755e-07
3.19318e-07
5.8764e-07
4.30941e-07
1.36327e-06
4.89815e-07
5.40778e-07
3.93841e-07
3.7552e-07
3.42223e-07
3.33767e-07
3.32152e-07
3.32134e-07
4.9704e-06
5.35517e-06
1.1469e-06
2.82193e-07
2.73621e-07
2.11114e-07
1.46725e-07
1.28543e-07
1.17712e-07
9.97117e-08
6.15546e-08
2.34322e-08
1.13652e-20
3.22435e-18
2.39067e-16
8.09888e-15
1.57812e-13
2.00594e-12
1.7998e-11
1.20263e-10
6.21793e-10
2.5582e-09
8.5482e-09
2.35243e-08
5.37164e-08
1.01916e-07
1.61147e-07
2.16599e-07
2.60463e-07
3.02526e-07
2.98955e-07
7.22176e-06
2.22927e-05
2.22871e-05
2.23012e-05
2.23066e-05
6.01637e-06
3.11675e-07
3.17521e-07
3.17797e-07
3.88159e-07
7.59066e-07
6.15633e-07
1.57345e-06
1.47275e-06
7.57236e-07
4.03043e-07
3.50505e-07
3.38159e-07
3.33787e-07
3.31898e-07
3.33714e-07
3.8622e-07
3.42523e-07
2.82596e-07
1.68704e-07
8.07581e-08
7.88683e-08
7.74079e-08
7.66332e-08
7.40011e-08
3.62703e-08
1.01351e-20
3.0274e-18
2.3331e-16
8.13537e-15
1.61876e-13
2.08717e-12
1.88879e-11
1.26665e-10
6.54374e-10
2.67905e-09
8.87127e-09
2.40874e-08
5.40438e-08
1.00597e-07
1.56651e-07
2.10491e-07
2.61568e-07
2.97575e-07
1.40588e-06
1.98552e-05
2.22794e-05
2.22844e-05
2.22897e-05
2.23086e-05
2.88075e-06
3.11668e-07
3.15572e-07
3.23252e-07
3.4105e-07
3.51661e-07
1.10485e-06
1.58182e-06
1.57001e-06
1.19703e-06
3.68244e-07
3.50378e-07
3.45188e-07
3.46099e-07
3.41438e-07
5.72115e-07
5.74016e-07
4.05073e-07
2.9012e-07
1.67164e-07
9.52184e-06
3.97707e-05
1.49933e-05
6.73992e-08
5.65142e-08
4.86129e-08
7.02671e-21
2.29576e-18
1.89071e-16
6.93479e-15
1.43423e-13
1.90384e-12
1.75973e-11
1.19724e-10
6.2385e-10
2.56323e-09
8.48316e-09
2.29594e-08
5.13565e-08
9.58483e-08
1.51537e-07
2.09463e-07
2.68751e-07
3.96527e-07
1.81866e-06
2.22691e-05
2.22765e-05
2.22805e-05
2.22906e-05
1.37108e-05
3.49138e-07
3.11745e-07
3.10778e-07
3.129e-07
3.24317e-07
3.47324e-07
4.10296e-07
7.88814e-07
6.99498e-07
3.72679e-07
3.7028e-07
3.62821e-07
3.60973e-07
3.8056e-07
3.75557e-07
6.82525e-07
8.14495e-07
4.5746e-07
2.90176e-07
1.06621e-05
5.38165e-05
5.61487e-05
5.62228e-05
1.08374e-05
4.59547e-08
3.23104e-08
3.65252e-21
1.37879e-18
1.25815e-16
4.98477e-15
1.09421e-13
1.52135e-12
1.45741e-11
1.01874e-10
5.41402e-10
2.25499e-09
7.53031e-09
2.05098e-08
4.61804e-08
8.7106e-08
1.40237e-07
1.99749e-07
2.67195e-07
3.74408e-07
1.09547e-06
1.88413e-05
2.22794e-05
2.22155e-05
1.18983e-05
7.74234e-07
3.77609e-07
3.11421e-07
3.07123e-07
3.0851e-07
3.21794e-07
3.40473e-07
3.5865e-07
3.51766e-07
3.82818e-07
3.91499e-07
3.75533e-07
3.69056e-07
3.69627e-07
4.74373e-07
5.49067e-07
2.01953e-06
4.47955e-06
3.62207e-06
2.97926e-07
7.49136e-06
5.61471e-05
5.62177e-05
5.62624e-05
4.63383e-05
2.75612e-06
3.5681e-08
1.35628e-21
6.34353e-19
6.73746e-17
2.98515e-15
7.13708e-14
1.06116e-12
1.07218e-11
7.81842e-11
4.29589e-10
1.83646e-09
6.2593e-09
1.73395e-08
3.96787e-08
7.62618e-08
1.26095e-07
1.86169e-07
2.58124e-07
3.36392e-07
7.67842e-07
1.19432e-06
1.17561e-05
4.52902e-06
1.27058e-06
3.31356e-07
3.11065e-07
3.05315e-07
3.05118e-07
3.10326e-07
3.37522e-07
3.47674e-07
3.49411e-07
3.77538e-07
5.13912e-07
3.99173e-07
1.21004e-06
4.10747e-06
2.91008e-06
5.40761e-07
2.23569e-06
4.85347e-06
4.85462e-06
4.85409e-06
3.52043e-06
7.34999e-07
2.81797e-05
5.62634e-05
5.62644e-05
5.62644e-05
4.5693e-06
4.59101e-08
3.76113e-22
2.36865e-19
3.02746e-17
1.5322e-15
4.05883e-14
6.5524e-13
7.08772e-12
5.47182e-11
3.1539e-10
1.40395e-09
4.95432e-09
1.41462e-08
3.32792e-08
6.56459e-08
1.10792e-07
1.6431e-07
2.16341e-07
2.21854e-07
1.00092e-06
3.11158e-07
3.10776e-07
3.10531e-07
6.01797e-07
3.26755e-07
3.0836e-07
3.03494e-07
3.05738e-07
3.23783e-07
3.97957e-07
3.59507e-07
3.60063e-07
3.99771e-07
9.21181e-07
3.22209e-06
2.33272e-05
3.26674e-05
2.84286e-05
5.13284e-06
4.04404e-07
7.2369e-07
2.63132e-06
2.66671e-06
2.60799e-06
7.18559e-07
4.12289e-07
2.75278e-05
5.62652e-05
4.21466e-05
1.93311e-06
5.75862e-08
7.67786e-23
7.36869e-20
1.1968e-17
7.12358e-16
2.13028e-14
3.78455e-13
4.42544e-12
3.64619e-11
2.22115e-10
1.03683e-09
3.81209e-09
1.12904e-08
2.74757e-08
5.60084e-08
9.75849e-08
1.48354e-07
1.98669e-07
2.42667e-07
2.44944e-07
3.15191e-07
3.14521e-07
3.10215e-07
3.08111e-07
3.06584e-07
3.05889e-07
3.02748e-07
3.11134e-07
3.57746e-07
5.66822e-07
1.45226e-06
1.15954e-06
4.1022e-07
7.75886e-07
2.2428e-05
3.26876e-05
3.26792e-05
3.26716e-05
9.64118e-06
3.52328e-07
3.52421e-07
3.52462e-07
3.52559e-07
3.52824e-07
3.78619e-07
3.83172e-07
5.07988e-07
9.92407e-06
4.76774e-06
1.54083e-06
5.01598e-08
1.09106e-23
1.94471e-20
4.25014e-18
3.05763e-16
1.04945e-14
2.07545e-13
2.64747e-12
2.34524e-11
1.51987e-10
7.486e-10
2.88515e-09
8.91388e-09
2.25396e-08
4.75693e-08
8.5537e-08
1.34057e-07
1.88154e-07
2.48406e-07
4.06322e-07
3.18366e-07
3.2624e-07
3.08955e-07
3.03484e-07
2.99572e-07
4.01089e-07
3.02033e-07
3.18355e-07
3.94692e-07
8.39062e-07
1.93464e-06
1.93642e-06
3.96194e-07
1.9498e-06
2.76712e-05
3.26903e-05
3.27016e-05
2.87512e-05
3.53564e-07
3.53562e-07
3.55238e-07
3.56274e-07
3.58789e-07
3.60498e-07
3.73844e-07
7.68352e-07
6.40014e-07
2.43422e-07
1.33067e-07
1.54956e-06
5.00338e-08
1.29982e-24
4.90969e-21
1.48684e-18
1.30715e-16
5.16649e-15
1.13733e-13
1.58039e-12
1.50238e-11
1.0335e-10
5.35901e-10
2.16042e-09
6.94793e-09
1.82209e-08
3.97816e-08
7.39827e-08
1.20592e-07
1.78286e-07
2.44929e-07
2.47074e-07
3.04855e-07
3.32672e-07
3.72727e-07
2.96563e-07
2.95373e-07
2.92055e-07
3.01374e-07
3.09439e-07
3.39575e-07
7.56896e-07
1.65243e-06
1.16064e-06
3.76944e-07
2.16247e-06
2.79487e-05
3.27043e-05
3.27139e-05
1.01653e-05
3.55728e-07
3.63968e-07
3.59202e-07
3.61666e-07
3.64692e-07
3.92581e-07
4.45649e-07
8.05164e-07
8.09359e-07
2.12074e-07
9.27765e-08
7.319e-07
5.14062e-08
1.43794e-25
1.17759e-21
5.01955e-19
5.44188e-17
2.48749e-15
6.10247e-14
9.23067e-13
9.40129e-12
6.84971e-11
3.73117e-10
1.57096e-09
5.2562e-09
1.4311e-08
3.24156e-08
6.26137e-08
1.06576e-07
1.65101e-07
2.25375e-07
2.42802e-07
6.53993e-07
2.86444e-07
2.83028e-07
3.15415e-07
2.84913e-07
2.9149e-07
2.93528e-07
3.0561e-07
2.91479e-07
2.89718e-07
2.89795e-07
2.97434e-07
3.68904e-07
3.83033e-07
1.15102e-05
2.70645e-05
1.0182e-05
9.65888e-07
9.60721e-07
3.79501e-07
3.68319e-07
3.807e-07
4.90705e-07
4.9856e-06
2.59049e-06
5.6575e-07
7.48637e-07
2.13567e-07
7.19491e-08
6.98738e-08
6.50899e-08
1.4614e-26
2.62654e-22
1.58918e-19
2.13929e-17
1.13664e-15
3.11813e-14
5.1448e-13
5.621e-12
4.34168e-11
2.48692e-10
1.09527e-09
3.82148e-09
1.08378e-08
2.55677e-08
5.1412e-08
9.14223e-08
1.4808e-07
2.13265e-07
2.60512e-07
2.62408e-07
3.53709e-07
2.81222e-07
2.79395e-07
2.83338e-07
2.77575e-07
2.74853e-07
3.1058e-07
2.84393e-07
2.92769e-07
2.98941e-07
3.00847e-07
3.10787e-07
5.33131e-07
1.99506e-05
2.63491e-05
1.18004e-06
1.11253e-06
9.58715e-07
3.90877e-07
2.78475e-06
6.11239e-07
3.53087e-05
9.31006e-05
3.6035e-05
4.17948e-08
4.84589e-08
7.27566e-08
6.63266e-08
5.51719e-08
5.36206e-08
1.36331e-27
5.44466e-23
4.69592e-20
7.87892e-18
4.88294e-16
1.50244e-14
2.71104e-13
3.18464e-12
2.6136e-11
1.57793e-10
7.28784e-10
2.65917e-09
7.87904e-09
1.94122e-08
4.07204e-08
7.52053e-08
1.2701e-07
1.92716e-07
2.56721e-07
2.93281e-07
2.93678e-07
3.07769e-07
2.78557e-07
2.78005e-07
2.7306e-07
2.72407e-07
2.74062e-07
2.9786e-07
3.14058e-07
3.28135e-07
3.23864e-07
3.21758e-07
3.06616e-06
3.22306e-05
3.24375e-05
9.88733e-06
1.04855e-05
9.51602e-06
3.67098e-05
8.12118e-05
0.00014126
0.000365684
0.00126355
0.000356371
-5.41537e-07
2.12134e-08
4.24266e-08
4.3659e-08
4.48913e-08
4.53885e-08
1.14869e-28
1.04355e-23
1.29215e-20
2.71297e-18
1.96733e-16
6.80787e-15
1.34667e-13
1.70464e-12
1.48973e-11
9.50072e-11
4.61167e-10
1.76338e-09
5.46891e-09
1.40958e-08
3.09053e-08
5.9021e-08
1.02435e-07
1.63347e-07
2.28263e-07
2.76789e-07
2.92305e-07
2.84052e-07
2.81955e-07
2.75161e-07
2.71734e-07
2.762e-07
2.94705e-07
3.38862e-07
3.2568e-07
3.33885e-07
3.32484e-07
3.37661e-07
4.32675e-06
2.35553e-05
3.24034e-05
2.52524e-05
1.80187e-05
3.56875e-05
8.25233e-05
0.00017051
0.00053138
0.000400436
0.000430616
0.0196847
0.0400317
0.118392
0.269544
0.440162
0.572814
0.663583
8.49971e-30
1.81389e-24
3.26812e-21
8.64993e-19
7.37574e-17
2.88116e-15
6.26655e-14
8.56883e-13
7.99187e-12
5.39444e-11
2.75664e-10
1.10624e-09
3.59515e-09
9.70235e-09
2.2254e-08
4.43519e-08
7.85322e-08
1.28852e-07
1.92136e-07
2.48073e-07
2.77719e-07
2.82741e-07
2.77826e-07
2.75885e-07
2.71363e-07
2.83663e-07
3.24041e-07
4.12129e-07
2.52593e-06
3.7142e-06
7.02965e-06
5.1156e-06
9.22087e-06
1.56148e-05
2.11206e-05
3.44232e-05
2.16722e-05
3.90171e-05
0.000197098
0.000470349
0.000517061
0.00043361
0.0770589
0.279112
0.564275
0.81959
0.962581
1
1
1
5.39143e-31
2.78569e-25
7.4308e-22
2.50631e-19
2.53199e-17
1.12277e-15
2.69681e-14
3.99716e-13
3.9897e-12
2.85688e-11
1.53989e-10
6.49577e-10
2.21481e-09
6.26515e-09
1.50551e-08
3.14008e-08
5.79476e-08
9.64563e-08
1.49732e-07
2.1039e-07
2.53197e-07
2.73794e-07
2.73978e-07
4.4462e-07
2.70089e-07
2.9275e-07
3.46098e-07
3.58608e-07
5.78655e-06
1.4604e-05
1.70259e-05
1.69722e-05
2.90221e-05
3.11045e-05
2.00042e-05
2.56545e-05
2.94826e-05
4.25228e-05
0.000518343
0.000530374
0.000796252
0.184908
0.572445
0.867544
0.993705
0.999996
1
1
1
1
2.88786e-32
3.68773e-26
1.47925e-22
6.44062e-20
7.78284e-18
3.9471e-16
1.05325e-14
1.70032e-13
1.82346e-12
1.38974e-11
7.92337e-11
3.52175e-10
1.26235e-09
3.75009e-09
9.46052e-09
2.07111e-08
4.00794e-08
6.96702e-08
1.10703e-07
1.62687e-07
2.16774e-07
2.47814e-07
2.68287e-07
2.65305e-07
2.69529e-07
2.82516e-07
3.54264e-07
3.68193e-07
4.6812e-06
8.69473e-06
6.49474e-06
6.3577e-06
2.10512e-05
3.10968e-05
1.99152e-05
1.99152e-05
2.45385e-05
0.000321819
0.000320515
0.00214607
0.256328
0.789812
0.980025
0.999739
0.999963
0.999998
1
1
1
1
1.28849e-33
4.11199e-27
2.50618e-23
1.42643e-20
2.08465e-18
1.22003e-16
3.64407e-15
6.4483e-14
7.47029e-13
6.08839e-12
3.68681e-11
1.73302e-10
6.55209e-10
2.05068e-09
5.44895e-09
1.25662e-08
2.56227e-08
4.6907e-08
7.81074e-08
1.19667e-07
1.68227e-07
2.11269e-07
2.38024e-07
2.61999e-07
2.60896e-07
2.68794e-07
2.93594e-07
4.37814e-07
1.33016e-06
3.64552e-07
3.49841e-07
3.67228e-07
8.41796e-07
1.8405e-05
2.01117e-05
4.24856e-05
7.53885e-05
0.000114607
0.000149268
0.246609
0.84763
0.999688
0.999919
0.999983
0.999998
1
1
1
1
1
4.77701e-35
3.79486e-28
3.51191e-24
2.62211e-21
4.69284e-19
3.20663e-17
1.0822e-15
2.1164e-14
2.66778e-13
2.34027e-12
1.5141e-11
7.56781e-11
3.03335e-10
1.00519e-09
2.82723e-09
6.90331e-09
1.49108e-08
2.89274e-08
5.1004e-08
8.25065e-08
1.22872e-07
1.66145e-07
1.98996e-07
2.33501e-07
2.4735e-07
2.57556e-07
3.02746e-07
4.10167e-07
1.35688e-06
5.12331e-07
3.367e-07
4.48912e-07
4.82313e-07
8.97191e-06
6.07322e-05
0.000111717
9.83123e-05
0.000122814
0.177832
0.750918
0.999688
0.999886
0.999988
0.999999
1
1
1
1
1
1
1.4577e-36
2.83211e-29
3.97345e-25
3.88576e-22
8.45177e-20
6.78196e-18
2.6201e-16
5.73303e-15
7.95462e-14
7.58647e-13
5.29192e-12
2.83665e-11
1.21524e-10
4.29808e-10
1.28945e-09
3.35875e-09
7.74259e-09
1.60377e-08
3.01928e-08
5.20988e-08
8.27913e-08
1.20567e-07
1.56938e-07
1.92828e-07
2.23963e-07
2.40218e-07
2.81987e-07
3.78837e-07
1.19248e-06
5.97777e-07
3.09499e-07
3.35567e-07
4.68621e-07
1.93063e-05
9.89083e-05
0.00025261
0.00148639
0.0587638
0.504104
0.970054
0.999875
0.99999
0.999998
1
1
1
1
1
1
1
3.61431e-38
1.66583e-30
3.48578e-26
4.44039e-23
1.18309e-20
1.1098e-18
4.87476e-17
1.19525e-15
1.83684e-14
1.92843e-13
1.47242e-12
8.60194e-12
4.00437e-11
1.5327e-10
4.97278e-10
1.39958e-09
3.48327e-09
7.78815e-09
1.58202e-08
2.94292e-08
5.03831e-08
7.93449e-08
1.12918e-07
1.48916e-07
1.85131e-07
2.12986e-07
2.52081e-07
3.87224e-07
5.52785e-07
4.88707e-07
2.66629e-07
3.19392e-07
9.03859e-07
7.6643e-06
6.46253e-05
0.000224684
0.00636722
0.263661
0.816259
0.999506
0.999963
0.999998
1
1
1
1
1
1
1
1
7.23305e-40
7.60577e-32
2.30389e-27
3.69192e-24
1.16785e-21
1.26766e-19
6.39315e-18
1.78284e-16
3.08698e-15
3.60705e-14
3.03467e-13
1.93899e-12
9.88247e-12
4.18942e-11
1.51109e-10
4.70835e-10
1.2941e-09
3.18172e-09
7.088e-09
1.44236e-08
2.69483e-08
4.63066e-08
7.23954e-08
1.04025e-07
1.39873e-07
1.73668e-07
2.02421e-07
2.65868e-07
3.48767e-07
3.21064e-07
2.47809e-07
2.61916e-07
6.9471e-07
1.35507e-05
2.50394e-05
-5.18424e-07
0.0355804
0.4856
0.975919
0.99991
0.999993
0.999999
1
1
1
1
1
1
1
1
1.14732e-41
2.68466e-33
1.15678e-28
2.3422e-25
8.70024e-23
1.05821e-20
5.80001e-19
1.73206e-17
3.22903e-16
4.13633e-15
3.89766e-14
2.83991e-13
1.64881e-12
7.86303e-12
3.16686e-11
1.13705e-10
3.61894e-10
1.0188e-09
2.56652e-09
5.85516e-09
1.21813e-08
2.31948e-08
4.02191e-08
6.37675e-08
9.37927e-08
1.27439e-07
1.59799e-07
1.99166e-07
2.55807e-07
2.50606e-07
2.42403e-07
2.30834e-07
1.76745e-06
1.51194e-05
1.74325e-05
2.83948e-07
0.0857035
0.747945
0.999693
0.999986
0.999999
1
1
1
1
1
1
1
1
1
1.92121e-43
4.84043e-34
7.50586e-29
2.83205e-25
1.3809e-22
1.79932e-20
9.17322e-19
2.29774e-17
3.29295e-16
3.01599e-15
1.92469e-14
9.29102e-14
3.6977e-13
1.34201e-12
4.84194e-12
1.7724e-11
6.34141e-11
2.19252e-10
6.73798e-10
1.81694e-09
4.36844e-09
9.47319e-09
1.8561e-08
3.29946e-08
5.38631e-08
8.09093e-08
1.1166e-07
1.45877e-07
1.86862e-07
2.06339e-07
2.22625e-07
1.40313e-07
1.20782e-06
2.27225e-06
6.23211e-06
3.04465e-07
0.215917
0.925671
0.999999
1
1
1
1
1
1
1
1
1
1
1
6.07237e-42
1.48557e-32
1.62116e-27
4.77951e-24
1.96104e-21
2.24761e-19
1.03922e-17
2.42014e-16
3.28583e-15
2.88444e-14
1.76562e-13
7.97656e-13
2.76865e-12
7.59012e-12
1.6615e-11
3.0332e-11
4.68531e-11
6.8286e-11
1.33489e-10
3.81119e-10
1.11601e-09
2.89582e-09
6.63843e-09
1.35749e-08
2.51115e-08
4.23349e-08
6.51724e-08
9.28929e-08
1.2469e-07
1.45585e-07
1.58895e-07
9.93215e-08
2.11154e-07
1.89148e-06
4.14519e-07
1.92384e-07
0.384899
0.997155
1
1
1
1
1
1
1
1
1
1
1
1
7.7587e-40
3.24496e-38
1.15175e-36
3.60032e-35
1.02165e-33
2.67838e-32
6.49607e-31
1.43883e-29
2.84643e-28
4.89622e-27
7.12405e-26
8.63885e-25
9.38728e-24
8.62128e-23
6.27064e-22
2.97459e-21
9.66688e-21
2.284e-20
4.09524e-20
5.78313e-20
6.59207e-20
6.15715e-20
4.7464e-20
3.02603e-20
1.59285e-20
6.90849e-21
2.44886e-21
7.01564e-22
1.61814e-22
3.00892e-23