/*--------------------------------*- C++ -*----------------------------------*\
| =========                 |                                                 |
| \\      /  F ield         | OpenFOAM: The Open Source CFD Toolbox           |
|  \\    /   O peration     | Version:  2.4.0                                 |
|   \\  /    A nd           | Web:      www.OpenFOAM.org                      |
|    \\/     M anipulation  |                                                 |
\*---------------------------------------------------------------------------*/
FoamFile
{
    version     2.0;
    format      ascii;
    class       volScalarField;
    location    "0.028";
    object      p_rgh;
}
// * * * * * * * * * * * * * * * * * * * * * * * * * * * * * * * * * * * * * //

dimensions      [1 -1 -2 0 0 0 0];

internalField   nonuniform List<scalar> 
14400
(
98.0119
98.1087
98.3171
98.5989
98.9077
99.1624
99.2462
99.0218
98.3179
96.9439
94.7602
91.741
87.9835
83.6772
79.0453
74.316
69.6874
65.3174
61.3202
57.7676
54.6921
52.0995
49.9755
48.281
46.9696
45.9919
45.2959
44.8318
44.5531
44.4191
98.0115
98.1085
98.317
98.5991
98.9086
99.1647
99.2506
99.0296
98.3309
96.9621
94.7836
91.7688
88.0127
83.706
79.0712
74.3372
69.702
65.3236
61.3161
57.752
54.6664
52.0633
49.9212
48.2087
46.8828
45.8932
45.1881
44.7174
44.4347
44.2987
98.0105
98.1077
98.3163
98.5989
98.9097
99.1685
99.2589
99.0455
98.3587
97.0048
94.841
91.8372
88.0888
83.7791
79.1378
74.3915
69.7386
65.3376
61.3031
57.7082
54.5886
51.9491
49.7716
48.0242
46.6661
45.6493
44.923
44.4373
44.1451
44.0045
98.009
98.1063
98.315
98.5981
98.9108
99.1737
99.2711
99.0697
98.4019
97.0722
94.9324
91.9472
88.2081
83.8983
79.2465
74.4799
69.7975
65.3587
61.2796
57.6351
54.4616
51.7655
49.5308
47.7276
46.3175
45.256
44.4945
43.9836
43.6757
43.5274
98.007
98.1043
98.3131
98.5969
98.912
99.1805
99.2872
99.1019
98.4604
97.164
95.0579
92.099
88.374
84.0644
79.3983
74.6035
69.8797
65.3882
61.2472
57.5342
54.2874
51.5145
49.2013
47.3199
45.8358
44.7094
43.8961
43.348
43.0167
42.8568
98.0044
98.1017
98.3106
98.5951
98.9132
99.1886
99.3069
99.142
98.5338
97.2802
95.2176
92.2932
88.5869
84.2782
79.5943
74.7636
69.9869
65.4277
61.2077
57.4079
54.069
51.1997
48.7867
46.8033
45.2198
44.0039
43.118
42.5175
42.1533
41.9771
98.0014
98.0985
98.3074
98.5928
98.9145
99.1981
99.3303
99.1897
98.6219
97.4207
95.4116
92.53
88.8476
84.5407
79.8359
74.9619
70.121
65.4795
61.1634
57.259
53.81
50.8258
48.2923
46.1822
44.4696
43.1331
42.147
41.4737
41.064
40.8655
97.9978
98.0947
98.3036
98.5899
98.9157
99.2089
99.357
99.2445
98.7243
97.5851
95.6401
92.81
89.1569
84.8533
80.1248
75.2006
70.2847
65.5463
61.1169
57.0903
53.5144
50.3987
47.7264
45.4648
43.5881
42.0892
40.9647
40.1907
39.7186
39.4898
97.9938
98.0903
98.2992
98.5864
98.9168
99.2209
99.387
99.3063
98.8406
97.7734
95.9034
93.1339
89.5158
85.2173
80.4629
75.482
70.4809
65.6311
61.0707
56.9047
53.1868
49.9254
47.1006
44.6662
42.5844
40.8647
39.545
38.6309
38.0736
37.8029
97.9893
98.0853
98.2941
98.5824
98.9177
99.234
99.4199
99.3743
98.9702
97.9851
96.2015
93.5024
89.9256
85.6344
80.8525
75.8092
70.713
65.7374
61.0277
56.7047
52.8313
49.4131
46.4299
43.812
41.4812
39.4542
37.8484
36.7398
36.0671
35.7337
97.9843
98.0798
98.2883
98.5776
98.9184
99.2481
99.4556
99.4481
99.1125
98.22
96.5347
93.9164
90.3876
86.1066
81.2951
76.1852
70.9849
65.8692
60.9899
56.4915
52.4515
48.8672
45.7296
42.9434
40.3302
37.8625
35.8039
34.4373
33.6195
33.1629
97.9788
98.0736
98.2819
98.5722
98.9187
99.2631
99.4937
99.527
99.2669
98.4775
96.9032
94.3766
90.9032
86.6357
81.7953
76.6137
71.3009
66.0314
60.9589
56.2635
52.0501
48.2886
45.0048
42.1203
39.2413
36.1477
33.2637
31.5919
30.6969
29.8379
97.9729
98.0669
98.2748
98.5661
98.9186
99.2788
99.5341
99.6103
99.4326
98.7571
97.3072
94.8842
91.474
87.2241
82.3549
77.0982
71.6659
66.2299
60.9358
56.0138
51.6298
47.673
44.2131
41.4147
38.379
34.7108
27.9557
20.1886
15.317
13.6618
97.9666
98.0597
98.2671
98.5592
98.9179
99.2952
99.5764
99.6971
99.6085
99.0582
97.747
95.4403
92.1017
87.874
82.9772
77.6428
72.085
66.4722
60.9214
55.7232
51.1976
47.0162
43.096
41.0907
18.1327
0.487097
0.227243
0.21342
0.238922
0.243152
97.9598
98.0519
98.2587
98.5516
98.9166
99.3122
99.6203
99.7864
99.7938
99.38
98.2229
96.046
92.7881
88.5878
83.6655
78.2517
72.5633
66.768
60.9199
55.3403
50.7675
46.2455
36.6293
2.5704
0.19259
0.277143
0.238912
0.223044
0.225016
0.236531
97.9527
98.0435
98.2496
98.5431
98.9145
99.3295
99.6657
99.8772
99.9873
99.7215
98.7351
96.7026
93.535
89.3682
84.4234
78.9291
73.1052
67.1297
60.9472
54.6919
50.2932
37.0742
0.141558
0.164113
0.200346
0.217129
0.217788
0.215924
0.216631
0.225503
97.9452
98.0347
98.2398
98.5337
98.9115
99.3471
99.7123
99.9682
100.188
100.082
99.2839
97.4118
94.3446
90.2175
85.2543
79.6796
73.7137
67.5698
61.0474
53.2447
43.2853
0.211568
0.155467
0.157874
0.17584
0.205753
0.202905
0.205804
0.207069
0.207382
97.9373
98.0253
98.2293
98.5234
98.9075
99.3648
99.76
100.058
100.394
100.459
99.8695
98.175
95.2186
91.1385
86.1624
80.5086
74.3891
68.097
61.3234
48.4242
0.386615
0.14208
0.142718
0.178603
0.163053
0.183726
0.192333
0.196229
0.19788
0.198612
97.9291
98.0154
98.218
98.5122
98.9022
99.3824
99.8088
100.145
100.604
100.852
100.492
98.9942
96.1593
92.1334
87.1518
81.4222
75.1289
68.7119
61.9148
3.99863
0.303036
0.168887
0.147062
0.174868
0.159704
0.176464
0.184046
0.187607
0.18939
0.192672
97.9207
98.005
98.2061
98.4999
98.8955
99.3998
99.8589
100.227
100.818
101.258
101.152
99.8713
97.1684
93.2044
88.2269
82.4287
75.9319
69.5586
55.8774
0.0132379
0.163003
0.16261
0.146107
0.14915
0.160017
0.170785
0.176667
0.179756
0.183432
0.182079
97.912
97.9942
98.1934
98.4866
98.8871
99.4167
99.9107
100.303
101.032
101.676
101.851
100.809
98.248
94.3535
89.3922
83.5373
76.8179
71.5907
0.258553
0.090453
0.134525
0.151118
0.146871
0.150279
0.158196
0.165481
0.170233
0.172701
0.174001
0.174966
97.903
97.9829
98.1801
98.4721
98.877
99.4329
99.9649
100.369
101.247
102.101
102.587
101.809
99.3996
95.5819
90.6524
84.7632
77.9135
73.2823
-0.686263
0.0246184
0.125675
0.141139
0.143904
0.148525
0.154813
0.16025
0.163947
0.166208
0.167547
0.168268
97.8939
97.9711
98.1659
98.4566
98.8648
99.448
100.023
100.422
101.46
102.531
103.363
102.876
100.625
96.8899
92.0107
86.114
79.2692
15.9563
-0.0488485
0.0323205
0.115003
0.132914
0.139668
0.145215
0.150686
0.155154
0.15829
0.160318
0.161541
0.162178
97.8847
97.9589
98.1511
98.4399
98.8504
99.4616
100.087
100.459
101.671
102.96
104.18
104.013
101.924
98.2765
93.4628
87.5939
80.9454
-1.58967
-0.0598797
-0.0161627
0.103925
0.126669
0.135363
0.141333
0.146324
0.150208
0.15296
0.154782
0.155898
0.156482
97.8754
97.9462
98.1355
98.422
98.8334
99.4731
100.16
100.476
101.879
103.382
105.037
105.225
103.298
99.74
95.0171
89.3641
83.2475
1.04184
-0.215936
0.0601881
0.104448
0.122773
0.131487
0.137371
0.141955
0.145412
0.147862
0.149505
0.150526
0.151069
97.8661
97.9332
98.1192
98.4029
98.8136
99.4816
100.249
100.468
102.086
103.788
105.938
106.518
104.746
101.277
96.6237
91.2257
86.9999
0.0302224
0.198965
0.100401
0.109119
0.120638
0.128118
0.13351
0.137656
0.140742
0.142936
0.144429
0.145375
0.145889
97.8568
97.9198
98.102
98.3826
98.7906
99.4859
100.359
100.43
102.292
104.167
106.883
107.899
106.266
102.885
98.2843
92.9346
51.6002
0.0891826
0.211103
0.113494
0.112638
0.119268
0.125083
0.129754
0.133419
0.136153
0.138122
0.139492
0.140384
0.140884
97.8477
97.906
98.0842
98.3611
98.7643
99.4845
100.505
100.355
102.502
104.505
107.878
109.377
107.849
104.54
99.9684
95.4252
23.1731
0.174785
0.184865
0.120915
0.114843
0.117913
0.122132
0.126018
0.129187
0.131591
0.133361
0.134627
0.135475
0.135967
97.8396
97.8919
98.0655
98.3385
98.7341
99.4754
100.703
100.238
102.723
104.782
108.925
110.962
109.495
106.276
101.624
98.0267
10.3297
0.190281
0.160962
0.123311
0.115297
0.116081
0.119026
0.12219
0.124891
0.127001
0.1286
0.129773
0.130578
0.131059
97.848
97.8774
98.0459
98.3145
98.6998
99.4556
100.98
100.071
102.965
104.971
110.032
112.667
111.191
108.045
103.09
100.362
1.4735
0.161836
0.144512
0.121365
0.113854
0.113481
0.115579
0.118161
0.120463
0.122334
0.123797
0.124891
0.125653
0.12612
44.3952
44.471
44.6736
45.0407
45.6162
46.4485
47.5895
49.0898
50.9969
53.3572
56.1969
59.5195
63.3079
67.5107
72.0345
76.7424
81.4545
85.953
90.0025
93.3901
95.9597
97.6776
98.636
99.0259
99.0563
98.8922
98.6433
98.3828
98.1618
98.017
44.2745
44.3513
44.5568
44.9291
45.5124
46.3553
47.5094
49.0257
50.9541
53.3274
56.1757
59.5098
63.3092
67.5214
72.0528
76.7665
81.4823
85.9825
90.0319
93.4144
95.9809
97.6929
98.6459
99.0314
99.0592
98.8936
98.6439
98.383
98.1618
98.0168
43.9794
44.0588
44.2711
44.6554
45.2568
46.1239
47.308
48.8583
50.8209
53.2312
56.1155
59.4819
63.3102
67.5475
72.0992
76.8281
81.5535
86.0575
90.1048
93.4789
96.0318
97.7281
98.6669
99.0421
99.0639
98.8954
98.6442
98.3826
98.1612
98.016
43.5007
43.5844
43.808
44.2126
44.8439
45.7512
46.9841
48.5889
50.6083
53.0759
56.0159
59.4342
63.3099
67.5887
72.1743
76.9286
81.6697
86.1794
90.2221
93.5819
96.1123
97.7832
98.699
99.058
99.0707
98.8977
98.6444
98.3819
98.1601
98.0146
42.828
42.918
43.1585
43.5928
44.2686
45.2346
46.5376
48.2195
50.3179
52.8636
55.879
59.3683
63.3096
67.6462
72.2794
77.069
81.8316
86.3488
90.3844
93.7236
96.2226
97.858
98.7422
99.079
99.0793
98.9004
98.6444
98.3806
98.1584
98.0126
41.9453
42.0441
42.3084
42.7848
43.523
44.5707
45.9695
47.7532
49.9531
52.5974
55.7072
59.2863
63.311
67.7216
72.4159
77.2505
82.0405
86.5664
90.5923
93.9042
96.3626
97.9523
98.7962
99.1049
99.0898
98.9036
98.6441
98.3789
98.1563
98.0099
40.8295
40.9406
41.2376
41.7721
42.5969
43.7563
45.2821
47.1953
49.5194
52.2814
55.5039
59.1906
63.3163
67.8172
72.5855
77.4747
82.2974
86.8333
90.8463
94.1241
96.5322
98.066
98.8606
99.1355
99.102
98.9071
98.6436
98.3767
98.1536
98.0066
39.4483
39.5761
39.9175
40.532
41.4766
42.7894
44.4819
46.5546
49.0238
51.9208
55.2725
59.0838
63.3282
67.9354
72.7908
77.7434
82.6039
87.1504
91.1472
94.3838
96.7316
98.1986
98.9352
99.1705
99.1158
98.911
98.6428
98.3739
98.1503
98.0027
37.7545
37.9058
38.3074
39.0313
40.1442
41.6714
43.5825
45.8454
48.4755
51.5212
55.0164
58.9686
63.3494
68.0794
73.0344
78.059
82.9615
87.5189
91.4959
94.6836
96.9606
98.3498
99.0193
99.2096
99.1309
98.9151
98.6418
98.3707
98.1466
97.9981
35.6748
35.8637
36.349
37.2203
38.5745
40.4142
42.6108
45.0887
47.8847
51.088
54.739
58.8471
63.3831
68.2528
73.3195
78.4239
83.3723
87.9405
91.8932
95.024
97.2192
98.5192
99.1126
99.2523
99.1473
98.9194
98.6404
98.367
98.1422
97.9928
33.0721
33.3501
33.9639
35.0181
36.724
39.0585
41.6181
44.3137
47.2589
50.6261
54.4422
58.7205
63.4325
68.4596
73.6496
78.8409
83.8384
88.4165
92.3404
95.4056
97.5073
98.7062
99.2143
99.2982
99.1647
98.9238
98.6387
98.3627
98.1374
97.9869
29.5727
30.2492
31.0626
32.2862
34.4857
37.7471
40.6934
43.5551
46.5945
50.1391
54.1263
58.5879
63.5012
68.7045
74.0288
79.3133
84.3622
88.9489
92.8386
95.8291
97.8249
98.9103
99.3238
99.3468
99.1829
98.9283
98.6365
98.3579
98.132
97.9802
12.7981
14.1794
17.0629
23.6726
31.0991
37.1281
39.9683
42.8559
45.8596
49.6308
53.7869
58.4449
63.5937
68.9932
74.4611
79.8443
84.9462
89.5393
93.3892
96.295
98.1718
99.1305
99.4401
99.3976
99.2017
98.9328
98.634
98.3526
98.1261
97.9728
0.244193
0.243178
0.225844
0.205885
0.269143
5.4225
34.4647
42.3869
44.9909
49.118
53.41
58.2806
63.7166
69.3318
74.9511
80.4376
85.5933
90.1899
93.9936
96.8043
98.5477
99.3662
99.5625
99.4499
99.2208
98.9372
98.631
98.3466
98.1196
97.9647
0.236816
0.227982
0.224185
0.227702
0.261174
0.437859
0.254615
16.5659
44.1974
48.6744
52.9484
58.0745
63.8803
69.7274
75.5034
81.097
86.3061
90.9028
94.6534
97.3577
98.9525
99.6162
99.6899
99.503
99.2399
98.9414
98.6275
98.3401
98.1126
97.9557
0.229003
0.217948
0.216583
0.217208
0.219489
0.20018
0.195585
0.153539
5.90101
48.7752
52.2307
57.7965
64.1026
70.1866
76.1224
81.8264
87.0879
91.68
95.3702
97.9563
99.3858
99.8794
99.8211
99.5563
99.2589
98.9454
98.6235
98.3329
98.105
97.946
0.207425
0.20772
0.207085
0.205452
0.201034
0.196936
0.166292
0.161466
0.139617
12.0176
51.4181
57.4857
64.4083
70.7139
76.8127
82.6301
87.9414
92.5237
96.1458
98.601
99.8471
100.154
99.9549
99.609
99.2773
98.9491
98.6189
98.3252
98.0969
97.9354
0.199101
0.198734
0.197726
0.195381
0.189588
0.177573
0.178143
0.175049
0.137629
0.202347
25.5712
57.5435
64.8103
71.3072
77.5788
83.5127
88.8699
93.4361
96.9821
99.2931
100.336
100.44
100.09
99.6602
99.2951
98.9525
98.6136
98.3168
98.0883
97.924
0.192264
0.195937
0.188992
0.186738
0.181863
0.17071
0.153598
0.18637
0.150305
0.223981
0.0146714
55.7207
65.23
71.9494
78.4263
84.4796
89.8765
94.4193
97.881
100.034
100.851
100.734
100.225
99.7091
99.3118
98.9555
98.6076
98.3077
98.0792
97.9117
0.183325
0.188291
0.181161
0.179034
0.17508
0.167213
0.155141
0.147482
0.152886
0.177444
0.0995286
-2.54813
65.48
72.5865
79.3645
85.5368
90.9641
95.4752
98.8448
100.825
101.393
101.034
100.358
99.7547
99.3273
98.9582
98.6009
98.2979
98.0695
97.8984
0.175276
0.174892
0.173858
0.172332
0.169046
0.163361
0.155291
0.149084
0.149741
0.154149
0.130922
0.0841145
61.06
73.058
80.41
86.6914
92.1354
96.6053
99.8754
101.668
101.959
101.338
100.489
99.796
99.3413
98.9604
98.5933
98.2875
98.0593
97.884
0.168476
0.168212
0.167408
0.165897
0.16325
0.158985
0.153089
0.147486
0.144446
0.141469
0.145028
0.226298
-3.88554
73.7889
81.59
87.9533
93.3924
97.8109
100.975
102.566
102.55
101.643
100.614
99.8321
99.3537
98.9624
98.5848
98.2763
98.0486
97.8687
0.162368
0.162165
0.16148
0.160149
0.157906
0.15443
0.149647
0.144305
0.139032
0.131759
0.114277
0.699044
-5.62306
77.1286
82.8775
89.3314
94.7357
99.0924
102.146
103.521
103.162
101.946
100.733
99.8619
99.3645
98.9643
98.5753
98.2644
98.0375
97.8522
0.156666
0.156505
0.155919
0.154762
0.152832
0.149887
0.145778
0.14067
0.134347
0.124006
0.0943078
0.101374
-2.02439
74.9865
84.2751
90.8267
96.1623
100.45
103.391
104.537
103.794
102.242
100.844
99.8842
99.3736
98.9663
98.5648
98.2517
98.0259
97.8346
0.151251
0.151129
0.15063
0.149632
0.147968
0.145432
0.141841
0.137106
0.130761
0.120219
0.0987061
0.100982
-0.484878
20.7328
85.6491
92.4745
97.6692
101.881
104.711
105.618
104.445
102.527
100.947
99.8977
99.3814
98.9687
98.553
98.2383
98.0139
97.8156
0.146074
0.145981
0.145555
0.144692
0.143259
0.141082
0.137969
0.133773
0.128165
0.119882
0.1076
0.0806225
-0.00682269
11.7737
88.8483
94.2038
99.2413
103.386
106.109
106.77
105.11
102.794
101.04
99.9006
99.3885
98.9723
98.5398
98.2241
98.0015
97.7954
0.141074
0.141003
0.140631
0.13988
0.138651
0.136803
0.134163
0.130616
0.126108
0.120543
0.114901
0.100824
0.12045
7.21845
88.4711
95.9501
100.88
104.956
107.584
108.001
105.787
103.036
101.126
99.8905
99.3963
98.9778
98.5252
98.2091
97.9888
97.7738
0.136165
0.136115
0.135788
0.135134
0.134086
0.132539
0.130361
0.127491
0.124127
0.120943
0.120499
0.129658
0.152961
1.41497
88.8958
97.867
102.55
106.577
109.133
109.322
106.472
103.243
101.206
99.8635
99.4068
98.9866
98.509
98.1933
97.9758
97.7506
0.131267
0.131239
0.130962
0.130399
0.129509
0.128228
0.126473
0.12424
0.121865
0.120414
0.122901
0.138668
0.153591
0.16927
83.042
99.7086
104.275
108.261
110.752
110.748
107.158
103.402
101.281
99.8137
99.4227
99.0009
98.4909
98.1767
97.9626
97.7259
0.126334
0.126334
0.126108
0.125629
0.124871
0.123808
0.122413
0.120722
0.119086
0.118655
0.122151
0.135677
0.145267
0.192105
48.8846
101.226
105.971
109.977
112.434
112.302
107.837
103.498
101.352
99.7327
99.4478
99.0236
98.4706
98.1593
97.9492
97.6974
-0.00215354
24.7716
42.718
68.6909
93.777
99.4258
101.32
99.877
103.21
105.035
111.058
114.277
112.701
109.655
104.301
96.9756
-0.0284607
0.134333
0.13393
0.117504
0.111258
0.110557
0.112238
0.114431
0.116462
0.118183
0.119564
0.120606
0.121333
0.121783
-0.000378444
0.00983897
0.0207617
0.0378893
0.0741081
15.5681
89.1427
99.7418
103.373
105.023
111.687
115.28
113.597
110.617
104.987
92.9861
-0.062236
0.124454
0.127757
0.114516
0.109164
0.108594
0.110156
0.112166
0.114089
0.115761
0.117107
0.118111
0.1188
0.119225
-0.000432638
0.0098249
0.0207656
0.0378336
0.0731064
0.227933
1.85613
55.2589
103.57
104.955
112.394
116.414
114.557
111.684
105.719
82.9148
-0.00702987
0.114027
0.120308
0.110624
0.106417
0.106144
0.107645
0.109574
0.11146
0.113099
0.1144
0.115356
0.116005
0.116407
-0.000276188
0.00980501
0.0207544
0.0377995
0.0728923
0.220629
1.36119
15.8589
84.9522
104.815
113.184
117.712
115.585
112.835
106.599
46.1016
0.0412653
0.105578
0.111423
0.105734
0.102975
0.103096
0.10466
0.106631
0.108533
0.110146
0.111398
0.112307
0.112923
0.113309
-0.000133741
0.00978208
0.0207212
0.0376911
0.072254
0.198193
-0.0754569
-0.213761
61.0308
101.924
114.111
119.181
116.669
114.096
108.17
10.9703
0.0943121
0.0998241
0.101827
0.0996926
0.09868
0.0993591
0.101171
0.103293
0.105246
0.106843
0.108057
0.108931
0.109526
0.109904
6.90778e-06
0.00975882
0.0206677
0.0375079
0.0711916
0.17612
-0.0560544
-0.172917
7.39259
89.0953
115.562
121.124
117.78
115.476
111.608
9.29497
0.121871
0.0965139
0.0932822
0.0925279
0.0933889
0.0948944
0.0971381
0.0994898
0.101529
0.103138
0.10434
0.105201
0.10579
0.106167
0.000149393
0.009732
0.0205857
0.0372275
0.0696966
0.154964
-0.0443834
-0.202192
-0.00664368
48.0986
116.039
123.509
118.893
116.998
114.929
13.3891
0.0884604
0.0907519
0.0849118
0.0845795
0.0871141
0.0896615
0.0924854
0.0951343
0.0973121
0.0989811
0.10021
0.101084
0.10168
0.102063
0.000288633
0.00969837
0.0204712
0.0368395
0.0677537
0.135301
-0.0709121
-0.216458
-0.133314
3.45852
109.208
124.821
119.526
118.652
116.252
3.15015
0.0531094
0.0827399
0.0733212
0.0754441
0.0797996
0.0835751
0.0871187
0.0901507
0.092541
0.094333
0.0956331
0.0965479
0.0971663
0.0975593
0.000424111
0.00965429
0.0203141
0.0363138
0.0653417
0.117166
-0.0687761
-0.229961
-0.154157
-0.16521
66.8866
126.462
120.618
120.501
110.277
-0.218016
0.0334294
0.0710469
0.0577494
0.0636991
0.0710158
0.0764857
0.080946
0.0844842
0.0871787
0.0891612
0.090579
0.0915624
0.0922175
0.0926275
0.000554777
0.00959629
0.0201083
0.0356368
0.0624496
0.100445
-0.0663347
-0.2353
-0.164677
-0.193634
8.70586
127.74
122.136
122.629
85.0684
0.271282
0.0171387
0.045616
0.0368968
0.0493134
0.0605853
0.0682789
0.0739172
0.0781174
0.0812141
0.0834525
0.0850314
0.0861111
0.086819
0.087253
0.000679034
0.00952075
0.0198434
0.0347873
0.0590946
0.0850225
-0.0629404
-0.232593
-0.168884
-0.1857
0.227425
131.78
121.552
124.467
80.3984
0.30121
-0.00124578
0.0627736
0.0070979
0.0322236
0.0485033
0.0589208
0.0660382
0.0710716
0.0746664
0.0772185
0.0789966
0.0801985
0.0809749
0.0814396
0.000793517
0.00942403
0.0195121
0.0337533
0.0552997
0.0708522
-0.0582669
-0.221202
-0.168009
-0.180229
-0.0299061
90.4401
121.549
126.511
64.4527
0.22714
0.0295377
0.011454
-0.0309623
0.0119456
0.0347395
0.0484837
0.0573993
0.0634309
0.0676079
0.0705183
0.0725239
0.0738676
0.0747249
0.0752257
0.000896311
0.00930201
0.0191038
0.0325193
0.0511185
0.0579249
-0.0551165
-0.204798
-0.163008
-0.170611
-0.0797811
38.6688
123.138
129.324
36.4376
0.126311
-0.0493562
-0.133237
-0.0676581
-0.0107088
0.0195614
0.0372501
0.0482299
0.0553789
0.060191
0.0634823
0.0657264
0.0672194
0.0681632
0.0687025
0.000985781
0.00915018
0.0186109
0.031079
0.046611
0.0462551
-0.0513056
-0.18179
-0.155394
-0.159207
-0.0751298
11.7226
128.541
137.565
20.3272
0.010094
-0.151971
-0.222098
-0.111943
-0.0359251
0.00382574
0.025853
0.0389679
0.0472414
0.0526766
0.0563311
0.0587967
0.0604269
0.0614502
0.0620238
0.00106082
0.00896362
0.0180241
0.0294321
0.0418735
0.0358632
-0.0480246
-0.157418
-0.146328
-0.146198
-0.0739056
0.390531
141.262
155.668
4.8738
-0.0747647
-0.29348
-0.32147
-0.165731
-0.0608759
-0.0107195
0.0153651
0.0303261
0.0395323
0.0454659
0.0493983
0.0520261
0.0537531
0.0548303
0.0554237
0.00112123
0.00873752
0.0173371
0.0275851
0.0369988
0.0267541
-0.0453784
-0.135574
-0.135523
-0.132321
-0.0783398
-0.0968556
104.849
179.024
0.0897968
-0.0782894
-0.342247
-0.427825
-0.212199
-0.0801718
-0.0214737
0.00724828
0.0232595
0.0329302
0.0390794
0.0431119
0.0457869
0.0475361
0.0486209
0.0492086
0.00116511
0.00846711
0.0165444
0.0255561
0.0321059
0.0189075
-0.04295
-0.116632
-0.123581
-0.118559
-0.0819146
-0.105386
-0.277685
59.3369
0.0884733
-0.218725
-0.354691
-0.454542
-0.215888
-0.0838184
-0.024747
0.00312162
0.0188422
0.0281756
0.034077
0.0379332
0.0404838
0.042148
0.0431757
0.0437233
0.00119106
0.00814835
0.0156441
0.0233687
0.0272976
0.012288
-0.0406711
-0.100279
-0.111158
-0.105895
-0.0828159
-0.0909168
-0.0751576
-0.0764866
-0.0491178
-0.327519
-0.310395
-0.339058
-0.126619
-0.0629991
-0.0175652
0.00509048
0.0179301
0.0258198
0.0308888
0.0342315
0.0364541
0.0379081
0.0388047
0.0392746
0.00119753
0.0077777
0.0146375
0.0210586
0.022684
0.00682049
-0.0381242
-0.086157
-0.0987025
-0.0943606
-0.0791624
-0.0769343
-0.0710658
-0.0230157
-0.0970745
-0.200198
-0.170844
-0.154912
-0.0769575
-0.0290655
-0.00295532
0.0113609
0.0201003
0.0257662
0.0295461
0.0320986
0.0338215
0.0349595
0.0356627
0.0360238
0.00118365
0.0073527
0.0135315
0.0186688
0.0183567
0.00242718
-0.0353641
-0.073912
-0.0865853
-0.0835828
-0.0728035
-0.0663147
-0.0575094
-0.0410035
-0.0641231
0.108822
0.131845
0.00522497
-0.0137614
0.00168353
0.0119913
0.0189148
0.0237625
0.0271672
0.0295604
0.0312338
0.0323906
0.0331676
0.0336517
0.0338941
0.001149
0.00687206
0.0123369
0.0162512
0.0144018
-0.000978364
-0.0324407
-0.0632383
-0.0750674
-0.0733144
-0.0649194
-0.0572901
-0.0476581
-0.037577
-0.0263657
0.0594159
0.0610511
0.0282941
0.0210735
0.0209702
0.0230764
0.0253288
0.0273119
0.0289065
0.0301248
0.0310251
0.0316735
0.0321235
0.0324094
0.0325482
0.00109407
0.00633629
0.0110706
0.0138603
0.0108821
-0.00348205
-0.0293978
-0.0538526
-0.0643086
-0.063483
-0.0568962
-0.0489267
-0.0390395
-0.0272764
-0.00726396
0.0375149
0.0502888
0.0397244
0.0328247
0.0297704
0.0289301
0.0290183
0.0294411
0.0299332
0.0303813
0.0307495
0.0310377
0.0312536
0.0313997
0.0314708
0.00101937
0.00574799
0.00975331
0.0115532
0.00784767
-0.00517249
-0.0262675
-0.0455233
-0.0543733
-0.0541087
-0.0487312
-0.0410473
-0.031279
-0.0188043
-0.000668291
0.0236678
0.0358835
0.0355792
0.0330798
0.0311954
0.0301801
0.0297416
0.0296141
0.0296349
0.0297149
0.0298127
0.0299123
0.0300058
0.0300823
0.0301262
0.000926428
0.00511214
0.00840992
0.00938302
0.00532253
-0.00613928
-0.0230692
-0.038056
-0.0452669
-0.0452538
-0.0407578
-0.0337096
-0.024585
-0.0131443
0.00104585
0.0158309
0.0251268
0.0283214
0.0288078
0.0285499
0.0282343
0.0280215
0.0279103
0.0278678
0.0278677
0.0278959
0.0279447
0.028006
0.0280674
0.0281131
0.000816587
0.00443556
0.00706579
0.00739504
0.00331431
-0.00647038
-0.0198192
-0.0312943
-0.0369532
-0.0369852
-0.0332092
-0.0270201
-0.0190143
-0.00945182
0.0011069
0.0109341
0.0178577
0.0216229
0.023384
0.0241579
0.0245009
0.0246668
0.0247617
0.0248301
0.0248923
0.0249586
0.0250324
0.0251105
0.0251843
0.0252436
0.000691352
0.00372616
0.00574555
0.00562335
0.00180914
-0.00625002
-0.0165243
-0.0251095
-0.0293734
-0.0293502
-0.0262272
-0.0210405
-0.0144359
-0.00692384
0.000772466
0.00760948
0.0127405
0.0160862
0.0180979
0.0192748
0.0199708
0.0203976
0.0206741
0.0208683
0.0210186
0.0211466
0.0212616
0.0213645
0.0214518
0.0215208
0.000552
0.00299114
0.00446764
0.00408387
0.000774317
-0.00555935
-0.0131871
-0.0193882
-0.0224455
-0.0223434
-0.0198566
-0.0157568
-0.0106487
-0.00506708
0.000397283
0.00515934
0.00886348
0.0114963
0.0132667
0.0144289
0.0151914
0.0157006
0.0160527
0.0163094
0.0165082
0.0166702
0.0168048
0.0169147
0.0170022
0.0170705
0.000399067
0.00223489
0.00324108
0.00277364
0.000160337
-0.00447504
-0.00980125
-0.0140214
-0.0160634
-0.0159098
-0.0140684
-0.0110917
-0.00746461
-0.0036214
3.5055e-05
0.00318833
0.00568484
0.00753385
0.00884499
0.00975457
0.0103831
0.0108228
0.0111396
0.0113773
0.0115621
0.0117092
0.0118268
0.0119202
0.011994
0.0120528
0.000231914
0.00145555
0.00205869
0.00166287
-0.000102403
-0.00306693
-0.00634588
-0.00888701
-0.0100837
-0.00993248
-0.00876155
-0.00691692
-0.0047191
-0.00245034
-0.000342501
0.00144916
0.00286343
0.00391626
0.0046687
0.00519473
0.00556142
0.0058214
0.00601194
0.00615648
0.00626855
0.00635645
0.00642605
0.0064819
0.00652783
0.00656672
4.80207e-05
0.000641545
0.000890772
0.000689236
-0.000105605
-0.00139096
-0.00277825
-0.00383166
-0.00431005
-0.00421129
-0.00375004
-0.00305363
-0.0022545
-0.00147157
-0.00078754
-0.000248576
0.000135146
0.00038086
0.000520177
0.0005876
0.000612344
0.000615464
0.000610131
0.000602914
0.000596467
0.000592396
0.000591969
0.000595508
0.00060266
0.00061301
0.122002
0.122027
0.121848
0.121433
0.120762
0.119838
0.118686
0.117369
0.116139
0.115973
0.119194
0.128767
0.13228
0.137755
14.1066
102.135
107.518
111.497
113.937
113.791
108.411
103.506
101.407
99.6262
99.4816
99.0534
82.215
55.0804
31.6052
13.0346
0.119443
0.119493
0.119357
0.118993
0.118373
0.117503
0.116443
0.115295
0.114243
0.114018
0.116779
0.124267
0.122692
0.106494
12.1337
102.399
108.449
112.394
114.829
114.726
108.735
103.471
101.435
99.5525
53.5296
1.86347
0.0437178
0.0181522
0.00787338
0.000324443
0.116624
0.116696
0.116604
0.116298
0.11574
0.114927
0.113919
0.112851
0.111918
0.111638
0.113768
0.119552
0.112166
0.0737463
4.28631
101.426
109.509
113.359
115.791
115.786
109.065
103.388
101.068
11.4105
0.777778
0.212774
0.0436644
0.0181754
0.00787892
0.000356409
0.113526
0.113616
0.113559
0.113307
0.112814
0.112059
0.111079
0.110008
0.109076
0.108709
0.110167
0.114414
0.103606
0.0706316
-0.0762561
96.2839
110.686
114.38
116.825
117.001
109.404
103.239
53.531
-0.0408282
-0.157754
0.211291
0.0434613
0.018173
0.00787779
0.000501653
0.110124
0.110224
0.110193
0.109982
0.109542
0.108835
0.107864
0.106729
0.10567
0.105096
0.105882
0.10879
0.100421
0.0852465
0.437056
84.3896
111.984
115.464
117.927
118.495
109.692
91.2168
8.17843
-0.04621
-0.214859
0.30479
0.0424988
0.0181109
0.0078671
0.000682513
0.106389
0.106498
0.10648
0.106291
0.10588
0.105193
0.104203
0.102959
0.101668
0.100715
0.100754
0.103038
0.0995443
0.0885346
0.411292
96.7396
113.411
116.576
118.961
120.328
108.329
47.3214
-0.189486
-0.065149
-0.27609
0.229296
0.0410469
0.0179882
0.00784661
0.000858697
0.102288
0.1024
0.102385
0.102197
0.101781
0.101071
0.100013
0.098609
0.0970041
0.0955141
0.0948069
0.0964346
0.0940313
0.0829999
-0.0397815
107.006
114.868
117.679
120.393
122.012
100.229
2.93567
-0.164165
-0.0740597
-0.268293
0.102181
0.0397777
0.017786
0.00781185
0.00103301
0.0977891
0.0978995
0.0978757
0.0976664
0.0972069
0.0964197
0.0952264
0.0935898
0.0915764
0.0893881
0.0877247
0.0870482
0.0838111
0.072325
0.0742585
90.8084
116.144
118.686
123.181
122.993
56.5134
-0.141696
-0.153046
-0.0837238
-0.24387
0.0819797
0.0381071
0.0174967
0.00775994
0.00120132
0.0928617
0.0929654
0.0929196
0.0926643
0.0921225
0.0911995
0.0897937
0.0878239
0.0852578
0.0821039
0.0786749
0.074613
0.0719714
0.0604929
0.0568663
57.7562
117.232
118.867
124.905
122.722
2.1488
-0.16203
-0.148102
-0.0917099
-0.213179
0.0642638
0.0359433
0.0170999
0.00768581
0.00136012
0.0874912
0.0875816
0.087499
0.087172
0.0865082
0.0853932
0.0836945
0.0812702
0.0779502
0.0734742
0.067583
0.060099
0.0573799
0.0357007
0.0364724
7.92319
119.052
118.24
127.342
89.3077
0.0306604
-0.160179
-0.143381
-0.0999351
-0.18493
0.048383
0.0333277
0.0165893
0.00758543
0.0015059
0.0816815
0.081751
0.0816153
0.0811907
0.0803678
0.0790086
0.0769393
0.0739287
0.0696142
0.0633758
0.0544074
0.0422029
0.0368939
0.00173267
0.0426929
0.949762
124.267
118.575
129.035
25.2051
-0.0266619
-0.155094
-0.138578
-0.102693
-0.161631
0.0344584
0.0303281
0.0159523
0.00745273
0.00163565
0.07547
0.0755108
0.0753064
0.0747613
0.0737487
0.0721022
0.0695925
0.0658674
0.060314
0.051809
0.0384979
0.0173316
0.0405607
-0.00375932
0.0159328
0.352931
128.661
120.345
129.069
5.71058
-0.0450993
-0.147748
-0.132938
-0.101755
-0.141686
0.0226275
0.0270252
0.015187
0.00728282
0.00174652
0.0689469
0.0689513
0.0686661
0.0679849
0.0667637
0.064803
0.0618034
0.0572664
0.0502834
0.0391134
0.0203136
-0.0129461
0.0249529
-0.10822
-0.0391991
0.373676
128.842
123.437
132.39
0.321335
-0.0448957
-0.138746
-0.126252
-0.100647
-0.12382
0.0119724
0.0235162
0.0142884
0.00706983
0.0018357
0.0622641
0.0622268
0.0618561
0.0610366
0.0596072
0.0573336
0.0538387
0.0484688
0.0400046
0.0260403
0.0013491
-0.0465754
-0.136714
-0.251664
-0.0991168
0.22071
126.117
131.422
111.552
0.0447955
-0.0509476
-0.128514
-0.119651
-0.0942374
-0.107811
0.00310128
0.0198926
0.0132619
0.0068097
0.00190086
0.0556532
0.0555734
0.0551239
0.054183
0.0525765
0.0500376
0.0461196
0.040033
0.0302875
0.0138785
-0.0160495
-0.076441
-0.196817
-0.342333
-0.157308
0.239591
126.174
146.169
50.9577
-0.0268729
-0.054015
-0.116986
-0.112371
-0.0881565
-0.0935686
-0.00376333
0.0162641
0.0121157
0.0064987
0.00193966
0.0494175
0.0492989
0.0487898
0.0477682
0.0460537
0.0433603
0.0391995
0.0327028
0.0222244
0.00438583
-0.0286457
-0.0988598
-0.250485
-0.421865
-0.20086
0.390815
87.9892
160.803
5.43013
-0.130594
-0.0568302
-0.104665
-0.104234
-0.0826304
-0.0810188
-0.00889188
0.0127189
0.0108663
0.00613528
0.00195029
0.0439
0.0437504
0.0432128
0.0421731
0.0404575
0.0377847
0.0336725
0.0272713
0.0169841
-0.000494612
-0.0323503
-0.100063
-0.223312
-0.425182
-0.270459
0.406505
-0.339151
26.2335
0.0179371
-0.0852766
-0.0605868
-0.0929361
-0.0953738
-0.0772702
-0.070126
-0.0125452
0.00935461
0.00953534
0.0057189
0.00193146
0.0394075
0.039238
0.0387117
0.0377316
0.0361467
0.0337096
0.0300034
0.0243175
0.0153801
0.000742945
-0.0251198
-0.0763199
-0.16085
-0.298564
-0.269473
-0.378043
-0.35583
0.0961718
-0.0238713
-0.0826612
-0.0629714
-0.0826975
-0.0862659
-0.0717743
-0.0608736
-0.0150006
0.0062415
0.00815055
0.00525186
0.0018825
0.0361061
0.0359317
0.0354578
0.0346121
0.0332804
0.0312751
0.0282878
0.0238222
0.0170553
0.0065033
-0.0107867
-0.0424626
-0.0978693
-0.161996
-0.0965954
-0.467118
-0.208134
-0.0136276
-0.0459659
-0.0667956
-0.0617632
-0.0739572
-0.0773297
-0.0660125
-0.0531454
-0.0164967
0.00344805
0.00674436
0.00473875
0.00180366
0.0339286
0.0337652
0.0333759
0.0327168
0.0317161
0.0302549
0.0281436
0.0251