/*--------------------------------*- C++ -*----------------------------------*\
| =========                 |                                                 |
| \\      /  F ield         | OpenFOAM: The Open Source CFD Toolbox           |
|  \\    /   O peration     | Version:  2.4.0                                 |
|   \\  /    A nd           | Web:      www.OpenFOAM.org                      |
|    \\/     M anipulation  |                                                 |
\*---------------------------------------------------------------------------*/
FoamFile
{
    version     2.0;
    format      ascii;
    class       surfaceScalarField;
    location    "0.028";
    object      phiAlpha;
}
// * * * * * * * * * * * * * * * * * * * * * * * * * * * * * * * * * * * * * //

dimensions      [0 3 -1 0 0 0 0];

internalField   nonuniform List<scalar> 
28560
(
-2.59381e-10
7.1481e-10
-4.55429e-10
5.6769e-10
-8.73473e-10
3.05783e-10
1.23201e-09
-1.62082e-09
3.88814e-10
2.08752e-09
-2.58895e-09
5.01439e-10
3.17647e-09
-3.78619e-09
6.09716e-10
4.47172e-09
-5.14981e-09
6.78086e-10
5.87156e-09
-6.53646e-09
6.64898e-10
7.17555e-09
-7.67526e-09
4.99714e-10
8.03401e-09
-8.16426e-09
1.30254e-10
8.04137e-09
-7.6482e-09
-3.93171e-10
6.93332e-09
-5.9705e-09
-9.62811e-10
4.67477e-09
-3.20885e-09
-1.46593e-09
1.46468e-09
3.25904e-10
-1.79059e-09
-2.27847e-09
4.12687e-09
-1.84841e-09
-6.01681e-09
7.67758e-09
-1.66078e-09
-9.22546e-09
1.05098e-08
-1.28434e-09
-1.15911e-08
1.23927e-08
-8.01675e-10
-1.2931e-08
1.31777e-08
-2.46712e-10
-1.31961e-08
1.2971e-08
2.25119e-10
-1.24975e-08
1.19068e-08
5.90662e-10
-1.11195e-08
1.02731e-08
8.46473e-10
-9.32257e-09
8.39137e-09
9.31202e-10
-7.41648e-09
6.52174e-09
8.94732e-10
-5.64115e-09
4.86916e-09
7.71987e-10
-4.13269e-09
3.50927e-09
6.23419e-10
-2.93149e-09
2.45215e-09
4.79333e-10
-2.01424e-09
1.65331e-09
3.6093e-10
-1.32348e-09
1.04938e-09
2.74101e-10
-7.94722e-10
5.78025e-10
2.16697e-10
-3.70859e-10
1.89503e-10
1.81355e-10
-1.22826e-09
1.75446e-09
-5.26198e-10
1.11679e-09
-1.74404e-09
-8.57796e-10
1.48505e-09
2.51019e-09
-3.37689e-09
-1.13832e-09
2.00501e-09
4.46568e-09
-5.69464e-09
-1.54419e-09
2.77316e-09
7.21577e-09
-8.89614e-09
-2.00425e-09
3.68462e-09
1.09261e-08
-1.31107e-08
-2.44259e-09
4.62721e-09
1.56811e-08
-1.83692e-08
-2.76232e-09
5.45039e-09
2.1431e-08
-2.45131e-08
-2.78888e-09
5.87105e-09
2.78801e-08
-3.11264e-08
-2.36573e-09
5.61195e-09
3.45284e-08
-3.76822e-08
-1.54432e-09
4.69811e-09
4.08617e-08
-4.36882e-08
-4.97452e-10
3.32394e-09
4.64023e-08
-4.86753e-08
5.9703e-10
1.676e-09
5.06984e-08
-5.22329e-08
1.53197e-09
2.6132e-12
5.34162e-08
-5.41201e-08
2.12092e-09
-1.41701e-09
5.44248e-08
-5.43111e-08
2.31903e-09
-2.43269e-09
5.37868e-08
-5.29497e-08
2.18319e-09
-3.0203e-09
5.17378e-08
-5.03367e-08
1.82071e-09
-3.22186e-09
4.86348e-08
-4.68676e-08
1.30053e-09
-3.06774e-09
4.49016e-08
-4.29738e-08
7.77627e-10
-2.70548e-09
4.0912e-08
-3.89607e-08
3.38737e-10
-2.29004e-09
3.69149e-08
-3.49868e-08
5.56157e-11
-1.98379e-09
3.29747e-08
-3.10703e-08
-1.06735e-11
-1.89377e-09
2.90694e-08
-2.71633e-08
1.02598e-10
-2.0087e-09
2.51511e-08
-2.32321e-08
3.19867e-10
-2.23881e-09
2.12059e-08
-1.92819e-08
5.54265e-10
-2.47824e-09
1.72662e-08
-1.53696e-08
7.47286e-10
-2.64388e-09
1.34007e-08
-1.15672e-08
8.71036e-10
-2.70454e-09
9.6849e-09
-7.94934e-09
9.21109e-10
-2.65667e-09
6.1849e-09
-4.57202e-09
9.09752e-10
-2.52264e-09
2.94475e-09
-1.47067e-09
8.54916e-10
-2.329e-09
-2.2822e-09
2.8088e-09
-5.266e-10
1.14915e-09
-1.79594e-09
-2.12949e-09
2.77628e-09
2.58821e-09
-3.4871e-09
-2.89926e-09
3.79815e-09
4.61977e-09
-5.90245e-09
-4.04771e-09
5.33039e-09
7.4958e-09
-9.26283e-09
-5.43832e-09
7.20535e-09
1.14068e-08
-1.37258e-08
-6.92405e-09
9.24296e-09
1.64699e-08
-1.93591e-08
-8.30358e-09
1.11928e-08
2.26762e-08
-2.60471e-08
-9.18645e-09
1.25574e-08
2.97703e-08
-3.34067e-08
-9.17003e-09
1.28065e-08
3.72751e-08
-4.09233e-08
-8.24364e-09
1.18918e-08
4.46724e-08
-4.80768e-08
-6.60532e-09
1.00097e-08
5.14214e-08
-5.42922e-08
-4.41899e-09
7.28976e-09
5.69164e-08
-5.89662e-08
-1.94852e-09
3.99828e-09
6.06055e-08
-6.16385e-08
4.38103e-10
5.94932e-10
6.21608e-08
-6.21257e-08
2.45852e-09
-2.49354e-09
6.155e-08
-6.05405e-08
3.96137e-09
-4.97081e-09
5.90417e-08
-5.72798e-08
4.87761e-09
-6.63946e-09
5.51382e-08
-5.29138e-08
5.17607e-09
-7.40048e-09
5.04465e-08
-4.80463e-08
5.0006e-09
-7.40084e-09
4.55091e-08
-4.31283e-08
4.59078e-09
-6.97161e-09
4.06707e-08
-3.83899e-08
4.21567e-09
-6.49645e-09
3.60456e-08
-3.38622e-08
4.05304e-09
-6.2365e-09
3.16e-08
-2.94725e-08
4.12599e-09
-6.25344e-09
2.72477e-08
-2.51437e-08
4.33508e-09
-6.43901e-09
2.29351e-08
-2.08466e-08
4.55454e-09
-6.64301e-09
1.86642e-08
-1.66133e-08
4.67517e-09
-6.72602e-09
1.44864e-08
-1.25059e-08
4.6588e-09
-6.63933e-09
1.04724e-08
-8.59685e-09
4.50159e-09
-6.3771e-09
6.6894e-09
-4.94556e-09
4.23485e-09
-5.97869e-09
3.18522e-09
-1.59037e-09
3.89351e-09
-5.48837e-09
-3.33375e-09
3.85654e-09
-5.22791e-10
1.14593e-09
-1.79046e-09
-3.42236e-09
4.06689e-09
2.58025e-09
-3.47677e-09
-4.69711e-09
5.59362e-09
4.60684e-09
-5.88707e-09
-6.61334e-09
7.89356e-09
7.47795e-09
-9.24308e-09
-8.97262e-09
1.07378e-08
1.13857e-08
-1.37046e-08
-1.15637e-08
1.38825e-08
1.64511e-08
-1.93463e-08
-1.4088e-08
1.69833e-08
2.26755e-08
-2.60641e-08
-1.59412e-08
1.93299e-08
2.98124e-08
-3.34782e-08
-1.64633e-08
2.01292e-08
3.73835e-08
-4.10731e-08
-1.5568e-08
1.92575e-08
4.48728e-08
-4.83321e-08
-1.345e-08
1.69093e-08
5.174e-08
-5.46728e-08
-1.02001e-08
1.31329e-08
5.73602e-08
-5.94628e-08
-6.07957e-09
8.18215e-09
6.11473e-08
-6.22097e-08
-1.64275e-09
2.7052e-09
6.27474e-08
-6.27113e-08
2.53497e-09
-2.57104e-09
6.2121e-08
-6.10803e-08
6.00522e-09
-7.04594e-09
5.95357e-08
-5.77164e-08
8.43931e-09
-1.02586e-08
5.55075e-08
-5.3216e-08
9.66527e-09
-1.19568e-08
5.06793e-08
-4.82234e-08
9.83383e-09
-1.22898e-08
4.56439e-08
-4.32416e-08
9.36748e-09
-1.17698e-08
4.07851e-08
-3.8528e-08
8.76992e-09
-1.10271e-08
3.6229e-08
-3.41039e-08
8.39613e-09
-1.05213e-08
3.19129e-08
-2.98548e-08
8.35178e-09
-1.04099e-08
2.76982e-08
-2.5648e-08
8.52058e-09
-1.05708e-08
2.34807e-08
-2.1414e-08
8.72295e-09
-1.07897e-08
1.92356e-08
-1.71717e-08
8.78333e-09
-1.08472e-08
1.50142e-08
-1.29908e-08
8.63953e-09
-1.06629e-08
1.09e-08
-8.96182e-09
8.28096e-09
-1.02191e-08
6.98222e-09
-5.16639e-09
7.75468e-09
-9.57051e-09
3.32925e-09
-1.66233e-09
7.1151e-09
-8.78202e-09
-4.37705e-09
4.89468e-09
-5.17627e-10
1.13993e-09
-1.78033e-09
-4.70954e-09
5.34994e-09
2.56533e-09
-3.45695e-09
-6.48722e-09
7.37884e-09
4.58119e-09
-5.85524e-09
-9.17034e-09
1.04444e-08
7.43894e-09
-9.19675e-09
-1.24997e-08
1.42575e-08
1.13313e-08
-1.36425e-08
-1.61981e-08
1.85093e-08
1.6382e-08
-1.92737e-08
-1.98769e-08
2.27686e-08
2.2604e-08
-2.59991e-08
-2.27216e-08
2.61167e-08
2.97592e-08
-3.34399e-08
-2.38023e-08
2.74829e-08
3.73645e-08
-4.10768e-08
-2.29581e-08
2.66703e-08
4.49071e-08
-4.8403e-08
-2.03859e-08
2.38818e-08
5.18575e-08
-5.48405e-08
-1.60885e-08
1.90715e-08
5.7584e-08
-5.97403e-08
-1.03087e-08
1.2465e-08
6.14786e-08
-6.25877e-08
-3.7882e-09
4.8973e-09
6.31666e-08
-6.31605e-08
2.59458e-09
-2.60063e-09
6.25892e-08
-6.15502e-08
8.08667e-09
-9.12568e-09
5.99891e-08
-5.81343e-08
1.20949e-08
-1.39497e-08
5.587e-08
-5.35146e-08
1.42774e-08
-1.66329e-08
5.09062e-08
-4.83884e-08
1.47729e-08
-1.72907e-08
4.57605e-08
-4.33357e-08
1.41811e-08
-1.66059e-08
4.08864e-08
-3.86672e-08
1.32657e-08
-1.54849e-08
3.64384e-08
-3.44037e-08
1.26046e-08
-1.46393e-08
3.23235e-08
-3.03749e-08
1.24185e-08
-1.4367e-08
2.83276e-08
-2.63658e-08
1.25816e-08
-1.45434e-08
2.42694e-08
-2.2244e-08
1.28385e-08
-1.48639e-08
2.00804e-08
-1.80032e-08
1.29178e-08
-1.4995e-08
1.58056e-08
-1.37225e-08
1.27138e-08
-1.4797e-08
1.15499e-08
-9.51938e-09
1.21993e-08
-1.42298e-08
7.43144e-09
-5.50636e-09
1.14356e-08
-1.33606e-08
3.55137e-09
-1.77329e-09
1.04986e-08
-1.22767e-08
-5.40922e-09
5.9203e-09
-5.11089e-10
1.13207e-09
-1.76699e-09
-5.98781e-09
6.62273e-09
2.54572e-09
-3.43084e-09
-8.26783e-09
9.15295e-09
4.54734e-09
-5.8131e-09
-1.17151e-08
1.29809e-08
7.38714e-09
-9.13499e-09
-1.60106e-08
1.77584e-08
1.12583e-08
-1.35587e-08
-2.08154e-08
2.31158e-08
1.62881e-08
-1.91736e-08
-2.56574e-08
2.8543e-08
2.25036e-08
-2.59053e-08
-2.95153e-08
3.2917e-08
2.96784e-08
-3.33761e-08
-3.11717e-08
3.48695e-08
3.73231e-08
-4.10624e-08
-3.03952e-08
3.41345e-08
4.49301e-08
-4.84722e-08
-2.73998e-08
3.09419e-08
5.19873e-08
-5.50373e-08
-2.20859e-08
2.51359e-08
5.78581e-08
-6.00898e-08
-1.46564e-08
1.68881e-08
6.19062e-08
-6.30842e-08
-6.038e-09
7.21598e-09
6.3727e-08
-6.37697e-08
2.58445e-09
-2.5417e-09
6.32328e-08
-6.2206e-08
1.01598e-08
-1.11866e-08
6.06287e-08
-5.87309e-08
1.58247e-08
-1.77225e-08
5.63931e-08
-5.39484e-08
1.90297e-08
-2.14744e-08
5.12351e-08
-4.86228e-08
1.9851e-08
-2.24632e-08
4.59149e-08
-4.34457e-08
1.90496e-08
-2.15188e-08
4.09912e-08
-3.88128e-08
1.7684e-08
-1.98624e-08
3.66729e-08
-3.47603e-08
1.66174e-08
-1.853e-08
3.28371e-08
-3.10495e-08
1.62428e-08
-1.80304e-08
2.91676e-08
-2.73438e-08
1.64436e-08
-1.82675e-08
2.53614e-08
-2.34068e-08
1.68588e-08
-1.88135e-08
2.12763e-08
-1.91911e-08
1.70773e-08
-1.91625e-08
1.69467e-08
-1.47861e-08
1.69167e-08
-1.90773e-08
1.25019e-08
-1.03422e-08
1.632e-08
-1.84798e-08
8.09923e-09
-6.01454e-09
1.53582e-08
-1.74429e-08
3.88467e-09
-1.94e-09
1.41299e-08
-1.60746e-08
-6.42773e-09
6.93088e-09
-5.03155e-10
1.12263e-09
-1.75086e-09
-7.25455e-09
7.88278e-09
2.52191e-09
-3.39917e-09
-1.00342e-08
1.09115e-08
4.50623e-09
-5.76189e-09
-1.42415e-08
1.54972e-08
7.32405e-09
-9.05968e-09
-1.95004e-08
2.1236e-08
1.11692e-08
-1.34561e-08
-2.54099e-08
2.76968e-08
1.61725e-08
-1.90499e-08
-3.14249e-08
3.43022e-08
2.23787e-08
-2.57881e-08
-3.63227e-08
3.9732e-08
2.95768e-08
-3.32945e-08
-3.85771e-08
4.22948e-08
3.72681e-08
-4.10397e-08
-3.789e-08
4.16617e-08
4.49525e-08
-4.85519e-08
-3.45112e-08
3.81106e-08
5.21434e-08
-5.52792e-08
-2.82265e-08
3.13624e-08
5.82e-08
-6.05307e-08
-1.91663e-08
2.14969e-08
6.24501e-08
-6.37207e-08
-8.43749e-09
9.70806e-09
6.44507e-08
-6.45622e-08
2.46715e-09
-2.35564e-09
6.40768e-08
-6.30711e-08
1.22043e-08
-1.321e-08
6.14815e-08
-5.95328e-08
1.96453e-08
-2.1594e-08
5.71007e-08
-5.45346e-08
2.39754e-08
-2.65415e-08
5.16756e-08
-4.89258e-08
2.51383e-08
-2.78882e-08
4.60926e-08
-4.35448e-08
2.40222e-08
-2.65699e-08
4.10635e-08
-3.89222e-08
2.20215e-08
-2.41628e-08
3.68886e-08
-3.51369e-08
2.03675e-08
-2.21192e-08
3.34321e-08
-3.18777e-08
1.97122e-08
-2.12666e-08
3.02437e-08
-2.86327e-08
1.99965e-08
-2.16075e-08
2.68324e-08
-2.49977e-08
2.07159e-08
-2.25506e-08
2.29342e-08
-2.08558e-08
2.1247e-08
-2.33253e-08
1.85638e-08
-1.63101e-08
2.1283e-08
-2.35368e-08
1.38828e-08
-1.15497e-08
2.07205e-08
-2.30536e-08
9.09158e-09
-6.7774e-09
1.96322e-08
-2.19464e-08
4.3894e-09
-2.19474e-09
1.81314e-08
-2.03261e-08
-7.42963e-09
7.92352e-09
-4.93896e-10
1.11143e-09
-1.73159e-09
-8.50716e-09
9.12733e-09
2.49349e-09
-3.36134e-09
-1.17841e-08
1.2652e-08
4.45712e-09
-5.70053e-09
-1.67471e-08
1.79905e-08
7.24846e-09
-8.96923e-09
-2.29645e-08
2.46853e-08
1.10619e-08
-1.33322e-08
-2.99757e-08
3.22459e-08
1.60321e-08
-1.88986e-08
-3.71742e-08
4.00407e-08
2.22249e-08
-2.56422e-08
-4.3145e-08
4.65623e-08
2.94481e-08
-3.31884e-08
-4.60232e-08
4.97635e-08
3.71916e-08
-4.09996e-08
-4.54505e-08
4.92584e-08
4.49644e-08
-4.86309e-08
-4.17423e-08
4.54089e-08
5.2314e-08
-5.55542e-08
-3.45479e-08
3.77882e-08
5.85982e-08
-6.10513e-08
-2.38858e-08
2.63389e-08
6.30998e-08
-6.44871e-08
-1.10337e-08
1.24211e-08
6.53293e-08
-6.55317e-08
2.20176e-09
-1.99935e-09
6.51178e-08
-6.41487e-08
1.41995e-08
-1.51687e-08
6.25533e-08
-6.05485e-08
2.35699e-08
-2.55747e-08
5.80012e-08
-5.52791e-08
2.91811e-08
-3.19032e-08
5.22228e-08
-4.9278e-08
3.07269e-08
-3.36717e-08
4.62588e-08
-4.35808e-08
2.91748e-08
-3.18527e-08
4.10337e-08
-3.89154e-08
2.62895e-08
-2.84079e-08
3.70018e-08
-3.54563e-08
2.37737e-08
-2.53193e-08
3.40516e-08
-3.2834e-08
2.26677e-08
-2.38853e-08
3.15703e-08
-3.02869e-08
2.30723e-08
-2.43557e-08
2.87757e-08
-2.714e-08
2.42978e-08
-2.59336e-08
2.51993e-08
-2.31578e-08
2.53899e-08
-2.74314e-08
2.0831e-08
-1.84785e-08
2.58402e-08
-2.81927e-08
1.58829e-08
-1.33346e-08
2.54896e-08
-2.80378e-08
1.05928e-08
-7.95267e-09
2.44094e-08
-2.70496e-08
5.18087e-09
-2.60422e-09
2.26909e-08
-2.52676e-08
-8.41233e-09
8.89555e-09
-4.83216e-10
1.09853e-09
-1.70927e-09
-9.74302e-09
1.03538e-08
2.46053e-09
-3.31739e-09
-1.35149e-08
1.43718e-08
4.4e-09
-5.62921e-09
-1.92268e-08
2.0456e-08
7.16036e-09
-8.86377e-09
-2.63976e-08
2.8101e-08
1.09366e-08
-1.31869e-08
-3.45066e-08
3.67569e-08
1.58668e-08
-1.87194e-08
-4.29008e-08
4.57533e-08
2.20414e-08
-2.5467e-08
-4.99837e-08
5.34094e-08
2.92922e-08
-3.30573e-08
-5.3516e-08
5.72811e-08
3.70928e-08
-4.09405e-08
-5.3086e-08
5.69337e-08
4.49631e-08
-4.87061e-08
-4.91126e-08
5.28556e-08
5.24957e-08
-5.58594e-08
-4.10879e-08
4.44517e-08
5.905e-08
-6.16505e-08
-2.88626e-08
3.14631e-08
6.3855e-08
-6.5385e-08
-1.38764e-08
1.54064e-08
6.63658e-08
-6.66837e-08
1.74256e-09
-1.42464e-09
6.63665e-08
-6.54541e-08
1.61121e-08
-1.70245e-08
6.3866e-08
-6.18046e-08
2.76083e-08
-2.96697e-08
5.91222e-08
-5.62032e-08
3.47188e-08
-3.76378e-08
5.2886e-08
-4.96722e-08
3.67407e-08
-3.99545e-08
4.63818e-08
-4.34975e-08
3.46223e-08
-3.75066e-08
4.08203e-08
-3.86903e-08
3.0526e-08
-3.26559e-08
3.68958e-08
-3.56033e-08
2.67441e-08
-2.80366e-08
3.4605e-08
-3.38709e-08
2.48829e-08
-2.56171e-08
3.31593e-08
-3.2379e-08
2.54143e-08
-2.61946e-08
3.13232e-08
-3.00086e-08
2.74273e-08
-2.8742e-08
2.82724e-08
-2.63113e-08
2.94387e-08
-3.13998e-08
2.39826e-08
-2.15503e-08
3.05898e-08
-3.30222e-08
1.87875e-08
-1.60151e-08
3.07016e-08
-3.3474e-08
1.29463e-08
-9.84828e-09
2.98997e-08
-3.29978e-08
6.49409e-09
-3.32083e-09
2.81092e-08
-3.12825e-08
-9.37293e-09
9.84402e-09
-4.71091e-10
1.08418e-09
-1.68421e-09
-1.09594e-08
1.15594e-08
2.42341e-09
-3.268e-09
-1.52223e-08
1.60669e-08
4.33575e-09
-5.5489e-09
-2.16775e-08
2.28907e-08
7.06122e-09
-8.74496e-09
-2.97952e-08
3.14789e-08
1.07952e-08
-1.30226e-08
-3.89963e-08
4.12237e-08
1.56791e-08
-1.85149e-08
-4.85981e-08
5.14339e-08
2.18313e-08
-2.52663e-08
-5.68397e-08
6.02747e-08
2.91132e-08
-3.29061e-08
-6.10599e-08
6.48528e-08
3.69772e-08
-4.08678e-08
-6.08028e-08
6.46934e-08
4.49536e-08
-4.87823e-08
-5.66407e-08
6.04694e-08
5.26938e-08
-5.62009e-08
-4.78848e-08
5.13919e-08
5.95634e-08
-6.23374e-08
-3.41473e-08
3.69214e-08
6.47264e-08
-6.64263e-08
-1.70181e-08
1.8718e-08
6.75751e-08
-6.80365e-08
1.03848e-09
-5.77063e-10
6.78458e-08
-6.70171e-08
1.78991e-08
-1.87278e-08
6.54584e-08
-6.3347e-08
3.17578e-08
-3.38692e-08
6.05125e-08
-5.73516e-08
4.06723e-08
-4.38332e-08
5.36965e-08
-5.01169e-08
4.33378e-08
-4.69175e-08
4.64377e-08
-4.32343e-08
4.05339e-08
-4.37374e-08
4.03241e-08
-3.81119e-08
3.48155e-08
-3.70276e-08
3.64024e-08
-3.53985e-08
2.91877e-08
-3.01916e-08
3.49426e-08
-3.49004e-08
2.6036e-08
-2.60782e-08
3.50052e-08
-3.49867e-08
2.66317e-08
-2.66502e-08
3.46341e-08
-3.38181e-08
2.98328e-08
-3.06488e-08
3.2376e-08
-3.05314e-08
3.33051e-08
-3.51498e-08
2.82708e-08
-2.58419e-08
3.54716e-08
-3.79005e-08
2.29806e-08
-2.00789e-08
3.63322e-08
-3.92338e-08
1.67439e-08
-1.29963e-08
3.63901e-08
-4.01376e-08
8.73927e-09
-4.64806e-09
3.48678e-08
-3.8959e-08
-1.03087e-08
1.07663e-08
-4.57614e-10
1.06825e-09
-1.65616e-09
-1.21535e-08
1.27414e-08
2.38184e-09
-3.21261e-09
-1.69052e-08
1.77359e-08
4.26372e-09
-5.45877e-09
-2.4095e-08
2.52901e-08
6.94978e-09
-8.61137e-09
-3.31516e-08
3.48132e-08
1.0636e-08
-1.28371e-08
-4.34383e-08
4.56394e-08
1.54659e-08
-1.82812e-08
-5.42597e-08
5.70751e-08
2.15896e-08
-2.50346e-08
-6.37144e-08
6.71594e-08
2.89056e-08
-3.27284e-08
-6.86601e-08
7.24829e-08
3.68366e-08
-4.07718e-08
-6.86059e-08
7.25411e-08
4.4924e-08
-4.8846e-08
-6.43433e-08
6.82653e-08
5.28937e-08
-5.65639e-08
-5.49779e-08
5.86482e-08
6.0124e-08
-6.30987e-08
-3.97921e-08
4.27668e-08
6.5702e-08
-6.76002e-08
-2.05133e-08
2.24115e-08
6.89475e-08
-6.9583e-08
3.28631e-11
6.02609e-10
6.95548e-08
-6.88462e-08
1.95018e-08
-2.02105e-08
6.73521e-08
-6.521e-08
3.59994e-08
-3.81415e-08
6.22162e-08
-5.87666e-08
4.7132e-08
-5.05816e-08
5.46838e-08
-5.06155e-08
5.07242e-08
-5.47925e-08
4.63894e-08
-4.27047e-08
4.71572e-08
-5.08419e-08
3.94045e-08
-3.69841e-08
3.93233e-08
-4.17437e-08
3.5254e-08
-3.45286e-08
3.10496e-08
-3.1775e-08
3.47906e-08
-3.57283e-08
2.56712e-08
-2.47336e-08
3.69706e-08
-3.79883e-08
2.61736e-08
-2.51559e-08
3.85764e-08
-3.84592e-08
3.11379e-08
-3.12551e-08
3.7374e-08
-3.56982e-08
3.69292e-08
-3.8605e-08
3.38419e-08
-3.18363e-08
4.02219e-08
-4.22275e-08
2.91154e-08
-2.61898e-08
4.21354e-08
-4.5061e-08
2.25641e-08
-1.77558e-08
4.43349e-08
-4.91432e-08
1.20518e-08
-6.58403e-09
4.36655e-08
-4.91333e-08
-1.12166e-08
1.16592e-08
-4.42637e-10
1.05077e-09
-1.62518e-09
-1.33229e-08
1.38973e-08
2.3358e-09
-3.15135e-09
-1.85588e-08
1.93743e-08
4.18395e-09
-5.35889e-09
-2.64752e-08
2.76502e-08
6.82621e-09
-8.46307e-09
-3.6463e-08
3.80998e-08
1.04591e-08
-1.26303e-08
-4.78261e-08
4.99973e-08
1.5227e-08
-1.80175e-08
-5.98787e-08
6.26693e-08
2.13154e-08
-2.4771e-08
-7.06097e-08
7.40654e-08
2.86683e-08
-3.25232e-08
-7.63217e-08
8.01767e-08
3.66698e-08
-4.065e-08
-7.64989e-08
8.04791e-08
4.48703e-08
-4.88912e-08
-7.22363e-08
7.62572e-08
5.30893e-08
-5.6943e-08
-6.24076e-08
6.62613e-08
6.07278e-08
-6.39317e-08
-4.58525e-08
4.90564e-08
6.67803e-08
-6.89065e-08
-2.44199e-08
2.6546e-08
7.04839e-08
-7.13276e-08
-1.33778e-09
2.1815e-09
7.15035e-08
-7.09612e-08
2.08421e-08
-2.13844e-08
6.95853e-08
-6.74513e-08
4.02856e-08
-4.24196e-08
6.43059e-08
-6.05271e-08
5.41907e-08
-5.79695e-08
5.59124e-08
-5.12047e-08
5.91599e-08
-6.38676e-08
4.62218e-08
-4.182e-08
5.48498e-08
-5.92516e-08
3.78987e-08
-3.5062e-08
4.43405e-08
-4.71773e-08
3.30681e-08
-3.24873e-08
3.23999e-08
-3.29807e-08
3.37253e-08
-3.59601e-08
2.31816e-08
-2.09467e-08
3.82806e-08
-3.99498e-08
2.36593e-08
-2.19901e-08
4.09232e-08
-4.18674e-08
3.09437e-08
-2.99995e-08
4.18019e-08
-4.10484e-08
4.00104e-08
-4.0764e-08
4.16111e-08
-4.21062e-08
4.34479e-08
-4.29529e-08
4.00932e-08
-3.60005e-08
4.82546e-08
-5.23473e-08
3.0103e-08
-2.32841e-08
5.48152e-08
-6.16338e-08
1.52867e-08
-7.45423e-09
5.55904e-08
-6.34209e-08
-1.20939e-08
1.25201e-08
-4.2617e-10
1.03195e-09
-1.59161e-09
-1.44645e-08
1.50241e-08
2.2858e-09
-3.08483e-09
-2.01824e-08
2.09814e-08
4.09735e-09
-5.25038e-09
-2.88145e-08
2.99676e-08
6.69183e-09
-8.3018e-09
-3.97235e-08
4.13335e-08
1.02666e-08
-1.24046e-08
-5.21524e-08
5.42905e-08
1.49648e-08
-1.77263e-08
-6.5446e-08
6.82075e-08
2.10109e-08
-2.44788e-08
-7.75271e-08
8.0995e-08
2.8406e-08
-3.22959e-08
-8.40489e-08
8.79388e-08
3.64822e-08
-4.0507e-08
-8.44819e-08
8.85067e-08
4.47955e-08
-4.89204e-08
-8.03298e-08
8.44547e-08
5.32827e-08
-5.73417e-08
-7.0215e-08
7.42739e-08
6.13804e-08
-6.48442e-08
-5.23865e-08
5.58503e-08
6.79712e-08
-7.03564e-08
-2.87979e-08
3.1183e-08
7.21973e-08
-7.32844e-08
-3.14254e-09
4.22958e-09
7.37109e-08
-7.33951e-08
2.18215e-08
-2.21373e-08
7.22106e-08
-7.01529e-08
4.4526e-08
-4.65838e-08
6.68912e-08
-6.2754e-08
6.1925e-08
-6.60622e-08
5.74921e-08
-5.1966e-08
6.89609e-08
-7.4487e-08
4.59423e-08
-4.04507e-08
6.41377e-08
-6.96293e-08
3.5565e-08
-3.20292e-08
5.03275e-08
-5.38633e-08
2.94245e-08
-2.87693e-08
3.35877e-08
-3.4243e-08
3.17405e-08
-3.54968e-08
1.79875e-08
-1.42312e-08
3.67533e-08
-3.66613e-08
2.08113e-08
-2.09033e-08
3.47777e-08
-4.1212e-08
2.76415e-08
-2.12073e-08
4.76456e-08
-4.72226e-08
4.06163e-08
-4.10348e-08
5.58855e-08
-6.50307e-08
3.90922e-08
-1.86584e-08
5.9062e-08
-4.49808e-08
5.83379e-08
-2.60005e-08
2.59348e-08
-1.78171e-08
6.93789e-08
-1.7646e-08
1.1977e-08
-5.53897e-09
6.953e-08
-1.03708e-12
-1.29375e-08
1.33458e-08
-4.08236e-10
1.01167e-09
-1.55524e-09
-1.55761e-08
1.61196e-08
2.23144e-09
-3.0126e-09
-2.17711e-08
2.25523e-08
4.00325e-09
-5.13237e-09
-3.11087e-08
3.22378e-08
6.54559e-09
-8.12618e-09
-4.29291e-08
4.45096e-08
1.00567e-08
-1.21579e-08
-5.64105e-08
5.85117e-08
1.46764e-08
-1.74033e-08
-7.09523e-08
7.36791e-08
2.06708e-08
-2.41522e-08
-8.44692e-08
8.79506e-08
2.81128e-08
-3.20401e-08
-9.18469e-08
9.57742e-08
3.6266e-08
-4.03325e-08
-9.25525e-08
9.66189e-08
4.4686e-08
-4.89167e-08
-8.86321e-08
9.28628e-08
5.34561e-08
-5.77418e-08
-7.84433e-08
8.2729e-08
6.20646e-08
-6.58207e-08
-5.94558e-08
6.32119e-08
6.92608e-08
-7.19362e-08
-3.37092e-08
3.63846e-08
7.40731e-08
-7.54381e-08
-5.45156e-09
6.81653e-09
7.61664e-08
-7.61482e-08
2.23138e-08
-2.2332e-08
7.52585e-08
-7.33855e-08
4.85658e-08
-5.04388e-08
7.00902e-08
-6.55828e-08
7.03847e-08
-7.4892e-08
5.95508e-08
-5.29791e-08
8.05007e-08
-8.70725e-08
4.54617e-08
-3.80788e-08
7.59091e-08
-8.32921e-08
3.1565e-08
-2.71556e-08
5.78322e-08
-6.22416e-08
2.44754e-08
-2.46867e-08
3.47563e-08
-3.45451e-08
3.30573e-08
-3.96009e-08
9.32432e-09
-2.78069e-09
3.48905e-08
-3.77171e-08
2.14687e-08
-1.84147e-08
2.37811e-08
-1.02356e-08
2.75132e-09
-4.39446e-09
-1.09098e-09
1.86398e-09
9.63419e-09
-8.26856e-11
-3.71736e-11
7.9921e-14
3.72841e-11
-3.95685e-14
1.80073e-16
-1.90096e-16
4.50631e-16
-4.80862e-16
6.71978e-16
-1.13458e-14
1.71506e-14
-6.52796e-15
7.3745e-14
-6.11352e-14
2.12901e-13
-3.10646e-13
-1.37445e-08
1.41333e-08
-3.88751e-10
9.89945e-10
-1.51613e-09
-1.66547e-08
1.71808e-08
2.17279e-09
-2.93474e-09
-2.33245e-08
2.40865e-08
3.90183e-09
-5.00504e-09
-3.33543e-08
3.44576e-08
6.38765e-09
-7.93646e-09
-4.60746e-08
4.76234e-08
9.8299e-09
-1.18905e-08
-6.05932e-08
6.26539e-08
1.43617e-08
-1.70475e-08
-7.63864e-08
7.90723e-08
2.02931e-08
-2.379e-08
-9.14396e-08
9.49365e-08
2.77881e-08
-3.17553e-08
-9.97211e-08
1.03688e-07
3.60201e-08
-4.01238e-08
-1.00705e-07
1.04808e-07
4.45358e-08
-4.88708e-08
-9.71461e-08
1.01481e-07
5.35984e-08
-5.8134e-08
-8.71368e-08
9.16724e-08
6.27738e-08
-6.68569e-08
-6.71272e-08
7.12104e-08
7.06464e-08
-7.36439e-08
-3.92172e-08
4.22147e-08
7.61071e-08
-7.77824e-08
-8.33299e-09
1.00083e-08
7.88621e-08
-7.92236e-08
2.2171e-08
-2.18095e-08
7.87651e-08
-7.72444e-08
5.21607e-08
-5.36813e-08
7.40675e-08
-6.92083e-08
7.95784e-08
-8.44376e-08
6.22089e-08
-5.41258e-08
9.43089e-08
-1.02392e-07
4.39088e-08
-3.20214e-08
9.23694e-08
-1.04257e-07
2.17635e-08
-1.60317e-08
6.71434e-08
-7.28752e-08
1.46409e-08
-1.35101e-08
3.31094e-08
-3.42403e-08
6.23339e-09
3.49847e-08
8.52579e-09
-4.06171e-08
-7.7658e-09
4.6571e-09
3.27957e-08
-6.12976e-09
-3.19098e-10
5.84181e-10
-1.43456e-10
-2.95791e-11
-1.46668e-10
2.58613e-12
8.55956e-11
-1.05335e-13
-3.78767e-14
4.74097e-15
2.47385e-14
1.90794e-15
-4.78769e-16
3.35641e-16
4.97618e-16
-3.22422e-16
-1.94154e-16
1.52582e-16
4.42955e-16
-4.18867e-16
-6.00474e-13
6.21716e-13
4.4666e-12
-4.47583e-12
-1.45117e-08
1.48794e-08
-3.67658e-10
9.6705e-10
-1.47471e-09
-1.76981e-08
1.82057e-08
2.11034e-09
-2.85193e-09
-2.4838e-08
2.55796e-08
3.79388e-09
-4.86942e-09
-3.55472e-08
3.66227e-08
6.2193e-09
-7.73426e-09
-4.91557e-08
5.06707e-08
9.58815e-09
-1.16048e-08
-6.46931e-08
6.67097e-08
1.4023e-08
-1.66609e-08
-8.17352e-08
8.4373e-08
1.98789e-08
-2.33947e-08
-9.84425e-08
1.01958e-07
2.74365e-08
-3.14473e-08
-1.07677e-07
1.11688e-07
3.57505e-08
-3.98853e-08
-1.08929e-07
1.13063e-07
4.4346e-08
-4.87807e-08
-1.05867e-07
1.10302e-07
5.37075e-08
-5.85178e-08
-9.63424e-08
1.01153e-07
6.35111e-08
-6.79599e-08
-7.54715e-08
7.99203e-08
7.21386e-08
-7.54907e-08
-4.53855e-08
4.87376e-08
7.83074e-08
-8.03176e-08
-1.18482e-08
1.38584e-08
8.17938e-08
-8.26215e-08
2.12261e-08
-2.03984e-08
8.27643e-08
-8.1839e-08
5.49401e-08
-5.58653e-08
7.90323e-08
-7.3826e-08
8.94663e-08
-9.46727e-08
6.53476e-08
-5.45058e-08
1.11633e-07
-1.22474e-07
3.84006e-08
-1.63088e-08
1.20653e-07
-1.42745e-07
3.49297e-09
-1.60474e-09
7.9042e-08
-8.09303e-08
-2.03549e-09
1.01075e-08
2.9097e-08
-2.05139e-08
-1.9062e-08
9.01327e-10
1.84258e-08
-2.69058e-10
-1.2394e-10
1.44043e-11
1.08789e-10
-1.21688e-12
-1.55197e-11
4.01184e-12
1.01994e-11
6.91057e-13
-7.65586e-13
6.98744e-14
-1.85841e-14
7.02677e-13
-2.79978e-15
1.37487e-15
-5.79429e-17
1.34552e-15
-8.74446e-16
2.33631e-15
4.01791e-16
-4.41673e-16
-3.07163e-15
4.27459e-15
4.54806e-16
-1.67918e-15
-6.1729e-13
3.55726e-13
4.35449e-12
-2.07395e-12
-1.5236e-08
1.5581e-08
-3.45016e-10
9.42852e-10
-1.43076e-09
-1.87036e-08
1.91915e-08
2.04369e-09
-2.76374e-09
-2.63108e-08
2.70308e-08
3.6789e-09
-4.72477e-09
-3.76837e-08
3.87296e-08
6.03959e-09
-7.51839e-09
-5.21677e-08
5.36465e-08
9.33014e-09
-1.1299e-08
-6.87028e-08
7.06717e-08
1.36578e-08
-1.6239e-08
-8.69835e-08
8.95647e-08
1.9422e-08
-2.29605e-08
-1.05485e-07
1.09023e-07
2.70526e-08
-3.11107e-08
-1.15722e-07
1.1978e-07
3.54508e-08
-3.96071e-08
-1.1721e-07
1.21366e-07
4.41012e-08
-4.86246e-08
-1.14782e-07
1.19306e-07
5.37594e-08
-5.88702e-08
-1.0611e-07
1.1122e-07
6.42562e-08
-6.91126e-08
-8.4567e-08
8.94234e-08
7.37227e-08
-7.74617e-08
-5.22789e-08
5.60179e-08
8.06537e-08
-8.30119e-08
-1.60419e-08
1.84001e-08
8.49106e-08
-8.62846e-08
1.93066e-08
-1.79326e-08
8.72263e-08
-8.72206e-08
5.63777e-08
-5.63834e-08
8.51485e-08
-7.94587e-08
1.00087e-07
-1.05777e-07
6.83278e-08
-5.31632e-08
1.35359e-07
-1.50524e-07
2.96587e-08
-1.41553e-08
1.6742e-07
-1.82924e-07
4.03667e-08
-2.80336e-08
6.68659e-08
-4.18417e-08
-1.45706e-09
1.17806e-09
8.26606e-10
-1.45121e-09
-1.94106e-10
2.66681e-11
2.25659e-10
-2.86127e-11
-9.35669e-12
7.36788e-12
1.46784e-12
-1.22317e-12
-4.47797e-12
6.80019e-12
-3.7669e-12
4.78176e-12
-6.68081e-12
5.52727e-12
-3.91883e-12
5.99081e-12
8.34765e-15
-1.47094e-14
-2.1397e-14
3.39229e-14
-6.73527e-15
1.38667e-14
-5.83198e-16
3.79411e-15
-1.11136e-14
1.78871e-15
1.82697e-15
-2.52242e-15
-1.37501e-15
6.39343e-16
3.19361e-15
-1.83232e-15
-1.59141e-08
1.62347e-08
-3.20659e-10
9.17469e-10
-1.3845e-09
-1.96692e-08
2.01362e-08
1.97299e-09
-2.67029e-09
-2.77395e-08
2.84368e-08
3.55704e-09
-4.57132e-09
-3.97598e-08
4.07741e-08
5.8487e-09
-7.28915e-09
-5.51065e-08
5.65469e-08
9.05636e-09
-1.09738e-08
-7.26154e-08
7.45329e-08
1.32663e-08
-1.57808e-08
-9.2114e-08
9.46285e-08
1.89192e-08
-2.24856e-08
-1.12575e-07
1.16141e-07
2.66364e-08
-3.07464e-08
-1.23864e-07
1.27974e-07
3.51213e-08
-3.92873e-08
-1.25529e-07
1.29695e-07
4.37934e-08
-4.83868e-08
-1.23867e-07
1.2846e-07
5.37369e-08
-5.9176e-08
-1.16492e-07
1.21931e-07
6.49985e-08
-7.03096e-08
-9.4501e-08
9.9812e-08
7.53981e-08
-7.95582e-08
-5.99631e-08
6.41232e-08
8.31402e-08
-8.58395e-08
-2.09313e-08
2.36307e-08
8.81563e-08
-9.01285e-08
1.62632e-08
-1.4291e-08
9.20614e-08
-9.33632e-08
5.57851e-08
-5.44834e-08
9.24881e-08
-8.57562e-08
1.11865e-07
-1.18597e-07
6.94014e-08
-5.03773e-08
1.67899e-07
-1.86923e-07
2.98149e-08
-5.42124e-08
1.72701e-07
-1.43421e-07
-1.75531e-09
2.50952e-09
3.84941e-08
-3.97056e-09
-1.54352e-10
1.35631e-11
1.39104e-10
-5.60095e-12
-7.29136e-13
4.25605e-12
1.47827e-12
-2.8948e-12
-1.44691e-11
1.28439e-11
7.50921e-12
-3.75836e-12
-2.52964e-12
-4.8457e-13
-3.0611e-12
3.48812e-12
-6.41453e-14
4.17362e-14
-2.09667e-13
5.32838e-15
-1.7244e-14
2.66962e-15
-1.04849e-14
2.65008e-15
-1.15972e-14
9.98709e-15
-3.29968e-15
4.53999e-15
-8.38902e-15
2.39151e-15
1.03115e-15
3.56405e-16
-1.17644e-15
6.12919e-16
6.18126e-16
4.49743e-17
-1.65426e-08
1.68372e-08
-2.94603e-10
8.91138e-10
-1.33624e-09
-2.05925e-08
2.10376e-08
1.89852e-09
-2.57228e-09
-2.91226e-08
2.97963e-08
3.42914e-09
-4.41003e-09
-4.1772e-08
4.27529e-08
5.64788e-09
-7.0481e-09
-5.79676e-08
5.93678e-08
8.76891e-09
-1.06318e-08
-7.64235e-08
7.82864e-08
1.2851e-08
-1.52876e-08
-9.71056e-08
9.95422e-08
1.83698e-08
-2.19719e-08
-1.19725e-07
1.23327e-07
2.61929e-08
-3.03613e-08
-1.32112e-07
1.3628e-07
3.47697e-08
-3.89315e-08
-1.33861e-07
1.38023e-07
4.34221e-08
-4.80579e-08
-1.3308e-07
1.37715e-07
5.36296e-08
-5.94287e-08
-1.27546e-07
1.33345e-07
6.5738e-08
-7.15581e-08
-1.05371e-07
1.11191e-07
7.71798e-08
-8.17992e-08
-6.85081e-08
7.31275e-08
8.57794e-08
-8.87873e-08
-2.64904e-08
2.94983e-08
9.14669e-08
-9.40304e-08
1.2017e-08
-9.45352e-09
9.70874e-08
-1.00076e-07
5.23814e-08
-4.93928e-08
1.00838e-07
-9.06137e-08
1.26494e-07
-1.36718e-07
5.84434e-08
-5.01184e-08
2.05124e-07
-2.13448e-07
4.71424e-08
2.30039e-08
6.72075e-08
-7.21108e-08
-1.76666e-09
5.41392e-11
1.77164e-09
-1.04464e-10
-3.79813e-13
-2.21108e-15
3.78789e-13
-4.99653e-14
4.08093e-14
-3.41512e-12
5.02727e-12
-1.07753e-12
1.07661e-11
-6.0787e-12
-5.02707e-12
2.76348e-12
4.8568e-13
-1.6626e-14
-6.30376e-13
3.94582e-14
4.1231e-16
5.49103e-17
-1.00134e-15
2.28859e-16
-6.56817e-17
4.62615e-17
-2.36964e-16
1.41849e-16
-6.70055e-17
9.52416e-17
-4.63178e-16
1.20819e-16
-5.2776e-17
3.30271e-17
-2.07423e-17
2.11366e-17
-1.16031e-13
1.27471e-14
-1.73844e-15
7.95628e-14
-1.71181e-08
1.73849e-08
-2.66787e-10
8.63863e-10
-1.28602e-09
-2.14713e-08
2.18935e-08
1.82009e-09
-2.46928e-09
-3.04579e-08
3.11071e-08
3.29475e-09
-4.24031e-09
-4.37162e-08
4.46617e-08
5.43625e-09
-6.79419e-09
-6.0747e-08
6.2105e-08
8.4668e-09
-1.0272e-08
-8.01208e-08
8.19259e-08
1.24104e-08
-1.47552e-08
-1.01935e-07
1.04279e-07
1.77654e-08
-2.14138e-08
-1.2695e-07
1.30599e-07
2.57183e-08
-2.99518e-08
-1.4048e-07
1.44714e-07
3.43924e-08
-3.85319e-08
-1.42176e-07
1.46315e-07
4.29703e-08
-4.76066e-08
-1.42357e-07
1.46993e-07
5.34046e-08
-5.95973e-08
-1.39336e-07
1.45529e-07
6.64497e-08
-7.28406e-08
-1.17288e-07
1.23679e-07
7.90581e-08
-8.41805e-08
-7.79926e-08
8.3115e-08
8.85611e-08
-9.18102e-08
-3.26373e-08
3.58863e-08
9.47213e-08
-9.77624e-08
6.62929e-09
-3.58813e-09
1.01895e-07
-1.06612e-07
4.54887e-08
-4.07716e-08
1.08165e-07
-8.30168e-08
1.51861e-07
-1.7701e-07
3.66718e-08
-1.95055e-09
2.371e-07
-2.67183e-07
-1.87646e-08
2.75238e-10
1.93639e-08
-1.11307e-10
-6.89328e-12
-1.6702e-14
6.58399e-12
-1.40541e-14
5.78975e-14
-7.47133e-16
1.03596e-13
-4.27948e-14
1.36847e-15
-3.88703e-15
6.25976e-15
-3.84096e-15
8.45054e-14
-7.68478e-15
-7.90987e-14
2.12618e-15
1.48778e-15
5.14187e-17
-2.1971e-15
6.65456e-16
-4.03938e-17
-7.11804e-17
-1.48009e-16
-6.15837e-17
3.03024e-17
-7.62473e-16
-8.67198e-17
7.66523e-16
-5.07113e-16
4.18203e-15
-1.22393e-14
2.60624e-14
-3.93982e-15
3.04542e-14
-9.63278e-14
1.1176e-13
-2.52032e-14
-1.41606e-15
-8.63216e-14
1.34869e-14