/*--------------------------------*- C++ -*----------------------------------*\
| =========                 |                                                 |
| \\      /  F ield         | OpenFOAM: The Open Source CFD Toolbox           |
|  \\    /   O peration     | Version:  2.4.0                                 |
|   \\  /    A nd           | Web:      www.OpenFOAM.org                      |
|    \\/     M anipulation  |                                                 |
\*---------------------------------------------------------------------------*/
FoamFile
{
    version     2.0;
    format      ascii;
    class       volScalarField;
    location    "0.319";
    object      p;
}
// * * * * * * * * * * * * * * * * * * * * * * * * * * * * * * * * * * * * * //

dimensions      [1 -1 -2 0 0 0 0];

internalField   nonuniform List<scalar> 
60000
(
123.567
123.535
123.455
123.329
123.159
122.945
122.687
122.385
122.041
121.654
121.224
120.753
120.241
119.688
119.096
118.465
117.796
117.091
116.35
115.575
114.766
113.926
113.054
112.153
111.223
110.266
109.283
108.275
107.243
106.189
105.114
104.02
102.907
101.778
100.634
99.4759
98.3066
97.1275
95.9405
94.7476
93.5508
92.3521
91.1533
89.9563
88.7631
87.5751
86.394
85.2214
84.0589
82.9078
81.7695
80.6454
79.5372
78.4464
77.3749
76.3248
75.2983
74.2981
73.3271
72.3885
71.4859
70.6232
69.8042
69.033
68.3137
67.6501
67.0456
66.5036
66.0267
65.6168
65.2754
65.0033
64.8007
64.6671
64.6018
64.6038
64.6716
64.8039
64.9994
65.2567
65.5747
65.9521
66.3876
66.8802
67.4283
68.0306
68.6852
69.3902
70.1432
70.9417
71.7828
72.6634
73.5802
74.5298
75.5086
76.5129
77.539
78.5831
79.6414
80.7096
121.604
121.574
121.493
121.367
121.197
120.983
120.725
120.424
120.079
119.692
119.262
118.791
118.279
117.726
117.133
116.502
115.834
115.128
114.387
113.612
112.803
111.962
111.09
110.189
109.259
108.302
107.319
106.311
105.279
104.225
103.15
102.056
100.943
99.8136
98.6692
97.5113
96.3419
95.1627
93.9757
92.7827
91.5858
90.387
89.1881
87.9912
86.7978
85.6097
84.4285
83.256
82.0936
80.9426
79.8043
78.6802
77.5719
76.4811
75.4094
74.359
73.3321
72.3315
71.3599
70.4207
69.5173
68.6538
67.8339
67.0618
66.3416
65.677
65.0718
64.529
64.0514
63.641
63.2992
63.0268
62.824
62.6904
62.6252
62.6273
62.6955
62.828
63.0239
63.2818
63.6004
63.9785
64.4149
64.9083
65.4575
66.0609
66.7168
67.423
68.1774
68.9772
69.8196
70.7016
71.6197
72.5706
73.5507
74.5562
75.5835
76.6288
77.6883
78.7575
119.651
119.62
119.539
119.413
119.243
119.029
118.771
118.469
118.124
117.737
117.307
116.835
116.323
115.77
115.177
114.546
113.877
113.171
112.429
111.654
110.844
110.003
109.131
108.229
107.299
106.342
105.358
104.35
103.318
102.264
101.189
100.094
98.9811
97.8515
96.7067
95.5485
94.3787
93.1991
92.0116
90.8181
89.6208
88.4215
87.2222
86.0249
84.8311
83.6428
82.4614
81.2885
80.1256
78.9741
77.8355
76.7111
75.6024
74.511
73.4387
72.3875
71.3597
70.3579
69.3851
68.4445
67.5397
66.6745
65.853
65.0792
64.3573
63.6912
63.0845
62.5404
62.0616
61.6503
61.3078
61.035
60.8318
60.6979
60.6327
60.6348
60.7031
60.8357
61.0317
61.2897
61.6085
61.9869
62.4236
62.9176
63.4675
64.0718
64.7288
65.4363
66.1922
66.9936
67.8377
68.7214
69.6414
70.594
71.5758
72.5831
73.6121
74.6589
75.72
76.7906
117.707
117.675
117.594
117.468
117.298
117.083
116.825
116.523
116.178
115.79
115.359
114.887
114.374
113.821
113.227
112.595
111.926
111.219
110.477
109.701
108.891
108.049
107.177
106.274
105.344
104.386
103.402
102.393
101.361
100.306
99.2306
98.1354
97.0218
95.8916
94.7462
93.5873
92.4167
91.2363
90.048
88.8537
87.6555
86.4554
85.2553
84.0571
82.8626
81.6735
80.4915
79.3179
78.1544
77.0023
75.863
74.7378
73.6281
72.5357
71.4622
70.4096
69.3803
68.3767
67.4018
66.459
65.5517
64.684
63.8598
63.0834
62.3589
61.6903
61.0814
60.5353
60.0549
59.6423
59.2988
59.0251
58.8215
58.6876
58.6223
58.6245
58.6926
58.8258
59.0221
59.2803
59.5992
59.9777
60.4147
60.9092
61.4598
62.0651
62.7232
63.4322
64.1897
64.993
65.8391
66.7249
67.6469
68.6017
69.5856
70.5948
71.6257
72.6745
73.7373
74.8096
115.772
115.739
115.658
115.531
115.361
115.146
114.887
114.585
114.239
113.851
113.42
112.947
112.433
111.879
111.285
110.652
109.981
109.274
108.531
107.754
106.943
106.1
105.227
104.324
103.392
102.434
101.449
100.44
99.4068
98.3516
97.2752
96.1792
95.0649
93.9338
92.7874
91.6276
90.4559
89.2744
88.0849
86.8894
85.69
84.4886
83.2873
82.088
80.8924
79.7023
78.5193
77.3448
76.1804
75.0274
73.887
72.7607
71.6498
70.5559
69.4807
68.4261
67.3945
66.3883
65.4106
64.4646
63.5539
62.6826
61.8547
61.0746
60.3465
59.6745
59.0626
58.5139
58.0313
57.6169
57.2722
56.9978
56.7939
56.66
56.5949
56.5975
56.6662
56.7998
56.9966
57.2552
57.5744
57.9534
58.391
58.8862
59.4379
60.0444
60.7042
61.415
62.1746
62.9802
63.8287
64.717
65.6415
66.5987
67.5849
68.5964
69.6294
70.6801
71.7449
72.8192
113.845
113.812
113.73
113.604
113.433
113.217
112.958
112.655
112.309
111.92
111.488
111.014
110.5
109.944
109.349
108.715
108.043
107.335
106.591
105.812
105
104.156
103.282
102.378
101.445
100.486
99.5002
98.4899
97.456
96.3998
95.3225
94.2255
93.1101
91.9779
90.8303
89.6692
88.4961
87.3131
86.122
84.925
83.7239
82.521
81.3182
80.1173
78.9203
77.7289
76.5446
75.3689
74.2033
73.049
71.9073
70.7796
69.667
68.5712
67.4938
66.4368
65.4023
64.3928
63.4114
62.4613
61.5462
60.6702
59.8375
59.0526
58.3199
57.6436
57.0277
56.4756
55.9902
55.5737
55.2276
54.9524
54.7482
54.6145
54.55
54.5533
54.6229
54.7573
54.9548
55.2142
55.5342
55.914
56.3526
56.849
57.4021
58.0105
58.6724
59.3857
60.148
60.9565
61.8081
62.6995
63.6272
64.5874
65.5765
66.5908
67.6263
68.6794
69.7465
70.8232
111.928
111.894
111.813
111.685
111.514
111.298
111.038
110.735
110.387
109.997
109.565
109.09
108.574
108.017
107.42
106.785
106.112
105.402
104.656
103.876
103.063
102.217
101.342
100.436
99.5024
98.5416
97.5548
96.5434
95.5083
94.4509
93.3725
92.2742
91.1575
90.0238
88.8747
87.7119
86.5371
85.3523
84.1593
82.9603
81.7572
80.5523
79.3476
78.1449
76.9461
75.7531
74.5672
73.3901
72.223
71.0672
69.9239
68.7944
67.6799
66.5819
65.5018
64.4418
63.4037
62.3903
61.4043
60.4492
59.5287
58.6469
57.8084
57.0176
56.2791
55.5975
54.9767
54.4205
53.9317
53.5127
53.1648
52.8887
52.6844
52.551
52.4874
52.4918
52.5627
52.6982
52.8969
53.1574
53.4786
53.8595
54.2994
54.7974
55.3524
55.9631
56.6277
57.3441
58.1099
58.9221
59.7776
60.6729
61.6044
62.5685
63.5612
64.5788
65.6176
66.6736
67.7435
68.8231
110.021
109.986
109.904
109.776
109.604
109.388
109.127
108.823
108.475
108.083
107.649
107.173
106.656
106.097
105.499
104.862
104.187
103.475
102.727
101.945
101.13
100.283
99.4058
98.4988
97.5635
96.6012
95.613
94.6001
93.5637
92.5049
91.4249
90.3252
89.2069
88.0715
86.9206
85.7558
84.5789
83.3918
82.1965
80.9951
79.7897
78.5825
77.3754
76.1705
74.9697
73.7747
72.587
71.4081
70.2393
69.0818
67.9367
66.8052
65.6884
64.5878
63.5047
62.4411
61.3989
60.3807
59.3894
58.4284
57.5014
56.6129
55.7673
54.9694
54.2241
53.536
52.9095
52.3483
51.8555
51.4335
51.0837
50.8067
50.6023
50.4695
50.407
50.413
50.4854
50.6226
50.8229
51.0848
51.4074
51.7898
52.2313
52.7313
53.2886
53.9021
54.57
55.2901
56.06
56.8767
57.7368
58.6368
59.573
60.5416
61.5387
62.5604
63.603
64.6626
65.7359
66.8187
108.122
108.087
108.005
107.877
107.704
107.487
107.225
106.92
106.57
106.178
105.742
105.265
104.745
104.185
103.585
102.946
102.268
101.554
100.805
100.021
99.2034
98.3544
97.4748
96.5658
95.6287
94.6646
93.6747
92.6602
91.6221
90.5616
89.48
88.3784
87.2582
86.1209
84.9678
83.8007
82.6214
81.4317
80.2337
79.0296
77.8214
76.6114
75.4016
74.1942
72.991
71.7937
70.604
69.4231
68.2524
67.0929
65.9457
64.812
63.6926
62.589
61.5025
60.4349
59.388
58.3644
57.3669
56.399
55.4645
54.568
53.7142
52.9081
52.1547
51.4591
50.8258
50.2588
49.7614
49.3359
48.984
48.706
48.5016
48.3698
48.3088
48.3167
48.3912
48.5305
48.7326
48.9964
49.3206
49.7047
50.1482
50.6503
51.2104
51.8272
52.4989
53.2235
53.9982
54.8201
55.6856
56.5912
57.5329
58.5067
59.5089
60.5353
61.5823
62.646
63.7232
64.8097
106.233
106.198
106.115
105.986
105.813
105.595
105.332
105.026
104.675
104.281
103.844
103.364
102.843
102.281
101.678
101.036
100.357
99.6401
98.8878
98.1012
97.2816
96.4301
95.5482
94.6371
93.6979
92.7318
91.7399
90.7234
89.6835
88.6211
87.5375
86.4339
85.3116
84.1719
83.0164
81.8467
80.6646
79.472
78.2709
77.0635
75.8522
74.639
73.4262
72.2158
71.0099
69.8101
68.618
67.4349
66.2621
65.1005
63.9511
62.8148
61.6927
60.5858
59.4955
58.4233
57.3711
56.3414
55.3369
54.3611
53.4181
52.5124
51.6491
50.8335
50.0709
49.3666
48.7255
48.1518
47.649
47.2197
46.8653
46.5863
46.3822
46.2516
46.1926
46.2028
46.2799
46.4217
46.6261
46.8919
47.2181
47.6042
48.0498
48.5545
49.1177
49.7382
50.4144
51.144
51.9244
52.7522
53.624
54.5358
55.4838
56.4638
57.4717
58.5035
59.5555
60.6238
61.7053
62.7958
104.354
104.318
104.235
104.106
103.931
103.712
103.448
103.14
102.788
102.392
101.953
101.472
100.948
100.383
99.7783
99.1339
98.4514
97.7319
96.9768
96.1873
95.3649
94.5108
93.6263
92.7126
91.771
90.8026
89.8086
88.7899
87.7478
86.6833
85.5975
84.4917
83.367
82.2247
81.0665
79.8938
78.7085
77.5125
76.3079
75.097
73.882
72.6652
71.449
70.2354
69.0264
67.8238
66.6291
65.4436
64.2684
63.1045
61.9527
60.8138
59.6886
58.5782
57.4837
56.4066
55.3486
54.312
53.2997
52.3151
51.3623
50.4463
49.5721
48.7456
47.9724
47.2582
46.6081
46.0268
45.518
45.0843
44.7273
44.4473
44.2437
44.1147
44.0582
44.0713
44.1515
44.2962
44.5034
44.7715
45.0999
45.488
45.936
46.4435
47.0102
47.6349
48.3162
49.0516
49.8382
50.6729
51.5517
52.4708
53.4258
54.4127
55.4271
56.465
57.5225
58.5959
59.682
60.7769
102.484
102.448
102.364
102.234
102.059
101.839
101.574
101.264
100.91
100.513
100.071
99.5875
99.0614
98.4938
97.8858
97.2384
96.5527
95.83
95.0716
94.2789
93.4534
92.5962
91.7088
90.7923
89.8481
88.8772
87.8807
86.8596
85.8152
84.7483
83.6601
82.5517
81.4243
80.2793
79.118
77.942
76.7532
75.5534
74.3449
73.13
71.9109
70.6901
69.47
68.2527
67.0404
65.8347
64.6372
63.4491
62.2714
61.1051
59.9507
58.8089
57.6806
56.5664
55.4674
54.3849
53.3205
52.2764
51.2554
50.261
49.2974
48.3696
47.4832
46.6444
45.8591
45.1336
44.4735
43.8836
43.368
42.9294
42.5696
42.2887
42.0858
41.9589
41.9054
41.9221
42.006
42.1541
42.3643
42.6351
42.9657
43.3561
43.8065
44.3171
44.8876
45.5171
46.204
46.9458
47.7396
48.5819
49.4688
50.3959
51.3589
52.3534
53.3751
54.4196
55.4833
56.5622
57.6534
58.753
100.624
100.588
100.503
100.372
100.196
99.9748
99.7083
99.397
99.0412
98.6414
98.1979
97.7114
97.1824
96.6119
96.0006
95.3498
94.6605
93.9342
93.1722
92.376
91.5469
90.6864
89.7957
88.8762
87.929
86.9553
85.9561
84.9325
83.8854
82.816
81.7251
80.614
79.4837
78.3355
77.1709
75.9913
74.7986
73.5947
72.3818
71.1624
69.9388
68.7135
67.4891
66.2678
65.0518
63.8427
62.6421
61.4513
60.2711
59.1021
57.9451
56.8004
55.6687
54.5505
53.4468
52.3585
51.2873
50.235
49.2045
48.1992
47.2235
46.2826
45.3825
44.5297
43.7309
42.9927
42.3211
41.7216
41.1983
40.7545
40.3916
40.1099
39.908
39.7838
39.734
39.755
39.8432
39.9953
40.209
40.4826
40.8157
41.2083
41.6613
42.1751
42.7497
43.3843
44.0776
44.8265
45.6283
46.4791
47.3749
48.3111
49.283
50.2861
51.3157
52.3676
53.4379
54.5228
55.6193
56.7237
98.7736
98.737
98.6518
98.5202
98.3429
98.1202
97.8521
97.5389
97.1811
96.7789
96.3329
95.8435
95.3115
94.7375
94.1227
93.468
92.7748
92.0445
91.2785
90.4784
89.6454
88.7812
87.8871
86.9642
86.0138
85.037
84.0349
83.0084
81.9586
80.8863
79.7927
78.6785
77.5451
76.3936
75.2253
74.0417
72.8447
71.6363
70.4186
69.1942
67.9656
66.7354
65.5063
64.2806
63.0605
61.8478
60.644
59.4502
58.2673
57.0957
55.936
54.7883
53.6531
52.5308
51.422
50.3277
49.2491
48.1881
47.1472
46.13
45.1408
44.1853
43.2699
42.4015
41.5875
40.835
40.1506
39.5403
39.0086
38.5588
38.1928
37.9104
37.71
37.5891
37.5437
37.5698
37.6631
37.8199
38.0374
38.3141
38.6495
39.0444
39.4999
40.017
40.5961
41.2367
41.9365
42.6934
43.504
44.3644
45.2701
46.2163
47.1981
48.2105
49.2489
50.3089
51.3863
52.4776
53.5797
54.6892
96.9333
96.8961
96.8103
96.6778
96.4993
96.2751
96.0052
95.6901
95.3299
94.9252
94.4764
93.9839
93.4484
92.8708
92.252
91.5932
90.8957
90.161
89.3906
88.5861
87.749
86.8807
85.9827
85.0562
84.1023
83.1223
82.117
81.0875
80.0346
78.9594
77.8626
76.7454
75.6086
74.4534
73.2812
72.0933
70.8917
69.6783
68.4553
67.2255
65.9913
64.7558
63.5214
62.2909
61.0663
59.8497
58.6425
57.4457
56.26
55.0859
53.9234
52.7727
51.6339
50.5074
49.3935
48.2928
47.2065
46.1361
45.084
44.0537
43.0498
42.0781
41.1455
40.2598
39.4287
38.6602
37.9615
37.339
36.7979
36.3418
35.9724
35.6895
35.4912
35.3743
35.3344
35.3665
35.4657
35.6277
35.8496
36.1294
36.4673
36.8642
37.322
37.8425
38.4263
39.0731
39.7805
40.5461
41.3665
42.2374
43.1541
44.1115
45.1041
46.1269
47.1749
48.2435
49.3287
50.4266
51.5346
52.6492
95.1029
95.0652
94.9788
94.8452
94.6654
94.4396
94.1678
93.8505
93.4879
93.0804
92.6285
92.1326
91.5934
91.0118
90.3886
89.7252
89.023
88.2835
87.5083
86.699
85.8574
84.9847
84.0825
83.1521
82.1945
81.211
80.2023
79.1695
78.1135
77.0351
75.9351
74.8144
73.674
72.515
71.3386
70.1462
68.9395
67.7206
66.4919
65.2561
64.0159
62.7744
61.5344
60.2986
59.0693
57.8485
56.6377
55.4378
54.2493
53.0725
51.9073
50.7536
49.6114
48.4806
47.3614
46.2542
45.1597
44.0793
43.0152
41.9708
40.9506
39.961
39.0095
38.1043
37.2543
36.4679
35.7532
35.1172
34.5657
34.1026
33.7297
33.4466
33.2511
33.1391
33.1056
33.1448
33.251
33.4191
33.6456
33.9288
34.2688
34.6674
35.1273
35.651
36.2398
36.8932
37.6091
38.3843
39.2153
40.0979
41.0268
41.9964
43.001
44.0351
45.0936
46.1717
47.265
48.3699
49.4838
50.6036
93.2828
93.2444
93.1572
93.0226
92.8414
92.6137
92.3399
92.0202
91.6549
91.2445
90.7892
90.2897
89.7465
89.1604
88.5326
87.8642
87.1568
86.412
85.6316
84.8172
83.9706
83.0932
82.1865
81.2519
80.2904
79.303
78.2908
77.2546
76.1952
75.1134
74.01
72.8858
71.7416
70.5785
69.3976
68.2002
66.9881
65.7634
64.5284
63.2861
62.0393
60.7912
59.545
58.3035
57.0691
55.8439
54.6293
53.4262
52.235
51.0557
49.8879
48.7313
47.5856
46.4505
45.326
44.2121
43.1092
42.0184
40.9415
39.8817
38.8438
37.8345
36.8618
35.9351
35.0638
34.2575
33.525
32.874
32.3109
31.8402
31.4637
31.1809
30.9888
30.8828
30.8571
30.9047
31.019
31.194
31.4256
31.7121
32.054
32.4538
32.9152
33.4419
34.036
34.6968
35.4217
36.2074
37.0503
37.9457
38.888
39.8711
40.8888
41.9354
43.0052
44.0934
45.1954
46.3077
47.4276
48.5523
91.4729
91.4339
91.3458
91.21
91.0272
90.7977
90.5216
90.1993
89.8312
89.4175
88.9587
88.4552
87.9077
87.3169
86.6839
86.0101
85.2971
84.5466
83.7604
82.9405
82.0885
81.2061
80.2946
79.3554
78.3897
77.3984
76.3824
75.3425
74.2796
73.1943
72.0873
70.9593
69.8112
68.6438
67.4581
66.2556
65.0377
63.8066
62.5649
61.3154
60.0614
58.8062
57.5532
56.3055
55.0656
53.8357
52.6172
51.411
50.2172
49.0354
47.8652
46.7059
45.5568
44.4175
43.2877
42.1671
41.0556
39.9538
38.8633
37.7871
36.7299
35.6987
34.7026
33.7519
32.8571
32.0286
31.2761
30.6084
30.0326
29.5536
29.1735
28.8913
28.7035
28.6049
28.5884
28.6461
28.7698
28.9526
29.1899
29.4796
29.8228
30.223
30.6853
31.2147
31.8141
32.483
33.218
34.0151
34.8708
35.7804
36.7375
37.7355
38.7676
39.8276
40.9098
42.0088
43.1201
44.2399
45.3658
46.4951
89.6734
89.6336
89.5447
89.4076
89.2231
88.9915
88.713
88.388
88.0167
87.5996
87.137
86.6293
86.077
85.4811
84.8426
84.1629
83.4438
82.6871
81.8948
81.0688
80.2111
79.3232
78.4066
77.4627
76.4924
75.4969
74.477
73.4334
72.3667
71.2777
70.167
69.0352
67.883
66.711
65.5204
64.3123
63.0882
61.8503
60.6012
59.344
58.0821
56.8192
55.5588
54.3043
53.0585
51.8236
50.6012
49.3918
48.1955
47.0116
45.8392
44.6774
43.5252
42.3819
41.2469
40.1195
38.9993
37.8863
36.7815
35.6876
34.6093
33.5541
32.5321
31.5546
30.6336
29.7804
29.0058
28.3195
27.7295
27.2415
26.8578
26.5769
26.3945
26.3046
26.2992
26.3687
26.5034
26.6952
26.9386
27.2314
27.5751
27.9746
28.4367
28.9683
29.5734
30.2513
30.9974
31.8069
32.6765
33.6016
34.5751
35.5894
36.6373
37.712
38.8075
39.9183
41.0393
42.1668
43.2985
44.4321
87.8846
87.8439
87.7541
87.6156
87.4292
87.1953
86.9142
86.5862
86.2117
85.7909
85.3242
84.8119
84.2546
83.6532
83.0087
82.3226
81.5969
80.8334
80.0345
79.2021
78.3381
77.4444
76.5224
75.5734
74.5985
73.5986
72.5745
71.527
70.4565
69.3637
68.2491
67.1133
65.9568
64.7802
63.5844
62.3704
61.1397
59.8945
58.6375
57.3718
56.1013
54.83
53.5616
52.2998
51.0477
49.8076
48.5811
47.3687
46.1701
44.9843
43.81
42.6459
41.4908
40.3438
39.2038
38.0699
36.941
35.8165
34.6968
33.584
32.4828
31.4012
30.3503
29.3432
28.3931
27.5124
26.7131
26.006
25.4003
24.9026
24.5153
24.2364
24.0606
23.9812
23.989
24.0726
24.2202
24.4223
24.6723
24.9678
25.311
25.7083
26.1687
26.7016
27.3127
28.0009
28.7593
29.5821
30.4668
31.4091
32.4006
33.4328
34.4979
35.5886
36.6986
37.8219
38.9532
40.0885
41.2258
42.3631
86.1065
86.0649
85.974
85.834
85.6456
85.4093
85.1253
84.7942
84.4161
83.9914
83.5203
83.0032
82.4406
81.8332
81.1822
80.4893
79.7563
78.9856
78.1795
77.3401
76.4696
75.5697
74.642
73.6877
72.7078
71.7034
70.675
69.6233
68.5489
67.4522
66.3336
65.1937
64.0328
62.8514
61.6501
60.43
59.1924
57.9394
56.6737
55.3989
54.1191
52.8385
51.5614
50.2916
49.0327
47.7871
46.5565
45.3412
44.1407
42.9534
41.7777
40.6117
39.4541
38.3035
37.1588
36.0186
34.8812
33.7452
32.6102
31.4774
30.3513
29.2405
28.1575
27.1173
26.1349
25.2238
24.3969
23.6665
23.0432
22.535
22.1444
21.8683
21.7005
21.6336
21.6573
21.7575
21.9202
22.1342
22.3914
22.6891
23.0304
23.4235
23.8801
24.4132
25.0308
25.731
26.5035
27.3401
28.2409
29.2022
30.2137
31.2658
32.3497
33.4577
34.5834
35.7202
36.8623
38.0056
39.1479
40.288
84.3393
84.2968
84.2047
84.063
83.8725
83.6335
83.3465
83.0119
82.6301
82.2012
81.7255
81.2033
80.6349
80.0211
79.3632
78.6628
77.9221
77.1435
76.3296
75.4828
74.6053
73.6989
72.7651
71.8052
70.8202
69.811
68.7781
67.7222
66.6437
65.543
64.4205
63.2763
62.1109
60.9246
59.7177
58.4912
57.2463
55.9849
54.7099
53.4252
52.1352
50.8445
49.5579
48.2796
47.0133
45.762
44.5272
43.3092
42.1071
40.9189
39.7422
38.5749
37.415
36.2614
35.1124
33.9664
32.8208
31.6734
30.5226
29.3688
28.2157
27.0725
25.9537
24.877
23.8587
22.9137
22.0561
21.2995
20.6565
20.137
19.7434
19.4711
19.3127
19.2606
19.3034
19.4235
19.6041
19.8317
20.0968
20.396
20.7335
21.1196
21.5697
22.1013
22.7262
23.4408
24.2292
25.0803
25.9982
26.9806
28.0143
29.0881
30.1927
31.3195
32.4622
33.6135
34.767
35.9183
37.0651
38.2067
82.5832
82.5397
82.4464
82.3028
82.1099
81.8681
81.5778
81.2396
80.8537
80.4204
79.9399
79.4122
78.8377
78.2172
77.5517
76.8433
76.0941
75.3071
74.4849
73.6301
72.7451
71.8317
70.8916
69.9259
68.9356
67.9214
66.884
65.8238
64.7411
63.6363
62.5096
61.3612
60.1913
58.9999
57.7873
56.5542
55.3015
54.0311
52.7462
51.4507
50.1496
48.8479
47.5509
46.2632
44.9891
43.7317
42.4927
41.2724
40.0692
38.8807
37.7037
36.5355
35.374
34.2176
33.0649
31.9136
30.7605
29.602
28.4355
27.2596
26.0774
24.8982
23.7392
22.6216
21.5637
20.5813
19.6893
18.9031
18.2379
17.7063
17.3103
17.0431
16.8957
16.861
16.9267
17.0706
17.2721
17.5156
17.7893
18.089
18.4202
18.796
19.2356
19.7635
20.3966
21.1297
21.9365
22.8017
23.7375
24.7435
25.8019
26.9
28.0269
29.174
30.3352
31.5022
32.6679
33.8272
34.9778
36.1192
80.8385
80.7938
80.6992
80.5536
80.3581
80.1131
79.8193
79.4772
79.0871
78.6492
78.1635
77.6301
77.0492
76.4213
75.7478
75.0306
74.2724
73.4762
72.645
71.7818
70.8888
69.9682
69.0214
68.0496
67.0538
66.0346
64.9924
63.9277
62.8408
61.7319
60.6011
59.4484
58.2738
57.0773
55.8589
54.6189
53.3581
52.0783
50.7826
49.4754
48.1622
46.8485
45.5401
44.2422
42.9596
41.6957
40.4526
39.2303
38.0268
36.8387
35.6622
34.4938
33.3311
32.1725
31.0166
29.8608
28.7009
27.5322
26.3501
25.1516
23.9378
22.7184
21.5139
20.3508
19.2494
18.2255
17.2953
16.4752
15.7849
15.2406
14.8432
14.5825
14.4476
14.433
14.5264
14.6989
14.9248
15.1869
15.4702
15.7688
16.0905
16.4514
16.8752
17.396
18.0392
18.7969
19.6258
20.5036
21.4575
22.4905
23.5765
24.7015
25.8527
27.0214
28.2029
29.3871
30.5657
31.7332
32.8864
34.0255
79.1054
79.0595
78.9634
78.8156
78.6172
78.3689
78.0713
77.725
77.3304
76.8876
76.3965
75.8571
75.2693
74.6336
73.9515
73.2249
72.4568
71.6507
70.8099
69.9376
69.0362
68.108
67.1542
66.1762
65.1747
64.1502
63.1033
62.0341
60.9429
59.8298
58.6947
57.5378
56.3586
55.157
53.9327
52.6857
51.4164
50.1265
48.8192
47.4993
46.1728
44.846
43.5251
42.2161
40.9242
39.6536
38.4064
37.1825
35.9795
34.7929
33.6178
32.45
31.2865
30.1263
28.9679
27.8085
26.643
25.465
24.2681
23.0467
21.799
20.5344
19.2778
18.064
16.9149
15.8457
14.8728
14.0133
13.2942
12.7371
12.3392
12.0867
11.9654
11.9737
12.1013
12.3083
12.5632
12.8476
13.1419
13.4377
13.7461
14.0863
14.4863
14.9944
15.65
16.4425
17.2986
18.1846
19.1567
20.2211
21.338
22.4935
23.6705
24.8622
26.066
27.2687
28.4613
29.6373
30.7918
31.9258
77.3842
77.3369
77.2392
77.089
76.8875
76.6355
76.3338
75.983
75.5836
75.1357
74.639
74.0932
73.4982
72.8543
72.1628
71.4261
70.6473
69.8305
68.9794
68.0974
67.1872
66.2509
65.29
64.3054
63.2981
62.2683
61.2165
60.1427
59.0472
57.9298
56.7906
55.6294
54.4456
53.239
52.0088
50.7546
49.4765
48.1759
46.8561
45.5223
44.1814
42.8402
41.5057
40.1845
38.8825
37.6046
36.3534
35.1286
33.927
32.7432
31.5707
30.4042
29.2406
28.0791
26.919
25.7572
24.5875
23.4018
22.1916
20.9474
19.6637
18.3476
17.0302
15.7602
14.5594
13.4409
12.4204
11.5139
10.7612
10.1916
9.79379
9.55122
9.4435
9.47707
9.64834
9.89807
10.1878
10.5007
10.8093
11.1011
11.3925
11.7057
12.071
12.5571
13.2269
14.069
14.9588
15.8431
16.833
17.9346
19.0868
20.2774
21.4813
22.697
23.9254
25.1484
26.3564
27.5411
28.6954
29.8203
75.6751
75.6264
75.5269
75.374
75.169
74.9131
74.6069
74.2513
73.8469
73.3935
72.891
72.3387
71.7361
71.0834
70.3819
69.6341
68.8438
68.0154
67.1532
66.2609
65.3414
64.3967
63.4283
62.4372
61.4238
60.3887
59.3319
58.2535
57.1536
56.032
54.8887
53.7232
52.535
51.3233
50.0873
48.8259
47.5387
46.2267
44.8934
43.5445
42.1878
40.8309
39.4815
38.1467
36.8337
35.548
34.2927
33.0677
31.869
30.6895
29.5211
28.3569
27.1936
26.0311
24.87
23.7072
22.535
21.3438
20.1224
18.8568
17.5352
16.1601
14.7697
13.4383
12.1819
11.015
9.93677
8.97092
8.17838
7.59676
7.19833
6.96917
6.87422
6.93499
7.16447
7.46776
7.7991
8.14916
8.47726
8.76387
9.03512
9.31632
9.633
10.0846
10.7719
11.6879
12.6176
13.4777
14.4842
15.6307
16.8229
18.0549
19.2857
20.5269
21.7828
23.028
24.2531
25.4472
26.5992
27.7101
73.9784
73.9282
73.8266
73.6708
73.4621
73.2018
72.8907
72.5301
72.1202
71.6613
71.1527
70.5936
69.9831
69.321
68.6088
67.849
67.0461
66.2051
65.331
64.4278
63.4986
62.5452
61.5692
60.5712
59.5518
58.5111
57.4493
56.3663
55.262
54.1363
52.9888
51.8191
50.6266
49.4101
48.1683
46.8997
45.6032
44.2792
42.9312
41.5659
40.1919
38.8179
37.452
36.1023
34.777
33.4827
32.2235
30.9992
29.805
28.6318
27.4691
26.3082
25.1456
23.9824
22.8211
21.6589
20.4862
19.292
18.0627
16.7785
15.4186
13.9751
12.4932
11.0962
9.77998
8.56014
7.41857
6.37423
5.53699
4.94815
4.54923
4.34554
4.26289
4.35122
4.66126
5.02945
5.40592
5.80194
6.15313
6.42864
6.67358
6.91653
7.16319
7.56042
8.27435
9.31644
10.2985
11.0869
12.108
13.3107
14.5489
15.8301
17.0834
18.3515
19.6393
20.9094
22.1546
23.3594
24.5072
25.5972
72.2944
72.2426
72.1389
71.9797
71.7669
71.5018
71.1855
70.8193
70.4038
69.939
69.4242
68.8581
68.2394
67.5673
66.8436
66.0708
65.254
64.3995
63.5127
62.5979
61.6584
60.6961
59.7122
58.7073
57.6817
56.6356
55.5687
54.4811
53.3724
52.2425
51.091
49.9172
48.7205
47.4994
46.2521
44.9764
43.6703
42.3336
40.9696
39.5864
38.1937
36.8009
35.4169
34.0507
32.7116
31.4079
30.1447
28.9221
27.7343
26.57
25.4151
24.2589
23.0971
21.9329
20.7721
19.6123
18.4413
17.2473
16.0146
14.7167
13.3209
11.798
10.1934
8.73082
7.34888
6.08331
4.8661
3.71307
2.83753
2.25886
1.85586
1.69625
1.61337
1.71779
2.14181
2.58279
3.00284
3.45617
3.83171
4.08187
4.29071
4.49219
4.6378
4.94366
5.683
6.94429
8.02933
8.66372
9.69964
10.9676
12.263
13.6077
14.8736
16.1718
17.4958
18.7938
20.0634
21.2819
22.424
23.4847
70.6236
70.57
70.4638
70.3011
70.0837
69.8132
69.4912
69.1191
68.6976
68.2267
67.7056
67.1323
66.5051
65.8224
65.0863
64.2993
63.4675
62.5982
61.6977
60.7708
59.8207
58.8491
57.8572
56.8453
55.8135
54.7618
53.6899
52.5977
51.4847
50.3506
49.1951
48.0174
46.8167
45.5913
44.3388
43.0562
41.7405
40.3902
39.0089
37.6059
36.1928
34.7796
33.3757
31.9911
30.6365
29.3222
28.0548
26.8351
25.6564
24.504
23.3598
22.2097
21.0485
19.8827
18.7229
17.5674
16.4001
15.2101
13.9805
12.6759
11.2523
9.63885
7.85397
6.34039
4.88286
3.58838
2.26102
0.992608
0.10315
-0.467493
-0.926134
-1.01058
-1.12263
-1.02094
-0.41531
0.088113
0.52481
1.043
1.43832
1.62469
1.76913
1.92712
1.95102
2.17023
2.94548
4.51137
5.70104
6.11056
7.25435
8.60674
9.98292
11.4008
12.651
13.9828
15.3477
16.6803
17.9818
19.2198
20.3555
21.3758
68.9662
68.9107
68.8019
68.6351
68.4126
68.1364
67.8081
67.4295
67.0016
66.5244
65.9969
65.4164
64.7805
64.0865
63.3372
62.5345
61.6862
60.8009
59.8858
58.9461
57.9849
57.0039
56.0038
54.9849
53.9469
52.8897
51.8128
50.7159
49.5986
48.4605
47.3011
46.1197
44.9151
43.6857
42.4285
41.1394
39.814
38.4494
37.0491
35.6245
34.1892
32.7539
31.3281
29.9229
28.5507
27.2241
25.9522
24.7366
23.5701
22.4338
21.3039
20.1617
19.0004
17.8313
16.6727
15.5239
14.362
13.1811
11.9634
10.6613
9.22774
7.51828
5.44005
3.92952
2.36757
1.11492
-0.33325
-1.87325
-2.82673
-3.03499
-2.92597
-1.79398
-0.958932
-0.737469
-0.407642
-0.255261
-0.187947
-0.165952
-0.31685
-0.467593
-0.510536
-0.677563
-1.15687
-1.12906
0.0136705
2.3233
3.43829
3.37656
4.80475
6.13729
7.68426
9.20532
10.418
11.7958
13.1959
14.5646
15.9066
17.1762
18.3079
19.2739
67.3228
67.2652
67.1534
66.9821
66.7541
66.4713
66.1361
65.7505
65.3158
64.8321
64.2981
63.7104
63.0659
62.3599
61.5962
60.7764
59.9098
59.0071
58.0764
57.1233
56.1507
55.1601
54.1519
53.1259
52.0817
51.019
49.9371
48.8357
47.7142
46.5721
45.4089
44.2238
43.0158
41.7828
40.5214
39.2264
37.8915
36.5115
35.0901
33.6418
32.1825
30.7234
29.2738
27.8454
26.4529
25.1121
23.8347
22.6246
21.4744
20.3596
19.2488
18.1167
16.9537
15.7782
14.6205
13.4822
12.3274
11.1456
9.96898
8.67463
7.27193
5.49222
2.86658
1.51821
-0.21636
-1.46304
-3.39671
-2.8935
-0.704822
-0.135459
0.14327
0.132989
0.127933
0.129006
0.131266
0.134733
0.137661
0.139864
0.139377
0.130966
0.11993
0.0446856
-0.275748
-1.06158
-2.4365
-0.713427
0.567071
-0.0175187
2.42329
3.51222
5.47615
6.99947
8.13386
9.58961
11.0381
12.4545
13.842
15.1572
16.2872
17.1808
65.6938
65.634
65.5187
65.3425
65.1082
64.8183
64.4755
64.0821
63.6401
63.1497
62.6093
62.0145
61.3615
60.6426
59.8637
59.0248
58.138
57.2163
56.269
55.3019
54.3178
53.3175
52.3011
51.2681
50.2178
49.1496
48.0629
46.957
45.8313
44.6853
43.5184
42.3298
41.1186
39.8826
38.6176
37.3175
35.9733
34.5768
33.132
31.6575
30.1726
28.6881
27.2125
25.7581
24.342
22.984
21.6999
20.4965
19.368
18.2817
17.1965
16.0773
14.909
13.7221
12.5649
11.4452
10.302
9.13243
8.0145
6.71133
5.39552
3.67854
0.00801688
-1.02634
-3.66035
-2.37651
0.0614069
0.124437
0.10666
0.109452
0.127744
0.127957
0.126714
0.128433
0.13121
0.134459
0.137287
0.139406
0.140715
0.141104
0.143186
0.141144
0.140074
0.140184
0.148534
0.0100365
-1.41395
-2.79479
-0.305383
0.12375
3.37801
4.69802
5.83295
7.35392
8.84335
10.3264
11.7886
13.1821
14.3121
15.107
64.0796
64.0174
63.8984
63.7166
63.4754
63.1775
62.8261
62.4243
61.9744
61.477
60.9304
60.3288
59.6677
58.935
58.1397
57.2795
56.3703
55.4279
54.463
53.4815
52.4856
51.4756
50.4511
49.4111
48.3548
47.2813
46.1898
45.0795
43.9498
42.8
41.6295
40.4376
39.2235
37.9849
36.7173
35.4131
34.0602
32.6457
31.1742
29.6709
28.159
26.6479
25.144
23.6604
22.2168
20.8378
19.5447
18.3489
17.2487
16.2001
15.1492
14.0458
12.8662
11.6612
10.5027
9.4158
8.28811
7.11408
6.10415
4.72717
3.66537
2.05946
-4.18126
-1.83934
0.16182
0.0973234
0.133205
0.124013
0.110728
0.11146
0.122096
0.124678
0.124769
0.12635
0.128821
0.131873
0.134418
0.135897
0.136103
0.137949
0.140392
0.138573
0.137366
0.137413
0.139337
0.135004
0.129739
0.121177
-0.540689
-2.56673
-0.0949788
1.58997
3.40487
5.0889
6.69234
8.18912
9.75055
11.2552
12.3974
13.0775
62.4808
62.4161
62.2929
62.105
61.856
61.5492
61.1883
60.777
60.3185
59.8137
59.2612
58.6533
57.985
57.2372
56.4244
55.5403
54.606
53.641
52.6575
51.6613
50.6536
49.6341
48.6017
47.5549
46.4927
45.414
44.3178
43.2033
42.0696
40.916
39.742
38.5471
37.3304
36.0899
34.8206
33.5136
32.1528
30.7182
29.2158
27.6809
26.141
24.6027
23.0685
21.5522
20.0762
18.6711
17.365
16.1769
15.1137
14.1136
13.108
12.0237
10.8245
9.59256
8.42158
7.38944
6.28825
5.07244
4.32014
2.38257
0.297858
1.30896
0.323114
0.641933
0.19644
0.115538
0.135797
0.122826
0.108921
0.109903
0.117875
0.121375
0.122572
0.124273
0.12657
0.129615
0.131972
0.13313
0.133542
0.130261
0.131265
0.133413
0.133556
0.133411
0.135279
0.131263
0.128233
0.125008
0.116844
0.104481
-0.327895
-2.29357
-0.672155
2.20501
4.29398
5.81902
7.77716
9.43186
10.5877
11.1325
60.898
60.8306
60.7027
60.5079
60.2503
59.9335
59.5618
59.14
58.6719
58.1594
57.6013
56.9878
56.3137
55.5498
54.7178
53.8067
52.8442
51.8547
50.8518
49.8407
48.8215
47.7927
46.7525
45.6992
44.6312
43.5474
42.4467
41.328
40.1905
39.0334
37.856
36.6581
35.439
34.1973
32.9275
31.6194
30.2518
28.7942
27.2553
25.6856
24.118
22.5526
20.9863
19.4334
17.9192
16.4813
15.1557
13.9727
12.9568
12.0164
11.0697
10.0092
8.78009
7.51543
6.29669
5.35558
4.17461
2.75535
2.21884
-0.272023
1.38431
3.28525
3.21726
0.80131
0.102164
0.0759311
0.122261
0.114529
0.105224
0.10786
0.114819
0.118738
0.120425
0.122208
0.124331
0.127583
0.129767
0.130638
0.130643
0.128919
0.129434
0.130326
0.129447
0.128848
0.127098
0.123387
0.120654
0.118965
0.113291
0.105138
0.0949579
0.080613
-0.404314
-2.15458
-0.072663
2.83098
5.8107
7.66853
8.9756
9.36763
59.3317
59.2615
59.1284
58.926
58.6587
58.3307
57.9469
57.5131
57.0343
56.5134
55.9503
55.3321
54.6545
53.8732
53.0198
52.0779
51.0837
50.0677
49.0449
48.0191
46.9887
45.9509
44.9034
43.8437
42.7702
41.6814
40.5763
39.4537
38.3126
37.152
35.9713
34.7705
33.5494
32.307
31.0379
29.731
28.3579
26.8728
25.2895
23.6819
22.0887
20.4979
18.8981
17.3046
15.7456
14.2662
12.91
11.7238
10.7659
9.89438
9.02989
7.99969
6.72661
5.43784
4.07795
3.43615
2.19284
-1.90326
-0.645442
1.60485
2.6707
3.27673
1.85279