/*--------------------------------*- C++ -*----------------------------------*\
| =========                 |                                                 |
| \\      /  F ield         | OpenFOAM: The Open Source CFD Toolbox           |
|  \\    /   O peration     | Version:  2.4.0                                 |
|   \\  /    A nd           | Web:      www.OpenFOAM.org                      |
|    \\/     M anipulation  |                                                 |
\*---------------------------------------------------------------------------*/
FoamFile
{
    version     2.0;
    format      ascii;
    class       volScalarField;
    location    "0.191";
    object      alpha.water;
}
// * * * * * * * * * * * * * * * * * * * * * * * * * * * * * * * * * * * * * //

dimensions      [0 0 0 0 0 0 0];

internalField   nonuniform List<scalar> 
60000
(
1
1
1
1
1
1
1
1
1
1
1
1
1
1
1
1
1
1
1
1
1
1
1
1
1
1
1
1
1
1
1
1
1
1
1
1
1
1
1
1
1
1
1
1
1
1
1
1
1
1
1
1
1
1
1
1
1
1
1
1
1
1
1
1
1
1
1
1
1
1
1
1
1
1
1
1
1
1
1
1
1
1
1
1
1
1
1
1
1
1
1
1
1
1
1
1
1
1
1
1
1
1
1
1
1
1
1
1
1
1
1
1
1
1
1
1
1
1
1
1
1
1
1
1
1
1
1
1
1
1
1
1
1
1
1
1
1
1
1
1
1
1
1
1
1
1
1
1
1
1
1
1
1
1
1
1
1
1
1
1
1
1
1
1
1
1
1
1
1
1
1
1
1
1
1
1
1
1
1
1
1
1
1
1
1
1
1
1
1
1
1
1
1
1
1
1
1
1
1
1
1
1
1
1
1
1
1
1
1
1
1
1
1
1
1
1
1
1
1
1
1
1
1
1
1
1
1
1
1
1
1
1
1
1
1
1
1
1
1
1
1
1
1
1
1
1
1
1
1
1
1
1
1
1
1
1
1
1
1
1
1
1
1
1
1
1
1
1
1
1
1
1
1
1
1
1
1
1
1
1
1
1
1
1
1
1
1
1
1
1
1
1
1
1
1
1
1
1
1
1
1
1
1
1
1
1
1
1
1
1
1
1
1
1
1
1
1
1
1
1
1
1
1
1
1
1
1
1
1
1
1
1
1
1
1
1
1
1
1
1
1
1
1
1
1
1
1
1
1
1
1
1
1
1
1
1
1
1
1
1
1
1
1
1
1
1
1
1
1
1
1
1
1
1
1
1
1
1
1
1
1
1
1
1
1
1
1
1
1
1
1
1
1
1
1
1
1
1
1
1
1
1
1
1
1
1
1
1
1
1
1
1
1
1
1
1
1
1
1
1
1
1
1
1
1
1
1
1
1
1
1
1
1
1
1
1
1
1
1
1
1
1
1
1
1
1
1
1
1
1
1
1
1
1
1
1
1
1
1
1
1
1
1
1
1
1
1
1
1
1
1
1
1
1
1
1
1
1
1
1
1
1
1
1
1
1
1
1
1
1
1
1
1
1
1
1
1
1
1
1
1
1
1
1
1
1
1
1
1
1
1
1
1
1
1
1
1
1
1
1
1
1
1
1
1
1
1
1
1
1
1
1
1
1
1
1
1
1
1
1
1
1
1
1
1
1
1
1
1
1
1
1
1
1
1
1
1
1
1
1
1
1
1
1
1
1
1
1
1
1
1
1
1
1
1
1
1
1
1
1
1
1
1
1
1
1
1
1
1
1
1
1
1
1
1
1
1
1
1
1
1
1
1
1
1
1
1
1
1
1
1
1
1
1
1
1
1
1
1
1
1
1
1
1
1
1
1
1
1
1
1
1
1
1
1
1
1
1
1
1
1
1
1
1
1
1
1
1
1
1
1
1
1
1
1
1
1
1
1
1
1
1
1
1
1
1
1
1
1
1
1
1
1
1
1
1
1
1
1
1
1
1
1
1
1
1
1
1
1
1
1
1
1
1
1
1
1
1
1
1
1
1
1
1
1
1
1
1
1
1
1
1
1
1
1
1
1
1
1
1
1
1
1
1
1
1
1
1
1
1
1
1
1
1
1
1
1
1
1
1
1
1
1
1
1
1
1
1
1
1
1
1
1
1
1
1
1
1
1
1
1
1
1
1
1
1
1
1
1
1
1
1
1
1
1
1
1
1
1
1
1
1
1
1
1
1
1
1
1
1
1
1
1
1
1
1
1
1
1
1
1
1
1
1
1
1
1
1
1
1
1
1
1
1
1
1
1
1
1
1
1
1
1
1
1
1
1
1
1
1
1
1
1
1
1
1
1
1
1
1
1
1
1
1
1
1
1
1
1
1
1
1
1
1
1
1
1
1
1
1
1
1
1
1
1
1
1
1
1
1
1
1
1
1
1
1
1
1
1
1
1
1
1
1
1
1
1
1
1
1
1
1
1
1
1
1
1
1
1
1
1
1
1
1
1
1
1
1
1
1
1
1
1
1
1
1
1
1
1
1
1
1
1
1
1
1
1
1
1
1
1
1
1
1
1
1
1
1
1
1
1
1
1
1
1
1
1
1
1
1
1
1
1
1
1
1
1
1
1
1
1
1
1
1
1
1
1
1
1
1
1
1
1
1
1
1
1
1
1
1
1
1
1
1
1
1
1
1
1
1
1
1
1
1
1
1
1
1
1
1
1
1
1
1
1
1
1
1
1
1
1
1
1
1
1
1
1
1
1
1
1
1
1
1
1
1
1
1
1
1
1
1
1
1
1
1
1
1
1
1
1
1
1
1
1
1
1
1
1
1
1
1
1
1
1
1
1
1
1
1
1
1
1
1
1
1
1
1
1
1
1
1
1
1
1
1
1
1
1
1
1
1
1
1
1
1
1
1
1
1
1
1
1
1
1
1
1
1
1
1
1
1
1
1
1
1
1
1
1
1
1
1
1
1
1
1
1
1
1
1
1
1
1
1
1
1
1
1
1
1
1
1
1
1
1
1
1
1
1
1
1
1
1
1
1
1
1
1
1
1
1
1
1
1
1
1
1
1
1
1
1
1
1
1
1
1
1
1
1
1
1
1
1
1
1
1
1
1
1
1
1
1
1
1
1
1
1
1
1
1
1
1
1
1
1
1
1
1
1
1
1
1
1
1
1
1
1
1
1
1
1
1
1
1
1
1
1
1
1
1
1
1
1
1
1
1
1
1
1
1
1
1
1
1
1
1
1
1
1
1
1
1
1
1
1
1
1
1
1
1
1
1
1
1
1
1
1
1
1
1
1
1
1
1
1
1
1
1
1
1
1
1
1
1
1
1
1
1
1
1
1
1
1
1
1
1
1
1
1
1
1
1
1
1
1
1
1
1
1
1
1
1
1
1
1
1
1
1
1
1
1
1
1
1
1
1
1
1
1
1
1
1
1
1
1
1
1
1
1
1
1
1
1
1
1
1
1
1
1
1
1
1
1
1
1
1
1
1
1
1
1
1
1
1
1
1
1
1
1
1
1
1
1
1
1
1
1
1
1
1
1
1
1
1
1
1
1
1
1
1
1
1
1
1
1
1
1
1
1
1
1
1
1
1
1
1
1
1
1
1
1
1
1
1
1
1
1
1
1
1
1
1
1
1
1
1
1
1
1
1
1
1
1
1
1
1
1
1
1
1
1
1
1
1
1
1
1
1
1
1
1
1
1
1
1
1
1
1
1
1
1
1
1
1
1
1
1
1
1
1
1
1
1
1
1
1
1
1
1
1
1
1
1
1
1
1
1
1
1
1
1
1
1
1
1
1
1
1
1
1
1
1
1
1
1
1
1
1
1
1
1
1
1
1
1
1
1
1
1
1
1
1
1
1
1
1
1
1
1
1
1
1
1
1
1
1
1
1
1
1
1
1
1
1
1
1
1
1
1
1
1
1
1
1
1
1
1
1
1
1
1
1
1
1
1
1
1
1
1
1
1
1
1
1
1
1
1
1
1
1
1
1
1
1
1
1
1
1
1
1
1
1
1
1
1
1
1
1
1
1
1
1
1
1
1
1
1
1
1
1
1
1
1
1
1
1
1
1
1
1
1
1
1
1
1
1
1
1
1
1
1
1
1
1
1
1
1
1
1
1
1
1
1
1
1
1
1
1
1
1
1
1
1
1
1
1
1
1
1
1
1
1
1
1
1
1
1
1
1
1
1
1
1
1
1
1
1
1
1
1
1
1
1
1
1
1
1
1
1
1
1
1
1
1
1
1
1
1
1
1
1
1
1
1
1
1
1
1
1
1
1
1
1
1
1
1
1
1
1
1
1
1
1
1
1
1
1
1
1
1
1
1
1
1
1
1
1
1
1
1
1
1
1
1
1
1
1
1
1
1
1
1
1
1
1
1
1
1
1
1
1
1
1
1
1
1
1
1
1
1
1
1
1
1
1
1
1
1
1
1
1
1
1
1
1
1
1
1
1
1
1
1
1
1
1
1
1
1
1
1
1
1
1
1
1
1
1
1
1
1
1
1
1
1
1
1
1
1
1
1
1
1
1
1
1
1
1
1
1
1
1
1
1
1
1
1
1
1
1
1
1
1
1
1
1
1
1
1
1
1
1
1
1
1
1
1
1
1
1
1
1
1
1
1
1
1
1
1
1
1
1
1
1
1
1
1
1
1
1
1
1
1
1
1
1
1
1
1
1
1
1
1
1
1
1
1
1
1
1
1
1
1
1
1
1
1
1
1
1
1
1
1
1
1
1
1
1
1
1
1
1
1
1
1
1
1
1
1
1
1
1
1
1
1
1
1
1
1
1
1
1
1
1
1
1
1
1
1
1
1
1
1
1
1
1
1
1
1
1
1
1
1
1
1
1
1
1
1
1
1
1
1
1
1
1
1
1
1
1
1
1
1
1
1
1
1
1
1
1
1
1
1
1
1
1
1
1
1
1
1
1
1
1
1
1
1
1
1
1
1
1
1
1
1
1
1
1
1
1
1
1
1
1
1
1
1
1
1
1
1
1
1
1
1
1
1
1
1
1
1
1
1
1
1
1
1
1
1
1
1
1
1
1
1
1
1
1
1
1
1
1
1
1
1
1
1
1
1
1
1
1
1
1
1
1
1
1
1
1
1
1
1
1
1
1
1
1
1
1
1
1
1
1
1
1
1
1
1
1
1
1
1
1
1
1
1
1
1
1
1
1
1
1
1
1
1
1
1
1
1
1
1
1
1
1
1
1
1
1
1
1
1
1
1
1
1
1
1
1
1
1
1
1
1
1
1
1
1
1
1
1
1
1
1
1
1
1
1
1
1
1
1
1
1
1
1
1
1
1
1
1
1
1
1
1
1
1
1
1
1
1
1
1
1
1
1
1
1
1
1
1
1
1
1
1
1
1
1
1
1
1
1
1
1
1
1
1
1
1
1
1
1
1
1
1
1
1
1
1
1
1
1
1
1
1
1
1
1
1
1
1
1
1
1
1
1
1
1
1
1
1
1
1
1
1
1
1
1
1
1
1
1
1
1
1
1
1
1
1
1
1
1
1
1
1
1
1
1
1
1
1
1
1
1
1
1
1
1
1
1
1
1
1
1
1
1
1
1
1
1
1
1
1
1
1
1
1
1
1
1
1
1
1
1
1
1
1
1
1
1
1
1
1
1
1
1
1
1
1
1
1
1
1
1
1
1
1
1
1
1
1
1
1
1
1
1
1
1
1
1
1
1
1
1
1
1
1
1
1
1
1
1
1
1
1
1
1
1
1
1
1
1
1
1
1
1
1
1
1
1
1
1
1
1
1
1
1
1
1
1
1
1
1
1
1
1
1
1
1
1
1
1
1
1
1
1
1
1
1
1
1
1
1
1
1
1
1
1
1
1
1
1
1
1
1
1
1
1
1
1
1
1
1
1
1
1
1
1
1
1
1
1
1
1
1
1
1
1
1
1
1
1
1
1
1
1
1
1
1
1
1
1
1
1
1
1
1
1
1
1
1
1
1
1
1
1
1
1
1
1
1
1
1
1
1
1
1
1
1
1
1
1
1
1
1
1
1
1
1
1
1
1
1
1
1
1
1
1
1
1
1
1
1
1
1
1
1
1
1
1
1
1
1
1
1
1
1
1
1
1
1
1
1
1
1
1
1
1
1
1
1
1
1
1
1
1
1
1
1
1
1
1
1
1
1
1
1
1
1
1
1
1
1
1
1
1
1
1
1
1
1
1
1
1
1
1
1
1
1
1
1
1
1
1
1
1
1
1
1
1
1
1
1
1
1
1
1
1
1
1
1
1
1
1
1
1
1
1
1
1
1
1
1
1
1
1
1
1
1
1
1
1
1
1
1
1
1
1
1
1
1
1
1
1
1
1
1
1
1
1
1
1
1
1
1
1
1
1
1
1
1
1
1
1
1
1
1
1
1
1
1
1
1
1
1
1
1
1
1
1
1
1
1
1
1
1
1
1
1
1
1
1
1
1
1
1
1
1
1
1
1
1
1
1
1
1
1
1
1
1
1
1
1
1
1
1
1
1
1
1
1
1
1
1
1
1
1
1
1
1
1
1
1
1
1
1
1
1
1
1
1
1
1
1
1
1
1
1
1
1
1
1
1
1
1
1
1
1
1
1
1
1
1
1
1
1
1
1
1
1
1
1
1
1
1
1
1
1
1
1
1
1
1
1
1
1
1
1
1
1
1
1
1
1
1
1
1
1
1
1
1
1
1
1
1
1
1
1
1
1
1
1
1
1
1
1
1
1
1
1
1
1
1
1
1
1
1
1
1
1
1
1
1
1
1
1
1
1
1
1
1
1
1
1
1
1
1
1
1
1
1
1
1
1
1
1
1
1
1
1
1
1
1
1
1
1
1
1
1
1
1
1
1
1
1
1
1
1
1
1
1
1
1
1
1
1
1
1
1
1
1
1
1
1
1
1
1
1
1
1
1
1
1
1
1
1
1
1
1
1
1
1
1
1
1
1
1
1
1
1
1
1
1
1
1
1
1
1
1
1
1
1
1
1
1
1
1
1
1
1
1
1
1
1
1
1
1
1
1
1
1
1
1
1
1
1
1
1
1
1
1
1
1
1
1
1
1
1
1
1
1
1
1
1
1
1
1
1
1
1
1
1
1
1
1
1
1
1
1
1
1
1
1
1
1
1
1
1
1
1
1
1
1
1
1
1
1
1
1
1
1
1
1
1
1
1
1
1
1
1
1
1
1
1
1
1
1
1
1
1
1
1
1
1
1
1
1
1
1
1
1
1
1
1
1
1
1
1
1
1
1
1
1
1
1
1
1
1
1
1
1
1
1
1
1
1
1
1
1
1
1
1
1
1
1
1
1
1
1
1
1
1
1
1
1
1
1
1
1
1
1
1
1
1
1
1
1
1
1
1
1
1
1
1
1
1
1
1
1
1
1
1
1
1
1
1
1
1
1
1
1
1
1
1
1
1
1
1
1
0.999999
1
1
1
1
1
1
1
1
1
1
1
1
1
1
1
1
1
1
1
1
1
1
1
1
1
1
1
1
1
1
1
1
1
1
1
1
1
1
1
1
1
1
1
1
1
1
1
1
1
1
1
1
1
1
1
1
1
1
1
1
1
1
1
1
1
1
1
1
1
1
1
1
1
1
1
1
1
1
1
1
1
1
1
1
1
1
1
1
1
1
1
1
1
1
1
1
1
1
1
0.999997
1
1
1
1
1
1
1
1
1
1
1
1
1
1
1
1
1
1
1
1
1
1
1
1
1
1
1
1
1
1
1
1
1
1
1
1
1
1
1
1
1
1
1
1
1
1
1
1
1
1
1
1
1
1
1
1
1
1
1
1
1
1
1
1
1
1
1
1
1
1
1
1
1
1
1
1
1
1
1
1
1
1
1
1
1
1
1
1
1
1
1
1
1
1
1
1
1
1
1
0.999998
1
1
1
1
1
1
1
1
1
1
1
1
1
1
1
1
1
1
1
1
1
1
1
1
1
1
1
1
1
1
1
1
1
1
1
1
1
1
1
1
1
1
1
1
1
1
1
1
1
1
1
1
1
1
1
1
1
1
1
1
1
1
1
1
1
1
1
1
1
1
1
1
1
1
1
1
1
1
1
1
1
1
1
1
1
1
1
1
1
1
1
1
1
1
1
1
1
1
1
1
1
1
1
1
1
1
1
1
1
1
1
1
1
1
1
1
1
1
1
1
1
1
1
1
1
1
1
1
1
1
1
1
1
1
1
1
1
1
1
1
1
1
1
1
1
1
1
1
1
1
1
1
1
1
1
1
1
1
1
1
1
1
1
1
1
1
1
1
1
1
1
1
1
1
1
1
1
1
1
1
1
1
1
1
1
1
1
1
1
1
1
1
1
1
1
1
1
1
1
1
1
1
1
1
1
1
1
1
1
1
1
1
1
1
1
1
1
1
1
1
1
1
1
1
1
1
1
1
1
1
1
1
1
1
1
1
1
1
1
1
1
1
1
1
1
1
1
1
1
1
1
1
1
1
1
1
1
1
1
1
1
1
1
1
1
1
1
1
1
1
1
1
1
1
1
1
1
1
1
1
1
1
1
1
1
1
1
1
1
1
1
1
1
1
1
1
1
1
1
1
1
1
1
1
1
1
1
1
1
1
1
1
1
1
1
1
1
1
1
1
1
1
1
1
1
1
1
1
1
1
1
1
1
1
1
1
1
1
1
1
1
1
1
1
1
1
1
1
1
1
1
1
1
1
1
1
1
1
1
1
1
1
1
1
1
1
1
1
1
1
1
1
1
1
1
1
1
1
1
1
1
1
1
1
1
1
1
1
1
1
1
1
1
1
1
1
1
1
1
0.999999
1
1
1
1
1
1
1
1
1
1
1
1
1
1
1
1
1
1
1
1
1
1
1
1
1
1
1
1
1
1
1
1
1
1
1
1
1
1
1
1
1
1
1
1
1
1
1
1
1
1
1
1
1
1
1
1
1
1
1
1
1
1
1
1
1
1
1
1
1
1
1
1
1
1
1
1
1
1
1
1
1
1
1
1
1
1
1
1
1
1
1
1
1
1
1
1
1
1
1
0.999993
1
1
1
1
1
1
1
1
1
1
1
1
1
1
1
1
1
1
1
1
1
1
1
1
1
1
1
1
1
1
1
1
1
1
1
1
1
1
1
1
1
1
1
1
1
1
1
1
1
1
1
1
1
1
1
1
1
1
1
1
1
1
1
1
1
1
1
1
1
1
1
1
1
1
1
1
1
1
1
1
1
1
1
1
1
1
1
1
1
1
1
1
1
1
1
1
1
1
0.999998
0.999969
1
1
1
1
1
1
1
1
1
1
1
1
1
1
1
1
1
1
1
1
1
1
1
1
1
1
1
1
1
1
1
1
1
1
1
1
1
1
1
1
1
1
1
1
1
1
1
1
1
1
1
1
1
1
1
1
1
1
1
1
1
1
1
1
1
1
1
1
1
1
1
1
1
1
1
1
1
1
1
1
1
1
1
1
1
1
1
1
1
1
1
1
1
1
1
1
1
1
0.999991
0.999816
1
1
1
1
1
1
1
1
1
1
1
1
1
1
1
1
1
1
1
1
1
1
1
1
1
1
1
1
1
1
1
1
1
1
1
1
1
1
1
1
1
1
1
1
1
1
1
1
1
1
1
1
1
1
1
1
1
1
1
1
1
1
1
1
1
1
1
1
1
1
1
1
1
1
1
1
1
1
1
1
1
1
1
1
1
1
1
1
1
1
1
1
1
1
1
1
1
0.999997
0.999931
0.972058
1
1
1
1
1
1
1
1
1
1
1
1
1
1
1
1
1
1
1
1
1
1
1
1
1
1
1
1
1
1
1
1
1
1
1
1
1
1
1
1
1
1
1
1
1
1
1
1
1
1
1
1
1
1
1
1
1
1
1
1
1
1
1
1
1
1
1
1
1
1
1
1
1
1
1
1
1
1
1
1
1
1
1
1
1
1
1
1
1
1
1
1
1
1
1
1
0.999999
0.999985
0.999681
0.755038
1
1
1
1
1
1
1
1
1
1
1
1
1
1
1
1
1
1
1
1
1
1
1
1
1
1
1
1
1
1
1
1
1
1
1
1
1
1
1
1
1
1
1
1
1
1
1
1
1
1
1
1
1
1
1
1
1
1
1
1
1
1
1
1
1
1
1
1
1
1
1
1
1
1
1
1
1
1
1
1
1
1
1
1
1
1
1
1
1
1
1
1
1
1
1
1
0.999999
0.999974
0.998697
0.551648
1
1
1
1
1
1
1
1
1
1
1
1
1
1
1
1
1
1
1
1
1
1
1
1
1
1
1
1
1
1
1
1
1
1
1
1
1
1
1
1
1
1
1
1
1
1
1
1
1
1
1
1
1
1
1
1
1
1
1
1
1
1
1
1
1
1
1
1
1
1
1
1
1
1
1
1
1
1
1
1
1
1
1
1
1
1
1
1
1
1
1
1
1
1
1
1
0.999997
0.999922
0.960195
0.29353
1
1
1
1
1
1
1
1
1
1
1
1
1
1
1
1
1
1
1
1
1
1
1
1
1
1
1
1
1
1
1
1
1
1
1
1
1
1
1
1
1
1
1
1
1
1
1
1
1
1
1
1
1
1
1
1
1
1
1
1
1
1
1
1
1
1
1
1
1
1
1
1
1
1
1
1
1
1
1
1
1
1
1
1
1
1
1
1
1
1
1
1
1
1
1
0.999999
0.999986
0.999711
0.787868
0.0392202
1
1
1
1
1
1
1
1
1
1
1
1
1
1
1
1
1
1
1
1
1
1
1
1
1
1
1
1
1
1
1
1
1
1
1
1
1
1
1
1
1
1
1
1
1
1
1
1
1
1
1
1
1
1
1
1
1
1
1
1
1
1
1
1
1
1
1
1
1
1
1
1
1
1
1
1
1
1
1
1
1
1
1
1
1
1
1
1
1
1
1
1
1
1
1
0.999999
0.99996
0.987791
0.487399
3.59727e-07
1
1
1
1
1
1
1
1
1
1
1
1
1
1
1
1
1
1
1
1
1
1
1
1
1
1
1
1
1
1
1
1
1
1
1
1
1
1
1
1
1
1
1
1
1
1
1
1
1
1
1
1
1
1
1
1
1
1
1
1
1
1
1
1
1
1
1
1
1
1
1
1
1
1
1
1
1
1
1
1
1
1
1
1
1
1
1
1
1
1
1
1
1
1
1
0.999995
0.999874
0.909745
0.227168
-9.33454e-06
1
1
1
1
1
1
1
1
1
1
1
1
1
1
1
1
1
1
1
1
1
1
1
1
1
1
1
1
1
1
1
1
1
1
1
1
1
1
1
1
1
1
1
1
1
1
1
1
1
1
1
1
1
1
1
1
1
1
1
1
1
1
1
1
1
1
1
1
1
1
1
1
1
1
1
1
1
1
1
1
1
1
1
1
1
1
1
1
1
1
1
1
1
1
0.999999
0.999985
0.999658
0.706753
0.000190839
-2.61181e-06
1
1
1
1
1
1
1
1
1
1
1
1
1
1
1
1
1
1
1
1
1
1
1
1
1
1
1
1
1
1
1
1
1
1
1
1
1
1
1
1
1
1
1
1
1
1
1
1
1
1
1
1
1
1
1
1
1
1
1
1
1
1
1
1
1
1
1
1
1
1
1
1
1
1
1
1
1
1
1
1
1
1
1
1
1
1
1
1
1
1
1
1
1
1
0.999999
0.999962
0.98432
0.460258
1.03689e-05
6.01617e-07
1
1
1
1
1
1
1
1
1
1
1
1
1
1
1
1
1
1
1
1
1
1
1
1
1
1
1
1
1
1
1
1
1
1
1
1
1
1
1
1
1
1
1
1
1
1
1
1
1
1
1
1
1
1
1
1
1
1
1
1
1
1
1
1
1
1
1
1
1
1
1
1
1
1
1
1
1
1
1
1
1
1
1
1
1
1
1
1
1
1
1
1
1
1
0.999996
0.999888
0.908855
0.218511
-1.57362e-05
8.48952e-07
0.19333
0.19438
0.196031
0.198549
0.201667
0.205588
0.210145
0.215495
0.221536
0.228391
0.236004
0.244474
0.253778
0.264002
0.275143
0.287279
0.300428
0.314664
0.330023
0.34658
0.364382
0.383501
0.403986
0.425765
0.448783
0.473043
0.498527
0.525213
0.553048
0.581967
0.611873
0.64264
0.67411
0.706095
0.73837
0.770688
0.802767
0.8343
0.864951
0.894375
0.922202
0.948037
0.971487
0.992191
1
1
1
1
1
1
1
1
1
1
1
1
1
1
1
1
1
1
1
1
1
1
1
1
1
1
1
1
1
1
1
1
1
1
1
1
1
1
1
1
1
1
1
1
1
1
1
1
1
0.999999
0.999989
0.999724
0.730203
0.000287308
-5.48905e-06
1.62465e-06
1.8981e-07
1.48577e-07
1.7115e-07
1.79973e-07
1.89929e-07
2.01737e-07
2.16117e-07
2.33246e-07
2.5366e-07
2.77803e-07
3.06365e-07
3.39923e-07
3.79375e-07
4.25609e-07
4.79751e-07
5.43241e-07
6.17905e-07
7.06047e-07
8.10308e-07
9.33721e-07
1.07887e-06
1.24966e-06
7.38462e-06
0.000188783
0.000685487
0.0015921
0.00302389
0.00511931
0.00804599
0.0119986
0.0172042
0.0239277
0.0324709
0.0431757
0.0564241
0.0726366
0.0922761
0.115846
0.143894
0.177006
0.215806
0.2609
0.312732
0.372113
0.44973
0.536438
0.620819
0.700992
0.775613
0.843213
0.902442
0.952186
0.991479
1
1
1
1
1
1
1
1
1
1
1
1
1
1
1
1
1
1
1
1
1
1
1
1
1
1
1
1
1
1
1
1
1
1
1
1
1
1
1
1
0.999999
0.999976
0.993361
0.520229
2.20438e-05
2.08552e-06
2.25397e-06
5.07272e-10
5.95778e-10
6.00263e-10
6.36244e-10
6.7124e-10
7.02583e-10
7.36092e-10
7.72057e-10
8.22715e-10
8.92116e-10
9.82813e-10
1.0738e-09
1.18094e-09
1.32044e-09
1.49356e-09
1.70931e-09
1.97649e-09
2.3066e-09
2.71435e-09
3.21996e-09
3.84904e-09
4.60797e-09
5.47439e-09
7.08795e-09
1.02584e-08
1.59115e-08
2.56547e-08
4.16789e-08
6.61052e-08
1.02396e-07
1.55266e-07
2.31293e-07
3.39915e-07
4.94526e-07
7.13976e-07
1.02429e-06
1.46012e-06
2.06931e-06
2.9125e-06
4.06795e-06
5.62547e-06
7.63707e-06
1.0142e-05
1.39712e-05
0.000809043
0.00648797
0.0195065
0.0420442
0.0764338
0.124884
0.189369
0.271385
0.373012
0.512273
0.651178
0.772106
0.872222
0.950026
1
1
1
1
1
1
1
1
1
1
1
1
1
1
1
1
1
1
1
1
1
1
1
1
1
1
1
1
1
1
1
1
1
1
1
0.999998
0.999935
0.949276
0.300595
3.95637e-06
3.29011e-06
2.47487e-06
1.62091e-10
2.15272e-10
2.5514e-10
2.56488e-10
2.54441e-10
2.59792e-10
2.61162e-10
2.58121e-10
2.61304e-10
2.73319e-10
2.94494e-10
3.01892e-10
3.0842e-10
3.27139e-10
3.55239e-10
3.96264e-10
4.51782e-10
5.22471e-10
6.12098e-10
7.27378e-10
8.79034e-10
1.04112e-09
1.29387e-09
1.38465e-09
1.20137e-09
7.88981e-10
4.89925e-10
5.63264e-10
6.55732e-10
8.21974e-10
1.09698e-09
1.48888e-09
2.07028e-09
2.94127e-09
4.19782e-09
5.91017e-09
7.84466e-09
1.14665e-08
1.71247e-08
2.55231e-08
3.77328e-08
5.4701e-08
7.75125e-08
1.15833e-07
2.11509e-07
5.46195e-07
1.27668e-06
2.6703e-06
5.16097e-06
9.34917e-06
1.58463e-05
2.54336e-05
4.17364e-05
0.00452345
0.0274265
0.0757404
0.154972
0.269486
0.42685
0.628054
0.793961
0.91743
0.997156
1
1
1
1
1
1
1
1
1
1
1
1
1
1
1
1
1
1
1
1
1
1
1
1
1
1
1
1
1
1
0.999995
0.999845
0.839017
0.0827893
-2.04241e-05
5.26947e-06
3.3003e-06
1.02681e-10
1.55894e-10
1.95775e-10
1.98696e-10
1.96706e-10
2.02126e-10
2.03571e-10
2.0061e-10
2.03891e-10
2.16036e-10
2.37368e-10
2.44916e-10
2.51604e-10
2.705e-10
2.98779e-10
3.39977e-10
3.9565e-10
4.67605e-10
5.59854e-10
6.79404e-10
8.38436e-10
1.04321e-09
1.25949e-09
1.32996e-09
1.0904e-09
6.46722e-10
3.3215e-10
3.47539e-10
3.73651e-10
4.09782e-10
4.60727e-10
5.27893e-10
6.29644e-10
7.63364e-10
9.57399e-10
1.05051e-09
5.32748e-10
4.10816e-10
4.43876e-10
5.17367e-10
6.33924e-10
8.21965e-10
1.10438e-09
1.60093e-09
2.70058e-09
5.70975e-09
1.24599e-08
2.6531e-08
5.36767e-08
1.03785e-07
1.89678e-07
3.30173e-07
6.03453e-07
1.57105e-06
4.96338e-06
1.2386e-05
2.6446e-05
5.21289e-05
0.000512781
0.0225677
0.0906473
0.21494
0.403729
0.658895
0.854538
0.977696
1
1
1
1
1
1
1
1
1
1
1
1
1
1
1
1
1
1
1
1
1
1
1
1
1
1
1
0.999988
0.999695
0.664837
2.78281e-05
1.56801e-06
6.78429e-06
9.56929e-06
9.5021e-12
2.14395e-11
3.23641e-11
3.39418e-11
3.35979e-11
3.41954e-11
3.403e-11
3.28644e-11
3.28732e-11
3.46234e-11
3.79085e-11
3.78479e-11
3.67822e-11
3.75243e-11
3.95286e-11
4.34392e-11
4.92948e-11
5.70167e-11
6.69807e-11
8.03761e-11
9.97969e-11
1.26101e-10
1.6071e-10
1.97941e-10
2.35393e-10
2.61674e-10
2.72796e-10
2.88245e-10
3.14066e-10
3.49846e-10
4.00248e-10
4.66649e-10
5.69989e-10
7.5254e-10
9.28553e-10
9.07114e-10
3.34353e-10
2.80795e-10
2.80172e-10
2.98974e-10
3.34854e-10
3.95403e-10
4.90366e-10
6.48614e-10
8.27188e-10
7.66983e-10
5.36816e-10
7.25962e-10
1.10653e-09
1.84469e-09
3.14018e-09
4.64747e-09
8.71472e-09
2.4312e-08
8.01888e-08
2.08244e-07
4.69749e-07
1.00566e-06
2.25659e-06
8.82003e-06
2.65579e-05
6.68599e-05
0.000292892
0.0315333
0.140675
0.344837
0.64713
0.88063
1
1
1
1
1
1
1
1
1
1
1
1
1
1
1
1
1
1
1
1
1
1
1
1
0.999999
0.999977
0.990258
0.479832
1.94905e-05
7.71743e-06
7.15977e-06
1.649e-05
6.09292e-13
2.14659e-12
4.04324e-12
4.49949e-12
4.52372e-12
4.59084e-12
4.56833e-12
4.41079e-12
4.43367e-12
4.72019e-12
5.19956e-12
5.20107e-12
4.99369e-12
4.98457e-12
5.13255e-12
5.52823e-12
6.15594e-12
6.96092e-12
7.95418e-12
9.30813e-12
1.14573e-11
1.45126e-11
1.88085e-11
2.44123e-11
3.13439e-11
3.93547e-11
4.79689e-11
5.71852e-11
6.74106e-11
7.82867e-11
8.93859e-11
9.93367e-11
1.10925e-10
1.34171e-10
1.74788e-10
2.18567e-10
2.29405e-10
2.22656e-10
2.21727e-10
2.40422e-10
2.76459e-10
3.37233e-10
4.34715e-10
5.95617e-10
8.533e-10
5.69158e-10
3.6063e-10
4.18733e-10
5.2602e-10
6.98762e-10
9.75036e-10
6.03374e-10
5.35629e-10
8.0729e-10
1.82973e-09
3.85748e-09
8.53421e-09
1.93749e-08
4.79888e-08
1.9977e-07
6.21909e-07
1.67146e-06
4.3936e-06
1.85913e-05
6.37265e-05
0.000186239
0.0291807
0.170345
0.451207
0.791764
0.981606
1
1
1
1
1
1
1
1
1
1
1
1
1
1
1
1
1
1
1
1
1
0.999998
0.999942
0.950086
0.294852
1.2266e-05
9.18703e-06
7.93417e-06
2.15518e-05
3.13604e-14
1.83146e-13
4.36373e-13
5.24656e-13
5.39067e-13
5.46853e-13
5.44848e-13
5.27199e-13
5.3486e-13
5.77823e-13
6.41595e-13
6.49837e-13
6.26801e-13
6.22173e-13
6.37529e-13
6.83425e-13
7.55731e-13
8.4274e-13
9.40419e-13
1.07093e-12
1.29678e-12
1.63386e-12
2.12833e-12
2.81162e-12
3.71937e-12
4.89788e-12
6.40367e-12
8.26071e-12
1.04873e-11
1.30044e-11
1.56275e-11
1.80161e-11
2.04339e-11
2.44332e-11
3.14671e-11
4.07471e-11
4.9559e-11
5.63744e-11
6.18198e-11
6.98418e-11
8.02719e-11
9.41914e-11
1.14034e-10
1.45927e-10
2.00747e-10
2.62785e-10
3.01777e-10
3.59367e-10
4.72108e-10
6.88602e-10
9.97891e-10
3.85407e-10
3.61046e-10
4.07003e-10
5.51721e-10
5.32588e-10
5.03899e-10
8.05774e-10
1.62031e-09
4.84427e-09
1.49116e-08
4.22485e-08
1.20978e-07
5.44762e-07
1.93007e-06
6.19943e-06
2.67704e-05
0.000110513
0.00228526
0.0931514
0.368039
0.772418
0.991688
1
1
1
1
1
1
1
1
1
1
1
1
1
1
1
1
1
1
1
0.999997
0.99988
0.870077
0.14516
6.50404e-06
1.0293e-05
9.13074e-06
3.98349e-05
1.43016e-15
1.45147e-14
4.40311e-14
5.80886e-14
6.12841e-14
6.23202e-14
6.21441e-14
6.0168e-14
6.16185e-14
6.75597e-14
7.55381e-14
7.74714e-14
7.52523e-14
7.46232e-14
7.66697e-14
8.24493e-14
9.12264e-14
1.01085e-13
1.1089e-13
1.2329e-13
1.46496e-13
1.82962e-13
2.38069e-13
3.15783e-13
4.21889e-13
5.66326e-13
7.65796e-13
1.03406e-12
1.38141e-12
1.80616e-12
2.28764e-12
2.784e-12
3.3225e-12
4.09812e-12
5.32086e-12
6.95683e-12
8.78754e-12
1.0675e-11
1.25714e-11
1.5013e-11
1.79459e-11
2.14425e-11
2.58928e-11
3.25452e-11
4.39474e-11
6.12202e-11
8.26341e-11
1.07834e-10
1.41372e-10
1.90406e-10
2.62109e-10
3.03289e-10
3.02979e-10
3.45425e-10
5.62266e-10
2.81215e-10
3.12835e-10
3.99256e-10
6.01527e-10
4.9756e-10
8.12329e-10
1.73512e-09
3.72371e-09
1.63163e-08
5.97411e-08
2.06614e-07
9.5036e-07
4.02535e-06
1.45785e-05
8.36866e-05
0.000351004
0.0829434
0.414844
0.856526
1
1
1
1
1
1
1
1
1
1
1
1
1
1
1
1
1
1
0.999994
0.999793
0.75072
0.007339
2.99208e-06
1.07738e-05
1.23654e-05
4.46011e-05
6.22781e-17
1.12794e-15
4.36061e-15
6.39474e-15
6.96193e-15
7.12703e-15
7.11671e-15
6.88681e-15
7.11893e-15
7.91648e-15
8.89593e-15
9.19992e-15
8.96841e-15
8.87701e-15
9.15692e-15
9.89783e-15
1.09834e-14
1.21336e-14
1.31427e-14
1.43189e-14
1.66914e-14
2.06383e-14
2.67305e-14
3.5364e-14
4.72249e-14
6.37131e-14
8.74413e-14
1.21011e-13
1.66831e-13
2.26398e-13
2.99326e-13
3.83151e-13
4.82496e-13
6.20134e-13
8.22011e-13
1.08821e-12
1.39937e-12
1.74984e-12
2.14484e-12
2.659e-12
3.28864e-12
4.04355e-12
4.99423e-12
6.36184e-12
8.58837e-12
1.2084e-11
1.71748e-11
2.40386e-11
3.3222e-11
4.55785e-11
6.28079e-11
8.41378e-11
1.0102e-10
1.17744e-10
1.60165e-10
2.13359e-10
2.52898e-10
3.52616e-10
6.19097e-10
3.35271e-10
4.21942e-10
6.44154e-10
5.0537e-10
9.6504e-10
2.34032e-09
7.34809e-09
3.46135e-08
1.5061e-07
5.831e-07
3.41483e-06
1.51863e-05
0.000116346
0.00147985
0.156792
0.640557
0.982323
1
1
1
1
1
1
1
1
1
1
1
1
1
1
1
1
0.999989
0.999419
0.61196
4.69292e-06
8.7077e-06
1.09884e-05
1.75733e-05
4.11766e-05
2.78968e-18
8.92038e-17
4.37158e-16
7.19143e-16
8.1214e-16
8.41561e-16
8.43345e-16
8.16358e-16
8.52589e-16
9.61028e-16
1.08338e-15
1.12392e-15
1.09425e-15
1.0785e-15
1.11524e-15
1.20984e-15
1.34452e-15
1.48025e-15
1.58534e-15
1.69622e-15
1.94001e-15
2.37255e-15
3.05033e-15
4.00779e-15
5.3172e-15
7.1517e-15
9.85114e-15
1.37802e-14
1.93191e-14
2.6835e-14
3.66051e-14
4.87979e-14
6.43123e-14
8.5829e-14
1.16444e-13
1.56648e-13
2.04762e-13
2.60899e-13
3.27513e-13
4.14829e-13
5.24269e-13
6.598e-13
8.35854e-13
1.08852e-12
1.48282e-12
2.09433e-12
3.02085e-12
4.36701e-12
6.27745e-12
8.92765e-12
1.26801e-11
1.79634e-11
2.41682e-11
3.13971e-11
4.37361e-11
6.3408e-11
8.76408e-11
1.21656e-10
1.91377e-10
2.75277e-10
3.8118e-10
6.9447e-10
3.60413e-10
4.553e-10
5.15419e-10
6.9004e-10
1.89204e-09
6.21504e-09
2.43713e-08
1.44708e-07
7.21791e-07
5.52529e-06
2.87531e-05
0.000303077
0.0346803
0.416995
0.921586
1
1
1
1
1
1
1
1
1
1
1
1
1
1
0.999999
0.99998
0.990658
0.469011
1.37724e-05
1.01689e-05
1.09944e-05
1.802e-05
4.0536e-05
1.40026e-19
7.36702e-18
4.52083e-17
8.37775e-17
9.86137e-17
1.04031e-16
1.04978e-16
1.01929e-16
1.07744e-16
1.23038e-16
1.38978e-16
1.44034e-16
1.39556e-16
1.36753e-16
1.41465e-16
1.53577e-16
1.70372e-16
1.8647e-16
1.97354e-16
2.07563e-16
2.32898e-16
2.81259e-16
3.57846e-16
4.65197e-16
6.10587e-16
8.14438e-16
1.11761e-15
1.56491e-15
2.2062e-15
3.10026e-15
4.31329e-15
5.91898e-15
8.07154e-15
1.10952e-14
1.53639e-14
2.10053e-14
2.7909e-14
3.6146e-14
4.61453e-14
5.91599e-14
7.5645e-14
9.66163e-14
1.24733e-13
1.65382e-13
2.2716e-13
3.21188e-13
4.63992e-13
6.77543e-13
9.93238e-13
1.45257e-12
2.13317e-12
3.15485e-12
4.58062e-12
6.57493e-12
9.84325e-12
1.51339e-11
2.32503e-11
3.50734e-11
5.57043e-11
8.90532e-11
1.3686e-10
2.24992e-10
3.03189e-10
4.31405e-10
3.23144e-10
4.09751e-10
6.40803e-10
6.96008e-10
1.7076e-09
6.85631e-09
3.28875e-08
2.71395e-07
1.66528e-06
1.79638e-05
0.000125065
0.00317791
0.270894
0.857557
1
1
1
1
1
1
1
1
1
1
1
1
1
0.999999
0.999962
0.965377
0.334962
1.15262e-05
1.00009e-05
1.07984e-05
1.63756e-05
3.8386e-05
8.50065e-21
6.45607e-19
4.87029e-18
1.01608e-17
1.25131e-17
1.35054e-17
1.37726e-17
1.34604e-17
1.44267e-17
1.66794e-17
1.8868e-17
1.94932e-17
1.87747e-17
1.82968e-17
1.89106e-17
2.04928e-17
2.26215e-17
2.45483e-17
2.56535e-17
2.65435e-17
2.92241e-17
3.47746e-17
4.36252e-17
5.59012e-17
7.23323e-17
9.53067e-17
1.29573e-16
1.80286e-16
2.53363e-16
3.5668e-16
5.00743e-16
6.99132e-16
9.74823e-16
1.36736e-15
1.92242e-15
2.66389e-15
3.59105e-15
4.71827e-15
6.10164e-15
7.87727e-15
1.01245e-14
1.30224e-14
1.69774e-14
2.27025e-14
3.12247e-14
4.39389e-14
6.3036e-14
9.17294e-14
1.34991e-13
2.00345e-13
3.01815e-13
4.63001e-13
7.13192e-13
1.11019e-12
1.79199e-12
2.95385e-12
4.93463e-12
8.16565e-12
1.37825e-11
2.33997e-11
4.05793e-11
7.00121e-11
1.14694e-10
1.65804e-10
2.55293e-10
3.53249e-10
4.3529e-10
4.31503e-10
6.84491e-10
8.35992e-10
2.06483e-09
1.4399e-08
8.87427e-08
1.08562e-06
8.01088e-06
6.36e-05
0.000633569
0.17344
0.7931
1
1
1
1
1
1
1
1
1
1
1
1
0.999997
0.999931
0.921951
0.223442
1.03363e-05
1.00439e-05
1.05933e-05
3.23569e-05
3.08248e-05
6.36524e-22
6.04591e-20
5.483e-19
1.28223e-18
1.65614e-18
1.8353e-18
1.89689e-18
1.87182e-18
2.03631e-18
2.38143e-18
2.69783e-18
2.77763e-18
2.6616e-18
2.5842e-18
2.66847e-18
2.88285e-18
3.16076e-18
3.39593e-18
3.50485e-18
3.57418e-18
3.86593e-18
4.52421e-18
5.57691e-18
7.01893e-18
8.92578e-18
1.15807e-17
1.55302e-17
2.13495e-17
2.97032e-17
4.15525e-17
5.83059e-17
8.19217e-17
1.15474e-16
1.63715e-16
2.32176e-16
3.24581e-16
4.42249e-16
5.87516e-16
7.6669e-16
9.93078e-16
1.27719e-15
1.64366e-15
2.14426e-15
2.86097e-15
3.9021e-15
5.41705e-15
7.64658e-15
1.09628e-14
1.59792e-14
2.37299e-14
3.62138e-14
5.70537e-14
9.20788e-14
1.52998e-13
2.64652e-13
4.69725e-13
8.51078e-13
1.54407e-12
2.82809e-12
5.18053e-12
9.94129e-12
1.88518e-11
3.44838e-11
5.66977e-11
9.47413e-11
1.4949e-10
2.59088e-10
3.75674e-10
4.8277e-10
5.19268e-10
5.49624e-10
1.32793e-09
5.55779e-09
6.57115e-08
5.15836e-07
4.47363e-06
4.20994e-05
0.000407152
0.111955
0.748731
1
1
1
1
1
1
1
1
1
1
1
0.999996
0.999885
0.863092
0.13812
9.93847e-06
1.00865e-05
1.05987e-05
2.89625e-05
1.8766e-05
5.63644e-23
6.04748e-21
6.44212e-20
1.67781e-19
2.27577e-19
2.59493e-19
2.72334e-19
2.71887e-19
3.00259e-19
3.54817e-19
4.02611e-19
4.13383e-19
3.94795e-19
3.82755e-19
3.95184e-19
4.25621e-19
4.63389e-19
4.93058e-19
5.03411e-19
5.07518e-19
5.40705e-19
6.2198e-19
7.51667e-19
9.26799e-19
1.1557e-18
1.47292e-18
1.94182e-18
2.62596e-18
3.59817e-18
4.97018e-18
6.91495e-18
9.68289e-18
1.36548e-17
1.93874e-17
2.75333e-17
3.8603e-17
5.28776e-17
7.06788e-17
9.26385e-17
1.19932e-16
1.5371e-16
1.96788e-16
2.54749e-16
3.35663e-16
4.49275e-16
6.08905e-16
8.36403e-16
1.16676e-15
1.66077e-15
2.42931e-15
3.6962e-15
5.89606e-15
9.83455e-15
1.72099e-14
3.16961e-14
6.0623e-14
1.19478e-13
2.38263e-13
4.79252e-13
9.64177e-13
2.04139e-12
4.30197e-12
8.75816e-12
1.6406e-11
3.02246e-11
5.43681e-11
9.8917e-11
1.70762e-10
3.11427e-10
4.63974e-10
4.07358e-10
6.04716e-10
8.981e-10
4.64344e-09
3.42418e-08
2.9812e-07
3.11901e-06
2.80133e-05
0.000363719
0.0751995
0.842269
1
1
1
1
1
1
1
1
1
1
0.999995
0.999828
0.792931
0.0772144
9.71883e-06
9.70108e-06
1.1508e-05
2.77893e-05
5.52982e-06
5.58062e-24
6.42606e-22
7.86908e-21
2.26623e-20
3.22935e-20
3.79258e-20
4.04531e-20
4.08998e-20
4.58256e-20
5.46571e-20
6.21313e-20
6.36825e-20
6.07246e-20
5.89023e-20
6.08675e-20
6.54035e-20
7.07764e-20
7.46942e-20
7.56462e-20
7.56784e-20
7.97051e-20
9.02247e-20
1.06869e-19
1.28988e-19
1.57582e-19
1.97025e-19
2.54809e-19
3.38011e-19
4.54606e-19
6.17358e-19
8.46573e-19
1.17222e-18
1.63909e-18
2.31058e-18
3.26129e-18
4.55446e-18
6.23103e-18
8.32853e-18
1.09021e-17
1.40428e-17
1.78555e-17
2.26127e-17
2.88262e-17
3.71593e-17
4.83158e-17
6.32267e-17
8.34672e-17
1.11665e-16
1.5264e-16
2.15766e-16
3.20739e-16
5.08219e-16
8.61546e-16
1.56763e-15
3.05782e-15
6.30865e-15
1.35953e-14
2.99881e-14
6.69646e-14
1.5015e-13
3.53245e-13
8.31977e-13
1.90044e-12
4.04418e-12
8.39459e-12
1.70262e-11
3.42286e-11
6.77697e-11
1.32791e-10
2.30635e-10
3.53994e-10
4.60128e-10
5.53381e-10
8.46302e-10
2.86273e-09
2.08256e-08
2.21026e-07
2.53944e-06
2.80767e-05
0.000363942
0.190201
0.972413
1
1
1
1
1
1
1
1
1
0.999994
0.999765
0.715313
0.0242075
7.55387e-06
9.36372e-06
2.75504e-05
2.77974e-05
2.23721e-05
5.94182e-25
7.19799e-23
9.94528e-22
3.14538e-21
4.70811e-21
5.69625e-21
6.17661e-21
6.32522e-21
7.18324e-21
8.63854e-21
9.83886e-21
1.0076e-20
9.60636e-21
9.33539e-21
9.66337e-21
1.03696e-20
1.11695e-20
1.17156e-20
1.18034e-20
1.17608e-20
1.22918e-20
1.3726e-20
1.59607e-20
1.88783e-20
2.26116e-20
2.77377e-20
3.51687e-20
4.57115e-20
6.02587e-20
8.02816e-20
1.0813e-19
1.4727e-19
2.02803e-19
2.81779e-19
3.92445e-19
5.42016e-19
7.35347e-19
9.7604e-19
1.26784e-18
1.61613e-18
2.02833e-18
2.52635e-18
3.14901e-18
3.9386e-18
4.929e-18
6.16193e-18
7.71823e-18
9.74705e-18
1.25482e-17
1.67439e-17
2.36919e-17
3.63466e-17
6.12777e-17
1.14301e-16
2.35075e-16
5.24536e-16
1.2453e-15
3.06662e-15
7.69359e-15
1.9485e-14
5.14984e-14
1.3657e-13
3.52883e-13
8.55855e-13
2.02157e-12
4.64584e-12
1.05193e-11
2.35861e-11
5.18895e-11
1.04683e-10
1.82371e-10
3.12482e-10
5.30337e-10
5.51056e-10
7.33191e-10
2.07251e-09
1.57139e-08
2.43289e-07
2.22084e-06
3.50527e-05
0.00216146
0.475451
1
1
1
1
1
1
1
1
1
0.99999
0.999685
0.628601
-6.66284e-05
4.44836e-06
8.49016e-06
1.64897e-05
2.77974e-05
2.69353e-05
6.65772e-26
8.43132e-24
1.29426e-22
4.46766e-22
7.02125e-22
8.74943e-22
9.64267e-22
9.99869e-22
1.14965e-21
1.39276e-21
1.58949e-21
1.62756e-21
1.55286e-21
1.51307e-21
1.56982e-21
1.68378e-21
1.80784e-21
1.88841e-21
1.89757e-21
1.88876e-21
1.96551e-21
2.17164e-21
2.48597e-21
2.88875e-21
3.3992e-21
4.09676e-21
5.09673e-21
6.4945e-21
8.39464e-21
1.09724e-20
1.45024e-20
1.9382e-20
2.61821e-20
3.56736e-20
4.87403e-20
6.61445e-20
8.83684e-20
1.15656e-19
1.48092e-19
1.85741e-19
2.28851e-19
2.78738e-19
3.37571e-19
4.06826e-19
4.86293e-19
5.75575e-19
6.76385e-19
7.94434e-19
9.44336e-19
1.15925e-18
1.51376e-18
2.17635e-18
3.54662e-18
6.65638e-18
1.43323e-17
3.46399e-17
9.12786e-17
2.53605e-16
7.24055e-16
2.09857e-15
6.30873e-15
1.90203e-14
5.60537e-14
1.55935e-13
4.22298e-13
1.11008e-12
2.8566e-12
7.28642e-12
1.83066e-11
4.23817e-11
8.31541e-11
1.56813e-10
2.87627e-10
5.10625e-10
5.44638e-10
6.86732e-10
1.79536e-09
1.56959e-08
1.98492e-07
2.48721e-05
0.000149878
0.00716171
0.857347
1
1
1
1
1
1
1
0.999999
0.999984
0.997262
0.534879
-2.7949e-06
8.08887e-06
8.60335e-06
8.69067e-06
2.09893e-05
9.60522e-06
7.75863e-27
1.02536e-24
1.72691e-23
6.4716e-23
1.06718e-22
1.36904e-22
1.53285e-22
1.6085e-22
1.87048e-22
2.28102e-22
2.60858e-22
2.67198e-22
2.55271e-22
2.4949e-22
2.59531e-22
2.78444e-22
2.98361e-22
3.10893e-22
3.12208e-22
3.11108e-22
3.23178e-22
3.54309e-22
4.00555e-22
4.58705e-22
5.31738e-22
6.31048e-22
7.71821e-22
9.65897e-22
1.22634e-21
1.57518e-21
2.04549e-21
2.68328e-21
3.55233e-21
4.73601e-21
6.32618e-21
8.39675e-21
1.09848e-20
1.40897e-20
1.76777e-20
2.16982e-20
2.61117e-20
3.09437e-20
3.62283e-20
4.18643e-20
4.75648e-20
5.30167e-20
5.80713e-20
6.28786e-20
6.81552e-20
7.56336e-20
8.9096e-20
1.16873e-19
1.78787e-19
3.27534e-19
7.18398e-19
1.84817e-18
5.38019e-18
1.69479e-17
5.56546e-17
1.8685e-16
6.46993e-16
2.24188e-15
7.60299e-15
2.44529e-14
7.66089e-14
2.32669e-13
6.86852e-13
2.00923e-12
5.80897e-12
1.54373e-11
3.46386e-11
7.37354e-11
1.5036e-10
2.86857e-10
4.92267e-10
5.42159e-10
6.7039e-10
1.77758e-09
1.8497e-08
1.13564e-06
1.6022e-05
0.000291457
0.257981
1
1
1
1
1
1
1
0.999999
0.999976
0.989136
0.444021
7.40148e-06
8.41412e-06
8.47898e-06
6.11287e-06
1.92809e-06
3.86375e-08
9.33757e-28
1.28695e-25
2.35384e-24
9.53278e-24
1.64829e-23
2.17552e-23
2.47326e-23
2.62469e-23
3.08379e-23
3.78323e-23
4.33558e-23
4.44404e-23
4.25264e-23
4.16973e-23
4.34985e-23
4.6705e-23
4.9993e-23
5.20327e-23
5.22959e-23
5.22448e-23
5.42727e-23
5.91819e-23
6.627e-23
7.5021e-23
8.59201e-23
1.00663e-22
1.21338e-22
1.49497e-22
1.869e-22
2.36495e-22
3.02466e-22
3.9028e-22
5.0713e-22