/*--------------------------------*- C++ -*----------------------------------*\
| =========                 |                                                 |
| \\      /  F ield         | OpenFOAM: The Open Source CFD Toolbox           |
|  \\    /   O peration     | Version:  2.4.0                                 |
|   \\  /    A nd           | Web:      www.OpenFOAM.org                      |
|    \\/     M anipulation  |                                                 |
\*---------------------------------------------------------------------------*/
FoamFile
{
    version     2.0;
    format      ascii;
    class       volScalarField;
    location    "0.191";
    object      p;
}
// * * * * * * * * * * * * * * * * * * * * * * * * * * * * * * * * * * * * * //

dimensions      [1 -1 -2 0 0 0 0];

internalField   nonuniform List<scalar> 
60000
(
98.9315
98.9349
98.9423
98.954
98.9699
98.99
99.0145
99.0434
99.0767
99.1145
99.1568
99.2039
99.2558
99.3126
99.3744
99.4414
99.5137
99.5914
99.6747
99.7639
99.8589
99.9602
100.068
100.182
100.303
100.43
100.565
100.708
100.858
101.015
101.181
101.355
101.538
101.729
101.929
102.139
102.357
102.585
102.823
103.07
103.327
103.594
103.87
104.156
104.452
104.757
105.072
105.395
105.727
106.067
106.414
106.767
107.126
107.49
107.858
108.227
108.597
108.966
109.332
109.692
110.046
110.389
110.719
111.033
111.328
111.6
111.846
112.061
112.241
112.383
112.48
112.529
112.524
112.462
112.336
112.142
111.875
111.531
111.104
110.592
109.99
109.296
108.505
107.618
106.632
105.547
104.364
103.085
101.714
100.254
98.7119
97.0947
95.4112
93.6717
91.8879
90.0719
88.2369
86.3981
84.573
82.7767
96.9693
96.9726
96.98
96.9917
97.0075
97.0277
97.0522
97.081
97.1143
97.1521
97.1945
97.2416
97.2935
97.3503
97.4121
97.4791
97.5514
97.6291
97.7125
97.8016
97.8967
97.9979
98.1055
98.2196
98.3405
98.4683
98.6032
98.7456
98.8956
99.0534
99.2193
99.3934
99.5761
99.7674
99.9677
100.177
100.396
100.624
100.861
101.109
101.366
101.633
101.91
102.196
102.492
102.798
103.112
103.436
103.768
104.108
104.456
104.81
105.17
105.534
105.902
106.272
106.643
107.012
107.379
107.74
108.095
108.439
108.77
109.085
109.381
109.655
109.901
110.118
110.299
110.442
110.541
110.591
110.588
110.526
110.402
110.209
109.943
109.6
109.174
108.663
108.062
107.368
106.578
105.691
104.705
103.62
102.436
101.157
99.7848
98.3239
96.7802
95.161
93.475
91.7327
89.9456
88.1258
86.2859
84.4409
82.61
80.8105
95.0059
95.0092
95.0166
95.0283
95.0441
95.0643
95.0887
95.1176
95.1509
95.1886
95.231
95.2781
95.3299
95.3867
95.4485
95.5154
95.5877
95.6654
95.7487
95.8378
95.9328
96.034
96.1415
96.2556
96.3764
96.5042
96.6391
96.7814
96.9314
97.0891
97.255
97.4291
97.6117
97.8031
98.0033
98.2127
98.4314
98.6595
98.8973
99.1447
99.4019
99.6689
99.9457
100.232
100.529
100.834
101.149
101.473
101.806
102.146
102.494
102.849
103.209
103.574
103.943
104.313
104.685
105.056
105.423
105.786
106.141
106.486
106.819
107.136
107.433
107.708
107.957
108.175
108.358
108.503
108.603
108.656
108.654
108.595
108.472
108.281
108.017
107.676
107.252
106.742
106.142
105.449
104.66
103.773
102.787
101.702
100.518
99.2377
97.8639
96.401
94.8548
93.2324
91.5426
89.7959
88.0036
86.1779
84.3308
82.4774
80.6385
78.8327
93.0414
93.0447
93.0521
93.0638
93.0796
93.0997
93.1242
93.153
93.1862
93.2239
93.2663
93.3133
93.3651
93.4218
93.4835
93.5503
93.6225
93.7001
93.7834
93.8724
93.9673
94.0684
94.1758
94.2898
94.4105
94.5381
94.673
94.8152
94.965
95.1227
95.2884
95.4624
95.6449
95.8362
96.0364
96.2457
96.4643
96.6924
96.93
97.1774
97.4346
97.7017
97.9786
98.2653
98.5617
98.8677
99.1829
99.5072
99.84
100.181
100.529
100.884
101.245
101.611
101.98
102.352
102.725
103.096
103.465
103.829
104.186
104.533
104.867
105.186
105.485
105.763
106.013
106.234
106.42
106.567
106.67
106.725
106.726
106.67
106.55
106.362
106.1
105.761
105.34
104.832
104.234
103.542
102.755
101.869
100.883
99.7983
98.6141
97.3326
95.9569
94.4913
92.9415
91.3146
89.6194
87.866
86.0662
84.2318
82.3745
80.5097
78.6596
76.8436
91.0759
91.0792
91.0866
91.0982
91.114
91.1341
91.1585
91.1872
91.2204
91.2581
91.3003
91.3472
91.3989
91.4555
91.5171
91.5839
91.6559
91.7334
91.8165
91.9054
92.0002
92.1011
92.2084
92.3222
92.4427
92.5702
92.7048
92.8468
92.9965
93.154
93.3195
93.4933
93.6757
93.8667
94.0668
94.2759
94.4944
94.7223
94.9599
95.2072
95.4643
95.7313
96.0082
96.295
96.5915
96.8975
97.213
97.5375
97.8706
98.2118
98.5607
98.9163
99.2779
99.6444
100.015
100.387
100.761
101.134
101.505
101.87
102.229
102.578
102.914
103.235
103.537
103.817
104.07
104.294
104.483
104.633
104.74
104.798
104.803
104.75
104.633
104.449
104.191
103.855
103.437
102.932
102.336
101.647
100.862
99.9771
98.9927
97.9079
96.7234
95.4408
94.063
92.5944
91.0405
89.4083
87.7063
85.9449
84.1356
82.29
80.4199
78.541
76.6765
74.8459
89.1093
89.1126
89.1199
89.1315
89.1473
89.1674
89.1917
89.2204
89.2534
89.291
89.3332
89.38
89.4316
89.488
89.5495
89.6161
89.688
89.7653
89.8482
89.9369
90.0315
90.1322
90.2392
90.3528
90.4731
90.6003
90.7347
90.8765
91.0258
91.183
91.3483
91.5219
91.704
91.8948
92.0945
92.3034
92.5217
92.7494
92.9868
93.2339
93.4909
93.7578
94.0346
94.3213
94.6178
94.924
95.2396
95.5643
95.8977
96.2394
96.5887
96.9449
97.3072
97.6746
98.0459
98.4199
98.7949
99.1694
99.5414
99.9089
100.27
100.621
100.96
101.283
101.588
101.871
102.128
102.355
102.548
102.702
102.812
102.875
102.884
102.835
102.723
102.543
102.289
101.957
101.543
101.042
100.45
99.7635
98.9803
98.0979
97.1149
96.0308
94.8461
93.5623
92.1824
90.7104
89.1516
87.513
85.8029
84.0316
82.2105
80.3513
78.4656
76.5696
74.6874
72.8388
87.1416
87.1449
87.1522
87.1638
87.1795
87.1995
87.2238
87.2523
87.2853
87.3228
87.3648
87.4115
87.4629
87.5192
87.5805
87.6469
87.7186
87.7957
87.8783
87.9668
88.0611
88.1616
88.2683
88.3816
88.5016
88.6285
88.7626
88.904
89.053
89.2099
89.3748
89.5481
89.7298
89.9203
90.1197
90.3283
90.5462
90.7736
91.0107
91.2576
91.5143
91.7811
92.0578
92.3444
92.6409
92.9471
93.2628
93.5877
93.9214
94.2634
94.6133
94.9701
95.3332
95.7016
96.074
96.4492
96.8257
97.2019
97.5758
97.9454
98.3084
98.6622
99.0039
99.3307
99.6391
99.9256
100.186
100.417
100.615
100.773
100.888
100.956
100.97
100.926
100.819
100.644
100.395
100.068
99.6585
99.1617
98.5738
97.8913
97.1113
96.2314
95.2502
94.167
92.9823
91.6974
90.315
88.839
87.2747
85.6286
83.909
82.1261
80.2913
78.4159
76.5119
74.5958
72.6926
70.8223
85.1728
85.1761
85.1835
85.195
85.2106
85.2306
85.2547
85.2832
85.3161
85.3534
85.3953
85.4418
85.493
85.5491
85.6102
85.6764
85.7478
85.8246
85.907
85.9951
86.0892
86.1893
86.2957
86.4086
86.5282
86.6548
86.7885
86.9295
87.0781
87.2346
87.3991
87.5719
87.7532
87.9432
88.1422
88.3504
88.5679
88.7949
89.0317
89.2782
89.5347
89.8012
90.0776
90.3641
90.6605
90.9667
91.2825
91.6075
91.9415
92.284
92.6343
92.9919
93.3558
93.7251
94.0987
94.4754
94.8535
95.2316
95.6076
95.9796
96.3452
96.7019
97.0469
97.3772
97.6894
97.98
98.2452
98.481
98.683
98.8467
98.9674
99.0403
99.0602
99.0222
98.921
98.7515
98.5087
98.1877
97.7836
97.292
96.709
96.0308
95.2545
94.3777
93.3986
92.3167
91.1321
89.8459
88.4608
86.9804
85.4097
83.7552
82.0248
80.2286
78.3778
76.4839
74.5587
72.6194
70.6914
68.7958
83.2031
83.2063
83.2136
83.2251
83.2407
83.2605
83.2846
83.3129
83.3457
83.3828
83.4245
83.4708
83.5219
83.5777
83.6385
83.7044
83.7756
83.8521
83.9342
84.0219
84.1156
84.2154
84.3214
84.4339
84.5531
84.6791
84.8124
84.9529
85.1011
85.257
85.421
85.5933
85.7741
85.9636
86.1621
86.3698
86.5868
86.8134
87.0497
87.2958
87.5519
87.818
88.0942
88.3805
88.6767
88.9829
89.2986
89.6238
89.9581
90.3009
90.6518
91.0101
91.3749
91.7453
92.1202
92.4983
92.8783
93.2584
93.6367
94.0113
94.3799
94.7398
95.0884
95.4226
95.7391
96.0343
96.3045
96.5455
96.753
96.9226
97.0494
97.1286
97.1551
97.1237
97.0292
96.8665
96.6304
96.3158
95.9181
95.4325
94.8551
94.1819
93.41
92.5367
91.5603
90.4799
89.2955
88.0081
86.6201
85.1348
83.5571
81.8931
80.1505
78.3393
76.4706
74.5555
72.6062
70.6403
68.6839
66.759
81.2322
81.2355
81.2427
81.2541
81.2697
81.2894
81.3133
81.3416
81.3741
81.4111
81.4526
81.4987
81.5495
81.6051
81.6656
81.7312
81.802
81.8781
81.9598
82.0472
82.1405
82.2398
82.3453
82.4573
82.576
82.7016
82.8343
82.9743
83.1219
83.2773
83.4407
83.6124
83.7926
83.9815
84.1794
84.3865
84.6029
84.829
85.0647
85.3103
85.566
85.8317
86.1075
86.3935
86.6895
86.9955
87.3113
87.6366
87.9711
88.3143
88.6657
89.0247
89.3904
89.762
90.1382
90.518
90.8999
91.2822
91.6631
92.0405
92.4123
92.7758
93.1284
93.4669
93.7881
94.0884
94.364
94.6108
94.8246
95.0007
95.1343
95.2205
95.2543
95.2303
95.1434
94.9883
94.7597
94.4526
94.0619
93.5832
93.0121
92.3447
91.5778
90.7086
89.7353
88.6567
87.4727
86.1841
84.793
83.3024
81.717
80.0425
78.2865
76.4586
74.5697
72.631
70.6545
68.6583
66.6695
64.7111
79.2603
79.2635
79.2708
79.2821
79.2976
79.3172
79.341
79.3691
79.4015
79.4382
79.4795
79.5253
79.5758
79.6311
79.6913
79.7566
79.827
79.9027
79.984
80.0709
80.1637
80.2625
80.3676
80.479
80.5972
80.7222
80.8542
80.9936
81.1406
81.2953
81.4581
81.6291
81.8086
81.9968
82.1941
82.4005
82.6163
82.8416
83.0768
83.3218
83.5769
83.8421
84.1175
84.4031
84.6989
85.0047
85.3204
85.6457
85.9804
86.324
86.6759
87.0357
87.4023
87.7751
88.1528
88.5344
88.9183
89.3029
89.6866
90.0671
90.4424
90.8098
91.1666
91.5098
91.8362
92.1421
92.4237
92.677
92.8975
93.0808
93.2219
93.316
93.3578
93.3421
93.2636
93.1169
92.8966
92.5977
92.2151
91.744
91.18
90.5191
89.7578
88.8933
87.9236
86.8472
85.6639
84.3741
82.9797
81.4835
79.8897
78.2038
76.4331
74.5868
72.6756
70.7106
68.7037
66.6734
64.648
62.6515
77.2874
77.2906
77.2978
77.309
77.3244
77.3439
77.3676
77.3955
77.4276
77.4642
77.5052
77.5508
77.601
77.6559
77.7157
77.7806
77.8506
77.9259
78.0067
78.0931
78.1854
78.2836
78.3881
78.499
78.6165
78.7408
78.8722
79.0109
79.1571
79.3111
79.4731
79.6434
79.8222
80.0096
80.2061
80.4117
80.6268
80.8514
81.0858
81.3302
81.5847
81.8493
82.1242
82.4094
82.7048
83.0103
83.3259
83.6513
83.9861
84.33
84.6825
85.0429
85.4106
85.7846
86.1639
86.5472
86.9333
87.3205
87.7071
88.0909
88.4699
88.8415
89.203
89.5514
89.8833
90.1953
90.4834
90.7437
90.9717
91.1628
91.3121
91.4148
91.4654
91.4588
91.3895
91.2521
91.0411
90.7513
90.3775
89.9149
89.3587
88.705
87.9501
87.0909
86.1252
85.0515
83.869
82.5782
81.1804
79.6782
78.0754
76.3773
74.5906
72.7242
70.7886
68.7945
66.7539
64.6856
62.6188
60.5794
75.3134
75.3166
75.3237
75.3349
75.3502
75.3695
75.393
75.4208
75.4527
75.489
75.5298
75.575
75.6248
75.6794
75.7389
75.8033
75.8728
75.9477
76.0279
76.1138
76.2055
76.3031
76.407
76.5172
76.634
76.7576
76.8882
77.0262
77.1716
77.3248
77.4859
77.6554
77.8333
78.0199
78.2155
78.4203
78.6344
78.8583
79.0919
79.3355
79.5892
79.8532
80.1275
80.4122
80.7071
81.0124
81.3278
81.6531
81.988
82.3323
82.6853
83.0465
83.4151
83.7904
84.1713
84.5566
84.945
85.3348
85.7245
86.1119
86.4949
86.871
87.2375
87.5913
87.9293
88.2478
88.543
88.8108
89.0469
89.2465
89.4048
89.5167
89.577
89.5803
89.5211
89.3938
89.1929
88.9131
88.5491
88.0957
87.5483
86.9026
86.1547
85.3015
84.3404
83.2696
82.0883
80.7965
79.3953
77.8868
76.2746
74.5633
72.7594
70.8713
68.9091
66.8832
64.8053
62.6947
60.5816
58.4936
73.3384
73.3416
73.3486
73.3598
73.3749
73.3941
73.4175
73.445
73.4767
73.5127
73.5531
73.598
73.6475
73.7017
73.7607
73.8247
73.8937
73.968
74.0477
74.133
74.224
74.321
74.4241
74.5336
74.6496
74.7724
74.9023
75.0394
75.1839
75.3362
75.4965
75.665
75.8419
76.0276
76.2222
76.4261
76.6393
76.8622
77.0949
77.3377
77.5906
77.8538
78.1274
78.4115
78.706
79.0108
79.326
79.6512
79.9862
80.3307
80.6842
81.0461
81.4158
81.7924
82.175
82.5623
82.9531
83.3458
83.7387
84.1299
84.5171
84.898
85.2697
85.6295
85.9739
86.2994
86.6022
86.8782
87.1229
87.3317
87.4997
87.6217
87.6924
87.7064
87.6581
87.5419
87.352
87.0831
86.7296
86.2864
85.7486
85.1116
84.3715
83.5249
82.569
81.5017
80.3219
79.0293
77.6245
76.1096
74.4874
72.7622
70.9399
69.0285
67.0376
64.9771
62.8583
60.7007
58.536
56.3934
71.3624
71.3655
71.3725
71.3836
71.3986
71.4177
71.4408
71.4681
71.4995
71.5353
71.5754
71.6199
71.669
71.7227
71.7813
71.8447
71.9132
71.9869
72.066
72.1506
72.241
72.3372
72.4396
72.5483
72.6635
72.7854
72.9144
73.0505
73.1942
73.3455
73.5047
73.6722
73.8481
74.0328
74.2264
74.4291
74.6414
74.8632
75.095
75.3368
75.5888
75.8512
76.124
76.4073
76.7012
77.0056
77.3204
77.6455
77.9805
78.3253
78.6792
79.0419
79.4126
79.7906
80.1748
80.5642
80.9575
81.3532
81.7495
82.1446
82.5364
82.9223
83.2997
83.6657
84.017
84.35
84.6609
84.9455
85.1996
85.4182
85.5966
85.7294
85.8114
85.837
85.8005
85.6961
85.5183
85.2611
84.9191
84.487
83.9595
83.3321
82.6006
81.7612
80.8111
79.7478
78.5698
77.2766
75.8684
74.3468
72.7142
70.9743
69.1326
67.1963
65.1745
63.0766
60.9132
58.7039
56.4816
54.2775
69.3853
69.3885
69.3954
69.4064
69.4213
69.4401
69.4631
69.4901
69.5213
69.5567
69.5965
69.6406
69.6893
69.7425
69.8006
69.8634
69.9314
70.0044
70.0829
70.1668
70.2564
70.3518
70.4534
70.5612
70.6755
70.7966
70.9245
71.0597
71.2023
71.3525
71.5107
71.6771
71.8519
72.0354
72.2278
72.4295
72.6406
72.8613
73.092
73.3327
73.5837
73.8452
74.1171
74.3997
74.6929
74.9968
75.3112
75.636
75.971
76.3159
76.6703
77.0337
77.4054
77.7847
78.1707
78.5623
78.9581
79.3569
79.7568
80.1561
80.5525
80.9438
81.3272
81.6997
82.0583
82.3992
82.7188
83.0127
83.2766
83.5058
83.6952
83.8397
83.9338
83.9717
83.9479
83.8564
83.6914
83.447
83.1174
82.6972
82.181
81.5641
80.8418
80.0105
79.0667
78.0079
76.8322
75.5386
74.1271
72.5986
70.9552
69.2001
67.3378
65.3752
63.3205
61.1823
58.9705
56.7045
54.4183
52.1452
67.4073
67.4104
67.4173
67.4281
67.4429
67.4616
67.4843
67.5111
67.542
67.5771
67.6164
67.6601
67.7083
67.7611
67.8186
67.8809
67.9482
68.0206
68.0983
68.1814
68.2702
68.3649
68.4655
68.5724
68.6858
68.8058
68.9327
69.0668
69.2083
69.3574
69.5145
69.6796
69.8532
70.0355
70.2267
70.4271
70.637
70.8565
71.086
71.3255
71.5754
71.8358
72.1068
72.3885
72.6809
72.9842
73.2981
73.6226
73.9575
74.3026
74.6574
75.0214
75.3942
75.7748
76.1626
76.5563
76.9549
77.3568
77.7605
78.164
78.5654
78.9622
79.3519
79.7314
80.0976
80.447
80.7756
81.0794
81.3538
81.5942
81.7955
81.9523
82.0592
82.1105
82.1003
82.0225
81.8713
81.6405
81.3243
80.9169
80.413
79.8073
79.0952
78.2726
77.3358
76.2821
75.109
73.8154
72.4007
70.8653
69.2109
67.4399
65.5562
63.5657
61.4761
59.295
57.031
54.7029
52.346
49.9955
65.4283
65.4314
65.4382
65.4489
65.4635
65.482
65.5045
65.531
65.5616
65.5963
65.6353
65.6785
65.7262
65.7785
65.8353
65.897
65.9636
66.0353
66.1123
66.1946
66.2826
66.3763
66.476
66.5819
66.6943
66.8132
66.939
67.072
67.2123
67.3602
67.5159
67.6798
67.8521
68.0331
68.2229
68.422
68.6305
68.8487
69.0769
69.3152
69.5639
69.8231
70.093
70.3737
70.6653
70.9678
71.2811
71.6053
71.94
72.2851
72.6403
73.005
73.3787
73.7607
74.1502
74.5462
74.9475
75.3527
75.7602
76.1683
76.5748
76.9775
77.3737
77.7605
78.1348
78.4929
78.8312
79.1454
79.431
79.6832
79.897
80.067
80.1876
80.253
80.2572
80.1942
80.0576
79.8415
79.5396
79.1461
78.6553
78.0618
77.3607
76.5476
75.6185
74.5704
73.4005
72.1071
70.6894
69.1472
67.4815
65.6941
63.7881
61.7685
59.6421
57.4154
55.0954
52.6997
50.265
47.8279
63.4483
63.4513
63.4581
63.4687
63.4831
63.5014
63.5237
63.5499
63.5801
63.6145
63.653
63.6958
63.743
63.7946
63.8509
63.9119
63.9778
64.0487
64.1248
64.2063
64.2934
64.3862
64.4849
64.5897
64.701
64.8188
64.9434
65.0751
65.2141
65.3607
65.5151
65.6777
65.8486
66.0281
66.2165
66.4141
66.6212
66.838
67.0647
67.3017
67.549
67.807
68.0757
68.3553
68.646
68.9476
69.2603
69.584
69.9184
70.2635
70.6189
70.9842
71.3589
71.7423
72.1336
72.5318
72.9359
73.3445
73.756
74.1687
74.5805
74.9892
75.3922
75.7867
76.1694
76.5369
76.8852
77.2103
77.5077
77.7724
77.9995
78.1834
78.3186
78.399
78.4186
78.3712
78.2503
78.0498
77.7632
77.3845
76.9077
76.3273
75.6381
74.8353
73.9147
72.8728
71.7066
70.4139
68.9934
67.4444
65.7673
63.9631
62.0341
59.9842
57.8193
55.5445
53.1647
50.696
48.1758
45.6422
61.4673
61.4703
61.477
61.4875
61.5018
61.5199
61.5418
61.5677
61.5976
61.6315
61.6696
61.7119
61.7585
61.8096
61.8652
61.9255
61.9906
62.0608
62.136
62.2166
62.3027
62.3944
62.4921
62.5958
62.7059
62.8225
62.9459
63.0763
63.2139
63.3591
63.5121
63.6732
63.8426
64.0206
64.2075
64.4036
64.6091
64.8243
65.0495
65.285
65.5309
65.7875
66.0549
66.3333
66.6229
66.9236
67.2355
67.5586
67.8927
68.2377
68.5933
68.9591
69.3347
69.7194
70.1125
70.513
70.9199
71.3319
71.7475
72.1649
72.5823
72.9973
73.4074
73.8098
74.2013
74.5784
74.9374
75.2739
75.5836
75.8616
76.1026
76.3013
76.4518
76.5481
76.5841
76.5532
76.4491
76.2651
75.9949
75.632
75.1703
74.6039
73.9274
73.1357
72.2244
71.1894
70.0274
68.7359
67.3129
65.7572
64.0686
62.2474
60.2947
58.2135
56.0083
53.6831
51.2401
48.6928
46.0794
43.4388
59.4854
59.4884
59.495
59.5053
59.5194
59.5373
59.559
59.5846
59.6141
59.6476
59.6852
59.7269
59.7729
59.8234
59.8783
59.9378
60.0022
60.0715
60.1458
60.2254
60.3105
60.4012
60.4977
60.6003
60.7091
60.8244
60.9465
61.0755
61.2117
61.3554
61.5069
61.6664
61.8342
62.0106
62.1958
62.3902
62.5941
62.8077
63.0313
63.2651
63.5095
63.7645
64.0306
64.3077
64.596
64.8957
65.2067
65.5291
65.8628
66.2076
66.5633
66.9296
67.306
67.692
68.0868
68.4896
68.8993
69.3148
69.7345
70.1569
70.5799
71.0013
71.4188
71.8294
72.2301
72.6173
72.9873
73.3359
73.6585
73.9503
74.2061
74.4203
74.587
74.7001
74.7533
74.74
74.6536
74.4873
74.2344
73.8883
73.4426
72.8913
72.2285
71.4488
70.5474
69.52
68.3629
67.073
65.6479
64.0858
62.3858
60.5473
58.5704
56.4569
54.2101
51.8324
49.323
46.6919
43.9773
41.2192
57.5025
57.5055
57.512
57.5222
57.5361
57.5538
57.5752
57.6004
57.6295
57.6625
57.6996
57.7408
57.7862
57.836
57.8902
57.949
58.0125
58.0808
58.1542
58.2328
58.3168
58.4064
58.5017
58.603
58.7106
58.8245
58.9451
59.0727
59.2074
59.3496
59.4994
59.6572
59.8233
59.998
60.1815
60.3742
60.5763
60.7881
61.0099
61.242
61.4847
61.7382
62.0026
62.2783
62.5653
62.8638
63.1738
63.4954
63.8285
64.1731
64.5288
64.8954
65.2726
65.6598
66.0563
66.4614
66.874
67.293
67.7169
68.1442
68.573
69.0012
69.4262
69.8453
70.2555
70.6532
71.0347
71.3958
71.732
72.0383
72.3095
72.54
72.7238
72.8546
72.926
72.9313
72.8636
72.7159
72.4814
72.1532
71.7247
71.1894
70.5412
69.7744
68.8838
67.8648
66.7132
65.4254
63.9986
62.4304
60.719
58.8631
56.8617
54.7152
52.4255
49.9933
47.4149
44.695
41.8717
38.9858
55.5187
55.5216
55.5281
55.5381
55.5519
55.5692
55.5903
55.6152
55.6439
55.6765
55.713
55.7537
55.7984
55.8475
55.9009
55.9588
56.0215
56.0889
56.1613
56.2388
56.3217
56.41
56.5041
56.6041
56.7103
56.8228
56.942
57.068
57.2011
57.3416
57.4897
57.6458
57.8101
57.983
58.1646
58.3554
58.5556
58.7655
58.9855
59.2157
59.4566
59.7083
59.9711
60.2452
60.5308
60.828
61.1369
61.4575
61.7899
62.134
62.4897
62.8566
63.2345
63.6228
64.021
64.4283
64.8437
65.2662
65.6944
66.1268
66.5615
66.9965
67.4292
67.8572
68.2771
68.6857
69.0792
69.4534
69.8037
70.1252
70.4125
70.6601
70.8617
71.0112
71.1018
71.1266
71.0787
70.9508
70.7358
70.4266
70.0162
69.4979
68.8653
68.1124
67.2335
66.2236
65.0781
63.7931
62.365
60.791
59.0685
57.1952
55.1691
52.9891
50.6553
48.1671
45.5173
42.7046
39.7653
36.7422
53.534
53.5369
53.5432
53.5532
53.5667
53.5838
53.6046
53.6291
53.6573
53.6894
53.7254
53.7654
53.8095
53.8578
53.9104
53.9675
54.0292
54.0956
54.167
54.2434
54.3251
54.4122
54.505
54.6036
54.7083
54.8194
54.9369
55.0613
55.1927
55.3315
55.4778
55.6321
55.7945
55.9654
56.1451
56.3338
56.532
56.7399
56.9579
57.1862
57.4251
57.6749
57.9359
58.2083
58.4923
58.7881
59.0957
59.4153
59.7469
60.0905
60.4459
60.813
61.1914
61.5808
61.9805
62.39
62.8083
63.2343
63.6668
64.1043
64.545
64.9869
65.4277
65.8646
66.2947
66.7146
67.1204
67.5081
67.8731
68.2104
68.5146
68.78
69.0005
69.1695
69.2802
69.3256
69.2985
69.1915
68.9971
68.708
68.3169
67.8167
67.2008
66.4626
65.5963
64.5963
63.4577
62.176
60.7473
59.1679
57.4344
55.5439
53.493
51.2792
48.9005
46.3546
43.6318
40.7232
37.6614
34.4932
51.5484
51.5512
51.5575
51.5672
51.5805
51.5974
51.6179
51.642
51.6698
51.7013
51.7368
51.7761
51.8195
51.867
51.9188
51.975
52.0357
52.1011
52.1714
52.2466
52.3271
52.4129
52.5043
52.6015
52.7047
52.8141
52.9301
53.0527
53.1824
53.3193
53.4638
53.6161
53.7765
53.9453
54.1229
54.3096
54.5056
54.7114
54.9272
55.1534
55.3903
55.6381
55.8971
56.1676
56.4499
56.7441
57.0503
57.3687
57.6993
58.0422
58.3973
58.7644
59.1433
59.5336
59.9349
60.3464
60.7675
61.197
61.6338
62.0764
62.5233
62.9722
63.4211
63.8673
64.3078
64.7392
65.1579
65.5596
65.9398
66.2936
66.6154
66.8994
67.1395
67.329
67.4609
67.528
67.5228
67.4377
67.2651
66.9972
66.6265
66.1456
65.5473
64.8249
63.9721
62.9829
61.8519
60.5743
59.1454
57.561
55.8171
53.9094
51.8339
49.5861
47.1618
44.5567
41.7594
38.7533
35.5636
32.2437
49.5619
49.5647
49.5708
49.5804
49.5935
49.6101
49.6302
49.6539
49.6812
49.7123
49.7471
49.7858
49.8284
49.8752
49.9261
49.9813
50.041
50.1054
50.1744
50.2485
50.3276
50.4121
50.5021
50.5977
50.6994
50.8072
50.9214
51.0423
51.1701
51.3051
51.4475
51.5978
51.7561
51.9228
52.0982
52.2826
52.4764
52.6799
52.8935
53.1174
53.352
53.5976
53.8546
54.1231
54.4035
54.6959
55.0006
55.3176
55.6472
55.9892
56.3438
56.7108
57.09
57.4812
57.8838
58.2974
58.7211
59.1541
59.5951
60.043
60.4959
60.9521
61.4093
61.8649
62.316
62.7593
63.1912
63.6074
64.0034
64.3742
64.7143
65.0178
65.2784
65.4893
65.6433
65.7331
65.751
65.6891
65.5394
65.2939
64.9448
64.4842
63.9047
63.1991
62.3607
61.3832
60.2606
58.9877
57.5593
55.9705
54.2165
52.2921
50.1921
47.9104
45.4402
42.7744
39.9011
36.7974
33.4758
29.9965
47.5745
47.5773
47.5833
47.5928
47.6056
47.6219
47.6417
47.6649
47.6918
47.7223
47.7564
47.7944
47.8363
47.8822
47.9322
47.9865
48.0452
48.1083
48.1762
48.249
48.3268
48.4098
48.4983
48.5924
48.6924
48.7985
48.9109
49.0299
49.1558
49.2887
49.4291
49.5772
49.7333
49.8978
50.0708
50.2529
50.4443
50.6454
50.8566
51.0781
51.3103
51.5537
51.8084
52.0748
52.3531
52.6436
52.9466
53.2621
53.5903
53.9314
54.2853
54.652
55.0314
55.4232
55.8271
56.2426
56.6689
57.1053
57.5506
58.0036
58.4627
58.9261
59.3917
59.8569
60.3189
60.7745
61.2199
61.651
62.0634
62.4518
62.8109
63.1347
63.4166
63.6498
63.827
63.9406
63.9827
63.9451
63.8195
63.5977
63.2713
62.8323
62.2727
61.585
60.762
59.797
58.6838
57.4163
55.989
54.3963
52.6327
50.6921
48.568
46.2528
43.7366
41.0087
38.0572
34.8573
31.4012
27.7484
45.5863
45.589
45.5949
45.6042
45.6168
45.6328
45.6522
45.675
45.7014
45.7313
45.7648
45.8021
45.8432
45.8882
45.9373
45.9905
46.0481
46.1101
46.1767
46.2482
46.3246
46.4061
46.493
46.5855
46.6838
46.7881
46.8986
47.0157
47.1395
47.2704
47.4086
47.5544
47.7082
47.8703
48.0409
48.2205
48.4094
48.608
48.8165
49.0355
49.2653
49.5061
49.7584
50.0225
50.2986
50.5871
50.8881
51.2019
51.5287
51.8686
52.2216
52.5879
52.9673
53.3597
53.7647
54.1819
54.6107
55.0503
55.4998
55.9579
56.4232
56.8939
57.368
57.843
58.3161
58.7841
59.2434
59.6899
60.1191
60.5259
60.9046
61.2494
61.5536
61.8101
62.0115
62.15
62.2174
62.2053
62.1051
61.9082
61.6058
61.1895
60.651
59.9823
59.1758
58.2243
57.1211
55.8599
54.4343
52.8385
51.0659
49.1096
46.9618
44.6137
42.0523
39.261
36.2278
32.9333
29.3427
25.4857
43.5972
43.5999
43.6057
43.6148
43.6272
43.6429
43.6619
43.6843
43.7101
43.7394
43.7722
43.8088
43.849
43.8931
43.9412
43.9934
44.0499
44.1107
44.176
44.2461
44.321
44.401
44.4863
44.5771
44.6736
44.776
44.8846
44.9996
45.1213
45.25
45.3859
45.5294
45.6808
45.8403
46.0084
46.1854
46.3716
46.5675
46.7734
46.9897
47.2167
47.455
47.7047
47.9663
48.2401
48.5263
48.8252
49.1371
49.4622
49.8007
50.1528
50.5184
50.8976
51.2903
51.6963
52.1151
52.5462
52.989
53.4426
53.9058
54.3772
54.8552
55.3378
55.8227
56.307
56.7878
57.2613
57.7236
58.1701
58.5957
58.9949
59.3614
59.6887
59.9695
60.1962
60.3607
60.4546
60.4693
60.3958
60.225
59.9479
59.5556
59.0393
58.3907
57.6017
56.6648
55.5726
54.3183
52.8952
51.2967
49.5159
47.5447
45.374
42.9937
40.3882
37.5335
34.4135
31.0237
27.3086
23.1766
41.6073
41.6099
41.6157
41.6246
41.6367
41.6521
41.6707
41.6926
41.7179
41.7466
41.7787
41.8145
41.8539
41.8971
41.9441
41.9952
42.0505
42.11
42.174
42.2427
42.3161
42.3945
42.4781
42.5671
42.6618
42.7622
42.8688
42.9817
43.1012
43.2276
43.3612
43.5022
43.651
43.808
43.9734
44.1476
44.3311
44.5241
44.7271
44.9405
45.1648
45.4002
45.6472
45.9061
46.1773
46.4611
46.7578
47.0676
47.3908
47.7277
48.0785
48.4433
48.8221
49.215
49.6217
50.0419
50.4753
50.9211
51.3786
51.8467
52.3242
52.8095
53.3007
53.7955
54.2913
54.785
55.273
55.7515
56.2158
56.6608
57.081
57.4701
57.8213
58.1273
58.3803
58.5721
58.6938
58.7365
58.6909
58.5476
58.2971
57.9301
57.4374
56.8101
56.0397
55.1182
54.0378
52.7912
51.3713
49.771
47.9827
45.9975
43.8048
41.3932
38.7458
35.8298
32.6176
29.1237
25.2876
20.7769
39.6166
39.6192
39.6248
39.6335
39.6454
39.6605
39.6787
39.7001
39.7248
39.7529
39.7843
39.8192
39.8578
39.9
39.946
39.996
40.05
40.1082
40.1708
40.238
40.3099
40.3866
40.4685
40.5557
40.6484
40.7469
40.8513
40.962
41.0792
41.2033
41.3343
41.4728
41.619
41.7732
41.9358
42.1071
42.2876
42.4777
42.6777
42.8881
43.1093
43.3418
43.5859
43.842
44.1104
44.3916
44.6858
44.9933
45.3144
45.6495
45.9988
46.3625
46.7407
47.1335
47.5407
47.9622
48.3975
48.8462
49.3074
49.7804
50.2639
50.7564
51.2562
51.761
52.2683
52.7751
53.278
53.7729
54.2554
54.7205
55.1623
55.5747
55.9508
56.283
56.5634
56.7835
56.9342
57.0062
56.9899
56.8755
56.653
56.3126
55.8447
55.2399
54.4893
53.5842
52.5166
51.2786
49.8626
48.2611
46.4661
44.4679
42.2544
39.8129
37.1259
34.1541
30.8499
27.228
23.2363
18.2633
37.6251
37.6277
37.6331
37.6417
37.6533
37.668
37.6858
37.7068
37.7309
37.7583
37.789
37.8231
37.8607
37.9019
37.9469
37.9956
38.0484
38.1053
38.1665
38.2321
38.3023
38.3774
38.4575
38.5428
38.6335
38.7298
38.8321
38.9406
39.0554
39.1769
39.3054
39.4412
39.5847
39.736
39.8957
40.064
40.2414
40.4283
40.6252
40.8324
41.0504
41.2797
41.5207
41.7738
42.0393
42.3177
42.6092
42.9141
43.233
43.566
43.9135
44.2759
44.6532
45.0457
45.4532
45.8757
46.3127
46.764
47.2289
47.7065
48.1959
48.6955
49.2038
49.7186
50.2375
50.7576
51.2755
51.7873
52.2885
52.774
53.2381
53.6746
54.0764
54.4358
54.7447
54.9943
55.1752
55.278
55.2924
55.2082
55.0151
54.7027
54.261
53.68
52.9503
52.0627
51.0087
49.7799
48.3685
46.7666
44.9657
42.9557
40.723
38.2533
35.5296
32.5119
29.1279
25.3303
21.0657
15.9043
35.6329
35.6353
35.6407
35.6491
35.6605
35.6748
35.6922
35.7126
35.7361
35.7628
35.7928
35.826
35.8627
35.9029
35.9467
35.9943
36.0458
36.1012
36.1609
36.225
36.2936
36.3669
36.4451
36.5284
36.617
36.7112
36.8113
36.9173
37.0297
37.1487
37.2745
37.4075
37.5481
37.6964
37.853
38.0182
38.1924
38.376
38.5695
38.7734
38.988
39.214
39.4517
39.7016
39.964
40.2393
40.5279
40.8301
41.1463
41.477
41.8225
42.1833
42.5595
42.9514
43.3589
43.7821
44.2207
44.6743
45.1426
45.6247
46.1197
46.6264
47.1431
47.6679
48.1984
48.7319
49.265
49.7939
50.3141
50.8206
51.3077
51.769
52.1973
52.5849
52.9233
53.2036
53.4162
53.551
53.5975
53.545
53.3828
53.0999
52.6858
52.1299
51.4223
50.5533
49.5137
48.2951
46.8889
45.2872
43.4812
41.4605
39.2105
36.7145
33.9576
30.9079
27.4727
23.4808
18.925
14.2816
33.6399
33.6423
33.6475
33.6557
33.6668
33.6808
33.6978
33.7177
33.7406
33.7666
33.7957
33.8281
33.8638
33.9029
33.9456
33.9919
34.042
34.0961
34.1543
34.2167
34.2835
34.355
34.4313
34.5126
34.5991
34.6911
34.7887
34.8924
35.0022
35.1185
35.2416
35.3717
35.5093
35.6545
35.8079
35.9698
36.1406
36.3207
36.5107
36.711
36.9222
37.1446
37.3788
37.6253
37.8843
38.1564
38.4418
38.741
39.0544
39.3825
39.7257
40.0845
40.4593
40.8504
41.2577
41.6813
42.1211
42.5768
43.0482
43.5346
44.0351
44.5486
45.0736
45.6083
46.1504
46.6973
47.2458
47.792
48.3316
48.8596
49.3702
49.857
50.3127
50.7294
51.0986
51.4108
51.6563
51.8245
51.9047
51.8855
51.7556
51.5038
51.1187
50.5893
49.905
49.0556
48.0314
46.8236
45.4234
43.8223
42.0118
39.9817
37.7163
35.1963
32.41
29.3427
25.8884
21.7762
17.1882
13.9206
31.6461
31.6485
31.6536
31.6616
31.6725
31.6861
31.7026
31.722
31.7443
31.7695
31.7979
31.8293
31.864
31.9021
31.9435
31.9886
32.0373
32.0899
32.1465
32.2072
32.2723
32.3419
32.4162
32.4954
32.5797
32.6694
32.7646
32.8657
32.9729
33.0864
33.2067
33.3338
33.4682
33.6103
33.7603
33.9188
34.086
34.2625
34.4488
34.6454
34.8528
35.0715
35.302
35.5449
35.8004
36.069
36.3511
36.647
36.9572
37.2823
37.6229
37.9795
38.3526
38.7425
39.1492
39.5729
40.0136
40.4712
40.9454
41.4357
41.9415
42.4616
42.9947
43.5392
44.0929
44.6532
45.2172
45.7809
46.3402
46.8901
47.4248
47.9377
48.4217
48.8686
49.2695
49.615
49.8947
50.0979
50.2131
50.2287
50.1329
49.9137
49.5592
49.0577
48.398
47.5693
46.5614
45.3652
43.9714
42.3715
40.5569
38.5183
36.2396
33.6978
30.8854
27.8098
24.3573
20.2298
15.8339
13.4565
29.6516
29.654
29.659
29.6668
29.6774
29.6907
29.7067
29.7255
29.7472
29.7717
29.7992
29.8297
29.8634
29.9003
29.9405
29.9843
30.0316
30.0826
30.1376
30.1966
30.2598
30.3275
30.3997
30.4768
30.5588
30.6461
30.7389
30.8374
30.9418
31.0525
31.1698
31.2938
31.425
31.5637
31.7103
31.8651
32.0287
32.2014
32.3838
32.5765
32.7799
32.9947
33.2213
33.4603
33.7121
33.9771
34.2555
34.5479
34.8546
35.1765
35.5141
35.8682
36.2392
36.6275
37.0334
37.4569
37.8981
38.3571
38.8338
39.3278
39.8384
40.3649
40.9059
41.46
42.0252
42.599
43.1784
43.7598
44.3391
44.9112
45.4705
46.0103
46.5233
47.0013
47.4352
47.8151
48.1305
48.3701
48.522
48.5741
48.514
48.3291
48.0068
47.5347
46.9009
46.094
45.1034
43.9194
42.5327
40.9341
39.1156
37.0692
34.7792
32.2179
29.3791
26.2966
22.8581
18.6932
14.2087
11.4287
27.6564
27.6588
27.6637
27.6713
27.6816
27.6945
27.7101
27.7283
27.7493
27.7731
27.7997
27.8293
27.8619
27.8977
27.9367
27.979
28.0249
28.0744
28.1277
28.1849
28.2462
28.3119
28.382
28.4568
28.5366
28.6214
28.7116
28.8074
28.9091
29.0168
29.131
29.2518
29.3797
29.5149
29.6579
29.809
29.9686
30.1374
30.3157
30.5042
30.7035
30.9141
31.1367
31.3717
31.6195
31.8806
32.1552
32.4437
32.7466
33.0648
33.3991
33.7502
34.1188
34.5053
34.9099
35.3329
35.7743
36.2343
36.7131
37.2103
37.7256
38.2581
38.8067
39.3702
39.9466
40.5337
41.1286
41.7279
42.3273
42.9221
43.5064
44.0737
44.6166
45.1267
45.5946
46.0103
46.3627
46.6402
46.8305
46.9208
46.8981
46.7493
46.4609
46.0198
45.4134
44.6295
43.6571
42.4859
41.1066
39.5096
37.6871