/*--------------------------------*- C++ -*----------------------------------*\
| =========                 |                                                 |
| \\      /  F ield         | OpenFOAM: The Open Source CFD Toolbox           |
|  \\    /   O peration     | Version:  2.4.0                                 |
|   \\  /    A nd           | Web:      www.OpenFOAM.org                      |
|    \\/     M anipulation  |                                                 |
\*---------------------------------------------------------------------------*/
FoamFile
{
    version     2.0;
    format      ascii;
    class       volScalarField;
    location    "0.198";
    object      p_rgh;
}
// * * * * * * * * * * * * * * * * * * * * * * * * * * * * * * * * * * * * * //

dimensions      [1 -1 -2 0 0 0 0];

internalField   nonuniform List<scalar> 
57600
(
82.4572
83.6488
85.1313
84.8277
84.4015
86.1927
90.4379
94.7625
97.7406
99.3092
99.8261
99.6686
99.1209
98.3912
97.6238
96.8969
96.2455
95.6782
95.1922
94.7804
94.4346
94.147
93.9103
93.7176
93.5623
93.4385
93.3406
93.264
93.2047
93.1595
82.4045
83.6558
85.1214
84.6434
84.5425
87.0625
91.5801
95.6455
98.2587
99.5285
99.8435
99.5638
98.9527
98.2018
97.4385
96.7282
96.0976
95.5512
95.0846
94.6899
94.359
94.0843
93.8587
93.6754
93.5281
93.4108
93.3183
93.246
93.1903
93.1477
82.2993
83.6403
85.1252
84.633
84.4904
87.0105
91.5843
95.6812
98.3032
99.5666
99.8695
99.579
98.9601
98.2037
97.4368
96.7246
96.0931
95.5464
95.0794
94.6839
94.3519
94.0758
93.8487
93.6641
93.5156
93.3974
93.3042
93.2313
93.1749
93.132
82.1405
83.6124
85.1337
84.6188
84.4088
86.923
91.5854
95.7336
98.3752
99.633
99.9187
99.61
98.9766
98.2094
97.4349
96.7182
96.0844
95.5366
95.0686
94.6716
94.3374
94.0589
93.8294
93.6425
93.492
93.3722
93.2776
93.2038
93.1466
93.103
81.9245
83.5701
85.1466
84.6011
84.2975
86.8007
91.5873
95.8028
98.4723
99.725
99.9891
99.6564
99.0026
98.2191
97.4328
96.7089
96.0712
95.5214
95.0517
94.6524
94.3153
94.0333
93.8003
93.6102
93.457
93.3349
93.2386
93.1634
93.1053
93.0609
81.6453
83.5104
85.1639
84.5804
84.1554
86.6413
91.5952
95.8892
98.5938
99.841
100.079
99.7173
99.038
98.233
97.4309
96.6971
96.0538
95.501
95.0289
94.6265
94.2853
93.9987
93.7611
93.5669
93.4103
93.2856
93.1872
93.1104
93.0511
93.006
81.2938
83.4291
85.1857
84.5575
83.9807
86.4416
91.6169
95.9936
98.74
99.9808
100.188
99.7922
99.0828
98.2512
97.4291
96.6825
96.0319
95.4752
95
94.5937
94.2472
93.9548
93.7114
93.5122
93.3516
93.2238
93.1231
93.0446
92.984
92.9378
80.8583
83.3215
85.2126
84.5333
83.7717
86.1987
91.6636
96.1179
98.9117
100.145
100.316
99.881
99.1368
98.2735
97.4271
96.6648
96.0054
95.444
94.9652
94.554
94.2011
93.9014
93.651
93.4457
93.2803
93.149
93.0458
92.9654
92.9034
92.8559
80.3223
83.1819
85.246
84.5094
83.5261
85.9077
91.7489
96.2653
99.1095
100.333
100.462
99.9833
99.2
98.2994
97.4242
96.6435
95.9736
95.4072
94.9244
94.5077
94.1472
93.8385
93.5794
93.3668
93.1958
93.0606
92.9547
92.8722
92.8083
92.7591
79.6626
83.0048
85.2875
84.4873
83.2413
85.5631
91.8873
96.4415
99.3344
100.547
100.627
100.099
99.2724
98.3285
97.4198
96.6179
95.9362
95.3645
94.8778
94.455
94.0855
93.766
93.4963
93.2749
93.0974
92.9578
92.8489
92.764
92.6979
92.6471
78.8469
82.7841
85.3363
84.4692
82.9141
85.1567
92.0918
96.6544
99.5872
100.786
100.811
100.227
99.3539
98.3599
97.4129
96.5872
95.8924
95.3156
94.8255
94.3963
94.0163
93.684
93.4014
93.1693
92.9844
92.8401
92.7283
92.6414
92.5736
92.5228
77.8279
82.5123
85.3885
84.458
82.5407
84.678
92.3726
96.9109
99.8693
101.052
101.012
100.367
99.4446
98.3927
97.4022
96.5506
95.8414
95.2603
94.7676
94.3319
93.94
93.592
93.2937
93.049
92.8558
92.7071
92.5935
92.5059
92.4374
92.3842
76.5352
82.1885
85.4379
84.4568
82.1166
84.1125
92.7343
97.2137
100.183
101.343
101.231
100.518
99.5448
98.4256
97.3865
96.5073
95.7824
95.198
94.704
94.2623
93.8571
93.4901
93.1723
92.9123
92.7101
92.558
92.4446
92.359
92.2928
92.2408
74.8588
81.7817
85.477
84.47
81.6369
83.4403
93.1715
97.5609
100.534
101.66
101.467
100.678
99.6552
98.4565
97.364
96.4564
95.7141
95.1276
94.6342
94.188
93.768
93.3775
93.035
92.7564
92.5446
92.3905
92.2801
92.1998
92.1396
92.0936
72.6161
81.2539
85.4983
84.5026
81.096
82.6325
93.662
97.9471
100.929
102.005
101.719
100.845
99.7774
98.4826
97.3324
96.3971
95.6346
95.0467
94.5573
94.11
93.6736
93.2531
92.8783
92.576
92.3539
92.2005
92.0965
92.0248
91.9732
91.9344
69.4703
80.552
85.4942
84.5607
80.4881
81.6545
94.1483
98.3655
101.367
102.378
101.985
101.015
99.9147
98.4992
97.2889
96.329
95.5398
94.9463
94.4714
94.0298
93.5751
93.1151
92.6958
92.3619
92.1291
91.9806
91.8891
91.8311
91.7915
91.7621
64.5957
79.5925
85.4585
84.6516
79.8082
80.4815
94.4685
98.8088
101.831
102.78
102.264
101.183
100.074
98.4995
97.2301
96.2524
95.4191
94.8027
94.3756
93.9506
93.4744
92.96
92.4758
92.0975
91.8548
91.7209
91.6532
91.6186
91.5971
91.5786
54.1571
78.2435
85.388
84.7839
79.0534
79.095
94.1777
99.2736
102.327
103.21
102.552
101.339
100.268
98.4722
97.1519
96.17
95.2567
94.6074
94.276
93.8781
93.3741
92.7828
92.2019
91.7583
91.5106
91.411
91.3879
91.3934
91.4004
91.3969
45.8261
76.3094
85.2833
84.9677
78.2221
77.4849
91.9542
99.7669
102.866
103.67
102.847
101.472
100.515
98.4007
97.0491
96.0897
95.0496
94.4458
94.1887
93.819
93.2772
92.5807
91.8637
91.3321
91.0866
91.0468
91.0978
91.1667
91.2175
91.2376
54.3792
73.6755
85.1232
85.2154
77.3118
75.6849
80.769
100.315
103.45
104.159
103.144
101.56
100.809
98.2605
96.9138
96.0225
94.8159
94.3549
94.1183
93.7748
93.1856
92.3643
91.4851
90.8339
90.5774
90.6211
90.7873
90.9532
91.0683
91.1232
57.591
70.6952
84.7618
85.5415
76.312
73.7671
89.137
100.981
104.086
104.675
103.45
101.568
101.022
98.0219
96.7367
95.9626
94.5749
94.2179
94.0399
93.7312
93.0932
92.162
91.0839
90.1729
89.888
90.1004
90.4643
90.7763
90.979
91.0784
57.8909
67.9755
84.2365
85.9649
75.177
71.6533
88.4635
101.832
104.789
105.217
103.768
101.446
100.606
97.666
96.5328
95.8555
94.3576
93.942
93.9172
93.6458
92.9717
91.9775
90.5053
88.9422
88.7661
89.4416
90.167
90.6826
90.9844
91.1253
58.2272
65.9714
83.7007
86.5183
74.3053
69.4
86.4758
102.88
105.585
105.785
104.11
101.194
98.588
97.2251
96.3502
95.6204
94.1698
93.5297
93.7273
93.4589
92.7537
91.6999
89.2672
86.2598
86.8263
88.6634
89.9859
90.7366
91.118
91.2734
61.6986
66.3873
83.1849
87.2579
73.4061
66.5461
84.7429
104.128
106.507
106.373
104.484
100.985
97.3156
96.8224
96.2185
95.2457
93.9504
93.1415
93.4632
93.1663
92.3665
91.1548
87.3415
82.5578
84.1713
87.9981
90.0497
90.9745
91.3732
91.5018
62.7112
66.1948
83.4893
88.2164
67.2728
63.3391
84.419
105.517
107.594
106.964
104.908
101.243
97.9568
96.7118
96.1288
94.7299
93.6254
92.9185
93.1322
92.7801
91.8158
90.4405
86.3933
81.2314
83.082
87.9514
90.391
91.3038
91.6559
91.7365
62.7964
41.0226
85.5694
89.3197
16.948
59.0659
82.4695
106.925
108.875
107.534
105.382
101.947
96.4989
96.8575
96.0358
94.0444
93.1408
92.855
92.6636
92.2355
91.0078
89.7344
86.4929
82.0958
83.7567
88.2977
90.604
91.4647
91.7647
91.8254
-1.38035
22.5088
81.8502
91.1464
-0.0380088
50.5041
80.1709
108.334
110.303
108.068
105.921
102.998
93.5019
97.1968
95.8776
93.0875
92.4247
92.8929
92.0762
91.4836
89.6818
88.8904
86.6151
81.7032
83.3009
87.2801
90.1026
90.9471
91.3958
91.4814
0.644178
12.7442
0.562817
0.0239543
-0.189852
-4.63975
75.7371
109.905
111.517
108.621
106.697
102.06
91.7555
98.4345
95.4854
91.7019
91.1575
93.2324
91.3314
90.7754
62.3167
11.0147
0.0821292
0.0899414
0.107056
0.108566
0.120265
0.128875
0.122612
0.117908
1.22214
3.47578
0.565464
0.0257762
-0.267241
-26.6498
73.5718
109.793
111.697
108.613
107.945
101.595
91.6522
99.9033
94.5424
90.9433
57.3498
2.63621
0.0676195
0.0691126
0.0771051
0.0721598
0.0748598
0.0843204
0.0947994
0.102975
0.110822
0.117294
0.117121
0.113777
0.86539
3.07984
0.78278
0.0272498
-0.260677
1.85503
77.9734
108.046
110.466
108.232
109.345
102.061
92.3257
102.165
4.07526
-0.0362152
0.0572128
0.0524552
0.0651412
0.0674704
0.0669188
0.0705751
0.071479
0.0786814
0.0867086
0.0974533
0.11354
0.11926
0.117985
0.103836
93.1252
93.0974
93.0748
93.0603
93.0572
93.0698
93.1034
93.1645
93.2604
93.4005
93.5957
93.8595
94.2088
94.6642
95.2475
95.9751
96.8495
97.8501
98.9131
99.902
100.598
100.683
99.7721
97.6222
94.4787
90.8424
87.9149
87.2972
88.7864
91.2037
93.1148
93.0878
93.0667
93.0543
93.0545
93.0717
93.1115
93.1805
93.2868
93.4396
93.6505
93.9337
94.3072
94.7925
95.4115
96.1779
97.0893
98.1166
99.1797
100.123
100.703
100.575
99.3589
96.9013
93.5741
89.9407
87.5112
87.5198
89.4045
91.7369
93.0986
93.0712
93.0499
93.0373
93.0374
93.0547
93.0948
93.1642
93.2708
93.4238
93.6347
93.9174
94.29
94.7747
95.3946
96.1641
97.0806
98.1152
99.1875
100.142
100.736
100.618
99.3938
96.9102
93.5725
89.9165
87.4712
87.4931
89.3905
91.7411
93.0692
93.0414
93.0198
93.0072
93.0075
93.0252
93.0659
93.1362
93.2436
93.3974
93.6084
93.8905
94.2619
94.7461
95.3683
96.1442
97.0708
98.118
99.2057
100.179
100.794
100.688
99.4449
96.9183
93.5689
89.8761
87.409
87.4521
89.3697
91.7509
93.0266
92.9986
92.9767
92.9642
92.9649
92.9833
93.025
93.0966
93.2054
93.3603
93.5718
93.8533
94.2231
94.7068
95.333
96.1191
97.0605
98.1255
99.2341
100.234
100.874
100.781
99.5124
96.9275
93.5626
89.8199
87.3239
87.3965
89.342
91.7672
92.9711
92.9426
92.9206
92.9083
92.9095
92.9288
92.972
93.0453
93.1561
93.3129
93.5253
93.8061
94.1739
94.6569
95.2889
96.0887
97.0494
98.137
99.272
100.303
100.976
100.898
99.5965
96.9369
93.5525
89.7472
87.2152
87.3262
89.3074
91.7904
92.9022
92.8734
92.8512
92.8391
92.8409
92.8615
92.9064
92.9821
93.0957
93.255
93.469
93.7492
94.1141
94.5959
95.2356
96.0528
97.0369
98.1519
99.3188
100.388
101.099
101.039
99.6973
96.9448
93.542
89.6574
87.082
87.2413
89.2656
91.8215
92.8193
92.7899
92.7679
92.7562
92.7589
92.781
92.8282
92.9069
93.0241
93.1871
93.4033
93.6828
94.0434
94.5225
95.1722
96.0109
97.0227
98.17
99.3743
100.487
101.244
101.204
99.8152
96.9485
93.5335
89.5499
86.923
87.1417
89.2165
91.8615
92.7211
92.6912
92.6704
92.6595
92.6632
92.6871
92.737
92.8195
92.9414
93.1092
93.3288
93.6073
93.9614
94.4349
95.0977
95.963
97.0067
98.1913
99.4383
100.601
101.411
101.396
99.9505
96.9432
93.5265
89.4239
86.7371
87.0276
89.16
91.9115
92.6069
92.5716
92.5601
92.5485
92.5533
92.5793
92.6323
92.7194
92.8473
93.0218
93.2462
93.5239
93.868
94.3302
95.0109
95.9085
96.9887
98.2156
99.5107
100.73
101.6
101.614
100.104
96.9237
93.5202
89.2784
86.5225
86.8991
89.0959
91.9732
92.4909
92.6888
92.4296
92.4208
92.4286
92.457
92.5133
92.6057
92.7416
92.9252
93.1568
93.434
93.7632
94.2033
94.9103
95.8474
96.9687
98.243
99.5913
100.874
101.812
101.861
100.275
96.883
93.5177
89.1125
86.2776
86.7565
89.0246
92.0486
92.3452
92.3139
92.2858
92.2787
92.289
92.3194
92.3784
92.4771
92.6233
92.8197
93.0622
93.3402
93.6481
94.0449
94.794
95.7788
96.9461
98.2733
99.6799
101.032
102.048
102.137
100.463
96.8109
93.5236
88.9245
86.0002
86.6003
88.9467
92.1408
92.2789
92.1687
92.139
92.1267
92.1332
92.1632
92.2246
92.331
92.4911
92.7056
92.9645
93.2463
93.5263
93.8359
94.659
95.7014
96.9207
98.3064
99.7761
101.204
102.307
102.445
100.666
96.6951
93.5404
88.7126
85.6881
86.431
88.8628
92.2528
92.0548
92.0194
91.9891
91.9622
91.9523
91.9794
92.0454
92.1631
92.3427
92.5827
92.8661
93.1579
93.4061
93.5423
94.4947
95.6111
96.8916
98.3424
99.8794
101.389
102.591
102.786
100.879
96.5187
93.5726
88.4747
85.3386
86.2498
88.774
92.3876
91.9029
91.8731
91.8374
91.7825
91.7282
91.7572
91.8342
91.9683
92.1746
92.4505
92.7695
93.081
93.3029
93.172
94.2657
95.4988
96.858
98.3811
99.9894
101.585
102.899
103.16
101.101
96.258
93.6268
88.2085
84.949
86.0582
88.6815
92.5463
91.739
91.7208
91.7033
91.6029
91.4424
91.5067
91.5917
91.7419
91.9822
92.3078
92.6766
93.0196
93.2326
92.919
93.8989
95.349
96.8188
98.4226
100.105
101.792
103.231
103.57
101.336
95.8794
93.7119
87.912
84.5162
85.8581
88.587
92.7291
91.5596
91.5428
91.5704
99.6012
91.3372
91.2662
91.3245
91.4789
91.7594
92.1528
92.5885
92.9717
93.1869
92.8319
93.2785
95.1457
96.773
98.467
100.226
102.006
103.588
104.016
101.594
95.3294
93.8368
87.5853
84.037
85.6523
88.4926
92.9359
91.3794
91.3445
91.282
91.1935
91.0771
91.0078
91.0204
91.1683
91.4971
91.9832
92.5056
92.9309
93.1195
92.6365
92.3587
94.8932
96.7201
98.5146
100.35
102.225
103.969
104.505
101.892
94.5045
94.0088
87.233
83.5092
85.4442
88.4006
93.1667
91.2266
91.1824
91.0991
90.985
90.8485
90.7007
90.6587
90.7894
91.181
91.7967
92.428
92.892
92.9996
92.1721
91.4381
94.6251
96.6601
98.566
100.476
102.445
104.375
105.033
102.257
93.2156
94.2372
86.8657
82.9316
85.2378
88.314
93.422
91.1239
91.0709
90.9566
90.7978
90.634
90.3337
90.2272
90.3121
90.7877
91.5879
92.3517
92.8467
92.8307
91.679
90.9804
94.3734
96.5934
98.6225
100.603
102.663
104.816
105.599
102.719
91.1991
94.5305
86.5005
82.2969
85.0378
88.2361
93.702
91.0939
91.0288
90.871
90.6228
90.5477
90.0539
89.7195
89.6957
90.2848
91.3401
92.2606
92.7748
92.6058
91.3668
91.0039
94.1401
96.5201
98.6861
100.729
102.872
105.295
106.199
103.301
88.053
94.8969
86.1702
81.5991
84.8503
88.1775
94.0066
91.1485
91.062
90.8433
90.4932
90.0566
89.6087
89.0849
88.8266
89.6222
91.0379
92.1536
92.6598
92.3317
91.1059
91.1107
93.9023
96.4397
98.7603
100.854
103.067
105.815
106.826
103.969
83.6482
95.3279
85.9366
80.8776
84.6792
88.1711
94.3357
91.2782
91.1413
90.8284
90.3419
89.7596
89.1203
88.1618
87.1463
88.5838
90.7209
92.0899
92.5017
92.0139
90.7474
90.9959
93.6369
96.3514
98.8501
100.977
103.244
106.376
107.472
104.692
87.0094
95.7269
85.8754
80.2625
84.5199
88.2001
94.6929
91.4552
91.2317
90.7797
90.1205
89.3983
88.6381
86.9069
84.9727
87.2101
90.4732
92.0994
92.3091
91.6241
90.2942
90.6858
93.3235
96.2527
98.9621
101.099
103.396
106.978
108.138
105.478
75.9218
95.8023
86.2741
79.9373
84.3526
88.2161
95.0844
91.6312
91.3082
90.6647
89.7212
88.7675
87.978
85.8488
83.8276
86.3899
90.2463
92.1794
92.1261
91.1145
89.8615
90.2678
92.9142
96.1408
99.1007
101.221
103.504
107.618
108.834
106.262
74.2904
95.4041
86.62
79.9347
84.093
88.127
95.4879
91.7217
91.3614
90.4388
88.8077
87.2309
86.5882
84.6276
82.9101
86.054
90.0362
92.512
92.0644
90.2928
89.5823
89.7039
92.3172
96.0212
99.2516
101.342
103.459
108.266
109.576
106.878
75.8121
93.8911
87.6287
27.5458
83.716
87.8381
95.9151
91.5754
91.5514
90.5177
86.7469
83.602
84.6189
81.3055
79.6501
86.0632
89.6708
93.4709
92.3168
88.9785
89.4812
88.933
91.4357
95.9313
99.2895
101.422
103.043
108.809
110.375
106.647
78.7202
91.162
87.5583
-0.0133914
0.258492
87.3748
96.343
0.114471
0.110803
0.111859
0.115824
0.117271
0.110892
0.110052
0.108065
0.0902769
1.7355
70.4048
93.0081
87.1258
89.7165
87.8004
90.2065
96.0469
98.6054
101.298
102.852
108.868
111.132
103.409
76.2763
90.7883
26.2824
-0.0495209
0.236378
-0.0501299
96.7892
0.110583
0.11018
0.110723
0.111588
0.111172
0.108098
0.104344
0.0985061
0.0872745
0.0779909
0.0550704
0.0693619
0.084804
0.0524669
0.180575
87.5054
96.46
98.5303
100.552
102.744
107.99
111.834
99.7203
69.6258
100.028
2.1504
-0.0837789
0.173246
-0.0757587
96.3816
0.0925488
0.100531
0.103907
0.1051
0.104585
0.103829
0.101008
0.116003
0.0854391
0.0799143
0.0569354
0.0705819
0.0941022
0.0523072
0.219129
0.217405
80.3825
97.1563
99.4608
103.197
107.077
113.193
104.061
56.8307
94.8584
0.0819995
-0.115944
0.0976284
-0.0600945
0.0336865
-0.000198979
2.17455
0.440061
0.0282235
-0.232763
4.93523
85.0193
106.619
110.386
108.412
110.571
101.54
84.0731
-0.300211
-0.0651839
-0.0481466
0.110119
0.127083
0.0622958
0.0681713
0.123135
0.0629336
0.0682475
0.0714634
0.0765363
0.0953672
0.1154
0.132266
0.104382
2.09276
-0.0965435
1.65016
0.407025
0.0286612
-0.254086
16.9709
89.5686
105.187
111.856
108.57
110.995
99.9385
-0.234125
0.178859
-0.0631347
-0.0609039
0.0779952
0.0540112
0.060509
0.082098
0.0770106
0.0609884
0.0584634
0.0677849
0.0677798
0.100182
0.101488
0.118685
0.190152
22.1544
0.199916
0.830139
0.413545
0.0289155
-0.268188
-4.72235
94.4395
103.112
113.253
108.598
111.787
0.874429
-0.124489
0.0571853
-0.0794673
-0.0665023
0.0889442
0.0502129
0.0588663
0.085985
0.0700847
0.0604179
0.0500126
0.122478
0.0598546
0.0748037
0.0899803
0.0828281
0.0135726
0.0300314
-1.24197
1.19008
0.309387
0.0291215
-0.260818
13.6538
97.1404
100.998
113.255
108.034
112.208
2.0922
-0.114016
0.0443515
-0.0827157
-0.0647449
0.169814
0.046992
0.0613896
0.0645915
0.0636965
0.266229
0.0374695
0.220429
0.0533763
0.0659774
0.0797631
0.0702946
0.0453708
0.0491262
-1.17975
1.26811
0.313189
0.0293529
-0.226108
38.2802
90.57
101.398
113.034
108.033
0.186461
0.192369
-0.115464
0.00208561
-0.0881543
-0.0764512
0.171096
0.0433506
0.0633522
0.0677653
0.0549614
0.272458
0.0292558
0.0516117
0.0546313
0.0577513
0.148423
0.0589708
0.0545257
0.0574321
-0.708212
0.155053
0.222842
0.0296745
-0.187978
22.2686
3.81296
38.7013
114.676
0.163106
0.189987
0.510298
-0.0955945
-0.0341285
-0.0970479
-0.113868
0.165488
0.0371569
0.0508249
0.0526729
0.0524386
0.27058
0.0358072
0.0494885
0.0532269
0.0564688
0.0642936
0.0549512
0.058064
0.0638676
-0.342952
-0.331584
0.121526
0.0300501
-0.147157
1.54012
-0.751675
0.992637
0.0550837
0.16154
0.343211
0.803466
-0.0833298
-0.0683382
-0.10733
-0.147984
0.148987
0.0272842
0.0455848
0.0454983
0.0424695
0.0581009
0.0447396
0.0494201
0.0510904
0.0521047
0.0543971
0.0541525
0.0587048
0.0653662
0.176962
-0.164062
0.0272883
0.0302916
-0.106409
1.30265
-0.395103
0.063728
0.0437746
0.198204
0.149485
0.676164
0.0332575
-0.0943544
-0.117011
-0.161196
-0.0256121
0.0249042
0.0367485
0.041197
0.0482236
0.0491774
0.045633
0.0468944
0.0476133
0.0464653
0.0472906
0.0506108
0.056688
0.0636379
0.0666114
-0.0973491
0.066665
0.0298326
-0.0604148
1.12414
-0.310556
0.0225573
0.0344244
0.164126
0.124471
0.331695
-0.0477018
-0.0971788
-0.12421
-0.154512
-0.0506007
0.0193695
0.0277705
0.0323392
0.0703028
0.0439226
0.0442241
0.0483871
0.0431287
0.0413307
0.041545
0.0461464
0.0538947
0.0607809
0.191612
-0.103566
-0.00548415
0.0305614
-0.0166249
0.963589
-0.0924932
-0.101733
0.0190709
0.142457
0.11448
0.188058
-0.106611
-0.098885
-0.127915
-0.123312
-0.0657282
0.0341547
0.0237135
0.0254814
0.0382127
0.0409831
0.0423516
0.0435422
0.0401867
0.0372919
0.0379803
0.0623865
0.0525511
0.0574378
0.422625
-0.117799
-0.0549995
0.0321652
0.0235152
0.715812
-0.111893
-0.105704
0.0356216
0.108198
0.0954242
0.0638313
-0.127767
-0.10701
-0.121047
-0.124641
-0.0679907
-0.0112344
0.0137342
0.0194761
0.0311593
0.0363037
0.0400339
0.0421024
0.0360059
0.0362747
0.0478514
0.0437359
0.0468647
0.0533375
0.690062
-0.0991015
-0.0577904
0.0342466
0.0583342
0.432653
-0.134907
-0.11701
0.00638885
0.0842834
0.0680421
-0.104032
-0.111691
-0.116013
-0.124654
-0.112781
0.00570139
-0.0224867
0.107742
0.0189242
0.0260383
0.0312005
0.0343616
0.45562
0.0281012
0.0332186
0.0379017
0.0400693
0.0459764
0.0517646
0.665671
-0.0595511
-0.0501108
0.036392
0.0847289
0.278371
-0.131707
-0.135744
-0.00283209
0.0614069
0.189104
-0.0353297
-0.105574
-0.123636
-0.127611
-0.106161
0.0064939
-0.0406242
0.0952895
0.0161907
0.0217191
0.0268145
0.0235297
0.0909969
0.0233323
0.0299203
0.0363806
0.408611
0.451292
0.0531484
-0.0395372
-0.0573518
-0.0385932
0.0382325
0.0933923
0.239678
-0.137237
-0.161238
-0.016836
0.0505791
0.162573
0.0126901
-0.103907
-0.136443
-0.131045
0.0776921
-0.0723518
-0.0383883
-0.00661774
0.0103004
0.0198891
0.0245637
0.0252143
0.0224382
0.0229388
0.0515473
0.0312804
0.04066
0.0460635
0.0502876
-0.170683
-0.0598203
-0.0265697
0.0393973
0.0947679
0.0781036
-0.145265
-0.19631
-0.0375394
0.0357226
0.0375559
0.0514593
-0.106709
-0.14704
-0.138484
0.0829062
-0.0718591
-0.0365966
-0.0129567
0.00576556
0.0186872
0.0242517
0.0235776
0.0227752
0.0214138
0.128375
0.0233264
0.0380222
0.0500462
0.0567954
-0.203959
-0.0507405
-0.0159501
0.0396083
0.0977616
0.0249094
-0.163173
-0.257111
-0.0724108
0.0217911
0.0283872
-0.00454055
-0.109249
-0.154702
-0.14362
-0.111446
-0.0734933
-0.0422456
-0.0181452
0.00226139
0.0190583
0.0281984
0.0265602
0.0314756
0.0262671
0.0252035
0.0295461
0.0378177
0.043414
0.0488402
0.323196
-0.0320885
-0.00792762
0.0386785
0.110249
-0.00326876
-0.17477
-0.367903
-0.0964026
0.0108163
0.0158079
-0.0180903
-0.107787
-0.155777
-0.145706
-0.107156
-0.0731934
-0.0441102
-0.0187792
0.364433
0.0212638
0.0297067
0.0369488
0.0419678
0.0321161
0.0326922
0.0298426
0.0354312
0.04151
0.0469286
0.0797365
-0.0159654
-0.0026692
0.0365412
0.106145
-0.106552
-0.0698006
-0.487325
-0.0692667
5.68805e-05
0.00459448
-0.0270561
-0.100804
-0.146036
-0.139187
-0.103811
-0.0669779
-0.0444462
-0.0288458
0.344608
0.0173904
0.0225906
0.0477408
0.850197
0.0576679
0.0167618
0.0197975
0.0309071
0.038889
0.044977
1.26894
-0.00384081
0.000407208
0.0332472
0.0897494
-0.11868
-0.301137
1.39715
-0.120042
-0.00765349
-0.0012786
-0.0300335
-0.0862853
-0.123437
-0.121581
-0.0826535
-0.0573179
-0.041549
-0.0312913
-0.0123861
0.00486279
0.00791421
0.00469249
-0.0100496
0.0462977
-0.00126672
0.0687882
0.0310644
0.0390889
0.0453883
1.16908
0.00266569
0.00208983
0.0290323
0.0573095
-0.117425
-0.297383
0.982166
0.0763367
0.014293
-0.00657592
-0.0261853
-0.0647681
-0.0886948
-0.08915
-0.073198
-0.00641735
-0.0315041
-0.0222106
-0.0121015
-0.0027073
-0.00125598
-0.00176756
-0.00266343
-0.00394936
0.00175118
0.0199182
0.0331863
0.0399048
0.0446514
-0.0957339
0.00667312
0.00298067
0.0241773
0.0343181
-0.0174716
-0.184532
-0.315789
0.373911
-0.018469
-0.00592181
-0.0170086
-0.0412989
-0.0528457
-0.0583158
-0.0480087
0.00622574
-0.0179949
-0.0121099
0.0192679
-0.00155873
-0.00310097
-0.000643152
-0.000848303
0.00293524
0.00990193
0.0179072
0.0253079
0.0313861
0.0360873
1.71562
0.0217605
0.00350794
0.0189154
0.0193594
-0.00437425
-0.164358
0.0175945
-0.0230224
-0.0157101
-0.00311786
-0.00566827
-0.0202662
-0.0287799
-0.028614
-0.0215368
0.0145548
-0.00269649
0.00194342
0.0060912
0.00717953
0.00236783
-0.00171004
-0.00124944
-0.000848498
0.00407613
0.0111567
0.0171178
0.022686
0.0286177
0.863546
0.0275972
0.00369469
0.0134529
0.00765994
-0.0457307
-0.155763
0.0446201
-0.0144159
-0.0189814
0.00061156
0.00138972
-0.0026501
-0.00817044
-0.00595254
-0.00332537
0.109961
0.0562427
0.0164296
0.0235321
0.0208239
0.0149076
0.0115863
0.00530808
0.00787346
0.0098301
0.0145297
0.0196398
0.0257379
0.0308267
0.108091
0.0327369
0.00284142
0.00805571
-0.0038148
-0.104317
-0.179885
-0.0707192
-0.0454866
-0.0142025
0.00389753
0.00837949
0.0162654
0.00635291
0.00762653
0.00960008
0.0142211
0.0204324
0.0447484
0.035169
0.0341269
0.0282525
0.0223443
0.0186168
0.0175178
0.0203339
0.0254813
0.0332746
0.0416992
0.0494022
0.0857626
0.0326354
0.000735716
0.00311059
-0.013056
-0.0902068
0.555676
-0.0311603
-0.0166428
-0.00503257
0.00641543
0.012578
0.0148688
0.0164466
0.136342
0.0179261
0.0255467
0.0351638
0.0365526
0.0399704
0.0401456
0.0369174
0.0332618
0.0331068
0.0408834
0.0282732
0.0294296
0.0311541
0.0326902
0.0346361
-0.000336996
-0.00248432
-0.0022449
-0.000870016
-0.0194592
-0.0762464
0.353219
0.0289443
0.0152955
0.0566786
0.00811672
0.0139091
0.0172706
0.0197629
0.0203534
0.0231206
0.0268274
0.0331371
0.0678192
0.0449508
0.0402133
0.0367138
0.0336662
0.0394209
0.0278759
0.0260442
0.0245178
0.0229757
0.0212159
0.0190918
-0.100582
-0.121075
-0.00452037
-0.00328164
-0.0228808
0.71698
-0.000311636
0.200156
0.0106404
0.0236166
0.00800596
0.0124855
0.0155988
0.0179134
0.0196485
0.0218238
0.0240443
0.026311
0.028745
0.028262
0.0269404
0.0257789
0.0526031
0.0390418
0.0264821
0.0290945
0.018748
0.0187067
0.0186053
0.0183209
-0.0133735
-0.0448554
-0.00435933
-0.00380642
-0.0168384
-0.0175882
0.00480582
0.0207467
-0.0179338
-0.00156316
0.00451617
0.00838339
0.0110058
0.013044
0.0146421
0.0159803
0.0170951
0.0179396
0.0181813
0.0175256
0.0159015
0.0135807
0.0110801
0.00972691
0.00922403
0.0320575
0.004855
0.00443897
0.00625972
0.0108556
0.0101296
0.00349583
-0.00263636
-0.0028113
-0.00800951
0.00596591
0.018952
-0.00579976
-0.0270724
-0.00407597
-6.80092e-05
0.00226843
0.00439378
0.0062595
0.00774579
0.0088635
0.00963952
0.0100495
0.00998631
0.00937991
0.00822019
0.00653565
0.00812779
0.00219709
0.000472544
0.000261961
0.00180085
0.00421211
0.0236888
0.0326568
0.00397481
0.00852086
-0.000863223
-0.00106678
-0.00219111
0.00439814
0.00808611
-0.100579
0.0121572
-0.00269155
-0.00601268
-0.00555332
-0.0038311
-0.00194343
-0.000331481
0.000917943
0.00183718
0.00247355
0.00286045
0.00302959
0.00301409
0.00283938
0.00251184
0.00200055
0.00413028
0.00184289
6.14411e-05
0.000215702
0.000349885
0.000529285
0.0937923
0.091898
0.0972867
0.0989335
0.0999948
0.102855
0.10032
0.114486
0.0831227
0.0703048
0.0532329
0.0941117
0.184948
0.155401
0.0524115
0.22247
0.151385
94.6239
99.8811
104.938
106.983
113.994
107.703
13.7581
103.6
0.0808738
-0.106017
0.0508353
-0.0451409
0.0403545
0.102539
0.0827563
0.0904017
0.0947867
0.0966184
0.0966455
0.0977215
0.123669
0.0800795
0.0678027
0.0613599
0.12273
0.150471
0.414674
1.0756
0.238009
0.153847
0.397864
100.675
103.775
107.57
113.903
109.402
-1.87656
-0.89115
0.077597
-0.0849784
0.0311334
-0.0362693
0.0400199
0.0435005
0.0717167
0.0842061
0.0915644
0.0928362
0.0933123
0.0882415
0.0962566
0.0758665
0.0648054
0.0639319
0.114954
0.11902
0.0712865
0.178462
0.246948
0.148531
0.770707
-0.637555
104.366
108.571
113.849
110.914
-0.353855
-0.762675
0.0765668
-0.0572246
0.0177517
-0.0275051
0.0388938
0.0543683
0.0699078
0.0797263
0.0860729
0.0888625
0.0901849
0.0871677
0.0846604
0.0701483
0.0610381
0.0623513
0.0798412
0.0921302
0.0891083
0.195179
0.368344
0.144955
0.593052
0.177999
91.1076
110.441
113.479
113.086
-0.312574
-0.533506
0.0769332
-0.0263518
0.0106123
-0.0191741
0.0371718
0.0666742
0.0719771
0.0771881
0.0816968
0.0847109
0.0876279
0.0839149
0.0769738
0.0629611
0.060914
0.0576555
0.0587487
0.0891453
0.0929803
0.0703361
0.339316
0.144426
1.16966
0.128599
-0.131359
113.207
113.418
79.766
-0.331799
-0.266163
0.0762871
0.00153745
0.00629138
-0.0115231
0.0349194
0.0693739
0.07408
0.074442
0.0777689
0.080721
0.0817254
0.079075
0.0699666
0.0552723
0.109048
0.0516271
0.0665418
0.0909441
0.0912824
0.145362
0.309223
0.145795
1.96065
0.0756663
-0.0869507
-0.190186
51.6606
-0.0399461
-0.330603
-0.104813
0.0741048
0.0234806
0.00632317
-0.00469817
0.0321995
0.069605
0.0744511
0.073605
0.0742429
0.0786528
0.0771271
0.0750983
0.0635507
0.0489573
0.0990537
0.0442765
0.0600982
0.0915876
0.0888186
0.188258
0.162845
0.148404
0.214917
0.0673743
-0.394113
-0.125413
-0.104495
-0.0729865
-0.278259
-0.0487615
0.0706637
0.0393896
0.00977719
0.00121493
0.0291004
0.0682865
0.0687478
0.0695955
0.0712668
0.0752449
0.0729866
0.0693493
0.0588861
0.0441246
0.0365716
0.0378622
0.0575612
0.0769862
0.0879496
0.170635
0.148812
0.148772
0.194051
0.0380949
-0.356066
-0.123586
-0.14403
-0.0394685
-0.251365
-0.0127515
0.0672614
0.0493298
0.0133897
0.00617369
0.0257564
0.0660474
0.0671111
0.0674522
0.0689907
0.07065
0.0700242
0.0672781
0.0560849
0.0405706
0.0305727
0.0339309
0.0569646
0.0777833
0.0899207
0.105434
0.169081
0.148551
0.170358
0.322455
-0.292241
-0.132023
-0.141257
-0.0695469
-0.201787
0.00295181
0.0644045
0.0544563
0.0198867
0.0101837
0.0223552
0.0619261
0.06401
0.065656
0.0676441
0.0693996
0.0690545
0.0679371
0.055964
0.0413649
0.0309754
0.0402294
0.0591198
0.0794377
0.0929954
0.106425
0.144379
0.146224
0.119801
-0.0540865
-0.237442
-0.154568
-0.0879434
-0.00463412
-0.160216
-0.016687
0.061975
0.056147
0.0268147
0.0132959
0.0191265
0.0581781
0.0615398
0.0641672
0.0672911
0.0691629
0.0690844
0.0669261
0.0601949
0.0481467
0.0379094
0.0426921
0.0565573
0.0820461
0.096075
0.11035
0.128222
0.142661
0.0915987
0.0366875
-0.285057
-0.237589
-0.120129
-0.0753152
-0.123679
-0.0415091
0.0606624
0.0558088
0.0326082
0.0156038
0.0162952
0.0573837
0.0590376
0.062796
0.068107
0.068458
0.069844
0.0700315
0.0683375
0.0593068
0.0617031
0.0529291
0.0675382
0.0864299
0.0991728
0.113722
0.129462
0.138762
0.153839
0.185085
-0.286114
-0.246127
-0.106808
-0.0641702
-0.0949295
-0.048694
0.0590086
0.0544115
0.0365147
0.0172331
0.0140269
0.0556493
0.0592264
0.0629521
0.066414
0.068788
0.0707665
0.0729809
0.0809144
0.0731393
0.0746532
0.0672761
0.0776747
0.0925306
0.102894
0.116811
0.130588
0.134032
0.102251
-0.0293097
-0.289167
-0.245187
-0.0253299
-0.0538233
-0.0674935
-0.04092
0.0549421
0.0524712
0.0385336
0.0183332
0.0123702
0.0555329
0.0602497
0.0642573
0.067714
0.0704673
0.0730665
0.126557
0.143682
0.0834662
0.0783816
0.078773
0.086148
0.0983406
0.106947
0.119594
0.132701
0.19167
0.0940577
-0.0393564
-0.2797
-0.245846
-0.100124
-0.0476208
-0.0552238
-0.0105451
0.0506273
0.050206
0.0390247
0.0190492
0.01125
0.0554736
0.0600973
0.0645514
0.0685704
0.073272
0.0780239
0.0901884
0.349644
0.0931337
0.0842459
0.084737
0.0907868
0.0993766
0.109949
0.12076
0.145105
0.110149
0.0824813
-0.0153415
-0.275146
-0.239872
-0.092552
-0.0442328
-0.0477699
0.019959
0.0475998
0.0476919
0.0384044
0.0194786
0.0105191
0.0537134
0.0583892
0.0631726
0.0703666
0.328274
0.0809214
0.0885205
0.116099
0.0806028
0.081761
0.0850454
0.0899231
0.0997151
0.110788
0.117753
0.145536
0.0951206
0.0610968
-0.0558015
-0.259054
-0.173305
-0.0859596
-0.0446355
-0.0494412
0.0292237
0.0443725
0.0449679
0.03703
0.0196484
0.0100146
0.0516037
0.0558907
0.0598542
0.0629706
0.0638545
0.0680454
0.0708859
2.25866
0.27698
0.0784002
0.0805669
0.0866242
0.0965856
0.110656
0.109657
0.100439
0.0708508
0.0297592
-0.0627684
-0.219966
-0.201249
-0.0644802
-0.036313
-0.0452904
0.0252122
0.039941
0.0420753
0.0351728
0.0195474
0.00959801
0.0498892
0.054227
0.0580914
0.0635276
0.0641525
0.0656095
0.0650353
0.0621195
0.0620388
0.0679166
0.0734317
0.0797214
0.0910389
0.0992823
0.112323
0.0711318
0.0405497
0.00377159
-0.0517722
-0.156266
-0.17048
-0.0587997
-0.0335499
-0.0321695
0.0138952
0.0353062
0.0390605
0.0330176
0.0191688
0.00916923
0.0495717
0.0534729
0.0570674
0.0595205
0.0617044
0.0622912
0.0624894
0.0605199
0.0603974
0.0621479
0.0654522
0.0705865
0.0777433
0.0848079
0.10287
0.0399827
0.015613
-0.00731868
-0.0380461
-0.0907194
-0.102918
-0.0604093
-0.0223429
0.0102238
0.0140332
0.0313657
0.0359632
0.0306773
0.0185202
0.00866919
0.0477531
0.0504813
0.0529817
0.0551539
0.0568135
0.0575023
0.05679
0.0558453
0.0551484
0.0553415
0.05654
0.0651618