/*--------------------------------*- C++ -*----------------------------------*\
| =========                 |                                                 |
| \\      /  F ield         | OpenFOAM: The Open Source CFD Toolbox           |
|  \\    /   O peration     | Version:  2.4.0                                 |
|   \\  /    A nd           | Web:      www.OpenFOAM.org                      |
|    \\/     M anipulation  |                                                 |
\*---------------------------------------------------------------------------*/
FoamFile
{
    version     2.0;
    format      ascii;
    class       volVectorField;
    location    "0.169";
    object      U;
}
// * * * * * * * * * * * * * * * * * * * * * * * * * * * * * * * * * * * * * //

dimensions      [0 1 -1 0 0 0 0];

internalField   nonuniform List<vector> 
60000
(
(3.5167e-08 -3.33127e-08 0)
(-4.05791e-08 -2.89376e-08 0)
(-1.92176e-07 -1.79703e-08 0)
(-3.65579e-07 -1.6471e-08 0)
(-5.49092e-07 -1.24623e-08 0)
(-7.44161e-07 -8.41559e-09 0)
(-9.53602e-07 -3.38461e-09 0)
(-1.1803e-06 2.41369e-09 0)
(-1.42665e-06 8.66839e-09 0)
(-1.69469e-06 1.54695e-08 0)
(-1.98687e-06 2.28642e-08 0)
(-2.30589e-06 3.08682e-08 0)
(-2.65439e-06 3.938e-08 0)
(-3.03498e-06 4.83383e-08 0)
(-3.45021e-06 5.76198e-08 0)
(-3.90247e-06 6.71458e-08 0)
(-4.39397e-06 7.68391e-08 0)
(-4.92696e-06 8.67132e-08 0)
(-5.50351e-06 9.67302e-08 0)
(-6.1257e-06 1.06909e-07 0)
(-6.79556e-06 1.17202e-07 0)
(-7.51487e-06 1.27563e-07 0)
(-8.28532e-06 1.38042e-07 0)
(-9.10843e-06 1.48534e-07 0)
(-9.98549e-06 1.59146e-07 0)
(-1.09179e-05 1.69841e-07 0)
(-1.19069e-05 1.80693e-07 0)
(-1.29537e-05 1.91703e-07 0)
(-1.40595e-05 2.02864e-07 0)
(-1.52254e-05 2.14231e-07 0)
(-1.64526e-05 2.25758e-07 0)
(-1.7742e-05 2.3751e-07 0)
(-1.9095e-05 2.49634e-07 0)
(-2.0513e-05 2.62125e-07 0)
(-2.19976e-05 2.7508e-07 0)
(-2.35503e-05 2.88446e-07 0)
(-2.51731e-05 3.02315e-07 0)
(-2.6868e-05 3.16791e-07 0)
(-2.86373e-05 3.31724e-07 0)
(-3.04837e-05 3.47215e-07 0)
(-3.241e-05 3.6351e-07 0)
(-3.4419e-05 3.80438e-07 0)
(-3.6514e-05 3.98137e-07 0)
(-3.86982e-05 4.16501e-07 0)
(-4.09748e-05 4.35616e-07 0)
(-4.33472e-05 4.55558e-07 0)
(-4.58184e-05 4.75883e-07 0)
(-4.83906e-05 4.96803e-07 0)
(-5.10671e-05 5.18381e-07 0)
(-5.38508e-05 5.40453e-07 0)
(-5.67437e-05 5.63049e-07 0)
(-5.97483e-05 5.86305e-07 0)
(-6.28663e-05 6.09982e-07 0)
(-6.60991e-05 6.34026e-07 0)
(-6.94479e-05 6.58458e-07 0)
(-7.29136e-05 6.83214e-07 0)
(-7.64973e-05 7.08376e-07 0)
(-8.02e-05 7.34003e-07 0)
(-8.40228e-05 7.60096e-07 0)
(-8.79666e-05 7.86653e-07 0)
(-9.20325e-05 8.13712e-07 0)
(-9.62214e-05 8.4134e-07 0)
(-0.000100535 8.69625e-07 0)
(-0.000104974 8.98554e-07 0)
(-0.00010954 9.28189e-07 0)
(-0.000114235 9.58599e-07 0)
(-0.000119059 9.8985e-07 0)
(-0.000124016 1.02194e-06 0)
(-0.000129106 1.05485e-06 0)
(-0.000134331 1.0886e-06 0)
(-0.000139693 1.12326e-06 0)
(-0.000145194 1.15886e-06 0)
(-0.000150836 1.19525e-06 0)
(-0.000156619 1.23222e-06 0)
(-0.000162546 1.2698e-06 0)
(-0.000168616 1.30791e-06 0)
(-0.00017483 1.34636e-06 0)
(-0.000181187 1.38507e-06 0)
(-0.000187687 1.42388e-06 0)
(-0.000194327 1.46274e-06 0)
(-0.000201104 1.50097e-06 0)
(-0.000208015 1.53818e-06 0)
(-0.000215052 1.57422e-06 0)
(-0.000222207 1.6086e-06 0)
(-0.000229472 1.64077e-06 0)
(-0.000236835 1.6702e-06 0)
(-0.00024428 1.69651e-06 0)
(-0.000251791 1.71904e-06 0)
(-0.000259351 1.73727e-06 0)
(-0.000266936 1.75012e-06 0)
(-0.00027452 1.75713e-06 0)
(-0.000282073 1.75712e-06 0)
(-0.00028956 1.74928e-06 0)
(-0.000296944 1.73279e-06 0)
(-0.000304177 1.70507e-06 0)
(-0.00031122 1.66812e-06 0)
(-0.000318006 1.6177e-06 0)
(-0.000324499 1.55769e-06 0)
(-0.00033059 1.47514e-06 0)
(-0.000336208 1.39478e-06 0)
(-4.47658e-08 3.69235e-08 0)
(-4.89325e-07 1.51325e-07 0)
(-1.07185e-06 1.9303e-07 0)
(-1.66975e-06 2.03589e-07 0)
(-2.27998e-06 2.12175e-07 0)
(-2.89376e-06 2.21072e-07 0)
(-3.51422e-06 2.32275e-07 0)
(-4.14265e-06 2.45505e-07 0)
(-4.78125e-06 2.60264e-07 0)
(-5.4321e-06 2.76843e-07 0)
(-6.09764e-06 2.95513e-07 0)
(-6.78053e-06 3.16396e-07 0)
(-7.48362e-06 3.39418e-07 0)
(-8.21012e-06 3.64645e-07 0)
(-8.96379e-06 3.92023e-07 0)
(-9.74863e-06 4.21445e-07 0)
(-1.05689e-05 4.52974e-07 0)
(-1.1429e-05 4.86588e-07 0)
(-1.23334e-05 5.22165e-07 0)
(-1.32864e-05 5.59822e-07 0)
(-1.42922e-05 5.99334e-07 0)
(-1.53548e-05 6.40526e-07 0)
(-1.64779e-05 6.83411e-07 0)
(-1.76651e-05 7.27602e-07 0)
(-1.89193e-05 7.73115e-07 0)
(-2.02436e-05 8.19911e-07 0)
(-2.16405e-05 8.67764e-07 0)
(-2.31124e-05 9.1676e-07 0)
(-2.46615e-05 9.66752e-07 0)
(-2.62899e-05 1.01769e-06 0)
(-2.79996e-05 1.06948e-06 0)
(-2.97924e-05 1.12215e-06 0)
(-3.167e-05 1.17597e-06 0)
(-3.36343e-05 1.23085e-06 0)
(-3.56868e-05 1.28705e-06 0)
(-3.78293e-05 1.34429e-06 0)
(-4.00642e-05 1.40309e-06 0)
(-4.23933e-05 1.46373e-06 0)
(-4.48196e-05 1.52619e-06 0)
(-4.73466e-05 1.59057e-06 0)
(-4.99774e-05 1.65759e-06 0)
(-5.27156e-05 1.72682e-06 0)
(-5.5565e-05 1.79881e-06 0)
(-5.85296e-05 1.87323e-06 0)
(-6.16126e-05 1.9501e-06 0)
(-6.48182e-05 2.03002e-06 0)
(-6.81503e-05 2.11162e-06 0)
(-7.16127e-05 2.19569e-06 0)
(-7.52098e-05 2.28236e-06 0)
(-7.89453e-05 2.37087e-06 0)
(-8.28218e-05 2.46096e-06 0)
(-8.6841e-05 2.5527e-06 0)
(-9.10045e-05 2.64541e-06 0)
(-9.53131e-05 2.73916e-06 0)
(-9.97685e-05 2.83352e-06 0)
(-0.000104371 2.92841e-06 0)
(-0.000109121 3.02401e-06 0)
(-0.000114019 3.12019e-06 0)
(-0.000119065 3.21685e-06 0)
(-0.000124259 3.31392e-06 0)
(-0.0001296 3.41141e-06 0)
(-0.000135089 3.50934e-06 0)
(-0.000140725 3.60794e-06 0)
(-0.000146507 3.70705e-06 0)
(-0.000152436 3.8067e-06 0)
(-0.000158509 3.9071e-06 0)
(-0.000164727 4.00837e-06 0)
(-0.000171089 4.1104e-06 0)
(-0.000177594 4.21307e-06 0)
(-0.000184241 4.31648e-06 0)
(-0.000191029 4.42084e-06 0)
(-0.000197958 4.52623e-06 0)
(-0.000205026 4.63225e-06 0)
(-0.000212234 4.73837e-06 0)
(-0.00021958 4.84478e-06 0)
(-0.000227062 4.95121e-06 0)
(-0.000234679 5.05688e-06 0)
(-0.000242428 5.16126e-06 0)
(-0.000250303 5.2639e-06 0)
(-0.0002583 5.36443e-06 0)
(-0.000266413 5.46108e-06 0)
(-0.000274635 5.55281e-06 0)
(-0.000282955 5.639e-06 0)
(-0.000291365 5.71809e-06 0)
(-0.000299852 5.78807e-06 0)
(-0.0003084 5.84694e-06 0)
(-0.000316993 5.89369e-06 0)
(-0.000325611 5.92631e-06 0)
(-0.000334231 5.94237e-06 0)
(-0.000342825 5.93901e-06 0)
(-0.000351362 5.91283e-06 0)
(-0.000359806 5.8615e-06 0)
(-0.000368114 5.78069e-06 0)
(-0.000376245 5.66724e-06 0)
(-0.000384137 5.51484e-06 0)
(-0.000391754 5.32687e-06 0)
(-0.000398992 5.08899e-06 0)
(-0.000405824 4.80148e-06 0)
(-0.000412043 4.41577e-06 0)
(-0.000417488 3.94775e-06 0)
(-7.6118e-08 2.11267e-07 0)
(-6.75946e-07 4.82507e-07 0)
(-1.43614e-06 5.49619e-07 0)
(-2.21027e-06 5.72249e-07 0)
(-2.99743e-06 5.82575e-07 0)
(-3.78594e-06 5.92573e-07 0)
(-4.57638e-06 6.04945e-07 0)
(-5.36891e-06 6.20004e-07 0)
(-6.16545e-06 6.37604e-07 0)
(-6.96781e-06 6.58077e-07 0)
(-7.77813e-06 6.81797e-07 0)
(-8.59882e-06 7.08968e-07 0)
(-9.4327e-06 7.39679e-07 0)
(-1.02828e-05 7.7422e-07 0)
(-1.11527e-05 8.12883e-07 0)
(-1.20464e-05 8.5566e-07 0)
(-1.29679e-05 9.02905e-07 0)
(-1.3922e-05 9.54596e-07 0)
(-1.49133e-05 1.01058e-06 0)
(-1.59465e-05 1.07101e-06 0)
(-1.70262e-05 1.13552e-06 0)
(-1.81569e-05 1.20387e-06 0)
(-1.93426e-05 1.27593e-06 0)
(-2.05873e-05 1.35116e-06 0)
(-2.18944e-05 1.42934e-06 0)
(-2.32674e-05 1.51051e-06 0)
(-2.47092e-05 1.59396e-06 0)
(-2.62226e-05 1.67999e-06 0)
(-2.78106e-05 1.76833e-06 0)
(-2.94754e-05 1.85879e-06 0)
(-3.12196e-05 1.95136e-06 0)
(-3.30455e-05 2.04583e-06 0)
(-3.49551e-05 2.14252e-06 0)
(-3.69505e-05 2.24116e-06 0)
(-3.90334e-05 2.34212e-06 0)
(-4.12061e-05 2.44493e-06 0)
(-4.34711e-05 2.55064e-06 0)
(-4.58307e-05 2.65957e-06 0)
(-4.82883e-05 2.77199e-06 0)
(-5.08476e-05 2.88802e-06 0)
(-5.35121e-05 3.0087e-06 0)
(-5.62856e-05 3.13322e-06 0)
(-5.91722e-05 3.26272e-06 0)
(-6.21764e-05 3.39663e-06 0)
(-6.53017e-05 3.53456e-06 0)
(-6.85526e-05 3.67809e-06 0)
(-7.1934e-05 3.82528e-06 0)
(-7.54502e-05 3.9771e-06 0)
(-7.91056e-05 4.13383e-06 0)
(-8.29038e-05 4.29381e-06 0)
(-8.68474e-05 4.45644e-06 0)
(-9.09385e-05 4.62153e-06 0)
(-9.51791e-05 4.78817e-06 0)
(-9.95706e-05 4.95671e-06 0)
(-0.000104115 5.12627e-06 0)
(-0.000108812 5.2967e-06 0)
(-0.000113663 5.46819e-06 0)
(-0.000118669 5.64038e-06 0)
(-0.00012383 5.81296e-06 0)
(-0.000129145 5.98581e-06 0)
(-0.000134614 6.15894e-06 0)
(-0.000140238 6.3322e-06 0)
(-0.000146015 6.50587e-06 0)
(-0.000151946 6.67968e-06 0)
(-0.000158029 6.85353e-06 0)
(-0.000164264 7.02769e-06 0)
(-0.000170649 7.2023e-06 0)
(-0.000177185 7.37709e-06 0)
(-0.000183869 7.55181e-06 0)
(-0.0001907 7.72669e-06 0)
(-0.000197678 7.90194e-06 0)
(-0.000204802 8.07766e-06 0)
(-0.00021207 8.25348e-06 0)
(-0.000219482 8.42878e-06 0)
(-0.000227037 8.60374e-06 0)
(-0.000234733 8.77765e-06 0)
(-0.000242566 8.94937e-06 0)
(-0.000250534 9.11776e-06 0)
(-0.000258634 9.28197e-06 0)
(-0.000266858 9.44097e-06 0)
(-0.000275203 9.59276e-06 0)
(-0.000283659 9.73553e-06 0)
(-0.000292218 9.86813e-06 0)
(-0.00030087 9.98798e-06 0)
(-0.000309602 1.00922e-05 0)
(-0.000318401 1.01773e-05 0)
(-0.00032725 1.02415e-05 0)
(-0.000336129 1.02808e-05 0)
(-0.000345014 1.02907e-05 0)
(-0.000353876 1.02666e-05 0)
(-0.000362685 1.02025e-05 0)
(-0.000371403 1.0094e-05 0)
(-0.000379988 9.93386e-06 0)
(-0.0003884 9.7169e-06 0)
(-0.000396569 9.43279e-06 0)
(-0.000404469 9.08288e-06 0)
(-0.00041197 8.63953e-06 0)
(-0.00041906 8.08763e-06 0)
(-0.000425456 7.32789e-06 0)
(-0.000430982 6.32388e-06 0)
(-1.06709e-07 4.13023e-07 0)
(-7.68425e-07 8.50258e-07 0)
(-1.58067e-06 9.53923e-07 0)
(-2.42811e-06 9.8768e-07 0)
(-3.28562e-06 1.001e-06 0)
(-4.14453e-06 1.01165e-06 0)
(-5.00446e-06 1.02441e-06 0)
(-5.86504e-06 1.04033e-06 0)
(-6.72783e-06 1.05965e-06 0)
(-7.59433e-06 1.08277e-06 0)
(-8.46644e-06 1.1102e-06 0)
(-9.34649e-06 1.14238e-06 0)
(-1.02373e-05 1.17956e-06 0)
(-1.11421e-05 1.22211e-06 0)
(-1.2064e-05 1.2706e-06 0)
(-1.30071e-05 1.32521e-06 0)
(-1.39753e-05 1.38639e-06 0)
(-1.49731e-05 1.45432e-06 0)
(-1.6005e-05 1.52895e-06 0)
(-1.70756e-05 1.61026e-06 0)
(-1.81891e-05 1.6979e-06 0)
(-1.93501e-05 1.79152e-06 0)
(-2.05626e-05 1.89082e-06 0)
(-2.18304e-05 1.99517e-06 0)
(-2.31572e-05 2.10425e-06 0)
(-2.45464e-05 2.21792e-06 0)
(-2.60012e-05 2.33542e-06 0)
(-2.75247e-05 2.45692e-06 0)
(-2.91196e-05 2.58205e-06 0)
(-3.07885e-05 2.71052e-06 0)
(-3.25335e-05 2.84233e-06 0)
(-3.4357e-05 2.97712e-06 0)
(-3.6261e-05 3.11519e-06 0)
(-3.82476e-05 3.25623e-06 0)
(-4.03188e-05 3.40058e-06 0)
(-4.2477e-05 3.54808e-06 0)
(-4.47247e-05 3.69978e-06 0)
(-4.70646e-05 3.85618e-06 0)
(-4.95e-05 4.01763e-06 0)
(-5.20346e-05 4.18474e-06 0)
(-5.46722e-05 4.35832e-06 0)
(-5.74163e-05 4.53773e-06 0)
(-6.0272e-05 4.72453e-06 0)
(-6.32432e-05 4.91774e-06 0)
(-6.63344e-05 5.11727e-06 0)
(-6.95505e-05 5.32483e-06 0)
(-7.28962e-05 5.5385e-06 0)
(-7.63764e-05 5.75883e-06 0)
(-7.99945e-05 5.98594e-06 0)
(-8.37537e-05 6.21783e-06 0)
(-8.76577e-05 6.45385e-06 0)
(-9.17093e-05 6.69344e-06 0)
(-9.59107e-05 6.93556e-06 0)
(-0.000100264 7.18039e-06 0)
(-0.00010477 7.42694e-06 0)
(-0.000109431 7.67473e-06 0)
(-0.000114246 7.92398e-06 0)
(-0.000119218 8.17421e-06 0)
(-0.000124346 8.42484e-06 0)
(-0.00012963 8.67574e-06 0)
(-0.00013507 8.92673e-06 0)
(-0.000140667 9.17782e-06 0)
(-0.000146419 9.42907e-06 0)
(-0.000152326 9.68024e-06 0)
(-0.000158389 9.93114e-06 0)
(-0.000164606 1.01821e-05 0)
(-0.000170977 1.04331e-05 0)
(-0.000177502 1.06838e-05 0)
(-0.000184178 1.09339e-05 0)
(-0.000191007 1.11838e-05 0)
(-0.000197986 1.14337e-05 0)
(-0.000205117 1.16836e-05 0)
(-0.000212397 1.19332e-05 0)
(-0.000219826 1.2182e-05 0)
(-0.000227403 1.24297e-05 0)
(-0.000235128 1.26753e-05 0)
(-0.000242996 1.29174e-05 0)
(-0.000251007 1.31546e-05 0)
(-0.000259156 1.33854e-05 0)
(-0.000267439 1.36081e-05 0)
(-0.000275851 1.38205e-05 0)
(-0.000284384 1.40199e-05 0)
(-0.000293032 1.42044e-05 0)
(-0.000301783 1.43704e-05 0)
(-0.000310627 1.45145e-05 0)
(-0.00031955 1.46324e-05 0)
(-0.000328535 1.47205e-05 0)
(-0.000337563 1.47728e-05 0)
(-0.000346611 1.47827e-05 0)
(-0.000355652 1.47433e-05 0)
(-0.000364653 1.46475e-05 0)
(-0.00037358 1.44872e-05 0)
(-0.000382387 1.42537e-05 0)
(-0.000391036 1.39387e-05 0)
(-0.000399454 1.35282e-05 0)
(-0.000407617 1.30173e-05 0)
(-0.000415382 1.23682e-05 0)
(-0.000422746 1.15416e-05 0)
(-0.00042938 1.03819e-05 0)
(-0.000435139 8.80708e-06 0)
(-1.12538e-07 6.32962e-07 0)
(-8.01608e-07 1.23205e-06 0)
(-1.64117e-06 1.37907e-06 0)
(-2.51685e-06 1.42335e-06 0)
(-3.40238e-06 1.4401e-06 0)
(-4.2901e-06 1.45148e-06 0)
(-5.17885e-06 1.46452e-06 0)
(-6.06802e-06 1.48104e-06 0)
(-6.95893e-06 1.50165e-06 0)
(-7.85289e-06 1.52692e-06 0)
(-8.7518e-06 1.55752e-06 0)
(-9.65786e-06 1.59416e-06 0)
(-1.05739e-05 1.63728e-06 0)
(-1.1503e-05 1.68736e-06 0)
(-1.24486e-05 1.7451e-06 0)
(-1.34144e-05 1.81102e-06 0)
(-1.44047e-05 1.88557e-06 0)
(-1.54237e-05 1.96907e-06 0)
(-1.64758e-05 2.06154e-06 0)
(-1.75654e-05 2.16286e-06 0)
(-1.8697e-05 2.27274e-06 0)
(-1.9875e-05 2.39067e-06 0)
(-2.11033e-05 2.51623e-06 0)
(-2.23859e-05 2.64877e-06 0)
(-2.37264e-05 2.78782e-06 0)
(-2.51284e-05 2.93302e-06 0)
(-2.6595e-05 3.08377e-06 0)
(-2.81292e-05 3.23982e-06 0)
(-2.97338e-05 3.4008e-06 0)
(-3.1411e-05 3.56635e-06 0)
(-3.3163e-05 3.73621e-06 0)
(-3.49921e-05 3.91027e-06 0)
(-3.69e-05 4.08843e-06 0)
(-3.88888e-05 4.27074e-06 0)
(-4.09604e-05 4.45726e-06 0)
(-4.31172e-05 4.64838e-06 0)
(-4.53619e-05 4.84484e-06 0)
(-4.76972e-05 5.04768e-06 0)
(-5.01263e-05 5.25702e-06 0)
(-5.26527e-05 5.47427e-06 0)
(-5.52804e-05 5.69954e-06 0)
(-5.80129e-05 5.93283e-06 0)
(-6.08552e-05 6.17589e-06 0)
(-6.38115e-05 6.42733e-06 0)
(-6.68862e-05 6.68791e-06 0)
(-7.00845e-05 6.95863e-06 0)
(-7.34106e-05 7.23798e-06 0)
(-7.68699e-05 7.52617e-06 0)
(-8.04658e-05 7.82262e-06 0)
(-8.42014e-05 8.1256e-06 0)
(-8.80807e-05 8.43451e-06 0)
(-9.21066e-05 8.74819e-06 0)
(-9.62816e-05 9.06561e-06 0)
(-0.000100608 9.3866e-06 0)
(-0.000105087 9.70999e-06 0)
(-0.00010972 1.00352e-05 0)
(-0.000114508 1.03622e-05 0)
(-0.000119452 1.06905e-05 0)
(-0.000124552 1.10193e-05 0)
(-0.000129809 1.13485e-05 0)
(-0.000135221 1.16776e-05 0)
(-0.00014079 1.20066e-05 0)
(-0.000146514 1.23358e-05 0)
(-0.000152393 1.26647e-05 0)
(-0.000158428 1.29932e-05 0)
(-0.000164618 1.33215e-05 0)
(-0.000170963 1.36497e-05 0)
(-0.000177462 1.39772e-05 0)
(-0.000184114 1.43039e-05 0)
(-0.00019092 1.46303e-05 0)
(-0.00019788 1.49566e-05 0)
(-0.000204992 1.52825e-05 0)
(-0.000212258 1.56078e-05 0)
(-0.000219675 1.59321e-05 0)
(-0.000227244 1.62547e-05 0)
(-0.000234963 1.65743e-05 0)
(-0.00024283 1.68895e-05 0)
(-0.000250845 1.71986e-05 0)
(-0.000259003 1.74996e-05 0)
(-0.0002673 1.77897e-05 0)
(-0.000275733 1.80671e-05 0)
(-0.000284296 1.83282e-05 0)
(-0.000292982 1.85699e-05 0)
(-0.00030178 1.87877e-05 0)
(-0.00031068 1.89776e-05 0)
(-0.000319668 1.91344e-05 0)
(-0.00032873 1.92523e-05 0)
(-0.000337845 1.9324e-05 0)
(-0.000346993 1.93409e-05 0)
(-0.000356145 1.9294e-05 0)
(-0.000365272 1.9174e-05 0)
(-0.000374339 1.89702e-05 0)
(-0.000383301 1.8671e-05 0)
(-0.00039212 1.82647e-05 0)
(-0.000400719 1.77338e-05 0)
(-0.000409077 1.70664e-05 0)
(-0.000417038 1.62138e-05 0)
(-0.000424607 1.51077e-05 0)
(-0.000431419 1.35369e-05 0)
(-0.000437323 1.13571e-05 0)
(-1.12419e-07 8.58313e-07 0)
(-8.13093e-07 1.62271e-06 0)
(-1.66582e-06 1.81194e-06 0)
(-2.5519e-06 1.86634e-06 0)
(-3.44731e-06 1.88683e-06 0)
(-4.34556e-06 1.89914e-06 0)
(-5.24503e-06 1.91254e-06 0)
(-6.14492e-06 1.92964e-06 0)
(-7.04635e-06 1.95138e-06 0)
(-7.95044e-06 1.9786e-06 0)
(-8.85907e-06 2.01216e-06 0)
(-9.77446e-06 2.05299e-06 0)
(-1.06993e-05 2.10181e-06 0)
(-1.16369e-05 2.15922e-06 0)
(-1.25906e-05 2.22605e-06 0)
(-1.35642e-05 2.3031e-06 0)
(-1.45619e-05 2.39088e-06 0)
(-1.5588e-05 2.48975e-06 0)
(-1.66468e-05 2.59983e-06 0)
(-1.77431e-05 2.721e-06 0)
(-1.88812e-05 2.85291e-06 0)
(-2.00655e-05 2.99497e-06 0)
(-2.13001e-05 3.14664e-06 0)
(-2.2589e-05 3.3072e-06 0)
(-2.39359e-05 3.47612e-06 0)
(-2.53443e-05 3.65275e-06 0)
(-2.68174e-05 3.83658e-06 0)
(-2.83583e-05 4.02707e-06 0)
(-2.99693e-05 4.22363e-06 0)
(-3.16528e-05 4.42602e-06 0)
(-3.3411e-05 4.63355e-06 0)
(-3.52456e-05 4.84644e-06 0)
(-3.71585e-05 5.06422e-06 0)
(-3.91516e-05 5.28722e-06 0)
(-4.12268e-05 5.51539e-06 0)
(-4.33863e-05 5.74952e-06 0)
(-4.5633e-05 5.99023e-06 0)
(-4.79693e-05 6.23887e-06 0)
(-5.03986e-05 6.49559e-06 0)
(-5.29244e-05 6.76223e-06 0)
(-5.55504e-05 7.03861e-06 0)
(-5.82802e-05 7.32525e-06 0)
(-6.11188e-05 7.62376e-06 0)
(-6.40705e-05 7.93283e-06 0)
(-6.71396e-05 8.25388e-06 0)
(-7.03314e-05 8.58709e-06 0)
(-7.36501e-05 8.93142e-06 0)
(-7.7101e-05 9.28688e-06 0)
(-8.06878e-05 9.65216e-06 0)
(-8.44139e-05 1.00258e-05 0)
(-8.8283e-05 1.04071e-05 0)
(-9.2298e-05 1.07945e-05 0)
(-9.64618e-05 1.11869e-05 0)
(-0.000100776 1.15838e-05 0)
(-0.000105244 1.19839e-05 0)
(-0.000109865 1.23863e-05 0)
(-0.000114642 1.2791e-05 0)
(-0.000119574 1.31973e-05 0)
(-0.000124662 1.3604e-05 0)
(-0.000129905 1.40112e-05 0)
(-0.000135305 1.44181e-05 0)
(-0.00014086 1.48249e-05 0)
(-0.00014657 1.52316e-05 0)
(-0.000152435 1.5638e-05 0)
(-0.000158455 1.6044e-05 0)
(-0.00016463 1.64498e-05 0)
(-0.000170959 1.68551e-05 0)
(-0.000177442 1.72597e-05 0)
(-0.00018408 1.76634e-05 0)
(-0.000190872 1.80669e-05 0)
(-0.000197818 1.84701e-05 0)
(-0.000204919 1.88729e-05 0)
(-0.000212173 1.92748e-05 0)
(-0.00021958 1.96755e-05 0)
(-0.000227141 2.00741e-05 0)
(-0.000234854 2.04691e-05 0)
(-0.000242717 2.08592e-05 0)
(-0.00025073 2.12419e-05 0)
(-0.00025889 2.16149e-05 0)
(-0.000267194 2.19751e-05 0)
(-0.000275637 2.23204e-05 0)
(-0.000284216 2.26465e-05 0)
(-0.000292922 2.29489e-05 0)
(-0.000301747 2.32226e-05 0)
(-0.000310681 2.34623e-05 0)
(-0.000319711 2.36622e-05 0)
(-0.000328822 2.38146e-05 0)
(-0.000337996 2.39104e-05 0)
(-0.00034721 2.39397e-05 0)
(-0.00035644 2.38913e-05 0)
(-0.000365654 2.37534e-05 0)
(-0.000374821 2.35129e-05 0)
(-0.000383895 2.31545e-05 0)
(-0.000392837 2.26631e-05 0)
(-0.000401572 2.20173e-05 0)
(-0.000410076 2.11983e-05 0)
(-0.00041819 2.01446e-05 0)
(-0.00042592 1.8756e-05 0)
(-0.000432878 1.67624e-05 0)
(-0.00043891 1.39492e-05 0)
(-1.10908e-07 1.08451e-06 0)
(-8.16278e-07 2.01766e-06 0)
(-1.67467e-06 2.24778e-06 0)
(-2.56422e-06 2.3117e-06 0)
(-3.46253e-06 2.33599e-06 0)
(-4.36374e-06 2.34931e-06 0)
(-5.26609e-06 2.36309e-06 0)
(-6.1687e-06 2.38072e-06 0)
(-7.07256e-06 2.40344e-06 0)
(-7.97868e-06 2.43242e-06 0)
(-8.88892e-06 2.46875e-06 0)
(-9.80551e-06 2.51356e-06 0)
(-1.07311e-05 2.56785e-06 0)
(-1.16689e-05 2.6324e-06 0)
(-1.26224e-05 2.70815e-06 0)
(-1.35954e-05 2.79616e-06 0)
(-1.45922e-05 2.8971e-06 0)
(-1.56174e-05 3.01127e-06 0)
(-1.66752e-05 3.13891e-06 0)
(-1.77705e-05 3.27997e-06 0)
(-1.89078e-05 3.4339e-06 0)
(-2.00913e-05 3.60016e-06 0)
(-2.13255e-05 3.7781e-06 0)
(-2.26143e-05 3.9668e-06 0)
(-2.39615e-05 4.16579e-06 0)
(-2.53708e-05 4.37407e-06 0)
(-2.68452e-05 4.59106e-06 0)
(-2.83876e-05 4.81614e-06 0)
(-3.00005e-05 5.04838e-06 0)
(-3.16861e-05 5.28756e-06 0)
(-3.34464e-05 5.53284e-06 0)
(-3.52832e-05 5.78433e-06 0)
(-3.7198e-05 6.04163e-06 0)
(-3.91927e-05 6.305e-06 0)
(-4.12691e-05 6.57468e-06 0)
(-4.34293e-05 6.8514e-06 0)
(-4.56762e-05 7.13628e-06 0)
(-4.80124e-05 7.43022e-06 0)
(-5.04408e-05 7.73412e-06 0)
(-5.29652e-05 8.04976e-06 0)
(-5.55894e-05 8.3769e-06 0)
(-5.83165e-05 8.71666e-06 0)
(-6.11519e-05 9.07017e-06 0)
(-6.41001e-05 9.43657e-06 0)
(-6.71651e-05 9.81777e-06 0)
(-7.03526e-05 1.02132e-05 0)
(-7.36666e-05 1.06221e-05 0)
(-7.7112e-05 1.10445e-05 0)
(-8.06932e-05 1.14785e-05 0)
(-8.44136e-05 1.19227e-05 0)
(-8.82771e-05 1.23763e-05 0)
(-9.22867e-05 1.28373e-05 0)
(-9.64453e-05 1.33047e-05 0)
(-0.000100755 1.37776e-05 0)
(-0.000105218 1.42543e-05 0)
(-0.000109834 1.47341e-05 0)
(-0.000114606 1.52164e-05 0)
(-0.000119534 1.57004e-05 0)
(-0.000124617 1.61851e-05 0)
(-0.000129856 1.667e-05 0)
(-0.00013525 1.71546e-05 0)
(-0.0001408 1.76388e-05 0)
(-0.000146504 1.81228e-05 0)
(-0.000152363 1.86066e-05 0)
(-0.000158376 1.909e-05 0)
(-0.000164545 1.9573e-05 0)
(-0.000170867 2.00556e-05 0)
(-0.000177344 2.05372e-05 0)
(-0.000183976 2.1018e-05 0)
(-0.000190761 2.14987e-05 0)
(-0.000197701 2.1979e-05 0)
(-0.000204795 2.24589e-05 0)
(-0.000212044 2.2938e-05 0)
(-0.000219447 2.34156e-05 0)
(-0.000227004 2.38908e-05 0)
(-0.000234715 2.43622e-05 0)
(-0.000242577 2.48279e-05 0)
(-0.000250591 2.52854e-05 0)
(-0.000258755 2.57318e-05 0)
(-0.000267065 2.6164e-05 0)
(-0.000275517 2.65791e-05 0)
(-0.000284109 2.69721e-05 0)
(-0.000292831 2.73376e-05 0)
(-0.000301678 2.767e-05 0)
(-0.000310639 2.79629e-05 0)
(-0.000319703 2.82092e-05 0)
(-0.000328854 2.83997e-05 0)
(-0.000338075 2.85237e-05 0)
(-0.000347345 2.85694e-05 0)
(-0.000356638 2.85241e-05 0)
(-0.000365925 2.83734e-05 0)
(-0.000375174 2.81013e-05 0)
(-0.000384341 2.76895e-05 0)
(-0.000393388 2.71188e-05 0)
(-0.000402239 2.63636e-05 0)
(-0.000410872 2.53978e-05 0)
(-0.000419126 2.41473e-05 0)
(-0.000427006 2.24772e-05 0)
(-0.000434113 2.00566e-05 0)
(-0.000440294 1.65994e-05 0)
(-1.08957e-07 1.31026e-06 0)
(-8.16069e-07 2.41433e-06 0)
(-1.67649e-06 2.68468e-06 0)
(-2.56696e-06 2.75774e-06 0)
(-3.46591e-06 2.78565e-06 0)
(-4.36745e-06 2.79991e-06 0)
(-5.26975e-06 2.81394e-06 0)
(-6.17178e-06 2.83192e-06 0)
(-7.07449e-06 2.85539e-06 0)
(-7.97887e-06 2.88586e-06 0)
(-8.88679e-06 2.92471e-06 0)
(-9.80054e-06 2.97325e-06 0)
(-1.07227e-05 3.03271e-06 0)
(-1.16565e-05 3.10416e-06 0)
(-1.26054e-05 3.18863e-06 0)
(-1.35736e-05 3.28743e-06 0)
(-1.45653e-05 3.40147e-06 0)
(-1.55852e-05 3.53093e-06 0)
(-1.66379e-05 3.67609e-06 0)
(-1.77279e-05 3.8371e-06 0)
(-1.886e-05 4.01316e-06 0)
(-2.00388e-05 4.20375e-06 0)
(-2.12685e-05 4.40818e-06 0)
(-2.25535e-05 4.62532e-06 0)
(-2.38975e-05 4.8546e-06 0)
(-2.5304e-05 5.09482e-06 0)
(-2.67762e-05 5.34522e-06 0)
(-2.83168e-05 5.60501e-06 0)
(-2.99284e-05 5.87319e-06 0)
(-3.1613e-05 6.14915e-06 0)
(-3.33724e-05 6.43232e-06 0)
(-3.52083e-05 6.72232e-06 0)
(-3.71221e-05 7.01909e-06 0)
(-3.91155e-05 7.32265e-06 0)
(-4.11903e-05 7.63372e-06 0)
(-4.33487e-05 7.95275e-06 0)
(-4.55932e-05 8.28162e-06 0)
(-4.79265e-05 8.62062e-06 0)
(-5.03516e-05 8.97147e-06 0)
(-5.28719e-05 9.33576e-06 0)
(-5.54914e-05 9.71348e-06 0)
(-5.82135e-05 1.01061e-05 0)
(-6.10434e-05 1.05144e-05 0)
(-6.3986e-05 1.09381e-05 0)
(-6.70451e-05 1.13792e-05 0)
(-7.02265e-05 1.18367e-05 0)
(-7.35347e-05 1.23103e-05 0)
(-7.69743e-05 1.27993e-05 0)
(-8.05498e-05 1.33022e-05 0)
(-8.42646e-05 1.38172e-05 0)
(-8.8123e-05 1.43431e-05 0)
(-9.21281e-05 1.48781e-05 0)
(-9.62829e-05 1.54207e-05 0)
(-0.000100589 1.59697e-05 0)
(-0.000105049 1.65232e-05 0)
(-0.000109664 1.70804e-05 0)
(-0.000114433 1.76405e-05 0)
(-0.000119359 1.82023e-05 0)
(-0.00012444 1.87648e-05 0)
(-0.000129677 1.93274e-05 0)
(-0.00013507 1.98896e-05 0)
(-0.000140618 2.04512e-05 0)
(-0.00014632 2.10125e-05 0)
(-0.000152177 2.15735e-05 0)
(-0.000158188 2.21341e-05 0)
(-0.000164354 2.26944e-05 0)
(-0.000170674 2.32541e-05 0)
(-0.000177148 2.38127e-05 0)
(-0.000183776 2.43706e-05 0)
(-0.000190558 2.49284e-05 0)
(-0.000197495 2.5486e-05 0)
(-0.000204587 2.60432e-05 0)
(-0.000211834 2.65997e-05 0)
(-0.000219235 2.71547e-05 0)
(-0.000226792 2.7707e-05 0)
(-0.000234502 2.82552e-05 0)
(-0.000242367 2.87973e-05 0)
(-0.000250384 2.93304e-05 0)
(-0.000258552 2.98515e-05 0)
(-0.000266869 3.03571e-05 0)
(-0.000275332 3.08433e-05 0)
(-0.000283937 3.13048e-05 0)
(-0.000292676 3.17354e-05 0)
(-0.000301543 3.21288e-05 0)
(-0.00031053 3.24777e-05 0)
(-0.000319625 3.27735e-05 0)
(-0.000328815 3.30055e-05 0)
(-0.00033808 3.31613e-05 0)
(-0.000347402 3.32274e-05 0)
(-0.000356756 3.31892e-05 0)
(-0.000366113 3.30302e-05 0)
(-0.000375442 3.27316e-05 0)
(-0.000384699 3.22717e-05 0)
(-0.00039385 3.16277e-05 0)
(-0.000402815 3.07694e-05 0)
(-0.000411578 2.96632e-05 0)
(-0.000419973 2.82218e-05 0)
(-0.000428012 2.62747e-05 0)
(-0.000435286 2.34286e-05 0)
(-0.000441641 1.93264e-05 0)
(-1.06859e-07 1.53513e-06 0)
(-8.14412e-07 2.81148e-06 0)
(-1.67504e-06 3.12175e-06 0)
(-2.56565e-06 3.20396e-06 0)
(-3.46463e-06 3.23521e-06 0)
(-4.36548e-06 3.25019e-06 0)
(-5.26652e-06 3.26418e-06 0)
(-6.16656e-06 3.28219e-06 0)
(-7.06657e-06 3.3061e-06 0)
(-7.96751e-06 3.33771e-06 0)
(-8.87125e-06 3.37875e-06 0)
(-9.78014e-06 3.43071e-06 0)
(-1.06968e-05 3.49501e-06 0)
(-1.16243e-05 3.57303e-06 0)
(-1.25665e-05 3.66606e-06 0)
(-1.35276e-05 3.77551e-06 0)
(-1.45119e-05 3.90249e-06 0)
(-1.55242e-05 4.04722e-06 0)
(-1.65691e-05 4.20992e-06 0)
(-1.76515e-05 4.39087e-06 0)
(-1.87761e-05 4.58923e-06 0)
(-1.99477e-05 4.80437e-06 0)
(-2.11708e-05 5.03547e-06 0)
(-2.24496e-05 5.28141e-06 0)
(-2.37882e-05 5.54125e-06 0)
(-2.51899e-05 5.81367e-06 0)
(-2.66579e-05 6.09783e-06 0)
(-2.8195e-05 6.39249e-06 0)
(-2.98034e-05 6.69685e-06 0)
(-3.14851e-05 7.0097e-06 0)
(-3.32418e-05 7.33075e-06 0)
(-3.5075e-05 7.65929e-06 0)
(-3.6986e-05 7.99538e-06 0)
(-3.89763e-05 8.33909e-06 0)
(-4.10478e-05 8.69126e-06 0)
(-4.32024e-05 9.05258e-06 0)
(-4.54427e-05 9.42502e-06 0)
(-4.77711e-05 9.80884e-06 0)
(-5.01907e-05 1.02064e-05 0)
(-5.27048e-05 1.06189e-05 0)
(-5.53174e-05 1.10471e-05 0)
(-5.80319e-05 1.14922e-05 0)
(-6.0854e-05 1.19552e-05 0)
(-6.37888e-05 1.24362e-05 0)
(-6.68399e-05 1.2937e-05 0)
(-7.00136e-05 1.34569e-05 0)
(-7.33142e-05 1.39952e-05 0)
(-7.67467e-05 1.45511e-05 0)
(-8.03153e-05 1.51228e-05 0)
(-8.40239e-05 1.57088e-05 0)
(-8.78766e-05 1.63075e-05 0)
(-9.18769e-05 1.69168e-05 0)
(-9.60276e-05 1.75349e-05 0)
(-0.000100331 1.81604e-05 0)
(-0.000104788 1.87911e-05 0)
(-0.0001094 1.94259e-05 0)
(-0.000114169 2.00639e-05 0)
(-0.000119093 2.07036e-05 0)
(-0.000124174 2.1344e-05 0)
(-0.000129411 2.19845e-05 0)
(-0.000134803 2.26242e-05 0)
(-0.00014035 2.32631e-05 0)
(-0.000146052 2.39016e-05 0)
(-0.000151908 2.45399e-05 0)
(-0.000157919 2.51777e-05 0)
(-0.000164084 2.58151e-05 0)
(-0.000170403 2.64517e-05 0)
(-0.000176875 2.70871e-05 0)
(-0.000183501 2.7722e-05 0)
(-0.000190281 2.83571e-05 0)
(-0.000197217 2.89921e-05 0)
(-0.000204307 2.96269e-05 0)
(-0.000211553 3.0261e-05 0)
(-0.000218955 3.08937e-05 0)
(-0.000226512 3.15235e-05 0)
(-0.000234224 3.21491e-05 0)
(-0.000242092 3.27682e-05 0)
(-0.000250113 3.33778e-05 0)
(-0.000258287 3.39745e-05 0)
(-0.000266613 3.45547e-05 0)
(-0.000275087 3.51135e-05 0)
(-0.000283705 3.56451e-05 0)
(-0.000292462 3.61428e-05 0)
(-0.000301352 3.65995e-05 0)
(-0.000310366 3.7007e-05 0)
(-0.000319494 3.73551e-05 0)
(-0.000328721 3.76316e-05 0)
(-0.000338033 3.7823e-05 0)
(-0.000347408 3.79137e-05 0)
(-0.000356825 3.78872e-05 0)
(-0.000366255 3.77248e-05 0)
(-0.000375668 3.7405e-05 0)
(-0.000385021 3.6903e-05 0)
(-0.000394281 3.61923e-05 0)
(-0.00040337 3.52379e-05 0)
(-0.000412273 3.39987e-05 0)
(-0.000420825 3.23744e-05 0)
(-0.000429038 3.01576e-05 0)
(-0.0004365 2.68892e-05 0)
(-0.000443041 2.21387e-05 0)
(-1.04662e-07 1.75892e-06 0)
(-8.12112e-07 3.20853e-06 0)
(-1.67205e-06 3.55861e-06 0)
(-2.56268e-06 3.65028e-06 0)
(-3.46173e-06 3.68449e-06 0)
(-4.36158e-06 3.69984e-06 0)
(-5.26086e-06 3.71342e-06 0)
(-6.15824e-06 3.73106e-06 0)
(-7.05473e-06 3.75502e-06 0)
(-7.95134e-06 3.78736e-06 0)
(-8.84989e-06 3.83019e-06 0)
(-9.75274e-06 3.88522e-06 0)
(-1.06626e-05 3.95399e-06 0)
(-1.15826e-05 4.03823e-06 0)
(-1.25166e-05 4.1396e-06 0)
(-1.34691e-05 4.25958e-06 0)
(-1.44446e-05 4.3993e-06 0)
(-1.54476e-05 4.55917e-06 0)
(-1.64831e-05 4.73946e-06 0)
(-1.75562e-05 4.94038e-06 0)
(-1.86716e-05 5.16116e-06 0)
(-1.98344e-05 5.40112e-06 0)
(-2.10493e-05 5.65914e-06 0)
(-2.23206e-05 5.93419e-06 0)
(-2.36522e-05 6.22495e-06 0)
(-2.50479e-05 6.52991e-06 0)
(-2.65105e-05 6.84815e-06 0)
(-2.80429e-05 7.17804e-06 0)
(-2.96472e-05 7.51865e-06 0)
(-3.13252e-05 7.86865e-06 0)
(-3.30782e-05 8.22749e-06 0)
(-3.49077e-05 8.5946e-06 0)
(-3.68147e-05 8.96981e-06 0)
(-3.88009e-05 9.35367e-06 0)
(-4.0868e-05 9.74664e-06 0)
(-4.30177e-05 1.01501e-05 0)
(-4.52524e-05 1.05657e-05 0)
(-4.75744e-05 1.0994e-05 0)
(-4.99867e-05 1.14378e-05 0)
(-5.24925e-05 1.18981e-05 0)
(-5.50959e-05 1.23764e-05 0)
(-5.78011e-05 1.2874e-05 0)
(-6.0614e-05 1.33917e-05 0)
(-6.35396e-05 1.39301e-05 0)
(-6.65815e-05 1.44906e-05 0)
(-6.97458e-05 1.50727e-05 0)
(-7.30373e-05 1.56759e-05 0)
(-7.6461e-05 1.62989e-05 0)
(-8.00216e-05 1.69399e-05 0)
(-8.37229e-05 1.75972e-05 0)
(-8.75693e-05 1.82691e-05 0)
(-9.15641e-05 1.89531e-05 0)
(-9.57104e-05 1.96473e-05 0)
(-0.00010001 2.03497e-05 0)
(-0.000104465 2.10578e-05 0)
(-0.000109075 2.17706e-05 0)
(-0.000113842 2.24867e-05 0)
(-0.000118766 2.32047e-05 0)
(-0.000123847 2.39232e-05 0)
(-0.000129084 2.46415e-05 0)
(-0.000134476 2.53588e-05 0)
(-0.000140024 2.60751e-05 0)
(-0.000145726 2.67908e-05 0)
(-0.000151583 2.75064e-05 0)
(-0.000157594 2.82215e-05 0)
(-0.000163759 2.89355e-05 0)
(-0.000170077 2.96484e-05 0)
(-0.000176547 3.03605e-05 0)
(-0.000183172 3.10727e-05 0)
(-0.000189952 3.17851e-05 0)
(-0.000196886 3.24977e-05 0)
(-0.000203976 3.32103e-05 0)
(-0.000211221 3.39223e-05 0)
(-0.000218623 3.46329e-05 0)
(-0.000226181 3.53407e-05 0)
(-0.000233896 3.60443e-05 0)
(-0.000241767 3.6741e-05 0)
(-0.000249793 3.74281e-05 0)
(-0.000257974 3.81015e-05 0)
(-0.000266309 3.87572e-05 0)
(-0.000274795 3.93901e-05 0)
(-0.000283429 3.99937e-05 0)
(-0.000292205 4.05606e-05 0)
(-0.000301119 4.1083e-05 0)
(-0.000310162 4.15515e-05 0)
(-0.000319324 4.19549e-05 0)
(-0.000328593 4.22793e-05 0)
(-0.000337953 4.251e-05 0)
(-0.000347386 4.26298e-05 0)
(-0.000356871 4.26202e-05 0)
(-0.00036638 4.246e-05 0)
(-0.000375884 4.21252e-05 0)
(-0.000385342 4.15879e-05 0)
(-0.000394723 4.08178e-05 0)
(-0.000403949 3.97756e-05 0)
(-0.000413009 3.84126e-05 0)
(-0.000421736 3.66144e-05 0)
(-0.000430146 3.4137e-05 0)
(-0.000437821 3.0449e-05 0)
(-0.00044457 2.50428e-05 0)
(-1.023e-07 1.9815e-06 0)
(-8.09554e-07 3.60526e-06 0)
(-1.6685e-06 3.99512e-06 0)
(-2.55924e-06 4.09683e-06 0)
(-3.45859e-06 4.13346e-06 0)
(-4.35733e-06 4.14876e-06 0)
(-5.25461e-06 4.16147e-06 0)
(-6.14898e-06 4.17825e-06 0)
(-7.04144e-06 4.20181e-06 0)
(-7.93313e-06 4.23447e-06 0)
(-8.82585e-06 4.2786e-06 0)
(-9.72182e-06 4.33623e-06 0)
(-1.06238e-05 4.40912e-06 0)