/*--------------------------------*- C++ -*----------------------------------*\
| =========                 |                                                 |
| \\      /  F ield         | OpenFOAM: The Open Source CFD Toolbox           |
|  \\    /   O peration     | Version:  2.4.0                                 |
|   \\  /    A nd           | Web:      www.OpenFOAM.org                      |
|    \\/     M anipulation  |                                                 |
\*---------------------------------------------------------------------------*/
FoamFile
{
    version     2.0;
    format      ascii;
    class       surfaceScalarField;
    location    "0.1";
    object      phi;
}
// * * * * * * * * * * * * * * * * * * * * * * * * * * * * * * * * * * * * * //

dimensions      [0 3 -1 0 0 0 0];

internalField   nonuniform List<scalar> 
4700
(
-9.25846e-12
9.25846e-12
-1.84893e-11
9.23851e-12
-2.76752e-11
9.19287e-12
-3.67895e-11
9.12268e-12
-4.58051e-11
9.02563e-12
-5.46922e-11
8.89847e-12
-6.34172e-11
8.73769e-12
-7.19432e-11
8.53984e-12
-8.02295e-11
8.30176e-12
-8.82325e-11
8.02067e-12
-9.59063e-11
7.69433e-12
-1.03204e-10
7.32114e-12
-1.10077e-10
6.90035e-12
-1.1648e-10
6.43218e-12
-1.22368e-10
5.91806e-12
-1.27697e-10
5.36073e-12
-1.32432e-10
4.76441e-12
-1.36539e-10
4.13462e-12
-1.39991e-10
3.4778e-12
2.79891e-12
-1.42766e-10
-9.27678e-12
1.85427e-11
-1.85273e-11
1.85043e-11
-2.77325e-11
1.84145e-11
-3.68667e-11
1.82759e-11
-4.59029e-11
1.80834e-11
-5.48114e-11
1.78307e-11
-6.35587e-11
1.75111e-11
-7.21076e-11
1.71178e-11
-8.04173e-11
1.66445e-11
-8.84441e-11
1.60853e-11
-9.61419e-11
1.54352e-11
-1.03463e-10
1.46905e-11
-1.1036e-10
1.38491e-11
-1.16785e-10
1.29113e-11
-1.22694e-10
1.18801e-11
-1.28043e-10
1.07618e-11
-1.32796e-10
9.56528e-12
-1.36918e-10
8.30226e-12
-1.40383e-10
6.98623e-12
5.63202e-12
-1.43168e-10
-9.28804e-12
2.78377e-11
-1.85497e-11
2.77814e-11
-2.77672e-11
2.76481e-11
-3.69148e-11
2.74417e-11
-4.59661e-11
2.71545e-11
-5.48914e-11
2.6777e-11
-6.36571e-11
2.62993e-11
-7.22259e-11
2.57114e-11
-8.05572e-11
2.50034e-11
-8.86067e-11
2.41662e-11
-9.63281e-11
2.3192e-11
-1.03674e-10
2.20748e-11
-1.10595e-10
2.08115e-11
-1.17043e-10
1.94025e-11
-1.22974e-10
1.78528e-11
-1.28343e-10
1.61716e-11
-1.33111e-10
1.43728e-11
-1.37247e-10
1.24741e-11
-1.40721e-10
1.04959e-11
8.46108e-12
-1.43512e-10
-9.30461e-12
3.71502e-11
-1.85831e-11
3.7077e-11
-2.78188e-11
3.69013e-11
-3.69866e-11
3.66283e-11
-4.60605e-11
3.62478e-11
-5.50108e-11
3.57472e-11
-6.38041e-11
3.51134e-11
-7.2403e-11
3.43326e-11
-8.07665e-11
3.33914e-11
-8.88503e-11
3.22773e-11
-9.66075e-11
3.09793e-11
-1.03989e-10
2.94894e-11
-1.10947e-10
2.78032e-11
-1.17431e-10
2.59215e-11
-1.23394e-10
2.38508e-11
-1.28792e-10
2.16038e-11
-1.33586e-10
1.9199e-11
-1.37741e-10
1.666e-11
-1.4123e-10
1.40145e-11
1.12932e-11
-1.44029e-10
-9.32624e-12
4.64858e-11
-1.8627e-11
4.63969e-11
-2.7887e-11
4.618e-11
-3.70818e-11
4.58422e-11
-4.61857e-11
4.53706e-11
-5.51693e-11
4.47496e-11
-6.39993e-11
4.39625e-11
-7.26383e-11
4.29917e-11
-8.1045e-11
4.18199e-11
-8.91748e-11
4.04307e-11
-9.698e-11
3.88101e-11
-1.04411e-10
3.69475e-11
-1.11417e-10
3.48375e-11
-1.17948e-10
3.2481e-11
-1.23956e-10
2.98863e-11
-1.29393e-10
2.70693e-11
-1.34221e-10
2.40531e-11
-1.38403e-10
2.08676e-11
-1.41911e-10
1.75475e-11
1.4132e-11
-1.44721e-10
-9.35266e-12
5.58491e-11
-1.86813e-11
5.57455e-11
-2.79714e-11
5.5489e-11
-3.71997e-11
5.50888e-11
-4.63409e-11
5.45292e-11
-5.53661e-11
5.37916e-11
-6.4242e-11
5.28553e-11
-7.29313e-11
5.16986e-11
-8.13923e-11
5.02997e-11
-8.95799e-11
4.86383e-11
-9.74456e-11
4.66968e-11
-1.04938e-10
4.44621e-11
-1.12006e-10
4.19275e-11
-1.18597e-10
3.9094e-11
-1.2466e-10
3.59714e-11
-1.30147e-10
3.25789e-11
-1.35017e-10
2.89443e-11
-1.39233e-10
2.51037e-11
-1.42764e-10
2.10997e-11
1.69801e-11
-1.45589e-10
-9.38361e-12
6.52441e-11
-1.87454e-11
6.51266e-11
-2.80715e-11
6.48326e-11
-3.73396e-11
6.43731e-11
-4.65253e-11
6.37299e-11
-5.56002e-11
6.28807e-11
-6.45312e-11
6.18006e-11
-7.3281e-11
6.04633e-11
-8.18077e-11
5.88422e-11
-9.00653e-11
5.69124e-11
-9.80043e-11
5.46526e-11
-1.05572e-10
5.20468e-11
-1.12715e-10
4.90868e-11
-1.19378e-10
4.57736e-11
-1.25508e-10
4.21185e-11
-1.31056e-10
3.81437e-11
-1.35977e-10
3.3882e-11
-1.40234e-10
2.9376e-11
-1.43794e-10
2.46763e-11
1.984e-11
-1.46636e-10
-9.41889e-12
7.46741e-11
-1.88189e-11
7.45438e-11
-2.81864e-11
7.42148e-11
-3.75005e-11
7.37002e-11
-4.67377e-11
7.29788e-11
-5.58702e-11
7.20244e-11
-6.48656e-11
7.08074e-11
-7.36863e-11
6.92962e-11
-8.22902e-11
6.74589e-11
-9.06303e-11
6.52657e-11
-9.86558e-11
6.26908e-11
-1.06312e-10
5.97155e-11
-1.13543e-10
5.63295e-11
-1.20291e-10
5.25336e-11
-1.26502e-10
4.83404e-11
-1.32121e-10
4.37753e-11
-1.37104e-10
3.88762e-11
-1.41408e-10
3.36924e-11
-1.45003e-10
2.8283e-11
2.27149e-11
-1.47864e-10
-9.45827e-12
8.41422e-11
-1.89012e-11
8.40001e-11
-2.83151e-11
8.36397e-11
-3.76809e-11
8.30753e-11
-4.69763e-11
8.22824e-11
-5.61745e-11
8.12306e-11
-6.52434e-11
7.98849e-11
-7.41456e-11
7.82078e-11
-8.28385e-11
7.61615e-11
-9.12741e-11
7.37108e-11
-9.93997e-11
7.08253e-11
-1.07159e-10
6.74825e-11
-1.14492e-10
6.36702e-11
-1.2134e-10
5.93884e-11
-1.27643e-10
5.4651e-11
-1.33346e-10
4.94863e-11
-1.384e-10
4.39377e-11
-1.42761e-10
3.80618e-11
-1.46396e-10
3.19263e-11
2.56082e-11
-1.49278e-10
-9.50143e-12
9.36513e-11
-1.89913e-11
9.34993e-11
-2.84562e-11
9.31115e-11
-3.78791e-11
9.25037e-11
-4.72393e-11
9.16475e-11
-5.6511e-11
9.05074e-11
-6.56627e-11
8.90424e-11
-7.46572e-11
8.72086e-11
-8.34512e-11
8.49619e-11
-9.19955e-11
8.22609e-11
-1.00235e-10
7.907e-11
-1.08112e-10
7.53626e-11
-1.15563e-10
7.1124e-11
-1.22524e-10
6.6353e-11
-1.28934e-10
6.10645e-11
-1.34733e-10
5.529e-11
-1.39869e-10
4.90783e-11
-1.44295e-10
4.24937e-11
-1.47975e-10
3.5613e-11
2.85238e-11
-1.50883e-10
-9.54798e-12
1.03204e-10
-1.90883e-11
1.03045e-10
-2.86082e-11
1.02635e-10
-3.80932e-11
1.01991e-10
-4.75244e-11
1.01081e-10
-5.68773e-11
9.98626e-11
-6.61212e-11
9.82891e-11
-7.5219e-11
9.63093e-11
-8.41265e-11
9.38721e-11
-9.27933e-11
9.09293e-11
-1.01162e-10
8.74396e-11
-1.09171e-10
8.33716e-11
-1.16755e-10
7.87072e-11
-1.23846e-10
7.34438e-11
-1.30378e-10
6.75969e-11
-1.36286e-10
6.1201e-11
-1.41515e-10
5.43106e-11
-1.46015e-10
4.69984e-11
-1.49747e-10
3.93506e-11
3.14661e-11
-1.52685e-10
-9.59733e-12
1.12805e-10
-1.91908e-11
1.1264e-10
-2.87692e-11
1.12214e-10
-3.83209e-11
1.11543e-10
-4.7829e-11
1.10589e-10
-5.72707e-11
1.09304e-10
-6.66162e-11
1.07634e-10
-7.58283e-11
1.05521e-10
-8.48623e-11
1.02905e-10
-9.36657e-11
9.97303e-11
-1.02179e-10
9.59498e-11
-1.10338e-10
9.15263e-11
-1.18071e-10
8.64374e-11
-1.25308e-10
8.06785e-11
-1.31977e-10
7.42651e-11
-1.38009e-10
6.72348e-11
-1.43343e-10
5.96477e-11
-1.47927e-10
5.15863e-11
-1.51718e-10
4.31465e-11
3.44393e-11
-1.54688e-10
-9.64878e-12
1.22454e-10
-1.92973e-11
1.22288e-10
-2.8937e-11
1.21853e-10
-3.85595e-11
1.21164e-10
-4.81502e-11
1.20177e-10
-5.76882e-11
1.18839e-10
-6.71447e-11
1.17087e-10
-7.64824e-11
1.14854e-10
-8.56559e-11
1.12073e-10
-9.46109e-11
1.08679e-10
-1.03285e-10
1.04618e-10
-1.1161e-10
9.98452e-11
-1.19511e-10
9.43337e-11
-1.26911e-10
8.80761e-11
-1.33734e-10
8.10874e-11
-1.39906e-10
7.34077e-11
-1.45358e-10
6.51033e-11
-1.50036e-10
5.6268e-11
-1.53895e-10
4.7008e-11
3.74469e-11
-1.56901e-10
-9.70153e-12
1.32156e-10
-1.94062e-11
1.31991e-10
-2.91093e-11
1.31554e-10
-3.88061e-11
1.30858e-10
-4.84849e-11
1.29852e-10
-5.81264e-11
1.28476e-10
-6.7703e-11
1.26658e-10
-7.71779e-11
1.24322e-10
-8.65044e-11
1.21391e-10
-9.56263e-11
1.17793e-10
-1.04478e-10
1.13463e-10
-1.12988e-10
1.08348e-10
-1.21075e-10
1.02417e-10
-1.28659e-10
9.56569e-11
-1.35654e-10
8.80829e-11
-1.41982e-10
7.97367e-11
-1.47567e-10
7.06906e-11
-1.52351e-10
6.10543e-11
-1.56285e-10
5.09428e-11
4.04924e-11
-1.59331e-10
-9.75475e-12
1.41909e-10
-1.95155e-11
1.41749e-10
-2.92834e-11
1.41319e-10
-3.90576e-11
1.40628e-10
-4.88291e-11
1.39619e-10
-5.85811e-11
1.38221e-10
-6.82871e-11
1.36356e-10
-7.79106e-11
1.33936e-10
-8.7404e-11
1.30876e-10
-9.67091e-11
1.2709e-10
-1.05757e-10
1.22504e-10
-1.14471e-10
1.17057e-10
-1.22765e-10
1.10708e-10
-1.30552e-10
1.03442e-10
-1.37741e-10
9.52718e-11
-1.44243e-10
8.62397e-11
-1.49976e-10
7.64235e-11
-1.54879e-10
6.59567e-11
-1.58898e-10
5.49599e-11
4.35792e-11
-1.61987e-10
-9.80774e-12
1.51716e-10
-1.96232e-11
1.51561e-10
-2.94563e-11
1.51148e-10
-3.931e-11
1.50476e-10
-4.91787e-11
1.49481e-10
-5.90476e-11
1.48082e-10
-6.8892e-11
1.46192e-10
-7.86758e-11
1.43712e-10
-8.83506e-11
1.40543e-10
-9.78557e-11
1.36589e-10
-1.07119e-10
1.31763e-10
-1.16058e-10
1.25993e-10
-1.24582e-10
1.1923e-10
-1.32595e-10
1.11454e-10
-1.39999e-10
1.02675e-10
-1.46697e-10
9.29369e-11
-1.52592e-10
8.23164e-11
-1.57628e-10
7.09889e-11
-1.61743e-10
5.90705e-11
4.67127e-11
-1.64882e-10
-9.86025e-12
1.61575e-10
-1.97267e-11
1.61424e-10
-2.96243e-11
1.61041e-10
-3.95592e-11
1.60406e-10
-4.95285e-11
1.59444e-10
-5.95205e-11
1.58068e-10
-6.95122e-11
1.56177e-10
-7.94682e-11
1.53662e-10
-8.93392e-11
1.5041e-10
-9.90624e-11
1.46309e-10
-1.08562e-10
1.4126e-10
-1.17749e-10
1.35179e-10
-1.26526e-10
1.28007e-10
-1.34789e-10
1.19717e-10
-1.42433e-10
1.10317e-10
-1.49352e-10
9.98526e-11
-1.55424e-10
8.83838e-11
-1.60608e-10
7.61671e-11
-1.64832e-10
6.32896e-11
4.9902e-11
-1.6803e-10
-9.9102e-12
1.71483e-10
-1.98216e-11
1.71331e-10
-2.97816e-11
1.70996e-10
-3.97977e-11
1.70417e-10
-4.98702e-11
1.69511e-10
-5.99903e-11
1.68183e-10
-7.01377e-11
1.66321e-10
-8.02776e-11
1.638e-10
-9.03603e-11
1.60492e-10
-1.0032e-10
1.5627e-10
-1.10078e-10
1.51018e-10
-1.19538e-10
1.44639e-10
-1.28594e-10
1.37064e-10
-1.37135e-10
1.28256e-10
-1.45046e-10
1.18225e-10
-1.52216e-10
1.07019e-10
-1.58475e-10
9.46382e-11
-1.63824e-10
8.15112e-11
-1.68176e-10
6.76368e-11
5.31583e-11
-1.71441e-10
-9.99953e-12
1.8148e-10
-1.99406e-11
1.81267e-10
-2.99749e-11
1.81026e-10
-4.00854e-11
1.80524e-10
-5.02738e-11
1.79697e-10
-6.05348e-11
1.78444e-10
-7.08503e-11
1.76637e-10
-8.11866e-11
1.74138e-10
-9.14929e-11
1.70801e-10
-1.01701e-10
1.66481e-10
-1.11727e-10
1.61046e-10
-1.21468e-10
1.54382e-10
-1.30811e-10
1.46407e-10
-1.39633e-10
1.37078e-10
-1.47811e-10
1.26402e-10
-1.55246e-10
1.14452e-10
-1.6166e-10
1.0105e-10
-1.67167e-10
8.7016e-11
-1.71656e-10
7.21224e-11
5.64682e-11
-1.74972e-10
-1.19768e-11
1.93453e-10
-2.40479e-11
1.93332e-10
-3.62252e-11
1.93198e-10
-4.85348e-11
1.9283e-10
-6.1002e-11
1.92164e-10
-7.36357e-11
1.9108e-10
-8.64246e-11
1.89431e-10
-9.93352e-11
1.87054e-10
-1.1231e-10
1.83781e-10
-1.25266e-10
1.79443e-10
-1.38097e-10
1.7388e-10
-1.5067e-10
1.66958e-10
-1.62836e-10
1.58574e-10
-1.74427e-10
1.4867e-10
-1.85271e-10
1.37246e-10
-1.95304e-10
1.24487e-10
-2.03964e-10
1.09711e-10
-2.1157e-10
9.46213e-11
-2.17878e-10
7.84283e-11
-2.22781e-10
6.13683e-11
-1.43876e-10
1.13974e-12
-1.44817e-10
9.66975e-13
-1.45585e-10
7.93668e-13
-1.46182e-10
6.20121e-13
-1.46607e-10
4.468e-13
-1.4686e-10
2.74238e-13
-1.46943e-10
1.03035e-13
-1.46856e-10
-6.6247e-14
-1.46601e-10
-2.34282e-13
-1.4618e-10
-3.97808e-13
-1.45597e-10
-5.58034e-13
-1.44853e-10
-7.18333e-13
-1.43956e-10
-8.7184e-13
-1.42907e-10
-1.02369e-12
-1.4171e-10
-1.17323e-12
-1.40369e-10
-1.31713e-12
-1.38887e-10
-1.45836e-12
-1.37268e-10
-1.59428e-12
-1.35517e-10
-1.72528e-12
-1.85106e-12
-1.33641e-10
-1.44281e-10
2.301e-12
-1.45224e-10
1.95431e-12
-1.45995e-10
1.60601e-12
-1.46593e-10
1.2575e-12
-1.47019e-10
9.09972e-13
-1.47272e-10
5.64599e-13
-1.47354e-10
2.22424e-13
-1.47265e-10
-1.15779e-13
-1.47009e-10
-4.48587e-13
-1.46585e-10
-7.77421e-13
-1.45998e-10
-1.10038e-12
-1.45253e-10
-1.4178e-12
-1.44351e-10
-1.72903e-12
-1.43297e-10
-2.03387e-12
-1.42097e-10
-2.33075e-12
-1.4075e-10
-2.621e-12
-1.39262e-10
-2.90204e-12
-1.37636e-10
-3.17485e-12
-1.35878e-10
-3.44002e-12
-3.69848e-12
-1.33998e-10
-1.44628e-10
3.45598e-12
-1.45572e-10
2.93507e-12
-1.46343e-10
2.41168e-12
-1.46941e-10
1.8882e-12
-1.47364e-10
1.36644e-12
-1.47614e-10
8.48101e-13
-1.47692e-10
3.34626e-13
-1.47599e-10
-1.7287e-13
-1.47337e-10
-6.73471e-13
-1.46908e-10
-1.16706e-12
-1.46316e-10
-1.65286e-12
-1.45564e-10
-2.13007e-12
-1.44656e-10
-2.59811e-12
-1.43596e-10
-3.05583e-12
-1.42386e-10
-3.50183e-12
-1.41031e-10
-3.93709e-12
-1.39535e-10
-4.35973e-12
-1.37902e-10
-4.77084e-12
-1.36137e-10
-5.17096e-12
-5.56003e-12
-1.34249e-10
-1.45149e-10
4.61063e-12
-1.46095e-10
3.91446e-12
-1.46867e-10
3.21528e-12
-1.47463e-10
2.51624e-12
-1.47883e-10
1.81968e-12
-1.48128e-10
1.12771e-12
-1.482e-10
4.42089e-13
-1.481e-10
-2.35841e-13
-1.4783e-10
-9.04997e-13
-1.47394e-10
-1.56475e-12
-1.46793e-10
-2.21411e-12
-1.46032e-10
-2.85185e-12
-1.45114e-10
-3.47702e-12
-1.44042e-10
-4.08823e-12
-1.42821e-10
-4.68364e-12
-1.41454e-10
-5.26549e-12
-1.39946e-10
-5.83095e-12
-1.38302e-10
-6.38141e-12
-1.36526e-10
-6.91653e-12
-7.43554e-12
-1.34625e-10
-1.45846e-10
5.76588e-12
-1.46795e-10
4.89289e-12
-1.47566e-10
4.01667e-12
-1.48159e-10
3.14095e-12
-1.48574e-10
2.26849e-12
-1.48813e-10
1.40171e-12
-1.48878e-10
5.42636e-13
-1.48769e-10
-3.07114e-13
-1.4849e-10
-1.14608e-12
-1.48043e-10
-1.9732e-12
-1.47431e-10
-2.78701e-12
-1.46657e-10
-3.58598e-12
-1.45725e-10
-4.36887e-12
-1.44639e-10
-5.13426e-12
-1.43402e-10
-5.88096e-12
-1.4202e-10
-6.60994e-12
-1.40497e-10
-7.31949e-12
-1.38837e-10
-8.00971e-12
-1.37044e-10
-8.67962e-12
-9.32867e-12
-1.35127e-10
-1.46719e-10
6.92205e-12
-1.47671e-10
5.87004e-12
-1.48442e-10
4.81483e-12
-1.49032e-10
3.76062e-12
-1.49441e-10
2.71045e-12
-1.49672e-10
1.66702e-12
-1.49727e-10
6.32607e-13
-1.49608e-10
-3.90777e-13
-1.49317e-10
-1.40123e-12
-1.48857e-10
-2.39708e-12
-1.4823e-10
-3.37651e-12
-1.4744e-10
-4.33775e-12
-1.4649e-10
-5.27946e-12
-1.45386e-10
-6.20034e-12
-1.4413e-10
-7.09947e-12
-1.42729e-10
-7.97677e-12
-1.41187e-10
-8.83099e-12
-1.39507e-10
-9.661e-12
-1.37693e-10
-1.04659e-11
-1.12458e-11
-1.35755e-10
-1.47772e-10
8.07934e-12
-1.48726e-10
6.84532e-12
-1.49496e-10
5.6083e-12
-1.50082e-10
4.37285e-12
-1.50485e-10
3.14226e-12
-1.50707e-10
1.91947e-12
-1.50751e-10
7.07159e-13
-1.50618e-10
-4.92236e-13
-1.50313e-10
-1.67639e-12
-1.49836e-10
-2.84273e-12
-1.49191e-10
-3.98949e-12
-1.48382e-10
-5.11461e-12
-1.47411e-10
-6.21677e-12
-1.46285e-10
-7.29468e-12
-1.45007e-10
-8.34728e-12
-1.43583e-10
-9.37356e-12
-1.42017e-10
-1.03727e-11
-1.40312e-10
-1.13426e-11
-1.38473e-10
-1.2283e-11
-1.31945e-11
-1.36509e-10
-1.49007e-10
9.23807e-12
-1.49963e-10
7.81809e-12
-1.50731e-10
6.39543e-12
-1.51312e-10
4.97494e-12
-1.51707e-10
3.56023e-12
-1.51919e-10
2.1546e-12
-1.5195e-10
7.61171e-13
-1.51803e-10
-6.17087e-13
-1.51479e-10
-1.97783e-12
-1.50983e-10
-3.31672e-12
-1.50316e-10
-4.63305e-12
-1.49484e-10
-5.92417e-12
-1.48489e-10
-7.18868e-12
-1.47338e-10
-8.42513e-12
-1.46033e-10
-9.63211e-12
-1.44582e-10
-1.08069e-11
-1.42987e-10
-1.19518e-11
-1.41252e-10
-1.30616e-11
-1.39384e-10
-1.41378e-11
-1.518e-11
-1.3739e-10
-1.50428e-10
1.03988e-11
-1.51386e-10
8.78797e-12
-1.52152e-10
7.17484e-12
-1.52727e-10
5.56466e-12
-1.53113e-10
3.96146e-12
-1.53313e-10
2.36902e-12
-1.53328e-10
7.90949e-13
-1.53163e-10
-7.69243e-13
-1.52818e-10
-2.30957e-12
-1.52299e-10
-3.82344e-12
-1.51608e-10
-5.31187e-12
-1.50748e-10
-6.77124e-12
-1.49726e-10
-8.19993e-12
-1.48545e-10
-9.59605e-12
-1.4721e-10
-1.09578e-11
-1.45725e-10
-1.22821e-11
-1.44096e-10
-1.35718e-11
-1.42328e-10
-1.48218e-11
-1.40426e-10
-1.60331e-11
-1.72043e-11
-1.38395e-10
-1.52039e-10
1.15623e-11
-1.52999e-10
9.75504e-12
-1.53762e-10
7.94602e-12
-1.5433e-10
6.14106e-12
-1.54706e-10
4.34486e-12
-1.54891e-10
2.56167e-12
-1.54888e-10
7.9551e-13
-1.54702e-10
-9.49833e-13
-1.54334e-10
-2.67159e-12
-1.53787e-10
-4.36409e-12
-1.53067e-10
-6.02698e-12
-1.52177e-10
-7.65681e-12
-1.51122e-10
-9.25137e-12
-1.49907e-10
-1.08082e-11
-1.48536e-10
-1.23252e-11
-1.47013e-10
-1.38005e-11
-1.45346e-10
-1.52343e-11
-1.4354e-10
-1.66241e-11
-1.41597e-10
-1.79694e-11
-1.92685e-11
-1.39523e-10
-1.53847e-10
1.27297e-11
-1.54808e-10
1.072e-11
-1.55567e-10
8.70932e-12
-1.56126e-10
6.70449e-12
-1.56489e-10
4.71093e-12
-1.56657e-10
2.73336e-12
-1.56634e-10
7.75967e-13
-1.56423e-10
-1.15747e-12
-1.56027e-10
-3.0635e-12
-1.5545e-10
-4.93757e-12
-1.54697e-10
-6.77771e-12
-1.53771e-10
-8.58049e-12
-1.52679e-10
-1.0343e-11
-1.51424e-10
-1.20622e-11
-1.50011e-10
-1.37359e-11
-1.48447e-10
-1.53626e-11
-1.46736e-10
-1.69415e-11
-1.44885e-10
-1.84708e-11
-1.42896e-10
-1.99494e-11
-2.13772e-11
-1.40776e-10
-1.55858e-10
1.39022e-11
-1.56818e-10
1.16833e-11
-1.57572e-10
9.46496e-12
-1.5812e-10
7.25497e-12
-1.58466e-10
5.05969e-12
-1.58614e-10
2.8842e-12
-1.58567e-10
7.32443e-13
-1.58328e-10
-1.39224e-12
-1.57901e-10
-3.48617e-12
-1.5729e-10
-5.54503e-12
-1.565e-10
-7.56587e-12
-1.55534e-10
-9.54484e-12
-1.54398e-10
-1.14782e-11
-1.53097e-10
-1.33625e-11
-1.51638e-10
-1.51952e-11
-1.50025e-10
-1.69746e-11
-1.48266e-10
-1.86993e-11
-1.46363e-10
-2.03681e-11
-1.44324e-10
-2.19809e-11
-2.35392e-11
-1.42155e-10
-1.58077e-10
1.508e-11
-1.59037e-10
1.26442e-11
-1.59782e-10
1.02111e-11
-1.60315e-10
7.78986e-12
-1.60642e-10
5.38802e-12
-1.60766e-10
3.0109e-12
-1.60692e-10
6.61475e-13
-1.60422e-10
-1.65812e-12
-1.59961e-10
-3.94435e-12
-1.59311e-10
-6.19212e-12
-1.58479e-10
-8.39799e-12
-1.57467e-10
-1.05575e-11
-1.56282e-10
-1.26658e-11
-1.5493e-10
-1.47186e-11
-1.53417e-10
-1.6713e-11
-1.5175e-10
-1.86464e-11
-1.49934e-10
-2.05176e-11
-1.47976e-10
-2.23265e-11
-1.45882e-10
-2.40745e-11
-2.57635e-11
-1.43659e-10
-1.60513e-10
1.62622e-11
-1.6147e-10
1.35999e-11
-1.62203e-10
1.09428e-11
-1.62717e-10
8.30265e-12
-1.63019e-10
5.68878e-12
-1.63115e-10
3.10669e-12
-1.63011e-10
5.56747e-13
-1.62708e-10
-1.96165e-12
-1.62209e-10
-4.44591e-12
-1.61517e-10
-6.88717e-12
-1.60638e-10
-9.28308e-12
-1.59576e-10
-1.16284e-11
-1.58335e-10
-1.39166e-11
-1.56925e-10
-1.61419e-11
-1.5535e-10
-1.83006e-11
-1.53621e-10
-2.03889e-11
-1.51743e-10
-2.24066e-11
-1.49724e-10
-2.43555e-11
-1.47571e-10
-2.62383e-11
-2.80563e-11
-1.45288e-10
-1.63176e-10
1.74471e-11
-1.64127e-10
1.45458e-11
-1.64843e-10
1.16529e-11
-1.65331e-10
8.78388e-12
-1.65601e-10
5.95227e-12
-1.65665e-10
3.16432e-12
-1.65529e-10
4.13383e-13
-1.65193e-10
-2.30661e-12
-1.6465e-10
-4.99859e-12
-1.63913e-10
-7.63627e-12
-1.62983e-10
-1.02275e-11
-1.61864e-10
-1.27653e-11
-1.60561e-10
-1.52388e-11
-1.59083e-10
-1.76406e-11
-1.57439e-10
-1.99666e-11
-1.55638e-10
-2.22094e-11
-1.53692e-10
-2.43723e-11
-1.51607e-10
-2.64599e-11
-1.49389e-10
-2.84754e-11
-3.04196e-11
-1.47039e-10
-1.66077e-10
1.86342e-11
-1.6702e-10
1.54786e-11
-1.67712e-10
1.23341e-11
-1.68162e-10
9.22242e-12
-1.68389e-10
6.16657e-12
-1.68416e-10
3.17907e-12
-1.68249e-10
2.32536e-13
-1.67885e-10
-2.68542e-12
-1.67288e-10
-5.61199e-12
-1.66504e-10
-8.43792e-12
-1.65522e-10
-1.12296e-11
-1.64336e-10
-1.39738e-11
-1.62964e-10
-1.66342e-11
-1.61407e-10
-1.92224e-11
-1.59681e-10
-2.17169e-11
-1.57801e-10
-2.41132e-11
-1.5578e-10
-2.64175e-11
-1.53623e-10
-2.86402e-11
-1.51333e-10
-3.07853e-11
-3.28542e-11
-1.48911e-10
-1.69232e-10
1.98262e-11
-1.70164e-10
1.63988e-11
-1.70824e-10
1.29809e-11
-1.71218e-10
9.6032e-12
-1.71376e-10
6.31044e-12
-1.71363e-10
3.1513e-12
-1.71259e-10
1.12764e-13
-1.7074e-10
-3.22036e-12
-1.70102e-10
-6.26714e-12
-1.69292e-10
-9.26665e-12
-1.68271e-10
-1.22695e-11
-1.66986e-10
-1.52797e-11
-1.65552e-10
-1.80902e-11
-1.63901e-10
-2.08962e-11
-1.62077e-10
-2.35635e-11
-1.60105e-10
-2.61082e-11
-1.58002e-10
-2.85445e-11
-1.55768e-10
-3.08973e-11
-1.53402e-10
-3.31702e-11
-3.53639e-11
-1.50905e-10
-1.72654e-10
2.10285e-11
-1.73574e-10
1.73097e-11
-1.74189e-10
1.35853e-11
-1.74489e-10
9.89237e-12
-1.74491e-10
6.30105e-12
-1.74285e-10
2.93351e-12
-1.74077e-10
-1.07202e-13
-1.73936e-10
-3.37366e-12
-1.73373e-10
-6.84287e-12
-1.72458e-10
-1.01955e-11
-1.71273e-10
-1.34685e-11
-1.70012e-10
-1.65555e-11
-1.68407e-10
-1.97104e-11
-1.66632e-10
-2.26875e-11
-1.64648e-10
-2.55653e-11
-1.62543e-10
-2.82308e-11
-1.60359e-10
-3.07473e-11
-1.58046e-10
-3.32272e-11
-1.55603e-10
-3.56284e-11
-3.79504e-11
-1.53027e-10
-1.76198e-10
2.22466e-11
-1.77124e-10
1.82279e-11
-1.77711e-10
1.41651e-11
-1.77918e-10
1.00923e-11
-1.77708e-10
6.0837e-12
-1.77172e-10
2.39005e-12
-1.77096e-10
-1.91129e-13
-1.76917e-10
-3.56085e-12
-1.76305e-10
-7.46308e-12
-1.75329e-10
-1.11797e-11
-1.74124e-10
-1.46827e-11
-1.72637e-10
-1.80516e-11
-1.71019e-10
-2.13372e-11
-1.69071e-10
-2.46448e-11
-1.66949e-10
-2.76962e-11
-1.64818e-10
-3.03702e-11
-1.62561e-10
-3.30124e-11
-1.60151e-10
-3.5643e-11
-1.57624e-10
-3.81599e-11
-4.0613e-11
-1.54962e-10
-2.24666e-10
2.41262e-11
-2.26182e-10
1.97365e-11
-2.2734e-10
1.53156e-11
-2.28144e-10
1.08898e-11
-2.28607e-10
6.53862e-12
-2.28759e-10
2.53504e-12
-2.28582e-10
-3.7699e-13
-2.28071e-10
-4.08009e-12
-2.27258e-10
-8.28557e-12
-2.26182e-10
-1.22656e-11
-2.24856e-10
-1.60166e-11
-2.23368e-10
-1.95462e-11
-2.21766e-10
-2.29443e-11
-2.1947e-10
-2.69436e-11
-2.16642e-10
-3.05258e-11
-2.14193e-10
-3.28189e-11
-2.11713e-10
-3.54923e-11
-2.08868e-10
-3.84874e-11
-2.05887e-10
-4.11412e-11
-2.02658e-10
-4.38388e-11
-1.2955e-10
-4.0733e-12
-1.24996e-10
-4.53676e-12
-1.20016e-10
-4.96489e-12
-1.14646e-10
-5.35748e-12
-1.08921e-10
-5.71495e-12
-1.02873e-10
-6.03785e-12
-9.65362e-11
-6.32696e-12
-8.99423e-11
-6.58366e-12
-8.31224e-11
-6.80991e-12
-7.61056e-11
-7.00794e-12
-6.89187e-11
-7.18005e-12
-6.15857e-11
-7.3279e-12
-5.41284e-11
-7.45255e-12
-4.65673e-11
-7.5552e-12
-3.89219e-11
-7.63784e-12
-3.12103e-11
-7.70346e-12
-2.34487e-11
-7.75479e-12
-1.56507e-11
-7.7928e-12
-7.82913e-12
-7.81698e-12
-7.82434e-12
-1.29894e-10
-8.14987e-12
-1.25325e-10
-9.07992e-12
-1.2033e-10
-9.938e-12
-1.14943e-10
-1.07243e-11
-1.092e-10
-1.14396e-11
-1.03135e-10
-1.20855e-11
-9.67795e-11
-1.26643e-11
-9.0167e-11
-1.31792e-11
-8.33282e-11
-1.36337e-11
-7.62927e-11
-1.40316e-11
-6.90867e-11
-1.43761e-11
-6.17346e-11
-1.46705e-11
-5.42579e-11
-1.49179e-11
-4.66776e-11
-1.51222e-11
-3.90134e-11
-1.52886e-11
-3.12835e-11
-1.54218e-11
-2.35036e-11
-1.55255e-11
-1.5687e-11
-1.56013e-11
-7.84606e-12
-1.56503e-11
-1.5668e-11
-1.30127e-10
-1.22492e-11
-1.2554e-10
-1.3645e-11
-1.20527e-10
-1.49322e-11
-1.15122e-10
-1.61116e-11
-1.09362e-10
-1.71843e-11
-1.0328e-10
-1.81528e-11
-9.69083e-11
-1.9021e-11
-9.02807e-11
-1.97934e-11
-8.34278e-11
-2.04751e-11
-7.63789e-11
-2.10711e-11
-6.91604e-11
-2.15864e-11
-6.17965e-11
-2.20259e-11
-5.43091e-11
-2.23952e-11
-4.67193e-11
-2.2701e-11
-3.90468e-11
-2.29508e-11
-3.13095e-11
-2.31511e-11
-2.35225e-11
-2.33063e-11
-1.56993e-11
-2.34193e-11
-7.85231e-12
-2.34929e-11
-2.35195e-11
-1.30476e-10
-1.63769e-11
-1.25862e-10
-1.82386e-11
-1.20821e-10
-1.99552e-11
-1.1539e-10
-2.15273e-11
-1.09604e-10
-2.29569e-11
-1.03497e-10
-2.42475e-11
-9.71014e-11
-2.5404e-11
-9.04511e-11
-2.64326e-11
-8.35768e-11
-2.73398e-11
-7.65077e-11
-2.8132e-11
-6.92703e-11
-2.8816e-11
-6.18888e-11
-2.93988e-11
-5.43855e-11
-2.98887e-11
-4.67817e-11
-3.02952e-11
-3.90969e-11
-3.06277e-11
-3.13483e-11
-3.08941e-11
-2.35508e-11
-3.10998e-11
-1.57177e-11
-3.12492e-11
-7.86175e-12
-3.13469e-11
-3.13818e-11
-1.30941e-10
-2.05421e-11
-1.26291e-10
-2.28706e-11
-1.21214e-10
-2.50164e-11
-1.15748e-10
-2.69806e-11
-1.09927e-10
-2.87661e-11
-1.03786e-10
-3.03774e-11
-9.73586e-11
-3.18208e-11
-9.06779e-11
-3.31037e-11
-8.37749e-11
-3.42341e-11
-7.66787e-11
-3.522e-11
-6.9416e-11
-3.60702e-11
-6.20113e-11
-3.67942e-11
-5.44872e-11
-3.74031e-11
-4.68649e-11
-3.79089e-11
-3.91635e-11
-3.83227e-11
-3.13997e-11
-3.86535e-11
-2.35881e-11
-3.89083e-11
-1.57421e-11
-3.90934e-11
-7.87416e-12
-3.92145e-11
-3.9257e-11
-1.31523e-10
-2.47566e-11
-1.26827e-10
-2.75516e-11
-1.21705e-10
-3.01254e-11
-1.16194e-10
-3.24802e-11
-1.1033e-10
-3.46199e-11
-1.04147e-10
-3.65502e-11
-9.76793e-11
-3.82785e-11
-9.09605e-11
-3.98133e-11
-8.40214e-11
-4.11641e-11
-7.68912e-11
-4.23408e-11
-6.9597e-11
-4.33543e-11
-6.21635e-11
-4.42171e-11
-5.46136e-11
-4.49429e-11
-4.69683e-11
-4.55459e-11
-3.92462e-11
-4.60387e-11
-3.14634e-11
-4.64318e-11
-2.36344e-11
-4.67342e-11
-1.57724e-11
-4.6954e-11
-7.88941e-12
-4.7098e-11
-4.71473e-11
-1.32222e-10
-2.90319e-11
-1.27471e-10
-3.2291e-11
-1.22294e-10
-3.52906e-11
-1.16729e-10
-3.8034e-11
-1.10812e-10
-4.0526e-11
-1.04579e-10
-4.27733e-11
-9.8063e-11
-4.4784e-11
-9.12982e-11
-4.6568e-11
-8.43155e-11
-4.81361e-11
-7.71446e-11
-4.95004e-11
-6.98127e-11
-5.06743e-11
-6.2345e-11
-5.16731e-11
-5.47644e-11
-5.25131e-11
-4.70915e-11
-5.32103e-11
-3.93445e-11
-5.37792e-11
-3.1539e-11
-5.42321e-11
-2.36894e-11
-5.45802e-11
-1.58084e-11
-5.48335e-11
-7.90735e-12
-5.49993e-11
-5.50548e-11
-1.33037e-10
-3.33764e-11
-1.28221e-10
-3.70964e-11
-1.2298e-10
-4.05196e-11
-1.17352e-10
-4.36498e-11
-1.11374e-10
-4.64922e-11
-1.05081e-10
-4.90542e-11
-9.8509e-11
-5.13448e-11
-9.16902e-11
-5.33749e-11
-8.46566e-11
-5.51571e-11
-7.74381e-11
-5.67056e-11
-7.00624e-11
-5.80366e-11
-6.2555e-11
-5.91681e-11
-5.49387e-11
-6.01189e-11
-4.72338e-11
-6.0907e-11
-3.94577e-11
-6.15485e-11
-3.16261e-11
-6.20583e-11
-2.37527e-11
-6.24498e-11
-1.58499e-11
-6.27346e-11
-7.9278e-12
-6.29206e-11
-6.29814e-11
-1.33967e-10
-3.77955e-11
-1.29076e-10
-4.19749e-11
-1.23762e-10
-4.58206e-11
-1.18063e-10
-4.93361e-11
-1.12014e-10
-5.25273e-11
-1.05654e-10
-5.54016e-11
-9.90165e-11
-5.79692e-11
-9.21357e-11
-6.02422e-11
-8.50437e-11
-6.22349e-11
-7.77709e-11
-6.39638e-11
-7.03453e-11
-6.54482e-11
-6.27927e-11
-6.67087e-11
-5.51357e-11
-6.77664e-11
-4.73942e-11
-6.86412e-11
-3.95852e-11
-6.93515e-11
-3.1724e-11
-6.99147e-11
-2.38239e-11
-7.03467e-11
-1.58963e-11
-7.06603e-11
-7.95056e-12
-7.08643e-11
-7.09296e-11
-1.35011e-10
-4.22963e-11
-1.30038e-10
-4.69356e-11
-1.24641e-10
-5.12033e-11
-1.1886e-10
-5.51029e-11
-1.12733e-10
-5.86407e-11
-1.06296e-10
-6.18248e-11
-9.95848e-11
-6.46662e-11
-9.26339e-11
-6.71784e-11
-8.5476e-11
-6.93776e-11
-7.8142e-11
-7.1283e-11
-7.06605e-11
-7.29166e-11
-6.30571e-11
-7.43017e-11
-5.53545e-11
-7.54616e-11
-4.75718e-11
-7.64185e-11
-3.9726e-11
-7.71933e-11
-3.1832e-11
-7.78061e-11
-2.39023e-11
-7.82748e-11
-1.59474e-11
-7.86137e-11
-7.97546e-12
-7.88334e-11
-7.89028e-11
-1.36171e-10
-4.68901e-11
-1.31105e-10
-5.19901e-11
-1.25616e-10
-5.66788e-11
-1.19745e-10
-6.09606e-11
-1.13529e-10
-6.48423e-11
-1.07006e-10
-6.83332e-11
-1.00213e-10
-7.1445e-11
-9.31837e-11
-7.41925e-11
-8.59524e-11
-7.65939e-11
-7.85504e-11
-7.8671e-11
-7.10068e-11
-8.04488e-11
-6.33472e-11
-8.19534e-11
-5.55937e-11
-8.32103e-11
-4.77655e-11
-8.42441e-11
-3.98792e-11
-8.50787e-11
-3.19492e-11
-8.57366e-11
-2.39871e-11
-8.62377e-11
-1.60023e-11
-8.65983e-11
-8.00236e-12
-8.68314e-11
-8.69044e-11
-1.37446e-10
-5.15916e-11
-1.32277e-10
-5.7151e-11
-1.26686e-10
-6.22583e-11
-1.20715e-10
-6.69194e-11
-1.14402e-10
-7.11422e-11
-1.07784e-10
-7.49364e-11
-1.009e-10
-7.8315e-11
-9.3784e-11
-8.12936e-11
-8.64716e-11
-8.38922e-11
-7.89949e-11
-8.61356e-11
-7.1383e-11
-8.80517e-11
-6.36614e-11
-8.96695e-11
-5.58522e-11
-9.1017e-11
-4.79742e-11
-9.21219e-11
-4.00437e-11
-9.30109e-11
-3.20745e-11
-9.37089e-11
-2.40773e-11
-9.42378e-11
-1.60605e-11
-9.46167e-11
-8.03116e-12
-9.48613e-11
-9.49372e-11
-1.38836e-10
-5.64139e-11
-1.33553e-10
-6.24289e-11
-1.27852e-10
-6.79518e-11
-1.21771e-10
-7.29893e-11
-1.1535e-10
-7.75499e-11
-1.08629e-10
-8.16443e-11
-1.01644e-10
-8.52858e-11
-9.44337e-11
-8.8491e-11
-8.70325e-11
-9.12812e-11
-7.9474e-11
-9.3684e-11
-7.17875e-11
-9.57312e-11
-6.39983e-11
-9.74545e-11
-5.61284e-11
-9.88853e-11
-4.81965e-11
-1.00054e-10
-4.02183e-11
-1.00991e-10
-3.22068e-11
-1.01724e-10
-2.4172e-11
-1.02276e-10
-1.61217e-11
-1.0267e-10
-8.06171e-12
-1.02924e-10
-1.03002e-10
-1.40339e-10
-6.13661e-11
-1.34934e-10
-6.78329e-11
-1.29111e-10
-7.37685e-11
-1.22911e-10
-7.91799e-11
-1.16374e-10
-8.40756e-11
-1.09539e-10
-8.84669e-11
-1.02446e-10
-9.23674e-11
-9.51312e-11
-9.57943e-11
-8.76332e-11
-9.87694e-11
-7.99858e-11
-1.01324e-10
-7.22183e-11
-1.03493e-10
-6.43561e-11
-1.05313e-10
-5.64207e-11
-1.06818e-10
-4.84308e-11
-1.08044e-10
-4.04014e-11
-1.09021e-10
-3.23448e-11
-1.09782e-10
-2.42705e-11
-1.10352e-10
-1.61853e-11
-1.10757e-10
-8.09376e-12
-1.1102e-10
-1.11099e-10
-1.41956e-10
-6.64552e-11
-1.36418e-10
-7.33717e-11
-1.30464e-10
-7.97182e-11
-1.24135e-10
-8.55015e-11
-1.17471e-10
-9.07299e-11
-1.10514e-10
-9.54147e-11
-1.03302e-10
-9.95701e-11
-9.5875e-11
-1.03213e-10
-8.82718e-11
-1.06366e-10
-8.05282e-11
-1.09062e-10
-7.26734e-11
-1.11343e-10
-6.47325e-11
-1.1325e-10
-5.67271e-11
-1.14821e-10
-4.86753e-11
-1.16093e-10
-4.05916e-11
-1.17103e-10
-3.24874e-11
-1.17884e-10
-2.43719e-11
-1.18467e-10
-1.62509e-11
-1.1888e-10
-8.12708e-12
-1.19146e-10
-1.19227e-10
-1.43685e-10
-7.1687e-11
-1.38004e-10
-7.90535e-11
-1.31909e-10
-8.58105e-11
-1.25442e-10
-9.19641e-11
-1.18643e-10
-9.75228e-11
-1.11553e-10
-1.02498e-10
-1.04213e-10
-1.06904e-10
-9.6663e-11
-1.10758e-10
-8.89459e-11
-1.14078e-10
-8.10986e-11
-1.16905e-10
-7.31501e-11
-1.19289e-10
-6.51252e-11
-1.21272e-10
-5.70452e-11
-1.22898e-10
-4.89278e-11
-1.24208e-10
-4.07869e-11
-1.25241e-10
-3.26332e-11
-1.26036e-10
-2.4475e-11
-1.26625e-10
-1.63176e-11
-1.27038e-10
-8.16171e-12
-1.27304e-10
-1.27389e-10
-1.45527e-10
-7.70705e-11
-1.39693e-10
-8.48877e-11
-1.33448e-10
-9.20545e-11
-1.26831e-10
-9.85771e-11
-1.19886e-10
-1.04464e-10
-1.12654e-10
-1.09725e-10
-1.05177e-10
-1.14377e-10
-9.74931e-11
-1.18438e-10
-8.96527e-11
-1.21915e-10
-8.16946e-11
-1.2486e-10
-7.3646e-11
-1.27334e-10
-6.55316e-11
-1.29384e-10
-5.73727e-11
-1.31054e-10
-4.91862e-11
-1.32392e-10
-4.09856e-11
-1.3344e-10
-3.27805e-11
-1.34239e-10
-2.45784e-11
-1.34826e-10
-1.63841e-11
-1.35233e-10
-8.19871e-12
-1.3549e-10
-1.35588e-10
-1.47489e-10
-8.26143e-11
-1.41494e-10
-9.08848e-11
-1.35088e-10
-9.84607e-11
-1.28312e-10
-1.05351e-10
-1.21211e-10
-1.11563e-10
-1.13826e-10
-1.17108e-10
-1.062e-10
-1.22001e-10
-9.83699e-11
-1.26266e-10
-9.03959e-11
-1.29886e-10
-8.23193e-11
-1.32933e-10
-7.41641e-11
-1.35486e-10
-6.59542e-11
-1.3759e-10
-5.77112e-11
-1.39294e-10
-4.94518e-11
-1.40649e-10
-4.11884e-11
-1.41702e-10
-3.29297e-11
-1.42498e-10
-2.46817e-11
-1.43074e-10
-1.64494e-11
-1.43465e-10
-8.23694e-12