/*--------------------------------*- C++ -*----------------------------------*\
| =========                 |                                                 |
| \\      /  F ield         | OpenFOAM: The Open Source CFD Toolbox           |
|  \\    /   O peration     | Version:  2.4.0                                 |
|   \\  /    A nd           | Web:      www.OpenFOAM.org                      |
|    \\/     M anipulation  |                                                 |
\*---------------------------------------------------------------------------*/
FoamFile
{
    version     2.0;
    format      ascii;
    class       surfaceScalarField;
    location    "0.18";
    object      phiAlpha;
}
// * * * * * * * * * * * * * * * * * * * * * * * * * * * * * * * * * * * * * //

dimensions      [0 3 -1 0 0 0 0];

internalField   nonuniform List<scalar> 
7080
(
3.20942e-08
-3.20942e-08
6.60169e-08
-3.39227e-08
8.94928e-08
-2.34759e-08
9.6489e-08
-6.99615e-09
9.08979e-08
5.5911e-09
6.80277e-08
2.28702e-08
4.23921e-08
2.56356e-08
1.92535e-08
2.31386e-08
3.35253e-10
1.89183e-08
-9.80216e-09
1.01374e-08
-1.31551e-08
3.35296e-09
-2.52164e-08
1.20613e-08
-3.16541e-08
6.43766e-09
-4.00838e-08
8.42971e-09
-4.38941e-08
3.81032e-09
-2.54033e-08
-1.84908e-08
7.45992e-09
-3.27773e-08
2.10557e-08
-1.35958e-08
1.32468e-08
7.80877e-09
-3.55348e-08
4.87707e-08
-1.41404e-07
1.06296e-07
-1.97736e-07
5.81095e-08
-1.84634e-07
-1.32029e-08
-1.76675e-07
-8.04959e-09
-1.67633e-07
-9.1235e-09
-1.36135e-07
-3.1714e-08
-9.46784e-08
-4.2109e-08
-5.99754e-08
-3.50878e-08
-3.18865e-08
-2.83919e-08
-2.70711e-08
-5.08874e-09
2.9307e-08
-6.14012e-08
7.52562e-08
-7.98719e-08
1.16153e-07
-6.43728e-08
1.37306e-07
-2.81496e-08
1.44157e-07
-1.25936e-09
1.30553e-07
3.64737e-08
1.08083e-07
4.81055e-08
8.62819e-08
4.49402e-08
6.21537e-08
4.30465e-08
4.67827e-08
2.55083e-08
3.88622e-08
1.12735e-08
1.6715e-08
3.42085e-08
8.10932e-09
1.50433e-08
-2.29732e-08
3.95123e-08
-3.49645e-08
1.58016e-08
-3.41526e-08
-1.93024e-08
-3.04713e-08
-3.63362e-08
-2.00031e-08
-2.40558e-08
-6.34874e-08
5.13164e-08
-1.76298e-07
1.6162e-07
-2.92555e-07
2.22846e-07
-3.13796e-07
7.9695e-08
-2.81219e-07
-4.56256e-08
-2.51874e-07
-3.73512e-08
-2.0909e-07
-5.21645e-08
-1.55805e-07
-8.52541e-08
-1.06639e-07
-9.12747e-08
-7.03601e-08
-7.13657e-08
-3.42367e-08
-6.45461e-08
-5.88313e-08
-2.51138e-09
2.38857e-08
-8.52869e-08
7.00887e-08
-1.26075e-07
1.1391e-07
-1.08194e-07
1.38142e-07
-5.23816e-08
1.48798e-07
-1.19158e-08
1.40047e-07
4.52246e-08
1.21571e-07
6.6582e-08
1.06056e-07
6.04553e-08
8.32109e-08
6.58911e-08
7.29443e-08
3.5775e-08
6.7595e-08
1.66227e-08
4.70841e-08
5.47193e-08
4.96244e-08
1.25031e-08
1.67465e-08
7.23902e-08
4.31023e-09
2.82379e-08
-5.17799e-09
-9.81263e-09
-4.01744e-08
-1.36644e-09
-6.54331e-08
1.04754e-09
-1.33976e-07
1.19755e-07
-2.46928e-07
2.74605e-07
-3.19199e-07
2.95146e-07
-3.04549e-07
6.52778e-08
-2.70301e-07
-7.99379e-08
-2.33902e-07
-7.37941e-08
-1.82747e-07
-1.03177e-07
-1.28699e-07
-1.39099e-07
-8.56326e-08
-1.34285e-07
-6.18193e-08
-9.51776e-08
-3.36411e-08
-9.27229e-08
-8.72732e-08
-5.19804e-09
2.19294e-08
-1.07216e-07
6.80407e-08
-1.72186e-07
1.12296e-07
-1.52449e-07
1.36963e-07
-7.70494e-08
1.48227e-07
-2.31793e-08
1.40192e-07
5.32599e-08
1.22485e-07
8.42885e-08
1.09443e-07
7.3497e-08
8.60861e-08
8.92484e-08
8.04714e-08
4.13896e-08
7.26431e-08
2.44511e-08
5.97415e-08
6.76209e-08
7.74893e-08
-5.24478e-09
4.80874e-08
1.01792e-07
3.4405e-08
4.19203e-08
1.85096e-08
6.08274e-09
-4.57998e-08
6.29827e-08
-1.03708e-07
5.89512e-08
-1.75835e-07
1.91875e-07
-2.4489e-07
3.43692e-07
-2.68057e-07
3.18385e-07
-2.53148e-07
5.02269e-08
-2.39226e-07
-9.39867e-08
-2.02534e-07
-1.10604e-07
-1.60647e-07
-1.45174e-07
-1.22592e-07
-1.77256e-07
-8.65781e-08
-1.7035e-07
-4.78411e-08
-1.33823e-07
-2.85977e-08
-1.11969e-07
-1.05009e-07
-1.08623e-08
2.13275e-08
-1.28544e-07
6.76269e-08
-2.18486e-07
1.12216e-07
-1.97038e-07
1.37139e-07
-1.01972e-07
1.48551e-07
-3.45921e-08
1.40226e-07
6.15853e-08
1.22353e-07
1.02161e-07
1.09894e-07
8.5956e-08
8.49894e-08
1.14153e-07
8.24913e-08
4.38877e-08
6.60267e-08
4.09157e-08
6.46885e-08
6.89591e-08
9.48836e-08
-3.54398e-08
6.8507e-08
1.28169e-07
6.10349e-08
4.93923e-08
4.45371e-08
2.25805e-08
-3.72888e-08
1.44809e-07
-1.1798e-07
1.3963e-07
-1.76123e-07
2.50081e-07
-1.88995e-07
3.56515e-07
-1.76824e-07
3.0605e-07
-1.55333e-07
2.85952e-08
-1.28696e-07
-1.20908e-07
-8.81263e-08
-1.51542e-07
-5.93826e-08
-1.74306e-07
-4.48254e-08
-1.92231e-07
-3.83707e-08
-1.77026e-07
-2.11094e-08
-1.51284e-07
-1.63902e-08
-1.16662e-07
-1.05417e-07
-1.59645e-08
2.1007e-08
-1.49551e-07
6.75484e-08
-2.65027e-07
1.12555e-07
-2.42044e-07
1.37816e-07
-1.27232e-07
1.49396e-07
-4.61722e-08
1.40601e-07
7.03802e-08
1.22506e-07
1.20256e-07
1.10023e-07
9.84385e-08
8.39484e-08
1.40228e-07
8.29497e-08
4.48863e-08
5.7566e-08
6.62995e-08
6.60785e-08
6.04466e-08
9.50158e-08
-6.43771e-08
7.76927e-08
1.45492e-07
8.63007e-08
4.07844e-08
7.43014e-08
3.45798e-08
-1.32543e-09
2.20436e-07
-8.4347e-08
2.22652e-07
-1.22381e-07
2.88494e-07
-1.14768e-07
3.48731e-07
-9.32373e-08
2.84359e-07
-6.90752e-08
4.35579e-09
-2.28997e-08
-1.67025e-07
2.69393e-08
-2.01326e-07
5.53166e-08
-2.02631e-07
4.68482e-08
-1.83715e-07
1.89836e-08
-1.49322e-07
-1.86665e-09
-1.30629e-07
-9.16539e-09
-1.09362e-07
-9.62578e-08
-1.83201e-08
2.06857e-08
-1.70236e-07
6.74972e-08
-3.11839e-07
1.13009e-07
-2.87557e-07
1.38691e-07
-1.52914e-07
1.50485e-07
-5.79659e-08
1.41112e-07
7.97526e-08
1.22864e-07
1.38504e-07
1.10057e-07
1.11245e-07
8.3719e-08
1.66566e-07
8.32231e-08
4.53822e-08
5.47231e-08
9.47995e-08
6.45377e-08
5.06319e-08
6.75359e-08
-6.73752e-08
6.81489e-08
1.44879e-07
1.0257e-07
6.36305e-09
9.15342e-08
4.56158e-08
3.63096e-08
2.7566e-07
-3.98777e-08
2.98839e-07
-7.67961e-08
3.25654e-07
-5.01313e-08
3.23365e-07
-9.28566e-09
2.44383e-07
2.91166e-08
-3.40332e-08
6.05774e-08
-1.98488e-07
9.68106e-08
-2.37443e-07
1.11085e-07
-2.16751e-07
9.94333e-08
-1.71933e-07
7.5064e-08
-1.24952e-07
3.63997e-08
-9.19641e-08
6.27009e-09
-7.92624e-08
-7.45609e-08
-1.54453e-08
2.03041e-08
-1.90541e-07
6.74248e-08
-3.58959e-07
1.13534e-07
-3.33666e-07
1.39722e-07
-1.79102e-07
1.51772e-07
-7.0016e-08
1.41705e-07
8.98203e-08
1.23352e-07
1.56858e-07
1.09931e-07
1.24666e-07
8.4403e-08
1.92094e-07
8.3829e-08
4.59562e-08
5.9299e-08
1.1933e-07
6.36589e-08
4.6272e-08
3.1037e-08
-3.47532e-08
4.20565e-08
1.33859e-07
9.00895e-08
-4.16699e-08
7.65444e-08
5.91609e-08
5.22867e-08
2.99918e-07
1.19864e-08
3.39139e-07
-7.91894e-09
3.45587e-07
1.9344e-08
2.96162e-07
8.64623e-08
1.77403e-07
1.23672e-07
-7.12265e-08
1.33475e-07
-2.08344e-07
1.39539e-07
-2.43556e-07
1.29715e-07
-2.06971e-07
1.12276e-07
-1.54498e-07
9.04588e-08
-1.0312e-07
5.92867e-08
-6.07915e-08
2.41767e-08
-4.41519e-08
-4.62917e-08
-4.10514e-09
1.98485e-08
-2.10389e-07
6.73228e-08
-4.06434e-07
1.14122e-07
-3.80465e-07
1.40911e-07
-2.05891e-07
1.53257e-07
-8.23613e-08
1.42384e-07
1.00693e-07
1.23918e-07
1.75324e-07
1.09599e-07
1.38985e-07
8.59228e-08
2.15771e-07
8.33329e-08
4.85461e-08
6.90042e-08
1.33658e-07
7.05269e-08
4.47494e-08
1.87076e-08
1.7066e-08
1.90118e-08
1.33555e-07
4.94398e-08
-7.20978e-08
5.20262e-08
5.65745e-08
5.81218e-08
2.93822e-07
6.11656e-08
3.36096e-07
9.10596e-08
3.15694e-07
1.25516e-07
2.61676e-07
1.7764e-07
1.25254e-07
1.9286e-07
-8.66273e-08
1.78172e-07
-1.93711e-07
1.58063e-07
-2.23498e-07
1.35219e-07
-1.84229e-07
1.09968e-07
-1.29252e-07
8.62255e-08
-7.93776e-08
5.75937e-08
-3.21593e-08
2.84583e-08
-1.50178e-08
-2.09985e-08
3.16183e-09
1.93133e-08
-2.29702e-07
6.71865e-08
-4.54307e-07
1.14763e-07
-4.28042e-07
1.42265e-07
-2.33393e-07
1.54941e-07
-9.50379e-08
1.43168e-07
1.12467e-07
1.2447e-07
1.94021e-07
1.09296e-07
1.54158e-07
8.72449e-08
2.37822e-07
8.01261e-08
5.56649e-08
7.85984e-08
1.35186e-07
7.93672e-08
4.39806e-08
2.46281e-08
7.18052e-08
1.54268e-08
1.42756e-07
2.8762e-08
-8.5433e-08
5.17739e-08
3.35626e-08
7.6281e-08
2.69315e-07
8.73934e-08
3.24983e-07
1.45213e-07
2.57873e-07
1.92733e-07
2.14156e-07
2.23851e-07
9.38061e-08
2.11477e-07
-7.43821e-08
1.81287e-07
-1.6357e-07
1.49418e-07
-1.91627e-07
1.21937e-07
-1.56748e-07
9.37493e-08
-1.01069e-07
6.7161e-08
-5.27893e-08
4.31495e-08
-8.14672e-09
2.11981e-08
6.933e-09
-3.07896e-09
3.27513e-09
1.86939e-08
-2.48396e-07
6.70113e-08
-5.02624e-07
1.15441e-07
-4.76472e-07
1.43789e-07
-2.6174e-07
1.56835e-07
-1.08084e-07
1.44049e-07
1.25253e-07
1.24989e-07
2.13081e-07
1.09291e-07
1.69857e-07
8.74005e-08
2.59712e-07
7.55049e-08
6.75605e-08
8.49509e-08
1.2574e-07
7.95706e-08
4.93608e-08
3.45267e-08
1.16849e-07
2.97052e-08
1.47578e-07
3.55821e-08
-9.13099e-08
5.82196e-08
1.09252e-08
8.66939e-08
2.40841e-07
9.81526e-08
3.13525e-07
1.40084e-07
2.15942e-07
1.81493e-07
1.72703e-07
1.95884e-07
7.9391e-08
1.73751e-07
-5.22224e-08
1.62507e-07
-1.52326e-07
1.37977e-07
-1.67098e-07
1.12671e-07
-1.31442e-07
8.27929e-08
-7.11932e-08
5.15398e-08
-2.15379e-08
2.9884e-08
1.35101e-08
1.60726e-08
2.07431e-08
6.95162e-09
6.04292e-09
1.79853e-08
-2.66382e-07
6.67919e-08
-5.51431e-07
1.16129e-07
-5.25809e-07
1.45491e-07
-2.91103e-07
1.58949e-07
-1.21542e-07
1.45012e-07
1.3919e-07
1.25542e-07
2.32551e-07
1.09638e-07
1.8576e-07
8.62415e-08
2.83109e-07
7.28191e-08
8.09829e-08
8.79683e-08
1.10591e-07
7.17458e-08
6.55833e-08
4.28774e-08
1.45718e-07
4.88823e-08
1.41573e-07
5.6498e-08
-9.89256e-08
6.50189e-08
2.40443e-09
8.05622e-08
2.25298e-07
1.03792e-07
2.90295e-07
1.24145e-07
1.95589e-07
1.53576e-07
1.43275e-07
1.66634e-07
6.63372e-08
1.67067e-07
-5.26558e-08
1.6916e-07
-1.54419e-07
1.44559e-07
-1.42497e-07
1.13282e-07
-1.00166e-07
7.40972e-08
-3.2014e-08
3.84682e-08
1.40912e-08
2.46262e-08
2.73528e-08
1.49933e-08
3.03751e-08
1.23746e-08
9.57147e-09
1.71816e-08
-2.83563e-07
6.6521e-08
-6.0077e-07
1.16849e-07
-5.76137e-07
1.47378e-07
-3.21632e-07
1.61287e-07
-1.35451e-07
1.4605e-07
1.54427e-07
1.26217e-07
2.52384e-07
1.10083e-07
2.01894e-07
8.47457e-08
3.08446e-07
7.14174e-08
9.43112e-08
9.02261e-08
9.17821e-08
6.61541e-08
8.96554e-08
5.12869e-08
1.60585e-07
6.55982e-08
1.27262e-07
7.21598e-08
-1.05487e-07
7.12773e-08
3.28694e-09
6.32931e-08
2.33282e-07
9.64117e-08
2.57176e-07
1.23211e-07
1.6879e-07
1.42968e-07
1.23518e-07
1.61724e-07
4.75815e-08
1.67489e-07
-5.84216e-08
1.50199e-07
-1.37128e-07
1.23148e-07
-1.15446e-07
9.44662e-08
-7.14834e-08
7.09547e-08
-8.50256e-09
4.94993e-08
3.55467e-08
2.90308e-08
4.78212e-08
1.47718e-08
4.46333e-08
1.01235e-08
1.70234e-08
1.62762e-08
-2.99839e-07
6.61906e-08
-6.50685e-07
1.17645e-07
-6.27591e-07
1.49458e-07
-3.53445e-07
1.63861e-07
-1.49853e-07
1.47168e-07
1.7112e-07
1.26996e-07
2.72557e-07
1.10666e-07
2.18224e-07
8.30547e-08
3.36057e-07
6.97879e-08
1.07578e-07
9.21947e-08
6.93753e-08
6.49986e-08
1.16852e-07
5.02806e-08
1.75303e-07
7.08232e-08
1.06719e-07
6.7676e-08
-1.0234e-07
7.81617e-08
-7.19879e-09
7.43547e-08
2.37089e-07
9.33426e-08
2.38188e-07
1.18005e-07
1.44128e-07
1.36799e-07
1.04723e-07
1.53724e-07
3.06572e-08
1.44835e-07
-4.95331e-08
1.17548e-07
-1.09841e-07
9.87641e-08
-9.66624e-08
8.41075e-08
-5.68257e-08
6.88568e-08
6.74901e-09
4.27519e-08
6.16515e-08
7.18083e-09
8.33923e-08
7.50623e-09
4.4307e-08
-4.92168e-09
2.25521e-08
1.52613e-08
-3.15101e-07
6.57922e-08
-7.01216e-07
1.18542e-07
-6.80341e-07
1.51739e-07
-3.86643e-07
1.66684e-07
-1.64798e-07
1.48348e-07
1.89455e-07
1.27885e-07
2.9302e-07
1.11548e-07
2.3456e-07
8.12841e-08
3.66322e-07
6.59775e-08
1.22885e-07
9.4469e-08
4.08838e-08
7.34233e-08
1.37897e-07
6.2544e-08
1.86182e-07
7.79386e-08
9.13247e-08
6.78339e-08
-9.22352e-08
9.353e-08
-3.28949e-08
8.66067e-08
2.44012e-07
8.48389e-08
2.39956e-07
1.10173e-07
1.18794e-07
1.23755e-07
9.11414e-08
1.22965e-07
3.1447e-08
1.13463e-07
-4.00317e-08
8.62839e-08
-8.26613e-08
4.15642e-08
-5.19426e-08
-2.56387e-10
-1.50075e-08
-1.71812e-08
2.36708e-08
-3.1522e-08
7.59923e-08
-2.94388e-08
8.13092e-08
-4.17799e-09
1.90483e-08
-1.57794e-08
6.67998e-09
1.41274e-08
-3.29228e-07
6.53165e-08
-7.52405e-07
1.19538e-07
-7.34563e-07
1.54236e-07
-4.21341e-07
1.69766e-07
-1.80327e-07
1.49566e-07
2.09655e-07
1.28871e-07
3.13715e-07
1.13133e-07
2.50298e-07
7.83769e-08
4.01078e-07
6.15849e-08
1.39677e-07
9.9028e-08
3.44063e-09
7.6525e-08
1.604e-07
2.10084e-08
2.41699e-07
3.88055e-08
7.35276e-08
7.07946e-08
-1.24224e-07
1.15259e-07
-7.73588e-08
1.17376e-07
2.41895e-07
1.10355e-07
2.46978e-07
1.2045e-07
1.08699e-07
1.04219e-07
1.07373e-07
1.15411e-07
2.02547e-08
1.27947e-07
-5.25678e-08
1.01816e-07
-5.65305e-08
6.05609e-08
-1.06874e-08
1.15865e-08
3.39668e-08
-2.32187e-08
5.84734e-08
-3.41528e-08
8.69156e-08
-2.91291e-08
7.62748e-08
-2.72477e-08
1.71651e-08
-9.67428e-09
-3.33512e-08
1.28638e-08
-3.42092e-07
6.47528e-08
-8.04294e-07
1.20626e-07
-7.90436e-07
1.56967e-07
-4.57682e-07
1.73098e-07
-1.96458e-07
1.50759e-07
2.31993e-07
1.3015e-07
3.34324e-07
1.15024e-07
2.65425e-07
7.3911e-08
4.42191e-07
6.02571e-08
1.5333e-07
1.06344e-07
-4.26466e-08
8.70567e-08
1.79688e-07
5.2968e-08
2.75787e-07
6.3268e-08
6.32277e-08
8.57034e-08
-1.4666e-07
1.36076e-07
-1.27732e-07
1.57506e-07
2.20464e-07
1.39104e-07
2.65381e-07
9.44567e-08
1.53346e-07
8.03966e-08
1.21433e-07
1.1179e-07
-1.11386e-08
1.00409e-07
-4.11868e-08
6.05752e-08
-1.66969e-08
4.88828e-08
1.00505e-09
4.17986e-08
4.1051e-08
1.6714e-08
8.35648e-08
6.66112e-09
9.69648e-08
7.21095e-09
7.57218e-08
-9.44635e-09
3.38205e-08
1.58301e-08
-3.49495e-08
1.14585e-08
-3.5355e-07
6.40842e-08
-8.5692e-07
1.21792e-07
-8.48144e-07
1.59951e-07
-4.95841e-07
1.766e-07
-2.13106e-07
1.51976e-07
2.56617e-07
1.3166e-07
3.5464e-07
1.18601e-07
2.78484e-07
6.67281e-08
4.94064e-07
5.51883e-08
1.6487e-07
1.14279e-07
-1.01737e-07
7.8162e-08
2.15805e-07
1.32899e-08
3.40659e-07
2.45046e-08
5.2013e-08
6.86061e-08
-1.90761e-07
1.25288e-07
-1.84414e-07
1.18898e-07
2.26855e-07
1.03806e-07
2.80473e-07
8.5926e-08
1.71226e-07
7.73945e-08
1.29964e-07
6.84671e-08
-2.21119e-09
5.1071e-09
2.21726e-08
-2.88299e-08
1.72407e-08
-8.23391e-09
-1.95907e-08
2.66701e-08
6.14627e-09
3.99035e-08
7.03307e-08
4.98694e-08
8.70089e-08
5.55804e-08
7.00078e-08
3.9191e-08
5.0218e-08
4.64716e-08
8.55074e-09
9.90027e-09
-3.6345e-07
6.327e-08
-9.10289e-07
1.23001e-07
-9.07874e-07
1.63144e-07
-5.35984e-07
1.80095e-07
-2.30057e-07
1.53064e-07
2.83648e-07
1.34526e-07
3.73177e-07
1.15449e-07
2.97561e-07
7.08723e-08
5.38641e-07
5.82317e-08
1.77511e-07
1.14858e-07
-1.58364e-07
7.20921e-08
2.58571e-07
-1.79289e-08
4.3068e-07
1.16337e-08
2.24504e-08
7.19715e-08
-2.51099e-07
1.22159e-07
-2.33745e-07
9.53037e-08
2.53803e-07
7.97591e-08
2.96017e-07
9.519e-08
1.55795e-07
6.42036e-08
1.60951e-07
-1.03701e-08
7.23625e-08
-7.90987e-08
9.09025e-08
-8.91191e-08
2.7261e-08
-6.68152e-08
-4.18947e-08
-3.0759e-08
-2.99112e-08
4.59028e-09
3.4981e-08
2.92483e-08
6.23505e-08
4.77098e-08
5.15565e-08
4.26758e-08
5.52534e-08
6.55176e-08
2.36301e-08
8.19459e-09
-3.71645e-07
6.21852e-08
-9.6428e-07
1.24123e-07
-9.69812e-07
1.6625e-07
-5.78112e-07
1.83016e-07
-2.46823e-07
1.54472e-07
3.12191e-07
1.35284e-07
3.92365e-07
1.28022e-07
3.04824e-07
4.70687e-08
6.19593e-07
1.87577e-08
2.05822e-07
1.17501e-07
-2.57107e-07
6.00679e-08
3.16004e-07
-1.06186e-08
5.01367e-07
3.27773e-08
-2.09455e-08
5.4728e-08
-2.7305e-07
1.02183e-07
-2.81241e-07
6.96535e-08
2.86516e-07
5.45523e-08
3.11119e-07
4.79016e-08
1.62446e-07
4.5243e-08
1.63609e-07
8.0505e-09
1.09555e-07
-8.99129e-08
1.88866e-07
-1.17336e-07
5.46919e-08
-1.12971e-07
-4.62599e-08
-8.75312e-08
-5.53544e-08
-5.39598e-08
1.40662e-09
-2.60984e-08
3.44866e-08
-9.40507e-11
2.55482e-08
1.23842e-08
4.2774e-08
6.71223e-08
1.07755e-08
6.41185e-09
-3.78057e-07
6.04235e-08
-1.01829e-06
1.24623e-07
-1.03401e-06
1.68195e-07
-6.21683e-07
1.83867e-07
-2.62495e-07
1.52687e-07
3.43371e-07
1.38337e-07
4.06716e-07
1.0262e-07
3.4054e-07
6.32632e-08
6.58951e-07
3.84374e-08
2.30648e-07
1.19241e-07
-3.37911e-07
7.59746e-08
3.59271e-07
-5.48754e-09
5.82829e-07
6.49653e-08
-9.13983e-08
7.24543e-08
-2.80535e-07
9.12124e-08
-3.00037e-07
1.05653e-07
2.71304e-07
8.152e-08
3.35231e-07
7.6299e-09
2.36311e-07
-9.92622e-09
1.81165e-07
3.65446e-08
6.2159e-08
-6.55719e-09
2.32037e-07
-4.20778e-08
9.02126e-08
-6.16317e-08
-2.67059e-08
-7.57699e-08
-4.12162e-08
-6.56577e-08
-8.70523e-09
-4.68941e-08
1.57243e-08
-3.27444e-08
1.14016e-08
-1.79603e-08
2.79895e-08
5.04137e-08
-1.25214e-09
4.92377e-09
-3.82981e-07
5.6831e-08
-1.0702e-06
1.2268e-07
-1.09986e-06
1.65975e-07
-6.64978e-07
1.76889e-07
-2.73408e-07
1.4227e-07
3.77989e-07
1.16889e-07
4.32096e-07
1.3729e-07
3.2014e-07
8.77169e-08
7.08523e-07
5.28689e-08
2.65496e-07
1.72185e-07
-4.4602e-07
1.34438e-07
3.89899e-07
5.78596e-09
7.10343e-07
9.24972e-08
-1.7811e-07
1.40333e-07
-3.27796e-07
9.92844e-08
-2.5903e-07
1.15661e-07
2.56281e-07
9.0616e-08
3.60575e-07
5.44216e-08
2.72506e-07
2.45241e-09
2.30633e-07
4.58227e-08
1.87716e-08
7.18186e-08
2.05458e-07
2.92111e-08
1.3282e-07
6.34217e-09
-3.83699e-09
-1.6126e-08
-1.8748e-08
-2.3871e-08
-9.60043e-10
-2.1657e-08
1.35096e-08
-2.42973e-08
1.40423e-08
-2.07198e-08
2.44153e-08
3.57073e-08
-6.01012e-09
3.42751e-09
-3.86408e-07
4.87209e-08
-1.11549e-06
1.13464e-07
-1.1646e-06
1.52919e-07
-7.04432e-07
1.50212e-07
-2.70701e-07
9.85338e-08
4.29668e-07
6.15988e-08
4.69031e-07
3.71803e-08
3.44558e-07
-2.12977e-08
7.67001e-07
-5.10919e-08
2.9628e-07
-6.27994e-08
-4.3511e-07
-6.89726e-08
3.91333e-07
-9.34423e-08
7.33321e-07
4.36609e-08
-3.15213e-07
1.7755e-07
-4.61741e-07
1.1042e-07
-1.9195e-07
7.57677e-08
2.9228e-07
5.28535e-08
3.83705e-07
7.88165e-08
2.46544e-07
4.15117e-08
2.67051e-07
3.64051e-08
2.38611e-08
8.78299e-08
1.53991e-07
6.52461e-08
1.55662e-07
3.21982e-08
2.9211e-08
8.67879e-09
4.77151e-09
8.094e-09
-3.76059e-10
7.46591e-09
1.41366e-08
4.05359e-11
2.14649e-08
-9.59662e-09
3.40522e-08
3.96103e-08
-1.34995e-08
8.25025e-09
-3.94658e-07
3.14596e-08
-1.1387e-06
8.80436e-08
-1.22119e-06
1.21713e-07
-7.38101e-07
9.77144e-08
-2.46701e-07
4.89866e-08
4.78396e-07
3.29324e-08
4.85086e-07
2.40665e-08
3.52577e-07
1.20348e-08
7.75913e-07
-8.2336e-08
3.92735e-07
-1.35339e-07
-3.82976e-07
-8.32002e-08
3.38305e-07
-1.88116e-07
8.38605e-07
-8.15236e-08
-4.22111e-07
1.07803e-07
-6.53094e-07
3.09161e-08
-1.15206e-07
-7.27384e-08
3.9618e-07
-7.82577e-08
3.89239e-07
3.29472e-08
1.35339e-07
7.02739e-08
2.31453e-07
4.17233e-08
5.23946e-08
8.14415e-08
1.15622e-07
7.28867e-08
1.64498e-07
2.49071e-08
7.71915e-08
3.92601e-09
2.57451e-08
7.22459e-09
-3.67554e-09
3.94219e-09
1.74182e-08
-1.07452e-09
2.64816e-08
-1.1929e-08
4.49062e-08
5.12358e-08
-2.35544e-08
-3.25365e-09
-3.91405e-07
1.57202e-09
-1.14353e-06
3.98482e-08
-1.25946e-06
8.39398e-08
-7.82173e-07
6.01594e-08
-2.01431e-07
-5.2067e-08
4.72448e-07
-2.05625e-07
6.36459e-07
-7.25126e-08
1.99337e-07
1.33556e-08
6.90611e-07
-1.42739e-07
5.44223e-07
-1.79537e-07
-3.51922e-07
-1.46793e-07
3.13233e-07
-2.37738e-07
9.30296e-07
-1.69413e-07
-4.90761e-07
-3.92153e-08
-7.83273e-07
-7.28881e-08
-8.16762e-08
-1.76184e-07
4.99491e-07
-1.1499e-07
3.28059e-07
5.34749e-08
-3.34399e-08
1.0287e-07
1.82038e-07
4.56278e-08
1.10246e-07
3.4375e-08
1.27393e-07
3.12101e-08
1.67684e-07
-8.09342e-09
1.16497e-07
-1.72266e-08
3.48802e-08
-1.86035e-08
-2.2969e-09
-1.98382e-08
1.8654e-08
-1.44167e-08
2.10633e-08
-1.39772e-08
4.44666e-08
5.38137e-08
-1.65559e-08
2.5384e-08
-4.16789e-07
-3.73191e-08
-1.08082e-06
-1.32691e-08
-1.28351e-06
6.49205e-08
-4.92614e-07
1.90525e-08
-2.68487e-08
-1.99879e-07
1.85164e-07
-4.41991e-07
8.1677e-07
-2.31789e-07
-3.23342e-08
-5.4676e-08
5.13565e-07
-1.64434e-07
6.59733e-07
-2.93092e-07
-2.2379e-07
-2.89805e-07
3.09256e-07
-2.04503e-07
8.4509e-07
-1.69143e-07
-5.26134e-07
-1.59077e-07
-7.92698e-07
-1.30718e-07
-1.10186e-07
-1.15249e-07
4.82122e-07
-5.05716e-08
2.63395e-07
6.45361e-09
-9.04148e-08
-1.99778e-08
2.0848e-07
-6.87329e-08
1.59417e-07
-7.05093e-09
6.57094e-08
2.22037e-08
1.38427e-07
-2.24442e-08
1.61134e-07
-3.57666e-08
4.82028e-08
-3.36114e-08
-4.45218e-09
-2.60183e-08
1.10608e-08
-1.97646e-08
1.48095e-08
-1.14525e-08
3.61551e-08
4.47027e-08
-2.34162e-09
-4.00556e-08
-3.76733e-07
-6.22895e-08
-1.05859e-06
-5.98593e-09
-8.84076e-07
-1.35516e-08
-3.44085e-08
-1.89031e-07
3.23695e-10
-4.5119e-07
9.51914e-08
-4.03156e-07
5.922e-07
-3.80497e-07
-6.92285e-08
-1.74394e-07
3.07517e-07
-1.34591e-07
6.19964e-07
-3.81787e-07
2.33842e-08
-2.98598e-07
2.25062e-07
-9.57249e-08
6.39671e-07
-1.69572e-07
-4.522e-07
-2.93792e-07
-6.68235e-07
-2.58397e-07
-1.45736e-07
-1.16875e-07
3.39857e-07
-9.96255e-08
2.45771e-07
-1.3638e-07
-5.40301e-08
-1.08796e-07
1.81007e-07
-7.71077e-08
1.27725e-07
-5.47248e-09
-5.92682e-09
4.34795e-08
8.94721e-08
1.57843e-08
1.88824e-07
-6.14166e-09
7.01261e-08
-1.93761e-08
8.78215e-09
-2.18117e-08
1.3496e-08
-2.23999e-08
1.53975e-08
-1.27926e-08
2.65474e-08
3.17793e-08
1.30838e-10
-2.60962e-08
-3.50325e-07
3.24995e-08
-1.11702e-06
-4.60542e-09
-1.43967e-07
-3.67215e-08
-1.78177e-10
-1.89356e-07
5.53836e-09
-4.6385e-07
-5.52638e-08
-5.26209e-07
3.64539e-07
-5.88073e-07
-5.75024e-08
-3.28148e-07
3.3885e-08
-1.82034e-07
4.73882e-07
-4.20014e-07
2.6209e-07
-2.15898e-07
2.01294e-08
2.78133e-08
3.95237e-07
-1.70861e-07
-2.5355e-07
-3.66085e-07
-4.73032e-07
-3.39816e-07
-1.71943e-07
-1.41642e-07
1.40931e-07
-1.25898e-07
2.29968e-07
-1.54177e-07
-2.57496e-08
-8.69642e-08
1.13789e-07
-3.39191e-08
7.46707e-08
-5.00923e-08
1.02371e-08
-1.40242e-08
5.33969e-08
5.27687e-08
1.22028e-07
6.1386e-08
6.15077e-08
2.66161e-08
4.35519e-08
-5.29455e-09
4.54068e-08
-1.99501e-08
3.00532e-08
-1.79311e-08
2.45284e-08
1.91398e-08
-5.29155e-09
-1.45554e-07
-1.9024e-07
1.17319e-07
-4.04055e-07
-4.08436e-10
-2.24701e-10
1.12775e-10
9.4313e-10
-1.20494e-08
-9.8619e-10
-3.15244e-07
-1.35332e-08
-5.69981e-07
1.63019e-07
-6.89409e-07
-8.62961e-08
-5.11668e-07
-1.78428e-07
-2.85471e-07
2.47716e-07
-3.77086e-07
3.53733e-07
-2.54012e-07
-1.0292e-07
-1.92773e-08
1.6071e-07
-1.37002e-07
-1.35848e-07
-3.34706e-07
-2.75326e-07
-3.8617e-07
-1.1877e-07
-1.87787e-07
-5.58149e-08
-8.92961e-08
1.31693e-07
-1.0665e-07
-6.73238e-09
-1.98858e-08
2.70229e-08
5.46602e-08
-3.32071e-09
1.63746e-08
2.59631e-08
-2.9558e-10
3.71284e-08
5.57262e-08
3.42796e-08
5.60294e-08
2.729e-08
3.86033e-08
2.76735e-08
2.95045e-08
2.26026e-08
1.41114e-08
1.87108e-08
2.38476e-09
1.44182e-08
9.63425e-09
-4.13689e-09
1.6772e-07
-3.34358e-07
-9.06938e-12
-2.22423e-08
2.44988e-11
-3.38844e-10
5.23254e-10
-1.05616e-11
-6.19297e-10
4.00852e-11
-5.27721e-08
-2.16015e-10
-2.27152e-07
-4.23976e-09
-4.98042e-07
-2.92851e-08
-6.11196e-07
-2.1537e-07
-4.01561e-07
1.93564e-08
-3.49664e-07
3.013e-07
-4.04453e-07
-6.10103e-08
-1.89722e-07
-5.28887e-08
-1.34636e-07
-1.29698e-07
-2.23755e-07
-4.52496e-08
-2.04868e-07
-1.35874e-08
-1.92556e-07
-4.39644e-10
-2.9844e-08
-1.53585e-10
5.19944e-09
-6.09086e-11
3.84714e-08
-8.24777e-12
2.07182e-08
-1.59447e-13
1.97965e-08
2.07112e-10
2.59274e-08
-2.04738e-10
2.44758e-08
1.64286e-10
1.56872e-08
1.57076e-10
1.43641e-08
-1.50061e-10
1.42007e-08
-7.88142e-11
1.4026e-08
-1.04936e-11
1.18261e-08
-4.40683e-11
5.39898e-09
-7.85323e-11
2.25903e-08
-2.79723e-08
4.96399e-08
-2.73173e-08
9.11763e-08
-4.20498e-08
1.23313e-07
-3.26846e-08
1.48423e-07
-2.52736e-08
1.643e-07
-1.60576e-08
1.92274e-07
-2.81747e-08
2.32405e-07
-4.03507e-08
1.76891e-07
5.78793e-08
5.87447e-08
1.18188e-07
1.8414e-10
5.85289e-08
-1.36212e-08
1.38048e-08
-1.13327e-09
-1.24886e-08
3.26864e-08
-3.36639e-08
5.24313e-08
-1.97371e-08
4.83871e-08
4.04414e-09
3.7517e-08
1.08701e-08
2.96676e-08
7.84943e-09
1.35289e-08
1.61386e-08
2.82508e-09
1.07039e-08
-1.50901e-08
1.79152e-08
-3.20802e-08
1.69901e-08
-5.00235e-08
1.79433e-08
-6.86703e-08
1.86469e-08
-8.90657e-08
2.03954e-08
-9.39833e-08
4.91765e-09
-8.85715e-08
-5.41185e-09
-6.55241e-08
-2.30474e-08
-3.19916e-08
-3.35325e-08
-3.19916e-08
2.90848e-08
-5.95798e-08
6.2769e-08
-6.10006e-08
9.97095e-08
-7.89894e-08
1.47016e-07
-7.99897e-08
1.96663e-07
-7.51512e-08
2.43551e-07
-6.28776e-08
2.82949e-07
-6.74902e-08
3.25483e-07
-8.26813e-08
3.08855e-07
7.48583e-08
1.98246e-07
2.28834e-07
8.16176e-08
1.75197e-07
3.24677e-08
6.29988e-08
4.17524e-08
-2.18058e-08
4.93969e-08
-4.11658e-08
4.96162e-08
-1.99319e-08
3.45712e-08
1.90891e-08
-7.18516e-10
4.61598e-08
-1.30677e-08
2.01986e-08
-4.16862e-08
4.47571e-08
-5.71173e-08
2.6135e-08
-8.07007e-08
4.14986e-08
-1.01095e-07
3.73839e-08
-1.1598e-07
3.28286e-08
-1.30707e-07
3.33739e-08
-1.42098e-07
3.17867e-08
-1.34594e-07
-2.58604e-09
-1.15223e-07
-2.47838e-08
-7.47696e-08
-6.35003e-08
-2.9215e-08
-7.90871e-08
-6.12066e-08
2.02616e-08
-8.50383e-08
4.30074e-08
-8.37456e-08
6.38612e-08
-9.98026e-08
1.14035e-07
-1.30074e-07
1.72466e-07
-1.33564e-07
2.19606e-07
-1.10004e-07
2.52939e-07
-1.00916e-07
2.92254e-07
-1.22337e-07
3.04902e-07
6.23625e-08
2.57075e-07
2.76792e-07
1.59116e-07
2.73214e-07
8.82479e-08
1.33807e-07
5.96536e-08
6.60499e-09
2.48589e-08
-6.42276e-09
1.18947e-08
-6.95212e-09
-4.26796e-09
3.52518e-08
-4.25101e-08
8.44018e-08
-4.49564e-08
2.26449e-08
-7.25005e-08
7.23011e-08
-8.42569e-08
3.78913e-08
-1.02037e-07
5.9279e-08
-1.20481e-07
5.58276e-08
-1.29076e-07
4.14233e-08
-1.3997e-07
4.42686e-08
-1.46685e-07
3.85011e-08
-1.35452e-07
-1.38188e-08
-1.13012e-07
-4.72239e-08
-6.96289e-08
-1.06884e-07
-2.38007e-08
-1.24915e-07
-8.50073e-08
4.7737e-09
-1.00664e-07
2.83494e-08
-1.0727e-07
6.288e-08
-1.34277e-07
1.00041e-07
-1.66885e-07
1.34123e-07
-1.67704e-07
1.73325e-07
-1.49264e-07
2.07986e-07
-1.35636e-07
2.25774e-07
-1.40187e-07
2.49984e-07
3.80857e-08
2.48115e-07
2.78602e-07
1.94005e-07
3.27356e-07
1.26747e-07
2.00986e-07
6.86315e-08
6.47249e-08
2.88455e-09
5.93633e-08
-1.85638e-08
1.44969e-08
-3.62094e-08
5.28973e-08
-7.15749e-08
1.19767e-07
-5.923e-08
1.03e-08
-7.923e-08
9.23011e-08
-9.22142e-08
5.08756e-08
-1.05172e-07
7.22363e-08
-1.23826e-07
7.44819e-08
-1.29864e-07
4.74612e-08
-1.39947e-07
5.43524e-08
-1.46001e-07
4.45547e-08
-1.34259e-07
-2.55605e-08
-1.11406e-07
-7.00767e-08
-6.75973e-08
-1.50693e-07
-2.18466e-08
-1.70666e-07
-1.06854e-07
-1.5467e-08
-1.01134e-07
-5.53611e-09
-1.17145e-07
6.06502e-09
-1.46062e-07
7.44552e-09
-1.68935e-07
1.83447e-08
-1.7889e-07
4.5968e-08
-1.77142e-07
8.98135e-08
-1.79796e-07
1.20301e-07
-1.71159e-07
1.55687e-07
2.57361e-09
1.81703e-07
2.52528e-07
1.79769e-07
3.2896e-07
1.34747e-07
2.46317e-07
6.04839e-08
1.3895e-07
-2.11479e-08
1.40995e-07
-4.48119e-08
3.81608e-08
-5.74771e-08
6.55625e-08
-9.09836e-08
1.53274e-07
-6.52796e-08
-1.54041e-08
-7.37442e-08
1.00766e-07
-9.46354e-08
7.17667e-08
-1.04664e-07
8.22647e-08
-1.24573e-07
9.43916e-08
-1.29727e-07
5.26145e-08
-1.39799e-07
6.44248e-08
-1.46162e-07
5.09179e-08
-1.34404e-07
-3.73186e-08
-1.11335e-07
-9.31461e-08
-6.72001e-08
-1.94827e-07
-2.12468e-08
-2.16619e-07
-1.28101e-07
-2.52403e-08
-9.42115e-08
-3.69115e-08
-1.05574e-07
-6.34975e-08
-1.19678e-07
-8.91856e-08
-1.4343e-07
-9.08005e-08
-1.77277e-07
-6.01009e-08
-2.0774e-07
-8.14067e-09
-2.31636e-07
3.6551e-08
-2.15719e-07
7.96864e-08
-4.06367e-08
1.14836e-07
2.1732e-07
1.28746e-07
3.14984e-07
9.79523e-08
2.77775e-07
2.39151e-08
2.12987e-07
-5.23743e-08
2.17284e-07
-7.04411e-08
5.62276e-08
-6.91718e-08
6.42932e-08
-9.55396e-08
1.79642e-07
-6.69481e-08
-4.39956e-08
-6.52322e-08
9.90498e-08
-9.55258e-08
1.0206e-07
-1.04434e-07
9.11724e-08
-1.25122e-07
1.1508e-07
-1.29893e-07
5.73856e-08
-1.39944e-07
7.44751e-08
-1.46798e-07
5.77726e-08
-1.35044e-07
-4.90724e-08
-1.11687e-07
-1.16504e-07
-6.71419e-08
-2.39372e-07
-2.09293e-08
-2.62832e-07
-1.4903e-07
-3.8738e-08
-7.09563e-08
-7.06996e-08
-7.36126e-08
-1.02181e-07
-8.81965e-08
-1.21118e-07
-1.24494e-07
-1.28685e-07
-1.6948e-07
-1.16437e-07
-2.20028e-07
-8.34575e-08
-2.6466e-07
-5.93962e-08
-2.3975e-07
-1.00056e-08
-8.99573e-08
4.72721e-08
1.60588e-07
7.88332e-08
2.84744e-07
4.97147e-08
3.07131e-07
-1.91675e-08
2.81866e-07
-7.42546e-08
2.72371e-07
-8.98846e-08
7.18576e-08
-6.45525e-08
3.89612e-08
-7.41635e-08
1.89253e-07
-6.57053e-08
-5.24538e-08
-6.05104e-08
9.38549e-08
-9.6187e-08
1.37737e-07
-1.05195e-07
1.0018e-07
-1.2562e-07
1.35506e-07
-1.30269e-07
6.20341e-08
-1.4017e-07
8.43759e-08
-1.47633e-07
6.52361e-08
-1.35879e-07
-6.08263e-08
-1.1216e-07
-1.40223e-07
-6.71151e-08
-2.84417e-07
-2.06114e-08
-3.09336e-07
-1.69641e-07
-3.25342e-08
-4.25333e-08
-6.61512e-08
-3.99956e-08
-9.51681e-08
-5.91797e-08
-1.17121e-07
-1.02541e-07
-1.34985e-07
-1.51661e-07
-1.47402e-07
-2.07731e-07
-1.45808e-07
-2.66297e-07
-1.45377e-07
-2.40228e-07
-1.07329e-07
-1.28023e-07
-3.4846e-08
8.81327e-08
3.26707e-10
2.49572e-07
-6.12076e-09
3.13564e-07
-3.91324e-08
3.14882e-07
-6.58133e-08
2.99052e-07
-8.49236e-08
9.09679e-08
-4.08767e-08
-5.08578e-09
-3.73449e-08
1.85721e-07
-6.37304e-08
-2.60683e-08
-6.1949e-08
9.20735e-08
-9.72972e-08
1.73085e-07
-1.07058e-07
1.09941e-07
-1.25989e-07
1.54436e-07
-1.30769e-07
6.68141e-08
-1.40421e-07
9.40279e-08
-1.48619e-07
7.34337e-08
-1.36868e-07
-7.2577e-08
-1.12711e-07
-1.64379e-07
-6.70718e-08
-3.30057e-07
-2.02339e-08
-3.56174e-07
-1.89875e-07
-2.1261e-08
-1.81123e-08
-5.02209e-08
-1.10357e-08
-7.9201e-08
-3.01986e-08
-1.01991e-07
-7.97504e-08
-1.24343e-07
-1.29309e-07
-1.46304e-07
-1.8577e-07
-1.72418e-07
-2.40291e-07
-1.89193e-07
-2.23512e-07
-1.85115e-07
-1.32167e-07
-1.39431e-07
4.22249e-08
-9.81462e-08
2.08287e-07
-5.54547e-08
2.70873e-07
-4.50598e-08
3.04487e-07
-4.11195e-08
2.95112e-07
-4.564e-08
9.54884e-08
-1.3774e-08
-3.69517e-08
-1.73631e-08
1.8931e-07
-6.76421e-08
2.42107e-08
-6.91692e-08
9.36005e-08
-9.77516e-08
2.01668e-07
-1.10118e-07
1.22308e-07
-1.26211e-07
1.7053e-07
-1.31287e-07
7.189e-08
-1.40703e-07
1.03444e-07
-1.49748e-07
8.24791e-08
-1.38014e-07
-8.43116e-08
-1.13336e-07
-1.89057e-07
-6.70035e-08
-3.76389e-07
-1.9783e-08
-4.03394e-07
-2.09658e-07
-1.27618e-08
-2.0757e-09
-3.22219e-08
8.42459e-09
-5.39972e-08
-8.42261e-09
-7.74504e-08
-5.62979e-08
-1.00569e-07
-1.06192e-07
-1.26261e-07
-1.60078e-07
-1.57579e-07
-2.08974e-07
-1.79649e-07
-2.01474e-07
-2.04095e-07
-1.07792e-07
-1.87059e-07
2.51125e-08
-1.40252e-07
1.61298e-07
-8.11602e-08
2.11781e-07
-6.3424e-08
2.86751e-07
-3.42614e-08
2.65949e-07
-1.59919e-08
7.72189e-08
-1.38306e-09
-5.15606e-08
-1.56518e-08