/*--------------------------------*- C++ -*----------------------------------*\
| =========                 |                                                 |
| \\      /  F ield         | OpenFOAM: The Open Source CFD Toolbox           |
|  \\    /   O peration     | Version:  2.4.0                                 |
|   \\  /    A nd           | Web:      www.OpenFOAM.org                      |
|    \\/     M anipulation  |                                                 |
\*---------------------------------------------------------------------------*/
FoamFile
{
    version     2.0;
    format      ascii;
    class       volScalarField;
    location    "0.039";
    object      alpha.water;
}
// * * * * * * * * * * * * * * * * * * * * * * * * * * * * * * * * * * * * * //

dimensions      [0 0 0 0 0 0 0];

internalField   nonuniform List<scalar> 
3600
(
1
1
1
1
1
1
1
1
1
1
1
1
1
1
1
1
1
1
1
1
1
1
1
1
1
1
1
1
1
1
1
1
1
1
1
1
1
1
1
1
1
1
1
1
1
1
1
1
1
1
1
1
1
1
1
1
1
1
1
1
1
1
1
1
1
1
1
1
1
1
1
1
1
1
1
1
1
1
1
1
1
1
1
1
1
1
1
1
1
1
1
1
1
1
1
1
1
1
1
1
1
1
1
1
1
1
1
1
1
1
1
1
1
1
1
1
1
1
1
1
1
1
1
1
1
1
1
1
1
1
1
1
1
1
1
1
1
1
1
1
1
1
1
1
1
1
1
1
1
1
1
1
1
1
1
1
1
1
1
1
1
1
1
1
1
1
1
1
1
1
1
1
1
1
1
1
1
1
1
1
1
1
1
1
1
1
1
1
1
1
1
1
1
1
1
1
1
1
1
1
1
1
1
1
1
1
1
1
1
1
1
1
1
1
1
1
1
1
1
1
1
1
1
1
1
1
1
1
1
1
1
1
1
1
1
1
1
1
1
1
1
1
1
1
1
1
1
1
1
1
1
1
1
1
1
1
1
1
1
1
1
1
1
1
1
1
1
1
1
1
1
1
1
1
1
1
1
1
1
1
1
1
1
1
1
1
1
1
1
1
1
1
1
1
1
1
1
1
1
1
1
1
1
1
1
1
1
1
1
1
1
1
1
1
1
1
1
1
1
1
1
1
1
1
1
1
1
1
1
1
1
1
1
1
1
1
1
1
1
1
1
1
1
1
1
1
1
1
1
1
1
1
1
1
1
1
1
1
1
1
1
1
1
1
1
1
1
1
1
1
1
1
1
1
1
1
1
1
1
1
1
1
1
1
1
1
1
1
1
1
1
1
1
1
1
1
1
1
1
1
1
1
1
1
1
1
1
1
1
1
1
1
1
1
0.999995
1
1
1
1
1
1
1
1
1
1
1
1
1
1
1
1
1
1
1
1
1
1
1
1
1
1
1
1
0.992134
0.85826
0.992753
1
1
1
1
1
1
1
1
1
1
1
1
1
1
1
1
1
1
1
1
1
1
1
1
1
1
0.999982
0.762173
0.191456
0.694922
0.999193
0.999999
1
1
1
1
1
1
1
1
1
1
1
1
1
1
1
1
1
1
1
1
1
1
1
0.99999
0.865442
0.241402
0.191377
0.265267
0.801533
0.999956
0.999999
1
1
1
1
1
1
1
1
1
1
1
1
1
1
1
1
1
1
1
1
1
0.999996
0.943675
0.347002
0.192287
0.228395
0.48927
0.560408
0.878303
0.998669
0.999999
1
1
1
1
1
1
1
1
1
1
1
1
1
1
1
1
1
1
1
1
0.99996
0.673832
0.199899
0.253665
0.651927
0.652135
0.613263
0.346151
0.607524
0.976357
1
1
1
1
1
1
1
1
1
1
1
1
1
1
1
1
1
1
1
0.999998
0.946003
0.362882
0.19989
0.508628
0.652272
0.651741
0.501496
0.29858
0.29849
0.367481
1
1
1
1
1
1
1
1
1
1
1
1
1
1
1
1
1
1
1
0.999416
0.618585
0.20631
0.203254
0.427162
0.651794
0.648349
0.552987
0.306234
0.443684
0.656576
1
1
1
1
1
1
1
1
1
1
1
1
1
1
1
1
1
1
1
0.999999
0.869843
0.361087
0.610539
0.589267
0.315258
0.285943
0.652734
0.726926
0.726533
0.619184
1
1
1
1
1
1
1
1
1
1
1
1
1
1
1
1
1
1
1
1
0.999996
0.883123
0.882265
0.328685
0.178106
0.178106
0.515015
0.717585
0.557032
0.329466
1
1
1
1
1
1
1
1
1
1
1
1
1
1
1
1
1
0.999996
0.999898
0.999996
0.99913
0.999078
0.571967
0.173108
0.181997
0.274845
0.460206
0.660238
0.505123
0.329951
1
1
1
1
1
1
1
1
1
1
1
1
1
1
1
0.999999
0.999997
0.999998
0.999998
0.960014
0.969409
0.706623
0.180475
0.173065
0.334742
0.581824
0.531868
0.279884
0.578775
0.59173
1
1
1
1
1
1
1
1
1
1
1
1
1
1
1
1
1
1
0.986017
0.903629
0.950343
0.653989
0.177696
0.173108
0.314891
0.582296
0.308112
0.279884
0.288684
0.454238
1
1
1
1
1
1
1
1
1
1
0.999998
1
1
1
1
1
1
1
0.967599
0.959376
0.958603
0.957037
0.888844
0.327838
0.247497
0.544918
0.442886
0.279884
0.306137
0.779694
1
1
1
1
1
1
1
1
1
1
1
0.956313
0.996239
1
1
0.90772
0.954998
0.975942
0.969203
0.913989
0.699141
0.838629
0.875825
0.406982
0.247497
0.249318
0.646177
0.428072
0.562591
0.822082
0.999998
1
1
1
1
1
1
0.999617
0.993555
1
0.726338
0.507186
0.545887
0.940946
0.983117
0.482626
0.843326
0.262056
0.318229
0.339742
0.169175
0.261011
0.276365
0.168377
0.443409
0.828626
0.828998
0.538228
0.81657
0.822123
0.999991
0.902799
0.981109
0.967303
1
0.897021
0.997323
0.946665
0.703663
0.549836
0.485177
0.167041
0.107819
0.650127
0.538569
0.297055
0.297012
0.0566571
0.0794273
0.261735
0.139363
0.120076
0.118892
0.119708
0.612016
0.823157
0.823668
0.383538
0.393608
0.400995
1
1
1
1
1
1
1
1
1
1
1
1
1
1
1
1
1
1
1
1
1
1
1
1
1
1
1
1
1
1
1
1
1
1
1
1
1
1
1
1
1
1
1
1
1
1
1
1
1
1
1
1
1
1
1
1
1
1
1
1
1
1
1
1
1
1
1
1
1
1
1
1
1
1
1
1
1
1
1
1
1
1
1
1
1
1
1
1
1
1
1
1
1
1
1
1
1
1
1
1
1
1
1
1
1
1
1
1
1
1
1
1
1
1
1
1
1
1
1
1
1
1
1
1
1
1
1
1
1
1
1
1
1
1
1
1
1
1
1
1
1
1
1
1
1
1
1
1
1
1
1
1
1
1
1
1
1
1
1
1
1
1
1
1
1
1
1
1
1
1
1
1
1
1
1
1
1
1
1
1
1
1
1
1
1
1
1
1
1
1
1
1
1
1
1
1
1
1
1
1
1
1
1
1
1
1
1
1
1
1
1
1
1
1
1
1
1
1
1
1
1
1
1
1
1
1
1
1
1
1
1
1
1
1
1
1
1
1
1
1
1
1
1
1
1
1
1
1
1
1
1
1
1
1
1
1
1
1
1
1
1
1
1
1
1
1
1
1
1
1
1
1
1
1
1
1
1
1
1
1
1
1
1
1
1
1
1
1
1
1
1
1
1
1
1
1
1
1
1
1
1
1
1
1
1
1
1
1
1
1
1
1
1
1
1
1
1
1
1
1
1
1
1
1
1
1
1
1
1
1
1
1
1
1
1
1
1
1
1
1
1
1
1
1
1
1
1
1
1
1
1
1
1
1
1
1
1
1
1
1
1
1
1
1
1
1
1
1
1
1
1
1
1
1
1
1
1
1
1
1
1
1
1
1
1
1
1
1
1
1
1
1
1
1
1
1
1
1
1
1
1
1
1
1
1
1
1
1
1
1
1
1
1
1
1
1
1
1
1
1
1
1
1
1
1
1
1
1
1
1
1
1
1
1
1
1
1
1
1
1
1
1
1
1
1
1
1
1
1
1
1
1
1
1
1
1
1
1
1
1
1
1
1
1
1
1
1
1
1
1
1
1
1
1
1
1
1
1
1
1
1
1
1
1
1
1
1
1
1
1
1
1
1
1
1
1
1
1
1
1
1
1
1
1
1
1
1
1
1
1
1
1
1
1
1
1
1
1
1
1
1
1
1
1
1
1
1
1
1
1
1
1
1
1
1
1
1
1
1
1
0.999997
1
1
0.999998
1
1
1
1
1
1
1
0.999997
1
1
1
1
1
1
1
1
1
1
1
1
1
1
1
1
1
1
0.899949
0.999991
0.999999
0.999999
0.999998
1
1
1
1
1
0.98267
0.999461
1
1
1
1
1
1
1
1
1
1
1
1
1
1
1
1
1
1
0.982948
0.999991
1
0.999999
1
1
1
1
1
1
0.607653
0.894592
0.999999
1
1
1
1
1
1
1
1
1
1
1
1
1
1
1
1
1
0.557528
0.999338
1
1
0.999934
0.996556
1
0.998101
0.998971
0.99998
0.45116
0.661194
1
1
0.999998
1
1
1
1
1
1
1
1
1
1
1
1
1
1
1
0.331096
0.81292
1
0.999825
0.998623
0.652852
0.868254
0.998952
0.998967
0.956472
0.471767
0.435498
0.484123
0.936039
1
1
1
1
1
1
1
1
1
1
1
1
1
1
1
1
0.455141
0.852463
0.869341
0.844877
0.41759
0.393005
0.872125
0.998461
0.836267
0.606739
0.745218
0.487182
0.931721
0.996544
1
1
1
1
1
1
1
1
1
1
1
1
1
1
1
1
0.359754
0.359716
0.641643
0.908005
0.763279
0.314974
0.389695
0.877626
0.840404
0.497973
0.745406
0.491191
0.954033
0.999999
1
1
1
1
1
1
1
1
1
1
1
1
1
1
1
1
0.739822
0.361567
0.668011
0.833496
0.279644
0.210177
0.371014
0.689808
0.839281
0.23925
0.67868
0.94977
0.962889
0.999239
1
1
1
1
1
1
1
1
1
1
1
1
1
1
1
1
0.822038
0.616239
0.682696
0.175553
0.127283
0.208098
0.638373
0.689249
0.497443
0.249712
0.682773
0.642264
0.638597
0.999204
0.992804
1
1
1
1
1
1
1
1
1
1
1
1
1
1
1
0.822123
0.822038
0.61435
0.169916
0.133406
0.528547
0.677504
0.678738
0.306732
0.424122
0.54632
0.201087
0.734133
0.94229
0.560169
0.976012
1
1
1
1
1
1
1
1
1
1
1
1
1
1
0.68084
0.208226
0.146784
0.139161
0.463595
0.541962
0.542406
0.280058
0.27513
0.104818
0.0698488
0.0754142
0.374952
0.876941
0.17455
0.403424
0.999999
0.91727
0.792218
0.75877
1
1
0.999967
1
1
1
1
1
1
1
0.748087
0.748977
0.505545
0.0848925
0.0842159
0.0759062
0.125207
0.0869174
0.131111
0.0533658
0.045766
0.0776378
0.0959991
0.335803
0.17379
0.0287389
0.201053
0.26636
0.602729
0.538688
0.802183
0.727449
0.997486
0.893673
0.970595
0.966456
0.997821
0.999316
0.872265
1
0.999769
0.674442
0.925666
0.519596
0.915076
0.543553
0.976392
0.959839
0.959544
0.816092
0.209425
0.0134031
0.136564
0.440406
0.211055
0.077985
0.0214281
0.0213811
0.478571
0.480628
0.170984
0.118892
0.118525
0.118169
0.817271
0.827307
0.608009
0.371189
0.372453
0.421602
0.930807
0.523728
0.555287
0.379342
0.657367
0.55998
0.980801
0.95639
0.95905
0.94616
0.0876282
0.0122088
0.0398207
0.438879
0.192298
0.0483449
0.0210846
0.021019
0.479631
0.476295
0.311165
0.118884
0.118884
0.131433
0.826954
0.829323
0.414665
0.371912
0.405557
0.664694
0.392587
0.467801
0.688069
0.335098
0.330442
0.592854
0.982477
0.874741
0.599029
0.53058
0.0118021
0.0118021
0.0122088
0.367037
0.0966179
0.0225299
0.0210039
0.020979
0.465622
0.200724
0.436985
0.187318
0.118884
0.267102
0.813431
0.830076
0.369387
0.423451
0.641517
0.675564
0.0198251
0.361635
0.897529
0.504753
0.212033
0.209762
0.980653
0.360402
0.0348177
0.137159
0.0131496
0.0202969
0.0221702
0.148536
0.0282961
0.0241313
0.0210083
0.0208316
0.367995
0.154776
0.36653
0.65382
0.266878
0.680677
0.650087
0.830153
0.354931
0.337498
0.641754
0.626453
0.0111288
0.277387
0.975413
0.855762
0.30492
0.0705318
0.492571
0.0400335
0.00363034
0.00390144
0.0104332
0.0174578
0.0141361
0.0096231
0.0208573
0.0789716
0.0779309
0.151868
0.180165
0.145257
0.800856
0.844964
0.779292
0.768517
0.606366
0.830087
0.34425
0.329137
0.641497
0.640896
0.00701768
0.221392
0.992271
0.996509
0.777163
0.0512894
0.129136
0.0705318
0.00329469
0.00378525
0.0116668
0.00823384
0.00896785
0.00657751
0.0892506
0.136521
0.126218
0.152374
0.0932047
0.142866
0.399535
0.845627
0.845023
0.595225
0.507273
0.8301
0.66326
0.331534
0.358359
0.638769
0.0034278
0.158594
0.973145
0.996724
0.675625
0.00507573
0.018963
0.000579889
0.000583823
0.00147372
0.00448759
0.00206589
0.00775612
0.00722734
0.129791
0.143583
0.149767
0.150157
0.0936245
0.334577
0.788461
0.845561
0.845573
0.460119
0.148848
0.481338
0.644039
0.450746
0.258898
0.634579
0.000309372
0.106822
0.860373
0.996724
0.829173
0.00468092
0.000579894
0.000580685
0.000583706
0.000650348
0.000659034
0.00151134
0.0212716
0.0105449
0.0475676
0.0945863
0.0709918
0.0688107
0.137264
0.087266
0.544872
0.826369
0.839978
0.753105
0.148885
0.148681
0.272318
0.467313
0.259677
0.612342
0.000149202
0.091064
0.693347
0.996724
0.885465
0.0198023
0.000591719
0.000581586
0.0010796
0.000726183
0.000678506
0.00819233
0.0566795
0.0133985
0.0132902
0.0363729
0.0564824
0.0380759
0.0410875
0.041894
0.415269
0.379618
0.828142
0.777764
0.148699
0.470496
0.191287
0.372989
0.276891
0.537154
7.7408e-05
0.0606735
0.570877
0.976617
0.968125
0.0560953
0.000708717
0.000993776
0.00108208
0.00108208
0.000689386
0.000694228
0.0574487
0.0118773
0.071412
0.0906906
0.0908739
0.0380759
0.0380759
0.0785646
0.233367
0.193961
0.220185
0.734372
0.14889
0.525677
0.191218
0.191289
0.228023
0.260269
4.05135e-05
0.026261
0.431896
0.893705
0.967893
0.0668338
0.00080982
0.00481803
0.000554819
0.000513314
0.000522023
0.00130304
0.0164992
0.0119429
0.091266
0.0913184
0.0505444
0.0427647
0.0669327
0.221586
0.0988703
0.0988703
0.0988703
0.396727
0.232867
0.307491
0.191184
0.289594
0.231432
0.235875
1.63699e-05
0.01704
0.306702
0.742894
0.91499
0.049666
0.000839
0.00364091
0.000498217
0.000496893
0.000498851
0.00548619
0.00496188
0.0488419
0.0912135
0.0838442
0.00920447
0.0955184
0.0546806
0.247424
0.228959
0.157011
0.100306
0.115635
0.451157
0.535016
0.190048
0.315073
0.290147
0.403916
5.2818e-06
0.0151449
0.235707
0.565422
0.632219
0.0374264
0.00853593
0.0776861
0.0198405
0.000500078
0.000569639
0.00945628
0.0367837
0.0370886
0.0912135
0.0295921
0.00794764
0.0644604
0.133888
0.218352
0.438448
0.437562
0.36769
0.125242
0.42894
0.606956
0.189907
0.167975
0.38564
0.397468
1.51242e-06
0.00583109
0.162357
0.427544
0.338224
0.024486
0.0478444
0.0851041
0.0657885
0.000523071
0.00113128
0.000918656
0.0367566
0.0301072
0.0303517
0.00794764
0.00794764
0.0129975
0.15101
0.0157556
0.036268
0.39843
0.445797
0.14941
0.391262
0.611645
0.374416
0.120387
0.156395
0.295925
6.51677e-07
0.00137199
0.0872658
0.317231
0.247213
0.0102401
0.0110859
0.0778321
0.0797477
0.000962516
0.00114686
0.000771898
0.00327877
0.100099
0.0079769
0.00796227
0.00794764
0.0471468
0.123265
0.0143342
0.0118183
0.229657
0.445577
0.165914
0.365023
0.611645
0.535072
0.120169
0.120387
0.124144
5.29746e-07
0.000158695
0.0288159
0.161074
0.131954
0.000364576
7.99292e-05
0.017803
0.0796103
0.00174217
0.000451328
0.000356179
0.00512908
0.10359
0.0465565
0.0167066
0.00845041
0.0121575
0.00512626
0.00508771
0.00867823
0.111149
0.328551
0.342873
0.355693
0.611645
0.21002
0.120341
0.120195
0.166974
3.99289e-07
0.000394464
0.00842677
0.0165348
0.00131177
1.32944e-06
7.50183e-06
0.000523014
0.0263125
0.00190204
9.19784e-06
7.64854e-05
0.0167587
0.103319
0.103588
0.0355715
0.0229282
0.014914
0.00508793
0.00516422
0.00817729
0.0273458
0.178566
0.335713
0.262619
0.607761
0.21702
0.462791
0.273173
0.280059
3.98929e-07
5.16499e-05
5.32864e-09
3.08589e-11
5.43845e-09
5.84457e-08
6.37213e-07
1.62478e-07
1.76478e-08
1.62889e-07
1.40039e-06
0.00800806
0.0127
0.0636065
0.0469192
0.0329196
0.0214739
0.0214814
0.00703751
0.0507637
0.0243883
0.246738
0.315138
0.259097
0.258035
0.387109
0.555324
0.574383
0.525678
0.112617
1.68251e-08
2.86635e-10
2.48797e-11
8.82383e-12
3.01368e-11
2.70372e-09
6.20082e-08
2.60673e-08
3.96006e-09
1.06221e-06
3.60977e-06
0.0188592
0.0237434
0.0205018
0.0184377
0.0113432
0.00209102
0.0110572
0.00703514
0.164087
0.498467
0.530145
0.524887
0.260105
0.37127
0.572395
0.57387
0.488795
0.238214
0.0543513
3.47055e-12
2.80362e-12
6.14504e-12
7.92593e-12
8.15005e-12
2.76349e-10
1.00457e-08
4.24925e-09
3.35999e-09
-3.46487e-08
0.000380059
0.00241709
0.0102567
0.027714
0.0288384
0.00209102
0.00202682
0.00194186
0.019141
0.431127
0.57294
0.530348
0.142842
0.67611
0.790835
0.79666
0.43572
0.090202
0.0586999
0.0559048
3.36101e-12
1.76501e-12
3.47376e-12
7.55217e-12
2.19135e-11
2.018e-10
1.12071e-09
3.73127e-09
3.46361e-09
2.1808e-09
0.000238869
0.000274658
0.000342169
0.0185354
0.0304115
0.00488921
0.00384275
0.00192111
0.00192977
0.141867
0.42298
0.00368782
0.00303424
0.575131
0.592923
0.79666
0.750606
0.219759
0.0672734
0.28805
3.33009e-13
1.53169e-12
1.95831e-12
6.87562e-12
2.6078e-11
1.27963e-11
1.29059e-11
4.96006e-09
3.46226e-09
3.46367e-09
0.00112613
0.0022073
0.00165746
0.00338724
0.0134079
0.010378
0.00866244
0.00378612
0.0377001
0.0694843
0.0826077
0.00735425
0.00303424
0.0484421
0.0853478
0.434976
0.836353
0.867502
0.709578
0.84147
3.10896e-14
3.23835e-13
5.18272e-12
5.73608e-12
1.86897e-11
6.29038e-12
2.69911e-12
5.01698e-09
3.46495e-09
3.35475e-09
0.00079518
0.00222347
0.000245034
0.000228077
0.000443897
0.00821709
0.0086817
0.00634521
0.00622023
0.00275255
0.00379718
0.00681985
0.00300694
0.00298736
0.00478697
0.00785388
0.123461
0.812332
0.897821
0.897821
2.29213e-15
4.74948e-14
1.59636e-12
1.89229e-12
8.68802e-12
2.14618e-12
2.16027e-12
4.14987e-09
2.97331e-07
9.13742e-08
8.81811e-08
0.00187277
0.000237497
0.000226137
0.000747736
0.00262639
0.00460417
0.00640691
0.0028682
0.000298052
0.00766746
0.0108856
0.00301986
0.00298736
0.00522596
0.00593185
0.427116
0.70582
0.843437
0.897828
1.37855e-16
5.18939e-15
3.15047e-13
3.81577e-13
2.88065e-12
5.89698e-13
2.30002e-12
2.3246e-12
2.12264e-07
3.07622e-07
1.84008e-05
7.23003e-09
0.000176138
0.000226268
0.000854492
0.000445942
0.00195469
0.00594078
0.00172629
0.000265321
0.00203648
3.10234e-06
0.0895829
0.37514
0.298897
0.286962
0.550344
0.55161
0.746621
0.849109
7.4031e-18
4.83793e-16
4.65948e-14
5.47925e-14
7.25958e-13
1.39926e-13
1.97976e-12
8.17255e-12
1.61345e-09
1.41262e-12
5.34268e-10
3.9435e-11
7.23013e-09
3.41298e-05
0.000124816
2.25866e-07
1.36433e-08
4.15301e-08
8.14519e-08
9.71018e-07
9.75374e-07
1.91609e-06
0.427089
0.712097
0.0568722
0.0556351
0.38152
0.621246
0.590952
0.322111
3.46399e-19
3.52267e-17
5.46661e-15
6.01929e-15
1.45058e-13
2.93454e-14
1.16112e-12
1.23622e-12
1.2496e-12
1.40348e-12
1.40935e-12
1.21407e-12
6.22389e-08
2.35514e-06
6.88423e-13
-1.00895e-09
5.31977e-09
1.50461e-08
9.44621e-08
2.11467e-08
3.97072e-08
0.00113447
0.622076
0.75081
0.213318
0.0381925
0.216113
0.621369
0.244052
0.312497
1.49037e-20
2.30193e-18
5.27723e-16
5.19756e-16
2.35086e-14
5.39819e-15
4.84929e-13
1.40209e-13
3.50051e-12
1.68608e-12
1.76085e-12
1.59307e-11
1.15524e-07
2.20526e-07
3.70993e-13
3.70993e-13
9.02169e-09
8.8344e-08
9.98627e-08
6.76747e-10
2.55137e-08
0.0288503
0.624915
0.751588
0.437133
0.0321814
0.172258
0.343561
0.00441722
0.159742
5.13033e-22
1.06135e-19
4.26661e-17
3.61174e-17
3.14503e-15
8.29989e-16
1.55774e-13
1.49084e-14
1.54084e-12
3.80046e-13
1.87343e-12
1.57666e-13
1.64761e-13
5.89564e-13
5.72135e-13
1.40827e-12
2.95992e-13
1.06776e-10
2.44547e-08
-7.83849e-14
-5.65515e-10
0.00968719
0.30218
0.751278
0.583
0.0296537
0.0259221
0.0997864
0.000622891
0.1717
1.4999e-23
4.00838e-21
2.94319e-18
1.88309e-18
3.4992e-16
9.68609e-17
4.05028e-14
1.20457e-15
6.12254e-13
3.33832e-14
1.7517e-12
1.48881e-13
7.54077e-13
1.0283e-12
1.12401e-12
1.04557e-13
2.87272e-13
4.92865e-13
2.3015e-16
2.5e-14
-5.66131e-12
9.46832e-05
0.0175632
0.375203
0.499883
0.0575716
0.000385234
0.000166809
0.000162148
2.51717e-15
0.752554
0.751826
0.597039
0.0838839
0.0728907
0.0730227
0.204166
0.0880141
0.233853
0.0497022
0.0470227
0.0135457
0.159368
0.0219772
0.0219772
0.039047
0.0120647
0.125589
0.577531
0.290389
0.372612
0.316644
0.395625
0.262783
0.63794
0.491611
0.711779
0.996341
0.534964
0.853728
0.752372
0.752703
0.625751
0.345249
0.0841788
0.0727322
0.210689
0.0895673
0.233853
0.059972
0.0958959
0.0124742
0.163327
0.0786019
0.023979
0.0444834
0.0115422
0.23494
0.604341
0.255628
0.135559
0.109988
0.380666
0.246102
0.48547
0.400661
0.741995
0.990817
0.394024
0.369023
0.72414
0.751103
0.341184
0.440557
0.185205
0.0736384
0.214868
0.222694
0.138272
0.117983
0.109907
0.0111811
0.169594
0.178426
0.117061
0.0320706
0.00322962
0.32214
0.605307
0.229299
0.00469179
0.00409533
0.354394
0.24679
0.128768
0.0664746
0.445984
0.973481
0.376018
0.0237715
0.400121
0.74659
0.352157
0.466687
0.10124
0.0952601
0.183409
0.224543
0.0466165
0.117273
0.0638144
0.0104296
0.10091
0.178426
0.178413
0.00319876
0.0031805
0.251021
0.605945
0.142186
0.00369414
0.00369414
0.218035
0.084883
0.0211591
0.0214545
0.307385
0.993294
0.367951
0.0220889
0.391093
0.537055
0.536335
0.482036
0.116861
0.143635
0.118006
0.223743
0.0464496
0.118088
0.0153133
0.00941728
0.0321189
0.178426
0.040027
0.00310373
0.00315313
0.330111
0.605887
0.0219415
0.0062749
0.00369414
0.00728454
0.0185598
0.0209852
0.0211591
0.562969
0.996712
0.318129
0.0186296
0.392732
0.392223
0.530015
0.319995
0.311625
0.0855372
0.0910848
0.147913
0.0465944
0.117819
0.0378396
0.00830057
0.0730267
0.172874
0.00482855
0.0028588
0.0281588
0.592393
0.605736
0.0152511
0.0783449
0.00976272
0.00245811
0.0151647
0.0825903
0.0214545
0.872506
0.996706
0.256675
0.00962809
0.530456
0.580644
0.339009
0.161678
0.125894
0.0361397
0.0361366
0.0367075
0.0560065
0.118021
0.00838468
0.00684083
0.00639924
0.117576
0.0517903
0.00197244
0.0021846
0.484968
0.387944
0.0188317
0.100427
0.0237557
0.00238594
0.00235773
0.521802
0.111825
0.993718
0.916947
0.213457
0.00456298
0.599807
0.58707
0.211752
0.136256
0.0361613
0.0360581
0.0361613
0.0362114
0.0852535
0.0921539
0.0146325
0.00555985
0.0012081
0.00797958
0.0145482
0.00222824
0.00212422
0.245724
0.0143501
0.00473566
0.100427
0.0797713
0.00243547
0.00237433
0.654457
0.787184
0.997837
0.708921
0.16753
0.00224123
0.589891
0.54161
0.205767
0.19662
0.0520566
0.0361581
0.0362106
0.0362106
0.0362406
0.0364474
0.0358046
0.0179124
0.00101797
0.0012081
0.00596561
0.000532036
0.00221269
0.003964
0.00406509
0.00413191
0.100427
0.100352
0.0121901
0.00235751
0.256039
0.992289
0.997837
0.605817
0.136203
0.00117534
0.589891
0.341404
0.21681
0.232858
0.191503
0.0548822
0.0368404
0.039592
0.0481812
0.0513089
0.127583
0.000943353
0.000716968
0.0029609
0.00557817
0.000442975
0.00915716
0.0138046
0.00409165
0.00410265
0.100303
0.057473
0.00967612
0.00242126
0.0380683
0.983608
0.996565
0.500346
0.090918
0.000544651
0.587734
0.588024
0.463488
0.192495
0.193009
0.0532003
0.061688
0.0920836
0.151785
0.193827
0.21991
0.034145
0.000331109
0.000213634
0.00013036
0.000127847
0.000130256
0.0521731
0.00434801
0.0792768
0.0950082
0.0142858
0.00248527
0.00248475
0.226513
0.987137
0.941257
0.374888
0.0638584
0.00022783
0.587171
0.458403
0.458758
0.129378
0.0701272
0.02452
0.0561244
0.102708
0.222833
0.222239
0.220735
0.0665935
0.00465665
0.000144202
0.000131784
0.00012536
0.000125373
0.0311143
0.0895056
0.114234
0.0249158
0.0102647
0.00241254
0.00248475
0.565822
0.990677
0.72676
0.267093
0.0417383
4.52802e-05
0.382988
0.16863
0.250904
0.0343579
0.02452
0.02452
0.0363587
0.0835681
0.0631536
0.22291
0.0388108
0.0514001
0.00986787
0.000196319
0.000174728
0.000174119
0.000127693
0.000218952
0.114234
0.114234
0.0136567
0.00219816
0.00217807
0.197548
0.765998
0.99063
0.439609
0.200445
0.0325027
1.96394e-05
0.214354
0.157505
0.0259636
0.0255845
0.0250536
0.0316313
0.14401
0.0826922
0.045869
0.209007
0.000369169
0.000360996
0.000359399
0.000323596
0.000361213
0.000358267
0.000133727
0.000138842
0.0179296
0.0752685
0.0172826
0.00216668
0.0268557
0.327959
0.935395
0.97296
0.236159
0.120577
0.013612
1.08807e-05
0.168601
0.230668
0.159713
0.0340926
0.0253295
0.0258173
0.144456
0.0426602
0.0330701
0.110628
0.000369533
0.00036347
0.000357222
0.000348721
0.00029396
0.000241738
0.000140017
0.000293429
0.000305224
0.00140674
0.000514095
0.00223401
0.105434
0.146003
0.883037
0.41445
0.0885396
0.0575965
0.0086912
5.9584e-06
0.230665
0.230516
0.230539
0.0603145
0.0250745
0.0251629
0.142549
0.0418812
0.0346438
0.13174
0.0275085
0.000369533
0.000363466
0.000362456
0.000698451
0.000965327
0.000829109
0.000322554
0.000653004
0.000513937
0.000514908
0.00401889
0.0246934
0.034685
0.628717
0.00159282
1.63987e-05
0.00391375
0.000324866
7.94239e-07
0.0925096
0.108708
0.184654
0.0785089
0.0253911
0.0251412
0.0579412
0.144372
0.163027
0.0988252
0.125082
0.0268586
0.000363593
0.000428371
0.00109408
0.00118482
0.00118208
0.000347984
0.00277351
0.00114071
0.000514101
0.0082685
0.00338261
0.103829
0.123315
0.000911987
2.89248e-07
3.06315e-08
1.19298e-10
3.08003e-09
0.0491165
0.0488959
0.0488959
0.0469188
0.0457678
0.0774934
0.0771164
0.175826
0.175826
0.0951582
0.124929
0.059221
0.0017675
0.0019117
6.96291e-05
0.000301963
0.00114222
0.000534215
0.00137679
0.00486028
0.0181343
0.0156982
0.00336897
0.11604
0.0460975
0.000232009
4.97956e-08
1.19457e-10
3.98193e-12
1.98764e-12
0.0512244
0.0724929
0.0592156
0.0633766
0.166659
0.163949
0.115723
0.064697
0.13281
0.0672761
0.125063
0.120836
0.0437051
0.00750152
1.22174e-05
1.13613e-05
0.000154433
0.00044606
2.00671e-06
0.0202128
0.0275675
0.00924832
0.00134482
0.116207
0.0439208
8.10699e-05
1.63258e-10
1.95576e-11
1.89651e-11
1.84034e-12
0.122394
0.120344
0.241533
0.243134
0.243134
0.151021
0.0356447
0.000626094
0.000626094
0.00204812
0.0342058
0.0198215
0.0178527
0.0147495
0.000567589
4.84019e-06
3.72619e-06
0.000188049
6.69914e-09
0.0164207
0.0275338
0.00627693
0.000939107
0.116203
0.0286149
1.24527e-05
2.19669e-10
4.87753e-12
4.67343e-12
3.26803e-13
0.28293
0.0383717
0.0366616
0.0369356
0.0315664
0.0107213
0.0015529
0.0021366
0.000739922
0.000146417
2.06101e-05
1.04657e-05
4.55025e-06
0.00134193
0.000583156
1.25867e-07
4.053e-09
1.77296e-09
3.17582e-09
0.000893222
0.0108318
2.32833e-05
2.228e-08
0.116193
0.00938591
7.29122e-08
9.66762e-11
1.91738e-12
2.06514e-12
6.15717e-14
0.236537
0.0464387
0.152766
0.024691
0.0246664
0.0326529
0.00013576
0.000686067
0.000901722
0.000591393
6.38159e-06
3.30149e-06
4.93641e-07
1.64547e-07
8.44342e-08
1.52905e-07
1.63237e-07
1.79899e-09
4.05484e-07
9.37887e-08
1.28973e-06
7.42894e-07
2.22178e-08
0.01588
0.000293739
1.30033e-06
1.02303e-11
1.01353e-12
8.30768e-13
1.36058e-14
0.795736
0.75818
0.511104
0.0656434
0.116707
0.104284
2.33717e-05
6.48737e-05
0.00047631
0.000415983
5.16533e-06
4.50601e-06
1.99348e-06
7.82959e-08
2.05996e-08
4.11618e-10
3.05079e-10
2.99373e-10
1.55532e-10
6.51015e-11
1.59373e-07
1.25745e-06
1.34999e-08
-1.0628e-08
1.26572e-07
4.09581e-08
7.06516e-12
4.29798e-12
2.39206e-13
2.83898e-15
0.897358
0.896103
0.424139
0.076235
0.167362
0.135211
2.37794e-05
2.89481e-05
8.26365e-05
1.3529e-05
5.17314e-06
6.23457e-06
0.000674315
3.58373e-05
1.04701e-07
1.2678e-09
3.18354e-10
3.23091e-10
1.73573e-10
6.3517e-11
5.25672e-11
2.52583e-08
1.18613e-08
8.34885e-09
3.4153e-09
1.09722e-11
1.9009e-12
1.64152e-12
5.2993e-14
5.06624e-16
0.896653
0.669417
0.185642
0.157822
0.167172
0.063699
2.3734e-05
0.00142573
0.00148286
0.000211853
5.18095e-06
0.000189084
0.00152391
0.000394307
2.96573e-07
5.30582e-07
1.3378e-08
3.5231e-10
2.18648e-10
7.00164e-11
6.7194e-11
2.53405e-10
4.29097e-09
4.31223e-09
8.44966e-11
1.80822e-12
1.79068e-12
3.71614e-13
9.67297e-15
7.48388e-17
0.450283
0.138186
0.0934571
0.15696
0.105909
5.20613e-05
3.23633e-05
0.000683515
0.00148374
0.000162088
3.35068e-05
0.00130561
0.00153478
0.000699479
2.81941e-05
3.84422e-06
1.11581e-07
1.00826e-10
1.4117e-10
3.36503e-11
3.13006e-11
1.88525e-11
1.22997e-10
1.35155e-10
4.26855e-12
1.13539e-12
4.58572e-13
7.1222e-14
1.47137e-15
9.05789e-18
0.0628877
0.0463579
0.0429917
0.0334184
0.000542529
4.14433e-05
4.1443e-05
4.1385e-05
0.000157538
0.00025789
0.000567572
0.00401035
0.00095073
0.000957493
0.000450602
2.79738e-09
1.82852e-11
1.69769e-12
2.01228e-11
7.95014e-12
2.58989e-12
2.08037e-12
6.22603e-12
6.14339e-12
1.34189e-12
1.10452e-12
1.01703e-13
1.16642e-14
1.85961e-16
8.71928e-19
0.225461
0.0501791
0.0929924
0.122582
0.0271613
0.0360593
4.13871e-05
4.55262e-05
0.000119323
0.00103225
0.00125998
0.00401035
0.000334305
3.02613e-05
3.82215e-09
-1.62077e-11
-1.44881e-13
3.75541e-13
9.72427e-13
1.37348e-12
2.30858e-12
1.90257e-13
6.23361e-13
8.18455e-13
2.06446e-12
2.75244e-13
1.95214e-14
1.62661e-15
1.91331e-17
6.4285e-20
0.317284
0.305521
0.30431
0.304812
0.288129
0.141571
0.0569462
0.0817566
0.0838261
0.0184498
0.00106077
0.00401035
0.00295756
0.000435654
2.78684e-08
-9.62773e-13
5.62853e-17
1.1767e-13
1.63105e-13
1.48461e-13
1.05608e-12
1.46881e-14
1.32165e-13
1.07158e-12
5.70945e-13
5.81476e-14
3.17301e-15
1.92146e-16
1.54639e-18
3.3082e-21
0.170194
0.188985
0.109181
0.14092
0.287023
0.145981
0.0726118
0.118592
0.118592
0.085774
0.00530079
0.00132951
0.000662451
0.000460145
1.72506e-05
3.12822e-24
5.2832e-17
2.1234e-16
1.01645e-15
6.25628e-15
2.36332e-13
1.41527e-15
2.9228e-14
1.98929e-13
1.22336e-13
1.04131e-14
4.11599e-16
1.87391e-17
8.4216e-20
8.70328e-23
)
;

boundaryField
{
    leftWall
    {
        type            zeroGradient;
    }
    rightWall
    {
        type            zeroGradient;
    }
    lowerWall
    {
        type            zeroGradient;
    }
    atmosphere
    {
        type            inletOutlet;
        inletValue      uniform 0;
        value           nonuniform List<scalar> 
120
(
0.999769
0.930807
0.392587
0.0198251
0.0111288
0.00701768
0.0034278
0.000309372
0.000149202
7.7408e-05
4.05135e-05
1.63699e-05
5.2818e-06
1.51242e-06
6.51677e-07
5.29746e-07
3.99289e-07
3.98929e-07
1.68251e-08
3.47055e-12
3.36101e-12
3.33009e-13
3.10896e-14
2.29213e-15
1.37855e-16
7.4031e-18
3.46399e-19
1.49037e-20
5.13033e-22
1.4999e-23
1.4999e-23
4.00838e-21
2.94319e-18
1.88309e-18
3.4992e-16
9.68609e-17
4.05028e-14
0
0
0
0
0
0
1.0283e-12
0
0
2.87272e-13
0
0
2.5e-14
-5.66131e-12
9.46832e-05
0.0175632
0.375203
0.499883
0.0575716
0.000385234
0.000166809
0
0
0.170194
0.188985
0.109181
0.14092
0.287023
0.145981
0.0726118
0.118592
0.118592
0.085774
0.00530079
0
0
0
0
0
0
0
0
6.25628e-15
2.36332e-13
1.41527e-15
2.9228e-14
1.98929e-13
1.22336e-13
1.04131e-14
4.11599e-16
1.87391e-17
8.4216e-20
8.70328e-23
0.853728
0.369023
0.0237715
0.0220889
0.0186296
0.00962809
0.00456298
0.00224123
0.00117534
0.000544651
0.00022783
4.52802e-05
1.96394e-05
1.08807e-05
5.9584e-06
7.94239e-07
3.08003e-09
1.98764e-12
1.84034e-12
3.26803e-13
6.15717e-14
1.36058e-14
2.83898e-15
5.06624e-16
7.48388e-17
9.05789e-18
8.71928e-19
6.4285e-20
3.3082e-21
8.70328e-23
)
;
    }
    defaultFaces
    {
        type            empty;
    }
}


// ************************************************************************* //
