/*--------------------------------*- C++ -*----------------------------------*\
| =========                 |                                                 |
| \\      /  F ield         | OpenFOAM: The Open Source CFD Toolbox           |
|  \\    /   O peration     | Version:  2.4.0                                 |
|   \\  /    A nd           | Web:      www.OpenFOAM.org                      |
|    \\/     M anipulation  |                                                 |
\*---------------------------------------------------------------------------*/
FoamFile
{
    version     2.0;
    format      ascii;
    class       volScalarField;
    location    "0.179";
    object      alpha.water;
}
// * * * * * * * * * * * * * * * * * * * * * * * * * * * * * * * * * * * * * //

dimensions      [0 0 0 0 0 0 0];

internalField   nonuniform List<scalar> 
10000
(
3.48429e-60
2.33812e-56
2.73054e-53
6.61693e-51
6.39378e-49
3.74312e-47
1.78275e-45
8.07587e-44
3.71591e-42
1.70667e-40
7.524e-39
3.07176e-37
1.1125e-35
3.43325e-34
9.01015e-33
2.0256e-31
3.82983e-30
5.95441e-29
7.79857e-28
8.73823e-27
8.31085e-26
6.78591e-25
4.79621e-24
2.93007e-23
1.53184e-22
6.75926e-22
2.47694e-21
7.30363e-21
1.6134e-20
2.24994e-20
1.99886e-20
1.14606e-20
4.42229e-21
1.21083e-21
2.57788e-22
4.25372e-23
5.47552e-24
5.51013e-25
4.23236e-26
2.4759e-27
1.10186e-28
3.71149e-30
9.36491e-32
1.73699e-33
2.28815e-35
2.02528e-37
1.11871e-39
3.44086e-42
4.24012e-43
2.89169e-41
1.01636e-56
7.29908e-53
7.66551e-50
1.84552e-47
1.86581e-45
1.1608e-43
5.80865e-42
2.66429e-40
1.1825e-38
5.04698e-37
2.01141e-35
7.28343e-34
2.30987e-32
6.19305e-31
1.40647e-29
2.73259e-28
4.48801e-27
6.09004e-26
6.94894e-25
6.79566e-24
5.67425e-23
4.08933e-22
2.56894e-21
1.40567e-20
6.64133e-20
2.67996e-19
9.09661e-19
2.51511e-18
5.29377e-18
7.41782e-18
6.98671e-18
4.48111e-18
2.04511e-18
7.21988e-19
2.13075e-19
5.13397e-20
1.01941e-20
1.66516e-21
2.20154e-22
2.31203e-23
1.89135e-24
1.17509e-25
5.35431e-27
1.7087e-28
3.56086e-30
4.28241e-32
2.37126e-34
1.20788e-36
4.85523e-35
1.95632e-33
7.22657e-54
6.44391e-50
6.40847e-47
1.50611e-44
1.54001e-42
9.91038e-41
5.07099e-39
2.29521e-37
9.64249e-36
3.78177e-34
1.35607e-32
4.34869e-31
1.2091e-29
2.82583e-28
5.58107e-27
9.41364e-26
1.34734e-24
1.60032e-23
1.59567e-22
1.36349e-21
9.99418e-21
6.35638e-20
3.55134e-19
1.74491e-18
7.48922e-18
2.78214e-17
8.80301e-17
2.29417e-16
4.61997e-16
6.46444e-16
6.34712e-16
4.43365e-16
2.27441e-16
9.44985e-17
3.36921e-17
1.00826e-17
2.53986e-18
5.35068e-19
9.26851e-20
1.29312e-20
1.41923e-21
1.18775e-22
7.23667e-24
3.00633e-25
7.69195e-27
1.00728e-28
4.80151e-31
1.11562e-31
4.10143e-30
1.04259e-28
2.91694e-51
3.03214e-47
2.7141e-44
6.08189e-42
6.16953e-40
4.02793e-38
2.05673e-36
8.98002e-35
3.51202e-33
1.25229e-31
4.02148e-30
1.14051e-28
2.78311e-27
5.68672e-26
9.80414e-25
1.44054e-23
1.80069e-22
1.87613e-21
1.63979e-20
1.22717e-19
7.90765e-19
4.44463e-18
2.21162e-17
9.77882e-17
3.82577e-16
1.31317e-15
3.88566e-15
9.57035e-15
1.84772e-14
2.56898e-14
2.59688e-14
1.93674e-14
1.08613e-14
5.06492e-15
2.05293e-15
7.11007e-16
2.10389e-16
5.25999e-17
1.0908e-17
1.83663e-18
2.44693e-19
2.49157e-20
1.8404e-21
9.09555e-23
2.64044e-24
3.52576e-26
1.49948e-28
5.36989e-28
1.3768e-26
2.51156e-25
9.74919e-49
9.25167e-45
7.21167e-42
1.51148e-39
1.5078e-37
9.79163e-36
4.86982e-34
2.0086e-32
7.20447e-31
2.31145e-29
6.61419e-28
1.65652e-26
3.55159e-25
6.36117e-24
9.60007e-23
1.23181e-21
1.34667e-20
1.2322e-19
9.46405e-19
6.21903e-18
3.52974e-17
1.75655e-16
7.79617e-16
3.1064e-15
1.10933e-14
3.52201e-14
9.754e-14
2.27313e-13
4.21348e-13
5.80157e-13
5.98674e-13
4.69742e-13
2.83269e-13
1.44157e-13
6.436e-14
2.48745e-14
8.307e-15
2.36476e-15
5.62598e-16
1.09391e-16
1.69215e-17
2.00695e-18
1.72593e-19
9.82513e-21
3.17671e-22
4.32966e-24
2.70147e-26
3.76224e-25
7.36215e-24
1.0464e-22
2.72292e-46
2.01414e-42
1.34597e-39
2.62689e-37
2.54338e-35
1.60547e-33
7.59749e-32
2.90713e-30
9.44302e-29
2.6998e-27
6.84763e-26
1.51263e-24
2.85346e-23
4.49162e-22
5.94769e-21
6.67737e-20
6.38888e-19
5.13426e-18
3.46998e-17
2.00615e-16
1.00453e-15
4.43363e-15
1.7579e-14
6.31808e-14
2.05924e-13
6.04164e-13
1.56435e-12
3.44987e-12
6.14706e-12
8.36684e-12
8.76426e-12
7.16034e-12
4.59014e-12
2.50553e-12
1.2099e-12
5.11477e-13
1.88719e-13
5.98764e-14
1.59993e-14
3.51744e-15
6.18792e-16
8.38672e-17
8.26891e-18
5.38526e-19
1.9558e-20
2.83107e-22
3.8999e-24
7.30897e-23
1.1674e-21
1.3685e-20
6.10329e-44
3.33009e-40
1.90155e-37
3.43471e-35
3.1698e-33
1.8996e-31
8.38239e-30
2.93304e-28
8.54271e-27
2.15792e-25
4.82375e-24
9.38818e-23
1.56091e-21
2.16566e-20
2.52268e-19
2.48317e-18
2.08015e-17
1.46716e-16
8.72431e-16
4.44209e-15
1.96399e-14
7.69554e-14
2.72924e-13
8.85554e-13
2.63214e-12
7.12004e-12
1.71938e-11
3.58563e-11
6.14899e-11
8.2703e-11
8.76446e-11
7.39942e-11
5.00367e-11
2.89904e-11
1.49764e-11
6.84338e-12
2.7578e-12
9.65247e-13
2.87056e-13
7.07768e-14
1.40599e-14
2.16652e-15
2.4464e-16
1.83913e-17
7.72119e-19
1.26651e-20
3.09203e-22
5.57705e-21
7.65734e-20
7.7306e-19
1.11846e-41
4.37762e-38
2.12347e-35
3.51143e-33
3.02809e-31
1.68715e-29
6.83363e-28
2.16312e-26
5.60887e-25
1.24307e-23
2.43372e-22
4.16697e-21
6.11452e-20
7.50008e-19
7.71041e-18
6.67468e-17
4.89965e-16
3.03072e-15
1.58377e-14
7.10063e-14
2.77192e-13
9.64166e-13
3.06009e-12
8.96894e-12
2.42937e-11
6.04198e-11
1.35615e-10
2.67135e-10
4.41336e-10
5.87221e-10
6.28578e-10
5.4517e-10
3.86053e-10
2.36039e-10
1.2975e-10
6.37161e-11
2.79062e-11
1.07393e-11
3.54833e-12
9.80723e-13
2.20179e-13
3.86764e-14
5.03249e-15
4.42922e-16
2.22323e-17
4.43647e-19
1.27761e-20
2.06882e-19
2.54662e-18
2.29173e-17
1.69779e-39
4.70562e-36
1.9261e-33
2.86985e-31
2.26769e-29
1.15475e-27
4.24111e-26
1.20457e-24
2.76721e-23
5.35694e-22
9.12776e-21
1.37105e-19
1.77506e-18
1.92907e-17
1.75633e-16
1.34263e-15
8.65617e-15
4.69634e-14
2.15394e-13
8.49331e-13
2.92484e-12
9.02228e-12
2.56128e-11
6.77975e-11
1.67275e-10
3.81607e-10
7.93173e-10
1.47449e-09
2.3463e-09
3.10109e-09
3.35049e-09
2.96874e-09
2.18826e-09
1.40853e-09
8.22345e-10
4.33066e-10
2.05842e-10
8.71205e-11
3.20535e-11
9.97202e-12
2.54468e-12
5.13342e-13
7.77606e-14
8.14142e-15
5.03282e-16
1.30293e-17
3.15696e-19
4.29821e-18
4.91984e-17
4.06263e-16
2.10411e-37
4.24617e-34
1.4582e-31
1.93055e-29
1.37091e-27
6.27052e-26
2.05892e-24
5.20151e-23
1.05433e-21
1.77984e-20
2.62497e-19
3.44255e-18
3.9221e-17
3.77628e-16
3.05123e-15
2.06808e-14
1.17572e-13
5.60516e-13
2.25596e-12
7.81056e-12
2.36875e-11
6.46918e-11
1.64082e-10
3.91881e-10
8.80139e-10
1.83933e-09
3.52849e-09
6.19704e-09
9.46076e-09
1.26302e-08
1.37598e-08
1.23277e-08
9.38795e-09
6.36305e-09
3.94687e-09
2.22819e-09
1.14963e-09
5.36329e-10
2.20772e-10
7.78329e-11
2.27604e-11
5.32242e-12
9.48767e-13
1.19768e-13
9.33978e-15
3.30535e-16
5.98512e-18
5.52166e-17
6.0782e-16
4.72399e-15
2.13716e-35
3.21535e-32
9.26786e-30
1.07491e-27
6.79063e-26
2.77482e-24
8.11377e-23
1.80848e-21
3.20705e-20
4.69027e-19
5.95279e-18
6.7674e-17
6.75405e-16
5.74607e-15
4.11709e-14
2.47931e-13
1.24868e-12
5.25231e-12
1.85906e-11
5.64521e-11
1.50417e-10
3.62822e-10
8.21063e-10
1.76773e-09
3.61042e-09
6.90777e-09
1.21946e-08
2.03718e-08
2.95328e-08
4.28085e-08
4.69376e-08
4.12159e-08
3.15777e-08
2.24222e-08
1.47686e-08
8.93283e-09
5.00007e-09
2.57419e-09
1.19017e-09
4.78503e-10
1.61629e-10
4.42072e-11
9.36233e-12
1.43917e-12
1.43316e-13
7.1637e-15
1.18973e-16
4.70146e-16
5.14259e-15
3.84825e-14
1.69993e-33
1.9736e-30
4.79897e-28
4.83086e-26
2.7024e-24
9.8175e-23
2.5476e-21
5.02164e-20
7.8536e-19
1.00841e-17
1.10187e-16
1.06816e-15
9.25896e-15
6.92351e-14
4.38766e-13
2.34539e-12
1.05006e-11
3.92008e-11
1.22677e-10
3.27062e-10
7.6349e-10
1.62192e-09
3.26825e-09
6.3387e-09
1.17672e-08
2.06068e-08
3.33229e-08
5.38145e-08
7.34296e-08
1.44709e-07
1.52295e-07
1.26766e-07
9.03555e-08
6.43869e-08
4.42884e-08
2.84637e-08
1.71929e-08
9.7486e-09
5.07128e-09
2.33569e-09
9.16961e-10
2.95408e-10
7.48645e-11
1.41037e-11
1.79883e-12
1.27005e-13
2.87343e-15
2.79835e-15
3.14468e-14
2.31459e-13
1.05654e-31
9.80515e-29
2.01137e-26
1.75149e-24
8.59919e-23
2.76432e-21
6.34211e-20
1.1034e-18
1.52162e-17
1.72031e-16
1.64672e-15
1.38713e-14
1.03664e-13
6.70928e-13
3.74738e-12
1.7742e-11
7.07015e-11
2.3582e-10
6.58635e-10
1.54839e-09
3.16027e-09
5.89283e-09
1.05506e-08
1.84005e-08
3.10284e-08
4.97054e-08
7.28237e-08
1.15516e-07
1.51419e-07
5.60143e-07
3.61393e-07
3.55597e-07
2.52724e-07
1.6394e-07
1.10458e-07
7.29753e-08
4.67701e-08
2.90011e-08
1.69591e-08
8.96945e-09
4.10865e-09
1.56596e-09
4.76846e-10
1.10361e-10
1.79767e-11
1.76963e-12
6.85839e-14
1.23837e-14
1.44911e-13
1.07132e-12
5.06323e-30
3.86435e-27
6.73787e-25
5.08043e-23
2.16796e-21
6.10189e-20
1.23685e-18
1.90269e-17
2.32136e-16
2.32273e-15
1.9634e-14
1.44637e-13
9.44794e-13
5.36018e-12
2.59492e-11
1.08558e-10
3.85561e-10
1.15684e-09
2.92527e-09
6.10783e-09
1.09182e-08
1.7781e-08
2.82937e-08
4.41126e-08
6.73697e-08
9.81579e-08
1.2694e-07
1.87605e-07
2.93559e-07
1.83474e-06
4.48518e-06
2.54168e-06
7.18099e-07
4.04648e-07
2.40874e-07
1.52895e-07
1.00263e-07
6.69482e-08
4.38459e-08
2.66472e-08
1.42643e-08
6.4411e-09
2.35883e-09
6.70155e-10
1.38598e-10
1.85749e-11
1.18986e-12
5.32021e-14
5.21336e-13
3.95667e-12
1.81373e-28
1.14756e-25
1.72437e-23
1.14337e-21
4.31949e-20
1.06714e-18
1.89191e-17
2.57874e-16
2.79236e-15
2.48027e-14
1.85908e-13
1.20745e-12
6.94016e-12
3.4744e-11
1.48502e-10
5.43163e-10
1.72088e-09
4.68785e-09
1.09562e-08
2.04964e-08
3.22626e-08
4.55712e-08
6.50825e-08
8.93324e-08
1.22488e-07
1.59232e-07
1.74837e-07
1.74748e-07
1.67638e-06
1.24249e-05
1.27096e-05
1.27084e-05
4.08972e-06
3.86907e-07
3.75358e-07
2.52823e-07
1.68325e-07
1.19227e-07
8.69281e-08
6.05993e-08
3.78518e-08
2.02088e-08
8.87611e-09
3.08236e-09
8.02407e-10
1.43052e-10
1.42007e-11
4.59498e-13
1.50614e-12
1.2018e-11
4.69605e-27
2.51791e-24
3.32255e-22
1.96546e-20
6.65914e-19
1.47271e-17
2.31095e-16
2.75867e-15
2.65773e-14
2.10454e-13
1.40583e-12
8.10127e-12
4.10717e-11
1.82157e-10
6.92861e-10
2.25673e-09
6.35968e-09
1.58773e-08
3.52075e-08
5.96475e-08
8.20337e-08
1.01052e-07
1.33457e-07
1.56427e-07
1.89012e-07
2.09667e-07
1.99014e-07
1.7486e-07
7.23688e-06
1.27133e-05
1.27132e-05
1.27096e-05
1.02811e-05
6.53713e-07
3.60093e-07
2.49262e-07
2.0096e-07
1.63441e-07
1.34836e-07
1.07264e-07
7.74532e-08
4.84444e-08
2.52928e-08
1.06301e-08
3.43613e-09
7.94984e-10
1.1362e-10
6.37115e-12
3.5865e-12
3.07902e-11
8.69723e-26
4.05138e-23
4.77779e-21
2.55037e-19
7.81136e-18
1.56113e-16
2.21154e-15
2.35726e-14
2.00271e-13
1.42118e-12
8.50513e-12
4.37539e-11
1.96617e-10
7.74776e-10
2.63672e-09
7.72357e-09
1.9714e-08
4.5299e-08
9.67132e-08
1.44055e-07
1.66746e-07
2.00163e-07
2.51493e-07
2.40378e-07
2.47116e-07
2.19297e-07
2.14195e-07
2.16678e-07
3.55442e-07
9.29057e-06
1.27164e-05
1.21424e-05
3.51331e-06
2.94272e-07
2.82369e-07
6.60927e-07
2.14077e-07
2.00587e-07
1.83196e-07
1.60339e-07
1.29207e-07
9.21004e-08
5.59602e-08
2.79498e-08
1.10053e-08
3.21757e-09
6.25408e-10
5.97552e-11
7.87566e-12
6.80206e-11
1.14864e-24
4.75058e-22
5.06172e-20
2.45523e-18
6.84482e-17
1.24679e-15
1.61148e-14
1.56704e-13
1.1997e-12
7.61964e-12
4.1104e-11
1.90067e-10
7.63496e-10
2.68668e-09
8.20572e-09
2.16717e-08
5.0461e-08
1.08983e-07
2.13597e-07
1.56504e-07
1.81064e-07
4.04491e-07
4.39074e-07
3.21263e-07
2.59171e-07
4.33762e-07
2.27886e-07
2.5852e-07
2.66242e-07
4.84404e-07
1.66339e-06
6.6284e-07
3.1068e-07
2.95827e-07
2.81695e-07
2.6502e-07
2.52929e-07
2.4277e-07
2.29928e-07
2.11134e-07
1.82948e-07
1.44284e-07
9.9596e-08
5.78742e-08
2.71644e-08
9.76844e-09
2.46579e-09
3.56424e-10
2.42309e-11
1.31695e-10
1.07927e-23
4.02553e-21
3.91114e-19
1.73787e-17
4.45146e-16
7.46831e-15
8.90427e-14
7.98523e-13
5.62918e-12
3.23713e-11
1.58593e-10
6.65411e-10
2.41184e-09
7.6058e-09
2.07712e-08
4.9097e-08
1.03793e-07
2.10411e-07
3.26585e-07
3.6755e-06
5.30091e-06
1.32558e-06
7.07912e-07
3.67197e-07
2.9516e-07
2.82522e-07
5.43399e-07
2.69358e-07
2.79316e-07
2.81223e-07
2.83056e-07
2.88323e-07
2.94026e-07
2.90181e-07
2.87279e-07
2.72904e-07
2.69129e-07
2.67448e-07
2.62062e-07
2.49857e-07
2.28217e-07
1.94405e-07
1.48881e-07
9.84309e-08
5.38503e-08
2.32032e-08
7.31838e-09
1.45597e-09
1.23533e-10
2.25971e-10
7.25447e-23
2.47095e-20
2.21011e-18
9.07027e-17
2.15313e-15
3.36007e-14
3.73719e-13
3.13156e-12
2.05903e-11
1.09872e-10
4.92123e-10
1.88738e-09
6.19067e-09
1.74068e-08
4.1958e-08
8.73788e-08
1.65834e-07
3.05197e-07
4.59181e-06
9.43825e-06
9.43813e-06
8.5957e-06
1.04014e-06
3.8583e-07
2.92029e-07
2.88634e-07
2.88738e-07
2.88577e-07
2.9233e-07
2.93677e-07
3.02667e-07
3.14229e-07
3.26685e-07
3.38609e-07
2.88336e-07
6.40798e-07
2.78989e-07
2.84752e-07
2.83963e-07
2.77507e-07
2.62703e-07
2.36365e-07
1.95977e-07
1.43943e-07
8.96861e-08
4.51708e-08
1.72393e-08
4.43542e-09
5.64106e-10
3.50576e-10
3.54433e-22
1.1158e-19
9.27689e-18
3.55394e-16
7.90517e-15
1.15909e-13
1.21359e-12
9.58297e-12
5.93472e-11
2.96716e-10
1.22566e-09
4.28287e-09
1.26486e-08
3.15759e-08
6.69263e-08
1.22622e-07
2.13556e-07
5.0672e-07
8.31872e-06
9.44062e-06
9.4407e-06
8.99336e-06
1.26771e-06
3.99236e-07
3.01814e-07
3.03724e-07
3.08247e-07
2.96465e-07
3.27774e-07
3.10899e-07
3.22189e-07
3.46312e-07
3.86625e-07
3.18398e-07
3.02328e-07
3.00966e-07
2.92552e-07
3.23529e-07
3.16572e-07
3.0409e-07
2.89965e-07
2.69315e-07
2.36328e-07
1.88481e-07
1.30772e-07
7.52366e-08
3.3821e-08
1.07842e-08
1.94215e-09
5.31866e-10
1.28128e-21
3.7694e-19
2.94193e-17
1.06164e-15
2.22896e-14
3.0877e-13
3.05381e-12
2.27485e-11
1.32572e-10
6.21174e-10
2.38579e-09
7.64711e-09
2.06581e-08
4.7029e-08
9.09797e-08
1.52967e-07
2.36488e-07
3.52288e-07
1.65758e-06
4.86944e-06
4.74371e-06
8.37351e-07
5.18041e-07
3.31711e-07
3.19471e-07
3.22747e-07
3.21732e-07
3.00715e-07
6.26969e-07
3.54587e-07
3.4334e-07
4.0002e-07
5.99631e-07
1.54501e-06
3.49422e-06
3.61888e-06
2.63746e-06
9.42925e-07
5.42323e-07
4.14643e-07
3.33614e-07
2.99579e-07
2.69103e-07
2.27343e-07
1.71922e-07
1.10701e-07
5.73317e-08
2.19702e-08
5.24061e-09
9.34221e-10
3.52565e-21
9.82301e-19
7.28767e-17
2.50519e-15
5.01538e-14
6.62527e-13
6.24344e-12
4.42423e-11
2.44675e-10
1.08458e-09
3.92591e-09
1.17536e-08
2.95482e-08
6.26144e-08
1.12611e-07
1.73039e-07
2.29876e-07
2.73786e-07
2.73981e-07
2.74193e-07
2.74641e-07
2.84687e-07
3.47527e-07
3.76296e-07
3.51159e-07
3.38112e-07
3.28516e-07
3.30172e-07
3.37103e-07
4.28838e-07
3.84806e-07
3.84868e-07
3.02241e-06
8.0971e-06
8.09818e-06
8.0963e-06
8.0957e-06
8.08815e-06
3.44671e-06
4.28363e-07
4.13075e-07
3.3917e-07
2.99797e-07
2.60667e-07
2.09334e-07
1.4757e-07
8.62899e-08
3.88104e-08
1.16849e-08
2.04967e-09
7.57297e-21
2.02979e-18
1.45191e-16
4.81623e-15
9.30439e-14
1.18525e-12
1.0757e-11
7.32701e-11
3.88498e-10
1.64615e-09
5.68045e-09
1.61837e-08
3.87885e-08
7.91905e-08
1.37553e-07
2.02048e-07
2.52496e-07
2.81238e-07
2.87926e-07
3.19214e-07
2.82809e-07
2.92075e-07
3.36952e-07
5.1542e-07
3.9698e-07
3.55205e-07
3.26181e-07
3.38902e-07
3.99525e-07
7.99692e-07
5.2748e-07
5.51503e-07
2.23839e-06
6.28577e-06
8.1031e-06
8.10405e-06
7.85241e-06
8.08525e-06
8.08139e-06
6.81881e-06
9.40336e-07
3.31984e-07
3.26587e-07
2.87253e-07
2.3857e-07
1.80107e-07
1.16824e-07
6.05965e-08
2.23313e-08
4.76704e-09
1.29103e-20
3.38938e-18
2.37496e-16
7.7118e-15
1.45676e-13
1.81219e-12
1.60405e-11
1.06451e-10
5.49764e-10
2.27123e-09
7.66347e-09
2.14277e-08
4.99707e-08
9.75515e-08
1.58258e-07
2.14161e-07
2.49987e-07
2.62554e-07
6.91072e-07
3.27512e-07
2.37486e-06
6.30698e-06
5.79536e-06
6.60229e-07
5.29728e-07
4.14621e-07
3.21559e-07
3.73614e-07
3.92433e-07
1.33147e-06
7.78561e-07
4.53862e-07
4.37918e-07
4.31402e-07
9.55971e-07
1.28109e-06
1.80362e-06
6.66812e-06
8.08132e-06
8.05827e-06
5.37448e-06
4.10873e-07
2.96776e-07
2.90924e-07
2.48805e-07
1.98428e-07
1.4112e-07
8.35974e-08
3.70687e-08
1.01169e-08
1.76048e-20
4.62133e-18
3.22852e-16
1.04221e-14
1.95185e-13
2.40111e-12
2.09693e-11
1.37031e-10
6.95666e-10
2.82023e-09
9.3153e-09
2.53974e-08
5.73936e-08
1.07678e-07
1.68285e-07
2.22772e-07
2.61931e-07
2.93358e-07
3.04145e-07
3.89514e-06
2.08227e-05
2.25531e-05
2.25596e-05
1.17861e-05
5.44415e-07
3.13005e-07
3.28466e-07
5.22219e-07
3.92384e-07
1.1234e-06
6.34557e-07
1.14836e-06
8.55862e-07
5.55261e-07
3.83007e-07
3.67226e-07
3.44957e-07
3.38039e-07
1.36853e-06
5.44098e-06
3.44681e-06
3.47404e-07
3.29465e-07
2.80585e-07
2.36279e-07
1.93186e-07
1.4825e-07
1.00255e-07
5.34569e-08
1.86484e-08
1.91851e-20
5.15718e-18
3.6633e-16
1.19541e-14
2.25184e-13
2.77428e-12
2.41725e-11
1.57073e-10
7.90484e-10
3.16681e-09
1.02996e-08
2.75422e-08
6.09102e-08
1.11533e-07
1.7073e-07
2.25115e-07
2.71548e-07
2.80638e-07
1.84961e-06
2.03474e-05
2.25508e-05
2.25519e-05
2.25579e-05
2.25613e-05
1.36434e-06
3.12364e-07
3.16084e-07
3.1933e-07
3.61578e-07
3.61024e-07
7.20029e-07
1.60177e-06
1.60159e-06
8.76913e-07
4.54901e-07
3.6792e-07
3.45558e-07
3.39302e-07
3.37477e-07
3.37886e-07
3.42732e-07
3.58296e-07
2.94704e-07
2.66923e-07
2.10509e-07
1.6304e-07
1.30347e-07
1.00234e-07
6.55121e-08
2.9383e-08
1.65766e-20
4.69541e-18
3.46813e-16
1.16524e-14
2.24223e-13
2.8033e-12
2.46467e-11
1.60806e-10
8.08939e-10
3.22574e-09
1.0399e-08
2.74537e-08
5.97897e-08
1.0798e-07
1.64104e-07
2.18544e-07
2.72218e-07
2.82827e-07
4.17536e-06
2.2552e-05
2.25483e-05
2.2551e-05
2.25532e-05
2.08126e-05
3.123e-07
3.12297e-07
3.13282e-07
3.18886e-07
3.34811e-07
3.65605e-07
7.0151e-07
1.20635e-06
1.25121e-06
8.53139e-07
4.09417e-07
3.62168e-07
3.5195e-07
3.58151e-07
3.61683e-07
4.41506e-07
4.35275e-07
4.40493e-07
4.82538e-07
2.08814e-07
1.69494e-07
1.03975e-07
8.25756e-08
7.64555e-08
6.67934e-08
3.92943e-08
1.11716e-20
3.45846e-18
2.72859e-16
9.64099e-15
1.92826e-13
2.48237e-12
2.22986e-11
1.47656e-10
7.49541e-10
3.00136e-09
9.67907e-09
2.55127e-08
5.55674e-08
1.01123e-07
1.56532e-07
2.14507e-07
2.83515e-07
4.23755e-07
2.36231e-06
2.25552e-05
2.25518e-05
2.25507e-05
2.25247e-05
6.49479e-06
3.12782e-07
3.12081e-07
3.09274e-07
3.13478e-07
3.30792e-07
3.49745e-07
3.82085e-07
3.68931e-07
3.6901e-07
3.87996e-07
4.09735e-07
4.01107e-07
3.78692e-07
4.05414e-07
3.70988e-07
6.79862e-07
2.02925e-06
1.83886e-06
8.88914e-07
1.5977e-07
1.46632e-07
5.42693e-08
5.2028e-08
5.03653e-08
4.94426e-08
4.7808e-08
5.6954e-21
2.0275e-18
1.76825e-16
6.74078e-15
1.43016e-13
1.92819e-12
1.79542e-11
1.22192e-10
6.32991e-10
2.57164e-09
8.3786e-09
2.22659e-08
4.89395e-08
9.02669e-08
1.42753e-07
2.01376e-07
2.69426e-07
3.80335e-07
8.03101e-07
8.46269e-06
2.1322e-05
1.73073e-05
6.74957e-06
3.28437e-07
3.67904e-07
3.06382e-07
3.07532e-07
3.16859e-07
3.44939e-07
3.5368e-07
3.64014e-07
3.80164e-07
3.78864e-07
3.8933e-07
4.10196e-07
4.03209e-07
3.85127e-07
4.10846e-07
7.71425e-07
3.00403e-06
4.4765e-06
4.47783e-06
3.28328e-06
2.02088e-07
1.46887e-07
7.10631e-06
4.16459e-05
1.58003e-05
5.34286e-08
3.96096e-08
2.10321e-21
9.19179e-19
9.27861e-17
3.94319e-15
9.09856e-14
1.311e-12
1.28741e-11
9.14315e-11
4.90017e-10
2.04543e-09
6.81229e-09
1.8452e-08
4.13328e-08
7.79942e-08
1.27078e-07
1.85154e-07
2.50862e-07
3.22109e-07
7.72926e-07
3.13046e-07
9.63288e-07
3.16295e-07
3.17274e-07
3.28299e-07
3.05271e-07
3.05079e-07
3.09558e-07
3.31922e-07
3.44342e-07
3.6153e-07
3.84955e-07
3.93533e-07
5.89168e-07
1.59263e-06
1.20499e-05
1.25564e-05
4.3211e-06
3.57305e-07
1.18852e-06
1.95861e-06
3.44691e-06
4.48091e-06
3.21275e-06
2.9546e-07
8.76829e-07
4.9333e-05
5.46151e-05
5.50378e-05
8.29933e-06
5.47736e-08
5.9813e-22
3.41783e-19
4.116e-17
1.9914e-15
5.08389e-14
7.94959e-13
8.35601e-12
6.2834e-11
3.53427e-10
1.53765e-09
5.31023e-09
1.48593e-08
3.43131e-08
6.66122e-08
1.11125e-07
1.63266e-07
2.12777e-07
2.35092e-07
7.90331e-07
3.12195e-07
3.12057e-07
3.15471e-07
5.27369e-07
3.05123e-07
3.07671e-07
3.04931e-07
3.17203e-07
3.40149e-07
5.63985e-07
9.48132e-07
4.33412e-07
4.04031e-07
2.34942e-06
2.30963e-05
3.30774e-05
3.30591e-05
2.16071e-05
3.53592e-07
3.5365e-07
3.53674e-07
3.53762e-07
4.52547e-07
9.93792e-07
3.92845e-07
3.64826e-07
4.43958e-05
5.50338e-05
5.51303e-05
3.66179e-05
1.27645e-06
1.30922e-22
1.07198e-19
1.61505e-17
9.14151e-16
2.62895e-14
4.52061e-13
5.1376e-12
4.12537e-11
2.45442e-10
1.12108e-09
4.04051e-09
1.17529e-08
2.81488e-08
5.66678e-08
9.79549e-08
1.48125e-07
1.98882e-07
2.43007e-07
2.46631e-07
3.1523e-07
3.12406e-07
3.07746e-07
3.00543e-07
3.05006e-07
3.11261e-07
3.06142e-07
3.26218e-07
3.36818e-07
1.21568e-06
1.79956e-06
1.38651e-06
4.40642e-07
1.08863e-05
3.31106e-05
3.31021e-05
3.3078e-05
2.53835e-05
3.53608e-07
3.53738e-07
3.53765e-07
3.54332e-07
3.55529e-07
3.58894e-07
3.62653e-07
3.63572e-07
1.09845e-05
5.51327e-05
5.51348e-05
5.51379e-05
2.34908e-06
2.18119e-23
2.88474e-20
5.71061e-18
3.88276e-16
1.27928e-14
2.44763e-13
3.03433e-12
2.62051e-11
1.65966e-10
8.00644e-10
3.02931e-09
9.21243e-09
2.29998e-08
4.81169e-08
8.61702e-08
1.34999e-07
1.9029e-07
2.31022e-07
3.99825e-07
3.17756e-07
3.53516e-07
3.01885e-07
3.00264e-07
3.00527e-07
3.97093e-07
3.0399e-07
3.28914e-07
3.2439e-07
1.35037e-06
1.80103e-06
1.09749e-06
5.95891e-07
1.2714e-05
3.31094e-05
3.30821e-05
3.29021e-05
3.2904e-06
3.55963e-07
3.54533e-07
3.54715e-07
3.66572e-07
4.04839e-07
3.70929e-07
3.98277e-07
3.65864e-07
3.71002e-07
3.85679e-05
5.51302e-05
4.37377e-05
1.24741e-06
3.15552e-24
7.18213e-21
1.9406e-18
1.61261e-16
6.13859e-15
1.31208e-13
1.77712e-12
1.65113e-11
1.11255e-10
5.66385e-10
2.2483e-09
7.13954e-09
1.85475e-08
4.02837e-08
7.48723e-08
1.22576e-07
1.82382e-07
2.41935e-07
2.45076e-07
2.89327e-07
2.84029e-07
3.9365e-07
2.91499e-07
2.91042e-07
2.89767e-07
3.02687e-07
3.16358e-07
3.034e-07
5.75936e-07
8.24606e-07
3.12341e-07
3.26919e-07
1.09783e-05
3.3127e-05
3.30796e-05
1.18122e-05
3.61822e-07
3.57841e-07
3.59038e-07
3.59101e-07
3.7061e-07
1.19876e-06
4.44955e-06
1.25843e-06
3.79897e-07
3.93672e-07
1.07094e-06
5.45124e-05
2.08084e-05
1.6751e-07
4.06121e-25
1.66159e-21
6.36014e-19
6.55906e-17
2.90065e-15
6.92998e-14
1.02442e-12
1.02182e-11
7.30661e-11
3.91417e-10
1.62544e-09
5.37964e-09
1.45431e-08
3.28542e-08
6.36002e-08
1.09136e-07
1.69471e-07
2.26867e-07
2.43268e-07
7.0843e-07
2.80583e-07
2.79853e-07
3.07724e-07
2.81344e-07
2.88293e-07
2.92544e-07
2.99712e-07
2.92148e-07
2.92619e-07
2.93607e-07
3.02109e-07
3.11617e-07
2.39728e-06
2.35963e-05
2.25028e-05
4.08025e-07
3.73223e-07
4.32715e-07
3.73748e-07
3.70341e-07
3.85301e-07
1.06791e-06
9.21814e-06
2.29325e-06
4.10004e-07
3.36685e-06
2.10638e-06
9.93401e-06
1.38928e-06
7.47428e-08
4.23565e-26
3.52025e-22
1.96443e-19
2.55685e-17
1.32317e-15
3.54197e-14
5.7101e-13
6.10247e-12
4.61734e-11
2.59839e-10
1.1288e-09
3.89814e-09
1.09851e-08
2.58999e-08
5.22968e-08
9.39513e-08
1.53124e-07
2.17959e-07
2.60702e-07
2.64379e-07
3.41533e-07
2.77692e-07
2.77248e-07
2.80189e-07
2.77561e-07
2.83786e-07
2.98898e-07
3.00959e-07
3.13002e-07
3.20397e-07
3.11369e-07
3.3068e-07
9.8305e-06
3.10625e-05
1.73847e-05
1.19646e-06
9.94428e-07
6.22312e-07
5.12634e-06
3.54779e-06
7.86914e-07
1.83469e-05
4.69906e-05
7.45919e-05
4.91186e-07
4.09821e-06
5.06157e-07
2.38258e-07
6.92341e-08
6.58132e-08
3.19841e-27
7.01914e-23
5.84823e-20
9.51803e-18
5.73617e-16
1.71945e-14
3.02668e-13
3.47263e-12
2.7878e-11
1.64972e-10
7.48833e-10
2.70025e-09
7.95399e-09
1.95987e-08
4.13179e-08
7.71549e-08
1.31737e-07
1.99229e-07
2.60652e-07
2.91673e-07
2.91848e-07
3.02157e-07
2.76245e-07
2.76083e-07
2.74266e-07
2.80603e-07
2.98924e-07
3.27513e-07
3.40654e-07
3.24432e-07
3.29433e-07
7.68299e-07
2.17549e-05
3.10584e-05
3.10559e-05
2.26698e-05
2.95502e-06
7.08993e-07
1.35779e-05
6.296e-05
0.000108106
0.000253963
0.000272086
6.34465e-05
2.92565e-07
2.70688e-07
2.34373e-07
1.11452e-07
5.42778e-08
5.29918e-08
1.93721e-28
1.36251e-23
1.62974e-20
3.31185e-18
2.33082e-16
7.84435e-15
1.5114e-13
1.86594e-12
1.593e-11
9.94562e-11
4.7395e-10
1.7857e-09
5.48524e-09
1.41392e-08
3.11638e-08
6.01279e-08
1.05952e-07
1.69299e-07
2.3385e-07
2.77801e-07
2.88922e-07
2.80936e-07
2.79517e-07
2.7516e-07
2.76589e-07
2.93312e-07
3.29772e-07
3.68903e-07
3.48007e-07
3.76664e-07
3.73734e-07
1.18518e-06
2.38903e-05
3.10551e-05
3.10578e-05
3.09747e-05
6.15846e-06
2.33441e-06
8.40182e-06
0.000113897
0.000269981
0.000282893
0.000231629
0.000133561
3.22227e-05
-1.4857e-06
-9.3034e-06
0.0566575
0.193487
0.323842
1.21173e-29
2.41721e-24
4.18137e-21
1.06709e-18
8.80766e-17
3.33943e-15
7.06306e-14
9.40629e-13
8.55924e-12
5.64965e-11
2.83175e-10
1.11884e-09
3.59602e-09
9.64834e-09
2.22281e-08
4.4715e-08
8.02761e-08
1.33631e-07
1.9825e-07
2.51783e-07
2.77518e-07
2.80972e-07
2.77556e-07
2.7712e-07
2.79689e-07
3.09214e-07
3.32832e-07
5.58401e-07
5.01232e-06
8.15129e-06
8.70487e-06
6.44801e-06
1.67731e-05
3.10551e-05
3.1025e-05
2.59598e-05
7.63281e-06
3.40654e-05
6.3405e-05
9.63984e-05
0.000207162
0.000266953
0.000321723
0.0439457
0.142781
0.33426
0.639543
0.875544
0.970366
0.995509
7.81302e-31
3.81504e-25
9.68144e-22
3.13058e-19
3.04977e-17
1.30909e-15
3.05135e-14
4.39752e-13
4.27647e-12
2.99101e-11
1.57977e-10
6.5559e-10
2.20921e-09
6.20752e-09
1.49052e-08
3.12489e-08
5.84114e-08
9.87578e-08
1.55131e-07
2.15885e-07
2.56082e-07
2.72952e-07
2.71957e-07
4.48162e-07
2.7763e-07
3.16582e-07
3.53022e-07
4.79101e-07
9.42645e-06
1.47749e-05
1.45923e-05
2.50393e-05
2.88999e-05
2.62131e-05
1.6515e-05
1.54651e-05
1.57771e-05
7.10997e-05
0.000112444
0.000158252
0.000236428
0.00252203
0.135148
0.37782
0.705091
0.937923
0.999584
1
1
1
4.40408e-32
5.22607e-26
1.9722e-22
8.16801e-20
9.46836e-18
4.63129e-16
1.19606e-14
1.87355e-13
1.95434e-12
1.45288e-11
8.10794e-11
3.54224e-10
1.25402e-09
3.69839e-09
9.31065e-09
2.04471e-08
3.98541e-08
7.00887e-08
1.1326e-07
1.68087e-07
2.21739e-07
2.51122e-07
2.66284e-07
2.65897e-07
2.77342e-07
3.09619e-07
3.18713e-07
1.22377e-06
3.56335e-06
2.80561e-06
2.30569e-06
1.53201e-05
2.8887e-05
2.84811e-05
1.628e-05
1.64656e-05
6.46404e-05
0.000132127
0.000160655
0.000301151
0.00437709
0.227891
0.620582
0.910098
0.999537
0.999851
1
1
1
1
2.09265e-33
6.08065e-27
3.43292e-23
1.84057e-20
2.56323e-18
1.43998e-16
4.14843e-15
7.10481e-14
7.99034e-13
6.34256e-12
3.75501e-11
1.73346e-10
6.4692e-10
2.00937e-09
5.32645e-09
1.23124e-08
2.52589e-08
4.66465e-08
7.85215e-08
1.21899e-07
1.73037e-07
2.16702e-07
2.42873e-07
2.61355e-07
2.67603e-07
3.02384e-07
3.95664e-07
5.05868e-07
3.47357e-07
2.96888e-07
3.08005e-07
2.92549e-06
1.53092e-05
1.5092e-05
1.56066e-05
5.00724e-05
0.000106107
0.000146256
0.000253747
0.00510373
0.279057
0.778662
0.988826
0.999879
0.99998
0.999994
1
1
1
1
8.31004e-35
5.90626e-28
4.97971e-24
3.45123e-21
5.81836e-19
3.79155e-17
1.22928e-15
2.32048e-14
2.83421e-13
2.41819e-12
1.52821e-11
7.49809e-11
2.96657e-10
9.75808e-10
2.73893e-09
6.70586e-09
1.45781e-08
2.85349e-08
5.08314e-08
8.31097e-08
1.24883e-07
1.70148e-07
2.06249e-07
2.38851e-07
2.56419e-07
3.02615e-07
4.36843e-07
6.26706e-07
6.33984e-07
2.86469e-07
2.9512e-07
3.07148e-07
4.44909e-07
1.61259e-05
3.78297e-05
5.14937e-05
0.00011729
0.000316026
0.0027703
0.260529
0.811014
0.999971
0.99999
0.999995
0.999999
1
1
1
1
1
2.73418e-36
4.68003e-29
5.86645e-25
5.24294e-22
1.06288e-19
8.04363e-18
2.95782e-16
6.20826e-15
8.31386e-14
7.69701e-13
5.24129e-12
2.75864e-11
1.16767e-10
4.10719e-10
1.2327e-09
3.22599e-09
7.49591e-09
1.56875e-08
2.9873e-08
5.21458e-08
8.37352e-08
1.22878e-07
1.611e-07
2.01142e-07
2.34624e-07
2.79247e-07
3.86024e-07
7.36794e-07
7.36735e-07
2.75828e-07
2.83107e-07
2.92458e-07
4.0151e-07
6.25802e-06
1.10872e-05
0.000163685
0.000157388
0.000392746
0.175224
0.70966
0.989852
0.99999
0.999996
1
1
1
1
1
1
1
7.36149e-38
2.95243e-30
5.41941e-26
6.18509e-23
1.50716e-20
1.31825e-18
5.47203e-17
1.27954e-15
1.88984e-14
1.91928e-13
1.42715e-12
8.17694e-12
3.75921e-11
1.43131e-10
4.65217e-10
1.32121e-09
3.32895e-09
7.54309e-09
1.55386e-08
2.93065e-08
5.08182e-08
8.08712e-08
1.16076e-07
1.54803e-07
1.94745e-07
2.39331e-07
3.01215e-07
6.53461e-07
7.27361e-07
2.71889e-07
2.75463e-07
2.85466e-07
3.51285e-07
1.7365e-05
5.47975e-05
0.000294972
0.000310338
0.0619032
0.489999
0.942851
0.99994
0.999997
1
1
1
1
1
1
1
1
1.60296e-39
1.45315e-31
3.78409e-27
5.33768e-24
1.52259e-21
1.51797e-19
7.12301e-18
1.87151e-16
3.08739e-15
3.47389e-14
2.84214e-13
1.78274e-12
8.99628e-12
3.80061e-11
1.37496e-10
4.32709e-10
1.21158e-09
3.04162e-09
6.90677e-09
1.43074e-08
2.7169e-08
4.73457e-08
7.48941e-08
1.08928e-07
1.48127e-07
1.89012e-07
2.48885e-07
2.74768e-07
4.31137e-07
2.69411e-07
2.58054e-07
2.56644e-07
3.82859e-07
2.592e-06
2.02583e-05
0.000136343
0.00647753
0.208481
0.800703
0.999658
0.999985
0.999999
1
1
1
1
1
1
1
1
2.78087e-41
5.48641e-33
1.99164e-28
3.51682e-25
1.18519e-22
1.33595e-20
6.84722e-19
1.91488e-17
3.34548e-16
4.03442e-15
3.61395e-14
2.53641e-13
1.44305e-12
6.85507e-12
2.78832e-11
1.01379e-10
3.28627e-10
9.53215e-10
2.47602e-09
5.79446e-09
1.23205e-08
2.39e-08
4.20925e-08
6.77272e-08
1.00965e-07
1.3938e-07
1.85763e-07
2.49463e-07
2.09209e-07
3.18972e-07
2.44399e-07
2.02556e-07
3.83827e-07
4.27584e-06
8.97102e-06
6.04629e-07
0.00550411
0.47379
0.979034
0.999897
0.999996
1
1
1
1
1
1
1
1
1
4.61009e-43
8.5965e-34
1.34991e-28
5.27746e-25
2.66071e-22
3.54158e-20
1.81372e-18
4.51419e-17
6.37558e-16
5.68109e-15
3.47078e-14
1.56261e-13
5.58318e-13
1.73216e-12
5.22387e-12
1.69638e-11
5.84644e-11
2.01924e-10
6.40979e-10
1.79784e-09
4.46168e-09
9.92017e-09
1.98279e-08
3.58627e-08
5.94592e-08
9.05994e-08
1.28661e-07
1.80168e-07
1.97446e-07
3.22479e-07
2.4013e-07
1.33442e-07
1.64876e-07
1.13324e-05
8.52893e-06
1.06416e-07
0.0434354
0.766989
0.999698
0.999998
1
1
1
1
1
1
1
1
1
1
9.65673e-42
2.52353e-32
2.85688e-27
8.7367e-24
3.68387e-21
4.31474e-19
2.00608e-17
4.62117e-16
6.14587e-15
5.25947e-14
3.13363e-13
1.37931e-12
4.67493e-12
1.25446e-11
2.67527e-11
4.72975e-11
7.07709e-11
9.58736e-11
1.59358e-10
4.04784e-10
1.17914e-09
3.13968e-09
7.36898e-09
1.53546e-08
2.88498e-08
4.92759e-08
7.70444e-08
1.14313e-07
1.53589e-07
1.40363e-07
1.36984e-07
1.14743e-07
2.03135e-07
2.20526e-06
8.56953e-07
3.52477e-08
0.175202
0.936354
1
1
1
1
1
1
1
1
1
1
1
1
1.54638e-39
6.68132e-38
2.44643e-36
7.8795e-35
2.28495e-33
6.01105e-32
1.4261e-30
3.00801e-29
5.54166e-28
8.7652e-27
1.17785e-25
1.3559e-24
1.36977e-23
1.1641e-22
8.06552e-22
4.12147e-21
1.41528e-20
3.42838e-20
6.24718e-20