/*--------------------------------*- C++ -*----------------------------------*\
| =========                 |                                                 |
| \\      /  F ield         | OpenFOAM: The Open Source CFD Toolbox           |
|  \\    /   O peration     | Version:  2.4.0                                 |
|   \\  /    A nd           | Web:      www.OpenFOAM.org                      |
|    \\/     M anipulation  |                                                 |
\*---------------------------------------------------------------------------*/
FoamFile
{
    version     2.0;
    format      ascii;
    class       volScalarField;
    location    "0.025";
    object      p_rgh;
}
// * * * * * * * * * * * * * * * * * * * * * * * * * * * * * * * * * * * * * //

dimensions      [1 -1 -2 0 0 0 0];

internalField   nonuniform List<scalar> 
14400
(
97.9386
98.0092
98.1604
98.3592
98.5649
98.7138
98.7147
98.4501
97.7745
96.5302
94.5934
91.9208
88.5534
84.6283
80.336
75.8866
71.4773
67.2781
63.425
60.0157
57.1053
54.7068
52.797
51.3254
50.2261
49.4337
48.8853
48.5272
48.3152
48.2138
97.9384
98.0092
98.1605
98.3596
98.566
98.7162
98.7191
98.4578
97.7867
96.5481
94.6187
91.9487
88.5842
84.659
80.3656
75.9124
71.4958
67.2858
63.4179
59.991
57.0614
54.6444
52.7183
51.2335
50.1268
49.3299
48.7792
48.4201
48.2076
48.1062
97.9377
98.0087
98.1602
98.3598
98.5673
98.7198
98.7268
98.4722
97.8114
96.5859
94.6706
92.0135
88.6576
84.7351
80.4379
75.9746
71.5396
67.3023
63.3984
59.9283
56.9527
54.492
52.529
51.0168
49.8919
49.0846
48.5288
48.1675
47.9544
47.8526
97.9366
98.0077
98.1594
98.3597
98.5689
98.7248
98.7379
98.4936
97.8489
96.644
94.7515
92.1155
88.7742
84.8569
80.5543
76.0745
71.6098
67.3288
63.3668
59.8276
56.7783
54.2472
52.2244
50.6675
49.5133
48.6896
48.1261
47.7622
47.5484
47.4467
97.9352
98.0063
98.1583
98.3593
98.5707
98.7311
98.7522
98.5219
97.8988
96.7223
94.8612
92.2546
88.9342
85.025
80.7155
76.2137
71.7086
67.3677
63.326
59.6914
56.5394
53.9091
51.8011
50.1801
48.9844
48.1385
47.566
47.2001
46.987
46.8862
97.9333
98.0044
98.1567
98.3587
98.5726
98.7386
98.7698
98.5568
97.9611
96.8205
94.9997
92.4312
89.1382
85.24
80.9228
76.3918
71.8385
67.4226
63.2799
59.5232
56.2379
53.4766
51.2542
49.5462
48.295
47.4213
46.8402
46.4757
46.2667
46.1688
97.9311
98.0021
98.1547
98.3577
98.5747
98.7473
98.7904
98.5982
98.0354
96.9384
95.1669
92.6453
89.3866
85.5029
81.1775
76.6147
72.0025
67.4976
63.2336
59.3276
55.8767
52.949
50.5774
48.754
47.43
46.5231
45.9369
45.5812
45.3837
45.2931
97.9285
97.9993
98.1522
98.3565
98.577
98.7571
98.814
98.6457
98.1216
97.0757
95.3626
92.8973
89.6803
85.8148
81.4811
76.8828
72.2045
67.598
63.1933
59.1112
55.4606
52.3269
49.7638
47.7879
46.3676
45.4213
44.838
44.5063
44.3348
44.2605
97.9255
97.9961
98.1493
98.3549
98.5793
98.768
98.8403
98.6991
98.2191
97.2321
95.5867
93.1873
90.0198
86.1769
81.8354
77.1987
72.4485
67.7302
63.167
58.882
54.9968
51.6136
48.807
46.6271
45.0752
44.0804
43.5154
43.2367
43.1194
43.0786
97.9222
97.9925
98.146
98.353
98.5816
98.7798
98.8692
98.7579
98.3276
97.4071
95.8388
93.5157
90.4063
86.5906
82.2423
77.5655
72.7395
67.9013
63.164
58.6504
54.4953
50.8173
47.7032
45.2453
43.5047
42.4424
41.9218
41.7516
41.7428
41.7683
97.9185
97.9884
98.1422
98.3507
98.5839
98.7924
98.9004
98.8218
98.4465
97.6002
96.1186
93.8827
90.8405
87.0575
82.7039
77.9859
73.0822
68.1197
63.1955
58.4286
53.9692
49.9551
46.4568
43.6107
41.5838
40.4075
39.9702
40.0219
40.2265
40.3744
97.9145
97.9838
98.1379
98.348
98.5861
98.8058
98.9338
98.8903
98.5754
97.8108
96.4258
94.2886
91.3237
87.5793
83.2222
78.463
73.4818
68.3942
63.2745
58.2306
53.4319
49.0577
45.0914
41.6878
39.2135
37.7991
37.4823
38.0186
38.6375
38.9895
97.9102
97.9789
98.1331
98.3448
98.5881
98.8198
98.969
98.9627
98.7135
98.0382
96.7599
94.7337
91.8569
88.1577
83.7993
78.9994
73.9431
68.7346
63.416
58.073
52.8897
48.1746
43.6758
39.4488
36.3649
34.3736
33.9092
35.6446
37.149
37.8062
97.9055
97.9735
98.1279
98.3413
98.59
98.8343
99.0059
99.0385
98.8603
98.2816
97.1201
95.2181
92.4416
88.7948
84.4374
79.5975
74.4701
69.1512
63.6371
57.9771
52.3256
47.3602
42.4218
36.9496
29.0813
10.9237
6.86954
4.61408
3.45371
3.01195
97.9006
97.9677
98.1222
98.3372
98.5915
98.8491
99.0441
99.117
99.0149
98.5403
97.5056
95.7421
93.0791
89.4926
85.1385
80.2591
75.0658
69.6538
63.9575
57.9767
51.6678
46.6067
40.0177
4.81511
0.291566
0.241039
0.218926
0.21697
0.218767
0.221464
97.8954
97.9615
98.116
98.3327
98.5926
98.8642
99.0835
99.1974
99.1768
98.8131
97.9153
96.3059
93.771
90.2534
85.9047
80.9851
75.7311
70.2504
64.3995
58.1275
50.6664
44.6923
0.375044
0.167927
0.249182
0.234229
0.222862
0.217956
0.215654
0.223771
97.8899
97.9549
98.1092
98.3276
98.5933
98.8794
99.1236
99.2787
99.345
99.099
98.3481
96.9094
94.5188
91.0799
86.7382
81.776
76.4641
70.9445
64.9884
58.5072
48.4629
-0.5158
0.252525
0.229461
0.22806
0.225829
0.220747
0.216925
0.214823
0.218713
97.8841
97.9479
98.1019
98.3219
98.5934
98.8946
99.1644
99.3599
99.5189
99.3969
98.8023
97.5527
95.3245
91.9748
87.6413
82.6314
77.2598
71.7275
65.7669
58.8977
8.71346
0.107882
0.190567
0.238097
0.207397
0.217732
0.216183
0.213845
0.212211
0.211326
97.8782
97.9405
98.0941
98.3156
98.5928
98.9096
99.2056
99.4398
99.6975
99.7054
99.2758
98.2353
96.1899
92.9414
88.6169
83.5504
78.1108
72.5645
66.9567
42.4632
0.232588
0.14493
0.172298
0.216646
0.198553
0.209391
0.210373
0.209573
0.208771
0.209035
97.872
97.9327
98.0858
98.3087
98.5915
98.9243
99.247
99.517
99.8802
100.023
99.7664
98.9571
97.1169
93.9831
89.6685
84.5317
79.0087
73.3743
68.4788
-0.584239
0.169405
0.161465
0.168245
0.182293
0.195563
0.202806
0.2046
0.204781
0.207041
0.204464
97.8657
97.9246
98.0768
98.3011
98.5894
98.9386
99.2885
99.5895
100.066
100.349
100.271
99.7175
98.1076
95.1042
90.8011
85.5752
79.945
74.1367
52.984
0.0456629
0.16578
0.167832
0.172819
0.182882
0.19206
0.197227
0.199401
0.199912
0.199884
0.200115
97.8593
97.916
98.0673
98.2929
98.5862
98.9523
99.33
99.6555
100.255
100.681
100.786
100.516
99.1641
96.3086
92.0215
86.6827
80.9162
75.4798
2.17837
0.024348
0.15788
0.169018
0.174384
0.181897
0.188413
0.192358
0.194278
0.195146
0.195569
0.195827
97.8527
97.9071
98.0572
98.2839
98.582
98.9653
99.3717
99.712
100.447
101.018
101.306
101.351
100.288
97.6007
93.3387
87.8517
82.0169
84.3953
0.294037
0.0815981
0.144385
0.169053
0.174639
0.180263
0.184978
0.18803
0.189741
0.190682
0.19121
0.191503
97.8462
97.8978
98.0465
98.2741
98.5765
98.9775
99.4137
99.7556
100.642
101.358
101.825
102.222
101.482
98.9847
94.7608
89.0783
83.0015
37.412
1.4981
0.155484
0.16241
0.17075
0.174483
0.178362
0.181699
0.184006
0.185444
0.186325
0.186855
0.187148
97.8395
97.8881
98.0352
98.2636
98.5696
98.9887
99.4562
99.7815
100.84
101.7
102.334
103.127
102.746
100.465
96.3091
90.3864
84.5468
6.2711
0.25414
0.18356
0.174333
0.172765
0.173918
0.176198
0.178416
0.180077
0.181211
0.181963
0.182434
0.182695
97.8329
97.8781
98.0232
98.2523
98.5613
98.9988
99.4998
99.7836
101.044
102.041
102.822
104.067
104.082
102.048
97.9704
91.747
85.4534
1.14392
0.286268
0.197249
0.179601
0.173517
0.172664
0.173644
0.174958
0.176069
0.176909
0.177504
0.177884
0.178093
97.8264
97.8677
98.0105
98.2402
98.5513
99.0079
99.545
99.753
101.256
102.38
103.271
105.042
105.489
103.727
99.784
93.027
85.5043
-0.318309
0.25263
0.19956
0.180052
0.172587
0.170521
0.170566
0.171185
0.171849
0.172431
0.172873
0.173154
0.173307
97.82
97.857
97.9972
98.2273
98.5395
99.0157
99.5927
99.6777
101.48
102.713
103.66
106.055
106.959
105.473
101.778
94.7572
69.5286
-0.021627
0.23052
0.193881
0.177412
0.170024
0.167411
0.166862
0.166986
0.167313
0.167686
0.167996
0.16819
0.168295
97.8143
97.846
97.9831
98.2136
98.5257
99.0225
99.6439
99.5412
101.723
103.035
103.964
107.112
108.492
107.329
103.963
96.9094
24.99
0.146001
0.204947
0.185231
0.172594
0.166009
0.163331
0.162472
0.162285
0.162385
0.162601
0.1628
0.162925
0.162998
97.8231
97.8347
97.9682
98.199
98.5098
99.0282
99.7004
99.3218
101.993
103.344
104.154
108.222
110.094
109.233
106.231
101.215
17.7763
0.21096
0.187527
0.175417
0.166152
0.160734
0.158322
0.15737
0.157036
0.157017
0.157125
0.157233
0.157305
0.157358
48.1954
48.2516
48.4039
48.6836
49.1304
49.7935
50.7317
52.0106
53.6946
55.8461
58.5023
61.6691
65.3125
69.3562
73.6818
78.1362
82.5357
86.6683
90.333
93.3601
95.6579
97.2336
98.1786
98.6402
98.7689
98.6896
98.5034
98.2889
98.1016
97.9784
48.0877
48.144
48.2964
48.5767
49.0251
49.6915
50.6355
51.9235
53.6237
55.7927
58.4681
61.6536
65.3133
69.3697
73.7044
78.1646
82.564
86.6997
90.3626
93.3857
95.6789
97.2484
98.1883
98.6461
98.7722
98.6913
98.5042
98.2892
98.1016
97.9783
47.8341
47.8904
48.0431
48.3245
48.7762
49.45
50.4082
51.7191
53.4516
55.6616
58.3826
61.6133
65.313
69.4012
73.7585
78.2329
82.6399
86.7755
90.4326
93.4446
95.7236
97.2791
98.2072
98.6567
98.7778
98.6938
98.5049
98.2891
98.1012
97.9776
47.4281
47.4841
47.6368
47.9194
48.3757
49.061
50.0416
51.3897
53.175
55.4511
58.2453
61.5484
65.3123
69.4516
73.8454
78.3427
82.761
86.8964
90.5431
93.5365
95.7928
97.3259
98.2355
98.6722
98.7855
98.697
98.5056
98.2886
98.1003
97.9764
46.8676
46.9228
47.0742
47.3566
47.8176
48.5176
49.5297
50.9307
52.7916
55.1615
58.0583
61.4619
65.314
69.5233
73.9669
78.4952
82.9282
87.0627
90.6944
93.6617
95.8863
97.3887
98.2731
98.6926
98.7956
98.701
98.5063
98.2878
98.0989
97.9747
46.1506
46.2037
46.3506
46.6292
47.0925
47.8096
48.8626
50.3354
52.2987
54.7935
57.8245
61.3574
65.3219
69.6192
74.1249
78.6918
83.1425
87.2751
90.8869
93.82
96.0039
97.4673
98.3197
98.7176
98.8078
98.7057
98.507
98.2866
98.0971
97.9725
45.2762
45.3243
45.4605
45.727
46.1864
46.9211
48.0267
49.5946
51.6928
54.3484
57.548
61.24
65.3406
69.743
74.3222
78.934
83.4049
87.5343
91.1208
94.0115
96.1454
97.5613
98.3751
98.7471
98.822
98.7111
98.5075
98.285
98.0948
97.9697
44.2466
44.2842
44.397
44.6355
45.0782
45.829
47.0023
48.6971
50.9714
53.8296
57.2347
61.1163
65.376
69.8993
74.5615
79.2239
83.717
87.8412
91.3967
94.2363
96.3107
97.6705
98.439
98.781
98.8383
98.7171
98.508
98.283
98.0921
97.9664
43.0716
43.0882
43.1528
43.3322
43.7344
44.4979
45.762
47.6293
50.1337
53.243
56.8927
60.9946
65.4354
70.0931
74.8464
79.5636
84.08
88.1969
91.7151
94.4943
96.4993
97.7944
98.5111
98.8189
98.8564
98.7237
98.5084
98.2807
98.0889
97.9625
41.7757
41.7517
41.7204
41.7814
42.0986
42.8722
44.2674
46.3771
49.184
52.5987
56.5321
60.8849
65.5271
70.3305
75.1803
79.9555
84.4959
88.6025
92.0766
94.7856
96.7109
97.9327
98.5907
98.8606
98.8763
98.7308
98.5086
98.2779
98.0852
97.9581
40.408
40.3102
40.0979
39.9228
40.0686
40.8632
42.4649
44.9291
48.1369
51.9123
56.1656
60.7991
65.6608
70.6177
75.567
80.4017
84.9662
89.0594
92.4818
95.11
96.945
98.0847
98.6776
98.9059
98.8978
98.7383
98.5086
98.2747
98.0811
97.953
39.051
38.8356
38.3143
37.6569
37.4395
38.3341
40.2774
43.2824
47.0284
51.2038
55.8065
60.7513
65.8476
70.9615
76.0103
80.9049
85.493
89.569
92.9315
95.4675
97.201
98.25
98.771
98.9543
98.9208
98.7463
98.5083
98.271
98.0765
97.9474
37.8652
37.504
36.451
34.7789
33.6929
35.1574
37.587
41.4475
45.9404
50.4892
55.4669
60.7577
66.1
71.3687
76.5136
81.4672
86.0783
90.1329
93.4265
95.8577
97.4782
98.4278
98.8703
99.0055
98.9451
98.7544
98.5078
98.2669
98.0714
97.9411
3.01652
3.26731
3.86833
5.90279
9.12061
17.7422
33.3747
39.4374
45.05
49.7476
55.1577
60.838
66.4318
71.8457
77.0797
82.0909
86.7241
90.7528
93.9674
96.2806
97.7758
98.6174
98.9748
99.0591
98.9705
98.7629
98.507
98.2623
98.0659
97.9343
0.220317
0.222826
0.218
0.21717
0.223022
0.236261
0.362002
21.2472
44.5847
48.8384
54.8987
61.0145
66.8584
72.3974
77.7106
82.7778
87.4328
91.4307
94.5553
96.7355
98.0927
98.818
99.0836
99.1147
98.9968
98.7714
98.5058
98.2572
98.0598
97.9267
0.222947
0.22163
0.216968
0.22002
0.227826
0.236163
0.24837
0.250382
22.1338
47.247
54.7528
61.308
67.3968
73.0262
78.4071
83.5297
88.2066
92.1686
95.1911
97.2219
98.4279
99.029
99.1958
99.1718
99.0238
98.7799
98.5041
98.2516
98.0533
97.9184
0.22137
0.214297
0.215999
0.218908
0.223738
0.228848
0.222373
0.258108
0.248044
24.5215
55.0908
61.7122
68.066
73.7296
79.1688
84.3479
89.0483
92.9688
95.8756
97.7389
98.78
99.2494
99.3102
99.23
99.0513
98.7884
98.502
98.2454
98.0463
97.9095
0.211533
0.212312
0.213425
0.21547
0.217957
0.216444
0.202876
0.236285
0.165812
0.0907103
51.9593
62.1179
68.8835
74.4976
79.9936
85.2337
89.9608
93.8339
96.6099
98.2854
99.1474
99.4785
99.4258
99.2887
99.079
98.7968
98.4993
98.2386
98.0389
97.8998
0.209337
0.21565
0.209741
0.210639
0.211157
0.207208
0.189099
0.22131
0.160809
0.143036
-0.950456
62.4341
69.8479
75.3114
80.8785
86.1886
90.9474
94.7664
97.3948
98.86
99.5281
99.7155
99.5409
99.3475
99.1066
98.8048
98.496
98.2313
98.0309
97.8894
0.205165
0.211288
0.205301
0.205402
0.204863
0.201223
0.190152
0.176652
0.165132
0.161555
0.124745
48.549
70.8954
76.1475
81.8198
87.2143
92.0123
95.7695
98.2315
99.4607
99.9201
99.9598
99.654
99.4059
99.1337
98.8125
98.4921
98.2233
98.0225
97.8781
0.200407
0.200473
0.200398
0.200391
0.199314
0.19611
0.188866
0.178769
0.170013
0.165809
0.121573
0.524789
71.7457
77.0044
82.8143
88.314
93.1602
96.8462
99.1211
100.085
100.321
100.211
99.7628
99.4631
99.1597
98.8197
98.4873
98.2148
98.0136
97.8661
0.195956
0.195964
0.195812
0.195373
0.194215
0.191553
0.186329
0.179033
0.172061
0.165737
0.101765
-0.0302213
54.9199
77.8658
83.8631
89.4935
94.3967
97.9995
100.065
100.729
100.727
100.47
99.865
99.5188
99.184
98.8264
98.4817
98.2055
98.0043
97.8531
0.191628
0.191601
0.191371
0.190819
0.189678
0.187478
0.183657
0.178394
0.172915
0.166198
0.146198
0.212668
1.10977
79.2469
84.9713
90.7601
95.7284
99.2325
101.063
101.389
101.135
100.735
99.9574
99.5721
99.2054
98.8323
98.4752
98.1956
97.9945
97.8393
0.187267
0.187231
0.186988
0.186443
0.185433
0.183694
0.180944
0.177332
0.173661
0.170246
0.16589
0.222455
-1.45659
79.1281
86.0573
92.1191
97.162
100.548
102.118
102.058
101.541
101.01
100.036
99.6225
99.2228
98.8374
98.4677
98.185
97.9843
97.8245
0.182804
0.182778
0.18257
0.182103
0.181283
0.179988
0.178115
0.175871
0.17407
0.174374
0.184111
0.219239
0.242657
87.1685
87.2279
93.6086
98.7067
101.947
103.231
102.729
101.941
101.297
100.096
99.669
99.2339
98.8416
98.4591
98.1736
97.9737
97.8086
0.178189
0.178188
0.178042
0.177684
0.17707
0.176179
0.175025
0.173866
0.173597
0.176423
0.190294
0.22353
0.325425
36.1835
88.4122
95.195
100.363
103.433
104.405
103.39
102.329
101.599
100.131
99.7106
99.236
98.8444
98.4493
98.1615
97.9627
97.7917
0.173389
0.173417
0.173342
0.173098
0.172675
0.172124
0.171538
0.171178
0.171942
0.176011
0.189084
0.215246
0.234878
18.4852
88.8538
96.9291
102.145
104.999
105.642
104.026
102.7
101.923
100.133
99.746
99.2251
98.8458
98.4382
98.1487
97.9513
97.7736
0.168365
0.168417
0.168403
0.168266
0.168008
0.167725
0.167552
0.167731
0.169063
0.17344
0.18438
0.202308
0.139868
2.87184
89.0259
98.9847
104.028
106.623
106.943
104.618
103.05
102.277
100.093
99.7734
99.1959
98.8451
98.4258
98.1351
97.9397
97.7543
0.163061
0.163127
0.163161
0.163116
0.162998
0.162907
0.163002
0.163498
0.165029
0.169104
0.177663
0.190135
0.17575
0.455503
83.9575
101.308
106.068
108.318
108.311
105.136
103.374
102.675
99.9983
99.791
99.1417
98.8415
98.4118
98.1207
97.9278
97.7338
0.157419
0.157495
0.157566
0.157601
0.157594
0.157623
0.15785
0.158484
0.159955
0.163339
0.169648
0.179254
0.178002
0.634226
91.2676
103.93
108.149
110.066
109.756
105.547
103.664
103.135
99.8397
99.7972
99.0553
98.8339
98.3962
98.1054
97.9157
97.7099
-0.00321137
20.6687
36.2221
60.6817
87.2627
99.0321
99.7577
99.0402
102.256
103.594
104.192
109.245
111.534
110.915
108.39
105.789
10.2397
0.157071
0.171748
0.167053
0.159656
0.155144
0.153102
0.152211
0.15189
0.151855
0.151899
0.151937
0.151971
0.152015
-0.00174643
0.00266024
0.00612498
0.0110342
0.0194732
5.00075
66.7708
98.8318
102.418
103.731
104.149
109.876
112.409
111.911
109.631
107.325
7.4576
0.135181
0.16292
0.161886
0.155402
0.151394
0.149559
0.148784
0.148568
0.148553
0.148556
0.148558
0.148581
0.148625
-0.00176418
0.0026494
0.00613154
0.0110182
0.0190428
0.035881
0.0912796
10.8476
102.6
103.867
104.028
110.574
113.358
112.983
110.976
106.9
0.929282
0.114426
0.155003
0.155938
0.150569
0.147054
0.14544
0.144892
0.144807
0.144806
0.144792
0.144791
0.144818
0.144866
-0.0016061
0.00263741
0.00613321
0.0110211
0.0190465
0.0360212
0.0957796
0.935735
54.4749
103.994
103.763
111.384
114.403
114.102
112.321
98.951
0.257245
0.109719
0.148213
0.149375
0.145017
0.142004
0.140747
0.140486
0.140522
0.140557
0.140571
0.140597
0.140641
0.140694
-0.00145861
0.00262777
0.00613191
0.0110131
0.0190096
0.0358911
0.0884793
-0.0690219
17.9265
94.4832
103.594
112.307
115.567
115.305
113.629
97.2805
0.26725
0.107857
0.139738
0.142276
0.138517
0.13617
0.135435
0.135462
0.135627
0.135749
0.135838
0.135916
0.135986
0.136048
-0.00131114
0.00262254
0.00612691
0.0109898
0.0189262
0.0354866
0.081004
-0.0892038
0.026315
43.0532
99.0753
114.171
116.76
116.526
114.989
91.3042
0.162904
0.10721
0.126883
0.133582
0.130873
0.129505
0.129394
0.129711
0.130057
0.130331
0.130536
0.130687
0.130796
0.130876
-0.00116174
0.00262009
0.00611734
0.010951
0.0187875
0.0347774
0.0727011
-0.111226
-0.143849
1.09097
91.0098
115.925
118.107
117.735
116.138
78.4552
0.18162
0.107682
0.110789
0.121551
0.121809
0.121868
0.122455
0.123134
0.12375
0.124239
0.124594
0.124839
0.125003
0.125111
-0.00101424
0.00261876
0.00609995
0.0108881
0.0185796
0.033733
0.0633727
-0.128561
-0.150163
-0.187649
37.1545
117.563
119.76
118.898
117.228
43.6161
0.144619
0.102133
0.0959396
0.106223
0.111175
0.11304
0.114463
0.115657
0.116645
0.117404
0.117945
0.118311
0.118549
0.118695
-0.00087071
0.00261694
0.00607337
0.010797
0.0182781
0.0323219
0.0538136
-0.139783
-0.148789
-0.168417
0.406997
120.726
122.148
119.279
119.483
9.74996
0.0733899
0.0706614
0.0807693
0.0915786
0.0992164
0.102783
0.105288
0.107198
0.108669
0.109758
0.110527
0.111046
0.111377
0.111573
-0.000730061
0.00261361
0.006034
0.0106676
0.0178643
0.0305334
0.0439608
-0.140504
-0.146134
-0.143913
0.150244
102.514
124.122
118.793
124.332
2.84543
0.0135528
0.0276421
0.0573791
0.0764797
0.0852072
0.090821
0.094809
0.0976777
0.0997623
0.101259
0.102305
0.103008
0.103455
0.103711
-0.000594167
0.00260792
0.00598053
0.0104994
0.0173317
0.0283824
0.034117
-0.134313
-0.14094
-0.132167
0.0458954
50.891
126.731
117.41
122.475
-0.489257
-0.07321
-0.0275191
0.0222564
0.0532532
0.0678443
0.0769035
0.0829325
0.087043
0.0899004
0.0918959
0.0932736
0.0941957
0.0947777
0.0951037
-0.000464315
0.00259913
0.00590969
0.010284
0.0166717
0.0259162
0.0245882
-0.125612
-0.133098
-0.123444
0.0345571
12.3272
127.905
117.535
101.676
0.360619
-0.157177
-0.0863742
-0.0253867
0.0231407
0.0471495
0.0610063
0.0696693
0.0753314
0.0791369
0.0817298
0.0834938
0.0846649
0.0853977
0.0858
-0.000342313
0.00258637
0.00581965
0.0100171
0.0158764
0.0231983
0.0164528
-0.107459
-0.123105
-0.115426
0.0343364
3.09481
128.652
120.362
87.3482
0.166561
-0.216371
-0.181005
-0.0284362
-0.0119783
0.0235546
0.0433901
0.0552592
0.0627524
0.0676554
0.0709257
0.0731153
0.0745532
0.0754445
0.0759255
-0.000229518
0.00256816
0.00570699
0.00969226
0.0149474
0.020311
0.00972112
-0.0895326
-0.112305
-0.105914
0.0263954
0.100995
137.828
127.993
90.0804
-0.129198
-0.344724
-0.368706
-0.0714642
-0.0551747
-0.00206286
0.0249439
0.0403244
0.0497635
0.0558143
0.0597827
0.0624011
0.0641008
0.0651445
0.0656991
-0.000126524
0.00254289
0.00556897
0.00930525
0.0138849
0.0173415
0.00428649
-0.0743243
-0.100528
-0.09372
0.0161768
0.00579515
120.488
143.999
65.9885
-0.246337
-0.515703
-0.54727
-0.135991
-0.0919549
-0.0255876
0.00751388
0.0259954
0.0371405
0.0441944
0.0487709
0.0517582
0.0536775
0.0548442
0.0554551
-3.41233e-05
0.00250842
0.00540232
0.00885442
0.0127076
0.0143827
-7.36458e-06
-0.0619381
-0.0879342
-0.0779746
0.00660257
-0.0177621
40.8318
160.5
30.0087
-0.0274179
-0.705145
-0.643619
-0.211317
-0.114341
-0.0426146
-0.00635486
0.0137947
0.0258996
0.0335505
0.0384976
0.0417092
0.0437566
0.044989
0.045623
4.77375e-05
0.00246266
0.00520456
0.00833883
0.0114326
0.0115211
-0.00329447
-0.0518674
-0.0753543
-0.0636881
-0.0064807
-0.0381162
-0.215715
78.4407
-0.590429
0.00295052
-0.683185
-0.554508
-0.243728
-0.111768
-0.0477098
-0.0140702
0.00526183
0.017103
0.0246797
0.029613
0.0328194
0.0348557
0.0360697
0.0366815
0.000117573
0.00240346
0.00497349
0.00776203
0.0100945
0.00883723
-0.00570622
-0.0436585
-0.0636542
-0.0530544
-0.0190245
-0.0465159
-0.0665043
-0.0931466
-0.407826
-0.0796864
-0.481831
-0.396225
-0.18817
-0.0891035
-0.0416957
-0.0151178
0.00105209
0.0113805
0.018154
0.0226327
0.0255655
0.027427
0.0285268
0.0290655
0.000174502
0.00232878
0.00470801
0.00712819
0.00872295
0.0063969
-0.00735989
-0.0369321
-0.0533639
-0.0456779
-0.0268741
-0.041938
-0.0655324
-0.102329
-0.111226
0.114091
-0.0909189
-0.144588
-0.10427
-0.0571467
-0.0293724
-0.0113304
0.000600003
0.00862754
0.0140703
0.0177454
0.020178
0.0217228
0.0226237
0.023046
0.000217371
0.00223682
0.0044076
0.00644609
0.00735424
0.00424934
-0.00836003
-0.0313557
-0.0446071
-0.0401577
-0.0306395
-0.0397556
-0.0576216
-0.0755444
-0.0510901
-0.0098523
0.0290378
-0.0415808
-0.0442478
-0.0288864
-0.0153785
-0.00500709
0.00263436
0.00814209
0.012043
0.0147461
0.0165571
0.0177047
0.018359
0.0186415
0.000247646
0.00212593
0.00407341
0.00572776
0.00602503
0.00242671
-0.00882623
-0.0266664
-0.0372676
-0.0355208
-0.0313186
-0.0371094
-0.0475963
-0.0521157
-0.0333001
-0.0056425
0.00664742
-0.00649284
-0.0125288
-0.00962766
-0.00417511
0.00108418
0.00544811
0.00882489
0.0113237
0.0130988
0.0142977
0.0150486
0.0154569
0.0156026
0.000265137
0.00199489
0.00370821
0.00498955
0.0047731
0.000944663
-0.00885046
-0.0226574
-0.0311269
-0.0312517
-0.0298497
-0.0332762
-0.0381194
-0.0366541
-0.0230993
-0.00512433
0.00488526
0.00290202
0.000497469
0.000901794
0.00297673
0.005458
0.00774925
0.00963662
0.0110844
0.0121284
0.0128292
0.0132524
0.013458
0.013494
0.000270346
0.00184297
0.0033167
0.00424905
0.00363147
-0.000196832
-0.00853028
-0.0191784
-0.0259346
-0.027124
-0.0270095
-0.0287054
-0.0299919
-0.0265143
-0.016872
-0.0053544
0.00221127
0.00436424
0.00473143
0.005346
0.00643309
0.00770065
0.0089006
0.00991017
0.0106917
0.0112498
0.0116093
0.0118045
0.0118701
0.0118348
0.000263746
0.00167019
0.00290539
0.00352698
0.00263135
-0.00100898
-0.00793889
-0.0161059
-0.0214619
-0.0230789
-0.0234074
-0.0239079
-0.0232721
-0.0194741
-0.0125484
-0.00492672
0.000749092
0.00380314
0.00535877
0.00640541
0.00731441
0.00813606
0.00883928
0.00940127
0.00981873
0.0100996
0.0102595
0.0103212
0.0103089
0.0102406
0.00024643
0.00147726
0.00248154
0.00284121
0.00178982
-0.00151441
-0.00713748
-0.0133418
-0.0175233
-0.0191393
-0.0194934
-0.0192603
-0.0177893
-0.014344
-0.00933016
-0.00411187
7.50012e-05
0.00287804
0.00465244
0.00583748
0.00669422
0.00733894
0.00782287
0.00817399
0.00841103
0.00854995
0.00860852
0.00860767
0.00856587
0.00849296
0.000219072
0.00126545
0.00205255
0.00220894
0.00112125
-0.00173942
-0.00617243
-0.0108053
-0.0139816
-0.0153561
-0.0155765
-0.0149743
-0.0133205
-0.0104794
-0.0068739
-0.003266
-0.000257711
0.00196089
0.00350474
0.00456921
0.0053102
0.0058287
0.00618788
0.00642608
0.00656812
0.00663591
0.00665085
0.00663076
0.0065866
0.006522
0.000182518
0.00103603
0.00162432
0.00164087
0.000625617
-0.00171509
-0.00507316
-0.00842782
-0.0107386
-0.0117733
-0.0118433
-0.011142
-0.00966139
-0.0075004
-0.00499181
-0.00255929
-0.000503177
0.00107609
0.00222106
0.00302623
0.00358229
0.00395905
0.00420533
0.00435494
0.00443394
0.00446422
0.00446242
0.00443855
0.00439757
0.00434178
0.000137085
0.000789474
0.00119953
0.00114008
0.00029394
-0.00147465
-0.00386037
-0.00615335
-0.00771942
-0.00840817
-0.00837197
-0.00775606
-0.0066384
-0.00516457
-0.00356111
-0.00205592
-0.000794609
0.000176839
0.000881784
0.00137172
0.00169913
0.00190809
0.00203238
0.0020978
0.00212407
0.00212503
0.00210898
0.00208025
0.00204127
0.00199409
8.24977e-05
0.000524303
0.00077549
0.000699061
0.000104465
-0.00105373
-0.00254429
-0.00392994
-0.00485684
-0.00523994
-0.00517151
-0.004761
-0.00410104
-0.00330127
-0.00248933
-0.0017705
-0.00120279
-0.000796627
-0.000531888
-0.000376698
-0.000299491
-0.00027393
-0.000279763
-0.000302588
-0.000333608
-0.000368416
-0.000405138
-0.000442916
-0.000481
-0.000518549
1.78266e-05
0.000235725
0.00034145
0.000295772
1.98636e-05
-0.000492707
-0.00112974
-0.00170501
-0.00207692
-0.00220707
-0.00215325
-0.0020468
-0.00189998
-0.00177366
-0.00170561
-0.00171254
-0.00179342
-0.00193251
-0.00210697
-0.00229484
-0.00247884
-0.00264732
-0.002794
-0.00291697
-0.00301725
-0.00309739
-0.00316053
-0.00320951
-0.00324672
-0.00327426
0.152075
0.152155
0.152253
0.152356
0.15244
0.152526
0.15275
0.153352
0.154604
0.157147
0.161856
0.168139
0.156365
0.0167862
92.4006
106.523
110.042
111.586
111.083
105.778
103.876
103.613
99.6429
99.7955
98.9458
97.4745
74.4382
47.5929
26.6504
11.5469
0.148684
0.14876
0.148866
0.149002
0.149147
0.149269
0.149436
0.149912
0.151013
0.153091
0.156859
0.160889
0.148506
0.0996558
90.9652
107.868
111.149
112.487
111.899
105.849
103.982
103.936
99.5029
94.9523
25.6164
0.174643
0.070085
0.0388616
0.02074
0.00579691
0.144923
0.144995
0.145096
0.145238
0.145412
0.145568
0.14569
0.145978
0.146855
0.148585
0.151238
0.1532
0.14479
0.106417
69.5789
109.178
112.368
113.436
112.804
105.839
104.074
104.329
72.2994
0.725848
-0.353859
0.141934
0.0700053
0.038874
0.0207388
0.00583992
0.14075
0.140818
0.140908
0.141033
0.141192
0.141344
0.14143
0.141537
0.142093
0.143435
0.144969
0.14583
0.141083
0.135104
37.3044
110.537
113.618
114.439
113.83
105.739
104.166
97.3136
18.1225
-0.342985
1.49454
0.141882
0.0699012
0.0388537
0.0207265
0.00598223
0.136107
0.13617
0.136245
0.136335
0.136439
0.136529
0.136548
0.136505
0.136706
0.137484
0.138017
0.138683
0.132579
0.153189
11.2446
112.371
114.955
115.478
114.945
105.784
104.12
65.6379
-0.468215
-0.322669
0.246663
0.138514
0.069611
0.0387902
0.0207026
0.00615152
0.130939
0.130996
0.131049
0.131089
0.131106
0.131077
0.130962
0.130757
0.130621
0.130682
0.130062
0.129344
0.121219
0.147674
6.80752
114.54
116.369
116.467
116.193
107.388
78.7875
5.63805
-0.406376
-0.286251
0.191441
0.134519
0.0690998
0.0386724
0.0206644
0.00631416
0.125182
0.125231
0.125251
0.125225
0.125128
0.124931
0.124606
0.12416
0.123652
0.122922
0.120587
0.116421
0.116801
0.132158
0.990292
115.841
117.924
117.379
118.537
106.492
36.6353
-0.128803
-0.371236
-0.248917
0.166225
0.129502
0.0683367
0.0384903
0.0206081
0.00647153
0.118778
0.118814
0.11879
0.118678
0.11844
0.118035
0.117427
0.11661
0.115576
0.113951
0.109755
0.103284
0.113631
0.0991341
-0.0225337
108.818
119.691
117.8
120.758
94.0078
-0.0327452
-0.188686
-0.346327
-0.221069
0.1434
0.123452
0.0672839
0.0382271
0.0205286
0.00661943
0.111671
0.111689
0.111608
0.111389
0.110979
0.110322
0.109356
0.108021
0.106205
0.103452
0.0981975
0.0911662
0.0923703
0.0651211
0.242554
88.917
121.547
117.549
123.212
49.8817
-0.0887804
-0.205443
-0.316635
-0.20097
0.121013
0.116412
0.0659072
0.0378689
0.0204203
0.00675383
0.103825
0.10382
0.103669
0.103319
0.102703
0.101742
0.100328
0.0983075
0.0953996
0.0909987
0.083961
0.0734927
0.0532419
0.0350419
0.164184
98.0746
123.232
119.263
125.928
6.68783
-0.11189
-0.211801
-0.286789
-0.186378
0.0992052
0.108484
0.0641745
0.0373972
0.0202765
0.00687088
0.0952367
0.0952034
0.0949676
0.0944631
0.0936037
0.0922739
0.090301
0.0873979
0.0830475
0.0762699
0.0650104
0.0457935
0.00442929
-0.0141383
0.0890411
71.0719
124.905
121.66
129.346
0.964469
-0.109427
-0.211127
-0.261938
-0.170295
0.0788356
0.0998315
0.0620735
0.0367981
0.0200897
0.00696684
0.0859519
0.0858852
0.0855529
0.0848724
0.0837311
0.081965
0.0793084
0.0753041
0.0691208
0.0591769
0.0420949
0.0109971
-0.0500431
-0.0996238
0.0166065
18.9333
126.044
120.592
111.806
0.101772
-0.108311
-0.205052
-0.234608
-0.154339
0.0605034
0.0906573
0.0595929
0.0360538
0.0198517
0.007038
0.0760947
0.0759902
0.0755532
0.0746811
0.073228
0.0709677
0.0675193
0.0622189
0.0538357
0.0398837
0.0148302
-0.0317642
-0.0729819
-0.193203
-0.0501001
10.0677
129.655
121.751
71.9621
0.00828523
-0.106073
-0.194857
-0.208178
-0.137196
0.0445129
0.081178
0.0567354
0.0351501
0.019554
0.00708032
0.0658817
0.0657361
0.0651918
0.0641253
0.0623516
0.0595744
0.0552892
0.0486106
0.03786
0.0194724
-0.0157942
-0.0576879
-0.189608
-0.396318
-0.266511
-0.226668
140.828
126.754
27.1523
-0.03348
-0.103315
-0.181076
-0.1839
-0.121093
0.0309465
0.0716228
0.0535165
0.0340718
0.0191871
0.00708973
0.0556432
0.0554564
0.0548135
0.0535709
0.0515061
0.0482577
0.0432139
0.0352982
0.0224426
0.000171318
-0.0423582
-0.128033
-0.32585
-0.59077
-0.461218
-0.46295
154.059
138.821
19.1416
-0.0549655
-0.0978487
-0.163953
-0.162311
-0.106488
0.0197658
0.0622049
0.0499645
0.0328088
0.018742
0.00706179
0.0458034
0.0455799
0.0448618
0.0434901
0.0412157
0.0376359
0.0320792
0.0233701
0.00928147
-0.0150114
-0.0614907
-0.143256
-0.363662
-0.677422
-0.504816
-0.195644
161.865
156.425
0.00744889
-0.0530284
-0.0895105
-0.144687
-0.14269
-0.0933815
0.0108166
0.0531309
0.0461292
0.0313543
0.018209
0.00699212
0.0368372
0.0365845
0.0358266
0.034407
0.0320531
0.0283711
0.0227011
0.0139303
2.14712e-05
-0.023242
-0.0655688
-0.151118
-0.300125
-0.665665
-0.509125
0.301689
34.1125
19.8104
-0.0423284
-0.0409917
-0.0827388
-0.125383
-0.124674
-0.0816724
0.00388202
0.0445687
0.0420678
0.0297074
0.0175797
0.00687659
0.0291789
0.0289083
0.0281585
0.0267724
0.0245106
0.0210075
0.0156943
0.00765245
-0.00472416
-0.0244439
-0.0578016
-0.118541
-0.253576
-0.467966
-0.367683
-0.274692
-0.148207
-0.0858452
-0.0614881
-0.0600131
-0.0782905
-0.10849
-0.108233
-0.0712496
-0.00129015
0.0366661
0.0378574
0.0278739
0.0168467
0.00671148
0.0231031
0.0228255
0.0221263
0.0208691
0.0188513
0.0157776
0.0112123
0.00449327
-0.00544551
-0.0203599
-0.0431032
-0.0791206
-0.135795
-0.112301
0.0175285
-0.0259087
-0.110799
-0.0779048
-0.0616159
-0.0590609
-0.0737064
-0.0943045
-0.0933878
-0.0619791
-0.00495772
0.0295233
0.0335773
0.0258673
0.0160051
0.0064938
0.0186371
0.0183636
0.0177481
0.0166826
0.0150118