/*--------------------------------*- C++ -*----------------------------------*\
| =========                 |                                                 |
| \\      /  F ield         | OpenFOAM: The Open Source CFD Toolbox           |
|  \\    /   O peration     | Version:  2.4.0                                 |
|   \\  /    A nd           | Web:      www.OpenFOAM.org                      |
|    \\/     M anipulation  |                                                 |
\*---------------------------------------------------------------------------*/
FoamFile
{
    version     2.0;
    format      ascii;
    class       volScalarField;
    location    "0.255";
    object      alpha.water;
}
// * * * * * * * * * * * * * * * * * * * * * * * * * * * * * * * * * * * * * //

dimensions      [0 0 0 0 0 0 0];

internalField   nonuniform List<scalar> 
60000
(
1
1
1
1
1
1
1
1
1
1
1
1
1
1
1
1
1
1
1
1
1
1
1
1
1
1
1
1
1
1
1
1
1
1
1
1
1
1
1
1
1
1
1
1
1
1
1
1
1
1
1
1
1
1
1
1
1
1
1
1
1
1
1
1
1
1
1
1
1
1
1
1
1
1
1
1
1
1
1
1
1
1
1
1
1
1
1
1
1
1
1
1
1
1
1
1
1
1
1
1
1
1
1
1
1
1
1
1
1
1
1
1
1
1
1
1
1
1
1
1
1
1
1
1
1
1
1
1
1
1
1
1
1
1
1
1
1
1
1
1
1
1
1
1
1
1
1
1
1
1
1
1
1
1
1
1
1
1
1
1
1
1
1
1
1
1
1
1
1
1
1
1
1
1
1
1
1
1
1
1
1
1
1
1
1
1
1
1
1
1
1
1
1
1
1
1
1
1
1
1
1
1
1
1
1
1
1
1
1
1
1
1
1
1
1
1
1
1
1
1
1
1
1
1
1
1
1
1
1
1
1
1
1
1
1
1
1
1
1
1
1
1
1
1
1
1
1
1
1
1
1
1
1
1
1
1
1
1
1
1
1
1
1
1
1
1
1
1
1
1
1
1
1
1
1
1
1
1
1
1
1
1
1
1
1
1
1
1
1
1
1
1
1
1
1
1
1
1
1
1
1
1
1
1
1
1
1
1
1
1
1
1
1
1
1
1
1
1
1
1
1
1
1
1
1
1
1
1
1
1
1
1
1
1
1
1
1
1
1
1
1
1
1
1
1
1
1
1
1
1
1
1
1
1
1
1
1
1
1
1
1
1
1
1
1
1
1
1
1
1
1
1
1
1
1
1
1
1
1
1
1
1
1
1
1
1
1
1
1
1
1
1
1
1
1
1
1
1
1
1
1
1
1
1
1
1
1
1
1
1
1
1
1
1
1
1
1
1
1
1
1
1
1
1
1
1
1
1
1
1
1
1
1
1
1
1
1
1
1
1
1
1
1
1
1
1
1
1
1
1
1
1
1
1
1
1
1
1
1
1
1
1
1
1
1
1
1
1
1
1
1
1
1
1
1
1
1
1
1
1
1
1
1
1
1
1
1
1
1
1
1
1
1
1
1
1
1
1
1
1
1
1
1
1
1
1
1
1
1
1
1
1
1
1
1
1
1
1
1
1
1
1
1
1
1
1
1
1
1
1
1
1
1
1
1
1
1
1
1
1
1
1
1
1
1
1
1
1
1
1
1
1
1
1
1
1
1
1
1
1
1
1
1
1
1
1
1
1
1
1
1
1
1
1
1
1
1
1
1
1
1
1
1
1
1
1
1
1
1
1
1
1
1
1
1
1
1
1
1
1
1
1
1
1
1
1
1
1
1
1
1
1
1
1
1
1
1
1
1
1
1
1
1
1
1
1
1
1
1
1
1
1
1
1
1
1
1
1
1
1
1
1
1
1
1
1
1
1
1
1
1
1
1
1
1
1
1
1
1
1
1
1
1
1
1
1
1
1
1
1
1
1
1
1
1
1
1
1
1
1
1
1
1
1
1
1
1
1
1
1
1
1
1
1
1
1
1
1
1
1
1
1
1
1
1
1
1
1
1
1
1
1
1
1
1
1
1
1
1
1
1
1
1
1
1
1
1
1
1
1
1
1
1
1
1
1
1
1
1
1
1
1
1
1
1
1
1
1
1
1
1
1
1
1
1
1
1
1
1
1
1
1
1
1
1
1
1
1
1
1
1
1
1
1
1
1
1
1
1
1
1
1
1
1
1
1
1
1
1
1
1
1
1
1
1
1
1
1
1
1
1
1
1
1
1
1
1
1
1
1
1
1
1
1
1
1
1
1
1
1
1
1
1
1
1
1
1
1
1
1
1
1
1
1
1
1
1
1
1
1
1
1
1
1
1
1
1
1
1
1
1
1
1
1
1
1
1
1
1
1
1
1
1
1
1
1
1
1
1
1
1
1
1
1
1
1
1
1
1
1
1
1
1
1
1
1
1
1
1
1
1
1
1
1
1
1
1
1
1
1
1
1
1
1
1
1
1
1
1
1
1
1
1
1
1
1
1
1
1
1
1
1
1
1
1
1
1
1
1
1
1
1
1
1
1
1
1
1
1
1
1
1
1
1
1
1
1
1
1
1
1
1
1
1
1
1
1
1
1
1
1
1
1
1
1
1
1
1
1
1
1
1
1
1
1
1
1
1
1
1
1
1
1
1
1
1
1
1
1
1
1
1
1
1
1
1
1
1
1
1
1
1
1
1
1
1
1
1
1
1
1
1
1
1
1
1
1
1
1
1
1
1
1
1
1
1
1
1
1
1
1
1
1
1
1
1
1
1
1
1
1
1
1
1
1
1
1
1
1
1
1
1
1
1
1
1
1
1
1
1
1
1
1
1
1
1
1
1
1
1
1
1
1
1
1
1
1
1
1
1
1
1
1
1
1
1
1
1
1
1
1
1
1
1
1
1
1
1
1
1
1
1
1
1
1
1
1
1
1
1
1
1
1
1
1
1
1
1
1
1
1
1
1
1
1
1
1
1
1
1
1
1
1
1
1
1
1
1
1
1
1
1
1
1
1
1
1
1
1
1
1
1
1
1
1
1
1
1
1
1
1
1
1
1
1
1
1
1
1
1
1
1
1
1
1
1
1
1
1
1
1
1
1
1
1
1
1
1
1
1
1
1
1
1
1
1
1
1
1
1
1
1
1
1
1
1
1
1
1
1
1
1
1
1
1
1
1
1
1
1
1
1
1
1
1
1
1
1
1
1
1
1
1
1
1
1
1
1
1
1
1
1
1
1
1
1
1
1
1
1
1
1
1
1
1
1
1
1
1
1
1
1
1
1
1
1
1
1
1
1
1
1
1
1
1
1
1
1
1
1
1
1
1
1
1
1
1
1
1
1
1
1
1
1
1
1
1
1
1
1
1
1
1
1
1
1
1
1
1
1
1
1
1
1
1
1
1
1
1
1
1
1
1
1
1
1
1
1
1
1
1
1
1
1
1
1
1
1
1
1
1
1
1
1
1
1
1
1
1
1
1
1
1
1
1
1
1
1
1
1
1
1
1
1
1
1
1
1
1
1
1
1
1
1
1
1
1
1
1
1
1
1
1
1
1
1
1
1
1
1
1
1
1
1
1
1
1
1
1
1
1
1
1
1
1
1
1
1
1
1
1
1
1
1
1
1
1
1
1
1
1
1
1
1
1
1
1
1
1
1
1
1
1
1
1
1
1
1
1
1
1
1
1
1
1
1
1
1
1
1
1
1
1
1
1
1
1
1
1
1
1
1
1
1
1
1
1
1
1
1
1
1
1
1
1
1
1
1
1
1
1
1
1
1
1
1
1
1
1
1
1
1
1
1
1
1
1
1
1
1
1
1
1
1
1
1
1
1
1
1
1
1
1
1
1
1
1
1
1
1
1
1
1
1
1
1
1
1
1
1
1
1
1
1
1
1
1
1
1
1
1
1
1
1
1
1
1
1
1
1
1
1
1
1
1
1
1
1
1
1
1
1
1
1
1
1
1
1
1
1
1
1
1
1
1
1
1
1
1
1
1
1
1
1
1
1
1
1
1
1
1
1
1
1
1
1
1
1
1
1
1
1
1
1
1
1
1
1
1
1
1
1
1
1
1
1
1
1
1
1
1
1
1
1
1
1
1
1
1
1
1
1
1
1
1
1
1
1
1
1
1
1
1
1
1
1
1
1
1
1
1
1
1
1
1
1
1
1
1
1
1
1
1
1
1
1
1
1
1
1
1
1
1
1
1
1
1
1
1
1
1
1
1
1
1
1
1
1
1
1
1
1
1
1
1
1
1
1
1
1
1
1
1
1
1
1
1
1
1
1
1
1
1
1
1
1
1
1
1
1
1
1
1
1
1
1
1
1
1
1
1
1
1
1
1
1
1
1
1
1
1
1
1
1
1
1
1
1
1
1
1
1
1
1
1
1
1
1
1
1
1
1
1
1
1
1
1
1
1
1
1
1
1
1
1
1
1
1
1
1
1
1
1
1
1
1
1
1
1
1
1
1
1
1
1
1
1
1
1
1
1
1
1
1
1
1
1
1
1
1
1
1
1
1
1
1
1
1
1
1
1
1
1
1
1
1
1
1
1
1
1
1
1
1
1
1
1
1
1
1
1
1
1
1
1
1
1
1
1
1
1
1
1
1
1
1
1
1
1
1
1
1
1
1
1
1
1
1
1
1
1
1
1
1
1
1
1
1
1
1
1
1
1
1
1
1
1
1
1
1
1
1
1
1
1
1
1
1
1
1
1
1
1
1
1
1
1
1
1
1
1
1
1
1
1
1
1
1
1
1
1
1
1
1
1
1
1
1
1
1
1
1
1
1
1
1
1
1
1
1
1
1
1
1
1
1
1
1
1
1
1
1
1
1
1
1
1
1
1
1
1
1
1
1
1
1
1
1
1
1
1
1
1
1
1
1
1
1
1
1
1
1
1
1
1
1
1
1
1
1
1
1
1
1
1
1
1
1
1
1
1
1
1
1
1
1
1
1
1
1
1
1
1
1
1
1
1
1
1
1
1
1
1
1
1
1
1
1
1
1
1
1
1
1
1
1
1
1
1
1
1
1
1
1
1
1
1
1
1
1
1
1
1
1
1
1
1
1
1
1
1
1
1
1
1
1
1
1
1
1
1
1
1
1
1
1
1
1
1
1
1
1
1
1
1
1
1
1
1
1
1
1
1
1
1
1
1
1
1
1
1
1
1
1
1
1
1
1
1
1
1
1
1
1
1
1
1
1
1
1
1
1
1
1
1
1
1
1
1
1
1
1
1
1
1
1
1
1
1
1
1
1
1
1
1
1
1
1
1
1
1
1
1
1
1
1
1
1
1
1
1
1
1
1
1
1
1
1
1
1
1
1
1
1
1
1
1
1
1
1
1
1
1
1
1
1
1
1
1
1
1
1
1
1
1
1
1
1
1
1
1
1
1
1
1
1
1
1
1
1
1
1
1
1
1
1
1
1
1
1
1
1
1
1
1
1
1
1
1
1
1
1
1
1
1
1
1
1
1
1
1
1
1
1
1
1
1
1
1
1
1
1
1
1
1
1
1
1
1
1
1
1
1
1
1
1
1
1
1
1
1
1
1
1
1
1
1
1
1
1
1
1
1
1
1
1
1
1
1
1
1
1
1
1
1
1
1
1
1
1
1
1
1
1
1
1
1
1
1
1
1
1
1
1
1
1
1
1
1
1
1
1
1
1
1
1
1
1
1
1
1
1
1
1
1
1
1
1
1
1
1
1
1
1
1
1
1
1
1
1
1
1
1
1
1
1
1
1
1
1
1
1
1
1
1
1
1
1
1
1
1
1
1
1
1
1
1
1
1
1
1
1
1
1
1
1
1
1
1
1
1
1
1
1
1
1
1
1
1
1
1
1
1
1
1
1
1
1
1
1
1
1
1
1
1
1
1
1
1
1
1
1
1
1
1
1
1
1
1
1
1
1
1
1
1
1
1
1
1
1
1
1
1
1
1
1
1
1
1
1
1
1
1
1
1
1
1
1
1
1
1
1
1
1
1
1
1
1
1
1
1
1
1
1
1
1
1
1
1
1
1
1
1
1
1
1
1
1
1
0.999999
0.999999
1
1
1
1
1
1
1
1
1
1
1
1
1
1
1
1
1
1
1
1
1
1
1
1
1
1
1
1
1
1
1
1
1
1
1
1
1
1
1
1
1
1
1
1
1
1
1
1
1
1
1
1
1
1
1
1
1
1
1
1
1
1
1
1
1
1
1
1
1
1
1
1
1
1
1
1
1
1
1
1
1
1
1
1
1
1
1
1
1
1
1
1
1
1
1
1
1
1
1
0.999997
0.999996
1
1
1
1
1
1
1
1
1
1
1
1
1
1
1
1
1
1
1
1
1
1
1
1
1
1
1
1
1
1
1
1
1
1
1
1
1
1
1
1
1
1
1
1
1
1
1
1
1
1
1
1
1
1
1
1
1
1
1
1
1
1
1
1
1
1
1
1
1
1
1
1
1
1
1
1
1
1
1
1
1
1
1
1
1
1
1
1
1
1
1
1
1
1
1
1
1
1
1
0.999982
0.999943
0.99994
0.999963
0.999989
0.999992
0.99999
0.999989
0.999994
1
1
1
1
1
1
1
1
1
1
1
1
1
1
1
1
1
1
1
1
1
1
1
1
1
1
1
1
1
1
1
1
1
1
1
1
1
1
1
1
1
1
1
1
1
1
1
1
1
1
1
1
1
1
1
1
1
1
1
1
1
1
1
1
1
1
1
1
1
1
1
1
1
1
1
1
1
1
1
1
1
1
1
1
1
1
1
1
1
1
1
1
0.999892
0.999848
0.999848
0.999861
0.999859
0.999835
0.999823
0.999863
1
1
1
1
1
1
1
1
1
1
1
1
1
1
1
1
1
1
1
1
1
1
1
1
1
1
1
1
1
1
1
1
1
1
1
1
1
1
1
1
1
1
1
1
1
1
1
1
1
1
1
1
1
1
1
1
1
1
1
1
1
1
1
1
1
1
1
1
1
1
1
1
1
1
1
1
1
1
1
1
1
1
1
1
1
1
1
1
1
1
1
1
1
0.999974
0.999871
0.999823
0.999822
0.999822
0.999822
0.999822
1
1
1
1
1
1
1
1
1
1
1
1
1
1
1
1
1
1
1
1
1
1
1
1
1
1
1
1
1
1
1
1
1
1
1
1
1
1
1
1
1
1
1
1
1
1
1
1
1
1
1
1
1
1
1
1
1
1
1
1
1
1
1
1
1
1
1
1
1
1
1
1
1
1
1
1
1
1
1
1
1
1
1
1
1
1
1
1
1
1
1
1
1
1
1
1
0.999971
0.999863
0.999878
0.999972
1
1
1
1
1
1
1
1
1
1
1
1
1
1
1
1
1
1
1
1
1
1
1
1
1
1
1
1
1
1
1
1
1
1
1
1
1
1
1
1
1
1
1
1
1
1
1
1
1
1
1
1
1
1
1
1
1
1
1
1
1
1
1
1
1
1
1
1
1
1
1
1
1
1
1
1
1
1
1
1
1
1
1
1
1
1
1
1
1
1
1
1
1
1
1
1
1
1
1
1
1
1
1
1
1
1
1
1
1
1
1
1
1
1
1
1
1
1
1
1
1
1
1
1
1
1
1
1
1
1
1
1
1
1
1
1
1
1
1
1
1
1
1
1
1
1
1
1
1
1
1
1
1
1
1
1
1
1
1
1
1
1
1
1
1
1
1
1
1
1
1
1
1
1
1
1
1
1
1
1
1
1
1
1
1
1
1
1
1
1
1
1
1
1
1
1
1
1
1
1
1
1
1
1
1
1
1
1
1
1
1
1
1
1
1
1
1
1
1
1
1
1
1
1
1
1
1
1
1
1
1
1
1
1
1
1
1
1
1
1
1
1
1
1
1
1
1
1
1
1
1
1
1
1
1
1
1
1
1
1
1
1
1
1
1
1
1
1
1
1
1
1
1
1
1
1
1
1
1
1
1
1
1
1
1
1
1
1
1
1
1
1
1
1
1
1
1
1
0.999999
0.999153
1
1
1
1
1
1
1
1
1
1
1
1
1
1
1
1
1
1
1
1
1
1
1
1
1
1
1
1
1
1
1
1
1
1
1
1
1
1
1
1
1
1
1
1
1
1
1
1
1
1
1
1
1
1
1
1
1
1
1
1
1
1
1
1
1
1
1
1
1
1
1
1
1
1
1
1
1
1
1
1
1
1
1
1
1
1
1
1
1
1
1
1
1
1
0.999999
0.999997
0.999991
0.989186
0.921091
0.60165
1
1
1
1
1
1
1
1
1
1
1
1
1
1
1
1
1
1
1
1
1
1
1
1
1
1
1
1
1
1
1
1
1
1
1
1
1
1
1
1
1
1
1
1
1
1
1
1
1
1
1
1
1
1
1
1
1
1
1
1
1
1
1
1
1
1
1
1
1
1
1
1
1
1
1
1
1
1
1
1
1
1
1
1
1
1
1
1
1
1
1
0.999998
0.999994
0.996064
0.954996
0.865582
0.633758
0.383767
0.108474
2.42706e-07
1
1
1
1
1
1
1
1
1
1
1
1
1
1
1
1
1
1
1
1
1
1
1
1
1
1
1
1
1
1
1
1
1
1
1
1
1
1
1
1
1
1
1
1
1
1
1
1
1
1
1
1
1
1
1
1
1
1
1
1
1
1
1
1
1
1
1
1
1
1
1
1
1
1
1
1
1
1
1
1
1
1
1
1
1
1
1
1
0.999999
0.999993
0.999984
0.966816
0.853768
0.551594
0.268034
0.0756177
2.03944e-07
1.76503e-07
1.74507e-07
1.86818e-07
1
1
1
1
1
1
1
1
1
1
1
1
1
1
1
1
1
1
1
1
1
1
1
1
1
1
1
1
1
1
1
1
1
1
1
1
1
1
1
1
1
1
1
1
1
1
1
1
1
1
1
1
1
1
1
1
1
1
1
1
1
1
1
1
1
1
1
1
1
1
1
1
1
1
1
1
1
1
1
1
1
1
1
1
1
1
0.999998
0.999995
0.99996
0.961114
0.784298
0.41781
0.0880657
1.63169e-06
2.00511e-07
1.73786e-07
1.75258e-07
1.75876e-07
1.76809e-07
1.77104e-07
1
1
1
1
1
1
1
1
1
1
1
1
1
1
1
1
1
1
1
1
1
1
1
1
1
1
1
1
1
1
1
1
1
1
1
1
1
1
1
1
1
1
1
1
1
1
1
1
1
1
1
1
1
1
1
1
1
1
1
1
1
1
1
1
1
1
1
1
1
1
1
1
1
1
1
1
1
1
1
1
1
1
1
1
0.999999
0.999992
0.999947
0.999814
0.841973
0.449997
0.08461
9.54381e-06
3.83553e-07
1.84255e-07
1.75364e-07
1.75262e-07
1.7526e-07
1.7527e-07
1.75905e-07
8.97062e-07
1
1
1
1
1
1
1
1
1
1
1
1
1
1
1
1
1
1
1
1
1
1
1
1
1
1
1
1
1
1
1
1
1
1
1
1
1
1
1
1
1
1
1
1
1
1
1
1
1
1
1
1
1
1
1
1
1
1
1
1
1
1
1
1
1
1
1
1
1
1
1
1
1
1
1
1
1
1
1
1
1
0.999999
0.999999
0.999994
0.999978
0.999812
0.933825
0.576172
0.132953
6.36562e-06
1.67731e-06
4.34428e-07
1.84166e-07
1.7553e-07
1.75411e-07
1.75345e-07
1.75291e-07
1.77944e-07
2.23782e-06
1.13401e-05
1
1
1
1
1
1
1
1
1
1
1
1
1
1
1
1
1
1
1
1
1
1
1
1
1
1
1
1
1
1
1
1
1
1
1
1
1
1
1
1
1
1
1
1
1
1
1
1
1
1
1
1
1
1
1
1
1
1
1
1
1
1
1
1
1
1
1
1
1
1
1
1
1
1
1
1
1
1
1
0.999999
0.999997
0.999989
0.999968
0.999889
0.999527
0.808839
0.284727
3.15094e-05
2.4943e-06
1.61933e-06
1.03134e-06
8.12073e-07
8.09082e-07
8.19939e-07
1.75448e-07
1.75448e-07
7.35141e-07
7.40314e-06
1.32183e-05
1.31359e-05
1
1
1
1
1
1
1
1
1
1
1
1
1
1
1
1
1
1
1
1
1
1
1
1
1
1
1
1
1
1
1
1
1
1
1
1
1
1
1
1
1
1
1
1
1
1
1
1
1
1
1
1
1
1
1
1
1
1
1
1
1
1
1
1
1
1
1
1
1
1
1
1
1
1
1
1
1
1
0.999998
0.99998
0.999939
0.999806
0.999429
0.947183
0.606234
0.101095
3.81984e-06
2.53206e-06
2.16482e-06
2.16648e-06
2.17284e-06
2.66213e-06
2.32436e-06
1.80168e-07
1.755e-07
1.55592e-06
1.15816e-05
1.33127e-05
1.32959e-05
5.90554e-06
1
1
1
1
1
1
1
1
1
1
1
1
1
1
1
1
1
1
1
1
1
1
1
1
1
1
1
1
1
1
1
1
1
1
1
1
1
1
1
1
1
1
1
1
1
1
1
1
1
1
1
1
1
1
1
1
1
1
1
1
1
1
1
1
1
1
1
1
1
1
1
1
1
1
1
1
1
1
0.999952
0.999633
0.997694
0.928817
0.696927
0.271982
7.8829e-06
4.19953e-06
3.06486e-06
2.97829e-06
2.91163e-06
4.89864e-06
5.60047e-06
2.69407e-06
5.46351e-07
5.14012e-07
2.90303e-06
1.21821e-05
1.30925e-05
1.11457e-05
2.01022e-06
9.6631e-08
1
1
1
1
1
1
1
1
1
1
1
1
1
1
1
1
1
1
1
1
1
1
1
1
1
1
1
1
1
1
1
1
1
1
1
1
1
1
1
1
1
1
1
1
1
1
1
1
1
1
1
1
1
1
1
1
1
1
1
1
1
1
1
1
1
1
1
1
1
1
1
1
1
1
1
1
1
0.999997
0.993229
0.843316
0.557207
0.237292
0.0119081
1.0453e-06
1.31111e-06
5.11714e-06
5.43225e-06
1.05974e-05
1.71412e-05
1.70466e-05
3.42205e-06
6.69784e-07
6.37162e-07
5.16508e-06
1.21796e-05
1.28517e-05
9.79687e-06
9.70015e-08
9.65072e-08
9.65685e-08
1
1
1
1
1
1
1
1
1
1
1
1
1
1
1
1
1
1
1
1
1
1
1
1
1
1
1
1
1
1
1
1
1
1
1
1
1
1
1
1
1
1
1
1
1
1
1
1
1
1
1
1
1
1
1
1
1
1
1
1
1
1
1
1
1
1
1
1
1
1
1
1
1
1
1
1
0.999999
0.961751
0.487672
0.116463
1.65227e-06
1.14784e-06
1.16742e-06
1.23007e-06
1.22184e-06
5.56159e-06
1.41143e-05
1.72699e-05
1.72444e-05
1.15515e-05
7.4578e-07
7.05259e-07
3.89674e-06
1.19959e-05
1.27095e-05
9.18436e-06
1.0202e-07
9.65824e-08
9.77837e-08
9.66651e-08
1
1
1
1
1
1
1
1
1
1
1
1
1
1
1
1
1
1
1
1
1
1
1
1
1
1
1
1
1
1
1
1
1
1
1
1
1
1
1
1
1
1
1
1
1
1
1
1
1
1
1
1
1
1
1
1
1
1
1
1
1
1
1
1
1
1
1
1
1
1
1
1
1
1
1
1
0.999978
0.384871
2.9502e-05
1.65174e-06
1.14306e-06
1.16122e-06
1.14073e-06
1.24105e-06
8.34627e-06
1.73444e-05
1.73456e-05
1.73393e-05
1.35147e-05
8.29922e-07
7.93896e-07
2.7288e-06
1.09985e-05
1.24081e-05
8.95785e-06
1.1976e-07
1.07406e-07
1.7238e-06
3.71976e-06
1.46938e-06
1
1
1
1
1
1
1
1
1
1
1
1
1
1
1
1
1
1
1
1
1
1
1
1
1
1
1
1
1
1
1
1
1
1
1
1
1
1
1
1
1
1
1
1
1
1
1
1
1
1
1
1
1
1
1
1
1
1
1
1
1
1
1
1
1
1
1
1
1
1
1
1
1
1
1
1
0.669453
0.0301017
7.74996e-05
3.43471e-06
1.27642e-06
1.15197e-06
3.47383e-06
7.52069e-06
1.73428e-05
1.73456e-05
1.73428e-05
1.09023e-05
9.33899e-07
8.9606e-07
1.78939e-06
1.01223e-05
1.12358e-05
8.18076e-06
1.47729e-07
1.3214e-07
5.8933e-06
2.00867e-05
2.1259e-05
7.45506e-06
1
1
1
1
1
1
1
1
1
1
1
1
1
1
1
1
1
1
1
1
1
1
1
1
1
1
1
1
1
1
1
1
1
1
1
1
1
1
1
1
1
1
1
1
1
1
1
1
1
1
1
1
1
1
1
1
1
1
1
1
1
1
1
1
1
1
1
1
1
1
1
1
1
1
1
0.947078
0.216503
0.000340641
1.31872e-05
4.34676e-06
3.77467e-06
6.43853e-06
7.77157e-06
7.54335e-06
4.22768e-06
7.27186e-06
6.01721e-06
1.11336e-06
9.61543e-07
1.31281e-06
8.82929e-06
1.10008e-05
8.452e-06
1.85483e-07
1.62993e-07
6.40361e-06
2.18814e-05
2.19194e-05
2.14853e-05
5.80838e-06
1
1
1
1
1
1
1
1
1
1
1
1
1
1
1
1
1
1
1
1
1
1
1
1
1
1
1
1
1
1
1
1
1
1
1
1
1
1
1
1
1
1
1
1
1
1
1
1
1
1
1
1
1
1
1
1
1
1
1
1
1
1
1
1
1
1
1
1
1
1
1
1
1
1
0.999999
0.630698
0.0122444
1.20111e-05
3.63556e-06
4.60342e-06
7.11422e-06
7.61881e-06
6.90635e-06
1.31846e-06
8.39173e-07
8.41347e-07
8.70716e-07
9.27504e-07
3.60376e-06
9.62991e-06
9.6299e-06
7.36968e-06
2.17861e-07
2.39392e-07
5.30927e-06
2.18181e-05
2.19195e-05
1.85566e-05
2.13804e-06
6.41386e-07
1
1
1
1
1
1
1
1
1
1
1
1
1
1
1
1
1
1
1
1
1
1
1
1
1
1
1
1
1
1
1
1
1
1
1
1
1
1
1
1
1
1
1
1
1
1
1
1
1
1
1
1
1
1
1
1
1
1
1
1
1
1
1
1
1
1
1
1
1
1
1
1
1
1
0.9686
0.268118
8.4814e-06
1.40957e-06
2.68984e-06
4.87696e-06
7.28674e-06
5.96029e-06
8.37233e-07
8.37258e-07
8.37349e-07
8.3919e-07
2.07728e-06
8.31235e-06
9.67012e-06
9.62824e-06
6.09103e-06
1.53873e-07
1.53875e-07
4.28053e-06
2.10132e-05
2.18194e-05
1.60693e-05
1.57457e-07
1.60484e-07
1.39599e-06
1
1
1
1
1
1
1
1
1
1
1
1
1
1
1
1
1
1
1
1
1
1
1
1
1
1
1
1
1
1
1
1
1
1
1
1
1
1
1
1
1
1
1
1
1
1
1
1
1
1
1
1
1
1
1
1
1
1
1
1
1
1
1
1
1
1
1
1
1
1
1
1
1
0.999998
0.681646
0.0298493
1.44144e-06
1.21887e-06
2.96818e-06
6.7981e-06
5.44538e-06
8.3739e-07
8.37256e-07
8.37375e-07
8.39201e-07
3.9389e-06
9.73254e-06
9.73254e-06
9.70601e-06
2.9825e-06
1.54007e-07
1.53803e-07
3.84163e-06
1.96914e-05
2.08956e-05
1.52035e-05
1.52779e-07
1.51451e-07
3.11743e-07
1.22247e-05
0.999998
1
1
1
1
1
1
1
1
1
1
1
1
1
1
1
1
1
1
1
1
1
1
1
1
1
1
1
1
1
1
1
1
1
1
1
1
1
1
1
1
1
1
1
1
1
1
1
1
1
1
1
1
1
1
1
1
1
1
1
1
1
1
1
1
1
1
1
1
1
1
1
0.999999
0.999962
0.334819
0.00110136
8.29927e-06
5.89476e-07
2.79612e-06
4.09947e-06
8.37462e-07
8.37385e-07
8.37401e-07
8.40072e-07
2.7597e-06
3.60116e-06
3.64015e-06
2.91197e-06
7.41193e-07
1.47074e-07
1.54248e-07
3.80565e-06
1.86539e-05
2.01923e-05
1.50877e-05
1.54966e-07
1.51446e-07
1.66079e-07
6.91325e-06
1.40771e-05
0.999875
0.999993
1
1
1
1
1
1
1
1
1
1
1
1
1
1
1
1
1
1
1
1
1
1
1
1
1
1
1
1
1
1
1
1
1
1
1
1
1
1
1
1
1
1
1
1
1
1
1
1
1
1
1
1
1
1
1
1
1
1
1
1
1
1
1
1
1
1
1
1
1
1
0.999992
0.702167
0.058524
1.48866e-05
5.26226e-07
5.78637e-07
1.07525e-06
9.08217e-07
8.37473e-07
1.28897e-06
1.46859e-06
1.46891e-06
6.98601e-07
1.84927e-07
5.76211e-08
6.11308e-08
7.32583e-08
8.07856e-08
3.66402e-06
1.72356e-05
1.86132e-05
1.37133e-05
1.75391e-07
1.55604e-07
1.75898e-07
4.15858e-06
1.38913e-05
1.40624e-05
0.777209
0.931535
0.999964
0.999999
1
1
1
0.923457
0.818175
0.703376
0.575667
0.55313
0.81309
1
1
1
1
1
1
1
1
1
1
1
1
1
1
1
1
1
1
1
1
1
1
1
1
1
1
1
1
1
1
1
1
1
1
1
1
1
1
1
1
1
1
1
1
1
1
1
1
1
1
1
1
1
1
1
1
1
1
0.999996
0.999821
0.303805
0.00028507
7.20125e-07
5.16345e-07
5.56043e-07
5.56104e-07
2.02547e-06
1.33673e-06
5.62716e-08
1.65846e-07
1.82159e-07
7.15764e-08
5.65492e-08
5.7094e-08
5.76011e-08
6.11085e-08
2.69495e-06
1.37079e-05
1.69753e-05
9.45663e-06
4.52299e-07
4.27009e-07
1.9135e-06
5.47167e-06
1.20028e-05
1.21885e-05
5.2054e-06
0.317874
0.381078
0.594612
0.983676
0.997434
0.860462
0.533778
0.284112
0.140297
0.0624626
0.0196713
0.0148485
0.106146
0.679495
1
1
1
1
1
1
1
1
1
1
1
1
1
1
1
1
1
1
1
1
1
1
1
1
1
1
1
1
1
1
1
1
1
1
1
1
1
1
1
1
1
1
1
1
1
1
1
1
1
1
1
1
1
1
1
1
1
0.999966
0.606147
0.0354093
2.65613e-05
6.91598e-07
6.61325e-07
5.91597e-07
4.17513e-06
4.15857e-06
2.28536e-06
5.61126e-08
5.61485e-08
5.61942e-08
5.62692e-08
5.63753e-08
5.65447e-08
5.82272e-08
1.01764e-06
9.06521e-06
1.16326e-05
4.03936e-06
4.64812e-07
6.89663e-07
6.41612e-06
9.61839e-06
9.63146e-06
5.93512e-06
9.16692e-07
4.64393e-09
0.417928
0.516305
0.457939
0.488118
0.579017
0.446621
0.205305
0.0459574
0.00947038
0.0046284
0.00216533
0.000374988
0.000200028
0.0331369
0.715094
1
1
1
1
1
1
1
1
1
1
1
1
1
1
1
1
1
1
1
1
1
1
1
1
1
1
1
1
1
1
1
1
1
1
1
1
1
1
1
1
1
1
1
1
1
1
1
1
1
1
1
1
1
1
1
0.999984
0.946743
0.16356
2.83065e-05
2.61368e-06
2.25326e-06
7.43779e-07
3.93672e-06
4.30129e-06
4.22308e-06
3.9442e-07
5.61088e-08
5.6113e-08
5.61409e-08
5.61778e-08
5.62838e-08
5.7158e-08
4.86362e-07
3.82487e-06
4.39518e-06
1.03093e-06
4.47103e-07
8.9459e-07
8.12492e-06
9.76161e-06
9.76163e-06
5.57338e-06
4.62877e-09
4.6252e-09
4.63049e-09
0.782679
0.782679
0.776782
0.518216
0.172852
0.0280294
0.0122114
0.014717
0.0190407
0.0118433
0.000793243
0.000199635
0.000105794
4.37718e-05
0.0467526
0.759082
1
1
1
1
1
1
1
1
1
1
1
1
1
1
1
1
1
1
1
1
1
1
1
1
1
1
1
1
1
1
1
1
1
1
1
1
1
1
1
1
1
1
1
1
1
1
1
1
1
1
1
1
1
0.999995
0.999829
0.353052
6.59587e-05
2.71522e-06
1.82669e-06
1.8357e-06
2.86155e-06
4.28944e-06
4.30129e-06
8.24194e-07
5.60783e-08
5.60818e-08
5.61022e-08
5.61799e-08
5.62581e-08
5.80865e-07
2.30004e-06
3.31577e-06
8.47015e-07
2.54259e-07
2.53513e-07
9.68742e-07
8.04298e-06
9.72142e-06
9.58237e-06
2.85493e-06
4.61551e-09
4.61538e-09
4.61891e-09
4.651e-09
0.782679
0.782674
0.520838
0.109761
0.00166704
0.000593716
6.24588e-05
1.60524e-05
0.00100005
0.00341618
0.00256996
0.000223245
4.40526e-05
1.39486e-05
3.59672e-05
0.0795752
0.735439
1
1
1
1
1
1
1
1
1
1
1
1
1
1
1
1
1
1
1
1
1
1
1
1
1
1
1
1
1
1
1
1
1
1
1
1
1
1
1
1
1
1
1
1
1
1
1
1
1
1
1
1
0.999959
0.716458
0.0078388
4.24595e-07
1.82535e-06
1.82665e-06
1.8247e-06
4.20277e-06
4.27758e-06
1.71139e-06
5.65913e-08
5.63177e-08
5.60776e-08
5.61608e-08
7.19617e-08
3.24594e-06
7.87237e-06
8.04191e-06
4.23629e-06
2.58064e-07
2.53444e-07
7.55267e-07
7.22815e-06
9.54955e-06
8.89848e-06
8.97186e-07
4.62629e-09
4.61749e-09
4.62075e-09
4.65215e-09
4.54291e-09
0.782674
0.782831
0.23995
0.00161369
0.000156684
7.28225e-06
3.56363e-06
8.53267e-07
1.99086e-06
6.75769e-05
0.000809348
0.000320036
1.58348e-05
6.29356e-06
2.3644e-06
9.50802e-07
0.0737149
0.63391
0.988086
1
1
1
1
1
1
1
1
1
1
1
1
1
1
1
1
1
1
1
1
1
1
1
1
1
1
1
1
1
1
1
1
1
1
1
1
1
1
1
1
1
1
1
1
1
1
1
1
1
0.999983
0.966407
0.114091
1.24989e-06
1.50182e-06
9.2199e-06
1.82433e-06
2.52227e-06
4.14728e-06
3.45051e-06
5.86569e-08
5.76173e-08
5.65881e-08
5.63695e-08
1.41085e-06
9.26826e-06
1.1622e-05
1.1622e-05
5.22105e-06
2.62361e-07
2.56392e-07
6.8005e-07
5.86026e-06
8.62372e-06
7.71529e-06
2.45842e-07
4.9586e-09
4.67951e-09
4.65779e-09
4.65784e-09
4.77927e-09
4.93741e-09
0.782831
0.783285
0.170286
7.99271e-05
4.6699e-06
-1.1636e-06
-2.50573e-07
1.77354e-07
5.1197e-07
2.0014e-06
5.35046e-05
0.00014888
2.19677e-05
2.50409e-06
9.4253e-07
6.34191e-07
6.25589e-07
0.0350581
0.365187
0.841621
1
1
1
1
1
1
1
1
1
1
1
1
1
1
1
1
1
1
1
1
1
1
1
1
1
1
1
1
1
1
1
1
1
1
1
1
1
1
1
1
1
1
1
1
1
1
0.999999
0.99999
0.99985
0.392309
1.24838e-06
1.19509e-06
1.41116e-06
3.67247e-06
4.09975e-06
4.1111e-06
4.08908e-06
2.49805e-07
6.33234e-08
5.86479e-08
4.75043e-07
8.58769e-06
1.19288e-05
1.18402e-05
1.05591e-05
1.49158e-06
2.72305e-07
2.67762e-07
2.16926e-06
6.89981e-06
7.34138e-06
4.61373e-06
1.342e-08
9.48981e-09
5.36279e-09
5.01743e-09
4.85436e-09
4.83256e-09
5.68934e-09
1.13824e-07
0.781807
0.765451
0.152001
5.3886e-06
3.66527e-07
2.04391e-07
1.74033e-07
1.62765e-07
3.89551e-07
2.36265e-06
1.95114e-05
2.10075e-05
1.09637e-05
1.39635e-06
7.60482e-07
7.3542e-07
6.34184e-07
2.10794e-05
6.099e-05
0.116655
0.537315
0.967826
1
1
1
1
1
1
1
1
1
1
1
1
1
1
1
1
1
1
1
1
1
1
1
1
1
1
1
1
1
1
1
1
1
1
1
1
1
1
1
1
1
1
1
0.999999
0.999995
0.999905
0.855126
0.0299483
1.18433e-06
1.1745e-06
1.18136e-06
3.00109e-06
4.17045e-06
4.17046e-06
1.98659e-06
1.02019e-07
6.79664e-08
5.03536e-06
1.21707e-05
1.21175e-05
1.20643e-05
7.03163e-06
3.97058e-07
3.96144e-07
6.4663e-07
5.3099e-06
8.73226e-06
8.6875e-06
5.56939e-06
3.5555e-08
2.16429e-08
1.34676e-08
1.02682e-08
1.00302e-08
6.95112e-09
6.26629e-09
6.66195e-08
1.19625e-06
0.779152
0.416932
0.199835
7.2277e-06
3.05116e-07
1.68854e-07
1.63431e-07
1.61816e-07
4.63756e-07
1.50829e-06
6.9928e-06
5.63408e-06
5.17907e-06
2.89437e-06
8.35913e-07
7.32746e-07
7.36094e-07
2.6173e-06
5.54971e-06
1.68927e-05
0.0093175
0.230533
0.777071
0.999999
1
1
1
1
1
1
1
1
1
1
1
1
1
1
1
1
1
1
1
1
1
1
1
1
1
1
1
1
1
1
1
1
1
1
1
1
1
1
1
1
0.999999
0.999993
0.99993
0.999054
0.198682
3.15999e-05
9.2115e-05
1.17257e-06
1.1745e-06
2.65772e-06
4.17045e-06
3.04208e-06
2.84862e-07
2.11168e-07
8.64394e-06
1.21707e-05
1.21707e-05
1.21387e-05
3.48555e-06
5.15867e-07
4.37417e-07
2.27463e-06
8.18683e-06
8.84671e-06
8.84673e-06
4.38295e-06
7.47292e-08
4.58624e-08
3.25389e-07
2.43758e-06
3.91496e-06
3.08673e-06
7.27726e-07
8.28825e-08
5.21537e-07
1.25993e-06
0.773442
0.280212
0.304262
1.95018e-06
2.53853e-07
1.57075e-07
1.62476e-07
1.62427e-07
2.70262e-07
9.59821e-07
2.78553e-06
2.22883e-06
1.20729e-06
1.67684e-06
2.53201e-06
1.88016e-06
1.53464e-06
1.89151e-06
3.56289e-06
5.62607e-06
6.68144e-05
7.13251e-05
0.0514296
0.391501
0.96361
1
1
1
1
1
1
0.999995
0.999993
1
1
1
1
1
1
1
1
1
1
1
1
1
1
1
1
1
1
1
1
1
1
1
1
1
1
1
1
1
1
0.999998
0.99999
0.99993
0.999379
0.632478
0.0221038
1.94922e-06
1.18751e-06
1.17389e-06
1.17238e-06
1.19098e-06
2.06877e-06
8.09025e-07
7.12593e-07
9.44912e-06
1.21003e-05
1.21355e-05
1.13488e-05
1.40228e-06
5.93065e-07
5.88131e-07
4.45446e-06
8.9017e-06
8.9088e-06
8.69935e-06
2.70643e-06
1.21494e-07
1.03473e-07
1.57422e-06
7.55664e-06
9.88801e-06
9.88795e-06
9.87962e-06
8.0998e-06
5.25993e-06
3.17981e-06
5.41932e-07
0.59065
0.279857
0.312215
0.000213111
5.26782e-07
7.58703e-08
1.62338e-07
1.62372e-07
1.62342e-07
2.95729e-07
1.29977e-06
1.28483e-06
5.21292e-07
2.36798e-07
2.06008e-06
4.6485e-06
2.7555e-06
2.46381e-06
3.05806e-06
4.07775e-06
6.733e-05
0.00044836
0.00053317
0.00467131
0.275159
0.768059
0.999994
1
1
1
1
0.999997
0.992782
0.959637
0.956339
0.997933
0.999203
1
0.999938
0.999811
1
1
1
1
1
1
1
1
1
1
1
1
1
1
1
1
1
1
1
1
1
0.999999
0.999996
0.999984
0.999908
0.999366
0.870426
0.0588429
3.27332e-05
1.19475e-06
1.17595e-06
1.17413e-06
1.34296e-06
1.16975e-06
1.07397e-06
1.06821e-06
8.4945e-06
1.20209e-05
1.2055e-05
9.51566e-06
4.89175e-07
4.90776e-07
6.56683e-07
6.03175e-06
8.89515e-06
8.91101e-06
7.92914e-06
1.18829e-06
1.43824e-07
1.39752e-07
3.26168e-06
9.84877e-06
9.88466e-06
9.89083e-06
9.88467e-06
9.85076e-06
9.67045e-06
9.17762e-06
3.0229e-06
4.67641e-09
0.356314
0.454702
0.292715
0.00489207
-5.69846e-07
-3.27287e-07
1.61517e-07
1.62429e-07
1.62458e-07
1.63376e-07
3.95956e-07
8.09623e-07
3.94759e-07
1.71538e-07
2.23667e-07
1.02419e-06
8.68023e-06
4.47068e-05
9.8884e-06
5.79237e-06
7.80157e-06
0.000151102
0.0014777
0.0319252
0.478793
0.820903
0.926488
0.980605
1
1
0.999999
0.997684
0.955475
0.932539
0.932539
0.958898
0.999584
0.999592
0.997343
0.998609
1
0.999981
0.999937
1
1
1
1
1
0.999999
1
1
1
1
1
1
1
1
1
1
0.999999
0.999997
0.999989
0.999963
0.999857
0.999187
0.936883
0.196517
2.8581e-05
0.000112337
2.12466e-05
1.20001e-06
2.6581e-06
3.40614e-06
1.17298e-06
1.16956e-06
6.26809e-06
1.18364e-05
1.19676e-05
7.96685e-06
1.52411e-07
2.71163e-07
7.25283e-07
6.4977e-06
8.87325e-06
8.90884e-06
6.47342e-06
2.87251e-07
1.28946e-07
1.37872e-07
3.97678e-06
9.88021e-06
9.88251e-06
9.88481e-06
9.88468e-06
9.50193e-06
4.48362e-06
1.51266e-06
9.7188e-08
5.30612e-09
4.71848e-09
0.356315
0.501431
0.317712
0.0787004
1.26797e-05
1.65422e-08
1.41426e-07
1.61858e-07
1.63227e-07
1.63795e-07
1.76547e-07
1.95757e-07
1.66467e-07
1.50887e-07
1.48897e-07
1.60026e-07
1.17696e-05
0.000640081
0.000492398
2.54185e-05
4.09541e-05
0.000207367
0.000609373
0.00372923
0.159947
0.783952
0.936432
0.931741
0.978287
0.999999
0.999993
0.985105
0.932616
0.932539
0.949757
0.992256
0.998528
0.997941
0.996809
0.996808
0.997162
0.999844
1
1
1
1
1
0.999987
0.999999
1
1
1
1
1
1
1
1
1
0.999998
0.999993
0.999973
0.999896
0.999664
0.998708
0.92391
0.302341
2.83142e-05
7.3142e-06
6.71176e-06
4.44549e-06
2.61725e-06
3.49546e-06
3.52929e-06
1.57068e-06
3.8734e-06
1.16081e-05
1.17124e-05
8.01284e-06
8.99798e-08
1.19868e-07
4.39105e-07
6.27843e-06
8.81801e-06
8.84119e-06
4.55539e-06
7.74696e-08
7.89057e-08
1.20965e-07
3.5823e-06
9.87511e-06
9.88017e-06
9.88021e-06
9.87789e-06
7.68406e-06
7.20592e-07
7.97927e-09
8.06433e-09
6.89245e-09
5.80573e-09
5.35024e-09
0.356445
0.501566
0.501458
0.163383
3.55217e-05
7.48437e-05
1.61405e-07
1.6189e-07
1.82676e-07
1.80995e-07
1.83051e-07
1.68308e-07
1.52271e-07
1.46442e-07
1.44169e-07
1.42652e-07
0.000366428
0.000950385
0.000987649
0.000183515
8.821e-05
8.05123e-05
0.000167162
0.000824864
0.0900251
0.779902
0.996514
0.944174
0.94903
0.999993
0.993515
0.96591
0.964426
0.985884
0.998405
0.999938
0.998624
0.998569
0.998949
0.99909
0.999037
0.99902
0.999149
0.999587
0.999737
0.999654
0.999695
0.999962
1
1
1
1
1
1
1
1
0.999999
0.999996
0.999982
0.999927
0.999736
0.999024
0.994328
0.83539
0.278811
3.14647e-05
5.15246e-05
5.38199e-05
5.76171e-05
4.02056e-06
1.07493e-06
2.83859e-06
2.59403e-06
3.62386e-06
1.12375e-05
1.14396e-05
9.33924e-06
8.26817e-08
8.36565e-08
8.99952e-08
6.28394e-07
7.16393e-06
8.77317e-06
2.89747e-06
7.58288e-08
7.555e-08
8.15046e-08
2.76705e-06
9.82375e-06
9.86813e-06
9.87512e-06
9.86988e-06
5.24846e-06
3.14042e-08
1.13737e-08
8.14888e-09
8.00828e-09
8.22377e-09
3.59101e-08
1.54782e-07
0.35673
0.5014
0.500544
0.215833
0.000146855
0.000226068
4.55175e-07
1.67547e-07
3.06785e-07
3.13287e-07
2.4153e-07
1.92228e-07
1.54724e-07
1.44776e-07
1.42993e-07
1.39262e-07
0.000209091
0.000987523
0.000992069
0.000369394
8.79999e-05
7.80827e-05
9.33963e-05
0.000355334
0.0941068
0.79762
0.999896
0.995341
0.973671
0.986458
0.987638
0.992429
0.999973
0.999986
0.999991
0.99999
0.99995
0.999977
0.999991
0.999984
0.999761
0.999224
0.999091
0.999091
0.999091
0.999092
0.999373
1
1
1
1
1
1
0.999999
0.999999
0.999996
0.999988
0.999948
0.999812
0.999266
0.995791
0.882656
0.559123
0.146708
5.27857e-06
1.27214e-05
5.30709e-05
8.53988e-05
4.06346e-05
1.07226e-06
1.06732e-06
1.07492e-06
1.25299e-06
8.56367e-06
1.11389e-05
1.072e-05
2.2797e-07
7.70243e-08
7.98553e-08
1.22205e-07
8.61686e-07
9.24537e-07
4.07958e-07
7.92335e-08
7.57273e-08
7.92303e-08
6.20441e-07
7.05441e-06
9.61097e-06
9.8002e-06
6.84235e-06
2.57473e-06
1.23504e-06
9.40483e-07
3.14371e-08
1.13253e-08
8.44549e-09
2.16533e-08
4.11667e-07
7.75291e-07
0.40083
0.50417
0.457848
0.0868711
0.00012369
3.46984e-06
6.42219e-07
2.43057e-07
2.83863e-07
3.20169e-07
3.21173e-07
3.18715e-07
3.12816e-07
2.0665e-07
1.403e-07
1.38186e-07
1.37277e-07
0.000938233
0.000994543
0.000665949
7.81642e-05
7.64026e-05
7.52234e-05
0.000162535
0.0597002
0.728246
0.99992
0.999896
0.997541
0.988124
0.99295
0.999988
0.999991
0.999991
0.999991
0.999991
0.999991
0.999991
0.999991
0.999991
0.99999
0.999917
0.999524
0.99921
0.999265
0.999795
0.999997
0.999999
1
0.999999
0.999998
0.999997
0.999995
0.999991
0.99998
0.999949
0.999852
0.999403
0.99654
0.895574
0.583961
0.190553
0.00595679
9.51314e-07
9.75034e-07
0.00026925
0.000116662
8.08645e-05
1.07226e-06
1.06337e-06
1.06534e-06
1.06734e-06
3.18634e-06
1.0853e-05
1.10123e-05
2.28992e-06
7.69004e-08
7.69271e-08
7.70509e-08
1.68458e-07
2.08231e-07
9.27794e-08
9.1936e-08
9.03026e-08
6.43017e-07
2.13025e-06
3.52703e-06
4.5305e-06
2.19063e-06
4.81228e-07
6.14152e-07
1.69582e-06
1.1859e-05
1.67794e-05
9.75925e-06
5.50865e-07
1.38609e-08
3.81271e-08
5.91135e-07
7.75294e-07
0.50603
0.497289
0.0741825
0.000232528
1.14649e-05
3.35194e-06
5.76093e-06
4.95965e-07
1.85115e-07
1.82332e-07
2.04621e-07
2.26997e-07
2.49037e-07
1.4168e-07
1.40293e-07
1.40221e-07
1.37896e-07
0.000786334
0.00101437
0.00103249
0.000131595
7.53789e-05
6.0353e-05
9.55723e-05
0.0763998
0.778931
0.999922
0.99992
0.999896
0.99866
0.999825
0.999991
0.999991
0.999991
0.999991
0.999991
0.999991
0.999991
0.999991
0.99999
0.999986
0.999926
0.999918
0.999927
0.999939
0.999954
0.999995
0.999997
0.999994
0.999986
0.999972
0.999954
0.999929
0.999873
0.999718
0.999304
0.991979
0.87755
0.580347
0.206315
0.0123137
7.28195e-08
9.81684e-08
6.37742e-07
0.000108411
0.000367338
0.000335188
1.17506e-06
1.06338e-06
1.06336e-06
1.06338e-06
1.92222e-06
9.44931e-06
1.06936e-05
4.11669e-06
7.70717e-08
7.70645e-08
7.7031e-08
8.28985e-08
1.61123e-07
1.21805e-07
9.65242e-08
1.83908e-07
2.69738e-06
4.96177e-06
4.9618e-06
3.95049e-06
1.43472e-07
1.53228e-07
1.67418e-07
2.75711e-06
1.63279e-05
2.06018e-05
2.05913e-05
2.06149e-05
1.43856e-05
1.28324e-06
4.37127e-08
1.60308e-07
7.75306e-07
0.503512
0.139372
0.000302979
1.29515e-05
-1.63891e-06
2.93123e-06
7.01044e-06
5.47862e-05
2.51535e-06
1.58971e-07
1.56781e-07
1.50733e-07
1.44865e-07
1.43347e-07
1.44991e-07
1.39726e-07
1.39665e-07
0.000570179
0.00102594
0.00103585
0.000223667
6.62333e-05
6.22136e-05
6.04055e-05
0.0623755
0.763372
0.999921
0.999921
0.999941
0.999977
0.999989
0.99999
0.999991
0.999991
0.999991
0.997948
0.989542
0.988246
0.995966
0.999962
0.999953
0.999902
0.999905
0.99992
0.999928
0.99994
0.999973
0.999948
0.999887
0.999766
0.999575
0.999311
0.997998
0.980808
0.924256
0.782465
0.498212
0.174551
0.00856836
4.19661e-09
6.32995e-09
2.6917e-08
2.33761e-07
4.53779e-06
0.000257089
0.000368028
0.000281865
1.15644e-06
1.11217e-06
1.06115e-06
3.19894e-06
8.58002e-06
9.28486e-06
4.62194e-06
8.20876e-08
7.82535e-08
7.72082e-08
7.80086e-08
1.70921e-07
6.18678e-08
6.34947e-08
3.00841e-07
3.59402e-06
4.98216e-06
4.98215e-06
3.38277e-06
1.37849e-07
1.40148e-07
1.42642e-07
5.59941e-07
1.46508e-05
2.05803e-05
2.05966e-05
2.05803e-05
2.05441e-05
2.03504e-05
4.65458e-06
5.09566e-08
7.05113e-08
5.38505e-07
0.500917
0.000862199
6.45265e-06
3.60248e-06
2.68416e-06
2.84107e-06
4.51806e-06
0.000104195
0.000126165
6.62284e-05
8.09949e-06
1.56735e-07
1.50651e-07
5.04199e-07
9.17509e-07