/*--------------------------------*- C++ -*----------------------------------*\
| =========                 |                                                 |
| \\      /  F ield         | OpenFOAM: The Open Source CFD Toolbox           |
|  \\    /   O peration     | Version:  2.4.0                                 |
|   \\  /    A nd           | Web:      www.OpenFOAM.org                      |
|    \\/     M anipulation  |                                                 |
\*---------------------------------------------------------------------------*/
FoamFile
{
    version     2.0;
    format      ascii;
    class       volVectorField;
    location    "0.192";
    object      U;
}
// * * * * * * * * * * * * * * * * * * * * * * * * * * * * * * * * * * * * * //

dimensions      [0 1 -1 0 0 0 0];

internalField   nonuniform List<vector> 
14400
(
(0.00521515 -0.000665959 0)
(0.012135 -6.2764e-05 0)
(0.0138722 -1.74121e-05 0)
(0.017885 5.96995e-05 0)
(0.013454 0.000162722 0)
(0.00478429 0.000135353 0)
(-0.00307994 6.85259e-05 0)
(-0.00920901 -1.09538e-05 0)
(-0.0118237 -7.58911e-05 0)
(-0.0114652 -9.15799e-05 0)
(-0.00920192 -0.000105532 0)
(-0.005848 -0.000100372 0)
(-0.00267756 -7.78248e-05 0)
(-0.000230754 -5.02224e-05 0)
(0.00139049 -2.61216e-05 0)
(0.00234418 -5.28109e-06 0)
(0.00283506 1.04746e-05 0)
(0.00302454 2.13588e-05 0)
(0.0030209 2.76901e-05 0)
(0.0028969 3.08052e-05 0)
(0.00270187 3.28022e-05 0)
(0.00246885 3.40295e-05 0)
(0.00221533 3.45569e-05 0)
(0.00195135 3.49244e-05 0)
(0.00168245 3.54258e-05 0)
(0.00141381 3.58014e-05 0)
(0.00115123 3.61e-05 0)
(0.000899872 3.64443e-05 0)
(0.00066498 3.61767e-05 0)
(0.000448441 3.60713e-05 0)
(0.00483134 -0.00202239 0)
(0.0232759 -0.0012692 0)
(0.0347728 -0.000624176 0)
(0.0510251 -0.000146093 0)
(0.0508481 0.00106272 0)
(0.0394912 0.00164948 0)
(0.0241881 0.00168411 0)
(0.00751425 0.00153585 0)
(-0.0059361 0.000916829 0)
(-0.0140383 0.000253454 0)
(-0.0166284 -0.000589979 0)
(-0.0145068 -0.00102102 0)
(-0.0107795 -0.00105491 0)
(-0.00709487 -0.000905466 0)
(-0.00409782 -0.000706079 0)
(-0.00180613 -0.000526373 0)
(-7.93477e-05 -0.000376326 0)
(0.00118881 -0.000250973 0)
(0.00207873 -0.000145835 0)
(0.00266191 -5.71821e-05 0)
(0.00300644 1.90083e-05 0)
(0.00316557 8.61897e-05 0)
(0.00317709 0.000148664 0)
(0.0030674 0.000209752 0)
(0.00285629 0.00026988 0)
(0.00256502 0.000325088 0)
(0.00221908 0.000371285 0)
(0.00184605 0.000405589 0)
(0.00146876 0.000428356 0)
(0.00110585 0.000441107 0)
(0.00418014 -0.00321247 0)
(0.0215405 -0.00294368 0)
(0.0346023 -0.00148673 0)
(0.0542927 -0.000739717 0)
(0.0567582 0.0015782 0)
(0.0481284 0.00295361 0)
(0.0355523 0.00330182 0)
(0.0213496 0.00334313 0)
(0.00959102 0.0024788 0)
(0.00178423 0.00131756 0)
(-0.00246952 -0.000310173 0)
(-0.00315517 -0.00133197 0)
(-0.00187942 -0.00161292 0)
(2.66227e-06 -0.00150259 0)
(0.00176073 -0.00126056 0)
(0.00317332 -0.00102068 0)
(0.00422975 -0.000796854 0)
(0.0049433 -0.000587471 0)
(0.00535578 -0.000394657 0)
(0.0055222 -0.000220049 0)
(0.00550326 -6.44796e-05 0)
(0.00534343 7.89196e-05 0)
(0.00507483 0.000219313 0)
(0.00471297 0.000364065 0)
(0.00426633 0.000513611 0)
(0.00374481 0.000659221 0)
(0.00316644 0.000786922 0)
(0.00255746 0.000886988 0)
(0.00194665 0.000955624 0)
(0.00136021 0.000993611 0)
(0.00400837 -0.00431744 0)
(0.0207247 -0.00465381 0)
(0.0333449 -0.00236914 0)
(0.0538443 -0.00138403 0)
(0.0566509 0.00194634 0)
(0.0486051 0.00402534 0)
(0.0370706 0.00462502 0)
(0.0242791 0.00482288 0)
(0.0145606 0.00371634 0)
(0.0087857 0.0021292 0)
(0.00580628 6.81995e-05 0)
(0.00498693 -0.00135793 0)
(0.00571665 -0.00188267 0)
(0.0070559 -0.00185509 0)
(0.00830871 -0.00159426 0)
(0.00915665 -0.00127959 0)
(0.009555 -0.000959512 0)
(0.0095678 -0.000648556 0)
(0.00929235 -0.000359352 0)
(0.00881859 -9.96929e-05 0)
(0.00822194 0.000131651 0)
(0.00755517 0.000342003 0)
(0.00685258 0.000548493 0)
(0.00612824 0.000766315 0)
(0.00538307 0.00100017 0)
(0.00461396 0.00123914 0)
(0.00382388 0.00146054 0)
(0.00302689 0.00164221 0)
(0.00224485 0.00177075 0)
(0.00150056 0.00184345 0)
(0.00400627 -0.0054029 0)
(0.0206813 -0.00638419 0)
(0.0329624 -0.00326588 0)
(0.0539922 -0.00203381 0)
(0.0567151 0.00230603 0)
(0.0485728 0.00506279 0)
(0.0371775 0.00586332 0)
(0.0244004 0.00618556 0)
(0.0151371 0.00477707 0)
(0.0101374 0.00269977 0)
(0.00803753 0.000303843 0)
(0.00768188 -0.00139791 0)
(0.00855785 -0.00211562 0)
(0.00989454 -0.00215642 0)
(0.0110267 -0.00184787 0)
(0.0116389 -0.00140834 0)
(0.0117051 -0.000949133 0)
(0.0113449 -0.000510641 0)
(0.0107037 -0.00011306 0)
(0.00988886 0.000235394 0)
(0.00897945 0.000538302 0)
(0.00803612 0.000807059 0)
(0.00709676 0.00106395 0)
(0.00618425 0.00133112 0)
(0.00530716 0.00161995 0)
(0.00446532 0.00192187 0)
(0.00365653 0.0022104 0)
(0.00288187 0.00245393 0)
(0.00214796 0.0026304 0)
(0.00146321 0.00273247 0)
(0.00404613 -0.00648417 0)
(0.020786 -0.00814178 0)
(0.0327879 -0.00417001 0)
(0.0544698 -0.00270517 0)
(0.0570666 0.00267169 0)
(0.0487396 0.00611507 0)
(0.0373711 0.00709591 0)
(0.0242276 0.00754883 0)
(0.0148367 0.00580592 0)
(0.00998023 0.00320243 0)
(0.00812632 0.00044825 0)
(0.00808837 -0.00149609 0)
(0.0092 -0.00237552 0)
(0.0106741 -0.00246062 0)
(0.0118282 -0.00207888 0)
(0.0123722 -0.0014844 0)
(0.01232 -0.000863811 0)
(0.0118246 -0.000286769 0)
(0.0110478 0.000222959 0)
(0.0101012 0.000664868 0)
(0.00906384 0.00104249 0)
(0.00799351 0.00137033 0)
(0.00693575 0.00167188 0)
(0.00592363 0.00197236 0)
(0.0049788 0.00228719 0)
(0.00411303 0.00261153 0)
(0.00332737 0.0029218 0)
(0.00261695 0.00318589 0)
(0.00197473 0.003379 0)
(0.00139318 0.0034924 0)
(0.00409746 -0.0075629 0)
(0.0209205 -0.00993205 0)
(0.0326067 -0.00507739 0)
(0.0550994 -0.00340901 0)
(0.0575444 0.00304002 0)
(0.0489948 0.00718671 0)
(0.0376791 0.00833257 0)
(0.0240433 0.00894064 0)
(0.0143948 0.00684445 0)
(0.00955818 0.00370759 0)
(0.00771882 0.000556663 0)
(0.00786322 -0.00164451 0)
(0.00920294 -0.00267501 0)
(0.0108722 -0.0027866 0)
(0.0121222 -0.00231525 0)
(0.0126791 -0.00154794 0)
(0.012601 -0.000755602 0)
(0.0120658 -3.56152e-05 0)
(0.0112464 0.000590622 0)
(0.0102533 0.00112957 0)
(0.00916301 0.0015885 0)
(0.00803336 0.00198145 0)
(0.00691349 0.00232966 0)
(0.00584415 0.00265825 0)
(0.00485583 0.00298328 0)
(0.00396799 0.0033037 0)
(0.00318525 0.00360288 0)
(0.00250149 0.00385453 0)
(0.00190297 0.00403869 0)
(0.00137299 0.00414885 0)
(0.00415477 -0.00863806 0)
(0.0210679 -0.011761 0)
(0.0323864 -0.00598672 0)
(0.055853 -0.00415274 0)
(0.0581151 0.00340863 0)
(0.0492934 0.00827883 0)
(0.0380775 0.00957214 0)
(0.0238353 0.0103684 0)
(0.013875 0.0079003 0)
(0.00906945 0.00422912 0)
(0.00720516 0.00064503 0)
(0.00748882 -0.00184096 0)
(0.00906251 -0.00301994 0)
(0.0109692 -0.00314502 0)
(0.0123596 -0.00257218 0)
(0.012961 -0.00161531 0)
(0.0128854 -0.000641579 0)
(0.0123334 0.00022478 0)
(0.0114961 0.00096861 0)
(0.0104826 0.00160916 0)
(0.00936536 0.00215376 0)
(0.00820428 0.00261699 0)
(0.00705063 0.00301492 0)
(0.00594836 0.003371 0)
(0.00493251 0.00370076 0)
(0.00402288 0.00400812 0)
(0.00322556 0.00428346 0)
(0.00253422 0.00450936 0)
(0.0019329 0.00467395 0)
(0.00140317 0.004775 0)
(0.00421685 -0.00970831 0)
(0.0212217 -0.0136344 0)
(0.0321214 -0.00689701 0)
(0.0567292 -0.00494447 0)
(0.0587754 0.00377515 0)
(0.0496217 0.00939226 0)
(0.0385729 0.0108134 0)
(0.023595 0.0118374 0)
(0.0132653 0.00897538 0)
(0.00852788 0.00476867 0)
(0.00663778 0.000713419 0)
(0.00705578 -0.0020899 0)
(0.00888512 -0.00341762 0)
(0.0110729 -0.00354262 0)
(0.0126388 -0.00285822 0)
(0.0132964 -0.00169171 0)
(0.0132246 -0.000523652 0)
(0.0126567 0.000491188 0)
(0.0118063 0.00135298 0)
(0.0107785 0.0020974 0)
(0.00964179 0.00273151 0)
(0.0084569 0.00326718 0)
(0.00727845 0.00371714 0)
(0.00615312 0.00410018 0)
(0.00511566 0.00443505 0)
(0.00418445 0.00472967 0)
(0.00336398 0.00498144 0)
(0.00264716 0.00518252 0)
(0.00201886 0.0053286 0)
(0.0014623 0.00542073 0)
(0.00428377 -0.0107724 0)
(0.0213722 -0.0155578 0)
(0.0318108 -0.00780664 0)
(0.0577277 -0.00579407 0)
(0.0595263 0.00413581 0)
(0.049968 0.0105267 0)
(0.03918 0.0120558 0)
(0.0233207 0.0133519 0)
(0.0125522 0.0100701 0)
(0.00793561 0.00532738 0)
(0.00601391 0.000757578 0)
(0.00656959 -0.00240115 0)
(0.00868291 -0.00387698 0)
(0.0112012 -0.0039854 0)
(0.012981 -0.00318041 0)
(0.0136989 -0.00177747 0)
(0.0136246 -0.000399594 0)
(0.0130323 0.000762922 0)
(0.012167 0.001743 0)
(0.0111275 0.0025919 0)
(0.00997271 0.00332002 0)
(0.00876241 0.00393114 0)
(0.00755699 0.00443372 0)
(0.00640675 0.0048448 0)
(0.00534502 0.00518624 0)
(0.00438869 0.00547159 0)
(0.00353986 0.00570534 0)
(0.0027904 0.00588796 0)
(0.00212689 0.00602072 0)
(0.00153496 0.00610702 0)
(0.00435561 -0.0118292 0)
(0.0215038 -0.0175361 0)
(0.0314563 -0.00871216 0)
(0.0588454 -0.00671446 0)
(0.0603713 0.00448553 0)
(0.0503159 0.0116806 0)
(0.0399133 0.0132997 0)
(0.0230121 0.0149162 0)
(0.0117201 0.0111838 0)
(0.00729988 0.00590681 0)
(0.00532752 0.000772161 0)
(0.00602348 -0.00278822 0)
(0.00845346 -0.00441 0)
(0.0113579 -0.00447907 0)
(0.0133973 -0.00354722 0)
(0.0141759 -0.00187398 0)
(0.0140872 -0.000264602 0)
(0.0134594 0.00104279 0)
(0.0125756 0.00213737 0)
(0.0115291 0.00309203 0)
(0.0103548 0.00392034 0)
(0.00911116 0.00461202 0)
(0.00786984 0.00516854 0)
(0.00668608 0.0056083 0)
(0.00559372 0.00595759 0)
(0.00460661 0.00623741 0)
(0.00372532 0.00645928 0)
(0.00294111 0.00662998 0)
(0.00224152 0.00675415 0)
(0.00161399 0.00683733 0)
(0.00443301 -0.0128781 0)
(0.0215901 -0.0195738 0)
(0.0310669 -0.00960618 0)
(0.0600721 -0.00772359 0)
(0.0613162 0.0048153 0)
(0.0506391 0.0128503 0)
(0.0407766 0.0145474 0)
(0.0226692 0.0165345 0)
(0.0107474 0.012314 0)
(0.00663263 0.00650858 0)
(0.00457236 0.000751343 0)
(0.00540906 -0.00326708 0)
(0.00819262 -0.00503346 0)
(0.0115449 -0.00502966 0)
(0.0139029 -0.00396862 0)
(0.0147358 -0.00198183 0)
(0.0146152 -0.000110798 0)
(0.0139364 0.00133312 0)
(0.0130301 0.00253521 0)
(0.0119863 0.00359732 0)
(0.0107906 0.00453555 0)
(0.00950458 0.00531596 0)
(0.00821355 0.00592864 0)
(0.00698374 0.00639688 0)
(0.00585093 0.00675477 0)
(0.00482757 0.00703114 0)
(0.00391147 0.00724491 0)
(0.0030928 0.00740798 0)
(0.00235909 0.00752764 0)
(0.00169802 0.00761076 0)
(0.00451636 -0.0139188 0)
(0.0215888 -0.0216752 0)
(0.0306597 -0.0104741 0)
(0.0613881 -0.00884733 0)
(0.0623706 0.00511712 0)
(0.0508925 0.0140288 0)
(0.0417341 0.0158063 0)
(0.0222923 0.0182123 0)
(0.00960271 0.0134559 0)
(0.00595204 0.00713528 0)
(0.00374055 0.00068951 0)
(0.0047173 -0.00384822 0)
(0.0078942 -0.00576287 0)
(0.0117628 -0.00564297 0)
(0.0145143 -0.0044569 0)
(0.0153936 -0.00210275 0)
(0.0152092 7.35217e-05 0)
(0.0144617 0.0016381 0)
(0.0135273 0.00293209 0)
(0.0125056 0.00410453 0)
(0.0112863 0.00516971 0)
(0.00994349 0.00605027 0)
(0.00858715 0.00672296 0)
(0.00729712 0.00721877 0)
(0.006114 0.00758355 0)
(0.0050478 0.00785638 0)
(0.00409354 0.0080633 0)
(0.00323982 0.00822054 0)
(0.00247404 0.008338 0)
(0.00178415 0.00842232 0)
(0.0046078 -0.0149518 0)
(0.0214264 -0.0238445 0)
(0.0302629 -0.0112888 0)
(0.0627593 -0.0101247 0)
(0.0635522 0.00537941 0)
(0.0510173 0.0152001 0)
(0.0426557 0.0170913 0)
(0.0218753 0.0199614 0)
(0.00823761 0.0145991 0)
(0.00528537 0.00779352 0)
(0.00281708 0.000582482 0)
(0.00393531 -0.00453845 0)
(0.00755394 -0.00661032 0)
(0.0120103 -0.00632294 0)
(0.0152523 -0.00502738 0)
(0.0161661 -0.00224015 0)
(0.0158685 0.000305925 0)
(0.0150358 0.00196059 0)
(0.0140624 0.00332055 0)
(0.0131011 0.00460795 0)
(0.0118523 0.00582907 0)
(0.0104324 0.00682518 0)
(0.00899039 0.00756171 0)
(0.00762525 0.0080821 0)
(0.0063813 0.00845007 0)
(0.00526712 0.00871658 0)
(0.00427396 0.00891571 0)
(0.0033868 0.00906711 0)
(0.00259118 0.00918138 0)
(0.00187518 0.00926564 0)
(0.00471082 -0.0159786 0)
(0.0209712 -0.0260861 0)
(0.0299252 -0.0120003 0)
(0.0641261 -0.0116184 0)
(0.0648946 0.00559573 0)
(0.0509988 0.0163362 0)
(0.0433195 0.0184192 0)
(0.0213729 0.0218137 0)
(0.00657517 0.015719 0)
(0.00467525 0.00849787 0)
(0.00178918 0.000428299 0)
(0.00303916 -0.00534836 0)
(0.00716922 -0.00758917 0)
(0.0122917 -0.00707295 0)
(0.0161406 -0.00569914 0)
(0.0170791 -0.0023994 0)
(0.0165858 0.000614755 0)
(0.0156675 0.0023045 0)
(0.014627 0.00368468 0)
(0.013803 0.00510001 0)
(0.0125047 0.00652473 0)
(0.0109765 0.00765415 0)
(0.00942387 0.00845697 0)
(0.00796429 0.00899678 0)
(0.00664706 0.00936029 0)
(0.00547981 0.00961295 0)
(0.00444914 0.00979928 0)
(0.00353425 0.0099429 0)
(0.00271445 0.0100548 0)
(0.00197396 0.0101406 0)
(0.0048314 -0.0170024 0)
(0.0199685 -0.028405 0)
(0.0297395 -0.0125062 0)
(0.0653628 -0.0134444 0)
(0.0664397 0.00576482 0)
(0.0509435 0.0174093 0)
(0.0437086 0.0197743 0)
(0.0206214 0.0238485 0)
(0.00451042 0.0167608 0)
(0.0041759 0.00927693 0)
(0.000637574 0.000225462 0)
(0.00201162 -0.00628919 0)
(0.00674406 -0.00871347 0)
(0.0126268 -0.00789199 0)
(0.0171935 -0.0064989 0)
(0.0181725 -0.00258674 0)
(0.0173422 0.0010307 0)
(0.0164032 0.00267637 0)
(0.015213 0.00399354 0)
(0.0147035 0.00556934 0)
(0.0132797 0.00728281 0)
(0.0115827 0.00855543 0)
(0.00988728 0.00942402 0)
(0.00831171 0.00997374 0)
(0.00690886 0.010321 0)
(0.00568109 0.0105485 0)
(0.00460851 0.0107124 0)
(0.00366446 0.0108429 0)
(0.00282411 0.0109519 0)
(0.00206905 0.0110411 0)
(0.00498041 -0.0180281 0)
(0.0179124 -0.0308087 0)
(0.0298774 -0.0125698 0)
(0.0661746 -0.0158558 0)
(0.0682197 0.00589221 0)
(0.0509742 0.0184269 0)
(0.0444747 0.021068 0)
(0.0193127 0.0262075 0)
(0.0020089 0.017614 0)
(0.00387224 0.0101864 0)
(-0.000796318 -8.43907e-06 0)
(0.000909053 -0.00736392 0)
(0.00629873 -0.00999797 0)
(0.0129657 -0.00875832 0)
(0.0184215 -0.00746546 0)
(0.0194561 -0.0028046 0)
(0.018135 0.00156766 0)
(0.0173575 0.00310329 0)
(0.0158549 0.00416436 0)
(0.0160586 0.00601283 0)
(0.0142608 0.00817568 0)
(0.012257 0.00955961 0)
(0.010375 0.010481 0)
(0.00865537 0.0110254 0)
(0.00714895 0.0113399 0)
(0.00585885 0.0115268 0)
(0.00474699 0.0116595 0)
(0.00377403 0.0117688 0)
(0.00291687 0.0118644 0)
(0.00215704 0.0119474 0)
(0.00517802 -0.0190626 0)
(0.013981 -0.0333133 0)
(0.0304432 -0.0116589 0)
(0.0657991 -0.0194082 0)
(0.0702466 0.00600139 0)
(0.0509958 0.0194367 0)
(0.0464374 0.0222011 0)
(0.0172928 0.0290258 0)
(-0.000516534 0.0181043 0)
(0.00379939 0.0113589 0)
(-0.0024471 -0.000273649 0)
(-0.000369674 -0.00864018 0)
(0.00577058 -0.0114277 0)
(0.0132952 -0.00965521 0)
(0.0198029 -0.00865219 0)
(0.020952 -0.0030356 0)
(0.0190667 0.00216275 0)
(0.0186593 0.00368872 0)
(0.0165453 0.0040109 0)
(0.0180149 0.00644897 0)
(0.0154974 0.00935135 0)
(0.012998 0.0107128 0)
(0.0108912 0.0116519 0)
(0.00898855 0.0121722 0)
(0.00736279 0.0124216 0)
(0.00601282 0.0125403 0)
(0.0048779 0.0126286 0)
(0.00389855 0.0127109 0)
(0.00303606 0.0127862 0)
(0.00226684 0.0128571 0)
(0.00545794 -0.020112 0)
(0.00788995 -0.0359497 0)
(0.0310435 -0.00895079 0)
(0.0591374 -0.0249861 0)
(0.072481 0.00614467 0)
(0.0508322 0.020471 0)
(0.0494112 0.0231978 0)
(0.0152463 0.0322836 0)
(-0.00185811 0.0180735 0)
(0.00371146 0.0130584 0)
(-0.00435427 -0.000669855 0)
(-0.00204486 -0.010124 0)
(0.00518974 -0.0130088 0)
(0.013289 -0.010656 0)
(0.0210303 -0.0100342 0)
(0.0226287 -0.00328919 0)
(0.0205301 0.00263632 0)
(0.0202497 0.00467213 0)
(0.0166422 0.00353364 0)
(0.0193956 0.00677921 0)
(0.0166317 0.0108581 0)
(0.0137339 0.0120502 0)
(0.0114024 0.012953 0)
(0.00930298 0.0134274 0)
(0.00754103 0.0135731 0)
(0.00612064 0.0135872 0)
(0.00496795 0.0136002 0)
(0.00400134 0.0136451 0)
(0.00315167 0.0137119 0)
(0.00238141 0.0137863 0)
(0.0058602 -0.021179 0)
(0.00264469 -0.0388022 0)
(0.0372456 -0.00451344 0)
(0.0226084 -0.0330209 0)
(0.0748112 0.00640816 0)
(0.0505185 0.0215337 0)
(0.0526833 0.0241341 0)
(0.015382 0.0358283 0)
(-0.000883017 0.0175667 0)
(0.00333024 0.0152758 0)
(-0.0071129 -0.00119139 0)
(-0.00358592 -0.0118876 0)
(0.0047274 -0.0146083 0)
(0.0134903 -0.0117599 0)
(0.0220942 -0.0118208 0)
(0.0246364 -0.00351684 0)
(0.0230161 0.0027952 0)
(0.02177 0.00642604 0)
(0.0163462 0.00329179 0)
(0.0185993 0.00680708 0)
(0.0167407 0.0121803 0)
(0.0144775 0.0135217 0)
(0.0119306 0.0143993 0)
(0.00953346 0.0148164 0)
(0.00760039 0.0148034 0)
(0.00613455 0.014663 0)
(0.0049761 0.0145698 0)
(0.00401573 0.0145608 0)
(0.00318723 0.0146157 0)
(0.00245145 0.0146969 0)
(0.00639619 -0.0222738 0)
(0.00453932 -0.0418714 0)
(0.0373353 -0.00140053 0)
(0.0470912 -0.0403301 0)
(0.0779823 0.00702618 0)
(0.0500401 0.022689 0)
(0.0552365 0.0249517 0)
(0.0153071 0.0395713 0)
(0.00155851 0.0170959 0)
(0.000598288 0.0178429 0)
(-0.0101213 -0.00214062 0)
(-0.00598624 -0.0138038 0)
(0.00469192 -0.016226 0)
(0.012718 -0.0125863 0)
(0.0238229 -0.0147643 0)
(0.0267681 -0.00378386 0)
(0.0269957 0.00278774 0)
(0.0234446 0.00902908 0)
(0.0190596 0.00348556 0)
(0.0171636 0.00736666 0)
(0.0151429 0.0122096 0)
(0.0155039 0.014905 0)
(0.0126827 0.0160859 0)
(0.00976794 0.0164161 0)
(0.00763362 0.0160916 0)
(0.00618206 0.0157316 0)
(0.00505925 0.0155348 0)
(0.00410756 0.0154702 0)
(0.00327853 0.0154913 0)
(0.00255004 0.0155547 0)
(0.00701109 -0.0234605 0)
(0.0118999 -0.0443264 0)
(0.0221544 -0.00253491 0)
(0.0306661 -0.0434083 0)
(0.0798943 0.0086818 0)
(0.0484484 0.0241203 0)
(0.0538149 0.0258353 0)
(0.00503258 0.0444612 0)
(0.00352608 0.0172675 0)
(-0.00286197 0.0200692 0)
(-0.0144962 -0.00347029 0)
(-0.00780348 -0.0160411 0)
(0.00485668 -0.0175429 0)
(0.0108839 -0.0125559 0)
(0.0279872 -0.0199373 0)
(0.0302229 -0.0044114 0)
(0.0318775 0.00299174 0)
(0.0264185 0.0115672 0)
(0.0262137 0.00419501 0)
(0.0184286 0.0105641 0)
(0.0129028 0.0100296 0)
(0.0169955 0.0159141 0)
(0.0137189 0.0181609 0)
(0.0100794 0.018308 0)
(0.00773575 0.0174084 0)
(0.0064007 0.0167247 0)
(0.00542359 0.0164426 0)
(0.00453078 0.0163772 0)
(0.00365584 0.0164112 0)
(0.0028081 0.0164807 0)
(0.00767484 -0.0249921 0)
(0.0136215 -0.0435035 0)
(0.031988 -0.00726278 0)
(0.0107643 -0.0455224 0)
(0.0653852 0.0098415 0)
(0.0410122 0.0258183 0)
(0.0518251 0.0256319 0)
(0.00578836 0.0504736 0)
(-0.00428921 0.017504 0)
(-0.0122317 0.0217253 0)
(-0.0192355 -0.00577913 0)
(-0.011263 -0.0183004 0)
(0.00508401 -0.0189704 0)
(0.00624052 -0.0107167 0)
(0.0333499 -0.0286139 0)
(0.0346908 -0.00571893 0)
(0.0366373 0.00390177 0)
(0.032196 0.0122141 0)
(0.0354711 0.00566696 0)
(0.0236847 0.0170112 0)
(0.0140631 0.00683566 0)
(0.0191495 0.0165897 0)
(0.0149001 0.0207742 0)
(0.0104226 0.0205265 0)
(0.00802567 0.0186623 0)
(0.00694224 0.0175332 0)
(0.00611519 0.0172333 0)
(0.00522618 0.0172975 0)
(0.0042295 0.0174881 0)
(0.00316808 0.0176663 0)
(0.0086704 -0.0266087 0)
(0.00922635 -0.0386112 0)
(0.00840029 -0.0164936 0)
(0.030302 -0.0415034 0)
(0.0204565 0.00841978 0)
(0.039958 0.0282249 0)
(0.0575236 0.025024 0)
(-0.012498 0.054635 0)
(-0.0043942 0.019555 0)
(-0.0185124 0.0223818 0)
(-0.0247199 -0.00916361 0)
(-0.0139999 -0.0210076 0)
(0.00440512 -0.0203849 0)
(-0.000418303 -0.00539769 0)
(0.0271531 -0.0425318 0)
(0.0345315 -0.0073855 0)
(0.0401186 0.00512109 0)
(0.0373452 0.00925919 0)
(0.0445501 0.00849053 0)
(0.0300066 0.0246013 0)
(0.0214194 0.00686715 0)
(0.0219416 0.0173091 0)
(0.0162392 0.0240036 0)
(0.0114135 0.0229374 0)
(0.00921124 0.0197321 0)
(0.0081872 0.0182441 0)
(0.00708519 0.0181074 0)
(0.00585946 0.0183908 0)
(0.00461798 0.0187898 0)
(0.00339112 0.0191143 0)
(0.0104539 -0.0281985 0)
(0.0193887 -0.0319177 0)
(0.0227887 -0.0293581 0)
(-0.00932227 -0.0336335 0)
(-0.024016 0.00683422 0)
(-0.059764 0.0261041 0)
(-0.126712 0.0325126 0)
(-0.0522406 0.0619758 0)
(-0.0395092 0.0200368 0)
(-0.035277 0.0214199 0)
(-0.0304461 -0.013228 0)
(-0.0178836 -0.0238818 0)
(0.00414401 -0.0223595 0)
(-0.00881976 0.00119256 0)
(-0.00991289 -0.0584165 0)
(0.0290971 -0.00874654 0)
(0.0439934 0.00462922 0)
(0.0267481 0.00563509 0)
(0.0449218 0.01072 0)
(0.0347443 0.0303428 0)
(0.0216348 0.0130257 0)
(0.0189088 0.0171723 0)
(0.0167454 0.0270751 0)
(0.013966 0.0250729 0)
(0.0121688 0.0208067 0)
(0.0104905 0.0193114 0)
(0.00839295 0.0195748 0)
(0.00632687 0.01999 0)
(0.00466377 0.0203378 0)
(0.00336123 0.0206068 0)
(0.0126478 -0.0300564 0)
(0.0156873 -0.0242816 0)
(0.00926342 -0.0379015 0)
(-0.0571359 -0.0260841 0)
(-0.234757 0.00650808 0)
(-0.137434 0.0334345 0)
(-0.239033 0.00315944 0)
(-0.082128 0.0735057 0)
(-0.042764 0.0206208 0)
(-0.0371268 0.0190609 0)
(-0.0398612 -0.0197442 0)
(-0.0224092 -0.0272497 0)
(0.00360932 -0.0236541 0)
(-0.020999 -0.0018719 0)
(-0.018604 -0.0601828 0)
(0.0229514 -0.0100999 0)
(0.0494545 0.00174017 0)
(0.0236711 0.00720571 0)
(0.0359008 0.0095184 0)
(0.0361763 0.0327226 0)
(0.0276309 0.0224926 0)
(0.0160145 0.0165281 0)
(0.0167488 0.028347 0)
(0.0174588 0.0257635 0)
(0.0169181 0.0222099 0)
(0.014184 0.0213089 0)
(0.0108472 0.0221098 0)
(0.00727681 0.0223387 0)
(0.00467713 0.0221755 0)
(0.00322468 0.0220622 0)
(0.0113687 -0.0313794 0)
(0.0403219 -0.0186734 0)
(-0.0660592 -0.0342339 0)
(-0.570341 0.0243545 0)
(-0.369568 -0.0588528 0)
(-0.0570028 0.0548757 0)
(-0.152199 -0.0153942 0)
(-0.0351922 0.080379 0)
(-0.0720351 0.020701 0)
(-0.0834326 0.014203 0)
(-0.046055 -0.0255725 0)
(-0.0288913 -0.0306323 0)
(0.000775555 -0.0222415 0)
(-0.0131357 -0.0114837 0)
(-0.00467503 -0.0603003 0)
(0.0234956 -0.011923 0)
(0.0548606 -0.00180081 0)
(0.0607186 0.0138706 0)
(0.0294278 0.00725208 0)
(0.0360401 0.0297814 0)
(0.0355612 0.0324253 0)
(0.0161799 0.0167848 0)
(0.0198294 0.0277582 0)
(0.0217186 0.0248172 0)
(0.0215877 0.0238625 0)
(0.0187085 0.0248584 0)
(0.0137499 0.026072 0)
(0.00936073 0.0252445 0)
(0.00622004 0.0243822 0)
(0.00402592 0.0238413 0)
(0.00283681 -0.0301265 0)
(0.0129773 -0.0159942 0)
(0.417825 0.00512873 0)
(-1.02842 0.0474587 0)
(-0.655766 -0.13556 0)
(-0.0408223 0.0512997 0)
(-0.261063 -0.00882672 0)
(-0.089255 0.0604768 0)
(-0.123247 0.019786 0)
(-0.0931553 0.00582324 0)
(-0.0541498 -0.0254582 0)
(-0.0272365 -0.038272 0)
(0.00931246 -0.0215572 0)
(0.0378112 -0.0210621 0)
(0.0395044 -0.0514948 0)
(0.0353535 -0.018354 0)
(0.0576505 -0.00707627 0)
(0.0879236 0.0161875 0)
(0.0545075 0.0137466 0)
(0.0429258 0.0251712 0)
(0.0450839 0.0396982 0)
(0.0322572 0.0207906 0)
(0.0280235 0.0260859 0)
(0.0295675 0.0239576 0)
(0.0267089 0.0266752 0)
(0.0212599 0.0283432 0)
(0.0173409 0.0314108 0)
(0.0109149 0.0310647 0)
(0.00561723 0.0281818 0)
(0.00278959 0.0260958 0)
(-0.0553171 -0.023123 0)
(0.0758589 -0.0215533 0)
(1.42291 0.0620314 0)
(-0.802869 0.12442 0)
(-0.181341 -0.198983 0)
(-0.170327 0.00555236 0)
(-0.27441 0.0162447 0)
(-0.194802 0.0453851 0)
(-0.161926 0.0105608 0)
(-0.0663599 0.00332849 0)
(-0.0605858 -0.0387844 0)
(-0.00017836 -0.0389736 0)
(0.0337372 -0.0248946 0)
(0.0898965 -0.0350978 0)
(0.0975206 -0.0320433 0)
(0.062602 -0.0268573 0)
(0.0541241 -0.0138968 0)
(0.0955192 0.00789598 0)
(0.0789325 0.0232333 0)
(0.0605561 0.0283146 0)
(0.0605745 0.0381495 0)
(0.0511445 0.0279326 0)
(0.0388031 0.0295614 0)
(0.0283431 0.0257589 0)
(0.023117 0.029527 0)
(0.0188381 0.0314617 0)
(0.0149452 0.0351978 0)
(0.0122263 0.036359 0)
(0.00898278 0.0331626 0)
(0.00513856 0.0296888 0)
(-0.209564 -0.0171453 0)
(0.22863 -0.0589937 0)
(0.385441 0.0611199 0)
(-0.507705 0.229006 0)
(-0.596568 -0.20862 0)
(-0.322191 -0.0359629 0)
(-0.294781 0.0272266 0)
(-0.201588 0.0440044 0)
(-0.198459 0.00262939 0)
(-0.0790659 -0.00500529 0)
(-0.038622 -0.0420073 0)
(0.0523503 -0.0515863 0)
(0.0428487 -0.0349043 0)
(0.0829391 -0.0497622 0)
(0.13159 -0.0299133 0)
(0.123242 -0.0157998 0)
(0.046552 -0.0218924 0)
(-0.0184959 0.0095578 0)
(0.0538919 0.0472171 0)
(0.0868154 0.0361352 0)
(0.074811 0.0384345 0)
(0.0623958 0.036977 0)
(0.0524063 0.0365463 0)
(0.0378598 0.034729 0)
(0.0262224 0.0348852 0)
(0.0199758 0.0361807 0)
(0.0156162 0.0380934 0)
(0.0126956 0.0387483 0)
(0.00897429 0.0376591 0)
(0.00374153 0.0362112 0)
(0.000246049 3.60062e-05 0)
(3.83199e-05 3.61397e-05 0)
(-0.000190142 3.60113e-05 0)
(-0.000438653 3.58617e-05 0)
(-0.000703893 3.55999e-05 0)
(-0.000981935 3.52138e-05 0)
(-0.00126786 3.48331e-05 0)
(-0.0015577 3.45661e-05 0)
(-0.00184819 3.45004e-05 0)
(-0.00213489 3.44012e-05 0)
(-0.00240824 3.35694e-05 0)
(-0.00264816 3.18583e-05 0)
(-0.00282063 2.87319e-05 0)
(-0.00286988 2.29408e-05 0)
(-0.00271144 1.11798e-05 0)
(-0.00220292 -7.91559e-06 0)
(-0.0011461 -3.43369e-05 0)
(0.000707936 -6.28303e-05 0)
(0.00344901 -9.04146e-05 0)
(0.00681002 -0.000106898 0)
(0.00989884 -0.000106683 0)
(0.0114417 -9.15002e-05 0)
(0.010843 -3.9127e-05 0)
(0.00700949 5.01354e-05 0)
(-0.000198705 0.000114433 0)
(-0.00904368 0.000155403 0)
(-0.01565 0.000108875 0)
(-0.0168059 3.76144e-05 0)
(-0.01301 -2.49408e-05 0)
(-0.00796491 -7.62664e-05 0)
(0.000760424 0.00044576 0)
(0.00040426 0.000442951 0)
(1.88043e-05 0.00043243 0)
(-0.000383097 0.000410536 0)
(-0.000783386 0.000377587 0)
(-0.00115843 0.000333703 0)
(-0.00148397 0.000283249 0)
(-0.00173961 0.000230099 0)
(-0.00190885 0.000177452 0)
(-0.00197517 0.000122525 0)
(-0.00191195 6.09701e-05 0)
(-0.00167633 -1.34022e-05 0)
(-0.0012111 -0.000100786 0)
(-0.000445804 -0.000207348 0)
(0.000698287 -0.000337305 0)
(0.00232333 -0.000506807 0)
(0.00455127 -0.000726042 0)
(0.00755323 -0.000941376 0)
(0.0111322 -0.00102369 0)
(0.0141764 -0.000833453 0)
(0.0142322 -0.000198572 0)
(0.00869808 0.000544348 0)
(-0.00167017 0.00122552 0)
(-0.0158613 0.00171082 0)
(-0.0315659 0.00175512 0)
(-0.0441995 0.00127752 0)
(-0.0485283 0.000323424 0)
(-0.0429421 -0.000409108 0)
(-0.0295381 -0.000689942 0)
(-0.0144172 -0.00116304 0)
(0.000802443 0.00100706 0)
(0.000228616 0.000997728 0)
(-0.000390026 0.000961749 0)
(-0.00103331 0.000894683 0)
(-0.00167527 0.000797444 0)
(-0.0022887 0.00067607 0)
(-0.00285295 0.000543465 0)
(-0.00335635 0.000412224 0)
(-0.0037951 0.000287609 0)
(-0.00416266 0.000164959 0)
(-0.00444103 3.51397e-05 0)
(-0.00459372 -0.000113465 0)
(-0.00456807 -0.000283147 0)
(-0.00430237 -0.000474365 0)
(-0.00374423 -0.000684572 0)
(-0.00285691 -0.000931235 0)
(-0.00163309 -0.00122916 0)
(-0.000121484 -0.00147789 0)
(0.00129366 -0.00142759 0)
(0.001553 -0.000828701 0)
(-0.00100061 0.000529971 0)
(-0.00730592 0.00185631 0)
(-0.0170062 0.0029351 0)
(-0.0291643 0.00356363 0)
(-0.0418364 0.00325381 0)
(-0.0510549 0.00203712 0)
(-0.0523474 9.50163e-05 0)
(-0.0445008 -0.00128183 0)
(-0.0292803 -0.00162661 0)
(-0.0130139 -0.00243849 0)
(0.000795264 0.00186794 0)
(7.01915e-05 0.00184849 0)
(-0.000715136 0.00177704 0)
(-0.00154135 0.00165004 0)
(-0.00238662 0.0014736 0)
(-0.00323259 0.00126566 0)
(-0.00407261 0.00105096 0)
(-0.00490983 0.000848721 0)
(-0.0057515 0.000663243 0)
(-0.00659453 0.000482662 0)
(-0.00741752 0.000289 0)
(-0.00817596 6.48655e-05 0)
(-0.00880227 -0.000195033 0)
(-0.00921352 -0.000483188 0)
(-0.00932135 -0.000793113 0)
(-0.00904049 -0.0011329 0)
(-0.00832828 -0.00150306 0)
(-0.00735318 -0.00174553 0)
(-0.00658082 -0.00153416 0)
(-0.00682646 -0.000594128 0)
(-0.00892207 0.00119046 0)
(-0.0133227 0.00287979 0)
(-0.0210664 0.00431348 0)
(-0.0314569 0.00512158 0)
(-0.0427727 0.00450564 0)
(-0.0511799 0.00263044 0)
(-0.052021 -0.000239839 0)
(-0.0438472 -0.00221917 0)
(-0.0283274 -0.00257875 0)
(-0.0123012 -0.00366482 0)
(0.000818771 0.00276728 0)
(0.000154749 0.0027405 0)
(-0.000573631 0.0026431 0)
(-0.00136039 0.00247186 0)
(-0.00219912 0.00223965 0)
(-0.0030876 0.00197458 0)
(-0.00402962 0.00170902 0)
(-0.00503098 0.00146395 0)
(-0.00609277 0.00123826 0)
(-0.00720189 0.00101147 0)
(-0.00832757 0.000757296 0)
(-0.00941609 0.000454553 0)
(-0.0103914 9.35687e-05 0)
(-0.011162 -0.000310706 0)
(-0.0116194 -0.000751085 0)
(-0.0116319 -0.00122731 0)
(-0.0111021 -0.00170721 0)
(-0.0102194 -0.00196896 0)
(-0.00944545 -0.00162531 0)
(-0.00946245 -0.000424347 0)
(-0.0108494 0.00163649 0)
(-0.0143044 0.00368538 0)
(-0.0214354 0.00553115 0)
(-0.0314843 0.00659922 0)
(-0.0427435 0.00571699 0)
(-0.0512608 0.00321205 0)
(-0.0521155 -0.00058968 0)
(-0.0437925 -0.00317131 0)
(-0.0280676 -0.00353474 0)
(-0.0121991 -0.00488026 0)
(0.00085289 0.00353367 0)
(0.000294426 0.00350822 0)
(-0.000330821 0.00340762 0)
(-0.00103176 0.00322839 0)
(-0.00181897 0.0029856 0)
(-0.00270263 0.00270926 0)
(-0.00368963 0.00243098 0)
(-0.00477864 0.00216805 0)
(-0.00595738 0.00191404 0)
(-0.00719957 0.00164366 0)
(-0.00846383 0.00132556 0)
(-0.00968945 0.000936914 0)
(-0.0107993 0.000468357 0)
(-0.0117008 -5.98783e-05 0)
(-0.0122866 -0.000643444 0)
(-0.0124025 -0.00127937 0)
(-0.011908 -0.00189918 0)
(-0.0109733 -0.00220997 0)
(-0.0100432 -0.00175948 0)
(-0.00978841 -0.00033097 0)
(-0.0108384 0.00199185 0)
(-0.0141082 0.00443499 0)
(-0.0212377 0.00673287 0)
(-0.03138 0.00809656 0)
(-0.0428583 0.006942 0)
(-0.051601 0.00380598 0)
(-0.0524622 -0.000951767 0)
(-0.0439437 -0.00414219 0)
(-0.0279869 -0.00449741 0)
(-0.0122544 -0.00609965 0)
(0.000885428 0.00419235 0)
(0.000380135 0.00417543 0)
(-0.000193783 0.00409 0)
(-0.000854615 0.00393209 0)
(-0.0016225 0.0037135 0)
(-0.00251345 0.00345861 0)
(-0.00353471 0.00319192 0)
(-0.00467955 0.00292418 0)
(-0.00592663 0.00264444 0)
(-0.00724126 0.00232641 0)
(-0.00857413 0.00193756 0)
(-0.00985954 0.00145515 0)
(-0.0110169 0.000871805 0)
(-0.0119554 0.000215097 0)
(-0.0125746 -0.000515721 0)
(-0.0127076 -0.00132287 0)
(-0.0121699 -0.00210669 0)
(-0.0111151 -0.00249012 0)
(-0.00998517 -0.00193985 0)
(-0.00949803 -0.000280259 0)
(-0.010406 0.00232754 0)
(-0.0137148 0.00518227 0)
(-0.0209892 0.00795703 0)
(-0.0313033 0.00963553 0)
(-0.04306 0.00818498 0)
(-0.0520633 0.00441347 0)
(-0.0529145 -0.00133117 0)
(-0.0441507 -0.00513763 0)
(-0.0279163 -0.00546758 0)
(-0.0123453 -0.00732554 0)
(0.00091672 0.00481944 0)
(0.000412291 0.00481374 0)
(-0.000162253 0.004751 0)
(-0.000827761 0.00462644 0)
(-0.00160695 0.00444633 0)
(-0.00251743 0.00422595 0)
(-0.00356716 0.00398022 0)
(-0.00474861 0.00371215 0)
(-0.00603875 0.00340709 0)
(-0.00739966 0.00303812 0)
(-0.00877657 0.00257266 0)
(-0.0100969 0.00198865 0)
(-0.0112759 0.00128502 0)
(-0.0122233 0.000495706 0)
(-0.0128486 -0.000384283 0)
(-0.0129704 -0.00137221 0)
(-0.0123505 -0.00234579 0)
(-0.0111374 -0.00282224 0)
(-0.00977785 -0.00216601 0)
(-0.00906387 -0.00025741 0)
(-0.00987171 0.00266125 0)
(-0.0132531 0.00593424 0)