/*--------------------------------*- C++ -*----------------------------------*\
| =========                 |                                                 |
| \\      /  F ield         | OpenFOAM: The Open Source CFD Toolbox           |
|  \\    /   O peration     | Version:  2.4.0                                 |
|   \\  /    A nd           | Web:      www.OpenFOAM.org                      |
|    \\/     M anipulation  |                                                 |
\*---------------------------------------------------------------------------*/
FoamFile
{
    version     2.0;
    format      ascii;
    class       volScalarField;
    location    "0.268";
    object      p;
}
// * * * * * * * * * * * * * * * * * * * * * * * * * * * * * * * * * * * * * //

dimensions      [1 -1 -2 0 0 0 0];

internalField   nonuniform List<scalar> 
10000
(
-0.0032425
-0.00323994
-0.003236
-0.00323104
-0.00322547
-0.00321948
-0.00321311
-0.00320635
-0.00319917
-0.00319153
-0.00318333
-0.00317446
-0.00316476
-0.00315407
-0.00314227
-0.00312912
-0.00311444
-0.00309806
-0.00307979
-0.00305948
-0.00303702
-0.00301231
-0.00298531
-0.00295599
-0.00292434
-0.00289036
-0.00285406
-0.00281545
-0.00277455
-0.00273136
-0.00268589
-0.00263813
-0.00258804
-0.00253558
-0.00248063
-0.00242309
-0.00236287
-0.00229987
-0.00223403
-0.00216528
-0.00209356
-0.00201882
-0.00194099
-0.00186001
-0.00177583
-0.0016884
-0.00159767
-0.00150361
-0.00140621
-0.00130546
-0.00324559
-0.0032429
-0.0032392
-0.00323461
-0.00322932
-0.00322347
-0.00321714
-0.00321035
-0.00320306
-0.00319521
-0.00318673
-0.00317749
-0.00316739
-0.00315628
-0.00314397
-0.00313034
-0.0031152
-0.0030984
-0.00307979
-0.00305921
-0.00303658
-0.0030118
-0.00298482
-0.0029556
-0.00292411
-0.00289035
-0.00285431
-0.00281597
-0.00277533
-0.00273239
-0.00268713
-0.00263954
-0.00258955
-0.00253712
-0.00248213
-0.00242449
-0.00236411
-0.0023009
-0.00223481
-0.00216577
-0.00209372
-0.0020186
-0.00194037
-0.00185897
-0.00177436
-0.00168649
-0.00159535
-0.0015009
-0.00140315
-0.00130209
-0.00325127
-0.00324831
-0.00324449
-0.00324003
-0.0032349
-0.00322916
-0.00322287
-0.00321604
-0.00320864
-0.00320063
-0.00319191
-0.0031824
-0.00317196
-0.00316048
-0.00314781
-0.00313381
-0.00311832
-0.00310121
-0.00308233
-0.00306155
-0.00303879
-0.00301397
-0.00298702
-0.00295789
-0.00292657
-0.00289301
-0.0028572
-0.00281912
-0.00277874
-0.00273604
-0.00269099
-0.00264356
-0.00259369
-0.00254131
-0.0024863
-0.00242858
-0.00236805
-0.00230464
-0.00223829
-0.00216894
-0.00209653
-0.00202103
-0.00194238
-0.00186055
-0.0017755
-0.0016872
-0.00159563
-0.00150077
-0.00140263
-0.00130123
-0.00325904
-0.00325585
-0.00325183
-0.00324731
-0.0032422
-0.00323651
-0.00323024
-0.00322339
-0.00321594
-0.00320783
-0.00319898
-0.00318929
-0.00317867
-0.00316698
-0.00315409
-0.00313987
-0.00312418
-0.00310688
-0.00308785
-0.00306697
-0.00304415
-0.00301931
-0.0029924
-0.00296337
-0.00293217
-0.00289879
-0.00286318
-0.00282531
-0.00278516
-0.00274268
-0.00269783
-0.00265055
-0.00260081
-0.00254852
-0.00249355
-0.00243579
-0.00237516
-0.00231157
-0.00224498
-0.00217534
-0.0021026
-0.00202673
-0.0019477
-0.00186547
-0.00178001
-0.00169129
-0.0015993
-0.00150403
-0.00140548
-0.00130369
-0.0032687
-0.00326528
-0.00326107
-0.00325645
-0.00325131
-0.00324562
-0.00323936
-0.00323252
-0.00322506
-0.00321691
-0.00320801
-0.00319826
-0.00318755
-0.00317576
-0.00316278
-0.00314846
-0.00313268
-0.00311531
-0.00309622
-0.00307531
-0.00305248
-0.00302767
-0.00300081
-0.00297186
-0.00294078
-0.00290755
-0.00287212
-0.00283447
-0.00279454
-0.00275228
-0.00270761
-0.00266049
-0.0026109
-0.00255877
-0.00250391
-0.00244616
-0.00238545
-0.00232171
-0.00225489
-0.00218496
-0.0021119
-0.00203568
-0.00195627
-0.00187365
-0.00178778
-0.00169865
-0.00160622
-0.00151051
-0.00141151
-0.00130926
-0.00328014
-0.00327647
-0.0032721
-0.00326738
-0.00326221
-0.00325652
-0.00325029
-0.00324348
-0.00323604
-0.00322792
-0.00321904
-0.0032093
-0.0031986
-0.00318682
-0.00317384
-0.00315953
-0.00314377
-0.00312643
-0.00310737
-0.00308649
-0.0030637
-0.00303893
-0.00301213
-0.00298326
-0.00295229
-0.0029192
-0.00288396
-0.00284653
-0.00280685
-0.00276481
-0.00272033
-0.00267336
-0.00262396
-0.0025721
-0.00251743
-0.00245975
-0.002399
-0.00233511
-0.00226807
-0.00219786
-0.00212447
-0.0020479
-0.00196812
-0.0018851
-0.00179882
-0.00170924
-0.00161636
-0.00152017
-0.00142067
-0.0013179
-0.00329323
-0.00328935
-0.00328483
-0.00328005
-0.00327486
-0.00326919
-0.003263
-0.00325625
-0.00324889
-0.00324086
-0.00323206
-0.00322241
-0.0032118
-0.00320013
-0.00318726
-0.00317308
-0.00315745
-0.00314022
-0.00312128
-0.0031005
-0.00307779
-0.00305308
-0.00302635
-0.00299755
-0.00296667
-0.00293372
-0.00289866
-0.00286148
-0.00282209
-0.00278031
-0.002736
-0.00268914
-0.00263996
-0.00258858
-0.00253422
-0.00247669
-0.00241592
-0.00235188
-0.0022846
-0.0022141
-0.00214038
-0.00206344
-0.00198328
-0.00189986
-0.00181315
-0.00172313
-0.00162976
-0.00153306
-0.00143301
-0.00132966
-0.00330788
-0.00330384
-0.00329922
-0.00329439
-0.00328921
-0.00328359
-0.00327747
-0.00327082
-0.00326359
-0.00325569
-0.00324705
-0.00323757
-0.00322715
-0.00321568
-0.00320304
-0.0031891
-0.0031737
-0.0031567
-0.00313796
-0.00311734
-0.00309474
-0.00307011
-0.00304343
-0.00301468
-0.00298388
-0.00295105
-0.0029162
-0.00287932
-0.00284031
-0.0027989
-0.00275475
-0.00270784
-0.00265885
-0.00260834
-0.00255449
-0.00249714
-0.00243634
-0.00237212
-0.00230456
-0.00223372
-0.00215965
-0.00208235
-0.00200181
-0.00191799
-0.00183085
-0.00174036
-0.0016465
-0.00154925
-0.00144863
-0.00134464
-0.00332402
-0.00331989
-0.0033152
-0.00331037
-0.00330523
-0.00329968
-0.00329367
-0.00328716
-0.0032801
-0.0032724
-0.00326398
-0.00325475
-0.00324462
-0.00323346
-0.00322117
-0.00320758
-0.00319254
-0.00317589
-0.00315744
-0.00313704
-0.00311459
-0.00309003
-0.00306338
-0.00303465
-0.0030039
-0.00297118
-0.00293657
-0.00290012
-0.00286176
-0.00282096
-0.00277697
-0.0027296
-0.00268058
-0.00263183
-0.00257869
-0.00252144
-0.00246048
-0.00239595
-0.00232801
-0.00225679
-0.00218234
-0.00210466
-0.00202374
-0.00193953
-0.00185197
-0.00176103
-0.00166667
-0.00156889
-0.00146767
-0.00136302
-0.00334159
-0.00333743
-0.00333273
-0.00332794
-0.00332287
-0.00331742
-0.00331156
-0.00330524
-0.00329839
-0.00329094
-0.00328281
-0.00327392
-0.00326417
-0.00325345
-0.00324162
-0.00322853
-0.00321399
-0.00319782
-0.00317978
-0.00315967
-0.00313737
-0.00311288
-0.00308623
-0.00305749
-0.00302676
-0.00299418
-0.00295991
-0.00292413
-0.00288683
-0.00284701
-0.00280307
-0.00275418
-0.00270443
-0.00265973
-0.00260771
-0.00255026
-0.0024888
-0.00242363
-0.00235507
-0.00228333
-0.00220845
-0.0021304
-0.00204913
-0.00196455
-0.00187661
-0.00178525
-0.00169043
-0.00159213
-0.00149033
-0.00138501
-0.00336054
-0.00335641
-0.00335176
-0.00334704
-0.00334208
-0.00333678
-0.00333111
-0.003325
-0.00331841
-0.00331127
-0.0033035
-0.00329502
-0.00328576
-0.00327559
-0.00326437
-0.00325193
-0.00323807
-0.00322254
-0.00320507
-0.00318534
-0.00316322
-0.00313878
-0.00311213
-0.00308339
-0.0030527
-0.00302023
-0.00298619
-0.00295111
-0.00291547
-0.002877
-0.00283221
-0.00277914
-0.00272782
-0.00269181
-0.00264176
-0.0025841
-0.00252191
-0.00245566
-0.00238604
-0.00231347
-0.00223803
-0.00215961
-0.00207803
-0.00199316
-0.0019049
-0.00181319
-0.00171796
-0.00161919
-0.00151683
-0.00141087
-0.00338082
-0.00337677
-0.00337222
-0.00336762
-0.00336282
-0.0033577
-0.00335225
-0.0033464
-0.00334011
-0.00333332
-0.00332597
-0.003318
-0.00330933
-0.00329984
-0.00328938
-0.00327777
-0.00326477
-0.00325014
-0.00323349
-0.00321433
-0.00319244
-0.00316809
-0.00314148
-0.0031127
-0.00308183
-0.00304906
-0.00301472
-0.00297998
-0.00294648
-0.0029104
-0.00286221
-0.00279504
-0.00273329
-0.0027245
-0.00268217
-0.00262399
-0.0025603
-0.00249237
-0.00242124
-0.00234748
-0.00227125
-0.00219237
-0.00211054
-0.00202548
-0.00193701
-0.00184503
-0.00174949
-0.00165031
-0.00154745
-0.00144086
-0.00340239
-0.00339847
-0.00339408
-0.00338965
-0.00338504
-0.00338015
-0.00337494
-0.00336937
-0.00336342
-0.00335703
-0.00335016
-0.00334277
-0.00333478
-0.0033261
-0.00331657
-0.00330599
-0.00329414
-0.00328082
-0.00326548
-0.0032472
-0.0032256
-0.00320129
-0.00317459
-0.00314544
-0.00311377
-0.00307993
-0.00304458
-0.00301001
-0.00297883
-0.00294305
-0.00288901
-0.00276774
-0.00262163
-0.0027548
-0.00273362
-0.00266819
-0.00260207
-0.00253232
-0.00245984
-0.00238519
-0.00230831
-0.00222895
-0.00214685
-0.00206168
-0.00197311
-0.00188099
-0.00178522
-0.00168573
-0.00158245
-0.00147531
-0.0034252
-0.00342149
-0.00341731
-0.00341309
-0.00340871
-0.00340406
-0.00339912
-0.00339386
-0.00338827
-0.00338231
-0.00337596
-0.0033692
-0.00336199
-0.00335424
-0.00334583
-0.00333657
-0.00332625
-0.00331494
-0.00330181
-0.0032846
-0.00326298
-0.00323854
-0.0032116
-0.00318151
-0.00314819
-0.00311248
-0.00307559
-0.00304013
-0.00300682
-0.00297649
-0.0028574
-0.00240628
-0.00189563
-0.00255858
-0.00272312
-0.00269284
-0.00263502
-0.00256996
-0.00249886
-0.00242501
-0.00234868
-0.00226953
-0.00218734
-0.00210204
-0.00201346
-0.0019213
-0.00182542
-0.00172573
-0.00162213
-0.00151457
-0.00344923
-0.00344578
-0.00344187
-0.00343791
-0.00343378
-0.00342939
-0.00342474
-0.0034198
-0.00341458
-0.00340905
-0.00340324
-0.00339715
-0.00339079
-0.00338414
-0.00337714
-0.00336958
-0.00336125
-0.00335268
-0.00334267
-0.00332698
-0.0033044
-0.00327957
-0.00325273
-0.00322126
-0.00318509
-0.00314586
-0.00310655
-0.0030639
-0.00301149
-0.00290528
-0.00251097
0.00129454
0.00396441
-0.00143594
-0.00263651
-0.00267728
-0.00265763
-0.00260509
-0.00253806
-0.00246635
-0.00239179
-0.00231398
-0.00223238
-0.00214708
-0.00205839
-0.00196625
-0.00187037
-0.0017706
-0.00166685
-0.00155905
-0.00347449
-0.00347136
-0.00346776
-0.00346408
-0.00346022
-0.00345611
-0.00345175
-0.00344713
-0.00344226
-0.00343715
-0.00343186
-0.00342644
-0.00342103
-0.00341573
-0.00341049
-0.00340499
-0.00339901
-0.00339399
-0.00338761
-0.00337373
-0.00335055
-0.00332442
-0.00329471
-0.00326453
-0.00322648
-0.00318519
-0.00314004
-0.00308631
-0.00297434
-0.00274934
-0.000510028
0.0039506
0.00407058
0.00229232
-0.00228691
-0.0026551
-0.00269204
-0.00264597
-0.00258173
-0.0025114
-0.00243863
-0.00236264
-0.00228223
-0.00219733
-0.00210848
-0.00201622
-0.0019204
-0.00182073
-0.00171704
-0.00160925
-0.00350098
-0.00349821
-0.00349496
-0.0034916
-0.00348802
-0.00348419
-0.00348011
-0.00347578
-0.00347123
-0.0034665
-0.00346167
-0.00345692
-0.00345257
-0.00344877
-0.00344541
-0.0034421
-0.00343806
-0.00343764
-0.00343792
-0.00342452
-0.00339825
-0.0033762
-0.00334174
-0.00330183
-0.00327131
-0.00322793
-0.00319323
-0.00314068
-0.00308805
-0.00298176
-0.00267645
0.00108266
0.0035648
-0.00162105
-0.00272428
-0.00275244
-0.00276694
-0.00270685
-0.00263649
-0.00256339
-0.00249076
-0.00241635
-0.00233722
-0.00225304
-0.00216428
-0.00207177
-0.00197596
-0.00187655
-0.00177323
-0.00166578
-0.00352877
-0.00352638
-0.00352351
-0.00352045
-0.00351716
-0.0035136
-0.00350978
-0.00350572
-0.00350143
-0.00349698
-0.00349255
-0.00348848
-0.00348504
-0.00348225
-0.00348029
-0.00347838
-0.00347908
-0.00348123
-0.0034817
-0.00346515
-0.0034446
-0.00342355
-0.00338942
-0.00335591
-0.003301
-0.0030913
-0.00324285
-0.00319286
-0.00314707
-0.00312991
-0.00304785
-0.00266783
-0.00226809
-0.00272646
-0.00293119
-0.00288632
-0.00283459
-0.00276863
-0.00269559
-0.00262008
-0.00254731
-0.00247515
-0.00239752
-0.00231425
-0.00222597
-0.00213347
-0.00203761
-0.00193858
-0.00183599
-0.0017293
-0.0035579
-0.00355591
-0.0035534
-0.00355066
-0.00354765
-0.00354435
-0.00354077
-0.00353692
-0.00353282
-0.0035286
-0.00352453
-0.00352092
-0.0035177
-0.00351477
-0.00351277
-0.00351242
-0.00352069
-0.00353641
-0.00355168
-0.00354727
-0.00347651
-0.00349743
-0.0031943
-0.00341083
-0.00335062
-0.00328512
-0.00279405
-0.00322311
-0.00319578
-0.00316013
-0.00312974
-0.00301961
-0.00288301
-0.00302114
-0.00301405
-0.00289288
-0.00288013
-0.00282878
-0.00275946
-0.00267931
-0.00260748
-0.00253996
-0.00246372
-0.00238125
-0.00229364
-0.00220166
-0.00210606
-0.00200743
-0.00190592
-0.00180061
-0.00358844
-0.00358683
-0.00358468
-0.00358224
-0.00357949
-0.00357644
-0.00357307
-0.0035694
-0.00356545
-0.00356141
-0.00355757
-0.00355377
-0.00354946
-0.00354461
-0.00354037
-0.00353893
-0.00354951
-0.00358644
-0.00359528
-0.00368915
-0.0036031
-0.00367245
-0.00340079
-0.00342961
-0.00338366
-0.00332373
-0.00327699
-0.00326482
-0.00325153
-0.00321688
-0.00316487
-0.0031017
-0.0030623
-0.00304044
-0.00301457
-0.00294253
-0.00296308
-0.00291669
-0.00283192
-0.00273048
-0.0026654
-0.00261103
-0.00253813
-0.00245538
-0.00236766
-0.00227647
-0.00218185
-0.00208399
-0.00198366
-0.00188051
-0.00362046
-0.00361918
-0.00361735
-0.00361519
-0.0036127
-0.00360989
-0.00360673
-0.00360322
-0.00359941
-0.00359552
-0.0035915
-0.00358648
-0.0035794
-0.0035698
-0.00355798
-0.00354672
-0.0035388
-0.00353554
-0.0035194
-0.00323047
-0.00119687
-0.00358617
-0.00355218
-0.00342279
-0.00339198
-0.00336954
-0.00333722
-0.00331477
-0.00330281
-0.00326143
-0.00323008
-0.00318607
-0.00313174
-0.00311828
-0.00310505
-0.00310231
-0.00308466
-0.0030361
-0.00286489
-0.00271623
-0.00268534
-0.00268734
-0.00262482
-0.00253793
-0.00244819
-0.00235789
-0.0022652
-0.00216926
-0.00207012
-0.00196972
-0.003654
-0.00365302
-0.00365144
-0.00364953
-0.00364729
-0.00364472
-0.00364179
-0.00363847
-0.00363486
-0.00363107
-0.00362649
-0.0036196
-0.0036086
-0.00359184
-0.00356782
-0.00353224
-0.00347521
-0.00337321
-0.00312076
-0.00251426
-0.0015658
-0.00228529
-0.00331871
-0.00333069
-0.0033583
-0.00338445
-0.00338774
-0.00336849
-0.00336172
-0.00334265
-0.00322391
-0.00326348
-0.00324019
-0.00322361
-0.00319513
-0.00317162
-0.00313643
-0.00315835
-0.00259071
-0.00223025
-0.00255844
-0.00270212
-0.00270719
-0.00261947
-0.00253138
-0.00244481
-0.00235586
-0.00226377
-0.00216687
-0.00206899
-0.00368909
-0.00368833
-0.00368694
-0.00368525
-0.00368326
-0.00368095
-0.0036783
-0.00367528
-0.00367201
-0.00366844
-0.00366354
-0.00365553
-0.00364245
-0.0036227
-0.00359375
-0.00354938
-0.00347218
-0.00333395
-0.0031774
-0.00328555
-0.00468806
-0.00332847
-0.00300314
-0.00326318
-0.00336604
-0.00341042
-0.00343227
-0.00342674
-0.00342289
-0.00339848
-0.00338015
-0.0032936
-0.00327132
-0.00327436
-0.00325038
-0.00320905
-0.00318908
-0.00267218
0.000590182
0.00133269
0.000216043
-0.0025528
-0.00268425
-0.00267205
-0.00260934
-0.00253427
-0.00245296
-0.00236746
-0.00227589
-0.00217949
-0.00372576
-0.00372505
-0.0037238
-0.0037223
-0.00372055
-0.00371855
-0.00371625
-0.00371365
-0.00371092
-0.00370783
-0.00370325
-0.00369564
-0.00368385
-0.00366697
-0.00364348
-0.00360945
-0.00356153
-0.00340028
-0.00309856
-0.000863776
-0.00194345
-0.00256415
-0.00336776
-0.00322378
-0.00346437
-0.00348466
-0.00349442
-0.00348288
-0.00348343
-0.00349869
-0.00205962
-0.00327582
-0.00330109
-0.0033164
-0.00330952
-0.00326878
-0.00314921
-0.00193503
0.00133068
0.0013019
0.00135291
-0.00231348
-0.0027238
-0.00274262
-0.00269977
-0.00263383
-0.0025602
-0.00248268
-0.0023985
-0.0023048
-0.00376392
-0.00376313
-0.00376195
-0.00376061
-0.00375912
-0.00375745
-0.00375557
-0.00375351
-0.00375144
-0.00374907
-0.00374525
-0.00373868
-0.00372865
-0.00371487
-0.0036948
-0.00365484
-0.00356252
-0.00336061
3.85664e-05
0.00316207
0.00365977
0.00319845
-0.00285215
-0.00348278
-0.00352585
-0.00355814
-0.00355878
-0.00354616
-0.00352264
-0.00351219
-0.00344054
-0.00330309
-0.00337687
-0.00342281
-0.00339918
-0.00336249
-0.00325403
-0.00295126
-0.000302784
0.000894448
0.000519162
-0.00282208
-0.00294573
-0.00289087
-0.00282809
-0.00275768
-0.00268516
-0.00261344
-0.00253593
-0.00244812
-0.00380342
-0.00380247
-0.00380128
-0.00380007
-0.00379883
-0.00379753
-0.00379613
-0.0037947
-0.00379342
-0.00379201
-0.00378948
-0.00378488
-0.00377794
-0.00376862
-0.00375483
-0.00372639
-0.00364279
-0.00363204
0.0026987
0.00356216
0.00358899
0.0035397
-0.00110095
-0.00359013
-0.00362755
-0.00363653
-0.00364322
-0.00335429
-0.00355675
-0.00357304
-0.00350186
-0.00332432
-0.000990848
-0.00353899
-0.00349594
-0.00351165
-0.00344868
-0.00329528
-0.00300165
-0.00267069
-0.00292203
-0.00315877
-0.00196008
-0.00307017
-0.00297721
-0.00289719
-0.00282152
-0.00275669
-0.00268762
-0.00260931
-0.0038441
-0.00384293
-0.00384167
-0.00384056
-0.00383957
-0.00383865
-0.00383777
-0.00383702
-0.0038366
-0.00383632
-0.0038354
-0.00383319
-0.00382965
-0.00382473
-0.00381524
-0.00378657
-0.00368687
-0.00340155
0.00185561
0.00327779
0.00348006
0.00322618
-0.000841036
-0.00373385
-0.003733
-0.00372662
-0.00373076
-0.00370869
-0.00369129
-0.00369122
-0.00364478
-0.00360172
-0.00367767
-0.00356879
-0.00356562
-0.00354407
-0.00353967
-0.00348222
-0.00335962
-0.00327015
-0.00328561
-0.00335908
-0.00334766
-0.00321154
-0.00311724
-0.00305561
-0.00297176
-0.00291478
-0.0028558
-0.00278688
-0.00388578
-0.00388433
-0.00388295
-0.00388191
-0.00388115
-0.00388062
-0.00388029
-0.00388025
-0.00388073
-0.00388167
-0.00388253
-0.00388288
-0.003883
-0.00388378
-0.00388574
-0.00388485
-0.00387382
-0.00380726
-0.00250243
0.0018337
0.00280912
0.000312928
-0.00370966
-0.00390991
-0.00387246
-0.0038539
-0.00384587
-0.00382147
-0.00380003
-0.0037905
-0.00379866
-0.00377912
-0.00376441
-0.00371666
-0.00367777
-0.00364424
-0.00362444
-0.00360008
-0.00353799
-0.00348809
-0.00345978
-0.00342438
-0.00345378
-0.00244608
-0.00321419
-0.00324954
-0.0030857
-0.00308041
-0.00304717
-0.00298526
-0.00392823
-0.00392648
-0.00392494
-0.00392394
-0.0039234
-0.00392325
-0.00392347
-0.00392415
-0.00392551
-0.00392762
-0.00393008
-0.00393253
-0.00393521
-0.00393896
-0.00394491
-0.00395142
-0.00397024
-0.00402569
-0.00390781
-0.00360851
-0.00387142
-0.00379165
-0.0040346
-0.00406715
-0.00399579
-0.00396503
-0.00396361
-0.00393051
-0.00389866
-0.00388134
-0.00389683
-0.00387953
-0.0038651
-0.00383339
-0.00379117
-0.00335842
-0.00374556
-0.00374192
-0.00365964
-0.00362467
-0.00359275
-0.00356084
-0.0035726
-0.00361793
-0.00321585
-0.00257339
-0.00303412
-0.00326517
-0.00325019
-0.00319713
-0.00397124
-0.00396915
-0.00396742
-0.00396644
-0.00396611
-0.00396634
-0.00396711
-0.0039685
-0.00397072
-0.00397392
-0.00397781
-0.00398202
-0.00398663
-0.00399202
-0.0039974
-0.00400571
-0.00401121
-0.00400314
-0.00406615
-0.00396827
-0.00399992
-0.0040246
-0.00409836
-0.00408868
-0.00408248
-0.00403139
-0.00408768
-0.00399409
-0.00396022
-0.00397958
-0.00405382
-0.00403031
-0.00398622
-0.00396502
-0.00391952
-0.00389795
-0.00388487
-0.00387278
-0.00377896
-0.00382739
-0.00379399
-0.00376476
-0.00372291
-0.00371007
-0.00375019
-0.00373265
-0.00311614
-0.00269124
-0.00339445
-0.00342233
-0.00401456
-0.00401212
-0.0040102
-0.00400923
-0.00400908
-0.00400968
-0.00401102
-0.00401312
-0.00401619
-0.00402042
-0.00402564
-0.00403149
-0.00403787
-0.0040449
-0.00405266
-0.00406319
-0.00407787
-0.00411332
-0.00405099
-0.00407792
-0.00406721
-0.00406162
-0.00407898
-0.00413536
-0.00416015
-0.00420429
-0.00317037
-0.00403736
-0.00397998
-0.00401724
-0.00428429
-0.00406507
-0.00410458
-0.00407365
-0.00406166
-0.00403822
-0.00404028
-0.00403261
-0.00402602
-0.00395389
-0.00394148
-0.00391856
-0.00390012
-0.0038984
-0.00382192
-0.00379871
-0.0038182
-0.00370934
-0.00353315
-0.0037036
-0.00405796
-0.00405517
-0.00405304
-0.00405207
-0.00405212
-0.00405309
-0.00405499
-0.00405783
-0.00406175
-0.004067
-0.00407352
-0.00408094
-0.00408902
-0.00409775
-0.00410727
-0.00411786
-0.00412629
-0.0041278
-0.00409889
-0.00412772
-0.00413691
-0.0041487
-0.00371912
-0.00419834
-0.00422347
-0.00419449
-0.00414167
-0.0042341
-0.00380221
0.000610026
0.00236802
0.00289045
-0.00190541
-0.004133
-0.00419877
-0.00419995
-0.00420545
-0.00420752
-0.00420641
-0.0041377
-0.00407062
-0.00407902
-0.00402331
-0.00407564
-0.00402423
-0.0039711
-0.00400294
-0.00398709
-0.00395345
-0.00356783
-0.0041012
-0.00409807
-0.00409574
-0.00409476
-0.004095
-0.00409636
-0.00409884
-0.00410244
-0.00410724
-0.00411349
-0.00412125
-0.00413018
-0.00413985
-0.00415007
-0.00416095
-0.00417285
-0.00418437
-0.00419356
-0.00418883
-0.00418932
-0.00420935
-0.00423067
-0.00426268
-0.00427624
-0.00426989
-0.00423853
-0.00410913
-0.0042631
0.00143136
0.00401028
0.00434981
0.00427158
0.00376093
-0.0020689
-0.00435151
-0.00435731
-0.00437437
-0.00438638
-0.00440291
-0.00355896
-0.00420311
-0.00421888
-0.00409309
-0.00433159
-0.00405306
-0.00422285
-0.00418724
-0.00419723
-0.00422965
-0.00388058
-0.00414406
-0.0041406
-0.00413806
-0.00413709
-0.00413753
-0.00413929
-0.00414237
-0.00414675
-0.00415247
-0.00415972
-0.00416867
-0.00417905
-0.00419028
-0.00420194
-0.00421405
-0.00422648
-0.00424343
-0.00427024
-0.00365604
-0.00422316
-0.00427758
-0.00430402
-0.00432293
-0.0043355
-0.00397832
-0.00420685
-0.00422097
-0.00420269
0.00354618
0.00413058
0.00415858
0.00413303
0.00410101
0.00025722
-0.00441679
-0.004532
-0.00454614
-0.00456255
-0.00455599
-0.00445117
-0.00433297
-0.0034998
0.00135757
0.00446725
0.00319022
-0.00143936
-0.00436472
-0.00450459
-0.00453013
-0.00454952
-0.00418631
-0.00418253
-0.0041798
-0.00417885
-0.0041795
-0.00418168
-0.00418537
-0.00419056
-0.00419724
-0.00420552
-0.00421561
-0.0042274
-0.00424024
-0.00425338
-0.00426628
-0.00427884
-0.00429204
-0.00429529
-0.00428446
-0.00431281
-0.00432444
-0.00433705
-0.00438831
-0.0044023
-0.00441209
-0.00437012
-0.00437611
-0.0042322
0.00413697
0.00396827
0.00400344
0.00402801
0.00407902
0.000670438
-0.00477564
-0.00475187
-0.0044681
-0.00477155
-0.0047638
-0.0047864
-0.00471506
0.00216912
0.00453609
0.00506507
0.00501663
0.00451263
-0.00268863
-0.00491984
-0.00491966
-0.00484475
-0.00422774
-0.00422363
-0.00422072
-0.0042198
-0.00422068
-0.0042233
-0.00422763
-0.00423366
-0.00424137
-0.00425076
-0.004262
-0.00427518
-0.00428981
-0.00430503
-0.00431994
-0.00433377
-0.00434483
-0.00434815
-0.0043427
-0.00365779
-0.00440432
-0.00442752
-0.00447244
-0.00445709
-0.0044948
-0.00447706
-0.0045056
-0.00461613
0.00174385
0.00330173
0.00381396
0.00383924
0.00345597
-0.000941075
-0.0049263
-0.00491979
-0.00494748
-0.00499045
-0.00499469
-0.00504625
-0.00534292
0.00586672
0.00505332
0.00491288
0.00503817
0.00562476
0.000626558
-0.00536961
-0.00532118
-0.00515498
-0.00426812
-0.0042637
-0.00426061
-0.00425973
-0.00426087
-0.00426394
-0.00426894
-0.00427585
-0.00428463
-0.00429523
-0.00430771
-0.00432225
-0.00433872
-0.00435641
-0.00437442
-0.00439174
-0.00440717
-0.00441986
-0.0044293
-0.00446277
-0.00445973
-0.00451268
-0.00454145
-0.00457028
-0.00458644
-0.00459668
-0.0045982
-0.00453635
-0.00365346
0.000219423
0.00414565
0.00411796
-0.000576031
-0.00479043
-0.00509141
-0.00506909
-0.00508484
-0.0047683
-0.00508112
-0.0051072
-0.00508829
0.00384413
0.00453897
0.00450477
0.00456513
0.00478544
-0.000961931
-0.00505378
-0.00561446
-0.00540789
-0.00430724
-0.0043025
-0.00429924
-0.00429841
-0.00429982
-0.00430338
-0.00430908
-0.0043169
-0.0043268
-0.00433871
-0.00435262
-0.00436863
-0.00438684
-0.00440695
-0.00442827
-0.00444997
-0.00446985
-0.0044928
-0.00451732
-0.00443042
-0.00457459
-0.00460163
-0.00463081
-0.00466085
-0.00468832
-0.00471108
-0.00471981
-0.00472403
-0.00476063
-0.0044992
-0.00491861
-0.00502059
-0.00512569
-0.00516833
-0.00526943
-0.00486686
-0.00529626
-0.00532543
-0.00532417
-0.00521753
-0.00500037
-0.00340804
0.00279538
0.00400178
0.00401134
0.0015479
-0.004783
-0.00585648
-0.00574739
-0.0056618
-0.00434487
-0.0043398
-0.00433637
-0.00433561
-0.0043373
-0.00434137
-0.0043478
-0.00435657
-0.00436764
-0.00438096
-0.00439647
-0.00441419
-0.00443425
-0.00445665
-0.00448105
-0.00450674
-0.00453279
-0.00456002
-0.00458201
-0.00461648
-0.00465495
-0.00468578
-0.00471753
-0.0047511
-0.00479349
-0.00482946
-0.00485728
-0.00488017
-0.00489316
-0.00484879
-0.00503344
-0.00518059
-0.00523166
-0.00531434
-0.00539756
-0.0054527
-0.00550068
-0.00556005
-0.00557756
-0.00549822
-0.00526659
-0.00521977
-0.00457448
-0.00509615
-0.00535751
-0.00569228
-0.00571585
-0.00581651
-0.00586453
-0.00582224
-0.00438077
-0.00437536
-0.00437176
-0.00437107
-0.00437306
-0.00437766
-0.00438484
-0.0043946
-0.0044069
-0.00442169
-0.00443893
-0.0044586
-0.00448075
-0.00450549
-0.00453274
-0.00456213
-0.00459313
-0.0046255
-0.00466024
-0.00469656
-0.00473359
-0.00477465
-0.00481255
-0.00483619
-0.00489455
-0.00495491
-0.00500351
-0.00505279
-0.00504337
-0.00514009
-0.00525077
-0.00532645
-0.00523731
-0.00546266
-0.00552335
-0.00560012
-0.00568935
-0.00581981
-0.00573529
-0.00581526
-0.00599583
-0.00493475
-0.00303481
-0.00270106
-0.00341351
-0.0047793
-0.0055259
-0.005902
-0.00607686
-0.00609772
-0.00441471
-0.00440894
-0.00440516
-0.00440455
-0.00440685
-0.00441199
-0.00441995
-0.00443074
-0.00444431
-0.00446064
-0.00447971
-0.00450148
-0.00452596
-0.00455321
-0.00458332
-0.00461622
-0.00465166
-0.00468932
-0.00472931
-0.00477154
-0.00481616
-0.00486711
-0.00491305
-0.00438343
-0.00499982
-0.00506576
-0.0051381
-0.00520629
-0.0052762
-0.00533499
-0.00540921
-0.00548083
-0.00555764
-0.0056002
-0.00565354
-0.00572274
-0.0058165
-0.00597519
-0.0046079
-0.00178392
-0.0012293
-0.00491806
-0.00240412
-0.00294309
-0.00421522
-0.00519901
-0.00581247
-0.00617031
-0.0063764
-0.00644496
-0.00444641
-0.00444027
-0.00443631
-0.00443577
-0.0044384
-0.00444409
-0.00445286
-0.00446469
-0.00447958
-0.00449752
-0.00451849
-0.00454247
-0.00456946
-0.00459944
-0.00463251
-0.00466877
-0.00470824
-0.0047508
-0.00479655
-0.00484533
-0.00489648
-0.00494893
-0.00500151
-0.00507514
-0.00512142
-0.00517994
-0.00525614
-0.00533211
-0.00540415
-0.00547074
-0.00554045
-0.00560686
-0.00566427
-0.00571263
-0.00576704
-0.0058319
-0.00590517
-0.00606775
-0.00215816
-0.0026606
-0.00316657
-0.0048496
-0.00145009
-0.00359475
-0.00522044
-0.00575323
-0.0061519
-0.00656185
-0.00711212
-0.00676145
-0.00447563
-0.0044691
-0.00446494
-0.00446447
-0.00446743
-0.00447369
-0.00448327
-0.00449619
-0.00451245
-0.00453204
-0.00455498
-0.00458125
-0.00461083
-0.00464373
-0.00467997
-0.00471966
-0.00476297
-0.00481
-0.00486079
-0.00491506
-0.00497266
-0.00503358
-0.00510013
-0.0051668
-0.00522971
-0.00529772
-0.00537357
-0.00545086
-0.00552623
-0.00559776
-0.00566239
-0.0057191
-0.00577766
-0.00582338
-0.00587208
-0.00592673
-0.00602013
-0.00633289
-0.0039338
-0.00410781
-0.00237834
-0.003445
0.000535249
0.00651577
0.0101375
0.00603762
-0.00443716
-0.00738644
-0.00743054
-0.00671261
-0.00450208
-0.00449514
-0.00449077
-0.00449038
-0.00449366
-0.0045005
-0.00451092
-0.00452495
-0.00454261
-0.00456391
-0.00458887
-0.00461747
-0.00464971
-0.00468561
-0.0047252
-0.00476855
-0.0048158
-0.00486714
-0.0049227
-0.00498246
-0.00504625
-0.00511364
-0.00518465
-0.00525777
-0.00533254
-0.00540876
-0.00548841
-0.00556868
-0.00564579
-0.00571721
-0.005781
-0.00583866
-0.00587988
-0.00591193
-0.00593189
-0.00591177
-0.0058432
-0.00502696
-0.00497312
-0.00305145
-0.00098573
0.00447254
0.00803114
0.00915916
0.01019
0.0107621
0.00835115
-0.00511461
-0.00858663
-0.00857427
-0.00452549
-0.00451812
-0.00451354
-0.00451321
-0.00451681
-0.00452423
-0.00453551
-0.00455068
-0.00456977
-0.00459282
-0.00461983
-0.00465079
-0.00468574
-0.00472469
-0.00476771
-0.00481489
-0.00486633
-0.00492215
-0.0049825
-0.00504752
-0.00511716
-0.00519106
-0.00526897
-0.0053498
-0.00543175
-0.00551508
-0.00559998
-0.00568351
-0.00576522
-0.00584067
-0.00590816
-0.00595468
-0.00598459
-0.00601897
-0.00603713
-0.00541885
-0.00580459
-0.00521107
-0.00433491
-0.00358902
0.00172154
0.00897815
0.00923644
0.00928753
0.00978977
0.0104858
0.0162812
-0.00102207
0.00313795
-0.00496162
-0.00454557
-0.00453776
-0.00453294
-0.00453267
-0.0045366
-0.00454462
-0.00455676
-0.00457309
-0.00459364
-0.00461845
-0.00464752
-0.00468087
-0.00471853
-0.00476057
-0.00480708
-0.00485817
-0.00491395
-0.00497451
-0.00503991
-0.00511021
-0.00518551
-0.00526572
-0.00535039
-0.00543827
-0.00552809
-0.00561849
-0.00570874
-0.00579564
-0.00588633
-0.00596211
-0.00603043
-0.00607109
-0.00609656
-0.00614665
-0.00617194
-0.00615327
-0.00618221
-0.00637295
-0.0066618
-0.00684573
0.0107922
0.0122778
0.0103645
0.0089968
0.00777139
0.00484481
-0.000858435
-0.00176547
-0.00554356
-0.005881
-0.00456204
-0.00455377
-0.00454871
-0.00454849
-0.00455275
-0.00456136
-0.00457438
-0.00459189
-0.00461391
-0.00464049
-0.00467163
-0.00470737
-0.00474776
-0.0047929
-0.00484292
-0.00489795
-0.00495814
-0.00502357
-0.00509432
-0.00517037
-0.00525155
-0.00533765
-0.00542851
-0.00552358
-0.00562111
-0.00571894
-0.00581566
-0.00591071
-0.00600416
-0.00608756
-0.00617124
-0.0062377
-0.00546555
-0.00629138
-0.006346
-0.00639573
-0.00643332
-0.00641556
-0.00599479
-0.00723383
0.00566372
0.0131601
0.011866
0.00843488
0.00535432
0.00133547
-0.000353949
-0.00194748
-0.00445814
-0.00991674
-0.00457461
-0.00456587
-0.00456056
-0.00456039
-0.00456497
-0.00457418
-0.0045881
-0.00460678
-0.00463028
-0.00465862
-0.00469182
-0.00472994
-0.00477307
-0.00482133
-0.00487487
-0.00493386
-0.00499843
-0.00506874
-0.00514489
-0.00522693
-0.00531472
-0.00540771
-0.005505
-0.00560574
-0.00570976
-0.00581556
-0.00591955
-0.00602055
-0.00611558
-0.00620566
-0.00627552
-0.00633279
-0.00641976
-0.00647086
-0.00653761
-0.00658694
-0.00653642
-0.00624974
-0.00673768
-0.00697547
-0.00629449
0.0066803
0.0108004
0.000506335
-0.000166234
-0.000142635
-0.000401036
-0.00162503
-0.00373966
-0.00650447
-0.00458299
-0.00457378
-0.00456821
-0.00456808
-0.00457298
-0.0045828
-0.00459761
-0.00461747
-0.00464243
-0.00467252
-0.00470778
-0.00474828
-0.00479415
-0.00484554
-0.0049026
-0.00496548
-0.00503434
-0.00510937
-0.00519077
-0.00527866
-0.00537296
-0.00547324
-0.00557864
-0.00568756
-0.00579763
-0.00590812
-0.00601952
-0.00612746
-0.00622789
-0.00632204
-0.0064236
-0.00648284
-0.00656321
-0.00664647
-0.00676872
-0.0068911
-0.00680888
-0.00558852
-0.00587416
-0.006334
-0.00665731
-0.00680448
-0.00605907
-0.00374753
-0.00196382
-0.00100168
-0.000317466
-0.000495694
-0.00256283
0.00160617
-0.00458688
-0.00457719
-0.00457137
-0.00457128
-0.00457651
-0.00458693
-0.00460263
-0.00462366
-0.00465007
-0.0046819