/*--------------------------------*- C++ -*----------------------------------*\
| =========                 |                                                 |
| \\      /  F ield         | OpenFOAM: The Open Source CFD Toolbox           |
|  \\    /   O peration     | Version:  2.4.0                                 |
|   \\  /    A nd           | Web:      www.OpenFOAM.org                      |
|    \\/     M anipulation  |                                                 |
\*---------------------------------------------------------------------------*/
FoamFile
{
    version     2.0;
    format      ascii;
    class       volVectorField;
    location    "0.165";
    object      U;
}
// * * * * * * * * * * * * * * * * * * * * * * * * * * * * * * * * * * * * * //

dimensions      [0 1 -1 0 0 0 0];

internalField   nonuniform List<vector> 
10000
(
(3.03153e-06 -3.04009e-06 0)
(1.01763e-05 -3.50207e-06 0)
(1.65275e-05 -3.19256e-06 0)
(2.16327e-05 -2.89607e-06 0)
(2.57995e-05 -2.73921e-06 0)
(2.95384e-05 -2.65396e-06 0)
(3.31925e-05 -2.63031e-06 0)
(3.69747e-05 -2.65615e-06 0)
(4.11191e-05 -2.71284e-06 0)
(4.58793e-05 -2.83087e-06 0)
(5.15049e-05 -2.99936e-06 0)
(5.82752e-05 -3.21356e-06 0)
(6.6461e-05 -3.47134e-06 0)
(7.62467e-05 -3.78362e-06 0)
(8.77477e-05 -4.10903e-06 0)
(0.000101019 -4.42346e-06 0)
(0.000116009 -4.71035e-06 0)
(0.000132581 -4.95416e-06 0)
(0.000150527 -5.14173e-06 0)
(0.000169601 -5.26941e-06 0)
(0.000189545 -5.33955e-06 0)
(0.000210123 -5.36145e-06 0)
(0.000231146 -5.34873e-06 0)
(0.000252477 -5.31513e-06 0)
(0.000274025 -5.26943e-06 0)
(0.000295702 -5.20992e-06 0)
(0.00031737 -5.11936e-06 0)
(0.000338769 -4.96233e-06 0)
(0.000359438 -4.68754e-06 0)
(0.000378678 -4.2386e-06 0)
(0.000395565 -3.57207e-06 0)
(0.000409048 -2.67503e-06 0)
(0.000418084 -1.57222e-06 0)
(0.00042174 -3.13223e-07 0)
(0.000419315 1.07816e-06 0)
(0.000410302 2.54535e-06 0)
(0.000394292 4.06331e-06 0)
(0.000370984 5.62068e-06 0)
(0.000340138 7.20947e-06 0)
(0.000301571 8.82035e-06 0)
(0.000255172 1.04392e-05 0)
(0.000200926 1.20449e-05 0)
(0.00013894 1.36119e-05 0)
(6.94625e-05 1.51107e-05 0)
(-7.09367e-06 1.65091e-05 0)
(-9.01428e-05 1.77708e-05 0)
(-0.000178919 1.88608e-05 0)
(-0.000272479 1.9746e-05 0)
(-0.000369717 2.0395e-05 0)
(-0.000469388 2.07802e-05 0)
(3.58838e-06 -1.02624e-05 0)
(1.17374e-05 -1.13993e-05 0)
(1.72529e-05 -8.94691e-06 0)
(2.00466e-05 -6.80776e-06 0)
(2.09748e-05 -5.60289e-06 0)
(2.10816e-05 -5.13754e-06 0)
(2.11458e-05 -5.21938e-06 0)
(2.18296e-05 -5.76253e-06 0)
(2.37499e-05 -6.75965e-06 0)
(2.75773e-05 -8.26636e-06 0)
(3.40182e-05 -1.03086e-05 0)
(4.37609e-05 -1.28481e-05 0)
(5.74288e-05 -1.58264e-05 0)
(7.55236e-05 -1.91409e-05 0)
(9.83762e-05 -2.26155e-05 0)
(0.000126083 -2.60743e-05 0)
(0.000158525 -2.93475e-05 0)
(0.000195381 -3.22876e-05 0)
(0.000236169 -3.47906e-05 0)
(0.000280299 -3.68099e-05 0)
(0.000327161 -3.83586e-05 0)
(0.000376184 -3.95012e-05 0)
(0.000426891 -4.03309e-05 0)
(0.000478914 -4.09363e-05 0)
(0.000531958 -4.13588e-05 0)
(0.000585725 -4.15501e-05 0)
(0.000639773 -4.13359e-05 0)
(0.000693351 -4.0403e-05 0)
(0.000745233 -3.83264e-05 0)
(0.000793616 -3.46556e-05 0)
(0.000836158 -2.90475e-05 0)
(0.0008702 -2.13859e-05 0)
(0.000893093 -1.18176e-05 0)
(0.000902501 -6.71685e-07 0)
(0.000896561 1.17296e-05 0)
(0.000873838 2.50368e-05 0)
(0.000833211 3.90323e-05 0)
(0.000773786 5.3573e-05 0)
(0.000694832 6.85441e-05 0)
(0.000595785 8.38186e-05 0)
(0.000476285 9.92311e-05 0)
(0.000336246 0.000114564 0)
(0.000175909 0.000129548 0)
(-4.08081e-06 0.00014388 0)
(-0.000202633 0.000157226 0)
(-0.000418194 0.000169239 0)
(-0.000648732 0.000179568 0)
(-0.000891753 0.000187883 0)
(-0.00114434 0.000193882 0)
(-0.00140322 0.000197308 0)
(3.38364e-06 -1.70137e-05 0)
(9.70519e-06 -1.7067e-05 0)
(1.19849e-05 -1.1144e-05 0)
(1.06734e-05 -6.24954e-06 0)
(6.97351e-06 -3.52106e-06 0)
(2.25692e-06 -2.63594e-06 0)
(-2.35151e-06 -3.17846e-06 0)
(-5.84661e-06 -4.98699e-06 0)
(-7.23066e-06 -8.09493e-06 0)
(-5.4574e-06 -1.25757e-05 0)
(5.81614e-07 -1.84791e-05 0)
(1.19639e-05 -2.57265e-05 0)
(2.96483e-05 -3.41311e-05 0)
(5.44163e-05 -4.33706e-05 0)
(8.67685e-05 -5.30492e-05 0)
(0.000126879 -6.27224e-05 0)
(0.000174586 -7.19489e-05 0)
(0.000229414 -8.03464e-05 0)
(0.000290631 -8.7644e-05 0)
(0.00035734 -9.3707e-05 0)
(0.000428587 -9.85499e-05 0)
(0.000503468 -0.000102313 0)
(0.000581205 -0.000105208 0)
(0.000661178 -0.000107431 0)
(0.000742885 -0.000109066 0)
(0.000825831 -0.000109972 0)
(0.000909343 -0.0001097 0)
(0.000992313 -0.000107454 0)
(0.00107294 -0.000102157 0)
(0.00114852 -9.26613e-05 0)
(0.00121549 -7.80819e-05 0)
(0.00126977 -5.81072e-05 0)
(0.00130731 -3.30868e-05 0)
(0.00132457 -3.82736e-06 0)
(0.00131871 2.87677e-05 0)
(0.00128754 6.39142e-05 0)
(0.00122935 0.000101063 0)
(0.0011427 0.000139836 0)
(0.00102635 0.000179911 0)
(0.00087933 0.000220922 0)
(0.000701 0.000262392 0)
(0.000491145 0.000303708 0)
(0.000250092 0.000344118 0)
(-2.12018e-05 0.000382768 0)
(-0.000321061 0.000418742 0)
(-0.000647081 0.000451091 0)
(-0.000996118 0.000478871 0)
(-0.00136432 0.000501185 0)
(-0.0017472 0.000517227 0)
(-0.00213969 0.000526318 0)
(3.16451e-06 -2.27769e-05 0)
(7.62985e-06 -2.02419e-05 0)
(6.70974e-06 -9.87831e-06 0)
(1.37478e-06 -1.60393e-06 0)
(-6.83422e-06 2.95959e-06 0)
(-1.62627e-05 4.29592e-06 0)
(-2.54761e-05 2.98812e-06 0)
(-3.31271e-05 -7.5707e-07 0)
(-3.78392e-05 -7.01351e-06 0)
(-3.81641e-05 -1.59214e-05 0)
(-3.26025e-05 -2.75207e-05 0)
(-1.96968e-05 -4.16742e-05 0)
(1.85888e-06 -5.80042e-05 0)
(3.31124e-05 -7.59252e-05 0)
(7.47419e-05 -9.46918e-05 0)
(0.00012699 -0.000113471 0)
(0.000189639 -0.000131436 0)
(0.000262032 -0.000147863 0)
(0.000343153 -0.000162227 0)
(0.000431741 -0.000174252 0)
(0.000526443 -0.000183944 0)
(0.000625963 -0.000191543 0)
(0.000729186 -0.000197432 0)
(0.000835235 -0.000201981 0)
(0.000943445 -0.000205362 0)
(0.00105324 -0.000207357 0)
(0.00116391 -0.000207182 0)
(0.00127423 -0.000203401 0)
(0.00138208 -0.000194004 0)
(0.00148406 -0.000176788 0)
(0.00157542 -0.000150019 0)
(0.0016506 -0.000113069 0)
(0.00170407 -6.66185e-05 0)
(0.00173117 -1.22372e-05 0)
(0.00172831 4.83351e-05 0)
(0.00169277 0.000113718 0)
(0.00162238 0.00018296 0)
(0.0015152 0.00025541 0)
(0.00136954 0.000330494 0)
(0.00118395 0.000407516 0)
(0.000957422 0.000485548 0)
(0.00068956 0.000563388 0)
(0.000380706 0.000639584 0)
(3.2067e-05 0.000712484 0)
(-0.000354176 0.000780327 0)
(-0.000774843 0.000841308 0)
(-0.00122578 0.000893641 0)
(-0.0017019 0.000935641 0)
(-0.00219726 0.000965794 0)
(-0.00270517 0.000982837 0)
(3.01315e-06 -2.75359e-05 0)
(5.75534e-06 -2.0951e-05 0)
(1.55917e-06 -5.10091e-06 0)
(-8.11777e-06 7.26721e-06 0)
(-2.13842e-05 1.40876e-05 0)
(-3.62486e-05 1.59848e-05 0)
(-5.09207e-05 1.36774e-05 0)
(-6.36623e-05 7.38422e-06 0)
(-7.26758e-05 -3.03455e-06 0)
(-7.60731e-05 -1.7787e-05 0)
(-7.19211e-05 -3.69159e-05 0)
(-5.8348e-05 -6.01668e-05 0)
(-3.36784e-05 -8.69284e-05 0)
(3.42442e-06 -0.000116259 0)
(5.3826e-05 -0.000146958 0)
(0.000117829 -0.000177683 0)
(0.000195129 -0.000207088 0)
(0.000284836 -0.000233988 0)
(0.000385565 -0.000257498 0)
(0.00049559 -0.000277143 0)
(0.000613044 -0.000292904 0)
(0.00073614 -0.00030517 0)
(0.000863358 -0.00031458 0)
(0.000993559 -0.000321793 0)
(0.00112598 -0.000327191 0)
(0.00126014 -0.00033057 0)
(0.00139552 -0.000330839 0)
(0.00153118 -0.000325813 0)
(0.00166504 -0.000312215 0)
(0.00179319 -0.000286278 0)
(0.00190963 -0.000244921 0)
(0.00200697 -0.000187022 0)
(0.00207796 -0.000113829 0)
(0.00211679 -2.81408e-05 0)
(0.00211937 6.71418e-05 0)
(0.00208276 0.000169866 0)
(0.00200454 0.000278701 0)
(0.00188236 0.000392794 0)
(0.00171397 0.000511346 0)
(0.00149737 0.000633281 0)
(0.00123111 0.000757086 0)
(0.000914459 0.000880785 0)
(0.000547719 0.00100199 0)
(0.000132288 0.00111803 0)
(-0.000329201 0.00122602 0)
(-0.000832845 0.00132306 0)
(-0.00137353 0.0014063 0)
(-0.001945 0.00147304 0)
(-0.00253992 0.00152089 0)
(-0.00315008 0.00154786 0)
(2.81848e-06 -3.13434e-05 0)
(3.5695e-06 -1.89648e-05 0)
(-4.60145e-06 3.78239e-06 0)
(-1.97919e-05 2.12903e-05 0)
(-3.96459e-05 3.10551e-05 0)
(-6.17418e-05 3.38217e-05 0)
(-8.38495e-05 3.04125e-05 0)
(-0.000103762 2.10275e-05 0)
(-0.000119187 5.43942e-06 0)
(-0.000127731 -1.66312e-05 0)
(-0.000126956 -4.52113e-05 0)
(-0.000114514 -7.98942e-05 0)
(-8.83056e-05 -0.000119768 0)
(-4.6656e-05 -0.000163438 0)
(1.15179e-05 -0.000209127 0)
(8.65839e-05 -0.000254833 0)
(0.000178125 -0.000298532 0)
(0.000284947 -0.000338412 0)
(0.000405185 -0.0003731 0)
(0.000536494 -0.000401839 0)
(0.000676326 -0.000424583 0)
(0.000822255 -0.000441936 0)
(0.000972258 -0.000454935 0)
(0.0011249 -0.000464711 0)
(0.00127938 -0.000472071 0)
(0.00143544 -0.000477042 0)
(0.00159313 -0.000478376 0)
(0.00175225 -0.000473111 0)
(0.00191136 -0.000456279 0)
(0.00206633 -0.00042173 0)
(0.00220967 -0.000364186 0)
(0.00233152 -0.000281709 0)
(0.00242227 -0.000176576 0)
(0.00247493 -5.36612e-05 0)
(0.00248535 8.24228e-05 0)
(0.00245086 0.00022866 0)
(0.002369 0.000383522 0)
(0.00223706 0.000546175 0)
(0.0020521 0.000715712 0)
(0.0018114 0.000890656 0)
(0.00151282 0.00106877 0)
(0.00115524 0.0012471 0)
(0.000738785 0.00142206 0)
(0.000264999 0.00158967 0)
(-0.000263067 0.0017457 0)
(-0.00084082 0.00188589 0)
(-0.00146221 0.00200608 0)
(-0.00211979 0.00210235 0)
(-0.0028049 0.00217124 0)
(-0.00350776 0.00220988 0)
(2.55911e-06 -3.39773e-05 0)
(6.51073e-07 -1.34597e-05 0)
(-1.28302e-05 1.8123e-05 0)
(-3.54053e-05 4.22664e-05 0)
(-6.4143e-05 5.60097e-05 0)
(-9.60768e-05 6.01984e-05 0)
(-0.000128434 5.57349e-05 0)
(-0.000158445 4.27768e-05 0)
(-0.000183233 2.09938e-05 0)
(-0.00019981 -9.9655e-06 0)
(-0.000205146 -5.00935e-05 0)
(-0.000196327 -9.87902e-05 0)
(-0.000170744 -0.000154769 0)
(-0.000126307 -0.000216077 0)
(-6.16542e-05 -0.000280212 0)
(2.36782e-05 -0.000344329 0)
(0.000129148 -0.000405516 0)
(0.000253185 -0.000461127 0)
(0.000393302 -0.000509117 0)
(0.000546339 -0.00054834 0)
(0.000708848 -0.000578707 0)
(0.000877556 -0.000601144 0)
(0.00104979 -0.000617287 0)
(0.00122376 -0.000629004 0)
(0.00139861 -0.000637846 0)
(0.00157447 -0.000644442 0)
(0.0017522 -0.000647731 0)
(0.00193307 -0.000644157 0)
(0.00211717 -0.000626537 0)
(0.00230076 -0.000585027 0)
(0.00247443 -0.000510613 0)
(0.0026246 -0.000399965 0)
(0.00273819 -0.000257284 0)
(0.00280704 -9.11252e-05 0)
(0.00282779 9.13647e-05 0)
(0.00279876 0.000286371 0)
(0.00271783 0.000492653 0)
(0.00258177 0.000709846 0)
(0.0023867 0.00093717 0)
(0.00212881 0.00117273 0)
(0.00180508 0.00141341 0)
(0.00141377 0.00165496 0)
(0.000954763 0.00189234 0)
(0.000429694 0.00211995 0)
(-0.000157991 0.00233191 0)
(-0.000803009 0.00252231 0)
(-0.00149835 0.00268544 0)
(-0.00223539 0.00281598 0)
(-0.00300407 0.00290919 0)
(-0.00379305 0.00296118 0)
(2.20541e-06 -3.49598e-05 0)
(-3.26645e-06 -3.21444e-06 0)
(-2.3762e-05 3.97916e-05 0)
(-5.60249e-05 7.25791e-05 0)
(-9.64028e-05 9.17184e-05 0)
(-0.00014126 9.81488e-05 0)
(-0.000187175 9.28405e-05 0)
(-0.000230714 7.58934e-05 0)
(-0.000268322 4.68627e-05 0)
(-0.000296314 5.32287e-06 0)
(-0.000310967 -4.86697e-05 0)
(-0.000308688 -0.000114283 0)
(-0.000286246 -0.000189782 0)
(-0.000241024 -0.000272532 0)
(-0.00017128 -0.000359136 0)
(-7.63855e-05 -0.000445681 0)
(4.30052e-05 -0.000528102 0)
(0.000184885 -0.000602635 0)
(0.000345987 -0.000666315 0)
(0.000522095 -0.000717435 0)
(0.000708568 -0.000755845 0)
(0.000901025 -0.000782939 0)
(0.00109597 -0.00080122 0)
(0.00129112 -0.000813633 0)
(0.00148553 -0.000822884 0)
(0.00167964 -0.000830726 0)
(0.00187535 -0.000836943 0)
(0.00207619 -0.000838055 0)
(0.00228536 -0.00082415 0)
(0.0025006 -0.000779579 0)
(0.00271005 -0.000688768 0)
(0.00289415 -0.000545901 0)
(0.00303436 -0.00035886 0)
(0.00312157 -0.000142954 0)
(0.00315495 9.09769e-05 0)
(0.00313505 0.000338819 0)
(0.0030603 0.000600676 0)
(0.00292662 0.000877446 0)
(0.00272861 0.00116881 0)
(0.00246092 0.00147241 0)
(0.00211927 0.00178393 0)
(0.00170113 0.00209753 0)
(0.00120602 0.00240627 0)
(0.000635666 0.00270259 0)
(-6.08631e-06 0.00297863 0)
(-0.000713236 0.00322656 0)
(-0.00147777 0.00343887 0)
(-0.00228984 0.00360857 0)
(-0.00313793 0.0037295 0)
(-0.00400909 0.00379656 0)
(1.73892e-06 -3.37338e-05 0)
(-8.30319e-06 1.32194e-05 0)
(-3.76691e-05 7.09333e-05 0)
(-8.21089e-05 0.000114908 0)
(-0.000137081 0.000141258 0)
(-0.000198156 0.000151029 0)
(-0.000261158 0.000145261 0)
(-0.000321895 0.000123987 0)
(-0.000376034 8.66366e-05 0)
(-0.000419096 3.27002e-05 0)
(-0.000446547 -3.77135e-05 0)
(-0.000453993 -0.000123512 0)
(-0.000437437 -0.000222441 0)
(-0.000393579 -0.000331062 0)
(-0.000320152 -0.000444886 0)
(-0.000216238 -0.000558666 0)
(-8.25475e-05 -0.000666846 0)
(7.84412e-05 -0.000764171 0)
(0.000262527 -0.000846393 0)
(0.000464139 -0.00091099 0)
(0.000677069 -0.000957708 0)
(0.000895501 -0.000988626 0)
(0.00111493 -0.00100748 0)
(0.00133249 -0.00101867 0)
(0.00154697 -0.00102645 0)
(0.00175889 -0.00103435 0)
(0.00197081 -0.00104401 0)
(0.00218935 -0.00105382 0)
(0.00242343 -0.0010509 0)
(0.0026745 -0.00101058 0)
(0.00292751 -0.000905381 0)
(0.00315315 -0.000724916 0)
(0.00332382 -0.000484154 0)
(0.00343043 -0.000211117 0)
(0.00347814 7.82767e-05 0)
(0.00347149 0.000381204 0)
(0.00340934 0.000701189 0)
(0.00328586 0.0010416 0)
(0.0030932 0.00140295 0)
(0.00282374 0.00178218 0)
(0.00247159 0.00217332 0)
(0.00203324 0.00256838 0)
(0.00150781 0.00295807 0)
(0.00089709 0.00333242 0)
(0.00020543 0.00368127 0)
(-0.000560392 0.00399456 0)
(-0.00139131 0.00426272 0)
(-0.00227616 0.00447689 0)
(-0.00320192 0.00462925 0)
(-0.00415389 0.00471335 0)
(1.15451e-06 -2.97176e-05 0)
(-1.44797e-05 3.73534e-05 0)
(-5.45803e-05 0.000113771 0)
(-0.000113694 0.000172014 0)
(-0.000186223 0.000207792 0)
(-0.000266823 0.000222295 0)
(-0.000350475 0.000216647 0)
(-0.000432141 0.000190816 0)
(-0.000506625 0.000144083 0)
(-0.000568555 7.58357e-05 0)
(-0.000612476 -1.37817e-05 0)
(-0.00063305 -0.000123408 0)
(-0.000625343 -0.000250215 0)
(-0.000585182 -0.000389845 0)
(-0.000509565 -0.000536515 0)
(-0.000397103 -0.000683332 0)
(-0.000248422 -0.000822834 0)
(-6.64544e-05 -0.000947773 0)
(0.000143522 -0.0010521 0)
(0.000374233 -0.00113209 0)
(0.000617388 -0.00118731 0)
(0.000865335 -0.00122089 0)
(0.00111246 -0.00123831 0)
(0.00135542 -0.00124578 0)
(0.00159256 -0.00124934 0)
(0.00182386 -0.0012547 0)
(0.00205105 -0.0012667 0)
(0.00228402 -0.00128982 0)
(0.00254166 -0.0013086 0)
(0.00283333 -0.00128507 0)
(0.00314004 -0.00116965 0)
(0.00341668 -0.000943368 0)
(0.00362039 -0.000634804 0)
(0.0037447 -0.000296214 0)
(0.00380763 5.04225e-05 0)
(0.00381952 0.000407685 0)
(0.00377846 0.000786265 0)
(0.00367499 0.00119353 0)
(0.00349741 0.00163093 0)
(0.00323504 0.00209409 0)
(0.00288 0.0025746 0)
(0.00242769 0.00306158 0)
(0.00187688 0.00354282 0)
(0.00122954 0.00400547 0)
(0.000490653 0.00443671 0)
(-0.000332128 0.00482397 0)
(-0.0012286 0.00515538 0)
(-0.00218622 0.00541997 0)
(-0.00319034 0.00560801 0)
(-0.00422441 0.00571151 0)
(4.5412e-07 -2.23347e-05 0)
(-2.17577e-05 7.06639e-05 0)
(-7.4371e-05 0.00017047 0)
(-0.000150542 0.00024659 0)
(-0.000243462 0.000294418 0)
(-0.000346777 0.00031535 0)
(-0.000454543 0.000310631 0)
(-0.000560813 0.000280159 0)
(-0.000659462 0.000223047 0)
(-0.000744143 0.000138534 0)
(-0.000808371 2.67595e-05 0)
(-0.000845718 -0.00011067 0)
(-0.000850126 -0.000270334 0)
(-0.000816313 -0.000446865 0)
(-0.000740283 -0.000632991 0)
(-0.000619896 -0.00081984 0)
(-0.000455459 -0.000997542 0)
(-0.000250233 -0.00115619 0)
(-1.06728e-05 -0.00128722 0)
(0.000253809 -0.00138505 0)
(0.000532103 -0.00144896 0)
(0.000814187 -0.00148378 0)
(0.00109352 -0.00149764 0)
(0.00136683 -0.00149887 0)
(0.00163226 -0.00149494 0)
(0.00188841 -0.00149329 0)
(0.00213245 -0.00150234 0)
(0.00237532 -0.00154276 0)
(0.00265277 -0.00159811 0)
(0.00298912 -0.00161169 0)
(0.00336067 -0.0014935 0)
(0.00369838 -0.0012078 0)
(0.00393377 -0.000808948 0)
(0.00406947 -0.000396174 0)
(0.00414868 4.21966e-06 0)
(0.00418773 0.000410154 0)
(0.00417993 0.000845404 0)
(0.00410919 0.00132238 0)
(0.00395829 0.00184284 0)
(0.00371269 0.00239968 0)
(0.00336242 0.00298089 0)
(0.00290187 0.00357183 0)
(0.00232963 0.00415664 0)
(0.00164811 0.00471914 0)
(0.000863079 0.00524347 0)
(-1.67415e-05 0.00571436 0)
(-0.000979939 0.00611737 0)
(-0.00201255 0.00643918 0)
(-0.00309822 0.00666796 0)
(-0.0042184 0.00679387 0)
(-3.57149e-07 -1.10335e-05 0)
(-3.0062e-05 0.000114531 0)
(-9.68142e-05 0.000243052 0)
(-0.000192225 0.000341156 0)
(-0.000308143 0.000404049 0)
(-0.000437131 0.000433432 0)
(-0.000572277 0.000430717 0)
(-0.000706685 0.000395734 0)
(-0.000833257 0.00032739 0)
(-0.000944616 0.000224712 0)
(-0.00103315 8.77617e-05 0)
(-0.00109122 -8.16805e-05 0)
(-0.00111143 -0.000279636 0)
(-0.00108714 -0.000499692 0)
(-0.00101304 -0.000732931 0)
(-0.000885858 -0.000968164 0)
(-0.000705212 -0.00119254 0)
(-0.000474414 -0.00139265 0)
(-0.000201071 -0.00155636 0)
(0.000102721 -0.0016752 0)
(0.000421838 -0.0017479 0)
(0.000743049 -0.00178234 0)
(0.00105955 -0.00179099 0)
(0.00136979 -0.00178463 0)
(0.00167306 -0.00177102 0)
(0.00196657 -0.00175678 0)
(0.00223618 -0.00174872 0)
(0.0024842 -0.00180472 0)
(0.00277523 -0.00192006 0)
(0.00315697 -0.00199792 0)
(0.00359837 -0.00189031 0)
(0.0040028 -0.00152384 0)
(0.00426034 -0.000996153 0)
(0.00439601 -0.000505776 0)
(0.00449815 -6.70557e-05 0)
(0.00458129 0.000375319 0)
(0.00462494 0.000863971 0)
(0.00460319 0.00141462 0)
(0.00449243 0.00202737 0)
(0.00427395 0.00269008 0)
(0.00393594 0.00338564 0)
(0.00347214 0.00409464 0)
(0.0028813 0.00479688 0)
(0.00216658 0.00547234 0)
(0.00133488 0.00610184 0)
(0.000396182 0.00666722 0)
(-0.00063685 0.00715137 0)
(-0.00174883 0.00753838 0)
(-0.00292167 0.00781398 0)
(-0.00413469 0.00796616 0)
(-1.27212e-06 4.69738e-06 0)
(-3.92872e-05 0.000170195 0)
(-0.000121598 0.000333318 0)
(-0.000238151 0.000457969 0)
(-0.000379356 0.000539328 0)
(-0.000536654 0.000579523 0)
(-0.000702149 0.000580197 0)
(-0.000867993 0.000541117 0)
(-0.00102611 0.000460938 0)
(-0.00116806 0.000338387 0)
(-0.00128507 0.000173329 0)
(-0.00136814 -3.24066e-05 0)
(-0.00140839 -0.000274394 0)
(-0.00139755 -0.000545216 0)
(-0.00132861 -0.000834234 0)
(-0.00119671 -0.00112765 0)
(-0.00100025 -0.00140901 0)
(-0.000742103 -0.00166042 0)
(-0.000430714 -0.00186466 0)
(-8.14854e-05 -0.00200854 0)
(0.000284302 -0.00208959 0)
(0.000648582 -0.00212141 0)
(0.00100569 -0.00212436 0)
(0.00135918 -0.00211239 0)
(0.00171307 -0.00209176 0)
(0.00206734 -0.0020641 0)
(0.00239127 -0.00201345 0)
(0.00264712 -0.00205456 0)
(0.00293913 -0.0022734 0)
(0.00335457 -0.00244512 0)
(0.00384779 -0.00236913 0)
(0.00430705 -0.00189268 0)
(0.00456378 -0.00116484 0)
(0.00469003 -0.000624263 0)
(0.0048439 -0.000184275 0)
(0.00500559 0.000279565 0)
(0.00512634 0.000822232 0)
(0.0051724 0.00145421 0)
(0.00511612 0.00217223 0)
(0.00493515 0.00295634 0)
(0.00461645 0.00378283 0)
(0.00415348 0.00462658 0)
(0.00354558 0.00546228 0)
(0.00279717 0.00626559 0)
(0.00191671 0.00701381 0)
(0.000915695 0.00768593 0)
(-0.000191965 0.00826214 0)
(-0.00138963 0.00872373 0)
(-0.00265758 0.00905356 0)
(-0.00397291 0.00923699 0)
(-2.28115e-06 2.53116e-05 0)
(-4.92954e-05 0.000238708 0)
(-0.000148323 0.000442792 0)
(-0.000287566 0.000598946 0)
(-0.000455937 0.00070253 0)
(-0.000643756 0.000756246 0)
(-0.000842167 0.00076205 0)
(-0.0010424 0.000719657 0)
(-0.00123545 0.000627411 0)
(-0.00141182 0.000483628 0)
(-0.00156154 0.000287816 0)
(-0.00167422 4.16634e-05 0)
(-0.00173935 -0.000250158 0)
(-0.00174678 -0.000579376 0)
(-0.00168743 -0.000933673 0)
(-0.00155432 -0.00129645 0)
(-0.00134397 -0.00164713 0)
(-0.001058 -0.00196219 0)
(-0.000704829 -0.0022174 0)
(-0.000303602 -0.0023913 0)
(0.00011421 -0.00247834 0)
(0.000522166 -0.00250318 0)
(0.000918208 -0.00250154 0)
(0.00131685 -0.00249189 0)
(0.00173229 -0.00247745 0)
(0.00217771 -0.00245472 0)
(0.00262367 -0.00234967 0)
(0.00295084 -0.00228319 0)
(0.00325423 -0.00264817 0)
(0.00364395 -0.00290189 0)
(0.00407214 -0.00287645 0)
(0.00449449 -0.00229171 0)
(0.00472305 -0.00127364 0)
(0.00488891 -0.000797294 0)
(0.00518276 -0.000403025 0)
(0.00547867 8.64197e-05 0)
(0.00570264 0.000698437 0)
(0.00583309 0.00142427 0)
(0.0058451 0.00226514 0)
(0.00571159 0.00319001 0)
(0.00541852 0.00416732 0)
(0.00495935 0.00516542 0)
(0.00433449 0.00615305 0)
(0.00355034 0.00710098 0)
(0.00261762 0.00798296 0)
(0.00154958 0.0087754 0)
(0.000361252 0.00945613 0)
(-0.000929963 0.0100034 0)
(-0.00230302 0.0103967 0)
(-0.00373276 0.0106179 0)
(-3.37067e-06 5.11842e-05 0)
(-5.99092e-05 0.000320895 0)
(-0.00017649 0.000572649 0)
(-0.000339533 0.00076558 0)
(-0.000536441 0.000895463 0)
(-0.000756454 0.000965756 0)
(-0.000989818 0.000978825 0)
(-0.00122693 0.00093435 0)
(-0.00145789 0.000830303 0)
(-0.00167226 0.000664454 0)
(-0.0018589 0.000435753 0)
(-0.00200602 0.000145493 0)
(-0.00210141 -0.000201701 0)
(-0.00213285 -0.000596978 0)
(-0.00208886 -0.00102654 0)
(-0.00195983 -0.00147097 0)
(-0.00173972 -0.00190521 0)
(-0.00142784 -0.00229927 0)
(-0.00103044 -0.0026197 0)
(-0.00056993 -0.00282984 0)
(-9.55199e-05 -0.00291586 0)
(0.000350617 -0.0029234 0)
(0.000774262 -0.00291878 0)
(0.00120965 -0.00292627 0)
(0.00168438 -0.00294335 0)
(0.0022269 -0.00296953 0)
(0.00284511 -0.00286044 0)
(0.00341722 -0.00261159 0)
(0.00380783 -0.00298399 0)
(0.00407128 -0.0032801 0)
(0.00427063 -0.00324571 0)
(0.0043875 -0.00251991 0)
(0.00457541 -0.00140232 0)
(0.0050224 -0.00117927 0)
(0.00558882 -0.000808315 0)
(0.00604735 -0.000228351 0)
(0.00637388 0.000479661 0)
(0.00659907 0.00130936 0)
(0.00669321 0.00229446 0)
(0.00661718 0.00338315 0)
(0.00635552 0.0045349 0)
(0.00590175 0.00571038 0)
(0.00525824 0.00687103 0)
(0.00443465 0.0079821 0)
(0.00344496 0.00901405 0)
(0.00230452 0.00994161 0)
(0.00102892 0.0107409 0)
(-0.000364605 0.0113872 0)
(-0.00185442 0.0118555 0)
(-0.00341315 0.0121233 0)
(-4.52163e-06 8.2589e-05 0)
(-7.09049e-05 0.000417301 0)
(-0.000205487 0.000723645 0)
(-0.000392914 0.000958844 0)
(-0.000619115 0.00111936 0)
(-0.000872332 0.00120961 0)
(-0.00114201 0.00123249 0)
(-0.00141783 0.00118768 0)
(-0.00168913 0.00107271 0)
(-0.00194463 0.000884649 0)
(-0.00217212 0.000621663 0)
(-0.0023585 0.000284336 0)
(-0.00248984 -0.000123125 0)
(-0.00255176 -0.000591707 0)
(-0.00253011 -0.00110648 0)
(-0.00241232 -0.00164538 0)
(-0.00218922 -0.00217875 0)
(-0.00185701 -0.0026701 0)
(-0.00141568 -0.00307639 0)
(-0.000886997 -0.00333172 0)
(-0.000351771 -0.00340101 0)
(0.000119283 -0.00336811 0)
(0.00054735 -0.00335831 0)
(0.000998329 -0.00340157 0)
(0.00151417 -0.00347917 0)
(0.00211181 -0.00359157 0)
(0.00280808 -0.0035605 0)
(0.00374397 -0.00335929 0)
(0.0045251 -0.0033313 0)
(0.00444978 -0.00311548 0)
(0.00375882 -0.00296519 0)
(0.00350507 -0.00268676 0)
(0.00431605 -0.00214629 0)
(0.00537866 -0.00186236 0)
(0.00610922 -0.00141806 0)
(0.0066819 -0.000654029 0)
(0.00712612 0.000144119 0)
(0.00748042 0.00108939 0)
(0.00767432 0.00224738 0)
(0.00766564 0.00352742 0)
(0.00744029 0.00488219 0)
(0.0069916 0.00626242 0)
(0.00632525 0.00761999 0)
(0.0054564 0.008914 0)
(0.00440408 0.0101126 0)
(0.00318609 0.0111906 0)
(0.00181724 0.0121243 0)
(0.000312737 0.0128858 0)
(-0.00130654 0.0134443 0)
(-0.00301123 0.0137706 0)
(-5.70826e-06 0.000119673 0)
(-8.20076e-05 0.000528139 0)
(-0.000234582 0.00089604 0)
(-0.00044636 0.00117909 0)
(-0.000701883 0.00137475 0)
(-0.000988517 0.00148863 0)
(-0.00129505 0.00152429 0)
(-0.00161058 0.00148144 0)
(-0.00192388 0.00135711 0)
(-0.00222295 0.00114751 0)
(-0.00249468 0.000849775 0)
(-0.00272475 0.000463425 0)
(-0.00289763 -8.19344e-06 0)
(-0.00299676 -0.000556447 0)
(-0.00300517 -0.00116582 0)
(-0.00290691 -0.00181188 0)
(-0.00268976 -0.00245997 0)
(-0.00234768 -0.00306762 0)
(-0.0018688 -0.00359059 0)
(-0.00126134 -0.00390887 0)
(-0.000663683 -0.00393068 0)
(-0.000190149 -0.00381599 0)
(0.000214786 -0.00378893 0)
(0.00065859 -0.00389418 0)
(0.00120735 -0.00407089 0)
(0.00185916 -0.00428718 0)
(0.0026396 -0.00439334 0)
(0.00361774 -0.00440347 0)
(0.00428018 -0.00362299 0)
(0.00432741 -0.00268985 0)
(0.00413124 -0.00240846 0)
(0.00406365 -0.00286007 0)
(0.00472321 -0.00334964 0)
(0.0058136 -0.00277641 0)
(0.00664688 -0.00212918 0)
(0.00735397 -0.00127618 0)
(0.00802403 -0.000374211 0)
(0.00852423 0.000747417 0)
(0.00881326 0.00211204 0)
(0.00887568 0.00361639 0)
(0.00868714 0.00520877 0)
(0.00823878 0.00682577 0)
(0.00754153 0.00840654 0)
(0.00661907 0.00990332 0)
(0.00549801 0.0112839 0)
(0.00419906 0.0125275 0)
(0.00273353 0.0136133 0)
(0.00111085 0.0145102 0)
(-0.000651095 0.0151789 0)
(-0.00252124 0.0155805 0)
(-6.89768e-06 0.000162428 0)
(-9.28917e-05 0.000653229 0)
(-0.000262923 0.00108951 0)
(-0.000498312 0.00142596 0)
(-0.000782352 0.00166134 0)
(-0.00110169 0.00180274 0)
(-0.00144464 0.00185455 0)
(-0.00179991 0.00181652 0)
(-0.00215588 0.00168513 0)
(-0.00250001 0.00145558 0)
(-0.0028185 0.00112367 0)
(-0.00309596 0.000687534 0)
(-0.00331537 0.000149157 0)
(-0.00345813 -0.000483872 0)
(-0.00350432 -0.00119627 0)
(-0.00343383 -0.00196198 0)
(-0.00323043 -0.00274012 0)
(-0.00288973 -0.00347766 0)
(-0.0023907 -0.00415326 0)
(-0.0017003 -0.00457398 0)
(-0.00105409 -0.00448395 0)
(-0.000630434 -0.00422716 0)
(-0.000277843 -0.00417871 0)
(0.000164068 -0.00439235 0)
(0.000733128 -0.00467915 0)
(0.00134981 -0.00495594 0)
(0.00197385 -0.00513211 0)
(0.00251551 -0.00513082 0)
(0.00313289 -0.0041118 0)
(0.00399239 -0.00309776 0)
(0.00496899 -0.00280286 0)
(0.00591475 -0.00334334 0)
(0.00659963 -0.00411724 0)
(0.0072176 -0.00362129 0)
(0.00796894 -0.00285865 0)
(0.00869536 -0.0020008 0)
(0.00931406 -0.000951155 0)
(0.00979694 0.000346129 0)
(0.010138 0.00190724 0)
(0.0102626 0.003657 0)
(0.0101056 0.00552136 0)
(0.0096484 0.00740968 0)
(0.00890839 0.00924067 0)
(0.00792181 0.010958 0)
(0.00672696 0.0125321 0)
(0.00534814 0.0139537 0)
(0.00378797 0.0152116 0)
(0.00204308 0.0162701 0)
(0.000125104 0.0170766 0)
(-0.0019331 0.0175768 0)
(-8.05044e-06 0.000210669 0)
(-0.000103185 0.000791951 0)
(-0.000289551 0.0013031 0)
(-0.000547023 0.00169826 0)
(-0.000857841 0.00197791 0)
(-0.00120814 0.00215087 0)
(-0.00158596 0.00222252 0)
(-0.00197985 0.00219272 0)
(-0.002378 0.00205733 0)
(-0.0027676 0.00181032 0)
(-0.00313426 0.00144594 0)
(-0.00346168 0.000960523 0)
(-0.00373152 0.000354225 0)
(-0.0039234 -0.00036711 0)
(-0.00401486 -0.00118967 0)
(-0.00398092 -0.00208819 0)
(-0.00379512 -0.00301773 0)
(-0.00344458 -0.00390021 0)
(-0.00292833 -0.00473482 0)
(-0.00214538 -0.00534616 0)
(-0.00151646 -0.00497243 0)
(-0.00124841 -0.00454645 0)
(-0.000937895 -0.00452297 0)
(-0.000411205 -0.00496495 0)
(0.000233912 -0.00528954 0)
(0.00082449 -0.00555322 0)
(0.00139937 -0.00571665 0)
(0.00195674 -0.0056296 0)
(0.00270904 -0.00500226 0)
(0.00389587 -0.00430928 0)
(0.0053439 -0.00409871 0)
(0.00670445 -0.00440797 0)
(0.00769718 -0.00472639 0)
(0.00846302 -0.0043398 0)
(0.00922368 -0.00358891 0)
(0.00994088 -0.00267869 0)
(0.0105739 -0.00149335 0)
(0.0111349 -0.000101368 0)
(0.0115897 0.00163186 0)
(0.0118042 0.00364674 0)
(0.0116871 0.00582415 0)
(0.0112153 0.00802461 0)
(0.0104199 0.0101342 0)
(0.00935836 0.0120857 0)
(0.00808829 0.0138572 0)
(0.00663986 0.0154641 0)
(0.00499717 0.0169174 0)
(0.00313137 0.0181735 0)
(0.00104332 0.0191565 0)
(-0.00123058 0.0197881 0)
(-9.12174e-06 0.000264007 0)
(-0.000112479 0.000943189 0)
(-0.000313416 0.00153509 0)
(-0.000590586 0.00199391 0)
(-0.000925426 0.0023222 0)
(-0.0013038 0.00253081 0)
(-0.00171373 0.00262628 0)
(-0.00214387 0.00260865 0)
(-0.0025825 0.00247304 0)
(-0.00301675 0.00221204 0)
(-0.00343182 0.00181797 0)
(-0.00381057 0.00128503 0)
(-0.00413332 0.00061125 0)
(-0.00437812 -0.000199426 0)
(-0.00452166 -0.0011348 0)
(-0.00454013 -0.00217206 0)
(-0.00440429 -0.00327176 0)
(-0.00406335 -0.00434548 0)
(-0.00348272 -0.00534324 0)
(-0.00254331 -0.00621795 0)
(-0.00224505 -0.00491168 0)
(-0.00236282 -0.0048387 0)
(-0.0016362 -0.00524105 0)
(-0.000728247 -0.00569258 0)
(-0.000118624 -0.00589684 0)
(0.000360469 -0.00610449 0)
(0.000866677 -0.00630358 0)
(0.0015312 -0.00631972 0)
(0.00250993 -0.0060828 0)
(0.00389698 -0.00578146 0)
(0.00552504 -0.00566311 0)
(0.00711088 -0.00575594 0)
(0.00841046 -0.0056883 0)
(0.00944688 -0.00520126 0)
(0.0103532 -0.00436102 0)
(0.011089 -0.00333273 0)
(0.0117567 -0.00213186 0)
(0.0124798 -0.000693038 0)
(0.0131269 0.00122208 0)
(0.013482 0.00355517 0)
(0.0134206 0.00611287 0)
(0.0129283 0.00868026 0)
(0.0120638 0.0110991 0)
(0.0109176 0.0132919 0)
(0.0095782 0.0152505 0)
(0.00808713 0.0170399 0)
(0.00639096 0.018719 0)
(0.00441237 0.0202255 0)
(0.00213698 0.0214415 0)
(-0.000389199 0.0222503 0)
(-1.00629e-05 0.000321834 0)
(-0.000120338 0.0011053 0)
(-0.000333402 0.00178303 0)
(-0.000626976 0.00230986 0)
(-0.000981999 0.00269084 0)
(-0.00138434 0.00293914 0)
(-0.00182232 0.00306264 0)
(-0.00228501 0.00306162 0)
(-0.00276113 0.00293037 0)
(-0.00323804 0.0026598 0)
(-0.00370079 0.00223986 0)
(-0.00413126 0.00166194 0)
(-0.00450764 0.000921346 0)
(-0.00480429 1.99269e-05 0)
(-0.00499295 -0.00103074 0)
(-0.00504725 -0.00220656 0)
(-0.00494369 -0.00347363 0)
(-0.00464443 -0.00476607 0)
(-0.00399935 -0.00605044 0)
(-0.00306091 -0.007162 0)
(-0.0020876 -0.00519886 0)
(-0.00128907 -0.00536693 0)
(-0.000743283 -0.00600287 0)
(-0.00042592 -0.0061973 0)
(-0.000249949 -0.00629019 0)
(-3.20166e-05 -0.00651459 0)
(0.000388065 -0.00689034 0)
(0.00114617 -0.00720272 0)
(0.00231367 -0.00734902 0)
(0.00388498 -0.00738764 0)
(0.005652 -0.00734633 0)
(0.00741104 -0.00732908 0)
(0.0089728 -0.00697173 0)
(0.0102567 -0.00627954 0)
(0.0113503 -0.00527117 0)
(0.0122885 -0.0041011 0)
(0.0130539 -0.00285198 0)
(0.0138701 -0.00147113 0)
(0.014751 0.00061846 0)
(0.0152832 0.00335705 0)
(0.0152852 0.00638827 0)
(0.0147653 0.00938937 0)
(0.0138206 0.0121471 0)
(0.0125857 0.0145765 0)
(0.0111963 0.0166879 0)
(0.00971918 0.0186394 0)
(0.00802539 0.0205907 0)
(0.00594734 0.0224305 0)
(0.00345699 0.023963 0)
(0.000625218 0.0250119 0)
(-1.08232e-05 0.000383311 0)
(-0.000126313 0.00127607 0)
(-0.00034836 0.00204363 0)
(-0.000654104 0.00264204 0)