/*--------------------------------*- C++ -*----------------------------------*\
| =========                 |                                                 |
| \\      /  F ield         | OpenFOAM: The Open Source CFD Toolbox           |
|  \\    /   O peration     | Version:  2.4.0                                 |
|   \\  /    A nd           | Web:      www.OpenFOAM.org                      |
|    \\/     M anipulation  |                                                 |
\*---------------------------------------------------------------------------*/
FoamFile
{
    version     2.0;
    format      ascii;
    class       surfaceScalarField;
    location    "0.007";
    object      phi;
}
// * * * * * * * * * * * * * * * * * * * * * * * * * * * * * * * * * * * * * //

dimensions      [0 3 -1 0 0 0 0];

internalField   nonuniform List<scalar> 
119500
(
5.30104e-13
-5.30104e-13
4.66582e-13
6.29815e-14
3.52874e-13
1.13254e-13
2.51026e-13
1.01408e-13
1.59866e-13
9.07367e-14
6.2438e-14
9.70217e-14
-3.66072e-14
9.86536e-14
-1.34371e-13
9.73811e-14
-2.24788e-13
9.00377e-14
-3.06409e-13
8.12374e-14
-3.82292e-13
7.54907e-14
-4.59171e-13
7.64782e-14
-5.43193e-13
8.36126e-14
-6.35936e-13
9.23243e-14
-7.34992e-13
9.86293e-14
-8.36066e-13
1.00636e-13
-9.34932e-13
9.84129e-14
-1.03052e-12
9.51139e-14
-1.12526e-12
9.42358e-14
-1.224e-12
9.81937e-14
-1.33133e-12
1.06739e-13
-1.45001e-12
1.18049e-13
-1.57987e-12
1.29159e-13
-1.71712e-12
1.36495e-13
-1.85567e-12
1.37722e-13
-1.98844e-12
1.3188e-13
-2.10963e-12
1.20236e-13
-2.21642e-12
1.05788e-13
-2.31045e-12
9.29626e-14
-2.39845e-12
8.68931e-14
-2.49174e-12
9.21495e-14
-2.60251e-12
1.09601e-13
-2.7391e-12
1.35413e-13
-2.90192e-12
1.61633e-13
-3.08232e-12
1.79226e-13
-3.26687e-12
1.8339e-13
-3.44867e-12
1.80667e-13
-3.63524e-12
1.85464e-13
-3.84643e-12
2.10137e-13
-4.10176e-12
2.54337e-13
-4.41049e-12
3.0779e-13
-4.76994e-12
3.58593e-13
-5.17253e-12
4.0182e-13
-5.61616e-12
4.42931e-13
-6.11062e-12
4.93829e-13
-6.67547e-12
5.64296e-13
-7.33473e-12
6.58769e-13
-8.10027e-12
7.65095e-13
-8.97399e-12
8.73329e-13
-9.94933e-12
9.7498e-13
-1.10136e-11
1.06391e-12
-1.21531e-11
1.13925e-12
-1.33566e-11
1.2033e-12
-1.46164e-11
1.2596e-12
-1.59283e-11
1.31179e-12
-1.72912e-11
1.36287e-12
-1.87068e-11
1.4156e-12
-2.01794e-11
1.47264e-12
-2.17157e-11
1.53646e-12
-2.33249e-11
1.60924e-12
-2.50167e-11
1.69192e-12
-2.68001e-11
1.78361e-12
-2.86817e-11
1.88168e-12
-3.06632e-11
1.98166e-12
-3.27413e-11
2.07814e-12
-3.49076e-11
2.16638e-12
-3.71509e-11
2.24346e-12
-3.94599e-11
2.30905e-12
-4.18257e-11
2.36592e-12
-4.42449e-11
2.41931e-12
-4.67204e-11
2.47554e-12
-4.92608e-11
2.54054e-12
-5.18789e-11
2.61821e-12
-5.45878e-11
2.70893e-12
-5.73969e-11
2.80923e-12
-6.031e-11
2.91308e-12
-6.33236e-11
3.01362e-12
-6.64283e-11
3.10479e-12
-6.96116e-11
3.18328e-12
-7.28612e-11
3.24965e-12
-7.61691e-11
3.30783e-12
-7.9533e-11
3.36386e-12
-8.29567e-11
3.42373e-12
-8.64483e-11
3.49153e-12
-9.00166e-11
3.56827e-12
-9.36681e-11
3.65145e-12
-9.74047e-11
3.73646e-12
-1.01222e-10
3.81754e-12
-1.05111e-10
3.88871e-12
-1.09055e-10
3.94388e-12
-1.13032e-10
3.97615e-12
-1.1701e-10
3.97806e-12
-1.20953e-10
3.94233e-12
-1.24818e-10
3.86433e-12
-1.28562e-10
3.74398e-12
-1.32153e-10
3.58951e-12
-1.35561e-10
3.40777e-12
-1.39222e-10
3.66092e-12
-1.39761e-10
5.37474e-13
3.14369e-12
-1.42905e-10
3.17453e-13
-8.48071e-13
2.63197e-13
1.16317e-13
1.86876e-13
1.88764e-13
1.07242e-13
1.80259e-13
2.60506e-14
1.7117e-13
-5.43381e-14
1.76674e-13
-1.34508e-13
1.78099e-13
-2.14024e-13
1.76174e-13
-2.93125e-13
1.68407e-13
-3.72265e-13
1.59632e-13
-4.50528e-13
1.52991e-13
-5.2894e-13
1.5411e-13
-6.07785e-13
1.61661e-13
-6.87242e-13
1.70966e-13
-7.67964e-13
1.78514e-13
-8.50306e-13
1.82111e-13
-9.34412e-13
1.81611e-13
-1.02042e-12
1.80162e-13
-1.10843e-12
1.81214e-13
-1.19929e-12
1.87947e-13
-1.29291e-12
1.99157e-13
-1.38961e-12
2.13454e-13
-1.49024e-12
2.28382e-13
-1.59496e-12
2.397e-13
-1.70367e-12
2.44804e-13
-1.81716e-12
2.43639e-13
-1.93563e-12
2.36879e-13
-2.05927e-12
2.2752e-13
-2.1889e-12
2.20605e-13
-2.32547e-12
2.2143e-13
-2.47057e-12
2.35182e-13
-2.62558e-12
2.62519e-13
-2.79164e-12
2.99383e-13
-2.96821e-12
3.36141e-13
-3.15428e-12
3.63259e-13
-3.34947e-12
3.76592e-13
-3.55547e-12
3.84759e-13
-3.77704e-12
4.05203e-13
-4.01837e-12
4.49744e-13
-4.27959e-12
5.13953e-13
-4.55943e-12
5.86156e-13
-4.85773e-12
6.55557e-13
-5.17614e-12
7.19023e-13
-5.51804e-12
7.83761e-13
-5.88679e-12
8.61634e-13
-6.28442e-12
9.61076e-13
-6.7091e-12
1.08269e-12
-7.16331e-12
1.21863e-12
-7.64878e-12
1.35819e-12
-8.16682e-12
1.49249e-12
-8.71848e-12
1.61511e-12
-9.30519e-12
1.72558e-12
-9.92833e-12
1.82616e-12
-1.05891e-11
1.92016e-12
-1.12887e-11
2.01133e-12
-1.20286e-11
2.1028e-12
-1.28105e-11
2.19755e-12
-1.36363e-11
2.29865e-12
-1.45085e-11
2.40881e-12
-1.54294e-11
2.53034e-12
-1.64017e-11
2.66439e-12
-1.7428e-11
2.81013e-12
-1.85111e-11
2.96486e-12
-1.96533e-11
3.12401e-12
-2.08572e-11
3.28221e-12
-2.21254e-11
3.43463e-12
-2.34601e-11
3.57828e-12
-2.48638e-11
3.71287e-12
-2.6339e-11
3.84132e-12
-2.78887e-11
3.96913e-12
-2.95162e-11
4.10307e-12
-3.12249e-11
4.24943e-12
-3.30188e-11
4.41221e-12
-3.49015e-11
4.59164e-12
-3.68763e-11
4.78404e-12
-3.89462e-11
4.98304e-12
-4.11139e-11
5.1813e-12
-4.33814e-11
5.37226e-12
-4.57502e-11
5.55207e-12
-4.82215e-11
5.72087e-12
-5.0796e-11
5.88223e-12
-5.34739e-11
6.04169e-12
-5.62548e-11
6.20453e-12
-5.91373e-11
6.37392e-12
-6.21189e-11
6.54963e-12
-6.51954e-11
6.72777e-12
-6.83613e-11
6.90198e-12
-7.16083e-11
7.06416e-12
-7.49253e-11
7.20525e-12
-7.82975e-11
7.31545e-12
-8.17059e-11
7.38383e-12
-8.51273e-11
7.39864e-12
-8.85343e-11
7.34839e-12
-9.18947e-11
7.22381e-12
-9.51702e-11
7.01844e-12
-9.83123e-11
6.73054e-12
-1.01267e-10
6.36158e-12
-1.03747e-10
6.13957e-12
-1.06622e-10
3.41186e-12
4.4888e-12
-1.07969e-10
3.11216e-13
-1.15974e-12
2.3551e-13
1.91167e-13
1.53997e-13
2.69518e-13
7.67325e-14
2.56781e-13
-3.17227e-15
2.50347e-13
-7.75153e-14
2.503e-13
-1.51185e-13
2.51055e-13
-2.24303e-13
2.48574e-13
-2.99158e-13
2.42531e-13
-3.7603e-13
2.35756e-13
-4.53173e-13
2.29369e-13
-5.29804e-13
2.2996e-13
-6.04629e-13
2.35692e-13
-6.7789e-13
2.4342e-13
-7.51308e-13
2.51109e-13
-8.26339e-13
2.56299e-13
-9.04353e-13
2.58754e-13
-9.85749e-13
2.60649e-13
-1.07004e-12
2.64549e-13
-1.15674e-12
2.73632e-13
-1.24481e-12
2.86158e-13
-1.33426e-12
3.01757e-13
-1.42607e-12
3.18975e-13
-1.52122e-12
3.33558e-13
-1.62128e-12
3.43495e-13
-1.72851e-12
3.49431e-13
-1.84419e-12
3.5107e-13
-1.969e-12
3.50779e-13
-2.10338e-12
3.53404e-13
-2.24693e-12
3.63366e-13
-2.39782e-12
3.8445e-13
-2.55506e-12
4.18139e-13
-2.71944e-12
4.62148e-13
-2.89156e-12
5.06677e-13
-3.07301e-12
5.43171e-13
-3.26666e-12
5.68744e-13
-3.47465e-12
5.91314e-13
-3.69818e-12
6.27362e-13
-3.93694e-12
6.87228e-13
-4.18857e-12
7.64402e-13
-4.4517e-12
8.48197e-13
-4.72751e-12
9.30391e-13
-5.01922e-12
1.00986e-12
-5.32963e-12
1.0934e-12
-5.6591e-12
1.19042e-12
-6.00669e-12
1.30807e-12
-6.37008e-12
1.44555e-12
-6.74774e-12
1.5958e-12
-7.14074e-12
1.75075e-12
-7.55192e-12
1.90329e-12
-7.98525e-12
2.04811e-12
-8.44465e-12
2.1847e-12
-8.93351e-12
2.31479e-12
-9.45469e-12
2.44118e-12
-1.00105e-11
2.56701e-12
-1.06028e-11
2.69511e-12
-1.12335e-11
2.8282e-12
-1.19039e-11
2.96911e-12
-1.26155e-11
3.12046e-12
-1.33695e-11
3.28437e-12
-1.41671e-11
3.462e-12
-1.50098e-11
3.6528e-12
-1.58995e-11
3.85454e-12
-1.6839e-11
4.06346e-12
-1.7832e-11
4.27513e-12
-1.88829e-11
4.48546e-12
-1.99966e-11
4.69182e-12
-2.11778e-11
4.89396e-12
-2.24309e-11
5.09438e-12
-2.37599e-11
5.29802e-12
-2.5168e-11
5.51105e-12
-2.66578e-11
5.73915e-12
-2.82315e-11
5.98572e-12
-2.98909e-11
6.25088e-12
-3.16384e-11
6.53142e-12
-3.34772e-11
6.82173e-12
-3.54111e-11
7.11503e-12
-3.74442e-11
7.40514e-12
-3.95805e-11
7.68824e-12
-4.18237e-11
7.96386e-12
-4.4176e-11
8.23442e-12
-4.66383e-11
8.50379e-12
-4.92094e-11
8.77546e-12
-5.18863e-11
9.05058e-12
-5.46641e-11
9.32717e-12
-5.75369e-11
9.60033e-12
-6.04979e-11
9.86264e-12
-6.35387e-11
1.01045e-11
-6.66485e-11
1.03146e-11
-6.98136e-11
1.048e-11
-7.30168e-11
1.05865e-11
-7.62377e-11
1.06189e-11
-7.9452e-11
1.05619e-11
-8.2631e-11
1.04021e-11
-8.57393e-11
1.01258e-11
-8.87258e-11
9.71615e-12
-9.15221e-11
9.15707e-12
-9.39044e-11
8.52102e-12
-9.67803e-11
6.28698e-12
5.68639e-12
-9.79788e-11
2.93713e-13
-1.45391e-12
2.25626e-13
2.58372e-13
1.46575e-13
3.47769e-13
7.14432e-14
3.31118e-13
-5.8722e-15
3.26872e-13
-7.96877e-14
3.23327e-13
-1.53846e-13
3.24419e-13
-2.2728e-13
3.212e-13
-3.01574e-13
3.16e-13
-3.76531e-13
3.09868e-13
-4.51569e-13
3.03543e-13
-5.26662e-13
3.04174e-13
-6.00934e-13
3.09076e-13
-6.74577e-13
3.16167e-13
-7.4888e-13
3.24507e-13
-8.24344e-13
3.30849e-13
-9.02088e-13
3.35566e-13
-9.82476e-13
3.40085e-13
-1.06529e-12
3.46377e-13
-1.15032e-12
3.57657e-13
-1.23711e-12
3.7189e-13
-1.32577e-12
3.89324e-13
-1.41703e-12
4.09099e-13
-1.5114e-12
4.26752e-13
-1.6105e-12
4.41382e-13
-1.71658e-12
4.54257e-13
-1.83132e-12
4.64541e-13
-1.95552e-12
4.73679e-13
-2.08969e-12
4.86278e-13
-2.23323e-12
5.05615e-13
-2.38362e-12
5.33557e-13
-2.53921e-12
5.72464e-13
-2.70103e-12
6.22737e-13
-2.87109e-12
6.75538e-13
-3.05113e-12
7.22061e-13
-3.24401e-12
7.60522e-13
-3.45106e-12
7.97309e-13
-3.67242e-12
8.47738e-13
-3.90799e-12
9.21877e-13
-4.15666e-12
1.01223e-12
-4.41679e-12
1.10756e-12
-4.6892e-12
1.20213e-12
-4.97642e-12
1.29649e-12
-5.28097e-12
1.39744e-12
-5.60371e-12
1.51271e-12
-5.94339e-12
1.64735e-12
-6.29863e-12
1.80043e-12
-6.66831e-12
1.96516e-12
-7.05328e-12
2.13543e-12
-7.45605e-12
2.30577e-12
-7.88007e-12
2.47187e-12
-8.32901e-12
2.6334e-12
-8.80626e-12
2.79183e-12
-9.31463e-12
2.94936e-12
-9.85651e-12
3.10873e-12
-1.04339e-11
3.2724e-12
-1.10486e-11
3.44274e-12
-1.17021e-11
3.62248e-12
-1.23959e-11
3.81409e-12
-1.31313e-11
4.01962e-12
-1.39098e-11
4.24028e-12
-1.4733e-11
4.47581e-12
-1.56032e-11
4.72446e-12
-1.65231e-11
4.9831e-12
-1.74964e-11
5.24807e-12
-1.85272e-11
5.51593e-12
-1.96201e-11
5.78435e-12
-2.07796e-11
6.05314e-12
-2.20102e-11
6.32462e-12
-2.33159e-11
6.60331e-12
-2.47001e-11
6.89486e-12
-2.61657e-11
7.20434e-12
-2.7715e-11
7.53472e-12
-2.93505e-11
7.88598e-12
-3.10747e-11
8.25522e-12
-3.28906e-11
8.63732e-12
-3.48019e-11
9.02597e-12
-3.68124e-11
9.4153e-12
-3.89261e-11
9.80163e-12
-4.11467e-11
1.01841e-11
-4.34767e-11
1.05642e-11
-4.59173e-11
1.0944e-11
-4.84675e-11
1.13254e-11
-5.11247e-11
1.17075e-11
-5.38844e-11
1.20865e-11
-5.67408e-11
1.24564e-11
-5.96872e-11
1.28086e-11
-6.27151e-11
1.3132e-11
-6.5814e-11
1.3413e-11
-6.89707e-11
1.3636e-11
-7.21688e-11
1.37841e-11
-7.53891e-11
1.38384e-11
-7.86077e-11
1.37799e-11
-8.17962e-11
1.35899e-11
-8.49175e-11
1.32464e-11
-8.79215e-11
1.27195e-11
-9.07468e-11
1.19817e-11
-9.32554e-11
1.10289e-11
-9.59738e-11
9.0047e-12
7.03461e-12
-9.73229e-11
2.85803e-13
-1.7402e-12
2.20143e-13
3.23089e-13
1.44946e-13
4.22095e-13
6.98865e-14
4.05303e-13
-6.78199e-15
4.0266e-13
-8.07785e-14
3.96433e-13
-1.54683e-13
3.97418e-13
-2.28143e-13
3.93734e-13
-3.0224e-13
3.89147e-13
-3.76397e-13
3.83053e-13
-4.51229e-13
3.77385e-13
-5.25868e-13
3.77811e-13
-5.99794e-13
3.81993e-13
-6.73423e-13
3.88787e-13
-7.47962e-13
3.98037e-13
-8.23351e-13
4.0523e-13
-9.00903e-13
4.12108e-13
-9.80898e-13
4.19065e-13
-1.0631e-12
4.27556e-13
-1.1474e-12
4.40921e-13
-1.23343e-12
4.56875e-13
-1.32144e-12
4.76276e-13
-1.4122e-12
4.98784e-13
-1.50612e-12
5.196e-13
-1.60476e-12
5.38946e-13
-1.71047e-12
5.58889e-13
-1.82503e-12
5.78035e-13
-1.94955e-12
5.97142e-13
-2.08437e-12
6.20067e-13
-2.22808e-12
6.4833e-13
-2.37775e-12
6.82264e-13
-2.53123e-12
7.25027e-13
-2.68927e-12
7.79907e-13
-2.85641e-12
8.41857e-13
-3.03559e-12
9.00455e-13
-3.22894e-12
9.53138e-13
-3.43688e-12
1.00457e-12
-3.65782e-12
1.06804e-12
-3.89072e-12
1.15421e-12
-4.13555e-12
1.25654e-12
-4.39215e-12
1.3637e-12
-4.66194e-12
1.47152e-12
-4.94709e-12
1.58129e-12
-5.24922e-12
1.69928e-12
-5.56904e-12
1.83228e-12
-5.90548e-12
1.98357e-12
-6.25735e-12
2.15211e-12
-6.62469e-12
2.33231e-12
-7.00848e-12
2.51903e-12
-7.41066e-12
2.70776e-12
-7.83448e-12
2.8955e-12
-8.28314e-12
3.08185e-12
-8.75966e-12
3.26813e-12
-9.26681e-12
3.45628e-12
-9.80683e-12
3.64851e-12
-1.03817e-11
3.84702e-12
-1.09933e-11
4.05406e-12
-1.16432e-11
4.27209e-12
-1.23331e-11
4.50357e-12
-1.30644e-11
4.75055e-12
-1.38388e-11
5.0143e-12
-1.46583e-11
5.29481e-12
-1.55251e-11
5.59074e-12
-1.64421e-11
5.89957e-12
-1.74129e-11
6.21822e-12
-1.84412e-11
6.54369e-12
-1.95314e-11
6.87393e-12
-2.06878e-11
7.20889e-12
-2.19147e-11
7.55089e-12
-2.32162e-11
7.90417e-12
-2.45959e-11
8.27387e-12
-2.60568e-11
8.66454e-12
-2.76015e-11
9.07878e-12
-2.92326e-11
9.51649e-12
-3.09529e-11
9.97495e-12
-3.27654e-11
1.04493e-11
-3.46736e-11
1.09336e-11
-3.66811e-11
1.14224e-11
-3.87922e-11
1.19122e-11
-4.10104e-11
1.24019e-11
-4.33385e-11
1.28919e-11
-4.5778e-11
1.33832e-11
-4.83284e-11
1.38754e-11
-5.0987e-11
1.43657e-11
-5.37499e-11
1.48489e-11
-5.66116e-11
1.53177e-11
-5.95654e-11
1.57619e-11
-6.26029e-11
1.61689e-11
-6.57137e-11
1.65233e-11
-6.88854e-11
1.68073e-11
-7.21031e-11
1.70012e-11
-7.53484e-11
1.70832e-11
-7.85988e-11
1.70297e-11
-8.18252e-11
1.68158e-11
-8.49893e-11
1.641e-11
-8.80464e-11
1.57761e-11
-9.09395e-11
1.48743e-11
-9.35732e-11
1.3662e-11
-9.62226e-11
1.16535e-11
8.5469e-12
-9.77357e-11
2.72709e-13
-2.01343e-12
2.12669e-13
3.82121e-13
1.42098e-13
4.91727e-13
6.77652e-14
4.78683e-13
-7.76632e-15
4.77224e-13
-8.20063e-14
4.69687e-13
-1.55873e-13
4.70276e-13
-2.2949e-13
4.66315e-13
-3.03341e-13
4.61937e-13
-3.76759e-13
4.55385e-13
-4.50944e-13
4.50468e-13
-5.2493e-13
4.50687e-13
-5.98512e-13
4.54465e-13
-6.72177e-13
4.61349e-13
-7.46743e-13
4.71511e-13
-8.21816e-13
4.79222e-13
-8.98857e-13
4.88079e-13
-9.78026e-13
4.97177e-13
-1.05913e-12
5.07611e-13
-1.14242e-12
5.23178e-13
-1.2278e-12
5.41231e-13
-1.31564e-12
5.63104e-13
-1.40681e-12
5.88974e-13
-1.50144e-12
6.13259e-13
-1.6004e-12
6.36974e-13
-1.70586e-12
6.63452e-13
-1.81966e-12
6.90981e-13
-1.94306e-12
7.19731e-13
-2.07679e-12
7.53027e-13
-2.2193e-12
7.90141e-13
-2.36761e-12
8.29927e-13
-2.51952e-12
8.76346e-13
-2.67559e-12
9.35433e-13
-2.84101e-12
1.0068e-12
-3.01951e-12
1.07852e-12
-3.21247e-12
1.14571e-12
-3.41996e-12
1.21171e-12
-3.63981e-12
1.28759e-12
-3.86992e-12
1.38405e-12
-4.11117e-12
1.49756e-12
-4.36461e-12
1.61695e-12
-4.63178e-12
1.73854e-12
-4.91482e-12
1.86421e-12
-5.21457e-12
1.99893e-12
-5.5313e-12
2.14892e-12
-5.86452e-12
2.31672e-12
-6.21367e-12
2.50118e-12
-6.57912e-12
2.69767e-12
-6.96175e-12
2.90155e-12
-7.36344e-12
3.10931e-12
-7.78699e-12
3.31888e-12
-8.23535e-12
3.52999e-12
-8.71125e-12
3.74378e-12
-9.21728e-12
3.96201e-12
-9.75562e-12
4.18651e-12
-1.03283e-11
4.4193e-12
-1.09372e-11
4.66251e-12
-1.1584e-11
4.91839e-12
-1.22704e-11
5.18941e-12
-1.29982e-11
5.47772e-12
-1.37691e-11
5.7846e-12
-1.45853e-11
6.11028e-12
-1.54492e-11
6.45382e-12
-1.63636e-11
6.81317e-12
-1.73318e-11
7.18568e-12
-1.83577e-11
7.56873e-12
-1.94452e-11
7.96055e-12
-2.05985e-11
8.36131e-12
-2.1822e-11
8.77347e-12
-2.31197e-11
9.20104e-12
-2.44954e-11
9.64866e-12
-2.59521e-11
1.01204e-11
-2.74928e-11
1.06186e-11
-2.91202e-11
1.11431e-11
-3.08371e-11
1.1691e-11
-3.26464e-11
1.22579e-11
-3.45516e-11
1.28381e-11
-3.65565e-11
1.34267e-11
-3.86653e-11
1.40205e-11
-4.08819e-11
1.46179e-11
-4.32093e-11
1.52188e-11
-4.56491e-11
1.58225e-11
-4.8201e-11
1.64268e-11
-5.0863e-11
1.70272e-11
-5.36314e-11
1.76169e-11
-5.65011e-11
1.81869e-11
-5.94654e-11
1.87257e-11
-6.2516e-11
1.92191e-11
-6.56433e-11
1.96501e-11
-6.88358e-11
1.99993e-11
-7.20795e-11
2.02445e-11
-7.53572e-11
2.03605e-11
-7.8647e-11
2.03191e-11
-8.19202e-11
2.00885e-11
-8.51413e-11
1.96308e-11
-8.82679e-11
1.89023e-11
-9.12458e-11
1.78517e-11
-9.39993e-11
1.6415e-11
-9.66503e-11
1.4304e-11
1.02043e-11
-9.83085e-11
2.60156e-13
-2.27415e-12
2.06224e-13
4.35001e-13
1.39555e-13
5.57408e-13
6.5769e-14
5.51464e-13
-8.86896e-15
5.50836e-13
-8.30615e-14
5.42829e-13
-1.56818e-13
5.42954e-13
-2.30521e-13
5.38911e-13
-3.04145e-13
5.34425e-13
-3.77106e-13
5.27189e-13
-4.50762e-13
5.22956e-13
-5.24233e-13
5.22987e-13
-5.97546e-13
5.26615e-13
-6.71254e-13
5.33908e-13
-7.4542e-13
5.44549e-13
-8.19966e-13
5.52661e-13
-8.96329e-13
5.6336e-13
-9.74418e-13
5.74209e-13
-1.05415e-12
5.8631e-13
-1.1365e-12
6.04526e-13
-1.22123e-12
6.24997e-13
-1.30899e-12
6.4994e-13
-1.40067e-12
6.79765e-13
-1.49589e-12
7.07646e-13
-1.59528e-12
7.35579e-13
-1.70074e-12
7.68191e-13
-1.8136e-12
8.03181e-13
-1.93509e-12
8.40636e-13
-2.06652e-12
8.83933e-13
-2.20725e-12
9.30422e-13
-2.35431e-12
9.76612e-13
-2.50517e-12
1.02689e-12
-2.66006e-12
1.09008e-12
-2.82397e-12
1.1705e-12
-3.00144e-12
1.25584e-12
-3.19343e-12
1.33759e-12
-3.39973e-12
1.41792e-12
-3.61801e-12
1.50581e-12
-3.84563e-12
1.61164e-12
-4.0833e-12
1.7352e-12
-4.33359e-12
1.86724e-12
-4.59809e-12
2.00305e-12
-4.87864e-12
2.14478e-12
-5.17593e-12
2.29624e-12
-5.48974e-12
2.46276e-12
-5.82e-12
2.64698e-12
-6.16644e-12
2.84761e-12
-6.52946e-12
3.06065e-12
-6.91031e-12
3.28232e-12
-7.31079e-12
3.50966e-12
-7.73342e-12
3.74132e-12
-8.18083e-12
3.97716e-12
-8.65554e-12
4.21818e-12
-9.15992e-12
4.46601e-12
-9.69616e-12
4.7223e-12
-1.02662e-11
4.9888e-12
-1.08719e-11
5.26763e-12
-1.15152e-11
5.561e-12
-1.21979e-11
5.87133e-12
-1.29217e-11
6.20077e-12
-1.36887e-11
6.55075e-12
-1.45011e-11
6.92176e-12
-1.53614e-11
7.31314e-12
-1.62723e-11
7.72316e-12
-1.72371e-11
8.1495e-12
-1.82594e-11
8.58996e-12
-1.9343e-11
9.04316e-12
-2.04923e-11
9.50956e-12
-2.17115e-11
9.99164e-12
-2.30047e-11
1.04932e-11
-2.43758e-11
1.10186e-11
-2.58278e-11
1.15715e-11
-2.7364e-11
1.21538e-11
-2.89869e-11
1.27651e-11
-3.06994e-11
1.34027e-11
-3.25045e-11
1.40622e-11
-3.44057e-11
1.47386e-11
-3.64071e-11
1.54275e-11
-3.85131e-11
1.61259e-11
-4.07278e-11
1.68321e-11
-4.30544e-11
1.75449e-11
-4.54945e-11
1.82621e-11
-4.80483e-11
1.89801e-11
-5.07142e-11
1.96926e-11
-5.34889e-11
2.03911e-11
-5.63675e-11
2.1065e-11
-5.93437e-11
2.17014e-11
-6.24097e-11
2.22847e-11
-6.55568e-11
2.27967e-11
-6.87743e-11
2.32164e-11
-7.20492e-11
2.35191e-11
-7.53649e-11
2.3676e-11
-7.87005e-11
2.36545e-11
-8.20293e-11
2.34171e-11
-8.53188e-11
2.292e-11
-8.85291e-11
2.21123e-11
-9.16087e-11
2.09311e-11
-9.44878e-11
1.92937e-11
-9.71981e-11
1.70138e-11
1.19978e-11
-9.89922e-11
2.52789e-13
-2.52752e-12
2.02566e-13
4.84161e-13
1.37975e-13
6.21e-13
6.4951e-14
6.23469e-13
-9.53467e-15
6.2428e-13
-8.36706e-14
6.15897e-13
-1.57568e-13
6.15754e-13
-2.31481e-13
6.11699e-13
-3.0491e-13
6.06705e-13
-3.77569e-13
5.98683e-13
-4.50739e-13
5.94955e-13
-5.23727e-13
5.94808e-13
-5.96741e-13
5.98477e-13
-6.70217e-13
6.06255e-13
-7.43688e-13
6.16918e-13
-8.17462e-13
6.25365e-13
-8.92976e-13
6.37835e-13
-9.69734e-13
6.49964e-13
-1.04826e-12
6.63875e-13
-1.13006e-12
6.85395e-13
-1.2144e-12
7.08459e-13
-1.302e-12
7.36719e-13
-1.3934e-12
7.70403e-13
-1.48851e-12
8.02048e-13
-1.58855e-12
8.34988e-13
-1.69456e-12
8.73643e-13
-1.80668e-12
9.14819e-13
-1.92563e-12
9.5918e-13
-2.0535e-12
1.01147e-12
-2.19138e-12
1.06805e-12
-2.3374e-12
1.12245e-12
-2.48811e-12
1.17749e-12
-2.6427e-12
1.24461e-12
-2.80516e-12
1.33295e-12
-2.98115e-12
1.43186e-12
-3.17163e-12
1.52812e-12
-3.3761e-12
1.62248e-12
-3.59224e-12
1.72204e-12
-3.81731e-12
1.8368e-12
-4.05196e-12
1.96995e-12
-4.29921e-12
2.11459e-12
-4.56114e-12
2.26506e-12
-4.83915e-12
2.42287e-12
-5.13365e-12
2.59079e-12
-5.44451e-12
2.77365e-12
-5.7717e-12
2.97418e-12
-6.11511e-12
3.19099e-12
-6.47548e-12
3.42096e-12
-6.85413e-12
3.66087e-12
-7.25284e-12
3.90821e-12
-7.67388e-12
4.16213e-12
-8.11966e-12
4.42264e-12
-8.59247e-12
4.6906e-12
-9.09459e-12
4.96766e-12
-9.62813e-12
5.25527e-12
-1.0195e-11
5.55506e-12
-1.07972e-11
5.86909e-12
-1.14366e-11
6.19961e-12
-1.21152e-11
6.54898e-12
-1.28347e-11
6.9194e-12
-1.35974e-11
7.31244e-12
-1.44054e-11
7.7288e-12
-1.52613e-11
8.16805e-12
-1.61679e-11
8.62871e-12
-1.71282e-11
9.10877e-12
-1.81458e-11
9.60643e-12
-1.92245e-11
1.01208e-11
-2.03687e-11
1.06527e-11
-2.15826e-11
1.12045e-11
-2.28705e-11
1.178e-11
-2.42361e-11
1.23832e-11
-2.56827e-11
1.30171e-11
-2.72134e-11
1.36835e-11
-2.8831e-11
1.43817e-11
-3.05382e-11
1.5109e-11
-3.23381e-11
1.58613e-11
-3.42344e-11
1.66342e-11
-3.62315e-11
1.7424e-11
-3.83341e-11
1.82279e-11
-4.05465e-11
1.90439e-11
-4.2872e-11
1.98698e-11
-4.53125e-11
2.07022e-11
-4.78685e-11
2.15356e-11
-5.05387e-11
2.23622e-11
-5.33201e-11
2.31721e-11
-5.62084e-11
2.39529e-11
-5.91978e-11
2.46903e-11
-6.22813e-11
2.53678e-11
-6.54509e-11
2.5966e-11
-6.8697e-11
2.64622e-11
-7.20073e-11
2.68291e-11
-7.53662e-11
2.70348e-11
-7.87545e-11
2.70426e-11
-8.21481e-11
2.68106e-11
-8.55176e-11
2.62894e-11
-8.88252e-11
2.54197e-11
-9.20211e-11
2.41268e-11
-9.50397e-11
2.23121e-11
-9.78656e-11
1.98393e-11
1.39431e-11
-9.98116e-11
2.52272e-13
-2.78039e-12
2.03447e-13
5.31954e-13
1.38913e-13
6.84566e-13
6.63719e-14
6.95025e-13
-8.69142e-15
6.98338e-13
-8.36297e-14
6.89806e-13
-1.58155e-13
6.89225e-13
-2.32403e-13
6.8487e-13
-3.05519e-13
6.78725e-13
-3.78067e-13
6.70127e-13
-4.50803e-13
6.66589e-13
-5.2335e-13
6.66266e-13
-5.95997e-13
6.70057e-13
-6.68875e-13
6.78095e-13
-7.41567e-13
6.88604e-13
-8.14398e-13
6.97224e-13
-8.88947e-13
7.11451e-13
-9.64229e-13
7.24351e-13
-1.04172e-12
7.40512e-13
-1.12265e-12
7.65516e-13
-1.20607e-12
7.91123e-13
-1.29304e-12
8.2299e-13
-1.38472e-12
8.61444e-13
-1.48062e-12
8.97377e-13
-1.58104e-12
9.34905e-13
-1.68706e-12
9.79235e-13
-1.7982e-12
1.02561e-12
-1.91445e-12
1.07515e-12
-2.03813e-12
1.13495e-12
-2.17227e-12
1.20205e-12
-2.31639e-12
1.2665e-12
-2.468e-12
1.32907e-12
-2.62321e-12
1.39985e-12
-2.78471e-12
1.49452e-12
-2.95881e-12
1.60606e-12
-3.14711e-12
1.71654e-12
-3.34901e-12
1.8245e-12
-3.56261e-12
1.93576e-12
-3.78496e-12
2.05927e-12
-4.0169e-12
2.20198e-12
-4.26143e-12
2.35919e-12
-4.52074e-12
2.52442e-12
-4.79593e-12
2.69809e-12
-5.08754e-12
2.88239e-12
-5.39544e-12
3.08153e-12
-5.71933e-12
3.298e-12
-6.05966e-12
3.53122e-12
-6.41722e-12
3.77839e-12
-6.79327e-12
4.03674e-12
-7.18964e-12
4.30435e-12
-7.60838e-12
4.58056e-12
-8.05173e-12
4.86561e-12
-8.52197e-12
5.16038e-12
-9.02118e-12
5.46631e-12
-9.55143e-12
5.78488e-12
-1.01147e-11
6.11765e-12
-1.0713e-11
6.46656e-12
-1.13482e-11
6.83389e-12
-1.20222e-11
7.22206e-12
-1.2737e-11
7.63331e-12
-1.34949e-11
8.06931e-12
-1.4298e-11
8.53089e-12
-1.51488e-11
9.01786e-12
-1.60501e-11
9.52905e-12
-1.70051e-11
1.00627e-11
-1.8017e-11
1.06173e-11
-1.90897e-11
1.11926e-11
-2.02277e-11
1.17897e-11
-2.14354e-11
1.24112e-11
-2.2717e-11
1.30606e-11
-2.40763e-11
1.37415e-11
-2.55167e-11
1.44566e-11
-2.70411e-11
1.52071e-11
-2.86523e-11
1.59922e-11
-3.03531e-11
1.68091e-11
-3.21468e-11
1.76544e-11
-3.40373e-11
1.85242e-11
-3.60294e-11
1.94156e-11
-3.8128e-11
2.0326e-11
-4.03377e-11
2.12531e-11
-4.2662e-11
2.21937e-11
-4.5103e-11
2.31428e-11
-4.76613e-11
2.40935e-11
-5.03358e-11
2.50364e-11
-5.31243e-11
2.59601e-11
-5.60227e-11
2.6851e-11
-5.90262e-11
2.76935e-11
-6.21289e-11
2.84702e-11
-6.53238e-11
2.91607e-11
-6.86019e-11
2.97402e-11
-7.1952e-11
3.01791e-11
-7.53598e-11
3.04426e-11
-7.88082e-11
3.0491e-11
-8.22756e-11
3.0278e-11
-8.57347e-11
2.97485e-11
-8.91497e-11
2.88346e-11
-9.24744e-11
2.74512e-11
-9.56528e-11
2.54903e-11
-9.86515e-11
2.28377e-11
1.60835e-11
-1.00792e-10
2.5917e-13
-3.04013e-12
2.08345e-13
5.81819e-13
1.4116e-13
7.50857e-13
6.7677e-14
7.67606e-13
-7.23584e-15
7.72334e-13
-8.34655e-14
7.65101e-13
-1.58869e-13
7.63676e-13
-2.33464e-13
7.58497e-13
-3.06074e-13
7.50359e-13
-3.78749e-13
7.41827e-13
-4.51036e-13
7.3791e-13
-5.23149e-13
7.37435e-13
-5.95295e-13
7.41287e-13
-6.67273e-13
7.49189e-13
-7.39121e-13
7.59602e-13
-8.10917e-13
7.68206e-13
-8.84468e-13
7.84223e-13
-9.58473e-13
7.97613e-13
-1.0349e-12
8.16238e-13
-1.11483e-12
8.44781e-13
-1.19716e-12
8.72837e-13
-1.28327e-12
9.08535e-13
-1.37482e-12
9.52482e-13
-1.47108e-12
9.93183e-13
-1.57142e-12
1.03485e-12
-1.67713e-12
1.08462e-12
-1.78748e-12
1.13569e-12
-1.90147e-12
1.18892e-12
-2.02126e-12
1.25458e-12
-2.15192e-12
1.33259e-12
-2.29372e-12
1.40823e-12
-2.4451e-12
1.48043e-12
-2.6015e-12
1.55626e-12
-2.76291e-12
1.65596e-12
-2.93435e-12
1.77754e-12
-3.11986e-12
1.90211e-12
-3.31841e-12
2.02309e-12
-3.52882e-12
2.14621e-12
-3.74856e-12
2.27903e-12
-3.97785e-12
2.43127e-12
-4.21956e-12
2.60087e-12
-4.47618e-12
2.78097e-12
-4.74858e-12
2.97038e-12
-5.03722e-12
3.1709e-12
-5.34185e-12
3.38598e-12
-5.66241e-12
3.61836e-12
-5.9994e-12
3.86799e-12
-6.35375e-12
4.13247e-12
-6.72682e-12
4.40951e-12
-7.12038e-12
4.69756e-12
-7.53634e-12
4.99614e-12
-7.97683e-12
5.30564e-12
-8.44398e-12
5.627e-12
-8.93981e-12
5.96153e-12
-9.46633e-12
6.31072e-12
-1.00255e-11
6.6761e-12
-1.06194e-11
7.05958e-12
-1.12498e-11
7.46345e-12
-1.19188e-11
7.89019e-12
-1.26285e-11
8.34208e-12
-1.3381e-11
8.82086e-12
-1.41784e-11
9.32747e-12
-1.50234e-11
9.86194e-12
-1.59186e-11
1.04234e-11
-1.68671e-11
1.10104e-11
-1.78724e-11
1.16217e-11
-1.89383e-11
1.22576e-11
-2.00693e-11
1.29199e-11
-2.12699e-11
1.3611e-11
-2.25443e-11
1.43343e-11
-2.38965e-11
1.50929e-11
-2.53296e-11
1.58892e-11
-2.68467e-11
1.67236e-11
-2.84505e-11
1.75954e-11
-3.01438e-11
1.85019e-11
-3.19302e-11
1.94403e-11
-3.38141e-11
2.04077e-11
-3.58006e-11
2.14017e-11
-3.78948e-11
2.242e-11
-4.01015e-11
2.34596e-11
-4.24243e-11
2.45162e-11
-4.48655e-11
2.55836e-11
-4.74256e-11
2.66534e-11
-5.01043e-11
2.77148e-11
-5.28995e-11
2.87551e-11
-5.58085e-11
2.97597e-11
-5.88273e-11
3.07122e-11
-6.19511e-11
3.15939e-11
-6.51739e-11
3.23833e-11
-6.84876e-11
3.30539e-11
-7.18821e-11
3.35735e-11
-7.53447e-11
3.39052e-11
-7.88598e-11
3.40061e-11
-8.24078e-11
3.3826e-11
-8.59632e-11
3.33038e-11
-8.94934e-11
3.23647e-11
-9.29587e-11
3.09164e-11
-9.63179e-11
2.88493e-11
-9.95379e-11
2.60573e-11
1.8465e-11
-1.0192e-10
2.70194e-13
-3.31086e-12
2.15744e-13
6.3542e-13
1.44831e-13
8.2099e-13
6.98671e-14
8.4179e-13
-5.42801e-15
8.46843e-13
-8.29683e-14
8.41847e-13
-1.59154e-13
8.39059e-13
-2.33836e-13
8.3237e-13
-3.06142e-13
8.2186e-13
-3.78882e-13
8.13772e-13
-4.50716e-13
8.08968e-13
-5.22491e-13
8.08461e-13
-5.94032e-13
8.12111e-13
-6.65212e-13
8.19685e-13
-7.36316e-13
8.30055e-13
-8.07358e-13
8.38628e-13
-8.80414e-13
8.56687e-13
-9.53835e-13
8.70471e-13
-1.02946e-12
8.91334e-13
-1.10806e-12
9.2287e-13
-1.18871e-12
9.53022e-13
-1.27333e-12
9.92721e-13
-1.36372e-12
1.04247e-12
-1.4591e-12
1.0882e-12
-1.55887e-12
1.13431e-12
-1.66425e-12
1.18972e-12
-1.77419e-12
1.24538e-12
-1.88678e-12
1.3013e-12
-2.00351e-12
1.37113e-12
-2.13077e-12
1.45969e-12
-2.27023e-12
1.54756e-12
-2.42037e-12
1.63044e-12
-2.57757e-12
1.71335e-12
-2.73935e-12
1.81764e-12
-2.9078e-12
1.9459e-12
-3.08979e-12
2.08399e-12
-3.28453e-12
2.21772e-12
-3.4912e-12
2.35275e-12
-3.70829e-12
2.49597e-12
-3.93515e-12
2.65795e-12
-4.17441e-12
2.8399e-12
-4.42836e-12
3.03467e-12
-4.69776e-12
3.23948e-12
-4.98298e-12
3.45578e-12
-5.28407e-12
3.68672e-12
-5.60109e-12
3.935e-12
-5.93449e-12
4.20099e-12
-6.28532e-12
4.48289e-12
-6.65504e-12
4.7788e-12
-7.04534e-12
5.08742e-12
-7.45809e-12
5.40841e-12
-7.89527e-12
5.74229e-12
-8.35888e-12
6.09003e-12
-8.85085e-12
6.45288e-12
-9.37311e-12
6.8323e-12
-9.92767e-12
7.22994e-12
-1.05166e-11
7.64773e-12
-1.11418e-11
8.08794e-12
-1.18054e-11
8.55301e-12
-1.25094e-11
9.04527e-12
-1.32558e-11
9.56656e-12
-1.4047e-11
1.0118e-11
-1.48855e-11
1.06997e-11
-1.57737e-11
1.1311e-11
-1.67149e-11
1.19509e-11
-1.77125e-11
1.26188e-11
-1.87708e-11
1.33153e-11
-1.98939e-11
1.40425e-11
-2.10865e-11
1.48031e-11
-2.23528e-11
1.56002e-11
-2.36967e-11
1.64364e-11
-2.51215e-11
1.73136e-11
-2.663e-11
1.82319e-11
-2.82251e-11
1.91902e-11
-2.99098e-11
2.01864e-11
-3.16881e-11
2.12184e-11
-3.35647e-11
2.22842e-11
-3.55451e-11
2.33819e-11
-3.76346e-11
2.45093e-11
-3.98379e-11
2.56627e-11
-4.21587e-11
2.68368e-11
-4.45992e-11
2.8024e-11
-4.71607e-11
2.92147e-11
-4.9843e-11
3.03969e-11
-5.26451e-11
3.1557e-11
-5.55653e-11
3.26798e-11
-5.86007e-11
3.37475e-11
-6.17473e-11
3.47405e-11
-6.50002e-11
3.56361e-11
-6.83526e-11
3.64063e-11
-7.17956e-11
3.70165e-11
-7.53176e-11
3.74271e-11
-7.89043e-11
3.75928e-11
-8.25377e-11
3.74593e-11
-8.61947e-11
3.69607e-11
-8.98474e-11
3.60172e-11
-9.34645e-11
3.45332e-11
-9.70204e-11
3.24049e-11
-1.0049e-10
2.95263e-11
2.11144e-11
-1.0314e-10
2.82922e-13
-3.59424e-12
2.24183e-13
6.93443e-13
1.49136e-13
8.95393e-13
7.20941e-14
9.18199e-13
-4.70319e-15
9.23011e-13
-8.34542e-14
9.1997e-13
-1.60786e-13
9.15766e-13
-2.35608e-13
9.06572e-13
-3.08389e-13
8.94034e-13
-3.80943e-13
8.85739e-13
-4.51934e-13
8.794e-13
-5.22993e-13
8.78992e-13
-5.93238e-13
8.8186e-13
-6.63196e-13
8.89179e-13
-7.32771e-13
8.99193e-13
-8.02259e-13
9.07702e-13
-8.73894e-13
9.27928e-13
-9.45527e-13
9.41725e-13
-1.02028e-12
9.65722e-13
-1.09888e-12
1.00111e-12
-1.17906e-12
1.03287e-12
-1.26289e-12
1.07623e-12
-1.35195e-12
1.13123e-12
-1.44568e-12
1.18165e-12
-1.54455e-12
1.23291e-12
-1.64945e-12
1.29435e-12
-1.75886e-12
1.35454e-12
-1.87053e-12
1.41272e-12
-1.98576e-12
1.4861e-12
-2.10957e-12
1.58324e-12
-2.24677e-12
1.68449e-12
-2.39464e-12
1.77804e-12
-2.55112e-12
1.86955e-12
-2.71203e-12
1.97826e-12
-2.87871e-12
2.11229e-12
-3.05709e-12
2.26206e-12
-3.24817e-12
2.40849e-12
-3.45133e-12
2.55557e-12
-3.66572e-12
2.70999e-12
-3.89027e-12
2.88209e-12
-4.12684e-12
3.07604e-12
-4.37764e-12
3.28501e-12
-4.64367e-12
3.50499e-12
-4.92533e-12
3.73692e-12
-5.22277e-12
3.9836e-12
-5.536e-12
4.24766e-12
-5.86561e-12
4.53004e-12
-6.21273e-12
4.82945e-12
-6.57877e-12
5.14428e-12
-6.96543e-12
5.47353e-12
-7.37448e-12
5.81691e-12
-7.8078e-12
6.17505e-12
-8.26732e-12
6.54896e-12
-8.75486e-12
6.93981e-12
-9.27232e-12
7.34911e-12
-9.82172e-12
7.77869e-12
-1.04052e-11
8.23051e-12
-1.10247e-11
8.70679e-12
-1.16822e-11
9.20995e-12
-1.23798e-11
9.74231e-12
-1.31196e-11
1.03059e-11
-1.39039e-11
1.09018e-11
-1.4735e-11
1.15304e-11
-1.56156e-11
1.21913e-11
-1.65488e-11
1.28838e-11
-1.75381e-11
1.36078e-11
-1.85877e-11
1.43647e-11
-1.97021e-11
1.51567e-11
-2.08857e-11
1.59866e-11
-2.21428e-11
1.68572e-11
-2.34772e-11
1.77708e-11
-2.48924e-11
1.87287e-11
-2.63911e-11
1.97306e-11
-2.79762e-11
2.07753e-11
-2.96513e-11
2.18615e-11
-3.14205e-11
2.29877e-11
-3.32891e-11
2.41528e-11