/*--------------------------------*- C++ -*----------------------------------*\
| =========                 |                                                 |
| \\      /  F ield         | OpenFOAM: The Open Source CFD Toolbox           |
|  \\    /   O peration     | Version:  2.4.0                                 |
|   \\  /    A nd           | Web:      www.OpenFOAM.org                      |
|    \\/     M anipulation  |                                                 |
\*---------------------------------------------------------------------------*/
FoamFile
{
    version     2.0;
    format      ascii;
    class       surfaceScalarField;
    location    "0.007";
    object      phiAlpha;
}
// * * * * * * * * * * * * * * * * * * * * * * * * * * * * * * * * * * * * * //

dimensions      [0 3 -1 0 0 0 0];

internalField   nonuniform List<scalar> 
119500
(
5.3672e-13
-5.3672e-13
4.72136e-13
6.42682e-14
3.57173e-13
1.1469e-13
2.54678e-13
1.02237e-13
1.62798e-13
9.16427e-14
6.45221e-14
9.80599e-14
-3.53952e-14
9.97201e-14
-1.34016e-13
9.84376e-14
-2.252e-13
9.10119e-14
-3.07464e-13
8.20987e-14
-3.83905e-13
7.62815e-14
-4.61332e-13
7.72744e-14
-5.45974e-13
8.44955e-14
-6.39443e-13
9.33261e-14
-7.3931e-13
9.97255e-14
-8.41225e-13
1.0177e-13
-9.40914e-13
9.95374e-14
-1.03729e-12
9.62084e-14
-1.13279e-12
9.53233e-14
-1.23232e-12
9.93259e-14
-1.34052e-12
1.07976e-13
-1.46021e-12
1.19431e-13
-1.59119e-12
1.30684e-13
-1.72965e-12
1.38119e-13
-1.86939e-12
1.39364e-13
-2.00327e-12
1.33446e-13
-2.1254e-12
1.21639e-13
-2.23291e-12
1.0698e-13
-2.32745e-12
9.39634e-14
-2.41585e-12
8.77968e-14
-2.50958e-12
9.31082e-14
-2.62099e-12
1.10782e-13
-2.75855e-12
1.3694e-13
-2.92265e-12
1.63504e-13
-3.10452e-12
1.81296e-13
-3.29055e-12
1.85473e-13
-3.47373e-12
1.82673e-13
-3.66172e-12
1.875e-13
-3.87462e-12
2.12457e-13
-4.13225e-12
2.57206e-13
-4.44395e-12
3.11328e-13
-4.80704e-12
3.62748e-13
-5.21381e-12
4.06469e-13
-5.66211e-12
4.48045e-13
-6.16182e-12
4.99514e-13
-6.73282e-12
5.70854e-13
-7.39956e-12
6.66647e-13
-8.17387e-12
7.74268e-13
-9.05775e-12
8.83878e-13
-1.00445e-11
9.8681e-13
-1.11213e-11
1.07685e-12
-1.22743e-11
1.15312e-12
-1.34921e-11
1.21794e-12
-1.47668e-11
1.2749e-12
-1.60943e-11
1.32768e-12
-1.74735e-11
1.37932e-12
-1.89059e-11
1.43263e-12
-2.03959e-11
1.4903e-12
-2.19505e-11
1.55485e-12
-2.35787e-11
1.62847e-12
-2.52905e-11
1.71212e-12
-2.70951e-11
1.8049e-12
-2.8999e-11
1.90414e-12
-3.1004e-11
2.00532e-12
-3.31067e-11
2.10294e-12
-3.52987e-11
2.19221e-12
-3.75686e-11
2.27015e-12
-3.9905e-11
2.33645e-12
-4.22988e-11
2.39392e-12
-4.47465e-11
2.44784e-12
-4.72512e-11
2.50466e-12
-4.98215e-11
2.57036e-12
-5.24705e-11
2.64891e-12
-5.52112e-11
2.74068e-12
-5.80535e-11
2.84219e-12
-6.10009e-11
2.94731e-12
-6.40501e-11
3.0491e-12
-6.71916e-11
3.14141e-12
-7.04127e-11
3.2209e-12
-7.3701e-11
3.28812e-12
-7.70483e-11
3.34707e-12
-8.04523e-11
3.40385e-12
-8.39171e-11
3.46454e-12
-8.74507e-11
3.53329e-12
-9.10621e-11
3.61111e-12
-9.47578e-11
3.69547e-12
-9.85397e-11
3.7817e-12
-1.02404e-10
3.86394e-12
-1.0634e-10
3.93611e-12
-1.10333e-10
3.99201e-12
-1.14357e-10
4.02464e-12
-1.18384e-10
4.02641e-12
-1.22374e-10
3.98993e-12
-1.26285e-10
3.9105e-12
-1.30073e-10
3.78806e-12
-1.33704e-10
3.6308e-12
-1.37151e-10
3.44683e-12
-1.40831e-10
3.6794e-12
-1.41386e-10
5.54955e-13
3.19825e-12
-1.44585e-10
3.164e-13
-8.5344e-13
2.62158e-13
1.17981e-13
1.86477e-13
1.89913e-13
1.07113e-13
1.81178e-13
2.61926e-14
1.72175e-13
-5.39339e-14
1.77829e-13
-1.33837e-13
1.79289e-13
-2.13094e-13
1.77378e-13
-2.91961e-13
1.69575e-13
-3.70897e-13
1.6074e-13
-4.48961e-13
1.5406e-13
-5.27153e-13
1.55188e-13
-6.05741e-13
1.6281e-13
-6.84904e-13
1.72214e-13
-7.65312e-13
1.79853e-13
-8.47349e-13
1.83511e-13
-9.31176e-13
1.83044e-13
-1.01693e-12
1.81613e-13
-1.10469e-12
1.82693e-13
-1.19528e-12
1.89484e-13
-1.28859e-12
2.00791e-13
-1.38493e-12
2.15214e-13
-1.48515e-12
2.30272e-13
-1.58943e-12
2.41693e-13
-1.69772e-12
2.46852e-13
-1.81084e-12
2.45684e-13
-1.92902e-12
2.38863e-13
-2.05247e-12
2.29405e-13
-2.18199e-12
2.22407e-13
-2.31851e-12
2.23225e-13
-2.46359e-12
2.37084e-13
-2.61855e-12
2.64659e-13
-2.78452e-12
3.0185e-13
-2.96093e-12
3.38907e-13
-3.14676e-12
3.66172e-13
-3.34168e-12
3.79494e-13
-3.54747e-12
3.87617e-13
-3.76889e-12
4.0814e-13
-4.01012e-12
4.5296e-13
-4.27118e-12
5.17613e-13
-4.55072e-12
5.90292e-13
-4.84857e-12
6.60094e-13
-5.16641e-12
7.23888e-13
-5.50766e-12
7.88972e-13
-5.87569e-12
8.67314e-13
-6.2724e-12
9.67424e-13
-6.69578e-12
1.08998e-12
-7.14838e-12
1.22689e-12
-7.63185e-12
1.36745e-12
-8.14755e-12
1.50267e-12
-8.6966e-12
1.62612e-12
-9.28053e-12
1.73731e-12
-9.90079e-12
1.8385e-12
-1.05586e-11
1.93306e-12
-1.12553e-11
2.02475e-12
-1.19923e-11
2.11673e-12
-1.27712e-11
2.21202e-12
-1.35941e-11
2.31369e-12
-1.44633e-11
2.42451e-12
-1.53811e-11
2.54679e-12
-1.63501e-11
2.68169e-12
-1.73731e-11
2.82838e-12
-1.84526e-11
2.9841e-12
-1.95911e-11
3.14426e-12
-2.07913e-11
3.30346e-12
-2.20556e-11
3.45681e-12
-2.33865e-11
3.60129e-12
-2.47865e-11
3.73665e-12
-2.62583e-11
3.86581e-12
-2.78048e-11
3.99434e-12
-2.94292e-11
4.12906e-12
-3.11352e-11
4.27633e-12
-3.29266e-11
4.44017e-12
-3.48069e-11
4.62081e-12
-3.67794e-11
4.81456e-12
-3.88473e-11
5.015e-12
-4.10133e-11
5.21473e-12
-4.32793e-11
5.40714e-12
-4.56471e-11
5.58836e-12
-4.81179e-11
5.75852e-12
-5.06925e-11
5.92123e-12
-5.33712e-11
6.08207e-12
-5.61535e-11
6.24639e-12
-5.9038e-11
6.41734e-12
-6.20221e-11
6.59471e-12
-6.51016e-11
6.77456e-12
-6.82708e-11
6.95046e-12
-7.15215e-11
7.11422e-12
-7.48425e-11
7.25666e-12
-7.82187e-11
7.36783e-12
-8.16312e-11
7.43669e-12
-8.50566e-11
7.45135e-12
-8.84673e-11
7.40018e-12
-9.1831e-11
7.27382e-12
-9.51092e-11
7.06577e-12
-9.82531e-11
6.77417e-12
-1.01207e-10
6.40074e-12
-1.03687e-10
6.15796e-12
-1.06573e-10
3.44085e-12
4.53065e-12
-1.07906e-10
3.11588e-13
-1.1653e-12
2.35508e-13
1.93613e-13
1.54248e-13
2.70788e-13
7.70893e-14
2.57976e-13
-2.64341e-15
2.51573e-13
-7.67498e-14
2.51621e-13
-1.50179e-13
2.52418e-13
-2.23058e-13
2.49964e-13
-2.97687e-13
2.43916e-13
-3.74345e-13
2.37114e-13
-4.51273e-13
2.30706e-13
-5.27669e-13
2.31305e-13
-6.02233e-13
2.37096e-13
-6.75211e-13
2.44913e-13
-7.48339e-13
2.52694e-13
-8.23091e-13
2.57965e-13
-9.00844e-13
2.6048e-13
-9.81993e-13
2.62423e-13
-1.06604e-12
2.66371e-13
-1.15247e-12
2.75519e-13
-1.24026e-12
2.88136e-13
-1.32938e-12
3.03848e-13
-1.42083e-12
3.21187e-13
-1.51561e-12
3.35873e-13
-1.6153e-12
3.4588e-13
-1.72218e-12
3.51843e-13
-1.83756e-12
3.53469e-13
-1.96211e-12
3.53133e-13
-2.09628e-12
3.55727e-13
-2.23964e-12
3.65716e-13
-2.39033e-12
3.86909e-13
-2.54733e-12
4.20818e-13
-2.71142e-12
4.65126e-13
-2.88323e-12
5.09938e-13
-3.06437e-12
5.46573e-13
-3.25769e-12
5.7213e-13
-3.46537e-12
5.94663e-13
-3.68861e-12
6.30792e-13
-3.9271e-12
6.90908e-13
-4.17844e-12
7.68467e-13
-4.44123e-12
8.5266e-13
-4.71666e-12
9.35172e-13
-5.00794e-12
1.0149e-12
-5.31789e-12
1.09872e-12
-5.64687e-12
1.19617e-12
-5.99392e-12
1.31442e-12
-6.35663e-12
1.45271e-12
-6.73348e-12
1.60383e-12
-7.12553e-12
1.75964e-12
-7.53565e-12
1.91297e-12
-7.96783e-12
2.05852e-12
-8.42602e-12
2.19574e-12
-8.91364e-12
2.32639e-12
-9.43358e-12
2.4533e-12
-9.98811e-12
2.57961e-12
-1.05792e-11
2.7082e-12
-1.12087e-11
2.84181e-12
-1.18779e-11
2.98329e-12
-1.25883e-11
3.13528e-12
-1.3341e-11
3.29992e-12
-1.41373e-11
3.47837e-12
-1.49786e-11
3.67007e-12
-1.58669e-11
3.87276e-12
-1.6805e-11
4.08265e-12
-1.77966e-11
4.29528e-12
-1.88461e-11
4.50652e-12
-1.99584e-11
4.71372e-12
-2.11383e-11
4.91666e-12
-2.23904e-11
5.11786e-12
-2.37184e-11
5.32231e-12
-2.51256e-11
5.53624e-12
-2.66148e-11
5.76537e-12
-2.81879e-11
6.01312e-12
-2.98469e-11
6.27964e-12
-3.15942e-11
6.56169e-12
-3.3433e-11
6.85361e-12
-3.53671e-11
7.14859e-12
-3.74007e-11
7.4404e-12
-3.95379e-11
7.72522e-12
-4.17823e-11
8.00257e-12
-4.41363e-11
8.2749e-12
-4.66007e-11
8.54612e-12
-4.91744e-11
8.81973e-12
-5.18544e-11
9.09691e-12
-5.46357e-11
9.37564e-12
-5.75124e-11
9.65098e-12
-6.04778e-11
9.91542e-12
-6.35231e-11
1.01593e-11
-6.66378e-11
1.0371e-11
-6.98079e-11
1.05375e-11
-7.30162e-11
1.06446e-11
-7.62421e-11
1.06768e-11
-7.9461e-11
1.06187e-11
-8.26443e-11
1.04567e-11
-8.57561e-11
1.01772e-11
-8.87452e-11
9.76285e-12
-9.15425e-11
9.19764e-12
-9.39294e-11
8.54442e-12
-9.68084e-11
6.31952e-12
5.7227e-12
-9.80007e-11
2.94303e-13
-1.45985e-12
2.25848e-13
2.61665e-13
1.46958e-13
3.49326e-13
7.19782e-14
3.32625e-13
-5.19861e-15
3.28434e-13
-7.88175e-14
3.24934e-13
-1.52783e-13
3.26081e-13
-2.26014e-13
3.22892e-13
-3.00097e-13
3.17691e-13
-3.74829e-13
3.11534e-13
-4.49629e-13
3.05192e-13
-5.24478e-13
3.05838e-13
-5.98504e-13
3.10803e-13
-6.71903e-13
3.17989e-13
-7.45963e-13
3.26426e-13
-8.21192e-13
3.32855e-13
-8.98703e-13
3.37641e-13
-9.78858e-13
3.42213e-13
-1.06142e-12
3.48554e-13
-1.14621e-12
3.599e-13
-1.23272e-12
3.74216e-13
-1.32108e-12
3.9175e-13
-1.41202e-12
4.11637e-13
-1.50606e-12
4.29382e-13
-1.60482e-12
4.44073e-13
-1.71057e-12
4.56985e-13
-1.82502e-12
4.67275e-13
-1.94896e-12
4.76392e-13
-2.0829e-12
4.88981e-13
-2.22622e-12
5.08344e-13
-2.37636e-12
5.36376e-13
-2.53167e-12
5.75468e-13
-2.69319e-12
6.26014e-13
-2.86293e-12
6.79087e-13
-3.04267e-12
7.25752e-13
-3.23524e-12
7.64191e-13
-3.44198e-12
8.0093e-13
-3.66306e-12
8.51438e-13
-3.89835e-12
9.25818e-13
-4.14675e-12
1.01654e-12
-4.40659e-12
1.11222e-12
-4.67869e-12
1.20705e-12
-4.96557e-12
1.30163e-12
-5.26976e-12
1.40283e-12
-5.59212e-12
1.51851e-12
-5.93141e-12
1.65377e-12
-6.2862e-12
1.8076e-12
-6.65537e-12
1.97316e-12
-7.0398e-12
2.14426e-12
-7.44196e-12
2.31535e-12
-7.86534e-12
2.48214e-12
-8.31361e-12
2.64428e-12
-8.79019e-12
2.80324e-12
-9.29789e-12
2.96128e-12
-9.83913e-12
3.12113e-12
-1.04159e-11
3.28529e-12
-1.103e-11
3.45616e-12
-1.16828e-11
3.63647e-12
-1.2376e-11
3.82874e-12
-1.31108e-11
4.03501e-12
-1.38887e-11
4.2565e-12
-1.47113e-11
4.49294e-12
-1.55809e-11
4.74255e-12
-1.65002e-11
5.00218e-12
-1.7473e-11
5.26812e-12
-1.85033e-11
5.53691e-12
-1.95957e-11
5.80621e-12
-2.07549e-11
6.07584e-12
-2.19853e-11
6.34817e-12
-2.32908e-11
6.62776e-12
-2.4675e-11
6.92029e-12
-2.61407e-11
7.23092e-12
-2.76904e-11
7.56262e-12
-2.93264e-11
7.91539e-12
-3.10513e-11
8.28631e-12
-3.28682e-11
8.67022e-12
-3.47806e-11
9.06076e-12
-3.67925e-11
9.45206e-12
-3.8908e-11
9.84041e-12
-4.11307e-11
1.0225e-11
-4.34633e-11
1.06072e-11
-4.59068e-11
1.09893e-11
-4.84605e-11
1.13731e-11
-5.11216e-11
1.17577e-11
-5.38856e-11
1.21393e-11
-5.67468e-11
1.25119e-11
-5.96984e-11
1.28667e-11
-6.27319e-11
1.31924e-11
-6.58366e-11
1.34754e-11
-6.89993e-11
1.36999e-11
-7.22035e-11
1.38486e-11
-7.54298e-11
1.39027e-11
-7.86542e-11
1.38428e-11
-8.18481e-11
1.36502e-11
-8.4974e-11
1.33027e-11
-8.79818e-11
1.27703e-11
-9.08096e-11
1.2025e-11
-9.33236e-11
1.10581e-11
-9.60433e-11
9.03897e-12
7.07044e-12
-9.73914e-11
2.86424e-13
-1.7465e-12
2.20438e-13
3.27281e-13
1.45375e-13
4.24062e-13
7.04553e-14
4.0723e-13
-6.08156e-15
4.04662e-13
-7.98953e-14
3.98438e-13
-1.53614e-13
3.99482e-13
-2.26876e-13
3.95825e-13
-3.00758e-13
3.91233e-13
-3.74682e-13
3.85107e-13
-4.49269e-13
3.79419e-13
-5.23661e-13
3.79863e-13
-5.97343e-13
3.84114e-13
-6.70735e-13
3.91006e-13
-7.45044e-13
4.00355e-13
-8.20208e-13
4.07632e-13
-8.97535e-13
4.14574e-13
-9.77298e-13
4.21576e-13
-1.05925e-12
4.30104e-13
-1.14329e-12
4.43525e-13
-1.22904e-12
4.59541e-13
-1.31674e-12
4.7902e-13
-1.40718e-12
5.01625e-13
-1.50077e-12
5.22512e-13
-1.59908e-12
5.41896e-13
-1.70446e-12
5.61868e-13
-1.81874e-12
5.81029e-13
-1.943e-12
6.00129e-13
-2.0776e-12
6.23053e-13
-2.2211e-12
6.51332e-13
-2.37053e-12
6.85302e-13
-2.52371e-12
7.28176e-13
-2.68141e-12
7.83269e-13
-2.84821e-12
8.45471e-13
-3.02707e-12
9.04231e-13
-3.22014e-12
9.56923e-13
-3.42782e-12
1.0083e-12
-3.6485e-12
1.07184e-12
-3.88112e-12
1.15821e-12
-4.12564e-12
1.26088e-12
-4.38192e-12
1.36837e-12
-4.65138e-12
1.47644e-12
-4.93618e-12
1.58641e-12
-5.23795e-12
1.70465e-12
-5.55738e-12
1.83805e-12
-5.89342e-12
1.98996e-12
-6.24487e-12
2.15923e-12
-6.61173e-12
2.34025e-12
-6.995e-12
2.52778e-12
-7.39663e-12
2.71724e-12
-7.81988e-12
2.90565e-12
-8.26794e-12
3.0926e-12
-8.74385e-12
3.27941e-12
-9.2504e-12
3.46808e-12
-9.78983e-12
3.6608e-12
-1.03641e-11
3.85981e-12
-1.09751e-11
4.0674e-12
-1.16245e-11
4.28603e-12
-1.23138e-11
4.51818e-12
-1.30445e-11
4.76593e-12
-1.38184e-11
5.03053e-12
-1.46374e-11
5.31198e-12
-1.55036e-11
5.6089e-12
-1.64202e-11
5.91874e-12
-1.73904e-11
6.23839e-12
-1.84184e-11
6.56483e-12
-1.95083e-11
6.89599e-12
-2.06644e-11
7.23185e-12
-2.18911e-11
7.57476e-12
-2.31926e-11
7.92903e-12
-2.45724e-11
8.29982e-12
-2.60334e-11
8.69175e-12
-2.75785e-11
9.10744e-12
-2.92102e-11
9.54681e-12
-3.09313e-11
1.00071e-11
-3.27448e-11
1.04834e-11
-3.46541e-11
1.09698e-11
-3.66632e-11
1.14609e-11
-3.87761e-11
1.1953e-11
-4.09965e-11
1.24451e-11
-4.33272e-11
1.29377e-11
-4.57698e-11
1.34317e-11
-4.83236e-11
1.39267e-11
-5.09862e-11
1.44201e-11
-5.37536e-11
1.49064e-11
-5.66202e-11
1.53783e-11
-5.95794e-11
1.58256e-11
-6.26225e-11
1.62353e-11
-6.57394e-11
1.6592e-11
-6.89175e-11
1.68776e-11
-7.21416e-11
1.70724e-11
-7.53933e-11
1.71541e-11
-7.86499e-11
1.7099e-11
-8.18821e-11
1.6882e-11
-8.50513e-11
1.64716e-11
-8.81127e-11
1.58314e-11
-9.10091e-11
1.49212e-11
-9.36477e-11
1.36965e-11
-9.62982e-11
1.16892e-11
8.58537e-12
-9.78134e-11
2.73321e-13
-2.02002e-12
2.13008e-13
3.87257e-13
1.4256e-13
4.94206e-13
6.83439e-14
4.81146e-13
-7.06263e-15
4.79764e-13
-8.11333e-14
4.72192e-13
-1.54813e-13
4.72827e-13
-2.28227e-13
4.68885e-13
-3.01856e-13
4.64488e-13
-3.75034e-13
4.57894e-13
-4.48972e-13
4.52953e-13
-5.22711e-13
4.5319e-13
-5.9605e-13
4.57036e-13
-6.6948e-13
4.64014e-13
-7.43816e-13
4.74266e-13
-8.18662e-13
4.82052e-13
-8.95473e-13
4.90958e-13
-9.74403e-13
5.00082e-13
-1.05525e-12
5.10535e-13
-1.13828e-12
5.26139e-13
-1.22337e-12
5.44227e-13
-1.31091e-12
5.66156e-13
-1.40178e-12
5.92105e-13
-1.49609e-12
6.16428e-13
-1.59472e-12
6.40141e-13
-1.69986e-12
6.66622e-13
-1.81336e-12
6.94155e-13
-1.9365e-12
7.22898e-13
-2.07e-12
7.56191e-13
-2.21231e-12
7.93302e-13
-2.36039e-12
8.33059e-13
-2.51199e-12
8.79489e-13
-2.66769e-12
9.38711e-13
-2.83275e-12
1.0103e-12
-3.01093e-12
1.08221e-12
-3.20363e-12
1.14945e-12
-3.41088e-12
1.21541e-12
-3.63048e-12
1.29133e-12
-3.8603e-12
1.38796e-12
-4.10122e-12
1.50177e-12
-4.35431e-12
1.62147e-12
-4.62113e-12
1.74332e-12
-4.9038e-12
1.8692e-12
-5.20318e-12
2.00419e-12
-5.51952e-12
2.1546e-12
-5.85232e-12
2.323e-12
-6.20103e-12
2.50821e-12
-6.566e-12
2.7055e-12
-6.94812e-12
2.91017e-12
-7.34926e-12
3.11867e-12
-7.77225e-12
3.32889e-12
-8.22001e-12
3.54061e-12
-8.69533e-12
3.75494e-12
-9.20076e-12
3.9737e-12
-9.73851e-12
4.19872e-12
-1.03106e-11
4.43204e-12
-1.09189e-11
4.67582e-12
-1.15651e-11
4.93233e-12
-1.22509e-11
5.20406e-12
-1.29782e-11
5.49316e-12
-1.37486e-11
5.80092e-12
-1.45642e-11
6.12757e-12
-1.54275e-11
6.47213e-12
-1.63414e-11
6.83252e-12
-1.73093e-11
7.20607e-12
-1.83347e-11
7.59013e-12
-1.94219e-11
7.98293e-12
-2.05749e-11
8.38466e-12
-2.17982e-11
8.7978e-12
-2.30959e-11
9.22644e-12
-2.44716e-11
9.67526e-12
-2.59285e-11
1.01484e-11
-2.74696e-11
1.06482e-11
-2.90976e-11
1.11744e-11
-3.08151e-11
1.17244e-11
-3.26254e-11
1.22934e-11
-3.45318e-11
1.28759e-11
-3.65382e-11
1.3467e-11
-3.86488e-11
1.40634e-11
-4.08675e-11
1.46637e-11
-4.31975e-11
1.52675e-11
-4.56403e-11
1.58743e-11
-4.81957e-11
1.6482e-11
-5.08616e-11
1.70859e-11
-5.36345e-11
1.76792e-11
-5.65092e-11
1.82528e-11
-5.94788e-11
1.87951e-11
-6.25353e-11
1.92916e-11
-6.56688e-11
1.97253e-11
-6.88678e-11
2.00764e-11
-7.21183e-11
2.03226e-11
-7.54027e-11
2.04383e-11
-7.8699e-11
2.03951e-11
-8.19783e-11
2.01611e-11
-8.5205e-11
1.96981e-11
-8.83364e-11
1.89626e-11
-9.13183e-11
1.79029e-11
-9.40763e-11
1.64544e-11
-9.67286e-11
1.43413e-11
1.02473e-11
-9.83907e-11
2.60748e-13
-2.28096e-12
2.06601e-13
4.41096e-13
1.40038e-13
5.60488e-13
6.63523e-14
5.54546e-13
-8.16254e-15
5.53978e-13
-8.21934e-14
5.45901e-13
-1.55761e-13
5.46048e-13
-2.29258e-13
5.42009e-13
-3.02655e-13
5.37486e-13
-3.75372e-13
5.30194e-13
-4.4878e-13
5.25929e-13
-5.22005e-13
5.25974e-13
-5.95079e-13
5.29664e-13
-6.68554e-13
5.3704e-13
-7.42492e-13
5.47757e-13
-8.16807e-13
5.55922e-13
-8.92936e-13
5.66649e-13
-9.70779e-13
5.77498e-13
-1.05025e-12
5.89593e-13
-1.13233e-12
6.07825e-13
-1.21678e-12
6.28304e-13
-1.30425e-12
6.5328e-13
-1.39563e-12
6.83161e-13
-1.49054e-12
7.1104e-13
-1.58961e-12
7.38922e-13
-1.69475e-12
7.715e-13
-1.8073e-12
8.06469e-13
-1.92853e-12
8.43902e-13
-2.05972e-12
8.87184e-13
-2.20023e-12
9.33646e-13
-2.34705e-12
9.79743e-13
-2.49761e-12
1.02993e-12
-2.65214e-12
1.09316e-12
-2.81567e-12
1.17377e-12
-2.99282e-12
1.25932e-12
-3.18456e-12
1.34117e-12
-3.39063e-12
1.42149e-12
-3.60866e-12
1.50939e-12
-3.83599e-12
1.61535e-12
-4.07331e-12
1.73918e-12
-4.32322e-12
1.87152e-12
-4.58734e-12
2.00761e-12
-4.86751e-12
2.14958e-12
-5.16442e-12
2.30134e-12
-5.47783e-12
2.46829e-12
-5.80767e-12
2.65312e-12
-6.15364e-12
2.85449e-12
-6.51618e-12
3.06833e-12
-6.89651e-12
3.29079e-12
-7.29645e-12
3.51886e-12
-7.71851e-12
3.75118e-12
-8.16535e-12
3.98764e-12
-8.63947e-12
4.22923e-12
-9.14326e-12
4.47761e-12
-9.6789e-12
4.73444e-12
-1.02483e-11
5.00152e-12
-1.08535e-11
5.28095e-12
-1.14961e-11
5.57498e-12
-1.21782e-11
5.88604e-12
-1.29015e-11
6.2163e-12
-1.36679e-11
6.5672e-12
-1.44798e-11
6.9392e-12
-1.53395e-11
7.33163e-12
-1.625e-11
7.74272e-12
-1.72143e-11
8.17015e-12
-1.82361e-11
8.61166e-12
-1.93194e-11
9.0659e-12
-2.04684e-11
9.53334e-12
-2.16874e-11
1.00165e-11
-2.29806e-11
1.05193e-11
-2.43516e-11
1.1046e-11
-2.58039e-11
1.16003e-11
-2.73403e-11
1.21843e-11
-2.89638e-11
1.27975e-11
-3.06769e-11
1.34373e-11
-3.2483e-11
1.40992e-11
-3.43853e-11
1.47781e-11
-3.63882e-11
1.54697e-11
-3.84959e-11
1.6171e-11
-4.07127e-11
1.68804e-11
-4.30417e-11
1.75965e-11
-4.54848e-11
1.83174e-11
-4.8042e-11
1.90392e-11
-5.07119e-11
1.97557e-11
-5.3491e-11
2.04584e-11
-5.63747e-11
2.11365e-11
-5.93564e-11
2.17768e-11
-6.24284e-11
2.23636e-11
-6.55819e-11
2.28787e-11
-6.88062e-11
2.33006e-11
-7.2088e-11
2.36043e-11
-7.54108e-11
2.3761e-11
-7.87533e-11
2.37376e-11
-8.20887e-11
2.34964e-11
-8.53842e-11
2.29936e-11
-8.85998e-11
2.21781e-11
-9.1684e-11
2.0987e-11
-9.45674e-11
1.93377e-11
-9.72792e-11
1.70531e-11
1.20463e-11
-9.90783e-11
2.53393e-13
-2.53452e-12
2.02981e-13
4.91231e-13
1.38478e-13
6.24732e-13
6.55627e-14
6.2719e-13
-8.81988e-15
6.28069e-13
-8.2795e-14
6.19557e-13
-1.56507e-13
6.1941e-13
-2.30217e-13
6.15339e-13
-3.03417e-13
6.10282e-13
-3.75831e-13
6.02185e-13
-4.48754e-13
5.98415e-13
-5.21497e-13
5.98273e-13
-5.94276e-13
6.01996e-13
-6.67519e-13
6.09838e-13
-7.40761e-13
6.20557e-13
-8.14299e-13
6.29026e-13
-8.89572e-13
6.41501e-13
-9.66079e-13
6.53603e-13
-1.04435e-12
6.67484e-13
-1.12587e-12
6.88999e-13
-1.20993e-12
7.1205e-13
-1.29725e-12
7.40314e-13
-1.38836e-12
7.74027e-13
-1.48317e-12
8.05633e-13
-1.5829e-12
8.38479e-13
-1.68861e-12
8.77065e-13
-1.80043e-12
9.18179e-13
-1.91908e-12
9.62479e-13
-2.04669e-12
1.01474e-12
-2.18433e-12
1.07127e-12
-2.33011e-12
1.12553e-12
-2.48053e-12
1.18038e-12
-2.63477e-12
1.24745e-12
-2.79685e-12
1.33593e-12
-2.97251e-12
1.43507e-12
-3.16273e-12
1.53149e-12
-3.36698e-12
1.62586e-12
-3.58286e-12
1.72541e-12
-3.80762e-12
1.84027e-12
-4.04191e-12
1.97365e-12
-4.28877e-12
2.1186e-12
-4.5503e-12
2.26938e-12
-4.82792e-12
2.42747e-12
-5.12202e-12
2.59573e-12
-5.43247e-12
2.77904e-12
-5.75921e-12
2.98017e-12
-6.10215e-12
3.19772e-12
-6.46203e-12
3.42848e-12
-6.84017e-12
3.66917e-12
-7.23834e-12
3.91724e-12
-7.65882e-12
4.17183e-12
-8.10402e-12
4.43296e-12
-8.57625e-12
4.70152e-12
-9.07777e-12
4.97915e-12
-9.6107e-12
5.26735e-12
-1.0177e-11
5.56774e-12
-1.07786e-11
5.8824e-12
-1.14174e-11
6.2136e-12
-1.20953e-11
6.56373e-12
-1.28143e-11
6.93499e-12
-1.35764e-11
7.32896e-12
-1.43838e-11
7.74633e-12
-1.52392e-11
8.18666e-12
-1.61453e-11
8.64843e-12
-1.71052e-11
9.12962e-12
-1.81223e-11
9.62839e-12
-1.92006e-11
1.01439e-11
-2.03445e-11
1.06769e-11
-2.15582e-11
1.12299e-11
-2.2846e-11
1.18066e-11
-2.42115e-11
1.24112e-11
-2.56583e-11
1.30468e-11
-2.71893e-11
1.3715e-11
-2.88074e-11
1.44153e-11
-3.05152e-11
1.51449e-11
-3.2316e-11
1.58997e-11
-3.42134e-11
1.66754e-11
-3.62118e-11
1.74681e-11
-3.83161e-11
1.82753e-11
-4.05305e-11
1.90948e-11
-4.28584e-11
1.99245e-11
-4.53018e-11
2.0761e-11
-4.78612e-11
2.15988e-11
-5.05353e-11
2.243e-11
-5.33212e-11
2.32445e-11
-5.62146e-11
2.403e-11
-5.92096e-11
2.47718e-11
-6.22992e-11
2.54533e-11
-6.54755e-11
2.6055e-11
-6.87286e-11
2.65537e-11
-7.20461e-11
2.69219e-11
-7.54124e-11
2.71274e-11
-7.88081e-11
2.71333e-11
-8.22088e-11
2.68972e-11
-8.55848e-11
2.63698e-11
-8.88982e-11
2.54917e-11
-9.20992e-11
2.41881e-11
-9.51221e-11
2.23608e-11
-9.795e-11
1.9881e-11
1.39978e-11
-9.99016e-11
2.52907e-13
-2.78758e-12
2.03909e-13
5.39981e-13
1.39448e-13
6.88956e-13
6.7046e-14
6.99338e-13
-7.94513e-15
7.02781e-13
-8.2736e-14
6.9404e-13
-1.5709e-13
6.93425e-13
-2.31139e-13
6.89023e-13
-3.04026e-13
6.82782e-13
-3.76329e-13
6.74085e-13
-4.48819e-13
6.70494e-13
-5.21124e-13
6.70165e-13
-5.93538e-13
6.73997e-13
-6.66181e-13
6.82074e-13
-7.38642e-13
6.92619e-13
-8.11231e-13
7.01229e-13
-8.85533e-13
7.15434e-13
-9.60559e-13
7.28282e-13
-1.03778e-12
7.44389e-13
-1.11844e-12
7.69375e-13
-1.20159e-12
7.94952e-13
-1.28828e-12
8.26806e-13
-1.37968e-12
8.65266e-13
-1.4753e-12
9.01133e-13
-1.57544e-12
9.3854e-13
-1.68117e-12
9.82762e-13
-1.79202e-12
1.02902e-12
-1.90794e-12
1.07844e-12
-2.03131e-12
1.13818e-12
-2.16518e-12
1.20524e-12
-2.30906e-12
1.26954e-12
-2.46039e-12
1.33186e-12
-2.61526e-12
1.40249e-12
-2.77641e-12
1.49724e-12
-2.95018e-12
1.60902e-12
-3.1382e-12
1.7197e-12
-3.33985e-12
1.82771e-12
-3.55318e-12
1.93895e-12
-3.77522e-12
2.06253e-12
-4.00679e-12
2.20545e-12
-4.2509e-12
2.36296e-12
-4.50979e-12
2.52854e-12
-4.78458e-12
2.70253e-12
-5.07577e-12
2.8872e-12
-5.38325e-12
3.0868e-12
-5.70669e-12
3.30388e-12
-6.04654e-12
3.53781e-12
-6.4036e-12
3.78574e-12
-6.77913e-12
4.04486e-12
-7.17496e-12
4.3132e-12
-7.59314e-12
4.59009e-12
-8.03593e-12
4.87577e-12
-8.50559e-12
5.17115e-12
-9.0042e-12
5.47768e-12
-9.53384e-12
5.79685e-12
-1.00965e-11
6.13024e-12
-1.06942e-11
6.4798e-12
-1.13287e-11
6.84783e-12
-1.20021e-11
7.23677e-12
-1.27164e-11
7.64887e-12
-1.34736e-11
8.08581e-12
-1.42762e-11
8.54841e-12
-1.51264e-11
9.03648e-12
-1.60273e-11
9.54882e-12
-1.69818e-11
1.00836e-11
-1.79932e-11
1.06394e-11
-1.90655e-11
1.12158e-11
-2.02032e-11
1.18141e-11
-2.14106e-11
1.24369e-11
-2.2692e-11
1.30877e-11
-2.40513e-11
1.37702e-11
-2.54918e-11
1.44871e-11
-2.70165e-11
1.52395e-11
-2.86282e-11
1.60268e-11
-3.03296e-11
1.68462e-11
-3.2124e-11
1.76941e-11
-3.40156e-11
1.8567e-11
-3.60089e-11
1.94616e-11
-3.81091e-11
2.03756e-11
-4.03207e-11
2.13066e-11
-4.26473e-11
2.22514e-11
-4.50911e-11
2.32051e-11
-4.76528e-11
2.41607e-11
-5.03313e-11
2.51088e-11
-5.31242e-11
2.60377e-11
-5.60277e-11
2.69338e-11
-5.90369e-11
2.77813e-11
-6.21459e-11
2.85626e-11
-6.53476e-11
2.9257e-11
-6.8633e-11
2.98394e-11
-7.19908e-11
3.02799e-11
-7.54065e-11
3.05434e-11
-7.88627e-11
3.05898e-11
-8.23377e-11
3.03725e-11
-8.58039e-11
2.98363e-11
-8.92253e-11
2.89133e-11
-9.25555e-11
2.75185e-11
-9.57383e-11
2.55438e-11
-9.87395e-11
2.28824e-11
1.6145e-11
-1.00887e-10
2.59888e-13
-3.0476e-12
2.08861e-13
5.90787e-13
1.41718e-13
7.55885e-13
6.83549e-14
7.7247e-13
-6.45019e-15
7.77329e-13
-8.25539e-14
7.69859e-13
-1.57802e-13
7.68364e-13
-2.32201e-13
7.6309e-13
-3.04583e-13
7.54819e-13
-3.77013e-13
7.46161e-13
-4.49055e-13
7.42182e-13
-5.20929e-13
7.41689e-13
-5.92842e-13
7.45567e-13
-6.64586e-13
7.53484e-13
-7.362e-13
7.63912e-13
-8.07751e-13
7.72474e-13
-8.81052e-13
7.88449e-13
-9.54794e-13
8.01763e-13
-1.03095e-12
8.20316e-13
-1.11061e-12
8.48832e-13
-1.19266e-12
8.76848e-13
-1.2785e-12
9.12531e-13
-1.36979e-12
9.56482e-13
-1.46579e-12
9.97104e-13
-1.56588e-12
1.03863e-12
-1.67132e-12
1.08826e-12
-1.78137e-12
1.13916e-12
-1.895e-12
1.19219e-12
-2.01444e-12
1.25777e-12
-2.14478e-12
1.33576e-12
-2.28633e-12
1.41129e-12
-2.43746e-12
1.4832e-12
-2.59356e-12
1.55881e-12
-2.75463e-12
1.65852e-12
-2.92572e-12
1.78034e-12
-3.11094e-12
1.90513e-12
-3.30921e-12
2.0262e-12
-3.51934e-12
2.1493e-12
-3.73875e-12
2.28216e-12
-3.96766e-12
2.43459e-12
-4.20895e-12
2.6045e-12
-4.46515e-12
2.78498e-12
-4.73712e-12
2.97474e-12
-5.02533e-12
3.17565e-12
-5.32953e-12
3.3912e-12
-5.64962e-12
3.62416e-12
-5.98613e-12
3.87447e-12
-6.33997e-12
4.13969e-12
-6.71251e-12
4.41746e-12
-7.10553e-12
4.70623e-12
-7.52094e-12
5.00547e-12
-7.96086e-12
5.31561e-12
-8.42743e-12
5.63758e-12
-8.92265e-12
5.97272e-12
-9.44856e-12
6.32252e-12
-1.00071e-11
6.68853e-12
-1.06003e-11
7.07266e-12
-1.12301e-11
7.47724e-12
-1.18985e-11
7.90474e-12
-1.26076e-11
8.35747e-12
-1.33595e-11
8.8372e-12
-1.41564e-11
9.34484e-12
-1.50008e-11
9.88041e-12
-1.58955e-11
1.0443e-11
-1.68435e-11
1.10312e-11
-1.78483e-11
1.16438e-11
-1.89138e-11
1.22809e-11
-2.00444e-11
1.29445e-11
-2.12447e-11
1.3637e-11
-2.2519e-11
1.43618e-11
-2.38711e-11
1.51221e-11
-2.53043e-11
1.59202e-11
-2.68216e-11
1.67568e-11
-2.84257e-11
1.76309e-11
-3.01195e-11
1.85401e-11
-3.19067e-11
1.94814e-11
-3.37915e-11
2.0452e-11
-3.57791e-11
2.14495e-11
-3.78749e-11
2.24716e-11
-4.00834e-11
2.35155e-11
-4.24085e-11
2.45769e-11
-4.48524e-11
2.56494e-11
-4.74159e-11
2.67246e-11
-5.00983e-11
2.77917e-11
-5.28981e-11
2.88379e-11
-5.58122e-11
2.98483e-11
-5.88368e-11
3.08064e-11
-6.19671e-11
3.16934e-11
-6.51969e-11
3.24872e-11
-6.85182e-11
3.31613e-11
-7.19208e-11
3.3683e-11
-7.53917e-11
3.40148e-11
-7.89152e-11
3.41138e-11
-8.24713e-11
3.39292e-11
-8.60344e-11
3.33999e-11
-8.95716e-11
3.2451e-11
-9.30429e-11
3.09902e-11
-9.64068e-11
2.8908e-11
-9.96299e-11
2.61057e-11
1.85343e-11
-1.02019e-10
2.71021e-13
-3.31874e-12
2.16313e-13
6.45301e-13
1.45409e-13
8.26599e-13
7.05284e-14
8.47144e-13
-4.61804e-15
8.52249e-13
-8.20424e-14
8.47036e-13
-1.58083e-13
8.4414e-13
-2.32567e-13
8.37298e-13
-3.04642e-13
8.26613e-13
-3.7714e-13
8.18383e-13
-4.48733e-13
8.13506e-13
-5.20272e-13
8.1297e-13
-5.9158e-13
8.16632e-13
-6.62527e-13
8.24202e-13
-7.33398e-13
8.34569e-13
-8.04195e-13
8.43075e-13
-8.77008e-13
8.61084e-13
-9.50171e-13
8.74771e-13
-1.02553e-12
8.9555e-13
-1.10385e-12
9.27056e-13
-1.18422e-12
9.57154e-13
-1.26857e-12
9.96844e-13
-1.35869e-12
1.04662e-12
-1.45382e-12
1.09227e-12
-1.55335e-12
1.13824e-12
-1.65849e-12
1.1935e-12
-1.76814e-12
1.24895e-12
-1.88037e-12
1.30459e-12
-1.9967e-12
1.37429e-12
-2.12361e-12
1.46287e-12
-2.26281e-12
1.5507e-12
-2.41271e-12
1.63332e-12
-2.56964e-12
1.71596e-12
-2.73109e-12
1.82019e-12
-2.8992e-12
1.94866e-12
-3.08086e-12
2.08699e-12
-3.27531e-12
2.22085e-12
-3.48167e-12
2.35586e-12
-3.69843e-12
2.49911e-12
-3.9249e-12
2.66125e-12
-4.16373e-12
2.84351e-12
-4.41725e-12
3.03867e-12
-4.6862e-12
3.24386e-12
-4.97098e-12
3.46057e-12
-5.27163e-12
3.69196e-12
-5.58818e-12
3.94079e-12
-5.92108e-12
4.20741e-12
-6.27139e-12
4.49e-12
-6.64058e-12
4.7866e-12
-7.03034e-12
5.09589e-12
-7.44254e-12
5.41752e-12
-7.87914e-12
5.75203e-12
-8.34215e-12
6.10038e-12
-8.83352e-12
6.46382e-12
-9.35515e-12
6.84385e-12
-9.90908e-12
7.24211e-12
-1.04973e-11
7.66054e-12
-1.1122e-11
8.10144e-12
-1.17849e-11
8.56726e-12
-1.24883e-11
9.06034e-12
-1.32341e-11
9.58256e-12
-1.40248e-11
1.0135e-11
-1.48626e-11
1.07178e-11
-1.57504e-11
1.13303e-11
-1.6691e-11
1.19715e-11
-1.76882e-11
1.26406e-11
-1.87459e-11
1.33384e-11
-1.98687e-11
1.4067e-11
-2.10609e-11
1.48291e-11
-2.2327e-11
1.56278e-11
-2.36708e-11
1.64658e-11
-2.50956e-11
1.7345e-11
-2.66043e-11
1.82656e-11
-2.81997e-11
1.92264e-11
-2.98848e-11
2.02254e-11
-3.16637e-11
2.12606e-11
-3.35412e-11
2.23298e-11
-3.55227e-11
2.34314e-11
-3.76136e-11
2.4563e-11
-3.98186e-11
2.57211e-11
-4.21416e-11
2.69003e-11
-4.45848e-11
2.80932e-11
-4.71495e-11
2.92899e-11
-4.98356e-11
3.04784e-11
-5.26422e-11
3.1645e-11
-5.55675e-11
3.27742e-11
-5.86088e-11
3.38483e-11
-6.1762e-11
3.48472e-11
-6.50222e-11
3.5748e-11
-6.83826e-11
3.65223e-11
-7.1834e-11
3.71351e-11
-7.53649e-11
3.75463e-11
-7.89606e-11
3.77101e-11
-8.26029e-11
3.75721e-11
-8.62682e-11
3.70658e-11
-8.99285e-11
3.61117e-11
-9.3552e-11
3.46142e-11
-9.7113e-11
3.24694e-11
-1.00586e-10
2.95791e-11
2.11931e-11
-1.03245e-10
2.83856e-13
-3.6027e-12
2.24794e-13
7.04195e-13
1.49733e-13
9.01497e-13
7.27659e-14
9.23935e-13
-3.9058e-15
9.28731e-13
-8.25504e-14
9.2548e-13
-1.59745e-13
9.21129e-13
-2.34368e-13
9.11717e-13
-3.0692e-13
8.98971e-13
-3.79235e-13
8.90518e-13
-4.49983e-13
8.84093e-13
-5.20802e-13
8.83648e-13
-5.90804e-13
8.86512e-13
-6.60521e-13
8.93815e-13
-7.29851e-13
9.03813e-13
-7.99081e-13
9.12234e-13
-8.70465e-13
9.32414e-13
-9.41834e-13
9.46102e-13
-1.01632e-12
9.7002e-13
-1.09466e-12
1.0054e-12
-1.17458e-12
1.0371e-12
-1.25814e-12
1.08046e-12
-1.34694e-12
1.13549e-12
-1.44042e-12
1.18586e-12
-1.53905e-12
1.237e-12
-1.64372e-12
1.29831e-12
-1.75286e-12
1.35825e-12
-1.86419e-12
1.41609e-12
-1.979e-12
1.48929e-12
-2.10244e-12
1.5865e-12
-2.23934e-12
1.6878e-12
-2.38698e-12
1.78116e-12
-2.5432e-12
1.87236e-12
-2.70379e-12
1.98095e-12
-2.87012e-12
2.11515e-12
-3.04815e-12
2.26517e-12
-3.23891e-12
2.41176e-12
-3.44176e-12
2.55884e-12
-3.65579e-12
2.71327e-12
-3.87994e-12
2.88552e-12
-4.11608e-12
3.07976e-12
-4.36644e-12
3.28911e-12
-4.63201e-12
3.5095e-12
-4.91324e-12
3.74182e-12
-5.21022e-12
3.98894e-12
-5.52297e-12
4.25349e-12
-5.85208e-12
4.53644e-12
-6.19868e-12
4.83646e-12
-6.56417e-12
5.15193e-12
-6.95028e-12
5.4818e-12
-7.35877e-12
5.82579e-12
-7.79152e-12
6.18452e-12
-8.25043e-12
6.55901e-12
-8.73736e-12
6.95044e-12
-9.25418e-12
7.36034e-12
-9.80294e-12
7.79051e-12
-1.03857e-11
8.24294e-12
-1.10046e-11
8.71988e-12
-1.16615e-11
9.22376e-12
-1.23585e-11
9.75692e-12
-1.30977e-11
1.03214e-11
-1.38814e-11
1.09183e-11
-1.4712e-11
1.1548e-11
-1.5592e-11
1.22101e-11
-1.65246e-11
1.29038e-11
-1.75134e-11
1.36292e-11
-1.85625e-11
1.43874e-11
-1.96764e-11
1.51809e-11
-2.08597e-11
1.60123e-11
-2.21165e-11
1.68847e-11
-2.34508e-11
1.78003e-11
-2.4866e-11
1.87603e-11
-2.63648e-11
1.97647e-11
-2.79501e-11
2.08121e-11
-2.96256e-11
2.19013e-11
-3.13953e-11
2.30308e-11
-3.32646e-11
2.41996e-11