/*--------------------------------*- C++ -*----------------------------------*\
| =========                 |                                                 |
| \\      /  F ield         | OpenFOAM: The Open Source CFD Toolbox           |
|  \\    /   O peration     | Version:  2.4.0                                 |
|   \\  /    A nd           | Web:      www.OpenFOAM.org                      |
|    \\/     M anipulation  |                                                 |
\*---------------------------------------------------------------------------*/
FoamFile
{
    version     2.0;
    format      ascii;
    class       volScalarField;
    location    "0.199";
    object      p_rgh;
}
// * * * * * * * * * * * * * * * * * * * * * * * * * * * * * * * * * * * * * //

dimensions      [1 -1 -2 0 0 0 0];

internalField   nonuniform List<scalar> 
57600
(
83.8599
85.0873
86.0588
86.0162
86.4514
89.1775
93.6507
97.5272
99.8519
100.841
100.922
100.461
99.7168
98.8704
98.0424
97.2928
96.6416
96.0869
95.6181
95.2234
94.8922
94.6153
94.3853
94.1953
94.0395
93.9124
93.8092
93.7259
93.6589
93.6051
83.8153
84.7839
86.0539
85.9912
86.8473
90.1932
94.7376
98.2567
100.216
100.938
100.851
100.297
99.5107
98.6596
97.8469
97.1211
96.4949
95.9632
95.5145
95.1369
94.82
94.5553
94.3356
94.1544
94.0059
93.8849
93.7868
93.7075
93.6438
93.5927
83.725
84.7595
86.049
85.9713
86.795
90.1584
94.7577
98.2978
100.258
100.971
100.872
100.306
99.5129
98.6567
97.8412
97.1142
96.4881
95.9571
95.5089
95.1313
94.8139
94.5484
94.3278
94.1456
93.9962
93.8745
93.7758
93.6959
93.6317
93.5802
83.5874
84.7161
86.0442
85.9424
86.7127
90.0981
94.7847
98.3586
100.328
101.03
100.911
100.328
99.5211
98.6548
97.8329
97.1029
96.476
95.9453
95.4975
95.1196
94.8014
94.5344
94.3119
94.1279
93.977
93.8539
93.7541
93.6734
93.6084
93.5563
83.398
84.6531
86.0391
85.9049
86.6004
90.0125
94.8225
98.4388
100.421
101.112
100.969
100.362
99.5357
98.6542
97.8221
97.0868
96.4581
95.9273
95.4798
95.1016
94.7818
94.5126
94.2876
94.1012
93.948
93.823
93.7217
93.6397
93.5739
93.5212
83.1497
84.5682
86.0337
85.8591
86.4564
89.9001
94.8769
98.5387
100.537
101.215
101.044
100.407
99.5565
98.655
97.8092
97.0663
96.4346
95.9035
95.456
95.077
94.7551
94.4829
94.2546
94.065
93.9091
93.7818
93.6787
93.5954
93.5285
93.4752
82.8324
84.4583
86.0278
85.8055
86.2788
89.7592
94.9552
98.6594
100.676
101.338
101.134
100.463
99.5836
98.6574
97.794
97.0412
96.4055
95.8736
95.4261
95.0458
94.7212
94.4451
94.2126
94.0191
93.8599
93.7301
93.6249
93.5402
93.4721
93.4179
82.4323
84.3203
86.0218
85.745
86.0648
89.5875
95.068
98.8028
100.839
101.483
101.239
100.53
99.6169
98.6611
97.7761
97.0111
96.3702
95.8374
95.3899
95.0082
94.6801
94.3991
94.1613
93.9631
93.8
93.6673
93.56
93.4736
93.4042
93.3488
81.9294
84.15
86.0166
85.6788
85.8115
89.3807
95.2276
98.9725
101.026
101.649
101.36
100.606
99.6563
98.6655
97.7548
96.9753
96.3283
95.7948
95.3476
94.9643
94.632
94.345
94.1007
93.8966
93.7289
93.5929
93.4832
93.3949
93.3238
93.2667
81.2962
83.9435
86.0113
85.6084
85.5149
89.1347
95.4463
99.1742
101.237
101.837
101.496
100.693
99.7016
98.6701
97.7293
96.9331
96.2792
95.7454
95.2992
94.9144
94.5772
94.2828
94.0305
93.8192
93.6461
93.5063
93.3938
93.3033
93.2301
93.1715
80.4932
83.697
86.0021
85.5358
85.1708
88.843
95.7354
99.4138
101.474
102.047
101.646
100.788
99.7527
98.674
97.6986
96.8837
96.2222
95.689
95.2449
94.8589
94.516
94.2127
93.9504
93.7305
93.5511
93.4071
93.292
93.1993
93.1243
93.0656
79.4632
83.411
85.9832
85.4637
84.7734
88.4972
96.1051
99.6941
101.736
102.279
101.811
100.892
99.8098
98.6761
97.6612
96.8261
96.1565
95.6251
95.1846
94.7981
94.4489
94.1346
93.8601
93.6298
93.4432
93.2952
93.1782
93.0845
93.0083
92.9469
78.1189
83.0785
85.9474
85.3954
84.316
88.0872
96.5631
100.014
102.028
102.533
101.99
101.002
99.873
98.675
97.6157
96.7593
96.0812
95.5533
95.1182
94.7324
94.3762
94.0485
93.7587
93.5158
93.3214
93.1702
93.0531
92.9606
92.8859
92.8249
76.322
82.6639
85.8869
85.3354
83.7906
87.598
97.1104
100.368
102.354
102.809
102.181
101.117
99.9432
98.6684
97.5598
96.6823
95.9948
95.4724
95.0453
94.6624
94.2989
93.9543
93.6448
93.3862
93.1834
93.0305
92.9157
92.8274
92.7571
92.7
73.8358
82.125
85.7936
85.2891
83.1882
87.0082
97.7326
100.749
102.716
103.109
102.385
101.235
100.022
98.6531
97.4912
96.5941
95.8957
95.3799
94.9647
94.5888
94.2176
93.8513
93.5155
93.2366
93.0247
92.8722
92.7631
92.6822
92.6184
92.5654
70.1892
81.4066
85.6592
85.2636
82.4984
86.2975
98.3785
101.149
103.108
103.432
102.598
101.352
100.113
98.6242
97.4067
96.4941
95.7798
95.2672
94.8744
94.5129
94.1336
93.7379
93.3653
93.0589
92.837
92.6888
92.5911
92.5227
92.4692
92.4227
63.887
80.4295
85.4767
85.2674
81.7107
85.4504
98.8857
101.561
103.517
103.781
102.821
101.46
100.224
98.5741
97.3023
96.3822
95.637
95.1109
94.773
94.4378
94.049
93.6116
93.1844
92.8382
92.6063
92.4707
92.395
92.3492
92.3135
92.2774
50.1567
79.0582
85.2413
85.3114
80.8152
84.4585
98.7941
101.981
103.953
104.152
103.05
101.552
100.368
98.4905
97.1737
96.2605
95.4534
94.9016
94.6663
94.3686
93.966
93.4681
92.9581
92.5521
92.3128
92.2068
92.173
92.1669
92.1614
92.1436
54.0591
77.0946
84.946
85.409
79.8001
83.3131
94.6719
102.412
104.423
104.549
103.283
101.613
100.56
98.3551
97.0153
96.1361
95.227
94.7222
94.57
94.3118
93.8875
93.3049
92.6773
92.1896
91.9468
91.8916
91.927
91.9848
92.027
92.0389
60.441
74.4823
84.5159
85.5777
78.6487
82.0594
86.0717
102.887
104.928
104.969
103.519
101.621
100.785
98.1412
96.819
96.0186
94.9765
94.6108
94.4894
94.269
93.8142
93.1298
92.3652
91.7686
91.5034
91.515
91.6576
91.8139
91.9276
91.983
61.7216
71.6406
83.8456
85.84
77.3375
80.7385
94.4779
103.468
105.473
105.413
103.754
101.54
100.875
97.8175
96.5761
95.9013
94.7223
94.4542
94.4005
94.2265
93.7385
92.9665
92.0499
91.2207
90.8919
91.0349
91.3641
91.6731
91.8874
92.0011
62.0727
69.175
83.1174
86.2246
75.813
79.2481
94.7805
104.19
106.07
105.88
103.998
101.341
100.21
97.3679
96.2998
95.7322
94.4904
94.1592
94.2694
94.1438
93.6306
92.8201
91.6247
90.2014
89.8554
90.3848
91.0708
91.6042
91.9424
92.1201
63.4159
67.766
82.4156
86.7765
74.4915
77.3764
92.6745
105.041
106.741
106.37
104.267
101.048
97.7606
96.8327
96.0356
95.4379
94.2732
93.7381
94.0751
93.9618
93.4223
92.5983
90.715
87.9239
87.9633
89.5384
90.8572
91.6751
92.1331
92.3589
66.9567
68.9666
81.9388
87.57
73.1118
75.0358
91.733
106.023
107.513
106.88
104.569
100.852
97.5038
96.349
95.8207
95.0036
94.0011
93.3521
93.8095
93.6694
93.0347
92.1196
89.1369
84.4028
85.1615
88.6683
90.8606
91.9374
92.4676
92.7075
67.1896
69.4151
82.74
88.6649
65.2578
72.2335
91.3297
107.117
108.412
107.399
104.912
101.151
97.5381
96.1472
95.6499
94.4333
93.6099
93.1355
93.5146
93.2725
92.4558
91.4062
88.0716
82.7695
83.7345
88.375
91.1937
92.3286
92.8693
93.1042
66.2742
46.4936
84.8843
90.015
16.3909
68.9828
89.8832
108.126
109.446
107.9
105.295
101.725
95.7962
96.1948
95.4809
93.6602
93.0616
93.0675
93.148
92.7131
91.5953
90.6688
87.8497
83.6728
84.3283
88.8192
91.5361
92.5536
93.1513
93.428
4.19752
28.1575
35.694
92.1614
0.473525
64.7477
88.3319
108.955
110.574
108.378
105.74
102.376
93.048
96.476
95.2255
92.648
92.3261
93.0771
92.7501
91.9411
90.2413
89.9851
87.2728
84.434
84.2645
88.0303
91.2768
91.8925
93.0147
93.569
4.15188
8.40313
0.487238
-0.104714
-0.105811
34.9006
87.0783
109.681
111.489
108.873
106.425
100.996
92.1794
97.5206
94.7105
91.0886
91.2433
93.311
92.513
92.0072
87.4889
58.6487
18.0324
4.06784
1.28687
1.77577
3.83061
5.46221
7.03555
7.0957
2.18018
2.11289
0.275843
-0.0999499
-0.185387
6.48398
84.4119
109.12
111.525
108.723
107.545
100.898
92.8277
98.4816
93.4304
88.8624
48.7895
4.56677
0.0881531
0.10303
0.127447
0.109152
0.112698
0.122418
0.135061
0.144386
0.153011
0.165203
0.17564
0.17909
0.696584
2.65457
0.70332
-0.0933101
-0.226377
8.33758
84.693
107.017
109.991
108.557
108.747
101.516
94.6472
98.6338
0.013502
-0.0246186
0.0768119
0.0573691
0.0880419
0.102993
0.109628
0.107606
0.109432
0.118833
0.127737
0.137089
0.157974
0.156731
0.179204
0.190274
93.5619
93.5239
93.4886
93.4583
93.4356
93.424
93.4276
93.4515
93.502
93.5867
93.7148
93.8983
94.1521
94.4946
94.9443
95.5124
96.1929
96.9527
97.7105
98.3079
98.4985
97.9396
96.265
93.4024
90.0335
87.0384
85.212
85.4636
87.3662
89.8567
93.5506
93.5128
93.4783
93.4493
93.4288
93.4203
93.4283
93.4582
93.5165
93.611
93.7516
93.9507
94.2244
94.592
95.0714
95.6707
96.3779
97.15
97.8885
98.4134
98.4541
97.6445
95.648
92.5468
89.2021
86.4071
85.0734
85.8379
88.0254
90.3901
93.5377
93.4996
93.4649
93.4357
93.4151
93.4067
93.4149
93.445
93.5035
93.598
93.7382
93.9366
94.2093
94.5764
95.0571
95.6599
96.3728
97.1527
97.9007
98.4375
98.4911
97.6881
95.6765
92.5376
89.1812
86.3799
85.0408
85.8182
88.0146
90.394
93.5135
93.475
93.44
93.4108
93.3904
93.3824
93.3912
93.422
93.481
93.5758
93.7157
93.913
94.1843
94.5509
95.0344
95.6445
96.3682
97.1614
97.9255
98.4819
98.5552
97.7592
95.7182
92.5182
89.1455
86.3352
84.9896
85.7876
87.9987
90.4035
93.4779
93.4393
93.4041
93.3751
93.3551
93.3477
93.3573
93.3891
93.449
93.5444
93.6841
93.8801
94.1495
94.5157
95.0039
95.6253
96.3649
97.1768
97.9627
98.5455
98.6443
97.8557
95.7732
92.4896
89.096
86.2737
84.9197
85.746
87.9776
90.419
93.4313
93.3924
93.3572
93.3284
93.3089
93.3024
93.3132
93.3463
93.4076
93.5039
93.6436
93.8383
94.1051
94.4708
94.9656
95.6021
96.3624
97.1981
98.0116
98.627
98.7573
97.9768
95.8418
92.4504
89.0323
86.1953
84.8303
85.6935
87.9512
90.4409
93.3734
93.3342
93.299
93.2705
93.2517
93.2463
93.2587
93.2936
93.3567
93.4545
93.5945
93.7875
94.0509
94.4154
94.919
95.5747
96.3602
97.2249
98.0718
98.7262
98.8939
98.1234
95.9249
92.3981
88.9547
86.1
84.7207
85.63
87.9192
90.47
93.3034
93.2637
93.2288
93.201
93.1833
93.1794
93.1937
93.2309
93.2964
93.3963
93.537
93.728
93.9864
94.3484
94.8633
95.5429
96.3582
97.257
98.1429
98.8429
99.055
98.2968
96.0233
92.3294
88.8631
85.9876
84.59
85.5557
87.8817
90.5069
93.22
93.1798
93.1465
93.1199
93.1034
93.1014
93.118
93.158
93.2267
93.3295
93.4717
93.6601
93.9111
94.2677
94.7974
95.5064
96.3563
97.2942
98.2249
98.9771
99.2411
98.4987
96.1377
92.2397
88.7565
85.8582
84.4371
85.4705
87.8383
90.5525
93.1227
93.077
93.0537
93.0268
93.012
93.0123
93.0314
93.0747
93.1475
93.2545
93.3992
93.5847
93.8246
94.1702
94.7199
95.465
96.3543
97.3367
98.3177
99.129
99.4531
98.7306
96.2692
92.1227
88.6339
85.712
84.2607
85.3749
87.7893
90.6076
93.0245
93.2148
92.9431
92.9195
92.9086
92.9118
92.9335
92.9803
93.0584
93.1717
93.3206
93.5031
93.7269
94.0508
94.6294
95.4185
96.3521
97.3842
98.421
99.2985
99.6917
98.9946
96.4186
91.9703
88.4972
85.5491
84.0591
85.2689
87.7347
90.6735
92.8991
92.8579
92.8195
92.7998
92.7937
92.7999
92.8233
92.8737
92.9587
93.0811
93.2373
93.4177
93.6188
93.8997
94.5238
95.3665
96.3496
97.4367
98.5345
99.4851
99.9576
99.2926
96.586
91.7721
88.3465
85.3699
83.8304
85.1532
87.6752
90.7515
92.8517
92.7329
92.6934
92.6721
92.667
92.6747
92.6982
92.7522
92.8468
92.9829
93.1513
93.332
93.5035
93.6981
94.4001
95.3081
96.3461
97.494
98.6579
99.6885
100.252
99.6269
96.7708
91.5146
88.1827
85.1751
83.5722
85.0285
87.6113
90.8422
92.6494
92.6016
92.5617
92.5324
92.5228
92.5298
92.5525
92.6116
92.7203
92.8769
93.0647
93.2512
93.389
93.4113
94.2476
95.2392
96.3412
97.5561
98.7905
99.9078
100.575
99.9996
96.9732
91.1796
88.0072
84.9662
83.2817
84.8958
87.5438
90.9452
92.5177
92.4694
92.4174
92.3704
92.3532
92.3586
92.3788
92.4456
92.5752
92.7622
92.9797
93.1808
93.2896
93.051
94.0344
95.1519
96.3339
97.6228
98.9318
100.142
100.927
100.412
97.1961
90.7411
87.8228
84.7457
82.9556
84.7565
87.4737
91.0592
92.3781
92.3295
92.2662
92.1426
92.188
92.1697
92.1736
92.2483
92.4065
92.6374
92.8979
93.124
93.22
92.8071
93.6919
95.0308
96.3228
97.694
99.0809
100.39
101.31
100.868
97.4474
90.1621
87.6341
84.518
82.5897
84.6127
87.4023
91.1824
92.2356
92.1832
92.1396
100.453
92.1641
91.967
91.9372
92.0127
92.2077
92.5005
92.8199
93.078
93.1689
92.7121
93.1049
94.8595
96.307
97.7697
99.2364
100.648
101.724
101.369
97.7396
89.3834
87.4452
84.2918
82.1791
84.4667
87.331
91.3128
92.1087
92.0504
91.9601
91.8808
91.8172
91.7133
91.6562
91.7277
91.9701
92.3493
92.7453
93.0357
93.0896
92.4939
92.222
94.6409
96.2855
97.8501
99.3971
100.916
102.167
101.921
98.0896
88.2895
87.2589
84.082
81.7194
84.3216
87.2616
91.4483
92.0184
91.9623
91.8665
91.7456
91.6001
91.4196
91.3147
91.373
91.6803
92.1817
92.6734
92.9915
92.953
92.0109
91.3412
94.4061
96.258
97.9358
99.5611
101.189
102.641
102.524
98.5176
86.6633
87.0801
83.9111
81.2059
84.1809
87.1958
91.5862
91.983
91.926
91.8029
91.6275
91.4271
91.0906
90.9013
90.9184
91.3167
91.992
92.5987
92.9371
92.7624
91.5155
90.911
94.186
96.2247
98.0279
99.7266
101.463
103.154
103.175
99.0476
84.1792
86.9128
83.808
80.627
84.0485
87.1356
91.7234
92.028
91.9688
91.8065
91.5356
91.5859
90.8313
90.4062
90.3215
90.8491
91.7626
92.5034
92.8521
92.5163
91.2047
90.9493
93.9833
96.1853
98.1284
99.8917
101.733
103.71
103.872
99.6976
80.3267
86.7652
83.8131
79.9715
83.9291
87.0906
91.855
92.1742
92.1106
91.8991
91.526
91.0184
90.4375
89.7707
89.4751
90.2373
91.4737
92.383
92.7205
92.2269
90.9366
91.0716
93.7781
96.1393
98.241
100.055
101.991
104.307
104.612
100.438
74.8715
86.6374
83.9865
79.2741
83.8241
87.0925
91.976
92.4236
92.3378
92.0577
91.5583
90.8715
90.0062
88.7828
87.8531
89.3213
91.1618
92.2882
92.5475
91.8955
90.5614
90.9935
93.5485
96.085
98.3712
100.215
102.228
104.946
105.385
101.231
76.3664
86.4649
84.4244
78.675
83.725
87.1185
92.0836
92.7569
92.6257
92.2576
91.6232
90.7566
89.5959
87.3768
85.6198
88.0767
90.9079
92.2459
92.3595
91.4822
90.098
90.7364
93.2729
96.0191
98.5261
100.371
102.435
105.627
106.191
102.059
67.3738
86.031
85.1676
78.3867
83.6049
87.1063
92.1745
93.1275
92.9484
92.4933
91.6988
90.5668
89.0654
86.206
84.3192
87.1396
90.6585
92.2441
92.228
90.9324
89.6886
90.3762
92.8988
95.9369
98.7109
100.521
102.59
106.331
107.032
102.841
64.2558
84.708
86.3842
78.3422
83.3749
87.0135
92.209
93.4376
93.2407
92.7128
91.6392
89.8702
87.6702
84.9489
83.3276
86.3834
90.4298
92.3832
92.317
89.9995
89.4121
89.9051
92.3231
95.8398
98.9107
100.66
102.56
107.025
107.916
103.408
64.6619
83.3067
88.3956
13.0076
82.4893
86.7281
92.1765
93.5006
93.4228
93.0329
91.427
88.4143
83.785
82.4563
80.5868
84.9419
90.3724
92.8127
92.8899
88.4725
89.3482
89.1949
91.4066
95.752
98.9766
100.734
102.174
107.602
108.849
103.253
67.9126
82.3439
90.6082
-0.309042
0.0838376
86.2131
92.0506
5.429
2.91605
0.645651
0.201337
0.190329
0.183212
0.170361
0.169951
0.150219
9.00751
72.0908
94.326
86.2561
90.0107
87.6834
90.1669
95.7937
98.4472
100.534
102.1
107.681
109.73
100.258
68.4908
80.4644
44.5034
-0.324459
0.0550504
-0.00973523
91.7913
0.175819
0.172501
0.171815
0.171907
0.17246
0.172549
0.168071
0.163869
0.156657
0.147691
0.139795
0.140438
0.146422
0.15601
0.308533
78.6766
95.8034
98.4669
99.2809
102.247
107.019
110.38
96.3837
65.4864
101.775
1.21421
-0.35677
0.00491794
-0.0296452
93.8622
0.165965
0.163249
0.164697
0.165892
0.166387
0.16657
0.163659
0.159234
0.155641
0.151177
0.14075
0.144003
0.144663
0.160053
0.369595
0.323212
41.3492
97.6228
97.7148
102.843
106.415
111.651
99.613
60.7306
88.2877
-0.274136
-0.382116
-0.0653851
-0.0425121
-0.0651726
0.639849
1.4617
0.127779
-0.0882232
-0.26773
-23.8173
87.8418
105.423
109.076
108.686
109.947
101.428
48.6206
-0.00947245
0.0123964
0.0371454
0.076515
0.108996
0.0883101
0.101459
0.125948
0.104029
0.104016
0.115301
0.120033
0.129635
0.153689
0.143009
0.134464
0.325465
-0.635527
-0.0991549
0.0920698
-0.0850968
-0.251335
19.4226
90.5598
104.03
110.169
108.851
110.687
99.9669
0.312186
0.0946507
-0.00827151
0.0173095
0.140327
0.0728249
0.0890795
0.100656
0.114965
0.100497
0.0984956
0.115298
0.114327
0.124639
0.158787
0.129127
0.114863
24.281
-0.70186
0.0165194
0.0120559
-0.0814481
-0.33465
17.6748
93.6311
101.887
111.362
108.824
112.088
2.96368
0.229921
-0.0233743
-0.00724261
0.0047742
0.201042
0.0714857
0.0906946
0.113942
0.110173
0.0915788
0.0902455
0.10665
0.108075
0.115041
0.148603
0.112744
0.0543924
0.218441
-0.143972
0.0810964
-0.107848
-0.0778364
-0.371367
12.9915
93.0612
99.7891
111.226
108.369
104.478
0.460507
0.0838555
-0.0143294
-0.0226586
-0.0121409
0.153571
0.0709402
0.103489
0.0972779
0.103344
0.267536
0.0808644
0.11049
0.107551
0.110994
0.118528
0.115753
0.122269
0.154426
0.0316725
-0.0718276
-0.152057
-0.0746294
-0.414824
-23.4849
92.1059
99.7899
110.918
108.562
0.130974
1.03017
0.0804983
-0.00709322
-0.0219872
-0.0303678
0.337008
0.064263
0.105924
0.105178
0.0996545
0.333072
0.0750973
0.0972829
0.104806
0.107122
0.11273
0.122354
0.128116
0.137729
-0.516497
-0.127849
0.0285228
-0.0714089
-0.431695
92.9034
1.91737
27.0319
107.03
0.121249
0.159618
1.64421
0.0954351
-0.00440638
-0.0275089
-0.053564
0.0951519
0.0697127
0.0936078
0.0917059
0.095313
0.342297
0.0870081
0.0908569
0.0989653
0.103426
0.143528
0.203649
0.123377
0.131963
-0.350327
0.104683
-0.0775959
-0.0682128
-0.404762
21.9663
-0.387737
0.373851
-0.0160539
0.106772
0.187135
0.940194
0.0951508
-0.000568526
-0.0324209
-0.0714128
0.214809
0.0639562
0.106428
0.0874784
0.0911817
0.0827245
0.0858843
0.0920776
0.0977111
0.101275
0.108982
0.112228
0.118793
0.127537
-0.186505
-0.320447
0.088083
-0.0650239
-0.343165
4.95615
-0.332611
0.0549907
-0.0154461
0.0939215
0.086033
1.19184
0.107273
-0.0397077
-0.038381
-0.0782332
0.0415181
0.0563084
0.0806818
0.0829047
0.0895939
0.0842248
0.0864738
0.0909161
0.0952637
0.0984939
0.10309
0.108428
0.115592
0.123401
-0.0746885
-0.352593
-0.108596
-0.0615785
-0.277775
6.9299
-0.291814
-0.0125779
-0.00988337
0.0740478
0.11169
0.853584
0.102847
-0.0195355
-0.0412202
-0.0737416
-0.0131598
0.0623395
0.0883048
0.078328
0.0982857
0.0831861
0.0857178
0.0894014
0.0916382
0.093345
0.097041
0.103439
0.111452
0.119234
0.0126037
-0.346982
0.0548467
-0.0578128
-0.200318
1.35052
-0.198449
-0.111674
-0.00147052
0.0695491
0.122607
0.308094
0.0476401
-0.0245058
-0.0432273
-0.0397716
-0.0117729
0.0621965
0.0754626
0.0719778
0.087634
0.0821183
0.0842877
0.0885653
0.0894006
0.0887246
0.0917993
0.0982699
0.107781
0.115035
0.451589
-0.32437
0.0334842
-0.053422
-0.120559
1.07873
-0.181483
-0.140592
-0.000405235
0.0393275
0.113328
0.257591
0.0384286
-0.0276683
-0.043686
-0.0415387
-0.0116641
0.044247
0.0657344
0.0672013
0.0767484
0.0785385
0.0812351
0.0882409
0.0834659
0.0850779
0.0923365
0.117035
0.106477
0.111403
0.592208
-0.268703
-0.0374734
-0.0479846
-0.0561
0.785179
-0.170906
-0.157099
-0.0107214
0.0295212
0.112225
0.124376
0.0259873
-0.0337791
-0.0471822
-0.0425152
0.0654034
0.0336819
0.0644802
0.0642424
0.0700603
0.0744395
0.0781607
0.528566
0.0826469
0.0846134
0.0971018
0.099283
0.102159
0.108398
0.776006
-0.190657
-0.0476359
-0.0414422
-0.00854901
0.558087
-0.168158
-0.178449
-0.0215351
0.0267137
0.0356162
0.0569751
0.0106808
-0.0450015
-0.0520476
-0.034447
0.070159
0.0171367
0.161899
0.0588235
0.0663082
0.0708116
0.0683379
0.335099
0.0720336
0.081635
0.088007
0.0985182
0.10642
0.105985
0.625489
-0.13808
-0.0522884
-0.034157
0.0338433
0.346209
-0.16751
-0.209218
-0.0347487
0.0232727
0.02611
0.135433
-0.00631207
-0.0587437
-0.0610137
0.129877
0.012654
0.0161798
0.0455768
0.0581591
0.0646666
0.0686692
0.0702745
0.0684231
0.070998
0.0829477
0.0837973
0.167841
0.198127
0.0977096
-0.22871
-0.116172
-0.0518531
-0.0266908
0.0554843
0.257469
-0.181979
-0.256355
-0.0581315
0.0163026
0.0378264
0.0951943
-0.0219034
-0.0730977
-0.071312
0.16271
-0.0120787
0.0189474
0.0375944
0.0539894
0.06403
0.0675046
0.0663574
0.0649463
0.0663022
0.488412
0.0899111
0.0807911
0.0967342
0.0948582
-0.239601
-0.112764
-0.0473363
-0.0196127
0.0716541
0.0848121
-0.20799
-0.339727
-0.0943607
0.0120621
0.0373746
0.0530423
-0.0340283
-0.0846442
-0.0782561
-0.0176824
-0.014869
0.0110387
0.0330761
0.050425
0.0637093
0.0695773
0.0660726
0.0746681
0.0631789
0.0606857
0.0665184
0.0772065
0.0911722
0.0928183
0.13672
-0.114472
-0.0417129
-0.0134407
0.0477977
0.012786
-0.234971
-0.488005
-0.133597
0.00687354
0.0304077
0.0316546
-0.0413198
-0.0891678
-0.0818951
-0.0485124
-0.0166065
0.00843716
0.0302345
0.0452367
0.0653152
0.0729525
0.0728804
0.0667891
0.0601739
0.0630556
0.0707405
0.0772613
0.084851
0.0913165
0.267372
-0.103784
-0.0367187
-0.00858351
0.0610292
-0.065855
-0.276355
0.497163
-0.149282
0.00111146
0.0244874
0.0162843
-0.0411915
-0.0828688
-0.0773734
-0.0462844
-0.0133893
0.0066379
0.0195125
0.444253
0.0664011
0.0706477
0.7204
0.849346
0.0452438
0.0572832
0.0658393
0.0756517
0.0834882
0.0897907
-0.117277
-0.0960928
-0.0327254
-0.00536178
0.075271
-0.141351
-0.367567
1.29433
-0.268322
0.0199593
0.0169244
0.00964479
-0.0324247
-0.0645465
-0.0633141
-0.0307353
-0.00570227
0.00720955
0.016867
0.0338788
0.0552068
0.0591698
0.0532529
0.0398816
0.0294804
0.0436048
0.0615237
0.0753298
0.083313
0.089093
0.815108
-0.0858805
-0.0293927
-0.00382583
0.0479737
-0.118729
-0.344808
0.0161023
0.342371
-0.019438
0.0142103
0.01011
-0.0165945
-0.0329656
-0.0382538
-0.024006
-0.000317758
0.0144014
0.0237051
0.0346683
0.0455812
0.0497474
0.0494509
0.0429189
0.0413672
0.0585265
0.072701
0.0795141
0.0842178
0.088349
-0.139898
-0.0698512
-0.0261719
-0.00374965
0.0205389
-0.0611647
-0.257808
-0.191438
0.294465
-0.00808791
0.014491
0.0163516
0.00153417
-0.00838671
-0.00981249
-0.000811827
0.0435574
0.0252256
0.0311983
0.0609369
0.0423276
0.0408542
0.042623
0.0462959
0.0516488
0.0593721
0.0668181
0.0727409
0.0773599
0.0808161
-0.139492
-0.036044
-0.0227378
-0.004763
0.00158203
0.0132715
-0.156775
0.099284
0.0385043
-0.0070415
0.0168775
0.0236392
0.0173767
0.0128179
0.015166
0.0242981
0.099173
0.0385451
0.041933
0.0458983
0.046514
0.0508684
0.0410949
0.0412732
0.0449666
0.0514573
0.0564584
0.0626332
0.0675729
0.0711343
1.70514
-0.0125687
-0.0189933
-0.00648981
-0.00854116
-0.00642241
-0.137613
0.165256
-0.00684438
-0.00601052
0.020081
0.0280372
0.0317211
0.0277334
0.0333749
0.035546
0.178812
0.0466146
0.0541422
0.0608641
0.057053
0.0509218
0.0494652
0.0451014
0.0504886
0.0497217
0.0569569
0.0626546
0.0684706
0.0714273
0.0895123
0.00843639
-0.0155206
-0.0085765
-0.016656
-0.0750025
-0.107415
0.121029
-0.0289904
0.000829706
0.0231278
0.0328771
0.0442514
0.0373806
0.0411206
0.043533
0.0489688
0.0556554
0.0708657
0.0694842
0.0674715
0.0618831
0.0570816
0.0550555
0.0561129
0.0615938
0.070332
0.0832601
0.0943613
0.108294
0.0955408
0.0193114
-0.0129523
-0.0106136
-0.0237273
-0.0756195
-0.0938543
0.011352
0.00613956
0.0139914
0.0255089
0.0346088
0.0394031
0.0432771
0.167026
0.0482808
0.0601482
0.0644453
0.0673512
0.0711393
0.0711176
0.0687827
0.0666725
0.0667783
0.0713667
0.0644246
0.0675107
0.0709618
0.0735232
0.0748355
0.0398823
0.0121791
-0.0115541
-0.0120445
-0.0292666
-0.0728942
0.317842
0.050487
0.0387421
0.073341
0.0264987
0.0334215
0.0384973
0.0429413
0.0429392
0.0480158
0.0528832
0.0618243
0.0904408
0.0702948
0.0664201
0.0631966
0.0602665
0.0595433
0.0546074
0.053316
0.0516257
0.0495016
0.0467091
0.0432204
-0.0803032
-0.0573083
-0.0106414
-0.0121756
-0.0331015
2.02582
0.00226396
0.0517158
0.0295414
0.0543173
0.0240166
0.0289437
0.033003
0.0361456
0.0388004
0.0419686
0.0452323
0.0481237
0.0508854
0.0506124
0.0497474
0.0489085
0.072383
0.0567394
0.0468853
0.0492664
0.0406843
0.0398429
0.0392425
0.0385266
-0.038801
-0.0614968
-0.0085792
-0.0104671
-0.0261295
-0.0265818
-0.0298678
0.0158841
0.00459983
0.00904602
0.0171339
0.0211729
0.024334
0.0269761
0.0292376
0.0312441
0.0329636
0.0342995
0.0348936
0.0345455
0.0332468
0.0312862
0.0291133
0.0278743
0.027634
0.0490427
0.0255641
0.0261113
0.0273257
0.0272932
0.00318774
-0.00274998
-0.0051803
-0.00709164
-0.0140577
0.000433617
0.00696833
0.0488786
-0.012798
0.00473437
0.00843571
0.0108572
0.013267
0.0154894
0.017354
0.0188367
0.0199348
0.0206058
0.0207541
0.0203327
0.0193588
0.0179336
0.0201226
0.0136374
0.0122315
0.0120747
0.0138116
0.0165743
0.0409138
0.0680771
0.0025509
0.00675326
-0.00178619
-0.00276078
-0.00446894
0.00335174
0.0101913
-0.0556882
0.0145568
0.00126893
-0.00213782
-0.00165014
0.000142316
0.00211741
0.00382306
0.00515886
0.00615093
0.00684066
0.00725919
0.00743724
0.00740683
0.00719386
0.00679064
0.00608545
0.00766567
0.00666662
0.003693
0.00344126
0.0024283
0.00297087
0.13265
0.145131
0.156397
0.159575
0.161429
0.163853
0.164426
0.161765
0.152078
0.141671
0.233673
0.153391
0.268178
0.151117
0.372358
0.318563
0.283392
60.6143
97.8555
103.743
106.692
112.967
105.36
10.5021
101.764
-0.284582
-0.359701
-0.112072
-0.0484692
-0.0651248
0.111245
0.132326
0.148537
0.155414
0.158983
0.164436
0.16194
0.16241
0.149508
0.139696
0.244261
0.159897
0.250501
0.192534
-0.111645
0.337904
0.278702
-0.501774
97.8842
104.459
107.209
112.995
107.4
13.3098
92.9564
-0.284815
-0.43338
-0.127872
-0.0506375
-0.0607664
0.123924
0.124947
0.143237
0.151191
0.155265
0.157266
0.161963
0.156899
0.145836
0.13728
0.207022
0.1564
0.219955
0.16321
0.46157
0.326879
0.297792
-0.324888
0.38683
105.179
108.143
112.547
109.108
-0.164807
-1.33727
-0.285731
-0.393346
-0.137216
-0.0520662
-0.0557945
0.128813
0.131633
0.140848
0.148685
0.151468
0.153513
0.151208
0.153197
0.140947
0.133736
0.155815
0.149083
0.185432
0.148534
0.334128
0.484761
0.300987
0.68112
0.248579
20.3898
109.608
112.306
111.374
0.0827216
-1.09384
-0.280885
-0.336846
-0.149044
-0.0528862
-0.0503474
0.13682
0.137124
0.140172
0.144398
0.147741
0.149919
0.149525
0.145998
0.134512
0.129296
0.132456
0.147517
0.181092
0.172201
0.319135
0.448145
0.299019
0.285351
0.179952
-0.157583
111.532
112.508
77.6709
-0.0330926
-1.01198
-0.273881
-0.295925
-0.15656
-0.0530595
-0.0446028
0.136183
0.141415
0.139071
0.141423
0.143983
0.1474
0.145093
0.138458
0.127989
0.127252
0.128014
0.173443
0.182353
0.182641
0.294007
0.407371
0.294743
1.89681
0.120873
-0.196268
-0.021743
22.0722
0.266373
-0.0762319
-0.758537
-0.265796
-0.252172
-0.159154
-0.0527303
-0.0387992
0.132852
0.136072
0.136951
0.137739
0.13967
0.141366
0.139414
0.131352
0.118395
0.147398
0.12171
0.145382
0.178643
0.184666
0.267344
0.272086
0.288568
0.763819
0.0753354
-0.109329
-0.0232716
0.0115428
0.0529617
0.0503339
-0.559645
-0.256119
-0.21632
-0.154185
-0.0519756
-0.0332146
0.128601
0.130857
0.132127
0.133704
0.13806
0.136643
0.135429
0.125416
0.114578
0.104226
0.115262
0.141492
0.170555
0.184579
0.261605
0.255802
0.279272
0.471538
-0.0503649
-0.224235
-0.0527825
-0.027124
0.00982333
0.127176
-0.395156
-0.244717
-0.188368
-0.146965
-0.0508813
-0.0281159
0.12506
0.135344
0.128218
0.130273
0.134099
0.132645
0.130115
0.121861
0.109484
0.100945
0.110133
0.147268
0.167434
0.185057
0.206001
0.278128
0.269682
0.307847
0.13694
-0.176319
-0.0859148
-0.017476
0.0314088
0.182752
-0.295192
-0.230819
-0.167315
-0.134947
-0.0495429
-0.0237159
0.120781
0.125143
0.125305
0.127486
0.129733
0.130278
0.130626
0.120638
0.108066
0.101019
0.115536
0.145212
0.165901
0.185659
0.2058
0.246847
0.260745
0.276205
0.394519
-0.154295
-0.106442
0.00108029
0.0850715
0.195463
-0.188015
-0.214449
-0.151668
-0.121139
-0.048054
-0.0201429
0.11612
0.120074
0.123224
0.126168
0.128405
0.129712
0.128875
0.122655
0.11225
0.105143
0.119519
0.136552
0.165912
0.185566
0.206182
0.231309
0.251691
0.249303
0.513107
-0.183994
-0.0717409
0.0442051
0.104589
0.186366
-0.14099
-0.195962
-0.139566
-0.107828
-0.0465056
-0.0174151
0.114124
0.116267
0.119738
0.1244
0.127198
0.129683
0.13106
0.129438
0.12179
0.116326
0.124092
0.14358
0.167597
0.185874
0.205836
0.227106
0.241156
0.215115
0.14707
-0.19524
-0.132867
0.01336
0.108117
0.167953
-0.115752
-0.176641
-0.129464
-0.0963546
-0.0449722
-0.0154461
0.108984
0.1128
0.117264
0.121855
0.125724
0.129677
0.134826
0.139964
0.134074
0.137067
0.148696
0.151156
0.17131
0.1864
0.205143
0.222583
0.256136
0.203818
0.02618
-0.195956
-0.14256
0.100363
0.112646
0.144819
-0.0946027
-0.159231
-0.120344
-0.0869779
-0.0434914
-0.0141062
0.104981
0.110637
0.115702
0.12171
0.125587
0.128915
0.141022
0.15425
0.143646
0.141314
0.146023
0.15753
0.174382
0.187003
0.203958
0.217827
0.2564
0.182938
0.0405148
-0.196225
-0.147793
0.00895145
0.109103
0.118224
-0.0636315
-0.141662
-0.111625
-0.0793828
-0.0420385
-0.0132382
0.102371
0.108403
0.113911
0.118257
0.122658
0.129284
0.144919
0.494191
0.150424
0.145128
0.149967
0.159711
0.172503
0.186145
0.201619
0.269661
0.196909
0.162472
0.0636958
-0.198059
-0.138438
0.017974
0.0993647
0.0949865
-0.024957
-0.122106
-0.103013
-0.0731066
-0.0405423
-0.012685
0.0995535
0.105764
0.111509
0.116945
0.362122
0.127825
0.135603
0.172172
0.141007
0.142388
0.147954
0.157801
0.169918
0.183122
0.195803
0.183822
0.171529
0.133515
0.016602
-0.188634
-0.0811726
0.0248031
0.0843804
0.0685939
0.00262967
-0.103656
-0.0943796
-0.0676892
-0.0389365
-0.0123007
0.0969314
0.102254
0.10691
0.109989
0.113537
0.119028
0.123314
2.30496
0.334586
0.136766
0.142044
0.151233
0.163671
0.178362
0.19795
0.164851
0.141204
0.10103
0.0141424
-0.150972
0.035802
0.0350276
0.0896828
0.0554914
0.0072686
-0.0881332
-0.0857037
-0.0627673
-0.037185
-0.0119709
0.0950611
0.0998209
0.104236
0.109702
0.111134
0.114065
0.114829
0.113309
0.114539
0.122775
0.13128
0.140826
0.155814
0.163648
0.190059
0.138152
0.10445
0.0768016
0.0220902
-0.0848213
-0.0761648
0.0355729
0.0673492
0.0490389
-0.000881207
-0.0746713
-0.0770259
-0.0580724
-0.0352722
-0.0116251
0.0936978
0.0976698
0.104686
0.104389
0.107556
0.108418
0.111079
0.108905
0.110273
0.113976
0.119865
0.128006
0.13625
0.144575
0.159091
0.102781
0.0823264
0.0640337
0.0324929
-0.0194539
-0.0219008
0.0283225
0.0635596
0.0495714
-0.00989286
-0.0624667
-0.0684302
-0.0534324
-0.0331956
-0.0112266
0.0911787
0.0937252
0.096193
0.0982909
0.100099
0.100696
0.100641
0.10069
0.101389
0.103439
0.107021
0.118578
0.118763
0.121191
0.128411
0.0800112
0.0671822
0.0564141
0.0385018
0.0195317
0.00867024
0.0275627
0.0580981
0.045144
-0.00801923
-0.0512992
-0.0600324
-0.0487574
-0.0309572
-0.0107598
0.0836089
0.0858639
0.0872113
0.088593
0.0895887
0.09007
0.0901038
0.0901015
0.0912157
0.0913661
0.0928229
0.10172
0.0957509
0.0932311
0.0802637
0.0602381
0.0567317
0.0500003
0.0396605
0.0316051
0.0229868
0.0309742
0.0511504
0.0426569
0.00114862
-0.0412312
-0.0519674
-0.0439986
-0.0285642
-0.0102192
0.0742072