/*--------------------------------*- C++ -*----------------------------------*\
| =========                 |                                                 |
| \\      /  F ield         | OpenFOAM: The Open Source CFD Toolbox           |
|  \\    /   O peration     | Version:  2.4.0                                 |
|   \\  /    A nd           | Web:      www.OpenFOAM.org                      |
|    \\/     M anipulation  |                                                 |
\*---------------------------------------------------------------------------*/
FoamFile
{
    version     2.0;
    format      ascii;
    class       surfaceScalarField;
    location    "0.059";
    object      phi;
}
// * * * * * * * * * * * * * * * * * * * * * * * * * * * * * * * * * * * * * //

dimensions      [0 3 -1 0 0 0 0];

internalField   nonuniform List<scalar> 
7080
(
5.21338e-14
-5.21207e-14
-2.53593e-13
3.04819e-13
-1.70112e-12
1.44524e-12
-4.47919e-12
2.77437e-12
-8.61014e-12
4.12602e-12
-1.55484e-11
6.93268e-12
-2.4274e-11
8.71722e-12
-3.93738e-11
1.50885e-11
-5.52555e-11
1.58701e-11
-8.49729e-11
2.97029e-11
-1.12783e-10
2.77945e-11
-1.66935e-10
5.41338e-11
-2.1511e-10
4.81634e-11
-3.01844e-10
8.67176e-11
-3.70623e-10
6.87651e-11
-4.76879e-10
1.06243e-10
-5.22319e-10
4.54323e-11
-5.24438e-10
2.10326e-12
-3.72289e-10
-1.52155e-10
-1.96117e-10
-1.76173e-10
-1.98004e-11
-1.76328e-10
9.24934e-11
-1.12287e-10
1.34494e-10
-4.20133e-11
1.461e-10
-1.15947e-11
1.24364e-10
2.17246e-11
1.03224e-10
2.11483e-11
7.45341e-11
2.86839e-11
5.33278e-11
2.12097e-11
3.37744e-11
1.95519e-11
1.37311e-11
2.00438e-11
-6.43135e-13
5.90077e-13
-2.84893e-12
2.50733e-12
-7.00576e-12
5.59659e-12
-1.38963e-11
9.65672e-12
-2.35392e-11
1.37588e-11
-3.77277e-11
2.111e-11
-5.4801e-11
2.57739e-11
-8.06181e-11
4.08839e-11
-1.08117e-10
4.33473e-11
-1.53159e-10
7.47186e-11
-1.94668e-10
6.92762e-11
-2.67606e-10
1.2704e-10
-3.26561e-10
1.07098e-10
-4.28396e-10
1.88526e-10
-4.95089e-10
1.35434e-10
-5.97812e-10
2.08948e-10
-6.14585e-10
6.21897e-11
-5.78379e-10
-3.41186e-11
-3.75857e-10
-3.54694e-10
-1.5649e-10
-3.95534e-10
4.14781e-11
-3.74318e-10
1.63312e-10
-2.34105e-10
1.98926e-10
-7.76501e-11
2.02509e-10
-1.51593e-11
1.67544e-10
5.66735e-11
1.36162e-10
5.25412e-11
9.70818e-11
6.77568e-11
6.85109e-11
4.97844e-11
4.33684e-11
4.46929e-11
3.09271e-11
2.61726e-11
-6.94528e-13
1.28378e-12
-3.0958e-12
4.9057e-12
-7.36287e-12
9.85887e-12
-1.42291e-11
1.65158e-11
-2.38929e-11
2.34137e-11
-3.83425e-11
3.55503e-11
-5.59099e-11
4.33269e-11
-8.26145e-11
6.75694e-11
-1.11046e-10
7.17595e-11
-1.57404e-10
1.21054e-10
-1.99593e-10
1.11441e-10
-2.73752e-10
2.01171e-10
-3.3266e-10
1.65988e-10
-4.34818e-10
2.9066e-10
-4.99934e-10
2.00529e-10
-6.01948e-10
3.10946e-10
-6.16345e-10
7.65716e-11
-5.74691e-10
-7.57876e-11
-3.63882e-10
-5.65519e-10
-1.37309e-10
-6.221e-10
6.11046e-11
-5.72754e-10
1.8035e-10
-3.53335e-10
2.11855e-10
-1.09177e-10
2.11992e-10
-1.52783e-11
1.74119e-10
9.45299e-11
1.40696e-10
8.59758e-11
1.00028e-10
1.08418e-10
7.02585e-11
7.95574e-11
4.4522e-11
7.0428e-11
4.62058e-11
2.92435e-11
-4.6368e-13
1.74666e-12
-2.398e-12
6.83712e-12
-6.29483e-12
1.37508e-11
-1.28239e-11
2.30377e-11
-2.22098e-11
3.27906e-11
-3.65571e-11
4.98881e-11
-5.41332e-11
6.08887e-11
-8.1106e-11
9.45233e-11
-1.09503e-10
1.00139e-10
-1.56292e-10
1.67819e-10
-1.98389e-10
1.53515e-10
-2.73316e-10
2.76071e-10
-3.33013e-10
2.25668e-10
-4.36592e-10
3.94215e-10
-5.03458e-10
2.67376e-10
-6.08874e-10
4.16346e-10
-6.26723e-10
9.44079e-11
-5.82894e-10
-1.19632e-10
-3.63673e-10
-7.84755e-10
-1.29189e-10
-8.56577e-10
7.04549e-11
-7.7242e-10
1.87862e-10
-4.70727e-10
2.16264e-10
-1.37601e-10
2.14278e-10
-1.32743e-11
1.75201e-10
1.33591e-10
1.41095e-10
1.20092e-10
1.00166e-10
1.4934e-10
7.03252e-11
1.09401e-10
4.43451e-11
9.64067e-11
6.32227e-11
2.73284e-11
-5.12743e-13
2.25856e-12
-2.4781e-12
8.79943e-12
-6.37885e-12
1.76464e-11
-1.29549e-11
2.96061e-11
-2.22937e-11
4.21201e-11
-3.67002e-11
6.42848e-11
-5.4182e-11
7.83558e-11
-8.14362e-11
1.21758e-10
-1.09678e-10
1.28362e-10
-1.57102e-10
2.1522e-10
-1.99112e-10
1.95503e-10
-2.7525e-10
3.52182e-10
-3.36285e-10
2.86687e-10
-4.42113e-10
5.0002e-10
-5.11758e-10
3.37002e-10
-6.22181e-10
5.26755e-10
-6.44925e-10
1.17138e-10
-5.97997e-10
-1.66574e-10
-3.66868e-10
-1.0159e-09
-1.21329e-10
-1.10211e-09
8.02742e-11
-9.74044e-10
1.95561e-10
-5.85999e-10
2.20246e-10
-1.62307e-10
2.15843e-10
-8.85448e-12
1.75571e-10
1.73848e-10
1.40938e-10
1.54736e-10
9.99088e-11
1.90363e-10
7.00813e-11
1.39233e-10
4.41298e-11
1.22357e-10
8.06264e-11
2.67263e-11
-5.59061e-13
2.81673e-12
-2.60683e-12
1.0844e-11
-6.58369e-12
2.16179e-11
-1.3291e-11
3.63055e-11
-2.26859e-11
5.15053e-11
-3.73231e-11
7.8912e-11
-5.47413e-11
9.57589e-11
-8.23933e-11
1.49391e-10
-1.10463e-10
1.56413e-10
-1.58741e-10
2.63476e-10
-2.00639e-10
2.37379e-10
-2.78344e-10
4.2986e-10
-3.41143e-10
3.4947e-10
-4.49803e-10
6.08658e-10
-5.22886e-10
4.10066e-10
-6.39739e-10
6.43593e-10
-6.689e-10
1.46287e-10
-6.17817e-10
-2.17672e-10
-3.71088e-10
-1.26264e-09
-1.113e-10
-1.36189e-09
9.25937e-11
-1.17796e-09
2.0502e-10
-6.98411e-10
2.24989e-10
-1.82296e-10
2.17589e-10
-1.43749e-12
1.75879e-10
2.15543e-10
1.40646e-10
1.89978e-10
9.95311e-11
2.31471e-10
6.97241e-11
1.69043e-10
4.38811e-11
1.48199e-10
9.79866e-11
2.6521e-11
-5.86272e-13
3.40206e-12
-2.69338e-12
1.29477e-11
-6.74464e-12
2.56636e-11
-1.36094e-11
4.31621e-11
-2.30851e-11
6.09709e-11
-3.80585e-11
9.38751e-11
-5.54674e-11
1.13152e-10
-8.36536e-11
1.77558e-10
-1.11537e-10
1.84277e-10
-1.60891e-10
3.12807e-10
-2.0261e-10
2.79075e-10
-2.82176e-10
5.094e-10
-3.47217e-10
4.14495e-10
-4.59255e-10
7.20674e-10
-5.36413e-10
4.87205e-10
-6.61266e-10
7.68433e-10
-6.98691e-10
1.837e-10
-6.42358e-10
-2.74019e-10
-3.75991e-10
-1.52902e-09
-9.8532e-11
-1.63934e-09
1.07846e-10
-1.38436e-09
2.16489e-10
-8.0704e-10
2.30639e-10
-1.96466e-10
2.19616e-10
9.60238e-12
1.76202e-10
2.58943e-10
1.40274e-10
2.25916e-10
9.90682e-11
2.7267e-10
6.92877e-11
1.98827e-10
4.35846e-11
1.739e-10
1.15264e-10
2.63076e-11
-7.24815e-13
4.12587e-12
-2.9696e-12
1.51889e-11
-7.00748e-12
2.96956e-11
-1.40192e-11
5.01653e-11
-2.3536e-11
7.04773e-11
-3.89582e-11
1.09287e-10
-5.63239e-11
1.30503e-10
-8.51806e-11
2.06394e-10
-1.12862e-10
2.1194e-10
-1.63479e-10
3.63402e-10
-2.04928e-10
3.20501e-10
-2.86588e-10
5.91034e-10
-3.54439e-10
4.8233e-10
-4.70381e-10
8.36595e-10
-5.52218e-10
5.69023e-10
-6.8682e-10
9.03022e-10
-7.34808e-10
2.31676e-10
-6.72033e-10
-3.36809e-10
-3.81472e-10
-1.81959e-09
-8.26144e-11
-1.93819e-09
1.26288e-10
-1.59328e-09
2.30032e-10
-9.1077e-10
2.37186e-10
-2.0364e-10
2.21902e-10
2.49027e-11
1.76532e-10
3.04299e-10
1.39817e-10
2.6264e-10
9.85198e-11
3.13961e-10
6.87747e-11
2.28575e-10
4.32351e-11
1.99439e-10
1.32416e-10
2.60828e-11
-7.81029e-13
4.90585e-12
-3.16434e-12
1.75685e-11
-7.2761e-12
3.38014e-11
-1.44631e-11
5.73435e-11
-2.41602e-11
8.01639e-11
-3.98508e-11
1.24967e-10
-5.72096e-11
1.47846e-10
-8.68457e-11
2.3601e-10
-1.14305e-10
2.39381e-10
-1.66452e-10
4.15526e-10
-2.07492e-10
3.61519e-10
-2.91423e-10
6.74939e-10
-3.62764e-10
5.53657e-10
-4.83085e-10
9.56895e-10
-5.70133e-10
6.56052e-10
-7.16402e-10
1.04928e-09
-7.77832e-10
2.93095e-10
-7.07322e-10
-4.07334e-10
-3.87407e-10
-2.13952e-09
-6.30678e-11
-2.26253e-09
1.48188e-10
-1.80455e-09
2.45675e-10
-1.00824e-09
2.44572e-10
-2.02554e-10
2.24388e-10
4.51013e-11
1.76833e-10
3.51841e-10
1.39254e-10
3.00228e-10
9.7874e-11
3.55336e-10
6.81789e-11
2.58273e-10
4.28269e-11
2.2479e-10
1.49438e-10
2.58046e-11
-7.58923e-13
5.66372e-12
-3.18447e-12
1.99902e-11
-7.33082e-12
3.79416e-11
-1.52612e-11
6.5265e-11
-2.48692e-11
8.97612e-11
-4.17189e-11
1.41806e-10
-5.86622e-11
1.64773e-10
-8.93616e-11
2.6669e-10
-1.16517e-10
2.66518e-10
-1.69903e-10
4.68889e-10
-2.10329e-10
4.01923e-10
-2.96529e-10
7.61113e-10
-3.72222e-10
6.29336e-10
-4.97359e-10
1.08201e-09
-5.90067e-10
7.48742e-10
-7.50103e-10
1.2093e-09
-8.28643e-10
3.71625e-10
-7.48946e-10
-4.87047e-10
-3.9371e-10
-2.49477e-09
-3.93034e-11
-2.61693e-09
1.73883e-10
-2.01776e-09
2.63486e-10
-1.09783e-09
2.52769e-10
-1.91855e-10
2.27048e-10
7.0837e-11
1.77097e-10
4.01778e-10
1.38591e-10
3.38743e-10
9.71369e-11
3.96784e-10
6.75062e-11
2.87907e-10
4.23629e-11
2.49932e-10
1.66315e-10
2.54864e-11
-8.54153e-13
6.51679e-12
-3.74081e-12
2.2873e-11
-8.71504e-12
4.29097e-11
-1.6692e-11
7.3233e-11
-2.64934e-11
9.95519e-11
-4.17581e-11
1.57061e-10
-5.89871e-11
1.81986e-10
-9.03618e-11
2.98044e-10
-1.17406e-10
2.93544e-10
-1.73352e-10
5.24812e-10
-2.13038e-10
4.41588e-10
-3.01695e-10
8.49745e-10
-3.82815e-10
7.10442e-10
-5.13163e-10
1.21234e-09
-6.11763e-10
8.47325e-10
-7.87587e-10
1.38511e-09
-8.88243e-10
4.72273e-10
-7.97759e-10
-5.77547e-10
-4.00244e-10
-2.8923e-09
-1.04399e-11
-3.00672e-09
2.03765e-10
-2.23198e-09
2.83506e-10
-1.17756e-09
2.61717e-10
-1.70083e-10
2.29825e-10
1.02743e-10
1.77299e-10
4.54292e-10
1.37816e-10
3.78234e-10
9.63048e-11
4.3829e-10
6.67558e-11
3.17459e-10
4.18431e-11
2.74844e-10
1.83029e-10
2.51291e-11
-8.94995e-13
7.41074e-12
-3.95781e-12
2.59318e-11
-8.64511e-12
4.75908e-11
-1.81191e-11
8.26981e-11
-2.63192e-11
1.07741e-10
-4.51558e-11
1.75887e-10
-6.1536e-11
1.98351e-10
-9.53578e-11
3.31846e-10
-1.22075e-10
3.20243e-10
-1.78499e-10
5.81214e-10
-2.17067e-10
4.80135e-10
-3.06497e-10
9.3915e-10
-3.94598e-10
7.9853e-10
-5.30379e-10
1.3481e-09
-6.34968e-10
9.51897e-10
-8.28034e-10
1.57817e-09
-9.57721e-10
6.01951e-10
-8.54636e-10
-6.8065e-10
-4.06821e-10
-3.34012e-09
2.23573e-11
-3.4359e-09
2.38262e-10
-2.4479e-09
3.05749e-10
-1.24504e-09
2.71312e-10
-1.35663e-10
2.32634e-10
1.41435e-10
1.77393e-10
5.09522e-10
1.36907e-10
4.18728e-10
9.53655e-11
4.79826e-10
6.59211e-11
3.46906e-10
4.12639e-11
2.995e-10
1.99561e-10
2.47322e-11
-8.69875e-13
8.27958e-12
-4.47988e-12
2.95379e-11
-9.47889e-12
5.25838e-11
-1.67562e-11
8.99667e-11
-2.5672e-11
1.16646e-10
-4.0524e-11
1.90729e-10
-6.00251e-11
2.17837e-10
-9.36481e-11
3.65449e-10
-1.20744e-10
3.47322e-10
-1.80478e-10
6.40926e-10
-2.19186e-10
5.18823e-10
-3.10799e-10
1.03074e-09
-4.07348e-10
8.95067e-10
-5.4909e-10
1.48982e-09
-6.59145e-10
1.06194e-09
-8.72569e-10
1.79158e-09
-1.03874e-09
7.68118e-10
-9.21047e-10
-7.98363e-10
-4.1329e-10
-3.84789e-09
6.14185e-11
-3.9106e-09
2.7789e-10
-2.66439e-09
3.30282e-10
-1.29742e-09
2.81481e-10
-8.6877e-11
2.35419e-10
1.8751e-10
1.77362e-10
5.67567e-10
1.35866e-10
4.60232e-10
9.43246e-11
5.21362e-10
6.50076e-11
3.76225e-10
4.06297e-11
3.23877e-10
2.15898e-10
2.42926e-11
-1.33523e-12
9.61381e-12
-4.89849e-12
3.30968e-11
-8.27613e-12
5.59554e-11
-2.08698e-11
1.02552e-10
-2.79657e-11
1.23732e-10
-5.09532e-11
2.13708e-10
-6.80173e-11
2.34886e-10
-1.04183e-10
4.01594e-10
-1.31175e-10
3.74297e-10
-1.90082e-10
6.99811e-10
-2.27381e-10
5.56103e-10
-3.15473e-10
1.11881e-09
-4.21937e-10
1.00152e-09
-5.6926e-10
1.63713e-09
-6.84196e-10
1.17686e-09
-9.23464e-10
2.03084e-09
-1.13286e-09
9.77506e-10
-9.9816e-10
-9.33081e-10
-4.19418e-10
-4.42664e-09
1.08337e-10
-4.43835e-09
3.23244e-10
-2.87931e-09
3.57131e-10
-1.3313e-09
2.92104e-10
-2.18642e-11
2.38096e-10
2.4153e-10
1.77172e-10
6.28481e-10
1.3468e-10
5.0273e-10
9.31785e-11
5.62859e-10
6.40147e-11
4.05391e-10
3.99412e-11
3.4795e-10
2.32032e-10
2.38073e-11
-8.22947e-13
1.04358e-11
-7.40293e-12
3.96725e-11
-1.40422e-11
6.25887e-11
-1.95728e-11
1.08073e-10
-2.64337e-11
1.30582e-10
-3.61459e-11
2.2341e-10
-5.89417e-11
2.57667e-10
-9.50172e-11
4.37649e-10
-1.24436e-10
4.03699e-10
-1.86752e-10
7.62106e-10
-2.21004e-10
5.90336e-10
-3.1503e-10
1.21281e-09
-4.35289e-10
1.12177e-09
-5.90757e-10
1.79258e-09
-7.08256e-10
1.29434e-09
-9.78694e-10
2.30126e-09
-1.24257e-09
1.24138e-09
-1.08847e-09
-1.08721e-09
-4.24921e-10
-5.09019e-09
1.64466e-10
-5.02773e-09
3.74968e-10
-3.08982e-09
3.86265e-10
-1.34259e-09
3.03016e-10
6.13712e-11
2.40546e-10
3.04011e-10
1.76767e-10
6.9225e-10
1.33328e-10
5.46175e-10
9.19161e-11
6.04267e-10
6.29363e-11
4.34373e-10
3.9196e-11
3.71689e-10
2.47943e-10
2.32845e-11
-4.90534e-12
1.53392e-11
-1.1839e-11
4.66011e-11
-9.50679e-12
6.02504e-11
-2.7612e-11
1.26169e-10
-3.2805e-11
1.35765e-10
-5.54544e-11
2.4605e-10
-7.90568e-11
2.81255e-10
-1.14983e-10
4.73554e-10
-1.48806e-10
4.37507e-10
-2.06027e-10
8.19304e-10
-2.39814e-10
6.24105e-10
-3.21125e-10
1.29409e-09
-4.55091e-10
1.25573e-09
-6.14427e-10
1.95189e-09
-7.32497e-10
1.4124e-09
-1.0402e-09
2.60896e-09
-1.36946e-09
1.57064e-09
-1.19269e-09
-1.264e-09
-4.29571e-10
-5.85332e-09
2.31922e-10
-5.68922e-09
4.33866e-10
-3.29178e-09
4.17693e-10
-1.32641e-09
3.14053e-10
1.64998e-10
2.42681e-10
3.75395e-10
1.76124e-10
7.58797e-10
1.3181e-10
5.90496e-10
9.05431e-11
6.45529e-10
6.17779e-11
4.63141e-10
3.83983e-11
3.95068e-10
2.63604e-10
2.27379e-11
4.61318e-13
1.48768e-11
-1.44269e-11
6.14851e-11
-3.37445e-11
7.95618e-11
-2.17664e-11
1.14182e-10
-1.97253e-11
1.33713e-10
-1.64946e-11
2.42808e-10
-5.14679e-11
3.16214e-10
-9.65583e-11
5.18622e-10
-1.31851e-10
4.72785e-10
-1.94103e-10
8.81533e-10
-2.1649e-10
6.46475e-10
-3.05219e-10
1.3828e-09
-4.66197e-10
1.4167e-09
-6.38275e-10
2.12395e-09
-7.51509e-10
1.52562e-09
-1.10347e-09
2.96091e-09
-1.51934e-09
1.9865e-09
-1.31656e-09
-1.46681e-09
-4.32433e-10
-6.73745e-09
3.14699e-10
-6.43634e-09
5.00835e-10
-3.47793e-09
4.51337e-10
-1.27691e-09
3.25004e-10
2.91319e-10
2.44381e-10
4.56028e-10
1.752e-10
8.2797e-10
1.30114e-10
6.35587e-10
8.90567e-11
6.86583e-10
6.05393e-11
4.9166e-10
3.75483e-11
4.18059e-10
2.78982e-10
2.21703e-11
-1.42793e-11
2.91541e-11
-4.98317e-11
9.70262e-11
-4.02666e-11
6.99903e-11
-4.70616e-11
1.20966e-10
-4.44958e-11
1.31141e-10
-5.0942e-11
2.49246e-10
-1.00758e-10
3.66016e-10
-1.31125e-10
5.48965e-10
-1.85433e-10
5.27078e-10
-2.35004e-10
9.31079e-10
-2.58261e-10
6.69717e-10
-3.17648e-10
1.44216e-09
-4.96468e-10
1.59551e-09
-6.68423e-10
2.29589e-09
-7.69853e-10
1.62704e-09
-1.17368e-09
3.36473e-09
-1.69097e-09
2.50379e-09
-1.45744e-09
-1.70037e-09
-4.32625e-10
-7.76226e-09
4.10518e-10
-7.27948e-09
5.76809e-10
-3.64423e-09
4.86991e-10
-1.18708e-09
3.35562e-10
4.42737e-10
2.45492e-10
5.46108e-10
1.73935e-10
8.99519e-10
1.28218e-10
6.81309e-10
8.74461e-11
7.27351e-10
5.92152e-11
5.19893e-10
3.66426e-11
4.40631e-10
2.94047e-10
2.15772e-11
1.19607e-12
2.79558e-11
1.35979e-11
8.46237e-11
-1.61659e-11
9.97471e-11
3.87268e-11
6.60619e-11
4.65509e-11
1.23309e-10
4.14981e-11
2.54294e-10
-2.21703e-11
4.29671e-10
-1.06321e-10
6.33089e-10
-1.5124e-10
5.71983e-10
-2.03249e-10
9.83063e-10
-1.96913e-10
6.63366e-10
-2.62823e-10
1.50805e-09
-4.98323e-10
1.83101e-09
-6.94486e-10
2.49204e-09
-7.79712e-10
1.71225e-09
-1.24498e-09
3.82998e-09
-1.90339e-09
3.16221e-09
-1.62989e-09
-1.9739e-09
-4.28251e-10
-8.9639e-09
5.23733e-10
-8.23146e-09
6.63084e-10
-3.78359e-09
5.24499e-10
-1.04849e-09
3.45436e-10
6.21791e-10
2.4589e-10
6.45662e-10
1.723e-10
9.73102e-10
1.26121e-10
7.27493e-10
8.57165e-11
7.67752e-10
5.78116e-11
5.47799e-10
3.56838e-11
4.62758e-10
3.08773e-10
2.09576e-11
1.92013e-11
8.75388e-12
-5.00944e-11
1.5391e-10
-9.40675e-11
1.43713e-10
1.56511e-11
-4.36689e-11
-3.74455e-11
1.764e-10
-4.61972e-11
2.63049e-10
-1.63038e-10
5.46501e-10
-1.79783e-10
6.49804e-10
-2.5802e-10
6.50209e-10
-2.85934e-10
1.01095e-09
-2.87765e-10
6.65183e-10
-3.01002e-10
1.52127e-09
-5.5084e-10
2.08084e-09
-7.31549e-10
2.67273e-09
-7.7321e-10
1.7539e-09
-1.31219e-09
4.36895e-09
-2.13564e-09
3.98566e-09
-1.82067e-09
-2.2889e-09
-4.19802e-10
-1.03648e-08
6.57201e-10
-9.30846e-09
7.60551e-10
-3.88694e-09
5.63404e-10
-8.51342e-10
3.54183e-10
8.31003e-10
2.45413e-10
7.5444e-10
1.70252e-10
1.04826e-09
1.23816e-10
7.73933e-10
8.38656e-11
8.077e-10
5.63287e-11
5.75337e-10
3.46712e-11
4.84415e-10
3.23136e-10
2.03082e-11
9.09014e-11
-8.21368e-11
2.00729e-10
4.40959e-11
3.48308e-10
-3.87646e-12
4.91332e-10
-1.86703e-10
3.53614e-10
3.1409e-10
3.71507e-10
2.45118e-10
2.21839e-12
9.15779e-10
-1.52119e-10
8.0411e-10
-2.21051e-10
7.19131e-10
-2.26432e-10
1.0163e-09
-1.45723e-10
5.84462e-10
-1.50226e-10
1.52575e-09
-5.25405e-10
2.45602e-09
-7.72227e-10
2.91953e-09
-7.79582e-10
1.76125e-09
-1.39961e-09
4.98897e-09
-2.43934e-09
5.0254e-09
-2.06633e-09
-2.66195e-09
-4.02755e-10
-1.20283e-08
8.16306e-10
-1.05275e-08
8.71806e-10
-3.94245e-09
6.04055e-10
-5.8359e-10
3.61381e-10
1.07367e-09
2.43871e-10
8.71957e-10
1.67735e-10
1.12439e-09
1.21284e-10
8.20388e-10
8.18842e-11
8.47097e-10
5.47622e-11
6.02461e-10
3.36015e-11
5.05575e-10
3.37115e-10
1.96233e-11
4.42725e-11
-1.26409e-10
3.32271e-10
-2.43894e-10
3.94423e-10
-6.60386e-11
1.92834e-10
1.48701e-11
-1.25796e-10
6.32712e-10
5.04387e-11
6.88811e-11
1.01667e-10
8.6454e-10
-2.0735e-10
1.11309e-09
-3.7551e-10
8.87283e-10
-3.85867e-10
1.02663e-09
-3.26106e-10
5.24689e-10
-2.53624e-10
1.45325e-09
-6.2335e-10
2.82575e-09
-8.11252e-10
3.10742e-09
-7.07681e-10
1.65767e-09
-1.43383e-09
5.71511e-09
-2.7338e-09
6.32539e-09
-2.32485e-09
-3.07095e-09
-3.80673e-10
-1.39725e-08
1.00288e-09
-1.19111e-08
9.95289e-10
-3.93485e-09
6.43173e-10
-2.31474e-10
3.65753e-10
1.35108e-09
2.41074e-10
9.96642e-10
1.64726e-10
1.20073e-09
1.18532e-10
8.66585e-10
7.97789e-11
8.85848e-10
5.31182e-11
6.29122e-10
3.24793e-11
5.26214e-10
3.50684e-10
1.89099e-11
-2.1929e-11
-1.04489e-10
5.91607e-11
-3.24993e-10
1.95993e-10
-2.02883e-10
3.99881e-10
-1.8904e-10
-4.01793e-12
1.03659e-09
5.41776e-11
1.06847e-11
-3.69637e-10
1.28834e-09
-6.84172e-10
1.42757e-09
-4.1352e-10
6.16632e-10
-2.49248e-10
8.6232e-10
-9.28812e-12
2.84718e-10
9.32283e-11
1.35072e-09
-5.40773e-10
3.45974e-09
-8.98933e-10
3.46556e-09
-7.10362e-10
1.46909e-09
-1.55384e-09
6.55858e-09
-3.18061e-09
7.95217e-09
-2.6855e-09
-3.56611e-09
-3.44153e-10
-1.63139e-08
1.22746e-09
-1.34827e-08
1.14011e-09
-3.8475e-09
6.86883e-10
2.21756e-10
3.67189e-10
1.67077e-09
2.36889e-10
1.12695e-09
1.61201e-10
1.27641e-09
1.15563e-10
9.12226e-10
7.75505e-11
9.23858e-10
5.13981e-11
6.55276e-10
3.13026e-11
5.46309e-10
3.63822e-10
1.81642e-11
-2.49415e-10
1.44876e-10
-2.51884e-10
-3.22575e-10
-3.65706e-10
-8.90701e-11
7.03943e-11
-6.25161e-10
4.21148e-10
6.85805e-10
2.95555e-10
1.36227e-10
5.20248e-11
1.53185e-09
-2.20122e-10
1.69969e-09
-8.07569e-10
1.20408e-09
-5.19895e-10
5.74599e-10
-3.47228e-10
1.12034e-10
-1.49248e-10
1.15273e-09
-7.37274e-10
4.04777e-09
-9.29463e-10
3.65774e-09
-5.06347e-10
1.04597e-09
-1.50593e-09
7.55815e-09
-3.55543e-09
1.00017e-08
-3.03542e-09
-4.08619e-09
-2.98489e-10
-1.90508e-08
1.48862e-09
-1.52698e-08
1.2946e-09
-3.65348e-09
7.20637e-10
7.95719e-10
3.64292e-10
2.02711e-09
2.3091e-10
1.26033e-09
1.57096e-10
1.35022e-09
1.12347e-10
9.56978e-10
7.51773e-11
9.61026e-10
4.95893e-11
6.80865e-10
3.00694e-11
5.65829e-10
3.76498e-10
1.73932e-11
-3.57956e-10
5.0272e-10
1.70497e-10
-8.50995e-10
-4.34134e-10
5.15551e-10
-3.12725e-11
-1.02806e-09
2.07202e-10
4.47288e-10
5.93168e-12
3.37471e-10
-1.5609e-10
1.69385e-09
5.70709e-11
1.48651e-09
-4.47625e-10
1.70877e-09
-3.19115e-10
4.46035e-10
3.299e-10
-5.37001e-10
5.94959e-10
8.87657e-10
-5.24942e-10
5.16767e-09
-1.13622e-09
4.269e-09
-5.09788e-10
4.19536e-10
-1.66699e-09
8.71535e-09
-4.22571e-09
1.25604e-08
-3.57794e-09
-4.73402e-09
-2.40165e-10
-2.23885e-08
1.80194e-09
-1.73119e-08
1.48268e-09
-3.33422e-09
7.66214e-10
1.51218e-09
3.61472e-10
2.43185e-09
2.23484e-10
1.39833e-09
1.52526e-10
1.42118e-09
1.08988e-10
1.00052e-09
7.27332e-11
9.9728e-10
4.77447e-11
7.05854e-10
2.88125e-11
5.84761e-10
3.88708e-10
1.66024e-11
-1.96786e-10
6.99435e-10
1.53339e-10
-1.20103e-09
-3.11923e-10
9.8077e-10
5.31879e-10
-1.87188e-09
-1.55116e-10
1.13423e-09
-9.39483e-10
1.12193e-09
-1.0643e-09
1.81865e-09
-1.20377e-09
1.62591e-09
-8.43333e-10
1.34832e-09
-8.88736e-10
4.91397e-10
-2.34006e-10
-1.19175e-09
4.25116e-11
6.11107e-10
-9.25871e-10
6.13607e-09
-1.12851e-09
4.47163e-09
-6.11062e-11
-6.4787e-10
-1.4834e-09
1.01376e-08
-4.72326e-09
1.58003e-08
-4.06113e-09
-5.39622e-09
-1.4184e-10
-2.63078e-08
2.18376e-09
-1.96375e-08
1.68063e-09
-2.83108e-09
7.87632e-10
2.40518e-09
3.4687e-10
2.87261e-09
2.12846e-10
1.53235e-09
1.47157e-10
1.48686e-09
1.05248e-10
1.04243e-09
7.00205e-11
1.03251e-09
4.57225e-11
7.30152e-10
2.74444e-11
6.03039e-10
4.004e-10
1.57529e-11
-6.70458e-11
7.6659e-10
-5.98821e-10
-6.6942e-10
2.47172e-10
1.34706e-10
2.00638e-10
-1.82538e-09
-2.28279e-11
1.35761e-09
-6.58631e-10
1.75783e-09
1.48145e-10
1.01185e-09
3.33566e-10
1.44046e-09
3.91495e-10
1.29036e-09
-4.94188e-10
1.37704e-09
9.61641e-10
-2.64759e-09
1.47868e-09
9.40468e-11
-6.55212e-10
8.26998e-09
-1.57757e-09
5.39397e-09
-2.12235e-11
-2.20422e-09
-1.59226e-09
1.17087e-08
-5.65107e-09
1.98591e-08
-4.85951e-09
-6.18788e-09
-7.17733e-11
-3.10955e-08
2.59249e-09
-2.23018e-08
1.90624e-09
-2.14483e-09
8.30057e-10
3.48136e-09
3.37456e-10
3.36521e-09
2.02497e-10
1.66732e-09
1.41908e-10
1.54745e-09
1.0179e-10
1.08255e-09
6.75346e-11
1.06676e-09
4.38925e-11
7.53795e-10
2.6208e-11
6.20723e-10
4.11634e-10
1.49738e-11
3.87737e-10
3.79018e-10
-8.58516e-10
5.76569e-10
4.21842e-10
-1.14568e-09
-1.53808e-10
-1.24981e-09
4.07697e-10
7.96029e-10
-1.59578e-10
2.32504e-09
-7.80781e-10
1.63304e-09
-8.06312e-10
1.46598e-09
-9.09348e-10
1.3934e-09
-5.33503e-10
1.00117e-09
-1.60784e-12
-3.17951e-09
1.99569e-09
-1.90325e-09
2.8045e-10
9.98518e-09
-1.19938e-09
6.87379e-09
9.89751e-10
-4.39335e-09
-9.71699e-10
1.36701e-08
-5.9966e-09
2.48841e-08
-5.35361e-09
-6.83096e-09
1.56991e-10
-3.66061e-08
3.19609e-09
-2.53408e-08
2.19591e-09
-1.14464e-09
8.35915e-10
4.84134e-09
3.0301e-10
3.89811e-09
1.85917e-10
1.78441e-09
1.35957e-10
1.59741e-09
9.80834e-11
1.12042e-09
6.47347e-11
1.10011e-09
4.18023e-11
7.76727e-10
2.47813e-11
6.37744e-10
4.22363e-10
1.40524e-11
8.2157e-10
-4.42511e-10
2.63045e-09
-1.23176e-09
1.71194e-09
-2.27039e-10
1.26664e-09
-8.0449e-10
2.82846e-09
-7.65876e-10
3.14426e-09
2.00914e-09
3.14979e-09
1.62748e-09
2.21642e-09
2.39943e-09
1.75166e-09
1.85815e-09
1.7361e-09
1.01682e-09
-1.70728e-09
2.63895e-10
-4.85324e-09
1.24248e-09
-4.2994e-09
9.43154e-09
-1.62976e-09
4.20413e-09
1.73281e-09
-7.75591e-09
3.23624e-10
1.50793e-08
-5.495e-09
3.07027e-08
-5.49201e-09
-6.83401e-09
6.05557e-10
-4.27037e-08
3.73126e-09
-2.84666e-08
2.43868e-09
1.47934e-10
8.80058e-10
6.39996e-09
3.05076e-10
4.47309e-09
1.88852e-10
1.90064e-09
1.41262e-10
1.645e-09
1.02371e-10
1.15931e-09
6.73391e-11
1.13514e-09
4.3293e-11
8.00774e-10
2.55334e-11
6.55504e-10
4.3357e-10
1.43259e-11
7.45637e-10
-1.18825e-09
3.35184e-09
-3.83726e-09
-3.06283e-09
6.1869e-09
-3.36103e-09
-5.06192e-10
1.05823e-10
-4.23273e-09
2.86137e-09
-7.46501e-10
3.27553e-09
1.21328e-09
2.02753e-09
3.64746e-09
2.40226e-09
1.48347e-09
1.55094e-09
1.86795e-09
2.98874e-10
1.51598e-09
3.98377e-09
-2.44252e-09
1.24853e-08
9.29793e-10
1.49445e-08
1.74499e-09
1.2498e-08
-5.30943e-09
8.36398e-09
1.92133e-08
-6.59854e-10
3.97268e-08
-3.82206e-09
-3.67212e-09
3.49559e-09
-5.00214e-08
5.42413e-09
-3.03951e-08
3.13052e-09
2.44154e-09
1.0555e-09
8.47496e-09
3.76985e-10
5.1516e-09
2.72491e-10
2.00512e-09
2.15574e-10
1.7019e-09
1.59557e-10
1.21532e-09
1.05521e-10
1.18916e-09
6.83909e-11
8.37886e-10
4.04246e-11
6.8345e-10
2.28781e-11
4.51099e-10
1.73582e-11
2.6856e-12
1.57866e-11
1.5711e-12
1.38196e-11
1.96756e-12
1.10099e-11
2.80938e-12
8.72864e-12
2.28134e-12
7.29468e-12
1.43387e-12
6.06764e-12
1.22701e-12
5.00799e-12
1.05962e-12
4.0736e-12
9.34353e-13
3.51611e-12
5.57467e-13
2.99375e-12
5.2234e-13
2.3591e-12
6.34631e-13
1.83548e-12
5.23617e-13
1.54338e-12
2.92095e-13
1.28552e-12
2.57855e-13
1.14296e-12
1.42565e-13
8.7728e-13
2.65681e-13
7.1311e-13
1.64172e-13
7.63062e-13
-4.99504e-14
6.21209e-13
1.41854e-13
5.13239e-13
1.07972e-13
4.75591e-13
3.76522e-14
4.16246e-13
5.93465e-14
4.10615e-13
5.64078e-15
4.11329e-13
-7.10991e-16
3.69693e-13
4.1657e-14
7.84362e-14
2.91259e-13
3.02354e-13
-2.23885e-13
1.01134e-13
2.01218e-13
1.0118e-13
2.22914e-11
6.56745e-12
1.96062e-11
4.25542e-12
1.61233e-11
5.45115e-12
1.26046e-11
6.32762e-12
1.06168e-11
4.26921e-12
8.83295e-12
3.21763e-12
7.31456e-12
2.74534e-12
6.15457e-12
2.21955e-12
5.05324e-12
2.03563e-12
4.33841e-12
1.27225e-12
3.67769e-12
1.18305e-12
2.68788e-12
1.62442e-12
2.11629e-12
1.0952e-12
1.89146e-12
5.16927e-13
1.56641e-12
5.82899e-13
1.29031e-12
4.18669e-13
1.0924e-12
4.63601e-13
9.15888e-13
3.40684e-13
8.08099e-13
5.78405e-14
7.26723e-13
2.23236e-13
6.49637e-13
1.85061e-13
5.87621e-13
9.96816e-14
5.75319e-13
7.16535e-14
5.74203e-13
6.7853e-15
4.73386e-13
1.00111e-13
4.6258e-13
5.25144e-14
1.87857e-13
5.65982e-13
2.53407e-13
-2.8936e-13
-1.08672e-13
5.63282e-13
-7.44898e-15
2.43624e-11
1.14491e-11
1.77237e-11
1.08933e-11
1.4091e-11
9.08447e-12
1.24192e-11
7.99902e-12
1.07667e-11
5.92176e-12
8.96305e-12
5.02118e-12
7.41359e-12
4.29474e-12
6.38039e-12
3.25271e-12
5.39722e-12
3.01875e-12
4.15166e-12
2.51777e-12
3.12555e-12
2.20913e-12
2.71627e-12
2.03368e-12
2.31244e-12
1.49902e-12
1.96028e-12
8.69085e-13
1.59339e-12
9.49781e-13
1.25852e-12
7.5355e-13
1.15298e-12
5.69142e-13
9.73616e-13
5.20049e-13
6.84619e-13
3.46839e-13
6.48043e-13
2.59819e-13
6.82585e-13
1.50521e-13
6.16811e-13
1.6547e-13
6.5857e-13
2.98982e-14
6.75352e-13
-9.96991e-15
4.64031e-13
3.11437e-13
4.73022e-13
4.35723e-14
1.99022e-13
8.3998e-13
1.08387e-13
-1.98653e-13
-2.64964e-13
9.36619e-13
-2.72371e-13
2.28483e-11
1.59297e-11
1.84259e-11
1.5315e-11
1.53597e-11
1.21512e-11
1.29874e-11
1.0371e-11
1.08778e-11
8.03137e-12
8.98144e-12
6.91748e-12
7.40502e-12
5.8711e-12
6.20281e-12
4.45487e-12
5.13922e-12
4.08229e-12
4.09388e-12
3.56307e-12
3.27125e-12
3.03175e-12
2.7544e-12
2.55051e-12
2.34078e-12
1.91263e-12
2.01509e-12
1.19477e-12
1.62207e-12
1.3428e-12
1.32295e-12
1.05267e-12
1.13817e-12
7.53927e-13
9.43674e-13
7.14548e-13
7.89565e-13
5.00951e-13
7.09183e-13
3.40206e-13
6.69734e-13
1.89972e-13
6.12508e-13
2.22709e-13
5.97539e-13
4.48703e-14
5.73898e-13
1.36978e-14
4.76405e-13
4.08933e-13
4.89047e-13
3.09779e-14
2.16158e-13
1.11287e-12
2.61617e-13
-2.44042e-13
-1.69731e-13
1.36795e-12
-4.42062e-13
2.24135e-11
2.02431e-11
1.85805e-11
1.91472e-11
1.56409e-11
1.50913e-11
1.30647e-11
1.29469e-11
1.08162e-11
1.02799e-11
8.92977e-12
8.80379e-12
7.37487e-12
7.42594e-12
6.08874e-12
5.74096e-12
5.01475e-12
5.15623e-12
4.09229e-12
4.4855e-12
3.3127e-12
3.81132e-12
2.78039e-12
3.08281e-12
2.41632e-12
2.2767e-12
1.99064e-12
1.62045e-12
1.59376e-12
1.73968e-12
1.32352e-12
1.32291e-12
1.11669e-12
9.60765e-13
9.2992e-13
9.01318e-13
8.04777e-13
6.26096e-13
7.16802e-13
4.28188e-13
6.60386e-13
2.4639e-13
6.10118e-13
2.7299e-13
5.81121e-13
7.38704e-14
5.34537e-13
6.03084e-14
4.73151e-13
4.70322e-13
4.89402e-13
1.4774e-14
2.35536e-13
1.36673e-12
3.32327e-13
-3.40766e-13
-1.77915e-13
1.87818e-12
-6.19938e-13
2.22722e-11
2.44924e-11
1.85084e-11
2.29103e-11
1.55455e-11
1.80546e-11
1.29895e-11
1.55026e-11
1.07038e-11
1.25657e-11
8.86043e-12
1.0647e-11
7.33693e-12
8.94938e-12
5.96985e-12
7.108e-12
4.90583e-12
6.22019e-12
4.05078e-12
5.34051e-12
3.3335e-12
4.52858e-12
2.84864e-12
3.56766e-12
2.43424e-12
2.6911e-12
1.91914e-12
2.13554e-12
1.55715e-12
2.10167e-12
1.30971e-12
1.57036e-12
1.10097e-12
1.16951e-12
9.38766e-13
1.06352e-12
8.12401e-13
7.52463e-13
7.12135e-13
5.28459e-13
6.51697e-13
3.06831e-13
6.03714e-13
3.20985e-13
5.80437e-13
9.71506e-14
5.29099e-13
1.11672e-13
4.77465e-13
5.21957e-13
4.91802e-13
4.82858e-16
2.71619e-13
1.58691e-12
3.81617e-13
-4.50698e-13
-2.49656e-13
2.50944e-12
-8.69557e-13
2.21179e-11
2.86827e-11
1.84189e-11
2.66086e-11
1.53896e-11
2.10844e-11
1.28231e-11
1.80688e-11
1.05624e-11
1.48265e-11
8.78005e-12
1.24293e-11
7.28747e-12
1.04419e-11
5.86344e-12
8.53199e-12
4.80846e-12
7.27513e-12
3.99589e-12
6.15304e-12
3.35707e-12
5.16738e-12
2.86646e-12
4.05825e-12
2.396e-12
3.16155e-12
1.87061e-12
2.66093e-12
1.54194e-12
2.43034e-12
1.29404e-12
1.81826e-12
1.07809e-12
1.38546e-12
9.34114e-13
1.20751e-12
8.12674e-13
8.73904e-13
7.02771e-13
6.38369e-13
6.37285e-13
3.72318e-13
5.89369e-13
3.68915e-13
5.79927e-13
1.06596e-13
5.38629e-13
1.52995e-13
5.04743e-13
5.55844e-13
5.14548e-13
-9.27702e-15
3.15714e-13
1.78574e-12
4.40566e-13
-5.75485e-13
-3.20427e-13
3.27043e-12
-1.18995e-12
2.19384e-11
3.28276e-11
1.82677e-11
3.02787e-11
1.5183e-11
2.41694e-11
1.2628e-11
2.06236e-11
1.04116e-11
1.70429e-11
8.64723e-12
1.41936e-11
7.17972e-12
1.19094e-11
5.86547e-12
9.84619e-12
4.78369e-12
8.35687e-12
3.93983e-12
6.99687e-12
3.395e-12
5.71219e-12
2.85198e-12
4.60126e-12
2.32326e-12
3.69027e-12
1.8453e-12
3.13889e-12
1.54407e-12
2.73156e-12
1.29474e-12
2.06759e-12
1.07681e-12
1.6034e-12
9.32334e-13
1.35199e-12
8.10898e-13
9.95343e-13
6.99231e-13
7.50041e-13
6.32151e-13
4.394e-13
5.80249e-13
4.20829e-13
5.80008e-13
1.0684e-13
5.47243e-13
1.85785e-13
5.36611e-13
5.66478e-13
5.40438e-13
-1.30595e-14
2.99438e-13
2.02674e-12
4.59239e-13
-7.35224e-13
-2.92605e-13
4.02226e-12
-1.48252e-12
2.16983e-11
3.69342e-11
1.80808e-11
3.38956e-11
1.49814e-11
2.72692e-11
1.2442e-11
2.31627e-11
1.02673e-11
1.92176e-11
8.51863e-12
1.59422e-11
7.07763e-12
1.33503e-11
5.82987e-12
1.10939e-11
4.77151e-12
9.41518e-12
3.93465e-12
7.8337e-12
3.33909e-12
6.30773e-12
2.76775e-12
5.17258e-12
2.24813e-12
4.20988e-12
1.81826e-12
3.56877e-12
1.52421e-12
3.02561e-12
1.27975e-12
2.31204e-12
1.06644e-12
1.81671e-12
9.14795e-13
1.50364e-12
7.96683e-13
1.11346e-12
6.88966e-13
8.57765e-13
6.24991e-13
5.03377e-13
5.71272e-13
4.74561e-13
5.77825e-13
1.0029e-13
5.53093e-13
2.10542e-13
5.71254e-13
5.48318e-13
5.68949e-13
-1.07101e-14
3.08015e-13
2.28766e-12
5.20206e-13
-9.47353e-13
-2.75324e-13
4.81778e-12
-1.75781e-12
2.1411e-11
4.10101e-11
1.785e-11
3.7456e-11
1.47704e-11
3.03492e-11
1.22549e-11
2.5678e-11
1.01314e-11
2.13411e-11
8.40168e-12
1.76718e-11
6.97315e-12
1.47788e-11
5.75541e-12
1.23116e-11
4.73251e-12
1.0438e-11
3.91351e-12
8.65267e-12
3.26898e-12
6.95224e-12
2.6944e-12
5.74714e-12
2.1847e-12
4.71958e-12
1.7907e-12
3.96278e-12
1.4941e-12
3.3222e-12
1.2604e-12
2.54575e-12
1.06142e-12
2.0157e-12
9.06006e-13
1.65906e-12
7.91918e-13
1.22755e-12
6.85989e-13
9.637e-13
6.27095e-13
5.62273e-13
5.70558e-13
5.31111e-13
5.74282e-13
9.65675e-14
5.55254e-13
2.29594e-13
5.71443e-13
5.32131e-13
5.6262e-13
-1.84392e-15
2.90636e-13
2.55965e-12
4.54969e-13
-1.11163e-12
-3.83264e-13