/*--------------------------------*- C++ -*----------------------------------*\
| =========                 |                                                 |
| \\      /  F ield         | OpenFOAM: The Open Source CFD Toolbox           |
|  \\    /   O peration     | Version:  2.4.0                                 |
|   \\  /    A nd           | Web:      www.OpenFOAM.org                      |
|    \\/     M anipulation  |                                                 |
\*---------------------------------------------------------------------------*/
FoamFile
{
    version     2.0;
    format      ascii;
    class       surfaceScalarField;
    location    "0.034";
    object      phiAlpha;
}
// * * * * * * * * * * * * * * * * * * * * * * * * * * * * * * * * * * * * * //

dimensions      [0 3 -1 0 0 0 0];

internalField   nonuniform List<scalar> 
114720
(
-1.68307e-10
1.35984e-10
3.21824e-10
-2.89501e-10
4.32479e-10
-5.34292e-10
-4.25016e-11
1.44314e-10
8.75579e-10
-9.93488e-10
-4.5167e-11
1.63076e-10
1.40129e-09
-1.54019e-09
-4.62294e-11
1.85131e-10
1.99378e-09
-2.13699e-09
-3.46009e-11
1.77815e-10
2.55895e-09
-2.67565e-09
-3.89768e-12
1.20599e-10
2.95698e-09
-3.01098e-09
4.66277e-11
7.37345e-12
3.04039e-09
-2.99917e-09
1.12028e-10
-1.53254e-10
2.68661e-09
-2.52512e-09
1.85164e-10
-3.46652e-10
1.79781e-09
-1.49413e-09
2.64875e-10
-5.68555e-10
2.85741e-10
1.78566e-10
3.48057e-10
-8.12363e-10
-1.88578e-09
2.49795e-09
4.20537e-10
-1.03271e-09
-4.60037e-09
5.3043e-09
4.56556e-10
-1.16048e-09
-7.5668e-09
8.27583e-09
4.40479e-10
-1.14951e-09
-1.04121e-08
1.10404e-08
3.74259e-10
-1.00254e-09
-1.28154e-08
1.33032e-08
2.74763e-10
-7.62508e-10
-1.45797e-08
1.48984e-08
1.61878e-10
-4.80601e-10
-1.56298e-08
1.57772e-08
5.30854e-11
-2.00427e-10
-1.59896e-08
1.59825e-08
-3.95463e-11
4.67196e-11
-1.57491e-08
1.56145e-08
-1.13394e-10
2.48013e-10
-1.50199e-08
1.47829e-08
-1.72837e-10
4.09841e-10
-1.38971e-08
1.35768e-08
-2.24275e-10
5.44559e-10
-1.24546e-08
1.2068e-08
-2.69439e-10
6.56075e-10
-1.0767e-08
1.03352e-08
-3.04614e-10
7.3637e-10
-8.93031e-09
8.47859e-09
-3.25845e-10
7.77565e-10
-7.05702e-09
6.61399e-09
-3.28979e-10
7.7201e-10
-5.25808e-09
4.84611e-09
-3.16336e-10
7.28307e-10
-3.61268e-09
3.24464e-09
-2.92629e-10
6.60666e-10
-2.15592e-09
1.83406e-09
-2.63985e-10
5.85849e-10
-8.83439e-10
6.02673e-10
-2.35491e-10
5.16258e-10
1.7577e-10
1.07675e-09
-8.79487e-10
-3.73035e-10
9.32978e-10
-6.66317e-10
-1.13179e-09
8.65127e-10
1.8228e-09
-8.33435e-10
-2.08425e-09
1.09489e-09
3.00924e-09
-1.03443e-09
-3.355e-09
1.38018e-09
4.53982e-09
-1.16412e-09
-4.96723e-09
1.59154e-09
6.37627e-09
-1.15441e-09
-6.86593e-09
1.64407e-09
8.42336e-09
-9.78517e-10
-8.9467e-09
1.50186e-09
1.05588e-08
-6.46137e-10
-1.10836e-08
1.171e-09
1.26437e-08
-1.67111e-10
-1.313e-08
6.53427e-10
1.44875e-08
4.8501e-10
-1.48746e-08
-9.78698e-11
1.58142e-08
1.29858e-09
-1.60268e-08
-1.08594e-09
1.63392e-08
2.11622e-09
-1.63253e-08
-2.13018e-09
1.59311e-08
2.70225e-09
-1.56927e-08
-2.94065e-09
1.46729e-08
2.91066e-09
-1.42559e-08
-3.3276e-09
1.27846e-08
2.751e-09
-1.22521e-08
-3.28352e-09
1.05275e-08
2.32689e-09
-9.9442e-09
-2.91016e-09
8.16048e-09
1.74942e-09
-7.58816e-09
-2.32174e-09
5.92103e-09
1.11487e-09
-5.41007e-09
-1.62583e-09
3.97988e-09
5.09321e-10
-3.55781e-09
-9.3139e-10
2.41493e-09
-1.92233e-11
-2.08881e-09
-3.06896e-10
1.23801e-09
-4.69133e-10
-1.00612e-09
2.37242e-10
4.36311e-10
-8.54329e-10
-2.93788e-10
7.11807e-10
-1.48354e-11
-1.16878e-09
7.68508e-11
1.10677e-09
-1.63815e-10
-1.38472e-09
1.62785e-10
1.38575e-09
-9.41088e-11
-1.47524e-09
5.52634e-11
1.51409e-09
8.81861e-11
-1.43627e-09
-1.37721e-10
1.4858e-09
2.77498e-10
-1.30109e-09
-3.15906e-10
1.33949e-09
4.00425e-10
-1.12043e-09
-4.16566e-10
1.13657e-09
4.30532e-10
-9.44753e-10
-4.24613e-10
9.38835e-10
3.81862e-10
-7.99951e-10
-3.62006e-10
7.80095e-10
1.76859e-10
1.87532e-09
-1.67498e-09
-3.77199e-10
9.57676e-10
-1.47676e-09
-1.16258e-09
1.68167e-09
1.87792e-09
-1.90459e-09
-2.1498e-09
2.17646e-09
3.11664e-09
-2.45974e-09
-3.48007e-09
2.82317e-09
4.73421e-09
-2.9414e-09
-5.19023e-09
3.39742e-09
6.70853e-09
-3.21609e-09
-7.24217e-09
3.74973e-09
8.96334e-09
-3.22143e-09
-9.55106e-09
3.80915e-09
1.13971e-08
-2.95235e-09
-1.20118e-08
3.56706e-09
1.38896e-08
-2.38233e-09
-1.44945e-08
2.98728e-09
1.62561e-08
-1.38867e-09
-1.67875e-08
1.9201e-09
1.81908e-08
9.94588e-11
-1.85584e-08
2.68119e-10
1.93307e-08
1.85159e-09
-1.94572e-08
-1.72509e-09
1.94369e-08
3.41914e-09
-1.92981e-08
-3.55798e-09
1.84976e-08
4.46471e-09
-1.81221e-08
-4.84016e-09
1.66837e-08
4.90051e-09
-1.61319e-08
-5.45234e-09
1.4268e-08
4.79113e-09
-1.36164e-08
-5.44268e-09
1.15737e-08
4.23867e-09
-1.09051e-08
-4.90732e-09
8.92414e-09
3.38726e-09
-8.30775e-09
-4.00366e-09
6.55765e-09
2.42807e-09
-6.03288e-09
-2.95283e-09
4.58448e-09
1.50733e-09
-4.16111e-09
-1.93069e-09
3.02098e-09
6.6903e-10
-2.69714e-09
-9.92871e-10
1.85721e-09
-9.04609e-11
-1.63064e-09
-1.36109e-10
1.0831e-09
-7.5063e-10
-9.49769e-10
6.17299e-10
6.72746e-10
-1.25086e-09
-6.21039e-10
1.19916e-09
5.61178e-10
-1.52756e-09
-5.67582e-10
1.53396e-09
6.37266e-10
-1.55843e-09
-6.69322e-10
1.59049e-09
7.65901e-10
-1.39117e-09
-7.91087e-10
1.41635e-09
8.28595e-10
-1.12028e-09
-8.25229e-10
1.11691e-09
7.63818e-10
-8.49223e-10
-7.27814e-10
8.13219e-10
5.79177e-10
-6.42504e-10
-5.21083e-10
5.8441e-10
1.75564e-10
2.68048e-09
-2.47858e-09
-3.77459e-10
9.55688e-10
-2.29557e-09
-1.15989e-09
2.49977e-09
1.87334e-09
-2.99171e-09
-2.14476e-09
3.26313e-09
3.11086e-09
-3.9139e-09
-3.47428e-09
4.27732e-09
4.72939e-09
-4.76722e-09
-5.18609e-09
5.22392e-09
6.70786e-09
-5.35428e-09
-7.24313e-09
5.88955e-09
8.97096e-09
-5.57834e-09
-9.56148e-09
6.16886e-09
1.14185e-08
-5.42088e-09
-1.20379e-08
6.04025e-09
1.39347e-08
-4.81809e-09
-1.45479e-08
5.43129e-09
1.63421e-08
-3.53805e-09
-1.68866e-08
4.08253e-09
1.83343e-08
-1.39723e-09
-1.87168e-08
1.77976e-09
1.95303e-08
1.3258e-09
-1.96677e-08
-1.18841e-09
1.9669e-08
3.96901e-09
-1.95329e-08
-4.10503e-09
1.87278e-08
5.97558e-09
-1.8347e-08
-6.35643e-09
1.68811e-08
7.12886e-09
-1.6317e-08
-7.69294e-09
1.44064e-08
7.42733e-09
-1.37367e-08
-8.09703e-09
1.16324e-08
6.94729e-09
-1.09424e-08
-7.63723e-09
8.89849e-09
5.88248e-09
-8.26334e-09
-6.51764e-09
6.46364e-09
4.54924e-09
-5.92503e-09
-5.08786e-09
4.43829e-09
3.22035e-09
-4.00254e-09
-3.6561e-09
2.82127e-09
1.98677e-09
-2.48248e-09
-2.32556e-09
1.59379e-09
8.38432e-10
-1.35139e-09
-1.08083e-09
7.63622e-10
-2.05544e-10
-6.21688e-10
6.36088e-11
3.41878e-10
-1.05655e-09
-2.98894e-10
1.01357e-09
3.00025e-10
-1.59609e-09
-3.37895e-10
1.63396e-09
5.34229e-10
-1.75155e-09
-6.15431e-10
1.83275e-09
8.69934e-10
-1.55551e-09
-9.45033e-10
1.63061e-09
1.10848e-09
-1.14166e-09
-1.13378e-09
1.16696e-09
1.10873e-09
-6.97169e-10
-1.06759e-09
6.56021e-10
8.55673e-10
-3.68217e-10
-7.64338e-10
2.76882e-10
1.73728e-10
3.49311e-09
-3.28914e-09
-3.77704e-10
9.5182e-10
-3.1106e-09
-1.15476e-09
3.31355e-09
1.86449e-09
-4.07584e-09
-2.13482e-09
4.34617e-09
3.09803e-09
-5.36648e-09
-3.46067e-09
5.72913e-09
4.71407e-09
-6.59358e-09
-5.17045e-09
7.04996e-09
6.69214e-09
-7.49578e-09
-7.22767e-09
8.0313e-09
8.95716e-09
-7.94167e-09
-9.54852e-09
8.53302e-09
1.14095e-08
-7.9013e-09
-1.20309e-08
8.52266e-09
1.39379e-08
-7.27851e-09
-1.45565e-08
7.89703e-09
1.63753e-08
-5.73142e-09
-1.69307e-08
6.28681e-09
1.84181e-08
-2.9468e-09
-1.88146e-08
3.34326e-09
1.96677e-08
7.61653e-10
-1.98156e-08
-6.13697e-10
1.98391e-08
4.50852e-09
-1.97066e-08
-4.64102e-09
1.89016e-08
7.50454e-09
-1.85172e-08
-7.88886e-09
1.70313e-08
9.39971e-09
-1.64573e-08
-9.97368e-09
1.4504e-08
1.01318e-08
-1.38162e-08
-1.08196e-08
1.16448e-08
9.74158e-09
-1.09302e-08
-1.04562e-08
8.81133e-09
8.45446e-09
-8.15363e-09
-9.11215e-09
6.29602e-09
6.72543e-09
-5.74208e-09
-7.27937e-09
4.21456e-09
4.98242e-09
-3.76567e-09
-5.43131e-09
2.53707e-09
3.36854e-09
-2.17941e-09
-3.72621e-09
1.22297e-09
1.84074e-09
-9.56394e-10
-2.10731e-09
2.98868e-10
3.84378e-10
-1.38941e-10
-5.44304e-10
-1.66172e-10
-8.94532e-10
2.04856e-10
8.55847e-10
-1.36322e-10
-1.8077e-09
5.69365e-11
1.88709e-09
3.28258e-10
-2.18587e-09
-4.89826e-10
2.34743e-09
1.02814e-09
-1.98213e-09
-1.20069e-09
2.15469e-09
1.63787e-09
-1.32815e-09
-1.73366e-09
1.42394e-09
1.82549e-09
-5.27302e-10
-1.78446e-09
4.86276e-10
1.4524e-09
8.78624e-11
-1.28881e-09
-2.51459e-10
1.71356e-10
4.31562e-09
-4.10892e-09
-3.78059e-10
9.46912e-10
-3.92012e-09
-1.14825e-09
4.12146e-09
1.85321e-09
-5.15519e-09
-2.12213e-09
5.42412e-09
3.08159e-09
-6.81563e-09
-3.44319e-09
7.17724e-09
4.69422e-09
-8.41854e-09
-5.15014e-09
8.87445e-09
6.67145e-09
-9.63831e-09
-7.20718e-09
1.0174e-08
8.93833e-09
-1.03085e-08
-9.53057e-09
1.09007e-08
1.13959e-08
-1.03902e-08
-1.20196e-08
1.10138e-08
1.39387e-08
-9.76206e-09
-1.45637e-08
1.03871e-08
1.64135e-08
-7.97321e-09
-1.6983e-08
8.5427e-09
1.8523e-08
-4.55929e-09
-1.89382e-08
4.97449e-09
1.98457e-08
1.4844e-10
-2.00088e-08
1.47313e-11
2.00656e-08
5.02958e-09
-1.99396e-08
-5.15562e-09
1.91397e-08
9.04571e-09
-1.8753e-08
-9.43244e-09
1.72465e-08
1.17122e-08
-1.66614e-08
-1.22973e-08
1.4657e-08
1.2916e-08
-1.39462e-08
-1.36267e-08
1.16869e-08
1.26471e-08
-1.09391e-08
-1.33949e-08
8.71697e-09
1.11291e-08
-8.02816e-09
-1.1818e-08
6.09399e-09
8.9684e-09
-5.52122e-09
-9.54117e-09
3.94829e-09
6.7993e-09
-3.48534e-09
-7.26225e-09
2.20265e-09
4.83368e-09
-1.82116e-09
-5.21517e-09
7.70011e-10
2.95822e-09
-4.66316e-10
-3.26191e-09
-3.11093e-10
1.07156e-09
5.08343e-10
-1.26882e-09
-8.9808e-10
-7.30122e-10
9.48315e-10
6.79886e-10
-8.4386e-10
-2.1911e-09
7.22883e-10
2.31208e-09
-9.87203e-11
-2.99696e-09
-1.79583e-10
3.27526e-09
1.19e-09
-2.91645e-09
-1.54818e-09
3.27463e-09
2.58337e-09
-1.9316e-09
-2.86162e-09
2.20985e-09
3.34996e-09
-4.01733e-10
-3.35382e-09
4.05595e-10
2.83378e-09
9.45136e-10
-2.50617e-09
-1.27275e-09
1.6833e-10
5.15069e-09
-4.94058e-09
-3.78435e-10
9.40962e-10
-4.72267e-09
-1.14035e-09
4.92205e-09
1.83947e-09
-6.22844e-09
-2.10669e-09
6.49566e-09
3.06153e-09
-8.26019e-09
-3.42184e-09
8.6205e-09
4.66987e-09
-1.02413e-08
-5.12517e-09
1.06966e-08
6.6458e-09
-1.17816e-08
-7.18172e-09
1.23175e-08
8.91456e-09
-1.26788e-08
-9.50774e-09
1.3272e-08
1.13778e-08
-1.28884e-08
-1.20039e-08
1.35146e-08
1.39369e-08
-1.22732e-08
-1.45695e-08
1.29059e-08
1.64567e-08
-1.02762e-08
-1.70435e-08
1.08631e-08
1.86494e-08
-6.2544e-09
-1.90886e-08
6.69359e-09
2.00664e-08
-5.32713e-10
-2.02496e-08
7.15886e-10
2.03519e-08
5.52119e-09
-2.0235e-08
-5.63816e-09
1.9446e-08
1.05953e-08
-1.90576e-08
-1.09837e-08
1.75309e-08
1.40707e-08
-1.69338e-08
-1.46679e-08
1.48715e-08
1.57985e-08
-1.41335e-08
-1.65365e-08
1.17636e-08
1.57e-08
-1.09725e-08
-1.64911e-08
8.61279e-09
1.39425e-08
-7.88271e-09
-1.46726e-08
5.85078e-09
1.12908e-08
-5.25665e-09
-1.18849e-08
3.6412e-09
8.6696e-09
-3.167e-09
-9.1438e-09
1.83414e-09
6.39901e-09
-1.42626e-09
-6.80689e-09
2.53154e-10
4.24755e-09
1.039e-10
-4.6046e-09
-1.0737e-09
1.94979e-09
1.33801e-09
-2.2141e-09
-1.91719e-09
-4.71063e-10
2.01552e-09
3.72728e-10
-1.97742e-09
-2.7133e-09
1.84042e-09
2.8503e-09
-1.00486e-09
-4.31693e-09
5.88486e-10
4.7333e-09
1.092e-09
-4.77714e-09
-1.76322e-09
5.44836e-09
4.02903e-09
-3.62223e-09
-4.77961e-09
4.37281e-09
6.66161e-09
-7.39579e-10
-7.00237e-09
1.08034e-09
6.4932e-09
2.75794e-09
-5.73492e-09
-3.51622e-09
1.64631e-10
6.00159e-09
-5.78718e-09
-3.79034e-10
9.33648e-10
-5.51675e-09
-1.13065e-09
5.71375e-09
1.82263e-09
-7.29425e-09
-2.08774e-09
7.55935e-09
3.03672e-09
-9.69899e-09
-3.39537e-09
1.00576e-08
4.63931e-09
-1.20611e-08
-5.09366e-09
1.25155e-08
6.61278e-09
-1.39252e-08
-7.14865e-09
1.4461e-08
8.88258e-09
-1.50527e-08
-9.47653e-09
1.56466e-08
1.13508e-08
-1.53966e-08
-1.19794e-08
1.60252e-08
1.39267e-08
-1.4816e-08
-1.45677e-08
1.54569e-08
1.64975e-08
-1.26533e-08
-1.71048e-08
1.32606e-08
1.879e-08
-8.05329e-09
-1.92585e-08
8.52179e-09
2.03237e-08
-1.30138e-09
-2.05319e-08
1.50959e-09
2.06925e-08
5.97188e-09
-2.05877e-08
-6.07668e-09
1.98156e-08
1.21499e-08
-1.94267e-08
-1.25387e-08
1.78818e-08
1.64773e-08
-1.72728e-08
-1.70863e-08
1.51493e-08
1.87954e-08
-1.43807e-08
-1.95641e-08
1.18777e-08
1.89429e-08
-1.10315e-08
-1.9789e-08
8.49161e-09
1.694e-08
-7.70681e-09
-1.77248e-08
5.5516e-09
1.37013e-08
-4.9346e-09
-1.43183e-08
3.29213e-09
1.05738e-08
-2.81573e-09
-1.10502e-08
1.45666e-09
8.06775e-09
-1.02539e-09
-8.49902e-09
-2.89264e-10
5.77671e-09
7.17081e-10
-6.20453e-09
-1.97054e-09
3.15616e-09
2.34413e-09
-3.52974e-09
-3.27395e-09
6.65162e-11
3.48406e-09
-2.76625e-10
-3.7284e-09
-3.20441e-09
3.65152e-09
3.2813e-09
-2.82711e-09
-6.13026e-09
2.33557e-09
6.6218e-09
-3.77512e-11
-8.03748e-09
-1.00502e-09
9.08026e-09
5.19468e-09
-7.93326e-09
-6.91311e-09
9.65169e-09
1.30288e-08
-3.96041e-09
-1.50469e-08
5.97853e-09
1.69252e-08
7.56639e-09
-1.43715e-08
-1.01201e-08
1.60133e-10
6.87228e-09
-6.65251e-09
-3.79901e-10
9.25324e-10
-6.30079e-09
-1.11957e-09
6.49503e-09
1.80334e-09
-8.35115e-09
-2.06602e-09
8.61384e-09
3.00828e-09
-1.11308e-08
-3.36499e-09
1.14875e-08
4.60419e-09
-1.3877e-08
-5.05743e-09
1.43302e-08
6.57472e-09
-1.60686e-08
-7.11051e-09
1.66044e-08
8.84555e-09
-1.74297e-08
-9.44028e-09
1.80244e-08
1.1319e-08
-1.7915e-08
-1.19501e-08
1.85461e-08
1.39126e-08
-1.73931e-08
-1.45625e-08
1.80431e-08
1.65404e-08
-1.51171e-08
-1.71714e-08
1.57481e-08
1.89506e-08
-9.97832e-09
-1.94544e-08
1.04821e-08
2.06256e-08
-2.17861e-09
-2.08647e-08
2.41764e-09
2.10969e-08
6.36892e-09
-2.10075e-08
-6.45834e-09
2.02583e-08
1.37051e-08
-1.987e-08
-1.40935e-08
1.83095e-08
1.89305e-08
-1.76894e-08
-1.95505e-08
1.55052e-08
2.19191e-08
-1.47036e-08
-2.27207e-08
1.20449e-08
2.24269e-08
-1.11295e-08
-2.33423e-08
8.35084e-09
2.01834e-08
-7.49173e-09
-2.10425e-08
5.17564e-09
1.62046e-08
-4.53481e-09
-1.68455e-08
2.89715e-09
1.2463e-08
-2.437e-09
-1.29231e-08
1.10892e-09
9.8153e-09
-6.66945e-10
-1.02573e-08
-7.88512e-10
7.61591e-09
1.30295e-09
-8.13035e-09
-2.94263e-09
4.87422e-09
3.47873e-09
-5.41033e-09
-4.97276e-09
1.17548e-09
5.38338e-09
-1.5861e-09
-6.24943e-09
-3.26311e-09
6.36971e-09
3.14283e-09
-6.07576e-09
-7.98788e-09
5.71656e-09
8.34707e-09
-3.57795e-09
-1.24877e-08
2.46691e-09
1.35987e-08
2.56549e-09
-1.61331e-08
-4.80264e-09
1.83702e-08
1.14339e-08
-1.30757e-08
-1.15387e-08
1.31806e-08
-8.07116e-09
2.73963e-08
2.05731e-08
-3.98982e-08
1.54696e-10
7.76766e-09
-7.54121e-09
-3.81145e-10
9.1601e-10
-7.07318e-09
-1.1071e-09
7.26427e-09
1.78157e-09
-9.39786e-09
-2.04152e-09
9.6578e-09
2.97617e-09
-1.25544e-08
-3.33068e-09
1.29089e-08
4.56447e-09
-1.5688e-08
-5.01643e-09
1.614e-08
6.53158e-09
-1.82116e-08
-7.06725e-09
1.87473e-08
8.80339e-09
-1.98098e-08
-9.39893e-09
2.04054e-08
1.1282e-08
-2.04433e-08
-1.19157e-08
2.1077e-08
1.38935e-08
-2.00069e-08
-1.45529e-08
2.06663e-08
1.65835e-08
-1.76805e-08
-1.72414e-08
1.83383e-08
1.913e-08
-1.20536e-08
-1.96755e-08
1.2599e-08
2.09733e-08
-3.18815e-09
-2.12494e-08
3.46422e-09
2.15686e-08
6.69972e-09
-2.14977e-08
-6.77052e-09
2.07772e-08
1.52562e-08
-2.03905e-08
-1.56428e-08
1.88181e-08
2.1425e-08
-1.8189e-08
-2.20542e-08
1.59508e-08
2.51747e-08
-1.51169e-08
-2.60086e-08
1.22831e-08
2.62121e-08
-1.12816e-08
-2.72136e-08
8.18387e-09
2.37642e-08
-7.22097e-09
-2.47271e-08
4.68416e-09
1.8806e-08
-4.01723e-09
-1.94729e-08
2.43895e-09
1.42426e-08
-2.02835e-09
-1.46532e-08
8.43831e-10
1.15663e-08
-4.22017e-10
-1.19881e-08
-1.12975e-09
9.8148e-09
1.74252e-09
-1.04276e-08
-3.87002e-09
7.32452e-09
4.62699e-09
-8.08149e-09
-6.932e-09
3.23867e-09
7.64475e-09
-3.95142e-09
-9.53748e-09
-2.27439e-09
1.00323e-08
1.7796e-09
-1.09859e-08
-8.85749e-09
1.10719e-08
8.77156e-09
-1.04614e-08
-1.62365e-08
9.95025e-09
1.67477e-08
-7.68797e-09
-2.32692e-08
7.04308e-09
2.39141e-08
-9.52446e-09
-5.59741e-09
1.30993e-08
2.02253e-09
-2.35e-08
6.08633e-08
1.94832e-08
-5.68462e-08
1.4814e-10
8.69371e-09
-8.45895e-09
-3.82902e-10
9.05418e-10
-7.83221e-09
-1.09285e-09
8.01964e-09
1.7567e-09
-1.0433e-08
-2.0135e-09
1.06898e-08
2.93931e-09
-1.39687e-08
-3.29123e-09
1.43206e-08
4.51846e-09
-1.74935e-08
-4.96882e-09
1.79439e-08
6.48097e-09
-2.03538e-08
-7.01627e-09
2.08891e-08
8.7529e-09
-2.21928e-08
-9.34902e-09
2.2789e-08
1.12357e-08
-2.29813e-08
-1.18715e-08
2.36171e-08
1.38636e-08
-2.26583e-08
-1.45322e-08
2.33269e-08
1.66184e-08
-2.03557e-08
-1.7306e-08
2.10433e-08
1.93197e-08
-1.43059e-08
-1.99137e-08
1.48999e-08
2.13607e-08
-4.35584e-09
-2.16805e-08
4.67564e-09
2.21028e-08
6.95082e-09
-2.20541e-08
-6.99945e-09
2.13682e-08
1.67992e-08
-2.09841e-08
-1.71833e-08
1.94043e-08
2.39512e-08
-1.87694e-08
-2.45861e-08
1.6494e-08
2.8553e-08
-1.56334e-08
-2.94136e-08
1.26166e-08
3.03685e-08
-1.15108e-08
-3.14743e-08
7.98225e-09
2.78222e-08
-6.86966e-09
-2.89347e-08
4.01005e-09
2.15193e-08
-3.31037e-09
-2.2219e-08
1.87583e-09
1.57488e-08
-1.57062e-09
-1.6054e-08
7.29629e-10
1.31585e-08
-3.87807e-10
-1.35003e-08
-1.14187e-09
1.2385e-08
1.83698e-09
-1.30801e-08
-4.55078e-09
1.07594e-08
5.59523e-09
-1.18039e-08
-8.97835e-09
6.65659e-09
1.00857e-08
-7.76396e-09
-1.337e-08
4.57248e-10
1.44032e-08
-1.49047e-09
-1.73068e-08
-7.50176e-09
1.81241e-08
6.68447e-09
-1.9956e-08
-1.68646e-08
2.0363e-08
1.64575e-08
-2.17231e-08
-2.28992e-08
2.2505e-08
2.21173e-08
-2.4667e-08
3.81071e-09
2.37391e-08
-2.88282e-09
-5.69992e-09
4.06163e-08
-1.99001e-09
-3.29251e-08
1.40242e-10
9.65793e-09
-9.41283e-09
-3.85341e-10
8.93935e-10
-8.57589e-09
-1.0772e-09
8.75915e-09
1.72934e-09
-1.14552e-08
-1.98269e-09
1.17085e-08
2.89877e-09
-1.53722e-08
-3.24781e-09
1.57212e-08
4.46779e-09
-1.92924e-08
-4.91636e-09
1.9741e-08
6.42516e-09
-2.24945e-08
-6.96008e-09
2.30295e-08
8.69718e-09
-2.45783e-08
-9.29387e-09
2.5175e-08
1.11838e-08
-2.55277e-08
-1.18216e-08
2.61655e-08
1.38266e-08
-2.53465e-08
-1.45041e-08
2.6024e-08
1.66482e-08
-2.31543e-08
-1.73684e-08
2.38745e-08
1.95244e-08
-1.67641e-08
-2.01748e-08
1.74145e-08
2.17967e-08
-5.70979e-09
-2.2168e-08
6.08111e-09
2.27114e-08
7.10776e-09
-2.26886e-08
-7.13051e-09
2.2042e-08
1.83313e-08
-2.16608e-08
-1.87125e-08
2.00768e-08
2.64949e-08
-1.944e-08
-2.71317e-08
1.71551e-08
3.20224e-08
-1.62804e-08
-3.28971e-08
1.30953e-08
3.497e-08
-1.18675e-08
-3.61977e-08
7.75018e-09
3.25796e-08
-6.4135e-09
-3.39163e-08
3.04804e-09
2.43876e-08
-2.29577e-09
-2.51399e-08
1.12348e-09
1.67126e-08
-1.01232e-09
-1.68238e-08
8.46534e-10
1.42912e-08
-6.87582e-10
-1.44502e-08
-6.03233e-10
1.52427e-08
1.34352e-09
-1.5983e-08
-4.75628e-09
1.55141e-08
6.22793e-09
-1.69857e-08
-1.11275e-08
1.17916e-08
1.27214e-08
-1.33855e-08
-1.76889e-08
5.62964e-09
1.94839e-08
-7.42463e-09
-2.54569e-08
-2.58695e-09
2.76692e-08
3.74681e-10
-3.26397e-08
-1.41443e-08
3.39413e-08
1.28427e-08
-3.35661e-08
-1.99066e-08
3.44661e-08
1.90066e-08
-3.09254e-08
-6.92892e-09
2.56185e-08
1.22358e-08
-3.53828e-09
7.50504e-09
-4.47569e-09
5.08615e-10
1.30714e-10
1.06696e-08
-1.04117e-08
-3.88667e-10
8.81519e-10
-9.30205e-09
-1.06001e-09
9.48054e-09
1.69928e-09
-1.24631e-08
-1.94885e-09
1.27127e-08
2.85416e-09
-1.67637e-08
-3.2e-09
1.71096e-08
4.41186e-09
-2.10838e-08
-4.85839e-09
2.15303e-08
6.36331e-09
-2.46337e-08
-6.89775e-09
2.51681e-08
8.63513e-09
-2.69659e-08
-9.2323e-09
2.75631e-08
1.11249e-08
-2.80816e-08
-1.17643e-08
2.87209e-08
1.378e-08
-2.8069e-08
-1.44654e-08
2.87545e-08
1.66676e-08
-2.60874e-08
-1.7423e-08
2.68428e-08
1.97393e-08
-1.94607e-08
-2.04548e-08
2.01762e-08
2.22802e-08
-7.28294e-09
-2.2712e-08
7.71469e-09
2.33969e-08
7.15547e-09
-2.34038e-08
-7.14852e-09
2.28004e-08
1.98526e-08
-2.24213e-08
-2.02317e-08
2.08333e-08
2.90401e-08
-2.01988e-08
-2.96746e-08
1.79449e-08
3.55162e-08
-1.70799e-08
-3.63811e-08
1.37887e-08
4.00774e-08
-1.24303e-08
-4.14358e-08
7.5074e-09
3.83969e-08
-5.82531e-09
-4.0079e-08
1.62613e-09
2.75264e-08
-7.72997e-10
-2.83796e-08
8.47405e-12
1.67174e-08
-2.20178e-10
-1.65057e-08
1.19453e-09
1.44916e-08
-1.35329e-09
-1.43328e-08
6.06769e-10
1.81758e-08
4.22654e-11
-1.88249e-08
-3.89826e-09
2.23541e-08
5.93424e-09
-2.43901e-08
-1.2354e-08
1.88106e-08
1.41833e-08
-2.06398e-08
-1.93651e-08
1.43345e-08
2.20703e-08
-1.70397e-08
-2.68129e-08
1.16052e-08
3.06304e-08
-1.54227e-08
-1.04436e-08
-5.1706e-09
-1.5686e-10
1.22851e-08
-3.39324e-08
-1.95356e-08
3.28327e-08
1.59199e-09
-8.93235e-09
-1.54437e-08
8.87149e-09
-6.38377e-11
-6.84535e-09
-9.82493e-09
4.42116e-09
-1.87672e-11
1.19212e-10
1.17404e-08
-1.14664e-08
-3.93173e-10
8.68248e-10
-1.00081e-08
-1.04126e-09
1.01811e-08
1.66651e-09
-1.34553e-08
-1.91197e-09
1.37008e-08
2.80547e-09
-1.81419e-08
-3.14778e-09
1.84842e-08
4.35063e-09
-2.28666e-08
-4.79488e-09
2.33109e-08
6.29537e-09
-2.67707e-08
-6.82923e-09
2.73045e-08
8.5667e-09
-2.93553e-08
-9.16426e-09
2.99529e-08
1.10589e-08
-3.06409e-08
-1.16994e-08
3.12814e-08
1.37226e-08
-3.0821e-08
-1.44144e-08
3.15128e-08
1.66726e-08
-2.91644e-08
-1.74653e-08
2.9957e-08
1.9961e-08
-2.24318e-08
-2.07513e-08
2.32221e-08
2.28134e-08
-9.11213e-09
-2.33156e-08
9.6143e-09
2.41649e-08
7.07803e-09
-2.42058e-08
-7.03712e-09
2.36476e-08
2.1368e-08
-2.32685e-08
-2.17471e-08
2.16699e-08
3.15718e-08
-2.10398e-08
-3.22019e-08
1.8868e-08
3.89188e-08
-1.8051e-08
-3.97358e-08
1.48049e-08
4.56922e-08
-1.33348e-08
-4.71624e-08
7.32178e-09
4.5865e-08
-5.09361e-09
-4.80932e-08
-4.94581e-10
3.11828e-08
1.59313e-09
-3.22813e-08
-1.93661e-09
1.52904e-08
1.34568e-09
-1.46995e-08
1.01022e-09
1.31851e-08
-1.71292e-09
-1.24824e-08
3.55114e-09
1.93587e-08
-4.34222e-09
-1.85676e-08
6.85459e-09
2.8479e-08
-7.22711e-09
-2.81065e-08
4.72467e-09
2.58347e-08
9.08712e-10
-3.14677e-08
-9.41956e-09
1.05549e-08
4.91151e-09
-8.7259e-10
-6.05167e-12
-5.74605e-12
1.17699e-11
-1.43818e-16
-2.85874e-15
-4.6358e-14
4.41182e-14
-5.17586e-16
-9.76435e-15
-4.57488e-14
4.80163e-14
8.95168e-15
-9.31622e-15
1.65931e-15
2.84353e-15
4.8046e-15
-1.76139e-15
-8.4419e-15
1.09713e-15
9.06828e-15
1.05264e-10
1.28844e-08
-1.25906e-08
-3.99068e-10
8.54202e-10
-1.0691e-08
-1.0209e-09
1.08577e-08
1.63102e-09
-1.44306e-08
-1.87203e-09
1.46716e-08
2.75269e-09
-1.95055e-08
-3.09114e-09
1.9844e-08
4.28407e-09
-2.46399e-08
-4.72577e-09
2.50816e-08
6.22127e-09
-2.89052e-08
-6.75446e-09
2.94384e-08
8.49188e-09
-3.17461e-08
-9.08973e-09
3.23439e-08
1.09856e-08
-3.3204e-08
-1.16266e-08
3.3845e-08
1.36535e-08
-3.35951e-08
-1.43493e-08
3.42909e-08
1.66585e-08
-3.23928e-08
-1.74898e-08
3.32241e-08
2.01855e-08
-2.57183e-08
-2.10617e-08
2.65945e-08
2.33982e-08
-1.12399e-08
-2.39823e-08
1.1824e-08
2.50224e-08
6.85805e-09
-2.51019e-08
-6.77854e-09
2.45894e-08
2.28888e-08
-2.42062e-08
-2.3272e-08
2.25794e-08
3.40875e-08
-2.19512e-08
-3.47157e-08
1.99115e-08
4.20536e-08
-1.91958e-08
-4.27693e-08
1.62968e-08
5.16517e-08
-1.48048e-08
-5.31437e-08
7.36323e-09
5.5965e-08
-4.25767e-09
-5.90706e-08
-3.92053e-09
3.6382e-08
5.7623e-09
-3.82238e-08
-6.62945e-09
1.27142e-08
6.01701e-09
-1.21017e-08
-2.09963e-09
8.36584e-09
-3.10955e-10
-5.95525e-09
7.73867e-09
1.62192e-08
-5.20299e-09
-1.87549e-08
-1.53878e-08
3.84617e-08
1.31487e-08
-1.75146e-08
-5.10685e-11
4.46596e-11
1.94881e-13
-3.23364e-12
-1.58019e-14
3.3879e-13
1.44436e-13
-4.53048e-13
1.29512e-15
5.76056e-16
-2.42077e-17
-1.9443e-15
1.77921e-16
5.85151e-18
1.01463e-16
-2.83506e-16
-7.42072e-16
1.07015e-15
4.71918e-16
-1.81017e-15
-5.53771e-17
3.50594e-16
1.51956e-17
-8.77264e-16
1.28755e-19
-1.2052e-16
7.1126e-19
8.00987e-17
8.83358e-11
1.41194e-08
-1.3801e-08
-4.06713e-10
8.39566e-10
-1.13472e-08
-9.99012e-10
1.15067e-08
1.593e-09
-1.53877e-08
-1.82927e-09
1.56239e-08
2.69613e-09
-2.08532e-08
-3.03041e-09
2.11874e-08
4.21262e-09
-2.64026e-08
-4.65156e-09
2.68416e-08
6.14166e-09
-3.1037e-08
-6.67417e-09
3.15695e-08
8.41163e-09
-3.41378e-08
-9.00975e-09
3.4736e-08
1.09063e-08
-3.57686e-08
-1.15475e-08
3.64098e-08
1.35734e-08
-3.63807e-08
-1.42701e-08
3.70774e-08
1.66214e-08
-3.57772e-08
-1.74922e-08
3.6648e-08
2.04098e-08
-2.93669e-08
-2.13847e-08
3.03418e-08
2.40399e-08
-1.37151e-08
-2.47196e-08
1.43948e-08
2.59812e-08
6.47581e-09
-2.61048e-08
-6.35222e-09
2.56365e-08
2.44352e-08
-2.52427e-08
-2.4829e-08
2.35534e-08
3.66091e-08
-2.29156e-08
-3.72469e-08
2.10315e-08
4.46921e-08
-2.04773e-08
-4.52463e-08
1.84561e-08
5.73947e-08
-1.71928e-08
-5.86579e-08
7.95816e-09
7.02909e-08
-3.39744e-09
-7.48516e-08
-9.82741e-09
4.68567e-08
1.45205e-08
-5.15498e-08
-1.59896e-08
9.03014e-09
1.26721e-08
-5.71264e-09
9.49602e-10
-3.39027e-09
-1.41871e-09
3.85939e-09
-3.33156e-09
1.12501e-08
-2.20024e-15
-3.316e-13
-7.8726e-16
2.01295e-12
7.06112e-13
-2.4894e-15
3.3411e-15
6.02905e-15
2.29108e-14
-5.10714e-15
-1.43659e-14
2.5558e-14
2.07303e-14
-3.97173e-15
-2.87889e-13
1.51472e-13
1.42041e-13
-1.31683e-14
1.69035e-13
-2.84082e-13
-2.5299e-13
3.91638e-13
-1.83076e-16
1.24676e-15
4.87291e-16
-2.68432e-16
-2.53866e-16
1.10142e-15
-2.27371e-17
-6.73993e-16
5.47319e-14
-7.86132e-13
7.51017e-16
7.45932e-13
6.78206e-11
1.54671e-08
-1.51182e-08
-4.16699e-10
8.24213e-10
-1.19728e-08
-9.75273e-10
1.21238e-08
1.55205e-09
-1.63251e-08
-1.78324e-09
1.65563e-08
2.63512e-09
-2.21834e-08
-2.96483e-09
2.25131e-08
4.13523e-09
-2.81537e-08
-4.57106e-09
2.85895e-08
6.05496e-09
-3.31656e-08
-6.58665e-09
3.36973e-08
8.32393e-09
-3.65303e-08
-8.92218e-09
3.71286e-08
1.08184e-08
-3.83328e-08
-1.14592e-08
3.89736e-08
1.34786e-08
-3.91638e-08
-1.4172e-08
3.98572e-08
1.65509e-08
-3.93181e-08
-1.74602e-08
4.02273e-08
2.06226e-08
-3.3431e-08
-2.17108e-08
3.45192e-08
2.47359e-08
-1.6595e-08
-2.55267e-08
1.73858e-08
2.70457e-08
5.90825e-09
-2.72196e-08
-5.73435e-09
2.67934e-08
2.60366e-08
-2.638e-08
-2.645e-08
2.45741e-08
3.9202e-08
-2.39013e-08
-3.98748e-08
2.21254e-08
4.66112e-08
-2.17726e-08
-4.6964e-08
2.14267e-08
6.14813e-08
-2.0982e-08
-6.1926e-08
9.51769e-09
9.24612e-08
-1.69066e-09
-1.00288e-07
-1.79899e-08
7.5788e-08
2.90544e-08
-8.68524e-08
6.69849e-09
-2.30303e-08
-9.39154e-09
2.57234e-08
-1.44909e-10
1.30771e-10
1.7566e-11
-1.80963e-12
-9.92772e-15
8.79939e-15
5.502e-15
-4.70398e-15
-1.04864e-13
4.99759e-14
1.98024e-13
-2.22901e-14
-2.20192e-15
2.50375e-16
1.8922e-15
-4.08759e-17
-1.29567e-15
-2.04176e-16
1.1568e-15
3.79391e-16
-1.1683e-15
-4.62262e-14
4.56443e-14
1.7232e-15
-9.26302e-15
-1.26929e-14
2.94949e-15
1.0081e-14
4.54172e-17
-3.60618e-16
-7.75157e-17
3.76053e-16
2.45191e-16
-1.12639e-14
-7.85803e-16
7.49772e-16
1.19573e-17
-4.80246e-16
1.79701e-17
9.068e-16
4.30065e-11
1.69539e-08
-1.65675e-08
-4.29365e-10
8.08223e-10
-1.25629e-08
-9.49603e-10
1.27043e-08
1.50818e-09
-1.72418e-08
-1.73395e-09
1.74676e-08
2.56966e-09
-2.34949e-08
-2.8944e-09
2.38196e-08
4.05189e-09
-2.98919e-08
-4.48426e-09
3.03243e-08
5.96111e-09
-3.5291e-08
-6.49185e-09
3.58217e-08
8.22881e-09
-3.89233e-08
-8.82705e-09
3.95215e-08
1.0722e-08
-4.08949e-08
-1.1362e-08
4.15349e-08
1.33691e-08
-4.19262e-08
-1.40539e-08
4.26109e-08
1.6439e-08
-4.30098e-08
-1.7384e-08
4.39547e-08
2.08156e-08
-3.79733e-08
-2.20342e-08
3.91918e-08
2.54888e-08
-1.99465e-08
-2.64092e-08
2.0867e-08
2.8228e-08
5.12809e-09
-2.846e-08
-4.89602e-09
2.80741e-08
2.77319e-08
-2.76305e-08
-2.81756e-08
2.56325e-08
4.1993e-08
-2.48826e-08
-4.27429e-08
2.30339e-08
4.77464e-08
-2.28431e-08
-4.79371e-08
2.50169e-08
6.07723e-08
-2.65141e-08
-5.92751e-08
1.08616e-08
1.35396e-07
7.20908e-09
-1.53467e-07
2.37833e-08
8.54674e-08
-4.50057e-08
-6.42444e-08
-3.60107e-10
3.40962e-10
7.17757e-11
-2.70171e-11
-8.38823e-14
3.06106e-14
5.62014e-14
-1.48462e-15
-2.4001e-15
9.55266e-16
2.40217e-15
-8.82954e-16
-2.20337e-15
1.62324e-16
2.12245e-15
-3.96887e-17
-1.74988e-15
-4.99906e-16
1.6245e-15
6.43371e-16
-1.23374e-15
-8.72357e-16
1.16922e-15
1.08891e-15
-8.29279e-16
-9.784e-16
7.05654e-16
1.10385e-15
-2.55016e-13
-3.43731e-13
1.89175e-13
5.16756e-13
-7.53199e-14
-8.54885e-14
8.20213e-16
1.56576e-13
-3.49114e-17
-2.73903e-16
2.83761e-17
2.29551e-16
-7.54568e-17
-8.85276e-16
9.8732e-17
5.95399e-16
1.36484e-11
1.86107e-08
-1.81788e-08
-4.45519e-10
7.91851e-10
-1.31123e-08
-9.22129e-10
1.32426e-08
1.46175e-09
-1.81365e-08
-1.68183e-09
1.83566e-08
2.50036e-09
-2.4786e-08
-2.81978e-09
2.51054e-08
3.96353e-09
-3.1616e-08
-4.39217e-09
3.20446e-08
5.86145e-09
-3.74127e-08
-6.39125e-09
3.79425e-08
8.12828e-09
-4.13165e-08
-8.72657e-09
4.19147e-08
1.06197e-08
-4.34538e-08
-1.12589e-08
4.40929e-08
1.32488e-08
-4.46452e-08
-1.39186e-08
4.5315e-08
1.62804e-08
-4.68378e-08
-1.72558e-08
4.78132e-08
2.09836e-08
-4.30669e-08
-2.2353e-08
4.44363e-08
2.63084e-08
-2.3848e-08
-2.738e-08
2.49196e-08
2.95496e-08
4.10116e-09
-2.98497e-08
-3.8011e-09
2.95055e-08
2.95657e-08
-2.902e-08
-3.00512e-08
2.67389e-08
4.5176e-08
-2.58535e-08
-4.60614e-08
2.35682e-08
4.8476e-08
-2.33343e-08
-4.87098e-08
2.7776e-08
5.05826e-08
-3.19292e-08
-4.64294e-08
-1.18042e-08
2.25958e-07
2.58538e-08
-2.40008e-07
-1.15083e-08
1.5141e-08
2.6949e-10
-3.59826e-09
-6.27229e-14
5.57874e-14
1.0922e-14
-9.80598e-15
-1.1986e-13
4.66069e-15
1.96906e-13
-4.82622e-13
-1.06236e-15
6.76807e-16
1.11169e-15
-6.56438e-16
-1.02827e-15
-1.7411e-16
1.06769e-15
2.2556e-16
-8.58636e-16
-9.28603e-16
8.23688e-16
9.62342e-16
-7.69509e-16
-1.35546e-15
6.8404e-16
1.4662e-15
-2.48145e-15
-6.60486e-15
2.15346e-15
7.08998e-15
-3.18339e-15
-4.73206e-15
5.69318e-15
2.17292e-15
-5.47712e-14
-1.16002e-13
-5.3057e-16
7.80197e-15
-3.56843e-17
-1.56034e-16
2.28519e-17
1.38985e-16
-1.16456e-17
-1.01694e-16
1.0165e-17
5.34403e-17
-2.85255e-11
2.04839e-08
-1.99894e-08
-4.65966e-10
7.75044e-10
-1.36149e-08
-8.9261e-10
1.37324e-08
1.41258e-09
-1.9008e-08
-1.62668e-09
1.92221e-08
2.42689e-09
-2.60553e-08
-2.74061e-09
2.6369e-08
3.86964e-09
-3.33245e-08
-4.29416e-09
3.37491e-08
5.75513e-09
-3.95305e-08
-6.28394e-09
4.00593e-08
8.02138e-09
-4.37098e-08
-8.61972e-09
4.43081e-08
1.05104e-08
-4.60093e-08
-1.11488e-08
4.66477e-08
1.31177e-08
-4.72935e-08
-1.37651e-08
4.79409e-08
1.6062e-08
-5.07753e-08
-1.70587e-08
5.17721e-08
2.11112e-08
-4.87992e-08
-2.2656e-08
5.0344e-08
2.7196e-08
-2.83907e-08
-2.84439e-08
2.96387e-08
3.10249e-08
2.78422e-09
-3.14057e-08
-2.4034e-09
3.11106e-08
3.1583e-08
-3.05729e-08
-3.21207e-08
2.79143e-08
4.89985e-08
-2.68289e-08
-5.00839e-08
2.35919e-08
4.99474e-08
-2.28926e-08
-5.06467e-08
2.49189e-08
3.3916e-08
-2.74444e-08
-3.13905e-08
-5.34533e-09
1.31375e-07
-1.9659e-08
-9.95946e-08
-1.25652e-11