/*--------------------------------*- C++ -*----------------------------------*\
| =========                 |                                                 |
| \\      /  F ield         | OpenFOAM: The Open Source CFD Toolbox           |
|  \\    /   O peration     | Version:  2.4.0                                 |
|   \\  /    A nd           | Web:      www.OpenFOAM.org                      |
|    \\/     M anipulation  |                                                 |
\*---------------------------------------------------------------------------*/
FoamFile
{
    version     2.0;
    format      ascii;
    class       volScalarField;
    location    "0.04";
    object      p_rgh;
}
// * * * * * * * * * * * * * * * * * * * * * * * * * * * * * * * * * * * * * //

dimensions      [1 -1 -2 0 0 0 0];

internalField   nonuniform List<scalar> 
57600
(
98.2653
98.4065
98.7428
99.2092
99.7489
100.267
100.63
100.676
100.209
99.0091
96.878
93.7437
89.7153
85.0495
80.0635
75.0623
70.2877
65.9065
62.0222
58.6921
55.9323
53.7205
52.0021
50.7026
49.7435
49.0528
48.5703
48.2483
48.0495
47.9446
98.2644
98.4728
98.8457
99.3365
99.8818
100.376
100.68
100.623
100.004
98.6006
96.2307
92.8644
88.6523
83.8741
78.8511
73.878
69.1782
64.9004
61.135
57.9298
55.2942
53.1994
51.5856
50.375
49.4881
48.8545
48.4161
48.1277
47.9545
47.8691
98.2622
98.4713
98.8442
99.3353
99.8819
100.379
100.688
100.64
100.035
98.649
96.296
92.9382
88.725
83.9369
78.8974
73.9042
69.1822
64.8784
61.0813
57.8404
55.1711
53.0504
51.4202
50.2015
49.3118
48.6777
48.2394
47.9515
47.7793
47.6953
98.2589
98.4688
98.8418
99.3333
99.8818
100.384
100.701
100.666
100.084
98.7281
96.4032
93.0607
88.8464
84.0419
78.9746
73.9477
69.1888
64.8429
60.9945
57.6955
54.9705
52.8064
51.1491
49.9174
49.0235
48.3892
47.9514
47.6641
47.4934
47.4124
98.2543
98.4652
98.8382
99.3304
99.8815
100.389
100.718
100.703
100.151
98.8378
96.553
93.2327
89.0175
84.1901
79.0833
74.0082
69.1981
64.7946
60.8756
57.4944
54.689
52.4616
50.7657
49.5167
48.6189
47.9856
47.5488
47.2617
47.093
47.0186
98.2485
98.4605
98.8337
99.3265
99.8811
100.397
100.739
100.749
100.237
98.9781
96.7458
93.4553
89.2394
84.3824
79.224
74.0862
69.2108
64.7359
60.7275
57.238
54.3229
52.0088
50.2611
48.9914
48.0915
47.462
47.026
46.735
46.5654
46.5049
98.2413
98.4549
98.828
99.3217
99.8803
100.405
100.765
100.804
100.34
99.149
96.9822
93.7293
89.5134
84.6204
79.3978
74.1821
69.2278
64.6698
60.555
56.9285
53.868
51.4373
49.6224
48.3295
47.4324
46.8121
46.3743
46.0617
45.863
45.8159
98.2329
98.4481
98.8213
99.316
99.8793
100.415
100.795
100.868
100.461
99.3502
97.2629
94.0563
89.8412
84.9057
79.6058
74.2959
69.2497
64.6002
60.3649
56.5701
53.3189
50.7322
48.8309
47.5137
46.629
46.0292
45.5875
45.2052
44.8208
44.612
98.223
98.4403
98.8135
99.3092
99.8778
100.426
100.829
100.941
100.598
99.5815
97.5888
94.4377
90.2247
85.2404
79.8498
74.4279
69.2763
64.5315
60.1674
56.1718
52.6702
49.8721
47.86
46.5194
45.6626
45.1086
44.6839
44.203
43.4259
43.0441
98.2118
98.4315
98.8047
99.3014
99.8759
100.438
100.866
101.021
100.75
99.8424
97.9609
94.8754
90.6663
85.6268
80.1315
74.5774
69.306
64.4684
59.9772
55.7496
51.9171
48.8262
46.6725
45.3114
44.5025
44.0421
43.7191
43.3167
42.7094
42.4185
98.1991
98.4217
98.7948
99.2925
99.8735
100.45
100.907
101.109
100.917
100.133
98.3803
95.3716
91.1687
86.0682
80.4534
74.7438
69.3346
64.415
59.8141
55.3331
51.059
47.5468
45.2156
43.8409
43.0907
42.7914
42.7123
42.6245
42.5949
42.5875
98.1849
98.4107
98.7837
99.2825
99.8704
100.464
100.95
101.204
101.097
100.452
98.8483
95.9285
91.7347
86.568
80.8185
74.926
69.354
64.3729
59.7029
54.9744
50.1086
45.952
43.4145
42.0438
41.3152
41.2387
41.6204
41.8992
42.2059
42.4511
98.169
98.3988
98.7716
99.2714
99.8665
100.477
100.996
101.304
101.289
100.798
99.3664
96.5491
92.3677
87.1303
81.2309
75.1237
69.3498
64.3396
59.6692
54.7617
49.118
43.8756
41.1603
39.8522
39.0151
38.9897
40.5194
41.052
41.258
41.2746
98.1513
98.3859
98.7583
99.259
99.8618
100.491
101.045
101.41
101.49
101.172
99.9365
97.2361
93.0709
87.7595
81.6957
75.3379
69.299
64.3061
59.7288
54.8306
48.2714
40.864
38.3592
37.3981
35.7626
23.569
16.7571
11.7807
8.36033
6.38137
98.1317
98.3719
98.7439
99.2453
99.8562
100.505
101.095
101.52
101.699
101.571
100.561
97.9928
93.8482
88.4604
82.2196
75.574
69.1677
64.2541
59.8593
55.358
48.1264
34.8693
0.266642
0.0904459
0.0752977
0.0663853
0.0634982
0.0626616
0.0641266
0.0655038
98.1101
98.357
98.7283
99.2303
99.8494
100.519
101.147
101.634
101.913
101.994
101.241
98.8229
94.7032
89.2382
82.8112
75.8436
68.9165
64.1275
59.9358
56.5084
50.1294
0.0667427
0.0602986
0.0633495
0.0632717
0.0625388
0.0618216
0.0606154
0.0614755
0.0623303
98.0861
98.3412
98.7116
99.2138
99.8414
100.533
101.199
101.752
102.129
102.438
101.981
99.7302
95.6395
90.0983
83.4828
76.1641
68.5485
63.3003
59.586
58.0088
0.145902
-0.0237404
0.0363208
0.0497633
0.0548973
0.056404
0.0624071
0.0575593
0.0580376
0.0587623
98.0596
98.3245
98.6938
99.1959
99.8321
100.545
101.252
101.872
102.343
102.901
102.783
100.719
96.6607
91.0462
84.2463
76.5501
68.3247
58.1354
57.7675
0.11774
-0.0436588
-0.059464
0.00752147
0.0312303
0.0437114
0.05033
0.0539132
0.0539406
0.054514
0.0596493
98.0303
98.3069
98.6748
99.1765
99.8212
100.557
101.306
101.994
102.551
103.377
103.652
101.794
97.7699
92.0866
85.0957
76.9895
68.7773
50.4296
2.97864
-0.075971
-0.0418165
-0.0578147
-0.0102031
0.0131943
0.031416
0.0428033
0.0482331
0.0513576
0.0513729
0.0518506
97.9976
98.2885
98.6546
99.1554
99.8086
100.568
101.358
102.119
102.749
103.864
104.594
102.959
98.9695
93.2225
86.0653
77.4243
68.9528
38.6319
0.0321901
-0.055959
-0.0364804
-0.0427354
-0.0197053
0.00240679
0.0225189
0.0365381
0.0460063
0.0484357
0.0484841
0.049086
97.9613
98.2693
98.6333
99.1326
99.7942
100.577
101.41
102.246
102.931
104.352
105.615
104.221
100.261
94.4549
87.1726
77.7775
73.6162
-0.158231
0.0038015
-0.0314044
-0.029372
-0.000425135
-0.0169743
0.000778124
0.0194666
0.0334337
0.0418032
0.0459522
0.0461698
0.046751
97.9207
98.2495
98.6108
99.108
99.7777
100.585
101.46
102.376
103.091
104.834
106.723
105.584
101.646
95.7821
88.4221
78.4016
68.8444
-0.0517935
0.00292529
-0.0141338
-0.0185619
-0.0139019
-0.00764975
0.00568635
0.021168
0.0329592
0.0401125
0.0428872
0.0445525
0.0451297
97.8749
98.229
98.5871
99.0815
99.7589
100.59
101.508
102.511
103.224
105.298
107.93
107.054
103.123
97.2001
89.7811
79.9678
-3.32038
0.0665738
0.0153925
-0.000981281
-0.00668827
-0.00490017
0.00190646
0.0128313
0.0249614
0.0339479
0.0394184
0.0422658
0.0436136
0.0440602
97.8229
98.208
98.5623
99.053
99.7377
100.593
101.553
102.651
103.321
105.729
109.25
108.637
104.689
98.7042
91.2119
82.317
-0.113785
0.0852736
0.0276452
0.00961926
0.00336029
0.00438396
0.0102774
0.0192016
0.0283627
0.035292
0.039581
0.0418972
0.0429671
0.0432625
97.7635
98.1866
98.5364
99.0225
99.7137
100.593
101.595
102.798
103.377
106.104
110.703
110.34
106.34
100.292
92.5825
86.9768
-0.0430489
0.0752549
0.0361329
0.017975
0.0114184
0.0118534
0.0167282
0.0238576
0.0308664
0.0361957
0.0395929
0.0414743
0.0423279
0.0425055
97.6949
98.1648
98.5095
98.9897
99.6866
100.59
101.633
102.955
103.389
106.399
112.312
112.168
108.067
101.967
93.6838
72.5988
0.0233849
0.0694547
0.0415179
0.0242825
0.0176007
0.0175041
0.0213654
0.026969
0.0323989
0.0365783
0.0393172
0.0408662
0.0415537
0.0416434
97.615
98.1429
98.4815
98.9546
99.6563
100.583
101.669
103.123
103.354
106.582
114.11
114.128
109.857
103.734
94.6363
2.2597
0.094746
0.0711272
0.0448126
0.0287222
0.0220698
0.02157
0.0245402
0.0289234
0.0331849
0.0365199
0.038758
0.040042
0.0405949
0.0406157
97.5208
98.1207
98.4528
98.9168
99.6225
100.57
101.705
103.3
103.284
106.627
116.135
116.224
111.691
105.591
96.3076
0.389157
0.148118
0.0746833
0.0465128
0.0313365
0.0249989
0.0242614
0.026533
0.0299902
0.0333872
0.0360912
0.0379385
0.0390056
0.0394477
0.0394152
97.4097
98.0986
98.4234
98.8758
99.5856
100.55
101.743
103.48
103.201
106.494
118.44
118.463
113.538
107.514
100.297
0.344161
0.155242
0.0748333
0.0464348
0.0322446
0.0265399
0.0257453
0.0275364
0.0303278
0.0330977
0.0353314
0.0368757
0.0377695
0.0381238
0.0380547
97.2963
98.0766
98.3936
98.8305
99.5464
100.52
101.791
103.645
103.155
106.068
121.088
120.846
115.357
109.465
105.251
0.351525
0.134082
0.0699738
0.0441139
0.0316354
0.0268073
0.0261575
0.0276841
0.0300331
0.0323661
0.0342601
0.0355805
0.0363453
0.0366375
0.0365505
47.9104
47.9352
48.0326
48.2257
48.5433
49.0223
49.7103
50.6669
51.964
53.6785
55.8831
58.6328
61.9547
65.8461
70.2651
75.117
80.2238
85.3114
90.0373
94.0585
97.1201
99.1383
100.223
100.598
100.491
100.099
99.5821
99.0662
98.6362
98.3408
47.85
47.8921
48.0124
48.2347
48.5896
49.1162
49.8659
50.9027
52.3022
54.1426
56.4924
59.3989
62.8792
66.9208
71.4717
76.419
81.5599
86.5961
91.1754
94.968
97.7568
99.5113
100.385
100.611
100.412
99.9732
99.4454
98.945
98.5459
98.2996
47.678
47.7222
47.8443
48.0677
48.4228
48.9493
49.7003
50.7424
52.1539
54.0147
56.3921
59.3289
62.8375
66.9038
71.4781
76.4498
81.6135
86.6663
91.2518
95.0393
97.8128
99.5479
100.405
100.621
100.416
99.9739
99.4445
98.9436
98.5445
98.2983
47.3992
47.4478
47.5731
47.7976
48.1517
48.6768
49.4288
50.479
51.9108
53.806
56.2294
59.2161
62.7706
66.8769
71.49
76.5026
81.7046
86.7838
91.3787
95.1565
97.9042
99.6073
100.438
100.638
100.423
99.9749
99.443
98.9412
98.5421
98.2962
47.0155
47.0736
47.2027
47.4251
47.7746
48.2947
49.0458
50.1064
51.5671
53.5127
56.0031
59.0609
62.6788
66.8397
71.5069
76.5773
81.8334
86.9498
91.5571
95.3203
98.0311
99.6892
100.484
100.66
100.431
99.9761
99.4407
98.9378
98.5387
98.2931
46.5311
46.6134
46.7397
46.9478
47.2861
47.7959
48.5426
49.6156
51.1155
53.1309
55.7133
58.8656
62.564
66.7924
71.5283
76.6744
82.0012
87.1656
91.788
95.5315
98.1938
99.7935
100.541
100.688
100.442
99.9774
99.4376
98.9334
98.5344
98.2893
45.945
46.1137
46.1806
46.3431
46.673
47.1679
47.9054
48.9931
50.5455
52.6557
55.3608
58.6339
62.4287
66.7351
71.5538
76.7947
82.2099
87.4329
92.073
95.7908
98.3922
99.9195
100.61
100.721
100.455
99.9789
99.4337
98.9279
98.529
98.2845
45.6146
45.582
45.3247
45.5297
45.9144
46.3892
47.1129
48.2198
49.8425
52.0807
54.9483
58.3719
62.2763
66.6673
71.5824
76.939
82.4618
87.754
92.4135
96.0994
98.6265
100.067
100.69
100.76
100.47
99.9804
99.4291
98.9214
98.5228
98.279
43.0228
44.3045
49.928
44.5947
44.9783
45.4216
46.1346
47.2695
48.9864
51.3989
54.4818
58.0891
62.1109
66.5873
71.6124
77.1085
82.7593
88.1312
92.8116
96.4583
98.8968
100.235
100.781
100.804
100.486
99.9819
99.4235
98.9138
98.5155
98.2727
41.6051
41.3007
42.1759
43.2562
43.7542
44.2117
44.9318
46.1064
47.9494
50.6028
53.9733
57.8005
61.9375
66.4914
71.6412
77.305
83.1041
88.5677
93.2696
96.869
99.2031
100.422
100.882
100.852
100.504
99.9832
99.4171
98.9052
98.5073
98.2657
41.3288
40.6544
41.2205
41.8521
42.2618
42.719
43.4616
44.6815
46.6905
49.6864
53.4459
57.5284
61.7609
66.3727
71.6651
77.5307
83.5025
89.0668
93.7901
97.3331
99.5455
100.628
100.991
100.905
100.524
99.9843
99.4096
98.8954
98.4982
98.2579
41.8619
40.9939
40.5703
40.4354
40.5102
40.8881
41.6752
42.9177
45.1441
48.6487
52.9415
57.3052
61.5842
66.2186
71.6792
77.789
83.9591
89.6326
94.3759
97.8524
99.924
100.851
101.109
100.962
100.545
99.9851
99.4012
98.8846
98.4882
98.2495
41.2084
40.2263
39.6786
38.6776
38.3813
38.5598
39.5238
40.6813
43.2042
47.5043
52.5325
57.1754
61.4051
66.0066
71.6782
78.0853
84.4798
90.2693
95.03
98.4292
100.338
101.09
101.234
101.022
100.566
99.9855
99.3917
98.8726
98.4773
98.2405
6.24526
5.38128
7.08395
10.3116
16.5348
30.1135
37.0562
37.7555
40.7986
46.3256
52.3387
57.1954
61.2074
65.6986
71.6573
78.4277
85.0715
90.9814
95.756
99.0657
100.789
101.342
101.366
101.085
100.589
99.9852
99.381
98.8594
98.4654
98.231
0.0647563
0.0647219
0.0641642
0.0665363
0.071083
0.0739197
0.0740718
0.0629204
38.2726
45.379
52.5518
57.424
60.9412
65.2283
71.6147
78.8274
85.7425
91.7738
96.5572
99.7646
101.274
101.605
101.502
101.15
100.612
99.9842
99.3691
98.845
98.4527
98.221
0.0624491
0.062078
0.062135
0.06339
0.0657331
0.0672773
0.069103
0.0631513
0.0528344
37.5568
53.5381
57.8976
60.4437
64.488
71.5591
79.2998
86.5021
92.6512
97.4373
100.529
101.795
101.876
101.642
101.217
100.635
99.9824
99.3558
98.8295
98.4391
98.2107
0.059111
0.0586004
0.0586356
0.0595762
0.0616123
0.0617998
0.0611165
0.0524804
0.0374459
-0.0269149
55.099
58.6287
59.0081
63.32
71.5176
79.865
87.3602
93.6181
98.4002
101.363
102.35
102.151
101.786
101.286
100.658
99.9794
99.3413
98.8126
98.4247
98.2002
0.0580608
0.0552815
0.0553093
0.0558419
0.0593717
0.0538445
0.0467287
0.030638
-0.0193493
-0.0618142
-0.0725874
60.5585
52.9337
61.2818
71.536
80.5476
88.3268
94.6784
99.4495
102.27
102.939
102.426
101.931
101.355
100.681
99.9752
99.3252
98.7945
98.4093
98.1896
0.0520897
0.0520276
0.0518235
0.0513295
0.0504588
0.0435892
0.0297607
0.00897636
-0.0211009
-0.0630099
0.0103969
0.0603073
44.4221
62.0261
71.6552
81.374
89.4113
95.835
100.589
103.256
103.56
102.695
102.078
101.425
100.703
99.9697
99.3077
98.7751
98.3932
98.1791
0.0492466
0.0490514
0.0484785
0.0474566
0.0434077
0.0342888
0.0168115
-0.00549388
-0.0403159
-0.0441128
0.0100543
-0.00684753
-9.7201
65.6839
71.8594
82.3808
90.6197
97.0896
101.822
104.327
104.213
102.95
102.225
101.494
100.724
99.9625
99.2885
98.7544
98.3761
98.1688
0.0468221
0.0464805
0.0455893
0.0436496
0.0390801
0.0289295
0.0111249
-0.0102716
-0.0325188
-0.0113034
-0.0109937
-0.0729319
-0.102487
73.7231
72.0384
83.6049
91.9542
98.4417
103.152
105.49
104.895
103.183
102.374
101.562
100.745
99.9536
99.2676
98.7322
98.3583
98.159
0.0451136
0.044627
0.0435182
0.0412997
0.036645
0.0273243
0.0115326
-0.00713138
-0.0224472
-0.0262164
-0.0239086
-0.0689039
-0.0771911
4.53243
72.0888
85.0673
93.4112
99.889
104.581
106.754
105.605
103.383
102.525
101.629
100.763
99.9426
99.2448
98.7086
98.3395
98.15
0.0439453
0.0433615
0.0421469
0.0398718
0.0355496
0.0279628
0.0149132
-4.25862e-05
-0.0144394
-0.0221358
-0.0280575
-0.0560974
-0.0431231
-0.406852
75.5522
86.8055
94.9791
101.426
106.113
108.131
106.341
103.533
102.68
101.692
100.78
99.9295
99.2202
98.6836
98.32
98.142
0.0430531
0.0423944
0.0411198
0.0388639
0.0349021
0.0280453
0.0174327
0.00439606
-0.00827976
-0.0179908
-0.0275533
-0.0463896
-0.0521575
-0.254507
81.3141
88.7539
96.6394
103.046
107.748
109.636
107.103
103.617
102.843
101.751
100.796
99.9138
99.1934
98.657
98.2995
98.1356
0.04222
0.0414983
0.040174
0.0379341
0.0342299
0.0282572
0.0194083
0.00821451
-0.00359123
-0.0142679
-0.025015
-0.0393311
-0.0523754
-0.115555
32.1314
90.851
98.3699
104.737
109.488
111.285
107.891
103.608
103.02
101.805
100.809
99.8954
99.1642
98.6288
98.2782
98.131
0.0413019
0.0405335
0.0391738
0.0369534
0.0334464
0.0280859
0.0204201
0.0106406
-0.000218412
-0.0109406
-0.0216559
-0.0333909
-0.0456486
-0.0675635
8.90431
92.81
100.151
106.485
111.331
113.1
108.711
103.476
103.218
101.851
100.819
99.8738
99.1325
98.599
98.2561
98.1288
0.0402354
0.0394406
0.0380713
0.0358927
0.0325658
0.0276717
0.0208655
0.0121949
0.00229665
-0.00794796
-0.0180755
-0.0280437
-0.0367226
-0.0376866
0.269302
93.7381
101.982
108.268
113.277
115.109
109.571
103.176
103.447
101.888
100.827
99.8486
99.0976
98.5675
98.233
98.1295
0.0390116
0.0382123
0.036863
0.0347561
0.0316159
0.0271197
0.0209927
0.0132254
0.00423546
-0.00527907
-0.0146731
-0.0230695
-0.0282419
-0.0176514
-0.0651703
93.9891
103.886
110.059
115.321
117.343
110.494
102.649
103.717
101.914
100.833
99.8192
99.059
98.5341
98.2091
98.1339
0.0376444
0.0368613
0.035559
0.0335525
0.0306111
0.026475
0.0209173
0.0139052
0.00573034
-0.00300176
-0.0115954
-0.0187662
-0.0215912
-0.00787915
0.103748
94.4102
105.878
111.82
117.459
119.839
111.522
101.823
104.036
101.925
100.837
99.7845
99.0159
98.4988
98.1842
98.1425
0.0361517
0.0354037
0.0341699
0.0322863
0.0295517
0.0257476
0.0206819
0.0143082
0.00683731
-0.00119109
-0.0090086
-0.0153611
-0.0171912
-0.00739868
0.0220857
45.1027
107.894
113.497
119.684
122.64
112.769
100.622
104.403
101.919
100.841
99.7431
98.9677
98.4613
98.1582
98.1568
-0.00194193
11.756
71.3922
98.7882
99.5141
100.482
101.847
103.736
103.193
105.378
123.558
122.895
116.775
111.064
86.77
0.0826402
0.108635
0.0630023
0.0405212
0.0301196
0.0261722
0.0257846
0.0272434
0.0293746
0.0314716
0.0331749
0.0343705
0.0350681
0.0353354
0.0352541
-0.00234791
0.0030056
0.00635792
0.0103593
4.34217
100.451
101.895
103.747
103.277
104.742
125.312
124.253
117.631
112.085
28.6953
-0.00451209
0.0902902
0.0573731
0.0376922
0.0287884
0.0254286
0.0252651
0.02674
0.0287892
0.030784
0.0324024
0.0335442
0.0342187
0.0344846
0.0344194
-0.0019664
0.00299518
0.00632977
0.0103497
0.0169609
0.0298522
90.7235
103.684
103.443
103.69
127.386
125.77
118.495
113.148
2.46522
0.00863176
0.0721805
0.0504047
0.0343677
0.0269648
0.0243018
0.0244372
0.0259808
0.0279888
0.0299112
0.0314678
0.032571
0.0332332
0.0335073
0.033466
-0.00163007
0.00298509
0.0062917
0.0103451
0.0169781
0.0300174
0.0613326
86.3839
103.724
102.012
129.868
127.46
119.332
114.189
-0.584004
-0.0687005
0.0544705
0.0423669
0.0303331
0.0245807
0.0227434
0.0232589
0.0249299
0.0269431
0.0288284
0.0303493
0.0314325
0.0320956
0.0323879
0.0323787
-0.00129845
0.00297587
0.00626199
0.010334
0.0169673
0.0300913
0.062113
0.115972
0.847629
99.3129
132.887
129.345
120.096
114.731
-0.306924
-0.0250121
0.0372983
0.0333791
0.0254546
0.0215654
0.0206929
0.0216781
0.0235426
0.0256142
0.0275019
0.0290159
0.0301013
0.0307814
0.0311036
0.0311361
-0.000978588
0.00296662
0.00622606
0.0103005
0.0169116
0.0300376
0.0622341
2.11136
0.0614945
100.119
136.639
131.438
120.731
114.455
-0.186457
-0.0489711
0.0205446
0.0234964
0.0196838
0.0178623
0.0180926
0.0196438
0.0217756
0.0239626
0.0258964
0.0274369
0.028549
0.0292642
0.0296316
0.0297167
-0.000681184
0.0029568
0.00618426
0.0102418
0.0168027
0.0298122
0.0611868
0.0524683
-0.0663011
74.2969
141.416
133.74
121.235
102.307
-0.360117
-0.0602439
0.00432778
0.0127766
0.0130172
0.0134242
0.0148873
0.017104
0.0195814
0.0219435
0.0239724
0.0255759
0.0267414
0.0275119
0.0279416
0.0280929
-0.000414723
0.00294586
0.00613349
0.0101569
0.0166335
0.029375
0.0591683
-0.0175032
-0.142501
7.43266
146.266
136.218
121.875
41.2121
0.152239
-0.0575793
-0.0112857
0.00134505
0.00547786
0.00821618
0.0110265
0.0140061
0.0169089
0.0195105
0.0216849
0.02339
0.0246406
0.0254903
0.0260005
0.0262329
-0.000183271
0.00293372
0.00607826
0.0100465
0.0163928
0.0286752
0.0582572
-0.212332
-0.188931
26.1707
156.792
138.786
123.658
-0.588171
0.113332
-0.0577089
-0.0267505
-0.0107029
-0.00289676
0.002219
0.00646828
0.0103002
0.0137064
0.0166127
0.0189861
0.020835
0.0222047
0.0231597
0.0237694
0.0240999
1.25752e-05
0.00291982
0.00601036
0.00990606
0.0160673
0.027661
0.0520738
-0.270975
-0.214331
1.04187
159.673
141.546
129.022
0.52438
0.0744112
-0.0648708
-0.0425934
-0.0233078
-0.0120427
-0.00456038
0.00118802
0.0059458
0.00992691
0.0132025
0.0158289
0.0178653
0.0193878
0.0204756
0.0212067
0.0216532
0.000174764
0.00290381
0.00592198
0.00972763
0.015634
0.0262805
0.0404957
-0.311586
-0.21737
0.00727332
156.119
136.889
136.016
0.139832
0.0151773
-0.0848549
-0.0594792
-0.0364211
-0.0218802
-0.0120988
-0.00483056
0.000907623
0.00552641
0.009231
0.0121607
0.0144274
0.0161365
0.0173855
0.0182617
0.0188407
0.000306197
0.00288482
0.00581584
0.00950822
0.0150773
0.0245002
0.0341362
-0.286023
-0.129511
-0.0193296
150.035
133.66
116.539
-0.687672
-0.167854
-0.117605
-0.0775706
-0.049886
-0.0322921
-0.0203483
-0.011587
-0.00483899
0.000467148
0.00465149
0.00793049
0.0104671
0.0123966
0.0138345
0.014877
0.0156054
0.00041052
0.00286125
0.00569432
0.00924171
0.0143897
0.0223167
0.0251829
-0.293125
-0.193446
-0.0885687
143.758
145.27
146.945
-0.361937
-0.377113
-0.156818
-0.0957777
-0.06334
-0.0431242
-0.0292538
-0.0190748
-0.0113112
-0.00528289
-0.000576547
0.00309263
0.00593426
0.00811485
0.00976588
0.0109949
0.0118901
0.000491483
0.00283133
0.0055613
0.00892589
0.0135692
0.0197646
0.0156125
-0.172944
-0.192878
-0.0428415
139.172
153.949
141.449
0.063173
-0.494018
-0.188132
-0.111618
-0.0762221
-0.0542345
-0.0387878
-0.0273012
-0.0185305
-0.0117523
-0.00648818
-0.00239349
0.000784329
0.0032399
0.00512403
0.00655731
0.00763441
0.000551962
0.00279295
0.00541055
0.00855453
0.0126154
0.0169194
0.00753725
-0.15
-0.149833
-0.0626747
161.186
167.676
158.387
-0.32548
-0.470369
-0.196182
-0.122145
-0.088054
-0.0656173
-0.0490041
-0.0363051
-0.0265195
-0.0189577
-0.0130984
-0.00854669
-0.005009
-0.00226035
-0.000128196
0.00152027
0.00278798
0.000594007
0.00274373
0.00523272
0.00812161
0.0115241
0.0138798
0.000735293
-0.103308
-0.113106
-0.0882466
175.729
174.426
171.521
-0.626625
-0.361656
-0.174398
-0.126447
-0.0992679
-0.0777196
-0.060165
-0.046204
-0.0353154
-0.0268963
-0.0203913
-0.0153514
-0.0114366
-0.0083844
-0.00599958
-0.00413552
-0.00267828
0.000619377
0.00268095
0.00502446
0.00762398
0.0103048
0.0107673
-0.00471366
-0.0776751
-0.091612
-0.0905498
62.7652
179.361
66.8415
-0.58144
-0.210945
-0.135437
-0.129748
-0.112537
-0.0918708
-0.072856
-0.057199
-0.0449364
-0.0355087
-0.0282802
-0.0227184
-0.0184158
-0.0150644
-0.0124383
-0.0103725
-0.00874106
0.000630089
0.00260226
0.00478335
0.00706195
0.00898202
0.00772048
-0.00881545
-0.0623566
-0.0798065
-0.100635
-0.206041
165.541
-0.213527
-0.229801
-0.0670271
-0.120061
-0.148093
-0.134192
-0.110569
-0.087957
-0.0694729
-0.0552804
-0.0445881
-0.036532
-0.0304171
-0.0257337
-0.0221093
-0.0192778
-0.0170479
-0.0152789
0.000628008
0.00250581
0.00450836
0.00643955
0.00759265
0.00487448
-0.0116611
-0.0521774
-0.0721396
-0.111612
-0.150092
-0.0608637
-0.271932
-0.178322
-0.0864141
-0.194766
-0.213376
-0.175701
-0.137116
-0.10613
-0.0828207
-0.0658734
-0.0536034
-0.0446296
-0.0379701
-0.0329566
-0.0291271
-0.0261648
-0.0238467
-0.0220137
0.000614758
0.00239005
0.00419965
0.00576547
0.00618327
0.00234649
-0.0133871
-0.0445605
-0.0647269
-0.0990258
-0.122574
-0.0661823
-0.209337
-0.200313
-0.301784
-0.416326
-0.367524
-0.254311
-0.17399
-0.126463
-0.0958756
-0.0754304
-0.061434
-0.0516027
-0.044528
-0.0393323
-0.0354441
-0.0324901
-0.0302154
-0.028443
0.000592007
0.00225374
0.0038583
0.00505332
0.00480699
0.000226552
-0.0141051
-0.0381967
-0.0559661
-0.0757945
-0.075393
-0.0144879
0.00888776
-0.205784
-0.565604
-0.771615
-0.615095
-0.369706
-0.216731
-0.144231
-0.105109
-0.0813944
-0.0661502
-0.0559186
-0.0488154
-0.0437579
-0.0400821
-0.0373693
-0.0353433
-0.0338171
0.000561162
0.0020964
0.00348715
0.0043217
0.0035179
-0.00142911
-0.013985
-0.0324182
-0.0461185
-0.053332
-0.034797
0.0282864
0.0775692
-0.21577
-0.742656
-1.10018
-0.819588
-0.463838
-0.243313
-0.148823
-0.104565
-0.0800592
-0.065223
-0.0557019
-0.0493398
-0.0449762
-0.0419336
-0.0397974
-0.0382998
-0.0372616
0.000522799
0.0019186
0.00309184
0.00359311
0.00236605
-0.00259979
-0.0132135
-0.0269708
-0.0362271
-0.0356446
-0.0124986
0.0389445
0.0905159
-0.15895
-0.660803
-1.04725
-0.77487
-0.426125
-0.217044
-0.127306
-0.0883948
-0.0682895
-0.0567269
-0.0496208
-0.0450819
-0.0421387
-0.0402432
-0.0390653
-0.0383915
-0.0380803
0.000476784
0.0017217
0.00268037
0.00289192
0.00139324
-0.00329784
-0.0119439
-0.0218511
-0.0272627
-0.0229643
-0.00250483
0.0329675
0.0605049
0.0138051
-0.347194
-0.597128
-0.462862
-0.19015
-0.128484
-0.0779196
-0.0572028
-0.0470404
-0.0415002
-0.0383326
-0.036532
-0.0355923
-0.0352305
-0.035272
-0.0356008
-0.0361364
0.000423116
0.00150751
0.00226142
0.00224168
0.000628167
-0.00356364
-0.0103363
-0.0171608
-0.019776
-0.0145008
0.000833789
0.0225676
0.0391764
0.0226373
-0.123295
-0.238311
-0.140311
-0.0398038
-0.0309818
-0.0247338
-0.0236319
-0.023805
-0.024411
-0.0252231
-0.026166
-0.0272074
-0.0283291
-0.0295141
-0.0307455
-0.032006
0.000362302
0.00127811
0.00184377
0.00166264
8.48761e-05
-0.00345698
-0.00853766
-0.0130055
-0.0138989
-0.00920204
0.000827968
0.011834
0.0150086
-0.0135799
-0.116313
-0.131628
0.00442701
0.0108924
0.00918249
0.00265366
-0.0032596
-0.00795246
-0.0116697
-0.0147051
-0.0172774
-0.0195305
-0.02156
-0.0234242
-0.0251574
-0.0267817
0.000294758
0.00103481
0.00143489
0.00116843
-0.000238966
-0.0030476
-0.00666689
-0.00942862
-0.00946423
-0.0060029
-0.000346273
0.00356024
-0.000706913
-0.0218594
-0.0529808
-0.0451187
-0.0118293
0.00628893
0.00924795
0.00640553
0.00214984
-0.00203786
-0.00576686
-0.00900204
-0.0118067
-0.0142576
-0.016422
-0.0183509
-0.020082
-0.0216434
0.000220155
0.000777373
0.00103847
0.000763239
-0.000361511
-0.00240485
-0.00480135
-0.0063921
-0.00614023
-0.00397454
-0.00128923
-0.000776646
-0.0053225
-0.0150245
-0.0222699
-0.0180153
-0.00739985
0.000292631
0.00303555
0.00250421
0.000425976
-0.00218258
-0.0048305
-0.00731193
-0.00955906
-0.0115622
-0.013337
-0.014904
-0.0162854
-0.0175043
0.000136638
0.000502697
0.000650889
0.000437729
-0.000314424
-0.00158835
-0.00297156
-0.0037838
-0.00354334
-0.00241992
-0.00138382
-0.00181223
-0.00447075
-0.00816432
-0.00990087
-0.00814279
-0.00471005
-0.00203565
-0.00102435
-0.00142842
-0.00269327
-0.00435505
-0.00611898
-0.00782358
-0.00939165
-0.010794
-0.0120278
-0.0131024
-0.0140322
-0.0148339
4.02119e-05
0.000203402
0.000258264
0.000164791
-0.00014263
-0.000642147
-0.00115801
-0.00143571
-0.00132872
-0.000946748
-0.000659198
-0.000893938
-0.00188889
-0.00300756
-0.00355002
-0.00336069
-0.00296297
-0.00292501
-0.00345231
-0.00444827
-0.00570987
-0.00705244
-0.00835082
-0.00953537
-0.0105766
-0.0114695
-0.012222
-0.0128483
-0.0133644
-0.0137869
0.0348834
0.0341828
0.0330244
0.0312604
0.0287074
0.0251673
0.0204702
0.0145598
0.00759653
6.50195e-05
-0.00719887
-0.0130167
-0.0148529
-0.00902247
-0.00183516
5.23849
109.512
114.751
121.555
125.181
114.141
99.35
104.721
101.902
100.846
99.7034
98.9243
86.2553
27.1427
9.48341
0.0340799
0.0334276
0.0323368
0.0306686
0.0282508
0.0248939
0.0204387
0.0148233
0.00818032
0.000946253
-0.00604179
-0.011541
-0.0135294
-0.00987225
0.0216849
0.837519
110.424
115.475
122.776
126.937
115.331
98.4334
104.927
101.882
100.849
31.3875
0.00376954
0.00235658
0.00105302
0.000469131
0.0331639
0.0325646
0.0315471
0.0299802
0.0277015
0.0245313
0.0203141
0.0149831
0.0086418
0.00166997
-0.00515634
-0.0106021
-0.0129129
-0.0112021
0.0163518
-0.226022
111.007
116.168
124.123
128.967
117.06
97.3859
105.141
101.854
0.0184141
0.0076577
0.00378605
0.00232186
0.00103723
0.000345749
0.0321215
0.0315813
0.0306443
0.029185
0.0270491
0.0240672
0.0200853
0.0150264
0.00896267
0.00221564
-0.00452384
-0.0101167
-0.0130217
-0.0131341
-0.00604198
0.211323
112.099
116.772
125.608
131.323
119.661
96.2314
105.341
0.0536201
0.0183983
0.00768166
0.00380579
0.00227356
0.00102063
0.000250924
0.0309313
0.0304584
0.0296099
0.0282655
0.0262773
0.0234839
0.0197329
0.0149326
0.00911809
0.00255168
-0.00417109
-0.010033
-0.013694
-0.0152355
-0.0233931
0.471852
112.98
117.188
127.254
134.074
123.67
-0.298545
-0.837647
0.055469
0.0184337
0.00768041
0.00381414
0.00223966
0.00100485
0.000195201
0.0295729
0.0291759
0.0284249
0.0272029
0.0253684
0.0227645
0.0192364
0.014677
0.00907979
0.0026419
-0.00414252
-0.0103831
-0.0148606
-0.0173101
-0.0118124
0.168186
100.376
117.2
129.084
137.288
129.697
0.306229
0.465821
0.0561117
0.0183371
0.00763332
0.00379282
0.00219577
0.000988916
0.000165015
0.0280207
0.0277093
0.0270653
0.0259739
0.0242987
0.0218849
0.018572
0.0142316
0.00881502
0.00244509
-0.00449318
-0.0112357
-0.0166114
-0.0195956
-0.00803884
-0.162154
6.79886
116.304
131.137
141.005
142.607
0.111992
-0.390337
0.053168
0.0180363
0.00753071
0.00374211
0.00214588
0.000971868
0.000148589
0.0262452
0.0260311
0.0255032
0.0245501
0.0230392
0.0208155
0.0177089
0.0135648
0.00828745
0.00191487
-0.00528709
-0.0126808
-0.0190971
-0.0226168
-0.0114966
-0.131583
1.20638
113.177
133.466
145.315
137.458
-0.0044655
-0.290335
0.0479027
0.0174681
0.00736617
0.00366503
0.00208505
0.000953065
0.000138256
0.0242113
0.0241056
0.0237042
0.0228985
0.0215573
0.0195225
0.0166118
0.0126397
0.00745525
0.000998351
-0.00659577
-0.0148228
-0.0225053
-0.026955
-0.0152263
0.0472793
-0.360246
103.88
136.14
147.273
124.44
-0.0891548
-0.389148
0.0603786
0.016583
0.00713041
0.00356414
0.00202418
0.000932295
0.000130221
0.0218777
0.0218921
0.0216287
0.0209808
0.0198154
0.0179686
0.0152432
0.011418
0.00627388
-0.000359384
-0.00849465
-0.0177812
-0.027058
-0.0331583
-0.0233927
0.0340442
0.0881042
88.0978
139.247
155.569
39.3167
-0.141305
-0.429341
0.0344491
0.0153586
0.00681162
0.00343506
0.0019528
0.000909087
0.000122893
0.0191921
0.0193411
0.0192288
0.0187486
0.0177663
0.0161102
0.0135613
0.00985762
0.00469774
-0.00221423
-0.0110678
-0.0216975
-0.0330119
-0.0417039
-0.0372567
0.00384754
-0.0199074
128.249
143.292
156.811
15.0419
-0.166383
-0.459554
0.0164829
0.0137706
0.00639132
0.0032712
0.00185828
0.000883337
0.000117079
0.0160992
0.0163974
0.0164485
0.0161477
0.015359
0.0138988
0.0115219
0.00791575
0.00268465
-0.00462034
-0.0144049
-0.026735
-0.0406557
-0.0529923
-0.0565727
-0.0528658
-0.242433
124.428
146.592
156.664
-0.152012
-0.167129
-0.421149
0.00868545
0.0117741
0.00585513
0.00307203
0.00174806
0.000855202
0.000114041
0.01254
0.0130001
0.0132285
0.0131209
0.0125379
0.0112821
0.00907836
0.00555278
0.000197328
-0.0076284
-0.0186037
-0.0330949
-0.0503373
-0.0673512
-0.0795187
-0.0970694
-0.00924343
99.1275
147.573
154.655
0.00190858
-0.159888
-0.314431
-0.00126671
0.00938453
0.00519858
0.00283867
0.00163005
0.000824392
0.000114132
0.00845189
0.0090845
0.00950288
0.0096036
0.00924042
0.00820271
0.00618177
0.0027307
-0.00279724
-0.0112878
-0.023786
-0.0410693
-0.0625772
-0.085247
-0.105376
-0.121568
-0.0580893
103.313
150.858
158.023
-0.00726019
-0.141032
-0.257319
-0.00920711
0.00667676
0.00442481
0.00257267
0.00151727
0.000790034
0.000116967
0.00378131
0.00459424
0.00521212
0.00553264
0.00540502
0.0046049
0.00278706
-0.000581422
-0.00632036
-0.0156428
-0.0301214
-0.0511474
-0.0783252
-0.107699
-0.135045
-0.167865
-0.173886
79.6406
174.569
163.853
-0.0972417
-0.121596
-0.134289
-0.0153615
0.00377633
0.00354075
0.00227007
0.00140348
0.000751287
0.000121496
-0.00150964
-0.000514346
0.000306314
0.000852018
0.000972592
0.000432153
-0.00115227
-0.00440983