/*--------------------------------*- C++ -*----------------------------------*\
| =========                 |                                                 |
| \\      /  F ield         | OpenFOAM: The Open Source CFD Toolbox           |
|  \\    /   O peration     | Version:  2.4.0                                 |
|   \\  /    A nd           | Web:      www.OpenFOAM.org                      |
|    \\/     M anipulation  |                                                 |
\*---------------------------------------------------------------------------*/
FoamFile
{
    version     2.0;
    format      ascii;
    class       surfaceScalarField;
    location    "0.04";
    object      phi;
}
// * * * * * * * * * * * * * * * * * * * * * * * * * * * * * * * * * * * * * //

dimensions      [0 3 -1 0 0 0 0];

internalField   nonuniform List<scalar> 
114720
(
-2.23368e-10
1.69436e-10
4.2088e-10
-3.66948e-10
5.46341e-10
-6.67517e-10
-5.31749e-11
1.74351e-10
1.06764e-09
-1.20062e-09
-5.6407e-11
1.89384e-10
1.64054e-09
-1.78251e-09
-5.49174e-11
1.96891e-10
2.21126e-09
-2.33251e-09
-3.65204e-11
1.57774e-10
2.6271e-09
-2.68201e-09
6.06814e-12
4.88376e-11
2.68869e-09
-2.62804e-09
7.40849e-11
-1.34729e-10
2.19899e-09
-1.9799e-09
1.64636e-10
-3.83729e-10
9.91187e-10
-5.76308e-10
2.74435e-10
-6.89314e-10
-1.09029e-09
1.7373e-09
4.05502e-10
-1.05251e-09
-4.17748e-09
5.07326e-09
5.39606e-10
-1.43538e-09
-8.24702e-09
9.34329e-09
6.38569e-10
-1.73484e-09
-1.29854e-08
1.41672e-08
6.67676e-10
-1.84944e-09
-1.78589e-08
1.89855e-08
6.17948e-10
-1.74461e-09
-2.22965e-08
2.32447e-08
5.01642e-10
-1.44989e-09
-2.58546e-08
2.65492e-08
3.48582e-10
-1.04315e-09
-2.83012e-08
2.8715e-08
1.85953e-10
-5.99784e-10
-2.95867e-08
2.97286e-08
3.29163e-11
-1.74759e-10
-2.9782e-08
2.96812e-08
-1.01089e-10
2.01896e-10
-2.90275e-08
2.87225e-08
-2.12823e-10
5.179e-10
-2.74842e-08
2.70123e-08
-3.01945e-10
7.73815e-10
-2.5302e-08
2.46975e-08
-3.69344e-10
9.7382e-10
-2.26215e-08
2.19183e-08
-4.15382e-10
1.1186e-09
-1.95873e-08
1.8823e-08
-4.39366e-10
1.20368e-09
-1.63584e-08
1.55706e-08
-4.44004e-10
1.23183e-09
-1.30943e-08
1.23209e-08
-4.30824e-10
1.20423e-09
-9.93907e-09
9.20894e-09
-4.05281e-10
1.13541e-09
-6.99743e-09
6.32914e-09
-3.72048e-10
1.04035e-09
-4.32591e-09
3.72605e-09
-3.35947e-10
9.35812e-10
-1.9349e-09
1.4009e-09
-3.0088e-10
8.34876e-10
2.19834e-10
1.38922e-09
-1.13545e-09
-4.73602e-10
1.14755e-09
-7.87921e-10
-1.3811e-09
1.02147e-09
2.16183e-09
-9.10057e-10
-2.44723e-09
1.19545e-09
3.41711e-09
-1.02219e-09
-3.76402e-09
1.36909e-09
4.88875e-09
-9.75209e-10
-5.26989e-09
1.35635e-09
6.43122e-09
-6.92958e-10
-6.79919e-09
1.06092e-09
7.83844e-09
-1.61413e-10
-8.13962e-09
4.62592e-10
8.89591e-09
5.92649e-10
-9.07914e-09
-4.09416e-10
9.39138e-09
1.56443e-09
-9.39835e-09
-1.55746e-09
9.05787e-09
2.77541e-09
-8.81118e-09
-3.0221e-09
7.58922e-09
4.08016e-09
-7.02988e-09
-4.6395e-09
4.85135e-09
5.12631e-09
-3.99729e-09
-5.98036e-09
1.05001e-09
5.59262e-09
-1.07494e-12
-6.64155e-09
-3.3365e-09
5.37519e-09
4.44263e-09
-6.48132e-09
-7.75795e-09
4.58164e-09
8.79707e-09
-5.62076e-09
-1.17546e-08
3.4451e-09
1.26364e-08
-4.3269e-09
-1.50227e-08
2.1769e-09
1.56943e-08
-2.84847e-09
-1.73909e-08
9.22713e-10
1.78276e-08
-1.35943e-09
-1.88016e-08
-2.19253e-10
1.90052e-08
1.56554e-11
-1.92932e-08
-1.20068e-09
1.9283e-08
1.21085e-09
-1.89559e-08
-2.0195e-09
1.87572e-08
2.21827e-09
-1.78946e-08
-2.68088e-09
1.75346e-08
3.0409e-09
-1.6227e-08
-3.1751e-09
1.57383e-08
3.66374e-09
-1.40981e-08
-3.47887e-09
1.35219e-08
4.05506e-09
-1.1684e-08
-3.58052e-09
1.10669e-08
4.19768e-09
-9.17541e-09
-3.49133e-09
8.56282e-09
4.10392e-09
-6.74339e-09
-3.2602e-09
6.17072e-09
3.83288e-09
-4.51084e-09
-2.94799e-09
3.99883e-09
3.46e-09
-2.53657e-09
-2.62061e-09
2.08986e-09
3.06733e-09
-8.19701e-10
-2.31295e-09
4.32469e-10
2.70019e-09
2.22244e-10
2.41989e-09
-2.16103e-09
-4.81102e-10
1.18661e-09
-1.74496e-09
-1.42983e-09
1.98818e-09
2.24795e-09
-2.08844e-09
-2.5492e-09
2.38968e-09
3.58203e-09
-2.46984e-09
-3.95521e-09
2.84302e-09
5.18166e-09
-2.59334e-09
-5.60423e-09
3.01591e-09
6.9215e-09
-2.30325e-09
-7.35132e-09
2.73307e-09
8.61713e-09
-1.5607e-09
-9.00599e-09
1.94956e-09
1.00754e-08
-4.00204e-10
-1.03769e-08
7.01671e-10
1.10997e-08
1.21016e-09
-1.12568e-08
-1.05309e-09
1.14142e-08
3.38895e-09
-1.134e-08
-3.46323e-09
1.06522e-08
5.942e-09
-1.02646e-08
-6.32954e-09
8.57681e-09
8.21727e-09
-7.86734e-09
-8.92674e-09
5.29278e-09
9.55728e-09
-4.34028e-09
-1.05098e-08
1.21129e-09
9.68715e-09
-1.43549e-10
-1.07549e-08
-3.13519e-09
8.74271e-09
4.19061e-09
-9.79814e-09
-7.26617e-09
7.07493e-09
8.20741e-09
-8.01617e-09
-1.08213e-08
5.03158e-09
1.158e-08
-5.79027e-09
-1.35657e-08
2.87651e-09
1.41028e-08
-3.41359e-09
-1.53927e-08
8.19472e-10
1.57017e-08
-1.12852e-09
-1.63151e-08
-1.0096e-09
1.64122e-08
9.12499e-10
-1.64122e-08
-2.58346e-09
1.63197e-08
2.67597e-09
-1.57745e-08
-3.89895e-09
1.5515e-08
4.15845e-09
-1.44989e-08
-4.92461e-09
1.40995e-08
5.32401e-09
-1.2709e-08
-5.60173e-09
1.22063e-08
6.10439e-09
-1.05663e-08
-5.89362e-09
1.00051e-08
6.4548e-09
-8.26084e-09
-5.81039e-09
7.68946e-09
6.38177e-09
-5.98162e-09
-5.43575e-09
5.44281e-09
5.97457e-09
-3.8866e-09
-4.88588e-09
3.41064e-09
5.36184e-09
-2.06969e-09
-4.29554e-09
1.66714e-09
4.69809e-09
-5.44775e-10
-3.74725e-09
2.09376e-10
4.08265e-09
2.20931e-10
3.46126e-09
-3.19997e-09
-4.82224e-10
1.18551e-09
-2.71782e-09
-1.42845e-09
2.96075e-09
2.24565e-09
-3.2942e-09
-2.54703e-09
3.59557e-09
3.58184e-09
-3.96527e-09
-3.95623e-09
4.33967e-09
5.18853e-09
-4.2891e-09
-5.61378e-09
4.71435e-09
6.94206e-09
-4.03168e-09
-7.37645e-09
4.46608e-09
8.65953e-09
-3.12988e-09
-9.05525e-09
3.5256e-09
1.01503e-08
-1.62644e-09
-1.04621e-08
1.93824e-09
1.12248e-08
5.5175e-10
-1.13979e-08
-3.78645e-10
1.16123e-08
3.64937e-09
-1.1558e-08
-3.7037e-09
1.09281e-08
7.46143e-09
-1.05565e-08
-7.83296e-09
8.90151e-09
1.10426e-08
-8.19644e-09
-1.17477e-08
5.61404e-09
1.33779e-08
-4.65196e-09
-1.434e-08
1.4752e-09
1.3988e-08
-3.86656e-10
-1.50765e-08
-2.96718e-09
1.30022e-08
4.04873e-09
-1.40838e-08
-7.21144e-09
1.08865e-08
8.18229e-09
-1.18573e-08
-1.08867e-08
8.11158e-09
1.16761e-08
-8.90097e-09
-1.37506e-08
5.06728e-09
1.43149e-08
-5.63153e-09
-1.56812e-08
2.09235e-09
1.60137e-08
-2.42482e-09
-1.66969e-08
-5.85692e-10
1.68171e-08
4.65478e-10
-1.68899e-08
-2.91699e-09
1.68217e-08
2.98518e-09
-1.63479e-08
-4.90658e-09
1.61086e-08
5.1458e-09
-1.51382e-08
-6.51041e-09
1.47462e-08
6.90245e-09
-1.33468e-08
-7.63057e-09
1.28298e-08
8.14762e-09
-1.11075e-08
-8.19003e-09
1.0507e-08
8.79052e-09
-8.60857e-09
-8.17376e-09
7.97756e-09
8.80476e-09
-6.07302e-09
-7.6743e-09
5.46903e-09
8.27828e-09
-3.73138e-09
-6.85037e-09
3.2064e-09
7.37535e-09
-1.76409e-09
-5.92321e-09
1.34625e-09
6.34104e-09
-2.32018e-10
-5.06521e-09
-8.48733e-11
5.3821e-09
2.18983e-10
4.51424e-09
-4.24972e-09
-4.83508e-10
1.18179e-09
-3.68821e-09
-1.42377e-09
3.93018e-09
2.23752e-09
-4.49866e-09
-2.53816e-09
4.7993e-09
3.57203e-09
-5.46309e-09
-3.94658e-09
5.83765e-09
5.18093e-09
-5.99193e-09
-5.60744e-09
6.41844e-09
6.94139e-09
-5.77285e-09
-7.37825e-09
6.2097e-09
8.67067e-09
-4.71812e-09
-9.07009e-09
5.11754e-09
1.01794e-08
-2.88243e-09
-1.04972e-08
3.20028e-09
1.12859e-08
-1.57234e-10
-1.14706e-08
3.41915e-10
1.17291e-08
3.84392e-09
-1.16908e-08
-3.88219e-09
1.11068e-08
8.93085e-09
-1.07472e-08
-9.29048e-09
9.11177e-09
1.38635e-08
-8.40652e-09
-1.45687e-08
5.80181e-09
1.72466e-08
-4.82556e-09
-1.82228e-08
1.58789e-09
1.83773e-08
-4.74804e-10
-1.94904e-08
-2.96286e-09
1.73728e-08
4.075e-09
-1.84849e-08
-7.33335e-09
1.48159e-08
8.33527e-09
-1.58179e-08
-1.11463e-08
1.13149e-08
1.19695e-08
-1.21381e-08
-1.41475e-08
7.36812e-09
1.47437e-08
-7.96433e-09
-1.61984e-08
3.45992e-09
1.65573e-08
-3.81885e-09
-1.73202e-08
-6.62149e-11
1.74675e-08
-8.11382e-11
-1.76305e-08
-3.14548e-09
1.75941e-08
3.18189e-09
-1.72184e-08
-5.8222e-09
1.70096e-08
6.03099e-09
-1.61122e-08
-8.06104e-09
1.57345e-08
8.43877e-09
-1.4337e-08
-9.72367e-09
1.38044e-08
1.02563e-08
-1.19769e-08
-1.06704e-08
1.1322e-08
1.13252e-08
-9.19599e-09
-1.08271e-08
8.47161e-09
1.15514e-08
-6.23623e-09
-1.02471e-08
5.51423e-09
1.0969e-08
-3.41991e-09
-9.0834e-09
2.7895e-09
9.71381e-09
-1.10692e-09
-7.6438e-09
6.46878e-10
8.10384e-09
4.62135e-10
-6.27815e-09
-7.348e-10
6.55081e-09
2.16447e-10
5.58259e-09
-5.31383e-09
-4.85212e-10
1.1771e-09
-4.65435e-09
-1.41782e-09
4.89506e-09
2.22709e-09
-5.69989e-09
-2.52677e-09
5.99957e-09
3.55935e-09
-6.96158e-09
-3.93404e-09
7.33627e-09
5.17079e-09
-7.7002e-09
-5.59879e-09
8.1282e-09
6.9396e-09
-7.52466e-09
-7.37943e-09
7.96448e-09
8.6831e-09
-6.32226e-09
-9.08696e-09
6.72612e-09
1.02132e-08
-4.16439e-09
-1.05383e-08
4.48954e-09
1.13588e-08
-9.16758e-10
-1.1558e-08
1.11592e-09
1.18729e-08
3.96718e-09
-1.18555e-08
-3.98453e-09
1.13325e-08
1.03466e-08
-1.09891e-08
-1.069e-08
9.3825e-09
1.66834e-08
-8.67838e-09
-1.73875e-08
6.04927e-09
2.11757e-08
-5.0564e-09
-2.21685e-08
1.74403e-09
2.28736e-08
-6.00555e-10
-2.4017e-08
-2.94367e-09
2.18725e-08
4.09232e-09
-2.30211e-08
-7.46958e-09
1.88877e-08
8.51539e-09
-1.99335e-08
-1.14584e-08
1.4672e-08
1.23271e-08
-1.55407e-08
-1.46414e-08
9.81125e-09
1.52794e-08
-1.04492e-08
-1.6846e-08
4.94265e-09
1.72373e-08
-5.33397e-09
-1.80956e-08
5.70895e-10
1.82758e-08
-7.51115e-10
-1.85539e-08
-3.23002e-09
1.85606e-08
3.22325e-09
-1.83282e-08
-6.59241e-09
1.81669e-08
6.75367e-09
-1.73985e-08
-9.53109e-09
1.70528e-08
9.87679e-09
-1.57026e-08
-1.18672e-08
1.51648e-08
1.2405e-08
-1.32447e-08
-1.3379e-08
1.25311e-08
1.40925e-08
-1.0128e-08
-1.39042e-08
9.2785e-09
1.47537e-08
-6.54987e-09
-1.34016e-08
5.63154e-09
1.43199e-08
-2.86063e-09
-1.18955e-08
1.99885e-09
1.27573e-08
3.10293e-10
-9.64219e-09
-9.14653e-10
1.02466e-08
2.13288e-09
-7.24746e-09
-2.31381e-09
7.42839e-09
2.13174e-10
6.6705e-09
-6.39643e-09
-4.87239e-10
1.17147e-09
-5.61495e-09
-1.41061e-09
5.85409e-09
2.21439e-09
-6.89692e-09
-2.5129e-09
7.19542e-09
3.54384e-09
-8.46054e-09
-3.91866e-09
8.83536e-09
5.15819e-09
-9.41477e-09
-5.58794e-09
9.84452e-09
6.93686e-09
-9.2891e-09
-7.38022e-09
9.73246e-09
8.69719e-09
-7.94526e-09
-9.10626e-09
8.35433e-09
1.02523e-08
-5.4773e-09
-1.05859e-08
5.81091e-09
1.14441e-08
-1.73875e-09
-1.16607e-08
1.9554e-09
1.20452e-08
3.99882e-09
-1.20541e-08
-3.98985e-09
1.16091e-08
1.16901e-08
-1.12869e-08
-1.20123e-08
9.71969e-09
1.94961e-08
-9.01842e-09
-2.01973e-08
6.36359e-09
2.51762e-08
-5.35107e-09
-2.61887e-08
1.95006e-09
2.75006e-08
-7.69745e-10
-2.86809e-08
-2.90194e-09
2.65343e-08
4.09437e-09
-2.77268e-08
-7.61834e-09
2.31421e-08
8.71257e-09
-2.42363e-08
-1.18196e-08
1.82272e-08
1.27457e-08
-1.91533e-08
-1.52341e-08
1.24376e-08
1.59236e-08
-1.31272e-08
-1.76266e-08
6.56188e-09
1.80545e-08
-6.98978e-09
-1.90156e-08
1.34522e-09
1.92317e-08
-1.56128e-09
-1.96448e-08
-3.12392e-09
1.97065e-08
3.06223e-09
-1.96731e-08
-7.1387e-09
1.95835e-08
7.2283e-09
-1.90287e-08
-1.0833e-08
1.87444e-08
1.11174e-08
-1.75266e-08
-1.3999e-08
1.70086e-08
1.4517e-08
-1.50579e-08
-1.63076e-08
1.43005e-08
1.7065e-08
-1.16381e-08
-1.75075e-08
1.06549e-08
1.84906e-08
-7.32305e-09
-1.74727e-08
6.12839e-09
1.86674e-08
-2.20866e-09
-1.59704e-08
8.6286e-10
1.73162e-08
3.16926e-09
-1.26773e-08
-4.3433e-09
1.38514e-08
6.63601e-09
-7.82333e-09
-6.75981e-09
7.94714e-09
2.09138e-10
7.783e-09
-7.50227e-09
-4.89868e-10
1.16452e-09
-6.56861e-09
-1.40165e-09
6.80574e-09
2.19859e-09
-8.08876e-09
-2.49559e-09
8.38577e-09
3.52416e-09
-9.95982e-09
-3.89898e-09
1.03346e-08
5.14118e-09
-1.11365e-08
-5.57279e-09
1.15681e-08
6.93059e-09
-1.10682e-08
-7.37785e-09
1.15155e-08
8.70966e-09
-9.59006e-09
-9.12456e-09
1.0005e-08
1.02926e-08
-6.82559e-09
-1.06357e-08
7.16864e-09
1.15365e-08
-2.63498e-09
-1.17734e-08
2.87194e-09
1.22409e-08
3.91676e-09
-1.22819e-08
-3.87574e-09
1.19333e-08
1.29404e-08
-1.1638e-08
-1.32357e-08
1.01231e-08
2.22941e-08
-9.42693e-09
-2.29904e-08
6.74667e-09
2.92581e-08
-5.7124e-09
-3.02923e-08
2.20941e-09
3.22842e-08
-9.86184e-10
-3.35074e-08
-2.83469e-09
3.13844e-08
4.08127e-09
-3.2631e-08
-7.77067e-09
2.76026e-08
8.92274e-09
-2.87547e-08
-1.2222e-08
2.20306e-08
1.32166e-08
-2.30252e-08
-1.5922e-08
1.52928e-08
1.66781e-08
-1.60489e-08
-1.85401e-08
8.33098e-09
1.9006e-08
-8.79691e-09
-2.00637e-08
2.26139e-09
2.0313e-08
-2.51071e-09
-2.08679e-08
-2.78133e-09
2.09951e-08
2.6542e-09
-2.12256e-08
-7.35288e-09
2.12398e-08
7.33862e-09
-2.10213e-08
-1.18282e-08
2.08429e-08
1.20066e-08
-1.98933e-08
-1.59933e-08
1.94377e-08
1.6449e-08
-1.75819e-08
-1.93573e-08
1.68224e-08
2.01167e-08
-1.40441e-08
-2.15878e-08
1.29818e-08
2.26501e-08
-9.22221e-09
-2.26516e-08
7.79753e-09
2.40763e-08
-2.65118e-09
-2.23982e-08
6.30234e-10
2.44191e-08
6.79638e-09
-1.94853e-08
-9.42948e-09
2.21184e-08
1.31208e-08
-7.8964e-09
-1.10405e-08
5.81608e-09
2.04181e-10
8.92606e-09
-8.63707e-09
-4.93177e-10
1.15672e-09
-7.51364e-09
-1.39141e-09
7.74834e-09
2.18046e-09
-9.27428e-09
-2.47573e-09
9.56956e-09
3.50155e-09
-1.14591e-08
-3.87636e-09
1.18339e-08
5.12156e-09
-1.28661e-08
-5.55528e-09
1.32998e-08
6.92316e-09
-1.28639e-08
-7.37489e-09
1.33157e-08
8.7235e-09
-1.12594e-08
-9.14496e-09
1.16808e-08
1.03374e-08
-8.21305e-09
-1.06908e-08
8.56641e-09
1.16387e-08
-3.61665e-09
-1.18988e-08
3.87669e-09
1.24634e-08
3.69732e-09
-1.25426e-08
-3.61807e-09
1.23108e-08
1.40743e-08
-1.20484e-08
-1.43366e-08
1.06004e-08
2.50683e-08
-9.91189e-09
-2.57568e-08
7.20623e-09
3.34307e-08
-6.14775e-09
-3.44892e-08
2.5277e-09
3.72497e-08
-1.25455e-09
-3.85228e-08
-2.74016e-09
3.64585e-08
4.04704e-09
-3.77654e-08
-7.92416e-09
3.23054e-08
9.14119e-09
-3.35225e-08
-1.26596e-08
2.61305e-08
1.37373e-08
-2.72082e-08
-1.67184e-08
1.84346e-08
1.75581e-08
-1.92743e-08
-1.9608e-08
1.0251e-08
2.01104e-08
-1.07534e-08
-2.12357e-08
3.29651e-09
2.15067e-08
-3.56753e-09
-2.21831e-08
-2.16774e-09
2.23802e-08
1.97057e-09
-2.29423e-08
-7.09257e-09
2.31016e-08
6.93321e-09
-2.33922e-08
-1.23096e-08
2.33852e-08
1.23166e-08
-2.29013e-08
-1.76548e-08
2.25674e-08
1.79888e-08
-2.09747e-08
-2.23293e-08
2.02705e-08
2.30334e-08
-1.76091e-08
-2.58219e-08
1.65812e-08
2.68498e-08
-1.29798e-08
-2.83473e-08
1.16412e-08
2.96858e-08
-6.96249e-09
-3.05973e-08
5.22668e-09
3.23332e-08
-5.5337e-10
-2.80622e-08
3.49197e-10
2.82664e-08
-1.08519e-08
1.05884e-08
1.71285e-08
-1.6865e-08
1.98128e-10
1.0107e-08
-9.80777e-09
-4.97335e-10
1.14811e-09
-8.44818e-09
-1.37988e-09
8.67994e-09
2.15995e-09
-1.04525e-08
-2.45326e-09
1.07458e-08
3.47594e-09
-1.29583e-08
-3.8507e-09
1.3333e-08
5.09922e-09
-1.46044e-08
-5.53528e-09
1.50405e-08
6.91446e-09
-1.46782e-08
-7.37117e-09
1.51349e-08
8.73856e-09
-1.29558e-08
-9.16728e-09
1.33846e-08
1.03862e-08
-9.64276e-09
-1.07505e-08
1.00071e-08
1.17493e-08
-4.69449e-09
-1.2035e-08
4.98016e-09
1.27112e-08
3.31506e-09
-1.28354e-08
-3.19085e-09
1.27431e-08
1.50661e-08
-1.25207e-08
-1.52886e-08
1.11557e-08
2.78067e-08
-1.04783e-08
-2.84841e-08
7.74907e-09
3.77037e-08
-6.66408e-09
-3.87887e-08
2.91121e-09
4.2426e-08
-1.5806e-09
-4.37566e-08
-2.6138e-09
4.17871e-08
3.99038e-09
-4.31637e-08
-8.07751e-09
3.72744e-08
9.36224e-09
-3.85592e-08
-1.31208e-08
3.05847e-08
1.42968e-08
-3.17607e-08
-1.76292e-08
2.19524e-08
1.85825e-08
-2.29057e-08
-2.08592e-08
1.23079e-08
2.13913e-08
-1.284e-08
-2.25228e-08
4.38238e-09
2.27878e-08
-4.6474e-09
-2.35159e-08
-1.28218e-09
2.37734e-08
1.02467e-09
-2.47205e-08
-6.179e-09
2.50758e-08
5.82371e-09
-2.61224e-08
-1.19693e-08
2.63871e-08
1.17046e-08
-2.66597e-08
-1.87211e-08
2.65235e-08
1.88572e-08
-2.53572e-08
-2.50109e-08
2.47463e-08
2.56219e-08
-2.23245e-08
-2.97881e-08
2.13909e-08
3.07216e-08
-1.83105e-08
-3.32287e-08
1.72823e-08
3.42569e-08
-1.44491e-08
-3.57933e-08
1.38009e-08
3.64415e-08
-1.43714e-08
-2.5049e-08
1.589e-08
2.35303e-08
-2.14789e-08
2.49476e-08
2.15713e-08
-2.504e-08
1.90751e-10
1.13345e-08
-1.10227e-08
-5.02553e-10
1.13835e-09
-9.37e-09
-1.3665e-09
9.59816e-09
2.13626e-09
-1.16224e-08
-2.42727e-09
1.19134e-08
3.44604e-09
-1.4457e-08
-3.82059e-09
1.48316e-08
5.07221e-09
-1.63522e-08
-5.51068e-09
1.67907e-08
6.90187e-09
-1.65129e-08
-7.36395e-09
1.6975e-08
8.75153e-09
-1.46821e-08
-9.18802e-09
1.51186e-08
1.04347e-08
-1.11169e-08
-1.08103e-08
1.14925e-08
1.1862e-08
-5.87818e-09
-1.21754e-08
6.19161e-09
1.29779e-08
2.74218e-09
-1.31545e-08
-2.56567e-09
1.32271e-08
1.58864e-08
-1.30528e-08
-1.60607e-08
1.17905e-08
3.04949e-08
-1.11282e-08
-3.11573e-08
8.37983e-09
4.20854e-08
-7.2666e-09
-4.31987e-08
3.36613e-09
4.78436e-08
-1.97032e-09
-4.92395e-08
-2.4535e-09
4.7405e-08
3.90731e-09
-4.88588e-08
-8.21986e-09
4.25164e-08
9.57527e-09
-4.38718e-08
-1.35771e-08
3.54516e-08
1.48637e-08
-3.67382e-08
-1.86616e-08
2.59817e-08
1.97739e-08
-2.7094e-08
-2.23405e-08
1.44662e-08
2.28887e-08
-1.50145e-08
-2.39162e-08
5.38117e-09
2.41272e-08
-5.59222e-09
-2.47523e-08
-2.02358e-10
2.503e-08
-7.53582e-11
-2.63575e-08
-4.399e-09
2.69646e-08
3.79183e-09
-2.91337e-08
-1.0321e-08
2.98388e-08
9.61583e-09
-3.13549e-08
-1.88487e-08
3.15252e-08
1.86784e-08
-3.09086e-08
-2.73226e-08
3.03769e-08
2.78543e-08
-2.80408e-08
-3.34683e-08
2.71088e-08
3.44002e-08
-2.4077e-08
-3.71133e-08
2.31109e-08
3.80794e-08
-2.07253e-08
-3.77419e-08
2.0254e-08
3.82132e-08
-1.97475e-08
-2.10388e-08
1.94052e-08
2.13811e-08
-1.24197e-08
1.83262e-08
8.11437e-09
-1.40208e-08
1.81767e-10
1.26195e-08
-1.22922e-08
-5.09092e-10
1.1279e-09
-1.02764e-08
-1.35174e-09
1.05003e-08
2.11011e-09
-1.27827e-08
-2.39857e-09
1.30712e-08
3.41302e-09
-1.59549e-08
-3.78731e-09
1.63292e-08
5.04226e-09
-1.811e-08
-5.48336e-09
1.85511e-08
6.88772e-09
-1.837e-08
-7.3557e-09
1.8838e-08
8.76538e-09
-1.64406e-08
-9.21031e-09
1.68855e-08
1.04864e-08
-1.26364e-08
-1.08733e-08
1.30234e-08
1.19788e-08
-7.17584e-09
-1.23218e-08
7.51884e-09
1.32659e-08
1.94821e-09
-1.35028e-08
-1.71131e-09
1.3769e-08
1.65009e-08
-1.36519e-08
-1.6618e-08
1.25148e-08
3.3116e-08
-1.18725e-08
-3.37583e-08
9.11013e-09
4.65829e-08
-7.96701e-09
-4.7726e-08
3.90214e-09
5.35356e-08
-2.43197e-09
-5.50058e-08
-2.25596e-09
5.33512e-08
3.80042e-09
-5.48956e-08
-8.35791e-09
4.80355e-08
9.77848e-09
-4.94561e-08
-1.39954e-08
4.07699e-08
1.53962e-08
-4.21707e-08
-1.98249e-08
3.07662e-08
2.11867e-08
-3.21279e-08
-2.41593e-08
1.66542e-08
2.46957e-08
-1.71906e-08
-2.54434e-08
6.06054e-09
2.5527e-08
-6.14415e-09
-2.57795e-08
8.31695e-10
2.59789e-08
-1.03109e-09
-2.75439e-08
-1.52877e-09
2.84559e-08
6.16785e-10
-3.23133e-08
-6.47816e-09
3.37981e-08
4.99342e-09
-3.75788e-08
-1.74859e-08
3.82676e-08
1.6797e-08
-3.82973e-08
-2.94012e-08
3.77832e-08
2.99154e-08
-3.53293e-08
-3.741e-08
3.42405e-08
3.84988e-08
-3.02872e-08
-4.14637e-08
2.88117e-08
4.29391e-08
-2.489e-08
-4.0581e-08
2.37322e-08
4.17388e-08
-1.94939e-08
-2.58235e-08
1.71067e-08
2.82107e-08
-4.02113e-09
-2.10913e-09
-1.70779e-09
7.83804e-09
1.70813e-10
1.39755e-08
-1.3629e-08
-5.17265e-10
1.11668e-09
-1.11644e-08
-1.33536e-09
1.13831e-08
2.08119e-09
-1.39325e-08
-2.36684e-09
1.42182e-08
3.37639e-09
-1.74516e-08
-3.75032e-09
1.78256e-08
5.00863e-09
-1.98786e-08
-5.45249e-09
2.03225e-08
6.87102e-09
-2.02514e-08
-7.34537e-09
2.07258e-08
8.77888e-09
-1.82338e-08
-9.23285e-09
1.86878e-08
1.05394e-08
-1.42013e-08
-1.09375e-08
1.45994e-08
1.20955e-08
-8.59373e-09
-1.24692e-08
8.96742e-09
1.35705e-08
8.99365e-10
-1.38768e-08
-5.9302e-10
1.43691e-08
1.68715e-08
-1.43195e-08
-1.69211e-08
1.33335e-08
3.56481e-08
-1.27173e-08
-3.62643e-08
9.94955e-09
5.12019e-08
-8.77541e-09
-5.23761e-08
4.5295e-09
5.95399e-08
-2.97497e-09
-6.10944e-08
-2.01875e-09
5.96796e-08
3.66753e-09
-6.13283e-08
-8.49493e-09
5.38084e-08
9.9738e-09
-5.52872e-08
-1.43159e-08
4.65218e-08
1.58055e-08
-4.80114e-08
-2.11129e-08
3.67836e-08
2.29124e-08
-3.8583e-08
-2.64862e-08
1.87249e-08
2.69539e-08
-1.91926e-08
-2.71647e-08
6.10618e-09
2.70459e-08
-5.9874e-09
-2.66448e-08
1.33376e-09
2.66135e-08
-1.30238e-09
-2.78116e-08
2.55286e-09
2.89242e-08
-3.66548e-09
-3.43183e-08
1.12595e-09
3.68397e-08
-3.6473e-09
-4.36097e-08
-1.34688e-08
4.52338e-08
1.18446e-08
-4.60531e-08
-3.15257e-08
4.53374e-08
3.22414e-08
-4.38747e-08
-4.20967e-08
4.33709e-08
4.26005e-08
-4.26665e-08
-4.78665e-08
3.99551e-08
5.05779e-08
-2.88927e-08
-4.75162e-08
2.51239e-08
5.12849e-08
-1.58148e-08
-3.70952e-08
1.3114e-08
3.9796e-08
-1.9099e-09
-2.41691e-08
-2.59898e-09
2.8678e-08
1.57448e-10
1.54188e-08
-1.50487e-08
-5.27515e-10
1.10476e-09
-1.20302e-08
-1.31727e-09
1.22428e-08
2.04947e-09
-1.50706e-08
-2.33202e-09
1.53531e-08
3.33608e-09
-1.89467e-08
-3.70955e-09
1.93202e-08
4.97118e-09
-2.16585e-08
-5.41793e-09
2.21052e-08
6.85159e-09
-2.2159e-08
-7.3328e-09
2.26402e-08
8.79185e-09
-2.0064e-08
-9.25546e-09
2.05276e-08
1.05935e-08
-1.581e-08
-1.10022e-08
1.62188e-08
1.22092e-08
-1.01351e-08
-1.26139e-08
1.05397e-08
1.38879e-08
-4.41843e-10
-1.42737e-08
8.27655e-10
1.50291e-08
1.69545e-08
-1.5059e-08
-1.69247e-08
1.42542e-08
3.80657e-08
-1.36713e-08
-3.86486e-08
1.09094e-08
5.59455e-08
-9.70408e-09
-5.71509e-08
5.26097e-09
6.58976e-08
-3.61107e-09
-6.75475e-08
-1.73919e-09
6.64541e-08
3.51322e-09
-6.82282e-08
-8.6512e-09
5.98025e-08
1.01815e-08
-6.13329e-08
-1.44596e-08
5.25137e-08
1.59382e-08
-5.39923e-08
-2.24532e-08
4.50825e-08
2.51253e-08
-4.77546e-08
-2.96374e-08
2.03677e-08
2.99198e-08
-2.065e-08
-2.93451e-08
5.3752e-09
2.91221e-08
-5.15218e-09
-2.8492e-08
6.59247e-10
2.80334e-08
-2.00677e-10
-2.49064e-08
6.18911e-09
2.54583e-08
-6.74095e-09
-3.28087e-08
1.33198e-08
3.95418e-08
-2.00529e-08
-5.2296e-08
-5.20158e-09
5.07919e-08
6.70571e-09
-2.93701e-08
-4.30121e-08
2.99737e-08
4.24085e-08
-2.73112e-08
-4.66352e-08
2.22201e-08
5.17264e-08
-3.1882e-08
-5.72029e-08
2.66907e-08
6.23942e-08
-2.25632e-08
-5.20969e-08
2.10952e-08
5.35649e-08
-1.6368e-08
-4.55229e-08
1.31842e-08
4.87067e-08
-4.31318e-09
-4.07328e-08
-2.29421e-10
4.52754e-08
1.41066e-10
1.69697e-08
-1.65705e-08
-5.40181e-10
1.0922e-09
-1.28697e-08
-1.2974e-09
1.30749e-08
2.01488e-09
-1.61957e-08
-2.29403e-09
1.64749e-08
3.292e-09
-2.04398e-08
-3.66489e-09
2.08127e-08
4.92975e-09
-2.345e-08
-5.37951e-09
2.38998e-08
6.82926e-09
-2.40947e-08
-7.31779e-09
2.45832e-08
8.80411e-09
-2.19336e-08
-9.27798e-09
2.24075e-08
1.06485e-08
-1.746e-08
-1.10671e-08
1.78785e-08
1.23161e-08
-1.17995e-08
-1.27509e-08
1.22342e-08
1.42133e-08
-2.11768e-09
-1.469e-08
2.59439e-09
1.5751e-08
1.67e-08
-1.58739e-08
-1.6577e-08
1.52849e-08
4.0338e-08
-1.47437e-08
-4.08793e-08
1.20034e-08
6.08134e-08
-1.07675e-08
-6.20493e-08
6.11242e-09
7.26543e-08
-4.35542e-09
-7.44113e-08
-1.41326e-09
7.3769e-08
3.34062e-09
-7.56963e-08
-8.86519e-09
6.60061e-08
1.04589e-08
-6.75998e-08
-1.43589e-08
5.81456e-08
1.55752e-08
-5.93619e-08
-2.35406e-08
5.82965e-08
2.83125e-08
-6.30684e-08
-3.42822e-08
2.10019e-08
3.41918e-08
-2.09116e-08
-3.30413e-08
5.03188e-09
3.33643e-08
-5.35486e-09
-3.36905e-08
-2.24643e-09
3.25935e-08
3.34344e-09
-2.39508e-08
1.43309e-08
3.04637e-08
-2.08438e-08
-1.21642e-07
4.27162e-08
2.117e-07
-1.32774e-07
-1.38097e-07
-6.11126e-08
1.49372e-07
4.98382e-08
-1.1188e-07
-8.50286e-08
1.15579e-07
8.13297e-08
-8.64241e-08
-7.17045e-08
8.67569e-08
7.13718e-08
-7.8012e-08
-6.36383e-08
7.43815e-08
6.72687e-08
-6.34723e-08
-6.06959e-08
5.88288e-08
6.53394e-08
-4.20353e-08
-6.11838e-08
3.58583e-08
6.73607e-08
-1.57106e-08
-6.02945e-08
9.18948e-09
6.68156e-08
1.20972e-10
1.86531e-08
-1.82183e-08
-5.55821e-10
1.07921e-09
-1.3678e-08
-1.27577e-09
1.38746e-08
1.97762e-09
-1.73069e-08
-2.2531e-09
1.75824e-08
3.24447e-09
-2.19304e-08
-3.61669e-09
2.23026e-08
4.88475e-09
-2.52537e-08
-5.33765e-09
2.57066e-08
6.80461e-09
-2.60605e-08
-7.30101e-09
2.65569e-08
8.8165e-09
-2.38453e-08
-9.30133e-09
2.43301e-08
1.07059e-08
-1.91474e-08
-1.11331e-08
1.95746e-08
1.24139e-08
-1.35809e-08
-1.28762e-08
1.40432e-08
1.45423e-08
-4.17618e-09
-1.51231e-08
4.75693e-09
1.65387e-08
1.60505e-08
-1.67702e-08
-1.5819e-08
1.64366e-08
4.24289e-08
-1.59471e-08
-4.29184e-08
1.32479e-08
6.58003e-08
-1.19838e-08
-6.70645e-08
7.10434e-09
7.98574e-08
-5.22813e-09
-8.17336e-08
-1.03146e-09
8.17526e-08
3.15123e-09
-8.38724e-08
-9.2099e-09
7.25233e-08
1.09229e-08
-7.42364e-08
-1.40702e-08
6.2086e-08
1.45599e-08
-6.25758e-08
-2.34054e-08
8.44661e-08
3.43694e-08
-9.543e-08
-4.2064e-08
1.97671e-08
4.12476e-08
-1.89507e-08
-3.8083e-08
7.05774e-09
3.80013e-08
-6.97603e-09
-3.45122e-08
-3.54891e-09
3.69335e-08
1.12761e-09
-2.11756e-07
2.71835e-07
1.78759e-07
-2.38839e-07
-1.61795e-07
6.51428e-08
1.31447e-07
-3.47947e-08
-9.54806e-08
-2.12422e-08
9.40737e-08
2.26491e-08
-8.40101e-08
-7.17463e-08
8.29948e-08
7.27616e-08
-7.48022e-08
-8.25643e-08
7.1643e-08
8.57236e-08
-6.63334e-08
-7.30975e-08
6.40504e-08
7.53806e-08
-5.38444e-08
-7.84185e-08
5.03438e-08
8.1919e-08
-3.76931e-08
-8.48389e-08
3.30207e-08
8.95113e-08
-1.81194e-08
-8.51517e-08
1.32481e-08
9.0023e-08
9.63632e-11
2.04999e-08
-2.0021e-08
-5.7532e-10
1.06559e-09
-1.44494e-08
-1.25198e-09
1.46358e-08
1.93714e-09
-1.84028e-08
-2.20861e-09
1.86743e-08
3.1926e-09
-2.34179e-08
-3.56396e-09
2.37893e-08
4.83484e-09
-2.70699e-08
-5.29087e-09
2.75259e-08
6.77579e-09
-2.80582e-08
-7.2805e-09
2.85629e-08
8.8267e-09
-2.58016e-08
-9.32312e-09
2.6298e-08
1.07634e-08
-2.08675e-08
-1.1198e-08
2.13021e-08
1.24949e-08
-1.54658e-08
-1.29799e-08
1.59508e-08
1.48639e-08
-6.67246e-09
-1.55637e-08
7.3723e-09
1.73907e-08
1.49413e-08
-1.77483e-08
-1.45837e-08
1.77151e-08
4.42954e-08
-1.72892e-08
-4.47214e-08
1.46571e-08
7.08942e-08
-1.33689e-08
-7.21823e-08
8.25914e-09
8.75532e-08
-6.25308e-09
-8.95593e-08
-5.76822e-10
9.05714e-08
2.93895e-09
-9.29336e-08
-9.7837e-09
7.96852e-08
1.17397e-08
-8.16412e-08
-1.41528e-08
6.25171e-08
1.36992e-08
-6.20634e-08
-2.96051e-08
1.50992e-07
5.80793e-08
-1.79467e-07
-5.47904e-08
1.25043e-08
4.91372e-08
-6.8511e-09
-2.35216e-08
-5.93364e-09
1.49287e-08
1.45265e-08
-2.92907e-07
2.28475e-07
4.01952e-07
-3.3752e-07
-3.47192e-07
-3.76992e-08
3.40398e-07
4.44932e-08
-2.5885e-07
-5.3732e-08
2.3112e-07
8.14621e-08
-1.69203e-07
-5.1578e-08
1.54398e-07
6.63828e-08
-1.1531e-07
-9.18678e-08
1.04385e-07
1.02793e-07
-7.74572e-08
-9.44084e-08
7.018e-08
1.01686e-07
-5.11913e-08
-9.01892e-08
4.59488e-08
9.54317e-08
-3.3275e-08
-9.10409e-08
2.98213e-08
9.44946e-08
-2.08094e-08
-9.98432e-08
1.82984e-08
1.02354e-07
-1.16219e-08
-9.96953e-08
9.83143e-09
1.01486e-07
6.62344e-11
2.25473e-08
-2.20143e-08
-5.99234e-10
1.05142e-09
-1.51776e-08
-1.22588e-09
1.53521e-08
1.89341e-09
-1.94822e-08
-2.16051e-09
1.97493e-08
3.13632e-09
-2.49018e-08
-3.50662e-09
2.52721e-08
4.77983e-09
-2.88987e-08
-5.23896e-09
2.93578e-08
6.74257e-09
-3.009e-08
-7.25603e-09
3.06034e-08
8.83448e-09
-2.78053e-08
-9.34311e-09
2.8314e-08
1.08219e-08
-2.26153e-08
-1.12626e-08
2.3056e-08
1.25541e-08
-1.74307e-08
-1.30537e-08
1.79303e-08
1.51681e-08
-9.67105e-09
-1.60048e-08
1.05078e-08
1.8309e-08
1.32985e-08
-1.88127e-08
-1.27948e-08
1.91304e-08
4.5888e-08
-1.87815e-08
-4.62368e-08
1.62488e-08
7.60752e-08
-1.49432e-08
-7.73807e-08
9.60532e-09
9.5782e-08
-7.46166e-09
-9.79257e-08
-1.2388e-11
1.00432e-07
2.67259e-09
-1.03092e-07
-1.06692e-08
8.81339e-08
1.30992e-08
-9.05639e-08
-1.65786e-08
6.07573e-08
1.65331e-08
-6.07118e-08
-9.55432e-08
2.48685e-07
9.52842e-08
-2.48426e-07
-3.28085e-08
-3.88021e-08
5.05183e-09
6.65588e-08
-2.34503e-08
2.28826e-08
2.14646e-07
-2.14078e-07
-3.83579e-07
4.76202e-07
3.42787e-07
-4.35409e-07
-2.2364e-07
-2.99254e-08
2.24801e-07
2.87644e-08
-2.3992e-07
-1.37519e-07
2.31804e-07
1.45635e-07
-1.88646e-07
-1.14777e-07
1.7387e-07
1.29553e-07
-1.31165e-07
-1.41734e-07
1.18026e-07
1.54872e-07
-8.16465e-08
-1.29987e-07
7.12947e-08
1.40339e-07
-4.40059e-08
-1.14137e-07
3.68476e-08
1.21295e-07
-2.11866e-08
-1.05797e-07
1.79481e-08
1.09035e-07
-1.16527e-08
-1.0744e-07
1.07031e-08
1.0839e-07
-1.07967e-08
-1.04421e-07
1.12515e-08
1.03966e-07
2.98309e-11
2.48405e-08
-2.42415e-08
-6.28791e-10
1.037e-09
-1.58554e-08
-1.19761e-09
1.6016e-08
1.84683e-09
-2.05437e-08
-2.10925e-09
2.08062e-08
3.07631e-09
-2.63813e-08
-3.44539e-09
2.67504e-08
4.72064e-09
-3.07401e-08
-5.18292e-09
3.12023e-08
6.7063e-09
-3.21578e-08
-7.22912e-09
3.26806e-08
8.84167e-09
-2.98592e-08
-9.36325e-09
3.03808e-08
1.08852e-08
-2.43865e-08
-1.13313e-08
2.48326e-08
1.25891e-08
-1.94375e-08
-1.3091e-08
1.99395e-08
1.54464e-08
-1.32484e-08
-1.64416e-08
1.42436e-08
1.93013e-08
1.10383e-08
-1.99734e-08
-1.03661e-08
2.06978e-08
4.71498e-08
-2.04414e-08
-4.74062e-08
1.80468e-08
8.13132e-08
-1.67332e-08
-8.26268e-08
1.1179e-08
1.04569e-07
-8.89404e-09
-1.06854e-07
7.20767e-10
1.11561e-07
2.26961e-09
-1.14552e-07
-1.18568e-08
9.89295e-08
1.50781e-08
-1.02151e-07
-2.41721e-08
5.39959e-08
8.19959e-09
-3.80234e-08
-9.09441e-08
1.55767e-07
2.48498e-08
-8.96726e-08
3.94216e-08
-7.68021e-08
8.30564e-08
-4.5676e-08
-3.36144e-07
2.22986e-07
3.28991e-07
-2.15833e-07
-1.73219e-07
2.84955e-07
1.32506e-07
-2.44242e-07
-7.38578e-08
-1.76571e-08
8.15571e-08
9.95778e-09
-1.23225e-07
-1.45145e-07
1.29132e-07
1.39239e-07
-1.23528e-07
-1.61817e-07
1.17377e-07
1.67968e-07
-9.48861e-08
-1.88e-07
8.69195e-08
1.95966e-07
-6.23845e-08
-1.68982e-07
5.47579e-08
1.76609e-07
-3.40885e-08
-1.40233e-07
2.9451e-08
1.44871e-07
-1.89005e-08
-1.19376e-07
1.40053e-08
1.24271e-07
-7.22147e-09
-1.10934e-07
6.45506e-09
1.11701e-07
-6.75565e-09
-1.02257e-07
7.52495e-09
1.01488e-07
-1.76064e-11
2.74331e-08
-2.67503e-08
-6.65236e-10
1.02225e-09
-1.64745e-08
-1.16685e-09
1.66191e-08
1.79712e-09
-2.1586e-08
-2.0545e-09
2.18434e-08
3.01208e-09
-2.78556e-08
-3.37974e-09
2.82233e-08
4.65645e-09
-3.25939e-08
-5.12181e-09
3.30592e-08
6.66589e-09
-3.42638e-08
-7.19862e-09
3.47965e-08
8.84686e-09
-3.19657e-08
-9.38195e-09
3.25008e-08
1.09541e-08
-2.61791e-08
-1.14059e-08
2.66309e-08
1.25925e-08
-2.14284e-08
-1.30785e-08
2.19144e-08
1.56815e-08
-1.74975e-08
-1.68616e-08
1.86776e-08
2.0369e-08
8.0674e-09
-2.12347e-08
-7.20166e-09
2.24266e-08
4.80166e-08
-2.22798e-08
-4.81633e-08
2.00708e-08
8.65652e-08
-1.87619e-08
-8.78741e-08
1.3017e-08
1.13919e-07
-1.05936e-08
-1.16342e-07
1.70544e-09
1.24072e-07
1.63839e-09
-1.27415e-07
-1.3178e-08
1.1337e-07
1.73779e-08
-1.1757e-07
-2.37928e-08
1.92589e-08
5.32811e-08
-4.87472e-08
-2.62186e-08
-1.5117e-07
-3.56583e-08
2.13047e-07
-2.83724e-07