/*--------------------------------*- C++ -*----------------------------------*\
| =========                 |                                                 |
| \\      /  F ield         | OpenFOAM: The Open Source CFD Toolbox           |
|  \\    /   O peration     | Version:  2.4.0                                 |
|   \\  /    A nd           | Web:      www.OpenFOAM.org                      |
|    \\/     M anipulation  |                                                 |
\*---------------------------------------------------------------------------*/
FoamFile
{
    version     2.0;
    format      ascii;
    class       volVectorField;
    location    "0.004";
    object      U;
}
// * * * * * * * * * * * * * * * * * * * * * * * * * * * * * * * * * * * * * //

dimensions      [0 1 -1 0 0 0 0];

internalField   nonuniform List<vector> 
10000
(
(-8.69997e-07 7.61733e-07 0)
(-6.36174e-06 2.10785e-06 0)
(-1.41905e-05 2.51584e-06 0)
(-2.27461e-05 2.61834e-06 0)
(-3.16455e-05 2.71308e-06 0)
(-4.09347e-05 2.82735e-06 0)
(-5.0837e-05 2.96724e-06 0)
(-6.15196e-05 3.13828e-06 0)
(-7.31355e-05 3.34307e-06 0)
(-8.5849e-05 3.5831e-06 0)
(-9.98392e-05 3.86003e-06 0)
(-0.000115298 4.17657e-06 0)
(-0.000132421 4.53622e-06 0)
(-0.00015141 4.94228e-06 0)
(-0.000172459 5.39695e-06 0)
(-0.000195757 5.90084e-06 0)
(-0.000221476 6.45281e-06 0)
(-0.000249763 7.04999e-06 0)
(-0.000280732 7.68769e-06 0)
(-0.000314463 8.35873e-06 0)
(-0.000350993 9.05274e-06 0)
(-0.000390318 9.75584e-06 0)
(-0.000432386 1.04514e-05 0)
(-0.000477093 1.11216e-05 0)
(-0.000524287 1.17491e-05 0)
(-0.000573765 1.23179e-05 0)
(-0.000625285 1.2814e-05 0)
(-0.000678571 1.32251e-05 0)
(-0.000733325 1.35419e-05 0)
(-0.000789232 1.37589e-05 0)
(-0.000845962 1.38759e-05 0)
(-0.000903179 1.38982e-05 0)
(-0.000960545 1.38362e-05 0)
(-0.00101774 1.37039e-05 0)
(-0.00107444 1.35179e-05 0)
(-0.00113039 1.32961e-05 0)
(-0.00118533 1.30579e-05 0)
(-0.00123907 1.28225e-05 0)
(-0.00129146 1.26087e-05 0)
(-0.00134241 1.24331e-05 0)
(-0.0013919 1.23088e-05 0)
(-0.00143997 1.22448e-05 0)
(-0.00148672 1.2253e-05 0)
(-0.0015323 1.2348e-05 0)
(-0.0015769 1.25262e-05 0)
(-0.00162073 1.27753e-05 0)
(-0.00166404 1.30876e-05 0)
(-0.00170707 1.34572e-05 0)
(-0.00175002 1.38721e-05 0)
(-0.00179309 1.43171e-05 0)
(-1.86284e-06 5.74251e-06 0)
(-1.26351e-05 1.33918e-05 0)
(-2.5982e-05 1.53561e-05 0)
(-4.07045e-05 1.60897e-05 0)
(-5.64527e-05 1.70023e-05 0)
(-7.35638e-05 1.82687e-05 0)
(-9.25202e-05 1.98725e-05 0)
(-0.000113726 2.18005e-05 0)
(-0.000137546 2.40519e-05 0)
(-0.000164331 2.66296e-05 0)
(-0.000194425 2.95343e-05 0)
(-0.00022817 3.27654e-05 0)
(-0.000265894 3.6319e-05 0)
(-0.00030791 4.01862e-05 0)
(-0.000354513 4.43506e-05 0)
(-0.00040597 4.87882e-05 0)
(-0.00046252 5.34666e-05 0)
(-0.000524365 5.83461e-05 0)
(-0.000591665 6.33792e-05 0)
(-0.000664539 6.851e-05 0)
(-0.000743058 7.36733e-05 0)
(-0.000827242 7.87958e-05 0)
(-0.000917049 8.37982e-05 0)
(-0.00101237 8.85994e-05 0)
(-0.00111301 9.31184e-05 0)
(-0.0012187 9.7276e-05 0)
(-0.00132909 0.000100995 0)
(-0.00144376 0.000104204 0)
(-0.00156221 0.000106838 0)
(-0.00168387 0.000108842 0)
(-0.0018081 0.000110181 0)
(-0.00193422 0.000110834 0)
(-0.00206151 0.0001108 0)
(-0.00218926 0.000110099 0)
(-0.00231676 0.000108773 0)
(-0.00244333 0.000106884 0)
(-0.00256838 0.000104517 0)
(-0.00269139 0.000101777 0)
(-0.00281196 9.87791e-05 0)
(-0.00292979 9.56495e-05 0)
(-0.00304471 9.25144e-05 0)
(-0.00315666 8.94954e-05 0)
(-0.00326569 8.67069e-05 0)
(-0.00337194 8.42529e-05 0)
(-0.00347561 8.2195e-05 0)
(-0.00357692 8.05583e-05 0)
(-0.00367608 7.93456e-05 0)
(-0.00377327 7.85377e-05 0)
(-0.00386862 7.80861e-05 0)
(-0.00396216 7.7913e-05 0)
(-2.03744e-06 1.26272e-05 0)
(-1.38485e-05 2.72147e-05 0)
(-2.8018e-05 3.0692e-05 0)
(-4.35615e-05 3.22836e-05 0)
(-6.03842e-05 3.45165e-05 0)
(-7.89931e-05 3.76523e-05 0)
(-9.99459e-05 4.15952e-05 0)
(-0.000123713 4.62789e-05 0)
(-0.000150728 5.16862e-05 0)
(-0.000181412 5.78191e-05 0)
(-0.000216177 6.4676e-05 0)
(-0.000255428 7.22514e-05 0)
(-0.000299563 8.05313e-05 0)
(-0.000348963 8.94911e-05 0)
(-0.000403989 9.90939e-05 0)
(-0.000464979 0.000109289 0)
(-0.000532234 0.000120012 0)
(-0.000606021 0.000131184 0)
(-0.000686564 0.000142709 0)
(-0.000774044 0.000154472 0)
(-0.000868597 0.000166342 0)
(-0.000970301 0.000178171 0)
(-0.00107917 0.000189801 0)
(-0.00119513 0.000201066 0)
(-0.00131806 0.000211798 0)
(-0.00144772 0.000221825 0)
(-0.00158379 0.000230981 0)
(-0.0017259 0.000239106 0)
(-0.00187355 0.00024606 0)
(-0.00202621 0.00025173 0)
(-0.00218324 0.000256029 0)
(-0.00234398 0.000258908 0)
(-0.00250771 0.000260357 0)
(-0.00267372 0.000260405 0)
(-0.0028413 0.00025913 0)
(-0.0030098 0.000256653 0)
(-0.00317861 0.000253137 0)
(-0.00334721 0.000248775 0)
(-0.0035152 0.000243787 0)
(-0.00368227 0.000238402 0)
(-0.00384819 0.000232847 0)
(-0.00401286 0.000227338 0)
(-0.0041762 0.000222052 0)
(-0.00433819 0.000217126 0)
(-0.00449878 0.000212638 0)
(-0.00465787 0.000208604 0)
(-0.00481527 0.000204981 0)
(-0.00497065 0.00020167 0)
(-0.00512358 0.00019853 0)
(-0.00527343 0.00019537 0)
(-1.97451e-06 1.97664e-05 0)
(-1.33517e-05 4.07825e-05 0)
(-2.6631e-05 4.5712e-05 0)
(-4.10994e-05 4.8292e-05 0)
(-5.68808e-05 5.2086e-05 0)
(-7.45873e-05 5.73917e-05 0)
(-9.47803e-05 6.40145e-05 0)
(-0.000117915 7.1827e-05 0)
(-0.000144412 8.07934e-05 0)
(-0.000174686 9.09138e-05 0)
(-0.000209153 0.000102187 0)
(-0.000248224 0.000114604 0)
(-0.00029231 0.00012814 0)
(-0.00034181 0.000142754 0)
(-0.000397108 0.000158389 0)
(-0.00045857 0.00017497 0)
(-0.00052653 0.000192404 0)
(-0.000601296 0.000210574 0)
(-0.000683141 0.000229339 0)
(-0.000772306 0.000248536 0)
(-0.000868991 0.000267972 0)
(-0.000973345 0.000287438 0)
(-0.00108546 0.000306708 0)
(-0.00120537 0.000325543 0)
(-0.00133303 0.000343693 0)
(-0.00146833 0.000360907 0)
(-0.00161109 0.000376934 0)
(-0.00176104 0.000391541 0)
(-0.00191785 0.000404518 0)
(-0.00208113 0.000415689 0)
(-0.00225041 0.000424923 0)
(-0.0024252 0.000432133 0)
(-0.00260497 0.000437294 0)
(-0.00278918 0.000440441 0)
(-0.00297733 0.00044168 0)
(-0.00316891 0.000441178 0)
(-0.00336352 0.00043916 0)
(-0.0035608 0.000435893 0)
(-0.00376048 0.000431676 0)
(-0.00396237 0.000426815 0)
(-0.00416633 0.000421603 0)
(-0.00437224 0.000416291 0)
(-0.00457999 0.000411063 0)
(-0.0047894 0.000406009 0)
(-0.00500018 0.000401126 0)
(-0.00521184 0.000396314 0)
(-0.00542373 0.000391376 0)
(-0.0056349 0.000386037 0)
(-0.00584422 0.000379962 0)
(-0.00605027 0.000372773 0)
(-1.87173e-06 2.65221e-05 0)
(-1.23023e-05 5.31227e-05 0)
(-2.40212e-05 5.91793e-05 0)
(-3.66591e-05 6.26912e-05 0)
(-5.05538e-05 6.80983e-05 0)
(-6.63993e-05 7.56311e-05 0)
(-8.47315e-05 8.49565e-05 0)
(-0.000105958 9.58861e-05 0)
(-0.000130451 0.000108372 0)
(-0.000158593 0.000122418 0)
(-0.000190775 0.000138031 0)
(-0.000227394 0.000155202 0)
(-0.000268852 0.000173896 0)
(-0.000315546 0.000194065 0)
(-0.000367864 0.000215637 0)
(-0.000426179 0.00023852 0)
(-0.000490847 0.0002626 0)
(-0.000562203 0.000287733 0)
(-0.000640562 0.000313744 0)
(-0.000726213 0.000340429 0)
(-0.000819413 0.000367556 0)
(-0.00092038 0.000394868 0)
(-0.00102929 0.000422085 0)
(-0.00114626 0.000448909 0)
(-0.00127136 0.000475028 0)
(-0.00140459 0.000500123 0)
(-0.0015459 0.00052388 0)
(-0.00169516 0.000546004 0)
(-0.00185219 0.000566227 0)
(-0.00201676 0.00058432 0)
(-0.00218857 0.000600108 0)
(-0.00236731 0.000613476 0)
(-0.00255263 0.000624382 0)
(-0.00274418 0.000632868 0)
(-0.00294164 0.000639061 0)
(-0.0031447 0.000643165 0)
(-0.00335316 0.000645455 0)
(-0.00356683 0.000646258 0)
(-0.00378563 0.000645932 0)
(-0.00400951 0.000644833 0)
(-0.00423846 0.000643276 0)
(-0.00447246 0.000641492 0)
(-0.00471144 0.000639593 0)
(-0.00495516 0.000637543 0)
(-0.00520319 0.000635153 0)
(-0.00545481 0.000632086 0)
(-0.00570896 0.000627874 0)
(-0.00596425 0.000621944 0)
(-0.00621893 0.000613666 0)
(-0.00647091 0.000602388 0)
(-1.75517e-06 3.27994e-05 0)
(-1.09567e-05 6.39128e-05 0)
(-2.06794e-05 7.06339e-05 0)
(-3.10042e-05 7.49287e-05 0)
(-4.25272e-05 8.19226e-05 0)
(-5.60256e-05 9.16579e-05 0)
(-7.19963e-05 0.000103613 0)
(-9.07887e-05 0.000117535 0)
(-0.000112724 0.000133373 0)
(-0.000138146 0.000151149 0)
(-0.00016742 0.000170885 0)
(-0.00020093 0.000192575 0)
(-0.00023907 0.000216188 0)
(-0.000282233 0.000241669 0)
(-0.000330809 0.000268943 0)
(-0.000385182 0.000297907 0)
(-0.000445726 0.000328431 0)
(-0.000512806 0.000360352 0)
(-0.000586773 0.000393469 0)
(-0.000667957 0.000427551 0)
(-0.000756665 0.000462335 0)
(-0.000853174 0.000497527 0)
(-0.000957724 0.000532804 0)
(-0.00107051 0.000567821 0)
(-0.00119168 0.000602214 0)
(-0.00132134 0.000635613 0)
(-0.0014595 0.000667651 0)
(-0.00160616 0.000697981 0)
(-0.00176121 0.000726282 0)
(-0.00192454 0.000752278 0)
(-0.00209597 0.000775752 0)
(-0.00227527 0.000796562 0)
(-0.00246221 0.000814653 0)
(-0.00265656 0.000830069 0)
(-0.0028581 0.000842953 0)
(-0.00306666 0.000853544 0)
(-0.00328212 0.000862169 0)
(-0.00350447 0.000869219 0)
(-0.00373373 0.000875116 0)
(-0.00397004 0.00088026 0)
(-0.00421353 0.000884974 0)
(-0.00446434 0.000889443 0)
(-0.00472253 0.000893661 0)
(-0.00498795 0.000897403 0)
(-0.00526017 0.000900205 0)
(-0.0055384 0.000901383 0)
(-0.00582139 0.000900077 0)
(-0.00610746 0.000895304 0)
(-0.00639443 0.00088603 0)
(-0.00667972 0.000871245 0)
(-1.61661e-06 3.84357e-05 0)
(-9.32869e-06 7.27987e-05 0)
(-1.66676e-05 7.96655e-05 0)
(-2.42592e-05 8.45943e-05 0)
(-3.30221e-05 9.31735e-05 0)
(-4.38302e-05 0.000105123 0)
(-5.71371e-05 0.000119678 0)
(-7.32317e-05 0.000136509 0)
(-9.2387e-05 0.000155577 0)
(-0.000114914 0.000176934 0)
(-0.000141162 0.000200624 0)
(-0.000171508 0.000226655 0)
(-0.000206342 0.000255007 0)
(-0.000246062 0.000285627 0)
(-0.000291068 0.000318439 0)
(-0.00034176 0.000353336 0)
(-0.00039854 0.000390175 0)
(-0.000461804 0.000428781 0)
(-0.000531937 0.000468936 0)
(-0.000609312 0.00051039 0)
(-0.000694278 0.000552856 0)
(-0.000787163 0.000596007 0)
(-0.000888261 0.000639487 0)
(-0.000997827 0.000682907 0)
(-0.00111606 0.000725861 0)
(-0.00124312 0.00076793 0)
(-0.00137908 0.000808697 0)
(-0.00152398 0.000847758 0)
(-0.00167778 0.000884738 0)
(-0.00184038 0.000919307 0)
(-0.00201164 0.000951203 0)
(-0.00219138 0.000980248 0)
(-0.00237937 0.00100637 0)
(-0.0025754 0.0010296 0)
(-0.00277927 0.0010501 0)
(-0.00299083 0.00106816 0)
(-0.00321001 0.00108417 0)
(-0.00343683 0.00109862 0)
(-0.00367144 0.00111203 0)
(-0.00391409 0.00112487 0)
(-0.00416512 0.00113751 0)
(-0.0044249 0.00115009 0)
(-0.0046937 0.00116248 0)
(-0.00497162 0.00117423 0)
(-0.00525838 0.00118451 0)
(-0.0055533 0.00119219 0)
(-0.00585513 0.0011959 0)
(-0.00616202 0.00119413 0)
(-0.00647157 0.00118533 0)
(-0.0067808 0.00116802 0)
(-1.44876e-06 4.32837e-05 0)
(-7.39889e-06 7.94305e-05 0)
(-1.1973e-05 8.58677e-05 0)
(-1.64235e-05 9.12975e-05 0)
(-2.20534e-05 0.000101507 0)
(-2.98479e-05 0.000115739 0)
(-4.02165e-05 0.000132921 0)
(-5.33863e-05 0.000152638 0)
(-6.95844e-05 0.000174876 0)
(-8.90958e-05 0.00019973 0)
(-0.000112259 0.000227281 0)
(-0.00013945 0.000257564 0)
(-0.000171063 0.00029057 0)
(-0.000207507 0.000326259 0)
(-0.000249201 0.000364555 0)
(-0.000296574 0.000405349 0)
(-0.000350057 0.000448495 0)
(-0.000410081 0.000493807 0)
(-0.000477071 0.00054106 0)
(-0.000551438 0.000589988 0)
(-0.000633579 0.000640281 0)
(-0.000723869 0.000691586 0)
(-0.000822647 0.000743511 0)
(-0.000930214 0.000795631 0)
(-0.00104681 0.000847494 0)
(-0.00117263 0.00089863 0)
(-0.00130778 0.000948562 0)
(-0.0014523 0.00099682 0)
(-0.00160618 0.00104296 0)
(-0.00176932 0.00108659 0)
(-0.00194154 0.00112738 0)
(-0.00212261 0.0011651 0)
(-0.00231228 0.00119963 0)
(-0.00251025 0.00123102 0)
(-0.00271625 0.00125943 0)
(-0.00293007 0.00128522 0)
(-0.00315159 0.0013089 0)
(-0.00338082 0.00133109 0)
(-0.00361798 0.00135247 0)
(-0.00386344 0.00137366 0)
(-0.00411777 0.00139514 0)
(-0.00438166 0.00141707 0)
(-0.00465574 0.00143921 0)
(-0.00494048 0.00146082 0)
(-0.00523599 0.00148066 0)
(-0.00554181 0.00149705 0)
(-0.00585682 0.00150795 0)
(-0.00617916 0.00151118 0)
(-0.00650623 0.00150455 0)
(-0.00683476 0.00148602 0)
(-1.24848e-06 4.71883e-05 0)
(-5.15437e-06 8.34631e-05 0)
(-6.57739e-06 8.88307e-05 0)
(-7.47546e-06 9.46405e-05 0)
(-9.58915e-06 0.000106568 0)
(-1.40262e-05 0.000123199 0)
(-2.1151e-05 0.000143082 0)
(-3.11261e-05 0.000165709 0)
(-4.41322e-05 0.0001911 0)
(-6.04296e-05 0.000219418 0)
(-8.03484e-05 0.000250795 0)
(-0.000104265 0.000285299 0)
(-0.000132586 0.000322947 0)
(-0.000165739 0.000363709 0)
(-0.000204171 0.000407516 0)
(-0.000248341 0.000454261 0)
(-0.000298716 0.000503796 0)
(-0.000355766 0.000555936 0)
(-0.000419958 0.00061045 0)
(-0.00049175 0.000667057 0)
(-0.000571588 0.000725427 0)
(-0.000659894 0.000785182 0)
(-0.000757055 0.000845897 0)
(-0.000863409 0.000907107 0)
(-0.000979239 0.000968307 0)
(-0.00110476 0.00102897 0)
(-0.00124011 0.00108854 0)
(-0.00138533 0.00114646 0)
(-0.0015404 0.00120221 0)
(-0.00170517 0.00125531 0)
(-0.00187941 0.00130532 0)
(-0.00206281 0.00135195 0)
(-0.002255 0.00139503 0)
(-0.00245555 0.00143456 0)
(-0.00266404 0.00147076 0)
(-0.0028801 0.00150407 0)
(-0.00310346 0.00153516 0)
(-0.00333409 0.00156486 0)
(-0.00357221 0.0015941 0)
(-0.00381833 0.00162378 0)
(-0.00407333 0.00165458 0)
(-0.00433831 0.00168678 0)
(-0.00461445 0.00172004 0)
(-0.0049028 0.00175335 0)
(-0.00520402 0.00178494 0)
(-0.00551805 0.00181243 0)
(-0.00584403 0.00183298 0)
(-0.00618012 0.00184356 0)
(-0.00652357 0.00184118 0)
(-0.00687077 0.00182308 0)
(-1.00971e-06 4.99896e-05 0)
(-2.58506e-06 8.45492e-05 0)
(-4.72435e-07 8.8143e-05 0)
(2.59937e-06 9.4218e-05 0)
(4.39878e-06 0.000107985 0)
(3.68716e-06 0.000127169 0)
(1.48196e-07 0.000149857 0)
(-6.31133e-06 0.000175438 0)
(-1.58209e-05 0.000203991 0)
(-2.86127e-05 0.000235764 0)
(-4.50082e-05 0.000270958 0)
(-6.53886e-05 0.00030969 0)
(-9.01758e-05 0.000352002 0)
(-0.000119823 0.00039788 0)
(-0.000154808 0.000447266 0)
(-0.000195624 0.000500061 0)
(-0.000242776 0.000556125 0)
(-0.000296779 0.000615275 0)
(-0.000358148 0.000677275 0)
(-0.000427395 0.000741833 0)
(-0.000505019 0.000808602 0)
(-0.000591495 0.000877181 0)
(-0.000687259 0.00094711 0)
(-0.000792698 0.00101788 0)
(-0.000908139 0.00108892 0)
(-0.00103383 0.00115964 0)
(-0.00116993 0.00122938 0)
(-0.0013165 0.0012975 0)
(-0.00147347 0.00136335 0)
(-0.00164067 0.00142632 0)
(-0.00181778 0.00148586 0)
(-0.00200438 0.00154157 0)
(-0.00219993 0.00159317 0)
(-0.00240378 0.00164066 0)
(-0.00261529 0.00168427 0)
(-0.00283382 0.00172457 0)
(-0.00305891 0.00176243 0)
(-0.00329035 0.001799 0)
(-0.00352833 0.00183558 0)
(-0.00377353 0.0018735 0)
(-0.00402717 0.0019138 0)
(-0.00429097 0.00195701 0)
(-0.00456688 0.0020028 0)
(-0.0048568 0.00204983 0)
(-0.00516217 0.00209572 0)
(-0.00548355 0.00213721 0)
(-0.0058204 0.00217042 0)
(-0.00617097 0.00219127 0)
(-0.00653228 0.00219574 0)
(-0.00690028 0.00218022 0)
(-7.438e-07 5.15124e-05 0)
(2.98044e-07 8.23455e-05 0)
(6.34327e-06 8.33977e-05 0)
(1.3803e-05 8.9623e-05 0)
(1.99177e-05 0.000105374 0)
(2.33135e-05 0.000127289 0)
(2.37252e-05 0.0001529 0)
(2.11391e-05 0.000181489 0)
(1.54852e-05 0.000213217 0)
(6.56088e-06 0.000248444 0)
(-5.94612e-06 0.000287457 0)
(-2.24235e-05 0.000330427 0)
(-4.33125e-05 0.00037743 0)
(-6.9094e-05 0.000428475 0)
(-0.000100277 0.000483521 0)
(-0.000137392 0.000542486 0)
(-0.000180987 0.000605241 0)
(-0.000231625 0.000671608 0)
(-0.00028988 0.00074135 0)
(-0.000356321 0.000814171 0)
(-0.000431507 0.000889709 0)
(-0.000515973 0.000967541 0)
(-0.000610216 0.00104717 0)
(-0.000714687 0.00112805 0)
(-0.000829769 0.00120952 0)
(-0.000955759 0.00129091 0)
(-0.00109285 0.00137146 0)
(-0.00124111 0.00145039 0)
(-0.00140047 0.00152691 0)
(-0.00157071 0.00160024 0)
(-0.00175143 0.00166967 0)
(-0.00194204 0.00173462 0)
(-0.00214178 0.00179473 0)
(-0.00234975 0.0018499 0)
(-0.00256495 0.0019004 0)
(-0.0027864 0.00194692 0)
(-0.00301327 0.00199058 0)
(-0.00324509 0.00203294 0)
(-0.00348193 0.00207589 0)
(-0.00372462 0.00212135 0)
(-0.00397484 0.00217101 0)
(-0.00423511 0.00222584 0)
(-0.0045085 0.00228565 0)
(-0.00479813 0.00234882 0)
(-0.00510654 0.00241217 0)
(-0.00543517 0.00247132 0)
(-0.00578392 0.00252108 0)
(-0.00615108 0.00255597 0)
(-0.00653337 0.00257073 0)
(-0.00692611 0.00256066 0)
(-4.50962e-07 5.15394e-05 0)
(3.4896e-06 7.6538e-05 0)
(1.38614e-05 7.42071e-05 0)
(2.61206e-05 8.04547e-05 0)
(3.69499e-05 9.83484e-05 0)
(4.48395e-05 0.000123183 0)
(4.95809e-05 0.000151843 0)
(5.12489e-05 0.000183496 0)
(4.98396e-05 0.000218409 0)
(4.51868e-05 0.00025708 0)
(3.69878e-05 0.000299901 0)
(2.48453e-05 0.000347109 0)
(8.29727e-06 0.000398819 0)
(-1.31654e-05 0.000455073 0)
(-4.00826e-05 0.000515855 0)
(-7.30233e-05 0.000581105 0)
(-0.000112585 0.000650711 0)
(-0.000159387 0.000724506 0)
(-0.000214061 0.000802259 0)
(-0.000277245 0.000883674 0)
(-0.000349565 0.000968384 0)
(-0.000431629 0.00105594 0)
(-0.00052401 0.00114583 0)
(-0.00062724 0.00123741 0)
(-0.000741778 0.00133 0)
(-0.000867987 0.00142279 0)
(-0.00100612 0.00151491 0)
(-0.00115628 0.00160541 0)
(-0.00131841 0.00169332 0)
(-0.00149226 0.00177764 0)
(-0.00167731 0.00185744 0)
(-0.00187281 0.00193195 0)
(-0.00207774 0.0020006 0)
(-0.00229084 0.00206318 0)
(-0.00251065 0.00211992 0)
(-0.0027357 0.00217162 0)
(-0.00296463 0.00221971 0)
(-0.00319651 0.00226627 0)
(-0.00343116 0.00231393 0)
(-0.00366947 0.00236558 0)
(-0.00391369 0.00242391 0)
(-0.00416742 0.00249071 0)
(-0.00443527 0.0025662 0)
(-0.00472213 0.00264847 0)
(-0.00503219 0.00273339 0)
(-0.00536804 0.00281505 0)
(-0.00573017 0.00288648 0)
(-0.00611687 0.00294045 0)
(-0.00652435 0.00297007 0)
(-0.00694711 0.00296927 0)
(-8.91141e-08 4.98948e-05 0)
(7.01569e-06 6.68021e-05 0)
(2.20514e-05 6.01858e-05 0)
(3.95144e-05 6.63176e-05 0)
(5.5454e-05 8.65212e-05 0)
(6.82234e-05 0.000114474 0)
(7.76793e-05 0.000146308 0)
(8.3994e-05 0.000181074 0)
(8.72385e-05 0.000219168 0)
(8.72862e-05 0.000261256 0)
(8.38428e-05 0.000307851 0)
(7.65022e-05 0.00035927 0)
(6.47847e-05 0.000415682 0)
(4.81575e-05 0.000477166 0)
(2.60459e-05 0.000543742 0)
(-2.16524e-06 0.000615375 0)
(-3.71257e-05 0.000691977 0)
(-7.95119e-05 0.000773401 0)
(-0.000130024 0.000859432 0)
(-0.000189368 0.000949784 0)
(-0.000258253 0.00104409 0)
(-0.000337374 0.00114189 0)
(-0.000427399 0.00124263 0)
(-0.000528961 0.00134563 0)
(-0.000642621 0.00145011 0)
(-0.000768838 0.00155517 0)
(-0.000907958 0.00165977 0)
(-0.00106016 0.00176279 0)
(-0.00122542 0.00186301 0)
(-0.00140345 0.00195917 0)
(-0.00159367 0.00205008 0)
(-0.00179513 0.00213464 0)
(-0.0020065 0.00221202 0)
(-0.00222607 0.00228178 0)
(-0.00245183 0.00234402 0)
(-0.00268159 0.00239959 0)
(-0.00291324 0.00245018 0)
(-0.0031451 0.00249853 0)
(-0.00337645 0.00254827 0)
(-0.00360807 0.00260372 0)
(-0.00384281 0.00266916 0)
(-0.00408569 0.00274785 0)
(-0.00434355 0.00284084 0)
(-0.00462389 0.00294604 0)
(-0.00493326 0.00305801 0)
(-0.0052759 0.00316875 0)
(-0.00565303 0.00326883 0)
(-0.00606282 0.00334862 0)
(-0.00650074 0.00339914 0)
(-0.00696007 0.00341259 0)
(3.13504e-07 4.64101e-05 0)
(1.0838e-05 5.28274e-05 0)
(3.08911e-05 4.09637e-05 0)
(5.39392e-05 4.68283e-05 0)
(7.53691e-05 6.95134e-05 0)
(9.33958e-05 0.000100784 0)
(0.00010795 0.000135913 0)
(0.000119312 0.000173825 0)
(0.000127631 0.000215078 0)
(0.00013282 0.000260528 0)
(0.000134599 0.000310835 0)
(0.000132557 0.00036641 0)
(0.000126197 0.000427488 0)
(0.000114962 0.000494194 0)
(9.82414e-05 0.000566588 0)
(7.53746e-05 0.000644671 0)
(4.56595e-05 0.000728387 0)
(8.35434e-06 0.000817621 0)
(-3.73128e-05 0.000912186 0)
(-9.21273e-05 0.00101182 0)
(-0.000156889 0.00111617 0)
(-0.0002324 0.00122476 0)
(-0.000319438 0.00133702 0)
(-0.000418769 0.00145224 0)
(-0.000531089 0.00156953 0)
(-0.000656987 0.00168787 0)
(-0.000796949 0.00180608 0)
(-0.00095127 0.00192279 0)
(-0.00112 0.00203652 0)
(-0.00130288 0.00214569 0)
(-0.00149925 0.00224872 0)
(-0.00170797 0.00234414 0)
(-0.00192739 0.00243068 0)
(-0.0021553 0.00250753 0)
(-0.00238896 0.00257446 0)
(-0.00262526 0.00263221 0)
(-0.00286096 0.00268268 0)
(-0.00309319 0.00272929 0)
(-0.00332019 0.00277706 0)
(-0.00354226 0.00283234 0)
(-0.00376273 0.00290196 0)
(-0.00398852 0.0029917 0)
(-0.00422964 0.00310424 0)
(-0.00449752 0.00323745 0)
(-0.0048023 0.00338408 0)
(-0.00515055 0.00353296 0)
(-0.00554436 0.00367117 0)
(-0.00598151 0.00378578 0)
(-0.0064563 0.00386509 0)
(-0.00696037 0.00389911 0)
(7.55516e-07 4.08812e-05 0)
(1.4935e-05 3.43514e-05 0)
(4.03365e-05 1.62098e-05 0)
(6.93297e-05 2.16431e-05 0)
(9.66127e-05 4.69608e-05 0)
(0.000120264 8.17427e-05 0)
(0.000140299 0.000120277 0)
(0.000157107 0.000161348 0)
(0.000170921 0.000205705 0)
(0.000181699 0.00025443 0)
(0.000189182 0.000308353 0)
(0.000192957 0.000367994 0)
(0.000192512 0.000433664 0)
(0.000187263 0.000505544 0)
(0.000176564 0.000583741 0)
(0.00015971 0.0006683 0)
(0.000135943 0.000759213 0)
(0.000104459 0.00085641 0)
(6.44164e-05 0.000959748 0)
(1.49367e-05 0.001069 0)
(-4.48916e-05 0.00118384 0)
(-0.000115988 0.00130382 0)
(-0.000199259 0.00142834 0)
(-0.000295646 0.00155666 0)
(-0.000406016 0.00168782 0)
(-0.000531131 0.00182068 0)
(-0.000671679 0.00195384 0)
(-0.000828128 0.00208571 0)
(-0.00100066 0.00221447 0)
(-0.00118909 0.00233818 0)
(-0.00139273 0.00245479 0)
(-0.00161032 0.00256228 0)
(-0.00183989 0.0026588 0)
(-0.00207867 0.00274288 0)
(-0.00232308 0.00281373 0)
(-0.00256881 0.00287163 0)
(-0.002811 0.0029185 0)
(-0.00304489 0.0029584 0)
(-0.00326686 0.00299806 0)
(-0.0034759 0.00304681 0)
(-0.00367552 0.00311552 0)
(-0.00387499 0.00321422 0)
(-0.00408907 0.00334861 0)
(-0.00433528 0.00351683 0)
(-0.00462925 0.00370874 0)
(-0.00498093 0.00390837 0)
(-0.0053933 0.00409752 0)
(-0.0058632 0.00425876 0)
(-0.00638305 0.00437689 0)
(-0.00694219 0.00443932 0)
(1.2411e-06 3.31296e-05 0)
(1.92862e-05 1.11216e-05 0)
(5.03472e-05 -1.44038e-05 0)
(8.55978e-05 -9.61532e-06 0)
(0.000119061 1.85053e-05 0)
(0.000148707 5.6985e-05 0)
(0.000174596 9.90151e-05 0)
(0.000197243 0.000143232 0)
(0.000216971 0.000190607 0)
(0.000233794 0.000242484 0)
(0.000247474 0.000299888 0)
(0.0002576 0.000363464 0)
(0.000263648 0.000433606 0)
(0.000265009 0.000510562 0)
(0.000261004 0.000594493 0)
(0.000250884 0.000685506 0)
(0.000233841 0.000783653 0)
(0.000209007 0.000888927 0)
(0.00017546 0.00100125 0)
(0.000132227 0.00112045 0)
(7.82896e-05 0.00124624 0)
(1.25844e-05 0.00137823 0)
(-6.59748e-05 0.00151582 0)
(-0.00015852 0.00165825 0)
(-0.000266138 0.00180448 0)
(-0.000389832 0.00195325 0)
(-0.000530552 0.00210297 0)
(-0.000689009 0.00225177 0)
(-0.000865588 0.0023975 0)
(-0.00106027 0.00253775 0)
(-0.00127246 0.00266991 0)
(-0.00150083 0.00279127 0)
(-0.00174317 0.00289916 0)
(-0.0019962 0.00299113 0)
(-0.00225543 0.00306536 0)
(-0.00251499 0.00312122 0)
(-0.00276785 0.00316007 0)
(-0.0030063 0.00318641 0)
(-0.00322341 0.00320895 0)
(-0.00341544 0.00324121 0)
(-0.00358515 0.00330041 0)
(-0.00374471 0.00340376 0)
(-0.00391608 0.00356244 0)
(-0.0041265 0.00377531 0)
(-0.00440024 0.00402756 0)
(-0.00475203 0.00429543 0)
(-0.0051855 0.00455276 0)
(-0.00569539 0.00477587 0)
(-0.00627098 0.00494536 0)
(-0.00689837 0.00504583 0)
(1.76751e-06 2.29979e-05 0)
(2.38445e-05 -1.70828e-05 0)
(6.08184e-05 -5.11618e-05 0)
(0.000102647 -4.72675e-05 0)
(0.00014262 -1.6199e-05 0)
(0.000178579 2.61529e-05 0)
(0.000210679 7.17465e-05 0)
(0.000239549 0.000119065 0)
(0.000265609 0.000169338 0)
(0.000288933 0.000224205 0)
(0.000309308 0.000284909 0)
(0.00032633 0.000352237 0)
(0.000339467 0.000426677 0)
(0.000348088 0.00050855 0)
(0.000351486 0.00059809 0)
(0.000348878 0.000695476 0)
(0.000339405 0.000800838 0)
(0.000322139 0.000914251 0)
(0.000296078 0.00103572 0)
(0.00026015 0.00116516 0)
(0.000213209 0.00130238 0)
(0.000154033 0.00144702 0)
(8.13528e-05 0.00159854 0)
(-6.21902e-06 0.00175615 0)
(-0.000110052 0.00191879 0)
(-0.000231459 0.00208507 0)
(-0.000371715 0.00225319 0)
(-0.000531849 0.00242104 0)
(-0.000712565 0.00258609 0)
(-0.000914128 0.00274543 0)
(-0.00113616 0.00289581 0)
(-0.00137744 0.00303366 0)
(-0.00163573 0.0031552 0)
(-0.00190736 0.0032566 0)
(-0.00218694 0.00333439 0)
(-0.00246687 0.00338615 0)
(-0.00273714 0.0034118 0)
(-0.00298565 0.00341546 0)
(-0.00319992 0.00340784 0)
(-0.00337076 0.0034081 0)
(-0.00349827 0.00344333 0)
(-0.00359797 0.00354297 0)
(-0.00370289 0.0037281 0)
(-0.00385619 0.0039992 0)
(-0.00409597 0.0043334 0)
(-0.00444362 0.00469397 0)
(-0.00490234 0.00504253 0)
(-0.00546238 0.00534696 0)
(-0.00610775 0.00558332 0)
(-0.00682012 0.00573372 0)
(2.33067e-06 1.03572e-05 0)
(2.85697e-05 -5.04385e-05 0)
(7.16784e-05 -9.42913e-05 0)
(0.000120338 -9.15572e-05 0)
(0.000167111 -5.74511e-05 0)
(0.000209706 -1.1088e-05 0)
(0.000248354 3.81033e-05 0)
(0.000283816 8.8445e-05 0)
(0.000316617 0.000141454 0)
(0.000346894 0.000199103 0)
(0.000374464 0.000262876 0)
(0.000398933 0.000333717 0)
(0.000419766 0.000412216 0)
(0.000436322 0.000498783 0)
(0.000447873 0.000593736 0)
(0.000453607 0.000697342 0)
(0.000452625 0.000809829 0)
(0.000443941 0.000931377 0)
(0.000426481 0.0010621 0)
(0.000399071 0.00120205 0)
(0.000360426 0.00135111 0)
(0.000309144 0.00150904 0)
(0.000243706 0.00167536 0)
(0.000162474 0.0018493 0)
(6.37647e-05 0.00202977 0)
(-5.41793e-05 0.00221528 0)
(-0.000193025 0.0024039 0)
(-0.00035419 0.00259325 0)
(-0.000538828 0.00278046 0)
(-0.000747639 0.0029621 0)
(-0.000980663 0.00313422 0)
(-0.00123707 0.00329227 0)
(-0.00151486 0.00343106 0)
(-0.00181037 0.00354489 0)
(-0.00211754 0.00362777 0)
(-0.00242698 0.00367428 0)
(-0.00272494 0.00368118 0)
(-0.00299302 0.00365051 0)
(-0.0032097 0.0035941 0)
(-0.00335579 0.0035383 0)
(-0.00342484 0.0035254 0)
(-0.00343559 0.00360574 0)
(-0.00343837 0.00381849 0)
(-0.00350294 0.00416749 0)
(-0.00368966 0.00461539 0)
(-0.00402877 0.00510344 0)
(-0.00452013 0.0055742 0)
(-0.00514492 0.00598458 0)
(-0.00587839 0.00630666 0)
(-0.00669649 0.00652155 0)
(2.92519e-06 -4.88621e-06 0)
(3.34107e-05 -8.90792e-05 0)
(8.28254e-05 -0.000143992 0)
(0.000138526 -0.000142743 0)
(0.000192348 -0.000105525 0)
(0.000241864 -5.50526e-05 0)
(0.000287382 -2.2631e-06 0)
(0.000329795 5.09824e-05 0)
(0.000369735 0.000106526 0)
(0.000407407 0.0001667 0)
(0.000442665 0.000233251 0)
(0.000475129 0.000307297 0)
(0.000504274 0.000389548 0)
(0.000529458 0.00048051 0)
(0.000549945 0.0005806 0)
(0.000564904 0.00069019 0)
(0.000573407 0.000809625 0)
(0.000574425 0.000939218 0)
(0.000566815 0.00107923 0)
(0.000549299 0.00122985 0)
(0.000520446 0.00139112 0)
(0.000478648 0.00156293 0)
(0.000422117 0.00174487 0)
(0.000348894 0.00193626 0)
(0.000256889 0.00213602 0)
(0.000143949 0.00234258 0)
(7.9295e-06 0.00255397 0)
(-0.000153149 0.00276761 0)
(-0.000340995 0.00298034 0)
(-0.00055692 0.00318825 0)
(-0.000801641 0.00338669 0)
(-0.00107507 0.00357002 0)
(-0.00137597 0.00373145 0)
(-0.0017012 0.00386284 0)
(-0.00204465 0.00395472 0)
(-0.00239542 0.00399684 0)
(-0.00273557 0.00398009 0)
(-0.00303805 0.00390096 0)
(-0.00326747 0.00376976 0)
(-0.00338717 0.00362094 0)
(-0.00337686 0.00351997 0)
(-0.00325704 0.00355306 0)
(-0.00310513 0.00379275 0)
(-0.00303562 0.00424953 0)
(-0.00314464 0.00485927 0)
(-0.00347288 0.00552505 0)
(-0.00401034 0.00615966 0)
(-0.00472083 0.00670639 0)
(-0.00556563 0.00713622 0)
(-0.00651406 0.00743308 0)
(3.54267e-06 -2.27843e-05 0)
(3.8307e-05 -0.000133092 0)
(9.41371e-05 -0.000200414 0)
(0.000157037 -0.000201032 0)
(0.000218116 -0.00016068 0)
(0.000274809 -0.000106037 0)
(0.000327493 -4.96903e-05 0)
(0.000377193 6.30149e-06 0)
(0.000424653 6.41266e-05 0)
(0.000470143 0.000126512 0)
(0.000513563 0.000195492 0)
(0.000554566 0.000272373 0)
(0.000592642 0.000357994 0)
(0.000627163 0.000452971 0)
(0.000657395 0.00055783 0)
(0.000682508 0.000673065 0)
(0.000701563 0.000799163 0)
(0.000713503 0.0009366 0)
(0.000717125 0.00108581 0)
(0.000711049 0.00124717 0)
(0.000693684 0.00142089 0)
(0.000663199 0.00160701 0)
(0.000617509 0.0018053 0)
(0.000554287 0.00201516 0)
(0.000471015 0.00223559 0)
(0.000365056 0.00246511 0)
(0.000233751 0.00270169 0)
(7.45531e-05 0.0029427 0)
(-0.000115006 0.00318479 0)
(-0.000337089 0.00342375 0)
(-0.000593336 0.0036542 0)
(-0.000884818 0.00386947 0)
(-0.00121162 0.00406107 0)
(-0.00157194 0.00421799 0)
(-0.00196051 0.00432628 0)
(-0.00236582 0.00436852 0)
(-0.00276581 0.00432556 0)
(-0.00312275 0.00418223 0)
(-0.00338127 0.00394125 0)
(-0.00347625 0.00364407 0)
(-0.00336109 0.00339065 0)
(-0.00305375 0.00332871 0)
(-0.00267364 0.00359223 0)
(-0.00240977 0.00420446 0)
(-0.0024142 0.00505042 0)
(-0.00273661 0.00596662 0)
(-0.00334394 0.00681967 0)
(-0.00416902 0.00753797 0)
(-0.00515225 0.00809895 0)
(-0.00625704 0.00849763 0)
(4.17116e-06 -4.33451e-05 0)
(4.31892e-05 -0.000182515 0)
(0.000105475 -0.000263652 0)
(0.00017567 -0.000266582 0)
(0.00024417 -0.000223132 0)
(0.000308258 -0.000164304 0)
(0.000368377 -0.000104488 0)
(0.000425676 -4.59534e-05 0)
(0.000481005 1.38531e-05 0)
(0.000534715 7.80809e-05 0)
(0.000586758 0.000149082 0)
(0.000636826 0.000228357 0)
(0.000684442 0.000316888 0)
(0.000729005 0.000415407 0)
(0.000769808 0.000524559 0)
(0.000806042 0.000644982 0)
(0.00083678 0.000777329 0)
(0.000860955 0.000922261 0)
(0.000877316 0.00108042 0)
(0.000884384 0.00125239 0)
(0.000880401 0.0014386 0)
(0.000863294 0.00163931 0)
(0.00083066 0.00185445 0)
(0.000779788 0.00208363 0)
(0.000707718 0.00232601 0)
(0.000611314 0.00258028 0)
(0.000487345 0.00284457 0)
(0.000332563 0.0031163 0)
(0.000143784 0.00339207 0)
(-8.22364e-05 0.00366745 0)
(-0.00034843 0.0039366 0)
(-0.000657234 0.00419191 0)
(-0.00101057 0.00442334 0)
(-0.00140856 0.00461685 0)
(-0.00184777 0.00475316 0)
(-0.00231739 0.00480521 0)
(-0.00279241 0.0047381 0)
(-0.00322376 0.00451529 0)
(-0.00353064 0.00412035 0)
(-0.0036059 0.00359581 0)
(-0.00335804 0.00309092 0)
(-0.00279344 0.00285721 0)
(-0.00209415 0.00313996 0)
(-0.00156941 0.00398582 0)
(-0.00145308 0.00518171 0)
(-0.00179281 0.00644987 0)
(-0.00250846 0.00758767 0)
(-0.00348266 0.00851228 0)
(-0.00462848 0.0092243 0)
(-0.00590871 0.00974554 0)
(4.79716e-06 -6.65269e-05 0)