/*--------------------------------*- C++ -*----------------------------------*\
| =========                 |                                                 |
| \\      /  F ield         | OpenFOAM: The Open Source CFD Toolbox           |
|  \\    /   O peration     | Version:  2.4.0                                 |
|   \\  /    A nd           | Web:      www.OpenFOAM.org                      |
|    \\/     M anipulation  |                                                 |
\*---------------------------------------------------------------------------*/
FoamFile
{
    version     2.0;
    format      ascii;
    class       volScalarField;
    location    "0.282";
    object      p;
}
// * * * * * * * * * * * * * * * * * * * * * * * * * * * * * * * * * * * * * //

dimensions      [1 -1 -2 0 0 0 0];

internalField   nonuniform List<scalar> 
60000
(
123.874
123.86
123.837
123.803
123.757
123.7
123.631
123.549
123.454
123.346
123.222
123.083
122.928
122.755
122.565
122.355
122.126
121.876
121.605
121.312
120.998
120.661
120.303
119.922
119.52
119.098
118.656
118.195
117.718
117.224
116.717
116.197
115.667
115.129
114.585
114.037
113.486
112.935
112.384
111.835
111.288
110.744
110.202
109.662
109.122
108.581
108.037
107.487
106.929
106.361
105.78
105.185
104.572
103.942
103.293
102.624
101.936
101.23
100.506
99.7666
99.0131
98.2477
97.4729
96.6912
95.9052
95.1176
94.3314
93.5495
92.7749
92.0108
91.2603
90.5268
89.8133
89.123
88.4589
87.8236
87.2197
86.6491
86.1133
85.6134
85.1499
84.7228
84.3317
83.9757
83.654
83.3653
83.1085
82.8819
82.6853
82.5179
82.38
82.272
82.1946
82.1488
82.1365
82.1601
82.2229
82.3293
82.4846
82.6951
121.917
121.904
121.88
121.846
121.8
121.743
121.674
121.593
121.498
121.389
121.265
121.127
120.971
120.799
120.608
120.398
120.169
119.919
119.648
119.355
119.04
118.703
118.345
117.964
117.562
117.139
116.696
116.235
115.757
115.262
114.754
114.234
113.703
113.164
112.619
112.07
111.519
110.967
110.415
109.866
109.319
108.774
108.232
107.692
107.152
106.611
106.067
105.517
104.959
104.391
103.811
103.215
102.603
101.972
101.323
100.654
99.9657
99.259
98.5348
97.7948
97.0408
96.2749
95.4996
94.7173
93.9308
93.1427
92.356
91.5735
90.7984
90.0338
89.2828
88.5488
87.8348
87.1441
86.4796
85.8442
85.2401
84.6694
84.1337
83.634
83.1708
82.7441
82.3535
81.9983
81.6772
81.3892
81.133
80.9076
80.7119
80.5452
80.408
80.3006
80.2235
80.1778
80.1653
80.1884
80.2504
80.3555
80.5095
80.7179
119.961
119.947
119.924
119.89
119.845
119.788
119.719
119.637
119.543
119.434
119.311
119.172
119.017
118.845
118.654
118.445
118.216
117.966
117.695
117.402
117.087
116.75
116.391
116.01
115.607
115.184
114.74
114.278
113.799
113.303
112.794
112.272
111.74
111.2
110.653
110.103
109.55
108.997
108.444
107.893
107.345
106.8
106.258
105.717
105.177
104.637
104.093
103.543
102.986
102.418
101.838
101.243
100.631
100
99.3503
98.6811
97.9924
97.285
96.56
95.8191
95.0641
94.2972
93.5208
92.7375
91.9499
91.1608
90.373
89.5895
88.8134
88.0477
87.2957
86.5606
85.8457
85.1542
84.4889
83.8529
83.2484
82.6775
82.1418
81.6424
81.1797
80.7537
80.3641
80.0099
79.69
79.4032
79.1483
78.924
78.7293
78.5637
78.4269
78.3194
78.2419
78.1955
78.1818
78.2032
78.263
78.3651
78.5152
78.7189
118.006
117.992
117.969
117.935
117.89
117.834
117.765
117.684
117.59
117.482
117.359
117.221
117.067
116.895
116.705
116.496
116.267
116.018
115.747
115.454
115.139
114.802
114.443
114.061
113.657
113.233
112.788
112.325
111.844
111.347
110.835
110.312
109.777
109.235
108.686
108.134
107.579
107.023
106.469
105.917
105.368
104.821
104.278
103.737
103.197
102.657
102.113
101.564
101.008
100.441
99.861
99.2661
98.654
98.0235
97.3735
96.7036
96.014
95.3055
94.5793
93.8369
93.0804
92.312
91.534
90.7491
89.9599
89.1691
88.3797
87.5946
86.8169
86.0496
85.2959
84.5593
83.8429
83.15
82.4836
81.8466
81.2414
80.6702
80.1346
79.6356
79.1738
78.749
78.3608
78.0083
77.6903
77.4054
77.1523
76.9297
76.7366
76.5722
76.4363
76.3291
76.2513
76.2039
76.1885
76.2073
76.2635
76.361
76.5055
76.7023
116.051
116.038
116.015
115.981
115.937
115.88
115.812
115.732
115.639
115.531
115.41
115.273
115.119
114.948
114.759
114.551
114.323
114.074
113.804
113.511
113.197
112.859
112.499
112.117
111.712
111.287
110.841
110.375
109.892
109.393
108.879
108.352
107.816
107.27
106.719
106.163
105.605
105.047
104.491
103.936
103.385
102.838
102.293
101.752
101.212
100.672
100.128
99.5802
99.0244
98.4583
97.8792
97.2847
96.6729
96.0422
95.3917
94.7209
94.0302
93.3202
92.5922
91.848
91.0894
90.3189
89.5388
88.7517
87.9604
87.1675
86.376
85.5888
84.8088
84.0394
83.2836
82.5449
81.8265
81.1318
80.4639
79.8256
79.2197
78.6481
78.1127
77.6144
77.1538
76.7307
76.3447
75.9947
75.6794
75.3973
75.1469
74.9269
74.7359
74.5733
74.4386
74.332
74.2539
74.2053
74.1878
74.2032
74.2549
74.3467
74.4839
74.6719
114.096
114.084
114.061
114.028
113.984
113.928
113.861
113.782
113.689
113.583
113.463
113.327
113.175
113.005
112.817
112.61
112.383
112.135
111.866
111.574
111.259
110.921
110.561
110.178
109.772
109.345
108.897
108.43
107.944
107.442
106.925
106.395
105.855
105.306
104.75
104.191
103.63
103.068
102.508
101.951
101.398
100.849
100.303
99.7612
99.2208
98.6807
98.1381
97.5908
97.036
96.4708
95.8925
95.2987
94.6871
94.0562
93.405
92.7332
92.0409
91.329
90.5988
89.8521
89.091
88.3178
87.535
86.7453
85.9513
85.1558
84.3616
83.5717
82.7892
82.017
81.2586
80.5173
79.7964
79.0994
78.4295
77.7897
77.1827
76.6108
76.0756
75.5782
75.1193
74.6985
74.3154
73.9687
73.6569
73.3785
73.1317
72.9149
72.7268
72.5665
72.4334
72.3274
72.249
72.1991
72.1788
72.1906
72.2369
72.3216
72.4501
72.6273
112.142
112.13
112.107
112.075
112.031
111.977
111.911
111.832
111.741
111.637
111.518
111.384
111.233
111.065
110.879
110.674
110.448
110.201
109.932
109.641
109.327
108.989
108.628
108.244
107.838
107.409
106.959
106.489
106
105.494
104.974
104.44
103.895
103.342
102.782
102.218
101.652
101.087
100.523
99.9626
99.4064
98.8549
98.308
97.7648
97.2242
96.6842
96.1424
95.5961
95.0425
94.4785
93.9012
93.308
92.6967
92.0656
91.4136
90.7403
90.0462
89.3319
88.599
87.8494
87.0851
86.3087
85.5227
84.7297
83.9325
83.1339
82.3366
81.5435
80.7577
79.9824
79.2208
78.4763
77.7524
77.0527
76.3803
75.7387
75.1304
74.5579
74.023
73.5269
73.07
72.6521
72.2725
71.9299
71.6226
71.3488
71.1064
70.8937
70.7092
70.5517
70.4206
70.3155
70.2369
70.1853
70.1622
70.1693
70.2094
70.2858
70.4038
70.5682
110.187
110.175
110.153
110.122
110.079
110.026
109.961
109.884
109.795
109.692
109.575
109.443
109.295
109.129
108.945
108.742
108.517
108.272
108.004
107.714
107.4
107.063
106.701
106.316
105.908
105.477
105.025
104.552
104.06
103.55
103.025
102.486
101.937
101.378
100.813
100.244
99.6727
99.1022
98.534
97.9696
97.4101
96.856
96.3071
95.7629
95.2219
94.6822
94.1412
93.5961
93.0439
92.4813
91.9052
91.3128
90.7018
90.0703
89.4173
88.7425
88.046
87.3289
86.5928
85.8396
85.0717
84.2915
83.5017
82.705
81.9041
81.1017
80.3008
79.504
78.7146
77.9355
77.1701
76.4219
75.6945
74.9914
74.3162
73.6722
73.0625
72.4893
71.9548
71.4601
71.0056
70.5911
70.2158
69.8782
69.5763
69.3079
69.071
68.8633
68.6831
68.529
68.4002
68.2963
68.2174
68.1642
68.1377
68.1397
68.1725
68.2393
68.3452
68.4947
108.233
108.221
108.2
108.169
108.127
108.075
108.012
107.937
107.85
107.75
107.635
107.506
107.36
107.197
107.015
106.814
106.592
106.348
106.082
105.792
105.479
105.142
104.78
104.394
103.984
103.551
103.096
102.62
102.123
101.609
101.079
100.535
99.9795
99.4147
98.8434
98.268
97.691
97.1148
96.5414
95.9723
95.4089
94.8516
94.3006
93.7551
93.2136
92.6743
92.1343
91.5907
91.0401
90.4792
89.9045
89.3131
88.7024
88.0706
87.4164
86.7396
86.0405
85.3201
84.5802
83.8229
83.0507
82.2661
81.472
80.6709
79.8658
79.0593
78.2542
77.4533
76.6595
75.8762
75.1065
74.354
73.6224
72.9155
72.2369
71.5903
70.9786
70.4047
69.8705
69.3774
68.9257
68.5153
68.1451
67.8133
67.5177
67.2559
67.0254
66.8236
66.6485
66.4985
66.3725
66.2699
66.1909
66.1359
66.1057
66.1019
66.1266
66.1827
66.2748
66.4071
106.278
106.267
106.246
106.216
106.176
106.125
106.064
105.991
105.907
105.809
105.697
105.57
105.428
105.267
105.088
104.89
104.67
104.429
104.164
103.876
103.564
103.227
102.864
102.477
102.066
101.631
101.172
100.692
100.191
99.6721
99.1362
98.586
98.0237
97.452
96.8736
96.2911
95.7072
95.1244
94.5449
93.9705
93.4025
92.8417
92.2881
91.7411
91.1992
90.6603
90.1215
89.5796
89.031
88.472
87.899
87.3088
86.6986
86.0663
85.4108
84.7318
84.0296
83.3054
82.5612
81.7992
81.0221
80.2325
79.4334
78.6275
77.8177
77.0065
76.1967
75.3911
74.5927
73.8045
73.0299
72.2725
71.5362
70.8248
70.1423
69.4925
68.8786
68.3037
67.7699
67.2785
66.8301
66.4243
66.0599
65.7349
65.4468
65.1927
64.9696
64.7747
64.6055
64.4603
64.3376
64.2368
64.1577
64.1008
64.0667
64.0566
64.0724
64.1166
64.1932
64.3062
104.323
104.312
104.292
104.263
104.224
104.176
104.117
104.046
103.964
103.87
103.761
103.638
103.498
103.341
103.166
102.97
102.754
102.515
102.252
101.966
101.654
101.317
100.955
100.567
100.153
99.7154
99.2535
98.7691
98.2635
97.7385
97.1963
96.639
96.0693
95.4898
94.9033
94.3128
93.7211
93.1308
92.5443
91.9638
91.3906
90.8258
90.2693
89.7207
89.1783
88.6399
88.1026
87.5627
87.0165
86.4598
85.8889
85.3
84.6904
84.0577
83.4007
82.7191
82.0134
81.285
80.5358
79.7685
78.9857
78.1906
77.3859
76.5747
75.7595
74.9432
74.1283
73.3176
72.5139
71.7204
70.9403
70.1774
69.4356
68.7192
68.0321
67.3785
66.7621
66.1859
65.6523
65.1629
64.7182
64.3177
63.9599
63.6428
63.3632
63.118
62.9035
62.7166
62.5544
62.4146
62.2958
62.1971
62.1182
62.0593
62.0211
62.0043
62.0106
62.0417
62.1014
62.1929
102.367
102.357
102.338
102.31
102.273
102.226
102.17
102.102
102.023
101.932
101.827
101.708
101.572
101.419
101.247
101.055
100.842
100.606
100.346
100.061
99.7507
99.4143
99.0515
98.6622
98.2469
97.806
97.3403
96.8512
96.3401
95.8088
95.2594
94.6944
94.1163
93.528
92.9326
92.333
91.7324
91.1337
90.5394
89.952
89.373
88.8035
88.2439
87.6933
87.1505
86.6128
86.0773
85.5398
84.9963
84.4425
83.8739
83.2868
82.6779
82.0448
81.3862
80.7017
79.992
79.2587
78.5039
77.7306
76.9416
76.1402
75.3294
74.5122
73.6913
72.8694
72.049
71.2327
70.4233
69.6238
68.8376
68.0685
67.3207
66.5984
65.9061
65.2482
64.6286
64.0508
63.5175
63.0301
62.5894
62.1948
61.8447
61.5365
61.2667
61.0316
60.8271
60.6494
60.4952
60.3618
60.2475
60.1513
60.0727
60.012
59.9694
59.9457
59.9417
59.9589
60.0002
60.0681
100.411
100.401
100.383
100.356
100.321
100.277
100.223
100.159
100.083
99.9959
99.8952
99.78
99.6488
99.5002
99.3327
99.1449
98.9352
98.7023
98.445
98.1623
97.8533
97.5174
97.1543
96.7639
96.3464
95.9024
95.4327
94.9384
94.4212
93.8829
93.3257
92.752
92.1647
91.5667
90.9613
90.3516
89.7411
89.1329
88.5299
87.9347
87.3492
86.7746
86.2113
85.6588
85.1154
84.5786
84.0453
83.5106
82.9705
82.4199
81.8542
81.2692
80.6612
80.0278
79.3674
78.6797
77.9655
77.2267
76.4657
75.6855
74.8896
74.0812
73.2637
72.4401
71.613
70.785
69.9586
69.1363
68.3206
67.5147
66.7218
65.9459
65.1912
64.4623
63.764
63.1011
62.4778
61.8981
61.3647
60.8796
60.4433
60.0553
59.7137
59.4156
59.157
58.9335
58.7404
58.5732
58.428
58.3019
58.1929
58.0996
58.0217
57.9592
57.9123
57.8813
57.8668
57.8692
57.8908
57.933
98.4538
98.4442
98.427
98.4021
98.3689
98.3271
98.2762
98.2155
98.1441
98.061
97.965
97.8546
97.7284
97.5847
97.422
97.2387
97.0332
96.804
96.5498
96.2695
95.9621
95.6269
95.2636
94.872
94.4523
94.0049
93.5307
93.0309
92.5071
91.9611
91.3953
90.8122
90.2146
89.6059
88.9894
88.3685
87.747
87.1282
86.5155
85.9116
85.3187
84.7384
84.1711
83.6164
83.0726
82.5369
82.0062
81.4749
80.9387
80.392
79.8298
79.2472
78.6405
78.0067
77.3443
76.6531
75.934
75.189
74.4209
73.6332
72.8296
72.0136
71.1887
70.358
69.5242
68.6898
67.8571
67.0283
66.206
65.3931
64.593
63.8094
63.0471
62.3107
61.6056
60.9368
60.3092
59.727
59.1934
58.7105
58.279
57.8983
57.5663
57.2795
57.0336
56.8233
56.6432
56.488
56.3532
56.2354
56.1323
56.0425
55.9657
55.9016
55.8504
55.8121
55.7867
55.7737
55.7744
55.7889
96.4955
96.4865
96.4703
96.4471
96.4161
96.3771
96.3296
96.2727
96.2057
96.1274
96.0365
95.9315
95.8108
95.6726
95.5153
95.337
95.1361
94.9111
94.6604
94.3828
94.0773
93.743
93.3796
92.9867
92.5646
92.1136
91.6347
91.1289
90.5979
90.0436
89.4683
88.8748
88.2661
87.6455
87.0168
86.3836
85.7498
85.1194
84.4958
83.8822
83.2811
82.6944
82.1227
81.5657
81.0215
80.4874
79.9595
79.4324
78.9007
78.3587
77.8005
77.221
76.6158
75.9818
75.3174
74.6222
73.8975
73.1456
72.3697
71.5736
70.7614
69.937
69.1041
68.2659
67.425
66.5838
65.7443
64.9088
64.0794
63.2591
62.4509
61.6591
60.8882
60.1434
59.4305
58.755
58.1223
57.537
57.0029
56.5222
56.0959
55.7231
55.4017
55.1278
54.8961
54.7008
54.5354
54.3938
54.2708
54.1624
54.0661
53.9804
53.905
53.8396
53.7843
53.7389
53.7025
53.6738
53.6526
53.6375
94.5359
94.5275
94.5126
94.4912
94.4626
94.4266
94.3827
94.3301
94.2679
94.1949
94.1096
94.0106
93.8959
93.7639
93.6125
93.4398
93.2442
93.0237
92.7769
92.5024
92.199
91.8659
91.5024
91.1083
90.6837
90.2289
89.7448
89.2326
88.6938
88.1304
87.5449
86.9401
86.3192
85.6857
85.0434
84.3966
83.7494
83.106
82.4703
81.846
81.2359
80.6421
80.0656
79.506
78.9616
78.4293
77.9049
77.3826
76.8564
76.3199
75.7665
75.1906
74.5873
73.9533
73.2866
72.5871
71.8563
71.0966
70.312
69.5066
68.6849
67.8514
67.0098
66.1635
65.3151
64.4667
63.6203
62.7777
61.9409
61.1125
60.2958
59.4948
58.7145
57.9603
57.2385
56.5552
55.9164
55.3274
54.7923
54.3138
53.8929
53.5289
53.2192
52.9596
52.744
52.5656
52.4168
52.2907
52.181
52.0832
51.9946
51.9137
51.8401
51.7739
51.7149
51.6625
51.6154
51.5708
51.5269
51.4803
92.5749
92.5671
92.5534
92.5339
92.5079
92.4752
92.4353
92.3873
92.3304
92.2632
92.1842
92.0917
91.9838
91.8584
91.7136
91.5472
91.3573
91.142
90.8995
90.6285
90.3275
89.9957
89.6322
89.2369
88.8097
88.3509
87.8613
87.3422
86.795
86.2219
85.6253
85.0082
84.3739
83.7263
83.0694
82.4076
81.7455
81.0878
80.4388
79.8026
79.1825
78.5808
77.999
77.4366
76.8921
76.362
75.8418
75.3253
74.8055
74.2754
73.7277
73.1562
72.5553
71.9213
71.2523
70.5481
69.8104
69.0422
68.2478
67.432
66.6
65.7564
64.9055
64.0505
63.1942
62.3384
61.4848
60.6349
59.7903
58.9535
58.1276
57.3167
56.5258
55.7611
55.0292
54.3369
53.6911
53.0975
52.5608
52.0843
51.6691
51.3146
51.0179
50.7741
50.5766
50.4173
50.2874
50.1787
50.084
49.9982
49.9182
49.8428
49.7716
49.705
49.6427
49.584
49.5267
49.4663
49.3992
49.3194
90.612
90.6049
90.5926
90.5752
90.5519
90.5228
90.4871
90.4442
90.393
90.3322
90.2601
90.1748
90.0743
89.9563
89.8187
89.6593
89.4757
89.266
89.0284
88.7612
88.463
88.1326
87.7694
87.3729
86.9429
86.4799
85.9846
85.458
84.9019
84.3183
83.7097
83.0793
82.4305
81.7675
81.0945
80.4163
79.7379
79.0645
78.4008
77.7514
77.1201
76.5098
75.922
75.3568
74.8122
74.2849
73.7696
73.2598
72.7476
72.2251
71.6842
71.1178
70.5199
69.8863
69.2148
68.5054
67.76
66.9823
66.177
65.3498
64.5063
63.6518
62.7908
61.9267
61.0621
60.1988
59.3378
58.4804
57.6278
56.7822
55.9464
55.1247
54.3223
53.5457
52.8023
52.0998
51.4455
50.8463
50.3075
49.8327
49.4235
49.0791
48.7966
48.5705
48.3932
48.2554
48.1469
48.0578
47.98
47.9076
47.8373
47.7681
47.6999
47.6335
47.5686
47.5044
47.4377
47.3621
47.2713
47.157
88.647
88.6407
88.6298
88.6146
88.5943
88.5689
88.5379
88.5005
88.4556
88.4017
88.3371
88.2597
88.1673
88.0575
87.9279
87.7759
87.5994
87.396
87.1637
86.9008
86.6056
86.2771
85.9142
85.5165
85.0838
84.6163
84.1148
83.5804
83.0146
82.4197
81.7983
81.1535
80.4891
79.8092
79.1187
78.4226
77.7264
77.0356
76.3556
75.6917
75.0481
74.4282
73.834
73.2655
72.7212
72.1972
71.6877
71.1859
70.6825
70.1688
69.636
69.0757
68.4815
67.8485
67.1744
66.4593
65.7054
64.917
64.0997
63.2597
62.4036
61.5372
60.6653
59.7917
58.9186
58.0475
57.1792
56.3142
55.4534
54.5986
53.7524
52.919
52.1039
51.3141
50.5576
49.8432
49.1792
48.5732
48.0313
47.5578
47.1546
46.8211
46.5541
46.3476
46.1929
46.0794
45.995
45.9282
45.8693
45.8117
45.7522
45.6898
45.6254
45.5598
45.4934
45.4248
45.3501
45.2604
45.1461
44.9965
86.6797
86.6741
86.6648
86.6518
86.6347
86.6134
86.5874
86.5559
86.5178
86.4715
86.415
86.3463
86.2628
86.1619
86.041
85.8974
85.7285
85.532
85.3056
85.0474
84.7558
84.4293
84.0669
83.668
83.2324
82.7603
82.2523
81.7095
81.1336
80.5266
79.8913
79.2311
78.5497
77.8517
77.1421
76.4265
75.7106
75.0008
74.3029
73.6229
72.9656
72.3351
71.7337
71.1619
70.618
70.0979
69.5953
69.1029
68.6097
68.1064
67.583
67.0302
66.4403
65.8083
65.1316
64.4102
63.6469
62.8466
62.0158
61.1617
60.2916
59.4122
58.5287
57.6449
56.7632
55.8843
55.0087
54.1362
53.2673
52.4029
51.5457
50.6997
49.8706
49.066
48.2948
47.5667
46.8912
46.277
45.7311
45.2584
44.8612
44.5392
44.289
44.1041
43.9748
43.8887
43.8316
43.7899
43.7522
43.711
43.6631
43.6082
43.548
43.4841
43.4173
43.3463
43.2657
43.1641
43.0276
42.8434
84.7097
84.7049
84.6971
84.6866
84.6728
84.6558
84.6351
84.61
84.5792
84.5412
84.4937
84.4345
84.3607
84.2696
84.1582
84.0236
83.8632
83.6742
83.4544
83.2014
82.9136
82.5894
82.2278
81.8278
81.3894
80.9124
80.3976
79.8459
79.2591
78.6392
77.9892
77.3123
76.6126
75.895
75.1646
74.4277
73.6904
72.9596
72.242
71.5442
70.8718
70.2296
69.6203
69.0448
68.5015
67.986
67.4917
67.0099
66.5288
66.0378
65.5254
64.9813
64.3968
63.7663
63.0867
62.3585
61.5847
60.7712
59.9253
59.0554
58.17
57.2764
56.3804
55.4861
54.5955
53.709
52.8263
51.9466
51.0694
50.1954
49.3267
48.467
47.6226
46.8015
46.0135
45.2697
44.5809
43.9568
43.4056
42.9329
42.5416
42.2317
41.9997
41.8386
41.7376
41.6824
41.6563
41.6429
41.6289
41.6057
41.5702
41.5233
41.4677
41.4063
41.3407
41.2696
41.1864
41.0767
40.9215
40.706
82.7366
82.7327
82.7265
82.7185
82.7081
82.6957
82.6807
82.6625
82.6397
82.6106
82.5729
82.524
82.4608
82.3804
82.2794
82.1548
82.0036
81.8229
81.6101
81.363
81.0795
80.758
80.3972
79.9963
79.5549
79.0729
78.5509
77.9899
77.3915
76.758
76.092
75.3973
74.678
73.9391
73.1863
72.4261
71.6654
70.9117
70.1724
69.4549
68.7658
68.1104
67.4924
66.9129
66.3705
65.8606
65.3758
64.9063
64.4394
63.9626
63.4633
62.9294
62.3515
61.7229
61.0405
60.3047
59.5193
58.6909
57.8281
56.9407
56.0382
55.1291
54.2198
53.3145
52.415
51.5212
50.6318
49.7452
48.8601
47.9764
47.0956
46.2214
45.3601
44.5205
43.7137
42.9518
42.2474
41.6115
41.0534
40.5798
40.1941
39.8967
39.6842
39.5493
39.4799
39.4596
39.4687
39.4874
39.4998
39.4962
39.4738
39.4348
39.3839
39.3257
39.2631
39.195
39.1132
39.0009
38.8339
38.5939
80.7602
80.757
80.7525
80.747
80.7403
80.7326
80.7237
80.7129
80.6988
80.6794
80.6524
80.6147
80.5631
80.4943
80.4047
80.291
80.1498
79.9781
79.7731
79.5324
79.2536
78.9352
78.5756
78.1738
77.7294
77.2422
76.7127
76.1419
75.5313
74.8832
74.2004
73.4865
72.7461
71.9843
71.2072
70.4218
69.6355
68.8566
68.0934
67.3541
66.6464
65.9764
65.3487
64.7648
64.2235
63.7201
63.2464
62.7912
62.3409
61.8808
61.3966
60.8749
60.3047
59.6787
58.9934
58.2494
57.451
56.606
55.7243
54.8173
53.8959
52.9698
52.0462
51.1295
50.2212
49.3204
48.4249
47.5321
46.6395
45.7461
44.8529
43.9632
43.0835
42.2234
41.395
40.6124
39.8898
39.2399
38.6733
38.1975
37.8169
37.5322
37.3404
37.234
37.1999
37.2191
37.2682
37.3234
37.3653
37.3829
37.3739
37.3425
37.2961
37.2418
37.184
37.1218
37.0459
36.9371
36.7674
36.5122
78.78
78.7776
78.7747
78.7718
78.7688
78.7662
78.7638
78.7609
78.7561
78.7473
78.7318
78.7064
78.6675
78.6113
78.5342
78.4322
78.302
78.1402
77.9437
77.7099
77.4365
77.1214
76.7632
76.3608
75.9133
75.4208
74.8835
74.3024
73.6789
73.0153
72.3145
71.5803
70.8172
70.0307
69.2274
68.4145
67.6004
66.7938
66.0043
65.2409
64.5125
63.8263
63.1876
62.5989
62.0591
61.5632
61.1022
60.6637
60.2329
59.7921
59.3256
58.8181
58.2572
57.6346
56.9463
56.1932
55.3804
54.5167
53.6138
52.6848
51.7423
50.7976
49.8587
48.9303
48.0133
47.1062
46.2056
45.3073
44.4078
43.5051
42.5992
41.6931
40.7933
39.9101
39.0574
38.2511
37.5074
36.8408
36.2635
35.784
35.4076
35.1357
34.9657
34.8902
34.8952
34.9592
35.054
35.1506
35.2256
35.2661
35.2708
35.2467
35.2044
35.1543
35.1027
35.049
34.9831
34.8837
34.7197
34.4586
76.7956
76.794
76.7927
76.7924
76.7932
76.7958
76.8002
76.8058
76.8111
76.8138
76.8109
76.7988
76.7737
76.7314
76.6678
76.5787
76.4604
76.3093
76.1221
75.896
75.6284
75.3172
74.9607
74.5576
74.1072
73.6092
73.0638
72.4718
71.8348
71.1549
70.435
69.679
68.8917
68.0787
67.247
66.4044
65.5598
64.723
63.9044
63.1144
62.3629
61.6585
61.0076
60.4135
59.8754
59.3881
58.9419
58.5227
58.1145
57.6961
57.2503
56.7595
56.2096
55.5913
54.9001
54.1371
53.3081
52.4235
51.4967
50.5429
49.5769
48.6117
47.6564
46.7158
45.7906
44.8781
43.9734
43.0709
42.1655
41.2539
40.3353
39.4119
38.4902
37.5813
36.7008
35.8672
35.0991
34.4129
33.8224
33.3374
32.964
32.7045
32.557
32.5147
32.5631
32.6778
32.8251
32.9692
33.0814
33.1466
33.1651
33.1476
33.109
33.0632
33.0188
32.976
32.9242
32.8402
32.6894
32.4285
74.8066
74.8058
74.806
74.8082
74.8128
74.8209
74.8325
74.8472
74.8633
74.8784
74.8893
74.8918
74.8818
74.8545
74.8056
74.7306
74.6253
74.4858
74.3087
74.0909
73.8297
73.5228
73.1683
72.7648
72.3115
71.8078
71.254
70.6507
69.9995
69.3023
68.5623
67.7831
66.9699
66.1285
65.2661
64.3913
63.5136
62.6437
61.7931
60.9736
60.1963
59.4715
58.8068
58.2064
57.6702
57.1929
56.7638
56.3672
55.9846
55.5926
55.1708
54.6996
54.1628
53.5498
52.8558
52.0819
51.2349
50.3267
49.3729
48.3911
47.3989
46.4109
45.4379
44.485
43.5522
42.6354
41.7281
40.8229
39.9129
38.9933
38.0619
37.1204
36.1749
35.2373
34.3253
33.4604
32.664
31.9547
31.3481
30.8553
30.4834
30.2355
30.1108
30.1038
30.2003
30.3727
30.5807
30.7799
30.9342
31.0263
31.0584
31.0464
31.0105
30.9685
30.932
30.9028
30.8705
30.8091
30.6792
30.423
72.8126
72.8125
72.8141
72.8187
72.8271
72.8407
72.8599
72.8843
72.9122
72.9409
72.9666
72.9851
72.9915
72.9807
72.9478
72.888
72.7967
72.6699
72.5038
72.2951
72.0409
71.7387
71.3866
70.9829
70.5267
70.0173
69.4548
68.8398
68.1736
67.4583
66.6969
65.8932
65.0523
64.1804
63.2851
62.3753
61.4616
60.5554
59.6696
58.8172
58.0113
57.2635
56.5831
55.9755
55.4415
54.9755
54.566
54.1955
53.8424
53.4812
53.0873
52.639
52.1176
51.5112
50.8145
50.0288
49.1618
48.227
47.2426
46.2292
45.2072
44.1941
43.202
42.2365
41.2968
40.3774
39.4695
38.5635
37.6506
36.7241
35.7804
34.82
33.8486
32.8788
31.9309
31.0299
30.2008
29.4647
28.8387
28.3355
27.9631
27.7254
27.6233
27.6534
27.8031
28.0418
28.3208
28.5844
28.7871
28.908
28.9526
28.9437
28.9082
28.869
28.841
28.8288
28.8231
28.7933
28.6922
28.4433
70.8132
70.8136
70.8165
70.8233
70.8354
70.8546
70.8818
70.9166
70.9571
71.0005
71.0425
71.0784
71.1027
71.1098
71.0943
71.051
70.975
70.8619
70.7077
70.5089
70.2623
69.9655
69.6161
69.2125
68.7534
68.2382
67.6668
67.0395
66.3577
65.6234
64.8394
64.0097
63.1393
62.2349
61.3041
60.3567
59.4036
58.4578
57.5331
56.6444
55.8063
55.0325
54.3341
53.7182
53.1864
52.7332
52.3462
52.0058
51.6868
51.3616
51.0001
50.5784
50.0751
49.4769
48.7776
47.979
47.0897
46.125
45.1059
44.0566
43.0009
41.9597
40.9469
39.9687
39.0233
38.1031
37.197
36.2927
35.3789
34.447
33.4917
32.5119
31.5125
30.5067
29.5176
28.5752
27.7086
26.9413
26.2923
25.7758
25.4004
25.1712
25.0908
25.1595
25.3681
25.6835
26.0464
26.3862
26.6445
26.7954
26.8494
26.8387
26.799
26.7602
26.742
26.7519
26.7812
26.7915
26.7258
26.4835
68.808
68.8088
68.8125
68.8212
68.8368
68.8618
68.8973
68.9431
68.9974
69.0567
69.1166
69.1714
69.2152
69.2419
69.2454
69.22
69.1606
69.0623
68.9209
68.7328
68.4946
68.2036
67.8573
67.454
66.9923
66.4712
65.8905
65.2506
64.5526
63.7983
62.9905
62.1333
61.2317
60.2924
59.3236
58.3354
57.3398
56.3505
55.383
54.4539
53.5798
52.7765
52.0574
51.4316
50.9019
50.4632
50.1019
49.7961
49.5165
49.2334
48.9094
48.5184
48.0364
47.4481
46.7468
45.9342
45.02
44.0216
42.9631
41.8727
40.7789
39.706
38.6707
37.6797
36.73
35.8115
34.9101
34.0104
33.0985
32.1632
31.1972
30.1978
29.1682
28.1219
27.0855
26.0956
25.1862
24.3832
23.7074
23.1744
22.7932
22.57
22.5095
22.6174
22.8913
23.2961
23.7591
24.1898
24.5114
24.6913
24.7476
24.7265
24.6755
24.6346
24.6302
24.6704
24.7452
24.8008
24.7713
24.5313
66.7965
66.7974
66.8016
66.8118
66.8305
66.8612
66.9053
66.963
67.0321
67.1089
67.1882
67.2638
67.329
67.377
67.4011
67.3952
67.3536
67.2713
67.1439
66.9673
66.7382
66.4536
66.1109
65.7082
65.2439
64.7169
64.1268
63.4738
62.7589
61.9837
61.151
60.2647
59.33
58.3536
57.344
56.3119
55.27
54.2332
53.2186
52.2446
51.33
50.4931
49.7501
49.1124
48.5845
48.162
47.8302
47.5642
47.331
47.0952
46.815
46.4601
46.0029
45.4265
44.7236
43.8961
42.9544
41.918
40.8146
39.6772
38.5396
37.4309
36.3709
35.3671
34.4149
33.5011
32.608
31.7166
30.8096
29.8734
28.8984
27.8798
26.818
25.7265
24.6356
23.5912
22.6334
21.7897
21.0828
20.5295
20.1389
19.9181
19.8738
20.0196
20.3651
20.8743
21.4574
21.9965
22.3889
22.5933
22.6399
22.5956
22.5258
22.4834
22.5032
22.587
22.7069
22.8222
22.8274
22.5851
64.7784
64.7792
64.7832
64.7942
64.8156
64.8519
64.905
64.9753
65.0605
65.1563
65.2569
65.3553
65.4439
65.5151
65.5617
65.5768
65.5546
65.4895
65.3771
65.213
64.9937
64.7161
64.3775
63.9757
63.5089
62.9761
62.3763
61.7098
60.9773
60.1804
59.3216
58.4047
57.4349
56.419
55.3659
54.2865
53.1944
52.1058
51.0392
50.0152
49.0551
48.18
47.4091
46.7568
46.2303
45.8258
45.5274
45.3075
45.1281
44.9469
44.7171
44.4041
43.9758
43.4138
42.7102
41.8669
40.8949
39.8157
38.661
37.4696
36.2815
35.1319
34.0445
33.028
32.0757
31.1702
30.2899
29.4112
28.5132
27.5795
26.5979
25.5613
24.466
23.324
22.1698
21.0629
20.0503
19.1604
18.4171
17.8385
17.4334
17.2098
17.1751
17.3532
17.7739
18.4019
19.127
19.7946
20.2653
20.486
20.5069
20.4258
20.3325
20.2972
20.3611
20.5101
20.6974
20.863
20.9023
20.6676
62.7534
62.7535
62.7567
62.7676
62.7911
62.8326
62.895
62.9788
63.0814
63.1982
63.3222
63.4455
63.5597
63.6563
63.7272
63.7652
63.7638
63.7174
63.621
63.4703
63.2617
62.9917
62.6576
62.257
61.7881
61.2495
60.6398
59.9594
59.2088
58.3892
57.5031
56.5541
55.5473
54.4896
53.3899
52.2597
51.1132
49.968
48.8443
47.7648
46.7534
45.8345
45.0308
44.3608
43.8345
43.4497
43.1896
43.0227
42.9055
42.7877
42.6163
42.3517
41.9566
41.4118
40.7087
39.8489
38.8437
37.7164
36.5032
35.2493
34.0028
32.8059
31.688
30.6591
29.7096
28.8173
27.9552
27.095
26.2111
25.2843
24.2998
23.2478
22.1183
20.9199
19.6907
18.5112
17.4364
16.4932
15.7069
15.097
14.6713
14.4386
14.4025
14.5991
15.0917
15.8482
16.7345
17.5501
18.1055
18.3327
18.312
18.1853
18.0737
18.0669
18.2083
18.4509
18.7128
18.9299
19.008
18.8021
60.7211
60.72
60.7213
60.731
60.7557
60.8021
60.874
60.9722
61.0939
61.2335
61.3833
61.5341
61.6764
61.8007
61.8981
61.9608
61.9819
61.9554
61.8763
61.74
61.5428
61.2811
60.9521
60.5531
60.082
59.5371
58.918
58.2235
57.4542
56.6111
55.6965
54.7138
53.6681
52.566
51.4168
50.2321
49.0269
47.82
46.6334
45.4923
44.4232
43.4539
42.6116
41.9194
41.3917
41.0285
40.8119
40.7062
40.6608
40.6166
40.5127
40.304
39.947
39.4225
38.7214
37.845
36.8037
35.6225
34.3421
33.0158
31.7012
30.4496
29.2971
28.2564
27.3139
26.4408
25.6042
24.7694
23.9061
22.9916
22.0086
20.9448
19.7812
18.5189
17.1975
15.9325
14.7865
13.7833
12.949
12.3039
11.8523
11.6034
11.5467
11.7345
12.2857
13.1704
14.232
15.2143
15.8592
16.0816
16.0078
15.8377
15.7266
15.7843
16.0507
16.4202
16.7638
17.0344
17.1604
17.0045
58.6815
58.6782
58.6764
58.6834
58.708
58.7588
58.8404
58.9541
59.0966
59.2614
59.4396
59.6206
59.7937
59.9483
60.0746
60.1641
60.2093
60.2042
60.1435
60.0227
59.8377
59.585
59.2615
58.8645
58.3917
57.8411
57.2119
56.5029
55.7143
54.8469
53.9027
52.8849
51.7983
50.6495
49.4476
48.2045
46.936
45.6618
44.4062
43.1967
42.0626
41.0353
40.1471
39.4272
38.8956
38.5555
38.3885
38.3537
38.3914
38.4325
38.4067
38.2621
37.9481
37.4476
36.7509
35.8581
34.7782
33.5367
32.1795
30.769
29.3747
28.0588
26.8672
25.8158
24.8858
24.0393
23.2365
22.4354
21.5991
20.7021
19.7245
18.6527
17.4553
16.1195
14.6807
13.3166
12.0927
11.0284
10.1486
9.46862
8.98693
8.71645
8.61319
8.74755
9.33054
10.327
11.5704
12.7398
13.4812
13.6888
13.5563
13.3568
13.2775
13.4462
13.8969
14.427
14.8481
15.1745
15.382
15.3137
56.6343
56.628
56.6211
56.6236
56.6465
56.7008
56.7925
56.9228
57.0881
57.2808
57.4903
57.7047
57.9117
58.0995
58.2572
58.3755
58.4468
58.4645
58.4235
58.3191
58.1472
57.9042
57.5868
57.1921
56.7178
56.1616
55.5223
54.7986
53.9902
53.0978
52.1229
51.0684
49.939
48.7409
47.4832
46.1779
44.8411
43.4939
42.1626
40.8773
39.67
38.5758
37.6329
36.8779
36.3386
36.0232
35.9126
35.9601
36.0944
36.2349
36.2975
36.2264
35.9614
35.4886
34.7994
33.8916
32.7709
31.4626
30.0175
28.5092
27.0212
25.6293
24.3917
23.3311
22.42
21.6084
20.8485
20.089
19.2854
18.4095
17.4402
16.3639
15.1365
13.718
12.1274
10.6567
9.35003
8.22708
7.3045
6.58437
6.06771
5.78176
5.61109
5.64063
6.23868
7.33956
8.7804
10.1571
10.9869
11.1512
10.9446
10.7293
10.7127
11.0421
11.7507
12.4839
12.9712
13.3508
13.6769
13.836
54.5799
54.569
54.5549
54.5503
54.5695
54.6263
54.728
54.8764
55.0668
55.2903
55.5346
55.7859
56.0303
56.2544
56.4463
56.5958
56.6949
56.7371
56.717
56.63
56.472
56.2393
55.9286
55.5367
55.0612
54.4996
53.8501
53.1115
52.2829
51.3647
50.358
49.2656
48.0914
46.8416
45.525
44.1534
42.7433
41.3168
39.9026
38.5336
37.2442
36.0728
35.0639
34.2641
33.7119
33.4223
33.3763
33.5197
33.7666
34.0225
34.1857
34.1974
33.9873
33.5467
32.8692
31.9489
30.7866
29.4052
27.8598
26.237
24.638
23.1538
21.8607
20.7925
19.9081
19.1405
18.4335
17.7237
16.9573
16.1069
15.1507
14.0791
12.841
11.3414
9.54427
7.96183
6.54558
5.35353
4.3623
3.56856
3.00173
2.72057
2.4625
2.31795
2.96641
4.24058
5.99207
7.65256
8.54913
8.58573
8.23495
7.98017
8.02446
8.54662
9.60596
10.595
11.1183
11.5096
11.9357
12.2841
52.5185
52.5011
52.4767
52.4619
52.4749
52.5328
52.6447
52.8126
53.0309
53.2887
53.5716
53.8638
54.1494
54.4134
54.6425
54.8257
54.9547
55.0228
55.0248
54.9562
54.8129
54.5912
54.2877
53.8992
53.4227
52.8558
52.1963
51.4425
50.5934
49.6487
48.6094
47.4775
46.2568
44.953
43.5743
42.1324
40.6436
39.1313
37.6265
36.1654
34.7844
33.5236
32.435
31.5776
31.0048
30.7415
30.7697
31.0255
31.4042
31.7934
32.0712
32.1755
32.0261
31.6218
30.962
30.0341
28.8315
27.3713
25.7106
23.9523
22.2206
20.6241
19.2633
18.1923
17.3454
16.6334
15.9936
15.3465
14.6276
13.8166
12.8923
11.8473
10.6497
9.08031
6.97326
5.24836
3.66003
2.41036
1.29596
0.368729
-0.263007
-0.485636
-0.915509
-1.44664
-0.849646
0.511909
2.73189
4.96717