/*--------------------------------*- C++ -*----------------------------------*\
| =========                 |                                                 |
| \\      /  F ield         | OpenFOAM: The Open Source CFD Toolbox           |
|  \\    /   O peration     | Version:  2.4.0                                 |
|   \\  /    A nd           | Web:      www.OpenFOAM.org                      |
|    \\/     M anipulation  |                                                 |
\*---------------------------------------------------------------------------*/
FoamFile
{
    version     2.0;
    format      ascii;
    class       volScalarField;
    location    "0.185";
    object      alpha.water;
}
// * * * * * * * * * * * * * * * * * * * * * * * * * * * * * * * * * * * * * //

dimensions      [0 0 0 0 0 0 0];

internalField   nonuniform List<scalar> 
14400
(
1
1
1
1
1
1
1
1
1
1
1
1
1
1
1
1
1
1
1
1
1
1
1
1
1
1
1
1
1
1
1
1
1
1
1
1
1
1
1
1
1
1
1
1
1
1
1
1
1
1
1
1
1
1
1
1
1
1
1
1
1
1
1
1
1
1
1
1
1
1
1
1
1
1
1
1
1
1
1
1
1
1
1
1
1
1
1
1
1
1
1
1
1
1
1
1
1
1
1
1
1
1
1
1
1
1
1
1
1
1
1
1
1
1
1
1
1
1
1
1
1
1
1
1
1
1
1
1
1
1
1
1
1
1
1
1
1
1
1
1
1
1
1
1
1
1
1
1
1
1
1
1
1
1
1
1
1
1
1
1
1
1
1
1
1
1
1
1
1
1
1
1
1
1
1
1
1
1
1
1
1
1
1
1
1
1
1
1
1
1
1
1
1
1
1
1
1
1
1
1
1
1
1
1
1
1
1
1
1
1
1
1
1
1
1
1
1
1
1
1
1
1
1
1
1
1
1
1
1
1
1
1
1
1
1
1
1
1
1
1
1
1
1
1
1
1
1
1
1
1
1
1
1
1
1
1
1
1
1
1
1
1
1
1
1
1
1
1
1
1
1
1
1
1
1
1
1
1
1
1
1
1
1
1
1
1
1
1
1
1
1
1
1
1
1
1
1
1
1
1
1
1
1
1
1
1
1
1
1
1
1
1
1
1
1
1
1
1
1
1
1
1
1
1
1
1
1
1
1
1
1
1
1
1
1
1
1
1
1
1
1
1
1
1
1
1
1
1
1
1
1
1
1
1
1
1
1
1
1
1
1
1
1
1
1
1
1
1
1
1
1
1
1
1
1
1
1
1
1
1
1
1
1
1
1
1
1
1
1
1
1
1
1
1
1
1
1
1
1
1
1
1
1
1
1
1
1
1
1
1
1
1
1
1
1
1
1
1
1
1
1
1
1
1
1
1
1
1
1
1
1
1
1
1
1
1
1
1
1
1
1
1
1
1
1
1
1
1
1
1
1
1
1
1
1
1
1
1
1
1
1
1
1
1
1
1
1
1
1
1
1
1
1
1
1
1
1
1
1
1
1
1
1
1
1
1
1
1
1
1
1
1
1
1
1
1
1
1
1
1
1
1
1
1
1
1
1
1
1
1
1
1
1
1
1
1
1
1
1
1
1
1
1
1
1
1
1
1
1
1
1
1
1
1
1
1
1
1
1
1
1
1
1
1
1
1
1
1
1
1
1
1
1
1
1
1
1
1
1
1
1
1
1
1
1
1
1
1
1
1
1
1
1
0.998284
1
1
1
1
1
1
1
1
1
1
1
1
1
1
1
1
1
1
1
1
1
1
1
1
1
1
1
1
0.999904
0.997506
1
1
1
1
1
1
1
1
1
1
1
1
1
1
0.999958
0.999999
1
1
1
1
1
1
1
1
1
1
1
0.999213
1
0.997909
1
1
1
1
1
0.999999
1
1
1
1
1
1
1
0.999978
0.999967
1
1
1
1
1
1
1
1
1
1
1
1
0.986201
0.999622
0.9958
1
1
1
1
1
0.999998
1
1
1
1
1
1
1
0.999962
0.999993
0.999998
0.999847
1
1
1
1
1
1
1
1
1
1
0.986204
0.99947
0.972549
1
0.999951
0.993181
1
1
0.999998
1
1
1
1
1
1
0.999999
0.999999
0.999999
0.999999
0.999172
0.999852
1
1
1
1
1
1
1
1
0.999992
0.999026
0.996827
0.999512
0.999994
0.999489
0.969536
0.999868
0.999985
0.999999
1
1
1
0.999973
0.999993
1
1
0.999682
0.998953
0.999954
0.999987
0.999543
1
1
1
1
1
1
1
1
0.999916
0.999217
0.99229
0.999395
0.140624
0.976476
0.934506
1
0.999967
1
1
1
0.999585
0.999331
0.999342
0.999987
0.999998
0.99987
0.998953
0.999396
0.999935
0.999813
0.999993
1
1
1
1
1
1
1
0.999816
0.999429
0.975452
0.109173
0.0491768
0.834293
0.951822
1
0.999978
0.999998
1
0.999959
0.999732
0.999978
0.999993
0.999988
0.999998
0.999007
0.999734
0.999317
0.99934
0.999999
0.999989
1
1
1
1
1
1
1
0.999767
0.907216
0.551814
0.00332539
0.00255383
0.320437
0.988371
0.997635
0.999995
0.999981
1
0.999987
0.999847
0.997582
0.999994
0.999994
0.999998
0.999305
0.999927
0.999952
0.999892
1
1
1
1
1
1
1
1
1
0.999699
0.415108
2.52325e-05
7.50395e-05
0.0021023
0.0105322
0.593889
0.997383
1
1
0.999998
0.999999
0.997573
0.998601
0.999985
0.999988
0.999985
0.974123
0.903788
0.83223
0.911912
0.976861
1
1
1
1
1
1
1
1
0.994072
0.027644
4.30927e-06
1.38055e-05
0.00148699
4.84615e-05
0.102869
0.900432
0.999999
0.999996
0.999945
0.999317
0.999029
0.999718
0.900739
0.413585
0.0370009
4.23251e-10
4.51304e-12
-1.36875e-06
0.000203774
0.000350083
0.00481964
0.0265583
0.0590962
0.091532
0.116768
0.133512
0.145424
0.155988
1
1
1
1
1
1
1
1
1
1
1
1
1
1
1
1
1
1
1
1
1
1
1
1
1
1
1
1
1
1
1
1
1
1
1
1
1
1
1
1
1
1
1
1
1
1
1
1
1
1
1
1
1
1
1
1
1
1
1
1
1
1
1
1
1
1
1
1
1
1
1
1
1
1
1
1
1
1
1
1
1
1
1
1
1
1
1
1
1
1
1
1
1
1
1
1
1
1
1
1
1
1
1
1
1
1
1
1
1
1
1
1
1
1
1
1
1
1
1
1
1
1
1
1
1
1
1
1
1
1
1
1
1
1
1
1
1
1
1
1
1
1
1
1
1
1
1
1
1
1
1
1
1
1
1
1
1
1
1
1
1
1
1
1
1
1
1
1
1
1
1
1
1
1
1
1
1
1
1
1
1
1
1
1
1
1
1
1
1
1
1
1
1
1
1
1
1
1
1
1
1
1
1
1
1
1
1
1
1
1
1
1
1
1
1
1
1
1
1
1
1
1
1
1
1
1
1
1
1
1
1
1
1
1
1
1
1
1
1
1
1
1
1
1
1
1
1
1
1
1
1
1
1
1
1
1
1
1
1
1
1
1
1
1
1
1
1
1
1
1
1
1
1
1
1
1
1
1
1
1
1
1
1
1
1
1
1
1
1
1
1
1
1
1
1
1
1
1
1
1
1
1
1
1
1
1
1
1
1
1
1
1
1
1
1
1
1
1
1
1
1
1
1
1
1
1
1
1
1
1
1
1
1
1
1
1
1
1
1
1
1
1
1
1
1
1
1
1
1
1
1
1
1
1
1
1
1
1
1
1
1
1
1
1
1
1
1
1
1
1
1
1
1
1
1
1
1
1
1
1
1
1
1
1
1
1
1
1
1
1
1
1
1
1
1
1
1
1
1
1
1
1
1
1
1
1
1
1
1
1
1
1
1
1
1
1
1
1
1
1
1
1
1
1
1
1
1
1
1
1
1
1
1
1
1
1
1
1
1
1
1
1
1
1
1
1
1
1
1
1
1
1
1
1
1
1
1
1
1
1
1
1
1
1
1
1
1
1
1
1
1
1
1
1
1
1
1
1
1
1
1
1
1
1
1
1
1
1
1
1
1
1
1
1
1
1
1
1
1
1
1
1
1
1
1
1
1
1
1
1
1
1
1
1
1
1
1
1
1
1
1
1
1
1
1
1
1
1
1
1
1
1
1
1
1
1
1
1
1
1
1
1
1
1
1
1
1
1
1
1
1
1
1
1
1
1
1
1
1
1
1
1
1
1
1
1
1
1
1
1
1
1
1
1
1
1
1
1
1
1
1
1
1
1
1
1
1
1
1
1
1
1
1
1
1
1
1
1
1
1
1
1
1
1
1
1
1
1
1
1
1
1
1
1
1
1
1
1
1
1
1
0.999999
1
1
1
1
1
1
1
1
1
1
1
1
1
1
1
1
1
1
1
0.999997
0.999999
1
1
1
1
1
1
1
1
0.999999
1
1
1
1
1
1
1
1
1
1
1
1
1
1
1
1
1
1
1
1
0.999671
0.99917
1
1
1
1
1
1
1
0.999999
1
1
1
1
1
1
1
1
1
1
1
1
1
1
1
1
1
1
1
1
0.999251
0.999791
1
1
1
1
1
1
1
1
1
1
1
1
1
1
1
1
1
1
1
1
1
1
1
1
1
0.999998
1
0.999679
0.999529
0.99974
1
0.999992
0.99979
0.999953
1
1
0.999998
0.999999
1
0.999956
0.963416
0.820156
0.994218
1
1
1
1
1
1
1
1
1
1
1
0.999997
1
1
0.999096
0.999491
0.999492
0.999953
0.999913
0.999984
0.999638
1
1
1
1
1
0.999285
0.975763
0.454922
0.290127
0.999952
1
1
1
1
1
1
1
1
1
1
0.999999
0.999967
0.999979
0.999096
0.999993
0.999992
0.999833
0.999994
0.999994
0.999635
0.99983
1
1
0.999996
0.999867
1
0.93629
0.161667
0.0152574
0.574204
1
1
1
1
1
1
1
1
1
1
1
1
0.999997
0.999971
0.999993
0.999992
0.999807
0.999994
0.999994
0.999635
0.999995
1
0.999999
0.999999
1
1
0.502666
0.00191015
1.38188e-06
1.67086e-05
0.908868
1
1
1
1
1
1
1
1
1
1
1
0.984189
0.941476
0.835115
0.835071
0.995003
0.999984
0.999992
0.999682
0.999683
0.999977
1
1
1
0.966141
0.0567215
0.00155268
9.36177e-09
2.90882e-07
7.82183e-05
0.999926
0.164824
0.170249
0.168939
0.155542
0.129376
0.0950818
0.0664135
0.0466396
0.0301636
0.00606365
9.64723e-05
7.52291e-05
3.16647e-05
5.58863e-07
5.68643e-06
0.4797
0.999899
0.999941
0.999994
0.999702
0.999928
0.999999
1
0.685324
2.34261e-05
1.22352e-06
8.57598e-10
1.23558e-09
9.10505e-07
0.314673
1.15263e-07
3.57765e-05
4.41741e-06
1.65446e-05
2.29777e-05
2.87614e-05
0.000151688
0.366552
1
1
0.998526
0.999808
0.999945
0.306166
4.35765e-05
1.09117e-07
3.75341e-09
3.7203e-09
3.39846e-09
-5.45628e-09
1.73311e-06
3.5595e-06
4.78979e-06
8.65419e-06
1.30409e-05
1.81284e-05
2.26571e-05
2.47813e-05
2.46262e-05
2.37212e-05
1.15256e-07
1.49927e-07
0.000183523
4.14925e-05
2.52046e-05
0.00015187
5.3388e-05
0.0326953
1
0.999989
0.999978
0.999969
0.957409
0.000427017
5.49603e-06
6.14122e-07
5.44356e-07
1.35941e-08
4.41789e-09
3.47178e-09
2.05055e-09
6.85845e-09
4.0886e-09
7.01482e-09
1.12174e-08
1.57024e-08
2.01648e-08
2.46489e-08
2.8945e-08
3.17346e-08
1.992e-07
1.98313e-05
5.35487e-06
0.000171464
2.65373e-05
0.000159181
7.80971e-06
0.000154829
0.512398
0.999994
0.999978
0.999926
0.0217868
1.36847e-05
3.07005e-06
7.91437e-06
8.59868e-06
2.78092e-08
5.13417e-09
1.49305e-07
4.94715e-09
4.7237e-09
3.10774e-09
3.03456e-09
3.25618e-09
3.78382e-09
4.68736e-09
6.03551e-09
7.57401e-09
8.3597e-09
4.23278e-07
8.86865e-06
5.35488e-06
4.42819e-05
0.000109255
3.48254e-06
4.22401e-06
4.58399e-06
0.0233149
0.99996
0.999848
0.450238
0.000108555
0.000202366
6.03754e-05
1.31096e-05
7.50592e-08
1.68536e-06
1.5042e-07
3.5761e-07
5.13793e-08
2.87306e-09
2.6694e-09
2.63128e-09
2.7845e-09
3.5141e-09
4.59085e-09
5.85917e-09
7.1475e-09
8.13968e-09
2.52451e-07
4.28178e-07
5.02652e-05
0.000204786
2.76768e-05
3.8076e-06
3.68963e-05
0.000130338
9.49078e-05
0.336698
0.111901
0.00397707
6.49731e-05
0.000363707
0.000257036
1.66224e-05
1.3152e-06
8.07795e-06
3.63197e-06
1.30904e-06
3.48915e-06
1.2457e-05
1.57118e-09
2.62748e-09
2.64502e-09
3.25084e-09
4.26868e-09
5.48392e-09
7.05414e-09
7.93325e-09
4.87515e-24
4.97508e-05
0.000110685
0.000206365
2.99152e-05
0.000633
4.46839e-05
0.000194315
9.16606e-05
0.00102349
3.69291e-06
4.96077e-06
0.000364328
0.000365295
0.000134248
0.000149593
3.3463e-05
1.8574e-06
0.00287651
1.27346e-06
7.28285e-07
2.05867e-05
2.67074e-05
1.46612e-06
3.32802e-09
3.34778e-09
4.13545e-09
5.19431e-09
6.87437e-09
7.92174e-09
9.46787e-21
4.40404e-07
5.42661e-06
0.000131284
2.9857e-05
0.00122986
5.56726e-08
0.000194147
0.000180906
4.25556e-05
5.67717e-06
4.18512e-05
2.67578e-05
0.00036772
0.000308991
1.638e-05
5.98507e-07
0.000124623
0.00287306
1.49982e-05
3.02509e-06
7.99869e-07
2.73986e-05
2.75746e-05
3.67941e-07
4.30246e-09
4.41924e-09
5.01167e-09
6.51678e-09
7.92902e-09
2.41736e-18
2.66989e-06
5.42801e-06
5.14968e-06
3.27302e-05
0.00130001
6.15442e-08
9.71615e-05
0.000172976
1.32972e-05
4.04422e-05
1.89544e-06
1.11458e-06
1.04034e-06
0.000293461
5.82612e-09
2.98877e-08
0.00125761
0.00287322
0.000234582
2.83015e-06
2.97097e-06
8.75237e-08
2.75878e-05
2.76166e-05
1.5164e-08
4.91872e-09
4.96778e-09
6.038e-09
7.44826e-09
8.33578e-18
1.65536e-06
5.83561e-06
0.000168371
4.91324e-05
0.000975165
3.80321e-05
3.0149e-05
0.000124523
1.78006e-05
2.47173e-06
1.39334e-06
1.20501e-06
9.91191e-07
0.000175333
5.66898e-09
8.38709e-08
0.00189496
0.00287801
0.000771735
5.23869e-07
8.68572e-06
2.34444e-08
2.87719e-06
1.40468e-05
3.18091e-07
5.58192e-09
5.02076e-09
5.54538e-09
6.61982e-09
2.75755e-17
2.90954e-05
5.68404e-06
0.000158902
0.000110443
8.46978e-05
1.38016e-07
1.14677e-07
2.29837e-06
3.91957e-05
7.45961e-06
1.40014e-06
2.45632e-05
1.24596e-06
0.000118136
5.67059e-09
1.1984e-07
0.000522995
0.00286831
2.24758e-05
7.91492e-08
1.20359e-05
2.34073e-08
2.40331e-08
1.85611e-08
5.23538e-08
7.01063e-09
5.38795e-09
5.12523e-09
5.86982e-09
8.87139e-17
1.18845e-07
5.73742e-06
1.67412e-06
1.43458e-06
0.000173102
2.34201e-05
8.93886e-08
1.15476e-06
3.90494e-05
1.03093e-05
2.23459e-05
2.45632e-05
4.37616e-06
9.02809e-05
2.49324e-05
5.82939e-09
1.68699e-05
0.000480949
2.56734e-06
2.19576e-09
1.366e-06
1.0619e-05
1.02102e-08
7.09303e-09
5.94625e-09
5.62351e-09
5.53972e-09
8.70703e-09
5.97513e-09
2.68824e-16
4.65033e-07
7.45417e-05
9.83203e-09
1.08518e-08
0.000154942
2.21923e-06
7.61981e-08
1.01958e-07
9.50399e-07
1.71162e-05
5.33151e-06
6.38846e-06
6.87831e-07
2.97685e-05
0.000195891
5.92694e-09
1.44363e-05
1.18102e-05
4.5422e-06
2.17317e-09
2.74803e-09
3.86447e-07
4.00357e-05
4.10515e-05
4.09731e-05
9.84853e-06
5.80439e-09
5.68998e-09
5.2322e-09
7.13985e-16
1.78461e-09
1.63179e-06
3.20501e-06
1.07243e-10
0.000192366
2.21136e-06
8.81181e-08
1.41639e-05
2.08459e-06
5.5942e-07
1.89303e-05
3.73552e-06
8.65081e-07
8.53401e-06
1.01385e-05
4.53088e-05
1.28518e-05
1.75445e-05
1.99197e-09
2.05785e-09
2.28867e-09
2.6342e-09
3.04489e-08
1.77251e-05
2.31655e-05
1.12779e-05
8.40797e-07
3.94826e-07
2.27814e-08
1.48498e-15
9.18177e-12
7.01894e-09
4.47135e-06
1.15609e-11
0.00019363
4.74672e-05
1.14259e-07
3.44726e-05
3.46704e-05
4.52614e-07
1.08282e-06
3.73414e-07
4.51265e-06
2.76997e-05
1.48862e-05
3.39479e-05
4.76714e-05
1.65319e-05
4.19148e-06
2.33252e-09
2.11119e-09
2.14175e-09
2.34965e-09
3.67252e-09
4.39393e-09
3.52344e-09
7.89369e-07
7.87688e-07
6.62487e-07
2.05167e-15
1.51609e-10
1.37327e-06
2.13472e-11
1.05467e-11
4.77033e-05
1.18312e-05
1.94539e-06
9.53754e-06
1.47724e-05
6.90908e-06
4.09841e-07
6.82134e-06
2.72388e-08
3.05251e-06
1.66929e-05
3.51781e-06
4.22532e-05
5.52398e-05
6.38216e-05
2.71044e-09
5.53861e-09
2.28267e-09
1.95016e-09
2.17162e-09
2.38628e-09
2.22532e-09
2.23194e-09
2.44291e-09
2.50477e-09
1.52753e-15
1.09644e-07
0.00036592
1.34439e-11
1.05386e-11
2.30819e-08
5.08274e-06
2.75923e-06
1.20921e-05
1.06235e-07
7.30692e-06
1.02863e-05
2.05412e-06
4.94259e-09
4.93702e-09
1.02819e-08
8.14144e-05
2.60098e-06
3.93649e-05
0.000174348
7.94999e-09
4.386e-09
2.75459e-09
2.86199e-09
2.12622e-09
1.8435e-09
1.69633e-09
1.66706e-09
1.66751e-09
1.66631e-09
5.20885e-16
7.75789e-14
0.000365902
2.82941e-10
7.95499e-11
1.34523e-10
1.311e-10
1.57502e-05
2.75809e-05
3.21305e-08
8.90096e-08
3.18759e-10
9.49865e-09
1.06022e-08
2.77746e-07
0.000803262
0.00214154
0.000887299
8.55467e-06
0.000174348
6.98762e-06
8.28481e-09
3.20516e-05
2.73846e-09
2.9115e-09
2.58106e-09
2.13295e-09
1.8564e-09
1.67831e-09
1.5591e-09
8.24859e-17
8.8015e-12
0.000359197
4.05759e-10
1.05551e-10
2.05151e-10
2.33105e-10
3.19402e-06
2.32943e-05
7.85342e-09
7.94689e-10
3.74927e-10
3.21143e-10
7.09276e-05
2.09323e-08
0.000676777
0.00214277
0.00214183
8.99278e-06
1.10963e-05
4.53842e-06
5.44322e-08
0.000308798
0.000296808
2.28541e-08
3.45792e-09
3.0566e-09
2.38252e-09
2.10229e-09
1.836e-09
6.9169e-18
1.13331e-07
0.000363639
1.14792e-10
1.45931e-10
7.30545e-10
4.94485e-05
4.60894e-06
9.69886e-06
6.46554e-07
5.50686e-10
2.8268e-10
2.65024e-10
9.07095e-05
1.06867e-05
0.0001155
0.00213756
0.000875501
1.41738e-05
4.96331e-07
3.95601e-07
3.91571e-07
0.000308851
0.000308542
2.31421e-05
9.61163e-09
1.40969e-08
3.08112e-09
4.25091e-09
4.16646e-08
4.40051e-19
1.01305e-13
0.000362918
2.49271e-11
1.37487e-10
8.54014e-11
6.31498e-05
3.80273e-05
2.88887e-06
4.97586e-08
1.78913e-10
2.62598e-10
1.76945e-07
4.917e-06
8.25718e-06
2.71592e-05
0.000371632
2.62952e-05
3.95228e-05
4.21827e-07
4.05309e-07
4.04887e-07
1.99638e-05
0.000308535
3.48589e-05
2.09384e-08
7.87201e-09
5.05372e-08
0.000300723
0.00128584
1.74953e-20
1.36281e-09
1.01595e-12
1.65001e-11
1.64646e-10
8.58057e-11
5.19189e-05
8.47505e-06
5.85815e-05
8.66502e-05
1.56646e-10
2.52425e-10
2.8496e-10
3.07219e-10
1.88736e-07
8.31414e-08
1.70716e-07
7.81251e-05
7.04548e-07
4.23165e-07
4.18397e-07
2.28297e-05
3.36272e-06
0.000161011
5.13744e-05
2.52125e-08
1.98259e-08
3.66358e-05
7.11356e-05
0.00117485
3.59239e-22
1.63476e-06
-3.37243e-11
1.50326e-11
2.90163e-10
7.56183e-07
6.71077e-05
5.51714e-05
0.00019059
2.55798e-07
1.2281e-10
1.95996e-10
3.07264e-10
1.47971e-06
2.68763e-06
2.68763e-06
5.24505e-07
1.25275e-07
0.000196592
4.38618e-07
3.45005e-05
8.83147e-05
1.24514e-05
0.000297866
7.52182e-05
4.66029e-08
2.61331e-08
6.28797e-09
1.14482e-08
3.20836e-09
3.1754e-24
1.91206e-06
0.000563166
9.40911e-12
2.04203e-10
3.37792e-07
6.72233e-05
4.52098e-05
0.000219157
1.53543e-05
1.9883e-09
1.812e-10
2.91773e-10
2.90025e-08
5.31847e-07
1.23863e-06
1.19031e-06
1.17038e-07
0.000197086
6.96837e-06
8.32154e-05
4.94508e-05
0.000297828
0.000298034
8.62593e-07
3.81297e-09
9.30893e-09
3.15157e-09
2.1193e-08
1.04215e-07
1.07436e-26
1.15592e-06
0.000563193
4.70555e-12
9.37198e-11
4.81067e-07
3.93654e-05
1.43503e-06
0.000219098
4.74177e-07
9.70479e-09
1.37746e-10
1.50809e-08
1.52814e-05
1.21088e-07
1.93455e-08
1.95122e-08
3.99096e-08
0.000186283
8.08145e-06
0.000107421
0.000269963
0.000201048
3.0152e-06
4.76094e-09
3.72257e-09
1.26488e-06
5.25211e-07
6.48646e-08
1.58972e-09
1.30917e-29
2.59967e-12
0.000562657
1.93817e-12
3.0086e-11
6.60554e-11
4.27386e-05
1.42982e-06
7.53418e-05
1.19326e-06
8.30686e-10
7.08926e-10
5.25872e-05
5.57581e-05
2.70613e-08
5.16066e-06
2.04889e-08
3.08534e-07
2.34824e-07
1.76928e-05
4.51317e-06
1.53879e-06
1.49594e-06
1.97206e-06
3.07789e-06
3.0952e-06
6.36457e-07
7.40909e-10
9.87141e-10
9.04357e-10
5.67586e-33
2.81417e-14
0.000561658
4.8397e-13
7.63746e-12
4.47434e-11
1.24404e-05
1.22183e-05
2.12284e-05
2.77894e-07
3.21626e-10
4.81569e-09
5.57634e-05
1.0416e-06
7.78907e-06
3.81493e-06
2.17043e-08
3.04697e-06
3.79216e-07
2.54185e-06
4.22738e-06
1.6638e-06
1.89813e-06
7.09899e-07
1.3535e-07
1.32466e-09
8.78336e-10
6.13984e-10
4.34206e-10
4.18973e-10
1.01818e-36
9.39981e-08
6.26298e-05
3.98274e-12
9.41802e-13
3.26316e-11
4.50323e-10
7.21372e-06
1.76118e-05
1.00043e-10
1.48471e-10
3.6974e-09
5.45437e-05
7.88812e-07
7.69534e-06
1.07025e-07
2.93201e-06
2.53994e-06
5.08469e-07
2.20561e-07
1.5353e-07
1.30124e-07
1.42066e-07
7.38086e-08
3.26092e-08
9.24942e-08
1.39428e-07
8.38909e-10
9.15502e-08
3.42088e-10
1.35449e-40
8.3849e-13
0.000752129
3.44071e-09
5.98883e-14
3.9878e-12
9.30972e-11
2.22945e-10
9.77684e-11
7.75823e-11
6.82116e-11
5.58835e-08
7.48423e-06
5.39815e-07
4.91401e-06
8.94954e-08
1.12126e-07
3.11145e-05
7.19108e-05
7.57593e-05
7.83872e-05
7.84472e-05
7.82741e-05
2.47901e-05
5.4381e-06
2.13486e-05
2.37487e-07
4.7056e-06
5.15291e-06
1.2143e-08
1.93278e-44
2.29569e-16
0.000595721
1.92962e-11
1.25957e-15
2.28075e-13
1.04836e-11
9.95591e-11
7.51995e-11
4.37337e-12
1.53265e-11
1.65912e-09
9.68903e-08
5.03571e-07
5.15202e-07
1.80031e-06
9.18836e-08
9.31715e-08
1.67578e-06
4.51792e-06
2.94956e-05
3.92208e-05
7.48544e-06
2.14747e-07
1.38508e-09
1.39146e-09
1.41551e-09
1.58664e-09
1.18501e-08
1.10247e-06
4.46963e-48
1.42057e-15
0.000588631
3.3972e-20
4.22141e-18
5.11134e-15
4.99335e-13
1.0661e-11
6.37935e-12
3.06344e-13
1.44465e-12
6.91692e-11
1.69073e-10
0.000147007
0.000454583
3.62338e-10
4.54094e-07
8.13858e-07
3.38331e-05
3.39975e-05
1.12332e-05
6.36782e-06
1.90438e-11
7.29053e-11
3.61299e-09
2.44025e-09
1.61171e-09
4.45012e-09
1.46764e-09
8.82337e-10
2.43858e-05
2.53556e-05
2.53546e-05
2.30928e-05
1.96366e-05
9.74556e-06
3.99391e-06
2.36197e-06
2.0462e-06
2.56917e-06
6.66698e-07
7.71478e-07
5.69907e-07
5.29157e-07
5.26879e-07
3.16406e-06
0.0248164
0.999842
0.999994
0.999994
0.999737
0.999977
1
0.0459292
0.00171068
2.8546e-08
1.83684e-09
9.11553e-11
-1.19099e-08
0.00374578
3.5009e-08
4.27556e-08
1.06062e-07
3.48116e-07
2.85818e-06
1.4664e-06
9.07424e-07
1.37524e-06
3.85743e-07
2.10746e-07
2.43498e-07
3.7357e-07
5.74327e-07
5.29373e-07
1.90131e-06
1.33542e-05
4.14467e-05
0.163802
0.99998
0.999763
1
1
1
0.00185449
0.000132804
2.92219e-11
2.55142e-09
1.26043e-10
1.1201e-10
5.85753e-15
9.71011e-09
1.75365e-08
4.42945e-08
6.01951e-06
6.95075e-06
6.76348e-06
1.89899e-07
1.9027e-07
1.98688e-07
2.05685e-07
9.29226e-07
1.04106e-05
1.61019e-05
5.8647e-07
4.65814e-05
0.000231259
0.000239995
0.000159562
0.759739
0.99967
0.999881
1
0.472391
9.81882e-05
-8.86864e-08
-7.99332e-09
9.40242e-09
1.05492e-10
8.1992e-11
1.488e-12
8.98754e-09
1.40435e-07
6.85767e-06
6.91885e-06
3.74043e-06
6.47408e-07
1.89691e-06
2.81511e-07
2.63367e-07
1.54691e-05
1.55168e-05
1.56766e-05
9.53616e-07
3.00122e-06
8.63409e-07
8.81125e-07
0.00037578
4.99401e-06
0.000379003
0.999281
0.99981
0.935087
0.0204105
6.45197e-06
3.40797e-11
-1.42797e-08
9.43083e-09
6.60619e-11
3.84883e-11
1.18345e-12
1.11829e-08
6.4828e-06
4.86062e-06
1.72995e-08
9.04298e-09
9.6039e-09
2.20121e-08
2.98773e-05
6.78176e-06
8.77404e-06
1.55437e-05
1.17148e-05
9.98297e-07
8.44699e-07
1.66224e-06
1.14671e-06
0.00037578
1.41019e-06
-3.29254e-07
0.0268312
0.881329
0.644509
2.48683e-05
3.12213e-06
4.41283e-09
-1.57719e-08
3.57991e-09
4.77974e-11
2.35779e-11
9.73261e-13
1.40722e-07
5.29978e-07
1.30444e-08
7.74508e-09
8.14895e-09
8.37572e-09
8.78873e-09
6.81619e-07
3.3696e-05
1.8408e-07
1.55253e-05
2.0744e-06
1.59978e-06
2.67291e-07
2.38433e-05
8.73266e-07
0.000124566
3.20547e-05
1.16943e-07
1.16933e-07
1.33665e-07
6.6311e-07
6.02e-05
2.34097e-05
2.19805e-09
-1.35709e-08
2.02044e-08
3.74247e-11
1.72069e-11
8.26145e-13
2.61687e-08
1.0423e-08
7.78677e-09
7.42894e-09
6.94172e-09
7.29858e-09
8.37031e-09
1.63001e-08
4.41151e-05
1.70881e-07
1.86113e-07
3.52245e-07
6.45356e-07
2.87711e-07
2.54367e-07
2.544e-07
2.55307e-07
0.000131903
1.15021e-06
1.11408e-07
0.000174804
0.000298533
1.68348e-05
5.53971e-08
-3.1072e-09
-9.6227e-09
4.20691e-10
3.65353e-11
1.32813e-11
7.07627e-13
7.73497e-09
7.79119e-09
7.5803e-09
7.13416e-09
5.87877e-09
5.69403e-09
9.48762e-09
2.63721e-08
1.65387e-05
1.7093e-07
1.74617e-07
6.10598e-07
1.42298e-06
2.54624e-07
2.54596e-07
2.67884e-07
2.55734e-07
0.000266101
3.93061e-06
1.10787e-07
0.00044019
8.75517e-05
4.3974e-05
6.46668e-14
-1.21546e-08
-2.87793e-09
6.70355e-08
3.53582e-11
1.01756e-11
6.00563e-13
7.33528e-09
7.503e-09
7.33956e-09
6.73878e-09
5.23335e-09
2.95009e-07
1.28328e-08
1.31902e-08
2.90147e-06
0.000342672
2.48734e-05
1.22433e-06
3.7995e-07
2.55234e-07
2.52043e-07
2.52331e-07
2.55705e-07
0.000246947
4.91778e-07
1.1374e-07
0.000434883
3.99545e-05
8.14913e-07
-7.17049e-09
-2.3703e-08
-2.99842e-09
3.0625e-08
8.67717e-12
7.71705e-12
4.96934e-13
6.50166e-09
6.79561e-09
6.74189e-09
5.72472e-09
5.08006e-09
1.04697e-06
7.22947e-08
7.87059e-09
7.78352e-07
6.47576e-05
0.000328158
6.18664e-07
4.28211e-07
8.72331e-07
2.87185e-06
3.91209e-07
4.75558e-07
4.95785e-07
1.02112e-06
1.16587e-07
9.29251e-05
6.1907e-05
1.34573e-05
-1.00678e-08
-4.09396e-08
-4.97784e-09
1.1916e-11
2.21827e-12
5.74098e-12
3.94719e-13
5.88254e-09
5.948e-09
5.94637e-09
5.2997e-09
4.94587e-09
1.04966e-06
2.10898e-07
8.16054e-09
3.17179e-07
1.51693e-08
0.000231403
0.000115022
0.000137334
0.000226079
3.94437e-07
3.08169e-07
1.14539e-06
1.14933e-05
1.31726e-05
2.82041e-07
7.41143e-05
6.26825e-05
7.22239e-06
1.96561e-11
-6.4996e-08
-2.76427e-09
-9.15603e-10
3.27321e-12
4.12919e-12
2.96093e-13
5.02386e-09
5.01348e-09
4.97438e-09
4.92316e-09
4.91803e-09
6.40697e-09
1.32191e-08
8.46845e-09
7.81991e-06
1.21863e-06
1.50659e-05
6.06523e-05
0.000225803
0.000226608
1.65767e-05
4.52239e-06
6.29446e-06
1.32836e-05
1.07148e-06
0.000363603
5.12313e-05
4.32037e-05
2.77755e-06
3.75309e-05
-9.28686e-08
-9.53785e-10
-6.42358e-10
5.08575e-12
2.82087e-12
2.05565e-13
1.58606e-05
1.73237e-05
2.1316e-06
1.73073e-05
3.39584e-06
6.86572e-09
9.13724e-09
1.99093e-06
4.68214e-06
9.53611e-07
3.06129e-07
5.50334e-05
0.000210502
0.000227709
2.00989e-06
3.53235e-09
5.37328e-06
3.40409e-06
1.68915e-09
0.000520623
5.73695e-05
7.34758e-06
3.80735e-06
2.91116e-05
-1.13697e-07
-1.90854e-12
-1.98673e-10
4.83094e-12
1.79092e-12
1.28736e-13
1.04086e-06
6.71281e-06
7.9928e-06
1.87107e-05
1.86813e-05
3.0615e-07
6.18702e-09
3.56462e-06
2.83211e-06
1.43309e-07
1.16583e-05
7.45857e-07
1.57001e-07
2.73924e-05
1.76252e-09
1.47631e-09
1.46359e-09
1.68617e-09
1.56615e-09
0.000478694
8.18932e-05
1.7219e-05
3.17417e-06
-3.28771e-09
-1.13983e-07
4.40299e-10
-1.84802e-12
3.65805e-12
1.02837e-12
7.04421e-14
2.82191e-09
2.28836e-09
2.75363e-09
1.00477e-08
5.12103e-07
5.45365e-08
2.49664e-09
6.06616e-09
1.27261e-08
1.57786e-09
1.16762e-05
6.67206e-06
5.12771e-09
4.05808e-09
2.59338e-09
1.78761e-09
1.60733e-09
3.64494e-09
1.55512e-09
0.000479915
8.55628e-05
0.000101373
2.9579e-05
-2.55272e-09
-8.59314e-08
3.10776e-10
3.88182e-11
2.55701e-12
5.16599e-13
3.24202e-14
1.71652e-09
1.76259e-09
1.8834e-09
1.65382e-09
1.70034e-09
1.65898e-09
1.88776e-09
2.0871e-09
2.05157e-09
1.23694e-09
1.09248e-05
1.87267e-07
1.31558e-08
1.77898e-08
1.59281e-08
1.90282e-08
1.55382e-09
3.81679e-07
1.55636e-09
0.000483417
6.77966e-05
0.000172142
2.26689e-05
1.07304e-13
-4.32599e-08
2.0569e-10
3.55834e-11
1.70972e-12
2.18105e-13
1.20162e-14
1.46855e-09
1.39149e-09
1.32644e-09
1.28359e-09
1.25411e-09
1.23891e-09
1.26936e-09
1.34991e-09
1.38851e-09
1.21987e-09
1.00838e-05
2.95858e-07
2.99481e-07
5.61152e-08
9.63148e-05
0.000108961
6.41089e-05
0.000110314
3.78186e-05
9.48135e-05
3.99407e-05
9.39292e-05
6.44567e-07
4.15538e-13
-1.22481e-08
2.22354e-10
2.85903e-11
1.08054e-12
7.35662e-14
3.4019e-15
1.90382e-09
1.52232e-09
1.32429e-09
1.19381e-09
1.11318e-09
1.0726e-09
1.07057e-09
1.09131e-09
1.09383e-09
1.21229e-05
2.44667e-06
3.33041e-07
2.32876e-08
9.22502e-06
0.000155369
5.00023e-07
5.00751e-07
0.000110313
0.000485223
9.90077e-06
6.14643e-06
2.81893e-05
0.000103553
7.4042e-06
-2.28592e-10
2.2788e-10
2.12693e-11
5.84553e-13
1.85894e-14
6.92648e-16
1.15712e-08
1.15172e-09
1.08371e-09
1.07619e-09
1.06903e-09
1.06777e-09
1.16958e-09
1.09516e-09
1.21235e-05
1.21276e-05
3.30588e-07
1.04195e-07
5.83054e-09
0.000191014
8.00933e-07
4.96083e-07
4.9636e-07
5.09256e-05
0.000481777
1.15402e-05
8.94147e-07
6.00427e-06
9.97517e-06
2.4228e-05
1.77172e-08
2.97565e-10
1.42257e-11
2.48025e-13
3.26988e-15
9.59061e-17
0.00128486
0.00128473
0.00127842
0.000160759
3.86135e-06
9.50593e-07
2.27509e-06
2.46216e-07
2.4302e-06
1.39737e-07
4.10809e-08
1.24634e-09
4.53836e-05
0.000162798
5.01759e-07
4.96093e-07
8.59565e-07
0.000259726
1.12383e-06
4.09299e-06
0.000106035
3.71268e-05
2.88552e-05
2.27726e-05
3.57922e-08
1.30985e-10
5.36729e-12
7.27312e-14
3.97138e-16
8.5453e-18
0.000320878
0.0007252
0.000181083
1.43034e-09
9.39753e-06
2.86997e-07
1.07701e-06
6.89977e-10
1.1618e-09
4.85227e-10
6.70569e-10
3.15213e-09
0.000221265
1.21924e-06
2.00474e-05
5.77655e-07
0.000104723
2.73866e-05
1.97556e-06
5.16176e-06
0.000103951
1.93677e-05
0.000679567
5.32671e-05
1.00775e-10
3.65999e-11
1.6345e-12
2.02907e-14
4.30563e-17
4.50064e-19
1.18289e-09
1.20259e-09
1.1709e-09
1.28868e-09
1.0523e-09
9.3335e-08
5.29128e-10
4.80967e-10
6.241e-10
1.19905e-09
2.95234e-09
0.0002056
0.000121101
8.09953e-06
6.1595e-05
5.06476e-07
5.27615e-07
3.01635e-06
3.54973e-06
7.20067e-08
7.90058e-08
6.09277e-06
2.77277e-06
2.00161e-05
9.60813e-11
1.31929e-11
4.67069e-13
4.03793e-15
4.45202e-18
1.26864e-20
1.31079e-09
1.19172e-09
9.47754e-10
6.94634e-10
5.33138e-10
4.53268e-10
4.2436e-10
5.33344e-10
9.68725e-10
1.36288e-09
3.15727e-05
0.000230442
9.30377e-06
3.7514e-05
8.38574e-05
5.06465e-07
5.09314e-07
5.2125e-07
7.38071e-07
5.83631e-08
4.38255e-07
1.4427e-05
1.46248e-05
5.75363e-09
5.94695e-11
3.74314e-12
7.93069e-14
4.61336e-16
3.62926e-19
2.00624e-22
1.24599e-09
9.46701e-10
6.46542e-10
4.60028e-10
3.64477e-10
3.47162e-10
4.37522e-10
6.63434e-10
8.57596e-10
5.03585e-09
0.000153642
0.000231223
1.55576e-05
7.78172e-06
8.43531e-05
5.99205e-05
1.84653e-05
0.000352406
0.000148058
1.77802e-06
3.30545e-06
3.20846e-05
3.45731e-05
9.64716e-11
1.9373e-11
6.73855e-13
8.52402e-15
3.35339e-17
1.92159e-20
2.03858e-24
6.77815e-10
5.13306e-10
3.82991e-10
2.94778e-10
2.51075e-10
2.65296e-10
3.60913e-10
5.59104e-10
7.27995e-10
3.86905e-09
0.000106986
0.000231839
0.000202974
7.75071e-07
1.67371e-05
6.74891e-06
0.000188229
0.000352462
4.30109e-05
7.12009e-06
2.8441e-06
2.81492e-10
1.68066e-10
6.35165e-11
3.57296e-12
7.4226e-14
5.64181e-16
1.42143e-18
5.55483e-22
9.50398e-27
3.87238e-10
3.34847e-10
2.72724e-10
2.10665e-10
1.61286e-10
1.3842e-10
1.58099e-10
2.44686e-10
4.41005e-10
5.71348e-10
1.19553e-08
0.00019872
0.000232874
0.000170974
7.60779e-07
7.16528e-07
1.67921e-05
0.000340634
2.81365e-05
4.71195e-07
7.44148e-11
1.91164e-10
1.60597e-10
1.12049e-11
3.65808e-13
4.71009e-15
2.0252e-17
2.87472e-20
6.76212e-24
1.98686e-29
3.95678e-10
3.98655e-10
4.2437e-10
4.19621e-10
3.46472e-10
2.14204e-10
9.59527e-11
5.14831e-11
7.31865e-11
1.82041e-10
1.83249e-10
1.07599e-09
2.37439e-05
6.88499e-05
0.000102871
8.18033e-05
8.36756e-05
2.44296e-06
3.4493e-05
7.33394e-11
6.6774e-11
3.83168e-11
1.83998e-11
1.00689e-12
2.02279e-14
1.55783e-16
3.40423e-19
2.28979e-22
2.59927e-26
1.90571e-32
5.45643e-08
3.18501e-09
1.54076e-09
1.6196e-09
1.65397e-09
9.11906e-10
2.92686e-10
6.76196e-11
1.71874e-11
9.7525e-12
2.80114e-11
1.48827e-10
1.83994e-10
4.45092e-10
1.2316e-09
3.70878e-09
3.67709e-07
5.24572e-07
8.90138e-07
2.56055e-10
2.66371e-11
3.74364e-12
1.07489e-12
4.71493e-14
5.62326e-16
2.37823e-18
2.28615e-21
6.12724e-25
2.75507e-29
8.9875e-36
6.08346e-10
8.58768e-07
4.60858e-07
6.82851e-10
9.22351e-10
5.32533e-10
4.35342e-10
1.37186e-10
1.76814e-11
3.75961e-12
6.96349e-13
2.10083e-12
1.66814e-11
6.5377e-11
2.1048e-10
1.05308e-10
4.47125e-08
4.96635e-08
2.35361e-10
1.61147e-10
3.72098e-12
2.03602e-13
3.17418e-14
1.05752e-15
7.39165e-18
1.54615e-20
5.40022e-24
4.45694e-28
5.79289e-33
2.3409e-39
5.46318e-10
2.09554e-10
2.84356e-10
3.22731e-10
1.97615e-10
1.30859e-10
7.30232e-11
2.99437e-11
6.74444e-12
8.30704e-13
6.99866e-14
1.29841e-14
1.23723e-13
9.72792e-13
6.19361e-12
2.71903e-11
1.07695e-10
1.85193e-10
8.40681e-11
1.67832e-11
1.83488e-13
6.23082e-15
5.01261e-16
1.14703e-17
4.73781e-20
4.20773e-23
3.60248e-27
4.61528e-32
7.70443e-38
4.11491e-43
1
1
1
1
1
1
1
1
1
1
1
1
1
1
1
1
1
1
1
1
1
1
1
1
1
1
1
1
1
1
1
1
1
1
1
1
1
1
1
1
1
1
1
1
1
1
1
1
1
1
1
1
1
1
1
1
1
1
1
1
1
1
1
1
1
1
1
1
1
1
1
1
1
1
1
1
1
1
1
1
1
1
1
1
1
1
1
1
1
1
1
1
1
1
1
1
1
1
1
1
1
1
1
1
1
1
1
1
1
1
1
1
1
1
1
1
1
1
1
1
1
1
1
1
1
1
1
1
1
1
1
1
1
1
1
1
1
1
1
1
1
1
1
1
1
1
1
1
1
1
1
1
1
1
1
1
1
1
1
1
1
1
1
1
1
1
1
1
1
1
1
1
1
1
1
1
1
1
1
1
1
1
1
1
1
1
1
1
1
1
1
1
1
1
1
1
1
1
1
1
1
1
1
1
1
1
1
1
1
1
1
1
1
1
1
1
1
1
1
1
1
1
1
1
1
1
1
1
1
1
1
1
1
1
1
1
1
1
1
1
1
1
1
1
1
1
1
1
1
1
1
1
1
1
1
1
1
1
1
1
1
1
1
1
1
1
1
1
1
1
1
1
1
1
1
1
1
1
1
1
1
1
1
1
1
1
1
1
1
1
1
1
1
1
1
1
1
1
1
1
1
1
1
1
1
1
1
1
1
1
1
1
1
1
1
1
1
1
1
1
1
1
1
1
1
1
1
1
1
1
1
1
1
1
1
1
1
1
1
1
1
1
1
1
1
1
1
1
1
1
1
1
1
1
1
1
1
1
1
1
1
1
1
1
1
1
1
1
1
1
1
1
1
1
1
1
1
1
1
1
1
1
1
1
1
1
1
1
1
1
1
1
1
1
1
1
1
1
1
1
1
1
1
1
1
1
1
1
1
1
1
1
1
1
1
1
1
1
1
1
1
1
1
1
1
1
1
1
1
1
1
1
1
1
1
1
1
1
1
1
1
1
1
1
1
1
1
1
1
1
1
1
1
1
1
1
1
1
1
1
1
1
1
1
1
1
1
1
1
1
1
1
1
1
1
1
1
1
1
1
1
1
1
1
1
1
1
1
1
1
1
1
1
1
1
1
1
1
1
1
1
1
1
1
1
1
1
1
1
1
1
1
1
1
1
1
1
1
1
1
1
1
1
1
1
1
1
1
1
1
1
1
1
1
1
1
1
1
1
1
1
1
1
1
1
1
1
1
1
1
1
1
1
1
1
1
1
1
1
1
1
1
1
1
1
1
1
1
1
1
1
1
0.970891
1
1
1
1
1
0.999999
1
1
1
1
1
1
1
1
1
1
1
1
1
1
1
1
1
1
1
1
1
1
1
0.968382
1
1
1
1
1
0.999999
1
1
1
1
1
1
1
1
0.999977
0.999972
1
1
1
1
1
1
1
1
1
1
1
0.999999
0.999979
0.968419
1
1
1
1
1
0.999999
1
1
1
1
1
1
1
1
0.999958
0.999996
1
1
1
1
1
1
1
1
1
1
1
0.999826
0.999956
0.96887
0.999942
1
1
1
1
1
0.999999
1
1
1
1
1
1
0.99998
0.999967
0.999999
1
0.999988
1
1
1
1
1
1
1
1
1
0.999276
0.996586
0.972185
0.998226
1
0.999999
0.999283
1
0.999999
1
1
1
1
1
1
1
0.999999
0.999999
0.999999
0.999412
0.999171
1
1
1
1
1
1
1
1
1
0.998431
0.983479
0.997814
0.999553
0.999989
0.994536
0.999908
1
1
1
1
1
0.99998
0.999643
1
1
0.999934
0.999376
0.999276
0.999987
0.999474
0.999989
1
1
1
1
1
1
1
1
0.99761
0.992916
0.999412
0.668014
0.226693
0.967026
0.969652
0.999975
1
1
1
0.999997
0.999331
0.999331
0.999946
0.999998
0.999872
0.999334
0.998954
0.999985
0.999935
0.999832
1
1
1
1
1
1
1
1
0.99761
0.999352
0.952853
0.00533127
0.326618
0.963574
0.996183
0.999999
0.999969
1
1
0.999715
0.999954
0.999994
0.999911
0.999998
0.999158
0.999596
0.999617
0.999323
0.999837
1
0.999996
1
1
1
1
1
1
1
0.999009
0.214262
0.00328986
0.00528013
0.00838237
0.924641
0.9682
1
0.999977
1