/*--------------------------------*- C++ -*----------------------------------*\
| =========                 |                                                 |
| \\      /  F ield         | OpenFOAM: The Open Source CFD Toolbox           |
|  \\    /   O peration     | Version:  2.4.0                                 |
|   \\  /    A nd           | Web:      www.OpenFOAM.org                      |
|    \\/     M anipulation  |                                                 |
\*---------------------------------------------------------------------------*/
FoamFile
{
    version     2.0;
    format      ascii;
    class       volScalarField;
    location    "0.099";
    object      p_rgh;
}
// * * * * * * * * * * * * * * * * * * * * * * * * * * * * * * * * * * * * * //

dimensions      [1 -1 -2 0 0 0 0];

internalField   nonuniform List<scalar> 
3600
(
97.6061
97.6029
97.5962
97.6063
97.5899
97.6162
97.5821
97.6347
97.5747
97.6634
97.5689
97.6988
97.5638
97.7304
97.5599
97.743
97.5643
97.7096
97.5453
97.6172
97.4421
97.4362
97.4937
97.5948
97.7178
97.7374
97.765
97.743
97.74
97.7221
97.6013
97.6016
97.5949
97.6033
97.5879
97.6122
97.5804
97.6304
97.5738
97.6602
97.5685
97.6973
97.5636
97.7308
97.5597
97.7437
97.565
97.7102
97.5464
97.6182
97.4413
97.4346
97.4925
97.5947
97.7181
97.7377
97.7651
97.7431
97.74
97.7221
97.5941
97.5969
97.5902
97.6015
97.5836
97.6134
97.5766
97.6344
97.5705
97.665
97.5666
97.7012
97.5626
97.7325
97.559
97.7449
97.566
97.7113
97.5483
97.6201
97.4393
97.4314
97.4902
97.5946
97.719
97.7383
97.7654
97.7432
97.74
97.7221
97.5809
97.5819
97.5765
97.5873
97.5722
97.5991
97.5681
97.6213
97.5659
97.6555
97.5642
97.6962
97.5613
97.7329
97.5581
97.7466
97.5676
97.7128
97.5511
97.6229
97.436
97.4265
97.4869
97.5946
97.7204
97.7393
97.7658
97.7434
97.74
97.7221
97.5776
97.58
97.5717
97.5873
97.567
97.6035
97.5633
97.6303
97.561
97.6653
97.5612
97.7047
97.5597
97.7361
97.5569
97.7489
97.5698
97.7147
97.5549
97.6266
97.4315
97.4199
97.4824
97.5947
97.7223
97.7406
97.7663
97.7436
97.74
97.7221
97.5535
97.5561
97.5498
97.5645
97.5484
97.582
97.549
97.6105
97.5534
97.6514
97.5577
97.6968
97.5579
97.7371
97.5553
97.7517
97.5725
97.717
97.5597
97.6315
97.4258
97.4113
97.4768
97.595
97.7249
97.7424
97.767
97.7438
97.74
97.7221
97.5536
97.5578
97.5472
97.5698
97.5443
97.5928
97.5448
97.6262
97.5479
97.6665
97.5539
97.7102
97.5558
97.7421
97.5531
97.7551
97.5759
97.7197
97.5658
97.6375
97.4187
97.4007
97.47
97.5954
97.728
97.7444
97.7678
97.7442
97.74
97.722
97.5201
97.5239
97.5157
97.5372
97.5182
97.5631
97.5245
97.6001
97.5371
97.6489
97.55
97.7002
97.5537
97.7437
97.5504
97.7591
97.5801
97.7226
97.5732
97.6449
97.4103
97.3879
97.4619
97.5961
97.7318
97.7469
97.7687
97.7445
97.74
97.722
97.5257
97.5359
97.5218
97.5548
97.5198
97.5855
97.5241
97.6244
97.5336
97.6707
97.5462
97.7191
97.5516
97.7512
97.5469
97.7636
97.5848
97.7258
97.5821
97.654
97.4004
97.3726
97.4524
97.5971
97.7362
97.7497
97.7698
97.7449
97.7399
97.722
97.4822
97.4916
97.4769
97.513
97.482
97.5418
97.4953
97.5921
97.5178
97.6492
97.5425
97.7074
97.5497
97.7538
97.5428
97.7703
97.5914
97.7292
97.5927
97.6649
97.3891
97.3546
97.4414
97.5984
97.7414
97.753
97.7709
97.7454
97.7399
97.7219
97.5096
97.5224
97.5008
97.5455
97.4968
97.5832
97.5044
97.6284
97.5205
97.68
97.5402
97.7333
97.5478
97.7639
97.536
97.773
97.5967
97.7316
97.6038
97.678
97.3761
97.3337
97.4289
97.6001
97.7474
97.7567
97.7722
97.7459
97.7398
97.7219
97.4425
97.4589
97.437
97.4882
97.4401
97.533
97.4605
97.5875
97.4953
97.6525
97.5367
97.7197
97.547
97.7684
97.5308
97.7856
97.6075
97.737
97.6229
97.6937
97.3615
97.3094
97.4147
97.6022
97.7544
97.7608
97.7736
97.7464
97.7397
97.7218
97.5067
97.5246
97.4896
97.5509
97.4792
97.5925
97.4884
97.6414
97.5113
97.6967
97.5384
97.7547
97.5455
97.7809
97.5178
97.7844
97.6128
97.7358
97.632
97.7125
97.345
97.2813
97.3989
97.6049
97.7622
97.7653
97.7751
97.7469
97.7396
97.7218
97.4108
97.4377
97.3926
97.4765
97.3899
97.5256
97.4158
97.5864
97.4664
97.6561
97.5339
97.7384
97.5478
97.789
97.5104
97.8042
97.6298
97.744
97.6641
97.7348
97.3265
97.2491
97.3812
97.6083
97.771
97.7703
97.7767
97.7475
97.7395
97.7217
97.5247
97.5448
97.4868
97.5682
97.4617
97.6126
97.4711
97.672
97.5071
97.7238
97.5453
97.7866
97.5469
97.8034
97.4881
97.799
97.6347
97.7371
97.6748
97.7612
97.3058
97.2121
97.3615
97.6125
97.7809
97.7758
97.7783
97.748
97.7394
97.7216
97.3825
97.4176
97.3151
97.4724
97.3146
97.5119
97.3518
97.575
97.4302
97.655
97.5336
97.7649
97.5542
97.8166
97.4751
97.8252
97.6603
97.7467
97.7098
97.7927
97.2827
97.1699
97.3398
97.6175
97.7921
97.7818
97.7801
97.7486
97.7393
97.7215
97.6108
97.6064
97.4732
97.5993
97.4236
97.6466
97.4449
97.7216
97.5063
97.7641
97.5657
97.8334
97.5566
97.8334
97.439
97.8179
97.6656
97.7327
97.7325
97.8297
97.2569
97.1215
97.3159
97.6236
97.8047
97.7883
97.7819
97.7492
97.7391
97.7214
97.1619
97.3011
97.1496
97.4878
97.1875
97.4686
97.2533
97.5465
97.3839
97.6408
97.54
97.8029
97.5706
97.8527
97.4147
97.8475
97.7025
97.7411
97.7779
97.8739
97.2284
97.0664
97.2895
97.6308
97.8187
97.7953
97.7837
97.7498
97.7389
97.7213
97.7406
98.2058
97.2198
97.6293
97.2829
97.6819
97.3731
97.7936
97.5011
97.8036
97.609
97.9026
97.5814
97.8734
97.3574
97.8416
97.7104
97.7187
97.8097
97.9256
97.1964
97.0032
97.2606
97.6395
97.8344
97.8028
97.7855
97.7503
97.7387
97.7212
96.7806
98.5798
96.9631
97.5155
96.9539
97.3789
97.0929
97.514
97.3239
97.5969
97.5647
97.8614
97.606
97.8995
97.312
97.8683
97.7625
97.7189
97.8693
97.9881
97.1613
96.9314
97.2287
97.6497
97.852
97.811
97.7874
97.7508
97.7384
97.721
97.2391
98.3214
97.4106
97.9163
96.8487
97.693
97.184
97.8991
97.4893
97.8113
97.6912
98.003
97.6335
97.9252
97.2222
97.8687
97.7782
97.6844
97.9102
98.0601
97.1216
96.849
97.1937
97.6619
97.8717
97.8197
97.7892
97.7513
97.7382
97.7208
96.6905
98.4922
96.5365
97.3459
96.2856
97.2323
96.8179
97.495
97.2765
97.4881
97.623
97.9594
97.676
97.9616
97.138
97.8929
97.8539
97.6668
97.9898
98.1483
97.0784
96.7551
97.1552
97.6764
97.8936
97.8289
97.7909
97.7517
97.7378
97.7207
97.3262
97.7199
96.8608
97.5506
95.5013
97.4836
96.8799
98.1283
97.4836
97.7529
97.8151
98.1571
97.7426
97.9867
96.9982
97.8949
97.8867
97.6176
98.0382
98.2485
97.0292
96.6475
97.1119
97.6932
97.9181
97.8389
97.7926
97.752
97.7375
97.7205
100.349
99.6312
97.1769
97.6957
94.6623
96.8427
96.6549
97.5704
97.2901
97.2143
97.7319
98.1367
97.7953
98.0471
96.8447
97.9161
97.9905
97.5758
98.1425
98.3723
96.9761
96.5241
97.0691
97.7154
97.9458
97.8493
97.794
97.7523
97.7371
97.7202
95.5884
97.66
95.6028
97.087
92.6963
96.9335
96.6442
98.6546
97.5042
97.5085
97.9886
98.4123
97.9525
98.052
96.6265
97.9191
98.05
97.5066
98.1983
98.5066
96.9194
96.3835
97.01
97.7328
97.9746
97.8605
97.7955
97.7525
97.7367
97.72
105.618
103.422
93.4431
97.0452
91.2401
95.8785
97.1496
98.1619
97.4966
96.3693
97.9178
98.4662
98.0401
98.157
96.3508
97.9306
98.204
97.4275
98.3311
98.6827
96.8535
96.2212
96.9649
97.7723
98.0123
97.8724
97.7962
97.7524
97.7361
97.7197
83.9417
100.926
91.1019
97.478
86.3034
95.3504
97.0585
100.353
97.6329
96.7899
98.2066
98.8734
98.3015
98.1379
96.0235
97.9358
98.2964
97.3284
98.3939
98.8621
96.7852
96.0372
96.8873
97.788
98.0441
97.8838
97.7976
97.7525
97.7358
97.7196
125
109.571
87.6642
101.44
78.947
93.4813
98.7563
101.072
97.7752
94.7125
98.1348
99.1334
98.5449
98.2607
95.5114
97.9283
98.5538
97.1957
98.5564
99.1452
96.6855
95.8181
96.8326
97.849
98.0966
97.9004
97.797
97.7519
97.7349
97.7191
-129.722
182.737
80.6119
71.9834
61.0072
89.7778
101.227
104.733
97.5459
93.7936
98.4138
99.7965
98.9372
98.2566
95.0382
97.95
98.6862
97.0528
98.6223
99.3523
96.6077
95.5942
96.7418
97.8652
98.1259
97.9079
97.798
97.7519
97.7347
97.719
22.0153
101.962
72.9241
37.4635
15.7249
69.9559
95.6815
107.139
84.8257
73.6231
86.3911
92.4832
87.8396
89.2371
68.6533
85.8457
85.8334
79.0919
87.654
91.641
70.7131
61.7154
76.6536
91.4271
97.9751
97.9311
97.796
97.7507
97.7335
97.7184
97.7177
97.7144
97.7123
97.71
97.7082
97.7066
97.7052
97.7041
97.703
97.7022
97.7014
97.7008
97.7003
97.6998
97.6994
97.6991
97.6988
97.6986
97.6982
97.6982
97.6976
97.6979
97.697
97.6976
97.6964
97.6973
97.6957
97.697
97.6957
97.6966
97.7177
97.7144
97.7123
97.71
97.7082
97.7066
97.7052
97.704
97.703
97.7022
97.7014
97.7008
97.7003
97.6998
97.6994
97.6991
97.6988
97.6986
97.6982
97.6982
97.6976
97.6979
97.697
97.6976
97.6963
97.6973
97.6957
97.697
97.6957
97.6966
97.7177
97.7144
97.7122
97.71
97.7082
97.7066
97.7052
97.704
97.703
97.7022
97.7014
97.7008
97.7003
97.6998
97.6994
97.6991
97.6988
97.6986
97.6982
97.6982
97.6976
97.6979
97.697
97.6976
97.6963
97.6973
97.6957
97.6971
97.6956
97.6966
97.7176
97.7144
97.7122
97.7099
97.7082
97.7066
97.7052
97.704
97.703
97.7022
97.7014
97.7008
97.7003
97.6998
97.6994
97.6991
97.6988
97.6986
97.6982
97.6982
97.6976
97.6979
97.697
97.6976
97.6963
97.6973
97.6957
97.6971
97.6956
97.6966
97.7176
97.7143
97.7122
97.7099
97.7081
97.7065
97.7052
97.704
97.703
97.7021
97.7014
97.7008
97.7002
97.6998
97.6994
97.6991
97.6988
97.6986
97.6982
97.6982
97.6976
97.6979
97.697
97.6976
97.6963
97.6973
97.6957
97.6971
97.6956
97.6966
97.7175
97.7143
97.7121
97.7099
97.7081
97.7065
97.7051
97.704
97.703
97.7021
97.7014
97.7008
97.7002
97.6998
97.6994
97.6991
97.6988
97.6985
97.6982
97.6982
97.6976
97.6979
97.697
97.6976
97.6963
97.6973
97.6956
97.6971
97.6955
97.6966
97.7175
97.7142
97.7121
97.7098
97.7081
97.7065
97.7051
97.7039
97.7029
97.7021
97.7014
97.7008
97.7002
97.6998
97.6994
97.6991
97.6988
97.6985
97.6982
97.6982
97.6976
97.6979
97.697
97.6976
97.6963
97.6973
97.6956
97.6971
97.6954
97.6967
97.7174
97.7142
97.712
97.7098
97.708
97.7064
97.7051
97.7039
97.7029
97.7021
97.7013
97.7007
97.7002
97.6998
97.6994
97.699
97.6987
97.6985
97.6982
97.6982
97.6976
97.6979
97.697
97.6976
97.6963
97.6973
97.6955
97.6972
97.6954
97.6967
97.7173
97.7141
97.7119
97.7097
97.7079
97.7064
97.705
97.7039
97.7029
97.702
97.7013
97.7007
97.7002
97.6997
97.6994
97.699
97.6987
97.6985
97.6982
97.6982
97.6976
97.6979
97.6971
97.6976
97.6963
97.6973
97.6955
97.6972
97.6953
97.6968
97.7172
97.714
97.7119
97.7097
97.7079
97.7063
97.705
97.7038
97.7028
97.702
97.7013
97.7007
97.7002
97.6997
97.6993
97.699
97.6987
97.6985
97.6982
97.6982
97.6977
97.6979
97.6971
97.6976
97.6963
97.6973
97.6954
97.6972
97.6951
97.6968
97.7171
97.7139
97.7118
97.7096
97.7078
97.7062
97.7049
97.7038
97.7028
97.702
97.7012
97.7006
97.7001
97.6997
97.6993
97.699
97.6987
97.6985
97.6982
97.6982
97.6977
97.6979
97.6971
97.6976
97.6963
97.6974
97.6954
97.6973
97.695
97.6969
97.717
97.7138
97.7117
97.7095
97.7077
97.7062
97.7048
97.7037
97.7027
97.7019
97.7012
97.7006
97.7001
97.6997
97.6993
97.699
97.6987
97.6985
97.6982
97.6982
97.6977
97.6979
97.6971
97.6976
97.6963
97.6974
97.6953
97.6973
97.6948
97.697
97.7169
97.7137
97.7115
97.7094
97.7076
97.7061
97.7048
97.7036
97.7027
97.7019
97.7012
97.7006
97.7001
97.6996
97.6993
97.699
97.6987
97.6985
97.6982
97.6982
97.6977
97.6979
97.6971
97.6976
97.6963
97.6974
97.6952
97.6974
97.6946
97.6971
97.7168
97.7136
97.7114
97.7093
97.7075
97.706
97.7047
97.7036
97.7026
97.7018
97.7011
97.7005
97.7
97.6996
97.6993
97.699
97.6987
97.6985
97.6982
97.6981
97.6977
97.6979
97.6971
97.6976
97.6963
97.6974
97.6951
97.6975
97.6943
97.6972
97.7166
97.7135
97.7113
97.7092
97.7074
97.7059
97.7046
97.7035
97.7025
97.7017
97.7011
97.7005
97.7
97.6996
97.6992
97.6989
97.6987
97.6985
97.6982
97.6981
97.6977
97.6979
97.6972
97.6976
97.6963
97.6974
97.695
97.6975
97.6941
97.6974
97.7165
97.7133
97.7111
97.709
97.7073
97.7058
97.7045
97.7034
97.7025
97.7017
97.701
97.7004
97.7
97.6996
97.6992
97.6989
97.6987
97.6985
97.6982
97.6981
97.6977
97.6979
97.6972
97.6976
97.6963
97.6974
97.6948
97.6976
97.6937
97.6976
97.7163
97.7132
97.711
97.7089
97.7072
97.7057
97.7044
97.7033
97.7024
97.7016
97.701
97.7004
97.6999
97.6995
97.6992
97.6989
97.6986
97.6984
97.6982
97.6981
97.6977
97.6979
97.6972
97.6976
97.6963
97.6974
97.6947
97.6977
97.6933
97.6979
97.7161
97.713
97.7108
97.7088
97.707
97.7056
97.7043
97.7032
97.7023
97.7015
97.7009
97.7003
97.6999
97.6995
97.6992
97.6989
97.6986
97.6984
97.6982
97.6981
97.6978
97.6979
97.6972
97.6976
97.6964
97.6974
97.6946
97.6978
97.6929
97.6982
97.7159
97.7129
97.7107
97.7086
97.7069
97.7054
97.7042
97.7031
97.7022
97.7015
97.7008
97.7003
97.6998
97.6995
97.6991
97.6988
97.6986
97.6984
97.6982
97.6981
97.6978
97.6979
97.6973
97.6976
97.6964
97.6974
97.6944
97.6979
97.6923
97.6984
97.7157
97.7127
97.7105
97.7084
97.7067
97.7053
97.7041
97.703
97.7021
97.7014
97.7008
97.7002
97.6998
97.6994
97.6991
97.6988
97.6986
97.6984
97.6982
97.6981
97.6978
97.6979
97.6973
97.6976
97.6964
97.6975
97.6943
97.698
97.6917
97.6992
97.7154
97.7125
97.7103
97.7083
97.7066
97.7052
97.7039
97.7029
97.702
97.7013
97.7007
97.7002
97.6997
97.6994
97.6991
97.6988
97.6986
97.6984
97.6982
97.6981
97.6978
97.6978
97.6974
97.6976
97.6964
97.6975
97.6941
97.6981
97.6909
97.6991
97.7152
97.7123
97.7101
97.7081
97.7064
97.705
97.7038
97.7028
97.7019
97.7012
97.7006
97.7001
97.6997
97.6993
97.699
97.6988
97.6985
97.6984
97.6982
97.6981
97.6979
97.6978
97.6974
97.6976
97.6965
97.6975
97.694
97.6983
97.6901
97.7007
97.7149
97.7121
97.7099
97.7079
97.7062
97.7048
97.7037
97.7027
97.7018
97.7011
97.7005
97.7
97.6996
97.6993
97.699
97.6987
97.6985
97.6983
97.6982
97.6981
97.6979
97.6978
97.6975
97.6976
97.6965
97.6975
97.6938
97.6983
97.6889
97.7002
97.7146
97.7118
97.7096
97.7077
97.7061
97.7047
97.7035
97.7025
97.7017
97.701
97.7005
97.7
97.6996
97.6992
97.6989
97.6987
97.6985
97.6983
97.6982
97.6981
97.6979
97.6978
97.6975
97.6976
97.6966
97.6975
97.6938
97.6986
97.6881
97.7027
97.7144
97.7116
97.7094
97.7075
97.7059
97.7045
97.7034
97.7024
97.7016
97.7009
97.7004
97.6999
97.6995
97.6992
97.6989
97.6987
97.6985
97.6983
97.6982
97.698
97.6979
97.6978
97.6976
97.6976
97.6967
97.6975
97.6935
97.6985
97.686
97.7017
97.714
97.7113
97.7091
97.7072
97.7056
97.7043
97.7032
97.7023
97.7015
97.7008
97.7003
97.6998
97.6994
97.6991
97.6989
97.6986
97.6984
97.6983
97.6982
97.698
97.698
97.6978
97.6977
97.6976
97.6969
97.6975
97.6937
97.6988
97.6852
97.7057
97.7138
97.7111
97.7089
97.7071
97.7055
97.7042
97.7031
97.7022
97.7014
97.7007
97.7002
97.6998
97.6994
97.6991
97.6988
97.6986
97.6984
97.6983
97.6982
97.698
97.698
97.6978
97.6978
97.6976
97.6969
97.6975
97.6934
97.6985
97.6821
97.7039
97.7133
97.7107
97.7085
97.7067
97.7052
97.7039
97.7028
97.702
97.7012
97.7006
97.7001
97.6997
97.6993
97.699
97.6988
97.6986
97.6984
97.6982
97.6981
97.698
97.698
97.6978
97.6979
97.6976
97.6972
97.6975
97.6937
97.6988
97.6814
97.7102
97.7132
97.7106
97.7084
97.7066
97.7051
97.7038
97.7028
97.7019
97.7011
97.7005
97.7
97.6996
97.6993
97.699
97.6987
97.6985
97.6984
97.6982
97.6981
97.698
97.6981
97.6978
97.6979
97.6976
97.6972
97.6974
97.6935
97.6985
97.6764
97.7063
97.7125
97.7101
97.7079
97.7062
97.7047
97.7035
97.7024
97.7016
97.7009
97.7003
97.6999
97.6995
97.6991
97.6989
97.6986
97.6985
97.6983
97.6982
97.6981
97.698
97.6973
97.6978
97.6856
97.6976
97.6552
97.6974
97.5908
97.6984
97.507
97.7188
10.0889
37.4208
20.4302
23.0952
0.812801
8.9126
19.8449
29.8119
11.7309
8.41847
13.458
16.4029
9.46511
9.78674
3.521
12.4167
12.8994
9.98749
13.5703
14.9006
3.63473
0.0686028
1.11407
2.65103
3.63533
2.33092
1.60326
0.88567
0.601085
0.337505
-2.0913
2.79759
-0.788317
0.48305
-0.201479
0.120912
-0.063424
0.0295989
-0.00768895
0.0148238
0.00300538
-0.00367408
-0.000195626
-0.00138392
0.00514535
0.00069015
-0.00213873
0.00266263
-0.00404504
-4.64311e-05
-0.000581845
0.00422083
0.000569187
0.000406374
-0.00127173
0.000421073
-0.000512818
0.000399664
-0.000259149
0.00019929
12.5331
12.4266
-0.484574
0.437128
-0.146294
0.138165
-0.0913225
0.0270927
-0.00420036
0.00227446
0.00591999
-0.00668068
0.000930766
0.00116659
0.0050993
0.00061745
-0.00205488
0.00247547
-0.00329206
0.000339386
-0.00127481
0.00434591
0.000910456
0.000617037
-0.00120139
0.000458477
-0.000510435
0.000409579
-0.000255836
0.00020064
3.88858
7.74932
-0.251595
0.189068
0.0191731
0.0829235
-0.0236062
0.0232003
0.00349631
0.00463276
0.00678893
-0.00199124
0.00331224
-0.000402071
0.00264452
0.000844021
-0.00149333
0.00198757
-0.00291747
0.000927906
-0.00106462
0.00345348
0.000246131
0.000735995
-0.00105862
0.000486643
-0.000513562
0.000396405
-0.000261237
0.000196426
17.952
4.20899
0.150434
-0.0869149
0.046636
0.00173521
0.0157041
0.000615812
0.0153837
-0.00426206
0.0088595
-0.0026135
0.00331568
0.00100384
0.00203396
0.00133313
-0.00146433
0.00208183
-0.00258692
0.00123098
-0.00108364
0.00336595
0.000133177
0.000886345
-0.000991578
0.0005169
-0.000507924
0.000394725
-0.000259719
0.000194086
10.0651
-0.282968
0.194675
0.0385053
0.00490607
0.00586376
0.00908621
0.00363388
0.00997825
0.00134893
0.00846285
-0.000419567
0.00362085
0.0012068
0.0011383
0.00156323
-0.00135755
0.0020279
-0.00236345
0.00153172
-0.0011274
0.00283656
-8.21015e-05
0.000933731
-0.000911044
0.000537696
-0.000502942
0.000386924
-0.000260119
0.000190203
0.777464
0.0251186
0.166546
-0.015233
0.0393879
0.00228358
0.0267403
0.00171667
0.0170616
8.34761e-05
0.00790431
0.000769839
0.00276781
0.00203847
0.000572874
0.00195949
-0.00142969
0.00215652
-0.00219742
0.0017214
-0.00112382
0.00273063
-0.000250325
0.00101869
-0.000862699
0.000557265
-0.000494402
0.000381481
-0.000258002
0.000186435
2.47504
0.255121
0.034405
0.0422368
0.0142752
0.0078953
0.0122701
0.00705677
0.00860427
0.0051791
0.00490491
0.0031834
0.00194345
0.0026213
-1.41031e-05
0.00222069
-0.00153274
0.00216214
-0.00207999
0.00184903
-0.00117246
0.0024071
-0.000382974
0.00103606
-0.000812023
0.000570158
-0.000484705
0.000374801
-0.000255258
0.000182141
0.0814316
0.0397261
0.0172272
0.0258876
0.0209049
0.0173736
0.0165186
0.00992405
0.0109088
0.00615134
0.00477181
0.00359022
0.00125393
0.00290694
-0.000560797
0.00247688
-0.0016739
0.00230199
-0.00200893
0.00194247
-0.00118708
0.00231394
-0.000493688
0.00108069
-0.000774805
0.000579084
-0.000473359
0.000367463
-0.000251435
0.000177463
0.0519246
0.0277829
0.0618379
0.0214827
0.0282874
0.0219275
0.0164516
0.0116103
0.00834448
0.00728873
0.00284602
0.00473226
0.000222032
0.00345951
-0.00109375
0.00268693
-0.00183567
0.00230257
-0.00196419
0.00198576
-0.00122207
0.00211942
-0.000576759
0.00107631
-0.000740168
0.000583117
-0.000460772
0.000359338
-0.000246611
0.000172402
1.07305
0.863654
0.965433
0.772637
0.597606
0.260663
0.0145832
0.0170476
0.00918348
0.00730518
0.00309619
0.00421888
-0.000253913
0.00322823
-0.00158134
0.00273267
-0.00199884
0.00237934
-0.00193872
0.0020063
-0.00123208
0.0020172
-0.00063786
0.00107931
-0.000708844
0.000582727
-0.000446943
0.000350331
-0.00024086
0.000166961
0.567063
0.318242
0.024456
-0.078532
0.0535223
0.0329886
0.012967
0.00346441
0.00524663
0.00543691
7.57311e-05
0.00425498
-0.00164584
0.00352741
-0.00206964
0.00284425
-0.00215348
0.00235489
-0.00192188
0.00199608
-0.00124441
0.00189062
-0.000681587
0.0010625
-0.000679434
0.000577993
-0.000431951
0.000340374
-0.000234203
0.000161142
-0.18133
0.0601656
0.309739
-0.0515524
0.125921
0.0139263
0.00572536
0.00992629
0.00128036
0.00386581
-0.000507391
0.00271623
-0.00202009
0.00277892
-0.00246401
0.00266715
-0.00228345
0.00234284
-0.00190527
0.00196554
-0.00124209
0.00178591
-0.000709653
0.00104079
-0.000650938
0.00056919
-0.000415852
0.000329419
-0.000226681
0.000154949
-1.28438
0.520946
-0.225722
0.231087
-0.13975
0.0978235
-0.0483202
0.0236617
-0.00959405
0.00294524
-0.00394868
0.00243829
-0.00340455
0.00293095
-0.00283608
0.0026964
-0.00238324
0.0022772
-0.00188295
0.00191413
-0.0012317
0.0016833
-0.000724437
0.00101083
-0.000622614
0.000556523
-0.000398692
0.000317441
-0.000218336
0.000148388
-6.70438
19.6643
10.7572
0.022364
-0.0623938
-0.0837451
-0.0289912
-0.026106
-0.0102529
-0.00761843
-0.00458935
-0.000449857
-0.00360505
0.0018012
-0.00307501
0.00235133
-0.00244154
0.00219177
-0.00185009
0.00184641
-0.00121082
0.00158386
-0.000727448
0.000974735
-0.000593891
0.000540245
-0.000380506
0.00030443
-0.000209207
0.000141467
1.79267
42.1148
20.9906
0.28665
0.00247092
0.000130993
-0.00662989
-0.00869363
-0.00943962
-0.00395352
-0.00646571
0.000169705
-0.00441157
0.00197586
-0.00325296
0.00230898
-0.00245813
0.00208201
-0.00180359
0.0017634
-0.00118013
0.0014856
-0.000720182
0.000932923
-0.00056436
0.000520589
-0.000361323
0.000290388
-0.000199336
0.000134194
7.92453
28.1985
0.582245
-0.503771
0.10683
-0.212049
0.0127946
-0.0473444
-0.0119885
-0.00818011
-0.00687533
-0.001489
-0.00457952
0.00116431
-0.00331596
0.00199125
-0.00242864
0.00195289
-0.00174158
0.00166825
-0.00113949
0.00138768
-0.000703819
0.000886305
-0.000533735
0.000497805
-0.00034118
0.000275334
-0.000188765
0.00012658
50.3297
9.97845
-0.0441256
-0.0322896
-0.0206449
-0.0123341
-0.0116804
-0.0120565
-0.0119067
-0.00482838
-0.00734249
-0.000768726
-0.00466626
0.00128095
-0.00327851
0.00184556
-0.00235484
0.00181053
-0.00166359
0.0015626
-0.00108951
0.00128926
-0.000679437
0.000835347
-0.000501825
0.000472132
-0.00032011
0.000259299
-0.000177535
0.00011864
42.2262
0.454518
-0.0824173
-0.0334019
-0.0497984
-0.0287026
-0.0224407
-0.0109376
-0.0118406
-0.00422546
-0.00683021
-0.000936082
-0.0044917
0.000903319
-0.00314349
0.00163109
-0.00224046
0.00165951
-0.0015702
0.00144888
-0.00103072
0.00118999
-0.000647971
0.000780621
-0.000468518
0.000443808
-0.00029815
0.000242319
-0.000165689
0.000110387
2.48381
0.0239957
-0.0192705
0.0040056
-0.0081112
-0.0013616
-0.00905187
-0.00375691
-0.008194
-0.00247151
-0.00582649
-0.000444097
-0.00408609
0.000873614
-0.00292228
0.00143869
-0.00209085
0.00149885
-0.00146288
0.00132885
-0.000963965
0.00108971
-0.000610284
0.000722571
-0.000433775
0.000413071
-0.000275349
0.000224447
-0.000153271
0.000101839
0.118697
0.0625433
0.0288592
0.0183785
0.00459831
0.00281609
-0.00399785
-0.000465106
-0.0056677
-0.00132821
-0.00471412
-0.000286473
-0.00357193
0.000742007
-0.00264085
0.00125249
-0.00191332
0.00133902
-0.00134365
0.00120449
-0.000890149
0.000988396
-0.000567156
0.000661622
-0.0003976
0.000380151
-0.000251755
0.000205736
-0.000140326
9.30151e-05
0.048695
0.0188124
0.0163271
0.0128586
0.00747507
0.00494877
0.000657756
0.001369
-0.00313122
-0.000503313
-0.0035226
-7.68781e-05
-0.0029961
0.000634861
-0.00232121
0.0010746
-0.00171592
0.00117898
-0.00121489
0.00107731
-0.000810251
0.000886146
-0.000519304
0.000598147
-0.000360041
0.000345273
-0.000227421
0.000186249
-0.000126899
8.39356e-05
0.0123613
0.000288813
0.00508362
0.00564584
0.00475952
0.00350033
0.000830451
0.000761056
-0.00189993
-0.000291349
-0.0026136
-1.21193e-05
-0.00243693
0.000532015
-0.00198648
0.000907655
-0.00150658
0.00102187
-0.00107912
0.000948682
-0.000725278
0.000783126
-0.0004674
0.000532509
-0.000321186
0.000308663
-0.000202412
0.000166057
-0.000113036
7.46242e-05
0.0223668
-0.00194996
-0.00111476
0.000483372
0.00126458
0.00142476
0.000136157
0.00034896
-0.00118332
-0.000143739
-0.0018541
4.84423e-05
-0.00191823
0.000439376
-0.00165501
0.000752592
-0.00129246
0.000869024
-0.000938699
0.000819625
-0.000636182
0.000679507
-0.000412058
0.000465026
-0.000281139
0.000270537
-0.000176791
0.000145231
-9.87865e-05
6.51044e-05
0.222145
0.00205352
-0.000648293
-2.80398e-07
0.000425471
0.000133684
9.67041e-05
0.00014528
-0.00054757
-1.11564e-05
-0.00122861
9.28982e-05
-0.00146196
0.000358573
-0.00133946
0.000610374
-0.00107923
0.000721556
-0.000795677
0.000690926
-0.000543844
0.000575451
-0.000353841
0.000395994
-0.000240023
0.000231105
-0.000150626
0.000123848
-8.41962e-05
5.54008e-05
0.184723
0.10229
0.00441352
0.00131301
0.00165033
0.00136352
0.00235946
0.00121457
0.000273993
0.000242361
-0.000719936
0.000138603
-0.0010772
0.000290414
-0.00104693
0.000480588
-0.000870885
0.000579973
-0.000651694
0.000563126
-0.000449069
0.000471123
-0.00029328
0.0003257
-0.000197986
0.000190581
-0.000123995
0.000101991
-6.93171e-05
4.55416e-05
0.0262298
0.047688
-0.000144244
0.00186704
0.00334381
0.00676001
0.00812624
0.00175225
0.00101722
0.000556954
-0.000125834
0.000201517
-0.000702421
0.000227717
-0.000778675
0.000361218
-0.00066963
0.00044406
-0.000507857
0.000436455
-0.000352527
0.000366628
-0.000230853
0.000254394
-0.000155175
0.000149166
-9.69733e-05
7.97415e-05
-5.41984e-05
3.55538e-05
-0.0147527
-0.00153716
-0.000541931
0.00402065
0.00415816
0.00673861
0.00782573
0.00139286
0.000634199
0.000446574
-0.000250767
0.000129198
-0.000514846
0.000150884
-0.000543132
0.000250077
-0.000476218
0.000313148
-0.000364764
0.000310909
-0.000254745
0.00026203
-0.000167001
0.000182311
-0.000111746
0.000107061
-6.96425e-05
5.7185e-05
-3.88917e-05
2.54646e-05
0.0492501
0.0441428
0.101005
0.0344796
0.00632467
0.00125453
0.00450156
0.00101668
0.000873576
0.000442041
0.000217956
0.000151527
-0.000192997
0.000105045
-0.00031504
0.000146823
-0.000289287
0.000186155
-0.000222519
0.000186307
-0.000156109
0.000157385
-0.000102149
0.000109691
-6.78725e-05
6.44769e-05
-4.20995e-05
3.44155e-05
-2.34575e-05
1.5304e-05
0.165466
0.175598
0.0304674
0.0195627
0.00157149
-0.00145766
0.000763796
1.24273e-05
7.09604e-05
-4.98147e-05
-0.000240268
-3.00732e-05
-0.000165362
8.24234e-06
-0.000128809
4.44844e-05
-0.000107861
6.12221e-05
-8.11533e-05
6.22895e-05
-5.68215e-05
5.26724e-05
-3.66347e-05
3.67138e-05
-2.36862e-05
2.15931e-05
-1.44078e-05
1.15148e-05
-7.9404e-06
5.09906e-06
0.24516
0.201914
0.168159
0.138555
0.114706
0.0942841
0.0777101
0.0636556
0.0522187
0.0425947
0.0347886
0.028253
0.0229437
0.0185177
0.0149057
0.0118802
0.00940509
0.00727545
0.00530713
0.00401233
0.000439787
0.00165318
-0.000113382
0.000480734
-0.000192776
0.00496897
-0.000422715
0.0358022
-0.00326988
0.127985
-2.71267e-05
5.73839e-05
-1.80471e-05
3.62789e-05
-1.38429e-05
1.93597e-05
-1.20649e-05
4.8398e-06
-1.23472e-05
-7.57503e-06
-1.55448e-05
-1.76684e-05
-2.23408e-05
-2.67706e-05
-3.17273e-05
-3.74966e-05
-4.34749e-05
-5.22362e-05
-5.86223e-05
-7.384e-05
-8.05528e-05
-0.000104954
-0.000113739
-0.000143849
-0.000159948
-0.000184491
-0.000218034
-0.000217198
-0.000223294
-4.72822e-05
-2.5115e-05
5.85265e-05
-1.61285e-05
3.71519e-05
-1.21745e-05
2.00878e-05
-1.07805e-05
5.56236e-06
-1.14483e-05
-6.7535e-06
-1.48978e-05
-1.6915e-05
-2.16686e-05
-2.59963e-05
-3.09269e-05
-3.6638e-05
-4.25574e-05
-5.13937e-05
-5.74791e-05
-7.33185e-05
-7.75944e-05
-0.000105167
-0.000115515
-0.000159636
-0.000200009
-0.000278153
-0.000432198
-0.00062111
-0.00134608
-0.00235527
-2.77809e-05
5.61123e-05
-1.85385e-05
3.52259e-05
-1.42013e-05
1.85902e-05
-1.24084e-05
4.42627e-06
-1.27215e-05
-7.68776e-06
-1.58431e-05
-1.77144e-05
-2.23897e-05
-2.67268e-05
-3.15641e-05
-3.7218e-05
-4.29763e-05
-5.16944e-05
-5.7715e-05
-7.31542e-05
-7.87019e-05
-0.000104239
-0.000111802
-0.000142722
-0.000156308
-0.000182226
-0.000212518
-0.000226155
-0.000251258
-0.000313285
-2.76957e-05
5.49913e-05
-1.84753e-05
3.44327e-05
-1.41542e-05
1.81317e-05
-1.24355e-05
4.30285e-06
-1.27923e-05
-7.55198e-06
-1.58236e-05
-1.74635e-05
-2.21039e-05
-2.63139e-05
-3.10826e-05
-3.66928e-05
-4.23405e-05
-5.10399e-05
-5.67619e-05
-7.22421e-05
-7.68895e-05
-0.000103059
-0.000111321
-0.000153462
-0.000185729
-0.00025522
-0.00035751
-0.000487731
-0.000622756
-0.00110989
-2.88074e-05
5.3183e-05
-1.94827e-05
3.3034e-05
-1.49903e-05
1.71164e-05
-1.31218e-05
3.64339e-06
-1.33509e-05
-7.95237e-06
-1.62237e-05
-1.77276e-05
-2.23296e-05
-2.64551e-05
-3.10761e-05
-3.65637e-05
-4.19974e-05
-5.0579e-05
-5.60165e-05
-7.12662e-05
-7.57643e-05
-0.00010108
-0.000107066
-0.000139617
-0.000149502
-0.000176609
-0.000195189
-0.000211006
-0.000186201
-0.00026413
-2.91828e-05
5.16469e-05
-1.98444e-05
3.19542e-05
-1.53019e-05
1.64451e-05
-1.33995e-05
3.34617e-06
-1.35655e-05
-7.95861e-06
-1.62686e-05
-1.75358e-05
-2.20665e-05
-2.61024e-05
-3.06295e-05
-3.60292e-05
-4.12795e-05
-4.97709e-05
-5.48224e-05
-6.99253e-05
-7.36627e-05
-9.87462e-05
-0.000103641
-0.000140941
-0.000160142
-0.000217247
-0.000268808
-0.000361952
-0.000317132
-0.000566623
-2.95248e-05
4.99513e-05
-2.02172e-05
3.0731e-05
-1.56324e-05
1.56481e-05
-1.36905e-05
2.93528e-06
-1.37974e-05
-8.07728e-06
-1.63709e-05
-1.74981e-05
-2.19614e-05
-2.5866e-05
-3.02314e-05
-3.54786e-05
-4.04777e-05
-4.88208e-05
-5.34469e-05
-6.832e-05
-7.13587e-05
-9.58561e-05
-9.89023e-05
-0.000132396
-0.000138042
-0.000166971
-0.000170663
-0.000186949
-0.000132695
-0.000177098
-2.97001e-05
4.82206e-05
-2.04576e-05
2.95203e-05
-1.58534e-05
1.48929e-05
-1.38833e-05
2.58919e-06
-1.39294e-05
-8.095e-06
-1.63436e-05
-1.72512e-05
-2.16382e-05
-2.54263e-05
-2.9657e-05
-3.47655e-05
-3.95165e-05
-4.76938e-05
-5.18607e-05
-6.64554e-05
-6.8714e-05
-9.25929e-05
-9.40109e-05
-0.000127005
-0.000132986
-0.000177144
-0.000191148
-0.000256422
-0.000172702
-0.000303937
-2.97079e-05
4.64429e-05
-2.05713e-05
2.83011e-05
-1.59729e-05
1.41524e-05
-1.39872e-05
2.27354e-06
-1.39776e-05
-8.06904e-06
-1.62428e-05
-1.70057e-05
-2.12958e-05
-2.49261e-05
-2.89904e-05
-3.39331e-05
-3.84154e-05
-4.63989e-05
-5.00861e-05
-6.43523e-05
-6.58016e-05
-8.89749e-05
-8.87219e-05
-0.00012018
-0.00012069
-0.000152329
-0.000143188
-0.0001633
-9.32431e-05
-0.000122518
-2.95478e-05
4.46168e-05
-2.05584e-05
2.70706e-05
-1.59906e-05
1.3424e-05
-1.4002e-05
1.98655e-06
-1.39421e-05
-7.99584e-06
-1.60603e-05
-1.66576e-05
-2.08466e-05
-2.43275e-05
-2.82205e-05
-3.29831e-05
-3.7184e-05
-4.49464e-05
-4.81465e-05
-6.20329e-05
-6.26783e-05
-8.50726e-05
-8.32507e-05
-0.000113314
-0.000110406
-0.000143716
-0.00013443
-0.000176776
-9.74968e-05
-0.000166344
-2.9221e-05
4.27407e-05
-2.04196e-05
2.58271e-05
-1.59073e-05
1.27058e-05
-1.39279e-05
1.72634e-06
-1.3823e-05
-7.87736e-06
-1.57971e-05
-1.62446e-05
-2.03181e-05
-2.36383e-05
-2.73514e-05
-3.19216e-05
-3.58327e-05
-4.33475e-05
-4.60646e-05
-5.95204e-05
-5.93952e-05
-8.0941e-05
-7.76844e-05
-0.000106282
-0.000100305
-0.000130979
-0.000113892
-0.00013806
-6.59522e-05
-8.97642e-05
-2.87296e-05
4.08138e-05
-2.01562e-05
2.45691e-05
-1.57235e-05
1.19961e-05
-1.37655e-05
1.49128e-06
-1.36212e-05
-7.71536e-06
-1.54546e-05
-1.57651e-05
-1.97099e-05
-2.28624e-05
-2.6388e-05
-3.07547e-05
-3.43714e-05
-4.16136e-05