/*--------------------------------*- C++ -*----------------------------------*\
| =========                 |                                                 |
| \\      /  F ield         | OpenFOAM: The Open Source CFD Toolbox           |
|  \\    /   O peration     | Version:  2.4.0                                 |
|   \\  /    A nd           | Web:      www.OpenFOAM.org                      |
|    \\/     M anipulation  |                                                 |
\*---------------------------------------------------------------------------*/
FoamFile
{
    version     2.0;
    format      ascii;
    class       surfaceScalarField;
    location    "0.026";
    object      phi;
}
// * * * * * * * * * * * * * * * * * * * * * * * * * * * * * * * * * * * * * //

dimensions      [0 3 -1 0 0 0 0];

internalField   nonuniform List<scalar> 
19800
(
1.45724e-13
-1.45724e-13
7.19494e-13
-5.71708e-13
1.48615e-12
-7.63579e-13
2.27458e-12
-7.88197e-13
3.03676e-12
-7.63696e-13
3.77151e-12
-7.36462e-13
4.49011e-12
-7.19594e-13
5.2054e-12
-7.1532e-13
5.93223e-12
-7.26102e-13
6.68691e-12
-7.53811e-13
7.48702e-12
-7.99788e-13
8.35125e-12
-8.64803e-13
9.30116e-12
-9.51216e-13
1.03599e-11
-1.06018e-12
1.15483e-11
-1.18952e-12
1.28826e-11
-1.33467e-12
1.43723e-11
-1.48948e-12
1.60196e-11
-1.64695e-12
1.78203e-11
-1.80047e-12
1.9765e-11
-1.94501e-12
2.18422e-11
-2.07814e-12
2.40409e-11
-2.20015e-12
2.63523e-11
-2.31333e-12
2.87711e-11
-2.42063e-12
3.12935e-11
-2.52375e-12
3.39144e-11
-2.62141e-12
3.66231e-11
-2.70811e-12
3.93983e-11
-2.77395e-12
4.22058e-11
-2.80554e-12
4.49959e-11
-2.78804e-12
4.77054e-11
-2.70762e-12
5.02604e-11
-2.5538e-12
5.25819e-11
-2.32089e-12
5.45905e-11
-2.00848e-12
5.62118e-11
-1.62089e-12
5.73792e-11
-1.16616e-12
5.8036e-11
-6.54548e-13
5.81379e-11
-9.9126e-14
5.76459e-11
4.94358e-13
5.65385e-11
1.10846e-12
5.48019e-11
1.73616e-12
5.24359e-11
2.36477e-12
4.94471e-11
2.98784e-12
4.58569e-11
3.5897e-12
4.16992e-11
4.15714e-12
3.70229e-11
4.67586e-12
3.18916e-11
5.13114e-12
2.63806e-11
5.5103e-12
2.05778e-11
5.80254e-12
5.99799e-12
1.45805e-11
3.61554e-13
-5.06787e-13
1.42418e-12
-1.63676e-12
2.79672e-12
-2.13651e-12
4.26505e-12
-2.25708e-12
5.74448e-12
-2.24463e-12
7.22652e-12
-2.22013e-12
8.72914e-12
-2.22289e-12
1.02758e-11
-2.26141e-12
1.18908e-11
-2.34017e-12
1.36025e-11
-2.46514e-12
1.54445e-11
-2.64291e-12
1.74563e-11
-2.87897e-12
1.96794e-11
-3.177e-12
2.21543e-11
-3.53719e-12
2.49194e-11
-3.95556e-12
2.80093e-11
-4.42452e-12
3.14539e-11
-4.93367e-12
3.52778e-11
-5.47083e-12
3.94999e-11
-6.02332e-12
4.41324e-11
-6.5794e-12
4.91806e-11
-7.12909e-12
5.46417e-11
-7.6643e-12
6.05039e-11
-8.17809e-12
6.67448e-11
-8.66315e-12
7.33306e-11
-9.10968e-12
8.0214e-11
-9.50345e-12
8.7333e-11
-9.8245e-12
9.46096e-11
-1.00472e-11
1.01949e-10
-1.01418e-11
1.09241e-10
-1.00768e-11
1.16358e-10
-9.82243e-12
1.23159e-10
-9.35338e-12
1.2949e-10
-8.65137e-12
1.35189e-10
-7.70681e-12
1.40089e-10
-6.51932e-12
1.44024e-10
-5.09773e-12
1.46832e-10
-3.4594e-12
1.48366e-10
-1.62962e-12
1.4849e-10
3.71228e-13
1.47115e-10
2.48275e-12
1.44164e-10
4.68541e-12
1.39603e-10
6.92435e-12
1.3344e-10
9.15006e-12
1.25722e-10
1.13076e-11
1.16537e-10
1.33415e-11
1.06013e-10
1.51981e-11
9.43166e-11
1.68265e-11
8.16456e-11
1.81812e-11
6.82232e-11
1.92245e-11
1.99274e-11
5.42938e-11
4.9921e-13
-1.00292e-12
1.78221e-12
-2.91973e-12
3.41006e-12
-3.76553e-12
5.13705e-12
-3.98572e-12
6.8837e-12
-3.99321e-12
8.64903e-12
-3.98706e-12
1.04597e-11
-4.03426e-12
1.23496e-11
-4.15109e-12
1.43562e-11
-4.34638e-12
1.65224e-11
-4.63192e-12
1.88982e-11
-5.02067e-12
2.15395e-11
-5.52317e-12
2.45047e-11
-6.14511e-12
2.78516e-11
-6.88618e-12
3.16358e-11
-7.74044e-12
3.59085e-11
-8.69708e-12
4.07164e-11
-9.74134e-12
4.61009e-11
-1.08555e-11
5.20968e-11
-1.20202e-11
5.87312e-11
-1.32155e-11
6.60215e-11
-1.44212e-11
7.39725e-11
-1.56168e-11
8.25742e-11
-1.67805e-11
9.1799e-11
-1.78878e-11
1.016e-10
-1.89092e-11
1.11907e-10
-1.9809e-11
1.22629e-10
-2.05442e-11
1.3365e-10
-2.10655e-11
1.44829e-10
-2.13193e-11
1.56005e-10
-2.12505e-11
1.66989e-10
-2.08064e-11
1.77576e-10
-1.99404e-11
1.8754e-10
-1.86156e-11
1.9664e-10
-1.68077e-11
2.04628e-10
-1.4507e-11
2.11252e-10
-1.17204e-11
2.16265e-10
-8.47128e-12
2.19436e-10
-4.79993e-12
2.20568e-10
-7.61621e-13
2.19484e-10
3.56688e-12
2.1607e-10
8.09946e-12
2.10256e-10
1.27389e-11
2.02032e-10
1.7373e-11
1.91453e-10
2.1886e-11
1.78634e-10
2.61588e-11
1.63753e-10
3.00762e-11
1.47047e-10
3.35303e-11
1.28804e-10
3.64241e-11
1.09351e-10
3.86775e-11
4.02304e-11
8.90476e-11
5.75525e-13
-1.57709e-12
1.92999e-12
-4.27266e-12
3.60906e-12
-5.44519e-12
5.37729e-12
-5.7558e-12
7.16181e-12
-5.77995e-12
8.97073e-12
-5.79766e-12
1.08402e-11
-5.90442e-12
1.28148e-11
-6.12552e-12
1.49444e-11
-6.47607e-12
1.72866e-11
-6.9753e-12
1.99069e-11
-7.64351e-12
2.28772e-11
-8.49665e-12
2.62723e-11
-9.54291e-12
3.01666e-11
-1.07818e-11
3.46312e-11
-1.22052e-11
3.97329e-11
-1.37983e-11
4.55328e-11
-1.55409e-11
5.2086e-11
-1.7409e-11
5.94404e-11
-1.93753e-11
6.76346e-11
-2.14104e-11
7.66952e-11
-2.34821e-11
8.66339e-11
-2.55552e-11
9.74439e-11
-2.75898e-11
1.09096e-10
-2.95392e-11
1.21537e-10
-3.13487e-11
1.34683e-10
-3.2954e-11
1.48422e-10
-3.42818e-11
1.62608e-10
-3.52509e-11
1.77066e-10
-3.57756e-11
1.91584e-10
-3.5769e-11
2.05925e-10
-3.51476e-11
2.1982e-10
-3.38363e-11
2.32975e-10
-3.17729e-11
2.45079e-10
-2.89131e-11
2.55805e-10
-2.52342e-11
2.64822e-10
-2.07382e-11
2.71806e-10
-1.54552e-11
2.7645e-10
-9.44396e-12
2.78482e-10
-2.79301e-12
2.77669e-10
4.38001e-12
2.73841e-10
1.19283e-11
2.66892e-10
1.96877e-11
2.56793e-10
2.74701e-11
2.43598e-10
3.50782e-11
2.27446e-10
4.23094e-11
2.08556e-10
4.89647e-11
1.87226e-10
5.48581e-11
1.63826e-10
5.98236e-11
1.3878e-10
6.3723e-11
6.64529e-11
1.12557e-10
6.09425e-13
-2.18633e-12
1.95081e-12
-5.61194e-12
3.58402e-12
-7.07814e-12
5.28716e-12
-7.46021e-12
6.99658e-12
-7.49114e-12
8.72901e-12
-7.53127e-12
1.05298e-11
-7.70539e-12
1.24541e-11
-8.04932e-12
1.4564e-11
-8.58601e-12
1.69307e-11
-9.34322e-12
1.96339e-11
-1.03492e-11
2.27603e-11
-1.16255e-11
2.6399e-11
-1.31832e-11
3.06386e-11
-1.50217e-11
3.55643e-11
-1.71301e-11
4.12564e-11
-1.94893e-11
4.77898e-11
-2.20737e-11
5.52333e-11
-2.48522e-11
6.36474e-11
-2.77893e-11
7.30825e-11
-3.08449e-11
8.35749e-11
-3.39737e-11
9.51436e-11
-3.7123e-11
1.07786e-10
-4.02313e-11
1.21472e-10
-4.32258e-11
1.36145e-10
-4.60211e-11
1.5171e-10
-4.85192e-11
1.68038e-10
-5.06099e-11
1.84961e-10
-5.21738e-11
2.02271e-10
-5.30858e-11
2.1972e-10
-5.32192e-11
2.37024e-10
-5.24518e-11
2.53857e-10
-5.06716e-11
2.69866e-10
-4.77832e-11
2.84666e-10
-4.3715e-11
2.97856e-10
-3.84252e-11
3.09026e-10
-3.19081e-11
3.1777e-10
-2.41988e-11
3.23703e-10
-1.5377e-11
3.26479e-10
-5.56844e-12
3.25801e-10
5.05711e-12
3.21445e-10
1.62832e-11
3.13269e-10
2.78626e-11
3.01224e-10
3.95136e-11
2.85364e-10
5.09368e-11
2.65848e-10
6.18245e-11
2.42938e-10
7.18732e-11
2.16997e-10
8.07978e-11
1.88474e-10
8.83448e-11
1.57894e-10
9.43027e-11
9.85115e-11
1.25834e-10
6.20766e-13
-2.80665e-12
1.90795e-12
-6.89637e-12
3.44243e-12
-8.61135e-12
5.01846e-12
-9.03643e-12
6.58232e-12
-9.05568e-12
8.15926e-12
-9.10833e-12
9.80403e-12
-9.34938e-12
1.15824e-11
-9.82658e-12
1.35685e-11
-1.05717e-11
1.58462e-11
-1.16216e-11
1.85083e-11
-1.30127e-11
2.1654e-11
-1.47724e-11
2.5385e-11
-1.69143e-11
2.98021e-11
-1.94376e-11
3.50031e-11
-2.23294e-11
4.10817e-11
-2.55663e-11
4.81265e-11
-2.91174e-11
5.62201e-11
-3.29449e-11
6.54365e-11
-3.70049e-11
7.58386e-11
-4.12461e-11
8.74734e-11
-4.56078e-11
1.00368e-10
-5.00179e-11
1.14526e-10
-5.439e-11
1.29921e-10
-5.86215e-11
1.46491e-10
-6.25927e-11
1.64138e-10
-6.61674e-11
1.82722e-10
-6.91943e-11
2.02057e-10
-7.15096e-11
2.21913e-10
-7.29419e-11
2.4201e-10
-7.33164e-11
2.6202e-10
-7.24627e-11
2.81569e-10
-7.02216e-11
3.0024e-10
-6.64546e-11
3.17579e-10
-6.10533e-11
3.33104e-10
-5.39496e-11
3.46321e-10
-4.51247e-11
3.56741e-10
-3.46175e-11
3.63892e-10
-2.25294e-11
3.67351e-10
-9.02837e-12
3.66753e-10
5.65344e-12
3.61816e-10
2.12188e-11
3.52358e-10
3.732e-11
3.38309e-10
5.35621e-11
3.19723e-10
6.9523e-11
2.96779e-10
8.47678e-11
2.69784e-10
9.88668e-11
2.39166e-10
1.11415e-10
2.0546e-10
1.22049e-10
1.69295e-10
1.30467e-10
1.36438e-10
1.31368e-10
6.13214e-13
-3.41835e-12
1.81576e-12
-8.09515e-12
3.20745e-12
-1.00008e-11
4.60035e-12
-1.04284e-11
5.95178e-12
-1.04067e-11
7.2961e-12
-1.04517e-11
8.69791e-12
-1.07496e-11
1.0234e-11
-1.13609e-11
1.19902e-11
-1.23269e-11
1.40623e-11
-1.36936e-11
1.65546e-11
-1.55054e-11
1.95777e-11
-1.77954e-11
2.32442e-11
-2.05799e-11
2.76662e-11
-2.38578e-11
3.29542e-11
-2.76152e-11
3.9215e-11
-3.18253e-11
4.65514e-11
-3.64525e-11
5.50606e-11
-4.14532e-11
6.48311e-11
-4.67747e-11
7.5939e-11
-5.23537e-11
8.84438e-11
-5.81131e-11
1.02384e-10
-6.3959e-11
1.1777e-10
-6.97783e-11
1.34582e-10
-7.54364e-11
1.52765e-10
-8.07772e-11
1.72221e-10
-8.56237e-11
1.92805e-10
-8.97787e-11
2.14324e-10
-9.30288e-11
2.3653e-10
-9.51476e-11
2.59117e-10
-9.59027e-11
2.81717e-10
-9.50634e-11
3.03908e-10
-9.24112e-11
3.25207e-10
-8.77519e-11
3.45085e-10
-8.09297e-11
3.62979e-10
-7.18408e-11
3.78303e-10
-6.04472e-11
3.90473e-10
-4.6788e-11
3.98929e-10
-3.09876e-11
4.0316e-10
-1.32611e-11
4.02727e-10
6.08531e-12
3.97279e-10
2.66658e-11
3.86591e-10
4.80087e-11
3.70565e-10
6.95889e-11
3.49248e-10
9.08395e-11
3.22841e-10
1.11174e-10
2.91695e-10
1.30012e-10
2.56308e-10
1.46801e-10
2.1731e-10
1.61046e-10
1.75445e-10
1.72332e-10
1.80342e-10
1.31539e-10
5.87899e-13
-4.00367e-12
1.67072e-12
-9.1734e-12
2.8715e-12
-1.11988e-11
4.02009e-12
-1.15756e-11
5.08582e-12
-1.14714e-11
6.11298e-12
-1.14776e-11
7.17707e-12
-1.18118e-11
8.36606e-12
-1.25479e-11
9.77714e-12
-1.37366e-11
1.15173e-11
-1.54331e-11
1.37014e-11
-1.76893e-11
1.64504e-11
-2.05438e-11
1.98874e-11
-2.40157e-11
2.41352e-11
-2.81038e-11
2.93171e-11
-3.27952e-11
3.55542e-11
-3.80608e-11
4.29639e-11
-4.38612e-11
5.16587e-11
-5.01474e-11
6.17422e-11
-5.68583e-11
7.33059e-11
-6.3918e-11
8.64238e-11
-7.12322e-11
1.01148e-10
-7.86853e-11
1.17505e-10
-8.61367e-11
1.35487e-10
-9.342e-11
1.55051e-10
-1.00342e-10
1.76109e-10
-1.06681e-10
1.98522e-10
-1.12191e-10
2.22095e-10
-1.16601e-10
2.46568e-10
-1.1962e-10
2.71611e-10
-1.20945e-10
2.96822e-10
-1.20273e-10
3.21722e-10
-1.1731e-10
3.45766e-10
-1.11793e-10
3.68345e-10
-1.03506e-10
3.88804e-10
-9.22981e-11
4.06461e-10
-7.8104e-11
4.2063e-10
-6.09579e-11
4.30648e-10
-4.10066e-11
4.35902e-10
-1.85162e-11
4.35869e-10
6.11884e-12
4.30111e-10
3.24246e-11
4.18345e-10
5.97742e-11
4.00437e-10
8.74961e-11
3.76423e-10
1.14853e-10
3.4652e-10
1.41077e-10
3.11128e-10
1.65405e-10
2.70822e-10
1.87108e-10
2.26341e-10
2.05527e-10
1.78562e-10
2.20109e-10
2.30436e-10
1.28466e-10
5.37083e-13
-4.53762e-12
1.46842e-12
-1.01003e-11
2.42829e-12
-1.21562e-11
3.26848e-12
-1.24148e-11
3.97214e-12
-1.21745e-11
4.59557e-12
-1.21e-11
5.22439e-12
-1.24389e-11
5.95804e-12
-1.32797e-11
6.90576e-12
-1.46829e-11
8.18453e-12
-1.67112e-11
9.91957e-12
-1.94241e-11
1.22419e-11
-2.28658e-11
1.52854e-11
-2.70583e-11
1.91811e-11
-3.19982e-11
2.4068e-11
-3.76809e-11
3.00815e-11
-4.40734e-11
3.73539e-11
-5.11333e-11
4.60136e-11
-5.88072e-11
5.61812e-11
-6.70264e-11
6.79654e-11
-7.57029e-11
8.1459e-11
-8.47267e-11
9.67343e-11
-9.39613e-11
1.13838e-10
-1.03241e-10
1.32787e-10
-1.12368e-10
1.53558e-10
-1.21112e-10
1.76082e-10
-1.29204e-10
2.00234e-10
-1.36343e-10
2.25823e-10
-1.4219e-10
2.52582e-10
-1.46379e-10
2.80161e-10
-1.48523e-10
3.0812e-10
-1.48231e-10
3.35931e-10
-1.45119e-10
3.62979e-10
-1.38839e-10
3.88573e-10
-1.29099e-10
4.11962e-10
-1.15686e-10
4.32355e-10
-9.84961e-11
4.48947e-10
-7.75503e-11
4.60954e-10
-5.30135e-11
4.67641e-10
-2.52027e-11
4.68375e-10
5.38469e-12
4.62611e-10
3.81876e-11
4.49996e-10
7.23887e-11
4.30342e-10
1.0715e-10
4.03665e-10
1.41529e-10
3.702e-10
1.74543e-10
3.30402e-10
2.05204e-10
2.84937e-10
2.32572e-10
2.34674e-10
2.5579e-10
1.80645e-10
2.74137e-10
2.87069e-10
1.24013e-10
4.68145e-13
-5.00284e-12
1.20701e-12
-1.08359e-11
1.87984e-12
-1.28277e-11
2.34937e-12
-1.28842e-11
2.61583e-12
-1.24411e-11
2.74862e-12
-1.22322e-11
2.84687e-12
-1.25358e-11
3.02191e-12
-1.3453e-11
3.39258e-12
-1.50523e-11
4.08567e-12
-1.74038e-11
5.2357e-12
-2.0574e-11
6.98414e-12
-2.46139e-11
9.48038e-12
-2.95539e-11
1.285e-11
-3.5367e-11
1.72625e-11
-4.20928e-11
2.2862e-11
-4.96728e-11
2.97956e-11
-5.80671e-11
3.82095e-11
-6.72214e-11
4.82434e-11
-7.70605e-11
6.00271e-11
-8.74866e-11
7.36776e-11
-9.83768e-11
8.92947e-11
-1.09578e-10
1.06956e-10
-1.20901e-10
1.26708e-10
-1.3212e-10
1.48561e-10
-1.42964e-10
1.72472e-10
-1.53115e-10
1.98336e-10
-1.62207e-10
2.25974e-10
-1.69827e-10
2.55116e-10
-1.75521e-10
2.85398e-10
-1.78805e-10
3.16348e-10
-1.79181e-10
3.47389e-10
-1.76161e-10
3.7784e-10
-1.6929e-10
4.06921e-10
-1.58179e-10
4.33773e-10
-1.42537e-10
4.57478e-10
-1.222e-10
4.77092e-10
-9.7164e-11
4.9168e-10
-6.76018e-11
5.00361e-10
-3.38838e-11
5.02328e-10
3.41681e-12
4.96963e-10
4.35521e-11
4.83782e-10
8.55694e-11
4.62538e-10
1.28394e-10
4.33223e-10
1.70844e-10
3.96091e-10
2.11675e-10
3.51659e-10
2.49637e-10
3.00702e-10
2.83529e-10
2.44236e-10
3.12257e-10
1.8348e-10
3.34893e-10
3.50742e-10
1.19808e-10
3.83119e-13
-5.38388e-12
9.02782e-13
-1.1354e-11
1.23547e-12
-1.31604e-11
1.27325e-12
-1.29228e-11
1.03246e-12
-1.22009e-11
5.96703e-13
-1.17961e-11
7.64434e-14
-1.20142e-11
-4.05938e-13
-1.2969e-11
-7.20926e-13
-1.47359e-11
-7.31719e-13
-1.73921e-11
-2.95248e-13
-2.10098e-11
7.34337e-13
-2.56428e-11
2.50028e-12
-3.13191e-11
5.21403e-12
-3.80802e-11
8.9855e-12
-4.58641e-11
1.39874e-11
-5.46749e-11
2.03862e-11
-6.44661e-11
2.83482e-11
-7.51835e-11
3.80372e-11
-8.6749e-11
4.96076e-11
-9.90557e-11
6.32078e-11
-1.11975e-10
7.89736e-11
-1.25342e-10
9.70214e-11
-1.38948e-10
1.17439e-10
-1.52538e-10
1.40275e-10
-1.658e-10
1.65522e-10
-1.78363e-10
1.93106e-10
-1.8979e-10
2.22865e-10
-1.99585e-10
2.5454e-10
-2.07196e-10
2.8776e-10
-2.12025e-10
3.22032e-10
-2.13455e-10
3.56737e-10
-2.10867e-10
3.91123e-10
-2.03676e-10
4.24315e-10
-1.9137e-10
4.55327e-10
-1.73549e-10
4.83091e-10
-1.49965e-10
5.0649e-10
-1.20564e-10
5.24403e-10
-8.5516e-11
5.35759e-10
-4.52401e-11
5.3959e-10
-4.13151e-13
5.351e-10
4.80422e-11
5.217e-10
9.89692e-11
4.9906e-10
1.51033e-10
4.67141e-10
2.02763e-10
4.26211e-10
2.52605e-10
3.76857e-10
2.98993e-10
3.19974e-10
3.40413e-10
2.56749e-10
3.75483e-10
1.8862e-10
4.03023e-10
4.22144e-10
1.17216e-10
2.82104e-13
-5.66497e-12
5.474e-13
-1.16189e-11
4.96813e-13
-1.31104e-11
5.08045e-14
-1.24778e-11
-7.589e-13
-1.13916e-11
-1.83783e-12
-1.07166e-11
-3.06038e-12
-1.079e-11
-4.29194e-12
-1.17354e-11
-5.39231e-12
-1.36335e-11
-6.21599e-12
-1.65666e-11
-6.61154e-12
-2.06126e-11
-6.42085e-12
-2.58321e-11
-5.47521e-12
-3.22637e-11
-3.6274e-12
-3.99275e-11
-6.8324e-13
-4.88083e-11
3.53017e-12
-5.88887e-11
9.19949e-12
-7.01357e-11
1.65057e-11
-8.24894e-11
2.56338e-11
-9.58759e-11
3.67767e-11
-1.10197e-10
5.01198e-11
-1.25317e-10
6.58415e-11
-1.41063e-10
8.4105e-11
-1.57213e-10
1.05047e-10
-1.73482e-10
1.28764e-10
-1.89519e-10
1.55294e-10
-2.04894e-10
1.84605e-10
-2.191e-10
2.16569e-10
-2.31549e-10
2.50953e-10
-2.41581e-10
2.87398e-10
-2.48472e-10
3.25399e-10
-2.51459e-10
3.643e-10
-2.49769e-10
4.03277e-10
-2.42653e-10
4.41344e-10
-2.29437e-10
4.77368e-10
-2.09574e-10
5.10098e-10
-1.82697e-10
5.38207e-10
-1.48675e-10
5.60351e-10
-1.0766e-10
5.7523e-10
-6.01178e-11
5.81664e-10
-6.84529e-12
5.78663e-10
5.10433e-11
5.65492e-10
1.12139e-10
5.41721e-10
1.74803e-10
5.07261e-10
2.37224e-10
4.62387e-10
2.9748e-10
4.07754e-10
3.53628e-10
3.4439e-10
4.03777e-10
2.73683e-10
4.46191e-10
1.97334e-10
4.79372e-10
5.02186e-10
1.17292e-10
1.68466e-13
-5.83317e-12
1.46279e-13
-1.15965e-11
-3.22275e-13
-1.26423e-11
-1.30214e-12
-1.14984e-11
-2.74428e-12
-9.94944e-12
-4.53445e-12
-8.92537e-12
-6.53524e-12
-8.78729e-12
-8.60075e-12
-9.66734e-12
-1.05814e-11
-1.16501e-11
-1.23237e-11
-1.48215e-11
-1.367e-11
-1.92639e-11
-1.44549e-11
-2.50453e-11
-1.45071e-11
-3.22104e-11
-1.36521e-11
-4.07823e-11
-1.17009e-11
-5.07599e-11
-8.45983e-12
-6.21303e-11
-3.73018e-12
-7.48655e-11
2.69953e-12
-8.89186e-11
1.10475e-11
-1.04223e-10
2.15389e-11
-1.20687e-10
3.44028e-11
-1.38181e-10
4.98677e-11
-1.5653e-10
6.81504e-11
-1.75498e-10
8.94446e-11
-1.94779e-10
1.13905e-10
-2.13981e-10
1.41633e-10
-2.32621e-10
1.72652e-10
-2.50119e-10
2.06893e-10
-2.65791e-10
2.44172e-10
-2.7886e-10
2.84156e-10
-2.88458e-10
3.26348e-10
-2.93651e-10
3.70054e-10
-2.93475e-10
4.14375e-10
-2.86973e-10
4.582e-10
-2.73264e-10
5.00226e-10
-2.51603e-10
5.38988e-10
-2.21461e-10
5.72912e-10
-1.82599e-10
6.00383e-10
-1.35129e-10
6.19822e-10
-7.95567e-11
6.29786e-10
-1.68096e-11
6.2905e-10
5.17796e-11
6.16687e-10
1.24502e-10
5.92132e-10
1.99359e-10
5.55223e-10
2.74135e-10
5.06228e-10
3.46477e-10
4.45869e-10
4.13987e-10
3.75327e-10
4.74319e-10
2.96228e-10
5.25289e-10
2.10602e-10
5.65001e-10
5.91995e-10
1.20793e-10
4.44539e-14
-5.87746e-12
-2.92751e-13
-1.12587e-11
-1.22329e-12
-1.17115e-11
-2.78584e-12
-9.93583e-12
-4.91167e-12
-7.82324e-12
-7.47709e-12
-6.35886e-12
-1.03268e-11
-5.93566e-12
-1.33065e-11
-6.68501e-12
-1.6259e-11
-8.69456e-12
-1.90224e-11
-1.20553e-11
-2.14361e-11
-1.68479e-11
-2.33277e-11
-2.31522e-11
-2.45194e-11
-3.10182e-11
-2.48256e-11
-4.04763e-11
-2.40489e-11
-5.15372e-11
-2.19816e-11
-6.41984e-11
-1.84032e-11
-7.84442e-11
-1.30778e-11
-9.42437e-11
-5.75329e-12
-1.11547e-10
3.83506e-12
-1.30275e-10
1.59664e-11
-1.50313e-10
3.09212e-11
-1.71487e-10
4.8977e-11
-1.93557e-10
7.03947e-11
-2.16198e-10
9.54034e-11
-2.3899e-10
1.24183e-10
-2.614e-10
1.56844e-10
-2.82779e-10
1.934e-10
-3.02348e-10
2.33738e-10
-3.19197e-10
2.77577e-10
-3.32295e-10
3.24435e-10
-3.40508e-10
3.73594e-10
-3.42633e-10
4.24078e-10
-3.37459e-10
4.74648e-10
-3.23834e-10
5.23809e-10
-3.00764e-10
5.69852e-10
-2.67504e-10
6.1091e-10
-2.23656e-10
6.45037e-10
-1.69255e-10
6.70314e-10
-1.04835e-10
6.84959e-10
-3.14553e-11
6.87445e-10
4.92954e-11
6.76599e-10
1.35351e-10
6.51679e-10
2.2428e-10
6.12429e-10
3.13386e-10
5.59101e-10
3.99805e-10
4.92489e-10
4.80602e-10
4.13942e-10
5.52868e-10
3.25373e-10
6.13859e-10
2.29208e-10
6.61164e-10
6.92914e-10
1.28289e-10
-1.05625e-13
-5.77132e-12
-7.78273e-13
-1.05848e-11
-2.20575e-12
-1.02834e-11
-4.39077e-12
-7.75072e-12
-7.24999e-12
-4.96395e-12
-1.06513e-11
-2.95697e-12
-1.44144e-11
-2.17112e-12
-1.83848e-11
-2.71261e-12
-2.23959e-11
-4.6813e-12
-2.6285e-11
-8.1644e-12
-2.98804e-11
-1.32513e-11
-3.30104e-11
-2.00217e-11
-3.54904e-11
-2.85384e-11
-3.71274e-11
-3.88399e-11
-3.77152e-11
-5.09506e-11
-3.70314e-11
-6.48832e-11
-3.48354e-11
-8.06408e-11
-3.08645e-11
-9.82146e-11
-2.48332e-11
-1.17578e-10
-1.64338e-11
-1.38675e-10
-5.3397e-12
-1.61409e-10
8.79091e-12
-1.85619e-10
2.6304e-11
-2.11071e-10
4.75409e-11
-2.37435e-10
7.28232e-11
-2.64271e-10
1.02436e-10
-2.91013e-10
1.366e-10
-3.16944e-10
1.75442e-10
-3.41188e-10
2.18943e-10
-3.62697e-10
2.669e-10
-3.80251e-10
3.18872e-10
-3.92478e-10
3.74135e-10
-3.97896e-10
4.31652e-10
-3.94976e-10
4.90055e-10
-3.82235e-10
5.47646e-10
-3.58352e-10
6.02434e-10
-3.22291e-10
6.52199e-10
-2.73422e-10
6.9459e-10
-2.11648e-10
7.2725e-10
-1.37494e-10
7.47962e-10
-5.21655e-11
7.54811e-10
4.24486e-11
7.46316e-10
1.43847e-10
7.21529e-10
2.49068e-10
6.80082e-10
3.54835e-10
6.22211e-10
4.57677e-10
5.48775e-10
5.5404e-10
4.61302e-10
6.40343e-10
3.62025e-10
7.13136e-10
2.53847e-10
7.6934e-10
8.06545e-10
1.40215e-10
-2.5874e-13
-5.51167e-12
-1.30683e-12
-9.53547e-12
-3.25949e-12
-8.33051e-12
-6.11118e-12
-4.89953e-12
-9.75597e-12
-1.31982e-12
-1.4028e-11
1.31481e-12
-1.87734e-11
2.57472e-12
-2.38088e-11
2.32347e-12
-2.89669e-11
4.77416e-13
-3.40753e-11
-3.05571e-12
-3.89706e-11
-8.35612e-12
-4.34705e-11
-1.55221e-11
-4.73909e-11
-2.46187e-11
-5.05337e-11
-3.56983e-11
-5.26845e-11
-4.88012e-11
-5.36082e-11
-6.39607e-11
-5.30449e-11
-8.12047e-11
-5.07067e-11
-1.00553e-10
-4.62749e-11
-1.2201e-10
-3.94002e-11
-1.45551e-10
-2.9704e-11
-1.71105e-10
-1.67816e-11
-1.98541e-10
-2.07183e-13
-2.27644e-10
2.04565e-11
-2.58098e-10
4.56455e-11
-2.8946e-10
7.57733e-11
-3.2114e-10
1.11198e-10
-3.52368e-10
1.52184e-10
-3.82171e-10
1.98843e-10
-4.09354e-10
2.51083e-10
-4.32491e-10
3.08546e-10
-4.4994e-10
3.70542e-10
-4.5989e-10
4.36001e-10
-4.60431e-10
5.03437e-10
-4.49667e-10
5.70934e-10
-4.25847e-10
6.36175e-10
-3.87532e-10
6.96511e-10
-3.3376e-10
7.49077e-10
-2.64214e-10
7.90957e-10
-1.79371e-10
8.1938e-10
-8.05868e-11
8.3194e-10
2.98872e-11
8.26785e-10
1.49e-10
8.02734e-10
2.73122e-10
7.59306e-10
3.98266e-10
6.9672e-10
5.20265e-10
6.15878e-10
6.34882e-10
5.1846e-10
7.3776e-10
4.07037e-10
8.24559e-10
2.85074e-10
8.91307e-10
9.34846e-10
1.56772e-10
-4.34122e-13
-5.07663e-12
-1.87182e-12
-8.09717e-12
-4.38384e-12
-5.819e-12
-7.93189e-12
-1.35272e-12
-1.23941e-11
3.14104e-12
-1.7603e-11
6.52279e-12
-2.33808e-11
8.35193e-12
-2.95468e-11
8.48882e-12
-3.59277e-11
6.85747e-12
-4.23577e-11
3.37332e-12
-4.86593e-11
-2.05531e-12
-5.46604e-11
-9.52186e-12
-6.01747e-11
-1.91054e-11
-6.50023e-11
-3.0872e-11
-6.89233e-11
-4.48815e-11
-7.16925e-11
-6.11926e-11
-7.3034e-11
-7.98638e-11
-7.26373e-11
-1.0095e-10
-7.01527e-11
-1.24495e-10
-6.51902e-11
-1.50513e-10
-5.73178e-11
-1.78977e-10
-4.60611e-11
-2.09797e-10
-3.09056e-11
-2.42799e-10
-1.13029e-11
-2.777e-10
1.33156e-11
-3.14078e-10
4.35119e-11
-3.51335e-10
7.98081e-11
-3.88662e-10
1.22638e-10
-4.25e-10
1.7229e-10
-4.59007e-10
2.2884e-10
-4.89041e-10
2.92071e-10
-5.1317e-10
3.61387e-10
-5.29201e-10
4.35727e-10
-5.34768e-10
5.13505e-10
-5.27443e-10
5.92573e-10
-5.04916e-10
6.70235e-10
-4.65194e-10
7.4332e-10
-4.06843e-10
8.08324e-10
-3.29215e-10
8.6162e-10
-2.32667e-10
8.99732e-10
-1.187e-10
9.19626e-10
9.99087e-12
9.1899e-10
1.49636e-10
8.96388e-10
2.95726e-10
8.51248e-10
4.43409e-10
7.8379e-10
5.87722e-10
6.94916e-10
7.23754e-10
5.86391e-10
8.46287e-10
4.6111e-10
9.4984e-10
3.23203e-10
1.02921e-09
1.08021e-09
1.77836e-10
-6.23912e-13
-4.45221e-12
-2.471e-12
-6.25037e-12
-5.56474e-12
-2.72642e-12
-9.83718e-12
2.9182e-12
-1.51539e-11
8.45635e-12
-2.13367e-11
1.27044e-11
-2.81982e-11
1.52122e-11
-3.55553e-11
1.58444e-11
-4.32336e-11
1.45342e-11
-5.1065e-11
1.12035e-11
-5.88804e-11
5.75936e-12
-6.65093e-11
-1.8937e-12
-7.37692e-11
-1.18466e-11
-8.04625e-11
-2.41799e-11
-8.6368e-11
-3.89772e-11
-9.12344e-11
-5.6327e-11
-9.47744e-11
-7.63245e-11
-9.66582e-11
-9.90671e-11
-9.65086e-11
-1.24645e-10
-9.38962e-11
-1.53125e-10
-8.83338e-11
-1.84539e-10
-7.92728e-11
-2.18858e-10
-6.6102e-11
-2.5597e-10
-4.81529e-11
-2.95649e-10
-2.4714e-11
-3.37516e-10
4.94566e-12
-3.80993e-10
4.15397e-11
-4.25256e-10
8.57185e-11
-4.6918e-10
1.38007e-10
-5.11297e-10
1.98724e-10
-5.49757e-10
2.67872e-10
-5.82316e-10
3.45022e-10
-6.06349e-10
4.29183e-10
-6.18929e-10
5.18699e-10
-6.16961e-10
6.11184e-10
-5.97402e-10
7.03517e-10
-5.57525e-10
7.91913e-10
-4.95235e-10
8.72084e-10
-4.09386e-10
9.39499e-10
-3.00084e-10
9.8974e-10
-1.68944e-10
1.01894e-09
-1.92031e-11
1.02417e-09
1.44403e-10
1.00375e-09
3.16145e-10
9.57097e-10
4.90061e-10
8.8454e-10
6.60279e-10
7.8692e-10
8.21376e-10
6.65948e-10
9.67261e-10
5.24799e-10
1.09099e-09
3.68372e-10
1.18564e-09
1.24553e-09
2.03056e-10
-8.21514e-13
-3.63072e-12
-3.09446e-12
-3.97821e-12
-6.78665e-12
9.646e-13
-1.1808e-11
7.93838e-12
-1.80055e-11
1.4653e-11
-2.51934e-11
1.98912e-11
-3.31783e-11
2.31957e-11
-4.17752e-11
2.44397e-11
-5.08105e-11
2.35683e-11
-6.01201e-11
2.05125e-11
-6.95435e-11
1.51824e-11
-7.89172e-11
7.47947e-12
-8.80694e-11
-2.69535e-12
-9.68081e-11
-1.54423e-11
-1.04916e-10
-3.08701e-11
-1.12142e-10
-4.91026e-11
-1.1819e-10
-7.02769e-11
-1.22717e-10
-9.45401e-11
-1.25322e-10
-1.22039e-10
-1.25539e-10
-1.52909e-10
-1.22825e-10
-1.87254e-10
-1.16556e-10
-2.25128e-10
-1.06023e-10
-2.66503e-10
-9.04338e-11
-3.11237e-10
-6.89271e-11
-3.59021e-10
-4.05868e-11
-4.09333e-10
-4.47124e-12
-4.61373e-10
4.03434e-11
-5.13996e-10
9.46938e-11
-5.65647e-10
1.59228e-10
-6.1429e-10
2.34268e-10
-6.57356e-10
3.19644e-10
-6.91727e-10
4.14515e-10
-7.13802e-10
5.17214e-10
-7.19661e-10
6.25142e-10
-7.05329e-10
7.34738e-10
-6.67119e-10
8.4152e-10
-6.02018e-10
9.40243e-10
-5.08111e-10
1.02519e-09
-3.85031e-10
1.09064e-09
-2.34393e-10
1.13151e-09
-6.00782e-11
1.14407e-09
1.31844e-10
1.12641e-09
3.33806e-10
1.07818e-09
5.38293e-10
1.00012e-09
7.38334e-10
8.92956e-10
9.28546e-10
7.5805e-10
1.10216e-09
5.98699e-10
1.25034e-09
4.20671e-10
1.36367e-09
1.43431e-09
2.31882e-10
-1.02341e-12
-2.60766e-12
-3.72994e-12
-1.27235e-12
-8.03504e-12
5.2691e-12
-1.38191e-11
1.37221e-11
-2.09146e-11
2.1748e-11
-2.91278e-11
2.81035e-11
-3.82619e-11
3.23286e-11
-4.81318e-11
3.43087e-11
-5.85686e-11
3.40047e-11
-6.94167e-11
3.13606e-11
-8.05277e-11
2.62934e-11
-9.17531e-11
1.87043e-11
-1.02934e-10
8.48497e-12
-1.13891e-10
-4.48615e-12
-1.24418e-10
-2.03444e-11
-1.34265e-10
-3.92563e-11
-1.43138e-10
-6.14045e-11
-1.50684e-10
-8.69942e-11
-1.56483e-10
-1.16241e-10
-1.60035e-10
-1.49358e-10
-1.60746e-10
-1.86544e-10
-1.57923e-10
-2.27952e-10
-1.50762e-10
-2.73664e-10
-1.38353e-10
-3.23645e-10
-1.19676e-10
-3.77698e-10
-9.36107e-11
-4.354e-10
-5.89498e-11
-4.96035e-10
-1.44383e-11
-5.58508e-10
4.11534e-11
-6.21239e-10
1.08905e-10
-6.82043e-10
1.89571e-10
-7.38025e-10
2.83363e-10
-7.85523e-10
3.89712e-10
-8.20153e-10
5.07045e-10
-8.36994e-10
6.32631e-10
-8.30915e-10
7.62494e-10
-7.96983e-10
8.91395e-10
-7.3092e-10
1.01293e-09
-6.29643e-10
1.1198e-09
-4.91904e-10
1.20445e-09
-3.19039e-10
1.25998e-09
-1.1562e-10
1.28142e-09
1.10403e-10
1.26674e-09
3.48491e-10
1.21631e-09
5.88731e-10
1.13206e-09
8.22575e-10
1.01444e-09
1.04617e-09
8.63907e-10
1.2527e-09
6.83531e-10
1.43071e-09
4.80043e-10
1.56715e-09
1.65102e-09
2.63337e-10
-1.22379e-12
-1.38419e-12
-4.36578e-12
1.86951e-12
-9.28973e-12
1.01932e-11
-1.58422e-11
2.02747e-11
-2.38404e-11
2.97462e-11
-3.30843e-11
3.73467e-11
-4.33756e-11
4.26192e-11
-5.45329e-11
4.54656e-11
-6.6396e-11
4.58679e-11
-7.88232e-11
4.37879e-11
-9.16841e-11
3.91542e-11
-1.0485e-10
3.18694e-11
-1.18181e-10
2.18153e-11
-1.31517e-10
8.84923e-12
-1.44665e-10
-7.19821e-12
-1.57386e-10
-2.65352e-11
-1.69392e-10
-4.93983e-11
-1.80329e-10
-7.60577e-11
-1.89762e-10
-1.06808e-10
-1.97166e-10
-1.41956e-10
-2.01903e-10
-1.81807e-10
-2.0322e-10
-2.26635e-10
-2.00231e-10
-2.76653e-10
-1.91909e-10
-3.31968e-10
-1.77077e-10
-3.92532e-10
-1.54391e-10
-4.58086e-10
-1.22349e-10
-5.28077e-10
-7.93102e-11
-6.01547e-10
-2.35763e-11
-6.76975e-10
4.64766e-11
-7.52099e-10
1.32177e-10
-8.23727e-10
2.34286e-10
-8.87634e-10
3.52672e-10
-9.38539e-10
4.8602e-10
-9.70343e-10
6.31602e-10
-9.765e-10
7.85117e-10
-9.50498e-10
9.40568e-10
-8.8637e-10
1.09023e-09
-7.79306e-10
1.22481e-09
-6.26488e-10
1.33413e-09
-4.28357e-10
1.40848e-09
-1.89968e-10
1.44069e-09
7.81922e-11
1.42867e-09
3.60514e-10
1.37431e-09
6.43088e-10
1.28261e-09
9.1428e-10
1.15339e-09
1.17538e-09
9.85092e-10
1.421e-09
7.80041e-10
1.63576e-09
5.46133e-10
1.80106e-09
1.90126e-09
2.95889e-10
-1.4153e-12
3.10511e-14
-4.99158e-12
5.44626e-12
-1.05309e-11
1.57331e-11
-1.78452e-11
2.75893e-11
-2.67353e-11
3.8636e-11
-3.69961e-11
4.76069e-11
-4.84313e-11
5.40539e-11
-6.08676e-11
5.79017e-11
-7.41587e-11
5.91591e-11
-8.81826e-11
5.7812e-11
-1.02833e-10
5.38039e-11
-1.18005e-10
4.70407e-11
-1.33584e-10
3.73937e-11
-1.49434e-10
2.46977e-11
-1.65379e-10
8.74644e-12
-1.81204e-10
-1.07102e-11
-1.96629e-10
-3.39727e-11
-2.11307e-10
-6.13795e-11
-2.24798e-10
-9.33159e-11
-2.36558e-10
-1.30195e-10
-2.45921e-10
-1.72444e-10
-2.52083e-10
-2.20473e-10
-2.54089e-10
-2.74649e-10
-2.50806e-10
-3.35251e-10
-2.409e-10
-4.02437e-10
-2.22808e-10
-4.76177e-10
-1.94713e-10
-5.56173e-10
-1.54555e-10
-6.41707e-10
-1.00092e-10
-7.31441e-10
-2.90362e-11
-8.23156e-10
6.06914e-11
-9.13455e-10
1.70594e-10
-9.97537e-10
3.01205e-10
-1.06915e-09
4.51656e-10
-1.1208e-09
6.19403e-10
-1.14425e-09
8.00021e-10
-1.13112e-09
9.86954e-10
-1.0733e-09
1.17123e-09
-9.63581e-10
1.34123e-09
-7.96496e-10
1.4832e-09
-5.70321e-10
1.58285e-09
-2.89613e-10
1.62876e-09
3.22832e-11
1.6184e-09
3.70864e-10
1.55631e-09
7.05185e-10
1.45493e-09
1.01565e-09
1.31265e-09
1.31766e-09
1.12374e-09
1.60991e-09
8.89101e-10
1.8704e-09
6.18338e-10
2.07182e-09
2.19208e-09
3.27516e-10
-1.59451e-12
1.62575e-12
-5.59542e-12
9.44801e-12
-1.17373e-11
2.18757e-11
-1.97918e-11
3.56439e-11
-2.95436e-11
4.83875e-11
-4.07852e-11
5.88479e-11
-5.33265e-11
6.65948e-11
-6.70073e-11
7.15823e-11
-8.17016e-11
7.38534e-11
-9.73127e-11
7.34231e-11
-1.13762e-10
7.0253e-11
-1.30975e-10
6.4253e-11
-1.48866e-10
5.52841e-11
-1.67327e-10
4.31575e-11
-1.86212e-10
2.76311e-11
-2.05327e-10
8.40535e-12
-2.24418e-10
-1.48806e-11
-2.43148e-10
-4.26481e-11
-2.61081e-10
-7.53805e-11
-2.77665e-10
-1.13609e-10
-2.92215e-10
-1.57894e-10
-3.03891e-10
-2.08797e-10
-3.11682e-10
-2.66858e-10
-3.14367e-10
-3.32564e-10
-3.10479e-10
-4.06323e-10
-2.9825e-10
-4.88406e-10
-2.75564e-10
-5.78861e-10
-2.39927e-10
-6.77345e-10
-1.88494e-10
-7.82875e-10
-1.18192e-10
-8.93457e-10
-2.60102e-11
-1.00564e-09
9.05472e-11
-1.1141e-09
2.32867e-10
-1.21147e-09
4.00706e-10
-1.28863e-09
5.91932e-10
-1.33547e-09
8.02378e-10
-1.34156e-09
1.02549e-09
-1.29642e-09
1.25164e-09
-1.18973e-09
1.46705e-09
-1.01191e-09
1.65344e-09
-7.56712e-10
1.78933e-09
-4.25505e-10
1.85464e-09
-3.30246e-11
1.84474e-09
3.8077e-10
1.76746e-09
7.8246e-10
1.65336e-09
1.12975e-09
1.49641e-09
1.47461e-09
1.28286e-09
1.82347e-09
1.01168e-09
2.14157e-09
6.95551e-10
2.38796e-09
2.53219e-09
3.55439e-10
-1.75849e-12
3.3846e-12
-6.16721e-12
1.38579e-11
-1.28854e-11
2.85946e-11
-2.16402e-11
4.43989e-11
-3.22014e-11
5.89484e-11
-4.43625e-11
7.10085e-11
-5.79447e-11
8.01766e-11
-7.28072e-11
8.64446e-11
-8.88497e-11
8.98959e-11
-1.06006e-10
9.05791e-11
-1.24229e-10
8.84758e-11
-1.43477e-10
8.35008e-11
-1.63699e-10
7.55057e-11
-1.84822e-10
6.42791e-11
-2.06735e-10
4.95437e-11
-2.29278e-10
3.09497e-11
-2.52225e-10
8.06794e-12
-2.75257e-10
-1.96131e-11
-2.97948e-10
-5.26855e-11
-3.19749e-10
-9.18071e-11
-3.39962e-10
-1.37681e-10
-3.57727e-10
-1.91031e-10
-3.71995e-10
-2.52588e-10
-3.81486e-10
-3.2307e-10
-3.84638e-10
-4.0317e-10
-3.79531e-10
-4.93516e-10
-3.63795e-10
-5.94599e-10