/*--------------------------------*- C++ -*----------------------------------*\
| =========                 |                                                 |
| \\      /  F ield         | OpenFOAM: The Open Source CFD Toolbox           |
|  \\    /   O peration     | Version:  2.4.0                                 |
|   \\  /    A nd           | Web:      www.OpenFOAM.org                      |
|    \\/     M anipulation  |                                                 |
\*---------------------------------------------------------------------------*/
FoamFile
{
    version     2.0;
    format      ascii;
    class       volScalarField;
    location    "0.029";
    object      alpha.water;
}
// * * * * * * * * * * * * * * * * * * * * * * * * * * * * * * * * * * * * * //

dimensions      [0 0 0 0 0 0 0];

internalField   nonuniform List<scalar> 
3600
(
1
1.00001
1.00002
1.00002
1.00002
1.00001
1.00001
1.00001
1.00001
1.00001
1
1
1
1
1
1
1
1
1
1
1
1
1
1
1
1
1
1
1
1
1.00004
1.00004
1.00004
1.00003
1.00003
1.00002
1.00002
1.00001
1.00001
1.00001
1.00001
1.00001
1
1
1
1
1
1
1
1
1
1
1
1
1
1
1
1
1
1
1.00003
1.00003
1.00003
1.00003
1.00002
1.00002
1.00001
1.00001
1.00001
1.00001
1.00001
1
1
1
1
1
1
1
1
1
1
1
1
1
1
1
1
1
1
1
1.00003
1.00003
1.00002
1.00002
1.00002
1.00001
1.00001
1.00001
1.00001
1.00001
1
1
1
1
1
1
1
1
1
1
1
1
1
1
1
1
1
1
1
1
1.00003
1.00002
1.00002
1.00002
1.00001
1.00001
1.00001
1.00001
1.00001
1
1
1
1
1
1
1
1
1
1
1
1
1
1
1
1
1
1
1
1
1
1.00002
1.00001
1.00001
1.00001
1.00001
1.00001
1.00001
1
1
1
1
1
1
1
1
1
1
1
1
1
1
1
1
1
1
1
1
1
1
1
1.00001
1.00001
1.00001
1
1
1
1
1
1
1
1
1
1
1
1
1
1
1
1
1
1
1
1
1
1
1
1
1
1
1
1
0.999999
0.999998
0.999997
0.999998
0.999999
1
1
1
1
1
1
1
1
1
1
1
1
1
1
1
1
1
1
1
1
1
1
1
1
0.999995
0.999994
0.999994
0.999995
0.999996
0.999997
0.999998
0.999999
1
1
1
1
1
1
1
1
1
1
1
1
1
1
1
1
1
1
1
1
1
1
0.99999
0.999989
0.99999
0.999991
0.999993
0.999995
0.999997
0.999998
0.999999
0.999999
1
1
1
1
1
1
1
1
1
1
1
1
1
1
1
1
1
1
1
1
0.999986
0.999987
0.999985
0.999988
0.99999
0.999994
0.999996
0.999997
0.999998
0.999999
0.999999
1
1
1
1
1
1
1
1
1
1
1
1
1
1
1
1
1
1
1
0.999984
0.999984
0.999984
0.999987
0.999992
0.999994
0.999995
0.999996
0.999997
0.999998
0.999999
0.999999
1
1
1
1
1
1
1
1
1
1
1
1
1
1
1
1
1
1
0.999984
0.999984
0.999988
0.999991
0.999993
0.999993
0.999994
0.999996
0.999996
0.999997
0.999998
0.999999
1
1
1
1
1
1
1
1
1
1
1
1
1
1
1
1
1
1
0.999986
0.999984
0.999992
0.999992
0.999992
0.999992
0.999993
0.999994
0.999996
0.999997
0.999998
0.999999
0.999999
1
1
1
1
1
1
1
1
1
1
1
1
1
1
1
1
1
0.999988
0.999992
0.999992
0.999991
0.999988
0.999989
0.999991
0.999993
0.999994
0.999996
0.999997
0.999999
0.999999
1
1
1
1
1
1
1
1
1
1
1
1
1
1
1
1
1
0.999988
0.999988
0.999978
0.999987
0.999984
0.999987
0.999989
0.999991
0.999992
0.999995
0.999997
0.999998
0.999999
1
1
1
1
1
1
1
1
1
1
1
1
1
1
1
1
1
0.999986
0.999974
0.99997
0.999982
0.999987
0.999987
0.999985
0.999987
0.99999
0.999993
0.999996
0.999998
0.999999
1
1
1
1
1
1
1
1
1
1
1
1
1
1
1
1
1
0.999987
0.999987
0.999979
0.999966
0.999962
0.999967
0.999979
0.999983
0.999985
0.999991
0.999994
0.999997
0.999999
1
1
1
1
1
1
1
1
1
1
1
1
1
1
1
1
1
0.999985
0.999987
0.999987
0.999949
0.999918
0.999919
0.999926
0.999972
0.99998
0.999989
0.999993
0.999996
0.999998
0.999999
1
1
1
1
1
1
1
1
1
1
1
1
1
1
1
1
0.999982
0.999168
0.998453
0.999857
0.999917
0.999917
0.999917
0.999924
0.999978
0.999986
0.999991
0.999995
0.999998
0.999999
1
1
1
1
1
1
1
1
1
1
1
1
1
1
1
1
0.999983
0.999814
0.998621
0.999789
0.999956
0.999927
0.999937
0.999964
0.999981
0.999981
0.999984
0.999995
0.999998
0.999999
1
1
1
1
1
1
1
1
1
1
1
1
1
1
1
1
0.999593
0.999813
0.997654
0.999997
0.999997
0.999992
0.999997
1
0.999996
0.999987
0.999987
0.999993
0.999997
0.999999
0.999999
1
1
1
1
1
1
1
1
1
1
1
1
1
1
1
0.998191
0.990523
0.986115
0.996515
1
1
1
1
1
0.999998
0.999995
0.999993
0.999996
0.999999
0.999999
1
1
1
1
1
1
1
1
1
1
1
1
1
1
1
0.998323
0.994191
0.986115
0.986118
0.998849
1
1
1
1
1
0.999997
0.999993
0.999994
0.999999
0.999999
1
1
1
1
1
1
1
1
1
1
1
1
1
1
1
0.990693
0.999838
0.989531
0.987446
0.998992
1
1
1
1
1
0.999999
0.999998
0.999997
0.999999
0.999999
1
1
1
1
1
1
1
1
1
1
1
1
1
1
1
0.992558
0.999861
0.999836
0.999462
0.999402
0.999922
1
1
1
1
1
1
0.999999
0.999999
1
1
1
1
1
1
1
1
1
1
1
1
1
1
1
1
0.992715
0.998888
0.994634
0.999926
0.999883
0.99996
0.999999
1
1
1
1
1
1
1
1
1
1
1
1
1
1
1
1
1
1
1
1
1
1
1
0.922798
0.998888
0.991479
0.987937
0.997628
0.999999
0.999999
0.999569
1
0.987404
0.862824
0.995064
1
1
1
1
1
1
1
1
1
1
1
1
1
1
1
1
1
1
0.90076
0.989579
0.990666
0.989374
0.998653
1
1
1
0.918099
0.418481
0.142817
0.481983
0.861917
0.983554
1
1
1
1
1
1
1
1
1
1
1
1
1
1
1
1
0.812224
0.578243
0.671136
0.935671
0.982444
0.90663
0.959223
0.853666
0.404093
0.0254472
1.08669e-06
2.92326e-09
0.18196
0.448984
0.922494
0.997885
1
1
1
1
1
1
1
1
1
1
1
1
1
1
1
1
1
1
1
1
1
1
1
1
1
1
1
1
1
1
1
1
1
1
1
1
1
1
1
1
1
1
1
1
1
0.999999
1
1
1
1
1
1
1
1
1
1
1
1
1
1
1
1
1
1
1
1
1
1
1
1
1
1
1
1
1
0.999999
1
1
1
1
1
1
1
1
1
1
1
1
1
1
1
1
1
1
1
1
1
1
1
1
1
1
1
1
1
0.999999
1
1
1
1
1
1
1
1
1
1
1
1
1
1
1
1
1
1
1
1
1
1
1
1
1
1
1
1
1
0.999999
1
1
1
1
1
1
1
1
1
1
1
1
1
1
1
1
1
1
1
1
1
1
1
1
1
1
1
1
1
0.999999
1
1
1
1
1
1
1
1
1
1
1
1
1
1
1
1
1
1
1
1
1
1
1
1
1
1
1
1
1
0.999999
1
1
1
1
1
1
1
1
1
1
1
1
1
1
1
1
1
1
1
1
1
1
1
1
1
1
1
1
1
0.999999
1
1
1
1
1
1
1
1
1
1
1
1
1
1
1
1
1
1
1
1
1
1
1
1
1
1
1
1
1
0.999999
1
1
1
1
1
1
1
1
1
1
1
1
1
1
1
1
1
1
1
1
1
1
1
1
1
1
1
1
1
0.999999
1
1
1
1
1
1
1
1
1
1
1
1
1
1
1
1
1
1
1
1
1
1
1
1
1
1
1
1
1
0.999999
1
1
1
1
1
1
1
1
1
1
1
1
1
1
1
1
1
1
1
1
1
1
1
1
1
1
1
1
1
1
1
1
1
1
1
1
1
1
1
1
1
1
1
1
1
1
1
1
1
1
1
1
1
1
1
1
1
1
1
1
1
1
1
1
1
1
1
1
1
1
1
1
1
1
1
1
1
1
1
1
1
1
1
1
1
1
1
1
1
1
1
1
1
1
1
1
1
1
1
1
1
1
1
1
1
1
1
1
1
1
1
1
1
1
1
1
1
1
1
1
1
1
1
1
1
1
1
1
1
1
1
1
1
1
1
1
1
1
1
1
1
1
1
1
1
1
1
1
1
1
1
1
1
1
1
1
1
1
1
1
1
1
1
1
1
1
1
1
1
1
1
1
1
1
1
1
1
1
1
1
1
1
1
1
1
1
1
1
1
1
1
1
1
1
1
1
1
1
1
1
1
1
1
1
1
1
1
1
1
1
1
1
1
1
1
1
1
1
1
1
1
1
1
1
1
1
1
1
1
1
1
1
1
1
1
1
1
1
1
1
1
1
1
1
1
1
1
1
1
1
1
1
1
1
1
1
1
1
1
1
1
1
1
1
1
1
1
1
1
1
1
1
1
1
1
1
1
1
1
1
1
1
1
1
1
1
1
1
1
1
1
1
1
1
1
1
1
1
1
1
1
1
1
1
1
1
1
1
1
1
1
1
1
1
1
1
1
1
1
1
1
1
1
1
1
1
1
1
1
1
1
1
1
1
1
1
1
1
1
1
1
1
1
1
1
1
1
1
1
1
1
1
1
1
1
1
1
1
1
1
1
1
1
1
1
1
1
1
1
1
1
1
1
1
1
1
1
1
1
1
1
1
1
1
1
1
1
1
1
1
1
1
1
1
1
1
1
1
1
1
1
1
1
1
1
1
1
1
1
1
1
1
1
1
1
1
1
1
1
1
1
1
1
1
1
1
1
1
1
1
1
1
1
1
1
1
1
1
1
1
1
1
1
1
1
1
1
1
1
1
1
1
1
1
1
1
1
1
1
1
1
1
1
1
1
1
1
1
1
1
1
1
1
1
1
1
1
1
1
1
1
1
1
1
1
1
1
1
1
1
1
1
1
1
1
1
1
1
1
1
1
1
1
1
1
1
1
1
1
1
1
1
1
1
1
1
1
1
1
1
1
1
1
1
1
1
1
1
1
1
1
1
1
1
1
1
1
1
1
1
1
1
1
1
1
1
1
1
1
1
1
1
1
1
1
1
1
1
1
1
1
1
1
1
1
1
1
1
1
1
1
1
1
1
1
1
1
1
1
1
1
1
1
1
1
1
1
1
1
1
1
1
0.999999
0.999999
0.999994
1
0.999989
1
0.588592
0.193479
0.150977
0.181183
0.289491
0.0180831
0.064301
0.0452205
8.89899e-06
1.37361e-05
2.76707e-05
2.65688e-09
2.92624e-09
8.69273e-08
0.279442
0.407264
0.228887
0.071218
0.0300895
0.0186401
0.0141976
0.00982763
0.0067545
0.00438007
0.00279986
0.00168197
0.000983968
0.000538783
0.00027759
0.000146509
0.0991838
0.0294476
9.69383e-05
-3.62567e-06
1.56221e-08
1.0621e-07
8.55749e-08
-4.39679e-07
8.86719e-06
1.84485e-05
1.8712e-05
2.65556e-09
2.01759e-05
4.37736e-06
1.04515e-09
1.69795e-09
1.71244e-08
2.13014e-09
1.17925e-10
1.0284e-09
6.02708e-10
5.24793e-10
3.197e-10
8.90753e-11
2.04962e-11
5.09339e-12
1.5261e-12
5.66095e-13
3.38331e-13
2.68701e-13
0.160984
0.0593741
-8.99075e-06
-1.32403e-07
1.70273e-08
4.75068e-05
7.72237e-06
8.6374e-10
1.07565e-06
8.35063e-07
1.23676e-06
8.71272e-09
1.81763e-10
1.81302e-10
1.03471e-09
6.27912e-10
2.10225e-09
1.53029e-10
2.87359e-11
1.84519e-09
6.46351e-10
5.52552e-10
4.91823e-10
1.43384e-10
3.14338e-11
6.89808e-12
1.15206e-12
1.79653e-13
2.2479e-14
3.38979e-15
0.102459
-6.96217e-07
3.09215e-06
1.57022e-10
2.23713e-08
1.10434e-07
7.83424e-06
1.21722e-09
5.54219e-10
5.34057e-10
5.54007e-10
6.34166e-10
4.20615e-10
1.81301e-10
2.17211e-10
6.14208e-10
2.09799e-09
1.48111e-10
2.32901e-11
5.89846e-12
4.34938e-12
1.21882e-12
1.84755e-12
1.59263e-13
4.44053e-14
3.18966e-15
6.02167e-16
2.75355e-17
4.06825e-18
1.77358e-19
0.0895755
-5.60814e-07
7.5735e-09
5.77679e-10
5.93135e-07
1.43746e-06
1.23378e-06
4.64093e-10
6.74366e-09
5.8231e-10
1.63975e-09
3.02197e-10
4.06522e-10
1.54045e-10
1.72147e-10
1.82921e-10
1.43555e-10
3.6957e-12
8.15282e-13
5.08714e-14
2.31048e-14
3.71753e-15
2.90193e-15
1.0918e-16
3.25311e-17
8.30804e-19
1.90333e-19
2.66933e-21
4.76959e-22
7.43882e-24
0.0965728
-1.17689e-07
3.17213e-10
2.00558e-07
1.4756e-06
1.61718e-06
8.07472e-07
4.61192e-10
6.99875e-10
3.8599e-10
4.15316e-10
1.10807e-10
1.2359e-10
1.93532e-11
1.11672e-11
4.06386e-12
4.67769e-12
1.94596e-14
1.3203e-14
1.46669e-16
1.01942e-16
5.87001e-18
4.07118e-18
6.67442e-20
2.03434e-20
2.05353e-22
4.70078e-23
2.46344e-25
4.56752e-26
2.86709e-28
0.0985727
-6.40355e-07
4.16402e-10
2.90076e-09
1.24038e-06
1.61684e-06
1.61623e-06
4.79004e-07
4.08624e-10
5.3748e-10
4.70241e-11
4.85052e-12
1.37262e-11
8.37952e-13
4.3137e-13
5.55225e-14
7.8908e-14
1.52126e-16
1.23238e-16
5.24107e-19
3.10344e-19
8.61323e-21
3.91792e-21
3.52771e-23
9.91639e-24
4.49572e-26
9.84962e-27
2.09558e-29
3.89921e-30
1.04941e-32
0.100229
0.00246905
-3.5513e-07
3.10082e-09
2.50286e-07
8.66479e-07
1.61527e-06
5.72299e-07
4.40817e-10
3.24345e-10
3.18779e-11
3.51804e-13
9.27493e-14
1.41808e-14
1.17681e-14
3.62952e-16
7.16773e-16
5.63936e-19
6.66166e-19
1.34023e-21
7.87531e-22
1.022e-23
4.47078e-24
1.65016e-26
4.52788e-27
8.94747e-30
1.86085e-30
1.68101e-33
3.09301e-34
3.6777e-37
0.0423436
0.000966475
-1.36017e-09
4.27692e-09
4.32818e-09
2.21967e-08
1.23742e-06
6.17153e-08
1.4263e-09
1.4378e-10
5.78707e-12
1.39708e-13
6.14413e-16
8.78454e-17
1.43715e-16
2.28737e-18
3.51039e-18
2.21858e-21
2.28158e-21
2.93742e-24
1.34391e-24
1.00406e-26
3.52064e-27
6.89903e-30
1.74975e-30
1.63861e-33
3.20651e-34
1.28467e-37
2.32717e-38
1.23993e-41
0.0188484
0.00114346
2.79063e-10
6.73166e-08
2.20444e-07
8.07177e-08
5.71192e-08
5.03492e-09
1.09092e-09
1.61507e-10
1.04872e-11
1.825e-13
7.17989e-16
8.08538e-19
8.30553e-19
9.01999e-21
9.85225e-21
6.60683e-24
4.79883e-24
5.26148e-27
2.40575e-27
8.34966e-30
3.03479e-30
2.59473e-33
6.39872e-34
2.78356e-37
5.15097e-38
9.4104e-42
1.67996e-42
4.03758e-46
0.022434
0.00261245
3.84598e-10
4.10048e-07
7.37973e-07
1.92864e-07
3.41651e-09
3.93173e-09
1.00747e-09
1.18351e-10
3.895e-12
7.95651e-14
5.5579e-16
1.44398e-18
2.52056e-21
2.02592e-23
1.65247e-23
1.43628e-26
6.40875e-27
7.57334e-30
3.26619e-30
5.9111e-33
1.88489e-33
8.80905e-37
2.04054e-37
4.41101e-41
7.71847e-42
6.63401e-46
1.17053e-46
1.27448e-50
0.0250724
0.00553782
9.49225e-10
6.20813e-07
7.37885e-07
9.07532e-08
3.35773e-09
4.33121e-09
1.19919e-09
1.31701e-10
5.27397e-12
8.83683e-14
5.41566e-16
1.7168e-18
1.14895e-21
7.42448e-26
3.94672e-26
2.27868e-29
1.28917e-29
8.79564e-33
4.72179e-33
3.58811e-36
1.21713e-36
2.70386e-40
6.0968e-41
6.54134e-45
1.08803e-45
4.51106e-50
7.89414e-51
3.90962e-55
0.0250706
0.00586419
2.47788e-09
4.5954e-07
7.28502e-07
1.60809e-09
3.37329e-09
3.83948e-09
1.03067e-09
9.52979e-11
2.85187e-12
4.96635e-14
3.42495e-16
1.74861e-18
2.35663e-21
2.90875e-25
5.35514e-29
2.53546e-32
1.64741e-32
8.11666e-36
4.32991e-36
1.86698e-39
5.85785e-40
7.5114e-44
1.61001e-44
9.10354e-49
1.44223e-49
2.9653e-54
5.16251e-55
1.16856e-59
0.0250639
0.00459234
1.12115e-09
4.3298e-07
9.38117e-07
1.5646e-09
1.64684e-09
2.71482e-09
8.9583e-10
8.41743e-11
2.83128e-12
5.38767e-14
3.16092e-16
1.72761e-18
3.42136e-21
1.09043e-24
4.82343e-29
3.87331e-35
2.05439e-35
5.94061e-39
3.96019e-39
8.3137e-43
2.7601e-43
1.88929e-47
3.92679e-48
1.19162e-52
1.80489e-53
1.8874e-58
3.27683e-59
3.41012e-64
0.024975
0.00287824
-2.48614e-10
5.26893e-07
1.04276e-06
6.38529e-07
1.30476e-09
1.30463e-09
8.48983e-10
7.60163e-11
2.38088e-12
4.34991e-14
2.66567e-16
1.82119e-18
4.57545e-21
3.38815e-24
3.94055e-28
4.52005e-34
1.36997e-38
3.38738e-42
2.33023e-42
3.15999e-46
9.95777e-47
4.30227e-51
8.51957e-52
1.46912e-56
2.13247e-57
1.16469e-62
2.01891e-63
9.72847e-69
0.0257835
0.00334344
-7.71903e-10
4.75187e-07
9.97065e-07
1.41564e-06
8.31735e-08
5.76035e-10
6.43479e-10
6.26068e-11
2.46558e-12
5.59289e-14
3.85093e-16
2.71054e-18
8.72907e-21
7.73645e-24
1.32592e-27
7.73075e-33
1.89371e-40
1.49232e-45
1.25769e-45
1.02412e-49
3.29773e-50
8.87347e-55
1.68219e-55
1.7088e-60
2.38379e-61
6.97554e-67
1.20777e-67
2.71663e-73
0.026717
0.00859062
0.000175355
4.71902e-07
7.23581e-07
1.41547e-06
2.15053e-07
5.3243e-10
4.86287e-10
5.2811e-11
2.21773e-12
4.9207e-14
3.2538e-16
1.97942e-18
7.26675e-21
9.54755e-24
2.52418e-27
8.08678e-32
6.2073e-39
1.90661e-48
4.35295e-49
2.82693e-53
8.53088e-54
1.65949e-58
2.96605e-59
1.87817e-64
2.52374e-65
4.05946e-71
7.01663e-72
7.43407e-78
0.0267103
0.0124924
0.000219039
5.9087e-07
7.22114e-07
1.39653e-06
1.28477e-07
6.17421e-10
5.26485e-10
6.06864e-11
2.95648e-12
7.07711e-14
5.49469e-16
2.38238e-18
1.00215e-20
1.59598e-23
6.26762e-27
3.24342e-31
1.42542e-37
8.7509e-47
1.22896e-52
6.6235e-57
1.89986e-57
2.81603e-62
4.71457e-63
1.95285e-68
2.53298e-69
2.29718e-75
3.95787e-76
1.99502e-82
0.0238755
0.00729304
8.35468e-05
2.21586e-06
1.45669e-06
7.17985e-07
2.77605e-09
1.85935e-09
4.07976e-10
4.23017e-11
2.18137e-12
5.77618e-14
6.17017e-16
3.0944e-18
8.78022e-21
1.58588e-23
7.96728e-27
8.67253e-31
1.81176e-36
4.27351e-45
2.15625e-56
1.31255e-60
3.34962e-61
4.34252e-66
6.72392e-67
1.9237e-72
2.41298e-73
1.26543e-79
2.16816e-80
5.25697e-87
0.00340857
0.000572636
2.43477e-05
9.42048e-06
4.59766e-06
2.16737e-07
1.27288e-09
1.18774e-09
2.3845e-10
2.53536e-11
1.47926e-12
4.46686e-14
6.02646e-16
3.985e-18
9.78551e-21
1.92238e-23
1.12341e-26
1.84801e-30
6.77009e-36
1.50506e-43
2.64516e-60
2.19066e-64
4.8819e-65
6.09465e-70
8.64921e-71
1.798e-76
2.18514e-77
6.79231e-84
1.15379e-84
1.36204e-91
8.8806e-07
4.97691e-06
6.51155e-06
6.58892e-06
3.75976e-06
5.34086e-08
2.31994e-09
8.45712e-10
1.37213e-10
1.39439e-11
7.583e-13
2.09288e-14
2.71488e-16
1.77178e-18
4.04491e-21
6.334e-24
3.30483e-27
6.28264e-31
5.00942e-36
3.20843e-42
1.92071e-64
3.067e-68
5.78415e-69
7.80036e-74
1.00605e-74
1.59639e-80
1.88379e-81
3.55354e-88
5.96424e-89
3.47313e-96
4.95862e-06
7.26751e-06
7.18195e-06
1.87794e-06
5.22606e-07
1.16677e-08
2.22376e-09
6.01292e-10
1.13163e-10
1.13146e-11
5.99682e-13
1.66063e-14
2.28253e-16
1.62701e-18
4.28667e-21
6.39108e-24
3.23851e-27
7.58099e-31
1.23942e-35
2.53978e-41
8.05534e-69
3.59069e-72
5.62047e-73
9.12392e-78
1.06378e-78
1.34894e-84
1.54913e-85
1.81309e-92
2.99656e-93
8.72851e-101
5.11832e-06
1.23989e-05
1.18737e-05
2.92599e-07
7.04446e-09
7.29354e-09
1.05413e-09
8.19259e-10
1.48509e-10
1.34203e-11
6.60692e-13
1.71941e-14
2.22082e-16
1.49658e-18
3.68333e-21
4.83941e-24
1.75786e-27
3.32089e-31
5.13967e-36
1.8279e-41
1.83069e-73
3.5086e-76
4.52866e-77
9.78393e-82
1.02944e-82
1.08704e-88
1.21823e-89
9.02505e-97
1.46416e-97
2.16506e-105
5.1313e-06
1.24273e-05
1.24206e-05
1.02618e-09
6.89728e-09
3.34549e-09
7.52103e-10
1.12765e-09
1.92948e-10
1.71361e-11
7.91304e-13
1.88393e-14
2.1805e-16
1.35985e-18
3.08476e-21
4.03032e-24
1.3564e-27
3.15052e-31
9.25559e-36
9.72775e-41
2.52703e-78
2.86018e-80
3.07717e-81
9.66172e-86
9.19122e-87
8.37011e-93
9.1825e-94
4.38148e-101
6.96018e-102
5.303e-110
4.08482e-06
1.24272e-05
1.24273e-05
9.00638e-10
3.78172e-09
1.49606e-09
7.6368e-10
1.15094e-09
1.86047e-10
1.5696e-11
6.30464e-13
1.30265e-14
1.24546e-16
6.62661e-19
1.2591e-21
1.42196e-24
3.8631e-28
8.09904e-32
2.31065e-36
2.93375e-41
4.10059e-83
1.94997e-84
1.81808e-85
8.83952e-90
7.64732e-91
6.17365e-97
6.6552e-98
2.07409e-105
3.22209e-106
1.28311e-114
2.5805e-06
9.63678e-06
1.03466e-05
8.44765e-10
9.06343e-10
8.64506e-10
7.68634e-10
9.3883e-10
1.16146e-10
8.12579e-12
2.70938e-13
4.73102e-15
3.88087e-17
1.92297e-19
3.67881e-22
4.95642e-25
1.82804e-28
5.01111e-32
1.66794e-36
2.68774e-41
7.93061e-88
1.11978e-88
9.751e-90
7.54515e-94
6.00304e-95
4.37428e-101
4.65484e-102
9.56618e-110
1.4536e-110
3.06492e-119
6.57893e-07
7.48044e-07
1.3104e-06
2.92447e-08
5.41428e-08
1.15425e-10
1.15387e-10
1.2524e-09
1.21275e-10
6.89573e-12
1.88666e-13
2.61995e-15
1.72607e-17
7.47136e-20
1.4315e-22
1.94653e-25
7.76584e-29
2.02104e-32
6.65403e-37
1.13649e-41
9.97034e-93
5.48543e-93
4.94463e-94
6.05531e-98
4.50517e-99
2.98497e-105
3.15107e-106
4.29136e-114
6.39212e-115
7.20801e-124
5.21172e-08
3.74805e-08
3.25919e-08
3.18927e-08
1.67066e-07
2.0575e-06
1.61783e-11
1.35978e-09
1.19047e-10
5.62387e-12
1.2774e-13
1.40823e-15
7.5807e-18
2.43114e-20
3.17387e-23
2.85795e-26
6.31378e-30
1.04966e-33
1.67912e-38
1.6454e-43
8.82197e-98
2.34109e-97
2.46307e-98
4.61054e-102
3.2774e-103
1.96776e-109
2.07191e-110
1.86842e-118
2.74118e-119
1.66125e-128
5.54919e-08
3.98394e-08
3.77227e-08
1.30436e-07
2.98237e-06
5.2002e-06
1.47705e-11
1.86727e-09
1.83115e-10
8.86351e-12
1.88964e-13
1.87911e-15
8.30845e-18
2.07329e-20
2.15775e-23
1.35018e-26
2.48946e-30
2.42859e-34
3.00958e-39
2.24062e-44
5.50019e-103
8.96918e-102
1.23939e-102
3.36301e-106
2.3409e-107
1.25728e-113
1.32783e-114
7.87971e-123
1.14664e-123
3.7326e-133
7.38548e-08
9.05669e-08
3.94237e-08
1.37152e-06
5.20633e-06
5.2057e-06
1.47425e-11
1.37871e-09
1.2843e-10
5.23091e-12
8.11854e-14
4.29164e-16
5.9178e-19
3.61127e-22
5.21612e-26
1.02501e-29
3.88161e-34
2.37816e-38
1.07212e-43
5.33964e-49
2.59712e-108
3.20435e-106
6.4648e-107
2.37159e-110
1.65801e-111
7.81345e-118
8.31176e-119
3.24153e-127
4.67676e-128
8.33005e-138
8.44172e-05
7.00599e-05
4.95778e-05
4.21835e-05
2.94321e-05
2.55736e-05
1.78559e-05
1.54745e-05
1.12805e-05
9.40972e-06
7.38869e-06
5.91031e-06
4.84157e-06
3.7826e-06
3.14437e-06
2.44855e-06
2.08622e-06
1.57703e-06
1.32201e-06
1.0597e-06
8.08302e-07
6.65711e-07
5.31214e-07
4.32064e-07
2.38962e-07
3.65408e-07
1.44351e-13
1.58241e-06
1.70669e-13
8.39802e-06
8.80155e-13
1.40153e-12
9.90579e-11
7.41972e-10
4.16934e-10
3.77094e-10
2.61408e-10
1.58303e-10
8.56408e-11
6.30642e-11
2.67355e-11
2.74292e-11
1.10298e-11
1.23499e-11
5.85805e-12
5.39542e-12
3.0992e-12
1.98051e-12
1.76631e-12
6.92149e-13
8.51668e-13
4.78704e-13
9.61051e-14
3.95819e-13
1.49469e-13
1.32871e-13
1.44351e-13
2.16128e-13
1.70645e-13
1.04339e-19
1.28853e-14
3.25101e-15
4.61022e-15
7.80874e-16
1.04498e-15
2.19211e-16
2.00137e-16
9.40019e-17
3.69866e-17
2.86954e-17
1.15692e-17
8.86668e-18
3.87679e-18
3.16471e-18
1.36338e-18
7.764e-19
7.58789e-19
1.64129e-19
2.92674e-19
1.22681e-19
9.64225e-20
7.16499e-20
2.33978e-20
2.00135e-19
2.06902e-20
2.77409e-20
4.09549e-20
5.77398e-20
4.01313e-20
1.01115e-19
3.40966e-19
5.081e-20
4.97188e-20
9.39036e-21
7.66911e-21
1.67483e-21
1.26823e-21
4.92853e-22
1.80983e-22
1.08947e-22
4.08123e-23
2.34545e-23
9.66998e-24
5.77978e-24
2.15787e-24
1.02832e-24
6.99043e-25
1.81747e-25
1.73783e-25
9.51113e-26
8.21138e-26
1.88372e-26
5.02913e-27
6.37375e-26
2.55598e-27
5.96201e-27
7.33281e-27
9.78771e-27
9.43747e-27
1.72092e-26
7.19338e-24
8.64513e-25
5.82888e-25
1.21737e-25
6.52531e-26
1.40072e-26
8.97803e-27
2.95017e-27
9.96276e-28
4.82578e-28
1.6326e-28
7.58175e-29
2.84686e-29
1.33865e-29
4.41111e-30
1.83137e-30
9.56693e-31
2.68082e-31
1.72727e-31
9.21194e-32
7.43102e-32
9.67006e-33
2.17969e-33
1.24707e-32
6.11154e-34
1.14281e-33
1.29814e-33
1.49475e-33
1.82348e-33
1.94906e-33
1.3719e-28
1.49422e-29
6.96288e-30
1.612e-30
5.86981e-31
1.22792e-31
6.75753e-32
1.9035e-32
5.86644e-33
2.34238e-33
7.07632e-34
2.73912e-34
9.22073e-35
3.51348e-35
1.02582e-35
3.72652e-36
1.5587e-36
4.41169e-37
2.09545e-37
9.98231e-38
7.17932e-38
5.82783e-39
1.15352e-39
2.65991e-39
1.54878e-40
1.84099e-40
1.56475e-40
2.02183e-40
2.93639e-40
1.56486e-40
2.52743e-33
2.57123e-34
8.55347e-35
2.14121e-35
5.60222e-36
1.10485e-36
5.32017e-37
1.28991e-37
3.57504e-38
1.19882e-38
3.19538e-39
1.05206e-39
3.13682e-40
9.9229e-41
2.56578e-41
8.18225e-42
2.82901e-42
7.6566e-43
2.85645e-43
1.15012e-43
7.01637e-44
4.22816e-45
6.45987e-46
3.86924e-46
4.07348e-47
3.71718e-47
3.69175e-47
3.7171e-47
4.01897e-47
9.46379e-48
4.62143e-38
4.41265e-39
1.08302e-39
2.82641e-40
5.58004e-41
1.01627e-41
4.29958e-42
9.01348e-43
2.22971e-43
6.35773e-44
1.4893e-44
4.21684e-45
1.10724e-45
2.9508e-46
6.75279e-47
1.88621e-47
5.48377e-48
1.3742e-48
4.14365e-49
1.38147e-49
6.88972e-50
3.33969e-51
4.07866e-52
1.10589e-52
1.21509e-53
9.10452e-54
1.24797e-53
7.54319e-54
6.41391e-54
4.55514e-55
8.48777e-43
7.54047e-44
1.40736e-44
3.70926e-45
5.73647e-46
9.49082e-47
3.54429e-47
6.43558e-48
1.41111e-48
3.45206e-49
7.08664e-50
1.73734e-50
4.00533e-51
9.0964e-52
1.8401e-52
4.49771e-53
1.11429e-53
2.52673e-54
6.28766e-55
1.72249e-55
7.02565e-56
2.83399e-57
2.64034e-58
3.08077e-59
4.85151e-60
2.66499e-60
4.54332e-60
1.34334e-60
9.07097e-61
1.82781e-62
1.57229e-47
1.2816e-48
1.86762e-49
4.84305e-50
6.02254e-51
8.96649e-52
2.95704e-52
4.65784e-53
9.01706e-54
1.90378e-54
3.42503e-55
7.29965e-56
1.47554e-56
2.87875e-57
5.14422e-58
1.09716e-58
2.33451e-59
4.71223e-60
9.77997e-61
2.19729e-61
7.2209e-62
2.50407e-63
1.91292e-64
1.47213e-65
2.49905e-66
7.14414e-67
1.46372e-66
1.66543e-67
8.16184e-68
6.35456e-70
2.941e-52
2.16044e-53
2.52394e-54
6.29095e-55
6.42152e-56
8.53663e-57
2.48722e-57
3.40325e-58
5.80048e-59
1.06172e-59
1.67437e-60
3.11241e-61
5.511e-62
9.29793e-63
1.46707e-63
2.72558e-64
5.0099e-65
8.91478e-66
1.55976e-66
2.88132e-67
7.69251e-68
2.3628e-69
1.47376e-70
7.23209e-72
1.10599e-72
1.40132e-73
3.55965e-73
1.63257e-74
4.99622e-75
1.97405e-77
5.54524e-57
3.60782e-58
3.45872e-59
8.12376e-60
6.91556e-61
8.16033e-62
2.1003e-62
2.49989e-63
3.74495e-64
5.96292e-65
8.25045e-66
1.33983e-66
2.07828e-67
3.04549e-68
4.24171e-69
6.84997e-70
1.09103e-70
1.69918e-71
2.52143e-72
3.83811e-73
8.28365e-74
2.29672e-75
1.2128e-76
4.34565e-78
6.24249e-79
2.15955e-80
6.36463e-80
2.08207e-81
4.24953e-82
5.6132e-85
1.05118e-61
5.9747e-63
4.78421e-64
1.0436e-64
7.48988e-66
7.81268e-67
1.7763e-67
1.84165e-68
2.42215e-69
3.36413e-70
4.08813e-71
5.80735e-72
7.89262e-73
1.0083e-73
1.23959e-74
1.73795e-75
2.40518e-76
3.26591e-77
4.13508e-78
5.21376e-79
9.17562e-80
2.3452e-81
1.04872e-82
2.66453e-84
3.22198e-85
4.10589e-87
9.82753e-87
2.67493e-88
3.51447e-89
1.48972e-92
1.99715e-66
9.8235e-68
6.65128e-69
1.33471e-69
8.1285e-71
7.47504e-72
1.50123e-72
1.35782e-73
1.56665e-74
1.90228e-75
2.03248e-76
2.5282e-77
3.01219e-78
3.3625e-79
3.64971e-80
4.43819e-81
5.33998e-82
6.30789e-83
6.84632e-84
7.19094e-85
1.03125e-85
2.46782e-87
9.26186e-89
1.73285e-90
1.85618e-91
8.77057e-94
1.46298e-93
3.74155e-95
2.75558e-96
3.74953e-100
3.79334e-71
1.60312e-72
9.26057e-74
1.698e-74
8.81432e-76
7.13225e-77
1.26508e-77
9.998e-79
1.01149e-79
1.07579e-80
1.01171e-81
1.10312e-82
1.153e-83
1.12657e-84
1.07986e-85
1.13952e-86
1.19218e-87
1.22413e-88
1.14215e-89
1.00638e-90
1.17838e-91
2.66943e-93
8.34843e-95
1.19359e-96
1.0902e-97
1.99741e-100
2.22285e-100
5.1851e-102
2.09184e-103
9.07641e-108
7.19491e-76
2.59514e-77
1.28818e-78
2.14653e-79
9.5341e-81
6.77728e-82
1.06143e-82
7.34191e-84
6.5107e-85
6.07526e-86
5.03428e-87
4.81561e-88
4.41985e-89
3.78486e-90
3.20216e-91
2.93638e-92
2.66785e-93
2.38229e-94
1.91523e-95
1.42461e-96
1.36487e-97
2.94494e-99
7.61151e-101
8.85864e-103
6.44079e-104
6.53337e-107
3.99779e-107
7.10042e-109
1.55688e-110
2.14757e-115
1.3612e-80
4.16544e-82
1.78661e-83
2.69346e-84
1.02723e-85
6.40637e-87
8.85576e-88
5.37016e-89
4.17343e-90
3.42147e-91
2.50082e-92
2.10031e-93
1.69446e-94
1.27345e-95
9.4987e-97
7.58255e-98
5.97976e-99
4.64708e-100
3.22468e-101
2.0334e-102
1.60103e-103
3.29055e-105
7.00644e-107
6.91758e-109
3.86122e-110
3.00639e-113
9.84245e-114
9.64308e-116
1.13665e-117
5.08341e-123
2.56401e-85
6.62257e-87
2.46488e-88
3.35006e-89
1.10055e-90
6.01497e-92
7.33549e-93
3.9059e-94
2.66007e-95
1.91845e-96
1.23823e-97
9.13809e-99
6.48506e-100
4.283e-101
2.81309e-102
1.95935e-103
1.33916e-104
9.07026e-106
5.434e-107
2.91991e-108
1.89488e-109
3.70529e-111
6.46118e-113
5.65042e-115
2.36846e-116
1.56727e-119
2.91258e-120
1.3067e-122
8.19641e-125
1.25616e-130
4.80125e-90
1.04198e-91
3.37859e-93
4.12613e-94
1.17102e-95
5.60367e-97
6.02649e-98
2.8219e-99
1.6842e-100
1.0698e-101
6.10422e-103
3.96217e-104
2.47476e-105
1.43772e-106
8.30702e-108
5.06092e-109
2.99297e-110
1.7686e-111
9.14852e-113
4.20653e-114
2.257e-115
4.19047e-117
5.96934e-119
4.73074e-121
1.50347e-122
9.2155e-126
9.43839e-127
1.77248e-129
6.02353e-132
3.48611e-138
8.92376e-95
1.62088e-96
4.59505e-98
5.02727e-99
1.23596e-100
5.17437e-102
4.90629e-103
2.02296e-104
1.05822e-105
5.92677e-107
2.99324e-108
1.71051e-109
9.40731e-111
4.81235e-112
2.44412e-113
1.30335e-114
6.66578e-116
3.44163e-117
1.53635e-118
6.0634e-120
2.69758e-121
4.73751e-123
5.52146e-125
4.01837e-127
9.76162e-129
5.61128e-132
3.31049e-133
2.42859e-136
4.5244e-139
1.17022e-145
1.64245e-99
2.49126e-101
6.18923e-103
6.05107e-104
1.29186e-105
4.72876e-107
3.95269e-108
1.43678e-109
6.58905e-111
3.25745e-112
1.45795e-113
7.3436e-115
3.55835e-116
1.6032e-117
7.15513e-119
3.33904e-120
1.47769e-121
6.6672e-123
2.56726e-124
8.72285e-126
3.2258e-127
5.34018e-129
5.10583e-131
3.44919e-133
6.51047e-135
3.45203e-138
1.19506e-139
3.65608e-143
3.38065e-146
4.803e-153
2.98928e-104
3.78092e-106
8.2448e-108
7.18894e-109
1.33559e-110
4.27271e-112
3.14819e-113
1.00986e-114
4.06174e-116
1.77442e-117
7.04742e-119
3.13244e-120
1.338e-121
5.31201e-123
2.08418e-124
8.48771e-126
3.25798e-127
1.28295e-128
4.26207e-130
1.24862e-131
3.85277e-133
5.98553e-135
4.71133e-137
2.96717e-139
4.36734e-141
2.15763e-144
4.40692e-146
7.05839e-150
2.51897e-153
2.43058e-160
5.37351e-109
5.6626e-111
1.08482e-112
8.42177e-114
1.36414e-115
3.81363e-117
2.47642e-118
7.01617e-120
2.47641e-121
9.57056e-123
3.37761e-124
1.32644e-125
4.99699e-127
1.74962e-128
6.03356e-130
2.13949e-131
7.13493e-133
2.44591e-134
7.02075e-136
1.77204e-137
4.59574e-139
6.65685e-141
4.33225e-143
2.55048e-145
2.93082e-147
1.38384e-150
1.62628e-152
1.8145e-156
2.0048e-160
1.47702e-167
9.52728e-114
8.35865e-116
1.40761e-117
9.71508e-119
1.37431e-120
3.35775e-122
1.921e-123
4.81072e-125
1.49116e-126
5.10401e-128
1.60296e-129
5.56949e-131
1.85158e-132
5.72379e-134
1.73264e-135
5.34204e-137
1.54899e-138
4.60676e-140
1.14549e-141
2.48634e-143
5.46087e-145
7.3222e-147
3.96864e-149
2.18491e-151
1.96113e-153
8.98908e-157
5.93666e-159
5.14234e-163
1.78687e-167
9.653e-175
1.66483e-118
1.21526e-120
1.79908e-122
1.10256e-123
1.36425e-125
2.91335e-127
1.46788e-128
3.25141e-130
8.85863e-132
2.68881e-133
7.52692e-135
2.31721e-136
6.80336e-138
1.85878e-139
4.93081e-141
1.32073e-142
3.32729e-144
8.55397e-146
1.84835e-147
3.44358e-149
6.45572e-151
7.94619e-153
3.6218e-155
1.86141e-157
1.30522e-159
5.85014e-163
2.13968e-165
1.53152e-169
1.74329e-174
5.78199e-182
2.86558e-123
1.73888e-125
2.26214e-127
1.22989e-128
1.33298e-130
2.48829e-132
1.10356e-133
2.16345e-135
5.18661e-137
1.39788e-138
3.49425e-140
9.54715e-142
2.47792e-143
5.9877e-145
1.38991e-146
3.22801e-148
7.05902e-150
1.56254e-151
2.94119e-153
4.69839e-155
7.57388e-157
8.496e-159
3.29088e-161
1.56834e-163
8.66385e-166
3.7211e-169
7.98563e-172
4.75074e-176
1.76527e-181
2.14248e-189
4.84909e-128
2.44608e-130
2.79439e-132
1.34659e-133
1.28003e-135
2.08874e-137
8.14889e-139
1.41478e-140
2.98808e-142
7.16202e-144
1.60218e-145
3.8929e-147
8.94483e-149
1.91199e-150
3.87698e-152
7.78463e-154
1.47594e-155
2.80294e-157
4.60306e-159
6.29812e-161
8.79795e-163
8.94494e-165
2.97305e-167
1.3041e-169
5.71288e-172
2.2855e-175
3.01463e-178
1.41803e-182
1.66809e-188
3.45481e-197
8.04794e-133
3.38034e-135
3.38846e-137
1.44572e-138
1.20657e-140
1.72087e-142
5.9009e-144
9.07799e-146
1.69148e-147
3.61209e-149
7.25084e-151
1.5709e-152
3.2007e-154
6.05285e-156
1.07047e-157
1.85099e-159
3.03449e-161
4.92653e-163
7.06677e-165
8.28429e-167
1.0096e-168
9.28009e-171
2.67372e-173
1.07016e-175
3.75891e-178
1.36326e-181
1.17375e-184
4.07132e-189
1.46828e-195
1.6442e-204
1.30792e-137
4.58533e-140
4.0311e-142
1.52081e-143
1.1153e-145
1.38995e-147
4.18514e-149
5.7082e-151
9.39735e-153
1.79155e-154
3.23662e-156
6.26977e-158
1.13449e-159
1.8972e-161
2.91938e-163
4.33068e-165
6.11969e-167
8.46444e-169
1.06127e-170
1.06721e-172
1.14212e-174
9.47319e-177
2.38342e-179
8.66089e-182
2.43873e-184
7.85461e-188
4.60189e-191
1.12925e-195
1.20228e-202
6.95543e-212
2.09575e-142
6.09948e-145
4.70051e-147
1.56539e-148
1.00917e-150
1.09827e-152
2.90021e-154
3.50935e-156
5.11595e-158
8.73613e-160
1.42703e-161
2.48277e-163
4.00066e-165
5.91595e-167
7.88972e-169
9.97422e-171
1.2075e-172
1.41535e-174
1.55302e-176
1.34399e-178
1.27352e-180
9.56903e-183
2.12097e-185
6.97744e-188
1.57486e-190
4.41914e-194
1.75406e-197
2.80384e-202
9.41617e-210
2.19991e-219
)
;

boundaryField
{
    symmetryAxis
    {
        type            symmetryPlane;
    }
    rightWall
    {
        type            zeroGradient;
    }
    lowerWall
    {
        type            zeroGradient;
    }
    atmosphere
    {
        type            inletOutlet;
        inletValue      uniform 0;
        value           nonuniform List<scalar> 
90
(
7.38548e-08
9.05669e-08
3.94237e-08
1.37152e-06
5.20633e-06
5.2057e-06
1.47425e-11
0
0
0
0
0
0
0
0
0
0
0
0
0
0
0
0
0
0
0
0
0
0
0
0
0
0
0
0
0
0
0
0
0
0
0
0
0
0
0
0
0
0
0
0
0
0
0
0
0
0
0
0
0
8.39802e-06
1.04339e-19
0
0
0
0
0
0
0
0
0
0
0
0
0
0
0
0
0
0
0
0
0
0
0
0
0
0
0
0
)
;
    }
    frontAndBack
    {
        type            empty;
    }
    frontAndBack_pos
    {
        type            wedge;
    }
    frontAndBack_neg
    {
        type            wedge;
    }
}


// ************************************************************************* //
