/*--------------------------------*- C++ -*----------------------------------*\
| =========                 |                                                 |
| \\      /  F ield         | OpenFOAM: The Open Source CFD Toolbox           |
|  \\    /   O peration     | Version:  2.4.0                                 |
|   \\  /    A nd           | Web:      www.OpenFOAM.org                      |
|    \\/     M anipulation  |                                                 |
\*---------------------------------------------------------------------------*/
FoamFile
{
    version     2.0;
    format      ascii;
    class       volScalarField;
    location    "0.029";
    object      p;
}
// * * * * * * * * * * * * * * * * * * * * * * * * * * * * * * * * * * * * * //

dimensions      [1 -1 -2 0 0 0 0];

internalField   nonuniform List<scalar> 
3600
(
95.2853
95.2799
95.279
95.2804
95.2834
95.287
95.2978
95.3045
95.3348
95.3505
95.4194
95.459
95.5871
95.6606
95.8427
95.9169
96.0804
96.083
96.1796
96.1355
96.1726
96.1273
96.1356
96.105
96.103
96.0859
96.0844
96.0738
96.0744
96.0692
92.0224
92.0224
92.0218
92.0223
92.0245
92.0272
92.0374
92.0427
92.0725
92.0868
92.1556
92.1946
92.3237
92.398
92.5824
92.6578
92.8224
92.8242
92.9207
92.876
92.913
92.8674
92.8758
92.8451
92.8432
92.826
92.8245
92.8139
92.8145
92.8093
88.7583
88.7589
88.7592
88.7597
88.762
88.7634
88.7733
88.7764
88.8058
88.8176
88.8869
88.9249
89.0568
89.1329
89.3223
89.3997
89.5664
89.5669
89.6628
89.6171
89.6537
89.6076
89.616
89.5851
89.5833
89.5661
89.5646
89.554
89.5546
89.5494
85.4985
85.4975
85.4973
85.4971
85.4989
85.4981
85.5072
85.5068
85.5354
85.5433
85.6133
85.6499
85.7863
85.8651
86.0624
86.1429
86.3125
86.3112
86.4059
86.3588
86.3945
86.348
86.3562
86.3252
86.3234
86.3062
86.3047
86.2942
86.2948
86.2896
82.2371
82.2361
82.2354
82.234
82.2349
82.2311
82.2389
82.2336
82.2609
82.2636
82.3345
82.3692
82.5117
82.5945
82.8029
82.8873
83.061
83.0571
83.15
83.1009
83.1354
83.0885
83.0963
83.0653
83.0634
83.0462
83.0448
83.0343
83.0348
83.0297
78.9762
78.975
78.9738
78.9708
78.9705
78.9627
78.9686
78.9569
78.9822
78.978
79.0498
79.0823
79.2328
79.3208
79.5439
79.6334
79.8121
79.8046
79.8952
79.8436
79.8765
79.829
79.8364
79.8054
79.8033
79.7863
79.7848
79.7744
79.7749
79.7698
75.7168
75.7154
75.7136
75.7083
75.7064
75.6934
75.6965
75.6767
75.6991
75.6862
75.7586
75.7886
75.9489
76.044
76.2855
76.3813
76.566
76.5539
76.6414
76.5868
76.6178
76.5696
76.5764
76.5455
76.5433
76.5264
76.5248
76.5145
76.515
76.51
72.4601
72.4582
72.4557
72.4474
72.4433
72.424
72.4232
72.3933
72.4112
72.3874
72.4599
72.4871
72.6593
72.7635
73.028
73.1312
73.3231
73.305
73.3885
73.3304
73.3591
73.3103
73.3164
73.2855
73.2832
73.2664
73.2647
73.2546
73.255
73.2501
69.2065
69.205
69.2015
69.1894
69.1824
69.1552
69.1491
69.1068
69.1183
69.081
69.1526
69.1768
69.363
69.4789
69.7717
69.8836
70.0841
70.0581
70.1366
70.0744
70.1006
70.051
70.0563
70.0256
70.023
70.0064
70.0046
69.9947
69.995
69.9902
65.9594
65.957
65.9522
65.9357
65.9251
65.8886
65.8752
65.8179
65.8201
65.7662
65.8351
65.8564
66.0589
66.1898
66.5172
66.6404
66.8484
66.8133
66.8857
66.8189
66.8421
66.7918
66.7963
66.7656
66.7628
66.7464
66.7446
66.7348
66.7351
66.7304
62.7202
62.7167
62.7108
62.6893
62.6733
62.6263
62.6024
62.5272
62.516
62.4417
62.5054
62.5242
62.7455
62.8955
63.2649
63.402
63.6167
63.5706
63.6355
63.5636
63.5836
63.5326
63.5361
63.5056
63.5026
63.4864
63.4844
63.4749
63.4751
63.4705
59.4925
59.4871
59.4791
59.449
59.4288
59.3654
59.3325
59.2351
59.2056
59.1061
59.161
59.178
59.421
59.5951
60.0158
60.1694
60.3897
60.3302
60.3861
60.3085
60.3251
60.2733
60.2759
60.2456
60.2423
60.2264
60.2243
60.215
60.2151
60.2106
56.2641
56.2593
56.251
56.2241
56.1918
56.1261
56.0661
55.9475
55.8882
55.7582
55.7985
55.8155
56.0833
56.2877
56.771
56.944
57.1683
57.0923
57.1373
57.0537
57.0666
57.0141
57.0156
56.9856
56.982
56.9664
56.9642
56.9551
56.9551
56.9508
53.0853
53.0751
53.0622
53.0091
52.9795
52.8738
52.8124
52.6499
52.5643
52.3937
52.4138
52.433
52.7294
52.9718
53.532
53.7272
53.9531
53.8568
53.8889
53.7988
53.8079
53.7547
53.7553
53.7255
53.7216
53.7063
53.7039
53.6951
53.6951
53.6909
49.8612
49.8496
49.8554
49.8266
49.7684
49.6856
49.556
49.3844
49.2301
49.0149
48.9998
49.0277
49.3562
49.6459
50.301
50.5211
50.7451
50.6238
50.6408
50.5438
50.549
50.4953
50.4948
50.4654
50.4612
50.4462
50.4437
50.4352
50.435
50.431
46.7548
46.7477
46.7363
46.6529
46.613
46.4545
46.346
46.0848
45.895
45.6055
45.5517
45.5922
45.9595
46.3079
47.0811
47.3278
47.5455
47.3932
47.3926
47.2887
47.2899
47.2358
47.2344
47.2052
47.2008
47.1861
47.1835
47.1753
47.175
47.1712
43.5284
43.4475
43.5692
43.5328
43.4611
43.3506
43.1076
42.8652
42.5347
42.1832
42.0524
42.1264
42.5346
42.9548
43.872
44.1536
44.3552
44.1649
44.1439
44.033
44.0304
43.9762
43.9737
43.945
43.9403
43.926
43.9232
43.9153
43.9149
43.9113
40.3957
40.4456
40.5722
40.4508
40.3852
40.1883
39.9866
39.5893
39.1933
38.7014
38.4963
38.6097
39.0758
39.5829
40.6773
41.0021
41.1756
40.9385
40.8944
40.7767
40.7705
40.7164
40.713
40.6847
40.6798
40.6658
40.663
40.6554
40.6548
40.6514
36.8822
36.8169
37.3718
37.4368
37.396
37.1747
36.8114
36.4537
35.7965
35.2102
34.8489
35.0604
35.5777
36.1885
37.5039
37.8807
38.0082
37.7134
37.6435
37.5196
37.5103
37.4566
37.4523
37.4244
37.4193
37.4057
37.4027
37.3954
37.3948
37.3916
32.9802
32.1831
35.233
34.5699
34.4566
34.1972
33.8363
33.2596
32.4615
31.6045
31.0726
31.4111
32.0322
32.7629
34.3542
34.7928
34.8526
34.4884
34.3902
34.2613
34.2494
34.1965
34.1913
34.164
34.1587
34.1454
34.1424
34.1354
34.1347
34.1317
29.5384
28.9015
30.6963
31.7995
31.8776
31.1648
30.8242
30.2394
29.0605
28.0329
27.1717
27.8174
28.4395
29.3027
31.2409
31.7547
31.7163
31.269
31.1338
31.0016
30.988
30.9363
30.9303
30.9036
30.898
30.8852
30.882
30.8754
30.8746
30.8718
22.7502
24.5096
29.8085
29.1499
28.9425
28.5111
28.0026
27.2333
25.6842
24.1479
22.9064
23.9323
24.7796
25.7872
28.1656
28.7705
28.5804
28.0393
27.8727
27.7403
27.7261
27.6759
27.6693
27.6431
27.6374
27.625
27.6217
27.6155
27.6145
27.6119
26.0375
26.3125
28.9021
26.8637
26.6792
25.2293
25.5558
24.3917
22.6227
20.5137
18.6001
20.1266
21.0734
22.2116
25.148
25.8682
25.4905
24.8088
24.6061
24.4769
24.4635
24.4153
24.408
24.3826
24.3767
24.3646
24.3613
24.3555
24.3544
24.3521
20.0187
17.4791
22.6521
24.8738
23.4201
23.3027
22.587
21.8655
18.706
15.9167
13.3606
15.9016
17.2995
18.5402
22.19
23.0492
22.3737
21.5587
21.3308
21.2113
21.2002
21.1545
21.1467
21.1219
21.1159
21.1043
21.1009
21.0955
21.0943
21.0922
24.102
21.949
20.381
22.9755
22.4095
19.0255
21.0491
19.9517
16.7204
11.9826
8.27981
11.7178
13.5283
14.7648
19.3183
20.357
19.3608
18.3145
18.0479
17.9435
17.9366
17.8937
17.8854
17.8613
17.8552
17.844
17.8406
17.8355
17.8342
17.8323
10.5096
9.36402
17.3301
17.4875
17.952
17.5455
18.3362
18.9441
12.5241
5.6553
1.1506
6.83567
9.67916
10.8279
16.5429
17.8098
16.2366
15.0061
14.7465
14.6732
14.6722
14.6327
14.6238
14.6005
14.5944
14.5835
14.5802
14.5754
14.5741
14.5724
6.62343
4.39668
13.0487
10.7371
17.7408
13.9574
18.9366
18.0642
11.5023
0.621452
-5.95219
1.9329
6.01184
6.68189
13.9103
15.4355
13.2714
11.7311
11.4426
11.4009
11.408
11.3719
11.3624
11.3398
11.3337
11.3232
11.3198
11.3154
11.314
11.3125
20.7075
11.5694
0.825541
12.1621
16.9109
11.44
18.0885
21.3724
8.75603
-9.60503
-16.4645
-4.30948
2.28904
2.37649
11.365
13.3403
10.1854
8.29068
8.09001
8.12559
8.14334
8.11075
8.1004
8.07867
8.07265
8.06258
8.05929
8.05536
8.05383
8.05263
5.09066
-12.7253
-20.7019
6.27738
15.1651
5.83172
18.6187
22.5379
10.2462
-5.09154
-5.69713
-3.64983
-0.820388
-2.10218
8.84622
11.4171
7.21886
4.97007
4.77379
4.8509
4.88015
4.85051
4.83937
4.81829
4.81213
4.80236
4.79902
4.79541
4.79375
4.79276
-68.5178
19.3581
-32.9214
10.7166
18.901
-1.53372
19.9761
29.5008
7.12686
-0.418691
-0.0775384
0.0869232
-1.3825
-3.29322
6.79545
10.1522
4.19245
1.25932
1.31081
1.56626
1.61658
1.58923
1.57649
1.55637
1.55065
1.54131
1.53827
1.53514
1.53349
1.53279
96.0706
96.0687
96.0695
96.0686
96.0688
96.0685
96.0685
96.0684
96.0683
96.0683
96.0681
96.0681
96.0681
96.0681
96.068
96.068
96.068
96.068
96.068
96.0679
96.0679
96.0679
96.0679
96.0679
96.0679
96.0679
96.0679
96.0679
96.0679
96.0679
92.8107
92.8088
92.8096
92.8087
92.8089
92.8086
92.8086
92.8085
92.8084
92.8084
92.8083
92.8083
92.8082
92.8082
92.8082
92.8081
92.8081
92.8081
92.8081
92.8081
92.8081
92.8081
92.8081
92.8081
92.8081
92.808
92.808
92.808
92.808
92.808
89.5509
89.5489
89.5498
89.5488
89.5491
89.5487
89.5487
89.5486
89.5485
89.5485
89.5484
89.5484
89.5483
89.5483
89.5483
89.5483
89.5483
89.5482
89.5482
89.5482
89.5482
89.5482
89.5482
89.5482
89.5482
89.5482
89.5482
89.5482
89.5482
89.5482
86.291
86.289
86.2899
86.289
86.2892
86.2889
86.2889
86.2888
86.2887
86.2887
86.2886
86.2886
86.2885
86.2885
86.2884
86.2884
86.2884
86.2884
86.2884
86.2884
86.2884
86.2883
86.2884
86.2883
86.2883
86.2883
86.2883
86.2883
86.2883
86.2883
83.0311
83.0292
83.03
83.0291
83.0293
83.029
83.029
83.0289
83.0288
83.0288
83.0287
83.0287
83.0286
83.0286
83.0286
83.0285
83.0285
83.0285
83.0285
83.0285
83.0285
83.0285
83.0285
83.0285
83.0285
83.0285
83.0285
83.0284
83.0284
83.0284
79.7712
79.7693
79.7701
79.7692
79.7694
79.7691
79.7691
79.769
79.7689
79.7689
79.7688
79.7688
79.7687
79.7687
79.7687
79.7687
79.7687
79.7686
79.7686
79.7686
79.7686
79.7686
79.7686
79.7686
79.7686
79.7686
79.7686
79.7686
79.7686
79.7686
76.5113
76.5095
76.5102
76.5094
76.5096
76.5093
76.5093
76.5092
76.5091
76.5091
76.509
76.509
76.5089
76.5089
76.5089
76.5088
76.5088
76.5088
76.5088
76.5088
76.5088
76.5088
76.5088
76.5088
76.5088
76.5087
76.5087
76.5087
76.5087
76.5087
73.2514
73.2496
73.2503
73.2495
73.2497
73.2494
73.2494
73.2493
73.2492
73.2492
73.2491
73.2491
73.249
73.249
73.249
73.2489
73.2489
73.2489
73.2489
73.2489
73.2489
73.2489
73.2489
73.2489
73.2489
73.2489
73.2489
73.2489
73.2489
73.2489
69.9915
69.9897
69.9904
69.9897
69.9898
69.9896
69.9895
69.9894
69.9893
69.9893
69.9892
69.9892
69.9891
69.9891
69.9891
69.9891
69.9891
69.989
69.989
69.989
69.989
69.989
69.989
69.989
69.989
69.989
69.989
69.989
69.989
69.989
66.7316
66.7299
66.7305
66.7298
66.7299
66.7297
66.7297
66.7296
66.7295
66.7295
66.7294
66.7294
66.7293
66.7293
66.7293
66.7292
66.7292
66.7292
66.7292
66.7292
66.7292
66.7292
66.7292
66.7292
66.7292
66.7292
66.7291
66.7291
66.7291
66.7291
63.4716
63.47
63.4706
63.4699
63.47
63.4698
63.4698
63.4697
63.4696
63.4696
63.4695
63.4695
63.4694
63.4694
63.4694
63.4694
63.4693
63.4693
63.4693
63.4693
63.4693
63.4693
63.4693
63.4693
63.4693
63.4693
63.4693
63.4693
63.4693
63.4693
60.2117
60.2102
60.2107
60.2101
60.2101
60.2099
60.2099
60.2098
60.2097
60.2097
60.2096
60.2096
60.2095
60.2095
60.2095
60.2095
60.2095
60.2094
60.2094
60.2094
60.2094
60.2094
60.2094
60.2094
60.2094
60.2094
60.2094
60.2094
60.2094
60.2094
56.9518
56.9503
56.9508
56.9502
56.9503
56.9501
56.95
56.95
56.9499
56.9499
56.9498
56.9498
56.9497
56.9497
56.9497
56.9496
56.9496
56.9496
56.9496
56.9496
56.9496
56.9496
56.9496
56.9496
56.9496
56.9496
56.9496
56.9496
56.9495
56.9496
53.6918
53.6905
53.6909
53.6903
53.6904
53.6902
53.6901
53.6901
53.69
53.69
53.6899
53.6899
53.6898
53.6898
53.6898
53.6898
53.6898
53.6897
53.6897
53.6897
53.6897
53.6897
53.6897
53.6897
53.6897
53.6897
53.6897
53.6897
53.6897
53.6897
50.4319
50.4306
50.4309
50.4305
50.4305
50.4303
50.4302
50.4302
50.4301
50.4301
50.43
50.43
50.4299
50.4299
50.4299
50.4299
50.4299
50.4298
50.4298
50.4298
50.4298
50.4298
50.4298
50.4298
50.4298
50.4298
50.4298
50.4298
50.4298
50.4298
47.1719
47.1707
47.1711
47.1706
47.1706
47.1705
47.1704
47.1704
47.1703
47.1702
47.1702
47.1702
47.1701
47.1701
47.1701
47.17
47.17
47.17
47.17
47.17
47.17
47.17
47.17
47.17
47.17
47.17
47.17
47.17
47.1699
47.17
43.912
43.9109
43.9111
43.9107
43.9107
43.9106
43.9105
43.9105
43.9104
43.9104
43.9103
43.9103
43.9102
43.9102
43.9102
43.9102
43.9102
43.9101
43.9101
43.9101
43.9101
43.9101
43.9101
43.9101
43.9101
43.9101
43.9101
43.9101
43.9101
43.9101
40.652
40.651
40.6512
40.6508
40.6508
40.6507
40.6506
40.6506
40.6505
40.6505
40.6504
40.6504
40.6503
40.6503
40.6503
40.6503
40.6503
40.6503
40.6503
40.6502
40.6502
40.6502
40.6502
40.6502
40.6502
40.6502
40.6502
40.6502
40.6502
40.6502
37.3921
37.3911
37.3913
37.391
37.391
37.3908
37.3908
37.3907
37.3906
37.3906
37.3906
37.3905
37.3905
37.3905
37.3905
37.3904
37.3904
37.3904
37.3904
37.3904
37.3904
37.3904
37.3904
37.3904
37.3904
37.3904
37.3904
37.3904
37.3903
37.3904
34.1321
34.1312
34.1314
34.1311
34.1311
34.1309
34.1309
34.1308
34.1308
34.1307
34.1307
34.1307
34.1306
34.1306
34.1306
34.1306
34.1306
34.1305
34.1305
34.1305
34.1305
34.1305
34.1305
34.1305
34.1305
34.1305
34.1305
34.1305
34.1305
34.1305
30.8721
30.8713
30.8715
30.8712
30.8711
30.871
30.871
30.8709
30.8709
30.8708
30.8708
30.8708
30.8707
30.8707
30.8707
30.8707
30.8707
30.8707
30.8707
30.8706
30.8706
30.8706
30.8706
30.8706
30.8706
30.8706
30.8706
30.8706
30.8706
30.8706
27.6122
27.6115
27.6116
27.6113
27.6113
27.6112
27.6111
27.6111
27.611
27.611
27.611
27.6109
27.6109
27.6109
27.6109
27.6109
27.6108
27.6108
27.6108
27.6108
27.6108
27.6108
27.6108
27.6108
27.6108
27.6108
27.6108
27.6108
27.6107
27.6108
24.3522
24.3516
24.3516
24.3514
24.3514
24.3513
24.3512
24.3512
24.3511
24.3511
24.3511
24.3511
24.351
24.351
24.351
24.351
24.351
24.3509
24.3509
24.3509
24.3509
24.3509
24.3509
24.3509
24.3509
24.3509
24.3509
24.3509
24.3508
24.3509
21.0922
21.0917
21.0917
21.0915
21.0915
21.0914
21.0913
21.0913
21.0912
21.0912
21.0912
21.0912
21.0911
21.0911
21.0911
21.0911
21.0911
21.0911
21.0911
21.091
21.091
21.091
21.091
21.091
21.091
21.091
21.091
21.091
21.091
21.091
17.8323
17.8318
17.8318
17.8317
17.8316
17.8315
17.8315
17.8315
17.8314
17.8314
17.8313
17.8313
17.8313
17.8313
17.8313
17.8313
17.8312
17.8312
17.8312
17.8312
17.8312
17.8312
17.8312
17.8312
17.8312
17.8312
17.8312
17.8312
17.8311
17.8312
14.5723
14.5719
14.5719
14.5718
14.5717
14.5716
14.5716
14.5716
14.5715
14.5715
14.5715
14.5714
14.5714
14.5714
14.5714
14.5714
14.5714
14.5713
14.5713
14.5713
14.5713
14.5713
14.5713
14.5713
14.5713
14.5713
14.5713
14.5713
14.5712
14.5713
11.3123
11.312
11.3119
11.3119
11.3118
11.3117
11.3117
11.3117
11.3116
11.3116
11.3116
11.3116
11.3115
11.3115
11.3115
11.3115
11.3115
11.3115
11.3115
11.3115
11.3114
11.3114
11.3114
11.3114
11.3114
11.3114
11.3114
11.3114
11.3113
11.3115
8.05234
8.05214
8.05205
8.05199
8.05191
8.05188
8.05183
8.05181
8.05177
8.05175
8.05173
8.05171
8.05169
8.05168
8.05167
8.05165
8.05165
8.05164
8.05163
8.05162
8.05162
8.05161
8.05161
8.0516
8.05161
8.05159
8.05157
8.05159
8.05148
8.05166
4.79238
4.79225
4.79213
4.79209
4.79201
4.79199
4.79193
4.79192
4.79188
4.79186
4.79184
4.79182
4.79181
4.79179
4.79178
4.79177
4.79176
4.79175
4.79175
4.79174
4.79173
4.79173
4.79173
4.79172
4.79172
4.79171
4.79169
4.7917
4.79156
4.79175
1.53234
1.5323
1.53216
1.53215
1.53207
1.53207
1.53202
1.53201
1.53198
1.53197
1.53195
1.53193
1.53192
1.53191
1.5319
1.53189
1.53188
1.53187
1.53186
1.53186
1.53185
1.53185
1.53185
1.53184
1.53185
1.53182
1.53182
1.53182
1.5317
1.53195
91.792
9.77393
-15.7214
0.177116
8.03954
0.108939
-0.208013
0.54717
-0.226387
-0.174356
0.0241498
0.0129144
0.19024
0.104584
1.96024
3.39913
0.88746
0.0560461
-0.0150775
-0.044284
-0.0499264
-0.0723039
-0.075587
-0.0890369
-0.0903559
-0.0965779
-0.0976634
-0.0995504
-0.100468
-0.100805
-0.305189
-0.299148
-0.586604
0.0105319
-0.225923
-0.160543
-0.0491469
0.0453961
0.0488592
-0.0928126
-0.00896972
-0.0333798
-0.0542661
-0.0199861
-0.159181
-0.0894788
-0.121102
-0.100778
-0.103334
-0.109381
-0.10239
-0.11088
-0.104041
-0.109899
-0.106005
-0.108627
-0.107414
-0.107851
-0.107917
-0.107822
28.9313
6.40548
-0.404602
-0.157172
-0.166918
0.0764978
-0.0591939
-0.0348898
-0.0704197
-0.0898893
-0.00728744
-0.0568362
-0.0322317
-0.0516175
-0.290022
-0.104919
-0.129975
-0.111103
-0.108796
-0.116209
-0.108987
-0.117383
-0.11065
-0.116397
-0.112562
-0.115147
-0.113957
-0.114386
-0.114455
-0.114361
38.5334
-0.80393
-0.59812
-0.265573
-0.273778
-0.266887
-0.049822
-0.165915
-0.0790685
-0.0771692
-0.0402266
-0.0708087
-0.0556165
-0.0673252
-0.146284
-0.10035
-0.130747
-0.118536
-0.115964
-0.123192
-0.115419
-0.123984
-0.117195
-0.122944
-0.119129
-0.121689
-0.120513
-0.120927
-0.120998
-0.120902
33.4731
-2.19266
-0.432031
0.00440157
-0.261118
-0.0242765
-0.0472277
-0.0514313
-0.0405272
-0.0601222
-0.0516869
-0.0774352
-0.0787882
-0.0995556
-0.172796
-0.120539
-0.129323
-0.127225
-0.121736
-0.130001
-0.122035
-0.130511
-0.123795
-0.129451
-0.125693
-0.128211
-0.127063
-0.127464
-0.127537
-0.127442
40.0205
-0.470515
-0.298532
-1.76741e-05
-0.192142
-0.137964
-0.0426791
-0.0768781
-0.0643117
-0.0766483
-0.0853674
-0.0939764
-0.0955163
-0.10707
-0.139939
-0.126095
-0.134538
-0.13451
-0.128106
-0.136842
-0.128525
-0.137038
-0.130401
-0.135951
-0.132283
-0.134733
-0.133623
-0.134002
-0.134077
-0.133983
26.2256
-1.79216
-0.55184
-0.395585
-0.0758787
-0.206595
-0.115302
-0.120128
-0.0979613
-0.0884708
-0.0967789
-0.101899
-0.106865
-0.122016
-0.139531
-0.136902
-0.135023
-0.14185
-0.134282
-0.14357
-0.135161
-0.143545
-0.137006
-0.142441
-0.138863
-0.141249
-0.140181
-0.140539
-0.140617
-0.140525
31.969
-0.906024
-0.478738
-0.35491
-0.216596
-0.269699
-0.123334
-0.156483
-0.124482
-0.113381
-0.118287
-0.117363
-0.123155
-0.131866
-0.140741
-0.144124
-0.142412
-0.148912
-0.140592
-0.150238
-0.141739
-0.150022
-0.143664
-0.148916
-0.145466
-0.14776
-0.146744
-0.147075
-0.147157
-0.147066
0.100829
-1.59879
0.188043
-0.692411
0.0085192
-0.308499
-0.0332517
-0.175014
-0.109019
-0.114506
-0.126918
-0.12382
-0.130931
-0.141148
-0.143791
-0.151682
-0.145906
-0.155793
-0.147089
-0.156836
-0.148443
-0.156484
-0.150302
-0.155385
-0.152063
-0.154267
-0.153308
-0.153611
-0.153696
-0.153607
-3.15739
-1.29722
0.206585
-0.49844
0.00817164
-0.254848
-0.0172642
-0.166722
-0.1135
-0.122313
-0.138858
-0.135468
-0.14217
-0.150166
-0.150286
-0.159038
-0.152753
-0.162572
-0.153525
-0.16336
-0.155114
-0.162912
-0.156988
-0.161839
-0.158676
-0.160771
-0.159875
-0.160147
-0.160236
-0.16015
-5.05636
-0.132602
-0.0687006
-0.220997
-0.091483
-0.12861
-0.0895532
-0.117311
-0.134356
-0.127025
-0.150997
-0.146438
-0.151508
-0.159216
-0.156499
-0.166323
-0.159091
-0.16924
-0.160381
-0.169832
-0.161893
-0.169328
-0.16366
-0.168289
-0.165289
-0.167271
-0.166443
-0.166683
-0.166775
-0.166692
-11.2388
0.71692
-0.124882
-0.116686
-0.074651
-0.11142
-0.111794
-0.118569
-0.153382
-0.138511
-0.162902
-0.158517
-0.16092
-0.168208
-0.163774
-0.173498
-0.165566
-0.175808
-0.166954
-0.176238
-0.168652
-0.175713
-0.170366
-0.174728
-0.171909
-0.173768
-0.173011
-0.173219
-0.173314
-0.173234
-11.7375
0.555335
-0.00929526
-0.165254
-0.0443871
-0.133488
-0.137952
-0.136826
-0.175631
-0.155605
-0.17571
-0.172504
-0.171845
-0.177404
-0.17201
-0.18063
-0.172971
-0.182315
-0.174033
-0.182617
-0.175444
-0.182093
-0.177066
-0.181165
-0.178532
-0.180264
-0.17958
-0.179756
-0.179854
-0.179777
-9.1705
-0.195992
0.0914579
-0.285288
-0.0900931
-0.188787
-0.191541
-0.171684
-0.205353
-0.177255
-0.190182
-0.186151
-0.181809
-0.186165
-0.179558
-0.187583
-0.179708
-0.188735
-0.180814
-0.188944
-0.182266
-0.188451
-0.183783
-0.187596
-0.185158
-0.186759
-0.186149
-0.186294
-0.186393
-0.186319
-4.00411
-0.425777
-0.136315
-0.397473
-0.274675
-0.291174
-0.290272
-0.225778
-0.245412
-0.204961
-0.207709
-0.199492
-0.192767
-0.194662
-0.18795
-0.194434
-0.187161
-0.195124
-0.187801
-0.195265
-0.189083
-0.19481
-0.190499
-0.194026
-0.191786
-0.193253
-0.192716
-0.192833
-0.192933
-0.192862
1.24189
-0.22506
-0.271239
-0.49634
-0.455311
-0.424335
-0.398629
-0.300269
-0.280698
-0.229881
-0.222068
-0.210294
-0.201956
-0.202317
-0.195503
-0.201047
-0.1942
-0.201441
-0.194757
-0.201555
-0.195923
-0.201159
-0.197222
-0.200456
-0.198415
-0.199748
-0.199283
-0.199374
-0.199473
-0.199406
3.63401
0.587895
-0.39294
-0.438926
-0.509868
-0.439023
-0.424162
-0.318529
-0.293181
-0.243651
-0.230722
-0.218213
-0.209717
-0.209194
-0.202817
-0.207482
-0.20126
-0.207735
-0.201689
-0.207849
-0.20275
-0.207512
-0.203943
-0.206886
-0.205044
-0.206243
-0.205847
-0.205916
-0.206012
-0.205949
5.59781
1.57304
-0.42698
-0.356378
-0.444461
-0.353551
-0.384341
-0.297992
-0.279889
-0.246265
-0.231863
-0.223111
-0.215586
-0.215194
-0.20964
-0.213701
-0.208213
-0.213986
-0.20861
-0.214134
-0.20958
-0.213866
-0.210664
-0.21332
-0.211673
-0.21274
-0.21241
-0.212459
-0.212552
-0.212492
6.88202
0.8497
-0.493699
-0.309243
-0.338152
-0.255989
-0.2993
-0.262929
-0.252699
-0.238822
-0.229914
-0.22548
-0.219866
-0.22054
-0.21604
-0.219771
-0.215045
-0.220228
-0.215496
-0.22043
-0.2164
-0.220229
-0.217383
-0.219759
-0.218301
-0.219241
-0.218971
-0.219004
-0.219092
-0.219037
0.322033
-0.265398
-0.389589
-0.258688
-0.228939
-0.195297
-0.227191
-0.229329
-0.23076
-0.229496
-0.227035
-0.226551
-0.223684
-0.225335
-0.22218
-0.22572
-0.221797
-0.226463
-0.222359
-0.226736
-0.223212
-0.2266
-0.224097
-0.226203
-0.224927
-0.225743
-0.22553
-0.22555
-0.225632
-0.22558
-0.253125
-0.247393
-0.232352
-0.177289
-0.162876
-0.162932
-0.187681
-0.204005
-0.214827
-0.221685
-0.224629
-0.227562
-0.227333
-0.229973
-0.228187
-0.231623
-0.228484
-0.23271
-0.229196
-0.23306
-0.230013
-0.232984
-0.230808
-0.232654
-0.23155
-0.23225
-0.232087
-0.232096
-0.232171
-0.232125
-0.289537
-0.257594
-0.192614
-0.161644
-0.150297
-0.15437
-0.173184
-0.192541
-0.207027
-0.21771
-0.223957
-0.229439
-0.231287
-0.234779
-0.234248
-0.237535
-0.235158
-0.238986
-0.236022
-0.239405
-0.236806
-0.239382
-0.237513
-0.239112
-0.238171
-0.238763
-0.238643
-0.238643
-0.238712
-0.238669
-0.252087
-0.218939
-0.155408
-0.146758
-0.146022
-0.153023
-0.169561
-0.188853
-0.204124
-0.21704
-0.225159
-0.232446
-0.235714
-0.239935
-0.240368
-0.243584
-0.241838
-0.245303
-0.242839
-0.245775
-0.243589
-0.245793
-0.244213
-0.245578
-0.244789
-0.24528
-0.245196
-0.24519
-0.245251
-0.245214
-0.225037
-0.199446
-0.159957
-0.157255
-0.155668
-0.159953
-0.173425
-0.191371
-0.205852
-0.219711
-0.228385
-0.236824
-0.240883
-0.245579
-0.246679
-0.249801
-0.248564
-0.251673
-0.249659
-0.252171
-0.250366
-0.25222
-0.250907
-0.252052
-0.251403
-0.251802
-0.251747
-0.251738
-0.251791
-0.251758
-0.197706
-0.18463
-0.151286
-0.154436
-0.15325
-0.162316
-0.176093
-0.195618
-0.209234
-0.224801
-0.233433
-0.242593
-0.246806
-0.251768
-0.253239
-0.256208
-0.255361
-0.258102
-0.256488
-0.258594
-0.257137
-0.258663
-0.257596
-0.258535
-0.258013
-0.25833
-0.258297
-0.258286
-0.258331
-0.258303
-0.174059
-0.155856
-0.13873
-0.142908
-0.148343
-0.162749
-0.179859
-0.203507
-0.214178
-0.232576
-0.239494
-0.249715
-0.253587
-0.258521
-0.260105
-0.262815
-0.262249
-0.264589
-0.263332
-0.265043
-0.263902
-0.265119
-0.26428
-0.265025
-0.264619
-0.264862
-0.264845
-0.264833
-0.264871
-0.264848
-0.216666
-0.198356
-0.18334
-0.184339
-0.178706
-0.185504
-0.194986
-0.217023
-0.225668
-0.243378
-0.248112
-0.258614
-0.261297
-0.265817
-0.267275
-0.269611
-0.269232
-0.27113
-0.270192
-0.271516
-0.270664
-0.271588
-0.270958
-0.271522
-0.27122
-0.271399
-0.271391
-0.271381
-0.271411
-0.271393
-0.144964
-0.137101
-0.138438
-0.138986
-0.13626
-0.165091
-0.193197
-0.222915
-0.236339
-0.252468
-0.258181
-0.267238
-0.269624
-0.273463
-0.27477
-0.276555
-0.276314
-0.277717
-0.277071
-0.278011
-0.277423
-0.278069
-0.277632
-0.278025
-0.277819
-0.27794
-0.277938
-0.27793
-0.277951
-0.277938
-0.194875
-0.141079
-0.151556
-0.156382
-0.178898
-0.205879
-0.227264
-0.246839
-0.257686
-0.268596
-0.272674
-0.278041
-0.279261
-0.281795
-0.282489
-0.283619
-0.283478
-0.284338
-0.283964
-0.28452
-0.28418
-0.284558
-0.284303
-0.284533
-0.284413
-0.284483
-0.284483
-0.284478
-0.28449
-0.284483
-0.33498
-0.269318
-0.259303
-0.274264
-0.288177
-0.296094
-0.29198
-0.289976
-0.286329
-0.287233
-0.287286
-0.288692
-0.289195
-0.290023
-0.290334
-0.290724
-0.2907
-0.290978
-0.290867
-0.291041
-0.290935
-0.291053
-0.290972
-0.291044
-0.291006
-0.291027
-0.291028
-0.291026
-0.29103
-0.291027
-0.101076
-0.101079
-0.101159
-0.101152
-0.101194
-0.10119
-0.101215
-0.10122
-0.101236
-0.101247
-0.101259
-0.10127
-0.101281
-0.101291
-0.101299
-0.101308
-0.101314
-0.101321
-0.101327
-0.101332
-0.101337
-0.101342
-0.101346
-0.10135
-0.101354
-0.101357
-0.101362
-0.101363
-0.101389
-0.101384
-0.107893
-0.107846
-0.10786
-0.107828
-0.10783
-0.107812
-0.107813
-0.107809
-0.107812
-0.107816
-0.107822
-0.107829
-0.107835
-0.107842
-0.107848
-0.107855
-0.10786
-0.107865
-0.10787
-0.107875
-0.107879
-0.107883
-0.107886
-0.10789
-0.107893
-0.107897
-0.107901
-0.107905
-0.107908
-0.107913
-0.114432
-0.114386
-0.114399
-0.114368
-0.114369
-0.114352
-0.114352
-0.114349
-0.114352
-0.114357
-0.114362
-0.114369
-0.114376
-0.114382
-0.114389
-0.114395
-0.1144
-0.114406
-0.11441
-0.114415
-0.114419
-0.114423
-0.114426
-0.11443
-0.114433
-0.114437
-0.114442
-0.114447
-0.114455
-0.114468
-0.120973
-0.120928
-0.12094
-0.120909
-0.120911
-0.120893
-0.120894
-0.120891
-0.120893
-0.120898
-0.120903
-0.12091
-0.120917
-0.120923
-0.120929
-0.120935
-0.120941
-0.120946
-0.120951
-0.120955
-0.120959
-0.120963
-0.120967
-0.12097
-0.120974
-0.120977
-0.120981
-0.120985
-0.120988
-0.120994
-0.127512
-0.127468
-0.12748
-0.12745
-0.127451
-0.127434
-0.127435
-0.127432
-0.127434
-0.127439
-0.127444
-0.127451
-0.127457
-0.127464
-0.12747
-0.127476
-0.127481
-0.127487
-0.127491
-0.127496
-0.1275
-0.127503
-0.127507
-0.12751
-0.127514
-0.127518
-0.127521
-0.127526
-0.127529
-0.127538
-0.134053
-0.134009
-0.134021
-0.133991
-0.133992
-0.133975
-0.133976
-0.133973
-0.133975
-0.13398
-0.133985
-0.133992
-0.133998
-0.134005
-0.134011
-0.134016
-0.134022
-0.134027
-0.134032
-0.134036
-0.13404
-0.134044
-0.134047
-0.13405
-0.134054
-0.134057
-0.134061
-0.134065
-0.134067
-0.134072
-0.140592
-0.140551
-0.140562
-0.140533
-0.140534
-0.140517
-0.140518
-0.140515
-0.140517
-0.140522
-0.140527
-0.140533
-0.14054
-0.140546
-0.140552
-0.140558
-0.140563
-0.140568
-0.140573
-0.140577
-0.140581
-0.140584
-0.140588
-0.140591
-0.140594
-0.140598
-0.140601
-0.140606
-0.140607
-0.140614
-0.147132
-0.147092
-0.147102
-0.147074
-0.147075
-0.147059
-0.14706
-0.147057
-0.147059
-0.147063
-0.147069
-0.147075
-0.147081
-0.147087
-0.147093
-0.147099
-0.147104
-0.147109
-0.147113
-0.147117
-0.147121
-0.147125
-0.147128
-0.147131
-0.147134
-0.147138
-0.147141
-0.147145
-0.147146
-0.147151
-0.153672
-0.153633
-0.153643
-0.153615
-0.153617
-0.153601
-0.153602
-0.153599
-0.153601
-0.153605
-0.15361
-0.153616
-0.153622
-0.153628
-0.153634
-0.15364
-0.153645
-0.15365
-0.153654
-0.153658
-0.153662
-0.153665
-0.153668
-0.153672
-0.153675
-0.153678
-0.153681
-0.153685
-0.153686
-0.153691
-0.160213
-0.160175
-0.160185
-0.160158
-0.160159
-0.160144
-0.160144
-0.160141
-0.160144
-0.160148
-0.160153
-0.160159
-0.160164
-0.16017
-0.160176
-0.160181
-0.160186
-0.160191
-0.160195
-0.160199
-0.160203
-0.160206
-0.160209
-0.160212
-0.160215
-0.160218
-0.160221
-0.160225
-0.160226
-0.160231
-0.166753
-0.166716
-0.166726
-0.1667
-0.166701
-0.166686
-0.166687
-0.166684
-0.166686
-0.16669
-0.166695
-0.166701
-0.166706
-0.166712
-0.166717
-0.166723
-0.166727
-0.166732
-0.166736
-0.16674
-0.166743
-0.166747
-0.16675
-0.166753
-0.166755
-0.166759
-0.166761
-0.166765
-0.166766
-0.16677
-0.173293
-0.173258
-0.173267
-0.173242
-0.173243
-0.173229
-0.17323
-0.173227
-0.173229
-0.173233
-0.173237
-0.173243
-0.173248
-0.173254
-0.173259
-0.173264
-0.173269
-0.173273
-0.173277
-0.173281
-0.173284
-0.173287
-0.17329
-0.173293
-0.173296
-0.173299
-0.173301
-0.173304
-0.173306
-0.17331
-0.179834
-0.1798
-0.179809
-0.179785
-0.179786
-0.179772
-0.179773
-0.17977
-0.179772
-0.179776
-0.17978
-0.179786
-0.179791
-0.179796
-0.179801
-0.179806
-0.179811
-0.179815
-0.179819
-0.179822
-0.179825
-0.179828
-0.179831
-0.179834
-0.179837
-0.179839
-0.179842
-0.179845
-0.179847
-0.17985
-0.186374
-0.186342
-0.186351
-0.186327
-0.186329
-0.186315
-0.186316
-0.186313
-0.186315
-0.186319
-0.186323
-0.186328
-0.186333
-0.186338
-0.186343
-0.186348
-0.186352
-0.186356
-0.18636
-0.186363
-0.186366
-0.186369
-0.186372
-0.186374
-0.186377
-0.18638
-0.186382
-0.186385
-0.186386
-0.18639
-0.192914
-0.192884
-0.192892
-0.19287
-0.192871
-0.192858
-0.192859
-0.192857
-0.192859
-0.192862
-0.192866
-0.192871
-0.192876
-0.19288
-0.192885
-0.19289
-0.192894
-0.192897
-0.192901
-0.192904
-0.192907
-0.19291
-0.192912
-0.192915
-0.192917
-0.19292
-0.192922
-0.192925
-0.192926
-0.192929
-0.199455
-0.199427
-0.199435
-0.199413
-0.199415
-0.199402
-0.199403
-0.199401
-0.199403
-0.199406
-0.19941
-0.199414
-0.199419
-0.199423
-0.199428
-0.199432
-0.199436
-0.199439
-0.199443
-0.199446
-0.199449
-0.199451
-0.199454
-0.199456
-0.199458
-0.199461
-0.199463
-0.199465
-0.199467
-0.19947
-0.205996
-0.205969
-0.205976
-0.205956
-0.205958
-0.205946
-0.205947
-0.205945
-0.205946
-0.205949
-0.205953
-0.205957
-0.205961
-0.205966
-0.20597
-0.205974
-0.205978
-0.205981
-0.205984
-0.205987
-0.20599
-0.205992
-0.205994
-0.205997
-0.205999
-0.206001
-0.206003
-0.206005
-0.206007
-0.206009
-0.212536
-0.212511
-0.212518
-0.212499
-0.212501
-0.21249
-0.212491
-0.212489
-0.21249
-0.212493
-0.212496
-0.2125
-0.212504
-0.212508
-0.212512
-0.212516
-0.212519
-0.212523
-0.212526
-0.212528
-0.212531
-0.212533
-0.212535
-0.212537
-0.212539
-0.212541
-0.212543
-0.212545
-0.212547
-0.212549
-0.219077
-0.219054
-0.219061
-0.219043
-0.219044
-0.219034
-0.219035
-0.219033
-0.219035
-0.219037
-0.21904
-0.219044
-0.219048
-0.219052
-0.219055
-0.219059
-0.219062
-0.219065
-0.219068
-0.21907
-0.219072
-0.219075
-0.219077
-0.219078
-0.21908
-0.219082
-0.219084
-0.219086
-0.219087
-0.21909
-0.225618
-0.225597
-0.225603
-0.225587
-0.225588
-0.225579
-0.225579
-0.225577
-0.225579
-0.225581
-0.225584
-0.225588
-0.225591
-0.225594
-0.225598
-0.225601
-0.225604
-0.225607
-0.225609
-0.225611
-0.225614
-0.225616
-0.225617
-0.225619
-0.225621
-0.225623
-0.225624
-0.225626
-0.225627
-0.225629
-0.232159
-0.232139
-0.232145
-0.23213
-0.232131
-0.232123
-0.232124
-0.232122