/*--------------------------------*- C++ -*----------------------------------*\
| =========                 |                                                 |
| \\      /  F ield         | OpenFOAM: The Open Source CFD Toolbox           |
|  \\    /   O peration     | Version:  2.4.0                                 |
|   \\  /    A nd           | Web:      www.OpenFOAM.org                      |
|    \\/     M anipulation  |                                                 |
\*---------------------------------------------------------------------------*/
FoamFile
{
    version     2.0;
    format      ascii;
    class       volScalarField;
    location    "0.15";
    object      alpha.water;
}
// * * * * * * * * * * * * * * * * * * * * * * * * * * * * * * * * * * * * * //

dimensions      [0 0 0 0 0 0 0];

internalField   nonuniform List<scalar> 
57600
(
1
1
1
1
1
1
1
1
1
1
1
1
1
1
1
1
1
1
1
1
1
1
1
1
1
1
1
1
1
1
1
1
1
1
1
1
1
1
1
1
1
1
1
1
1
1
1
1
1
1
1
1
1
1
1
1
1
1
1
1
1
1
1
1
1
1
1
1
1
1
1
1
1
1
1
1
1
1
1
1
1
1
1
1
1
1
1
1
1
1
1
1
1
1
1
1
1
1
1
1
1
1
1
1
1
1
1
1
1
1
1
1
1
1
1
1
1
1
1
1
1
1
1
1
1
1
1
1
1
1
1
1
1
1
1
1
1
1
1
1
1
1
1
1
1
1
1
1
1
1
1
1
1
1
1
1
1
1
1
1
1
1
1
1
1
1
1
1
1
1
1
1
1
1
1
1
1
1
1
1
1
1
1
1
1
1
1
1
1
1
1
1
1
1
1
1
1
1
1
1
1
1
1
1
1
1
1
1
1
1
1
1
1
1
1
1
1
1
1
1
1
1
1
1
1
1
1
1
1
1
1
1
1
1
1
1
1
1
1
1
1
1
1
1
1
1
1
1
1
1
1
1
1
1
1
1
1
1
1
1
1
1
1
1
1
1
1
1
1
1
1
1
1
1
1
1
1
1
1
1
1
1
1
1
1
1
1
1
1
1
1
1
1
1
1
1
1
1
1
1
1
1
1
1
1
1
1
1
1
1
1
1
1
1
1
1
1
1
1
1
1
1
1
1
1
1
1
1
1
1
1
1
1
1
1
1
1
1
1
1
1
1
1
1
1
1
1
1
1
1
1
1
1
1
1
1
1
1
1
1
1
1
1
1
1
1
1
1
1
1
1
1
1
1
1
1
1
1
1
1
1
1
1
1
1
1
1
1
1
1
1
1
1
1
1
1
1
1
1
1
1
1
1
1
1
1
1
1
1
1
1
1
1
1
1
1
1
1
1
1
1
1
1
1
1
1
1
1
1
1
1
1
1
1
1
1
1
1
1
1
1
1
1
1
1
1
1
1
1
0.999785
1
1
1
1
1
1
1
1
1
1
1
1
1
1
1
1
1
1
1
1
1
1
1
1
1
1
1
1
1
1
1
1
1
1
1
1
1
1
0.999998
0.999999
1
1
1
1
1
1
1
1
1
1
1
1
1
1
1
1
1
1
1
1
1
1
1
1
1
1
1
1
1
0.999988
1
1
1
1
1
1
1
1
1
1
1
1
1
1
1
1
1
1
1
1
1
1
1
1
1
1
1
1
1
1
1
1
1
1
1
1
1
1
1
1
1
1
1
1
1
1
1
1
1
1
1
1
1
1
1
1
1
1
1
0.999987
0.999995
1
1
1
1
1
1
1
1
1
1
1
1
1
1
1
1
1
1
1
1
1
1
1
1
1
1
1
1
1
1
1
1
1
1
1
1
1
1
1
1
1
1
1
1
1
1
1
1
1
1
1
1
1
1
1
0.999989
1
0.514044
0.973335
1
1
1
1
1
1
1
1
1
1
1
1
1
1
1
1
1
1
1
1
1
1
1
1
0.99918
1
1
1
9.72248e-05
0.664987
1
0.999998
1
1
0.999227
1
1
1
1
1
1
1
1
1
1
1
1
1
1
1
1
1
1
1
0.999111
1
1
0.70345
3.2031e-08
0.0637017
1
0.999998
1
0.999951
1
1
1
1
1
1
1
1
0.999998
1
0.999993
1
1
1
1
1
1
1
1
0.999991
0.998336
1
0.000129199
6.26073e-06
4.49756e-09
0.00120766
1
1
1
0.999677
1
1
1
1
1
1
1
1
1
1
1
1
1
1
1
1
1
1
1
1
0.999908
0.699352
6.39111e-07
8.51685e-10
1.71375e-09
0.000605358
0.999999
1
1
0.999939
0.999994
0.999981
1
1
1
0.999992
0.999999
0.999999
1
1
1
1
1
1
1
1
1
1
1
0.999989
0.999625
1.24732e-05
1.16865e-09
1.05731e-09
7.58361e-09
0.000268661
1
1
1
0.99999
0.999894
0.999999
1
0.999796
0.999958
1
1
1
1
1
1
1
1
1
1
1
1
1
1
1
0.752866
2.74237e-09
6.75592e-10
7.197e-10
4.46391e-09
0.00039511
1
0.999963
1
1
0.999992
1
0.999998
0.99999
1
1
1
1
0.999923
1
1
0.999998
0.998563
0.772324
0.336474
0.111496
1
1
1
0.999752
7.75458e-06
4.45152e-10
3.46181e-10
1.66283e-08
4.73766e-05
0.000648276
0.904245
0.999999
0.999779
0.999991
1
0.999935
0.999932
0.99992
1
1
1
1
0.99999
0.797026
0.00293583
3.08544e-09
3.90183e-09
4.0377e-09
4.06346e-09
2.96698e-05
1
1
1
0.996315
-1.56696e-08
2.65559e-10
5.14736e-10
2.66715e-05
7.65041e-05
0.000242797
0.622558
0.999999
0.999999
0.999914
0.999997
0.999998
0.999999
1
0.999935
0.492896
0.165999
4.16831e-09
4.41857e-09
5.15145e-09
4.92028e-09
1.5787e-05
5.552e-09
1.98561e-05
7.68888e-06
1.22207e-05
1
1
1
1
1
1
1
1
1
1
1
1
1
1
1
1
1
1
1
1
1
1
1
1
1
1
1
1
1
1
1
1
1
1
1
1
1
1
1
1
1
1
1
1
1
1
1
1
1
1
1
1
1
1
1
1
1
1
1
1
1
1
1
1
1
1
1
1
1
1
1
1
1
1
1
1
1
1
1
1
1
1
1
1
1
1
1
1
1
1
1
1
1
1
1
1
1
1
1
1
1
1
1
1
1
1
1
1
1
1
1
1
1
1
1
1
1
1
1
1
1
1
1
1
1
1
1
1
1
1
1
1
1
1
1
1
1
1
1
1
1
1
1
1
1
1
1
1
1
1
1
1
1
1
1
1
1
1
1
1
1
1
1
1
1
1
1
1
1
1
1
1
1
1
1
1
1
1
1
1
1
1
1
1
1
1
1
1
1
1
1
1
1
1
1
1
1
1
1
1
1
1
1
1
1
1
1
1
1
1
1
1
1
1
1
1
1
1
1
1
1
1
1
1
1
1
1
1
1
1
1
1
1
1
1
1
1
1
1
1
1
1
1
1
1
1
1
1
1
1
1
1
1
1
1
1
1
1
1
1
1
1
1
1
1
1
1
1
1
1
1
1
1
1
1
1
1
1
1
1
1
1
1
1
1
1
1
1
1
1
1
1
1
1
1
1
1
1
1
1
1
1
1
1
1
1
1
1
1
1
1
1
1
1
1
1
1
1
1
1
1
1
1
1
1
1
1
1
1
1
1
1
1
1
1
1
1
1
1
1
1
1
1
1
1
1
1
1
1
1
1
1
1
1
1
1
1
1
1
1
0.999732
0.999236
0.999928
1
1
1
1
1
1
1
1
1
1
1
1
1
1
1
1
1
1
1
1
1
1
1
1
1
1
1
1
0.999991
1
1
1
1
1
1
1
1
1
1
1
1
1
1
1
1
1
1
1
1
1
1
1
1
1
1
1
1
0.999914
1
1
1
1
1
1
1
1
1
1
1
1
1
1
1
1
1
1
1
1
1
1
1
1
1
1
1
1
1
1
1
1
1
1
1
1
1
1
1
1
1
1
1
1
1
1
1
1
1
1
1
1
1
1
1
1
1
1
1
1
1
1
1
0.999998
1
1
1
1
1
1
1
1
1
1
1
1
1
1
1
1
1
1
1
1
1
1
1
1
1
1
1
1
1
1
1
1
1
1
1
1
1
1
1
1
1
1
1
1
1
1
1
1
0.999998
1
1
1
1
1
1
1
1
1
0.974846
1
1
1
1
1
1
1
1
1
1
1
1
1
1
1
1
1
1
1
1
1
1
1
1
1
1
1
1
1
1
1
1
1
1
1
1
1
1
1
0.999998
1
1
1
1
1
1
0.999998
1
0.999999
0.999999
1
1
1
1
1
1
1
1
1
1
1
1
1
1
1
1
1
1
1
0.999997
1
1
1
1
1
1
1
1
1
1
1
1
1
1
1
1
1
1
1
1
1
1
1
1
1
1
1
1
1
0.999998
1
1
1
1
1
1
1
0.0129795
1
1
1
1
1
1
1
1
1
1
1
1
1
0.999996
0.999673
1
1
1
1
1
0.999999
1
1
1
1
1
1
1
1
0.00725234
0.993252
1
1
1
1
1
1
1
1
1
1
1
0.999989
1
1
1
1
1
1
1
1
1
0.999974
1
1
1
1
1
0.795307
4.18235e-07
5.60633e-06
0.995904
1
0.999937
0.999907
1
1
1
1
1
0.999999
1
1
1
0.999998
1
0.999999
0.999997
1
1
1
1
1
1
0.999993
1
1
1
0.370252
1.73924e-08
1.01562e-09
1.04095e-06
1
0.998777
1
1
1
1
1
1
1
1
1
0.999999
1
0.999997
1
0.999993
1
1
1
1
1
0.999997
0.999994
1
0.999999
1
0.0275505
7.09566e-08
8.61539e-10
1.08517e-09
0.0222839
0.999946
1
1
1
1
1
1
1
1
1
0.999999
1
0.999868
0.999994
1
1
1
1
1
0.99995
1
1
0.999898
1
1
0.00141826
3.93186e-08
4.52552e-10
7.12611e-10
9.51945e-10
0.527096
0.999998
1
1
1
0.0180311
9.82684e-08
1.3003e-07
1.59876e-07
0.11589
0.741774
0.99999
0.990285
1
1
1
1
1
1
1
1
1
0.999805
0.999996
1
7.00264e-08
1.07695e-08
5.03562e-10
4.784e-10
5.67871e-10
4.9373e-07
0.999998
0.999999
1
1
5.00047e-05
4.94441e-05
4.7425e-05
4.48882e-05
4.54673e-05
4.41773e-06
6.29849e-08
0.267383
0.999998
1
1
0.999995
0.999994
0.999989
1
1
1
0.999599
0.999999
0.999999
1.07343e-09
1.05163e-09
2.69624e-06
2.74251e-10
4.19805e-10
9.77666e-09
0.9274
1
1
1
8.72533e-06
1.22831e-05
1.12481e-06
1.78371e-08
1.18076e-08
1.19151e-08
2.29828e-07
3.40084e-08
1.99129e-06
0.76697
0.999999
1
1
0.999993
0.999997
0.999992
0.999873
0.9993
1
1
1.18534e-17
1.98208e-05
2.23736e-10
1.30966e-10
1.10988e-10
4.22856e-10
0.0551766
0.999995
1
1
1
1
1
0.0667416
3.5359e-10
6.30863e-11
6.52488e-10
1.26622e-05
1.51579e-06
0.00177777
0.466518
0.999997
0.999989
0.999623
0.999745
0.99999
0.999992
0.997151
3.01776e-05
3.60862e-08
6.93241e-09
4.56561e-09
1.25315e-08
8.36956e-09
7.91156e-09
0.000103772
5.53946e-08
4.98469e-07
1.82284e-08
1.5427e-08
1
1
1
1.95491e-06
2.80257e-10
2.93527e-11
1.1213e-09
6.62161e-05
4.31751e-06
0.000164382
0.824695
0.999987
1
0.999993
0.999752
0.998764
0.999996
0.0417847
2.48753e-06
3.73214e-05
9.92662e-09
4.69605e-09
0.00043498
1.18822e-08
1.60109e-07
9.39291e-09
9.90519e-09
9.81112e-09
2.29119e-06
6.49229e-06
0.999998
0.999866
0.210612
4.03047e-06
2.98415e-10
4.42186e-11
4.09872e-07
4.53777e-05
7.12538e-06
0.000187688
0.185105
1
0.999955
0.999309
0.998722
0.999996
0.759452
1.29362e-06
2.60588e-06
3.95567e-07
8.63731e-08
5.25284e-09
0.000435094
8.56677e-06
4.98011e-07
8.94435e-09
1.00621e-08
8.8987e-09
7.65963e-09
7.69133e-09
1
0.999984
5.15029e-07
4.18928e-10
1.13824e-10
8.10773e-11
1.15194e-09
1.27987e-05
5.41878e-06
0.000167611
0.00310271
1
0.999994
0.999506
0.999994
0.0512555
2.56831e-06
1.5793e-06
8.64847e-05
4.71074e-08
2.61662e-05
6.19704e-09
0.00027741
6.67499e-07
7.81244e-09
9.86944e-09
1.04918e-08
8.26293e-09
8.12437e-09
8.60665e-09
1
0.979749
4.03246e-09
3.16299e-10
1.70346e-11
1.12657e-10
1.32391e-06
7.82345e-05
6.45522e-06
9.42824e-05
5.11202e-05
0.999998
0.999285
0.999965
0.712699
4.43897e-06
3.69925e-06
0.0001024
0.00029936
4.68952e-08
2.87142e-05
5.18924e-09
3.66202e-06
8.89718e-09
8.59395e-09
9.62712e-09
1.58784e-05
1.60172e-05
1.86294e-08
8.12285e-09
0.998149
0.941368
1.4632e-09
1.14684e-10
1.10869e-12
1.03079e-10
8.59655e-08
1.08886e-05
1.2507e-05
7.79252e-05
1.68766e-05
0.999729
1
0.999975
6.62097e-06
3.0048e-05
1.38171e-05
0.00018694
0.000334843
4.54185e-08
1.52124e-06
1.09937e-08
1.59617e-05
6.55514e-09
8.36299e-09
8.70102e-09
3.23972e-05
6.87508e-09
7.63651e-09
1.03624e-08
0.116274
0.483346
1.18288e-10
2.41635e-11
5.21699e-13
9.1803e-11
7.53659e-10
2.46492e-05
1.05696e-05
7.74271e-05
7.2833e-06
0.957183
0.999997
0.182746
4.52847e-07
4.44762e-07
6.15565e-05
0.000140342
0.000387659
5.67536e-06
4.53177e-08
9.3234e-09
3.08632e-06
3.64436e-08
7.59464e-09
7.86497e-09
7.40485e-09
7.19496e-09
7.92392e-09
9.44888e-09
3.34146e-06
0.049885
2.3143e-11
2.75697e-12
2.74966e-13
4.3038e-11
1.00053e-07
6.22164e-05
5.99053e-06
0.000204622
3.27207e-06
0.0722283
0.99997
1.26536e-06
4.43164e-07
4.41092e-07
3.36858e-05
1.04292e-05
6.15573e-05
2.02319e-07
9.43131e-06
6.30272e-05
1.03606e-08
6.05465e-09
6.81433e-09
1.47508e-05
6.41856e-09
7.08209e-09
8.09894e-09
8.92079e-09
5.53067e-09
0.00107011
3.12956e-11
6.44256e-13
1.28983e-13
1.86061e-11
1.52584e-09
1.13371e-05
5.04311e-07
5.36605e-05
2.27703e-06
3.08514e-06
3.69699e-06
0.000865253
0.000121841
4.40912e-07
7.65939e-05
1.94517e-05
1.39746e-07
6.29765e-05
1.70999e-07
6.83867e-07
8.7719e-09
1.08586e-08
5.73335e-08
2.57558e-05
2.98589e-05
1.43381e-06
5.40028e-08
1.02761e-08
2.85565e-12
4.89962e-05
1.03624e-11
1.61656e-13
5.62412e-14
1.22745e-11
7.36096e-10
1.6883e-05
1.54748e-06
0.000922656
3.17025e-06
4.47526e-06
2.16727e-05
2.67562e-06
2.20215e-05
0.000145357
4.43771e-07
3.42857e-05
9.27177e-08
0.000125284
2.03631e-06
1.87951e-07
5.82821e-05
6.54648e-09
6.08462e-09
6.41308e-09
9.22582e-09
5.7417e-09
0.000890104
3.02973e-05
1.45074e-12
1.33553e-07
3.1484e-12
3.28285e-14
2.26169e-14
8.96334e-12
3.8583e-09
5.19868e-07
1.58921e-05
7.8761e-05
2.12249e-08
0.000325813
8.37307e-07
1.55871e-05
0.00038318
0.00039195
4.59515e-07
3.83668e-05
9.31114e-08
1.6719e-07
5.63743e-05
1.79437e-06
9.32679e-06
5.07936e-07
1.43131e-06
5.98484e-09
6.17183e-09
5.61289e-09
0.00778149
3.54602e-08
6.81595e-13
5.79952e-12
7.30541e-13
5.19445e-15
1.04087e-14
1.05728e-11
1.08406e-09
4.79778e-05
7.34477e-09
2.0607e-06
2.95852e-08
3.46611e-05
0.000114985
3.16e-06
5.55572e-05
2.53442e-08
0.000274614
2.33962e-05
7.56787e-07
1.69473e-07
1.68328e-07
0.000234706
2.24855e-07
1.39125e-07
1.41589e-07
1.18285e-06
1.88191e-08
8.75267e-07
5.74588e-09
2.73498e-07
1.69119e-13
1.54223e-14
1.80843e-13
7.1179e-16
4.74466e-15
7.77429e-12
4.35123e-09
1.68084e-05
3.40228e-07
6.27207e-06
5.91081e-07
1.93433e-05
0.000898512
0.000664042
2.56413e-08
2.53338e-08
0.000274405
1.5452e-07
1.17734e-05
6.07728e-07
1.67831e-07
0.00023737
1.16346e-07
1.01406e-07
1.33894e-05
1.28205e-08
4.01226e-09
2.33311e-07
4.68372e-09
3.91045e-09
1.04669e-13
2.3013e-15
3.08103e-14
9.58795e-17
2.80512e-15
2.35635e-12
1.22164e-10
2.90819e-05
1.67626e-09
2.21397e-09
1.82239e-06
0.00601454
2.32283e-05
1.03428e-07
6.67905e-07
2.54157e-08
0.000273606
3.1818e-08
8.20677e-08
2.51727e-07
1.65755e-07
0.000243328
1.59188e-08
3.94964e-08
5.71414e-08
3.82185e-08
0.000532504
7.20165e-08
3.21131e-09
9.11877e-05
9.72476e-14
1.51835e-15
2.91999e-15
1.20235e-17
3.9802e-15
2.83043e-12
2.78839e-10
3.21182e-05
1.19522e-05
1.22948e-08
1.5971e-06
8.92854e-07
0.000435512
1.04204e-07
1.66755e-07
6.26546e-08
5.96274e-05
2.89947e-09
4.64063e-07
3.50811e-05
0.000243957
3.8903e-05
3.24886e-09
2.68098e-09
8.56998e-06
2.74313e-06
3.3547e-05
1.0651e-08
9.45371e-06
0.000249631
9.65837e-14
1.22258e-15
1.875e-16
2.41809e-18
6.74125e-15
4.46859e-12
3.91095e-10
1.70106e-09
1.19224e-05
3.7201e-06
1.18937e-07
0.000679211
7.75961e-05
1.37687e-06
7.83539e-05
2.83291e-06
1.21185e-07
1.8244e-08
2.7403e-09
2.30587e-09
0.000127929
3.78087e-09
2.52391e-09
2.20398e-09
1.81948e-09
1.09871e-06
1.94262e-09
1.02687e-09
3.33685e-05
0.00177464
1.12077e-13
8.17721e-14
8.57137e-18
2.23723e-18
1.16697e-14
7.34083e-12
4.08564e-10
5.52941e-06
2.18217e-09
2.23664e-09
1.33655e-08
1.03805e-06
1.63983e-06
3.51241e-08
1.44707e-09
3.98359e-05
4.16584e-09
2.23915e-09
2.19157e-09
3.39544e-08
2.46416e-09
2.04957e-09
1.76748e-09
1.69962e-09
1.73569e-09
9.7598e-08
3.37171e-08
1.62784e-05
0.00106276
0.00380057
3.34766e-12
3.89438e-09
1.80053e-19
2.78502e-18
1.8943e-14
1.24805e-11
5.43307e-10
5.89254e-08
2.8389e-09
3.1541e-07
1.3272e-08
2.48869e-07
2.48853e-07
8.21192e-08
2.00997e-09
1.38344e-09
8.33013e-08
0.000130116
1.16273e-08
2.26872e-09
3.80826e-09
1.79491e-09
1.51198e-09
1.40024e-09
1.40134e-09
1.39175e-09
1.09461e-09
1.75861e-09
2.8226e-07
1.925e-07
1.88614e-18
5.50974e-13
1.87717e-21
2.69485e-18
2.49633e-14
2.11378e-11
8.56164e-10
1.88337e-07
7.57372e-09
4.49254e-10
8.03751e-10
5.25031e-10
5.03964e-10
6.25511e-10
4.4323e-10
2.74634e-08
1.47463e-09
0.000130103
2.49618e-06
1.99639e-09
1.46348e-09
1.15009e-09
9.828e-10
9.21684e-10
9.32326e-10
9.72181e-10
1.01871e-09
1.11192e-09
1.00197e-09
1.20102e-06
7.45855e-22
1.7363e-16
1.68064e-23
1.78803e-18
2.06996e-14
3.07553e-11
4.49561e-09
3.23234e-06
5.10489e-10
3.84806e-10
1.84648e-05
1.68086e-05
5.94016e-06
2.12901e-05
1.30305e-09
7.40368e-10
3.08052e-08
1.75668e-09
1.94313e-09
1.73333e-09
1.3247e-09
9.94961e-10
7.72107e-10
6.73691e-10
6.89163e-10
7.77811e-10
8.73782e-10
9.14218e-10
8.63504e-10
2.55465e-07
3.37086e-26
1.08743e-20
3.18769e-24
1.12429e-18
1.24905e-14
9.25959e-12
2.34132e-10
6.47514e-06
1.8064e-09
6.18301e-10
1.7004e-06
3.73148e-06
4.33881e-07
1.64706e-05
8.1061e-06
7.28394e-10
6.1961e-10
5.16624e-10
6.09087e-10
7.87723e-10
9.16056e-10
9.03249e-10
7.8662e-10
6.62435e-10
6.14929e-10
7.11332e-10
1.16806e-09
1.42949e-09
1.47601e-09
1.84993e-09
2.75495e-31
1.33855e-26
1.64008e-24
1.0221e-18
1.59359e-14
1.48658e-11
9.62226e-10
1.50215e-09
5.78115e-10
3.50244e-06
1.62053e-09
1.47679e-09
1.74902e-09
1.51295e-09
1.6743e-05
1.6434e-05
1.02344e-09
5.79382e-10
2.50972e-10
1.77604e-10
2.09181e-10
2.89378e-10
3.85964e-10
4.84747e-10
5.31037e-10
5.66883e-10
6.18944e-10
6.08805e-10
2.73123e-08
1.80391e-09
2.9434e-36
1.29459e-32
7.11704e-25
8.68112e-19
2.20445e-14
2.21151e-11
4.64461e-10
2.20591e-06
5.27882e-08
3.70951e-06
1.82305e-09
1.04244e-08
1.99831e-09
1.62985e-09
5.43484e-06
1.65085e-05
7.84399e-10
5.0394e-10
3.40231e-10
3.32923e-10
3.07962e-10
2.63433e-10
2.60801e-10
5.13702e-10
1.09252e-08
6.20344e-10
8.33596e-10
2.70496e-09
3.66844e-09
1.96895e-09
3.06769e-41
7.40927e-37
1.10595e-25
2.49702e-19
1.10352e-14
1.91194e-11
3.75074e-10
1.14424e-05
3.86571e-09
1.35495e-06
1.80043e-09
3.87245e-08
0.000735011
0.000272058
1.1143e-07
8.77129e-10
5.92667e-06
1.69471e-05
1.05785e-05
2.26345e-06
4.0246e-09
3.1935e-10
4.33159e-07
7.05268e-10
1.43445e-06
2.09182e-08
1.51391e-09
1.11106e-09
2.50832e-07
1.96703e-09
2.19852e-46
1.91987e-41
7.72257e-27
2.80592e-20
1.71929e-15
4.6856e-12
3.43112e-10
1.57749e-05
4.1383e-09
1.04141e-05
5.10146e-05
1.26492e-06
3.55405e-09
0.00316556
4.89269e-10
1.14015e-05
0.000231421
3.12295e-06
7.60196e-05
5.80392e-08
1.9218e-06
3.93708e-05
4.66732e-05
5.40574e-06
4.81311e-09
8.75738e-08
1.84022e-09
3.59656e-07
4.60258e-09
2.5003e-06
8.84389e-52
2.64831e-46
3.58232e-28
3.00143e-21
4.22027e-16
2.21276e-12
3.02836e-10
1.4658e-05
1.02612e-08
0.000371111
2.1845e-09
2.42307e-09
2.83832e-06
2.5336e-08
1.60019e-09
0.00013326
2.16602e-08
2.16899e-08
3.16053e-08
9.09147e-08
1.17154e-05
2.81163e-06
3.0263e-08
2.89973e-06
5.033e-05
3.39023e-08
2.8168e-09
2.24216e-09
0.000217072
3.08173e-06
1.58148e-57
1.50832e-51
1.27241e-30
2.21687e-23
7.64116e-18
1.43965e-13
8.8466e-11
2.11268e-08
5.66686e-05
0.000364981
7.58194e-06
2.91201e-07
1.39328e-09
1.1582e-05
1.47718e-09
0.000112287
3.36497e-08
1.57019e-05
1.27847e-07
2.76485e-06
3.94122e-07
4.59517e-09
5.32497e-09
1.8363e-07
1.35571e-06
6.73266e-07
6.4023e-06
1.29837e-05
2.64711e-07
1.52362e-08
1.62002e-63
4.6646e-57
6.87311e-34
4.46066e-26
5.71568e-20
2.97889e-15
8.15026e-12
1.76725e-10
0.00014304
0.000353693
3.68959e-06
1.02819e-09
5.56443e-10
1.07956e-09
1.19234e-09
6.52804e-08
5.96465e-08
1.87146e-06
1.04559e-05
5.6941e-09
8.8417e-09
0.000151189
6.10745e-09
2.71087e-07
1.35265e-07
2.53758e-08
4.05534e-07
0.000485664
3.9239e-06
5.15765e-05
1.79154e-69
1.6522e-62
2.67366e-38
2.16329e-29
4.27666e-22
2.54529e-16
3.98924e-12
4.13022e-10
1.2392e-05
5.18458e-07
7.18078e-05
1.33997e-05
3.92623e-11
1.10607e-10
8.72345e-10
4.79053e-06
0.000549704
2.32129e-05
5.47596e-07
1.66035e-08
9.95654e-06
7.36387e-09
9.36235e-09
2.39261e-05
0.00013259
3.29804e-09
2.01652e-07
3.87949e-06
2.28869e-06
0.000493885
4.67156e-75
1.19084e-67
5.77899e-47
2.96015e-35
1.3478e-25
3.14671e-18
6.70587e-13
1.04969e-10
6.65408e-06
5.11161e-07
8.03204e-05
2.65382e-11
6.05039e-14
3.4178e-14
1.30546e-12
1.13514e-11
1.9879e-11
3.81027e-05
1.73943e-06
2.26811e-07
1.70923e-05
7.01941e-05
0.00012154
1.37229e-08
3.79363e-07
6.5507e-07
3.39802e-06
6.41334e-07
4.01414e-06
6.79146e-09
1.2956e-08
1.46833e-08
8.94312e-08
5.29776e-05
4.90594e-05
9.28609e-09
9.27645e-09
4.28744e-08
6.55214e-09
2.72683e-09
2.43916e-08
0.999857
0.99999
1
0.999999
0.998057
0.99998
0.997223
1
1
-3.33054e-10
4.10431e-06
2.33368e-05
2.36289e-10
1.40136e-11
3.08781e-10
5.2496e-06
1
1
1
4.5843e-07
5.27958e-05
5.49541e-05
7.00513e-07
4.08013e-05
1.01023e-08
9.75652e-09
9.39415e-08
1.60992e-06
2.90769e-09
4.12191e-09
9.89777e-08
0.960143
0.999987
0.999898
0.99913
0.997722
1
0.999937
1
-3.23349e-09
1.93839e-06
8.20558e-09
7.08585e-10
4.91165e-12
2.12643e-10
-2.28873e-07
0.999993
1
1
2.36363e-08
1.72872e-07
1.67023e-05
5.43985e-05
3.19189e-07
9.77793e-08
5.0638e-08
9.21609e-08
2.52212e-06
3.68385e-09
5.92754e-09
4.72176e-08
2.0323e-05
0.999051
0.999079
1
0.999058
0.996933
1
0.950924
8.49616e-08
1.01418e-05
1.90856e-05
8.08223e-10
4.57597e-12
7.50869e-11
2.5796e-10
0.38324
1
1
8.93114e-09
3.2185e-06
3.21034e-06
5.6523e-07
5.25056e-05
1.00964e-07
6.85462e-09
9.68552e-09
1.92532e-08
3.52389e-09
6.46959e-09
6.70382e-06
6.55292e-08
0.0152341
1
1
1
0.999836
0.999996
0.830142
9.00275e-05
5.45882e-05
1.74369e-06
2.66266e-10
5.13409e-12
1.81639e-11
2.66187e-10
1.00614e-05
0.999999
1
8.73183e-09
8.75158e-09
8.9908e-09
2.96631e-06
3.52827e-06
6.97301e-09
6.97932e-09
9.13928e-09
1.44744e-06
3.51601e-09
6.05524e-09
1.53009e-05
1.19176e-07
1.53396e-05
1.51168e-05
0.251194
0.680355
1
0.999813
0.144892
0.000324432
1.97051e-06
7.65164e-06
7.61428e-10
5.77677e-12
1.41121e-12
2.57352e-10
-2.82051e-09
0.990711
0.999872
9.73351e-09
9.94013e-09
9.06031e-09
9.73491e-09
2.87358e-08
2.79218e-05
7.18553e-09
8.51514e-09
1.39251e-08
9.38674e-07
1.07368e-05
4.31317e-08
1.22108e-07
1.33931e-06
7.01677e-05
2.49858e-06
8.75394e-06
0.996377
0.999995
0.00218772
0.000233769
2.34029e-06
4.25106e-06
1.30353e-09
5.75289e-12
1.04792e-13
6.36937e-11
3.37332e-10
0.0260253
0.999999
1.09682e-05
1.21194e-08
6.62258e-08
3.10909e-07
5.61541e-07
5.34452e-08
7.40897e-09
1.00011e-07
2.52321e-08
7.03511e-09
1.07382e-05
8.63267e-09
4.04703e-05
0.000269649
4.62538e-05
2.45715e-06
0.000635648
0.0188859
0.997725
2.34465e-05
0.00158353
2.582e-05
5.91687e-09
2.84945e-10
1.70437e-12
4.46953e-14
8.66146e-12
1.40765e-10
1.33911e-06
0.999921
8.12167e-09
1.07149e-05
8.41929e-09
5.87972e-08
1.04183e-08
1.01101e-07
1.06654e-08
6.45626e-09
4.02659e-05
1.40262e-07
8.82204e-09
6.63242e-09
0.000224727
0.000269932
1.23027e-05
6.48039e-05
6.91108e-05
6.71938e-05
8.46428e-06
2.01712e-05
9.93358e-05
9.73595e-06
2.97815e-06
7.4255e-11
4.84392e-13
2.22745e-14
1.30054e-12
2.85874e-11
-4.91851e-09
0.825037
8.20232e-09
7.53464e-09
1.61931e-08
8.14329e-09
1.0177e-08
0.000125779
0.000483664
4.37149e-08
7.02663e-09
5.74582e-09
5.78968e-07
4.31461e-06
4.34201e-06
1.50228e-06
3.85696e-05
1.69036e-05
4.14805e-07
3.42831e-07
4.27512e-06
4.01324e-06
1.83764e-07
7.80616e-06
5.60581e-09
7.89841e-11
2.06586e-13
9.62518e-15
3.22458e-13
5.40814e-12
1.48832e-10
5.46213e-06
2.34244e-05
3.52296e-08
7.14907e-09
9.74131e-09
1.18134e-08
1.14843e-08
1.30444e-08
1.92363e-08
3.38835e-05
5.59737e-06
2.49483e-06
8.17316e-05
5.41539e-05
9.81765e-07
6.795e-05
0.00119261
3.79299e-07
3.49483e-07
5.60506e-06
3.06835e-06
1.67523e-07
9.95513e-05
4.33599e-06
2.14995e-11
7.46559e-14
3.61444e-15
6.58504e-14
1.31568e-12
4.33621e-07
1.54117e-06
1.78023e-05
7.25654e-09
8.24581e-09
4.46124e-05
0.000123566
2.02675e-07
1.23227e-08
2.37199e-05
2.71894e-05
6.8342e-08
7.56763e-08
0.000209531
1.84489e-07
1.19071e-05
5.58662e-07
0.000655671
6.42277e-07
3.34282e-05
8.86573e-06
3.07053e-06
3.73614e-07
5.50454e-05
1.20126e-08
6.12263e-12
2.5357e-14
1.17274e-15
1.07351e-14
3.16176e-13
7.77637e-12
1.76455e-05
8.82666e-09
7.84528e-09
6.78689e-09
3.00877e-06
0.000123988
6.63574e-08
2.82112e-07
2.73079e-05
0.000720188
2.31001e-08
2.35127e-08
2.4035e-05
1.14106e-05
1.4698e-07
1.61943e-07
1.98334e-06
2.10657e-07
3.63397e-07
0.00023833
3.10505e-06
5.46892e-05
2.00313e-06
1.23683e-07
4.43766e-12
9.85191e-15
3.24476e-16
1.58031e-15
8.27879e-14
1.72276e-09
6.08155e-12
1.11148e-07
2.33049e-08
1.21527e-08
2.39772e-05
3.28009e-05
6.34384e-06
4.21828e-07
1.59481e-06
0.00146673
0.000414143
2.31585e-08
3.87748e-05
6.16798e-07
1.45318e-07
5.50729e-06
4.76764e-07
5.99525e-06
2.59855e-05
0.0035756
1.79058e-06
0.00377812
1.26565e-06
2.67965e-10
4.74417e-12
4.49748e-15
7.5242e-17
2.37153e-16
2.05702e-14
2.65066e-11
2.09916e-05
5.74576e-09
5.41226e-09
7.55949e-07
2.81212e-05
0.000101307
6.50034e-08
3.39261e-07
5.61596e-07
0.000630387
2.33034e-08
3.78338e-06
6.17749e-05
5.74792e-08
3.59026e-06
1.7253e-08
0.000773184
2.18423e-07
3.58711e-05
1.57816e-06
8.7672e-07
0.000676552
5.83599e-05
5.92856e-10
3.7907e-12
2.46579e-15
1.45096e-17
3.36383e-17
4.09894e-15
2.37977e-10
2.92772e-13
5.96362e-09
4.56977e-08
5.0706e-09
8.72935e-08
1.05316e-07
1.06723e-06
2.84952e-07
5.40286e-06
1.04164e-06
2.12314e-08
2.10286e-08
2.45067e-08
1.35879e-05
1.7171e-08
1.73286e-08
1.04666e-05
1.04271e-07
0.000167666
9.13561e-07
3.54125e-05
4.47931e-09
8.86403e-06
6.0958e-10
1.69137e-12
2.11566e-15
2.57442e-18
3.76375e-18
5.9138e-16
1.70079e-11
1.37356e-08
0.00141863
1.79939e-07
5.01697e-09
3.56499e-08
1.54594e-06
1.33602e-06
1.8471e-05
2.41777e-06
1.78792e-06
2.12109e-08
1.37292e-05
1.7387e-05
1.52151e-08
1.30008e-07
8.38227e-05
8.38208e-05
8.40621e-05
0.000114722
1.11367e-05
4.6321e-06
1.80198e-05
1.49427e-09
2.75768e-10
1.28903e-12
2.20062e-15
7.59536e-19
2.78677e-19
5.64026e-17
5.40713e-13
7.71659e-12
0.00490839
1.99719e-07
1.7829e-06
1.92607e-08
1.23756e-06
8.54667e-07
2.01747e-05
1.03953e-07
1.03707e-08
1.0395e-08
2.06358e-07
1.05058e-08
1.04359e-08
2.73421e-05
4.87717e-08
5.08874e-05
3.76891e-06
3.14185e-05
0.000396607
1.84643e-06
1.60735e-09
1.09302e-08
9.80338e-11
1.39572e-12
2.26163e-15
5.76212e-19
1.16423e-20
3.14457e-18
9.0722e-14
4.54057e-12
1.86834e-07
1.72799e-08
6.95873e-08
3.88516e-06
1.86088e-07
8.62809e-08
0.000176729
1.03903e-08
1.03573e-08
1.03773e-08
1.04269e-08
1.24455e-08
1.04761e-08
1.06475e-08
9.25933e-05
8.51678e-06
2.84508e-05
3.16867e-05
0.000100661
1.70525e-06
6.38888e-08
9.84722e-10
1.21697e-10
1.44628e-12
2.22413e-15
5.85859e-19
2.47912e-22
8.65551e-20
4.8018e-15
5.22596e-13
1.09851e-06
1.56874e-07
9.04918e-07
1.79582e-06
3.94237e-06
1.17086e-07
0.000176719
4.44516e-06
1.0367e-08
1.03561e-08
1.03626e-08
1.04065e-08
1.04124e-08
1.04035e-08
1.04178e-08
0.0030274
1.0461e-06
4.67403e-05
0.000668865
1.05423e-05
1.08885e-08
8.81596e-10
2.37905e-10
1.1912e-12
2.08745e-15
6.24353e-19
2.01731e-23
9.38964e-22
3.83358e-17
7.38356e-15
1.46838e-08
1.19225e-06
3.54139e-09
1.81223e-09
3.73545e-07
9.27556e-07
1.25205e-07
8.74676e-07
1.06365e-08
4.98751e-08
1.31598e-08
1.73902e-06
1.09514e-08
9.56004e-08
2.3176e-08
0.00383419
1.04271e-06
5.22026e-05
0.000315736
9.81251e-05
2.33631e-09
2.90962e-08
1.44488e-10
8.78277e-13
2.19928e-15
7.36391e-19
1.95241e-23
2.96225e-24
2.1207e-20
5.2685e-18
1.73258e-09
1.48744e-09
3.62111e-08
5.14405e-11
2.88189e-06
1.93284e-07
2.5233e-05
1.02727e-08
8.95846e-06
1.08095e-07
1.12918e-08
2.0092e-08
1.24739e-08
6.62936e-06
3.16655e-07
2.96021e-07
0.000253987
5.73244e-06
2.26282e-07
0.00236821
2.32982e-09
1.48523e-06
7.48635e-11
9.29627e-13
3.02213e-15
1.0013e-18
2.16964e-23
2.25902e-27
6.10972e-25
1.48965e-22
1.03256e-09
2.30977e-09
0.000392039
0.000464771
1.24989e-05
1.87242e-07
0.000101746
0.000570772
2.05974e-05
1.09942e-08
9.37677e-07
1.12845e-08
5.78587e-06
4.43267e-08
3.68411e-07
1.16831e-07
1.35827e-05
1.05965e-05
1.43803e-07
8.08344e-05
1.24182e-05
7.55768e-10
1.04364e-10
1.71445e-12
5.44011e-15
1.53458e-18
2.4491e-23
5.43332e-30
1.69968e-29
7.54157e-29
1.57398e-06
1.52027e-09
1.36486e-09
3.75909e-07
1.48297e-05
6.9025e-07
2.24369e-07
4.65189e-07
2.17019e-08
8.4878e-07
2.26984e-06
1.13934e-08
0.000107128
0.000107108
2.15252e-08
6.2579e-05
6.39107e-07
1.15187e-06
6.43835e-05
1.41747e-07
2.35535e-09
7.39776e-10
7.77558e-10
4.7083e-12
1.20839e-14
2.58e-18
2.7543e-23
2.67329e-30
6.47047e-34
1.93625e-35
2.37801e-06
2.04515e-08
4.82067e-06
1.2019e-06
5.53304e-08
1.8906e-09
0.000243746
0.000506162
1.13106e-08
1.35807e-05
7.74435e-08
1.1692e-08
1.16862e-08
1.21927e-08
7.41794e-07
4.35314e-05
1.25544e-08
7.3632e-09
1.5672e-06
4.32823e-07
2.76156e-09
1.16019e-09
5.42282e-09
1.40778e-11
3.1751e-14
4.75829e-18
3.08144e-23
1.3133e-30
6.43809e-39
4.99224e-41
8.68181e-09
1.44898e-06
8.13989e-09
0.000104028
0.000422049
9.88219e-10
7.34079e-06
5.36239e-07
1.12082e-08
6.78187e-05
3.80612e-06
2.38751e-07
1.15823e-08
4.33647e-08
1.58417e-08
3.75764e-06
1.0587e-07
1.41309e-06
1.02516e-07
1.74631e-05
2.06308e-09
3.70262e-06
4.34086e-10
4.14157e-11
9.11604e-14
8.71583e-18
3.05525e-23
5.39609e-31
6.13757e-44
1.35535e-46
8.38785e-09
7.89416e-09
7.87249e-09
7.95154e-09
0.000194012
8.14286e-07
3.41236e-05
1.86538e-08
3.85073e-07
2.92522e-05
3.18555e-07
9.05734e-07
1.58833e-05
1.59071e-08
0.000179481
9.79339e-05
4.12777e-08
8.06686e-07
4.28214e-07
6.84231e-09
2.14653e-08
8.78326e-07
9.54957e-05
1.04209e-10
2.17239e-13
1.14964e-17
1.85071e-23
1.25469e-31
4.17827e-49
2.70932e-52
1.61285e-08
0.000264719
6.70027e-05
8.02608e-09
0.000165818
1.16223e-08
1.37382e-07
0.000111861
6.88079e-09
6.88191e-09
0.000284019
3.87913e-08
2.89127e-08
1.46423e-08
2.45224e-06
1.05416e-08
7.24622e-08
3.23561e-07
4.71969e-06
0.00145128
2.8056e-06
7.39523e-09
9.54389e-05
7.98052e-11
3.87609e-13
7.76413e-18
3.98159e-24
7.87772e-33
2.14051e-54
3.35898e-58
6.37613e-07
6.36701e-07
1.3518e-06
2.01208e-05
3.56034e-05
3.61894e-05
1.03517e-07
0.000355132
4.35359e-08
7.90252e-08
0.00103293
2.53163e-07
4.72731e-05
1.01947e-08
1.01104e-08
0.000187372
2.23673e-07
2.14948e-10
2.0817e-10
1.2209e-07
1.01283e-09
0.000105554
6.49289e-06
6.34628e-11
2.01419e-13
1.01939e-18
9.4706e-26
2.71818e-35
4.80413e-59
1.75496e-63
0.000490749
0.000197535
1.49464e-07
4.33502e-05
1.78003e-07
1.3353e-05
4.00013e-06
7.02991e-07
2.08311e-05
2.26088e-07
3.97641e-05
3.27582e-08
1.03217e-08
1.01106e-08
0.000188772
5.45393e-10
1.42211e-08
8.23926e-11
2.16094e-10
3.39328e-06
2.06246e-09
2.57146e-08
7.83845e-07
6.57798e-11
6.43514e-15
2.00249e-21
1.07514e-29
1.09338e-40
9.59025e-64
8.98192e-69
7.06759e-09
3.1891e-06
1.5113e-08
7.3418e-06
2.94036e-08
2.63919e-08
2.9157e-05
3.46699e-05
1.10284e-05
2.99336e-06
7.32188e-08
1.75279e-05
1.04352e-08
3.51213e-06
2.56401e-10
1.20437e-10
2.28716e-10
1.82897e-12
1.68514e-11
1.92511e-10
3.07348e-06
7.77974e-09
5.60031e-10
1.46675e-12
1.62036e-18
5.62164e-27
2.81613e-37
1.25526e-50
1.21091e-68
2.81145e-74
1
1
1
1
1
1
1
1
1
1
1
1
1
1
1
1
1
1
1
1
1
1
1
1
1
1
1
1
1
1
1
1
1
1
1
1
1
1
1
1
1
1
1
1
1
1
1
1
1
1
1
1
1
1
1
1
1
1
1
1
1
1
1
1
1
1
1
1
1
1
1
1
1
1
1
1
1
1
1
1
1
1
1
1
1
1
1
1
1
1
1
1
1
1
1
1
1
1
1
1
1
1
1
1
1
1
1
1
1
1
1
1
1
1
1
1
1
1
1
1
1
1
1
1
1
1
1
1
1
1
1
1
1
1
1
1
1
1
1
1
1
1
1
1
1
1
1
1
1
1
1
1
1
1
1
1
1
1
1
1
1
1
1
1
1
1
1
1
1
1
1
1
1
1
1
1
1
1
1
1
1
1
1
1
1
1
1
1
1
1
1
1
1
1
1
1
1
1
1
1
1
1
1
1
1
1
1
1
1
1
1
1
1
1
1
1
1
1
1
1
1
1
1
1
1
1
1
1
1
1
1
1
1
1
1
1
1
1
1
1
1
1
1
1
1
1
1
1
1
1
1
1
1
1
1
1
1
1
1
1
1
1
1
1
1
1
1
1
1
1
1
1
1
1
1
1
1
1
1
1
1
1
1
1
1
1
1
1
1
1
1
1
1
1
1
1
1
1
1
1
1
1
1
1
1
1
1
1
1
1
1
1
1
1
1
1
1
1
1
1
1
1
1
1
1
1
1
1
1
1
1
1
1
1
1
1
1
1
1
1
1
1
1
1
1
1
1
1
1
1
1
1
1
1
1
1
1
1
1
1
1
1
1
1
1
1
1
1
1
1
1
1
1
1
1
1
1
1
1
1
1
1
1
1
1
1
1
1
1
1
1
1
1
1
1
1
1
1
1
1
1
1
1
1
1
1
1
1
1
1
1
1
1
1
1
1
1
1
1
1
1
1
1
1
1
1
1
1
1
1
1
1
1
1
1
1
1
1
1
1
1
1
1
1
1
1
1
1
1
0.999784
1
1
1
1
1
1
1
1
1
1
1
1
1
1
1
1
1
1
1
1
1
1
1
1
1
1
1
1
1
1
1
1
1
1
1
1
1
1
0.999999
1
1
1
1
1
1
1
1
1
1
1
1
1
1
1
1
1
1
1
1
1
1
1
1
1
1
1
1
1
0.999992
0.999988
1
1
1
1
1
1
1
1
1
1
1
1
1
1
1
1
1
1
1
1
1
1
1
1
1
1
1
1
1
0.99999
1
1
1
1
1
1
1
1
1
1
1
1
1
1
1
1
1
1
1
1
1
1
1
1
1
1
1
1
0.999999
0.999999
1
1
1
1
1
1
1
1
1
1
1
1
1
1
1
1
1
1
1
1
1
1
1
1
1
1
1
1
1
0.999986
1
1
1
1
1
1
1
1
1
1
1
1
1
1
1
1
1
1
1
1
1
1
1
1
1
1
0.999989
1
0.374488
0.999999
0.999999
1
1
1
1
1
1
1
1
1
1
1
1
1
1
1
1
1
1
1
1
1
1
1
0.999829
1
1
1
0.0164805
1
1
1
1
1
0.999539
1
1
1
1
1
1
1
1
1
1
1
1
1
1
1
1
1
1
1
0.999379
1
1
0.0975379
7.79574e-07
0.919406
1
0.999998
1
0.999611
0.999999
1
1
1
1
1
1
1
0.999998
0.999999
0.999996
1
1
1
1
1
1
1
1
0.999924
0.999564
1
0.0725538
4.47512e-08
1.65125e-09
0.302446
0.999999
1
1
0.999677
1
1
1
1
1
1
1
1
1
1
1
1
1
1
1
1
1
1
1
0.999906
1
0.0975956
1.08087e-05
8.85991e-10
8.7876e-10
0.0210584
0.999995
0.999999
1
1
0.999872
1
1
1
1
1
0.999999
1
1
1
1
1
1
1
1
1
1
1
1
1
0.999843
4.53602e-07
1.32738e-09
7.78509e-10
8.92403e-10
0.000268661
1
0.999992
1
1
0.99993
1
1
0.999797
0.99992
1
1
1
1
1
1
1
1
1
1
1
1
1
0.999999
1
0.176287
4.90175e-10
9.01282e-10
7.63713e-10
3.28138e-08
0.000476917
0.999998
1
0.999961
1
0.99993
1
0.999997
0.999991
1
1
1
1
0.99743
1
1
1
0.999995
0.999931
0.941191
0.780621
1
1
0.999987
0.999993
4.73792e-07
4.59511e-10
4.42043e-10
4.64692e-09
5.29494e-05
0.000127384
1
0.999999
0.999779
0.999989
0.999992
0.999982
0.999967
0.999937
1
1
1
1
0.999958
0.997623
0.310924
3.08664e-09
2.92168e-09
3.28123e-09
3.36346e-09
1.13681e-06
1
1
1
0.929047
2.09594e-09
2.81605e-10
5.26154e-10
5.40262e-05
4.35447e-06
0.000109257
1
0.999999
0.999999
0.999889
0.999998
0.999997
0.999983
1
0.99997
0.975124
0.804583
0.192904
4.18446e-09
4.01523e-09
4.28526e-09
4.72133e-06
4.88899e-09