/*--------------------------------*- C++ -*----------------------------------*\
| =========                 |                                                 |
| \\      /  F ield         | OpenFOAM: The Open Source CFD Toolbox           |
|  \\    /   O peration     | Version:  2.4.0                                 |
|   \\  /    A nd           | Web:      www.OpenFOAM.org                      |
|    \\/     M anipulation  |                                                 |
\*---------------------------------------------------------------------------*/
FoamFile
{
    version     2.0;
    format      ascii;
    class       volScalarField;
    location    "0.097";
    object      alpha.water;
}
// * * * * * * * * * * * * * * * * * * * * * * * * * * * * * * * * * * * * * //

dimensions      [0 0 0 0 0 0 0];

internalField   nonuniform List<scalar> 
10000
(
2.49165e-86
3.36492e-82
1.7906e-78
4.97211e-75
8.64901e-72
1.05947e-68
9.7433e-66
6.98491e-63
4.00152e-60
1.8642e-57
7.13999e-55
2.25691e-52
5.88368e-50
1.26506e-47
2.24915e-45
3.29503e-43
3.89994e-41
3.65574e-39
2.66235e-37
1.51894e-35
6.58939e-34
2.09968e-32
4.87031e-31
8.10701e-30
9.50608e-29
7.72698e-28
4.27178e-27
1.5885e-26
4.25947e-26
6.5604e-26
6.14842e-26
3.59669e-26
1.30454e-26
2.836e-27
3.47888e-28
2.48084e-29
1.08207e-30
2.96717e-32
4.88899e-34
6.31101e-36
3.66609e-38
6.1257e-40
9.77381e-42
1.31446e-43
1.40256e-45
1.12413e-47
6.33193e-50
2.25302e-52
4.60263e-55
4.34056e-56
2.51351e-79
2.63801e-75
8.09946e-72
1.24235e-68
1.18793e-65
7.97511e-63
4.03893e-60
1.61573e-57
5.26391e-55
1.42606e-52
3.26004e-50
6.35414e-48
1.06255e-45
1.52562e-43
1.86839e-41
1.925e-39
1.64027e-37
1.13179e-35
6.33673e-34
2.78796e-32
9.42875e-31
2.43712e-29
4.74615e-28
6.83737e-27
7.13665e-26
5.30524e-25
2.75584e-24
9.91241e-24
2.69085e-23
4.27651e-23
4.25109e-23
2.73401e-23
1.1407e-23
3.02652e-24
4.89509e-25
4.93526e-26
3.31507e-27
1.62496e-28
6.97936e-30
3.44263e-31
1.85252e-32
9.2406e-34
4.05674e-35
1.48576e-36
4.25467e-38
8.7125e-40
1.17471e-41
9.10721e-44
4.82068e-46
1.35723e-46
5.19572e-75
3.88567e-71
8.88218e-68
1.03799e-64
7.66393e-62
4.01046e-59
1.59675e-56
5.06954e-54
1.3255e-51
2.91865e-49
5.49459e-47
8.92219e-45
1.25285e-42
1.51529e-40
1.563e-38
1.35556e-36
9.72152e-35
5.69927e-33
2.69745e-31
1.00006e-29
2.88816e-28
6.43651e-27
1.09982e-25
1.41709e-24
1.34792e-23
9.29987e-23
4.5851e-22
1.60656e-21
4.44858e-21
7.30083e-21
7.67427e-21
5.38634e-21
2.54636e-21
8.01722e-22
1.63356e-22
2.18646e-23
2.0915e-24
1.65986e-25
1.3658e-26
1.22119e-27
1.04632e-28
8.2025e-30
5.65586e-31
3.27577e-32
1.50434e-33
5.00106e-35
1.03006e-36
1.14804e-38
9.50164e-41
3.26849e-41
7.45371e-72
4.74682e-68
9.35163e-65
9.51965e-62
6.18066e-59
2.86771e-56
1.01986e-53
2.91118e-51
6.88112e-49
1.37524e-46
2.35421e-44
3.47305e-42
4.41417e-40
4.80428e-38
4.43051e-36
3.41479e-34
2.16491e-32
1.12918e-30
4.67657e-29
1.51684e-27
3.82159e-26
7.48967e-25
1.13842e-23
1.3201e-22
1.14708e-21
7.38357e-21
3.46754e-20
1.18415e-19
3.34652e-19
5.66309e-19
6.26445e-19
4.75415e-19
2.50841e-19
9.1477e-20
2.26012e-20
3.80791e-21
4.81513e-22
5.43063e-23
6.49012e-24
7.91428e-25
9.05927e-26
9.46074e-27
8.71445e-28
6.79624e-29
4.25964e-30
1.97981e-31
5.75715e-33
8.18704e-35
8.83072e-37
2.74306e-37
3.07481e-69
1.79485e-65
3.25476e-62
3.0681e-59
1.85658e-56
8.0752e-54
2.70377e-51
7.28305e-49
1.62448e-46
3.05598e-44
4.89977e-42
6.72242e-40
7.87975e-38
7.842e-36
6.56295e-34
4.56789e-32
2.62562e-30
1.22771e-28
4.51957e-27
1.29274e-25
2.87637e-24
4.99409e-23
6.74367e-22
7.03668e-21
5.60241e-20
3.3636e-19
1.49915e-18
4.97872e-18
1.43952e-17
2.50422e-17
2.89783e-17
2.35682e-17
1.37007e-17
5.67877e-18
1.65327e-18
3.3762e-19
5.33595e-20
7.7715e-21
1.19463e-21
1.80703e-22
2.55277e-23
3.28888e-24
3.75106e-25
3.65071e-26
2.89185e-27
1.73507e-28
6.83313e-30
1.23797e-31
1.54303e-33
3.75682e-34
7.02586e-67
3.8728e-63
6.63712e-60
5.93249e-57
3.41678e-54
1.41814e-51
4.53319e-49
1.16352e-46
2.46251e-44
4.36924e-42
6.55903e-40
8.35794e-38
9.02658e-36
8.22125e-34
6.2665e-32
3.9532e-30
2.06052e-28
8.63709e-27
2.82126e-25
7.16054e-24
1.41427e-22
2.17091e-21
2.60686e-20
2.44988e-19
1.78527e-18
9.93596e-18
4.19486e-17
1.35277e-16
4.00807e-16
7.13716e-16
8.58347e-16
7.41838e-16
4.69903e-16
2.18106e-16
7.32838e-17
1.76753e-17
3.35633e-18
5.96018e-19
1.10348e-19
1.97585e-20
3.29547e-21
5.01538e-22
6.78317e-23
7.88665e-24
7.55051e-25
5.57976e-26
2.81869e-27
6.79832e-29
8.85388e-31
1.61741e-31
1.25213e-64
6.57849e-61
1.07106e-57
9.09334e-55
4.97599e-52
1.96069e-49
5.93475e-47
1.43619e-44
2.85012e-42
4.71276e-40
6.55161e-38
7.68179e-36
7.58399e-34
6.27451e-32
4.3237e-30
2.45849e-28
1.15007e-26
4.28986e-25
1.24344e-23
2.80154e-22
4.90519e-21
6.65968e-20
7.1315e-19
6.03167e-18
3.9975e-17
2.05951e-16
8.21793e-16
2.56629e-15
7.80273e-15
1.41447e-14
1.75543e-14
1.59908e-14
1.09299e-14
5.61281e-15
2.14292e-15
5.99644e-16
1.33249e-16
2.77674e-17
5.96601e-18
1.22874e-18
2.35391e-19
4.11884e-20
6.42905e-21
8.68619e-22
9.7659e-23
8.61771e-24
5.36926e-25
1.77068e-26
2.2797e-28
3.11022e-29
2.0731e-62
1.0377e-58
1.59837e-55
1.2791e-52
6.57765e-50
2.42655e-47
6.84222e-45
1.53317e-42
2.79914e-40
4.23248e-38
5.35267e-36
5.68389e-34
5.05924e-32
3.75426e-30
2.30965e-28
1.17221e-26
4.84617e-25
1.59342e-23
4.07994e-22
8.14131e-21
1.26299e-19
1.52269e-18
1.45298e-17
1.10413e-16
6.64322e-16
3.16144e-15
1.18843e-14
3.58109e-14
1.11891e-13
2.05085e-13
2.60603e-13
2.48195e-13
1.81434e-13
1.02034e-13
4.37284e-14
1.4034e-14
3.58641e-15
8.55253e-16
2.08144e-16
4.8371e-17
1.04512e-17
2.06539e-18
3.65449e-19
5.63241e-20
7.29219e-21
7.51847e-22
5.62078e-23
2.41763e-24
3.19662e-26
3.31282e-27
3.51441e-60
1.66962e-56
2.4164e-53
1.80369e-50
8.596e-48
2.91976e-45
7.52702e-43
1.53045e-40
2.51664e-38
3.4047e-36
3.83288e-34
3.61022e-32
2.84212e-30
1.85882e-28
1.00412e-26
4.47164e-25
1.61071e-23
4.61742e-22
1.03808e-20
1.82569e-19
2.50898e-18
2.68974e-17
2.28917e-16
1.56121e-15
8.521e-15
3.73512e-14
1.31757e-13
3.81524e-13
1.22674e-12
2.2543e-12
2.90768e-12
2.87173e-12
2.22653e-12
1.35893e-12
6.47222e-13
2.36424e-13
6.8782e-14
1.84523e-14
5.00218e-15
1.29394e-15
3.11358e-16
6.86509e-17
1.36022e-17
2.36112e-18
3.47189e-19
4.11707e-20
3.61897e-21
1.94751e-22
3.09928e-24
2.23308e-25
6.27454e-58
2.81874e-54
3.81737e-51
2.64142e-48
1.15623e-45
3.57372e-43
8.30365e-41
1.50688e-38
2.19006e-36
2.59539e-34
2.54139e-32
2.07287e-30
1.40991e-28
7.95398e-27
3.69884e-25
1.41643e-23
4.38803e-22
1.08087e-20
2.11465e-19
3.25948e-18
3.95841e-17
3.77495e-16
2.86861e-15
1.75481e-14
8.68249e-14
3.49496e-13
1.15176e-12
3.19046e-12
1.05704e-11
1.92737e-11
2.49921e-11
2.53871e-11
2.07117e-11
1.36063e-11
7.13924e-12
2.94231e-12
9.69565e-13
2.89605e-13
8.65067e-14
2.46818e-14
6.55718e-15
1.59945e-15
3.5183e-16
6.81613e-17
1.12698e-17
1.51918e-18
1.54624e-19
1.00903e-20
2.21078e-22
1.044e-23
1.16744e-55
4.92725e-52
6.20971e-49
3.9591e-46
1.58047e-43
4.40914e-41
9.15198e-39
1.4682e-36
1.86605e-34
1.91291e-32
1.60411e-30
1.11179e-28
6.39407e-27
3.04197e-25
1.1926e-23
3.8562e-22
1.01169e-20
2.11589e-19
3.55419e-18
4.76316e-17
5.08003e-16
4.30786e-15
2.92068e-14
1.60205e-13
7.182e-13
2.64688e-12
8.11088e-12
2.13928e-11
7.30764e-11
1.30563e-10
1.68415e-10
1.7452e-10
1.4871e-10
1.04344e-10
5.98382e-11
2.76038e-11
1.02459e-11
3.39018e-12
1.10909e-12
3.47074e-13
1.01229e-13
2.71599e-14
6.59235e-15
1.41581e-15
2.61197e-16
3.966e-17
4.61849e-18
3.57217e-19
1.08851e-20
3.57936e-22
2.17936e-53
8.54895e-50
9.92291e-47
5.76901e-44
2.07886e-41
5.18474e-39
9.53489e-37
1.34357e-34
1.48667e-32
1.31418e-30
9.40783e-29
5.51259e-27
2.65862e-25
1.05448e-23
3.43829e-22
9.25155e-21
2.02863e-19
3.57297e-18
5.07338e-17
5.84411e-16
5.42875e-15
4.06653e-14
2.45867e-13
1.2094e-12
4.90028e-12
1.64983e-11
4.67946e-11
1.16974e-10
4.11462e-10
7.09795e-10
9.00645e-10
9.44707e-10
8.35327e-10
6.21468e-10
3.86542e-10
1.98138e-10
8.26629e-11
3.02714e-11
1.07973e-11
3.69345e-12
1.17877e-12
3.46608e-13
9.24341e-14
2.18945e-14
4.47961e-15
7.60553e-16
1.00369e-16
9.04864e-18
3.66293e-19
9.30449e-21
3.9285e-51
1.41493e-47
1.49202e-44
7.79409e-42
2.49766e-39
5.49126e-37
8.84002e-35
1.0842e-32
1.03867e-30
7.90294e-29
4.83581e-27
2.40318e-25
9.75644e-24
3.23852e-22
8.8012e-21
1.96297e-19
3.58354e-18
5.2777e-17
6.31266e-16
6.1639e-15
4.93855e-14
3.23297e-13
1.73592e-12
7.64665e-12
2.79246e-11
8.57199e-11
2.24165e-10
5.2871e-10
1.90468e-09
3.1204e-09
3.85131e-09
4.0637e-09
3.71147e-09
2.90735e-09
1.94552e-09
1.10009e-09
5.15305e-10
2.09242e-10
8.12369e-11
3.03482e-11
1.05874e-11
3.40569e-12
9.95139e-13
2.59005e-13
5.84944e-14
1.10394e-14
1.63812e-15
1.69989e-16
8.71597e-18
1.86585e-19
6.59881e-49
2.1581e-45
2.04121e-42
9.45153e-40
2.65618e-37
5.07763e-35
7.06388e-33
7.45625e-31
6.12888e-29
3.98867e-27
2.07936e-25
8.76534e-24
3.00879e-22
8.43448e-21
1.93157e-19
3.60314e-18
5.52111e-17
6.82733e-16
6.87686e-15
5.68836e-14
3.88819e-13
2.20471e-12
1.03937e-11
4.0894e-11
1.34452e-10
3.74551e-10
9.01289e-10
1.99699e-09
7.26721e-09
1.11194e-08
1.32057e-08
1.40057e-08
1.32001e-08
1.08149e-08
7.69977e-09
4.76467e-09
2.50591e-09
1.13413e-09
4.78859e-10
1.95118e-10
7.4286e-11
2.60831e-11
8.32784e-12
2.37411e-12
5.89672e-13
1.23157e-13
2.0431e-14
2.41824e-15
1.52451e-16
2.9308e-18
1.00198e-46
2.94122e-43
2.46329e-40
9.97927e-38
2.42826e-35
3.98645e-33
4.73689e-31
4.25856e-29
2.97812e-27
1.64786e-25
7.29478e-24
2.60683e-22
7.58157e-21
1.80301e-19
3.50364e-18
5.54603e-17
7.21138e-16
7.58772e-15
6.4978e-14
4.57521e-13
2.67114e-12
1.30422e-11
5.35267e-11
1.86229e-10
5.49894e-10
1.39024e-09
3.0649e-09
6.35509e-09
2.27035e-08
3.20283e-08
3.61873e-08
3.93415e-08
3.81394e-08
3.26852e-08
2.42054e-08
1.62126e-08
9.56246e-09
4.85703e-09
2.24472e-09
9.94283e-10
4.12855e-10
1.5808e-10
5.50787e-11
1.71699e-11
4.67976e-12
1.07848e-12
1.99202e-13
2.67164e-14
2.02881e-15
3.86343e-17
1.3076e-44
3.42157e-41
2.51924e-38
8.8694e-36
1.85647e-33
2.59945e-31
2.61853e-29
1.98959e-27
1.17574e-25
5.50716e-24
2.06808e-22
6.2758e-21
1.54999e-19
3.13178e-18
5.17593e-17
6.99941e-16
7.77755e-15
7.04463e-14
5.20072e-13
3.15471e-12
1.58708e-11
6.69585e-11
2.38843e-10
7.29237e-10
1.91882e-09
4.40057e-09
8.90041e-09
1.71133e-08
5.70087e-08
7.41966e-08
7.84937e-08
9.59663e-08
8.79505e-08
8.19937e-08
6.16571e-08
4.36872e-08
2.87161e-08
1.65038e-08
8.43114e-09
4.06419e-09
1.84378e-09
7.70995e-10
2.93416e-10
1.0003e-10
2.98917e-11
7.58562e-12
1.55457e-12
2.34836e-13
2.10581e-14
5.07465e-16
1.36513e-42
3.17723e-39
2.05541e-36
6.2974e-34
1.13698e-31
1.36215e-29
1.16622e-27
7.49895e-26
3.74572e-24
1.48535e-22
4.73525e-21
1.22194e-19
2.56601e-18
4.41099e-17
6.22743e-16
7.21989e-15
6.87924e-14
5.38942e-13
3.4531e-12
1.82377e-11
8.00619e-11
2.94701e-10
9.19393e-10
2.46791e-09
5.7579e-09
1.19243e-08
2.21753e-08
3.92484e-08
1.12104e-07
1.39527e-07
1.34816e-07
2.27781e-07
9.77846e-08
1.00356e-07
1.36392e-07
9.41428e-08
6.89651e-08
4.51673e-08
2.58521e-08
1.35833e-08
6.74593e-09
3.08569e-09
1.2831e-09
4.77914e-10
1.56253e-10
4.35307e-11
9.85734e-12
1.66719e-12
1.73898e-13
5.62838e-15
1.09007e-40
2.25196e-37
1.28113e-34
3.42843e-32
5.37185e-30
5.54854e-28
4.06901e-26
2.22844e-24
9.4456e-23
3.17634e-21
8.60801e-20
1.89599e-18
3.40929e-17
5.02545e-16
6.09812e-15
6.08821e-14
4.99764e-13
3.39496e-12
1.89535e-11
8.75143e-11
3.37053e-10
1.09299e-09
3.01671e-09
7.17776e-09
1.49544e-08
2.79221e-08
4.76016e-08
7.6356e-08
1.76547e-07
2.35024e-07
1.47252e-07
8.42912e-07
3.0949e-06
1.72477e-06
3.07371e-07
1.39625e-07
1.33213e-07
1.00744e-07
6.5318e-08
3.78703e-08
2.05213e-08
1.02765e-08
4.6687e-09
1.89778e-09
6.77532e-10
2.06647e-10
5.15171e-11
9.70507e-12
1.16456e-12
4.94763e-14
6.55778e-39
1.19981e-35
6.00803e-33
1.40941e-30
1.9281e-28
1.73106e-26
1.09794e-24
5.17374e-23
1.87855e-21
5.39839e-20
1.25087e-18
2.36273e-17
3.65508e-16
4.64048e-15
4.85188e-14
4.18889e-13
2.98655e-12
1.76276e-11
8.60886e-11
3.4883e-10
1.18329e-09
3.39505e-09
8.33972e-09
1.77959e-08
3.35663e-08
5.71417e-08
8.90742e-08
1.2824e-07
2.57205e-07
4.99168e-07
4.93279e-06
9.48674e-06
1.05707e-05
1.05718e-05
7.02755e-06
1.65992e-06
1.5489e-07
1.73611e-07
1.3111e-07
8.65416e-08
5.16796e-08
2.84169e-08
1.41349e-08
6.28066e-09
2.4508e-09
8.18402e-10
2.24378e-10
4.69537e-11
6.43019e-12
3.52436e-13
2.99045e-37
4.83325e-34
2.13148e-31
4.39567e-29
5.27706e-27
4.14823e-25
2.29647e-23
9.40672e-22
2.95492e-20
7.31358e-19
1.45571e-17
2.36362e-16
3.15541e-15
3.47168e-14
3.15061e-13
2.36655e-12
1.47115e-11
7.57027e-11
3.2462e-10
1.15867e-09
3.47582e-09
8.86426e-09
1.94872e-08
3.75731e-08
6.49328e-08
1.02946e-07
1.47987e-07
1.91784e-07
2.06253e-07
5.20248e-06
1.05417e-05
1.05576e-05
1.05697e-05
1.05706e-05
1.05499e-05
4.41166e-06
1.83718e-07
2.2099e-07
1.92536e-07
1.51062e-07
1.03989e-07
6.40675e-08
3.53411e-08
1.7302e-08
7.41608e-09
2.71967e-09
8.21272e-10
1.90873e-10
2.97116e-11
2.04938e-12
1.04246e-35
1.48463e-32
5.76498e-30
1.04671e-27
1.1063e-25
7.6536e-24
3.72491e-22
1.33858e-20
3.67736e-19
7.92862e-18
1.36944e-16
1.92506e-15
2.22651e-14
2.13006e-13
1.68655e-12
1.1051e-11
6.0104e-11
2.7156e-10
1.0236e-09
3.22979e-09
8.60252e-09
1.95942e-08
3.87891e-08
6.8163e-08
1.09489e-07
1.65195e-07
1.89429e-07
2.04721e-07
2.65102e-07
6.52256e-06
7.26415e-06
8.74536e-06
8.48008e-06
6.75845e-06
3.6278e-06
9.93282e-07
2.53678e-07
2.40816e-07
2.27465e-07
2.03664e-07
1.62387e-07
1.13755e-07
7.06198e-08
3.8602e-08
1.83781e-08
7.46815e-09
2.50101e-09
6.48559e-10
1.1485e-10
9.80292e-12
2.79899e-34
3.5143e-31
1.20281e-28
1.92522e-26
1.79521e-24
1.09677e-22
4.71665e-21
1.49739e-19
3.62917e-18
6.88518e-17
1.0427e-15
1.28059e-14
1.29155e-13
1.07864e-12
7.48016e-12
4.30389e-11
2.05931e-10
8.2038e-10
2.729e-09
7.64241e-09
1.81499e-08
3.71009e-08
6.65246e-08
1.07458e-07
1.62525e-07
1.99802e-07
7.89796e-07
3.92948e-06
4.17107e-06
2.51935e-07
2.5116e-07
2.51178e-07
2.51304e-07
2.51692e-07
2.52413e-07
2.56815e-07
3.33859e-07
2.44098e-07
2.40097e-07
2.29962e-07
2.04658e-07
1.6241e-07
1.13916e-07
7.00648e-08
3.73662e-08
1.69594e-08
6.3418e-09
1.84456e-09
3.72408e-10
3.88199e-11
5.80479e-33
6.46446e-30
1.95931e-27
2.77367e-25
2.28729e-23
1.23701e-21
4.71618e-20
1.32919e-18
2.86179e-17
4.82046e-16
6.4686e-15
7.01604e-14
6.22552e-13
4.56448e-12
2.78443e-11
1.41574e-10
5.98538e-10
2.11201e-09
6.24039e-09
1.55717e-08
3.31381e-08
6.109e-08
9.96451e-08
1.48108e-07
1.78575e-07
9.17734e-07
7.04934e-06
8.08278e-06
8.08701e-06
7.24766e-07
2.52246e-07
2.62491e-07
2.83742e-07
3.12399e-07
2.87324e-07
2.70665e-07
2.55113e-07
2.54815e-07
2.51151e-07
2.45629e-07
2.31795e-07
2.01655e-07
1.56756e-07
1.07581e-07
6.41227e-08
3.25321e-08
1.36111e-08
4.44909e-09
1.02427e-09
1.28851e-10
9.13388e-32
9.14762e-29
2.48505e-26
3.14197e-24
2.30825e-22
1.11085e-20
3.76971e-19
9.46836e-18
1.81956e-16
2.73872e-15
3.28421e-14
3.17915e-13
2.51104e-12
1.63337e-11
8.81822e-11
3.97161e-10
1.49438e-09
4.70126e-09
1.24218e-08
2.77804e-08
5.32893e-08
8.9056e-08
1.32823e-07
1.88651e-07
2.84561e-07
5.70474e-06
8.07425e-06
8.08132e-06
7.26639e-06
7.65067e-07
2.56023e-07
2.94031e-07
3.52504e-07
3.83498e-07
3.05517e-07
2.77286e-07
2.66472e-07
2.60584e-07
2.56379e-07
2.51506e-07
2.4296e-07
2.24472e-07
1.90326e-07
1.44255e-07
9.5593e-08
5.40787e-08
2.52863e-08
9.27939e-09
2.43029e-09
3.64854e-10
1.06526e-30
9.76434e-28
2.41816e-25
2.77455e-23
1.84187e-21
7.98182e-20
2.43333e-18
5.48487e-17
9.46072e-16
1.27927e-14
1.3795e-13
1.2011e-12
8.52385e-12
4.97001e-11
2.39909e-10
9.65743e-10
3.25702e-09
9.20078e-09
2.18978e-08
4.42702e-08
7.71805e-08
1.18157e-07
1.64907e-07
2.31835e-07
5.95103e-07
7.64436e-06
8.07289e-06
7.29151e-06
7.02999e-07
2.74914e-07
2.84365e-07
3.29681e-07
4.13644e-07
4.20327e-07
2.99845e-07
2.74335e-07
2.66171e-07
2.63143e-07
2.61521e-07
2.58965e-07
2.52761e-07
2.39944e-07
2.15246e-07
1.7614e-07
1.28107e-07
8.01938e-08
4.16918e-08
1.7102e-08
5.06872e-09
8.9748e-10
8.92359e-30
7.62613e-27
1.75535e-24
1.8651e-22
1.14178e-20
4.54227e-19
1.26549e-17
2.59644e-16
4.0645e-15
4.97971e-14
4.8635e-13
3.8368e-12
2.46821e-11
1.30407e-10
5.69386e-10
2.0675e-09
6.28604e-09
1.60975e-08
3.48383e-08
6.43767e-08
1.03067e-07
1.45792e-07
1.8676e-07
2.26946e-07
2.42361e-07
3.10654e-06
6.04547e-06
6.27261e-07
2.63903e-07
2.90209e-07
3.05671e-07
3.43615e-07
4.2342e-07
3.60558e-07
2.82068e-07
2.69753e-07
2.66984e-07
2.66733e-07
2.66221e-07
2.66212e-07
2.62552e-07
2.53498e-07
2.34639e-07
2.01713e-07
1.57991e-07
1.08214e-07
6.20794e-08
2.82805e-08
9.41642e-09
1.94165e-09
5.25867e-29
4.26394e-26
9.28926e-24
9.31997e-22
5.37189e-20
2.00471e-18
5.21617e-17
9.94581e-16
1.4396e-14
1.62333e-13
1.45398e-12
1.04957e-11
6.17217e-11
2.98045e-10
1.18912e-09
3.94295e-09
1.09432e-08
2.56255e-08
5.09214e-08
8.68252e-08
1.28901e-07
1.697e-07
2.01678e-07
2.23212e-07
2.36394e-07
2.37302e-07
2.37807e-07
2.52684e-07
2.60433e-07
3.28537e-07
2.94963e-07
3.03024e-07
3.36573e-07
2.86747e-07
2.71006e-07
2.69194e-07
2.70296e-07
2.73323e-07
2.70316e-07
2.72846e-07
2.70675e-07
2.65819e-07
2.50944e-07
2.21455e-07
1.78788e-07
1.32715e-07
8.37611e-08
4.22158e-08
1.56842e-08
3.71984e-09
2.16944e-28
1.699e-25
3.56499e-23
3.43808e-21
1.90054e-19
6.7832e-18
1.68214e-16
3.04408e-15
4.16146e-14
4.40842e-13
3.68948e-12
2.47648e-11
1.34918e-10
6.02231e-10
2.21907e-09
6.79271e-09
1.7388e-08
3.75485e-08
6.91645e-08
1.09741e-07
1.52461e-07
1.88689e-07
2.11881e-07
2.21761e-07
4.15736e-07
2.54023e-07
2.93082e-07
4.19358e-07
1.03263e-06
2.87974e-07
2.80667e-07
2.68302e-07
2.67773e-07
2.69746e-07
2.70908e-07
2.71753e-07
2.76635e-07
2.9358e-07
2.74729e-07
2.80302e-07
2.78859e-07
2.75498e-07
3.1729e-07
2.87474e-07
2.42953e-07
1.76686e-07
1.1287e-07
5.97504e-08
2.39825e-08
6.38836e-09
6.22084e-28
4.80288e-25
9.89614e-23
9.34759e-21
5.04821e-19
1.75532e-17
4.22718e-16
7.40126e-15
9.74807e-14
9.90146e-13
7.90359e-12
5.03152e-11
2.58545e-10
1.08327e-09
3.73353e-09
1.06684e-08
2.54676e-08
5.12642e-08
8.81367e-08
1.3126e-07
1.72848e-07
2.06599e-07
2.30552e-07
2.46261e-07
2.55308e-07
2.6429e-07
1.02995e-06
9.9301e-06
1.56504e-05
4.62006e-06
2.67957e-07
2.67094e-07
2.69229e-07
2.71366e-07
2.72747e-07
2.73894e-07
2.7591e-07
2.79424e-07
2.76476e-07
2.80133e-07
2.79892e-07
2.77196e-07
2.85921e-07
3.57721e-07
2.45613e-07
1.92717e-07
1.33429e-07
7.62305e-08
3.30091e-08
9.74795e-09
1.22228e-27
9.53933e-25
1.97526e-22
1.86764e-20
1.00606e-18
3.47685e-17
8.29054e-16
1.43146e-14
1.85115e-13
1.83752e-12
1.42618e-11
8.7802e-11
4.33801e-10
1.73729e-09
5.69147e-09
1.53886e-08
3.46542e-08
6.56759e-08
1.06246e-07
1.49734e-07
1.88169e-07
2.17903e-07
2.41393e-07
2.64381e-07
2.61479e-07
2.84371e-07
8.76528e-06
1.65398e-05
1.65401e-05
1.58679e-05
9.36416e-07
2.67131e-07
2.72771e-07
2.75193e-07
2.77234e-07
2.79075e-07
2.78746e-07
2.83154e-07
2.82537e-07
2.86492e-07
2.84319e-07
2.84176e-07
2.92434e-07
1.94952e-07
1.73262e-07
1.67096e-07
1.33814e-07
8.54877e-08
3.99915e-08
1.2981e-08
1.605e-27
1.30683e-24
2.79725e-22
2.71713e-20
1.49587e-18
5.2576e-17
1.26882e-15
2.20618e-14
2.85819e-13
2.82699e-12
2.17406e-11
1.31852e-10
6.37871e-10
2.48576e-09
7.87388e-09
2.04596e-08
4.40543e-08
7.95772e-08
1.22594e-07
1.64947e-07
1.99681e-07
2.25274e-07
2.45983e-07
2.66913e-07
2.68979e-07
3.89165e-07
1.07939e-05
1.65398e-05
1.65397e-05
1.65352e-05
2.99602e-06
2.67264e-07
2.81914e-07
2.82756e-07
2.88308e-07
2.83475e-07
2.86619e-07
2.9649e-07
7.58602e-07
3.12044e-07
3.03751e-07
3.16101e-07
3.42102e-07
2.59147e-07
7.95426e-07
1.40607e-07
1.31903e-07
8.74016e-08
4.23549e-08
1.48597e-08
1.3559e-27
1.19961e-24
2.74761e-22
2.82759e-20
1.63665e-18
6.00784e-17
1.50481e-15
2.69883e-14
3.58362e-13
3.6092e-12
2.80725e-11
1.71004e-10
8.25066e-10
3.18375e-09
9.91449e-09
2.51498e-08
5.25339e-08
9.16304e-08
1.36038e-07
1.76598e-07
2.07473e-07
2.28343e-07
2.43228e-07
2.57463e-07
2.79876e-07
2.85137e-07
2.09559e-06
1.45415e-05
1.65336e-05
1.11238e-05
2.7317e-07
2.78973e-07
3.12694e-07
2.93634e-07
2.96977e-07
2.94245e-07
3.91676e-07
5.74261e-06
1.13398e-05
1.48234e-05
4.85296e-07
6.7891e-07
7.14356e-07
1.08499e-06
6.68425e-06
1.80383e-06
8.18517e-08
8.38405e-08
3.87355e-08
1.43656e-08
6.9698e-28
7.08048e-25
1.81099e-22
2.04714e-20
1.28677e-18
5.08379e-17
1.35978e-15
2.58485e-14
3.61076e-13
3.79616e-12
3.05757e-11
1.91262e-10
9.39536e-10
3.65922e-09
1.14025e-08
2.87044e-08
5.90619e-08
1.00891e-07
1.4623e-07
1.85242e-07
2.12716e-07
2.29685e-07
2.40263e-07
2.48948e-07
2.59665e-07
2.80242e-07
2.83696e-07
2.28216e-06
5.14737e-06
2.56282e-06
2.74731e-07
3.76824e-07
3.83595e-07
3.02556e-07
7.58091e-07
1.43134e-05
2.80527e-05
3.44058e-05
1.18631e-05
8.51548e-05
2.72941e-06
5.0211e-06
4.19634e-06
1.15375e-05
6.04008e-06
4.16294e-06
7.08896e-08
2.43126e-08
8.13418e-09
5.81715e-09
2.01429e-28
2.54506e-25
7.676e-23
9.94173e-21
7.03609e-19
3.09228e-17
9.11289e-16
1.89233e-14
2.86349e-13
3.23311e-12
2.77119e-11
1.82699e-10
9.36337e-10
3.76511e-09
1.19864e-08
3.05132e-08
6.28909e-08
1.06752e-07
1.52851e-07
1.90681e-07
2.15479e-07
2.2934e-07
2.3693e-07
2.41836e-07
2.45754e-07
2.49288e-07
2.53775e-07
2.61347e-07
2.761e-07
3.13969e-07
1.1784e-06
1.18271e-06
6.86057e-07
3.43012e-07
9.93669e-06
4.0236e-05
6.87901e-05
8.06944e-05
0.000138564
0.00010124
0.00040044
7.20804e-05
0.000791192
9.74625e-05
2.53042e-07
7.83756e-08
1.83011e-08
5.17585e-09
1.5278e-09
5.2378e-13
2.95942e-29
5.24626e-26
1.99505e-23
3.10704e-21
2.57485e-19
1.30301e-17
4.37089e-16
1.02361e-14
1.73187e-13
2.1671e-12
2.03893e-11
1.46013e-10
8.03608e-10
3.42804e-09
1.14311e-08
3.00911e-08
6.33368e-08
1.08536e-07
1.55393e-07
1.92588e-07
2.15754e-07
2.28109e-07
2.34997e-07
2.39784e-07
2.43834e-07
2.48031e-07
2.53398e-07
2.60599e-07
2.69719e-07
2.85214e-07
3.64971e-07
4.81704e-07
5.11519e-07
1.36912e-05
4.10675e-05
4.60596e-05
4.63932e-05
5.00196e-05
0.000733388
0.00042356
0.00167041
0.000826607
0.00392893
0.000802795
9.88892e-06
2.34122e-07
4.41346e-08
0.00084819
0.0189268
0.0353809
2.2874e-30
6.48206e-27
3.2601e-24
6.26071e-22
6.17861e-20
3.67404e-18
1.44114e-16
3.92542e-15
7.66503e-14
1.09845e-12
1.17338e-11
9.44365e-11
5.77241e-10
2.69822e-09
9.71436e-09
2.71788e-08
5.98323e-08
1.05574e-07
1.53488e-07
1.91167e-07
2.14113e-07
2.26297e-07
2.33448e-07
2.38535e-07
2.42471e-07
2.46077e-07
2.50515e-07
2.56659e-07
2.64458e-07
2.72669e-07
2.77921e-07
2.8425e-07
1.25535e-06
2.8257e-05
6.29764e-05
7.87085e-05
0.000111081
9.02453e-05
0.00101578
0.000533825
0.0022528
0.00258248
0.00443592
0.0484378
0.0996404
0.269755
0.460547
0.630531
0.692137
0.711957
1.11813e-31
6.14849e-28
4.32572e-25
1.04046e-22
1.22224e-20
8.38361e-19
3.72209e-17
1.14071e-15
2.51819e-14
4.11923e-13
5.06281e-12
4.71332e-11
3.32378e-10
1.76794e-09
7.12694e-09
2.19202e-08
5.20062e-08
9.69207e-08
1.46048e-07
1.85706e-07
2.10351e-07
2.23917e-07
2.32201e-07
2.37909e-07
2.41819e-07
2.44794e-07
2.46903e-07
2.54781e-07
2.62667e-07
2.79933e-07
2.82356e-07
1.12539e-06
1.70916e-05
3.66737e-05
7.53984e-05
8.17218e-05
0.000202277
0.000588522
0.00110171
0.000732567
0.00075549
0.103166
0.280086
0.515
0.812295
0.976598
1
1
1
1
4.34136e-33
5.08059e-29
5.10327e-26
1.54905e-23
2.16983e-21
1.72157e-19
8.68691e-18
3.00004e-16
7.43513e-15
1.36137e-13
1.86885e-12
1.93885e-11
1.52348e-10
9.2639e-10
4.31475e-09
1.51832e-08
4.04497e-08
8.24165e-08
1.32425e-07
1.75625e-07
2.04123e-07
2.20734e-07
2.30994e-07
2.37338e-07
2.40605e-07
2.41417e-07
2.64839e-07
2.54153e-07
2.61649e-07
2.7195e-07
2.76464e-07
2.9957e-07
2.04488e-05
4.19464e-05
0.00010417
9.2348e-05
0.000200926
0.000629219
0.000804894
0.0129326
0.24324
0.5379
0.840355
0.990305
1
1
1
1
1
1
1.42466e-34
3.71137e-30
5.36419e-27
2.06052e-24
3.44556e-22
3.16691e-20
1.81948e-18
7.08137e-17
1.96471e-15
4.00924e-14
6.12272e-13
7.07541e-12
6.22688e-11
4.25601e-10
2.22987e-09
8.83243e-09
2.68643e-08
6.26457e-08
1.11828e-07
1.59816e-07
1.94476e-07
2.15983e-07
2.28852e-07
2.35361e-07
2.36935e-07
2.6238e-07
2.46392e-07
2.56522e-07
2.67669e-07
2.85776e-07
2.91891e-07
9.86171e-07
6.12143e-06
1.63822e-05
7.9592e-05
7.55e-05
0.000199421
0.000220599
0.000988183
0.371646
0.759944
0.981525
0.999745
0.99999
1
1
1
1
1
1
3.93796e-36
2.33533e-31
4.88603e-28
2.38251e-25
4.76794e-23
5.08842e-21
3.33672e-19
1.46689e-17
4.56646e-16
1.04118e-14
1.77235e-13
2.28405e-12
2.25422e-11
1.72479e-10
1.0137e-09
4.52998e-09
1.565e-08
4.14534e-08
8.38609e-08
1.34547e-07
1.76115e-07
2.0003e-07
2.049e-07
2.33401e-07
2.3692e-07
2.39057e-07
2.45006e-07
2.56399e-07
2.64544e-07
2.77931e-07
1.4102e-06
5.90566e-06
5.60307e-06
9.46438e-06
1.02785e-05
4.17425e-05
0.000205812
0.00553058
0.441608
0.908486
0.999649
0.999945
0.999986
1
1
1
1
1
1
1
9.06475e-38
1.24116e-32
3.78226e-29
2.35131e-26
5.65446e-24
7.03343e-22
5.28407e-20
2.63374e-18
9.23404e-17
2.36074e-15
4.49176e-14
6.46822e-13
7.1714e-12
6.15518e-11
4.06263e-10
2.04654e-09
8.01106e-09
2.40948e-08
5.56038e-08
1.0137e-07
1.47818e-07
1.79657e-07
3.35928e-07
2.23607e-07
2.24712e-07
3.40781e-07
2.39923e-07
2.45919e-07
3.30306e-07
2.95397e-07
1.02514e-06
4.71077e-06
4.73931e-06
1.29755e-05
2.46797e-05
9.46098e-05
0.00367161
0.41123
0.926481
0.999715
0.999969
0.999996
0.999999
1
1
1
1
1
1
1
1.72518e-39
5.50982e-34
2.46022e-30
1.95973e-27
5.69237e-25
8.29413e-23
7.17392e-21
4.07261e-19
1.61517e-17
4.64843e-16
9.92264e-15
1.60243e-13
2.00098e-12
1.93138e-11
1.43391e-10
8.14274e-10
3.61167e-09
1.23196e-08
3.23908e-08
6.73871e-08
1.11491e-07
1.54007e-07
2.34512e-07
2.08122e-07
2.1312e-07
2.26703e-07
2.36972e-07
2.50309e-07
2.70717e-07
3.01676e-07
2.5979e-07
2.48429e-06
1.25195e-05
1.78484e-05
2.22958e-05
0.00277764
0.300869
0.799443
0.999715
0.999964
0.999996
1
1
1
1
1
1
1
1
1
2.69758e-41
2.02283e-35
1.33061e-31
1.36536e-28
4.81815e-26
8.27246e-24
8.28515e-22
5.38555e-20
2.42827e-18
7.905e-17
1.9025e-15
3.46326e-14
4.88587e-13
5.31734e-12
4.45147e-11
2.85483e-10
1.43458e-09
5.54068e-09
1.65595e-08
3.92779e-08
7.40237e-08
1.16375e-07
1.13366e-07
3.0478e-07
2.63517e-07
2.28097e-07
2.32511e-07
2.40402e-07
3.02227e-07
2.42338e-07
2.50806e-07
3.74322e-07
4.51643e-05
6.81111e-05
6.34121e-05
0.158045
0.587611
0.98957
0.999966
0.999997
0.999999
1
1
1
1
1
1
1
1
1
3.4333e-43
6.05669e-37
5.89441e-33
7.83202e-30
3.37829e-27
6.87948e-25
8.02922e-23
6.01215e-21
3.09998e-19
1.14816e-17
3.13475e-16
6.47259e-15
1.03549e-13
1.27509e-12
1.20799e-11
8.77645e-11
4.99658e-10
2.18367e-09
7.40671e-09
1.99653e-08
4.27997e-08
7.62057e-08
9.64846e-08
1.07418e-07
2.04858e-07
2.79535e-07
2.44226e-07
2.39904e-07
2.37193e-07
2.19773e-07
2.51476e-07
7.32795e-07
3.45873e-07
5.29173e-07
0.0251938
0.326963
0.896911
0.99989
0.999993
1
1
1
1
1
1
1
1
1
1
1
3.50184e-45
1.44803e-38
2.08812e-34
3.60792e-31
1.91295e-28
4.64985e-26
6.36592e-24
5.52726e-22
3.281e-20
1.39208e-18
4.34343e-17
1.02469e-15
1.86819e-14
2.61636e-13
2.81895e-12
2.33014e-11
1.50508e-10
7.45157e-10
2.8673e-09
8.76005e-09
2.13096e-08
4.28451e-08
6.53131e-08
7.99186e-08
1.38257e-07
1.78857e-07
1.97567e-07
2.02498e-07
2.5791e-07
1.20042e-07
9.27353e-07
3.94789e-06
2.77044e-07
2.77985e-07
0.0757869
0.648543
0.999693
1
1
1
1
1
1
1
1
1
1
1
1
1
2.79157e-47
2.6767e-40
5.6963e-36
1.27939e-32
8.35987e-30
2.43663e-27
3.93589e-25
3.99027e-23
2.74819e-21
1.34713e-19
4.848e-18
1.3189e-16
2.76145e-15
4.43401e-14
5.47333e-13
5.18036e-12
3.81287e-11
2.14679e-10
9.38894e-10
3.25034e-09
8.96262e-09
2.03382e-08
3.61636e-08
5.01898e-08
7.68829e-08
1.06497e-07
1.13107e-07
1.47849e-07
2.07884e-07
9.26357e-08
4.53358e-07
7.4367e-07
1.96521e-08
9.03547e-08
0.212008
0.913649
1
1
1
1
1
1
1
1
1
1
1
1
1
1
1.67178e-49
3.63703e-42
1.12549e-37
3.2451e-34
2.58911e-31
9.01505e-29
1.7222e-26
2.05384e-24
1.65872e-22
9.51513e-21
4.0062e-19
1.27513e-17
3.1089e-16
5.80426e-15
8.31375e-14
9.11229e-13
7.71755e-12
4.98422e-11
2.49279e-10
9.81814e-10
3.07557e-09
7.89502e-09
1.60797e-08
2.566e-08
3.90794e-08
5.46881e-08
6.32733e-08
8.84799e-08
9.69468e-08
6.91474e-08
1.45332e-07
2.05261e-07
1.94569e-10
1.53553e-08
0.426073
1
1
1
1
1
1
1
1
1
1
1
1
1
1
1
7.04939e-52
3.3319e-44
1.44531e-39
5.14727e-36
4.83251e-33
1.95256e-30
4.33724e-28
6.07496e-26
5.81824e-24
3.99734e-22
2.02837e-20
7.80042e-19
2.28642e-17
5.11742e-16
8.74164e-15
1.13658e-13
1.13174e-12
8.54114e-12
4.95841e-11
2.24852e-10
8.07125e-10
2.3609e-09
5.47809e-09
1.00196e-08
1.62386e-08
2.33764e-08
3.0062e-08
4.03574e-08
4.85284e-08
5.67022e-08
5.63402e-08
7.27173e-09
-3.76484e-09
4.17698e-10
0.626027
1
1
1
1
1
1
1
1
1
1
1
1
1
1
1
1.90261e-54
5.09314e-46
1.45179e-40
1.81612e-36
3.31845e-33
1.65809e-30
3.28944e-28
3.21591e-26
1.80315e-24
6.48165e-23
1.69096e-21
3.85635e-20
9.18395e-19
2.22224e-17
4.66748e-16
7.67046e-15
9.5346e-14
8.8444e-13
6.20841e-12
3.34921e-11
1.41252e-10
4.80247e-10
1.2813e-09
2.68873e-09
4.77757e-09
7.30213e-09
1.01325e-08
1.32608e-08
1.62476e-08
1.92001e-08
1.70045e-08
4.76914e-09
-8.74252e-08
0.0135078
0.766553
1
1
1
1
1
1
1
1
1
1
1
1
1
1
1
1.42833e-53
5.72317e-44
1.67775e-38
1.53335e-34
2.11431e-31
8.61868e-29
1.47836e-26
1.31617e-24
6.96249e-23
2.38646e-21
5.6363e-20
9.58952e-19
1.21095e-17
1.16146e-16
8.64114e-16
5.11075e-15
2.52771e-14
1.14762e-13
5.3656e-13
2.62052e-12
1.2033e-11
4.77509e-11
1.50192e-10
3.69351e-10
7.40864e-10
1.24405e-09
1.84354e-09
2.4769e-09
3.21356e-09
3.97423e-09
4.58377e-09
2.65838e-09
-2.73102e-07
0.0626628
0.808584
1
1
1
1
1
1
1
1
1
1
1
1
1
1
1
7.32555e-54
9.00327e-52
8.38804e-50
6.1498e-48
3.65179e-46
1.80408e-44
7.66417e-43
2.94475e-41
1.10297e-39
4.3588e-38
1.87996e-36
8.5714e-35
3.79972e-33
1.47517e-31
3.87427e-30
4.6624e-29
3.05781e-28
1.21516e-27
3.08972e-27
5.2081e-27
6.00786e-27
4.86977e-27
2.82368e-27
1.18799e-27
3.69018e-28
8.57762e-29
1.50219e-29
1.98919e-30
2.00526e-31
1.54877e-32
9.20104e-34
4.19415e-35
1.47068e-36
3.99201e-38
8.43196e-40
1.38189e-41
1.76397e-43
1.79418e-45
1.47787e-47
9.98868e-50
5.62306e-52
2.63784e-54
9.88698e-57
2.68266e-59
4.96258e-62
6.01349e-65
4.39147e-68
1.89829e-71
4.42552e-75
3.47083e-79
9.17785e-45
4.47609e-43
1.65543e-41
4.84367e-40
1.1586e-38
2.33409e-37
4.0913e-36
6.49857e-35
9.82711e-34
1.48157e-32
2.2779e-31
3.55053e-30
5.48016e-29
7.99615e-28
1.00921e-26
7.75687e-26
3.74577e-25
1.19235e-24
2.58182e-24
3.89587e-24
4.18757e-24
3.26754e-24
1.87725e-24
8.02912e-25
2.58683e-25
6.33486e-26
1.18579e-26
1.70239e-27
1.88227e-28
1.60567e-29
1.05912e-30
5.39227e-32
2.12274e-33
6.47882e-35
1.53872e-36
2.84809e-38