/*--------------------------------*- C++ -*----------------------------------*\
| =========                 |                                                 |
| \\      /  F ield         | OpenFOAM: The Open Source CFD Toolbox           |
|  \\    /   O peration     | Version:  2.4.0                                 |
|   \\  /    A nd           | Web:      www.OpenFOAM.org                      |
|    \\/     M anipulation  |                                                 |
\*---------------------------------------------------------------------------*/
FoamFile
{
    version     2.0;
    format      ascii;
    class       volScalarField;
    location    "0.194";
    object      p;
}
// * * * * * * * * * * * * * * * * * * * * * * * * * * * * * * * * * * * * * //

dimensions      [1 -1 -2 0 0 0 0];

internalField   nonuniform List<scalar> 
3600
(
91.8617
89.1156
86.6962
86.2448
87.7823
90.1082
92.6359
93.5727
94.7862
95.0902
95.4479
95.1235
95.0953
95.0554
94.6944
94.7577
94.8315
94.5228
94.109
93.2796
93.4652
94.472
94.9481
95.7545
96.1876
95.9225
96.5754
97.0927
97.1762
97.2099
88.6054
85.8509
83.4232
82.9707
84.514
86.8527
89.3838
90.3246
91.535
91.841
92.1946
91.8676
91.8413
91.8029
91.426
91.4997
91.5694
91.1536
90.5722
89.9968
89.3861
89.5501
90.0348
90.7282
91.6468
92.3313
92.6536
92.7933
92.8975
92.9782
85.3577
82.5845
80.1392
79.6821
81.2362
83.5991
86.1398
87.0787
88.2907
88.6022
88.9463
88.6063
88.5847
88.5442
88.1616
88.2572
88.2191
87.8821
87.3674
86.7021
85.6564
85.2819
86.0464
86.8522
87.7139
88.626
89.0842
89.2981
89.3839
89.4469
82.1181
79.3164
76.8435
76.3788
77.9481
80.3473
82.9027
83.8364
85.053
85.3747
85.7047
85.3414
85.3241
85.2824
84.9067
85.0336
85.017
84.6732
84.2287
83.1686
80.9575
80.7101
82.0523
83.2158
84.1729
84.8504
85.4374
85.6412
85.7483
85.7392
78.887
76.0466
73.5361
73.0607
74.6497
77.0978
79.6729
80.5979
81.8213
82.1583
82.4732
82.0763
82.0529
82.0138
81.6518
81.818
81.8341
81.5835
80.9189
79.4509
76.8112
76.2533
77.6531
78.9754
80.1166
81.2569
81.7693
82.1589
82.1811
82.1961
75.6644
72.7749
70.2166
69.7272
71.3407
73.8509
76.4504
77.3632
78.5951
78.9525
79.2551
78.8142
78.7611
78.7322
78.3914
78.5764
78.5596
78.3902
77.6511
76.0235
73.0562
72.3607
73.9721
75.6042
76.7145
77.6814
78.2553
78.5452
78.6886
78.7265
72.4507
69.5015
66.8849
66.378
68.0206
70.6073
73.2352
74.1324
75.3741
75.7559
76.0448
75.5552
75.4803
75.4424
75.1207
75.2723
75.1793
75.0583
74.5764
72.7
69.7224
68.9843
70.5913
72.1597
73.4536
74.3078
74.7496
75.0611
75.2322
75.296
69.246
66.2262
63.5408
63.0127
64.6891
67.3676
70.0273
70.9053
72.1586
72.569
72.842
72.2946
72.2563
72.1705
71.814
71.9117
71.7132
71.676
70.9269
69.4645
66.8702
66.1606
67.6561
69.1312
70.1425
70.8671
71.3215
71.5876
71.7397
71.8066
66.0506
62.949
60.1839
59.6309
61.3455
64.1326
66.8268
67.6821
68.949
69.3932
69.6474
69.0261
69.0805
68.918
68.4637
68.572
68.2947
68.2836
67.4941
66.2018
64.0961
63.6915
65.0306
66.1431
67.008
67.5908
67.954
68.1683
68.2966
68.3887
62.8647
59.67
56.814
56.2317
57.9892
60.9034
63.6336
64.4628
65.746
66.2312
66.4629
65.7464
65.9117
65.6647
65.1152
65.261
64.9795
64.9194
64.2441
63.1822
61.7985
61.5107
62.4002
63.2382
63.9014
64.3732
64.6569
64.8123
64.9026
64.9861
59.6887
56.389
53.4307
52.8147
54.6192
57.6812
60.4478
61.2474
62.5495
63.0854
63.288
62.4536
62.7276
62.4075
61.768
61.9272
61.7043
61.588
61.0736
60.3498
59.5342
59.271
59.7666
60.3013
60.7815
61.156
61.4055
61.5146
61.5657
61.6162
56.523
53.106
50.0336
49.3788
51.2348
54.4673
57.2693
58.0359
59.3586
59.957
60.1214
59.1472
59.5404
59.1719
58.4208
58.5596
58.3674
58.2611
57.9112
57.4802
56.9426
56.7519
56.9977
57.3346
57.6429
57.8929
58.081
58.1938
58.2383
58.2395
53.3681
49.821
46.6223
45.9231
47.8349
51.2634
54.0977
54.8281
56.1719
56.8466
56.9596
55.8281
56.3494
55.9563
55.0735
55.1919
54.9681
54.9517
54.7359
54.482
54.1228
54.0223
54.1573
54.3344
54.4806
54.6267
54.7733
54.8761
54.9265
54.9246
50.2242
46.534
43.1963
42.4465
44.4184
48.0714
50.933
51.6237
52.9883
53.7559
53.7914
52.4905
53.1769
52.7603
51.7198
51.8138
51.575
51.6757
51.5423
51.4117
51.2312
51.1659
51.2273
51.288
51.287
51.2573
51.3378
51.5319
51.635
51.6117
47.0921
43.2448
39.7552
38.9477
40.9841
44.893
47.7747
48.4225
49.8065
50.6868
50.6353
49.1309
50.0214
49.587
48.3892
48.4264
48.1885
48.3735
48.3244
48.2991
48.2398
48.1812
48.1849
48.2356
48.2239
48.1114
48.0429
48.1898
48.3257
48.28
43.9722
39.9535
36.2983
35.4253
37.5309
41.7305
44.6226
45.2235
46.6264
47.6437
47.4746
45.7459
46.8889
46.406
44.9786
44.9365
44.8088
45.0416
45.0579
45.1517
45.1955
45.1188
45.0457
45.0596
45.1211
45.131
45.0377
44.9975
45.0397
44.9813
40.8651
36.6601
32.8252
31.8776
34.0576
38.5862
41.4757
42.0279
43.4471
44.6231
44.3047
42.3249
43.7754
43.2508
41.5524
41.3523
41.3358
41.7171
41.8396
41.9885
42.1685
42.0193
41.8681
41.7776
41.76
41.7815
41.8142
41.699
41.6774
41.7049
37.7716
33.3644
29.3351
28.3028
30.5631
35.4622
38.3344
38.8284
40.2615
41.6389
41.1144
38.8478
40.6961
40.1301
38.089
37.6954
37.8196
38.4104
38.6498
38.8132
39.0545
38.924
38.6819
38.5273
38.4469
38.4813
38.5678
38.4994
38.4919
38.6102
34.6923
30.0664
25.8274
24.6988
27.0465
32.3612
35.1962
35.6394
37.0807
38.6741
37.9011
35.3507
37.6232
37.0079
34.5264
33.9987
34.3491
35.1151
35.4376
35.6348
35.9236
35.7983
35.4912
35.3576
35.1996
35.2228
35.364
35.3895
35.3711
35.4343
31.6279
26.7662
22.3013
21.0635
23.5069
29.2855
32.0625
32.43
33.8817
35.7585
34.648
31.7275
34.5635
33.9558
30.9486
30.3388
30.9819
31.8143
32.1631
32.3845
32.7354
32.548
32.0787
32.0119
32.0211
32.07
32.2212
32.2378
32.1944
32.2201
28.5797
23.4643
18.7565
17.3955
19.944
26.2373
28.9349
29.244
30.675
32.8415
31.4729
28.165
31.4928
30.736
27.2182
26.445
27.6758
28.5131
28.8496
29.1014
29.4714
29.1029
28.4991
28.6479
28.8803
29.0041
29.0723
29.0649
29.0248
29.0437
25.5481
20.1623
15.1934
13.6942
16.3578
23.218
25.7704
26.0368
27.4995
30.0185
28.0884
24.4482
28.3723
27.5112
24.1791
22.3347
24.1938
25.2885
25.5369
25.8547
26.5265
25.6936
25.2371
25.4281
25.7488
25.8886
25.9183
25.9004
25.8931
25.9198
22.5355
16.8616
11.6148
9.96204
12.7513
20.2243
22.7262
22.844
24.2978
27.0808
24.7806
20.6587
24.5952
24.082
19.4622
17.8671
20.6872
22.3257
22.2008
22.6099
23.3515
22.6674
22.2145
22.3378
22.6018
22.6486
22.6895
22.702
22.7247
22.7369
19.5422
13.563
8.02655
6.22051
9.12935
17.2488
19.5228
19.6853
21.0952
24.0308
20.3873
19.1837
20.4825
20.3012
15.4421
13.285
16.9733
19.0646
19.0582
19.0798
20.1961
20.7432
19.6302
19.3605
19.4716
19.4947
19.5161
19.5208
19.521
19.539
16.5696
10.2749
4.42706
2.51165
5.49615
14.2725
16.531
16.8864
17.8575
21.2892
17.2658
16.2494
16.8412
16.6455
11.38
9.8226
13.3447
16.1256
15.8028
17.0871
17.128
17.3112
16.385
16.2683
16.2706
16.2399
16.2525
16.2655
16.3046
16.3297
13.6176
6.9936
1.0426
-0.224284
2.89583
11.2914
18.0039
14.7238
14.8603
18.4503
14.3444
12.1912
13.8446
13.2135
8.14301
6.75999
10.0415
12.9907
12.9237
13.7235
13.8683
13.4438
13.1115
13.099
13.04
13.0097
13.0525
13.0758
13.1225
13.1371
10.6733
3.68218
-0.0278281
0.144384
3.65565
8.83589
13.5128
11.9483
11.6733
15.2274
11.7725
9.50551
11.024
9.69473
5.64377
4.40589
6.76847
9.79733
8.77503
9.81418
10.4007
10.105
9.97051
9.74958
9.60672
9.65352
9.81762
9.86836
9.93809
9.95682
7.73629
0.623738
0.040536
-0.161065
2.11901
6.33444
9.08804
6.16934
8.62196
12.0555
9.67287
6.92619
8.27165
6.5718
3.12783
2.087
3.93673
6.65566
5.75388
7.4335
7.18908
6.75428
6.76537
6.33362
6.38548
6.45047
6.67291
6.70809
6.76382
6.77868
3.86588
-0.0862436
-0.0930154
-0.0732203
0.40297
3.65311
4.60195
3.10567
5.43718
8.94602
7.29261
4.00056
5.56255
4.01012
0.299491
-0.907414
0.906126
3.6709
2.85356
4.75767
3.9224
3.58926
3.52892
3.23599
3.17861
3.23318
3.43606
3.51567
3.57559
3.5635
0.933433
0.192222
-0.0489532
-0.0881565
0.140806
0.960821
1.07726
0.251313
2.35222
5.96295
4.53292
0.918385
2.71329
1.70749
-0.106603
-0.182235
0.114781
0.737715
0.521357
1.87428
1.00557
1.1108
0.8193
0.623252
0.631864
0.772241
0.86224
0.877313
0.984399
1.15942
97.2274
97.2258
96.894
96.3692
96.35
96.7754
95.6003
94.8179
94.2397
93.1064
92.8978
93.6572
93.9208
94.2978
94.1021
93.9667
94.1315
93.9732
93.8135
93.7496
93.0562
92.8728
92.1189
92.0755
90.4077
88.5354
86.8389
86.9665
89.4887
91.9672
92.9607
92.9219
92.8793
92.7555
92.3761
91.8163
90.8863
90.0729
89.2406
88.9129
89.579
90.0837
90.5102
90.9523
90.8473
90.7025
90.8815
90.7194
90.5606
90.4973
89.8008
89.6133
88.8626
88.8239
87.1562
85.2718
83.5671
83.6925
86.224
88.7105
89.4342
89.4189
89.2405
89.0858
88.6885
87.9847
87.2481
86.3311
84.9384
85.0686
86.2072
86.8155
87.2286
87.619
87.6015
87.4414
87.6273
87.4622
87.306
87.2449
86.545
86.3511
85.6046
85.5808
83.9119
82.004
80.2828
80.4064
82.9578
85.4618
85.7389
85.8055
85.7016
85.4328
85.0508
84.5684
83.678
82.3128
80.3658
80.2208
82.4623
83.5709
84.044
84.4264
84.376
84.2
84.3693
84.1991
84.0515
83.9951
83.2904
83.0859
82.3459
82.3451
80.6747
78.7313
76.9856
77.1075
79.69
82.2209
82.2227
82.181
82.0284
81.7538
81.3288
80.51
79.507
78.0746
76.0888
76.236
78.7712
80.3147
80.9881
81.2512
81.1676
80.9612
81.1067
80.9265
80.8009
80.7504
80.0371
79.818
79.0869
79.1173
77.4451
75.4536
73.6752
73.7955
76.4205
78.988
78.7174
78.6386
78.4493
78.1229
77.6923
77.0068
75.9981
74.506
72.5303
72.6923
75.368
77.2597
77.745
77.9834
77.9362
77.7192
77.8347
77.6343
77.5586
77.5122
76.7849
76.5469
75.8274
75.8974
74.2237
72.171
70.3511
70.4703
73.1492
75.7633
75.2579
75.1289
74.9013
74.5866
74.2478
73.6919
72.6923
71.1848
69.4397
69.6104
72.0663
74.0714
74.4311
74.6242
74.65
74.4716
74.5525
74.3346
74.3266
74.2775
73.5326
73.272
72.5671
72.6859
71.011
68.8832
67.0133
67.1314
69.8761
72.5469
71.773
71.6563
71.448
71.1745
70.8113
70.2636
69.4786
68.3462
66.7388
66.7697
68.8413
70.287
71.066
71.1884
71.3068
71.1951
71.2873
71.0819
71.1023
71.0448
70.2794
69.9927
69.3058
69.483
67.8081
65.5902
63.661
63.7787
66.6011
69.3391
68.3306
68.2274
68.0456
67.8185
67.5221
67.0949
66.4808
65.5707
64.3213
64.2793
65.6688
66.9853
67.7041
67.7736
67.9733
67.8848
68.0454
67.8827
67.8796
67.8145
67.0253
66.7086
66.043
66.289
64.6159
62.2919
60.2933
60.4117
63.3242
66.1402
64.9129
64.8425
64.7168
64.5466
64.3022
63.9516
63.4815
62.8467
62.0381
61.9553
62.8224
63.7942
64.3825
64.4539
64.6763
64.568
64.8068
64.7015
64.6556
64.5909
63.7715
63.419
62.7787
63.1044
61.4355
58.988
56.9095
57.0301
60.0451
62.9505
61.559
61.5172
61.4203
61.2839
61.0805
60.794
60.4555
60.0294
59.56
59.5454
60.0883
60.6455
61.1062
61.2039
61.3866
61.2631
61.5577
61.5088
61.4277
61.3765
60.5195
60.1231
59.5123
59.9294
58.268
55.6786
53.5088
53.6332
56.7639
59.7704
58.2196
58.1933
58.1251
58.0019
57.8267
57.6171
57.4185
57.1519
56.8304
56.8066
57.1665
57.4859
57.8323
57.9298
58.0913
57.9629
58.3253
58.2978
58.1961
58.1721
57.2696
56.8197
56.2431
56.7556
55.1149
52.3636
50.0904
50.2207
53.4803
56.6002
54.9249
54.8828
54.7684
54.6367
54.5213
54.4172
54.3512
54.2073
53.9642
53.926
54.0849
54.2996
54.5637
54.6197
54.8081
54.691
55.1118
55.0681
54.9684
54.975
54.0208
53.5071
52.9704
53.6023
51.9774
49.0431
46.653
46.7919
50.1943
53.4404
51.5719
51.4966
51.4052
51.3064
51.2492
51.2554
51.2581
51.1684
50.9898
50.9404
50.9794
51.0817
51.3113
51.296
51.5147
51.408
51.9183
51.8399
51.7373
51.7859
50.7727
50.1833
49.6932
50.4604
48.8571
45.7171
43.1956
43.3461
46.9057
50.2916
48.1736
48.1465
48.1957
48.2239
48.1966
48.1825
48.161
48.0589
47.9293
47.8641
47.8473
47.8327
48.0313
47.9682
48.2332
48.179
48.7469
48.6174
48.5276
48.6031
47.5238
46.8461
46.4103
47.3307
45.7552
42.3859
39.7168
39.8827
43.6144
47.1542
44.8509
44.8064
44.9904
45.0313
44.9559
44.9554
45.0143
44.9133
44.8148
44.713
44.6552
44.5387
44.7205
44.6556
44.8748
44.9674
45.5996
45.3968
45.2834
45.4316
44.28
43.4936
43.12
44.2141
42.6734
39.0495
36.2151
36.4008
40.3201
44.029
41.6762
41.6494
41.6885
41.5623
41.4986
41.6313
41.8413
41.7832
41.7112
41.5361
41.4649
41.2863
41.4164
41.2955
41.4931
41.6091
42.3958
42.197
42.1031
42.2713
41.0233
40.1191
39.8253
41.1111
39.6133
35.7085
32.6889
32.8997
37.0227
40.9165
38.631
38.5802
38.4711
38.2239
38.1953
38.3932
38.6481
38.5292
38.4307
38.1534
38.1406
38.0269
38.111
37.8801
38.074
38.4085
39.3557
38.9752
38.8289
39.0969
37.7773
36.7359
36.506
38.0232
36.5766
32.3633
29.1362
29.3785
33.722
37.8176
35.4638
35.3897
35.2867
35.0522
34.9734
35.1446
35.28
35.3739
35.932
35.1558
34.7336
34.7443
34.786
34.4753
34.6231
35.0287
36.1283
35.7552
35.6689
36.0137
34.5236
33.2924
33.1961
34.9508
33.5654
29.0143
25.555
25.836
30.4177
34.7329
32.2537
32.2275
32.1594
32.0805
31.9598
31.9612
31.9566
32.0557
33.0037
32.1544
31.4271
31.4136
31.4707
31.0835
31.1163
31.665
33.0117
32.5415
32.4561
32.7984
31.2725
29.868
29.832
31.8962
30.5817
25.662
21.9424
22.2713
27.1097
31.6635
29.083
29.1044
29.0927
29.0633
28.929
28.7226
28.604
29.4087
30.1265
29.1204
28.125
28.0735
28.1556
27.6495
27.572
28.3149
30.0166
29.3086
29.2
29.7213
28.031
26.3563
26.477
28.86
27.6262
22.3072
18.2963
18.6835
23.7984
28.6105
25.9602
25.9791
26.0029
25.9927
25.8257
25.6094
25.4992
26.7479
26.2864
25.6539
24.8872
25.1067
24.8596
24.1408
24.0534
24.9227
27.0014
26.1814
25.9343
26.6435
24.8078
22.8229
23.1026
25.8474
24.7065
18.949
14.608
15.0723
20.4856
25.5746
22.7598
22.7807
22.7833
22.7524
22.6739
22.5227
22.3296
22.567
22.9678
22.3341
21.3718
21.6246
21.5414
20.557
20.5071
21.4341
23.971
23.0216
22.746
23.5188
21.5752
19.2961
19.7647
22.864
21.7999
15.5896
10.9007
11.4399
17.1732
22.5583
19.55
19.556
19.5466
19.4912
19.4722
19.435
19.0832
19.0668
19.6432
19.5437
18.5493
18.298
18.2788
17.507
16.6011
18.1867
20.8391
19.7142
19.5955
20.1214
18.3114
15.7973
16.2954
19.8902
18.9318
12.2204
6.78212
7.79256
13.8634
19.5623
16.3369
16.3292
16.3286
16.2662
16.2761
16.3092
15.7956
15.5864
16.4081
15.8917
14.7217
14.2074
14.896
13.5436
11.9306
14.1307
18.3869
16.5475
16.655
17.5014
15.1348
13.932
14.7638
16.9724
16.0232
8.86677
3.60647
4.13253
10.5661
16.5881
13.1429
13.13
13.1265
13.0537
13.012
13.1976
12.4592
12.2039
13.0058
11.8517
11.191
11.1106
11.6683
9.42169
7.81049
10.1785
15.6245
13.262
13.4991
15.9296
12.4113
9.52732
10.9702
14.2466
13.366
6.02032
0.0436803
0.734039
7.27743
13.6344
9.97221
9.97741
9.94861
9.90401
9.75541
9.84978
9.27313
9.12618
9.50701
9.01987
8.15186
7.68046
8.44787
6.06109
5.18754
6.65897
12.4905
10.1352
9.71064
12.3891
9.23268
6.49704
8.70095
10.8269
10.9654
6.80634
0.634597
0.0952034
3.9221
10.6814
6.8054
6.85588
6.83512
6.87561
6.749
6.6286
6.34715
6.14286
6.1929
5.82484
5.26562
4.69136
4.96861
3.10959
2.32818
3.97805
9.711
7.141
6.87403
10.0337
6.35252
3.17466
5.5502
7.8802
8.04487
4.67515
0.174299
0.275653
0.690258
7.73773
3.60856
3.72306
3.74762
3.87003
3.7886
3.43674
3.49313
3.21351
2.94226
2.44126
2.12691
1.41099
1.47401
-0.0166542
-0.678605
1.63152
7.04304
5.06793
4.19578
7.0266
3.11118
-0.126793
2.08119
4.59145
5.03343
1.71268
0.164795
0.0281966
-0.292835
4.03416
1.27702
1.17523
1.14328
1.05967
1.02165
0.630214
0.725644
0.706989
0.699551
0.443331
0.300456
0.0720327
0.0578929
-0.0567752
-0.340424
0.822663
4.26335
2.03258
1.18374
4.11036
1.39778
-0.287942
0.369355
1.40452
1.34123
0.265569
-0.0948136
-0.0641602
0.0527069
0.984508
-0.102132
-0.0911638
-0.052826
-0.0905306
-0.120559
-0.0653626
-0.095728
-0.192168
0.783927
3.42263
2.3232
-0.3258
-0.049094
0.462256
-0.117968
-0.0825124
-0.0523023
-0.0617601
-0.0700711
-0.0545056
-0.0779066
-0.0487788
-0.0731567
-0.0771079
-0.0715847
-0.0639503
-0.0643655
-0.0603592
-0.0600753
-0.0578673
-0.101102
-0.0935317
-0.0563338
-0.0927399
-0.123196
-0.104151
-0.110544
-0.106705
0.109104
1.01856
0.60199
-0.0856826
-0.0256094
0.430829
-0.125642
-0.0868352
-0.0509435
-0.0563015
-0.0748698
-0.078273
-0.08134
-0.0824049
-0.0822563
-0.0835966
-0.082638
-0.0824526
-0.0823231
-0.0822551
-0.0823766
-0.0827074
-0.103176
-0.0954541
-0.0601257
-0.0948526
-0.123969
-0.106114
-0.111902
-0.108895
-0.102617
-0.107212
-0.11667
-0.102107
-0.0225843
0.358205
-0.230519
-0.0550399
-0.0479292
-0.0674609
-0.073883
-0.0802759
-0.0830916
-0.0837437
-0.0841815
-0.0850532
-0.084759
-0.0845661
-0.0844186
-0.0842731
-0.084297
-0.0844454
-0.105219
-0.0979814
-0.0643297
-0.0969957
-0.12492
-0.108041
-0.113697
-0.110816
-0.103782
-0.107865
-0.116039
-0.113696
-0.0538095
-0.204907
-0.239481
-0.0781456
-0.0480944
-0.0705945
-0.0758585
-0.0823936
-0.0850587
-0.0858196
-0.0862389
-0.0870628
-0.0868154
-0.0865736
-0.0863714
-0.0862311
-0.0862112
-0.0862665
-0.1073
-0.100046
-0.0689605
-0.0993118
-0.126187
-0.110148
-0.11557
-0.112736
-0.106193
-0.110587
-0.118885
-0.117268
-0.0609032
-0.21942
-0.247812
-0.0390453
-0.0540774
-0.0742122
-0.0787736
-0.0846815
-0.087257
-0.0877555
-0.0884688
-0.0892407
-0.0890601
-0.0887861
-0.0885449
-0.0883847
-0.0883108
-0.0883304
-0.109501
-0.102375
-0.0739441
-0.101907
-0.127815
-0.112441
-0.11742
-0.114719
-0.107921
-0.112907
-0.121763
-0.120866
-0.0692879
-0.221351
-0.237083
-0.101769
-0.0626011
-0.0781741
-0.0819113
-0.0872129
-0.0896372
-0.0904716
-0.0910452
-0.0916054
-0.0914994
-0.0912247
-0.0909504
-0.090754
-0.0905791
-0.0906378
-0.111882
-0.105009
-0.0791008
-0.104806
-0.129678
-0.114883
-0.119222
-0.116782
-0.110539
-0.11543
-0.124892
-0.124218
-0.0793618
-0.218757
-0.217529
-0.110981
-0.0735948
-0.0820471
-0.0847024
-0.0900335
-0.0922218
-0.0931424
-0.093698
-0.0941881
-0.0941442
-0.0938981
-0.0935789
-0.0933877
-0.0927595
-0.0924508
-0.114453
-0.107925
-0.0842606
-0.107972
-0.131624
-0.117442
-0.12095
-0.118909
-0.113027
-0.118233
-0.128406
-0.127422
-0.090635
-0.203419
-0.190164
-0.112749
-0.0856501
-0.0866022
-0.0894956
-0.0930087
-0.0949464
-0.0959256
-0.0965247
-0.0969943
-0.0970232
-0.0968491
-0.0961918
-0.0958071
-0.0954959
-0.0955505
-0.117242
-0.111102
-0.0893456
-0.111361
-0.133465
-0.120175
-0.122792
-0.12127
-0.11655
-0.121395
-0.132323
-0.130744
-0.102064
-0.187409
-0.170837
-0.122503
-0.0900293
-0.0906773
-0.0930134
-0.0960144
-0.097818
-0.0988738
-0.099534
-0.100034
-0.100173
-0.0996661
-0.0988525
-0.0992197
-0.0999451
-0.0997298
-0.120276
-0.114547
-0.0944582
-0.114971
-0.135548
-0.12322
-0.124689
-0.124065
-0.120827
-0.124882
-0.136675
-0.134395
-0.112934
-0.175053
-0.157434
-0.0974501
-0.0931352
-0.0951945
-0.0970614
-0.0993193
-0.100808
-0.101995
-0.102748
-0.103328
-0.10364
-0.103341
-0.10363
-0.10368
-0.103571
-0.103412
-0.123582
-0.11828
-0.0997563
-0.118794
-0.137838
-0.126756
-0.126925
-0.12754
-0.1263
-0.129225
-0.141584
-0.136987
-0.122628
-0.167597
-0.151566
-0.114127
-0.0981515
-0.094705
-0.10086
-0.102578
-0.103958
-0.105324
-0.106252
-0.106923
-0.10736
-0.107625
-0.107673
-0.107674
-0.1077
-0.107718
-0.127188
-0.122325
-0.105324
-0.122807
-0.14043
-0.130859
-0.1297
-0.132048
-0.132804
-0.134305
-0.146909
-0.143376
-0.131328
-0.163428
-0.150603
-0.13364
-0.108043
-0.104359
-0.103263
-0.105691
-0.107489
-0.108991
-0.110055
-0.110891
-0.111451
-0.111798
-0.112022
-0.112219
-0.112285
-0.11231
-0.131123
-0.126709
-0.111188
-0.127012
-0.14332
-0.135335
-0.133132
-0.137353
-0.140013
-0.140274
-0.152325
-0.148346
-0.138645
-0.161164
-0.15063
-0.13863
-0.117846
-0.110557
-0.106193
-0.109304
-0.111555
-0.113304
-0.114512
-0.115418
-0.116083
-0.116564
-0.116896
-0.117116
-0.117257
-0.117344
-0.135417
-0.131435
-0.11739
-0.131524
-0.146463
-0.139805
-0.137234
-0.143231
-0.146682
-0.146362
-0.157167
-0.153125
-0.144936
-0.160603
-0.15265
-0.145177
-0.115917
-0.11404
-0.111392
-0.11386
-0.116542
-0.118183
-0.119406
-0.120392
-0.121134
-0.121716
-0.122136
-0.122437
-0.122629
-0.122751
-0.140102
-0.136538
-0.123939
-0.136423
-0.149935
-0.144195
-0.142103
-0.14946
-0.152117
-0.152539
-0.161428
-0.157514
-0.151882
-0.160712
-0.155067
-0.149237
-0.141298
-0.113872
-0.117102
-0.119908
-0.122947
-0.123955
-0.12498
-0.125924
-0.126754
-0.127339
-0.127847
-0.128163
-0.128381
-0.128516
-0.145212
-0.142051
-0.13085
-0.141765
-0.153844
-0.148847
-0.147727
-0.156038
-0.156662
-0.158807
-0.165096
-0.162096
-0.157606
-0.162343
-0.157803
-0.151376
-0.145325
-0.126816
-0.12093
-0.126115
-0.130814
-0.130539
-0.131137
-0.131964
-0.13278
-0.133453
-0.133953
-0.134295
-0.13451
-0.134629
-0.15078
-0.148006
-0.138145
-0.147589
-0.158278
-0.154035
-0.153757
-0.162884
-0.162103
-0.16532
-0.168629
-0.166706
-0.163094
-0.16498
-0.161263
-0.155171
-0.148616
-0.143722
-0.124005
-0.119994
-0.139141
-0.13751
-0.137495
-0.138173
-0.139137
-0.139855
-0.140427
-0.140857
-0.141082
-0.141155
-0.156845
-0.154437
-0.145846
-0.153927
-0.163295
-0.15984
-0.160068
-0.169445
-0.16898
-0.172071
-0.172706
-0.171357
-0.169156
-0.169269
-0.166087
-0.160273
-0.154654
-0.151391
-0.133985
-0.131181
-0.148361
-0.144087
-0.143451
-0.144541
-0.145304
-0.1457
-0.146322
-0.146752
-0.147467
-0.147594
-0.163446
-0.16138
-0.153981
-0.160811
-0.168957
-0.166251
-0.166741
-0.175119
-0.17674
-0.178669
-0.177344
-0.176702
-0.176129
-0.175228
-0.172828
-0.168238
-0.164305
-0.165115
-0.166154
-0.164831
-0.148797
-0.150422
-0.148534
-0.150307
-0.152151
-0.152142
-0.152987
-0.153806
-0.153802
-0.153857
-0.170625
-0.16887
-0.162586
-0.16828
-0.175298
-0.173289
-0.173962
-0.180298
-0.18505
-0.18466
-0.182326
-0.182526
-0.183584
-0.182895
-0.1814
-0.17772
-0.174007
-0.173162
-0.173309
-0.172346
-0.169685
-0.145053
-0.151947
-0.157709
-0.15896
-0.159851
-0.160031
-0.159645
-0.159689
-0.157064
-0.178428
-0.176946
-0.171701
-0.176371
-0.18236
-0.180973
-0.181797
-0.186299
-0.193234
-0.189898
-0.187306
-0.188528
-0.19134
-0.192363
-0.191823
-0.188315
-0.183998
-0.181502
-0.180232
-0.178917
-0.177299
-0.175507
-0.159475
-0.168678
-0.168838
-0.168842
-0.169235
-0.167448
-0.162637
-0.160196
-0.186904
-0.185643
-0.181383
-0.185128
-0.190193
-0.189324
-0.190228
-0.193408
-0.199966
-0.194896
-0.19173
-0.194326
-0.199948
-0.203346
-0.203477
-0.19945
-0.194129
-0.190201
-0.187616
-0.185528
-0.183565
-0.182122
-0.178668
-0.178897
-0.17957
-0.179055
-0.180031
-0.17533
-0.172868
-0.170855
-0.196105
-0.195032
-0.191658
-0.194596
-0.198805
-0.198373
-0.199277
-0.201482
-0.205662
-0.201435
-0.197461
-0.201536
-0.20983
-0.215428
-0.216046
-0.210811
-0.20437
-0.199438
-0.196132
-0.19397
-0.192612
-0.191483
-0.191715
-0.191622
-0.191629
-0.192211
-0.193166
-0.194122
-0.194085
-0.176537
-0.206085
-0.205187
-0.202562
-0.204827
-0.208264
-0.208164
-0.209007
-0.210545
-0.212896
-0.210063
-0.206226
-0.21088
-0.219921
-0.226286
-0.226479
-0.220971
-0.214492
-0.209547
-0.206272
-0.2043
-0.203006
-0.202956
-0.202716
-0.202627
-0.202562
-0.202623
-0.20278
-0.203061
-0.202584
-0.202804
-0.216905
-0.21617
-0.214163
-0.215876
-0.218624
-0.218752
-0.219494
-0.220609
-0.22207
-0.220493
-0.218142
-0.221392
-0.228525
-0.232826
-0.232831
-0.228554
-0.223755
-0.21987
-0.217274
-0.215733
-0.214937
-0.214469
-0.214143
-0.213874
-0.213629
-0.213435
-0.213314
-0.213261
-0.213262
-0.213263
-0.228626
-0.228041
-0.226538
-0.227806
-0.22994
-0.2302
-0.230817
-0.231651
-0.232479
-0.231714
-0.230466
-0.232495
-0.236378
-0.238681
-0.2382
-0.235747
-0.233022
-0.230598
-0.228893
-0.227784
-0.227075
-0.226575
-0.226178
-0.225832
-0.225519
-0.225231
-0.224952
-0.224758
-0.224549
-0.224362
-0.241318
-0.240865
-0.239787
-0.240687
-0.242274
-0.242581
-0.243061
-0.243676
-0.244098
-0.243793
-0.243249
-0.244341
-0.246687
-0.247623
-0.246799
-0.245314
-0.243821
-0.24241
-0.241342
-0.240552
-0.239978
-0.239533
-0.239166
-0.238846
-0.238556
-0.238265
-0.237981
-0.237863
-0.237617
-0.237417
-0.255056
-0.254715
-0.25401
-0.254597
-0.255694
-0.255976
-0.256311
-0.256741
-0.256931
-0.256813
-0.25656
-0.257123
-0.258428
-0.258907
-0.258225
-0.257336
-0.256465
-0.25562
-0.254929
-0.254367
-0.253917
-0.253534
-0.25318
-0.252826
-0.25246
-0.252016
-0.251658
-0.251167
-0.250818
-0.250464
-0.269922
-0.269686
-0.269307
-0.269624
-0.270272
-0.270472
-0.27067
-0.270927
-0.270994
-0.270937
-0.270835
-0.271084
-0.271675
-0.271895
-0.271471
-0.271021
-0.270563
-0.270088
-0.26964
-0.269215
-0.268809
-0.268408
-0.267995
-0.267571
-0.267141
-0.26669
-0.266334
-0.266021
-0.265731
-0.265601
-0.286014
-0.285885
-0.285802
-0.285871
-0.286086
-0.286164
-0.286222
-0.286316
-0.286289
-0.28625
-0.286217
-0.286309
-0.286499
-0.286568
-0.286415
-0.286295
-0.286173
-0.286043
-0.285912
-0.285775
-0.285635
-0.285494
-0.28536
-0.285248
-0.285179
-0.285177
-0.285264
-0.285373
-0.28564
-0.286091
-0.0557924
-0.0585217
-0.0575849
-0.069138
-0.0714806
-0.0739229
-0.0767173
-0.080786
-0.0835303
-0.0856033
-0.0903514
-0.0917065
-0.097597
-0.0977245
-0.0865992
-0.0890413
0.0826921
-0.0755207
-0.0587018
0.971931
-0.0188255
-0.0993208
-0.102473
-0.0496017
-0.0557841
-0.109785
-0.10441
-0.0672589
-0.0937491
-0.0955549
-0.0829699
-0.0825485
-0.0821616
-0.0817621
-0.0813845
-0.0807024
-0.0817672
-0.0821807
-0.0847264
-0.087574
-0.0910464
-0.0939388
-0.0975597
-0.0981443
-0.091312
-0.0925702
-0.100653
-0.0990076
-0.105743
-0.0724209
-0.107632
-0.101348
-0.105602
-0.108559
-0.0967041
-0.109109
-0.106904
-0.0702629
-0.095864
-0.0948324
-0.0845314
-0.0843484
-0.0840512
-0.0837106
-0.0833624
-0.0829157
-0.0836382
-0.0843697
-0.0867169
-0.0895434
-0.0932761
-0.0962363
-0.0996713
-0.100175
-0.0936248
-0.0940551
-0.100912
-0.100761
-0.107562
-0.106396
-0.106498
-0.103337
-0.107414
-0.109963
-0.0984021
-0.111377
-0.108912
-0.0728431
-0.0983009
-0.0969105
-0.0862839
-0.0861534
-0.085932
-0.0855861
-0.0853396
-0.0850194
-0.0856101
-0.0866147
-0.0888627
-0.0916971
-0.0956378
-0.0987783
-0.102052
-0.102503
-0.096003
-0.0958344
-0.102682
-0.103291
-0.109705
-0.108188
-0.108784
-0.105329
-0.109285
-0.111781
-0.100298
-0.113215
-0.110757
-0.0754237
-0.10133
-0.100256
-0.0883161
-0.0882747
-0.0881512
-0.087735
-0.0875281
-0.0873605
-0.0878647
-0.0889941
-0.0912236
-0.0941435
-0.0982675
-0.10168
-0.104727
-0.105103
-0.0986533
-0.0977806
-0.104323
-0.105698
-0.112088
-0.110414
-0.110953
-0.107381
-0.111198
-0.113639
-0.102412
-0.114628
-0.112493
-0.0782004
-0.103392
-0.102393
-0.089907
-0.0892405
-0.089843
-0.0903177
-0.090053
-0.0899626
-0.0904258
-0.0916403
-0.0939131
-0.0969779
-0.101284
-0.104975
-0.107811
-0.108044
-0.101555
-0.0998144
-0.106087
-0.108452
-0.114616
-0.113168
-0.113198
-0.109567
-0.113179
-0.115478
-0.104756
-0.116131
-0.114229
-0.0813385
-0.105478
-0.104672
-0.0922119
-0.0919286
-0.0933462
-0.0930273
-0.0928087
-0.0927979
-0.0933167
-0.094633
-0.0970175
-0.100243
-0.10463
-0.108514
-0.110866
-0.111269
-0.104462
-0.102035
-0.108064
-0.111227
-0.117343
-0.115823
-0.115671
-0.111959
-0.115288
-0.117317
-0.107312
-0.118075
-0.116118
-0.0849556
-0.107846
-0.107142
-0.096234
-0.0961676
-0.0961626
-0.0960092
-0.0958881
-0.0959774
-0.0965777
-0.0980013
-0.100472
-0.103735
-0.108477
-0.112549
-0.114535
-0.114746
-0.107466
-0.104474
-0.110316
-0.114269
-0.120284
-0.118757
-0.118619
-0.114646
-0.117602
-0.119198
-0.11007
-0.120557
-0.118445
-0.0891897
-0.110653
-0.109816
-0.0995885
-0.0994916
-0.0994424
-0.0993821
-0.0993567
-0.0995469
-0.100233
-0.101734
-0.104284
-0.107779
-0.112689
-0.116847
-0.119217
-0.11824
-0.110621
-0.107279
-0.112872
-0.117667
-0.123421
-0.121991
-0.122185
-0.117787
-0.120242
-0.121181
-0.113058
-0.123434
-0.121083
-0.0936912
-0.113866
-0.112714
-0.103334
-0.103355
-0.103261
-0.103237
-0.10327
-0.103538
-0.104287
-0.105813
-0.108384
-0.1122
-0.117003
-0.121106
-0.123053
-0.121635
-0.113988
-0.110541
-0.116012
-0.121265
-0.126719
-0.125554
-0.126514
-0.121439
-0.123358
-0.12345
-0.116357
-0.126514
-0.124035
-0.0983327
-0.117405
-0.115867
-0.107665
-0.107603
-0.107564
-0.107542
-0.107627
-0.107957
-0.108721
-0.110244
-0.112614
-0.116492
-0.121164
-0.125268
-0.126768
-0.12495
-0.117622
-0.114291
-0.119624
-0.125326
-0.130156
-0.129458
-0.131677
-0.125624
-0.127028
-0.126181
-0.120042
-0.129718
-0.127273
-0.103078
-0.121231
-0.1193
-0.112313
-0.112302
-0.112297
-0.112314
-0.112418
-0.11275
-0.11345
-0.114948
-0.117055
-0.120607
-0.125082
-0.128664
-0.130147
-0.128209
-0.121634
-0.118679
-0.123982
-0.129468
-0.133708
-0.133742
-0.137551
-0.130352
-0.131127
-0.129521
-0.124117
-0.133085
-0.130708
-0.108126
-0.125348
-0.123042
-0.117397
-0.117424
-0.117441
-0.117471
-0.117559
-0.117822
-0.118398
-0.119693
-0.121269
-0.12444
-0.128518
-0.131826
-0.133255
-0.131524
-0.126194
-0.123941
-0.128598
-0.133636
-0.137294
-0.138444
-0.143682
-0.13555
-0.135309
-0.13344
-0.128468
-0.136677
-0.134411
-0.113503
-0.129775
-0.127122
-0.122842
-0.122851
-0.122927
-0.122936
-0.122985
-0.123162
-0.123549
-0.124494
-0.126086
-0.128259
-0.131422
-0.134986
-0.136353
-0.135312
-0.131512
-0.129851
-0.133298
-0.137612
-0.140877
-0.143619
-0.149401
-0.14108
-0.139521
-0.137707
-0.133019
-0.140554
-0.138391
-0.119248
-0.134522
-0.131572
-0.128589
-0.128659
-0.128677
-0.128652
-0.128673
-0.128753
-0.128955
-0.129525
-0.130658
-0.132432
-0.134607
-0.137807
-0.139834
-0.139834
-0.137486
-0.136184
-0.137958
-0.141295
-0.144503
-0.149403
-0.154639
-0.146888
-0.144131
-0.142333
-0.137826
-0.144785
-0.142711
-0.125372
-0.139622
-0.136424
-0.134698
-0.13474
-0.134765
-0.134752
-0.134701
-0.134656
-0.134705
-0.134999
-0.13574
-0.137138
-0.13919
-0.141619
-0.144229
-0.145238
-0.144042
-0.142532
-0.142656
-0.144791
-0.148316
-0.156034
-0.160229
-0.153117
-0.149468
-0.147432
-0.143042
-0.149443
-0.147447
-0.131894
-0.145104
-0.141712
-0.141231
-0.141278
-0.141281
-0.141202
-0.141077
-0.140953
-0.140901
-0.141039
-0.141529
-0.142581
-0.144367
-0.146894
-0.149614
-0.151374
-0.150787
-0.148745
-0.147547
-0.148707
-0.152453
-0.16354
-0.16759
-0.1597
-0.155259
-0.153032
-0.148766
-0.154585
-0.152761
-0.138841
-0.150996
-0.147473
-0.147842
-0.148018
-0.147954
-0.147834
-0.147698
-0.147604
-0.147579
-0.147718
-0.148136
-0.149032
-0.150623
-0.152994
-0.15578
-0.15781
-0.157349
-0.15489
-0.152941
-0.15345
-0.157121
-0.171292
-0.176044
-0.166086
-0.161099
-0.159106
-0.155035
-0.160248
-0.158509
-0.146242
-0.157331
-0.153745
-0.154861
-0.154239
-0.155149
-0.155328
-0.155187
-0.155034
-0.154965
-0.15506
-0.155464
-0.156298
-0.157717
-0.159775
-0.162183
-0.163959
-0.163575
-0.16117
-0.159169
-0.159412
-0.162522
-0.177921
-0.183291
-0.172009
-0.167222
-0.165672
-0.161867
-0.166469
-0.164811
-0.154133
-0.164145
-0.160568
-0.142277
-0.163695
-0.16263
-0.161909