/*--------------------------------*- C++ -*----------------------------------*\
| =========                 |                                                 |
| \\      /  F ield         | OpenFOAM: The Open Source CFD Toolbox           |
|  \\    /   O peration     | Version:  2.4.0                                 |
|   \\  /    A nd           | Web:      www.OpenFOAM.org                      |
|    \\/     M anipulation  |                                                 |
\*---------------------------------------------------------------------------*/
FoamFile
{
    version     2.0;
    format      ascii;
    class       volScalarField;
    location    "0.03";
    object      p_rgh;
}
// * * * * * * * * * * * * * * * * * * * * * * * * * * * * * * * * * * * * * //

dimensions      [1 -1 -2 0 0 0 0];

internalField   nonuniform List<scalar> 
57600
(
97.9961
98.065
98.2178
98.3936
98.5221
98.493
98.1666
97.3984
96.0736
94.1335
91.573
88.4241
84.7524
80.6675
76.3239
71.9004
67.5713
63.485
59.7465
56.4146
53.5058
51.0113
48.9139
47.1926
45.8251
44.782
44.0257
43.5129
43.1982
43.039
97.9957
98.0973
98.2608
98.4337
98.5365
98.4506
98.0321
97.1403
95.6721
93.5828
90.8782
87.5977
83.8158
79.6528
75.2709
70.8503
66.5613
62.5432
58.892
55.6551
52.8402
50.4333
48.4142
46.7627
45.4567
44.4685
43.7609
43.2908
43.0127
42.8839
97.9947
98.0969
98.2608
98.4348
98.5402
98.4585
98.0462
97.1618
95.7017
93.6208
90.9252
87.6538
83.8787
79.7174
75.3304
70.8975
66.59
62.55
58.8767
55.6193
52.7836
50.3509
48.2971
46.6026
45.2502
44.2193
43.4785
42.9871
42.6984
42.5666
97.9931
98.0961
98.2607
98.4363
98.5454
98.4703
98.0675
97.195
95.7479
93.6806
91
87.7438
83.9802
79.8221
75.4267
70.9734
66.6352
62.5583
58.8482
55.5579
52.6909
50.2199
48.1136
46.3517
44.9238
43.8213
43.0239
42.4964
42.1911
42.0565
97.9908
98.0949
98.2603
98.4382
98.5521
98.4859
98.0961
97.2398
95.8104
93.762
91.1023
87.8678
84.121
79.9677
75.5609
71.0791
66.6976
62.5683
58.806
55.4712
52.5644
50.0464
47.8725
46.0178
44.4805
43.2689
42.382
41.7982
41.4705
41.3367
97.9879
98.0934
98.2597
98.4402
98.5604
98.5053
98.1319
97.2961
95.8893
93.8649
91.2322
88.0259
84.3013
80.1552
75.7344
71.2164
66.7787
62.5805
58.7495
55.3585
52.4073
49.8393
47.5875
45.6154
43.9278
42.556
41.5296
40.8555
40.4982
40.3793
97.9842
98.0914
98.2589
98.4426
98.5701
98.5283
98.1748
97.3638
95.9844
93.9891
91.3892
88.2181
84.5219
80.3856
75.9488
71.3871
66.8804
62.5955
58.677
55.2179
52.2219
49.6098
47.2788
45.1679
43.2831
41.681
40.4332
39.5995
39.1926
39.1277
97.9798
98.0891
98.2578
98.4451
98.5812
98.555
98.2247
97.4428
96.0957
94.1344
91.5732
88.4445
84.7833
80.6605
76.2063
71.5939
67.0054
62.6143
58.586
55.0449
52.0086
49.3712
46.9748
44.713
42.581
40.6579
39.058
37.9063
37.3363
37.3892
97.9746
98.0864
98.2565
98.4478
98.5936
98.5851
98.2813
97.5331
96.223
94.3006
91.7839
88.7052
85.0865
80.9817
76.5093
71.8398
67.157
62.6384
58.4725
54.8309
51.7634
49.1376
46.7142
44.3081
41.8837
39.5368
37.4119
35.6239
34.2982
34.1344
97.9686
98.0833
98.2549
98.4507
98.6072
98.6185
98.3447
97.6345
96.3662
94.4873
92.0208
89
85.4323
81.351
76.8607
72.1287
67.3397
62.6703
58.3311
54.561
51.4735
48.9209
46.5475
44.0364
41.2904
38.4202
35.6217
32.9127
30.0618
33.0423
97.9617
98.0798
98.2531
98.4536
98.6219
98.6552
98.4146
97.7469
96.5253
94.6943
92.2833
89.3288
85.8217
81.7708
77.2638
72.4645
67.5592
62.7147
58.1554
54.2119
51.1107
48.725
46.5378
44.0142
40.9476
37.4474
33.8587
30.5547
28.0758
26.4498
97.9539
98.076
98.2509
98.4565
98.6377
98.6949
98.4908
97.87
96.7
94.921
92.5707
89.6915
86.2556
82.2435
77.7224
72.8517
67.8222
62.7793
57.9391
53.7491
50.6202
48.5344
46.7629
44.3987
41.0724
36.7981
31.944
27.7908
25.7669
24.4243
97.9449
98.0717
98.2483
98.4594
98.6543
98.7374
98.5731
98.0038
96.8903
95.167
92.882
90.0875
86.7353
82.7721
78.2406
73.295
68.1368
62.8772
57.6779
53.1262
49.9041
48.291
47.3243
45.3876
42.025
36.8767
29.6945
3.98665
2.90674
0.836161
97.9349
98.0671
98.2455
98.4622
98.6717
98.7825
98.6613
98.148
97.096
95.432
93.2162
90.5163
87.2615
83.3596
78.8231
73.7988
68.5111
63.0287
57.3745
52.2851
48.7975
47.8399
48.4038
47.2953
37.2359
0.174085
0.166782
0.159353
0.168005
0.175789
97.9235
98.0621
98.2422
98.4647
98.6897
98.83
98.7551
98.3024
97.317
95.7153
93.5718
90.977
87.8356
84.0094
79.4754
74.3672
68.9515
63.2643
57.0475
51.1452
47.025
46.7964
48.1542
0.105409
0.0936052
0.131559
0.149232
0.153553
0.158333
0.166099
97.9108
98.0567
98.2385
98.4671
98.7082
98.8797
98.8542
98.4667
97.5534
96.0167
93.9471
91.4685
88.4582
84.7254
80.2042
75.004
69.4578
63.6259
56.7469
49.5255
44.61
0.61147
0.0825746
0.0950618
0.105882
0.128416
0.14348
0.145871
0.148166
0.148786
97.8965
98.0509
98.2343
98.469
98.727
98.9313
98.9583
98.6408
97.8052
96.3355
94.3399
91.989
89.1302
85.5114
81.0172
75.7139
70.0154
64.1591
56.4986
46.93
0.0446342
0.114597
0.0879873
0.0971074
0.111329
0.131388
0.137765
0.136663
0.138819
0.139147
97.8804
98.0449
98.2297
98.4705
98.7459
98.9845
99.067
98.8242
98.0724
96.6715
94.7477
92.5365
89.8522
86.3717
81.9245
76.5058
70.5789
64.8756
56.8437
-0.3951
0.115602
0.0826337
0.0804225
0.0921198
0.106914
0.120469
0.127512
0.130961
0.131491
0.131393
97.8622
98.0385
98.2246
98.4715
98.7647
99.039
99.18
99.0168
98.3553
97.0247
95.1671
93.1082
90.6245
87.3106
82.9379
77.3995
71.0455
65.697
43.0469
0.0899059
0.0741834
0.067912
0.0724887
0.0874677
0.100065
0.114594
0.124443
0.124307
0.125032
0.124922
97.8417
98.0319
98.2189
98.4718
98.7833
99.0944
99.2969
99.218
98.6541
97.395
95.594
93.7005
91.447
88.3319
84.0706
78.438
71.2341
66.9006
0.163253
0.064758
0.0641786
0.0643139
0.0693495
0.103085
0.095904
0.109904
0.116329
0.118647
0.119324
0.119253
97.8182
98.0251
98.2126
98.4715
98.8014
99.1505
99.4172
99.4275
98.9693
97.7833
96.0233
94.3091
92.3192
89.439
85.3357
79.6975
70.9452
-18.4245
0.135661
0.067401
0.0662427
0.0672529
0.0716396
0.0948386
0.0961047
0.106484
0.111532
0.113582
0.114227
0.114158
97.7915
98.0181
98.2056
98.4702
98.8188
99.2067
99.5404
99.6448
99.3011
98.1911
96.4484
94.9284
93.2399
90.6346
86.7374
81.2756
69.7986
0.267736
0.0915658
0.0706315
0.0699374
0.0725546
0.0790652
0.0898862
0.097371
0.103742
0.107454
0.10915
0.109704
0.109622
97.7608
98.0111
98.198
98.4681
98.8352
99.2628
99.666
99.8694
99.6499
98.6207
96.8607
95.5514
94.2074
91.9202
88.283
83.2193
72.3783
0.189914
0.0801837
0.0745265
0.0742679
0.0771446
0.083249
0.0908932
0.096862
0.10126
0.103954
0.105271
0.105698
0.105584
97.7254
98.0041
98.1896
98.4648
98.8504
99.3181
99.7933
100.101
100.016
99.0767
97.2491
96.1699
95.2192
93.2959
89.9629
85.3774
69.0763
0.114499
0.0837762
0.0781847
0.0776854
0.0803186
0.0853646
0.0910636
0.0956261
0.0988445
0.10082
0.101797
0.102081
0.101911
97.6843
97.9973
98.1804
98.4605
98.864
99.3723
99.9218
100.338
100.4
99.566
97.5982
96.7737
96.2721
94.761
91.7659
87.4377
-1.19024
0.116803
0.0873528
0.0808534
0.0801211
0.0822929
0.0862985
0.0905914
0.0940386
0.0964383
0.0978865
0.0985732
0.0987105
0.0984715
97.6361
97.9907
98.1704
98.4548
98.8755
99.4245
100.051
100.582
100.8
100.1
97.886
97.3511
97.3619
96.3139
93.6806
89.8868
1.95312
0.185305
0.0878276
0.0824441
0.0816903
0.083383
0.0864655
0.0896648
0.0922379
0.0940091
0.0950417
0.0954795
0.0954759
0.0951616
97.5791
97.9846
98.1594
98.4478
98.8842
99.4741
100.18
100.832
101.216
100.694
98.0804
97.8886
98.4838
97.9522
95.6938
92.6653
-0.0297214
0.109692
0.0871857
0.0831711
0.0825148
0.0837737
0.0860538
0.0883913
0.0902658
0.0915281
0.0922156
0.0924348
0.0922981
0.0919068
97.5114
97.979
98.1475
98.4393
98.8889
99.5198
100.308
101.089
101.643
101.376
98.1304
98.3711
99.6319
99.6731
97.7961
95.1147
0.0781811
0.0924703
0.0851841
0.0832082
0.0826943
0.0835709
0.0851796
0.0868268
0.0881308
0.088969
0.0893611
0.089385
0.0891254
0.0886596
97.4301
97.9742
98.1345
98.4292
98.888
99.5597
100.436
101.355
102.077
102.182
97.95
98.7822
100.8
101.472
99.9892
96.825
-0.0464636
0.0742157
0.0828359
0.0826808
0.0823396
0.0828708
0.0839173
0.0849991
0.0858294
0.0863077
0.0864455
0.0862954
0.0859226
0.0853863
97.3345
97.97
98.1203
98.4172
98.879
99.5905
100.566
101.637
102.505
103.172
97.3847
99.1022
101.982
103.344
102.279
90.5659
-0.0748723
0.0713528
0.0811816
0.081864
0.0815662
0.0817525
0.0823145
0.0829219
0.0833537
0.0835264
0.0834432
0.0831392
0.0826641
0.0820626
42.9981
43.0579
43.2422
43.5876
44.1364
44.9341
46.0263
47.4531
49.2486
51.4389
54.047
57.0899
60.5696
64.4588
68.6852
73.1311
77.639
82.0256
86.1045
89.7132
92.7359
95.1097
96.822
97.9113
98.4722
98.6414
98.5704
98.3915
98.1985
98.0498
42.8685
42.9597
43.1866
43.588
44.208
45.0925
46.2853
47.8222
49.7327
52.0407
54.7686
57.9329
61.5304
65.5236
69.8269
74.3103
78.8082
83.1337
87.1044
90.5687
93.4255
95.6251
97.1681
98.1074
98.5509
98.6423
98.5312
98.3408
98.1545
98.0258
42.5533
42.6504
42.888
43.3066
43.9526
44.8722
46.1065
47.6854
49.633
51.9706
54.7224
57.9089
61.5296
65.5459
69.8692
74.3671
78.873
83.1995
87.1655
90.6214
93.4682
95.658
97.1916
98.1227
98.5595
98.6464
98.5326
98.3409
98.1541
98.0252
42.0479
42.1553
42.4098
42.8558
43.5442
44.522
45.8242
47.4703
49.475
51.857
54.6449
57.8667
61.5255
65.5804
69.9371
74.4592
78.9778
83.3058
87.2635
90.705
93.5354
95.7092
97.2279
98.146
98.5725
98.6523
98.5344
98.3408
98.1533
98.0242
41.3396
41.463
41.7397
42.2233
42.9746
44.0405
45.4432
47.1842
49.2652
51.7034
54.537
57.8061
61.5184
65.6279
70.0319
74.5876
79.1238
83.4531
87.3986
90.8197
93.627
95.7786
97.277
98.1772
98.5897
98.66
98.5366
98.3404
98.1521
98.0227
40.4108
40.5584
40.8575
41.3867
42.2298
43.4271
44.9728
46.8394
49.0129
51.5141
54.3991
57.7264
61.5086
65.6899
70.155
74.7536
79.3117
83.6421
87.5712
90.9653
93.7428
95.8662
97.3386
98.2163
98.6111
98.6694
98.5391
98.3399
98.1505
98.0208
39.2363
39.4222
39.7226
40.3016
41.2883
42.6851
44.4302
46.4551
48.7313
51.2935
54.2303
57.6262
61.4964
65.7682
70.3086
74.9591
79.543
83.8734
87.7814
91.1418
93.8828
95.9718
97.4128
98.2632
98.6366
98.6804
98.542
98.3391
98.1485
98.0186
37.6911
38.0105
38.2142
38.8707
40.1223
41.8308
43.8477
46.0612
48.4374
51.0454
54.0273
57.5028
61.4823
65.8651
70.4952
75.206
79.8192
84.1482
88.0296
91.3492
94.0466
96.0953
97.4994
98.3176
98.666
98.6931
98.5451
98.3381
98.1461
98.0159
37.2717
36.0369
35.7567
36.9127
38.7274
40.9111
43.2809
45.7013
48.1521
50.77
53.7827
57.3514
61.4672
65.9841
70.718
75.497
80.1421
84.4673
88.3161
91.5871
94.2341
96.2365
97.5982
98.3796
98.6993
98.7072
98.5485
98.3367
98.1433
98.0129
32.2201
34.7034
30.9564
34.4213
37.2052
40.0269
42.8189
45.4374
47.898
50.4604
53.4823
57.1652
61.4525
66.1294
70.9807
75.835
80.5139
84.8321
88.6412
91.8556
94.4449
96.3951
97.709
98.4488
98.7364
98.7228
98.5521
98.3351
98.1401
98.0096
24.6963
24.2512
27.9956
32.1148
35.7952
39.3337
42.5928
45.354
47.6948
50.0947
53.1016
56.9349
61.4415
66.3068
71.2877
76.2232
80.937
85.2439
89.0053
92.1541
94.6786
96.5711
97.8317
98.5251
98.777
98.7397
98.5558
98.3332
98.1365
98.006
22.7274
22.5156
25.2671
29.9402
34.6576
39.0126
42.7903
45.5649
47.5479
49.6235
52.6026
56.6493
61.4401
66.5239
71.6435
76.6651
81.4141
85.7042
89.4088
92.4823
94.9349
96.764
97.966
98.6083
98.8209
98.7577
98.5595
98.3309
98.1324
98.0022
0.422225
1.19697
2.34847
28.024
33.7083
39.2698
43.6972
46.2262
47.4223
48.9495
51.9314
56.2968
61.4593
66.7895
72.0528
77.1647
81.9482
86.2146
89.8517
92.8396
95.213
96.9737
98.1117
98.6982
98.868
98.7768
98.5632
98.3282
98.128
97.9981
0.178323
0.173652
0.159917
0.129635
0.0907381
6.83237
45.9804
47.5819
47.1828
47.8947
51.0203
55.8687
61.5183
67.1141
72.52
77.7263
82.5427
86.7768
90.3344
93.2253
95.5125
97.1999
98.2684
98.7944
98.9181
98.7968
98.5668
98.3251
98.1231
97.9939
0.16499
0.155971
0.145281
0.128572
0.120508
0.143445
0.0881982
27.0856
46.4014
46.1474
49.7799
55.3657
61.6473
67.5075
73.0483
78.3546
83.2013
87.3924
90.8567
93.6383
95.8326
97.4424
98.4359
98.8966
98.9708
98.8175
98.5701
98.3216
98.1178
97.9896
0.147862
0.144508
0.138174
0.129315
0.122552
0.114075
0.0930428
0.0652208
0.0987498
43.4005
47.958
54.8332
61.8901
67.9746
73.6398
79.0554
83.9283
88.0634
91.4186
94.0773
96.1726
97.701
98.6138
99.0045
99.0259
98.8387
98.5732
98.3175
98.1121
97.9851
0.13819
0.135913
0.131949
0.128479
0.125842
0.113665
0.0967353
0.0798825
0.0960692
0.0832601
44.5427
54.7515
62.3031
68.5063
74.2944
79.8356
84.7283
88.7913
92.0196
94.5408
96.5314
97.9754
98.8018
99.1179
99.0831
98.8603
98.5759
98.3129
98.106
97.9807
0.130613
0.129061
0.126476
0.122749
0.118191
0.108018
0.0894585
0.0741609
0.073197
0.0848296
0.0726624
55.4622
62.9264
69.0633
75.0121
80.7047
85.6064
89.578
92.6591
95.0266
96.9083
98.2657
98.9995
99.2361
99.1422
98.8822
98.5781
98.3077
98.0995
97.9763
0.124293
0.123126
0.121288
0.118532
0.113726
0.101803
0.0824308
0.0682849
0.0613828
0.0652861
0.096578
-5.78233
63.7186
69.5571
75.7977
81.6749
86.5683
90.4249
93.3361
95.5321
97.3021
98.5719
99.2063
99.359
99.2027
98.904
98.5796
98.3019
98.0925
97.972
0.118715
0.117734
0.116197
0.11381
0.10929
0.0981671
0.080286
0.0698969
0.057711
0.0617781
0.0757481
0.0714812
65.8982
69.8962
76.6728
82.7623
87.6195
91.3329
94.049
96.0537
97.7118
98.894
99.4218
99.4859
99.2643
98.9255
98.5805
98.2954
98.0851
97.9679
0.113665
0.112784
0.111372
0.109071
0.104723
0.09574
0.0838146
0.0846645
0.0605294
0.0628114
0.0657892
0.115402
-0.279232
69.8035
77.6976
83.9852
88.7653
92.3029
94.796
96.5871
98.1364
99.2326
99.6454
99.6164
99.3267
98.9467
98.5804
98.2882
98.0773
97.964
0.109155
0.108321
0.106963
0.104756
0.100942
0.0942503
0.0849453
0.074227
0.065569
0.0633228
0.0614812
0.0478762
-0.0409677
75.5819
78.9924
85.3638
90.0101
93.3347
95.5747
97.1266
98.5751
99.5881
99.8764
99.7501
99.3894
98.9673
98.5793
98.2802
98.0691
97.9606
0.105118
0.104302
0.102985
0.100907
0.0975913
0.0924263
0.0853816
0.0768487
0.069011
0.0645631
0.0604008
0.0494455
0.057433
7.48141
80.7222
86.91
91.3563
94.4272
96.3821
97.6646
99.0274
99.9615
100.114
99.8864
99.452
98.987
98.577
98.2713
98.0605
97.9576
0.101428
0.100616
0.0993412
0.0974023
0.0944893
0.0902544
0.0845562
0.0775857
0.0706616
0.0655012
0.0608336
0.055037
0.065098
11.7423
82.89
88.6252
92.8044
95.578
97.2149
98.1912
99.4936
100.354
100.357
100.025
99.5142
99.0059
98.5735
98.2616
98.0515
97.9553
0.0979586
0.0971457
0.0959105
0.0940977
0.0914905
0.087855
0.0830491
0.0771832
0.0710723
0.0659312
0.0615392
0.059089
0.069933
0.251857
84.995
90.4997
94.352
96.783
98.0692
98.6929
99.9753
100.767
100.604
100.164
99.5755
99.0238
98.5683
98.2508
98.042
97.9538
0.0946121
0.0937924
0.0925904
0.0908821
0.0885065
0.0852896
0.0811148
0.076055
0.0706247
0.0657585
0.0617985
0.0608518
0.072795
0.207338
86.5137
92.5149
95.9944
98.0357
98.9414
99.151
100.476
101.202
100.855
100.305
99.6357
99.0409
98.5614
98.239
98.0322
97.9533
0.0913172
0.0904857
0.0893087
0.0876843
0.0854853
0.0825768
0.0788655
0.0743985
0.0695171
0.0649355
0.0613043
0.0603721
0.0680647
0.103275
89.1527
94.6393
97.7247
99.3271
99.8284
99.5391
101.004
101.661
101.108
100.445
99.6947
99.0578
98.5523
98.226
98.0218
97.9541
0.0880279
0.0871804
0.0860202
0.0844606
0.0823971
0.0797217
0.0763567
0.0723284
0.0678693
0.0635025
0.0599465
0.0582843
0.0604875
0.028701
95.597
96.8323
99.5349
100.644
100.728
99.8191
101.574
102.144
101.363
100.584
99.7528
99.0756
98.5407
98.2117
98.0111
97.9563
0.0847115
0.0838448
0.0826936
0.0811825
0.0792232
0.0767255
0.0736208
0.0699172
0.0657722
0.0615486
0.0578239
0.0552714
0.0533851
0.0409248
72.992
99.0534
101.416
101.967
101.642
99.9347
102.213
102.647
101.623
100.719
99.8109
99.097
98.5258
98.196
97.9998
97.9603
0.0813471
0.0804582
0.0793085
0.0778321
0.0759519
0.0735891
0.0706791
0.0672152
0.0632968
0.059162
0.0551676
0.0516225
0.04708
0.0585488
27.0916
101.29
103.358
103.27
102.574
99.8005
102.972
103.159
101.894
100.847
99.871
99.1263
98.5066
98.1787
97.9882
97.9666
-0.00270784
2.46937
23.496
84.4682
98.8641
99.6054
100.676
101.886
102.836
104.17
96.449
99.2733
102.955
104.914
104.249
64.2301
0.00524755
0.0725816
0.0805412
0.0811878
0.0807411
0.0806263
0.0808302
0.0810973
0.0812443
0.0811974
0.0809507
0.0805319
0.0799787
0.0793264
-0.00271854
0.0023909
0.00508762
0.00860748
0.012466
29.8625
100.751
102.061
103.028
104.922
95.5526
99.3186
103.578
105.936
105.57
37.3136
0.0790948
0.0746716
0.0804505
0.0808065
0.0801868
0.0798696
0.0798521
0.0799113
0.0798841
0.0797006
0.0793496
0.0788546
0.0782467
0.0775559
-0.00233442
0.00238498
0.00507796
0.00853672
0.0124754
0.0194364
0.0336475
102.279
103.205
105.864
94.2824
99.2913
104.256
107.055
107.083
14.3447
0.0907777
0.0774892
0.0805292
0.0803439
0.0794729
0.078926
0.0786808
0.0785329
0.0783339
0.0780159
0.0775638
0.0769947
0.0763339
0.0756066
-0.00198044
0.00238083
0.0050678
0.00844057
0.0124742
0.0194768
0.0332671
0.0603584
103.34
107.058
92.3982
99.121
104.998
108.278
108.868
6.25417
0.0766551
0.0807235
0.0807554
0.0797842
0.0785786
0.0777713
0.0772898
0.0769363
0.0765695
0.0761201
0.0755703
0.07493
0.0742182
0.0734567
-0.00163394
0.00238029
0.00505871
0.00839494
0.0124696
0.0194962
0.0331643
0.061326
0.0723744
108.614
89.591
98.6661
105.817
109.607
110.937
0.0243474
0.0923492
0.0839741
0.0810373
0.0790981
0.0774705
0.0763692
0.0756418
0.0750844
0.0745549
0.07398
0.0733364
0.0726283
0.0718687
0.0710757
-0.0013021
0.00238161
0.00504774
0.00835902
0.0124542
0.0194869
0.0330412
0.0616834
0.0647889
0.153518
85.4952
97.5562
106.723
111.038
113.33
0.387209
0.107542
0.0868842
0.0812476
0.0782328
0.0761034
0.0746752
0.0736945
0.0729368
0.0722518
0.0715603
0.07083
0.0700586
0.0692556
0.068434
-0.000993263
0.00238413
0.00503319
0.00832324
0.0124225
0.0194376
0.032894
0.0612619
0.080665
0.240709
-11.7088
94.7331
107.716
112.553
115.88
0.193254
0.111253
0.0891864
0.0812269
0.0771015
0.0744105
0.0726287
0.0713924
0.0704423
0.0696132
0.0688152
0.0680081
0.0671812
0.0663403
0.0654937
-0.000713708
0.00238673
0.00501408
0.00827079
0.012368
0.0193335
0.0326189
0.0600165
0.0923679
-0.00335404
-0.0293682
87.2853
108.712
114.127
118.067
0.276063
0.11441
0.0905722
0.0807765
0.0755818
0.0722995
0.0701509
0.0686648
0.0675368
0.0665807
0.0656907
0.0648199
0.0639496
0.0630795
0.0622144
-0.000466314
0.00239019
0.00498935
0.00821326
0.0122847
0.0191577
0.0321174
0.0580155
0.0350792
0.0543945
0.0421909
68.7298
109.325
115.736
122.351
0.288046
0.115492
0.0906737
0.079666
0.073514
0.069647
0.0671386
0.0654217
0.0641412
0.0630822
0.0621234
0.0612072
0.060309
0.0594213
0.0585465
-0.000251679
0.00239219
0.00495792
0.00813708
0.0121654
0.0188909
0.0313315
0.0549297
0.00753725
-0.0143347
0.0447629
16.5071
107.826
117.393
108.472
0.161541
0.109078
0.0891921
0.0776587
0.0707018
0.0662934
0.0634597
0.0615518
0.0601594
0.0590337
0.0580387
0.0571039
0.0561978
0.0553093
0.0544374
-6.90559e-05
0.00239148
0.00491903
0.00802256
0.0120018
0.0185097
0.0302256
0.0504586
0.0232574
-0.0594542
0.0307136
-0.740654
97.7591
119.316
20.0771
0.024042
0.100418
0.0861605
0.0745313
0.0669035
0.0620281
0.0589392
0.05691
0.0554682
0.0543319
0.0533454
0.0524273
0.0515413
0.050674
0.0498219
8.33654e-05
0.00238834
0.00487188
0.00787462
0.0117869
0.0179928
0.0287141
0.0446738
-0.0322856
-0.0671211
-0.00526248
-0.0809597
51.043
122.241
-0.0857848
0.0439113
0.0924077
0.0819842
0.0700595
0.0618168
0.0565811
0.0533565
0.0513171
0.0499218
0.0488545
0.0479392
0.0470867
0.0462588
0.0454409
0.0446302
0.000208885
0.00238331
0.00481532
0.0077043
0.0115133
0.0173231
0.0267627
0.0380708
-0.0248811
-0.064847
-0.027585
-0.131928
-39.6456
127.845
0.49709
0.0597135
0.0906082
0.0770355
0.0639184
0.055034
0.0495978
0.046428
0.0445529
0.0433494
0.0424642
0.0417081
0.0409887
0.0402689
0.039538
0.0387959
0.000310582
0.00237636
0.00474619
0.00752729
0.0111709
0.0164876
0.0243874
0.0310419
-0.0142911
-0.051689
-0.0484909
-0.232465
63.1282
145.099
0.419551
0.158136
0.0942322
0.0707916
0.0554687
0.0459495
0.0405908
0.0377888
0.0363504
0.0355541
0.035013
0.0345362
0.0340384
0.0334927
0.032897
0.0322584
0.000390067
0.00236442
0.00466044
0.00733215
0.0107494
0.0154763
0.0216588
0.0239913
-0.0102287
-0.039818
-0.0685913
1.56248
116.46
-4.03566
0.546497
0.177973
0.0926577
0.0612478
0.0434927
0.0336366
0.0289058
0.0270043
0.0264237
0.0263453
0.0263729
0.0263346
0.026173
0.0258834
0.0254812
0.0249885
0.000448482
0.00234457
0.00455535
0.00709787
0.0102404
0.014284
0.0186662
0.017244
-0.0109538
-0.0351085
-0.108674
140.565
143.42
-0.653458
0.169341
0.124274
0.0762616
0.0451101
0.0258959
0.0166843
0.0136869
0.01359
0.0145084
0.0155809
0.0164697
0.0170706
0.0173831
0.017446
0.017306
0.0170074
0.000488395
0.00231402
0.00442864
0.00681791
0.00963966
0.0129169
0.0154764
0.0109744
-0.0138927
-0.0369688
-0.121212
180.326
172.362
-0.00309264
-0.0313747
0.0479955
0.0404926
0.0177356
-0.000761664
-0.00691725
-0.00602376
-0.00284066
0.00049584
0.0032819
0.00538074
0.0068446
0.00778049
0.00829642
0.0084879
0.00843245
0.00051362
0.00227058
0.00427796
0.00648903
0.00894634
0.0113947
0.0121801
0.0052641
-0.0177678
-0.0432916
-0.116684
191.503
183.784
-0.0682811
-0.142976
-0.0698986
-0.0296083
-0.0298162
-0.0423023
-0.0395959
-0.0308172
-0.0221734
-0.0152809
-0.0101742
-0.00652689
-0.00400144
-0.00232006
-0.00127125
-0.000695371
-0.000471348
0.000526322
0.00221228
0.00410004
0.00611022
0.00816342
0.00974963
0.00888891
0.00017299
-0.0218929
-0.0511876
-0.118438
190.339
190.911
-0.370642
-0.262954
-0.300324
-0.196624
-0.115561
-0.108277
-0.0823927
-0.0594719
-0.0429527
-0.0315748
-0.0237762
-0.0184229
-0.0147669
-0.0123087
-0.0107123
-0.00974194
-0.00923126
0.000527269
0.0021373
0.00389182
0.00568144
0.00730044
0.00802635
0.00571813
-0.0042422
-0.0256986
-0.0580261
-0.140828
12.6207
202.886
-0.206368
-0.468389
-0.786232
-0.584823
-0.311417
-0.194056
-0.127714
-0.0859687
-0.0612547
-0.0457688
-0.035668
-0.0289068
-0.0243296
-0.0212383
-0.0191904
-0.0178905
-0.0171348
0.000517537
0.00204423
0.00365316
0.0052047
0.00637508
0.006283
0.00278217
-0.00791092
-0.0286596
-0.0616348
-0.139251
-0.193827
-0.238591
-0.292774
-0.703977
-1.34326
-1.03696
-0.485604
-0.252642
-0.147638
-0.0983889
-0.071045
-0.0542942
-0.0434579
-0.0362101
-0.0312804
-0.027917
-0.0256509
-0.0241715
-0.0232651
0.000498748
0.00193104
0.00338419
0.00468503
0.0054119
0.0045865
0.000189049
-0.01075
-0.0303504
-0.0609468
-0.117486
-0.173373
-0.165888
-0.237459
-0.765866
-1.48785
-1.17239
-0.490874
-0.209794
-0.127343
-0.0905915
-0.0688385
-0.0548041
-0.0453806
-0.0388986
-0.0343854
-0.0312386
-0.0290694
-0.0276114
-0.0266788
0.000472269
0.00179617
0.00308435
0.00413029
0.00444166
0.00300714
-0.00196195
-0.0126786
-0.0305381
-0.056729
-0.093862
-0.126414
-0.139882
-0.234238
-0.56003
-0.993084
-0.802447
-0.345148
-0.150848
-0.0949006
-0.0715525
-0.0576511
-0.0482046
-0.0415081
-0.0366837
-0.033191
-0.0306676
-0.0288637
-0.0276003
-0.0267457
0.000437884
0.0016399
0.00275535
0.00355297
0.00350009
0.00161649
-0.00358721
-0.0136429
-0.0292182
-0.0501461
-0.0743514
-0.0928805
-0.109544
-0.151835
-0.253489
-0.408211
-0.346798
-0.156345
-0.0876103
-0.0623649
-0.0502412
-0.0428261
-0.0375805
-0.0336526
-0.0306584
-0.0283683
-0.0266204
-0.0252966
-0.0243045
-0.0235723
0.000394914
0.00146234
0.00240025
0.00296791
0.00262521
0.000480474
-0.00462648
-0.013635
-0.026573
-0.042284
-0.0575125
-0.0661008
-0.0635578
0.0152397
-0.0295715
-0.102576
-0.0831097
-0.0571093
-0.0429259
-0.0355365
-0.0313117
-0.0284395
-0.0262164
-0.0243918
-0.0228664
-0.0215885
-0.0205184
-0.0196245
-0.0188793
-0.0182575
0.000343606
0.001263
0.00202307
0.00238973
0.00185336
-0.000348069
-0.00504963
-0.0127063
-0.0228717
-0.0339188
-0.0426252
-0.0439938
-0.0303335
0.0097015
-0.00135102
-0.0268223
-0.027646
-0.0228457
-0.0198907
-0.0185191
-0.0178142
-0.0172844
-0.0167518
-0.0161785
-0.0155738
-0.0149591
-0.0143509
-0.013761
-0.0131967
-0.0126601
0.000283916
0.00104107
0.00162737
0.00183319
0.00121403
-0.000835244
-0.00486104
-0.0109641
-0.0184444
-0.0256408
-0.0299293
-0.028051
-0.0173841
-0.00256876
-0.000937978
-0.00617256
-0.00819117
-0.00845142
-0.00877588
-0.00934488
-0.00992516
-0.010357
-0.0105873
-0.0106253
-0.0105036
-0.0102607
-0.00992925
-0.00953773
-0.00910866
-0.00865702
0.000214828
0.000794521
0.0012138
0.00130722
0.000723492
-0.000974043
-0.00409872
-0.00854644
-0.0135963
-0.0178617
-0.0195636
-0.0171487
-0.010686
-0.00371385
-0.000746441
-0.000973632
-0.00197464
-0.00311338
-0.00434325
-0.00555184
-0.00660563
-0.00742761
-0.00799819
-0.00833566
-0.00847545
-0.00845559
-0.00831147
-0.00807594
-0.00777558
-0.00743124
0.000134404
0.000519784
0.000778948
0.000808469
0.000375453
-0.00079029
-0.00283587
-0.00560426
-0.00854066
-0.0107282
-0.0111816
-0.00936041
-0.00583775
-0.00238506
-0.000514231
-0.000304847
-0.00113757
-0.002494
-0.00403555
-0.0055321
-0.00684373
-0.00790318
-0.00869815
-0.00924752
-0.00958499
-0.0097479
-0.00977214
-0.00969047
-0.00953006
-0.00931416
3.95532e-05
0.000211372
0.000312939
0.000317969
0.000132145
-0.000350299
-0.00117444
-0.00225249
-0.00334295
-0.00407856
-0.00411089
-0.00330682
-0.00194397
-0.000882624
-0.000631912
-0.00132949
-0.00275697
-0.00458991
-0.00653262
-0.00837172
-0.00998004
-0.0113053
-0.0123422
-0.0131142
-0.0136572
-0.01401
-0.0142106
-0.0142917
-0.0142818
-0.0142046
0.0785786
0.0776703
0.0765185
0.0750627
0.0732322
0.070955
0.0681666
0.0648467
0.0610572
0.0569566
0.0527277
0.0483474
0.0419716
0.0251544
6.36272
103.222
104.979
104.29
103.351
99.4015
103.744
103.565
102.136
100.941
99.9235
99.1608
95.619
34.7956
6.04011
1.20234
0.0767853
0.0758679
0.0747177
0.0732766
0.0714762
0.0692465
0.0665233
0.063277
0.0595441
0.0554382
0.0510524
0.0461038
0.038586
0.0252676
1.10094
104.526
106.031
104.911
103.857
98.923
104.346
103.806
102.301
100.994
77.5125
0.0154085
0.0104206
0.00641017
0.00358978
0.00122593
0.0748136
0.0738846
0.0727338
0.0713052
0.0695333
0.0673478
0.0646847
0.061507
0.0578277
0.0537168
0.0491992
0.0438125
0.0353001
0.0259753
0.0714579
106.054
107.187
105.544
104.417
98.1007
105.138
104.037
102.489
1.86056
0.0241614
0.0153477
0.0103417
0.00640295
0.00357785
0.00113897
0.072642
0.0717007
0.0705481
0.0691299
0.0673834
0.0652388
0.0626313
0.0595166
0.0558892
0.0517789
0.0471541
0.0414687
0.0322071
0.0139289
0.179301
107.994
108.457
106.166
105.032
96.6842
106.231
104.231
0.0840982
0.0408374
0.0240921
0.015336
0.0102157
0.00639349
0.00356521
0.00107612
0.0702399
0.0692863
0.0681317
0.0667232
0.0649989
0.062891
0.0603344
0.0572785
0.053703
0.0496056
0.0449122
0.0390444
0.0294247
0.00289484
-0.074984
110.275
109.859
106.741
105.71
94.1562
107.832
3.48711
0.0844727
0.040806
0.0239793
0.0153513
0.0101554
0.00638187
0.00355415
0.00103946
0.067579
0.0666141
0.0654581
0.064058
0.0623532
0.0602786
0.0577679
0.0547673
0.0512449
0.0471785
0.0424706
0.0365459
0.0270165
0.00343025
-0.0652807
112.709
111.409
107.204
106.451
89.5445
11.1495
0.0513004
0.0840903
0.040635
0.0239226
0.0153635
0.0101089
0.00636615
0.00354354
0.00102027
0.0646233
0.0636507
0.0624931
0.0611002
0.0594138
0.0573691
0.0549001
0.0519509
0.048484
0.0444714
0.0398161
0.0339929
0.0249891
0.00709299
-0.0434998
114.879
113.13
107.443
107.259
104.274
-0.153397
0.0637
0.0815141
0.0402977
0.0238367
0.015344
0.0100667
0.00634504
0.00353205
0.00101101
0.061334
0.0603567
0.0591989
0.0578135
0.0561437
0.0541249
0.0516925
0.0487905
0.0453818
0.041447
0.0369203
0.031389
0.0233295
0.0100015
0.061618
108.392
115.064
107.252
107.982
1.15684
-0.230678
0.0793038
0.0772125
0.0397203
0.0236825
0.0152716
0.0100037
0.00631721
0.00351732
0.00100574
0.057662
0.0566845
0.0555314
0.0541555
0.0525003
0.0505035
0.0481016
0.0452409
0.0418899
0.038053
0.0337306
0.0286955
0.0219946
0.0130955
0.0734357
70.5076
117.295
106.24
107.566
-0.227139
-0.19323
0.0770424
0.0720544
0.038836
0.0234124
0.0151523
0.00993433
0.0062813
0.00349938
0.00100458
0.0535574
0.0525865
0.0514426
0.0500782
0.0484375
0.0464585
0.0440788
0.0412476
0.0379471
0.0342168
0.0301607
0.025813
0.0208626
0.0154564
0.0129382
17.7787
119.957
103.705
100.409
0.0458985
-0.183188
0.035001
0.0654785
0.037574
0.0230286
0.0149849
0.00984596
0.00623547
0.00347758
0.00100378
0.0489592
0.0480045
0.0468762
0.0455268
0.0439006
0.0419332
0.0395614
0.03674
0.0334668
0.0298283
0.0260644
0.0225508
0.019731
0.0178197
0.0182628
-0.29354
122.978
99.3672
-9.04532
0.039081
-0.150249
-0.0094318
0.0577817
0.0358927
0.0224843
0.0147265
0.00971217
0.00617838
0.0034514
0.00100293
0.0438017
0.042876
0.0417732
0.0404444
0.0388316
0.0368658
0.0344813
0.031637
0.0283416
0.0247358
0.0212191
0.0185921
0.0182837
0.021206
0.00280087
0.161757
126.559
89.7221
0.169869
-0.00448815
-0.121697
-0.0172331
0.0495008
0.0337492
0.0217279
0.0143698
0.00953814
0.00610947
0.00342049
0.00100377
0.0380229
0.0371435
0.0360785
0.034776
0.033173
0.0311944
0.0287673
0.025844
0.0224372
0.0187341
0.0152953
0.0134175
0.0158745
0.0266992
0.0205017
0.122416
137.483
83.6424
-0.180713
-0.0314836
-0.0932785
-0.0167626
0.0409835
0.031141
0.0207617
0.0139305
0.00933294
0.00602794
0.00338428
0.00100762
0.0315662
0.0307543
0.0297435
0.0284745
0.0268753
0.0248623
0.0223461
0.0192578
0.0155961
0.0115595
0.00782889
0.00619619
0.0110789
0.0322594
0.0890848
0.418704
89.7913
108.554
0.344771
-0.0549338
-0.0715631
-0.0132599
0.0325721
0.0281171
0.0196088
0.0134369
0.00911545
0.00593105
0.00334224
0.00101579
0.0244088
0.0236884
0.0227481
0.0215206
0.0199187
0.0178411
0.0151714
0.0117997
0.00767204
0.00292799
-0.00175357
-0.00426423
0.00133795
0.0302568
0.122058
0.355376
-3.73555
113.34
49.5298
-0.0771681
-0.0541974
-0.0129596
0.0245605
0.0247601
0.0183066
0.0128912
0.00887452
0.00581456
0.00329217
0.0010248
0.0165753
0.0159732
0.0151227
0.0139425
0.0123281
0.0101498
0.00724854
0.00344747
-0.00142092
-0.00739282
-0.0140329
-0.0193954
-0.016806
0.012135
0.0934519
0.0979447
-0.172628
129.023
160.82
-0.133523
-0.0467384
-0.0148274
0.0171663
0.0211744
0.0168415
0.0122587
0.00858554
0.00567454
0.00323189
0.00103172
0.00818298
0.00772576
0.0069825
0.00585573
0.00421838
0.00190471
-0.0013051
-0.0056902
-0.0116014
-0.0194103
-0.0293019
-0.0403737
-0.0469307
-0.0284083
0.0342699
0.0109977
0.0940591
161.741
173.859
-0.15944
-0.046939
-0.0178798
0.0105305
0.0174601
0.0151951
0.0115237
0.0082425
0.00550743
0.00315943
0.0010344
-0.000511575
-0.000803315