/*--------------------------------*- C++ -*----------------------------------*\
| =========                 |                                                 |
| \\      /  F ield         | OpenFOAM: The Open Source CFD Toolbox           |
|  \\    /   O peration     | Version:  2.4.0                                 |
|   \\  /    A nd           | Web:      www.OpenFOAM.org                      |
|    \\/     M anipulation  |                                                 |
\*---------------------------------------------------------------------------*/
FoamFile
{
    version     2.0;
    format      ascii;
    class       volVectorField;
    location    "0.03";
    object      U;
}
// * * * * * * * * * * * * * * * * * * * * * * * * * * * * * * * * * * * * * //

dimensions      [0 1 -1 0 0 0 0];

internalField   nonuniform List<vector> 
57600
(
(-0.00022772 1.62616e-05 0)
(-0.000528647 6.69293e-06 0)
(-0.00106049 8.6804e-06 0)
(-0.00174676 1.14927e-05 0)
(-0.00260126 1.33426e-05 0)
(-0.00356268 1.21577e-05 0)
(-0.00451005 5.83721e-06 0)
(-0.00528626 -6.92513e-06 0)
(-0.00572549 -2.72825e-05 0)
(-0.00567257 -5.61302e-05 0)
(-0.00500258 -9.16171e-05 0)
(-0.00366909 -0.000129852 0)
(-0.00177473 -0.000161431 0)
(0.000422328 -0.000176626 0)
(0.00260265 -0.000170404 0)
(0.00449542 -0.000143067 0)
(0.00592497 -9.71681e-05 0)
(0.00679748 -3.57577e-05 0)
(0.00707879 3.66984e-05 0)
(0.0068095 0.000112909 0)
(0.00609501 0.00018512 0)
(0.0050836 0.000247857 0)
(0.00393144 0.000297031 0)
(0.00278421 0.000329255 0)
(0.00176121 0.00034177 0)
(0.000946752 0.000333828 0)
(0.000378727 0.000309928 0)
(4.53493e-05 0.000278558 0)
(-0.000104505 0.000249528 0)
(-0.000138918 0.000229708 0)
(-0.000289172 6.66949e-05 0)
(-0.00111631 6.28359e-05 0)
(-0.00217859 9.33016e-05 0)
(-0.00367466 0.000139348 0)
(-0.00571462 0.000194736 0)
(-0.00833161 0.000251164 0)
(-0.0114872 0.000298603 0)
(-0.0150779 0.000325948 0)
(-0.0189332 0.000319911 0)
(-0.0227935 0.00026333 0)
(-0.0263027 0.000143017 0)
(-0.029075 -3.34562e-05 0)
(-0.0308251 -0.000230104 0)
(-0.0314427 -0.000407248 0)
(-0.0309646 -0.000542641 0)
(-0.029536 -0.000628493 0)
(-0.027403 -0.000653175 0)
(-0.0248908 -0.000603604 0)
(-0.0223186 -0.000487513 0)
(-0.0199046 -0.000336351 0)
(-0.0177345 -0.000192653 0)
(-0.015791 -9.28167e-05 0)
(-0.0140047 -6.22514e-05 0)
(-0.0122909 -0.000117154 0)
(-0.010573 -0.000261155 0)
(-0.00879758 -0.000480952 0)
(-0.00694451 -0.000740799 0)
(-0.00503614 -0.00099078 0)
(-0.0031284 -0.00118504 0)
(-0.00129091 -0.00129716 0)
(-0.000290868 0.00012055 0)
(-0.00113854 0.000128408 0)
(-0.00222742 0.00019441 0)
(-0.00376985 0.000296991 0)
(-0.00588783 0.000427824 0)
(-0.00863012 0.000575213 0)
(-0.0119777 0.000723908 0)
(-0.0158495 0.000854982 0)
(-0.020096 0.000940947 0)
(-0.0244665 0.000939089 0)
(-0.0285802 0.000801555 0)
(-0.0319769 0.000511706 0)
(-0.0342585 0.000106731 0)
(-0.0352059 -0.000353498 0)
(-0.0347938 -0.000818658 0)
(-0.0331745 -0.00123975 0)
(-0.0306626 -0.00155031 0)
(-0.0276793 -0.00169113 0)
(-0.0246304 -0.00166028 0)
(-0.0217901 -0.00151936 0)
(-0.0192657 -0.00135678 0)
(-0.0170421 -0.00124849 0)
(-0.0150457 -0.0012455 0)
(-0.013187 -0.00137952 0)
(-0.0113783 -0.00166418 0)
(-0.00954073 -0.00208624 0)
(-0.00761657 -0.00259248 0)
(-0.00559323 -0.00309383 0)
(-0.00351478 -0.00349477 0)
(-0.0014672 -0.0037321 0)
(-0.000289973 0.000174711 0)
(-0.00113482 0.000194088 0)
(-0.00221963 0.000295895 0)
(-0.00375818 0.000455558 0)
(-0.00587294 0.000662873 0)
(-0.00861381 0.000903033 0)
(-0.0119632 0.00115597 0)
(-0.0158424 0.00139549 0)
(-0.0201067 0.00158047 0)
(-0.0245115 0.00164215 0)
(-0.0286779 0.00149505 0)
(-0.0321345 0.00109302 0)
(-0.0344666 0.000470966 0)
(-0.0354444 -0.000290132 0)
(-0.0350401 -0.00110808 0)
(-0.0333986 -0.00188875 0)
(-0.0308261 -0.00250576 0)
(-0.0277533 -0.00284688 0)
(-0.0246167 -0.0028967 0)
(-0.0217225 -0.00274982 0)
(-0.0191926 -0.00254671 0)
(-0.0170104 -0.00240598 0)
(-0.0150977 -0.00240357 0)
(-0.0133639 -0.0025866 0)
(-0.0117161 -0.00298713 0)
(-0.0100504 -0.00361264 0)
(-0.00825415 -0.00441569 0)
(-0.00624674 -0.00527006 0)
(-0.00403567 -0.00599896 0)
(-0.0017345 -0.00645221 0)
(-0.000288702 0.000229193 0)
(-0.00112902 0.000259392 0)
(-0.00220738 0.000396944 0)
(-0.00373908 0.000613628 0)
(-0.00584691 0.000897419 0)
(-0.00858167 0.00123046 0)
(-0.0119269 0.00158794 0)
(-0.0158063 0.0019367 0)
(-0.0200804 0.00222261 0)
(-0.0245137 0.00235134 0)
(-0.0287325 0.00219853 0)
(-0.0322559 0.00168585 0)
(-0.0346521 0.000845722 0)
(-0.0356824 -0.000218695 0)
(-0.0353123 -0.00139469 0)
(-0.0336684 -0.00254711 0)
(-0.0310343 -0.00348833 0)
(-0.0278475 -0.0040419 0)
(-0.02459 -0.00416857 0)
(-0.0216192 -0.00399595 0)
(-0.0190802 -0.00372479 0)
(-0.016952 -0.00352216 0)
(-0.0151471 -0.00348684 0)
(-0.013577 -0.00367633 0)
(-0.0121585 -0.004145 0)
(-0.0107788 -0.00495062 0)
(-0.00925681 -0.00610519 0)
(-0.00737583 -0.00748575 0)
(-0.00501021 -0.00879781 0)
(-0.00226529 -0.00968606 0)
(-0.000287097 0.00028411 0)
(-0.0011215 0.000324183 0)
(-0.00219145 0.000497388 0)
(-0.00371412 0.000770981 0)
(-0.00581261 0.0011312 0)
(-0.0085388 0.00155718 0)
(-0.0118777 0.00201949 0)
(-0.0157558 0.00247836 0)
(-0.0200406 0.00286755 0)
(-0.0245091 0.00306799 0)
(-0.0287961 0.00291502 0)
(-0.0324097 0.00229469 0)
(-0.0348957 0.00123636 0)
(-0.0360023 -0.000133466 0)
(-0.0356866 -0.00167362 0)
(-0.0340489 -0.00321468 0)
(-0.0313385 -0.00450695 0)
(-0.0279956 -0.00529296 0)
(-0.024566 -0.00549279 0)
(-0.021482 -0.00526692 0)
(-0.0189223 -0.0048903 0)
(-0.0168555 -0.00458894 0)
(-0.015173 -0.00448098 0)
(-0.0137887 -0.00461943 0)
(-0.0126554 -0.00506772 0)
(-0.0117051 -0.00595554 0)
(-0.0107296 -0.0074512 0)
(-0.00930064 -0.00958995 0)
(-0.00690802 -0.0120106 0)
(-0.00340685 -0.0139067 0)
(-0.000285174 0.0003396 0)
(-0.00111224 0.000388329 0)
(-0.00217186 0.000597071 0)
(-0.00368333 0.00092742 0)
(-0.00577006 0.00136397 0)
(-0.00848523 0.00188295 0)
(-0.0118155 0.0024504 0)
(-0.0156907 0.00302039 0)
(-0.0199869 0.00351576 0)
(-0.024497 0.0037939 0)
(-0.0288682 0.00364829 0)
(-0.0325961 0.00292476 0)
(-0.0351981 0.00164837 0)
(-0.0364057 -2.8815e-05 0)
(-0.0361665 -0.00194029 0)
(-0.0345486 -0.00389143 0)
(-0.0317492 -0.00557134 0)
(-0.0282027 -0.00662065 0)
(-0.0245367 -0.00689133 0)
(-0.021292 -0.00657528 0)
(-0.0186974 -0.00604327 0)
(-0.0166995 -0.00559975 0)
(-0.0151468 -0.00538056 0)
(-0.0139423 -0.00540624 0)
(-0.0130987 -0.00570238 0)
(-0.0126924 -0.00643497 0)
(-0.0126737 -0.00801927 0)
(-0.0125048 -0.0110175 0)
(-0.01087 -0.0155354 0)
(-0.00626934 -0.0201512 0)
(-0.000282953 0.00039583 0)
(-0.00110126 0.000451689 0)
(-0.00214861 0.000695832 0)
(-0.00364671 0.00108274 0)
(-0.00571926 0.0015955 0)
(-0.00842094 0.0022075 0)
(-0.0117403 0.0028804 0)
(-0.0156109 0.00356267 0)
(-0.0199187 0.00416761 0)
(-0.024476 0.0045308 0)
(-0.0289473 0.00440215 0)
(-0.0328148 0.00358133 0)
(-0.0355597 0.00208744 0)
(-0.0368932 0.000101132 0)
(-0.0367556 -0.00218843 0)
(-0.035178 -0.00457487 0)
(-0.0322819 -0.00669199 0)
(-0.0284764 -0.00805027 0)
(-0.0244917 -0.00839282 0)
(-0.0210237 -0.00793703 0)
(-0.0183774 -0.00718255 0)
(-0.0164628 -0.00654717 0)
(-0.0150457 -0.00618923 0)
(-0.0139812 -0.00606442 0)
(-0.013323 -0.00607395 0)
(-0.0133776 -0.00625465 0)
(-0.0146327 -0.00712412 0)
(-0.0172267 -0.0101292 0)
(-0.0194891 -0.0176393 0)
(-0.0153741 -0.0306449 0)
(-0.000280455 0.000453011 0)
(-0.00108857 0.000514122 0)
(-0.00212173 0.000793509 0)
(-0.00360427 0.00123673 0)
(-0.00566022 0.00182555 0)
(-0.00834589 0.00253058 0)
(-0.011652 0.00330923 0)
(-0.0155159 0.00410502 0)
(-0.0198351 0.00482332 0)
(-0.0244445 0.00528028 0)
(-0.0290319 0.00518051 0)
(-0.033065 0.00426992 0)
(-0.0359805 0.0025594 0)
(-0.0374655 0.000262428 0)
(-0.0374575 -0.00241068 0)
(-0.0359497 -0.0052602 0)
(-0.0329581 -0.00787914 0)
(-0.0288298 -0.0096133 0)
(-0.0244181 -0.0100353 0)
(-0.0206418 -0.00937312 0)
(-0.0179257 -0.00830367 0)
(-0.0161252 -0.00741645 0)
(-0.0148664 -0.00691343 0)
(-0.0138868 -0.00666436 0)
(-0.0131776 -0.00636944 0)
(-0.0131616 -0.0056407 0)
(-0.015079 -0.00437922 0)
(-0.0212386 -0.00390482 0)
(-0.0324973 -0.0110286 0)
(-0.0238185 -0.0554821 0)
(-0.000277692 0.000511409 0)
(-0.00107417 0.000575486 0)
(-0.00209123 0.000889948 0)
(-0.00355605 0.0013892 0)
(-0.00559294 0.00205387 0)
(-0.0082601 0.00285191 0)
(-0.0115504 0.00373664 0)
(-0.0154057 0.00464723 0)
(-0.0197352 0.00548307 0)
(-0.0244004 0.00604386 0)
(-0.0291196 0.00598746 0)
(-0.0333459 0.0049964 0)
(-0.036461 0.00307009 0)
(-0.0381229 0.000461624 0)
(-0.0382753 -0.00259773 0)
(-0.0368789 -0.00593839 0)
(-0.0338072 -0.00914136 0)
(-0.029284 -0.0113496 0)
(-0.0243008 -0.0118712 0)
(-0.0200964 -0.0109122 0)
(-0.0172917 -0.00939519 0)
(-0.0156692 -0.00817521 0)
(-0.0146336 -0.00754463 0)
(-0.0137292 -0.00728686 0)
(-0.0127188 -0.00694819 0)
(-0.0116445 -0.00556602 0)
(-0.0116456 -0.00147402 0)
(-0.0156612 0.00610224 0)
(-0.015128 -0.0150923 0)
(0.0569567 -0.129069 0)
(-0.00027467 0.00057135 0)
(-0.00105805 0.000635629 0)
(-0.00205714 0.000984991 0)
(-0.00350207 0.00153993 0)
(-0.00551745 0.00228023 0)
(-0.00816355 0.00317123 0)
(-0.0114357 0.00416232 0)
(-0.0152797 0.00518904 0)
(-0.0196179 0.00614683 0)
(-0.0243414 0.00682284 0)
(-0.0292078 0.00682717 0)
(-0.0336566 0.00576692 0)
(-0.0370013 0.00362548 0)
(-0.038865 0.000704884 0)
(-0.0392108 -0.00273846 0)
(-0.0379821 -0.00659437 0)
(-0.0348696 -0.0104837 0)
(-0.0298722 -0.0133095 0)
(-0.0241221 -0.013974 0)
(-0.019316 -0.0125952 0)
(-0.0164007 -0.0104338 0)
(-0.0150726 -0.00875855 0)
(-0.0143955 -0.00803857 0)
(-0.0136715 -0.00792551 0)
(-0.0124121 -0.0081169 0)
(-0.00955919 -0.00752233 0)
(-0.00444198 -0.00339548 0)
(0.00472214 0.0019959 0)
(0.0266435 -0.0518488 0)
(-0.00288463 -0.114162 0)
(-0.000271385 0.000633251 0)
(-0.0010402 0.000694392 0)
(-0.00201947 0.00107848 0)
(-0.00344235 0.00168872 0)
(-0.00543375 0.00250437 0)
(-0.00805622 0.00348826 0)
(-0.0113076 0.00458598 0)
(-0.0151378 0.00573011 0)
(-0.0194822 0.00681444 0)
(-0.0242649 0.00761828 0)
(-0.0292932 0.00770401 0)
(-0.0339959 0.00658803 0)
(-0.0376019 0.00423157 0)
(-0.0396912 0.000998271 0)
(-0.0402631 -0.00282016 0)
(-0.0392765 -0.00720483 0)
(-0.0361999 -0.0119036 0)
(-0.0306474 -0.0155566 0)
(-0.0238643 -0.0164487 0)
(-0.0181956 -0.0144838 0)
(-0.0151367 -0.0113813 0)
(-0.014282 -0.00904617 0)
(-0.0141412 -0.00834132 0)
(-0.0136453 -0.00840885 0)
(-0.0126383 -0.00975955 0)
(-0.00802955 -0.0123302 0)
(0.00251714 -0.0130851 0)
(0.0196802 -0.017228 0)
(0.0293198 -0.0497688 0)
(-0.00926593 -0.0590155 0)
(-0.000267807 0.000697634 0)
(-0.00102063 0.000751609 0)
(-0.00197825 0.00117027 0)
(-0.00337692 0.00183537 0)
(-0.00534187 0.00272605 0)
(-0.0079381 0.00380274 0)
(-0.0111661 0.00500733 0)
(-0.0149795 0.00627009 0)
(-0.0193269 0.00748555 0)
(-0.0241675 0.00843099 0)
(-0.029372 0.0086226 0)
(-0.0343625 0.00746697 0)
(-0.0382638 0.00489448 0)
(-0.0405999 0.00134701 0)
(-0.0414281 -0.00282883 0)
(-0.0407767 -0.00773539 0)
(-0.0378714 -0.013384 0)
(-0.0316934 -0.0181714 0)
(-0.0235146 -0.019447 0)
(-0.0165742 -0.0166795 0)
(-0.0132531 -0.0121998 0)
(-0.0129648 -0.0088501 0)
(-0.0135574 -0.00866475 0)
(-0.0130688 -0.0084956 0)
(-0.0140585 -0.0116831 0)
(-0.00807809 -0.0209893 0)
(0.00273482 -0.0240886 0)
(0.00656044 -0.037298 0)
(0.0820819 -0.0422571 0)
(0.0204838 -0.00729399 0)
(-0.000263876 0.000765145 0)
(-0.000999324 0.00080709 0)
(-0.00193352 0.0012602 0)
(-0.00330584 0.00197966 0)
(-0.00524184 0.00294502 0)
(-0.0078092 0.00411437 0)
(-0.0110112 0.005426 0)
(-0.0148046 0.00680851 0)
(-0.019151 0.00815952 0)
(-0.0240458 0.00926128 0)
(-0.0294394 0.0095877 0)
(-0.0347551 0.0084116 0)
(-0.0389882 0.0056202 0)
(-0.0415894 0.00175493 0)
(-0.0426955 -0.00275065 0)
(-0.0424897 -0.00813808 0)
(-0.039981 -0.0148816 0)
(-0.0331406 -0.0212541 0)
(-0.023074 -0.0231916 0)
(-0.0140928 -0.019404 0)
(-0.00961192 -0.0130144 0)
(-0.0112357 -0.00718565 0)
(-0.0206274 -0.00793727 0)
(-0.0363269 -0.00609027 0)
(-0.0519092 -0.0145241 0)
(0.161941 -0.10191 0)
(0.10141 -0.139651 0)
(0.0118144 -0.0124674 0)
(0.0235619 0.0893027 0)
(6.84612e-05 0.0538362 0)
(-0.000259496 0.000836592 0)
(-0.000976263 0.00086063 0)
(-0.0018853 0.00134812 0)
(-0.00322914 0.00212138 0)
(-0.00513369 0.00316104 0)
(-0.00766951 0.00442287 0)
(-0.0108428 0.00584166 0)
(-0.0146129 0.00734486 0)
(-0.0189532 0.0088356 0)
(-0.0238958 0.010109 0)
(-0.0294898 0.0106044 0)
(-0.0351722 0.00943081 0)
(-0.0397776 0.00641495 0)
(-0.0426577 0.00222387 0)
(-0.0440494 -0.00257427 0)
(-0.0444069 -0.00834857 0)
(-0.0426531 -0.0163055 0)
(-0.0351908 -0.0249323 0)
(-0.0225344 -0.0280447 0)
(-0.00904227 -0.0235893 0)
(-0.000556318 -0.0133541 0)
(-0.0107861 0.00065861 0)
(-0.000354204 0.000640521 0)
(0.0896266 -0.0132914 0)
(0.0489731 -0.0789443 0)
(0.009041 -0.0813016 0)
(-0.0514326 -0.0574896 0)
(-0.0773455 0.0030818 0)
(-0.0446162 0.0463656 0)
(-0.0115644 0.0420253 0)
(-0.000254512 0.00091298 0)
(-0.000951441 0.000911993 0)
(-0.00183364 0.00143389 0)
(-0.00314688 0.00226032 0)
(-0.00501743 0.00337385 0)
(-0.00751904 0.00472796 0)
(-0.0106609 0.00625399 0)
(-0.0144039 0.0078786 0)
(-0.0187326 0.00951275 0)
(-0.0237129 0.0109734 0)
(-0.0295161 0.0116781 0)
(-0.0356124 0.0105347 0)
(-0.0406354 0.00728526 0)
(-0.0438038 0.00275287 0)
(-0.0454653 -0.0022944 0)
(-0.0464901 -0.00828807 0)
(-0.0460373 -0.0174797 0)
(-0.0381448 -0.0293881 0)
(-0.0215554 -0.0348766 0)
(0.0024642 -0.0317181 0)
(0.00390606 -0.00902466 0)
(0.0770498 -0.00990059 0)
(0.150072 -0.0395496 0)
(0.151935 -0.0250737 0)
(0.122974 -0.0262545 0)
(0.0512353 -0.0291926 0)
(0.00180462 -0.0181103 0)
(-0.021314 0.00225996 0)
(-0.0177542 0.0154716 0)
(-0.00499462 0.0189049 0)
(-0.000248698 0.000995546 0)
(-0.000924845 0.000960906 0)
(-0.00177859 0.00151737 0)
(-0.00305909 0.00239627 0)
(-0.00489312 0.00358321 0)
(-0.00735776 0.00502935 0)
(-0.0104655 0.00666262 0)
(-0.0141775 0.00840909 0)
(-0.0184882 0.0101897 0)
(-0.0234922 0.0118525 0)
(-0.0295099 0.0128146 0)
(-0.036074 0.011735 0)
(-0.0415669 0.0082381 0)
(-0.0450285 0.00333756 0)
(-0.0469119 -0.00191724 0)
(-0.0486534 -0.00787199 0)
(-0.0502881 -0.0180782 0)
(-0.0424018 -0.0350041 0)
(-0.0193795 -0.0456549 0)
(-0.0179112 -0.0257701 0)
(0.0403566 -0.125275 0)
(0.417229 -0.0732324 0)
(0.363241 -0.0131552 0)
(0.269867 0.0110743 0)
(0.187412 0.0366726 0)
(0.104968 0.0318732 0)
(0.0428522 0.0190622 0)
(0.018181 0.0147214 0)
(0.00775356 0.0133607 0)
(0.00579715 0.0114199 0)
(-0.000241735 0.00108579 0)
(-0.000896471 0.00100706 0)
(-0.00172017 0.00159841 0)
(-0.00296585 0.00252901 0)
(-0.0047608 0.00378887 0)
(-0.00718569 0.00532676 0)
(-0.0102565 0.00706719 0)
(-0.0139336 0.00893567 0)
(-0.0182196 0.010865 0)
(-0.0232283 0.0127436 0)
(-0.0294607 0.01402 0)
(-0.0365552 0.0130453 0)
(-0.0425798 0.00928126 0)
(-0.0463363 0.00396993 0)
(-0.048354 -0.00146554 0)
(-0.0507409 -0.00703426 0)
(-0.0554768 -0.0175214 0)
(-0.0483702 -0.0429249 0)
(-0.0216126 -0.0556122 0)
(0.418521 -0.191421 0)
(0.474213 -0.143853 0)
(0.310458 -0.0486367 0)
(0.273726 0.0320988 0)
(0.221877 0.0614032 0)
(0.169262 0.0941421 0)
(0.109509 0.0914978 0)
(0.0581685 0.0546788 0)
(0.0314988 0.0360516 0)
(0.0179529 0.0231449 0)
(0.0104924 0.0158798 0)
(-0.000233187 0.00118551 0)
(-0.000866313 0.00105008 0)
(-0.00165845 0.00167689 0)
(-0.0028672 0.00265831 0)
(-0.0046205 0.00399059 0)
(-0.00700282 0.00561988 0)
(-0.0100341 0.00746737 0)
(-0.0136719 0.00945759 0)
(-0.0179263 0.0115371 0)
(-0.0229155 0.0136421 0)
(-0.0293555 0.0153009 0)
(-0.0370543 0.0144821 0)
(-0.0436843 0.010424 0)
(-0.0477379 0.00463854 0)
(-0.0497606 -0.000984576 0)
(-0.0525142 -0.00577699 0)
(-0.0612956 -0.0148862 0)
(-0.0525219 -0.0576288 0)
(-0.0527466 -0.0203925 0)
(0.367092 -0.258149 0)
(0.17287 -0.096572 0)
(0.113485 -0.0214761 0)
(0.101226 0.0485866 0)
(0.0894824 0.0796332 0)
(0.0812555 0.123006 0)
(0.0583293 0.126185 0)
(0.041499 0.08134 0)
(0.0248213 0.0515769 0)
(0.0157862 0.0335448 0)
(0.00932936 0.0239775 0)
(-0.000222497 0.00129694 0)
(-0.000834376 0.00108957 0)
(-0.0015935 0.00175266 0)
(-0.00276323 0.00278393 0)
(-0.00447229 0.00418811 0)
(-0.00680914 0.00590843 0)
(-0.00979835 0.00786278 0)
(-0.0133923 0.00997402 0)
(-0.0176087 0.0122045 0)
(-0.0225478 0.0145413 0)
(-0.0291778 0.0166645 0)
(-0.0375693 0.016065 0)
(-0.0448939 0.0116775 0)
(-0.0492515 0.00532967 0)
(-0.0511139 -0.000545619 0)
(-0.0536755 -0.00424721 0)
(-0.0661156 -0.00934286 0)
(0.0046359 -0.0873134 0)
(0.127965 -0.234193 0)
(0.0786076 -0.168361 0)
(-0.0210283 -0.0692329 0)
(-0.0418796 -0.016334 0)
(-0.0234207 0.0549131 0)
(-0.0334304 0.0783629 0)
(-0.0404932 0.132271 0)
(-0.0150804 0.123562 0)
(0.00177429 0.0859781 0)
(0.00698023 0.056448 0)
(0.00700355 0.038628 0)
(0.00510358 0.029493 0)
(-0.000208727 0.00142563 0)
(-0.000800664 0.00112505 0)
(-0.00152537 0.0018256 0)
(-0.00265401 0.00290564 0)
(-0.00431622 0.00438124 0)
(-0.00660464 0.00619212 0)
(-0.00954924 0.00825312 0)
(-0.0130948 0.010484 0)
(-0.0172674 0.0128657 0)
(-0.0221195 0.0154321 0)
(-0.0289069 0.0181184 0)
(-0.0380982 0.0178179 0)
(-0.0462259 0.0130561 0)
(-0.0509055 0.00602921 0)
(-0.0524278 -0.000240525 0)
(-0.0539738 -0.00280855 0)
(-0.064738 -0.00321721 0)
(-0.166563 -0.0884972 0)
(0.159223 -0.182856 0)
(-0.0796021 -0.117378 0)
(-0.13172 -0.0506928 0)
(-0.141399 -0.018626 0)
(-0.141882 0.0372897 0)
(-0.119765 0.0988362 0)
(-0.0981724 0.093761 0)
(-0.0532212 0.0922389 0)
(-0.0232385 0.0699643 0)
(-0.00880809 0.0499047 0)
(-0.00240256 0.0367424 0)
(0.000491056 0.0297079 0)
(-0.000190456 0.00157582 0)
(-0.000765193 0.00115604 0)
(-0.00145416 0.00189559 0)
(-0.0025396 0.00302317 0)
(-0.00415233 0.00456976 0)
(-0.00638927 0.0064707 0)
(-0.00928691 0.00863812 0)
(-0.0127794 0.0109866 0)
(-0.016904 0.01352 0)
(-0.0216255 0.0163015 0)
(-0.0285159 0.0196711 0)
(-0.0386391 0.0197699 0)
(-0.0477014 0.0145776 0)
(-0.05274 0.00672564 0)
(-0.0537552 -0.000168977 0)
(-0.0533898 -0.00204909 0)
(-0.049906 -0.0123471 0)
(0.33191 -0.146414 0)
(-0.107189 -0.0770524 0)
(-0.146321 -0.0871435 0)
(-0.173072 -0.0435615 0)
(-0.177539 -0.0158558 0)
(-0.173423 0.0306334 0)
(-0.134837 0.0695451 0)
(-0.0937865 0.0686545 0)
(-0.060603 0.0624116 0)
(-0.0351914 0.0503405 0)
(-0.0193574 0.0383604 0)
(-0.0096275 0.0296682 0)
(-0.00312607 0.0247805 0)
(-0.00016586 0.00175292 0)
(-0.00072799 0.00118199 0)
(-0.00137994 0.00196249 0)
(-0.0024201 0.00313624 0)
(-0.00398069 0.00475354 0)
(-0.00616302 0.00674392 0)
(-0.0090115 0.00901751 0)
(-0.012446 0.0114804 0)
(-0.0165207 0.0141674 0)
(-0.0210623 0.0171321 0)
(-0.0279695 0.0213317 0)
(-0.0391905 0.0219566 0)
(-0.0493455 0.0162644 0)
(-0.0548064 0.00741364 0)
(-0.0551941 -0.000422255 0)
(-0.0522587 -0.00257014 0)
(0.016796 -0.0855368 0)
(-0.157476 -0.164859 0)
(-0.130861 -0.0481276 0)
(-0.165002 -0.0706611 0)
(-0.177917 -0.0414399 0)
(-0.175386 -0.016413 0)
(-0.161502 0.0158902 0)
(-0.127199 0.0395873 0)
(-0.0913716 0.0432091 0)
(-0.0631893 0.039263 0)
(-0.0415303 0.0322773 0)
(-0.0258081 0.0249922 0)
(-0.0143402 0.0193265 0)
(-0.00550819 0.0160315 0)
(-0.000132526 0.00196396 0)
(-0.000689105 0.0012024 0)
(-0.00130283 0.00202619 0)
(-0.00229558 0.00324453 0)
(-0.00380132 0.00493252 0)
(-0.00592579 0.00701161 0)
(-0.00872314 0.00939114 0)
(-0.0120948 0.0119638 0)
(-0.0161207 0.0148099 0)
(-0.0204294 0.0179002 0)
(-0.0272208 0.0231107 0)
(-0.039752 0.0244218 0)
(-0.051187 0.0181442 0)
(-0.057167 0.00809726 0)
(-0.0568751 -0.00106399 0)
(-0.0509823 -0.00486388 0)
(0.0270771 -0.162084 0)
(-0.113525 -0.228486 0)
(-0.13715 -0.0465252 0)
(-0.165931 -0.0606944 0)
(-0.17101 -0.0420253 0)
(-0.163171 -0.0216171 0)
(-0.145594 0.000584947 0)
(-0.117654 0.0162258 0)
(-0.0888166 0.0209677 0)
(-0.0644787 0.0195472 0)
(-0.0448708 0.0154784 0)
(-0.029394 0.0108736 0)
(-0.0170707 0.00710614 0)
(-0.00691907 0.0048708 0)
(-8.72818e-05 0.002218 0)
(-0.000648626 0.00121675 0)
(-0.00122294 0.00208656 0)
(-0.0021661 0.00334767 0)
(-0.00361424 0.00510682 0)
(-0.00567753 0.00727373 0)
(-0.00842196 0.00975893 0)
(-0.0117261 0.0124346 0)
(-0.0157076 0.015452 0)
(-0.019732 0.0185746 0)
(-0.026206 0.0250203 0)
(-0.0403261 0.0272186 0)
(-0.0532577 0.0202499 0)
(-0.0598927 0.00879365 0)
(-0.0589428 -0.00212664 0)
(-0.0501855 -0.00924767 0)
(0.064188 0.00684007 0)
(-0.119512 -0.16267 0)
(-0.143122 -0.038301 0)
(-0.164828 -0.0551881 0)
(-0.163358 -0.0447078 0)
(-0.152203 -0.0292093 0)
(-0.133907 -0.013478 0)
(-0.110151 -0.00242384 0)
(-0.0859058 0.00202351 0)
(-0.0643714 0.00192028 0)
(-0.0461947 -0.000449719 0)
(-0.0310976 -0.0034614 0)
(-0.0184801 -0.00604626 0)
(-0.00770403 -0.00760432 0)
(-2.59691e-05 0.00252654 0)
(-0.000606698 0.00122464 0)
(-0.00114039 0.00214349 0)
(-0.00203175 0.0034452 0)
(-0.00341938 0.00527692 0)
(-0.00541822 0.00753042 0)
(-0.00810807 0.0101209 0)
(-0.0113408 0.0128898 0)
(-0.0152856 0.016102 0)
(-0.0189848 0.0191142 0)
(-0.0248362 0.0270757 0)
(-0.0409209 0.0304113 0)
(-0.0555914 0.0226192 0)
(-0.0630601 0.00953621 0)
(-0.0615365 -0.00362928 0)
(-0.0483046 -0.0154402 0)
(-0.0320876 0.159212 0)
(-0.199164 -0.150718 0)
(-0.175519 -0.0371825 0)
(-0.165711 -0.0550938 0)
(-0.157494 -0.0493166 0)
(-0.143894 -0.0378772 0)
(-0.125555 -0.0264613 0)
(-0.104217 -0.0183632 0)
(-0.0827886 -0.0146194 0)
(-0.063262 -0.0141913 0)
(-0.0462452 -0.0156102 0)
(-0.0316405 -0.0176703 0)
(-0.0190716 -0.0195249 0)
(-0.0081068 -0.0206602 0)
(5.68464e-05 0.00290429 0)
(-0.000563549 0.00122579 0)
(-0.00105534 0.00219687 0)
(-0.00189252 0.00353652 0)
(-0.00321658 0.00544394 0)
(-0.00514785 0.00778232 0)
(-0.00778154 0.010477 0)
(-0.0109407 0.0133255 0)
(-0.0148587 0.0167742 0)
(-0.0182182 0.0194668 0)
(-0.0229843 0.0292978 0)
(-0.0415555 0.034076 0)
(-0.0582227 0.0252939 0)
(-0.0667478 0.0103784 0)
(-0.0648134 -0.00562087 0)
(-0.0494455 -0.0194612 0)
(-0.969595 0.388486 0)
(-0.212347 -0.137627 0)
(-0.191507 -0.0526879 0)
(-0.166522 -0.0600178 0)
(-0.152979 -0.0556799 0)
(-0.137459 -0.0471691 0)
(-0.119131 -0.0387514 0)
(-0.0992483 -0.0327121 0)
(-0.0796345 -0.0297012 0)
(-0.061572 -0.0291371 0)
(-0.045523 -0.0300521 0)
(-0.0314595 -0.031555 0)
(-0.019133 -0.0329668 0)
(-0.00823956 -0.0338439 0)
(0.000168177 0.00336994 0)
(-0.000519532 0.00122011 0)
(-0.00096791 0.00224662 0)
(-0.00174835 0.00362082 0)
(-0.00300549 0.00561032 0)
(-0.00486671 0.00803098 0)
(-0.00744238 0.0108273 0)
(-0.0105302 0.0137368 0)
(-0.0144299 0.0174899 0)
(-0.0174885 0.0195672 0)
(-0.020462 0.0317206 0)
(-0.0422682 0.0382982 0)
(-0.0611845 0.0283168 0)
(-0.0710286 0.0113971 0)
(-0.0690679 -0.00817001 0)
(-0.0399844 -0.0278678 0)
(-0.755723 0.0636315 0)
(-0.210031 -0.133608 0)
(-0.190741 -0.0710391 0)
(-0.165763 -0.067724 0)
(-0.149122 -0.0633985 0)
(-0.132215 -0.0568922 0)
(-0.113884 -0.0506039 0)
(-0.0949339 -0.0460571 0)
(-0.0765473 -0.0436946 0)
(-0.0595692 -0.0431728 0)
(-0.0443233 -0.0438369 0)
(-0.0307975 -0.0450188 0)
(-0.018811 -0.0461651 0)
(-0.00813507 -0.0468866 0)
(0.000321717 0.00392586 0)
(-0.000476008 0.00120779 0)
(-0.0008791 0.00229266 0)
(-0.0015997 0.00369693 0)
(-0.00278601 0.00578093 0)
(-0.00457571 0.00827984 0)
(-0.0070907 0.011171 0)
(-0.010118 0.014119 0)
(-0.0140003 0.0182788 0)
(-0.0168925 0.0193365 0)
(-0.0169835 0.0344137 0)
(-0.0431318 0.0431628 0)
(-0.0645045 0.0317291 0)
(-0.0759568 0.012693 0)
(-0.0748593 -0.0111695 0)
(-0.0352903 -0.0481309 0)
(-0.0209265 -0.0436523 0)
(-0.194104 -0.127263 0)
(-0.186064 -0.0844796 0)
(-0.163934 -0.0763711 0)
(-0.145799 -0.0720122 0)
(-0.12794 -0.0669235 0)
(-0.109568 -0.0621788 0)
(-0.0912166 -0.058739 0)
(-0.0736682 -0.0569151 0)
(-0.0574874 -0.0565008 0)
(-0.0428892 -0.0570439 0)
(-0.0298538 -0.0580358 0)
(-0.0182329 -0.0590188 0)
(-0.00783699 -0.0596449 0)
(0.00266581 0.00330088 0)
(-0.00046281 0.00118982 0)
(-0.000822932 0.00233594 0)
(-0.0014798 0.00376354 0)
(-0.00258456 0.00596431 0)
(-0.00429052 0.00853584 0)
(-0.00672985 0.0115048 0)
(-0.00972254 0.0144704 0)
(-0.0135677 0.0191758 0)
(-0.0165885 0.0186822 0)
(-0.0121054 0.0375532 0)
(-0.044275 0.048732 0)
(-0.0682017 0.035561 0)
(-0.0815512 0.0143801 0)
(-0.0828277 -0.0140704 0)
(-0.0845998 -0.0337158 0)
(0.230488 -0.314169 0)
(-0.172596 -0.123194 0)
(-0.18109 -0.0934039 0)
(-0.162189 -0.0851745 0)
(-0.143317 -0.0811924 0)
(-0.124761 -0.0771986 0)
(-0.106281 -0.0736003 0)
(-0.0882773 -0.0709912 0)
(-0.0712782 -0.0695971 0)
(-0.0556606 -0.0692964 0)
(-0.0415568 -0.069773 0)
(-0.0289315 -0.0706374 0)
(-0.0176486 -0.0715082 0)
(-0.00753596 -0.0720707 0)
(-0.000122181 0.000221386 0)
(-0.000101876 0.000225884 0)
(-0.000126174 0.000242621 0)
(-0.000266751 0.0002712 0)
(-0.000601415 0.000303938 0)
(-0.00118827 0.000330229 0)
(-0.00203897 0.000339605 0)
(-0.00310451 0.000326536 0)
(-0.0042835 0.000291416 0)
(-0.00543519 0.000237856 0)
(-0.00639894 0.000170231 0)
(-0.0070111 9.39725e-05 0)
(-0.00712832 1.56609e-05 0)
(-0.00666623 -5.55197e-05 0)
(-0.00561133 -0.000113274 0)
(-0.00402094 -0.000153884 0)
(-0.00201566 -0.000175092 0)
(0.000203575 -0.000175109 0)
(0.00234935 -0.000154852 0)
(0.00411139 -0.000120446 0)
(0.00526951 -8.20088e-05 0)
(0.00576518 -4.79351e-05 0)
(0.0056731 -2.10554e-05 0)
(0.00512816 -2.83387e-06 0)
(0.00428914 8.19424e-06 0)
(0.0033215 1.29875e-05 0)
(0.0023755 1.31505e-05 0)
(0.00155895 1.08435e-05 0)
(0.000915333 8.05789e-06 0)
(0.000408254 6.59694e-06 0)
(0.000479893 -0.00132524 0)
(0.00231257 -0.00126853 0)
(0.0042593 -0.00111683 0)
(0.00623976 -0.000881098 0)
(0.00817421 -0.0006024 0)
(0.0100128 -0.000340265 0)
(0.011757 -0.000148319 0)
(0.0134568 -5.53652e-05 0)
(0.0151989 -6.34475e-05 0)
(0.0170827 -0.00015534 0)
(0.019196 -0.000302027 0)
(0.0215778 -0.000464953 0)
(0.0241691 -0.00059939 0)
(0.0267773 -0.000667835 0)
(0.029091 -0.000657246 0)
(0.0307656 -0.000579464 0)
(0.0315234 -0.000449346 0)
(0.0311927 -0.000276722 0)
(0.0297108 -7.92492e-05 0)
(0.027154 0.000106878 0)
(0.0237731 0.000242739 0)
(0.0199458 0.000313551 0)
(0.0160473 0.000329767 0)
(0.0123622 0.000308814 0)
(0.00907966 0.00026494 0)
(0.00631803 0.000209515 0)
(0.00413178 0.00015281 0)
(0.00250583 0.000103672 0)
(0.00134981 6.86908e-05 0)
(0.000487151 5.16833e-05 0)
(0.000529153 -0.00379363 0)
(0.00259366 -0.00367516 0)
(0.00475562 -0.00335802 0)
(0.00689878 -0.00287485 0)
(0.00893284 -0.0023194 0)
(0.0108326 -0.00180956 0)
(0.0126451 -0.00143637 0)
(0.0144592 -0.00123854 0)
(0.0163826 -0.001209 0)
(0.0185228 -0.00131146 0)
(0.0209709 -0.00148848 0)
(0.0237644 -0.00166127 0)
(0.026827 -0.00173728 0)
(0.0299192 -0.00164272 0)
(0.0326474 -0.0013629 0)
(0.0345707 -0.000950801 0)
(0.0353321 -0.000478851 0)
(0.0347349 -3.69139e-06 0)
(0.0327628 0.00042564 0)
(0.0295927 0.000750524 0)
(0.0255923 0.000925623 0)
(0.0212264 0.000955482 0)
(0.0169064 0.00088522 0)
(0.0129141 0.000761154 0)
(0.00941927 0.000614131 0)
(0.00651752 0.000464377 0)
(0.00424299 0.000327794 0)
(0.00256399 0.000217093 0)
(0.00137738 0.000141056 0)
(0.000496684 0.000104273 0)
(0.000572654 -0.00657669 0)
(0.00295255 -0.00635349 0)
(0.00535855 -0.00576178 0)
(0.00759171 -0.00490073 0)
(0.00955155 -0.00397445 0)
(0.0112763 -0.00318528 0)
(0.0128943 -0.00264637 0)
(0.0145468 -0.00237758 0)
(0.0163592 -0.00234434 0)
(0.0184413 -0.00248651 0)
(0.0208847 -0.00271844 0)
(0.0237255 -0.00291948 0)
(0.0268748 -0.00294499 0)
(0.0300635 -0.00268041 0)
(0.0328639 -0.00211267 0)
(0.0348193 -0.00134157 0)
(0.0355786 -0.000503882 0)
(0.0349548 0.000293307 0)
(0.0329354 0.000965556 0)
(0.0297054 0.00143036 0)
(0.0256486 0.00163813 0)
(0.0212435 0.00161802 0)
(0.0169023 0.00145368 0)
(0.0129006 0.00122124 0)
(0.00940294 0.000967702 0)
(0.00650201 0.000721566 0)
(0.00423038 0.000503908 0)
(0.0025552 0.000330995 0)
(0.00137265 0.000213572 0)
(0.000495971 0.000156758 0)
(0.000646385 -0.00994985 0)
(0.00363741 -0.00951531 0)
(0.00645762 -0.00839341 0)
(0.00875667 -0.0068899 0)
(0.0104935 -0.00544558 0)
(0.0118864 -0.00435811 0)
(0.0132037 -0.00369915 0)
(0.0146355 -0.00341482 0)
(0.016305 -0.00342367 0)
(0.0183139 -0.00364238 0)
(0.0207547 -0.00396018 0)
(0.0236639 -0.00421223 0)
(0.0269343 -0.00419484 0)
(0.0302493 -0.0037507 0)
(0.0331305 -0.00287671 0)
(0.0351019 -0.00173186 0)
(0.0358324 -0.000521369 0)
(0.0351576 0.000600712 0)
(0.0330745 0.00151723 0)
(0.0297759 0.00212095 0)
(0.0256612 0.00235781 0)
(0.0212217 0.00228389 0)
(0.016867 0.00202316 0)
(0.0128637 0.00168135 0)
(0.00936941 0.00132092 0)
(0.00647428 0.00097826 0)
(0.0042095 0.000679516 0)
(0.00254126 0.000444446 0)
(0.00136527 0.000285694 0)
(0.000494777 0.000208721 0)
(0.000777912 -0.0145358 0)
(0.00504024 -0.0135889 0)
(0.00852064 -0.0112973 0)
(0.0106618 -0.00864227 0)
(0.0118091 -0.00652307 0)
(0.0126171 -0.00520593 0)
(0.0135209 -0.00454217 0)
(0.0146915 -0.00432854 0)
(0.0162005 -0.00443724 0)
(0.0181302 -0.00477821 0)
(0.0205796 -0.00522236 0)
(0.0235916 -0.00555608 0)
(0.0270346 -0.00550511 0)
(0.0305241 -0.0048649 0)
(0.0335086 -0.00365645 0)
(0.0354925 -0.00211731 0)
(0.036175 -0.000525302 0)
(0.0354253 0.00092399 0)
(0.0332528 0.00208546 0)
(0.0298606 0.0028258 0)
(0.0256699 0.00308642 0)
(0.0211872 0.00295349 0)
(0.0168172 0.00259349 0)
(0.0128132 0.00214116 0)
(0.00932454 0.00167347 0)
(0.00643764 0.00123418 0)
(0.00418215 0.000854384 0)
(0.00252312 0.000557263 0)
(0.00135569 0.000357278 0)
(0.000493307 0.000259978 0)
(0.00106575 -0.0219737 0)
(0.00833519 -0.0194508 0)
(0.0126123 -0.0142157 0)
(0.0136454 -0.00955307 0)
(0.0134111 -0.00682977 0)
(0.0133194 -0.00559581 0)
(0.0137532 -0.00514637 0)
(0.014667 -0.00511187 0)
(0.0160159 -0.00538086 0)
(0.017866 -0.00589556 0)
(0.0203395 -0.00651675 0)
(0.0234978 -0.00697259 0)
(0.0271779 -0.00689851 0)
(0.0308985 -0.00603713 0)
(0.0340087 -0.00445423 0)
(0.0359957 -0.00249366 0)
(0.0366085 -0.000510136 0)
(0.0357591 0.00126902 0)
(0.0334704 0.00267575 0)
(0.0299592 0.00354915 0)
(0.0256738 0.00382624 0)
(0.0211396 0.00362752 0)
(0.0167526 0.00316463 0)
(0.0127492 0.00260045 0)
(0.00926833 0.00202511 0)
(0.00639211 0.00148908 0)
(0.00414837 0.0010283 0)
(0.00250081 0.000669281 0)
(0.00134393 0.000428186 0)
(0.000491648 0.000310343 0)
(0.00245431 -0.0376569 0)
(0.0177124 -0.028799 0)
(0.0209962 -0.0152359 0)
(0.0176271 -0.00809329 0)