/*--------------------------------*- C++ -*----------------------------------*\
| =========                 |                                                 |
| \\      /  F ield         | OpenFOAM: The Open Source CFD Toolbox           |
|  \\    /   O peration     | Version:  2.4.0                                 |
|   \\  /    A nd           | Web:      www.OpenFOAM.org                      |
|    \\/     M anipulation  |                                                 |
\*---------------------------------------------------------------------------*/
FoamFile
{
    version     2.0;
    format      ascii;
    class       volScalarField;
    location    "0.351";
    object      p;
}
// * * * * * * * * * * * * * * * * * * * * * * * * * * * * * * * * * * * * * //

dimensions      [1 -1 -2 0 0 0 0];

internalField   nonuniform List<scalar> 
10000
(
-0.0286332
-0.0286325
-0.0286347
-0.0286407
-0.0286509
-0.0286654
-0.0286844
-0.028708
-0.0287361
-0.0287689
-0.0288062
-0.0288482
-0.0288947
-0.0289458
-0.0290015
-0.0290616
-0.0291262
-0.0291953
-0.0292687
-0.0293465
-0.0294287
-0.0295152
-0.0296059
-0.0297009
-0.0298
-0.0299031
-0.0300101
-0.0301208
-0.0302349
-0.0303522
-0.0304725
-0.0305953
-0.0307205
-0.0308479
-0.0309772
-0.0311086
-0.0312418
-0.0313771
-0.0315144
-0.0316538
-0.0317953
-0.0319389
-0.0320846
-0.0322323
-0.0323819
-0.0325332
-0.032686
-0.0328402
-0.0329956
-0.0331519
-0.0286338
-0.0286331
-0.0286356
-0.028642
-0.0286525
-0.0286674
-0.0286867
-0.0287105
-0.0287388
-0.0287717
-0.0288091
-0.0288511
-0.0288977
-0.0289488
-0.0290045
-0.0290646
-0.0291292
-0.0291982
-0.0292716
-0.0293494
-0.0294315
-0.0295179
-0.0296085
-0.0297033
-0.0298021
-0.029905
-0.0300116
-0.030122
-0.0302357
-0.0303526
-0.0304725
-0.030595
-0.03072
-0.0308473
-0.0309766
-0.031108
-0.0312414
-0.0313769
-0.0315144
-0.0316539
-0.0317956
-0.0319393
-0.032085
-0.0322327
-0.0323822
-0.0325333
-0.032686
-0.03284
-0.0329952
-0.0331514
-0.0286316
-0.0286307
-0.0286331
-0.0286397
-0.0286505
-0.0286656
-0.0286851
-0.0287091
-0.0287375
-0.0287705
-0.0288081
-0.0288502
-0.0288968
-0.028948
-0.0290037
-0.0290638
-0.0291284
-0.0291975
-0.0292709
-0.0293486
-0.0294306
-0.029517
-0.0296075
-0.0297022
-0.0298009
-0.0299036
-0.0300101
-0.0301202
-0.0302337
-0.0303505
-0.0304702
-0.0305926
-0.0307176
-0.0308448
-0.0309742
-0.0311057
-0.0312393
-0.0313749
-0.0315126
-0.0316523
-0.0317941
-0.031938
-0.0320838
-0.0322315
-0.032381
-0.0325322
-0.0326849
-0.0328389
-0.032994
-0.0331502
-0.0286255
-0.0286242
-0.0286265
-0.028633
-0.0286439
-0.0286592
-0.0286788
-0.0287029
-0.0287315
-0.0287646
-0.0288022
-0.0288444
-0.0288912
-0.0289424
-0.0289981
-0.0290583
-0.029123
-0.029192
-0.0292654
-0.0293432
-0.0294253
-0.0295116
-0.0296021
-0.0296968
-0.0297955
-0.0298982
-0.0300047
-0.0301148
-0.0302284
-0.0303453
-0.0304651
-0.0305876
-0.0307127
-0.0308401
-0.0309696
-0.0311013
-0.031235
-0.0313708
-0.0315086
-0.0316486
-0.0317906
-0.0319346
-0.0320806
-0.0322285
-0.0323782
-0.0325295
-0.0326824
-0.0328365
-0.0329919
-0.0331482
-0.0286154
-0.0286137
-0.0286156
-0.0286221
-0.028633
-0.0286482
-0.0286679
-0.0286921
-0.0287208
-0.028754
-0.0287918
-0.0288341
-0.0288809
-0.0289323
-0.0289881
-0.0290484
-0.0291131
-0.0291822
-0.0292556
-0.0293334
-0.0294155
-0.0295019
-0.0295925
-0.0296873
-0.0297861
-0.0298889
-0.0299956
-0.0301059
-0.0302198
-0.030337
-0.0304572
-0.0305801
-0.0307055
-0.0308331
-0.0309629
-0.0310948
-0.0312286
-0.0313646
-0.0315026
-0.0316428
-0.031785
-0.0319293
-0.0320756
-0.0322237
-0.0323737
-0.0325254
-0.0326786
-0.0328331
-0.0329888
-0.0331454
-0.0286009
-0.0285988
-0.0286005
-0.0286068
-0.0286176
-0.0286329
-0.0286526
-0.0286769
-0.0287057
-0.028739
-0.0287769
-0.0288193
-0.0288662
-0.0289177
-0.0289736
-0.029034
-0.0290988
-0.029168
-0.0292415
-0.0293194
-0.0294016
-0.0294881
-0.0295788
-0.0296737
-0.0297727
-0.0298758
-0.0299828
-0.0300936
-0.030208
-0.0303258
-0.0304466
-0.0305701
-0.030696
-0.030824
-0.0309541
-0.0310862
-0.0312202
-0.0313563
-0.0314945
-0.0316349
-0.0317774
-0.031922
-0.0320686
-0.0322172
-0.0323677
-0.0325198
-0.0326734
-0.0328285
-0.0329847
-0.0331419
-0.0285821
-0.0285796
-0.028581
-0.0285871
-0.0285978
-0.0286131
-0.0286328
-0.0286571
-0.028686
-0.0287194
-0.0287574
-0.0288
-0.0288471
-0.0288987
-0.0289547
-0.0290152
-0.0290802
-0.0291495
-0.0292231
-0.0293011
-0.0293834
-0.0294701
-0.029561
-0.0296561
-0.0297554
-0.0298588
-0.0299663
-0.0300777
-0.0301929
-0.0303115
-0.0304333
-0.0305577
-0.0306843
-0.0308129
-0.0309433
-0.0310755
-0.0312097
-0.0313459
-0.0314843
-0.0316249
-0.0317677
-0.0319127
-0.0320598
-0.0322089
-0.0323599
-0.0325127
-0.032667
-0.0328227
-0.0329796
-0.0331376
-0.0285587
-0.0285559
-0.028557
-0.0285629
-0.0285735
-0.0285887
-0.0286085
-0.0286329
-0.0286618
-0.0286954
-0.0287335
-0.0287762
-0.0288235
-0.0288752
-0.0289315
-0.0289921
-0.0290572
-0.0291266
-0.0292004
-0.0292786
-0.029361
-0.0294478
-0.0295389
-0.0296343
-0.029734
-0.0298379
-0.029946
-0.0300582
-0.0301744
-0.0302942
-0.0304174
-0.0305432
-0.0306706
-0.0307998
-0.0309307
-0.031063
-0.0311971
-0.0313333
-0.0314718
-0.0316127
-0.0317558
-0.0319013
-0.032049
-0.0321987
-0.0323505
-0.032504
-0.0326592
-0.0328158
-0.0329736
-0.0331324
-0.0285307
-0.0285275
-0.0285284
-0.0285342
-0.0285447
-0.0285598
-0.0285796
-0.028604
-0.0286331
-0.0286668
-0.0287051
-0.028748
-0.0287954
-0.0288474
-0.0289038
-0.0289646
-0.0290298
-0.0290994
-0.0291734
-0.0292517
-0.0293343
-0.0294213
-0.0295126
-0.0296083
-0.0297084
-0.0298128
-0.0299217
-0.0300349
-0.0301525
-0.0302741
-0.0303993
-0.0305271
-0.0306555
-0.0307856
-0.0309167
-0.0310488
-0.0311826
-0.0313186
-0.0314571
-0.0315981
-0.0317417
-0.0318877
-0.0320361
-0.0321866
-0.0323393
-0.0324938
-0.03265
-0.0328076
-0.0329665
-0.0331265
-0.0284981
-0.0284946
-0.0284952
-0.0285008
-0.0285112
-0.0285263
-0.0285461
-0.0285706
-0.0285998
-0.0286336
-0.0286721
-0.0287153
-0.0287629
-0.0288151
-0.0288717
-0.0289328
-0.0289982
-0.029068
-0.0291421
-0.0292206
-0.0293034
-0.0293905
-0.029482
-0.029578
-0.0296785
-0.0297836
-0.0298934
-0.0300079
-0.0301273
-0.0302512
-0.0303793
-0.0305105
-0.0306397
-0.0307708
-0.0309024
-0.0310336
-0.0311663
-0.0313017
-0.03144
-0.0315812
-0.0317252
-0.0318718
-0.032021
-0.0321725
-0.0323263
-0.0324819
-0.0326394
-0.0327983
-0.0329585
-0.0331197
-0.0284607
-0.028457
-0.0284573
-0.0284627
-0.028473
-0.0284881
-0.0285079
-0.0285325
-0.0285619
-0.0285959
-0.0286346
-0.028678
-0.0287259
-0.0287784
-0.0288353
-0.0288966
-0.0289622
-0.0290322
-0.0291065
-0.0291852
-0.0292681
-0.0293554
-0.0294472
-0.0295435
-0.0296446
-0.0297503
-0.029861
-0.0299767
-0.0300981
-0.0302247
-0.0303569
-0.0304933
-0.030622
-0.0307551
-0.0308878
-0.0310176
-0.0311484
-0.0312828
-0.0314207
-0.0315618
-0.0317061
-0.0318534
-0.0320035
-0.0321563
-0.0323113
-0.0324684
-0.0326273
-0.0327877
-0.0329494
-0.0331122
-0.0284186
-0.0284145
-0.0284146
-0.0284198
-0.0284301
-0.0284451
-0.028465
-0.0284897
-0.0285193
-0.0285535
-0.0285925
-0.0286362
-0.0286845
-0.0287373
-0.0287945
-0.0288561
-0.028922
-0.0289922
-0.0290667
-0.0291456
-0.0292287
-0.0293162
-0.0294082
-0.029505
-0.0296064
-0.0297127
-0.0298237
-0.0299402
-0.0300633
-0.0301916
-0.030329
-0.030474
-0.0305959
-0.0307335
-0.0308712
-0.031
-0.0311282
-0.0312615
-0.0313991
-0.0315402
-0.0316847
-0.0318326
-0.0319837
-0.0321378
-0.0322944
-0.0324531
-0.0326137
-0.0327759
-0.0329394
-0.0331039
-0.0283717
-0.0283672
-0.028367
-0.0283721
-0.0283823
-0.0283974
-0.0284173
-0.0284422
-0.0284719
-0.0285065
-0.0285458
-0.0285899
-0.0286386
-0.0286918
-0.0287494
-0.0288113
-0.0288775
-0.028948
-0.0290229
-0.0291021
-0.0291854
-0.0292731
-0.0293653
-0.0294622
-0.0295638
-0.02967
-0.0297807
-0.029897
-0.0300212
-0.0301471
-0.0302837
-0.0304224
-0.0304985
-0.0306764
-0.0308476
-0.0309769
-0.0311035
-0.0312355
-0.0313735
-0.0315154
-0.0316606
-0.0318094
-0.0319615
-0.032117
-0.0322753
-0.0324361
-0.0325987
-0.0327629
-0.0329284
-0.0330949
-0.0283198
-0.028315
-0.0283146
-0.0283196
-0.0283297
-0.0283447
-0.0283648
-0.0283899
-0.0284199
-0.0284548
-0.0284945
-0.028539
-0.0285882
-0.0286419
-0.0287
-0.0287624
-0.0288289
-0.0288998
-0.0289753
-0.0290549
-0.0291384
-0.029226
-0.0293182
-0.0294149
-0.0295161
-0.0296221
-0.0297326
-0.0298483
-0.0299688
-0.0300881
-0.030226
-0.0303127
-0.0303528
-0.0305574
-0.0307607
-0.0309334
-0.0310582
-0.0311949
-0.0313392
-0.0314849
-0.0316326
-0.0317831
-0.0319369
-0.032094
-0.0322543
-0.0324173
-0.0325822
-0.0327487
-0.0329165
-0.0330852
-0.0282628
-0.0282578
-0.0282571
-0.028262
-0.028272
-0.0282872
-0.0283074
-0.0283327
-0.028363
-0.0283983
-0.0284385
-0.0284836
-0.0285334
-0.0285878
-0.0286467
-0.0287097
-0.0287767
-0.028848
-0.028924
-0.029004
-0.0290872
-0.0291745
-0.0292666
-0.0293631
-0.0294635
-0.0295687
-0.0296779
-0.0297929
-0.0299098
-0.0299311
-0.0300783
-0.0304385
-0.0270432
-0.0292484
-0.0307136
-0.030754
-0.0309692
-0.031134
-0.031295
-0.0314482
-0.0315995
-0.0317529
-0.0319092
-0.0320688
-0.0322315
-0.0323969
-0.0325644
-0.0327335
-0.0329037
-0.033075
-0.0282008
-0.0281955
-0.0281946
-0.0281993
-0.0282093
-0.0282246
-0.0282449
-0.0282705
-0.0283012
-0.0283369
-0.0283777
-0.0284236
-0.0284743
-0.0285297
-0.0285896
-0.0286535
-0.0287211
-0.0287926
-0.028869
-0.028949
-0.0290314
-0.0291178
-0.0292099
-0.0293061
-0.0294075
-0.0295134
-0.0296188
-0.0297219
-0.0297878
-0.0297963
-0.0295986
-0.0235341
-0.0221838
-0.0220035
-0.0261375
-0.0304936
-0.030841
-0.0310588
-0.0312449
-0.0314079
-0.0315631
-0.0317192
-0.0318781
-0.0320409
-0.032207
-0.0323753
-0.0325455
-0.0327173
-0.0328903
-0.0330643
-0.0281335
-0.0281279
-0.0281268
-0.0281314
-0.0281415
-0.0281568
-0.0281774
-0.0282033
-0.0282343
-0.0282707
-0.0283122
-0.028359
-0.0284109
-0.0284677
-0.0285288
-0.0285937
-0.028662
-0.0287338
-0.0288103
-0.0288898
-0.0289714
-0.0290573
-0.0291482
-0.0292426
-0.0293428
-0.029461
-0.0295639
-0.0296698
-0.029766
-0.0297912
-0.029906
-0.028975
-0.0221957
-0.0243048
-0.0303339
-0.0306041
-0.0308093
-0.0310274
-0.0312119
-0.0313725
-0.031527
-0.0316838
-0.0318438
-0.0320098
-0.0321804
-0.0323526
-0.032526
-0.0327006
-0.0328764
-0.0330534
-0.0280608
-0.028055
-0.0280537
-0.0280583
-0.0280684
-0.0280839
-0.0281047
-0.0281309
-0.0281624
-0.0281994
-0.0282418
-0.0282898
-0.0283431
-0.0284011
-0.0284635
-0.0285297
-0.0285992
-0.028672
-0.0287494
-0.0288255
-0.0289015
-0.028993
-0.0290834
-0.0291796
-0.029268
-0.029305
-0.0295159
-0.0296225
-0.0297196
-0.0298365
-0.0299538
-0.0300228
-0.0290961
-0.0298569
-0.0303108
-0.0306215
-0.0308397
-0.0310169
-0.031179
-0.031333
-0.03149
-0.0316481
-0.0318066
-0.0319753
-0.0321517
-0.0323289
-0.0325063
-0.0326841
-0.0328625
-0.0330423
-0.0279827
-0.0279767
-0.0279753
-0.0279799
-0.0279901
-0.0280057
-0.0280267
-0.0280532
-0.0280852
-0.0281229
-0.0281664
-0.0282156
-0.0282699
-0.028329
-0.0283926
-0.0284604
-0.0285325
-0.0286084
-0.0286851
-0.0287606
-0.0288255
-0.028896
-0.0290184
-0.0291187
-0.0292171
-0.0293019
-0.028771
-0.029562
-0.0296672
-0.0297914
-0.0299437
-0.0300355
-0.0300322
-0.0302587
-0.030518
-0.0306855
-0.0308256
-0.0309662
-0.0311203
-0.0312878
-0.031455
-0.0316136
-0.031765
-0.0319363
-0.0321216
-0.0323049
-0.0324868
-0.0326683
-0.0328494
-0.0330315
-0.027899
-0.0278929
-0.0278914
-0.027896
-0.0279063
-0.027922
-0.0279433
-0.0279702
-0.0280027
-0.0280411
-0.0280856
-0.0281356
-0.0281906
-0.0282504
-0.0283148
-0.0283843
-0.0284591
-0.0285381
-0.0286168
-0.0286958
-0.0287644
-0.0288169
-0.0288849
-0.0290095
-0.0291571
-0.0292591
-0.0293232
-0.0294861
-0.0296208
-0.0297421
-0.0298713
-0.0300084
-0.0300989
-0.0302542
-0.0304348
-0.0304932
-0.030743
-0.0309016
-0.0310819
-0.0312587
-0.0314284
-0.0315755
-0.0317092
-0.031885
-0.0320899
-0.0322816
-0.0324679
-0.0326533
-0.032838
-0.0330217
-0.0278096
-0.0278035
-0.027802
-0.0278067
-0.027817
-0.027833
-0.0278545
-0.0278816
-0.0279146
-0.0279537
-0.0279988
-0.0280494
-0.0281048
-0.0281648
-0.0282297
-0.0282998
-0.0283738
-0.0284505
-0.0285298
-0.0286241
-0.0287038
-0.0287489
-0.0288023
-0.0289084
-0.0290614
-0.029217
-0.0293266
-0.0294491
-0.0295736
-0.0297003
-0.0298271
-0.0299513
-0.0300591
-0.0301869
-0.0303815
-0.0305407
-0.0307122
-0.0308822
-0.0310391
-0.0312116
-0.0313699
-0.0315113
-0.0316059
-0.0317967
-0.0320485
-0.032257
-0.0324485
-0.0326389
-0.0328283
-0.0330146
-0.0277146
-0.0277085
-0.0277071
-0.0277118
-0.0277223
-0.0277383
-0.02776
-0.0277875
-0.0278209
-0.0278604
-0.0279059
-0.0279567
-0.0280122
-0.0280725
-0.0281377
-0.0282071
-0.02828
-0.028348
-0.0284234
-0.0284985
-0.0285846
-0.0286115
-0.0286291
-0.028742
-0.0289482
-0.0291555
-0.0293083
-0.0294118
-0.0295269
-0.0296482
-0.029769
-0.0299063
-0.0300616
-0.0301822
-0.030371
-0.0305161
-0.0306652
-0.0308234
-0.0309823
-0.0311479
-0.0313308
-0.0314481
-0.0313481
-0.0316257
-0.0319762
-0.0322264
-0.0324251
-0.0326234
-0.0328197
-0.0330111
-0.0276139
-0.0276078
-0.0276065
-0.0276114
-0.0276219
-0.0276381
-0.02766
-0.0276876
-0.0277213
-0.0277612
-0.0278069
-0.0278577
-0.0279134
-0.0279739
-0.0280392
-0.0281086
-0.0281851
-0.0282529
-0.0283062
-0.0284297
-0.0282367
-0.0282848
-0.0283611
-0.0285123
-0.0288182
-0.0290629
-0.0292296
-0.0293405
-0.0294606
-0.0295809
-0.029702
-0.0298586
-0.0300006
-0.0301721
-0.0302898
-0.0304471
-0.0305997
-0.0307571
-0.0308958
-0.0310595
-0.0313219
-0.0301617
-0.0261362
-0.0292354
-0.0319584
-0.032169
-0.0323984
-0.032607
-0.032812
-0.0330099
-0.0275075
-0.0275015
-0.0275004
-0.0275053
-0.027516
-0.0275324
-0.0275544
-0.0275822
-0.027616
-0.027656
-0.0277018
-0.0277527
-0.0278085
-0.0278695
-0.0279344
-0.0280079
-0.0280818
-0.0281192
-0.0281602
-0.0282966
-0.0285183
-0.0280619
-0.0263635
-0.02627
-0.0283642
-0.0290983
-0.0291501
-0.0292525
-0.0293694
-0.0294882
-0.02961
-0.0297822
-0.0297519
-0.0296649
-0.0301763
-0.0303685
-0.0305213
-0.0306766
-0.0307939
-0.0308898
-0.0309281
-0.026259
-0.0258841
-0.0259196
-0.0298026
-0.032108
-0.0323873
-0.0326017
-0.0328107
-0.0330115
-0.0273953
-0.0273896
-0.0273886
-0.0273937
-0.0274045
-0.027421
-0.0274431
-0.027471
-0.0275049
-0.0275449
-0.0275907
-0.0276416
-0.0276977
-0.0277588
-0.0278251
-0.027901
-0.0279476
-0.027963
-0.028065
-0.0280295
-0.0281203
-0.0213019
-0.0204695
-0.0206628
-0.0225753
-0.0286836
-0.0289707
-0.0290972
-0.0292634
-0.0294045
-0.0295493
-0.0297034
-0.0298625
-0.0300511
-0.0301692
-0.0303159
-0.0302874
-0.0305443
-0.0307384
-0.0308784
-0.0310534
-0.0291603
-0.0256794
-0.0256238
-0.0318009
-0.0322121
-0.0324255
-0.0326197
-0.032822
-0.0330194
-0.0272776
-0.0272721
-0.0272713
-0.0272765
-0.0272874
-0.027304
-0.0273262
-0.0273542
-0.0273881
-0.027428
-0.0274737
-0.0275246
-0.0275807
-0.0276418
-0.0277096
-0.0277857
-0.0278427
-0.0278827
-0.0279525
-0.0279809
-0.0270684
-0.0199531
-0.0202899
-0.0204118
-0.0202917
-0.0279254
-0.028881
-0.0288061
-0.0291891
-0.0293154
-0.0294603
-0.0296184
-0.0297833
-0.0299312
-0.030019
-0.0300832
-0.0303681
-0.0305036
-0.0303761
-0.0308682
-0.0310775
-0.0313141
-0.030383
-0.0309184
-0.0324131
-0.0323266
-0.0324522
-0.0326328
-0.0328292
-0.0330264
-0.0271543
-0.027149
-0.0271484
-0.0271537
-0.0271648
-0.0271815
-0.0272038
-0.0272318
-0.0272656
-0.0273054
-0.027351
-0.0274017
-0.0274576
-0.0275183
-0.0275853
-0.0276581
-0.0277217
-0.0277779
-0.0278556
-0.0279266
-0.0265585
-0.0203392
-0.0202686
-0.0203786
-0.020582
-0.0274653
-0.0287959
-0.0289101
-0.0290751
-0.0292286
-0.0293803
-0.0295331
-0.0296927
-0.0298784
-0.0300629
-0.030222
-0.0303418
-0.0304994
-0.0307139
-0.0308884
-0.0310707
-0.031289
-0.0314843
-0.0317968
-0.0321231
-0.0319706
-0.0324263
-0.032611
-0.0328197
-0.0330242
-0.0270255
-0.0270204
-0.0270199
-0.0270255
-0.0270367
-0.0270534
-0.0270758
-0.0271038
-0.0271376
-0.0271773
-0.0272226
-0.0272732
-0.0273287
-0.0273889
-0.0274543
-0.0275227
-0.0275932
-0.0276618
-0.0277406
-0.0278583
-0.0280968
-0.0250835
-0.0200777
-0.0202293
-0.0257326
-0.0287424
-0.02874
-0.0288614
-0.0289822
-0.0291294
-0.0292894
-0.0294559
-0.0296261
-0.0298068
-0.0299904
-0.0301487
-0.0302659
-0.0304347
-0.0306272
-0.0308041
-0.0310221
-0.0311418
-0.0314639
-0.0317334
-0.0319843
-0.0321884
-0.032202
-0.0325862
-0.0328018
-0.0330151
-0.0268912
-0.0268863
-0.026886
-0.0268917
-0.026903
-0.0269199
-0.0269423
-0.0269704
-0.0270041
-0.0270436
-0.0270888
-0.0271393
-0.0271947
-0.0272544
-0.0273184
-0.0273857
-0.0274536
-0.0275268
-0.0276007
-0.027596
-0.0277445
-0.027658
-0.0277166
-0.0278292
-0.0280638
-0.028245
-0.0285845
-0.0287011
-0.0287439
-0.0290202
-0.0291854
-0.029361
-0.0295415
-0.0297348
-0.0299675
-0.0299713
-0.0302177
-0.0303728
-0.0305763
-0.0307386
-0.0309724
-0.0312018
-0.0314205
-0.0316601
-0.031909
-0.0321357
-0.0322291
-0.0325605
-0.0327889
-0.0330023
-0.0267516
-0.0267468
-0.0267466
-0.0267524
-0.0267638
-0.0267808
-0.0268033
-0.0268315
-0.0268652
-0.0269047
-0.0269498
-0.0270003
-0.0270557
-0.0271155
-0.0271792
-0.0272452
-0.027314
-0.0273851
-0.0274349
-0.0275545
-0.0276116
-0.0276037
-0.0276892
-0.0278245
-0.0280305
-0.0282267
-0.0284199
-0.0285745
-0.0287535
-0.0288758
-0.0290756
-0.0292688
-0.0291886
-0.0295805
-0.0298862
-0.0300792
-0.03011
-0.0302437
-0.0304877
-0.0306121
-0.0309361
-0.0311609
-0.0313745
-0.0316007
-0.0318369
-0.0320771
-0.0323011
-0.0324029
-0.0327406
-0.0329987
-0.0266066
-0.0266019
-0.0266018
-0.0266076
-0.0266191
-0.0266362
-0.0266589
-0.0266871
-0.026721
-0.0267605
-0.0268056
-0.0268563
-0.026912
-0.0269721
-0.0270362
-0.027103
-0.0271732
-0.0272456
-0.0273179
-0.0274183
-0.027492
-0.0275587
-0.0276803
-0.0277967
-0.0279418
-0.0281126
-0.0282818
-0.0284437
-0.0286051
-0.0287739
-0.0289587
-0.0291542
-0.0293511
-0.0295636
-0.0297861
-0.0301752
-0.0283505
-0.0220608
-0.0224614
-0.028189
-0.0309473
-0.0311487
-0.0313388
-0.0315451
-0.0317853
-0.0320323
-0.0322665
-0.0325092
-0.0327428
-0.0329395
-0.0264563
-0.0264515
-0.0264515
-0.0264573
-0.0264689
-0.0264861
-0.0265089
-0.0265373
-0.0265713
-0.026611
-0.0266563
-0.0267072
-0.0267634
-0.0268244
-0.0268896
-0.0269581
-0.0270311
-0.0271103
-0.0272002
-0.0272752
-0.0273657
-0.0274706
-0.0274285
-0.0276712
-0.0278019
-0.0279808
-0.0281494
-0.0283197
-0.0284998
-0.0286732
-0.028849
-0.0290273
-0.0292119
-0.0294014
-0.0296043
-0.0286942
-0.0169245
-0.016436
-0.0166767
-0.0177975
-0.0283109
-0.0310587
-0.0311223
-0.0314422
-0.0317274
-0.0320096
-0.0322477
-0.0324759
-0.0327148
-0.0329696
-0.0263006
-0.0262957
-0.0262956
-0.0263015
-0.0263132
-0.0263305
-0.0263534
-0.026382
-0.0264163
-0.0264562
-0.0265017
-0.026553
-0.0266099
-0.0266719
-0.0267387
-0.0268093
-0.0268851
-0.0269649
-0.0270541
-0.0269716
-0.0272202
-0.0273215
-0.0273726
-0.0275413
-0.0276921
-0.0278476
-0.0280169
-0.0281902
-0.028365
-0.0285388
-0.0287137
-0.0288912
-0.0290714
-0.0292464
-0.0294196
-0.0251289
-0.0158552
-0.0163328
-0.0165382
-0.0167423
-0.0229855
-0.030931
-0.0311412
-0.0313666
-0.0315449
-0.031748
-0.0322108
-0.0324727
-0.0327177
-0.0329534
-0.0261394
-0.0261344
-0.0261342
-0.0261401
-0.0261518
-0.0261692
-0.0261923
-0.0262212
-0.0262557
-0.026296
-0.0263419
-0.0263937
-0.0264511
-0.0265142
-0.0265825
-0.0266551
-0.0267326
-0.026816
-0.0268736
-0.0270097
-0.0271091
-0.0271575
-0.027281
-0.027434
-0.027183
-0.0277032
-0.0278782
-0.0280538
-0.0282286
-0.0284021
-0.0285755
-0.0287473
-0.0289123
-0.0290559
-0.0291299
-0.0257857
-0.0164726
-0.0164112
-0.0164823
-0.0167947
-0.0245154
-0.0307387
-0.0310364
-0.0313831
-0.0316636
-0.0319268
-0.0321837
-0.0324295
-0.0326447
-0.0329599
-0.0259728
-0.0259676
-0.0259672
-0.0259731
-0.0259848
-0.0260023
-0.0260256
-0.0260547
-0.0260896
-0.0261303
-0.0261768
-0.026229
-0.0262871
-0.0263511
-0.0264206
-0.0264951
-0.0265744
-0.026657
-0.0267511
-0.0268556
-0.0269602
-0.027056
-0.0266764
-0.0272889
-0.0273987
-0.0275765
-0.0277462
-0.0279197
-0.0280943
-0.0282682
-0.0284432
-0.0286185
-0.028786
-0.0289408
-0.0290654
-0.0288471
-0.0194097
-0.0164528
-0.0161205
-0.0172333
-0.0289343
-0.0307807
-0.0310559
-0.0313452
-0.031623
-0.0318841
-0.0321461
-0.0324128
-0.0326833
-0.0329013
-0.0258005
-0.0257951
-0.0257946
-0.0258003
-0.025812
-0.0258296
-0.0258531
-0.0258825
-0.0259177
-0.0259589
-0.026006
-0.026059
-0.0261179
-0.0261827
-0.0262534
-0.0263298
-0.0264119
-0.0264996
-0.0265967
-0.0266998
-0.0268057
-0.0269167
-0.0270669
-0.0271601
-0.0272821
-0.0273399
-0.0276154
-0.0277852
-0.0279591
-0.0281338
-0.0283132
-0.0284987
-0.028682
-0.0288676
-0.0290808
-0.0293765
-0.02905
-0.0254903
-0.0253271
-0.029427
-0.0309662
-0.030921
-0.0309801
-0.0313416
-0.0315885
-0.0318425
-0.0321063
-0.032377
-0.0326549
-0.0329383
-0.0256226
-0.0256168
-0.0256161
-0.0256217
-0.0256334
-0.0256511
-0.0256748
-0.0257045
-0.0257402
-0.0257819
-0.0258296
-0.0258834
-0.0259432
-0.026009
-0.026081
-0.0261592
-0.0262436
-0.0263348
-0.0264334
-0.0265397
-0.0266512
-0.026772
-0.0268991
-0.0270227
-0.0271575
-0.0273271
-0.0274837
-0.0276403
-0.0278165
-0.0279949
-0.0281793
-0.0283723
-0.0285713
-0.0287451
-0.0289571
-0.0291799
-0.0293269
-0.0295628
-0.029946
-0.0302261
-0.0305757
-0.0307732
-0.0310755
-0.0312886
-0.031532
-0.0317922
-0.0320605
-0.0323369
-0.032623
-0.0329121
-0.0254388
-0.0254327
-0.0254317
-0.0254372
-0.0254489
-0.0254667
-0.0254906
-0.0255206
-0.0255567
-0.025599
-0.0256474
-0.025702
-0.0257628
-0.0258298
-0.0259031
-0.0259828
-0.0260691
-0.0261624
-0.026263
-0.0263704
-0.0264846
-0.0266063
-0.0267353
-0.0268695
-0.027015
-0.0271712
-0.0273309
-0.0274967
-0.0276733
-0.0278557
-0.0280417
-0.028232
-0.0284268
-0.0285573
-0.0288244
-0.0290633
-0.029274
-0.0295296
-0.0298135
-0.0301148
-0.0304304
-0.0307034
-0.0309645
-0.0312085
-0.0314642
-0.0317304
-0.0320051
-0.0322883
-0.0325758
-0.032865
-0.0252491
-0.0252426
-0.0252413
-0.0252467
-0.0252584
-0.0252763
-0.0253004
-0.0253307
-0.0253672
-0.0254101
-0.0254592
-0.0255147
-0.0255765
-0.0256447
-0.0257194
-0.0258006
-0.0258886
-0.0259835
-0.0260856
-0.0261948
-0.0263113
-0.0264355
-0.0265675
-0.0267056
-0.0268531
-0.0270101
-0.0271741
-0.0273442
-0.0275233
-0.0277084
-0.0278985
-0.0280922
-0.0282964
-0.0285126
-0.0287291
-0.0289444
-0.0291669
-0.0294189
-0.0297197
-0.029997
-0.030157
-0.0305636
-0.030837
-0.0311114
-0.0313807
-0.0316553
-0.0319395
-0.0322321
-0.0325371
-0.0328289
-0.0250532
-0.0250464
-0.0250448
-0.0250501
-0.0250618
-0.0250797
-0.025104
-0.0251346
-0.0251717
-0.0252151
-0.0252649
-0.0253213
-0.0253841
-0.0254536
-0.0255296
-0.0256125
-0.0257022
-0.0257989
-0.0259027
-0.0260137
-0.0261321
-0.026258
-0.0263918
-0.026533
-0.0266833
-0.0268427
-0.0270093
-0.0271829
-0.027364
-0.0275523
-0.0277468
-0.0279482
-0.0281584
-0.0283761
-0.0285989
-0.0288288
-0.0290698
-0.0293401
-0.0296112
-0.0298926
-0.0301836
-0.0304562
-0.0307376
-0.0310203
-0.0313006
-0.0315808
-0.0318639
-0.0321568
-0.0323624
-0.032101
-0.0248512
-0.024844
-0.0248421
-0.0248472
-0.0248589
-0.0248769
-0.0249014
-0.0249324
-0.0249698
-0.0250138
-0.0250644
-0.0251216
-0.0251855
-0.0252562
-0.0253337
-0.0254181
-0.0255096
-0.0256083
-0.0257142
-0.0258274
-0.025948
-0.0260761
-0.0262117
-0.0263549
-0.0265063
-0.0266664
-0.0268348
-0.0270116
-0.0271969
-0.0273897
-0.0275891
-0.0277955
-0.02801
-0.0282321
-0.0284622
-0.0287001
-0.0289497
-0.0292145
-0.0294882
-0.0297685
-0.0300589
-0.0303483
-0.0306365
-0.0309337
-0.031216
-0.0315055
-0.0317927
-0.032081
-0.031979
-0.0319554
-0.0246428
-0.0246352
-0.0246331
-0.024638
-0.0246496
-0.0246678
-0.0246925
-0.0247237
-0.0247617
-0.0248062
-0.0248575
-0.0249156
-0.0249806
-0.0250524
-0.0251313
-0.0252174
-0.0253106
-0.0254111
-0.0255191
-0.0256345
-0.0257574
-0.025888
-0.0260263
-0.0261724
-0.0263265
-0.0264885
-0.0266583
-0.0268362
-0.0270229
-0.0272185
-0.0274227
-0.0276347
-0.0278543
-0.0280816
-0.0283165
-0.0285602
-0.0288142
-0.0290797
-0.0293542
-0.0296356
-0.0299235
-0.0302114
-0.0304829
-0.0307315
-0.0311262
-0.031432
-0.0317427
-0.032046
-0.0323595
-0.0326847
-0.024428
-0.02442
-0.0244176
-0.0244224
-0.024434
-0.0244522
-0.0244771
-0.0245087
-0.024547
-0.0245921
-0.0246442
-0.0247031
-0.0247691
-0.0248422
-0.0249225
-0.02501
-0.0251049
-0.0252072
-0.0253171
-0.0254345
-0.0255596
-0.0256923
-0.0258328
-0.0259813
-0.0261378
-0.0263028
-0.0264763
-0.0266585
-0.0268486
-0.0270461
-0.027251
-0.0274651
-0.0276889
-0.0279216
-0.0281622
-0.0284111
-0.0286698
-0.0289387
-0.0292159
-0.0295008
-0.0297927
-0.0300856
-0.0303759
-0.0307145
-0.0310596
-0.0313518
-0.0316708
-0.0319672
-0.0322343
-0.0325446
-0.0242066
-0.0241982
-0.0241955
-0.0242002
-0.0242117
-0.02423
-0.0242551
-0.024287
-0.0243258
-0.0243715
-0.0244242
-0.024484
-0.024551
-0.0246253
-0.0247069
-0.0247959
-0.0248924
-0.0249964
-0.0251081
-0.0252274
-0.0253544
-0.0254892
-0.0256317
-0.0257821
-0.0259406
-0.026108
-0.0262843
-0.0264702
-0.026665
-0.0268682
-0.0270789
-0.027296
-0.02752
-0.0277535
-0.0279983
-0.0282529
-0.0285165
-0.0287891
-0.0290698
-0.0293587
-0.0296596
-0.0299538
-0.0302579
-0.0305798
-0.030857
-0.0310484
-0.0314778
-0.0318155
-0.0320867
-0.0323938
-0.0239785
-0.0239698
-0.0239668
-0.0239713
-0.0239829
-0.0240012
-0.0240265
-0.0240587
-0.0240979
-0.0241441
-0.0241975
-0.0242582
-0.0243263
-0.0244017
-0.0244845
-0.0245749
-0.0246728
-0.0247785
-0.024892
-0.0250131
-0.0251421
-0.0252788
-0.0254231
-0.025575
-0.0257349
-0.0259042
-0.0260831
-0.0262727
-0.0264726
-0.0266808
-0.0268964
-0.0271192
-0.0273494
-0.027586
-0.0278297
-0.0280854
-0.0283537
-0.0286309
-0.0289147
-0.0292064
-0.0295033
-0.0298088
-0.03009
-0.0304221
-0.0307038
-0.030084
-0.0305761
-0.0316855
-0.0319213
-0.0322667
-0.0237436
-0.0237346
-0.0237314
-0.0237357
-0.0237472
-0.0237657
-0.0237911
-0.0238236
-0.0238632
-0.02391
-0.0239641
-0.0240256
-0.0240946
-0.0241711
-0.0242551
-0.0243467
-0.0244462
-0.0245534
-0.0246686
-0.0247917
-0.0249226
-0.0250611
-0.025207
-0.0253601
-0.0255203
-0.0256909
-0.0258717
-0.0260657
-0.0262716
-0.0264854
-0.0267061
-0.0269336
-0.0271682
-0.0274102
-0.0276596
-0.0279155
-0.0281824
-0.0284636
-0.0287527
-0.0290492
-0.0293521
-0.0296593
-0.0299753
-0.0302997
-0.0306302
-0.0308855
-0.0312852
-0.0318924
-0.0317375
-0.0319874
-0.0235018
-0.0234925
-0.0234891
-0.0234933
-0.0235048
-0.0235233
-0.0235489
-0.0235817
-0.0236216
-0.023669
-0.0237237
-0.0237861
-0.023856
-0.0239334
-0.0240185
-0.0241114
-0.0242122
-0.024321
-0.024438
-0.024563
-0.024696
-0.0248366
-0.0249838
-0.0251369
-0.0252957
-0.0254676
-0.0256487
-0.0258476
-0.0260623
-0.0262829
-0.0265086
-0.0267403
-0.0269789
-0.027225
-0.0274788
-0.0277404
-0.028009
-0.0282881
-0.028582
-0.0288847
-0.029194
-0.0295129
-0.0298342
-0.0301158
-0.0304485
-0.0307396
-0.03107
-0.0284615
-0.0252749
-0.026066
-0.023253
-0.0232435
-0.0232398
-0.023244
-0.0232554
-0.023274
-0.0232998
-0.0233328
-0.0233731
-0.023421
-0.0234764
-0.0235395
-0.0236102
-0.0236885
-0.0237745
-0.0238685
-0.0239707
-0.0240812
-0.0242
-0.0243272
-0.0244629
-0.0246061
-0.0247553
-0.0249076
-0.0250571
-0.0252322
-0.0254106
-0.0256154
-0.0258457
-0.0260748
-0.026305
-0.02654
-0.0267818
-0.0270311
-0.0272886
-0.0275545
-0.0278287
-0.02811
-0.0284016
-0.0287097
-0.0290277
-0.0293541
-0.0296872
-0.0298302
-0.0302717
-0.0305818
-0.0305414
-0.0246766
-0.0251035
-0.0254291
-0.0229972
-0.0229874
-0.0229836
-0.0229876
-0.0229991
-0.0230178
-0.0230437
-0.0230769
-0.0231176
-0.023166
-0.023222
-0.0232858
-0.0233571
-0.0234362
-0.0235231
-0.0236181
-0.0237215
-0.0238336
-0.0239544
-0.0240843
-0.0242233
-0.0243712
-0.0245243
-0.0246776
-0.0248104
-0.0249735
-0.0251448
-0.0253718
-0.0256273
-0.025865
-0.026097
-0.0263335
-0.026577
-0.0268287
-0.0270892
-0.0273587
-0.0276372
-0.0279243
-0.0282187
-0.0285232
-0.028847
-0.0291806
-0.0295129
-0.0297394
-0.0301223
-0.0304588
-0.0308004
-0.0263108
-0.0251182
-0.0255073
-0.0227342
-0.0227242
-0.0227202
-0.0227242
-0.0227357
-0.0227544
-0.0227805
-0.022814
-0.022855
-0.0229038
-0.0229604
-0.0230247
-0.0230966
-0.0231763
-0.0232639
-0.0233598
-0.0234643
-0.0235779
-0.0237007
-0.0238335
-0.0239766
-0.0241319
-0.0243003
-0.024442
-0.0245591
-0.0246693
-0.0248442
-0.0251216
-0.0254152
-0.0256559
-0.025886
-0.0261209
-0.0263646
-0.0266177
-0.0268806
-0.0271533
-0.0274357
-0.0277275
-0.0280284
-0.0283361
-0.0286517
-0.0289973
-0.0293262
-0.0296583
-0.0300303
-0.030352
-0.0306432
-0.0309518
-0.0268138
-0.0290096
-0.033309
-0.0334667
-0.0336247
-0.0337829
-0.0339411
-0.0340992
-0.0342569
-0.0344142
-0.0345709
-0.0347269
-0.034882
-0.035036
-0.0351887
-0.03534
-0.0354896
-0.0356373
-0.0357829
-0.0359261
-0.0360668
-0.0362049
-0.0363403
-0.0364727
-0.036602
-0.0367281
-0.0368506
-0.0369696
-0.0370849
-0.0371963
-0.0373037
-0.0374068
-0.0375057
-0.0376
-0.0376898
-0.0377748
-0.0378549
-0.0379301
-0.0380002
-0.0380652
-0.0381249
-0.0381793
-0.0382282
-0.0382717
-0.0383096
-0.038342
-0.0383686
-0.0383896
-0.0384049
-0.0384144
-0.0384184
-0.0384179
-0.0333083
-0.0334658
-0.0336237
-0.0337818
-0.0339399
-0.0340979
-0.0342557
-0.034413
-0.0345697
-0.0347256
-0.0348806
-0.0350346
-0.0351873
-0.0353385
-0.035488
-0.0356356
-0.0357811
-0.0359243
-0.0360651
-0.0362033
-0.0363387
-0.0364712
-0.0366006
-0.0367268
-0.0368494
-0.0369685
-0.0370838
-0.0371953
-0.0373026
-0.0374058
-0.0375046
-0.0375989
-0.0376886
-0.0377736
-0.0378537
-0.0379289
-0.037999
-0.0380639
-0.0381236
-0.038178
-0.0382269
-0.0382704
-0.0383083
-0.0383407
-0.0383674
-0.0383885
-0.038404
-0.0384137
-0.0384178
-0.0384173
-0.0333071
-0.0334646
-0.0336225
-0.0337806
-0.0339389
-0.034097
-0.0342548
-0.0344122
-0.034569
-0.0347251
-0.0348802
-0.0350343
-0.0351871
-0.0353384
-0.035488
-0.0356357
-0.0357813
-0.0359247
-0.0360656
-0.036204
-0.0363396
-0.0364724
-0.0366021
-0.0367285
-0.0368514
-0.0369706
-0.0370861
-0.0371977
-0.0373052
-0.0374085
-0.0375074
-0.0376018
-0.0376916
-0.0377767
-0.0378569
-0.0379321
-0.0380022
-0.0380672
-0.0381269
-0.0381813
-0.0382303
-0.0382738
-0.0383118
-0.0383443
-0.0383711
-0.0383923
-0.0384079
-0.0384178
-0.0384219
-0.0384212
-0.0333053
-0.033463
-0.0336211
-0.0337795
-0.033938
-0.0340964
-0.0342545
-0.0344122
-0.0345693
-0.0347256
-0.0348811
-0.0350354
-0.0351885
-0.0353401
-0.03549
-0.0356381
-0.035784
-0.0359277
-0.0360689
-0.0362076
-0.0363437
-0.036477
-0.0366071
-0.0367338
-0.0368571
-0.0369768
-0.0370926
-0.0372045
-0.0373123
-0.0374158