/*--------------------------------*- C++ -*----------------------------------*\
| =========                 |                                                 |
| \\      /  F ield         | OpenFOAM: The Open Source CFD Toolbox           |
|  \\    /   O peration     | Version:  2.4.0                                 |
|   \\  /    A nd           | Web:      www.OpenFOAM.org                      |
|    \\/     M anipulation  |                                                 |
\*---------------------------------------------------------------------------*/
FoamFile
{
    version     2.0;
    format      ascii;
    class       surfaceScalarField;
    location    "0.181";
    object      phiAlpha;
}
// * * * * * * * * * * * * * * * * * * * * * * * * * * * * * * * * * * * * * //

dimensions      [0 3 -1 0 0 0 0];

internalField   nonuniform List<scalar> 
12835
(
-1.82045e-07
1.83497e-07
-3.34477e-07
1.58849e-07
-3.11651e-07
-1.60769e-08
-2.64426e-07
-4.47825e-08
-2.02929e-07
-5.65191e-08
1.05517e-08
-2.04645e-07
1.70507e-07
-1.39109e-07
1.36642e-07
-3.91397e-09
1.43703e-07
-1.52456e-08
-4.15818e-10
1.56795e-07
-1.90522e-08
1.86363e-08
-1.24662e-08
-3.45257e-09
2.35833e-08
-2.54814e-08
2.23543e-09
6.53485e-09
-7.09182e-09
2.00369e-08
-1.25179e-09
-2.05347e-09
-6.1694e-10
5.21152e-09
-6.71996e-10
6.40672e-10
4.82599e-10
4.03411e-10
3.83329e-09
6.79006e-11
-2.38452e-11
4.3788e-09
-3.45123e-12
6.03131e-13
-4.80831e-11
4.24391e-13
-2.21265e-09
2.01711e-09
-2.83032e-09
1.67412e-09
-2.82822e-09
3.55638e-09
-1.90477e-09
1.0072e-09
-4.58937e-10
-7.6893e-10
2.04267e-09
-4.75841e-10
5.22457e-09
-1.65016e-10
5.11389e-09
2.28914e-09
6.77936e-10
2.97348e-09
-1.157e-11
3.65225e-10
9.79871e-13
-4.14507e-11
8.62295e-12
4.19748e-12
4.95017e-11
7.84337e-12
1.07221e-11
5.6219e-11
6.42457e-12
6.4429e-12
4.24791e-12
2.33527e-12
4.51426e-12
2.79108e-12
8.10367e-14
1.25078e-12
1.30022e-13
4.87431e-13
-1.01397e-12
1.54414e-12
-1.65553e-12
3.126e-12
-1.8787e-13
1.5989e-12
-2.40417e-13
5.25441e-14
-6.651e-13
7.72728e-13
-1.57825e-12
8.15318e-13
-1.64775e-12
2.04199e-13
4.2178e-15
-2.10108e-12
-2.31349e-07
4.16525e-07
-3.60133e-07
2.88559e-07
-3.10785e-07
-6.87847e-08
-2.72049e-07
-8.34643e-08
-2.45385e-07
-8.43201e-08
-7.38697e-08
-3.91305e-07
-7.97487e-08
-1.59373e-07
-1.79252e-07
1.58673e-07
-1.01567e-07
-3.7741e-08
-1.274e-07
4.14286e-07
-9.49838e-08
3.8624e-08
-3.65169e-08
-2.13559e-08
1.38709e-08
-5.7421e-08
3.9777e-08
-2.55365e-09
4.95295e-09
3.20493e-08
1.67835e-08
-2.45199e-08
1.50625e-08
1.45809e-08
5.82056e-09
8.1805e-09
3.62478e-09
6.97101e-10
1.25e-09
5.79292e-11
-1.36826e-11
6.12598e-09
-2.04513e-11
-1.26293e-12
-1.18524e-10
-9.07847e-12
-2.07627e-09
1.5032e-09
-4.68676e-09
6.49723e-09
-4.87609e-09
7.33758e-09
-4.89679e-09
1.01841e-10
-1.74195e-10
-1.27089e-09
2.28655e-09
-3.85359e-09
1.60737e-08
-1.56584e-09
1.12443e-08
7.50702e-09
3.15793e-09
1.16209e-08
-1.64237e-10
3.95409e-10
6.73446e-11
-4.43252e-11
3.16737e-10
4.27058e-11
4.58768e-10
-1.54175e-10
8.11364e-12
3.75471e-10
7.00814e-12
7.6913e-12
6.13168e-12
3.38622e-12
5.87064e-12
9.4754e-12
-1.57302e-13
7.96951e-12
-3.23266e-12
2.02499e-12
-5.8143e-12
6.09288e-12
-4.45214e-12
2.21916e-12
-4.67128e-12
2.5491e-13
-3.46516e-12
1.48677e-12
-8.10193e-12
2.82268e-12
-4.26432e-12
2.44616e-12
-4.06588e-12
1.19767e-13
-2.55893e-13
-3.74683e-12
-2.28158e-07
6.4543e-07
-3.43036e-07
4.03829e-07
-2.89609e-07
-1.23164e-07
-2.66986e-07
-1.06037e-07
-2.78905e-07
-7.22791e-08
-1.69217e-07
-5.09281e-07
1.27673e-07
-4.61078e-07
3.60327e-07
-1.85609e-07
5.16276e-08
-4.06601e-08
-4.94996e-08
1.198e-07
-1.7165e-08
1.49952e-08
-1.71421e-08
-2.60499e-09
-1.3522e-08
-3.20428e-08
2.80999e-08
-3.59528e-08
8.92881e-09
5.82758e-08
4.33787e-09
-1.46481e-08
1.64366e-08
3.68033e-09
1.55028e-08
7.09339e-09
1.20107e-08
-1.10054e-09
1.03135e-08
7.49524e-10
1.50123e-11
1.52628e-08
-1.91054e-11
1.4478e-11
7.20466e-13
-9.83807e-12
1.96987e-09
2.34824e-11
-1.66782e-09
7.59541e-09
-5.04854e-09
1.2831e-08
-1.4111e-09
-9.71282e-09
5.42309e-10
-2.31997e-10
1.58988e-09
-5.06943e-09
1.03529e-08
-1.26308e-08
6.95197e-09
1.17754e-08
5.3873e-10
1.85028e-08
-2.06849e-13
7.45454e-11
1.68249e-10
-1.40919e-10
4.87679e-10
1.57403e-10
7.33733e-10
-2.2444e-10
2.46938e-11
8.17079e-10
9.12682e-12
1.93872e-11
5.6943e-12
6.95137e-12
2.37881e-12
1.84516e-11
-3.36419e-12
1.97676e-11
-7.21503e-12
1.83452e-12
-2.73439e-12
2.19264e-12
-5.88066e-13
1.73167e-13
-6.2136e-13
2.31263e-13
-1.61933e-12
1.03686e-12
-6.71743e-12
4.40967e-12
-1.27101e-11
7.91818e-12
-2.22776e-11
5.21474e-12
3.54808e-12
-2.59093e-11
-2.16367e-07
8.61923e-07
-3.19048e-07
5.06579e-07
-2.63455e-07
-1.78684e-07
-2.43524e-07
-1.25522e-07
-2.6342e-07
-5.21233e-08
-1.69859e-07
-6.02596e-07
2.22941e-08
-6.45551e-07
3.14831e-07
-7.60911e-07
1.90698e-07
-2.4862e-07
2.03863e-09
5.26689e-08
-1.19908e-08
3.27783e-08
-7.89978e-09
1.10157e-08
-3.53275e-09
-1.19693e-08
4.94378e-09
-6.94296e-09
7.08756e-09
1.65604e-08
-2.71019e-10
7.46978e-11
1.15235e-08
1.474e-10
2.23071e-08
-8.79757e-10
2.72387e-08
-4.08649e-08
1.53609e-08
-3.5394e-08
1.41673e-11
3.31279e-08
-1.18289e-11
8.00996e-11
1.4244e-11
-4.97805e-11
1.3129e-09
-9.4675e-10
2.66385e-09
3.95125e-09
3.83869e-09
3.07638e-09
1.45415e-08
-1.23321e-08
1.61124e-09
-2.21192e-09
-2.1492e-10
-4.29452e-09
4.21006e-09
-9.32198e-09
2.14838e-09
1.46471e-08
-1.67583e-10
2.15797e-08
8.1018e-11
-2.81636e-11
1.1863e-10
-1.59846e-10
6.1949e-10
1.95299e-10
3.5343e-10
2.0392e-10
1.01981e-10
7.49071e-10
7.71807e-12
5.497e-11
4.09605e-12
1.03988e-11
-9.91687e-14
2.75355e-11
-1.98368e-12
2.65448e-11
-1.17608e-12
4.79153e-13
-2.36686e-13
3.58236e-13
-3.52935e-13
2.46789e-13
-5.7738e-13
4.19539e-13
-1.52741e-12
1.93774e-12
-8.6983e-13
9.59752e-12
-9.4523e-11
1.81152e-11
-7.27728e-10
4.99907e-10
-9.33548e-10
-2.9582e-10
-2.01364e-07
1.06345e-06
-2.9168e-07
5.97053e-07
-2.37757e-07
-2.27379e-07
-2.26073e-07
-1.37117e-07
-2.21499e-07
-5.77455e-08
-1.13369e-07
-7.07807e-07
-6.40372e-08
-7.27197e-07
1.55931e-07
-1.0935e-06
4.03021e-07
-1.24009e-06
3.27469e-08
3.09321e-07
-7.53339e-09
7.56358e-08
-7.28401e-09
5.92772e-08
-2.27529e-09
-2.79714e-08
5.22025e-10
-1.07055e-08
3.56018e-09
1.22204e-08
1.30967e-08
-1.73593e-10
4.51552e-08
-1.52525e-09
4.10242e-08
3.12516e-10
3.79868e-08
-3.75809e-08
3.97543e-08
-4.08337e-08
2.71578e-11
3.09838e-08
-3.62881e-11
1.5575e-10
1.14957e-11
-1.03516e-10
2.82802e-10
-1.20335e-09
2.20557e-09
2.06273e-10
8.52914e-09
1.55648e-09
6.27716e-09
-4.44289e-09
1.06151e-10
-5.09881e-08
1.0309e-09
-3.06276e-08
1.68389e-09
-8.55366e-09
-1.05556e-09
1.8155e-08
-7.2787e-11
2.10826e-08
2.1844e-10
-2.97738e-10
2.36677e-10
-1.70796e-10
9.03471e-10
1.7266e-10
6.33617e-10
6.23161e-10
1.46139e-10
9.82759e-10
7.89014e-12
8.60086e-11
-7.15486e-13
1.80364e-11
5.17378e-13
3.10812e-11
-3.76747e-13
3.02176e-11
-1.6247e-13
2.35527e-13
-1.15702e-13
2.83882e-13
-2.05094e-13
3.03408e-13
-2.03526e-12
2.21274e-12
-7.01788e-12
1.31666e-11
7.25044e-13
1.9459e-11
-2.40566e-11
2.40271e-11
1.73522e-09
-5.6582e-11
2.81384e-09
-3.7779e-09
-1.84689e-07
1.2483e-06
-2.58171e-07
6.71681e-07
-2.11757e-07
-2.66541e-07
-2.12599e-07
-1.38052e-07
-1.96286e-07
-7.68645e-08
-1.8085e-07
-7.23164e-07
-2.68225e-07
-6.37419e-07
-2.86411e-07
-1.06073e-06
3.44164e-07
-2.73183e-06
9.90942e-09
5.25725e-07
1.93564e-09
9.57189e-08
-1.58827e-08
1.94877e-08
-1.3358e-09
-2.36734e-07
-6.57442e-11
-1.29191e-08
5.73681e-09
2.36641e-08
8.12124e-08
-3.29357e-08
8.7864e-08
4.78447e-11
6.39687e-08
2.47766e-08
4.35574e-08
-1.74845e-08
4.21979e-08
-3.96951e-08
1.48346e-11
5.6456e-08
-7.62561e-11
2.7452e-10
-7.80267e-11
-1.58067e-10
-3.24754e-11
-1.54001e-10
1.11191e-10
1.06522e-10
1.77627e-09
1.62948e-11
1.58221e-08
-3.31701e-09
1.12411e-08
-4.7473e-08
1.4644e-08
-1.17889e-07
-3.25187e-10
-6.15662e-09
-8.98106e-10
2.29026e-08
1.2029e-09
3.12729e-09
1.02835e-10
-4.07404e-10
1.31433e-10
-1.85507e-10
6.04272e-10
2.52194e-10
7.52955e-10
6.11495e-10
2.36353e-10
9.69282e-10
-2.11304e-11
1.11466e-10
-7.39961e-14
3.94388e-11
1.74301e-12
2.04754e-12
-8.97995e-15
3.56732e-12
-4.57482e-14
2.45227e-13
-8.03461e-14
2.93154e-13
-2.89526e-13
4.88668e-13
-1.82188e-12
1.44389e-11
2.78146e-12
1.12482e-11
1.66251e-11
7.80347e-12
-2.48412e-09
1.75462e-09
-5.2194e-10
-2.9356e-09
-1.59683e-09
3.78049e-09
-1.66715e-07
1.41515e-06
-2.2313e-07
7.28874e-07
-1.90244e-07
-3.02617e-07
-1.91049e-07
-1.39831e-07
-1.7358e-07
-1.00108e-07
-1.72661e-07
-7.2401e-07
-2.98272e-07
-5.08109e-07
-2.56076e-07
-1.15017e-06
1.00003e-07
-3.13277e-06
2.80229e-09
8.13076e-07
1.73256e-09
8.32936e-08
-8.74613e-09
1.82097e-08
-9.50989e-10
-2.2625e-07
1.26427e-10
-1.53315e-08
5.97337e-08
2.15062e-09
1.01631e-07
-5.55322e-08
9.32213e-08
2.06731e-09
7.45596e-08
4.30411e-08
5.35355e-08
2.94168e-09
4.14764e-08
-2.80949e-08
-1.13246e-10
1.17859e-07
-8.31988e-11
2.23862e-10
-2.33564e-11
-1.48092e-10
-2.19391e-11
-1.00679e-10
3.68671e-11
8.65782e-11
4.24527e-10
-3.33409e-10
2.09088e-08
-8.38055e-09
1.68347e-08
-4.50156e-08
6.18397e-09
-1.0835e-07
-2.01756e-10
-5.25695e-09
-7.11038e-10
2.51061e-08
5.66558e-11
-2.55981e-10
5.667e-11
-7.06888e-10
6.62849e-11
-1.78476e-10
3.16489e-10
1.51264e-11
8.14633e-10
3.40468e-10
3.38443e-10
1.07154e-09
-1.24964e-11
2.08043e-10
-9.92215e-13
4.61103e-11
-3.52895e-13
8.62984e-12
2.44528e-13
1.04517e-12
-5.37436e-15
4.70426e-13
-5.2301e-14
3.2115e-13
-1.21398e-12
1.40455e-12
2.37775e-13
1.43231e-11
4.90634e-12
5.13126e-12
2.00644e-11
6.3444e-11
5.33478e-09
7.43659e-11
4.63418e-09
-2.36311e-09
-1.99165e-09
4.76963e-09
-1.49158e-07
1.56468e-06
-2.0136e-07
7.85952e-07
-1.81475e-07
-3.24536e-07
-1.89794e-07
-1.31452e-07
-1.59952e-07
-1.30503e-07
-1.18631e-07
-7.57225e-07
-1.71678e-07
-4.54198e-07
5.9826e-08
-1.38086e-06
1.64151e-07
-1.84083e-06
2.10043e-08
2.83382e-07
1.71949e-09
6.42911e-08
-1.11934e-09
1.3097e-09
-4.46142e-10
-2.05139e-07
1.28705e-10
-1.54877e-07
9.06892e-09
-4.17162e-09
3.44378e-09
-3.3984e-09
3.90771e-08
-2.13542e-10
6.91787e-08
1.34482e-08
6.16214e-08
9.82478e-09
3.2605e-08
3.22594e-10
-6.20706e-11
1.37543e-07
-2.99641e-11
1.49103e-10
8.84127e-12
-1.26028e-11
-1.09473e-11
-8.8689e-11
3.41856e-11
8.43526e-11
3.5459e-09
-1.84672e-10
2.16691e-08
-3.92152e-09
1.30554e-08
-3.80125e-08
5.35364e-09
-1.01873e-07
-7.45659e-10
-6.71217e-09
-3.62067e-10
2.51392e-08
-1.97417e-11
5.05551e-10
7.90771e-11
-3.41173e-10
8.16082e-11
-1.67549e-10
1.00497e-10
6.1796e-12
9.79007e-10
1.4369e-10
2.99341e-10
1.8674e-09
-4.66313e-12
3.15915e-10
1.31272e-12
2.12512e-11
8.93281e-13
7.25294e-12
3.86955e-13
2.11978e-12
2.59371e-12
6.76436e-11
1.47491e-14
2.88499e-12
9.19261e-15
5.33781e-12
6.39775e-14
1.5104e-11
-8.89297e-13
4.3229e-12
9.32962e-12
4.08218e-12
2.34409e-09
-9.25758e-10
4.14721e-09
-4.66355e-09
-2.89151e-09
5.00915e-09
-1.36753e-07
1.70183e-06
-1.86057e-07
8.37252e-07
-1.661e-07
-3.47548e-07
-1.88637e-07
-1.08862e-07
-1.55235e-07
-1.61896e-07
-6.71103e-08
-8.48101e-07
-1.07462e-08
-5.10905e-07
2.0133e-07
-1.59204e-06
-2.22835e-08
-1.67322e-06
1.95533e-08
3.59468e-07
1.92257e-09
1.12219e-07
-1.10527e-09
5.65968e-08
6.21937e-09
-4.64844e-08
7.8861e-09
-9.57171e-08
2.13399e-09
-5.1348e-09
9.11562e-10
-2.20187e-09
1.53749e-09
-8.63792e-10
5.39537e-08
3.27719e-10
5.82167e-08
5.11456e-09
4.01836e-08
1.64898e-08
1.31519e-08
3.31776e-08
-9.98571e-11
6.67205e-09
4.38777e-11
-8.64103e-12
2.72302e-12
-1.26377e-10
1.29893e-11
1.03223e-10
1.47451e-10
-2.93984e-10
1.31993e-08
-8.79244e-10
2.35817e-08
-2.66237e-08
1.19258e-08
-9.1736e-08
-5.73261e-11
-1.81923e-10
5.64663e-10
2.57423e-08
1.72093e-10
3.18202e-10
5.52374e-11
-2.11589e-10
6.72112e-11
-1.69409e-10
9.81911e-11
-4.52099e-12
7.18081e-10
5.86248e-11
3.96711e-10
2.29887e-09
-7.23916e-12
6.94135e-10
-1.21375e-12
1.46582e-11
1.93975e-12
2.27023e-12
3.39014e-12
2.0132e-12
1.04853e-11
7.75325e-11
2.07407e-12
6.13259e-11
6.02232e-14
2.7884e-11
-3.24006e-14
5.39655e-12
-3.20802e-12
6.88598e-12
1.82027e-10
1.35694e-11
1.15897e-08
-3.57134e-10
1.00165e-08
-2.45239e-09
-1.53056e-09
8.23366e-09
-1.26525e-07
1.8284e-06
-1.6839e-07
8.79523e-07
-1.6042e-07
-3.49153e-07
-1.89017e-07
-7.84704e-08
-1.56757e-07
-1.93507e-07
-3.96254e-08
-9.73276e-07
1.19844e-07
-6.70363e-07
2.2783e-07
-1.48926e-06
1.56228e-07
-3.02195e-06
3.53857e-08
6.09936e-07
4.69888e-09
1.72246e-07
-1.37962e-10
6.58958e-08
1.96303e-09
-4.96151e-08
7.08781e-09
-1.01572e-07
1.79452e-09
5.18914e-10
7.50965e-10
-1.18192e-09
1.03209e-09
-1.16738e-09
2.94227e-08
-9.90135e-10
5.59575e-08
4.58787e-10
4.30493e-08
2.84762e-08
5.35192e-09
1.37179e-07
5.08346e-10
1.15334e-08
1.24119e-10
2.85247e-10
5.95836e-11
1.03079e-10
-1.25113e-11
1.62821e-10
-1.54459e-11
-2.5171e-10
7.63376e-09
-1.72037e-09
2.44671e-08
-3.98693e-08
7.45996e-09
-7.64083e-08
-1.42263e-10
-4.52521e-09
6.69453e-10
4.73782e-10
1.67704e-10
6.13498e-11
6.93786e-11
-9.6564e-11
5.60857e-11
-1.37724e-10
6.66584e-11
4.6038e-12
2.76076e-10
4.55052e-11
6.24317e-10
7.04246e-10
6.24835e-12
9.24575e-10
1.37273e-12
2.18864e-11
1.06443e-12
2.39995e-12
1.0648e-12
1.69078e-12
1.63571e-11
7.61885e-11
7.47772e-12
8.10068e-11
1.56702e-12
3.59362e-11
6.15616e-13
6.00213e-12
1.52168e-12
5.28538e-12
6.9582e-11
-1.25913e-11
3.41471e-10
-5.82907e-10
7.53348e-09
-3.70811e-10
-4.08905e-09
1.01935e-08
-1.14367e-07
1.94282e-06
-1.50037e-07
9.11663e-07
-1.57556e-07
-3.42117e-07
-1.94226e-07
-4.04108e-08
-1.61622e-07
-2.29721e-07
-4.74686e-08
-1.08742e-06
1.55801e-07
-8.73625e-07
9.64088e-08
-6.49497e-07
1.05844e-07
-2.93252e-06
1.11188e-07
5.31206e-07
2.38398e-09
2.84871e-07
6.11275e-09
2.7299e-07
1.20696e-09
-4.94402e-08
1.4542e-09
-3.44212e-08
1.98182e-09
-1.6318e-08
9.07512e-10
-2.69525e-10
1.30326e-09
-1.58378e-09
1.18972e-08
-3.72735e-10
4.19558e-08
-4.06176e-09
4.2195e-08
2.77196e-08
2.89654e-08
2.00544e-07
5.01995e-10
4.26099e-08
-5.52315e-11
8.57859e-10
1.82413e-10
6.15755e-11
4.2523e-11
2.54692e-10
1.11899e-10
-3.39578e-10
-6.72465e-09
1.3534e-09
1.97714e-08
-3.84195e-08
1.14463e-08
-4.44985e-08
2.38573e-09
-2.75835e-08
1.42775e-10
1.46604e-09
4.93724e-11
1.62025e-10
5.89415e-11
-8.16494e-11
4.35217e-11
-1.09553e-10
2.08397e-11
2.76669e-11
1.6577e-11
6.19998e-11
3.66491e-10
1.19939e-09
1.59378e-10
8.18071e-10
1.61584e-12
5.35758e-11
1.0885e-12
2.7109e-12
1.26659e-12
1.45341e-12
1.37005e-11
2.14618e-11
1.34178e-11
9.17305e-11
2.53161e-12
1.79309e-11
1.13897e-12
7.3178e-12
1.14302e-12
5.20873e-12
5.85543e-11
-3.91365e-12
3.76342e-11
-3.32765e-10
1.52537e-09
-8.71079e-10
-1.85966e-09
6.83456e-09
-9.8023e-08
2.03781e-06
-1.3331e-07
9.46449e-07
-1.58776e-07
-3.17158e-07
-2.00123e-07
4.60713e-10
-1.61552e-07
-2.71644e-07
-7.14008e-08
-1.17756e-06
1.11302e-07
-1.05632e-06
3.28751e-08
-4.2253e-07
1.03099e-07
-2.91505e-06
1.48218e-07
3.54542e-07
5.01283e-09
4.32778e-07
4.98609e-09
2.52417e-07
2.4183e-09
-4.64034e-08
1.04693e-09
-3.53482e-08
3.75894e-09
-1.63672e-08
7.45879e-10
7.702e-11
8.93284e-10
-1.75709e-09
2.08053e-09
1.74309e-09
8.5894e-09
-7.23322e-10
2.8165e-08
7.57358e-09
1.72125e-08
2.47694e-07
5.28786e-10
4.47513e-08
-4.31586e-11
1.77858e-09
2.20432e-10
3.02567e-10
1.98576e-10
2.38544e-10
7.31891e-11
-1.24534e-10
-7.56723e-09
-2.55616e-09
1.34684e-08
-1.02148e-07
9.77569e-09
-1.96202e-08
1.17058e-08
-1.29584e-08
6.61836e-11
5.51635e-09
-6.14882e-11
2.78751e-10
6.36875e-11
-7.90053e-11
4.08063e-11
-8.77902e-11
1.69359e-11
5.12036e-11
3.08026e-11
4.86121e-11
2.33319e-10
2.45156e-09
1.22101e-10
4.36386e-10
-1.85762e-12
2.64765e-11
-1.20975e-13
2.09654e-12
6.38574e-13
7.12671e-13
3.16489e-12
4.48823e-12
8.04567e-12
9.23725e-11
2.52096e-12
2.19944e-11
1.07768e-12
8.6918e-12
2.67143e-13
5.96247e-12
-2.76842e-12
-9.52401e-13
-6.02251e-11
-4.90939e-11
4.64442e-10
-1.50645e-09
-1.47295e-09
8.72705e-10
-8.8239e-08
2.13014e-06
-1.22295e-07
9.85321e-07
-1.61216e-07
-2.81402e-07
-2.11089e-07
5.21984e-08
-1.5789e-07
-3.27981e-07
-6.69056e-08
-1.2684e-06
6.15184e-08
-1.18462e-06
1.15745e-08
-2.3433e-07
5.72682e-08
-2.87237e-06
7.07538e-08
4.24614e-07
9.96154e-09
3.24526e-06
4.5602e-09
9.65715e-08
4.85893e-09
-1.16875e-07
-2.17698e-10
-3.02372e-08
2.1508e-09
-1.73023e-08
4.4514e-10
-7.33548e-10
5.60671e-10
-1.9136e-09
-4.79307e-10
2.71955e-09
1.2687e-10
-1.49802e-09
2.70174e-09
-3.64933e-10
1.75414e-08
2.51233e-07
2.2547e-09
6.4836e-08
2.41003e-10
4.01915e-09
3.59261e-10
1.05512e-10
3.06981e-10
2.72312e-10
2.40171e-10
-5.5984e-11
5.95848e-09
-5.61107e-09
9.18998e-09
-1.02855e-07
2.75886e-09
-6.44704e-08
1.81603e-09
-2.89476e-09
3.68617e-10
5.71323e-09
7.90072e-11
2.66894e-10
5.48743e-11
-3.90184e-11
3.59789e-11
-6.10114e-11
2.42384e-11
6.41755e-11
5.01211e-11
3.22745e-11
2.18708e-10
2.58814e-09
1.31743e-12
9.76738e-10
-3.51133e-14
2.71833e-11
1.08077e-13
2.00739e-12
3.90374e-13
5.32973e-13
2.29802e-12
2.40273e-12
1.38366e-11
1.18983e-10
2.54021e-12
3.32775e-11
1.57636e-12
9.53154e-12
7.78396e-13
6.71853e-12
-6.24268e-13
4.00459e-13
4.64409e-11
-3.03048e-11
5.42373e-10
-1.22249e-09
-8.33377e-10
6.15482e-10
-8.17842e-08
2.2138e-06
-1.13967e-07
1.01957e-06
-1.63002e-07
-2.33286e-07
-2.14651e-07
1.05197e-07
-1.20242e-07
-4.04221e-07
-8.33485e-09
-1.24271e-06
-4.04157e-09
-8.39192e-07
-9.30791e-08
-8.24136e-08
-5.63911e-08
-1.40396e-06
3.19922e-08
3.30486e-07
3.14047e-08
1.11332e-06
8.44772e-09
-6.45462e-09
1.10235e-08
-2.11066e-07
7.29418e-10
-1.89362e-08
1.5121e-09
-1.51359e-08
6.7189e-11
-5.58397e-09
2.49431e-10
-2.26634e-09
-1.24816e-09
4.04342e-09
-4.62473e-10
-2.55553e-09
-4.09637e-09
9.46754e-10
1.4389e-08
1.15473e-07
4.0369e-09
6.48928e-08
6.79342e-10
1.77936e-08
4.36675e-10
-5.14413e-11
4.38311e-10
2.72118e-10
2.9678e-10
1.24172e-10
1.02458e-08
-6.62517e-09
-1.66887e-09
-8.87383e-08
1.7137e-08
-1.22099e-07
1.3087e-09
-6.29048e-09
1.28476e-10
3.09343e-09
7.59687e-11
4.52524e-10
4.85054e-11
-4.31866e-12
3.43831e-11
-3.8206e-11
2.48869e-11
8.1085e-11
4.2495e-11
2.66526e-11
3.46328e-10
2.27204e-09
4.10684e-11
1.65099e-09
3.80372e-13
6.21108e-11
3.19355e-13
1.98322e-12
2.10742e-13
5.39012e-13
1.55171e-12
9.72207e-13
2.20316e-11
1.07161e-10
1.29426e-11
8.56082e-11
2.88946e-12
2.12236e-11
2.05011e-12
7.44916e-12
1.23213e-12
1.26145e-12
5.27894e-11
-2.46087e-10
8.28091e-11
-7.36212e-10
-4.33047e-10
1.72819e-10
-7.46894e-08
2.2885e-06
-1.0493e-07
1.0499e-06
-1.58713e-07
-1.79396e-07
-2.11371e-07
1.53807e-07
-8.74488e-08
-4.865e-07
7.69285e-08
-1.57516e-06
-3.00488e-09
-2.37486e-07
-3.67736e-08
-5.86574e-08
-1.82441e-07
-3.77163e-07
-2.02708e-08
1.64815e-07
9.43637e-09
3.42775e-08
7.28269e-09
1.27211e-08
7.26816e-09
-1.32347e-07
4.06978e-10
-9.39132e-09
7.67282e-10
-2.53698e-09
8.79561e-10
-1.07785e-09
1.77475e-10
-1.67374e-09
-5.10983e-09
7.71069e-09
-2.77651e-10
-5.02243e-08
-1.74709e-09
6.23224e-10
4.56874e-09
5.59443e-08
4.45396e-09
5.565e-08
3.41193e-09
1.11375e-08
2.92004e-10
1.93213e-10
4.49396e-10
2.52832e-10
7.44122e-10
-1.18652e-10
1.84304e-08
3.3047e-08
2.96927e-09
-7.06374e-08
5.8782e-09
-6.46368e-08
1.48663e-09
-3.45903e-08
1.34555e-10
5.7316e-10
6.12385e-11
5.1317e-10
5.09283e-11
2.12226e-11
3.57844e-11
-1.22313e-11
2.59584e-11
1.07509e-10
4.04751e-11
2.20468e-11
3.24526e-10
2.05689e-09
1.18289e-10
1.83852e-09
3.43648e-14
8.31314e-11
2.84564e-13
1.66496e-12
1.85254e-13
5.65201e-13
4.54276e-13
6.478e-13
2.49936e-11
9.10335e-11
2.52621e-11
9.13185e-11
4.48317e-12
5.31212e-11
1.96991e-11
2.25845e-11
3.70607e-11
3.74354e-11
1.41234e-10
-2.16955e-10
4.45999e-11
-3.26225e-10
-1.90128e-10
3.23969e-11
-6.77822e-08
2.35629e-06
-9.3603e-08
1.07574e-06
-1.49535e-07
-1.22838e-07
-1.99769e-07
2.04871e-07
-1.26563e-07
-5.82172e-07
1.31908e-07
-1.83891e-06
4.25913e-09
-1.32628e-07
-2.1822e-08
-4.17756e-08
-2.24164e-07
-1.82349e-07
-5.50847e-09
-5.02646e-08
6.58121e-09
7.42945e-08
3.20361e-09
7.48405e-08
1.98429e-09
-4.79255e-08
3.46057e-10
-7.46317e-09
4.04955e-10
-2.57284e-09
3.62552e-10
-9.68256e-10
2.84267e-10
-1.59388e-09
-1.09686e-09
9.21486e-09
5.82275e-09
-7.33806e-08
6.25901e-09
1.39703e-08
1.67798e-09
3.66041e-08
7.32838e-09
4.02231e-08
3.06989e-09
2.36913e-09
1.91144e-09
1.20232e-09
1.72395e-09
5.21515e-10
1.92586e-08
-7.08392e-10
1.82525e-08
3.6809e-08
1.26081e-08
-6.36638e-08
4.95754e-09
-5.38586e-08
6.73399e-09
-2.64802e-08
5.16894e-10
8.95102e-10
1.06518e-10
9.5029e-10
1.13592e-10
2.21784e-10
8.53541e-11
-5.6641e-11
5.37903e-11
1.47045e-10
3.82486e-10
2.02801e-10
2.788e-10
2.22754e-09
-1.06374e-11
2.15089e-09
-6.7169e-14
9.67959e-11
1.91956e-13
1.34117e-12
1.49421e-13
5.53672e-13
1.7808e-13
5.74276e-13
2.49499e-11
7.20896e-11
2.69688e-11
9.45796e-11
2.49527e-11
8.98903e-11
5.24109e-11
1.96277e-11
1.39526e-10
-2.03473e-12
1.59107e-10
-1.5737e-10
5.07859e-11
-2.17042e-10
-9.95144e-11
4.35616e-11
-6.1008e-08
2.41731e-06
-8.37669e-08
1.09911e-06
-1.37216e-07
-6.80621e-08
-1.91513e-07
2.53566e-07
-1.27418e-07
-6.51672e-07
1.48517e-07
-2.12021e-06
4.97211e-09
-1.06336e-08
-2.00646e-08
-2.51911e-08
-1.05102e-07
-2.57003e-07
3.94484e-08
-1.90641e-07
6.25006e-09
1.78358e-07
2.16478e-09
1.22479e-07
1.18184e-09
-2.338e-08
3.06669e-10
-6.69867e-09
4.34772e-10
-2.71707e-09
4.33571e-10
-8.75532e-10
8.02516e-10
-7.21771e-09
1.86239e-09
7.49297e-09
1.0005e-08
-8.14083e-08
4.49057e-09
1.95449e-08
3.80071e-09
2.35665e-07
5.43769e-09
3.97495e-08
5.94185e-09
1.04839e-10
5.81827e-09
3.89986e-10
4.48646e-10
4.4823e-09
3.15781e-10
-4.92598e-10
1.17749e-08
1.22298e-08
1.67723e-08
-6.68312e-08
1.13538e-09
-2.86293e-08
2.38437e-09
-1.60063e-08
6.36503e-10
1.63503e-09
2.90554e-10
1.12871e-09
2.5439e-10
6.32099e-10
2.99555e-10
-1.80022e-11
2.20834e-10
2.25531e-10
8.03726e-10
-1.04433e-10
4.3467e-10
2.64884e-09
-2.97064e-12
2.61681e-09
3.92868e-12
2.76698e-10
4.62478e-13
4.84283e-12
2.05359e-13
7.54892e-13
1.74746e-13
5.57712e-13
2.03493e-11
2.77809e-11
2.59702e-11
9.38097e-11
4.75967e-11
7.2081e-11
3.96935e-11
2.40274e-11
1.59981e-10
-7.68703e-12
1.54618e-10
-1.27527e-10
7.4817e-11
-1.09456e-10
-7.74821e-11
4.63514e-11
-5.46153e-08
2.47193e-06
-7.21075e-08
1.11677e-06
-1.21304e-07
-1.62029e-08
-1.67928e-07
2.92069e-07
-1.09047e-07
-7.15792e-07
-2.52903e-08
-2.18998e-06
-4.15503e-09
-1.92494e-08
-2.73074e-08
-1.08324e-08
-1.15428e-07
-1.2002e-06
1.25335e-08
-3.33517e-07
5.1742e-09
2.36248e-07
1.62718e-08
8.05949e-07
5.60423e-10
-5.21999e-08
2.85922e-10
-6.53393e-09
4.49399e-10
-2.90443e-09
1.284e-09
-1.59454e-09
1.83855e-09
-7.63799e-09
1.72531e-10
1.13471e-08
2.30961e-09
-2.28213e-08
8.74791e-10
2.09792e-08
4.54863e-09
2.3212e-07
3.93948e-09
2.98799e-08
1.18503e-08
-2.03985e-09
1.06107e-08
-5.54478e-09
-6.70531e-10
1.21425e-08
-3.34278e-09
2.28899e-09
5.01909e-10
-4.14076e-11
1.48024e-08
-7.88203e-08
9.60941e-10
-9.71735e-09
5.998e-12
-8.26494e-09
9.91897e-10
1.8231e-09
2.66166e-10
1.5366e-09
2.80573e-10
9.849e-10
2.09436e-10
1.36475e-10
5.04638e-11
4.13811e-10
5.66988e-10
-3.14261e-10
5.5988e-10
2.64555e-09
4.89931e-10
2.7242e-09
6.50403e-12
2.50916e-10
9.64102e-13
1.01659e-11
3.10953e-13
1.37242e-12
2.47178e-13
5.79414e-13
6.58796e-12
3.96762e-12
2.47377e-11
7.93882e-11
1.67363e-11
1.76874e-11
1.45725e-11
1.97816e-11
1.57259e-11
-1.53355e-11
9.20327e-11
-8.55646e-12
8.04942e-11
-2.64907e-11
-1.85435e-11
4.59954e-11
-4.86459e-08
2.52058e-06
-6.36418e-08
1.12037e-06
-1.03454e-07
2.65789e-08
-1.41019e-07
3.24349e-07
-9.28841e-08
-7.68743e-07
-1.76074e-08
-2.17143e-06
-3.20386e-09
-3.22465e-08
-1.60591e-08
-1.1691e-08
-2.22132e-08
-8.23558e-07
-9.56155e-10
-1.53152e-07
1.4026e-08
1.35559e-06
1.55626e-08
1.61432e-06
3.57009e-10
-6.6166e-08
2.44261e-10
-6.52764e-09
5.45012e-10
-3.19462e-09
1.18986e-09
-2.03976e-09
1.01403e-09
-7.29751e-09
3.85299e-11
1.26018e-08
-3.66511e-09
-9.4961e-09
2.98381e-09
1.43336e-08
1.84921e-08
2.06153e-07
1.99825e-09
3.78715e-08
1.31169e-08
-3.13972e-09
1.08498e-08
-8.53322e-09
-4.61775e-11
2.01112e-08
-1.6367e-09
2.09519e-09
6.69402e-09
-1.8152e-09
7.33547e-09
-7.83824e-08
3.67648e-09
-4.92212e-08
8.62293e-10
-6.15825e-09
1.60855e-09
1.35106e-09
1.9609e-10
3.0303e-09
5.78382e-11
1.22954e-09
8.45601e-11
1.85104e-10
6.89282e-12
5.63857e-10
1.45924e-10
-3.03901e-10
5.14239e-10
2.27251e-09
9.28867e-11
2.23133e-09
2.91942e-12
3.06351e-10
6.16039e-13
1.22152e-11
2.75675e-13
1.65706e-12
1.4408e-13
6.93523e-13
2.71027e-12
1.3928e-12
2.08821e-11
2.83329e-11
7.17369e-12
2.06939e-12
8.33054e-12
1.00425e-11
1.59054e-11
-1.14917e-11
8.49996e-12
-1.36693e-12
6.41317e-11
-1.62972e-11
-3.08902e-11
5.95894e-11
-4.28422e-08
2.56342e-06
-5.77711e-08
1.13341e-06
-9.17491e-08
6.2775e-08
-1.08186e-07
3.6001e-07
-7.32748e-08
-7.94681e-07
-4.13841e-08
-2.08529e-06
-2.14889e-08
-6.02663e-08
-4.6612e-09
-4.34481e-08
-7.17114e-09
-4.82535e-07
-2.10312e-09
-1.13349e-07
3.35675e-08
1.41073e-06
3.44477e-08
4.18393e-07
7.77323e-10
-3.94214e-08
2.36226e-10
-6.16671e-09
3.81679e-10
-3.35891e-09
8.16112e-10
-8.12564e-10
1.1559e-09
-7.45982e-09
-2.05371e-11
8.01082e-09
-1.42909e-08
-2.77423e-09
7.17433e-09
-7.12858e-09
9.7989e-09
1.23597e-07
4.4254e-09
3.44564e-08
1.28312e-08
-8.37681e-09
8.08726e-09
-1.39878e-08
5.29173e-10
2.43662e-08
1.06914e-09
1.78389e-09
1.06501e-08
-3.50835e-09
7.50189e-09
-7.65967e-08
1.07964e-08
-7.44758e-08
-1.31159e-10
-8.25273e-09
5.4849e-10
7.11277e-11
2.54397e-10
4.03032e-09
9.1246e-11
1.45469e-09
8.25593e-11
2.64143e-10
-2.47912e-12
7.1536e-10
1.4659e-10
-4.15613e-10
5.47242e-10
1.95402e-09
5.6826e-10
2.23664e-09
9.51333e-12
8.69304e-10
9.42118e-13
2.02197e-11
3.00464e-13
2.25e-12
1.73236e-13
7.7718e-13
4.19635e-13
1.10888e-12
5.34132e-12
4.54991e-12
4.34426e-12
-1.44179e-13
1.76048e-11
8.1554e-12
9.07606e-12
-5.32125e-12
7.86196e-12
-2.23953e-13
1.45317e-10
-3.36785e-11
9.04551e-11
-4.5964e-11
-3.3981e-12
9.40839e-15
-3.13936e-12
4.8534e-14
-2.32469e-12
-5.2322e-13
-1.40277e-12
-2.94528e-13
-7.95269e-13
-1.5444e-13
-6.10082e-13
-1.8998e-13
-1.3719e-13
-2.45047e-13
1.08435e-13
-1.66799e-13
1.88558e-14
-3.38244e-14
1.30402e-12
-9.60071e-13
1.29963e-12
4.38915e-15
2.76917e-08
5.26393e-09
3.19627e-11
8.93186e-08
3.20517e-08
-3.30199e-08
7.42248e-08
-4.89707e-08
5.29256e-08
1.3889e-08
5.31493e-09
1.71306e-08
-1.37959e-09
-1.06402e-09
1.74598e-09
9.86569e-10
9.51143e-10
1.75504e-09
1.23169e-12
1.69884e-10
-1.5993e-13
8.51386e-13
6.23537e-11
4.15841e-12
2.86469e-10
-4.52538e-12
9.84371e-11
1.40706e-12
4.23956e-11
-5.50355e-11
-1.52601e-12
5.59666e-10
3.13748e-11
-3.29009e-11
9.23717e-11
5.22606e-10
-3.38711e-10
2.51571e-10
1.78198e-10
-2.10067e-09
-4.70353e-11
4.66563e-09
-1.21267e-08
1.20797e-08
-2.99772e-08
-8.37961e-09
8.99395e-09
-6.12113e-08
4.24246e-10
2.97551e-09
-9.05363e-08
5.16378e-08
-1.36598e-07
8.03344e-10
-1.11207e-07
-2.3412e-08
-4.038e-08
-6.66744e-09
5.10636e-08
-8.36576e-08
1.17201e-07
-4.63209e-09
-3.14008e-08
2.50066e-07
-1.1237e-07
1.49262e-09
7.22399e-08
-1.50929e-07
1.0315e-08
6.82661e-08
1.69442e-07
-1.59246e-07
2.6586e-07
-9.54453e-08
1.9485e-07
7.10931e-08
1.94863e-07
-2.69463e-12
-8.52322e-13
-3.58159e-12
-6.72671e-13
-3.08078e-12
-8.13885e-13
-2.0626e-12
-9.99682e-13
-1.25232e-12
-6.68974e-13
-9.1598e-13
-7.6268e-14
-6.20151e-13
-3.34862e-13
-1.88161e-13
-4.34357e-13
-2.45841e-13
-1.09258e-13
-1.19723e-12
-1.23265e-14
5.76609e-09
-8.75572e-13
9.34577e-08
-2.40789e-08
1.1857e-07
9.49767e-08
-9.19367e-08
1.77524e-07
-2.17401e-07
7.64804e-08
-1.06433e-07
-6.02872e-08
5.55339e-09
-8.1241e-08
-8.04072e-09
-2.75824e-08
-3.49269e-09
1.08578e-09
-1.79734e-09
8.2501e-10
-1.32286e-12
-1.48438e-10
-6.63065e-13
-3.20086e-12
1.73687e-10
-1.04588e-10
1.12547e-10
-1.53955e-11
6.7066e-11
1.11966e-14
4.62428e-10
2.0207e-12
4.28018e-10
1.65816e-09
2.77338e-09
-4.76947e-09
1.31403e-10
3.23242e-09
-1.99782e-09
2.50809e-09
-6.92661e-11
-1.92922e-09
1.01391e-08
-8.0282e-10
3.66963e-09
1.28947e-08
-1.85072e-08
-2.44447e-08
7.53894e-09
-8.39857e-08
4.52854e-10
1.32399e-08
-1.10655e-08
2.24254e-08
-6.30543e-08
-1.38518e-08
-9.71335e-08
2.03934e-08
-9.58344e-08
8.71607e-09
3.61412e-08
-1.91225e-07
1.73058e-07
-2.66661e-09
1.46181e-07
1.58413e-07
5.14515e-07
-2.53663e-09
3.984e-07
5.18485e-07
4.19017e-08
4.24554e-07
1.72574e-07
-2.90144e-07
2.73217e-07
-1.96303e-07
2.25219e-07
1.19261e-07
4.20095e-07
-1.01845e-11
-1.66781e-11
-1.1283e-12
-9.87427e-12
-7.04017e-13
-1.54368e-12
-3.55137e-13
-1.55313e-12
-8.42388e-14
-1.04286e-12
-7.75853e-14
-1.92406e-13
-1.05589e-13
-2.83053e-13
-1.0186e-13
-4.07373e-14
1.93002e-14
-3.15606e-14
2.37958e-14
-2.01115e-14
2.46435e-10
-2.47291e-10
-1.80325e-08
4.71745e-08
-3.74355e-08
1.22957e-07
-9.33214e-08
2.3343e-07
-8.37741e-08
6.69392e-08
2.61675e-08
-1.76519e-07
5.86667e-08
-1.86077e-07
-2.53052e-09
-3.21019e-08
-2.11947e-09
1.82749e-09
-1.51095e-10
9.38762e-11
7.74334e-13
-2.88103e-10
8.31982e-12
5.17426e-13
5.22009e-11
-3.2453e-11
-2.04622e-11
7.96919e-12
-3.41585e-11
4.61902e-12
6.16185e-10
-4.04249e-10
2.58209e-09
1.48699e-09
4.52971e-09
-7.80148e-09
-4.20725e-11
8.59566e-09
-1.27933e-09
3.64292e-09
-5.48246e-10
-1.70168e-09
2.06145e-09
-8.06932e-09
1.06469e-08
3.45226e-09
3.49332e-09
-9.33909e-12
-1.17436e-08
-4.85216e-08
-9.87791e-09
5.13211e-08
-5.32834e-08
3.91114e-08
-5.2369e-08
-2.51267e-08
-2.55595e-08
3.1578e-09
-3.23467e-08
-4.57941e-09
6.37244e-08
-3.25702e-07
1.70458e-07
-1.50457e-07
1.96795e-08
2.63887e-07
-1.92085e-07
1.88061e-07
1.03252e-07
2.63445e-07
4.91317e-08
4.7831e-07
1.74652e-07
-4.15874e-07
2.63494e-07
-2.85365e-07
2.19202e-07
1.63601e-07
6.39316e-07
-9.70015e-11
-2.87707e-10
-1.09732e-11
-9.33687e-11
-4.4636e-12
-6.51752e-12
-2.19322e-12
-5.68023e-12
-2.60612e-13
-6.71381e-12
-1.56138e-13
-3.97497e-13
-3.25188e-14
-4.43952e-13
-1.88931e-14
-9.90172e-14
1.111e-14
-2.45528e-14
9.1147e-15
-2.12477e-14
2.68867e-09
-1.21929e-09
5.34492e-08
1.74251e-08
-2.53289e-08
2.01971e-07
-5.44229e-08
2.62403e-07
-5.20445e-08
6.4568e-08
-6.28077e-08
-1.65756e-07
1.27887e-08
-3.3463e-07
4.93209e-09
-1.10712e-07
-2.06944e-10
6.78648e-09
1.48637e-10
1.52066e-10
9.98137e-12
-3.35491e-10
-3.27114e-10
3.28354e-10
-2.91124e-10
4.28451e-11
-4.87054e-10
1.28598e-11
-3.21174e-11
-7.30939e-11
1.66367e-11
2.75472e-10
-4.94872e-09
6.13117e-09
-4.24666e-09
-5.26771e-09
-2.21154e-09
4.5312e-09
-2.51303e-09
2.9597e-09
-2.74536e-09
-2.50461e-09
3.25764e-09
-1.26996e-08
1.12217e-09
5.04127e-09
-1.00869e-09
2.89782e-09
-4.51382e-09
-6.34035e-09
-1.14199e-08
9.5089e-08