/*--------------------------------*- C++ -*----------------------------------*\
| =========                 |                                                 |
| \\      /  F ield         | OpenFOAM: The Open Source CFD Toolbox           |
|  \\    /   O peration     | Version:  2.4.0                                 |
|   \\  /    A nd           | Web:      www.OpenFOAM.org                      |
|    \\/     M anipulation  |                                                 |
\*---------------------------------------------------------------------------*/
FoamFile
{
    version     2.0;
    format      ascii;
    class       surfaceScalarField;
    location    "0.114";
    object      phiAlpha;
}
// * * * * * * * * * * * * * * * * * * * * * * * * * * * * * * * * * * * * * //

dimensions      [0 3 -1 0 0 0 0];

internalField   nonuniform List<scalar> 
7080
(
-2.42081e-08
2.42081e-08
-2.3545e-08
-6.63118e-10
-6.14851e-09
-1.73965e-08
1.73776e-08
-2.35261e-08
4.69627e-08
-2.95851e-08
7.79883e-08
-3.10256e-08
1.0676e-07
-2.87714e-08
1.33218e-07
-2.64586e-08
1.53892e-07
-2.06742e-08
1.64211e-07
-1.03185e-08
1.64488e-07
-2.76977e-10
1.46563e-07
1.79254e-08
1.351e-07
1.14627e-08
7.46683e-08
6.04316e-08
4.84031e-08
2.62652e-08
3.31839e-09
4.50848e-08
-5.0767e-08
5.40853e-08
-8.75852e-08
3.69123e-08
-1.04811e-07
1.78671e-08
-1.39314e-07
3.41964e-08
-2.0775e-07
6.81306e-08
-2.08127e-07
1.94531e-10
-1.37907e-07
-7.03641e-08
-8.01651e-08
-5.78396e-08
-1.76823e-08
-6.25693e-08
2.31757e-08
-4.09329e-08
1.43162e-08
8.88776e-09
-7.36375e-09
2.16899e-08
2.88949e-08
-3.57892e-08
2.96101e-08
-9.51382e-10
-4.11345e-08
6.53426e-08
-4.85798e-08
6.78222e-09
-3.21078e-08
-3.38684e-08
-5.49972e-09
-5.01342e-08
3.07864e-08
-6.58711e-08
7.15793e-08
-7.18185e-08
1.12199e-07
-6.93907e-08
1.52304e-07
-6.65639e-08
1.85979e-07
-5.43496e-08
2.13484e-07
-3.78227e-08
2.21624e-07
-8.41766e-09
2.19071e-07
2.04789e-08
2.26588e-07
3.94505e-09
1.5807e-07
1.2895e-07
1.50712e-07
3.36234e-08
1.1651e-07
7.92861e-08
3.72816e-08
1.33314e-07
-2.04337e-08
9.46296e-08
-1.18928e-07
1.1708e-07
-2.02764e-07
1.17655e-07
-2.53546e-07
1.1864e-07
-2.74458e-07
2.10774e-08
-2.55749e-07
-8.90721e-08
-1.89237e-07
-1.24393e-07
-1.18785e-07
-1.3304e-07
-6.78614e-08
-9.18563e-08
-3.95055e-08
-1.94437e-08
-3.57875e-08
1.85451e-08
-3.22295e-08
-3.93973e-08
-2.32843e-09
-3.35628e-10
-4.51336e-08
1.10476e-07
-5.4952e-08
1.66006e-08
-3.97022e-08
-4.91182e-08
-1.38217e-08
-7.60148e-08
2.27315e-08
-1.02424e-07
6.42144e-08
-1.13301e-07
1.06101e-07
-1.11277e-07
1.48038e-07
-1.08501e-07
1.83732e-07
-9.00429e-08
2.14569e-07
-6.86599e-08
2.22146e-07
-1.59951e-08
2.29429e-07
1.31961e-08
2.35133e-07
-1.7591e-09
1.8024e-07
1.83844e-07
1.85849e-07
2.80149e-08
1.60476e-07
1.04659e-07
8.36474e-08
2.10142e-07
2.94007e-08
1.48876e-07
-5.87996e-08
2.05517e-07
-1.68261e-07
2.26672e-07
-2.45186e-07
1.95566e-07
-3.04967e-07
8.08594e-08
-3.29149e-07
-6.48891e-08
-2.86827e-07
-1.66713e-07
-2.35562e-07
-1.84305e-07
-1.76035e-07
-1.51393e-07
-1.12901e-07
-8.17885e-08
-6.23474e-08
-3.08704e-08
-5.34912e-08
-4.83015e-08
-5.32108e-08
-2.65329e-09
-4.61849e-08
1.56661e-07
-5.64891e-08
2.69048e-08
-4.14369e-08
-6.41705e-08
-1.57554e-08
-1.01696e-07
2.0863e-08
-1.39043e-07
6.24791e-08
-1.54918e-07
1.04582e-07
-1.5338e-07
1.47013e-07
-1.50933e-07
1.83256e-07
-1.26285e-07
2.15468e-07
-1.00872e-07
2.19162e-07
-1.96892e-08
2.37743e-07
-5.38459e-09
2.23901e-07
1.20828e-08
1.90718e-07
2.17027e-07
2.13296e-07
5.43635e-09
1.79241e-07
1.38714e-07
1.08431e-07
2.80953e-07
7.4433e-08
1.82874e-07
1.9711e-08
2.6024e-07
-1.07029e-07
3.5297e-07
-2.01356e-07
2.89893e-07
-2.82369e-07
1.6187e-07
-3.26077e-07
-2.11928e-08
-3.27132e-07
-1.65668e-07
-2.9508e-07
-2.1636e-07
-2.34783e-07
-2.11716e-07
-1.5398e-07
-1.62498e-07
-7.91396e-08
-1.05535e-07
-3.83749e-08
-9.02381e-08
-9.1888e-08
-1.23008e-09
-4.67562e-08
2.03417e-07
-5.7184e-08
3.73326e-08
-4.20573e-08
-7.92972e-08
-1.64175e-08
-1.27336e-07
2.036e-08
-1.7582e-07
6.20508e-08
-1.96608e-07
1.04269e-07
-1.95598e-07
1.47127e-07
-1.93791e-07
1.83958e-07
-1.63116e-07
2.17202e-07
-1.34116e-07
2.18197e-07
-2.06846e-08
2.45158e-07
-3.23452e-08
2.02362e-07
5.4879e-08
1.95029e-07
2.24359e-07
2.24223e-07
-2.37571e-08
1.71848e-07
1.91089e-07
1.25416e-07
3.27386e-07
9.90434e-08
2.09246e-07
8.52716e-08
2.74012e-07
8.64062e-09
4.29169e-07
-9.21736e-08
3.9067e-07
-1.6832e-07
2.38098e-07
-2.3427e-07
4.47788e-08
-2.69076e-07
-1.30846e-07
-2.76472e-07
-2.09028e-07
-2.48833e-07
-2.39381e-07
-1.90485e-07
-2.20844e-07
-1.18015e-07
-1.78003e-07
-5.16031e-08
-1.56648e-07
-1.44737e-07
1.24736e-09
-4.73425e-08
2.5076e-07
-5.78491e-08
4.78392e-08
-4.25807e-08
-9.45656e-08
-1.69729e-08
-1.52944e-07
1.99793e-08
-2.12773e-07
6.17312e-08
-2.3836e-07
1.04035e-07
-2.37902e-07
1.47367e-07
-2.37123e-07
1.85038e-07
-2.00788e-07
2.18726e-07
-1.67804e-07
2.20807e-07
-2.27654e-08
2.50559e-07
-6.20972e-08
1.87718e-07
1.1772e-07
1.96625e-07
2.15452e-07
2.01543e-07
-2.86751e-08
1.47424e-07
2.45208e-07
1.39987e-07
3.34822e-07
1.10819e-07
2.38414e-07
1.1651e-07
2.68321e-07
9.85516e-08
4.4787e-07
3.97727e-08
4.4971e-07
-1.29808e-08
2.9083e-07
-5.5197e-08
8.70066e-08
-1.01825e-07
-8.40696e-08
-1.29076e-07
-1.82001e-07
-1.49742e-07
-2.18786e-07
-1.45268e-07
-2.25316e-07
-9.90473e-08
-2.24211e-07
-4.45557e-08
-2.11117e-07
-1.89469e-07
2.09337e-10
-4.80348e-08
2.98795e-07
-5.8627e-08
5.84314e-08
-4.31795e-08
-1.10013e-07
-1.76151e-08
-1.78508e-07
1.95078e-08
-2.49895e-07
6.13471e-08
-2.80199e-07
1.03731e-07
-2.80286e-07
1.47618e-07
-2.8101e-07
1.86449e-07
-2.39619e-07
2.19774e-07
-2.01129e-07
2.27656e-07
-3.0647e-08
2.55118e-07
-8.95597e-08
1.9235e-07
1.80488e-07
2.047e-07
2.03102e-07
1.71431e-07
4.59393e-09
1.2561e-07
2.9103e-07
1.52134e-07
3.08298e-07
1.21793e-07
2.68756e-07
1.39851e-07
2.50262e-07
1.745e-07
4.135e-07
1.43644e-07
4.80676e-07
9.19308e-08
3.42441e-07
5.42663e-08
1.24155e-07
3.07796e-08
-6.04572e-08
3.22773e-08
-1.8345e-07
2.59241e-08
-2.12462e-07
9.09235e-10
-2.00314e-07
-1.27895e-08
-2.10539e-07
-4.93977e-09
-2.18959e-07
-1.96798e-07
2.38699e-09
-4.88504e-08
3.47645e-07
-5.9541e-08
6.9122e-08
-4.38783e-08
-1.25676e-07
-1.83721e-08
-2.04014e-07
1.89661e-08
-2.87234e-07
6.088e-08
-3.22113e-07
1.03331e-07
-3.22737e-07
1.47886e-07
-3.25564e-07
1.8811e-07
-2.79844e-07
2.20387e-07
-2.33406e-07
2.38515e-07
-4.87746e-08
2.52252e-07
-1.03297e-07
2.19466e-07
2.13273e-07
2.22893e-07
1.99675e-07
1.69327e-07
5.81596e-08
1.07037e-07
3.5332e-07
1.30239e-07
2.85095e-07
9.30912e-08
3.05904e-07
1.2019e-07
2.23163e-07
2.10208e-07
3.23482e-07
2.4198e-07
4.46658e-07
2.10212e-07
3.72614e-07
1.47105e-07
1.87243e-07
1.03191e-07
-1.62155e-08
9.30095e-08
-1.72612e-07
1.03888e-07
-2.2334e-07
9.78943e-08
-1.9432e-07
7.52314e-08
-1.87875e-07
4.01055e-08
-1.83881e-07
-1.61648e-07
4.95522e-09
-4.97937e-08
3.97439e-07
-6.05961e-08
7.99244e-08
-4.46792e-08
-1.41593e-07
-1.92483e-08
-2.29445e-07
1.83494e-08
-3.24831e-07
6.03242e-08
-3.64088e-07
1.02811e-07
-3.65223e-07
1.48187e-07
-3.7094e-07
1.89766e-07
-3.21422e-07
2.21892e-07
-2.65532e-07
2.47854e-07
-7.47362e-08
2.40286e-07
-9.57282e-08
2.47074e-07
2.06485e-07
2.26649e-07
2.201e-07
1.69987e-07
1.14822e-07
1.00415e-07
4.22892e-07
1.05647e-07
2.79863e-07
1.00961e-07
3.1059e-07
1.09017e-07
2.15107e-07
2.13955e-07
2.18544e-07
2.861e-07
3.74275e-07
2.64596e-07
3.94108e-07
2.26537e-07
2.25296e-07
2.04718e-07
5.59857e-09
1.9582e-07
-1.62708e-07
1.53054e-07
-1.805e-07
9.83925e-08
-1.3966e-07
7.2498e-08
-1.61981e-07
4.61535e-08
-1.57552e-07
-1.20544e-07
5.01762e-09
-5.08679e-08
4.48307e-07
-6.17944e-08
9.08508e-08
-4.55808e-08
-1.57806e-07
-2.02453e-08
-2.54781e-07
1.7653e-08
-3.6273e-07
5.96753e-08
-4.0611e-07
1.02168e-07
-4.07717e-07
1.48525e-07
-4.17296e-07
1.91323e-07
-3.64221e-07
2.2526e-07
-2.99469e-07
2.51035e-07
-1.00512e-07
2.40587e-07
-8.52804e-08
2.61793e-07
1.85279e-07
2.18979e-07
2.62914e-07
1.70589e-07
1.63212e-07
1.24404e-07
4.69077e-07
1.24992e-07
2.79275e-07
1.63276e-07
2.72306e-07
1.2842e-07
2.49964e-07
1.7276e-07
1.74204e-07
2.88733e-07
2.58301e-07
3.20447e-07
3.62328e-07
2.90088e-07
2.55665e-07
2.47067e-07
4.86168e-08
2.29354e-07
-1.44057e-07
1.92387e-07
-1.43533e-07
1.09334e-07
-5.66063e-08
3.57324e-08
-8.83788e-08
7.22705e-09
-1.29047e-07
-1.1685e-07
3.5332e-09
-5.20758e-08
5.00382e-07
-6.31379e-08
1.01913e-07
-4.65816e-08
-1.74363e-07
-2.13643e-08
-2.79998e-07
1.68441e-08
-4.00938e-07
5.89245e-08
-4.48191e-07
1.01429e-07
-4.50221e-07
1.48887e-07
-4.64754e-07
1.93054e-07
-4.08388e-07
2.28922e-07
-3.35336e-07
2.53376e-07
-1.24966e-07
2.55761e-07
-8.76646e-08
2.66919e-07
1.74121e-07
2.16928e-07
3.12905e-07
1.72522e-07
2.07618e-07
1.70474e-07
4.71125e-07
1.6072e-07
2.89029e-07
1.8047e-07
2.52555e-07
1.67247e-07
2.63186e-07
1.83473e-07
1.57978e-07
2.73592e-07
1.68182e-07
3.14467e-07
3.2139e-07
3.17725e-07
2.53108e-07
2.98799e-07
6.85783e-08
2.11006e-07
-5.61186e-08
1.02846e-07
-3.53729e-08
7.10763e-08
-2.48362e-08
5.59413e-08
-7.3245e-08
1.8505e-08
-9.16096e-08
-1.01135e-07
2.78907e-09
-5.34207e-08
5.53803e-07
-6.46289e-08
1.13121e-07
-4.768e-08
-1.91311e-07
-2.26073e-08
-3.05071e-07
1.59495e-08
-4.39495e-07
5.80673e-08
-4.90308e-07
1.00598e-07
-4.92752e-07
1.49284e-07
-5.1344e-07
1.95041e-07
-4.54145e-07
2.31737e-07
-3.72032e-07
2.60378e-07
-1.53607e-07
2.70765e-07
-9.80519e-08
2.59945e-07
1.8494e-07
2.22206e-07
3.50644e-07
1.87022e-07
2.42803e-07
1.92489e-07
4.65657e-07
1.71316e-07
3.10202e-07
1.78254e-07
2.45617e-07
1.99831e-07
2.4161e-07
1.81414e-07
1.76395e-07
2.03277e-07
1.46319e-07
2.57079e-07
2.67589e-07
2.693e-07
2.41045e-07
2.46765e-07
9.11489e-08
1.81812e-07
8.83393e-09
1.44314e-07
2.12516e-09
1.46944e-07
-2.74658e-08
9.60849e-08
-2.23862e-08
3.12456e-08
-2.67652e-08
-5.98027e-08
-1.00755e-08
-5.49063e-08
6.08709e-07
-6.62698e-08
1.24485e-07
-4.88744e-08
-2.08707e-07
-2.39759e-08
-3.29969e-07
1.49741e-08
-4.78445e-07
5.70937e-08
-5.32428e-07
9.96837e-08
-5.35342e-07
1.49753e-07
-5.63509e-07
1.97033e-07
-5.01425e-07
2.34583e-07
-4.09583e-07
2.71057e-07
-1.90081e-07
2.74168e-07
-1.01163e-07
2.62571e-07
1.96538e-07
2.36324e-07
3.76891e-07
1.82407e-07
2.96719e-07
2.02844e-07
4.4522e-07
1.76863e-07
3.36183e-07
1.51999e-07
2.70481e-07
1.776e-07
2.16008e-07
1.62498e-07
1.91497e-07
1.68525e-07
1.40293e-07
2.14644e-07
2.2147e-07
2.52283e-07
2.03406e-07
2.61011e-07
8.2421e-08
2.44241e-07
2.56036e-08
2.14109e-07
3.22571e-08
1.14235e-07
7.24084e-08
-8.80186e-09
1.00617e-07
-2.40397e-08
-1.15298e-08
-8.49952e-08
1.18664e-09
-5.65367e-08
6.65246e-07
-6.80634e-08
1.36011e-07
-5.01625e-08
-2.26608e-07
-2.54712e-08
-3.54661e-07
1.38976e-08
-5.17814e-07
5.59931e-08
-5.74523e-07
9.86844e-08
-5.78033e-07
1.50319e-07
-6.15144e-07
1.98814e-07
-5.4992e-07
2.39056e-07
-4.49825e-07
2.78804e-07
-2.29829e-07
2.76961e-07
-9.93208e-08
2.72734e-07
2.00764e-07
2.51129e-07
3.98496e-07
1.96899e-07
3.5095e-07
1.92516e-07
4.49603e-07
1.64546e-07
3.64154e-07
1.41316e-07
2.93712e-07
1.73737e-07
1.83588e-07
2.01184e-07
1.6405e-07
2.0601e-07
1.35467e-07
2.14391e-07
2.13088e-07
1.87154e-07
2.30644e-07
9.04116e-08
1.79163e-07
-2.04375e-08
1.36453e-07
-7.56076e-08
8.74271e-08
-9.61457e-08
9.29607e-08
-7.03574e-08
7.48256e-08
-2.82246e-08
-5.36638e-08
-1.1193e-07
-1.2909e-09
-5.83163e-08
7.23562e-07
-7.00126e-08
1.47708e-07
-5.15426e-08
-2.45078e-07
-2.70946e-08
-3.79109e-07
1.2716e-08
-5.57624e-07
5.47527e-08
-6.1656e-07
9.75983e-08
-6.20879e-07
1.50955e-07
-6.68501e-07
2.00551e-07
-5.99516e-07
2.44588e-07
-4.93861e-07
2.83339e-07
-2.68579e-07
2.85899e-07
-1.01881e-07
3.00547e-07
1.86116e-07
2.61276e-07
4.37768e-07
1.89352e-07
4.22873e-07
1.64725e-07
4.7423e-07
1.37957e-07
3.90921e-07
1.07483e-07
3.24185e-07
7.409e-08
2.16981e-07
2.72941e-08
2.10846e-07
6.8877e-09
1.55873e-07
3.38984e-08
1.86078e-07
6.78509e-08
1.96692e-07
7.05294e-08
1.76485e-07
4.37355e-08
1.63247e-07
1.53201e-08
1.15842e-07
4.71473e-09
1.03584e-07
3.45604e-08
4.49999e-08
3.49488e-08
-5.4067e-08
-7.02619e-08
-6.72841e-09
-6.02502e-08
7.83813e-07
-7.21206e-08
1.59578e-07
-5.30126e-08
-2.64186e-07
-2.88474e-08
-4.03274e-07
1.14296e-08
-5.97901e-07
5.33564e-08
-6.58487e-07
9.64219e-08
-6.63944e-07
1.51604e-07
-7.23683e-07
2.02594e-07
-6.50506e-07
2.49335e-07
-5.40602e-07
2.8538e-07
-3.04624e-07
3.14849e-07
-1.3135e-07
3.17961e-07
1.83004e-07
2.41975e-07
5.13753e-07
1.5422e-07
5.10629e-07
1.22493e-07
5.05957e-07
9.80765e-08
4.15337e-07
1.11591e-07
3.10671e-07
1.29417e-07
1.99154e-07
1.49789e-07
1.90474e-07
1.56087e-07
1.49575e-07
1.77617e-07
1.64548e-07
2.54621e-07
1.19687e-07
3.15173e-07
1.15933e-07
3.41898e-07
1.36521e-07
3.15721e-07
1.42019e-07
2.6861e-07
1.50695e-07
2.25469e-07
8.81409e-08
1.29993e-07
4.14094e-08
6.35533e-08
-3.86801e-09
-6.23439e-08
8.46157e-07
-7.43909e-08
1.71625e-07
-5.45706e-08
-2.84006e-07
-3.07306e-08
-4.27114e-07
1.00347e-08
-6.38667e-07
5.17881e-08
-7.0024e-07
9.51472e-08
-7.07303e-07
1.52227e-07
-7.80763e-07
2.0522e-07
-7.03499e-07
2.49825e-07
-5.85207e-07
2.99476e-07
-3.54275e-07
3.36843e-07
-1.68717e-07
2.94632e-07
2.25215e-07
2.08718e-07
5.99667e-07
1.24202e-07
5.95145e-07
5.8119e-08
5.7204e-07
1.15302e-07
3.58154e-07
1.70737e-07
2.55236e-07
1.77055e-07
1.92837e-07
1.82097e-07
1.85432e-07
1.38543e-07
1.93129e-07
7.63477e-08
2.26743e-07
1.05282e-07
9.07524e-08
1.72558e-07
4.8657e-08
2.36139e-07
7.29406e-08
2.44907e-07
1.33251e-07
2.25453e-07
1.70149e-07
1.76115e-07
1.37479e-07
7.89634e-08
1.3853e-07
1.464e-07
-3.91216e-09
-6.46033e-08
9.1076e-07
-7.68274e-08
1.83849e-07
-5.62152e-08
-3.04618e-07
-3.2745e-08
-4.50584e-07
8.5217e-09
-6.79933e-07
5.00351e-08
-7.41754e-07
9.37565e-08
-7.51025e-07
1.52917e-07
-8.39923e-07
2.07334e-07
-7.57917e-07
2.49409e-07
-6.27282e-07
3.15401e-07
-4.20267e-07
3.3196e-07
-1.85276e-07
2.80443e-07
2.76732e-07
2.20917e-07
6.59194e-07
1.56931e-07
6.5913e-07
1.95971e-07
5.33e-07
2.15977e-07
3.38149e-07
1.4805e-07
3.23163e-07
1.11613e-07
2.29274e-07
1.06093e-07
1.90952e-07
1.43529e-07
1.55693e-07
5.20397e-08
3.18232e-07
-9.37397e-08
2.36532e-07
-1.19397e-07
7.43143e-08
-5.10887e-08
4.63232e-09
2.02216e-08
6.19365e-08
2.70798e-08
1.63281e-07
1.01474e-09
1.63525e-07
-1.13256e-08
1.50882e-07
1.34793e-07
3.17929e-10
-6.70349e-08
9.77795e-07
-7.94337e-08
1.96248e-07
-5.79591e-08
-3.26093e-07
-3.48907e-08
-4.73652e-07
6.87877e-09
-7.21703e-07
4.80879e-08
-7.82963e-07
9.22346e-08
-7.95171e-07
1.53749e-07
-9.01438e-07
2.07619e-07
-8.11786e-07
2.49494e-07
-6.69157e-07
3.13947e-07
-4.8472e-07
3.30327e-07
-2.01656e-07
3.09953e-07
2.97105e-07
2.74446e-07
6.94702e-07
1.60969e-07
7.72606e-07
9.22398e-08
6.0173e-07
1.34403e-08
4.16948e-07
-8.65305e-08
4.23134e-07
3.30665e-08
1.09677e-07
1.53083e-07
7.0935e-08
2.38632e-07
7.01449e-08
2.71827e-07
2.85037e-07
1.18558e-07
3.89801e-07
-8.42287e-08
2.77101e-07
-1.72944e-07
9.33527e-08
-1.31307e-07
2.03111e-08
-1.00595e-07
1.3256e-07
-9.50724e-08
1.57994e-07
-5.54177e-08
1.11236e-07
7.99605e-08
-5.73751e-10
-6.96459e-08
1.04744e-06
-8.22138e-08
2.08816e-07
-5.98163e-08
-3.4849e-07
-3.71669e-08
-4.96302e-07
5.08924e-09
-7.63959e-07
4.59416e-08
-8.23815e-07
9.05843e-08
-8.39814e-07
1.54499e-07
-9.65353e-07
2.03677e-07
-8.60964e-07
2.39777e-07
-7.05257e-07
2.99874e-07
-5.44818e-07
3.49562e-07
-2.51345e-07
3.67474e-07
2.79193e-07
3.01894e-07
7.60282e-07
1.21045e-07
9.53455e-07
1.96212e-08
7.03153e-07
5.74344e-08
3.79135e-07
1.13834e-07
3.66734e-07
5.08212e-08
1.7269e-07
7.48802e-08
4.6876e-08
1.54154e-07
-9.12928e-09
2.31386e-07
2.07805e-07
2.73833e-07
3.47354e-07
1.37351e-07
4.13583e-07
2.67919e-08
2.03911e-07
-6.19669e-08
1.0908e-07
-9.17367e-08
1.62321e-07
-8.60552e-08
1.52329e-07
-4.88109e-08
7.39919e-08
3.50959e-08
-3.94729e-09
-7.24445e-08
1.11989e-06
-8.51716e-08
2.21543e-07
-6.1787e-08
-3.71875e-07
-3.95718e-08
-5.18517e-07
3.1128e-09
-8.06644e-07
4.3594e-08
-8.64296e-07
8.88463e-08
-8.85066e-07
1.53294e-07
-1.0298e-06
1.87847e-07
-8.95517e-07
2.08791e-07
-7.26201e-07
2.94487e-07
-6.30496e-07
3.36514e-07
-2.73163e-07
3.43688e-07
1.81131e-07
3.00759e-07
7.24098e-07
1.58761e-07
1.09545e-06
1.0161e-07
7.60305e-07
2.52297e-07
2.28447e-07
1.43214e-07
4.75818e-07
-1.77272e-07
4.9263e-07
-4.90553e-09
-1.25491e-07
1.80571e-07
-1.94284e-07
1.09737e-07
2.78696e-07
2.11858e-07
2.45233e-07
2.14565e-07
4.10876e-07
1.27568e-07
2.90908e-07
1.22408e-08
2.24408e-07
-3.7782e-08
2.12365e-07
-2.89714e-08
1.43518e-07
-1.5142e-08
6.01625e-08
2.40628e-08
-4.10916e-09
-7.54317e-08
1.19532e-06
-8.83116e-08
2.34423e-07
-6.38663e-08
-3.9632e-07
-4.21019e-08
-5.40281e-07
8.97269e-10
-8.49643e-07
4.10412e-08
-9.0444e-07
8.68805e-08
-9.30906e-07
1.42553e-07
-1.08547e-06
1.46544e-07
-8.99507e-07
1.76214e-07
-7.55869e-07
2.35798e-07
-5.90203e-07
-1.15127e-07
1.80098e-08
-4.72151e-07
1.94921e-07
-2.84597e-07
3.31712e-07
3.5701e-08
7.01661e-07
-1.09683e-07
8.90806e-07
-7.30104e-08
1.8648e-07
2.6922e-08
3.71784e-07
-4.2588e-08
5.61797e-07
-1.44552e-08
-1.52031e-07
1.02954e-07
-3.11114e-07
3.59654e-08
3.45996e-07
3.033e-08
2.50868e-07
1.05566e-07
3.3564e-07
5.49099e-08
3.41565e-07
6.17601e-09
2.73142e-07
1.07856e-08
2.07757e-07
2.85487e-08
1.25755e-07
2.10444e-08
6.76668e-08
4.66386e-08
-1.53128e-09
-7.86868e-08
1.274e-06
-9.16385e-08
2.47374e-07
-6.60494e-08
-4.21909e-07
-4.47497e-08
-5.61581e-07
-7.24355e-10
-8.93668e-07
3.82344e-08
-9.43399e-07
8.25713e-08
-9.75243e-07
1.03971e-07
-1.10687e-06
8.0646e-08
-8.7618e-07
2.10536e-07
-7.96871e-07
4.25907e-08
-1.50968e-07
-1.76148e-07
3.73075e-09
-6.24129e-07
1.4579e-07
-5.73631e-07
2.56147e-08
-2.96548e-07
3.61231e-07
-2.58157e-07
8.53013e-07
-2.78031e-07
2.05654e-07
-9.52626e-08
1.8838e-07
-9.88165e-08
5.65034e-07
-1.16002e-07
-1.35035e-07
1.16953e-07
-5.44231e-07
6.83136e-08
3.93658e-07
-1.00268e-07
4.19392e-07
-1.04571e-07
3.39943e-07
-8.33318e-08
3.20326e-07
-5.0087e-08
2.39897e-07
-3.81189e-09
1.61482e-07
3.40811e-08
8.7862e-08
2.63056e-08
7.54423e-08
7.60149e-08
-3.07063e-09
-8.1664e-08
1.35567e-06
-9.51581e-08
2.60868e-07
-6.83336e-08
-4.48734e-07
-4.75127e-08
-5.82402e-07
-2.2997e-09
-9.38881e-07
3.47688e-08
-9.80468e-07
6.58259e-08
-1.0063e-06
1.49046e-08
-1.05595e-06
7.33542e-08
-9.34542e-07
1.05049e-07
-3.41955e-07
-1.03938e-09
-9.08587e-10
-3.69736e-09
-1.88808e-09
-3.85581e-08
-1.76386e-08
-4.67855e-07
1.18129e-07
-3.08955e-07
6.41829e-08
-2.10841e-07
7.54144e-07
-3.19356e-07
3.14e-07
-2.2209e-07
9.11648e-08
-6.47018e-08
4.05357e-07
-5.54806e-08
-1.44431e-07
8.72098e-08
-6.90036e-07
7.57439e-08
4.01268e-07
-1.41296e-07
6.36423e-07
-1.88596e-07
3.87243e-07
-1.63181e-07
2.9491e-07
-1.25779e-07
2.02495e-07
-6.03113e-08
9.6009e-08
-6.70578e-09
3.42504e-08
5.56855e-09
6.3168e-08
8.52388e-08
-3.65622e-09
-8.79606e-08
1.44363e-06
-9.88638e-08
2.71772e-07
-7.07221e-08
-4.76875e-07
-5.04006e-08
-6.02724e-07
-4.36627e-09
-9.84915e-07
2.82142e-08
-1.01305e-06
1.16416e-08
-9.89727e-07
-1.01716e-07
-9.38642e-07
1.89143e-07
-5.45238e-07
2.03048e-09
-2.4862e-08
1.17785e-09
-2.76351e-11
-1.21257e-09
4.32341e-10
-8.73827e-08
7.52673e-09
-4.84391e-07
6.21517e-08
-4.76591e-07
-1.96796e-07
-2.81976e-07
5.5865e-07
-3.71661e-07
4.03687e-07
-3.80813e-07
1.01803e-07
-1.16143e-07
1.42152e-07
2.44178e-08
-2.84908e-07
8.38566e-08
-7.41923e-07
1.24272e-07
3.61877e-07
-2.67986e-08
7.87924e-07
-1.34156e-07
4.945e-07
-1.83827e-07
3.44582e-07
-1.61491e-07
1.80159e-07
-1.00096e-07
3.46363e-08
-4.99422e-08
-1.5906e-08
-1.68741e-08
3.00837e-08
6.67979e-08
1.55676e-09
-7.88485e-08
1.52248e-06
-1.02813e-07
2.95736e-07
-7.3197e-08
-5.06491e-07
-5.34972e-08
-6.22423e-07
-8.19377e-09
-1.03022e-06
9.18994e-09
-1.03043e-06
-8.12588e-08
-8.99278e-07
1.86298e-07
-1.14341e-06
1.92973e-08
-1.20546e-07
2.39253e-10
-5.79055e-09
1.79829e-10
2.59421e-11
9.04591e-10
1.02579e-11
6.05729e-09
2.31075e-09
-2.60139e-07
-1.84334e-08
-6.4909e-07
-3.88273e-07
-4.1336e-07
3.2292e-07
-4.22803e-07
4.13124e-07
-4.44411e-07
1.23396e-07
-2.7747e-07
-2.47959e-08
-9.68223e-08
-4.65198e-07
-4.22743e-08
-7.96646e-07
4.43615e-08
2.7504e-07
-2.88534e-08
8.55857e-07
-1.27706e-07
5.93339e-07
-1.78195e-07
3.9507e-07
-1.44853e-07
1.46817e-07
-1.02349e-07
-7.82361e-09
-7.13702e-08
-4.68851e-08
-3.29587e-08
-8.32863e-09
3.11554e-08
2.67604e-09
-1.31871e-07
1.65435e-06
-1.06294e-07
2.7016e-07
-7.5907e-08
-5.36879e-07
-5.7353e-08
-6.40977e-07
-1.93463e-08
-1.06823e-06
-5.0074e-08
-9.99704e-07
-1.40621e-07
-7.84497e-07
1.09339e-07
-5.28725e-07
5.51971e-09
-1.72999e-08
2.29062e-10
-5.26873e-10
2.08186e-10
4.25253e-11
4.21359e-11
5.91533e-10
-4.03727e-09
6.70553e-09
-9.90497e-08
-1.51627e-09
-5.91096e-07
-1.98078e-07
-5.95505e-07
4.45752e-08
-4.49523e-07
2.67128e-07
-4.83812e-07
1.5767e-07
-4.10028e-07
-9.85938e-08
-3.18986e-07
-5.56005e-07
-2.50651e-07
-8.6101e-07
-1.20936e-07
1.45158e-07
-1.7631e-07
9.02309e-07
-1.67938e-07
5.84962e-07
-1.50063e-07
3.7719e-07
-1.07299e-07
1.04054e-07
-8.76594e-08
-2.743e-08
-7.01145e-08
-6.44302e-08
-3.8384e-08
-4.00577e-08
-9.13502e-09
1.90059e-09
1.67288e-09
1.65267e-06
-1.1248e-07
3.84313e-07
-7.86292e-08
-5.7073e-07
-6.49516e-08
-6.54655e-07
-5.44089e-08
-1.07877e-06
-1.54405e-07
-8.99699e-07
4.23858e-07
-1.10738e-06
1.4839e-08
-8.53282e-08
4.33227e-10
-2.92389e-09
1.37745e-11
-1.11783e-10
5.42503e-11
2.13788e-12
-1.43815e-11
3.74243e-10
-2.2027e-09
3.36982e-09
-3.45598e-09
-3.12494e-10
-1.76284e-07
-2.65793e-08
-6.39903e-07
-2.77787e-08
-4.92443e-07
1.96788e-08
-4.85039e-07
1.50251e-07
-4.64611e-07
-1.19036e-07
-4.53285e-07
-5.67345e-07
-4.47808e-07
-8.64554e-07
-2.7778e-07
-2.50367e-08
-2.46871e-07
8.71249e-07
-1.82281e-07
5.15647e-07
-1.16488e-07
3.11397e-07
-8.57762e-08
7.33419e-08
-7.99502e-08
-3.32284e-08
-6.28371e-08
-8.15436e-08
-3.40651e-08
-6.88425e-08
-4.90446e-08
5.83881e-09
-2.53409e-07
1.90608e-06
-9.76982e-08
2.28602e-07
-8.4e-08
-5.84428e-07
-8.84945e-08
-6.5016e-07
-1.48797e-07
-1.01846e-06
-1.08322e-07
-9.03691e-07
5.43693e-08
-3.00589e-07
2.74254e-09
-6.86653e-09
1.16881e-10
-2.74127e-10
7.42252e-12
-3.51386e-12
8.90793e-12
4.34411e-13
-1.37784e-10
2.58217e-11
-4.9273e-10
4.20528e-11
-7.21919e-10
-1.6372e-11
-2.51166e-08
-2.17099e-09
-2.37852e-07
-3.8973e-08
-5.54507e-07
-8.02746e-08
-4.48309e-07
2.81481e-09
-4.24785e-07
-1.42574e-07
-5.19227e-07
-4.72881e-07
-5.51143e-07
-8.31453e-07
-3.72826e-07
-2.0352e-07
-2.96519e-07
7.94893e-07
-1.99936e-07
4.15899e-07
-9.83718e-08
2.09833e-07
-8.69216e-08
6.1892e-08
-5.93335e-08
-6.07887e-08
-4.78958e-08
-9.29816e-08
-2.61197e-08
-9.06322e-08
-8.36059e-08
8.4265e-09
3.41558e-08
1.87193e-06
-1.13543e-07
3.76301e-07
-9.64771e-08
-6.01494e-07
-1.66819e-07
-5.79819e-07
-2.98844e-07
-8.49019e-07
2.70168e-07
-4.97421e-07
6.30837e-09
-2.34232e-08
2.59425e-10
-7.93999e-10
3.31083e-12
-1.77967e-11
1.19057e-14
-2.13138e-13
1.80041e-13
6.58635e-14
-2.94164e-11
-7.01107e-12
-9.25571e-11
2.61888e-11
-7.90511e-11
-2.04788e-12
-2.14236e-09
-1.02276e-10
-3.94434e-08
-1.82672e-09
-2.33938e-07
-2.4259e-08
-4.53658e-07
-5.18003e-08
-4.16606e-07
-2.25469e-07
-5.10618e-07
-3.78811e-07
-6.17492e-07
-7.24365e-07
-4.69076e-07
-3.4821e-07
-3.99596e-07
7.25338e-07
-2.49805e-07
2.66702e-07
-9.64283e-08
5.64564e-08
-8.85859e-08
5.40578e-08
-2.39814e-08
-1.25408e-07
-2.24125e-08
-9.45877e-08
-1.63932e-08
-9.66537e-08
9.73891e-09
-1.09744e-07
-3.9384e-08
3.80928e-08
-1.78261e-10
-3.87741e-08
-1.79392e-08
1.77654e-08
-2.57265e-08
7.7993e-09
1.78182e-08
-4.36052e-08
8.11107e-08
-6.33977e-08
1.37685e-07
-5.66776e-08
2.07025e-07
-6.94991e-08
2.07494e-07
-6.39762e-10
1.40941e-07
6.62729e-08
1.06764e-07
3.38733e-08
8.83744e-08
1.90208e-08
5.08521e-08
3.76188e-08
-3.99887e-09
5.48509e-08
-4.94715e-08
4.54727e-08
-7.54794e-08
2.60079e-08
-1.34888e-07
5.94083e-08
-1.45546e-07
1.06581e-08
-1.63901e-07
1.83553e-08
-1.64465e-07
5.64062e-10
-1.54685e-07
-9.78058e-09
-1.33899e-07
-2.07859e-08
-1.07244e-07
-2.66553e-08
-7.82832e-08
-2.89604e-08
-4.7101e-08
-3.11822e-08
-1.74436e-08
-2.96574e-08
6.11316e-09
-2.35567e-08
2.3486e-08
-1.73728e-08
2.41514e-08
-6.65456e-10
2.41514e-08
3.45668e-08
3.14833e-09
3.77528e-08
-4.20063e-08
3.92456e-08
1.68962e-08
6.6976e-08
-1.99139e-08
1.18553e-07
-9.51818e-08
1.89878e-07
-1.34721e-07
2.56472e-07
-1.23301e-07
2.7523e-07
-8.82556e-08
2.55009e-07
1.9536e-08
2.04511e-07
1.16479e-07
1.20446e-07
1.17583e-07
2.15213e-08
1.18656e-07
-3.7672e-08
9.68146e-08
-1.17514e-07
1.34693e-07
-1.52123e-07
8.00814e-08
-1.58745e-07
3.26297e-08
-2.25943e-07
1.26606e-07
-2.17807e-07
2.5225e-09
-2.20795e-07
2.13429e-08
-2.13642e-07
-6.58859e-09
-1.86817e-07
-3.66059e-08
-1.52985e-07
-5.46178e-08
-1.12707e-07
-6.69335e-08
-7.18938e-08
-6.97731e-08
-3.0953e-08
-7.2123e-08
5.39616e-09
-6.60065e-08
3.20327e-08
-5.01933e-08
4.84725e-08
-3.38126e-08
4.10469e-08
6.76018e-09
6.51983e-08
4.96107e-08
-4.91562e-08
6.07693e-08
-5.32077e-08
1.12681e-07
-3.3871e-08
1.76457e-07
-8.29538e-08
2.36405e-07
-1.55129e-07
2.8786e-07
-1.86175e-07
3.30209e-07
-1.65648e-07
3.07928e-07
-6.59737e-08
2.481e-07
7.93652e-08
1.69194e-07
1.95385e-07
6.0515e-08
2.2582e-07
-2.78204e-08
2.07235e-07
-8.40804e-08
1.53075e-07
-1.61588e-07
2.12201e-07
-1.87148e-07
1.05642e-07
-1.80627e-07
2.61078e-08
-2.33985e-07
1.79965e-07
-2.28117e-07
-3.34563e-09
-2.21278e-07
1.45037e-08
-2.14734e-07
-1.31327e-08
-1.84604e-07
-6.67353e-08
-1.48704e-07
-9.05178e-08
-1.06607e-07
-1.09031e-07
-6.4528e-08
-1.11852e-07
-2.29001e-08
-1.13751e-07
1.37125e-08
-1.02619e-07
3.96198e-08
-7.61007e-08
5.48368e-08
-4.90295e-08
4.50409e-08
1.65561e-08
1.10239e-07
3.93325e-08
-9.1194e-08
7.95631e-08
-9.46821e-08
1.54262e-07
-1.08454e-07
2.35598e-07
-1.64203e-07
2.95333e-07
-2.14876e-07
3.27824e-07
-2.18666e-07
3.2769e-07
-1.65522e-07
2.85243e-07
-2.35271e-08
2.05158e-07
1.5945e-07
1.10557e-07
2.89987e-07
-1.69887e-08
3.52924e-07
-7.3743e-08
2.63991e-07
-1.09004e-07
1.88336e-07
-1.80053e-07
2.8325e-07
-2.1486e-07
1.40449e-07
-1.90763e-07
2.0108e-09
-2.22297e-07
2.11499e-07
-2.36282e-07
1.0639e-08
-2.18298e-07
-3.47999e-09
-2.15623e-07
-1.58077e-08
-1.84185e-07
-9.81733e-08
-1.47674e-07
-1.2703e-07
-1.05089e-07
-1.51615e-07
-6.27902e-08
-1.54152e-07
-2.10476e-08
-1.55494e-07
1.5647e-08
-1.39314e-07
4.13545e-08
-1.01808e-07
5.63728e-08
-6.40477e-08
4.60907e-08
2.68381e-08
1.5633e-07
5.45929e-08
-1.44538e-07
1.18227e-07
-1.58314e-07
1.89755e-07
-1.7998e-07
2.48379e-07
-2.22824e-07
2.75989e-07
-2.42483e-07
2.69723e-07
-2.12508e-07
2.37088e-07
-1.32879e-07
1.72161e-07
4.14143e-08
9.68791e-08
2.34833e-07
-3.07574e-09
3.89883e-07
-8.20683e-08
4.31483e-07
-9.76761e-08
2.79599e-07
-1.2556e-07
2.16219e-07
-1.7225e-07
3.2994e-07
-2.25313e-07
1.93511e-07
-1.95392e-07
-2.791e-08
-2.00507e-07
2.16614e-07
-2.43467e-07
5.35993e-08
-2.17357e-07
-2.95901e-08
-2.17355e-07
-1.58098e-08
-1.8497e-07
-1.30558e-07
-1.47781e-07
-1.64219e-07
-1.0478e-07
-1.94616e-07
-6.23593e-08
-1.96572e-07
-2.05492e-08
-1.97304e-07
1.63112e-08
-1.76174e-07
4.19762e-08
-1.27473e-07
5.70672e-08
-7.91387e-08
4.6661e-08
3.72442e-08
2.02991e-07
4.53894e-08
-1.89689e-07
9.9512e-08
-2.12418e-07
1.45787e-07
-2.26246e-07
1.49815e-07
-2.26855e-07
1.28677e-07
-2.21401e-07
1.02024e-07
-1.86081e-07
5.58781e-08
-8.65942e-08
1.46988e-08
8.26125e-08
-3.63048e-08
2.85844e-07
-9.5103e-08
4.48927e-07
-1.13985e-07
4.51048e-07
-1.09681e-07
2.75295e-07
-1.40169e-07
2.46707e-07
-1.4787e-07
3.3764e-07
-2.02833e-07
2.48475e-07
-1.97768e-07
-3.29757e-08
-1.86468e-07
2.05314e-07
-2.48569e-07
1.15701e-07
-2.19979e-07
-5.81807e-08
-2.18887e-07
-1.69019e-08
-1.86157e-07
-1.63288e-07
-1.48007e-07
-2.02369e-07
-1.0455e-07
-2.38073e-07
-6.20349e-08
-2.39087e-07
-2.01558e-08
-2.39183e-07
1.6869e-08
-2.13199e-07
4.25012e-08
-1.53106e-07
5.77319e-08
-9.43693e-08
4.72461e-08
4.77301e-08
2.50237e-07
9.27669e-09
-1.96574e-07
1.59949e-08
-2.19119e-07
2.72674e-10
-2.10548e-07
-2.65207e-08
-2.00073e-07
-3.34283e-08
-2.14523e-07
-3.07252e-08
-1.88727e-07
-5.25928e-08
-6.45831e-08
-8.97835e-08
1.19287e-07
-1.40681e-07
3.3675e-07
-1.71546e-07
4.798e-07
-1.38203e-07
4.18044e-07
-1.21574e-07
2.58667e-07
-1.52864e-07
2.77997e-07
-1.26718e-07
3.11495e-07
-1.74342e-07
2.96098e-07
-2.07463e-07
1.45463e-10
-1.92071e-07
1.89922e-07
-2.52616e-07
1.76247e-07
-2.26803e-07
-8.39947e-08
-2.19957e-07
-2.37474e-08
-1.87697e-07
-1.95548e-07
-1.48244e-07
-2.41823e-07
-1.0425e-07
-2.82067e-07
-6.16466e-08
-2.8169e-07
-1.96722e-08
-2.81157e-07
1.75142e-08
-2.50385e-07
4.31021e-08
-1.78693e-07
5.85091e-08
-1.09776e-07
4.79369e-08
5.83023e-08
2.98174e-07
-3.13219e-08
-1.60301e-07
-6.94344e-08
-1.81053e-07
-9.51655e-08
-1.84816e-07
-1.02713e-07
-1.92525e-07
-9.1953e-08
-2.25283e-07
-1.01882e-07
-1.7813e-07
-1.43448e-07
-2.26729e-08
-2.0637e-07
1.82201e-07
-2.39441e-07
3.68088e-07
-2.08444e-07
4.46677e-07
-1.17824e-07
3.27424e-07
-9.1185e-08
2.32028e-07
-1.3154e-07
3.18352e-07
-1.09903e-07
2.89858e-07
-1.73119e-07
3.59314e-07
-2.26745e-07
5.37722e-08
-2.19777e-07
1.82954e-07
-2.48661e-07
2.0513e-07
-2.3756e-07
-9.50949e-08
-2.20623e-07
-4.06845e-08
-1.89515e-07
-2.26656e-07
-1.48491e-07
-2.82847e-07
-1.03856e-07
-3.26701e-07
-6.11743e-08
-3.24372e-07
-1.91304e-08
-3.23201e-07
1.82748e-08
-2.8779e-07
4.38034e-08
-2.04222e-07
5.94225e-08
-1.25395e-07
4.87508e-08
6.8974e-08
3.46925e-07
-3.77034e-08
-1.17608e-07
-6.6118e-08
-1.52658e-07
-9.35351e-08
-1.57399e-07
-1.48815e-07
-1.37245e-07
-1.93034e-07
-1.81006e-07
-2.02767e-07
-1.67424e-07
-2.24418e-07
-1.02828e-09
-2.60855e-07
2.18631e-07
-2.81823e-07
3.89047e-07
-2.10545e-07
3.75109e-07
-1.05321e-07
2.222e-07
-9.65835e-08
2.23291e-07
-1.06067e-07
3.27836e-07
-1.05522e-07
2.89312e-07
-1.73979e-07
4.27771e-07
-2.29835e-07
1.09628e-07
-2.47069e-07
2.00188e-07
-2.35681e-07
1.93742e-07
-2.46608e-07
-8.41681e-08
-2.22237e-07
-6.50556e-08
-1.91359e-07
-2.57534e-07
-1.48762e-07
-3.25444e-07
-1.03346e-07
-3.72117e-07
-6.06123e-08
-3.67105e-07
-1.85067e-08
-3.65307e-07
1.91551e-08
-3.25452e-07
4.46071e-08
-2.29674e-07
6.04768e-08
-1.41265e-07
4.96921e-08
7.97586e-08
3.96617e-07
5.33169e-10
-1.14608e-07
-2.78682e-08
-1.24257e-07
-1.06626e-07
-7.86416e-08
-1.9384e-07
-5.00305e-08
-2.26741e-07
-1.48105e-07
-2.43446e-07
-1.50242e-07
-2.84728e-07
4.08367e-08
-3.14776e-07
2.48671e-07
-2.8573e-07
3.5996e-07
-1.69567e-07
2.58945e-07
-1.22298e-07
1.74932e-07
-1.5875e-07
2.59742e-07