/*--------------------------------*- C++ -*----------------------------------*\
| =========                 |                                                 |
| \\      /  F ield         | OpenFOAM: The Open Source CFD Toolbox           |
|  \\    /   O peration     | Version:  2.4.0                                 |
|   \\  /    A nd           | Web:      www.OpenFOAM.org                      |
|    \\/     M anipulation  |                                                 |
\*---------------------------------------------------------------------------*/
FoamFile
{
    version     2.0;
    format      ascii;
    class       volVectorField;
    location    "0.04";
    object      U;
}
// * * * * * * * * * * * * * * * * * * * * * * * * * * * * * * * * * * * * * //

dimensions      [0 1 -1 0 0 0 0];

internalField   nonuniform List<vector> 
3600
(
(-0.000664044 4.01412e-05 0)
(-0.00212383 4.6824e-05 0)
(-0.00378131 5.32173e-05 0)
(-0.00556891 5.49427e-05 0)
(-0.00721105 3.75892e-05 0)
(-0.00842466 4.87231e-06 0)
(-0.00899319 -5.74693e-05 0)
(-0.00857051 -0.00015482 0)
(-0.00682117 -0.000302915 0)
(-0.00325343 -0.000520192 0)
(0.00249046 -0.000761328 0)
(0.0103168 -0.00103146 0)
(0.0197 -0.00130259 0)
(0.0299974 -0.00157634 0)
(0.0409903 -0.00196322 0)
(0.051699 -0.00233153 0)
(0.0599025 -0.00248977 0)
(0.0543502 0.00254973 0)
(0.00129374 0.0206632 0)
(-0.1798 0.0279595 0)
(-0.27634 -0.0238936 0)
(0.0403936 -0.161562 0)
(0.195114 -0.0281126 0)
(0.219549 0.026892 0)
(0.079478 0.026783 0)
(0.0578032 -0.00226086 0)
(0.0823997 -0.00712797 0)
(0.0798361 0.00354975 0)
(0.0713256 0.0300595 0)
(0.0272242 0.0274267 0)
(-0.000824204 0.000146754 0)
(-0.00265546 0.000188802 0)
(-0.00481094 0.000231629 0)
(-0.00727804 0.000268977 0)
(-0.00979099 0.000254852 0)
(-0.0120849 0.000206763 0)
(-0.0139853 8.52601e-05 0)
(-0.0151754 -0.000128889 0)
(-0.0153431 -0.0004929 0)
(-0.0139442 -0.00106871 0)
(-0.010544 -0.00174705 0)
(-0.00522365 -0.00248526 0)
(0.00138421 -0.00316228 0)
(0.0083527 -0.00366776 0)
(0.0149698 -0.0042127 0)
(0.0190992 -0.00374985 0)
(0.0171977 2.909e-05 0)
(-0.00206347 0.0226688 0)
(-0.0471496 0.0613477 0)
(-0.15455 0.0643857 0)
(-0.182644 -0.0403956 0)
(0.0638139 -0.255133 0)
(0.0557019 -0.0710351 0)
(0.162762 0.0661439 0)
(0.0732037 0.0562228 0)
(0.0667296 -0.00538865 0)
(0.0633537 -0.0189938 0)
(0.0730234 0.00669327 0)
(0.0590933 0.0402132 0)
(0.0395357 0.0707815 0)
(-0.000839307 0.000262976 0)
(-0.00270898 0.000337487 0)
(-0.00492339 0.000421911 0)
(-0.00748347 0.000504281 0)
(-0.0101326 0.000506362 0)
(-0.0126202 0.000464624 0)
(-0.0147931 0.000316982 0)
(-0.016359 2.93083e-05 0)
(-0.0170316 -0.00049209 0)
(-0.0162591 -0.00135001 0)
(-0.0135965 -0.00239776 0)
(-0.00914272 -0.00350059 0)
(-0.00358934 -0.0044199 0)
(0.00189391 -0.00487948 0)
(0.00628735 -0.00498429 0)
(0.00652615 -0.00264392 0)
(0.000118984 0.00515031 0)
(-0.0199781 0.03664 0)
(-0.0435545 0.0797573 0)
(-0.0950731 0.0791665 0)
(-0.0880982 -0.0782863 0)
(0.0217646 -0.257752 0)
(-0.0499754 -0.0697556 0)
(0.0919726 0.0761601 0)
(0.0353677 0.082854 0)
(0.00837066 0.0264258 0)
(0.00141106 -0.0116798 0)
(0.00738063 0.0299319 0)
(-0.0084724 0.0915446 0)
(-0.00609431 0.146663 0)
(-0.000837681 0.000379364 0)
(-0.00270699 0.000488233 0)
(-0.00492571 0.0006152 0)
(-0.00749852 0.000743865 0)
(-0.0101684 0.000763019 0)
(-0.0126879 0.000728578 0)
(-0.0149128 0.000554607 0)
(-0.0165608 0.000193746 0)
(-0.0173603 -0.000481668 0)
(-0.0167451 -0.00162316 0)
(-0.0142471 -0.0030423 0)
(-0.00995505 -0.0045085 0)
(-0.0045649 -0.00564339 0)
(0.000644651 -0.00604427 0)
(0.00472311 -0.00554801 0)
(0.00438042 -0.00160044 0)
(-0.000350997 0.00833839 0)
(-0.0150432 0.0413341 0)
(-0.0156501 0.081292 0)
(-0.0308214 0.0832044 0)
(-0.0282194 -0.0960832 0)
(0.096589 -0.270848 0)
(-0.072786 -0.10537 0)
(0.088038 0.0649945 0)
(-0.00854735 0.0740908 0)
(-0.00216206 0.0135852 0)
(-0.0334459 -0.0238338 0)
(-0.0493383 0.0204303 0)
(-0.0227692 0.0797187 0)
(-0.0298871 0.0601293 0)
(-0.000833506 0.000495238 0)
(-0.00269746 0.000638896 0)
(-0.00491451 0.000808649 0)
(-0.00749242 0.000984372 0)
(-0.0101714 0.00102099 0)
(-0.012705 0.000995106 0)
(-0.0149567 0.000797175 0)
(-0.0166518 0.000370166 0)
(-0.0175347 -0.000452067 0)
(-0.0170179 -0.00187628 0)
(-0.014596 -0.00366821 0)
(-0.0103255 -0.00550507 0)
(-0.00487171 -0.00686339 0)
(0.000464447 -0.00720965 0)
(0.00498254 -0.00610631 0)
(0.00558174 -0.00057758 0)
(0.00520203 0.0122022 0)
(-0.00304327 0.045921 0)
(0.0202591 0.0776545 0)
(0.0295839 0.0795808 0)
(0.0559671 -0.117892 0)
(0.130672 -0.238739 0)
(-0.0285325 -0.101932 0)
(0.0798111 0.0562469 0)
(0.0290785 0.125543 0)
(0.0646277 0.0641928 0)
(0.0252859 0.0283126 0)
(-0.0232389 0.0173775 0)
(-0.0196884 0.0760321 0)
(0.00881916 0.0590957 0)
(-0.000828045 0.00061049 0)
(-0.00268477 0.000789258 0)
(-0.00489892 0.00100198 0)
(-0.00748204 0.00122558 0)
(-0.0101705 0.00127984 0)
(-0.0127182 0.00126362 0)
(-0.014998 0.00104393 0)
(-0.0167442 0.000555446 0)
(-0.0177205 -0.000408936 0)
(-0.0173134 -0.00211706 0)
(-0.0149669 -0.00428921 0)
(-0.0106892 -0.00651631 0)
(-0.0050943 -0.00813305 0)
(0.000546503 -0.00852727 0)
(0.0059468 -0.00715678 0)
(0.00860145 -0.00149087 0)
(0.0147176 0.0100415 0)
(0.0149877 0.0379628 0)
(0.0596012 0.0602631 0)
(0.0735988 0.0709233 0)
(0.1576 -0.115751 0)
(0.158498 -0.237857 0)
(0.0897745 -0.0914979 0)
(0.0460604 0.0332454 0)
(0.077416 0.101827 0)
(0.138352 0.0661201 0)
(0.109446 0.0505355 0)
(0.0684235 0.0405063 0)
(0.0599379 0.0371837 0)
(0.0357327 0.056837 0)
(-0.000821382 0.000725009 0)
(-0.00266923 0.000939257 0)
(-0.00487962 0.00119518 0)
(-0.0074687 0.00146765 0)
(-0.010168 0.00153972 0)
(-0.0127318 0.00153448 0)
(-0.0150435 0.00129563 0)
(-0.0168487 0.000751451 0)
(-0.017936 -0.000347896 0)
(-0.0176607 -0.00234156 0)
(-0.0154038 -0.00490429 0)
(-0.0111124 -0.00754685 0)
(-0.00534778 -0.00945789 0)
(0.000643457 -0.00997399 0)
(0.00684659 -0.00839082 0)
(0.0110105 -0.00243231 0)
(0.0212682 0.00951103 0)
(0.0260156 0.0331888 0)
(0.0875079 0.043311 0)
(0.0765062 0.0483405 0)
(0.205339 -0.112548 0)
(0.144358 -0.223006 0)
(0.119349 -0.0250363 0)
(0.0200221 0.0440594 0)
(0.134307 0.0162022 0)
(0.121541 0.0189902 0)
(0.184261 0.107427 0)
(0.108528 0.101313 0)
(0.0173772 0.0950465 0)
(0.00603872 0.129771 0)
(-0.000813506 0.00083865 0)
(-0.00265083 0.00108883 0)
(-0.00485659 0.0013882 0)
(-0.00745246 0.00171077 0)
(-0.0101641 0.00180082 0)
(-0.0127457 0.00180806 0)
(-0.0150933 0.00155302 0)
(-0.0169654 0.000960088 0)
(-0.0181825 -0.000267101 0)
(-0.0180638 -0.00254657 0)
(-0.0159152 -0.00551378 0)
(-0.0116086 -0.00860028 0)
(-0.00564689 -0.0108567 0)
(0.000771709 -0.0115991 0)
(0.00794149 -0.0102437 0)
(0.0140856 -0.00535023 0)
(0.0288791 0.00375181 0)
(0.0364605 0.0191242 0)
(0.107804 0.0270116 0)
(0.0747316 0.015739 0)
(0.172125 -0.152931 0)
(0.143712 -0.177894 0)
(0.135232 -0.0626218 0)
(0.0997495 0.036493 0)
(0.17752 0.0346954 0)
(0.154698 0.00634858 0)
(0.200272 0.0366502 0)
(0.240404 0.118057 0)
(0.123231 0.159252 0)
(0.123273 0.170119 0)
(-0.000804403 0.000951268 0)
(-0.00262955 0.0012379 0)
(-0.00482978 0.00158099 0)
(-0.00743325 0.00195507 0)
(-0.0101586 0.00206326 0)
(-0.0127597 0.00208463 0)
(-0.0151467 0.00181675 0)
(-0.0170936 0.00118324 0)
(-0.0184597 -0.000160136 0)
(-0.0185244 -0.00272859 0)
(-0.0165057 -0.00611201 0)
(-0.0121887 -0.00967791 0)
(-0.00602277 -0.0123234 0)
(0.000784512 -0.0133487 0)
(0.00864229 -0.0122548 0)
(0.0159348 -0.00802185 0)
(0.0327194 -0.000235332 0)
(0.0445802 0.00595793 0)
(0.11305 0.014884 0)
(0.109888 0.0132229 0)
(0.120938 -0.192844 0)
(0.209515 -0.146144 0)
(0.0543804 -0.0296721 0)
(0.106477 0.0428457 0)
(0.172481 -0.014183 0)
(0.209732 -0.0158931 0)
(-0.00869744 -0.0197638 0)
(0.258609 0.199712 0)
(0.130825 0.19905 0)
(0.147114 0.263368 0)
(-0.000794053 0.00106271 0)
(-0.00260537 0.0013864 0)
(-0.0047991 0.00177349 0)
(-0.007411 0.00220071 0)
(-0.0101515 0.00232714 0)
(-0.0127735 0.00236444 0)
(-0.0152029 0.00208734 0)
(-0.0172313 0.00142274 0)
(-0.018767 -2.18825e-05 0)
(-0.0190438 -0.00288352 0)
(-0.0171799 -0.00669737 0)
(-0.012859 -0.0107813 0)
(-0.00647478 -0.0138675 0)
(0.000748592 -0.0152568 0)
(0.0093118 -0.0146895 0)
(0.0177494 -0.011833 0)
(0.0352358 -0.00683328 0)
(0.0527589 -0.00884201 0)
(0.104064 -0.00279908 0)
(0.150631 0.00462559 0)
(0.157675 -0.181239 0)
(0.134237 -0.135488 0)
(0.124775 -0.0427608 0)
(0.152743 -0.0366697 0)
(0.266611 -0.0659189 0)
(0.197512 0.126596 0)
(0.203189 0.0471325 0)
(0.155098 0.2564 0)
(0.0407484 0.456837 0)
(0.0488225 0.509671 0)
(-0.000782433 0.00117284 0)
(-0.00257824 0.00153426 0)
(-0.00476448 0.00196564 0)
(-0.00738565 0.00244782 0)
(-0.0101426 0.00259259 0)
(-0.0127869 0.00264771 0)
(-0.0152612 0.00236527 0)
(-0.0173772 0.00168037 0)
(-0.0191035 0.000148186 0)
(-0.0196236 -0.00300438 0)
(-0.0179428 -0.00726805 0)
(-0.0136307 -0.0119104 0)
(-0.00702563 -0.0154856 0)
(0.000568014 -0.0172669 0)
(0.00962115 -0.0172258 0)
(0.0186719 -0.0153825 0)
(0.0357488 -0.0131858 0)
(0.0593602 -0.0190289 0)
(0.0809507 -0.0264481 0)
(0.180548 -0.0143307 0)
(0.179438 -0.18139 0)
(0.127351 -0.108762 0)
(0.15888 -0.0521229 0)
(0.235387 -0.0823494 0)
(0.572047 0.0997178 0)
(0.298233 0.140187 0)
(0.213096 -0.0249769 0)
(0.174768 0.182219 0)
(0.0869546 0.422 0)
(0.0865187 0.493049 0)
(-0.000769521 0.0012815 0)
(-0.00254814 0.0016814 0)
(-0.00472583 0.00215737 0)
(-0.0073571 0.00269653 0)
(-0.0101319 0.00285967 0)
(-0.0127995 0.0029346 0)
(-0.0153205 0.00265086 0)
(-0.0175294 0.00195788 0)
(-0.0194677 0.000355274 0)
(-0.0202651 -0.00308695 0)
(-0.0188003 -0.00782023 0)
(-0.0145111 -0.0130647 0)
(-0.00767725 -0.0171713 0)
(0.000273926 -0.0193827 0)
(0.00972008 -0.019925 0)
(0.0188911 -0.0190766 0)
(0.0350191 -0.0203743 0)
(0.060049 -0.0266675 0)
(0.0687752 -0.0498782 0)
(0.163456 -0.0466676 0)
(0.18161 -0.154287 0)
(0.132322 -0.143153 0)
(0.190931 -0.260886 0)
(0.398295 -0.312732 0)
(0.567382 0.0161853 0)
(0.437712 0.165254 0)
(0.279499 0.193338 0)
(0.149665 0.289325 0)
(0.0741659 0.457093 0)
(0.0996717 0.566594 0)
(-0.000755288 0.00138854 0)
(-0.00251502 0.00182776 0)
(-0.00468304 0.00234864 0)
(-0.00732528 0.00294696 0)
(-0.0101193 0.00312848 0)
(-0.012811 0.00322523 0)
(-0.0153798 0.00294432 0)
(-0.0176857 0.00225697 0)
(-0.0198585 0.000604909 0)
(-0.0209702 -0.0031274 0)
(-0.019758 -0.00834632 0)
(-0.0155089 -0.0142443 0)
(-0.00843762 -0.0189294 0)
(-0.000137661 -0.0215832 0)
(0.00966214 -0.0226756 0)
(0.018602 -0.0226385 0)
(0.0340445 -0.0274154 0)
(0.0562741 -0.0341574 0)
(0.0708233 -0.0649187 0)
(0.120333 -0.0838807 0)
(0.179474 -0.131428 0)
(0.166393 -0.137803 0)
(0.185904 -0.329351 0)
(-0.0824149 -0.209248 0)
(0.239549 0.00751849 0)
(0.170222 0.20744 0)
(0.0813518 0.31187 0)
(0.0376115 0.381468 0)
(-0.0267521 0.505197 0)
(0.0314296 0.629473 0)
(-0.000739704 0.00149379 0)
(-0.00247884 0.00197327 0)
(-0.004636 0.00253942 0)
(-0.00729009 0.00319919 0)
(-0.0101046 0.00339907 0)
(-0.012821 0.00351968 0)
(-0.015438 0.00324566 0)
(-0.0178435 0.00257921 0)
(-0.0202741 0.000902577 0)
(-0.0217396 -0.00311816 0)
(-0.0208226 -0.00884055 0)
(-0.0166355 -0.0154479 0)
(-0.00931616 -0.0207573 0)
(-0.00068509 -0.0238516 0)
(0.00934756 -0.0253218 0)
(0.0174723 -0.0257561 0)
(0.0318004 -0.0335171 0)
(0.0502642 -0.0407906 0)
(0.0707687 -0.0703779 0)
(0.0999189 -0.13628 0)
(0.15772 -0.109024 0)
(-0.0157488 -0.124333 0)
(0.454911 0.251215 0)
(-0.132665 -0.234374 0)
(-0.0403727 0.0184616 0)
(-0.111609 0.268309 0)
(-0.10718 0.34679 0)
(-0.0602797 0.409917 0)
(-0.0523718 0.502176 0)
(0.00174357 0.585326 0)
(-0.000722736 0.00159712 0)
(-0.00243956 0.00211786 0)
(-0.00458461 0.00272966 0)
(-0.00725143 0.00345331 0)
(-0.0100877 0.0036715 0)
(-0.0128292 0.00381797 0)
(-0.0154938 0.00355472 0)
(-0.0179999 0.00292598 0)
(-0.0207124 0.00125427 0)
(-0.0225753 -0.00305203 0)
(-0.0220008 -0.00929933 0)
(-0.0178992 -0.0166771 0)
(-0.0103103 -0.0226675 0)
(-0.00129488 -0.026226 0)
(0.00905252 -0.0281605 0)
(0.0161635 -0.0290739 0)
(0.0297658 -0.039852 0)
(0.043363 -0.04847 0)
(0.0770107 -0.0768004 0)
(0.0472614 -0.160783 0)
(0.102375 -0.0704718 0)
(-0.0618126 -0.418109 0)
(-0.166528 -0.330127 0)
(-0.0867505 -0.0831269 0)
(-0.236769 0.059021 0)
(-0.217449 0.247255 0)
(-0.187472 0.289515 0)
(-0.128398 0.379491 0)
(-0.093011 0.455982 0)
(-0.0276886 0.523086 0)
(-0.000704348 0.00169835 0)
(-0.00239713 0.00226148 0)
(-0.00452874 0.00291931 0)
(-0.00720922 0.0037094 0)
(-0.0100685 0.00394582 0)
(-0.0128354 0.00412008 0)
(-0.015546 0.00387107 0)
(-0.0181515 0.00329835 0)
(-0.0211709 0.00166669 0)
(-0.0234785 -0.0029208 0)
(-0.0233008 -0.0097159 0)
(-0.0193148 -0.0179259 0)
(-0.0114393 -0.0246382 0)
(-0.00205252 -0.0284418 0)
(0.00852794 -0.0299533 0)
(0.0140665 -0.030811 0)
(0.0261471 -0.0436948 0)
(0.0372505 -0.0533706 0)
(0.0736443 -0.0789385 0)
(0.0513382 -0.162583 0)
(0.0634738 -0.00953568 0)
(-0.0764285 -0.0620324 0)
(-0.192506 0.0355696 0)
(-0.239295 -0.0484195 0)
(-0.276368 0.0864698 0)
(-0.232774 0.181268 0)
(-0.205713 0.227515 0)
(-0.153696 0.327384 0)
(-0.10693 0.395261 0)
(-0.0456367 0.448354 0)
(-0.0006845 0.00179733 0)
(-0.00235148 0.00240407 0)
(-0.00446827 0.00310832 0)
(-0.00716333 0.00396754 0)
(-0.010047 0.00422205 0)
(-0.0128391 0.00442593 0)
(-0.0155931 0.00419401 0)
(-0.0182942 0.00369677 0)
(-0.0216464 0.00214759 0)
(-0.0244511 -0.00271591 0)
(-0.0247295 -0.010078 0)
(-0.0208856 -0.0192202 0)
(-0.0126393 -0.0268518 0)
(-0.00261299 -0.031585 0)
(0.0083835 -0.0337619 0)
(0.0123496 -0.034519 0)
(0.0234144 -0.0495492 0)
(0.0335504 -0.0645535 0)
(0.0765357 -0.0974506 0)
(0.112113 -0.127184 0)
(-0.0527074 0.00548344 0)
(-0.10244 -0.0985429 0)
(-0.140107 -0.0934474 0)
(-0.228301 0.00745876 0)
(-0.246682 0.0782428 0)
(-0.21504 0.140494 0)
(-0.192013 0.185374 0)
(-0.147691 0.268033 0)
(-0.0973317 0.330331 0)
(-0.0428307 0.373098 0)
(-0.000663147 0.00189389 0)
(-0.00230256 0.00254557 0)
(-0.00440307 0.00329662 0)
(-0.00711368 0.00422782 0)
(-0.0100231 0.00450022 0)
(-0.0128403 0.0047354 0)
(-0.0156338 0.0045225 0)
(-0.0184234 0.0041206 0)
(-0.0221352 0.00270627 0)
(-0.0254934 -0.00242857 0)
(-0.026303 -0.0103646 0)
(-0.0226765 -0.02048 0)
(-0.0141868 -0.0286715 0)
(-0.00373267 -0.0327323 0)
(0.00772116 -0.0328003 0)
(0.00934914 -0.0335163 0)
(0.0163667 -0.0502626 0)
(0.0257852 -0.0662226 0)
(0.0652191 -0.124495 0)
(0.133767 -0.121816 0)
(0.118393 0.0412258 0)
(0.0171955 -0.00537284 0)
(-0.151137 -0.0148307 0)
(-0.200019 0.0393237 0)
(-0.201393 0.0730473 0)
(-0.187296 0.119656 0)
(-0.166272 0.156937 0)
(-0.133881 0.216615 0)
(-0.0868872 0.267103 0)
(-0.0354322 0.303508 0)
(-0.000640243 0.00198786 0)
(-0.00225032 0.00268593 0)
(-0.00433299 0.00348413 0)
(-0.00706014 0.00449032 0)
(-0.0099966 0.00478036 0)
(-0.0128388 0.00504834 0)
(-0.0156667 0.0048551 0)
(-0.0185336 0.0045687 0)
(-0.0226328 0.00335342 0)
(-0.0266048 -0.00204749 0)
(-0.0280088 -0.0106163 0)
(-0.0245296 -0.0219585 0)
(-0.0153349 -0.0319538 0)
(-0.00364473 -0.038237 0)
(0.00825191 -0.0395264 0)
(0.0076535 -0.0380688 0)
(0.0139649 -0.0557646 0)
(0.0266707 -0.079243 0)
(0.0337636 -0.162668 0)
(0.069308 -0.120763 0)
(-0.0600143 0.0869054 0)
(-0.175706 0.0511375 0)
(-0.186006 0.0099597 0)
(-0.167308 0.0565933 0)
(-0.16506 0.0676179 0)
(-0.154482 0.106047 0)
(-0.13558 0.135889 0)
(-0.111334 0.177825 0)
(-0.0733847 0.213001 0)
(-0.02866 0.237202 0)
(-0.000615736 0.00207907 0)
(-0.00219468 0.0028251 0)
(-0.00425791 0.00367076 0)
(-0.0070026 0.00475512 0)
(-0.00996753 0.0050625 0)
(-0.0128345 0.00536454 0)
(-0.0156907 0.00518993 0)
(-0.0186186 0.00504178 0)
(-0.0231341 0.00409619 0)
(-0.027796 -0.00155849 0)
(-0.0299327 -0.0107077 0)
(-0.0269829 -0.0229325 0)
(-0.0179142 -0.0327007 0)
(-0.00596223 -0.0366933 0)
(0.00719697 -0.0334886 0)
(0.00596074 -0.03395 0)
(0.00575566 -0.0571429 0)
(0.0148161 -0.0748059 0)
(0.0391002 -0.153866 0)
(-0.0277396 -0.08777 0)
(-0.0226744 0.163618 0)
(-0.177514 0.0484663 0)
(-0.185639 0.0217592 0)
(-0.139959 0.0504582 0)
(-0.135096 0.060225 0)
(-0.122126 0.0933659 0)
(-0.104985 0.118422 0)
(-0.0846666 0.148023 0)
(-0.0550623 0.171302 0)
(-0.0208033 0.185691 0)
(-0.00058957 0.00216735 0)
(-0.00213558 0.00296302 0)
(-0.00417766 0.00385641 0)
(-0.00694094 0.00502232 0)
(-0.00993585 0.00534678 0)
(-0.0128274 0.00568376 0)
(-0.0157042 0.0055248 0)
(-0.0186715 0.00554393 0)
(-0.0236324 0.00494587 0)
(-0.0290406 -0.000946631 0)
(-0.0318695 -0.0108354 0)
(-0.0288537 -0.0251526 0)
(-0.0185321 -0.0383426 0)
(-0.00516414 -0.0467093 0)
(0.00954761 -0.0459526 0)
(0.00946608 -0.0370185 0)
(0.00771412 -0.0549382 0)
(0.00882652 -0.100497 0)
(0.10386 -0.131706 0)
(-0.134358 -0.0628643 0)
(-0.171848 0.245754 0)
(-0.181675 0.0266037 0)
(-0.165908 0.0259261 0)
(-0.118643 0.036308 0)
(-0.110984 0.0510415 0)
(-0.0965568 0.080699 0)
(-0.0803458 0.102739 0)
(-0.0626159 0.124353 0)
(-0.0398786 0.139923 0)
(-0.0149569 0.148437 0)
(-0.000561686 0.00225253 0)
(-0.00207295 0.00309963 0)
(-0.0040921 0.00404096 0)
(-0.00687503 0.00529197 0)
(-0.00990151 0.00563339 0)
(-0.0128179 0.00600534 0)
(-0.0157054 0.00585592 0)
(-0.0186842 0.00607388 0)
(-0.0241221 0.00589028 0)
(-0.0304012 -0.000216125 0)
(-0.0344165 -0.0105569 0)
(-0.0329406 -0.0249633 0)
(-0.0253064 -0.0367163 0)
(-0.0179846 -0.0404403 0)
(-0.0137099 -0.0340559 0)
(-0.00681111 -0.0357391 0)
(0.033265 -0.0601015 0)
(-0.0136226 -0.114047 0)
(0.126359 -0.0526952 0)
(-0.258389 -0.00313765 0)
(-0.19216 0.235931 0)
(-0.147004 -0.00396619 0)
(-0.133875 0.0151098 0)
(-0.0985212 0.0217783 0)
(-0.0895581 0.0421139 0)
(-0.077393 0.0684576 0)
(-0.0629072 0.0884824 0)
(-0.0476028 0.10521 0)
(-0.029873 0.116314 0)
(-0.0114687 0.121808 0)
(-0.000532021 0.00233442 0)
(-0.00200672 0.00323486 0)
(-0.00400106 0.00422433 0)
(-0.0068047 0.00556423 0)
(-0.00986456 0.00592299 0)
(-0.0128063 0.00632984 0)
(-0.0156929 0.00618367 0)
(-0.0186503 0.00664921 0)
(-0.0245927 0.00699995 0)
(-0.0317236 0.000739737 0)
(-0.0362243 -0.0105646 0)
(-0.0341273 -0.02836 0)
(-0.0257975 -0.0436448 0)
(-0.0148054 -0.0511182 0)
(0.0124914 -0.0538876 0)
(0.067694 -0.0486304 0)
(0.0405627 -0.0476613 0)
(0.0109314 -0.153203 0)
(0.0709084 -0.0721747 0)
(-0.0755279 0.135828 0)
(0.0806944 0.089978 0)
(-0.0686483 0.031243 0)
(-0.0778317 0.00901837 0)
(-0.0745325 0.0139601 0)
(-0.0695338 0.0356411 0)
(-0.0620275 0.0585034 0)
(-0.0504945 0.0761705 0)
(-0.0378024 0.0895428 0)
(-0.0237162 0.0979216 0)
(-0.00954377 0.101806 0)
(-0.000500506 0.00241283 0)
(-0.00193681 0.00336857 0)
(-0.00390438 0.00440621 0)
(-0.00672977 0.00583859 0)
(-0.00982494 0.00621449 0)
(-0.012793 0.00665142 0)
(-0.0156631 0.00648779 0)
(-0.0185556 0.00721693 0)
(-0.0250421 0.00808687 0)
(-0.0333701 0.00163472 0)
(-0.0405571 -0.0095982 0)
(-0.0449597 -0.0259688 0)
(-0.0524771 -0.0401699 0)
(-0.0612124 -0.050299 0)
(-0.0339504 -0.0568304 0)
(-0.0179187 -0.0458783 0)
(0.0233655 -0.0418353 0)
(0.0860822 -0.142581 0)
(-0.0440025 0.0242679 0)
(0.156059 0.0928269 0)
(0.0783082 0.178636 0)
(0.0421911 0.0579966 0)
(-0.030378 0.0123344 0)
(-0.0502066 0.00866165 0)
(-0.0518722 0.0324074 0)
(-0.0487383 0.0518109 0)
(-0.0406045 0.0664262 0)
(-0.0306276 0.076894 0)
(-0.0194608 0.0832596 0)
(-0.00830381 0.0861129 0)
(-0.000467075 0.00248773 0)
(-0.00186317 0.00350102 0)
(-0.00380191 0.00458761 0)
(-0.00665012 0.00611808 0)
(-0.00978315 0.00651623 0)
(-0.0127803 0.00699263 0)
(-0.0156183 0.00682699 0)
(-0.0184037 0.00795738 0)
(-0.0254408 0.00970055 0)
(-0.0344672 0.00333956 0)
(-0.0403075 -0.00888828 0)
(-0.0379805 -0.0273677 0)
(-0.0236066 -0.041084 0)
(0.00063615 -0.0536702 0)
(0.0440233 -0.063357 0)
(0.0251368 -0.0626318 0)
(0.0787937 -0.0743596 0)
(0.115289 -0.112167 0)
(-0.0671067 -0.158245 0)
(0.300177 0.00217621 0)
(0.0630951 0.155082 0)
(0.241487 0.0796829 0)
(0.0733181 0.0731288 0)
(-0.0152901 0.0307326 0)
(-0.0297145 0.0395011 0)
(-0.0362913 0.0497977 0)
(-0.0321162 0.0596494 0)
(-0.0247457 0.0670906 0)
(-0.0160424 0.0717025 0)
(-0.00731189 0.0737685 0)
(-0.000431682 0.00255898 0)
(-0.00178564 0.00363149 0)
(-0.00369329 0.00476352 0)
(-0.00656497 0.00638857 0)
(-0.00973764 0.00679263 0)
(-0.0127645 0.00725607 0)
(-0.0155432 0.00696903 0)
(-0.0181529 0.00835352 0)
(-0.0258303 0.010552 0)
(-0.0368925 0.00395614 0)
(-0.0503598 -0.00782222 0)
(-0.0677916 -0.0284202 0)
(-0.0772782 -0.0495938 0)
(-0.0623743 -0.0664936 0)
(-0.0347488 -0.0649146 0)
(0.000964679 -0.062632 0)
(0.060285 -0.0819898 0)
(0.172483 -0.0706246 0)
(0.225782 -0.0469376 0)
(0.00816217 0.164992 0)
(0.329687 0.151193 0)
(-0.0658633 0.139053 0)
(0.0408229 0.140021 0)
(-0.0461844 0.0588814 0)
(-0.0285117 0.0488563 0)
(-0.0324357 0.0492666 0)
(-0.0272025 0.0544065 0)
(-0.0206618 0.0593239 0)
(-0.0135128 0.0626182 0)
(-0.00657005 0.0641461 0)
(-0.000395603 0.00262924 0)
(-0.00170446 0.00376846 0)
(-0.00357921 0.00496854 0)
(-0.00647633 0.00672298 0)
(-0.00969474 0.00720147 0)
(-0.0127625 0.00777957 0)
(-0.0154662 0.00756724 0)
(-0.0178487 0.00963706 0)
(-0.0260961 0.0133099 0)
(-0.0372066 0.00740612 0)
(-0.0443321 -0.00429685 0)
(-0.0399251 -0.024317 0)
(-0.0259621 -0.0445257 0)
(-0.0305482 -0.0661013 0)
(-0.0334894 -0.0819043 0)
(-0.0182377 -0.0930454 0)
(0.0233341 -0.139335 0)
(-0.00295607 -0.0800833 0)
(-1.07749 -0.234216 0)
(-0.208441 0.0192734 0)
(0.188383 0.23045 0)
(-0.442146 0.14439 0)
(0.0298237 0.0988921 0)
(-0.0724593 0.062581 0)
(-0.0313557 0.0463585 0)
(-0.0316395 0.0451851 0)
(-0.0246027 0.0485137 0)
(-0.0181194 0.052353 0)
(-0.0118592 0.0550968 0)
(-0.00611059 0.0564293 0)
(-0.000380222 0.00267792 0)
(-0.00161785 0.00386583 0)
(-0.00345566 0.00503939 0)
(-0.00637541 0.00685851 0)
(-0.00963569 0.00725883 0)
(-0.0127362 0.0076788 0)
(-0.0153244 0.0071259 0)
(-0.0173803 0.0094766 0)
(-0.0261111 0.0134229 0)
(-0.0389182 0.00693528 0)
(-0.053899 -0.00575165 0)
(-0.0633694 -0.0294372 0)
(-0.0513911 -0.0489445 0)
(-0.0188789 -0.0623231 0)
(0.0139097 -0.0680688 0)
(0.0342989 -0.082714 0)
(0.0325224 -0.0896657 0)
(-0.122843 0.367451 0)
(0.268675 -0.345146 0)
(-0.19614 -0.108596 0)
(-0.00286523 0.304271 0)
(-0.314175 0.0901059 0)
(-0.0136365 0.0323622 0)
(-0.0716388 0.0568861 0)
(-0.033608 0.0384802 0)
(-0.0297051 0.038692 0)
(-0.0222677 0.0419277 0)
(-0.01609 0.0457308 0)
(-0.0106024 0.0485226 0)
(-0.0057769 0.0499287 0)
(-0.000723931 0.00270533 0)
(-0.00153811 0.00402157 0)
(-0.00333654 0.00545706 0)
(-0.00629677 0.00730228 0)
(-0.00963796 0.00800617 0)
(-0.0128274 0.00865755 0)
(-0.0151891 0.00823057 0)
(-0.0168158 0.0112415 0)
(-0.0275357 0.0173599 0)
(-0.0448076 0.0120898 0)
(-0.061361 -0.000805769 0)
(-0.0772869 -0.0274261 0)
(-0.0851781 -0.0561114 0)
(-0.0739681 -0.0791321 0)
(-0.0376078 -0.0916459 0)
(0.0511227 -0.0944391 0)
(0.0400633 -0.109916 0)
(0.0963468 0.0123594 0)
(0.0619045 -0.0340218 0)
(-0.218955 -0.112146 0)
(-0.13492 0.322331 0)
(-0.142852 0.0515838 0)
(-0.0494612 0.00533162 0)
(-0.0485313 0.0417822 0)
(-0.0280996 0.0306348 0)
(-0.0230112 0.0322936 0)
(-0.0175865 0.0359355 0)
(-0.0129286 0.0400025 0)
(-0.00882754 0.0430298 0)
(-0.00524131 0.0445924 0)
(-0.00448354 0.0028387 0)
(-0.00138183 0.00395736 0)
(-0.00281732 0.00528766 0)
(-0.00513992 0.00786733 0)
(-0.00836269 0.0079132 0)
(-0.0121023 0.00833527 0)
(-0.0157335 0.0073964 0)
(-0.0170359 0.0115763 0)
(-0.0227747 0.0179879 0)
(-0.0351397 0.0122194 0)
(-0.05689 0.00119227 0)
(-0.0743694 -0.0255258 0)
(-0.0889992 -0.0544162 0)
(-0.0976652 -0.079806 0)
(-0.0871388 -0.104772 0)
(-0.040921 -0.115047 0)
(0.0204122 -0.0483671 0)
(-0.38748 0.27985 0)
(0.104182 -0.102654 0)
(-0.225796 -0.0454808 0)
(-0.174659 0.289019 0)
(-0.0279593 0.0174362 0)
(-0.0406563 0.000656326 0)
(-0.0184566 0.0267781 0)
(-0.0120765 0.0266339 0)
(-0.0104356 0.0289419 0)
(-0.00905354 0.0325517 0)
(-0.00745137 0.0365564 0)
(-0.00580118 0.0396039 0)
(-0.00424037 0.0412092 0)
(-0.0286526 0.0272542 0)
(-0.0717569 0.0298956 0)
(-0.0804529 0.00363227 0)
(-0.0827387 -0.00743075 0)
(-0.0578827 -0.00264591 0)
(-0.0796533 0.0267796 0)
(-0.21969 0.027153 0)
(-0.195484 -0.0280712 0)
(-0.0406142 -0.161888 0)
(0.276719 -0.023881 0)
(0.179526 0.0279807 0)
(-0.00149448 0.0206371 0)
(-0.0543715 0.00254227 0)
(-0.0599407 -0.00249034 0)
(-0.0517053 -0.00233061 0)
(-0.0409945 -0.00196383 0)
(-0.0299972 -0.00157662 0)
(-0.0196965 -0.00130275 0)
(-0.010312 -0.00103154 0)
(-0.00248675 -0.000761181 0)
(0.00325325 -0.000519977 0)
(0.00681786 -0.000302766 0)
(0.00856565 -0.000154748 0)
(0.00898771 -5.75274e-05 0)
(0.00842293 4.67478e-06 0)
(0.0072094 3.76152e-05 0)
(0.00556905 5.47453e-05 0)
(0.00378395 5.33349e-05 0)
(0.00212503 4.67839e-05 0)
(0.000665259 4.01989e-05 0)
(-0.0397864 0.0702664 0)
(-0.0595485 0.0395495 0)
(-0.0735969 0.00648867 0)
(-0.0636759 -0.0191987 0)
(-0.0670475 -0.00542766 0)
(-0.0739685 0.0563623 0)
(-0.163172 0.0661707 0)
(-0.0560067 -0.0712355 0)
(-0.0645929 -0.255487 0)
(0.18274 -0.0402974 0)
(0.154085 0.0644838 0)
(0.0468513 0.0613327 0)
(0.0019576 0.0226207 0)
(-0.0172728 1.25276e-05 0)
(-0.0191222 -0.00375264 0)
(-0.0149782 -0.00421616 0)
(-0.00835154 -0.00366936 0)
(-0.00137796 -0.00316314 0)
(0.00523175 -0.00248544 0)
(0.0105503 -0.00174627 0)
(0.0139447 -0.00106769 0)
(0.0153393 -0.000492292 0)
(0.0151696 -0.00012862 0)
(0.0139789 8.50598e-05 0)
(0.0120828 0.000206129 0)
(0.00978851 0.000254994 0)
(0.00727754 0.00026828 0)
(0.00481358 0.000231978 0)
(0.00265656 0.000188675 0)
(0.000825424 0.000146919 0)
(0.00630193 0.146688 0)
(0.00898121 0.0917412 0)
(-0.00752286 0.030111 0)
(-0.00195519 -0.0119951 0)
(-0.00871936 0.0261383 0)
(-0.0358656 0.0828571 0)
(-0.0921847 0.0763214 0)
(0.0498335 -0.0696391 0)
(-0.0226345 -0.257855 0)
(0.0877206 -0.078436 0)
(0.0945184 0.0792654 0)
(0.043228 0.0797055 0)
(0.0198275 0.0365338 0)
(-0.000220068 0.00510957 0)
(-0.00656313 -0.00265976 0)
(-0.00630044 -0.00499257 0)
(-0.00189333 -0.00488307 0)
(0.00359601 -0.00442161 0)
(0.00915172 -0.00350084 0)
(0.0136036 -0.00239624 0)
(0.0162601 -0.00134809 0)
(0.0170278 -0.000490977 0)
(0.016353 2.97955e-05 0)
(0.0147865 0.000316651 0)
(0.012618 0.000463531 0)
(0.01013 0.000506659 0)
(0.00748288 0.000503036 0)
(0.00492602 0.000422515 0)
(0.00271004 0.000337265 0)
(0.000840521 0.00026325 0)
(0.0311345 0.0594497 0)
(0.023856 0.0791593 0)
(0.049422 0.0215808 0)
(0.0334087 -0.0234182 0)
(0.00180139 0.0135273 0)
(0.00822356 0.0741244 0)
(-0.0880762 0.064981 0)
(0.07279 -0.105288 0)
(-0.0972137 -0.270973 0)
(0.0278199 -0.096294 0)
(0.0302355 0.0832894 0)
(0.0153468 0.0811974 0)
(0.0148812 0.0411993 0)
(0.00024308 0.00827949 0)
(-0.00442116 -0.00163213 0)
(-0.00473641 -0.00556208 0)
(-0.000643837 -0.00605025 0)
(0.00457173 -0.00564651 0)
(0.00996452 -0.00450893 0)
(0.0142546 -0.00304002 0)
(0.0167461 -0.0016203 0)
(0.0173565 -0.000479987 0)
(0.0165547 0.000194444 0)
(0.0149061 0.00055413 0)
(0.0126858 0.000727009 0)
(0.0101658 0.000763475 0)
(0.00749793 0.000742062 0)
(0.0049284 0.000616068 0)
(0.00270803 0.000487913 0)
(0.000838912 0.000379747 0)
(-0.00798163 0.0599104 0)
(0.0204301 0.0777375 0)
(0.024273 0.0185287 0)
(-0.0242192 0.0283723 0)
(-0.064465 0.0638162 0)
(-0.0289605 0.125368 0)
(-0.080272 0.0561398 0)
(0.0291507 -0.101885 0)
(-0.130344 -0.238567 0)
(-0.0559869 -0.118041 0)
(-0.0300354 0.079682 0)
(-0.0204866 0.0774805 0)
(0.00289277 0.0457393 0)
(-0.00530008 0.0121079 0)
(-0.00561867 -0.000618396 0)
(-0.00499266 -0.00612671 0)
(-0.000462122 -0.00721819 0)
(0.00487956 -0.00686744 0)
(0.0103358 -0.00550568 0)
(0.014604 -0.0036651 0)
(0.0170189 -0.00187243 0)
(0.0175306 -0.000449818 0)
(0.0166456 0.000371083 0)
(0.0149498 0.000796541 0)
(0.0127029 0.00099305 0)
(0.0101688 0.00102161 0)
(0.00749183 0.000982 0)
(0.00491727 0.000809793 0)
(0.00269848 0.000638479 0)
(0.000834765 0.000495731 0)
(-0.0383936 0.0543254 0)
(-0.0574179 0.0353552 0)
(-0.0666635 0.0418244 0)
(-0.108318 0.0518626 0)
(-0.138413 0.0670226 0)
(-0.0769454 0.102179 0)
(-0.0454384 0.0332172 0)
(-0.0875154 -0.0907902 0)
(-0.157938 -0.237081 0)
(-0.157459 -0.115767 0)
(-0.0738966 0.0710825 0)
(-0.0597104 0.060019 0)
(-0.015077 0.0377774 0)
(-0.0147827 0.00993106 0)
(-0.00862532 -0.00153657 0)
(-0.0059535 -0.00718187 0)
(-0.000541958 -0.00853827 0)
(0.00510322 -0.00813742 0)
(0.0107003 -0.00651701 0)
(0.0149753 -0.00428519 0)
(0.0173143 -0.00211206 0)
(0.0177162 -0.0004061 0)
(0.0167377 0.000556578 0)
(0.0149909 0.00104313 0)
(0.0127162 0.00126106 0)
(0.0101679 0.00128062 0)
(0.00748145 0.00122262 0)
(0.00490179 0.00100342 0)
(0.00268576 0.00078874 0)
(0.000829339 0.000611093 0)
(0.00530775 0.128632 0)
(-0.0195299 0.0937112 0)
(-0.105726 0.102537 0)
(-0.185563 0.111508 0)
(-0.121972 0.0169895 0)
(-0.133722 0.015821 0)
(-0.0204098 0.0430283 0)
(-0.118739 -0.0259734 0)
(-0.144995 -0.221937 0)
(-0.205273 -0.112422 0)
(-0.0767012 0.0486313 0)
(-0.0874883 0.0429896 0)
(-0.026018 0.0330079 0)
(-0.0212943 0.00939259 0)
(-0.0110181 -0.0024855 0)
(-0.00684772 -0.00841879 0)
(-0.00063625 -0.00998757 0)
(0.00535795 -0.00946181 0)
(0.0111244 -0.00754758 0)
(0.0154129 -0.00489927 0)
(0.0176615 -0.00233534 0)
(0.0179313 -0.00034449 0)
(0.0168419 0.00075279 0)
(0.0150362 0.00129464 0)
(0.0127299 0.00153139 0)
(0.0101655 0.00154069 0)
(0.00746812 0.00146408 0)
(0.00488261 0.00119693 0)
(0.00267017 0.000938636 0)
(0.000822718 0.000725722 0)
(-0.158996 0.172491 0)
(-0.104569 0.14592 0)
(-0.261225 0.12101 0)
(-0.187152 0.0390842 0)
(-0.160144 0.00382067 0)
(-0.176679 0.035006 0)
(-0.0990207 0.036641 0)
(-0.135442 -0.0619765 0)
(-0.14424 -0.177215 0)
(-0.172251 -0.152863 0)
(-0.0744416 0.0160003 0)
(-0.107746 0.0266672 0)
(-0.0364029 0.0189486 0)
(-0.0288815 0.00363556 0)
(-0.0140799 -0.00540693 0)
(-0.00793778 -0.0102738 0)
(-0.000761463 -0.0116137 0)
(0.00565866 -0.0108609 0)
(0.0116215 -0.00860102 0)
(0.0159249 -0.00550769 0)
(0.0180645 -0.0025391 0)
(0.0181774 -0.00026375 0)
(0.0169583 0.000961624 0)
(0.0150857 0.00155183 0)
(0.0127438 0.00180441 0)
(0.0101615 0.00180197 0)
(0.00745189 0.00170656 0)
(0.00485973 0.0013903 0)
(0.00265172 0.0010881 0)
(0.000814892 0.000839475 0)
(0.0237348 0.285167 0)
(-0.181079 0.218137 0)
(-0.221414 0.195618 0)
(-0.0127571 -0.00592499 0)
(-0.204022 -0.0170742 0)
(-0.171362 -0.0152492 0)
(-0.106556 0.0414418 0)