/*--------------------------------*- C++ -*----------------------------------*\
| =========                 |                                                 |
| \\      /  F ield         | OpenFOAM: The Open Source CFD Toolbox           |
|  \\    /   O peration     | Version:  2.4.0                                 |
|   \\  /    A nd           | Web:      www.OpenFOAM.org                      |
|    \\/     M anipulation  |                                                 |
\*---------------------------------------------------------------------------*/
FoamFile
{
    version     2.0;
    format      ascii;
    class       volVectorField;
    location    "0.182";
    object      U;
}
// * * * * * * * * * * * * * * * * * * * * * * * * * * * * * * * * * * * * * //

dimensions      [0 1 -1 0 0 0 0];

internalField   nonuniform List<vector> 
10000
(
(-1.02276e-06 1.01508e-06 0)
(-6.61547e-07 1.13824e-07 0)
(3.54078e-06 -7.35496e-07 0)
(1.05427e-05 -1.31842e-06 0)
(1.95347e-05 -1.69485e-06 0)
(2.99913e-05 -1.95157e-06 0)
(4.16752e-05 -2.16083e-06 0)
(5.45449e-05 -2.36923e-06 0)
(6.86776e-05 -2.60182e-06 0)
(8.42158e-05 -2.86933e-06 0)
(0.00010133 -3.17338e-06 0)
(0.000120187 -3.50915e-06 0)
(0.000140921 -3.86694e-06 0)
(0.00016361 -4.23361e-06 0)
(0.000188252 -4.59383e-06 0)
(0.000214755 -4.93074e-06 0)
(0.000242939 -5.22651e-06 0)
(0.000272534 -5.46328e-06 0)
(0.000303192 -5.62493e-06 0)
(0.000334504 -5.69958e-06 0)
(0.000366023 -5.68204e-06 0)
(0.00039729 -5.5754e-06 0)
(0.000427873 -5.39128e-06 0)
(0.000457405 -5.14879e-06 0)
(0.00048561 -4.87253e-06 0)
(0.00051233 -4.58919e-06 0)
(0.000537517 -4.32219e-06 0)
(0.000561203 -4.08356e-06 0)
(0.000583429 -3.86372e-06 0)
(0.000604131 -3.62411e-06 0)
(0.000623031 -3.29976e-06 0)
(0.000639588 -2.82793e-06 0)
(0.000653086 -2.18295e-06 0)
(0.000662811 -1.38769e-06 0)
(0.000668201 -4.91146e-07 0)
(0.000668907 4.54614e-07 0)
(0.000664758 1.41027e-06 0)
(0.000655708 2.35974e-06 0)
(0.000641777 3.29861e-06 0)
(0.000622995 4.22935e-06 0)
(0.000599387 5.15617e-06 0)
(0.000570976 6.0789e-06 0)
(0.000537802 6.99079e-06 0)
(0.000499956 7.87934e-06 0)
(0.000457609 8.72868e-06 0)
(0.000411024 9.52131e-06 0)
(0.000360566 1.02381e-05 0)
(0.000306696 1.08583e-05 0)
(0.000249966 1.13609e-05 0)
(0.00019101 1.17278e-05 0)
(-2.53031e-08 5.72239e-07 0)
(6.25873e-06 -6.00473e-06 0)
(2.02736e-05 -1.19566e-05 0)
(4.02558e-05 -1.6448e-05 0)
(6.47969e-05 -1.978e-05 0)
(9.30226e-05 -2.24346e-05 0)
(0.000124576 -2.48448e-05 0)
(0.000159476 -2.73097e-05 0)
(0.000197981 -3.00013e-05 0)
(0.000240475 -3.29988e-05 0)
(0.000287392 -3.63146e-05 0)
(0.000339142 -3.99088e-05 0)
(0.000396046 -4.36964e-05 0)
(0.000458282 -4.75537e-05 0)
(0.000525831 -5.1327e-05 0)
(0.000598452 -5.48425e-05 0)
(0.000675664 -5.79196e-05 0)
(0.000756756 -6.03869e-05 0)
(0.000840807 -6.20998e-05 0)
(0.00092673 -6.29582e-05 0)
(0.00101334 -6.29203e-05 0)
(0.00109941 -6.20103e-05 0)
(0.00118381 -6.0319e-05 0)
(0.00126552 -5.79964e-05 0)
(0.00134376 -5.52359e-05 0)
(0.001418 -5.22477e-05 0)
(0.00148796 -4.92123e-05 0)
(0.00155356 -4.62163e-05 0)
(0.00161473 -4.31777e-05 0)
(0.00167121 -3.98019e-05 0)
(0.00172221 -3.56229e-05 0)
(0.00176634 -3.02044e-05 0)
(0.0018018 -2.33735e-05 0)
(0.0018268 -1.52949e-05 0)
(0.00183992 -6.32963e-06 0)
(0.00184026 3.13978e-06 0)
(0.00182733 1.28177e-05 0)
(0.00180096 2.2539e-05 0)
(0.00176111 3.22361e-05 0)
(0.00170779 4.1897e-05 0)
(0.00164104 5.15169e-05 0)
(0.00156093 6.10627e-05 0)
(0.00146762 7.04565e-05 0)
(0.00136144 7.95747e-05 0)
(0.0012429 8.82577e-05 0)
(0.00111282 9.6322e-05 0)
(0.000972238 0.000103573 0)
(0.000822475 0.000109816 0)
(0.000665093 0.00011487 0)
(0.000501874 0.000118583 0)
(9.2522e-07 -3.92197e-06 0)
(1.26529e-05 -2.01712e-05 0)
(3.4657e-05 -3.38515e-05 0)
(6.44785e-05 -4.44572e-05 0)
(0.000100404 -5.27723e-05 0)
(0.000141555 -5.98185e-05 0)
(0.000187692 -6.65081e-05 0)
(0.000239026 -7.34806e-05 0)
(0.000296049 -8.11091e-05 0)
(0.000359407 -8.95636e-05 0)
(0.000429786 -9.88605e-05 0)
(0.000507818 -0.000108888 0)
(0.000593994 -0.000119419 0)
(0.000688582 -0.000130122 0)
(0.000791556 -0.000140586 0)
(0.00090255 -0.000150339 0)
(0.00102083 -0.000158897 0)
(0.00114529 -0.000165798 0)
(0.00127451 -0.000170656 0)
(0.0014068 -0.000173203 0)
(0.00154029 -0.00017332 0)
(0.00167307 -0.000171054 0)
(0.00180331 -0.000166622 0)
(0.0019294 -0.000160389 0)
(0.00205001 -0.000152832 0)
(0.00216419 -0.000144475 0)
(0.00227141 -0.000135776 0)
(0.00237144 -0.000126972 0)
(0.00246415 -0.000117881 0)
(0.00254917 -0.000107784 0)
(0.00262534 -9.55076e-05 0)
(0.00269047 -7.9944e-05 0)
(0.00274164 -6.06666e-05 0)
(0.00277601 -3.8123e-05 0)
(0.00279141 -1.32451e-05 0)
(0.00278648 1.30039e-05 0)
(0.00276052 3.9891e-05 0)
(0.00271324 6.69848e-05 0)
(0.00264453 9.40938e-05 0)
(0.00255437 0.000121151 0)
(0.00244275 0.000148098 0)
(0.00230977 0.000174801 0)
(0.00215571 0.000201016 0)
(0.00198112 0.000226377 0)
(0.00178691 0.000250426 0)
(0.00157442 0.000272642 0)
(0.00134543 0.000292481 0)
(0.00110214 0.000309412 0)
(0.000847136 0.00032296 0)
(0.000583359 0.000332726 0)
(1.5868e-06 -1.14611e-05 0)
(1.74083e-05 -4.05625e-05 0)
(4.54314e-05 -6.37778e-05 0)
(8.24332e-05 -8.1849e-05 0)
(0.000126425 -9.64253e-05 0)
(0.000176625 -0.000109248 0)
(0.000233026 -0.000121808 0)
(0.000296119 -0.000135133 0)
(0.000366697 -0.000149819 0)
(0.000445702 -0.000166123 0)
(0.000534098 -0.000184046 0)
(0.000632762 -0.000203358 0)
(0.00074237 -0.000223625 0)
(0.000863301 -0.00024422 0)
(0.000995547 -0.000264359 0)
(0.00113865 -0.000283156 0)
(0.00129164 -0.000299688 0)
(0.00145308 -0.00031308 0)
(0.00162106 -0.000322591 0)
(0.0017933 -0.000327699 0)
(0.00196728 -0.000328158 0)
(0.00214041 -0.000324029 0)
(0.00231017 -0.000315683 0)
(0.0024743 -0.000303768 0)
(0.00263091 -0.000289148 0)
(0.00277862 -0.0002728 0)
(0.00291662 -0.000255625 0)
(0.00304464 -0.000238152 0)
(0.00316274 -0.000220154 0)
(0.00327074 -0.000200341 0)
(0.00336734 -0.000176401 0)
(0.00344947 -0.000146085 0)
(0.00351277 -0.000108554 0)
(0.0035531 -6.47858e-05 0)
(0.00356752 -1.66554e-05 0)
(0.0035544 3.40015e-05 0)
(0.00351296 8.58526e-05 0)
(0.00344289 0.000138142 0)
(0.00334408 0.000190544 0)
(0.0032164 0.000242935 0)
(0.00305977 0.000295175 0)
(0.00287424 0.000346962 0)
(0.00266013 0.000397768 0)
(0.00241816 0.000446839 0)
(0.00214963 0.000493244 0)
(0.00185642 0.000535942 0)
(0.00154103 0.000573862 0)
(0.00120657 0.000605982 0)
(0.000856693 0.000631394 0)
(0.000495527 0.000649346 0)
(2.00199e-06 -2.11275e-05 0)
(2.04928e-05 -6.53096e-05 0)
(5.24309e-05 -9.9177e-05 0)
(9.39873e-05 -0.000125424 0)
(0.000142962 -0.000146964 0)
(0.000198706 -0.000166454 0)
(0.000261495 -0.000186053 0)
(0.000332154 -0.000207216 0)
(0.000411826 -0.000230767 0)
(0.000501799 -0.00025704 0)
(0.000603357 -0.000285985 0)
(0.000717657 -0.000317213 0)
(0.000845602 -0.000350012 0)
(0.000987722 -0.000383373 0)
(0.00114406 -0.000416039 0)
(0.0013141 -0.000446583 0)
(0.00149667 -0.000473516 0)
(0.00169 -0.000495419 0)
(0.00189169 -0.00051108 0)
(0.00209889 -0.000519627 0)
(0.00230839 -0.000520629 0)
(0.00251689 -0.000514145 0)
(0.00272115 -0.000500717 0)
(0.00291824 -0.00048133 0)
(0.00310564 -0.000457337 0)
(0.00328149 -0.000430334 0)
(0.00344472 -0.000401905 0)
(0.00359519 -0.00037316 0)
(0.00373348 -0.000344028 0)
(0.00386026 -0.000312525 0)
(0.00397453 -0.000274482 0)
(0.0040721 -0.000225634 0)
(0.00414649 -0.000164444 0)
(0.00419172 -9.29331e-05 0)
(0.00420412 -1.45641e-05 0)
(0.00418202 6.7568e-05 0)
(0.00412487 0.000151399 0)
(0.00403254 0.000235873 0)
(0.00390489 0.000320609 0)
(0.0037417 0.000405487 0)
(0.00354269 0.000490289 0)
(0.00330771 0.000574481 0)
(0.00303701 0.000657127 0)
(0.00273142 0.000736913 0)
(0.00239251 0.000812239 0)
(0.00202268 0.000881342 0)
(0.00162516 0.000942438 0)
(0.00120398 0.000993847 0)
(0.000763875 0.00103409 0)
(0.000310178 0.00106196 0)
(2.22572e-06 -3.20119e-05 0)
(2.20696e-05 -9.25617e-05 0)
(5.58424e-05 -0.000137629 0)
(9.93495e-05 -0.000172313 0)
(0.000150307 -0.000201114 0)
(0.000208251 -0.0002278 0)
(0.000273775 -0.00025529 0)
(0.000348084 -0.000285508 0)
(0.000432719 -0.00031951 0)
(0.000529363 -0.000357696 0)
(0.000639675 -0.000399937 0)
(0.000765147 -0.00044563 0)
(0.000906962 -0.000493722 0)
(0.00106585 -0.000542732 0)
(0.00124196 -0.00059082 0)
(0.00143474 -0.000635889 0)
(0.00164286 -0.000675742 0)
(0.00186419 -0.000708266 0)
(0.00209586 -0.000731646 0)
(0.00233437 -0.000744554 0)
(0.0025758 -0.00074631 0)
(0.00281607 -0.000736949 0)
(0.0030512 -0.000717196 0)
(0.0032775 -0.000688417 0)
(0.00349178 -0.000652548 0)
(0.00369158 -0.000611995 0)
(0.00387549 -0.000569376 0)
(0.00404358 -0.000526901 0)
(0.0041975 -0.000485149 0)
(0.00433982 -0.000441482 0)
(0.00447072 -0.000388582 0)
(0.00458458 -0.000318457 0)
(0.00467132 -0.000228348 0)
(0.00472221 -0.000122442 0)
(0.00473302 -6.95503e-06 0)
(0.00470265 0.000113248 0)
(0.00463121 0.00023533 0)
(0.00451895 0.000358108 0)
(0.00436578 0.000481362 0)
(0.00417125 0.000605126 0)
(0.00393467 0.000729156 0)
(0.00365553 0.000852626 0)
(0.00333381 0.00097405 0)
(0.0029703 0.00109135 0)
(0.00256675 0.00120202 0)
(0.00212603 0.00130334 0)
(0.00165207 0.00139262 0)
(0.00114984 0.00146731 0)
(0.000625181 0.00152523 0)
(8.4655e-05 0.00156459 0)
(2.29697e-06 -4.3367e-05 0)
(2.23195e-05 -0.000120626 0)
(5.59485e-05 -0.000176836 0)
(9.88694e-05 -0.000219776 0)
(0.000148875 -0.000255782 0)
(0.000205765 -0.000289889 0)
(0.000270505 -0.000325867 0)
(0.000344729 -0.000366147 0)
(0.000430429 -0.000412033 0)
(0.000529741 -0.000463977 0)
(0.000644759 -0.000521742 0)
(0.000777376 -0.00058447 0)
(0.000929123 -0.000650692 0)
(0.001101 -0.000718366 0)
(0.0012933 -0.000784949 0)
(0.00150551 -0.000847531 0)
(0.00173613 -0.00090304 0)
(0.00198271 -0.000948498 0)
(0.00224183 -0.000981323 0)
(0.00250928 -0.000999613 0)
(0.00278035 -0.00100237 0)
(0.00305015 -0.000989603 0)
(0.00331391 -0.000962222 0)
(0.00356718 -0.000921993 0)
(0.00380595 -0.000871479 0)
(0.00402696 -0.000814071 0)
(0.0042282 -0.000753859 0)
(0.0044098 -0.000695012 0)
(0.00457494 -0.000639861 0)
(0.00472992 -0.00058569 0)
(0.00487806 -0.000519756 0)
(0.00501162 -0.000426921 0)
(0.00511418 -0.000302225 0)
(0.00517261 -0.000154535 0)
(0.00518286 5.07223e-06 0)
(0.00514559 0.000169409 0)
(0.00506222 0.000335095 0)
(0.00493361 0.000501253 0)
(0.00475968 0.00066824 0)
(0.00453949 0.000836516 0)
(0.00427169 0.0010059 0)
(0.00395508 0.00117522 0)
(0.00358915 0.00134224 0)
(0.00317441 0.00150387 0)
(0.00271271 0.00165642 0)
(0.00220731 0.00179594 0)
(0.00166285 0.00191854 0)
(0.00108527 0.00202064 0)
(0.000481538 0.00209917 0)
(-0.000140477 0.00215167 0)
(2.23822e-06 -5.45495e-05 0)
(2.13641e-05 -0.000147932 0)
(5.2957e-05 -0.000214574 0)
(9.28138e-05 -0.00026512 0)
(0.000138975 -0.000307914 0)
(0.000191602 -0.000349384 0)
(0.000252105 -0.000394224 0)
(0.000322608 -0.00044541 0)
(0.000405618 -0.000504506 0)
(0.000503783 -0.000572009 0)
(0.000619705 -0.000647552 0)
(0.000755751 -0.000729974 0)
(0.000913875 -0.00081733 0)
(0.00109542 -0.00090692 0)
(0.00130092 -0.000995365 0)
(0.00152992 -0.00107878 0)
(0.00178082 -0.00115301 0)
(0.00205077 -0.00121402 0)
(0.00233579 -0.00125826 0)
(0.00263086 -0.00128311 0)
(0.00293038 -0.00128722 0)
(0.00322863 -0.00127057 0)
(0.00352007 -0.0012343 0)
(0.00379954 -0.00118054 0)
(0.00406215 -0.00111241 0)
(0.00430352 -0.00103428 0)
(0.00452035 -0.000952143 0)
(0.00471216 -0.000873382 0)
(0.00488365 -0.000804306 0)
(0.00504788 -0.000744323 0)
(0.00521527 -0.000671259 0)
(0.00537511 -0.000555972 0)
(0.00549911 -0.00038941 0)
(0.00556702 -0.000190778 0)
(0.00557716 2.0255e-05 0)
(0.00553419 0.000233978 0)
(0.00544169 0.000447326 0)
(0.0053012 0.000660602 0)
(0.00511237 0.000875412 0)
(0.0048734 0.00109303 0)
(0.00458182 0.00131346 0)
(0.00423536 0.00153506 0)
(0.00383265 0.00175463 0)
(0.00337375 0.00196771 0)
(0.00286042 0.00216906 0)
(0.00229629 0.00235317 0)
(0.00168674 0.00251464 0)
(0.00103869 0.00264861 0)
(0.000360387 0.00275098 0)
(-0.00033895 0.00281849 0)
(2.06032e-06 -6.49717e-05 0)
(1.92703e-05 -0.000172986 0)
(4.69937e-05 -0.000248676 0)
(8.13559e-05 -0.000305681 0)
(0.000120813 -0.000354477 0)
(0.000166001 -0.000402975 0)
(0.000218857 -0.000456849 0)
(0.000282064 -0.000519649 0)
(0.000358709 -0.000593208 0)
(0.000452027 -0.000678067 0)
(0.000565195 -0.000773711 0)
(0.000701137 -0.000878642 0)
(0.000862318 -0.000990373 0)
(0.00105052 -0.00110545 0)
(0.00126659 -0.00121951 0)
(0.00151021 -0.0013275 0)
(0.00177968 -0.00142396 0)
(0.00207178 -0.00150352 0)
(0.00238183 -0.00156145 0)
(0.00270389 -0.00159424 0)
(0.00303137 -0.00160017 0)
(0.00335772 -0.00157936 0)
(0.00367686 -0.00153323 0)
(0.00398313 -0.00146419 0)
(0.00427091 -0.00137558 0)
(0.00453436 -0.00127241 0)
(0.00476783 -0.00116252 0)
(0.00496826 -0.00105806 0)
(0.00514033 -0.000973323 0)
(0.00530835 -0.000916536 0)
(0.00549795 -0.000848908 0)
(0.00569469 -0.000713681 0)
(0.00584767 -0.000493842 0)
(0.00592516 -0.000231686 0)
(0.00593348 3.82352e-05 0)
(0.00588524 0.000305026 0)
(0.00578667 0.00056816 0)
(0.00563959 0.000830552 0)
(0.00544283 0.00109598 0)
(0.00519308 0.00136699 0)
(0.00488615 0.00164386 0)
(0.00451819 0.00192432 0)
(0.00408656 0.00220382 0)
(0.00359058 0.00247611 0)
(0.00303182 0.00273392 0)
(0.00241425 0.00296971 0)
(0.00174401 0.00317627 0)
(0.0010292 0.00334716 0)
(0.000279388 0.00347704 0)
(-0.000494663 0.00356179 0)
(1.76835e-06 -7.40716e-05 0)
(1.60818e-05 -0.000194345 0)
(3.81592e-05 -0.000277024 0)
(6.4658e-05 -0.000338836 0)
(9.46124e-05 -0.000392475 0)
(0.000129244 -0.00044739 0)
(0.0001711 -0.000510274 0)
(0.000223501 -0.000585269 0)
(0.000290178 -0.000674486 0)
(0.00037502 -0.000778514 0)
(0.000481858 -0.000896679 0)
(0.000614256 -0.00102712 0)
(0.000775291 -0.00116675 0)
(0.000967282 -0.00131125 0)
(0.0011915 -0.00145514 0)
(0.00144782 -0.00159195 0)
(0.00173448 -0.00171464 0)
(0.0020478 -0.00181619 0)
(0.00238233 -0.00189039 0)
(0.00273104 -0.00193268 0)
(0.00308611 -0.00194105 0)
(0.00344033 -0.0019161 0)
(0.00378754 -0.00185981 0)
(0.00412229 -0.00177477 0)
(0.00443877 -0.00166386 0)
(0.00472971 -0.00153155 0)
(0.00498575 -0.00138635 0)
(0.00519757 -0.00124602 0)
(0.00536428 -0.00113866 0)
(0.00552662 -0.0011002 0)
(0.00574095 -0.00106187 0)
(0.00598998 -0.000912301 0)
(0.00618025 -0.000618351 0)
(0.00626213 -0.000274211 0)
(0.00626298 6.07632e-05 0)
(0.00620911 0.000380967 0)
(0.0061083 0.000693107 0)
(0.00596112 0.00100444 0)
(0.0057647 0.00132187 0)
(0.00551342 0.00164964 0)
(0.00520063 0.0019883 0)
(0.00482023 0.00233465 0)
(0.00436788 0.00268228 0)
(0.00384185 0.00302255 0)
(0.00324338 0.00334556 0)
(0.00257678 0.00364121 0)
(0.00184911 0.0039 0)
(0.00106978 0.00411363 0)
(0.000249955 0.00427532 0)
(-0.000597921 0.00437998 0)
(1.36619e-06 -8.13056e-05 0)
(1.18447e-05 -0.000210614 0)
(2.6578e-05 -0.000297571 0)
(4.29437e-05 -0.000362044 0)
(6.07052e-05 -0.00041899 0)
(8.17738e-05 -0.000479437 0)
(0.000109389 -0.000551108 0)
(0.000147571 -0.000638746 0)
(0.000200762 -0.000744755 0)
(0.000273568 -0.000869773 0)
(0.000370547 -0.00101297 0)
(0.000495998 -0.00117211 0)
(0.000653714 -0.00134345 0)
(0.000846672 -0.00152173 0)
(0.00107666 -0.00170014 0)
(0.00134385 -0.00187056 0)
(0.00164637 -0.00202399 0)
(0.00198005 -0.00215137 0)
(0.00233845 -0.00224467 0)
(0.00271316 -0.00229803 0)
(0.00309485 -0.00230942 0)
(0.00347587 -0.00228081 0)
(0.00385089 -0.00221526 0)
(0.00421601 -0.00211564 0)
(0.00456669 -0.00198332 0)
(0.00489523 -0.00182018 0)
(0.00518811 -0.00163157 0)
(0.00542435 -0.00143853 0)
(0.00558464 -0.00128754 0)
(0.00572684 -0.00128812 0)
(0.00596359 -0.00132415 0)
(0.00628325 -0.00117021 0)
(0.00651571 -0.000760024 0)
(0.00658578 -0.000306919 0)
(0.00656874 9.22629e-05 0)
(0.00651012 0.000459603 0)
(0.0064132 0.00081626 0)
(0.00627431 0.00117407 0)
(0.00608813 0.00154357 0)
(0.00584597 0.00193098 0)
(0.00553793 0.00233703 0)
(0.00515497 0.0027571 0)
(0.00469047 0.00318231 0)
(0.0041413 0.00360079 0)
(0.00350827 0.00399926 0)
(0.0027961 0.00436434 0)
(0.00201298 0.00468374 0)
(0.00116988 0.00494691 0)
(0.000279825 0.00514545 0)
(-0.000642751 0.00527322 0)
(8.5929e-07 -8.61538e-05 0)
(6.62157e-06 -0.000220467 0)
(1.24234e-05 -0.000308375 0)
(1.65344e-05 -0.000372888 0)
(1.95823e-05 -0.000431246 0)
(2.42576e-05 -0.000496058 0)
(3.45575e-05 -0.000576081 0)
(5.52584e-05 -0.000676665 0)
(9.1562e-05 -0.000800511 0)
(0.00014885 -0.000948325 0)
(0.000232484 -0.00111914 0)
(0.000347592 -0.00131033 0)
(0.000498798 -0.00151749 0)
(0.00068987 -0.00173429 0)
(0.000923238 -0.00195241 0)
(0.00119941 -0.00216174 0)
(0.0015164 -0.00235087 0)
(0.0018693 -0.00250819 0)
(0.0022505 -0.00262346 0)
(0.00264969 -0.00268907 0)
(0.00305538 -0.00270358 0)
(0.00345988 -0.00267212 0)
(0.0038602 -0.00259996 0)
(0.00425613 -0.00249082 0)
(0.00464703 -0.00234332 0)
(0.0050274 -0.00215436 0)
(0.00538304 -0.0019197 0)
(0.00567722 -0.00165111 0)
(0.00585443 -0.0014123 0)
(0.00596214 -0.00145396 0)
(0.00619997 -0.00165115 0)
(0.0065987 -0.00151095 0)
(0.00686069 -0.00089823 0)
(0.00688545 -0.000306023 0)
(0.00684229 0.000135034 0)
(0.00678838 0.000534328 0)
(0.00670643 0.000928873 0)
(0.0065862 0.00132925 0)
(0.00642153 0.00174993 0)
(0.00620043 0.00219967 0)
(0.00590892 0.00267924 0)
(0.00553412 0.00318213 0)
(0.00506646 0.00369606 0)
(0.00450097 0.00420496 0)
(0.00383791 0.00469108 0)
(0.00308258 0.00513695 0)
(0.00224458 0.0055268 0)
(0.00133684 0.00584747 0)
(0.000374642 0.00608874 0)
(-0.000625275 0.00624338 0)
(2.57281e-07 -8.81316e-05 0)
(4.97515e-07 -0.00022268 0)
(-4.07184e-06 -0.000307647 0)
(-1.41339e-05 -0.000369142 0)
(-2.80855e-05 -0.000426669 0)
(-4.23891e-05 -0.0004944 0)
(-5.22444e-05 -0.000582115 0)
(-5.20835e-05 -0.000695766 0)
(-3.59081e-05 -0.000838365 0)
(2.48865e-06 -0.00101072 0)
(6.93401e-05 -0.00121175 0)
(0.000170702 -0.00143848 0)
(0.000312168 -0.00168582 0)
(0.000498451 -0.00194628 0)
(0.000732767 -0.0022098 0)
(0.00101602 -0.00246382 0)
(0.00134593 -0.0026939 0)
(0.00171647 -0.00288525 0)
(0.00211854 -0.00302499 0)
(0.00253921 -0.00310291 0)
(0.0029633 -0.00311912 0)
(0.00338384 -0.0030855 0)
(0.00380241 -0.0030113 0)
(0.00422547 -0.00290283 0)
(0.00465999 -0.00275452 0)
(0.00510553 -0.00255705 0)
(0.00555771 -0.00229395 0)
(0.00597299 -0.00193511 0)
(0.00625853 -0.00155491 0)
(0.00635657 -0.00153807 0)
(0.00651612 -0.00201377 0)
(0.00692071 -0.00193586 0)
(0.00715194 -0.000970896 0)
(0.00710541 -0.000255772 0)
(0.00706836 0.000170816 0)
(0.00704904 0.000587798 0)
(0.00699731 0.001019 0)
(0.00690552 0.00145856 0)
(0.00677345 0.00192883 0)
(0.00658587 0.00244332 0)
(0.00632361 0.00300321 0)
(0.00596861 0.00359953 0)
(0.00550724 0.00421553 0)
(0.00493211 0.00482951 0)
(0.00424286 0.00541794 0)
(0.00344559 0.0059581 0)
(0.00255178 0.00643002 0)
(0.00157686 0.00681747 0)
(0.00053883 0.00710824 0)
(-0.000542824 0.00729404 0)
(-4.28489e-07 -8.67938e-05 0)
(-6.41616e-06 -0.000216166 0)
(-2.26064e-05 -0.000293805 0)
(-4.84993e-05 -0.000348832 0)
(-8.14331e-05 -0.000402959 0)
(-0.000116984 -0.000471885 0)
(-0.00014953 -0.000566385 0)
(-0.000172698 -0.000693007 0)
(-0.000179678 -0.000855094 0)
(-0.000163406 -0.00105359 0)
(-0.000116716 -0.00128739 0)
(-3.25126e-05 -0.00155322 0)
(9.59295e-05 -0.00184534 0)
(0.000274476 -0.00215502 0)
(0.000507332 -0.00247014 0)
(0.000795851 -0.00277506 0)
(0.00113718 -0.00305139 0)
(0.00152334 -0.00328033 0)
(0.00194341 -0.00344625 0)
(0.00238056 -0.00353407 0)
(0.00281271 -0.003547 0)
(0.00323541 -0.00351092 0)
(0.0036585 -0.00344066 0)
(0.00409825 -0.00334887 0)
(0.00457341 -0.0032232 0)
(0.00508601 -0.00304602 0)
(0.0056476 -0.00280345 0)
(0.00624551 -0.00238985 0)
(0.00676873 -0.00183422 0)
(0.00707196 -0.00161553 0)
(0.00706228 -0.00211529 0)
(0.00711947 -0.00231436 0)
(0.00720632 -0.000932977 0)
(0.00720409 -0.000275783 0)
(0.0072931 0.000148895 0)
(0.00732766 0.000599264 0)
(0.00730588 0.00107948 0)
(0.00724394 0.00155336 0)
(0.00715292 0.00206907 0)
(0.00701111 0.00264932 0)
(0.00679167 0.00329642 0)
(0.00646913 0.00399841 0)
(0.00602405 0.00473253 0)
(0.00544582 0.00546942 0)
(0.00473333 0.00617781 0)
(0.00389399 0.00682833 0)
(0.00294179 0.00739591 0)
(0.00189536 0.00786081 0)
(0.000776025 0.00820878 0)
(-0.000393473 0.00843054 0)
(-1.19651e-06 -8.17669e-05 0)
(-1.39943e-05 -0.000200003 0)
(-4.28029e-05 -0.000265521 0)
(-8.58577e-05 -0.000310296 0)
(-0.000139381 -0.000358162 0)
(-0.000198053 -0.000426283 0)
(-0.00025544 -0.000526387 0)
(-0.000304387 -0.000665612 0)
(-0.000337279 -0.000847662 0)
(-0.00034619 -0.0010737 0)
(-0.000322965 -0.00134268 0)
(-0.000259365 -0.00165119 0)
(-0.00014733 -0.00199291 0)
(2.04668e-05 -0.00235784 0)
(0.000249585 -0.00273142 0)
(0.000542017 -0.00309395 0)
(0.00089391 -0.0034216 0)
(0.00129374 -0.00369015 0)
(0.00172818 -0.00388275 0)
(0.0021746 -0.00397372 0)
(0.00259678 -0.00397181 0)
(0.00299904 -0.00393156 0)
(0.00340641 -0.00387105 0)
(0.00384555 -0.00381707 0)
(0.00435196 -0.0037459 0)
(0.00492076 -0.00361826 0)
(0.00556042 -0.00345389 0)
(0.00631914 -0.00309966 0)
(0.00716734 -0.00242735 0)
(0.00787794 -0.00197043 0)
(0.00810067 -0.002008 0)
(0.00777254 -0.00219889 0)
(0.00744045 -0.000728325 0)
(0.00746533 -0.000382279 0)
(0.00760347 6.32572e-05 0)
(0.00766085 0.000583529 0)
(0.00764445 0.00111961 0)
(0.00760802 0.0016106 0)
(0.00756556 0.00216123 0)
(0.00748272 0.00280456 0)
(0.00732193 0.00354501 0)
(0.00704644 0.00436688 0)
(0.00662847 0.00523867 0)
(0.00605333 0.0061202 0)
(0.00531946 0.00696985 0)
(0.00443629 0.00774978 0)
(0.0034213 0.0084288 0)
(0.00229713 0.00898331 0)
(0.00108924 0.00939702 0)
(-0.000175833 0.00965993 0)
(-2.02703e-06 -7.27601e-05 0)
(-2.20628e-05 -0.00017348 0)
(-6.41988e-05 -0.000221778 0)
(-0.00012535 -0.00025226 0)
(-0.000200611 -0.000290753 0)
(-0.000283793 -0.000355799 0)
(-0.0003677 -0.000460026 0)
(-0.000444446 -0.000611152 0)
(-0.00050567 -0.000813285 0)
(-0.000542606 -0.00106791 0)
(-0.000546103 -0.00137424 0)
(-0.000506669 -0.00172891 0)
(-0.000414669 -0.00212527 0)
(-0.000260866 -0.00255212 0)
(-3.76553e-05 -0.00299207 0)
(0.0002583 -0.00342002 0)
(0.000621933 -0.0038037 0)
(0.0010352 -0.00411027 0)
(0.00148066 -0.00432771 0)
(0.0019264 -0.00440834 0)
(0.00230595 -0.00436921 0)
(0.00265268 -0.00432573 0)
(0.00302322 -0.00427697 0)
(0.00344431 -0.00428591 0)
(0.00397136 -0.00430592 0)
(0.00457433 -0.00423384 0)
(0.00520682 -0.00414279 0)
(0.00590364 -0.00392396 0)
(0.00701193 -0.00354872 0)
(0.00795292 -0.00245289 0)
(0.00797572 -0.00175728 0)
(0.0073793 -0.00156896 0)
(0.0073806 -0.000989792 0)
(0.00789113 -0.00053858 0)
(0.00800107 -8.5252e-06 0)
(0.00800184 0.00058191 0)
(0.00797902 0.0011487 0)
(0.00798226 0.00162096 0)
(0.00800705 0.00219166 0)
(0.00800319 0.00289126 0)
(0.00792254 0.00373129 0)
(0.00771208 0.00469097 0)
(0.00733296 0.0057252 0)
(0.00676629 0.00677829 0)
(0.00601121 0.00779484 0)
(0.0050805 0.0087265 0)
(0.0039963 0.00953502 0)
(0.00278632 0.0101927 0)
(0.00148092 0.0106814 0)
(0.000111065 0.0109909 0)
(-2.89905e-06 -5.95655e-05 0)
(-3.04133e-05 -0.00013614 0)
(-8.62342e-05 -0.000161939 0)
(-0.000165945 -0.000173917 0)
(-0.000263543 -0.000199724 0)
(-0.000372036 -0.000259165 0)
(-0.00048356 -0.000365703 0)
(-0.000589602 -0.000527616 0)
(-0.000681154 -0.000749477 0)
(-0.00074871 -0.00103324 0)
(-0.000782171 -0.00137859 0)
(-0.000770757 -0.00178262 0)
(-0.000703036 -0.00223878 0)
(-0.000567286 -0.00273504 0)
(-0.000352687 -0.00325117 0)
(-5.25909e-05 -0.00375523 0)
(0.00032876 -0.00420163 0)
(0.000763925 -0.00453889 0)
(0.00122277 -0.00476966 0)
(0.00165106 -0.0048106 0)
(0.0019199 -0.00468745 0)
(0.00215085 -0.0046707 0)
(0.00247393 -0.00463649 0)
(0.00289001 -0.00475867 0)
(0.00346486 -0.00490986 0)
(0.00411996 -0.00487087 0)
(0.00480108 -0.00482162 0)
(0.00554608 -0.00469477 0)
(0.0062019 -0.00447634 0)
(0.00674691 -0.00289274 0)
(0.0073168 -0.00181558 0)
(0.00761254 -0.00124571 0)
(0.00774295 -0.00148135 0)
(0.00801415 -0.000792158 0)
(0.00817346 -5.27622e-05 0)
(0.0082041 0.000540119 0)
(0.00827674 0.00107837 0)
(0.00838052 0.00154772 0)
(0.0084888 0.00213455 0)
(0.0085853 0.00288397 0)
(0.00860908 0.00383321 0)
(0.00848227 0.00495539 0)
(0.00815208 0.00618419 0)
(0.00759671 0.00744197 0)
(0.00681796 0.00865573 0)
(0.00583364 0.00976474 0)
(0.00467178 0.0107229 0)
(0.00336612 0.0114986 0)
(0.00195277 0.012072 0)
(0.000467765 0.0124334 0)
(-3.78895e-06 -4.20896e-05 0)
(-3.87977e-05 -8.7824e-05 0)
(-0.000108248 -8.58115e-05 0)
(-0.000206428 -7.50118e-05 0)
(-0.000326312 -8.46821e-05 0)
(-0.000460221 -0.000135752 0)
(-0.000599753 -0.000242426 0)
(-0.000735929 -0.000413519 0)
(-0.000859274 -0.000654122 0)
(-0.000959725 -0.000966814 0)
(-0.00102642 -0.00135208 0)
(-0.0010474 -0.00180793 0)
(-0.00100944 -0.00232867 0)
(-0.000897935 -0.00290251 0)
(-0.000697577 -0.00350739 0)
(-0.000394992 -0.00410479 0)
(1.48435e-05 -0.00463214 0)
(0.000507085 -0.00499981 0)
(0.00102162 -0.00520628 0)
(0.00143738 -0.00513906 0)
(0.00145111 -0.00478726 0)
(0.00142717 -0.00493492 0)
(0.00172793 -0.00495799 0)
(0.00221229 -0.00529058 0)
(0.00284909 -0.0055525 0)
(0.00355234 -0.00556751 0)
(0.00428497 -0.00552095 0)
(0.00499154 -0.0054015 0)
(0.0056194 -0.00497359 0)
(0.00642422 -0.00365464 0)
(0.00744614 -0.00259446 0)
(0.00840075 -0.00176074 0)
(0.00898315 -0.00168145 0)
(0.00916545 -0.000989106 0)
(0.00922771 -9.46791e-05 0)
(0.00916579 0.000539555 0)
(0.00901566 0.00105854 0)
(0.00895505 0.00147005 0)
(0.00906803 0.00200727 0)
(0.0092613 0.0027718 0)
(0.00940686 0.00383428 0)
(0.00937725 0.00514901 0)
(0.00910067 0.00661174 0)
(0.0085548 0.0081131 0)
(0.00774663 0.00955836 0)
(0.00670045 0.010873 0)
(0.00545092 0.0120028 0)
(0.00403849 0.0129119 0)
(0.00250571 0.01358 0)
(0.000894357 0.0139982 0)
(-4.66725e-06 -2.0373e-05 0)
(-4.69276e-05 -2.8722e-05 0)
(-0.00012948 6.27476e-06 0)
(-0.000245401 4.40648e-05 0)
(-0.000386774 5.40331e-05 0)
(-0.00054538 1.43031e-05 0)
(-0.000712462 -8.99535e-05 0)
(-0.00087879 -0.000268041 0)
(-0.00103468 -0.000525591 0)
(-0.00116982 -0.000865949 0)
(-0.00127294 -0.00129069 0)
(-0.00133137 -0.00179926 0)
(-0.00133052 -0.00238777 0)
(-0.00125334 -0.00304621 0)
(-0.00108026 -0.00375321 0)
(-0.000790678 -0.00446704 0)
(-0.000364575 -0.00511269 0)
(0.000208223 -0.00555688 0)
(0.000913045 -0.00574813 0)
(0.00146268 -0.00537465 0)
(0.00090464 -0.00418706 0)
(0.000285875 -0.0050596 0)
(0.000810169 -0.00550845 0)
(0.00162457 -0.00600012 0)
(0.00237262 -0.00624902 0)
(0.00308984 -0.00631459 0)
(0.0038445 -0.00625973 0)
(0.00462421 -0.00613242 0)
(0.00542808 -0.00569322 0)
(0.00643749 -0.00474999 0)
(0.00770348 -0.00373712 0)
(0.0089636 -0.00279634 0)
(0.00983189 -0.00209144 0)
(0.0102039 -0.00113142 0)
(0.0102474 -6.93903e-05 0)
(0.0100347 0.000717259 0)
(0.00967907 0.00126891 0)
(0.00951235 0.00144904 0)
(0.00968315 0.00181638 0)
(0.0100149 0.00253406 0)
(0.0103209 0.00371405 0)
(0.0104064 0.00526285 0)
(0.0101849 0.00700812 0)
(0.00964329 0.00879706 0)
(0.00879831 0.0105108 0)
(0.00768161 0.012061 0)
(0.00633437 0.0133855 0)
(0.00480387 0.0144446 0)
(0.00313976 0.0152173 0)
(0.00139049 0.0156966 0)
(-5.49843e-06 5.38815e-06 0)
(-5.44749e-05 4.05719e-05 0)
(-0.000149077 0.000113397 0)
(-0.000281318 0.000182182 0)
(-0.000442544 0.00021524 0)
(-0.000624182 0.000189954 0)
(-0.00081734 9.10251e-05 0)
(-0.0010128 -9.12353e-05 0)
(-0.00120101 -0.000362975 0)
(-0.00137182 -0.000728353 0)
(-0.00151412 -0.0011902 0)
(-0.00161527 -0.00174979 0)
(-0.00166033 -0.00240572 0)
(-0.00163118 -0.00315118 0)
(-0.00150598 -0.00396792 0)
(-0.0012602 -0.00481484 0)
(-0.000865434 -0.00561322 0)
(-0.000269853 -0.00622182 0)
(0.000564621 -0.00647955 0)
(0.00102289 -0.00544661 0)
(0.000766001 -0.00353528 0)
(0.000624924 -0.00515058 0)
(0.000969489 -0.0061117 0)
(0.00146197 -0.00665487 0)
(0.00200438 -0.00691814 0)
(0.00265795 -0.00704861 0)
(0.00344107 -0.00707043 0)
(0.00432476 -0.00698964 0)
(0.00530411 -0.00666359 0)
(0.00650878 -0.00600219 0)
(0.00796303 -0.00512591 0)
(0.00944069 -0.00402202 0)
(0.0105714 -0.00278605 0)
(0.0111971 -0.00140048 0)
(0.011304 5.80547e-05 0)
(0.0109096 0.00110772 0)
(0.0102657 0.00168087 0)
(0.0100079 0.00139804 0)
(0.0103101 0.00149526 0)
(0.0108408 0.00211031 0)
(0.0113579 0.00343689 0)
(0.0115721 0.00528888 0)
(0.0113988 0.00737776 0)
(0.0108531 0.00950123 0)
(0.00996542 0.0115209 0)
(0.00877263 0.0133377 0)
(0.00732014 0.0148816 0)
(0.00566158 0.0161081 0)
(0.00385457 0.0169955 0)
(0.00195565 0.0175394 0)
(-6.24315e-06 3.48186e-05 0)
(-6.10926e-05 0.000119022 0)
(-0.000166147 0.000233986 0)
(-0.000312537 0.0003374 0)
(-0.000491074 0.000396813 0)
(-0.000693032 0.000389102 0)
(-0.000909614 0.000298692 0)
(-0.00113191 0.00011568 0)
(-0.00135085 -0.000166465 0)
(-0.00155699 -0.000552641 0)
(-0.00174007 -0.00104692 0)
(-0.00188842 -0.00165255 0)
(-0.00198806 -0.0023711 0)
(-0.00202138 -0.00320014 0)
(-0.00196559 -0.00412721 0)
(-0.00179094 -0.00511661 0)
(-0.00145955 -0.00609361 0)
(-0.000885204 -0.00695948 0)
(-4.96816e-05 -0.00735271 0)
(0.000648961 -0.005599 0)
(0.000420493 -0.00310041 0)
(8.85427e-05 -0.00525879 0)
(0.000510481 -0.00659068 0)
(0.00102127 -0.00712678 0)
(0.00149519 -0.00748848 0)
(0.00209837 -0.00775581 0)
(0.0028976 -0.0079492 0)
(0.00388526 -0.00799042 0)
(0.00502476 -0.00782698 0)
(0.00639696 -0.00743793 0)
(0.00802948 -0.00671952 0)
(0.00974218 -0.0054868 0)
(0.0111882 -0.00376922 0)
(0.0121483 -0.00188804 0)
(0.0124349 0.000196231 0)
(0.0118998 0.00179765 0)
(0.0108797 0.00239348 0)
(0.010531 0.0012107 0)
(0.0110151 0.000996876 0)
(0.0117586 0.00143934 0)
(0.0125229 0.00297542 0)
(0.0128575 0.00523657 0)
(0.0127117 0.0077334 0)
(0.0121557 0.0102322 0)
(0.0112292 0.0125918 0)
(0.00996435 0.014707 0)
(0.00840525 0.0164979 0)
(0.00661152 0.0179123 0)
(0.00465074 0.0189261 0)
(0.00259012 0.0195376 0)
(-6.86085e-06 6.7359e-05 0)
(-6.64333e-05 0.000205142 0)
(-0.0001798 0.000365818 0)
(-0.000337429 0.00050694 0)
(-0.000529814 0.000595616 0)
(-0.000748272 0.000608472 0)
(-0.000984321 0.000529898 0)
(-0.00122962 0.000350018 0)
(-0.00147597 6.21847e-05 0)
(-0.00171515 -0.000338954 0)
(-0.00193861 -0.000858412 0)
(-0.00213698 -0.00150114 0)
(-0.00229936 -0.00227168 0)