/*--------------------------------*- C++ -*----------------------------------*\
| =========                 |                                                 |
| \\      /  F ield         | OpenFOAM: The Open Source CFD Toolbox           |
|  \\    /   O peration     | Version:  2.4.0                                 |
|   \\  /    A nd           | Web:      www.OpenFOAM.org                      |
|    \\/     M anipulation  |                                                 |
\*---------------------------------------------------------------------------*/
FoamFile
{
    version     2.0;
    format      ascii;
    class       surfaceScalarField;
    location    "0.184";
    object      phi;
}
// * * * * * * * * * * * * * * * * * * * * * * * * * * * * * * * * * * * * * //

dimensions      [0 3 -1 0 0 0 0];

internalField   nonuniform List<scalar> 
114720
(
1.09568e-09
-3.0292e-09
-2.33924e-09
4.27276e-09
-5.16833e-09
8.07788e-09
1.21333e-09
-4.12288e-09
-1.55567e-08
1.80882e-08
1.13028e-09
-3.66175e-09
-2.31378e-08
2.39232e-08
1.86412e-10
-9.71763e-10
-2.43999e-08
2.40351e-08
-3.52656e-10
7.17466e-10
-2.1312e-08
1.98612e-08
-8.004e-10
2.25121e-09
-1.33437e-08
1.06836e-08
-1.1925e-09
3.85261e-09
-1.61221e-09
-1.08331e-09
-9.29269e-10
3.62479e-09
7.86258e-09
-9.29931e-09
-2.59843e-10
1.69658e-09
1.17318e-08
-1.19205e-08
2.15141e-10
-2.64566e-11
1.1146e-08
-1.05549e-08
4.45746e-10
-1.03682e-09
8.00649e-09
-7.0763e-09
5.1306e-10
-1.44325e-09
4.10766e-09
-3.21923e-09
4.45301e-10
-1.33372e-09
7.47356e-10
-8.88612e-11
3.11576e-10
-9.70071e-10
-1.5911e-09
2.00222e-09
1.80292e-10
-5.91412e-10
-2.96173e-09
3.17204e-09
7.52415e-11
-2.85559e-10
-3.60016e-09
3.67185e-09
1.11394e-12
-7.28045e-11
-3.73365e-09
3.70829e-09
-5.06588e-11
7.60206e-11
-3.51635e-09
3.42706e-09
-8.41391e-11
1.73427e-10
-3.08171e-09
2.9581e-09
-1.01619e-10
2.25228e-10
-2.54379e-09
2.40888e-09
-1.06647e-10
2.41559e-10
-1.98321e-09
1.85045e-09
-1.03844e-10
2.36599e-10
-1.44276e-09
1.31771e-09
-9.75313e-11
2.22583e-10
-9.35931e-10
8.19139e-10
-9.01801e-11
2.06972e-10
-4.61708e-10
3.52088e-10
-8.30735e-11
1.92694e-10
-1.70879e-11
-8.54222e-11
-7.607e-11
1.7858e-10
3.97071e-10
-4.91708e-10
-6.90459e-11
1.63683e-10
7.76636e-10
-8.62312e-10
-6.19061e-11
1.47581e-10
1.11764e-09
-1.19362e-09
-5.48939e-11
1.30876e-10
1.41824e-09
-1.48435e-09
-4.82057e-11
1.14321e-10
-3.21635e-09
-8.0643e-09
6.80427e-09
4.47638e-09
-1.53437e-08
1.02419e-08
1.87605e-08
-1.36587e-08
-3.42505e-08
1.34375e-08
3.84528e-08
-1.76397e-08
-4.77671e-08
4.60247e-09
4.98266e-08
-6.66193e-09
-5.37629e-08
-1.48099e-09
5.42243e-08
1.01963e-09
-5.27133e-08
-8.36779e-09
5.12191e-08
9.86204e-09
-4.30671e-08
-1.59047e-08
3.93196e-08
1.96521e-08
-2.56924e-08
-1.65552e-08
2.09299e-08
2.13177e-08
-7.33662e-09
-1.02535e-08
3.46305e-09
1.41271e-08
5.97469e-09
-3.46378e-09
-8.24445e-09
5.73355e-09
1.2807e-08
1.41388e-09
-1.36111e-08
-6.0981e-10
1.45548e-08
3.62852e-09
-1.45112e-08
-3.67209e-09
1.37908e-08
3.69958e-09
-1.34404e-08
-4.04999e-09
1.22168e-08
2.8698e-09
-1.17918e-08
-3.29475e-09
1.04932e-08
1.94423e-09
-1.00788e-08
-2.35867e-09
8.8646e-09
1.21076e-09
-8.48765e-09
-1.5877e-09
7.41879e-09
6.79636e-10
-7.10144e-09
-9.96986e-10
6.24523e-09
2.69219e-10
-6.00226e-09
-5.12191e-10
5.36439e-09
-1.70645e-11
-5.18563e-09
-1.61697e-10
4.71113e-09
-1.76452e-10
-4.57478e-09
4.0097e-11
4.20045e-09
-2.40534e-10
-4.08899e-09
1.29071e-10
3.77538e-09
-2.54607e-10
-3.68079e-09
1.6002e-10
3.4164e-09
-2.55415e-10
-3.33824e-09
1.77249e-10
3.12743e-09
-2.60395e-10
-3.06802e-09
2.00982e-10
2.91644e-09
-2.68928e-10
-2.87638e-09
2.28868e-10
2.78061e-09
-2.72535e-10
-2.757e-09
2.48923e-10
2.70348e-09
-2.64362e-10
-2.69068e-09
2.51564e-10
2.66039e-09
-2.43389e-10
-2.65224e-09
2.35242e-10
2.62839e-09
-2.13441e-10
-2.62019e-09
2.05237e-10
2.59112e-09
-1.78416e-10
-2.58011e-09
1.67405e-10
-2.64636e-09
-1.16729e-08
1.093e-08
3.38925e-09
-1.34176e-08
2.41939e-08
1.69394e-08
-2.77158e-08
-3.31177e-08
3.09206e-08
3.76244e-08
-3.54272e-08
-4.79646e-08
1.36623e-08
5.04052e-08
-1.6103e-08
-5.57045e-08
1.41373e-09
5.66819e-08
-2.39113e-09
-5.68933e-08
-1.31756e-08
5.60184e-08
1.40504e-08
-4.99782e-08
-2.94953e-08
4.7016e-08
3.24575e-08
-3.60128e-08
-3.42854e-08
3.21156e-08
3.81826e-08
-2.07969e-08
-2.52787e-08
1.74569e-08
2.86187e-08
-8.85447e-09
-1.30793e-08
6.57895e-09
1.53548e-08
-1.14195e-09
-3.11739e-09
-2.03197e-10
4.46253e-09
3.26455e-09
2.27613e-09
-3.98712e-09
-1.55356e-09
5.53874e-09
3.85927e-09
-5.85671e-09
-3.5413e-09
6.32645e-09
3.81913e-09
-6.33553e-09
-3.81005e-09
6.04821e-09
3.24154e-09
-5.88252e-09
-3.40723e-09
5.27487e-09
2.5516e-09
-5.06528e-09
-2.7612e-09
4.46488e-09
1.83979e-09
-4.29284e-09
-2.01183e-09
3.86173e-09
1.14881e-09
-3.75104e-09
-1.2595e-09
3.4908e-09
6.21558e-10
-3.42594e-09
-6.8641e-10
3.26717e-09
3.11009e-10
-3.22362e-09
-3.54558e-10
3.10163e-09
1.64335e-10
-3.06306e-09
-2.02898e-10
2.94547e-09
9.53584e-11
-2.90709e-09
-1.33743e-10
2.79323e-09
3.65611e-11
-2.75836e-09
-7.14234e-11
2.6654e-09
-4.08695e-11
-2.64073e-09
1.61928e-11
2.58767e-09
-1.2881e-10
-2.57808e-09
1.19224e-10
2.5722e-09
-2.01812e-10
-2.5772e-09
2.06814e-10
2.60889e-09
-2.39134e-10
-2.62317e-09
2.5341e-10
2.67249e-09
-2.35972e-10
-2.68895e-09
2.52437e-10
2.73504e-09
-2.02225e-10
-2.74788e-09
2.15065e-10
2.77727e-09
-1.51631e-10
-2.78322e-09
1.57576e-10
-2.52294e-09
-1.41153e-08
1.35633e-08
3.07493e-09
-1.25952e-08
3.82812e-08
1.61251e-08
-4.18111e-08
-3.25186e-08
4.90069e-08
3.70623e-08
-5.35507e-08
-4.7433e-08
2.347e-08
4.98883e-08
-2.59253e-08
-5.52899e-08
5.43607e-09
5.63167e-08
-6.46279e-09
-5.67563e-08
-1.6447e-08
5.59894e-08
1.7214e-08
-5.03082e-08
-4.10127e-08
4.74834e-08
4.38375e-08
-3.70651e-08
-4.92457e-08
3.34534e-08
5.28574e-08
-2.33667e-08
-3.77105e-08
2.05214e-08
4.05557e-08
-1.355e-08
-2.13048e-08
1.18023e-08
2.30525e-08
-7.76882e-09
-8.04066e-09
6.77199e-09
9.03749e-09
-4.38319e-09
-5.98406e-10
3.76559e-09
1.21601e-09
-2.25771e-09
2.37566e-09
1.87429e-09
-1.99224e-09
-1.00537e-09
3.44962e-09
8.06453e-10
-3.2507e-09
-3.81627e-10
3.49794e-09
2.81428e-10
-3.39774e-09
-1.784e-11
2.93977e-09
-6.77898e-11
-2.85414e-09
3.58365e-10
2.09035e-09
-4.65555e-10
-1.98316e-09
8.26194e-10
1.20918e-09
-9.52612e-10
-1.08276e-09
1.34595e-09
5.6625e-10
-1.47286e-09
-4.39344e-10
1.83752e-09
2.33319e-10
-1.94603e-09
-1.24801e-10
2.23551e-09
1.21209e-10
-2.31526e-09
-4.14584e-11
2.51256e-09
9.99081e-11
-2.56279e-09
-4.96799e-11
2.67895e-09
6.83889e-11
-2.70668e-09
-4.06608e-11
2.76882e-09
-1.50246e-11
-2.78384e-09
3.00449e-11
2.82138e-09
-1.35851e-10
-2.83232e-09
1.46784e-10
2.86492e-09
-2.4717e-10
-2.87567e-09
2.57915e-10
2.90763e-09
-3.07952e-10
-2.91732e-09
3.17635e-10
2.94133e-09
-3.04123e-10
-2.94668e-09
3.09467e-10
2.95217e-09
-2.49393e-10
-2.95e-09
2.47221e-10
2.93046e-09
-1.67225e-10
-2.91977e-09
1.56543e-10
-2.57954e-09
-1.60223e-08
1.55898e-08
3.012e-09
-1.22619e-08
5.24462e-08
1.58256e-08
-5.60098e-08
-3.25445e-08
6.72451e-08
3.71342e-08
-7.18348e-08
-4.74886e-08
3.32767e-08
4.99341e-08
-3.57222e-08
-5.53662e-08
9.5681e-09
5.64134e-08
-1.06153e-08
-5.69448e-08
-1.9459e-08
5.62183e-08
2.01855e-08
-5.05391e-08
-5.23676e-08
4.76694e-08
5.52373e-08
-3.6985e-08
-6.37683e-08
3.3293e-08
6.74603e-08
-2.31583e-08
-4.89303e-08
2.03689e-08
5.17197e-08
-1.37839e-08
-2.79209e-08
1.22253e-08
2.94795e-08
-8.92684e-09
-1.15427e-08
8.20839e-09
1.22611e-08
-6.67471e-09
-2.66748e-09
6.31041e-09
3.03177e-09
-5.38551e-09
9.9916e-10
5.10982e-09
-7.23471e-10
-4.2732e-09
2.50862e-09
3.99363e-09
-2.22905e-09
-3.12411e-09
2.78247e-09
2.83985e-09
-2.49821e-09
-1.98132e-09
2.26528e-09
1.70838e-09
-1.99233e-09
-8.97708e-10
1.39014e-09
6.41222e-10
-1.13366e-09
1.15031e-10
4.95756e-10
-3.53347e-10
-2.57439e-10
1.04871e-09
-1.01459e-10
-1.2631e-09
3.1585e-10
1.86938e-09
-3.27651e-10
-2.04879e-09
5.07058e-10
2.53145e-09
-2.9739e-10
-2.66779e-09
4.33732e-10
3.01765e-09
-1.76366e-10
-3.11117e-09
2.69885e-10
3.33819e-09
-9.28617e-11
-3.39497e-09
1.4965e-10
3.5226e-09
-9.90279e-11
-3.55112e-09
1.27547e-10
3.60446e-09
-1.7598e-10
-3.61226e-09
1.83788e-10
3.61139e-09
-2.61855e-10
-3.60386e-09
2.5433e-10
3.5613e-09
-3.00261e-10
-3.54135e-09
2.80316e-10
3.46336e-09
-2.68153e-10
-3.43244e-09
2.37229e-10
3.32262e-09
-1.79848e-10
-3.28186e-09
1.39092e-10
3.14447e-09
-6.4712e-11
-3.0958e-09
1.60473e-11
-2.70096e-09
-1.74416e-08
1.71351e-08
3.00742e-09
-1.19436e-08
6.67689e-08
1.55551e-08
-7.03804e-08
-3.27024e-08
8.56929e-08
3.73541e-08
-9.03447e-08
-4.76868e-08
4.30432e-08
5.01211e-08
-4.54776e-08
-5.56068e-08
1.38072e-08
5.66898e-08
-1.48902e-08
-5.73705e-08
-2.22789e-08
5.67059e-08
2.29436e-08
-5.10478e-08
-6.39307e-08
4.81222e-08
6.68563e-08
-3.70339e-08
-7.87507e-08
3.31937e-08
8.25909e-08
-2.27258e-08
-6.01773e-08
1.98693e-08
6.30338e-08
-1.32177e-08
-3.41033e-08
1.16803e-08
3.56407e-08
-8.57753e-09
-1.42203e-08
7.9679e-09
1.48299e-08
-6.86306e-09
-3.86587e-09
6.65018e-09
4.07875e-09
-6.11797e-09
3.86665e-11
5.92771e-09
1.51592e-10
-5.1778e-09
1.34057e-09
4.87397e-09
-1.03674e-09
-3.82826e-09
1.50459e-09
3.46845e-09
-1.14478e-09
-2.39373e-09
1.05043e-09
2.05996e-09
-7.1666e-10
-1.10539e-09
2.89753e-10
8.14141e-10
1.49476e-12
3.49701e-11
-5.14215e-10
-3.0191e-10
7.81155e-10
1.08684e-09
-1.01305e-09
-1.33194e-09
1.25815e-09
2.03096e-09
-1.09761e-09
-2.24072e-09
1.30737e-09
2.81257e-09
-8.87765e-10
-2.97567e-09
1.05086e-09
3.39759e-09
-5.85396e-10
-3.51129e-09
6.99097e-10
3.78878e-09
-3.43217e-10
-3.85835e-09
4.12782e-10
4.01297e-09
-2.22887e-10
-4.04643e-09
2.56345e-10
4.1034e-09
-2.03076e-10
-4.10881e-09
2.08492e-10
4.09113e-09
-2.15562e-10
-4.07545e-09
1.99882e-10
4.00186e-09
-1.95688e-10
-3.97017e-09
1.64e-10
3.85279e-09
-1.14724e-10
-3.80802e-09
6.99454e-11
3.65311e-09
1.58977e-11
-3.59665e-09
-7.2357e-11
3.40832e-09
1.64462e-10
-3.34189e-09
-2.30887e-10
-2.86914e-09
-1.82922e-08
1.81419e-08
3.01936e-09
-1.15532e-08
8.13036e-08
1.52271e-08
-8.49775e-08
-3.29135e-08
1.04411e-07
3.76426e-08
-1.0914e-07
-4.79394e-08
5.27607e-08
5.03599e-08
-5.51811e-08
-5.5913e-08
1.82048e-08
5.70416e-08
-1.93334e-08
-5.7915e-08
-2.48209e-08
5.73321e-08
2.54038e-08
-5.17204e-08
-7.57174e-08
4.87385e-08
7.86994e-08
-3.71601e-08
-9.43647e-08
3.31448e-08
9.83799e-08
-2.22814e-08
-7.17279e-08
1.93398e-08
7.46695e-08
-1.25616e-08
-4.02586e-08
1.10207e-08
4.17995e-08
-8.00278e-09
-1.65709e-08
7.44945e-09
1.71242e-08
-6.57797e-09
-4.57958e-09
6.45032e-09
4.70723e-09
-6.14385e-09
-6.38227e-10
6.00503e-09
7.77056e-10
-5.32959e-09
1.22877e-10
5.02667e-09
1.8005e-10
-3.94491e-09
3.41626e-11
3.56933e-09
3.41424e-10
-2.45812e-09
-3.00863e-10
2.11922e-09
6.39759e-10
-1.17027e-09
-8.78256e-10
8.82599e-10
1.16592e-09
-3.46541e-11
-1.59355e-09
-2.37938e-10
1.86615e-09
1.06141e-09
-2.02132e-09
-1.32473e-09
2.28464e-09
2.08891e-09
-1.96996e-09
-2.32095e-09
2.202e-09
2.95661e-09
-1.56801e-09
-3.13776e-09
1.74916e-09
3.60362e-09
-1.05727e-09
-3.7275e-09
1.18115e-09
4.02352e-09
-6.27241e-10
-4.09538e-09
6.99096e-10
4.2486e-09
-3.55246e-10
-4.27961e-09
3.86263e-10
4.32731e-09
-2.21366e-10
-4.33003e-09
2.2408e-10
4.30895e-09
-1.52862e-10
-4.29439e-09
1.38304e-10
4.23294e-09
-7.49028e-11
-4.20818e-09
5.01424e-11
4.11945e-09
5.4225e-11
-4.0858e-09
-8.78828e-11
3.9655e-09
2.33457e-10
-3.91934e-09
-2.79614e-10
3.75356e-09
4.30316e-10
-3.69073e-09
-4.93153e-10
-3.0952e-09
-1.83487e-08
1.84267e-08
3.01719e-09
-1.10696e-08
9.61099e-08
1.4821e-08
-9.98613e-08
-3.31636e-08
1.23459e-07
3.79839e-08
-1.2828e-07
-4.82202e-08
6.24166e-08
5.06228e-08
-6.48191e-08
-5.62531e-08
2.2797e-08
5.74354e-08
-2.39793e-08
-5.85418e-08
-2.70056e-08
5.80614e-08
2.7486e-08
-5.25212e-08
-8.77255e-08
4.94874e-08
9.07593e-08
-3.73069e-08
-1.10724e-07
3.30852e-08
1.14946e-07
-2.17658e-08
-8.36337e-08
1.87285e-08
8.66709e-08
-1.18207e-08
-4.64212e-08
1.02818e-08
4.79601e-08
-7.37176e-09
-1.86978e-08
6.87878e-09
1.91908e-08
-6.22902e-09
-4.98021e-09
6.17592e-09
5.03331e-09
-6.05801e-09
-1.12989e-09
5.9617e-09
1.2262e-09
-5.3534e-09
-1.08e-09
5.05696e-09
1.37643e-09
-3.97226e-09
-1.47313e-09
3.59363e-09
1.85176e-09
-2.48429e-09
-1.64517e-09
2.15257e-09
1.97689e-09
-1.24312e-09
-2.0105e-09
9.69964e-10
2.28366e-09
-1.47831e-10
-2.68635e-09
-1.26525e-10
2.96071e-09
9.86285e-10
-3.10332e-09
-1.26966e-09
3.3867e-09
2.10785e-09
-2.93435e-09
-2.36524e-09
3.19175e-09
3.0708e-09
-2.31986e-09
-3.27091e-09
2.51997e-09
3.77774e-09
-1.56401e-09
-3.90907e-09
1.69534e-09
4.21039e-09
-9.10941e-10
-4.27896e-09
9.79508e-10
4.41153e-09
-4.68117e-10
-4.43382e-09
4.90404e-10
4.45537e-09
-2.24042e-10
-4.45142e-09
2.20083e-10
4.42188e-09
-9.91944e-11
-4.40976e-09
8.70832e-11
4.37559e-09
1.56071e-12
-4.3667e-09
-1.04485e-11
4.3468e-09
1.50624e-10
-4.34141e-09
-1.56019e-10
4.31705e-09
3.77015e-10
-4.30281e-09
-3.91248e-10
4.22195e-09
6.56796e-10
-4.17922e-09
-6.99531e-10
-3.39874e-09
-1.72983e-08
1.76809e-08
3.01619e-09
-1.04869e-08
1.11253e-07
1.43336e-08
-1.151e-07
-3.34706e-08
1.42897e-07
3.83982e-08
-1.47825e-07
-4.85441e-08
7.19966e-08
5.09256e-08
-7.4378e-08
-5.66437e-08
2.76177e-08
5.78888e-08
-2.88628e-08
-5.92713e-08
-2.8746e-08
5.89173e-08
2.91e-08
-5.3476e-08
-9.99224e-08
5.04067e-08
1.02992e-07
-3.74789e-08
-1.27965e-07
3.30135e-08
1.3243e-07
-2.11623e-08
-9.59437e-08
1.80146e-08
9.90914e-08
-1.09658e-08
-5.25679e-08
9.4339e-09
5.40998e-08
-6.66644e-09
-2.05617e-08
6.24874e-09
2.09794e-08
-5.86646e-09
-5.06767e-09
5.90046e-09
5.03367e-09
-5.99878e-09
-1.44691e-09
5.94918e-09
1.49651e-09
-5.40864e-09
-2.25984e-09
5.11485e-09
2.55364e-09
-4.01266e-09
-2.99805e-09
3.62536e-09
3.38535e-09
-2.50464e-09
-2.96156e-09
2.1794e-09
3.2868e-09
-1.3223e-09
-3.07457e-09
1.07081e-09
3.32606e-09
-2.94895e-10
-3.78283e-09
2.11503e-11
4.05658e-09
8.82018e-10
-4.27348e-09
-1.19119e-09
4.58266e-09
2.12543e-09
-4.01039e-09
-2.41571e-09
4.30066e-09
3.21293e-09
-3.15526e-09
-3.43799e-09
3.38033e-09
3.99821e-09
-2.10214e-09
-4.13874e-09
2.24268e-09
4.4436e-09
-1.17676e-09
-4.50607e-09
1.23923e-09
4.60321e-09
-5.36515e-10
-4.61008e-09
5.43387e-10
4.58128e-09
-1.88656e-10
-4.56177e-09
1.69142e-10
4.49606e-09
-4.6169e-11
-4.47765e-09
2.77644e-11
4.44792e-09
1.60455e-11
-4.44943e-09
-1.45418e-11
4.49234e-09
1.21555e-10
-4.51781e-09
-9.60801e-11
4.61614e-09
3.64304e-10
-4.6489e-09
-3.31545e-10
4.70978e-09
7.76278e-10
-4.70547e-09
-7.80588e-10
-3.80606e-09
-1.48357e-08
1.56018e-08
3.03994e-09
-9.79341e-09
1.26805e-07
1.37541e-08
-1.30766e-07
-3.38424e-08
1.62788e-07
3.88937e-08
-1.67839e-07
-4.89087e-08
8.14871e-08
5.12661e-08
-8.38444e-08
-5.70818e-08
3.27029e-08
5.83989e-08
-3.40199e-08
-6.01036e-08
-2.9939e-08
5.99051e-08
3.01375e-08
-5.45936e-08
-1.12209e-07
5.15305e-08
1.15272e-07
-3.76732e-08
-1.4624e-07
3.29229e-08
1.5099e-07
-2.04594e-08
-1.0872e-07
1.71838e-08
1.11996e-07
-9.97886e-09
-5.86803e-08
8.45788e-09
6.02013e-08
-5.86482e-09
-2.21013e-08
5.53783e-09
2.24283e-08
-5.48105e-09
-4.77674e-09
5.6227e-09
4.6351e-09
-5.98777e-09
-1.56466e-09
5.99442e-09
1.55801e-09
-5.5238e-09
-3.4363e-09
5.22737e-09
3.73273e-09
-4.07466e-09
-4.57345e-09
3.66739e-09
4.98072e-09
-2.51077e-09
-4.25628e-09
2.1889e-09
4.57815e-09
-1.40036e-09
-4.03328e-09
1.1842e-09
4.24945e-09
-4.84827e-10
-4.87214e-09
2.1523e-10
5.14174e-09
7.43084e-10
-5.55801e-09
-1.08616e-09
5.90109e-09
2.1473e-09
-5.23384e-09
-2.48177e-09
5.56832e-09
3.40604e-09
-4.10409e-09
-3.66577e-09
4.36382e-09
4.30117e-09
-2.68315e-09
-4.45558e-09
2.83755e-09
4.76839e-09
-1.4149e-09
-4.82262e-09
1.46914e-09
4.86759e-09
-5.30753e-10
-4.85013e-09
5.13294e-10
4.73293e-09
-6.92555e-11
-4.68166e-09
1.79859e-11
4.51768e-09
6.37426e-11
-4.46798e-09
-1.13437e-10
4.34984e-09
3.13253e-11
-4.32577e-09
-5.53929e-11
4.30555e-09
1.66118e-11
-4.31663e-09
-5.53544e-12
4.39581e-09
1.97235e-10
-4.43122e-09
-1.61821e-10
4.52982e-09
7.29278e-10
-4.54843e-09
-7.10673e-10
-4.34867e-09
-1.0611e-08
1.18537e-08
3.10593e-09
-8.97238e-09
1.42839e-07
1.30643e-08
-1.46931e-07
-3.4276e-08
1.83195e-07
3.9465e-08
-1.88384e-07
-4.92931e-08
9.08761e-08
5.16232e-08
-9.32063e-08
-5.7543e-08
3.80901e-08
5.89416e-08
-3.94887e-08
-6.10161e-08
-3.04574e-08
6.10103e-08
3.04632e-08
-5.58595e-08
-1.24357e-07
5.28912e-08
1.27325e-07
-3.78735e-08
-1.6572e-07
3.27936e-08
1.70799e-07
-1.96401e-08
-1.22037e-07
1.62171e-08
1.2546e-07
-8.843e-09
-6.47422e-08
7.33762e-09
6.62476e-08
-4.95191e-09
-2.32545e-08
4.73132e-09
2.34751e-08
-5.06365e-09
-4.01994e-09
5.33724e-09
3.74635e-09
-6.03148e-09
-1.43982e-09
6.10655e-09
1.36475e-09
-5.70799e-09
-4.63753e-09
5.39873e-09
4.94679e-09
-4.15553e-09
-6.24839e-09
3.7133e-09
6.69062e-09
-2.48459e-09
-5.54573e-09
2.15998e-09
5.87033e-09
-1.46508e-09
-4.82198e-09
1.30395e-09
4.9831e-09
-7.40634e-10
-5.93943e-09
4.82025e-10
6.19804e-09
5.49376e-10
-6.99515e-09
-9.38806e-10
7.38458e-09
2.17219e-09
-6.65611e-09
-2.56687e-09
7.05078e-09
3.66148e-09
-5.2097e-09
-3.9692e-09
5.51742e-09
4.7142e-09
-3.33092e-09
-4.88967e-09
3.50638e-09
5.2198e-09
-1.61785e-09
-5.26454e-09
1.66259e-09
5.23839e-09
-4.11341e-10
-5.18543e-09
3.58381e-10
4.92917e-09
2.09564e-10
-4.82381e-09
-3.14919e-10
4.47285e-09
3.53073e-10
-4.35535e-09
-4.70567e-10
4.01065e-09
2.33982e-10
-3.90599e-09
-3.38647e-10
3.61942e-09
9.46063e-11
-3.53619e-09
-1.7784e-10
3.29811e-09
2.08646e-10
-3.21637e-09
-2.90387e-10
2.8943e-09
8.88059e-10
-2.74724e-09
-1.03512e-09
-5.06647e-09
-4.20462e-09
6.0389e-09
3.23219e-09
-8.01312e-09
1.59423e-07
1.22521e-08
-1.63662e-07
-3.47927e-08
2.04177e-07
4.01347e-08
-2.09519e-07
-4.97103e-08
1.00155e-07
5.20125e-08
-1.02457e-07
-5.8044e-08
4.38196e-08
5.95349e-08
-4.53105e-08
-6.20268e-08
-3.0132e-08
6.22675e-08
2.98913e-08
-5.72901e-08
-1.35904e-07
5.45854e-08
1.38609e-07
-3.809e-08
-1.86597e-07
3.26268e-08
1.9206e-07
-1.87036e-08
-1.35982e-07
1.51055e-08
1.3958e-07
-7.548e-09
-7.07349e-08
6.06316e-09
7.22197e-08
-3.91905e-09
-2.39587e-08
3.82048e-09
2.40572e-08
-4.61383e-09
-2.69499e-09
5.0474e-09
2.26142e-09
-6.14495e-09
-1.02153e-09
6.30251e-09
8.63966e-10
-5.97491e-09
-5.90704e-09
5.64137e-09
6.24057e-09
-4.25611e-09
-8.0868e-09
3.76275e-09
8.58017e-09
-2.40695e-09
-6.862e-09
2.06895e-09
7.2e-09
-1.49889e-09
-5.33784e-09
1.4328e-09
5.40393e-09
-1.10568e-09
-6.95658e-09
8.62811e-10
7.19945e-09
2.75533e-10
-8.64205e-09
-7.28681e-10
9.0952e-09
2.19352e-09
-8.34815e-09
-2.6686e-09
8.82323e-09
3.99664e-09
-6.53442e-09
-4.37151e-09
6.90929e-09
5.27343e-09
-4.07747e-09
-5.4816e-09
4.28564e-09
5.84717e-09
-1.78241e-09
-5.88256e-09
1.81781e-09
5.76763e-09
-1.32227e-10
-5.66737e-09
3.19642e-11
5.21831e-09
7.39865e-10
-5.03563e-09
-9.22544e-10
4.41142e-09
9.63706e-10
-4.19366e-09
-1.18146e-09
3.51485e-09
8.17823e-10
-3.29267e-09
-1.04001e-09
2.62596e-09
6.12263e-10
-2.41305e-09
-8.25167e-10
1.79014e-09
6.92276e-10
-1.60183e-09
-8.80587e-10
1.15474e-09
1.36402e-09
-1.08276e-09
-1.436e-09
-6.03903e-09
4.98453e-09
-2.38368e-09
3.43818e-09
-6.89733e-09
1.76614e-07
1.12938e-08
-1.81011e-07
-3.53965e-08
2.25792e-07
4.09055e-08
-2.31301e-07
-5.01487e-08
1.09324e-07
5.24247e-08
-1.116e-07
-5.85745e-08
4.99356e-08
6.01693e-08
-5.15305e-08
-6.31196e-08
-2.86993e-08
6.36971e-08
2.81218e-08
-5.88633e-08
-1.46012e-07
5.67076e-08
1.48167e-07
-3.83092e-08
-2.09097e-07
3.24032e-08
2.15003e-07
-1.76417e-08
-1.50683e-07
1.38273e-08
1.54497e-07
-6.07718e-09
-7.66364e-08
4.6192e-09
7.80944e-08
-2.75321e-09
-2.41501e-08
2.79333e-09
2.411e-08
-4.12748e-09
-6.82366e-10
4.75429e-09
5.55575e-11
-6.34788e-09
-2.49865e-10
6.60422e-09
-6.47728e-12
-6.34365e-09
-7.29672e-09
5.96978e-09
7.6706e-09
-4.37857e-09
-1.01644e-08
3.81154e-09
1.07314e-08
-2.25698e-09
-8.2654e-09
1.87847e-09
8.64391e-09
-1.46416e-09
-5.39524e-09
1.55538e-09
5.30402e-09
-1.64612e-09
-7.89665e-09
1.42447e-09
8.1183e-09
-1.10027e-10
-1.05781e-08
-4.30788e-10
1.1119e-08
2.2015e-09
-1.03995e-08
-2.78343e-09
1.09815e-08
4.42672e-09
-8.1647e-09
-4.89518e-09
8.63316e-09
6.02315e-09
-4.97851e-09
-6.28129e-09
5.23665e-09
6.71447e-09
-1.91312e-09
-6.74378e-09
1.94243e-09
6.52861e-09
3.52317e-10
-6.37112e-09
-5.09798e-10
5.68232e-09
1.61178e-09
-5.40232e-09
-1.89178e-09
4.43167e-09
2.02109e-09
-4.0859e-09
-2.36687e-09
2.97652e-09
1.92891e-09
-2.60162e-09
-2.30381e-09
1.43882e-09
1.71302e-09
-1.0558e-09
-2.09604e-09
-9.8826e-11
1.71076e-09
4.64573e-10
-2.0765e-09
-1.50574e-09
2.02597e-09
1.82118e-09
-2.34142e-09
-7.35243e-09
1.78134e-08
-1.42084e-08
3.74743e-09
-5.6026e-09
1.94443e-07
1.01606e-08
-1.99001e-07
-3.60914e-08
2.48102e-07
4.17842e-08
-2.53794e-07
-5.06008e-08
1.18395e-07
5.28567e-08
-1.20651e-07
-5.91322e-08
5.64863e-08
6.08438e-08
-5.81978e-08
-6.42958e-08
-2.57469e-08
6.5317e-08
2.47256e-08
-6.04875e-08
-1.53264e-07
5.9408e-08
1.54343e-07
-3.84966e-08
-2.33446e-07
3.21013e-08
2.39841e-07
-1.64533e-08
-1.66341e-07
1.23549e-08
1.70439e-07
-4.41365e-09
-8.24195e-08
2.99013e-09
8.3843e-08
-1.44047e-09
-2.37633e-08
1.63552e-09
2.35682e-08
-3.59984e-09
2.16202e-09
4.46079e-09
-3.02297e-09
-6.66469e-09
9.4842e-10
7.04137e-09
-1.3251e-09
-6.8401e-09
-8.87742e-09
6.40414e-09
9.31337e-09
-4.52356e-09
-1.2571e-08
3.85895e-09
1.32356e-08
-2.00389e-09
-9.89188e-09
1.53684e-09
1.03589e-08
-1.27489e-09
-4.67325e-09
1.63632e-09
4.31182e-09
-2.49855e-09
-8.75725e-09
2.28797e-09
8.96782e-09
-6.34776e-10
-1.29074e-08
-2.37368e-11
1.35659e-08
2.18243e-09
-1.29255e-08
-2.90401e-09
1.36471e-08
4.9666e-09
-1.02205e-08
-5.56548e-09
1.08194e-08
7.01902e-09
-6.11523e-09
-7.35317e-09
6.44939e-09
7.90673e-09
-2.02987e-09
-7.93794e-09
2.06108e-09
7.62212e-09
1.07681e-09
-7.40047e-09
-1.29845e-09
6.44302e-09
2.88985e-09
-6.05678e-09
-3.27609e-09
4.72732e-09
3.59838e-09
-4.25671e-09
-4.06898e-09
2.75542e-09
3.64291e-09
-2.25092e-09
-4.14741e-09
6.98881e-10
3.4605e-09
-1.93472e-10
-3.96591e-09
-1.30798e-09
3.35437e-09
1.77817e-09
-3.82456e-09
-3.13004e-09
3.33527e-09
3.55501e-09
-3.76024e-09
-9.10894e-09
3.54253e-08
-3.0496e-08
4.17969e-09
-4.10391e-09
2.12912e-07
8.81576e-09
-2.17624e-07
-3.6921e-08
2.71128e-07
4.27756e-08
-2.76983e-07
-5.10577e-08
1.27402e-07
5.33057e-08
-1.2965e-07
-5.97185e-08
6.35243e-08
6.15611e-08
-6.53669e-08
-6.55962e-08
-2.09933e-08
6.70388e-08
1.95506e-08
-6.19687e-08
-1.54602e-07
6.32556e-08
1.53315e-07
-3.86394e-08
-2.59785e-07
3.17319e-08
2.66692e-07
-1.51339e-08
-1.83275e-07
1.0652e-08
1.87757e-07
-2.53558e-09
-8.805e-08
1.15832e-09
8.94272e-08
3.48467e-11
-2.27308e-08
3.28025e-10
2.23679e-08
-3.02463e-09
6.01015e-09
4.16735e-09
-7.15288e-09
-7.12998e-09
2.66912e-09
7.65504e-09
-3.19418e-09
-7.49799e-09
-1.07485e-08
6.96984e-09
1.12767e-08
-4.69616e-09
-1.54017e-08
3.91235e-09
1.61855e-08
-1.62805e-09
-1.19995e-08
9.7823e-10
1.26494e-08
-7.55836e-10
-2.58716e-09
1.61267e-09
1.73032e-09
-3.9848e-09
-9.664e-09
3.69e-09
9.9588e-09
-1.28618e-09
-1.5748e-08
4.9017e-10
1.6544e-08
2.1076e-09
-1.60668e-08
-3.00806e-09
1.69673e-08
5.62636e-09
-1.28711e-08
-6.40807e-09
1.36528e-08
8.33034e-09
-7.60913e-09
-8.77893e-09
8.05771e-09
9.53216e-09
-2.1726e-09
-9.57854e-09
2.21897e-09
9.16529e-09
2.06847e-09
-8.87096e-09
-2.36279e-09
7.60633e-09
4.60387e-09
-7.10318e-09
-5.10702e-09
5.41629e-09
5.64391e-09
-4.8382e-09
-6.22201e-09
3.06502e-09
5.77687e-09
-2.49334e-09
-6.34854e-09
8.05573e-10
5.54316e-09
-2.76764e-10
-6.07197e-09
-1.24974e-09
5.2703e-09
1.71891e-09
-5.73946e-09
-3.0515e-09
5.05345e-09
3.45488e-09
-5.45684e-09
-1.14548e-08
5.94098e-08
-5.27065e-08
4.75147e-09
-2.38387e-09
2.31952e-07
7.21105e-09
-2.36779e-07
-3.79145e-08
2.9474e-07
4.38883e-08
-3.00714e-07
-5.15156e-08
1.36405e-07
5.37751e-08
-1.38664e-07
-6.03478e-08
7.11133e-08
6.2341e-08
-7.31065e-08
-6.70427e-08
-1.47062e-08
6.88394e-08
1.29095e-08
-6.38406e-08
-1.43723e-07
6.91472e-08
1.38416e-07
-3.89178e-08
-2.8831e-07
3.13567e-08
2.95872e-07
-1.36709e-08
-2.01916e-07
8.68555e-09
2.06901e-07
-3.81001e-10
-9.34428e-08
-8.88761e-10
9.47126e-08
1.67785e-09
-2.1027e-08
-1.14382e-09
2.0493e-08
-2.3891e-09
1.10761e-08
3.87476e-09
-1.25618e-08
-7.78849e-09
5.03442e-09
8.4984e-09
-5.74434e-09
-8.36394e-09
-1.30492e-08
7.70002e-09
1.37132e-08
-4.89032e-09
-1.87363e-08
3.9712e-09
1.96554e-08
-1.16008e-09
-1.50676e-08
1.56047e-10
1.60716e-08
3.31107e-10
2.13552e-09
1.55121e-09
-4.01784e-09
-6.66082e-09
-1.13772e-08
5.88543e-09
1.21526e-08
-1.96882e-09
-1.91088e-08
1.07456e-09
2.0003e-08
1.92537e-09
-1.99862e-08
-3.04494e-09
2.11057e-08
6.40566e-09
-1.63533e-08
-7.44095e-09
1.73886e-08
1.00346e-08
-9.63588e-09
-1.06506e-08
1.02519e-08
1.17115e-08
-2.39988e-09
-1.17898e-08
2.4782e-09
1.12787e-08
3.3728e-09
-1.08962e-08
-3.75522e-09
9.24809e-09
6.82331e-09
-8.60104e-09
-7.47036e-09
6.50735e-09
8.11672e-09
-5.82383e-09
-8.80025e-09
3.85407e-09
8.11306e-09
-3.26147e-09
-8.70567e-09
1.63129e-09
7.60499e-09
-1.15594e-09
-8.08033e-09
-1.26419e-10
7.02398e-09
4.94131e-10
-7.39169e-09
-1.46627e-09
6.49469e-09
1.73702e-09
-6.76543e-09
-1.45968e-08
9.20656e-08
-8.29242e-08
5.45534e-09
-4.29409e-10
2.5133e-07
5.27881e-09
-2.5618e-07
-3.90744e-08
3.18748e-07
4.51126e-08
-3.24787e-07
-5.19588e-08
1.45482e-07
5.42451e-08
-1.47768e-07
-6.10336e-08
7.93401e-08
6.32011e-08
-8.15076e-08
-6.8677e-08
-6.87921e-09
7.08799e-08
4.67629e-09
-6.71271e-08
-1.16811e-07
7.58545e-08
1.08084e-07
-3.91338e-08
-3.19965e-07
3.05294e-08
3.28569e-07
-1.21086e-08
-2.2282e-07
6.41829e-09
2.28511e-07
2.06977e-09
-9.82884e-08
-3.16985e-09
9.93884e-08
3.52596e-09
-1.86279e-08
-2.81757e-09
1.79195e-08
-1.67284e-09
1.7618e-08
3.57679e-09
-1.95219e-08
-8.69619e-09
8.20824e-09
9.64101e-09
-9.15305e-09
-9.49539e-09
-1.59767e-08
8.63503e-09
1.68371e-08
-5.07776e-09
-2.2615e-08
4.02533e-09
2.36674e-08
-7.5428e-10
-1.98572e-08
-8.17123e-10
2.14286e-08
1.94694e-09
1.22476e-08
1.81778e-09
-1.60123e-08
-9.30444e-09
-1.58008e-08
7.67622e-09
1.7429e-08
-2.6195e-09
-2.2649e-08
1.8e-09
2.34685e-08
1.52267e-09
-2.4826e-08
-2.88671e-09
2.619e-08
7.24547e-09
-2.09745e-08
-8.61899e-09
2.2348e-08
1.21225e-08
-1.24175e-08
-1.29565e-08
1.32515e-08
1.43865e-08
-2.7683e-09
-1.4493e-08
2.87477e-09
1.38406e-08
5.05401e-09
-1.33511e-08
-5.54354e-09
1.1256e-08
9.65323e-09
-1.04472e-08
-1.04621e-08
7.94039e-09
1.09859e-08
-7.1744e-09
-1.17519e-08
5.16612e-09
1.04267e-08
-4.62875e-09
-1.09641e-08
3.32962e-09
9.31167e-09
-3.00233e-09
-9.63896e-09
2.23881e-09
8.23871e-09
-2.05239e-09
-8.42513e-09
1.63203e-09
7.31176e-09
-1.53524e-09
-7.40855e-09
-1.88194e-08
1.36848e-07
-1.24265e-07
6.23667e-09
1.72469e-09
2.70572e-07
2.93594e-09
-2.75233e-07
-4.04096e-08
3.42919e-07
4.6445e-08
-3.48955e-07
-5.2434e-08
1.54606e-07
5.46581e-08
-1.5683e-07
-6.19193e-08
8.82678e-08
6.42375e-08
-9.05859e-08
-7.07248e-08
2.05965e-09
7.2878e-08
-4.21276e-09
-7.04911e-08
-7.79304e-08
8.21801e-08
6.62414e-08
-3.84666e-08
-3.56463e-07
2.84706e-08
3.66459e-07
-1.05884e-08
-2.47092e-07
3.79284e-09
2.53887e-07
4.95818e-09
-1.02234e-07
-5.70952e-09
1.02985e-07
5.60245e-09
-1.55437e-08
-4.7299e-09
1.46711e-08
-8.44804e-10
2.59666e-08
3.25842e-09
-2.83802e-08
-9.92611e-09
1.24206e-08
1.11779e-08
-1.36724e-08
-1.09732e-08
-1.98089e-08
9.83208e-09
2.095e-08
-5.18194e-09
-2.70071e-08
4.01136e-09
2.81777e-08
-8.72565e-10
-2.71927e-08
-1.4004e-09
2.94656e-08
3.08408e-09
3.01172e-08
2.04882e-09
-3.52501e-08
-7.35508e-09
-2.25479e-08
5.98169e-09
2.39213e-08
-3.64458e-09
-2.55437e-08
3.09253e-09
2.60958e-08
6.20985e-10
-3.06613e-08
-2.23836e-09
3.22787e-08
7.79457e-09
-2.70572e-08
-9.55975e-09
2.88224e-08
1.39909e-08
-1.60393e-08
-1.4971e-08
1.70193e-08
1.63126e-08
-3.07141e-09
-1.62607e-08
3.01951e-09
1.50274e-08
7.23783e-09
-1.43684e-08
-7.89678e-09
1.18939e-08
1.30785e-08
-1.1002e-08
-1.39704e-08
8.37593e-09
1.40886e-08
-7.6262e-09
-1.48383e-08
5.86826e-09
1.23942e-08
-5.47471e-09
-1.27878e-08
4.74097e-09
1.03213e-08
-4.62124e-09
-1.0441e-08
4.48808e-09
8.69086e-09
-4.49397e-09
-8.68498e-09
4.57462e-09
7.48992e-09
-4.60653e-09
-7.45801e-09
-2.45646e-08
1.99103e-07
-1.81509e-07
6.96985e-09
3.96291e-09
2.88437e-07
1.45409e-10
-2.92545e-07
-4.19284e-08
3.66971e-07
4.7887e-08
-3.72929e-07
-5.31234e-08
1.6287e-07
5.47514e-08
-1.64498e-07
-6.34929e-08
9.74464e-08
6.56064e-08
-9.95599e-08
-7.28653e-08
1.035e-08
7.49994e-08
-1.24842e-08
-7.31056e-08
-2.37688e-08
9.04187e-08
6.45566e-09
-3.70023e-08
-3.98045e-07
2.61245e-08
4.08923e-07
-9.03522e-09
-2.76393e-07
8.36032e-10
2.84593e-07
8.29138e-09
-1.04477e-07
-8.51336e-09
1.04699e-07
7.96317e-09
-1.18228e-08
-6.93755e-09
1.07971e-08
1.40232e-10
3.65294e-08
2.89557e-09
-3.95652e-08
-1.15699e-08
1.80149e-08
1.32431e-08
-1.96881e-08
-1.29125e-08
-2.49173e-08
1.13872e-08
2.64427e-08
-5.1187e-09
-3.18303e-08
3.86249e-09
3.30865e-08
-2.41085e-09
-3.71242e-08
-3.28257e-10
3.98633e-08
3.41211e-09
4.84397e-08
-3.59019e-10
-5.14928e-08
-2.02915e-09
-2.53934e-08
2.61603e-09
2.48065e-08
-5.9929e-09
-2.74923e-08
5.56251e-09
2.79227e-08
-1.55714e-09
-3.74655e-08
-2.5429e-10
3.9277e-08
6.76021e-09
-3.45936e-08
-8.79041e-09
3.66238e-08
1.34615e-08
-1.97803e-08
-1.42518e-08
2.05706e-08
1.41481e-08
-2.07483e-09
-1.3485e-08
1.41182e-09
1.0785e-08
1.02042e-08
-9.90845e-09
-1.10808e-08
7.69012e-09
1.63423e-08
-7.10724e-09
-1.69252e-08
5.6315e-09
1.66694e-08
-5.25789e-09
-1.7043e-08
4.53794e-09
1.35731e-08
-4.4506e-09
-1.36604e-08
4.57161e-09
1.04364e-08
-4.70613e-09
-1.03019e-08
5.26035e-09
8.38567e-09
-5.45934e-09
-8.18668e-09
6.02456e-09
7.19182e-09
-6.18034e-09
-7.03604e-09
-3.24603e-08
2.87266e-07
-2.62165e-07
7.35952e-09
6.40989e-09
3.02799e-07
-3.85852e-09
-3.0535e-07
-4.3598e-08
3.90609e-07
4.94164e-08
-3.96427e-07
-5.38305e-08
1.67619e-07
5.43252e-08
-1.68114e-07
-6.56909e-08
1.04476e-07
6.66008e-08
-1.05386e-07
-7.42436e-08
2.06454e-08
7.78811e-08
-2.42828e-08
-7.81739e-08
5.8692e-08
1.05397e-07
-8.5915e-08
-3.56348e-08
-4.42152e-07
2.43253e-08
4.53462e-07
-6.86903e-09
-3.11114e-07
-2.5794e-09
3.20563e-07
1.18693e-08
-1.04636e-07
-1.169e-08
1.04456e-07
1.07205e-08
-7.47241e-09
-9.51791e-09
6.26984e-09
1.3424e-09
4.97652e-08
2.44991e-09
-5.35576e-08
-1.37285e-08
2.55538e-08
1.60199e-08
-2.78452e-08
-1.54683e-08
-3.17061e-08
1.34757e-08
3.36988e-08
-5.37238e-09
-3.68001e-08
4.2571e-09
3.79154e-08
-6.38041e-09
-4.80629e-08
3.85097e-09
5.05923e-08
2.29178e-09
5.58849e-08
-2.28759e-09
-5.58891e-08
-2.27627e-09
-2.0108e-08
4.56417e-09
1.78201e-08
-1.03048e-08