/*--------------------------------*- C++ -*----------------------------------*\
| =========                 |                                                 |
| \\      /  F ield         | OpenFOAM: The Open Source CFD Toolbox           |
|  \\    /   O peration     | Version:  2.4.0                                 |
|   \\  /    A nd           | Web:      www.OpenFOAM.org                      |
|    \\/     M anipulation  |                                                 |
\*---------------------------------------------------------------------------*/
FoamFile
{
    version     2.0;
    format      ascii;
    class       surfaceScalarField;
    location    "0.18";
    object      phi;
}
// * * * * * * * * * * * * * * * * * * * * * * * * * * * * * * * * * * * * * //

dimensions      [0 3 -1 0 0 0 0];

internalField   nonuniform List<scalar> 
28560
(
8.45866e-09
-2.11878e-08
1.27291e-08
-1.56679e-08
2.16675e-08
-5.99964e-09
-2.48577e-08
2.88621e-08
-4.00441e-09
-3.40576e-08
3.58147e-08
-1.75709e-09
-3.60442e-08
3.25281e-08
3.51614e-09
-2.77578e-08
2.01647e-08
7.59308e-09
-1.19393e-08
3.94427e-09
7.99498e-09
4.85233e-09
-1.18795e-08
7.02716e-09
1.82022e-08
-2.20382e-08
3.83594e-09
2.44333e-08
-2.50876e-08
6.54317e-10
2.41987e-08
-2.21109e-08
-2.08785e-09
1.92101e-08
-1.61081e-08
-3.10194e-09
1.2836e-08
-9.88811e-09
-2.9479e-09
7.03109e-09
-4.66649e-09
-2.3646e-09
2.50346e-09
-7.92261e-10
-1.7112e-09
-7.03956e-10
1.88497e-09
-1.18102e-09
-2.89048e-09
3.65347e-09
-7.62991e-10
-4.27524e-09
4.7187e-09
-4.4346e-10
-5.05144e-09
5.26058e-09
-2.09141e-10
-5.3823e-09
5.41763e-09
-3.53367e-11
-5.3871e-09
5.30236e-09
8.47366e-11
-5.1659e-09
4.99982e-09
1.66083e-10
-4.79311e-09
4.57336e-09
2.19747e-10
-4.3225e-09
4.06978e-09
2.52723e-10
-3.7912e-09
3.51838e-09
2.72816e-10
-3.22614e-09
2.94638e-09
2.79756e-10
-2.65261e-09
2.37598e-09
2.76628e-10
-2.09038e-09
1.82515e-09
2.65228e-10
-1.5555e-09
1.30792e-09
2.4758e-10
-1.05759e-09
8.30203e-10
2.27392e-10
3.33781e-08
-4.40352e-08
1.06571e-08
-2.52566e-08
4.21312e-08
1.9778e-08
-3.66527e-08
-5.404e-08
6.45539e-08
1.27057e-08
-2.32196e-08
-8.02764e-08
8.77911e-08
7.20586e-09
-1.47205e-08
-9.38479e-08
9.37552e-08
-5.82575e-09
5.91845e-09
-9.05674e-08
8.24607e-08
-1.73748e-08
2.54815e-08
-7.16893e-08
5.96617e-08
-2.07336e-08
3.27612e-08
-4.40657e-08
2.99853e-08
-2.06514e-08
3.47318e-08
-1.4323e-08
1.15594e-09
-1.50682e-08
2.82353e-08
1.09383e-08
-2.03657e-08
-6.91743e-09
1.63449e-08
2.73091e-08
-3.08177e-08
1.71485e-09
1.7938e-09
3.20428e-08
-3.14412e-08
5.92713e-09
-6.5288e-09
2.97276e-08
-2.74821e-08
6.57514e-09
-8.82064e-09
2.47882e-08
-2.22211e-08
5.70679e-09
-8.27392e-09
1.95226e-08
-1.71117e-08
4.45396e-09
-6.86482e-09
1.46825e-08
-1.25234e-08
3.36085e-09
-5.51996e-09
1.04097e-08
-8.55623e-09
2.45725e-09
-4.31068e-09
6.77991e-09
-5.2586e-09
1.72035e-09
-3.24165e-09
3.83132e-09
-2.63387e-09
1.12942e-09
-2.32687e-09
1.53223e-09
-6.32531e-10
6.73937e-10
-1.57364e-09
-1.74655e-10
8.32607e-10
3.19298e-10
-9.7725e-10
-1.40528e-09
1.85246e-09
5.86924e-11
-5.05873e-10
-2.23057e-09
2.50516e-09
-1.37e-10
-1.3759e-10
-2.71535e-09
2.84602e-09
-2.80067e-10
1.49406e-10
-2.91856e-09
2.93237e-09
-3.84561e-10
3.70749e-10
-2.89615e-09
2.82128e-09
-4.50176e-10
5.2504e-10
-2.70723e-09
2.57305e-09
-4.81305e-10
6.15484e-10
-2.41203e-09
2.24487e-09
-4.83411e-10
6.50566e-10
-2.06063e-09
1.88227e-09
-4.65549e-10
6.43907e-10
-1.69452e-09
1.51975e-09
-4.34363e-10
6.09134e-10
5.3447e-08
-6.20912e-08
8.64415e-09
-2.11936e-08
3.89777e-08
5.43264e-08
-7.21105e-08
-5.16946e-08
6.28418e-08
3.42402e-08
-4.53875e-08
-8.09621e-08
8.953e-08
2.3066e-08
-3.1634e-08
-9.75041e-08
9.9572e-08
-4.54304e-09
2.47513e-09
-9.85449e-08
9.31213e-08
-3.18637e-08
3.72874e-08
-8.48664e-08
7.57195e-08
-4.30972e-08
5.22441e-08
-6.29561e-08
5.17664e-08
-4.73137e-08
5.85034e-08
-3.88774e-08
2.78453e-08
-4.06313e-08
5.16634e-08
-1.74941e-08
8.95942e-09
-2.59086e-08
3.44432e-08
-1.47931e-09
-3.74885e-09
-6.8534e-09
1.20816e-08
7.41817e-09
-9.29155e-09
5.42918e-09
-3.55579e-09
1.00166e-08
-9.84608e-09
9.73154e-09
-9.9021e-09
9.01945e-09
-7.93589e-09
9.92044e-09
-1.1004e-08
6.53297e-09
-5.15033e-09
8.68176e-09
-1.00644e-08
3.64731e-09
-2.25097e-09
7.30205e-09
-8.69839e-09
8.48661e-10
3.80476e-10
5.91495e-09
-7.14409e-09
-1.56738e-09
2.56172e-09
4.58181e-09
-5.57615e-09
-3.4766e-09
4.20958e-09
3.37983e-09
-4.11281e-09
-4.85007e-09
5.3364e-09
2.36213e-09
-2.84845e-09
-5.74248e-09
6.02861e-09
1.52839e-09
-1.81451e-09
-6.23685e-09
6.35553e-09
8.63028e-10
-9.81715e-10
-6.40704e-09
6.38857e-09
3.29658e-10
-3.11192e-10
-6.30447e-09
6.16715e-09
-9.96675e-11
2.36983e-10
-5.96653e-09
5.72608e-09
-4.39574e-10
6.80024e-10
-5.42601e-09
5.10194e-09
-6.87602e-10
1.01167e-09
-4.72615e-09
4.34361e-09
-8.41991e-10
1.22453e-09
-3.92144e-09
3.50892e-09
-9.11923e-10
1.32445e-09
-3.07066e-09
2.65602e-09
-9.15417e-10
1.33006e-09
-2.22715e-09
1.83232e-09
-8.71467e-10
1.26629e-09
7.03121e-08
-7.82998e-08
7.98774e-09
-1.95788e-08
3.74194e-08
8.99094e-08
-1.0775e-07
-4.98701e-08
6.11073e-08
5.65926e-08
-6.78298e-08
-7.96585e-08
8.82646e-08
4.02278e-08
-4.8834e-08
-9.65074e-08
9.89387e-08
-1.46021e-10
-2.28535e-09
-9.83015e-08
9.33228e-08
-4.2343e-08
4.73217e-08
-8.56223e-08
7.7257e-08
-6.08139e-08
6.91792e-08
-6.52854e-08
5.52413e-08
-6.88867e-08
7.89309e-08
-4.3829e-08
3.43542e-08
-6.16777e-08
7.11526e-08
-2.59574e-08
1.94461e-08
-4.17961e-08
4.83074e-08
-1.37077e-08
9.48473e-09
-1.68582e-08
2.10812e-08
-6.21005e-09
4.28604e-09
1.50751e-09
4.16505e-10
-3.31087e-09
3.12666e-09
9.78668e-09
-9.60247e-09
-3.57351e-09
4.30062e-09
1.1827e-08
-1.25541e-08
-5.29585e-09
6.27543e-09
1.1213e-08
-1.21926e-08
-7.28312e-09
8.15252e-09
9.79879e-09
-1.06682e-08
-8.9549e-09
9.5889e-09
8.0476e-09
-8.68161e-09
-1.01177e-08
1.0488e-08
6.2269e-09
-6.59717e-09
-1.07524e-08
1.0887e-08
4.51389e-09
-4.64856e-09
-1.09263e-08
1.08739e-08
3.03584e-09
-2.98344e-09
-1.07391e-08
1.05442e-08
1.82898e-09
-1.63403e-09
-1.02831e-08
9.99024e-09
8.66428e-10
-5.73523e-10
-9.64179e-09
9.277e-09
9.29566e-11
2.71828e-10
-8.86182e-09
8.44002e-09
-5.43549e-10
9.65349e-10
-7.9685e-09
7.4963e-09
-1.06534e-09
1.53755e-09
-6.97485e-09
6.45858e-09
-1.46332e-09
1.97958e-09
-5.89632e-09
5.3489e-09
-1.72416e-09
2.27157e-09
-4.76378e-09
4.20512e-09
-1.84536e-09
2.40402e-09
-3.62018e-09
3.07307e-09
-1.84634e-09
2.39345e-09
-2.51071e-09
1.99429e-09
-1.75511e-09
2.27153e-09
8.61429e-08
-9.38735e-08
7.73062e-09
-1.91773e-08
3.71561e-08
1.25654e-07
-1.43633e-07
-4.95387e-08
6.07421e-08
7.90651e-08
-9.02684e-08
-7.95926e-08
8.83244e-08
5.74868e-08
-6.62185e-08
-9.65847e-08
9.91703e-08
4.78848e-09
-7.37415e-09
-9.85735e-08
9.34967e-08
-5.23322e-08
5.7409e-08
-8.58359e-08
7.74958e-08
-7.75037e-08
8.58438e-08
-6.5399e-08
5.54105e-08
-8.88906e-08
9.88791e-08
-4.40387e-08
3.47777e-08
-8.04273e-08
8.96884e-08
-2.68533e-08
2.09798e-08
-5.43616e-08
6.02351e-08
-1.60418e-08
1.2533e-08
-2.48664e-08
2.83753e-08
-9.84315e-09
8.29107e-09
-2.14635e-09
3.69843e-09
-7.58863e-09
7.52472e-09
9.4613e-09
-9.39738e-09
-8.0371e-09
8.73696e-09
1.32474e-08
-1.39472e-08
-9.6459e-09
1.04843e-08
1.30812e-08
-1.39197e-08
-1.12801e-08
1.18997e-08
1.13808e-08
-1.20004e-08
-1.2398e-08
1.27291e-08
9.12697e-09
-9.45807e-09
-1.29288e-08
1.29943e-08
6.77881e-09
-6.84434e-09
-1.29431e-08
1.27957e-08
4.60508e-09
-4.45774e-09
-1.2548e-08
1.22344e-08
2.76932e-09
-2.45574e-09
-1.18394e-08
1.14145e-08
1.29902e-09
-8.74079e-10
-1.0924e-08
1.04293e-08
1.58967e-10
3.3578e-10
-9.88572e-09
9.355e-09
-7.34639e-10
1.26537e-09
-8.78792e-09
8.24522e-09
-1.45946e-09
2.00215e-09
-7.672e-09
7.12853e-09
-2.05559e-09
2.59905e-09
-6.559e-09
6.02192e-09
-2.51581e-09
3.05289e-09
-5.46142e-09
4.93541e-09
-2.81886e-09
3.34487e-09
-4.39032e-09
3.8825e-09
-2.94832e-09
3.45614e-09
-3.36129e-09
2.88023e-09
-2.91928e-09
3.40034e-09
-2.39095e-09
1.94451e-09
-2.76408e-09
3.21051e-09
1.01497e-07
-1.09008e-07
7.51131e-09
-1.89656e-08
3.71053e-08
1.6169e-07
-1.7983e-07
-4.9517e-08
6.05879e-08
1.01415e-07
-1.12486e-07
-7.98542e-08
8.87875e-08
7.50468e-08
-8.39801e-08
-9.7046e-08
9.98495e-08
1.006e-08
-1.28635e-08
-9.92732e-08
9.40323e-08
-6.25637e-08
6.78046e-08
-8.63693e-08
7.79716e-08
-9.42124e-08
1.0261e-07
-6.55848e-08
5.54373e-08
-1.08939e-07
1.19086e-07
-4.37451e-08
3.43007e-08
-9.90218e-08
1.08466e-07
-2.63511e-08
2.04522e-08
-6.60841e-08
7.1983e-08
-1.56167e-08
1.23179e-08
-3.17376e-08
3.50364e-08
-9.89437e-09
8.5928e-09
-5.10887e-09
6.41044e-09
-8.13407e-09
8.24673e-09
9.42081e-09
-9.53346e-09
-8.92023e-09
9.69727e-09
1.46766e-08
-1.54537e-08
-1.06549e-08
1.14892e-08
1.47421e-08
-1.55764e-08
-1.22466e-08
1.28063e-08
1.25739e-08
-1.31337e-08
-1.32267e-08
1.34745e-08
9.72653e-09
-9.97435e-09
-1.35866e-08
1.3567e-08
6.84904e-09
-6.82944e-09
-1.3431e-08
1.31999e-08
4.25254e-09
-4.02148e-09
-1.28627e-08
1.24648e-08
2.08719e-09
-1.68931e-09
-1.19791e-08
1.14627e-08
3.91886e-10
1.24458e-10
-1.08772e-08
1.02907e-08
-8.85243e-10
1.47167e-09
-9.65373e-09
9.03884e-09
-1.84418e-09
2.45908e-09
-8.39016e-09
7.78141e-09
-2.58191e-09
3.19065e-09
-7.15298e-09
6.5736e-09
-3.16171e-09
3.74109e-09
-5.98551e-09
5.44993e-09
-3.58761e-09
4.12319e-09
-4.91096e-09
4.42276e-09
-3.84821e-09
4.33641e-09
-3.93356e-09
3.49173e-09
-3.92613e-09
4.36796e-09
-3.04943e-09
2.64963e-09
-3.83542e-09
4.23522e-09
-2.24882e-09
1.88668e-09
-3.60938e-09
3.97152e-09
1.16396e-07
-1.23647e-07
7.25101e-09
-1.87261e-08
3.70528e-08
1.98057e-07
-2.16384e-07
-4.95409e-08
6.04133e-08
1.23466e-07
-1.34338e-07
-8.02294e-08
8.93864e-08
9.30244e-08
-1.02181e-07
-9.7654e-08
1.00745e-07
1.58019e-08
-1.8893e-08
-1.00192e-07
9.47486e-08
-7.31417e-08
7.85852e-08
-8.70847e-08
7.86304e-08
-1.11037e-07
1.19491e-07
-6.58861e-08
5.5531e-08
-1.29333e-07
1.39688e-07
-4.34176e-08
3.36943e-08
-1.18043e-07
1.27766e-07
-2.56549e-08
1.95811e-08
-7.79637e-08
8.40375e-08
-1.46461e-08
1.13612e-08
-3.83175e-08
4.16024e-08
-9.03276e-09
7.89333e-09
-7.62517e-09
8.76461e-09
-7.63202e-09
7.92677e-09
9.73624e-09
-1.0031e-08
-8.80425e-09
9.71008e-09
1.62894e-08
-1.71953e-08
-1.0793e-08
1.17006e-08
1.64391e-08
-1.73466e-08
-1.25092e-08
1.30947e-08
1.36992e-08
-1.42847e-08
-1.35347e-08
1.37927e-08
1.02207e-08
-1.04787e-08
-1.39116e-08
1.38993e-08
6.8079e-09
-6.7956e-09
-1.37629e-08
1.35272e-08
3.78259e-09
-3.54683e-09
-1.31782e-08
1.27615e-08
1.27898e-09
-8.62234e-10
-1.22488e-08
1.17006e-08
-6.60042e-10
1.20828e-09
-1.10749e-08
1.04456e-08
-2.08316e-09
2.71242e-09
-9.76103e-09
9.1001e-09
-3.10048e-09
3.7614e-09
-8.40414e-09
7.75292e-09
-3.82336e-09
4.47457e-09
-7.08538e-09
6.47604e-09
-4.33631e-09
4.94565e-09
-5.8649e-09
5.31574e-09
-4.66394e-09
5.2131e-09
-4.7719e-09
4.28824e-09
-4.81842e-09
5.30208e-09
-3.81238e-09
3.38975e-09
-4.79469e-09
5.21732e-09
-2.97345e-09
2.6018e-09
-4.61432e-09
4.98597e-09
-2.233e-09
1.90169e-09
-4.31143e-09
4.64275e-09
1.30748e-07
-1.37685e-07
6.93715e-09
-1.84161e-08
3.70156e-08
2.34832e-07
-2.53432e-07
-4.9569e-08
6.0179e-08
1.45087e-07
-1.55697e-07
-8.06753e-08
9.00607e-08
1.11452e-07
-1.20837e-07
-9.83548e-08
1.01807e-07
2.21549e-08
-2.56066e-08
-1.0128e-07
9.55886e-08
-8.41464e-08
8.98382e-08
-8.79284e-08
7.94247e-08
-1.27971e-07
1.36475e-07
-6.62593e-08
5.5656e-08
-1.50161e-07
1.60765e-07
-4.30319e-08
3.29755e-08
-1.37649e-07
1.47705e-07
-2.4865e-08
1.85897e-08
-9.02097e-08
9.6485e-08
-1.35185e-08
1.02033e-08
-4.49003e-08
4.82154e-08
-7.91734e-09
6.92015e-09
-9.83337e-09
1.08306e-08
-6.85007e-09
7.34372e-09
1.04222e-08
-1.09158e-08
-8.46175e-09
9.53084e-09
1.81812e-08
-1.92503e-08
-1.07864e-08
1.18058e-08
1.83069e-08
-1.93263e-08
-1.27002e-08
1.33514e-08
1.49013e-08
-1.55525e-08
-1.38409e-08
1.41353e-08
1.07539e-08
-1.10483e-08
-1.42912e-08
1.43069e-08
6.79459e-09
-6.8103e-09
-1.41984e-08
1.39812e-08
3.32018e-09
-3.10295e-09
-1.3647e-08
1.32344e-08
4.47816e-10
-3.52211e-11
-1.2718e-08
1.21598e-08
-1.76194e-09
2.32022e-09
-1.15168e-08
1.08673e-08
-3.35324e-09
4.00267e-09
-1.01567e-08
9.4682e-09
-4.4372e-09
5.12566e-09
-8.74327e-09
8.06503e-09
-5.14036e-09
5.81861e-09
-7.36976e-09
6.7341e-09
-5.56831e-09
6.20397e-09
-6.09672e-09
5.5243e-09
-5.77312e-09
6.34554e-09
-4.95804e-09
4.4546e-09
-5.79358e-09
6.29702e-09
-3.96014e-09
3.52135e-09
-5.64492e-09
6.08371e-09
-3.08908e-09
2.70358e-09
-5.36034e-09
5.74583e-09
-2.32131e-09
1.97816e-09
-4.97617e-09
5.31932e-09
1.44444e-07
-1.51009e-07
6.56545e-09
-1.8024e-08
3.70109e-08
2.7221e-07
-2.91197e-07
-4.96e-08
5.98841e-08
1.66152e-07
-1.76436e-07
-8.11839e-08
9.08007e-08
1.30338e-07
-1.39954e-07
-9.9141e-08
1.03031e-07
2.92674e-08
-3.31574e-08
-1.0254e-07
9.65478e-08
-9.56735e-08
1.01666e-07
-8.88964e-08
8.03577e-08
-1.44999e-07
1.53537e-07
-6.67093e-08
5.58114e-08
-1.71509e-07
1.82407e-07
-4.25658e-08
3.21254e-08
-1.57948e-07
1.68388e-07
-2.39818e-08
1.74845e-08
-1.02868e-07
1.09366e-07
-1.22591e-08
8.90332e-09
-5.15498e-08
5.49055e-08
-6.64113e-09
5.79717e-09
-1.17535e-08
1.25975e-08
-5.93378e-09
6.65588e-09
1.1519e-08
-1.22411e-08
-8.05398e-09
9.31417e-09
2.04117e-08
-2.16719e-08
-1.07811e-08
1.1937e-08
2.04115e-08
-2.15673e-08
-1.29384e-08
1.36642e-08
1.6241e-08
-1.69668e-08
-1.42142e-08
1.45502e-08
1.13652e-08
-1.17012e-08
-1.47475e-08
1.48071e-08
6.8469e-09
-6.90648e-09
-1.47355e-08
1.45491e-08
2.90279e-09
-2.71638e-09
-1.42385e-08
1.38395e-08
-3.71094e-10
7.70044e-10
-1.3327e-08
1.27654e-08
-2.88073e-09
3.44238e-09
-1.21113e-08
1.14456e-08
-4.66053e-09
5.32622e-09
-1.07153e-08
1.00061e-08
-5.82432e-09
6.53352e-09
-9.2577e-09
8.55566e-09
-6.50794e-09
7.20998e-09
-7.83368e-09
7.17234e-09
-6.85224e-09
7.51358e-09
-6.50646e-09
5.90532e-09
-6.93158e-09
7.53271e-09
-5.30724e-09
4.77243e-09
-6.81502e-09
7.34983e-09
-4.24318e-09
3.77058e-09
-6.53825e-09
7.01084e-09
-3.30239e-09
2.88278e-09
-6.14687e-09
6.56648e-09
-2.46529e-09
2.08938e-09
-5.67724e-09
6.05315e-09
1.57367e-07
-1.63501e-07
6.13453e-09
-1.75419e-08
3.70408e-08
3.10425e-07
-3.29924e-07
-4.96455e-08
5.95419e-08
1.86535e-07
-1.96431e-07
-8.17576e-08
9.1614e-08
1.4969e-07
-1.59546e-07
-1.00025e-07
1.04439e-07
3.72983e-08
-4.17127e-08
-1.03995e-07
9.76437e-08
-1.0783e-07
1.14181e-07
-9.00021e-08
8.14535e-08
-1.62085e-07
1.70634e-07
-6.72631e-08
5.60177e-08
-1.93472e-07
2.04718e-07
-4.20088e-08
3.11365e-08
-1.79039e-07
1.89912e-07
-2.30198e-08
1.62664e-08
-1.15986e-07
1.22739e-07
-1.08548e-08
7.44713e-09
-5.82857e-08
6.16934e-08
-5.19264e-09
4.52403e-09
-1.3357e-08
1.40256e-08
-4.89092e-09
5.87846e-09
1.30912e-08
-1.40788e-08
-7.6058e-09
9.087e-09
2.30375e-08
-2.45187e-08
-1.08083e-08
1.21229e-08
2.27999e-08
-2.41144e-08
-1.32423e-08
1.40456e-08
1.77295e-08
-1.85329e-08
-1.46592e-08
1.50394e-08
1.20612e-08
-1.24414e-08
-1.52845e-08
1.53901e-08
6.98801e-09
-7.09358e-09
-1.53654e-08
1.5217e-08
2.54871e-09
-2.40026e-09
-1.49372e-08
1.45589e-08
-1.15947e-09
1.53778e-09
-1.40526e-08
1.34883e-08
-4.00571e-09
4.57002e-09
-1.2822e-08
1.21394e-08
-5.99936e-09
6.68194e-09
-1.13853e-08
1.06509e-08
-7.25309e-09
7.98748e-09
-9.87415e-09
9.14312e-09
-7.92533e-09
8.65636e-09
-8.38998e-09
7.69708e-09
-8.18986e-09
8.88276e-09
-6.99622e-09
6.36064e-09
-8.15073e-09
8.78631e-09
-5.72419e-09
5.15094e-09
-7.90323e-09
8.47648e-09
-4.57997e-09
4.06627e-09
-7.50324e-09
8.01695e-09
-3.55483e-09
3.09451e-09
-7.00629e-09
7.46661e-09
-2.63448e-09
2.22009e-09
-6.44829e-09
6.86268e-09
1.69399e-07
-1.75049e-07
5.64922e-09
-1.69527e-08
3.7089e-08
3.49724e-07
-3.6986e-07
-4.97059e-08
5.91374e-08
2.06106e-07
-2.15537e-07
-8.23599e-08
9.24755e-08
1.69528e-07
-1.79643e-07
-1.00985e-07
1.06022e-07
4.64248e-08
-5.14617e-08
-1.05633e-07
9.88629e-08
-1.20733e-07
1.27503e-07
-9.12222e-08
8.27066e-08
-1.79172e-07
1.87688e-07
-6.79322e-08
5.62799e-08
-2.16157e-07
2.2781e-07
-4.1329e-08
2.99902e-08
-2.01014e-07
2.12352e-07
-2.20008e-08
1.4937e-08
-1.29639e-07
1.36702e-07
-9.28486e-09
5.80803e-09
-6.51326e-08
6.86095e-08
-3.5463e-09
3.07966e-09
-1.45965e-08
1.50632e-08
-3.70979e-09
5.00819e-09
1.52161e-08
-1.65145e-08
-7.11873e-09
8.85421e-09
2.61231e-08
-2.78586e-08
-1.08761e-08
1.23782e-08
2.55187e-08
-2.70208e-08
-1.36169e-08
1.4512e-08
1.93825e-08
-2.02776e-08
-1.51789e-08
1.55961e-08
1.28412e-08
-1.32584e-08
-1.58905e-08
1.60508e-08
7.22532e-09
-7.38568e-09
-1.60821e-08
1.59862e-08
2.27924e-09
-2.18334e-09
-1.57478e-08
1.53945e-08
-1.90385e-09
2.25717e-09
-1.48978e-08
1.4328e-08
-5.13764e-09
5.70751e-09
-1.36427e-08
1.29325e-08
-7.3763e-09
8.08643e-09
-1.21463e-08
1.13784e-08
-8.73663e-09
9.50449e-09
-1.05633e-08
9.79531e-09
-9.4046e-09
1.01726e-08
-9.00206e-09
8.27064e-09
-9.59446e-09
1.03259e-08
-7.52736e-09
6.85107e-09
-9.44157e-09
1.01179e-08
-6.17042e-09
5.55433e-09
-9.07047e-09
9.68656e-09
-4.93808e-09
4.38134e-09
-8.55192e-09
9.10865e-09
-3.8244e-09
3.32165e-09
-7.94809e-09
8.45084e-09
-2.81812e-09
2.36305e-09
-7.29679e-09
7.75186e-09
1.80436e-07
-1.85548e-07
5.11236e-09
-1.62366e-08
3.71469e-08
3.90366e-07
-4.11276e-07
-4.9784e-08
5.8655e-08
2.247e-07
-2.33571e-07
-8.29501e-08
9.33721e-08
1.89904e-07
-2.00326e-07
-1.02016e-07
1.07792e-07
5.68522e-08
-6.26278e-08
-1.07458e-07
1.0022e-07
-1.34503e-07
1.41741e-07
-9.2537e-08
8.41177e-08
-1.96165e-07
2.04584e-07
-6.87582e-08
5.6614e-08
-2.39695e-07
2.51839e-07
-4.04881e-08
2.86735e-08
-2.23931e-07
2.35745e-07
-2.09706e-08
1.35079e-08
-1.43953e-07
1.51416e-07
-7.52592e-09
3.95389e-09
-7.213e-08
7.5702e-08
-1.67523e-09
1.43405e-09
-1.5419e-08
1.56602e-08
-2.37256e-09
4.04225e-09
1.79916e-08
-1.96613e-08
-6.59173e-09
8.62787e-09
2.97387e-08
-3.17749e-08
-1.10013e-08
1.2715e-08
2.86246e-08
-3.03383e-08
-1.40733e-08
1.50637e-08
2.12157e-08
-2.22062e-08
-1.57779e-08
1.62183e-08
1.3689e-08
-1.41294e-08
-1.65662e-08
1.67876e-08
7.57712e-09
-7.79851e-09
-1.68841e-08
1.68598e-08
2.11838e-09
-2.09409e-09
-1.66818e-08
1.63603e-08
-2.59737e-09
2.91892e-09
-1.58745e-08
1.52941e-08
-6.28155e-09
6.86195e-09
-1.45814e-08
1.38365e-08
-8.81271e-09
9.55766e-09
-1.30032e-08
1.21884e-08
-1.02942e-08
1.11091e-08
-1.13222e-08
1.05052e-08
-1.09631e-08
1.17801e-08
-9.66122e-09
8.88123e-09
-1.10805e-08
1.18605e-08
-8.0885e-09
7.36522e-09
-1.08168e-08
1.154e-08
-6.63584e-09
5.97432e-09
-1.03249e-08
1.09864e-08
-5.31024e-09
4.70906e-09
-9.68754e-09
1.02887e-08
-4.10655e-09
3.56077e-09
-8.97517e-09
9.52095e-09
-3.01321e-09
2.51837e-09
-8.22694e-09
8.72178e-09
1.90369e-07
-1.94881e-07
4.51247e-09
-1.53684e-08
3.72134e-08
4.32633e-07
-4.54478e-07
-4.98651e-08
5.80751e-08
2.42127e-07
-2.50337e-07
-8.34787e-08
9.43046e-08
2.10934e-07
-2.2176e-07
-1.03136e-07
1.09791e-07
6.88242e-08
-7.54795e-08
-1.09488e-07
1.01771e-07
-1.49221e-07
1.56937e-07
-9.39048e-08
8.56893e-08
-2.12921e-07
2.21137e-07
-6.98422e-08
5.7029e-08
-2.64285e-07
2.77098e-07
-3.94273e-08
2.71794e-08
-2.47788e-07
2.60036e-07
-1.99679e-08
1.20044e-08
-1.5912e-07
1.67083e-07
-5.54942e-09
1.84852e-09
-7.93352e-08
8.30361e-08
4.13746e-10
-3.86097e-10
-1.58e-08
1.57724e-08
-8.94823e-10
2.97524e-09
2.15299e-08
-2.36103e-08
-6.03018e-09
8.41031e-09
3.39782e-08
-3.63583e-08
-1.12059e-08
1.31611e-08
3.2168e-08
-3.41233e-08
-1.46302e-08
1.57265e-08
2.32458e-08
-2.43422e-08
-1.64638e-08
1.69035e-08
1.45755e-08
-1.50152e-08
-1.73105e-08
1.7599e-08
8.05193e-09
-8.34049e-09
-1.7777e-08
1.78489e-08
2.11283e-09
-2.18472e-09
-1.77571e-08
1.74789e-08
-3.22141e-09
3.49966e-09
-1.70035e-08
1.64056e-08
-7.44958e-09
8.04745e-09
-1.56544e-08
1.48579e-08
-1.03258e-08
1.11223e-08
-1.39647e-08
1.30875e-08
-1.19528e-08
1.283e-08
-1.21558e-08
1.12774e-08
-1.2626e-08
1.35043e-08
-1.037e-08
9.53187e-09
-1.26681e-08
1.35062e-08
-8.68025e-09
7.90239e-09
-1.22898e-08
1.30677e-08
-7.11796e-09
6.40496e-09
-1.16729e-08
1.23859e-08
-5.68885e-09
5.04041e-09
-1.09131e-08
1.15615e-08
-4.39041e-09
3.80225e-09
-1.00877e-08
1.06759e-08
-3.21303e-09
2.68099e-09
-9.23566e-09
9.76771e-09
1.99067e-07
-2.02908e-07
3.84002e-09
-1.43054e-08
3.72697e-08
4.76856e-07
-4.99821e-07
-4.99377e-08
5.73307e-08
2.58163e-07
-2.65556e-07
-8.3833e-08
9.52323e-08
2.32845e-07
-2.44244e-07
-1.0433e-07
1.12023e-07
8.26336e-08
-9.03259e-08
-1.1171e-07
1.03556e-07
-1.64877e-07
1.73031e-07
-9.51513e-08
8.74338e-08
-2.29163e-07
2.3688e-07
-7.13537e-08
5.74296e-08
-2.90383e-07
3.04307e-07
-3.80111e-08
2.5498e-08
-2.7245e-07
2.84963e-07
-1.90101e-08
1.04633e-08
-1.75341e-07
1.83887e-07
-3.30396e-09
-5.13643e-10
-8.68242e-08
9.06418e-08
2.7825e-09
-2.37397e-09
-1.55436e-08
1.51351e-08
7.80474e-10
1.78368e-09
2.59225e-08
-2.84867e-08
-5.42823e-09
8.2115e-09
3.89352e-08
-4.17185e-08
-1.1511e-08
1.37377e-08
3.62103e-08
-3.8437e-08
-1.5305e-08
1.65189e-08
2.54925e-08
-2.67064e-08
-1.72356e-08
1.76402e-08
1.54487e-08
-1.58533e-08
-1.81109e-08
1.84774e-08
8.66781e-09
-9.03427e-09
-1.87534e-08
1.89729e-08
2.32232e-09
-2.54184e-09
-1.90072e-08
1.87813e-08
-3.75222e-09
3.97815e-09
-1.83105e-08
1.76833e-08
-8.65759e-09
9.28481e-09
-1.68761e-08
1.60129e-08
-1.19503e-08
1.28134e-08
-1.50391e-08
1.40832e-08
-1.37446e-08
1.47006e-08
-1.30679e-08
1.21146e-08
-1.44186e-08
1.53719e-08
-1.11311e-08
1.02251e-08
-1.43765e-08
1.52825e-08
-9.30614e-09
8.4687e-09
-1.38745e-08
1.47119e-08
-7.62515e-09
6.85944e-09
-1.31253e-08
1.3891e-08
-6.0903e-09
5.39331e-09
-1.22346e-08
1.29316e-08
-4.69436e-09
4.06232e-09
-1.12857e-08
1.19177e-08
-3.4292e-09
2.85732e-09
-1.03187e-08
1.08906e-08
2.06382e-07
-2.09472e-07
3.09035e-09
-1.29885e-08
3.72896e-08
5.23424e-07
-5.47725e-07
-5.00307e-08
5.63281e-08
2.72448e-07
-2.78745e-07
-8.38662e-08
9.61241e-08
2.56027e-07
-2.68285e-07
-1.05625e-07
1.145e-07
9.85929e-08
-1.07468e-07
-1.1419e-07
1.05541e-07
-1.81407e-07
1.90056e-07
-9.60498e-08
8.96262e-08
-2.44092e-07
2.50516e-07
-7.34909e-08
5.74968e-08
-3.19111e-07
3.35105e-07
-3.60009e-08
2.36497e-08
-2.97475e-07
3.09826e-07
-1.82191e-08
8.93298e-09
-1.92804e-07
2.0209e-07
-7.24018e-10
-3.04219e-09
-9.45035e-08
9.82697e-08
5.49679e-09
-4.65329e-09
-1.44726e-08
1.36291e-08
2.66797e-09
4.37102e-10
3.13453e-08
-3.44504e-08
-4.78686e-09
8.07126e-09
4.47334e-08
-4.80178e-08
-1.19583e-08
1.44785e-08
4.08145e-08
-4.33347e-08
-1.61269e-08
1.74752e-08
2.79882e-08
-2.93365e-08
-1.80918e-08
1.84109e-08
1.62276e-08
-1.65467e-08
-1.8975e-08
1.94197e-08
9.43866e-09
-9.88336e-09
-1.9801e-08
2.0258e-08
2.86602e-09
-3.323e-09
-2.0488e-08
2.03212e-08
-4.17529e-09
4.34202e-09
-1.98347e-08
1.9155e-08
-9.93396e-09
1.06137e-08
-1.82677e-08
1.73148e-08
-1.37181e-08
1.4671e-08
-1.62367e-08
1.51798e-08
-1.57041e-08
1.6761e-08
-1.40618e-08
1.30137e-08
-1.63709e-08
1.7419e-08
-1.19379e-08
1.0952e-08
-1.62269e-08
1.72129e-08
-9.95668e-09
9.05336e-09
-1.55808e-08
1.64842e-08
-8.14729e-09
7.32791e-09
-1.46831e-08
1.55025e-08
-6.50683e-09
5.76348e-09
-1.36515e-08
1.43949e-08
-5.01751e-09
4.34154e-09
-1.25721e-08
1.32481e-08
-3.66192e-09
3.04721e-09
-1.1484e-08
1.20987e-08
2.1216e-07
-2.14426e-07
2.2664e-09
-1.13201e-08
3.7226e-08
5.72793e-07
-5.98699e-07
-5.0215e-08
5.48959e-08
2.84322e-07
-2.89003e-07
-8.33452e-08
9.69734e-08
2.81142e-07
-2.9477e-07
-1.0706e-07
1.17258e-07
1.16987e-07
-1.27186e-07
-1.17085e-07
1.07503e-07
-1.99089e-07
2.0867e-07
-9.67418e-08
9.28743e-08
-2.55815e-07
2.59683e-07
-7.60226e-08
5.6679e-08
-3.52633e-07
3.71977e-07
-3.31263e-08
2.17423e-08
-3.21823e-07
3.33207e-07
-1.78468e-08
7.50106e-09
-2.11904e-07
2.22249e-07
1.97429e-09
-5.90308e-09
-1.02164e-07
1.06092e-07
8.5934e-09
-7.23259e-09
-1.24533e-08
1.10925e-08
4.81171e-09
-9.50382e-10
3.80095e-08
-4.18708e-08
-4.06599e-09
7.96115e-09
5.1529e-08
-5.54241e-08
-1.25485e-08
1.54058e-08
4.60365e-08
-4.88938e-08
-1.7152e-08
1.86346e-08
3.07618e-08
-3.22444e-08
-1.90107e-08
1.92126e-08
1.68079e-08
-1.70098e-08
-1.99492e-08
2.04451e-08
1.03634e-08
-1.08593e-08
-2.09232e-08
2.17951e-08
3.95554e-09
-4.82736e-09
-2.23694e-08
2.22413e-08
-4.48232e-09
4.6104e-09
-2.16603e-08
2.08672e-08
-1.13365e-08
1.21296e-08
-1.98626e-08
1.87902e-08
-1.56795e-08
1.6752e-08
-1.75794e-08
1.63933e-08
-1.788e-08
1.90662e-08
-1.51479e-08
1.39874e-08
-1.85207e-08
1.96812e-08
-1.28021e-08
1.17218e-08
-1.82441e-08
1.93244e-08
-1.06366e-08
9.65563e-09
-1.74244e-08
1.84054e-08
-8.67384e-09
7.788e-09
-1.63532e-08
1.72391e-08
-6.9033e-09
6.10575e-09
-1.51638e-08
1.59613e-08
-5.30906e-09
4.59069e-09
-1.39459e-08
1.46643e-08
-3.87324e-09
3.22708e-09
-1.27311e-08
1.33772e-08
2.16252e-07
-2.17614e-07
1.36217e-09
-9.12194e-09
3.69607e-08
6.25523e-07
-6.53361e-07
-5.05888e-08
5.25962e-08
2.92535e-07
-2.94542e-07
-8.17286e-08
9.77693e-08
3.09418e-07
-3.25459e-07
-1.08643e-07
1.20327e-07
1.38104e-07
-1.49788e-07
-1.20437e-07
1.09206e-07
-2.18991e-07
2.30222e-07
-9.78899e-08
9.71714e-08
-2.61952e-07
2.62671e-07
-7.80394e-08
5.49345e-08
-3.93258e-07
4.16363e-07
-2.9635e-08
2.02303e-08
-3.43727e-07
3.53131e-07
-1.82303e-08
6.12646e-09
-2.33462e-07
2.45566e-07
5.30247e-09
-9.41599e-09
-1.10156e-07
1.14269e-07
1.18712e-08
-9.94651e-09
-9.22111e-09
7.29641e-09
7.30653e-09
-2.45061e-09
4.6179e-08
-5.10349e-08
-3.48179e-09
7.93679e-09
5.95126e-08
-6.39676e-08
-1.32749e-08
1.65316e-08
5.19453e-08
-5.5202e-08
-1.83641e-08
1.99716e-08
3.37927e-08
-3.54001e-08
-1.99726e-08
2.01457e-08
1.717e-08
-1.73432e-08
-2.12087e-08
2.15941e-08
1.13333e-08
-1.17187e-08
-2.21798e-08
2.3928e-08
6.05461e-09
-7.80275e-09
-2.51447e-08
2.48996e-08
-4.76085e-09
5.00592e-09
-2.39696e-08
2.29033e-08
-1.30297e-08
1.4096e-08
-2.16896e-08
2.04502e-08
-1.79019e-08
1.91413e-08
-1.90683e-08
1.77147e-08
-2.03286e-08
2.16822e-08
-1.63051e-08
1.49998e-08
-2.09097e-08
2.2215e-08
-1.3682e-08
1.24963e-08
-2.04562e-08
2.16419e-08
-1.13185e-08
1.02607e-08
-1.9426e-08
2.04837e-08
-9.20531e-09
8.2533e-09
-1.81597e-08
1.91118e-08
-7.30312e-09
6.44853e-09
-1.67886e-08
1.76432e-08
-5.59936e-09
4.83851e-09
-1.54029e-08
1.61637e-08
-4.08302e-09
3.40628e-09
-1.40363e-08
1.4713e-08
2.18484e-07
-2.18816e-07
3.31904e-10
-6.06493e-09
3.62743e-08
6.82323e-07
-7.12533e-07
-5.13317e-08
4.82615e-08
2.94452e-07
-2.91382e-07
-7.76781e-08
9.85455e-08
3.43465e-07
-3.64333e-07
-1.10437e-07
1.23725e-07
1.62272e-07
-1.7556e-07
-1.24197e-07
1.10793e-07
-2.42489e-07
2.55894e-07
-9.95419e-08
1.01232e-07
-2.62062e-07
2.60372e-07
-7.95039e-08
5.38612e-08
-4.40953e-07
4.66596e-07
-2.70914e-08
2.01526e-08
-3.61297e-07
3.68236e-07
-1.95857e-08
4.91276e-09
-2.5877e-07
2.73443e-07
9.09061e-09
-1.3488e-08
-1.18562e-07
1.22959e-07
1.59669e-08
-1.27926e-08
-4.75367e-09
1.57938e-09
9.70799e-09
-4.08684e-09
5.61126e-08
-6.17337e-08
-2.86012e-09
7.96629e-09
6.87809e-08
-7.38871e-08
-1.42633e-08
1.80199e-08
5.87304e-08
-6.2487e-08
-1.98997e-08
2.14981e-08
3.70053e-08
-3.86036e-08
-2.10585e-08
2.15896e-08
1.76336e-08
-1.81647e-08
-2.30539e-08
2.28828e-08
1.19057e-08
-1.17347e-08
-2.36734e-08
2.69716e-08
1.02666e-08
-1.35648e-08
-2.91628e-08
2.84858e-08
-5.43833e-09
6.11526e-09
-2.68492e-08
2.53163e-08
-1.53864e-08
1.69193e-08
-2.37795e-08
2.23331e-08
-2.04802e-08
2.19266e-08
-2.07471e-08
1.91773e-08
-2.31396e-08
2.47093e-08
-1.75598e-08
1.60817e-08
-2.3607e-08
2.50852e-08
-1.46143e-08
1.33124e-08
-2.28823e-08
2.41842e-08
-1.20313e-08
1.08938e-08
-2.15785e-08
2.2716e-08
-9.77195e-09
8.76967e-09
-2.00896e-08
2.10919e-08
-7.77368e-09
6.87679e-09
-1.8521e-08
1.94179e-08
-5.9795e-09
5.16834e-09
-1.69492e-08
1.77604e-08
-4.35503e-09
3.62207e-09
-1.54144e-08
1.61474e-08
2.18692e-07
-2.18194e-07
-4.97232e-10
-1.77496e-09
3.47919e-08
7.44121e-07
-7.77138e-07
-5.27195e-08
3.91045e-08
2.83997e-07
-2.70382e-07
-6.81261e-08
9.94919e-08
3.8944e-07
-4.20806e-07
-1.12674e-07
1.27332e-07
1.89603e-07
-2.04261e-07
-1.28477e-07
1.12268e-07
-2.70579e-07
2.86788e-07
-1.00724e-07
1.04656e-07
-2.57674e-07
2.53742e-07
-8.22345e-08
5.51729e-08
-4.92998e-07
5.20059e-07
-2.7097e-08
2.17777e-08
-3.74075e-07
3.79394e-07
-2.03147e-08
3.35412e-09
-2.89923e-07
3.06884e-07
1.29582e-08
-1.71952e-08
-1.26819e-07
1.31056e-07
2.02346e-08
-1.65617e-08
1.71368e-09
-5.38658e-09
1.26132e-08
-6.13137e-09
6.802e-08
-7.45018e-08
-1.73782e-09
8.2177e-09
7.94781e-08
-8.5958e-08
-1.54396e-08
1.94035e-08
6.63943e-08
-7.03582e-08
-2.1484e-08
2.32006e-08
4.0251e-08
-4.19676e-08
-2.27838e-08
2.41916e-08
1.90626e-08
-2.04704e-08
-2.55049e-08
2.38889e-08
1.09916e-08
-9.3756e-09
-2.42778e-08
2.87105e-08
1.75997e-08
-2.20325e-08
-3.19984e-08
3.12351e-08
-6.9541e-09
7.71735e-09
-2.95235e-08
2.79034e-08
-1.86216e-08
2.02418e-08
-2.60599e-08
2.43541e-08
-2.34972e-08
2.5203e-08
-2.25538e-08
2.07321e-08
-2.6396e-08
2.82177e-08
-1.88728e-08
1.71861e-08
-2.66598e-08
2.83465e-08
-1.55357e-08
1.40939e-08
-2.55565e-08
2.69983e-08
-1.26926e-08
1.14645e-08
-2.38995e-08
2.51276e-08
-1.02651e-08
9.20356e-09
-2.21206e-08
2.31822e-08
-8.15707e-09
7.2178e-09
-2.03342e-08
2.12735e-08
-6.27914e-09
5.42899e-09
-1.85941e-08
1.94443e-08
-4.5748e-09
3.80278e-09
-1.69066e-08
1.76786e-08
2.17277e-07
-2.15906e-07
-1.371e-09
4.66256e-09
3.2196e-08
8.11865e-07
-8.48724e-07
-5.47693e-08
2.07791e-08
2.48017e-07
-2.14026e-07
-4.74383e-08
9.9995e-08
4.61154e-07
-5.13711e-07
-1.15913e-07
1.30954e-07
2.19279e-07
-2.3432e-07
-1.33454e-07
1.12869e-07
-3.04912e-07
3.25496e-07
-1.00592e-07
1.08451e-07
-2.48099e-07
2.4024e-07
-8.6853e-08
5.75193e-08
-5.48587e-07
5.7792e-07
-2.85999e-08
2.24394e-08
-3.84313e-07
3.90474e-07
-1.75527e-08
-9.08093e-10
-3.246e-07
3.43061e-07
2.02796e-08
-2.31394e-08
-1.35503e-07
1.38363e-07
2.50007e-08
-1.97853e-08
1.04128e-08
-1.56282e-08
1.5758e-08
-8.62141e-09
8.10588e-08
-8.81955e-08
-5.12864e-10
8.58337e-09
9.34137e-08
-1.01484e-07
-1.65394e-08
2.12766e-08
7.45048e-08
-7.9242e-08
-2.39132e-08
2.54456e-08
4.35932e-08
-4.51256e-08
-2.56339e-08
2.77599e-08
2.23944e-08
-2.45205e-08
-2.75804e-08
2.3739e-08
6.61727e-09
-2.77586e-09
-2.32112e-08
2.73452e-08
2.64559e-08
-3.05899e-08
-3.05046e-08
3.0003e-08
-8.22066e-09
8.72223e-09
-3.01562e-08
3.03766e-08
-2.12943e-08
2.10739e-08
-2.88555e-08
2.68143e-08
-2.70655e-08
2.91067e-08
-2.46802e-08
2.24255e-08
-3.02201e-08
3.24748e-08
-2.01557e-08
1.81793e-08
-3.0169e-08
3.21454e-08
-1.63415e-08
1.48005e-08
-2.84971e-08
3.00382e-08
-1.33226e-08
1.20219e-08
-2.63956e-08
2.76963e-08
-1.07374e-08
9.58981e-09
-2.42833e-08
2.54309e-08
-8.45575e-09
7.44525e-09
-2.22435e-08
2.3254e-08
-6.44856e-09
5.56161e-09
-2.03093e-08
2.11962e-08
-4.68609e-09
3.90654e-09
-1.84525e-08
1.9232e-08
2.14055e-07
-2.11719e-07
-2.33653e-09