/*--------------------------------*- C++ -*----------------------------------*\
| =========                 |                                                 |
| \\      /  F ield         | OpenFOAM: The Open Source CFD Toolbox           |
|  \\    /   O peration     | Version:  2.4.0                                 |
|   \\  /    A nd           | Web:      www.OpenFOAM.org                      |
|    \\/     M anipulation  |                                                 |
\*---------------------------------------------------------------------------*/
FoamFile
{
    version     2.0;
    format      ascii;
    class       volScalarField;
    location    "0.394";
    object      alpha.water;
}
// * * * * * * * * * * * * * * * * * * * * * * * * * * * * * * * * * * * * * //

dimensions      [0 0 0 0 0 0 0];

internalField   nonuniform List<scalar> 
10000
(
2.00453e-48
2.15794e-44
3.18107e-41
1.58299e-38
3.42684e-36
3.48137e-34
1.71268e-32
4.38943e-31
6.31512e-30
5.50921e-29
3.17062e-28
1.4823e-27
6.04522e-27
2.22282e-26
8.08043e-26
2.96976e-25
1.14209e-24
4.53008e-24
1.73122e-23
6.17935e-23
2.0357e-22
6.18714e-22
1.73394e-21
4.45386e-21
1.03888e-20
2.16728e-20
4.02836e-20
6.87311e-20
1.04069e-19
1.26448e-19
1.19331e-19
8.92935e-20
5.29394e-20
2.6007e-20
1.11283e-20
4.38588e-21
1.6695e-21
6.18619e-22
2.20316e-22
7.50557e-23
2.45431e-23
7.25084e-24
1.8824e-24
4.56816e-25
1.17176e-25
2.66766e-26
5.68641e-27
2.7179e-27
5.24992e-27
1.2333e-26
1.00729e-43
3.20932e-40
2.27102e-37
6.2383e-35
8.16007e-33
5.53238e-31
2.02614e-29
4.21104e-28
5.2731e-27
4.2209e-26
2.39634e-25
1.14666e-24
4.38897e-24
1.49279e-23
4.9669e-23
1.66915e-22
5.85716e-22
2.1188e-21
7.44534e-21
2.44487e-20
7.39089e-20
2.06506e-19
5.35961e-19
1.28704e-18
2.83392e-18
5.64363e-18
9.98077e-18
1.63721e-17
2.43931e-17
3.07688e-17
3.16808e-17
2.72025e-17
1.94033e-17
1.16427e-17
6.06751e-18
2.84616e-18
1.23854e-18
5.08829e-19
1.98807e-19
7.41924e-20
2.60449e-20
8.34231e-21
2.3876e-21
6.47801e-22
1.72481e-22
4.12624e-23
9.24136e-24
4.08509e-24
7.79259e-24
2.00844e-23
1.11497e-40
2.43464e-37
1.28958e-34
2.75785e-32
2.87733e-30
1.5954e-28
4.95775e-27
9.10493e-26
1.04547e-24
7.98964e-24
4.65507e-23
2.15154e-22
7.75241e-22
2.45495e-21
7.52227e-21
2.32303e-20
7.50857e-20
2.50144e-19
8.17325e-19
2.48791e-18
6.95252e-18
1.79751e-17
4.34102e-17
9.78696e-17
2.04214e-16
3.89474e-16
6.68826e-16
1.04825e-15
1.54252e-15
1.99653e-15
2.18641e-15
2.04581e-15
1.6468e-15
1.13813e-15
6.84717e-16
3.6788e-16
1.81075e-16
8.29574e-17
3.57639e-17
1.46149e-17
5.56935e-18
1.93869e-18
6.11337e-19
1.8321e-19
5.20107e-20
1.33229e-20
3.19847e-21
1.38141e-21
2.62551e-21
7.35047e-21
2.46048e-38
4.53511e-35
2.06698e-32
3.8483e-30
3.52688e-28
1.73603e-26
4.86267e-25
8.22947e-24
8.96882e-23
6.79045e-22
3.96026e-21
1.75305e-20
6.00914e-20
1.78638e-19
5.07266e-19
1.44823e-18
4.32637e-18
1.3298e-17
4.02589e-17
1.1409e-16
2.96628e-16
7.1352e-16
1.60978e-15
3.41779e-15
6.7796e-15
1.24123e-14
2.0704e-14
3.12433e-14
4.52305e-14
5.92942e-14
6.77458e-14
6.73995e-14
5.89845e-14
4.51424e-14
3.04183e-14
1.83108e-14
1.00065e-14
5.04097e-15
2.38177e-15
1.05975e-15
4.38277e-16
1.661e-16
5.76141e-17
1.88542e-17
5.74902e-18
1.58696e-18
4.11479e-19
1.77146e-19
3.31388e-19
9.86126e-19
1.94104e-36
3.34807e-33
1.4293e-30
2.48779e-28
2.12191e-26
9.68488e-25
2.52655e-23
4.03976e-22
4.25923e-21
3.22268e-20
1.8553e-19
7.91225e-19
2.60438e-18
7.33896e-18
1.94779e-17
5.13129e-17
1.40662e-16
3.97753e-16
1.11959e-15
2.96539e-15
7.21202e-15
1.62275e-14
3.43454e-14
6.88646e-14
1.30147e-13
2.29122e-13
3.71208e-13
5.4591e-13
7.68436e-13
1.00945e-12
1.18692e-12
1.23667e-12
1.15147e-12
9.52005e-13
6.99654e-13
4.61304e-13
2.76487e-13
1.52705e-13
7.86145e-14
3.78541e-14
1.69026e-14
6.93509e-15
2.63015e-15
9.3558e-16
3.0762e-16
9.18784e-17
2.57391e-17
1.09397e-17
1.92447e-17
5.87144e-17
7.39511e-35
1.27493e-31
5.39691e-29
9.20721e-27
7.57847e-25
3.29188e-23
8.15107e-22
1.25e-20
1.29292e-19
9.76959e-19
5.47086e-18
2.26297e-17
7.21017e-17
1.93681e-16
4.80268e-16
1.16574e-15
2.92984e-15
7.62043e-15
1.99517e-14
4.95255e-14
1.13148e-13
2.39235e-13
4.76865e-13
9.05496e-13
1.63346e-12
2.76825e-12
4.3549e-12
6.29355e-12
8.55413e-12
1.11435e-11
1.33361e-11
1.43981e-11
1.40631e-11
1.23594e-11
9.74299e-12
6.92448e-12
4.48404e-12
2.67784e-12
1.49074e-12
7.75447e-13
3.74669e-13
1.67157e-13
6.92365e-14
2.67619e-14
9.53743e-15
3.10011e-15
9.4338e-16
3.89783e-16
5.92897e-16
1.7527e-15
1.6235e-33
2.93782e-30
1.28969e-27
2.23711e-25
1.82081e-23
7.63945e-22
1.81372e-20
2.69013e-19
2.74289e-18
2.06054e-17
1.11206e-16
4.46541e-16
1.37585e-15
3.52204e-15
8.20146e-15
1.8434e-14
4.24715e-14
1.01459e-13
2.46849e-13
5.75201e-13
1.23847e-12
2.46958e-12
4.65141e-12
8.38573e-12
1.44637e-11
2.36192e-11
3.60747e-11
5.10759e-11
6.73606e-11
8.62829e-11
1.0407e-10
1.15242e-10
1.1699e-10
1.08124e-10
9.03723e-11
6.84316e-11
4.7349e-11
3.02705e-11
1.80608e-11
1.00809e-11
5.24131e-12
2.52977e-12
1.1387e-12
4.77069e-13
1.84151e-13
6.50189e-14
2.13874e-14
8.50749e-15
1.03324e-14
2.82487e-14
2.2999e-32
4.56326e-29
2.16549e-26
3.94238e-24
3.22283e-22
1.31593e-20
3.01746e-19
4.3809e-18
4.41145e-17
3.20044e-16
1.65547e-15
6.37056e-15
1.89461e-14
4.65285e-14
1.02449e-13
2.14401e-13
4.53628e-13
9.93775e-13
2.24198e-12
4.90658e-12
9.97966e-12
1.88217e-11
3.35843e-11
5.7597e-11
9.51012e-11
1.49765e-10
2.22169e-10
3.07792e-10
3.96181e-10
4.96179e-10
5.96823e-10
6.72012e-10
7.03722e-10
6.78579e-10
5.96265e-10
4.76743e-10
3.49299e-10
2.37069e-10
1.50515e-10
8.96591e-11
4.99605e-11
2.60015e-11
1.26598e-11
5.73264e-12
2.39298e-12
9.15714e-13
3.24787e-13
1.25617e-13
1.1434e-13
2.7202e-13
2.24505e-31
5.12241e-28
2.76182e-25
5.45539e-23
4.53105e-21
1.82046e-19
4.05398e-18
5.73372e-17
5.61225e-16
3.79343e-15
1.85016e-14
6.81511e-14
1.95995e-13
4.63854e-13
9.72109e-13
1.90703e-12
3.7206e-12
7.47046e-12
1.55831e-11
3.2011e-11
6.15974e-11
1.10121e-10
1.86506e-10
3.04621e-10
4.81693e-10
7.31633e-10
1.05465e-09
1.43014e-09
1.81668e-09
2.2143e-09
2.63337e-09
2.99337e-09
3.21396e-09
3.21423e-09
2.94942e-09
2.47124e-09
1.90193e-09
1.35992e-09
9.13103e-10
5.77966e-10
3.44236e-10
1.92784e-10
1.01265e-10
4.9493e-11
2.23258e-11
9.24979e-12
3.53785e-12
1.36583e-12
9.16101e-13
1.72999e-12
1.54008e-30
4.29632e-27
2.87602e-24
6.52962e-22
5.61504e-20
2.18602e-18
4.65444e-17
6.21425e-16
5.5773e-15
3.49234e-14
1.60446e-13
5.6443e-13
1.56873e-12
3.5894e-12
7.20269e-12
1.33441e-11
2.41617e-11
4.45255e-11
8.5636e-11
1.64883e-10
3.0038e-10
5.09836e-10
8.2062e-10
1.27687e-09
1.93234e-09
2.82734e-09
3.95767e-09
5.25669e-09
6.6023e-09
7.91155e-09
9.31194e-09
1.0658e-08
1.17014e-08
1.21026e-08
1.15439e-08
1.00633e-08
8.06252e-09
6.01843e-09
4.24265e-09
2.84003e-09
1.80356e-09
1.08461e-09
6.13372e-10
3.23153e-10
1.57401e-10
7.05475e-11
2.91295e-11
1.15718e-11
6.06494e-12
8.08218e-12
7.30493e-30
2.75531e-26
3.10182e-23
8.10519e-21
6.47103e-19
2.26387e-17
4.40529e-16
5.42747e-15
4.43195e-14
2.56781e-13
1.1083e-12
3.7118e-12
9.94746e-12
2.20393e-11
4.25525e-11
7.50009e-11
1.27077e-10
2.15785e-10
3.81974e-10
6.88142e-10
1.18694e-09
1.91448e-09
2.93028e-09
4.34168e-09
6.27616e-09
8.81887e-09
1.19506e-08
1.55285e-08
1.93151e-08
2.31356e-08
2.72797e-08
3.16354e-08
3.57337e-08
3.84186e-08
3.81282e-08
3.43897e-08
2.83742e-08
2.18314e-08
1.59776e-08
1.12189e-08
7.55601e-09
4.85284e-09
2.93993e-09
1.66294e-09
8.71835e-10
4.21686e-10
1.8794e-10
7.86447e-11
3.6009e-11
3.15112e-11
3.28517e-29
3.03968e-25
4.30744e-22
9.2182e-20
6.24537e-18
1.95303e-16
3.47924e-15
3.85809e-14
2.87361e-13
1.53966e-12
6.22849e-12
1.97924e-11
5.09702e-11
1.09323e-10
2.03786e-10
3.43971e-10
5.5032e-10
8.66742e-10
1.41244e-09
2.37788e-09
3.88204e-09
5.95213e-09
8.66269e-09
1.22103e-08
1.6812e-08
2.25737e-08
2.94427e-08
3.72601e-08
4.57718e-08
5.56574e-08
6.72946e-08
8.04575e-08
9.5878e-08
1.09809e-07
1.03569e-07
1.0329e-07
8.93536e-08
7.01321e-08
5.23917e-08
3.79986e-08
2.67642e-08
1.80994e-08
1.15943e-08
6.96516e-09
3.89761e-09
2.02203e-09
9.69806e-10
4.32871e-10
1.91884e-10
1.17556e-10
3.61616e-28
4.96456e-24
5.05946e-21
8.68048e-19
5.0252e-17
1.4127e-15
2.26609e-14
2.263e-13
1.54112e-12
7.64163e-12
2.89416e-11
8.70385e-11
2.14591e-10
4.44804e-10
8.02026e-10
1.30333e-09
1.98637e-09
2.9264e-09
4.40409e-09
6.92772e-09
1.06989e-08
1.55878e-08
2.15576e-08
2.88743e-08
3.77438e-08
4.81403e-08
6.00034e-08
7.35113e-08
8.84609e-08
1.09829e-07
1.40754e-07
1.80756e-07
1.794e-07
2.44238e-07
4.06236e-07
3.55676e-07
2.94856e-07
2.2611e-07
1.6583e-07
1.19642e-07
8.49575e-08
5.85047e-08
3.85582e-08
2.41014e-08
1.41898e-08
7.82183e-09
4.01655e-09
1.92106e-09
8.7688e-10
4.4392e-10
4.8228e-27
6.69728e-23
4.92413e-20
6.80871e-18
3.42155e-16
8.58652e-15
1.22055e-13
1.10271e-12
6.88863e-12
3.16804e-11
1.12408e-10
3.19651e-10
7.52466e-10
1.50385e-09
2.62474e-09
4.1231e-09
6.03289e-09
8.39391e-09
1.17497e-08
1.72959e-08
2.52344e-08
3.48933e-08
4.58061e-08
5.82555e-08
7.20775e-08
8.68886e-08
1.02919e-07
1.21365e-07
1.4103e-07
1.79302e-07
2.47752e-07
1.86322e-07
5.65625e-07
5.41117e-07
5.04021e-07
3.69765e-07
4.68685e-07
4.80121e-07
4.09245e-07
3.13659e-07
2.26356e-07
1.56424e-07
1.04169e-07
6.67742e-08
4.09708e-08
2.38751e-08
1.31071e-08
6.74358e-09
3.26954e-09
1.58305e-09
7.02447e-26
7.44233e-22
3.97442e-19
4.45475e-17
1.96211e-15
4.3022e-14
5.45436e-13
4.47614e-12
2.57465e-11
1.10176e-10
3.67068e-10
9.88085e-10
2.21926e-09
4.26965e-09
7.21618e-09
1.09935e-08
1.55481e-08
2.06517e-08
2.72256e-08
3.76566e-08
5.17558e-08
6.77721e-08
8.44315e-08
1.02036e-07
1.19225e-07
1.35712e-07
1.529e-07
1.72739e-07
1.88739e-07
2.36278e-07
3.35228e-07
4.25097e-07
4.95891e-07
4.99205e-07
3.60832e-06
6.9766e-06
2.65388e-06
9.39993e-07
6.63736e-07
5.21022e-07
3.9578e-07
2.87089e-07
2.00505e-07
1.35428e-07
8.82769e-08
5.51538e-08
3.2732e-08
1.83046e-08
9.61138e-09
4.8305e-09
1.00489e-24
6.78132e-21
2.65398e-18
2.45926e-16
9.31007e-15
1.78241e-13
2.02471e-12
1.51536e-11
8.05571e-11
3.21896e-10
1.01014e-09
2.58045e-09
5.53761e-09
1.02575e-08
1.68069e-08
2.4919e-08
3.42935e-08
4.40678e-08
5.57373e-08
7.30216e-08
9.42893e-08
1.16813e-07
1.38797e-07
1.60309e-07
1.77213e-07
1.9163e-07
2.08041e-07
2.25867e-07
2.29823e-07
2.29138e-07
4.05629e-07
5.04192e-07
3.89671e-07
6.15139e-06
1.49148e-05
1.49144e-05
1.4911e-05
8.05883e-06
5.2523e-07
5.06516e-07
4.32893e-07
3.51986e-07
2.72786e-07
2.02562e-07
1.44406e-07
9.8594e-08
6.40663e-08
3.93138e-08
2.26075e-08
1.22206e-08
1.25035e-23
5.03438e-20
1.46169e-17
1.13054e-15
3.63254e-14
6.11594e-13
6.25385e-12
4.28576e-11
2.11319e-10
7.91124e-10
2.34567e-09
5.70341e-09
1.17257e-08
2.09536e-08
3.337e-08
4.83727e-08
6.52903e-08
8.25975e-08
1.02492e-07
1.2883e-07
1.57008e-07
1.85269e-07
2.13321e-07
2.38859e-07
2.54213e-07
2.61355e-07
2.77812e-07
2.93923e-07
2.97637e-07
3.01017e-07
3.19264e-07
3.71894e-07
3.89207e-07
1.78316e-06
1.4532e-05
1.49119e-05
1.4432e-05
2.52094e-06
7.42579e-07
6.04851e-07
4.77976e-07
3.93781e-07
3.23269e-07
2.58586e-07
1.99931e-07
1.48726e-07
1.05747e-07
7.12287e-08
4.49301e-08
2.64077e-08
1.26036e-22
3.02631e-19
6.66009e-17
4.24901e-15
1.16977e-13
1.74305e-12
1.6127e-11
1.01624e-10
4.66425e-10
1.64114e-09
4.61055e-09
1.0699e-08
2.11329e-08
3.65386e-08
5.67693e-08
8.08946e-08
1.08121e-07
1.37401e-07
1.70828e-07
2.09491e-07
2.45766e-07
2.81147e-07
3.19257e-07
3.49989e-07
3.71929e-07
3.43364e-07
3.58857e-07
3.75441e-07
3.71701e-07
3.51622e-07
3.43117e-07
3.87787e-07
5.36348e-07
6.41549e-07
3.00021e-06
6.93666e-06
3.61564e-06
1.42078e-06
9.18961e-07
6.40942e-07
5.05052e-07
4.21344e-07
3.56436e-07
2.99885e-07
2.48321e-07
2.00337e-07
1.55631e-07
1.14911e-07
7.92706e-08
5.06075e-08
9.94052e-22
1.46677e-18
2.48907e-16
1.31002e-14
3.12052e-13
4.14578e-12
3.49133e-11
2.03287e-10
8.72011e-10
2.89351e-09
7.72462e-09
1.71516e-08
3.26336e-08
5.47501e-08
8.3309e-08
1.17228e-07
1.5668e-07
2.03552e-07
2.57635e-07
3.13943e-07
3.64734e-07
4.12455e-07
4.56466e-07
4.78097e-07
5.23879e-07
3.49941e-07
1.29673e-06
4.34668e-07
4.14032e-07
3.86454e-07
3.60589e-07
3.53048e-07
3.87129e-07
5.08382e-07
5.62246e-07
5.50126e-07
5.24174e-07
5.38705e-07
5.19218e-07
4.83975e-07
4.43639e-07
4.04645e-07
3.68887e-07
3.35135e-07
3.00807e-07
2.63588e-07
2.22598e-07
1.78561e-07
1.32822e-07
9.0724e-08
6.03053e-21
5.70817e-18
7.55744e-16
3.32778e-14
6.93411e-13
8.28509e-12
6.39556e-11
3.46113e-10
1.39452e-09
4.38274e-09
1.11604e-08
2.37891e-08
4.37318e-08
7.14053e-08
1.06775e-07
1.48578e-07
2.00025e-07
2.68185e-07
3.47501e-07
4.25236e-07
4.95796e-07
5.61878e-07
5.761e-07
5.41445e-07
6.74557e-07
6.65783e-07
5.16099e-07
5.02009e-07
4.74077e-07
4.36509e-07
4.00747e-07
3.75964e-07
3.66061e-07
3.76136e-07
3.77085e-07
5.89197e-07
4.62274e-07
4.56846e-07
4.52746e-07
4.46959e-07
4.40747e-07
4.30612e-07
4.10661e-07
4.03034e-07
3.8932e-07
3.65122e-07
3.28467e-07
2.80542e-07
2.21738e-07
1.60505e-07
2.78688e-20
1.77566e-17
1.86868e-15
7.0056e-14
1.29308e-12
1.40338e-11
1.00119e-10
5.07141e-10
1.93126e-09
5.78185e-09
1.4119e-08
2.90373e-08
5.18147e-08
8.26738e-08
1.21894e-07
1.67396e-07
2.27966e-07
3.14721e-07
4.12043e-07
4.98336e-07
5.67674e-07
6.46677e-07
5.81458e-07
1.41578e-06
1.11803e-06
1.15285e-06
7.79367e-07
6.12308e-07
5.434e-07
5.07249e-07
4.67445e-07
4.30437e-07
4.04927e-07
3.97288e-07
4.06821e-07
4.18697e-07
4.39916e-07
4.61523e-07
4.80227e-07
4.94411e-07
5.05067e-07
4.32192e-07
9.74757e-07
4.19137e-07
4.26353e-07
4.0766e-07
3.70818e-07
3.93093e-07
3.35033e-07
2.55932e-07
9.73049e-20
4.4029e-17
3.78762e-15
1.23191e-13
2.04229e-12
2.03554e-11
1.35451e-10
6.47438e-10
2.34788e-09
6.74451e-09
1.59076e-08
3.17914e-08
5.54467e-08
8.69675e-08
1.26898e-07
1.71636e-07
2.37087e-07
3.30455e-07
4.27138e-07
4.90294e-07
4.96766e-07
1.61218e-06
8.14816e-07
8.35488e-07
2.15186e-06
2.50468e-06
1.16596e-06
1.04612e-06
6.50949e-07
5.5015e-07
5.05373e-07
4.66757e-07
4.36086e-07
4.30016e-07
4.55189e-07
4.96855e-07
5.36591e-07
5.64971e-07
5.81103e-07
5.87605e-07
5.86356e-07
5.7668e-07
5.58803e-07
5.47538e-07
6.05736e-07
8.49358e-07
1.53352e-06
2.27664e-06
1.67211e-06
9.71977e-07
2.57844e-19
8.76569e-17
6.34747e-15
1.82662e-13
2.75968e-12
2.55558e-11
1.60207e-10
7.29123e-10
2.53957e-09
7.05945e-09
1.62221e-08
3.17841e-08
5.46528e-08
8.48985e-08
1.23088e-07
1.64448e-07
2.28838e-07
3.08662e-07
3.81671e-07
3.99406e-07
8.32174e-07
3.94457e-07
3.05506e-07
5.50516e-06
2.59853e-05
3.15559e-05
2.25091e-05
2.33031e-06
7.69768e-07
5.85794e-07
4.89581e-07
4.65259e-07
4.43281e-07
4.36112e-07
4.60307e-07
5.0541e-07
5.52007e-07
5.90828e-07
6.21341e-07
6.43213e-07
6.48349e-07
6.29695e-07
5.9555e-07
5.57786e-07
5.31922e-07
5.31758e-07
8.23321e-06
1.49052e-05
1.17736e-05
1.15273e-06
5.26145e-19
1.41877e-16
8.88319e-15
2.30659e-13
3.22273e-12
2.8061e-11
1.67448e-10
7.32569e-10
2.47342e-09
6.71548e-09
1.51779e-08
2.94368e-08
5.03729e-08
7.81256e-08
1.13037e-07
1.5023e-07
2.02971e-07
2.48829e-07
2.61602e-07
9.65979e-07
3.32959e-07
3.23524e-07
3.03019e-07
2.67887e-05
3.25888e-05
3.25944e-05
3.2598e-05
1.81618e-05
5.14581e-07
4.79319e-07
1.06073e-06
4.29274e-07
4.27291e-07
4.20163e-07
4.35038e-07
4.70378e-07
5.11375e-07
5.54239e-07
6.08633e-07
6.94595e-07
7.47333e-07
7.21928e-07
6.48827e-07
5.78437e-07
5.32288e-07
1.84569e-06
1.47044e-05
1.49023e-05
1.48969e-05
1.18256e-05
8.42861e-19
1.8975e-16
1.04869e-14
2.50413e-13
3.28243e-12
2.71943e-11
1.56094e-10
6.62882e-10
2.19025e-09
5.86338e-09
1.31583e-08
2.54991e-08
4.38159e-08
6.83946e-08
9.93207e-08
1.30926e-07
1.61566e-07
1.74496e-07
4.54154e-07
2.84287e-07
3.82755e-07
3.17355e-07
3.02895e-07
3.15906e-05
3.25933e-05
3.25977e-05
3.26078e-05
1.96037e-05
5.26361e-07
4.77343e-07
4.21117e-07
4.13615e-07
4.16284e-07
4.17514e-07
4.16936e-07
4.1831e-07
4.22295e-07
4.31665e-07
4.65129e-07
5.71223e-07
1.10043e-06
8.53186e-07
7.18089e-07
5.99898e-07
5.43852e-07
5.33419e-07
6.67778e-06
1.49074e-05
1.20401e-05
1.47028e-06
1.08727e-18
2.11982e-16
1.05522e-14
2.35673e-13
2.93828e-12
2.34291e-11
1.30687e-10
5.43907e-10
1.77506e-09
4.72797e-09
1.06281e-08
2.07522e-08
3.60894e-08
5.71189e-08
8.38711e-08
1.0555e-07
1.18758e-07
2.54366e-07
1.77047e-07
2.78476e-07
2.88013e-07
3.14725e-07
3.0282e-07
1.59959e-05
3.25968e-05
3.26072e-05
3.26089e-05
9.23749e-06
3.9228e-07
3.78588e-07
6.00705e-07
3.67369e-07
3.95481e-07
4.0729e-07
4.17233e-07
4.26014e-07
4.36851e-07
4.49121e-07
4.59612e-07
4.65025e-07
4.65511e-07
5.24273e-07
5.33373e-07
5.19774e-07
5.53705e-07
7.06068e-07
1.20391e-06
2.04225e-06
1.7727e-06
1.44674e-06
1.16231e-18
2.01343e-16
9.20626e-15
1.93428e-13
2.32382e-12
1.80271e-11
9.86691e-11
4.06132e-10
1.32056e-09
3.52864e-09
8.00671e-09
1.58626e-08
2.80943e-08
4.53608e-08
6.78371e-08
7.62678e-08
1.4888e-07
1.1573e-07
1.72036e-07
1.6468e-07
2.93233e-07
3.0363e-07
3.02751e-07
3.00054e-07
1.08134e-05
1.66833e-05
6.868e-06
3.71828e-07
4.46579e-07
3.68042e-07
3.34651e-07
3.52403e-07
3.55976e-07
7.03839e-07
3.76414e-07
4.11778e-07
4.30496e-07
4.47061e-07
4.6526e-07
4.77446e-07
4.76167e-07
4.76023e-07
4.86616e-07
4.87628e-07
4.82432e-07
4.7497e-07
4.92838e-07
5.70536e-07
5.70323e-07
5.35124e-07
1.01035e-18
1.63873e-16
7.02989e-15
1.3928e-13
1.62658e-12
1.24043e-11
6.72337e-11
2.76049e-10
9.01469e-10
2.43421e-09
5.61131e-09
1.1341e-08
2.05491e-08
3.3988e-08
5.20367e-08
7.45234e-08
7.81283e-08
1.11057e-07
1.30435e-07
1.36096e-07
6.72239e-07
2.80733e-07
2.8929e-07
3.00247e-07
3.00321e-07
3.00456e-07
3.00748e-07
3.63901e-07
3.38261e-07
3.29164e-07
3.3068e-07
8.08206e-07
3.73216e-07
3.18062e-07
3.61765e-07
3.88281e-07
4.01648e-07
4.0382e-07
6.69126e-07
4.77492e-07
4.86905e-07
4.9367e-07
5.80101e-07
6.14029e-07
6.04384e-07
5.4328e-07
4.86939e-07
4.59977e-07
4.48766e-07
4.46523e-07
7.19176e-19
1.12108e-16
4.65526e-15
8.90801e-14
1.00564e-12
7.61982e-12
4.12708e-11
1.70411e-10
5.62987e-10
1.54591e-09
3.63878e-09
7.53143e-09
1.39996e-08
2.37741e-08
3.73758e-08
5.49454e-08
7.47927e-08
8.24895e-08
9.19794e-08
1.73409e-07
1.6767e-07
2.22992e-07
2.46666e-07
3.18115e-07
3.37296e-07
3.17492e-07
3.63959e-07
2.77389e-07
3.32365e-07
2.69333e-07
3.5602e-07
2.77813e-07
6.82478e-07
3.08188e-07
3.32119e-07
3.47206e-07
3.38842e-07
4.2887e-07
4.35287e-07
4.55219e-07
4.48092e-07
4.57005e-07
4.75448e-07
1.34287e-06
6.05284e-07
6.73304e-07
5.66388e-07
4.8574e-07
4.65188e-07
4.87943e-07
4.1913e-19
6.42364e-17
2.63052e-15
4.97991e-14
5.51289e-13
4.16078e-12
2.27423e-11
9.51693e-11
3.20132e-10
8.98444e-10
2.16715e-09
4.60377e-09
8.79003e-09
1.53387e-08
2.47874e-08
3.74762e-08
5.18299e-08
5.67892e-08
8.58419e-08
5.69981e-08
1.63074e-07
1.72987e-07
1.80604e-07
5.41318e-07
3.80427e-07
6.21207e-07
2.46409e-07
2.54654e-07
4.06809e-07
2.5221e-07
2.51826e-07
2.75151e-07
2.68931e-07
2.90976e-07
3.07989e-07
3.20582e-07
3.27237e-07
3.21825e-07
3.20969e-07
3.1817e-07
3.04785e-07
3.0634e-07
7.19974e-06
5.60684e-05
6.67482e-05
3.94244e-05
1.89912e-06
4.9462e-07
4.91741e-07
4.74402e-07
1.98664e-19
3.06703e-17
1.26184e-15
2.39953e-14
2.67066e-13
2.01149e-12
1.12008e-11
4.78447e-11
1.64775e-10
4.74464e-10
1.17542e-09
2.56512e-09
5.0312e-09
9.02039e-09
1.49848e-08
2.33097e-08
3.26477e-08
4.16426e-08
3.16353e-08
5.32706e-08
1.19081e-07
8.12559e-08
2.55218e-07
1.14151e-07
1.54721e-07
1.59047e-07
2.30211e-07
2.52194e-07
2.11948e-07
2.37303e-07
2.48888e-07
2.57918e-07
2.67128e-07
2.76806e-07
2.86695e-07
2.96301e-07
3.05055e-07
3.12106e-07
3.16444e-07
3.11973e-07
2.99422e-07
1.32529e-06
6.11295e-05
6.67911e-05
6.67917e-05
6.67921e-05
4.11596e-05
8.43782e-07
4.85848e-07
4.78913e-07
7.65747e-20
1.21697e-17
5.11201e-16
9.91439e-15
1.12427e-13
8.58512e-13
4.90695e-12
2.15494e-11
7.63835e-11
2.26423e-10
5.77069e-10
1.2944e-09
2.6079e-09
4.80247e-09
8.19825e-09
1.31169e-08
1.86125e-08
2.39354e-08
2.50509e-08
4.91702e-08
4.41833e-08
5.63878e-08
5.18102e-08
1.03387e-07
1.02213e-07
1.79708e-07
2.03213e-07
2.059e-07
2.06186e-07
2.08751e-07
2.14098e-07
2.22032e-07
2.32321e-07
2.4453e-07
2.58098e-07
2.7207e-07
2.85784e-07
2.98101e-07
3.07889e-07
3.07547e-07
2.99342e-07
2.99606e-07
5.67653e-05
6.67903e-05
6.67913e-05
6.67915e-05
3.85737e-05
6.18875e-07
4.937e-07
4.95886e-07
2.39475e-20
3.99154e-18
1.74046e-16
3.49566e-15
4.09318e-14
3.22405e-13
1.90838e-12
8.69806e-12
3.19814e-11
9.823e-11
2.58892e-10
5.99278e-10
1.2436e-09
2.35501e-09
4.13014e-09
6.78653e-09
9.84641e-09
1.30713e-08
1.64303e-08
1.51869e-08
2.73789e-08
3.50315e-08
4.85912e-08
6.57575e-08
8.11419e-08
6.75422e-08
8.80915e-08
1.13137e-07
1.32423e-07
1.47472e-07
1.60887e-07
1.74388e-07
1.88909e-07
2.04777e-07
2.22101e-07
2.40058e-07
2.58418e-07
2.76149e-07
2.9785e-07
3.03376e-07
2.98937e-07
2.56104e-06
6.14084e-05
6.679e-05
6.67929e-05
6.67916e-05
4.70794e-05
1.59861e-06
4.67499e-07
5.94219e-07
6.05687e-21
1.07518e-18
4.94871e-17
1.04713e-15
1.28748e-14
1.06667e-13
6.67038e-13
3.22385e-12
1.26297e-11
4.13859e-11
1.15862e-10
2.82636e-10
6.11944e-10
1.19713e-09
2.151e-09
3.60007e-09
5.41688e-09
7.59557e-09
1.0324e-08
1.24202e-08
1.75814e-08
2.18235e-08
3.0668e-08
4.10755e-08
4.99965e-08
5.227e-08
5.70014e-08
6.77519e-08
8.19988e-08
9.69817e-08
1.11822e-07
1.26913e-07
1.42894e-07
1.60163e-07
1.79161e-07
1.98922e-07
2.18221e-07
2.35729e-07
2.9762e-07
3.06382e-07
2.9996e-07
2.82808e-07
9.25377e-06
6.23677e-05
6.67971e-05
5.2669e-05
4.97364e-06
3.82795e-07
4.59601e-07
4.63434e-07
1.22572e-21
2.36923e-19
1.17388e-17
2.68019e-16
3.55202e-15
3.21225e-14
2.25156e-13
1.27504e-12
5.99378e-12
2.31862e-11
7.36631e-11
1.95931e-10
4.46555e-10
8.94682e-10
1.61358e-09
2.67406e-09
4.09354e-09
5.86819e-09
7.85902e-09
1.04415e-08
1.38079e-08
1.75352e-08
2.03065e-08
2.49369e-08
2.86986e-08
3.32165e-08
3.96209e-08
4.77011e-08
5.68713e-08
6.68079e-08
7.75964e-08
8.95664e-08
1.03032e-07
1.18153e-07
1.35349e-07
1.53605e-07
1.64984e-07
1.67569e-07
3.56434e-07
3.2901e-07
3.03348e-07
2.82801e-07
2.62791e-07
8.38965e-07
7.21612e-07
6.02834e-07
4.94078e-07
3.70157e-07
6.74376e-07
4.42556e-07
1.92512e-22
4.21039e-20
2.33252e-18
6.0062e-17
9.05317e-16
1.02357e-14
1.06925e-13
9.37845e-13
5.99466e-12
2.75487e-11
9.51464e-11
2.6193e-10
5.99868e-10
1.18613e-09
2.08654e-09
3.34585e-09
4.98763e-09
6.98223e-09
9.32792e-09
1.2011e-08
1.5001e-08
1.8263e-08
2.15946e-08
2.5044e-08
2.87081e-08
3.26463e-08
3.69222e-08
4.1614e-08
4.67968e-08
5.25666e-08
5.91153e-08
6.67318e-08
7.57231e-08
8.6309e-08
9.89321e-08
1.13385e-07
1.06629e-07
1.69267e-07
1.2789e-07
1.94398e-07
2.38504e-07
2.55056e-07
2.60893e-07
2.64303e-07
2.69514e-07
2.89511e-07
3.09377e-07
3.6228e-07
3.84256e-07
4.3202e-07
2.39439e-23
6.22383e-21
4.05655e-19
1.27279e-17
2.65343e-16
6.6757e-15
1.3966e-13
1.62805e-12
1.12451e-11
5.19209e-11
1.75635e-10
4.7007e-10
1.04398e-09
2.00173e-09
3.41645e-09
5.31845e-09
7.701e-09
1.05296e-08
1.37415e-08
1.72513e-08
2.0965e-08
2.47983e-08
2.86802e-08
3.25459e-08
3.63429e-08
4.00121e-08
4.3525e-08
4.69436e-08
5.03336e-08
5.36798e-08
5.70401e-08
6.06447e-08
6.4891e-08
7.02117e-08
7.71401e-08
8.65077e-08
9.80598e-08
9.51026e-08
1.15966e-07
1.33613e-07
1.58276e-07
1.86969e-07
2.15015e-07
2.43801e-07
2.82345e-07
3.4094e-07
3.93757e-07
3.98624e-07
3.92345e-07
3.90886e-07
2.43616e-24
7.97981e-22
6.80411e-20
3.36407e-18
2.09456e-16
1.32334e-14
3.21654e-13
3.64029e-12
2.37915e-11
1.04109e-10
3.35401e-10
8.60225e-10
1.83975e-09
3.41305e-09
5.6589e-09
8.58624e-09
1.21519e-08
1.6279e-08
2.08604e-08
2.57643e-08
3.0844e-08
3.59654e-08
4.10131e-08
4.58836e-08
5.04933e-08
5.4752e-08
5.85926e-08
6.21201e-08
6.5381e-08
6.80195e-08
6.97066e-08
7.04836e-08
7.08328e-08
7.14359e-08
7.29861e-08
7.61616e-08
8.1654e-08
9.00749e-08
1.01727e-07
1.16345e-07
1.32971e-07
1.50109e-07
1.66567e-07
1.78411e-07
1.81639e-07
1.81111e-07
4.84511e-07
4.17537e-07
3.82665e-07
3.73265e-07
2.19312e-25
1.04271e-22
1.75625e-20
2.84056e-18
5.25726e-16
3.52405e-14
7.77462e-13
8.03636e-12
4.87724e-11
2.00812e-10
6.14088e-10
1.50656e-09
3.09965e-09
5.56261e-09
8.96383e-09
1.32697e-08
1.83825e-08
2.41708e-08
3.04735e-08
3.71058e-08
4.38688e-08
5.05901e-08
5.71252e-08
6.3348e-08
6.91655e-08
7.44492e-08
7.91482e-08
8.37185e-08
8.85119e-08
9.25632e-08
9.45091e-08
9.38806e-08
9.13974e-08
8.8241e-08
8.53626e-08
8.34161e-08
8.29388e-08
8.44788e-08
8.85913e-08
9.57267e-08
1.06086e-07
1.1949e-07
1.35284e-07
1.52336e-07
1.68197e-07
1.78744e-07
1.83323e-07
2.19391e-07
2.55375e-07
2.90327e-07
2.86011e-26
3.69776e-23
1.97251e-20
6.71178e-18
1.59024e-15
9.16563e-14
1.78813e-12
1.68197e-11
9.47916e-11
3.67362e-10
1.06653e-09
2.50257e-09
4.95181e-09
8.59597e-09
1.34659e-08
1.94567e-08
2.63935e-08
3.40758e-08
4.22792e-08
5.07614e-08
5.92718e-08
6.76068e-08
7.56017e-08
8.31172e-08
9.00707e-08
9.62893e-08
1.01857e-07
1.08179e-07
1.16758e-07
1.25503e-07
1.30693e-07
1.29856e-07
1.24434e-07
1.17794e-07
1.11257e-07
1.05398e-07
1.00467e-07
9.6788e-08
9.48522e-08
9.52572e-08
9.86133e-08
1.05436e-07
1.16051e-07
1.30479e-07
1.48304e-07
1.6864e-07
1.90469e-07
2.13869e-07
2.42161e-07
2.76798e-07
2.85676e-26
6.59988e-23
4.78707e-20
1.99803e-17
4.5838e-15
2.24183e-13
3.87489e-12
3.32665e-11
1.7446e-10
6.37079e-10
1.75681e-09
3.9429e-09
7.50186e-09
1.25981e-08
1.91932e-08
2.70831e-08
3.59988e-08
4.56597e-08
5.57726e-08
6.60363e-08
7.61491e-08
8.58792e-08
9.5039e-08
1.03471e-07
1.11102e-07
1.17678e-07
1.23583e-07
1.32014e-07
1.47867e-07
1.65633e-07
1.82856e-07
1.84025e-07
1.70222e-07
1.58161e-07
1.4748e-07
1.38364e-07
1.30365e-07
1.23137e-07
1.16768e-07
1.11729e-07
1.08736e-07
1.08592e-07
1.12048e-07
1.19623e-07
1.31324e-07
1.46448e-07
1.63742e-07
1.82491e-07
2.08087e-07
2.42595e-07
6.72262e-26
1.60293e-22
1.25018e-19
6.33652e-17
1.23449e-14
5.14682e-13
7.91934e-12
6.22703e-11
3.04482e-10
1.04859e-09
2.7477e-09
5.8989e-09
1.07911e-08
1.75359e-08
2.59984e-08
3.58599e-08
4.67527e-08
5.8316e-08
7.01894e-08
8.20163e-08
9.34487e-08
1.04223e-07
1.14115e-07
1.22924e-07
1.30558e-07
1.36638e-07
1.42001e-07
1.51944e-07
1.80257e-07
2.05699e-07
2.75988e-07
2.93191e-07
2.38016e-07
2.11642e-07
1.9278e-07
1.79033e-07
1.68372e-07
1.59074e-07
1.50236e-07
1.41774e-07
1.34177e-07
1.28256e-07
1.2495e-07
1.25117e-07
1.29258e-07
1.37206e-07
1.48217e-07
1.61771e-07
1.82238e-07
2.14901e-07
1.6961e-25
4.09633e-22
3.20858e-19
1.94919e-16
3.10733e-14
1.11126e-12
1.52982e-11
1.10524e-10
5.04653e-10
1.6399e-09
4.08477e-09
8.3896e-09
1.47579e-08
2.32175e-08
3.3526e-08
4.5254e-08
5.795e-08
7.1186e-08
8.45454e-08
9.76278e-08
1.10048e-07
1.21505e-07
1.3172e-07
1.40411e-07
1.47402e-07
1.52215e-07
1.56169e-07
1.64709e-07
2.08194e-07
2.16703e-07
2.33084e-07
2.87689e-07
2.47995e-07
3.01545e-07
2.51506e-07
2.26011e-07
2.10636e-07
1.995e-07
1.89618e-07
1.79697e-07
1.69601e-07
1.59872e-07
1.51392e-07
1.45142e-07
1.42012e-07
1.42398e-07
1.45894e-07
1.51082e-07
1.69076e-07
2.00697e-07
4.47603e-25
1.09052e-21
8.73158e-19
5.66629e-16
7.32543e-14
2.26201e-12
2.7994e-11
1.86314e-10
7.95232e-10
2.43906e-09
5.77707e-09
1.1355e-08
1.92142e-08
2.92852e-08
4.12292e-08
5.45335e-08
6.86971e-08
8.32496e-08
9.7739e-08
1.11741e-07
1.24852e-07
1.36727e-07
1.47023e-07
1.55329e-07
1.61302e-07
1.64527e-07
1.66672e-07
1.69016e-07
2.68444e-07
2.37417e-07
1.46587e-05
1.93786e-05
8.2527e-06
3.68464e-07
3.47515e-07
2.80273e-07
2.5394e-07
2.39719e-07
2.2945e-07
2.19608e-07
2.08993e-07
1.9766e-07
1.86242e-07
1.75625e-07
1.66857e-07
1.60975e-07
1.58842e-07
1.61134e-07
1.68009e-07
1.81093e-07
1.24419e-24
3.01573e-21
2.51286e-18
1.53464e-15
1.62149e-13
4.35171e-12
4.8621e-11
2.98695e-10
1.1925e-09
3.45261e-09
7.77952e-09
1.46413e-08
2.38503e-08
3.52516e-08
4.84426e-08
6.28736e-08
7.80422e-08
9.34682e-08
1.08691e-07
1.23292e-07
1.36869e-07
1.49046e-07
1.59407e-07
1.67353e-07
1.72332e-07
1.74246e-07
1.74716e-07
1.84056e-07
1.85505e-07
2.07772e-05
4.08206e-05
4.08195e-05
4.08182e-05
9.65969e-06
3.49454e-07
3.39657e-07
2.93983e-07
2.751e-07
2.65015e-07
2.56419e-07
2.4676e-07
2.35691e-07
2.23621e-07
2.11162e-07
1.99136e-07
1.88554e-07
1.80347e-07
1.75705e-07
1.76461e-07
1.89552e-07
3.56967e-24
8.51788e-21
7.23981e-18
3.88108e-15
3.37906e-13
7.93156e-12
8.02874e-11
4.55889e-10
1.70293e-09
4.65479e-09
9.98365e-09
1.80073e-08
2.82735e-08
4.05769e-08
5.44974e-08
6.95023e-08
8.5139e-08
1.00951e-07
1.16501e-07
1.31404e-07
1.4529e-07
1.57763e-07
1.68353e-07
1.76074e-07
1.80476e-07
1.81898e-07
1.80662e-07
1.7763e-07
6.76049e-07
4.08156e-05
4.08192e-05
4.08168e-05
4.08179e-05
2.45179e-05
4.63519e-07
3.27702e-07
3.19485e-07
3.00452e-07
2.92972e-07
2.86973e-07
2.79053e-07
2.69258e-07
2.58197e-07
2.46161e-07
2.33468e-07
2.20709e-07
2.08656e-07
1.98398e-07
1.91026e-07
2.02878e-07
1.04093e-23
2.42498e-20
2.0495e-17
9.18873e-15
6.64793e-13
1.37262e-11
1.26224e-10
6.62982e-10
2.31741e-09
5.98159e-09
1.22228e-08
2.11556e-08
3.20733e-08
4.47676e-08
5.88463e-08
7.38433e-08
8.93982e-08
1.05107e-07
1.20578e-07
1.35498e-07
1.49552e-07
1.62343e-07
1.73369e-07
1.80634e-07
1.85608e-07
1.87845e-07
1.84971e-07
1.78596e-07
2.40041e-07
3.14561e-05
4.08103e-05
4.08181e-05
4.08188e-05
1.82865e-05
3.0323e-07
4.24863e-07
3.10394e-07
3.08468e-07
3.11709e-07
3.10416e-07
3.04299e-07
2.95788e-07
2.86554e-07
2.76419e-07
2.6513e-07
2.52649e-07
2.39677e-07
2.27117e-07
2.16626e-07
2.10608e-07
3.04476e-23
6.87141e-20
5.61098e-17
2.04259e-14
1.23821e-12
2.25985e-11
1.89141e-10
9.19308e-10
3.00729e-09
7.33335e-09
1.42936e-08
2.37816e-08
3.48951e-08
4.74645e-08
6.11591e-08
7.56129e-08
9.05815e-08
1.05729e-07
1.20736e-07
1.35378e-07
1.49415e-07
1.62469e-07
1.74027e-07
1.79773e-07
1.88899e-07
1.93257e-07
1.90272e-07
1.86868e-07
1.85497e-07
1.93802e-06
2.87812e-05
3.93685e-05
2.24265e-05
8.73576e-07
2.68952e-07
2.79873e-07
2.91503e-07
3.0265e-07
3.24264e-07
3.26849e-07
3.2142e-07
3.1386e-07
3.07199e-07
2.99477e-07
2.91117e-07
2.80432e-07
2.68165e-07
2.55665e-07
2.44293e-07
2.3555e-07
8.82634e-23
1.91279e-19
1.46789e-16
4.27658e-14
2.18911e-12
3.54529e-11
2.70379e-10
1.21625e-09
3.7244e-09
8.58712e-09
1.59902e-08
2.56289e-08
3.6501e-08
4.84955e-08
6.13601e-08
7.48409e-08
8.88095e-08
1.03004e-07
1.17191e-07
1.31244e-07
1.45005e-07
1.58122e-07
1.70093e-07
1.72691e-07
2.08109e-07
1.98427e-07
1.95775e-07
1.98022e-07
1.97336e-07
1.96821e-07
1.96822e-07
1.9684e-07
1.97033e-07
2.11044e-07
2.58906e-07
2.74325e-07
2.79275e-07
2.89602e-07
3.38737e-07
3.32301e-07
3.26078e-07
3.20639e-07
3.18761e-07
3.13669e-07
3.08763e-07
3.00812e-07
2.89744e-07
2.78169e-07