/*--------------------------------*- C++ -*----------------------------------*\
| =========                 |                                                 |
| \\      /  F ield         | OpenFOAM: The Open Source CFD Toolbox           |
|  \\    /   O peration     | Version:  2.4.0                                 |
|   \\  /    A nd           | Web:      www.OpenFOAM.org                      |
|    \\/     M anipulation  |                                                 |
\*---------------------------------------------------------------------------*/
FoamFile
{
    version     2.0;
    format      ascii;
    class       volScalarField;
    location    "0.135";
    object      p_rgh;
}
// * * * * * * * * * * * * * * * * * * * * * * * * * * * * * * * * * * * * * //

dimensions      [1 -1 -2 0 0 0 0];

internalField   nonuniform List<scalar> 
57600
(
113.147
112.174
108.39
102.517
96.4103
91.1623
87.0246
84.221
83.2
84.1786
87.1287
91.3851
95.7182
99.2894
101.973
103.988
105.568
106.867
107.961
108.886
109.66
110.299
110.817
111.231
111.557
111.81
112.004
112.151
112.261
112.341
113.155
111.527
107.074
100.987
95.0213
90.0401
86.1827
83.7681
83.2139
84.6822
88.0559
92.4769
96.6965
100.048
102.54
104.421
105.915
107.154
108.201
109.085
109.822
110.427
110.917
111.307
111.612
111.849
112.03
112.167
112.268
112.342
113.168
111.554
107.088
100.981
95.0018
90.0161
86.144
83.7071
83.1301
84.5687
87.9436
92.4222
96.704
100.087
102.582
104.457
105.944
107.178
108.219
109.098
109.831
110.432
110.918
111.305
111.609
111.844
112.024
112.16
112.261
112.335
113.185
111.599
107.114
100.974
94.9726
89.9795
86.0844
83.6124
83.0012
84.3931
87.763
92.3231
96.6991
100.134
102.642
104.513
105.994
107.222
108.259
109.132
109.858
110.454
110.936
111.32
111.621
111.856
112.035
112.171
112.273
112.347
113.206
111.661
107.15
100.965
94.9334
89.9305
86.0037
83.4837
82.8269
84.1543
87.5126
92.1828
96.6864
100.19
102.716
104.581
106.054
107.278
108.311
109.179
109.9
110.491
110.969
111.35
111.65
111.884
112.065
112.202
112.304
112.378
113.229
111.741
107.198
100.955
94.884
89.8695
85.9023
83.3205
82.607
83.8496
87.1855
91.9982
96.667
100.256
102.8
104.656
106.119
107.339
108.371
109.236
109.954
110.541
111.016
111.395
111.695
111.929
112.11
112.248
112.352
112.427
113.255
111.84
107.258
100.943
94.8239
89.7968
85.7804
83.1225
82.3415
83.4756
86.7721
91.7643
96.6413
100.334
102.897
104.736
106.187
107.405
108.438
109.304
110.019
110.604
111.076
111.454
111.753
111.988
112.17
112.309
112.413
112.488
113.281
111.959
107.33
100.929
94.7528
89.7131
85.6383
82.8894
82.0307
83.0288
86.26
91.4748
96.6098
100.425
103.005
104.821
106.254
107.473
108.512
109.38
110.095
110.678
111.149
111.526
111.825
112.06
112.242
112.382
112.486
112.562
113.309
112.098
107.413
100.912
94.6701
89.619
85.4766
82.6205
81.6751
82.5049
85.6331
91.1218
96.5734
100.532
103.126
104.907
106.319
107.541
108.59
109.465
110.182
110.764
111.234
111.61
111.909
112.144
112.326
112.465
112.57
112.646
113.335
112.258
107.508
100.892
94.5751
89.5152
85.296
82.3152
81.276
81.8994
84.8694
90.6953
96.5334
100.658
103.26
104.991
106.376
107.605
108.672
109.557
110.276
110.858
111.328
111.705
112.004
112.238
112.42
112.559
112.664
112.741
113.358
112.439
107.615
100.868
94.4669
89.4028
85.0973
81.9721
80.8357
81.2071
83.9404
90.1821
96.4915
100.804
103.409
105.071
106.419
107.663
108.755
109.654
110.376
110.959
111.43
111.808
112.107
112.342
112.523
112.661
112.766
112.844
113.377
112.644
107.734
100.84
94.3444
89.2829
84.8819
81.5892
80.3577
80.4228
82.8071
89.5676
96.4502
100.974
103.574
105.141
106.441
107.709
108.838
109.754
110.479
111.063
111.536
111.916
112.218
112.453
112.634
112.771
112.875
112.954
113.389
112.871
107.867
100.808
94.2059
89.1567
84.6511
81.1634
79.8461
79.5405
81.415
88.8343
96.4128
101.171
103.757
105.196
106.432
107.738
108.918
109.854
110.582
111.166
111.643
112.028
112.335
112.572
112.754
112.89
112.993
113.071
113.391
113.122
108.013
100.77
94.0497
89.0257
84.4072
80.6902
79.3028
78.5542
79.686
87.9624
96.3833
101.396
103.96
105.23
106.381
107.743
108.993
109.951
110.676
111.262
111.746
112.14
112.454
112.697
112.881
113.016
113.117
113.193
113.379
113.397
108.172
100.724
93.8729
88.8913
84.1527
80.1606
78.716
77.4607
77.5082
86.9332
96.3671
101.65
104.188
105.235
106.27
107.712
109.058
110.039
110.755
111.343
111.839
112.248
112.575
112.827
113.015
113.148
113.241
113.304
113.348
113.694
108.347
100.669
93.6717
88.7548
83.8911
79.5562
78.0404
76.2828
74.7087
85.7318
96.3688
101.928
104.443
105.199
106.078
107.632
109.105
110.107
110.806
111.4
111.916
112.346
112.693
112.96
113.157
113.292
113.375
113.419
113.292
114.015
108.537
100.604
93.4408
88.6175
83.6268
78.8974
77.3393
75.113
70.9949
84.3594
96.3883
102.218
104.733
105.099
105.767
107.475
109.113
110.135
110.809
111.422
111.969
112.43
112.803
113.092
113.305
113.45
113.534
113.617
113.205
114.359
108.746
100.525
93.1727
88.4796
83.3648
78.2009
76.8687
74.0718
65.9617
82.8457
96.4139
102.497
105.082
104.841
105.265
107.196
109.028
110.085
110.745
111.4
111.991
112.492
112.898
113.214
113.45
113.611
113.702
113.728
113.079
114.726
108.973
100.428
92.8568
88.3408
83.1105
77.4093
76.5242
73.4312
58.9171
81.2909
96.4404
102.727
105.55
104.236
104.422
106.721
108.714
109.91
110.595
111.328
111.978
112.525
112.969
113.316
113.574
113.751
113.854
113.89
112.902
115.113
109.221
100.307
92.4785
88.1992
82.8694
76.5339
76.0568
73.6657
48.2197
79.6758
96.4806
102.848
106.218
102.817
103.02
105.955
107.948
109.546
110.364
111.208
111.926
112.524
113.009
113.387
113.666
113.857
113.97
114.016
112.662
115.52
109.492
100.163
92.0158
88.0508
82.6637
75.6044
75.6096
75.0605
29.6151
77.922
96.5244
102.77
107.015
101.965
100.931
104.872
106.496
108.82
110.082
111.048
111.833
112.482
113.009
113.418
113.719
113.921
114.04
114.093
112.343
115.942
109.787
100.021
91.4362
87.8865
82.5874
74.6652
75.827
78.2222
1.25694
77.4084
96.5536
102.346
107.522
100.724
98.0055
103.654
104.898
108.085
109.8
110.859
111.696
112.392
112.96
113.403
113.724
113.938
114.06
114.112
111.925
116.374
110.107
99.8683
90.7107
87.6864
82.7834
73.5664
77.0075
-0.0603129
1.28032
84.548
96.4946
101.411
106.968
93.947
93.3137
102.762
104.441
107.839
109.573
110.649
111.509
112.24
112.852
113.331
113.677
113.901
114.027
114.082
111.38
116.808
110.45
99.7014
89.9542
87.4052
83.4296
67.857
0.0378915
0.307427
0.853257
97.5064
96.5033
99.7675
105.02
86.0369
88.5466
102.728
105.489
108.042
109.412
110.419
111.257
112.008
112.666
113.192
113.569
113.81
113.95
114.022
110.675
117.238
110.812
99.5143
88.6124
86.9471
84.6865
0.0929249
0.0764018
0.263467
0.525933
38.2036
96.5689
97.5345
102.397
83.3302
87.0373
103.792
107.174
108.366
109.282
110.152
110.915
111.668
112.38
112.974
113.401
113.678
113.852
113.962
109.765
117.657
111.18
99.3231
88.1344
86.2386
77.8477
0.0957749
0.111307
0.201267
0.277823
3.06601
96.0144
94.314
98.1014
84.4936
86.1016
105.395
108.439
108.585
109.13
109.841
110.482
111.212
111.976
112.668
113.183
113.521
113.744
113.897
108.591
118.049
111.533
99.1054
88.628
85.2935
-0.143232
0.102924
0.120812
0.149318
0.130634
-1.15488
94.7455
89.2851
93.4308
86.575
89.0242
106.889
108.834
108.388
108.983
109.526
110.019
110.725
111.512
112.291
112.924
113.344
113.624
113.819
107.076
118.382
111.841
98.8588
90.0275
-0.0771903
-0.104849
0.103519
0.141472
0.12795
0.175701
-0.338558
90.2056
82.4281
90.0104
87.0734
94.5073
105.392
107.383
108.213
108.839
109.181
109.55
110.358
111.208
111.989
112.672
113.162
113.505
113.752
105.115
118.611
112.061
98.4904
92.2841
0.095676
-0.0730034
0.111473
0.130155
0.102009
0.124005
-0.0745852
3.68091
67.3423
90.3742
83.8468
97.8921
103.117
106.699
107.951
108.487
108.493
108.87
110.068
111.175
111.913
112.506
113.005
113.416
113.737
102.571
118.667
112.143
97.9374
-3.84436
0.112526
-0.044419
0.0981187
0.114649
0.0921593
0.06634
-0.0790596
-0.151162
18.6775
94.2363
75.4545
100.628
98.859
105.733
107.56
107.563
107.11
107.752
109.662
111.246
111.914
112.371
112.862
113.365
113.808
112.398
112.442
112.472
112.483
112.468
112.418
112.322
112.167
111.938
111.622
111.203
110.665
109.99
109.15
108.093
106.712
104.812
102.102
98.3398
93.7196
89.2034
86.0234
84.8697
85.8794
88.5844
92.1266
96.0161
100.132
104.106
106.442
112.396
112.437
112.463
112.469
112.446
112.386
112.277
112.105
111.857
111.518
111.073
110.505
109.796
108.913
107.793
106.311
104.241
101.276
97.2272
92.4812
88.183
85.4839
84.8964
86.4254
89.4347
93.0936
97.0466
101.211
104.941
106.707
112.39
112.43
112.457
112.463
112.441
112.382
112.274
112.104
111.859
111.525
111.085
110.525
109.823
108.948
107.836
106.361
104.293
101.31
97.2101
92.3967
88.0719
85.3881
84.8217
86.3807
89.4176
93.0835
97.0352
101.209
104.958
106.72
112.401
112.442
112.469
112.474
112.452
112.393
112.286
112.119
111.878
111.549
111.118
110.567
109.875
109.008
107.904
106.435
104.362
101.348
97.1688
92.2572
87.8984
85.2402
84.7057
86.3117
89.3917
93.0692
97.0193
101.207
104.989
106.737
112.433
112.473
112.499
112.504
112.481
112.421
112.313
112.147
111.91
111.587
111.164
110.624
109.942
109.084
107.987
106.524
104.448
101.393
97.1081
92.0627
87.661
85.0397
84.5479
86.2181
89.3572
93.0505
96.999
101.206
105.032
106.759
112.481
112.521
112.546
112.55
112.524
112.463
112.354
112.189
111.954
111.637
111.222
110.691
110.018
109.168
108.08
106.626
104.55
101.448
97.0271
91.8069
87.3559
84.7863
84.3474
86.0997
89.3149
93.0276
96.9738
101.207
105.09
106.786
112.543
112.583
112.607
112.609
112.582
112.518
112.408
112.242
112.009
111.697
111.289
110.767
110.103
109.259
108.179
106.74
104.669
101.515
96.9237
91.4814
86.9784
84.4797
84.1035
85.9565
89.2655
93.0008
96.9435
101.208
105.161
106.816
112.617
112.657
112.681
112.682
112.653
112.586
112.473
112.306
112.074
111.766
111.366
110.852
110.194
109.354
108.283
106.863
104.806
101.596
96.7952
91.0747
86.5227
84.1199
83.815
85.7881
89.21
92.9702
96.9076
101.21
105.247
106.851
112.702
112.743
112.766
112.766
112.734
112.664
112.548
112.379
112.147
111.842
111.449
110.944
110.291
109.451
108.387
106.993
104.963
101.693
96.6388
90.5716
85.9818
83.7074
83.4807
85.5946
89.1497
92.9363
96.8655
101.211
105.348
106.888
112.797
112.839
112.862
112.86
112.825
112.75
112.63
112.457
112.224
111.922
111.537
111.041
110.391
109.546
108.487
107.128
105.136
101.811
96.4517
89.952
85.3476
83.2429
83.0988
85.3757
89.0861
92.8992
96.8168
101.211
105.466
106.928
112.902
112.945
112.968
112.963
112.923
112.842
112.715
112.537
112.301
112.002
111.625
111.141
110.491
109.632
108.576
107.263
105.332
101.955
96.2308
89.189
84.6103
82.728
82.6674
85.1311
89.0211
92.8593
96.7604
101.21
105.601
106.969
113.014
113.058
113.081
113.071
113.024
112.935
112.801
112.616
112.377
112.078
111.712
111.242
110.589
109.704
108.645
107.393
105.553
102.134
95.9729
88.246
83.7589
82.1653
82.1841
84.8604
88.9571
92.8167
96.6957
101.205
105.755
107.011
113.132
113.175
113.194
113.178
113.123
113.027
112.883
112.69
112.444
112.146
111.791
111.341
110.681
109.751
108.682
107.511
105.802
102.356
95.6743
87.0645
82.7813
81.5591
81.6461
84.5629
88.8969
92.7717
96.6215
101.197
105.928
107.051
113.263
113.347
113.293
113.279
113.22
113.114
112.96
112.755
112.5
112.198
111.856
111.437
110.764
109.762
108.672
107.61
106.082
102.636
95.3369
85.5674
81.6656
80.9166
81.0503
84.2367
88.8441
92.724
96.5368
101.183
106.124
107.089
113.388
113.52
113.406
113.384
113.316
113.197
113.028
112.808
112.54
112.229
111.898
111.526
110.834
109.719
108.593
107.68
106.403
102.986
94.9673
83.6375
80.4035
80.2492
80.3929
83.8776
88.8027
92.6733
96.4407
101.162
106.343
107.122
113.471
113.505
113.515
113.492
113.409
113.27
113.083
112.846
112.559
112.23
111.903
111.607
110.879
109.604
108.418
107.71
106.773
103.42
94.5802
81.0861
78.9969
79.5777
79.6694
83.4753
88.7779
92.6188
96.3323
101.132
106.588
107.147
113.578
113.584
113.595
113.575
113.483
113.326
113.122
112.867
112.555
112.195
111.853
111.669
110.87
109.394
108.096
107.691
107.208
103.952
94.2187
77.596
77.5027
78.9472
78.8814
83.0068
88.7757
92.559
96.2103
101.09
106.862
107.163
113.716
113.695
113.673
113.634
113.531
113.362
113.144
112.87
112.529
112.122
111.721
111.662
110.712
109.086
107.53
107.618
107.727
104.587
93.9594
72.6566
76.1268
78.4139
78.0282
82.4355
88.8035
92.4917
96.0739
101.034
107.167
107.164
113.878
113.831
113.761
113.676
113.553
113.379
113.152
112.859
112.484
112.014
111.481
111.326
110.132
108.713
106.535
107.497
108.355
105.337
93.8891
65.3196
75.173
78.006
77.0985
81.7912
88.871
92.4132
95.9222
100.96
107.508
107.146
114.011
113.957
113.848
113.687
113.55
113.384
113.152
112.838
112.423
111.884
111.141
110.098
108.673
108.348
105.173
107.373
109.105
106.221
94.1629
53.1053
74.8212
77.7768
76.0607
81.2038
88.9906
92.3178
95.7547
100.864
107.889
107.103
114.096
114.058
113.94
113.572
113.544
113.397
113.152
112.808
112.352
111.746
110.811
108.532
106.616
107.977
103.569
107.24
109.976
107.114
94.6647
35.512
75.3166
77.7702
74.8532
80.6178
89.1793
92.1963
95.5719
100.743
108.316
107.03
114.12
114.108
121.766
117.701
113.613
113.43
113.152
112.769
112.27
111.616
110.602
107.779
105.36
107.489
102.272
106.762
110.948
107.86
95.2073
14.3533
76.2256
78.0962
73.4401
80.0387
89.4648
92.0341
95.374
100.588
108.798
106.916
114.096
114.089
114.064
113.763
113.672
113.465
113.141
112.714
112.176
111.496
110.55
108.292
105.882
106.929
100.338
105.17
111.96
108.398
94.9715
-0.367783
0.212613
78.9839
72.1216
79.6437
89.8919
91.8104
95.1622
100.393
109.346
106.752
114.057
114.067
114.033
113.906
113.738
113.48
113.099
112.629
112.06
111.379
110.578
109.479
107.795
106.759
98.2019
103.076
112.666
108.787
97.3906
-0.0931635
0.160219
-0.162768
1.81692
79.2693
90.5283
91.5174
94.9364
100.15
109.976
106.525
114.034
114.075
114.065
113.963
113.757
113.431
112.996
112.497
111.912
111.238
110.566
110.374
109.766
107.201
97.8707
100.64
112.107
109.019
102.986
0.0633568
0.100566
-0.126458
0.0723261
72.9584
91.4619
91.2381
94.6874
99.8441
110.711
106.218
114.002
114.067
114.063
113.944
113.683
113.271
112.82
112.312
111.719
111.047
110.416
110.585
110.598
107.481
99.552
93.8087
109.344
107.581
92.0779
0.199567
0.0312217
-0.089377
0.0434502
-0.135724
92.8244
91.1479
94.3701
99.4604
111.58
105.809
113.954
114.033
114.021
113.855
113.532
113.47
112.636
112.106
111.497
110.78
110.079
110.162
109.625
107.839
101.219
83.1256
105.62
106.137
-10.8459
0.203769
-0.0203383
-0.0677368
0.028564
-0.0121868
92.514
91.772
93.9833
98.9752
112.627
105.272
113.924
114.025
114.013
113.828
113.475
113.116
112.558
111.904
111.263
110.421
109.54
109.364
108.218
105.831
101.254
71.2451
101.598
109.711
-0.0763302
0.190843
-0.0463516
-0.0555335
0.0216312
-0.00919067
3.14185
92.7897
93.3966
98.354
113.905
104.568
113.973
114.126
114.162
114.039
113.751
113.286
112.551
111.586
110.826
109.879
108.727
108.425
107.577
106.742
105.037
67.9992
99.5776
112.95
0.361584
0.160163
-0.0520382
-0.0415662
0.0179656
-0.00765474
0.0609828
94.4552
92.3693
97.5471
115.48
103.648
114.151
114.393
114.504
114.436
114.141
113.565
112.556
111.031
109.773
108.762
107.652
107.008
106.858
105.511
109.595
76.9425
99.5668
7.0755
0.115982
0.137796
-0.0438259
-0.0403976
0.0169623
-0.00336404
0.0604528
0.0553188
90.5079
96.4918
117.419
102.438
100.388
118.522
112.064
97.8541
0.00248786
0.112016
-0.0240558
0.0962235
0.110557
0.0888774
0.102361
-0.122909
-0.281926
1.2866
97.0691
74.2023
101.399
91.5543
105.436
107.748
106.396
105.675
106.355
109.154
111.337
111.826
112.18
112.679
113.318
113.932
98.7708
118.299
111.926
97.9509
0.0196839
0.109378
-0.0125064
0.0939943
0.125937
0.0880706
0.106481
-0.147301
-0.363788
-0.450161
103.587
78.4916
101.049
87.7161
106.277
108.175
105.86
104.73
105.074
108.724
111.404
111.718
111.97
112.473
113.254
114.042
97.3129
117.908
111.682
71.8423
0.0331052
0.105626
-0.00176214
0.0958632
0.116288
0.0874875
0.102773
-0.0876774
-0.433867
-0.271108
38.8805
47.0151
102.752
90.5794
107.085
109.149
105.721
103.786
103.049
108.164
113.507
111.584
111.614
112.095
113.119
114.196
96.087
117.233
111.307
-0.258215
0.0398468
0.100894
0.00792757
0.0950375
0.113982
0.0869882
0.0939842
-0.130215
-0.45854
-0.257657
-0.0556773
0.0150335
-0.0435482
13.9052
107.88
110.066
105.764
102.8
99.1585
107.691
112.127
111.603
110.985
111.368
112.844
114.438
19.9524
116.977
110.761
-0.0842619
0.0433591
0.0954641
0.0163711
0.099872
0.115467
0.0863891
0.0851756
-0.165593
-0.43993
-0.230362
-0.143391
0.045737
-0.0390426
-0.0128307
-0.0186597
-0.0169544
0.936959
18.0498
67.0797
106.754
112.675
111.691
109.817
109.889
112.338
114.925
-0.436042
110.236
103.371
-0.0597554
0.0450454
0.0898294
0.0234139
0.0964796
0.101096
0.0853559
0.0778508
0.0749537
-0.356067
-0.223167
-0.183094
-0.0483079
0.0294799
0.0825234
-0.0121228
-0.0303774
-0.0183752
-0.0332706
-0.0361587
-0.0464799
11.8281
80.836
105.613
106.393
111.452
116.204
-0.00366264
115.73
3.68086
-0.0322275
0.0458942
0.0840581
0.0292605
0.0903742
0.0941039
0.0838281
0.0743814
0.108756
-0.259997
-0.20869
-0.197991
-0.0259619
-0.0390804
0.00897688
-0.00946779
-0.0427575
-0.00579958
-0.0326475
-0.0501635
0.0392512
-0.0683522
-0.0679348
-0.0445021
-0.0609751
-0.090757
-0.0927839
-0.0397897
87.7216
0.0201959
-0.00837488
0.0464567
0.078398
0.0340671
0.0976019
0.0911104
0.0818118
0.0719548
0.108245
-0.192839
-0.228619
-0.192769
-0.0180516
-0.0305953
0.0432937
0.00387342
0.223586
0.0127813
-0.0397914
-0.0663727
-0.0234003
-0.0638646
-0.0600287
0.0184732
-0.0152157
-0.0753024
-0.0744662
-0.0381331
15.6836
0.0388721
0.0109118
0.0471975
0.0731041
0.0380761
0.0978513
0.0917551
0.0792119
0.0708702
0.0868616
-0.0448214
-0.184768
-0.169122
-0.0538437
-0.0297852
0.0224811
-0.00410878
0.268863
0.118465
-0.0691618
-0.0853405
-0.0769411
0.0512085
-0.0444912
-0.0019779
-0.067789
-0.0785364
-0.0772922
-0.0211414
0.062742
0.0615388
0.0250631
0.0476778
0.0683679
0.0413118
0.078981
0.0825438
0.0763171
0.06963
0.0703222
-0.161309
-0.100485
-0.121667
-0.0679951
-0.0330625
-0.00113456
0.00283825
0.0795463
0.0339749
-0.0656254
-0.104529
-0.0927823
0.0437849
-0.0363536
-0.0662839
-0.0908136
-0.102942
-0.100615
-0.0063842
0.0517076
0.0745509
0.0344546
0.0477808
0.0642273
0.0439324
0.0773002
0.0894264
0.074059
0.0639523
0.0493491
-0.123733
-0.101677
-0.0991212
-0.0715363
-0.0408828
-0.021103
-0.00907311
0.000484945
0.0200416
-0.0972858
-0.106408
0.721922
0.0130708
-0.0415922
-0.088914
-0.123412
-0.13887
-0.137388
0.00629401
0.0573546
0.083273
0.0405495
0.0475898
0.0606766
0.0459649
0.0607985
0.0763392
0.0697051
0.0599902
0.0395966
-0.0794798
-0.0650771
-0.0784018
-0.0722711
-0.0534516
-0.0387098
-0.0374988
-0.0337704
0.228112
-0.114145
-0.123928
0.729071
-0.0634051
-0.0709609
-0.119809
-0.154478
-0.174478
-0.175434
0.0153398
0.0606066
0.0869833
0.0446881
0.0472488
0.0576545
0.047439
0.0603035
0.069645
0.0661098
0.0566294
0.0240067
-0.0341583
-0.0579716
-0.0659615
-0.0682728
-0.0597269
-0.0546472
-0.0809195
-0.0807777
-0.0950644
-0.123124
-0.120115
-0.0889212
-0.0650824
-0.100109
-0.141519
-0.17741
-0.197586
-0.199005
0.0207849
0.0644759
0.0864806
0.0475756
0.0468678
0.0550495
0.0483467
0.0585266
0.067249
0.0626733
0.0528526
0.0219976
-0.0387426
-0.0518937
-0.060264
-0.0660546
-0.0670741
-0.0873387
-0.128788
-0.128462
-0.119387
-0.123613
-0.116976
-0.0960929
-0.0819146
-0.105336
-0.139229
-0.171545
-0.189813
-0.193567
0.0232865
0.0660035
0.0831043
0.0494625
0.046461
0.0527567
0.0487023
0.0560999
0.0651768
0.0598003
0.0496407
0.0233768
-0.024773
0.00663037
-0.0577181
-0.0656735
-0.0742254
-0.10799
-0.168071
-0.141901
-0.128474
0.0195934
-0.124598
-0.10335
-0.0903725
-0.0878823
-0.10936
-0.136867
-0.148245
-0.156426
0.0236837
0.065276
0.0781862
0.0504017
0.0459722
0.0506655
0.048575
0.054143
0.0622636
0.0619641
0.0470089
0.0441474
-0.0167025
-0.0385239
-0.0560574
-0.0664039
-0.0792393
-0.112293
-0.152592
-0.127946
-0.112228
-0.103464
-0.101889
-0.0654766
-0.0867767
-0.0910124
-0.090937
-0.0812403
-0.0983294
-0.0961688
0.022727
0.0627029
0.0725547
0.0504029
0.0453368
0.0487052
0.0480041
0.0525479
0.0627242
0.0519952
0.0446998
0.023431
-0.0156633
-0.0376919
-0.0553921
-0.0673028
-0.0811142
-0.105342
-0.129918
-0.116496
-0.0291204
-0.0707229
-0.0670425
-0.055203
-0.072442
0.235762
-0.0500191
-0.055093
-0.0482421
-0.039343
0.0210098
0.0588947
0.06674
0.0496047
0.0444964
0.0468154
0.047022
0.0505419
0.0540454
0.0487824
0.0423894
0.0226938
-0.00124766
-0.0223741
-0.0558925
-0.0679942
-0.0805154
-0.095918
-0.105602
-0.0968023
-0.0795701
-0.0694285
-0.0678103
-0.069195
-0.0594017
0.0166553
-0.0548395
-0.0362225
-0.0162899
0.000424529
0.0189504
0.0543291
0.0610371
0.0481567
0.0434019
0.0449284
0.0456653
0.0485007
0.0499343
0.0454876
0.0400093
0.0233967
-0.00830474
-0.0281671
-0.0536377
-0.0682304
-0.078709
-0.0885432
-0.0929427
-0.0887775
-0.081618
-0.077973
-0.0773705
-0.0613018
-0.0698166
-0.0224494
-0.0360389
-0.00102877
-0.00389809
0.0122405
0.0168068
0.0493398
0.0555341
0.0461845
0.0419996
0.0429722
0.0439768
0.0459616
0.0469057
0.041861
0.0374667
0.0240327
-0.0086441
-0.0399656
-0.0579745
-0.0679898
-0.0764866
-0.0837484
-0.0876503
-0.0879967
-0.0874553
-0.0871409
-0.0833102
-0.0622867
0.166883
-0.0466202
-0.013419
-0.0131471
-0.00402359
0.0104831
0.014724
0.0441702
0.0502161
0.0437467
0.0402395
0.0408744
0.0419985
0.0437355
0.0426279
0.0375916
0.033635
0.0224782
-0.015275
-0.0496825
-0.0620562
-0.0677814
-0.074102
-0.0805012
-0.0853392
-0.0885285
-0.0913914
-0.0917791
-0.0862743
-0.0830251
-0.0479673
-0.0552939
-0.04236
0.0295736
-0.0169185
-0.00232081
0.0127708
0.0390182
0.0450426
0.0408379
0.0380842
0.0385667
0.039769
0.040636
0.0386893
0.032225
0.0263115
0.0121777
-0.041693
-0.0729914
-0.0697238
-0.0670433
-0.0709161
-0.0776569
-0.0837297
-0.0872841
-0.0906142
-0.0911971
-0.0803309
-0.0774599
-0.072247
-0.0424259
-0.066724
-0.0566348
-0.0463065
-0.0350029
0.0109616
0.0340071
0.0399681
0.0374952
0.0355072
0.0359852
0.0373057
0.0416823
0.0348698
0.025493
0.0127595
-0.0276391
-0.134081
-0.130772
-0.0814846
-0.0636408
-0.0649359
-0.0729643
-0.081632
-0.0852921
-0.0880947
-0.0895602
-0.0911628
-0.0700389
-0.0959702
-0.0937489
-0.0879847
-0.0826997
-0.0753694
-0.0701006
0.00928202
0.029176
0.0349454
0.0337652
0.0324877
0.0330644
0.0345835
0.0362166
0.0314611
0.0186756
0.00425121
-0.110829
-0.19131
-0.229686
-0.0956138
-0.0581145
0.145919
-0.0533572
-0.0714831
-0.0728604
-0.0743629
-0.0800834
-0.064272
-0.0709131
-0.0719544
-0.0898438
-0.0961827
-0.100881
-0.105804
-0.110245
0.0077042
0.0245188
0.0299264
0.0296659
0.0290039
0.0297343
0.0314584
0.0333166
0.0298073
0.017081
-0.00963964
-0.171264
-0.340321
-0.247448
-0.101993
-0.0508479
-0.0448688
-0.0403821
1.09997
1.20877
-0.0485018
-0.0562497
-0.0579299
-0.0606224
-0.0637083
-0.0622205
-0.0638913
-0.0631342
-0.0602408
-0.0524092
0.00620427
0.020012
0.024867
0.0252062
0.0250346
0.0259241
0.0278525
0.0302241
0.0305286
0.0273201
0.0188162
-0.118395
-0.242501
-0.185887
-0.0903788
-0.0428556
-0.00715572
-0.0230621
-0.0349733
-0.0100328
-0.0160785
-0.0220639
0.0398058
-0.0232626
-0.0180092
-0.0171738
0.00647696
-0.00266138
0.00323123
0.00800493
0.00476533
0.0156309
0.0197283
0.0203824
0.0205538
0.0215581
0.0236836
0.0270131
0.077914
0.0489802
0.0804977
0.00521787
-0.104389
0.191039
-0.0509637
-0.0125792
0.0104243
0.013048
0.00887543
0.00926299
0.0408775
-0.00388016
-0.00535977
-0.00406864
-0.00211179
0.00148371
0.00672665
0.0147949
0.0195967
0.0300247
0.00336628
0.0113315
0.0144679
0.0151794
0.0155311
0.0165474
0.0187554
0.0233203
0.0788071
0.0661947
0.128098
0.112896
0.0253389
-0.0817181
-0.0566035
0.00942728
0.0428858
0.0439425
0.0324257
0.0250696
0.0248429
0.0242417
0.0173161
0.0138313
0.0119695
0.0157669
0.0144713
0.0182881
0.0354659
0.0301197
0.00197328
0.00703354
0.00902072
0.00956638
0.00993212
0.010791
0.0127015
0.0172788
0.0296094
0.0583114
0.13976
0.13342
0.143928
-0.171406
-0.20001
-0.0445176
0.0389249
0.0653911
0.0615883
0.302864
0.308147
0.303919
0.0374487
0.0227216
0.0114995
0.00772133
0.00739225
0.0113416
0.0156953
0.0204344
0.000536422
0.00262674
0.00329425
0.00349881
0.00373305
0.00422851
0.00522883
0.00750555
0.0133502
0.0286621
0.0566644
0.0697001
-0.00821301
-0.184676
-0.212102
-0.107455
-0.0253517
0.0144081
0.0501495
0.0209137
0.0190606
0.0179732
0.0153654
0.00801904
0.0019879
0.0203685
0.0295318
0.0590612
0.0519307
0.01161
114.417
114.755
114.909
114.832
114.486
113.854
112.51
110.517
108.241
106.554
106.729
105.081
105.803
102.706
112.672
97.2336
18.7418
0.323437
0.0313656
0.131098
-0.0214985
-0.0338779
0.0129583
0.00106251
0.062138
0.0517388
76.7547
95.4221
119.314
101.166
114.658
115.067
115.226
115.107
114.706
114.127
112.495
110.257
106.944
104.726
106.365
103.546
105.32
101.424
113.834
40.7572
0.022645
-0.116165
0.00431447
0.13092
-0.00861031
-0.00341898
0.0136969
0.0041753
0.0627121
0.0583807
5.05383
94.6451
120.667
100.212
115.008
115.5
115.631
115.429
114.933
113.854
117.275
110.135
105.258
103.107
105.932
103.197
105.369
101.634
113.446
0.16315
-0.155177
-0.17771
0.0544855
0.134074
0.019085
-0.00263487
0.0143824
0.00750412
0.0631989
0.0680344
-0.0115626
93.7109
122.251
99.1245
115.548
116.132
116.157
115.82
115.223
114.092
112.694
110.364
103.001
102.309
105.273
105.198
100.493
0.250798
0.216109
0.108354
-0.172241
-0.185875
0.0551303
0.291907
0.0363902
-0.00782117
0.029566
0.0109347
0.0635911
0.0783633
0.054228
92.3299
124.112
97.9787
116.456
117.137
116.845
116.307
115.63
114.403
113.146
111.561
98.9373
91.5984
12.624
0.133038
0.15042
0.17164
0.225215
0.161103
-0.173392
-0.212647
0.0405783
0.172195
0.0353026
0.00986523
0.0158966
0.0143731
0.0638798
0.0879392
0.0995894
105.352
126.33
96.0505
117.999
118.984
117.661
116.856
116.286
114.666
111.309
58.486
0.140188
0.121143
0.130989
0.13571
0.138669
0.178387
0.274396
0.247373
-0.183311
-0.203728
0.0623634
0.174551
0.0372446
0.00498354
0.0143315
0.0177397
0.0640485
0.0959022
0.127697
-0.319385
129.038
96.3285
-0.0430299
5.08825
6.33212
2.15469
0.13762
0.24012
0.0722581
0.0955835
0.124957
0.120514
0.130151
0.13677
0.117089
0.195228
0.19035
0.279429
-0.174493
-0.176017
0.082203
0.17192
0.0359845
0.0183845
0.015721
0.0209702
0.064057
0.101856
0.142289
-0.323172
132.372
5.93777
-0.0601532
-0.0360748
0.122939
0.106153
0.222886
0.200402
0.0842701
0.0919882
0.124518
0.116846
0.126996
0.137309
0.178006
0.129014
0.191807
0.147599
-0.169088
-0.156169
0.0908628
0.278234
0.0445447
0.0192842
0.0179999
0.0240233
0.0638912
0.106028
0.146453
-0.190709
136.769
1.86154
-0.0629464
-0.0379679
-0.00215605
0.0551393
0.104717
0.10826
0.080154
0.0832484
0.125325
0.113891
0.119562
0.170754
0.156201
0.128858
0.176707
0.124271
-0.122924
-0.126918
0.144704
0.152241
0.0623558
0.0250272
0.020225
0.0268686
0.0635378
0.107961
0.142885
-0.119855
132.553
-0.106081
-0.0855783
-0.0585002
-0.0187046
0.0277845
0.0611429
0.0723458
0.0655874
0.0682119
0.0936039
0.112443
0.113906
0.122884
0.141666
0.131768
0.151516
0.141618
-0.0965573
-0.101729
0.0926114
0.0621176
0.0555731
0.0284478
0.0227891
0.0294877
0.0629778
0.107555
0.133771
-0.081458
3.97237
-0.0429941
-0.122114
-0.0940006
-0.0542191
-0.0112068
0.022926
0.0506858
0.055283
0.0544552
0.086436
0.113063
0.18235
0.111994
0.132389
0.115521
0.100752
0.104504
-0.0575885
-0.0776675
0.0448093
0.0739927
0.057731
0.0319815
0.0253576
0.0318127
0.0621821
0.105041
0.122484
-0.0497228
-0.0769348
-0.0568453
-0.161308
-0.134543
-0.0950454
-0.0490949
-0.00884155
0.633893
0.0465584
0.0449517
0.0847725
0.115663
0.163502
0.113617
0.121957
0.0741919
0.0645355
0.0989849
0.000788197
-0.0532859
0.0483729
0.0740384
0.0574584
0.0354252
0.0277591
0.0337916
0.0611292
0.100817
0.110762
-0.0282984
-0.0909401
-0.0663298
-0.186177
-0.160574
-0.124429
-0.0772756
-0.0284284
0.518537
0.0322671
0.0532221
0.0917224
0.118766
0.135705
0.143211
0.0802215
0.0354343
0.0600584
0.164179
0.0249923
-0.0124539
0.0471066
0.0697666
0.0551188
0.0377878
0.0298669
0.0354017
0.0597939
0.0953348
0.0992677
-0.0157559
-0.0947282
-0.0485469
-0.18371
-0.161816
-0.122053
-0.0848872
-0.0317762
0.0245078
0.0577781
0.0767126
0.114609
0.132431
0.129153
0.127561
0.0646521
0.0316649
0.0594066
0.285847
0.0645892
0.000366518
0.0441704
0.0633691
0.0521261
0.0390185
0.0315816
0.0366105
0.0581408
0.0890042
0.0881567
-0.00940098
-0.0912241
-0.036463
-0.150009
-0.132763
-0.101565
-0.0644792
-0.0131096
0.047175
0.0823597
0.100317
0.112162
0.122459
0.11384
0.111643
0.0624371
0.0416871
0.0460921
0.11748
0.063252
-0.00387499
0.0433818
0.0529671
0.0484723
0.0392125
0.0328212
0.0373844
0.0561476
0.0821539
0.0776193
-0.00663581
-0.0832069
-0.0389746
-0.088268
-0.0717898
-0.0423754
-0.0133952
0.0261918
0.0802553
0.105195
0.125466
0.132778
0.203988
0.104439
0.0774757
0.0428999
0.0387057
0.0255497
0.0319906
0.0710245
0.0586443
0.10114
0.0369036
0.0441799
0.0385372
0.0335274
0.0376869
0.0538024
0.0750398
0.0677935
-0.00556778
-0.0731318
-0.0430376
-0.0260383
-0.0094784
0.0114876
0.0378339
0.0690454
0.1155
0.119827
0.127849
0.141211
0.181054
0.124747
0.0413962
0.0185675
0.0041495
-0.0137129
0.00712672
0.0604757
0.0678909
0.423565
0.020431
0.0405744
0.0372069
0.0336653
0.0374853
0.0511098
0.0678644
0.0587279
-0.00514305
-0.0626333
-0.0365074
0.0157455
0.0317027
0.0498292
0.0705035
0.0952256
0.120608
0.14444
0.267553
0.120339
0.0954261
0.100617
0.00988157
-0.0292571
-0.0684285
-0.084486
-0.0483498
0.0243735
0.0524536
0.238953
0.0111738
0.0368455
0.0354702
0.03322
0.0367557
0.0480876
0.0607972
0.0504675
-0.00468097
-0.0526342
-0.0309593
0.0275296
0.0427245
0.0577799
0.071399
0.0843315
0.0934045
0.103945
0.103828
0.0922183
0.258867
0.0233366
-0.0435095
-0.113544
-0.186009
-0.189985
-0.150582
-0.0420208
-0.0012195
-0.0039619
0.0185765
0.0350183
0.0335638
0.0321833
0.0354849
0.0447637
0.0539762
0.0430275
-0.00375634
-0.0435757
-0.0261981
0.0228788
0.0364781
0.049355
0.0575704
0.0572704
0.020136
0.0171529
0.0601493
0.0327331
1.59748
-0.0522036
-0.142371
-0.241546
-0.32926
-0.416014
-0.285661
-0.124267
-0.0241603
-0.000577537
0.018263
0.0376609
0.0310276
0.0305288
0.0336709
0.0411731
0.0474927
0.0364822
-0.00268802
-0.0356172
-0.0220599
0.0245647
0.0200611
0.195374