/*--------------------------------*- C++ -*----------------------------------*\
| =========                 |                                                 |
| \\      /  F ield         | OpenFOAM: The Open Source CFD Toolbox           |
|  \\    /   O peration     | Version:  2.4.0                                 |
|   \\  /    A nd           | Web:      www.OpenFOAM.org                      |
|    \\/     M anipulation  |                                                 |
\*---------------------------------------------------------------------------*/
FoamFile
{
    version     2.0;
    format      ascii;
    class       volScalarField;
    location    "0.175";
    object      p_rgh;
}
// * * * * * * * * * * * * * * * * * * * * * * * * * * * * * * * * * * * * * //

dimensions      [1 -1 -2 0 0 0 0];

internalField   nonuniform List<scalar> 
57600
(
48.6485
57.799
71.9227
78.2507
79.8646
79.9168
80.6135
83.9533
89.0227
93.2515
95.647
96.4337
96.1047
95.1125
93.8074
92.4278
91.1227
89.9745
89.0188
88.2589
87.6778
87.2489
86.9437
86.7357
86.6029
86.527
86.4939
86.4923
86.5132
86.5503
48.5573
61.5319
74.1402
78.9427
79.9451
79.928
81.1168
85.1195
90.2221
94.0417
96.0006
96.4619
95.9261
94.8241
93.4771
92.0989
90.8205
89.7119
88.8003
88.083
87.5398
87.1428
86.8634
86.6759
86.5589
86.4952
86.4713
86.4764
86.5023
86.5426
48.3838
61.5444
74.2115
78.9831
79.9591
79.9017
81.024
85.0555
90.2462
94.1127
96.078
96.5272
95.9753
94.8578
93.4954
92.1015
90.8078
89.686
88.764
88.0395
87.4921
87.0933
86.8136
86.6266
86.5106
86.4481
86.4253
86.4315
86.4583
86.4995
48.1282
61.5661
74.3242
79.0459
79.9812
79.8617
80.8773
84.9481
90.2745
94.2185
96.2007
96.6347
96.0581
94.9156
93.5281
92.1083
90.7899
89.6464
88.7076
87.9717
87.4176
87.0157
86.7355
86.5495
86.4351
86.3744
86.3535
86.3615
86.3899
86.4323
47.7887
61.5986
74.479
79.1307
80.0114
79.8092
80.6753
84.7981
90.31
94.3594
96.3662
96.7823
96.1739
94.9977
93.5752
92.1197
90.7667
89.5933
88.6312
87.8794
87.3161
86.9101
86.6293
86.4446
86.3326
86.2745
86.2561
86.2664
86.2968
86.3411
47.3624
61.6433
74.6772
79.2373
80.0497
79.7452
80.4139
84.6015
90.3541
94.5369
96.5743
96.9689
96.3212
95.1024
93.6355
92.1346
90.7379
89.526
88.5338
87.7615
87.1865
86.7756
86.4944
86.3118
86.2028
86.148
86.1326
86.1455
86.1784
86.2249
46.8458
61.7018
74.9205
79.3652
80.0964
79.6713
80.0882
84.3543
90.4084
94.7528
96.8262
97.195
96.4997
95.2292
93.7087
92.153
90.703
89.4437
88.4143
87.6167
87.0274
86.611
86.3297
86.1501
86.0452
85.9944
85.9826
85.9986
86.0342
86.0833
46.2364
61.7735
75.2111
79.5141
80.1517
79.5899
79.6918
84.0505
90.4745
95.0095
97.1238
97.461
96.7096
95.378
93.7949
92.175
90.6619
89.3457
88.2712
87.4429
86.8369
86.4145
86.1341
85.9589
85.8595
85.8138
85.8062
85.8256
85.8642
85.9161
45.5331
61.8526
75.5514
79.6834
80.2157
79.5041
79.2168
83.6839
90.5546
95.3098
97.4688
97.7686
96.9515
95.5495
93.8946
92.201
90.6145
89.231
88.1025
87.2377
86.6123
86.1839
85.906
85.7373
85.6454
85.6066
85.6043
85.6274
85.6686
85.7229
44.7381
61.9261
75.9444
79.8721
80.2884
79.418
78.6535
83.2453
90.6517
95.6568
97.8637
98.1191
97.2259
95.7441
94.0084
92.2315
90.5609
89.0985
87.906
86.9981
86.3505
85.9164
85.6432
85.4841
85.4026
85.3731
85.3778
85.4054
85.4484
85.5027
43.8603
61.9749
76.3934
80.0795
80.3699
79.3368
77.9902
82.725
90.7696
96.0541
98.3108
98.5139
97.5335
95.9623
94.1369
92.2673
90.5014
88.9472
87.6791
86.7201
86.0471
85.6084
85.3433
85.1979
85.1308
85.1139
85.1282
85.1618
85.2068
85.259
42.9115
61.9773
76.9019
80.3041
80.4598
79.2674
77.2126
82.1106
90.9133
96.5052
98.8128
98.9545
97.8751
96.2047
94.2808
92.3089
90.4365
88.7759
87.4187
86.3991
85.6971
85.2554
85.0031
84.8768
84.8292
84.829
84.8563
84.8983
84.9475
85.0018
41.8674
61.9086
77.4739
80.5446
80.5574
79.2183
76.3028
81.3875
91.0888
97.0145
99.3727
99.443
98.251
96.4717
94.4407
92.3573
90.3673
88.5836
87.1211
86.0291
85.2935
84.8514
84.6185
84.5186
84.4967
84.5179
84.5616
84.6153
84.6718
84.7282
40.7294
61.7428
78.114
80.7992
80.6613
79.2005
75.2379
80.5373
91.3034
97.5862
99.9934
99.981
98.6619
96.7638
94.6172
92.4129
90.2952
88.3692
86.7823
85.6027
84.8275
84.3889
84.1845
84.1205
84.1315
84.1789
84.2418
84.3095
84.3767
84.4434
39.498
61.4548
78.8276
81.0655
80.7693
79.2267
73.9918
79.5361
91.5661
98.2247
100.678
100.57
99.1079
97.0812
94.8107
92.4758
90.222
88.1312
86.3975
85.1106
84.2871
83.8575
83.6946
83.6792
83.7321
83.8104
83.8941
83.9757
84.0528
84.1254
38.1709
61.0274
79.6216
81.3411
80.8777
79.312
72.5541
78.3623
91.8848
98.9354
101.428
101.213
99.5885
97.4238
95.0216
92.5449
90.1468
87.8635
85.9618
84.5408
83.6555
83.2433
83.1412
83.1916
83.298
83.4128
83.5189
83.6141
83.7007
83.7811
36.743
60.4669
80.5035
81.6228
80.9809
79.4713
70.9162
77.0273
92.2602
99.7214
102.248
101.911
100.102
97.7909
95.2497
92.6172
90.0584
87.5444
85.4706
83.8783
82.9087
82.5266
82.5148
82.6548
82.8294
82.9888
83.1205
83.2304
83.3271
83.4165
35.205
59.8207
81.4772
81.9066
81.0698
79.7168
69.0161
75.5379
92.6754
100.59
103.139
102.665
100.647
98.1805
95.4943
92.6897
89.9189
87.1722
84.9251
83.1047
82.0109
81.6799
81.8088
82.069
82.3292
82.5455
82.7095
82.8371
82.9444
83.0416
33.5358
59.1872
82.5431
82.1878
81.1306
80.0504
66.7724
73.913
93.1157
101.551
104.102
103.475
101.215
98.5887
95.7517
92.7635
89.691
86.8561
84.3378
82.1974
80.9106
80.6736
81.0389
81.457
81.8122
82.0979
82.3027
82.4497
82.5643
82.6633
31.6941
58.7075
83.6999
82.46
81.1416
80.4507
63.9982
72.2878
93.6055
102.613
105.137
104.339
101.798
99.0067
96.013
92.8524
89.4041
86.6243
83.7162
81.1352
79.5521
79.4917
80.2743
80.8936
81.325
81.6674
81.9141
82.0781
82.1909
82.2801
29.5984
58.5461
84.9473
82.7156
81.081
80.8557
60.5226
70.8503
94.2062
103.776
106.24
105.254
102.381
99.421
96.2933
92.9893
89.1367
86.401
83.052
79.8899
77.8329
77.9912
79.5631
80.4385
80.8922
81.2652
81.5553
81.7354
81.8304
81.8877
27.0804
58.9011
86.2855
82.9471
80.8909
81.1538
56.7079
69.6073
94.9899
105.021
107.405
106.211
102.928
99.8148
96.698
93.212
88.952
86.1737
82.3246
78.3848
75.2716
75.2704
78.8341
80.1186
80.4642
80.8724
81.2524
81.4597
81.5006
81.4732
23.7338
60.05
87.7135
83.1388
80.9136
81.2837
55.1918
68.6273
96.0114
106.308
108.628
107.193
103.376
100.159
97.265
93.5562
88.948
85.9526
81.6479
76.5807
71.9399
71.1154
78.3003
80.0236
79.9064
80.4498
81.0755
81.3569
81.2544
81.0075
18.4684
62.5623
89.2272
83.2421
80.8557
81.2534
4.98004
70.9934
97.3935
107.604
109.895
108.177
103.595
100.42
97.944
94.0795
89.247
85.6635
81.0597
74.141
70.0446
70.2664
79.8392
79.8409
78.7818
79.9393
81.1754
81.7145
81.2311
80.3975
13.4562
66.0675
90.8156
83.1647
81.0718
80.9835
-0.473511
64.8904
99.2359
108.917
111.181
109.129
103.338
100.527
98.7482
94.834
89.9183
85.1071
80.5392
69.5697
69.9933
69.5384
77.1392
75.1731
75.1551
79.5263
81.7417
83.4736
81.8159
79.2214
22.4264
69.8632
92.4634
82.6217
80.7608
12.4921
-0.737408
14.0354
101.775
110.294
112.448
110.015
102.975
100.431
99.7685
95.7681
90.968
83.8887
81.2304
0.461643
0.2473
0.223787
0.193372
0.309478
0.172124
0.346098
0.304832
0.231285
0.181192
0.171091
32.7035
73.9039
94.2014
81.1692
-0.18282
-0.444966
-1.08941
-12.0339
103.136
111.592
113.647
110.713
103.59
100.844
101.018
96.7889
92.3656
82.4764
0.538854
0.320295
0.186361
0.165325
0.132797
0.111195
0.151889
0.162891
0.173688
0.182562
0.177107
0.168659
49.8342
76.6275
96.2255
0.869356
-0.192567
-0.422698
-1.19323
44.775
103.096
112.553
114.684
111.006
102.863
102.698
102.249
97.7873
94.48
80.9105
0.251537
0.253104
0.554864
0.131561
0.0964931
0.126361
0.163499
0.181328
0.182103
0.180566
0.176029
0.167014
45.6262
80.1083
98.7577
-0.237553
-0.203892
-0.389135
-1.07064
33.0679
103.138
112.641
115.692
110.796
100.264
106.148
103.009
98.2647
97.8687
-0.647571
0.344335
0.213507
0.187184
0.11225
0.0761562
0.114729
0.161893
0.18297
0.185331
0.186027
0.183782
0.171811
19.1078
84.3985
103.047
-0.196969
-0.20176
-0.360873
-0.920346
0.186057
101.134
114.993
116.378
110.517
99.2168
108.824
102.817
96.7206
79.7654
0.0069808
0.516002
0.192367
0.150911
0.103688
0.0806942
0.104019
0.146452
0.172733
0.184865
0.194583
0.20344
0.21187
86.5986
86.6614
86.747
86.8611
87.0104
87.2032
87.4497
87.7619
88.1544
88.6444
89.2514
89.9948
90.8903
91.9432
93.1381
94.4301
95.7389
96.9386
97.832
98.135
97.4873
95.4744
91.9474
87.9275
85.5912
85.8995
88.111
91.2678
94.2961
96.4041
86.5946
86.663
86.7555
86.8781
87.0379
87.2436
87.5059
87.8375
88.2539
88.773
89.4145
90.1977
91.1365
92.232
93.4616
94.7714
96.0708
97.2188
97.9959
98.0984
97.1453
94.7277
90.8865
87.0701
85.4128
86.3167
88.8798
92.1095
94.9825
96.8167
86.5522
86.6212
86.7144
86.8376
86.9979
87.2041
87.4669
87.7993
88.217
88.7383
89.3832
90.1715
91.1174
92.2224
93.4634
94.7852
96.0963
97.2557
98.0435
98.1553
97.2037
94.764
90.8633
86.9973
85.3557
86.2922
88.8696
92.1078
94.9835
96.8173
86.4862
86.5563
86.6504
86.7744
86.9355
87.1424
87.4062
87.7399
88.1598
88.6846
89.3348
90.1311
91.0885
92.2093
93.47
94.8128
96.1439
97.3201
98.1221
98.2448
97.2903
94.8124
90.8206
86.8804
85.2653
86.2539
88.8546
92.1065
94.987
96.8228
86.3965
86.468
86.5636
86.6888
86.851
87.059
87.324
87.6597
88.0826
88.6122
89.2699
90.0772
91.0506
92.1936
93.482
94.8548
96.2133
97.4112
98.2299
98.3647
97.4052
94.8762
90.7608
86.7193
85.1417
86.202
88.8344
92.1053
94.9933
96.8331
86.2823
86.3559
86.4533
86.5803
86.7441
86.9535
87.2203
87.5584
87.9852
88.521
89.1881
90.0095
91.0034
92.1751
93.4992
94.9092
96.3017
97.5264
98.3655
98.5147
97.5493
94.9567
90.6831
86.5112
84.9843
86.1371
88.8089
92.1042
95.0021
96.8481
86.1432
86.2193
86.3191
86.4483
86.6141
86.8256
87.0945
87.4357
87.8672
88.4103
89.0889
89.9272
90.9461
92.1532
93.5212
94.9754
96.4077
97.6646
98.5285
98.6951
97.7237
95.055
90.586
86.2525
84.7927
86.0598
88.7779
92.1031
95.0135
96.8673
85.9789
86.0579
86.1605
86.2923
86.4608
86.6748
86.9464
87.2911
87.728
88.2796
88.9712
89.8294
90.8777
92.1274
93.5483
95.0536
96.5312
97.8259
98.719
98.9067
97.9296
95.1725
90.4674
85.9393
84.5665
85.9711
88.7412
92.1018
95.0274
96.8902
85.7889
85.8717
85.9765
86.1113
86.2834
86.5005
86.7753
87.1239
87.5668
88.1278
88.8342
89.7149
90.7966
92.0967
93.581
95.1439
96.6725
98.0106
98.9375
99.1502
98.1685
95.3109
90.3252
85.5664
84.3052
85.872
88.6986
92.1005
95.0437
96.9162
85.5705
85.662
85.7637
85.9034
86.0811
86.3023
86.5807
86.9336
87.3828
87.9539
88.6766
89.5823
90.7011
92.0597
93.6199
95.2467
96.8321
98.2193
99.1845
99.4265
98.4421
95.4719
90.1569
85.1277
84.0083
85.7639
88.6497
92.0989
95.0623
96.9444
85.3162
85.6236
85.5498
85.6672
85.8531
86.0797
86.3622
86.7195
87.175
87.7567
88.497
89.4301
90.5889
92.014
93.6659
95.3615
97.0104
98.4528
99.4603
99.7365
98.7523
95.6579
89.9594
84.6156
83.6753
85.6485
88.5939
92.0971
95.083
96.9736
85.0711
85.1623
85.2627
85.4075
85.5988
85.8323
86.1194
86.4808
86.9424
87.5347
88.2937
89.2568
90.4572
91.9549
93.7202
95.4873
97.2075
98.712
99.7655
100.081
99.101
95.8711
89.7292
84.0205
83.3059
85.5274
88.5305
92.0948
95.1058
97.0021
84.8757
84.8767
84.98
85.1238
85.3174
85.5583
85.8512
86.2171
86.6841
87.2861
88.0647
89.0613
90.3031
91.871
93.7829
95.6211
97.4238
98.9981
100.101
100.461
99.4899
96.1138
89.4622
83.3304
82.8994
85.4028
88.4587
92.0922
95.1306
97.0281
84.5058
84.5828
84.6819
84.8156
85.0049
85.2547
85.5567
85.928
86.399
87.0087
87.8073
88.8424
90.125
91.7306
93.849
95.7573
97.6602
99.3124
100.466
100.879
99.9203
96.3883
89.1525
82.5294
82.4546
85.2769
88.3774
92.0892
95.1575
97.0483
84.196
84.2726
84.3601
84.4666
84.6439
84.9232
85.239
85.615
86.0865
86.6997
87.5179
88.5992
89.9252
91.4474
93.8937
95.8862
97.918
99.6572
100.862
101.334
100.394
96.6958
88.7909
81.599
81.9691
85.1517
88.2854
92.0858
95.1864
97.0591
83.8598
83.9449
84.0274
83.9924
84.1248
84.593
84.91
85.2812
85.7459
86.3549
87.1909
88.3299
89.7183
90.9308
93.8284
95.9944
98.2004
100.035
101.288
101.828
100.915
97.0364
88.3674
80.5356
81.4401
85.0293
88.1811
92.0821
95.2177
97.0592
83.5055
83.6089
83.76
84.7264
85.9328
84.3088
84.5768
84.9297
85.3761
85.9683
86.8177
88.0296
89.5391
90.6044
93.4695
96.0708
98.5129
100.449
101.745
102.361
101.49
97.4106
87.8809
79.3372
80.8726
84.9105
88.0628
92.0781
95.2516
97.0392
83.1378
83.2483
83.3894
83.5516
83.7328
83.97
84.2286
84.561
84.9763
85.5312
86.3855
87.6901
89.3987
90.7641
92.6775
96.1231
98.8646
100.903
102.229
102.935
102.122
97.8221
87.3284
77.968
80.2703
84.7937
87.9281
92.0739
95.289
96.9942
82.7599
82.8705
83.0086
83.1792
83.3807
83.6158
83.8638
84.1783
84.547
85.0306
85.8751
87.299
89.235
90.9414
91.6639
96.199
99.2681
101.402
102.739
103.549
102.809
98.2782
86.7054
76.4872
79.6287
84.673
87.7739
92.0692
95.3306
96.923
82.3672
82.4723
82.6101
82.7851
83.0033
83.2856
83.4769
83.7942
84.0933
84.4467
85.2578
86.8409
89.013
90.8635
91.0088
96.3816
99.7386
101.952
103.27
104.204
103.553
98.7918
86.0362
74.9384
78.9639
84.5341
87.5923
92.0635
95.378
96.817
81.9481
82.042
82.1912
82.3972
82.6469
83.0684
83.2116
83.4271
83.6224
83.7531
84.486
86.3028
88.739
90.62
91.168
96.7383
100.292
102.559
103.813
104.899
104.355
99.3877
85.4103
73.4337
78.3218
84.3531
87.3679
92.0563
95.4322
96.6646
81.4668
81.5364
81.7211
82.0136
82.3577
82.6716
82.9569
83.0698
83.1337
82.8752
83.4737
85.688
88.3651
90.3964
92.0787
97.2635
100.941
103.23
104.36
105.632
105.219
100.092
85.0319
72.138
77.7933
84.0983
87.0923
92.0466
95.494
96.4546
80.8391
80.855
81.1128
81.5731
82.1049
82.5317
82.7317
82.6823
82.563
81.3453
81.9788
84.9539
87.8025
90.2235
93.2373
97.8677
101.7
103.974
104.902
106.399
106.151
100.95
85.1756
62.3356
77.4783
83.7328
86.8017
92.0339
95.5617
96.1747
79.8584
79.7993
80.2542
81.0322
81.9132
82.5614
82.6457
82.1961
81.7695
79.039
80.258
83.9763
86.9128
90.0312
94.1414
98.4464
102.588
104.804
105.411
107.192
107.162
102.009
85.9213
70.5731
73.7306
83.221
86.6386
92.0173
95.6368
95.8115
77.9343
77.9777
79.1453
80.384
81.9233
83.0436
82.8596
81.2702
81.3034
78.4196
79.3988
82.9859
85.5072
89.7914
94.7247
99.0166
103.629
105.734
105.828
107.989
108.268
103.276
88.5326
13.8429
3.52478
83.0354
86.8073
91.9965
95.7447
95.3499
0.165236
0.158385
0.156281
0.138626
0.133071
1.79954
7.94602
27.8413
57.6529
79.4806
78.9868
82.1836
83.3097
89.6099
95.2913
99.7851
104.855
106.787
106.03
108.742
109.445
104.757
89.3427
-0.300404
0.139697
74.2517
87.4421
91.98
95.9307
94.7723
0.160894
0.153416
0.146234
0.140189
0.135069
0.132462
0.133409
0.132951
0.115335
0.117494
0.050069
65.0711
79.3981
89.8603
95.973
100.815
106.261
107.982
105.871
109.396
110.632
106.135
92.0785
-0.393297
0.121974
0.0388062
88.7163
92.0106
96.2156
94.0456
0.155553
0.144957
0.143108
0.158202
0.148736
0.140345
0.133552
0.130277
0.110548
0.0891001
0.0567329
0.165933
12.7649
91.51
96.9417
101.859
107.851
109.358
105.241
109.94
111.884
107.767
97.85
-0.336137
0.108958
0.0578758
0.00948365
92.1972
96.5664
93.0495
0.148399
0.124329
0.117491
0.122707
0.12997
0.130846
0.129032
0.122352
0.0822675
0.0409326
0.03249
0.187751
0.0280846
87.2919
97.9257
102.82
109.639
110.928
104.69
110.488
113.209
109.758
55.4673
-0.217791
0.0864774
0.0599296
0.0288464
39.1327
96.9398
91.8722
0.139069
0.0602403
0.0852116
0.108679
0.120323
0.124755
0.122946
0.106969
0.0462929
0.00433618
0.0172205
0.0817922
0.037325
-0.0300272
96.1271
103.377
111.095
111.871
105.058
111.042
114.584
109.01
12.2524
-0.102218
0.059709
0.0546051
0.0261409
0.215704
91.5253
90.7159
-5.30257
12.6653
3.5719
-0.173722
-0.196597
-0.341067
-0.819564
26.8519
107.373
114.73
115.515
110.792
100.584
109.375
101.465
93.2485
-0.137319
-0.0310442
1.87585
0.170004
0.146536
0.0979581
0.0847543
0.110317
0.133272
0.161106
0.180729
0.198025
0.220254
0.29552
0.965338
10.7716
-0.119519
-0.161244
-0.192464
-0.328142
-0.767596
-0.534632
107.03
114.441
115.149
111.354
102.055
109.436
99.9693
32.1143
-0.0574707
-0.0402385
0.933673
0.154175
0.130955
0.0981136
0.097142
0.108338
0.123973
0.153526
0.176116
0.195574
0.226935
0.260205
0.290038
0.341672
-0.0989431
-0.148864
-0.187232
-0.313508
-0.73203
3.10551
96.6272
113.92
115.397
111.351
104.239
109.961
99.4038
-0.187033
-0.0349251
0.0696933
-0.126614
0.134963
0.119937
0.0957808
0.0888122
0.0993277
0.115215
0.145503
0.169435
0.189251
0.211363
0.329636
0.146275
0.348792
-0.0764437
-0.136198
-0.180941
-0.296928
-0.709008
11.8376
23.6423
118.487
115.801
111.911
106.881
110.921
-1.60947
-0.0727991
-0.0176644
-0.0157678
0.079997
0.116843
0.10984
0.0927715
0.0913379
0.103707
0.11059
0.137601
0.160953
0.179273
0.201184
0.195839
0.0635512
0.302152
-0.0540767
-0.123593
-0.173678
-0.278224
-0.59017
9.02624
-0.331011
121.882
116.389
115.651
108.703
93.2474
-0.0187217
-0.0369483
-0.00289514
-0.0223541
0.0635927
0.101787
0.0988336
0.0854701
0.0948996
0.0886697
0.104202
0.129607
0.151128
0.166387
0.174609
0.166445
-0.00931216
0.268315
-0.0344349
-0.111204
-0.165542
-0.257092
1.7996
1.03448
1.85543
118.968
117.764
119.272
108.194
0.343373
0.0139031
0.0143125
-0.00526073
0.0362915
0.0722247
0.0882719
0.0892261
0.0845087
0.204095
0.0794548
0.0987889
0.121767
0.140845
0.152673
0.155723
0.147699
-0.0862219
0.237589
-0.0185111
-0.0993063
-0.156619
-0.233167
0.174898
0.704001
0.252323
122.438
119.683
119.86
-0.0180545
0.332773
0.0255926
0.00795571
-0.029946
0.0134849
0.0707149
0.0778226
0.0803978
0.0763125
0.207992
0.0727574
0.0929673
0.114392
0.131158
0.140583
0.145669
0.137289
-0.171763
0.187318
-0.00651139
-0.0882204
-0.146985
-0.206565
1.33869
0.445152
0.255659
127.767
120.507
1.44025
-0.0685213
0.0205262
0.033089
0.0167686
-0.0135043
-0.0213428
0.0636164
0.0676281
0.0731112
0.0723455
0.0680796
0.0693182
0.087611
0.107787
0.122719
0.131157
0.132291
0.130407
-0.280394
0.0765
0.00177124
-0.0782233
-0.136705
-0.178563
0.520652
0.259514
0.503814
0.927111
51.3605
0.192641
-0.0274105
0.0329098
0.0176838
0.0717601
-0.0106316
-0.013897
0.0374208
0.0594447
0.0680185
0.0665368
0.0667609
0.0693404
0.10965
0.0995641
0.114971
0.129784
0.124908
0.124356
-0.372969
-0.0667119
0.00690345
-0.0694583
-0.125852
-0.150319
0.292973
-0.0667706
0.305417
0.303404
0.039415
0.119417
0.0256441
0.0423957
0.0251695
0.0500122
0.0412504
0.00322913
0.0291101
0.0540899
0.0624988
0.0629652
0.0590029
0.0715642
0.081064
0.093982
0.115534
0.113632
0.116065
0.116227
-0.283209
-0.113115
0.00968903
-0.0618501
-0.114499
-0.122959
0.205794
-0.0106289
0.131129
0.352282
0.0388349
0.0873431
0.0519021
0.0230952
0.01862
0.0780155
0.0647494
0.014948
0.0295102
0.0514491
0.0651364
0.0638954
0.0643563
0.0700329
0.0770704
0.0874579
0.0958427
0.102567
0.10496
0.104404
-0.176005
-0.0431475
0.0109587
-0.0551705
-0.102735
-0.0973474
0.159205
1.32322
0.0275905
0.185119
0.0403929
0.0633828
0.0732504
0.0112501
0.0250476
0.0696073
0.0616338
0.0219383
0.0374767
0.0505908
0.0644158
0.0696058
0.0664969
0.0661075
0.0728973
0.0799374
0.0858884
0.0900382
0.092471
0.0931872
-0.102426
-0.000256845
0.0114194
-0.0491159
-0.09068
-0.0742355
0.148902
5.87607
-0.0531221
0.0985323
0.00167878
0.0474884
0.0561116
0.00464527
0.0720205
0.0444107
0.0573358
0.0358035
0.0479932
0.0528496
0.289002
0.0759673
0.0664333
0.0659732
0.0709891
0.0719504
0.074387
0.0766281
0.0782607
0.0792852
-0.0526295
0.0458001
0.0115517
-0.043402
-0.0784809
-0.0534338
0.170973
6.61881
-0.0572079
0.0368078
-0.0527582
0.0929744
0.049929
-0.00616927
0.070292
0.0274428
0.0764514
0.0391662
0.0550937
0.0638413
0.145029
0.042893
0.0601463
0.0634179
0.0628574
0.0619087
0.0615511
0.0621296
0.0637851
0.0645681
-0.0196144
0.0453455
0.0116309
-0.0378426
-0.0663414
-0.0357969
0.162761
0.96831
-0.0853065
0.00746018
-0.0827911
0.240139
0.225204
-0.0137594
-0.00164359
0.00704659
0.0439285
0.0374789
0.0530724
0.0702619
0.0581093
0.047064
0.0609415
0.0750599
0.0634892
0.0526012
0.0490764
0.0480138
0.0488766
0.0504262
0.00170041
0.0548454
0.011733
-0.0323397
-0.0544976
-0.0208642
0.130187
0.232435
-0.057915
-0.0173458
-0.0990457
0.13001
0.103588
-0.0212161
-0.0287082
-0.0244383
0.00705836
0.0228622
0.0485139
0.0654608
0.0680523
0.0723391
0.0693951
0.0633115
0.053605
0.0458784
0.0566179
0.0392868
0.0383435
0.0395677
0.0139909
0.0560207
0.0117928
-0.026879
-0.0431962
-0.00860509
0.104083
0.176413
-0.0133746
-0.000247924
-0.101951
0.590001
0.0257677
-0.0325582
-0.051713
-0.033355
0.00471875
0.0148986
0.0401691
0.0906617
0.0666282
0.0740889
0.0735562
0.0633071
0.051619
0.0406567
0.0339053
0.0327223
0.0340258
0.0452415
0.0212275
0.0546677
0.0117253
-0.0215314
-0.0326577
0.00132883
0.0762858
0.180863
0.0377666
0.0399735
0.0782383
0.796165
0.0270535
-0.046871
-0.0785994
-0.0533707
-0.0232914
0.00611012
0.0271286
0.0428108
0.0591432
0.0697118
0.0731354
0.061958
0.0524161
0.0477025
0.0374013
0.0376039
0.0352103
0.0368266
0.0228381
0.0506864
0.0114664
-0.0163959
-0.0230638
0.00931112
0.0670221
0.381606
0.0674396
0.286381
0.0326802
0.0930279
0.0179495
-0.0598158
-0.106631
-0.0847008
-0.0402186
-0.00421218
0.0229317
0.118817
0.0604834
0.0596965
0.0616064
0.059747
0.055082
0.0497479
0.0457551
0.0436548
0.0435174
0.0446383
0.0236315
0.0454035
0.0110283
-0.0115818
-0.0145728
0.0155008
0.0696689
0.2253
0.0956137
0.111664
0.000335849
0.0535709
0.00213934
-0.0724801
-0.127201
-0.111637
-0.0585326
-0.00977859
0.0185558
0.121458
0.0450037
0.0636024
0.0554302
0.0587929
0.0630834
0.0615734
0.0558678
0.0556114
0.0565257
0.0591318
0.0209475
0.0384652
0.0104376
-0.00722629
-0.00731848
0.0199576
0.0695125
0.173174
0.0943709
0.0720018
0.00739314
0.067515
-0.0122978
-0.0738157
-0.131338
-0.120423
-0.0683188
-0.019357
0.0105679
0.0257164
0.0380336
0.046192
0.0529269
0.0578455
0.0608946
0.0608166
0.0645354
0.0661396
0.065546
0.0677813
0.0162361
0.0318418
0.0096851
-0.00344626
-0.00140617
0.0227603
0.0636561
0.125862
0.0878328
0.0226705
0.0128372
0.0247029
-0.0167527
-0.065612
-0.112614
-0.104649
-0.0600655
-0.014351
0.0118711
0.0275613
0.0380567
0.0457843
0.0516759
0.0563699
0.0593252
0.195029
0.181451
0.0655454
0.0668311
0.0685954
0.012012
0.0260081
0.00875078
-0.000330476
0.00309831
0.0233295
0.0547095
0.0882709
0.0630215
0.0312585
0.0107949
0.00492502
-0.0163351
0.107772
-0.0771923
-0.0668743
-0.0331714
-0.000198129
0.0201739
0.0325716
0.0407249
0.0468076
0.0508646
0.0532242
0.0538848
0.0523253
0.0548492
0.0595053
0.0628609
0.0657599
0.00703724
0.0207077
0.00760643
0.00204106
0.00618806
0.0224315
0.0435633
0.0549584
0.0233562
0.00892656
0.00355923
-0.000630384
-0.0118362
-0.0254548
-0.0352135
-0.026571
-0.0031833
0.0194325
0.0342881
0.048298
0.0561285
0.0498741
0.0508493
0.0521875
0.053376
0.0548688
0.056705
0.0586557
0.0605848
0.0624618
0.000801589
0.0140999
0.00622208
0.00363284
0.00791048
0.0199397
0.0309679
0.022474
-0.0114732
-0.027426
-0.0066207
-0.00367568
0.0399831
-0.00885413
-0.0136435
-0.00371955
0.0142019
0.0341409
0.0476646
0.052488
0.0526952
0.0536764
0.0501775
0.0495287
0.0494089
0.0502392
0.0515634
0.0530525
0.0545273
0.055896
-0.01386
0.0022382
0.00468802
0.0044524
0.00837551
0.0165883
0.0188191
-0.000476137
-0.069663
-0.0562647
-0.0159325
-0.00435155
-0.00189754
-0.00131286
-0.000717657
0.0618974
0.0206775
0.0299658
0.0407202
0.0510272
0.0491371
0.0442858
0.0430897
0.0340712
0.03386
0.0349831
0.0369926
0.0383364
0.0398908
0.0412231
-0.0338868
-0.0281003
0.00335979
0.00453773
0.00777106
0.0127471
0.0110308
0.00550691
-0.0904803
-0.0369974
-0.0196245
-0.00454752
0.000390062
0.00390671
0.00924844
0.01051
0.0172353
0.0162106
0.161158
0.166364
0.149482
0.155579
0.0325715
0.0105136
0.0104244
0.0126704
0.0147602
0.0165458
0.0171945
0.0208419
-0.00906665
-0.00724585
0.00254669
0.00397513
0.00633112
0.00882781
0.0050605
-0.00688772
-0.0377384
0.0423456
-0.0161537
-0.00589108
-0.00135458
0.00207739
0.00463489
0.0104848
0.00890953
0.0326518
0.0104213
0.0109157
0.0188225
0.00466068
-0.00340082
-0.00360396
-0.00132777
0.00092467
0.00347494
0.00488294
0.00845658
0.00471637
-0.000534708
0.00155436
0.00177795
0.00285905
0.00428614
0.00525326
0.00276458
-0.00666359
0.0247835
-0.0176101
-0.0138715
-0.0104662
-0.00702533
-0.00386196
-0.00154651
-0.000279665
0.00162577
-0.0018544
-0.000810652
0.000717983
0.0023393
0.00285304
0.00283655
0.00246271
0.00215114
0.00243632
0.00444868
0.00645321
0.0067972
0.00492859
0.000464655
0.0016499
0.000772419
0.00125071
0.00179322
0.002004
0.00120528
-0.000799782
0.00867974
-0.0131505
-0.018914
-0.0190254
-0.0159315
-0.0123234
-0.00950638
-0.00783503
-0.00716308
-0.00687579
-0.00623225
-0.00509909
-0.0036482
-0.00211106
-0.000674168
0.000510101
0.00153788
0.00209856
0.00488037
0.00166146
0.00146733
0.00114431
1.43856
-0.107686
0.0711113
0.103793
0.115041
0.118041
0.117492
0.0937314
0.0145482
-0.0115105
0.00445667
0.0636164
0.044053
0.0513675
37.2355
102.618
111.013
111.094
104.358
111.572
115.44
102.851
-1.26091
-0.0536525
0.0428955
0.0492251
0.0278637
0.187285
0.157836
12.3117
15.0469
-0.016002
0.100446
0.100129
0.114017
0.116913
0.114355
0.0869475
0.0265109
-0.0207135
0.000545335
0.0541427
0.0506027
0.0959764
0.310623
101.018
110.916
110.071
102.918
112.016
115.422
101.646
-0.124725
-0.0408691
0.0339485
0.0456685
0.0302338
0.172009
0.151483
20.3661
10.075
-0.00795294
0.0619854
0.0956934
0.111754
0.115504
0.111405
0.0816791
0.00176051
-0.0203384
-0.00356613
0.0462923
0.0534334
0.0424374
0.141281
61.3742
111.084
109.755
101.793
112.582
115.358
101.398
-0.132275
-0.0431798
0.0261538
0.0420848
0.0334579
0.156809
0.147802
0.0658928
0.107811
0.0450569
0.0709156
0.0951534
0.109998
0.114285
0.108676
0.0789862
0.0121391
-0.0158273
0.00432197
0.0407332
0.0564861
0.0560754
0.0908131
-0.138888
111.201
111.16
101.931
112.313
115.791
86.5395
-0.15038
-0.0495368
0.0195713
0.0386259
0.0370628
0.142522
0.140508
0.0509285
0.134083
0.0926611
0.0890933
0.0993284
0.108962
0.113642
0.105814
0.0788349
0.0222739
-0.0112554
0.00846976
0.0379527
0.0520029
0.0459905
0.173592
-0.0415391
81.2142
111.666
99.7741
112.936
117.49
27.2546
-0.156219
-0.0452978
0.0142608
0.0354075
0.0405847
0.13006
0.129544
0.0417938
0.129806
0.111083
0.102614
0.103243
0.107408
0.115959
0.102374
0.080853
0.0363608
0.00287385
0.0109087
0.0390342
0.0497403
0.0398339
0.166934
-0.0390866
0.0833236
111.334
101.189
112.961
120.531
5.9525
-0.153356
-0.0539848
0.0099486
0.0325022
0.0437115
0.119642
0.117313
0.0375805
0.127989
0.116925
0.108965
0.104661
0.100309
0.571071
0.100651
0.0843238
0.0521135
0.0230734
0.0238944
0.0419366
0.0478377
0.0435794
0.0944507
-0.0447215
0.402351
0.192697
33.5078
113.335
121.705
-0.373624
-0.13026
-0.0893989
0.0062734
0.0298872
0.0463059
0.110879
0.110145
0.0350475
0.124955
0.117605
0.110765
0.104894
0.100957
0.111448
0.100565
0.0873421
0.0664465
0.0437972
0.0382318
0.0465887
0.0479136
0.0442882
0.0204999
0.167553
0.343449
0.158039
0.0685535
-0.203911
11.3127
-0.323286
-0.137015
-0.125807
0.00315729
0.0276502
0.0482008
0.103313
0.103119
0.0332447
0.121406
0.114197
0.10926
0.104134
0.0997852
0.0974564
0.130224
0.0889712
0.07699
0.0608321
0.050344
0.048546
0.112223
0.037388
0.144701
0.0683288
0.493055
0.658925
0.063003
-0.195856
-0.358768
-0.283773
-0.124774
-0.13684
0.00068141
0.0257595
0.049238
0.0966745
0.0967869
0.0315371
0.128445
0.138747
0.105842
0.101885
0.0979413
0.0950121
0.0945847
0.0915435
0.0830777
0.0729667
0.0581234
0.0527599
0.113048
0.0356193
0.018113
0.0461197
0.559524
0.433788
0.050178
-0.206017
-0.320112
-0.220305
-0.097489
-0.128997
-0.0010857
0.0241725
0.0493804
0.0906275
0.0908443
0.0297543
0.101348
0.104541
0.100836
0.0979365
0.0947588
0.0915296
0.0899889
0.0862538
0.0875348
0.0864258
0.0640779
0.0570016
0.0479578
0.035507
0.0234627
0.0336906
0.344738
0.485577
0.0162397
-0.223897
-0.302404
-0.253395
-0.0927468
-0.113544
-0.00212451
0.0228365
0.0486901
0.0849189
0.0851959
0.0277829
0.0930827
0.0928569
0.0919083
0.0963535
0.142139
0.0861224
0.0855564
0.0836647
0.0789206
0.0688501
0.0627145
0.0562743
0.100954
0.035771
0.0240546
0.018067
0.0371998
0.504195
0.469135
-0.25058
-0.267968
-0.223736
-0.0457811
-0.0845834
-0.00249238
0.0217035
0.047325
0.0794224
0.0797053
0.0256577
0.0797737
0.0799891
0.0798979
0.0773299
0.0935079
0.0808869
0.0832372
0.0835898
0.0797687
0.0707524
0.0618015
0.0505155
0.0860381
0.034815
0.0263226
0.0197313
0.0346763
0.166103
-0.0959764
-0.263816
-0.276705
-0.262242
-0.0865377
-0.0508327
-0.00229903
0.0207333
0.0455202
0.0740572
0.0742496
0.0235342
0.0655508
0.0714436
0.0686528
0.0720918
0.0721671
0.0732484
0.0746306
0.0769291
0.0749152
0.0694553
0.0623973
0.0525169
0.0451057
0.21272
0.042467
0.0169124
0.0254789
0.0529373
-0.135677
-0.259974
-0.366604
-0.21031
-0.105526
-0.0321945
-0.00170015
0.0198907
0.0434748
0.0687727
0.0687669
0.0216055
0.0520878
0.0558576
0.0575526
0.0611288
0.0622469
0.06495
0.0671837
0.0724426
0.0739237
0.072244
0.061575
0.0525089
0.0385622
0.052523
0.190342
0.00976934
0.0174793
0.120983
-0.172774
-0.228442
-0.445679
-0.338282
-0.130201
-0.0239069
-0.000842168
0.0191438
0.0413189
0.0635391
0.0632769
0.0200255
0.0428047
0.0466084
0.0535076
0.0527495
0.0543279
0.0578152
0.063888
0.0692452
0.0700246
0.0675006
0.0604808
0.0519628
0.0415805
0.0362188
0.0143617
4.48264e-05
0.0192412
0.169485
0.236352
-0.280563
-0.461064
-0.278343
-0.0799444
-0.0176673
0.000142631
0.0184561
0.039088
0.058331
0.0578198
0.0188314
0.0443172
0.043068
0.0473177
0.0558721
0.162015
0.0486828
0.063104
2.58702
0.163833
0.0612066
0.0583325
0.0510012
0.0418156
0.0317187
0.0179215
-0.00703562
0.00416689
0.179033
0.648168
-0.231901
-0.307208
-0.256245
-0.0243782
-0.0131968
0.00113015
0.0177817
0.0367591
0.0533263
0.0524513
0.0179213
0.0396178
0.0439192
0.0492865
0.0582723
0.0744546
0.083905
0.136023
0.063338
0.0599738
0.0607664
0.0583453
0.0510683
0.0407115
0.0324255
0.0128042
-0.0113081
-0.0200479
0.47539
0.0815801
-0.181782
-0.336452
-0.0737673
-0.00859018
-0.0100653
0.00201725
0.0170718
0.034319
0.0485343
0.0472653
0.0171266
0.0466928
0.0498661
0.0540706
0.0590543
0.0641294
0.0684132
0.072374
0.0687464
0.076303
0.0675399
0.0624633
0.0533513
0.0412836
0.0306313
0.00821876
-0.0170995
-0.0345567
-0.00726346
0.0188556
-0.0613266
-0.214098
-0.123078
-0.00864245
-0.00765448
0.00273523
0.016282
0.0317685
0.0439456
0.0423362
0.016306
0.0652767
0.0607492
0.0633051
0.0668141
0.070976
0.0754166
0.0789197
0.0805196
0.0799322
0.0764743
0.0687609
0.0566919
0.0410488
0.0271271
0.00422304
-0.0222394
-0.0369901
0.0391525