/*--------------------------------*- C++ -*----------------------------------*\
| =========                 |                                                 |
| \\      /  F ield         | OpenFOAM: The Open Source CFD Toolbox           |
|  \\    /   O peration     | Version:  2.4.0                                 |
|   \\  /    A nd           | Web:      www.OpenFOAM.org                      |
|    \\/     M anipulation  |                                                 |
\*---------------------------------------------------------------------------*/
FoamFile
{
    version     2.0;
    format      ascii;
    class       surfaceScalarField;
    location    "0.5";
    object      phiAlpha;
}
// * * * * * * * * * * * * * * * * * * * * * * * * * * * * * * * * * * * * * //

dimensions      [0 3 -1 0 0 0 0];

internalField   nonuniform List<scalar> 
4700
(
-3.30927e-11
3.30927e-11
-6.59618e-11
3.28634e-11
-9.82992e-11
3.23325e-11
-1.29832e-10
3.15277e-11
-1.60288e-10
3.04503e-11
-1.89393e-10
2.90991e-11
-2.16871e-10
2.74739e-11
-2.42452e-10
2.55766e-11
-2.65867e-10
2.34121e-11
-2.86859e-10
2.09902e-11
-3.05185e-10
1.8326e-11
-3.20625e-10
1.54415e-11
-3.32988e-10
1.23661e-11
-3.4212e-10
9.13703e-12
-3.47914e-10
5.79993e-12
-3.50315e-10
2.4081e-12
-3.49327e-10
-9.79351e-13
-3.4502e-10
-4.29781e-12
-3.37525e-10
-7.4837e-12
-1.04764e-11
-3.27036e-10
-3.33489e-11
6.64359e-11
-6.64907e-11
6.59948e-11
-9.90914e-11
6.49235e-11
-1.30884e-10
6.331e-11
-1.61593e-10
6.11508e-11
-1.90945e-10
5.84429e-11
-2.18663e-10
5.51851e-11
-2.44472e-10
5.13809e-11
-2.68102e-10
4.704e-11
-2.89294e-10
4.21815e-11
-3.078e-10
3.68356e-11
-3.23399e-10
3.1046e-11
-3.35895e-10
2.48711e-11
-3.45133e-10
1.8386e-11
-3.51002e-10
1.16821e-11
-3.53445e-10
4.86681e-12
-3.52465e-10
-1.94125e-12
-3.48132e-10
-8.61096e-12
-3.40579e-10
-1.50144e-11
-2.1025e-11
-3.30002e-10
-3.34844e-11
9.99154e-11
-6.67594e-11
9.92602e-11
-9.94959e-11
9.76514e-11
-1.31425e-10
9.52304e-11
-1.62272e-10
9.19906e-11
-1.91762e-10
8.79261e-11
-2.19617e-10
8.30348e-11
-2.4556e-10
7.73207e-11
-2.6932e-10
7.0798e-11
-2.90633e-10
6.34946e-11
-3.09251e-10
5.54555e-11
-3.24946e-10
4.67455e-11
-3.3752e-10
3.74521e-11
-3.46813e-10
2.76876e-11
-3.5271e-10
1.75897e-11
-3.55151e-10
7.32089e-12
-3.54136e-10
-2.94077e-12
-3.49737e-10
-1.29933e-11
-3.42086e-10
-2.26471e-11
-3.17066e-11
-3.31381e-10
-3.36858e-11
1.33596e-10
-6.71616e-11
1.32727e-10
-1.00101e-10
1.30583e-10
-1.32235e-10
1.27356e-10
-1.63288e-10
1.23038e-10
-1.92985e-10
1.17617e-10
-2.21045e-10
1.11091e-10
-2.47191e-10
1.03463e-10
-2.71146e-10
9.47512e-11
-2.92643e-10
8.49914e-11
-3.11428e-10
7.42424e-11
-3.27269e-10
6.25899e-11
-3.39961e-10
5.01497e-11
-3.49337e-10
3.70713e-11
-3.55276e-10
2.35389e-11
-3.57714e-10
9.77062e-12
-3.56649e-10
-3.99271e-12
-3.5215e-10
-1.74776e-11
-3.4435e-10
-3.04296e-11
-4.25827e-11
-3.33453e-10
-3.39534e-11
1.67545e-10
-6.76977e-11
1.66461e-10
-1.00908e-10
1.63785e-10
-1.33315e-10
1.59756e-10
-1.64644e-10
1.54361e-10
-1.94617e-10
1.47586e-10
-2.22952e-10
1.39423e-10
-2.49369e-10
1.29877e-10
-2.73586e-10
1.18966e-10
-2.9533e-10
1.06735e-10
-3.14341e-10
9.32546e-11
-3.30378e-10
7.86305e-11
-3.4323e-10
6.30062e-11
-3.52719e-10
4.65676e-11
-3.58717e-10
2.95459e-11
-3.61152e-10
1.22162e-11
-3.6002e-10
-5.11267e-12
-3.55385e-10
-2.20987e-11
-3.47389e-10
-3.84101e-11
-5.37196e-11
-3.36232e-10
-3.42872e-11
2.01827e-10
-6.8367e-11
2.00531e-10
-1.01915e-10
1.97325e-10
-1.34664e-10
1.92497e-10
-1.66338e-10
1.86029e-10
-1.96657e-10
1.77901e-10
-2.25339e-10
1.68102e-10
-2.52096e-10
1.56631e-10
-2.76643e-10
1.43511e-10
-2.987e-10
1.2879e-10
-3.17997e-10
1.12552e-10
-3.34284e-10
9.49207e-11
-3.47338e-10
7.60655e-11
-3.56973e-10
5.62088e-11
-3.63048e-10
3.56287e-11
-3.65482e-10
1.46598e-11
-3.64265e-10
-6.3185e-12
-3.59461e-10
-2.68894e-11
-3.51213e-10
-4.66429e-11
-6.51808e-11
-3.39733e-10
-3.46869e-11
2.36509e-10
-6.91687e-11
2.35002e-10
-1.03123e-10
2.3127e-10
-1.36281e-10
2.25649e-10
-1.6837e-10
2.18112e-10
-1.99107e-10
2.08635e-10
-2.28207e-10
1.97198e-10
-2.55376e-10
1.83798e-10
-2.80323e-10
1.68456e-10
-3.02759e-10
1.51225e-10
-3.22404e-10
1.32198e-10
-3.38997e-10
1.11516e-10
-3.52301e-10
8.93745e-11
-3.62117e-10
6.60298e-11
-3.68288e-10
4.18077e-11
-3.70724e-10
1.71042e-11
-3.69405e-10
-7.62627e-12
-3.64397e-10
-3.18847e-11
-3.55845e-10
-5.51796e-11
-7.7038e-11
-3.43969e-10
-3.51522e-11
2.71655e-10
-7.01018e-11
2.69941e-10
-1.04528e-10
2.65688e-10
-1.38166e-10
2.59279e-10
-1.7074e-10
2.5068e-10
-2.01967e-10
2.39857e-10
-2.31557e-10
2.26784e-10
-2.59212e-10
2.1145e-10
-2.84631e-10
1.93873e-10
-3.07515e-10
1.74109e-10
-3.27574e-10
1.52258e-10
-3.44531e-10
1.28477e-10
-3.58136e-10
1.02983e-10
-3.6817e-10
7.6069e-11
-3.74462e-10
4.81059e-11
-3.76904e-10
1.95541e-11
-3.75467e-10
-9.05193e-12
-3.70218e-10
-3.71206e-11
-3.61308e-10
-6.40751e-11
-8.93638e-11
-3.48962e-10
-3.56825e-11
3.07331e-10
-7.11653e-11
3.05413e-10
-1.06131e-10
3.00645e-10
-1.40316e-10
2.93456e-10
-1.73446e-10
2.83804e-10
-2.05236e-10
2.71643e-10
-2.35391e-10
2.56935e-10
-2.63606e-10
2.39662e-10
-2.89572e-10
2.19837e-10
-3.12978e-10
1.97514e-10
-3.33519e-10
1.72801e-10
-3.50904e-10
1.45865e-10
-3.64863e-10
1.16947e-10
-3.75159e-10
8.63692e-11
-3.81598e-10
5.45504e-11
-3.84052e-10
2.20164e-11
-3.82482e-10
-1.06116e-11
-3.76954e-10
-4.26345e-11
-3.67627e-10
-7.33866e-11
-1.02233e-10
-3.54738e-10
-3.62771e-11
3.43602e-10
-7.23577e-11
3.41482e-10
-1.07929e-10
3.36206e-10
-1.42729e-10
3.28249e-10
-1.76486e-10
3.17555e-10
-2.08913e-10
3.04064e-10
-2.3971e-10
2.87726e-10
-2.68563e-10
2.68512e-10
-2.95153e-10
2.46425e-10
-3.19156e-10
2.21517e-10
-3.40252e-10
1.93898e-10
-3.58132e-10
1.63747e-10
-3.72506e-10
1.31323e-10
-3.83112e-10
9.69786e-11
-3.89728e-10
6.11726e-11
-3.92205e-10
2.45009e-11
-3.90484e-10
-1.23222e-11
-3.84639e-10
-4.84657e-11
-3.74835e-10
-8.31744e-11
-1.15725e-10
-3.61322e-10
-3.69354e-11
3.80531e-10
-7.3677e-11
3.78214e-10
-1.09918e-10
3.72439e-10
-1.45403e-10
3.63726e-10
-1.7986e-10
3.52005e-10
-2.12998e-10
3.37197e-10
-2.44514e-10
3.19237e-10
-2.74085e-10
2.98079e-10
-3.0138e-10
2.73718e-10
-3.2606e-10
2.46198e-10
-3.47789e-10
2.15628e-10
-3.66237e-10
1.82196e-10
-3.8109e-10
1.46179e-10
-3.9206e-10
1.07952e-10
-3.98893e-10
6.80101e-11
-4.014e-10
2.70156e-11
-3.99521e-10
-1.41907e-11
-3.93312e-10
-5.46615e-11
-3.82969e-10
-9.35018e-11
-1.29925e-10
-3.68748e-10
-3.76566e-11
4.18181e-10
-7.51211e-11
4.1567e-10
-1.12097e-10
4.09408e-10
-1.48334e-10
3.99957e-10
-1.83562e-10
3.87226e-10
-2.17489e-10
3.71119e-10
-2.49804e-10
3.51546e-10
-2.80176e-10
3.28448e-10
-3.0826e-10
3.01801e-10
-3.33703e-10
2.71639e-10
-3.56146e-10
2.38071e-10
-3.7524e-10
2.0129e-10
-3.90645e-10
1.61586e-10
-4.02043e-10
1.19352e-10
-4.09138e-10
7.51092e-11
-4.11696e-10
2.9581e-11
-4.0963e-10
-1.62471e-11
-4.03022e-10
-6.12573e-11
-3.9207e-10
-1.04438e-10
-1.44922e-10
-3.77052e-10
-3.84401e-11
4.56616e-10
-7.66871e-11
4.53912e-10
-1.14461e-10
4.47176e-10
-1.51517e-10
4.37009e-10
-1.8759e-10
4.23293e-10
-2.22383e-10
4.05906e-10
-2.55579e-10
3.84737e-10
-2.86838e-10
3.59702e-10
-3.15801e-10
3.3076e-10
-3.42094e-10
2.97931e-10
-3.65341e-10
2.61316e-10
-3.85164e-10
2.21113e-10
-4.01201e-10
1.77623e-10
-4.131e-10
1.31252e-10
-4.20515e-10
8.25274e-11
-4.23148e-10
3.2219e-11
-4.20877e-10
-1.8509e-11
-4.13812e-10
-6.83108e-11
-4.02186e-10
-1.16049e-10
-1.60811e-10
-3.86278e-10
-3.9286e-11
4.95898e-10
-7.83716e-11
4.92994e-10
-1.17003e-10
4.85804e-10
-1.54947e-10
4.7495e-10
-1.91938e-10
4.60279e-10
-2.27676e-10
4.41639e-10
-2.61838e-10
4.18894e-10
-2.94074e-10
3.91933e-10
-3.24008e-10
3.6069e-10
-3.51248e-10
3.25168e-10
-3.75391e-10
2.85456e-10
-3.96035e-10
2.41755e-10
-4.12792e-10
1.94379e-10
-4.25278e-10
1.43739e-10
-4.33087e-10
9.03385e-11
-4.35823e-10
3.49588e-11
-4.33321e-10
-2.10026e-11
-4.25741e-10
-7.58807e-11
-4.13371e-10
-1.28407e-10
-1.7769e-10
-3.96474e-10
-4.01959e-11
5.36092e-10
-8.01698e-11
5.32968e-10
-1.19717e-10
5.25349e-10
-1.58616e-10
5.13846e-10
-1.96599e-10
4.98257e-10
-2.33364e-10
4.78398e-10
-2.6858e-10
4.54103e-10
-3.01885e-10
4.25232e-10
-3.32889e-10
3.91689e-10
-3.61176e-10
3.5345e-10
-3.86315e-10
3.10592e-10
-4.07878e-10
2.63315e-10
-4.25449e-10
2.11948e-10
-4.38625e-10
1.56914e-10
-4.46926e-10
9.86408e-11
-4.49813e-10
3.78495e-11
-4.47025e-10
-2.37841e-11
-4.3886e-10
-8.40371e-11
-4.2569e-10
-1.41565e-10
-1.95666e-10
-4.07699e-10
-4.11746e-11
5.77266e-10
-8.20752e-11
5.7387e-10
-1.22594e-10
5.65867e-10
-1.62514e-10
5.53764e-10
-2.01564e-10
5.37303e-10
-2.39439e-10
5.16266e-10
-2.75799e-10
4.90457e-10
-3.10272e-10
4.59699e-10
-3.4245e-10
4.2386e-10
-3.71891e-10
3.82886e-10
-3.98134e-10
3.36831e-10
-4.20718e-10
2.85895e-10
-4.39206e-10
2.30433e-10
-4.5319e-10
1.70897e-10
-4.62115e-10
1.07566e-10
-4.6496e-10
4.06976e-11
-4.62257e-10
-2.64816e-11
-4.53291e-10
-9.29961e-11
-4.39222e-10
-1.55626e-10
-2.14852e-10
-4.20024e-10
-4.22418e-11
6.19508e-10
-8.4078e-11
6.15708e-10
-1.25622e-10
6.07411e-10
-1.66632e-10
5.94772e-10
-2.06826e-10
5.77493e-10
-2.45894e-10
5.55328e-10
-2.83492e-10
5.28048e-10
-3.19236e-10
4.95436e-10
-3.52698e-10
4.57316e-10
-3.83409e-10
4.13592e-10
-4.10874e-10
3.64291e-10
-4.3459e-10
3.09608e-10
-4.54102e-10
2.49942e-10
-4.69052e-10
1.85846e-10
-4.78937e-10
1.17451e-10
-4.82528e-10
4.4291e-11
-4.78473e-10
-3.05333e-11
-4.68675e-10
-1.02789e-10
-4.53875e-10
-1.7042e-10
-2.3523e-10
-4.33488e-10
-4.3295e-11
6.62804e-10
-8.61379e-11
6.58553e-10
-1.28776e-10
6.50049e-10
-1.70949e-10
6.36943e-10
-2.12367e-10
6.18908e-10
-2.52719e-10
5.95675e-10
-2.91657e-10
5.66981e-10
-3.28788e-10
5.32562e-10
-3.63662e-10
4.92186e-10
-3.95781e-10
4.45708e-10
-4.24604e-10
3.93111e-10
-4.49576e-10
3.34577e-10
-4.70196e-10
2.70561e-10
-4.862e-10
2.01848e-10
-4.97052e-10
1.28303e-10
-5.00911e-10
4.8151e-11
-4.97189e-10
-3.42534e-11
-4.86157e-10
-1.13817e-10
-4.70471e-10
-1.86102e-10
-2.56955e-10
-4.48741e-10
-4.51912e-11
7.07996e-10
-8.83241e-11
7.01687e-10
-1.31983e-10
6.93708e-10
-1.75315e-10
6.80275e-10
-2.17953e-10
6.61544e-10
-2.5957e-10
6.3729e-10
-2.99816e-10
6.07225e-10
-3.38285e-10
5.71029e-10
-3.74511e-10
5.28411e-10
-4.07965e-10
4.7916e-10
-4.38065e-10
4.2321e-10
-4.64198e-10
3.6071e-10
-4.85811e-10
2.92173e-10
-5.02977e-10
2.19014e-10
-5.15489e-10
1.40814e-10
-5.17775e-10
5.04364e-11
-5.14749e-10
-3.72787e-11
-5.01949e-10
-1.26616e-10
-4.85986e-10
-2.02062e-10
-2.79977e-10
-4.6296e-10
-8.1054e-11
7.89051e-10
-1.62697e-10
7.83331e-10
-2.44234e-10
7.75246e-10
-3.25042e-10
7.61085e-10
-4.04781e-10
7.41284e-10
-4.82979e-10
7.15489e-10
-5.59076e-10
6.83322e-10
-6.32379e-10
6.44333e-10
-7.02062e-10
5.98094e-10
-7.67163e-10
5.44263e-10
-8.26592e-10
4.8264e-10
-8.7914e-10
4.13259e-10
-9.23442e-10
3.36475e-10
-9.59289e-10
2.54859e-10
-9.87498e-10
1.69022e-10
-1.00442e-09
6.73595e-11
-9.99792e-10
-6.70592e-12
-9.81565e-10
-2.31748e-11
-9.59544e-10
-3.58532e-11
-9.25434e-10
-5.02536e-11
-3.20753e-10
-6.26623e-12
-3.13825e-10
-6.9109e-12
-3.06286e-10
-7.52126e-12
-2.98181e-10
-8.08644e-12
-2.89556e-10
-8.60746e-12
-2.80456e-10
-9.08194e-12
-2.7093e-10
-9.50828e-12
-2.61029e-10
-9.8846e-12
-2.50802e-10
-1.02111e-11
-2.40301e-10
-1.04843e-11
-2.29578e-10
-1.07052e-11
-2.18683e-10
-1.08771e-11
-2.07671e-10
-1.09947e-11
-1.96591e-10
-1.10634e-11
-1.85491e-10
-1.10839e-11
-1.7442e-10
-1.10548e-11
-1.63423e-10
-1.09811e-11
-1.52546e-10
-1.0863e-11
-1.41829e-10
-1.07032e-11
-1.05041e-11
-1.31312e-10
-3.23663e-10
-1.25734e-11
-3.16668e-10
-1.38745e-11
-3.0906e-10
-1.50968e-11
-3.00881e-10
-1.62345e-11
-2.92174e-10
-1.72826e-11
-2.82989e-10
-1.8237e-11
-2.73373e-10
-1.90937e-11
-2.63378e-10
-1.98502e-11
-2.53055e-10
-2.05033e-11
-2.42454e-10
-2.10536e-11
-2.31629e-10
-2.14992e-11
-2.20633e-10
-2.18411e-11
-2.09518e-10
-2.20803e-11
-1.98334e-10
-2.22185e-11
-1.87132e-10
-2.22572e-11
-1.75958e-10
-2.22011e-11
-1.64861e-10
-2.20521e-11
-1.53885e-10
-2.18152e-11
-1.43071e-10
-2.14948e-11
-2.10956e-11
-1.32461e-10
-3.24968e-10
-1.89596e-11
-3.17895e-10
-2.09213e-11
-3.10203e-10
-2.27629e-11
-3.01933e-10
-2.44771e-11
-2.93133e-10
-2.6056e-11
-2.8385e-10
-2.7493e-11
-2.74134e-10
-2.87826e-11
-2.64036e-10
-2.99204e-11
-2.53608e-10
-3.09034e-11
-2.42904e-10
-3.173e-11
-2.31975e-10
-3.23995e-11
-2.20876e-10
-3.29124e-11
-2.0966e-10
-3.32703e-11
-1.98377e-10
-3.34753e-11
-1.87079e-10
-3.35307e-11
-1.75813e-10
-3.34426e-11
-1.64628e-10
-3.32149e-11
-1.53567e-10
-3.28543e-11
-1.42675e-10
-3.23674e-11
-3.17625e-11
-1.31992e-10
-3.2693e-10
-2.54582e-11
-3.19737e-10
-2.80897e-11
-3.11917e-10
-3.05581e-11
-3.03512e-10
-3.28558e-11
-2.9457e-10
-3.49714e-11
-2.8514e-10
-3.68961e-11
-2.75272e-10
-3.86225e-11
-2.65019e-10
-4.0145e-11
-2.54435e-10
-4.14595e-11
-2.43573e-10
-4.25639e-11
-2.32488e-10
-4.34571e-11
-2.21234e-10
-4.41396e-11
-2.09865e-10
-4.46135e-11
-1.98433e-10
-4.4882e-11
-1.8699e-10
-4.49494e-11
-1.75585e-10
-4.48244e-11
-1.64267e-10
-4.45115e-11
-1.53081e-10
-4.402e-11
-1.42069e-10
-4.33595e-11
-4.2541e-11
-1.31277e-10
-3.29561e-10
-3.2106e-11
-3.22206e-10
-3.54208e-11
-3.14214e-10
-3.85256e-11
-3.05628e-10
-4.14169e-11
-2.96494e-10
-4.40776e-11
-2.86866e-10
-4.6497e-11
-2.76794e-10
-4.86659e-11
-2.66334e-10
-5.05775e-11
-2.55539e-10
-5.22264e-11
-2.44466e-10
-5.36097e-11
-2.33171e-10
-5.47262e-11
-2.21708e-10
-5.55762e-11
-2.10134e-10
-5.61626e-11
-1.98502e-10
-5.64897e-11
-1.86864e-10
-5.65637e-11
-1.75272e-10
-5.63935e-11
-1.63775e-10
-5.59869e-11
-1.5242e-10
-5.53554e-11
-1.41251e-10
-5.45115e-11
-5.34684e-11
-1.30311e-10
-3.32872e-10
-3.89446e-11
-3.25316e-10
-4.29527e-11
-3.17106e-10
-4.67123e-11
-3.08288e-10
-5.02085e-11
-2.98914e-10
-5.34247e-11
-2.89035e-10
-5.63478e-11
-2.78706e-10
-5.89666e-11
-2.67983e-10
-6.12725e-11
-2.56923e-10
-6.32592e-11
-2.45583e-10
-6.49228e-11
-2.34021e-10
-6.62617e-11
-2.22295e-10
-6.72767e-11
-2.10461e-10
-6.79711e-11
-1.98576e-10
-6.83508e-11
-1.86693e-10
-6.84231e-11
-1.74866e-10
-6.81983e-11
-1.63144e-10
-6.76873e-11
-1.51576e-10
-6.69042e-11
-1.40208e-10
-6.58638e-11
-6.45813e-11
-1.29082e-10
-3.3688e-10
-4.60111e-11
-3.29076e-10
-5.07328e-11
-3.20601e-10
-5.51626e-11
-3.11504e-10
-5.92792e-11
-3.01837e-10
-6.30641e-11
-2.91654e-10
-6.65018e-11
-2.81012e-10
-6.95791e-11
-2.6997e-10
-7.22858e-11
-2.58586e-10
-7.46143e-11
-2.46922e-10
-7.65595e-11
-2.35036e-10
-7.812e-11
-2.22989e-10
-7.92967e-11
-2.10841e-10
-8.00939e-11
-1.98649e-10
-8.05183e-11
-1.86468e-10
-8.0579e-11
-1.74355e-10
-8.02878e-11
-1.62361e-10
-7.96596e-11
-1.50536e-10
-7.871e-11
-1.38926e-10
-7.74565e-11
-7.59166e-11
-1.27575e-10
-3.41604e-10
-5.33462e-11
-3.33506e-10
-5.88062e-11
-3.24718e-10
-6.39253e-11
-3.15289e-10
-6.868e-11
-3.05274e-10
-7.3049e-11
-2.94731e-10
-7.70142e-11
-2.83718e-10
-8.05604e-11
-2.72298e-10
-8.36753e-11
-2.60531e-10
-8.63505e-11
-2.48482e-10
-8.85789e-11
-2.36213e-10
-9.036e-11
-2.23787e-10
-9.16948e-11
-2.11265e-10
-9.25881e-11
-1.9871e-10
-9.30479e-11
-1.86177e-10
-9.30852e-11
-1.73727e-10
-9.27132e-11
-1.61412e-10
-9.19524e-11
-1.49283e-10
-9.08178e-11
-1.37387e-10
-8.93309e-11
-8.7513e-11
-1.25772e-10
-3.47064e-10
-6.09956e-11
-3.38625e-10
-6.7219e-11
-3.29472e-10
-7.30509e-11
-3.19657e-10
-7.84645e-11
-3.09239e-10
-8.34358e-11
-2.98277e-10
-8.79439e-11
-2.86833e-10
-9.1971e-11
-2.74973e-10
-9.55031e-11
-2.6276e-10
-9.85308e-11
-2.50263e-10
-1.01045e-10
-2.37548e-10
-1.03045e-10
-2.2468e-10
-1.04533e-10
-2.11725e-10
-1.05515e-10
-1.98747e-10
-1.05998e-10
-1.85807e-10
-1.05998e-10
-1.72965e-10
-1.0553e-10
-1.60277e-10
-1.04616e-10
-1.47796e-10
-1.03275e-10
-1.35571e-10
-1.01532e-10
-9.94127e-11
-1.23652e-10
-3.53287e-10
-6.90053e-11
-3.44457e-10
-7.6022e-11
-3.34885e-10
-8.25938e-11
-3.24628e-10
-8.86907e-11
-3.13747e-10
-9.42855e-11
-3.02304e-10
-9.93543e-11
-2.90365e-10
-1.03877e-10
-2.77999e-10
-1.07836e-10
-2.65275e-10
-1.11222e-10
-2.52264e-10
-1.14024e-10
-2.39036e-10
-1.16243e-10
-2.25662e-10
-1.17878e-10
-2.1221e-10
-1.18938e-10
-1.98747e-10
-1.19433e-10
-1.8534e-10
-1.19378e-10
-1.7205e-10
-1.18795e-10
-1.58936e-10
-1.17705e-10
-1.46053e-10
-1.16132e-10
-1.33454e-10
-1.14107e-10
-1.1166e-10
-1.2119e-10
-3.60302e-10
-7.74251e-11
-3.51028e-10
-8.52694e-11
-3.40982e-10
-9.26124e-11
-3.30223e-10
-9.94206e-11
-3.18815e-10
-1.05663e-10
-3.06826e-10
-1.11313e-10
-2.94325e-10
-1.16347e-10
-2.81384e-10
-1.20746e-10
-2.68078e-10
-1.24497e-10
-2.54482e-10
-1.2759e-10
-2.40672e-10
-1.30024e-10
-2.26721e-10
-1.318e-10
-2.12705e-10
-1.32926e-10
-1.98694e-10
-1.33417e-10
-1.84757e-10
-1.33289e-10
-1.7096e-10
-1.32567e-10
-1.57364e-10
-1.31275e-10
-1.44029e-10
-1.29443e-10
-1.31009e-10
-1.27106e-10
-1.24297e-10
-1.18356e-10
-3.68145e-10
-8.63079e-11
-3.5837e-10
-9.5019e-11
-3.47789e-10
-1.03168e-10
-3.36465e-10
-1.10719e-10
-3.24465e-10
-1.17637e-10
-3.1186e-10
-1.23891e-10
-2.98724e-10
-1.29454e-10
-2.85135e-10
-1.34306e-10
-2.71172e-10
-1.38431e-10
-2.56916e-10
-1.41818e-10
-2.42448e-10
-1.44463e-10
-2.27848e-10
-1.46372e-10
-2.13196e-10
-1.47552e-10
-1.98567e-10
-1.4802e-10
-1.84035e-10
-1.47797e-10
-1.69668e-10
-1.46908e-10
-1.55533e-10
-1.45385e-10
-1.41693e-10
-1.43262e-10
-1.28203e-10
-1.40577e-10
-1.37367e-10
-1.15116e-10
-3.76853e-10
-9.57105e-11
-3.66519e-10
-1.05332e-10
-3.55339e-10
-1.14327e-10
-3.43382e-10
-1.22654e-10
-3.30719e-10
-1.30277e-10
-3.17423e-10
-1.37163e-10
-3.03576e-10
-1.43276e-10
-2.89259e-10
-1.48597e-10
-2.74559e-10
-1.53105e-10
-2.59562e-10
-1.56788e-10
-2.44356e-10
-1.59643e-10
-2.29029e-10
-1.61674e-10
-2.13664e-10
-1.62892e-10
-1.98344e-10
-1.63316e-10
-1.83146e-10
-1.62971e-10
-1.68145e-10
-1.61885e-10
-1.53411e-10
-1.60096e-10
-1.39008e-10
-1.57643e-10
-1.24996e-10
-1.54569e-10
-1.50916e-10
-1.11431e-10
-3.86471e-10
-1.05695e-10
-3.75513e-10
-1.16271e-10
-3.63666e-10
-1.26155e-10
-3.51004e-10
-1.35298e-10
-3.37604e-10
-1.43659e-10
-3.23536e-10
-1.5121e-10
-3.08896e-10
-1.57896e-10
-2.93767e-10
-1.63703e-10
-2.78242e-10
-1.68606e-10
-2.62417e-10
-1.72589e-10
-2.46388e-10
-1.75648e-10
-2.30248e-10
-1.7779e-10
-2.14089e-10
-1.79028e-10
-1.97999e-10
-1.79384e-10
-1.82062e-10
-1.78886e-10
-1.66356e-10
-1.77569e-10
-1.50958e-10
-1.75475e-10
-1.35934e-10
-1.72648e-10
-1.21347e-10
-1.69138e-10
-1.64993e-10
-1.07256e-10
-3.97044e-10
-1.16334e-10
-3.8539e-10
-1.27909e-10
-3.72807e-10
-1.38723e-10
-3.59369e-10
-1.48721e-10
-3.45147e-10
-1.57865e-10
-3.30231e-10
-1.6611e-10
-3.14703e-10
-1.73405e-10
-2.9867e-10
-1.79718e-10
-2.82224e-10
-1.85031e-10
-2.65476e-10
-1.89315e-10
-2.4853e-10
-1.92573e-10
-2.31486e-10
-1.94813e-10
-2.14445e-10
-1.9605e-10
-1.97501e-10
-1.96307e-10
-1.80745e-10
-1.95623e-10
-1.64263e-10
-1.94035e-10
-1.48132e-10
-1.91591e-10
-1.32425e-10
-1.88341e-10
-1.17207e-10
-1.84342e-10
-1.79651e-10
-1.02541e-10
-4.08611e-10
-1.27733e-10
-3.9621e-10
-1.40298e-10
-3.82806e-10
-1.52116e-10
-3.68513e-10
-1.63002e-10
-3.53393e-10
-1.72972e-10
-3.37525e-10
-1.81964e-10
-3.21015e-10
-1.899e-10
-3.03985e-10
-1.96731e-10
-2.86509e-10
-2.0249e-10
-2.68735e-10
-2.07072e-10
-2.50771e-10
-2.1052e-10
-2.32723e-10
-2.12843e-10
-2.14704e-10
-2.14053e-10
-1.96816e-10
-2.14181e-10
-1.79158e-10
-2.13269e-10
-1.61819e-10
-2.11363e-10
-1.44883e-10
-2.08516e-10
-1.28427e-10
-2.04787e-10
-1.12521e-10
-2.0024e-10
-1.9494e-10
-9.72274e-11
-4.21244e-10
-1.39968e-10
-4.07872e-10
-1.53661e-10
-3.93656e-10
-1.66323e-10
-3.78451e-10
-1.78197e-10
-3.6235e-10
-1.89063e-10
-3.45459e-10
-1.98844e-10
-3.27859e-10
-2.07488e-10
-3.09669e-10
-2.14908e-10
-2.91067e-10
-2.21078e-10
-2.72173e-10
-2.25951e-10
-2.53096e-10
-2.29584e-10
-2.33919e-10
-2.32007e-10
-2.1483e-10
-2.3313e-10
-1.95902e-10
-2.33099e-10
-1.77251e-10
-2.31912e-10
-1.58971e-10
-2.29634e-10
-1.41155e-10
-2.26323e-10
-1.23881e-10
-2.22053e-10
-1.07225e-10
-2.1689e-10
-2.10909e-10
-9.12495e-11
-4.35282e-10
-1.5342e-10
-4.20955e-10
-1.67981e-10
-4.05865e-10
-1.81407e-10
-3.89656e-10
-1.94399e-10
-3.72473e-10
-2.06239e-10
-3.54401e-10
-2.16908e-10
-3.35568e-10
-2.26313e-10
-3.16136e-10
-2.34331e-10
-2.96263e-10
-2.40942e-10
-2.76055e-10
-2.46149e-10
-2.55668e-10
-2.49962e-10
-2.35273e-10
-2.52393e-10
-2.14943e-10
-2.53452e-10
-1.94847e-10
-2.53187e-10
-1.75074e-10
-2.51678e-10
-1.55738e-10
-2.48963e-10
-1.36952e-10
-2.45102e-10
-1.18782e-10
-2.40217e-10
-1.01306e-10
-2.3436e-10
-2.27627e-10
-8.45836e-11
-4.476e-10
-1.68774e-10
-4.32514e-10
-1.83062e-10
-4.17026e-10
-1.9689e-10
-3.99814e-10
-2.11606e-10
-3.81627e-10
-2.24421e-10
-3.62452e-10
-2.36077e-10
-3.42419e-10
-2.46339e-10
-3.21782e-10
-2.54959e-10
-3.00726e-10
-2.6199e-10
-2.79364e-10
-2.67501e-10
-2.57824e-10
-2.71492e-10
-2.36227e-10
-2.73981e-10
-2.14801e-10
-2.7487e-10
-1.93648e-10
-2.74332e-10
-1.72844e-10
-2.72475e-10
-1.52538e-10
-2.69265e-10
-1.32883e-10
-2.64754e-10
-1.13872e-10
-2.59226e-10
-9.56366e-11
-2.52594e-10
-2.45035e-10
-7.82275e-11
-8.96823e-10
-1.20388e-28
-8.71175e-10
-1.73859e-26
-8.46664e-10
-3.06279e-26
-8.16154e-10
-2.1316e-25
-7.84423e-10
-3.24377e-24
-7.50693e-10
-2.19754e-23
-7.1502e-10
-1.07801e-22
-6.78127e-10
-3.5259e-22
-6.40376e-10
-7.435e-22
-6.01975e-10
-1.14775e-21
-5.63141e-10
-1.36727e-21
-5.23965e-10
-1.15095e-21
-4.85024e-10
-6.75062e-22
-4.46545e-10
-2.539e-22
-4.08494e-10
-4.5104e-23
-3.71193e-10
-1.38862e-25
-3.35165e-10
-1.30961e-52
-3.00051e-10
-2.72757e-43
-2.66294e-10
-1.99813e-40
-2.33982e-10
-8.33282e-43
-1.11001e-10
-2.03022e-11
-9.18852e-11
-1.9106e-11
-7.41762e-11
-1.77006e-11
-5.80343e-11
-1.61348e-11
-4.3572e-11
-1.44566e-11
-3.0856e-11
-1.27122e-11
-1.99098e-11
-1.09442e-11
-1.07183e-11
-9.19099e-12
-3.23254e-12
-7.48624e-12
2.623e-12
-5.85708e-12
6.93151e-12
-4.31118e-12
9.84317e-12
-2.91529e-12
1.14741e-11
-1.63504e-12
1.19499e-11
-4.80463e-13
1.14858e-11
4.57823e-13
1.01886e-11
1.28874e-12
8.22366e-12
1.95536e-12
5.7597e-12
2.45413e-12
2.96432e-12
2.78494e-12
2.95346e-12
-1.11971e-10
-4.07759e-11
-9.26921e-11
-3.83708e-11
-7.48346e-11
-3.55461e-11
-5.85605e-11
-3.23997e-11
-4.39826e-11
-2.90283e-11
-3.11674e-11
-2.55243e-11
-2.01376e-11
-2.19733e-11
-1.08771e-11
-1.84526e-11
-3.33541e-12
-1.5031e-11
2.5681e-12
-1.17657e-11
6.90985e-12
-8.65968e-12
9.84345e-12
-5.85692e-12
1.14877e-11
-3.28909e-12
1.19623e-11
-9.67497e-13
1.15135e-11
8.91143e-13
1.02165e-11
2.56839e-12
8.24704e-12
3.90675e-12
5.7776e-12
4.90471e-12
2.97392e-12
5.56938e-12
5.91943e-12
-1.11374e-10
-6.13817e-11
-9.19894e-11
-5.7744e-11
-7.40515e-11
-5.3475e-11
-5.77212e-11
-4.87232e-11
-4.31102e-11
-4.36348e-11
-3.02834e-11
-3.83489e-11
-1.92615e-11
-3.29946e-11
-1.00263e-11
-2.7689e-11
-2.52518e-12
-2.25353e-11
3.32825e-12
-1.76244e-11
7.54658e-12
-1.28848e-11
1.03893e-11
-8.7076e-12
1.20074e-11
-4.91687e-12
1.25005e-11
-1.47284e-12
1.19296e-11
1.44779e-12
1.05448e-11
3.93815e-12
8.503e-12
5.93318e-12
5.94153e-12
7.45023e-12
3.06223e-12
8.43337e-12
8.97499e-12
-1.10465e-10
-8.21839e-11
-9.0923e-11
-7.72767e-11
-7.28647e-11
-7.15256e-11
-5.64507e-11
-6.51314e-11
-4.17908e-11
-5.82907e-11
-2.89473e-11
-5.11903e-11
-1.79384e-11
-4.40033e-11
-8.74252e-12
-3.68867e-11
-1.30471e-12
-2.99774e-11
4.4535e-12
-2.33889e-11
8.68618e-12
-1.71253e-11
1.14505e-11
-1.14811e-11
1.29125e-11
-6.38959e-12
1.31813e-11
-1.75421e-12
1.25257e-11
2.08976e-12
1.10415e-11
5.40874e-12
8.85151e-12
8.1092e-12
6.20434e-12
1.00835e-11
3.17713e-12
1.14473e-11
1.21459e-11
-1.09239e-10
-1.03247e-10
-8.94865e-11
-9.70202e-11
-7.12679e-11
-8.97366e-11
-5.47427e-11
-8.16506e-11
-4.00185e-11
-7.30108e-11
-2.71541e-11
-6.40526e-11
-1.6164e-11
-5.49936e-11
-7.02206e-12
-4.60314e-11
3.30647e-13
-3.73357e-11
5.98323e-12
-2.90493e-11
1.00631e-11
-2.12142e-11
1.26769e-11
-1.41051e-11
1.39702e-11
-7.69465e-12
1.41965e-11
-1.99301e-12
1.33411e-11
2.93273e-12
1.16759e-11
7.06171e-12
9.38273e-12
1.03898e-11
6.5367e-12
1.29173e-11
3.35906e-12
1.46129e-11
1.54992e-11
-1.07684e-10
-1.24636e-10
-8.76673e-11
-1.17026e-10
-6.92486e-11
-1.08147e-10
-5.25856e-11
-9.83071e-11
-3.77826e-11
-8.78096e-11
-2.48943e-11
-7.69391e-11
-1.393e-11
-6.59588e-11
-4.85833e-12
-5.51069e-11
2.3825e-12
-4.45833e-11
7.79993e-12
-3.44754e-11
1.17378e-11
-2.51619e-11
1.42246e-11
-1.66029e-11
1.53983e-11
-8.88024e-12
1.54242e-11
-2.03061e-12
1.44161e-11
3.92982e-12
1.25569e-11
8.91008e-12
1.00176e-11
1.29181e-11
6.948e-12
1.59763e-11
3.57236e-12
1.79776e-11
1.90665e-11
-1.05783e-10
-1.46416e-10
-8.54496e-11
-1.37347e-10
-6.67917e-11
-1.26795e-10
-4.9965e-11
-1.15127e-10
-3.50699e-11
-1.027e-10
-2.21557e-11
-8.98517e-11
-1.12261e-11
-7.68897e-11
-2.24239e-12
-6.4095e-11
4.83253e-12
-5.16652e-11
1.01959e-11
-3.98474e-11
1.38846e-11
-2.88606e-11
1.6161e-11
-1.88903e-11
1.71179e-11
-9.84836e-12
1.69126e-11
-1.83573e-12
1.56701e-11
5.16261e-12
1.35665e-11
1.1004e-11
1.07678e-11
1.57075e-11
7.47138e-12
1.92635e-11
3.8134e-12
2.16258e-11
2.28757e-11
-1.03518e-10
-1.68655e-10
-8.28143e-11
-1.58038e-10
-6.38783e-11
-1.45722e-10
-4.68632e-11
-1.32136e-10
-3.18641e-11
-1.17695e-10
-1.89238e-11
-1.0279e-10
-8.04005e-12
-8.77745e-11
8.40394e-13
-7.29794e-11
7.76747e-12
-5.85985e-11
1.28625e-11
-4.49502e-11
1.64681e-11
-3.24753e-11
1.85047e-11
-2.09371e-11
1.91322e-11
-1.0486e-11
1.86624e-11
-1.37516e-12
1.71326e-11
6.68371e-12
1.47443e-11
1.33839e-11
1.16446e-11
1.87992e-11
8.06507e-12
2.28349e-11
4.11279e-12
2.55695e-11
2.69849e-11
-1.00866e-10
-1.91426e-10
-7.97386e-11
-1.79154e-10
-6.04864e-11
-1.64965e-10
-4.32594e-11
-1.49356e-10
-2.8146e-11
-1.32804e-10
-1.51814e-11
-1.15753e-10
-4.35963e-12
-9.85967e-11
4.37292e-12
-8.17147e-11
1.10969e-11
-6.53271e-11
1.60756e-11
-4.99352e-11
1.93664e-11
-3.5774e-11
2.11043e-11
-2.26842e-11
2.15025e-11
-1.08931e-11
2.06639e-11
-5.44844e-13
1.88127e-11
8.52684e-12
1.60958e-11
1.60931e-11
1.26689e-11
2.22187e-11
8.73796e-12
2.6758e-11
4.4652e-12
2.98342e-11
3.14465e-11
-9.78014e-11
-2.14803e-10
-7.61957e-11
-2.00749e-10
-5.65901e-11
-1.84563e-10
-3.91293e-11
-1.66811e-10
-2.38939e-11
-1.48035e-10
-1.09085e-11
-1.28736e-10
-1.68147e-13
-1.09337e-10
8.39204e-12
-9.02765e-11
1.49056e-11
-7.18439e-11
1.96283e-11
-5.46629e-11
2.25373e-11
-3.86898e-11
2.39683e-11
-2.41228e-11
2.40965e-11
-1.1029e-11
2.2895e-11
6.48986e-13
2.06684e-11
1.07456e-11
1.76149e-11
1.9139e-11
1.38259e-11
2.59999e-11
9.50458e-12
3.1071e-11
4.83703e-12
3.44936e-11
3.62794e-11
-9.42922e-11
-2.38855e-10
-7.21546e-11
-2.22877e-10
-5.21596e-11
-2.04549e-10
-3.44457e-11
-1.84518e-10
-1.90834e-11
-1.63393e-10
-6.08261e-12
-1.41734e-10
4.52671e-12
-1.19945e-10
1.27787e-11
-9.85292e-11
1.91745e-11
-7.82419e-11
2.36367e-11
-5.91291e-11
2.62611e-11
-4.13196e-11
2.73514e-11
-2.52193e-11
2.69311e-11
-1.0615e-11
2.5407e-11
2.16602e-12
2.27998e-11
1.3345e-11
1.92861e-11
2.26448e-11
1.51033e-11
3.01741e-11
1.03606e-11
3.58048e-11
5.27158e-12
3.9574e-11
4.15462e-11
-9.03027e-11
-2.63656e-10
-6.75797e-11
-2.45589e-10
-4.71615e-11
-2.24959e-10
-2.91778e-11
-2.02496e-10
-1.36883e-11
-1.78879e-10
-6.74121e-13
-1.54747e-10
9.74725e-12
-1.30366e-10
1.79978e-11
-1.0678e-10
2.40285e-11
-8.4274e-11
2.80427e-11
-6.31462e-11
3.03148e-11
-4.35956e-11
3.08879e-11
-2.57967e-11
3.02208e-11
-9.95301e-12
2.82335e-11
4.1467e-12
2.51675e-11
1.64035e-11
2.11733e-11
2.66306e-11
1.65159e-11
3.48222e-11
1.13071e-11
4.10044e-11
5.74116e-12
4.51308e-11
4.72823e-11
-8.57924e-11
-2.89282e-10
-6.24312e-11
-2.68941e-10
-4.15583e-11
-2.45826e-10
-2.32915e-11
-2.20759e-10
-7.68292e-12
-1.94486e-10
5.29678e-12
-1.67726e-10
1.56225e-11
-1.40691e-10
2.36112e-11
-1.14769e-10
2.93099e-11
-8.99736e-11
3.28493e-11
-6.66875e-11
3.46482e-11
-4.53971e-11
3.49627e-11
-2.61143e-11
3.37202e-11
-8.71508e-12
3.12667e-11
6.59383e-12
2.77129e-11
1.99498e-11
2.32649e-11
3.10702e-11
1.80698e-11
4.0008e-11
1.2343e-11
4.67221e-11
6.27113e-12
5.11933e-11
5.35486e-11
-8.07154e-11
-3.15814e-10
-5.66641e-11
-2.92985e-10
-3.53081e-11
-2.67178e-10
-1.67484e-11
-2.39317e-10
-1.03567e-12
-2.10198e-10
1.16721e-11
-1.80434e-10
2.20624e-11
-1.51082e-10
2.97948e-11
-1.22501e-10
3.5124e-11
-9.53034e-11
3.82863e-11
-6.98511e-11
3.9591e-11
-4.67037e-11
3.92034e-11
-2.57296e-11
3.75614e-11
-7.07799e-12
3.45455e-11
9.60308e-12
3.05111e-11
2.39767e-11
2.5498e-11
3.60748e-11
1.97512e-11
4.57461e-11
1.34638e-11
5.30012e-11
6.82088e-12
5.78275e-11
6.03654e-11
-7.5019e-11
-3.43331e-10
-5.02274e-11
-3.17772e-10
-2.8365e-11
-2.89038e-10
-9.50592e-12
-2.58175e-10
6.25864e-12
-2.25963e-10
1.90203e-11
-1.93195e-10
2.91972e-11
-1.61259e-10
3.65329e-11
-1.29837e-10
4.14692e-11
-1.0024e-10
4.40899e-11
-7.24732e-11
4.47918e-11
-4.74079e-11
4.39947e-11
-2.49362e-11
4.17739e-11
-4.8631e-12
3.81825e-11
1.31874e-11
3.35481e-11
2.86034e-11
2.78971e-11
4.17175e-11
2.15536e-11
5.20818e-11
1.46731e-11
5.98741e-11
7.43581e-12
6.50571e-11
6.77981e-11
-6.86434e-11
-3.71911e-10
-4.30636e-11
-3.43349e-10
-2.068e-11
-3.11419e-10
-1.51372e-12
-2.7734e-10
1.43044e-11
-2.4178e-10
2.71419e-11
-2.06033e-10
3.69297e-11
-1.71047e-10
4.39924e-11
-1.369e-10
4.83367e-11
-1.04586e-10
5.03215e-11
-7.44596e-11
5.04371e-11
-4.75259e-11
4.89989e-11
-2.35025e-11
4.59538e-11
-1.82412e-12
4.20662e-11
1.70681e-11
3.67751e-11
3.3887e-11
3.05349e-11
4.79502e-11
2.35261e-11
5.90837e-11
1.59774e-11
6.74163e-11
8.08909e-12
7.29392e-11
7.58851e-11
-6.15199e-11
-4.01637e-10
-3.51061e-11
-3.6976e-10
-1.22026e-11
-3.34321e-10
7.14721e-12
-2.96689e-10
2.32223e-11
-2.57856e-10
3.59908e-11
-2.18803e-10
4.54343e-11
-1.80491e-10
5.21291e-11
-1.43596e-10
5.58358e-11
-1.08294e-10
5.71695e-11
-7.57944e-11
5.64992e-11
-4.68577e-11
5.47273e-11
-2.17344e-11
5.11131e-11
1.78543e-12
4.62718e-11
2.19044e-11
4.03296e-11
3.98236e-11
3.3358e-11
5.49164e-11
2.56241e-11
6.68126e-11
1.73599e-11
7.56759e-11
8.71878e-12
8.15763e-11
8.46031e-11
-5.36286e-11
-4.32588e-10
-2.6339e-11
-3.97048e-10
-2.92835e-12
-3.57732e-10
1.66711e-11
-3.16289e-10
3.27735e-11
-2.73959e-10
4.53802e-11
-2.3141e-10
5.45976e-11
-1.89709e-10
6.07932e-11
-1.49791e-10
6.387e-11
-1.1137e-10
6.3971e-11
-7.58957e-11
6.24278e-11
-4.53157e-11
6.05169e-11
-1.98254e-11
5.66799e-11
5.62054e-12
5.08524e-11
2.77299e-11
4.4033e-11
4.66402e-11
3.62945e-11
6.26521e-11
2.77903e-11
7.5314e-11
1.87965e-11
8.46668e-11
9.54839e-12
9.0822e-11
9.41513e-11
-4.60706e-11
-4.64745e-10
-1.79383e-11
-4.2518e-10
5.83759e-12
-3.81507e-10
2.57341e-11
-3.36186e-10
4.19899e-11
-2.90214e-10