/*--------------------------------*- C++ -*----------------------------------*\
| =========                 |                                                 |
| \\      /  F ield         | OpenFOAM: The Open Source CFD Toolbox           |
|  \\    /   O peration     | Version:  2.4.0                                 |
|   \\  /    A nd           | Web:      www.OpenFOAM.org                      |
|    \\/     M anipulation  |                                                 |
\*---------------------------------------------------------------------------*/
FoamFile
{
    version     2.0;
    format      ascii;
    class       volScalarField;
    location    "0.077";
    object      alpha.water;
}
// * * * * * * * * * * * * * * * * * * * * * * * * * * * * * * * * * * * * * //

dimensions      [0 0 0 0 0 0 0];

internalField   nonuniform List<scalar> 
3600
(
1
1
1
1
1
1
1
1
1
1
1
1
1
1
1
1
1
1
1
0.987716
0.986499
0.993803
0.999955
0.993298
0.991345
0.987896
0.979227
0.979224
0.979224
0.981693
1
1
1
1
1
1
1
1
1
1
1
1
1
1
1
1
1
1
0.999994
0.986402
0.986435
0.999955
0.999955
0.999955
0.999302
0.999429
0.999531
0.990467
0.980185
0.988838
1
1
1
1
1
1
1
1
1
1
1
1
1
1
1
1
1
1
1
0.986403
0.989635
0.999955
0.999955
0.999209
0.997356
0.998162
0.999946
0.999777
0.998177
0.999394
1
1
1
1
1
1
1
1
1
1
1
1
1
1
1
1
1
1
1
0.993614
0.998882
0.999955
0.999446
0.999175
0.996776
0.996778
0.999749
1
1
1
1
1
1
1
1
1
1
1
1
1
1
1
1
1
1
1
1
1
1
1
0.999916
0.999719
0.99857
0.999089
0.998097
0.996776
0.99922
1
1
1
1
1
1
1
1
1
1
1
1
1
1
1
1
1
1
1
1
1
1
1
0.999931
0.998637
0.99857
0.999554
0.99996
0.99779
0.999654
1
1
1
1
1
1
1
1
1
1
1
1
1
1
1
1
1
1
1
1
1
1
1
0.999993
0.998615
0.99857
0.999368
0.999963
0.999983
0.999989
1
1
1
1
1
1
1
1
1
1
1
1
1
1
1
1
1
1
1
1
1
1
1
0.999998
0.999668
0.999647
0.99987
0.999996
0.999468
0.999288
1
1
1
1
1
1
1
1
1
1
1
1
1
1
1
1
1
1
1
1
1
1
1
1
1
1
1
1
0.999638
0.999006
0.99955
1
1
1
1
1
1
1
1
1
1
1
1
1
1
1
1
1
1
1
1
1
1
1
1
1
1
1
1
0.999315
0.998805
0.999791
1
1
1
1
1
1
1
1
1
1
1
1
1
1
1
1
1
1
1
1
1
1
1
1
1
1
1
0.999143
0.998805
0.999928
1
1
1
1
1
1
1
1
1
1
1
1
1
1
1
1
1
1
1
1
1
1
1
1
1
1
1
0.999571
0.998805
0.999545
1
1
1
1
1
1
1
1
1
1
1
1
1
1
1
1
1
1
1
1
1
1
1
1
1
1
1
1
0.998958
0.999626
0.999998
1
1
1
1
1
1
1
1
1
1
1
1
1
1
1
1
1
1
1
1
1
1
1
1
1
1
0.999999
0.99988
0.999831
0.999993
1
1
1
1
1
1
1
1
1
1
1
1
1
1
1
1
1
1
1
1
1
1
1
1
1
0.999994
0.999999
0.999998
0.999979
0.999963
1
1
1
1
1
1
1
1
1
1
1
1
1
1
1
1
1
1
1
1
1
1
1
1
1
0.999975
0.999982
0.999997
0.999835
0.999834
1
1
1
1
1
1
1
1
1
1
1
1
1
1
1
1
1
1
1
1
1
1
1
1
0.999989
0.999975
0.999975
0.999995
0.999803
0.999802
1
1
1
1
1
1
1
1
1
1
1
1
1
1
1
1
1
1
1
1
1
1
1
1
0.999996
0.999982
0.999995
0.999228
0.999807
0.999874
1
1
1
1
1
1
1
1
1
1
1
1
1
1
1
1
0.999997
0.999984
0.959904
0.970046
0.978973
1
1
1
0.999997
0.999996
0.999995
0.998387
0.999867
0.99987
1
1
1
1
1
1
1
1
1
1
1
1
1
1
1
0.999997
0.999318
0.760857
0.524501
0.714424
0.808643
0.821587
0.942379
0.999997
0.999997
0.999996
0.999993
0.998386
0.999422
0.999701
1
1
1
1
1
1
1
1
1
1
1
1
1
1
0.999997
0.999902
0.569704
0.111392
0.407493
0.667747
0.845849
0.889106
0.915383
0.978731
0.99997
0.999993
0.999993
0.998993
0.996513
0.99953
1
1
1
1
1
1
1
1
1
1
1
1
1
0.999998
0.999909
0.707115
0.0445265
0.00144941
0.133527
0.399876
0.793683
0.984711
0.989578
0.964714
0.998358
0.99999
0.999992
0.999797
0.996242
0.999621
1
1
1
1
1
1
1
1
1
1
1
1
0.999999
0.99992
0.807594
0.0785465
3.16443e-05
0.000175655
0.00144546
0.181243
0.720365
0.986579
0.999857
0.964888
0.980482
0.999715
0.99999
0.999859
0.99622
0.999529
1
1
1
1
1
1
1
1
1
1
1
1
0.999965
0.801947
0.0993443
2.7306e-05
1.79345e-05
3.23849e-05
0.000177194
0.00714386
0.378201
0.995336
0.9999
0.980695
0.978536
0.99853
0.999984
0.997515
0.996221
0.996382
1
1
1
1
1
1
1
1
1
1
1
0.999996
0.837045
0.0967112
2.77473e-05
1.78444e-05
1.76629e-05
1.79072e-05
2.84324e-05
0.00114149
0.14468
0.82611
0.999928
0.999546
0.985327
0.998617
0.999973
0.996223
0.996222
0.996222
1
1
1
1
1
1
1
1
1
1
0.999999
0.940239
0.154528
0.000110639
2.07492e-05
1.63755e-05
1.76471e-05
1.47237e-05
1.47456e-05
0.00405481
0.00318757
0.57217
0.999967
0.999997
0.999715
0.998848
0.999919
0.996222
0.996222
0.996221
1
1
1
1
1
1
1
1
1
1
0.999977
0.330292
0.000463773
3.4922e-05
9.99934e-06
1.51425e-05
1.63992e-05
1.78511e-05
1.47422e-05
0.000201068
0.000303397
0.216539
0.97176
0.999999
0.999997
0.999899
0.999956
0.997587
0.996222
0.998421
1
1
1
1
1
1
1
1
1
0.999958
0.747255
0.0230723
-2.34324e-05
4.8453e-07
1.33673e-06
1.39001e-05
3.96103e-05
1.8062e-05
1.77701e-05
3.21524e-05
9.68578e-05
0.0733729
0.850417
0.999999
0.999999
0.999998
0.999989
0.999032
0.996225
0.999975
1
1
1
1
1
1
1
1
0.999999
0.995291
0.0747692
1.33456e-06
4.89144e-07
4.44291e-07
1.3185e-06
3.61692e-05
6.43386e-05
6.28743e-05
4.25812e-05
3.24815e-05
2.86555e-05
0.0186302
0.592835
0.999999
0.999999
0.999999
0.999987
0.999851
0.999212
0.999999
1
1
1
1
1
1
1
1
0.983231
0.44304
5.20051e-06
6.57101e-07
4.41223e-07
4.12907e-07
1.75278e-05
7.2289e-05
7.23334e-05
7.23778e-05
7.15582e-05
2.92741e-05
2.69299e-05
0.00396765
0.228832
0.999999
0.999999
0.999999
0.999994
0.999998
0.999999
0.999999
0.981824
0.979294
0.979294
0.979296
0.987961
0.991691
0.993556
0.999952
0.993778
0.986558
0.987823
0.99999
1
1
1
1
1
1
1
1
1
1
1
1
1
1
1
1
1
1
0.988935
0.979332
0.990035
0.999688
0.99951
0.999149
0.999951
0.999952
0.999952
0.986496
0.986464
0.999988
1
1
1
1
1
1
1
1
1
1
1
1
1
1
1
1
1
1
0.999236
0.997749
0.999594
0.999965
0.998191
0.997248
0.999211
0.999952
0.999952
0.989763
0.986465
1
1
1
1
1
1
1
1
1
1
1
1
1
1
1
1
1
1
1
1
1
1
0.999824
0.996716
0.996715
0.999205
0.999465
0.999952
0.998952
0.993365
1
1
1
1
1
1
1
1
1
1
1
1
1
1
1
1
1
1
1
1
1
1
0.999435
0.996715
0.997616
0.99912
0.998588
0.999677
0.99989
1
1
1
1
1
1
1
1
1
1
1
1
1
1
1
1
1
1
1
1
1
1
1
0.999752
0.997977
0.999984
0.999572
0.998588
0.998624
0.999897
1
1
1
1
1
1
1
1
1
1
1
1
1
1
1
1
1
1
1
1
1
1
1
0.999984
0.999984
0.999986
0.999418
0.998588
0.998629
0.999968
1
1
1
1
1
1
1
1
1
1
1
1
1
1
1
1
1
1
1
1
1
1
1
0.999302
0.999467
1
0.999878
0.999663
0.999678
0.999998
1
1
1
1
1
1
1
1
1
1
1
1
1
1
1
1
1
1
1
1
1
1
0.999572
0.999028
0.999628
1
1
1
1
1
1
1
1
1
1
1
1
1
1
1
1
1
1
1
1
1
1
1
1
1
1
0.999758
0.998863
0.99933
1
1
1
1
1
1
1
1
1
1
1
1
1
1
1
1
1
1
1
1
1
1
1
1
1
1
1
0.999938
0.998863
0.999174
1
1
1
1
1
1
1
1
1
1
1
1
1
1
1
1
1
1
1
1
1
1
1
1
1
1
1
0.99957
0.998863
0.999594
1
1
1
1
1
1
1
1
1
1
1
1
1
1
1
1
1
1
1
1
1
1
1
1
1
1
0.999998
0.999659
0.999054
1
1
1
1
1
1
1
1
1
1
1
1
1
1
1
1
1
1
1
1
1
1
1
1
1
1
1
0.999997
0.999873
0.999911
1
1
1
1
1
1
1
1
1
1
1
1
1
1
1
1
1
1
1
1
1
1
1
1
1
1
1
0.999989
0.999994
0.999997
0.999998
0.999995
1
1
1
1
1
1
1
1
1
1
1
1
1
1
1
1
1
1
1
1
1
1
1
1
1
0.999945
0.999966
0.999993
0.999975
0.999974
1
1
1
1
1
1
1
1
1
1
1
1
1
1
1
1
1
1
1
1
1
1
1
1
1
0.999885
0.999891
0.999992
0.999969
0.999969
0.999989
1
1
1
1
1
1
1
1
1
1
1
1
1
1
1
1
1
1
1
1
1
1
1
1
0.999879
0.999841
0.999394
0.99999
0.999977
0.999995
1
1
1
1
1
1
1
1
1
1
1
1
1
1
1
1
1
1
1
1
1
1
1
1
0.999849
0.999845
0.998327
0.999994
0.999995
0.999996
1
1
1
0.979023
0.969193
0.960741
0.999984
0.999996
1
1
1
1
1
1
1
1
1
1
1
1
1
1
1
1
0.999709
0.999759
0.998326
0.99999
0.999995
0.999995
0.999997
0.956959
0.836365
0.803619
0.757567
0.530046
0.742076
0.999436
0.999997
1
1
1
1
1
1
1
1
1
1
1
1
1
1
1
0.999659
0.996931
0.998784
0.99999
0.999991
0.999968
0.977608
0.909324
0.886076
0.853507
0.676603
0.376651
0.109052
0.581592
0.999906
0.999998
1
1
1
1
1
1
1
1
1
1
1
1
1
1
0.999653
0.996261
0.999703
0.999989
0.999987
0.998012
0.963081
0.984851
0.97618
0.811853
0.44125
0.12827
0.0160792
0.0629477
0.695571
0.999914
0.999998
1
1
1
1
1
1
1
1
1
1
1
1
1
0.998535
0.996237
0.999968
0.999987
0.999759
0.980324
0.963305
0.99982
0.990608
0.692936
0.175547
0.000869984
6.48743e-05
4.55687e-05
0.0688351
0.813613
0.999924
0.999999
1
1
1
1
1
1
1
1
1
1
1
1
0.996239
0.996234
0.998117
0.999981
0.998568
0.978558
0.981281
0.999849
0.999821
0.404444
0.00266629
6.66096e-05
1.10091e-05
5.3413e-06
1.01397e-05
0.105893
0.813645
0.999966
1
1
1
1
1
1
1
1
1
1
1
1
0.996228
0.996233
0.996234
0.999971
0.998658
0.983365
0.999598
0.999926
0.846281
0.130669
0.000243446
7.54549e-06
5.20051e-06
5.16791e-06
5.13027e-06
1.0106e-05
0.103402
0.844624
0.999996
1
1
1
1
1
1
1
1
1
1
1
0.996514
0.996233
0.996233
0.999893
0.998728
0.999354
0.999997
0.999963
0.607922
0.00271211
3.18948e-05
5.0889e-06
5.1688e-06
5.06162e-06
4.07921e-06
7.01981e-06
7.78954e-05
0.15939
0.942882
0.999999
1
1
1
1
1
1
1
1
1
1
0.999567
0.996233
0.997253
0.999936
0.999805
0.999997
0.999999
0.967033
0.252475
3.19531e-05
1.03721e-05
5.3385e-06
5.26952e-06
7.70342e-06
2.12804e-06
2.50927e-06
2.65221e-05
0.000444229
0.335478
0.999977
1
1
1
1
1
1
1
1
1
1
0.999997
0.996334
0.999118
0.999989
0.999998
0.999999
0.999999
0.885013
0.0834676
0.00119239
1.13006e-05
9.10958e-06
1.79566e-05
1.4025e-05
1.35639e-06
-2.9937e-07
8.35505e-08
-1.80512e-05
0.0237604
0.746232
0.99996
1
1
1
1
1
1
1
1
1
0.999999
0.999554
0.999955
0.999989
0.999999
0.999999
0.999999
0.568462
0.0113996
1.06113e-05
1.19163e-05
1.21432e-05
2.15893e-05
2.05105e-06
5.72509e-08
5.52096e-08
4.52729e-08
8.38163e-08
1.89112e-06
0.074783
0.995256
0.999999
1
1
1
1
1
1
1
1
0.999999
0.999999
0.999999
0.999997
0.999999
0.999999
0.999999
0.278916
4.73908e-05
1.24841e-05
1.25359e-05
1.65455e-05
8.55065e-05
9.42574e-05
4.33517e-05
4.97156e-08
5.46165e-08
6.20343e-08
2.66096e-07
4.82561e-06
0.44296
0.983441
1
1
1
1
1
1
1
1
1
1
1
1
1
1
1
1
0.932403
0.00124353
4.28541e-05
1.47714e-06
2.20995e-07
3.4965e-07
7.06748e-05
7.15195e-05
6.9007e-05
7.24462e-05
7.25145e-05
3.98187e-05
2.57781e-05
2.69298e-05
0.100695
0.936638
0.999999
0.999999
0.999999
0.999999
0.999999
0.999999
0.45796
0.877561
1
1
1
1
1
0.999998
0.999234
0.0586178
1.49987e-05
-2.74594e-06
5.64932e-08
3.20195e-07
7.02548e-05
5.7615e-05
1.95258e-06
7.25146e-05
7.25146e-05
2.92657e-05
2.49517e-05
0.00152184
0.00187297
0.560011
0.999999
0.999999
0.999999
0.999999
0.999999
0.999999
0.165208
0.503826
0.913975
0.991184
0.999072
0.998777
0.99955
0.996938
0.591236
9.91457e-05
4.20571e-05
7.08734e-07
4.65973e-08
1.14641e-07
6.83631e-05
1.1533e-07
9.55687e-08
3.13737e-05
7.25145e-05
2.56364e-05
2.47249e-05
0.000648968
0.00122692
0.20985
0.895
0.999999
0.999999
0.999999
0.999999
0.999999
0.073521
0.474413
0.782706
0.932311
0.978447
0.990479
0.996593
0.92115
0.153687
0.000168131
-3.88089e-08
-6.40811e-08
4.07031e-08
9.72444e-06
1.05476e-05
4.94794e-07
8.85595e-08
1.1335e-07
7.06979e-05
2.4724e-05
2.49895e-05
0.0011697
0.0143663
0.000398988
0.274063
0.931275
0.999999
0.999999
0.999999
0.999999
0.00590097
0.184524
0.597567
0.843528
0.964534
0.990516
0.994124
0.796033
0.0318035
-4.63292e-09
-8.42596e-07
-1.9043e-08
1.93294e-07
1.43561e-05
8.64116e-08
8.65369e-08
8.7172e-08
8.85469e-08
5.15006e-05
3.41966e-05
2.48312e-05
0.000976462
0.00308768
0.000192255
0.000398988
0.20236
0.543878
0.783212
0.876518
0.911159
4.60423e-05
0.0191827
0.257581
0.642419
0.905989
0.974952
0.920715
0.285971
0.00381843
-1.09954e-08
-6.32736e-08
1.09662e-11
3.26946e-07
1.07815e-05
2.05889e-07
7.58955e-08
7.89369e-08
8.6346e-08
1.37042e-05
4.14242e-05
2.71883e-05
2.53464e-05
0.000116611
0.00013885
0.000219602
0.000461027
0.00948128
0.0736615
0.145628
0.18489
4.15794e-05
0.000487802
0.0389257
0.269721
0.567016
0.646303
0.363379
4.28118e-09
-3.73841e-18
-2.09939e-09
-4.25913e-09
2.18268e-09
6.62276e-08
2.89154e-08
3.9237e-08
6.08134e-08
7.26954e-08
8.36239e-08
9.37891e-08
4.12106e-05
2.24118e-05
2.57734e-05
5.07699e-05
7.22218e-05
2.78727e-05
2.37418e-05
4.42084e-05
0.000107638
0.000222446
0.000305049
2.92266e-06
1.68757e-06
1.26728e-06
0.0129019
0.0475204
0.0554623
0.0120249
6.94327e-06
2.1898e-10
1.70048e-11
9.36472e-12
2.26735e-08
2.21154e-08
2.53765e-08
3.47786e-08
7.72071e-08
1.07328e-07
9.34573e-08
2.14241e-07
3.21699e-06
2.362e-05
3.48555e-05
1.8648e-05
1.08203e-05
4.64873e-06
4.11945e-06
3.97176e-06
5.1513e-06
8.0335e-06
1.03927e-05
4.71014e-07
1.66128e-06
6.49463e-09
1.46701e-14
-7.27225e-11
-1.44663e-10
-2.48081e-10
1.55412e-14
2.61968e-09
6.9138e-10
7.35301e-11
4.05983e-08
2.5398e-07
3.47656e-08
1.52788e-07
1.13169e-07
4.8274e-07
2.13427e-07
3.45521e-07
4.02027e-07
6.38583e-05
7.30449e-05
8.58544e-06
4.59452e-06
3.32206e-06
2.19585e-06
1.74242e-06
1.56206e-06
1.43975e-06
1.4178e-06
7.15541e-07
6.98305e-06
1.67819e-06
4.17307e-06
-1.19631e-10
-3.51017e-10
-5.58004e-10
2.84324e-10
2.38727e-09
1.43406e-10
6.11939e-11
5.77203e-09
7.86704e-07
3.61785e-06
4.38799e-05
8.34154e-07
9.05848e-05
7.38363e-05
4.83034e-06
6.07724e-07
8.12898e-05
8.69562e-05
7.00617e-05
4.08454e-06
2.11121e-06
1.75275e-06
1.47032e-06
1.26557e-06
1.23239e-06
1.22198e-06
3.20338e-07
1.22112e-05
9.87561e-06
8.30379e-07
-4.8318e-11
-3.684e-10
-5.94808e-10
3.33489e-10
7.56871e-10
2.67561e-11
4.01655e-11
5.68946e-11
4.71215e-07
5.17878e-05
0.000140328
8.14682e-05
0.00019794
0.000197863
3.27102e-06
7.11142e-07
3.38576e-05
8.72084e-05
8.87277e-05
7.79814e-05
2.49975e-05
1.56644e-06
1.26758e-06
1.23352e-06
1.22256e-06
1.21492e-06
7.74631e-08
8.48696e-06
1.50277e-05
5.98899e-12
2.43282e-11
-9.43676e-11
-1.82488e-10
2.97194e-10
1.44375e-11
1.20535e-11
3.31481e-11
4.49752e-11
9.22755e-08
7.63655e-05
0.000162944
0.000164286
0.000200328
0.000202496
1.86908e-06
6.8347e-07
5.13807e-07
8.94671e-05
8.95331e-05
9.06945e-05
8.98532e-05
7.05767e-05
1.08331e-05
1.24151e-06
1.21422e-06
1.21348e-06
7.19049e-09
4.15373e-06
1.51116e-05
5.989e-12
4.21037e-11
7.00747e-11
1.27987e-10
9.95285e-11
1.12106e-11
5.38251e-12
5.50513e-11
5.58581e-11
1.29199e-10
2.47066e-06
0.000117993
0.000162944
9.1259e-05
0.000208904
0.00015054
3.33674e-07
3.38994e-07
2.10363e-05
8.95935e-05
9.0179e-05
8.95008e-05
8.93316e-05
8.20884e-05
1.11446e-05
1.2477e-06
1.28652e-06
9.85621e-11
1.68545e-06
1.51323e-05
6.12663e-12
3.61802e-11
3.37202e-11
3.47989e-11
1.92658e-11
4.10294e-12
2.15462e-12
2.14718e-11
3.59541e-11
5.43636e-11
7.75796e-10
3.05148e-05
0.000120969
7.79354e-05
0.000213304
0.000263305
3.34104e-07
3.33679e-07
3.39001e-07
8.66012e-05
8.95101e-05
8.9505e-05
8.94363e-05
8.92503e-05
1.26376e-05
1.16332e-06
1.13839e-06
1.40784e-11
2.76049e-07
1.51241e-05
2.75642e-10
3.05229e-11
1.73736e-11
1.41449e-11
6.26967e-12
1.73216e-12
9.46601e-13
9.21659e-12
5.07625e-11
6.22504e-11
1.12133e-10
4.45644e-07
5.94388e-05
7.64183e-05
0.000131705
0.000295393
0.00019043
3.35213e-07
3.34526e-07
4.57249e-05
8.97728e-05
8.9482e-05
8.9482e-05
4.45365e-05
4.1515e-06
1.13729e-06
1.12956e-06
1.07304e-11
1.39211e-11
2.30758e-06
1.495e-08
1.23873e-11
8.20829e-12
4.73674e-12
2.59417e-12
8.73739e-13
4.95668e-13
6.10777e-12
5.52738e-11
3.87015e-11
1.72031e-10
4.85432e-06
3.12699e-05
7.96585e-05
9.53035e-05
0.000295387
0.000277466
5.67727e-05
3.79576e-07
9.5081e-06
8.89341e-05
7.72553e-05
2.90952e-05
3.06003e-06
1.30566e-06
1.12956e-06
1.11835e-06
6.81682e-12
1.06776e-11
3.19309e-11
4.54207e-10
2.14922e-11
3.55428e-12
1.32341e-12
8.16291e-13
3.23283e-13
1.62087e-13
1.66007e-12
1.19008e-11
2.40241e-11
3.63472e-11
6.3423e-10
1.32838e-05
8.26293e-05
8.04257e-05
0.000189914
0.000276361
0.000174516
4.25107e-07
9.01285e-07
1.27646e-05
1.03619e-05
9.48874e-07
8.36276e-07
1.72972e-06
1.79408e-06
1.53384e-06
3.90714e-12
1.139e-11
1.42464e-11
5.97461e-11
9.44111e-12
1.42789e-12
3.19166e-13
1.751e-13
7.89339e-14
5.35209e-14
8.01316e-13
8.31805e-12
1.84454e-11
3.46105e-11
9.62006e-10
1.61321e-05
8.26714e-05
5.22377e-05
6.49582e-05
0.000270359
0.000171107
1.74422e-06
1.29881e-07
2.08581e-07
3.25407e-07
5.6556e-07
7.45598e-07
2.12909e-06
2.13701e-06
2.17885e-06
1.3154e-12
2.96426e-12
3.12464e-11
2.391e-11
4.51903e-12
5.32112e-13
7.13083e-14
2.71694e-14
1.11204e-14
1.47949e-14
3.03953e-13
3.48191e-12
2.46791e-11
3.22101e-11
8.26096e-11
1.34999e-07
2.25114e-05
4.61576e-05
1.40009e-05
0.000101295
0.000181237
3.82561e-05
1.2136e-07
1.2988e-07
2.08606e-07
3.86652e-07
5.78434e-07
1.07034e-06
1.71734e-06
1.64019e-06
3.69653e-13
7.21381e-13
2.77077e-11
9.39911e-12
1.61357e-12
1.62075e-13
1.50491e-14
3.06448e-15
1.08916e-15
3.72038e-15
9.96645e-14
1.33343e-12
1.01156e-11
2.02818e-11
3.11362e-11
1.11969e-09
2.31038e-06
1.06282e-05
1.16609e-05
1.03241e-05
4.82268e-05
3.93158e-05
1.22976e-07
1.22708e-07
5.62167e-07
4.9412e-07
6.28114e-07
7.12375e-07
7.65409e-07
8.37605e-07
5.76883e-14
1.36772e-13
1.10303e-11
2.57484e-12
3.96862e-13
3.56685e-14
2.65636e-15
2.65985e-16
6.81096e-17
7.99303e-16
2.4814e-14
3.33638e-13
2.45127e-12
1.15325e-11
3.65337e-11
5.38801e-11
2.55262e-10
6.53427e-07
2.50289e-06
2.91969e-07
1.34333e-07
3.47697e-06
8.66522e-07
1.04376e-07
3.09975e-06
1.61496e-05
1.27051e-05
3.45024e-06
8.3757e-07
8.66401e-07
5.82709e-15
1.7926e-14
3.01087e-12
4.76671e-13
6.38781e-14
5.17214e-15
3.30817e-16
1.86495e-17
3.01553e-18
1.34826e-16
4.86146e-15
8.63962e-14
9.37127e-13
6.40964e-12
2.8701e-11
6.08177e-11
8.18442e-11
2.87849e-08
2.238e-07
3.05193e-07
1.18255e-08
1.14187e-09
2.02096e-07
3.18416e-08
5.98007e-06
1.62281e-05
1.62506e-05
1.61624e-05
1.43851e-05
1.38653e-05
3.78972e-16
1.52376e-15
5.55274e-13
5.80882e-14
6.40763e-15
4.59383e-16
2.55671e-17
1.00196e-18
1.56082e-19
1.62021e-17
6.82644e-16
1.43596e-14
1.82624e-13
1.52693e-12
8.85891e-12
3.65574e-11
1.0183e-10
1.28328e-10
2.53521e-10
1.71873e-08
1.73939e-08
2.3173e-10
2.79133e-10
1.92521e-09
9.2028e-07
8.17583e-06
1.42816e-05
1.33937e-05
8.23431e-06
6.10651e-06
1.58498e-17
7.98967e-17
6.7174e-14
4.53586e-15
3.7826e-16
2.31023e-17
1.10375e-18
3.3856e-20
6.47503e-21
8.41044e-19
4.29127e-17
1.16505e-15
1.94692e-14
2.1245e-13
1.56142e-12
7.94393e-12
2.83766e-11
6.99176e-11
7.1726e-11
1.09725e-09
5.59673e-09
1.9806e-10
1.32321e-10
3.55245e-10
1.42045e-08
1.67607e-07
7.18349e-07
7.46914e-07
1.98015e-07
3.09352e-09
4.2449e-19
2.44052e-18
5.09739e-15
2.20018e-16
1.22101e-17
5.87453e-19
2.33422e-20
5.68152e-22
1.74555e-22
2.63636e-20
1.60091e-18
5.3291e-17
1.11327e-15
1.56302e-14
1.53413e-13
1.07843e-12
5.53705e-12
2.12405e-11
5.56969e-11
9.23672e-11
8.69207e-11
1.96105e-10
1.19901e-10
9.45044e-11
8.73468e-11
1.23346e-10
2.67381e-10
2.90845e-10
1.73085e-10
1.50416e-10
7.26041e-21
3.96946e-20
2.26018e-16
6.46872e-18
2.09196e-19
6.63469e-21
1.99712e-22
3.71389e-24
1.96712e-24
3.58635e-22
2.79198e-20
1.23102e-18
3.45609e-17
6.59904e-16
8.92346e-15
8.80619e-14
6.48125e-13
3.42635e-12
1.18406e-11
2.94197e-11
5.23907e-11
6.29482e-11
3.26958e-11
4.00492e-11
5.76996e-11
3.95142e-11
5.60044e-11
6.43589e-11
6.15548e-11
6.53955e-11
7.87443e-23
2.86255e-22
5.17342e-18
1.05285e-19
1.94746e-21
3.00212e-23
4.88106e-25
5.77846e-27
9.87527e-27
2.30331e-24
2.40291e-22
1.44586e-20
5.62847e-19
1.51548e-17
2.94851e-16
4.27786e-15
4.73283e-14
3.31532e-13
1.44177e-12
4.28416e-12
8.98469e-12
1.16726e-11
6.4119e-12
5.87477e-12
1.08682e-11
1.91951e-11
3.754e-11
4.45733e-11
3.68965e-11
3.56335e-11
5.42313e-25
4.78967e-25
4.55579e-20
7.44411e-22
9.56266e-24
8.24971e-26
5.53165e-28
3.13334e-30
1.61215e-29
5.0705e-27
7.8086e-25
7.0473e-23
4.16803e-21
1.72867e-19
5.26553e-18
1.21717e-16
2.14258e-15
2.01692e-14
1.10752e-13
3.90311e-13
9.34524e-13
1.37135e-12
8.66051e-13
6.21368e-13
1.00334e-12
1.64324e-12
2.77088e-12
3.51901e-12
3.74515e-12
3.80849e-12
2.42811e-27
1.12678e-27
7.59593e-23
1.21397e-24
1.2098e-26
7.29119e-29
3.4106e-31
9.50687e-33
9.69749e-33
2.13296e-30
5.85083e-28
9.57825e-26
1.04586e-23
8.15072e-22
4.73157e-20
2.10067e-18
5.92883e-17
7.85596e-16
5.58884e-15
2.37522e-14
6.49974e-14
1.0832e-13
8.0357e-14
4.77307e-14
7.09061e-14
1.04063e-13
1.59159e-13
2.07213e-13
2.44321e-13
2.52295e-13
7.8308e-30
3.74897e-30
3.49056e-26
2.5679e-28
1.12949e-30
3.75758e-33
1.53451e-34
4.61594e-35
2.44787e-35
1.45676e-35
9.70108e-33
5.47499e-30
2.07274e-27
5.58964e-25
1.10847e-22
1.64012e-20
9.57409e-19
1.97892e-17
1.91765e-16
1.01395e-15
3.2282e-15
6.1267e-15
5.32797e-15
2.75898e-15
3.8979e-15
5.18711e-15
7.13428e-15
9.13177e-15
1.12432e-14
1.18265e-14
0.999999
0.999999
0.999999
0.999999
0.999999
0.999999
0.921348
0.0840442
0.000843243
1.42655e-05
1.29231e-05
3.98614e-05
0.000179146
0.000176084
0.000176028
4.6092e-08
4.07013e-08
1.47988e-08
1.21903e-06
4.13456e-05
0.00109902
0.933852
1
1
1
1
1
1
1
1
0.999999
0.999999
0.999999
0.999999
0.999999
0.999999
0.575299
0.0117367
0.00336704
1.82857e-05
1.63516e-05
0.000147057
0.000176769
0.00017649
0.000175659
3.89786e-08
3.57224e-08
3.90152e-08
-2.82583e-06
1.51696e-05
0.0580845
0.999363
0.999998
1
1
1
1
1
0.876694
0.459325
0.999999
0.999999
0.999999
0.999999
0.999999
0.871124
0.159403
0.00280134
0.00301302
2.04214e-05
1.87084e-05
0.000122916
0.000177249
0.000176813
0.000176409
3.57161e-08
3.57058e-08
3.57073e-08
6.7896e-07
4.36734e-05
9.92249e-05
0.59783
0.997087
0.999603
0.99881
0.9989
0.990377
0.912215
0.504785
0.167686
0.999999
0.999999
0.999999
0.999999
0.900064
0.241059
0.00284141
0.00472965
0.000226493
2.03167e-05
2.04751e-05
3.75973e-05
0.000177573
0.000177249
0.000126155
1.70137e-05
3.57172e-08
3.51527e-08
-1.4248e-08
-3.86304e-08
0.000190015
0.155385
0.922488
0.996544
0.990563
0.978455
0.931619
0.782911
0.48037
0.076733
0.909415
0.856934
0.753742
0.485318
0.163226
0.000521281
0.000140669
0.00132351
2.01826e-05
2.01826e-05
2.03461e-05
8.77622e-05
0.000169775
0.00017302
6.93754e-06
7.6031e-05
5.32131e-08
3.17775e-08
-1.29859e-08
-4.60203e-07
-4.2649e-09
0.0324069
0.799411
0.994225
0.990339
0.964353
0.843323
0.598471
0.185698
0.00584981
0.182588
0.127451
0.0610978
0.00440097
0.000457802
0.000298359
5.77148e-05
7.52511e-05
6.05419e-05
2.03153e-05
6.2651e-05
0.000101446
6.27055e-05
7.20525e-05
4.40591e-06
7.64956e-05
1.5838e-05
3.62922e-07
1.45669e-11
-7.1942e-08
-4.38178e-08
0.00425938
0.296075
0.923897
0.974429
0.903243
0.637119
0.254078
0.0186625
4.25154e-05
0.000303959
0.000213952
0.00012067
5.00617e-05
2.88503e-05
2.22788e-05
3.22868e-05
3.61435e-05
7.43974e-05
8.4676e-05
0.000101512
0.000101148
6.15076e-05
0.000187921
4.03785e-06
3.4864e-05
3.83358e-05
1.62613e-06
1.12343e-11
-4.15789e-09
-3.09688e-08
5.4583e-16
3.80232e-09
0.366919
0.642935
0.559496
0.261181
0.0366756
0.000440825
3.86972e-05
1.08576e-05
8.98911e-06
7.30706e-06
7.18984e-06
1.15622e-05
1.52614e-05
1.27561e-05
1.02357e-05
1.62664e-05
1.72218e-05
4.31735e-05
8.70909e-05
7.07119e-05
0.000194128
1.31146e-06
7.90111e-08
7.31276e-06
1.54768e-06
1.45454e-10
7.24151e-12
2.02469e-12
1.98507e-10
6.1194e-06
0.0129902
0.0548112
0.0452547
0.0114199
1.1501e-06
2.36611e-06
1.70268e-06
1.45528e-06
1.51744e-06
2.01627e-06
3.68885e-06
6.87844e-06
1.40914e-05
8.91334e-06
3.88225e-06
3.5804e-06
3.09519e-06
4.32147e-06
2.61263e-05
0.000219289
0.000196782
5.72659e-05
7.90219e-08
8.24617e-08
1.18731e-07
3.92851e-08
9.59878e-11
5.64242e-10
3.75245e-09
5.79792e-10
3.73302e-13
5.31046e-20
-3.11342e-13
1.39509e-14
6.28994e-09
2.06981e-06
6.29679e-07
1.22493e-06
1.2392e-06
1.55108e-06
2.05197e-06
1.82863e-05
2.87547e-05
1.4222e-05
2.43054e-06
2.53309e-06
2.85215e-06
3.12004e-06
4.99798e-05
0.000221383
7.22714e-05
0.000108586
2.71095e-07
3.24281e-07
1.19654e-09
1.1274e-09
6.23136e-10
1.51528e-10
3.21601e-09
3.15226e-09
4.94368e-10
9.89871e-11
9.35221e-12
3.40498e-06
1.36384e-06
7.96931e-06
9.28944e-07
1.21351e-06
1.20872e-06
1.23822e-06
1.07118e-05
2.97189e-05
2.93985e-05
2.57984e-05
2.029e-06
2.19543e-06
2.54906e-06
6.73976e-06
3.4888e-05
0.000221443
6.8277e-05
0.000108644
5.16312e-05
2.55989e-06
1.40026e-10
9.56289e-11
1.02642e-10
4.66858e-11
5.55809e-10
1.31361e-09
2.98744e-10
1.20404e-10
9.35695e-12
3.70912e-07
8.3359e-06
1.31181e-05
4.99392e-07
1.19904e-06
1.15847e-06
1.44761e-06
2.2441e-05
2.97732e-05
2.97287e-05
2.81125e-05
1.93599e-06
2.01301e-06
8.51754e-06
1.27292e-05
0.000141237
0.000222072
6.85132e-05
0.000108586
0.000108116
3.18705e-06
1.06153e-10
6.66422e-11
5.31381e-11
1.89087e-11
3.53023e-12
4.45417e-12
1.83796e-10
1.12923e-10
3.88485e-11
1.20153e-11
1.57675e-05
1.01795e-05
1.15936e-07
1.36964e-06
1.12286e-06
1.15331e-06
1.77846e-05
2.97605e-05
2.9796e-05
1.14501e-05
1.92408e-06
1.936e-06
8.2088e-06
2.48729e-05
0.000270572
0.000222422
6.60533e-05
9.29847e-05
1.75411e-05
1.5193e-06
7.0516e-11
4.54121e-11
3.24187e-11
6.50163e-12
3.51377e-12
1.56861e-11
9.49705e-11
7.34763e-11
4.3087e-11
1.20153e-11
1.59013e-05
4.80832e-06
1.19635e-08
1.41199e-06
1.11159e-06
1.12247e-06
4.05399e-06
1.79389e-05
1.80683e-05
1.66699e-06
1.86768e-06
2.30048e-06
2.25644e-06
0.000163351
0.000270942
7.76843e-05
4.69563e-05
3.13618e-05
4.72938e-10
2.76458e-10
8.98575e-10
5.80693e-11
1.65553e-11
2.36698e-12
2.87422e-12
1.22331e-11
4.16705e-11
3.87836e-11
3.66241e-11
1.22391e-11
1.59252e-05
1.94556e-06
1.36023e-10
1.22575e-06
1.10888e-06
1.11075e-06
1.14901e-06
1.37662e-06
1.62467e-06
1.52864e-06
2.98287e-06
1.5445e-05
2.39516e-06
0.000250752
0.000270915
0.000134397
6.7257e-05
1.31193e-05
3.18519e-10
7.14265e-11
5.36548e-11
2.55066e-11
7.30345e-12
9.32233e-13
1.81394e-12
6.45442e-12
1.5448e-11
1.99341e-11
3.06506e-11
7.24497e-10
1.59159e-05
3.44655e-07
1.43253e-11
1.10863e-06
1.10955e-06
1.1095e-06
1.11796e-06
1.18355e-06
1.38253e-06
1.55836e-06
1.30012e-05
8.39988e-06
0.000182067
0.000270298
0.000270889
0.000113832
9.17268e-05
2.61636e-05
8.63279e-10
7.13523e-11
5.69568e-11
1.81016e-11
2.88227e-12
3.85762e-13
8.82086e-13
2.60803e-12
5.15843e-12
9.14504e-12
1.27731e-11
1.90176e-08
3.10713e-06
1.41779e-11
1.06211e-11
1.3283e-06
2.72656e-06
9.39887e-06
1.5423e-05
6.38497e-06
1.06061e-05
3.25044e-05
2.54316e-05
8.34496e-06
0.000131164
0.000268834
0.000145975
7.23258e-05
9.15229e-05
3.98198e-05
1.3972e-09
3.49636e-11
2.09792e-11
1.03534e-11
1.1457e-12
1.34701e-13
3.21308e-13
8.04636e-13
1.42927e-12
3.86372e-12
2.32786e-11
5.50235e-10
4.13397e-11
1.02831e-11
6.74951e-12
2.2077e-06
4.47798e-06
4.09954e-05
4.46535e-05
4.45512e-05
4.4928e-05
4.39599e-05
1.94106e-05
8.34496e-06
6.37044e-05
9.70778e-05
2.82359e-05
4.49861e-05
8.97127e-05
1.50782e-05
7.25098e-10
2.39791e-11
1.86081e-11
7.9609e-12
7.53704e-13
5.04887e-14
7.75773e-14
1.69188e-13
3.40063e-13
1.50266e-12
9.74708e-12
6.57978e-11
1.68832e-11
1.41687e-11
3.7808e-12
1.24149e-06
2.64161e-06
3.117e-05
4.48747e-05
4.49294e-05
4.49266e-05
3.4944e-05
2.44764e-06
2.03558e-05
7.2946e-05
5.50035e-05
1.1713e-05
4.7877e-05
3.3975e-05
1.61983e-06
1.59674e-10
3.61834e-11
4.11345e-11
4.60076e-12
3.34745e-13
1.43536e-14
1.04176e-14
2.61826e-14
7.49246e-14
5.47662e-13
4.5945e-12
2.41421e-11
2.17419e-11
3.48447e-12
1.32173e-12
8.8338e-07
9.02003e-07
3.8141e-06
1.68006e-05
2.61559e-05
1.70329e-05
2.34896e-06
1.10606e-07
3.75906e-05
7.28949e-05
3.24813e-05
8.96227e-06
1.73003e-05
3.98976e-06
3.35578e-11
1.43315e-11
1.59977e-11
9.51403e-12
1.35023e-12
1.00107e-13
3.47285e-15
1.0073e-15
2.97758e-15
1.57588e-14
1.66236e-13
1.64384e-12
9.64736e-12
2.96518e-11
8.36039e-13
3.51229e-13
8.66408e-07
1.32687e-06
8.76745e-06
1.05189e-05
3.02983e-06
2.01078e-07
3.87066e-08
8.04181e-08
1.72984e-05
1.51296e-05
3.10835e-06
1.54826e-06
8.25433e-10
2.92982e-11
1.21512e-11
8.15917e-12
5.99837e-12
1.61858e-12
2.28565e-13
1.65664e-14
5.09353e-16
6.12909e-17
2.68481e-16
2.81536e-15
3.70314e-14
4.10055e-13
2.71225e-12
1.24095e-11
1.60318e-13
5.44174e-14
1.36817e-05
1.41883e-05
1.43838e-05
1.43455e-05
1.07672e-05
4.20055e-07
7.71594e-09
9.07603e-08
3.59995e-09
4.30097e-09
1.11098e-07
1.01643e-07
2.27927e-08
8.80345e-11
9.1291e-11
3.05324e-11
6.35932e-12
8.84678e-13
7.74417e-14
4.12105e-15
1.0722e-16
2.63258e-18
2.00398e-17
3.58437e-16
5.48763e-15
6.76209e-14
5.2062e-13
3.50296e-12
2.15759e-14
5.44831e-15
7.18185e-06
8.60417e-06
1.38989e-05
1.24793e-05
5.58995e-06
1.30345e-08
1.07296e-09
1.89613e-09
2.83801e-10
2.43492e-09
1.55473e-10
1.30051e-10
2.40113e-10
1.17768e-10
3.69339e-11
8.44989e-12
1.40703e-12
1.63134e-13
1.2358e-14
5.61476e-16
1.25919e-17
1.23447e-19
1.14204e-18
2.84824e-17
5.01365e-16
7.01146e-15
6.63804e-14
6.65797e-13
1.89946e-15
3.51329e-16
2.02653e-08
2.70866e-07
8.44845e-07
7.46324e-07
2.5625e-07
2.02628e-08
1.7504e-10
1.3575e-10
1.7569e-10
5.26994e-10
1.33151e-10
1.20412e-10
7.36007e-11
2.88749e-11
7.8757e-12
1.50985e-12
1.99794e-13
1.77136e-14
1.01975e-15
3.59067e-17
6.66676e-19
5.00049e-21
4.02083e-20
1.27006e-18
2.60869e-17
4.31738e-16
5.46254e-15
8.29107e-14
1.03999e-16
1.45532e-17
1.55407e-10
1.92412e-10
3.12837e-10
2.67178e-10
1.29457e-10
1.29129e-09
1.2674e-10
1.22323e-10
1.64633e-10
1.73527e-10
9.73455e-11
5.0791e-11
2.01809e-11
5.31689e-12
1.02932e-12
1.44067e-13
1.43475e-14
9.93533e-16
4.59992e-17
1.32898e-18
2.08997e-20
1.33012e-22
7.07707e-22
2.81801e-20
7.0067e-19
1.49078e-17
2.82124e-16
6.47316e-15
3.33942e-18
3.85965e-19
6.67034e-11
6.2602e-11
6.49503e-11
5.54897e-11
4.01431e-11
3.98633e-11
4.33786e-11
3.64158e-11
5.28946e-11
4.68887e-11
2.51807e-11
1.06915e-11
3.20119e-12
6.03772e-13
8.09009e-14
8.03666e-15
5.80751e-16
2.96401e-17
1.02592e-18
2.25174e-20
2.78412e-22
1.47047e-24
4.99794e-24
2.61912e-22
8.68092e-21
2.8045e-19
8.79916e-18
2.95229e-16
5.76514e-20
6.54684e-21
3.73068e-11
3.83361e-11
4.53403e-11
3.69512e-11
2.00726e-11
1.0838e-11
6.67786e-12
6.98821e-12
1.00618e-11
7.69429e-12
3.73772e-12
1.31201e-12
3.05181e-13
4.28365e-14
3.79435e-15
2.5567e-16
1.28277e-17
4.64387e-19
1.16059e-20
1.87125e-22
1.73316e-24
7.21287e-27
9.11009e-27
7.46962e-25
4.4799e-23
2.84368e-21
1.49602e-19
6.94337e-18
4.51614e-22
7.05821e-23
3.8875e-12
3.71927e-12
3.5069e-12
2.77629e-12
1.74644e-12
1.06057e-12
7.05547e-13
8.97284e-13
1.21063e-12
8.10033e-13
3.46325e-13
1.0021e-13
1.81218e-14
1.87279e-15
1.02615e-16
4.34436e-18
1.39583e-19
3.28873e-21
5.42076e-23
5.8379e-25
3.6703e-27
1.19573e-29
4.81361e-30
8.91034e-28
1.28654e-25
1.45068e-23
1.0918e-21
6.23525e-20
8.90455e-25
4.82028e-25
2.52397e-13
2.3745e-13
2.06407e-13
1.63036e-13
1.12713e-13
7.58402e-14
5.2449e-14
7.95405e-14
9.70228e-14
5.69669e-14
2.10626e-14
4.9585e-15
6.83255e-16
4.97226e-17
1.67803e-18
3.67785e-20
6.18315e-22
7.75969e-24
6.94676e-26
4.13768e-28
1.46616e-30
1.09798e-32
1.30681e-32
5.72822e-31
1.20893e-28
1.94439e-26
1.88287e-24
1.11084e-22
1.02939e-27
2.15009e-27
1.16663e-14
1.07738e-14
9.1432e-15
7.40726e-15
5.61015e-15
4.10389e-15
2.88544e-15
5.09797e-15
5.50286e-15
2.82251e-15
8.8534e-16
1.65291e-16
1.65532e-17
7.64426e-19
1.21928e-20
7.94147e-23
3.86189e-25
1.38561e-27
3.54836e-30
6.09846e-33
1.18959e-35
3.52573e-35