/*--------------------------------*- C++ -*----------------------------------*\
| =========                 |                                                 |
| \\      /  F ield         | OpenFOAM: The Open Source CFD Toolbox           |
|  \\    /   O peration     | Version:  2.4.0                                 |
|   \\  /    A nd           | Web:      www.OpenFOAM.org                      |
|    \\/     M anipulation  |                                                 |
\*---------------------------------------------------------------------------*/
FoamFile
{
    version     2.0;
    format      ascii;
    class       surfaceScalarField;
    location    "0.077";
    object      phi;
}
// * * * * * * * * * * * * * * * * * * * * * * * * * * * * * * * * * * * * * //

dimensions      [0 3 -1 0 0 0 0];

internalField   nonuniform List<scalar> 
7080
(
-2.16158e-08
2.16158e-08
-3.78551e-08
1.62393e-08
-4.70375e-08
9.18236e-09
-5.09206e-08
3.8831e-09
-4.80755e-08
-2.84513e-09
-3.72332e-08
-1.08423e-08
-1.79544e-08
-1.92787e-08
9.80817e-09
-2.77626e-08
4.44907e-08
-3.46825e-08
8.31917e-08
-3.8701e-08
1.21677e-07
-3.84855e-08
1.56799e-07
-3.5122e-08
1.90277e-07
-3.34777e-08
2.02637e-07
-1.23604e-08
2.41308e-07
-3.8671e-08
1.8654e-07
5.47682e-08
1.97847e-07
-1.13068e-08
1.55179e-07
4.26674e-08
2.60166e-08
1.29163e-07
-1.27589e-07
1.53606e-07
-3.32516e-07
2.04926e-07
-3.69282e-07
3.67662e-08
-2.79208e-07
-9.00738e-08
-1.16661e-07
-1.62547e-07
6.98404e-08
-1.86501e-07
1.79652e-07
-1.09811e-07
1.87735e-07
-8.08293e-09
1.53298e-07
3.44369e-08
1.09633e-07
4.36646e-08
1.07373e-07
2.26026e-09
-2.85318e-08
5.01477e-08
-5.11505e-08
3.88579e-08
-6.59991e-08
2.4031e-08
-7.48826e-08
1.27666e-08
-7.56401e-08
-2.08767e-09
-6.62042e-08
-2.02781e-08
-4.54866e-08
-3.99963e-08
-1.30717e-08
-6.01775e-08
2.96187e-08
-7.73729e-08
7.8649e-08
-8.77313e-08
1.28236e-07
-8.80723e-08
1.75861e-07
-8.27468e-08
2.18657e-07
-7.6274e-08
2.43981e-07
-3.76847e-08
2.93004e-07
-8.76935e-08
2.46785e-07
1.00987e-07
2.69335e-07
-3.38571e-08
2.47699e-07
6.43036e-08
1.11281e-07
2.65581e-07
-8.88492e-08
3.53736e-07
-2.78014e-07
3.94091e-07
-3.75899e-07
1.34652e-07
-3.28197e-07
-1.37776e-07
-1.85068e-07
-3.05676e-07
-4.47481e-08
-3.26821e-07
5.92578e-08
-2.13817e-07
1.1893e-07
-6.77551e-08
1.1962e-07
3.37464e-08
8.00806e-08
8.32045e-08
1.90628e-07
-3.17463e-09
-2.95591e-08
7.97068e-08
-5.32342e-08
6.2533e-08
-6.92096e-08
4.00064e-08
-7.93299e-08
2.28869e-08
-8.12955e-08
-1.22048e-10
-7.28822e-08
-2.86914e-08
-5.28827e-08
-5.99958e-08
-2.07804e-08
-9.22798e-08
2.20066e-08
-1.2016e-07
7.14414e-08
-1.37166e-07
1.21285e-07
-1.37916e-07
1.69568e-07
-1.3103e-07
2.10558e-07
-1.17265e-07
2.43489e-07
-7.06154e-08
2.78131e-07
-1.22336e-07
2.65001e-07
1.14118e-07
2.77287e-07
-4.61435e-08
2.50951e-07
9.06397e-08
1.29234e-07
3.87298e-07
-3.93841e-08
5.22354e-07
-1.60746e-07
5.15453e-07
-2.37903e-07
2.11808e-07
-1.96399e-07
-1.7928e-07
-1.39338e-07
-3.62738e-07
-8.25688e-08
-3.8359e-07
-2.05117e-08
-2.75875e-07
2.32622e-08
-1.11529e-07
2.61249e-08
3.08837e-08
7.01504e-09
1.02314e-07
1.93467e-07
4.17639e-09
-2.97444e-08
1.09451e-07
-5.36096e-08
8.63982e-08
-6.97967e-08
5.61935e-08
-8.02205e-08
3.33107e-08
-8.25377e-08
2.19513e-09
-7.44652e-08
-3.67639e-08
-5.4741e-08
-7.972e-08
-2.27371e-08
-1.24284e-07
2.023e-08
-1.63127e-07
7.00238e-08
-1.8696e-07
1.20154e-07
-1.88045e-07
1.69574e-07
-1.80451e-07
2.07444e-07
-1.55135e-07
2.519e-07
-1.15072e-07
2.61535e-07
-1.3197e-07
2.81899e-07
9.37532e-08
2.85818e-07
-5.00624e-08
2.49366e-07
1.27092e-07
1.9005e-07
4.46614e-07
4.76263e-08
6.64778e-07
-2.78362e-08
5.90916e-07
-3.41965e-08
2.18168e-07
-1.1651e-08
-2.01825e-07
-1.70432e-08
-3.57345e-07
-3.59607e-08
-3.64673e-07
-4.26109e-08
-2.69224e-07
-3.46038e-08
-1.19536e-07
-2.80558e-08
2.43357e-08
-3.14257e-08
1.05684e-07
1.58501e-07
3.53979e-09
-2.9829e-08
1.3928e-07
-5.37655e-08
1.10335e-07
-7.00162e-08
7.24443e-08
-8.05918e-08
4.38863e-08
-8.31215e-08
4.72484e-09
-7.52823e-08
-4.4603e-08
-5.57831e-08
-9.92192e-08
-2.38792e-08
-1.56188e-07
1.92284e-08
-2.06235e-07
6.93934e-08
-2.37125e-07
1.19837e-07
-2.38489e-07
1.70395e-07
-2.31008e-07
2.05707e-07
-1.90447e-07
2.60159e-07
-1.69524e-07
2.41332e-07
-1.13143e-07
2.8888e-07
4.62055e-08
2.72881e-07
-3.40633e-08
2.36147e-07
1.63825e-07
2.78217e-07
4.04544e-07
2.23577e-07
7.19417e-07
1.74518e-07
6.39975e-07
1.37005e-07
2.55681e-07
1.19009e-07
-1.83829e-07
6.13641e-08
-2.99701e-07
-1.70822e-08
-2.86226e-07
-5.02904e-08
-2.36016e-07
-4.79335e-08
-1.21893e-07
-3.90145e-08
1.54168e-08
-4.11396e-08
1.07809e-07
1.1775e-07
-3.8815e-10
-2.9915e-08
1.69195e-07
-5.39171e-08
1.34337e-07
-7.02164e-08
8.87436e-08
-8.09468e-08
5.46167e-08
-8.3709e-08
7.48706e-09
-7.61403e-08
-5.21717e-08
-5.69269e-08
-1.18433e-07
-2.5183e-08
-1.87931e-07
1.80875e-08
-2.49505e-07
6.86159e-08
-2.87653e-07
1.19497e-07
-2.8937e-07
1.71008e-07
-2.8252e-07
2.05889e-07
-2.25327e-07
2.66035e-07
-2.2967e-07
2.34023e-07
-8.11308e-08
2.89877e-07
-9.64801e-09
3.01979e-07
-4.61658e-08
2.5525e-07
2.10554e-07
3.41138e-07
3.18656e-07
3.62379e-07
6.98177e-07
3.74636e-07
6.27718e-07
3.23358e-07
3.06959e-07
1.81402e-07
-4.1873e-08
3.35084e-08
-1.51807e-07
-5.86143e-08
-1.94103e-07
-8.62221e-08
-2.08408e-07
-5.86057e-08
-1.49509e-07
-1.91244e-08
-2.40645e-08
-1.62937e-08
1.04979e-07
1.03274e-07
-1.81761e-09
-3.00159e-08
1.99211e-07
-5.40931e-08
1.58414e-07
-7.04457e-08
1.05096e-07
-8.13588e-08
6.55299e-08
-8.43993e-08
1.05275e-08
-7.71592e-08
-5.94117e-08
-5.83014e-08
-1.3729e-07
-2.6766e-08
-2.19467e-07
1.66628e-08
-2.92934e-07
6.76447e-08
-3.38635e-07
1.19136e-07
-3.40861e-07
1.71251e-07
-3.34635e-07
2.08932e-07
-2.63008e-07
2.70297e-07
-2.91035e-07
2.4631e-07
-5.71438e-08
2.94188e-07
-5.75265e-08
3.51629e-07
-1.03607e-07
2.61061e-07
3.01122e-07
3.34555e-07
2.45162e-07
4.50214e-07
5.82517e-07
4.67749e-07
6.10183e-07
4.35921e-07
3.38786e-07
3.19839e-07
7.42093e-08
9.78104e-08
7.02219e-08
-8.75836e-08
-8.70947e-09
-1.36757e-07
-1.59234e-07
-1.04563e-07
-1.81704e-07
-3.54445e-08
-9.31829e-08
-6.51488e-09
7.60491e-08
9.55382e-08
1.22086e-09
-3.01331e-08
2.29344e-07
-5.4297e-08
1.82578e-07
-7.07093e-08
1.21508e-07
-8.18368e-08
7.66574e-08
-8.52046e-08
1.38954e-08
-7.83534e-08
-6.62629e-08
-5.99226e-08
-1.55721e-07
-2.8644e-08
-2.50745e-07
1.49951e-08
-3.36573e-07
6.64777e-08
-3.90118e-07
1.18748e-07
-3.93131e-07
1.70848e-07
-3.86735e-07
2.16194e-07
-3.08354e-07
2.66475e-07
-3.41316e-07
2.87803e-07
-7.84714e-08
3.02773e-07
-7.24968e-08
3.815e-07
-1.82334e-07
3.0331e-07
3.79313e-07
2.76849e-07
2.71622e-07
4.18452e-07
4.40915e-07
5.02962e-07
5.25672e-07
4.50764e-07
3.90985e-07
3.35342e-07
1.89631e-07
2.05182e-07
2.00381e-07
6.13152e-08
1.35158e-07
-6.82181e-08
-2.97012e-08
-1.159e-07
-1.34022e-07
-6.50155e-08
-1.44068e-07
-1.16429e-08
2.26765e-08
8.54751e-08
-1.57977e-09
-3.02671e-08
2.59611e-07
-5.45288e-08
2.0684e-07
-7.10066e-08
1.37986e-07
-8.23805e-08
8.80313e-08
-8.61254e-08
1.76403e-08
-7.97243e-08
-7.2664e-08
-6.17951e-08
-1.7365e-07
-3.08252e-08
-2.81715e-07
1.30495e-08
-3.80448e-07
6.51153e-08
-4.42184e-07
1.18244e-07
-4.4626e-07
1.70148e-07
-4.38639e-07
2.24914e-07
-3.63119e-07
2.51695e-07
-3.68098e-07
3.23013e-07
-1.49789e-07
3.29284e-07
-7.87682e-08
3.72805e-07
-2.25855e-07
3.91909e-07
3.60208e-07
2.84655e-07
3.78876e-07
3.11838e-07
4.13732e-07
4.11348e-07
4.26162e-07
4.3406e-07
3.68272e-07
3.81537e-07
2.42155e-07
3.38353e-07
2.43565e-07
2.85709e-07
1.87802e-07
1.53907e-07
1.02101e-07
3.31226e-08
-1.32373e-08
-2.79835e-08
-8.29616e-08
-7.83344e-09
2.52649e-09
7.80256e-08
-3.83916e-10
-3.04179e-08
2.90029e-07
-5.47883e-08
2.3121e-07
-7.1336e-08
1.54534e-07
-8.29886e-08
9.96839e-08
-8.71606e-08
2.18123e-08
-8.12711e-08
-7.85535e-08
-6.39222e-08
-1.90999e-07
-3.33187e-08
-3.12319e-07
1.08342e-08
-4.24601e-07
6.35474e-08
-4.94897e-07
1.17478e-07
-5.00191e-07
1.70317e-07
-4.91478e-07
2.2849e-07
-4.21292e-07
2.46042e-07
-3.8565e-07
3.37481e-07
-2.41227e-07
3.57868e-07
-9.9155e-08
3.25806e-07
-1.93793e-07
3.85713e-07
3.00302e-07
3.40284e-07
4.24306e-07
3.12411e-07
4.41606e-07
3.74865e-07
3.63708e-07
4.29164e-07
3.13973e-07
4.37512e-07
2.33806e-07
4.12838e-07
2.68239e-07
3.58239e-07
2.42401e-07
3.00243e-07
1.60097e-07
2.01938e-07
8.50673e-08
7.61272e-08
4.28493e-08
2.38284e-08
5.48253e-08
1.00814e-07
1.04012e-09
-3.05858e-08
3.20615e-07
-5.50752e-08
2.55699e-07
-7.16954e-08
1.71154e-07
-8.36592e-08
1.11648e-07
-8.83082e-08
2.64613e-08
-8.29938e-08
-8.38678e-08
-6.63081e-08
-2.07685e-07
-3.61346e-08
-3.42492e-07
8.32938e-09
-4.69065e-07
6.17713e-08
-5.48339e-07
1.1644e-07
-5.5486e-07
1.71455e-07
-5.46494e-07
2.2644e-07
-4.76276e-07
2.61309e-07
-4.2052e-07
3.4333e-07
-3.23248e-07
3.61282e-07
-1.17106e-07
3.25833e-07
-1.58345e-07
3.82198e-07
2.43937e-07
4.20136e-07
3.86368e-07
4.26468e-07
4.35274e-07
4.16371e-07
3.73806e-07
4.18256e-07
3.12088e-07
4.30213e-07
2.21849e-07
4.14449e-07
2.84003e-07
3.20839e-07
3.36011e-07
1.98555e-07
2.82381e-07
7.71383e-08
2.06484e-07
7.65021e-10
1.19223e-07
-1.25817e-08
6.81721e-08
8.32036e-08
5.02849e-09
-3.07709e-08
3.51386e-07
-5.53891e-08
2.80318e-07
-7.20825e-08
1.87848e-07
-8.43903e-08
1.23956e-07
-8.95666e-08
3.16376e-08
-8.48907e-08
-8.85436e-08
-6.89573e-08
-2.23618e-07
-3.9285e-08
-3.72165e-07
5.5214e-09
-5.13871e-07
5.97657e-08
-6.02583e-07
1.15251e-07
-6.10345e-07
1.72341e-07
-6.03584e-07
2.23898e-07
-5.27833e-07
2.81439e-07
-4.78061e-07
3.27897e-07
-3.69707e-07
3.67376e-07
-1.56586e-07
3.7973e-07
-1.70699e-07
4.26522e-07
1.97144e-07
4.77618e-07
3.35272e-07
4.86445e-07
4.26447e-07
4.61308e-07
3.98943e-07
4.0901e-07
3.64385e-07
3.06408e-07
3.24451e-07
2.5152e-07
3.38891e-07
2.42807e-07
3.44725e-07
2.29649e-07
2.9554e-07
1.71865e-07
2.64267e-07
9.31584e-08
1.97929e-07
3.30669e-08
1.28264e-07
1.16923e-07
-6.5293e-10
-3.09734e-08
3.82359e-07
-5.57296e-08
3.05074e-07
-7.24946e-08
2.04613e-07
-8.51795e-08
1.36641e-07
-9.09337e-08
3.73918e-08
-8.69608e-08
-9.25165e-08
-7.18748e-08
-2.38704e-07
-4.27837e-08
-4.01256e-07
2.27009e-09
-5.58925e-07
5.75169e-08
-6.5783e-07
1.13964e-07
-6.66792e-07
1.72162e-07
-6.61782e-07
2.26099e-07
-5.81771e-07
2.83804e-07
-5.35766e-07
3.28215e-07
-4.14117e-07
3.70287e-07
-1.98658e-07
4.32038e-07
-2.32449e-07
5.25163e-07
1.0402e-07
5.44824e-07
3.1561e-07
5.0582e-07
4.65451e-07
3.96375e-07
5.08388e-07
2.77664e-07
4.83096e-07
2.34234e-07
3.67881e-07
2.92524e-07
2.80602e-07
2.99427e-07
3.37821e-07
2.12459e-07
3.82508e-07
1.21464e-07
3.55262e-07
6.47788e-08
2.54615e-07
2.35284e-08
1.69514e-07
1.36731e-07
3.72041e-09
-3.11936e-08
4.13553e-07
-5.60963e-08
3.29976e-07
-7.29285e-08
2.21445e-07
-8.60238e-08
1.49736e-07
-9.24069e-08
4.37749e-08
-8.92029e-08
-9.57206e-08
-7.50647e-08
-2.52843e-07
-4.66431e-08
-4.29677e-07
-1.01459e-09
-6.04553e-07
5.50272e-08
-7.13871e-07
1.12487e-07
-7.24251e-07
1.7149e-07
-7.20785e-07
2.26993e-07
-6.37274e-07
2.84867e-07
-5.9364e-07
3.05079e-07
-4.34329e-07
4.05818e-07
-2.99397e-07
5.28871e-07
-3.55503e-07
5.9033e-07
4.25612e-08
5.4081e-07
3.65131e-07
4.38238e-07
5.68022e-07
3.59391e-07
5.87235e-07
3.58933e-07
4.83554e-07
3.359e-07
3.90914e-07
2.37522e-07
3.7898e-07
8.98995e-08
4.85443e-07
-3.0825e-08
5.03232e-07
-3.83748e-08
3.62812e-07
-1.03905e-08
2.26631e-07
-2.05625e-09
1.6118e-07
1.3271e-07
1.96548e-09
-3.14317e-08
4.44985e-07
-5.64887e-08
3.55033e-07
-7.33798e-08
2.38336e-07
-8.69195e-08
1.63275e-07
-9.39835e-08
5.0839e-08
-9.16145e-08
-9.80896e-08
-7.85333e-08
-2.65924e-07
-5.08837e-08
-4.57327e-07
-4.65961e-09
-6.50777e-07
5.2275e-08
-7.70806e-07
1.10765e-07
-7.82741e-07
1.69521e-07
-7.79541e-07
2.28554e-07
-6.96308e-07
2.61187e-07
-6.26272e-07
3.22346e-07
-4.95489e-07
4.68141e-07
-4.45191e-07
5.26313e-07
-4.13674e-07
4.95881e-07
7.29928e-08
4.23088e-07
4.37923e-07
4.24365e-07
5.66745e-07
4.28585e-07
5.83015e-07
3.38351e-07
5.73789e-07
1.46701e-07
5.82564e-07
-2.44476e-08
5.50128e-07
-7.24027e-08
5.33398e-07
-3.07664e-08
4.61596e-07
3.40463e-08
2.97999e-07
6.10259e-08
1.99651e-07
4.04906e-08
1.81715e-07
1.77393e-07
-4.19295e-09
-3.16883e-08
4.76673e-07
-5.69064e-08
3.80251e-07
-7.3843e-08
2.55273e-07
-8.78638e-08
1.77296e-07
-9.566e-08
5.86352e-08
-9.41928e-08
-9.95568e-08
-8.22856e-08
-2.77831e-07
-5.55281e-08
-4.84084e-07
-8.66492e-09
-6.9764e-07
4.92274e-08
-8.28698e-07
1.08452e-07
-8.41965e-07
1.66574e-07
-8.37663e-07
2.21361e-07
-7.51094e-07
2.32867e-07
-6.37778e-07
3.50959e-07
-6.13581e-07
4.79767e-07
-5.73999e-07
3.60021e-07
-2.93928e-07
3.65953e-07
6.70611e-08
5.04911e-07
2.98965e-07
5.55278e-07
5.16378e-07
5.11669e-07
6.26623e-07
5.10943e-07
5.74515e-07
5.35292e-07
5.58215e-07
5.06108e-07
5.79313e-07
4.67899e-07
5.71607e-07
4.51324e-07
4.78171e-07
3.82634e-07
3.6669e-07
2.60092e-07
3.22193e-07
1.24136e-07
3.17671e-07
3.06075e-07
-4.54574e-09
-3.19637e-08
5.08637e-07
-5.73488e-08
4.05637e-07
-7.43113e-08
2.72235e-07
-8.88553e-08
1.9184e-07
-9.74331e-08
6.7213e-08
-9.69345e-08
-1.00055e-07
-8.6327e-08
-2.88438e-07
-6.06008e-08
-5.09811e-07
-1.29888e-08
-7.45252e-07
4.58202e-08
-8.87507e-07
1.05044e-07
-9.01189e-07
1.61655e-07
-8.94274e-07
2.01953e-07
-7.91393e-07
2.38368e-07
-6.74193e-07
3.4346e-07
-7.18673e-07
3.74482e-07
-6.05021e-07
3.5021e-07
-2.69656e-07
5.16064e-07
-9.87935e-08
6.06112e-07
2.08918e-07
6.98823e-07
4.23667e-07
7.03761e-07
6.21686e-07
5.51777e-07
7.26499e-07
4.22145e-07
6.87846e-07
3.67718e-07
6.3374e-07
3.61217e-07
5.78109e-07
3.48554e-07
4.90833e-07
2.99288e-07
4.15956e-07
2.03803e-07
4.17678e-07
9.21625e-08
4.29312e-07
3.99072e-07
-8.34544e-10
-3.22585e-08
5.40895e-07
-5.78156e-08
4.31194e-07
-7.47894e-08
2.89209e-07
-8.9893e-08
2.06944e-07
-9.92987e-08
7.66187e-08
-9.98352e-08
-9.95187e-08
-9.06621e-08
-2.97611e-07
-6.61309e-08
-5.34342e-07
-1.76356e-08
-7.93748e-07
4.19178e-08
-9.47061e-07
1.00031e-07
-9.59302e-07
1.53618e-07
-9.47861e-07
1.79277e-07
-8.17052e-07
2.60645e-07
-7.55561e-07
2.86202e-07
-7.44231e-07
3.29874e-07
-6.48692e-07
5.20389e-07
-4.60172e-07
6.03856e-07
-1.8226e-07
6.36859e-07
1.75915e-07
7.35065e-07
3.25461e-07
7.7842e-07
5.7833e-07
6.1028e-07
8.9464e-07
3.35211e-07
9.62915e-07
1.76929e-07
7.92022e-07
1.19285e-07
6.35753e-07
1.00777e-07
5.09342e-07
1.0845e-07
4.08283e-07
8.74591e-08
4.38668e-07
3.5867e-08
4.80904e-07
4.29345e-07
5.59375e-09
-3.25733e-08
5.73469e-07
-5.83062e-08
4.56926e-07
-7.52878e-08
3.0619e-07
-9.09754e-08
2.22632e-07
-1.01253e-07
8.68958e-08
-1.02889e-07
-9.78821e-08
-9.52958e-08
-3.05205e-07
-7.2154e-08
-5.57484e-07
-2.26193e-08
-8.43282e-07
3.72966e-08
-1.00698e-06
9.36131e-08
-1.01562e-06
1.43903e-07
-9.98151e-07
1.75332e-07
-8.48481e-07
2.54595e-07
-8.34824e-07
2.48944e-07
-7.3858e-07
4.11555e-07
-8.11304e-07
4.97466e-07
-5.46082e-07
6.11073e-07
-2.95867e-07
9.18834e-07
-1.31846e-07
8.80096e-07
3.64199e-07
9.59555e-07
4.98871e-07
9.14499e-07
9.39696e-07
8.07172e-07
1.07024e-06
5.40102e-07
1.05909e-06
3.04706e-07
8.71148e-07
1.45995e-07
6.68053e-07
6.82922e-08
4.85985e-07
3.73227e-08
4.69638e-07
1.39853e-08
5.04241e-07
4.3863e-07
4.69999e-09
-3.29089e-08
6.06378e-07
-5.88201e-08
4.82838e-07
-7.58071e-08
3.23178e-07
-9.21012e-08
2.38926e-07
-1.0329e-07
9.80845e-08
-1.06088e-07
-9.50836e-08
-1.00232e-07
-3.11061e-07
-7.87136e-08
-5.79002e-07
-2.79531e-08
-8.94043e-07
3.18297e-08
-1.06676e-06
8.74021e-08
-1.07119e-06
1.36057e-07
-1.04681e-06
1.89702e-07
-9.02126e-07
2.22947e-07
-8.6807e-07
3.29277e-07
-8.44909e-07
2.99492e-07
-7.81519e-07
5.2346e-07
-7.7005e-07
8.91549e-07
-6.63956e-07
4.3304e-07
3.26664e-07
-8.72346e-08
8.84473e-07
-7.47821e-08
4.86419e-07
2.45312e-07
6.19601e-07
6.42725e-07
6.72829e-07
6.49242e-07
1.05258e-06
4.77646e-07
1.04274e-06
2.93015e-07
8.52684e-07
1.42664e-07
6.36336e-07
5.97495e-08
5.52552e-07
2.06944e-08
5.43296e-07
4.61134e-07
-1.80921e-09
-3.32661e-08
6.39644e-07
-5.93567e-08
5.08928e-07
-7.63433e-08
3.40164e-07
-9.32683e-08
2.55851e-07
-1.05405e-07
1.10221e-07
-1.09424e-07
-9.10637e-08
-1.05477e-07
-3.15008e-07
-8.5859e-08
-5.9862e-07
-3.36265e-08
-9.46275e-07
2.57698e-08
-1.12616e-06
8.33482e-08
-1.12877e-06
1.315e-07
-1.09496e-06
1.92895e-07
-9.63521e-07
2.11024e-07
-8.86199e-07
2.73595e-07
-9.07481e-07
2.87829e-07
-7.95753e-07
7.87943e-07
-1.27016e-06
2.2349e-08
1.01638e-07
-6.46055e-07
9.95068e-07
-3.73916e-07
6.12334e-07
-2.57506e-07
3.70008e-07
-1.55486e-07
5.17581e-07
2.72408e-07
2.44936e-07
5.73096e-07
7.51886e-07
4.83446e-07
1.13239e-06
3.2729e-07
1.00884e-06
1.82679e-07
7.80948e-07
9.04001e-08
6.44831e-07
3.78764e-08
5.9582e-07
5.00664e-07
-1.65409e-09
-3.36458e-08
6.73289e-07
-5.99155e-08
5.35198e-07
-7.68921e-08
3.57141e-07
-9.44746e-08
2.73433e-07
-1.07591e-07
1.23338e-07
-1.12887e-07
-8.57686e-08
-1.11035e-07
-3.16859e-07
-9.36443e-08
-6.16011e-07
-3.95449e-08
-1.00037e-06
1.9755e-08
-1.18546e-06
8.1258e-08
-1.19027e-06
1.26547e-07
-1.14025e-06
1.77481e-07
-1.01446e-06
2.19074e-07
-9.27791e-07
1.71585e-07
-8.59992e-07
3.69289e-07
-9.93456e-07
4.8674e-06
-5.76828e-06
3.09291e-06
1.87613e-06
-2.8833e-07
4.3763e-06
-3.77921e-07
7.01926e-07
-4.57847e-08
3.78717e-08
1.36775e-07
3.35022e-07
1.69698e-07
2.12013e-07
2.99481e-07
6.22103e-07
3.47925e-07
1.08395e-06
2.67012e-07
1.08975e-06
1.7291e-07
8.7505e-07
9.61678e-08
7.21573e-07
4.42122e-08
6.47776e-07
5.43732e-07
1.14494e-09
-3.40491e-08
7.07339e-07
-6.04957e-08
5.61645e-07
-7.745e-08
3.74095e-07
-9.57179e-08
2.91701e-07
-1.09844e-07
1.37464e-07
-1.16468e-07
-7.91446e-08
-1.16907e-07
-3.16421e-07
-1.02117e-07
-6.30802e-07
-4.55386e-08
-1.05695e-06
1.43186e-08
-1.24531e-06
7.79754e-08
-1.25393e-06
1.16971e-07
-1.17924e-06
1.63104e-07
-1.06059e-06
1.87477e-07
-9.52164e-07
6.0504e-07
-1.27756e-06
6.35149e-07
-1.02357e-06
-3.67104e-07
-4.76602e-06
-1.04464e-06
2.55367e-06
-9.90508e-07
4.32217e-06
-4.72536e-07
1.83954e-07
-1.72629e-07
-2.62035e-07
3.68796e-08
1.25513e-07
1.58132e-08
2.33079e-07
9.16162e-08
5.463e-07
2.00615e-07
9.74952e-07
1.87766e-07
1.1026e-06
1.35059e-07
9.27757e-07
7.67836e-08
7.79849e-07
3.2173e-08
6.92386e-07
5.78311e-07
-2.40651e-09
-3.44771e-08
7.41816e-07
-6.10966e-08
5.88264e-07
-7.80126e-08
3.91011e-07
-9.69939e-08
3.10682e-07
-1.12153e-07
1.52623e-07
-1.20155e-07
-7.11425e-08
-1.23095e-07
-3.1348e-07
-1.11334e-07
-6.42563e-07
-5.15291e-08
-1.11676e-06
8.75449e-09
-1.3056e-06
6.92142e-08
-1.31439e-06
1.03567e-07
-1.21359e-06
1.45995e-07
-1.10302e-06
2.52349e-07
-1.05852e-06
1.4916e-07
-1.17437e-06
1.23591e-06
-2.11031e-06
6.74605e-07
-4.20472e-06
7.43024e-10
3.22754e-06
-5.45959e-07
4.86888e-06
-7.0451e-07
3.42506e-07
-3.70478e-07
-5.96066e-07
-1.6294e-07
-8.20255e-08
-7.70589e-08
1.47199e-07
-3.49274e-08
5.04168e-07
5.6676e-08
8.83348e-07
8.78623e-08
1.07142e-06
6.59293e-08
9.4969e-07
3.07494e-08
8.15029e-07
1.36321e-08
7.09503e-07
5.95043e-07
-3.09975e-09
-3.49312e-08
7.76747e-07
-6.17181e-08
6.15051e-07
-7.85778e-08
4.07871e-07
-9.83033e-08
3.30408e-07
-1.1452e-07
1.6884e-07
-1.23943e-07
-6.17191e-08
-1.29597e-07
-3.07827e-07
-1.21346e-07
-6.50814e-07
-5.7602e-08
-1.1805e-06
9.23085e-10
-1.36412e-06
4.97799e-08
-1.36325e-06
8.51299e-08
-1.24894e-06
1.07391e-07
-1.12528e-06
1.48139e-07
-1.09927e-06
1.09881e-06
-2.12503e-06
1.24513e-06
-2.25663e-06
1.99932e-07
-3.15951e-06
-9.03398e-08
3.51782e-06
-1.5189e-06
6.29744e-06
-2.11976e-06
9.43363e-07
-3.55703e-07
-2.36012e-06
-3.7913e-07
-5.85987e-08
-2.02137e-07
-2.97943e-08
-1.08663e-07
4.10695e-07
-4.45328e-08
8.19218e-07
7.94067e-09
1.01894e-06
1.1291e-08
9.46339e-07
1.08719e-09
8.25232e-07
9.60705e-09
7.00984e-07
6.02925e-07
1.72543e-09
-3.54096e-08
8.12156e-07
-6.23562e-08
6.41998e-07
-7.91369e-08
4.24651e-07
-9.96298e-08
3.50901e-07
-1.16902e-07
1.86112e-07
-1.27781e-07
-5.08402e-08
-1.36391e-07
-2.99218e-07
-1.32247e-07
-6.54957e-07
-6.42521e-08
-1.2485e-06
-2.22088e-08
-1.40616e-06
1.21812e-08
-1.39764e-06
1.749e-07
-1.41166e-06
9.26246e-07
-1.87662e-06
1.52238e-06
-1.6954e-06
1.3098e-06
-1.91245e-06
1.34909e-06
-2.29592e-06
8.05795e-07
-2.61621e-06
5.4614e-07
3.77747e-06
-3.87412e-08
6.88231e-06
-4.43923e-07
1.34854e-06
-5.34969e-07
-2.26907e-06
-3.95519e-07
-1.98049e-07
-2.76163e-07
-1.4915e-07
-1.90844e-07
3.25376e-07
-1.31275e-07
7.59649e-07
-7.21573e-08
9.59825e-07
-2.69988e-08
9.01181e-07
-1.15895e-08
8.09823e-07
5.56958e-09
6.83825e-07
6.02874e-07
5.62062e-09
-3.59853e-08
8.48142e-07
-6.30316e-08
6.69044e-07
-7.97141e-08
4.41334e-07
-1.0102e-07
3.72206e-07
-1.19372e-07
2.04464e-07
-1.31715e-07
-3.84975e-08
-1.43455e-07
-2.87478e-07
-1.43979e-07
-6.54433e-07
-7.3783e-08
-1.31869e-06
-5.81007e-08
-1.42185e-06
4.81543e-08
-1.50389e-06
1.51194e-06
-2.87544e-06
2.60983e-06
-2.97452e-06
2.26164e-06
-1.3472e-06
1.63876e-06
-1.28958e-06
1.13044e-06
-1.78759e-06
4.2098e-07
-1.90676e-06
1.1656e-06
3.03286e-06
1.6205e-06
6.42741e-06
8.72747e-07
2.0963e-06
-5.13565e-07
-8.82762e-07
-2.87848e-07
-4.23766e-07
-3.623e-07
-7.46975e-08
-2.91732e-07
2.54807e-07
-2.16557e-07
6.84474e-07
-1.34735e-07
8.78003e-07
-1.01132e-07
8.67577e-07
-4.63095e-08
7.55001e-07
-1.76745e-08
6.5519e-07
5.83257e-07
1.94185e-09
-3.52889e-08
8.83431e-07
-6.35282e-08
6.97283e-07
-8.00285e-08
4.57834e-07
-1.02122e-07
3.943e-07
-1.21644e-07
2.23987e-07
-1.35598e-07
-2.45438e-08
-1.50895e-07
-2.72181e-07
-1.57069e-07
-6.48259e-07
-9.84808e-08
-1.37728e-06
-1.03587e-07
-1.41674e-06
7.9459e-07
-2.40207e-06
3.34108e-06
-5.42193e-06
2.77848e-06
-2.41192e-06
2.34168e-06
-9.10402e-07
1.48445e-06
-4.32356e-07
1.05621e-06
-1.35935e-06
4.06929e-07
-1.25747e-06
1.31978e-06
2.12002e-06
2.64194e-06
5.10525e-06
1.23143e-06
3.5068e-06
-7.61515e-08
4.24822e-07
-5.17705e-07
1.77874e-08
-4.79538e-07
-1.12864e-07
-4.12562e-07
1.87832e-07
-3.53372e-07
6.25284e-07
-2.26569e-07
7.512e-07
-1.8186e-07
8.22868e-07
-1.05169e-07
6.7831e-07
-4.86462e-08
5.98667e-07
5.35936e-07
-1.32526e-09
-5.22206e-08
9.35651e-07
-6.57126e-08
7.10775e-07
-8.27114e-08
4.74833e-07
-1.05539e-07
4.17128e-07
-1.25122e-07
2.43569e-07
-1.39631e-07
-1.00348e-08
-1.58243e-07
-2.53569e-07
-1.70813e-07
-6.35689e-07
-1.61062e-07
-1.38703e-06
2.19032e-07
-1.79683e-06
7.33106e-08
-2.25635e-06
1.16699e-07
-5.46532e-06
6.81048e-07
-2.97627e-06
9.94221e-07
-1.22357e-06
1.04559e-06
-4.83724e-07
8.78357e-07
-1.19211e-06
6.08123e-07
-9.87239e-07
1.26807e-06
1.46007e-06
2.66224e-06
3.71108e-06
2.13894e-06
4.03011e-06
4.74437e-07
2.08933e-06
-1.96884e-07
6.89108e-07
-3.08899e-07
-8.49702e-10
-4.02122e-07
2.81055e-07
-3.52286e-07
5.75448e-07
-2.16498e-07
6.15413e-07
-1.49775e-07
7.56144e-07
-1.04747e-07
6.33282e-07
-4.83231e-08
5.42243e-07
4.86808e-07
8.05038e-10
7.99331e-08
8.55718e-07
-6.27704e-08
8.53479e-07
-7.14781e-08
4.8354e-07
-9.8781e-08
4.44431e-07
-1.23886e-07
2.68674e-07
-1.44141e-07
1.02211e-08
-1.66054e-07
-2.31656e-07
-1.9252e-07
-6.09223e-07
-2.03272e-07
-1.37628e-06
-9.25534e-08
-1.90755e-06
1.86819e-06
-4.21709e-06
1.46702e-06
-5.06415e-06
7.76355e-07
-2.2856e-06
6.89115e-07
-1.13633e-06
8.70986e-07
-6.65596e-07
7.9466e-07
-1.11579e-06
8.39239e-07
-1.03182e-06
1.02556e-06
1.27375e-06
2.24612e-06
2.49051e-06
1.79903e-06
4.4772e-06
3.34846e-07
3.55351e-06
-3.24373e-07
1.34833e-06
-2.61315e-07
-6.39075e-08
-3.73519e-07
3.93259e-07
-2.7861e-07
4.80539e-07
-2.11258e-07
5.4806e-07
-1.1513e-07
6.60017e-07
-7.76546e-08
5.95807e-07
-3.47685e-08
4.99357e-07
2.90345e-09
4.49136e-07
-1.11346e-07
1.13606e-07
-1.54267e-07
4.29211e-08
-1.88625e-07
3.43576e-08
-1.82957e-07
-5.66816e-09
-7.39051e-08
-1.09052e-07
1.13879e-07
-1.87784e-07
2.78463e-07
-1.64584e-07
3.69651e-07
-9.11877e-08
3.3272e-07
3.69307e-08
1.27358e-07
2.05362e-07
-2.65406e-08
1.53899e-07
-1.55597e-07
1.29056e-07
-1.98068e-07
4.24711e-08
-1.87024e-07
-1.1044e-08
-2.41414e-07
5.43903e-08
-2.03142e-07
-3.82729e-08
-1.90251e-07
-1.28907e-08
-1.56965e-07
-3.32857e-08
-1.21646e-07
-3.53194e-08
-8.31999e-08
-3.84459e-08
-4.44206e-08
-3.87792e-08
-9.75979e-09
-3.46608e-08
1.8011e-08
-2.77708e-08
3.72376e-08
-1.92267e-08
4.80173e-08
-1.07796e-08
5.0821e-08
-2.80375e-09
4.69389e-08
3.88214e-09
3.77835e-08
9.15538e-09
2.16079e-08
1.61756e-08
2.16079e-08
-8.15597e-08
1.91992e-07
-1.1951e-07
8.08714e-08
-1.19848e-07
3.4696e-08
-6.14494e-08
-6.40672e-08
4.12017e-08
-2.11703e-07
1.80618e-07
-3.272e-07
3.25957e-07
-3.09924e-07
3.74453e-07
-1.39684e-07
2.77391e-07
1.33992e-07
8.91092e-08
3.93644e-07
-1.1141e-07
3.54418e-07
-2.47907e-07
2.65553e-07
-2.69588e-07
6.41529e-08
-2.47312e-07
-3.33199e-08
-2.93003e-07
1.00081e-07
-2.445e-07
-8.6776e-08
-2.18561e-07
-3.88297e-08
-1.75993e-07
-7.58529e-08
-1.28166e-07
-8.31468e-08
-7.86181e-08
-8.79939e-08
-2.95302e-08
-8.78671e-08
1.31635e-08
-7.73546e-08
4.55453e-08
-6.01525e-08
6.61897e-08
-3.98711e-08
7.55498e-08
-2.01397e-08
7.47503e-08
-2.0042e-09
6.58813e-08
1.27511e-08
5.10712e-08
2.39655e-08
2.85261e-08
3.87207e-08
5.0134e-08
7.82735e-10
1.95385e-07
-2.11262e-08
1.0278e-07
-2.06884e-08
3.42582e-08
2.13432e-08
-1.06099e-07
8.21645e-08
-2.72524e-07
1.36682e-07
-3.81718e-07
1.9449e-07
-3.67731e-07
2.3687e-07
-1.82064e-07
1.60332e-07
2.1053e-07
4.07103e-08
5.13266e-07
-1.28814e-07
5.23943e-07
-2.5115e-07
3.87888e-07
-2.77353e-07
9.03559e-08
-2.65543e-07
-4.51297e-08
-2.77924e-07
1.12462e-07
-2.44024e-07
-1.20677e-07
-2.10441e-07
-7.24126e-08
-1.69693e-07
-1.16601e-07
-1.21209e-07
-1.3163e-07
-7.13999e-08
-1.37803e-07
-2.19038e-08
-1.37363e-07
2.08754e-08
-1.20134e-07
5.29434e-08
-9.22205e-08
7.28661e-08
-5.97937e-08
8.12008e-08
-2.84744e-08
7.91926e-08
4.01604e-12
6.9089e-08
2.28548e-08
5.31541e-08
3.99004e-08
2.9554e-08
6.23209e-08
7.9688e-08
3.79347e-08
1.6099e-07
3.09185e-08
1.09797e-07
3.73281e-08
2.78487e-08
4.77719e-08
-1.16543e-07
4.1143e-08
-2.65895e-07
1.9027e-08
-3.59602e-07
1.26074e-08
-3.61312e-07
3.46248e-08
-2.04081e-07
2.7642e-08
2.17513e-07
-4.82599e-08
5.89167e-07
-1.90892e-07
6.66575e-07
-2.49084e-07
4.46079e-07
-2.85944e-07
1.27216e-07
-2.82265e-07
-4.88088e-08
-2.61136e-07
9.13328e-08
-2.52427e-07
-1.29385e-07
-2.07322e-07
-1.17518e-07
-1.69694e-07
-1.54229e-07
-1.20073e-07
-1.81251e-07
-6.99858e-08
-1.87891e-07
-2.01105e-08
-1.87239e-07
2.28346e-08
-1.63079e-07
5.48044e-08
-1.2419e-07
7.44499e-08
-7.94391e-08
8.24417e-08
-3.64662e-08
8.00815e-08
2.36425e-09
6.96749e-08
3.32615e-08
5.35291e-08
5.60462e-08
2.97398e-08
8.61102e-08
1.09428e-07
4.10191e-08
1.19583e-07
4.09125e-08
1.09903e-07
5.30363e-08
1.57248e-08
5.71331e-08
-1.20639e-07
2.42287e-08
-2.32991e-07
-5.68206e-08
-2.78552e-07
-1.17454e-07
-3.00678e-07
-1.37356e-07
-1.8418e-07
-1.75397e-07
2.55554e-07
-2.23224e-07
6.36994e-07
-2.78829e-07
7.2218e-07
-2.36272e-07
4.03523e-07
-2.72097e-07
1.63041e-07
-2.89183e-07
-3.17225e-08
-2.40846e-07
4.29955e-08
-2.60682e-07
-1.09549e-07
-2.05602e-07
-1.72598e-07
-1.70511e-07
-1.89319e-07
-1.19752e-07
-2.3201e-07
-6.93535e-08
-2.38289e-07
-1.91236e-08
-2.37468e-07
2.39791e-08
-2.06181e-07
5.58488e-08
-1.5606e-07
7.52676e-08
-9.88578e-08
8.30241e-08
-4.42227e-08
8.04511e-08
4.93719e-09
6.98932e-08
4.38194e-08
5.36847e-08
7.22547e-08
2.9825e-08
1.0997e-07
1.39253e-07
1.47716e-08
1.02994e-07
2.05483e-08
1.04127e-07
6.2891e-08
-2.66179e-08
9.15766e-08
-1.49325e-07
6.35459e-08
-2.0496e-07
-2.8111e-08
-1.86896e-07
-1.79185e-07
-1.49603e-07
-3.22735e-07
-4.06297e-08
-3.74607e-07
3.07426e-07
-3.62221e-07
6.24607e-07
-3.41732e-07
7.01692e-07
-2.5545e-07
3.1724e-07
-3.02772e-07
2.10363e-07
-2.90178e-07
-4.43162e-08
-2.34002e-07
-1.31805e-08
-2.66573e-07
-7.69788e-08
-2.05833e-07
-2.33338e-07
-1.71118e-07
-2.24034e-07
-1.19404e-07
-2.83724e-07
-6.85716e-08
-2.89122e-07
-1.79634e-08
-2.88077e-07
2.52852e-08
-2.4943e-07
5.69951e-08
-1.8777e-07
7.6126e-08
-1.17989e-07
8.36096e-08
-5.17063e-08
8.08041e-08
7.74274e-09
7.0092e-08
5.45315e-08
5.38359e-08
8.85108e-08
2.9912e-08
1.33894e-07
1.69165e-07
8.21201e-09
9.60029e-08
3.67905e-08
7.55481e-08
1.05852e-07
-9.56795e-08
1.39177e-07
-1.8265e-07
9.25918e-08
-1.58375e-07
-8.97433e-08
-4.56036e-09
-3.16085e-07
7.67379e-08
-4.34628e-07
7.79139e-08
-4.65911e-07
3.38709e-07
-4.48781e-07
6.07476e-07
-3.35429e-07
5.8834e-07
-2.63043e-07
2.44855e-07
-3.51573e-07
2.98893e-07
-2.94803e-07
-1.01087e-07
-2.46852e-07
-6.11311e-08
-2.70881e-07
-5.29497e-08
-2.0894e-07
-2.9528e-07
-1.71354e-07
-2.6162e-07
-1.19033e-07
-3.36045e-07
-6.76018e-08
-3.40553e-07
-1.65587e-08
-3.3912e-07
2.68716e-08
-2.9286e-07
5.83725e-08
-2.19271e-07
7.71452e-08
-1.36761e-07
8.42977e-08
-5.88588e-08
8.12138e-08
1.08266e-08
7.03196e-08
6.54257e-08
5.40116e-08
1.04819e-07
3.00139e-08
1.57892e-07
1.99179e-07
9.32057e-09
8.51025e-08
6.43844e-08
2.04842e-08
1.14733e-07
-1.46028e-07
6.52136e-08
-1.3313e-07
-6.43788e-08
-2.8783e-08
-2.07912e-07
1.38973e-07
-3.35072e-07
2.03898e-07
-4.47666e-07
1.90507e-07
-4.99762e-07
3.90805e-07
-4.17119e-07
5.24833e-07
-2.76806e-07
4.48027e-07
-3.04729e-07
2.72778e-07
-3.81394e-07
3.75558e-07
-3.03438e-07
-1.79043e-07
-2.88732e-07
-7.58362e-08
-2.67039e-07
-7.46436e-08
-2.1625e-07
-3.46069e-07
-1.70947e-07
-3.06922e-07
-1.18632e-07
-3.8836e-07
-6.64369e-08
-3.92748e-07
-1.48688e-08
-3.90688e-07
2.87535e-08
-3.36483e-07
5.99972e-08
-2.50515e-07
7.83398e-08
-1.55104e-07
8.51003e-08
-6.56192e-08
8.16889e-08
1.4238e-08
7.05813e-08
7.65332e-08
5.42149e-08
1.21185e-07
3.01325e-08
1.81974e-07
2.29311e-07
1.00169e-08
7.47017e-08
3.34871e-08
-2.98592e-09
-2.69105e-08
-8.56304e-08
-1.50108e-07
-9.93259e-09
-2.81412e-07
1.02521e-07
-3.33789e-07
1.9135e-07
-3.81001e-07
2.5111e-07
-4.31221e-07
2.40727e-07
-4.07004e-07
3.66588e-07
-3.10236e-07
4.28065e-07
-2.83508e-07
4.213e-07
-3.92014e-07
3.81283e-07
-3.7176e-07
3.55304e-07
-3.30064e-07
-2.2074e-07
-3.23716e-07
-8.21843e-08
-2.52127e-07
-1.46232e-07
-2.24945e-07
-3.73252e-07
-1.70262e-07
-3.61605e-07
-1.18112e-07
-4.4051e-07
-6.50648e-08
-4.45795e-07
-1.2935e-08
-4.42818e-07
3.09395e-08
-3.80357e-07
6.18738e-08
-2.81449e-07
7.97112e-08
-1.72941e-07
8.60178e-08
-7.19258e-08
8.22292e-08
1.80266e-08
7.08764e-08
8.7886e-08
5.44462e-08
1.37615e-07
3.0268e-08
2.06152e-07
2.59579e-07
-2.40142e-08
9.9756e-08
-7.95894e-08
5.25892e-08
-2.04963e-07
3.97436e-08
-3.01189e-07
8.62929e-08
-3.59805e-07
1.61138e-07
-4.11545e-07
2.43089e-07
-4.34662e-07
2.74227e-07
-4.26901e-07
2.32967e-07
-3.72727e-07
3.12414e-07
-3.10363e-07
3.65701e-07
-3.38436e-07
4.49373e-07
-3.85654e-07
4.28502e-07