/*--------------------------------*- C++ -*----------------------------------*\
| =========                 |                                                 |
| \\      /  F ield         | OpenFOAM: The Open Source CFD Toolbox           |
|  \\    /   O peration     | Version:  2.4.0                                 |
|   \\  /    A nd           | Web:      www.OpenFOAM.org                      |
|    \\/     M anipulation  |                                                 |
\*---------------------------------------------------------------------------*/
FoamFile
{
    version     2.0;
    format      ascii;
    class       volVectorField;
    location    "0.077";
    object      U;
}
// * * * * * * * * * * * * * * * * * * * * * * * * * * * * * * * * * * * * * //

dimensions      [0 1 -1 0 0 0 0];

internalField   nonuniform List<vector> 
3600
(
(-0.00327769 0.000178734 0)
(-0.00911024 0.000128869 0)
(-0.0129268 6.44379e-05 0)
(-0.0148859 8.80898e-06 0)
(-0.015219 -7.39285e-05 0)
(-0.013308 -0.000183539 0)
(-0.00893647 -0.000316453 0)
(-0.00196834 -0.000470106 0)
(0.00738838 -0.000615803 0)
(0.0185377 -0.000728235 0)
(0.0306115 -0.000776761 0)
(0.040636 -0.000724378 0)
(0.0551073 -0.000815716 0)
(0.0545853 -9.10794e-05 0)
(0.0715132 -0.00105794 0)
(0.0669632 0.00255963 0)
(0.050207 -0.000460185 0)
(0.0659934 0.00531272 0)
(0.027472 0.00593895 0)
(-0.00641502 0.00228154 0)
(-0.0743665 0.0102857 0)
(-0.131361 -0.00391018 0)
(-0.0895094 -0.0145417 0)
(-0.0665328 -0.016718 0)
(-0.00569358 -0.0226816 0)
(0.0408674 -0.0146603 0)
(0.0611469 0.00528801 0)
(0.0539154 0.0134026 0)
(0.0423537 0.00938719 0)
(0.0277944 0.020715 0)
(-0.00428911 0.000684656 0)
(-0.0121119 0.000587949 0)
(-0.0177349 0.000387033 0)
(-0.0213212 0.000205296 0)
(-0.0230068 -9.1017e-05 0)
(-0.0219108 -0.000529612 0)
(-0.0176012 -0.00109868 0)
(-0.00974141 -0.00179389 0)
(0.00147385 -0.00252186 0)
(0.0153749 -0.00314818 0)
(0.0308083 -0.00349828 0)
(0.0441537 -0.00361226 0)
(0.0629234 -0.00376439 0)
(0.0634651 -0.00181577 0)
(0.0875267 -0.00559757 0)
(0.0814263 0.00735427 0)
(0.0721263 -0.00203367 0)
(0.0873335 0.00459543 0)
(0.0658247 0.0251246 0)
(0.00930182 0.0380884 0)
(-0.0641565 0.0492295 0)
(-0.111453 0.0156367 0)
(-0.107945 -0.0229151 0)
(-0.0779832 -0.0561433 0)
(-0.0337474 -0.0694407 0)
(0.00244506 -0.0459918 0)
(0.0284889 -0.0113251 0)
(0.0436453 0.00562468 0)
(0.031535 0.0174391 0)
(0.0199362 0.0566125 0)
(-0.00443451 0.00126113 0)
(-0.0125629 0.00109233 0)
(-0.0185079 0.000764063 0)
(-0.0224525 0.000470083 0)
(-0.0245141 -3.40296e-05 0)
(-0.023762 -0.000801551 0)
(-0.0197232 -0.00181197 0)
(-0.0120208 -0.00306022 0)
(-0.000834215 -0.00439371 0)
(0.0131461 -0.00554393 0)
(0.0286848 -0.00617471 0)
(0.0421317 -0.00646645 0)
(0.0610903 -0.00653817 0)
(0.060671 -0.00385866 0)
(0.0896471 -0.00918956 0)
(0.0712555 0.0106388 0)
(0.0919001 -0.0048252 0)
(0.0744199 0.00956263 0)
(0.0767632 0.0402971 0)
(0.0116921 0.0637121 0)
(-0.036743 0.0694657 0)
(-0.0678566 0.0255643 0)
(-0.0701376 -0.0346704 0)
(-0.0392447 -0.0797126 0)
(-0.0401982 -0.0886017 0)
(-0.0135224 -0.0661406 0)
(-0.00142998 -0.0263554 0)
(0.0142367 0.014763 0)
(0.000834752 0.0396141 0)
(0.00450123 0.0850835 0)
(-0.00445994 0.00184008 0)
(-0.0126441 0.00160633 0)
(-0.0186457 0.00115029 0)
(-0.0226652 0.000744654 0)
(-0.0248278 2.90941e-05 0)
(-0.0241823 -0.00106966 0)
(-0.0202409 -0.00252977 0)
(-0.0126025 -0.00434501 0)
(-0.00141306 -0.0063002 0)
(0.0126533 -0.00799025 0)
(0.0283039 -0.00890848 0)
(0.0418504 -0.00942608 0)
(0.0613033 -0.00919144 0)
(0.0588201 -0.00665665 0)
(0.096113 -0.011059 0)
(0.0562675 0.0105028 0)
(0.115127 -0.00535758 0)
(0.0585533 0.011388 0)
(0.0906765 0.0544797 0)
(0.0355607 0.0759217 0)
(-0.00926848 0.0818374 0)
(-0.011299 0.0425766 0)
(-0.0075243 -0.0354186 0)
(0.00261894 -0.0767825 0)
(-0.0129869 -0.0891108 0)
(-0.00988438 -0.0721484 0)
(-0.0174168 -0.0348815 0)
(-0.00480642 0.00645393 0)
(-0.0111585 0.036004 0)
(-0.00625307 0.0724114 0)
(-0.00447138 0.00242009 0)
(-0.0126805 0.00212238 0)
(-0.018699 0.00153873 0)
(-0.0227461 0.00102365 0)
(-0.024965 0.000101097 0)
(-0.0243869 -0.00132858 0)
(-0.0205171 -0.00323846 0)
(-0.0129364 -0.00562557 0)
(-0.00175093 -0.00821212 0)
(0.012395 -0.0104516 0)
(0.0281515 -0.0116522 0)
(0.0418374 -0.0124517 0)
(0.0617223 -0.0116208 0)
(0.0575389 -0.0103895 0)
(0.102058 -0.010316 0)
(0.0395126 0.00687695 0)
(0.134987 -0.00403161 0)
(0.0313851 0.0158934 0)
(0.109235 0.058362 0)
(0.0695776 0.105087 0)
(0.055888 0.10143 0)
(0.0393859 0.0293707 0)
(0.0461139 -0.0408338 0)
(0.0359476 -0.0655322 0)
(-0.000826068 -0.0746752 0)
(-0.0100776 -0.0631478 0)
(-0.0207663 -0.0320731 0)
(-0.00802596 0.00963634 0)
(-0.0149565 0.0374732 0)
(-0.00887366 0.051284 0)
(-0.00448298 0.00300139 0)
(-0.0127173 0.00263964 0)
(-0.018749 0.00192819 0)
(-0.0228204 0.0013063 0)
(-0.0250989 0.000178882 0)
(-0.0245957 -0.00158015 0)
(-0.0208118 -0.00393923 0)
(-0.0133089 -0.00690241 0)
(-0.00214258 -0.0101327 0)
(0.0120879 -0.0129334 0)
(0.0279557 -0.0144196 0)
(0.041864 -0.0155482 0)
(0.0619678 -0.0139491 0)
(0.0574919 -0.0147756 0)
(0.105522 -0.00802077 0)
(0.0322271 0.00176597 0)
(0.142563 -0.0030732 0)
(0.039973 0.0215892 0)
(0.112777 0.0455527 0)
(0.10185 0.0991869 0)
(0.103594 0.0975068 0)
(0.109184 0.0631785 0)
(0.0917456 -0.0222267 0)
(0.0315482 -0.0544985 0)
(-0.0120068 -0.0591337 0)
(-0.0252579 -0.0612109 0)
(-0.027505 -0.0390221 0)
(-0.00671042 -0.000133594 0)
(-0.00535449 0.037595 0)
(-0.00393647 0.0408693 0)
(-0.00449656 0.0035845 0)
(-0.0127602 0.00315835 0)
(-0.0188066 0.00231879 0)
(-0.0229058 0.00159334 0)
(-0.0252551 0.000264117 0)
(-0.024842 -0.00182188 0)
(-0.0211633 -0.00462811 0)
(-0.0137587 -0.00817167 0)
(-0.00261942 -0.0120605 0)
(0.0117132 -0.0154348 0)
(0.0277067 -0.0172159 0)
(0.0419453 -0.0186948 0)
(0.0619377 -0.0163266 0)
(0.0593207 -0.0196192 0)
(0.106328 -0.00533047 0)
(0.0382991 -0.00379043 0)
(0.139894 -0.00552645 0)
(0.0704095 0.0271505 0)
(0.0850957 0.0317229 0)
(0.12165 0.0936309 0)
(0.137177 0.102779 0)
(0.132647 0.0462263 0)
(0.134713 0.00750703 0)
(0.0734643 -0.00660076 0)
(-0.0133657 -0.0260271 0)
(-0.0420691 -0.042274 0)
(-0.040655 -0.0462399 0)
(-0.0201894 -0.0158966 0)
(-0.00332851 0.0324999 0)
(-0.00020577 0.0371724 0)
(-0.00451233 0.00416973 0)
(-0.0128102 0.00367879 0)
(-0.0188732 0.00271074 0)
(-0.0230044 0.00188565 0)
(-0.0254368 0.000358254 0)
(-0.0251299 -0.00205206 0)
(-0.0215762 -0.00530296 0)
(-0.0142906 -0.00943171 0)
(-0.00318555 -0.013997 0)
(0.0112678 -0.0179601 0)
(0.0274024 -0.0200507 0)
(0.0420791 -0.021857 0)
(0.0614518 -0.0190463 0)
(0.0639949 -0.0241125 0)
(0.0997464 -0.00439619 0)
(0.0677927 -0.00701729 0)
(0.117645 -0.0155131 0)
(0.108416 0.0412281 0)
(0.0701084 0.0273982 0)
(0.101009 0.0702456 0)
(0.14051 0.0881474 0)
(0.150566 0.0702319 0)
(0.128339 0.0225368 0)
(0.0847243 0.0336028 0)
(0.0407245 0.0209141 0)
(-0.00498874 -0.0424765 0)
(-0.0328656 -0.0607763 0)
(-0.0331689 -0.0431233 0)
(-0.00665243 0.023084 0)
(-0.00151534 0.0387581 0)
(-0.00453034 0.00475741 0)
(-0.0128673 0.00420124 0)
(-0.0189486 0.00310419 0)
(-0.0231161 0.00218406 0)
(-0.0256441 0.000462741 0)
(-0.0254596 -0.00226925 0)
(-0.0220513 -0.00596108 0)
(-0.0149066 -0.0106805 0)
(-0.00384325 -0.0159425 0)
(0.0107497 -0.0205126 0)
(0.0270458 -0.02293 0)
(0.0422103 -0.0249953 0)
(0.0607097 -0.0224615 0)
(0.0698438 -0.0266432 0)
(0.0856225 -0.00856827 0)
(0.101051 -0.00590584 0)
(0.101375 -0.0237295 0)
(0.119218 0.0410202 0)
(0.109874 0.0423976 0)
(0.069226 0.0554446 0)
(0.110237 0.0716467 0)
(0.129008 0.0647818 0)
(0.134743 0.0452825 0)
(0.105358 0.0486645 0)
(0.0928345 0.0373745 0)
(0.0738424 0.0248689 0)
(0.026824 -0.0119739 0)
(-0.00468641 -0.043668 0)
(-0.010398 -0.00511415 0)
(0.0036262 0.0303913 0)
(-0.0045506 0.00534786 0)
(-0.0129315 0.00472591 0)
(-0.0190327 0.00349926 0)
(-0.0232405 0.00248945 0)
(-0.0258768 0.000579073 0)
(-0.0258306 -0.0024699 0)
(-0.0225885 -0.00659953 0)
(-0.0156083 -0.0119157 0)
(-0.00459538 -0.0178991 0)
(0.0101565 -0.0230951 0)
(0.0266434 -0.0258558 0)
(0.0422353 -0.0281486 0)
(0.0604792 -0.0263881 0)
(0.0724707 -0.0278142 0)
(0.0795352 -0.0159962 0)
(0.115391 -0.00823046 0)
(0.10333 -0.0218462 0)
(0.0940361 0.0421866 0)
(0.128766 0.0543659 0)
(0.0832314 0.0566726 0)
(0.100316 0.0588084 0)
(0.116913 0.0564153 0)
(0.142176 0.0453143 0)
(0.128852 0.0564704 0)
(0.118277 0.0556372 0)
(0.100951 0.0329838 0)
(0.0812271 0.00537452 0)
(0.0449872 -0.00611033 0)
(0.00392429 0.00789417 0)
(0.00798652 0.0345295 0)
(-0.00457312 0.00594141 0)
(-0.0130029 0.00525303 0)
(-0.0191254 0.00389604 0)
(-0.0233771 0.00280266 0)
(-0.0261342 0.000708713 0)
(-0.0262427 -0.0026525 0)
(-0.0231882 -0.0072155 0)
(-0.0163979 -0.013135 0)
(-0.00544493 -0.0198701 0)
(0.00948511 -0.0257105 0)
(0.0261944 -0.0288229 0)
(0.04214 -0.0314117 0)
(0.0608793 -0.0302382 0)
(0.0714576 -0.0294919 0)
(0.0886132 -0.0246426 0)
(0.11127 -0.00943894 0)
(0.1075 -0.0156912 0)
(0.0945305 0.0285909 0)
(0.125185 0.053056 0)
(0.132191 0.0647457 0)
(0.121726 0.0503467 0)
(0.122633 0.0512711 0)
(0.128288 0.040742 0)
(0.131712 0.0526601 0)
(0.121609 0.0609008 0)
(0.0797148 0.054742 0)
(0.0397502 0.0455396 0)
(0.00928755 0.0302147 0)
(-0.00825174 0.0248135 0)
(0.00126577 0.0370781 0)
(-0.00459795 0.0065384 0)
(-0.0130815 0.00578283 0)
(-0.0192264 0.00429456 0)
(-0.0235254 0.00312456 0)
(-0.0264158 0.000853094 0)
(-0.0266952 -0.00281665 0)
(-0.0238503 -0.00780605 0)
(-0.0172778 -0.014336 0)
(-0.00639521 -0.0218561 0)
(0.00873385 -0.0283638 0)
(0.0256912 -0.0318308 0)
(0.041997 -0.0348193 0)
(0.0612254 -0.0337124 0)
(0.0702117 -0.0333936 0)
(0.100716 -0.0288916 0)
(0.0925741 -0.0123909 0)
(0.125519 -0.0156188 0)
(0.109953 0.0271464 0)
(0.13548 0.0431255 0)
(0.155939 0.0584437 0)
(0.13402 0.0645991 0)
(0.138901 0.056378 0)
(0.109729 0.0450993 0)
(0.0756263 0.0654801 0)
(0.0752631 0.0876572 0)
(0.0751084 0.0808977 0)
(0.0633782 0.0668726 0)
(0.042564 0.0480726 0)
(0.015526 0.0286476 0)
(0.00359583 0.0335295 0)
(-0.00462509 0.00713916 0)
(-0.0131675 0.00631551 0)
(-0.0193353 0.00469481 0)
(-0.0236848 0.00345604 0)
(-0.0267212 0.00101375 0)
(-0.0271876 -0.00295784 0)
(-0.024575 -0.00836863 0)
(-0.0182508 -0.015515 0)
(-0.0074501 -0.0238536 0)
(0.00790015 -0.0310619 0)
(0.0251297 -0.0348879 0)
(0.0418467 -0.0383127 0)
(0.0609968 -0.0372397 0)
(0.0722115 -0.0377745 0)
(0.0997343 -0.0326801 0)
(0.0953605 -0.0161222 0)
(0.121945 -0.0177863 0)
(0.142809 0.0166231 0)
(0.161826 0.0409747 0)
(0.167722 0.0589368 0)
(0.137062 0.0603084 0)
(0.09938 0.0701683 0)
(0.0710065 0.0819517 0)
(0.0698216 0.0830265 0)
(0.101888 0.0788709 0)
(0.082742 0.0788978 0)
(0.046616 0.0893158 0)
(0.0291007 0.0760567 0)
(0.0103193 0.0564514 0)
(0.00326893 0.0520879 0)
(-0.00465459 0.00774403 0)
(-0.0132609 0.00685126 0)
(-0.019452 0.00509673 0)
(-0.0238545 0.00379796 0)
(-0.0270496 0.00119217 0)
(-0.0277192 -0.0030747 0)
(-0.0253623 -0.00889861 0)
(-0.0193189 -0.0166691 0)
(-0.00861465 -0.0258703 0)
(0.00698055 -0.0338041 0)
(0.0245148 -0.0380001 0)
(0.0416274 -0.0418663 0)
(0.0606548 -0.0408944 0)
(0.0734847 -0.0424334 0)
(0.0990279 -0.0350799 0)
(0.0864688 -0.0203484 0)
(0.147849 -0.0316629 0)
(0.174331 0.00628986 0)
(0.17194 0.0361922 0)
(0.150169 0.0703548 0)
(0.117322 0.0953439 0)
(0.0991982 0.0914442 0)
(0.1169 0.0475543 0)
(0.0883288 0.0243102 0)
(0.0567617 0.0721034 0)
(-0.00154274 0.111762 0)
(-0.0172168 0.106656 0)
(-0.00449296 0.0816476 0)
(-0.00157911 0.0616032 0)
(0.000149072 0.0529919 0)
(-0.00468648 0.00835336 0)
(-0.0133618 0.00739025 0)
(-0.019576 0.00550015 0)
(-0.0240339 0.00415122 0)
(-0.0274003 0.00138984 0)
(-0.028289 -0.00316577 0)
(-0.0262121 -0.00939051 0)
(-0.0204864 -0.0177945 0)
(-0.00989262 -0.0279132 0)
(0.00597316 -0.0365885 0)
(0.0238449 -0.0411665 0)
(0.0413209 -0.0454479 0)
(0.0596915 -0.0447819 0)
(0.0759494 -0.0460495 0)
(0.0832223 -0.0369659 0)
(0.11216 -0.0340644 0)
(0.159138 -0.0442339 0)
(0.159739 0.00127281 0)
(0.13591 0.0566311 0)
(0.114057 0.089625 0)
(0.134958 0.0852211 0)
(0.124154 0.0802028 0)
(0.0879708 0.113194 0)
(0.00805717 0.147456 0)
(-0.021938 0.156669 0)
(-0.0230175 0.13861 0)
(0.00320027 0.0934517 0)
(0.0210801 0.0621584 0)
(0.0185802 0.0553036 0)
(0.00526635 0.0553098 0)
(-0.0047208 0.0089675 0)
(-0.0134703 0.00793265 0)
(-0.0197071 0.00590482 0)
(-0.0242221 0.00451676 0)
(-0.0277725 0.00160832 0)
(-0.028896 -0.00322847 0)
(-0.027124 -0.00984227 0)
(-0.021757 -0.0188867 0)
(-0.0112889 -0.0299834 0)
(0.00487663 -0.0394186 0)
(0.023115 -0.0443831 0)
(0.0407282 -0.0490138 0)
(0.0585295 -0.0488617 0)
(0.0736625 -0.0469815 0)
(0.0692941 -0.0449089 0)
(0.140048 -0.050099 0)
(0.141423 -0.0362526 0)
(0.08101 0.017676 0)
(0.130435 0.0557779 0)
(0.16504 0.0731233 0)
(0.164192 0.101579 0)
(0.140187 0.109907 0)
(0.166513 0.0943207 0)
(0.165145 0.0754659 0)
(0.140207 0.100499 0)
(0.138334 0.110102 0)
(0.131136 0.0872188 0)
(0.10344 0.0726266 0)
(0.060374 0.0791383 0)
(0.015839 0.0884467 0)
(-0.00475761 0.00958682 0)
(-0.0135865 0.00847859 0)
(-0.0198447 0.00631036 0)
(-0.0244182 0.00489563 0)
(-0.0281655 0.00184907 0)
(-0.0295392 -0.00326094 0)
(-0.0280977 -0.0102503 0)
(-0.0231351 -0.0199409 0)
(-0.0128084 -0.0320841 0)
(0.00368967 -0.0422955 0)
(0.0222998 -0.047634 0)
(0.0395925 -0.0525287 0)
(0.0569525 -0.0521714 0)
(0.0643784 -0.0481055 0)
(0.0807794 -0.0575238 0)
(0.125835 -0.0536929 0)
(0.0943583 -0.0236825 0)
(0.118083 -0.00125633 0)
(0.180821 0.0230008 0)
(0.175423 0.0686514 0)
(0.231411 0.0876025 0)
(0.203045 0.0926641 0)
(0.138359 0.122224 0)
(0.112506 0.151419 0)
(0.109196 0.149802 0)
(0.113507 0.130267 0)
(0.0940429 0.11649 0)
(0.0822516 0.121153 0)
(0.0472364 0.132258 0)
(0.0109195 0.138389 0)
(-0.00479696 0.0102117 0)
(-0.0137107 0.00902819 0)
(-0.0199886 0.00671633 0)
(-0.0246213 0.00528886 0)
(-0.0285784 0.00211351 0)
(-0.0302171 -0.0032612 0)
(-0.0291324 -0.0106089 0)
(-0.0246253 -0.0209511 0)
(-0.0144578 -0.0342202 0)
(0.0024037 -0.0452159 0)
(0.0213334 -0.0508653 0)
(0.037733 -0.0558879 0)
(0.0544088 -0.0540915 0)
(0.0537055 -0.0527828 0)
(0.103445 -0.0619895 0)
(0.0728192 -0.0547225 0)
(0.120725 -0.0328933 0)
(0.190323 -0.0220799 0)
(0.164541 0.0273648 0)
(0.205603 0.0560739 0)
(0.225928 0.105611 0)
(0.239847 0.152775 0)
(0.149646 0.152972 0)
(0.0627421 0.134572 0)
(0.0384753 0.133716 0)
(0.0355153 0.127752 0)
(0.0257289 0.121159 0)
(0.0365581 0.144754 0)
(0.0195146 0.16814 0)
(0.00346156 0.167985 0)
(-0.00483892 0.0108425 0)
(-0.013843 0.00958154 0)
(-0.0201382 0.00712254 0)
(-0.0248302 0.00569727 0)
(-0.0290104 0.00240295 0)
(-0.0309283 -0.0032274 0)
(-0.0302272 -0.0109128 0)
(-0.0262333 -0.0219085 0)
(-0.0162448 -0.0364003 0)
(0.0010057 -0.0481646 0)
(0.0201135 -0.0540013 0)
(0.0353913 -0.0589975 0)
(0.0511934 -0.0556373 0)
(0.0541257 -0.0599215 0)
(0.100542 -0.0591353 0)
(0.0505837 -0.0688338 0)
(0.194545 -0.0568607 0)
(0.101145 -0.0192877 0)
(0.261652 0.0139588 0)
(0.265814 0.0201228 0)
(0.282118 0.0512635 0)
(0.280861 0.136181 0)
(0.278196 0.191862 0)
(0.207821 0.184417 0)
(0.127856 0.159717 0)
(0.0638705 0.139597 0)
(0.0251939 0.118846 0)
(0.0156249 0.140468 0)
(0.00644058 0.175196 0)
(0.001952 0.171095 0)
(-0.00488358 0.0114796 0)
(-0.0139837 0.0101387 0)
(-0.020293 0.00752889 0)
(-0.025044 0.00612146 0)
(-0.0294604 0.00271864 0)
(-0.0316709 -0.00315495 0)
(-0.0313803 -0.011157 0)
(-0.0279659 -0.0228069 0)
(-0.0181784 -0.0386315 0)
(-0.000519476 -0.0511158 0)
(0.0186043 -0.0570353 0)
(0.0333891 -0.0619238 0)
(0.0485681 -0.0584419 0)
(0.0647662 -0.0641064 0)
(0.0725929 -0.0641661 0)
(0.125602 -0.0768844 0)
(0.0622627 -0.0568964 0)
(0.229808 -0.0594777 0)
(0.268006 -0.0556397 0)
(0.0228641 0.0946443 0)
(-0.0689674 0.101932 0)
(0.0272449 0.149538 0)
(0.131621 0.189658 0)
(0.219084 0.237496 0)
(0.183588 0.226643 0)
(0.118863 0.193407 0)
(0.0616576 0.153698 0)
(0.0248506 0.153642 0)
(0.00864187 0.178603 0)
(0.00375458 0.171377 0)
(-0.00493102 0.0121235 0)
(-0.0141329 0.0106997 0)
(-0.0204525 0.00793532 0)
(-0.0252614 0.0065621 0)
(-0.0299274 0.00306178 0)
(-0.0324432 -0.00304294 0)
(-0.0325906 -0.0113351 0)
(-0.0298312 -0.023634 0)
(-0.0202675 -0.0409229 0)
(-0.00217724 -0.0540445 0)
(0.0169925 -0.0600704 0)
(0.0325602 -0.0648328 0)
(0.0467443 -0.0625547 0)
(0.0679055 -0.0649855 0)
(0.0632082 -0.075287 0)
(0.101455 -0.0665141 0)
(0.07522 -0.106231 0)
(0.32214 -0.0783595 0)
(-0.266062 0.13777 0)
(-0.111625 0.128792 0)
(-0.0986374 0.0658202 0)
(-0.0657572 0.092179 0)
(-0.0199271 0.0790346 0)
(0.157824 0.209789 0)
(0.180781 0.253843 0)
(0.130205 0.241511 0)
(0.0734588 0.20678 0)
(0.0354355 0.187216 0)
(0.0160954 0.195396 0)
(0.00687952 0.183863 0)
(-0.00498134 0.0127745 0)
(-0.014291 0.0112646 0)
(-0.0206161 0.00834157 0)
(-0.0254812 0.00701968 0)
(-0.0304102 0.00343286 0)
(-0.0332427 -0.0028919 0)
(-0.0338553 -0.0114417 0)
(-0.031839 -0.0243771 0)
(-0.0225188 -0.043287 0)
(-0.00393057 -0.0569514 0)
(0.0156067 -0.0632977 0)
(0.0325228 -0.0677904 0)
(0.0439336 -0.0666396 0)
(0.0609918 -0.0673177 0)
(0.0738587 -0.0721472 0)
(0.0293487 -0.0779064 0)
(0.151603 -0.207163 0)
(2.31013 -0.0733589 0)
(-0.0124847 0.147096 0)
(-0.135675 0.0706636 0)
(-0.0732376 0.0370218 0)
(0.0332062 0.0728942 0)
(0.0414598 0.0162114 0)
(0.0531543 0.126083 0)
(0.127414 0.271568 0)
(0.100252 0.283958 0)
(0.0651679 0.241229 0)
(0.037052 0.215883 0)
(0.0183721 0.216528 0)
(0.00795233 0.204559 0)
(-0.00503467 0.0134331 0)
(-0.0144582 0.0118333 0)
(-0.0207832 0.00874767 0)
(-0.0257021 0.00749566 0)
(-0.0309079 0.00383479 0)
(-0.0340672 -0.00269421 0)
(-0.0351717 -0.0114645 0)
(-0.0339993 -0.0250238 0)
(-0.0249308 -0.0457515 0)
(-0.00571133 -0.0598968 0)
(0.0144641 -0.0668329 0)
(0.0314893 -0.0705052 0)
(0.0393007 -0.0700801 0)
(0.057053 -0.0703864 0)
(0.0563343 -0.0748623 0)
(0.282239 -0.110586 0)
(0.035922 -0.757281 0)
(-0.149898 0.725932 0)
(-0.462973 0.629448 0)
(-0.165051 0.0750792 0)
(-0.0993094 -0.0233273 0)
(-0.00964281 0.0401839 0)
(0.0269768 0.0630921 0)
(-0.0156882 0.119945 0)
(0.0654293 0.245761 0)
(0.0672571 0.282233 0)
(0.0497139 0.26008 0)
(0.0307327 0.237935 0)
(0.014219 0.235737 0)
(0.00462754 0.221435 0)
(-0.00509114 0.0141001 0)
(-0.0146349 0.0124062 0)
(-0.0209532 0.00915205 0)
(-0.0259226 0.00798806 0)
(-0.0314187 0.00426103 0)
(-0.0349128 -0.00246769 0)
(-0.0365346 -0.01142 0)
(-0.0363265 -0.0255704 0)
(-0.0275042 -0.0483352 0)
(-0.00749873 -0.0629157 0)
(0.0129206 -0.0703189 0)
(0.0275447 -0.0723063 0)
(0.0351872 -0.0726943 0)
(0.049137 -0.0739014 0)
(0.0993489 -0.128752 0)
(0.0158972 -0.0764908 0)
(0.499325 -0.375926 0)
(0.135612 0.0878085 0)
(-0.18437 0.711524 0)
(-0.191477 -0.0101317 0)
(-0.141056 -0.0502105 0)
(-0.0744929 0.000174208 0)
(-0.0247951 0.0225132 0)
(-0.029782 0.103902 0)
(0.010306 0.208122 0)
(0.0285208 0.283863 0)
(0.0268518 0.267363 0)
(0.0125323 0.252009 0)
(0.00541415 0.250317 0)
(0.00203599 0.23205 0)
(-0.00515093 0.0147742 0)
(-0.0148213 0.0129798 0)
(-0.0211257 0.0095591 0)
(-0.0261421 0.0085066 0)
(-0.0319438 0.00473556 0)
(-0.0357799 -0.00215577 0)
(-0.0379429 -0.0112245 0)
(-0.0388314 -0.0259336 0)
(-0.030239 -0.0510894 0)
(-0.00934755 -0.0658504 0)
(0.00940924 -0.0733242 0)
(0.0185024 -0.0733294 0)
(0.0326345 -0.0748391 0)
(0.0280026 -0.0875928 0)
(0.0427823 -0.0813933 0)
(0.66246 -0.286489 0)
(-0.0419064 -0.439439 0)
(0.237108 0.410152 0)
(-0.285995 0.654344 0)
(-0.86923 0.0588047 0)
(-0.125164 -0.176289 0)
(-0.11295 -0.0234576 0)
(-0.0955166 0.0289604 0)
(-0.0436549 0.108918 0)
(-0.0224921 0.19888 0)
(-0.000646556 0.269559 0)
(0.00594743 0.27466 0)
(0.000231595 0.261266 0)
(0.00050114 0.250937 0)
(0.00416967 0.234795 0)
(-0.00521282 0.0154659 0)
(-0.0150173 0.0135768 0)
(-0.0212989 0.00995221 0)
(-0.0263568 0.00902683 0)
(-0.0324753 0.00518996 0)
(-0.036654 -0.00189785 0)
(-0.0393783 -0.0110797 0)
(-0.0415355 -0.0263031 0)
(-0.0331508 -0.0540117 0)
(-0.0115179 -0.0684953 0)
(-0.00032015 -0.0754467 0)
(0.00670691 -0.0760778 0)
(0.089995 -0.081869 0)
(0.451573 -0.0892884 0)
(0.475266 -0.237072 0)
(0.318425 -0.160703 0)
(0.347741 -0.278566 0)
(0.3041 0.440961 0)
(0.0959621 0.778503 0)
(-0.150504 0.249776 0)
(-0.162791 -0.43971 0)
(-0.114208 0.00395569 0)
(-0.101452 -0.0408904 0)
(-0.0768016 0.0685232 0)
(-0.044776 0.18455 0)
(-0.0276903 0.260621 0)
(-0.0119529 0.266882 0)
(-0.00454615 0.26185 0)
(-0.00254905 0.246518 0)
(0.00480378 0.238954 0)
(-0.00531725 0.0161283 0)
(-0.0152286 0.0140598 0)
(-0.0214784 0.0103823 0)
(-0.0265766 0.00960919 0)
(-0.0330327 0.00579558 0)
(-0.0375543 -0.00139089 0)
(-0.0408527 -0.0105243 0)
(-0.0444295 -0.0261317 0)
(-0.0362042 -0.057094 0)
(-0.0153696 -0.0698669 0)
(-0.0183086 -0.0776544 0)
(0.0438174 -0.104283 0)
(0.796643 -0.176139 0)
(0.793597 -0.132311 0)
(0.577786 -0.105823 0)
(0.401602 -0.229228 0)
(0.18803 -0.225399 0)
(0.174124 0.403018 0)
(0.405487 0.888821 0)
(0.462093 0.241652 0)
(-0.0950036 -0.12099 0)
(-0.0678501 -0.0801562 0)
(-0.105301 -0.0147842 0)
(-0.107245 0.0654122 0)
(-0.078077 0.173202 0)
(-0.0435066 0.243042 0)
(-0.0379301 0.252232 0)
(-0.0206192 0.254182 0)
(-0.010095 0.240882 0)
(-0.000685003 0.236999 0)
(-0.00465365 0.0169793 0)
(-0.0154035 0.015148 0)
(-0.0215942 0.0107097 0)
(-0.0267001 0.0101548 0)
(-0.033505 0.00622164 0)
(-0.0384278 -0.00113336 0)
(-0.0423307 -0.0102903 0)
(-0.0476416 -0.0263838 0)
(-0.0395307 -0.0605028 0)
(-0.0302421 -0.0674197 0)
(-0.0228636 -0.0871193 0)
(0.478236 -0.268258 0)
(1.07562 -0.224201 0)
(0.961953 -0.0900075 0)
(0.512387 -0.0784669 0)
(0.352009 -0.112451 0)
(0.237737 -0.153356 0)
(0.10023 0.274735 0)
(0.61699 0.83471 0)
(0.73457 0.385807 0)
(0.167201 -0.249044 0)
(-0.186042 -0.0431049 0)
(-0.123733 -0.00780866 0)
(-0.138691 0.0475644 0)
(-0.125265 0.15386 0)
(-0.0770094 0.219798 0)
(-0.0619873 0.244423 0)
(-0.0466928 0.227613 0)
(-0.0208105 0.224438 0)
(-0.00744221 0.222735 0)
(-0.0148269 0.0172469 0)
(-0.0158383 0.0141598 0)
(-0.0224048 0.0112388 0)
(-0.0275683 0.0107113 0)
(-0.0346164 0.00693419 0)
(-0.0394162 -0.000509264 0)
(-0.0437981 -0.00941841 0)
(-0.0509324 -0.0256885 0)
(-0.0427769 -0.0611618 0)
(-0.0653805 -0.0742184 0)
(0.19652 -0.172392 0)
(-0.0908399 -0.335292 0)
(0.0918138 -0.149651 0)
(0.309872 -0.0603103 0)
(0.311343 -0.0181883 0)
(0.292249 -0.130157 0)
(0.215386 -0.112493 0)
(0.191147 0.193284 0)
(0.616378 0.560328 0)
(0.768947 0.509218 0)
(0.484588 0.282129 0)
(-0.0829325 0.0547311 0)
(-0.0648809 -0.0199461 0)
(-0.110286 0.0305276 0)
(-0.125865 0.145139 0)
(-0.0829654 0.175207 0)
(-0.0470545 0.226115 0)
(-0.044673 0.206985 0)
(-0.0200364 0.200825 0)
(-0.0077544 0.199412 0)
(0.0719854 0.0188354 0)
(-0.0185381 0.0177466 0)
(-0.0183651 0.0113337 0)
(-0.0247836 0.0114708 0)
(-0.0332142 0.00750305 0)
(-0.0399883 -0.000111838 0)
(-0.0459441 -0.00887532 0)
(-0.0540346 -0.0251582 0)
(-0.0449512 -0.0621273 0)
(-0.104769 -0.0992816 0)
(0.18247 -0.137151 0)
(0.600829 -0.341393 0)
(0.274745 -0.182763 0)
(0.203569 -0.0969301 0)
(0.227036 -0.0476054 0)
(0.275428 -0.0958416 0)
(0.188582 -0.0995985 0)
(0.31795 0.156855 0)
(0.379974 0.338684 0)
(0.742883 0.606059 0)
(0.443852 0.382834 0)
(-0.175417 0.114718 0)
(-0.0624733 0.00171703 0)
(-0.102681 0.106854 0)
(-0.108257 0.128756 0)
(-0.0707585 0.143443 0)
(-0.0474706 0.200771 0)
(-0.0271608 0.197562 0)
(-0.0178863 0.185778 0)
(-0.00415842 0.184651 0)
(-0.0266044 0.0243329 0)
(-0.0441241 0.0107289 0)
(-0.0530716 0.0138105 0)
(-0.0623052 0.00621565 0)
(-0.0420839 -0.0148328 0)
(0.0047993 -0.022964 0)
(0.065817 -0.0169688 0)
(0.0897065 -0.0147347 0)
(0.131564 -0.00387345 0)
(0.0742489 0.0105224 0)
(0.00637272 0.00229973 0)
(-0.0277864 0.00595002 0)
(-0.0660017 0.00528166 0)
(-0.0503768 -0.000439898 0)
(-0.0670091 0.00254245 0)
(-0.0716197 -0.00104257 0)
(-0.054676 -0.000109519 0)
(-0.0550878 -0.000809759 0)
(-0.0406776 -0.000730363 0)
(-0.030598 -0.000775711 0)
(-0.018529 -0.000730413 0)
(-0.00736551 -0.000615274 0)
(0.00198949 -0.00047062 0)
(0.00894575 -0.000315782 0)
(0.0132983 -0.00018263 0)
(0.0151919 -7.32956e-05 0)
(0.0148545 8.92267e-06 0)
(0.0129004 6.42153e-05 0)
(0.00909949 0.00012824 0)
(0.00328021 0.000178661 0)
(-0.0219564 0.0573022 0)
(-0.0302825 0.0153527 0)
(-0.0444772 0.00506124 0)
(-0.0286711 -0.0106952 0)
(-0.00356538 -0.0454888 0)
(0.0327231 -0.0698085 0)
(0.0768507 -0.0568575 0)
(0.107606 -0.0231882 0)
(0.111042 0.015611 0)
(0.0642056 0.0491103 0)
(-0.00919844 0.0381483 0)
(-0.0660044 0.0250789 0)
(-0.0873397 0.00459212 0)
(-0.0723513 -0.00200041 0)
(-0.0814185 0.00730486 0)
(-0.0876409 -0.00554696 0)
(-0.063541 -0.00187745 0)
(-0.0628862 -0.00374396 0)
(-0.0441865 -0.00363034 0)
(-0.0307825 -0.00349501 0)
(-0.0153568 -0.00315362 0)
(-0.00144293 -0.00252084 0)
(0.00976603 -0.00179362 0)
(0.0176071 -0.00109548 0)
(0.0218928 -0.000526424 0)
(0.0229689 -8.91875e-05 0)
(0.0212817 0.000205116 0)
(0.0177052 0.000385927 0)
(0.0121005 0.000585782 0)
(0.00429266 0.000684426 0)
(-0.00185883 0.0860487 0)
(0.00188955 0.0404042 0)
(-0.0136168 0.0164487 0)
(0.00155726 -0.0244616 0)
(0.013907 -0.0654067 0)
(0.0397613 -0.0884659 0)
(0.0381493 -0.0807813 0)
(0.0700463 -0.0351277 0)
(0.0674776 0.0254304 0)
(0.0368672 0.0694055 0)
(-0.0109587 0.063854 0)
(-0.0772278 0.0403888 0)
(-0.0742057 0.00950948 0)
(-0.0922312 -0.00470902 0)
(-0.0711331 0.0105238 0)
(-0.0897648 -0.00908403 0)
(-0.0607465 -0.00396649 0)
(-0.0610446 -0.00650194 0)
(-0.0421652 -0.00649667 0)
(-0.0286561 -0.00616947 0)
(-0.0131273 -0.00555213 0)
(0.000866718 -0.00439279 0)
(0.0120463 -0.00305858 0)
(0.019729 -0.00180606 0)
(0.023743 -0.000795847 0)
(0.0244746 -3.0949e-05 0)
(0.0224118 0.000469459 0)
(0.0184779 0.000762012 0)
(0.0125516 0.00108856 0)
(0.00443826 0.00126081 0)
(0.00847367 0.0729967 0)
(0.0126185 0.0361113 0)
(0.00510211 0.00694031 0)
(0.0185916 -0.0339324 0)
(0.0119344 -0.0712117 0)
(0.0141845 -0.0884702 0)
(-0.00252052 -0.0777812 0)
(0.00787901 -0.0360634 0)
(0.0112063 0.0422079 0)
(0.00922656 0.0813007 0)
(-0.0359177 0.0761814 0)
(-0.0907256 0.0544627 0)
(-0.0584781 0.0114268 0)
(-0.115387 -0.00527979 0)
(-0.0560785 0.0103248 0)
(-0.0961994 -0.0108837 0)
(-0.0589124 -0.00681321 0)
(-0.0612443 -0.0091391 0)
(-0.0418879 -0.00946842 0)
(-0.0282721 -0.00890115 0)
(-0.0126344 -0.00800204 0)
(0.00144681 -0.00629855 0)
(0.0126288 -0.00434204 0)
(0.0202473 -0.00252088 0)
(0.0241631 -0.00106117 0)
(0.0247877 3.34899e-05 0)
(0.022624 0.000743579 0)
(0.0186155 0.00114726 0)
(0.0126328 0.00160094 0)
(0.00446385 0.00183967 0)
(0.00871698 0.0524422 0)
(0.0148956 0.0395759 0)
(0.00926235 0.011185 0)
(0.0224689 -0.0312103 0)
(0.0127654 -0.0623649 0)
(0.00261828 -0.0728915 0)
(-0.03502 -0.0661868 0)
(-0.0462058 -0.0409744 0)
(-0.0394401 0.0295969 0)
(-0.0563433 0.101227 0)
(-0.0689827 0.105474 0)
(-0.110085 0.0583528 0)
(-0.0307236 0.0158547 0)
(-0.135229 -0.00383492 0)
(-0.0393195 0.00661167 0)
(-0.102097 -0.0100581 0)
(-0.0576649 -0.0105955 0)
(-0.0616462 -0.0115529 0)
(-0.0418803 -0.0125062 0)
(-0.0281169 -0.0116425 0)
(-0.0123767 -0.010467 0)
(0.0017861 -0.00820983 0)
(0.0129633 -0.00562126 0)
(0.0205239 -0.00322651 0)
(0.0243674 -0.0013174 0)
(0.0249244 0.000106712 0)
(0.0227045 0.00102212 0)
(0.0186686 0.0015347 0)
(0.0126693 0.00211534 0)
(0.00447548 0.00241959 0)
(0.00281897 0.0408403 0)
(0.00563524 0.0374713 0)
(0.00738258 -0.00110424 0)
(0.0294145 -0.0388872 0)
(0.0264016 -0.0600002 0)
(0.0139603 -0.0571743 0)
(-0.0304068 -0.0541346 0)
(-0.0916293 -0.0221584 0)
(-0.108975 0.0629453 0)
(-0.103575 0.0969821 0)
(-0.102051 0.0995113 0)
(-0.112582 0.0452918 0)
(-0.0405318 0.0214931 0)
(-0.142477 -0.00282806 0)
(-0.0323692 0.00142337 0)
(-0.105497 -0.00769694 0)
(-0.0576784 -0.0150296 0)
(-0.0618703 -0.0138678 0)
(-0.0419133 -0.0156148 0)
(-0.0279176 -0.0144076 0)
(-0.0120706 -0.0129522 0)
(0.00217923 -0.0101298 0)
(0.0133366 -0.00689664 0)
(0.0208191 -0.00392427 0)
(0.0245759 -0.00156641 0)
(0.0250575 0.00018577 0)
(0.0227783 0.00130429 0)
(0.0187184 0.00192314 0)
(0.0127062 0.00263092 0)
(0.00448734 0.00300083 0)
(0.000870183 0.0371248 0)
(0.00364418 0.0322977 0)
(0.0206102 -0.0165968 0)
(0.0410931 -0.046581 0)
(0.0425271 -0.0423963 0)
(0.01605 -0.0249773 0)
(-0.0709539 -0.00579845 0)
(-0.135311 0.0078912 0)
(-0.13121 0.046596 0)
(-0.137416 0.102307 0)
(-0.120892 0.0942813 0)
(-0.0861121 0.0315498 0)
(-0.0707411 0.0271857 0)
(-0.139596 -0.00540471 0)
(-0.0388453 -0.00412008 0)
(-0.106235 -0.00498821 0)
(-0.0595828 -0.0199183 0)
(-0.0618149 -0.0162367 0)
(-0.0420015 -0.0187737 0)
(-0.0276641 -0.0172008 0)
(-0.011696 -0.0154571 0)
(0.00265817 -0.0120572 0)
(0.0137872 -0.00816442 0)
(0.0211712 -0.00461018 0)
(0.0248217 -0.00180555 0)
(0.0252129 0.000272277 0)
(0.0228631 0.00159084 0)
(0.0187757 0.00231269 0)
(0.0127493 0.00314793 0)
(0.00450123 0.00358389 0)
(0.000480714 0.0389229 0)
(0.00626183 0.0227085 0)
(0.0330524 -0.0444401 0)
(0.0325094 -0.0609822 0)
(0.00340044 -0.0417958 0)
(-0.0409643 0.0220562 0)
(-0.0846584 0.0351699 0)
(-0.128413 0.0234258 0)
(-0.148516 0.069726 0)
(-0.140669 0.0877411 0)
(-0.100413 0.0713456 0)
(-0.0704123 0.0275651 0)
(-0.109121 0.0406879 0)
(-0.116991 -0.015135 0)
(-0.0687063 -0.00736244 0)
(-0.099542 -0.00405265 0)
(-0.0643345 -0.0244525 0)
(-0.0612994 -0.0189526 0)
(-0.0421418 -0.0219482 0)
(-0.027355 -0.0200318 0)
(-0.0112516 -0.017986 0)
(0.00322652 -0.0139936 0)
(0.0143202 -0.00942315 0)
(0.0215847 -0.00528195 0)
(0.0251091 -0.00203269 0)
(0.0253936 0.000367691 0)
(0.022961 0.00188262 0)
(0.0188419 0.00270356 0)
(0.0127995 0.00366664 0)
(0.00451737 0.00416909 0)
(-0.00379567 0.0298474 0)
(0.0121092 -0.00661156 0)
(0.00622797 -0.0439299 0)
(-0.0247347 -0.0116385 0)
(-0.0734347 0.0248019 0)
(-0.0910679 0.0383399 0)
(-0.104331 0.0494197 0)
(-0.135599 0.0447423 0)
(-0.12624 0.064988 0)
(-0.110415 0.071906 0)
(-0.06841 0.056274 0)
(-0.109712 0.0425172 0)
(-0.119607 0.0407456 0)
(-0.100612 -0.0234339 0)
(-0.102038 -0.00614621 0)
(-0.0852721 -0.00827328 0)
(-0.0702294 -0.0270063 0)
(-0.0605254 -0.0223648 0)
(-0.0422778 -0.0251003 0)
(-0.0269937 -0.0229068 0)
(-0.010735 -0.0205425 0)
(0.00388693 -0.0159386 0)
(0.0149375 -0.0106704 0)
(0.0220605 -0.00593686 0)
(0.0254381 -0.00224596 0)
(0.0255998 0.00047348 0)
(0.0230719 0.0021805 0)
(0.018917 0.00309589 0)