/*--------------------------------*- C++ -*----------------------------------*\
| =========                 |                                                 |
| \\      /  F ield         | OpenFOAM: The Open Source CFD Toolbox           |
|  \\    /   O peration     | Version:  2.4.0                                 |
|   \\  /    A nd           | Web:      www.OpenFOAM.org                      |
|    \\/     M anipulation  |                                                 |
\*---------------------------------------------------------------------------*/
FoamFile
{
    version     2.0;
    format      ascii;
    class       volVectorField;
    location    "1.5";
    object      U;
}
// * * * * * * * * * * * * * * * * * * * * * * * * * * * * * * * * * * * * * //

dimensions      [0 1 -1 0 0 0 0];

internalField   nonuniform List<vector> 
2400
(
(-0.0184863 0.00738565 0)
(-0.0553145 0.00707553 0)
(-0.0914623 0.0065771 0)
(-0.126518 0.00595009 0)
(-0.16027 0.00526568 0)
(-0.192793 0.00463356 0)
(-0.224692 0.00426004 0)
(-0.257576 0.00463392 0)
(-0.294829 0.00679115 0)
(-0.342145 0.012151 0)
(-0.406713 0.0211999 0)
(-0.493866 0.031512 0)
(-0.600901 0.0377944 0)
(-0.712268 0.0354462 0)
(-0.803958 0.024393 0)
(-0.856712 0.0100582 0)
(-0.86559 -0.0012388 0)
(-0.841448 -0.00750069 0)
(-0.800633 -0.0111892 0)
(-0.750513 -0.0125782 0)
(-0.0348917 0.0342553 0)
(-0.104645 0.0339751 0)
(-0.174519 0.0333915 0)
(-0.244596 0.0326391 0)
(-0.314995 0.0318857 0)
(-0.385914 0.0314466 0)
(-0.457746 0.0318804 0)
(-0.530963 0.0340875 0)
(-0.605468 0.0391728 0)
(-0.679484 0.0476602 0)
(-0.749044 0.0581335 0)
(-0.80871 0.0665038 0)
(-0.852747 0.0674668 0)
(-0.877308 0.057812 0)
(-0.884334 0.0388212 0)
(-0.881406 0.01584 0)
(-0.872174 -0.00573161 0)
(-0.848586 -0.0231408 0)
(-0.804281 -0.0345437 0)
(-0.752832 -0.0375253 0)
(-0.0347247 0.0702347 0)
(-0.104303 0.0703002 0)
(-0.174542 0.070224 0)
(-0.245765 0.070105 0)
(-0.318215 0.0700474 0)
(-0.391872 0.0702602 0)
(-0.466258 0.0710228 0)
(-0.540043 0.0725911 0)
(-0.610663 0.0751006 0)
(-0.67437 0.078344 0)
(-0.727439 0.081194 0)
(-0.768727 0.0811378 0)
(-0.801803 0.0750466 0)
(-0.832944 0.0612345 0)
(-0.86349 0.0407264 0)
(-0.884364 0.0155731 0)
(-0.883261 -0.0124988 0)
(-0.855945 -0.0397472 0)
(-0.807467 -0.0584844 0)
(-0.746471 -0.0632708 0)
(-0.0316262 0.104262 0)
(-0.095037 0.104484 0)
(-0.159028 0.10475 0)
(-0.223858 0.105122 0)
(-0.289732 0.105583 0)
(-0.356542 0.106104 0)
(-0.42364 0.106588 0)
(-0.489703 0.106864 0)
(-0.553072 0.106863 0)
(-0.612543 0.106729 0)
(-0.668185 0.106393 0)
(-0.72175 0.104638 0)
(-0.775552 0.0984898 0)
(-0.82869 0.0839845 0)
(-0.873693 0.0584252 0)
(-0.899526 0.0225074 0)
(-0.898405 -0.0189658 0)
(-0.867655 -0.0585659 0)
(-0.808758 -0.0882342 0)
(-0.726283 -0.101906 0)
(-0.0298034 0.135027 0)
(-0.0895044 0.135316 0)
(-0.149478 0.135765 0)
(-0.209842 0.136427 0)
(-0.270752 0.137206 0)
(-0.332215 0.137914 0)
(-0.394044 0.138261 0)
(-0.455956 0.138019 0)
(-0.518028 0.137375 0)
(-0.580929 0.136921 0)
(-0.645333 0.136767 0)
(-0.711144 0.135243 0)
(-0.777029 0.128225 0)
(-0.839214 0.110177 0)
(-0.890504 0.0774239 0)
(-0.921972 0.0307301 0)
(-0.925437 -0.0256504 0)
(-0.893303 -0.0836326 0)
(-0.820456 -0.129861 0)
(-0.709874 -0.157604 0)
(-0.029208 0.164304 0)
(-0.0876608 0.164643 0)
(-0.14617 0.16517 0)
(-0.204761 0.165964 0)
(-0.263563 0.166926 0)
(-0.322741 0.167862 0)
(-0.382582 0.168515 0)
(-0.443627 0.168807 0)
(-0.506836 0.169121 0)
(-0.573167 0.169979 0)
(-0.642465 0.170899 0)
(-0.713304 0.169398 0)
(-0.784125 0.160855 0)
(-0.852816 0.139439 0)
(-0.914715 0.100342 0)
(-0.961555 0.0416853 0)
(-0.978088 -0.0327493 0)
(-0.942524 -0.110846 0)
(-0.847182 -0.17677 0)
(-0.704142 -0.225264 0)
(-0.0291128 0.193372 0)
(-0.0873542 0.193731 0)
(-0.145572 0.194263 0)
(-0.203757 0.195092 0)
(-0.262041 0.19617 0)
(-0.320679 0.197392 0)
(-0.380193 0.198646 0)
(-0.441418 0.20001 0)
(-0.505441 0.201872 0)
(-0.573032 0.204414 0)
(-0.643711 0.206526 0)
(-0.716353 0.205373 0)
(-0.791555 0.196737 0)
(-0.871622 0.174687 0)
(-0.955082 0.131599 0)
(-1.02458 0.0625081 0)
(-1.0448 -0.031361 0)
(-0.991407 -0.141827 0)
(-0.869656 -0.241158 0)
(-0.705824 -0.313454 0)
(-0.0291103 0.222504 0)
(-0.0873437 0.222859 0)
(-0.14554 0.223366 0)
(-0.203686 0.224201 0)
(-0.261921 0.225384 0)
(-0.320533 0.226928 0)
(-0.380084 0.228871 0)
(-0.441383 0.231393 0)
(-0.505408 0.234816 0)
(-0.572894 0.239046 0)
(-0.643645 0.242644 0)
(-0.717899 0.243044 0)
(-0.800544 0.237369 0)
(-0.899671 0.219231 0)
(-1.00829 0.174001 0)
(-1.0833 0.0872853 0)
(-1.07611 -0.0419028 0)
(-0.986736 -0.192283 0)
(-0.855762 -0.32268 0)
(-0.702146 -0.410466 0)
(-0.0290807 0.251625 0)
(-0.0872523 0.251971 0)
(-0.145379 0.25245 0)
(-0.203448 0.253293 0)
(-0.261604 0.25459 0)
(-0.320126 0.25646 0)
(-0.379538 0.259068 0)
(-0.440542 0.262668 0)
(-0.50401 0.267544 0)
(-0.570807 0.273497 0)
(-0.641463 0.279269 0)
(-0.718769 0.283709 0)
(-0.813184 0.285883 0)
(-0.933113 0.27495 0)
(-1.04795 0.221901 0)
(-1.08568 0.102454 0)
(-1.02258 -0.0777548 0)
(-0.901146 -0.273215 0)
(-0.747561 -0.420667 0)
(-0.581276 -0.510028 0)
(-0.0290198 0.280682 0)
(-0.0870618 0.281016 0)
(-0.145034 0.281463 0)
(-0.202913 0.282309 0)
(-0.260836 0.283709 0)
(-0.319058 0.285877 0)
(-0.378053 0.289083 0)
(-0.438428 0.293649 0)
(-0.500964 0.299868 0)
(-0.56674 0.307734 0)
(-0.637507 0.317107 0)
(-0.71946 0.329101 0)
(-0.826735 0.341615 0)
(-0.958088 0.330966 0)
(-1.05072 0.249451 0)
(-1.02102 0.0709476 0)
(-0.911272 -0.166174 0)
(-0.780176 -0.369619 0)
(-0.487055 -0.50915 0)
(-0.168447 -0.557263 0)
(-0.0289472 0.309666 0)
(-0.0868297 0.309978 0)
(-0.144597 0.310372 0)
(-0.202199 0.311192 0)
(-0.259753 0.312656 0)
(-0.317485 0.315065 0)
(-0.375827 0.31878 0)
(-0.435298 0.324184 0)
(-0.496562 0.331643 0)
(-0.561011 0.341763 0)
(-0.632049 0.356424 0)
(-0.71821 0.37854 0)
(-0.829778 0.399888 0)
(-0.946948 0.377751 0)
(-0.992788 0.249346 0)
(-0.913453 0.0155809 0)
(-0.825765 -0.207374 0)
(-0.830068 -0.379992 0)
(-0.189773 -0.697119 0)
(0.196517 -0.648304 0)
(-0.0288782 0.338574 0)
(-0.086602 0.338845 0)
(-0.144145 0.33915 0)
(-0.20142 0.339895 0)
(-0.258511 0.341359 0)
(-0.315609 0.343925 0)
(-0.373113 0.348038 0)
(-0.431432 0.354122 0)
(-0.491074 0.362714 0)
(-0.553938 0.375535 0)
(-0.625158 0.396801 0)
(-0.712365 0.428481 0)
(-0.814036 0.449835 0)
(-0.892947 0.400243 0)
(-0.87169 0.230471 0)
(-0.747953 0.00328902 0)
(-0.962774 -0.0978493 0)
(-0.707622 -0.612044 0)
(-0.162413 -1.02879 0)
(0.129191 -0.916441 0)
(-0.0288222 0.367418 0)
(-0.0864069 0.367621 0)
(-0.143727 0.367789 0)
(-0.200648 0.368389 0)
(-0.25721 0.369767 0)
(-0.313569 0.372384 0)
(-0.370079 0.376752 0)
(-0.427009 0.383318 0)
(-0.484721 0.392948 0)
(-0.545846 0.408925 0)
(-0.616728 0.437063 0)
(-0.700725 0.474083 0)
(-0.782921 0.482386 0)
(-0.815226 0.389507 0)
(-0.721442 0.18219 0)
(-0.628649 0.0760549 0)
(-0.955949 -0.121737 0)
(-0.388632 -0.927001 0)
(-0.177992 -1.21804 0)
(0.0475679 -1.09707 0)
(-0.028786 0.396203 0)
(-0.0862654 0.396308 0)
(-0.143378 0.396281 0)
(-0.199931 0.396655 0)
(-0.255919 0.397844 0)
(-0.311453 0.400385 0)
(-0.366836 0.40483 0)
(-0.42217 0.411649 0)
(-0.477727 0.422248 0)
(-0.536987 0.441694 0)
(-0.606623 0.475986 0)
(-0.683847 0.512584 0)
(-0.743652 0.494681 0)
(-0.736025 0.342449 0)
(-0.583453 0.110708 0)
(-0.558923 0.297544 0)
(-0.732462 -0.33043 0)
(-0.347333 -1.11542 0)
(-0.292651 -1.32772 0)
(-0.243828 -1.22157 0)
(-0.0287779 0.424955 0)
(-0.0862007 0.424922 0)
(-0.143136 0.424625 0)
(-0.19932 0.424669 0)
(-0.254699 0.425547 0)
(-0.309341 0.427862 0)
(-0.363484 0.432184 0)
(-0.417066 0.439018 0)
(-0.470325 0.4505 0)
(-0.527567 0.473496 0)
(-0.595022 0.51262 0)
(-0.663176 0.542678 0)
(-0.700444 0.487743 0)
(-0.650343 0.275248 0)
(-0.393407 0.022052 0)
(-0.410789 0.280449 0)
(-0.612902 -0.443475 0)
(-0.422343 -1.16474 0)
(-0.737231 -1.10269 0)
(-0.991377 -1.0419 0)
(-0.0288057 0.453737 0)
(-0.0862363 0.453523 0)
(-0.143037 0.452874 0)
(-0.198864 0.452476 0)
(-0.253612 0.452903 0)
(-0.307307 0.454818 0)
(-0.360126 0.458778 0)
(-0.411865 0.465369 0)
(-0.462778 0.477638 0)
(-0.517877 0.504107 0)
(-0.582509 0.546511 0)
(-0.640459 0.563939 0)
(-0.654013 0.459712 0)
(-0.547044 0.170837 0)
(-0.142115 -0.0724204 0)
(-0.134634 0.6712 0)
(-0.491914 -0.351352 0)
(-0.559166 -0.9945 0)
(-0.90303 -0.931546 0)
(-1.01883 -1.04927 0)
(-0.0288809 0.482431 0)
(-0.0864092 0.481984 0)
(-0.143134 0.480886 0)
(-0.198621 0.479917 0)
(-0.252715 0.479745 0)
(-0.305413 0.481102 0)
(-0.35684 0.484525 0)
(-0.406688 0.490687 0)
(-0.455255 0.503596 0)
(-0.508065 0.533221 0)
(-0.569316 0.577262 0)
(-0.617005 0.575508 0)
(-0.60999 0.40498 0)
(-0.458743 0.0216561 0)
(0.0459001 -0.188423 0)
(-0.0653524 0.917114 0)
(-0.364778 -0.260113 0)
(-0.700887 -0.895546 0)
(-0.966123 -0.857468 0)
(-1.0441 -1.07793 0)
(-0.0290371 0.511578 0)
(-0.0867794 0.510807 0)
(-0.14353 0.509122 0)
(-0.198751 0.507405 0)
(-0.252227 0.50644 0)
(-0.303911 0.506986 0)
(-0.353892 0.509508 0)
(-0.401856 0.514895 0)
(-0.448229 0.528334 0)
(-0.498601 0.560904 0)
(-0.555579 0.605075 0)
(-0.593306 0.579612 0)
(-0.572829 0.334075 0)
(-0.413594 -0.146975 0)
(0.108458 -0.161073 0)
(-0.143467 0.887244 0)
(-0.327063 -0.124948 0)
(-0.911721 -0.69627 0)
(-1.08142 -0.776925 0)
(-1.10783 -1.05501 0)
(-0.0291726 0.540039 0)
(-0.0872299 0.538942 0)
(-0.144013 0.536592 0)
(-0.198883 0.534001 0)
(-0.251636 0.532059 0)
(-0.302276 0.53169 0)
(-0.350881 0.533472 0)
(-0.397118 0.538326 0)
(-0.441406 0.552053 0)
(-0.488892 0.586279 0)
(-0.540771 0.628264 0)
(-0.570392 0.577747 0)
(-0.545139 0.265142 0)
(-0.432673 -0.273028 0)
(-0.277343 -0.25654 0)
(-0.418379 0.806474 0)
(-0.519252 0.0954629 0)
(-1.09634 -0.520393 0)
(-1.17864 -0.74768 0)
(-1.1407 -1.08155 0)
(-0.0297411 0.570436 0)
(-0.0884349 0.568788 0)
(-0.1457 0.56553 0)
(-0.200694 0.561835 0)
(-0.253022 0.55891 0)
(-0.302547 0.557386 0)
(-0.349357 0.557212 0)
(-0.393482 0.560071 0)
(-0.436006 0.573817 0)
(-0.481171 0.610417 0)
(-0.526851 0.65037 0)
(-0.547499 0.575133 0)
(-0.529195 0.210111 0)
(-0.497695 -0.312406 0)
(-0.553288 -0.00275965 0)
(-0.731922 0.767244 0)
(-0.774423 0.211905 0)
(-1.1964 -0.391791 0)
(-1.25264 -0.736982 0)
(-1.18348 -1.13461 0)
(-0.715141 -0.0113551 0)
(-0.696166 -0.00927731 0)
(-0.682742 -0.00632604 0)
(-0.676078 -0.00268425 0)
(-0.674627 0.000594112 0)
(-0.672657 0.00157778 0)
(-0.659149 -0.00237891 0)
(-0.620903 -0.0136554 0)
(-0.548141 -0.0330062 0)
(-0.435959 -0.0594222 0)
(-0.282614 -0.0911035 0)
(-0.0909362 -0.124275 0)
(0.145937 -0.150533 0)
(0.41971 -0.16188 0)
(0.68931 -0.13413 0)
(0.910982 -0.0872234 0)
(1.05183 -0.0414974 0)
(1.11323 -0.00368363 0)
(1.09881 0.0232023 0)
(1.03902 0.0350153 0)
(-0.716372 -0.0319494 0)
(-0.695961 -0.0236808 0)
(-0.678651 -0.0140323 0)
(-0.662558 -0.00626246 0)
(-0.64159 -0.00665484 0)
(-0.607614 -0.0208744 0)
(-0.553919 -0.0516504 0)
(-0.474957 -0.0981268 0)
(-0.366421 -0.154633 0)
(-0.229653 -0.217506 0)
(-0.0716113 -0.280692 0)
(0.109857 -0.344788 0)
(0.311731 -0.415385 0)
(0.520985 -0.447552 0)
(0.728704 -0.387959 0)
(0.902529 -0.276305 0)
(1.02042 -0.157626 0)
(1.07712 -0.0508509 0)
(1.09972 0.0313825 0)
(1.0927 0.0771935 0)
(-0.697091 -0.0557284 0)
(-0.660786 -0.0466556 0)
(-0.619822 -0.0394647 0)
(-0.570952 -0.039632 0)
(-0.510358 -0.0546798 0)
(-0.434723 -0.088197 0)
(-0.338522 -0.138862 0)
(-0.226725 -0.201776 0)
(-0.109404 -0.271753 0)
(0.0173598 -0.352307 0)
(0.134347 -0.415911 0)
(0.241007 -0.483705 0)
(0.341597 -0.56971 0)
(0.437256 -0.607091 0)
(0.568529 -0.526052 0)
(0.699655 -0.376004 0)
(0.813678 -0.219548 0)
(0.894547 -0.0882154 0)
(0.933875 0.0157986 0)
(0.943016 0.0855671 0)
(-0.65015 -0.101489 0)
(-0.588191 -0.0998147 0)
(-0.518348 -0.10165 0)
(-0.439388 -0.113504 0)
(-0.347665 -0.142551 0)
(-0.242981 -0.188684 0)
(-0.132372 -0.248341 0)
(-0.0250246 -0.310034 0)
(0.0720115 -0.367555 0)
(0.157806 -0.437399 0)
(0.203671 -0.478689 0)
(0.218115 -0.531272 0)
(0.227599 -0.613478 0)
(0.235409 -0.654625 0)
(0.281408 -0.584987 0)
(0.369829 -0.46617 0)
(0.478217 -0.320505 0)
(0.596289 -0.156612 0)
(0.690604 -0.0145266 0)
(0.755506 0.0750908 0)
(-0.604018 -0.169765 0)
(-0.518998 -0.178365 0)
(-0.427178 -0.189244 0)
(-0.329154 -0.209893 0)
(-0.227136 -0.247498 0)
(-0.124893 -0.296787 0)
(-0.0283682 -0.353307 0)
(0.0488161 -0.400427 0)
(0.120481 -0.446021 0)
(0.166651 -0.481615 0)
(0.164305 -0.468281 0)
(0.136756 -0.513241 0)
(0.124963 -0.603983 0)
(0.103015 -0.647882 0)
(0.101081 -0.622107 0)
(0.132255 -0.547471 0)
(0.203196 -0.432199 0)
(0.306934 -0.28029 0)
(0.423895 -0.120714 0)
(0.533964 0.00538518 0)
(-0.570693 -0.255827 0)
(-0.470337 -0.274456 0)
(-0.368571 -0.292447 0)
(-0.267634 -0.315509 0)
(-0.17428 -0.349319 0)
(-0.0924799 -0.389937 0)
(-0.0245617 -0.432791 0)
(0.0298713 -0.46823 0)
(0.0787835 -0.498443 0)
(0.100055 -0.487489 0)
(0.0951284 -0.441194 0)
(0.0906572 -0.509653 0)
(0.0902888 -0.593334 0)
(0.0709671 -0.626625 0)
(0.0440634 -0.620302 0)
(0.0355591 -0.570706 0)
(0.0557257 -0.484238 0)
(0.118855 -0.368133 0)
(0.21802 -0.235607 0)
(0.341181 -0.101643 0)
(-0.559134 -0.361517 0)
(-0.45292 -0.381007 0)
(-0.35178 -0.396745 0)
(-0.258662 -0.411338 0)
(-0.179511 -0.431091 0)
(-0.11588 -0.455495 0)
(-0.0658036 -0.483354 0)
(-0.0236716 -0.509823 0)
(0.00875619 -0.525341 0)
(0.0280183 -0.491578 0)
(0.0535166 -0.447843 0)
(0.0811419 -0.525415 0)
(0.0870737 -0.587863 0)
(0.0781443 -0.606562 0)
(0.0609415 -0.599095 0)
(0.0437157 -0.56859 0)
(0.0431119 -0.511339 0)
(0.0751287 -0.432227 0)
(0.145252 -0.340728 0)
(0.255126 -0.225004 0)
(-0.573837 -0.47122 0)
(-0.479697 -0.486017 0)
(-0.386993 -0.492275 0)
(-0.298217 -0.491218 0)
(-0.221986 -0.492643 0)
(-0.161901 -0.501272 0)
(-0.11547 -0.519017 0)
(-0.0777993 -0.539018 0)
(-0.048824 -0.547062 0)
(-0.0185165 -0.516243 0)
(0.0350371 -0.488107 0)
(0.0765025 -0.547727 0)
(0.0890822 -0.588446 0)
(0.0940121 -0.599408 0)
(0.0958483 -0.587726 0)
(0.0962643 -0.561165 0)
(0.103711 -0.526413 0)
(0.132161 -0.483648 0)
(0.192255 -0.42887 0)
(0.286965 -0.356447 0)
(-0.483642 -0.57006 0)
(-0.433691 -0.579407 0)
(-0.384569 -0.584776 0)
(-0.327223 -0.573176 0)
(-0.268005 -0.558633 0)
(-0.210715 -0.552336 0)
(-0.162927 -0.55979 0)
(-0.12256 -0.575207 0)
(-0.0850895 -0.58344 0)
(-0.0412067 -0.568009 0)
(0.0207444 -0.547915 0)
(0.0693928 -0.580712 0)
(0.0952218 -0.605934 0)
(0.115176 -0.612141 0)
(0.134127 -0.598741 0)
(0.156541 -0.573119 0)
(0.183393 -0.546749 0)
(0.217437 -0.526382 0)
(0.271205 -0.506597 0)
(0.353905 -0.472842 0)
(-0.0761725 -0.609042 0)
(-0.0497197 -0.587033 0)
(-0.0999663 -0.603009 0)
(-0.150288 -0.620244 0)
(-0.186387 -0.623254 0)
(-0.185754 -0.623169 0)
(-0.165056 -0.630661 0)
(-0.122734 -0.646056 0)
(-0.0724621 -0.655329 0)
(-0.0216329 -0.647055 0)
(0.0315596 -0.631854 0)
(0.0843392 -0.644232 0)
(0.122998 -0.657109 0)
(0.15246 -0.66107 0)
(0.181234 -0.652175 0)
(0.207354 -0.628629 0)
(0.216331 -0.59478 0)
(0.22075 -0.574494 0)
(0.232896 -0.574744 0)
(0.266947 -0.561106 0)
(0.526041 -0.619142 0)
(0.780917 -0.537321 0)
(0.713507 -0.439502 0)
(0.543322 -0.490405 0)
(0.40646 -0.559896 0)
(0.331301 -0.602592 0)
(0.250425 -0.633492 0)
(0.192114 -0.668409 0)
(0.174984 -0.689906 0)
(0.187859 -0.681184 0)
(0.177219 -0.676299 0)
(0.19216 -0.685365 0)
(0.206603 -0.685587 0)
(0.195696 -0.678437 0)
(0.153113 -0.654507 0)
(-0.0201786 -0.61658 0)
(-0.0681994 -0.587937 0)
(-0.0985531 -0.566579 0)
(-0.17333 -0.556807 0)
(-0.263825 -0.530192 0)
(0.45805 -0.943863 0)
(0.678946 -0.927191 0)
(1.14426 -0.533388 0)
(1.42675 -0.331539 0)
(1.53667 -0.364773 0)
(1.68467 -0.406335 0)
(1.72759 -0.389423 0)
(1.35913 -0.414339 0)
(0.880184 -0.500313 0)
(0.65137 -0.535135 0)
(0.499306 -0.555423 0)
(0.377367 -0.590951 0)
(0.259205 -0.561092 0)
(0.162332 -0.440775 0)
(-0.634598 -0.245218 0)
(-1.16879 -0.335759 0)
(-0.993414 -0.464697 0)
(-0.93675 -0.430105 0)
(-1.04387 -0.371824 0)
(-1.22688 -0.355819 0)
(0.235177 -1.17388 0)
(0.253077 -1.20095 0)
(0.515409 -0.912081 0)
(0.641792 -0.720378 0)
(0.626082 -0.728269 0)
(0.780175 -0.730448 0)
(0.849423 -0.426808 0)
(0.764339 -0.184661 0)
(0.736018 -0.231671 0)
(0.70302 -0.350002 0)
(0.594226 -0.421357 0)
(0.492223 -0.475044 0)
(0.421552 -0.403562 0)
(0.30434 -0.107018 0)
(0.0988136 0.262013 0)
(-0.583164 -0.215319 0)
(-0.960017 -0.586841 0)
(-1.13352 -0.449293 0)
(-1.03291 -0.431789 0)
(-0.777232 -0.630156 0)
(-0.18606 -1.30221 0)
(-0.190344 -1.24597 0)
(-0.0481589 -0.993544 0)
(0.0804735 -0.688485 0)
(-0.139594 -0.569486 0)
(-0.0255616 -0.632104 0)
(0.0448864 -0.42941 0)
(0.267204 -0.31907 0)
(0.498444 -0.317053 0)
(0.614876 -0.338901 0)
(0.623349 -0.367174 0)
(0.604937 -0.427474 0)
(0.609909 -0.366368 0)
(0.655776 -0.0706041 0)
(0.79419 0.417285 0)
(0.757958 0.575946 0)
(0.559851 -0.106545 0)
(-0.104533 -0.45603 0)
(-0.251739 -0.65371 0)
(-0.13046 -0.882955 0)
(-0.921815 -1.29416 0)
(-0.760647 -1.27921 0)
(-0.577863 -0.929818 0)
(-0.594738 -0.612405 0)
(-0.430982 -0.621539 0)
(-0.188156 -0.739536 0)
(-0.000924765 -0.687646 0)
(0.196205 -0.59094 0)
(0.361679 -0.501691 0)
(0.508174 -0.43793 0)
(0.640144 -0.414225 0)
(0.736466 -0.442119 0)
(0.808174 -0.39263 0)
(0.93576 -0.159437 0)
(1.01558 0.0529265 0)
(1.33506 0.275219 0)
(1.56969 0.432286 0)
(1.58477 0.395548 0)
(0.852025 -0.301507 0)
(0.608925 -0.782711 0)
(-1.0312 -1.40421 0)
(-1.07767 -1.49021 0)
(-1.04609 -1.21638 0)
(-0.779947 -0.97076 0)
(-0.462083 -0.923102 0)
(-0.286914 -0.916622 0)
(-0.104135 -0.832763 0)
(0.021915 -0.730158 0)
(0.241273 -0.658882 0)
(0.471671 -0.619785 0)
(0.69468 -0.586469 0)
(0.887768 -0.553866 0)
(1.03748 -0.484537 0)
(1.17279 -0.295108 0)
(1.36611 -0.0367037 0)
(1.43521 -0.0463094 0)
(1.59463 -0.074597 0)
(1.94867 0.0638063 0)
(2.25541 0.0979203 0)
(2.13296 -0.443846 0)
(-1.10634 -1.38494 0)
(-1.13143 -1.4042 0)
(-1.02303 -1.29823 0)
(-0.844442 -1.17516 0)
(-0.667785 -1.13324 0)
(-0.490259 -1.10422 0)
(-0.287282 -1.05075 0)
(-0.0128889 -0.974479 0)
(0.263834 -0.932074 0)
(0.533557 -0.885568 0)
(0.786788 -0.82747 0)
(1.01744 -0.755183 0)
(1.22534 -0.65446 0)
(1.41261 -0.514194 0)
(1.65393 -0.275833 0)
(1.94247 -0.0533133 0)
(1.96827 -0.0481489 0)
(1.97951 -0.137393 0)
(2.03727 -0.208701 0)
(2.23942 -0.436682 0)
(-1.11954 -1.33504 0)
(-1.12376 -1.40458 0)
(-1.04407 -1.4111 0)
(-0.883817 -1.38691 0)
(-0.669106 -1.35434 0)
(-0.428624 -1.32891 0)
(-0.179891 -1.30027 0)
(0.0685291 -1.26327 0)
(0.327301 -1.21171 0)
(0.587212 -1.14954 0)
(0.842348 -1.07478 0)
(1.08914 -0.984495 0)
(1.32673 -0.872803 0)
(1.5631 -0.734028 0)
(1.80459 -0.573077 0)
(2.09619 -0.399997 0)
(2.42721 -0.244631 0)
(2.73693 -0.171874 0)
(2.9303 -0.243047 0)
(2.9509 -0.43862 0)
(-1.08365 -1.35477 0)
(-1.02164 -1.4627 0)
(-0.904596 -1.5257 0)
(-0.746151 -1.55802 0)
(-0.56432 -1.56922 0)
(-0.362583 -1.55932 0)
(-0.142551 -1.53841 0)
(0.09031 -1.50577 0)
(0.333094 -1.46049 0)
(0.581965 -1.40106 0)
(0.833073 -1.32527 0)
(1.0839 -1.23015 0)
(1.33292 -1.11625 0)
(1.58351 -0.985172 0)
(1.84209 -0.831541 0)
(2.10667 -0.677718 0)
(2.36179 -0.574855 0)
(2.58172 -0.525333 0)
(2.76021 -0.47332 0)
(2.9106 -0.396673 0)
(-1.08834 -1.42472 0)
(-0.999661 -1.56559 0)
(-0.884251 -1.66839 0)
(-0.739924 -1.72819 0)
(-0.568303 -1.75809 0)
(-0.371367 -1.77291 0)
(-0.158216 -1.77369 0)
(0.0639988 -1.75666 0)
(0.293678 -1.71999 0)
(0.529778 -1.66553 0)
(0.770118 -1.59185 0)
(1.01243 -1.49632 0)
(1.25389 -1.38203 0)
(1.49535 -1.25476 0)
(1.7377 -1.10602 0)
(1.9779 -0.946138 0)
(2.20469 -0.792945 0)
(2.40109 -0.659522 0)
(2.53742 -0.561809 0)
(2.63227 -0.480233 0)
(0.948514 0.0253885 0)
(0.879379 0.00947946 0)
(0.849906 0.00318906 0)
(0.834365 0.0043716 0)
(0.811043 0.010247 0)
(0.765388 0.019464 0)
(0.693046 0.0285443 0)
(0.601415 0.0328415 0)
(0.505952 0.0303524 0)
(0.421234 0.0230986 0)
(0.353773 0.0150083 0)
(0.302186 0.00909226 0)
(0.261452 0.00599958 0)
(0.226457 0.00491665 0)
(0.193542 0.00488172 0)
(0.160627 0.00530005 0)
(0.126753 0.00587654 0)
(0.0916506 0.00645429 0)
(0.0554447 0.00693607 0)
(0.0185304 0.00724429 0)
(1.02794 0.0736461 0)
(0.934159 0.0422183 0)
(0.875295 0.0212737 0)
(0.848545 0.0160126 0)
(0.836535 0.0214789 0)
(0.830639 0.0332221 0)
(0.82423 0.0465534 0)
(0.808503 0.0562418 0)
(0.777491 0.0589838 0)
(0.730927 0.0551535 0)
(0.672182 0.0478172 0)
(0.605744 0.0405272 0)
(0.535689 0.0353633 0)
(0.464647 0.0326703 0)
(0.3936 0.0318487 0)
(0.322556 0.0321232 0)
(0.251311 0.0328794 0)
(0.179783 0.0337116 0)
(0.107996 0.0343821 0)
(0.0360437 0.034712 0)
(0.920612 0.104199 0)
(0.880577 0.0738875 0)
(0.854891 0.041336 0)
(0.841909 0.0266829 0)
(0.82894 0.0274495 0)
(0.808914 0.0366885 0)
(0.783715 0.0492112 0)
(0.757903 0.0609587 0)
(0.731376 0.0688986 0)
(0.699354 0.0723335 0)
(0.657306 0.0726576 0)
(0.604052 0.0717198 0)
(0.541481 0.0707091 0)
(0.47278 0.0701145 0)
(0.40087 0.0700501 0)
(0.32772 0.0704211 0)
(0.254385 0.0710043 0)
(0.181317 0.071566 0)
(0.108605 0.0719567 0)
(0.0362033 0.072046 0)
(0.790762 0.104883 0)
(0.814484 0.0792545 0)
(0.831638 0.0457051 0)
(0.838891 0.0315611 0)
(0.833118 0.0362097 0)
(0.813559 0.0509206 0)
(0.781335 0.067485 0)
(0.740405 0.0807079 0)
(0.695643 0.0889974 0)
(0.649394 0.0936224 0)
(0.600979 0.0966924 0)
(0.548677 0.0993967 0)
(0.491497 0.101828 0)
(0.429814 0.103738 0)
(0.365018 0.105088 0)
(0.298682 0.106032 0)
(0.231934 0.106713 0)
(0.165336 0.107185 0)
(0.0990205 0.107474 0)
(0.0329909 0.107522 0)
(0.648572 0.0630183 0)
(0.73579 0.0553181 0)
(0.799267 0.0330598 0)
(0.834505 0.0283523 0)
(0.840355 0.0416248 0)
(0.823354 0.0638573 0)
(0.789904 0.0864714 0)
(0.744704 0.10396 0)
(0.691976 0.114642 0)
(0.635414 0.120289 0)
(0.577507 0.123889 0)
(0.519339 0.127359 0)
(0.460787 0.130955 0)
(0.401278 0.134099 0)
(0.340616 0.136373 0)
(0.279111 0.137811 0)
(0.217194 0.138672 0)
(0.155149 0.139183 0)
(0.0930647 0.139488 0)
(0.0310191 0.139566 0)
(0.518312 -0.0226752 0)
(0.675619 -0.00139368 0)
(0.778499 0.00138587 0)
(0.836376 0.0162237 0)
(0.852487 0.0434198 0)
(0.837159 0.0759683 0)
(0.80131 0.106117 0)
(0.752977 0.128715 0)
(0.697214 0.142654 0)
(0.637099 0.150074 0)
(0.574934 0.154172 0)
(0.51275 0.157402 0)
(0.451672 0.160691 0)
(0.391604 0.163796 0)
(0.331912 0.166233 0)
(0.272131 0.167874 0)
(0.212081 0.168892 0)
(0.151747 0.169513 0)
(0.0911447 0.169891 0)
(0.0303946 0.169994 0)
(0.442243 -0.128842 0)
(0.660363 -0.076751 0)
(0.807525 -0.0471492 0)
(0.873934 -0.00645988 0)
(0.881608 0.0431404 0)
(0.857709 0.0896891 0)
(0.815571 0.127869 0)
(0.762346 0.155268 0)
(0.703332 0.172004 0)
(0.641439 0.181016 0)
(0.57802 0.185708 0)
(0.514489 0.188669 0)
(0.452111 0.191293 0)
(0.391181 0.193834 0)
(0.331194 0.196019 0)
(0.271508 0.197661 0)
(0.211688 0.198808 0)
(0.151555 0.199585 0)
(0.0910743 0.200089 0)
(0.030377 0.200237 0)
(0.467732 -0.256343 0)
(0.702924 -0.168912 0)
(0.881173 -0.0855004 0)
(0.967522 -0.0133246 0)
(0.958145 0.0511334 0)
(0.900448 0.108934 0)
(0.835804 0.1535 0)
(0.77243 0.18416 0)
(0.709031 0.202672 0)
(0.645208 0.21259 0)
(0.581045 0.217561 0)
(0.517187 0.220243 0)
(0.454465 0.222251 0)
(0.3931 0.224194 0)
(0.332693 0.226029 0)
(0.272671 0.2276 0)
(0.21258 0.228852 0)
(0.152199 0.229796 0)
(0.0914654 0.230449 0)
(0.030508 0.230664 0)
(0.491325 -0.390387 0)
(0.708095 -0.295913 0)
(0.897316 -0.173053 0)
(1.03773 -0.0327434 0)
(1.06123 0.0779082 0)
(0.981379 0.149209 0)
(0.875099 0.191967 0)
(0.786229 0.218236 0)
(0.713934 0.235051 0)
(0.647839 0.24484 0)
(0.582983 0.249667 0)
(0.518903 0.25188 0)
(0.456149 0.253278 0)
(0.394701 0.254688 0)
(0.334092 0.256206 0)
(0.273812 0.257699 0)
(0.213461 0.259041 0)
(0.152827 0.260144 0)
(0.0918438 0.260945 0)
(0.0306346 0.261231 0)
(0.311547 -0.493978 0)
(0.510906 -0.420775 0)
(0.798546 -0.29611 0)
(1.01215 -0.101762 0)
(1.11194 0.0819507 0)
(1.06997 0.197378 0)
(0.938167 0.248379 0)
(0.810612 0.264214 0)
(0.719398 0.271532 0)
(0.648989 0.277958 0)
(0.583729 0.281988 0)
(0.519585 0.283577 0)
(0.456878 0.284301 0)
(0.395532 0.2852 0)
(0.334945 0.286447 0)
(0.274595 0.287887 0)
(0.214118 0.289327 0)
(0.153325 0.290588 0)
(0.0921555 0.291538 0)
(0.0307411 0.291896 0)
(-0.34729 -0.497452 0)
(-0.0656177 -0.547887 0)
(0.529319 -0.433476 0)
(0.934225 -0.219495 0)
(1.08827 0.0316401 0)
(1.10703 0.230369 0)
(0.996129 0.316413 0)
(0.844848 0.325094 0)
(0.72835 0.315461 0)
(0.649024 0.312839 0)
(0.58308 0.314401 0)
(0.519361 0.315224 0)
(0.456906 0.315269 0)
(0.395797 0.315654 0)
(0.335401 0.316663 0)
(0.275141 0.318092 0)
(0.214656 0.319661 0)
(0.153776 0.321105 0)
(0.0924543 0.322221 0)
(0.0308457 0.32266 0)
(-0.85466 -0.572964 0)
(-0.31216 -0.785365 0)
(0.127374 -0.766703 0)
(0.920046 -0.293196 0)
(1.04479 -0.0184697 0)
(1.09825 0.229893 0)
(1.02502 0.372436 0)
(0.876373 0.394526 0)
(0.741099 0.368747 0)
(0.649237 0.35109 0)
(0.581044 0.347023 0)
(0.518168 0.3466 0)
(0.456397 0.346061 0)
(0.395718 0.345975 0)
(0.335653 0.346781 0)
(0.275605 0.348252 0)
(0.215195 0.350004 0)
(0.154265 0.351677 0)
(0.0927912 0.352992 0)
(0.0309658 0.353532 0)
(-0.385163 -0.921437 0)
(-0.0791581 -1.02264 0)
(0.0424444 -1.15353 0)
(0.817883 -0.494899 0)
(1.00299 0.0138354 0)
(1.04339 0.22647 0)
(1.01863 0.411261 0)
(0.891752 0.459894 0)
(0.752636 0.428113 0)
(0.650171 0.393701 0)
(0.578073 0.380346 0)
(0.515953 0.37753 0)
(0.455369 0.376486 0)
(0.395412 0.376066 0)
(0.335824 0.376738 0)
(0.276089 0.378322 0)
(0.215811 0.380333 0)
(0.154845 0.382301 0)
(0.0931991 0.383866 0)
(0.0311123 0.384533 0)
(-0.0102821 -1.05566 0)
(0.118706 -1.15178 0)
(0.119785 -1.30539 0)
(0.346323 -0.865951 0)
(0.917385 -0.0223648 0)
(0.932432 0.197911 0)
(0.982534 0.42824 0)
(0.888931 0.512788 0)
(0.757847 0.48784 0)
(0.650718 0.439744 0)
(0.574613 0.414778 0)
(0.512836 0.408005 0)
(0.453806 0.406352 0)
(0.394923 0.405808 0)
(0.335986 0.406474 0)
(0.276656 0.408269 0)
(0.216557 0.410635 0)
(0.155557 0.412982 0)
(0.0937024 0.41486 0)
(0.0312938 0.415687 0)
(0.617962 -1.08001 0)
(0.603716 -1.15275 0)
(0.320702 -1.35186 0)
(0.262306 -1.03312 0)
(0.732323 -0.159939 0)
(0.701126 0.218072 0)
(0.909756 0.40382 0)
(0.875998 0.546474 0)
(0.756256 0.54339 0)
(0.649393 0.487288 0)
(0.57076 0.45025 0)
(0.509043 0.438058 0)
(0.451748 0.435494 0)
(0.394291 0.435051 0)
(0.336199 0.435903 0)
(0.277367 0.438044 0)
(0.217485 0.440888 0)
(0.15644 0.443723 0)
(0.0943273 0.445994 0)
(0.0315193 0.447027 0)
(1.82705 -0.96626 0)
(1.44377 -0.843707 0)
(0.783116 -1.04948 0)
(0.29771 -1.10738 0)
(0.525834 -0.33652 0)
(0.47122 0.259236 0)
(0.78377 0.323265 0)
(0.850057 0.550655 0)
(0.748611 0.590595 0)
(0.645158 0.534649 0)
(0.566406 0.486431 0)
(0.504851 0.467699 0)
(0.449322 0.463812 0)
(0.393577 0.463696 0)
(0.33653 0.464995 0)
(0.278285 0.467661 0)
(0.218647 0.471131 0)
(0.157537 0.474585 0)
(0.0951024 0.477347 0)
(0.0317996 0.478641 0)
(2.28904 -0.794194 0)
(1.70575 -0.702174 0)
(1.1861 -0.640789 0)
(0.490287 -0.908922 0)
(0.431213 -0.336749 0)
(0.33439 0.292737 0)
(0.59463 0.207649 0)
(0.803074 0.525977 0)
(0.733909 0.62434 0)
(0.63773 0.579716 0)
(0.561408 0.522718 0)
(0.500436 0.496825 0)
(0.446658 0.491193 0)
(0.392839 0.491555 0)
(0.33703 0.493572 0)
(0.279471 0.496974 0)
(0.220109 0.501241 0)
(0.158906 0.505454 0)
(0.0960662 0.508817 0)
(0.0321459 0.510432 0)
(2.72459 -0.611017 0)
(2.19582 -0.502227 0)
(1.60732 -0.412715 0)
(0.782055 -0.579108 0)
(0.440526 -0.280211 0)
(0.347136 0.37269 0)
(0.387581 0.105204 0)
(0.73579 0.47008 0)
(0.711478 0.639835 0)
(0.627107 0.620387 0)
(0.555984 0.55866 0)
(0.496276 0.525372 0)
(0.444143 0.517664 0)
(0.392363 0.518724 0)
(0.337961 0.521799 0)
(0.281143 0.526198 0)
(0.222031 0.531493 0)
(0.160659 0.536688 0)
(0.0972972 0.540827 0)
(0.0326004 0.542879 0)
(2.88834 -0.331397 0)
(2.52125 -0.22134 0)
(1.95406 -0.0976249 0)
(1.12847 -0.20791 0)
(0.569712 -0.22494 0)
(0.49064 0.382529 0)
(0.273037 0.0421084 0)
(0.662851 0.388639 0)
(0.684701 0.634877 0)
(0.613534 0.653214 0)
(0.54935 0.592646 0)
(0.492026 0.553106 0)
(0.441584 0.54299 0)
(0.391809 0.544651 0)
(0.338913 0.549101 0)
(0.282959 0.554844 0)
(0.224184 0.561396 0)
(0.16266 0.567711 0)
(0.0986996 0.572715 0)
(0.0330823 0.575246 0)
(2.69111 -0.318694 0)
(2.54949 -0.0548701 0)
(2.11007 0.208151 0)
(1.39477 0.177281 0)
(0.757842 -0.104578 0)
(0.640766 0.377646 0)
(0.400295 0.107366 0)
(0.589146 0.312673 0)
(0.646542 0.618906 0)
(0.597975 0.68109 0)
(0.543939 0.625158 0)
(0.489411 0.57981 0)
(0.440347 0.567884 0)
(0.392735 0.570699 0)
(0.341536 0.576641 0)
(0.286346 0.583729 0)
(0.227657 0.591714 0)
(0.165673 0.599466 0)
(0.100809 0.605642 0)
(0.0339297 0.608845 0)
(-0.0291341 0.640167 0)
(-0.0890787 0.636949 0)
(-0.145424 0.630819 0)
(-0.197735 0.623158 0)
(-0.246657 0.61454 0)
(-0.293542 0.608611 0)
(-0.33917 0.609892 0)
(-0.383503 0.617522 0)
(-0.424043 0.632137 0)
(-0.456698 0.663392 0)
(-0.476438 0.681845 0)
(-0.489294 0.559317 0)
(-0.522543 0.163894 0)
(-0.50088 -0.239449 0)
(-0.35994 0.340605 0)
(-0.739736 0.958403 0)
(-1.01513 0.412957 0)
(-1.26779 -0.175217 0)
(-1.30079 -0.7247 0)
(-1.21089 -1.28076 0)
(-0.0313198 0.752189 0)
(-0.0966109 0.74908 0)
(-0.159647 0.737475 0)
(-0.214392 0.72249 0)
(-0.262038 0.718543 0)
(-0.307177 0.724215 0)
(-0.342563 0.708995 0)
(-0.362043 0.685192 0)
(-0.379982 0.677567 0)
(-0.405325 0.688634 0)
(-0.440084 0.698152 0)
(-0.503553 0.590957 0)
(-0.526278 0.231401 0)
(-0.160285 -0.321741 0)
(0.132921 -0.00739505 0)
(-0.883954 1.98706 0)
(-1.05759 1.19472 0)
(-1.21776 0.163804 0)
(-1.2282 -0.734283 0)
(-1.1412 -1.49719 0)
(-0.0593238 0.922305 0)
(-0.156795 0.908266 0)
(-0.230475 0.877097 0)
(-0.282775 0.849794 0)
(-0.301715 0.804586 0)
(-0.275813 0.722953 0)
(-0.28609 0.700282 0)
(-0.326014 0.706931 0)
(-0.380474 0.735158 0)
(-0.461788 0.823799 0)
(-0.542358 0.894072 0)
(-0.568231 0.630193 0)
(-0.317408 -0.310132 0)
(0.393374 -0.729373 0)
(-0.919569 1.62395 0)
(-1.67852 2.74083 0)
(-1.34616 1.23929 0)
(-1.24876 0.0364608 0)
(-1.07098 -0.955911 0)
(-0.939322 -1.75545 0)
(-0.0381328 1.06832 0)
(-0.124833 1.04613 0)
(-0.184689 0.945119 0)
(-0.149638 0.730217 0)
(-0.133673 0.735385 0)
(-0.340919 0.840687 0)
(-0.437793 0.84567 0)
(-0.512424 0.883055 0)
(-0.611814 0.963546 0)
(-0.674338 1.02423 0)
(-0.638131 0.848541 0)
(-0.326232 0.011445 0)
(-0.00127166 -1.46938 0)