/*--------------------------------*- C++ -*----------------------------------*\
| =========                 |                                                 |
| \\      /  F ield         | OpenFOAM: The Open Source CFD Toolbox           |
|  \\    /   O peration     | Version:  2.4.0                                 |
|   \\  /    A nd           | Web:      www.OpenFOAM.org                      |
|    \\/     M anipulation  |                                                 |
\*---------------------------------------------------------------------------*/
FoamFile
{
    version     2.0;
    format      ascii;
    class       volScalarField;
    location    "0.059";
    object      alpha.water;
}
// * * * * * * * * * * * * * * * * * * * * * * * * * * * * * * * * * * * * * //

dimensions      [0 0 0 0 0 0 0];

internalField   nonuniform List<scalar> 
10000
(
2.92758e-106
4.58003e-102
3.63823e-98
1.85853e-94
6.56973e-91
1.79058e-87
3.8374e-84
6.84435e-81
1.06657e-77
1.48214e-74
1.84483e-71
1.95679e-68
1.72548e-65
1.21077e-62
6.5643e-60
2.7441e-57
8.7737e-55
2.13448e-52
3.92224e-50
5.36396e-48
5.43328e-46
4.01487e-44
2.14013e-42
8.09147e-41
2.13385e-39
3.83208e-38
4.57902e-37
3.55749e-36
1.76017e-35
5.40749e-35
9.90229e-35
1.0317e-34
5.80803e-35
1.65146e-35
2.18675e-36
1.21081e-37
2.56846e-39
3.01239e-41
3.24652e-43
3.71872e-45
4.46575e-47
5.30998e-49
5.92145e-51
5.94735e-53
5.21913e-55
3.89354e-57
2.3891e-59
1.14722e-61
3.99047e-64
8.891e-67
9.30949e-102
2.12922e-97
1.64678e-93
6.42651e-90
1.60723e-86
3.00666e-83
4.64006e-80
6.49301e-77
8.86639e-74
1.1711e-70
1.39595e-67
1.39593e-64
1.12784e-61
7.1007e-59
3.41283e-56
1.25758e-53
3.54691e-51
7.62325e-49
1.24424e-46
1.5216e-44
1.38966e-42
9.3317e-41
4.56145e-39
1.59595e-37
3.9346e-36
6.67885e-35
7.63234e-34
5.74146e-33
2.78973e-32
8.57476e-32
1.6107e-31
1.78115e-31
1.11464e-31
3.75873e-32
6.49177e-33
5.48003e-34
2.2274e-35
7.14002e-37
2.36974e-38
8.07534e-40
2.71897e-41
8.73757e-43
2.60159e-44
6.99215e-46
1.65519e-47
3.36029e-49
5.65157e-51
7.47909e-53
7.14717e-55
4.18322e-57
2.68596e-98
6.06976e-94
4.13052e-90
1.42294e-86
3.16097e-83
5.3353e-80
7.80841e-77
1.15478e-73
1.77131e-70
2.53315e-67
3.07824e-64
2.93287e-61
2.09519e-58
1.14006e-55
4.75308e-53
1.52704e-50
3.776e-48
7.15714e-46
1.03775e-43
1.13577e-41
9.36341e-40
5.72195e-38
2.56928e-36
8.33445e-35
1.92475e-33
3.09497e-32
3.39036e-31
2.47531e-30
1.18338e-29
3.64189e-29
7.00831e-29
8.18984e-29
5.6381e-29
2.20181e-29
4.70056e-30
5.34657e-31
3.26901e-32
1.73438e-33
9.46832e-35
5.19806e-36
2.77971e-37
1.40884e-38
6.60202e-40
2.79505e-41
1.04477e-42
3.35981e-44
8.98527e-46
1.90102e-47
2.93254e-49
2.81522e-51
1.65388e-95
3.63261e-91
2.42576e-87
8.30634e-84
1.87309e-80
3.39186e-77
5.98262e-74
1.13392e-70
2.05277e-67
3.12551e-64
3.49493e-61
2.86108e-58
1.76037e-55
8.28572e-53
3.00208e-50
8.42609e-48
1.82978e-45
3.06262e-43
3.94916e-41
3.87183e-39
2.884e-37
1.60547e-35
6.62944e-34
1.99604e-32
4.32224e-31
6.5896e-30
6.9253e-29
4.91119e-28
2.31118e-27
7.11768e-27
1.39993e-26
1.72064e-26
1.29152e-26
5.74318e-27
1.46773e-27
2.11459e-28
1.74028e-29
1.28107e-30
9.62805e-32
7.19619e-33
5.20202e-34
3.55105e-35
2.23847e-36
1.27523e-37
6.42249e-39
2.78814e-40
1.00934e-41
2.90381e-43
6.14469e-45
8.25831e-47
4.87006e-93
1.04022e-88
7.27889e-85
2.69789e-81
7.03326e-78
1.60456e-74
3.75049e-71
8.92576e-68
1.74235e-64
2.34969e-61
2.24408e-58
1.57994e-55
8.40616e-53
3.43353e-50
1.08378e-47
2.6625e-45
5.08414e-43
7.52144e-41
8.63005e-39
7.5818e-37
5.10322e-35
2.58839e-33
9.83173e-32
2.74839e-30
5.58139e-29
8.06844e-28
8.13463e-27
5.60285e-26
2.59459e-25
7.98641e-25
1.60083e-24
2.0593e-24
1.67205e-24
8.35804e-25
2.50354e-25
4.40881e-26
4.60292e-27
4.32452e-28
4.12115e-29
3.87709e-30
3.51061e-31
2.99346e-32
2.35443e-33
1.67359e-34
1.05246e-35
5.71185e-37
2.58984e-38
9.36347e-40
2.50703e-41
4.33254e-43
1.27258e-90
2.62277e-86
1.95278e-82
8.25598e-79
2.60985e-75
7.54549e-72
2.26756e-68
5.80566e-65
9.87731e-62
1.13358e-58
9.29576e-56
5.64997e-53
2.60612e-50
9.25177e-48
2.54707e-45
5.48166e-43
9.20955e-41
1.20463e-38
1.22987e-36
9.67872e-35
5.88314e-33
2.71707e-31
9.48789e-30
2.46127e-28
4.68501e-27
6.4177e-26
6.20239e-25
4.14575e-24
1.88743e-23
5.79667e-23
1.18016e-22
1.58085e-22
1.37828e-22
7.66293e-23
2.65006e-23
5.57902e-24
7.14281e-25
8.17211e-26
9.43671e-27
1.06983e-27
1.16254e-28
1.18639e-29
1.11517e-30
9.46943e-32
7.1153e-33
4.61696e-34
2.50584e-35
1.08691e-36
3.50786e-38
7.39009e-40
3.99782e-88
8.07447e-84
6.37929e-80
2.96182e-76
1.09274e-72
3.82831e-69
1.21487e-65
2.73724e-62
3.93698e-59
3.8732e-56
2.73459e-53
1.43516e-50
5.73674e-48
1.76828e-45
4.24235e-43
7.99279e-41
1.18078e-38
1.36493e-36
1.23914e-34
8.72735e-33
4.78449e-31
2.00929e-29
6.44111e-28
1.54858e-26
2.75946e-25
3.57729e-24
3.30941e-23
2.14358e-22
9.58026e-22
2.92924e-21
6.03464e-21
8.37251e-21
7.78252e-21
4.76799e-21
1.88165e-21
4.66584e-22
7.19815e-23
9.73928e-24
1.32417e-24
1.75987e-25
2.23389e-26
2.65608e-27
2.90432e-28
2.867e-29
2.50416e-30
1.88933e-31
1.19304e-32
6.02822e-34
2.27252e-35
5.62934e-37
1.68442e-85
3.30002e-81
2.63369e-77
1.28495e-73
5.08723e-70
1.84527e-66
5.2273e-63
9.86621e-60
1.20713e-56
1.01889e-53
6.17419e-51
2.78438e-48
9.60051e-46
2.55765e-43
5.3273e-41
8.7597e-39
1.13528e-36
1.15777e-34
9.33258e-33
5.87359e-31
2.89878e-29
1.10478e-27
3.2441e-26
7.21373e-25
1.20096e-23
1.47057e-22
1.29966e-21
8.1412e-21
3.56505e-20
1.08234e-19
2.24699e-19
3.21086e-19
3.15944e-19
2.11454e-19
9.42944e-20
2.72489e-20
5.00873e-21
7.87771e-22
1.2389e-22
1.89568e-23
2.76105e-24
3.75845e-25
4.69883e-26
5.29982e-27
5.28769e-28
4.55665e-29
3.28651e-30
1.89719e-31
8.17671e-33
2.32054e-34
9.49835e-83
1.76344e-78
1.34809e-74
6.39616e-71
2.42866e-67
7.94755e-64
1.89753e-60
2.99775e-57
3.10251e-54
2.22608e-51
1.14522e-48
4.39026e-46
1.29325e-43
2.95162e-41
5.29872e-39
7.55743e-37
8.55213e-35
7.66752e-33
5.4729e-31
3.07076e-29
1.36103e-27
4.69555e-26
1.25943e-24
2.58302e-23
4.00698e-22
4.6227e-21
3.89295e-20
2.3524e-19
1.00702e-18
3.0264e-18
6.30324e-18
9.22243e-18
9.53695e-18
6.91401e-18
3.45253e-18
1.15287e-18
2.50691e-19
4.53151e-20
8.14799e-21
1.41894e-21
2.34478e-22
3.6138e-23
5.10875e-24
6.5112e-25
7.33847e-26
7.14225e-27
5.81614e-28
3.78843e-29
1.84033e-30
5.87389e-32
6.91868e-80
1.19845e-75
8.42424e-72
3.61693e-68
1.21714e-64
3.354e-61
6.58274e-58
8.43919e-55
7.20558e-52
4.30448e-49
1.84671e-46
5.92708e-44
1.47169e-41
2.84278e-39
4.35267e-37
5.3348e-35
5.2311e-33
4.09906e-31
2.57897e-29
1.2855e-27
5.10065e-26
1.58817e-24
3.87768e-23
7.31038e-22
1.05316e-20
1.1411e-19
9.1288e-19
5.30557e-18
2.21471e-17
6.56566e-17
1.36534e-16
2.03293e-16
2.1929e-16
1.70745e-16
9.46332e-17
3.62344e-17
9.267e-18
1.90886e-18
3.89251e-19
7.65702e-20
1.42551e-20
2.47106e-21
3.92544e-22
5.61985e-23
7.11378e-24
7.77416e-25
7.10349e-26
5.18367e-27
2.81232e-28
9.95822e-30
6.12353e-77
9.8538e-73
6.39631e-69
2.5148e-65
7.35161e-62
1.5939e-58
2.40065e-55
2.38835e-52
1.59874e-49
7.70401e-47
2.69428e-44
7.11881e-42
1.46856e-39
2.37009e-37
3.05907e-35
3.1853e-33
2.67915e-31
1.81944e-29
1.00202e-27
4.41391e-26
1.56116e-24
4.37103e-23
9.67726e-22
1.67043e-20
2.22602e-19
2.25667e-18
1.70891e-17
9.52087e-17
3.86547e-16
1.12592e-15
2.32594e-15
3.50203e-15
3.91019e-15
3.24148e-15
1.97599e-15
8.60815e-16
2.57685e-16
6.01416e-17
1.38373e-17
3.06198e-18
6.40147e-19
1.24484e-19
2.217e-20
3.5569e-21
5.04333e-22
6.16842e-23
6.29797e-24
5.12054e-25
3.07873e-26
1.19455e-27
6.64396e-74
1.03668e-69
6.08474e-66
2.05384e-62
5.02412e-59
8.59582e-56
9.72004e-53
7.07788e-50
3.53908e-47
1.32111e-44
3.65628e-42
7.80215e-40
1.31772e-37
1.75593e-35
1.8902e-33
1.65347e-31
1.17984e-29
6.87307e-28
3.28239e-26
1.26839e-24
3.97533e-23
9.96254e-22
1.99107e-20
3.13303e-19
3.84472e-18
3.63097e-17
2.59228e-16
1.37942e-15
5.434e-15
1.5481e-14
3.16002e-14
4.7799e-14
5.48048e-14
4.79367e-14
3.18387e-14
1.56486e-14
5.45521e-15
1.43709e-15
3.71995e-16
9.24513e-17
2.16893e-17
4.72928e-18
9.43581e-19
1.6943e-19
2.68551e-20
3.66583e-21
4.16695e-22
3.7568e-23
2.48685e-24
1.04594e-25
8.28995e-71
1.25017e-66
6.48648e-63
1.80927e-59
3.30734e-56
4.19889e-53
3.56461e-50
2.00958e-47
7.85591e-45
2.23461e-42
4.73554e-40
7.9892e-38
1.08385e-35
1.17692e-33
1.04626e-31
7.61448e-30
4.56449e-28
2.25726e-26
9.24717e-25
3.1052e-23
8.55556e-22
1.90752e-20
3.42314e-19
4.88654e-18
5.49497e-17
4.81082e-16
3.22354e-15
1.63202e-14
6.22613e-14
1.72575e-13
3.46109e-13
5.2249e-13
6.10153e-13
5.57912e-13
3.99785e-13
2.19645e-13
8.86209e-14
2.63173e-14
7.64944e-15
2.13637e-15
5.63515e-16
1.38077e-16
3.09132e-17
6.21599e-18
1.10063e-18
1.67354e-19
2.11147e-20
2.10235e-21
1.52374e-22
6.88109e-24
9.94562e-68
1.34676e-63
5.73873e-60
1.24961e-56
1.68453e-53
1.59084e-50
1.03909e-47
4.64805e-45
1.4658e-42
3.37896e-40
5.8579e-38
7.84332e-36
8.347e-34
7.26456e-32
5.26386e-30
3.15408e-28
1.57542e-26
6.55329e-25
2.27922e-23
6.5812e-22
1.5785e-20
3.10603e-19
4.97238e-18
6.40389e-17
6.56403e-16
5.29907e-15
3.31612e-14
1.59087e-13
5.87235e-13
1.57368e-12
3.08248e-12
4.6134e-12
5.44135e-12
5.15197e-12
3.94278e-12
2.39709e-12
1.11076e-12
3.75827e-13
1.22347e-13
3.84045e-14
1.1375e-14
3.12327e-15
7.81888e-16
1.75428e-16
3.45838e-17
5.84065e-18
8.15959e-19
8.95282e-20
7.08406e-21
3.41061e-22
9.36198e-65
1.08295e-60
3.70138e-57
6.25001e-54
6.42727e-51
4.49395e-48
2.27862e-45
8.22468e-43
2.1285e-40
4.07457e-38
5.92186e-36
6.67286e-34
5.93067e-32
4.21775e-30
2.44716e-28
1.19056e-26
4.90614e-25
1.70124e-23
4.98057e-22
1.22423e-20
2.52957e-19
4.34923e-18
6.16076e-17
7.11156e-16
6.60621e-15
4.88953e-14
2.84261e-13
1.28682e-12
4.59979e-12
1.18253e-11
2.24797e-11
3.31388e-11
3.91443e-11
3.80049e-11
3.07437e-11
2.04622e-11
1.0787e-11
4.24608e-12
1.54821e-12
5.44723e-13
1.802e-13
5.5085e-14
1.53248e-14
3.81774e-15
8.35241e-16
1.56411e-16
2.41829e-17
2.92366e-18
2.52266e-19
1.286e-20
6.31787e-62
6.10059e-58
1.67249e-54
2.21877e-51
1.77465e-48
9.58207e-46
3.76224e-43
1.10276e-40
2.37123e-38
3.81251e-36
4.69307e-34
4.50789e-32
3.43001e-30
2.09213e-28
1.0329e-26
4.16782e-25
1.39477e-23
3.98671e-22
9.73651e-21
2.01966e-19
3.56112e-18
5.29135e-17
6.56795e-16
6.74069e-15
5.63793e-14
3.80247e-13
2.04222e-12
8.6865e-12
3.01768e-11
7.36869e-11
1.35042e-10
1.94859e-10
2.28576e-10
2.25303e-10
1.90677e-10
1.37394e-10
8.14961e-11
3.75913e-11
1.53319e-11
6.00627e-12
2.20751e-12
7.49184e-13
2.3143e-13
6.40533e-14
1.55749e-14
3.24032e-15
5.55453e-16
7.40584e-17
6.95733e-18
3.71917e-19
2.98358e-59
2.39858e-55
5.34594e-52
5.68318e-49
3.61158e-46
1.54635e-43
4.78499e-41
1.12978e-38
2.03421e-36
2.76991e-34
2.90851e-32
2.3971e-30
1.5725e-28
8.3017e-27
3.55771e-25
1.24618e-23
3.58831e-22
8.55087e-21
1.71484e-19
2.9782e-18
4.44089e-17
5.64398e-16
6.07491e-15
5.4898e-14
4.10226e-13
2.50445e-12
1.23531e-11
4.91549e-11
1.67267e-10
3.82877e-10
6.7196e-10
9.43364e-10
1.09009e-09
1.07962e-09
9.46288e-10
7.29939e-10
4.81179e-10
2.57161e-10
1.17024e-10
5.099e-11
2.08266e-11
7.8553e-12
2.69754e-12
8.30041e-13
2.24286e-13
5.17814e-14
9.81945e-15
1.43892e-15
1.4636e-16
8.08522e-18
9.76484e-57
6.59184e-53
1.21877e-49
1.06216e-46
5.47814e-44
1.89635e-41
4.7481e-39
9.01168e-37
1.35131e-34
1.56964e-32
1.41512e-30
1.00646e-28
5.72171e-27
2.62705e-25
9.82085e-24
3.00839e-22
7.58937e-21
1.58317e-19
2.74093e-18
3.9633e-17
4.93216e-16
5.31423e-15
4.91063e-14
3.86667e-13
2.55725e-12
1.40259e-11
6.31354e-11
2.33973e-10
7.90782e-10
1.66715e-09
2.78718e-09
3.77973e-09
4.27497e-09
4.2078e-09
3.7831e-09
3.08911e-09
2.23275e-09
1.36381e-09
6.90924e-10
3.3479e-10
1.52099e-10
6.37878e-11
2.43301e-11
8.30346e-12
2.48453e-12
6.33926e-13
1.32448e-13
2.12534e-14
2.33121e-15
1.31105e-16
2.21967e-54
1.27523e-50
1.99382e-47
1.45568e-44
6.23095e-42
1.77727e-39
3.66003e-37
5.72508e-35
7.03357e-33
6.96619e-31
5.42571e-29
3.34871e-27
1.6581e-25
6.65125e-24
2.17808e-22
5.85761e-21
1.2998e-19
2.38863e-18
3.64635e-17
4.63658e-16
4.92859e-15
4.43823e-14
3.48904e-13
2.36928e-12
1.37219e-11
6.70194e-11
2.73366e-10
9.38976e-10
3.22095e-09
6.10722e-09
9.72144e-09
1.25512e-08
1.38898e-08
1.34416e-08
1.22907e-08
1.05021e-08
8.19873e-09
5.62845e-09
3.19253e-09
1.71319e-09
8.64569e-10
4.02303e-10
1.69867e-10
6.40253e-11
2.11146e-11
5.92668e-12
1.3588e-12
2.37944e-13
2.80283e-14
1.57233e-15
3.49439e-52
1.72858e-48
2.32405e-45
1.45235e-42
5.28512e-40
1.27077e-37
2.19068e-35
2.86219e-33
2.94e-31
2.43561e-29
1.64508e-27
8.85941e-26
3.83978e-24
1.35178e-22
3.89353e-21
9.22707e-20
1.80705e-18
2.93467e-17
3.96308e-16
4.4609e-15
4.1949e-14
3.30465e-13
2.1938e-12
1.26826e-11
6.36607e-11
2.74107e-10
1.00462e-09
3.18135e-09
1.14106e-08
1.88175e-08
2.87122e-08
3.41112e-08
3.73954e-08
3.55616e-08
3.28962e-08
2.90189e-08
2.40288e-08
1.8164e-08
1.18533e-08
7.00003e-09
3.88209e-09
1.98104e-09
9.16429e-10
3.78369e-10
1.36689e-10
4.20162e-11
1.0532e-11
2.00548e-12
2.52312e-13
1.37189e-14
3.85583e-50
1.65869e-46
1.94067e-43
1.05453e-40
3.32631e-38
6.89251e-36
1.01616e-33
1.12754e-31
9.80607e-30
6.87205e-28
3.9598e-26
1.86991e-24
7.12943e-23
2.21277e-21
5.629e-20
1.17989e-18
2.04616e-17
2.94519e-16
3.52747e-15
3.52315e-14
2.94041e-13
2.05536e-12
1.20693e-11
5.9852e-11
2.56124e-10
9.6253e-10
3.13747e-09
9.10486e-09
3.53637e-08
4.80132e-08
6.91104e-08
7.39441e-08
7.99483e-08
7.92935e-08
7.4379e-08
6.62933e-08
5.67809e-08
4.60837e-08
3.40396e-08
2.21609e-08
1.34808e-08
7.53496e-09
3.81553e-09
1.72362e-09
6.80885e-10
2.286e-10
6.24229e-11
1.28607e-11
1.71412e-12
8.69163e-14
3.00172e-48
1.13525e-44
1.16843e-41
5.5855e-39
1.54854e-36
2.81306e-34
3.61834e-32
3.47924e-30
2.60426e-28
1.56431e-26
7.70148e-25
3.1592e-23
1.0649e-21
2.92764e-20
6.60594e-19
1.22945e-17
1.89448e-16
2.42405e-15
2.58144e-14
2.29246e-13
1.70092e-12
1.05668e-11
5.51214e-11
2.42429e-10
9.04695e-10
2.90984e-09
8.32931e-09
2.20036e-08
9.55138e-08
9.66275e-08
7.60694e-08
8.09249e-08
8.66987e-08
1.40604e-07
1.4929e-07
1.28098e-07
1.09307e-07
9.24145e-08
7.47537e-08
5.38709e-08
3.6114e-08
2.21992e-08
1.23292e-08
6.09242e-09
2.62618e-09
9.59649e-10
2.84156e-10
6.29906e-11
8.82328e-12
3.97301e-13
1.65194e-46
5.55749e-43
5.08821e-40
2.16355e-37
5.3331e-35
8.60388e-33
9.80475e-31
8.31704e-29
5.45839e-27
2.85587e-25
1.21914e-23
4.31479e-22
1.28388e-20
3.14216e-19
6.31805e-18
1.04847e-16
1.44095e-15
1.64437e-14
1.56128e-13
1.23548e-12
8.1621e-12
4.51089e-11
2.09139e-10
8.16733e-10
2.70258e-09
7.64644e-09
1.88544e-08
4.47003e-08
2.19699e-07
1.0409e-07
9.67474e-07
3.0005e-06
1.54687e-06
3.85719e-07
2.84168e-07
2.12505e-07
1.72219e-07
1.47441e-07
1.27033e-07
1.02951e-07
7.58507e-08
5.12654e-08
3.12283e-08
1.68739e-08
7.92957e-09
3.14856e-09
1.0085e-09
2.39703e-10
3.50529e-11
1.31034e-12
6.43602e-45
1.94781e-41
1.60394e-38
6.13395e-36
1.35951e-33
1.97067e-31
2.01495e-29
1.52977e-27
8.9493e-26
4.15007e-24
1.56049e-22
4.8433e-21
1.25593e-19
2.74642e-18
4.94654e-17
7.35427e-16
9.05359e-15
9.24966e-14
7.85567e-13
5.55384e-12
3.27316e-11
1.61099e-10
6.63938e-10
2.30034e-09
6.73792e-09
1.68172e-08
3.63902e-08
7.54447e-08
3.98585e-07
1.83868e-06
9.3469e-06
1.06076e-05
1.03396e-05
6.597e-06
4.83671e-07
2.92949e-07
2.20176e-07
1.8983e-07
1.7142e-07
1.53496e-07
1.25644e-07
9.37207e-08
6.27785e-08
3.71794e-08
1.90815e-08
8.23971e-09
2.85335e-09
7.25398e-10
1.09686e-10
3.41389e-12
1.77658e-43
4.88954e-40
3.65988e-37
1.2725e-34
2.56412e-32
3.37784e-30
3.13583e-28
2.15803e-26
1.1413e-24
4.76488e-23
1.60392e-21
4.42935e-20
1.01763e-18
1.9641e-17
3.18628e-16
4.26754e-15
4.72979e-14
4.34592e-13
3.31475e-12
2.10072e-11
1.10733e-10
4.86195e-10
1.78233e-09
5.47475e-09
1.41575e-08
3.09704e-08
5.7542e-08
8.25621e-08
1.31617e-06
9.63332e-06
1.0606e-05
1.06131e-05
1.06033e-05
9.13746e-06
6.61476e-07
3.06021e-07
2.29091e-07
2.06244e-07
1.95486e-07
1.85861e-07
1.67351e-07
1.38107e-07
1.02385e-07
6.68627e-08
3.76452e-08
1.7722e-08
6.63602e-09
1.79982e-09
2.78327e-10
8.47831e-12
3.46057e-42
8.75992e-39
6.02734e-36
1.92678e-33
3.57008e-31
4.32365e-29
3.68771e-27
2.32883e-25
1.12806e-23
4.30121e-22
1.31664e-20
3.28702e-19
6.78179e-18
1.16901e-16
1.69852e-15
2.06227e-14
2.07003e-13
1.71994e-12
1.18386e-11
6.75396e-11
3.19539e-10
1.25504e-09
4.10053e-09
1.11811e-08
2.55457e-08
4.89884e-08
7.79655e-08
8.89887e-08
1.98258e-06
9.97012e-06
1.0335e-05
9.4449e-06
5.70614e-06
3.73201e-07
2.42117e-07
2.35978e-07
2.14813e-07
2.08952e-07
2.07503e-07
2.04582e-07
1.96939e-07
1.75986e-07
1.43026e-07
1.02662e-07
6.33573e-08
3.24917e-08
1.31249e-08
3.77747e-09
5.88694e-10
2.37298e-11
4.73468e-41
1.11499e-37
7.13424e-35
2.12165e-32
3.65816e-30
4.12249e-28
3.27026e-26
1.91893e-24
8.62349e-23
3.04376e-21
8.59818e-20
1.97219e-18
3.71587e-17
5.80727e-16
7.58737e-15
8.36019e-14
7.65177e-13
5.78528e-12
3.61403e-11
1.86536e-10
7.95612e-10
2.80647e-09
8.2046e-09
1.99569e-08
4.06257e-08
6.97184e-08
1.01603e-07
1.28782e-07
8.68437e-07
5.15e-07
7.90482e-07
2.39794e-07
2.33416e-07
2.32503e-07
2.3311e-07
2.21233e-07
2.10545e-07
2.12136e-07
2.18519e-07
2.19258e-07
2.17724e-07
2.0653e-07
1.79435e-07
1.38352e-07
9.20846e-08
5.09569e-08
2.20854e-08
6.71149e-09
1.03937e-09
8.55222e-11
4.48115e-40
9.95742e-37
6.00948e-34
1.68607e-31
2.74286e-29
2.91557e-27
2.18021e-25
1.20469e-23
5.09044e-22
1.68604e-20
4.45763e-19
9.53612e-18
1.66796e-16
2.40501e-15
2.87801e-14
2.87178e-13
2.40816e-12
1.66825e-11
9.51723e-11
4.46912e-10
1.72728e-09
5.5001e-09
1.44729e-08
3.16634e-08
5.81921e-08
9.13918e-08
1.26507e-07
1.59473e-07
1.59772e-07
1.61558e-07
1.68708e-07
2.6927e-07
5.03876e-07
2.41212e-07
2.5523e-07
2.2327e-07
2.16906e-07
2.91728e-07
2.27822e-07
2.30919e-07
2.31336e-07
2.24396e-07
1.90274e-07
1.47217e-07
1.08061e-07
6.73567e-08
3.20842e-08
1.02924e-08
1.54251e-09
2.85582e-10
2.85541e-39
6.0939e-36
3.53156e-33
9.51457e-31
1.48581e-28
1.51501e-26
1.08546e-24
5.73743e-23
2.31449e-21
7.30094e-20
1.83311e-18
3.71149e-17
6.1182e-16
8.26959e-15
9.21379e-14
8.49817e-13
6.50367e-12
4.15416e-11
2.17861e-10
9.36459e-10
3.29947e-09
9.5466e-09
2.27943e-08
4.53351e-08
7.62319e-08
1.10581e-07
1.41669e-07
1.64848e-07
1.82897e-07
1.73897e-07
9.67583e-07
5.8153e-06
6.67603e-06
1.26617e-06
2.32039e-07
2.32166e-07
2.28045e-07
2.28696e-07
2.38683e-07
2.38815e-07
2.42897e-07
2.35141e-07
2.41911e-07
1.98857e-07
1.46015e-07
9.01587e-08
4.3579e-08
1.3968e-08
1.92018e-09
7.34892e-10
1.17632e-38
2.46681e-35
1.40441e-32
3.71513e-30
5.69084e-28
5.68361e-26
3.98078e-24
2.05188e-22
8.04818e-21
2.46018e-19
5.96336e-18
1.16082e-16
1.83132e-15
2.35648e-14
2.48374e-13
2.15009e-12
1.53172e-11
8.9883e-11
4.36362e-10
1.72993e-09
5.60238e-09
1.4873e-08
3.26171e-08
5.98906e-08
9.39646e-08
1.29392e-07
1.61369e-07
1.88047e-07
1.88685e-07
5.27372e-07
6.4204e-06
8.12106e-06
8.12306e-06
3.79376e-06
2.32052e-07
2.35282e-07
2.37178e-07
2.45182e-07
2.48686e-07
2.43754e-07
2.4618e-07
2.40364e-07
3.32809e-07
3.72338e-07
2.04613e-07
1.13403e-07
5.48517e-08
1.61505e-08
1.99288e-09
1.39219e-09
2.96666e-38
6.28508e-35
3.6146e-32
9.6488e-30
1.48889e-27
1.49446e-25
1.04887e-23
5.39835e-22
2.10552e-20
6.36996e-19
1.52023e-17
2.89728e-16
4.44846e-15
5.53634e-14
5.60673e-13
4.62955e-12
3.11892e-11
1.71533e-10
7.71061e-10
2.84811e-09
8.58477e-09
2.12233e-08
4.34863e-08
7.50788e-08
1.11784e-07
1.47791e-07
1.79298e-07
2.06002e-07
2.02321e-07
1.12188e-06
8.11788e-06
8.11979e-06
8.0911e-06
1.59099e-06
2.32211e-07
2.37339e-07
2.40673e-07
2.48502e-07
2.53184e-07
2.47907e-07
2.54722e-07
2.56165e-07
3.4819e-07
3.64736e-07
1.70361e-07
1.2385e-07
5.86904e-08
1.50019e-08
1.96951e-09
2.00493e-09
4.27688e-38
9.45812e-35
5.67578e-32
1.57832e-29
2.53108e-27
2.63214e-25
1.90666e-23
1.00819e-21
4.0182e-20
1.23464e-18
2.97222e-17
5.67181e-16
8.65194e-15
1.06128e-13
1.05096e-12
8.4213e-12
5.46541e-11
2.8735e-10
1.22522e-09
4.25224e-09
1.21242e-08
2.84452e-08
5.54714e-08
9.14036e-08
1.30114e-07
1.64457e-07
1.90247e-07
2.08079e-07
2.11873e-07
2.55291e-07
4.46454e-06
8.11767e-06
5.54887e-06
2.37195e-07
2.35792e-07
2.51228e-07
3.82238e-07
2.66005e-07
2.68598e-07
2.61286e-07
2.88836e-07
4.53501e-07
3.94636e-07
5.35612e-07
1.85693e-07
1.16669e-07
5.05301e-08
1.29748e-08
2.10557e-09
2.46918e-09
3.19629e-38
7.68603e-35
5.00265e-32
1.50395e-29
2.59827e-27
2.8995e-25
2.24355e-23
1.26039e-21
5.30334e-20
1.70787e-18
4.27419e-17
8.40412e-16
1.30853e-14
1.62251e-13
1.60874e-12
1.27929e-11
8.17707e-11
4.2086e-10
1.74741e-09
5.87215e-09
1.60791e-08
3.63179e-08
6.82601e-08
1.07992e-07
1.46841e-07
1.76311e-07
1.92564e-07
1.95781e-07
2.67362e-07
2.25853e-07
5.13203e-07
5.45738e-06
6.08431e-06
2.43223e-07
2.40548e-07
2.55673e-07
1.53651e-06
7.3087e-06
7.19982e-06
6.11149e-06
1.11405e-05
3.30866e-06
7.11252e-08
1.46906e-07
1.65475e-07
8.42647e-08
3.24822e-08
8.32857e-09
2.23311e-09
2.48117e-09
1.09151e-38
3.01505e-35
2.23184e-32
7.57292e-30
1.46794e-27
1.82839e-25
1.57069e-23
9.73839e-22
4.49137e-20
1.57293e-18
4.24325e-17
8.90716e-16
1.46555e-14
1.90033e-13
1.95006e-12
1.58925e-11
1.03199e-10
5.35709e-10
2.23072e-09
7.47828e-09
2.02696e-08
4.47192e-08
8.13026e-08
1.23953e-07
1.61905e-07
1.87761e-07
2.01593e-07
2.07437e-07
2.09043e-07
2.18024e-07
2.26287e-07
3.99984e-07
6.5369e-06
7.83683e-06
2.55757e-07
3.25522e-07
5.8772e-07
2.54589e-05
7.16037e-05
9.78793e-05
5.7811e-05
0.000126469
5.28888e-06
2.3106e-08
1.09476e-08
7.37195e-12
-9.93207e-10
-5.14245e-08
-1.74868e-07
-8.50733e-09
1.54787e-39
5.29915e-36
4.71991e-33
1.89497e-30
4.30438e-28
6.244e-26
6.21633e-24
4.44337e-22
2.34757e-20
9.34428e-19
2.83827e-17
6.63712e-16
1.20249e-14
1.69619e-13
1.87047e-12
1.61874e-11
1.10374e-10
5.95447e-10
2.55271e-09
8.73291e-09
2.39298e-08
5.27379e-08
9.42304e-08
1.39088e-07
1.75762e-07
1.98785e-07
2.11158e-07
2.16959e-07
2.16314e-07
2.19631e-07
2.22128e-07
2.3229e-07
2.88675e-06
1.65132e-05
1.63472e-05
5.03995e-06
1.06024e-05
3.80555e-05
0.000155662
0.000303618
0.000799482
0.000890899
1.29896e-06
1.33625e-07
1.74332e-08
5.47362e-09
-5.57778e-10
0.00976684
0.0778783
0.106131
8.76883e-41
4.12418e-37
4.6813e-34
2.31059e-31
6.34547e-29
1.10562e-26
1.31972e-24
1.1302e-22
7.13971e-21
3.38248e-19
1.21368e-17
3.31852e-16
6.94392e-15
1.11586e-13
1.38183e-12
1.32357e-11
9.84538e-11
5.71117e-10
2.59356e-09
9.24881e-09
2.59624e-08
5.75725e-08
1.01803e-07
1.46843e-07
1.80244e-07
2.00548e-07
2.15325e-07
2.35252e-07
2.19839e-07
2.19197e-07
2.26856e-07
2.40787e-07
2.45694e-07
6.34e-07
3.30017e-05
5.73716e-05
0.000131288
0.000267538
0.000811017
0.000731293
0.000849604
0.00212625
0.0051701
0.034609
0.153588
0.374881
0.603735
0.794928
0.859851
0.900448
2.03776e-42
1.50253e-38
2.29822e-35
1.43698e-32
4.84652e-30
1.02366e-27
1.48083e-25
1.54675e-23
1.2016e-21
7.04486e-20
3.13417e-18
1.05877e-16
2.71309e-15
5.26886e-14
7.75497e-13
8.65978e-12
7.34806e-11
4.7437e-10
2.3294e-09
8.67422e-09
2.43128e-08
5.04793e-08
7.33198e-08
1.00483e-07
1.18654e-07
1.57733e-07
2.02763e-07
2.10672e-07
2.42599e-07
2.18175e-07
2.22525e-07
2.31957e-07
2.45743e-07
3.27872e-07
5.63133e-05
0.000158387
0.000281665
0.000833767
0.00110087
0.00091782
0.00220046
0.0495444
0.237532
0.514922
0.847557
0.993626
1
1
1
1
2.08298e-44
3.17633e-40
7.21747e-37
5.81507e-34
2.36445e-31
5.83123e-29
9.74464e-27
1.19036e-24
1.10925e-22
8.01385e-21
4.52304e-19
1.96478e-17
6.51291e-16
1.63089e-14
3.05897e-13
4.27503e-12
4.44358e-11
3.43953e-10
1.99021e-09
8.64594e-09
2.78789e-08
5.82653e-08
1.39094e-07
9.77791e-08
1.00594e-07
3.41369e-07
2.50246e-07
2.02219e-07
2.08781e-07
2.12046e-07
2.2116e-07
2.43149e-07
2.89693e-07
1.10424e-06
0.00010978
0.000256153
0.000811754
0.00081617
0.000963341
0.00235426
0.095276
0.413876
0.78784
0.984578
1
1
1
1
1
1
1.70815e-46
6.30538e-42
2.12696e-38
2.1953e-35
1.07205e-32
3.08168e-30
5.91815e-28
8.2172e-26
8.63708e-24
7.03586e-22
4.47468e-20
2.21541e-18
8.80747e-17
2.89476e-15
7.38085e-14
1.39819e-12
1.93775e-11
1.94292e-10
1.39907e-09
7.17724e-09
2.58045e-08
6.30479e-08
7.85535e-08
1.49132e-06
3.37128e-06
7.8119e-07
2.02318e-07
2.07575e-07
2.15293e-07
2.1621e-07
2.26405e-07
5.66812e-07
3.5358e-06
4.4158e-06
0.000177762
0.000552668
0.000879536
0.000871412
0.000919163
0.128796
0.586824
0.932255
0.99975
0.999981
1
1
1
1
1
1
1.26062e-48
1.12082e-43
5.64941e-40
7.49276e-37
4.40081e-34
1.47442e-31
3.25054e-29
5.13638e-27
6.12169e-25
5.65171e-23
4.06917e-21
2.30673e-19
1.07394e-17
4.05986e-16
1.19093e-14
2.71143e-13
4.99626e-12
7.15027e-11
7.12805e-10
4.84348e-09
2.21723e-08
6.88885e-08
8.19122e-08
5.99603e-06
1.448e-05
2.50088e-06
2.02091e-07
2.08624e-07
2.17722e-07
2.21694e-07
2.31842e-07
2.96096e-07
1.59256e-05
7.33806e-05
0.000402991
0.000848776
0.000935511
0.000919165
0.151597
0.676097
0.989075
0.999832
0.999985
1
1
1
1
1
1
1
8.02742e-51
1.77943e-45
1.34965e-41
2.30548e-38
1.63048e-35
6.36889e-33
1.61164e-30
2.90203e-28
3.93703e-26
4.14194e-24
3.4016e-22
2.21193e-20
1.18797e-18
5.18186e-17
1.75368e-15
4.74148e-14
1.06305e-12
1.81081e-11
2.27584e-10
2.11789e-09
1.33467e-08
5.28941e-08
9.36608e-08
9.16854e-06
1.44883e-05
1.03326e-05
2.0206e-07
2.05902e-07
2.13106e-07
2.29337e-07
2.35204e-07
2.59053e-07
1.67962e-05
0.000271033
0.000653919
0.000843564
0.000944059
0.139432
0.688254
0.997813
0.999952
0.999989
0.999999
1
1
1
1
1
1
1
4.43219e-53
2.53356e-47
2.89325e-43
6.36068e-40
5.41608e-37
2.46805e-34
7.17929e-32
1.47782e-29
2.29389e-27
2.76566e-25
2.60816e-23
1.95008e-21
1.20192e-19
6.06636e-18
2.38146e-16
7.52954e-15
2.00332e-13
4.04417e-12
6.2379e-11
7.41429e-10
5.87987e-09
3.01736e-08
1.74814e-08
6.29285e-06
1.45211e-05
1.45481e-05
5.80564e-07
2.06255e-07
2.1611e-07
2.2503e-07
2.43683e-07
4.44492e-07
4.1146e-06
0.000409283
0.000438686
0.00100928
0.11044
0.613697
0.991754
0.999952
0.999986
0.999999
1
1
1
1
1
1
1
1
2.15018e-55
3.20936e-49
5.48735e-45
1.54798e-41
1.58572e-38
8.43798e-36
2.82914e-33
6.68652e-31
1.19413e-28
1.65895e-26
1.80717e-24
1.56145e-22
1.10837e-20
6.49747e-19
2.97187e-17
1.09284e-15
3.41682e-14
8.16183e-13
1.50987e-11
2.20134e-10
2.15725e-09
1.40164e-08
1.43358e-08
1.22219e-06
1.45487e-05
1.45481e-05
1.14314e-06
2.07252e-07
2.19494e-07
2.29785e-07
2.99147e-07
2.78281e-06
4.99353e-06
0.000731274
0.000696778
0.0565126
0.466467
0.944076
0.999865
0.999989
0.999999
1
1
1
1
1
1
1
1
1
9.17238e-58
3.53016e-51
8.95625e-47
3.22932e-43
3.97565e-40
2.47351e-37
9.59107e-35
2.61577e-32
5.40567e-30
8.70467e-28
1.10256e-25
1.10955e-23
9.14656e-22
6.25625e-20
3.34975e-18
1.43736e-16
5.26858e-15
1.48739e-13
3.26914e-12
5.73954e-11
6.86981e-10
5.52475e-09
1.79012e-08
2.32242e-08
4.01468e-06
1.45464e-05
1.22902e-05
3.63445e-07
2.4092e-07
2.37586e-07
2.63984e-07
1.17058e-06
2.33311e-05
0.00302405
0.0123527
0.27874
0.844312
0.999794
0.999991
0.999999
1
1
1
1
1
1
1
1
1
1
3.36667e-60
3.23591e-53
1.20558e-48
5.53174e-45
8.17472e-42
5.95489e-39
2.68042e-36
8.48416e-34
2.04251e-31
3.84169e-29
5.70768e-27
6.76046e-25
6.54469e-23
5.25857e-21
3.31853e-19
1.67495e-17
7.20776e-16
2.40609e-14
6.2775e-13
1.31485e-11
1.90581e-10
1.86942e-09
9.85559e-09
3.58838e-08
3.46913e-08
7.54155e-06
1.22272e-05
4.85289e-06
2.47875e-07
2.64466e-07
3.13246e-07
7.25019e-07
4.8278e-07
0.000554053
0.0907449
0.618378
0.999749
0.999993
1
1
1
1
1
1
1
1
1
1
1
1
1.01306e-62
2.32275e-55
1.25511e-50
7.28827e-47
1.29039e-43
1.10197e-40
5.78374e-38
2.14029e-35
6.0587e-33
1.34631e-30
2.37665e-28
3.36065e-26
3.87669e-24
3.69921e-22
2.78074e-20
1.66914e-18
8.47562e-17
3.35707e-15
1.04259e-13
2.59375e-12
4.5273e-11
5.36867e-10
3.80127e-09
1.54185e-08
2.80266e-08
2.94217e-08
8.68177e-06
8.59172e-06
6.71117e-06
1.16472e-06
5.91697e-07
1.04666e-06
5.05486e-09
-2.00992e-07
0.251482
0.917204
1
1
1
1
1
1
1
1
1
1
1
1
1
1
2.34483e-65
1.17971e-57
9.06752e-53
6.6007e-49
1.39459e-45
1.39766e-42
8.60942e-40
3.76884e-37
1.2747e-34
3.41262e-32
7.31293e-30
1.26179e-27
1.77216e-25
2.0458e-23
1.86305e-21
1.35042e-19
8.17714e-18
3.87296e-16
1.4396e-14
4.25415e-13
8.92299e-12
1.27377e-10
1.13031e-09
5.36379e-09
1.28016e-08
1.8935e-08
2.48606e-07
1.34519e-06
4.33069e-06
4.30068e-06
4.22928e-06
7.84642e-08
-2.20139e-07
-5.28898e-08
0.572719
1
1
1
1
1
1
1
1
1
1
1
1
1
1
1
4.59803e-68
2.5267e-59
7.86419e-54
1.22901e-49
3.53717e-46
3.22649e-43
1.21748e-40
2.28493e-38
2.92928e-36
5.57486e-34
1.43388e-31
3.12055e-29
5.54153e-27
8.01201e-25
9.10828e-23
8.17561e-21
6.02341e-19
3.46369e-17
1.55713e-15
5.49829e-14
1.38908e-12
2.38741e-11
2.58953e-10
1.47552e-09
4.28443e-09
1.16872e-08
1.55331e-08
2.64679e-08
1.20236e-07
8.51163e-07
7.47135e-07
1.61137e-08
-4.02714e-06
0.0219211
0.828495
1
1
1
1
1
1
1
1
1
1
1
1
1
1
1
1.25337e-65
2.33833e-56
8.83901e-51
1.39945e-46
3.8977e-43
3.50295e-40
1.39241e-37
2.9367e-35
3.6693e-33
2.87601e-31
1.41052e-29
3.84059e-28
6.26045e-27
8.68991e-26
3.79208e-24
3.35926e-22
2.99633e-20
2.14867e-18
1.19505e-16
5.12522e-15
1.57508e-13
3.27916e-12
4.32484e-11
3.01875e-10
1.08764e-09
3.35029e-09
8.31415e-09
1.87049e-08
2.67963e-08
1.48095e-08
5.00829e-09
-2.76848e-09
-8.85464e-10
0.134708
0.939935
1
1
1
1
1
1
1
1
1
1
1
1
1
1
1
9.89412e-63
9.65887e-54
2.26344e-48
2.58061e-44
5.69328e-41
4.34295e-38
1.55565e-35
3.13508e-33
3.99403e-31
3.48017e-29
2.19339e-27
1.03431e-25
3.70991e-24
1.01469e-22
2.0761e-21
2.92711e-20
2.4923e-19
2.62406e-18
3.21224e-17
5.15545e-16
1.25058e-14
2.90389e-13
4.62089e-12
3.99832e-11
1.78057e-10
5.99154e-10
1.68153e-09
3.92104e-09
6.0657e-09
7.68466e-09
6.75975e-09
-3.85695e-09
-1.26089e-09
0.180878
0.961464
1
1
1
1
1
1
1
1
1
1
1
1
1
1
1
1.11719e-69
1.0347e-69
8.27469e-67
4.36289e-64
1.69378e-61
5.2557e-59
1.3762e-56
3.15749e-54
6.47448e-52
1.18078e-49
1.85165e-47
2.33897e-45
2.15891e-43
1.32654e-41
5.84235e-40
1.42744e-38
1.75574e-37
1.15012e-36
4.11696e-36
8.18858e-36
9.50673e-36
6.66214e-36
2.85293e-36
7.39699e-37
1.18222e-37
1.22738e-38
8.63294e-40
4.20819e-41
1.44241e-42
3.48252e-44
5.81967e-46
6.71163e-48
5.33771e-50
2.93231e-52
1.10983e-54
3.02641e-57
6.33609e-60
1.09323e-62
1.61269e-65
2.03076e-68
2.16587e-71
2.00774e-74
1.66307e-77
1.18191e-80
6.95921e-84
3.5443e-87
1.56348e-90
4.78876e-94
6.50956e-98
1.71512e-102
1.07332e-59
7.43338e-61
2.34832e-58
4.53773e-56
6.36823e-54
7.09578e-52
6.62597e-50
5.38068e-48
3.9005e-46
2.56264e-44
1.52418e-42
7.99491e-41
3.49458e-39
1.18566e-37
3.22869e-36
5.3116e-35
4.94099e-34
2.63148e-33
8.02876e-33
1.41816e-32
1.52099e-32
1.01881e-32
4.28158e-33
1.11551e-33
1.83295e-34
1.9969e-35
1.50209e-36
7.9451e-38
2.97072e-39
7.8576e-41
1.45248e-42
1.8704e-44