/*--------------------------------*- C++ -*----------------------------------*\
| =========                 |                                                 |
| \\      /  F ield         | OpenFOAM: The Open Source CFD Toolbox           |
|  \\    /   O peration     | Version:  2.4.0                                 |
|   \\  /    A nd           | Web:      www.OpenFOAM.org                      |
|    \\/     M anipulation  |                                                 |
\*---------------------------------------------------------------------------*/
FoamFile
{
    version     2.0;
    format      ascii;
    class       surfaceScalarField;
    location    "0.112";
    object      phiAlpha;
}
// * * * * * * * * * * * * * * * * * * * * * * * * * * * * * * * * * * * * * //

dimensions      [0 3 -1 0 0 0 0];

internalField   nonuniform List<scalar> 
114720
(
-2.97778e-09
2.97858e-09
5.89324e-09
-5.89404e-09
7.41658e-09
-8.23412e-09
-2.64881e-10
1.08243e-09
8.92052e-09
-8.48279e-09
3.17576e-10
-7.55307e-10
5.14033e-09
-3.49614e-09
8.36902e-10
-2.48109e-09
-2.84741e-09
5.03116e-09
9.86046e-10
-3.1698e-09
-1.18316e-08
1.39012e-08
8.6902e-10
-2.93864e-09
-2.02851e-08
2.22561e-08
8.25806e-10
-2.79687e-09
-2.81239e-08
2.97877e-08
6.83802e-10
-2.34759e-09
-3.40517e-08
3.49926e-08
3.28208e-10
-1.26917e-09
-3.64782e-08
3.65e-08
-1.11613e-10
8.98655e-11
-3.54372e-08
3.47896e-08
-4.27598e-10
1.0752e-09
-3.18238e-08
3.05841e-08
-7.31795e-10
1.97151e-09
-2.56483e-08
2.37555e-08
-1.05969e-09
2.95248e-09
-1.6888e-08
1.4507e-08
-1.23788e-09
3.61884e-09
-6.80172e-09
4.41723e-09
-1.13855e-09
3.52303e-09
2.54363e-09
-4.5102e-09
-8.54061e-10
2.82063e-09
9.81788e-09
-1.12052e-08
-5.43603e-10
1.93091e-09
1.46983e-08
-1.55422e-08
-2.82644e-10
1.12651e-09
1.74815e-08
-1.78885e-08
-9.00046e-11
4.97012e-10
1.86195e-08
-1.86952e-08
4.75107e-11
2.8268e-11
1.85275e-08
-1.83622e-08
1.4299e-10
-3.08272e-10
1.75557e-08
-1.72243e-08
2.07413e-10
-5.38799e-10
1.59941e-08
-1.55575e-08
2.46896e-10
-6.83527e-10
1.40726e-08
-1.35774e-08
2.67032e-10
-7.62196e-10
1.1962e-08
-1.14401e-08
2.74142e-10
-7.96029e-10
9.7803e-09
-9.25465e-09
2.72012e-10
-7.97664e-10
7.60939e-09
-7.09609e-09
2.63378e-10
-7.76671e-10
5.51191e-09
-5.02436e-09
2.49294e-10
-7.36852e-10
3.53934e-09
-3.08829e-09
2.30339e-10
-6.81385e-10
1.72703e-09
-1.31768e-09
2.09154e-10
-6.185e-10
4.19113e-09
2.1251e-08
-1.7115e-08
-8.32721e-09
1.63673e-08
-4.46483e-09
-1.79848e-08
6.08232e-09
1.9753e-08
3.06531e-09
-1.9366e-08
-3.45228e-09
1.49482e-08
1.00472e-08
-1.25441e-08
-1.24513e-08
3.257e-09
1.27632e-08
1.34202e-10
-1.61544e-08
-1.07705e-08
1.24546e-08
1.42769e-08
-1.59609e-08
-2.50356e-08
1.20118e-08
2.85288e-08
-1.5505e-08
-3.87213e-08
9.96904e-09
4.17925e-08
-1.30402e-08
-4.98087e-08
5.60158e-09
5.18668e-08
-7.65972e-09
-5.62314e-08
7.33755e-10
5.70869e-08
-1.58917e-09
-5.83044e-08
-2.72523e-09
5.83025e-08
2.72714e-09
-5.7144e-08
-5.96315e-09
5.63713e-08
6.73578e-09
-5.26904e-08
-9.56198e-09
5.10366e-08
1.12158e-08
-4.46909e-08
-1.21974e-08
4.22606e-08
1.46277e-08
-3.42172e-08
-1.23461e-08
3.15046e-08
1.50587e-08
-2.34242e-08
-1.04411e-08
2.09227e-08
1.29425e-08
-1.39275e-08
-7.74255e-09
1.18773e-08
9.79276e-09
-6.39533e-09
-5.08949e-09
4.85893e-09
6.62589e-09
-9.27454e-10
-2.83416e-09
-1.2163e-10
3.88324e-09
2.6749e-09
-1.05408e-09
-3.31443e-09
1.69361e-09
4.75431e-09
2.67139e-10
-5.07697e-09
5.55262e-11
5.68999e-09
1.18002e-09
-5.78637e-09
-1.08364e-09
5.83203e-09
1.75994e-09
-5.77974e-09
-1.81223e-09
5.46825e-09
2.08997e-09
-5.32708e-09
-2.23115e-09
4.81414e-09
2.2448e-09
-4.62668e-09
-2.43226e-09
4.01966e-09
2.2786e-09
-3.8142e-09
-2.48406e-09
3.18146e-09
2.22709e-09
-2.97556e-09
-2.43299e-09
2.35995e-09
2.10755e-09
-2.1644e-09
-2.3031e-09
1.59099e-09
1.94262e-09
-1.41167e-09
-2.12194e-09
8.92479e-10
1.75241e-09
-7.31959e-10
-1.91293e-09
4.39523e-09
3.84112e-08
-3.40695e-08
-8.73691e-09
1.77705e-08
-1.13975e-08
-1.96134e-08
1.32404e-08
2.20534e-08
4.21007e-09
-2.18709e-08
-4.39253e-09
1.79347e-08
1.94609e-08
-1.56319e-08
-2.17636e-08
6.50604e-09
2.63206e-08
-3.12706e-09
-2.96996e-08
-7.53207e-09
2.65966e-08
1.10805e-08
-3.01451e-08
-2.20986e-08
2.62664e-08
2.57191e-08
-2.98869e-08
-3.64101e-08
2.2675e-08
3.96788e-08
-2.59437e-08
-4.83788e-08
1.43608e-08
5.06797e-08
-1.66617e-08
-5.58231e-08
4.75423e-09
5.69505e-08
-5.88157e-09
-5.90564e-08
-2.07798e-09
5.93608e-08
1.77357e-09
-5.91967e-08
-8.33242e-09
5.87686e-08
8.76055e-09
-5.6225e-08
-1.53345e-08
5.49752e-08
1.65844e-08
-4.99571e-08
-2.09567e-08
4.79904e-08
2.29234e-08
-4.14393e-08
-2.21883e-08
3.92363e-08
2.43914e-08
-3.27516e-08
-1.94887e-08
3.07731e-08
2.14672e-08
-2.52983e-08
-1.51878e-08
2.36989e-08
1.67872e-08
-1.93812e-08
-1.07905e-08
1.81452e-08
1.20265e-08
-1.48671e-08
-6.90874e-09
1.39457e-08
7.83009e-09
-1.15423e-08
-3.76175e-09
1.08772e-08
4.42687e-09
-9.16161e-09
-1.38446e-09
8.69033e-09
1.85574e-09
-7.47465e-09
2.80256e-10
7.13855e-09
5.58394e-11
-6.25355e-09
1.35056e-09
6.00085e-09
-1.09786e-09
-5.30482e-09
1.96384e-09
5.09404e-09
-1.75307e-09
-4.47409e-09
2.25159e-09
4.27356e-09
-2.05106e-09
-3.65112e-09
2.32264e-09
3.44139e-09
-2.11292e-09
-2.77743e-09
2.26017e-09
2.55275e-09
-2.03549e-09
-1.85046e-09
2.11547e-09
1.61755e-09
-1.88256e-09
-9.09367e-10
1.93029e-09
6.81062e-10
-1.70199e-09
-6.47845e-12
1.7305e-09
-2.05076e-10
-1.51894e-09
4.46304e-09
5.59467e-08
-5.15412e-08
-8.86851e-09
1.80453e-08
-1.88334e-08
-1.99184e-08
2.07065e-08
2.24821e-08
4.85655e-09
-2.23446e-08
-4.99404e-09
1.84865e-08
2.86553e-08
-1.61864e-08
-3.09554e-08
7.02724e-09
3.98445e-08
-3.63716e-09
-4.32346e-08
-7.01843e-09
4.07829e-08
1.05629e-08
-4.43273e-08
-2.16085e-08
4.07878e-08
2.5254e-08
-4.44334e-08
-3.60544e-08
3.58258e-08
3.93718e-08
-3.91432e-08
-4.82306e-08
2.36296e-08
5.05715e-08
-2.59706e-08
-5.57629e-08
9.28912e-09
5.68972e-08
-1.04234e-08
-5.90604e-08
-7.97638e-10
5.93963e-08
4.61715e-10
-5.9387e-08
-9.9459e-09
5.90158e-08
1.03171e-08
-5.66438e-08
-2.02497e-08
5.5436e-08
2.14574e-08
-5.044e-08
-2.88117e-08
4.84484e-08
3.08034e-08
-4.17782e-08
-3.09763e-08
3.95416e-08
3.32129e-08
-3.30305e-08
-2.72823e-08
3.1074e-08
2.92388e-08
-2.57453e-08
-2.13959e-08
2.42119e-08
2.29293e-08
-2.01131e-08
-1.55509e-08
1.8947e-08
1.6717e-08
-1.58563e-08
-1.04608e-08
1.49846e-08
1.13325e-08
-1.26927e-08
-6.34983e-09
1.20512e-08
6.99129e-09
-1.03722e-08
-3.25018e-09
9.90287e-09
3.71946e-09
-8.66805e-09
-1.086e-09
8.31889e-09
1.43517e-09
-7.37983e-09
2.88824e-10
7.10559e-09
-1.45905e-11
-6.33649e-09
1.04768e-09
6.10005e-09
-8.1124e-10
-5.39757e-09
1.3566e-09
5.16856e-09
-1.12759e-09
-4.45287e-09
1.36878e-09
4.2099e-09
-1.12582e-09
-3.4333e-09
1.22272e-09
3.16773e-09
-9.57156e-10
-2.32898e-09
1.02785e-09
2.04823e-09
-7.47097e-10
-1.18889e-09
8.57987e-10
9.10607e-10
-5.79704e-10
-8.72564e-11
7.36189e-10
-1.70766e-10
-4.78167e-10
4.53011e-09
7.37171e-08
-6.9251e-08
-8.99624e-09
1.82049e-08
-2.63304e-08
-2.00793e-08
2.82047e-08
2.26938e-08
5.36802e-09
-2.2582e-08
-5.47985e-09
1.87442e-08
3.78775e-08
-1.64278e-08
-4.0194e-08
7.17966e-09
5.34402e-08
-3.76406e-09
-5.68558e-08
-6.90496e-09
5.49529e-08
1.04438e-08
-5.84918e-08
-2.15116e-08
5.54055e-08
2.51817e-08
-5.90755e-08
-3.60902e-08
4.91705e-08
3.94602e-08
-5.25405e-08
-4.85001e-08
3.30544e-08
5.08845e-08
-3.54388e-08
-5.6088e-08
1.38084e-08
5.72088e-08
-1.49291e-08
-5.93716e-08
5.69943e-10
5.97236e-08
-9.21908e-10
-5.98523e-08
-1.13567e-08
5.95327e-08
1.16763e-08
-5.73295e-08
-2.50328e-08
5.61583e-08
2.6204e-08
-5.1087e-08
-3.69014e-08
4.90094e-08
3.8979e-08
-4.19541e-08
-4.01175e-08
3.95799e-08
4.24917e-08
-3.27062e-08
-3.52393e-08
3.06591e-08
3.72864e-08
-2.51255e-08
-2.76052e-08
2.35407e-08
2.91899e-08
-1.93055e-08
-2.02751e-08
1.8098e-08
2.14825e-08
-1.4881e-08
-1.40087e-08
1.39679e-08
1.49218e-08
-1.15464e-08
-8.97814e-09
1.08619e-08
9.66257e-09
-9.05119e-09
-5.18867e-09
8.53885e-09
5.70101e-09
-7.1781e-09
-2.53593e-09
6.78966e-09
2.92437e-09
-5.74669e-09
-8.41199e-10
5.44519e-09
1.14271e-09
-4.61902e-09
9.78789e-11
4.37413e-09
1.47012e-10
-3.68326e-09
4.73504e-10
3.47146e-09
-2.61704e-10
-2.85215e-09
4.68724e-10
2.65519e-09
-2.71756e-10
-2.0612e-09
2.65367e-10
1.86796e-09
-7.21256e-11
-1.28062e-09
3.05568e-11
1.09002e-09
1.60036e-10
-5.19613e-10
-1.22906e-10
3.38007e-10
3.04512e-10
1.93136e-10
-1.69346e-10
-3.58107e-10
3.34316e-10
4.61441e-09
9.17658e-08
-8.72238e-08
-9.15636e-09
1.83898e-08
-3.38234e-08
-2.02604e-08
3.5694e-08
2.29288e-08
5.7724e-09
-2.28471e-08
-5.85407e-09
1.90289e-08
4.71761e-08
-1.66898e-08
-4.95152e-08
7.32229e-09
6.71518e-08
-3.87238e-09
-7.06017e-08
-6.81195e-09
6.90966e-08
1.03419e-08
-7.26265e-08
-2.14335e-08
7.01292e-08
2.51335e-08
-7.38293e-08
-3.61737e-08
6.27458e-08
3.961e-08
-6.61821e-08
-4.88896e-08
4.26754e-08
5.13328e-08
-4.51186e-08
-5.65435e-08
1.82617e-08
5.76422e-08
-1.93603e-08
-5.97932e-08
2.0038e-09
6.01631e-08
-2.37365e-09
-6.04709e-08
-1.25462e-08
6.0212e-08
1.28052e-08
-5.82476e-08
-2.96329e-08
5.71397e-08
3.07408e-08
-5.20005e-08
-4.53651e-08
4.98156e-08
4.75499e-08
-4.2256e-08
-4.98681e-08
3.97026e-08
5.24216e-08
-3.23785e-08
-4.35767e-08
3.02297e-08
4.57255e-08
-2.44974e-08
-3.4011e-08
2.28705e-08
3.56379e-08
-1.85331e-08
-2.51548e-08
1.72961e-08
2.63918e-08
-1.39956e-08
-1.77065e-08
1.30569e-08
1.86452e-08
-1.05636e-08
-1.17596e-08
9.85682e-09
1.24664e-08
-7.9791e-09
-7.28414e-09
7.44329e-09
7.81995e-09
-6.00643e-09
-4.13789e-09
5.59302e-09
4.5513e-09
-4.47117e-09
-2.0936e-09
4.14421e-09
2.42056e-09
-3.24906e-09
-9.12086e-10
2.9863e-09
1.17485e-09
-2.26406e-09
-3.72942e-10
2.05171e-09
5.853e-10
-1.46811e-09
-2.74766e-10
1.29652e-09
4.46357e-10
-8.24779e-10
-4.1609e-10
6.85985e-10
5.54884e-10
-3.03904e-10
-6.03032e-10
1.91123e-10
7.15813e-10
1.21029e-10
-7.03767e-10
-2.14008e-10
7.96747e-10
4.73935e-10
-6.86957e-10
-5.52056e-10
7.65079e-10
4.7174e-09
1.10157e-07
-1.05524e-07
-9.3512e-09
1.86156e-08
-4.1296e-08
-2.0479e-08
4.31593e-08
2.32146e-08
6.04427e-09
-2.31714e-08
-6.08753e-09
1.93793e-08
5.65731e-08
-1.70121e-08
-5.89404e-08
7.4938e-09
8.1014e-08
-3.99996e-09
-8.45079e-08
-6.70031e-09
8.31983e-08
1.02171e-08
-8.67151e-08
-2.13356e-08
8.49826e-08
2.50726e-08
-8.87196e-08
-3.62703e-08
7.66086e-08
3.97882e-08
-8.01264e-08
-4.93777e-08
5.25581e-08
5.18984e-08
-5.50789e-08
-5.71053e-08
2.26087e-08
5.8169e-08
-2.36723e-08
-6.02915e-08
3.51486e-09
6.0684e-08
-3.90732e-09
-6.12169e-08
-1.34855e-08
6.10223e-08
1.368e-08
-5.93835e-08
-3.39247e-08
5.83793e-08
3.49288e-08
-5.31901e-08
-5.42965e-08
5.08714e-08
5.66152e-08
-4.26413e-08
-6.04167e-08
3.98507e-08
6.32074e-08
-3.19533e-08
-5.23418e-08
2.96879e-08
5.46071e-08
-2.37622e-08
-4.05705e-08
2.21024e-08
4.22304e-08
-1.76932e-08
-3.01335e-08
1.64365e-08
3.13901e-08
-1.30861e-08
-2.14797e-08
1.21361e-08
2.24297e-08
-9.62661e-09
-1.45899e-08
8.92076e-09
1.52957e-08
-7.05912e-09
-9.42049e-09
6.53272e-09
9.94689e-09
-5.12713e-09
-5.78656e-09
4.72295e-09
6.19074e-09
-3.62415e-09
-3.40254e-09
3.30288e-09
3.72381e-09
-2.4207e-09
-1.96611e-09
2.16146e-09
2.22535e-09
-1.45233e-09
-1.21762e-09
1.2463e-09
1.42365e-09
-6.94195e-10
-9.37552e-10
5.38149e-10
1.0936e-09
-1.33539e-10
-9.22454e-10
2.35113e-11
1.03248e-09
2.51498e-10
-9.83447e-10
-3.23828e-10
1.05578e-09
5.01452e-10
-9.94122e-10
-5.48149e-10
1.04082e-09
6.65929e-10
-9.19036e-10
-6.98413e-10
9.51519e-10
4.84241e-09
1.28963e-07
-1.24219e-07
-9.58664e-09
1.88773e-08
-4.87325e-08
-2.07283e-08
5.05835e-08
2.35456e-08
6.14855e-09
-2.35503e-08
-6.14385e-09
1.97941e-08
6.60896e-08
-1.73939e-08
-6.84897e-08
7.69354e-09
9.50663e-08
-4.14592e-09
-9.86139e-08
-6.56529e-09
9.72369e-08
1.00616e-08
-1.00733e-07
-2.12058e-08
9.99929e-08
2.49859e-08
-1.03773e-07
-3.63609e-08
9.08183e-08
3.99741e-08
-9.44315e-08
-4.99534e-08
6.27833e-08
5.25745e-08
-6.54044e-08
-5.77551e-08
2.67883e-08
5.87636e-08
-2.77968e-08
-6.08302e-08
5.13072e-09
6.1257e-08
-5.55753e-09
-6.20593e-08
-1.41691e-08
6.19268e-08
1.43016e-08
-6.07185e-08
-3.7713e-08
5.98839e-08
3.85476e-08
-5.46922e-08
-6.3804e-08
5.22129e-08
6.62833e-08
-4.30934e-08
-7.20208e-08
3.99901e-08
7.51241e-08
-3.1364e-08
-6.15936e-08
2.89693e-08
6.39883e-08
-2.28737e-08
-4.72456e-08
2.11934e-08
4.89259e-08
-1.67353e-08
-3.51856e-08
1.54617e-08
3.64592e-08
-1.20658e-08
-2.52931e-08
1.11066e-08
2.62523e-08
-8.59905e-09
-1.73994e-08
7.90371e-09
1.80947e-08
-6.10071e-09
-1.14906e-08
5.60038e-09
1.1991e-08
-4.28607e-09
-7.36097e-09
3.91356e-09
7.73348e-09
-2.91157e-09
-4.64814e-09
2.62069e-09
4.93902e-09
-1.82506e-09
-2.96933e-09
1.59183e-09
3.20255e-09
-9.54446e-10
-2.01385e-09
7.69666e-10
2.19863e-09
-2.77239e-10
-1.53572e-09
1.39456e-10
1.6735e-09
2.11434e-10
-1.33481e-09
-3.04225e-10
1.4276e-09
5.26755e-10
-1.24219e-09
-5.81835e-10
1.29727e-09
7.06734e-10
-1.1491e-09
-7.36245e-10
1.17861e-09
8.02341e-10
-1.0181e-09
-8.183e-10
1.03406e-09
4.99068e-09
1.48259e-07
-1.43385e-07
-9.86444e-09
1.91818e-08
-5.6111e-08
-2.1014e-08
5.79432e-08
2.39304e-08
6.04526e-09
-2.39939e-08
-5.98184e-09
2.0283e-08
7.57467e-08
-1.78441e-08
-7.81856e-08
7.92301e-09
1.09353e-07
-4.30866e-09
-1.12967e-07
-6.40967e-09
1.11182e-07
9.8769e-09
-1.14649e-07
-2.10487e-08
1.15188e-07
2.48797e-08
-1.19019e-07
-3.64523e-08
1.05432e-07
4.01749e-08
-1.09154e-07
-5.06445e-08
7.34541e-08
5.33972e-08
-7.62067e-08
-5.8518e-08
3.0705e-08
5.94401e-08
-3.16271e-08
-6.14114e-08
6.91799e-09
6.18992e-08
-7.4058e-09
-6.30045e-08
-1.46135e-08
6.29274e-08
1.46906e-08
-6.22605e-08
-4.06738e-08
6.1709e-08
4.12252e-08
-5.66058e-08
-7.3991e-08
5.39431e-08
7.66537e-08
-4.36288e-08
-8.50191e-08
4.01113e-08
8.85365e-08
-3.05508e-08
-7.13755e-08
2.80211e-08
7.39052e-08
-2.18209e-08
-5.39745e-08
2.01417e-08
5.56537e-08
-1.56637e-08
-4.03053e-08
1.43728e-08
4.15962e-08
-1.09194e-08
-2.91469e-08
9.94763e-09
3.01187e-08
-7.44076e-09
-2.016e-08
6.75992e-09
2.08409e-08
-5.03881e-09
-1.34407e-08
4.57475e-09
1.39047e-08
-3.38806e-09
-8.78734e-09
3.06024e-09
9.11516e-09
-2.19512e-09
-5.74905e-09
1.94793e-09
5.99625e-09
-1.27752e-09
-3.84812e-09
1.08203e-09
4.04361e-09
-5.48906e-10
-2.70943e-09
3.94286e-10
2.86405e-09
1.89234e-11
-2.05503e-09
-1.35072e-10
2.17118e-09
4.32571e-10
-1.68496e-09
-5.11754e-10
1.76415e-09
7.02625e-10
-1.44944e-09
-7.50057e-10
1.49687e-09
8.57077e-10
-1.25795e-09
-8.8183e-10
1.28271e-09
9.34349e-10
-1.07332e-09
-9.45772e-10
1.08474e-09
5.16447e-09
1.68123e-07
-1.63099e-07
-1.0188e-08
1.95294e-08
-6.34018e-08
-2.13341e-08
6.52065e-08
2.43691e-08
5.68916e-09
-2.45035e-08
-5.55471e-09
2.08494e-08
8.55676e-08
-1.83657e-08
-8.80513e-08
8.1806e-09
1.23928e-07
-4.48429e-09
-1.27624e-07
-6.23401e-09
1.24994e-07
9.66032e-09
-1.2842e-07
-2.08607e-08
1.30599e-07
2.47513e-08
-1.34489e-07
-3.65369e-08
1.20501e-07
4.03806e-08
-1.24344e-07
-5.14635e-08
8.47114e-08
5.43917e-08
-8.76397e-08
-5.94009e-08
3.42078e-08
6.01861e-08
-3.4993e-08
-6.20095e-08
9.01692e-09
6.26101e-08
-9.61753e-09
-6.40227e-08
-1.48443e-08
6.40007e-08
1.48663e-08
-6.3965e-08
-4.22267e-08
6.39057e-08
4.2286e-08
-5.90518e-08
-8.49324e-08
5.61941e-08
8.77901e-08
-4.42471e-08
-9.98653e-08
4.01792e-08
1.03933e-07
-2.94019e-08
-8.16863e-08
2.67499e-08
8.43384e-08
-2.05905e-08
-6.06488e-08
1.89493e-08
6.229e-08
-1.44892e-08
-4.54996e-08
1.31761e-08
4.68127e-08
-9.63463e-09
-3.30623e-08
8.64145e-09
3.40555e-08
-6.12486e-09
-2.28585e-08
5.461e-09
2.35224e-08
-3.84472e-09
-1.52309e-08
3.42724e-09
1.56484e-08
-2.40152e-09
-1.00191e-08
2.12912e-09
1.02915e-08
-1.43031e-09
-6.66253e-09
1.23492e-09
6.85792e-09
-7.10815e-10
-4.56619e-09
5.58775e-10
4.71823e-09
-1.4317e-10
-3.27841e-09
2.17821e-11
3.3998e-09
3.06498e-10
-2.48598e-09
-4.00372e-10
2.57985e-09
6.4625e-10
-1.98336e-09
-7.1359e-10
2.0507e-09
8.81186e-10
-1.63205e-09
-9.24409e-10
1.67527e-09
1.02519e-09
-1.35497e-09
-1.04914e-09
1.37892e-09
1.09914e-09
-1.11629e-09
-1.10903e-09
1.12618e-09
5.36637e-09
1.88639e-07
-1.83444e-07
-1.05614e-08
1.99135e-08
-7.05647e-08
-2.16781e-08
7.23293e-08
2.48527e-08
5.02846e-09
-2.50722e-08
-4.80892e-09
2.14895e-08
9.5576e-08
-1.89555e-08
-9.811e-08
8.46152e-09
1.38855e-07
-4.66635e-09
-1.4265e-07
-6.03668e-09
1.38617e-07
9.40481e-09
-1.41985e-07
-2.06306e-08
1.4626e-07
2.45893e-08
-1.50218e-07
-3.65917e-08
1.36064e-07
4.05622e-08
-1.40034e-07
-5.24057e-08
9.67601e-08
5.55752e-08
-9.99296e-08
-6.03911e-08
3.70536e-08
6.09592e-08
-3.76217e-08
-6.25694e-08
1.16903e-08
6.33758e-08
-1.24967e-08
-6.50056e-08
-1.47663e-08
6.51464e-08
1.46254e-08
-6.57921e-08
-4.13665e-08
6.65188e-08
4.06398e-08
-6.22218e-08
-9.66717e-08
5.91445e-08
9.9749e-08
-4.49321e-08
-1.17169e-07
4.0132e-08
1.21969e-07
-2.77297e-08
-9.24223e-08
2.50106e-08
9.51414e-08
-1.91798e-08
-6.70915e-08
1.76342e-08
6.86372e-08
-1.32321e-08
-5.07995e-08
1.1883e-08
5.21486e-08
-8.19382e-09
-3.70848e-08
7.16279e-09
3.81159e-08
-4.61482e-09
-2.54853e-08
3.97081e-09
2.61293e-08
-2.48787e-09
-1.68142e-08
2.13129e-09
1.71707e-08
-1.31181e-09
-1.10097e-08
1.10818e-09
1.12133e-08
-6.08567e-10
-7.35673e-09
4.73226e-10
7.49207e-09
-1.13003e-10
-5.1048e-09
8.05904e-12
5.20975e-09
2.83797e-10
-3.71302e-09
-3.71135e-10
3.80036e-09
6.15141e-10
-2.82913e-09
-6.87685e-10
2.90167e-09
8.86901e-10
-2.2374e-09
-9.44605e-10
2.2951e-09
1.09727e-09
-1.80206e-09
-1.13942e-09
1.8442e-09
1.24382e-09
-1.4528e-09
-1.27007e-09
1.47905e-09
1.32545e-09
-1.15543e-09
-1.33566e-09
1.16565e-09
5.59941e-09
2.099e-07
-2.0451e-07
-1.09896e-08
2.03412e-08
-7.75452e-08
-2.20499e-08
7.9254e-08
2.53899e-08
4.00362e-09
-2.57108e-08
-3.68268e-09
2.22151e-08
1.05796e-07
-1.96243e-08
-1.08386e-07
8.76662e-09
1.5421e-07
-4.85047e-09
-1.58127e-07
-5.82091e-09
1.51978e-07
9.10905e-09
-1.55266e-07
-2.03614e-08
1.62211e-07
2.44003e-08
-1.6625e-07
-3.66172e-08
1.52138e-07
4.07146e-08
-1.56236e-07
-5.35036e-08
1.09921e-07
5.70242e-08
-1.13442e-07
-6.15161e-08
3.88667e-08
6.17497e-08
-3.91003e-08
-6.30774e-08
1.5395e-08
6.42413e-08
-1.6559e-08
-6.5752e-08
-1.34259e-08
6.65676e-08
1.26103e-08
-6.8e-08
-3.71757e-08
6.95249e-08
3.56508e-08
-6.65674e-08
-1.09511e-07
6.3044e-08
1.13035e-07
-4.56952e-08
-1.37756e-07
3.99076e-08
1.43544e-07
-2.52639e-08
-1.03249e-07
2.26219e-08
1.05891e-07
-1.76446e-08
-7.30405e-08
1.62735e-08
7.44116e-08
-1.19448e-08
-5.62847e-08
1.05273e-08
5.77022e-08
-6.57953e-09
-4.12977e-08
5.4819e-09
4.23953e-08
-2.86312e-09
-2.80276e-08
2.24249e-09
2.86482e-08
-9.39093e-10
-1.81268e-08
6.63668e-10
1.84023e-08
-1.13057e-10
-1.1701e-08
-3.8224e-12
1.18179e-08
2.62396e-10
-7.79679e-09
-3.28176e-10
7.86256e-09
5.05324e-10
-5.44976e-09
-5.59382e-10
5.50382e-09
7.21217e-10
-4.01075e-09
-7.73897e-10
4.06343e-09
9.346e-10
-3.08892e-09
-9.86997e-10
3.14132e-09
1.14546e-09
-2.45722e-09
-1.19644e-09
2.5082e-09
1.34677e-09
-1.97505e-09
-1.39332e-09
2.02159e-09
1.52122e-09
-1.5681e-09
-1.55668e-09
1.60356e-09
1.63721e-09
-1.20108e-09
-1.65297e-09
1.21684e-09
5.86699e-09
2.32007e-07
-2.26396e-07
-1.14785e-08
2.08104e-08
-8.42731e-08
-2.24426e-08
8.59053e-08
2.59777e-08
2.54569e-09
-2.64189e-08
-2.10447e-09
2.30286e-08
1.16252e-07
-2.03749e-08
-1.18905e-07
9.09269e-09
1.70088e-07
-5.02887e-09
-1.74152e-07
-5.5868e-09
1.64978e-07
8.76541e-09
-1.68156e-07
-2.00459e-08
1.78506e-07
2.41807e-08
-1.82641e-07
-3.65934e-08
1.68708e-07
4.08068e-08
-1.72922e-07
-5.47608e-08
1.24741e-07
5.88255e-08
-1.28806e-07
-6.2761e-08
3.91262e-08
6.25118e-08
-3.8877e-08
-6.34918e-08
2.08397e-08
6.52413e-08
-2.25892e-08
-6.61518e-08
-8.36671e-09
6.81821e-08
6.33641e-09
-7.03038e-08
-3.02636e-08
7.23936e-08
2.81737e-08
-7.28839e-08
-1.2511e-07
6.81055e-08
1.29889e-07
-4.65035e-08
-1.62804e-07
3.93658e-08
1.69941e-07
-2.15802e-08
-1.13383e-07
1.93041e-08
1.15659e-07
-1.61121e-08
-7.81494e-08
1.50147e-08
7.92468e-08
-1.06994e-08
-6.21275e-08
9.14918e-09
6.36777e-08
-4.7564e-09
-4.58396e-08
3.54612e-09
4.70499e-08
-7.93879e-10
-3.04685e-08
2.02833e-10
3.10595e-08
8.46467e-10
-1.90702e-08
-1.00779e-09
1.92315e-08
1.19741e-09
-1.20114e-08
-1.20354e-09
1.20175e-08
1.16669e-09
-7.94305e-09
-1.15109e-09
7.92745e-09
1.1218e-09
-5.58421e-09
-1.12069e-09
5.5831e-09
1.14518e-09
-4.16823e-09
-1.16206e-09
4.18511e-09
1.23725e-09
-3.26829e-09
-1.26917e-09
3.30021e-09
1.38784e-09
-2.65353e-09
-1.43361e-09
2.6993e-09
1.59519e-09
-2.17858e-09
-1.65536e-09
2.23875e-09
1.8584e-09
-1.74871e-09
-1.92909e-09
1.8194e-09
2.13769e-09
-1.30555e-09
-2.19614e-09
1.364e-09
6.17365e-09
2.55071e-07
-2.49208e-07
-1.20364e-08
2.13215e-08
-9.06562e-08
-2.28502e-08
9.21848e-08
2.66159e-08
5.74762e-10
-2.71994e-08
8.71534e-12
2.39357e-08
1.26968e-07
-2.12131e-08
-1.29691e-07
9.43755e-09
1.86604e-07
-5.1928e-09
-1.90849e-07
-5.33534e-09
1.77483e-07
8.36487e-09
-1.80513e-07
-1.96782e-08
1.95215e-07
2.39312e-08
-1.99468e-07
-3.64999e-08
1.85709e-07
4.08044e-08
-1.90014e-07
-5.61758e-08
1.42198e-07
6.11351e-08
-1.47158e-07
-6.40906e-08
3.72105e-08
6.31909e-08
-3.63107e-08
-6.37362e-08
2.91951e-08
6.65468e-08
-3.20057e-08
-6.63651e-08
1.37116e-09
6.96447e-08
-4.65069e-09
-6.98219e-08
-1.94899e-08
7.44447e-08
1.48672e-08
-8.22548e-08
-1.48023e-07
7.44411e-08
1.55837e-07
-4.74216e-08
-1.93873e-07
3.85254e-08
2.02769e-07
-1.5859e-08
-1.21405e-07
1.44649e-08
1.22799e-07
-1.48473e-08
-8.19894e-08
1.4132e-08
8.27047e-08
-9.59469e-09
-6.86529e-08
7.79821e-09
7.04494e-08
-2.67012e-09
-5.09314e-08
1.27393e-09
5.23275e-08
1.71414e-09
-3.27725e-08
-2.26091e-09
3.33193e-08
2.92479e-09
-1.94863e-08
-2.91852e-09
1.94801e-08
2.60727e-09
-1.18315e-08
-2.46903e-09
1.16933e-08
2.07005e-09
-7.74301e-09
-1.96029e-09
7.63326e-09
1.70359e-09
-5.49299e-09
-1.64392e-09
5.43333e-09
1.52545e-09
-4.17959e-09
-1.50492e-09
4.15906e-09
1.48924e-09
-3.36241e-09
-1.49807e-09
3.37124e-09
1.56431e-09
-2.82356e-09
-1.59894e-09
2.85819e-09
1.75058e-09
-2.44105e-09
-1.81912e-09
2.50959e-09
2.11393e-09
-2.13288e-09
-2.24551e-09
2.26445e-09
2.74244e-09
-1.70541e-09
-2.91582e-09
1.87879e-09
6.52209e-09
2.79219e-07
-2.73072e-07
-1.2669e-08
2.18747e-08
-9.65765e-08
-2.32656e-08
9.79674e-08
2.73045e-08
-2.00245e-09
-2.80559e-08
2.75384e-09
2.49427e-08
1.37969e-07
-2.21457e-08
-1.40766e-07
9.79923e-09
2.03903e-07
-5.33169e-09
-2.0837e-07
-5.06709e-09
1.89317e-07
7.8947e-09
-1.92145e-07
-1.92515e-08
2.12442e-07
2.36563e-08
-2.16847e-07
-3.63107e-08
2.03018e-07
4.06653e-08
-2.07373e-07
-5.77245e-08
1.64065e-07
6.42061e-08
-1.70547e-07
-6.54451e-08
3.23782e-08
6.36599e-08
-3.0593e-08
-6.34311e-08
4.34212e-08
6.8686e-08
-4.86761e-08
-6.39908e-08
2.0227e-08
7.23991e-08
-2.86354e-08
-6.73853e-08
6.99512e-09
7.60146e-08
-1.56245e-08
-9.59824e-08
-1.86544e-07
8.34923e-08
1.99034e-07
-4.8868e-08
-2.32605e-07
3.77539e-08
2.43719e-07
-7.5481e-09
-1.24421e-07
8.13393e-09
1.23836e-07
-1.48759e-08
-8.44319e-08
1.42946e-08
8.50131e-08
-8.72803e-09
-7.64077e-08
6.5101e-09
7.86256e-08
-2.43303e-10
-5.69321e-08
-1.46332e-09
5.86387e-08
4.85009e-09
-3.48653e-08
-5.32561e-09
3.53408e-08
5.36347e-09
-1.91133e-08
-5.10049e-09
1.88504e-08
4.07705e-09
-1.10101e-08
-3.75047e-09
1.06836e-08
2.91719e-09
-7.15026e-09
-2.70359e-09
6.93665e-09
2.20939e-09
-5.16538e-09
-2.09103e-09
5.04702e-09
1.83036e-09
-4.0412e-09
-1.77258e-09
3.98342e-09
1.66262e-09
-3.35927e-09
-1.64549e-09
3.34214e-09
1.6404e-09
-2.92933e-09
-1.65159e-09
2.94051e-09
1.71037e-09
-2.66489e-09
-1.73299e-09
2.68751e-09
1.78138e-09
-2.56214e-09
-1.78054e-09
2.56131e-09
1.71708e-09
-2.3494e-09
-1.70262e-09
2.33495e-09
6.91679e-09
3.04599e-07
-2.9813e-07
-1.33859e-08
2.24728e-08
-1.01883e-07
-2.36821e-08
1.03092e-07
2.80466e-08
-5.29488e-09
-2.89961e-08
6.24437e-09
2.60602e-08
1.49275e-07
-2.31833e-08
-1.52152e-07
1.01777e-08
2.22169e-07
-5.43341e-09
-2.26913e-07
-4.78242e-09
2.00246e-07
7.33933e-09
-2.02803e-07
-1.87594e-08
2.30347e-07
2.33684e-08
-2.34956e-07
-3.59953e-08
2.20449e-07
4.03457e-08
-2.24799e-07
-5.93794e-08
1.93438e-07
6.8422e-08
-2.0248e-07
-6.6713e-08
2.35457e-08
6.38031e-08
-2.06358e-08
-6.27088e-08
7.15157e-08
7.31018e-08
-8.19087e-08
-5.75019e-08
6.13026e-08
6.59903e-08
-6.9791e-08
-7.95874e-08
3.72757e-08
8.494e-08
-4.26283e-08
-1.06254e-07
-2.35783e-07
9.75275e-08
2.44509e-07
-5.10504e-08
-2.80423e-07
3.81438e-08
2.9333e-07
2.77807e-09
-1.15913e-07
2.82178e-09
1.10314e-07
-1.8254e-08
-8.76975e-08
1.6699e-08
8.92526e-08
-8.11701e-09
-8.61518e-08
5.28734e-09
8.89815e-08
2.59274e-09
-6.44196e-08
-4.8084e-09
6.66353e-08
8.95221e-09
-3.65984e-08
-9.2979e-09
3.69441e-08
8.23926e-09
-1.75037e-08
-7.56175e-09
1.68262e-08
5.50965e-09
-9.36067e-09
-4.94398e-09
8.79499e-09
3.62001e-09
-6.13724e-09
-3.30249e-09
5.81972e-09
2.58937e-09
-4.61111e-09
-2.41962e-09
4.44136e-09
2.03388e-09
-3.75696e-09
-1.94173e-09
3.66481e-09
1.74065e-09
-3.252e-09
-1.69793e-09
3.20928e-09
1.62872e-09
-2.94305e-09
-1.62349e-09
2.93782e-09
1.6382e-09
-2.68861e-09
-1.64228e-09
2.69269e-09
1.55873e-09
-2.23861e-09
-1.46253e-09
2.14241e-09
7.51416e-10
-1.23274e-09
-3.37614e-10
8.18939e-10
7.36535e-09
3.31382e-07
-3.24544e-07
-1.42037e-08
2.31109e-08
-1.06383e-07
-2.40823e-08
1.07354e-07
2.88356e-08
-9.43049e-09
-3.00184e-08
1.06133e-08
2.72899e-08
1.60906e-07
-2.43295e-08
-1.63867e-07
1.05707e-08
2.41638e-07
-5.48092e-09
-2.46728e-07
-4.47879e-09
2.09963e-07
6.67433e-09
-2.12159e-07
-1.81856e-08
2.49178e-07
2.30801e-08
-2.54072e-07
-3.55033e-08
2.37766e-07
3.97858e-08
-2.42049e-07
-6.10839e-08
2.35029e-07
7.39394e-08
-2.47885e-07
-6.74677e-08
1.09544e-08
6.41627e-08
-7.64945e-09
-6.67151e-08
1.15496e-07
7.49251e-08
-1.23706e-07
-4.9861e-08
6.4216e-08
3.99415e-08
-5.42965e-08
-7.91789e-08
5.44919e-08
8.35787e-08
-5.88917e-08
-9.80608e-08
-2.46861e-07
1.06347e-07
2.38574e-07
-5.44529e-08
-3.31125e-07
4.32177e-08
3.4236e-07
-2.06363e-08
-8.58511e-08
3.0242e-08
7.62454e-08
-2.68752e-08
-9.86483e-08
2.14788e-08
1.04045e-07
-7.53969e-09
-9.84143e-08
4.13801e-09
1.01816e-07
5.90121e-09
-7.45422e-08
-9.09201e-09
7.7733e-08
1.4714e-08
-3.76179e-08
-1.47599e-08
3.76638e-08
1.15942e-08
-1.38659e-08
-1.02222e-08
1.24938e-08
6.69672e-09
-6.68477e-09
-5.84914e-09
5.83719e-09
4.04853e-09
-4.73425e-09
-3.651e-09
4.33672e-09
2.79348e-09
-3.87594e-09
-2.59149e-09
3.67395e-09
2.11764e-09
-3.34309e-09
-1.99658e-09
3.22203e-09
1.70572e-09
-3.04188e-09
-1.63498e-09
2.97114e-09
1.50051e-09
-2.9145e-09
-1.48717e-09
2.90116e-09
1.56627e-09
-2.813e-09
-1.6395e-09
2.88622e-09
2.05075e-09
-2.35896e-09
-2.26193e-09
2.57014e-09
3.20931e-09
-1.05885e-09
-3.5928e-09
1.44234e-09
7.87001e-09
3.59767e-07
-3.52508e-07
-1.51287e-08
2.37893e-08
-1.09828e-07
-2.44498e-08
1.10489e-07
2.96714e-08
-1.45597e-08
-3.1129e-08
1.60173e-08
2.86405e-08
1.72876e-07
-2.55941e-08
-1.75923e-07
1.09806e-08
2.62618e-07
-5.45452e-09
-2.68144e-07
-4.15306e-09
2.18068e-07
5.86955e-09
-2.19785e-07
-1.75138e-08
2.69325e-07
2.28205e-08
-2.74631e-07
-3.47998e-08
2.547e-07
3.89124e-08
-2.58813e-07
-5.98778e-08
2.91431e-07
7.50623e-08
-3.06615e-07
-6.72027e-08
-2.73178e-09
6.3372e-08
6.56257e-09
-6.6266e-08
1.26257e-07
5.90199e-08
-1.19011e-07
-5.12491e-08
2.88655e-08
4.62105e-08
-2.38269e-08
-7.10901e-08
9.51489e-08
1.06358e-07
-1.30417e-07
-9.96132e-08
-2.06523e-07
9.7747e-08
2.0839e-07
-3.91443e-08
-3.65374e-07
3.44795e-08
3.70039e-07
-4.83085e-08
-4.76902e-08
5.70743e-08
3.89244e-08
-3.32758e-08
-1.27148e-07
2.398e-08
1.36444e-07
-6.38795e-09
-1.12335e-07
2.91132e-09
1.15812e-07
1.01021e-08
-8.96478e-08
-1.49797e-08
9.45253e-08
2.29047e-08
-3.69073e-08
-2.22646e-08
3.62672e-08
1.51633e-08
-6.84453e-09
-1.26749e-08
4.35611e-09
7.22101e-09
-2.87694e-09
-6.11344e-09
1.76937e-09
4.0381e-09
-3.09876e-09
-3.6316e-09
2.69226e-09
2.79209e-09
-3.05989e-09
-2.59378e-09
2.86158e-09
2.09392e-09
-2.82362e-09
-1.95076e-09
2.68047e-09
1.55633e-09
-2.70005e-09
-1.44192e-09
2.58564e-09
1.15726e-09
-2.80523e-09
-1.09334e-09
2.74131e-09
1.03727e-09
-3.09992e-09
-1.07887e-09
3.14152e-09
1.4214e-09
-3.15933e-09
-1.58087e-09
3.3188e-09
1.8921e-09
-2.53395e-09
-2.12073e-09
2.7624e-09
8.43969e-09
3.90007e-07
-3.82257e-07
-1.61897e-08
2.45143e-08
-1.11895e-07
-2.47706e-08
1.12152e-07
3.05612e-08
-2.08601e-08
-3.2343e-08
2.26419e-08
3.01283e-08
1.85193e-07
-2.69947e-08
-1.88327e-07
1.14164e-08
2.85519e-07
-5.32996e-09
-2.91606e-07
-3.80071e-09
2.24041e-07
4.88496e-09
-2.25125e-07
-1.67249e-08
2.9139e-07
2.26388e-08
-2.97304e-07
-3.38906e-08
2.70521e-07
3.75165e-08
-2.74147e-07
-4.61386e-08
3.48111e-07
5.70693e-08
-3.59036e-07
-6.33302e-08
-1.75434e-08
6.09239e-08
1.99498e-08
-7.6341e-08
7.74194e-08
5.74011e-08
-5.84795e-08
-6.34778e-08
3.4113e-08
5.91757e-08
-2.98108e-08
-4.73612e-08
5.24974e-08
1.23536e-09
-7.0915e-09
-4.93921e-12
1.35374e-09
-5.59573e-08
2.07547e-08
-1.95822e-08
-3.87477e-07
1.81049e-08
3.88955e-07
-4.2159e-08
-1.93821e-08
4.57614e-08
1.57797e-08
-2.36144e-08
-1.64064e-07
1.6103e-08
1.71576e-07
-4.14344e-09
-1.25668e-07
1.17071e-09
1.28641e-07
1.39556e-08
-1.11954e-07
-2.05971e-08
1.18595e-07
3.1606e-08
-3.294e-08
-3.0005e-08
3.13389e-08
1.74154e-08
5.21277e-09
-1.35358e-08
-9.09237e-09
6.34336e-09
1.74204e-09
-5.19042e-09
-2.89498e-09
3.43463e-09
-1.6102e-09
-3.15841e-09
1.33398e-09
2.61464e-09
-2.33222e-09
-2.47227e-09
2.18986e-09
2.0295e-09
-2.2285e-09
-1.87312e-09
2.07213e-09
1.35605e-09
-2.15111e-09
-1.17693e-09
1.972e-09
6.20144e-10
-2.39385e-09
-4.40567e-10
2.21427e-09
-7.30405e-11
-3.03782e-09
2.21979e-10
2.88888e-09
-5.7197e-10
-3.72685e-09
6.43503e-10
3.65532e-09
-8.92357e-10
-2.41739e-09
1.1614e-09
2.1486e-09
9.08132e-09
4.2243e-07
-4.14098e-07
-1.74134e-08
2.52847e-08
-1.12191e-07
-2.50303e-08
1.11936e-07
3.15023e-08
-2.85415e-08
-3.36667e-08
3.07059e-08
3.17606e-08
1.97859e-07
-2.85406e-08
-2.01079e-07
1.18897e-08
3.10899e-07
-5.07395e-09
-3.17715e-07
-3.41346e-09
2.27196e-07
3.65894e-09
-2.27441e-07
-1.57839e-08
3.16285e-07
2.25978e-08
-3.23099e-07
-3.27911e-08
2.84131e-07
3.57178e-08
-2.87058e-07
-3.52185e-08
3.80018e-07
4.1434e-08
-3.86234e-07
-5.18189e-08
-1.95366e-08
5.43813e-08
1.69741e-08
-7.44659e-08
-1.00104e-08
4.87181e-08
3.57583e-08
3.78309e-08
-1.31924e-07
1.25834e-07
-3.17385e-08
-6.80876e-11
4.84489e-11
2.48017e-11
-6.38732e-12
-1.02794e-10
1.96393e-10
1.36151e-11
6.5049e-11
1.05687e-07
-4.13477e-07
-6.49057e-09
2.98041e-07
6.20888e-09
3.06359e-09
-2.30732e-09
-6.96516e-09
-1.09419e-09
-1.85153e-07
4.42408e-10
1.85805e-07
-1.21538e-09
-1.35273e-07