/*--------------------------------*- C++ -*----------------------------------*\
| =========                 |                                                 |
| \\      /  F ield         | OpenFOAM: The Open Source CFD Toolbox           |
|  \\    /   O peration     | Version:  2.4.0                                 |
|   \\  /    A nd           | Web:      www.OpenFOAM.org                      |
|    \\/     M anipulation  |                                                 |
\*---------------------------------------------------------------------------*/
FoamFile
{
    version     2.0;
    format      ascii;
    class       volScalarField;
    location    "0.036";
    object      alpha.water;
}
// * * * * * * * * * * * * * * * * * * * * * * * * * * * * * * * * * * * * * //

dimensions      [0 0 0 0 0 0 0];

internalField   nonuniform List<scalar> 
60000
(
1
1
1
1
1
1
1
1
1
1
1
1
1
1
1
1
1
1
1
1
1
1
1
1
1
1
1
1
1
1
1
1
1
1
1
1
1
1
1
1
1
1
1
1
1
1
1
1
1
1
1
1
1
1
1
1
1
1
1
1
1
1
1
1
1
1
1
1
1
1
1
1
1
1
1
1
1
1
1
1
1
1
1
1
1
1
1
1
1
1
1
1
1
1
1
1
1
1
1
1
1
1
1
1
1
1
1
1
1
1
1
1
1
1
1
1
1
1
1
1
1
1
1
1
1
1
1
1
1
1
1
1
1
1
1
1
1
1
1
1
1
1
1
1
1
1
1
1
1
1
1
1
1
1
1
1
1
1
1
1
1
1
1
1
1
1
1
1
1
1
1
1
1
1
1
1
1
1
1
1
1
1
1
1
1
1
1
1
1
1
1
1
1
1
1
1
1
1
1
1
1
1
1
1
1
1
1
1
1
1
1
1
1
1
1
1
1
1
1
1
1
1
1
1
1
1
1
1
1
1
1
1
1
1
1
1
1
1
1
1
1
1
1
1
1
1
1
1
1
1
1
1
1
1
1
1
1
1
1
1
1
1
1
1
1
1
1
1
1
1
1
1
1
1
1
1
1
1
1
1
1
1
1
1
1
1
1
1
1
1
1
1
1
1
1
1
1
1
1
1
1
1
1
1
1
1
1
1
1
1
1
1
1
1
1
1
1
1
1
1
1
1
1
1
1
1
1
1
1
1
1
1
1
1
1
1
1
1
1
1
1
1
1
1
1
1
1
1
1
1
1
1
1
1
1
1
1
1
1
1
1
1
1
1
1
1
1
1
1
1
1
1
1
1
1
1
1
1
1
1
1
1
1
1
1
1
1
1
1
1
1
1
1
1
1
1
1
1
1
1
1
1
1
1
1
1
1
1
1
1
1
1
1
1
1
1
1
1
1
1
1
1
1
1
1
1
1
1
1
1
1
1
1
1
1
1
1
1
1
1
1
1
1
1
1
1
1
1
1
1
1
1
1
1
1
1
1
1
1
1
1
1
1
1
1
1
1
1
1
1
1
1
1
1
1
1
1
1
1
1
1
1
1
1
1
1
1
1
1
1
1
1
1
1
1
1
1
1
1
1
1
1
1
1
1
1
1
1
1
1
1
1
1
1
1
1
1
1
1
1
1
1
1
1
1
1
1
1
1
1
1
1
1
1
1
1
1
1
1
1
1
1
1
1
1
1
1
1
1
1
1
1
1
1
1
1
1
1
1
1
1
1
1
1
1
1
1
1
1
1
1
1
1
1
1
1
1
1
1
1
1
1
1
1
1
1
1
1
1
1
1
1
1
1
1
1
1
1
1
1
1
1
1
1
1
1
1
1
1
1
1
1
1
1
1
1
1
1
1
1
1
1
1
1
1
1
1
1
1
1
1
1
1
1
1
1
1
1
1
1
1
1
1
1
1
1
1
1
1
1
1
1
1
1
1
1
1
1
1
1
1
1
1
1
1
1
1
1
1
1
1
1
1
1
1
1
1
1
1
1
1
1
1
1
1
1
1
1
1
1
1
1
1
1
1
1
1
1
1
1
1
1
1
1
1
1
1
1
1
1
1
1
1
1
1
1
1
1
1
1
1
1
1
1
1
1
1
1
1
1
1
1
1
1
1
1
1
1
1
1
1
1
1
1
1
1
1
1
1
1
1
1
1
1
1
1
1
1
1
1
1
1
1
1
1
1
1
1
1
1
1
1
1
1
1
1
1
1
1
1
1
1
1
1
1
1
1
1
1
1
1
1
1
1
1
1
1
1
1
1
1
1
1
1
1
1
1
1
1
1
1
1
1
1
1
1
1
1
1
1
1
1
1
1
1
1
1
1
1
1
1
1
1
1
1
1
1
1
1
1
1
1
1
1
1
1
1
1
1
1
1
1
1
1
1
1
1
1
1
1
1
1
1
1
1
1
1
1
1
1
1
1
1
1
1
1
1
1
1
1
1
1
1
1
1
1
1
1
1
1
1
1
1
1
1
1
1
1
1
1
1
1
1
1
1
1
1
1
1
1
1
1
1
1
1
1
1
1
1
1
1
1
1
1
1
1
1
1
1
1
1
1
1
1
1
1
1
1
1
1
1
1
1
1
1
1
1
1
1
1
1
1
1
1
1
1
1
1
1
1
1
1
1
1
1
1
1
1
1
1
1
1
1
1
1
1
1
1
1
1
1
1
1
1
1
1
1
1
1
1
1
1
1
1
1
1
1
1
1
1
1
1
1
1
1
1
1
1
1
1
1
1
1
1
1
1
1
1
1
1
1
1
1
1
1
1
1
1
1
1
1
1
1
1
1
1
1
1
1
1
1
1
1
1
1
1
1
1
1
1
1
1
1
1
1
1
1
1
1
1
1
1
1
1
1
1
1
1
1
1
1
1
1
1
1
1
1
1
1
1
1
1
1
1
1
1
1
1
1
1
1
1
1
1
1
1
1
1
1
1
1
1
1
1
1
1
1
1
1
1
1
1
1
1
1
1
1
1
1
1
1
1
1
1
1
1
1
1
1
1
1
1
1
1
1
1
1
1
1
1
1
1
1
1
1
1
1
1
1
1
1
1
1
1
1
1
1
1
1
1
1
1
1
1
1
1
1
1
1
1
1
1
1
1
1
1
1
1
1
1
1
1
1
1
1
1
1
1
1
1
1
1
1
1
1
1
1
1
1
1
1
1
1
1
1
1
1
1
1
1
1
1
1
1
1
1
1
1
1
1
1
1
1
1
1
1
1
1
1
1
1
1
1
1
1
1
1
1
1
1
1
1
1
1
1
1
1
1
1
1
1
1
1
1
1
1
1
1
1
1
1
1
1
1
1
1
1
1
1
1
1
1
1
1
1
1
1
1
1
1
1
1
1
1
1
1
1
1
1
1
1
1
1
1
1
1
1
1
1
1
1
1
1
1
1
1
1
1
1
1
1
1
1
1
1
1
1
1
1
1
1
1
1
1
1
1
1
1
1
1
1
1
1
1
1
1
1
1
1
1
1
1
1
1
1
1
1
1
1
1
1
1
1
1
1
1
1
1
1
1
1
1
1
1
1
1
1
1
1
1
1
1
1
1
1
1
1
1
1
1
1
1
1
1
1
1
1
1
1
1
1
1
1
1
1
1
1
1
1
1
1
1
1
1
1
1
1
1
1
1
1
1
1
1
1
1
1
1
1
1
1
1
1
1
1
1
1
1
1
1
1
1
1
1
1
1
1
1
1
1
1
1
1
1
1
1
1
1
1
1
1
1
1
1
1
1
1
1
1
1
1
1
1
1
1
1
1
1
1
1
1
1
1
1
1
1
1
1
1
1
1
1
1
1
1
1
1
1
1
1
1
1
1
1
1
1
1
1
1
1
1
1
1
1
1
1
1
1
1
1
1
1
1
1
1
1
1
1
1
1
1
1
1
1
1
1
1
1
1
1
1
1
1
1
1
1
1
1
1
1
1
1
1
1
1
1
1
1
1
1
1
1
1
1
1
1
1
1
1
1
1
1
1
1
1
1
1
1
1
1
1
1
1
1
1
1
1
1
1
1
1
1
1
1
1
1
1
1
1
1
1
1
1
1
1
1
1
1
1
1
1
1
1
1
1
1
1
1
1
1
1
1
1
1
1
1
1
1
1
1
1
1
1
1
1
1
1
1
1
1
1
1
1
1
1
1
1
1
1
1
1
1
1
1
1
1
1
1
1
1
1
1
1
1
1
1
1
1
1
1
1
1
1
1
1
1
1
1
1
1
1
1
1
1
1
1
1
1
1
1
1
1
1
1
1
1
1
1
1
1
1
1
1
1
1
1
1
1
1
1
1
1
1
1
1
1
1
1
1
1
1
1
1
1
1
1
1
1
1
1
1
1
1
1
1
1
1
1
1
1
1
1
1
1
1
1
1
1
1
1
1
1
1
1
1
1
1
1
1
1
1
1
1
1
1
1
1
1
1
1
1
1
1
1
1
1
1
1
1
1
1
1
1
1
1
1
1
1
1
1
1
1
1
1
1
1
1
1
1
1
1
1
1
1
1
1
1
1
1
1
1
1
1
1
1
1
1
1
1
1
1
1
1
1
1
1
1
1
1
1
1
1
1
1
1
1
1
1
1
1
1
1
1
1
1
1
1
1
1
1
1
1
1
1
1
1
1
1
1
1
1
1
1
1
1
1
1
1
1
1
1
1
1
1
1
1
1
1
1
1
1
1
1
1
1
1
1
1
1
1
1
1
1
1
1
1
1
1
1
1
1
1
1
1
1
1
1
1
1
1
1
1
1
1
1
1
1
1
1
1
1
1
1
1
1
1
1
1
1
1
1
1
1
1
1
1
1
1
1
1
1
1
1
1
1
1
1
1
1
1
1
1
1
1
1
1
1
1
1
1
1
1
1
1
1
1
1
1
1
1
1
1
1
1
1
1
1
1
1
1
1
1
1
1
1
1
1
1
1
1
1
1
1
1
1
1
1
1
1
1
1
1
1
1
1
1
1
1
1
1
1
1
1
1
1
1
1
1
1
1
1
1
1
1
1
1
1
1
1
1
1
1
1
1
1
1
1
1
1
1
1
1
1
1
1
1
1
1
1
1
1
1
1
1
1
1
1
1
1
1
1
1
1
1
1
1
1
1
1
1
1
1
1
1
1
1
1
1
1
1
1
1
1
1
1
1
1
1
1
1
1
1
1
1
1
1
1
1
1
1
1
1
1
1
1
1
1
1
1
1
1
1
1
1
1
1
1
1
1
1
1
1
1
1
1
1
1
1
1
1
1
1
1
1
1
1
1
1
1
1
1
1
1
1
1
1
1
1
1
1
1
1
1
1
1
1
1
1
1
1
1
1
1
1
1
1
1
1
1
1
1
1
1
1
1
1
1
1
1
1
1
1
1
1
1
1
1
1
1
1
1
1
1
1
1
1
1
1
1
1
1
1
1
1
1
1
1
1
1
1
1
1
1
1
1
1
1
1
1
1
1
1
1
1
1
1
1
1
1
1
1
1
1
1
1
1
1
1
1
1
1
1
1
1
1
1
1
1
1
1
1
1
1
1
1
1
1
1
1
1
1
1
1
1
1
1
1
1
1
1
1
1
1
1
1
1
1
1
1
1
1
1
1
1
1
1
1
1
1
1
1
1
1
1
1
1
1
1
1
1
1
1
1
1
1
1
1
1
1
1
1
1
1
1
1
1
1
1
1
1
1
1
1
1
1
1
1
1
1
1
1
1
1
1
1
1
1
1
1
1
1
1
1
1
1
1
1
1
1
1
1
1
1
1
1
1
1
1
1
1
1
1
1
1
1
1
1
1
1
1
1
1
1
1
1
1
1
1
1
1
1
1
1
1
1
1
1
1
1
1
1
1
1
1
1
1
1
1
1
1
1
1
1
1
1
1
1
1
1
1
1
1
1
1
1
1
1
1
1
1
1
1
1
1
1
1
1
1
1
1
1
1
1
1
1
1
1
1
1
1
1
1
1
1
1
1
1
1
1
1
1
1
1
1
1
1
1
1
1
1
1
1
1
1
1
1
1
1
1
1
1
1
1
1
1
1
1
1
1
1
1
1
1
1
1
1
1
1
1
1
1
1
1
1
1
1
1
1
1
1
1
1
1
1
1
1
1
1
1
1
1
1
1
1
1
1
1
1
1
1
1
1
1
1
1
1
1
1
1
1
1
1
1
1
1
1
1
1
1
1
1
1
1
1
1
1
1
1
1
1
1
1
1
1
1
1
1
1
1
1
1
1
1
1
1
1
1
1
1
1
1
1
1
1
1
1
1
1
1
1
1
1
1
1
1
1
1
1
1
1
1
1
1
1
1
1
1
1
1
1
1
1
1
1
1
1
1
1
1
1
1
1
1
1
1
1
1
1
1
1
1
1
1
1
1
1
1
1
1
1
1
1
1
1
1
1
1
1
1
1
1
1
1
1
1
1
1
1
1
1
1
1
1
1
1
1
1
1
1
1
1
1
1
1
1
1
1
1
1
1
1
1
1
1
1
1
1
1
1
1
1
1
1
1
1
1
1
1
1
1
1
1
1
1
1
1
1
1
1
1
1
1
1
1
1
1
1
1
1
1
1
1
1
1
1
1
1
1
1
1
1
1
1
1
1
1
1
1
1
1
1
1
1
1
1
1
1
1
1
1
1
1
1
1
1
1
1
1
1
1
1
1
1
1
1
1
1
1
1
1
1
1
1
1
1
1
1
1
1
1
1
1
1
1
1
1
1
1
1
1
1
1
1
1
1
1
1
1
1
1
1
1
1
1
1
1
1
1
1
1
1
1
1
1
1
1
1
1
1
1
1
1
1
1
1
1
1
1
1
1
1
1
1
1
1
1
1
1
1
1
1
1
1
1
1
1
1
1
1
1
1
1
1
1
1
1
1
1
1
1
1
1
1
1
1
1
1
1
1
1
1
1
1
1
1
1
1
1
1
1
1
1
1
1
1
1
1
1
1
1
1
1
1
1
1
1
1
1
1
1
1
1
1
1
1
1
1
1
1
1
1
1
1
1
1
1
1
1
1
1
1
1
1
1
1
1
1
1
1
1
1
1
1
1
1
1
1
1
1
1
1
1
1
1
1
1
1
1
1
1
1
1
1
1
1
1
1
1
1
1
1
1
1
1
1
1
1
1
1
1
1
1
1
1
1
1
1
1
1
1
1
1
1
1
1
1
1
1
1
1
1
1
1
1
1
1
1
1
1
1
1
1
1
1
1
1
1
1
1
1
1
1
1
1
1
1
1
1
1
1
1
1
1
1
1
1
1
1
1
1
1
1
1
1
1
1
1
1
1
1
1
1
1
1
1
1
1
1
1
1
1
1
1
1
1
1
1
1
1
1
1
1
1
1
1
1
1
1
1
1
1
1
1
1
1
1
1
1
1
1
1
1
1
1
1
1
1
1
1
1
1
1
1
1
1
1
1
1
1
1
1
1
1
1
1
1
1
1
1
1
1
1
1
1
1
1
1
1
1
1
1
1
1
1
1
1
1
1
1
1
1
1
1
1
1
1
1
1
1
1
1
1
1
1
1
1
1
1
1
1
1
1
1
1
1
1
1
1
1
1
1
1
1
1
1
1
1
1
1
1
1
1
1
1
1
1
1
1
1
1
1
1
1
1
1
1
1
1
1
1
1
1
1
1
1
1
1
1
1
1
1
1
1
1
1
1
1
1
1
1
1
1
1
1
1
1
1
1
1
1
1
1
1
1
1
1
1
1
1
1
1
1
1
1
1
1
1
1
1
1
1
1
1
1
1
1
1
1
1
1
1
1
1
1
1
1
1
1
1
1
1
1
1
1
1
1
1
1
1
1
1
1
1
1
1
1
1
1
1
1
1
1
1
1
1
1
1
1
1
1
1
1
1
1
1
1
1
1
1
1
1
1
1
1
1
1
1
1
1
1
1
1
1
1
1
1
1
1
1
1
1
1
1
1
1
1
1
1
1
1
1
1
1
1
1
1
1
1
1
1
1
1
1
1
1
1
1
1
1
1
1
1
1
1
1
1
1
1
1
1
1
1
1
1
1
1
1
1
1
1
1
1
1
1
1
1
1
1
1
1
1
1
1
1
1
1
1
1
1
1
1
1
1
1
1
1
1
1
1
1
1
1
1
1
1
1
1
1
1
1
1
1
1
1
1
1
1
1
1
1
1
1
1
1
1
1
1
1
1
1
1
1
1
1
1
1
1
1
1
1
1
1
1
1
1
1
1
1
1
1
1
1
1
1
1
1
1
1
1
1
1
1
1
1
1
1
1
1
1
1
1
1
1
1
1
1
1
1
1
1
1
1
1
1
1
1
1
1
1
1
1
1
1
1
1
1
1
1
1
1
1
1
1
1
1
1
1
1
1
1
1
1
1
1
1
1
1
1
1
1
1
1
1
1
1
1
1
1
1
1
1
1
1
1
1
1
1
1
1
1
1
1
1
1
1
1
1
1
1
1
1
1
1
1
1
1
1
1
1
1
1
1
1
1
1
1
1
1
1
1
1
1
1
1
1
1
1
1
1
1
1
1
1
1
1
1
1
1
1
1
1
1
1
1
1
1
1
1
1
1
1
1
1
1
1
1
1
1
1
1
1
1
1
1
1
1
1
1
1
1
1
1
1
1
1
1
1
1
1
1
1
1
1
1
1
1
1
1
1
1
1
1
1
1
1
1
1
1
1
1
1
1
1
1
1
1
1
1
1
1
1
1
1
1
1
1
1
1
1
1
1
1
1
1
1
1
1
1
1
1
1
1
1
1
1
1
1
1
1
1
1
1
1
1
1
1
1
1
1
1
1
1
1
1
1
1
1
1
1
1
1
1
1
1
1
1
1
1
1
1
1
1
1
1
1
1
1
1
1
1
1
1
1
1
1
1
1
1
1
1
1
1
1
1
1
1
1
1
1
1
1
1
1
1
1
1
1
1
1
1
1
1
1
1
1
1
1
1
1
1
1
1
1
1
1
1
1
1
1
1
1
1
1
1
1
1
1
1
1
1
1
1
1
1
1
1
1
1
1
1
1
1
1
1
1
1
1
1
1
1
1
1
1
1
1
1
1
1
1
1
1
1
1
1
1
1
1
1
1
1
1
1
1
1
1
1
1
1
1
1
1
1
1
1
1
1
1
1
1
1
1
1
1
1
1
1
1
1
1
1
1
1
1
1
1
1
1
1
1
1
1
1
1
1
1
1
1
1
1
1
1
1
1
1
1
1
1
1
1
1
1
1
1
1
1
1
1
1
1
1
1
1
1
1
1
1
1
1
1
1
1
1
1
1
1
1
1
1
1
1
1
1
1
1
1
1
1
1
1
1
1
1
1
1
1
1
1
1
1
1
1
1
1
1
1
1
1
1
1
1
1
1
1
1
1
1
1
1
1
1
1
1
1
1
1
1
1
1
1
1
1
1
1
1
1
1
1
1
1
1
1
1
1
1
1
1
1
1
1
1
1
1
1
1
1
1
1
1
1
1
1
1
1
1
1
1
1
1
1
1
1
1
1
1
1
1
1
1
1
1
1
1
1
1
1
1
1
1
1
1
1
1
1
1
1
1
1
1
1
1
1
1
1
1
1
1
1
1
1
1
1
1
1
1
1
1
1
1
1
1
1
1
1
1
1
1
1
1
1
1
1
1
1
1
1
1
1
1
1
1
1
1
1
1
1
1
1
1
1
1
1
1
1
1
1
1
1
1
1
1
1
1
1
1
1
1
1
1
1
1
1
1
1
1
1
1
1
1
1
1
1
1
1
1
1
1
1
1
1
1
1
1
1
1
1
1
1
1
1
1
1
1
1
1
1
1
1
1
1
1
1
1
1
1
1
1
1
1
1
1
1
1
1
1
1
1
1
1
1
1
1
1
1
1
1
1
1
1
1
1
1
1
1
1
1
1
1
1
1
1
1
1
1
1
1
1
1
1
1
1
1
1
1
1
1
1
1
1
1
1
1
1
1
1
1
1
1
1
1
1
1
1
1
1
1
1
1
1
1
1
1
1
1
1
1
1
1
1
1
1
1
1
1
1
1
1
1
1
1
1
1
1
1
1
1
1
1
1
1
1
1
1
1
1
1
1
1
1
1
1
1
1
1
1
1
1
1
1
1
1
1
1
1
1
1
1
1
1
1
1
1
1
1
1
1
1
1
1
1
1
1
1
1
1
1
1
1
1
1
1
1
1
1
1
1
1
1
1
1
1
1
1
1
1
1
1
1
1
1
1
1
1
1
1
1
1
1
1
1
1
1
1
1
1
1
1
1
1
1
1
1
1
1
1
1
1
1
1
1
1
1
1
1
1
1
1
1
1
1
1
1
1
1
1
1
1
1
1
1
1
1
1
1
1
1
1
1
1
1
1
1
1
1
1
1
1
1
1
1
1
1
1
1
1
1
1
1
1
1
1
1
1
1
1
1
1
1
1
1
1
1
1
1
1
1
1
1
1
1
1
1
1
1
1
1
1
1
1
1
1
1
1
1
1
1
1
1
1
1
1
1
1
1
1
1
1
1
1
1
1
1
1
1
1
1
1
1
1
1
1
1
1
1
1
1
1
1
1
1
1
1
1
1
1
1
1
1
1
1
1
1
1
1
1
1
1
1
1
1
1
1
1
1
1
1
1
1
1
1
1
1
1
1
1
1
1
1
1
1
1
1
1
1
1
1
1
1
1
1
1
1
1
1
1
1
1
1
1
1
1
1
1
1
1
1
1
1
1
1
1
1
1
1
1
1
1
1
1
1
1
1
1
1
1
1
1
1
1
1
1
1
1
1
1
1
1
1
1
1
1
1
1
1
1
1
1
1
1
1
1
1
1
1
1
1
1
1
1
1
1
1
1
1
1
1
1
1
1
1
1
1
1
1
1
1
1
1
1
1
1
1
1
1
1
1
1
1
1
1
1
1
1
1
1
1
1
1
1
1
1
1
1
1
1
1
1
1
1
1
1
1
1
1
1
1
1
1
1
1
1
1
1
1
1
1
1
1
1
1
1
1
1
1
1
1
1
1
1
1
1
1
1
1
1
1
1
1
1
1
1
1
1
1
1
1
1
1
1
1
1
1
1
1
1
1
1
1
1
1
1
1
1
1
1
1
1
1
1
1
1
1
1
1
1
1
1
1
1
1
1
1
1
1
1
1
1
1
1
1
1
1
1
1
1
1
1
1
1
1
1
1
1
1
1
1
1
1
1
1
1
1
1
1
1
1
1
1
1
1
1
1
1
1
1
1
1
1
1
1
1
1
1
1
1
1
1
1
1
1
1
1
1
1
1
1
1
1
1
1
1
1
1
1
1
1
1
1
1
1
1
1
1
1
1
1
1
1
1
1
1
1
1
1
1
1
1
1
1
1
1
1
1
1
1
1
1
1
1
1
1
1
1
1
1
1
1
1
1
1
1
1
1
1
1
1
1
1
1
1
1
1
1
1
1
1
1
1
1
1
1
1
1
1
1
1
1
1
1
1
1
1
1
1
1
1
1
1
1
1
1
1
1
1
1
1
1
1
1
1
1
1
1
1
1
1
1
1
1
1
1
1
1
1
1
1
1
1
1
1
1
1
1
1
1
1
1
1
1
1
1
1
1
1
1
1
1
1
1
1
1
1
1
1
1
1
1
1
1
1
1
1
1
1
1
1
1
1
1
1
1
1
1
1
1
1
1
1
1
1
1
1
1
1
1
1
1
1
1
1
1
1
0.999994
0.99995
0.999893
0.999867
0.999886
0.99993
0.999995
1
1
1
1
1
1
1
1
1
1
0.999978
0.999911
0.999814
0.999688
0.99954
0.999386
0.999219
0.999056
0.998896
0.998753
0.998621
0.998517
0.998432
0.998365
0.998349
0.998353
0.998441
0.998497
0.998651
0.998688
0.998994
0.999101
0.000116336
0.000116783
0.000117555
0.000118851
0.000120381
0.000122424
0.000124797
0.000127575
0.000130684
0.000134274
0.000138143
0.000142379
0.000146963
0.000151896
0.000157034
0.000162457
0.00016807
0.000173754
0.000179489
0.000185299
0.000190898
0.000196482
0.000202074
0.000207563
0.000213163
0.000219383
0.000226407
0.000234552
0.000244376
0.00025671
0.000271894
0.00028994
0.000310439
0.00033349
0.000358241
0.000383523
0.000406808
0.000427738
0.000446017
0.000464427
0.000484114
0.000507763
0.000534558
0.00056496
0.000596918
0.000630476
0.000665111
0.00070184
0.000741175
0.000782805
0.000824969
0.0008649
0.000901601
0.000938046
0.00098253
0.00104442
0.00112964
0.0012355
0.00134819
0.00144079
0.00149197
0.00149753
0.00148697
0.00147162
0.00146725
0.00149943
0.00160098
0.00176552
0.00206461
0.00242373
0.00281306
0.00320447
0.003574
0.00389551
0.00415944
0.00436176
0.00448576
0.0045285
0.00452362
0.00449789
0.00445351
0.00439146
0.00431285
0.00421889
0.00411297
0.00399008
0.00385932
0.00370848
0.00354814
0.00336589
0.00316448
0.00294537
0.00268904
0.00243884
0.00211673
0.00183078
0.00139608
0.00107543
0.000503929
0.000171211
2.82186e-09
8.45909e-09
9.39329e-09
8.97307e-09
8.56449e-09
8.08825e-09
8.26076e-09
8.33459e-09
8.95101e-09
9.07767e-09
8.72911e-09
8.20947e-09
8.39348e-09
7.93207e-09
7.01283e-09
6.41318e-09
3.49234e-09
1.7313e-10
1.67095e-10
1.67078e-10
1.67038e-10
1.67051e-10
1.25418e-10
1.10981e-10
1.10079e-10
1.09099e-10
1.08166e-10
1.07425e-10
1.07133e-10
1.07293e-10
1.07448e-10
1.07498e-10
1.07654e-10
1.08287e-10
1.07895e-10
1.05272e-10
1.0106e-10
9.78496e-11
9.56825e-11
9.48446e-11
9.44816e-11
9.47765e-11
9.47277e-11
9.47004e-11
9.389e-11
9.31306e-11
9.21501e-11
9.14333e-11
9.09591e-11
9.08586e-11
9.13233e-11
9.22995e-11
9.34383e-11
9.28129e-11
9.10836e-11
9.02778e-11
9.12908e-11
9.35489e-11
9.67978e-11
9.9195e-11
1.46613e-10
1.40031e-11
1.40032e-11
1.40036e-11
1.40338e-11
9.93913e-11
1.0712e-10
1.26332e-10
1.69434e-10
2.26196e-10
2.96954e-10
3.735e-10
4.43966e-10
5.0053e-10
5.38899e-10
4.28362e-10
1.28573e-10
4.14198e-11
4.14126e-11
4.14033e-11
4.13923e-11
4.13792e-11
4.13654e-11
4.13504e-11
4.13352e-11
4.13196e-11
4.13045e-11
4.129e-11
4.12761e-11
4.12635e-11
4.12513e-11
4.12417e-11
4.12337e-11
4.12295e-11
4.12269e-11
4.12251e-11
4.12251e-11
4.12251e-11
4.12257e-11
1.47972e-10
1.0002e-12
2.09406e-12
9.576e-13
5.31033e-13
2.65691e-13
1.74988e-13
2.06143e-13
2.82201e-13
4.04409e-13
4.79698e-13
5.65649e-13
6.18609e-13
7.03117e-13
7.59548e-13
8.13522e-13
8.75564e-13
7.98637e-13
5.51963e-13
3.68646e-13
3.51661e-13
3.1114e-13
3.23975e-13
4.10971e-13
5.40987e-13
7.43014e-13
5.83599e-13
5.77748e-13
6.32641e-13
6.98623e-13
6.99803e-13
6.34726e-13
6.0351e-13
5.99236e-13
6.02476e-13
6.1516e-13
6.32746e-13
6.53397e-13
6.67522e-13
6.92485e-13
7.02518e-13
7.19991e-13
7.41769e-13
7.97753e-13
8.75851e-13
9.97034e-13
1.1229e-12
1.29426e-12
1.4626e-12
1.73183e-12
1.96024e-12
2.28842e-12
2.49762e-12
2.8098e-12
3.02312e-12
3.55284e-12
4.33602e-12
6.18614e-12
8.7967e-12
1.2008e-11
1.36096e-11
1.42737e-11
1.40031e-11
1.4586e-11
1.42645e-11
1.51258e-11
1.54097e-11
2.28632e-11
4.23717e-11
8.55708e-11
1.42388e-10
2.13207e-10
2.89738e-10
3.60088e-10
4.16521e-10
4.54747e-10
4.78534e-10
4.93847e-10
5.01796e-10
5.18877e-10
5.20501e-10
5.4452e-10
5.34222e-10
5.67632e-10
5.38457e-10
5.83757e-10
5.31158e-10
5.86559e-10
5.08046e-10
5.68209e-10
4.6853e-10
5.23266e-10
4.12496e-10
4.46887e-10
3.45769e-10
3.5149e-10
2.8052e-10
2.57549e-10
1.90845e-10
9.39365e-11
4.11848e-11
3.72043e-15
1.19998e-15
1.28462e-16
2.65463e-17
4.26941e-18
1.08636e-18
1.43233e-18
4.23417e-18
1.2765e-17
2.12527e-17
2.97892e-17
3.60557e-17
4.40481e-17
5.04746e-17
5.82457e-17
6.68036e-17
7.01651e-17
5.98935e-17
4.6423e-17
4.67725e-17
4.34981e-17
4.66643e-17
5.94527e-17
7.78754e-17
1.04217e-16
8.64319e-17
8.94178e-17
1.02563e-16
1.19805e-16
1.30304e-16
1.30089e-16
1.35012e-16
1.44686e-16
1.54999e-16
1.65097e-16
1.73256e-16
1.78563e-16
1.80355e-16
1.87428e-16
1.92663e-16
1.9882e-16
2.05742e-16
2.17251e-16
2.38812e-16
2.68158e-16
3.07588e-16
3.51946e-16
4.07356e-16
4.94822e-16
5.76916e-16
7.02112e-16
8.09582e-16
9.71053e-16
1.11952e-15
1.3758e-15
1.68035e-15
2.28925e-15
3.1196e-15
4.46066e-15
5.55714e-15
6.52188e-15
6.55462e-15
7.0167e-15
7.00098e-15
7.61849e-15
8.25313e-15
1.19404e-14
2.03567e-14
4.62985e-14
9.51696e-14
1.78849e-13
2.91038e-13
4.28951e-13
5.67938e-13
6.96945e-13
7.89939e-13
8.58794e-13
8.68012e-13
9.08064e-13
8.96349e-13
9.52096e-13
9.13062e-13
9.86049e-13
9.0935e-13
1.00137e-12
8.8359e-13
9.87435e-13
8.25376e-13
9.31773e-13
7.42919e-13
8.46964e-13
6.61039e-13
7.73918e-13
6.59729e-13
9.35595e-13
1.21321e-12
2.39782e-12
2.72141e-12
2.18155e-12
7.34457e-13
1.57077e-17
1.00181e-18
2.12025e-20
1.27113e-21
4.38503e-23
1.59652e-24
1.8817e-24
2.63234e-23
2.82971e-22
8.62613e-22
1.53699e-21
2.09592e-21
2.73824e-21
3.26292e-21
3.88814e-21
4.56455e-21
5.05874e-21
4.77907e-21
4.04935e-21
4.21583e-21
4.10684e-21
4.54373e-21
5.78294e-21
7.52863e-21
9.9009e-21
8.85051e-21
9.66646e-21
1.16489e-20
1.43569e-20
1.67835e-20
1.82683e-20
2.05273e-20
2.36444e-20
2.70855e-20
3.06045e-20
3.37957e-20
3.63547e-20
3.813e-20
4.11445e-20
4.3814e-20
4.64179e-20
4.88667e-20
5.16953e-20
5.73234e-20
6.42963e-20
7.51396e-20
8.55901e-20
1.0109e-19
1.25839e-19
1.50045e-19
1.87705e-19
2.24023e-19
2.79707e-19
3.40699e-19
4.37451e-19
5.60146e-19
7.77514e-19
1.06668e-18
1.53258e-18
1.97661e-18
2.45463e-18
2.60677e-18
2.84096e-18
2.92397e-18
3.26322e-18
3.84021e-18
5.82355e-18
9.84611e-18
2.22239e-17
4.98567e-17
1.10787e-16
2.08818e-16
3.57411e-16
5.29097e-16
7.18775e-16
8.6727e-16
9.97252e-16
1.02068e-15
1.08061e-15
1.05553e-15
1.13698e-15
1.0773e-15
1.17863e-15
1.07325e-15
1.19544e-15
1.04769e-15
1.18254e-15
9.92282e-16
1.13666e-15
9.38002e-16
1.11725e-15
9.68169e-16
1.31894e-15
1.53978e-15
3.73994e-15
8.59606e-15
2.6527e-14
4.42797e-14
4.63212e-14
1.0861e-14
6.47593e-20
9.87619e-22
4.04704e-24
6.15776e-26
3.57355e-28
2.59608e-31
4.91086e-32
7.32373e-29
4.59872e-27
3.30482e-26
7.97065e-26
1.24903e-25
1.74587e-25
2.14961e-25
2.59804e-25
3.06343e-25
3.44119e-25
3.43306e-25
3.08505e-25
3.27812e-25
3.32981e-25
3.80551e-25
4.85499e-25
6.32209e-25
8.26688e-25
8.06944e-25
9.3461e-25
1.18144e-24
1.52616e-24
1.89467e-24
2.21489e-24
2.65447e-24
3.2444e-24
3.93532e-24
4.69155e-24
5.4516e-24
6.15799e-24
6.77718e-24
7.66066e-24
8.53205e-24
9.39653e-24
1.02095e-23
1.10182e-23
1.24613e-23
1.41319e-23
1.6867e-23
1.92451e-23
2.31309e-23
2.94792e-23
3.57732e-23
4.58763e-23
5.62142e-23
7.26274e-23
9.265e-23
1.23384e-22
1.64846e-22
2.34675e-22
3.30795e-22
4.8151e-22
6.41729e-22
8.31634e-22
9.45978e-22
1.07815e-21
1.16571e-21
1.41154e-21
1.80203e-21
2.81463e-21
4.79512e-21
1.04239e-20
2.34211e-20
5.68232e-20
1.18811e-19
2.30806e-19
3.77005e-19
5.64721e-19
7.26791e-19
8.91742e-19
9.46283e-19
1.02195e-18
9.97399e-19
1.09139e-18
1.03566e-18
1.14998e-18
1.05493e-18
1.19271e-18
1.06611e-18
1.22508e-18
1.071e-18
1.26795e-18
1.14312e-18
1.48507e-18
1.56177e-18
2.74654e-18
5.23472e-18
2.0745e-17
7.06068e-17
3.0184e-16
7.16095e-16
8.84018e-16
1.32449e-16
2.41975e-22
1.03626e-24
8.49448e-28
3.10156e-30
2.79663e-33
2.21747e-38
2.83661e-39
1.22262e-34
6.06744e-32
1.22556e-30
4.17863e-30
7.6205e-30
1.141e-29
1.44848e-29
1.76346e-29
2.07397e-29
2.32273e-29
2.38766e-29
2.24276e-29
2.43032e-29
2.58297e-29
3.06666e-29
3.94875e-29
5.17813e-29
6.80152e-29
7.26552e-29
8.90374e-29
1.1733e-28
1.57294e-28
2.04644e-28
2.53192e-28
3.19414e-28
4.09663e-28
5.21255e-28
6.51098e-28
7.92613e-28
9.38779e-28
1.08529e-27
1.28688e-27
1.50306e-27
1.72893e-27
1.9513e-27
2.16849e-27
2.51747e-27
2.91003e-27
3.55582e-27
4.09217e-27
5.00512e-27
6.5275e-27
8.04507e-27
1.05618e-26
1.32197e-26
1.76124e-26
2.33726e-26
3.21266e-26
4.44791e-26
6.4775e-26
9.39263e-26
1.39271e-25
1.92438e-25
2.60021e-25
3.16521e-25
3.86357e-25
4.55664e-25
5.90393e-25
8.06825e-25
1.30625e-24
2.28102e-24
4.84463e-24
1.06523e-23
2.63802e-23
5.83715e-23
1.24516e-22
2.20813e-22
3.62018e-22
4.97647e-22
6.54889e-22
7.30436e-22
8.24874e-22
8.13925e-22
9.09004e-22
8.7706e-22
9.93982e-22
9.36971e-22
1.08469e-21
1.01362e-21
1.20349e-21
1.13289e-21
1.42595e-21
1.46853e-21
2.19378e-21
3.01544e-21
7.79961e-21
2.30698e-20
1.19858e-19
5.81554e-19
3.34568e-18
1.0667e-17
1.47826e-17
1.31642e-18
7.77884e-25
1.1233e-27
1.9182e-31
1.64118e-34
2.38849e-38
5.59408e-45
5.35044e-45
2.26938e-40
7.38083e-37
4.52559e-35
2.22395e-34
4.74343e-34
7.6111e-34
9.95633e-34
1.219e-33
1.42957e-33
1.5912e-33
1.66764e-33
1.62953e-33
1.81404e-33
2.03513e-33
2.52814e-33
3.30894e-33
4.38856e-33
5.826e-33
6.74866e-33
8.68903e-33
1.1842e-32
1.63156e-32
2.19755e-32
2.84265e-32
3.73843e-32
4.99166e-32
6.61717e-32
8.61138e-32
1.09323e-31
1.35335e-31
1.64017e-31
2.03668e-31
2.4924e-31
2.99567e-31
3.51813e-31
4.04223e-31
4.83092e-31
5.7184e-31
7.16367e-31
8.36263e-31
1.04191e-30
1.39016e-30
1.73973e-30
2.33603e-30
2.97721e-30
4.07863e-30
5.59941e-30
7.91469e-30
1.12951e-29
1.67918e-29
2.5e-29
3.7853e-29
5.42822e-29
7.65871e-29
9.95604e-29
1.29992e-28
1.66669e-28
2.31296e-28
3.38681e-28
5.71987e-28
1.03534e-27
2.19331e-27
4.77755e-27
1.171e-26
2.64863e-26
5.98064e-26
1.13027e-25
2.00318e-25
2.93884e-25
4.15221e-25
4.91767e-25
5.91803e-25
6.04742e-25
6.93281e-25
6.90822e-25
8.04752e-25
7.93694e-25
9.51311e-25
9.49375e-25
1.1866e-24
1.23486e-24
1.70661e-24
2.08571e-24
3.80113e-24
7.45528e-24
2.63265e-23
1.02266e-22
6.88481e-22
4.62369e-21
3.48099e-20
1.42145e-19
2.11851e-19
1.05374e-20
2.07145e-27
1.46194e-30
9.96671e-35
1.13971e-38
2.37028e-43
3.91939e-51
2.83427e-50
9.54502e-46
9.32394e-42
1.71322e-39
1.20925e-38
3.00982e-38
5.16973e-38
6.96769e-38
8.58822e-38
1.00817e-37
1.12073e-37
1.19682e-37
1.21894e-37
1.40991e-37
1.68516e-37
2.20089e-37
2.94066e-37
3.9466e-37
5.30293e-37
6.5616e-37
8.80213e-37
1.23208e-36
1.73125e-36
2.39062e-36
3.20258e-36
4.36023e-36
6.02775e-36
8.28353e-36
1.118e-35
1.47388e-35
1.90002e-35
2.40624e-35
3.11977e-35
3.99005e-35
5.0033e-35
6.1109e-35
7.26781e-35
8.94899e-35
1.08729e-34
1.39713e-34
1.66115e-34
2.11058e-34
2.88027e-34
3.66237e-34
5.02665e-34
6.51204e-34
9.15223e-34
1.29423e-33
1.87585e-33
2.74878e-33
4.1671e-33
6.36088e-33
9.85186e-33
1.46596e-32
2.16177e-32
2.99155e-32
4.16748e-32
5.77819e-32
8.56457e-32
1.3401e-31
2.36549e-31
4.45638e-31
9.54666e-31
2.09417e-30
5.07231e-30
1.15665e-29
2.68557e-29
5.32017e-29
1.00399e-28
1.56824e-28
2.37305e-28
3.00582e-28
3.87369e-28
4.2407e-28
5.04603e-28
5.26514e-28
6.36265e-28
6.65995e-28
8.3752e-28
9.08761e-28
1.22044e-27
1.43736e-27
2.25739e-27
3.40959e-27
8.09114e-27
2.05491e-26
8.83209e-26
4.43124e-25
3.82241e-24
3.45099e-23
3.30531e-22
1.65881e-21
2.55727e-21
6.72629e-23
4.44519e-30
2.79736e-33
3.7729e-37
2.89456e-41
1.71435e-46
5.63579e-57
3.76525e-55
1.01368e-50
1.35317e-46
6.8191e-44
6.76909e-43
1.95001e-42
3.57468e-42
4.96266e-42
6.17387e-42
7.30398e-42
8.19316e-42
8.97263e-42
9.58053e-42
1.16395e-41
1.48976e-41
2.0461e-41
2.79244e-41
3.78322e-41
5.13695e-41
6.68751e-41
9.28003e-41
1.32753e-40
1.89252e-40
2.66001e-40
3.66354e-40
5.13692e-40
7.32269e-40
1.03912e-39
1.44886e-39
1.97569e-39
2.6422e-39
3.48405e-39
4.70051e-39
6.26332e-39
8.17414e-39
1.03662e-38
1.2758e-38
1.61807e-38
2.01973e-38
2.66175e-38
3.23218e-38
4.19155e-38
5.84882e-38
7.56347e-38
1.06065e-37
1.39579e-37
2.00895e-37
2.91679e-37
4.32598e-37
6.49148e-37
1.0031e-36
1.56869e-36
2.48902e-36
3.84075e-36
5.92013e-36
8.68798e-36
1.28705e-35
1.91875e-35
3.02658e-35
5.04111e-35
9.29939e-35
1.82445e-34
3.98177e-34
8.88753e-34
2.14658e-33
4.94027e-33
1.16211e-32
2.38781e-32
4.73187e-32
7.84739e-32
1.26613e-31
1.72264e-31
2.38144e-31
2.82719e-31
3.59975e-31
3.99425e-31
5.05353e-31
5.69154e-31
7.61352e-31
9.12281e-31
1.34625e-30
1.83848e-30
3.41154e-30
6.44988e-30
1.80803e-29
5.56443e-29
2.88629e-28
1.84232e-27
2.00809e-26
2.36745e-25
2.80578e-24
1.66981e-23
2.56832e-23
3.40051e-25
7.54066e-33
6.14306e-36
1.36292e-39
1.3583e-43
2.88005e-48
2.76243e-61
8.23633e-60
1.88728e-55
2.47723e-51
2.90692e-48
3.92949e-47
1.29363e-46
2.51887e-46
3.59968e-46
4.53636e-46
5.45866e-46
6.26744e-46
7.11295e-46
8.01185e-46
1.0291e-45
1.40914e-45
2.02768e-45
2.82108e-45
3.84511e-45
5.26255e-45
7.12057e-45
1.01678e-44
1.48194e-44
2.13646e-44
3.04107e-44
4.28157e-44
6.15781e-44
9.02209e-44
1.31769e-43
1.89147e-43
2.65806e-43
3.67419e-43
5.02625e-43
7.03237e-43
9.73124e-43
1.31824e-42
1.73226e-42
2.20385e-42
2.87661e-42
3.68935e-42
4.98435e-42
6.1921e-42
8.20094e-42
1.16965e-41
1.53973e-41
2.20541e-41
2.948e-41
4.33959e-41
6.45401e-41
9.78097e-41
1.50033e-40
2.36309e-40
3.78467e-40
6.15919e-40
9.84814e-40
1.58584e-39
2.45818e-39
3.85826e-39
6.15023e-39
1.02851e-38
1.81645e-38
3.49897e-38
7.14447e-38
1.59496e-37
3.64136e-37
8.85006e-37
2.0682e-36
4.91469e-36
1.04319e-35
2.15041e-35
3.77779e-35
6.46932e-35
9.47342e-35
1.40461e-34
1.81653e-34
2.49702e-34
3.04112e-34
4.11606e-34
5.04982e-34
7.29548e-34
9.81035e-34
1.6262e-33
2.59625e-33
5.52891e-33
1.21844e-32
3.95264e-32
1.46046e-31
9.06786e-31
7.24886e-30
9.82448e-29
1.46992e-27
2.09894e-26
1.43532e-25
2.12959e-25
1.35626e-27
9.99217e-36
1.14341e-38
3.28718e-42
3.79873e-46
1.13258e-50
4.59987e-58
2.64732e-64
5.24831e-60
6.21168e-56
1.34173e-52
2.37897e-51
8.81283e-51
1.81144e-50
2.66215e-50
3.41394e-50
4.22668e-50
5.05099e-50
6.00788e-50
7.16294e-50
9.73215e-50
1.41733e-49
2.12501e-49
3.0057e-49
4.10922e-49
5.65609e-49
7.88481e-49
1.15455e-48
1.71148e-48
2.49047e-48
3.5775e-48
5.12605e-48
7.53662e-48
1.13186e-47
1.69657e-47
2.4993e-47
3.60725e-47
5.13581e-47
7.26359e-47
1.05053e-46
1.50501e-46
2.1105e-46
2.86739e-46
3.76579e-46
5.0532e-46
6.65652e-46
9.21328e-46
1.17212e-45
1.58593e-45
2.31089e-45
3.09916e-45
4.53262e-45
6.1561e-45
9.25944e-45
1.40833e-44
2.17879e-44
3.41253e-44
5.47929e-44
8.98582e-44
1.50111e-43
2.48485e-43
4.17609e-43
6.81122e-43
1.12847e-42
1.91348e-42
3.38018e-42
6.30693e-42
1.26734e-41
2.69097e-41
6.16077e-41
1.44243e-40
3.55138e-40
8.47427e-40
2.04078e-39
4.47585e-39
9.55671e-39
1.77611e-38
3.21746e-38
5.07309e-38
8.0606e-38
1.13747e-37
1.69001e-37
2.26866e-37
3.34018e-37
4.55543e-37
7.21512e-37
1.09129e-36
2.00804e-36
3.65189e-36
8.77452e-36
2.24307e-35
8.38088e-35
3.68449e-34
2.71304e-33
2.67229e-32
4.42525e-31
8.17387e-30
1.37123e-28
1.04736e-27
1.45254e-27
4.26206e-30
1.0292e-38
1.6531e-41
5.49909e-45
7.06508e-49
2.34188e-53
9.77575e-60
1.16191e-68
2.05094e-64
2.18615e-60
6.73334e-57
1.50719e-55
6.17916e-55
1.33135e-54
2.00979e-54
2.63755e-54
3.40536e-54
4.30922e-54
5.41962e-54
6.83146e-54
9.77254e-54
1.50157e-53
2.33342e-53
3.34752e-53
4.5812e-53
6.33187e-53
9.04056e-53
1.35442e-52
2.04022e-52
2.9934e-52
4.32902e-52
6.29079e-52
9.42908e-52
1.44815e-51
2.22222e-51
3.35018e-51
4.95076e-51
7.23675e-51
1.05476e-50
1.57229e-50
2.32532e-50
3.36687e-50
4.71925e-50
6.38799e-50
8.80166e-50
1.19007e-49
1.68625e-49
2.19788e-49
3.03828e-49
4.52054e-49
6.17982e-49
9.22542e-49
1.27362e-48
1.95593e-48
3.03885e-48
4.79626e-48
7.66503e-48
1.25488e-47
2.10703e-47
3.6148e-47
6.18887e-47
1.08421e-46
1.85412e-46
3.23123e-46
5.80129e-46
1.07892e-45
2.11992e-45
4.43938e-45
9.79502e-45
2.30414e-44
5.54126e-44
1.38871e-43
3.39678e-43
8.33004e-43
1.89132e-42
4.18115e-42
8.21604e-42
1.57193e-41
2.66739e-41
4.53857e-41
6.98744e-41
1.1227e-40
1.66085e-40
2.66245e-40
4.03364e-40
7.01433e-40
1.19072e-39
2.43143e-39
5.02179e-39
1.35802e-38
4.00562e-38
1.71456e-37
8.88333e-37
7.67924e-36
9.16674e-35
1.82121e-33
4.04557e-32
7.78663e-31
6.47342e-30
8.14886e-30
1.05638e-32
8.25777e-42
1.85972e-44
6.72746e-48
9.12403e-52
3.16405e-56
2.01859e-62
6.41908e-73
1.04018e-68
1.01874e-64
3.67035e-61
1.00038e-59
4.46473e-59
1.00096e-58
1.55058e-58
2.09689e-58
2.86565e-58
3.89903e-58
5.20708e-58
6.90202e-58
1.03198e-57
1.66e-57
2.6628e-57
3.86843e-57
5.29365e-57
7.33999e-57
1.06919e-56
1.63652e-56
2.50389e-56
3.70184e-56
5.38102e-56
7.90899e-56
1.20578e-55
1.89014e-55
2.96296e-55
4.55996e-55
6.88038e-55
1.02959e-54
1.54196e-54
2.3628e-54
3.59807e-54
5.3662e-54
7.74383e-54
1.07863e-53
1.52412e-53
2.11345e-53
3.06308e-53
4.09044e-53
5.77608e-53
8.76961e-53
1.22241e-52
1.86183e-52
2.61372e-52
4.09567e-52
6.49443e-52
1.04524e-51
1.70366e-51
2.84434e-51
4.88907e-51
8.61504e-51
1.52403e-50
2.77938e-50
4.96799e-50
9.07787e-50
1.71876e-49
3.35522e-49
6.92286e-49
1.50948e-48
3.45886e-48
8.3737e-48
2.07115e-47
5.30286e-47
1.33318e-46
3.34448e-46
7.87759e-46
1.80605e-45
3.75179e-45
7.57966e-45
1.38291e-44
2.51895e-44
4.22637e-44
7.34571e-44
1.1961e-43
2.08846e-43
3.50911e-43
6.69982e-43
1.27362e-42
2.8832e-42
6.73872e-42
2.04494e-41
6.9186e-41
3.37238e-40
2.03889e-39
2.04742e-38
2.91351e-37
6.81845e-36
1.7774e-34
3.83913e-33
3.39196e-32
3.77128e-32
2.07132e-35
5.2096e-45
1.66035e-47
6.33042e-51
8.57207e-55
2.96204e-59
1.73503e-65
4.1701e-77
6.3165e-73
5.76207e-69
2.16346e-65
6.95092e-64
3.32515e-63
7.70156e-63
1.22363e-62
1.7195e-62
2.52549e-62
3.73565e-62
5.29346e-62
7.32133e-62
1.13548e-61
1.9001e-61
3.13755e-61
4.61203e-61
6.30786e-61
8.76981e-61
1.29995e-60
2.0309e-60
3.15534e-60
4.6991e-60
6.85825e-60
1.01747e-59
1.57492e-59
2.51568e-59
4.0212e-59
6.30407e-59
9.68899e-59
1.48046e-58
2.27235e-58
3.57094e-58
5.58596e-58
8.56226e-58
1.26958e-57
1.81676e-57
2.62929e-57
3.73553e-57
5.53263e-57
7.56726e-57
1.09111e-56
1.68917e-56
2.40089e-56
3.72885e-56
5.32442e-56
8.508e-56
1.37593e-55
2.25731e-55
3.75123e-55
6.38732e-55
1.12371e-54
2.03355e-54
3.71334e-54
7.04011e-54
1.31171e-53
2.50601e-53
4.9864e-53
1.01904e-52
2.20267e-52
4.99675e-52
1.18864e-51
2.96577e-51
7.55351e-51
1.98184e-50
5.13182e-50
1.32204e-49
3.2362e-49
7.71227e-49
1.69368e-48
3.61527e-48
7.08432e-48
1.38137e-47
2.52198e-47
4.74241e-47
8.48521e-47
1.61387e-46
3.00126e-46
6.28903e-46
1.33519e-45
3.34597e-45
8.81425e-45
2.99124e-44
1.15353e-43
6.36245e-43
4.44414e-42
5.12889e-41
8.5619e-40
2.31835e-38
6.93308e-37
1.64639e-35
1.51213e-34
1.44788e-34
3.22788e-38
2.62727e-48
1.2038e-50
4.76193e-54
6.20049e-58
1.98628e-62
9.15148e-69
3.0428e-81
4.33752e-77
3.70539e-73
1.37001e-69
5.04485e-68
2.55095e-67
6.06357e-67
9.88348e-67
1.45758e-66
2.33335e-66
3.77263e-66
5.64631e-66
8.0825e-66
1.29177e-65
2.23848e-65
3.79853e-65
5.64785e-65
7.7202e-65
1.07597e-64
1.62018e-64
2.58179e-64
4.07264e-64
6.10847e-64
8.94503e-64
1.33747e-63
2.0989e-63
3.4118e-63
5.55269e-63
8.85166e-63
1.38294e-62
2.15289e-62
3.37879e-62
5.43399e-62
8.71347e-62
1.36989e-61
2.08319e-61
3.05764e-61
4.52641e-61
6.58164e-61
9.95154e-61
1.39327e-60
2.05009e-60
3.23347e-60
4.68539e-60
7.41563e-60
1.07715e-59
1.75411e-59
2.89143e-59
4.83364e-59
8.1876e-59
1.42183e-58
2.55952e-58
4.75561e-58
8.95505e-58
1.76264e-57
3.41528e-57
6.80503e-57
1.41884e-56
3.02862e-56
6.84416e-56
1.6142e-55
3.98539e-55
1.02618e-54
2.69443e-54
7.26365e-54
1.94075e-53
5.15077e-53
1.31231e-52
3.2584e-52
7.56468e-52
1.70759e-51
3.58978e-51
7.49413e-51
1.4863e-50
3.02398e-50
5.93405e-50
1.22925e-49
2.52443e-49
5.80181e-49
1.37162e-48
3.79803e-48
1.12285e-47
4.24549e-47
1.85413e-46
1.14973e-45
9.18764e-45
1.20583e-43
2.32536e-42
7.16177e-41