/*--------------------------------*- C++ -*----------------------------------*\
| =========                 |                                                 |
| \\      /  F ield         | OpenFOAM: The Open Source CFD Toolbox           |
|  \\    /   O peration     | Version:  2.4.0                                 |
|   \\  /    A nd           | Web:      www.OpenFOAM.org                      |
|    \\/     M anipulation  |                                                 |
\*---------------------------------------------------------------------------*/
FoamFile
{
    version     2.0;
    format      ascii;
    class       volScalarField;
    location    "0.326";
    object      p;
}
// * * * * * * * * * * * * * * * * * * * * * * * * * * * * * * * * * * * * * //

dimensions      [1 -1 -2 0 0 0 0];

internalField   nonuniform List<scalar> 
10000
(
0.0185818
0.0185854
0.0185927
0.018604
0.018619
0.0186375
0.0186595
0.0186848
0.0187134
0.0187453
0.0187803
0.0188187
0.0188603
0.0189052
0.0189534
0.019005
0.0190599
0.0191182
0.01918
0.0192452
0.0193138
0.0193859
0.0194615
0.0195406
0.0196233
0.0197097
0.0197999
0.0198939
0.019992
0.0200942
0.0202007
0.0203114
0.0204263
0.0205454
0.0206687
0.0207959
0.020927
0.0210619
0.0212004
0.0213424
0.0214878
0.0216365
0.0217885
0.0219436
0.0221018
0.022263
0.0224272
0.0225942
0.0227641
0.0229366
0.0185777
0.0185812
0.0185885
0.0185995
0.0186142
0.0186325
0.0186543
0.0186794
0.0187079
0.0187396
0.0187746
0.018813
0.0188546
0.0188995
0.0189478
0.0189994
0.0190544
0.0191128
0.0191747
0.0192399
0.0193086
0.0193808
0.0194566
0.0195359
0.0196188
0.0197055
0.0197959
0.0198903
0.0199886
0.0200911
0.0201977
0.0203086
0.0204236
0.0205428
0.020666
0.0207932
0.0209243
0.0210592
0.0211976
0.0213397
0.0214852
0.021634
0.0217862
0.0219415
0.0220999
0.0222614
0.0224259
0.0225932
0.0227634
0.0229363
0.0185684
0.018572
0.0185792
0.0185901
0.0186047
0.0186228
0.0186444
0.0186694
0.0186978
0.0187294
0.0187644
0.0188027
0.0188444
0.0188894
0.0189377
0.0189894
0.0190445
0.019103
0.0191649
0.0192303
0.0192991
0.0193715
0.0194474
0.0195269
0.01961
0.0196969
0.0197875
0.0198821
0.0199807
0.0200834
0.0201903
0.0203013
0.0204165
0.0205358
0.0206592
0.0207865
0.0209177
0.0210527
0.0211913
0.0213335
0.0214792
0.0216283
0.0217807
0.0219363
0.0220951
0.022257
0.0224219
0.0225897
0.0227603
0.0229337
0.0185534
0.0185572
0.0185645
0.0185754
0.01859
0.018608
0.0186295
0.0186545
0.0186827
0.0187144
0.0187494
0.0187877
0.0188294
0.0188744
0.0189228
0.0189746
0.0190298
0.0190884
0.0191504
0.0192158
0.0192848
0.0193573
0.0194333
0.0195129
0.0195962
0.0196832
0.0197741
0.0198689
0.0199677
0.0200706
0.0201776
0.0202889
0.0204044
0.020524
0.0206476
0.0207752
0.0209067
0.0210419
0.0211808
0.0213234
0.0214694
0.0216188
0.0217716
0.0219277
0.022087
0.0222494
0.0224148
0.0225832
0.0227545
0.0229285
0.0185329
0.018537
0.0185445
0.0185555
0.0185701
0.0185882
0.0186096
0.0186345
0.0186628
0.0186944
0.0187294
0.0187678
0.0188095
0.0188546
0.0189031
0.0189549
0.0190102
0.0190689
0.019131
0.0191966
0.0192656
0.0193382
0.0194143
0.0194941
0.0195775
0.0196646
0.0197556
0.0198505
0.0199494
0.0200525
0.0201599
0.0202715
0.0203873
0.0205073
0.0206314
0.0207594
0.0208913
0.0210269
0.0211663
0.0213092
0.0214557
0.0216057
0.021759
0.0219156
0.0220755
0.0222386
0.0224047
0.0225739
0.0227459
0.0229207
0.0185072
0.0185115
0.0185193
0.0185305
0.0185452
0.0185633
0.0185848
0.0186097
0.0186379
0.0186696
0.0187046
0.018743
0.0187847
0.0188299
0.0188784
0.0189304
0.0189857
0.0190445
0.0191067
0.0191724
0.0192416
0.0193143
0.0193905
0.0194704
0.0195539
0.0196411
0.0197321
0.019827
0.0199261
0.0200293
0.0201369
0.020249
0.0203653
0.0204858
0.0206104
0.020739
0.0208715
0.0210077
0.0211476
0.0212912
0.0214382
0.0215888
0.0217427
0.0219001
0.0220607
0.0222245
0.0223915
0.0225615
0.0227344
0.0229102
0.0184763
0.018481
0.018489
0.0185004
0.0185152
0.0185334
0.0185549
0.0185799
0.0186082
0.0186398
0.0186749
0.0187133
0.0187551
0.0188003
0.0188489
0.0189009
0.0189564
0.0190153
0.0190776
0.0191434
0.0192127
0.0192855
0.0193619
0.0194418
0.0195253
0.0196125
0.0197035
0.0197985
0.0198975
0.0200009
0.0201087
0.0202213
0.0203384
0.0204596
0.0205849
0.0207142
0.0208474
0.0209843
0.0211249
0.0212691
0.0214168
0.0215681
0.0217228
0.0218809
0.0220423
0.0222071
0.022375
0.022546
0.02272
0.0228969
0.0184405
0.0184454
0.0184537
0.0184653
0.0184802
0.0184985
0.0185201
0.0185451
0.0185735
0.0186052
0.0186402
0.0186787
0.0187205
0.0187658
0.0188145
0.0188666
0.0189222
0.0189812
0.0190437
0.0191096
0.0191791
0.019252
0.0193284
0.0194084
0.0194919
0.0195791
0.01967
0.0197648
0.0198636
0.0199669
0.020075
0.0201884
0.0203064
0.0204284
0.0205547
0.020685
0.0208189
0.0209566
0.021098
0.021243
0.0213915
0.0215436
0.0216991
0.0218581
0.0220204
0.0221861
0.0223551
0.0225272
0.0227025
0.0228806
0.0183997
0.018405
0.0184135
0.0184253
0.0184403
0.0184587
0.0184804
0.0185055
0.0185339
0.0185656
0.0186007
0.0186392
0.0186811
0.0187264
0.0187752
0.0188274
0.0188831
0.0189422
0.0190049
0.019071
0.0191406
0.0192137
0.0192902
0.0193702
0.0194537
0.0195407
0.0196313
0.0197257
0.0198241
0.0199271
0.0200351
0.0201496
0.0202691
0.0203921
0.0205197
0.0206511
0.0207861
0.0209247
0.0210669
0.0212128
0.0213622
0.0215151
0.0216715
0.0218315
0.0219948
0.0221616
0.0223317
0.022505
0.0226816
0.0228612
0.0183541
0.0183596
0.0183684
0.0183804
0.0183956
0.0184141
0.0184359
0.018461
0.0184894
0.0185211
0.0185563
0.0185948
0.0186367
0.0186821
0.018731
0.0187833
0.0188391
0.0188984
0.0189612
0.0190276
0.0190974
0.0191707
0.0192474
0.0193273
0.0194107
0.0194974
0.0195874
0.0196811
0.0197786
0.0198806
0.0199882
0.0201044
0.0202265
0.0203501
0.0204793
0.0206124
0.0207486
0.0208883
0.0210316
0.0211784
0.0213288
0.0214826
0.02164
0.0218009
0.0219653
0.0221332
0.0223045
0.0224792
0.0226572
0.0228383
0.0183037
0.0183094
0.0183184
0.0183306
0.0183459
0.0183645
0.0183864
0.0184115
0.01844
0.0184718
0.0185069
0.0185455
0.0185874
0.0186329
0.0186818
0.0187342
0.0187902
0.0188498
0.0189128
0.0189794
0.0190496
0.019123
0.0191998
0.0192797
0.0193627
0.0194489
0.0195383
0.019631
0.019727
0.0198275
0.0199342
0.0200542
0.0201811
0.0203036
0.0204343
0.020569
0.0207063
0.0208471
0.0209917
0.0211397
0.0212912
0.0214461
0.0216045
0.0217664
0.0219318
0.0221009
0.0222734
0.0224495
0.022629
0.0228119
0.0182484
0.0182544
0.0182637
0.018276
0.0182915
0.0183102
0.0183321
0.0183573
0.0183858
0.0184176
0.0184527
0.0184912
0.0185332
0.0185787
0.0186277
0.0186802
0.0187364
0.0187962
0.0188596
0.0189265
0.0189969
0.0190706
0.0191474
0.0192271
0.0193098
0.0193957
0.0194846
0.0195764
0.0196708
0.019769
0.0198746
0.0200068
0.0201434
0.0202577
0.0203867
0.0205217
0.0206593
0.0208009
0.0209467
0.0210963
0.0212491
0.0214052
0.0215647
0.0217276
0.0218941
0.0220643
0.0222382
0.0224157
0.0225968
0.0227815
0.0181885
0.0181947
0.0182042
0.0182166
0.0182322
0.018251
0.018273
0.0182982
0.0183267
0.0183585
0.0183936
0.0184321
0.018474
0.0185195
0.0185685
0.0186212
0.0186777
0.0187377
0.0188013
0.0188685
0.0189393
0.0190133
0.0190901
0.0191698
0.0192527
0.0193385
0.0194271
0.0195177
0.0196114
0.0197098
0.0198145
0.0200023
0.0201965
0.020228
0.020339
0.020472
0.0206089
0.0207506
0.0208973
0.0210481
0.0212023
0.0213598
0.0215205
0.0216845
0.0218521
0.0220234
0.0221986
0.0223776
0.0225603
0.0227468
0.0181239
0.0181303
0.01814
0.0181526
0.0181683
0.0181871
0.0182091
0.0182344
0.0182628
0.0182945
0.0183296
0.0183679
0.0184098
0.0184552
0.0185043
0.0185571
0.0186138
0.0186741
0.0187377
0.0188052
0.0188766
0.0189512
0.0190282
0.0191083
0.0191918
0.0192781
0.0193661
0.0194558
0.0195518
0.0196513
0.0198055
0.0200873
0.020429
0.0203536
0.0203209
0.02043
0.0205619
0.0207001
0.0208457
0.0209965
0.0211512
0.0213096
0.0214714
0.0216366
0.0218053
0.0219778
0.0221542
0.0223346
0.0225191
0.0227075
0.0180547
0.0180613
0.0180711
0.0180838
0.0180996
0.0181185
0.0181405
0.0181657
0.0181941
0.0182258
0.0182606
0.0182989
0.0183405
0.0183857
0.0184347
0.0184876
0.0185446
0.0186051
0.0186687
0.0187367
0.0188094
0.0188849
0.018962
0.0190428
0.0191276
0.0192152
0.0193027
0.0193949
0.0195037
0.0196977
0.019646
0.0220275
0.0251181
0.020713
0.0204365
0.0204367
0.0205276
0.0206514
0.0207923
0.0209422
0.0210966
0.021255
0.0214174
0.0215836
0.0217535
0.0219271
0.0221047
0.0222866
0.0224727
0.022663
0.0179809
0.0179877
0.0179976
0.0180104
0.0180263
0.0180452
0.0180672
0.0180924
0.0181207
0.0181522
0.0181869
0.0182248
0.0182661
0.0183108
0.0183594
0.0184122
0.0184694
0.0185305
0.0185944
0.0186634
0.0187383
0.0188155
0.0188925
0.0189733
0.0190582
0.0191465
0.0192402
0.0193478
0.0195261
0.0197765
0.0220692
0.0274339
0.0274836
0.0268222
0.0209585
0.0205526
0.0205269
0.0206054
0.0207365
0.0208838
0.0210377
0.0211961
0.0213586
0.0215251
0.021696
0.0218708
0.0220497
0.0222329
0.0224206
0.0226127
0.0179026
0.0179095
0.0179196
0.0179325
0.0179483
0.0179673
0.0179893
0.0180144
0.0180426
0.0180739
0.0181083
0.0181457
0.0181863
0.0182304
0.0182784
0.0183308
0.0183885
0.0184501
0.0185149
0.0185857
0.0186633
0.0187424
0.0188211
0.0189026
0.0189881
0.0190725
0.0191647
0.0192662
0.0193895
0.0195918
0.0196931
0.0241238
0.0272299
0.0217581
0.0203213
0.0203821
0.0204237
0.0205266
0.0206648
0.020815
0.0209714
0.0211316
0.0212946
0.0214611
0.0216324
0.0218082
0.0219884
0.022173
0.0223622
0.0225561
0.0178198
0.0178268
0.017837
0.0178499
0.0178659
0.0178848
0.0179069
0.0179319
0.01796
0.017991
0.0180249
0.0180616
0.0181013
0.0181446
0.018192
0.0182441
0.0183018
0.0183648
0.0184287
0.0185067
0.0185904
0.0186662
0.018745
0.0188194
0.0189131
0.0191334
0.0190744
0.0191967
0.0193048
0.0194174
0.0195854
0.0200548
0.0208117
0.0202584
0.0201238
0.0201987
0.020318
0.0204451
0.0205882
0.0207376
0.0208966
0.0210611
0.0212256
0.0213914
0.0215625
0.0217387
0.0219199
0.022106
0.0222967
0.0224924
0.0177326
0.0177397
0.0177499
0.0177629
0.0177789
0.0177979
0.0178199
0.0178449
0.0178728
0.0179035
0.0179368
0.0179727
0.0180118
0.0180545
0.0181012
0.0181525
0.0182083
0.0182697
0.0183364
0.0184181
0.0185161
0.0186176
0.0186534
0.0187288
0.0188179
0.0189349
0.019635
0.0191238
0.0192361
0.019339
0.0194413
0.0196706
0.0199275
0.0198841
0.019916
0.0200946
0.020243
0.0203785
0.0205058
0.020648
0.0208128
0.0209854
0.0211519
0.0213157
0.0214862
0.021662
0.0218433
0.0220306
0.0222233
0.0224206
0.017641
0.0176482
0.0176584
0.0176714
0.0176874
0.0177065
0.0177285
0.0177534
0.0177812
0.0178116
0.0178443
0.0178798
0.0179187
0.0179613
0.0180076
0.0180574
0.0181101
0.0181676
0.0182355
0.0183201
0.0184344
0.0185487
0.0187452
0.0186515
0.0187157
0.0188294
0.0189611
0.0190409
0.0191404
0.0192583
0.0193747
0.0195189
0.0196728
0.0197766
0.0199156
0.0202579
0.0201372
0.0202754
0.0203983
0.0205421
0.0207272
0.0209135
0.02108
0.0212339
0.0214025
0.0215775
0.021758
0.0219455
0.0221405
0.0223399
0.0175451
0.0175522
0.0175625
0.0175755
0.0175915
0.0176106
0.0176327
0.0176577
0.0176854
0.0177155
0.017748
0.0177836
0.017823
0.0178662
0.0179128
0.0179621
0.0180144
0.0180759
0.0181471
0.0182092
0.018321
0.0184606
0.018545
0.0185786
0.018621
0.018704
0.0188253
0.01893
0.0190452
0.019146
0.0192771
0.0194338
0.0195687
0.0196827
0.0198074
0.0199402
0.0200402
0.0201629
0.0203001
0.0204753
0.0206805
0.020876
0.0210247
0.0211491
0.0213127
0.0214851
0.021663
0.0218494
0.0220458
0.022249
0.0174448
0.0174519
0.0174621
0.0174751
0.0174912
0.0175104
0.0175325
0.0175576
0.0175853
0.0176154
0.0176482
0.0176845
0.0177247
0.017769
0.0178167
0.0178673
0.0179313
0.0180068
0.0180847
0.0181831
0.0182417
0.0184025
0.0185054
0.0185113
0.0185275
0.0185954
0.0186891
0.0188066
0.0189217
0.0190429
0.0191566
0.0192817
0.0193983
0.0195289
0.0196722
0.0198069
0.0199424
0.0200771
0.0202127
0.0203567
0.0207168
0.0209374
0.0210311
0.0210907
0.0212199
0.0213875
0.0215584
0.0217415
0.0219372
0.0221451
0.0173402
0.0173471
0.0173573
0.0173703
0.0173865
0.0174057
0.017428
0.0174533
0.0174812
0.0175116
0.0175449
0.0175821
0.0176235
0.0176691
0.0177184
0.0177768
0.0178302
0.0179063
0.0180163
0.0180634
0.0185885
0.0185516
0.0185908
0.0185182
0.0184419
0.0185002
0.0185913
0.0186981
0.0188136
0.0189277
0.0190305
0.0191372
0.0192552
0.0194403
0.0195844
0.0197151
0.0198556
0.0200108
0.0201318
0.0201302
0.0249218
0.0258664
0.0217269
0.0209693
0.0211652
0.0212871
0.021446
0.0216218
0.0218149
0.0220243
0.0172312
0.0172379
0.017248
0.017261
0.0172772
0.0172966
0.0173191
0.0173446
0.0173728
0.0174037
0.0174378
0.0174761
0.0175187
0.0175657
0.0176206
0.0176807
0.0177505
0.0180576
0.0179844
0.0179532
0.0184744
0.0194733
0.0198762
0.0186117
0.0183314
0.0184297
0.0185137
0.0185887
0.0187119
0.0188248
0.0190032
0.0190744
0.0198709
0.0194284
0.0195039
0.019626
0.0197561
0.0199653
0.0202098
0.0222221
0.0256143
0.0257181
0.0256799
0.0211365
0.0210838
0.0211603
0.021312
0.0214835
0.0216761
0.0218849
0.0171176
0.0171242
0.0171341
0.0171472
0.0171635
0.017183
0.0172057
0.0172316
0.0172602
0.0172917
0.0173266
0.0173657
0.0174092
0.0174575
0.0175133
0.0175713
0.0177488
0.0177794
0.0179594
0.0178478
0.0238169
0.0256777
0.0258043
0.0239926
0.018453
0.0183883
0.0184382
0.0185143
0.0186141
0.0187248
0.0188336
0.0189633
0.0191036
0.0192421
0.0193932
0.019507
0.0200962
0.0198689
0.0200219
0.0202665
0.0249271
0.0257718
0.0235099
0.0205537
0.0208032
0.02097
0.0211314
0.0213164
0.0215148
0.0217268
0.0169995
0.0170059
0.0170157
0.0170287
0.0170451
0.0170648
0.0170878
0.017114
0.0171432
0.0171753
0.017211
0.0172506
0.0172945
0.0173426
0.0173932
0.0174389
0.0175975
0.0176626
0.0178058
0.0191452
0.0258872
0.0257038
0.0257849
0.0260685
0.0198047
0.0183364
0.0184183
0.0186821
0.0184876
0.0186148
0.018719
0.0188546
0.0190198
0.0196402
0.0195171
0.0194618
0.0195383
0.0197219
0.0198133
0.0198505
0.0206318
0.0211373
0.0207832
0.0202655
0.0205873
0.0207814
0.0209479
0.0211365
0.0213369
0.0215508
0.0168767
0.0168829
0.0168926
0.0169056
0.0169221
0.016942
0.0169653
0.0169919
0.0170217
0.0170545
0.017091
0.0171315
0.0171761
0.0172253
0.0172761
0.0173255
0.0174658
0.0175138
0.0176076
0.019127
0.0254477
0.0254907
0.0255981
0.0257256
0.0197005
0.0181841
0.0182276
0.0183003
0.0183914
0.0184995
0.0186091
0.0187139
0.0188523
0.0189564
0.0190595
0.0191991
0.0193736
0.0195032
0.0196319
0.019768
0.0199421
0.0200868
0.0200887
0.0201817
0.0203801
0.0205765
0.0207582
0.0209489
0.0211439
0.0213555
0.0167491
0.0167551
0.0167647
0.0167778
0.0167944
0.0168145
0.0168381
0.0168651
0.0168955
0.0169291
0.0169664
0.0170079
0.0170541
0.0171052
0.0171596
0.0172263
0.0173032
0.0173854
0.0174387
0.017453
0.0213249
0.02525
0.0254111
0.0221128
0.0178493
0.0179698
0.0180472
0.0181511
0.0182572
0.0183602
0.0184665
0.0185768
0.0186979
0.0188282
0.0189751
0.0191244
0.0192621
0.0193843
0.0194952
0.0196194
0.0197792
0.0199375
0.0200134
0.0201452
0.0204612
0.0204952
0.0205974
0.0207403
0.0209238
0.0211337
0.0166166
0.0166225
0.0166321
0.0166452
0.0166619
0.0166822
0.0167061
0.0167335
0.0167645
0.0167988
0.0168369
0.0168792
0.0169265
0.0169789
0.017037
0.0171032
0.0171775
0.0172536
0.0173243
0.0174951
0.0176703
0.0180039
0.0180691
0.0177945
0.0178301
0.0178592
0.0179019
0.017999
0.0181144
0.0182208
0.0183192
0.0184067
0.0185199
0.0186881
0.0188694
0.019038
0.0191308
0.0192395
0.0193539
0.0194803
0.0196086
0.0197235
0.0198521
0.0199852
0.0201147
0.0202282
0.0204579
0.0205518
0.0206692
0.0208886
0.0164792
0.0164851
0.0164946
0.0165078
0.0165246
0.0165451
0.0165692
0.016597
0.0166284
0.0166634
0.0167021
0.016745
0.0167928
0.0168458
0.0169049
0.0169698
0.017041
0.0171139
0.0171863
0.0172851
0.0174498
0.0175803
0.0176421
0.0176241
0.017622
0.0176791
0.0177792
0.0178674
0.0179898
0.018094
0.018184
0.0185304
0.0184837
0.0185054
0.018771
0.0188539
0.0190391
0.0190816
0.0191694
0.0193179
0.0194532
0.0195769
0.0196999
0.0198298
0.0199567
0.020062
0.0201956
0.0205076
0.0207465
0.0206253
0.0163369
0.0163427
0.0163523
0.0163655
0.0163825
0.0164031
0.0164274
0.0164555
0.0164873
0.0165228
0.0165619
0.0166052
0.0166532
0.0167064
0.0167654
0.0168301
0.0169006
0.0169741
0.0170462
0.0171341
0.0172535
0.0173673
0.0174243
0.0174587
0.017494
0.0175793
0.0176934
0.0180016
0.0180499
0.0180079
0.018056
0.0181424
0.0181647
0.0181667
0.0193491
0.019169
0.0196282
0.0189069
0.0189951
0.0191345
0.0192743
0.0194005
0.0195298
0.0196494
0.0197696
0.0198834
0.0199822
0.0200808
0.0201765
0.0205603
0.0161895
0.0161954
0.0162051
0.0162184
0.0162354
0.0162562
0.0162807
0.016309
0.0163411
0.0163769
0.0164164
0.0164598
0.0165078
0.0165608
0.0166194
0.0166841
0.0167543
0.0168321
0.0169086
0.0169924
0.0170916
0.0171808
0.0173482
0.0173067
0.0173865
0.0174443
0.0175374
0.0176068
0.0176747
0.0177884
0.0178971
0.018021
0.0180005
0.0221839
0.0301408
0.0307602
0.0303017
0.0224399
0.0188005
0.0189988
0.0191375
0.0192849
0.0193996
0.0194968
0.0195879
0.0196666
0.0197456
0.0198246
0.0198668
0.0200623
0.0160372
0.0160432
0.016053
0.0160664
0.0160836
0.0161044
0.0161291
0.0161575
0.0161897
0.0162257
0.0162655
0.016309
0.0163568
0.0164092
0.0164668
0.0165307
0.0165967
0.0166685
0.0167629
0.0168362
0.016923
0.0170178
0.0171331
0.0171611
0.0172181
0.0173038
0.017383
0.017466
0.0175553
0.0176624
0.0177904
0.0179628
0.0187962
0.0298735
0.0302006
0.0304049
0.0304242
0.0302239
0.0195475
0.0189048
0.0190223
0.0191268
0.0193389
0.0193406
0.019467
0.0194739
0.0195224
0.0195421
0.0195253
0.0195399
0.0158799
0.0158861
0.0158961
0.0159096
0.0159269
0.0159478
0.0159725
0.016001
0.0160333
0.0160694
0.0161093
0.0161529
0.0162004
0.0162522
0.0163087
0.0163719
0.0164372
0.0165065
0.0169798
0.016681
0.016749
0.0168435
0.0169567
0.0169875
0.0175146
0.01717
0.0172314
0.0173185
0.017411
0.0175132
0.0176292
0.017747
0.0178715
0.0304039
0.0301814
0.0302972
0.0304587
0.0311204
0.0187792
0.0186521
0.0188013
0.0189395
0.0190606
0.0191652
0.0192507
0.0193005
0.0193054
0.0192545
0.0191061
0.0189794
0.0157178
0.0157242
0.0157343
0.015748
0.0157653
0.0157864
0.0158111
0.0158396
0.0158719
0.015908
0.0159479
0.0159915
0.0160389
0.0160902
0.0161463
0.0162076
0.0162743
0.0163675
0.0164331
0.0164813
0.0165656
0.0166355
0.0172712
0.0168128
0.0169348
0.017001
0.0170799
0.0171623
0.0172595
0.0173703
0.017497
0.0176607
0.0183616
0.0286761
0.0296684
0.030121
0.0299666
0.0291537
0.019203
0.0185696
0.0187395
0.0188169
0.0189379
0.019047
0.0191274
0.019163
0.0191327
0.0190076
0.0187791
0.0181343
0.0155509
0.0155575
0.0155678
0.0155816
0.0155991
0.0156202
0.015645
0.0156734
0.0157056
0.0157416
0.0157813
0.0158248
0.015872
0.0159229
0.015978
0.0160376
0.0161043
0.0161744
0.0162465
0.0163226
0.016395
0.0164551
0.0165156
0.0166134
0.0167396
0.0172742
0.0169045
0.0169853
0.0170882
0.0172038
0.0173295
0.0174431
0.0174926
0.0203684
0.0283038
0.0305567
0.0290501
0.0210026
0.0181548
0.0184032
0.0185662
0.0186945
0.0188372
0.0189562
0.0190481
0.0190939
0.0190647
0.0189738
0.0186122
0.0183824
0.0153792
0.0153861
0.0153967
0.0154106
0.0154281
0.0154493
0.015474
0.0155024
0.0155345
0.0155702
0.0156097
0.0156529
0.0156997
0.0157502
0.0158043
0.0158621
0.0159239
0.0159891
0.0160557
0.0161094
0.0161818
0.0162616
0.0163445
0.0164404
0.0165328
0.0166046
0.0167112
0.0168105
0.0169149
0.0170302
0.0171529
0.0172694
0.017419
0.0176821
0.0179234
0.0177657
0.0181833
0.0183027
0.0182102
0.0183346
0.0185215
0.0186128
0.0187551
0.0188954
0.0190165
0.0190936
0.0190962
0.0190105
0.0186834
0.0237144
0.0152029
0.0152101
0.0152209
0.015235
0.0152526
0.0152738
0.0152985
0.0153268
0.0153586
0.0153941
0.0154332
0.0154759
0.0155222
0.0155721
0.0156254
0.0156821
0.0157419
0.0158044
0.0158671
0.0159321
0.0160041
0.0160817
0.0161629
0.0162491
0.0163375
0.0164257
0.016524
0.0166203
0.0167591
0.0168434
0.0169678
0.0173807
0.0172627
0.0173882
0.0174893
0.0175206
0.0177952
0.0179933
0.0180655
0.0181807
0.018343
0.0186089
0.0186874
0.0188683
0.0190379
0.019181
0.0192877
0.0193532
0.0191886
0.0211365
0.0150221
0.0150296
0.0150406
0.0150549
0.0150726
0.0150937
0.0151183
0.0151465
0.0151781
0.0152132
0.0152519
0.015294
0.0153398
0.0153889
0.0154415
0.0154973
0.0155561
0.0156175
0.0156813
0.0157481
0.0158194
0.0158953
0.0159751
0.0160591
0.0161447
0.0162366
0.0163332
0.0164357
0.0165394
0.0166549
0.0167763
0.0168915
0.0170228
0.0171998
0.0173215
0.0175446
0.0176115
0.0178334
0.0178998
0.0180721
0.0182507
0.018406
0.0186236
0.0188548
0.0190937
0.0193375
0.0195515
0.019897
0.0203169
0.0199063
0.014837
0.0148448
0.014856
0.0148704
0.0148881
0.0149092
0.0149337
0.0149616
0.014993
0.0150277
0.0150659
0.0151075
0.0151525
0.015201
0.0152528
0.0153078
0.0153659
0.0154269
0.0154906
0.0155572
0.0156278
0.0157025
0.0157811
0.0158629
0.0159474
0.0160365
0.0161322
0.0162334
0.0163416
0.0164555
0.0165716
0.0166956
0.0168309
0.0169798
0.0170978
0.0171994
0.0173963
0.0175597
0.0177291
0.0179077
0.0180943
0.01831
0.0185554
0.0188349
0.0191572
0.0195362
0.0204288
0.0219312
0.0219382
0.0245318
0.0146475
0.0146557
0.0146671
0.0146816
0.0146994
0.0147204
0.0147447
0.0147724
0.0148034
0.0148377
0.0148753
0.0149163
0.0149606
0.0150083
0.0150592
0.0151134
0.0151709
0.0152314
0.0152949
0.0153615
0.0154314
0.0155051
0.0155828
0.0156633
0.0157474
0.0158367
0.0159321
0.0160339
0.0161409
0.0162527
0.0163705
0.0164951
0.0166257
0.0167632
0.016899
0.0170369
0.017207
0.017379
0.0175571
0.0177456
0.0179512
0.0181799
0.0184405
0.0187505
0.0191237
0.0195729
0.0211097
0.0221452
0.0225983
0.0251061
0.014454
0.0144624
0.014474
0.0144886
0.0145064
0.0145273
0.0145515
0.0145788
0.0146094
0.0146432
0.0146803
0.0147206
0.0147642
0.014811
0.014861
0.0149143
0.0149708
0.0150306
0.0150936
0.01516
0.0152299
0.0153032
0.01538
0.0154605
0.0155449
0.0156337
0.0157281
0.0158285
0.0159346
0.0160468
0.0161649
0.0162896
0.0164218
0.0165609
0.0167042
0.0168535
0.01702
0.0171948
0.0173833
0.0176382
0.0177929
0.0180151
0.0182779
0.0185948
0.0190031
0.0194534
0.0199668
0.0206843
0.0216276
0.0224015
0.0142564
0.0142651
0.0142769
0.0142916
0.0143093
0.0143301
0.014354
0.014381
0.0144112
0.0144445
0.0144809
0.0145204
0.0145632
0.0146091
0.0146582
0.0147105
0.014766
0.0148247
0.0148868
0.0149523
0.0150214
0.0150943
0.0151711
0.0152517
0.0153362
0.015425
0.0155186
0.015618
0.0157238
0.015836
0.0159547
0.0160805
0.0162135
0.0163538
0.0165003
0.0166544
0.0168209
0.0169977
0.0171894
0.0173979
0.0175935
0.0178151
0.0180631
0.0183769
0.0187638
0.0192656
0.0197552
0.0202672
0.0207639
0.0208253
0.0140549
0.0140638
0.0140759
0.0140906
0.0141082
0.0141289
0.0141525
0.0141791
0.0142088
0.0142414
0.0142772
0.0143159
0.0143578
0.0144027
0.0144507
0.014502
0.0145564
0.0146141
0.0146752
0.0147396
0.0148077
0.0148793
0.0149548
0.0150346
0.0151191
0.0152089
0.0153042
0.0154043
0.0155096
0.015621
0.0157396
0.0158658
0.0159995
0.0161406
0.0162891
0.0164457
0.0166128
0.0167867
0.0169874
0.0171934
0.0174046
0.0175999
0.0177414
0.0182746
0.018586
0.0190868
0.0195511
0.0199911
0.0204867
0.0210857
0.0138497
0.0138588
0.013871
0.0138858
0.0139033
0.0139238
0.013947
0.0139732
0.0140023
0.0140343
0.0140692
0.0141071
0.0141479
0.0141918
0.0142387
0.0142888
0.0143421
0.0143988
0.0144588
0.0145224
0.0145895
0.0146603
0.0147347
0.0148133
0.0148964
0.0149847
0.0150788
0.0151798
0.0152879
0.0154018
0.0155207
0.0156459
0.0157793
0.0159208
0.0160703
0.0162284
0.0163956
0.016576
0.0168005
0.0170536
0.0172183
0.0174708
0.0180256
0.0194026
0.0184057
0.0190147
0.0193163
0.0195968
0.0199727
0.0203041
0.0136408
0.0136502
0.0136625
0.0136773
0.0136947
0.0137149
0.0137378
0.0137634
0.0137919
0.0138231
0.0138572
0.0138941
0.0139338
0.0139765
0.0140222
0.0140711
0.0141233
0.0141788
0.014238
0.0143007
0.0143671
0.014437
0.0145106
0.0145881
0.0146701
0.0147572
0.0148499
0.0149489
0.0150549
0.0151692
0.0152922
0.0154207
0.0155535
0.0156938
0.0158428
0.0160002
0.0161673
0.0163535
0.0165458
0.0167625
0.017023
0.0172811
0.0174942
0.0180362
0.0182724
0.0186633
0.0190834
0.0191313
0.0194762
0.0197807
0.0134284
0.013438
0.0134505
0.0134652
0.0134824
0.0135023
0.0135248
0.0135499
0.0135777
0.0136081
0.0136412
0.0136769
0.0137154
0.0137568
0.0138012
0.0138488
0.0138998
0.0139543
0.0140126
0.0140746
0.0141404
0.0142098
0.0142825
0.0143588
0.0144398
0.0145258
0.0146172
0.0147148
0.0148193
0.0149314
0.0150516
0.0151813
0.0153191
0.0154596
0.0156052
0.015761
0.0159274
0.0161096
0.0162992
0.0165292
0.0170235
0.0171003
0.0174763
0.0179749
0.0205301
0.024803
0.0238049
0.0195475
0.0190563
0.0193712
0.0132127
0.0132226
0.0132351
0.0132497
0.0132668
0.0132863
0.0133083
0.0133328
0.0133598
0.0133892
0.0134212
0.0134557
0.0134929
0.0135329
0.0135759
0.0136221
0.0136718
0.0137252
0.0137826
0.0138442
0.0139098
0.013979
0.0140509
0.0141257
0.0142057
0.0142904
0.0143802
0.0144761
0.014579
0.0146893
0.0148074
0.0149337
0.0150689
0.0152135
0.0153598
0.015511
0.0156737
0.0158486
0.0160358
0.0162098
0.0168157
0.0168717
0.0172444
0.0176978
0.0240126
0.0244386
0.0248543
0.0232954
0.0186272
0.0189575
0.0129939
0.0130039
0.0130165
0.013031
0.0130478
0.0130669
0.0130884
0.0131122
0.0131383
0.0131668
0.0131975
0.0132306
0.0132663
0.0133047
0.0133462
0.0133909
0.0134391
0.0134914
0.0135481
0.0136094
0.0136754
0.0137452
0.0138162
0.0138887
0.0139679
0.0140513
0.0141391
0.0142328
0.0143335
0.0144417
0.0145575
0.0146809
0.014812
0.014952
0.0151021
0.0152537
0.0154083
0.0155762
0.0157549
0.0159418
0.0165339
0.0165488
0.0168968
0.0170715
0.0222355
0.0241243
0.0244064
0.0221032
0.018065
0.0185664
0.0127721
0.0127822
0.0127948
0.0128092
0.0128257
0.0128444
0.0128653
0.0128883
0.0129135
0.0129408
0.0129701
0.0130017
0.0130358
0.0130725
0.0131122
0.0131551
0.0132016
0.0132525
0.0133085
0.01337
0.0134375
0.0135097
0.0135796
0.0136473
0.0137265
0.0138089
0.0138938
0.0139845
0.0140826
0.0141882
0.0143011
0.0144212
0.0145484
0.0146829
0.014826
0.0149796
0.0151339
0.0152937
0.0154672
0.0156577
0.0160165
0.0162001
0.0164842
0.0167441
0.0170501
0.0227064
0.0208933
0.0175434
0.0177256
0.0181135
0.0231118
0.0232894
0.0234694
0.0236514
0.0238354
0.024021
0.024208
0.0243961
0.0245851
0.0247746
0.0249644
0.025154
0.0253434
0.0255321
0.0257199
0.0259067
0.026092
0.0262757
0.0264573
0.0266365
0.0268131
0.0269865
0.0271565
0.0273226
0.0274846
0.0276421
0.0277946
0.027942
0.0280841
0.0282206
0.0283515
0.0284766
0.0285958
0.0287091
0.0288162
0.0289172
0.0290117
0.0290998
0.0291812
0.0292559
0.0293237
0.0293847
0.0294388
0.0294861
0.0295266
0.0295602
0.0295867
0.029606
0.0296176
0.0296223
0.0231117
0.0232897
0.0234699
0.0236521
0.0238363
0.0240221
0.0242092
0.0243975
0.0245866
0.0247763
0.0249662
0.025156
0.0253455
0.0255344
0.0257225
0.0259094
0.0260949
0.0262787
0.0264605
0.0266398
0.0268164
0.0269898
0.0271598
0.0273259
0.0274879
0.0276454
0.027798
0.0279456
0.0280878
0.0282245
0.0283556
0.0284809
0.0286003
0.0287137
0.028821
0.028922
0.0290167
0.0291049
0.0291864
0.0292612
0.0293291
0.0293902
0.0294445
0.0294918
0.0295323
0.0295657
0.0295921
0.0296113
0.0296229
0.0296276
0.0231096
0.023288
0.0234687
0.0236514
0.023836
0.0240222
0.0242098
0.0243985
0.024588
0.0247781
0.0249684
0.0251586
0.0253486
0.025538
0.0257265
0.0259139
0.0260999
0.0262841
0.0264663
0.0266461
0.026823
0.0269967
0.027167
0.0273335
0.0274957
0.0276535
0.0278065
0.0279543
0.0280969
0.028234
0.0283655
0.0284911
0.0286109
0.0287246
0.0288322
0.0289335
0.0290284
0.0291168
0.0291985
0.0292735
0.0293417
0.0294029
0.0294573
0.0295048
0.0295452
0.0295786
0.0296049
0.029624
0.0296357
0.0296405
0.0231051
0.0232842
0.0234655
0.0236489
0.0238342
0.0240211
0.0242094
0.0243988
0.0245891
0.0247798
0.0249709
0.0251618
0.0253525
0.0255426
0.0257319
0.0259201
0.0261069
0.026292
0.026475
0.0266556
0.0268332
0.0270076
0.0271785
0.0273456
0.0275085
0.027667
0.0278205
0.027969
0.0281122
0.0282499
0.0283819
0.0285081
0.0286284
0.0287426
0.0288506
0.0289523
0.0290476
0.0291363
0.0292184
0.0292937
0.0293621
0.0294236
0.0294782
0.0295258
0.0295663
0.0295997
0.029626
0.0296451
0.0296569
0.0296619
0.0230981
0.0232781
0.0234603
0.0236447
0.0238309
0.0240188
0.0242081
0.0243985
0.0245897
0.0247815
0.0249735
0.0251656
0.0253573
0.0255484
0.0257387
0.0259279
0.0261158
0.0263021
0.0264865
0.0266682
0.0268469
0.0270222
0.0271942
0.0273623
0.0275263
0.0276857
0.0278402
0.0279895
0.0281335
0.028272
0.0284047
0.0285317
0.0286526
0.0287675
0.0288761
0.0289784
0.0290742
0.0291634
0.0292459
0.0293216
0.0293904
0.0294522
0.029507
0.0295548
0.0295954
0.0296289
0.0296552
0.0296743
0.0296862
0.0296913
0.0230887
0.0232697
0.023453
0.0236385
0.023826
0.0240151
0.0242056
0.0243973
0.0245898
0.024783
0.0249763
0.0251697
0.0253627
0.0255551
0.0257467
0.0259373
0.0261266
0.0263144
0.0265006
0.026684
0.026864
0.0270405
0.0272139
0.0273835
0.0275488
0.0277096
0.0278653
0.0280157
0.0281608
0.0283002
0.028434
0.0285618
0.0286836
0.0287993
0.0289087
0.0290117
0.0291082
0.029198
0.029281
0.0293572
0.0294264
0.0294886
0.0295437
0.0295916
0.0296324
0.029666
0.0296924
0.0297115
0.0297233
0.0297286
0.0230766
0.0232588
0.0234435
0.0236304
0.0238193
0.0240099
0.024202
0.0243952
0.0245894
0.0247841
0.0249791
0.0251741
0.0253687
0.0255626
0.0257558
0.0259478
0.0261387
0.0263285
0.0265173
0.0267027
0.0268844
0.027062
0.0272372
0.0274087
0.027576
0.0277385
0.0278957
0.0280476
0.0281939
0.0283346
0.0284695
0.0285984
0.0287213
0.0288379
0.0289483
0.0290521
0.0291494
0.0292399
0.0293237
0.0294004
0.0294701
0.0295327
0.0295881
0.0296363
0.0296772
0.0297109
0.0297373
0.0297564
0.0297682
0.0297733
0.0230617
0.0232454
0.0234316
0.0236201
0.0238107
0.024003
0.0241969
0.0243921
0.0245881
0.0247848
0.0249817
0.0251785
0.0253749
0.0255706
0.0257654
0.025959
0.0261514
0.0263433
0.0265361
0.0267242
0.0269078
0.027086
0.0272636
0.0274378
0.0276076
0.0277723
0.0279314
0.0280849
0.0282328
0.0283749
0.0285111
0.0286414
0.0287655
0.0288833
0.0289947
0.0290996
0.0291978
0.0292892
0.0293737
0.0294511
0.0295214
0.0295844
0.0296402
0.0296886
0.0297297
0.0297635
0.0297899
0.0298089
0.0298205
0.0298254
0.0230437
0.0232291
0.0234171
0.0236074
0.0237999
0.0239943
0.0241903
0.0243875
0.0245857
0.0247846
0.0249836
0.0251825
0.0253809
0.0255785
0.025775
0.0259701
0.0261638
0.0263583
0.0265576
0.0267494
0.0269354
0.0271125
0.0272935
0.0274714
0.0276443
0.0278115
0.0279726
0.0281277
0.0282771
0.0284208
0.0285587
0.0286904
0.028816
0.0289352
0.0290479
0.029154
0.0292533
0.0293457
0.029431
0.0295092
0.0295801