/*--------------------------------*- C++ -*----------------------------------*\
| =========                 |                                                 |
| \\      /  F ield         | OpenFOAM: The Open Source CFD Toolbox           |
|  \\    /   O peration     | Version:  2.4.0                                 |
|   \\  /    A nd           | Web:      www.OpenFOAM.org                      |
|    \\/     M anipulation  |                                                 |
\*---------------------------------------------------------------------------*/
FoamFile
{
    version     2.0;
    format      ascii;
    class       surfaceScalarField;
    location    "0.066";
    object      phiAlpha;
}
// * * * * * * * * * * * * * * * * * * * * * * * * * * * * * * * * * * * * * //

dimensions      [0 3 -1 0 0 0 0];

internalField   nonuniform List<scalar> 
28560
(
-2.67995e-09
6.96322e-09
-4.28327e-09
5.56041e-09
-7.99099e-09
2.43058e-09
1.03496e-08
-1.28865e-08
2.5369e-09
1.49241e-08
-1.68078e-08
1.8837e-09
1.8257e-08
-1.91998e-08
9.42856e-10
1.94894e-08
-1.89137e-08
-5.75659e-10
1.73392e-08
-1.48547e-08
-2.48454e-09
1.12499e-08
-6.91254e-09
-4.33737e-09
1.50838e-09
4.2631e-09
-5.77148e-09
-1.08097e-08
1.73536e-08
-6.54391e-09
-2.44137e-08
3.12139e-08
-6.80021e-09
-3.84238e-08
4.52243e-08
-6.80043e-09
-5.21759e-08
5.83605e-08
-6.18457e-09
-6.42253e-08
6.89726e-08
-4.74736e-09
-7.29669e-08
7.56976e-08
-2.73071e-09
-7.7407e-08
7.79297e-08
-5.22736e-10
-7.73616e-08
7.5838e-08
1.52357e-09
-7.33367e-08
7.0249e-08
3.08767e-09
-6.64181e-08
6.23889e-08
4.02921e-09
-5.78933e-08
5.35261e-08
4.36718e-09
-4.89433e-08
4.46928e-08
4.25052e-09
-4.03952e-08
3.65274e-08
3.86786e-09
-3.27086e-08
2.93318e-08
3.37681e-09
-2.60415e-08
2.31632e-08
2.87836e-09
-2.03752e-08
1.79426e-08
2.43258e-09
-1.55902e-08
1.35346e-08
2.05554e-09
-1.15396e-08
9.78777e-09
1.75185e-09
-8.07854e-09
6.56718e-09
1.51135e-09
-5.08211e-09
3.75899e-09
1.32312e-09
-2.44818e-09
1.27393e-09
1.17425e-09
-1.17059e-08
1.65792e-08
-4.8733e-09
9.89758e-09
-1.43798e-08
-6.42751e-09
1.09098e-08
1.89175e-08
-2.37124e-08
-6.76985e-09
1.15648e-08
2.80557e-08
-3.23537e-08
-5.50489e-09
9.80289e-09
3.63398e-08
-3.95219e-08
-3.39778e-09
6.57988e-09
4.17133e-08
-4.22151e-08
5.95743e-10
-9.39233e-11
4.07651e-08
-3.7259e-08
6.05195e-09
-9.55806e-09
3.13334e-08
-2.36323e-08
1.15733e-08
-1.92745e-08
1.36065e-08
-2.55949e-09
1.59631e-08
-2.70101e-08
-1.01924e-08
2.30249e-08
1.83184e-08
-3.11509e-08
-3.69595e-08
5.03763e-08
1.9107e-08
-3.25238e-08
-6.45406e-08
7.78543e-08
1.90237e-08
-3.23374e-08
-9.15279e-08
1.03883e-07
1.74482e-08
-2.98029e-08
-1.15977e-07
1.26316e-07
1.39681e-08
-2.43073e-08
-1.35806e-07
1.43331e-07
9.09516e-09
-1.66198e-08
-1.49593e-07
1.53906e-07
3.65565e-09
-7.96923e-09
-1.56729e-07
1.57816e-07
-1.58308e-09
4.96709e-10
-1.57357e-07
1.55519e-07
-5.93207e-09
7.77002e-09
-1.52255e-07
1.48057e-07
-8.97545e-09
1.31736e-08
-1.42663e-07
1.3679e-07
-1.06405e-08
1.65131e-08
-1.29992e-07
1.23098e-07
-1.11632e-08
1.80572e-08
-1.15524e-07
1.08144e-07
-1.08985e-08
1.82793e-08
-1.00281e-07
9.27993e-08
-1.01869e-08
1.76683e-08
-8.49797e-08
7.76646e-08
-9.26959e-09
1.65847e-08
-7.01161e-08
6.31292e-08
-8.3203e-09
1.53072e-08
-5.59937e-08
4.94431e-08
-7.41038e-09
1.39611e-08
-4.27968e-08
3.67304e-08
-6.59289e-09
1.26593e-08
-3.06104e-08
2.50476e-08
-5.87326e-09
1.1436e-08
-1.94573e-08
1.43918e-08
-5.25065e-09
1.03161e-08
-9.31228e-09
4.72783e-09
-4.70842e-09
9.29287e-09
-2.14888e-08
2.64063e-08
-4.9175e-09
1.02627e-08
-1.49381e-08
-1.55407e-08
2.02162e-08
1.96912e-08
-2.4759e-08
-1.65574e-08
2.16252e-08
2.94024e-08
-3.40675e-08
-1.43635e-08
1.90286e-08
3.84829e-08
-4.21259e-08
-1.00826e-08
1.37255e-08
4.48154e-08
-4.57649e-08
-7.08402e-10
1.65783e-09
4.47297e-08
-4.15351e-08
1.28686e-08
-1.60633e-08
3.58482e-08
-2.82847e-08
2.69067e-08
-3.44702e-08
1.83309e-08
-7.30803e-09
3.80671e-08
-4.90899e-08
-5.47955e-09
1.82978e-08
4.40081e-08
-5.68264e-08
-3.2205e-08
4.55691e-08
4.5943e-08
-5.93071e-08
-5.9684e-08
7.29731e-08
4.56698e-08
-5.89588e-08
-8.66385e-08
9.90163e-08
4.22039e-08
-5.45817e-08
-1.11155e-07
1.21559e-07
3.47334e-08
-4.51377e-08
-1.31145e-07
1.38789e-07
2.42943e-08
-3.19377e-08
-1.45208e-07
1.49709e-07
1.2506e-08
-1.70067e-08
-1.52768e-07
1.54113e-07
8.87704e-10
-2.23287e-09
-1.53965e-07
1.52454e-07
-9.23907e-09
1.07501e-08
-1.49551e-07
1.45717e-07
-1.69796e-08
2.0813e-08
-1.40716e-07
1.3522e-07
-2.20168e-08
2.7513e-08
-1.28812e-07
1.22275e-07
-2.46372e-08
3.11737e-08
-1.15056e-07
1.07984e-07
-2.54334e-08
3.25047e-08
-1.00413e-07
9.31711e-08
-2.50249e-08
3.2267e-08
-8.55609e-08
7.84008e-08
-2.38779e-08
3.1038e-08
-7.09708e-08
6.40535e-08
-2.23645e-08
2.92817e-08
-5.69494e-08
5.0391e-08
-2.06547e-08
2.72131e-08
-4.37025e-08
3.75682e-08
-1.89181e-08
2.50524e-08
-3.13535e-08
2.56842e-08
-1.72167e-08
2.2886e-08
-1.997e-08
1.47801e-08
-1.56054e-08
2.07954e-08
-9.5669e-09
4.85646e-09
-1.40923e-08
1.88027e-08
-3.13229e-08
3.62357e-08
-4.91272e-09
1.02929e-08
-1.49831e-08
-2.49038e-08
2.9594e-08
1.97368e-08
-2.48631e-08
-2.6728e-08
3.18543e-08
2.95288e-08
-3.42656e-08
-2.374e-08
2.84768e-08
3.8757e-08
-4.2513e-08
-1.74368e-08
2.11929e-08
4.53351e-08
-4.6408e-08
-2.68142e-09
3.75437e-09
4.54951e-08
-4.23911e-08
1.92019e-08
-2.23058e-08
3.67773e-08
-2.92474e-08
4.20093e-08
-4.95391e-08
1.9296e-08
-8.24487e-09
6.01195e-08
-7.11707e-08
-4.58648e-09
1.74353e-08
6.96513e-08
-8.25001e-08
-3.13508e-08
4.47233e-08
7.26635e-08
-8.60361e-08
-5.88529e-08
7.21916e-08
7.2263e-08
-8.56017e-08
-8.59584e-08
9.84664e-08
6.70032e-08
-7.95112e-08
-1.10756e-07
1.21313e-07
5.55904e-08
-6.61472e-08
-1.31045e-07
1.38819e-07
3.96122e-08
-4.73858e-08
-1.45343e-07
1.49914e-07
2.15022e-08
-2.60731e-08
-1.53013e-07
1.54332e-07
3.52586e-09
-4.84537e-09
-1.54103e-07
1.5245e-07
-1.2363e-08
1.40162e-08
-1.49338e-07
1.45253e-07
-2.47884e-08
2.88737e-08
-1.39952e-07
1.34154e-07
-3.31607e-08
3.89586e-08
-1.2743e-07
1.20611e-07
-3.78354e-08
4.46545e-08
-1.13125e-07
1.05842e-07
-3.96526e-08
4.69355e-08
-9.80959e-08
9.07428e-08
-3.95278e-08
4.68809e-08
-8.30714e-08
7.59081e-08
-3.81589e-08
4.53222e-08
-6.85268e-08
6.17022e-08
-3.6113e-08
4.29376e-08
-5.4737e-08
4.83431e-08
-3.36526e-08
4.00465e-08
-4.18556e-08
3.59316e-08
-3.10497e-08
3.69737e-08
-2.99525e-08
2.45146e-08
-2.84121e-08
3.385e-08
-1.90468e-08
1.40894e-08
-2.58453e-08
3.08027e-08
-9.11641e-09
4.6266e-09
-2.33822e-08
2.7872e-08
-4.11439e-08
4.6046e-08
-4.90207e-09
1.02943e-08
-1.49812e-08
-3.42833e-08
3.89702e-08
1.9706e-08
-2.48769e-08
-3.70021e-08
4.2173e-08
2.95275e-08
-3.43074e-08
-3.32341e-08
3.8014e-08
3.88344e-08
-4.26746e-08
-2.49894e-08
2.88296e-08
4.55994e-08
-4.67683e-08
-4.87318e-09
6.04216e-09
4.59539e-08
-4.29209e-08
2.53763e-08
-2.84094e-08
3.73667e-08
-2.98579e-08
5.70593e-08
-6.45681e-08
1.98945e-08
-8.7915e-09
8.22458e-08
-9.33488e-08
-4.10769e-09
1.70105e-08
9.5372e-08
-1.08275e-07
-3.09629e-08
4.43525e-08
9.94106e-08
-1.128e-07
-5.85263e-08
7.19756e-08
9.89922e-08
-1.12442e-07
-8.59231e-08
9.86596e-08
9.21242e-08
-1.04861e-07
-1.11228e-07
1.22072e-07
7.68353e-08
-8.76801e-08
-1.32106e-07
1.4019e-07
5.52993e-08
-6.33836e-08
-1.47005e-07
1.5186e-07
3.07694e-08
-3.56247e-08
-1.55221e-07
1.56739e-07
6.24676e-09
-7.76525e-09
-1.5666e-07
1.55074e-07
-1.5652e-08
1.72375e-08
-1.51949e-07
1.47772e-07
-3.30212e-08
3.71987e-08
-1.42306e-07
1.363e-07
-4.48702e-08
5.0876e-08
-1.29324e-07
1.22245e-07
-5.16118e-08
5.86905e-08
-1.14479e-07
1.06935e-07
-5.43516e-08
6.1896e-08
-9.89321e-08
9.13533e-08
-5.43469e-08
6.19256e-08
-8.34721e-08
7.61384e-08
-5.2564e-08
5.98976e-08
-6.86096e-08
6.1674e-08
-4.98051e-08
5.67407e-08
-5.46232e-08
4.81748e-08
-4.645e-08
5.28985e-08
-4.16541e-08
3.5719e-08
-4.28833e-08
4.88185e-08
-2.97454e-08
2.43255e-08
-3.92577e-08
4.46775e-08
-1.88867e-08
1.39634e-08
-3.57221e-08
4.06454e-08
-9.02993e-09
4.57925e-09
-3.23227e-08
3.67734e-08
-5.09407e-08
5.5828e-08
-4.88736e-09
1.02927e-08
-1.49726e-08
-4.36537e-08
4.83337e-08
1.96587e-08
-2.48813e-08
-4.73687e-08
5.25912e-08
2.95095e-08
-3.43382e-08
-4.28179e-08
4.76466e-08
3.89039e-08
-4.28479e-08
-3.27188e-08
3.66627e-08
4.59e-08
-4.71886e-08
-7.26771e-09
8.55638e-09
4.64996e-08
-4.35577e-08
3.13993e-08
-3.43412e-08
3.80837e-08
-3.06058e-08
7.20627e-08
-7.95406e-08
2.06314e-08
-9.46274e-09
1.04483e-07
-1.15651e-07
-3.52126e-09
1.65008e-08
1.21216e-07
-1.34196e-07
-3.04925e-08
4.39002e-08
1.262e-07
-1.39608e-07
-5.81208e-08
7.16948e-08
1.25954e-07
-1.39528e-07
-8.58761e-08
9.89079e-08
1.17736e-07
-1.30768e-07
-1.11832e-07
1.23053e-07
9.87022e-08
-1.09924e-07
-1.33476e-07
1.41974e-07
7.1661e-08
-8.0159e-08
-1.49165e-07
1.54421e-07
4.06665e-08
-4.59224e-08
-1.58153e-07
1.59971e-07
9.42286e-09
-1.12405e-08
-1.60151e-07
1.58724e-07
-1.87518e-08
2.01788e-08
-1.55655e-07
1.51441e-07
-4.13971e-08
4.56105e-08
-1.45853e-07
1.39671e-07
-5.6964e-08
6.31454e-08
-1.32461e-07
1.2514e-07
-6.58869e-08
7.32084e-08
-1.17111e-07
1.09317e-07
-6.95621e-08
7.73559e-08
-1.01055e-07
9.32422e-08
-6.96173e-08
7.74299e-08
-8.5131e-08
7.75944e-08
-6.73291e-08
7.48656e-08
-6.98704e-08
6.2766e-08
-6.37555e-08
7.08599e-08
-5.55538e-08
4.89676e-08
-5.941e-08
6.59961e-08
-4.23163e-08
3.62687e-08
-5.48018e-08
6.08495e-08
-3.01893e-08
2.46793e-08
-5.0135e-08
5.56449e-08
-1.91537e-08
1.41541e-08
-4.55982e-08
5.05977e-08
-9.14702e-09
4.63237e-09
-4.12497e-08
4.57643e-08
-6.07072e-08
6.55765e-08
-4.8693e-09
1.02918e-08
-1.4963e-08
-5.301e-08
5.76812e-08
1.96032e-08
-2.48867e-08
-5.78435e-08
6.3127e-08
2.94901e-08
-3.43759e-08
-5.25028e-08
5.73886e-08
3.89865e-08
-4.30607e-08
-4.06685e-08
4.47427e-08
4.62707e-08
-4.77079e-08
-9.91574e-09
1.13529e-08
4.71749e-08
-4.43458e-08
3.72298e-08
-4.00589e-08
3.89724e-08
-3.15331e-08
8.70005e-08
-9.44398e-08
2.15445e-08
-1.02901e-08
1.26861e-07
-1.38115e-07
-2.7995e-09
1.58789e-08
1.47224e-07
-1.60303e-07
-2.99239e-08
4.33476e-08
1.53018e-07
-1.66442e-07
-5.76059e-08
7.13309e-08
1.53172e-07
-1.66897e-07
-8.57947e-08
9.9195e-08
1.43975e-07
-1.57376e-07
-1.12556e-07
1.24245e-07
1.21368e-07
-1.33056e-07
-1.35136e-07
1.44166e-07
8.89092e-08
-9.79395e-08
-1.51795e-07
1.57576e-07
5.14257e-08
-5.72074e-08
-1.6178e-07
1.63985e-07
1.32404e-08
-1.54454e-08
-1.6452e-07
1.63325e-07
-2.15032e-08
2.26983e-08
-1.60352e-07
1.561e-07
-4.98458e-08
5.40983e-08
-1.50363e-07
1.43971e-07
-6.943e-08
7.58227e-08
-1.36484e-07
1.28868e-07
-8.06676e-08
8.8283e-08
-1.20517e-07
1.12421e-07
-8.5295e-08
9.33916e-08
-1.03851e-07
9.57645e-08
-8.53731e-08
9.34597e-08
-8.73807e-08
7.96033e-08
-8.25166e-08
9.02941e-08
-7.16433e-08
6.43325e-08
-7.80636e-08
8.53744e-08
-5.69174e-08
5.01537e-08
-7.26673e-08
7.9431e-08
-4.33255e-08
3.7116e-08
-6.69655e-08
7.3175e-08
-3.08771e-08
2.52299e-08
-6.12195e-08
6.68668e-08
-1.95684e-08
1.44461e-08
-5.56503e-08
6.07727e-08
-9.32203e-09
4.7111e-09
-5.03343e-08
5.49452e-08
-7.04356e-08
7.52836e-08
-4.84802e-09
1.02903e-08
-1.49489e-08
-6.23462e-08
6.70048e-08
1.95362e-08
-2.48881e-08
-6.84433e-08
7.37952e-08
2.94642e-08
-3.44135e-08
-6.23053e-08
6.72546e-08
3.9073e-08
-4.33055e-08
-4.88921e-08
5.31246e-08
4.67049e-08
-4.83194e-08
-1.28751e-08
1.44896e-08
4.79742e-08
-4.52803e-08
4.28226e-08
-4.55165e-08
4.00309e-08
-3.264e-08
1.01856e-07
-1.09246e-07
2.26355e-08
-1.12753e-08
1.49419e-07
-1.60779e-07
-1.94171e-09
1.51534e-08
1.73446e-07
-1.86658e-07
-2.92597e-08
4.26735e-08
1.79858e-07
-1.93271e-07
-5.69622e-08
7.08487e-08
1.80706e-07
-1.94592e-07
-8.56464e-08
9.94872e-08
1.70986e-07
-1.84827e-07
-1.13367e-07
1.25617e-07
1.45014e-07
-1.57264e-07
-1.37048e-07
1.46735e-07
1.07281e-07
-1.16968e-07
-1.54851e-07
1.61307e-07
6.3303e-08
-6.97594e-08
-1.66085e-07
1.68774e-07
1.78794e-08
-2.05676e-08
-1.69794e-07
1.68916e-07
-2.37461e-08
2.46239e-08
-1.66072e-07
1.61778e-07
-5.83702e-08
6.26643e-08
-1.55863e-07
1.49196e-07
-8.23459e-08
8.90125e-08
-1.41355e-07
1.33368e-07
-9.60718e-08
1.04059e-07
-1.24617e-07
1.16146e-07
-1.01664e-07
1.10136e-07
-1.07198e-07
9.87749e-08
-1.01708e-07
1.10132e-07
-9.00601e-08
8.19874e-08
-9.8208e-08
1.06281e-07
-7.37469e-08
6.61914e-08
-9.28059e-08
1.00361e-07
-5.85362e-08
5.15582e-08
-8.62958e-08
9.32738e-08
-4.45194e-08
3.81048e-08
-7.94433e-08
8.58579e-08
-3.16252e-08
2.57558e-08
-7.25703e-08
7.84397e-08
-1.99106e-08
1.46607e-08
-6.59552e-08
7.12052e-08
-9.43268e-09
4.75031e-09
-5.96584e-08
6.43408e-08
-8.01195e-08
8.49425e-08
-4.82296e-09
1.02882e-08
-1.49296e-08
-7.16556e-08
7.6297e-08
1.9458e-08
-2.48849e-08
-7.9184e-08
8.46109e-08
2.94327e-08
-3.44498e-08
-7.22377e-08
7.72548e-08
3.91596e-08
-4.35811e-08
-5.74478e-08
6.18692e-08
4.72018e-08
-4.90231e-08
-1.6204e-08
1.80253e-08
4.88988e-08
-4.63627e-08
4.81345e-08
-5.06706e-08
4.12625e-08
-3.39312e-08
1.16609e-07
-1.23941e-07
2.391e-08
-1.24207e-08
1.72201e-07
-1.8369e-07
-9.53066e-10
1.43307e-08
1.9995e-07
-2.13327e-07
-2.84911e-08
4.18764e-08
2.06673e-07
-2.20058e-07
-5.61557e-08
7.02245e-08
2.0857e-07
-2.22639e-07
-8.54055e-08
9.97673e-08
1.98918e-07
-2.1328e-07
-1.14248e-07
1.27157e-07
1.69832e-07
-1.8274e-07
-1.39193e-07
1.49689e-07
1.2704e-07
-1.37536e-07
-1.58285e-07
1.65631e-07
7.66292e-08
-8.39746e-08
-1.71075e-07
1.74355e-07
2.35368e-08
-2.68167e-08
-1.76036e-07
1.75592e-07
-2.53003e-08
2.57441e-08
-1.72926e-07
1.68577e-07
-6.69836e-08
7.13325e-08
-1.62428e-07
1.55417e-07
-9.5839e-08
1.0285e-07
-1.47126e-07
1.38668e-07
-1.12264e-07
1.20722e-07
-1.2942e-07
1.20485e-07
-1.18825e-07
1.27761e-07
-1.1107e-07
1.02248e-07
-1.18759e-07
1.27581e-07
-9.31355e-08
8.47021e-08
-1.14505e-07
1.22939e-07
-7.61245e-08
6.82908e-08
-1.0807e-07
1.15904e-07
-6.03691e-08
5.31463e-08
-1.00362e-07
1.07585e-07
-4.58907e-08
3.92831e-08
-9.23066e-08
9.89141e-08
-3.25295e-08
2.638e-08
-8.41935e-08
9.0343e-08
-2.0335e-08
1.49864e-08
-7.65789e-08
8.19276e-08
-9.66878e-09
4.87113e-09
-6.92609e-08
7.40585e-08
-8.97513e-08
9.45449e-08
-4.79358e-09
1.02883e-08
-1.49071e-08
-8.09282e-08
8.5547e-08
1.93715e-08
-2.48807e-08
-9.00782e-08
9.55875e-08
2.94006e-08
-3.44887e-08
-8.23075e-08
8.73956e-08
3.92505e-08
-4.38936e-08
-6.63974e-08
7.10404e-08
4.77696e-08
-4.98279e-08
-1.99612e-08
2.20194e-08
4.99584e-08
-4.76026e-08
5.31194e-08
-5.54752e-08
4.26796e-08
-3.54194e-08
1.31238e-07
-1.38498e-07
2.53793e-08
-1.37314e-08
1.95255e-07
-2.06903e-07
1.55705e-10
1.34114e-08
2.26812e-07
-2.40379e-07
-2.76461e-08
4.09566e-08
2.33408e-07
-2.46719e-07
-5.51807e-08
6.9433e-08
2.36798e-07
-2.5105e-07
-8.50637e-08
1.00034e-07
2.27936e-07
-2.42907e-07
-1.15204e-07
1.28872e-07
1.96016e-07
-2.09684e-07
-1.41579e-07
1.53054e-07
1.48499e-07
-1.59973e-07
-1.62066e-07
1.706e-07
9.18705e-08
-1.00404e-07
-1.7677e-07
1.8077e-07
3.04372e-08
-3.44364e-08
-1.83369e-07
1.83528e-07
-2.59122e-08
2.57532e-08
-1.81078e-07
1.76646e-07
-7.57236e-08
8.01552e-08
-1.702e-07
1.62753e-07
-1.10062e-07
1.17508e-07
-1.53882e-07
1.44825e-07
-1.2945e-07
1.38508e-07
-1.34972e-07
1.25458e-07
-1.36957e-07
1.46471e-07
-1.1548e-07
1.06171e-07
-1.36671e-07
1.45979e-07
-9.66061e-08
8.7771e-08
-1.31523e-07
1.40359e-07
-7.87494e-08
7.05287e-08
-1.23929e-07
1.3215e-07
-6.23029e-08
5.48774e-08
-1.1496e-07
1.22386e-07
-4.74045e-08
4.062e-08
-1.05636e-07
1.1242e-07
-3.38763e-08
2.78303e-08
-9.63737e-08
1.0242e-07
-2.17368e-08
1.61306e-08
-8.74768e-08
9.3083e-08
-1.04381e-08
5.25623e-09
-7.89922e-08
8.4174e-08
-9.93228e-08
1.04083e-07
-4.76047e-09
1.02887e-08
-1.48774e-08
-9.01514e-08
9.47401e-08
1.92728e-08
-2.48708e-08
-1.0114e-07
1.06738e-07
2.93635e-08
-3.4522e-08
-9.2519e-08
9.76775e-08
3.9336e-08
-4.42339e-08
-7.58064e-08
8.07043e-08
4.83991e-08
-5.07248e-08
-2.42075e-08
2.65332e-08
5.1146e-08
-4.89934e-08
5.77321e-08
-5.98847e-08
4.42791e-08
-3.7106e-08
1.45717e-07
-1.5289e-07
2.70482e-08
-1.52088e-08
2.18642e-07
-2.30481e-07
1.37884e-09
1.24155e-08
2.54054e-07
-2.67848e-07
-2.6726e-08
3.98979e-08
2.59966e-07
-2.73137e-07
-5.39924e-08
6.84307e-08
2.65395e-07
-2.79833e-07
-8.4559e-08
1.00245e-07
2.58223e-07
-2.73909e-07
-1.16196e-07
1.3072e-07
2.23767e-07
-2.38291e-07
-1.44169e-07
1.56786e-07
1.72e-07
-1.84616e-07
-1.66113e-07
1.76203e-07
1.09665e-07
-1.19754e-07
-1.83107e-07
1.87977e-07
3.88503e-08
-4.37207e-08
-1.91868e-07
1.92875e-07
-2.52071e-08
2.42001e-08
-1.90689e-07
1.86116e-07
-8.46564e-08
8.92287e-08
-1.79283e-07
1.71286e-07
-1.25225e-07
1.33221e-07
-1.61664e-07
1.51856e-07
-1.47889e-07
1.57696e-07
-1.41245e-07
1.31041e-07
-1.56278e-07
1.66482e-07
-1.20429e-07
1.10435e-07
-1.55563e-07
1.65557e-07
-1.00371e-07
9.12309e-08
-1.4945e-07
1.5859e-07
-8.17012e-08
7.28826e-08
-1.40372e-07
1.49191e-07
-6.41875e-08
5.64521e-08
-1.30145e-07
1.37881e-07
-4.87155e-08
4.17042e-08
-1.19402e-07
1.26413e-07
-3.45757e-08
2.80249e-08
-1.08778e-07
1.15329e-07
-2.15131e-08
1.57461e-08
-9.86947e-08
1.04462e-07
-1.00753e-08
5.0348e-09
-8.92353e-08
9.42758e-08
-1.08825e-07
1.13548e-07
-4.72276e-09
1.02907e-08
-1.48399e-08
-9.93107e-08
1.0386e-07
1.91615e-08
-2.48547e-08
-1.12383e-07
1.18076e-07
2.93213e-08
-3.45462e-08
-1.0287e-07
1.08095e-07
3.94116e-08
-4.46003e-08
-8.57432e-08
9.09318e-08
4.90894e-08
-5.17135e-08
-2.90044e-08
3.16285e-08
5.24623e-08
-5.05364e-08
6.19269e-08
-6.38528e-08
4.60671e-08
-3.89998e-08
1.60013e-07
-1.6708e-07
2.89267e-08
-1.68588e-08
2.4243e-07
-2.54498e-07
2.72833e-09
1.13482e-08
2.81776e-07
-2.95852e-07
-2.575e-08
3.87036e-08
2.86217e-07
-2.9917e-07
-5.25479e-08
6.71682e-08
2.94361e-07
-3.08981e-07
-8.38617e-08
1.00383e-07
2.89998e-07
-3.0652e-07
-1.17205e-07
1.3267e-07
2.53276e-07
-2.68741e-07
-1.46982e-07
1.6083e-07
1.97845e-07
-2.11694e-07
-1.70428e-07
1.82421e-07
1.3076e-07
-1.42753e-07
-1.9002e-07
1.95917e-07
4.90922e-08
-5.49892e-08
-2.01701e-07
2.0392e-07
-2.26435e-08
2.04245e-08
-2.01976e-07
1.9718e-07
-9.39188e-08
9.87148e-08
-1.89854e-07
1.81139e-07
-1.41596e-07
1.50311e-07
-1.70558e-07
1.59799e-07
-1.67913e-07
1.78672e-07
-1.48228e-07
1.37239e-07
-1.77064e-07
1.88053e-07
-1.25798e-07
1.15176e-07
-1.75648e-07
1.86269e-07
-1.04386e-07
9.45592e-08
-1.68318e-07
1.78145e-07
-8.48929e-08
7.61547e-08
-1.578e-07
1.66538e-07
-6.71511e-08
5.88614e-08
-1.45806e-07
1.54095e-07
-5.06101e-08
4.32859e-08
-1.33729e-07
1.41054e-07
-3.61038e-08
2.96869e-08
-1.2177e-07
1.28187e-07
-2.31634e-08
1.71545e-08
-1.10344e-07
1.16352e-07
-1.10765e-08
5.56324e-09
-9.95733e-08
1.05087e-07
-1.1825e-07
1.22929e-07
-4.67947e-09
1.02966e-08
-1.47963e-08
-1.08386e-07
1.12885e-07
1.90397e-08
-2.48363e-08
-1.2382e-07
1.29617e-07
2.92803e-08
-3.45649e-08
-1.13351e-07
1.18636e-07
3.94804e-08
-4.49994e-08
-9.62806e-08
1.018e-07
4.98486e-08
-5.28029e-08
-3.44138e-08
3.73682e-08
5.39187e-08
-5.22414e-08
6.56572e-08
-6.73345e-08
4.80577e-08
-4.11185e-08
1.74086e-07
-1.81025e-07
3.10329e-08
-1.86914e-08
2.66698e-07
-2.79039e-07
4.19664e-09
1.02287e-08
3.10093e-07
-3.24518e-07
-2.47286e-08
3.73777e-08
3.11985e-07
-3.24634e-07
-5.0806e-08
6.56008e-08
3.23688e-07
-3.38483e-07
-8.29343e-08
1.00448e-07
3.23512e-07
-3.41026e-07
-1.18235e-07
1.34717e-07
2.84704e-07
-3.01185e-07
-1.50085e-07
1.65106e-07
2.26149e-07
-2.41171e-07
-1.75157e-07
1.89182e-07
1.55767e-07
-1.69793e-07
-1.9758e-07
2.04469e-07
6.14076e-08
-6.82975e-08
-2.13175e-07
2.17143e-07
-1.74151e-08
1.34472e-08
-2.15244e-07
2.101e-07
-1.03734e-07
1.08878e-07
-2.02204e-07
1.92484e-07
-1.59537e-07
1.69257e-07
-1.80687e-07
1.68609e-07
-1.89911e-07
2.01989e-07
-1.56054e-07
1.442e-07
-1.99593e-07
2.11447e-07
-1.3139e-07
1.20216e-07
-1.97406e-07
2.08581e-07
-1.08863e-07
9.81852e-08
-1.8793e-07
1.98608e-07
-8.77055e-08
7.84851e-08
-1.76307e-07
1.85527e-07
-6.9239e-08
6.07343e-08
-1.62309e-07
1.70814e-07
-5.21491e-08
4.44206e-08
-1.48365e-07
1.56093e-07
-3.65653e-08
2.94484e-08
-1.34656e-07
1.41773e-07
-2.25161e-08
1.64448e-08
-1.22293e-07
1.28364e-07
-1.04903e-08
5.21349e-09
-1.10688e-07
1.15965e-07
-1.27586e-07
1.32217e-07
-4.63165e-09
1.03058e-08
-1.47432e-08
-1.17356e-07
1.21793e-07
1.89031e-08
-2.48112e-08
-1.35468e-07
1.41376e-07
2.92362e-08
-3.45674e-08
-1.23945e-07
1.29277e-07
3.95294e-08
-4.54211e-08
-1.07499e-07
1.13391e-07
5.06668e-08
-5.39832e-08
-4.04994e-08
4.38158e-08
5.55063e-08
-5.41003e-08
6.88788e-08
-7.02848e-08
5.02499e-08
-4.34678e-08
1.8789e-07
-1.94672e-07
3.33768e-08
-2.07128e-08
2.91534e-07
-3.04198e-07
5.7814e-09
9.08522e-09
3.3915e-07
-3.54017e-07
-2.37008e-08
3.59008e-08
3.37071e-07
-3.49271e-07
-4.8694e-08
6.36459e-08
3.53354e-07
-3.68306e-07
-8.17044e-08
1.00406e-07
3.59101e-07
-3.77803e-07
-1.19238e-07
1.36819e-07
3.182e-07
-3.35781e-07
-1.53482e-07
1.69379e-07
2.56685e-07
-2.72582e-07
-1.8056e-07
1.96217e-07
1.84741e-07
-2.00398e-07
-2.05702e-07
2.13316e-07
7.55705e-08
-8.31848e-08
-2.26827e-07
2.33147e-07
-8.41326e-09
2.09356e-09
-2.30798e-07
2.25087e-07
-1.14351e-07
1.20062e-07
-2.16511e-07
2.05605e-07
-1.79681e-07
1.90586e-07
-1.92476e-07
1.78118e-07
-2.14327e-07
2.28685e-07
-1.63688e-07
1.51536e-07
-2.24601e-07
2.36754e-07
-1.38641e-07
1.26139e-07
-2.20077e-07
2.32579e-07
-1.13285e-07
1.02238e-07
-2.09459e-07
2.20506e-07
-9.15319e-08
8.13935e-08
-1.94867e-07
2.05006e-07
-7.13463e-08
6.2414e-08
-1.7959e-07
1.88522e-07
-5.34239e-08
4.5297e-08
-1.63913e-07
1.7204e-07
-3.73523e-08
3.02865e-08
-1.49257e-07
1.56323e-07
-2.33042e-08
1.71068e-08
-1.34636e-07
1.40833e-07
-1.09637e-08
5.45599e-09
-1.21096e-07
1.26604e-07
-1.36823e-07
1.414e-07
-4.57732e-09
1.03197e-08
-1.46799e-08
-1.26194e-07
1.30554e-07
1.87501e-08
-2.47788e-08
-1.47343e-07
1.53372e-07
2.91907e-08
-3.45497e-08
-1.34625e-07
1.39984e-07
3.95538e-08
-4.58639e-08
-1.19486e-07
1.25796e-07
5.15431e-08
-5.52532e-08
-4.73252e-08
5.10353e-08
5.72262e-08
-5.61121e-08
7.15474e-08
-7.26615e-08
5.26504e-08
-4.60626e-08
2.01362e-07
-2.0795e-07
3.59762e-08
-2.29345e-08
3.17044e-07
-3.30086e-07
7.4795e-09
7.94751e-09
3.69146e-07
-3.84573e-07
-2.27037e-08
3.42927e-08
3.61188e-07
-3.72777e-07
-4.61358e-08
6.12157e-08
3.83324e-07
-3.98404e-07
-8.01018e-08
1.00258e-07
3.97192e-07
-4.17348e-07
-1.20157e-07
1.39067e-07
3.53975e-07
-3.72885e-07
-1.56988e-07
1.73304e-07
2.88716e-07
-3.05032e-07
-1.8762e-07
2.02573e-07
2.1627e-07
-2.31223e-07
-2.12942e-07
2.22739e-07
9.1345e-08
-1.01141e-07
-2.44834e-07
2.5298e-07
5.40986e-09
-1.35566e-08
-2.49008e-07
2.43185e-07
-1.25917e-07
1.3174e-07
-2.32922e-07
2.19831e-07
-2.02638e-07
2.15729e-07
-2.06061e-07
1.90735e-07
-2.4243e-07
2.57757e-07
-1.72455e-07
1.55663e-07
-2.51057e-07
2.67849e-07
-1.42146e-07
1.31367e-07
-2.4647e-07
2.57249e-07
-1.19565e-07
1.07411e-07
-2.31053e-07
2.43206e-07
-9.45511e-08
8.35733e-08
-2.1541e-07
2.26388e-07
-7.3184e-08
6.39957e-08
-1.97324e-07
2.06513e-07
-5.51811e-08
4.73659e-08
-1.79859e-07
1.87674e-07
-3.99207e-08
3.33947e-08
-1.6282e-07
1.69346e-07
-2.66536e-08
2.00795e-08
-1.47367e-07
1.53941e-07
-1.30796e-08
6.56155e-09
-1.32738e-07
1.39256e-07
-1.45948e-07
1.50464e-07
-4.51645e-09
1.03415e-08
-1.46087e-08
-1.3487e-07
1.39137e-07
1.85825e-08
-2.47435e-08
-1.59466e-07
1.65627e-07
2.91523e-08
-3.45126e-08
-1.45348e-07
1.50708e-07
3.95538e-08
-4.63342e-08
-1.32335e-07
1.39115e-07
5.24851e-08
-5.66227e-08
-5.49549e-08
5.90925e-08
5.90887e-08
-5.82852e-08
7.36225e-08
-7.4426e-08
5.52764e-08
-4.89287e-08
2.14424e-07
-2.20772e-07
3.88596e-08
-2.53772e-08
3.4334e-07
-3.56823e-07
9.2909e-09
6.85798e-09
4.00339e-07
-4.16488e-07
-2.1804e-08
3.25631e-08
3.83981e-07
-3.9474e-07
-4.30506e-08
5.82088e-08
4.13531e-07
-4.28689e-07
-7.80624e-08
1.00023e-07
4.38358e-07
-4.60319e-07
-1.20961e-07
1.41713e-07
3.92663e-07
-4.13415e-07
-1.59848e-07
1.77717e-07
3.21785e-07
-3.39654e-07
-1.97933e-07
2.02029e-07
2.42815e-07
-2.4691e-07
-2.16031e-07
2.40047e-07
1.15377e-07
-1.39394e-07
-2.73806e-07
2.78642e-07
2.13246e-08
-2.61608e-08
-2.70203e-07
2.63666e-07
-1.3879e-07
1.45328e-07
-2.53106e-07
2.38438e-07
-2.28062e-07
2.42731e-07
-2.19601e-07
2.02988e-07
-2.76859e-07
2.93472e-07
-1.86283e-07
1.69992e-07
-2.80081e-07
2.96372e-07
-1.51028e-07
1.33485e-07
-2.70291e-07
2.87834e-07
-1.17312e-07
1.05764e-07
-2.5741e-07
2.68958e-07
-9.56762e-08
8.66143e-08
-2.37087e-07
2.46149e-07
-7.59098e-08
6.56905e-08
-2.16182e-07
2.26401e-07
-5.53346e-08
4.62166e-08
-1.95975e-07
2.05093e-07
-3.71163e-08
2.9158e-08
-1.76354e-07
1.84312e-07
-2.17876e-08
1.57471e-08
-1.60256e-07
1.66296e-07
-1.0015e-08
4.94807e-09
-1.45301e-07
1.50368e-07
-1.54948e-07
1.59397e-07
-4.44882e-09
1.03713e-08
-1.45256e-08
-1.4335e-07
1.47504e-07
1.83951e-08
-2.47008e-08
-1.71858e-07
1.78164e-07
2.91215e-08
-3.4444e-08
-1.56055e-07
1.61377e-07
3.9516e-08
-4.6822e-08
-1.4615e-07
1.53456e-07
5.34819e-08
-5.80851e-08
-6.34574e-08
6.80606e-08
6.10835e-08
-6.06064e-08
7.50682e-08
-7.55453e-08
5.8127e-08
-5.20791e-08
2.26978e-07
-2.33026e-07
4.20457e-08
-2.80574e-08
3.70549e-07
-3.84537e-07
1.12127e-08
5.86885e-09
4.33072e-07
-4.50153e-07
-2.10895e-08
3.07389e-08
4.04984e-07
-4.14634e-07
-3.93278e-08
5.44657e-08
4.43852e-07
-4.5899e-07
-7.54887e-08
9.96389e-08
4.83327e-07
-5.07477e-07
-1.21928e-07
1.43652e-07
4.34958e-07
-4.56682e-07
-1.6426e-07
1.83311e-07
3.58939e-07
-3.77991e-07
-2.07573e-07
1.90703e-07
2.39593e-07
-2.22723e-07
-2.22776e-07
2.77099e-07
1.7911e-07
-2.33433e-07
-3.01712e-07
2.91159e-07
2.44974e-08
-1.39442e-08
-2.81159e-07
2.7978e-07
-1.51289e-07
1.52668e-07
-2.74557e-07
2.62201e-07
-2.58315e-07
2.70671e-07
-2.40457e-07
2.16743e-07
-3.14802e-07
3.38515e-07
-1.93296e-07
1.75401e-07
-3.14926e-07
3.32821e-07
-1.59222e-07
1.46877e-07
-3.01824e-07
3.14169e-07
-1.32851e-07
1.19123e-07
-2.79201e-07
2.9293e-07
-1.0475e-07
9.10816e-08
-2.57671e-07
2.7134e-07
-7.73418e-08
6.70382e-08
-2.37332e-07
2.47635e-07
-5.64673e-08
4.7587e-08
-2.1447e-07
2.2335e-07
-3.8285e-08
2.99878e-08
-1.93215e-07
2.01513e-07
-2.17888e-08
1.51305e-08
-1.72757e-07
1.79416e-07
-9.11938e-09
4.29175e-09
-1.54729e-07
1.59556e-07
-1.63808e-07
1.68182e-07
-4.37315e-09
1.04112e-08
-1.44305e-08
-1.51594e-07
1.55614e-07
1.81856e-08
-2.46495e-08
-1.84547e-07
1.91011e-07
2.91089e-08
-3.43364e-08
-1.66661e-07
1.71889e-07
3.94323e-08
-4.73248e-08
-1.61048e-07
1.6894e-07
5.4531e-08
-5.9647e-08
-7.29138e-08
7.80297e-08
6.32094e-08
-6.30732e-08
7.58537e-08
-7.599e-08
6.12087e-08
-5.55372e-08
2.38897e-07
-2.44568e-07
4.55644e-08
-3.1003e-08
3.98804e-07
-4.13365e-07
1.32483e-08
5.05277e-09
4.67803e-07
-4.86104e-07
-2.06935e-08
2.88535e-08
4.23596e-07
-4.31756e-07
-3.48421e-08
4.97897e-08
4.74059e-07
-4.89007e-07
-7.22795e-08
9.91321e-08
5.32892e-07
-5.59745e-07
-1.22993e-07
1.44344e-07
4.78014e-07
-4.99364e-07
-1.72184e-07
1.85314e-07
3.9365e-07
-4.06779e-07
-2.1082e-07
2.06542e-07
2.07177e-07
-2.02899e-07
-2.40527e-07
2.77287e-07
2.88159e-07
-3.24918e-07
-2.71077e-07
2.64082e-07
-4.0497e-09
1.1045e-08
-2.85807e-07
3.05631e-07
-1.40896e-07
1.21072e-07
-2.98589e-07
2.78426e-07
-2.90526e-07
3.10689e-07
-2.51528e-07
2.26188e-07
-3.62294e-07
3.87634e-07
-2.01966e-07
1.82983e-07
-3.47808e-07
3.66792e-07
-1.64915e-07
1.4822e-07
-3.29871e-07
3.46566e-07
-1.29327e-07
1.13759e-07
-3.08514e-07
3.24081e-07
-9.87261e-08
8.63647e-08
-2.85802e-07
2.98164e-07
-7.57715e-08
6.68391e-08
-2.57764e-07
2.66696e-07
-5.6889e-08
4.87679e-08
-2.32099e-07
2.4022e-07
-4.09471e-08
3.44575e-08
-2.09059e-07
2.15548e-07
-2.75356e-08
2.07439e-08
-1.8629e-07
1.93081e-07
-1.33425e-08
6.66874e-09
-1.65414e-07
1.72088e-07
-1.72514e-07
1.76803e-07
-4.28885e-09
1.04658e-08
-1.43244e-08
-1.59556e-07
1.63415e-07
1.79545e-08
-2.45926e-08
-1.9756e-07
2.04199e-07
2.91418e-08
-3.4187e-08
-1.77038e-07
1.82084e-07
3.93012e-08
-4.78481e-08
-1.77152e-07
1.85699e-07
5.5639e-08
-6.13283e-08
-8.34241e-08
8.91134e-08
6.54756e-08
-6.56954e-08
7.59502e-08
-7.57304e-08
6.45406e-08
-5.93419e-08
2.50017e-07
-2.55216e-07
4.946e-08
-3.42552e-08
4.2824e-07
-4.43445e-07
1.54094e-08
4.50953e-09
5.05157e-07
-5.25076e-07
-2.0806e-08
2.69014e-08
4.38971e-07
-4.45067e-07
-2.94352e-08
4.39274e-08
5.03768e-07
-5.1826e-07
-6.83304e-08
9.86681e-08
5.88231e-07
-6.18569e-07
-1.23279e-07
1.46902e-07
5.21886e-07
-5.45509e-07
-1.73953e-07
2.04595e-07
4.26306e-07
-4.56947e-07
-2.09809e-07
2.09799e-07
2.04675e-07
-2.04665e-07
-2.50464e-07
2.92038e-07
3.48754e-07
-3.90328e-07
-3.10603e-07
3.76591e-07
2.11752e-08
-8.71621e-08
-4.24853e-07
4.19861e-07
-1.06513e-07
1.11474e-07
-4.00816e-07
3.57719e-07
-3.31905e-07
3.75002e-07
-3.00933e-07
2.55158e-07
-4.26499e-07
4.72274e-07
-2.21047e-07
1.95717e-07
-3.98759e-07
4.24089e-07
-1.7311e-07
1.55244e-07
-3.6534e-07
3.83206e-07
-1.34054e-07
1.18718e-07
-3.39747e-07
3.55083e-07
-1.05577e-07
9.35466e-08
-3.07975e-07
3.20005e-07
-8.21826e-08
7.01946e-08
-2.76304e-07
2.88292e-07
-5.82435e-08
4.95588e-08
-2.49016e-07
2.57701e-07
-4.21316e-08
3.65263e-08
-2.21592e-07
2.27197e-07
-3.00965e-08
2.3011e-08
-2.00363e-07
2.07449e-07
-1.495e-08
7.54588e-09
-1.79271e-07
1.86675e-07
-1.81046e-07
1.85242e-07
-4.19572e-09
1.05373e-08
-1.42038e-08
-1.67181e-07
1.70848e-07
1.7695e-08
-2.45161e-08
-2.10928e-07
2.17749e-07
2.91844e-08
-3.39783e-08
-1.87008e-07
1.91802e-07
3.91057e-08
-4.83785e-08
-1.94598e-07
2.03871e-07
5.67922e-08
-6.31296e-08
-9.51159e-08
1.01453e-07
6.78674e-08
-6.84612e-08
7.53261e-08
-7.47323e-08
6.8117e-08
-6.35149e-08
2.60133e-07
-2.64735e-07
5.3766e-08
-3.78556e-08
4.58994e-07
-4.74905e-07
1.7705e-08
4.37412e-09
5.45995e-07
-5.68074e-07
-2.16841e-08
2.48653e-08
4.49828e-07
-4.5301e-07
-2.28728e-08
3.64507e-08
5.32372e-07
-5.4595e-07
-6.35376e-08
9.84752e-08
6.51044e-07
-6.85982e-07
-1.21506e-07
1.49495e-07
5.69523e-07
-5.97512e-07
-1.93668e-07
1.96271e-07
4.83719e-07
-4.86322e-07
-1.90509e-07
2.4923e-07
2.19792e-07
-2.78513e-07
-2.79187e-07
3.55699e-07
4.64271e-07
-5.41165e-07
-4.17528e-07
4.3291e-07
1.42809e-07
-1.57966e-07
-4.6608e-07
4.45327e-07
-1.27157e-07
1.45687e-07
-4.22633e-07
4.10657e-07
-4.04069e-07
4.15394e-07
-3.69457e-07
3.13742e-07
-5.29555e-07
5.8527e-07
-2.70927e-07
2.46152e-07
-4.49876e-07
4.7465e-07
-2.22657e-07
1.97735e-07
-4.06127e-07
4.3105e-07
-1.70387e-07
1.45415e-07
-3.75682e-07
4.00654e-07
-1.24454e-07
1.05646e-07
-3.33919e-07
3.52728e-07
-8.79268e-08
7.00475e-08
-3.02291e-07
3.20171e-07
-5.48336e-08
4.49218e-08
-2.67708e-07
2.7762e-07
-3.71286e-08
3.19311e-08
-2.329e-07
2.38098e-07
-2.62007e-08
2.03145e-08
-2.14246e-07
2.20132e-07
-1.3796e-08
7.19609e-09
-1.93814e-07
2.00414e-07
-1.89387e-07
1.9348e-07
-4.09285e-09