/*--------------------------------*- C++ -*----------------------------------*\
| =========                 |                                                 |
| \\      /  F ield         | OpenFOAM: The Open Source CFD Toolbox           |
|  \\    /   O peration     | Version:  2.4.0                                 |
|   \\  /    A nd           | Web:      www.OpenFOAM.org                      |
|    \\/     M anipulation  |                                                 |
\*---------------------------------------------------------------------------*/
FoamFile
{
    version     2.0;
    format      ascii;
    class       volVectorField;
    location    "0.066";
    object      U;
}
// * * * * * * * * * * * * * * * * * * * * * * * * * * * * * * * * * * * * * //

dimensions      [0 1 -1 0 0 0 0];

internalField   nonuniform List<vector> 
14400
(
(-0.00124132 0.000179873 0)
(-0.00409454 3.31271e-05 0)
(-0.00699312 3.8305e-05 0)
(-0.00952495 2.49636e-05 0)
(-0.0112674 4.73093e-06 0)
(-0.0115905 -2.48673e-05 0)
(-0.00975424 -6.14065e-05 0)
(-0.00555445 -9.86017e-05 0)
(0.000722373 -0.000131549 0)
(0.00837204 -0.000157255 0)
(0.0166118 -0.000177789 0)
(0.0249973 -0.000200332 0)
(0.0330454 -0.000196768 0)
(0.0398341 -0.000143131 0)
(0.0444675 -4.17633e-05 0)
(0.0464639 9.05919e-05 0)
(0.0458177 0.000219911 0)
(0.0429266 0.000334506 0)
(0.0384863 0.000402095 0)
(0.0332668 0.000415701 0)
(0.0279333 0.000385235 0)
(0.0229272 0.000327283 0)
(0.0184765 0.000258582 0)
(0.0146437 0.000190954 0)
(0.0113976 0.000131926 0)
(0.00866012 8.44677e-05 0)
(0.00634063 4.88629e-05 0)
(0.00435472 2.41263e-05 0)
(0.00263048 8.6384e-06 0)
(0.0011104 8.27375e-07 0)
(-0.00140668 0.000552522 0)
(-0.00732935 0.000373351 0)
(-0.0128216 0.000436065 0)
(-0.01812 0.000400014 0)
(-0.0228421 0.000284392 0)
(-0.02538 -3.20869e-05 0)
(-0.0236838 -0.000572558 0)
(-0.0167642 -0.00123975 0)
(-0.00507412 -0.00190641 0)
(0.00982398 -0.00242858 0)
(0.0261295 -0.00280936 0)
(0.0426596 -0.00309995 0)
(0.0585673 -0.00316207 0)
(0.0726428 -0.00283723 0)
(0.0837109 -0.00210802 0)
(0.0910423 -0.00104729 0)
(0.0943846 0.000234469 0)
(0.0939082 0.00155738 0)
(0.0901524 0.00277433 0)
(0.0838949 0.00376243 0)
(0.075975 0.00448086 0)
(0.0671333 0.00495361 0)
(0.0579412 0.0052335 0)
(0.0487976 0.00537795 0)
(0.0399696 0.00543528 0)
(0.0316227 0.00544225 0)
(0.0238487 0.00542481 0)
(0.0166898 0.00540081 0)
(0.0101508 0.00538029 0)
(0.00421308 0.00536797 0)
(-0.00141662 0.000937028 0)
(-0.00760653 0.000774884 0)
(-0.0133656 0.000915178 0)
(-0.0190297 0.000883586 0)
(-0.0242638 0.000694918 0)
(-0.0273835 6.86962e-05 0)
(-0.02617 -0.00105524 0)
(-0.0195243 -0.00246741 0)
(-0.00791042 -0.00387552 0)
(0.00698844 -0.00496482 0)
(0.0232727 -0.00574374 0)
(0.0397544 -0.00633266 0)
(0.0556579 -0.006495 0)
(0.069789 -0.00593925 0)
(0.0809732 -0.00463007 0)
(0.0884896 -0.0026872 0)
(0.0921099 -0.000308018 0)
(0.0920002 0.00225846 0)
(0.0886771 0.0047236 0)
(0.0828849 0.00685644 0)
(0.0754248 0.00856238 0)
(0.0669996 0.00985473 0)
(0.0581487 0.0108033 0)
(0.0492465 0.0114871 0)
(0.0405521 0.0119723 0)
(0.0322357 0.0123089 0)
(0.024405 0.0125343 0)
(0.0171277 0.0126779 0)
(0.0104359 0.012761 0)
(0.00433408 0.0127999 0)
(-0.00141162 0.00132184 0)
(-0.00763165 0.00118145 0)
(-0.0134116 0.0014049 0)
(-0.019121 0.00138314 0)
(-0.024458 0.00112994 0)
(-0.0277313 0.000199102 0)
(-0.0266584 -0.00151281 0)
(-0.0200952 -0.00367899 0)
(-0.00848258 -0.00583663 0)
(0.00645871 -0.00749032 0)
(0.0227625 -0.00865919 0)
(0.0392668 -0.00955321 0)
(0.0552864 -0.00983187 0)
(0.0695945 -0.00905355 0)
(0.0809528 -0.00716678 0)
(0.0885916 -0.00433728 0)
(0.0922488 -0.000834137 0)
(0.0920408 0.00298005 0)
(0.0884714 0.00670318 0)
(0.0823312 0.00997876 0)
(0.0745026 0.0126498 0)
(0.0657661 0.0147236 0)
(0.0567112 0.0162911 0)
(0.047738 0.0174613 0)
(0.0391009 0.0183254 0)
(0.030947 0.0189527 0)
(0.0233521 0.019393 0)
(0.0163511 0.0196853 0)
(0.0099487 0.0198602 0)
(0.00412884 0.0199435 0)
(-0.00140337 0.00170598 0)
(-0.00763609 0.00158812 0)
(-0.0134095 0.00189893 0)
(-0.0191262 0.00188764 0)
(-0.0245254 0.00157502 0)
(-0.027917 0.000341771 0)
(-0.0269561 -0.00196091 0)
(-0.0204583 -0.00488845 0)
(-0.00882982 -0.00780718 0)
(0.00618648 -0.0100264 0)
(0.0225372 -0.0115801 0)
(0.0391017 -0.0127969 0)
(0.0553294 -0.0132206 0)
(0.06996 -0.0122372 0)
(0.0816796 -0.00977929 0)
(0.0896695 -0.00605527 0)
(0.0936312 -0.00140173 0)
(0.0935958 0.00371651 0)
(0.0900133 0.00877191 0)
(0.0836842 0.0132488 0)
(0.0755619 0.0169175 0)
(0.066498 0.0197701 0)
(0.0571389 0.0219239 0)
(0.0479189 0.0235247 0)
(0.039108 0.0246995 0)
(0.0308535 0.0255474 0)
(0.0232206 0.0261404 0)
(0.0162269 0.0265331 0)
(0.00985956 0.026768 0)
(0.00408747 0.0268797 0)
(-0.00139269 0.00208911 0)
(-0.00763987 0.00199433 0)
(-0.0134016 0.00239754 0)
(-0.0191217 0.00239698 0)
(-0.024594 0.00203102 0)
(-0.0281323 0.000498275 0)
(-0.0273135 -0.00239761 0)
(-0.0209028 -0.00609407 0)
(-0.00925845 -0.00978837 0)
(0.00585641 -0.0125757 0)
(0.0222632 -0.0145055 0)
(0.0388933 -0.0160693 0)
(0.055387 -0.0166801 0)
(0.0704358 -0.01552 0)
(0.0826258 -0.0125108 0)
(0.0910838 -0.0078987 0)
(0.0954823 -0.00207165 0)
(0.0957431 0.00440063 0)
(0.0922359 0.0108702 0)
(0.085768 0.0166226 0)
(0.0773812 0.0213362 0)
(0.0680077 0.0249898 0)
(0.0583463 0.0277313 0)
(0.0488554 0.0297487 0)
(0.0398143 0.0312108 0)
(0.0313703 0.032251 0)
(0.0235838 0.0329692 0)
(0.0164658 0.033442 0)
(0.00999665 0.0337205 0)
(0.00413824 0.0338533 0)
(-0.0013795 0.00247099 0)
(-0.00764473 0.00239988 0)
(-0.0133908 0.00290159 0)
(-0.0191139 0.00291188 0)
(-0.0246742 0.00250079 0)
(-0.0283943 0.000672181 0)
(-0.0277522 -0.0028198 0)
(-0.0214511 -0.00729424 0)
(-0.00978787 -0.0117831 0)
(0.00545565 -0.0151421 0)
(0.021927 -0.0174339 0)
(0.0386211 -0.0193751 0)
(0.0554386 -0.0202292 0)
(0.0710033 -0.0189285 0)
(0.0837727 -0.015399 0)
(0.0928032 -0.00990998 0)
(0.0977628 -0.00287967 0)
(0.098428 0.00499887 0)
(0.0950411 0.0129871 0)
(0.0884122 0.0201032 0)
(0.0797054 0.0259178 0)
(0.06996 0.0303958 0)
(0.0599414 0.0337289 0)
(0.0501316 0.0361568 0)
(0.0408151 0.0378974 0)
(0.0321342 0.0391192 0)
(0.024141 0.0399518 0)
(0.0168361 0.0405103 0)
(0.010208 0.0408195 0)
(0.00421273 0.0409732 0)
(-0.0013636 0.00285134 0)
(-0.00765111 0.0028045 0)
(-0.0133775 0.00341182 0)
(-0.0191021 0.00343315 0)
(-0.0247652 0.00298755 0)
(-0.028704 0.000867267 0)
(-0.0282738 -0.00322396 0)
(-0.0221063 -0.00848761 0)
(-0.0104208 -0.0137949 0)
(0.00498481 -0.0177309 0)
(0.0215288 -0.0203623 0)
(0.0382732 -0.0227194 0)
(0.0554735 -0.0238871 0)
(0.0716569 -0.0224905 0)
(0.085119 -0.0184825 0)
(0.0948226 -0.0121382 0)
(0.100482 -0.00386354 0)
(0.101685 0.00547427 0)
(0.0984677 0.0151237 0)
(0.0916364 0.0237175 0)
(0.0825233 0.0307018 0)
(0.0723127 0.0360311 0)
(0.0618514 0.0399585 0)
(0.0516531 0.0427839 0)
(0.0420057 0.0447975 0)
(0.0330437 0.0461876 0)
(0.0248037 0.0471203 0)
(0.0172164 0.0477775 0)
(0.0103712 0.0481044 0)
(0.00425374 0.0482876 0)
(-0.00134481 0.00322988 0)
(-0.0076593 0.00320788 0)
(-0.0133614 0.003929 0)
(-0.0190861 0.00396137 0)
(-0.0248656 0.00349481 0)
(-0.029061 0.00108733 0)
(-0.0288794 -0.00360716 0)
(-0.0228711 -0.00967263 0)
(-0.0111601 -0.0158278 0)
(0.00444599 -0.020349 0)
(0.0210693 -0.0232871 0)
(0.0378347 -0.0261059 0)
(0.0554792 -0.0276748 0)
(0.0723923 -0.0262343 0)
(0.0866689 -0.0218074 0)
(0.0971352 -0.0146489 0)
(0.103643 -0.00506204 0)
(0.105568 0.00578149 0)
(0.102577 0.0172851 0)
(0.0954879 0.0275009 0)
(0.0858585 0.0357414 0)
(0.0750691 0.0419513 0)
(0.0640621 0.0464788 0)
(0.0533966 0.0496654 0)
(0.0433503 0.0519627 0)
(0.0340758 0.0534825 0)
(0.0255825 0.054513 0)
(0.0176768 0.0551603 0)
(0.0105979 0.0556095 0)
(0.00437033 0.0558325 0)
(-0.00132286 0.00360633 0)
(-0.00767 0.00360955 0)
(-0.0133424 0.00445374 0)
(-0.0190649 0.0044969 0)
(-0.0249732 0.0040263 0)
(-0.0294651 0.00133622 0)
(-0.0295697 -0.00396596 0)
(-0.0237488 -0.0108475 0)
(-0.0120093 -0.0178864 0)
(0.0038419 -0.023003 0)
(0.0205499 -0.0261998 0)
(0.0372868 -0.0295366 0)
(0.0554413 -0.0316149 0)
(0.073205 -0.0301898 0)
(0.0884346 -0.0254275 0)
(0.0997361 -0.0175335 0)
(0.107242 -0.0065247 0)
(0.110146 0.00586109 0)
(0.107448 0.0194822 0)
(0.100026 0.0314989 0)
(0.0897361 0.0410951 0)
(0.0782364 0.0482124 0)
(0.0665709 0.0533574 0)
(0.0553713 0.0568397 0)
(0.0448035 0.0594433 0)
(0.035167 0.0610588 0)
(0.0264228 0.0621866 0)
(0.0185155 0.0628598 0)
(0.0113856 0.0632851 0)
(0.00471851 0.0634311 0)
(-0.00129743 0.00398035 0)
(-0.00768353 0.00400893 0)
(-0.0133204 0.00498673 0)
(-0.0190382 0.00503985 0)
(-0.025086 0.0045859 0)
(-0.0299161 0.0016179 0)
(-0.0303456 -0.00429727 0)
(-0.024743 -0.0120099 0)
(-0.0129731 -0.0199763 0)
(0.00317611 -0.0256963 0)
(0.0199748 -0.0290888 0)
(0.0366065 -0.0330129 0)
(0.055343 -0.0357341 0)
(0.0740914 -0.0343867 0)
(0.0904424 -0.0293999 0)
(0.10263 -0.0209149 0)
(0.111255 -0.00830312 0)
(0.115517 0.00561731 0)
(0.11318 0.0217375 0)
(0.10532 0.0357745 0)
(0.0941713 0.0468386 0)
(0.0817823 0.0548742 0)
(0.0693672 0.060596 0)
(0.057555 0.0644372 0)
(0.0464049 0.0671467 0)
(0.0362072 0.0690055 0)
(0.0271489 0.0700961 0)
(0.0188024 0.0708727 0)
(0.0111686 0.0711655 0)
(0.004531 0.0714411 0)
(-0.00126823 0.00435161 0)
(-0.00770065 0.00440536 0)
(-0.0132951 0.00552861 0)
(-0.0190051 0.00558999 0)
(-0.0252011 0.00517772 0)
(-0.0304133 0.0019364 0)
(-0.0312082 -0.00459767 0)
(-0.0258583 -0.0131574 0)
(-0.0140574 -0.022104 0)
(0.00245395 -0.0284387 0)
(0.0193515 -0.0319383 0)
(0.0357635 -0.0365344 0)
(0.0551657 -0.0400617 0)
(0.075048 -0.0388521 0)
(0.0927312 -0.0337713 0)
(0.105847 -0.0249292 0)
(0.115629 -0.0104594 0)
(0.121831 0.00491707 0)
(0.119892 0.0240926 0)
(0.111463 0.0404224 0)
(0.0992318 0.0531128 0)
(0.085756 0.0620802 0)
(0.0723737 0.0681831 0)
(0.0597142 0.072577 0)
(0.0483671 0.0751677 0)
(0.0378471 0.077087 0)
(0.0281748 0.0784187 0)
(0.0197613 0.0791275 0)
(0.0121136 0.079518 0)
(0.00499987 0.079632 0)
(-0.00123476 0.00471974 0)
(-0.00772193 0.00479793 0)
(-0.0132662 0.00608008 0)
(-0.0189653 0.00614672 0)
(-0.0253157 0.00580618 0)
(-0.0309565 0.00229576 0)
(-0.0321585 -0.00486391 0)
(-0.0270996 -0.0142867 0)
(-0.0152698 -0.0242767 0)
(0.00168175 -0.0312422 0)
(0.0186909 -0.03473 0)
(0.0347205 -0.0401005 0)
(0.0548881 -0.0446355 0)
(0.0760653 -0.0436101 0)
(0.0953341 -0.0385501 0)
(0.109455 -0.029675 0)
(0.120265 -0.0130223 0)
(0.129329 0.00355363 0)
(0.127694 0.0266043 0)
(0.118572 0.0455433 0)
(0.104907 0.0600661 0)
(0.090321 0.0700155 0)
(0.0754003 0.0765738 0)
(0.0621893 0.0808385 0)
(0.049891 0.0840068 0)
(0.0390258 0.0855171 0)
(0.0289993 0.0867808 0)
(0.0198214 0.0873048 0)
(0.0117213 0.0878563 0)
(0.00472269 0.0882972 0)
(-0.00119663 0.00508433 0)
(-0.00774808 0.00518568 0)
(-0.0132335 0.00664191 0)
(-0.0189182 0.0067089 0)
(-0.025426 0.00647611 0)
(-0.0315448 0.00270012 0)
(-0.0331973 -0.00509267 0)
(-0.0284728 -0.0153933 0)
(-0.0166193 -0.0265028 0)
(0.000866583 -0.0341227 0)
(0.0180111 -0.037437 0)
(0.0334297 -0.043708 0)
(0.0544872 -0.0495032 0)
(0.0771193 -0.0486813 0)
(0.098236 -0.0436843 0)
(0.113705 -0.0351311 0)
(0.124991 -0.0159185 0)
(0.138429 0.00123218 0)
(0.136762 0.0293129 0)
(0.12687 0.051338 0)
(0.111522 0.0676529 0)
(0.0946441 0.0790513 0)
(0.0796719 0.0852293 0)
(0.0645849 0.0900091 0)
(0.0519847 0.0926061 0)
(0.0402078 0.0946092 0)
(0.0296217 0.0957472 0)
(0.0202834 0.096742 0)
(0.0120969 0.096606 0)
(0.00490937 0.0963164 0)
(-0.00115318 0.00544493 0)
(-0.00777987 0.0055674 0)
(-0.0131965 0.00721499 0)
(-0.0188632 0.00727489 0)
(-0.0255284 0.00719275 0)
(-0.0321777 0.00315367 0)
(-0.0343254 -0.0052809 0)
(-0.0299845 -0.0164726 0)
(-0.0181172 -0.028792 0)
(1.80936e-05 -0.0371005 0)
(0.0173385 -0.0400272 0)
(0.0318287 -0.0473519 0)
(0.0539389 -0.0547267 0)
(0.0781476 -0.0541041 0)
(0.101065 -0.0490159 0)
(0.11948 -0.0410197 0)
(0.129236 -0.0190428 0)
(0.150399 -0.0022733 0)
(0.147385 0.0321995 0)
(0.136082 0.0581479 0)
(0.119595 0.0757815 0)
(0.0984964 0.0886706 0)
(0.0822075 0.0957299 0)
(0.0683884 0.0988371 0)
(0.05318 0.102269 0)
(0.0411719 0.103658 0)
(0.0307826 0.104674 0)
(0.0220287 0.104996 0)
(0.0141491 0.10562 0)
(0.00592381 0.105757 0)
(-0.00110383 0.00580108 0)
(-0.00781835 0.00594181 0)
(-0.0131547 0.00780032 0)
(-0.0188001 0.00784217 0)
(-0.0256184 0.00796183 0)
(-0.0328542 0.00366059 0)
(-0.0355435 -0.0054256 0)
(-0.0316423 -0.0175178 0)
(-0.0197778 -0.0311547 0)
(-0.000852735 -0.0402031 0)
(0.0167115 -0.0424574 0)
(0.0298369 -0.0510239 0)
(0.0532215 -0.0603912 0)
(0.0791018 -0.0600029 0)
(0.102706 -0.0545171 0)
(0.127029 -0.0452079 0)
(0.135834 -0.0250466 0)
(0.167712 -0.00592388 0)
(0.158938 0.0357629 0)
(0.148587 0.0652409 0)
(0.126434 0.0862167 0)
(0.107678 0.0969516 0)
(0.0853255 0.105393 0)
(0.0669088 0.110708 0)
(0.054739 0.111896 0)
(0.0425835 0.113557 0)
(0.030522 0.114198 0)
(0.0199133 0.11375 0)
(0.0113716 0.114529 0)
(0.00457486 0.11535 0)
(-0.00104777 0.00615224 0)
(-0.00786417 0.00630728 0)
(-0.0131076 0.00839904 0)
(-0.0187288 0.0084072 0)
(-0.0256916 0.00878964 0)
(-0.0335733 0.00422551 0)
(-0.0368516 -0.00552486 0)
(-0.033455 -0.0185205 0)
(-0.0216181 -0.0336026 0)
(-0.00173294 -0.0434666 0)
(0.0161858 -0.0446728 0)
(0.0273485 -0.0547052 0)
(0.0523221 -0.0665964 0)
(0.0804168 -0.0664252 0)
(0.107413 -0.060959 0)
(0.136414 -0.0420847 0)
(0.161395 -0.0413107 0)
(0.18049 -0.00591374 0)
(0.165554 0.0396105 0)
(0.162562 0.0734657 0)
(0.137491 0.0974867 0)
(0.110442 0.10935 0)
(0.0912791 0.115713 0)
(0.0758207 0.119048 0)
(0.0591254 0.121883 0)
(0.0432843 0.124608 0)
(0.0312628 0.124578 0)
(0.0204397 0.124835 0)
(0.0109739 0.123436 0)
(0.00393877 0.122151 0)
(-0.000984113 0.00649781 0)
(-0.00791883 0.00666207 0)
(-0.0130541 0.0090125 0)
(-0.0186489 0.00896485 0)
(-0.0257424 0.00968308 0)
(-0.0343341 0.00485399 0)
(-0.0382495 -0.00557517 0)
(-0.0354318 -0.0194696 0)
(-0.0236601 -0.0361479 0)
(-0.00260842 -0.0469399 0)
(0.0158403 -0.0466005 0)
(0.0242212 -0.0583636 0)
(0.0512089 -0.073453 0)
(0.0820007 -0.072737 0)
(0.118095 -0.0658917 0)
(0.149417 -0.0368612 0)
(0.178437 -0.063657 0)
(0.160393 0.00329706 0)
(0.178755 0.0357507 0)
(0.175065 0.0861432 0)
(0.141784 0.115039 0)
(0.115958 0.120824 0)
(0.0940808 0.127096 0)
(0.0732733 0.131813 0)
(0.0557307 0.135388 0)
(0.0429127 0.134644 0)
(0.0316478 0.134264 0)
(0.0225267 0.134233 0)
(0.0145997 0.13289 0)
(0.00597177 0.131263 0)
(-0.000911857 0.00683719 0)
(-0.00798328 0.00700408 0)
(-0.0129934 0.00964212 0)
(-0.018561 0.00950745 0)
(-0.0257656 0.0106497 0)
(-0.035135 0.00555295 0)
(-0.039736 -0.0055757 0)
(-0.0375842 -0.0203518 0)
(-0.025931 -0.0388031 0)
(-0.00346459 -0.0506896 0)
(0.0157858 -0.0481354 0)
(0.0202637 -0.0619473 0)
(0.0498154 -0.0811431 0)
(0.0824152 -0.0794615 0)
(0.119132 -0.0726436 0)
(0.131025 -0.0374275 0)
(0.18079 -0.072389 0)
(0.199112 -0.0103977 0)
(0.253221 0.0251003 0)
(0.233529 0.0982742 0)
(0.165304 0.138738 0)
(0.124004 0.140549 0)
(0.0974949 0.140382 0)
(0.0751198 0.144338 0)
(0.0594876 0.145043 0)
(0.0456894 0.144277 0)
(0.0322698 0.144138 0)
(0.0236041 0.141765 0)
(0.0163085 0.14285 0)
(0.00676942 0.142711 0)
(-0.000829739 0.00716968 0)
(-0.00805927 0.00733081 0)
(-0.0129233 0.0102892 0)
(-0.0184654 0.0100259 0)
(-0.0257551 0.0116977 0)
(-0.0359753 0.00633115 0)
(-0.0413086 -0.00552325 0)
(-0.0399237 -0.021149 0)
(-0.0284636 -0.0415799 0)
(-0.00428828 -0.0548081 0)
(0.0161784 -0.0491189 0)
(0.0152196 -0.0653711 0)
(0.0480961 -0.0899114 0)
(0.0797344 -0.0864918 0)
(0.137448 -0.0813549 0)
(0.135212 -0.0429121 0)
(0.176678 -0.10753 0)
(0.248613 -0.0370862 0)
(0.283132 0.0329948 0)
(0.25868 0.112486 0)
(0.203263 0.169866 0)
(0.151965 0.155314 0)
(0.124834 0.155996 0)
(0.0943867 0.160756 0)
(0.0687104 0.158023 0)
(0.0476378 0.158897 0)
(0.0299267 0.155089 0)
(0.0209137 0.148744 0)
(0.0144626 0.152266 0)
(0.00647966 0.154263 0)
(-0.000736425 0.00749455 0)
(-0.00814836 0.00763936 0)
(-0.0128425 0.0109543 0)
(-0.0183627 0.0105137 0)
(-0.0257045 0.0128358 0)
(-0.0368537 0.00719936 0)
(-0.0429634 -0.0054158 0)
(-0.0424625 -0.0218389 0)
(-0.0312977 -0.0444898 0)
(-0.00507115 -0.0594204 0)
(0.0172228 -0.0493256 0)
(0.00875166 -0.068474 0)
(0.0466233 -0.0999912 0)
(0.0794104 -0.0981158 0)
(0.111152 -0.0739002 0)
(0.152475 -0.0779998 0)
(0.230665 -0.119095 0)
(0.246792 -0.0316029 0)
(0.213881 0.0391268 0)
(0.183334 0.113328 0)
(0.223362 0.187358 0)
(0.188448 0.18036 0)
(0.134586 0.177074 0)
(0.0992288 0.182449 0)
(0.0681447 0.17735 0)
(0.0425404 0.178074 0)
(0.0240323 0.167642 0)
(0.0140338 0.156142 0)
(0.0083366 0.159312 0)
(0.00342699 0.163111 0)
(-0.000630204 0.00781105 0)
(-0.00825246 0.00792632 0)
(-0.0127484 0.0116403 0)
(-0.0182539 0.0109626 0)
(-0.0256074 0.0140732 0)
(-0.0377699 0.0081705 0)
(-0.0446943 -0.00524881 0)
(-0.0452125 -0.022391 0)
(-0.0344787 -0.0475415 0)
(-0.00585286 -0.0646796 0)
(0.0190781 -0.0484788 0)
(0.000407101 -0.0709621 0)
(0.0452676 -0.110096 0)
(0.103325 -0.112853 0)
(0.0799139 -0.0724941 0)
(0.196725 -0.122228 0)
(0.201584 -0.0918509 0)
(0.149501 -0.022041 0)
(0.158281 0.0376291 0)
(0.122724 0.123449 0)
(0.12051 0.169423 0)
(0.142997 0.199528 0)
(0.11572 0.203 0)
(0.082218 0.206049 0)
(0.0530217 0.199609 0)
(0.0307961 0.196717 0)
(0.016147 0.180745 0)
(0.00644322 0.164179 0)
(0.00120929 0.163426 0)
(7.62129e-05 0.165826 0)
(-0.000509252 0.0081184 0)
(-0.0083739 0.00818785 0)
(-0.0126391 0.0123533 0)
(-0.0181399 0.0113598 0)
(-0.0254568 0.0154194 0)
(-0.0387237 0.00925938 0)
(-0.0464929 -0.00502088 0)
(-0.0481843 -0.0227647 0)
(-0.03806 -0.050735 0)
(-0.00717249 -0.070592 0)
(0.0210808 -0.0464584 0)
(-0.0103825 -0.0724936 0)
(0.0396598 -0.120337 0)
(0.105878 -0.118705 0)
(0.095167 -0.0939029 0)
(0.208632 -0.137692 0)
(0.214271 -0.0772297 0)
(0.162046 -0.0414289 0)
(0.307668 0.030542 0)
(0.213353 0.132098 0)
(0.127661 0.164545 0)
(0.0958238 0.201837 0)
(0.0832407 0.219537 0)
(0.0685305 0.228711 0)
(0.0458161 0.218209 0)
(0.0311154 0.211498 0)
(0.0214867 0.192775 0)
(0.0111556 0.173364 0)
(0.0031219 0.166408 0)
(0.001765 0.16614 0)
(-0.000371353 0.00841579 0)
(-0.0085151 0.00841956 0)
(-0.0125115 0.0130999 0)
(-0.018021 0.0116882 0)
(-0.0252457 0.0168841 0)
(-0.0397159 0.0104827 0)
(-0.0483479 -0.00473074 0)
(-0.0513875 -0.0229098 0)
(-0.0421321 -0.0540434 0)
(-0.012917 -0.07619 0)
(0.0185675 -0.0443554 0)
(-0.024248 -0.0731781 0)
(0.0294423 -0.134973 0)
(0.0801136 -0.112115 0)
(0.141296 -0.13508 0)
(0.168395 -0.13827 0)
(0.0817053 -0.057412 0)
(0.252754 -0.13629 0)
(0.353547 0.0907359 0)
(0.226809 0.155576 0)
(0.151872 0.195956 0)
(0.0620603 0.210514 0)
(0.0574463 0.230021 0)
(0.0494861 0.233722 0)
(0.0491877 0.232387 0)
(0.0390205 0.224522 0)
(0.025232 0.204005 0)
(0.012686 0.184905 0)
(0.00422463 0.17028 0)
(0.000997162 0.167672 0)
(-0.000214105 0.00870249 0)
(-0.0086792 0.00861651 0)
(-0.0123631 0.0138864 0)
(-0.0178979 0.0119255 0)
(-0.0249676 0.0184768 0)
(-0.0407472 0.0118618 0)
(-0.0502442 -0.00438002 0)
(-0.0548302 -0.0227664 0)
(-0.0470312 -0.0572321 0)
(-0.0372308 -0.0779719 0)
(-0.00347227 -0.0466721 0)
(-0.0413699 -0.0729348 0)
(0.0209878 -0.151967 0)
(0.0695935 -0.116657 0)
(0.155677 -0.150212 0)
(0.0432948 -0.0966715 0)
(0.222386 -0.157262 0)
(0.394646 -0.199293 0)
(0.514242 0.0528014 0)
(0.448897 0.454485 0)
(0.229874 0.230296 0)
(0.0888983 0.233688 0)
(0.0485662 0.258857 0)
(0.0287656 0.246895 0)
(0.0168812 0.237686 0)
(0.00739681 0.227323 0)
(0.0014121 0.215185 0)
(-0.003366 0.196945 0)
(-0.00406615 0.171222 0)
(-0.00366822 0.165498 0)
(-3.48604e-05 0.00897776 0)
(-0.00886941 0.00877307 0)
(-0.0121901 0.0147195 0)
(-0.0177706 0.0120441 0)
(-0.0246165 0.0202074 0)
(-0.0418202 0.0134178 0)
(-0.0521637 -0.00397374 0)
(-0.0585216 -0.0222526 0)
(-0.054147 -0.0592059 0)
(-0.0945143 -0.0712356 0)
(-0.0693144 -0.0582449 0)
(-0.0598591 -0.0717895 0)
(0.0247381 -0.165226 0)
(0.0780101 -0.129407 0)
(0.0723455 -0.127547 0)
(0.0700903 -0.115138 0)
(0.582975 -0.278659 0)
(0.560013 -0.241742 0)
(0.542844 -0.0269042 0)
(0.642996 0.440221 0)
(0.554858 0.396408 0)
(0.368138 0.355864 0)
(0.155927 0.308573 0)
(0.0664441 0.261003 0)
(0.051729 0.266994 0)
(0.0259951 0.258802 0)
(-0.00354923 0.234815 0)
(-0.0208718 0.203155 0)
(-0.0225769 0.166912 0)
(-0.0126873 0.156369 0)
(0.000163787 0.00924093 0)
(-0.00908957 0.0088828 0)
(-0.0119885 0.0156068 0)
(-0.017639 0.0120128 0)
(-0.0241864 0.0220861 0)
(-0.0429412 0.0151528 0)
(-0.0540839 -0.0035234 0)
(-0.0624844 -0.0212347 0)
(-0.066696 -0.0575349 0)
(-0.157528 -0.0591861 0)
(-0.176008 -0.0837189 0)
(-0.0720893 -0.0685915 0)
(0.0473074 -0.176043 0)
(0.00195173 -0.134374 0)
(-0.0886507 -0.100372 0)
(0.610965 -0.269986 0)
(0.840606 -0.297673 0)
(0.603126 -0.187823 0)
(0.43533 -0.0390388 0)
(0.577183 0.342719 0)
(0.641694 0.469113 0)
(0.611526 0.384884 0)
(0.456411 0.360145 0)
(0.413037 0.261156 0)
(0.323697 0.281151 0)
(0.246285 0.273478 0)
(0.175789 0.264819 0)
(0.108311 0.243963 0)
(0.0603828 0.202256 0)
(0.022562 0.155675 0)
(0.000236271 0.00949456 0)
(-0.00934403 0.0089379 0)
(-0.0117531 0.0165567 0)
(-0.0175026 0.0117962 0)
(-0.0236692 0.0241238 0)
(-0.0441211 0.0170681 0)
(-0.0559794 -0.00305179 0)
(-0.0667867 -0.01949 0)
(-0.0858511 -0.0509052 0)
(-0.184108 -0.0490315 0)
(-0.234876 -0.113915 0)
(-0.0449069 -0.0749816 0)
(0.0185133 -0.170845 0)
(0.485836 -0.23058 0)
(1.13185 -0.201643 0)
(0.870366 -0.287606 0)
(0.720365 -0.222317 0)
(0.414235 -0.0818195 0)
(0.256544 -0.0313392 0)
(0.359884 0.262313 0)
(0.478282 0.451962 0)
(0.560194 0.422717 0)
(0.508571 0.399316 0)
(0.440512 0.356067 0)
(0.351351 0.344548 0)
(0.259498 0.344471 0)
(0.181601 0.337419 0)
(0.121086 0.300981 0)
(0.0736698 0.248699 0)
(0.0301626 0.212033 0)
(-0.00233079 0.0100118 0)
(-0.00964035 0.00893097 0)
(-0.0114785 0.0175784 0)
(-0.0173623 0.0113614 0)
(-0.0230586 0.026332 0)
(-0.045378 0.0191694 0)
(-0.0578172 -0.00259907 0)
(-0.0715553 -0.016708 0)
(-0.10664 -0.0413119 0)
(-0.169427 -0.0451209 0)
(-0.196726 -0.11066 0)
(-0.0121795 -0.109815 0)
(-0.0787759 -0.200802 0)
(0.215356 -0.25711 0)
(0.458203 -0.227954 0)
(0.574473 -0.279781 0)
(0.438418 -0.137827 0)
(0.178745 -0.00467322 0)
(0.0760071 -0.0181089 0)
(0.121391 0.206045 0)
(0.249052 0.37957 0)
(0.362756 0.407412 0)
(0.40379 0.409812 0)
(0.393018 0.402071 0)
(0.350319 0.406045 0)
(0.284483 0.412372 0)
(0.214043 0.402219 0)
(0.149 0.359739 0)
(0.0897824 0.30618 0)
(0.0365799 0.270473 0)
(-0.0311376 0.0124561 0)
(-0.0100177 0.00888411 0)
(-0.0112033 0.0186674 0)
(-0.0171818 0.0106995 0)
(-0.0224312 0.0287215 0)
(-0.0467437 0.0214641 0)
(-0.0595577 -0.00223609 0)
(-0.0769425 -0.0125427 0)
(-0.124962 -0.0321232 0)
(-0.131104 -0.0518729 0)
(0.0145359 -0.102208 0)
(-0.144654 -0.149404 0)
(0.408119 -0.208277 0)
(0.465438 -0.381718 0)
(0.437914 -0.271925 0)
(0.430442 -0.264677 0)
(0.194192 -0.0431831 0)
(0.0113702 0.036714 0)
(-0.0584598 0.000725249 0)
(-0.0474989 0.165577 0)
(0.0633645 0.31157 0)
(0.179003 0.360649 0)
(0.265305 0.383637 0)
(0.306906 0.405214 0)
(0.30773 0.433823 0)
(0.276484 0.459874 0)
(0.226504 0.461262 0)
(0.166583 0.425511 0)
(0.103284 0.374972 0)
(0.0432355 0.339161 0)
(-0.000281193 -8.81766e-07 0)
(-0.00171463 3.54131e-06 0)
(-0.00332875 1.47866e-05 0)
(-0.00517246 3.43834e-05 0)
(-0.00731031 6.41352e-05 0)
(-0.0098203 0.000105352 0)
(-0.0127919 0.000158655 0)
(-0.0163111 0.000222613 0)
(-0.0204401 0.000292096 0)
(-0.0251708 0.000357861 0)
(-0.030368 0.000404668 0)
(-0.035706 0.00041628 0)
(-0.0406309 0.000376477 0)
(-0.0444135 0.000284116 0)
(-0.0463041 0.000161202 0)
(-0.0457293 2.70563e-05 0)
(-0.042474 -9.35456e-05 0)
(-0.0367464 -0.000174975 0)
(-0.0292215 -0.000205413 0)
(-0.0208575 -0.000194056 0)
(-0.0123947 -0.000171754 0)
(-0.00424596 -0.000149079 0)
(0.00291374 -0.000118964 0)
(0.00827045 -8.03831e-05 0)
(0.0113533 -4.30497e-05 0)
(0.0121513 -9.22296e-06 0)
(0.0109302 1.97748e-05 0)
(0.00828157 3.52094e-05 0)
(0.00522691 3.47718e-05 0)
(0.00226927 3.49825e-05 0)
(-0.00128989 0.00536521 0)
(-0.0069362 0.00537087 0)
(-0.0131696 0.00538528 0)
(-0.0200128 0.00540631 0)
(-0.0274744 0.00542649 0)
(-0.0355311 0.00543208 0)
(-0.0441203 0.0054017 0)
(-0.0531112 0.00530442 0)
(-0.0622949 0.00509777 0)
(-0.071343 0.00473014 0)
(-0.0797758 0.00414264 0)
(-0.0869413 0.00329713 0)
(-0.0920449 0.00219191 0)
(-0.0942694 0.00091663 0)
(-0.092947 -0.000395967 0)
(-0.087712 -0.00157455 0)
(-0.0785697 -0.00248883 0)
(-0.0659751 -0.00303843 0)
(-0.0508588 -0.00318026 0)
(-0.0344547 -0.00299439 0)
(-0.0178134 -0.00266125 0)
(-0.00187604 -0.00220101 0)
(0.0117521 -0.00159634 0)
(0.0212642 -0.000904561 0)
(0.0256836 -0.000297837 0)
(0.0253151 0.000142135 0)
(0.021349 0.000398935 0)
(0.0154709 0.000463177 0)
(0.00950831 0.000400901 0)
(0.00403964 0.000372084 0)
(-0.00132985 0.0128055 0)
(-0.00713795 0.0127807 0)
(-0.0135319 0.0127171 0)
(-0.0205136 0.0126016 0)
(-0.0280656 0.0124156 0)
(-0.0361371 0.012134 0)
(-0.0446439 0.011724 0)
(-0.0534447 0.0111429 0)
(-0.0623328 0.0103338 0)
(-0.0709967 0.00922451 0)
(-0.0789846 0.00773819 0)
(-0.0856814 0.00582957 0)
(-0.0903308 0.0035306 0)
(-0.092154 0.00100707 0)
(-0.0905124 -0.00147758 0)
(-0.0850477 -0.0036547 0)
(-0.0757624 -0.00531345 0)
(-0.06309 -0.00628796 0)
(-0.0479496 -0.00650534 0)
(-0.0315755 -0.00611332 0)
(-0.0149751 -0.00543941 0)
(0.000964278 -0.00449904 0)
(0.0145702 -0.00321666 0)
(0.02391 -0.00175555 0)
(0.0279436 -0.000481401 0)
(0.0270404 0.000416288 0)
(0.022523 0.000903267 0)
(0.0161824 0.000989898 0)
(0.00989204 0.000836854 0)
(0.00419056 0.000765949 0)
(-0.001266 0.019956 0)
(-0.00680077 0.0199048 0)
(-0.0129071 0.0197725 0)
(-0.0196026 0.0195354 0)
(-0.0268945 0.0191663 0)
(-0.0347622 0.0186305 0)
(-0.0431544 0.0178849 0)
(-0.0519591 0.0168715 0)
(-0.0609838 0.0155123 0)
(-0.0699079 0.0137066 0)
(-0.0782404 0.0113519 0)
(-0.0853022 0.00839289 0)
(-0.0902544 0.00489592 0)
(-0.0922494 0.00111463 0)
(-0.0906386 -0.00256392 0)
(-0.0850933 -0.00574605 0)
(-0.0756609 -0.00815019 0)
(-0.0628128 -0.00954515 0)
(-0.047519 -0.00982659 0)
(-0.0310762 -0.00921489 0)
(-0.0144602 -0.00820329 0)
(0.0015186 -0.00679268 0)
(0.0151544 -0.00482558 0)
(0.0244465 -0.00258447 0)
(0.0283615 -0.000637061 0)
(0.0273174 0.000716403 0)
(0.0226758 0.00142752 0)
(0.0162417 0.00152906 0)
(0.00990946 0.0012791 0)
(0.0041988 0.0011647 0)
(-0.00125785 0.0268964 0)
(-0.00674387 0.0268278 0)
(-0.012807 0.0266501 0)
(-0.0194789 0.0263316 0)
(-0.0267837 0.0258349 0)
(-0.0347181 0.0251119 0)
(-0.0432457 0.0241009 0)
(-0.0522603 0.0227187 0)
(-0.0615608 0.0208537 0)
(-0.0708018 0.01837 0)
(-0.0794482 0.0151319 0)
(-0.0867547 0.0110759 0)
(-0.0918113 0.00630862 0)
(-0.0937193 0.00120399 0)
(-0.091871 -0.00370585 0)
(-0.0859995 -0.00790415 0)
(-0.0762123 -0.0110545 0)
(-0.0630227 -0.012863 0)
(-0.0474533 -0.0131859 0)
(-0.0308774 -0.0123277 0)
(-0.014216 -0.0109753 0)
(0.00183321 -0.00909831 0)
(0.015524 -0.00643757 0)
(0.0247822 -0.00340543 0)
(0.0286013 -0.000781286 0)
(0.0274537 0.00102646 0)
(0.0227284 0.00195889 0)
(0.0162324 0.00207178 0)
(0.00988685 0.00172149 0)
(0.00419301 0.00156435 0)
(-0.00128212 0.0338736 0)
(-0.00684699 0.0337909 0)
(-0.0130041 0.0335797 0)
(-0.0197873 0.0331981 0)
(-0.0272302 0.0325978 0)
(-0.0353345 0.0317158 0)
(-0.04407 0.0304656 0)
(-0.0533335 0.0287331 0)
(-0.0629191 0.0263688 0)
(-0.0724645 0.0231952 0)
(-0.0814002 0.0190394 0)
(-0.0889109 0.0138254 0)
(-0.0940049 0.00770942 0)
(-0.0957141 0.0012112 0)
(-0.0935054 -0.00496043 0)
(-0.0871826 -0.0101687 0)
(-0.0769283 -0.01406 0)
(-0.0632963 -0.0162653 0)
(-0.0473717 -0.0165975 0)
(-0.0306316 -0.0154528 0)
(-0.0139205 -0.0137564 0)
(0.00221879 -0.0114174 0)
(0.0159793 -0.00805182 0)
(0.0251892 -0.00421599 0)
(0.0288846 -0.000912509 0)
(0.0276086 0.00134712 0)
(0.0227823 0.00249761 0)
(0.0162122 0.00261788 0)
(0.00985377 0.00216332 0)
(0.00418438 0.00196486 0)
(-0.00131499 0.0409972 0)
(-0.00699837 0.0408982 0)
(-0.0133062 0.0406637 0)
(-0.0202599 0.0402204 0)
(-0.0279016 0.039519 0)
(-0.0362244 0.0384879 0)
(-0.0452137 0.0370093 0)
(-0.054772 0.0349337 0)
(-0.0646923 0.0320706 0)
(-0.0746001 0.0281946 0)
(-0.0838844 0.0230819 0)
(-0.0916398 0.0166379 0)
(-0.0967627 0.00907411 0)
(-0.0981874 0.00109682 0)
(-0.0955102 -0.00636516 0)
(-0.0886157 -0.012563 0)
(-0.0777856 -0.0171891 0)
(-0.0636138 -0.0197733 0)
(-0.0472514 -0.0200728 0)
(-0.0303216 -0.01859 0)
(-0.0135619 -0.0165487 0)
(0.002692 -0.0137533 0)
(0.0165415 -0.00966851 0)
(0.0256899 -0.00501267 0)
(0.0292304 -0.00102719 0)
(0.0277956 0.001681 0)
(0.0228461 0.00304542 0)
(0.0161854 0.00316807 0)
(0.00981229 0.00260428 0)
(0.00417371 0.00236635 0)
(-0.00133499 0.0483252 0)
(-0.00710482 0.0481892 0)
(-0.0135709 0.047944 0)
(-0.0208063 0.0474318 0)
(-0.0286986 0.0466335 0)
(-0.0372848 0.0454634 0)
(-0.0465748 0.0437697 0)
(-0.0564938 0.0413589 0)
(-0.0668236 0.0379995 0)
(-0.0771822 0.0334093 0)
(-0.0869063 0.0272938 0)
(-0.0949717 0.0195281 0)
(-0.100125 0.010386 0)
(-0.101155 0.000818052 0)
(-0.0978941 -0.00795575 0)
(-0.090292 -0.0151063 0)
(-0.0787753 -0.0204637 0)
(-0.0639663 -0.023408 0)
(-0.0470803 -0.0236253 0)
(-0.0299408 -0.0217374 0)
(-0.0131422 -0.0193544 0)
(0.00325419 -0.0161097 0)
(0.0172145 -0.0112881 0)
(0.0262866 -0.00579228 0)
(0.0296397 -0.00112137 0)
(0.0280152 0.00203089 0)
(0.0229198 0.00360407 0)
(0.0161514 0.00372309 0)
(0.00976218 0.0030441 0)
(0.00416126 0.0027691 0)
(-0.00139213 0.0558886 0)
(-0.00730605 0.0557196 0)
(-0.0138904 0.0553777 0)
(-0.0214794 0.054803 0)
(-0.0296007 0.053975 0)
(-0.0384889 0.0526864 0)
(-0.0481244 0.0507941 0)
(-0.0584847 0.0480561 0)
(-0.069304 0.0442045 0)
(-0.0802214 0.0388966 0)
(-0.0905023 0.0317228 0)
(-0.0989602 0.0225171 0)
(-0.104155 0.0116273 0)
(-0.104638 0.000309429 0)
(-0.10067 -0.00976896 0)
(-0.0921975 -0.0178042 0)
(-0.0798844 -0.0239041 0)
(-0.0643437 -0.0271916 0)
(-0.0468425 -0.0272679 0)
(-0.0294824 -0.0248904 0)
(-0.0126653 -0.0221747 0)
(0.00390669 -0.0184909 0)
(0.0180015 -0.0129113 0)
(0.026981 -0.006551 0)
(0.0301124 -0.00119165 0)
(0.0282667 0.00239957 0)
(0.0230034 0.00417543 0)
(0.0161093 0.0042838 0)
(0.00970323 0.00348253 0)
(0.00414701 0.00317329 0)
(-0.00153336 0.0634306 0)
(-0.00792626 0.0633747 0)