/*--------------------------------*- C++ -*----------------------------------*\
| =========                 |                                                 |
| \\      /  F ield         | OpenFOAM: The Open Source CFD Toolbox           |
|  \\    /   O peration     | Version:  2.4.0                                 |
|   \\  /    A nd           | Web:      www.OpenFOAM.org                      |
|    \\/     M anipulation  |                                                 |
\*---------------------------------------------------------------------------*/
FoamFile
{
    version     2.0;
    format      ascii;
    class       volScalarField;
    location    "0.421";
    object      alpha.water;
}
// * * * * * * * * * * * * * * * * * * * * * * * * * * * * * * * * * * * * * //

dimensions      [0 0 0 0 0 0 0];

internalField   nonuniform List<scalar> 
10000
(
5.22205e-48
3.84848e-44
5.45373e-41
2.44259e-38
4.68485e-36
4.28483e-34
1.96132e-32
4.79642e-31
6.69785e-30
5.73579e-29
3.27932e-28
1.53499e-27
6.45459e-27
2.51918e-26
9.96095e-26
3.95113e-25
1.61516e-24
6.6797e-24
2.61582e-23
9.38363e-23
3.04847e-22
8.9983e-22
2.42171e-21
5.92365e-21
1.30736e-20
2.57043e-20
4.4887e-20
7.21676e-20
1.04168e-19
1.26343e-19
1.19232e-19
8.92167e-20
5.28864e-20
2.59655e-20
1.1099e-20
4.36797e-21
1.66004e-21
6.14205e-22
2.18418e-22
7.42891e-23
2.42428e-23
7.14583e-24
1.85149e-24
4.4878e-25
1.14876e-25
2.61128e-26
5.60437e-27
2.79421e-27
5.46904e-27
1.29454e-26
3.1579e-43
8.98906e-40
5.43632e-37
1.25697e-34
1.38731e-32
8.10059e-31
2.64473e-29
5.06556e-28
5.99518e-27
4.64066e-26
2.60301e-25
1.24243e-24
4.92484e-24
1.78784e-23
6.42265e-23
2.31123e-22
8.56204e-22
3.20289e-21
1.1449e-20
3.75654e-20
1.11606e-19
3.02263e-19
7.52473e-19
1.72051e-18
3.58511e-18
6.73123e-18
1.12135e-17
1.73031e-17
2.44722e-17
3.06678e-17
3.16103e-17
2.71689e-17
1.9398e-17
1.16434e-17
6.06191e-18
2.83546e-18
1.22908e-18
5.02471e-19
1.95343e-19
7.25663e-20
2.53478e-20
8.07539e-21
2.30051e-21
6.21723e-22
1.64752e-22
3.9272e-23
8.91412e-24
4.35286e-24
8.69399e-24
2.25457e-23
4.75389e-40
8.47306e-37
3.61981e-34
6.25834e-32
5.36174e-30
2.51598e-28
6.87146e-27
1.14841e-25
1.23542e-24
9.11936e-24
5.19036e-23
2.3939e-22
8.94296e-22
3.02869e-21
9.96175e-21
3.27724e-20
1.11111e-19
3.80365e-19
1.25524e-18
3.80624e-18
1.04481e-17
2.61984e-17
6.07371e-17
1.30452e-16
2.57949e-16
4.6457e-16
7.52615e-16
1.11191e-15
1.5503e-15
1.98139e-15
2.17432e-15
2.03952e-15
1.64552e-15
1.13955e-15
6.86112e-16
3.68151e-16
1.80538e-16
8.21827e-17
3.51545e-17
1.42373e-17
5.37987e-18
1.8589e-18
5.82452e-19
1.73515e-19
4.89529e-20
1.24824e-20
3.04425e-21
1.49978e-21
3.08296e-21
8.69242e-21
1.21503e-37
1.74977e-34
6.2307e-32
9.16912e-30
6.80089e-28
2.8094e-26
6.88723e-25
1.05893e-23
1.08169e-22
7.87919e-22
4.46287e-21
1.97777e-20
7.0406e-20
2.23777e-19
6.79214e-19
2.05342e-18
6.38178e-18
2.00333e-17
6.10935e-17
1.72308e-16
4.40607e-16
1.02925e-15
2.23171e-15
4.52086e-15
8.51478e-15
1.4756e-14
2.32715e-14
3.32192e-14
4.55575e-14
5.84898e-14
6.70037e-14
6.69242e-14
5.87938e-14
4.51799e-14
3.05394e-14
1.84055e-14
1.00441e-14
5.03818e-15
2.36283e-15
1.04018e-15
4.25177e-16
1.59254e-16
5.4727e-17
1.77778e-17
5.38502e-18
1.47955e-18
3.89332e-19
1.92071e-19
3.97384e-19
1.19198e-18
1.03545e-35
1.35555e-32
4.41394e-30
5.96428e-28
4.07478e-26
1.55705e-24
3.56279e-23
5.19551e-22
5.15278e-21
3.7365e-20
2.09307e-19
8.97879e-19
3.0816e-18
9.2508e-18
2.61073e-17
7.24034e-17
2.05241e-16
5.90212e-16
1.66977e-15
4.40281e-15
1.0535e-14
2.3054e-14
4.69872e-14
9.00721e-14
1.62007e-13
2.70717e-13
4.15886e-13
5.80812e-13
7.75345e-13
9.88744e-13
1.16533e-12
1.22034e-12
1.14236e-12
9.50348e-13
7.02641e-13
4.65336e-13
2.794e-13
1.54071e-13
7.89177e-14
3.77025e-14
1.66687e-14
6.75408e-15
2.52903e-15
8.89457e-16
2.89932e-16
8.61228e-17
2.43646e-17
1.15692e-17
2.26294e-17
6.96478e-17
4.09704e-34
5.22377e-31
1.64922e-28
2.14897e-26
1.40701e-24
5.1291e-23
1.12183e-21
1.58133e-20
1.54498e-19
1.11782e-18
6.13953e-18
2.56817e-17
8.55992e-17
2.43999e-16
6.4126e-16
1.63099e-15
4.21653e-15
1.11117e-14
2.91756e-14
7.19875e-14
1.61914e-13
3.33538e-13
6.41698e-13
1.16779e-12
2.00997e-12
3.24295e-12
4.85403e-12
6.68264e-12
8.64975e-12
1.08537e-11
1.2983e-11
1.40931e-11
1.38574e-11
1.22787e-11
9.76699e-12
6.99844e-12
4.5578e-12
2.72771e-12
1.51581e-12
7.84767e-13
3.76675e-13
1.66723e-13
6.83895e-14
2.61435e-14
9.22259e-15
2.98049e-15
9.09557e-16
3.99202e-16
6.60056e-16
1.97392e-15
9.09373e-33
1.18593e-29
3.7918e-27
4.9408e-25
3.18725e-23
1.13045e-21
2.39687e-20
3.2999e-19
3.19514e-18
2.30811e-17
1.23453e-16
5.04821e-16
1.63111e-15
4.42315e-15
1.08846e-14
2.55266e-14
6.02916e-14
1.45294e-13
3.53022e-13
8.1657e-13
1.73195e-12
3.37031e-12
6.13998e-12
1.06343e-11
1.75474e-11
2.73679e-11
3.99259e-11
5.40631e-11
6.82542e-11
8.38029e-11
1.00455e-10
1.11773e-10
1.14295e-10
1.06679e-10
9.02428e-11
6.91681e-11
4.83382e-11
3.10964e-11
1.85916e-11
1.03679e-11
5.37749e-12
2.58627e-12
1.15818e-12
4.82744e-13
1.857e-13
6.54468e-14
2.15476e-14
8.68744e-15
1.08543e-14
2.9938e-14
1.27724e-31
1.77611e-28
5.97234e-26
8.02345e-24
5.20717e-22
1.82156e-20
3.7863e-19
5.14951e-18
4.94591e-17
3.4951e-16
1.81142e-15
7.17219e-15
2.2386e-14
5.81533e-14
1.34883e-13
2.93833e-13
6.34881e-13
1.39726e-12
3.13498e-12
6.7941e-12
1.36106e-11
2.50864e-11
4.33858e-11
7.16441e-11
1.1347e-10
1.71219e-10
2.43626e-10
3.2432e-10
4.02102e-10
4.82922e-10
5.72184e-10
6.45793e-10
6.80844e-10
6.63754e-10
5.9204e-10
4.81167e-10
3.5765e-10
2.45225e-10
1.56568e-10
9.35178e-11
5.22064e-11
2.72057e-11
1.3255e-11
6.01384e-12
2.52132e-12
9.71352e-13
3.47187e-13
1.33624e-13
1.16432e-13
2.72667e-13
1.22282e-30
1.8955e-27
6.9856e-25
9.99321e-23
6.65812e-21
2.32964e-19
4.77323e-18
6.3905e-17
6.03091e-16
4.04142e-15
1.99804e-14
7.63279e-14
2.30556e-13
5.76376e-13
1.26875e-12
2.58177e-12
5.13168e-12
1.03132e-11
2.12904e-11
4.31697e-11
8.17721e-11
1.43063e-10
2.35326e-10
3.70877e-10
5.63868e-10
8.23169e-10
1.14289e-09
1.49702e-09
1.84115e-09
2.16663e-09
2.51488e-09
2.85269e-09
3.07744e-09
3.11251e-09
2.90794e-09
2.48837e-09
1.95183e-09
1.41474e-09
9.57588e-10
6.09212e-10
3.6465e-10
2.0535e-10
1.08639e-10
5.36561e-11
2.45469e-11
1.03454e-11
4.02962e-12
1.55641e-12
9.54384e-13
1.6628e-12
8.30256e-30
1.53036e-26
6.59493e-24
1.05484e-21
7.3606e-20
2.55691e-18
5.10125e-17
6.54943e-16
5.79055e-15
3.64669e-14
1.7168e-13
6.29595e-13
1.8435e-12
4.43326e-12
9.28651e-12
1.77734e-11
3.27326e-11
6.02609e-11
1.14241e-10
2.16376e-10
3.87696e-10
6.44761e-10
1.00993e-09
1.51933e-09
2.21514e-09
3.12328e-09
4.2266e-09
5.45055e-09
6.66476e-09
7.76709e-09
8.88159e-09
1.008e-08
1.10785e-08
1.15797e-08
1.12859e-08
1.01107e-08
8.30054e-09
6.29777e-09
4.47735e-09
3.01228e-09
1.92435e-09
1.16722e-09
6.68971e-10
3.59285e-10
1.79353e-10
8.27418e-11
3.5256e-11
1.42838e-11
6.93858e-12
7.77977e-12
4.29231e-29
1.0697e-25
6.02694e-23
1.08863e-20
7.44704e-19
2.4237e-17
4.53478e-16
5.48306e-15
4.48588e-14
2.65235e-13
1.18931e-12
4.16015e-12
1.16504e-11
2.69125e-11
5.39187e-11
9.78385e-11
1.68491e-10
2.85819e-10
4.97467e-10
8.78647e-10
1.48873e-09
2.35513e-09
3.51461e-09
5.0446e-09
7.03824e-09
9.55001e-09
1.25502e-08
1.5904e-08
1.93534e-08
2.26671e-08
2.59642e-08
2.96473e-08
3.33271e-08
3.61329e-08
3.6832e-08
3.44888e-08
2.93927e-08
2.30424e-08
1.69735e-08
1.19411e-08
8.07535e-09
5.23938e-09
3.23395e-09
1.87952e-09
1.01972e-09
5.13421e-10
2.39258e-10
1.04247e-10
4.6651e-11
3.3185e-11
2.48457e-28
8.69408e-25
5.9823e-22
1.03674e-19
6.48044e-18
1.95251e-16
3.42499e-15
3.82606e-14
2.90735e-13
1.60056e-12
6.72342e-12
2.22035e-11
5.92381e-11
1.31455e-10
2.52772e-10
4.3771e-10
7.11464e-10
1.12111e-09
1.79584e-09
2.95544e-09
4.73193e-09
7.12093e-09
1.01234e-08
1.38511e-08
1.84423e-08
2.39603e-08
3.03876e-08
3.76447e-08
4.54134e-08
5.40093e-08
6.36524e-08
7.43282e-08
8.71331e-08
1.00086e-07
1.01269e-07
1.0413e-07
9.43923e-08
7.47916e-08
5.61581e-08
4.06156e-08
2.86249e-08
1.95774e-08
1.28364e-08
7.97386e-09
4.65207e-09
2.53377e-09
1.2835e-09
6.05882e-10
2.75622e-10
1.47492e-10
1.5808e-27
7.47348e-24
5.50096e-21
8.70477e-19
4.91206e-17
1.3751e-15
2.22348e-14
2.25318e-13
1.56509e-12
8.00188e-12
3.13926e-11
9.7297e-11
2.46587e-10
5.24961e-10
9.70729e-10
1.61244e-09
2.49499e-09
3.68718e-09
5.46811e-09
8.39199e-09
1.26846e-08
1.81463e-08
2.45627e-08
3.2009e-08
4.05593e-08
5.01833e-08
6.09793e-08
7.33279e-08
8.6939e-08
1.04956e-07
1.30707e-07
1.62376e-07
1.69907e-07
1.81035e-07
3.24791e-07
3.63996e-07
3.28564e-07
2.5094e-07
1.82888e-07
1.30384e-07
9.22999e-08
6.4342e-08
4.34972e-08
2.81738e-08
1.73339e-08
1.00632e-08
5.48354e-09
2.79773e-09
1.34946e-09
6.61399e-10
9.26294e-27
7.13489e-23
4.84455e-20
6.60968e-18
3.32277e-16
8.36884e-15
1.20178e-13
1.10224e-12
7.03495e-12
3.34358e-11
1.21826e-10
3.54504e-10
8.51968e-10
1.73718e-09
3.09219e-09
4.94657e-09
7.34046e-09
1.02796e-08
1.42571e-08
2.04759e-08
2.9182e-08
3.96351e-08
5.10602e-08
6.3362e-08
7.62434e-08
8.94618e-08
1.03584e-07
1.20031e-07
1.37884e-07
1.67888e-07
2.216e-07
2.03504e-07
2.62005e-07
6.27522e-07
5.26565e-07
7.75862e-07
7.45874e-07
4.97166e-07
4.09097e-07
3.25914e-07
2.45726e-07
1.7645e-07
1.21633e-07
8.07705e-08
5.159e-08
3.15365e-08
1.83303e-08
1.00727e-08
5.22868e-09
2.62e-09
7.74897e-26
7.29284e-22
3.87052e-19
4.32856e-17
1.90762e-15
4.20817e-14
5.39417e-13
4.49175e-12
2.65686e-11
1.16379e-10
3.95393e-10
1.08226e-09
2.46698e-09
4.81452e-09
8.25728e-09
1.27655e-08
1.82877e-08
2.45484e-08
3.23139e-08
4.37446e-08
5.87487e-08
7.56814e-08
9.29356e-08
1.10046e-07
1.25732e-07
1.39687e-07
1.54016e-07
1.71194e-07
1.868e-07
2.18491e-07
2.8906e-07
3.70013e-07
4.51515e-07
4.97123e-07
1.08991e-06
5.48953e-06
4.89247e-06
1.49854e-06
8.20376e-07
5.84529e-07
4.44812e-07
3.32387e-07
2.39887e-07
1.67333e-07
1.12951e-07
7.35833e-08
4.59981e-08
2.74052e-08
1.54797e-08
8.31366e-09
9.96268e-25
6.65029e-21
2.58826e-18
2.39394e-16
9.08274e-15
1.75161e-13
2.0111e-12
1.53494e-11
8.33314e-11
3.38421e-10
1.07606e-09
2.77908e-09
6.0214e-09
1.12594e-08
1.86413e-08
2.79601e-08
3.89331e-08
5.0782e-08
6.4642e-08
8.34647e-08
1.05989e-07
1.29875e-07
1.53119e-07
1.7429e-07
1.90446e-07
2.0042e-07
2.11622e-07
2.26618e-07
2.35028e-07
2.37233e-07
2.37495e-07
5.33127e-07
4.51126e-07
8.39352e-07
1.08119e-05
1.62188e-05
1.62191e-05
1.43007e-05
1.70648e-06
7.7917e-07
5.15923e-07
4.05072e-07
3.19978e-07
2.44921e-07
1.80864e-07
1.28677e-07
8.79062e-08
5.73798e-08
3.55789e-08
2.08746e-08
1.24002e-23
4.94354e-20
1.42849e-17
1.10371e-15
3.56032e-14
6.03957e-13
6.24575e-12
4.36267e-11
2.1794e-10
8.23981e-10
2.46095e-09
6.01743e-09
1.24321e-08
2.23325e-08
3.58051e-08
5.2355e-08
7.14265e-08
9.19931e-08
1.15527e-07
1.44507e-07
1.75604e-07
2.06996e-07
2.37413e-07
2.62785e-07
2.80894e-07
2.78498e-07
2.83722e-07
2.96341e-07
3.03907e-07
3.06191e-07
3.15311e-07
3.4063e-07
3.76399e-07
3.85427e-07
6.94539e-06
1.62152e-05
1.62216e-05
8.89347e-06
6.68679e-07
6.37605e-07
5.49617e-07
4.58314e-07
3.77378e-07
3.06374e-07
2.43238e-07
1.87442e-07
1.39378e-07
9.94604e-08
6.76539e-08
4.35167e-08
1.2506e-22
2.97664e-19
6.52578e-17
4.16562e-15
1.15213e-13
1.72967e-12
1.62241e-11
1.03334e-10
4.77648e-10
1.6877e-09
4.75098e-09
1.10339e-08
2.18076e-08
3.77575e-08
5.88542e-08
8.43239e-08
1.1372e-07
1.47008e-07
1.85317e-07
2.28304e-07
2.70734e-07
3.1248e-07
3.51136e-07
3.78485e-07
4.08353e-07
3.6789e-07
3.42472e-07
3.77868e-07
3.79388e-07
3.65835e-07
3.52223e-07
3.69561e-07
4.58318e-07
5.61712e-07
1.20444e-06
4.63671e-06
4.84012e-06
2.0389e-06
1.20439e-06
8.47673e-07
6.38034e-07
5.08715e-07
4.20482e-07
3.52366e-07
2.94428e-07
2.42257e-07
1.94435e-07
1.50999e-07
1.12355e-07
7.90787e-08
9.8698e-22
1.44545e-18
2.44644e-16
1.29002e-14
3.08752e-13
4.13422e-12
3.51591e-11
2.05758e-10
8.8434e-10
2.93253e-09
7.80962e-09
1.72836e-08
3.27828e-08
5.48879e-08
8.35078e-08
1.17672e-07
1.58143e-07
2.07763e-07
2.65765e-07
3.26586e-07
3.84033e-07
4.40604e-07
4.78943e-07
4.94108e-07
5.57858e-07
3.70711e-07
1.46666e-06
4.91765e-07
4.45207e-07
4.11644e-07
3.8306e-07
3.65072e-07
3.73507e-07
4.36816e-07
5.35086e-07
6.36344e-07
6.38328e-07
5.49056e-07
5.26158e-07
5.06243e-07
4.79352e-07
4.45166e-07
4.07757e-07
3.70502e-07
3.33878e-07
2.96654e-07
2.57846e-07
2.17623e-07
1.76246e-07
1.34488e-07
5.99184e-21
5.63678e-18
7.45404e-16
3.29064e-14
6.89052e-13
8.28989e-12
6.42587e-11
3.47955e-10
1.39867e-09
4.37549e-09
1.10748e-08
2.34547e-08
4.28627e-08
6.96549e-08
1.03821e-07
1.44038e-07
1.93954e-07
2.60117e-07
3.37564e-07
4.13853e-07
4.81575e-07
5.53409e-07
5.71759e-07
5.49018e-07
7.04712e-07
7.4011e-07
6.16871e-07
5.52601e-07
5.08167e-07
4.70111e-07
4.34404e-07
4.03971e-07
3.83795e-07
3.78427e-07
3.78098e-07
4.74989e-07
4.89891e-07
4.73925e-07
4.62543e-07
4.56322e-07
4.51124e-07
4.41273e-07
4.11482e-07
4.02348e-07
3.93492e-07
3.76883e-07
3.51393e-07
3.18227e-07
2.7753e-07
2.26833e-07
2.77104e-20
1.75715e-17
1.84926e-15
6.95251e-14
1.28866e-12
1.40427e-11
1.00183e-10
5.05878e-10
1.91523e-09
5.68938e-09
1.37721e-08
2.80798e-08
4.97225e-08
7.88284e-08
1.15568e-07
1.5776e-07
2.13438e-07
2.90166e-07
3.76367e-07
4.51863e-07
5.04633e-07
5.94113e-07
5.72701e-07
1.17596e-06
9.96693e-07
8.19876e-07
1.01549e-06
8.00455e-07
6.36184e-07
5.54127e-07
5.03957e-07
4.64319e-07
4.33052e-07
4.1413e-07
4.10283e-07
4.16279e-07
4.30886e-07
4.50899e-07
4.70938e-07
4.87683e-07
5.00644e-07
4.42535e-07
1.09745e-06
4.22245e-07
4.2518e-07
4.17371e-07
3.99185e-07
3.87697e-07
3.90904e-07
3.49972e-07
9.6825e-20
4.36618e-17
3.75932e-15
1.22622e-13
2.03879e-12
2.03317e-11
1.34871e-10
6.40686e-10
2.30333e-09
6.54907e-09
1.52821e-08
3.02366e-08
5.22862e-08
8.14306e-08
1.17977e-07
1.58584e-07
2.15367e-07
2.90287e-07
3.6644e-07
4.21651e-07
4.24705e-07
1.69371e-06
7.05989e-07
7.58665e-07
3.27309e-06
6.27554e-06
6.68147e-06
1.43979e-06
8.49628e-07
6.41896e-07
5.48057e-07
4.95971e-07
4.61821e-07
4.42654e-07
4.43938e-07
4.64816e-07
4.96391e-07
5.29071e-07
5.56824e-07
5.76711e-07
5.87708e-07
5.88719e-07
5.76495e-07
5.64353e-07
5.63607e-07
6.10463e-07
7.22625e-07
7.95861e-07
1.14209e-06
1.22944e-06
2.57809e-19
8.70974e-17
6.31594e-15
1.82194e-13
2.75592e-12
2.54623e-11
1.58704e-10
7.16001e-10
2.46658e-09
6.77345e-09
1.53769e-08
2.98016e-08
5.07915e-08
7.83442e-08
1.12749e-07
1.49835e-07
2.01615e-07
2.59989e-07
3.08054e-07
3.38003e-07
7.48809e-07
3.10389e-07
3.00938e-07
3.50659e-06
2.9519e-05
3.37253e-05
3.37219e-05
1.41763e-05
6.54681e-07
6.35648e-07
5.44815e-07
4.81312e-07
4.54365e-07
4.4076e-07
4.42337e-07
4.61418e-07
4.92727e-07
5.28833e-07
5.65409e-07
6.00491e-07
6.29851e-07
6.43073e-07
6.3519e-07
6.10064e-07
5.80065e-07
5.61635e-07
5.60653e-07
5.60715e-07
1.10834e-05
1.50612e-05
5.47484e-19
1.43784e-16
8.90548e-15
2.30597e-13
3.21706e-12
2.78838e-11
1.65059e-10
7.14247e-10
2.38036e-09
6.37376e-09
1.4214e-08
2.72481e-08
4.62048e-08
7.11771e-08
1.02312e-07
1.34665e-07
1.73868e-07
2.07507e-07
2.19943e-07
8.70914e-07
3.32717e-07
3.2224e-07
2.98463e-07
1.6435e-05
3.37149e-05
3.37151e-05
3.37263e-05
3.05797e-05
2.90301e-06
1.00177e-06
1.41581e-06
4.29908e-07
4.23127e-07
4.20359e-07
4.22584e-07
4.3392e-07
4.53946e-07
4.80406e-07
5.14932e-07
5.62057e-07
6.26014e-07
6.77365e-07
6.97377e-07
6.6964e-07
6.19537e-07
5.75509e-07
5.59262e-07
8.35147e-06
1.5062e-05
1.50602e-05
9.10664e-19
1.9849e-16
1.07643e-14
2.53494e-13
3.29231e-12
2.69917e-11
1.53128e-10
6.41945e-10
2.08966e-09
5.50772e-09
1.21791e-08
2.33049e-08
3.96588e-08
6.14897e-08
8.88293e-08
1.14341e-07
1.38079e-07
1.59593e-07
3.52641e-07
2.1781e-07
3.7975e-07
3.15548e-07
2.98379e-07
1.7207e-05
3.37129e-05
3.37108e-05
3.3714e-05
2.9862e-05
2.84522e-06
9.42479e-07
4.57397e-07
4.01323e-07
3.9685e-07
4.02234e-07
4.07121e-07
4.12384e-07
4.18107e-07
4.2505e-07
4.37194e-07
4.47024e-07
4.47219e-07
1.07583e-06
7.43263e-07
7.04095e-07
6.53956e-07
6.00842e-07
5.67931e-07
5.68445e-07
1.31053e-05
1.50584e-05
1.21083e-18
2.28558e-16
1.11108e-14
2.4324e-13
2.97711e-12
2.33532e-11
1.28118e-10
5.23828e-10
1.67875e-09
4.39372e-09
9.71641e-09
1.87042e-08
3.21702e-08
5.0531e-08
7.38583e-08
9.00207e-08
1.09456e-07
2.06354e-07
1.4415e-07
2.15085e-07
2.29793e-07
3.01437e-07
2.98335e-07
1.13728e-06
2.61693e-05
3.37105e-05
3.37199e-05
9.86024e-06
3.25845e-07
3.07746e-07
6.03775e-07
3.36182e-07
3.52915e-07
3.6943e-07
3.79997e-07
3.94782e-07
4.10029e-07
4.23826e-07
4.37055e-07
4.49147e-07
4.58199e-07
4.59411e-07
4.83277e-07
5.04968e-07
5.2207e-07
5.58379e-07
6.74747e-07
1.02432e-06
2.21091e-06
3.03235e-06
1.32401e-18
2.22752e-16
9.93583e-15
2.03505e-13
2.38573e-12
1.80747e-11
9.68164e-11
3.89911e-10
1.24023e-09
3.24408e-09
7.21877e-09
1.40638e-08
2.45767e-08
3.92994e-08
5.84299e-08
6.80076e-08
1.22383e-07
9.35063e-08
1.41646e-07
1.45801e-07
3.16219e-07
2.88828e-07
2.89287e-07
3.00632e-07
9.76045e-07
6.72346e-07
2.02863e-06
4.10041e-07
4.83217e-07
2.96596e-07
2.8617e-07
3.15337e-07
3.1804e-07
8.85386e-07
3.26807e-07
3.56434e-07
3.79893e-07
3.96545e-07
4.12857e-07
4.2969e-07
4.49846e-07
4.65144e-07
4.76785e-07
4.85969e-07
4.96424e-07
4.9749e-07
4.98834e-07
5.44406e-07
7.74116e-07
9.02186e-07
1.17555e-18
1.85203e-16
7.74154e-15
1.4931e-13
1.69096e-12
1.25224e-11
6.60169e-11
2.641e-10
8.40315e-10
2.21275e-09
4.98296e-09
9.86476e-09
1.75669e-08
2.86661e-08
4.34782e-08
6.19275e-08
6.26716e-08
9.08681e-08
1.04947e-07
1.16253e-07
5.51756e-07
2.54464e-07
2.55698e-07
3.08082e-07
3.1446e-07
3.13094e-07
3.46311e-07
3.08878e-07
3.06547e-07
3.04588e-07
2.82582e-07
8.84926e-07
3.72101e-07
2.76001e-07
3.04357e-07
3.29828e-07
3.44487e-07
3.4534e-07
9.44038e-07
3.59873e-07
4.04776e-07
4.40003e-07
4.77864e-07
5.38786e-07
6.74682e-07
5.27052e-07
5.15056e-07
5.81884e-07
5.48706e-07
5.29027e-07
8.52639e-19
1.29287e-16
5.21874e-15
9.68982e-14
1.05812e-12
7.73468e-12
4.05246e-11
1.62261e-10
5.20077e-10
1.38647e-09
3.17352e-09
6.4027e-09
1.16375e-08
1.93964e-08
3.00556e-08
4.37552e-08
5.90907e-08
6.62746e-08
7.17773e-08
1.20289e-07
1.07471e-07
1.68538e-07
1.89436e-07
3.37359e-07
3.24426e-07
3.25442e-07
4.41023e-07
2.37943e-07
3.21004e-07
2.86828e-07
2.8146e-07
2.33713e-07
5.81883e-07
2.66625e-07
2.87995e-07
3.05026e-07
2.96219e-07
3.60375e-07
3.03779e-07
3.34689e-07
3.6448e-07
3.87105e-07
4.13092e-07
5.4185e-07
1.65468e-06
5.50395e-06
6.88124e-06
2.79856e-06
1.05541e-06
6.43043e-07
5.05628e-19
7.55135e-17
3.00058e-15
5.48405e-14
5.85132e-13
4.24162e-12
2.22987e-11
9.00327e-11
2.92467e-10
7.92901e-10
1.84993e-09
3.80885e-09
7.0683e-09
1.20311e-08
1.90457e-08
2.83456e-08
3.86922e-08
4.4849e-08
5.46372e-08
4.28925e-08
1.05152e-07
1.11951e-07
1.31269e-07
2.95426e-07
2.38152e-07
5.58559e-07
1.66543e-07
1.70216e-07
3.9949e-07
2.37738e-07
2.23555e-07
2.31355e-07
2.1716e-07
2.43786e-07
2.63484e-07
2.79411e-07
2.92737e-07
2.82832e-07
2.99584e-07
3.09135e-07
3.11049e-07
3.04624e-07
2.92744e-07
2.92507e-07
2.21611e-05
6.90609e-05
6.90548e-05
5.20287e-05
3.00981e-06
5.70505e-07
2.43968e-19
3.67684e-17
1.46439e-15
2.67496e-14
2.84855e-13
2.05548e-12
1.09433e-11
4.48886e-11
1.48557e-10
4.1101e-10
9.79238e-10
2.05873e-09
3.90032e-09
6.77775e-09
1.09588e-08
1.66726e-08
2.29712e-08
2.90154e-08
2.68213e-08
3.94654e-08
6.38182e-08
5.23445e-08
1.21653e-07
6.90054e-08
9.65437e-08
8.8492e-08
9.61596e-08
2.41816e-07
1.27724e-07
1.6631e-07
1.88021e-07
2.0198e-07
2.13782e-07
2.25747e-07
2.38462e-07
2.51835e-07
2.65506e-07
2.78865e-07
2.91544e-07
3.01223e-07
3.04648e-07
2.99484e-07
2.83377e-07
1.16194e-05
6.87768e-05
6.90531e-05
6.90418e-05
6.90404e-05
4.45123e-05
1.04657e-06
9.5849e-20
1.49014e-17
6.04265e-16
1.11865e-14
1.2039e-13
8.76912e-13
4.76737e-12
2.00216e-11
6.78709e-11
1.92404e-10
4.69476e-10
1.01029e-09
1.95836e-09
3.48134e-09
5.75837e-09
8.96328e-09
1.25233e-08
1.6054e-08
1.81955e-08
2.59501e-08
3.01363e-08
3.65021e-08
3.3671e-08
5.56222e-08
6.95409e-08
8.42634e-08
1.0471e-07
7.06844e-08
1.11026e-07
1.32252e-07
1.45128e-07
1.56421e-07
1.68481e-07
1.81991e-07
1.97063e-07
2.13514e-07
2.30885e-07
2.48547e-07
2.67457e-07
2.85232e-07
2.959e-07
2.96204e-07
2.83369e-07
2.83771e-07
5.65688e-05
6.90429e-05
6.90405e-05
6.9036e-05
2.10994e-05
5.88859e-07
3.06204e-20
5.00885e-18
2.10079e-16
3.995e-15
4.39734e-14
3.28298e-13
1.84127e-12
8.00581e-12
2.80998e-11
8.26438e-11
2.09474e-10
4.6849e-10
9.42782e-10
1.73521e-09
2.9605e-09
4.73296e-09
6.81912e-09
9.11537e-09
1.16431e-08
1.2873e-08
1.79071e-08
2.30294e-08
2.97566e-08
3.8212e-08
4.67323e-08
5.02311e-08
5.19678e-08
6.26523e-08
7.33268e-08
8.48965e-08
9.68323e-08
1.09165e-07
1.22317e-07
1.36743e-07
1.52798e-07
1.70572e-07
1.89513e-07
2.09066e-07
2.32934e-07
2.63067e-07
2.85738e-07
2.92527e-07
2.83013e-07
4.40363e-06
6.18948e-05
6.8988e-05
6.90363e-05
6.90405e-05
3.14692e-05
5.73218e-07
7.93622e-21
1.39024e-18
6.12651e-17
1.21452e-15
1.38749e-14
1.08123e-13
6.40864e-13
2.97112e-12
1.13108e-11
3.66427e-11
1.02756e-10
2.5265e-10
5.50637e-10
1.07736e-09
1.91825e-09
3.15362e-09
4.74611e-09
6.68393e-09
8.9761e-09
1.14003e-08
1.47653e-08
1.83747e-08
2.26225e-08
2.76569e-08
3.27064e-08
3.69369e-08
4.1076e-08
4.61698e-08
5.25948e-08
6.01715e-08
6.8634e-08
7.79296e-08
8.82756e-08
1.0004e-07
1.13647e-07
1.29339e-07
1.46024e-07
1.63204e-07
1.83237e-07
2.24763e-07
2.76791e-07
2.90266e-07
2.82978e-07
2.61336e-07
3.80515e-06
4.51719e-05
5.49728e-05
2.36846e-05
3.65991e-07
5.60774e-07
1.65699e-21
3.18155e-19
1.50016e-17
3.16449e-16
3.84546e-15
3.25424e-14
2.20584e-13
1.26128e-12
6.23351e-12
2.57367e-11
8.67806e-11
2.42063e-10
5.70198e-10
1.16355e-09
2.11042e-09
3.47884e-09
5.29406e-09
7.54308e-09
1.01679e-08
1.32099e-08
1.66659e-08
2.04054e-08
2.41161e-08
2.80312e-08
3.19707e-08
3.59318e-08
4.00539e-08
4.44452e-08
4.91514e-08
5.41453e-08
5.94138e-08
6.50106e-08
7.116e-08
7.83066e-08
8.70283e-08
9.78146e-08
1.09173e-07
1.21717e-07
1.24481e-07
1.13126e-07
2.89468e-07
2.86292e-07
2.71042e-07
2.60605e-07
2.3581e-07
2.35382e-07
2.35387e-07
2.35523e-07
3.53877e-07
4.44125e-07
2.72661e-22
5.96046e-20
3.10705e-18
7.25158e-17
9.95166e-16
1.08051e-14
1.18367e-13
1.12536e-12
7.737e-12
3.76971e-11
1.36329e-10
3.89166e-10
9.14641e-10
1.84136e-09
3.27702e-09
5.28674e-09
7.88947e-09
1.10545e-08
1.47254e-08
1.8818e-08
2.32259e-08
2.78392e-08
3.25321e-08
3.72075e-08
4.17914e-08
4.62097e-08
5.04018e-08
5.44026e-08
5.83597e-08
6.22526e-08
6.59638e-08
6.92286e-08
7.18758e-08
7.43546e-08
7.74935e-08
8.21691e-08
8.77048e-08
9.62957e-08
1.05339e-07
1.10221e-07
1.12086e-07
1.462e-07
1.79476e-07
2.06227e-07
2.27294e-07
2.43742e-07
2.62984e-07
2.88706e-07
3.11383e-07
3.36472e-07
3.61448e-23
9.40344e-21
5.68094e-19
1.59943e-17
3.20396e-16
8.10089e-15
1.74607e-13
2.12175e-12
1.53037e-11
7.35733e-11
2.57705e-10
7.08785e-10
1.60598e-09
3.12625e-09
5.397e-09
8.47187e-09
1.23362e-08
1.69222e-08
2.2118e-08
2.77773e-08
3.37333e-08
3.98222e-08
4.58943e-08
5.18125e-08
5.74579e-08
6.2709e-08
6.74821e-08
7.19113e-08
7.64563e-08
8.10784e-08
8.55351e-08
8.90263e-08
8.99334e-08
8.86251e-08
8.64612e-08
8.50003e-08
8.52831e-08
8.70313e-08
9.07548e-08
9.73708e-08
1.07484e-07
1.21264e-07
1.38342e-07
1.57931e-07
1.793e-07
2.01827e-07
2.29916e-07
2.67222e-07
3.12792e-07
3.62879e-07
4.00571e-24
1.31382e-21
1.04073e-19
5.099e-18
3.00648e-16
1.66452e-14
4.03133e-13
4.70847e-12
3.19526e-11
1.44983e-10
4.81035e-10
1.26039e-09
2.73627e-09
5.13175e-09
8.57753e-09
1.3091e-08
1.85993e-08
2.49691e-08
3.2021e-08
3.9543e-08
4.7305e-08
5.50904e-08
6.27062e-08
6.99806e-08
7.67731e-08
8.29371e-08
8.84126e-08
9.35814e-08
9.96775e-08
1.06759e-07
1.14762e-07
1.2312e-07
1.24989e-07
1.20915e-07
1.13486e-07
1.05879e-07
9.98564e-08
9.60219e-08
9.46232e-08
9.58557e-08
9.98747e-08
1.06691e-07
1.16092e-07
1.27517e-07
1.3988e-07
1.51477e-07
1.60888e-07
1.6692e-07
1.68525e-07
3.44966e-07
4.16054e-25
2.08792e-22
3.70515e-20
5.80855e-18
7.27778e-16
4.29084e-14
9.52781e-13
1.01804e-11
6.40965e-11
2.72838e-10
8.54376e-10
2.13006e-09
4.42555e-09
7.99101e-09
1.29286e-08
1.91845e-08
2.65999e-08
3.49566e-08
4.39965e-08
5.34374e-08
6.29886e-08
7.2387e-08
8.14041e-08
8.98366e-08
9.75265e-08
1.04301e-07
1.1016e-07
1.15857e-07
1.2402e-07
1.35031e-07
1.49598e-07
1.71723e-07
1.78562e-07
1.72536e-07
1.58984e-07
1.43846e-07
1.31139e-07
1.21345e-07
1.141e-07
1.09119e-07
1.06368e-07
1.06024e-07
1.08342e-07
1.13528e-07
1.21588e-07
1.3214e-07
1.44332e-07
1.5671e-07
1.67687e-07
1.77927e-07
9.01201e-26
1.15694e-22
5.22841e-20
1.33948e-17
2.03455e-15
1.07992e-13
2.14465e-12
2.08876e-11
1.2203e-10
4.8635e-10
1.43816e-09
3.41086e-09
6.77939e-09
1.1784e-08
1.84568e-08
2.66384e-08
3.60629e-08
4.64187e-08
5.73692e-08
6.85697e-08
7.96806e-08
9.04047e-08
1.00485e-07
1.09681e-07
1.17812e-07
1.24674e-07
1.30341e-07
1.35907e-07
1.4569e-07
1.61056e-07
1.84067e-07
2.27798e-07
2.51459e-07
2.44547e-07
2.25853e-07
1.99712e-07
1.77832e-07
1.61332e-07
1.48806e-07
1.39009e-07
1.31199e-07
1.25162e-07
1.21089e-07
1.19416e-07
1.20653e-07
1.25259e-07
1.3353e-07
1.45564e-07
1.6148e-07
1.81811e-07
1.20362e-25
2.17214e-22
1.21467e-19
3.51337e-17
5.50763e-15
2.57433e-13
4.56375e-12
4.06091e-11
2.2008e-10
8.21704e-10
2.29544e-09
5.17866e-09
9.8451e-09
1.64751e-08
2.49912e-08
3.51058e-08
4.64432e-08
5.86067e-08
7.11967e-08
8.38263e-08
9.61299e-08
1.07793e-07
1.18537e-07
1.28067e-07
1.36178e-07
1.42634e-07
1.47555e-07
1.51924e-07
1.60647e-07
1.78441e-07
2.09429e-07
2.23277e-07
2.50402e-07
2.55003e-07
2.92226e-07
2.80302e-07
2.40556e-07
2.13782e-07
1.94749e-07
1.80459e-07
1.68901e-07
1.58935e-07
1.502e-07
1.4289e-07
1.37525e-07
1.34762e-07
1.35196e-07
1.39256e-07
1.47382e-07
1.60385e-07
2.5604e-25
4.89853e-22
3.03487e-19
9.67133e-17
1.41626e-14
5.79535e-13
9.18783e-12
7.48926e-11
3.76287e-10
1.31738e-09
3.47751e-09
7.4633e-09
1.35714e-08
2.1872e-08
3.2153e-08
4.39995e-08
5.69464e-08
7.05387e-08
8.43433e-08
9.79626e-08
1.11035e-07
1.23248e-07
1.34314e-07
1.43838e-07
1.51633e-07
1.57469e-07
1.61359e-07
1.62689e-07
1.64703e-07
1.81157e-07
1.91706e-07
2.94204e-06
1.23263e-05
1.20242e-05
1.39451e-06
3.92912e-07
3.24417e-07
2.7627e-07
2.47138e-07
2.27429e-07
2.12808e-07
2.00564e-07
1.893e-07
1.78592e-07
1.68652e-07
1.60052e-07
1.53515e-07
1.49754e-07
1.49567e-07
1.54151e-07
5.73312e-25
1.11853e-21
7.46936e-19
2.6358e-16
3.44811e-14
1.23251e-12
1.75356e-11
1.30972e-10
6.10872e-10
2.00604e-09
5.00513e-09
1.02208e-08
1.77836e-08
2.76189e-08
3.93814e-08
5.25561e-08
6.6631e-08
8.11333e-08
9.56335e-08
1.09759e-07
1.23185e-07
1.35624e-07
1.46787e-07
1.56088e-07
1.63508e-07
1.68999e-07
1.71946e-07
1.66507e-07
1.95995e-07
1.76294e-07
2.42964e-06
3.24954e-05
4.15526e-05
4.15553e-05
2.4411e-05
9.58758e-07
3.90195e-07
3.40833e-07
2.97924e-07
2.71896e-07
2.54893e-07
2.42018e-07
2.30447e-07
2.18865e-07
2.07013e-07
1.95184e-07
1.84008e-07
1.74274e-07
1.6698e-07
1.63593e-07
1.37071e-24
2.69791e-21
1.87577e-18
6.98379e-16
7.93867e-14
2.47961e-12
3.17822e-11
2.17457e-10
9.42556e-10
2.9037e-09
6.84999e-09
1.33159e-08
2.21857e-08
3.32349e-08
4.60151e-08
5.99611e-08
7.45687e-08
8.93908e-08
1.04038e-07
1.18196e-07
1.31606e-07
1.4402e-07
1.55164e-07
1.64078e-07
1.71222e-07
1.77432e-07
1.79714e-07
1.80639e-07
1.78298e-07
1.76152e-07
1.57636e-05
4.15717e-05
4.15422e-05
4.15506e-05
4.15409e-05
6.56241e-06
3.8465e-07
3.7572e-07
3.3169e-07
3.03596e-07
2.86833e-07
2.75522e-07
2.66046e-07
2.56042e-07
2.45081e-07
2.32961e-07
2.20125e-07
2.07324e-07
1.95544e-07
1.86067e-07
3.49651e-24
6.85101e-21
4.78364e-18
1.76999e-15
1.72804e-13
4.72806e-12
5.46729e-11
3.43279e-10
1.38335e-09
3.99819e-09
8.92254e-09
1.6525e-08
2.63964e-08
3.81922e-08
5.14123e-08
6.55012e-08
8.00154e-08
9.45703e-08
1.08844e-07
1.22606e-07
1.35677e-07
1.47863e-07
1.58913e-07
1.67212e-07
1.7411e-07
1.8347e-07
1.8491e-07
1.8515e-07
1.81994e-07
1.76169e-07
1.11553e-05
4.15854e-05
4.15721e-05
4.15552e-05
4.01346e-05
5.40241e-06
3.77984e-07
3.69016e-07
3.33962e-07
3.13652e-07
3.04131e-07
2.96261e-07
2.90552e-07
2.82879e-07
2.75964e-07
2.66619e-07
2.55039e-07
2.42031e-07
2.28438e-07
2.15481e-07
9.27309e-24
1.77536e-20
1.20908e-17
4.27041e-15
3.55767e-13
8.57077e-12
8.93802e-11
5.1571e-10
1.93249e-09
5.24097e-09
1.1073e-08
1.95626e-08
3.00124e-08
4.2013e-08
5.50715e-08
6.86964e-08
8.25434e-08
9.63119e-08
1.09763e-07
1.22759e-07
1.35207e-07
1.46965e-07
1.5781e-07
1.65117e-07
1.71445e-07
1.85925e-07
1.87205e-07
1.87354e-07
1.85819e-07
1.80211e-07
1.79854e-07
1.73308e-05
4.08318e-05
3.90666e-05
9.51866e-06
2.87193e-07
4.78071e-07
2.95802e-07
3.0567e-07
3.03598e-07
3.15461e-07
3.06439e-07
3.0139e-07
2.8823e-07
2.92512e-07
2.90481e-07
2.83249e-07
2.72717e-07
2.60221e-07
2.46764e-07
2.52e-23
4.64593e-20
3.01696e-17
9.77946e-15
6.93699e-13
1.476e-11
1.39068e-10
7.37866e-10
2.57136e-09
6.54622e-09
1.31088e-08
2.21286e-08
3.26815e-08
4.43557e-08
5.67159e-08
6.93711e-08
8.20924e-08
9.4668e-08
1.06944e-07
1.18873e-07
1.30436e-07
1.41538e-07
1.51979e-07
1.57794e-07
1.60694e-07
2.14442e-07
1.84868e-07
1.85703e-07
1.89262e-07
1.8967e-07
1.90166e-07
1.90169e-07
1.98312e-07
1.96296e-07
1.9801e-07
2.76635e-07
2.50939e-07
2.70108e-07
2.76732e-07
2.84048e-07
4.55193e-07
3.01285e-07
2.87135e-07
3.84894e-07
2.94816e-07
2.97978e-07
3.01137e-07
2.95141e-07
2.85776e-07
2.74428e-07
6.91417e-23
1.21408e-19
7.39615e-17
2.12319e-14
1.2839e-12
2.41754e-11
2.06155e-10
1.00613e-09
3.26135e-09
7.79952e-09
1.48255e-08
2.39632e-08
3.41642e-08
4.50647e-08
5.6318e-08
6.76474e-08
7.89324e-08
9.00419e-08
1.00899e-07
1.11531e-07
1.21976e-07
1.32168e-07
1.41929e-07
1.45865e-07
1.54301e-07
1.72857e-07
1.70915e-07
1.77722e-07
1.84248e-07
1.8875e-07
1.91361e-07
1.93124e-07
1.93785e-07
1.96177e-07
2.13886e-07
2.33899e-07
2.4853e-07
2.52933e-07
2.5515e-07
3.62989e-07
2.47515e-07
2.69627e-07
2.84688e-07
2.84434e-07
2.8761e-07
3.33116e-07
3.06765e-07
3.07033e-07
3.0142e-07
2.93372e-07
1.88546e-22
3.12607e-19
1.76816e-16
4.37122e-14
2.26645e-12
3.77111e-11
2.91412e-10
1.30836e-09
3.94637e-09
8.8756e-09
1.60447e-08
2.48935e-08
3.43667e-08
4.41737e-08
5.40664e-08
6.3874e-08
7.35623e-08
8.30659e-08
9.23715e-08
1.01558e-07
1.107e-07
1.19741e-07
1.28517e-07
1.31439e-07
1.50761e-07
1.33098e-07
1.44472e-07
1.65216e-07
1.737e-07
1.78705e-07
1.82218e-07
1.87017e-07
1.93215e-07
2.11376e-07
2.15574e-07
2.30684e-07
2.39687e-07
2.31978e-07
2.82962e-07
2.15392e-07
2.35415e-07
2.51853e-07
2.62127e-07
2.79792e-07
3.0167e-07
3.02879e-07
3.44245e-07
3.05945e-07
3.05172e-07
3.00139e-07