/*--------------------------------*- C++ -*----------------------------------*\
| =========                 |                                                 |
| \\      /  F ield         | OpenFOAM: The Open Source CFD Toolbox           |
|  \\    /   O peration     | Version:  2.4.0                                 |
|   \\  /    A nd           | Web:      www.OpenFOAM.org                      |
|    \\/     M anipulation  |                                                 |
\*---------------------------------------------------------------------------*/
FoamFile
{
    version     2.0;
    format      ascii;
    class       volScalarField;
    location    "0.155";
    object      alpha.water;
}
// * * * * * * * * * * * * * * * * * * * * * * * * * * * * * * * * * * * * * //

dimensions      [0 0 0 0 0 0 0];

internalField   nonuniform List<scalar> 
10000
(
1.53195e-62
3.74193e-58
3.85126e-55
6.04846e-53
3.37065e-51
1.04153e-49
2.43102e-48
5.24713e-47
1.23127e-45
3.50667e-44
1.18707e-42
4.59058e-41
1.92376e-39
8.5602e-38
3.86227e-36
1.59601e-34
5.48593e-33
1.59854e-31
4.12321e-30
8.66013e-29
1.45168e-27
1.97257e-26
2.17148e-25
1.93537e-24
1.39078e-23
7.97e-23
3.63728e-22
1.31182e-21
3.54736e-21
5.8156e-21
6.07248e-21
4.2335e-21
1.97138e-21
6.34936e-22
1.40378e-22
2.18407e-23
2.54681e-24
2.12807e-25
1.24803e-26
5.30058e-28
1.68593e-29
4.12433e-31
7.94368e-33
1.202e-34
1.42625e-36
1.33846e-38
9.6769e-41
5.29984e-43
9.64396e-45
2.97122e-43
5.02906e-59
1.62564e-54
1.4103e-51
2.19075e-49
1.33294e-47
4.71988e-46
1.30467e-44
3.37591e-43
9.27449e-42
2.90074e-40
9.91157e-39
3.55398e-37
1.27793e-35
4.55787e-34
1.59645e-32
5.13642e-31
1.3965e-29
3.22634e-28
6.57014e-27
1.11109e-25
1.52629e-24
1.72147e-23
1.59643e-22
1.21786e-21
7.6122e-21
3.87521e-20
1.6092e-19
5.38407e-19
1.36691e-18
2.20225e-18
2.35331e-18
1.73791e-18
9.08672e-19
3.3928e-19
9.38679e-20
1.94228e-20
3.14916e-21
3.91151e-22
3.68321e-23
2.63567e-24
1.4371e-25
5.92667e-27
1.83869e-28
4.40172e-30
7.61818e-32
9.36417e-34
8.0608e-36
4.91043e-38
9.40636e-39
4.3942e-37
8.80387e-56
2.00454e-51
1.46846e-48
2.25714e-46
1.48241e-44
5.95265e-43
1.92886e-41
5.86668e-40
1.85259e-38
6.18405e-37
2.08076e-35
6.78532e-34
2.07035e-32
5.86349e-31
1.5729e-29
3.87799e-28
8.28378e-27
1.51136e-25
2.42942e-24
3.33365e-23
3.79302e-22
3.59976e-21
2.85551e-20
1.89409e-19
1.04596e-18
4.80074e-18
1.83245e-17
5.71282e-17
1.36478e-16
2.14917e-16
2.33183e-16
1.80188e-16
1.02146e-16
4.27811e-17
1.37229e-17
3.43062e-18
6.80254e-19
1.06315e-19
1.29681e-20
1.22762e-21
8.9646e-23
4.96406e-24
2.03281e-25
6.21422e-27
1.39895e-28
2.15778e-30
2.65877e-32
2.34701e-34
7.80591e-34
2.29969e-32
8.2175e-53
1.16737e-48
7.37063e-46
1.12346e-43
7.88488e-42
3.55644e-40
1.32899e-38
4.62899e-37
1.61588e-35
5.48647e-34
1.73291e-32
4.93271e-31
1.24923e-29
2.82122e-28
5.85835e-27
1.12652e-25
1.91889e-24
2.82048e-23
3.66335e-22
4.14561e-21
3.96472e-20
3.21091e-19
2.20906e-18
1.29048e-17
6.37676e-17
2.66711e-16
9.41384e-16
2.73861e-15
6.15466e-15
9.42898e-15
1.02955e-14
8.27513e-15
4.97543e-15
2.28469e-15
8.20326e-16
2.36293e-16
5.44579e-17
1.00486e-17
1.46915e-18
1.68694e-19
1.50824e-20
1.03214e-21
5.20633e-23
1.90692e-24
5.26832e-26
1.0375e-27
1.7749e-29
3.62984e-31
4.69728e-30
1.01504e-28
4.49513e-50
4.04859e-46
2.23066e-43
3.3705e-41
2.5059e-39
1.25709e-37
5.26679e-36
2.02155e-34
7.34002e-33
2.37747e-31
6.68785e-30
1.61959e-28
3.39181e-27
6.23222e-26
1.03643e-24
1.60011e-23
2.22579e-22
2.70402e-21
2.90467e-20
2.75159e-19
2.23851e-18
1.56333e-17
9.41628e-17
4.8863e-16
2.17951e-15
8.35951e-15
2.73629e-14
7.42615e-14
1.56834e-13
2.3281e-13
2.54135e-13
2.10566e-13
1.33e-13
6.60316e-14
2.60207e-14
8.414e-15
2.19853e-15
4.65022e-16
7.87001e-17
1.05385e-17
1.10597e-18
8.9563e-20
5.418e-21
2.35496e-22
7.8595e-24
2.01942e-25
4.72272e-27
2.50866e-28
4.37041e-27
7.68862e-26
1.63018e-47
9.55529e-44
4.63139e-41
6.92568e-39
5.41692e-37
2.97106e-35
1.34571e-33
5.41076e-32
1.89773e-30
5.56324e-29
1.35987e-27
2.79657e-26
4.90862e-25
7.49055e-24
1.02629e-22
1.30464e-21
1.51381e-20
1.54883e-19
1.4024e-18
1.12636e-17
7.8659e-17
4.76926e-16
2.5272e-15
1.17109e-14
4.73726e-14
1.67004e-13
5.07143e-13
1.28266e-12
2.54342e-12
3.6478e-12
3.96134e-12
3.35932e-12
2.21401e-12
1.17568e-12
5.04509e-13
1.80714e-13
5.29874e-14
1.26839e-14
2.4457e-15
3.74981e-16
4.52733e-17
4.24983e-18
3.02916e-19
1.57707e-20
6.42165e-22
2.17203e-23
6.64847e-25
6.67293e-26
1.16711e-24
1.76377e-23
4.24105e-45
1.67416e-41
7.19969e-39
1.06416e-36
8.68054e-35
5.03759e-33
2.39224e-31
9.41569e-30
2.98299e-28
7.62409e-27
1.5991e-25
2.8002e-24
4.17719e-23
5.42297e-22
6.26063e-21
6.71666e-20
6.6181e-19
5.7951e-18
4.49695e-17
3.10335e-16
1.87615e-15
9.92501e-15
4.64285e-14
1.92424e-13
7.06754e-13
2.28953e-12
6.43637e-12
1.5151e-11
2.82099e-11
3.90361e-11
4.20353e-11
3.62727e-11
2.48685e-11
1.40143e-11
6.51457e-12
2.57045e-12
8.44592e-13
2.28206e-13
4.99261e-14
8.71669e-15
1.20241e-15
1.29831e-16
1.08234e-17
6.80025e-19
3.43668e-20
1.50295e-21
5.6426e-23
7.68385e-24
1.26084e-22
1.69345e-21
8.16998e-43
2.29623e-39
8.86957e-37
1.29061e-34
1.07668e-32
6.40785e-31
2.96563e-29
1.05258e-27
2.93089e-26
6.52169e-25
1.18304e-23
1.7847e-22
2.29185e-21
2.56526e-20
2.55027e-19
2.34112e-18
1.98498e-17
1.50368e-16
1.01017e-15
6.04746e-15
3.19347e-14
1.48729e-13
6.15924e-13
2.28412e-12
7.60374e-12
2.25719e-11
5.85764e-11
1.28145e-10
2.24362e-10
2.99679e-10
3.19509e-10
2.79018e-10
1.98155e-10
1.18386e-10
5.93704e-11
2.5789e-11
9.53318e-12
2.91583e-12
7.2611e-13
1.44729e-13
2.28273e-14
2.83327e-15
2.75868e-16
2.09719e-17
1.30882e-18
7.238e-20
3.21027e-21
4.50527e-22
6.76697e-21
8.29169e-20
1.20544e-40
2.54617e-37
8.90555e-35
1.24897e-32
1.0311e-30
5.97338e-29
2.50924e-27
7.92614e-26
1.93534e-24
3.75896e-23
5.94497e-22
7.81657e-21
8.72563e-20
8.49761e-19
7.3692e-18
5.84418e-17
4.29137e-16
2.83142e-15
1.65945e-14
8.66733e-14
4.01315e-13
1.65124e-12
6.09333e-12
2.0286e-11
6.09904e-11
1.65172e-10
3.94251e-10
8.01098e-10
1.32349e-09
1.71023e-09
1.80587e-09
1.58615e-09
1.16433e-09
7.39688e-10
3.98298e-10
1.90709e-10
7.95858e-11
2.77559e-11
7.93934e-12
1.82219e-12
3.30838e-13
4.74195e-14
5.39973e-15
4.94765e-16
3.76977e-17
2.54776e-18
1.30843e-19
1.55039e-20
2.05972e-19
2.35557e-18
1.3586e-38
2.2713e-35
7.12422e-33
9.52058e-31
7.58528e-29
4.01112e-27
1.49977e-25
4.17162e-24
8.95541e-23
1.52645e-21
2.11693e-20
2.44192e-19
2.39639e-18
2.04557e-17
1.55958e-16
1.08115e-15
6.94995e-15
4.01388e-14
2.05611e-13
9.40274e-13
3.82972e-12
1.39345e-11
4.58339e-11
1.37191e-10
3.73459e-10
9.17745e-10
2.00696e-09
3.79096e-09
5.9465e-09
7.45678e-09
7.81131e-09
6.85041e-09
5.21304e-09
3.54058e-09
2.02788e-09
1.07347e-09
5.07038e-10
2.03722e-10
6.77159e-11
1.81071e-11
3.82416e-12
6.37535e-13
8.49794e-14
9.27599e-15
8.50266e-16
6.83411e-17
4.06499e-18
3.62017e-19
3.89586e-18
4.24911e-17
1.17151e-36
1.59299e-33
4.5304e-31
5.70838e-29
4.14269e-27
1.95239e-25
6.48272e-24
1.60207e-22
3.03983e-21
4.57016e-20
5.58835e-19
5.67826e-18
4.92225e-17
3.71104e-16
2.49827e-15
1.52579e-14
8.6231e-14
4.3817e-13
1.97311e-12
7.90663e-12
2.83076e-11
9.118e-11
2.67131e-10
7.17629e-10
1.76593e-09
3.9436e-09
7.87398e-09
1.38741e-08
2.07796e-08
2.53095e-08
2.63168e-08
2.29481e-08
1.83345e-08
1.33684e-08
8.02878e-09
4.6988e-09
2.50812e-09
1.17113e-09
4.57683e-10
1.44539e-10
3.59972e-11
7.05266e-12
1.10406e-12
1.42141e-13
1.54294e-14
1.44204e-15
1.00391e-16
6.82413e-18
4.88434e-17
5.18968e-16
7.68657e-35
8.78366e-32
2.27347e-29
2.5979e-27
1.68507e-25
7.09096e-24
2.10525e-22
4.59928e-21
7.72401e-20
1.03051e-18
1.12062e-17
1.01405e-16
7.78559e-16
5.21257e-15
3.10983e-14
1.68291e-13
8.38668e-13
3.75891e-12
1.49051e-11
5.2498e-11
1.65202e-10
4.69788e-10
1.22514e-09
2.94908e-09
6.5447e-09
1.32642e-08
2.42721e-08
4.0246e-08
5.66258e-08
6.76886e-08
6.88235e-08
6.06164e-08
5.21297e-08
4.06169e-08
2.50637e-08
1.60723e-08
9.6627e-09
5.27891e-09
2.44682e-09
9.24192e-10
2.75678e-10
6.43776e-11
1.19479e-11
1.81332e-12
2.31398e-13
2.47247e-14
2.03032e-15
1.21988e-16
4.26817e-16
4.51038e-15
3.86475e-33
3.80234e-30
8.79508e-28
9.00467e-26
5.22447e-24
1.97429e-22
5.19152e-21
1.00787e-19
1.50786e-18
1.7957e-17
1.74569e-16
1.41366e-15
9.70183e-15
5.78441e-14
3.07077e-13
1.47752e-12
6.5149e-12
2.58145e-11
9.02627e-11
2.79551e-10
7.73292e-10
1.93815e-09
4.48745e-09
9.66928e-09
1.93265e-08
3.55419e-08
5.97531e-08
9.56851e-08
1.15304e-07
1.57028e-07
1.42854e-07
1.33055e-07
1.23451e-07
9.94534e-08
6.15181e-08
4.23658e-08
2.86857e-08
1.83685e-08
1.01716e-08
4.63943e-09
1.68063e-09
4.74909e-10
1.05974e-10
1.91542e-11
2.87686e-12
3.53732e-13
3.38934e-14
2.13638e-15
2.73106e-15
2.90825e-14
1.49215e-31
1.27474e-28
2.62825e-26
2.40462e-24
1.25615e-22
4.21981e-21
9.89632e-20
1.71779e-18
2.30251e-17
2.46064e-16
2.14925e-15
1.56502e-14
9.66001e-14
5.15024e-13
2.44294e-12
1.04893e-11
4.10671e-11
1.44199e-10
4.45426e-10
1.2139e-09
2.94907e-09
6.51032e-09
1.33547e-08
2.57317e-08
4.63137e-08
7.73015e-08
1.18587e-07
2.00176e-07
1.49392e-07
4.70904e-07
3.41263e-07
3.32604e-07
2.58692e-07
1.93632e-07
1.16984e-07
8.36604e-08
6.44359e-08
4.85179e-08
3.21321e-08
1.77553e-08
7.88949e-09
2.74269e-09
7.49534e-10
1.64064e-10
2.93187e-11
4.23792e-12
4.68603e-13
3.37687e-14
1.38651e-14
1.44499e-13
4.38621e-30
3.28026e-27
6.03746e-25
4.97292e-23
2.32414e-21
6.98843e-20
1.47105e-18
2.29701e-17
2.77478e-16
2.67632e-15
2.112e-14
1.39031e-13
7.75755e-13
3.72493e-12
1.58578e-11
6.09708e-11
2.12755e-10
6.64244e-10
1.81789e-09
4.3682e-09
9.32406e-09
1.81155e-08
3.2918e-08
5.66931e-08
9.17883e-08
1.38205e-07
1.83115e-07
4.26708e-07
6.3238e-06
9.82141e-06
8.73005e-06
1.53921e-06
5.42503e-07
2.89363e-07
1.72555e-07
1.24098e-07
1.08846e-07
9.65379e-08
7.59451e-08
5.05494e-08
2.76095e-08
1.19589e-08
4.07633e-09
1.1049e-09
2.41027e-10
4.2014e-11
5.44076e-12
4.66801e-13
6.79239e-14
5.73586e-13
9.70824e-29
6.42923e-26
1.06143e-23
7.88412e-22
3.31197e-20
8.9805e-19
1.70893e-17
2.41722e-16
2.64941e-15
2.32158e-14
1.66595e-13
9.97739e-13
5.06446e-12
2.20917e-11
8.4773e-11
2.9303e-10
9.15111e-10
2.55123e-09
6.2173e-09
1.3251e-08
2.49816e-08
4.27917e-08
6.87612e-08
1.0569e-07
1.53242e-07
2.06583e-07
1.84105e-07
5.48176e-06
1.19683e-05
1.19674e-05
1.19687e-05
9.67872e-06
8.65304e-07
3.35841e-07
2.06638e-07
1.50942e-07
1.47034e-07
1.48818e-07
1.35203e-07
1.06339e-07
7.062e-08
3.81104e-08
1.63307e-08
5.56026e-09
1.51202e-09
3.25044e-10
5.16239e-11
5.35491e-12
4.33376e-13
1.88617e-12
1.60254e-27
9.4909e-25
1.41788e-22
9.51001e-21
3.62098e-19
8.92488e-18
1.54735e-16
1.99778e-15
2.00164e-14
1.60517e-13
1.05501e-12
5.78966e-12
2.6926e-11
1.07496e-10
3.74748e-10
1.17007e-09
3.2878e-09
8.24082e-09
1.81013e-08
3.49281e-08
5.95706e-08
9.08661e-08
1.26811e-07
1.71905e-07
2.21442e-07
2.75507e-07
2.29415e-07
7.3523e-06
1.19685e-05
1.19694e-05
1.19691e-05
9.40176e-06
1.07861e-06
4.33011e-07
2.19298e-07
4.74529e-07
1.98486e-07
1.99711e-07
1.92496e-07
1.70456e-07
1.33418e-07
8.82106e-08
4.73453e-08
2.0357e-08
6.98474e-09
1.88347e-09
3.77736e-10
4.86532e-11
3.57068e-12
5.35423e-12
1.96239e-26
1.0483e-23
1.4241e-21
8.69715e-20
3.02584e-18
6.83344e-17
1.08789e-15
1.29195e-14
1.19227e-13
8.81549e-13
5.34609e-12
2.70808e-11
1.16246e-10
4.27899e-10
1.36716e-09
3.885e-09
9.91628e-09
2.27138e-08
4.64484e-08
8.61362e-08
1.39975e-07
1.97486e-07
2.26594e-07
2.52593e-07
2.7787e-07
2.89469e-07
3.34805e-07
5.11433e-07
4.61034e-06
7.90081e-06
5.30154e-06
2.84661e-07
2.9611e-07
2.63731e-07
2.51951e-07
2.4448e-07
2.42244e-07
2.4007e-07
2.3558e-07
2.22449e-07
1.9536e-07
1.52469e-07
1.00331e-07
5.39166e-08
2.3259e-08
7.88422e-09
2.00233e-09
3.2977e-10
2.85981e-11
1.39531e-11
1.78268e-25
8.66376e-23
1.0759e-20
6.02999e-19
1.93164e-17
4.02693e-16
5.92985e-15
6.52376e-14
5.58377e-13
3.83251e-12
2.15892e-11
1.01629e-10
4.05507e-10
1.38735e-09
4.11245e-09
1.078e-08
2.54962e-08
5.50628e-08
1.10396e-07
2.15299e-07
2.50081e-07
3.77982e-07
4.43586e-07
3.25917e-07
2.96444e-07
2.75736e-07
3.6194e-07
2.74013e-07
2.70055e-07
2.70062e-07
2.70122e-07
2.72941e-07
2.74509e-07
2.75356e-07
2.70866e-07
2.71193e-07
2.75106e-07
2.68882e-07
2.63775e-07
2.56113e-07
2.39948e-07
2.09649e-07
1.62222e-07
1.05869e-07
5.63072e-08
2.36736e-08
7.50672e-09
1.59921e-09
1.7693e-10
3.65146e-11
1.21015e-24
5.39282e-22
6.16775e-20
3.19653e-18
9.49757e-17
1.84076e-15
2.52448e-14
2.59002e-13
2.06936e-12
1.32687e-11
6.9877e-11
3.07803e-10
1.15101e-09
3.70063e-09
1.03536e-08
2.55599e-08
5.68508e-08
1.15825e-07
2.3327e-07
5.42048e-07
2.73254e-06
2.42121e-06
9.68693e-07
3.33376e-07
2.80842e-07
2.73424e-07
2.73701e-07
2.79283e-07
2.76982e-07
2.81926e-07
2.86126e-07
2.88894e-07
2.91107e-07
2.91773e-07
2.71671e-07
4.49883e-07
2.8033e-07
2.93748e-07
2.89439e-07
2.82087e-07
2.70438e-07
2.50264e-07
2.15492e-07
1.63615e-07
1.04083e-07
5.3103e-08
2.06461e-08
5.54617e-09
7.85539e-10
1.00488e-10
6.22679e-24
2.56544e-21
2.72476e-19
1.31605e-17
3.65395e-16
6.63124e-15
8.52883e-14
8.21582e-13
6.1688e-12
3.71976e-11
1.84319e-10
7.64185e-10
2.68931e-09
8.12775e-09
2.1294e-08
4.85965e-08
9.67227e-08
1.72024e-07
4.28221e-07
6.03422e-06
8.90967e-06
8.91192e-06
2.53158e-06
2.58513e-07
2.67532e-07
2.80029e-07
2.88436e-07
2.87303e-07
2.81442e-07
2.91718e-07
2.97763e-07
3.05091e-07
3.14715e-07
3.11913e-07
3.13125e-07
2.98008e-07
2.99071e-07
3.03524e-07
3.08717e-07
3.07775e-07
2.99491e-07
2.82796e-07
2.56244e-07
2.14581e-07
1.56763e-07
9.42324e-08
4.3861e-08
1.44364e-08
2.57255e-09
2.74971e-10
2.47691e-23
9.51885e-21
9.46636e-19
4.29255e-17
1.12086e-15
1.91495e-14
2.31934e-13
2.10335e-12
1.48546e-11
8.41254e-11
3.90644e-10
1.51315e-09
4.95575e-09
1.38892e-08
3.38038e-08
7.26573e-08
1.33514e-07
1.44138e-07
3.28848e-06
8.90737e-06
8.90949e-06
8.91168e-06
2.27067e-06
2.62442e-07
2.80204e-07
2.94449e-07
3.00451e-07
2.90252e-07
4.54608e-07
2.97057e-07
3.03889e-07
3.32221e-07
3.77552e-07
3.19947e-07
3.60332e-07
3.20453e-07
3.11704e-07
4.71742e-07
3.28556e-07
3.10195e-07
2.87181e-07
2.7636e-07
2.66579e-07
2.45301e-07
2.02001e-07
1.3971e-07
7.59979e-08
2.97347e-08
6.56509e-09
6.95356e-10
7.78984e-23
2.82168e-20
2.65312e-18
1.1396e-16
2.82141e-15
4.57129e-14
5.2484e-13
4.50741e-12
3.01011e-11
1.60875e-10
7.03273e-10
2.55761e-09
7.84552e-09
2.05724e-08
4.68301e-08
9.33392e-08
1.55097e-07
1.65392e-07
2.79232e-06
8.91835e-06
8.91269e-06
3.79726e-06
2.7957e-07
2.84051e-07
3.01983e-07
3.14135e-07
3.14531e-07
3.0801e-07
3.02788e-07
3.00666e-07
5.40913e-07
3.43962e-07
5.51692e-07
1.39457e-06
8.12481e-07
3.73745e-07
3.43184e-07
3.44092e-07
3.44329e-07
6.2704e-07
2.52429e-07
2.25643e-07
2.24757e-07
2.24289e-07
2.22726e-07
1.78896e-07
1.12228e-07
5.10077e-08
1.34515e-08
1.54581e-09
1.97587e-22
6.82998e-20
6.14214e-18
2.52594e-16
5.98852e-15
9.28648e-14
1.01939e-12
8.35794e-12
5.31897e-11
2.70339e-10
1.12129e-09
3.85856e-09
1.11553e-08
2.7352e-08
5.72887e-08
1.03351e-07
1.66236e-07
2.65959e-07
5.21137e-07
2.32704e-06
2.58948e-06
3.05742e-07
3.09857e-07
3.17503e-07
3.32932e-07
3.28568e-07
3.31734e-07
3.148e-07
3.41555e-07
3.52509e-07
3.61828e-07
3.00519e-06
6.45213e-06
7.57896e-06
7.58259e-06
4.47507e-06
8.02323e-07
3.52117e-07
3.55344e-07
3.58928e-07
2.57575e-07
2.93928e-05
2.21841e-05
2.24454e-07
2.10497e-07
2.05157e-07
1.45851e-07
7.55425e-08
2.30231e-08
3.00431e-09
4.09445e-22
1.3703e-19
1.19447e-17
4.76192e-16
1.09368e-14
1.64093e-13
1.73993e-12
1.37538e-11
8.42193e-11
4.11076e-10
1.63492e-09
5.39181e-09
1.49676e-08
3.55084e-08
7.33039e-08
1.3381e-07
2.10714e-07
2.54288e-07
5.97216e-07
3.13954e-07
3.14163e-07
3.35938e-07
3.52068e-07
3.22767e-07
3.3528e-07
4.36285e-07
3.51112e-07
3.19388e-07
3.82576e-07
3.53491e-07
4.24564e-06
7.58425e-06
7.58294e-06
7.58402e-06
7.58555e-06
7.58405e-06
7.11797e-06
1.20899e-06
3.64368e-07
3.58477e-07
3.38088e-05
5.25578e-05
5.25832e-05
2.8714e-05
5.58985e-07
1.71597e-07
1.64934e-07
9.87055e-08
3.40798e-08
5.20162e-09
6.96857e-22
2.29618e-19
1.96996e-17
7.72088e-16
1.74041e-14
2.55765e-13
2.65023e-12
2.04244e-11
1.21653e-10
5.76378e-10
2.22124e-09
7.08811e-09
1.90089e-08
4.34004e-08
8.52708e-08
1.44781e-07
2.1019e-07
2.55376e-07
2.57287e-07
3.15573e-07
3.4092e-07
3.73982e-07
3.59968e-07
1.74303e-06
2.68234e-06
3.69866e-07
3.59583e-07
4.9029e-07
4.42621e-07
3.68207e-07
7.45101e-06
7.56807e-06
7.57787e-06
6.6798e-06
6.41273e-06
7.58175e-06
7.55194e-06
5.09807e-06
3.8316e-07
4.03227e-06
5.25547e-05
5.25737e-05
5.25803e-05
5.25858e-05
1.0196e-05
1.8648e-07
1.9445e-07
1.20164e-07
4.54648e-08
8.25995e-09
9.71493e-22
3.21432e-19
2.76133e-17
1.08053e-15
2.42434e-14
3.53497e-13
3.62291e-12
2.75298e-11
1.61201e-10
7.48779e-10
2.82188e-09
8.78305e-09
2.28968e-08
5.05246e-08
9.49751e-08
1.52347e-07
2.08913e-07
2.50249e-07
2.76693e-07
2.99516e-07
3.74644e-07
3.85399e-07
6.54498e-06
1.89734e-05
2.11548e-05
7.80348e-06
3.17966e-07
3.21816e-07
4.71673e-07
2.19001e-06
2.65123e-06
2.44506e-06
1.29849e-06
3.29231e-07
3.27446e-07
4.64729e-07
4.47297e-06
5.51608e-06
1.96507e-06
1.98755e-06
3.92535e-05
5.25775e-05
5.25773e-05
5.25804e-05
9.3084e-06
2.09989e-07
2.07969e-07
1.3802e-07
5.75324e-08
1.22915e-08
1.09799e-21
3.73685e-19
3.2794e-17
1.30344e-15
2.95539e-14
4.33444e-13
4.44845e-12
3.37085e-11
1.96053e-10
9.01188e-10
3.349e-09
1.02412e-08
2.61154e-08
5.60223e-08
1.01519e-07
1.55717e-07
2.04057e-07
2.35745e-07
2.47275e-07
6.73451e-07
3.79947e-07
4.11531e-06
2.11351e-05
2.11358e-05
2.11473e-05
2.00457e-05
3.1812e-07
3.62429e-07
6.0411e-07
2.52e-06
3.55827e-07
3.45966e-07
3.38651e-07
3.36773e-07
3.27508e-07
3.24679e-07
3.24253e-07
9.10653e-07
3.19084e-06
2.55321e-06
8.61528e-06
4.11064e-05
5.09408e-05
3.00714e-05
2.64114e-06
2.23908e-07
2.11934e-07
1.53274e-07
7.04649e-08
1.73034e-08
9.85908e-22
3.56231e-19
3.27249e-17
1.34782e-15
3.1413e-14
4.7034e-13
4.8982e-12
3.74546e-11
2.18693e-10
1.00434e-09
3.71238e-09
1.12461e-08
2.83088e-08
5.97957e-08
1.06714e-07
1.62294e-07
2.14745e-07
2.58251e-07
3.0397e-07
3.14964e-07
2.33298e-06
1.03449e-05
2.11344e-05
2.11454e-05
2.11532e-05
5.1983e-06
3.25266e-07
3.5196e-07
5.00129e-07
1.90557e-06
5.71389e-07
6.11609e-07
8.19471e-07
4.06071e-07
3.41737e-07
3.28146e-07
3.25954e-07
3.25458e-07
3.17999e-06
4.13545e-06
3.27171e-06
3.37905e-06
5.51856e-06
7.76288e-07
8.35454e-07
3.15755e-07
2.10254e-07
1.66977e-07
8.46825e-08
2.30624e-08
6.79525e-22
2.72493e-19
2.70431e-17
1.1826e-15
2.89002e-14
4.49284e-13
4.8184e-12
3.76708e-11
2.23425e-10
1.03601e-09
3.84549e-09
1.16437e-08
2.92005e-08
6.14045e-08
1.09481e-07
1.67804e-07
2.26105e-07
2.79293e-07
3.57258e-07
6.70978e-06
1.6366e-05
1.64548e-05
1.46491e-05
2.02291e-05
9.32338e-06
3.10181e-07
3.17071e-07
3.2619e-07
4.27796e-07
3.12839e-07
5.53119e-07
1.75338e-06
1.75707e-06
8.72558e-07
3.36367e-07
3.29247e-07
3.30352e-07
3.34579e-07
4.50177e-07
4.13614e-06
1.7195e-06
3.63718e-07
2.87385e-07
2.54647e-07
2.25526e-07
3.84167e-07
2.22292e-07
1.79371e-07
1.00761e-07
2.90677e-08
3.39697e-22
1.61554e-19
1.80867e-17
8.66344e-16
2.27425e-14
3.74461e-13
4.20668e-12
3.41343e-11
2.08433e-10
9.87852e-10
3.72326e-09
1.13835e-08
2.87113e-08
6.0655e-08
1.09098e-07
1.71336e-07
2.50264e-07
4.22483e-07
1.56698e-06
1.66475e-05
1.68573e-05
1.68721e-05
4.08703e-06
4.45737e-07
3.0836e-07
3.08174e-07
3.13476e-07
3.173e-07
3.11244e-07
3.12518e-07
7.95537e-07
1.75239e-06
1.76037e-06
7.57837e-07
3.53578e-07
3.31203e-07
3.4211e-07
3.76267e-07
3.82772e-07
1.07124e-06
4.8765e-07
3.78503e-07
3.63433e-07
6.75263e-07
2.19411e-07
3.79232e-07
2.24071e-07
1.71112e-07
1.1716e-07
3.51224e-08
1.17036e-22
7.12456e-20
9.4822e-18
5.17108e-16
1.50363e-14
2.68626e-13
3.22526e-12
2.7641e-11
1.76505e-10
8.67241e-10
3.36237e-09
1.05021e-08
2.69074e-08
5.75147e-08
1.04376e-07
1.63914e-07
2.26347e-07
2.36996e-07
5.35283e-06
1.6858e-05
1.68727e-05
1.68862e-05
4.28056e-06
3.19043e-07
3.09336e-07
3.07209e-07
3.09092e-07
3.0705e-07
3.1051e-07
3.11135e-07
1.11062e-06
1.21309e-06
5.92634e-07
3.64294e-07
3.56722e-07
3.34537e-07
3.61697e-07
3.61857e-07
3.64565e-07
3.9138e-06
1.2988e-05
6.54315e-06
1.93032e-06
2.41548e-07
2.02203e-07
2.12965e-07
1.94457e-07
2.4761e-07
1.26089e-07
4.27306e-08
2.87517e-23
2.53067e-20
4.19411e-18
2.65808e-16
8.65273e-15
1.69341e-13
2.19466e-12
2.00816e-11
1.35752e-10
7.00734e-10
2.8317e-09
9.15303e-09
2.40993e-08
5.2614e-08
9.70356e-08
1.54031e-07
2.11781e-07
2.41491e-07
3.25675e-06
1.62142e-05
1.68602e-05
7.58667e-06
3.10864e-07
3.10965e-07
3.07869e-07
3.05113e-07
3.05744e-07
3.04052e-07
3.06423e-07
3.19155e-07
3.13641e-07
3.14694e-07
3.15129e-07
7.33158e-07
4.58196e-07
3.47941e-07
3.55983e-07
3.38567e-06
7.87857e-06
9.23746e-06
1.33945e-05
8.49341e-06
1.61387e-07
1.56292e-07
1.56112e-07
1.55958e-07
1.55907e-07
1.45716e-07
1.2853e-07
5.1329e-08
4.44869e-24
7.20262e-21
1.61145e-18
1.23557e-16
4.60776e-15
1.00076e-13
1.41057e-12
1.38385e-11
9.92332e-11
5.38904e-10
2.27542e-09
7.63719e-09
2.0764e-08
4.65515e-08
8.76957e-08
1.41701e-07
1.99942e-07
2.63347e-07
5.03359e-07
3.14121e-06
8.37258e-06
3.13321e-07
3.13032e-07
3.13029e-07
3.97959e-07
3.03022e-07
3.0329e-07
3.00444e-07
3.02372e-07
3.03936e-07
3.10563e-07
3.17917e-07
3.17798e-07
1.40924e-06
3.91381e-06
3.56875e-07
3.69155e-07
1.30862e-05
3.70957e-05
2.69668e-05
7.96143e-06
7.94609e-06
9.08522e-06
8.92813e-06
7.12648e-06
4.438e-06
6.47991e-07
1.35569e-07
1.81285e-07
5.87784e-08
5.03917e-25
1.70462e-21
5.37743e-19
5.11729e-17
2.22396e-15
5.42633e-14
8.39219e-13
8.88921e-12
6.79989e-11
3.90449e-10
1.73147e-09
6.06978e-09
1.71493e-08
3.97516e-08
7.70272e-08
1.27465e-07
1.84607e-07
2.44784e-07
3.7475e-07
3.69946e-07
3.6919e-07
4.56431e-07
3.09987e-07
3.0909e-07
3.01028e-07
3.0259e-07
3.02674e-07
2.97696e-07
3.00018e-07
2.93756e-07
4.35156e-07
4.79573e-07
3.30303e-07
1.17037e-06
4.64857e-06
4.05745e-06
7.00562e-06
3.70547e-05
3.70934e-05
3.07661e-05
7.94497e-06
7.94498e-06
8.25933e-06
7.99119e-06
1.82594e-05
4.5368e-05
1.19504e-07
6.72855e-08
1.08793e-07
5.65597e-08
5.052e-26
3.71334e-22
1.66154e-19
1.97035e-17
1.00149e-15
2.75364e-14
4.68519e-13
5.37166e-12
4.39521e-11
2.67596e-10
1.25016e-09
4.59331e-09
1.35444e-08
3.26255e-08
6.5415e-08
1.1162e-07
1.66473e-07
2.24549e-07
2.95012e-07
4.04423e-07
3.69104e-07
3.37463e-07
3.1534e-07
3.04979e-07
3.00918e-07
3.01352e-07
3.05244e-07
2.95321e-07
2.98247e-07
2.72251e-07
1.13049e-06
2.21114e-06
1.06464e-06
6.57211e-07
3.69111e-06
1.4526e-05
1.44586e-05
3.15168e-05
2.58987e-05
1.06515e-05
7.95201e-06
0.000112119
0.000255063
0.000144291
0.000220164
3.61594e-06
4.36336e-08
4.36708e-08
4.36708e-08
4.38004e-08
4.87708e-27
7.84435e-23
4.95449e-20
7.29454e-18
4.326e-16
1.33827e-14
2.50252e-13
3.10377e-12
2.71614e-11
1.75384e-10
8.63619e-10
3.32883e-09
1.02634e-08
2.57688e-08
5.37018e-08
9.49824e-08
1.46245e-07
2.02004e-07
2.64278e-07
3.00573e-07
3.39308e-07
3.32431e-07
3.0989e-07
2.99817e-07
2.9727e-07
2.98205e-07
3.13534e-07
2.91283e-07
2.948e-07
2.70393e-07
8.12634e-07
2.22469e-06
2.22237e-06
7.29868e-07
3.47767e-06
1.98575e-05
2.17841e-05
2.22171e-05
3.04288e-05
6.25619e-05
8.48238e-05
0.000111183
0.000141316
0.000141532
9.56082e-05
1.04709e-05
2.77861e-07
0.0316774
0.100513
0.157736
4.36282e-28
1.57487e-23
1.41467e-20
2.59196e-18
1.79455e-16
6.24544e-15
1.28308e-13
1.72048e-12
1.60943e-11
1.10169e-10
5.71648e-10
2.31206e-09
7.45999e-09
1.9559e-08
4.24921e-08
7.81876e-08
1.2478e-07
1.77441e-07
2.33857e-07
2.91938e-07
3.19794e-07
3.17836e-07
3.04314e-07
2.94714e-07
2.90897e-07
2.86756e-07
3.2828e-07
2.82075e-07
2.87452e-07
2.69901e-07
2.69575e-07
1.05054e-06
1.69631e-06
1.42445e-06
5.34393e-06
2.2484e-05
3.56289e-05
4.54255e-05
6.82473e-05
6.44261e-05
0.000318395
0.000499973
0.0127959
0.0804815
0.206445
0.432991
0.677382
0.852668
0.93534
0.971136
3.41555e-29
2.88375e-24
3.75305e-21
8.64248e-19
7.02637e-17
2.76096e-15
6.24594e-14
9.06659e-13
9.07334e-12
6.58767e-11
3.60366e-10
1.53041e-09
5.17186e-09
1.41794e-08
3.21782e-08
6.17648e-08
1.0256e-07
1.50886e-07
2.02689e-07
2.56901e-07
2.94927e-07
3.04262e-07
2.9682e-07
2.89468e-07
2.82223e-07
2.81049e-07
2.71952e-07
2.76612e-07
2.71879e-07
2.65507e-07
2.69512e-07
2.70537e-07
2.71918e-07
5.75873e-06
1.02586e-05
4.9338e-05
4.89686e-05
5.81602e-05
5.93285e-05
5.70441e-05
0.000100751
0.0799681
0.301365
0.589142
0.872165
0.990627
1
1
1
1
2.27816e-30
4.67726e-25
9.00275e-22
2.63994e-19
2.54289e-17
1.13534e-15
2.84111e-14
4.47934e-13
4.80711e-12
3.70886e-11
2.14232e-10
9.56669e-10
3.39023e-09
9.7329e-09
2.31119e-08
4.63839e-08
8.04093e-08
1.23143e-07
1.70598e-07
2.20009e-07
2.62419e-07
2.83813e-07
2.85632e-07
3.09399e-07
2.75885e-07
2.77854e-07
2.71405e-07
2.61231e-07
2.5383e-07
2.61226e-07
2.64661e-07
2.75174e-07
2.78668e-07
6.07014e-06
7.16797e-05
8.83536e-05
8.81758e-05
4.96396e-05
5.24149e-05
9.99878e-05
0.138688
0.534917
0.851292
0.995003
0.999924
1
1
1
1
1
1.28863e-31
6.61658e-26
1.91774e-22
7.25416e-20
8.35949e-18
4.27247e-16
1.18953e-14
2.04618e-13
2.36323e-12
1.94317e-11
1.18805e-10
5.58992e-10
2.08074e-09
6.26508e-09
1.55941e-08
3.27923e-08
5.95244e-08
9.52948e-08
1.37359e-07
1.82058e-07
2.24837e-07
2.53331e-07
2.53359e-07
5.19421e-07
2.61987e-07
2.71681e-07
2.59016e-07
2.53917e-07
2.49353e-07
2.51978e-07
2.61511e-07
1.08771e-06
1.03645e-05
1.39357e-05
2.77163e-05
4.62516e-05
5.11889e-05
5.00698e-05
4.93225e-05
0.19515
0.68802
0.982092
0.999629
0.999957
0.999998
1
1
1
1
1
6.1928e-33
8.0934e-27
3.58377e-23
1.76903e-20
2.46187e-18
1.45134e-16
4.52361e-15
8.53301e-14
1.06502e-12
9.36485e-12
6.07774e-11
3.02018e-10
1.18317e-09
3.74306e-09
9.78318e-09
2.16004e-08
4.11624e-08
6.91315e-08
1.04297e-07
1.43875e-07
1.83783e-07
2.18564e-07
2.20295e-07
2.19608e-07
2.59417e-07
2.62048e-07
3.13154e-07
2.91011e-07
2.45112e-07
2.53973e-07
2.73755e-07
5.05801e-06
4.39979e-05
1.76999e-05
2.92684e-05
3.61061e-05
4.61324e-05
4.96591e-05
0.182632
0.722412
0.998626
0.999917
0.999975
0.999997
1
1
1
1
1
1
2.5447e-34
8.48835e-28
5.80903e-24
3.78035e-21
6.40961e-19
4.3912e-17
1.54184e-15
3.20619e-14
4.34347e-13
4.09935e-12
2.8327e-11
1.49039e-10
6.15828e-10
2.05097e-09
5.63964e-09
1.31004e-08
2.62722e-08
4.6433e-08
7.36517e-08
1.06553e-07
1.42382e-07
1.77239e-07
1.96312e-07
2.08139e-07
2.38001e-07
2.52032e-07
3.05871e-07
2.3277e-07
2.26095e-07
2.4547e-07
3.06366e-07
7.45703e-07
3.53282e-05
0.000431862
0.000559311
0.000401396
5.28125e-05
0.130006
0.634634
0.986937
0.999917
0.999989
0.999998
1
1
1
1
1
1
1
9.07117e-36
7.55032e-29
8.0322e-25
6.96162e-22
1.45061e-19
1.16365e-17
4.6325e-16
1.06775e-14
1.57727e-13
1.60397e-12
1.18391e-11
6.61287e-11
2.88889e-10
1.01506e-09
2.94264e-09
7.2075e-09
1.52496e-08
2.84489e-08
4.76353e-08
7.26895e-08
1.02361e-07
1.3426e-07
1.60464e-07
1.80258e-07
2.06416e-07
2.24237e-07
2.16595e-07
2.11935e-07
2.03265e-07
2.23239e-07
3.83574e-07
1.80887e-06
9.74338e-06
0.000502753
0.00262639
0.00105707
0.0631944
0.455266
0.903761
0.999854
0.999989
0.999998
1
1
1
1
1
1
1
1
2.7975e-37
5.65813e-30
9.18652e-26
1.07152e-22
2.77755e-20
2.63204e-18
1.19675e-16
3.07636e-15
4.98097e-14
5.48155e-13
4.3376e-12
2.58013e-11
1.19509e-10
4.44199e-10
1.36116e-09
3.52491e-09
7.89177e-09
1.55935e-08
2.76768e-08
4.47851e-08
6.68844e-08
9.30855e-08
1.19618e-07
1.43699e-07
1.70926e-07
1.96038e-07
2.07583e-07
2.08537e-07
1.97311e-07
2.03825e-07
2.4361e-07
1.03356e-06
2.85024e-05
6.34382e-05
0.0063728
0.00415152
0.256588
0.701752
0.999172
0.999981
0.999999
1
1
1
1
1
1
1
1
1
7.54052e-39
3.62385e-31
8.72299e-27
1.31753e-23
4.24608e-21
4.83703e-19
2.5457e-17
7.36959e-16
1.31704e-14
1.5776e-13
1.34487e-12
8.555e-12
4.2179e-11
1.66459e-10
5.41161e-10
1.48733e-09
3.5379e-09
7.43734e-09
1.40639e-08
2.4276e-08
3.87126e-08
5.75836e-08
7.97541e-08
1.03417e-07
1.29298e-07
1.57636e-07
1.80963e-07
1.94163e-07
1.86038e-07
2.00004e-07
3.06018e-07
2.42147e-06
2.60632e-05
0.000201171
0.00129605
0.0696777
0.404415
0.929966
0.999941
0.999997
1
1
1
1
1
1
1
1
1
1
1.71997e-40
2.00043e-32
7.01448e-28
1.33326e-24
5.09847e-22
6.67352e-20
4.0679e-18
1.34672e-16
2.70768e-15
3.57921e-14
3.32107e-13
2.27639e-12
1.20231e-11
5.06878e-11
1.7588e-10
5.16173e-10
1.31287e-09
2.95639e-09
6.00039e-09
1.11383e-08
1.91334e-08
3.07001e-08
4.61049e-08
6.50284e-08
8.75225e-08
1.13541e-07
1.40353e-07
1.63347e-07
1.81726e-07
1.90961e-07
1.68253e-07
1.165e-06
2.24429e-06
-1.00692e-08
-6.10745e-05
0.0959082
0.687872
1
0.999999
1
1
1
1
1
1
1
1
1
1
1
3.08821e-42
9.12426e-34
4.81213e-29
1.16893e-25
5.17794e-23
7.53375e-21
4.92787e-19
1.73798e-17
3.7909e-16
5.52322e-15
5.65634e-14
4.2762e-13
2.47427e-12
1.13448e-11
4.25992e-11
1.35113e-10
3.71976e-10
9.08688e-10
2.00573e-09
4.05888e-09
7.61691e-09
1.33715e-08
2.20375e-08
3.41836e-08
5.03339e-08
7.08627e-08
9.50001e-08
1.20086e-07
1.44443e-07
1.3388e-07
1.15244e-07
7.52249e-07
2.87372e-06
6.87803e-08
8.10495e-08
0.181772
0.905171
1
1
1
1
1
1
1
1
1
1
1
1
1
4.22354e-44
3.35011e-35
2.97515e-30
9.71377e-27
5.07485e-24
8.06744e-22
5.509e-20
1.98322e-18
4.30109e-17
6.16858e-16
6.21381e-15
4.69966e-14
2.82893e-13
1.4036e-12
5.91812e-12
2.13787e-11
6.67673e-11
1.8393e-10
4.56816e-10
1.03983e-09
2.19556e-09
4.33551e-09
8.03617e-09
1.40041e-08
2.30372e-08
3.5914e-08
5.29386e-08
7.32162e-08
9.51286e-08
1.06711e-07
1.07431e-07
8.99514e-08
5.49736e-08
4.62113e-08
4.61864e-08
0.325309
1
1
1
1
1
1
1
1
1
1
1
1
1
1
2.58158e-44
1.11148e-34
1.39062e-29
4.54265e-26
2.08846e-23
2.73901e-21
1.48565e-19
4.15997e-18
6.95403e-17
7.69065e-16
6.05767e-15
3.59086e-14
1.66853e-13
6.26258e-13
1.94815e-12
5.18118e-12
1.24282e-11
2.84922e-11
6.49329e-11
1.61582e-10
3.90869e-10
8.98761e-10
1.9532e-09
3.98209e-09
7.58925e-09
1.35107e-08
2.23959e-08
3.4319e-08
4.83908e-08
5.99518e-08
6.44319e-08
6.05453e-08
5.11487e-08
4.1993e-08
4.86985e-08
0.496132
1
1
1
1
1
1
1
1
1
1
1
1
1
1
1.37659e-41
6.10573e-40
2.34881e-38
7.69703e-37
2.16862e-35
5.37186e-34
1.20908e-32
2.57476e-31
5.3853e-30
1.12777e-28
2.39892e-27
5.31567e-26
1.07227e-24
1.23453e-23
8.42116e-23
3.7436e-22
1.17191e-21
2.71855e-21
4.83603e-21
6.75412e-21
7.52499e-21
6.75078e-21
4.89284e-21
2.85924e-21
1.33687e-21
4.96881e-22
1.4557e-22
3.32167e-23
5.882e-24
8.07936e-25
8.56055e-26
6.97122e-27
4.38134e-28
2.15165e-29
8.5635e-31
3.01725e-32
9.75239e-34
2.86027e-35
7.59947e-37
1.8454e-38
4.09012e-40
8.22651e-42
1.4608e-43
2.15754e-45
2.41616e-47
1.78223e-49
6.969e-52
1.02422e-54
3.27882e-58
1.81388e-62
1.65637e-35
5.0396e-34
1.27017e-32