/*--------------------------------*- C++ -*----------------------------------*\
| =========                 |                                                 |
| \\      /  F ield         | OpenFOAM: The Open Source CFD Toolbox           |
|  \\    /   O peration     | Version:  2.4.0                                 |
|   \\  /    A nd           | Web:      www.OpenFOAM.org                      |
|    \\/     M anipulation  |                                                 |
\*---------------------------------------------------------------------------*/
FoamFile
{
    version     2.0;
    format      ascii;
    class       surfaceScalarField;
    location    "0.056";
    object      phiAlpha;
}
// * * * * * * * * * * * * * * * * * * * * * * * * * * * * * * * * * * * * * //

dimensions      [0 3 -1 0 0 0 0];

internalField   nonuniform List<scalar> 
7080
(
-1.06811e-08
1.06811e-08
-2.09918e-08
1.03107e-08
-3.06148e-08
9.62305e-09
-3.91686e-08
8.55373e-09
-4.53177e-08
6.14911e-09
-4.72127e-08
1.89505e-09
-4.24046e-08
-4.80821e-09
-2.86065e-08
-1.37981e-08
-4.08822e-09
-2.45183e-08
3.02125e-08
-3.43007e-08
7.29987e-08
-4.27862e-08
1.20681e-07
-4.76824e-08
1.69229e-07
-4.85473e-08
2.1389e-07
-4.4662e-08
2.58805e-07
-4.49147e-08
2.74587e-07
-1.57819e-08
3.28513e-07
-5.39261e-08
1.90876e-07
1.37637e-07
-1.21067e-07
3.11753e-07
-3.60864e-07
2.38563e-07
-3.69579e-07
1.03658e-08
-3.16601e-07
-4.7328e-08
-1.27544e-07
-1.89316e-07
2.46699e-07
-3.74477e-07
4.14896e-07
-1.68408e-07
4.54843e-07
-3.19328e-08
3.81707e-07
7.4443e-08
2.48071e-07
1.33639e-07
1.12164e-07
1.35906e-07
1.13482e-07
-1.31755e-09
-1.33547e-08
2.40359e-08
-2.6605e-08
2.3561e-08
-3.95974e-08
2.26154e-08
-5.19191e-08
2.08754e-08
-6.19658e-08
1.61958e-08
-6.76674e-08
7.59666e-09
-6.61977e-08
-6.27793e-09
-5.4822e-08
-2.51737e-08
-3.14887e-08
-4.78516e-08
4.68896e-09
-7.04784e-08
4.95158e-08
-8.7613e-08
1.00283e-07
-9.84498e-08
1.51923e-07
-1.00187e-07
1.98576e-07
-9.13152e-08
2.42857e-07
-8.9196e-08
2.62402e-07
-3.53265e-08
3.04662e-07
-9.61862e-08
2.38011e-07
2.04288e-07
-5.6817e-09
5.55429e-07
-2.76338e-07
5.08409e-07
-3.65399e-07
1.00634e-07
-2.50437e-07
-1.62997e-07
-3.81895e-08
-4.05609e-07
1.56878e-07
-5.69778e-07
2.81227e-07
-2.89427e-07
2.61446e-07
-9.57511e-09
2.03788e-07
1.32104e-07
1.3686e-07
2.00568e-07
5.08433e-08
2.21923e-07
1.66484e-07
-2.15816e-09
-1.36704e-08
3.77062e-08
-2.73128e-08
3.72034e-08
-4.08348e-08
3.61375e-08
-5.38644e-08
3.39049e-08
-6.48214e-08
2.71529e-08
-7.16533e-08
1.44286e-08
-7.15305e-08
-6.40077e-09
-6.16508e-08
-3.50534e-08
-3.98451e-08
-6.96573e-08
-5.18446e-09
-1.05139e-07
3.86299e-08
-1.31427e-07
8.79675e-08
-1.47787e-07
1.37607e-07
-1.49826e-07
1.81814e-07
-1.35522e-07
2.20537e-07
-1.27919e-07
2.38683e-07
-5.34725e-08
2.51601e-07
-1.09104e-07
2.49779e-07
2.0611e-07
1.49955e-07
6.55357e-07
-5.00318e-08
7.07593e-07
-8.57556e-08
1.36364e-07
2.93895e-09
-2.51692e-07
9.69374e-08
-4.99607e-07
8.70112e-08
-5.72166e-07
1.02913e-07
-3.06888e-07
1.1988e-07
-2.60704e-08
1.1374e-07
1.38244e-07
1.00327e-07
2.13981e-07
5.62421e-08
2.66008e-07
2.17845e-07
4.88088e-09
-1.36934e-08
5.13996e-08
-2.73805e-08
5.08905e-08
-4.09821e-08
4.97391e-08
-5.4149e-08
4.70718e-08
-6.53343e-08
3.83382e-08
-7.24982e-08
2.15925e-08
-7.28151e-08
-6.08396e-09
-6.34391e-08
-4.44294e-08
-4.20694e-08
-9.10269e-08
-7.69567e-09
-1.39513e-07
3.61794e-08
-1.75302e-07
8.56797e-08
-1.97288e-07
1.3536e-07
-1.99507e-07
1.80208e-07
-1.80369e-07
2.16166e-07
-1.63878e-07
2.42245e-07
-7.95511e-08
2.33804e-07
-1.00663e-07
2.66791e-07
1.73122e-07
3.57697e-07
5.64451e-07
2.74256e-07
7.9203e-07
1.69605e-07
2.41502e-07
8.41609e-08
-1.66248e-07
1.0193e-07
-5.17377e-07
1.31435e-07
-6.01671e-07
7.28722e-08
-2.50345e-07
7.09974e-08
-2.39284e-08
1.29585e-07
7.96563e-08
1.39355e-07
2.04211e-07
1.01218e-07
3.04144e-07
3.31318e-07
-1.22554e-08
-1.36788e-08
6.50784e-08
-2.7367e-08
6.45788e-08
-4.09896e-08
6.33616e-08
-5.42188e-08
6.03011e-08
-6.55461e-08
4.96654e-08
-7.29442e-08
2.89907e-08
-7.36033e-08
-5.42485e-09
-6.46411e-08
-5.33916e-08
-4.36185e-08
-1.1205e-07
-9.38723e-09
-1.73744e-07
3.46531e-08
-2.19342e-07
8.46595e-08
-2.47294e-07
1.35035e-07
-2.49882e-07
1.81372e-07
-2.26707e-07
2.15871e-07
-1.98377e-07
2.53847e-07
-1.17527e-07
2.32357e-07
-7.91724e-08
2.85562e-07
1.19918e-07
4.72139e-07
3.77874e-07
5.08959e-07
7.56117e-07
4.68158e-07
2.82807e-07
3.6073e-07
-5.8724e-08
2.1966e-07
-3.76307e-07
1.32355e-07
-5.14367e-07
9.01262e-08
-2.10082e-07
3.93498e-08
2.70284e-08
3.7531e-08
8.14751e-08
5.76553e-08
1.84087e-07
4.75233e-08
3.14276e-07
3.70174e-07
8.66737e-09
-1.36554e-08
7.87338e-08
-2.73385e-08
7.82619e-08
-4.09773e-08
7.70004e-08
-5.42697e-08
7.35935e-08
-6.57544e-08
6.11501e-08
-7.34204e-08
3.66567e-08
-7.44804e-08
-4.36479e-09
-6.60173e-08
-6.18547e-08
-4.54245e-08
-1.32642e-07
-1.13618e-08
-2.07807e-07
3.28958e-08
-2.636e-07
8.35527e-08
-2.97951e-07
1.34816e-07
-3.01145e-07
1.83065e-07
-2.74956e-07
2.17405e-07
-2.32717e-07
2.67791e-07
-1.67912e-07
2.59441e-07
-7.08231e-08
2.83791e-07
9.55674e-08
5.11683e-07
1.49982e-07
6.08593e-07
6.59207e-07
5.77689e-07
3.13709e-07
4.70375e-07
4.859e-08
3.51459e-07
-2.57392e-07
2.55332e-07
-4.18241e-07
2.23208e-07
-1.78816e-07
9.52406e-08
1.55252e-07
-5.54243e-09
1.82284e-07
-5.84032e-09
1.84385e-07
-1.11776e-08
3.19613e-07
3.64516e-07
-5.5195e-09
-1.36261e-08
9.23599e-08
-2.73017e-08
9.19375e-08
-4.09579e-08
9.06566e-08
-5.43231e-08
8.69587e-08
-6.59937e-08
7.28207e-08
-7.39776e-08
4.46406e-08
-7.55191e-08
-2.82333e-09
-6.7663e-08
-6.97107e-08
-4.76008e-08
-1.52704e-07
-1.37416e-08
-2.41666e-07
3.07578e-08
-3.08099e-07
8.21797e-08
-3.49373e-07
1.3461e-07
-3.53575e-07
1.84704e-07
-3.2505e-07
2.20041e-07
-2.68055e-07
2.80988e-07
-2.28859e-07
2.70555e-07
-6.039e-08
2.79666e-07
8.64563e-08
5.30808e-07
-1.0116e-07
6.472e-07
5.42815e-07
5.96263e-07
3.64644e-07
5.00562e-07
1.4429e-07
3.06594e-07
-6.34241e-08
1.40085e-07
-2.51844e-07
5.29317e-08
-9.25717e-08
-1.30967e-08
2.21553e-07
-8.16992e-08
2.50887e-07
-9.49347e-08
1.9762e-07
-5.71107e-08
2.81789e-07
3.10001e-07
-2.59594e-09
-1.35911e-08
1.05951e-07
-2.72572e-08
1.05604e-07
-4.09322e-08
1.04332e-07
-5.438e-08
1.00407e-07
-6.62658e-08
8.47065e-08
-7.46187e-08
5.29936e-08
-7.67246e-08
-7.1743e-10
-6.95892e-08
-7.68461e-08
-5.01645e-08
-1.72129e-07
-1.65498e-08
-2.75281e-07
2.82447e-08
-3.52894e-07
8.05237e-08
-4.01652e-07
1.34359e-07
-4.0741e-07
1.86027e-07
-3.76718e-07
2.25795e-07
-3.07823e-07
2.89948e-07
-2.93012e-07
3.0969e-07
-8.01315e-08
2.66749e-07
1.29396e-07
5.25177e-07
-3.59588e-07
7.24907e-07
3.43086e-07
6.73162e-07
4.16386e-07
6.19117e-07
1.98335e-07
5.03884e-07
5.18083e-08
2.88847e-07
-3.6807e-08
1.5601e-07
3.9297e-08
7.75185e-08
2.99092e-07
-9.38016e-09
3.37786e-07
-7.87989e-08
2.67039e-07
-5.84515e-08
2.61442e-07
2.4466e-07
6.88953e-09
-1.35504e-08
1.19502e-07
-2.72046e-08
1.19258e-07
-4.08995e-08
1.18027e-07
-5.44389e-08
1.13946e-07
-6.65687e-08
9.68363e-08
-7.53408e-08
6.17657e-08
-7.80952e-08
2.03696e-09
-7.17985e-08
-8.31427e-08
-5.31247e-08
-1.90803e-07
-1.98006e-08
-3.08605e-07
2.52966e-08
-3.97991e-07
7.85511e-08
-4.54907e-07
1.34012e-07
-4.62871e-07
1.86427e-07
-4.29133e-07
2.36145e-07
-3.57541e-07
2.82501e-07
-3.39368e-07
3.49271e-07
-1.46901e-07
3.73283e-07
1.05384e-07
5.08398e-07
-4.94703e-07
7.14339e-07
1.37143e-07
7.3993e-07
3.90795e-07
7.28405e-07
2.0986e-07
6.91164e-07
8.90501e-08
5.62534e-07
9.18233e-08
4.21946e-07
1.78597e-07
3.28228e-07
3.92051e-07
1.86658e-07
4.78646e-07
4.16256e-08
4.12067e-07
7.69915e-09
2.95368e-07
2.39845e-07
1.25139e-08
-1.35039e-08
1.33005e-07
-2.7144e-08
1.32898e-07
-4.08593e-08
1.31742e-07
-5.44979e-08
1.27585e-07
-6.68999e-08
1.09238e-07
-7.6139e-08
7.10048e-08
-7.96279e-08
5.52581e-09
-7.42924e-08
-8.84782e-08
-5.64911e-08
-2.08604e-07
-2.35118e-08
-3.41584e-07
2.19262e-08
-4.43429e-07
7.62155e-08
-5.09196e-07
1.33588e-07
-5.20243e-07
1.86622e-07
-4.82167e-07
2.46512e-07
-4.17431e-07
2.65195e-07
-3.58051e-07
3.64303e-07
-2.46009e-07
4.94183e-07
-2.44954e-08
4.28854e-07
-4.29374e-07
4.83538e-07
8.24592e-08
6.48225e-07
2.26109e-07
7.40694e-07
1.17391e-07
7.11163e-07
1.18581e-07
6.1091e-07
1.92076e-07
4.69226e-07
3.20282e-07
3.40087e-07
5.20513e-07
1.97085e-07
6.21135e-07
6.25282e-08
5.4631e-07
-9.9652e-09
3.67862e-07
2.42724e-07
-1.28438e-08
-1.34514e-08
1.46457e-07
-2.70749e-08
1.46521e-07
-4.08107e-08
1.45478e-07
-5.45548e-08
1.41329e-07
-6.72564e-08
1.2194e-07
-7.70092e-08
8.07577e-08
-8.13178e-08
9.83445e-09
-7.70725e-08
-9.27234e-08
-6.02749e-08
-2.25402e-07
-2.77024e-08
-3.74157e-07
1.80887e-08
-4.8922e-07
7.36015e-08
-5.64709e-07
1.32693e-07
-5.79334e-07
1.8743e-07
-5.36905e-07
2.50817e-07
-4.80818e-07
2.59515e-07
-3.66749e-07
3.82801e-07
-3.69295e-07
5.07331e-07
-1.49025e-07
3.90949e-07
-3.12993e-07
4.92418e-07
-1.90091e-08
6.73202e-07
4.53239e-08
7.86022e-07
4.57164e-09
7.71785e-07
1.32818e-07
6.51276e-07
3.12585e-07
4.28974e-07
5.42583e-07
2.83417e-07
6.65375e-07
2.00035e-07
7.04004e-07
1.34454e-07
6.11803e-07
6.76754e-08
4.34668e-07
3.15049e-07
-4.64946e-09
-1.33928e-08
1.5985e-07
-2.69972e-08
1.60126e-07
-4.07533e-08
1.59234e-07
-5.46073e-08
1.55183e-07
-6.7635e-08
1.34968e-07
-7.79458e-08
9.10684e-08
-8.31599e-08
1.50486e-08
-8.01404e-08
-9.57429e-08
-6.44877e-08
-2.41054e-07
-3.2395e-08
-4.06249e-07
1.37502e-08
-5.35365e-07
7.05689e-08
-6.21528e-07
1.31567e-07
-6.40332e-07
1.89247e-07
-5.94585e-07
2.47549e-07
-5.3912e-07
2.91875e-07
-4.11074e-07
3.54597e-07
-4.32018e-07
4.86578e-07
-2.81005e-07
4.65278e-07
-2.91693e-07
6.66738e-07
-2.20469e-07
7.91384e-07
-7.93215e-08
9.16867e-07
-1.20911e-07
8.64958e-07
1.84625e-07
6.47003e-07
5.3054e-07
4.35763e-07
7.53822e-07
2.84722e-07
8.168e-07
2.4147e-07
7.46743e-07
2.07193e-07
6.48231e-07
1.25087e-07
5.16833e-07
4.38582e-07
1.55323e-09
-1.33282e-08
1.73178e-07
-2.69106e-08
1.73708e-07
-4.06884e-08
1.73011e-07
-5.46524e-08
1.69147e-07
-6.80321e-08
1.48348e-07
-7.89425e-08
1.01979e-07
-8.51486e-08
2.12547e-08
-8.34981e-08
-9.73934e-08
-6.91426e-08
-2.5541e-07
-3.76162e-08
-4.37776e-07
8.90995e-09
-5.81891e-07
6.71438e-08
-6.79762e-07
1.30168e-07
-7.03356e-07
1.90542e-07
-6.54959e-07
2.45837e-07
-5.94415e-07
3.04572e-07
-4.6981e-07
3.57136e-07
-4.84581e-07
3.95533e-07
-3.19402e-07
5.06043e-07
-4.02203e-07
8.43623e-07
-5.5805e-07
9.45877e-07
-1.81576e-07
1.01229e-06
-1.86643e-07
8.78216e-07
2.95352e-07
6.34217e-07
7.67274e-07
5.27433e-07
8.60549e-07
4.22651e-07
9.21679e-07
3.08384e-07
8.64388e-07
2.08227e-07
7.50056e-07
1.03966e-07
6.2126e-07
5.45669e-07
-3.12287e-09
-1.32572e-08
1.86435e-07
-2.68148e-08
1.87266e-07
-4.06161e-08
1.86813e-07
-5.46869e-08
1.83217e-07
-6.84439e-08
1.62104e-07
-7.99919e-08
1.13527e-07
-8.72753e-08
2.85382e-08
-8.71459e-08
-9.75228e-08
-7.42546e-08
-2.68301e-07
-4.33971e-08
-4.68633e-07
3.57348e-09
-6.28861e-07
6.32486e-08
-7.39437e-07
1.28524e-07
-7.68632e-07
1.91361e-07
-7.17796e-07
2.45479e-07
-6.48533e-07
3.10649e-07
-5.34979e-07
3.49488e-07
-5.2342e-07
3.69242e-07
-3.39156e-07
6.01465e-07
-6.34426e-07
8.29158e-07
-7.85742e-07
1.01552e-06
-3.67939e-07
1.11531e-06
-2.86479e-07
9.34983e-07
4.35147e-07
7.29461e-07
9.5843e-07
5.88344e-07
1.00579e-06
4.25342e-07
1.08491e-06
2.99043e-07
9.90708e-07
1.74324e-07
8.74792e-07
8.36098e-08
7.12157e-07
6.25534e-07
3.75202e-09
-1.31799e-08
1.99615e-07
-2.67094e-08
2.00795e-07
-4.05364e-08
2.0064e-07
-5.47072e-08
1.97388e-07
-6.88661e-08
1.76263e-07
-8.10854e-08
1.25746e-07
-8.95323e-08
3.6985e-08
-9.10853e-08
-9.59698e-08
-7.98372e-08
-2.79549e-07
-4.97751e-08
-4.98695e-07
-2.80595e-09
-6.75831e-07
5.89246e-08
-8.01167e-07
1.26694e-07
-8.36401e-07
1.91604e-07
-7.82705e-07
2.4601e-07
-7.02939e-07
3.14545e-07
-6.03515e-07
3.20382e-07
-5.29256e-07
4.20445e-07
-4.3922e-07
7.36843e-07
-9.50824e-07
7.85636e-07
-8.34536e-07
9.6338e-07
-5.4568e-07
9.41553e-07
-3.89428e-07
6.95884e-07
4.66359e-07
4.54961e-07
1.13728e-06
3.50339e-07
1.11092e-06
3.0049e-07
1.13482e-06
2.36409e-07
1.05479e-06
1.51072e-07
9.60131e-07
7.37984e-08
7.89438e-07
6.98705e-07
6.35679e-10
-1.30962e-08
2.12711e-07
-2.6594e-08
2.14293e-07
-4.0449e-08
2.14495e-07
-5.471e-08
2.11649e-07
-6.92944e-08
1.90848e-07
-8.22134e-08
1.38665e-07
-9.19074e-08
4.6679e-08
-9.53153e-08
-9.25619e-08
-8.5907e-08
-2.88958e-07
-5.67836e-08
-5.27819e-07
-9.78509e-09
-7.22829e-07
5.4032e-08
-8.64984e-07
1.24424e-07
-9.06793e-07
1.91008e-07
-8.49289e-07
2.47116e-07
-7.59047e-07
3.14323e-07
-6.70723e-07
2.70791e-07
-4.85724e-07
4.57394e-07
-6.25823e-07
7.454e-07
-1.23883e-06
7.51943e-07
-8.41079e-07
8.62548e-07
-6.70394e-07
4.48009e-07
-1.39841e-07
2.08847e-07
9.26047e-08
1.30781e-07
8.30955e-07
9.1298e-08
1.15042e-06
8.66623e-08
1.13946e-06
8.61961e-08
1.05526e-06
5.26461e-08
9.93681e-07
1.48367e-08
8.27247e-07
7.19326e-07
-5.7839e-09
-1.30059e-08
2.25717e-07
-2.64685e-08
2.27756e-07
-4.03533e-08
2.2838e-07
-5.46943e-08
2.2599e-07
-6.97243e-08
2.05878e-07
-8.33645e-08
1.52305e-07
-9.43874e-08
5.77019e-08
-9.98347e-08
-8.71145e-08
-9.24799e-08
-2.96312e-07
-6.44555e-08
-5.55843e-07
-1.74201e-08
-7.69865e-07
4.83877e-08
-9.30792e-07
1.20976e-07
-9.79381e-07
1.88106e-07
-9.1642e-07
2.47747e-07
-8.18687e-07
3.15033e-07
-7.38009e-07
2.81811e-07
-4.52502e-07
4.91144e-07
-8.35156e-07
6.12529e-07
-1.36021e-06
5.9465e-07
-8.23195e-07
2.10148e-07
-5.32721e-07
3.33225e-08
-1.0329e-08
-5.60431e-08
2.98556e-08
-6.24621e-08
8.15985e-08
-1.0822e-07
9.28111e-07
-1.05476e-07
1.13672e-06
-7.80423e-08
1.02783e-06
-2.85537e-08
9.44193e-07
-2.39788e-08
8.22673e-07
7.05088e-07
-9.74125e-09
-1.2909e-08
2.38626e-07
-2.63326e-08
2.41179e-07
-4.0249e-08
2.42296e-07
-5.46584e-08
2.40399e-07
-7.01511e-08
2.21371e-07
-8.45253e-08
1.6668e-07
-9.6952e-08
7.01286e-08
-1.04638e-07
-7.94288e-08
-9.95725e-08
-3.01378e-07
-7.28304e-08
-5.82585e-07
-2.58586e-08
-8.16836e-07
4.15218e-08
-9.98173e-07
1.14566e-07
-1.05243e-06
1.79249e-07
-9.81103e-07
2.4523e-07
-8.84668e-07
3.04312e-07
-7.97091e-07
3.74271e-07
-5.2246e-07
5.55887e-07
-1.01677e-06
4.97701e-07
-1.30203e-06
3.11255e-07
-6.45026e-07
2.96311e-08
-1.39867e-07
1.88484e-08
-1.33789e-11
2.83849e-08
1.25757e-08
-1.72125e-08
5.91702e-09
-1.23321e-07
1.67951e-07
-9.32711e-08
9.17746e-07
-8.70837e-08
1.02164e-06
-2.50906e-08
8.822e-07
-2.03428e-08
8.17925e-07
6.89618e-07
-4.87285e-09
-1.2805e-08
2.51431e-07
-2.6186e-08
2.5456e-07
-4.01354e-08
2.56245e-07
-5.46004e-08
2.54865e-07
-7.05702e-08
2.3734e-07
-8.56806e-08
1.8179e-07
-9.95743e-08
8.40222e-08
-1.09717e-07
-6.92857e-08
-1.07204e-07
-3.03891e-07
-8.19595e-08
-6.07829e-07
-3.53659e-08
-8.6343e-07
3.1831e-08
-1.06537e-06
1.01789e-07
-1.12238e-06
1.60648e-07
-1.03996e-06
2.32791e-07
-9.56811e-07
2.8612e-07
-8.50421e-07
4.51829e-07
-6.88169e-07
5.98509e-07
-1.16345e-06
3.66969e-07
-1.07048e-06
9.89941e-08
-4.58743e-07
-1.69101e-10
-4.08673e-08
8.18705e-11
-5.63132e-10
8.89809e-09
3.424e-09
9.79738e-09
3.99466e-09
-1.41113e-08
1.27498e-08
-1.31567e-08
9.91323e-08
-2.65697e-09
5.81093e-07
6.52792e-09
7.16088e-07
7.80584e-09
8.16647e-07
6.87088e-07
1.03364e-08
-1.26935e-08
2.64125e-07
-2.60282e-08
2.67895e-07
-4.00116e-08
2.70229e-07
-5.45184e-08
2.69371e-07
-7.09777e-08
2.538e-07
-8.68122e-08
1.97625e-07
-1.0221e-07
9.94197e-08
-1.15085e-07
-5.641e-08
-1.15399e-07
-3.03577e-07
-9.19319e-08
-6.31297e-07
-4.64657e-08
-9.08896e-07
1.71594e-08
-1.12899e-06
8.02112e-08
-1.18543e-06
1.34989e-07
-1.09474e-06
2.11009e-07
-1.03283e-06
2.6778e-07
-9.07192e-07
4.6551e-07
-8.859e-07
5.65106e-07
-1.26305e-06
5.26107e-07
-1.03143e-06
3.78148e-08
-2.24064e-07
2.03555e-10
-1.45679e-09
4.86068e-11
-4.04822e-11
2.03491e-09
6.81644e-10
4.36367e-09
1.20863e-09
8.51058e-09
5.26049e-09
3.06616e-08
6.44136e-09
3.4032e-08
2.08704e-08
3.03786e-08
6.04369e-08
2.76094e-08
1.70372e-07
1.86445e-07
2.85181e-09
-1.25737e-08
2.76698e-07
-2.58591e-08
2.8118e-07
-3.98766e-08
2.84246e-07
-5.44102e-08
2.83905e-07
-7.13728e-08
2.70762e-07
-8.79017e-08
2.14154e-07
-1.04864e-07
1.16382e-07
-1.20741e-07
-4.05333e-08
-1.24166e-07
-3.00152e-07
-1.0286e-07
-6.52602e-07
-5.99501e-08
-9.51806e-07
-2.20949e-09
-1.18674e-06
5.54316e-08
-1.24308e-06
1.19299e-07
-1.15861e-06
1.89357e-07
-1.10289e-06
2.75728e-07
-9.93563e-07
3.79171e-07
-9.89343e-07
4.3869e-07
-1.32259e-06
1.05345e-07
-5.76268e-07
9.00986e-11
-2.45238e-08
1.69626e-11
-1.20046e-09
-4.937e-11
-2.04905e-11
3.17635e-10
8.27091e-11
1.1134e-09
2.65734e-10
4.25304e-09
1.15229e-09
8.78584e-09
1.43088e-09
1.77769e-08
5.80568e-09
1.66957e-08
3.44344e-09
1.66474e-08
5.56736e-10
-2.30008e-09
-7.5883e-10
-1.2445e-08
2.89143e-07
-2.56784e-08
2.94414e-07
-3.97289e-08
2.98297e-07
-5.42736e-08
2.9845e-07
-7.1757e-08
2.88246e-07
-8.89604e-08
2.31357e-07
-1.07547e-07
1.34969e-07
-1.267e-07
-2.13804e-08
-1.33588e-07
-2.93265e-07
-1.15085e-07
-6.71106e-07
-7.6463e-08
-9.90427e-07
-2.30439e-08
-1.24015e-06
4.112e-08
-1.30724e-06
1.20697e-07
-1.23818e-06
1.71401e-07
-1.15359e-06
2.80928e-07
-1.10309e-06
2.6168e-07
-9.70094e-07
1.64851e-07
-1.22572e-06
1.31672e-08
-3.73443e-07
9.57805e-10
-1.44107e-08
6.51439e-11
-3.21096e-10
-2.55123e-12
8.51712e-12
3.48281e-11
1.50981e-11
2.11884e-10
5.38233e-11
9.67206e-10
2.09476e-10
1.9904e-09
3.46436e-10
5.60196e-09
1.04363e-09
6.69098e-09
5.91062e-10
4.68905e-09
2.52394e-10
4.65843e-11
-1.82559e-10
-1.23063e-08
3.0145e-07
-2.54865e-08
3.07594e-07
-3.95667e-08
3.12377e-07
-5.41065e-08
3.12989e-07
-7.21321e-08
3.06271e-07
-8.99885e-08
2.49213e-07
-1.10269e-07
1.5525e-07
-1.32931e-07
1.28108e-09
-1.43559e-07
-2.82637e-07
-1.28339e-07
-6.86325e-07
-9.3769e-08
-1.025e-06
-3.5623e-08
-1.2983e-06
4.84911e-08
-1.39135e-06
1.16877e-07
-1.30657e-06
1.53977e-07
-1.19069e-06
2.27861e-07
-1.17697e-06
2.93928e-07
-1.03616e-06
3.22063e-07
-9.90146e-07
1.41409e-08
-6.6387e-08
3.37471e-10
-5.28401e-10
-3.98193e-12
1.09669e-11
-8.57484e-13
4.19444e-12
4.2775e-12
5.77176e-12
3.51882e-11
1.4026e-11
1.55962e-10
5.35075e-11
3.82948e-10
1.03096e-10
1.00643e-09
2.02401e-10
1.0463e-09
1.94786e-10
6.87707e-10
1.85107e-10
1.43409e-10
-2.10319e-11
-1.21566e-08
3.13606e-07
-2.52839e-08
3.20721e-07
-3.93875e-08
3.26481e-07
-5.39063e-08
3.27508e-07
-7.24955e-08
3.24861e-07
-9.0962e-08
2.6768e-07
-1.12986e-07
1.77274e-07
-1.39497e-07
2.77918e-08
-1.54494e-07
-2.67639e-07
-1.43545e-07
-6.97275e-07
-1.1178e-07
-1.05676e-06
-4.59987e-08
-1.36408e-06
4.97342e-08
-1.48709e-06
7.76984e-08
-1.33454e-06
1.52366e-07
-1.26536e-06
1.73101e-07
-1.1977e-06
2.67119e-07
-1.13007e-06
3.3389e-08
-4.33752e-07
1.68746e-10
-3.1637e-08
7.98188e-12
-3.0068e-10
4.50017e-12
8.77055e-12
2.66266e-13
3.63723e-12
1.29682e-12
3.942e-12
6.77964e-12
4.63969e-12
2.60718e-11
2.63194e-11
7.6361e-11
3.53761e-11
1.99884e-10
5.11791e-11
2.3045e-10
6.51124e-11
1.69254e-10
7.27512e-11
6.88597e-11
-2.3553e-12
-1.19945e-08
3.25601e-07
-2.50717e-08
3.33798e-07
-3.91889e-08
3.40598e-07
-5.36726e-08
3.41992e-07
-7.28511e-08
3.44039e-07
-9.18755e-08
2.86704e-07
-1.15717e-07
2.01116e-07
-1.46238e-07
5.83126e-08
-1.65352e-07
-2.48525e-07
-1.57516e-07
-7.05111e-07
-1.25722e-07
-1.08856e-06
-6.03588e-08
-1.42944e-06
2.97852e-08
-1.57723e-06
5.59438e-08
-1.36069e-06
1.6333e-07
-1.37274e-06
9.72611e-08
-1.13155e-06
3.39502e-07
-1.01315e-06
2.94117e-08
-8.69828e-08
-1.54717e-10
-2.35815e-09
4.30998e-11
-3.62528e-10
8.60957e-12
4.31715e-11
1.56158e-12
9.78732e-12
1.25711e-12
3.76579e-12
7.59968e-12
1.36282e-11
7.42018e-12
2.14549e-11
1.825e-11
2.17745e-11
4.31349e-11
1.9062e-11
5.70772e-11
2.4149e-11
4.56701e-11
3.09723e-11
3.2137e-11
2.35059e-12
-1.18187e-08
3.37419e-07
-2.48505e-08
3.4683e-07
-3.89654e-08
3.54713e-07
-5.33971e-08
3.56423e-07
-7.3182e-08
3.63824e-07
-9.2665e-08
3.06187e-07
-1.18356e-07
2.26807e-07
-1.53526e-07
9.34829e-08
-1.78664e-07
-2.23387e-07
-1.76158e-07
-7.07617e-07
-1.47107e-07
-1.11761e-06
-9.01096e-08
-1.48644e-06
6.40737e-09
-1.67375e-06
7.48146e-08
-1.4291e-06
7.58415e-08
-1.37374e-06
2.03689e-07
-1.2067e-06
7.22878e-08
-2.43844e-07
-3.9414e-10
-1.38868e-08
-1.00458e-09
-1.06902e-09
-3.83623e-11
-8.05003e-10
1.59891e-12
3.62075e-12
7.84025e-13
1.0084e-11
6.98939e-13
3.3854e-12
4.23421e-12
1.65108e-11
3.51226e-12
2.05569e-11
7.13553e-12
1.86663e-11
1.11544e-11
1.37051e-11
1.49656e-11
9.824e-12
1.30599e-11
1.04617e-11
1.5002e-11
2.14383e-12
-1.16311e-08
3.49051e-07
-2.46255e-08
3.59825e-07
-3.87207e-08
3.68808e-07
-5.3099e-08
3.70802e-07
-7.35298e-08
3.84255e-07
-9.33931e-08
3.26051e-07
-1.20949e-07
2.54363e-07
-1.60274e-07
1.32807e-07
-1.87353e-07
-1.96307e-07
-1.82919e-07
-7.12051e-07
-1.55914e-07
-1.14461e-06
-9.6889e-08
-1.54547e-06
4.76221e-08
-1.81826e-06
9.15956e-08
-1.47305e-06
6.2932e-08
-1.34465e-06
1.66856e-07
-3.73326e-07
1.41008e-08
-1.11099e-08
1.14635e-09
-9.39591e-10
6.17139e-11
1.82817e-11
2.64722e-12
-3.18261e-12
1.80723e-10
-5.24136e-11
5.3147e-12
1.37333e-10
1.08893e-12
7.14391e-12
5.62464e-12
1.03463e-11
1.14285e-11
3.40639e-10
8.51499e-13
2.7632e-11
2.85954e-12
1.3583e-11
4.07198e-12
3.82821e-12
3.64822e-12
8.36577e-12
8.50833e-12
1.16012e-12
-1.14606e-08
3.60511e-07
-2.43847e-08
3.72749e-07
-3.84196e-08
3.82843e-07
-5.26989e-08
3.85081e-07
-7.37515e-08
4.05307e-07
-9.38713e-08
3.4617e-07
-1.233e-07
2.83791e-07
-1.67998e-07
1.77505e-07
-2.06081e-07
-1.58224e-07
-2.21269e-07
-6.96864e-07
-2.05271e-07
-1.16061e-06
-1.28531e-07
-1.62221e-06
4.58062e-08
-1.9926e-06
2.27904e-08
-1.44994e-06
2.28626e-07
-6.7502e-07
9.64921e-09
-1.8926e-08
8.26366e-10
-2.48971e-09
6.77706e-11
-2.52118e-10
6.8682e-11
1.03043e-11
3.21202e-11
3.62104e-11
-1.57856e-11
1.08486e-10
3.71158e-12
9.41115e-11
2.29686e-12
8.27564e-12
1.0645e-11
7.91023e-12
1.73861e-11
5.08468e-10
4.33608e-13
2.90461e-11
6.72902e-13
1.24262e-11
1.14262e-12
4.27361e-12
1.02815e-12
9.08917e-12
7.09962e-12
5.70506e-13
-1.19282e-08
3.72439e-07
-2.43363e-08
3.85157e-07
-3.8509e-08
3.97015e-07
-5.29543e-08
3.99526e-07
-7.4594e-08
4.26947e-07
-9.43198e-08
3.65896e-07
-1.25662e-07
3.15134e-07
-1.78606e-07
2.30449e-07
-2.18966e-07
-1.17863e-07
-2.11936e-07
-7.03894e-07
-1.57665e-07
-1.21488e-06
-4.45698e-08
-1.73536e-06
1.45098e-07
-2.18909e-06
2.55275e-08
-1.01814e-06
1.9388e-08
-8.82272e-08
2.36642e-09
-4.355e-09
2.94499e-10
-8.02148e-10
3.0764e-11
-4.5918e-11
2.43571e-11
1.71374e-11
4.61249e-11
1.40426e-11
1.50678e-10
4.56616e-11
2.56864e-11
2.74054e-10
4.79951e-12
2.78756e-11
1.62755e-11
2.13217e-11
1.63372e-12
4.98323e-10
-5.70789e-13
1.29749e-10
-2.78e-13
1.49727e-11
6.27989e-14
8.44155e-12
2.40936e-13
1.09151e-11
8.74072e-12
3.39153e-13
7.16299e-09
3.65276e-07
-1.7208e-08
4.09528e-07
-3.01754e-08
4.09983e-07
-4.45016e-08
4.13853e-07
-6.96074e-08
4.52053e-07
-9.46131e-08
3.90902e-07
-1.29158e-07
3.49679e-07
-1.76539e-07
2.7783e-07
-2.10724e-07
-8.36789e-08
-2.25594e-07
-6.89023e-07
-2.46009e-07
-1.19447e-06
-2.15879e-07
-1.76548e-06
-1.44826e-08
-2.38225e-06
6.50374e-08
-2.88045e-07
4.09802e-09
-3.33362e-08
7.03557e-10
-1.56526e-09
6.20078e-11
-2.39768e-10
2.62551e-11
-1.71769e-11
2.24583e-11
1.98953e-11
2.30045e-11
1.40067e-11
2.55557e-10
1.25997e-10
1.20853e-10
5.00732e-10
-1.17718e-12
8.80576e-11
-1.32299e-11
4.96352e-11
-1.92442e-11
4.61733e-10
-6.12095e-12
5.57642e-10
-1.78467e-12
1.45524e-11
-5.95372e-13
1.22315e-11
-1.18707e-13
1.13716e-11
1.97184e-13
1.04534e-11
-1.13708e-07
1.1239e-07
-2.48427e-07
1.34719e-07
-3.82259e-07
1.33834e-07
-4.55148e-07
7.4467e-08
-4.15512e-07
-3.19354e-08
-2.47725e-07
-1.67993e-07
1.2616e-07
-3.74114e-07
3.14152e-07
-1.88247e-07
3.68249e-07
-4.84156e-08
3.60473e-07
9.33527e-09
1.20789e-07
2.38516e-07
-1.9075e-07
3.11345e-07
-3.28232e-07
1.37482e-07
-2.74125e-07
-5.41077e-08
-2.58398e-07
-1.57267e-08
-2.13502e-07
-4.48962e-08
-1.68882e-07
-4.46195e-08
-1.20395e-07
-4.84871e-08
-7.2766e-08
-4.76291e-08
-3.00413e-08
-4.27247e-08
4.20963e-09
-3.42509e-08
2.86619e-08
-2.44522e-08
4.23921e-08
-1.37302e-08
4.71504e-08
-4.75827e-09
4.52514e-08
1.89902e-09
3.91241e-08
6.12723e-09
3.06149e-08
8.5093e-09
2.09991e-08
9.6158e-09
1.06921e-08
1.03069e-08
1.06921e-08
-5.58036e-08
1.66036e-07
-1.41545e-07
2.2046e-07
-2.07331e-07
1.99621e-07
-2.64423e-07
1.31562e-07
-2.83555e-07
-1.02023e-08
-1.58503e-07
-2.8977e-07
3.66827e-08
-5.69529e-07
2.48654e-07
-4.04234e-07
3.64168e-07
-1.64633e-07
2.75171e-07
9.95081e-08
5.12816e-09
5.0771e-07
-2.37927e-07
5.544e-07
-3.04391e-07
2.03946e-07
-2.61997e-07
-9.65012e-08
-2.4244e-07
-3.52837e-08
-1.98174e-07
-8.91621e-08
-1.51559e-07
-9.12343e-08
-9.99798e-08
-1.00066e-07
-4.92673e-08
-9.83416e-08
-4.50895e-09
-8.7483e-08
3.16085e-08
-7.03684e-08
5.48706e-08
-4.77142e-08
6.61708e-08
-2.50304e-08
6.75877e-08
-6.17515e-09
6.18861e-08
7.60066e-09
5.18656e-08
1.61478e-08
3.95975e-08
2.07774e-08
2.66125e-08
2.26008e-08
1.33667e-08
2.35527e-08
2.40589e-08
-5.06159e-08
2.21532e-07
-9.8854e-08
2.68698e-07
-1.13186e-07
2.13953e-07
-1.20943e-07
1.39319e-07
-1.04871e-07
-2.58145e-08
-8.8742e-08
-3.07411e-07
-9.91936e-08
-5.71335e-07
-4.84959e-09
-4.98578e-07
8.36848e-08
-2.53167e-07
4.80388e-08
1.35159e-07
-1.51102e-07
7.06022e-07
-2.49798e-07
6.53204e-07
-2.51308e-07
2.05456e-07
-2.38373e-07
-1.09436e-07
-2.20116e-07
-5.35406e-08
-1.81417e-07
-1.27861e-07
-1.37242e-07
-1.3541e-07
-8.76625e-08
-1.49646e-07
-3.83776e-08
-1.47627e-07
5.37484e-09
-1.31235e-07
3.99667e-08
-1.0496e-07
6.16994e-08
-6.94468e-08
7.15019e-08
-3.48329e-08
7.15711e-08
-6.24426e-09
6.47397e-08
1.4432e-08
5.38097e-08
2.70778e-08
4.0835e-08
3.37521e-08
2.73203e-08
3.61155e-08
1.36824e-08
3.71906e-08
3.77413e-08
-1.17731e-07
3.27008e-07
-1.5002e-07
3.00986e-07
-1.36354e-07
2.00288e-07
-7.6159e-08
7.91241e-08
-7.59029e-08
-2.57959e-08
-1.3237e-07
-2.52953e-07
-1.04169e-07
-5.99536e-07
-8.53616e-08
-5.17385e-07
-1.69638e-07
-1.6889e-07
-2.75245e-07
2.41265e-07
-3.58925e-07
7.90853e-07
-2.66614e-07
5.60893e-07
-2.33452e-07
1.72293e-07
-2.41983e-07
-1.00904e-07
-2.15725e-07
-7.97987e-08
-1.79813e-07
-1.63773e-07
-1.34993e-07
-1.8023e-07
-8.53763e-08
-1.99262e-07
-3.59274e-08
-1.97075e-07
7.88493e-09
-1.75048e-07
4.2192e-08
-1.39267e-07
6.34879e-08
-9.07427e-08
7.27855e-08
-4.41305e-08
7.24141e-08
-5.87289e-09
6.52512e-08
2.1595e-08
5.4094e-08
3.82351e-08
4.09828e-08
4.68632e-08
2.73884e-08
4.97099e-08
1.37055e-08
5.08735e-08
5.14468e-08
-3.56667e-08
3.71342e-07
-4.78465e-08
3.13166e-07
-3.07794e-08
1.83221e-07
-3.70734e-08
8.54182e-08
-9.12821e-08
2.85929e-08
-1.35632e-07
-2.10584e-07
-2.20218e-07
-5.14949e-07
-3.58296e-07
-3.79306e-07
-4.66897e-07
-6.0183e-08
-5.09794e-07
2.84616e-07
-4.72889e-07
7.5468e-07
-2.8516e-07
3.73164e-07
-2.31987e-07
1.1912e-07
-2.53579e-07
-7.93117e-08
-2.15403e-07
-1.17975e-07
-1.80975e-07
-1.98201e-07
-1.34661e-07
-2.26544e-07
-8.43533e-08
-2.4957e-07
-3.44011e-08
-2.47028e-07
9.57543e-09
-2.19024e-07
4.37412e-08
-1.73433e-07
6.46895e-08
-1.11691e-07
7.35723e-08
-5.30132e-08
7.28576e-08
-5.15825e-09
6.54613e-08
2.89914e-08
5.41636e-08
4.95327e-08
4.09912e-08
6.00356e-08
2.73753e-08
6.33259e-08
1.3691e-08
6.45579e-08
6.51378e-08
2.56666e-09
3.63256e-07
-3.02858e-09
3.18761e-07
-4.68587e-09
1.84878e-07
-9.34021e-08
1.74166e-07
-2.14871e-07
1.50354e-07
-2.49912e-07
-1.76385e-07
-3.51432e-07
-4.13429e-07
-4.69522e-07
-2.61216e-07
-5.78403e-07
4.86974e-08
-6.0986e-07
3.1607e-07
-5.11904e-07
6.56724e-07
-2.82863e-07
1.44123e-07
-2.59328e-07
9.55845e-08
-2.6745e-07
-7.11895e-08
-2.16918e-07
-1.68507e-07
-1.82663e-07
-2.32457e-07
-1.34437e-07
-2.7477e-07
-8.32499e-08
-3.00757e-07
-3.26439e-08
-2.97634e-07
1.15487e-08
-2.63217e-07
4.55472e-08
-2.07432e-07
6.6065e-08
-1.32209e-07
7.44474e-08
-6.13956e-08
7.33306e-08
-4.04142e-09
6.56675e-08
3.66545e-08
5.42143e-08
6.0986e-08
4.09802e-08
7.32697e-08
2.73474e-08
7.69587e-08
1.36677e-08
7.82375e-08
7.88055e-08
5.05458e-08
3.10114e-07
8.72728e-08
2.82034e-07
8.1265e-08
1.90886e-07
1.59134e-08
2.39518e-07
-4.80844e-08
2.14642e-07
-1.32761e-07
-9.25851e-08
-3.02421e-07
-2.43887e-07
-5.01467e-07
-6.21699e-08
-5.97408e-07
1.4464e-07
-6.48005e-07
3.66664e-07
-5.29676e-07
5.38395e-07
-2.78732e-07
-1.06822e-07
-2.70522e-07
8.73745e-08
-2.80572e-07
-6.11386e-08
-2.19534e-07
-2.29545e-07
-1.84293e-07
-2.67698e-07
-1.34224e-07
-3.24839e-07
-8.18791e-08
-3.53102e-07
-3.05076e-08
-3.49005e-07
1.39272e-08
-3.07651e-07
4.77237e-08
-2.41228e-07
6.77101e-08
-1.52195e-07
7.54837e-08
-6.91692e-08
7.38838e-08
-2.44159e-09
6.59043e-08
4.46341e-08
5.42675e-08
7.26228e-08
4.09624e-08
8.65748e-08
2.73113e-08
9.06098e-08
1.36386e-08
9.19102e-08
9.24441e-08
6.87316e-08
2.48272e-07
8.37253e-08
2.67041e-07
1.12893e-08
2.63322e-07
-8.18476e-08
3.32655e-07
-1.63084e-07
2.95012e-07
-2.94286e-07
3.76374e-08
-5.03899e-07
-3.42743e-08
-6.19367e-07
5.32975e-08
-6.73255e-07
1.98527e-07
-7.23858e-07
4.17266e-07
-5.24686e-07
3.39223e-07
-2.65965e-07
-3.65543e-07
-3.09344e-07
1.30754e-07
-2.89482e-07
-8.10009e-08
-2.25257e-07
-2.9377e-07
-1.8561e-07
-3.07345e-07
-1.33959e-07
-3.76489e-07
-8.02265e-08
-4.06834e-07
-2.79952e-08
-4.01236e-07
1.67338e-08
-3.5238e-07
5.02875e-08
-2.74782e-07
6.96356e-08
-1.71543e-07
7.66864e-08
-7.622e-08
7.45203e-08
-2.75513e-10
6.61734e-08
5.2981e-08
5.43242e-08
8.4472e-08
4.09386e-08
9.99604e-08
2.72675e-08
1.04281e-07
1.36038e-08
1.05574e-07
1.06048e-07
9.8079e-09
2.50978e-07
-3.01388e-08
3.06987e-07
-1.83105e-07
4.16289e-07
-3.34178e-07
4.83029e-07
-4.29305e-07
3.89419e-07
-5.66709e-07
1.7385e-07
-6.92368e-07
9.13845e-08
-7.29666e-07
9.05961e-08
-7.37626e-07
2.06487e-07
-7.13899e-07
3.93539e-07
-5.08012e-07
1.33336e-07
-3.74084e-07
-4.99471e-07
-3.48438e-07
1.05108e-07
-2.81905e-07
-1.47534e-07
-2.35577e-07
-3.40098e-07
-1.86003e-07
-3.56919e-07
-1.33608e-07
-4.28884e-07
-7.82584e-08
-4.62184e-07
-2.50531e-08
-4.54442e-07
1.99827e-08
-3.97416e-07
5.32478e-08
-3.08047e-07
7.18443e-08
-1.9014e-07
7.80542e-08
-8.24298e-08
7.52367e-08
2.54199e-09
6.64728e-08
6.17448e-08
5.43828e-08
9.6562e-08
4.09082e-08
1.13435e-07
2.72159e-08
1.17973e-07
1.35632e-08
1.19227e-07
1.19611e-07
-6.66326e-09
2.44798e-07
-6.93451e-08
3.69669e-07
-2.03695e-07
5.50291e-07
-3.469e-07
6.25744e-07
-4.77591e-07
5.19482e-07
-6.16153e-07
3.12413e-07
-7.14431e-07
1.89662e-07
-7.39275e-07
1.15441e-07
-6.4382e-07
1.11032e-07
-4.80783e-07
2.30501e-07
-4.28629e-07
8.11822e-08
-4.94327e-07
-4.33773e-07
-3.63735e-07
-2.5484e-08