/*--------------------------------*- C++ -*----------------------------------*\
| =========                 |                                                 |
| \\      /  F ield         | OpenFOAM: The Open Source CFD Toolbox           |
|  \\    /   O peration     | Version:  2.4.0                                 |
|   \\  /    A nd           | Web:      www.OpenFOAM.org                      |
|    \\/     M anipulation  |                                                 |
\*---------------------------------------------------------------------------*/
FoamFile
{
    version     2.0;
    format      ascii;
    class       volScalarField;
    location    "0.054";
    object      alpha.water;
}
// * * * * * * * * * * * * * * * * * * * * * * * * * * * * * * * * * * * * * //

dimensions      [0 0 0 0 0 0 0];

internalField   nonuniform List<scalar> 
3600
(
1
1.00002
1.00002
1.00002
1.00002
1.00001
1.00001
1.00001
1.00001
1.00001
1
1
1
1
1
1
1
1
1
1
1
1
1
1
1
1
1
1
1
1
1.00005
1.00004
1.00004
1.00003
1.00003
1.00002
1.00002
1.00001
1.00001
1.00001
1.00001
1.00001
1
1
1
1
1
1
1
1
1
1
1
1
1
1
1
1
1
1
1.00003
1.00003
1.00003
1.00002
1.00002
1.00002
1.00002
1.00001
1.00001
1.00001
1.00001
1
1
1
1
1
1
1
1
1
1
1
1
1
1
1
1
1
1
1
1.00003
1.00003
1.00003
1.00002
1.00002
1.00001
1.00001
1.00001
1.00001
1.00001
1
1
1
1
1
1
1
1
1
1
1
1
1
1
1
1
1
1
1
1
1.00003
1.00002
1.00002
1.00002
1.00001
1.00001
1.00001
1.00001
1.00001
1
1
1
1
1
1
1
1
1
1
1
1
1
1
1
1
1
1
1
1
1
1.00002
1.00002
1.00001
1.00001
1.00001
1.00001
1.00001
1
1
1
1
1
1
1
1
1
1
1
1
1
1
1
1
1
1
1
1
1
1
1
1.00001
1.00001
1.00001
1.00001
1.00001
1
1
1
1
1
1
1
1
1
1
1
1
1
1
1
1
1
1
1
1
1
1
1
1
1
1.00001
1
1
1
0.999999
1
1
1
1
1
1
1
1
1
1
1
1
1
1
1
1
1
1
1
1
1
1
1
1
1
0.999998
0.999996
0.999996
0.999997
0.999998
0.999999
0.999999
1
1
1
1
1
1
1
1
1
1
1
1
1
1
1
1
1
1
1
1
1
1
1
0.999992
0.999991
0.999994
0.999995
0.999996
0.999996
0.999998
0.999999
0.999999
1
1
1
1
1
1
1
1
1
1
1
1
1
1
1
1
1
1
1
1
1
0.999988
0.999989
0.999986
0.999987
0.99999
0.999995
0.999997
0.999998
0.999999
0.999999
1
1
1
1
1
1
1
1
1
1
1
1
1
1
1
1
1
1
1
1
0.999986
0.999986
0.999985
0.999985
0.999991
0.999995
0.999997
0.999997
0.999998
0.999999
0.999999
1
1
1
1
1
1
1
1
1
1
1
1
1
1
1
1
1
1
1
0.999985
0.999985
0.999986
0.999991
0.999996
0.999996
0.999996
0.999997
0.999997
0.999998
0.999999
1
1
1
1
1
1
1
1
1
1
1
1
1
1
1
1
1
1
1
0.999987
0.999985
0.999994
0.999995
0.999996
0.999995
0.999994
0.999996
0.999997
0.999998
0.999998
0.999999
1
1
1
1
1
1
1
1
1
1
1
1
1
1
1
1
1
1
0.999988
0.999992
0.999996
0.999996
0.99999
0.99999
0.999993
0.999995
0.999996
0.999997
0.999998
0.999999
1
1
1
1
1
1
1
1
1
1
1
1
1
1
1
1
1
1
0.999989
0.999991
0.999982
0.999991
0.999988
0.999988
0.999993
0.999994
0.999995
0.999997
0.999998
0.999999
1
1
1
1
1
1
1
1
1
1
1
1
1
1
1
1
1
1
0.999988
0.999979
0.999979
0.999989
0.999991
0.999991
0.999989
0.999992
0.999993
0.999996
0.999997
0.999999
1
1
1
1
1
1
1
1
1
1
1
1
1
1
1
1
1
1
0.99999
0.99999
0.99998
0.999988
0.999991
0.999991
0.999991
0.999988
0.999991
0.999992
0.999996
0.999998
0.999999
1
1
1
1
1
1
1
1
1
1
1
1
1
1
1
1
1
0.999989
0.999988
0.999988
0.99997
0.99995
0.999945
0.999958
0.999988
0.999981
0.999994
0.999996
0.999998
0.999999
1
1
1
1
1
1
1
1
1
1
1
1
1
1
1
1
1
0.99995
0.999863
0.999988
0.999922
0.999907
0.999907
0.999907
0.999934
0.999981
0.999994
0.999995
0.999995
0.999999
1
1
1
1
1
1
1
1
1
1
1
1
1
1
1
1
1
0.99995
0.99995
0.999206
0.998958
0.999701
0.999914
0.999907
0.999928
0.999975
0.999975
0.999988
0.999997
0.999999
1
1
1
1
1
1
1
1
1
1
1
1
1
1
1
1
1
0.99995
0.99995
0.99532
0.999052
0.99996
0.999979
0.999958
0.999987
0.999989
0.999981
0.999981
0.999998
0.999999
0.999999
1
1
1
1
1
1
1
1
1
1
1
1
1
1
1
1
0.997943
0.994657
0.989532
0.995859
1
1
1
1
1
0.999995
0.99999
0.999991
0.999999
1
1
1
1
1
1
1
1
1
1
1
1
1
1
1
1
1
0.992789
0.989531
0.989531
0.991538
1
1
1
1
1
1
0.999996
0.999991
0.999992
1
1
1
1
1
1
1
1
1
1
1
1
1
1
1
1
1
0.99518
0.990806
0.990984
0.991274
1
1
1
1
1
1
0.999999
0.999996
0.999996
0.999999
1
1
1
1
1
1
1
1
1
1
1
1
1
1
1
1
0.997694
0.997602
0.999738
0.994781
0.998777
1
1
1
1
1
1
1
1
1
1
1
1
1
1
1
1
1
1
1
1
1
1
1
1
1
0.999736
0.999738
0.999738
0.999774
0.998777
0.999995
1
0.999997
1
1
1
1
1
1
1
1
1
1
1
1
1
1
1
1
1
1
1
1
1
1
0.91366
0.997665
0.999774
0.999774
0.998949
0.99988
0.999971
0.999953
1
1
1
1
1
1
1
1
1
1
1
1
1
1
1
1
1
1
1
1
1
1
0.36131
0.971041
0.999244
0.999644
1
1
1
1
1
1
1
1
1
0.977492
1
0.993166
0.88717
0.981757
1
1
1
1
1
1
1
1
1
1
1
1
0.350114
0.827271
0.965054
0.932737
0.82704
0.945028
0.97618
0.930825
0.841722
0.8751
0.924019
0.986205
0.881255
0.812138
0.860717
0.529498
0.201085
0.477527
0.868824
0.994238
1
1
1
1
1
1
1
1
1
1
1
0.999999
1
1
1
1
1
1
1
1
1
1
1
1
1
1
1
1
1
1
1
1
1
1
1
1
1
1
1
1
1
0.999999
1
1
1
1
1
1
1
1
1
1
1
1
1
1
1
1
1
1
1
1
1
1
1
1
1
1
1
1
1
0.999999
1
1
1
1
1
1
1
1
1
1
1
1
1
1
1
1
1
1
1
1
1
1
1
1
1
1
1
1
1
0.999999
1
1
1
1
1
1
1
1
1
1
1
1
1
1
1
1
1
1
1
1
1
1
1
1
1
1
1
1
1
0.999999
1
1
1
1
1
1
1
1
1
1
1
1
1
1
1
1
1
1
1
1
1
1
1
1
1
1
1
1
1
0.999999
1
1
1
1
1
1
1
1
1
1
1
1
1
1
1
1
1
1
1
1
1
1
1
1
1
1
1
1
1
0.999999
1
1
1
1
1
1
1
1
1
1
1
1
1
1
1
1
1
1
1
1
1
1
1
1
1
1
1
1
1
0.999999
1
1
1
1
1
1
1
1
1
1
1
1
1
1
1
1
1
1
1
1
1
1
1
1
1
1
1
1
1
0.999999
1
1
1
1
1
1
1
1
1
1
1
1
1
1
1
1
1
1
1
1
1
1
1
1
1
1
1
1
1
0.999999
1
1
1
1
1
1
1
1
1
1
1
1
1
1
1
1
1
1
1
1
1
1
1
1
1
1
1
1
1
0.999999
1
1
1
1
1
1
1
1
1
1
1
1
1
1
1
1
1
1
1
1
1
1
1
1
1
1
1
1
1
0.999999
1
1
1
1
1
1
1
1
1
1
1
1
1
1
1
1
1
1
1
1
1
1
1
1
1
1
1
1
1
1
1
1
1
1
1
1
1
1
1
1
1
1
1
1
1
1
1
1
1
1
1
1
1
1
1
1
1
1
1
1
1
1
1
1
1
1
1
1
1
1
1
1
1
1
1
1
1
1
1
1
1
1
1
1
1
1
1
1
1
1
1
1
1
1
1
1
1
1
1
1
1
1
1
1
1
1
1
1
1
1
1
1
1
1
1
1
1
1
1
1
1
1
1
1
1
1
1
1
1
1
1
1
1
1
1
1
1
1
1
1
1
1
1
1
1
1
1
1
1
1
1
1
1
1
1
1
1
1
1
1
1
1
1
1
1
1
1
1
1
1
1
1
1
1
1
1
1
1
1
1
1
1
1
1
1
1
1
1
1
1
1
1
1
1
1
1
1
1
1
1
1
1
1
1
1
1
1
1
1
1
1
1
1
1
1
1
1
1
1
1
1
1
1
1
1
1
1
1
1
1
1
1
1
1
1
1
1
1
1
1
1
1
1
1
1
1
1
1
1
1
1
1
1
1
1
1
1
1
1
1
1
1
1
1
1
1
1
1
1
1
1
1
1
1
1
1
1
1
1
1
1
1
1
1
1
1
1
1
1
1
1
1
1
1
1
1
1
1
1
1
1
1
1
1
1
1
1
1
1
1
1
1
1
1
1
1
1
1
1
1
1
1
1
1
1
1
1
1
1
1
1
1
1
1
1
1
1
1
1
1
1
1
1
1
1
1
1
1
1
1
1
1
1
1
1
1
1
1
1
1
1
1
1
1
1
1
1
1
1
1
1
1
1
1
1
1
1
1
1
1
1
1
1
1
1
1
1
1
1
1
1
1
1
1
1
1
1
1
1
1
1
1
1
1
1
1
1
1
1
1
1
1
1
1
1
1
1
1
1
1
1
1
1
1
1
1
1
1
1
1
1
1
1
1
1
1
1
1
1
1
1
1
1
1
1
1
1
1
1
1
1
1
1
1
1
1
1
1
1
1
1
1
1
1
1
1
1
1
1
1
1
1
1
1
1
1
1
1
1
1
1
1
1
1
1
1
1
1
1
1
1
1
1
1
1
1
1
1
1
1
1
1
1
1
1
1
1
1
1
1
1
1
1
1
1
1
1
1
1
1
1
1
1
1
1
1
1
1
1
1
1
1
1
1
1
1
1
1
1
1
1
1
1
1
1
1
1
1
1
1
1
1
1
1
1
1
1
1
1
1
0.999997
1
0.999985
1
0.999961
1
0.99993
1
0.301978
0.652638
0.711037
0.29996
0.0333069
0.110314
0.204488
0.101217
0.0373266
0.0582963
0.0854426
0.0888553
0.0333152
0.0429544
0.117877
0.0334929
5.50941e-07
0.00250658
0.132291
0.13509
0.0837586
0.0324177
0.0182352
0.0109045
0.00794775
0.0049097
0.00317795
0.0018286
0.00103208
0.000551621
0.120895
0.0846426
0.0530084
-1.69491e-06
-2.26246e-08
-2.92887e-07
-3.1642e-08
6.14062e-10
1.22346e-09
4.41698e-10
6.58373e-11
6.53942e-11
6.49676e-11
6.49676e-11
5.78344e-11
5.10572e-09
5.47111e-07
2.96191e-10
3.39259e-10
3.67567e-10
2.01236e-10
3.10626e-11
3.34606e-11
3.43981e-10
1.60235e-10
3.69979e-11
1.13064e-11
2.22462e-12
7.6547e-13
2.3471e-13
0.00075892
0.00107529
1.24725e-05
1.35663e-05
5.46041e-05
5.58552e-07
4.71943e-07
4.71496e-07
8.18654e-07
2.2522e-07
5.69993e-10
3.90819e-09
8.36128e-09
3.42901e-09
1.82198e-09
2.92679e-10
2.87801e-10
2.9619e-10
2.98478e-10
3.45094e-10
5.014e-11
1.22663e-11
3.06237e-11
6.50502e-10
2.64827e-10
5.39593e-11
1.87194e-11
2.83574e-12
7.63641e-13
8.07235e-14
4.65411e-07
0.000451132
0.000382279
6.77379e-06
3.35917e-06
2.31726e-06
5.77693e-07
1.16961e-06
2.59039e-07
3.6612e-07
1.25015e-07
2.73965e-10
1.16511e-09
7.78831e-10
1.81364e-09
6.9034e-10
4.01055e-10
2.37606e-10
1.27089e-09
3.42445e-10
7.83128e-11
1.0559e-11
2.925e-11
3.71278e-12
1.41806e-12
1.0636e-13
3.66886e-14
1.76811e-15
5.30464e-16
1.36592e-17
-1.04708e-07
0.000122037
6.77594e-07
6.48673e-07
2.0878e-07
2.65506e-06
3.98095e-06
2.14119e-06
2.36532e-10
2.33891e-10
2.33861e-10
2.38903e-10
2.9632e-10
1.13034e-10
1.85931e-10
1.6481e-10
1.95746e-10
9.56258e-11
1.08372e-10
1.4906e-11
4.04622e-12
2.94596e-13
5.12974e-13
1.19002e-14
5.78164e-15
1.05394e-16
5.44169e-17
4.98453e-19
2.88907e-19
8.73853e-22
0.0050249
0.0409355
0.00875086
1.97133e-07
1.96951e-07
7.1018e-07
3.98092e-06
2.22597e-06
2.38906e-10
3.81336e-10
2.28049e-10
5.96499e-11
5.81051e-11
1.00876e-11
1.6009e-11
1.12347e-11
1.52098e-11
4.5224e-12
3.78914e-12
3.75961e-13
1.32471e-13
3.54069e-15
5.38909e-15
2.28515e-17
1.91274e-17
5.42068e-20
6.69743e-20
6.24836e-23
1.36153e-22
1.76577e-26
0.0527913
0.0784805
0.0784804
0.0241063
-1.14129e-07
2.23942e-09
1.02122e-06
6.82933e-08
2.55937e-10
2.84114e-10
1.06088e-10
7.00703e-12
6.43548e-12
3.84021e-13
2.70949e-13
2.28806e-13
5.96182e-13
1.00993e-13
8.94043e-14
5.41316e-15
2.77984e-15
2.0175e-17
4.05814e-17
2.43997e-20
5.17114e-20
1.29133e-23
7.01288e-23
2.58624e-27
5.72243e-26
3.60298e-32
0.0568841
0.0544421
0.0295573
1.1162e-06
1.43084e-06
2.34886e-09
2.19486e-09
8.87271e-09
3.95745e-10
1.55493e-10
1.57248e-11
1.61798e-13
4.99196e-14
6.97936e-15
5.97038e-15
1.55813e-15
1.00365e-14
7.97683e-16
1.46997e-15
5.26926e-17
3.95827e-17
5.75025e-20
2.32146e-19
1.25996e-23
1.1507e-22
8.51688e-28
6.3406e-26
3.24287e-33
2.179e-29
3.80725e-37
0.0141172
0.00220745
0.0001137
1.50999e-06
1.22642e-08
1.21427e-08
2.13117e-09
2.73761e-09
4.70974e-10
6.73882e-11
4.03698e-12
8.23375e-14
4.28632e-16
5.86988e-17
7.65712e-17
1.79527e-17
1.20046e-16
4.42902e-18
2.04661e-17
2.84299e-19
3.77453e-19
8.82805e-23
1.01909e-21
3.00887e-27
2.1148e-25
1.44725e-32
5.00385e-29
4.59652e-37
7.60018e-33
1.30824e-41
-1.65226e-06
-6.33315e-07
-2.7387e-08
8.52367e-06
1.60042e-06
1.2742e-09
1.27381e-09
1.31229e-09
5.7128e-10
5.98949e-11
3.79656e-12
7.72301e-14
4.23489e-16
9.34829e-19
4.68106e-19
7.94895e-20
6.48781e-19
1.87767e-20
2.14888e-19
9.19245e-22
2.54532e-21
1.2601e-25
3.48838e-24
8.20246e-31
3.22759e-28
7.38353e-36
3.48319e-32
1.09393e-40
2.45099e-36
4.33733e-46
-1.67975e-09
-1.35372e-09
3.08902e-11
8.57994e-06
8.68e-06
2.07138e-07
5.33641e-09
1.00189e-09
5.73697e-10
6.49602e-11
2.71508e-12
4.76533e-14
3.62018e-16
1.11793e-18
1.69937e-21
2.58012e-22
2.26795e-21
1.14707e-22
1.8021e-21
1.37054e-24
1.18802e-23
1.24397e-28
9.36674e-27
3.73692e-34
4.10006e-31
4.16995e-39
2.15727e-35
2.87872e-44
7.36489e-40
1.38553e-50
-8.32142e-08
-7.10131e-08
-2.80516e-08
-6.01898e-10
5.04432e-06
6.30569e-07
1.15279e-09
1.1041e-09
8.80829e-10
1.20198e-10
4.18698e-12
4.56686e-14
3.30911e-16
1.26467e-18
1.11709e-21
5.20121e-25
3.44332e-24
6.49976e-25
1.12476e-23
9.55125e-28
3.8849e-26
9.73407e-32
1.97121e-29
3.02293e-37
4.34732e-34
2.16666e-42
1.19783e-38
7.46462e-48
2.07449e-43
4.25849e-55
-1.01372e-08
-4.41718e-10
5.16911e-06
1.88296e-05
1.99651e-07
5.68993e-08
1.03115e-08
1.36633e-09
1.10224e-09
1.71493e-10
6.76332e-12
4.34917e-14
2.45491e-16
1.3208e-18
2.07262e-21
6.2548e-25
2.01972e-27
2.45782e-27
4.85503e-26
1.26748e-30
9.12229e-29
8.88297e-35
3.19952e-32
2.55668e-40
3.8507e-37
1.02394e-45
6.00394e-42
1.84594e-51
5.50669e-47
1.26206e-59
-1.65882e-06
-2.8107e-10
-3.05187e-08
0.000207326
9.60843e-09
9.6369e-09
9.50452e-09
1.35029e-09
1.98283e-09
2.26836e-10
1.10405e-11
9.6854e-14
2.92201e-16
1.40766e-18
3.05306e-21
1.7834e-24
8.71639e-29
5.8128e-30
1.30382e-28
2.92646e-33
1.75723e-31
1.07522e-37
3.95186e-35
1.86622e-43
2.85476e-40
4.41707e-49
2.73434e-45
4.32779e-55
1.38368e-50
3.62435e-64
0.0861833
0.0666939
0.022854
-1.27746e-07
5.69574e-09
5.76307e-09
5.70263e-09
6.66975e-10
5.06778e-10
1.81633e-10
1.49044e-11
2.54758e-13
6.84724e-16
1.65346e-18
4.48803e-21
4.14853e-24
4.64398e-28
1.25147e-32
1.96319e-31
5.05569e-36
2.8223e-34
1.20338e-40
3.75248e-38
1.16393e-46
1.77105e-43
1.74303e-52
1.1376e-48
9.61727e-59
3.30193e-54
1.01465e-68
0.113314
0.0441552
0.0279501
-4.1337e-09
8.23568e-08
1.33637e-07
2.24208e-10
2.24114e-10
2.24112e-10
2.56245e-10
1.81292e-11
3.86496e-13
2.1569e-15
2.02836e-18
7.15336e-21
7.35544e-24
1.36244e-27
3.01475e-32
1.29204e-34
6.00997e-39
3.60473e-37
1.13524e-43
2.88921e-41
6.27156e-50
9.2034e-47
6.32287e-56
4.34769e-52
2.02886e-62
7.50678e-58
2.78511e-73
0.10532
9.07882e-06
0.0279488
1.01844e-09
2.133e-09
4.07598e-06
3.54002e-05
1.04323e-05
2.24126e-10
5.08652e-10
2.06501e-11
4.61911e-13
3.44963e-15
2.0838e-18
6.71401e-21
9.89135e-24
2.77837e-27
1.3921e-31
4.20753e-38
4.47518e-42
2.97883e-40
8.80537e-47
1.92608e-44
2.93653e-53
4.01057e-50
2.11544e-59
1.53428e-55
4.06932e-66
1.63029e-61
7.52349e-78
0.0823722
9.63903e-06
0.0191167
0.00237865
-2.66587e-09
2.37483e-08
0.000389123
4.07731e-05
2.45463e-10
5.81391e-10
2.55497e-11
6.4441e-13
6.15075e-15
3.85955e-18
8.47956e-21
1.40531e-23
5.96416e-27
4.27959e-31
2.93511e-37
6.09509e-45
1.2053e-43
5.42063e-50
1.10392e-47
1.245e-56
1.50512e-53
6.54932e-63
5.02205e-59
7.76531e-70
3.38853e-65
2.00236e-82
0.0534445
9.63025e-06
0.000690991
0.00117278
2.17097e-05
0.0002003
0.000468872
2.10466e-05
2.25383e-10
2.96293e-10
2.14851e-11
6.73571e-13
8.18937e-15
9.72954e-18
7.84367e-21
1.44567e-23
7.68421e-27
9.69023e-31
2.16551e-36
6.94807e-44
8.85044e-48
2.55323e-53
5.43119e-51
4.84506e-60
5.10164e-57
1.88119e-66
1.53181e-62
1.41088e-73
6.75411e-69
5.25209e-87
0.0402006
0.00152209
0.00188686
0.00146872
0.000659532
0.000736428
0.000264982
2.03534e-10
1.81264e-10
1.41843e-10
1.14792e-11
4.5078e-13
8.33582e-15
1.8147e-17
8.32459e-21
1.44052e-23
9.16782e-27
1.49096e-30
6.3222e-36
8.02697e-43
3.11225e-59
8.89915e-57
2.112e-54
1.73531e-63
1.65774e-60
5.02525e-70
4.37303e-66
2.44143e-77
1.29329e-72
1.35771e-91
0.0339631
0.0027075
0.00270978
0.00245212
0.00186019
0.00031394
7.64062e-06
4.25962e-10
4.82292e-10
7.12503e-11
7.78118e-12
3.3948e-13
6.9159e-15
2.15849e-17
1.16736e-20
6.37082e-24
3.04963e-27
6.06037e-31
5.54914e-36
6.12867e-42
6.39483e-63
2.19466e-60
5.87218e-58
5.60575e-67
5.20858e-64
1.24983e-73
1.17278e-69
4.02071e-81
2.38151e-76
3.45855e-96
0.0146099
0.00178128
0.0019743
0.00245067
0.000613937
6.82442e-10
9.61471e-10
1.24451e-09
2.48057e-10
5.82609e-11
7.01673e-12
3.02915e-13
6.56934e-15
2.72148e-17
3.43513e-20
9.31216e-24
2.78746e-27
6.38413e-31
1.1138e-35
2.43677e-41
9.05151e-67
3.64324e-64
1.10844e-61
1.61404e-70
1.54062e-67
2.89625e-77
2.96598e-73
6.29593e-85
4.22289e-80
8.688e-101
0.000980359
0.000978904
0.000981609
0.00226137
-4.05526e-09
9.5363e-10
9.1767e-10
5.73623e-10
2.60914e-10
7.03447e-11
8.6164e-12
3.82892e-13
8.48876e-15
3.99007e-17
8.48317e-20
1.65402e-23
1.57776e-27
3.09048e-31
5.41531e-36
2.77769e-41
7.99542e-71
3.76655e-68
1.31884e-65
4.12305e-74
4.25017e-71
6.25178e-81
7.09901e-77
9.35641e-89
7.2187e-84
2.15455e-105
0.00716315
0.000979303
0.00113838
0.000585823
6.235e-06
2.05848e-09
2.54986e-09
6.07309e-10
3.0592e-10
8.50199e-11
9.84299e-12
4.13121e-13
8.5992e-15
4.18318e-17
1.07772e-19
2.44175e-23
1.11531e-27
2.60142e-31
8.11548e-36
8.5805e-41
3.88796e-75
2.16261e-72
8.84433e-70
9.30407e-78
1.09557e-74
1.25439e-84
1.61277e-80
1.31485e-92
1.19021e-87
5.27662e-110
0.0578958
0.0502433
0.00481287
-6.9685e-09
7.83572e-09
7.42588e-09
2.41754e-09
5.34445e-10
3.12994e-10
7.95429e-11
8.05646e-12
3.05383e-13
5.86811e-15
2.79905e-17
7.58299e-20
1.97123e-23
3.31836e-28
7.22662e-32
2.16266e-36
2.82592e-41
8.50954e-80
5.67343e-77
2.76001e-74
1.84465e-81
2.58931e-78
2.33046e-88
3.48867e-84
1.73792e-96
1.89433e-91
1.27662e-114
0.0578978
0.0438193
0.00168627
-4.02094e-09
4.39736e-09
4.31938e-09
1.6535e-09
4.45566e-10
2.86802e-10
6.44195e-11
5.4941e-12
1.64448e-13
2.41649e-15
9.50768e-18
2.10167e-20
6.5429e-24
1.59367e-28
4.31952e-32
1.49389e-36
2.42866e-41
5.38478e-85
4.39083e-82
2.60099e-79
3.18933e-85
5.51757e-82
3.97893e-92
7.20715e-88
2.14122e-100
2.91244e-95
3.04925e-119
0.0192798
0.00327278
3.82419e-05
4.35134e-09
4.288e-09
2.54961e-09
1.14648e-09
3.84725e-10
2.89711e-10
6.19016e-11
4.21501e-12
9.90293e-14
1.10567e-15
3.69857e-18
6.82265e-21
2.46068e-24
8.09557e-29
1.64474e-32
5.65363e-37
9.75312e-42
2.32054e-91
2.29879e-88
1.71354e-85
4.73806e-89
1.06191e-85
6.14855e-96
1.42543e-91
2.41845e-104
4.32592e-99
7.17089e-124
0.000738738
-3.58023e-08
6.27794e-09
6.89246e-09
3.34574e-09
2.61387e-09
2.01663e-09
4.3762e-10
4.31386e-10
7.64896e-11
3.58493e-12
6.41429e-14
5.09981e-16
1.31994e-18
1.73457e-21
5.02409e-25
8.14664e-30
8.90284e-34
1.46323e-38
1.44312e-43
8.12222e-98
2.12372e-97
1.60237e-96
5.86422e-93
1.85051e-89
8.33893e-100
2.70663e-95
2.42902e-108
6.21054e-103
1.65267e-128
2.35704e-07
2.29475e-07
1.12572e-08
6.51017e-09
4.45563e-09
3.76644e-09
1.91205e-09
6.37187e-10
9.46461e-10
9.59861e-11
3.68066e-12
4.78159e-14
2.97102e-16
5.45241e-19
5.31623e-22
1.35149e-25
4.87023e-30
1.98661e-34
2.5594e-39
1.93676e-44
5.28168e-103
8.15015e-102
9.09357e-101
5.59109e-97
2.92799e-93
9.28664e-104
4.94855e-99
2.06358e-112
8.62169e-107
3.7133e-133
8.26321e-07
8.27962e-07
2.34906e-08
9.25648e-09
1.41759e-08
2.72478e-08
3.34955e-08
5.75807e-10
7.26677e-10
4.24171e-11
9.74365e-13
9.72384e-15
4.33721e-17
5.42736e-20
2.0107e-23
1.50859e-27
3.09331e-34
1.95868e-38
9.15266e-44
4.63439e-49
2.71029e-108
2.91281e-106
1.76139e-105
3.11147e-101
4.21947e-97
7.59326e-108
8.73756e-103
1.53474e-116
1.15743e-110
8.28709e-138
0.000359934
0.000290303
0.000226941
0.000183015
0.000142409
0.000114856
8.91752e-05
7.23697e-05
5.59212e-05
4.56136e-05
3.52334e-05
2.86908e-05
2.2383e-05
1.80787e-05
1.43231e-05
1.13872e-05
9.08571e-06
7.13303e-06
5.74457e-06
4.38149e-06
3.35599e-06
2.22601e-06
1.47647e-07
7.77928e-07
1.49533e-13
2.02395e-06
1.44964e-13
1.24272e-05
1.6976e-13
5.68449e-05
4.94607e-13
4.66409e-13
4.4972e-13
4.46152e-13
4.40741e-13
4.54534e-13
4.66796e-13
4.82492e-13
2.88811e-11
7.00259e-13
7.21357e-10
7.38713e-10
3.44373e-10
3.04268e-10
1.36809e-10
1.24358e-10
5.62242e-11
4.96344e-11
2.3811e-11
1.56719e-11
2.64493e-12
3.00546e-12
9.4087e-13
1.58942e-12
1.49532e-13
1.12805e-11
1.44962e-13
2.1607e-13
1.69635e-13
1.00573e-19
4.14752e-14
1.897e-14
1.18366e-14
6.77253e-15
4.11758e-15
1.04044e-14
1.50797e-14
2.21446e-14
2.76146e-14
1.95838e-14
1.56269e-14
1.51579e-14
3.71777e-15
4.03701e-15
8.77076e-16
9.97903e-16
1.94114e-16
2.08229e-16
2.40732e-17
8.02049e-18
9.65575e-20
7.16485e-20
2.34008e-20
2.0011e-19
2.07073e-20
2.77358e-20
4.09317e-20
5.76893e-20
4.00139e-20
1.00267e-19
1.08206e-17
2.86341e-18
2.11526e-18
7.52126e-19
5.21664e-19
1.08119e-18
1.37752e-18
1.48848e-18
1.0126e-18
7.12684e-19
2.05602e-19
2.22136e-19
2.67355e-20
3.75085e-20
3.30484e-21
5.09882e-21
2.42854e-22
3.7494e-22
1.9883e-25
9.51106e-26
8.21094e-26
1.88387e-26
5.03009e-27
6.37281e-26
2.56111e-27
5.96043e-27
7.32854e-27
9.77938e-27
9.41054e-27
1.71012e-26
1.91086e-21
2.27426e-22
2.4518e-22
4.24973e-23
4.01781e-23
4.84115e-23
6.62453e-23
4.38284e-23
2.22771e-23
1.28247e-23
1.99363e-24
2.19665e-24
1.32081e-25
2.30276e-25
6.88242e-27
1.52035e-26
2.41771e-29
1.28764e-28
1.73421e-31
9.21165e-32
7.4305e-32
9.67166e-33
2.17996e-33
1.24686e-32
6.12077e-34
1.14244e-33
1.29731e-33
1.49338e-33
1.81926e-33
1.93881e-33
2.45611e-25
1.02702e-26
2.01603e-26
1.35148e-27
2.14003e-27
1.15041e-27
2.15253e-27
7.07811e-28
3.58046e-28
1.36412e-28
1.51565e-29
1.44197e-29
4.74134e-31
9.13795e-31
7.98011e-33
2.43302e-32
1.66528e-36
4.41151e-37
2.09532e-37
9.98186e-38
7.17871e-38
5.82948e-39
1.15361e-39
2.65945e-39
1.55026e-40
1.84042e-40
1.56385e-40
2.02006e-40
2.93059e-40
1.55902e-40
2.38796e-29
2.65257e-31
1.24488e-30
2.46374e-32
8.48555e-32
1.54094e-32
5.21814e-32
6.69057e-33
4.53032e-33
8.9898e-34
9.38384e-35
6.22218e-35
1.29575e-36
2.29216e-36
5.39025e-39
1.74302e-38
2.87931e-42
7.65612e-43
2.85626e-43
1.15005e-43
7.01572e-44
4.22972e-45
6.46043e-46
3.86873e-46
4.07476e-47
3.71599e-47
3.68967e-47
3.71404e-47
4.01271e-47
9.43581e-48
1.81986e-33
3.79647e-36
6.02294e-35
2.49199e-37
2.63491e-36
1.1565e-37
9.9708e-37
3.72886e-38
4.69856e-38
3.68306e-39
4.85501e-40
1.73059e-40
2.79566e-42
3.46763e-42
2.27819e-45
2.56579e-45
5.48792e-48
1.37409e-48
4.14334e-49
1.38139e-49
6.88903e-50
3.34112e-51
4.07909e-52
1.10581e-52
1.21532e-53
9.10164e-54
1.24731e-53
7.53751e-54
6.40611e-54
4.54519e-55
1.11639e-37
2.77205e-41
2.3554e-39
1.2895e-42
6.633e-41
4.55109e-43
1.5558e-41
1.16674e-43
4.09933e-43
9.04222e-45
2.13795e-45
2.96385e-46
4.89575e-48
2.84658e-48
7.9902e-52
4.83718e-53
1.11416e-53
2.5265e-54
6.28715e-55
1.72237e-55
7.02493e-56
2.83534e-57
2.64073e-58
3.08104e-59
4.85145e-60
2.66419e-60
4.54111e-60
1.34239e-60
9.06248e-61
1.82467e-62
5.63088e-42
8.67144e-47
7.62158e-44
2.90434e-48
1.38815e-45
8.15319e-49
2.03295e-46
1.84659e-49
3.06585e-48
1.22694e-50
8.1334e-51
2.85776e-52
7.13384e-54
9.80565e-55
6.99897e-58
1.097e-58
2.33422e-59
4.71176e-60
9.77913e-61
2.19712e-61
7.22014e-62
2.50532e-63
1.91324e-64
1.47238e-65
2.49886e-66
7.14238e-67
1.46306e-66
1.66431e-67
8.15598e-68
6.34616e-70
2.37297e-46
1.08797e-52
2.0768e-48
2.66136e-54
2.45999e-50
5.16117e-55
2.26539e-51
1.21309e-55
1.99241e-53
7.89659e-57
2.70569e-56
1.29831e-58
8.90248e-60
8.54481e-62
1.64089e-63
2.72514e-64
5.00923e-65
8.9138e-66
1.55962e-66
2.8811e-67
7.69171e-68
2.36398e-69
1.47404e-70
7.23425e-72
1.10589e-72
1.40111e-73
3.55821e-73
1.63154e-74
4.99343e-75
1.97197e-77
8.45448e-51
6.44499e-58
4.82833e-53
9.24338e-60
3.74213e-55
1.66492e-61
2.18101e-56
2.76908e-62
1.13558e-58
1.97016e-63
7.94912e-62
2.12677e-65
1.00397e-65
3.11356e-68
4.5729e-69
6.84878e-70
1.09088e-70
1.69898e-71
2.5212e-72
3.83781e-73
8.2828e-74
2.29782e-75
1.21305e-76
4.34725e-78
6.24179e-79
2.1598e-80
6.3623e-80
2.08087e-81
4.24766e-82
5.60852e-85
2.57101e-55
1.09123e-62
9.67899e-58
1.14558e-64
4.94004e-60
8.89837e-67
1.83333e-61
1.94119e-68
5.718e-64
5.56327e-70
2.08173e-67
6.65161e-72
1.18176e-71
1.0081e-73
1.31102e-74
1.73763e-75
2.40482e-76
3.2655e-77
4.13468e-78
5.21335e-79
9.1747e-80
2.34625e-81
1.04893e-82
2.66574e-84
3.22162e-85
4.10751e-87
9.82431e-87
2.67352e-88
3.51323e-89
1.48872e-92
6.72355e-60
1.74799e-67
1.68734e-62
1.4399e-69
5.70956e-65
8.2167e-72
1.35679e-66
1.35843e-73
2.55945e-69
2.23279e-75
4.90496e-73
2.54529e-77
1.93243e-77
3.3617e-79
3.81294e-80
4.43733e-81
5.33915e-82
6.30707e-83
6.84565e-84
7.19039e-85
1.03115e-85
2.46881e-87
9.2638e-89
1.73376e-90
1.85595e-91
8.77679e-94
1.46254e-93
3.73975e-95
2.75479e-96
3.74747e-100
1.52045e-64
2.64084e-72
2.575e-67
1.79302e-74
5.81727e-70
7.57976e-77
8.89684e-72
9.99619e-79
1.02375e-74
1.17406e-80
1.05138e-78
1.10572e-82
4.98578e-83
1.12627e-84
1.11834e-85
1.13929e-86
1.19198e-87
1.22396e-88
1.14204e-89
1.0063e-90
1.17827e-91
2.67035e-93
8.35023e-95
1.19425e-96
1.09006e-97
1.99878e-100
2.22225e-100
5.18286e-102
2.09135e-103
9.07229e-108
2.98766e-69
3.8295e-77
3.46049e-72
2.2217e-79
5.25765e-75
7.01341e-82
5.20076e-77
7.33786e-84
3.67879e-80
6.33419e-86
2.09021e-84
4.81864e-88
1.64068e-88
3.7838e-90
3.29664e-91
2.93575e-92
2.6674e-93
2.38196e-94
1.91504e-95
1.4245e-96
1.36475e-97
2.94579e-99
7.61319e-101
8.86331e-103
6.43993e-104
6.53305e-107
3.99681e-107
7.09767e-109
1.55657e-110
2.14676e-115
5.12213e-74
5.45803e-82
4.11662e-77
2.74515e-84
4.23849e-80
6.51461e-87
2.72516e-82
5.36614e-89
1.19387e-85
3.48117e-91
4.01547e-90
2.10023e-93
5.80109e-94
1.27308e-95
9.73489e-97
7.58088e-98
5.97873e-99
4.6464e-100
3.22435e-101
2.03325e-102
1.6009e-103
3.29133e-105
7.00801e-107
6.92077e-109
3.86069e-110
3.00559e-113
9.84024e-114
9.63972e-116
1.13646e-117
5.08179e-123
7.68586e-79
7.81572e-87
4.35332e-82
3.38004e-89
3.06182e-85
6.05663e-92
1.28585e-87
3.90259e-94
3.51714e-91
1.93036e-96
8.14253e-96
9.13545e-99
2.08956e-99
4.2817e-101
2.87475e-102
1.9589e-103
1.33892e-104
9.0689e-106
5.43344e-107
2.9197e-108
1.89473e-109
3.70598e-111
6.46264e-113
5.65248e-115
2.36812e-116
1.56687e-119
2.91197e-120
1.30629e-122
8.19522e-125
1.25582e-130
1.01273e-83
1.13894e-91
4.11025e-87
4.13915e-94
1.99163e-90
5.6152e-97
5.48957e-93
2.81937e-99
9.46982e-97
1.07164e-101
2.0017e-101
3.96066e-104
7.58846e-105
1.43726e-106
8.47431e-108
5.05973e-109
2.99243e-110
1.76832e-111
9.14756e-113
4.20622e-114
2.25684e-115
4.19105e-117
5.97066e-119
4.73196e-121
1.50324e-122
9.21322e-126
9.43659e-127
1.77198e-129
6.02276e-132
3.4853e-138
1.17569e-88
1.68964e-96
3.47962e-92
5.02851e-99
1.17236e-95
5.17405e-102
2.13083e-98
2.02109e-104
2.35456e-102
5.92742e-107
6.45079e-107
1.70979e-109
2.77217e-110
4.81078e-112
2.49073e-113
1.30303e-114
6.66455e-116
3.44108e-117
1.53619e-118
6.06293e-120
2.69739e-121
4.73797e-123
5.52263e-125
4.01897e-127
9.76e-129
5.60996e-132
3.30991e-133
2.42798e-136
4.52389e-139
1.16998e-145
1.2062e-93
2.53233e-101
2.65157e-97
6.04463e-104
6.27648e-101
4.72452e-107
7.55826e-104
1.43542e-109
5.51646e-108
3.25602e-112
2.53365e-112
7.34037e-115
1.01786e-115
1.60267e-117
7.28824e-119
3.33822e-120
1.47741e-121
6.6661e-123
2.56698e-124
8.72213e-126
3.22557e-127
5.34046e-129
5.10681e-131
3.44936e-133
6.50934e-135
3.45126e-138
1.19487e-139
3.65524e-143
3.3803e-146
4.80216e-153
1.09808e-98
3.79863e-106
1.82733e-102
7.17741e-109
3.07631e-106
4.26759e-112
2.46805e-109
1.00889e-114
1.27701e-113
1.77333e-117
1.08701e-117
3.13102e-120
3.74921e-121
5.31021e-123
2.12308e-124
8.48558e-126
3.25735e-127
1.28273e-128
4.26157e-130
1.24851e-131
3.85249e-133
5.98562e-135
4.71208e-137
2.96706e-139
4.36658e-141
2.15717e-144
4.40625e-146
7.05691e-150
2.51874e-153
2.43021e-160
8.9142e-104
5.66187e-111
1.145e-107
8.40655e-114
1.39275e-111
3.80866e-117
7.5105e-115
7.00939e-120
3.22623e-119
9.56417e-123
4.80288e-123
1.32583e-125
1.38284e-126
1.74902e-128
6.14974e-130
2.13894e-131
7.13352e-133
2.44547e-134
7.01989e-136
1.77187e-137
4.59538e-139
6.6567e-141
4.33274e-143
2.55021e-145
2.93033e-147
1.38356e-150
1.62605e-152
1.81416e-156
2.00463e-160
1.47682e-167
6.49184e-109
8.3428e-116
6.56376e-113
9.69683e-119
5.90246e-117
3.35326e-122
2.18296e-120
4.80605e-125
1.01662e-124
5.10051e-128
2.14026e-128
5.56688e-131
5.09994e-132
5.72179e-134
1.76793e-135
5.34064e-137
1.54868e-138
4.6059e-140
1.14534e-141
2.48606e-143
5.46039e-145
7.32176e-147
3.96886e-149
2.18459e-151
1.96081e-153
8.98735e-157
5.93586e-159
5.14144e-163
1.78674e-167
9.65187e-175
4.28014e-114
1.21225e-120
3.47321e-118
1.10047e-123
2.399e-122
2.90943e-127
6.40557e-126
3.24825e-130
4.17401e-130
2.68697e-133
9.56817e-134
2.31611e-136
1.87997e-137
1.85812e-139
5.03924e-141
1.32037e-142
3.32659e-144
8.5523e-146
1.84808e-147
3.44314e-149
6.45504e-151
7.94541e-153
3.62177e-155
1.86108e-157
1.30502e-159
5.84907e-163
2.13941e-165
1.53128e-169
1.74317e-174
5.78139e-182
2.59202e-119
1.73427e-125
1.71948e-123
1.22755e-128
9.7818e-128
2.48495e-132
2.1106e-131
2.16135e-135
2.03919e-135
1.39692e-138
4.28857e-139
9.54262e-142
6.92592e-143
5.98556e-145
1.42344e-146
3.22713e-148
7.05747e-150
1.56222e-151
2.94072e-153
4.6977e-155
7.57293e-157
8.49489e-159
3.29065e-161
1.56805e-163
8.66252e-166
3.72045e-169
7.98467e-172
4.75004e-176
1.76516e-181
2.14228e-189
1.47923e-124
2.43953e-130
8.14516e-129
1.34405e-133
4.31691e-133
2.08595e-137
8.80043e-137
1.41342e-140
1.07329e-140
7.15719e-144
1.92716e-144
3.89106e-147
2.54986e-148
1.9113e-150
3.98107e-152
7.78244e-154
1.4756e-155
2.80233e-157
4.60224e-159
6.29705e-161
8.79666e-163
8.94351e-165
2.97266e-167
1.30387e-169
5.71202e-172
2.28511e-175
3.01428e-178
1.41784e-182
1.668e-188
3.45453e-197
8.37424e-130
3.37135e-135
3.85012e-134
1.44303e-138
2.25628e-138
1.71859e-142
4.70276e-142
9.06936e-146
5.79892e-146
3.60971e-149
8.68551e-150
1.57016e-152
9.38395e-154
6.05067e-156
1.10274e-157
1.85046e-159
3.03376e-161
4.9254e-163
7.06538e-165
8.28272e-167
1.00943e-168
9.27841e-171
2.67328e-173
1.06997e-175
3.75836e-178
1.36304e-181
1.17362e-184
4.07079e-189
1.46821e-195
1.64408e-204
5.17288e-135
4.57332e-140
1.95484e-139
1.51802e-143
1.4497e-143
1.38813e-147
2.92488e-147
5.70286e-151
3.16183e-151
1.79039e-154
3.92364e-155
6.26687e-158
3.44705e-159
1.89652e-161
3.01907e-163
4.32944e-165
6.11818e-167
8.46245e-169
1.06105e-170
1.06699e-172
1.14192e-174
9.47143e-177
2.38302e-179
8.65939e-182
2.43838e-184
7.85339e-188
4.60141e-191
1.12911e-195
1.20222e-202
6.95499e-212
3.94406e-140
6.0838e-145
1.17444e-144
1.56257e-148
1.09365e-148
1.09686e-152
1.94028e-152
3.50613e-156
1.72903e-156
8.73039e-160
1.77164e-160
2.4816e-163
1.25883e-164
5.91384e-167
8.18929e-169
9.97141e-171
1.20721e-172
1.41502e-174
1.5527e-176
1.34371e-178
1.27329e-180
9.56729e-183
2.12063e-185
6.97627e-188
1.57465e-190
4.41848e-194
1.75389e-197
2.80352e-202
9.41581e-210
2.19979e-219
)
;

boundaryField
{
    symmetryAxis
    {
        type            symmetryPlane;
    }
    rightWall
    {
        type            zeroGradient;
    }
    lowerWall
    {
        type            zeroGradient;
    }
    atmosphere
    {
        type            inletOutlet;
        inletValue      uniform 0;
        value           nonuniform List<scalar> 
90
(
8.26321e-07
8.27962e-07
2.34906e-08
9.25648e-09
1.41759e-08
2.72478e-08
3.34955e-08
5.75807e-10
7.26677e-10
0
0
0
0
0
0
0
0
0
0
0
0
0
0
0
0
0
8.73756e-103
0
1.15743e-110
0
3.94406e-140
0
1.17444e-144
0
1.09365e-148
0
1.94028e-152
0
1.72903e-156
0
1.77164e-160
0
1.25883e-164
0
8.18929e-169
0
0
0
0
0
0
0
0
0
0
0
0
0
0
0
5.68449e-05
1.00573e-19
0
0
0
0
0
0
0
0
0
0
0
0
0
0
0
0
0
0
0
0
0
0
0
0
0
0
0
0
)
;
    }
    frontAndBack
    {
        type            empty;
    }
    frontAndBack_pos
    {
        type            wedge;
    }
    frontAndBack_neg
    {
        type            wedge;
    }
}


// ************************************************************************* //
