/*--------------------------------*- C++ -*----------------------------------*\
| =========                 |                                                 |
| \\      /  F ield         | OpenFOAM: The Open Source CFD Toolbox           |
|  \\    /   O peration     | Version:  2.4.0                                 |
|   \\  /    A nd           | Web:      www.OpenFOAM.org                      |
|    \\/     M anipulation  |                                                 |
\*---------------------------------------------------------------------------*/
FoamFile
{
    version     2.0;
    format      ascii;
    class       volScalarField;
    location    "0.102";
    object      p;
}
// * * * * * * * * * * * * * * * * * * * * * * * * * * * * * * * * * * * * * //

dimensions      [1 -1 -2 0 0 0 0];

internalField   nonuniform List<scalar> 
60000
(
97.0698
97.0698
97.0698
97.0698
97.0698
97.0698
97.0698
97.0698
97.0699
97.0699
97.0699
97.0699
97.0699
97.0699
97.0699
97.07
97.07
97.07
97.07
97.07
97.0701
97.0701
97.0701
97.0701
97.0702
97.0702
97.0702
97.0702
97.0702
97.0703
97.0703
97.0703
97.0703
97.0702
97.0702
97.0702
97.0701
97.0701
97.07
97.07
97.0699
97.0698
97.0697
97.0695
97.0694
97.0693
97.0691
97.0689
97.0688
97.0686
97.0684
97.0682
97.068
97.0678
97.0676
97.0674
97.0672
97.067
97.0668
97.0666
97.0664
97.0662
97.066
97.0658
97.0656
97.0654
97.0652
97.0651
97.0649
97.0647
97.0646
97.0644
97.0643
97.0641
97.064
97.0639
97.0638
97.0636
97.0635
97.0634
97.0633
97.0633
97.0632
97.0631
97.0631
97.0631
97.063
97.063
97.063
97.063
97.0631
97.0631
97.0632
97.0632
97.0633
97.0634
97.0635
97.0636
97.0637
97.0639
95.1078
95.1078
95.1078
95.1078
95.1078
95.1078
95.1078
95.1078
95.1079
95.1079
95.1079
95.1079
95.1079
95.1079
95.1079
95.108
95.108
95.108
95.108
95.108
95.1081
95.1081
95.1081
95.1081
95.1082
95.1082
95.1082
95.1082
95.1082
95.1083
95.1083
95.1083
95.1083
95.1082
95.1082
95.1082
95.1082
95.1081
95.108
95.108
95.1079
95.1078
95.1077
95.1075
95.1074
95.1073
95.1071
95.1069
95.1068
95.1066
95.1064
95.1062
95.106
95.1058
95.1056
95.1054
95.1052
95.105
95.1048
95.1046
95.1044
95.1042
95.104
95.1038
95.1036
95.1034
95.1032
95.1031
95.1029
95.1027
95.1026
95.1024
95.1023
95.1021
95.102
95.1019
95.1018
95.1016
95.1015
95.1014
95.1013
95.1013
95.1012
95.1011
95.1011
95.1011
95.101
95.101
95.101
95.101
95.1011
95.1011
95.1012
95.1012
95.1013
95.1014
95.1015
95.1016
95.1017
95.1019
93.1458
93.1458
93.1458
93.1458
93.1458
93.1458
93.1458
93.1458
93.1459
93.1459
93.1459
93.1459
93.1459
93.1459
93.1459
93.146
93.146
93.146
93.146
93.146
93.1461
93.1461
93.1461
93.1461
93.1462
93.1462
93.1462
93.1462
93.1462
93.1463
93.1463
93.1463
93.1463
93.1463
93.1462
93.1462
93.1462
93.1461
93.146
93.146
93.1459
93.1458
93.1457
93.1455
93.1454
93.1453
93.1451
93.1449
93.1448
93.1446
93.1444
93.1442
93.144
93.1438
93.1436
93.1434
93.1432
93.143
93.1428
93.1426
93.1424
93.1422
93.142
93.1418
93.1416
93.1414
93.1412
93.1411
93.1409
93.1407
93.1406
93.1404
93.1403
93.1401
93.14
93.1399
93.1397
93.1396
93.1395
93.1394
93.1393
93.1393
93.1392
93.1391
93.1391
93.1391
93.139
93.139
93.139
93.139
93.1391
93.1391
93.1392
93.1392
93.1393
93.1394
93.1395
93.1396
93.1397
93.1399
91.1838
91.1838
91.1838
91.1838
91.1838
91.1838
91.1838
91.1838
91.1839
91.1839
91.1839
91.1839
91.1839
91.1839
91.1839
91.184
91.184
91.184
91.184
91.184
91.1841
91.1841
91.1841
91.1841
91.1842
91.1842
91.1842
91.1842
91.1843
91.1843
91.1843
91.1843
91.1843
91.1843
91.1842
91.1842
91.1842
91.1841
91.184
91.184
91.1839
91.1838
91.1837
91.1835
91.1834
91.1833
91.1831
91.1829
91.1828
91.1826
91.1824
91.1822
91.182
91.1818
91.1816
91.1814
91.1812
91.181
91.1808
91.1806
91.1804
91.1802
91.18
91.1798
91.1796
91.1794
91.1792
91.179
91.1789
91.1787
91.1786
91.1784
91.1783
91.1781
91.178
91.1779
91.1777
91.1776
91.1775
91.1774
91.1773
91.1773
91.1772
91.1771
91.1771
91.177
91.177
91.177
91.177
91.177
91.1771
91.1771
91.1772
91.1772
91.1773
91.1774
91.1775
91.1776
91.1777
91.1779
89.2218
89.2218
89.2218
89.2218
89.2218
89.2218
89.2218
89.2218
89.2219
89.2219
89.2219
89.2219
89.2219
89.2219
89.2219
89.222
89.222
89.222
89.222
89.222
89.2221
89.2221
89.2221
89.2221
89.2222
89.2222
89.2222
89.2222
89.2223
89.2223
89.2223
89.2223
89.2223
89.2223
89.2222
89.2222
89.2222
89.2221
89.2221
89.222
89.2219
89.2218
89.2217
89.2216
89.2214
89.2213
89.2211
89.221
89.2208
89.2206
89.2204
89.2202
89.22
89.2198
89.2196
89.2194
89.2192
89.219
89.2188
89.2186
89.2183
89.2181
89.218
89.2178
89.2176
89.2174
89.2172
89.217
89.2169
89.2167
89.2166
89.2164
89.2163
89.2161
89.216
89.2159
89.2157
89.2156
89.2155
89.2154
89.2153
89.2152
89.2152
89.2151
89.2151
89.215
89.215
89.215
89.215
89.215
89.2151
89.2151
89.2152
89.2152
89.2153
89.2154
89.2155
89.2156
89.2157
89.2159
87.2598
87.2598
87.2598
87.2598
87.2598
87.2598
87.2598
87.2598
87.2599
87.2599
87.2599
87.2599
87.2599
87.2599
87.2599
87.26
87.26
87.26
87.26
87.26
87.2601
87.2601
87.2601
87.2601
87.2602
87.2602
87.2602
87.2602
87.2603
87.2603
87.2603
87.2603
87.2603
87.2603
87.2603
87.2602
87.2602
87.2601
87.2601
87.26
87.2599
87.2598
87.2597
87.2596
87.2594
87.2593
87.2591
87.259
87.2588
87.2586
87.2584
87.2582
87.258
87.2578
87.2576
87.2574
87.2572
87.257
87.2568
87.2565
87.2563
87.2561
87.2559
87.2558
87.2556
87.2554
87.2552
87.255
87.2549
87.2547
87.2546
87.2544
87.2543
87.2541
87.254
87.2539
87.2537
87.2536
87.2535
87.2534
87.2533
87.2532
87.2532
87.2531
87.2531
87.253
87.253
87.253
87.253
87.253
87.253
87.2531
87.2531
87.2532
87.2533
87.2534
87.2535
87.2536
87.2537
87.2539
85.2978
85.2978
85.2978
85.2978
85.2978
85.2978
85.2978
85.2978
85.2979
85.2979
85.2979
85.2979
85.2979
85.2979
85.2979
85.298
85.298
85.298
85.298
85.298
85.2981
85.2981
85.2981
85.2982
85.2982
85.2982
85.2982
85.2983
85.2983
85.2983
85.2983
85.2983
85.2983
85.2983
85.2983
85.2982
85.2982
85.2982
85.2981
85.298
85.2979
85.2978
85.2977
85.2976
85.2975
85.2973
85.2971
85.297
85.2968
85.2966
85.2964
85.2962
85.296
85.2958
85.2956
85.2954
85.2952
85.295
85.2948
85.2945
85.2943
85.2941
85.2939
85.2937
85.2936
85.2934
85.2932
85.293
85.2929
85.2927
85.2925
85.2924
85.2922
85.2921
85.292
85.2918
85.2917
85.2916
85.2915
85.2914
85.2913
85.2912
85.2911
85.2911
85.291
85.291
85.291
85.291
85.291
85.291
85.291
85.2911
85.2911
85.2912
85.2913
85.2914
85.2915
85.2916
85.2917
85.2919
83.3358
83.3358
83.3358
83.3358
83.3358
83.3358
83.3358
83.3358
83.3359
83.3359
83.3359
83.3359
83.3359
83.3359
83.3359
83.336
83.336
83.336
83.336
83.336
83.3361
83.3361
83.3361
83.3362
83.3362
83.3362
83.3362
83.3363
83.3363
83.3363
83.3363
83.3363
83.3363
83.3363
83.3363
83.3363
83.3362
83.3362
83.3361
83.336
83.3359
83.3358
83.3357
83.3356
83.3355
83.3353
83.3352
83.335
83.3348
83.3346
83.3344
83.3342
83.334
83.3338
83.3336
83.3334
83.3332
83.333
83.3327
83.3325
83.3323
83.3321
83.3319
83.3317
83.3316
83.3314
83.3312
83.331
83.3309
83.3307
83.3305
83.3304
83.3302
83.3301
83.33
83.3298
83.3297
83.3296
83.3295
83.3294
83.3293
83.3292
83.3291
83.3291
83.329
83.329
83.329
83.329
83.329
83.329
83.329
83.3291
83.3291
83.3292
83.3293
83.3294
83.3295
83.3296
83.3297
83.3298
81.3738
81.3738
81.3738
81.3738
81.3738
81.3738
81.3738
81.3738
81.3739
81.3739
81.3739
81.3739
81.3739
81.3739
81.3739
81.374
81.374
81.374
81.374
81.374
81.3741
81.3741
81.3741
81.3742
81.3742
81.3742
81.3742
81.3743
81.3743
81.3743
81.3743
81.3743
81.3743
81.3743
81.3743
81.3743
81.3742
81.3742
81.3741
81.3741
81.374
81.3739
81.3738
81.3736
81.3735
81.3733
81.3732
81.373
81.3728
81.3726
81.3724
81.3722
81.372
81.3718
81.3716
81.3714
81.3712
81.371
81.3707
81.3705
81.3703
81.3701
81.3699
81.3697
81.3695
81.3694
81.3692
81.369
81.3688
81.3687
81.3685
81.3684
81.3682
81.3681
81.3679
81.3678
81.3677
81.3676
81.3675
81.3674
81.3673
81.3672
81.3671
81.367
81.367
81.367
81.3669
81.3669
81.3669
81.367
81.367
81.367
81.3671
81.3672
81.3673
81.3674
81.3675
81.3676
81.3677
81.3678
79.4118
79.4118
79.4118
79.4118
79.4118
79.4118
79.4118
79.4118
79.4119
79.4119
79.4119
79.4119
79.4119
79.4119
79.4119
79.412
79.412
79.412
79.412
79.412
79.4121
79.4121
79.4121
79.4122
79.4122
79.4122
79.4122
79.4123
79.4123
79.4123
79.4123
79.4123
79.4124
79.4123
79.4123
79.4123
79.4123
79.4122
79.4122
79.4121
79.412
79.4119
79.4118
79.4117
79.4115
79.4114
79.4112
79.411
79.4108
79.4107
79.4105
79.4102
79.41
79.4098
79.4096
79.4094
79.4092
79.409
79.4087
79.4085
79.4083
79.4081
79.4079
79.4077
79.4075
79.4073
79.4072
79.407
79.4068
79.4067
79.4065
79.4064
79.4062
79.4061
79.4059
79.4058
79.4057
79.4056
79.4054
79.4053
79.4052
79.4052
79.4051
79.405
79.405
79.4049
79.4049
79.4049
79.4049
79.4049
79.405
79.405
79.4051
79.4051
79.4052
79.4053
79.4054
79.4056
79.4057
79.4058
77.4498
77.4498
77.4498
77.4498
77.4498
77.4498
77.4498
77.4498
77.4499
77.4499
77.4499
77.4499
77.4499
77.4499
77.4499
77.45
77.45
77.45
77.45
77.45
77.4501
77.4501
77.4501
77.4502
77.4502
77.4502
77.4503
77.4503
77.4503
77.4503
77.4504
77.4504
77.4504
77.4504
77.4504
77.4503
77.4503
77.4503
77.4502
77.4501
77.45
77.4499
77.4498
77.4497
77.4495
77.4494
77.4492
77.449
77.4489
77.4487
77.4485
77.4483
77.448
77.4478
77.4476
77.4474
77.4472
77.447
77.4467
77.4465
77.4463
77.4461
77.4459
77.4457
77.4455
77.4453
77.4452
77.445
77.4448
77.4447
77.4445
77.4444
77.4442
77.4441
77.4439
77.4438
77.4437
77.4435
77.4434
77.4433
77.4432
77.4431
77.4431
77.443
77.4429
77.4429
77.4429
77.4429
77.4429
77.4429
77.4429
77.443
77.443
77.4431
77.4432
77.4433
77.4434
77.4435
77.4437
77.4438
75.4878
75.4878
75.4878
75.4878
75.4878
75.4878
75.4878
75.4878
75.4879
75.4879
75.4879
75.4879
75.4879
75.4879
75.4879
75.488
75.488
75.488
75.488
75.488
75.4881
75.4881
75.4881
75.4882
75.4882
75.4882
75.4883
75.4883
75.4883
75.4883
75.4884
75.4884
75.4884
75.4884
75.4884
75.4884
75.4883
75.4883
75.4882
75.4882
75.4881
75.488
75.4879
75.4877
75.4876
75.4874
75.4873
75.4871
75.4869
75.4867
75.4865
75.4863
75.4861
75.4858
75.4856
75.4854
75.4852
75.4849
75.4847
75.4845
75.4843
75.4841
75.4839
75.4837
75.4835
75.4833
75.4831
75.483
75.4828
75.4826
75.4825
75.4823
75.4822
75.482
75.4819
75.4818
75.4816
75.4815
75.4814
75.4813
75.4812
75.4811
75.481
75.481
75.4809
75.4809
75.4808
75.4808
75.4808
75.4809
75.4809
75.4809
75.481
75.4811
75.4812
75.4813
75.4814
75.4815
75.4817
75.4818
73.5258
73.5258
73.5258
73.5258
73.5258
73.5258
73.5258
73.5258
73.5259
73.5259
73.5259
73.5259
73.5259
73.5259
73.5259
73.526
73.526
73.526
73.526
73.526
73.5261
73.5261
73.5261
73.5262
73.5262
73.5262
73.5263
73.5263
73.5263
73.5264
73.5264
73.5264
73.5264
73.5264
73.5264
73.5264
73.5264
73.5263
73.5263
73.5262
73.5261
73.526
73.5259
73.5258
73.5256
73.5255
73.5253
73.5251
73.5249
73.5247
73.5245
73.5243
73.5241
73.5238
73.5236
73.5234
73.5232
73.5229
73.5227
73.5225
73.5223
73.5221
73.5219
73.5217
73.5215
73.5213
73.5211
73.521
73.5208
73.5206
73.5205
73.5203
73.5202
73.52
73.5199
73.5198
73.5196
73.5195
73.5194
73.5193
73.5192
73.5191
73.519
73.5189
73.5189
73.5188
73.5188
73.5188
73.5188
73.5188
73.5189
73.5189
73.519
73.5191
73.5192
73.5193
73.5194
73.5195
73.5196
73.5198
71.5638
71.5638
71.5638
71.5638
71.5638
71.5638
71.5638
71.5638
71.5638
71.5639
71.5639
71.5639
71.5639
71.5639
71.5639
71.564
71.564
71.564
71.564
71.564
71.5641
71.5641
71.5641
71.5642
71.5642
71.5642
71.5643
71.5643
71.5644
71.5644
71.5644
71.5644
71.5645
71.5645
71.5645
71.5644
71.5644
71.5644
71.5643
71.5642
71.5642
71.564
71.5639
71.5638
71.5636
71.5635
71.5633
71.5631
71.5629
71.5627
71.5625
71.5623
71.5621
71.5619
71.5616
71.5614
71.5612
71.5609
71.5607
71.5605
71.5603
71.5601
71.5599
71.5597
71.5595
71.5593
71.5591
71.5589
71.5588
71.5586
71.5585
71.5583
71.5582
71.558
71.5579
71.5577
71.5576
71.5575
71.5574
71.5572
71.5571
71.557
71.557
71.5569
71.5568
71.5568
71.5568
71.5568
71.5568
71.5568
71.5568
71.5569
71.5569
71.557
71.5571
71.5572
71.5574
71.5575
71.5576
71.5578
69.6018
69.6018
69.6018
69.6018
69.6018
69.6018
69.6018
69.6018
69.6018
69.6019
69.6019
69.6019
69.6019
69.6019
69.6019
69.602
69.602
69.602
69.602
69.602
69.6021
69.6021
69.6021
69.6022
69.6022
69.6022
69.6023
69.6023
69.6024
69.6024
69.6024
69.6025
69.6025
69.6025
69.6025
69.6025
69.6025
69.6024
69.6024
69.6023
69.6022
69.6021
69.602
69.6018
69.6017
69.6015
69.6014
69.6012
69.601
69.6008
69.6005
69.6003
69.6001
69.5999
69.5996
69.5994
69.5992
69.5989
69.5987
69.5985
69.5983
69.5981
69.5978
69.5976
69.5975
69.5973
69.5971
69.5969
69.5968
69.5966
69.5964
69.5963
69.5961
69.596
69.5959
69.5957
69.5956
69.5955
69.5953
69.5952
69.5951
69.595
69.5949
69.5949
69.5948
69.5947
69.5947
69.5947
69.5947
69.5947
69.5948
69.5948
69.5949
69.595
69.5951
69.5952
69.5953
69.5955
69.5956
69.5958
67.6398
67.6398
67.6398
67.6398
67.6398
67.6398
67.6398
67.6398
67.6398
67.6399
67.6399
67.6399
67.6399
67.6399
67.6399
67.64
67.64
67.64
67.64
67.64
67.6401
67.6401
67.6401
67.6402
67.6402
67.6402
67.6403
67.6403
67.6404
67.6404
67.6405
67.6405
67.6405
67.6405
67.6405
67.6405
67.6405
67.6405
67.6404
67.6403
67.6402
67.6401
67.64
67.6399
67.6397
67.6396
67.6394
67.6392
67.639
67.6388
67.6386
67.6383
67.6381
67.6379
67.6376
67.6374
67.6372
67.6369
67.6367
67.6365
67.6363
67.636
67.6358
67.6356
67.6354
67.6353
67.6351
67.6349
67.6347
67.6346
67.6344
67.6343
67.6341
67.634
67.6338
67.6337
67.6336
67.6334
67.6333
67.6332
67.6331
67.633
67.6329
67.6328
67.6327
67.6327
67.6327
67.6327
67.6327
67.6327
67.6327
67.6328
67.6329
67.6329
67.633
67.6332
67.6333
67.6334
67.6336
67.6337
65.6778
65.6778
65.6778
65.6778
65.6778
65.6778
65.6778
65.6778
65.6778
65.6779
65.6779
65.6779
65.6779
65.6779
65.6779
65.678
65.678
65.678
65.678
65.678
65.6781
65.6781
65.6781
65.6782
65.6782
65.6782
65.6783
65.6783
65.6784
65.6784
65.6785
65.6785
65.6786
65.6786
65.6786
65.6786
65.6786
65.6785
65.6785
65.6784
65.6783
65.6782
65.6781
65.6779
65.6778
65.6776
65.6774
65.6772
65.677
65.6768
65.6766
65.6764
65.6761
65.6759
65.6756
65.6754
65.6752
65.6749
65.6747
65.6745
65.6742
65.674
65.6738
65.6736
65.6734
65.6732
65.6731
65.6729
65.6727
65.6726
65.6724
65.6723
65.6721
65.672
65.6718
65.6717
65.6715
65.6714
65.6713
65.6712
65.671
65.6709
65.6708
65.6708
65.6707
65.6706
65.6706
65.6706
65.6706
65.6706
65.6707
65.6707
65.6708
65.6709
65.671
65.6711
65.6713
65.6714
65.6716
65.6717
63.7158
63.7158
63.7158
63.7158
63.7158
63.7158
63.7158
63.7158
63.7158
63.7159
63.7159
63.7159
63.7159
63.7159
63.7159
63.7159
63.716
63.716
63.716
63.716
63.716
63.7161
63.7161
63.7162
63.7162
63.7163
63.7163
63.7164
63.7164
63.7165
63.7165
63.7166
63.7166
63.7166
63.7166
63.7166
63.7166
63.7166
63.7165
63.7165
63.7164
63.7163
63.7161
63.716
63.7158
63.7157
63.7155
63.7153
63.7151
63.7148
63.7146
63.7144
63.7141
63.7139
63.7137
63.7134
63.7132
63.7129
63.7127
63.7124
63.7122
63.712
63.7118
63.7116
63.7114
63.7112
63.711
63.7109
63.7107
63.7105
63.7104
63.7102
63.7101
63.7099
63.7098
63.7097
63.7095
63.7094
63.7092
63.7091
63.709
63.7089
63.7088
63.7087
63.7086
63.7086
63.7086
63.7085
63.7085
63.7086
63.7086
63.7087
63.7087
63.7088
63.709
63.7091
63.7092
63.7094
63.7095
63.7097
61.7537
61.7537
61.7538
61.7538
61.7538
61.7538
61.7538
61.7538
61.7538
61.7539
61.7539
61.7539
61.7539
61.7539
61.7539
61.7539
61.754
61.754
61.754
61.754
61.754
61.7541
61.7541
61.7542
61.7542
61.7543
61.7543
61.7544
61.7544
61.7545
61.7545
61.7546
61.7546
61.7547
61.7547
61.7547
61.7547
61.7546
61.7546
61.7545
61.7544
61.7543
61.7542
61.754
61.7539
61.7537
61.7535
61.7533
61.7531
61.7529
61.7527
61.7524
61.7522
61.7519
61.7517
61.7514
61.7512
61.7509
61.7507
61.7504
61.7502
61.75
61.7498
61.7496
61.7494
61.7492
61.749
61.7488
61.7487
61.7485
61.7484
61.7482
61.7481
61.7479
61.7478
61.7476
61.7475
61.7473
61.7472
61.7471
61.747
61.7468
61.7467
61.7467
61.7466
61.7465
61.7465
61.7465
61.7465
61.7465
61.7465
61.7466
61.7467
61.7468
61.7469
61.747
61.7472
61.7473
61.7475
61.7477
59.7917
59.7917
59.7917
59.7918
59.7918
59.7918
59.7918
59.7918
59.7918
59.7919
59.7919
59.7919
59.7919
59.7919
59.7919
59.7919
59.792
59.792
59.792
59.792
59.792
59.7921
59.7921
59.7921
59.7922
59.7923
59.7923
59.7924
59.7925
59.7925
59.7926
59.7926
59.7927
59.7927
59.7927
59.7927
59.7927
59.7927
59.7927
59.7926
59.7925
59.7924
59.7923
59.7921
59.7919
59.7918
59.7916
59.7914
59.7911
59.7909
59.7907
59.7904
59.7902
59.7899
59.7897
59.7894
59.7892
59.7889
59.7887
59.7884
59.7882
59.788
59.7877
59.7875
59.7873
59.7872
59.787
59.7868
59.7867
59.7865
59.7864
59.7862
59.7861
59.7859
59.7858
59.7856
59.7855
59.7853
59.7852
59.785
59.7849
59.7848
59.7847
59.7846
59.7845
59.7845
59.7844
59.7844
59.7844
59.7844
59.7845
59.7845
59.7846
59.7847
59.7849
59.785
59.7851
59.7853
59.7855
59.7857
57.8297
57.8297
57.8297
57.8297
57.8298
57.8298
57.8298
57.8298
57.8298
57.8298
57.8299
57.8299
57.8299
57.8299
57.8299
57.8299
57.83
57.83
57.83
57.83
57.83
57.8301
57.8301
57.8301
57.8302
57.8303
57.8303
57.8304
57.8305
57.8305
57.8306
57.8307
57.8307
57.8308
57.8308
57.8308
57.8308
57.8308
57.8307
57.8307
57.8306
57.8305
57.8303
57.8302
57.83
57.8298
57.8296
57.8294
57.8292
57.829
57.8287
57.8285
57.8282
57.8279
57.8277
57.8274
57.8272
57.8269
57.8266
57.8264
57.8262
57.8259
57.8257
57.8255
57.8253
57.8251
57.825
57.8248
57.8246
57.8245
57.8243
57.8242
57.824
57.8239
57.8237
57.8236
57.8234
57.8233
57.8231
57.823
57.8229
57.8227
57.8226
57.8225
57.8225
57.8224
57.8224
57.8223
57.8223
57.8224
57.8224
57.8225
57.8226
57.8227
57.8228
57.8229
57.8231
57.8233
57.8234
57.8236
55.8677
55.8677
55.8677
55.8677
55.8677
55.8678
55.8678
55.8678
55.8678
55.8678
55.8679
55.8679
55.8679
55.8679
55.8679
55.8679
55.8679
55.868
55.868
55.868
55.868
55.868
55.8681
55.8681
55.8682
55.8683
55.8683
55.8684
55.8685
55.8686
55.8686
55.8687
55.8688
55.8688
55.8689
55.8689
55.8689
55.8689
55.8688
55.8687
55.8687
55.8685
55.8684
55.8683
55.8681
55.8679
55.8677
55.8675
55.8672
55.867
55.8667
55.8665
55.8662
55.866
55.8657
55.8654
55.8651
55.8649
55.8646
55.8644
55.8641
55.8639
55.8637
55.8635
55.8633
55.8631
55.8629
55.8628
55.8626
55.8625
55.8623
55.8622
55.862
55.8619
55.8617
55.8616
55.8614
55.8613
55.8611
55.861
55.8608
55.8607
55.8606
55.8605
55.8604
55.8603
55.8603
55.8603
55.8603
55.8603
55.8603
55.8604
55.8605
55.8606
55.8607
55.8609
55.8611
55.8612
55.8614
55.8616
53.9057
53.9057
53.9057
53.9057
53.9057
53.9058
53.9058
53.9058
53.9058
53.9058
53.9059
53.9059
53.9059
53.9059
53.9059
53.9059
53.9059
53.9059
53.906
53.906
53.906
53.906
53.9061
53.9061
53.9062
53.9063
53.9063
53.9064
53.9065
53.9066
53.9067
53.9068
53.9068
53.9069
53.9069
53.907
53.907
53.9069
53.9069
53.9068
53.9067
53.9066
53.9065
53.9063
53.9062
53.906
53.9058
53.9055
53.9053
53.905
53.9048
53.9045
53.9043
53.904
53.9037
53.9034
53.9031
53.9029
53.9026
53.9023
53.9021
53.9019
53.9016
53.9014
53.9012
53.9011
53.9009
53.9007
53.9006
53.9004
53.9003
53.9001
53.9
53.8998
53.8997
53.8995
53.8994
53.8992
53.8991
53.8989
53.8988
53.8986
53.8985
53.8984
53.8983
53.8982
53.8982
53.8982
53.8982
53.8982
53.8983
53.8983
53.8984
53.8985
53.8987
53.8988
53.899
53.8992
53.8994
53.8996
51.9437
51.9437
51.9437
51.9437
51.9437
51.9437
51.9438
51.9438
51.9438
51.9438
51.9439
51.9439
51.9439
51.9439
51.9439
51.9439
51.9439
51.9439
51.9439
51.944
51.944
51.944
51.9441
51.9441
51.9442
51.9443
51.9443
51.9444
51.9445
51.9446
51.9447
51.9448
51.9449
51.9449
51.945
51.945
51.945
51.945
51.945
51.9449
51.9448
51.9447
51.9446
51.9444
51.9442
51.944
51.9438
51.9436
51.9433
51.9431
51.9428
51.9426
51.9423
51.942
51.9417
51.9414
51.9411
51.9408
51.9406
51.9403
51.9401
51.9398
51.9396
51.9394
51.9392
51.939
51.9389
51.9387
51.9386
51.9384
51.9383
51.9381
51.938
51.9378
51.9377
51.9375
51.9374
51.9372
51.937
51.9369
51.9367
51.9366
51.9364
51.9363
51.9362
51.9362
51.9361
51.9361
51.9361
51.9361
51.9362
51.9362
51.9363
51.9365
51.9366
51.9368
51.9369
51.9371
51.9373
51.9375
49.9817
49.9817
49.9817
49.9817
49.9817
49.9817
49.9818
49.9818
49.9818
49.9818
49.9819
49.9819
49.9819
49.9819
49.9819
49.9819
49.9819
49.9819
49.9819
49.9819
49.982
49.982
49.982
49.9821
49.9822
49.9822
49.9823
49.9824
49.9825
49.9826
49.9828
49.9829
49.9829
49.983
49.9831
49.9831
49.9831
49.9831
49.9831
49.983
49.9829
49.9828
49.9827
49.9825
49.9823
49.9821
49.9819
49.9816
49.9814
49.9811
49.9809
49.9806
49.9803
49.98
49.9797
49.9794
49.9791
49.9788
49.9786
49.9783
49.978
49.9778
49.9776
49.9774
49.9772
49.977
49.9768
49.9767
49.9765
49.9764
49.9763
49.9761
49.976
49.9758
49.9757
49.9755
49.9753
49.9752
49.975
49.9748
49.9747
49.9745
49.9744
49.9743
49.9741
49.9741
49.974
49.974
49.974
49.974
49.9741
49.9741
49.9743
49.9744
49.9745
49.9747
49.9749
49.9751
49.9753
49.9755
48.0197
48.0197
48.0197
48.0197
48.0197
48.0197
48.0198
48.0198
48.0198
48.0198
48.0199
48.0199
48.0199
48.0199
48.0199
48.0199
48.0199
48.0199
48.0199
48.0199
48.0199
48.02
48.02
48.0201
48.0201
48.0202
48.0203
48.0204
48.0206
48.0207
48.0208
48.0209
48.021
48.0211
48.0212
48.0212
48.0212
48.0212
48.0212
48.0211
48.021
48.0209
48.0208
48.0206
48.0204
48.0202
48.02
48.0197
48.0195
48.0192
48.0189
48.0186
48.0183
48.018
48.0177
48.0174
48.0171
48.0168
48.0165
48.0162
48.016
48.0157
48.0155
48.0153
48.0151
48.015
48.0148
48.0146
48.0145
48.0144
48.0142
48.0141
48.0139
48.0138
48.0136
48.0135
48.0133
48.0131
48.0129
48.0128
48.0126
48.0124
48.0123
48.0122
48.0121
48.012
48.0119
48.0119
48.0119
48.0119
48.012
48.0121
48.0122
48.0123
48.0125
48.0126
48.0128
48.013
48.0133
48.0135
46.0576
46.0576
46.0577
46.0577
46.0577
46.0577
46.0577
46.0578
46.0578
46.0578
46.0579
46.0579
46.0579
46.0579
46.0579
46.0579
46.0579
46.0579
46.0579
46.0579
46.0579
46.0579
46.058
46.0581
46.0581
46.0582
46.0583
46.0585
46.0586
46.0587
46.0588
46.059
46.0591
46.0592
46.0592
46.0593
46.0593
46.0593
46.0593
46.0592
46.0591
46.059
46.0589
46.0587
46.0585
46.0583
46.058
46.0578
46.0575
46.0572
46.057
46.0567
46.0564
46.056
46.0557
46.0554
46.0551
46.0548
46.0545
46.0542
46.0539
46.0537
46.0535
46.0533
46.0531
46.0529
46.0528
46.0526
46.0525
46.0523
46.0522
46.0521
46.0519
46.0518
46.0516
46.0515
46.0513
46.0511
46.0509
46.0507
46.0505
46.0504
46.0502
46.0501
46.05
46.0499
46.0498
46.0498
46.0498
46.0498
46.0499
46.0499
46.0501
46.0502
46.0504
46.0506
46.0508
46.051
46.0512
46.0515
44.0956
44.0956
44.0956
44.0957
44.0957
44.0957
44.0957
44.0958
44.0958
44.0958
44.0959
44.0959
44.0959
44.0959
44.0959
44.0959
44.0959
44.0959
44.0959
44.0959
44.0959
44.0959
44.096
44.096
44.0961
44.0962
44.0963
44.0965
44.0966
44.0967
44.0969
44.097
44.0971
44.0973
44.0973
44.0974
44.0974
44.0974
44.0974
44.0974
44.0973
44.0971
44.097
44.0968
44.0966
44.0964
44.0961
44.0959
44.0956
44.0953
44.095
44.0947
44.0944
44.0941
44.0937
44.0934
44.0931
44.0928
44.0925
44.0922
44.0919
44.0916
44.0914
44.0912
44.091
44.0909
44.0907
44.0906
44.0904
44.0903
44.0902
44.0901
44.0899
44.0898
44.0896
44.0894
44.0893
44.0891
44.0889
44.0887
44.0885
44.0883
44.0881
44.088
44.0879
44.0878
44.0877
44.0877
44.0877
44.0877
44.0877
44.0878
44.088
44.0881
44.0883
44.0885
44.0887
44.0889
44.0892
44.0894
42.1336
42.1336
42.1336
42.1336
42.1337
42.1337
42.1337
42.1338
42.1338
42.1338
42.1339
42.1339
42.1339
42.1339
42.1339
42.1339
42.1339
42.1339
42.1339
42.1339
42.1339
42.1339
42.1339
42.134
42.1341
42.1342
42.1343
42.1345
42.1346
42.1348
42.1349
42.1351
42.1352
42.1353
42.1354
42.1355
42.1356
42.1356
42.1355
42.1355
42.1354
42.1353
42.1351
42.1349
42.1347
42.1345
42.1342
42.1339
42.1337
42.1334
42.1331
42.1327
42.1324
42.1321
42.1318
42.1314
42.1311
42.1307
42.1304
42.1301
42.1298
42.1296
42.1294
42.1291
42.129
42.1288
42.1287
42.1285
42.1284
42.1283
42.1282
42.1281
42.1279
42.1278
42.1276
42.1274
42.1272
42.127
42.1268
42.1266
42.1264
42.1262
42.126
42.1259
42.1258
42.1256
42.1256
42.1255
42.1255
42.1256
42.1256
42.1257
42.1259
42.126
42.1262
42.1264
42.1266
42.1269
42.1271
42.1274
40.1716
40.1716
40.1716
40.1716
40.1716
40.1717
40.1717
40.1718
40.1718
40.1718
40.1719
40.1719
40.1719
40.1719
40.1719
40.1719
40.1719
40.1719
40.1718
40.1718
40.1718
40.1718
40.1719
40.172
40.172
40.1722
40.1723
40.1725
40.1726
40.1728
40.173
40.1731
40.1733
40.1734
40.1735
40.1736
40.1737
40.1737
40.1737
40.1736
40.1735
40.1734
40.1732
40.173
40.1728
40.1725
40.1723
40.172
40.1717
40.1714
40.1711
40.1708
40.1705
40.1701
40.1698
40.1694
40.1691
40.1687
40.1684
40.1681
40.1678
40.1675
40.1673
40.1671
40.1669
40.1667
40.1666
40.1665
40.1664
40.1663
40.1662
40.166
40.1659
40.1658
40.1656
40.1654
40.1652
40.165
40.1648
40.1646
40.1643
40.1641
40.164
40.1638
40.1636
40.1635
40.1634
40.1634
40.1634
40.1634
40.1635
40.1636
40.1637
40.1639
40.1641
40.1643
40.1646
40.1648
40.1651
40.1654
38.2096
38.2096
38.2096
38.2096
38.2096
38.2097
38.2097
38.2098
38.2098
38.2099
38.2099
38.2099
38.21
38.21
38.2099
38.2099
38.2099
38.2099
38.2098
38.2098
38.2098
38.2098
38.2098
38.2099
38.21
38.2101
38.2103
38.2105
38.2106
38.2108
38.211
38.2112
38.2114
38.2115
38.2117
38.2118
38.2118
38.2119
38.2118
38.2118
38.2117
38.2115
38.2113
38.2111
38.2109
38.2107
38.2104
38.2101
38.2098
38.2095
38.2092
38.2088
38.2085
38.2081
38.2078
38.2074
38.207
38.2067
38.2063
38.206
38.2057
38.2054
38.2052
38.205
38.2048
38.2047
38.2046
38.2045
38.2044
38.2043
38.2042
38.204
38.2039
38.2038
38.2036
38.2034
38.2032
38.203
38.2027
38.2025
38.2023
38.2021
38.2019
38.2017
38.2015
38.2014
38.2013
38.2013
38.2012
38.2013
38.2014
38.2015
38.2016
38.2018
38.202
38.2022
38.2025
38.2028
38.203
38.2033
36.2475
36.2475
36.2475
36.2476
36.2476
36.2476
36.2477
36.2477
36.2478
36.2479
36.2479
36.2479
36.248
36.248
36.248
36.2479
36.2479
36.2478
36.2478
36.2478
36.2477
36.2477
36.2478
36.2479
36.248
36.2481
36.2483
36.2485
36.2487
36.2489
36.2491
36.2493
36.2495
36.2496
36.2498
36.2499
36.25
36.25
36.25
36.2499
36.2498
36.2497
36.2495
36.2493
36.249
36.2488
36.2485
36.2482
36.2479
36.2476
36.2472
36.2469
36.2465
36.2462
36.2458
36.2454
36.245
36.2447
36.2443
36.244
36.2436
36.2434
36.2431
36.2429
36.2428
36.2426
36.2425
36.2424
36.2423
36.2422
36.2422
36.242
36.2419
36.2418
36.2416
36.2414
36.2412
36.241
36.2407
36.2405
36.2402
36.24
36.2397
36.2395
36.2394
36.2392
36.2392
36.2391
36.2391
36.2391
36.2392
36.2393
36.2395
36.2397
36.2399
36.2401
36.2404
36.2407
36.241
36.2413
34.2855
34.2855
34.2855
34.2855
34.2856
34.2856
34.2857
34.2857
34.2858
34.2859
34.2859
34.286
34.286
34.286
34.286
34.2859
34.2859
34.2858
34.2858
34.2857
34.2857
34.2857
34.2857
34.2858
34.2859
34.2861
34.2862
34.2864
34.2867
34.2869
34.2871
34.2873
34.2876
34.2877
34.2879
34.288
34.2881
34.2882
34.2882
34.2881
34.288
34.2878
34.2876
34.2874
34.2871
34.2869
34.2866
34.2863
34.286
34.2856
34.2853
34.2849
34.2846
34.2842
34.2838
34.2834
34.283
34.2826
34.2822
34.2819
34.2816
34.2813
34.281
34.2808
34.2807
34.2805
34.2804
34.2804
34.2803
34.2802
34.2801
34.28
34.2799
34.2798
34.2796
34.2794
34.2792
34.2789
34.2787
34.2784
34.2781
34.2779
34.2776
34.2774
34.2772
34.2771
34.277
34.2769
34.2769
34.277
34.277
34.2772
34.2773
34.2775
34.2778
34.278
34.2783
34.2786
34.2789
34.2792
32.3235
32.3235
32.3235
32.3235
32.3235
32.3236
32.3237
32.3237
32.3238
32.3239
32.3239
32.324
32.324
32.324
32.324
32.3239
32.3239
32.3238
32.3237
32.3237
32.3236
32.3236
32.3237
32.3237
32.3239
32.324
32.3242
32.3244
32.3247
32.3249
32.3252
32.3254
32.3257
32.3259
32.326
32.3262
32.3263
32.3264
32.3263
32.3263
32.3262
32.326
32.3258
32.3255
32.3253
32.325
32.3247
32.3244
32.324
32.3237
32.3234
32.323
32.3226
32.3222
32.3218
32.3214
32.321
32.3206
32.3202
32.3198
32.3195
32.3192
32.3189
32.3187
32.3186
32.3185
32.3184
32.3183
32.3183
32.3182
32.3181
32.3181
32.3179
32.3178
32.3176
32.3174
32.3172
32.3169
32.3166
32.3163
32.3161
32.3158
32.3155
32.3153
32.3151
32.3149
32.3148
32.3148
32.3147
32.3148
32.3149
32.315
32.3152
32.3154
32.3157
32.3159
32.3162
32.3165
32.3169
32.3172
30.3614
30.3614
30.3615
30.3615
30.3615
30.3616
30.3616
30.3617
30.3618
30.3619
30.362
30.362
30.3621
30.3621
30.362
30.362
30.3619
30.3618
30.3617
30.3616
30.3616
30.3615
30.3616
30.3617
30.3618
30.362
30.3622
30.3624
30.3627
30.363
30.3632
30.3635
30.3638
30.364
30.3642
30.3644
30.3645
30.3645
30.3645
30.3645
30.3644
30.3642
30.364
30.3637
30.3634
30.3631
30.3628
30.3625
30.3621
30.3618
30.3614
30.3611
30.3607
30.3603
30.3598
30.3594
30.359
30.3585
30.3581
30.3577
30.3574
30.3571
30.3568
30.3566
30.3565
30.3564
30.3563
30.3563
30.3562
30.3562
30.3562
30.3561
30.356
30.3558
30.3556
30.3554
30.3552
30.3549
30.3546
30.3543
30.354
30.3537
30.3534
30.3531
30.3529
30.3528
30.3526
30.3526
30.3526
30.3526
30.3527
30.3528
30.353
30.3533
30.3535
30.3538
30.3541
30.3545
30.3548
30.3552
28.3994
28.3994
28.3994
28.3994
28.3995
28.3995
28.3996
28.3997
28.3998
28.3999
28.4
28.4001
28.4001
28.4001
28.4001
28.4
28.3999
28.3998
28.3997
28.3996
28.3995
28.3995
28.3995
28.3996
28.3997
28.3999
28.4001
28.4004
28.4007
28.401
28.4013
28.4016
28.4019
28.4021
28.4024
28.4025
28.4027
28.4028
28.4028
28.4027
28.4026
28.4024
28.4021
28.4018
28.4015
28.4012
28.4009
28.4005
28.4002
28.3999
28.3995
28.3991
28.3987
28.3983
28.3979
28.3974
28.3969
28.3965
28.396
28.3956
28.3953
28.3949
28.3947
28.3945
28.3944
28.3943
28.3942
28.3942
28.3942
28.3942
28.3942
28.3941
28.394
28.3939
28.3937
28.3935
28.3932
28.3929
28.3926
28.3922
28.3919
28.3916
28.3913
28.391
28.3908
28.3906
28.3904
28.3904
28.3903
28.3904
28.3905
28.3906
28.3909
28.3911
28.3914
28.3917
28.392
28.3924
28.3928
28.3931
26.4374
26.4374
26.4374
26.4374
26.4374
26.4375
26.4376
26.4377
26.4378
26.4379
26.438
26.4381
26.4382
26.4382
26.4381
26.438
26.4379
26.4378
26.4376
26.4375
26.4374
26.4374
26.4374
26.4375
26.4376
26.4378
26.4381
26.4384
26.4387
26.439
26.4393
26.4397
26.44
26.4403
26.4405
26.4407
26.4409
26.441
26.441
26.4409
26.4408
26.4406
26.4403
26.44
26.4397
26.4393
26.439
26.4386
26.4383
26.4379
26.4376
26.4372
26.4368
26.4363
26.4359
26.4354
26.4349
26.4344
26.434
26.4335
26.4331
26.4328
26.4326
26.4324
26.4322
26.4322
26.4322
26.4322
26.4322
26.4322
26.4322
26.4321
26.4321
26.4319
26.4317
26.4315
26.4312
26.4309
26.4305
26.4302
26.4298
26.4295
26.4291
26.4288
26.4286
26.4284
26.4282
26.4281
26.4281
26.4282
26.4283
26.4285
26.4287
26.4289
26.4292
26.4296
26.4299
26.4303
26.4307
26.4311
24.4753
24.4753
24.4753
24.4754
24.4754