/*--------------------------------*- C++ -*----------------------------------*\
| =========                 |                                                 |
| \\      /  F ield         | OpenFOAM: The Open Source CFD Toolbox           |
|  \\    /   O peration     | Version:  2.4.0                                 |
|   \\  /    A nd           | Web:      www.OpenFOAM.org                      |
|    \\/     M anipulation  |                                                 |
\*---------------------------------------------------------------------------*/
FoamFile
{
    version     2.0;
    format      ascii;
    class       volScalarField;
    location    "0.072";
    object      alpha.water;
}
// * * * * * * * * * * * * * * * * * * * * * * * * * * * * * * * * * * * * * //

dimensions      [0 0 0 0 0 0 0];

internalField   nonuniform List<scalar> 
60000
(
1
1
1
1
1
1
1
1
1
1
1
1
1
1
1
1
1
1
1
1
1
1
1
1
1
1
1
1
1
1
1
1
1
1
1
1
1
1
1
1
1
1
1
1
1
1
1
1
1
1
1
1
1
1
1
1
1
1
1
1
1
1
1
1
1
1
1
1
1
1
1
1
1
1
1
1
1
1
1
1
1
1
1
1
1
1
1
1
1
1
1
1
1
1
1
1
1
1
1
1
1
1
1
1
1
1
1
1
1
1
1
1
1
1
1
1
1
1
1
1
1
1
1
1
1
1
1
1
1
1
1
1
1
1
1
1
1
1
1
1
1
1
1
1
1
1
1
1
1
1
1
1
1
1
1
1
1
1
1
1
1
1
1
1
1
1
1
1
1
1
1
1
1
1
1
1
1
1
1
1
1
1
1
1
1
1
1
1
1
1
1
1
1
1
1
1
1
1
1
1
1
1
1
1
1
1
1
1
1
1
1
1
1
1
1
1
1
1
1
1
1
1
1
1
1
1
1
1
1
1
1
1
1
1
1
1
1
1
1
1
1
1
1
1
1
1
1
1
1
1
1
1
1
1
1
1
1
1
1
1
1
1
1
1
1
1
1
1
1
1
1
1
1
1
1
1
1
1
1
1
1
1
1
1
1
1
1
1
1
1
1
1
1
1
1
1
1
1
1
1
1
1
1
1
1
1
1
1
1
1
1
1
1
1
1
1
1
1
1
1
1
1
1
1
1
1
1
1
1
1
1
1
1
1
1
1
1
1
1
1
1
1
1
1
1
1
1
1
1
1
1
1
1
1
1
1
1
1
1
1
1
1
1
1
1
1
1
1
1
1
1
1
1
1
1
1
1
1
1
1
1
1
1
1
1
1
1
1
1
1
1
1
1
1
1
1
1
1
1
1
1
1
1
1
1
1
1
1
1
1
1
1
1
1
1
1
1
1
1
1
1
1
1
1
1
1
1
1
1
1
1
1
1
1
1
1
1
1
1
1
1
1
1
1
1
1
1
1
1
1
1
1
1
1
1
1
1
1
1
1
1
1
1
1
1
1
1
1
1
1
1
1
1
1
1
1
1
1
1
1
1
1
1
1
1
1
1
1
1
1
1
1
1
1
1
1
1
1
1
1
1
1
1
1
1
1
1
1
1
1
1
1
1
1
1
1
1
1
1
1
1
1
1
1
1
1
1
1
1
1
1
1
1
1
1
1
1
1
1
1
1
1
1
1
1
1
1
1
1
1
1
1
1
1
1
1
1
1
1
1
1
1
1
1
1
1
1
1
1
1
1
1
1
1
1
1
1
1
1
1
1
1
1
1
1
1
1
1
1
1
1
1
1
1
1
1
1
1
1
1
1
1
1
1
1
1
1
1
1
1
1
1
1
1
1
1
1
1
1
1
1
1
1
1
1
1
1
1
1
1
1
1
1
1
1
1
1
1
1
1
1
1
1
1
1
1
1
1
1
1
1
1
1
1
1
1
1
1
1
1
1
1
1
1
1
1
1
1
1
1
1
1
1
1
1
1
1
1
1
1
1
1
1
1
1
1
1
1
1
1
1
1
1
1
1
1
1
1
1
1
1
1
1
1
1
1
1
1
1
1
1
1
1
1
1
1
1
1
1
1
1
1
1
1
1
1
1
1
1
1
1
1
1
1
1
1
1
1
1
1
1
1
1
1
1
1
1
1
1
1
1
1
1
1
1
1
1
1
1
1
1
1
1
1
1
1
1
1
1
1
1
1
1
1
1
1
1
1
1
1
1
1
1
1
1
1
1
1
1
1
1
1
1
1
1
1
1
1
1
1
1
1
1
1
1
1
1
1
1
1
1
1
1
1
1
1
1
1
1
1
1
1
1
1
1
1
1
1
1
1
1
1
1
1
1
1
1
1
1
1
1
1
1
1
1
1
1
1
1
1
1
1
1
1
1
1
1
1
1
1
1
1
1
1
1
1
1
1
1
1
1
1
1
1
1
1
1
1
1
1
1
1
1
1
1
1
1
1
1
1
1
1
1
1
1
1
1
1
1
1
1
1
1
1
1
1
1
1
1
1
1
1
1
1
1
1
1
1
1
1
1
1
1
1
1
1
1
1
1
1
1
1
1
1
1
1
1
1
1
1
1
1
1
1
1
1
1
1
1
1
1
1
1
1
1
1
1
1
1
1
1
1
1
1
1
1
1
1
1
1
1
1
1
1
1
1
1
1
1
1
1
1
1
1
1
1
1
1
1
1
1
1
1
1
1
1
1
1
1
1
1
1
1
1
1
1
1
1
1
1
1
1
1
1
1
1
1
1
1
1
1
1
1
1
1
1
1
1
1
1
1
1
1
1
1
1
1
1
1
1
1
1
1
1
1
1
1
1
1
1
1
1
1
1
1
1
1
1
1
1
1
1
1
1
1
1
1
1
1
1
1
1
1
1
1
1
1
1
1
1
1
1
1
1
1
1
1
1
1
1
1
1
1
1
1
1
1
1
1
1
1
1
1
1
1
1
1
1
1
1
1
1
1
1
1
1
1
1
1
1
1
1
1
1
1
1
1
1
1
1
1
1
1
1
1
1
1
1
1
1
1
1
1
1
1
1
1
1
1
1
1
1
1
1
1
1
1
1
1
1
1
1
1
1
1
1
1
1
1
1
1
1
1
1
1
1
1
1
1
1
1
1
1
1
1
1
1
1
1
1
1
1
1
1
1
1
1
1
1
1
1
1
1
1
1
1
1
1
1
1
1
1
1
1
1
1
1
1
1
1
1
1
1
1
1
1
1
1
1
1
1
1
1
1
1
1
1
1
1
1
1
1
1
1
1
1
1
1
1
1
1
1
1
1
1
1
1
1
1
1
1
1
1
1
1
1
1
1
1
1
1
1
1
1
1
1
1
1
1
1
1
1
1
1
1
1
1
1
1
1
1
1
1
1
1
1
1
1
1
1
1
1
1
1
1
1
1
1
1
1
1
1
1
1
1
1
1
1
1
1
1
1
1
1
1
1
1
1
1
1
1
1
1
1
1
1
1
1
1
1
1
1
1
1
1
1
1
1
1
1
1
1
1
1
1
1
1
1
1
1
1
1
1
1
1
1
1
1
1
1
1
1
1
1
1
1
1
1
1
1
1
1
1
1
1
1
1
1
1
1
1
1
1
1
1
1
1
1
1
1
1
1
1
1
1
1
1
1
1
1
1
1
1
1
1
1
1
1
1
1
1
1
1
1
1
1
1
1
1
1
1
1
1
1
1
1
1
1
1
1
1
1
1
1
1
1
1
1
1
1
1
1
1
1
1
1
1
1
1
1
1
1
1
1
1
1
1
1
1
1
1
1
1
1
1
1
1
1
1
1
1
1
1
1
1
1
1
1
1
1
1
1
1
1
1
1
1
1
1
1
1
1
1
1
1
1
1
1
1
1
1
1
1
1
1
1
1
1
1
1
1
1
1
1
1
1
1
1
1
1
1
1
1
1
1
1
1
1
1
1
1
1
1
1
1
1
1
1
1
1
1
1
1
1
1
1
1
1
1
1
1
1
1
1
1
1
1
1
1
1
1
1
1
1
1
1
1
1
1
1
1
1
1
1
1
1
1
1
1
1
1
1
1
1
1
1
1
1
1
1
1
1
1
1
1
1
1
1
1
1
1
1
1
1
1
1
1
1
1
1
1
1
1
1
1
1
1
1
1
1
1
1
1
1
1
1
1
1
1
1
1
1
1
1
1
1
1
1
1
1
1
1
1
1
1
1
1
1
1
1
1
1
1
1
1
1
1
1
1
1
1
1
1
1
1
1
1
1
1
1
1
1
1
1
1
1
1
1
1
1
1
1
1
1
1
1
1
1
1
1
1
1
1
1
1
1
1
1
1
1
1
1
1
1
1
1
1
1
1
1
1
1
1
1
1
1
1
1
1
1
1
1
1
1
1
1
1
1
1
1
1
1
1
1
1
1
1
1
1
1
1
1
1
1
1
1
1
1
1
1
1
1
1
1
1
1
1
1
1
1
1
1
1
1
1
1
1
1
1
1
1
1
1
1
1
1
1
1
1
1
1
1
1
1
1
1
1
1
1
1
1
1
1
1
1
1
1
1
1
1
1
1
1
1
1
1
1
1
1
1
1
1
1
1
1
1
1
1
1
1
1
1
1
1
1
1
1
1
1
1
1
1
1
1
1
1
1
1
1
1
1
1
1
1
1
1
1
1
1
1
1
1
1
1
1
1
1
1
1
1
1
1
1
1
1
1
1
1
1
1
1
1
1
1
1
1
1
1
1
1
1
1
1
1
1
1
1
1
1
1
1
1
1
1
1
1
1
1
1
1
1
1
1
1
1
1
1
1
1
1
1
1
1
1
1
1
1
1
1
1
1
1
1
1
1
1
1
1
1
1
1
1
1
1
1
1
1
1
1
1
1
1
1
1
1
1
1
1
1
1
1
1
1
1
1
1
1
1
1
1
1
1
1
1
1
1
1
1
1
1
1
1
1
1
1
1
1
1
1
1
1
1
1
1
1
1
1
1
1
1
1
1
1
1
1
1
1
1
1
1
1
1
1
1
1
1
1
1
1
1
1
1
1
1
1
1
1
1
1
1
1
1
1
1
1
1
1
1
1
1
1
1
1
1
1
1
1
1
1
1
1
1
1
1
1
1
1
1
1
1
1
1
1
1
1
1
1
1
1
1
1
1
1
1
1
1
1
1
1
1
1
1
1
1
1
1
1
1
1
1
1
1
1
1
1
1
1
1
1
1
1
1
1
1
1
1
1
1
1
1
1
1
1
1
1
1
1
1
1
1
1
1
1
1
1
1
1
1
1
1
1
1
1
1
1
1
1
1
1
1
1
1
1
1
1
1
1
1
1
1
1
1
1
1
1
1
1
1
1
1
1
1
1
1
1
1
1
1
1
1
1
1
1
1
1
1
1
1
1
1
1
1
1
1
1
1
1
1
1
1
1
1
1
1
1
1
1
1
1
1
1
1
1
1
1
1
1
1
1
1
1
1
1
1
1
1
1
1
1
1
1
1
1
1
1
1
1
1
1
1
1
1
1
1
1
1
1
1
1
1
1
1
1
1
1
1
1
1
1
1
1
1
1
1
1
1
1
1
1
1
1
1
1
1
1
1
1
1
1
1
1
1
1
1
1
1
1
1
1
1
1
1
1
1
1
1
1
1
1
1
1
1
1
1
1
1
1
1
1
1
1
1
1
1
1
1
1
1
1
1
1
1
1
1
1
1
1
1
1
1
1
1
1
1
1
1
1
1
1
1
1
1
1
1
1
1
1
1
1
1
1
1
1
1
1
1
1
1
1
1
1
1
1
1
1
1
1
1
1
1
1
1
1
1
1
1
1
1
1
1
1
1
1
1
1
1
1
1
1
1
1
1
1
1
1
1
1
1
1
1
1
1
1
1
1
1
1
1
1
1
1
1
1
1
1
1
1
1
1
1
1
1
1
1
1
1
1
1
1
1
1
1
1
1
1
1
1
1
1
1
1
1
1
1
1
1
1
1
1
1
1
1
1
1
1
1
1
1
1
1
1
1
1
1
1
1
1
1
1
1
1
1
1
1
1
1
1
1
1
1
1
1
1
1
1
1
1
1
1
1
1
1
1
1
1
1
1
1
1
1
1
1
1
1
1
1
1
1
1
1
1
1
1
1
1
1
1
1
1
1
1
1
1
1
1
1
1
1
1
1
1
1
1
1
1
1
1
1
1
1
1
1
1
1
1
1
1
1
1
1
1
1
1
1
1
1
1
1
1
1
1
1
1
1
1
1
1
1
1
1
1
1
1
1
1
1
1
1
1
1
1
1
1
1
1
1
1
1
1
1
1
1
1
1
1
1
1
1
1
1
1
1
1
1
1
1
1
1
1
1
1
1
1
1
1
1
1
1
1
1
1
1
1
1
1
1
1
1
1
1
1
1
1
1
1
1
1
1
1
1
1
1
1
1
1
1
1
1
1
1
1
1
1
1
1
1
1
1
1
1
1
1
1
1
1
1
1
1
1
1
1
1
1
1
1
1
1
1
1
1
1
1
1
1
1
1
1
1
1
1
1
1
1
1
1
1
1
1
1
1
1
1
1
1
1
1
1
1
1
1
1
1
1
1
1
1
1
1
1
1
1
1
1
1
1
1
1
1
1
1
1
1
1
1
1
1
1
1
1
1
1
1
1
1
1
1
1
1
1
1
1
1
1
1
1
1
1
1
1
1
1
1
1
1
1
1
1
1
1
1
1
1
1
1
1
1
1
1
1
1
1
1
1
1
1
1
1
1
1
1
1
1
1
1
1
1
1
1
1
1
1
1
1
1
1
1
1
1
1
1
1
1
1
1
1
1
1
1
1
1
1
1
1
1
1
1
1
1
1
1
1
1
1
1
1
1
1
1
1
1
1
1
1
1
1
1
1
1
1
1
1
1
1
1
1
1
1
1
1
1
1
1
1
1
1
1
1
1
1
1
1
1
1
1
1
1
1
1
1
1
1
1
1
1
1
1
1
1
1
1
1
1
1
1
1
1
1
1
1
1
1
1
1
1
1
1
1
1
1
1
1
1
1
1
1
1
1
1
1
1
1
1
1
1
1
1
1
1
1
1
1
1
1
1
1
1
1
1
1
1
1
1
1
1
1
1
1
1
1
1
1
1
1
1
1
1
1
1
1
1
1
1
1
1
1
1
1
1
1
1
1
1
1
1
1
1
1
1
1
1
1
1
1
1
1
1
1
1
1
1
1
1
1
1
1
1
1
1
1
1
1
1
1
1
1
1
1
1
1
1
1
1
1
1
1
1
1
1
1
1
1
1
1
1
1
1
1
1
1
1
1
1
1
1
1
1
1
1
1
1
1
1
1
1
1
1
1
1
1
1
1
1
1
1
1
1
1
1
1
1
1
1
1
1
1
1
1
1
1
1
1
1
1
1
1
1
1
1
1
1
1
1
1
1
1
1
1
1
1
1
1
1
1
1
1
1
1
1
1
1
1
1
1
1
1
1
1
1
1
1
1
1
1
1
1
1
1
1
1
1
1
1
1
1
1
1
1
1
1
1
1
1
1
1
1
1
1
1
1
1
1
1
1
1
1
1
1
1
1
1
1
1
1
1
1
1
1
1
1
1
1
1
1
1
1
1
1
1
1
1
1
1
1
1
1
1
1
1
1
1
1
1
1
1
1
1
1
1
1
1
1
1
1
1
1
1
1
1
1
1
1
1
1
1
1
1
1
1
1
1
1
1
1
1
1
1
1
1
1
1
1
1
1
1
1
1
1
1
1
1
1
1
1
1
1
1
1
1
1
1
1
1
1
1
1
1
1
1
1
1
1
1
1
1
1
1
1
1
1
1
1
1
1
1
1
1
1
1
1
1
1
1
1
1
1
1
1
1
1
1
1
1
1
1
1
1
1
1
1
1
1
1
1
1
1
1
1
1
1
1
1
1
1
1
1
1
1
1
1
1
1
1
1
1
1
1
1
1
1
1
1
1
1
1
1
1
1
1
1
1
1
1
1
1
1
1
1
1
1
1
1
1
1
1
1
1
1
1
1
1
1
1
1
1
1
1
1
1
1
1
1
1
1
1
1
1
1
1
1
1
1
1
1
1
1
1
1
1
1
1
1
1
1
1
1
1
1
1
1
1
1
1
1
1
1
1
1
1
1
1
1
1
1
1
1
1
1
1
1
1
1
1
1
1
1
1
1
1
1
1
1
1
1
1
1
1
1
1
1
1
1
1
1
1
1
1
1
1
1
1
1
1
1
1
1
1
1
1
1
1
1
1
1
1
1
1
1
1
1
1
1
1
1
1
1
1
1
1
1
1
1
1
1
1
1
1
1
1
1
1
1
1
1
1
1
1
1
1
1
1
1
1
1
1
1
1
1
1
1
1
1
1
1
1
1
1
1
1
1
1
1
1
1
1
1
1
1
1
1
1
1
1
1
1
1
1
1
1
1
1
1
1
1
1
1
1
1
1
1
1
1
1
1
1
1
1
1
1
1
1
1
1
1
1
1
1
1
1
1
1
1
1
1
1
1
1
1
1
1
1
1
1
1
1
1
1
1
1
1
1
1
1
1
1
1
1
1
1
1
1
1
1
1
1
1
1
1
1
1
1
1
1
1
1
1
1
1
1
1
1
1
1
1
1
1
1
1
1
1
1
1
1
1
1
1
1
1
1
1
1
1
1
1
1
1
1
1
1
1
1
1
1
1
1
1
1
1
1
1
1
1
1
1
1
1
1
1
1
1
1
1
1
1
1
1
1
1
1
1
1
1
1
1
1
1
1
1
1
1
1
1
1
1
1
1
1
1
1
1
1
1
1
1
1
1
1
1
1
1
1
1
1
1
1
1
1
1
1
1
1
1
1
1
1
1
1
1
1
1
1
1
1
1
1
1
1
1
1
1
1
1
1
1
1
1
1
1
1
1
1
1
1
1
1
1
1
1
1
1
1
1
1
1
1
1
1
1
1
1
1
1
1
1
1
1
1
1
1
1
1
1
1
1
1
1
1
1
1
1
1
1
1
1
1
1
1
1
1
1
1
1
1
1
1
1
1
1
1
1
1
1
1
1
1
1
1
1
1
1
1
1
1
1
1
1
1
1
1
1
1
1
1
1
1
1
1
1
1
1
1
1
1
1
1
1
1
1
1
1
1
1
1
1
1
1
1
1
1
1
1
1
1
1
1
1
1
1
1
1
1
1
1
1
1
1
1
1
1
1
1
1
1
1
1
1
1
1
1
1
1
1
1
1
1
1
1
1
1
1
1
1
1
1
1
1
1
1
1
1
1
1
1
1
1
1
1
1
1
1
1
1
1
1
1
1
1
1
1
1
1
1
1
1
1
1
1
1
1
1
1
1
1
1
1
1
1
1
1
1
1
1
1
1
1
1
1
1
1
1
1
1
1
1
1
1
1
1
1
1
1
1
1
1
1
1
1
1
1
1
1
1
1
1
1
1
1
1
1
1
1
1
1
1
1
1
1
1
1
1
1
1
1
1
1
1
1
1
1
1
1
1
1
1
1
1
1
1
1
1
1
1
1
1
1
1
1
1
1
1
1
1
1
1
1
1
1
1
1
1
1
1
1
1
1
1
1
1
1
1
1
1
1
1
1
1
1
1
1
1
1
1
1
1
1
1
1
1
1
1
1
1
1
1
1
1
1
1
1
1
1
1
1
1
1
1
1
1
1
1
1
1
1
1
1
1
1
1
1
1
1
1
1
1
1
1
1
1
1
1
1
1
1
1
1
1
1
1
1
1
1
1
1
1
1
1
1
1
1
1
1
1
1
1
1
1
1
1
1
1
1
1
1
1
1
1
1
1
1
1
1
1
1
1
1
1
1
1
1
1
1
1
1
1
1
1
1
1
1
1
1
1
1
1
1
1
1
1
1
1
1
1
1
1
1
1
1
1
1
1
1
1
1
1
1
1
1
1
1
1
1
1
1
1
1
1
1
1
1
1
1
1
1
1
1
1
1
1
1
1
1
1
1
1
1
1
1
1
1
1
1
1
1
1
1
1
1
1
1
1
1
1
1
1
1
1
1
1
1
1
1
1
1
1
1
1
1
1
1
1
1
1
1
1
1
1
1
1
1
1
1
1
1
1
1
1
1
1
1
1
1
1
1
1
1
1
1
1
1
1
1
1
1
1
1
1
1
1
1
1
1
1
1
1
1
1
1
1
1
1
1
1
1
1
1
1
1
1
1
1
1
1
1
1
1
1
1
1
1
1
1
1
1
1
1
1
1
1
1
1
1
1
1
1
1
1
1
1
1
1
1
1
1
1
1
1
1
1
1
1
1
1
1
1
1
1
1
1
1
1
1
1
1
1
1
1
1
1
1
1
1
1
1
1
1
1
1
1
1
1
1
1
1
1
1
1
1
1
1
1
1
1
1
1
1
1
1
1
1
1
1
1
1
1
1
1
1
1
1
1
1
1
1
1
1
1
1
1
1
1
1
1
1
1
1
1
1
1
1
1
1
1
1
1
1
1
1
1
1
1
1
1
1
1
1
1
1
1
1
1
1
1
1
1
1
1
1
1
1
1
1
1
1
1
1
1
1
1
1
1
1
1
1
1
1
1
1
1
1
1
1
1
1
1
1
1
1
1
1
1
1
1
1
1
1
1
1
1
1
1
1
1
1
1
1
1
1
1
1
1
1
1
1
1
1
1
1
1
1
1
1
1
1
1
1
1
1
1
1
1
1
1
1
1
1
1
1
1
1
1
1
1
1
1
1
1
1
1
1
1
1
1
1
1
1
1
1
1
1
1
1
1
1
1
1
1
1
1
1
1
1
1
1
1
1
1
1
1
1
1
1
1
1
1
1
1
1
1
1
1
1
1
1
1
1
1
1
1
1
1
1
1
1
1
1
1
1
1
1
1
1
1
1
1
1
1
1
1
1
1
1
1
1
1
1
1
1
1
1
1
1
1
1
1
1
1
1
1
1
1
1
1
1
1
1
1
1
1
1
1
1
1
1
1
1
1
1
1
1
1
1
1
1
1
1
1
1
1
1
1
1
1
1
1
1
1
1
1
1
1
1
1
1
1
1
1
1
1
1
1
1
1
1
1
1
1
1
1
1
1
1
1
1
1
1
1
1
1
1
1
1
1
1
1
1
1
1
1
1
1
1
1
1
1
1
1
1
1
1
1
1
1
1
1
1
1
1
1
1
1
1
1
1
1
1
1
1
1
1
1
1
1
1
1
1
1
1
1
1
1
1
1
1
1
1
1
1
1
1
1
1
1
1
1
1
1
1
1
1
1
1
1
1
1
1
1
1
1
1
1
1
1
1
1
1
1
1
1
1
1
1
1
1
1
1
1
1
1
1
1
1
1
1
1
1
1
1
1
1
1
1
1
1
1
1
1
1
1
1
1
1
1
1
1
1
1
1
1
1
1
1
1
1
1
1
1
1
1
1
1
1
1
1
1
1
1
1
1
1
1
1
1
1
1
1
1
1
1
1
1
1
1
1
1
1
1
1
1
1
1
1
1
1
1
1
1
1
1
1
1
1
1
1
1
1
1
1
1
1
1
1
1
1
1
1
1
1
1
1
1
1
1
1
1
1
1
1
1
1
1
1
1
1
1
1
1
1
1
1
1
1
1
1
0.999996
0.999983
0.999977
0.999984
1
1
1
1
1
1
1
1
0.999988
0.999942
0.999883
0.999816
0.999754
0.999715
0.999709
0.999723
0.999751
0.999791
0.999842
0.999901
0.999967
1
1
1
1
1
1
1
1
1
0.999975
0.999914
0.99984
0.99975
0.999643
0.999517
0.999356
0.999152
0.99892
0.998671
0.998418
0.998175
0.997952
0.997756
0.997584
0.997428
0.997277
0.997121
0.996952
0.996769
0.996571
0.996364
0.996162
0.995974
0.995819
0.995702
0.995634
0.995614
0.995643
0.995709
0.995795
0.995898
0.996011
0.996138
0.996254
0.996349
0.99645
0.996511
0.996608
0.996637
0.996785
0.996793
0.997052
0.996796
0.000573182
0.000574452
0.000576339
0.000579416
0.000583604
0.000589991
0.000598828
0.000610291
0.000623049
0.000635132
0.000644465
0.0006508
0.00065614
0.000664557
0.000680115
0.000705552
0.000741298
0.000784283
0.000826868
0.000860654
0.000879409
0.000880753
0.000869504
0.000856431
0.000846895
0.000855182
0.000893604
0.000986203
0.00110738
0.00124267
0.00137222
0.00147853
0.00154791
0.00157272
0.00155938
0.00153403
0.00150378
0.00147118
0.00143932
0.00141546
0.00140332
0.00142563
0.00149155
0.00160198
0.00175448
0.00194134
0.00215248
0.00241377
0.00271077
0.00300073
0.00327505
0.00352453
0.00374354
0.00392026
0.00404166
0.00410092
0.00412236
0.00413036
0.00413035
0.00411876
0.00409425
0.00405886
0.00401421
0.00396634
0.0039127
0.0038476
0.00378021
0.00371965
0.00366507
0.00361945
0.00358117
0.00354705
0.00351414
0.00347752
0.0034346
0.00338494
0.00332745
0.003264
0.0031969
0.00312971
0.00306601
0.00300797
0.00295756
0.00291159
0.00287387
0.00283508
0.00280968
0.00277327
0.00272122
0.00262648
0.00250288
0.00234318
0.0021394
0.00191404
0.00161199
0.00132896
0.000912046
0.00060255
4.93675e-05
2.92073e-12
9.47045e-11
9.86426e-11
9.62053e-11
9.5543e-11
9.49513e-11
9.42546e-11
9.36385e-11
9.32876e-11
9.35299e-11
9.44936e-11
9.61614e-11
9.78089e-11
9.7534e-11
9.51116e-11
9.26467e-11
9.11061e-11
9.01282e-11
8.9873e-11
9.04554e-11
9.22685e-11
9.87471e-11
1.55563e-11
2.55236e-12
2.55235e-12
2.73299e-12
9.09729e-11
8.93334e-11
9.1132e-11
9.47134e-11
9.9203e-11
1.03378e-10
1.06216e-10
1.04747e-10
1.43772e-11
1.395e-11
1.395e-11
1.395e-11
1.395e-11
1.395e-11
1.39538e-11
1.05436e-10
1.04038e-10
1.06144e-10
1.1335e-10
1.27075e-10
1.4772e-10
1.75646e-10
2.13933e-10
2.55527e-10
2.94996e-10
3.33116e-10
3.61089e-10
3.75736e-10
3.388e-10
1.27735e-10
4.18319e-11
4.18319e-11
4.18327e-11
4.18341e-11
4.18353e-11
4.1837e-11
4.18393e-11
4.18424e-11
4.18467e-11
4.18525e-11
4.18598e-11
4.18681e-11
4.18764e-11
4.18842e-11
4.1891e-11
4.18965e-11
4.1901e-11
4.19051e-11
4.19095e-11
4.19149e-11
4.19217e-11
4.19299e-11
4.19347e-11
4.19257e-11
4.19174e-11
4.19106e-11
4.19058e-11
4.19035e-11
4.19035e-11
4.19094e-11
1.2882e-10
4.86562e-10
1.85485e-10
5.25988e-11
2.56343e-11
2.56296e-11
2.56232e-11
2.56148e-11
2.56062e-11
2.55962e-11
2.55873e-11
2.55788e-11
2.5573e-11
2.55726e-11
2.55723e-11
1.85357e-12
4.04039e-12
2.61126e-12
2.07009e-12
1.70474e-12
1.49867e-12
1.54474e-12
1.61938e-12
1.80701e-12
1.95068e-12
2.01972e-12
2.00352e-12
2.1073e-12
2.12584e-12
2.17013e-12
2.37186e-12
2.42758e-12
2.51764e-12
2.70704e-12
2.86655e-12
2.81139e-12
2.71344e-12
2.70132e-12
2.74449e-12
2.87564e-12
2.7866e-12
3.66789e-12
6.15391e-12
1.00421e-11
1.46231e-11
1.86754e-11
2.103e-11
2.16435e-11
2.12409e-11
2.08413e-11
2.03969e-11
2.00418e-11
1.96348e-11
1.92631e-11
1.88308e-11
1.83656e-11
1.86306e-11
2.15216e-11
2.90641e-11
4.29548e-11
6.3681e-11
9.17783e-11
1.30111e-10
1.71673e-10
2.11124e-10
2.49196e-10
2.77073e-10
2.91563e-10
2.9927e-10
3.1017e-10
3.2323e-10
3.31646e-10
3.36035e-10
3.39964e-10
3.43898e-10
3.48511e-10
3.54527e-10
3.62966e-10
3.70576e-10
3.78255e-10
3.85766e-10
3.94147e-10
4.02982e-10
4.1171e-10
4.21109e-10
4.30032e-10
4.39987e-10
4.48583e-10
4.59275e-10
4.68838e-10
4.78784e-10
4.9133e-10
4.99143e-10
5.15862e-10
5.17539e-10
5.41076e-10
5.31147e-10
5.63889e-10
5.35529e-10
5.79918e-10
5.28543e-10
5.82925e-10
5.06137e-10
5.64763e-10
4.66668e-10
5.20285e-10
4.1088e-10
4.44599e-10
3.44377e-10
3.50112e-10
2.79132e-10
2.56676e-10
1.88768e-10
9.73296e-11
5.05111e-11
4.34809e-15
3.5196e-15
1.76303e-15
1.19454e-15
8.26545e-16
6.37298e-16
6.34578e-16
6.68673e-16
7.92241e-16
9.0714e-16
9.87061e-16
1.01443e-15
1.12299e-15
1.15916e-15
1.18269e-15
1.26966e-15
1.15061e-15
9.83481e-16
9.36669e-16
1.02315e-15
1.04173e-15
1.06162e-15
1.12048e-15
1.2098e-15
1.39209e-15
1.3013e-15
1.51457e-15
2.14573e-15
3.41054e-15
5.32876e-15
7.63043e-15
9.78223e-15
1.1187e-14
1.14532e-14
1.09955e-14
1.05048e-14
1.00711e-14
9.63741e-15
9.25568e-15
8.86247e-15
8.54327e-15
9.18226e-15
1.1246e-14
1.56184e-14
2.41517e-14
3.96385e-14
6.52135e-14
1.05188e-13
1.62142e-13
2.32465e-13
3.15171e-13
3.91284e-13
4.42147e-13
4.80146e-13
5.23615e-13
5.59047e-13
5.75777e-13
5.81911e-13
5.89445e-13
5.99298e-13
6.08374e-13
6.16204e-13
6.28432e-13
6.41746e-13
6.59252e-13
6.72231e-13
6.8873e-13
7.03971e-13
7.21744e-13
7.37339e-13
7.54629e-13
7.69956e-13
7.85746e-13
8.00985e-13
8.19306e-13
8.30772e-13
8.58202e-13
8.63736e-13
9.02794e-13
8.91622e-13
9.45013e-13
9.08224e-13
9.78174e-13
9.04845e-13
9.93163e-13
8.79664e-13
9.79323e-13
8.22188e-13
9.24342e-13
7.40558e-13
8.40743e-13
6.59673e-13
7.69666e-13
6.61309e-13
9.37607e-13
1.22953e-12
2.40695e-12
2.70313e-12
2.24025e-12
8.84742e-13
1.7665e-17
2.96102e-18
9.16804e-19
5.39009e-19
3.17464e-19
2.1611e-19
2.05069e-19
2.16916e-19
2.70928e-19
3.2766e-19
3.7444e-19
3.99389e-19
4.5972e-19
4.87975e-19
5.09869e-19
5.58584e-19
4.9973e-19
3.98314e-19
3.46779e-19
3.74118e-19
3.7689e-19
3.97792e-19
4.53348e-19
5.3086e-19
6.57735e-19
5.97876e-19
6.83026e-19
9.0767e-19
1.32081e-18
1.9354e-18
2.727e-18
3.63446e-18
4.38135e-18
4.68216e-18
4.51305e-18
4.18649e-18
3.89625e-18
3.62116e-18
3.39414e-18
3.17684e-18
3.06348e-18
3.40149e-18
4.41691e-18
6.58349e-18
1.08929e-17
1.94446e-17
3.55874e-17
6.43872e-17
1.11679e-16
1.81124e-16
2.77158e-16
3.80661e-16
4.58993e-16
5.21303e-16
5.9235e-16
6.51459e-16
6.71859e-16
6.77857e-16
6.8821e-16
7.02178e-16
7.1343e-16
7.20236e-16
7.34333e-16
7.48523e-16
7.72377e-16
7.87289e-16
8.09893e-16
8.26897e-16
8.5213e-16
8.6933e-16
8.93593e-16
9.09113e-16
9.31973e-16
9.45499e-16
9.71066e-16
9.77717e-16
1.01784e-15
1.01618e-15
1.07452e-15
1.05059e-15
1.12971e-15
1.07227e-15
1.17039e-15
1.06864e-15
1.18673e-15
1.04377e-15
1.17371e-15
9.89337e-16
1.12851e-15
9.36609e-16
1.11081e-15
9.7076e-16
1.3201e-15
1.57973e-15
3.86463e-15
9.04374e-15
2.81353e-14
4.46251e-14
4.92974e-14
1.40726e-14
7.41619e-20
2.96632e-21
4.22138e-22
2.11303e-22
1.058e-22
6.34561e-23
5.67529e-23
5.99083e-23
7.85129e-23
1.0045e-22
1.21171e-22
1.35005e-22
1.61504e-22
1.76716e-22
1.89657e-22
2.12187e-22
1.91876e-22
1.50463e-22
1.26192e-22
1.35683e-22
1.35782e-22
1.47029e-22
1.77413e-22
2.20445e-22
2.87846e-22
2.59862e-22
2.97014e-22
3.9023e-22
5.46511e-22
7.4984e-22
9.88009e-22
1.28909e-21
1.5752e-21
1.73375e-21
1.7265e-21
1.58142e-21
1.42192e-21
1.27861e-21
1.16867e-21
1.07138e-21
1.06687e-21
1.2026e-21
1.5787e-21
2.41722e-21
4.17479e-21
7.93079e-21
1.57651e-20
3.14461e-20
6.02976e-20
1.08518e-19
1.84762e-19
2.79101e-19
3.59807e-19
4.28547e-19
5.08252e-19
5.79298e-19
6.01171e-19
6.04896e-19
6.15248e-19
6.28479e-19
6.39255e-19
6.44097e-19
6.57363e-19
6.68305e-19
6.92593e-19
7.06274e-19
7.30455e-19
7.45413e-19
7.73731e-19
7.89277e-19
8.17782e-19
8.31248e-19
8.59162e-19
8.7007e-19
9.01118e-19
9.04308e-19
9.51781e-19
9.48009e-19
1.01659e-18
9.93474e-19
1.08482e-18
1.03165e-18
1.14237e-18
1.05131e-18
1.18454e-18
1.0632e-18
1.21671e-18
1.06943e-18
1.26064e-18
1.14516e-18
1.48244e-18
1.58282e-18
2.80205e-18
5.68295e-18
2.47125e-17
8.83213e-17
3.72219e-16
7.97989e-16
1.0157e-15
1.8724e-16
2.87741e-22
3.44819e-24
1.85581e-25
7.66174e-26
3.24316e-26
1.7083e-26
1.42997e-26
1.49976e-26
2.05698e-26
2.78954e-26
3.56486e-26
4.16501e-26
5.18031e-26
5.84925e-26
6.45217e-26
7.36229e-26
6.77221e-26
5.32612e-26
4.41388e-26
4.76669e-26
4.7818e-26
5.29523e-26
6.66771e-26
8.65873e-26
1.175e-25
1.06551e-25
1.22552e-25
1.61088e-25
2.22864e-25
2.95575e-25
3.69449e-25
4.64873e-25
5.63254e-25
6.28393e-25
6.43064e-25
6.09384e-25
5.4884e-25
4.81957e-25
4.34958e-25
4.0749e-25
4.1191e-25
4.59493e-25
5.84818e-25
8.70793e-25
1.48851e-24
2.88094e-24
6.00072e-24
1.2861e-23
2.67783e-23
5.25714e-23
9.81678e-23
1.61808e-22
2.23186e-22
2.79546e-22
3.465e-22
4.0984e-22
4.33101e-22
4.33597e-22
4.40926e-22
4.49894e-22
4.58481e-22
4.61004e-22
4.71882e-22
4.78762e-22
4.98774e-22
5.09272e-22
5.30732e-22
5.42357e-22
5.68961e-22
5.81809e-22
6.10073e-22
6.22242e-22
6.51982e-22
6.62674e-22
6.96269e-22
7.00911e-22
7.49989e-22
7.51743e-22
8.21051e-22
8.11467e-22
9.04173e-22
8.74539e-22
9.88243e-22
9.34847e-22
1.07845e-21
1.01237e-21
1.19722e-21
1.13405e-21
1.42218e-21
1.47964e-21
2.2089e-21
3.13006e-21
8.46525e-21
3.15055e-20
1.93697e-19
9.79546e-19
5.1934e-18
1.41035e-17
1.89129e-17
2.04977e-18
9.79732e-25
4.33835e-27
8.10394e-29
2.65988e-29
9.45935e-30
4.36462e-30
3.40522e-30
3.53842e-30
5.07164e-30
7.3039e-30
9.91369e-30
1.21725e-29
1.5741e-29
1.8342e-29
2.07896e-29
2.41671e-29
2.26658e-29
1.80291e-29
1.49417e-29
1.62595e-29
1.64402e-29
1.85839e-29
2.41847e-29
3.24897e-29
4.53878e-29
4.15694e-29
4.82075e-29
6.35543e-29
8.75215e-29
1.14219e-28
1.38639e-28
1.69973e-28
2.03719e-28
2.28624e-28
2.38805e-28
2.33239e-28
2.17396e-28
1.97789e-28
1.85365e-28
1.78124e-28
1.81088e-28
1.97892e-28
2.40389e-28
3.36555e-28
5.41359e-28
1.00991e-27
2.09439e-27
4.64288e-27
1.02422e-26
2.15e-26
4.33212e-26
7.70592e-26
1.13486e-25
1.49591e-25
1.93741e-25
2.37643e-25
2.58202e-25
2.57696e-25
2.61355e-25
2.65892e-25
2.71286e-25
2.72548e-25
2.79924e-25
2.83971e-25
2.97791e-25
3.0534e-25
3.21697e-25
3.30244e-25
3.51451e-25
3.61733e-25
3.85961e-25
3.97263e-25
4.24841e-25
4.36322e-25
4.68494e-25
4.77231e-25
5.22299e-25
5.32705e-25
5.96264e-25
6.0357e-25
6.90319e-25
6.89684e-25
8.01151e-25
7.93103e-25
9.47498e-25
9.50238e-25
1.18356e-24
1.24084e-24
1.71104e-24
2.12187e-24
3.89442e-24
8.26901e-24
3.84478e-23
2.09045e-22
1.65542e-21
1.11167e-20
7.14022e-20
2.3161e-19
3.1324e-19
1.82877e-20
2.8306e-27
5.87474e-30
3.59078e-32
9.01413e-33
2.67868e-33
1.08117e-33
7.84508e-34
8.06327e-34
1.20679e-33
1.84855e-33
2.66972e-33
3.44897e-33
4.63561e-33
5.57145e-33
6.48404e-33
7.67136e-33
7.34251e-33
5.93223e-33
4.94737e-33
5.43099e-33
5.54929e-33
6.39192e-33
8.53739e-33
1.17767e-32
1.68186e-32
1.55939e-32
1.82398e-32
2.41271e-32
3.31426e-32
4.28783e-32
5.12664e-32
6.19909e-32
7.3905e-32
8.34144e-32
8.86557e-32
8.88676e-32
8.54388e-32
8.03082e-32
7.80198e-32
7.72695e-32
8.01072e-32
8.77219e-32
1.04338e-31
1.39633e-31
2.09905e-31
3.65114e-31
7.16703e-31
1.56706e-30
3.54199e-30
7.74781e-30
1.65175e-29
3.12527e-29
4.88914e-29
6.77134e-29
9.1473e-29
1.1612e-28
1.29909e-28
1.30764e-28
1.31912e-28
1.33617e-28
1.36438e-28
1.3699e-28
1.41391e-28
1.43705e-28
1.52118e-28
1.56984e-28
1.67968e-28
1.74098e-28
1.88734e-28
1.96872e-28
2.1482e-28
2.24681e-28
2.46817e-28
2.58341e-28
2.85377e-28
2.97425e-28
3.3493e-28
3.51328e-28
4.05618e-28
4.25521e-28
5.03141e-28
5.26432e-28
6.34519e-28
6.66796e-28
8.36183e-28
9.12222e-28
1.22194e-27
1.45233e-27
2.28175e-27
3.52813e-27
8.79688e-27
3.19549e-26
2.04702e-25
1.46341e-24
1.45514e-23
1.24925e-22
9.42847e-22
3.48532e-21
4.52498e-21
1.31791e-22
6.7913e-30
9.3191e-33
1.6694e-35
3.01511e-36
7.45645e-37
2.63239e-37
1.77541e-37
1.80354e-37
2.81718e-37
4.59592e-37
7.07125e-37
9.61665e-37
1.34255e-36
1.66293e-36
1.98522e-36
2.38827e-36
2.33333e-36
1.91916e-36
1.61619e-36
1.79013e-36
1.85038e-36
2.16785e-36
2.95591e-36
4.16284e-36
6.04466e-36
5.67833e-36
6.697e-36
8.88683e-36
1.21861e-35
1.56833e-35
1.8608e-35
2.2366e-35
2.66671e-35
3.03384e-35
3.27903e-35
3.36566e-35
3.3284e-35
3.22294e-35
3.23447e-35
3.29504e-35
3.48749e-35
3.85577e-35
4.56179e-35
5.97401e-35
8.57265e-35
1.3958e-34
2.52922e-34
5.22961e-34
1.16515e-33
2.57194e-33
5.66242e-33
1.11888e-32
1.84405e-32
2.67297e-32
3.75442e-32
4.91802e-32
5.66851e-32
5.82641e-32
5.84088e-32
5.87755e-32
6.00555e-32
6.03543e-32
6.27035e-32
6.40682e-32
6.86474e-32
7.16079e-32
7.81106e-32
8.22278e-32
9.12074e-32
9.70925e-32
1.0889e-31
1.16672e-31
1.32353e-31
1.42544e-31
1.62929e-31
1.75495e-31
2.04617e-31
2.22787e-31
2.66837e-31
2.93374e-31
3.6095e-31
4.00066e-31
5.05066e-31
5.71218e-31
7.62495e-31
9.19274e-31
1.35488e-30
1.8725e-30
3.49323e-30
7.21285e-30
2.848e-29
1.42641e-28
1.12818e-27
1.03091e-26
1.26257e-25
1.33904e-24
1.15538e-23
4.6915e-23
5.62541e-23
7.6099e-25
1.33696e-32
1.80623e-35
9.97654e-39
1.00181e-39
2.05635e-40
6.35692e-41
3.98734e-41
4.00294e-41
6.52401e-41
1.13471e-40
1.86144e-40
2.66501e-40
3.86113e-40
4.92359e-40
6.02259e-40
7.36053e-40
7.33907e-40
6.1525e-40
5.2419e-40
5.85693e-40
6.1258e-40
7.28692e-40
1.01002e-39
1.44555e-39
2.12501e-39
2.02278e-39
2.40436e-39
3.19988e-39
4.38208e-39
5.62144e-39
6.64631e-39
7.97598e-39
9.54348e-39
1.09653e-38
1.20533e-38
1.26528e-38
1.28459e-38
1.27868e-38
1.32165e-38
1.38187e-38
1.49155e-38
1.66736e-38
1.97313e-38
2.56066e-38
3.57843e-38
5.56883e-38
9.36646e-38
1.79676e-37
3.81988e-37
8.22334e-37
1.81744e-36
3.66671e-36
6.29312e-36
9.48661e-36
1.37913e-35
1.85731e-35
2.20536e-35
2.32398e-35
2.33681e-35
2.3331e-35
2.38708e-35
2.40336e-35
2.52053e-35
2.59727e-35
2.82567e-35
2.99275e-35
3.34169e-35
3.59518e-35
4.09966e-35
4.48014e-35
5.19285e-35
5.74199e-35
6.75448e-35
7.54647e-35
8.96917e-35
1.00642e-34
1.22181e-34
1.39212e-34
1.73954e-34
2.0204e-34
2.60745e-34
3.0903e-34
4.13129e-34
5.08311e-34
7.33459e-34
9.93499e-34
1.65223e-33
2.73973e-33
6.44972e-33
2.03891e-32
1.05538e-31
6.45021e-31
6.18258e-30
7.10184e-29
1.05372e-27
1.33862e-26
1.28989e-25
5.57992e-25
5.97298e-25
3.49421e-27
2.15096e-35
3.77244e-38
1.22748e-41
3.32451e-43
5.64656e-44
1.53182e-44
8.94902e-45
8.8822e-45
1.51022e-44
2.8029e-44
4.90487e-44
7.39033e-44
1.11001e-43
1.45543e-43
1.82183e-43
2.25984e-43
2.29851e-43
1.965e-43
1.6955e-43
1.91019e-43
2.02118e-43
2.43723e-43
3.42217e-43
4.959e-43
7.35461e-43
7.09295e-43
8.49318e-43
1.1334e-42
1.55068e-42
1.98573e-42
2.34572e-42
2.8179e-42
3.39008e-42
3.93825e-42
4.40229e-42
4.72161e-42
4.91358e-42
5.01905e-42
5.32965e-42
5.70804e-42
6.27514e-42
7.09249e-42
8.40913e-42
1.08686e-41
1.49534e-41
2.26417e-41
3.60169e-41
6.44388e-41
1.28811e-40
2.63306e-40
5.67892e-40
1.14055e-39
2.00818e-39
3.12042e-39
4.66616e-39
6.43148e-39
7.86082e-39
8.50606e-39
8.7039e-39
8.61278e-39
8.8355e-39
8.91935e-39
9.4597e-39
9.87273e-39
1.09417e-38
1.18207e-38
1.35424e-38
1.49764e-38
1.76358e-38
1.9882e-38
2.39333e-38
2.74517e-38
3.36231e-38
3.91784e-38
4.8666e-38
5.72191e-38
7.26256e-38
8.7281e-38
1.14291e-37
1.41257e-37
1.926e-37
2.46061e-37
3.52188e-37
4.77069e-37
7.5667e-37
1.17466e-36
2.27831e-36
4.79071e-36
1.58268e-35
6.49741e-35
3.9261e-34
2.87889e-33
3.31868e-32
4.71472e-31
8.32232e-30
1.23178e-28
1.2982e-27
5.82949e-27
5.38942e-27
1.26589e-29
2.8358e-38
7.34684e-41
2.50377e-44
1.12154e-46
1.54876e-47
3.69824e-48
2.01662e-48
1.98049e-48
3.51293e-48
6.96278e-48
1.30013e-47
2.06046e-47
3.20438e-47
4.31443e-47
5.51905e-47
6.94154e-47
7.19735e-47
6.27533e-47
5.48627e-47
6.22907e-47
6.66527e-47
8.1357e-47
1.15395e-46
1.68786e-46
2.51836e-46
2.46021e-46
2.96649e-46
3.96898e-46
5.42713e-46
6.94572e-46
8.21345e-46
9.89342e-46
1.19795e-45
1.40762e-45
1.5994e-45
1.7508e-45
1.86473e-45
1.95152e-45
2.12434e-45
2.32644e-45
2.60183e-45
2.97224e-45
3.53258e-45
4.55505e-45
6.19942e-45
9.2255e-45
1.41115e-44
2.39272e-44
4.51114e-44
8.65662e-44
1.7842e-43
3.4834e-43
6.18567e-43
9.79779e-43
1.49512e-42
2.09768e-42
2.63419e-42
2.92955e-42
3.08513e-42
3.04172e-42
3.12798e-42
3.17309e-42
3.40982e-42
3.61481e-42
4.09118e-42
4.5291e-42
5.33452e-42
6.09145e-42
7.42175e-42
8.67639e-42
1.08526e-41
1.29995e-41
1.6601e-41
2.02955e-41
2.63685e-41
3.2731e-41
4.35749e-41
5.55248e-41
7.66868e-41
1.01509e-40
1.47366e-40
2.04734e-40
3.17556e-40
4.79812e-40
8.54913e-40
1.56255e-39
3.72251e-39
1.04369e-38
4.34961e-38
2.06434e-37
1.43838e-36
1.25443e-35
1.72549e-34
2.98006e-33
6.14131e-32
1.03343e-30
1.16941e-29
5.32862e-29
4.11988e-29
3.6038e-32
3.08886e-41
1.25104e-43
5.07668e-47
4.2141e-50
4.25195e-51
8.96946e-52
4.57723e-52
4.45285e-52
8.2407e-52
1.7457e-51
3.47886e-51
5.79461e-51
9.31843e-51
1.28653e-50
1.67941e-50
2.1396e-50
2.25964e-50
2.00893e-50
1.7798e-50
2.03538e-50
2.20146e-50
2.71663e-50
3.88324e-50
5.71872e-50
8.56441e-50
8.47332e-50
1.02855e-49
1.37961e-49
1.88609e-49
2.41487e-49
2.86282e-49
3.46174e-49
4.2212e-49
5.01682e-49
5.79006e-49
6.46101e-49
7.03192e-49
7.52796e-49
8.38365e-49
9.37295e-49
1.06518e-48
1.22934e-48
1.46498e-48
1.88573e-48
2.54376e-48
3.73773e-48
5.55458e-48
9.05844e-48
1.62918e-47
2.94327e-47
5.74754e-47
1.07309e-46
1.89117e-46
3.01709e-46
4.65517e-46
6.60713e-46
8.49753e-46
9.7116e-46
1.0545e-45
1.05288e-45
1.08416e-45
1.1081e-45
1.20712e-45
1.30405e-45
1.50705e-45
1.71488e-45
2.08005e-45
2.45816e-45
3.10128e-45
3.77966e-45
4.91048e-45
6.16915e-45
8.22382e-45
1.05794e-44
1.44335e-44
1.896e-44
2.66442e-44
3.61727e-44
5.2997e-44
7.55794e-44
1.17991e-43
1.79955e-43
3.07013e-43
5.26206e-43
1.07944e-42
2.42061e-42
7.21132e-42
2.5286e-41
1.18676e-40
6.44228e-40
5.14512e-39
5.29319e-38
8.61063e-37
1.77586e-35
4.19368e-34
7.85342e-33
9.38528e-32
4.25155e-31
2.66424e-31
8.06375e-35
2.81389e-44
1.83916e-46
8.92409e-50
2.32853e-53
1.17009e-54
2.18912e-55
1.04857e-55
1.01182e-55
1.95419e-55
4.42828e-55
9.41932e-55
1.64752e-54
2.73573e-54
3.86723e-54
5.1438e-54
6.63122e-54
7.1265e-54
6.45784e-54
5.79731e-54
6.67421e-54
7.29362e-54
9.08961e-54
1.3069e-53
1.9337e-53
2.90128e-53
2.90661e-53
3.55117e-53
4.77525e-53
6.52924e-53
8.3705e-53
9.95994e-53
1.21007e-52
1.48639e-52
1.78635e-52
2.0923e-52
2.37688e-52
2.63923e-52
2.88554e-52
3.28146e-52
3.73947e-52
4.31368e-52
5.02724e-52
6.00744e-52
7.72138e-52
1.03328e-51
1.50213e-51
2.18084e-51
3.45408e-51
5.99228e-51
1.02901e-50
1.9082e-50
3.38704e-50
5.85611e-50
9.31075e-50
1.43929e-49
2.05352e-49
2.69307e-49
3.15891e-49
3.53639e-49
3.63448e-49
3.75422e-49
3.87028e-49
4.26616e-49
4.70252e-49
5.55022e-49
6.50635e-49
8.12876e-49
9.9607e-49
1.30185e-48
1.65508e-48
2.24001e-48
2.94953e-48
4.11924e-48
5.58789e-48
8.02324e-48
1.12054e-47
1.66666e-47
2.42456e-47
3.79679e-47
5.87716e-47
9.9653e-47
1.68704e-46
3.21676e-46
6.39787e-46
1.56487e-45
4.25112e-45
1.54088e-44
6.05859e-44
3.17803e-43
1.96202e-42
1.78581e-41
2.14906e-40
4.09348e-39
9.90124e-38
2.63204e-36
5.38371e-35
6.6939e-34
2.95772e-33
1.45712e-33
1.41073e-37
2.17596e-47
2.34996e-49
1.35292e-52
2.22796e-56
3.23312e-58
5.38238e-59
2.4275e-59
2.32697e-59
4.69191e-59
1.1384e-58
2.58492e-58
4.74298e-58
8.12044e-58
1.17352e-57
1.58802e-57
2.06937e-57
2.26071e-57
2.08687e-57
1.89791e-57
2.19856e-57
2.42654e-57
3.05136e-57
4.40589e-57
6.53836e-57
9.81311e-57
9.95443e-57
1.22394e-56
1.65002e-56
2.25712e-56
2.89944e-56
3.46603e-56
4.23379e-56
5.2396e-56
6.36524e-56
7.55905e-56
8.73026e-56
9.87404e-56
1.10076e-55
1.27594e-55
1.47984e-55
1.73093e-55
2.03592e-55
2.43971e-55
3.13152e-55
4.15958e-55
5.988e-55
8.51869e-55
1.31764e-54
2.22223e-54
3.66295e-54
6.49897e-54
1.09963e-53
1.85533e-53
2.91897e-53
4.48735e-53
6.40155e-53
8.51795e-53
1.02311e-52
1.17917e-52
1.25269e-52
1.31549e-52
1.36568e-52
1.52247e-52
1.71427e-52
2.06486e-52
2.48953e-52
3.20255e-52
4.07628e-52
5.51269e-52
7.33144e-52
1.0338e-51
1.43109e-51
2.09211e-51
3.00629e-51
4.55495e-51
6.78337e-51
1.07337e-50
1.68125e-50
2.83364e-50
4.79812e-50
8.94322e-50