/*--------------------------------*- C++ -*----------------------------------*\
| =========                 |                                                 |
| \\      /  F ield         | OpenFOAM: The Open Source CFD Toolbox           |
|  \\    /   O peration     | Version:  2.4.0                                 |
|   \\  /    A nd           | Web:      www.OpenFOAM.org                      |
|    \\/     M anipulation  |                                                 |
\*---------------------------------------------------------------------------*/
FoamFile
{
    version     2.0;
    format      ascii;
    class       surfaceScalarField;
    location    "0.076";
    object      phiAlpha;
}
// * * * * * * * * * * * * * * * * * * * * * * * * * * * * * * * * * * * * * //

dimensions      [0 3 -1 0 0 0 0];

internalField   nonuniform List<scalar> 
7080
(
2.94811e-13
-2.94794e-13
8.57693e-13
-5.64235e-13
1.04796e-12
-1.93718e-13
9.19099e-13
1.23908e-13
5.64946e-13
3.48339e-13
-4.39625e-13
9.99256e-13
-2.01039e-12
1.5664e-12
-5.51825e-12
3.50544e-12
-9.14844e-12
3.63091e-12
-1.78976e-11
8.75254e-12
-2.60123e-11
8.12103e-12
-4.6562e-11
2.05569e-11
-6.58805e-11
1.93286e-11
-1.09704e-10
4.38319e-11
-1.51946e-10
4.22493e-11
-2.2914e-10
7.72002e-11
-2.99847e-10
7.07076e-11
-4.33238e-10
1.33389e-10
-5.19147e-10
8.58992e-11
-5.37174e-10
1.8034e-11
-3.55057e-10
-1.82147e-10
-1.48711e-10
-2.0633e-10
2.93348e-11
-1.78073e-10
1.30214e-10
-1.00879e-10
1.51542e-10
-2.13272e-11
1.45819e-10
5.69885e-12
1.15762e-10
3.00867e-11
8.80179e-11
2.77112e-11
5.94322e-11
2.86175e-11
2.18078e-11
3.7597e-11
-3.68587e-13
7.24387e-14
-1.62693e-12
6.89847e-13
-3.99124e-12
2.1642e-12
-7.90423e-12
4.0294e-12
-1.33106e-11
5.7481e-12
-2.10277e-11
8.713e-12
-3.01926e-11
1.07299e-11
-4.35887e-11
1.69034e-11
-5.841e-11
1.84601e-11
-8.21469e-11
3.24999e-11
-1.05337e-10
3.13254e-11
-1.47233e-10
6.24648e-11
-1.83382e-10
5.5495e-11
-2.52326e-10
1.12788e-10
-3.06923e-10
9.68523e-11
-4.02361e-10
1.72647e-10
-4.68944e-10
1.37281e-10
-5.94122e-10
2.5857e-10
-6.397e-10
1.31439e-10
-6.00726e-10
-2.09178e-11
-3.53588e-10
-4.29342e-10
-9.25029e-11
-4.67398e-10
1.05369e-10
-3.75971e-10
2.11166e-10
-2.06699e-10
2.20378e-10
-3.05092e-11
2.02469e-10
2.35525e-11
1.56532e-10
7.60838e-11
1.16988e-10
6.71952e-11
7.81863e-11
6.74681e-11
5.01676e-11
4.97812e-11
-4.43958e-13
5.15242e-13
-2.00395e-12
2.24681e-12
-4.6748e-12
4.83105e-12
-8.83791e-12
8.18819e-12
-1.4699e-11
1.16061e-11
-2.31676e-11
1.71819e-11
-3.37354e-11
2.12992e-11
-4.872e-11
3.18915e-11
-6.61138e-11
3.58623e-11
-9.20958e-11
5.84916e-11
-1.18224e-10
5.74659e-11
-1.62553e-10
1.06804e-10
-2.00815e-10
9.37732e-11
-2.71379e-10
1.83362e-10
-3.25363e-10
1.50841e-10
-4.19203e-10
2.66494e-10
-4.80551e-10
1.98617e-10
-6.02153e-10
3.80176e-10
-6.43287e-10
1.72538e-10
-5.95919e-10
-6.82651e-11
-3.39343e-10
-6.85972e-10
-7.0333e-11
-7.36392e-10
1.26284e-10
-5.72611e-10
2.28785e-10
-3.09222e-10
2.33278e-10
-3.49729e-11
2.11752e-10
4.50233e-11
1.62715e-10
1.2518e-10
1.20934e-10
1.08918e-10
8.07043e-11
1.07746e-10
7.68504e-11
5.39759e-11
-1.99113e-13
7.13515e-13
-1.24285e-12
3.28881e-12
-3.49919e-12
7.08566e-12
-7.24923e-12
1.1937e-11
-1.28771e-11
1.72344e-11
-2.10885e-11
2.5397e-11
-3.21086e-11
3.23239e-11
-4.68348e-11
4.66236e-11
-6.54365e-11
5.44738e-11
-9.03119e-11
8.3377e-11
-1.18051e-10
8.52164e-11
-1.60874e-10
1.49637e-10
-2.00837e-10
1.3375e-10
-2.70481e-10
2.53014e-10
-3.25422e-10
2.05784e-10
-4.18539e-10
3.59618e-10
-4.79827e-10
2.59892e-10
-6.04954e-10
5.05306e-10
-6.5126e-10
2.18809e-10
-6.02385e-10
-1.1712e-10
-3.37663e-10
-9.50747e-10
-6.14959e-11
-1.01254e-09
1.34911e-10
-7.6904e-10
2.3501e-10
-4.09345e-10
2.36749e-10
-3.66823e-11
2.13417e-10
6.83003e-11
1.63486e-10
1.75169e-10
1.21317e-10
1.51029e-10
8.06666e-11
1.48444e-10
1.05549e-10
5.19227e-11
-2.45734e-13
9.58844e-13
-1.30356e-12
4.34643e-12
-3.5413e-12
9.32432e-12
-7.22477e-12
1.56227e-11
-1.28861e-11
2.29e-11
-2.06033e-11
3.31217e-11
-3.23986e-11
4.4127e-11
-4.58448e-11
6.00779e-11
-6.59046e-11
7.45448e-11
-8.89868e-11
1.0647e-10
-1.18423e-10
1.14664e-10
-1.59009e-10
1.90231e-10
-2.0196e-10
1.76713e-10
-2.69291e-10
3.20352e-10
-3.26985e-10
2.63478e-10
-4.19719e-10
4.52357e-10
-4.81676e-10
3.21835e-10
-6.12309e-10
6.35942e-10
-6.66289e-10
2.72754e-10
-6.15686e-10
-1.67703e-10
-3.3958e-10
-1.2269e-09
-5.36237e-11
-1.29849e-09
1.43133e-10
-9.65817e-10
2.40542e-10
-5.06777e-10
2.3925e-10
-3.53607e-11
2.14135e-10
9.33613e-11
1.63513e-10
2.25849e-10
1.21115e-10
1.93371e-10
8.04026e-11
1.89202e-10
1.34789e-10
5.11174e-11
-2.92681e-13
1.25163e-12
-1.41271e-12
5.46786e-12
-3.72797e-12
1.16431e-11
-7.32361e-12
1.92237e-11
-1.34118e-11
2.89959e-11
-2.06076e-11
4.03284e-11
-3.31221e-11
5.66521e-11
-4.57079e-11
7.26738e-11
-6.66955e-11
9.55446e-11
-8.86672e-11
1.28452e-10
-1.18837e-10
1.44844e-10
-1.58351e-10
2.29751e-10
-2.03153e-10
2.21525e-10
-2.68979e-10
3.86183e-10
-3.29985e-10
3.24482e-10
-4.22192e-10
5.44568e-10
-4.84765e-10
3.84392e-10
-6.22359e-10
7.73537e-10
-6.86322e-10
3.36683e-10
-6.33324e-10
-2.20683e-10
-3.42405e-10
-1.51787e-09
-4.39008e-11
-1.59698e-09
1.53208e-10
-1.16294e-09
2.47141e-10
-6.00733e-10
2.42081e-10
-3.02718e-11
2.1482e-10
1.20569e-10
1.63408e-10
2.77317e-10
1.20751e-10
2.35973e-10
8.00748e-11
2.29924e-10
1.64043e-10
5.07771e-11
-3.07722e-13
1.55998e-12
-1.43311e-12
6.59607e-12
-3.86963e-12
1.40854e-11
-7.33165e-12
2.26938e-11
-1.38088e-11
3.54834e-11
-2.0667e-11
4.71998e-11
-3.3992e-11
6.99895e-11
-4.57548e-11
8.4448e-11
-6.77417e-11
1.17544e-10
-8.87275e-11
1.49447e-10
-1.19293e-10
1.75419e-10
-1.58116e-10
2.68579e-10
-2.04351e-10
2.67769e-10
-2.70136e-10
4.51971e-10
-3.34205e-10
3.88547e-10
-4.25509e-10
6.35875e-10
-4.88422e-10
4.47289e-10
-6.3447e-10
9.19585e-10
-7.11188e-10
4.13367e-10
-6.55109e-10
-2.76744e-10
-3.45693e-10
-1.82733e-09
-3.17034e-11
-1.91096e-09
1.65573e-10
-1.36024e-09
2.55082e-10
-6.90265e-10
2.45425e-10
-2.0586e-11
2.15593e-10
1.50348e-10
1.63256e-10
3.29708e-10
1.20296e-10
2.7888e-10
7.96819e-11
2.70583e-10
1.93222e-10
5.04602e-11
-4.37983e-13
1.99899e-12
-1.67029e-12
7.8322e-12
-4.12058e-12
1.65428e-11
-7.47415e-12
2.60569e-11
-1.4239e-11
4.22602e-11
-2.0869e-11
5.38441e-11
-3.51389e-11
8.42727e-11
-4.60743e-11
9.53951e-11
-6.92266e-11
1.40709e-10
-8.90923e-11
1.69323e-10
-1.19741e-10
2.06076e-10
-1.58058e-10
3.069e-10
-2.05665e-10
3.15383e-10
-2.71977e-10
5.18284e-10
-3.4084e-10
4.57405e-10
-4.29574e-10
7.2461e-10
-4.92331e-10
5.10027e-10
-6.48305e-10
1.07556e-09
-7.41207e-10
5.06237e-10
-6.81319e-10
-3.36615e-10
-3.49348e-10
-2.15935e-09
-1.66417e-11
-2.24365e-09
1.80402e-10
-1.5573e-09
2.64403e-10
-7.74289e-10
2.49281e-10
-5.43527e-12
2.16448e-10
1.83129e-10
1.63056e-10
3.83153e-10
1.19754e-10
3.2213e-10
7.92168e-11
3.11163e-10
2.22283e-10
5.0114e-11
-4.75325e-13
2.47562e-12
-1.69606e-12
9.0574e-12
-4.11091e-12
1.89656e-11
-7.08258e-12
2.90391e-11
-1.45873e-11
4.97777e-11
-2.0374e-11
5.96456e-11
-3.61811e-11
1.00093e-10
-4.57883e-11
1.05014e-10
-7.03708e-11
1.65303e-10
-8.96362e-11
1.88597e-10
-1.1998e-10
2.36427e-10
-1.58048e-10
3.44971e-10
-2.07026e-10
3.64368e-10
-2.74349e-10
5.85606e-10
-3.47027e-10
5.30074e-10
-4.3431e-10
8.11893e-10
-4.96103e-10
5.71801e-10
-6.63299e-10
1.24275e-09
-7.7679e-10
6.19696e-10
-7.12313e-10
-4.01077e-10
-3.53296e-10
-2.51841e-09
1.51829e-12
-2.59845e-09
1.9784e-10
-1.75364e-09
2.75092e-10
-8.51563e-10
2.536e-10
1.60843e-11
2.17344e-10
2.19335e-10
1.62783e-10
4.37765e-10
1.19113e-10
3.65749e-10
7.86684e-11
3.5165e-10
2.51216e-10
4.96956e-11
-4.61674e-13
2.93873e-12
-1.68408e-12
1.02843e-11
-4.37663e-12
2.1666e-11
-7.65636e-12
3.23289e-11
-1.5956e-11
5.80894e-11
-2.16656e-11
6.53692e-11
-3.85421e-11
1.16982e-10
-4.74293e-11
1.13911e-10
-7.36396e-11
1.91524e-10
-9.11487e-11
2.06113e-10
-1.2059e-10
2.65875e-10
-1.58008e-10
3.8239e-10
-2.08439e-10
4.14804e-10
-2.77246e-10
6.54411e-10
-3.54023e-10
6.06842e-10
-4.39765e-10
8.97633e-10
-4.9944e-10
6.31456e-10
-6.79275e-10
1.42258e-09
-8.18612e-10
7.59003e-10
-7.48672e-10
-4.71003e-10
-3.57544e-10
-2.90958e-09
2.06707e-11
-2.97666e-09
2.18063e-10
-1.95104e-09
2.87186e-10
-9.20709e-10
2.58368e-10
4.49298e-11
2.18275e-10
2.59378e-10
1.62442e-10
4.93647e-10
1.18381e-10
4.09762e-10
7.80414e-11
3.9203e-10
2.80003e-10
4.92152e-11
-4.36125e-13
3.37622e-12
-1.70029e-12
1.15528e-11
-4.94147e-12
2.49141e-11
-7.5305e-12
3.49267e-11
-1.65921e-11
6.71617e-11
-1.91159e-11
6.79052e-11
-3.88468e-11
1.36724e-10
-4.52508e-11
1.20324e-10
-7.38941e-11
2.20177e-10
-9.1438e-11
2.23664e-10
-1.1909e-10
2.93534e-10
-1.57711e-10
4.21012e-10
-2.09786e-10
4.66884e-10
-2.80662e-10
7.25284e-10
-3.62149e-10
6.8832e-10
-4.45869e-10
9.81351e-10
-5.01958e-10
6.87523e-10
-6.96909e-10
1.61753e-09
-8.67425e-10
9.2949e-10
-7.91037e-10
-5.47378e-10
-3.6201e-10
-3.33865e-09
4.40605e-11
-3.38272e-09
2.41284e-10
-2.14828e-09
3.00695e-10
-9.80143e-10
2.63544e-10
8.21071e-11
2.19212e-10
3.03662e-10
1.6202e-10
5.50887e-10
1.17553e-10
4.54182e-10
7.73339e-11
4.32287e-10
3.08625e-10
4.8675e-11
-4.79876e-13
3.85727e-12
-1.83482e-12
1.29113e-11
-5.53548e-12
2.86206e-11
-8.03119e-12
3.74298e-11
-1.8041e-11
7.71809e-11
-2.12002e-11
7.10747e-11
-4.36861e-11
1.59219e-10
-5.06277e-11
1.27273e-10
-8.12939e-11
2.50852e-10
-9.65577e-11
2.38933e-10
-1.21519e-10
3.185e-10
-1.57349e-10
4.56843e-10
-2.11296e-10
5.20835e-10
-2.8457e-10
7.98556e-10
-3.71731e-10
7.7547e-10
-4.52725e-10
1.06234e-09
-5.03024e-10
7.37801e-10
-7.16657e-10
1.83116e-09
-9.24047e-10
1.13685e-09
-8.401e-10
-6.31313e-10
-3.66577e-10
-3.81222e-09
7.1755e-11
-3.82104e-09
2.67721e-10
-2.34426e-09
3.15592e-10
-1.02804e-09
2.69055e-10
1.28671e-10
2.20102e-10
3.52568e-10
1.61488e-10
6.09547e-10
1.16614e-10
4.99011e-10
7.65386e-11
4.72401e-10
3.37056e-10
4.8072e-11
-1.96792e-13
4.05496e-12
-8.64502e-13
1.35821e-11
-3.71653e-12
3.14772e-11
-3.13424e-12
3.68534e-11
-1.43309e-11
8.83853e-11
-1.30724e-11
6.98232e-11
-4.2004e-11
1.88157e-10
-4.4505e-11
1.29778e-10
-7.85911e-11
2.84943e-10
-9.45117e-11
2.54857e-10
-1.14739e-10
3.38732e-10
-1.55393e-10
4.97496e-10
-2.11814e-10
5.77261e-10
-2.88982e-10
8.75722e-10
-3.82882e-10
8.69359e-10
-4.6012e-10
1.13958e-09
-5.02127e-10
7.79786e-10
-7.384e-10
2.06743e-09
-9.89637e-10
1.38806e-09
-8.96854e-10
-7.24085e-10
-3.7118e-10
-4.33793e-09
1.04271e-10
-4.29649e-09
2.97667e-10
-2.53767e-09
3.31898e-10
-1.06229e-09
2.74862e-10
1.85732e-10
2.20927e-10
4.06457e-10
1.60847e-10
6.69671e-10
1.15573e-10
5.44242e-10
7.56637e-11
5.12345e-10
3.65281e-10
4.74044e-11
-3.31221e-13
4.38675e-12
-4.21611e-13
1.36749e-11
-3.81278e-12
3.48717e-11
-3.59017e-12
3.66348e-11
-1.89434e-11
1.03744e-10
-1.95312e-11
7.04153e-11
-5.36551e-11
2.22283e-10
-5.74969e-11
1.33621e-10
-9.42674e-11
3.21714e-10
-1.08651e-10
2.6924e-10
-1.22801e-10
3.52883e-10
-1.55178e-10
5.29873e-10
-2.14049e-10
6.36138e-10
-2.94032e-10
9.55702e-10
-3.96356e-10
9.71673e-10
-4.68654e-10
1.21187e-09
-4.98123e-10
8.09233e-10
-7.61142e-10
2.33044e-09
-1.06559e-09
1.69249e-09
-9.62353e-10
-8.27315e-10
-3.75709e-10
-4.92461e-09
1.42293e-10
-4.81448e-09
3.31437e-10
-2.72682e-09
3.49599e-10
-1.08047e-09
2.80895e-10
2.54462e-10
2.21646e-10
4.65661e-10
1.60081e-10
7.31278e-10
1.14423e-10
5.8986e-10
7.47101e-11
5.52092e-10
3.93291e-10
4.66685e-11
3.79908e-13
4.00716e-12
1.43222e-12
1.26248e-11
-1.71601e-12
3.80217e-11
4.34253e-12
3.05781e-11
-1.34546e-11
1.21543e-10
-4.29202e-12
6.12515e-11
-4.69701e-11
2.64961e-10
-4.44214e-11
1.31068e-10
-8.57477e-11
3.63036e-10
-1.01429e-10
2.84915e-10
-1.03967e-10
3.55418e-10
-1.4667e-10
5.72572e-10
-2.10895e-10
7.0037e-10
-2.99018e-10
1.04382e-09
-4.12013e-10
1.08466e-09
-4.77614e-10
1.27747e-09
-4.90626e-10
8.22221e-10
-7.84899e-10
2.62471e-09
-1.15373e-09
2.0613e-09
-1.03781e-09
-9.43221e-10
-3.79907e-10
-5.58255e-09
1.86662e-10
-5.38104e-09
3.69352e-10
-2.90952e-09
3.68634e-10
-1.07977e-09
2.87042e-10
3.36077e-10
2.22194e-10
5.30466e-10
1.5916e-10
7.94352e-10
1.1315e-10
6.35831e-10
7.36721e-11
5.91602e-10
4.2106e-10
4.58724e-11
-6.63827e-13
4.67065e-12
3.16463e-12
8.79718e-12
-1.78859e-12
4.29749e-11
6.34181e-12
2.24471e-11
-2.10021e-11
1.48886e-10
-1.42817e-11
5.45273e-11
-6.8227e-11
3.189e-10
-7.07224e-11
1.33552e-10
-1.17294e-10
4.09597e-10
-1.33577e-10
3.01184e-10
-1.23417e-10
3.45247e-10
-1.4789e-10
5.97037e-10
-2.15935e-10
7.68419e-10
-3.06856e-10
1.13474e-09
-4.30058e-10
1.20785e-09
-4.87176e-10
1.33459e-09
-4.7698e-10
8.12003e-10
-8.07666e-10
2.95539e-09
-1.25737e-09
2.51099e-09
-1.12471e-09
-1.07588e-09
-3.83473e-10
-6.32383e-09
2.38493e-10
-6.003e-09
4.11838e-10
-3.08287e-09
3.88988e-10
-1.05694e-09
2.93228e-10
4.31859e-10
2.22541e-10
6.01113e-10
1.58082e-10
8.58847e-10
1.11761e-10
6.82116e-10
7.25565e-11
6.30836e-10
4.48554e-10
4.50342e-11
2.93624e-12
1.73491e-12
1.1133e-11
5.99982e-13
1.75802e-12
5.23492e-11
2.67356e-11
-2.532e-12
-1.32391e-12
1.76943e-10
2.08608e-11
3.23339e-11
-5.24975e-11
3.92246e-10
-5.12273e-11
1.32265e-10
-1.00428e-10
4.58779e-10
-1.17977e-10
3.18711e-10
-8.16983e-11
3.08951e-10
-1.22163e-10
6.37487e-10
-2.03254e-10
8.49513e-10
-3.10865e-10
1.24235e-09
-4.53116e-10
1.3501e-09
-5.00809e-10
1.38229e-09
-4.60229e-10
7.71401e-10
-8.31583e-10
3.32674e-09
-1.37857e-09
3.05797e-09
-1.22501e-09
-1.22943e-09
-3.85983e-10
-7.16289e-09
2.99401e-10
-6.68838e-09
4.59342e-10
-3.24282e-09
4.10594e-10
-1.00821e-09
2.99336e-10
5.43139e-10
2.2263e-10
6.77781e-10
1.56831e-10
9.24681e-10
1.10251e-10
7.28662e-10
7.13626e-11
6.69753e-10
4.75733e-10
4.41568e-11
2.88903e-12
-1.15531e-12
2.61945e-11
-2.27019e-11
3.73154e-13
7.8171e-11
3.59758e-11
-3.81352e-11
-1.39359e-11
2.26854e-10
2.70206e-12
1.56901e-11
-9.34996e-11
4.88438e-10
-1.01489e-10
1.40232e-10
-1.61549e-10
5.18813e-10
-1.84732e-10
3.41862e-10
-1.24069e-10
2.4826e-10
-1.3156e-10
6.44954e-10
-2.16514e-10
9.34465e-10
-3.24008e-10
1.34985e-09
-4.77357e-10
1.50344e-09
-5.08091e-10
1.41302e-09
-4.23697e-10
6.86985e-10
-8.48882e-10
3.75192e-09
-1.51421e-09
3.72329e-09
-1.34034e-09
-1.4033e-09
-3.86925e-10
-8.11634e-09
3.71857e-10
-7.44716e-09
5.12304e-10
-3.38328e-09
4.33321e-10
-9.29249e-10
3.05199e-10
6.71282e-10
2.2238e-10
7.60563e-10
1.55372e-10
9.91721e-10
1.08606e-10
7.75397e-10
7.00827e-11
7.08302e-10
5.02558e-10
4.32332e-11
3.06805e-11
-3.18356e-11
1.30145e-10
-1.22151e-10
9.40879e-11
1.14229e-10
1.48033e-10
-9.20834e-11
5.73623e-11
3.17517e-10
7.01731e-11
2.877e-12
-6.4376e-11
6.22947e-10
-8.35056e-11
1.5934e-10
-1.33448e-10
5.68728e-10
-1.52589e-10
3.60967e-10
-3.6735e-11
1.3237e-10
-6.16183e-11
6.69806e-10
-1.81717e-10
1.05456e-09
-3.27305e-10
1.49543e-09
-5.13464e-10
1.6896e-09
-5.31766e-10
1.43133e-09
-4.01978e-10
5.57176e-10
-8.74095e-10
4.22404e-09
-1.66901e-09
4.51819e-09
-1.47428e-09
-1.59802e-09
-3.85595e-10
-9.20505e-09
4.54715e-10
-8.28748e-09
5.71331e-10
-3.4999e-09
4.5707e-10
-8.15003e-10
3.10679e-10
8.17692e-10
2.21745e-10
8.49462e-10
1.53703e-10
1.05979e-09
1.06833e-10
8.22237e-10
6.87219e-11
7.46438e-10
5.28995e-10
4.22629e-11
6.68696e-11
-9.87047e-11
3.33183e-10
-3.87417e-10
1.83897e-10
2.63599e-10
2.45627e-10
-1.53838e-10
4.09887e-11
5.22114e-10
2.53173e-11
1.85602e-11
-1.70546e-10
8.1877e-10
-1.87837e-10
1.76599e-10
-2.46027e-10
6.26901e-10
-2.78574e-10
3.9348e-10
-1.22603e-10
-2.36399e-11
-9.57322e-11
6.42894e-10
-2.12924e-10
1.17173e-09
-3.46849e-10
1.62934e-09
-5.49495e-10
1.89225e-09
-5.34107e-10
1.41595e-09
-3.11837e-10
3.34885e-10
-8.71436e-10
4.78363e-09
-1.84419e-09
5.49095e-09
-1.62803e-09
-1.81418e-09
-3.81758e-10
-1.04513e-08
5.48379e-10
-9.21762e-09
6.36976e-10
-3.58849e-09
4.81644e-10
-6.59685e-10
3.15582e-10
9.83773e-10
2.20652e-10
9.44361e-10
1.51804e-10
1.12867e-09
1.0493e-10
8.69085e-10
6.7279e-11
7.84111e-10
5.55012e-10
4.1241e-11
5.04055e-11
-1.49044e-10
3.51088e-10
-6.84824e-10
4.45814e-10
1.70583e-10
5.315e-10
-2.39568e-10
2.77968e-10
7.75478e-10
2.06222e-10
9.03579e-11
-1.40727e-10
1.16582e-09
-2.02519e-10
2.38395e-10
-2.24575e-10
6.4896e-10
-2.32971e-10
4.01843e-10
3.64891e-11
-2.9314e-10
7.65312e-11
6.02813e-10
-1.3007e-10
1.37831e-09
-3.54304e-10
1.85357e-09
-6.08418e-10
2.14636e-09
-5.75179e-10
1.38273e-09
-2.88497e-10
4.81813e-11
-9.05887e-10
5.40102e-09
-2.05277e-09
6.63783e-09
-1.80925e-09
-2.05771e-09
-3.73686e-10
-1.18869e-08
6.57032e-10
-1.02483e-08
7.1015e-10
-3.64162e-09
5.06823e-10
-4.5637e-10
3.19663e-10
1.17095e-09
2.19007e-10
1.04499e-09
1.49645e-10
1.19805e-09
1.02882e-10
9.15823e-10
6.57479e-11
8.21265e-10
5.80583e-10
4.01592e-11
-5.50023e-11
-9.34795e-11
-1.48951e-10
-5.90878e-10
-8.12708e-11
1.02705e-10
4.29145e-11
-3.62704e-10
-1.06148e-10
9.24723e-10
-8.47332e-11
6.89583e-11
-6.10437e-11
1.14218e-09
-3.15435e-10
4.92809e-10
-3.84805e-10
7.18363e-10
-4.55109e-10
4.72148e-10
-1.0525e-10
-6.43027e-10
-4.11456e-12
5.01637e-10
-1.9526e-10
1.56943e-09
-3.78336e-10
2.03663e-09
-6.6251e-10
2.43054e-09
-5.67983e-10
1.28821e-09
-1.14003e-10
-4.05819e-10
-8.59232e-10
6.14625e-09
-2.2808e-09
8.05941e-09
-2.01388e-09
-2.32464e-09
-3.62778e-10
-1.35381e-08
7.80862e-10
-1.1392e-08
7.90805e-10
-3.65156e-09
5.32219e-10
-1.97795e-10
3.22636e-10
1.38055e-09
2.1675e-10
1.15085e-09
1.47223e-10
1.2676e-09
1.00699e-10
9.62326e-10
6.41361e-11
8.57845e-10
6.05677e-10
3.90251e-11
-1.37323e-10
4.45297e-11
-4.81622e-10
-2.46607e-10
-5.34657e-10
1.55768e-10
-1.94935e-10
-7.08647e-10
-4.89643e-10
1.21944e-09
-4.11136e-10
-9.51008e-12
-6.02472e-10
1.33357e-09
-6.52561e-10
5.4289e-10
-3.7652e-10
4.42364e-10
-3.52466e-10
4.48105e-10
1.74962e-10
-1.17048e-09
3.66175e-10
3.10396e-10
-1.54389e-11
1.95102e-09
-4.07938e-10
2.42911e-09
-7.66257e-10
2.78886e-09
-6.45006e-10
1.16697e-09
-7.89615e-11
-9.71883e-10
-9.09284e-10
6.97658e-09
-2.57089e-09
9.72102e-09
-2.26421e-09
-2.63133e-09
-3.44223e-10
-1.54581e-08
9.27108e-10
-1.26633e-08
8.81808e-10
-3.60626e-09
5.58046e-10
1.25959e-10
3.24228e-10
1.61438e-09
2.13807e-10
1.26125e-09
1.44526e-10
1.3369e-09
9.8379e-11
1.00845e-09
6.24441e-11
8.93795e-10
6.3027e-10
3.78378e-11
-1.77144e-12
4.63113e-11
-2.5411e-10
5.73675e-12
-4.54303e-10
3.55955e-10
-8.55274e-11
-1.08222e-09
1.04969e-10
1.02893e-09
-1.4806e-10
2.43512e-10
-3.25517e-10
1.51105e-09
-5.64927e-10
7.823e-10
-7.95836e-10
6.73315e-10
-7.12601e-10
3.64876e-10
-3.43324e-11
-1.84878e-09
1.93064e-10
8.29774e-11
-1.64655e-10
2.3087e-09
-4.28583e-10
2.69302e-09
-8.35548e-10
3.19583e-09
-6.17169e-10
9.48599e-10
2.0121e-10
-1.79028e-09
-7.96736e-10
7.97453e-09
-2.86684e-09
1.17911e-08
-2.53471e-09
-2.96346e-09
-3.21786e-10
-1.7671e-08
1.09107e-09
-1.40762e-08
9.79766e-10
-3.49496e-09
5.82196e-10
5.23521e-10
3.23613e-10
1.87298e-09
2.10043e-10
1.3748e-09
1.41517e-10
1.40544e-09
9.59042e-11
1.05405e-09
6.06652e-11
9.29047e-10
6.54325e-10
3.65978e-11
-5.96385e-11
1.06677e-10
-2.61159e-10
2.10278e-10
-5.74888e-10
6.66835e-10
-4.58546e-10
-1.19857e-09
5.15485e-11
5.18794e-10
-3.4314e-10
6.38224e-10
-4.25566e-10
1.59349e-09
-7.33116e-11
4.30047e-10
-4.33375e-10
1.0334e-09
-5.91109e-10
5.2261e-10
4.97291e-10
-2.93719e-09
9.44073e-10
-3.63814e-10
2.169e-10
3.03584e-09
-5.18703e-10
3.4286e-09
-1.03384e-09
3.71098e-09
-7.47839e-10
6.62601e-10
2.53875e-10
-2.79201e-09
-8.57404e-10
9.08581e-09
-3.27723e-09
1.4211e-08
-2.88945e-09
-3.35126e-09
-2.91909e-10
-2.02685e-08
1.28729e-09
-1.56554e-08
1.09337e-09
-3.30102e-09
6.07933e-10
1.00895e-09
3.20303e-10
2.16062e-09
2.0549e-10
1.48959e-09
1.38257e-10
1.47269e-09
9.33265e-11
1.09897e-09
5.88308e-11
9.63553e-10
6.77828e-10
3.53179e-11
-1.12718e-10
2.18837e-10
-4.40623e-10
5.40462e-10
-4.17465e-10
6.43604e-10
-4.93388e-10
-1.1228e-09
-4.8088e-10
5.05446e-10
-1.10089e-09
1.25837e-09
-1.29779e-09
1.79041e-09
-9.09894e-10
4.2127e-11
-7.25359e-10
8.48879e-10
-1.18344e-09
9.80682e-10
1.67946e-10
-4.28857e-09
5.87348e-10
-7.83231e-10
-8.70401e-11
3.71021e-09
-5.21572e-10
3.86312e-09
-1.1037e-09
4.29311e-09
-7.04378e-10
2.63286e-10
6.78603e-10
-4.17501e-09
-6.57525e-10
1.0422e-08
-3.66748e-09
1.72209e-08
-3.24525e-09
-3.77349e-09
-2.4175e-10
-2.32721e-08
1.51135e-09
-1.74085e-08
1.21323e-09
-3.0029e-09
6.27638e-10
1.59453e-09
3.15036e-10
2.47323e-09
1.99772e-10
1.60484e-09
1.3459e-10
1.53788e-09
9.05258e-11
1.14302e-09
5.68601e-11
9.97227e-10
7.00724e-10
3.39566e-11
3.94257e-10
-1.75612e-10
1.69833e-10
7.65229e-10
-1.42671e-10
9.5601e-10
-9.37289e-10
-3.28142e-10
-1.11784e-09
6.85242e-10
-1.36027e-09
1.50102e-09
-1.01712e-09
1.44728e-09
1.55229e-10
-1.13024e-09
5.64724e-10
4.39388e-10
-9.24746e-10
2.47013e-09
8.58233e-10
-6.07154e-09
1.76831e-09
-1.6933e-09
3.13791e-10
5.16469e-09
-7.14703e-10
4.89161e-09
-1.41521e-09
4.99362e-09
-8.47045e-10
-3.04872e-10
8.15252e-10
-5.83732e-09
-6.94166e-10
1.19314e-08
-4.21997e-09
2.07468e-08
-3.73886e-09
-4.25461e-09
-2.09974e-10
-2.68009e-08
1.75653e-09
-1.9375e-08
1.34626e-09
-2.59262e-09
6.51685e-10
2.28911e-09
3.09959e-10
2.81496e-09
1.93783e-10
1.72101e-09
1.31024e-10
1.60065e-09
8.78821e-11
1.18616e-09
5.5008e-11
1.03011e-09
7.23064e-10
3.26619e-11
-6.98742e-10
4.73199e-10
5.291e-10
-4.62712e-10
5.36214e-10
9.48636e-10
-1.72827e-11
2.1647e-10
-9.59521e-11
7.62629e-10
-1.01086e-09
2.41596e-09
-1.1459e-09
1.58232e-09
-3.32502e-10
-1.94386e-09
2.8377e-10
-1.76836e-10
-9.89151e-10
3.74304e-09
-4.28776e-11
-7.01782e-09
2.1354e-09
-3.87159e-09
1.82177e-09
5.47827e-09
-2.28413e-10
6.94178e-09
-1.10509e-09
5.8703e-09
-5.61421e-10
-8.48541e-10
1.59774e-09
-7.99649e-09
-2.26466e-10
1.37556e-08
-4.57146e-09
2.50918e-08
-4.13588e-09
-4.69021e-09
-7.22398e-11
-3.08646e-08
2.10556e-09
-2.15529e-08
1.51736e-09
-2.00442e-09
6.68942e-10
3.13752e-09
2.99105e-10
3.18481e-09
1.86836e-10
1.83327e-09
1.27712e-10
1.65978e-09
8.54035e-11
1.22846e-09
5.32038e-11
1.06231e-09
7.44936e-10
3.13292e-11
-5.22818e-10
8.26966e-10
4.8144e-10
-1.54422e-09
9.38414e-10
4.03651e-10
-2.76082e-10
1.05036e-09
4.91706e-10
-7.54281e-12
1.34927e-09
1.55823e-09
6.5057e-10
2.28099e-09
2.97425e-09
-4.26749e-09
2.99355e-09
-1.96133e-10
7.24107e-10
6.01255e-09
-1.19147e-09
-5.10224e-09
-2.4848e-09
-2.57841e-09
-1.74927e-09
4.74286e-09
-2.07277e-10
5.39977e-09
4.10368e-10
5.25265e-09
2.32983e-10
-6.71157e-10
2.26896e-09
-1.00325e-08
4.29208e-10
1.55954e-08
-4.36282e-09
2.98838e-08
-4.27765e-09
-4.25925e-09
1.7642e-10
-3.53186e-08
2.43464e-09
-2.38111e-08
1.67599e-09
-1.24578e-09
7.1108e-10
4.10243e-09
3.11996e-10
3.58389e-09
1.95906e-10
1.94936e-09
1.35011e-10
1.72068e-09
9.01685e-11
1.2733e-09
5.59705e-11
1.09651e-09
7.68226e-10
3.26792e-11
6.19668e-10
1.98539e-10
-6.91241e-11
-2.28432e-10
2.87794e-09
-1.86662e-12
1.27115e-09
1.45683e-09
-1.0876e-09
1.4522e-09
-3.1212e-09
2.09473e-09
-3.5932e-09
2.00874e-09
2.33697e-09
-6.94739e-09
2.36658e-09
-3.17147e-10
1.01356e-11
6.35739e-09
-2.28504e-10
-1.95699e-09
1.47547e-09
-1.79694e-09
6.08841e-09
-2.16632e-11
1.17419e-08
-1.97742e-10
8.28068e-09
4.20248e-09
4.46604e-09
1.36883e-09
7.56432e-09
-6.12814e-09
5.43146e-09
1.01231e-08
-6.14302e-10
4.21552e-09
-2.18468e-09
-3.0745e-10
1.62782e-09
-1.25375e-08
3.5771e-09
-8.64573e-09
2.23517e-09
1.21356e-10
9.3574e-10
5.40186e-09
4.33314e-10
4.08632e-09
2.94496e-10
2.08818e-09
2.08245e-10
1.80693e-09
1.41744e-10
1.3398e-09
8.85088e-11
1.14974e-09
5.22747e-11
8.04456e-10
3.28452e-11
4.7798e-12
2.93924e-11
3.41468e-12
2.56891e-11
3.73439e-12
2.10812e-11
4.58522e-12
1.73259e-11
3.77464e-12
1.46425e-11
2.66351e-12
1.23637e-11
2.29804e-12
1.03451e-11
1.99716e-12
8.62891e-12
1.7357e-12
7.40754e-12
1.20236e-12
6.30922e-12
1.11423e-12
5.14431e-12
1.15237e-12
4.187e-12
9.66888e-13
3.56656e-12
6.1443e-13
3.0219e-12
5.48982e-13
2.66167e-12
3.58206e-13
2.17377e-12
4.8965e-13
1.83892e-12
3.34221e-13
1.80507e-12
3.49077e-14
1.5673e-12
2.37485e-13
1.41165e-12
1.56335e-13
1.3493e-12
6.24814e-14
1.28037e-12
6.8682e-14
1.30694e-12
-2.55547e-14
1.20493e-12
1.00196e-13
1.25025e-12
-4.27167e-14
4.17977e-13
8.28424e-13
9.08204e-13
-4.8551e-13
-1.68619e-13
1.07095e-12
-1.61851e-13
4.27989e-11
1.18195e-11
3.7557e-11
8.59833e-12
3.15039e-11
9.83469e-12
2.56288e-11
1.04206e-11
2.18478e-11
7.59166e-12
1.83609e-11
6.11148e-12
1.54616e-11
5.23397e-12
1.30744e-11
4.34602e-12
1.09362e-11
3.90754e-12
9.31709e-12
2.79155e-12
7.93111e-12
2.52434e-12
6.18331e-12
2.88267e-12
5.0716e-12
2.0917e-12
4.4253e-12
1.25323e-12
3.72459e-12
1.25536e-12
3.13184e-12
9.48503e-13
2.68958e-12
9.34544e-13
2.31172e-12
7.11219e-13
2.06365e-12
2.84646e-13
1.87858e-12
4.22384e-13
1.75037e-12
2.84999e-13
1.64953e-12
1.64368e-13
1.6316e-12
8.46998e-14
1.6553e-12
-4.58803e-14
1.41509e-12
3.35089e-13
1.49074e-12
-1.11487e-13
5.87472e-13
1.72253e-12
9.38186e-13
-8.25408e-13
-4.61452e-13
2.45713e-12
-6.16789e-13
4.59301e-11
1.99219e-11
3.57683e-11
1.87035e-11
2.96339e-11
1.60145e-11
2.57717e-11
1.42444e-11
2.23285e-11
1.10699e-11
1.87738e-11
9.62838e-12
1.57921e-11
8.25121e-12
1.35128e-11
6.58839e-12
1.14961e-11
5.95651e-12
9.22819e-12
5.03099e-12
7.36487e-12
4.41046e-12
6.31703e-12
3.91408e-12
5.35389e-12
3.06706e-12
4.55637e-12
2.04379e-12
3.78865e-12
2.02834e-12
3.11531e-12
1.61957e-12
2.77871e-12
1.27361e-12
2.4035e-12
1.08561e-12
1.93843e-12
7.51294e-13
1.80833e-12
5.5235e-13
1.80723e-12
2.86449e-13
1.70035e-12
2.72357e-13
1.74541e-12
3.76548e-14
1.78695e-12
-8.39779e-14
1.41605e-12
7.00649e-13
1.51474e-12
-2.03293e-13
6.04464e-13
2.62372e-12
7.81264e-13
-9.91499e-13
-6.74458e-13
3.9002e-12
-1.28504e-12
4.42139e-11
2.76858e-11
3.65884e-11
2.62743e-11
3.10248e-11
2.16215e-11
2.64338e-11
1.87986e-11
2.24458e-11
1.50916e-11
1.88076e-11
1.32301e-11
1.57872e-11
1.13058e-11
1.3312e-11
9.02824e-12
1.11879e-11
8.11138e-12
9.14307e-12
7.04883e-12
7.51909e-12
6.05592e-12
6.34464e-12
5.07314e-12
5.39688e-12
4.02621e-12
4.62326e-12
2.81098e-12
3.81705e-12
2.83942e-12
3.18736e-12
2.24715e-12
2.76055e-12
1.70276e-12
2.35746e-12
1.48793e-12
2.0539e-12
1.05633e-12
1.87138e-12
7.34779e-13
1.79168e-12
3.66427e-13
1.69461e-12
3.70581e-13
1.68127e-12
4.89674e-14
1.67272e-12
-7.19667e-14
1.44058e-12
9.2748e-13
1.54364e-12
-2.99532e-13
6.31638e-13
3.5268e-12
9.68564e-13
-1.31798e-12
-6.12656e-13
5.46948e-12
-1.89178e-12
4.36119e-11
3.52447e-11
3.67485e-11
3.3085e-11
3.13529e-11
2.70587e-11
2.65267e-11
2.35892e-11
2.23399e-11
1.93111e-11
1.87229e-11
1.68119e-11
1.57262e-11
1.43354e-11
1.31446e-11
1.15759e-11
1.10092e-11
1.02761e-11
9.11926e-12
8.91317e-12
7.55569e-12
7.63975e-12
6.36475e-12
6.24968e-12
5.49097e-12
4.91061e-12
4.57467e-12
3.72134e-12
3.77701e-12
3.64161e-12
3.18369e-12
2.83853e-12
2.7301e-12
2.15855e-12
2.33831e-12
1.87901e-12
2.07068e-12
1.32535e-12
1.87763e-12
9.27783e-13
1.77768e-12
4.66584e-13
1.6889e-12
4.60564e-13
1.66241e-12
7.33948e-14
1.62374e-12
-2.98308e-14
1.4496e-12
1.09636e-12
1.55585e-12
-3.99055e-13
6.64052e-13
4.40988e-12
1.07347e-12
-1.71725e-12
-6.80315e-13
7.21193e-12
-2.56644e-12
4.33578e-11
4.27158e-11
3.66394e-11
3.97525e-11
3.12166e-11
3.25215e-11
2.64e-11
2.83716e-11
2.21655e-11
2.35772e-11
1.86028e-11
2.03404e-11
1.56442e-11
1.73258e-11
1.29648e-11
1.42227e-11
1.08433e-11
1.24257e-11
9.04705e-12
1.06851e-11
7.56783e-12
9.13809e-12
6.4335e-12
7.3705e-12
5.49928e-12
5.85478e-12
4.47276e-12
4.74234e-12
3.72155e-12
4.39706e-12
3.15705e-12
3.40124e-12
2.69904e-12
2.61864e-12
2.3392e-12
2.23817e-12
2.07226e-12
1.59361e-12
1.86488e-12
1.13516e-12
1.76075e-12
5.70855e-13
1.67556e-12
5.46993e-13
1.6627e-12
8.41706e-14
1.61726e-12
1.90793e-14
1.47441e-12
1.23401e-12
1.57595e-12
-4.93961e-13
7.19557e-13
5.25773e-12
1.16022e-12
-2.14807e-12
-8.40931e-13
9.20226e-12
-3.40195e-12
4.31083e-11
5.01177e-11
3.64711e-11
4.63406e-11
3.09585e-11
3.80726e-11
2.61485e-11
3.31485e-11
2.19442e-11
2.7812e-11
1.84589e-11
2.37927e-11
1.55542e-11
2.02611e-11
1.27999e-11
1.69458e-11
1.06916e-11
1.45606e-11
8.95179e-12
1.24019e-11
7.57672e-12
1.05312e-11
6.4386e-12
8.49594e-12
5.43468e-12
6.868e-12
4.39548e-12
5.77645e-12
3.6917e-12
5.1048e-12
3.12799e-12
3.96329e-12
2.66257e-12
3.08604e-12
2.32685e-12
2.57327e-12
2.06494e-12
1.85678e-12
1.84649e-12
1.35366e-12
1.73934e-12
6.78082e-13
1.65361e-12
6.34003e-13
1.66547e-12
7.02041e-14
1.6309e-12
5.71235e-14
1.52777e-12
1.33199e-12
1.62005e-12
-5.79696e-13
7.83681e-13
6.08574e-12
1.25519e-12
-2.61004e-12
-1.02178e-12
1.14689e-11
-4.41855e-12
4.28129e-11
5.7467e-11
3.62245e-11
5.28817e-11
3.06345e-11
4.36996e-11
2.58469e-11
3.79042e-11
2.1701e-11
3.19875e-11
1.8248e-11
2.72137e-11
1.53687e-11
2.31699e-11
1.27597e-11
1.95248e-11
1.0622e-11
1.67237e-11
8.85119e-12
1.41508e-11
7.60419e-12
1.17953e-11
6.39493e-12
9.69331e-12
5.31937e-12
7.95227e-12
4.34362e-12
6.74748e-12
3.6746e-12
5.77751e-12
3.11188e-12
4.52448e-12
2.6441e-12
3.5557e-12
2.30897e-12
2.90783e-12
2.04989e-12
2.11704e-12
1.83008e-12
1.57355e-12
1.72466e-12
7.83536e-13
1.63474e-12
7.25231e-13
1.66875e-12
3.40719e-14
1.64486e-12
8.44795e-14
1.59469e-12
1.37707e-12
1.67586e-12
-6.54426e-13
7.8764e-13
6.96581e-12
1.31414e-12
-3.1273e-12
-1.11129e-12
1.38844e-11
-5.52488e-12
4.24352e-11
6.4774e-11
3.59159e-11
5.93554e-11
3.0302e-11
4.93492e-11
2.5545e-11
4.26303e-11
2.14576e-11
3.61034e-11
1.80311e-11
3.06093e-11
1.51888e-11
2.60406e-11
1.26719e-11
2.2013e-11
1.05663e-11
1.88535e-11
8.81003e-12
1.58863e-11
7.50008e-12
1.31213e-11
6.26589e-12
1.09164e-11
5.19695e-12
9.02935e-12
4.2901e-12
7.64996e-12
3.63141e-12
6.43966e-12
3.07944e-12
5.07504e-12
2.61914e-12
4.01777e-12
2.27647e-12
3.24997e-12
2.02304e-12
2.37159e-12
1.80821e-12
1.78851e-12
1.71032e-12
8.81393e-13
1.61757e-12
8.19333e-13
1.67019e-12
-2.06855e-14
1.65491e-12
1.03209e-13
1.66507e-12
1.36189e-12
1.73241e-12
-7.15437e-13
8.17428e-13
7.87286e-12
1.41435e-12
-3.71531e-12
-1.24406e-12
1.65334e-11
-6.76421e-12
4.19864e-11
7.20475e-11
3.55433e-11
6.57547e-11
2.9954e-11
5.49726e-11
2.52323e-11
4.73223e-11
2.12177e-11
4.01455e-11
1.78214e-11
3.39759e-11
1.49987e-11
2.88905e-11
1.25293e-11
2.4455e-11
1.0472e-11
2.09338e-11
8.74709e-12
1.75916e-11
7.37459e-12
1.45089e-11
6.14382e-12
1.21368e-11
5.08345e-12
1.00973e-11
4.22852e-12
8.50087e-12
3.56782e-12
7.10358e-12
3.0325e-12
5.60905e-12
2.59269e-12
4.45926e-12
2.24528e-12
3.59689e-12
2.00047e-12
2.61745e-12
1.78864e-12
2.0005e-12
1.70241e-12
9.67549e-13
1.60728e-12
9.15837e-13
1.66892e-12
-8.44681e-14
1.66091e-12
1.14658e-13
1.70479e-12
1.31307e-12
1.75642e-12