/*--------------------------------*- C++ -*----------------------------------*\
| =========                 |                                                 |
| \\      /  F ield         | OpenFOAM: The Open Source CFD Toolbox           |
|  \\    /   O peration     | Version:  2.4.0                                 |
|   \\  /    A nd           | Web:      www.OpenFOAM.org                      |
|    \\/     M anipulation  |                                                 |
\*---------------------------------------------------------------------------*/
FoamFile
{
    version     2.0;
    format      ascii;
    class       volScalarField;
    location    "0.12";
    object      alpha.water;
}
// * * * * * * * * * * * * * * * * * * * * * * * * * * * * * * * * * * * * * //

dimensions      [0 0 0 0 0 0 0];

internalField   nonuniform List<scalar> 
3600
(
1
1
1
1
1
1
1
1
1
1
1
1
1
1
1
1
1
0.999547
0.99379
0.993441
0.995781
0.999499
0.998639
0.998393
0.99839
0.998385
0.999565
0.999553
0.99432
0.985118
1
1
1
1
1
1
1
1
1
1
1
1
1
1
1
1
1
0.999925
0.996136
0.994191
0.999953
0.999953
0.999954
0.999918
0.999956
0.999953
0.999787
0.992267
0.979798
0.979792
1
1
1
1
1
1
1
1
1
1
1
1
1
1
1
1
1
1
0.998841
0.99454
0.999953
0.999954
0.999954
0.999956
0.999957
0.999946
0.989277
0.979944
0.979792
0.979798
1
1
1
1
1
1
1
1
1
1
1
1
1
1
1
1
1
1
0.999921
0.995381
0.999953
0.999931
0.999839
0.999957
0.999958
0.99996
0.998791
0.993897
0.993487
0.995665
1
1
1
1
1
1
1
1
1
1
1
1
1
1
1
1
1
1
0.999996
0.994588
0.999882
0.999519
0.999101
0.999294
0.99996
0.99996
0.99996
0.99996
0.999959
0.999957
1
1
1
1
1
1
1
1
1
1
1
1
1
1
1
1
1
1
1
0.994594
0.999213
0.999802
0.999565
0.998281
0.999853
0.99996
0.99996
0.999923
0.99986
0.999836
1
1
1
1
1
1
1
1
1
1
1
1
1
1
1
1
1
1
1
0.996938
0.99926
0.999806
0.999806
0.997408
0.998886
0.999838
0.99996
0.999941
0.999824
0.999758
1
1
1
1
1
1
1
1
1
1
1
1
1
1
1
1
1
1
1
0.999994
0.999163
0.999804
0.997216
0.994677
0.994906
0.99892
0.999998
0.999998
0.999998
0.999803
1
1
1
1
1
1
1
1
1
1
1
1
1
1
1
1
1
1
1
1
0.9997
0.99611
0.994677
0.994676
0.994677
0.997983
0.999998
0.999998
0.999998
0.999998
1
1
1
1
1
1
1
1
1
1
1
1
1
1
1
1
1
1
1
1
1
0.996062
0.994676
0.994676
0.995595
0.999711
0.999999
0.999998
0.999998
0.999998
1
1
1
1
1
1
1
1
1
1
1
1
1
1
1
1
1
1
1
1
1
0.999703
0.995433
0.994676
0.998192
0.999999
1
0.999998
0.999952
0.999982
1
1
1
1
1
1
1
1
1
1
1
1
1
1
1
1
1
1
1
1
1
1
0.999237
0.999276
0.999912
1
1
1
0.999663
0.999682
1
1
1
1
1
1
1
1
1
1
1
1
1
1
1
1
1
1
1
1
1
1
1
1
1
1
1
0.999933
0.999522
0.999522
1
1
1
1
1
1
1
1
1
1
1
1
1
1
1
1
1
1
1
1
1
1
1
1
1
0.999997
0.999716
0.999546
0.999544
0.999522
1
1
1
1
1
1
1
1
1
1
1
1
1
1
1
1
1
1
1
1
1
1
1
1
1
0.999996
0.999794
0.999725
1
0.999619
1
1
1
1
1
1
1
1
1
1
1
1
1
1
1
1
1
1
1
1
1
1
1
1
1
1
0.999995
0.999997
1
0.999965
1
1
1
1
1
1
1
1
1
1
1
1
1
1
1
1
1
1
1
1
1
1
1
1
1
1
1
1
1
0.999799
1
1
1
1
1
1
1
1
1
1
1
1
1
1
1
1
1
1
1
1
1
1
1
1
0.999998
0.999999
1
0.999987
0.999814
0.999709
1
1
1
1
1
1
1
1
1
1
1
1
1
1
1
1
1
1
1
1
1
1
1
1
0.999933
0.9999
0.999911
0.999865
0.999814
0.999759
1
1
1
1
1
1
1
1
1
1
1
1
1
1
1
1
1
1
1
1
1
1
1
1
0.999992
0.999905
0.999892
0.999927
0.999993
0.99999
1
1
1
1
1
1
1
1
1
1
0.999996
0.974678
0.997111
1
1
1
1
1
0.999911
0.999997
0.99849
0.999678
1
1
1
0.999986
0.999892
0.999993
1
0.999993
1
1
1
1
1
1
1
1
1
0.99998
0.872523
0.67699
0.918229
0.999882
0.999999
0.999976
0.995278
0.997031
0.999471
0.994051
0.991756
0.999004
1
1
1
1
0.999943
1
1
0.999998
1
1
1
1
1
1
1
1
0.999997
0.785997
0.263954
0.629521
0.895912
0.963858
0.987506
0.986608
0.986622
0.998736
0.999457
0.987626
0.987329
0.998296
1
1
1
1
1
1
1
1
1
1
1
1
1
1
1
0.999999
0.904085
0.149721
0.0179021
0.365816
0.701634
0.884086
0.996109
0.989736
0.993119
0.996667
0.994805
0.990919
0.986569
0.999464
0.999998
1
1
1
1
1
1
0.999992
1
1
1
1
1
1
0.999999
0.999973
0.248144
0.00113158
0.00126544
0.0969076
0.482255
0.892737
0.997982
0.998168
0.997562
0.992795
0.992794
0.994832
0.98654
0.998275
0.999864
1
1
0.999979
0.99976
0.999701
0.999963
0.999928
1
1
1
1
1
1
0.998956
0.677483
0.0158933
2.26174e-05
0.000125201
0.01441
0.217918
0.628934
0.970478
0.998175
0.998173
0.998165
0.997714
0.993668
0.986531
0.988163
1
1
1
0.999942
0.999639
0.999639
0.999661
0.999951
1
1
1
1
1
1
0.992834
0.0662917
2.25867e-05
8.8009e-06
3.01501e-05
9.06842e-05
0.00126437
0.232679
0.868838
0.998174
0.998173
0.998173
0.998173
0.991373
0.986531
0.98656
0.999999
0.999997
0.999999
0.99998
0.999686
0.999639
0.999656
0.999984
1
1
1
1
1
0.997694
0.468746
0.00279832
5.46227e-06
4.56779e-08
2.93491e-06
1.89524e-05
0.000710658
0.0122524
0.499166
0.998173
0.998173
0.998174
0.998174
0.995487
0.986533
0.993128
0.999999
0.999998
0.999998
0.999989
0.999718
0.999639
0.999838
0.999964
1
1
1
1
0.999997
0.875076
0.0129251
4.04685e-06
4.54957e-08
4.18914e-08
-5.68396e-10
1.17518e-05
0.000736095
0.000229011
0.0864929
0.71242
0.998173
0.998171
0.998129
0.996981
0.986654
0.993495
0.999998
0.9999
0.999998
0.999983
0.99973
0.999703
0.999969
0.99997
1
1
1
1
0.935129
0.149795
0.00100135
2.50015e-06
-3.48688e-07
1.20958e-08
2.47309e-08
6.24887e-07
0.000354077
6.97064e-06
0.000133885
0.121633
0.656451
0.947994
0.998073
0.997259
0.993703
0.989534
0.996173
0.999998
0.999998
0.999953
0.999936
0.999972
0.999969
0.999116
0.984697
0.99495
0.999638
0.999649
0.998399
0.998392
0.99838
0.998575
0.999417
0.99585
0.993609
0.993881
0.999536
1
1
1
1
1
1
1
1
1
1
1
1
1
1
1
1
1
0.979796
0.979805
0.992152
0.999801
0.999956
0.999956
0.999924
0.999955
0.999955
0.999955
0.994346
0.996148
0.999919
1
1
1
1
1
1
1
1
1
1
1
1
1
1
1
1
1
0.979805
0.9798
0.979966
0.989912
0.999954
0.999957
0.999956
0.999956
0.999956
0.999956
0.994652
0.998819
1
1
1
1
1
1
1
1
1
1
1
1
1
1
1
1
1
1
0.995385
0.994182
0.994522
0.998849
0.99996
0.999958
0.999957
0.99985
0.999939
0.999955
0.995577
0.999908
1
1
1
1
1
1
1
1
1
1
1
1
1
1
1
1
1
1
0.999956
0.999959
0.99996
0.99996
0.99996
0.99996
0.999321
0.999084
0.999508
0.999893
0.994701
0.999996
1
1
1
1
1
1
1
1
1
1
1
1
1
1
1
1
1
1
0.999834
0.99986
0.999919
0.99996
0.99996
0.999872
0.998259
0.999565
0.999835
0.999264
0.994708
1
1
1
1
1
1
1
1
1
1
1
1
1
1
1
1
1
1
1
0.999758
0.999802
0.999927
0.99993
0.999836
0.998795
0.997094
0.99984
0.99984
0.999314
0.996736
1
1
1
1
1
1
1
1
1
1
1
1
1
1
1
1
1
1
1
0.999787
0.999998
0.999998
0.999998
0.999021
0.994841
0.994632
0.996978
0.999838
0.999198
0.999983
1
1
1
1
1
1
1
1
1
1
1
1
1
1
1
1
1
1
1
0.999996
0.999998
0.999998
0.999998
0.998182
0.994632
0.994632
0.994632
0.996172
0.999677
1
1
1
1
1
1
1
1
1
1
1
1
1
1
1
1
1
1
1
1
0.999998
0.999998
0.999998
0.999999
0.999789
0.995885
0.994632
0.994632
0.995858
1
1
1
1
1
1
1
1
1
1
1
1
1
1
1
1
1
1
1
1
1
0.999989
0.999998
0.999995
1
0.999999
0.998497
0.994632
0.995296
0.999604
1
1
1
1
1
1
1
1
1
1
1
1
1
1
1
1
1
1
1
1
1
0.999705
0.999815
1
1
1
0.999946
0.999389
0.999237
1
1
1
1
1
1
1
1
1
1
1
1
1
1
1
1
1
1
1
1
1
1
0.999522
0.999524
0.99998
1
1
1
1
1
1
1
1
1
1
1
1
1
1
1
1
1
1
1
1
1
1
1
1
1
1
1
0.999522
0.99953
0.999533
0.999742
1
1
1
1
1
1
1
1
1
1
1
1
1
1
1
1
1
1
1
1
1
1
1
1
1
1
0.99982
1
0.999742
0.99989
1
1
1
1
1
1
1
1
1
1
1
1
1
1
1
1
1
1
1
1
1
1
1
1
1
1
0.999951
1
1
1
1
1
1
1
1
1
1
1
1
1
1
1
1
1
1
1
1
1
1
1
1
1
1
1
1
1
0.999831
1
1
1
1
1
1
1
1
1
1
1
1
1
1
1
1
1
1
1
1
1
1
1
1
1
1
1
1
1
0.999709
0.99989
0.999992
1
1
0.999998
1
1
1
1
1
1
1
1
1
1
1
1
1
1
1
1
1
1
1
1
1
1
1
1
0.999782
0.999851
0.999891
0.999917
0.999907
0.999953
1
1
1
1
1
1
1
1
1
1
1
1
1
1
1
1
1
1
1
1
1
1
1
1
0.999992
0.999992
0.999927
0.999899
0.999922
0.999997
1
1
0.999813
0.999111
1
1
1
1
1
1
1
1
1
1
1
1
1
1
1
1
1
1
1
1
0.999996
1
0.999994
0.999899
0.999993
1
1
1
1
0.990641
0.998224
1
1
1
1
0.998908
0.995966
0.987377
1
0.999999
0.999999
1
1
1
1
1
1
1
1
1
0.999999
1
1
0.999984
1
1
1
1
0.995586
0.989729
0.983852
0.997057
0.99997
0.999115
0.998159
0.996574
0.942592
0.890288
0.804443
0.849986
0.999974
1
1
1
1
1
1
1
1
1
0.999999
1
1
1
1
1
1
0.998816
0.993683
0.987007
0.981054
0.997163
0.999886
0.996434
0.996469
0.997576
0.95728
0.85965
0.459827
0.182555
0.739944
0.999997
1
1
1
1
1
1
1
1
0.999988
1
1
1
1
1
1
0.997035
0.995436
0.981088
0.981054
0.999877
0.999882
0.996435
0.998219
0.998289
0.933459
0.771625
0.31067
0.0280255
0.0992109
0.902854
0.999999
1
1
1
1
1
1
1
0.999982
1
0.999843
0.999815
0.999953
1
1
0.99783
0.993659
0.981082
0.984191
0.987753
0.995541
0.997868
0.998291
0.998289
0.908363
0.582183
0.102923
0.000181187
0.0474429
0.26049
0.999974
0.999999
1
1
1
1
1
1
0.999984
1
0.999759
0.999671
0.999797
0.999999
1
0.9993
0.981978
0.981413
0.995135
0.993656
0.993529
0.998067
0.998293
0.98639
0.651666
0.263182
0.0240556
2.1266e-05
2.4111e-05
0.0371051
0.680412
0.999023
1
1
1
1
1
1
0.999984
0.999853
0.999671
0.999671
0.999805
0.999999
1
1
0.981483
0.981434
0.991737
0.998221
0.998204
0.998294
0.998291
0.847909
0.246002
0.0151151
0.000504892
2.85807e-06
7.25405e-06
2.40172e-05
0.0754556
0.992314
1
1
1
1
1
1
0.999984
0.999984
0.999679
0.999671
0.999865
1
1
1
0.991659
0.981455
0.986756
0.99829
0.998294
0.998294
0.975683
0.374008
0.00275711
0.000272396
1.04395e-06
2.52632e-07
2.54139e-07
6.81185e-06
0.002558
0.465472
0.997579
1
1
1
1
1
0.999984
0.999979
0.999843
0.999674
0.999899
0.999999
0.999999
0.999999
0.999999
0.983999
0.993162
0.998291
0.998295
0.998294
0.663348
0.0542429
0.000155091
4.85467e-05
2.58899e-07
5.54434e-08
4.11958e-08
2.68353e-07
6.72263e-06
0.0138386
0.873082
0.999997
1
1
1
1
0.998777
0.999927
0.999963
0.999967
0.999928
0.999993
0.999999
0.999999
0.99373
0.993347
0.998157
0.998244
0.99829
0.783769
0.0984688
0.000155885
1.68402e-05
1.67067e-05
-1.58997e-07
-2.07882e-09
1.15058e-08
-1.8221e-08
2.66644e-06
0.00113912
0.146493
0.934237
1
1
1
1
1
1
1
0.997725
0.734709
0.00580455
7.27571e-06
1.48602e-07
-3.39172e-09
1.2428e-08
1.24245e-08
8.48645e-05
9.80845e-06
6.25082e-07
5.74852e-06
0.000133782
0.119705
0.523644
0.921706
0.996988
0.996558
0.989841
0.990846
0.999998
0.999998
0.999994
0.999993
0.999986
0.999915
0.99598
1
1
1
0.965364
0.124913
0.00142335
4.87151e-06
-2.1992e-07
5.14116e-09
1.19825e-08
1.36056e-08
0.000183029
7.68418e-06
2.17555e-07
4.93211e-07
-4.86436e-06
0.000969685
0.0680502
0.438437
0.908244
0.99739
0.997441
0.991114
0.999988
0.999994
0.999994
0.999871
0.999705
0.999098
0.995981
1
1
0.999976
0.888652
0.0159787
1.18303e-05
2.96226e-07
-1.43809e-08
2.39443e-09
4.03363e-08
2.76253e-08
0.000189674
2.40301e-05
1.7066e-07
-2.81431e-07
1.16028e-06
2.23e-05
0.000186412
0.0131365
0.417802
0.997424
0.997708
0.99417
0.999978
0.999814
0.999533
0.998346
0.998153
0.998315
0.996091
1
0.971324
0.930253
0.250573
0.00418155
4.82338e-06
-3.31112e-08
1.50723e-09
2.15811e-09
4.25707e-08
3.0184e-08
0.000191953
4.99973e-05
1.34199e-07
5.30192e-06
1.22489e-05
2.56011e-05
4.54492e-05
0.000295131
0.0263853
0.578485
0.998756
0.999
0.999913
0.999783
0.998713
0.997546
0.997476
0.998048
0.997868
0.768852
0.958048
0.787632
0.00684282
1.09605e-05
2.00555e-07
-6.81794e-09
9.54728e-11
1.93789e-09
2.48307e-08
1.58036e-08
0.000190985
3.48367e-05
1.15358e-07
5.7409e-06
9.0419e-05
9.17068e-05
8.92771e-06
2.32291e-06
7.98402e-06
0.0902198
0.844659
0.998756
0.998995
0.999576
0.998792
0.997755
0.997433
0.99787
0.997655
0.436772
0.546765
0.376161
0.0163139
-9.10129e-07
-1.8447e-07
-9.201e-11
4.18231e-11
1.99954e-10
2.19332e-10
5.55101e-10
0.000155706
1.28374e-05
4.01352e-08
1.1057e-08
9.20153e-05
2.17579e-05
8.52601e-06
8.43379e-06
7.98402e-06
7.93059e-06
0.0747725
0.861403
0.640538
0.890903
0.864359
0.926388
0.932802
0.941246
0.954259
0.0056403
0.0279133
4.39904e-12
1.00443e-13
2.6199e-19
-1.01411e-10
9.37877e-15
2.42152e-11
1.57906e-10
4.00887e-09
4.58053e-08
1.584e-05
1.7973e-06
4.20463e-08
8.20654e-09
8.25756e-05
1.34927e-05
1.30685e-05
8.56124e-06
8.50894e-06
8.0533e-06
1.86352e-05
0.0758776
0.0645979
0.204341
0.16606
0.247645
0.263272
0.282002
0.30931
6.26896e-11
4.27788e-11
2.8723e-11
1.14009e-11
4.83362e-12
7.31458e-12
6.395e-12
3.04912e-11
1.53904e-10
6.54768e-09
4.16753e-08
-9.48564e-09
3.65309e-07
1.84014e-08
7.54219e-09
2.1059e-06
2.19657e-05
9.20514e-05
6.6504e-05
9.82326e-06
3.62706e-05
0.000955055
4.33833e-05
5.90161e-07
5.87248e-07
5.80659e-07
5.79772e-07
5.79773e-07
5.77565e-07
5.66886e-07
1.49463e-07
6.96943e-11
8.00032e-11
1.34733e-11
4.57293e-12
1.03907e-11
5.71859e-12
2.32091e-11
1.14854e-10
7.05031e-09
2.35367e-08
1.18839e-08
7.7753e-08
1.01152e-08
7.24998e-09
7.53746e-09
6.10018e-05
0.000115469
9.52232e-05
1.73604e-05
6.13958e-06
2.15349e-06
6.51789e-07
6.34942e-07
5.86137e-07
5.81409e-07
5.79902e-07
5.79026e-07
5.7978e-07
5.80375e-07
1.30825e-06
6.50492e-08
8.80726e-10
8.97751e-10
2.92099e-12
1.02103e-11
4.02085e-12
2.10582e-11
2.13634e-10
2.7219e-09
1.95539e-08
1.49605e-08
1.6315e-08
7.57414e-09
7.07517e-09
7.26615e-09
7.50882e-05
0.000128534
8.82767e-05
2.65307e-05
5.42378e-06
1.97551e-06
2.12163e-06
3.15602e-06
6.2199e-07
5.35159e-06
5.79438e-07
5.79923e-07
5.82359e-07
5.85274e-07
2.1596e-06
2.5019e-07
5.53084e-07
4.30184e-07
1.89363e-12
9.31035e-12
2.72381e-12
1.77979e-11
1.88536e-10
4.55962e-09
3.56099e-08
2.8059e-08
1.03349e-08
1.08878e-08
6.85199e-09
1.60931e-05
3.02028e-05
0.000142592
0.000143083
0.00012818
1.49202e-05
1.70254e-06
8.16561e-06
3.86792e-05
3.46073e-05
1.23791e-05
5.77986e-07
5.7873e-07
5.76611e-07
5.82977e-07
2.39487e-06
1.65397e-06
9.37994e-06
8.5458e-07
1.86983e-12
8.04813e-12
1.68195e-12
1.0969e-11
5.98864e-11
6.92727e-09
5.03264e-08
1.17553e-08
8.41273e-09
1.17621e-08
6.76161e-09
2.71295e-06
1.58619e-07
0.000128567
0.000143244
0.000112796
1.08437e-05
1.48985e-06
1.97524e-06
4.43083e-05
0.000192005
9.5355e-06
5.78659e-07
5.74993e-07
5.74987e-07
5.75241e-07
2.39453e-06
1.01067e-05
1.20748e-05
2.35128e-07
1.85251e-12
6.56386e-12
9.28636e-13
6.30464e-12
1.2834e-10
3.11715e-09
5.03216e-08
8.10444e-09
7.28339e-09
1.16106e-08
6.80801e-09
6.61187e-09
6.15418e-08
0.000130635
9.56095e-05
2.47195e-05
2.04229e-06
1.43553e-06
2.04981e-06
6.17734e-06
0.000262674
6.4431e-05
5.93463e-07
6.41464e-07
7.30513e-07
5.77282e-07
7.34091e-07
1.21312e-05
1.21312e-05
2.11532e-08
1.84037e-12
4.90188e-12
4.85626e-13
2.28507e-12
2.90415e-11
2.57155e-10
3.1035e-08
3.6439e-08
5.871e-09
6.23533e-09
6.28003e-09
6.3707e-09
0.000195719
0.000144316
6.07494e-06
5.0788e-06
1.83928e-06
1.3229e-06
1.32564e-06
8.52527e-05
0.000264015
0.000118032
1.77988e-06
4.93597e-05
4.06703e-05
5.77672e-07
6.87528e-22
1.21023e-05
9.08528e-06
2.9628e-08
1.82148e-12
3.1762e-12
2.48762e-13
1.15337e-12
2.00364e-11
3.19166e-11
3.03709e-08
1.1383e-07
5.2558e-09
5.11384e-09
3.94192e-09
1.2949e-05
0.000486901
8.40258e-05
7.96156e-07
1.25373e-06
1.31369e-06
1.32097e-06
1.32312e-06
0.000131459
0.00026427
0.000204848
3.01695e-05
0.000101401
8.25577e-05
4.77937e-06
5.17692e-18
5.16144e-06
9.68777e-12
1.77279e-08
1.79107e-12
1.66003e-12
1.14478e-13
4.30448e-13
8.66909e-12
1.88573e-11
1.78487e-08
1.13828e-07
8.50561e-08
7.28116e-10
1.89452e-09
0.00070345
0.000544244
1.71228e-05
3.81866e-07
8.14452e-06
5.74295e-05
5.80261e-05
8.05749e-06
0.00026427
0.00026427
0.000223179
6.63871e-05
0.00010244
2.43688e-05
8.28075e-06
1.75257e-13
3.55944e-12
3.52858e-12
2.78454e-12
2.77804e-12
6.45224e-13
4.73865e-14
1.43096e-13
2.29992e-12
1.95384e-11
2.67867e-09
5.36992e-08
4.73408e-08
6.6163e-11
0.000452713
0.000756836
0.000448413
6.91227e-06
9.32245e-08
2.10781e-06
9.23979e-05
9.21277e-05
5.09563e-05
0.000146041
0.00026427
0.000262847
0.000131309
0.000107547
9.57339e-05
9.62364e-06
2.58022e-12
1.09171e-11
4.14091e-11
1.44914e-11
2.47146e-12
1.98648e-13
1.78851e-14
5.29637e-14
6.20811e-13
6.92006e-12
7.07425e-11
8.0232e-11
2.77213e-10
2.1639e-11
0.000750518
0.000755555
0.000164382
9.13094e-08
9.30108e-09
4.60956e-09
1.6929e-05
9.2455e-05
5.37191e-05
6.92329e-07
0.000128218
0.000262475
0.000113005
0.000103914
0.000248324
6.9933e-05
7.81594e-13
9.19552e-11
6.26381e-11
1.66023e-11
1.4298e-12
8.92778e-14
6.33591e-15
1.2277e-14
1.28606e-13
1.17352e-12
1.22237e-11
2.30853e-11
3.35806e-11
1.92642e-11
0.000251513
0.000146843
5.80033e-06
7.13052e-09
4.74156e-09
4.22693e-09
2.92041e-09
5.74666e-06
6.87309e-06
2.62271e-07
6.0776e-08
0.000164725
0.000103982
0.000106188
0.000270187
0.000229294
2.14822e-13
3.83182e-11
4.16963e-11
9.1463e-12
6.38757e-13
3.3704e-14
2.04703e-15
4.47173e-15
4.74644e-14
3.6827e-13
2.85337e-12
2.56859e-11
9.43223e-11
1.8595e-11
-6.14714e-10
2.72137e-08
4.30173e-08
5.72007e-09
5.73565e-09
4.16301e-09
8.64469e-10
1.78604e-09
4.68384e-09
3.12984e-09
4.03937e-09
7.77245e-05
0.000107354
0.00010908
0.000273296
0.000274614
3.31339e-14
1.01655e-11
9.40915e-12
2.41233e-12
2.08965e-13
1.02454e-14
5.28234e-16
1.49966e-15
1.7175e-14
1.34159e-13
8.61126e-13
5.5628e-12
3.413e-11
1.80312e-11
2.91502e-11
2.87561e-10
3.14261e-10
2.94189e-10
5.49902e-10
5.60806e-10
8.28104e-10
8.68688e-10
2.33472e-09
2.6745e-09
2.64136e-09
4.29251e-09
8.88821e-05
0.000146133
0.000264212
0.000274748
3.3955e-15
1.44434e-12
2.83806e-12
6.86143e-13
5.70365e-14
2.37838e-15
1.01061e-16
4.1855e-16
5.16818e-15
4.26177e-14
2.73082e-13
1.50406e-12
1.05092e-11
1.69274e-11
3.61847e-11
7.3948e-11
1.68165e-10
1.87783e-10
1.87795e-10
1.11243e-07
1.38041e-07
5.43038e-08
2.67981e-09
2.64101e-09
2.64097e-09
2.64503e-09
4.05498e-05
0.000145766
0.000274748
0.000274753
2.27537e-16
1.05153e-13
5.92994e-13
1.39019e-13
1.11188e-14
3.85139e-16
1.37445e-17
9.52146e-17
1.33817e-15
1.26586e-14
9.15329e-14
5.40472e-13
3.60438e-12
1.1614e-11
4.6004e-11
7.57328e-11
8.17702e-11
3.46939e-10
1.95562e-10
2.19912e-07
1.22798e-07
3.27452e-08
3.96937e-09
1.86544e-06
2.64467e-09
2.04504e-08
6.89139e-08
3.72263e-05
0.00025275
0.000274748
9.89989e-18
4.02669e-15
7.9701e-14
1.76707e-14
1.33802e-15
3.90891e-17
1.35202e-18
1.73658e-17
2.90607e-16
3.31825e-15
2.87482e-14
2.16242e-13
1.67686e-12
8.10187e-12
2.93039e-11
4.55625e-11
9.6007e-11
7.04239e-11
6.25222e-07
5.61294e-07
1.25001e-07
3.61211e-08
3.96316e-05
6.91719e-05
5.72395e-05
7.08062e-06
9.84336e-07
1.93037e-06
2.5955e-05
0.000207583
2.77491e-19
7.61602e-17
5.98168e-15
1.2357e-15
8.76169e-17
2.21709e-18
9.52954e-20
2.1157e-18
4.35517e-17
6.22796e-16
6.77065e-15
6.50527e-14
6.09347e-13
4.20238e-12
2.09137e-11
3.844e-11
1.04462e-09
7.04734e-11
2.57953e-06
3.34991e-06
2.39047e-06
4.16944e-08
1.36764e-05
7.11104e-05
7.15017e-05
7.20549e-05
2.80969e-05
3.27612e-06
5.07118e-06
1.58829e-05
4.97777e-21
5.04285e-19
2.25445e-16
4.23229e-17
2.74057e-18
6.1066e-20
4.53178e-21
1.5879e-19
4.29122e-18
8.26604e-17
1.24946e-15
1.78416e-14
2.39005e-13
2.39422e-12
1.61547e-11
1.63118e-11
6.04434e-09
1.09135e-08
3.77772e-08
4.26844e-07
7.2311e-07
8.96286e-08
8.92049e-08
5.44984e-05
7.16431e-05
7.20946e-05
7.16431e-05
1.81625e-05
5.20255e-06
5.12207e-06
5.6622e-23
8.49369e-22
3.75912e-18
6.1274e-19
3.45119e-20
6.69747e-22
1.29027e-22
6.78374e-21
2.55841e-19
7.02103e-18
1.5366e-16
3.07761e-15
5.54931e-14
7.23061e-13
6.0494e-12
2.89299e-11
2.93647e-11
3.00243e-11
3.29561e-07
8.06276e-07
5.13341e-07
8.24788e-08
8.44996e-08
4.42616e-05
7.1739e-05
7.20497e-05
3.84108e-05
5.7838e-06
5.0732e-06
5.06252e-06
4.08623e-25
3.58333e-25
2.25865e-20
2.95163e-21
1.33079e-22
2.14052e-24
1.28956e-24
1.04345e-22
6.0222e-21
2.61279e-19
9.45444e-18
3.08607e-16
9.20741e-15
2.07182e-13
3.13467e-12
2.61667e-11
4.40361e-11
4.72848e-11
3.24068e-07
8.10636e-07
3.80276e-07
7.65513e-08
8.04173e-08
1.07747e-05
6.53352e-05
8.05034e-05
2.23463e-05
5.08083e-06
5.06602e-06
5.07319e-06
1.91463e-27
8.69923e-28
3.82566e-23
3.38573e-24
1.02041e-25
1.14739e-27
2.03275e-27
2.93662e-25
3.08334e-23
2.50992e-21
1.77374e-19
1.13861e-17
6.58194e-16
2.76689e-14
6.50889e-13
8.20873e-12
6.90096e-11
6.03223e-11
4.02632e-08
3.97838e-07
3.51873e-07
7.4252e-08
7.65549e-08
1.13384e-07
3.04024e-05
8.68232e-05
0.000129827
0.000130178
0.000122798
0.000115756
6.44353e-30
2.84674e-30
1.91528e-26
6.37439e-28
6.9438e-30
2.88527e-32
1.30482e-32
6.20356e-30
2.27288e-27
6.75943e-25
1.86813e-22
4.62525e-20
7.97659e-18
7.25686e-16
3.24456e-14
7.49281e-13
9.1195e-12
5.34009e-11
6.05549e-12
4.35533e-09
5.28094e-08
7.35067e-08
7.4259e-08
3.48739e-07
5.1802e-06
2.47739e-05
5.36705e-05
8.01214e-05
0.000100182
0.000116411
0.99598
0.999628
0.999973
0.999989
0.999991
0.999997
0.999999
0.999991
0.990806
0.994994
0.998079
0.998209
0.844523
0.219698
0.000337987
1.53247e-05
2.78282e-06
4.39992e-06
-2.26202e-07
6.54983e-09
9.95901e-09
5.34157e-09
1.65953e-07
7.34819e-06
0.00617843
0.734877
0.997729
1
1
1
0.995979
0.998561
0.999528
0.999636
0.999978
0.999987
0.999997
0.994683
0.990873
0.996611
0.997826
0.900091
0.367668
0.013898
-3.23678e-05
1.06275e-06
1.59435e-07
1.4137e-06
-5.64333e-08
1.93999e-08
8.65038e-09
4.70519e-09
-2.57545e-07
4.52724e-06
0.00124034
0.125312
0.965535
1
1
1
0.996069
0.997801
0.99819
0.997922
0.998948
0.999191
0.99994
0.993262
0.997289
0.997228
0.900515
0.413265
0.0128922
2.87247e-05
8.48088e-07
-4.62638e-07
1.15428e-07
1.38033e-07
-3.2818e-08
2.57661e-08
6.74865e-09
2.05146e-09
-2.22691e-08
3.00843e-07
1.17668e-05
0.0160969
0.888938
0.999974
1
1
0.997683
0.99777
0.997719
0.997164
0.99846
0.998683
0.999828
0.997515
0.997434
0.972697
0.402461
0.00572534
3.58346e-05
1.07188e-06
7.72939e-08
5.91882e-08
1.02616e-07
1.02506e-07
2.64281e-09
1.25943e-08
2.72794e-08
1.41585e-09
1.10465e-09
-3.53455e-08
4.93496e-06
0.0043328
0.251221
0.930159
0.970936
1
0.997528
0.997637
0.997507
0.997338
0.998087
0.998482
0.996203
0.997434
0.984873
0.445969
0.00537785
1.42697e-05
-8.47556e-07
1.84911e-07
5.74947e-08
4.90035e-08
4.70461e-08
3.2436e-08
-7.25469e-09
1.88404e-09
6.50557e-08
1.38876e-09
9.47138e-11
-4.17035e-09
1.99097e-07
1.09657e-05
0.00691518
0.78817
0.957982
0.766095
0.94377
0.954778
0.915579
0.944768
0.83056
0.919465
0.580477
0.917618
0.290766
2.24214e-05
2.11679e-06
3.73406e-07
4.56465e-07
5.03855e-07
9.65438e-07
9.65626e-08
4.68727e-08
4.4634e-08
3.06322e-08
7.56589e-08
8.03224e-08
4.3322e-10
2.91494e-11
-8.27547e-11
-1.78306e-07
-9.1895e-07
0.016448
0.379406
0.54116
0.429831
0.281142
0.315576
0.234071
0.291863
0.139134
0.250667
0.0592157
0.19447
2.25647e-05
2.12321e-06
4.00731e-07
4.02287e-07
4.01785e-07
5.59642e-06
1.19433e-05
3.68453e-06
4.68591e-08
4.68959e-08
6.01209e-08
2.07767e-07
2.05511e-08
3.83155e-11
1.09111e-11
7.69914e-15
-1.01278e-10
5.42194e-19
2.04868e-13
4.49428e-12
0.0262204
0.00403854
5.38485e-07
4.95631e-07
4.51272e-07
4.20732e-07
3.9985e-07
3.88829e-07
3.72921e-07
3.55365e-07
0.00283524
0.000352302
4.87883e-07
3.82999e-07
5.3653e-06
1.38998e-05
1.394e-05
6.55048e-06
4.68576e-08
4.67963e-08
4.80929e-08
2.07766e-07
1.5756e-08
2.86116e-11
1.06084e-11
6.68932e-12
1.04369e-11
8.35314e-12
1.3252e-11
1.80432e-11
2.8351e-11
3.69913e-11
5.74279e-07
5.4092e-07
5.10596e-07
4.69052e-07
4.57837e-07
4.05072e-07
3.7078e-07
-4.73959e-07
3.63765e-06
0.000167352
2.42661e-06
2.45808e-06
1.34615e-05
1.39401e-05
1.11639e-05
2.89253e-06
4.68054e-08
4.68638e-08
1.45068e-07
1.47217e-07
3.0126e-09
5.46291e-11
7.10202e-12
5.40888e-12
1.45576e-11
8.63605e-12
1.50486e-11
7.79122e-11
4.33246e-11
1.53986e-07
5.85276e-07
5.87741e-07
6.06793e-07
6.29615e-07
1.17632e-06
2.97731e-06
4.13323e-06
2.79515e-06
1.15917e-06
8.4249e-06
3.45947e-06
1.078e-05
1.36187e-05
4.35895e-06
1.1781e-07
3.83037e-07
5.24346e-08
5.86675e-08
2.87213e-07
7.29423e-08
6.67835e-11
3.69566e-11
3.96448e-12
3.50806e-12
1.18534e-11
4.33477e-12
7.65604e-09
1.24137e-09
5.13649e-08
1.34542e-06
5.81115e-07
5.80017e-07
5.80059e-07
1.99915e-06
5.50744e-06
5.50744e-06
5.50545e-06
1.30266e-06
1.02088e-06
1.16277e-06
9.19261e-06
1.20317e-05
8.98022e-06
1.17811e-07
1.05285e-07
1.05265e-07
1.21111e-07
2.87219e-07
2.84862e-07
2.73423e-08
3.27481e-11
1.64085e-11
2.09757e-12
2.20355e-12
1.03539e-11
2.77661e-12
4.2256e-07
9.13082e-07
1.85171e-07
2.29063e-06
5.76828e-07
5.77531e-07
5.82167e-07
3.09202e-06
5.4146e-06
3.56584e-06
6.8007e-07
7.12679e-07
9.06664e-07
1.54912e-06
1.00239e-05
1.20126e-05
6.2506e-08
3.88285e-07
1.15724e-06
1.92001e-07
2.62416e-08
1.18536e-07
5.36092e-08
1.3066e-09
7.86398e-11
5.94609e-12
1.02367e-12
1.34188e-12
8.80103e-12
2.75304e-12
7.08566e-07
1.07325e-05
1.50476e-06
2.75427e-06
5.77406e-07
5.78009e-07
6.2712e-07
5.79421e-07
5.75839e-07
5.78931e-07
5.83198e-07
6.07515e-07
2.08562e-06
1.29057e-05
1.51101e-05
2.23897e-06
2.90953e-08
9.32666e-07
2.56464e-06
1.61048e-06
7.416e-09
2.67563e-09
1.73223e-09
2.34251e-10
1.91249e-11
2.14529e-12
5.09684e-13
7.92917e-13
7.29507e-12
2.73429e-12
2.30571e-07
1.27033e-05
1.03701e-05
2.75326e-06
5.7748e-07
5.77748e-07
5.80066e-07
5.78418e-07
5.71865e-07
5.78016e-07
5.91803e-07
6.02313e-06
1.77981e-05
1.77682e-05
1.52069e-05
5.17532e-09
1.14677e-08
3.89049e-07
2.57863e-06
2.70993e-06
3.42077e-07
1.65819e-07
4.58813e-11
4.48741e-11
7.40542e-12
9.12509e-13
2.46601e-13
4.49436e-13
5.6137e-12
2.72145e-12
2.81545e-08
1.27414e-05
1.27414e-05
1.09742e-06
5.77604e-07
5.7749e-07
5.78653e-07
5.79958e-07
5.78653e-07
5.95705e-07
8.46349e-06
1.78865e-05
1.78813e-05
1.78648e-05
1.38909e-05
4.74938e-09
1.01323e-08
3.6727e-08
1.28091e-06
2.69726e-06
2.70917e-06
7.55203e-07
6.81731e-11
9.56847e-11
6.06557e-12
5.25373e-13
1.21851e-13
2.37928e-13
3.7626e-12
2.7038e-12
1.57886e-08
6.67503e-06
1.26972e-05
1.20883e-22
2.91521e-05
3.41502e-05
5.80597e-07
5.82222e-07
5.88443e-07
9.36086e-07
1.40833e-05
1.78779e-05
1.78946e-05
1.79015e-05
8.97633e-06
4.36526e-09
1.40803e-08
1.61201e-08
6.64343e-08
9.85497e-07
1.81141e-06
2.05958e-07
3.61673e-11
2.57806e-11
1.93885e-12
2.59931e-13
5.45661e-14
1.11996e-13
2.01696e-12
2.67228e-12
4.72666e-09
1.34864e-10
7.86016e-06
7.80656e-19
1.75388e-05
5.44944e-05
5.567e-05
1.86806e-05
6.27107e-07
6.47011e-07
3.56822e-06
1.64568e-05
1.78779e-05
9.0952e-06
2.21916e-08
4.49659e-09
1.81081e-08
1.44062e-08
3.02566e-10
5.10629e-10
3.13112e-08
5.17416e-11
2.40529e-11
4.53913e-12
8.29333e-13
1.24571e-13
2.17998e-14
4.51058e-14
7.73634e-13
3.75471e-12
3.82345e-12
9.87409e-12
6.68224e-08
9.82485e-14
9.93944e-06
3.38453e-05
5.60712e-05
5.62243e-05
4.68401e-05
8.15525e-06
8.5376e-07
7.69461e-07
2.17049e-06
1.10252e-07
6.04856e-10
4.04859e-09
5.96478e-09
2.35171e-10
2.72322e-10
1.81223e-10
8.77895e-11
2.10988e-11
9.12747e-12
1.81228e-12
3.71004e-13
5.33353e-14
7.67538e-15
1.6278e-14
2.19084e-13
2.49289e-12
1.72624e-11
5.73936e-11
3.04437e-12
2.63119e-12
1.8612e-05
2.80482e-06
4.63358e-05
5.61995e-05
5.62544e-05
5.45959e-05
1.15082e-05
1.60356e-09
1.22607e-09
6.18271e-10
5.99063e-10
5.79517e-10
4.92752e-10
4.88394e-10
3.2033e-10
1.744e-10
5.12989e-11
3.9066e-11
4.18577e-12
8.13381e-13
1.54681e-13
2.05712e-14
2.43551e-15
6.05623e-15
1.04253e-13
1.569e-12
1.53852e-11
6.33668e-11
1.40156e-10
8.03813e-13
2.45297e-05
2.57003e-06
9.93572e-06
5.29161e-05
5.61666e-05
5.61884e-05
5.40555e-06
8.81404e-10
6.765e-10
6.389e-10
6.0257e-10
5.55271e-10
5.39815e-10
4.11757e-10
3.09094e-10
1.51617e-10
6.16933e-11
1.59178e-11
2.73276e-12
4.34479e-13
6.93213e-14
8.26563e-15
7.90735e-16
1.90748e-15
4.10977e-14
7.42577e-13
8.05103e-12
3.45221e-11
4.17822e-11
2.07638e-13
0.000186293
4.36049e-05
7.47495e-07
1.20667e-05
3.86445e-05
2.58698e-05
1.06e-09
1.0268e-09
9.96143e-10
6.55555e-10
8.44056e-09
1.59624e-08
2.05593e-10
2.08861e-10
1.94282e-10
1.1228e-10
4.55038e-11
1.12808e-11
1.96628e-12
2.74466e-13
3.58493e-14
3.8135e-15
2.99821e-16
4.76696e-16
1.28439e-14
2.46795e-13
2.30831e-12
8.72165e-12
9.80884e-12
3.14624e-14
0.000274761
3.57352e-05
7.22206e-07
7.43368e-07
1.24224e-06
1.56004e-07
1.57833e-09
1.04883e-09
1.02898e-09
3.52524e-07
5.96469e-07
3.87535e-07
9.15707e-11
7.88173e-11
7.97607e-11
5.96848e-11
2.47592e-11
6.1405e-12
1.08196e-12
1.41701e-13
1.53525e-14
1.48286e-15
1.00455e-16
8.72953e-17
3.10302e-15
7.01228e-14
6.88856e-13
2.6891e-12
1.50882e-12
3.16936e-15
0.000274528
4.42682e-05
7.2543e-07
7.22776e-07
7.43353e-07
6.59871e-07
6.11262e-07
9.77845e-07
1.03193e-05
1.25321e-05
1.21154e-05
2.76111e-06
5.21965e-10
4.82616e-11
3.69637e-11
3.65663e-11
1.43491e-11
2.83363e-12
4.18507e-13
4.85751e-14
4.26713e-15
3.63786e-16
2.11801e-17
1.0755e-17
5.28853e-16
1.40292e-14
1.4403e-13
5.80215e-13
1.24784e-13
2.09251e-16
0.000273028
0.000201399
1.02533e-06
7.43355e-07
1.31784e-06
8.6419e-06
1.2194e-05
1.23466e-05
1.25321e-05
1.25321e-05
1.25321e-05
1.25273e-05
6.5348e-06
2.98089e-11
3.7177e-11
4.00457e-11
1.51058e-11
2.34154e-12
2.47746e-13
2.08014e-14
1.39268e-15
9.21011e-17
4.22402e-18
8.63586e-19
5.72695e-17
1.72789e-15
1.88481e-14
8.02652e-14
5.27318e-15
8.97351e-18
0.000115312
0.000199523
0.000111032
7.77015e-07
1.3023e-06
8.76854e-06
1.23171e-05
1.23597e-05
1.11654e-05
4.18482e-06
3.7091e-06
1.03854e-05
1.0329e-05
2.17943e-06
3.73433e-11
4.65486e-11
1.71556e-11
1.96508e-12
1.49819e-13
8.86023e-15
4.22092e-16
2.00011e-17
6.81945e-19
4.66286e-20
3.4535e-18
1.15609e-16
1.35913e-15
6.21545e-15
1.08582e-16
2.48358e-19
5.38762e-06
7.8743e-05
0.000134832
3.87286e-05
1.39185e-06
3.08267e-06
7.65168e-06
7.92696e-06
2.25466e-06
2.23e-06
2.23e-06
2.23482e-06
1.02161e-05
3.88125e-06
3.95012e-11
4.45945e-11
2.12912e-11
1.69823e-12
8.56585e-14
3.17212e-15
9.71336e-17
3.04126e-18
7.1361e-20
1.80996e-21
9.9957e-20
3.68972e-18
4.80337e-17
2.41858e-16
9.55624e-19
4.41187e-21
5.07761e-06
5.26675e-06
7.74971e-05
0.000297275
0.0001719
3.74819e-06
5.06292e-06
5.21028e-06
7.12858e-06
1.07814e-05
2.56509e-06
2.33716e-06
5.82359e-06
1.65458e-06
4.69911e-11
3.21355e-11
2.33607e-11
1.45376e-12
4.65362e-14
1.05434e-15
1.95406e-17
3.58623e-19
5.15146e-21
5.83977e-23
1.15624e-21
4.75842e-20
7.19919e-19
4.17277e-18
2.29751e-21
4.98727e-23
5.06603e-06
5.06907e-06
0.000133313
0.000303455
0.000303702
0.000234114
3.32598e-05
5.21028e-06
4.24135e-05
7.57174e-05
7.41759e-05
1.40383e-05
4.42474e-09
1.55376e-10
1.06005e-10
9.56594e-11
1.60846e-11
9.07456e-13
1.98709e-14
2.27856e-16
2.05143e-18
1.91074e-20
1.51919e-22
9.18083e-25
4.00326e-24
1.99416e-22
3.83376e-21
2.78222e-20
6.32398e-25
3.57176e-25
0.000118069
0.000179162
0.000303421
0.000303716
0.000303703
0.000290628
3.91906e-05
7.73076e-06
7.4883e-05
7.57174e-05
7.57174e-05
7.86775e-06
3.27783e-09
7.68959e-11
2.37803e-11
1.62485e-11
1.86904e-12
8.95352e-14
1.66488e-15
1.33101e-17
6.09404e-20
2.49953e-22
9.19045e-25
2.69199e-27
2.33442e-27
1.67905e-25
4.88453e-24
5.23892e-23
7.77224e-28
1.67001e-27
0.000122722
0.000144994
0.000163314
0.000180289
0.000147735
7.01292e-05
1.47805e-05