/*--------------------------------*- C++ -*----------------------------------*\
| =========                 |                                                 |
| \\      /  F ield         | OpenFOAM: The Open Source CFD Toolbox           |
|  \\    /   O peration     | Version:  2.4.0                                 |
|   \\  /    A nd           | Web:      www.OpenFOAM.org                      |
|    \\/     M anipulation  |                                                 |
\*---------------------------------------------------------------------------*/
FoamFile
{
    version     2.0;
    format      ascii;
    class       volVectorField;
    location    "0.12";
    object      U;
}
// * * * * * * * * * * * * * * * * * * * * * * * * * * * * * * * * * * * * * //

dimensions      [0 1 -1 0 0 0 0];

internalField   nonuniform List<vector> 
3600
(
(-0.00425226 0.000120377 0)
(-0.00698651 -0.000104093 0)
(-0.00169539 -0.000239287 0)
(0.00542407 -0.0002719 0)
(0.0138662 -0.000374132 0)
(0.0234212 -0.000339732 0)
(0.0320651 -0.000317003 0)
(0.0393327 -0.000237385 0)
(0.0459288 -7.37356e-05 0)
(0.0456534 0.000329505 0)
(0.0496048 0.000463376 0)
(0.035136 0.00110045 0)
(0.0366966 0.00115595 0)
(0.019407 0.0020125 0)
(0.00242277 0.00156851 0)
(0.00042458 0.00203569 0)
(-0.0214228 0.00121879 0)
(-0.0254302 0.00024601 0)
(-0.0337302 -0.00258659 0)
(-0.0320833 0.00116512 0)
(-0.0546751 0.00542353 0)
(-0.0645366 -0.000931206 0)
(-0.0439187 -0.00535667 0)
(-0.0364825 -0.00304752 0)
(-0.0193124 -0.00408776 0)
(-0.00963072 -0.00168008 0)
(-0.00815944 0.00532693 0)
(-0.0230488 -0.00115317 0)
(-0.00824535 -0.0203532 0)
(0.0139148 0.00449031 0)
(-0.00733321 0.000692212 0)
(-0.0140678 -0.000130705 0)
(-0.00928185 -0.000812176 0)
(-0.0011669 -0.00107406 0)
(0.00925252 -0.00155017 0)
(0.0218943 -0.00162938 0)
(0.034194 -0.00169613 0)
(0.0453992 -0.00161655 0)
(0.0566413 -0.00109721 0)
(0.0589584 -0.000291391 0)
(0.0710731 0.000747003 0)
(0.0521654 0.00247182 0)
(0.0658809 0.00154146 0)
(0.0477624 0.00730903 0)
(0.026035 0.00359597 0)
(0.035904 0.00534918 0)
(0.00593556 0.00833289 0)
(-0.00780627 0.00528535 0)
(-0.0302264 0.00466634 0)
(-0.0571458 0.00854687 0)
(-0.0731462 0.0108438 0)
(-0.0811669 -0.00304917 0)
(-0.0838252 -0.0123733 0)
(-0.0717414 -0.0139738 0)
(-0.0494758 -0.0194281 0)
(-0.0428356 -0.00822455 0)
(-0.0233649 0.00940451 0)
(-0.0192363 0.00144484 0)
(-0.0176533 -0.0288604 0)
(-0.00213768 0.00814817 0)
(-0.00810415 0.00151814 0)
(-0.0159252 -4.66244e-05 0)
(-0.011558 -0.00133112 0)
(-0.00364491 -0.0018525 0)
(0.00678846 -0.00272852 0)
(0.0196798 -0.00297816 0)
(0.0323684 -0.00318347 0)
(0.0441407 -0.00316604 0)
(0.0561007 -0.00229136 0)
(0.0590262 -0.00130523 0)
(0.0730173 0.000939999 0)
(0.0519034 0.00326805 0)
(0.0735279 0.00105764 0)
(0.0501413 0.0123583 0)
(0.0389914 0.00472977 0)
(0.0468851 0.00754717 0)
(0.0237365 0.0156882 0)
(0.00504419 0.013518 0)
(-0.0138071 0.0175616 0)
(-0.0473073 0.0176582 0)
(-0.0736896 0.0191531 0)
(-0.0900633 0.00699949 0)
(-0.105542 -0.0121639 0)
(-0.0991474 -0.0267921 0)
(-0.086245 -0.0264466 0)
(-0.0756447 -0.0212908 0)
(-0.0421339 -0.00992184 0)
(-0.0215736 -0.0128956 0)
(-0.0148439 -0.0375593 0)
(-0.00632111 -0.0161621 0)
(-0.00832265 0.00235684 0)
(-0.0164108 4.44039e-05 0)
(-0.0120924 -0.00185491 0)
(-0.00423198 -0.00264319 0)
(0.00619885 -0.00391984 0)
(0.0191476 -0.00434789 0)
(0.0318966 -0.0046996 0)
(0.0438225 -0.00475417 0)
(0.0559544 -0.00352363 0)
(0.0590161 -0.00240128 0)
(0.0738711 0.00136389 0)
(0.0489788 0.00340333 0)
(0.0810377 0.000976996 0)
(0.040107 0.0166192 0)
(0.054093 0.00474593 0)
(0.0506597 0.00900156 0)
(0.0344779 0.0228275 0)
(0.0119697 0.0192492 0)
(0.00728437 0.0285501 0)
(-0.0315148 0.033033 0)
(-0.0639439 0.0310008 0)
(-0.0855723 0.0172696 0)
(-0.101306 -0.00651747 0)
(-0.103196 -0.0325489 0)
(-0.0995178 -0.0421209 0)
(-0.0795245 -0.0434537 0)
(-0.0568943 -0.0373119 0)
(-0.0311328 -0.0315841 0)
(-0.0251459 -0.0399786 0)
(-0.00813303 -0.0265032 0)
(-0.00844353 0.00320793 0)
(-0.0166526 0.00014269 0)
(-0.0122902 -0.00237984 0)
(-0.00442052 -0.00343409 0)
(0.00602634 -0.00511313 0)
(0.0190299 -0.00571893 0)
(0.031816 -0.00622471 0)
(0.0438802 -0.00636224 0)
(0.0561488 -0.00476954 0)
(0.0594354 -0.00358132 0)
(0.0747421 0.00212873 0)
(0.0469277 0.00271848 0)
(0.0872769 0.00270414 0)
(0.0223815 0.019566 0)
(0.0709469 0.00250597 0)
(0.0471933 0.0112647 0)
(0.0379366 0.0297099 0)
(0.0189059 0.0231075 0)
(0.0237389 0.0344352 0)
(0.00281604 0.045854 0)
(-0.0357438 0.0429099 0)
(-0.0553262 0.0300843 0)
(-0.0700673 -0.00123388 0)
(-0.0753448 -0.0306801 0)
(-0.0815774 -0.0502756 0)
(-0.0706162 -0.0619327 0)
(-0.0622296 -0.0603317 0)
(-0.0418519 -0.0568725 0)
(-0.0262671 -0.0599797 0)
(-0.0075294 -0.0561538 0)
(-0.00856555 0.00406958 0)
(-0.0168909 0.000241819 0)
(-0.01246 -0.0029099 0)
(-0.00456703 -0.00422627 0)
(0.00589554 -0.00631186 0)
(0.0189557 -0.00709155 0)
(0.0317737 -0.00776172 0)
(0.0439975 -0.00799563 0)
(0.0564019 -0.0060478 0)
(0.0601496 -0.00480539 0)
(0.0751852 0.00302353 0)
(0.0475657 0.00165206 0)
(0.0899716 0.00655653 0)
(0.00776162 0.0207619 0)
(0.0827063 -0.000671769 0)
(0.0299274 0.0164757 0)
(0.0403838 0.0347526 0)
(0.0230874 0.0249887 0)
(0.0271967 0.0358377 0)
(0.0285355 0.0596846 0)
(0.00485795 0.0581119 0)
(-0.00715871 0.0376506 0)
(-0.0171495 0.0123608 0)
(-0.0227598 -0.0180819 0)
(-0.0296987 -0.0446032 0)
(-0.0231786 -0.0609403 0)
(-0.0275192 -0.0698754 0)
(-0.0192836 -0.076673 0)
(-0.0115903 -0.0802439 0)
(-0.00334879 -0.0795542 0)
(-0.00870885 0.00494448 0)
(-0.0171709 0.000342135 0)
(-0.0126555 -0.00344575 0)
(-0.00473294 -0.00501919 0)
(0.00574572 -0.00751517 0)
(0.0188692 -0.00846458 0)
(0.0317199 -0.00931151 0)
(0.044136 -0.00965744 0)
(0.0566845 -0.00737794 0)
(0.0611625 -0.00601914 0)
(0.0750252 0.00380503 0)
(0.0515234 0.000416455 0)
(0.0900294 0.0115285 0)
(0.00485663 0.0205388 0)
(0.0860211 -0.000809863 0)
(0.00598457 0.0211002 0)
(0.049031 0.0349709 0)
(0.0256793 0.0283779 0)
(0.0328386 0.0326598 0)
(0.0442181 0.0591233 0)
(0.0401781 0.0630593 0)
(0.0240076 0.0470514 0)
(0.0155452 0.0120638 0)
(0.0103404 -0.0191693 0)
(0.00182405 -0.0454048 0)
(0.0132576 -0.059725 0)
(0.0144742 -0.0616605 0)
(0.0121956 -0.0698653 0)
(0.00858365 -0.0775674 0)
(0.0039446 -0.0760922 0)
(-0.00887763 0.00583517 0)
(-0.017501 0.000443956 0)
(-0.012885 -0.00398845 0)
(-0.00492687 -0.00581376 0)
(0.00556925 -0.00872287 0)
(0.0187641 -0.00983778 0)
(0.0316496 -0.0108764 0)
(0.0442916 -0.0113531 0)
(0.0570092 -0.00878195 0)
(0.0623984 -0.00713542 0)
(0.0742288 0.00411293 0)
(0.0590018 -0.000608468 0)
(0.0840044 0.0165803 0)
(0.0214733 0.0203937 0)
(0.0795514 0.00154362 0)
(0.00159302 0.0254448 0)
(0.0436859 0.0315893 0)
(0.0260775 0.0289173 0)
(0.0188716 0.0291177 0)
(0.0489158 0.0541653 0)
(0.0610766 0.0685233 0)
(0.0593029 0.0539352 0)
(0.050731 0.0182159 0)
(0.0374708 -0.0102698 0)
(0.021722 -0.0487038 0)
(0.0248998 -0.0723826 0)
(0.0205537 -0.0680634 0)
(0.0184361 -0.0639354 0)
(0.0159685 -0.0642491 0)
(0.00674757 -0.0618665 0)
(-0.0090731 0.00674431 0)
(-0.0178834 0.000547529 0)
(-0.0131499 -0.00453908 0)
(-0.00514978 -0.00660978 0)
(0.00536554 -0.00993628 0)
(0.0186394 -0.0112103 0)
(0.0315607 -0.0124576 0)
(0.0444599 -0.0130905 0)
(0.0574106 -0.0102647 0)
(0.0635888 -0.00812889 0)
(0.073888 0.00360947 0)
(0.0659045 -0.000134309 0)
(0.0703325 0.0195493 0)
(0.0479596 0.0211005 0)
(0.0626129 0.00657836 0)
(0.0137727 0.0286598 0)
(0.0228625 0.0275532 0)
(0.0263447 0.0352987 0)
(0.0100114 0.0259891 0)
(0.040619 0.0365131 0)
(0.0742516 0.0584751 0)
(0.0881338 0.0534141 0)
(0.0710516 0.0329561 0)
(0.0612282 0.00262247 0)
(0.0537368 -0.0352661 0)
(0.0522181 -0.0576482 0)
(0.0348854 -0.0556379 0)
(0.0140899 -0.0616538 0)
(0.00498802 -0.0635199 0)
(0.00420923 -0.0549934 0)
(-0.00929597 0.00767463 0)
(-0.0183192 0.000653055 0)
(-0.0134505 -0.00509881 0)
(-0.0054017 -0.0074062 0)
(0.00513471 -0.011157 0)
(0.0184944 -0.0125808 0)
(0.0314506 -0.014056 0)
(0.0446384 -0.0148805 0)
(0.0578998 -0.0118072 0)
(0.0646234 -0.00916095 0)
(0.0751235 0.00281095 0)
(0.0674194 0.00162518 0)
(0.0645151 0.0196432 0)
(0.0624455 0.0234477 0)
(0.0495953 0.0102584 0)
(0.0270441 0.0358454 0)
(0.0138599 0.028077 0)
(0.0325617 0.0334854 0)
(0.0319671 0.02577 0)
(0.0275905 0.0206385 0)
(0.0631018 0.0413534 0)
(0.0929057 0.0555025 0)
(0.0889992 0.037175 0)
(0.0814871 0.00575423 0)
(0.0714313 -0.0377642 0)
(0.0529387 -0.0585204 0)
(0.0412199 -0.0393376 0)
(0.0207601 -0.0392852 0)
(0.00092814 -0.0563655 0)
(-5.4402e-05 -0.0572654 0)
(-0.00954692 0.00862894 0)
(-0.0188099 0.000760707 0)
(-0.0137867 -0.00566878 0)
(-0.00568257 -0.00820078 0)
(0.00487712 -0.0123882 0)
(0.0183288 -0.0139492 0)
(0.0313155 -0.0156732 0)
(0.0448266 -0.0167321 0)
(0.0584432 -0.0134057 0)
(0.0658082 -0.0103254 0)
(0.0767297 0.0022498 0)
(0.0671067 0.00343393 0)
(0.0705685 0.0188784 0)
(0.0632382 0.0263922 0)
(0.0478123 0.0157267 0)
(0.0298135 0.0402549 0)
(0.0318348 0.0281978 0)
(0.0345928 0.0272108 0)
(0.0465529 0.0281408 0)
(0.0338356 0.0210957 0)
(0.0533874 0.0214836 0)
(0.0898749 0.0414862 0)
(0.0923089 0.0416003 0)
(0.0854056 0.0220845 0)
(0.0930889 -0.0166709 0)
(0.0533617 -0.0339628 0)
(0.0142319 -0.0204305 0)
(0.0209791 -0.0227502 0)
(0.0128563 -0.0379873 0)
(0.00226611 -0.0536999 0)
(-0.0098267 0.00961013 0)
(-0.0193567 0.000870633 0)
(-0.0141587 -0.00625015 0)
(-0.00599245 -0.0089932 0)
(0.00459262 -0.0136311 0)
(0.0181418 -0.0153145 0)
(0.0311516 -0.0173128 0)
(0.0450221 -0.0186505 0)
(0.0590368 -0.0150811 0)
(0.0672609 -0.0115457 0)
(0.0775659 0.00181912 0)
(0.0696562 0.00411604 0)
(0.0781481 0.0195336 0)
(0.0539244 0.0306029 0)
(0.0539714 0.0187466 0)
(0.0318467 0.0396292 0)
(0.0462197 0.0278947 0)
(0.032299 0.0242415 0)
(0.0519097 0.029433 0)
(0.0519946 0.0146875 0)
(0.047103 0.00452829 0)
(0.0684824 0.0289974 0)
(0.080746 0.0366883 0)
(0.0753062 0.0106989 0)
(0.0708748 -0.0095359 0)
(0.0469431 0.00385337 0)
(0.0390829 -0.0064362 0)
(0.0384686 -0.0375877 0)
(0.0136983 -0.0350951 0)
(-0.000583995 -0.0315419 0)
(-0.0101361 0.0106211 0)
(-0.0199612 0.000982944 0)
(-0.0145664 -0.00684416 0)
(-0.00633128 -0.00978517 0)
(0.00428145 -0.0148841 0)
(0.0179324 -0.0166749 0)
(0.0309545 -0.0189788 0)
(0.0452198 -0.0206415 0)
(0.0597148 -0.0168451 0)
(0.0687408 -0.0127398 0)
(0.0781998 0.000970001 0)
(0.0754654 0.00481647 0)
(0.0765283 0.0214375 0)
(0.0524214 0.0337536 0)
(0.0575233 0.0225628 0)
(0.0231936 0.0391356 0)
(0.0610852 0.0306691 0)
(0.0275948 0.0221228 0)
(0.0459997 0.0241975 0)
(0.0505008 0.0255278 0)
(0.0382081 0.017503 0)
(0.0479974 0.0309423 0)
(0.0607158 0.0384696 0)
(0.0720678 0.0192052 0)
(0.0718654 -0.00138428 0)
(0.0618745 -0.0092317 0)
(0.0690607 -0.0136163 0)
(0.0222903 0.0146547 0)
(-0.0131118 0.00529409 0)
(-0.00145509 -0.0330754 0)
(-0.0104762 0.011665 0)
(-0.0206251 0.00109771 0)
(-0.0150101 -0.00745209 0)
(-0.00669884 -0.0105775 0)
(0.0039441 -0.0161474 0)
(0.0176997 -0.0180301 0)
(0.0307201 -0.020674 0)
(0.045417 -0.0227147 0)
(0.0604951 -0.0186787 0)
(0.0700048 -0.0140132 0)
(0.0803079 -0.000238518 0)
(0.079074 0.00582041 0)
(0.0736576 0.0241975 0)
(0.0540887 0.0360496 0)
(0.058931 0.0278786 0)
(0.026571 0.0349578 0)
(0.0577641 0.0281893 0)
(0.0296613 0.0298417 0)
(0.0359559 0.0179254 0)
(0.0538882 0.0124274 0)
(0.054721 -9.59608e-05 0)
(0.0585333 0.0131799 0)
(0.0684691 0.0256472 0)
(0.0648079 0.0074463 0)
(0.0245264 0.000272918 0)
(-0.00574816 0.0154047 0)
(-0.0181743 0.0333848 0)
(-0.0296694 0.0330066 0)
(-0.0114337 -0.0190699 0)
(-0.00371783 -0.0551911 0)
(-0.0108478 0.0127449 0)
(-0.0213502 0.00121497 0)
(-0.0154899 -0.00807531 0)
(-0.00709491 -0.0113705 0)
(0.00358093 -0.0174203 0)
(0.0174422 -0.0193792 0)
(0.0304429 -0.0224021 0)
(0.0456163 -0.0248775 0)
(0.0613328 -0.0205645 0)
(0.0712869 -0.0155016 0)
(0.0834844 -0.0015875 0)
(0.0801686 0.00775684 0)
(0.0714522 0.0260701 0)
(0.0662757 0.0388265 0)
(0.0542529 0.0290815 0)
(0.0348977 0.0380713 0)
(0.0418486 0.0333272 0)
(0.0324568 0.025901 0)
(0.0221477 0.0191168 0)
(0.0185573 0.0193974 0)
(0.00209543 0.0189656 0)
(0.00711941 0.0249849 0)
(0.0178414 0.0335777 0)
(0.0183633 0.0397212 0)
(-0.000964774 0.0416 0)
(-0.0122685 0.025092 0)
(-0.0163861 0.0164575 0)
(-0.0107273 0.00769481 0)
(0.00831321 -0.031163 0)
(0.000813004 -0.0528001 0)
(-0.0112522 0.0138641 0)
(-0.0221386 0.00133468 0)
(-0.016006 -0.00871524 0)
(-0.0075191 -0.012165 0)
(0.00319235 -0.0187032 0)
(0.0171585 -0.0207215 0)
(0.0301177 -0.0241676 0)
(0.0458217 -0.0271328 0)
(0.062164 -0.0225163 0)
(0.0730011 -0.0172925 0)
(0.0863583 -0.00239302 0)
(0.0783105 0.00928858 0)
(0.0833499 0.0261671 0)
(0.0738257 0.0417405 0)
(0.0472197 0.0387595 0)
(0.029099 0.0350838 0)
(0.0365278 0.0308796 0)
(0.0135181 0.0379532 0)
(0.0239668 0.0193085 0)
(0.0247685 0.0204939 0)
(0.029657 0.00580519 0)
(0.0302783 0.0132748 0)
(0.0374558 0.0232948 0)
(0.0598346 0.0268423 0)
(0.0601557 0.0349809 0)
(0.0785255 0.0275931 0)
(0.0687871 0.0256428 0)
(0.0526087 0.0174063 0)
(0.0532357 -0.0137768 0)
(0.0220884 -0.0257345 0)
(-0.0116906 0.0150259 0)
(-0.0229926 0.00145677 0)
(-0.0165586 -0.00937329 0)
(-0.00797107 -0.0129617 0)
(0.00277889 -0.0199962 0)
(0.0168466 -0.0220563 0)
(0.0297391 -0.0259735 0)
(0.0460312 -0.0294775 0)
(0.0629769 -0.0246059 0)
(0.0754318 -0.01904 0)
(0.0856852 -0.00317877 0)
(0.085165 0.00854931 0)
(0.0955525 0.0275195 0)
(0.0609184 0.0458418 0)
(0.0388493 0.0412327 0)
(0.00808892 0.0405545 0)
(-0.00459286 0.0381511 0)
(0.0247987 0.0299295 0)
(0.0374924 0.0155205 0)
(0.0418264 0.0101235 0)
(0.0540325 0.0121244 0)
(0.0248732 0.0132643 0)
(0.0233805 0.0119324 0)
(0.0412669 0.0191853 0)
(0.0570072 0.0242507 0)
(0.0823167 0.0267516 0)
(0.0774055 0.0359706 0)
(0.070032 0.0234683 0)
(0.0543279 0.00984957 0)
(0.0189097 0.0241411 0)
(-0.0121642 0.0162339 0)
(-0.0239146 0.0015811 0)
(-0.0171482 -0.010051 0)
(-0.00845035 -0.0137613 0)
(0.00234104 -0.0212972 0)
(0.0165045 -0.0233829 0)
(0.0293026 -0.0278223 0)
(0.046228 -0.031917 0)
(0.0639473 -0.0268392 0)
(0.0772973 -0.0205208 0)
(0.0845574 -0.00529218 0)
(0.0967138 0.00774987 0)
(0.0891336 0.0342418 0)
(0.0478029 0.0624888 0)
(0.0304244 0.0533939 0)
(0.00686996 0.0441464 0)
(0.0486779 0.0255115 0)
(0.0477481 0.0248834 0)
(0.0475953 0.0171875 0)
(0.0212556 0.0201739 0)
(0.0365221 0.0227051 0)
(0.0203444 0.0419738 0)
(-0.0269708 0.0114709 0)
(-0.0348195 -0.0024396 0)
(-0.00967603 0.00414797 0)
(0.0151462 0.0196604 0)
(0.0294001 0.0320806 0)
(0.0223472 0.0336757 0)
(0.0109327 0.0439528 0)
(0.00260665 0.0576417 0)
(-0.0126746 0.0174915 0)
(-0.0249071 0.00170743 0)
(-0.0177748 -0.0107498 0)
(-0.0089562 -0.0145645 0)
(0.00187939 -0.0226062 0)
(0.0161299 -0.0246998 0)
(0.0288026 -0.0297164 0)
(0.0464122 -0.0344686 0)
(0.0650957 -0.0290999 0)
(0.0772991 -0.0221059 0)
(0.0854761 -0.00789152 0)
(0.0981797 0.00828453 0)
(0.0811157 0.0325735 0)
(0.0533283 0.0519577 0)
(0.0417506 0.0528927 0)
(0.0129471 0.0369661 0)
(0.0373882 0.0261463 0)
(-0.0122678 0.0342245 0)
(-0.0274544 0.0167965 0)
(0.0327847 0.00568352 0)
(0.0289439 0.00302918 0)
(0.0745918 0.0433153 0)
(0.0322928 0.0390807 0)
(-0.0333474 0.00714368 0)
(-0.0613104 -0.0177462 0)
(-0.043785 -0.00376646 0)
(-0.0190122 0.0366739 0)
(-0.0262657 0.0408686 0)
(-0.0184232 0.045619 0)
(-0.00730604 0.0498379 0)
(-0.0132232 0.0188033 0)
(-0.0259731 0.00183555 0)
(-0.0184389 -0.0114715 0)
(-0.00948787 -0.0153725 0)
(0.00139467 -0.0239229 0)
(0.0157203 -0.0260052 0)
(0.0282302 -0.0316604 0)
(0.0466269 -0.0371409 0)
(0.065725 -0.0312761 0)
(0.0739463 -0.0238045 0)
(0.082412 -0.00990104 0)
(0.09151 0.0111356 0)
(0.0867179 0.0564717 0)
(0.029611 0.0872185 0)
(0.033531 0.0639326 0)
(-0.0141597 0.0361557 0)
(0.00559379 0.0338953 0)
(-0.0311703 0.0461054 0)
(0.0256743 0.00302426 0)
(-0.0212232 0.000215925 0)
(0.0579144 0.00384923 0)
(0.0415912 0.0529714 0)
(0.0870133 0.0768065 0)
(0.0320699 0.0587203 0)
(-0.0101325 0.0175712 0)
(-0.0349542 -0.0138819 0)
(-0.0382671 0.0210299 0)
(-0.0351672 0.0351825 0)
(-0.024865 0.02322 0)
(-0.00984331 0.0199967 0)
(-0.0138134 0.0201699 0)
(-0.0271157 0.00196432 0)
(-0.0191406 -0.0122179 0)
(-0.0100446 -0.0161865 0)
(0.000887753 -0.0252458 0)
(0.0152723 -0.0272979 0)
(0.0275701 -0.0336635 0)
(0.046847 -0.0399082 0)
(0.063044 -0.0330239 0)
(0.0635224 -0.024901 0)
(0.0760183 -0.0120815 0)
(0.0957186 0.00420065 0)
(0.11012 0.0292055 0)
(0.162451 0.0505256 0)
(0.0680683 0.0660219 0)
(-0.00818594 0.051567 0)
(0.0164084 0.0296862 0)
(0.0643485 0.0337186 0)
(-0.0162923 0.0100586 0)
(-0.0726939 -0.0173311 0)
(0.0655509 -0.0324903 0)
(0.0272295 0.0278398 0)
(0.0717245 0.0516629 0)
(0.0533294 0.0774228 0)
(0.0354947 0.0390162 0)
(0.00611183 0.0130501 0)
(-0.0271349 0.0256849 0)
(-0.0229043 0.0284389 0)
(-0.0139546 0.00990936 0)
(-0.00668629 0.000661195 0)
(-0.01443 0.0216079 0)
(-0.0283381 0.00209789 0)
(-0.0198803 -0.0129907 0)
(-0.0106254 -0.0170077 0)
(0.000359528 -0.0265726 0)
(0.0147779 -0.0285747 0)
(0.0267893 -0.0357242 0)
(0.0460401 -0.0424466 0)
(0.050055 -0.033206 0)
(0.0456132 -0.0258179 0)
(0.0905688 -0.0200226 0)
(0.0563364 0.00793273 0)
(-0.0798578 0.0580215 0)
(0.0151742 0.102087 0)
(0.0643473 0.0984745 0)
(0.0223159 0.0474888 0)
(-0.0773026 0.0134183 0)
(0.0849013 0.0542537 0)
(-0.0342007 0.05821 0)
(-0.00583683 -0.0384108 0)
(-0.0147208 -0.0356125 0)
(0.0286846 0.0561453 0)
(-0.009335 0.0448871 0)
(0.0504236 0.0847763 0)
(0.0425538 0.0506185 0)
(0.00962508 0.0387816 0)
(-0.00793202 0.0422434 0)
(-0.00379141 0.0284932 0)
(0.00231749 0.00735016 0)
(-0.000187416 -0.00305327 0)
(-0.0152136 0.0230781 0)
(-0.0296435 0.00218119 0)
(-0.0206585 -0.013791 0)
(-0.0112294 -0.0178379 0)
(-0.000189555 -0.0278997 0)
(0.0142068 -0.0298292 0)
(0.0257224 -0.0377218 0)
(0.0390933 -0.0431479 0)
(0.0173491 -0.0315752 0)
(0.0496396 -0.0335531 0)
(0.141282 -0.0150799 0)
(-0.136629 0.0434463 0)
(-0.343324 0.0253958 0)
(-0.126656 0.0348584 0)
(-0.0370969 0.0870451 0)
(-0.0496334 0.0787162 0)
(-0.111301 -0.0010491 0)
(-0.000196973 0.0361163 0)
(-0.0292508 0.0535622 0)
(-0.0366989 -0.0418908 0)
(-0.0016296 -0.0678536 0)
(0.0459629 0.044586 0)
(-0.0362028 0.0318793 0)
(0.00930515 0.0664882 0)
(0.000346098 0.065117 0)
(-0.0131952 0.053035 0)
(-0.00599319 0.0428613 0)
(0.00460048 0.0214065 0)
(0.0112228 0.00862228 0)
(0.00326084 0.00541547 0)
(-0.0152346 0.0247259 0)
(-0.0310419 0.00269341 0)
(-0.0214732 -0.0146262 0)
(-0.0118552 -0.0186793 0)
(-0.000764666 -0.0292243 0)
(0.0134212 -0.0310388 0)
(0.0232605 -0.0389243 0)
(0.0123639 -0.0395281 0)
(-0.0264854 -0.0340872 0)
(0.202233 -0.0568369 0)
(0.260706 0.0213279 0)
(-0.188642 0.0885906 0)
(-0.25326 0.0566743 0)
(-0.216611 0.0179173 0)
(-0.101684 0.0728641 0)
(-0.0476639 0.0733387 0)
(-0.10442 -0.000664749 0)
(-0.0881691 0.0182114 0)
(0.00617934 0.0640563 0)
(0.0339568 -0.0447934 0)
(0.0109483 -0.0735443 0)
(0.0392653 0.0774617 0)
(-0.0727757 0.0600177 0)
(-0.0593593 0.0596897 0)
(-0.0399785 0.0661098 0)
(-0.0395729 0.0452281 0)
(-0.0211253 0.0259153 0)
(-0.00253329 0.00709573 0)
(0.00655049 0.0108724 0)
(0.00081129 0.0156383 0)
(-0.0196264 0.0261397 0)
(-0.0324892 0.00145981 0)
(-0.0223497 -0.0154709 0)
(-0.0125024 -0.0195317 0)
(-0.00141052 -0.0305258 0)
(0.0118232 -0.0320921 0)
(0.0144601 -0.0373462 0)
(-0.0363541 -0.037129 0)
(0.0416106 -0.0672214 0)
(0.476726 -0.0614434 0)
(-0.383971 0.122653 0)
(-0.420201 0.112833 0)
(-0.244042 0.0353024 0)
(-0.224912 -0.0134935 0)
(-0.132002 0.042017 0)
(-0.0541379 0.0799674 0)
(-0.113815 0.00854888 0)
(-0.128913 0.000608841 0)
(-0.0402475 0.0264925 0)
(0.0565318 -0.0467309 0)
(-0.00766932 -0.0600246 0)
(0.0303991 0.0950696 0)
(-0.0871563 0.0816784 0)
(-0.0820199 0.0491589 0)
(-0.0681286 0.0520748 0)
(-0.0611206 0.0309699 0)
(-0.0316509 0.00154349 0)
(-0.0190808 -0.00774699 0)
(-0.00550603 0.0074205 0)
(-0.00189551 0.0184252 0)
(-0.00559946 0.0284266 0)
(-0.0342405 0.00452905 0)
(-0.0231717 -0.0164367 0)
(-0.0131794 -0.020392 0)
(-0.00239579 -0.0317289 0)
(0.00713442 -0.0323262 0)
(-0.0155718 -0.0319972 0)
(-0.0665433 -0.0448129 0)
(0.36443 -0.158091 0)
(1.30023 -0.0362769 0)
(0.510779 0.205573 0)
(-0.548515 0.0703608 0)
(-0.307905 -0.00804124 0)
(-0.258673 -0.0193582 0)
(-0.16796 0.0355967 0)
(-0.0667172 0.062544 0)
(-0.13978 0.0209617 0)
(-0.145911 -0.0102159 0)
(-0.090655 -0.0202055 0)
(-0.020473 -0.0716274 0)
(-0.0701518 -0.0652716 0)
(0.00676867 0.119058 0)
(-0.0757427 0.0972463 0)
(-0.0754894 0.0532312 0)
(-0.0828429 0.0471621 0)
(-0.063904 0.011549 0)
(-0.0353863 -0.0172204 0)
(-0.0316053 -0.0204952 0)
(-0.0157441 -0.00522135 0)
(-0.00523278 0.00841309 0)
(-0.0533926 0.0290472 0)
(-0.0346846 -1.3881e-05 0)
(-0.0243204 -0.0171943 0)
(-0.0139466 -0.0212281 0)
(-0.00498201 -0.0326486 0)
(-0.00668803 -0.030211 0)
(-0.0557084 -0.0339286 0)
(0.230684 -0.088493 0)
(0.232921 -0.236424 0)
(0.165641 0.0311442 0)
(0.522219 0.354816 0)
(-0.486578 0.21827 0)
(-0.347116 -0.0906748 0)
(-0.299134 -0.0614987 0)
(-0.21231 -0.00610969 0)
(-0.124352 0.0671554 0)
(-0.12285 0.0295962 0)
(-0.162565 -0.0108849 0)
(-0.107904 -0.0326724 0)
(-0.092485 -0.0802956 0)
(-0.129425 -0.0684526 0)
(-0.0167539 0.122125 0)
(-0.0778312 0.118459 0)
(-0.08536 0.0660962 0)
(-0.0715184 0.0432043 0)
(-0.054004 -0.00627254 0)
(-0.0362611 -0.0283018 0)
(-0.0323075 -0.0298328 0)
(-0.0205334 -0.0199456 0)
(-0.00744942 -0.00837871 0)
(0.0509289 0.0329835 0)
(-0.0381417 0.00512205 0)
(-0.0251007 -0.018535 0)
(-0.0152671 -0.0219132 0)
(-0.0137936 -0.0325958 0)
(-0.0396613 -0.0257392 0)
(-0.0612888 -0.0525763 0)
(0.190492 -0.0579001 0)
(0.823551 -0.187958 0)
(0.0632603 -0.0181648 0)
(0.543876 0.405599 0)
(-0.346982 0.366345 0)
(-0.366758 0.0141841 0)
(-0.395364 0.000706612 0)
(-0.239072 -0.00121053 0)
(-0.159956 0.0377232 0)
(-0.127729 0.0339249 0)
(-0.146726 -0.00917663 0)
(-0.125085 -0.0407675 0)
(-0.124673 -0.0786998 0)
(-0.170747 -0.0723157 0)
(-0.0691416 0.11408 0)
(-0.102318 0.127363 0)
(-0.0941314 0.047695 0)
(-0.051686 0.0352407 0)
(-0.0400976 -0.0226518 0)
(-0.0349829 -0.0331906 0)
(-0.0251221 -0.0393187 0)
(-0.0186903 -0.0330858 0)
(-0.00562126 -0.0265351 0)
(-0.114008 0.0313447 0)
(-0.0245179 0.00203904 0)
(-0.0276808 -0.0186639 0)
(-0.0197042 -0.0219885 0)
(-0.0410615 -0.0297214 0)
(-0.0948839 -0.0283221 0)
(0.3504 -0.0807506 0)
(0.428296 -0.183751 0)
(0.0625185 -0.253991 0)
(-0.0700199 0.013753 0)
(0.554041 0.419021 0)
(-0.234309 0.393509 0)
(-0.326373 -0.086824 0)
(-1.097 -0.0544288 0)
(-0.241892 -0.0716502 0)
(-0.197121 0.0117617 0)
(-0.152637 0.0210937 0)
(-0.128901 -0.00654088 0)
(-0.119365 -0.0361463 0)
(-0.170465 -0.0777209 0)
(-0.211777 -0.0796599 0)
(-0.127845 0.0943094 0)
(-0.102402 0.13102 0)
(-0.11113 0.0210551 0)
(-0.0196695 0.0197769 0)
(-0.0383066 -0.0264613 0)
(-0.0187868 -0.0388517 0)
(-0.0143723 -0.0463234 0)
(-0.0115149 -0.0432158 0)
(-0.00288898 -0.041856 0)
(0.0361916 0.0375442 0)
(-0.0358517 0.00172859 0)
(-0.0328608 -0.0192183 0)
(-0.0396184 -0.0195678 0)
(-0.113859 -0.0250764 0)
(-0.0196634 -0.0647618 0)
(0.497641 -0.0977078 0)
(0.665393 -0.0889205 0)
(0.255107 -0.111397 0)
(-0.135579 -0.0459346 0)
(0.554991 0.411703 0)
(-0.0447781 0.477361 0)
(-0.274952 0.0818886 0)
(-0.506116 0.0582421 0)
(-0.300177 -0.272424 0)
(-0.199072 0.00901878 0)
(-0.166218 0.00671765 0)
(-0.161846 -0.0187244 0)
(-0.149678 -0.0165205 0)
(-0.188083 -0.0481518 0)
(-0.235397 -0.0755987 0)
(-0.168488 0.0562757 0)
(-0.102386 0.117336 0)
(-0.152814 -0.0329323 0)
(0.0219477 -0.00801081 0)
(-0.0341815 -0.0246643 0)
(-0.00129054 -0.0542179 0)
(-0.00434071 -0.0470973 0)
(-0.00164197 -0.046942 0)
(0.00169877 -0.0505675 0)
(-0.0161173 0.00493813 0)
(0.00521584 -0.0213553 0)
(0.0222333 -0.00197077 0)
(0.00680364 0.00500538 0)
(0.00984898 -0.00219104 0)
(0.019694 -0.0042046 0)
(0.0373966 -0.00290911 0)
(0.0447072 -0.00519579 0)
(0.0647662 -0.000988774 0)
(0.0552503 0.00536875 0)
(0.0330996 0.00117878 0)
(0.0344717 -0.00246493 0)
(0.0259643 0.000280705 0)
(0.0216137 0.00128036 0)
(-0.000448764 0.00207014 0)
(-0.00275823 0.0016007 0)
(-0.0195567 0.00199325 0)
(-0.0365043 0.00112637 0)
(-0.0350333 0.001128 0)
(-0.0498618 0.000491556 0)
(-0.0463154 0.000338264 0)
(-0.046395 -9.08248e-05 0)
(-0.0396328 -0.000247168 0)
(-0.0322151 -0.00032389 0)
(-0.0234891 -0.000342668 0)
(-0.0138878 -0.000375765 0)
(-0.00542328 -0.00027225 0)
(0.00169356 -0.000239199 0)
(0.0069739 -0.000103839 0)
(0.00424694 0.000120224 0)
(0.00223841 0.0100441 0)
(0.0176816 -0.0297839 0)
(0.0191569 0.000142963 0)
(0.022752 0.00885303 0)
(0.0433031 -0.00922323 0)
(0.0500086 -0.0201508 0)
(0.0722508 -0.0140347 0)
(0.0849124 -0.0120566 0)
(0.0818662 -0.00289153 0)
(0.074369 0.0106633 0)
(0.0581156 0.00836519 0)
(0.0312733 0.00484395 0)
(0.00821486 0.00544183 0)
(-0.00584473 0.00848632 0)
(-0.0360634 0.00546953 0)
(-0.0264638 0.00360146 0)
(-0.0477119 0.00723094 0)
(-0.0656096 0.0014556 0)
(-0.0520021 0.00256949 0)
(-0.0712684 0.000851532 0)
(-0.0597075 -0.000254008 0)
(-0.057117 -0.00115453 0)
(-0.0457243 -0.00164586 0)
(-0.0343562 -0.00171857 0)
(-0.0219732 -0.00163866 0)
(-0.00928492 -0.00155518 0)
(0.00115757 -0.00107529 0)
(0.00926567 -0.000811374 0)
(0.0140404 -0.000130386 0)
(0.00732414 0.000691041 0)
(0.0049426 -0.0148136 0)
(0.014343 -0.0388759 0)
(0.021363 -0.0137661 0)
(0.0422408 -0.0105081 0)
(0.0761375 -0.0223733 0)
(0.087038 -0.0273715 0)
(0.0998503 -0.0268677 0)
(0.10642 -0.0121456 0)
(0.091749 0.00681852 0)
(0.0751155 0.0188905 0)
(0.0480415 0.0177066 0)
(0.0150459 0.0178024 0)
(-0.00455189 0.0139128 0)
(-0.0238666 0.0159497 0)
(-0.046919 0.00772767 0)
(-0.0395215 0.00472831 0)
(-0.0497709 0.0122029 0)
(-0.0732838 0.000943827 0)
(-0.0517141 0.00343422 0)
(-0.0732268 0.00112714 0)
(-0.0597975 -0.00123729 0)
(-0.0565795 -0.00239282 0)
(-0.0444613 -0.00321374 0)
(-0.0325291 -0.00322111 0)
(-0.0197588 -0.00299317 0)
(-0.00682313 -0.00273711 0)
(0.00363297 -0.00185425 0)
(0.011539 -0.00132945 0)
(0.0158948 -4.63987e-05 0)
(0.00809442 0.00151558 0)
(0.00868289 -0.0256631 0)
(0.026551 -0.0420189 0)
(0.0313126 -0.0334137 0)
(0.0574914 -0.0384229 0)
(0.0798139 -0.0447355 0)
(0.0995638 -0.0433604 0)
(0.103738 -0.0326674 0)
(0.102343 -0.00670239 0)
(0.0869916 0.0173133 0)
(0.0654897 0.0311088 0)
(0.0326995 0.0329443 0)
(-0.00584938 0.0288576 0)
(-0.0118429 0.0199167 0)
(-0.0343709 0.0231721 0)
(-0.0509159 0.00922866 0)
(-0.0546367 0.00466537 0)
(-0.039443 0.0163803 0)
(-0.0807462 0.000861815 0)
(-0.0487929 0.00364323 0)
(-0.0740789 0.00163809 0)
(-0.0598163 -0.00230268 0)
(-0.0564442 -0.00367318 0)
(-0.0441375 -0.00481985 0)
(-0.0320553 -0.00475252 0)
(-0.0192248 -0.00436834 0)
(-0.00623304 -0.00393228 0)
(0.00422016 -0.00264518 0)
(0.0120732 -0.00185256 0)
(0.0163797 4.45589e-05 0)
(0.00831269 0.00235287 0)
(0.00830835 -0.0560693 0)
(0.0269666 -0.060657 0)
(0.0419252 -0.0576776 0)
(0.0622303 -0.0611631 0)
(0.0703177 -0.0628922 0)
(0.0809515 -0.0514334 0)
(0.075574 -0.0313821 0)
(0.0712375 -0.0020712 0)
(0.0568502 0.0294283 0)
(0.0383975 0.0431383 0)
(-0.000966294 0.0458734 0)
(-0.0226497 0.0351086 0)
(-0.0185005 0.0239239 0)
(-0.037886 0.0301444 0)
(-0.0471673 0.0116364 0)
(-0.0717923 0.00225922 0)
(-0.0214968 0.0192178 0)
(-0.0868437 0.00261885 0)
(-0.0467541 0.00304506 0)
(-0.0749524 0.00248797 0)
(-0.0602758 -0.00344946 0)
(-0.0566554 -0.00497278 0)
(-0.0441873 -0.00644532 0)
(-0.0319719 -0.00629294 0)
(-0.0191044 -0.00574455 0)
(-0.00605952 -0.00512927 0)
(0.00440941 -0.0034365 0)
(0.0122712 -0.00237682 0)
(0.0166212 0.000142778 0)
(0.00843338 0.00320254 0)
(0.00449647 -0.0796076 0)
(0.0124706 -0.0805657 0)
(0.0198622 -0.0773977 0)
(0.0275504 -0.0704682 0)
(0.0228659 -0.0616935 0)
(0.0294627 -0.0459213 0)
(0.0231545 -0.0191497 0)
(0.0176609 0.0115876 0)
(0.00865567 0.0370988 0)
(-0.00275402 0.0577648 0)
(-0.0267068 0.060116 0)
(-0.0263379 0.0368381 0)
(-0.0224714 0.0260559 0)
(-0.0404372 0.0352419 0)
(-0.0298716 0.0169523 0)
(-0.0836942 -0.00088308 0)
(-0.00720846 0.0201979 0)
(-0.0893504 0.00649741 0)
(-0.0473897 0.00208565 0)
(-0.0754107 0.00347062 0)
(-0.0610397 -0.00463782 0)
(-0.0569303 -0.0063122 0)
(-0.0442937 -0.00809522 0)
(-0.0319259 -0.00784542 0)
(-0.0190271 -0.00712217 0)
(-0.0059275 -0.00633149 0)
(0.00455691 -0.00422906 0)
(0.012441 -0.00290602 0)
(0.0168592 0.000241865 0)
(0.00855519 0.00406275 0)
(-0.000793492 -0.0759071 0)
(-0.0063856 -0.0774526 0)
(-0.011053 -0.0697683 0)
(-0.0144005 -0.0616506 0)
(-0.0130405 -0.0604234 0)
(-0.00169482 -0.04687 0)
(-0.00942851 -0.0202981 0)
(-0.0148538 0.0101183 0)
(-0.0226335 0.0458927 0)
(-0.0382783 0.0631772 0)
(-0.0428421 0.0597207 0)
(-0.0325366 0.033743 0)
(-0.0252941 0.0294877 0)
(-0.0489457 0.0356396 0)
(-0.00641577 0.0217396 0)
(-0.0872833 -0.00115701 0)
(-0.0051665 0.0198055 0)
(-0.0891432 0.0113927 0)
(-0.0513144 0.00101452 0)
(-0.0752806 0.00434526 0)
(-0.0621118 -0.00581401 0)
(-0.0572395 -0.00771269 0)
(-0.0444175 -0.00977258 0)
(-0.0318678 -0.00941078 0)
(-0.0189368 -0.00849976 0)
(-0.00577625 -0.00753797 0)
(0.00472397 -0.00502285 0)
(0.0126366 -0.00344099 0)
(0.0171388 0.000342159 0)
(0.00869823 0.00493618 0)
(-0.00320777 -0.0609562 0)
(-0.0137229 -0.062369 0)
(-0.0168946 -0.0625933 0)
(-0.0198061 -0.0677166 0)
(-0.0239032 -0.0733292 0)
(-0.021152 -0.0506313 0)
(-0.0361394 -0.011418 0)
(-0.048905 0.0174437 0)
(-0.0584831 0.0524505 0)
(-0.0596567 0.0682728 0)
(-0.047949 0.0552103 0)
(-0.0181783 0.0305928 0)
(-0.0258505 0.0300983 0)
(-0.0441384 0.0322519 0)
(-0.00228279 0.0263792 0)
(-0.0809118 0.00121871 0)
(-0.0229233 0.0193319 0)
(-0.0824383 0.0162896 0)
(-0.0587342 0.000149081 0)
(-0.0745332 0.00475033 0)
(-0.0634177 -0.00689164 0)
(-0.0575965 -0.00919809 0)
(-0.0445543 -0.0114825 0)
(-0.0317926 -0.0109913 0)
(-0.018827 -0.00987671 0)
(-0.00559813 -0.0087487 0)
(0.00491924 -0.00581823 0)
(0.0128663 -0.00398283 0)
(0.0174683 0.000443984 0)
(0.00886671 0.00582539 0)
(-0.00192071 -0.0535768 0)
(-0.003229 -0.0608278 0)
(-0.0118882 -0.0597394 0)
(-0.0340951 -0.0550037 0)
(-0.050923 -0.0584213 0)
(-0.0528047 -0.0373254 0)
(-0.0605459 -0.000303349 0)
(-0.0693721 0.0305666 0)
(-0.0865036 0.0521345 0)
(-0.072701 0.0588077 0)
(-0.0397471 0.0374335 0)
(-0.00831031 0.0271255 0)
(-0.0247886 0.0368087 0)