/*--------------------------------*- C++ -*----------------------------------*\
| =========                 |                                                 |
| \\      /  F ield         | OpenFOAM: The Open Source CFD Toolbox           |
|  \\    /   O peration     | Version:  2.4.0                                 |
|   \\  /    A nd           | Web:      www.OpenFOAM.org                      |
|    \\/     M anipulation  |                                                 |
\*---------------------------------------------------------------------------*/
FoamFile
{
    version     2.0;
    format      ascii;
    class       volScalarField;
    location    "0.093";
    object      p_rgh;
}
// * * * * * * * * * * * * * * * * * * * * * * * * * * * * * * * * * * * * * //

dimensions      [1 -1 -2 0 0 0 0];

internalField   nonuniform List<scalar> 
3600
(
105.509
106.748
107.354
106.777
105.201
102.653
99.3688
95.6439
91.8771
88.2383
85.1435
82.142
80.804
78.9808
79.5748
80.2214
81.4394
83.6362
85.4568
87.88
86.4659
83.1483
84.625
86.8662
86.8759
86.1143
84.9854
85.1543
86.4651
87.3681
105.508
106.752
107.36
106.785
105.209
102.66
99.3726
95.6415
91.8698
88.2245
85.1216
82.1108
80.7508
78.9223
79.4418
80.1178
81.3302
83.5306
85.4507
87.9586
86.1154
82.2457
82.8331
84.9768
85.4265
85.1849
84.397
84.3942
85.6838
86.5286
105.502
106.756
107.372
106.801
105.227
102.675
99.3835
95.6404
91.8586
88.201
85.0788
82.0548
80.6564
78.8082
79.181
79.8865
81.1006
83.281
85.1346
87.1705
85.7151
80.2761
80.7241
83.193
84.1549
84.4612
84.187
84.7342
85.7243
86.8365
105.49
106.762
107.391
106.825
105.255
102.701
99.4025
95.641
91.8439
88.1677
85.0149
81.9716
80.5282
78.6587
78.8517
79.5361
80.7677
82.906
84.5053
86.3385
84.2763
78.7433
78.8331
81.8424
83.3709
84.0348
84.4714
85.1237
85.7634
88.3212
105.473
106.77
107.417
106.859
105.293
102.737
99.4296
95.643
91.8256
88.1245
84.9292
81.8588
80.3636
78.4859
78.5762
79.0775
80.3526
82.4542
83.8583
85.2961
83.4592
77.7015
77.0177
80.8375
83.0311
84.3227
85.1752
85.947
86.287
86.7557
105.451
106.779
107.449
106.902
105.342
102.783
99.4652
95.6464
91.8042
88.0715
84.8217
81.7139
80.1495
78.2263
78.3724
78.5631
79.862
81.9295
83.3265
84.277
82.7909
77.3849
76.635
80.8427
83.3405
84.8036
85.983
87.1373
87.7364
88.0642
105.424
106.79
107.488
106.953
105.402
102.84
99.5096
95.6508
91.7798
88.0089
84.6922
81.5376
79.8841
77.8476
78.1208
78.002
79.2789
81.355
82.6746
83.7203
82.2
78.0649
77.4642
81.5216
84.3349
85.6088
86.7168
88.0379
88.9514
89.2797
105.391
106.802
107.533
107.014
105.473
102.907
99.5631
95.6558
91.7531
87.9369
84.5411
81.3366
79.575
77.3872
77.6682
77.3362
78.5454
80.813
82.0313
83.2035
82.2847
79.2514
79.1833
82.7542
85.3256
86.3954
87.2074
88.7922
90.1406
90.3262
105.352
106.815
107.585
107.084
105.555
102.984
99.6263
95.6609
91.7248
87.8558
84.3689
81.1157
79.2267
76.9459
76.976
76.5636
77.6834
80.3186
81.5741
82.89
82.8916
81.4496
81.8447
84.339
86.5081
87.4797
88.4614
90.1877
91.3167
91.5078
105.307
106.83
107.644
107.163
105.647
103.073
99.6997
95.6654
91.6956
87.7657
84.1761
80.8701
78.8318
76.4968
76.1344
75.866
76.8736
79.7089
81.2114
82.6531
83.4635
83.6155
84.3968
85.9362
87.4473
88.7104
89.999
91.2146
92.2391
92.7373
105.257
106.846
107.709
107.251
105.751
103.171
99.784
95.6687
91.6665
87.6669
83.9622
80.5956
78.3906
75.9618
75.1558
75.1134
76.1468
78.9449
80.8544
82.5521
83.8883
84.8401
85.7999
87.1916
88.4963
89.8217
91.5779
92.831
93.2339
93.2134
105.199
106.863
107.781
107.348
105.866
103.281
99.8802
95.6698
91.6387
87.5599
83.7261
80.2937
77.914
75.3345
74.079
74.0751
75.2201
78.167
80.5804
82.4845
84.1927
85.5099
86.5852
87.783
88.5446
89.9427
92.5699
94.3057
94.5982
94.6421
105.135
106.882
107.861
107.454
105.993
103.401
99.9893
95.6673
91.6137
87.4452
83.4671
79.9694
77.4022
74.6356
72.8952
72.7456
74.1396
77.4463
80.2399
82.5303
84.4517
85.7902
87.054
88.7647
90.0651
90.5305
91.4684
93.0148
93.6317
93.9536
105.064
106.902
107.947
107.57
106.132
103.532
100.113
95.6595
91.5932
87.323
83.1847
79.6235
76.8602
73.8737
71.6042
71.2592
72.8278
76.7984
79.9513
82.4758
84.8069
86.7537
87.8146
88.9312
90.2798
91.2183
92.0051
93.2925
94.9281
95.7277
104.985
106.923
108.04
107.695
106.282
103.674
100.252
95.6446
91.5794
87.1936
82.8773
79.2581
76.2876
73.0887
70.2308
69.5968
71.3975
75.91
79.6311
82.7726
85.4535
87.45
88.5636
88.5213
89.4226
90.8194
92.7231
94.9224
95.9804
95.9617
104.898
106.946
108.141
107.83
106.445
103.826
100.41
95.6201
91.5752
87.0566
82.5433
78.8701
75.7329
72.2556
68.7094
67.5224
69.7317
74.5107
77.5646
81.7259
85.7815
89.1881
90.6831
88.3285
88.7749
90.5096
92.3289
94.4464
95.3052
95.5248
104.803
106.969
108.249
107.974
106.62
103.988
100.588
95.5829
91.5838
86.9117
82.1789
78.4679
75.217
71.325
66.8389
64.7636
67.7997
73.8035
77.79
81.8346
86.0544
89.6153
91.2387
88.8897
89.7751
91.532
92.3862
93.2515
94.0519
94.6266
104.699
106.994
108.365
108.128
106.809
104.16
100.789
95.5291
91.6094
86.7582
81.7815
78.0668
74.7343
70.2451
64.8127
61.3365
66.0533
73.078
76.8253
82.1516
86.0121
88.8096
89.2597
88.6969
90.679
93.1136
93.0823
92.5926
93.5181
94.4613
104.585
107.02
108.488
108.292
107.01
104.342
101.016
95.4537
91.657
86.5949
81.3496
77.6701
74.3346
69.1413
62.5505
57.4801
64.0558
72.8284
76.7774
82.2968
86.5839
88.1458
88.6505
89.3091
91.3927
93.3538
93.6735
93.7195
94.5262
95.4397
104.462
107.047
108.619
108.465
107.226
104.533
101.274
95.3511
91.7324
86.4201
80.8786
77.2595
74.0824
68.0351
58.81
46.24
61.6938
69.8836
74.7968
83.9639
88.4654
91.0019
90.9909
89.326
90.9204
93.6207
94.5763
94.9571
95.6695
96.4082
104.328
107.074
108.758
108.648
107.455
104.732
101.565
95.2164
91.8408
86.2319
80.3568
76.8427
73.9979
64.7643
27.6135
12.7341
51.8194
70.8223
71.7843
86.0121
89.2099
89.0008
88.8016
88.4643
90.2532
93.8455
95.2257
95.7393
96.3482
96.9547
104.183
107.103
108.906
108.84
107.7
104.939
101.894
95.0476
91.9851
86.0288
79.7791
76.4169
72.9678
23.4108
1.94886
9.67594
52.762
70.3948
74.3491
87.0731
89.1682
86.0604
87.5832
87.5188
90.508
94.6325
96.261
96.6527
97.0815
97.4967
104.025
107.132
109.062
109.043
107.96
105.153
102.265
94.845
92.1674
85.8242
79.1536
74.4352
31.2028
0.391989
1.48348
2.92784
27.9328
62.833
74.5539
88.0513
92.3483
92.3481
89.5868
86.0944
91.0602
96.0042
97.6678
98.0749
98.4058
98.5548
103.855
107.163
109.227
109.255
108.236
105.372
102.677
94.6076
92.3951
85.6541
78.2613
30.7578
0.314735
0.414092
1.61553
1.13838
27.188
46.5008
74.3645
87.3516
88.4504
88.5905
85.8102
84.432
91.442
97.3499
99.574
100.003
100.103
100.104
103.671
107.194
109.401
109.476
108.529
105.595
103.133
94.3351
92.6603
85.4511
44.0065
0.210476
0.256886
0.385322
1.96671
1.24018
-2.97972
17.758
71.5714
91.4364
90.0314
89.0312
82.3296
83.3067
89.1041
97.2295
100.921
101.476
101.641
101.739
103.473
107.227
109.584
109.708
108.84
105.823
103.631
94.0475
92.854
77.2939
2.29523
0.207121
0.233967
0.338781
1.99018
-0.173352
-0.640997
4.98654
51.6075
88.4699
89.9975
87.0782
78.0702
79.2028
86.3937
97.2394
101.598
102.712
103.176
103.444
103.259
107.254
109.777
109.949
109.17
106.054
104.169
93.7334
92.1853
23.0971
0.0707835
0.164858
0.200104
0.287587
0.218652
-0.436875
-0.430592
-0.360323
12.1029
71.5473
89.3412
84.8216
78.2616
78.6281
87.336
98.5841
102.98
104.587
105.203
105.616
103.027
107.312
109.979
110.2
109.52
106.288
104.747
93.2494
81.579
1.81653
-0.0800401
0.126554
0.173069
0.229456
0.0537362
-0.273667
-0.319505
-0.245067
-0.0749993
28.7711
87.0497
84.3082
80.3291
81.3221
91.4043
100.846
105.713
107.365
107.953
108.315
102.789
107.277
110.196
110.458
109.893
106.526
105.361
92.2838
17.1658
-0.031103
-0.0636913
0.0973286
0.15129
0.17375
0.0463018
-0.193824
-0.158167
-0.0139129
0.00471913
5.30065
61.1268
86.5466
86.8836
88.0162
96.3377
104.628
109.59
110.693
111.205
111.503
102.447
107.439
110.407
110.73
110.289
106.762
106.144
59.4598
-0.157502
-0.0126145
-0.0421171
0.0801612
0.131644
0.131925
0.0588953
-0.123442
-0.121165
-0.0693698
-0.0524131
-0.402508
21.5948
90.5782
94.3389
95.524
102.65
110.179
113.802
114.369
114.872
115.14
87.3519
86.3728
85.0325
84.8718
86.0222
86.8241
86.9281
84.8216
83.3522
86.6905
88.1922
85.8227
84.0817
81.9704
80.8033
80.1646
79.5668
81.2815
82.5655
85.4159
88.4279
91.9862
95.7135
99.4131
102.679
105.208
106.77
107.338
106.734
105.5
86.5477
85.5117
84.2293
84.2503
85.1131
85.4217
85.0726
83.0146
82.4576
86.3627
88.2463
85.8199
83.9783
81.8642
80.7038
80.0353
79.5101
81.2302
82.5341
85.3933
88.4132
91.9781
95.7106
99.4167
102.685
105.216
106.778
107.344
106.737
105.5
86.9864
85.2688
84.469
84.0375
84.397
84.1718
83.2987
80.9536
80.501
85.9204
87.452
85.5065
83.7309
81.6414
80.4799
79.7839
79.3996
81.1395
82.4778
85.349
88.388
91.9655
95.7088
99.4275
102.701
105.234
106.794
107.356
106.742
105.493
88.3445
85.5619
84.9704
84.3753
84.013
83.4182
81.9628
79.0532
78.9755
84.5389
86.6502
84.8791
83.3586
81.3186
80.1423
79.4692
79.2542
81.0162
82.3937
85.2828
88.352
91.9486
95.7081
99.4461
102.726
105.262
106.819
107.375
106.748
105.482
86.7903
86.2089
85.8735
85.1368
84.3231
83.0876
81.0039
77.2682
77.9472
83.713
85.6401
84.2342
82.9103
80.9179
79.7026
79.2145
79.0816
80.8574
82.2794
85.1942
88.305
91.9273
95.7086
99.4729
102.762
105.3
106.852
107.401
106.755
105.465
88.053
87.6955
87.1061
85.972
84.8046
83.3887
81.003
76.9013
77.6481
83.0499
84.601
83.7058
82.3869
80.4464
79.2127
79.0335
78.8219
80.6504
82.1321
85.083
88.2473
91.9021
95.71
99.5081
102.808
105.349
106.895
107.433
106.764
105.443
89.2786
88.9452
88.037
86.7352
85.6451
84.3929
81.6833
77.7207
78.3433
82.486
84.052
83.051
81.8112
79.8878
78.6817
78.8028
78.4405
80.3948
81.9525
84.949
88.1789
91.8731
95.7121
99.552
102.865
105.409
106.946
107.471
106.775
105.416
90.3252
90.1406
88.8276
87.3152
86.4761
85.3855
82.8996
79.414
79.5211
82.5689
83.5421
82.4073
81.267
79.1859
78.0531
78.3803
77.9765
80.1004
81.7471
84.7928
88.1001
91.8411
95.7143
99.605
102.932
105.479
107.006
107.516
106.787
105.383
91.5055
91.3071
90.2018
88.5583
87.6196
86.6473
84.4926
82.0588
81.7095
83.1669
83.241
81.9533
80.7676
78.3572
77.3277
77.7035
77.5334
79.7727
81.5201
84.6149
88.0109
91.8065
95.7163
99.6677
103.009
105.56
107.076
107.567
106.8
105.345
92.7367
92.2548
91.2285
90.031
88.7415
87.5167
86.0602
84.5878
83.8649
83.741
83.0011
81.5982
80.1636
77.5837
76.6844
76.9084
77.0826
79.404
81.2658
84.4157
87.9114
91.7702
95.7176
99.7406
103.097
105.653
107.154
107.626
106.814
105.3
93.2123
93.2383
92.8546
91.6684
89.8234
88.5667
87.3056
85.9615
85.0423
84.1588
82.9182
81.2508
79.4019
76.9014
75.9901
75.9801
76.5378
78.9946
80.9785
84.1948
87.802
91.7332
95.7172
99.8246
103.196
105.756
107.241
107.691
106.83
105.25
94.6632
94.6769
94.3179
92.4501
89.8603
88.6455
87.9144
86.7316
85.7229
84.4862
82.876
80.983
78.6162
76.0134
75.0229
74.9601
75.8895
78.5579
80.6589
83.9512
87.6831
91.6966
95.7143
99.9204
103.305
105.871
107.338
107.762
106.847
105.193
93.9187
93.5991
92.9155
91.3783
90.5155
90.164
88.8917
87.1444
85.9052
84.7393
82.9479
80.6452
77.8404
74.9871
73.7827
73.8422
75.1576
78.096
80.3103
83.6842
87.5549
91.6617
95.7074
100.03
103.425
105.997
107.444
107.841
106.866
105.129
95.7113
94.8297
93.1826
91.9708
91.276
90.4185
89.058
87.8522
86.9418
85.202
82.9887
80.3705
77.095
73.7133
72.4277
72.6193
74.3516
77.6147
79.9326
83.3935
87.4178
91.6303
95.6949
100.153
103.556
106.135
107.559
107.927
106.885
105.058
95.9882
95.9224
94.7693
92.5667
90.8069
89.6576
88.8106
88.517
87.3366
85.8052
83.2512
80.0199
76.0748
72.3411
70.9299
71.3241
73.5044
77.1117
79.5263
83.078
87.2716
91.6046
95.6751
100.293
103.697
106.284
107.684
108.02
106.906
104.979
95.5196
95.2626
94.336
92.1812
90.4201
88.8353
88.416
90.4171
89.2582
86.4944
82.5346
78.3785
74.6225
70.6042
69.1246
69.8471
72.5971
76.6347
79.0881
82.7364
87.1157
91.5874
95.6455
100.452
103.849
106.446
107.818
108.12
106.928
104.893
94.6137
94.0522
93.1971
92.2481
91.4991
90.0106
89.4541
90.8616
89.6081
86.7423
82.4376
78.4393
73.3701
68.6436
66.698
67.9338
71.6243
76.2151
78.6277
82.3653
86.9499
91.5818
95.6031
100.631
104.011
106.621
107.961
108.227
106.951
104.798
94.4331
93.5625
92.5269
92.8126
93.0106
90.6111
88.7022
88.7848
88.4561
87.3203
82.9422
78.0467
72.4144
66.6386
63.8222
65.7589
70.5751
75.8308
78.161
81.9627
86.7732
91.5917
95.544
100.834
104.183
106.808
108.114
108.342
106.975
104.695
95.3805
94.4525
93.5917
93.4503
93.2079
91.1934
89.0685
88.3618
88.2821
88.3435
82.6567
78.4812
71.5512
64.2243
60.7058
63.2441
69.543
75.4756
77.6918
81.5277
86.5845
91.6221
95.4632
101.065
104.365
107.009
108.277
108.464
107
104.582
96.3471
95.5614
94.7706
94.2998
93.4445
90.7469
89.0518
90.1176
89.4037
89.9425
84.0398
78.113
68.4657
60.2985
53.8605
59.1329
68.6016
75.2013
77.2111
81.0566
86.3825
91.6786
95.3552
101.327
104.555
107.223
108.449
108.594
107.026
104.459
96.8991
96.213
95.4797
94.8012
93.4865
89.701
87.868
88.198
85.5659
89.1324
86.8499
76.2908
66.6722
45.3484
23.3007
25.3531
65.6579
75.068
76.7393
80.5376
86.1654
91.7663
95.2149
101.624
104.754
107.451
108.631
108.733
107.053
104.326
97.4525
96.9129
96.3134
95.6393
93.965
89.8415
86.9448
86.3594
85.7264
96.9056
91.0694
74.6581
66.7824
45.3715
16.305
0.553622
26.8603
73.8239
76.2645
79.9645
85.9319
91.8882
95.04
101.96
104.96
107.694
108.823
108.879
107.081
104.182
98.5093
98.1632
97.6972
97.001
95.1078
90.0745
85.1428
88.1945
88.8963
88.5585
86.5734
73.8024
67.8996
25.2399
0.424852
0.413232
2.65802
31.3969
74.5104
79.3481
85.6944
92.0461
94.8309
102.34
105.173
107.953
109.024
109.034
107.11
104.025
100.061
99.8706
99.6295
99.0452
96.7754
90.8257
83.0667
83.2764
85.0194
90.2901
93.0764
75.2555
49.9213
4.58973
0.37346
0.383898
0.192907
0.120889
31.8485
78.5001
85.4876
92.2478
94.5864
102.765
105.39
108.227
109.235
109.198
107.14
103.856
101.705
101.486
101.204
100.668
97.207
89.2943
82.0773
80.6653
86.4643
90.7944
93.7907
69.1856
18.0851
-0.117687
0.353847
0.318645
0.179019
0.121195
0.135718
44.8433
85.2386
92.4868
94.3054
103.236
105.612
108.519
109.456
109.371
107.17
103.673
103.447
103.134
102.55
101.521
97.4085
86.9944
80.4672
76.7026
83.6352
90.3009
93.8034
53.1071
3.58874
-0.00777854
0.273685
0.263246
0.161687
0.111695
0.147302
2.12841
77.1985
92.6549
94.008
103.753
105.836
108.828
109.686
109.553
107.202
103.476
105.582
105.178
104.567
102.947
98.9014
87.9924
79.7882
77.6768
82.0848
87.7205
82.2579
17.4456
-0.291504
0.0131671
0.208039
0.213341
0.135791
0.100541
0.115378
0.0105873
23.257
91.914
93.6845
104.314
106.063
109.157
109.926
109.745
107.228
103.263
108.301
107.924
107.333
105.74
101.25
92.6307
82.7865
81.1042
82.5663
80.6381
40.5013
1.76078
-0.178218
0.000491123
0.151511
0.173777
0.110923
0.0928191
0.0813523
-0.0946174
1.69063
81.5858
93.1918
104.922
106.292
109.505
110.175
109.945
107.285
103.033
111.471
111.15
110.632
109.647
104.675
97.0118
89.1115
87.6469
85.7422
51.0228
1.95793
-0.272503
-0.109907
-0.0113537
0.101218
0.143103
0.087564
0.08371
0.0617508
-0.0852188
-0.0535739
17.3731
92.202
105.571
106.522
109.876
110.432
110.16
107.249
102.796
115.006
114.875
114.291
113.779
109.966
102.186
95.6862
95.0867
91.8034
20.2894
0.486763
-0.0867259
-0.0105697
-0.00432954
0.0565567
0.11685
0.0705766
0.0731585
0.0506053
-0.0651005
-0.0310005
-0.201356
59.7629
106.411
106.749
110.27
110.701
110.37
107.409
102.456
102.383
107.389
110.582
110.945
110.599
106.925
89.5306
2.57147
-0.00681431
-0.0127048
-0.0316712
0.0705228
0.120067
0.120007
0.0644505
-0.0877039
-0.0909565
-0.0668349
-0.0441575
-0.288339
2.9648
73.8036
97.4485
103.838
108.346
115.274
116.859
117.439
117.736
117.548
102.318
107.411
110.729
111.098
110.804
106.803
108.248
3.70242
0.00758944
-0.0125244
-0.0259247
0.0645145
0.112239
0.102311
0.064744
-0.0682533
-0.0780302
-0.0657134
-0.0536321
-0.258792
1.09797
39.6072
100.475
108.544
112.547
118.574
118.981
119.248
119.529
119.409
58.7425
101.277
110.86
111.263
111.004
104.889
49.3501
-0.299947
0.0120387
-0.0127047
-0.0212598
0.0586841
0.104707
0.0890267
0.0621767
-0.0526689
-0.070901
-0.0654389
-0.0615416
-0.24028
-0.0689029
17.2395
107.73
114.112
117.034
120.985
121.018
121.343
121.484
121.352
33.8129
88.2862
109.511
110.134
110.101
90.2361
3.14316
-0.239148
0.00253167
-0.0109897
-0.0168594
0.053054
0.0972547
0.0775114
0.0594248
-0.0399715
-0.0680687
-0.0660014
-0.0723373
-0.230474
-0.11047
18.1552
116.966
120.025
121.604
122.87
122.925
123.479
123.556
123.347
17.305
76.2394
103.61
107.746
107.957
70.8239
2.94634
-0.178563
-0.0115346
-0.0111303
-0.0127767
0.0477757
0.0897376
0.0669373
0.0553409
-0.030901
-0.0663853
-0.0683277
-0.0733981
-0.0265996
-0.187108
5.14979
84.1921
123.849
125.266
125.031
125.395
125.608
125.689
125.416
4.41572
47.2203
90.5951
99.586
85.6804
8.19652
0.0961231
-0.162112
-0.014895
-0.0115459
-0.00889757
0.0428315
0.082078
0.0572479
0.0523382
-0.0314068
-0.0656884
-0.0742682
-0.0810509
-0.200399
-0.23553
2.52228
37.7031
127.017
126.456
126.92
127.707
127.719
127.978
128.164
0.534509
15.6059
45.5359
47.6095
25.5261
0.0861982
0.0838394
-0.140553
-0.0159112
-0.0119658
-0.00556699
0.0381811
0.07433
0.0483101
0.0480793
-0.0345105
-0.0669346
-0.0827934
-0.0970059
-0.219752
-0.252592
-0.332397
12.3209
110.869
127.164
130.048
130.98
130.142
130.334
130.283
0.000209736
-0.00262188
0.867544
-0.00464998
0.00558554
0.0785818
0.0708673
-0.11917
-0.0162167
-0.0122608
-0.00287406
0.0336006
0.0665328
0.0414276
0.0426732
-0.040665
-0.0707254
-0.0927761
-0.0966098
-0.225386
-0.282054
-0.225793
0.114838
36.7052
124.961
133.172
134.002
132.405
132.481
132.234
0.000285082
-0.00184937
-0.0242993
-0.00459464
0.00827057
0.0724108
0.0576712
-0.0997617
-0.0163695
-0.0123026
-0.000862411
0.0293401
0.0577909
0.0455549
0.055949
-0.0459471
-0.0678935
-0.0899824
-0.0854816
-0.207196
-0.259035
-0.0859963
0.273725
0.189175
36.4234
129.506
136.525
134.751
134.562
133.856
0.000403742
-0.00158869
-0.0244084
-0.00531377
0.00861526
0.0673713
0.046953
-0.0822021
-0.0161156
-0.012142
0.000475297
0.0253142
0.0493072
0.0375188
0.0557823
-0.0211431
-0.0589245
-0.0699707
-0.086578
-0.178644
-0.188398
0.0480906
0.0993185
0.17583
0.138685
32.2969
65.899
91.9291
105.098
108.947
0.000797534
-0.00116593
-0.0245447
-0.00643308
0.00916012
0.0622595
0.0375662
-0.0667301
-0.0155959
-0.0117887
0.00118054
0.0215058
0.0413927
0.0182651
0.0292357
-0.0101804
-0.0550293
-0.0506728
-0.0840391
-0.149223
-0.133913
0.129754
0.205935
0.15416
0.657328
0.048585
0.160803
0.040677
1.69858
3.85014
0.000593486
-0.000332015
-0.0246691
-0.00774108
0.00968779
0.0570603
0.0294259
-0.0533126
-0.0147525
-0.0112687
0.00131864
0.0178951
0.0333779
0.0130751
0.00706639
-0.0040571
-0.0100884
-0.0216174
-0.0862828
-0.114306
-0.0815732
0.114994
0.187258
0.103236
0.0772172
0.0458801
0.0385618
0.0297916
0.0216962
0.0118003
0.000493505
-6.34343e-06
-0.0241418
-0.00914042
0.0101511
0.051452
0.0227471
-0.0418845
-0.0137039
-0.0106238
0.000975277
0.0143983
0.0255799
0.00847734
0.00171898
-0.0191749
-0.0418402
-0.0488096
-0.078702
-0.0802036
-0.0560398
-0.0110987
0.133413
0.0637809
0.0463421
0.0317142
0.0223145
0.0199174
0.0171781
0.010781
0.000321103
-0.000210765
-0.0221951
-0.0103234
0.0105978
0.0454705
0.0173539
-0.0323435
-0.0125106
-0.00989209
0.000225773
0.0109266
0.0181607
0.00411952
-0.00340384
-0.0206481
-0.0433241
-0.0686982
-0.0539799
-0.0344451
-0.0547764
-0.0273728
-0.0126007
0.0428608
0.0596651
0.0145727
0.00379579
0.014716
0.0218441
0.0225384
8.01914e-05
-0.00155773
-0.02082
-0.0110027
0.011006
0.0392927
0.0131611
-0.0245477
-0.0112664
-0.00913308
-0.000834366
0.00742869
0.0111786
-0.000127559
-0.0089837
-0.0233658
-0.0447487
-0.0557068
-0.0397587
-0.0477412
-0.0513112
-0.0502768
-0.0499373
-0.0294526
0.0689409
0.0323515
0.00704928
0.023923
0.0393055
0.0456251
-0.000188042
-0.00207335
-0.0190702
-0.0110538
0.0111999
0.033283
0.0100296
-0.018327
-0.0100458
-0.00840901
-0.00208956
0.00392463
0.00490219
-0.0045062
-0.0142808
-0.0250779
-0.0469213
-0.0567967
-0.0667149
-0.052346
-0.0597709
-0.0589779
-0.0587052
-0.0458001
-0.025613
0.00341349
0.0190188
0.0364989
0.0507575
0.0569648
-0.000472015
-0.00198929
-0.0178075
-0.0104419
0.0110875
0.0276395
0.00779989
-0.0134864
-0.00891625
-0.00778276
-0.00342761
0.000508235
-0.000615982
-0.00896262
-0.0193111
-0.0327208
-0.0505725
-0.0622689
-0.0803125
-0.0682103
-0.0700047
-0.0750844
-0.0660979
-0.0527237
-0.0409906
-0.0144325
0.0126637
0.0331732
0.0433014
0.0464995
-0.000722006
-0.0017022
-0.0163167
-0.00925508
0.0107222
0.0224284
0.00627517
-0.00981746
-0.00791086
-0.00728887
-0.00477105
-0.00272239
-0.00540304
-0.0133001
-0.0240025
-0.0374506
-0.0543366
-0.0681348
-0.0881455
-0.106775
-0.109642
-0.0908975
-0.0848135
-0.0674131
-0.0602444
-0.0488532
-0.0242049
-0.00603773
0.00540721
0.00814286
-0.000907049
-0.00129426
-0.0137109
-0.00773027
0.0101392
0.0177482
0.00522212
-0.00710973
-0.00703278
-0.00696358
-0.00604421
-0.0056523
-0.00948187
-0.0173123
-0.0281865
-0.0420159
-0.0591439
-0.0776226
-0.10024
-0.122867
-0.139654
-0.144855
-0.105807
-0.0910089
-0.0885231
-0.0949779
-0.0738868
-0.0574548
-0.0469996
-0.0417565
-0.00102462
-0.000883268
-0.0112299
-0.00618487
0.00936647
0.0137129
0.00439649
-0.00516658
-0.00629289
-0.006786
-0.00716599
-0.00817427
-0.0128215
-0.0207919
-0.0316583
-0.0459762
-0.064151
-0.0865019
-0.114585
-0.144481
-0.168115
-0.182481
-0.178664
-0.132773
-0.138305
-0.138773
-0.120287
-0.105286
-0.0947602
-0.0887087
-0.00108674
-0.000539797
-0.00897535
-0.00478155
0.00843541
0.0103759
0.00362704
-0.00381627
-0.00570506
-0.00669885
-0.00806618
-0.0101753
-0.0153073
-0.0232849
-0.0341832
-0.0485272
-0.067316
-0.0925756
-0.126234
-0.165027
-0.195916
-0.205994
-0.219473
-0.21433
-0.198333
-0.180314
-0.162207
-0.146582
-0.135168
-0.128638
-0.00110252
-0.00028272
-0.00700902
-0.00359637
0.00738149
0.00768182
0.00287129
-0.00292051
-0.00524559
-0.00664038
-0.00867532
-0.0115334
-0.0168179
-0.0245236
-0.0349061
-0.0486218
-0.0667722
-0.0916292
-0.12568
-0.161262
-0.185412
-0.208898
-0.222911
-0.227303
-0.211876
-0.192816
-0.173772
-0.157352
-0.143647
-0.136804
-0.00107714
-0.000105986
-0.00571699
-0.00264081
0.00624357
0.0055335
0.00214401
-0.00236945
-0.00486314
-0.00654011
-0.00894637
-0.012193
-0.0173005
-0.0243446
-0.0335279
-0.0453225
-0.0606199
-0.0812831
-0.108363
-0.13093
-0.145386
-0.159455
-0.163027
-0.172453
-0.159308
-0.142712
-0.126062
-0.112789
-0.102718
-0.0966008
-0.00101413
1.62261e-05
-0.0042867
-0.00188125
0.00506603
0.00384956
0.00145172
-0.00206871
-0.00451429
-0.00633873
-0.00885279
-0.012132
-0.0167405
-0.0227391
-0.0301869
-0.0392226
-0.050231
-0.0638522
-0.0798424
-0.0937582
-0.0869572
-0.08876
-0.0884958
-0.0981252
-0.0875073
-0.0762139
-0.0656338
-0.0580244
-0.052686
-0.0492772
-0.000917985
9.27713e-05
-0.00312698
-0.00130379
0.00389535
0.00254857
0.0007978
-0.00192571
-0.00416555
-0.00597954
-0.00837916
-0.0113918
-0.0152794
-0.0200044
-0.0254533
-0.0315216
-0.0381386
-0.0451567
-0.0518777
-0.0567914
-0.0542309
-0.0376843
-0.0449017
-0.0461225
-0.0398848
-0.0340492
-0.0290769
-0.0256615
-0.0229521
-0.0212907
-0.000793699
0.000130424
-0.00221309
-0.000896303
0.00277614
0.00154179
0.000194458
-0.0018651
-0.00379037
-0.00544931
-0.00755238
-0.0100691
-0.0130666
-0.0164388
-0.0199885
-0.023467
-0.0265987
-0.0291243
-0.0305925
-0.0309126
-0.0295133
-0.0264318
-0.0224301
-0.0184492
-0.0159851
-0.0135118
-0.0112912
-0.00935495
-0.00767804
-0.00662564
-0.000646543
0.000132862
-0.00151225
-0.00064593
0.00174106
0.000733161
-0.00033853
-0.00183515
-0.00336686
-0.00474051
-0.00639797
-0.00828342
-0.0103702
-0.0125103
-0.0144837
-0.016031
-0.0168703
-0.0174072
-0.017093
-0.0158371
-0.0138922
-0.0115728
-0.00922167
-0.00639424
-0.00458963
-0.00375169
-0.00251147
-0.00147161
-0.000197668
0.000842776
-0.000481724
0.000107444
-0.000988635
-0.000537982
0.000800153
3.61058e-05
-0.000792178
-0.00180234
-0.00288583
-0.00387078
-0.00499728
-0.00620922
-0.00744521
-0.00857925
-0.00946676
-0.0100024
-0.0103054
-0.00973283
-0.0088107
-0.00755045
-0.00608285
-0.00457523
-0.00316896
-0.00192454
-0.000752639
1.418e-07
0.000720162
0.00131582
0.00184883
0.00226261
-0.000303783
6.05748e-05
-0.000601684
-0.00055338
-6.291e-05
-0.000607186
-0.00118982
-0.00175467
-0.00235365
-0.00287265
-0.00342519
-0.00397809
-0.00448727
-0.00488944
-0.00512725
-0.00518613
-0.00494544
-0.00443476
-0.00374647
-0.00295517
-0.00213655
-0.00135506
-0.000652283
-4.36182e-05
0.000475504
0.000914021
0.00128059
0.00158687
0.00184503
0.00206409
-0.000115075
-2.93561e-06
-0.000300483
-0.000677444
-0.00090372
-0.00125874
-0.00159015
-0.0017064
-0.00179247
-0.00179065
-0.00175777
-0.00169454
-0.00159939
-0.00147489
-0.00132796
-0.00122122
-0.00108959
-0.000891174
-0.000664239
-0.000437026
-0.000228683
-4.86994e-05
0.000101356
0.000224969
0.000327846
0.000415306
0.000490845
0.00055743
0.000617371
0.000672299
117.548
117.682
117.351
116.776
114.898
107.582
103.555
98.1491
78.5585
4.14797
-0.00279722
0.0437655
-0.00603633
0.00452629
0.0329626
0.100156
0.065831
0.0656974
0.0442684
-0.0557209
-0.029921
-0.0204047
2.48146
90.2144
106.9
110.579
110.931
110.545
107.359
102.392
119.396
119.459
119.154
118.838
118.153
111.587
107.713
100.653
50.1942
3.08529
0.0245797
-0.000524747
-0.00162927
0.0111407
0.0238218
0.0895991
0.0649056
0.0606995
0.0403474
-0.0501912
-0.0290456
-0.00282002
3.52547
108.704
106.774
110.784
111.081
110.69
107.38
102.329
121.324
121.395
121.121
120.794
120.678
115.565
112.496
105.975
25.0582
-0.00097879
0.021571
0.0037087
0.00409153
0.0175044
0.0230039
0.0787706
0.0663475
0.0568978
0.0364802
-0.0455553
-0.0289375
0.00393123
-0.321574
50.7672
104.949
110.984
111.243
110.82
101.066
58.6672
123.306
123.43
123.299
122.547
122.614
119.57
117.764
112.745
14.4721
-0.100717
0.0255883
0.00644642
0.00905282
0.0230217
0.0263156
0.0738665
0.0762663
0.0564508
0.0322638
-0.0405575
-0.0268019
-0.00616374
-0.260755
3.24035
90.3399
110.089
110.091
109.411
88.3554
34.3226
125.444
125.53
125.417
124.994
124.745
123.532
121.752
84.8539
2.02481
-0.00250678
0.0986215
0.00879461
0.01252
0.0271301
0.0293371
0.0619271
0.0751936
0.04266
0.0283105
-0.035626
-0.026524
-0.0204433
-0.199515
2.95476
71.2022
107.971
107.724
103.553
76.2923
17.2477
128.206
127.941
127.555
127.199
126.391
125.949
125.926
58.6557
3.85539
-0.00647881
-0.000945422
0.0107488
0.0141092
0.0289044
0.0375967
0.0274712
0.0533855
0.0373667
0.0246273
-0.0306964
-0.0266493
-0.0245059
-0.181276
0.0856483
8.68946
85.8055
99.3519
90.2591
46.5825
4.25582
130.285
130.288
130.038
130.134
129.55
126.687
120.482
16.0203
-0.540047
-0.151341
-0.052215
0.00189831
0.0134779
0.0271459
0.0288288
0.00999276
0.0489422
0.032298
0.0211679
-0.0262124
-0.0267219
-0.0262235
-0.158101
0.073038
0.0904913
25.2622
46.8064
44.6409
14.9384
0.485227
132.268
132.489
132.441
133.063
132.119
127.844
58.3795
1.03836
-0.311701
0.0571322
-0.112152
-0.00801981
0.0109552
0.0224397
0.026471
-0.000587161
0.0443961
0.0275518
0.0179292
-0.0222947
-0.0266285
-0.0270233
-0.135239
0.060158
0.0824088
0.00931495
-0.00210726
0.689935
-0.0036964
0.000828916
133.976
134.729
135.19
136.43
132.32
67.3167
3.39242
-0.268534
-0.0537378
0.0374826
-0.123172
-0.015442
0.00959536
0.0186186
0.0247536
-0.00459026
0.0397887
0.0232133
0.0149233
-0.018978
-0.0262194
-0.0274261
-0.114504
0.0470753
0.0755509
0.0117306
-0.00212113
-0.0244442
-0.00294669
0.000901739
110.433
108.329
102.408
74.0825
39.0104
0.338487
0.239246
0.0588395
0.35367
-0.185959
-0.110669
-0.0220918
0.0183274
0.0202283
0.0287122
0.00872028
0.0361876
0.0193411
0.0121577
-0.0162591
-0.0255373
-0.0271929
-0.0957296
0.0365856
0.0699198
0.0118778
-0.00289848
-0.0245787
-0.00270386
0.00102584
4.50703
3.21627
0.194333
0.338565
-0.0693177
0.120301
0.128498
0.0852377
-0.0167793
-0.103545
-0.0730179
-0.00851465
0.0186683
0.0490483
0.0509386
0.0148988
0.0312278
0.01592
0.00960882
-0.0141128
-0.0245825
-0.0265067
-0.0791485
0.0277942
0.063951
0.01226
-0.00406122
-0.024728
-0.00228413
0.00149273
2.55354e-05
-0.0130367
-0.0239324
-0.0299789
-0.0256924
0.0602243
0.213856
0.0970454
-0.0691728
-0.0657125
-0.0434169
-0.0105731
0.0165956
0.0326385
0.0399917
0.011731
0.0269295
0.0127393
0.00723523
-0.012501
-0.0233736
-0.0253297
-0.0647098
0.0203243
0.0578986
0.0126349
-0.00548088
-0.0248561
-0.00143417
0.00128103
0.00129041
-0.0101464
-0.0203875
-0.0254831
-0.0237829
0.0404676
0.0295167
-0.0675841
-0.0723837
-0.071345
-0.0475306
-0.0336622
-0.00055673
0.0158094
0.0300525
0.0108909
0.0224691
0.0096931
0.00498856
-0.0113634
-0.0219499
-0.0238053
-0.0523295
0.0143734
0.0515016
0.0129054
-0.00702818
-0.0243779
-0.000627889
0.00118427
0.0182505
0.0103312
-0.000888988
-0.0129313
-0.0143439
-0.0326255
-0.0545049
-0.0574601
-0.0698098
-0.0497809
-0.0543781
-0.0332558
-0.0111787
0.00550219
0.023618
0.0084632
0.0177577
0.00674863
0.00282461
-0.0106295
-0.0203515
-0.0220212
-0.041891
0.00973686
0.0448506
0.0130795
-0.00839815
-0.0223893
-0.000860103
0.00100824
0.044844
0.0367195
0.0213095
0.00184729
-0.0150813
-0.0250262
-0.0397336
-0.0434293
-0.0390155
-0.031002
-0.00775663
-0.0113472
-0.0146538
-0.0017095
0.0156604
0.00486155
0.0126554
0.00386363
0.000710263
-0.0102062
-0.0186465
-0.0200947
-0.0332374
0.00630934
0.0381979
0.0130882
-0.00930495
-0.0209016
-0.00232228
0.000677293
0.0552951
0.0453522
0.0265193
0.00188406
-0.00279138
-0.00955309
-0.0302402
-0.0410419
-0.0411501
-0.0393017
-0.0579648
-0.0412316
-0.0187327
-0.00532535
0.00896902
0.00035571
0.00728176
0.00102156
-0.00136782
-0.0099932
-0.0169118
-0.0181251
-0.0261874
0.00393032
0.0318512
0.0128306
-0.0095898
-0.0191947
-0.00298743
0.000391408
0.0435838
0.0333745
0.0147992
0.00126961
0.00938609
-0.0153657
-0.0352821
-0.0485188
-0.0672672
-0.0868961
-0.0735739
-0.0519631
-0.0335638
-0.0193881
-0.00469623
-0.00459581
0.00179306
-0.00177317
-0.00338963
-0.0099065
-0.0152251
-0.0162022
-0.0205392
0.00241572
0.025954
0.0122987
-0.00921708
-0.018059
-0.00285008
7.3078e-05
0.006646
-0.000308902
-0.0142175
-0.0185828
-0.00830469
-0.029111
-0.0503444
-0.0874175
-0.108856
-0.102777
-0.0863778
-0.0628838
-0.0448816
-0.028598
-0.0143665
-0.00983554
-0.00355219
-0.00450741
-0.00530026
-0.00989918
-0.0136406
-0.0143795