/*--------------------------------*- C++ -*----------------------------------*\
| =========                 |                                                 |
| \\      /  F ield         | OpenFOAM: The Open Source CFD Toolbox           |
|  \\    /   O peration     | Version:  2.4.0                                 |
|   \\  /    A nd           | Web:      www.OpenFOAM.org                      |
|    \\/     M anipulation  |                                                 |
\*---------------------------------------------------------------------------*/
FoamFile
{
    version     2.0;
    format      ascii;
    class       volScalarField;
    location    "0.012";
    object      p;
}
// * * * * * * * * * * * * * * * * * * * * * * * * * * * * * * * * * * * * * //

dimensions      [1 -1 -2 0 0 0 0];

internalField   nonuniform List<scalar> 
3600
(
238.776
238.519
238.045
237.369
236.516
235.524
234.452
233.372
232.373
231.547
230.981
230.749
230.899
231.453
232.399
233.697
235.276
237.047
238.911
240.767
242.528
244.126
245.523
246.701
247.665
248.43
249.019
249.459
249.777
249.996
230.634
230.378
229.906
229.232
228.381
227.389
226.312
225.225
224.212
223.365
222.771
222.502
222.61
223.121
224.029
225.3
226.869
228.653
230.557
232.477
234.321
236.013
237.505
238.77
239.809
240.633
241.268
241.739
242.075
242.303
222.499
222.245
221.777
221.107
220.259
219.266
218.183
217.079
216.039
215.15
214.499
214.158
214.183
214.605
215.432
216.642
218.188
219.991
221.97
224.016
226.029
227.916
229.609
231.064
232.269
233.228
233.963
234.504
234.883
235.131
214.37
214.12
213.658
212.994
212.151
211.157
210.064
208.937
207.856
206.906
206.17
205.722
205.62
205.905
206.6
207.704
209.19
211.005
213.079
215.306
217.573
219.769
221.795
223.577
225.073
226.274
227.193
227.861
228.317
228.601
206.248
206.003
205.548
204.893
204.056
203.061
201.956
200.8
199.667
198.637
197.791
197.2
196.927
197.022
197.524
198.458
199.829
201.61
203.771
206.207
208.806
211.437
213.963
216.261
218.24
219.853
221.093
221.987
222.579
222.926
198.132
197.893
197.449
196.805
195.975
194.981
193.862
192.672
191.477
190.35
189.369
188.603
188.117
187.964
188.2
188.875
190.039
191.728
193.881
196.496
199.47
202.66
205.888
208.97
211.734
214.052
215.862
217.166
218.003
218.47
190.023
189.791
189.359
188.728
187.909
186.917
185.784
184.555
183.29
182.053
180.916
179.946
179.203
178.745
178.632
178.935
179.741
181.137
183.185
185.875
189.171
192.982
197.112
201.313
205.316
208.856
211.713
213.803
215.101
215.867
181.92
181.696
181.278
180.664
179.859
178.87
177.723
176.455
175.114
173.756
172.446
171.245
170.21
169.39
168.841
168.641
168.893
169.737
171.316
173.752
177.059
181.373
186.514
192.225
198.14
203.787
208.626
212.307
214.502
216.454
173.822
173.609
173.207
172.613
171.824
170.841
169.684
168.377
166.957
165.47
163.975
162.524
161.165
159.936
158.874
158.035
157.515
157.477
158.146
159.81
162.77
167.117
172.935
180.078
188.362
197.155
205.149
211.277
216.27
224.592
165.731
165.528
165.145
164.573
163.805
162.833
161.668
160.324
158.827
157.207
155.52
153.807
152.108
150.439
148.802
147.206
145.675
144.326
143.331
142.999
143.765
146.121
150.542
157.302
167.545
180.373
191.908
200.593
214.25
238.837
157.644
157.455
157.092
156.547
155.803
154.847
153.678
152.303
150.733
148.982
147.102
145.122
143.081
140.969
138.741
136.341
133.677
130.775
127.585
124.257
120.95
118.085
116.422
117.151
121.782
129.139
138.125
143.894
144.049
180.301
149.563
149.387
149.048
148.533
147.819
146.883
145.718
144.32
142.684
140.806
138.741
136.499
134.13
131.603
128.82
125.643
121.719
116.896
110.602
102.702
92.7664
80.3655
64.9006
43.7261
24.4919
13.373
26.697
43.6996
24.066
34.3487
141.486
141.325
141.013
140.531
139.852
138.943
137.79
136.378
134.692
132.693
130.458
127.961
125.297
122.419
119.192
115.517
110.656
104.787
96.1603
84.3463
66.6701
38.6892
4.82693
-42.0187
-87.7207
-141.007
-119.065
-94.8293
-74.6753
-75.7594
133.413
133.269
132.985
132.541
131.904
131.028
129.896
128.483
126.766
124.654
122.276
119.533
116.615
113.48
109.951
106.166
100.657
94.7124
84.6161
71.779
55.6987
17.7448
8.3063
-64.8401
-85.213
-139.595
-131.841
-110.261
-90.0165
-70.9415
125.344
125.218
124.965
124.563
123.974
123.138
122.039
120.639
118.92
116.7
114.22
111.227
108.102
104.811
101.149
97.754
92.1324
87.1122
78.3748
66.7209
53.8585
24.1218
9.77394
-38.5815
-23.1183
-32.8134
-34.1896
0.497714
10.4447
15.8785
117.279
117.172
116.951
116.596
116.062
115.275
114.219
112.847
111.167
108.833
106.322
103.046
99.7523
96.3949
92.723
90.2701
84.8093
82.4094
75.0833
67.042
59.484
33.3054
19.8413
-0.876332
1.7145
23.8449
23.123
45.9476
63.5976
70.8858
109.216
109.13
108.944
108.64
108.169
107.437
106.439
105.107
103.53
101.047
98.6284
94.9738
91.5335
88.1452
84.5187
82.926
79.0083
78.4047
75.1709
75.3244
74.4561
63.8794
75.379
48.1375
58.4697
75.878
93.2644
102.083
113.548
137.217
101.155
101.091
100.943
100.694
100.294
99.6251
98.6983
97.413
96.0377
93.3231
91.2074
86.9834
83.3974
79.8893
76.1557
75.1709
71.4268
73.3981
70.5803
73.2117
73.7054
75.3878
84.1815
63.8978
75.4063
61.5867
82.9001
67.0575
61.6722
64.1194
93.0962
93.0548
92.9454
92.7557
92.4389
91.8373
90.9997
89.7527
88.7266
85.6356
84.1234
79.0776
75.315
72.048
69.2421
69.4331
66.9349
70.6578
66.9653
72.3067
69.3954
73.417
80.1642
55.4495
36.5763
49.5912
69.261
69.3337
72.0602
73.841
85.0382
85.0212
84.9518
84.825
84.6027
84.0716
83.3468
82.1067
81.6258
77.9729
77.4427
71.2553
66.9165
61.3381
56.7096
55.4212
53.4258
57.2463
56.3369
65.527
60.8009
72.5505
67.4367
42.979
41.0495
52.7672
70.445
88.5488
83.7955
90.2032
76.9807
76.9891
76.9607
76.8996
76.7867
76.3244
75.7456
74.4552
74.7482
70.3342
71.2932
63.8311
59.7742
57.4194
54.3011
53.8698
53.1511
57.2793
54.8683
58.0265
55.3988
54.7758
57.0307
42.0517
20.0954
23.2309
33.7389
40.5891
24.2201
26.4532
68.923
68.9579
68.9709
68.977
68.9925
68.5896
68.2001
66.7848
68.0949
62.6918
65.762
55.4056
48.9061
40.7779
33.2487
30.1745
31.1225
33.4163
35.6449
38.5671
39.5184
42.8355
41.2708
41.2685
43.013
46.0618
45.693
43.9675
45.3624
48.6588
60.8644
60.9269
60.9813
61.0539
61.2231
60.8585
60.7064
59.0897
61.6612
55.062
61.3742
51.5073
44.2819
43.8549
35.8501
33.4363
35.498
42.8233
42.7574
44.829
40.6357
38.1519
30.9462
27.1006
22.7757
23.2681
22.0931
21.832
26.1926
31.0229
52.8043
52.8952
52.9906
53.126
53.4832
53.1211
53.2498
51.3688
55.4115
47.1691
57.9691
37.0436
30.5419
23.9877
3.73593
-3.16101
2.88411
5.56576
10.1365
6.14088
6.44334
12.0363
4.73268
0.200764
2.86531
-2.95781
-22.3535
-36.2221
-8.1933
-2.58623
44.7429
44.8632
44.9996
45.1902
45.781
45.3726
45.8095
43.637
49.2987
39.8295
56.8016
43.7085
27.8573
29.4724
8.10869
-1.1626
6.91861
29.4307
28.8418
26.486
21.7816
16.8809
-11.617
-11.228
-19.0867
11.628
6.41981
5.92711
4.3164
4.54234
36.6645
36.8153
36.9852
37.2163
38.0934
37.582
38.3177
35.8444
43.1075
30.0932
58.5894
13.6424
17.682
18.3948
-28.9552
-62.7889
-30.434
-16.4133
-13.901
-32.5289
-40.1098
-31.6947
4.64199
-1.94645
-2.4936
-2.10116
-2.89758
-2.65126
-0.061913
0.988878
28.6241
28.8035
29.0285
29.2911
30.5273
29.8709
30.8547
28.2601
36.7161
25.6903
49.4413
36.6216
18.2567
14.1274
-33.5878
-67.6828
-57.1036
3.15664
3.47722
1.88518
-14.2822
-9.39139
-4.77585
-8.13813
-8.8015
-9.98742
-9.62552
-7.70245
33.5064
4.07975
20.5216
20.7451
20.9676
21.2364
22.8776
22.0354
23.1324
20.3827
29.8374
11.2546
82.543
-16.1098
-9.43313
50.2913
-77.6724
-251.869
-60.9894
15.6555
-61.5682
-5.82035
-20.5179
-9.82225
-8.10802
-8.62584
-8.16421
-7.50507
-6.21991
-7.5817
46.1394
107.254
12.4414
12.6207
13.0011
13.2742
15.3912
14.3656
15.4019
13.2275
20.9371
15.1022
76.1249
19.2417
71.7987
18.9945
-52.8133
-197.362
-146.162
10.1789
-124.466
-148.756
-25.1441
-5.91944
-8.91699
-9.45182
-7.45389
-8.68129
-6.89055
37.3036
53.4378
139.025
4.58734
5.02189
4.94674
5.23754
7.87381
6.65474
7.43871
5.38122
10.5118
-7.02728
138.531
-65.3187
-73.0309
276.291
-282.463
-1035.52
-280.744
402.628
-92.1607
-188.524
-105.227
-13.9314
-9.26754
-7.12009
-5.63139
-4.43139
17.3893
110.289
146.452
182.713
250.146
250.242
250.273
250.219
250.056
249.76
249.312
248.696
247.912
246.975
245.923
244.816
243.732
242.755
241.968
241.427
241.165
241.183
241.443
241.88
242.408
242.936
243.385
243.696
243.844
243.837
243.707
243.508
243.304
243.169
242.454
242.544
242.56
242.478
242.273
241.922
241.403
240.705
239.832
238.807
237.678
236.513
235.395
234.412
233.637
233.126
232.903
232.961
233.257
233.721
234.267
234.804
235.254
235.563
235.707
235.695
235.56
235.358
235.152
235.016
235.284
235.359
235.339
235.194
234.895
234.417
233.742
232.864
231.8
230.592
229.307
228.028
226.849
225.858
225.114
224.667
224.526
224.667
225.035
225.554
226.134
226.689
227.142
227.445
227.58
227.558
227.416
227.207
226.997
226.859
228.758
228.805
228.716
228.453
227.981
227.274
226.321
225.132
223.752
222.253
220.733
219.294
218.039
217.052
216.38
216.047
216.037
216.306
216.783
217.382
218.013
218.591
219.049
219.344
219.465
219.428
219.273
219.054
218.839
218.698
223.088
223.082
222.868
222.392
221.614
220.511
219.093
217.409
215.553
213.645
211.819
210.199
208.886
207.95
207.411
207.258
207.442
207.888
208.509
209.213
209.908
210.515
210.976
211.259
211.36
211.304
211.131
210.901
210.678
210.532
218.638
218.523
218.078
217.207
215.878
214.092
211.912
209.473
206.945
204.512
202.345
200.579
199.294
198.492
198.186
198.303
198.751
199.427
200.228
201.056
201.825
202.464
202.926
203.19
203.266
203.184
202.991
202.745
202.513
202.363
216.04
215.64
214.75
213.111
210.757
207.774
204.389
200.866
197.477
194.466
192.022
190.221
189.091
188.613
188.69
189.192
189.985
190.943
191.954
192.925
193.773
194.443
194.899
195.138
195.182
195.07
194.852
194.588
194.344
194.189
216.633
215.048
213.292
210.077
205.768
200.713
195.459
190.474
186.127
182.666
180.266
178.776
178.163
178.277
178.937
179.956
181.176
182.463
183.711
184.833
185.761
186.455
186.898
187.104
187.108
186.96
186.712
186.428
186.171
186.01
224.758
216.813
212.301
206.647
199.215
191.059
183.491
177.14
172.182
168.758
166.774
166.119
166.473
167.516
168.98
170.65
172.371
174.024
175.522
176.797
177.799
178.508
178.926
179.088
179.044
178.854
178.573
178.265
177.995
177.826
238.97
214.78
201.62
193.443
182.5
170.375
160.934
155.059
151.579
150.225
150.507
151.921
154.004
156.411
158.921
161.36
163.635
165.672
167.419
168.838
169.898
170.606
170.983
171.089
170.989
170.751
170.433
170.099
169.813
169.638
180.476
144.455
144.89
139.659
131.342
124.82
121.095
121.349
124.055
128.011
132.444
136.924
141.268
145.282
148.965
152.216
155.051
157.459
159.434
160.975
162.068
162.755
163.072
163.107
162.942
162.65
162.291
161.93
161.628
161.444
34.4507
24.2774
44.7393
28.1415
15.6657
27.7871
48.0968
70.4371
86.9912
100.569
111.694
120.818
128.344
134.343
139.331
143.364
146.713
149.44
151.599
153.229
154.319
154.959
155.193
155.142
154.902
154.55
154.148
153.756
153.437
153.245
-75.6268
-74.2206
-93.9115
-117.447
-138.351
-83.6162
-37.0519
11.3995
46.2026
75.4407
94.2945
107.409
117.362
124.474
130.452
134.982
138.714
141.668
143.944
145.619
146.66
147.224
147.345
147.192
146.866
146.451
146.001
145.578
145.241
145.04
-70.7544
-89.5432
-109.301
-130.028
-136.669
-81.3376
-60.8642
17.8706
25.6225
65.7622
82.7145
97.0305
108.594
115.855
122.557
127.188
131.138
134.188
136.495
138.167
139.093
139.551
139.526
139.253
138.833
138.35
137.85
137.395
137.039
136.83
16.0358
11.132
1.66351
-32.166
-29.6444
-18.9228
-33.8457
18.8355
33.3042
64.4122
78.8381
92.0913
102.515
108.926
115.855
120.073
124.035
127.033
129.267
130.892
131.62
131.947
131.731
131.324
130.8
130.246
129.694
129.205
128.832
128.613
71.1341
64.45
47.4788
25.7453
27.6735
6.73783
5.74381
28.3101
43.3459
71.0975
80.3089
90.3007
99.5468
103.444
110.385
113.618
117.411
120.209
122.264
123.816
124.231
124.414
123.954
123.399
122.765
122.138
121.532
121.009
120.618
120.39
137.286
114.508
104.094
96.2362
79.9347
63.9001
55.4731
84.574
74.7962
87.2951
89.6075
92.1281
97.4336
100.069
105.425
107.725
111.218
113.696
115.465
116.974
116.905
116.963
116.183
115.475
114.723
114.024
113.362
112.806
112.397
112.161
64.4344
63.2552
69.8468
86.1986
66.4618
81.6665
71.9468
94.1728
87.4079
88.1811
90.4732
89.8451
94.7078
94.8789
100.271
101.935
105.314
107.448
108.842
110.401
109.608
109.607
108.399
107.547
106.671
105.902
105.184
104.594
104.17
103.925
74.2398
73.6471
72.2188
72.8171
54.4084
43.7177
64.6616
91.0704
86.6447
85.4017
90.7526
88.3893
93.6585
94.1609
98.4004
98.7564
100.48
101.441
102.395
104.118
102.306
102.36
100.578
99.6118
98.6039
97.7725
96.9957
96.3734
95.9349
95.6825
90.6891
85.7005
91.4319
74.5025
58.4222
48.5884
52.5425
79.6172
87.2336
78.8905
86.0831
81.1464
86.4359
83.484
87.8105
89.0685
92.2272
95.0992
96.0846
98.136
94.9792
95.2146
92.6899
91.6676
90.5157
89.6336
88.7961
88.1431
87.6926
87.4326
27.2983
26.3251
44.2561
37.8218
29.427
28.4742
52.5376
69.6438
70.9333
74.3973
79.955
80.1172
85.7257
86.9169
91.7016
92.2734
92.9199
90.6187
90.3207
92.5302
87.6067
88.1514
84.7111
83.7119
82.3992
81.4855
80.5833
79.9024
79.4426
79.1754
49.3685
47.5252
47.3175
50.7279
52.5741
51.4055
52.2404
55.6768
61.2065
62.0911
66.4364
68.9644
72.1828
73.5389
74.9181
76.0683
79.3968
81.5918
82.997
87.276
80.1314
81.1399
76.6234
75.7372
74.2449
73.3295
72.3553
71.6506
71.1846
70.9107
31.3273
28.1916
24.6381
26.4651
28.3314
30.5159
38.1034
45.5195
56.0477
60.4322
68.0642
69.6207
76.5263
80.1364
85.4217
85.3178
87.7226
79.4139
81.5035
82.8715
72.5697
74.1445
68.4137
67.7283
66.0423
65.1685
64.1097
63.3868
62.9185
62.6385
-8.48337
-4.97653
-25.253
-15.3689
-1.38648
7.46389
15.3227
23.7669
35.3802
36.0575
44.0716
56.5451
60.0002
65.8713
67.3841
63.6277
72.5041
67.4949
66.9357
78.8524
64.559
67.0934
60.068
59.6633
57.7816
57.0071
55.8429
55.1105
54.6441
54.3585
4.7841
5.74497
0.951835
1.33746
-0.561262
-15.7281
5.55447
8.48392
35.3958
37.5771
50.1466
49.7832
66.9157
65.3622
79.389
73.0156
81.3289
65.9366
75.155
76.5626
57.1803
59.9165
51.5882
51.5177
49.4614
48.8546
47.553
46.823
46.3624
46.0719
1.25893
1.19165
1.1827
1.38693
0.25433
-0.0953959
-4.19966
13.0689
-17.5591
-23.9908
15.6607
48.5329
60.7251
73.6952
73.8303
58.3231
76.7173
53.8965
45.962
77.7234
46.8106
52.3633
42.9011
43.2248
41.0556
40.6903
39.2119
38.5025
38.0593
37.7637
-0.981313
-0.616091
-0.293048
0.210884
0.800026
-1.85366
1.171
0.13079
-83.524
41.4443
25.7914
2.46282
41.807
20.3299
74.8236
49.5083
65.7015
57.3005
64.7465
66.8426
42.2425
44.2808
34.2623
34.8638
32.6836
32.619
30.9046
30.2275
29.7856
29.488
5.67957
-2.00049
-2.25174
-3.81526
-7.19101
-7.34289
-9.27103
-17.1328
-29.2916
14.5912
7.62303
59.6419
91.9937
109.399
117.231
104.578
91.1688
22.3877
14.3328
92.1862
26.301
35.4245
25.1149
26.173
24.1543
24.4505
22.4618
21.8433
21.4625
21.1488
111.551
39.2416
-6.16183
-7.83763
-6.29448
-8.59507
-9.63751
-8.96594
-7.65724
-19.5782
-46.6658
-39.3079
-63.2355
-65.312
66.7444
-20.1095
38.5341
83.5934
38.8843
80.2306
29.3355
24.5263
16.4614
17.4027
15.7469
16.4263
14.0987
13.5432
13.0733
12.8287
102.779
34.5104
-63.8876
-9.381
-6.52451
-6.64015
-5.19879
-1.60668
6.73223
0.218267
-13.5718
268.702
148.158
102.407
132.828
176.06
110.907
-57.5563
-33.1622
135.487
5.0925
11.8802
6.77305
8.3681
7.2733
8.37267
5.6571
5.14758
5.19999
4.71988
-0.0371427
0.148799
0.544973
0.801369
3.73647
2.41206
3.00302
1.50957
1.77195
1.70661
115.058
-45.0745
26.6255
110.346
-148.308
-628.952
-154.05
238.87
0.447812
-64.512
14.1825
52.8276
39.5568
-5.06215
-3.79608
1.30388
67.4011
49.8592
132.942
154.245
-0.225864
-0.147604
0.0579916
0.229348
3.10906
1.6706
2.14799
0.760031
-0.0660573
0.0586124
105.12
-40.1354
48.2954
72.7187
-103.66
-553.855
-113.419
268.259
12.3999
-51.4408
-45.3446
89.2443
57.9511
-4.3203
-3.53926
0.61395
34.1095
34.6955
138.874
150.311
-0.248816
-0.204344
-0.0709961
0.0563237
2.87448
1.47502
2.45402
0.869374
-2.07474
-2.62594
91.8507
-34.2184
59.7107
46.607
-56.4012
-425.265
-21.0189
183.071
14.4119
-28.7288
-30.1024
174.937
34.0615
-3.35864
-3.55446
1.47206
-7.94257
23.7916
142.997
135.648
-0.248445
-0.20294
-0.0711494
0.204494
4.47406
1.87073
2.54278
0.257421
-3.70751
-6.65954
73.6439
-35.3079
56.5908
25.7664
6.33896
-415.926
-192.953
218.468
4.5536
18.7067
-49.2516
-14.512
23.5755
-2.7081
-3.41817
0.578762
49.1082
18.2668
120.281
103.966
-0.249392
-0.204279
-0.0725231
0.20264
1.02913
1.72387
0.102876
-0.247526
-4.18896
-11.0772
54.4584
-31.3164
45.7895
4.44644
-9.43903
-407.716
-126.564
110.644
-49.5274
8.83172
-36.9489
-10.0195
-1.85466
-0.812978
-3.04594
0.706329
17.4565
18.6653
89.5639
72.048
-0.250356
-0.205389
-0.0764983
0.207724
0.975907
-0.509854
-0.399306
-0.428828
-3.24806
-12.9952
38.8112
18.7644
25.7591
-1.31708
131.095
-344.114
-84.1106
-7.03607
-56.6065
14.7664
-91.5176
-11.9337
-0.452856
-2.00704
-2.9571
2.55868
37.323
22.6322
25.6714
31.4041
-0.251349
-0.206595
-0.0828516
-0.0730615
-0.549679
-0.514589
-0.39535
-0.411576
-1.8129
-11.7564
28.0734
-52.9636
13.2861
-0.14468
41.2108
-267.459
-46.1099
6.92029
-2.9632
64.0211
-54.428
-7.11115
-0.555974
-2.31273
-2.92174
-1.01319
23.1725
93.299
-32.6848
-0.154449
-0.252428
-0.20796
-0.0903744
-0.107947
-0.539892
-0.514661
-0.397239
-0.418492
-0.636409
-7.4211
21.7137
-38.3803
3.01878
0.50147
21.3285
-215.137
-18.0364
5.49386
24.0004
84.5337
-78.4623
-5.7316
-0.823423
-2.47074
-2.75679
-8.65305
-8.82896
40.6621
-37.1052
87.8422
-0.253623
-0.209512
-0.0985234
-0.114583
-0.533912
-0.514811
-0.398326
-0.418894
-0.275191
-1.70695
11.9758
-51.985
-15.3564
-0.141089
-5.87493
-130.833
-10.3945
1.712
45.2326
80.3356
-10.1753
-4.82998
-1.84569
-2.58086
-2.34044
-4.71926
-26.1148
-1.5899
-3.47135
39.7967
-0.254946
-0.21127
-0.107066
-0.121466
-0.52688
-0.51178
-0.398881
-0.418328
-0.275234
-0.131599
3.74421
-17.7421
-1.59109
0.413213
0.412945
-55.5196
-22.5956
4.56023
61.3405
71.7364
-32.016
-4.57697
-2.02979
-2.38995
-2.26703
-0.83908
-7.5016
-9.57906
5.52907
74.8869
-0.256408
-0.21326
-0.11598
-0.12872
-0.518137
-0.507493
-0.398486
-0.41721
-0.27667
-0.186796
-0.2007
-0.583184
-0.370238
0.386245
-2.86934
-23.5453
-11.2366
1.7364
69.0655
57.8335
8.30454
-5.1618
-2.03744
-2.03693
-2.25514
-0.617506
16.0355
-5.25482
3.44246
127.711
-0.258021
-0.215509
-0.125237
-0.136402
-0.508203
-0.502113
-0.397081
-0.415546
-0.279413
-0.21599
-0.3627
-0.987659
-0.445329
0.36384
-2.05759
-14.0836
-6.06289
-1.09365
44.2808
49.0617
93.3852
1.47702
-1.47668
-2.10527
-2.43055
-0.749905
0.569396
1.71074
2.4194
43.474
-0.259801
-0.218056
-0.134818
-0.144608
-0.497413
-0.496025
-0.394851
-0.413259
-0.2828
-0.22446
-0.355149
-0.905233
-0.445869
0.321337
-1.36576
-8.59567
-5.68707
-2.38228
5.29261
13.3077
1.18358
-0.277041
-1.06572
-2.46588
-3.2064
-1.38694
-0.49499
1.15202
1.52246
1.45141
-0.261766
-0.220917
-0.144703
-0.153267
-0.486206
-0.489358
-0.392246
-0.410583
-0.286899
-0.242779
-0.359953
-0.808135
-0.505954
0.250817
-0.873174
-2.13471
4.18309
-3.0977
-6.28504
-2.34125
0.955797
-0.931553
-1.32813
-2.54439
-3.62987
3.51166
1.20953
0.876421
0.756997
0.185556
-0.263934
-0.224132
-0.154873
-0.162143
-0.475068
-0.482308
-0.389533
-0.407625
-0.291382
-0.259647
-0.3675
-0.719339
-0.497192
0.204866
-0.827663
-6.06321
8.21272
-3.39962
-3.5043
-2.22938
0.302814
-0.844905
-1.20449
-2.30653
-3.95251
9.64584
0.841504
0.700291
0.528693
0.413716
-0.266326
-0.227731
-0.165302
-0.171208
-0.464157
-0.474931
-0.386762
-0.404362
-0.296424
-0.275428
-0.372684
-0.639435
-0.515294
0.070781
-0.785832
5.73594
2.11673
-4.66799
-2.54404
-1.42666
-0.241371
-0.80005
-1.13973
-2.04049
-2.88925
1.94747
0.834477
0.601451
0.633331
0.82931
-0.268965
-0.231748
-0.175968
-0.180514
-0.453495
-0.467244
-0.384008
-0.400975
-0.301763
-0.289722
-0.375964
-0.570691
-0.520455
0.0255907
-0.738582
-0.368991
1.6213
-2.40268
-2.3653
-1.44859
-0.647377
-0.815803
-1.01608
-1.44683
-1.57536
0.226097
0.950603
0.67056
0.728872
0.886735
-0.271874
-0.236217
-0.186845
-0.190187
-0.443002
-0.459267
-0.381308
-0.397478
-0.307252
-0.302358
-0.378093
-0.514613
-0.524422
-0.0498299
-0.681455
-0.731095
-0.887776
-0.650084
-2.14772
-1.04079
-0.650779
-0.733148
-0.773478
-0.908992
-0.536582
0.708638
0.739989
0.678591
0.708448
0.785957
-0.275079
-0.241168
-0.197914
-0.200219
-0.43275
-0.45102
-0.378673
-0.393875
-0.312759
-0.313308
-0.379211
-0.470144
-0.524257
-0.102568
-0.682862
-0.654882
-1.0048
-1.87603
-0.606311
-0.401326
-0.878506
-0.667435
-0.607894
-0.512306
-0.0763677
0.506636
0.580889
0.593103
0.6174
0.649591
-0.278606
-0.246633
-0.209156
-0.210581
-0.422828
-0.442534
-0.376101
-0.390161
-0.318157
-0.322615
-0.37931
-0.436106
-0.520142
-0.156838
-0.634764
-0.589985
-0.456031
-0.592089
-0.511321
-0.832757
-0.688065
-0.661548
-0.482717
-0.271789
0.0111723
0.339539
0.434474
0.474447
0.500447
0.513116
-0.282486
-0.252645
-0.220559
-0.221245
-0.413321
-0.433838
-0.373581
-0.386261
-0.323265
-0.330352
-0.378387
-0.411085
-0.51196
-0.205728
-0.60402
-0.538616
-0.752186
-0.382442
-0.724043
-0.871383
-0.282468
-0.600795
-0.35423
-0.21214
0.0329374
0.206613
0.30077
0.34773
0.374985
0.386496
-0.286748
-0.259233
-0.23212
-0.232176
-0.404316
-0.424966
-0.371087
-0.382194
-0.32805
-0.33662
-0.376458
-0.393699
-0.499803
-0.250881
-0.568067
-0.524803
-0.624657
-0.911852
-0.796873
-0.807531
-0.683883
-0.554772
-0.32707
-0.156352
-0.0077561
0.109593
0.183232
0.227641
0.253871
0.266852
-0.291425
-0.266428
-0.243849
-0.243337
-0.395894
-0.415947
-0.368578
-0.377975
-0.33233
-0.34167
-0.373429
-0.38245
-0.483979
-0.290015
-0.531432
-0.492985
-0.575131
-0.461639
-0.598875
-0.641572
-0.480564
-0.454139
-0.274212
-0.209231
-0.0615567
0.0184035
0.0798183
0.118387
0.143356
0.157198
-0.296551
-0.274259
-0.255774
-0.254834
-0.38797
-0.406804
-0.365999
-0.37363
-0.33598
-0.345451
-0.369644
-0.375707
-0.465346
-0.320015
-0.497224
-0.480732
-0.536402
-0.605864
-0.557556
-0.568735
-0.436889
-0.386542
-0.276103
-0.1937
-0.11401
-0.0530382
-0.00780109
0.026462
0.047359
0.0603051
-0.302161
-0.282757
-0.267942
-0.266884
-0.38033
-0.397546
-0.363286
-0.369188
-0.338909
-0.348052
-0.365436
-0.371721
-0.444857
-0.341942
-0.464593
-0.459706
-0.488712
-0.470083
-0.488862
-0.487296
-0.396584
-0.348626
-0.274383
-0.21373
-0.156355
-0.111196
-0.0767624
-0.0514956
-0.0341133
-0.0226607
-0.308294
-0.291959
-0.280419
-0.279506
-0.372969
-0.38817
-0.360367
-0.364675
-0.341159
-0.349451
-0.361298
-0.368782
-0.4235
-0.356546
-0.435571
-0.442163
-0.458105
-0.469147
-0.453884
-0.439311
-0.380314
-0.33938
-0.287774
-0.240817
-0.200454
-0.167038
-0.140939
-0.121395
-0.107334
-0.0976621
-0.314985
-0.301906
-0.293296
-0.292683
-0.365915
-0.378656
-0.357177
-0.360108
-0.342717
-0.349726
-0.357482
-0.365643
-0.401999
-0.364207
-0.410718
-0.420538
-0.428103
-0.426192
-0.41912
-0.40221
-0.365941
-0.332349
-0.297427
-0.265149
-0.236973
-0.213704
-0.19532
-0.181266
-0.170796
-0.163212
-0.322278
-0.312652
-0.306688
-0.306424
-0.35916
-0.368955
-0.353664
-0.355482
-0.343598
-0.34896
-0.353726
-0.361722
-0.385913
-0.365343
-0.389316
-0.39857
-0.402309
-0.401559
-0.394177
-0.380439
-0.358369
-0.335972
-0.313395
-0.292364
-0.273957
-0.25859
-0.246202
-0.236494
-0.229083
-0.223565
-0.330218
-0.324261
-0.32075
-0.320776
-0.352653
-0.358977
-0.349794
-0.350755
-0.343864
-0.347269
-0.34977
-0.355839
-0.368313
-0.36003
-0.370516
-0.376822
-0.378784
-0.378297
-0.374125
-0.366332
-0.355172
-0.342986
-0.330899
-0.319663
-0.309754
-0.301376
-0.294524
-0.289057
-0.284775
-0.28147
-0.338845
-0.336817
-0.335686
-0.335844
-0.34629
-0.348573
-0.345558
-0.345838
-0.343659
-0.344867
-0.345568
-0.347979
-0.351333
-0.349913
-0.352482
-0.355085
-0.356417
-0.357567
-0.358
-0.3575
-0.35605
-0.354067
-0.351805
-0.349478
-0.347246
-0.345223
-0.343439
-0.341908
-0.340622
-0.339569
128.797
103.968
81.6355
90.5063
11.7126
-4.47169
-3.56666
-0.579504
3.21263
27.207
25.4322
65.3643
43.426
-184.959
-24.077
57.4231
46.6573
38.2986
-29.4008
106.549
17.4528
1.71137
1.77536
3.34109
2.59075
3.93982
0.984192
0.573773
0.165082
-0.0289789
130.303
114.984
103.709
95.1611
62.0438
-2.17761
-3.48456
-0.571831
1.30636
23.3981
8.44221
17.3436
21.5361
-120.052
-43.5932
13.8814
33.4228
66.8849
-27.7538
93.6851
15.4668
-0.53197
0.793915
2.36634
1.77134
3.26372
0.382442
0.0665332
-0.142353
-0.223375
122.035
119.465
98.5329
87.0723
4.87537
-2.15038
-3.30851
-0.66019
-0.357892
12.0171
-1.76942
-39.1482
-25.4701
-105.427
-52.4366
7.5832
24.0501
80.1633
-26.5549
76.9396
12.0332
-3.18073
0.77695
2.56424
1.53755
3.02125
0.207396
-0.0636216
-0.199751
-0.246697
110.968
137.041
92.1128
63.1166
8.16623
-2.18148
-2.89667
-0.833143
-1.75014
20.6705
-1.14544
-59.0124
-32.4834
-127.61
-64.7406
23.7792
20.3054
71.8346
-28.4669
55.4544
6.7424
-5.46235
0.0514139
2.41687
2.15973
4.21097
0.28562
-0.0638892
-0.198347
-0.24632
115.951
153.622
93.7973
27.8924
36.4058
-2.49874
-2.62857
-1.07458
-2.89516
-2.50899
-3.57826
-30.6789
-8.9529
-130.426
-40.9539
33.4261
3.19947
53.312
7.54656
33.6929
0.465537
-6.03838
-0.20419
0.204285
1.91388
0.897907
0.283715
-0.0652727
-0.19975
-0.247302
117.666
158.659
61.6636
40.3
48.5716
-2.51281
-2.35402
-1.37966
-3.44257
15.3282
4.57366
-51.7386
-2.65457
-38.7827
13.9482
29.1296
-4.28538
25.9644
34.9546
18.408
-5.04763
-4.43758
-0.352981
-0.320793
-0.463487
0.9071
0.200049
-0.0693466
-0.200904
-0.248299
121.905
137.036
52.8618
33.2039
30.9427
-2.15589
-2.54103
-1.93637
-4.58919
12.4497
21.8726
-49.5015
9.94979
-9.32846
25.0927
136.322
-0.296365
-2.05012
26.4547
8.47506
-7.40179
-2.96382
-0.327762
-0.316266
-0.46794
-0.545125
-0.0615102
-0.0758285
-0.202169
-0.249325
114.86
82.5266
40.2191
15.478
1.55066
-2.30679
-2.72769
-2.45961
-5.83051
19.3261
-0.338885
-13.0762
9.46601
6.67041
-28.8556
-29.0217
0.448307
-5.0302
-17.8188
4.67548
-6.57706
-1.09141
-0.339816
-0.319818
-0.468846
-0.533458
-0.0994239
-0.0834986
-0.203602
-0.250441
75.5434
-3.30203
22.7222
18.937
-26.492
-2.48782
-2.65552
-2.48803
-6.3045
30.699
44.3414
-23.7797
1.0094
-23.1813
4.3668
-23.8358
0.993929
-7.64996
-18.5538
6.31747
-3.35665
-0.24594
-0.342129
-0.322324
-0.468892
-0.526227
-0.106509
-0.0918198
-0.205228
-0.251675
24.9013
8.21412
0.609906
0.44505
10.4695
-4.47476
-2.63321
-1.87234
-2.36028
19.6637
81.8431
-22.1597
2.22506
2.60302
17.0432
-0.0753559
0.757856
-1.13776
-0.95473
3.48483
0.0667896
-0.16446
-0.341366
-0.324654
-0.466778
-0.517899
-0.113868
-0.100546
-0.207067
-0.253041
115.254
-1.27905
-11.2663
-1.55161
5.80717
-4.79678
-2.278
-1.38125
-0.447094
9.28528
91.526
8.5847
4.08442
21.1159
1.97442
-0.851513
0.216846
-1.16936
-0.697013
-0.323576
-0.178899
-0.171711
-0.34103
-0.326317
-0.463529
-0.50779
-0.121653
-0.109656
-0.209145
-0.254548
131.683
-0.254353
-4.25087
-2.30438
1.92215
-5.47998
-1.85996
-0.911162
-0.27389
25.4363
88.6155
-6.22157
-0.587234
26.3818
-5.65377
-0.547418
0.316719
-1.10324
-0.913404
-0.44829
-0.158556
-0.181046
-0.340821
-0.327162
-0.459281
-0.496441
-0.129941
-0.119121
-0.211492
-0.25621
9.46042
1.45464
-2.01455
-1.55123
-1.6301
-4.47718
-1.32697
-0.35582
0.983674
20.252
59.1038
23.6419
-3.40433
8.52279
2.17157
-0.193605
0.232859
-1.01468
-0.862371
-0.436798
-0.172044
-0.190954
-0.340453
-0.327371
-0.454416
-0.484199
-0.138847
-0.128921
-0.214138
-0.258042
0.51195
1.40554
-1.15844
-1.20135
-0.667144
-1.91766
-1.00752
-0.204282
1.25341
2.98996
4.34665
-6.55602
-4.77696
-17.7822
-2.51954
-0.346915
0.222665
-0.932967
-0.796041
-0.427731
-0.191932
-0.201595
-0.340044
-0.327372
-0.449065
-0.471745
-0.148091
-0.139039
-0.217114
-0.260063
0.583883
0.157195
-0.41332
-0.61108
-0.238415
-0.945077
-0.534799
0.186313
1.07903
0.637827
-1.83566
-4.35917
-4.89664
27.2387
11.8387
-0.342051
0.0535582
-0.833604
-0.724166
-0.420482
-0.211274
-0.212655
-0.339604
-0.327422
-0.443413
-0.459376
-0.157626
-0.149454
-0.220453
-0.262291
0.966212
0.551982
0.143701
-0.00761127
-0.00248664
-0.132647
0.0993395
0.464821
0.998153
0.951806
-0.381436
-3.43651
-4.12754
-1.71414
2.59012
-0.368339
0.0820974
-0.787801
-0.653997
-0.412038
-0.229688
-0.224159
-0.339087
-0.327566
-0.437515
-0.447272
-0.167421
-0.160141
-0.224189
-0.264746
0.895638
0.616733
0.407323
0.243259
0.213425
0.0937363
0.117105
0.438023
0.973097
0.96185
-0.339819
-3.50562
-1.70254
0.299822
-0.483135
-0.38344
-0.0509757
-0.722672
-0.592122
-0.403104
-0.246803
-0.235786
-0.338636
-0.327876
-0.431395
-0.435601
-0.177412
-0.171076
-0.228353
-0.267453
0.749359
0.614082
0.491391
0.389917
0.303194
0.268461
0.301293
0.450161
0.469067
0.989723
-0.514257
1.17471
-1.20403
-0.552408
-0.266095
-0.376699
-0.021601
-0.674392
-0.537674
-0.394641
-0.262345
-0.247335
-0.33827
-0.328388
-0.425082
-0.424567
-0.187489
-0.182232
-0.23298
-0.270434
0.622907
0.556594
0.482115
0.407398
0.345559
0.302997
0.307341
0.452955
0.592078
0.754751
-0.683589
-0.691457
-0.656839
-0.466917
-0.222204
-0.385082
-0.109824
-0.630294
-0.492244
-0.386763
-0.276232
-0.258628
-0.33801
-0.329114
-0.418609
-0.41425
-0.197656
-0.193587
-0.238101
-0.273715
0.501215
0.468754
0.425482
0.376962
0.319494
0.286536
0.243363
0.26346
0.198785
-0.0117968
-0.621504
-0.416973
-1.31942
-0.359421
-0.228905
-0.382782
-0.12859
-0.594821
-0.454932
-0.379483
-0.288549
-0.269428
-0.337784
-0.33005
-0.412016
-0.404691
-0.20795
-0.205123
-0.24375
-0.277325
0.384095
0.369789
0.34444
0.311533
0.266861
0.234395
0.175897
0.179766
0.270687
0.145726
-0.588914
-0.60734
-0.412396
-0.370575
-0.242306
-0.385933
-0.156376
-0.562081
-0.425264
-0.372739
-0.299178
-0.279762
-0.3376
-0.331181
-0.405343
-0.395853
-0.218474
-0.216829
-0.249957
-0.281292
0.270149
0.265141
0.251046
0.228128
0.191005
0.157475
0.0655609
0.0337959
-0.15306
-0.260222
-0.317971
-0.470784
-0.473748
-0.322854
-0.253762
-0.381788
-0.186363
-0.529317
-0.402595
-0.36651
-0.308185
-0.289527
-0.33747
-0.332476
-0.398632
-0.387598
-0.229422
-0.228705
-0.256755
-0.285647
0.163375
0.163109
0.155195
0.137979
0.106441
0.0697314
-0.0410331
-0.0903888
-0.591241
0.0312816
0.0304499
-0.429526
-0.275365
-0.346475
-0.241009
-0.376116
-0.212339
-0.497383
-0.385947
-0.360876
-0.315706
-0.298615
-0.337426
-0.333888
-0.391926
-0.380016
-0.240769
-0.240763
-0.264173
-0.290423
0.067551
0.0700548
0.0668023