/*--------------------------------*- C++ -*----------------------------------*\
| =========                 |                                                 |
| \\      /  F ield         | OpenFOAM: The Open Source CFD Toolbox           |
|  \\    /   O peration     | Version:  2.4.0                                 |
|   \\  /    A nd           | Web:      www.OpenFOAM.org                      |
|    \\/     M anipulation  |                                                 |
\*---------------------------------------------------------------------------*/
FoamFile
{
    version     2.0;
    format      ascii;
    class       volVectorField;
    location    "0.096";
    object      U;
}
// * * * * * * * * * * * * * * * * * * * * * * * * * * * * * * * * * * * * * //

dimensions      [0 1 -1 0 0 0 0];

internalField   nonuniform List<vector> 
60000
(
(-4.03552e-08 1.74398e-08 0)
(-1.51749e-07 1.63413e-08 0)
(-2.87873e-07 1.95467e-08 0)
(-4.32866e-07 1.94719e-08 0)
(-5.80368e-07 1.94735e-08 0)
(-7.25e-07 1.94008e-08 0)
(-8.69349e-07 1.90622e-08 0)
(-1.01196e-06 1.87755e-08 0)
(-1.15301e-06 1.84057e-08 0)
(-1.29217e-06 1.80142e-08 0)
(-1.42934e-06 1.75972e-08 0)
(-1.56445e-06 1.71503e-08 0)
(-1.69741e-06 1.66711e-08 0)
(-1.82803e-06 1.61318e-08 0)
(-1.95608e-06 1.55552e-08 0)
(-2.08137e-06 1.49395e-08 0)
(-2.20379e-06 1.43611e-08 0)
(-2.32346e-06 1.38275e-08 0)
(-2.44074e-06 1.34139e-08 0)
(-2.556e-06 1.3063e-08 0)
(-2.66941e-06 1.26993e-08 0)
(-2.78121e-06 1.24286e-08 0)
(-2.89141e-06 1.20746e-08 0)
(-2.99973e-06 1.16751e-08 0)
(-3.1057e-06 1.10938e-08 0)
(-3.2084e-06 1.03321e-08 0)
(-3.30667e-06 9.22355e-09 0)
(-3.39909e-06 7.81025e-09 0)
(-3.48391e-06 5.99083e-09 0)
(-3.55932e-06 3.72648e-09 0)
(-3.62326e-06 1.03536e-09 0)
(-3.6735e-06 -2.19033e-09 0)
(-3.7076e-06 -5.92346e-09 0)
(-3.72311e-06 -1.01515e-08 0)
(-3.71762e-06 -1.47367e-08 0)
(-3.68825e-06 -1.94515e-08 0)
(-3.63237e-06 -2.45932e-08 0)
(-3.5481e-06 -2.99808e-08 0)
(-3.43396e-06 -3.55744e-08 0)
(-3.28889e-06 -4.12756e-08 0)
(-3.11233e-06 -4.68542e-08 0)
(-2.9039e-06 -5.2322e-08 0)
(-2.66383e-06 -5.74676e-08 0)
(-2.39259e-06 -6.22381e-08 0)
(-2.09139e-06 -6.65582e-08 0)
(-1.76271e-06 -7.00976e-08 0)
(-1.40887e-06 -7.31214e-08 0)
(-1.03198e-06 -7.54883e-08 0)
(-6.35275e-07 -7.70316e-08 0)
(-2.22204e-07 -7.78211e-08 0)
(2.04148e-07 -7.78756e-08 0)
(6.40607e-07 -7.72578e-08 0)
(1.08419e-06 -7.60357e-08 0)
(1.53176e-06 -7.41569e-08 0)
(1.97989e-06 -7.16564e-08 0)
(2.42548e-06 -6.86578e-08 0)
(2.86539e-06 -6.50851e-08 0)
(3.29628e-06 -6.10992e-08 0)
(3.71524e-06 -5.66678e-08 0)
(4.11971e-06 -5.19582e-08 0)
(4.50716e-06 -4.6981e-08 0)
(4.87528e-06 -4.18002e-08 0)
(5.22218e-06 -3.65441e-08 0)
(5.54672e-06 -3.14461e-08 0)
(5.84777e-06 -2.6204e-08 0)
(6.1248e-06 -2.12909e-08 0)
(6.37803e-06 -1.65834e-08 0)
(6.60762e-06 -1.21279e-08 0)
(6.81389e-06 -7.93949e-09 0)
(6.99759e-06 -4.20785e-09 0)
(7.1597e-06 -8.05374e-10 0)
(7.30057e-06 2.39303e-09 0)
(7.42077e-06 5.23846e-09 0)
(7.52084e-06 7.73959e-09 0)
(7.60102e-06 1.02217e-08 0)
(7.66094e-06 1.2768e-08 0)
(7.70036e-06 1.52378e-08 0)
(7.71889e-06 1.78547e-08 0)
(7.71594e-06 2.05233e-08 0)
(7.69029e-06 2.29829e-08 0)
(7.64001e-06 2.5802e-08 0)
(7.56386e-06 2.88748e-08 0)
(7.45985e-06 3.24919e-08 0)
(7.32543e-06 3.6556e-08 0)
(7.1584e-06 4.08046e-08 0)
(6.95658e-06 4.53784e-08 0)
(6.71755e-06 5.01981e-08 0)
(6.43909e-06 5.51956e-08 0)
(6.11956e-06 6.03604e-08 0)
(5.75788e-06 6.5418e-08 0)
(5.3537e-06 7.03304e-08 0)
(4.90733e-06 7.49975e-08 0)
(4.42067e-06 7.9034e-08 0)
(3.89239e-06 8.38118e-08 0)
(3.34382e-06 8.27777e-08 0)
(2.71673e-06 9.6863e-08 0)
(2.14925e-06 8.08022e-08 0)
(1.42661e-06 1.075e-07 0)
(8.30021e-07 9.21941e-08 0)
(1.27366e-07 1.04838e-07 0)
(-5.34512e-08 8.21499e-08 0)
(-2.53783e-07 1.12996e-07 0)
(-5.20681e-07 1.29625e-07 0)
(-7.89326e-07 1.33236e-07 0)
(-1.06772e-06 1.32825e-07 0)
(-1.33895e-06 1.32046e-07 0)
(-1.61046e-06 1.3086e-07 0)
(-1.87953e-06 1.2964e-07 0)
(-2.14684e-06 1.28173e-07 0)
(-2.4118e-06 1.26583e-07 0)
(-2.67428e-06 1.2492e-07 0)
(-2.93422e-06 1.23214e-07 0)
(-3.19162e-06 1.21406e-07 0)
(-3.44635e-06 1.19403e-07 0)
(-3.69829e-06 1.17253e-07 0)
(-3.94733e-06 1.14933e-07 0)
(-4.19327e-06 1.12604e-07 0)
(-4.43617e-06 1.10438e-07 0)
(-4.67636e-06 1.08634e-07 0)
(-4.91407e-06 1.07009e-07 0)
(-5.14964e-06 1.05498e-07 0)
(-5.38338e-06 1.04249e-07 0)
(-5.61523e-06 1.0275e-07 0)
(-5.84484e-06 1.01031e-07 0)
(-6.07168e-06 9.87624e-08 0)
(-6.2946e-06 9.56343e-08 0)
(-6.51234e-06 9.14692e-08 0)
(-6.72335e-06 8.60549e-08 0)
(-6.92542e-06 7.91368e-08 0)
(-7.11656e-06 7.06901e-08 0)
(-7.29419e-06 6.04469e-08 0)
(-7.45554e-06 4.82812e-08 0)
(-7.59746e-06 3.3897e-08 0)
(-7.71624e-06 1.7395e-08 0)
(-7.808e-06 -1.27624e-09 0)
(-7.86861e-06 -2.18758e-08 0)
(-7.89396e-06 -4.46417e-08 0)
(-7.88069e-06 -6.9277e-08 0)
(-7.82603e-06 -9.52153e-08 0)
(-7.7277e-06 -1.22115e-07 0)
(-7.58384e-06 -1.49492e-07 0)
(-7.39268e-06 -1.77337e-07 0)
(-7.15316e-06 -2.05e-07 0)
(-6.86434e-06 -2.32272e-07 0)
(-6.52657e-06 -2.58404e-07 0)
(-6.1418e-06 -2.82233e-07 0)
(-5.71182e-06 -3.04753e-07 0)
(-5.23834e-06 -3.25283e-07 0)
(-4.72456e-06 -3.42814e-07 0)
(-4.17398e-06 -3.57796e-07 0)
(-3.58958e-06 -3.70316e-07 0)
(-2.97474e-06 -3.80231e-07 0)
(-2.33308e-06 -3.87725e-07 0)
(-1.66854e-06 -3.92359e-07 0)
(-9.85597e-07 -3.94096e-07 0)
(-2.88581e-07 -3.93154e-07 0)
(4.17924e-07 -3.89393e-07 0)
(1.12891e-06 -3.82942e-07 0)
(1.83962e-06 -3.73909e-07 0)
(2.54551e-06 -3.62524e-07 0)
(3.24189e-06 -3.48723e-07 0)
(3.9243e-06 -3.32925e-07 0)
(4.58866e-06 -3.15388e-07 0)
(5.23193e-06 -2.97031e-07 0)
(5.85081e-06 -2.77201e-07 0)
(6.44306e-06 -2.57462e-07 0)
(7.00767e-06 -2.37399e-07 0)
(7.54319e-06 -2.17371e-07 0)
(8.04827e-06 -1.97438e-07 0)
(8.52228e-06 -1.78195e-07 0)
(8.96492e-06 -1.59315e-07 0)
(9.37484e-06 -1.40389e-07 0)
(9.75105e-06 -1.21857e-07 0)
(1.00923e-05 -1.036e-07 0)
(1.03974e-05 -8.51234e-08 0)
(1.06651e-05 -6.61984e-08 0)
(1.0894e-05 -4.69822e-08 0)
(1.1082e-05 -2.7235e-08 0)
(1.12273e-05 -6.94986e-09 0)
(1.13282e-05 1.41311e-08 0)
(1.13808e-05 3.65341e-08 0)
(1.13821e-05 6.09758e-08 0)
(1.1328e-05 8.78976e-08 0)
(1.12136e-05 1.17066e-07 0)
(1.10336e-05 1.48207e-07 0)
(1.07834e-05 1.81349e-07 0)
(1.0458e-05 2.16678e-07 0)
(1.00527e-05 2.53763e-07 0)
(9.56356e-06 2.92195e-07 0)
(8.98774e-06 3.31419e-07 0)
(8.32312e-06 3.70815e-07 0)
(7.56897e-06 4.09697e-07 0)
(6.72759e-06 4.46979e-07 0)
(5.7953e-06 4.83588e-07 0)
(4.81378e-06 5.08627e-07 0)
(3.66464e-06 5.6189e-07 0)
(2.64916e-06 5.44131e-07 0)
(1.27436e-06 6.16694e-07 0)
(2.97967e-07 5.42616e-07 0)
(-8.26383e-07 4.77187e-07 0)
(-5.36855e-08 1.625e-07 0)
(-2.82662e-07 2.48032e-07 0)
(-6.01256e-07 2.80544e-07 0)
(-9.16818e-07 2.88978e-07 0)
(-1.24565e-06 2.87621e-07 0)
(-1.56609e-06 2.85742e-07 0)
(-1.88731e-06 2.83719e-07 0)
(-2.20594e-06 2.81653e-07 0)
(-2.52313e-06 2.79192e-07 0)
(-2.83816e-06 2.76446e-07 0)
(-3.1509e-06 2.73553e-07 0)
(-3.46123e-06 2.70647e-07 0)
(-3.76908e-06 2.67597e-07 0)
(-4.07442e-06 2.6434e-07 0)
(-4.37724e-06 2.6095e-07 0)
(-4.67754e-06 2.57356e-07 0)
(-4.97528e-06 2.53687e-07 0)
(-5.27062e-06 2.50298e-07 0)
(-5.56367e-06 2.47345e-07 0)
(-5.85462e-06 2.44685e-07 0)
(-6.144e-06 2.42407e-07 0)
(-6.43194e-06 2.40374e-07 0)
(-6.71843e-06 2.38026e-07 0)
(-7.00335e-06 2.35225e-07 0)
(-7.28598e-06 2.31523e-07 0)
(-7.5654e-06 2.26249e-07 0)
(-7.84054e-06 2.19443e-07 0)
(-8.10973e-06 2.10354e-07 0)
(-8.37102e-06 1.98761e-07 0)
(-8.62228e-06 1.8457e-07 0)
(-8.86077e-06 1.67098e-07 0)
(-9.08361e-06 1.46428e-07 0)
(-9.28744e-06 1.21637e-07 0)
(-9.46845e-06 9.29688e-08 0)
(-9.62244e-06 5.9846e-08 0)
(-9.74511e-06 2.23873e-08 0)
(-9.83246e-06 -1.92167e-08 0)
(-9.88057e-06 -6.42467e-08 0)
(-9.88604e-06 -1.12007e-07 0)
(-9.84629e-06 -1.61632e-07 0)
(-9.75889e-06 -2.1293e-07 0)
(-9.62168e-06 -2.65512e-07 0)
(-9.43314e-06 -3.18646e-07 0)
(-9.19205e-06 -3.71705e-07 0)
(-8.89855e-06 -4.23247e-07 0)
(-8.55354e-06 -4.71671e-07 0)
(-8.15834e-06 -5.18111e-07 0)
(-7.71491e-06 -5.61624e-07 0)
(-7.22552e-06 -6.00587e-07 0)
(-6.69266e-06 -6.35748e-07 0)
(-6.1192e-06 -6.67075e-07 0)
(-5.50834e-06 -6.94094e-07 0)
(-4.86365e-06 -7.16951e-07 0)
(-4.18906e-06 -7.34922e-07 0)
(-3.48878e-06 -7.47803e-07 0)
(-2.76723e-06 -7.55779e-07 0)
(-2.02903e-06 -7.58663e-07 0)
(-1.27908e-06 -7.56346e-07 0)
(-5.22345e-07 -7.49097e-07 0)
(2.36588e-07 -7.36993e-07 0)
(9.92866e-07 -7.20375e-07 0)
(1.74165e-06 -6.99296e-07 0)
(2.47844e-06 -6.74096e-07 0)
(3.19999e-06 -6.46243e-07 0)
(3.90202e-06 -6.16207e-07 0)
(4.58163e-06 -5.84379e-07 0)
(5.23762e-06 -5.51459e-07 0)
(5.8676e-06 -5.17395e-07 0)
(6.4692e-06 -4.8341e-07 0)
(7.04089e-06 -4.48821e-07 0)
(7.58187e-06 -4.14047e-07 0)
(8.08987e-06 -3.78176e-07 0)
(8.56306e-06 -3.41937e-07 0)
(8.99903e-06 -3.04659e-07 0)
(9.39557e-06 -2.66448e-07 0)
(9.75083e-06 -2.26881e-07 0)
(1.00628e-05 -1.85718e-07 0)
(1.03277e-05 -1.42806e-07 0)
(1.05422e-05 -9.80595e-08 0)
(1.07038e-05 -5.00817e-08 0)
(1.08074e-05 1.23578e-09 0)
(1.08481e-05 5.68499e-08 0)
(1.08201e-05 1.17205e-07 0)
(1.07176e-05 1.83038e-07 0)
(1.05338e-05 2.5384e-07 0)
(1.02616e-05 3.29576e-07 0)
(9.89527e-06 4.10443e-07 0)
(9.42892e-06 4.95591e-07 0)
(8.8574e-06 5.83984e-07 0)
(8.17672e-06 6.74911e-07 0)
(7.38406e-06 7.66822e-07 0)
(6.47783e-06 8.58253e-07 0)
(5.46083e-06 9.4704e-07 0)
(4.32673e-06 1.03309e-06 0)
(3.13258e-06 1.10098e-06 0)
(1.72218e-06 1.20115e-06 0)
(4.82752e-07 1.21042e-06 0)
(-1.23245e-06 1.28994e-06 0)
(-2.3403e-06 1.13524e-06 0)
(-3.79966e-06 8.46739e-07 0)
(-6.46472e-08 2.49601e-07 0)
(-3.05892e-07 3.91034e-07 0)
(-6.29062e-07 4.4371e-07 0)
(-9.60317e-07 4.57665e-07 0)
(-1.30572e-06 4.56177e-07 0)
(-1.64338e-06 4.53278e-07 0)
(-1.98225e-06 4.50465e-07 0)
(-2.3185e-06 4.47602e-07 0)
(-2.65349e-06 4.44271e-07 0)
(-2.98664e-06 4.40511e-07 0)
(-3.31786e-06 4.36513e-07 0)
(-3.64689e-06 4.32454e-07 0)
(-3.97358e-06 4.28183e-07 0)
(-4.29781e-06 4.23692e-07 0)
(-4.61946e-06 4.19065e-07 0)
(-4.93846e-06 4.14213e-07 0)
(-5.25495e-06 4.09368e-07 0)
(-5.56924e-06 4.04927e-07 0)
(-5.88149e-06 4.00954e-07 0)
(-6.19206e-06 3.97514e-07 0)
(-6.50148e-06 3.9468e-07 0)
(-6.80978e-06 3.92013e-07 0)
(-7.11708e-06 3.89122e-07 0)
(-7.42341e-06 3.85589e-07 0)
(-7.72807e-06 3.80716e-07 0)
(-8.03046e-06 3.7391e-07 0)
(-8.32962e-06 3.64869e-07 0)
(-8.62383e-06 3.52633e-07 0)
(-8.91139e-06 3.36968e-07 0)
(-9.18992e-06 3.17335e-07 0)
(-9.45659e-06 2.93022e-07 0)
(-9.70822e-06 2.63878e-07 0)
(-9.94125e-06 2.28755e-07 0)
(-1.01519e-05 1.87773e-07 0)
(-1.0336e-05 1.40068e-07 0)
(-1.04893e-05 8.58768e-08 0)
(-1.06078e-05 2.54667e-08 0)
(-1.06878e-05 -3.98584e-08 0)
(-1.07254e-05 -1.09673e-07 0)
(-1.07176e-05 -1.8253e-07 0)
(-1.06616e-05 -2.58494e-07 0)
(-1.0555e-05 -3.36528e-07 0)
(-1.03964e-05 -4.15906e-07 0)
(-1.01846e-05 -4.9549e-07 0)
(-9.91954e-06 -5.73264e-07 0)
(-9.6017e-06 -6.47761e-07 0)
(-9.2317e-06 -7.19252e-07 0)
(-8.81205e-06 -7.86752e-07 0)
(-8.34467e-06 -8.48789e-07 0)
(-7.83133e-06 -9.05756e-07 0)
(-7.27516e-06 -9.5727e-07 0)
(-6.6796e-06 -1.00281e-06 0)
(-6.04833e-06 -1.04224e-06 0)
(-5.38554e-06 -1.07475e-06 0)
(-4.69533e-06 -1.10007e-06 0)
(-3.98211e-06 -1.11823e-06 0)
(-3.25061e-06 -1.12893e-06 0)
(-2.5055e-06 -1.13202e-06 0)
(-1.75161e-06 -1.12771e-06 0)
(-9.93631e-07 -1.11613e-06 0)
(-2.35905e-07 -1.09796e-06 0)
(5.17116e-07 -1.07336e-06 0)
(1.26062e-06 -1.04208e-06 0)
(1.99131e-06 -1.00619e-06 0)
(2.70532e-06 -9.67363e-07 0)
(3.39904e-06 -9.2473e-07 0)
(4.07084e-06 -8.79829e-07 0)
(4.71797e-06 -8.32374e-07 0)
(5.33782e-06 -7.84912e-07 0)
(5.92866e-06 -7.35335e-07 0)
(6.48918e-06 -6.84818e-07 0)
(7.01702e-06 -6.32082e-07 0)
(7.51046e-06 -5.78174e-07 0)
(7.96742e-06 -5.21769e-07 0)
(8.38517e-06 -4.63319e-07 0)
(8.76116e-06 -4.02273e-07 0)
(9.09299e-06 -3.38024e-07 0)
(9.37634e-06 -2.70202e-07 0)
(9.60709e-06 -1.98431e-07 0)
(9.78134e-06 -1.20886e-07 0)
(9.89309e-06 -3.74331e-08 0)
(9.93674e-06 5.3021e-08 0)
(9.9057e-06 1.50885e-07 0)
(9.79355e-06 2.57965e-07 0)
(9.59352e-06 3.73405e-07 0)
(9.29787e-06 4.97434e-07 0)
(8.89958e-06 6.29898e-07 0)
(8.39241e-06 7.6968e-07 0)
(7.77018e-06 9.15346e-07 0)
(7.02824e-06 1.06541e-06 0)
(6.16342e-06 1.21762e-06 0)
(5.17367e-06 1.36945e-06 0)
(4.06238e-06 1.51743e-06 0)
(2.81983e-06 1.66005e-06 0)
(1.51744e-06 1.77942e-06 0)
(-2.80763e-08 1.92452e-06 0)
(-1.38899e-06 1.98027e-06 0)
(-3.27644e-06 2.05504e-06 0)
(-4.4567e-06 1.83815e-06 0)
(-6.22402e-06 1.27447e-06 0)
(-7.03457e-08 3.43604e-07 0)
(-3.1919e-07 5.34426e-07 0)
(-6.41944e-07 6.08569e-07 0)
(-9.77074e-07 6.29518e-07 0)
(-1.32629e-06 6.28694e-07 0)
(-1.66898e-06 6.25141e-07 0)
(-2.01335e-06 6.21652e-07 0)
(-2.35527e-06 6.18051e-07 0)
(-2.69613e-06 6.13952e-07 0)
(-3.03536e-06 6.09321e-07 0)
(-3.37283e-06 6.04336e-07 0)
(-3.70821e-06 5.99169e-07 0)
(-4.04127e-06 5.93687e-07 0)
(-4.37178e-06 5.87915e-07 0)
(-4.6996e-06 5.81955e-07 0)
(-5.02468e-06 5.75774e-07 0)
(-5.34724e-06 5.69757e-07 0)
(-5.66765e-06 5.64301e-07 0)
(-5.98618e-06 5.59443e-07 0)
(-6.30325e-06 5.55356e-07 0)
(-6.61924e-06 5.52043e-07 0)
(-6.93433e-06 5.48922e-07 0)
(-7.24872e-06 5.45649e-07 0)
(-7.56242e-06 5.41652e-07 0)
(-7.87509e-06 5.3598e-07 0)
(-8.18623e-06 5.281e-07 0)
(-8.49492e-06 5.17288e-07 0)
(-8.79968e-06 5.02466e-07 0)
(-9.09866e-06 4.83196e-07 0)
(-9.38949e-06 4.58565e-07 0)
(-9.66919e-06 4.27723e-07 0)
(-9.93431e-06 3.90281e-07 0)
(-1.01812e-05 3.44955e-07 0)
(-1.04058e-05 2.91765e-07 0)
(-1.0604e-05 2.29711e-07 0)
(-1.07717e-05 1.59233e-07 0)
(-1.09048e-05 8.04581e-08 0)
(-1.09995e-05 -5.0323e-09 0)
(-1.10518e-05 -9.69908e-08 0)
(-1.10584e-05 -1.93415e-07 0)
(-1.10161e-05 -2.94332e-07 0)
(-1.09226e-05 -3.98326e-07 0)
(-1.07762e-05 -5.0414e-07 0)
(-1.05761e-05 -6.10663e-07 0)
(-1.0322e-05 -7.15186e-07 0)
(-1.00137e-05 -8.16383e-07 0)
(-9.65235e-06 -9.13666e-07 0)
(-9.23997e-06 -1.00582e-06 0)
(-8.77829e-06 -1.09178e-06 0)
(-8.26936e-06 -1.17133e-06 0)
(-7.71649e-06 -1.24367e-06 0)
(-7.12324e-06 -1.30826e-06 0)
(-6.49361e-06 -1.36465e-06 0)
(-5.83199e-06 -1.412e-06 0)
(-5.14256e-06 -1.45007e-06 0)
(-4.42987e-06 -1.47861e-06 0)
(-3.69877e-06 -1.49731e-06 0)
(-2.95396e-06 -1.50608e-06 0)
(-2.20006e-06 -1.50507e-06 0)
(-1.44178e-06 -1.49451e-06 0)
(-6.83493e-07 -1.47495e-06 0)
(7.10204e-08 -1.44721e-06 0)
(8.16915e-07 -1.41079e-06 0)
(1.55023e-06 -1.36784e-06 0)
(2.26764e-06 -1.31999e-06 0)
(2.96548e-06 -1.26725e-06 0)
(3.64173e-06 -1.21028e-06 0)
(4.29306e-06 -1.1505e-06 0)
(4.9172e-06 -1.08883e-06 0)
(5.51242e-06 -1.02434e-06 0)
(6.07702e-06 -9.57813e-07 0)
(6.60875e-06 -8.88645e-07 0)
(7.10603e-06 -8.16921e-07 0)
(7.56711e-06 -7.41905e-07 0)
(7.98928e-06 -6.63275e-07 0)
(8.37018e-06 -5.80657e-07 0)
(8.70691e-06 -4.93153e-07 0)
(8.99481e-06 -4.00071e-07 0)
(9.22974e-06 -3.00602e-07 0)
(9.40705e-06 -1.92747e-07 0)
(9.52026e-06 -7.61523e-08 0)
(9.56351e-06 5.07058e-08 0)
(9.5298e-06 1.88631e-07 0)
(9.41229e-06 3.39029e-07 0)
(9.20372e-06 5.01472e-07 0)
(8.89657e-06 6.76162e-07 0)
(8.48338e-06 8.62824e-07 0)
(7.95738e-06 1.06005e-06 0)
(7.31226e-06 1.266e-06 0)
(6.54294e-06 1.47841e-06 0)
(5.64565e-06 1.69435e-06 0)
(4.61788e-06 1.91013e-06 0)
(3.46307e-06 2.12107e-06 0)
(2.16793e-06 2.32355e-06 0)
(8.16075e-07 2.50054e-06 0)
(-7.95962e-07 2.6883e-06 0)
(-2.21808e-06 2.78984e-06 0)
(-4.18554e-06 2.86815e-06 0)
(-5.38329e-06 2.59233e-06 0)
(-7.2201e-06 1.73803e-06 0)
(-7.19088e-08 4.41019e-07 0)
(-3.25379e-07 6.79555e-07 0)
(-6.49664e-07 7.73653e-07 0)
(-9.85183e-07 8.01572e-07 0)
(-1.33434e-06 8.01862e-07 0)
(-1.6781e-06 7.98046e-07 0)
(-2.024e-06 7.94048e-07 0)
(-2.36767e-06 7.89809e-07 0)
(-2.71043e-06 7.85019e-07 0)
(-3.05169e-06 7.7959e-07 0)
(-3.39128e-06 7.73652e-07 0)
(-3.72878e-06 7.67376e-07 0)
(-4.06391e-06 7.6066e-07 0)
(-4.39638e-06 7.53524e-07 0)
(-4.72593e-06 7.46136e-07 0)
(-5.05263e-06 7.38608e-07 0)
(-5.3768e-06 7.31407e-07 0)
(-5.6988e-06 7.24916e-07 0)
(-6.01891e-06 7.19265e-07 0)
(-6.3377e-06 7.14578e-07 0)
(-6.65545e-06 7.10782e-07 0)
(-6.97239e-06 7.0738e-07 0)
(-7.289e-06 7.03853e-07 0)
(-7.60521e-06 6.99555e-07 0)
(-7.9209e-06 6.93498e-07 0)
(-8.2358e-06 6.84827e-07 0)
(-8.54889e-06 6.72662e-07 0)
(-8.85887e-06 6.55732e-07 0)
(-9.16383e-06 6.33152e-07 0)
(-9.4613e-06 6.03962e-07 0)
(-9.74833e-06 5.66807e-07 0)
(-1.00212e-05 5.21277e-07 0)
(-1.02761e-05 4.65844e-07 0)
(-1.0509e-05 4.00472e-07 0)
(-1.07155e-05 3.24121e-07 0)
(-1.08914e-05 2.37376e-07 0)
(-1.10327e-05 1.40233e-07 0)
(-1.11353e-05 3.44396e-08 0)
(-1.11952e-05 -7.97594e-08 0)
(-1.12088e-05 -2.00122e-07 0)
(-1.11728e-05 -3.26296e-07 0)
(-1.10847e-05 -4.5667e-07 0)
(-1.09428e-05 -5.89357e-07 0)
(-1.07463e-05 -7.23124e-07 0)
(-1.04949e-05 -8.54934e-07 0)
(-1.01884e-05 -9.83374e-07 0)
(-9.82729e-06 -1.10708e-06 0)
(-9.4137e-06 -1.22462e-06 0)
(-8.94957e-06 -1.33508e-06 0)
(-8.43736e-06 -1.43765e-06 0)
(-7.88045e-06 -1.53122e-06 0)
(-7.28258e-06 -1.61516e-06 0)
(-6.64784e-06 -1.6887e-06 0)
(-5.98076e-06 -1.75101e-06 0)
(-5.28576e-06 -1.80185e-06 0)
(-4.56741e-06 -1.84078e-06 0)
(-3.83063e-06 -1.86743e-06 0)
(-3.08024e-06 -1.88183e-06 0)
(-2.32088e-06 -1.88411e-06 0)
(-1.55721e-06 -1.87455e-06 0)
(-7.93644e-07 -1.85386e-06 0)
(-3.37152e-08 -1.82275e-06 0)
(7.17681e-07 -1.78142e-06 0)
(1.45619e-06 -1.73157e-06 0)
(2.17863e-06 -1.67471e-06 0)
(2.8816e-06 -1.61166e-06 0)
(3.56241e-06 -1.54265e-06 0)
(4.21781e-06 -1.47045e-06 0)
(4.84602e-06 -1.39436e-06 0)
(5.44493e-06 -1.31486e-06 0)
(6.0128e-06 -1.23205e-06 0)
(6.5477e-06 -1.14662e-06 0)
(7.04815e-06 -1.05696e-06 0)
(7.51249e-06 -9.63463e-07 0)
(7.93829e-06 -8.64947e-07 0)
(8.32335e-06 -7.6087e-07 0)
(8.66476e-06 -6.50185e-07 0)
(8.95743e-06 -5.31867e-07 0)
(9.1973e-06 -4.04573e-07 0)
(9.37964e-06 -2.66375e-07 0)
(9.49756e-06 -1.1596e-07 0)
(9.54512e-06 4.7684e-08 0)
(9.51524e-06 2.26332e-07 0)
(9.40059e-06 4.207e-07 0)
(9.19357e-06 6.3111e-07 0)
(8.88673e-06 8.5755e-07 0)
(8.47223e-06 1.09946e-06 0)
(7.94288e-06 1.35544e-06 0)
(7.29221e-06 1.62298e-06 0)
(6.5148e-06 1.89929e-06 0)
(5.60642e-06 2.18075e-06 0)
(4.56399e-06 2.4625e-06 0)
(3.39079e-06 2.73873e-06 0)
(2.07083e-06 3.00342e-06 0)
(6.9588e-07 3.24199e-06 0)
(-9.53046e-07 3.47363e-06 0)
(-2.40809e-06 3.61671e-06 0)
(-4.4203e-06 3.70053e-06 0)
(-5.63343e-06 3.35632e-06 0)
(-7.49136e-06 2.19455e-06 0)
(-7.22549e-08 5.39497e-07 0)
(-3.28602e-07 8.26477e-07 0)
(-6.548e-07 9.38999e-07 0)
(-9.90059e-07 9.73252e-07 0)
(-1.33846e-06 9.74899e-07 0)
(-1.68227e-06 9.71133e-07 0)
(-2.02859e-06 9.66791e-07 0)
(-2.37291e-06 9.62012e-07 0)
(-2.71645e-06 9.56577e-07 0)
(-3.05856e-06 9.50395e-07 0)
(-3.39905e-06 9.43512e-07 0)
(-3.73739e-06 9.36083e-07 0)
(-4.07323e-06 9.28074e-07 0)
(-4.40624e-06 9.19498e-07 0)
(-4.73618e-06 9.10575e-07 0)
(-5.06309e-06 9.01653e-07 0)
(-5.38744e-06 8.93284e-07 0)
(-5.70962e-06 8.85717e-07 0)
(-6.02977e-06 8.79255e-07 0)
(-6.34861e-06 8.7404e-07 0)
(-6.66655e-06 8.6978e-07 0)
(-6.98378e-06 8.66195e-07 0)
(-7.301e-06 8.62642e-07 0)
(-7.61833e-06 8.58229e-07 0)
(-7.93565e-06 8.52106e-07 0)
(-8.25283e-06 8.42997e-07 0)
(-8.56894e-06 8.29794e-07 0)
(-8.8826e-06 8.11148e-07 0)
(-9.19201e-06 7.85604e-07 0)
(-9.49457e-06 7.52128e-07 0)
(-9.78733e-06 7.09017e-07 0)
(-1.00665e-05 6.55524e-07 0)
(-1.0328e-05 5.90176e-07 0)
(-1.05677e-05 5.12616e-07 0)
(-1.07811e-05 4.22047e-07 0)
(-1.09638e-05 3.18831e-07 0)
(-1.11117e-05 2.03333e-07 0)
(-1.12204e-05 7.68423e-08 0)
(-1.12857e-05 -5.97592e-08 0)
(-1.13042e-05 -2.04407e-07 0)
(-1.12722e-05 -3.56311e-07 0)
(-1.11873e-05 -5.13419e-07 0)
(-1.10478e-05 -6.73449e-07 0)
(-1.08527e-05 -8.35011e-07 0)
(-1.06011e-05 -9.94693e-07 0)
(-1.02932e-05 -1.15094e-06 0)
(-9.92962e-06 -1.30177e-06 0)
(-9.51216e-06 -1.44537e-06 0)
(-9.04319e-06 -1.58068e-06 0)
(-8.52558e-06 -1.70658e-06 0)
(-7.96267e-06 -1.82167e-06 0)
(-7.35827e-06 -1.92517e-06 0)
(-6.71656e-06 -2.0161e-06 0)
(-6.0421e-06 -2.09349e-06 0)
(-5.33953e-06 -2.15714e-06 0)
(-4.61348e-06 -2.20653e-06 0)
(-3.86883e-06 -2.24113e-06 0)
(-3.11051e-06 -2.26111e-06 0)
(-2.34327e-06 -2.26665e-06 0)
(-1.57178e-06 -2.25803e-06 0)
(-8.00602e-07 -2.2361e-06 0)
(-3.33929e-08 -2.20162e-06 0)
(7.24745e-07 -2.15502e-06 0)
(1.46931e-06 -2.098e-06 0)
(2.19722e-06 -2.03198e-06 0)
(2.90544e-06 -1.95837e-06 0)
(3.59084e-06 -1.87778e-06 0)
(4.2502e-06 -1.79223e-06 0)
(4.88227e-06 -1.70181e-06 0)
(5.48491e-06 -1.60717e-06 0)
(6.05613e-06 -1.50828e-06 0)
(6.59453e-06 -1.40616e-06 0)
(7.09879e-06 -1.29874e-06 0)
(7.56694e-06 -1.18691e-06 0)
(7.9969e-06 -1.06882e-06 0)
(8.38671e-06 -9.43497e-07 0)
(8.73357e-06 -8.09869e-07 0)
(9.0324e-06 -6.6677e-07 0)
(9.27917e-06 -5.11716e-07 0)
(9.46893e-06 -3.43284e-07 0)
(9.59445e-06 -1.59255e-07 0)
(9.65001e-06 4.13805e-08 0)
(9.62854e-06 2.60677e-07 0)
(9.52213e-06 4.99324e-07 0)
(9.32279e-06 7.58127e-07 0)
(9.02283e-06 1.03681e-06 0)
(8.61427e-06 1.33464e-06 0)
(8.08939e-06 1.65024e-06 0)
(7.44119e-06 1.98042e-06 0)
(6.66391e-06 2.32186e-06 0)
(5.753e-06 2.67019e-06 0)
(4.70495e-06 3.0196e-06 0)
(3.52257e-06 3.36303e-06 0)
(2.18783e-06 3.69252e-06 0)
(7.97369e-07 3.99503e-06 0)
(-8.80361e-07 4.27289e-06 0)
(-2.36108e-06 4.45809e-06 0)
(-4.41141e-06 4.54815e-06 0)
(-5.65407e-06 4.12929e-06 0)
(-7.54244e-06 2.65393e-06 0)
(-7.24118e-08 6.38442e-07 0)
(-3.30612e-07 9.74605e-07 0)
(-6.58331e-07 1.10466e-06 0)
(-9.9343e-07 1.14459e-06 0)
(-1.34125e-06 1.14774e-06 0)
(-1.68502e-06 1.14424e-06 0)
(-2.03156e-06 1.13968e-06 0)
(-2.3763e-06 1.13447e-06 0)
(-2.72041e-06 1.12842e-06 0)
(-3.0631e-06 1.12149e-06 0)
(-3.40413e-06 1.11367e-06 0)
(-3.743e-06 1.10503e-06 0)
(-4.07918e-06 1.09562e-06 0)
(-4.4123e-06 1.08554e-06 0)
(-4.74229e-06 1.07502e-06 0)
(-5.06912e-06 1.06462e-06 0)
(-5.39322e-06 1.05506e-06 0)
(-5.71508e-06 1.04641e-06 0)
(-6.03481e-06 1.03905e-06 0)
(-6.35311e-06 1.03332e-06 0)
(-6.67063e-06 1.02872e-06 0)
(-6.98773e-06 1.02503e-06 0)
(-7.30509e-06 1.02168e-06 0)
(-7.62317e-06 1.01748e-06 0)
(-7.9419e-06 1.01154e-06 0)
(-8.26109e-06 1.00237e-06 0)
(-8.58008e-06 9.88519e-07 0)
(-8.89735e-06 9.68432e-07 0)
(-9.21114e-06 9.40407e-07 0)
(-9.51889e-06 9.0286e-07 0)
(-9.81743e-06 8.5418e-07 0)
(-1.0103e-05 7.92918e-07 0)
(-1.03713e-05 7.17838e-07 0)
(-1.0618e-05 6.28134e-07 0)
(-1.08386e-05 5.23407e-07 0)
(-1.10284e-05 4.03542e-07 0)
(-1.1183e-05 2.69491e-07 0)
(-1.12977e-05 1.22037e-07 0)
(-1.13685e-05 -3.73764e-08 0)
(-1.13914e-05 -2.06682e-07 0)
(-1.1363e-05 -3.84709e-07 0)
(-1.12807e-05 -5.69136e-07 0)
(-1.11423e-05 -7.57055e-07 0)
(-1.09471e-05 -9.46999e-07 0)
(-1.06944e-05 -1.13519e-06 0)
(-1.03845e-05 -1.31963e-06 0)
(-1.00182e-05 -1.49813e-06 0)
(-9.59708e-06 -1.66835e-06 0)
(-9.12329e-06 -1.82894e-06 0)
(-8.59973e-06 -1.97856e-06 0)
(-8.03009e-06 -2.11548e-06 0)
(-7.41842e-06 -2.23877e-06 0)
(-6.76903e-06 -2.34729e-06 0)
(-6.0865e-06 -2.43993e-06 0)
(-5.37554e-06 -2.51649e-06 0)
(-4.64095e-06 -2.5764e-06 0)
(-3.88763e-06 -2.61904e-06 0)
(-3.12059e-06 -2.6446e-06 0)
(-2.34475e-06 -2.65331e-06 0)
(-1.56492e-06 -2.64554e-06 0)
(-7.85723e-07 -2.62218e-06 0)
(-1.08442e-08 -2.58415e-06 0)
(7.54402e-07 -2.53168e-06 0)
(1.50537e-06 -2.46721e-06 0)
(2.2389e-06 -2.39213e-06 0)
(2.95197e-06 -2.30751e-06 0)
(3.64177e-06 -2.21498e-06 0)
(4.3053e-06 -2.1159e-06 0)
(4.94131e-06 -2.01087e-06 0)
(5.54753e-06 -1.90137e-06 0)
(6.12197e-06 -1.78628e-06 0)
(6.6638e-06 -1.6674e-06 0)
(7.17171e-06 -1.54246e-06 0)
(7.64382e-06 -1.41244e-06 0)
(8.07848e-06 -1.27491e-06 0)
(8.47338e-06 -1.12882e-06 0)
(8.82587e-06 -9.72674e-07 0)
(9.13152e-06 -8.05048e-07 0)
(9.38625e-06 -6.22673e-07 0)
(9.5847e-06 -4.24323e-07 0)
(9.71953e-06 -2.07213e-07 0)
(9.78515e-06 3.02611e-08 0)
(9.77454e-06 2.89932e-07 0)
(9.67922e-06 5.73069e-07 0)
(9.49089e-06 8.80372e-07 0)
(9.20159e-06 1.21155e-06 0)
(8.803e-06 1.56592e-06 0)
(8.28689e-06 1.94187e-06 0)
(7.64569e-06 2.33573e-06 0)
(6.87299e-06 2.74362e-06 0)
(5.9635e-06 3.16035e-06 0)
(4.91314e-06 3.57929e-06 0)
(3.72411e-06 3.99203e-06 0)
(2.37727e-06 4.38895e-06 0)
(9.70569e-07 4.75684e-06 0)
(-7.35985e-07 5.08652e-06 0)
(-2.24263e-06 5.31571e-06 0)
(-4.33534e-06 5.4151e-06 0)
(-5.62242e-06 4.91843e-06 0)
(-7.55009e-06 3.12457e-06 0)
(-7.25369e-08 7.3776e-07 0)
(-3.3182e-07 1.12345e-06 0)
(-6.60685e-07 1.27062e-06 0)
(-9.95874e-07 1.31576e-06 0)
(-1.34349e-06 1.32049e-06 0)
(-1.68735e-06 1.31738e-06 0)
(-2.03418e-06 1.31271e-06 0)
(-2.37936e-06 1.30716e-06 0)
(-2.72405e-06 1.30053e-06 0)
(-3.06732e-06 1.29282e-06 0)
(-3.40884e-06 1.28404e-06 0)
(-3.74815e-06 1.27418e-06 0)
(-4.08467e-06 1.26324e-06 0)
(-4.41786e-06 1.25155e-06 0)
(-4.7478e-06 1.23943e-06 0)
(-5.07453e-06 1.22749e-06 0)
(-5.3983e-06 1.21661e-06 0)
(-5.71956e-06 1.20683e-06 0)
(-6.03863e-06 1.19854e-06 0)
(-6.35619e-06 1.19224e-06 0)
(-6.67298e-06 1.18745e-06 0)
(-6.98971e-06 1.18384e-06 0)
(-7.30714e-06 1.18085e-06 0)
(-7.62583e-06 1.17727e-06 0)
(-7.94596e-06 1.17184e-06 0)
(-8.26731e-06 1.16296e-06 0)
(-8.58935e-06 1.14896e-06 0)
(-8.91067e-06 1.12776e-06 0)
(-9.22931e-06 1.09771e-06 0)
(-9.54284e-06 1.05648e-06 0)
(-9.84788e-06 1.0025e-06 0)
(-1.01405e-05 9.33798e-07 0)
(-1.04164e-05 8.49123e-07 0)
(-1.0671e-05 7.47437e-07 0)
(-1.08997e-05 6.28464e-07 0)
(-1.10974e-05 4.91955e-07 0)
(-1.12595e-05 3.38962e-07 0)
(-1.1381e-05 1.70259e-07 0)
(-1.14576e-05 -1.24072e-08 0)
(-1.14854e-05 -2.06918e-07 0)
(-1.14608e-05 -4.11579e-07 0)
(-1.13811e-05 -6.23809e-07 0)
(-1.12446e-05 -8.40284e-07 0)
(-1.10498e-05 -1.05922e-06 0)
(-1.07962e-05 -1.27646e-06 0)
(-1.04839e-05 -1.48964e-06 0)
(-1.01141e-05 -1.69626e-06 0)
(-9.68845e-06 -1.89359e-06 0)
(-9.20906e-06 -2.08006e-06 0)
(-8.67902e-06 -2.25383e-06 0)
(-8.10216e-06 -2.41293e-06 0)
(-7.48255e-06 -2.55629e-06 0)
(-6.82468e-06 -2.68261e-06 0)
(-6.1333e-06 -2.79069e-06 0)
(-5.41317e-06 -2.88029e-06 0)
(-4.66923e-06 -2.95077e-06 0)
(-3.90652e-06 -3.00148e-06 0)
(-3.13011e-06 -3.03258e-06 0)
(-2.34508e-06 -3.04437e-06 0)
(-1.55635e-06 -3.03728e-06 0)
(-7.68677e-07 -3.01225e-06 0)
(1.44554e-08 -2.97042e-06 0)
(7.87351e-07 -2.91169e-06 0)
(1.54494e-06 -2.83977e-06 0)
(2.28442e-06 -2.7551e-06 0)
(3.00273e-06 -2.65925e-06 0)
(3.69729e-06 -2.55407e-06 0)
(4.36545e-06 -2.44142e-06 0)
(5.00523e-06 -2.32165e-06 0)
(5.61498e-06 -2.197e-06 0)
(6.19276e-06 -2.066e-06 0)
(6.73775e-06 -1.93017e-06 0)
(7.2491e-06 -1.78829e-06 0)
(7.72513e-06 -1.63995e-06 0)
(8.16466e-06 -1.48322e-06 0)
(8.56502e-06 -1.31711e-06 0)
(8.92371e-06 -1.13885e-06 0)
(9.23689e-06 -9.47033e-07 0)
(9.5004e-06 -7.37958e-07 0)
(9.70857e-06 -5.10166e-07 0)
(9.85426e-06 -2.60477e-07 0)
(9.93169e-06 1.3423e-08 0)
(9.93361e-06 3.13292e-07 0)
(9.85129e-06 6.40618e-07 0)
(9.67623e-06 9.96493e-07 0)
(9.39997e-06 1.38044e-06 0)
(9.01367e-06 1.79187e-06 0)
(8.50867e-06 2.22875e-06 0)
(7.87684e-06 2.68739e-06 0)
(7.11101e-06 3.16318e-06 0)
(6.20506e-06 3.65013e-06 0)
(5.15412e-06 4.14077e-06 0)
(3.95964e-06 4.62533e-06 0)
(2.60119e-06 5.09254e-06 0)
(1.177e-06 5.52746e-06 0)
(-5.61564e-07 5.91677e-06 0)
(-2.09924e-06 6.19265e-06 0)
(-4.24124e-06 6.30674e-06 0)
(-5.58631e-06 5.73048e-06 0)
(-7.56113e-06 3.60881e-06 0)
(-7.2617e-08 8.37313e-07 0)
(-3.32315e-07 1.27272e-06 0)
(-6.62067e-07 1.43687e-06 0)
(-9.97605e-07 1.48694e-06 0)
(-1.34538e-06 1.49328e-06 0)
(-1.68953e-06 1.49065e-06 0)
(-2.03681e-06 1.48591e-06 0)
(-2.3825e-06 1.48008e-06 0)
(-2.72779e-06 1.47292e-06 0)
(-3.07172e-06 1.46442e-06 0)
(-3.41383e-06 1.45463e-06 0)
(-3.75362e-06 1.44351e-06 0)
(-4.09051e-06 1.43098e-06 0)
(-4.4239e-06 1.41756e-06 0)
(-4.75383e-06 1.40377e-06 0)
(-5.0804e-06 1.39026e-06 0)
(-5.40382e-06 1.37788e-06 0)
(-5.72434e-06 1.36684e-06 0)
(-6.04245e-06 1.35765e-06 0)
(-6.35914e-06 1.35073e-06 0)
(-6.67505e-06 1.34579e-06 0)
(-6.99114e-06 1.34255e-06 0)
(-7.30854e-06 1.34015e-06 0)
(-7.62779e-06 1.33751e-06 0)
(-7.94925e-06 1.33306e-06 0)
(-8.27297e-06 1.32488e-06 0)
(-8.59836e-06 1.31123e-06 0)
(-8.92418e-06 1.28951e-06 0)
(-9.24838e-06 1.25777e-06 0)
(-9.5684e-06 1.21342e-06 0)
(-9.88085e-06 1.15439e-06 0)
(-1.01816e-05 1.07862e-06 0)
(-1.04661e-05 9.84509e-07 0)
(-1.07298e-05 8.71084e-07 0)
(-1.09677e-05 7.37763e-07 0)
(-1.11745e-05 5.84548e-07 0)
(-1.13452e-05 4.12335e-07 0)
(-1.14748e-05 2.21946e-07 0)
(-1.15584e-05 1.55228e-08 0)
(-1.15921e-05 -2.04682e-07 0)
(-1.15723e-05 -4.3661e-07 0)
(-1.14963e-05 -6.77136e-07 0)
(-1.13617e-05 -9.22917e-07 0)
(-1.11672e-05 -1.17159e-06 0)
(-1.09123e-05 -1.41862e-06 0)
(-1.05973e-05 -1.66127e-06 0)
(-1.02234e-05 -1.89657e-06 0)
(-9.79236e-06 -2.12159e-06 0)
(-9.30652e-06 -2.33443e-06 0)
(-8.76914e-06 -2.53275e-06 0)
(-8.18409e-06 -2.71442e-06 0)
(-7.55562e-06 -2.87817e-06 0)
(-6.88842e-06 -3.0225e-06 0)
(-6.18725e-06 -3.14623e-06 0)
(-5.45695e-06 -3.249e-06 0)
(-4.70268e-06 -3.3301e-06 0)
(-3.92963e-06 -3.38887e-06 0)
(-3.14293e-06 -3.42547e-06 0)
(-2.34776e-06 -3.44021e-06 0)
(-1.54924e-06 -3.43358e-06 0)
(-7.52354e-07 -3.40659e-06 0)
(3.97931e-08 -3.36035e-06 0)
(8.20785e-07 -3.29603e-06 0)
(1.5854e-06 -3.21572e-06 0)
(2.33112e-06 -3.12051e-06 0)
(3.05479e-06 -3.01308e-06 0)
(3.75423e-06 -2.89548e-06 0)
(4.42675e-06 -2.76908e-06 0)
(5.07009e-06 -2.63474e-06 0)
(5.68305e-06 -2.4941e-06 0)
(6.26448e-06 -2.3474e-06 0)
(6.81313e-06 -2.19463e-06 0)
(7.32833e-06 -2.03594e-06 0)
(7.80884e-06 -1.86955e-06 0)
(8.25337e-06 -1.69434e-06 0)
(8.6598e-06 -1.50853e-06 0)
(9.02576e-06 -1.30872e-06 0)
(9.34746e-06 -1.09336e-06 0)
(9.62085e-06 -8.58283e-07 0)
(9.84015e-06 -6.01642e-07 0)
(9.99858e-06 -3.19775e-07 0)
(1.00899e-05 -1.00121e-08 0)
(1.01062e-05 3.29744e-07 0)
(1.0039e-05 7.00999e-07 0)
(9.87945e-06 1.1054e-06 0)
(9.61827e-06 1.54245e-06 0)
(9.2463e-06 2.01145e-06 0)
(8.75427e-06 2.50995e-06 0)
(8.1334e-06 3.03451e-06 0)
(7.37575e-06 3.57974e-06 0)
(6.47424e-06 4.13897e-06 0)
(5.42308e-06 4.7037e-06 0)
(4.2228e-06 5.263e-06 0)
(2.85152e-06 5.80406e-06 0)
(1.40736e-06 6.30992e-06 0)
(-3.6783e-07 6.7646e-06 0)
(-1.94296e-06 7.09269e-06 0)
(-4.14262e-06 7.22865e-06 0)
(-5.56003e-06 6.57277e-06 0)
(-7.6005e-06 4.10963e-06 0)
(-7.26365e-08 9.36927e-07 0)
(-3.32204e-07 1.42214e-06 0)
(-6.62644e-07 1.60342e-06 0)
(-9.98753e-07 1.65831e-06 0)
(-1.34703e-06 1.66621e-06 0)
(-1.6916e-06 1.66412e-06 0)
(-2.03947e-06 1.65934e-06 0)
(-2.38578e-06 1.65325e-06 0)
(-2.73174e-06 1.64561e-06 0)
(-3.07645e-06 1.63637e-06 0)