/*--------------------------------*- C++ -*----------------------------------*\
| =========                 |                                                 |
| \\      /  F ield         | OpenFOAM: The Open Source CFD Toolbox           |
|  \\    /   O peration     | Version:  2.4.0                                 |
|   \\  /    A nd           | Web:      www.OpenFOAM.org                      |
|    \\/     M anipulation  |                                                 |
\*---------------------------------------------------------------------------*/
FoamFile
{
    version     2.0;
    format      ascii;
    class       volVectorField;
    location    "0.034";
    object      U;
}
// * * * * * * * * * * * * * * * * * * * * * * * * * * * * * * * * * * * * * //

dimensions      [0 1 -1 0 0 0 0];

internalField   nonuniform List<vector> 
3600
(
(-0.000483664 2.95732e-05 0)
(-0.00158107 3.66672e-05 0)
(-0.0029348 4.67635e-05 0)
(-0.00453261 5.38387e-05 0)
(-0.00617561 4.7082e-05 0)
(-0.00767934 3.14831e-05 0)
(-0.00892146 -2.65504e-06 0)
(-0.00971016 -5.88762e-05 0)
(-0.00987983 -0.000151374 0)
(-0.0091035 -0.00028472 0)
(-0.00702305 -0.000463851 0)
(-0.00353322 -0.000673552 0)
(0.00111003 -0.000894164 0)
(0.00647939 -0.00108578 0)
(0.0120518 -0.00131135 0)
(0.0167611 -0.00147328 0)
(0.0174168 -0.000907049 0)
(0.00756959 0.00302124 0)
(-0.0360107 0.0142728 0)
(-0.158629 0.0255903 0)
(-0.265706 0.0185474 0)
(-0.117658 -0.0594695 0)
(0.0831682 -0.0132093 0)
(0.0477662 0.023986 0)
(-0.0320779 0.00666474 0)
(0.0100347 -0.0328806 0)
(0.0608774 -0.0258903 0)
(0.069202 -0.0117184 0)
(0.0801792 0.0162835 0)
(0.0364975 0.0216518 0)
(-0.000600991 0.00010843 0)
(-0.00197497 0.000147594 0)
(-0.00371874 0.000199759 0)
(-0.00588235 0.00025385 0)
(-0.00830164 0.000276901 0)
(-0.0108348 0.000290746 0)
(-0.0134229 0.00027001 0)
(-0.0159355 0.000209965 0)
(-0.0182657 7.54627e-05 0)
(-0.0201007 -0.000181027 0)
(-0.0210527 -0.000559002 0)
(-0.0210022 -0.00100115 0)
(-0.0202677 -0.00139648 0)
(-0.0195076 -0.00158367 0)
(-0.0197286 -0.00148208 0)
(-0.0228537 -0.000349025 0)
(-0.0328946 0.00456378 0)
(-0.0556399 0.0195471 0)
(-0.103169 0.0447176 0)
(-0.190575 0.0556702 0)
(-0.247543 0.0158557 0)
(-0.0274369 -0.211288 0)
(0.0585982 -0.0736029 0)
(0.0653102 0.0638705 0)
(-0.0035359 0.0158222 0)
(0.00997233 -0.0610741 0)
(0.0275672 -0.0515139 0)
(0.0364446 -0.0142701 0)
(0.0346895 0.0395309 0)
(0.0176205 0.0920409 0)
(-0.00061069 0.00019403 0)
(-0.00200964 0.000262918 0)
(-0.00379343 0.000360803 0)
(-0.00602326 0.000469029 0)
(-0.00854335 0.000531992 0)
(-0.0112254 0.00059271 0)
(-0.01403 0.0006116 0)
(-0.0168506 0.000588066 0)
(-0.0196126 0.000473677 0)
(-0.0220218 0.000163489 0)
(-0.0236959 -0.000327913 0)
(-0.0245273 -0.00088592 0)
(-0.0248849 -0.0012848 0)
(-0.0255855 -0.00123223 0)
(-0.0279186 -0.000366788 0)
(-0.0341373 0.00261203 0)
(-0.0477883 0.0116526 0)
(-0.0718507 0.0338752 0)
(-0.109311 0.0646321 0)
(-0.159977 0.0711257 0)
(-0.195954 -0.00201012 0)
(0.0534493 -0.300023 0)
(-0.00285496 -0.105976 0)
(0.0537862 0.0774991 0)
(-0.0101844 0.0521999 0)
(-0.0625054 -0.0347919 0)
(-0.0617465 -0.0428467 0)
(-0.0438169 0.00412351 0)
(-0.0338692 0.072437 0)
(-0.043052 0.0922958 0)
(-0.0006087 0.000279642 0)
(-0.00200523 0.000379729 0)
(-0.00378958 0.000524257 0)
(-0.00602584 0.000687913 0)
(-0.00855649 0.000791839 0)
(-0.0112551 0.000900928 0)
(-0.0140877 0.000961081 0)
(-0.0169544 0.000976146 0)
(-0.0197978 0.000880272 0)
(-0.0223282 0.000520385 0)
(-0.0241492 -8.36257e-05 0)
(-0.025136 -0.00075328 0)
(-0.0256519 -0.00113902 0)
(-0.0265404 -0.000797256 0)
(-0.0290831 0.000912288 0)
(-0.0352617 0.00565532 0)
(-0.04757 0.0175487 0)
(-0.067165 0.0430121 0)
(-0.0913734 0.0740517 0)
(-0.116517 0.0759944 0)
(-0.149294 -0.033592 0)
(0.0519879 -0.32111 0)
(-0.038912 -0.0755045 0)
(0.0265606 0.101837 0)
(-0.0357279 0.0650562 0)
(-0.0567725 -0.0470815 0)
(-0.0515977 -0.0722064 0)
(-0.0865198 -0.0233479 0)
(-0.0363698 0.0528005 0)
(-0.0198974 -0.0155418 0)
(-0.000604824 0.00036477 0)
(-0.00199513 0.000496301 0)
(-0.00377559 0.000687638 0)
(-0.00601283 0.000907196 0)
(-0.00854527 0.00105209 0)
(-0.0112462 0.00121017 0)
(-0.0140854 0.00131253 0)
(-0.0169662 0.00136883 0)
(-0.0198478 0.00129659 0)
(-0.0224395 0.000891852 0)
(-0.0243175 0.000179247 0)
(-0.0253164 -0.000608059 0)
(-0.0257563 -0.000995387 0)
(-0.0264295 -0.000378087 0)
(-0.0284514 0.00213455 0)
(-0.0332784 0.00870643 0)
(-0.0420448 0.0238895 0)
(-0.0546668 0.0532104 0)
(-0.0624456 0.0805843 0)
(-0.0667099 0.0758977 0)
(-0.0917713 -0.0626722 0)
(0.0419905 -0.351437 0)
(-0.063836 -0.0662559 0)
(-0.0405416 0.0923204 0)
(0.0551174 0.10938 0)
(0.0443993 0.0146046 0)
(0.010393 -0.0252357 0)
(-0.044714 -0.0367162 0)
(-0.027627 0.00324919 0)
(0.0243136 -0.00723055 0)
(-0.000599827 0.000449305 0)
(-0.001982 0.000612429 0)
(-0.00375708 0.000850695 0)
(-0.0059948 0.00112662 0)
(-0.00852818 0.00131222 0)
(-0.0112298 0.00151964 0)
(-0.0140735 0.00166459 0)
(-0.0169653 0.00176425 0)
(-0.0198855 0.00172029 0)
(-0.0225406 0.00127213 0)
(-0.0244699 0.000444692 0)
(-0.0254513 -0.000478797 0)
(-0.0257357 -0.000908098 0)
(-0.0260202 -0.000117905 0)
(-0.0271106 0.00287012 0)
(-0.0295794 0.0100113 0)
(-0.0324637 0.0246458 0)
(-0.035264 0.0517074 0)
(-0.0245355 0.0736183 0)
(-0.0105695 0.0723297 0)
(0.00514737 -0.0866557 0)
(0.0865133 -0.34924 0)
(-0.0484376 -0.0463788 0)
(-0.0743218 0.0401791 0)
(0.0711404 0.0373651 0)
(0.0712538 -0.00330478 0)
(0.0454355 0.00638926 0)
(0.0210087 -0.000717685 0)
(0.00755219 -0.029102 0)
(0.000661107 -0.0191624 0)
(-0.000593751 0.000533133 0)
(-0.00196601 0.000728015 0)
(-0.00373438 0.00101336 0)
(-0.00597246 0.00134624 0)
(-0.00850654 0.00157218 0)
(-0.0112081 0.00182937 0)
(-0.0140558 0.0020173 0)
(-0.0169587 0.00216278 0)
(-0.0199229 0.0021528 0)
(-0.0226528 0.00166284 0)
(-0.0246423 0.000713135 0)
(-0.0255996 -0.000370618 0)
(-0.025698 -0.000884205 0)
(-0.025543 -9.27803e-06 0)
(-0.0257383 0.00337088 0)
(-0.0264247 0.0113259 0)
(-0.0252952 0.0269506 0)
(-0.0222011 0.0533897 0)
(0.00800246 0.0663051 0)
(0.0376766 0.0627851 0)
(0.120686 -0.0974115 0)
(0.156775 -0.295643 0)
(0.0230621 -0.00550523 0)
(-0.052 0.00335044 0)
(0.0525314 -0.0181302 0)
(-0.0647433 0.0193412 0)
(-0.0600702 0.022778 0)
(-0.140943 0.000292821 0)
(-0.249541 0.0333402 0)
(0.0121199 0.00102428 0)
(-0.000586594 0.00061612 0)
(-0.00194715 0.00084296 0)
(-0.0037075 0.00117557 0)
(-0.00594585 0.00156608 0)
(-0.00848044 0.00183195 0)
(-0.0111814 0.00213935 0)
(-0.0140327 0.00237063 0)
(-0.0169463 0.00256484 0)
(-0.0199605 0.00259585 0)
(-0.0227785 0.00206629 0)
(-0.0248415 0.000985825 0)
(-0.0257747 -0.000286595 0)
(-0.0256618 -0.000943779 0)
(-0.0249941 -0.000114604 0)
(-0.0240719 0.00318151 0)
(-0.0222912 0.0102948 0)
(-0.015602 0.0226667 0)
(-0.00613549 0.0419746 0)
(0.0375251 0.046339 0)
(0.0559063 0.0282895 0)
(0.182613 -0.116398 0)
(0.164706 -0.264497 0)
(0.16937 0.0228061 0)
(0.0508766 0.0431849 0)
(0.211938 0.0466606 0)
(0.0990292 0.104473 0)
(0.194587 0.0819321 0)
(0.0434182 0.246646 0)
(0.0243872 -0.277924 0)
(0.00302442 -0.302119 0)
(-0.000578348 0.000698129 0)
(-0.00192541 0.000957156 0)
(-0.00367638 0.00133724 0)
(-0.00591496 0.00178615 0)
(-0.00844987 0.00209144 0)
(-0.0111495 0.00244956 0)
(-0.0140038 0.00272449 0)
(-0.0169273 0.00297067 0)
(-0.0199976 0.00305117 0)
(-0.0229186 0.00248501 0)
(-0.0250716 0.00126471 0)
(-0.0259884 -0.000227604 0)
(-0.0256615 -0.00108134 0)
(-0.0245218 -0.000378206 0)
(-0.022787 0.00279635 0)
(-0.0196503 0.00946993 0)
(-0.010142 0.020424 0)
(0.00303674 0.0341076 0)
(0.0527204 0.0325516 0)
(0.0607074 -0.0096833 0)
(0.183632 -0.155684 0)
(0.126352 -0.211459 0)
(0.0385062 0.0177458 0)
(0.173274 0.00419393 0)
(0.195772 -0.121277 0)
(0.555026 0.00209687 0)
(0.620972 0.112249 0)
(0.482759 0.22632 0)
(0.470656 0.195093 0)
(0.336083 0.0977964 0)
(-0.000569005 0.000779026 0)
(-0.00190077 0.00107049 0)
(-0.00364099 0.0014983 0)
(-0.00587979 0.00200646 0)
(-0.00841483 0.00235057 0)
(-0.0111125 0.00275995 0)
(-0.0139689 0.00307871 0)
(-0.016901 0.00338046 0)
(-0.0200335 0.00352061 0)
(-0.0230736 0.00292189 0)
(-0.0253365 0.00155245 0)
(-0.0262473 -0.000194058 0)
(-0.0257003 -0.00130611 0)
(-0.0240653 -0.000844261 0)
(-0.0214667 0.00187922 0)
(-0.0168645 0.00705889 0)
(-0.00500644 0.0145468 0)
(0.0104173 0.0212175 0)
(0.0579596 0.0170824 0)
(0.0742777 -0.0392383 0)
(0.165014 -0.175071 0)
(0.106252 -0.163427 0)
(0.00111014 -0.0567483 0)
(0.14898 0.0488982 0)
(0.0174493 -0.38124 0)
(0.0059144 0.103577 0)
(-0.0350367 0.0116393 0)
(0.131951 0.168668 0)
(0.172603 0.156471 0)
(0.182585 0.283568 0)
(-0.000558555 0.000858674 0)
(-0.00187321 0.00118286 0)
(-0.00360128 0.00165867 0)
(-0.00584034 0.00222701 0)
(-0.00837534 0.00260926 0)
(-0.0110704 0.00307046 0)
(-0.0139278 0.00343305 0)
(-0.0168662 0.00379427 0)
(-0.0200668 0.00400616 0)
(-0.0232438 0.00338028 0)
(-0.0256404 0.00185266 0)
(-0.0265636 -0.000184303 0)
(-0.0258073 -0.00161417 0)
(-0.0237332 -0.00145738 0)
(-0.0205447 0.000808541 0)
(-0.0151616 0.00474543 0)
(-0.00223277 0.00953266 0)
(0.0149748 0.0101422 0)
(0.0554329 0.00204386 0)
(0.0946952 -0.0561243 0)
(0.107946 -0.196862 0)
(0.117149 -0.125712 0)
(0.188771 -0.126911 0)
(0.13229 -0.0265789 0)
(-0.0343784 -0.272075 0)
(0.0192984 0.138639 0)
(-0.109479 0.0566025 0)
(-0.0148371 0.0548113 0)
(0.0303133 0.269258 0)
(0.0835937 0.492152 0)
(-0.000546989 0.00093694 0)
(-0.00184271 0.00129415 0)
(-0.00355719 0.00181831 0)
(-0.00579659 0.00244776 0)
(-0.00833137 0.00286742 0)
(-0.011023 0.00338105 0)
(-0.0138804 0.00378721 0)
(-0.0168219 0.00421205 0)
(-0.0200962 0.00450999 0)
(-0.0234296 0.00386396 0)
(-0.0259874 0.00216987 0)
(-0.0269449 -0.000195321 0)
(-0.0259887 -0.00199449 0)
(-0.0234989 -0.00220866 0)
(-0.0198683 -0.00047922 0)
(-0.0141569 0.00204494 0)
(-0.00138058 0.00391948 0)
(0.0158913 -2.90481e-05 0)
(0.0474273 -0.0143523 0)
(0.104195 -0.0657932 0)
(0.0459856 -0.208794 0)
(0.121606 -0.176815 0)
(0.187777 0.0946865 0)
(0.33597 0.0982691 0)
(-0.0953352 -0.105842 0)
(-0.0119391 0.128603 0)
(-0.131156 -0.0159549 0)
(-0.0721856 0.0248215 0)
(-0.0757772 0.241272 0)
(0.0185786 0.509967 0)
(-0.000534296 0.00101369 0)
(-0.00180925 0.00140425 0)
(-0.00350868 0.00197716 0)
(-0.00574855 0.0026687 0)
(-0.00828295 0.00312496 0)
(-0.0109705 0.00369164 0)
(-0.0138262 0.00414084 0)
(-0.0167666 0.00463357 0)
(-0.02012 0.00503443 0)
(-0.023631 0.00437723 0)
(-0.0263819 0.00250951 0)
(-0.0274008 -0.000224057 0)
(-0.0262567 -0.00244882 0)
(-0.0233689 -0.00308371 0)
(-0.0193985 -0.00189187 0)
(-0.0136033 -0.000734949 0)
(-0.00124289 -0.0018838 0)
(0.0150772 -0.00964512 0)
(0.0419421 -0.0296153 0)
(0.0904527 -0.0745038 0)
(0.0587501 -0.212871 0)
(0.0907365 -0.147348 0)
(0.0185575 -0.108051 0)
(0.0934832 0.0941722 0)
(-0.134402 0.0133254 0)
(-0.0319025 0.170689 0)
(-0.13355 0.0195978 0)
(-0.120321 0.0301925 0)
(-0.125886 0.167058 0)
(-0.0300961 0.354001 0)
(-0.000520464 0.00108879 0)
(-0.00177279 0.00151304 0)
(-0.00345569 0.00213519 0)
(-0.00569621 0.00288978 0)
(-0.00823007 0.00338178 0)
(-0.0109127 0.00400219 0)
(-0.0137651 0.00449344 0)
(-0.0166987 0.00505838 0)
(-0.0201361 0.005582 0)
(-0.0238476 0.00492491 0)
(-0.0268283 0.00287815 0)
(-0.0279414 -0.000265361 0)
(-0.026627 -0.00296725 0)
(-0.0233788 -0.00403652 0)
(-0.0192868 -0.00317783 0)
(-0.0140392 -0.00290659 0)
(-0.0029999 -0.00628628 0)
(0.0114062 -0.0158458 0)
(0.0342847 -0.0405433 0)
(0.07901 -0.0902652 0)
(0.0667227 -0.197857 0)
(0.0519124 -0.171945 0)
(-0.129854 0.0600121 0)
(-0.0958525 0.0977714 0)
(-0.12983 0.0167637 0)
(-0.0564317 0.157462 0)
(-0.0979601 0.0273741 0)
(-0.106415 0.0429557 0)
(-0.107149 0.121637 0)
(-0.0389472 0.212444 0)
(-0.000505481 0.00116211 0)
(-0.00173331 0.00162042 0)
(-0.00339815 0.00229235 0)
(-0.00563958 0.00311095 0)
(-0.00817273 0.0036378 0)
(-0.0108498 0.00431265 0)
(-0.013697 0.00484445 0)
(-0.0166165 0.00548574 0)
(-0.020142 0.00615545 0)
(-0.0240789 0.00551235 0)
(-0.027331 0.00328316 0)
(-0.028575 -0.00031642 0)
(-0.0270963 -0.00356203 0)
(-0.0234357 -0.00517677 0)
(-0.0191691 -0.00494523 0)
(-0.0144949 -0.00559611 0)
(-0.00439627 -0.0118045 0)
(0.00761624 -0.0239858 0)
(0.0245448 -0.0537487 0)
(0.0599338 -0.104615 0)
(0.0643501 -0.155041 0)
(-0.249696 -0.0975982 0)
(-0.195899 0.0419028 0)
(-0.160462 0.067939 0)
(-0.132999 0.0282261 0)
(-0.096754 0.117144 0)
(-0.0748121 0.0374036 0)
(-0.0841538 0.0516676 0)
(-0.0714541 0.0940355 0)
(-0.0269952 0.133503 0)
(-0.000489335 0.00123352 0)
(-0.00169077 0.00172626 0)
(-0.00333601 0.00244861 0)
(-0.00557866 0.00333217 0)
(-0.00811095 0.00389294 0)
(-0.0107818 0.00462297 0)
(-0.0136216 0.00519319 0)
(-0.0165178 0.00591454 0)
(-0.0201347 0.00675776 0)
(-0.0243237 0.00614551 0)
(-0.0278948 0.00373387 0)
(-0.0293156 -0.000365154 0)
(-0.0277057 -0.00417304 0)
(-0.0237175 -0.00597681 0)
(-0.0194323 -0.00524197 0)
(-0.0160101 -0.00596068 0)
(-0.0080685 -0.0136375 0)
(0.000302663 -0.0235584 0)
(0.0138313 -0.0579365 0)
(0.0270244 -0.120876 0)
(0.0412612 -0.0393526 0)
(-0.255773 -0.0392552 0)
(-0.246305 0.0395759 0)
(-0.167494 0.0232639 0)
(-0.128066 0.0213665 0)
(-0.108127 0.0731764 0)
(-0.0662739 0.0322015 0)
(-0.0664281 0.0436361 0)
(-0.0471186 0.0647082 0)
(-0.0164565 0.0814562 0)
(-0.000472012 0.00130288 0)
(-0.00164513 0.00183045 0)
(-0.00326919 0.00260393 0)
(-0.00551346 0.00355335 0)
(-0.00804471 0.00414709 0)
(-0.0107089 0.00493315 0)
(-0.013539 0.00553882 0)
(-0.0164004 0.00634314 0)
(-0.0201106 0.00739226 0)
(-0.0245804 0.00683089 0)
(-0.028523 0.00423856 0)
(-0.0301607 -0.000429853 0)
(-0.0283357 -0.00507624 0)
(-0.0236883 -0.0081762 0)
(-0.0191778 -0.00869041 0)
(-0.0167487 -0.00937114 0)
(-0.00865146 -0.0196727 0)
(-0.00334727 -0.0331187 0)
(0.00429401 -0.0690006 0)
(-0.00625037 -0.129005 0)
(0.0143074 0.0375365 0)
(-0.175753 0.0168563 0)
(-0.11329 -0.0272141 0)
(-0.142679 -0.000129706 0)
(-0.0977173 0.0142904 0)
(-0.0933834 0.0397647 0)
(-0.0582418 0.0210282 0)
(-0.0508958 0.028558 0)
(-0.0323595 0.0385406 0)
(-0.0102916 0.0456881 0)
(-0.000453497 0.00137007 0)
(-0.00159635 0.00193288 0)
(-0.00319763 0.00275829 0)
(-0.00544399 0.00377441 0)
(-0.00797402 0.00440019 0)
(-0.0106311 0.00524318 0)
(-0.0134491 0.00588038 0)
(-0.0162616 0.00676921 0)
(-0.0200657 0.00806263 0)
(-0.0248469 0.00757563 0)
(-0.0292254 0.00481446 0)
(-0.0311864 -0.000429042 0)
(-0.0294292 -0.00534262 0)
(-0.0245879 -0.00738019 0)
(-0.0197958 -0.00545964 0)
(-0.0193138 -0.00621154 0)
(-0.0152847 -0.0187961 0)
(-0.0141849 -0.0239102 0)
(0.00184182 -0.0581663 0)
(-0.00237383 -0.118048 0)
(-0.0360359 0.0548235 0)
(-0.290079 0.0510143 0)
(-0.0579408 -0.066078 0)
(-0.134433 0.00748321 0)
(-0.0771396 0.00566658 0)
(-0.0749767 0.018173 0)
(-0.0483297 0.00884839 0)
(-0.0374816 0.0130912 0)
(-0.0222199 0.0180454 0)
(-0.0063006 0.0213119 0)
(-0.000433778 0.00143496 0)
(-0.00154439 0.00203343 0)
(-0.00312128 0.00291167 0)
(-0.00537026 0.00399526 0)
(-0.00789886 0.00465217 0)
(-0.0105487 0.00555313 0)
(-0.0133522 0.00621675 0)
(-0.0160984 0.00718971 0)
(-0.019995 0.00877326 0)
(-0.0251192 0.00838761 0)
(-0.0299904 0.00546038 0)
(-0.0321853 -0.000587234 0)
(-0.029832 -0.00745179 0)
(-0.0235867 -0.0127693 0)
(-0.018505 -0.0134409 0)
(-0.0204298 -0.0110735 0)
(-0.0137957 -0.0240317 0)
(-0.00896654 -0.0406904 0)
(0.0161878 -0.0822956 0)
(0.0499019 -0.0986548 0)
(-0.0893757 0.164259 0)
(-0.0300739 0.0573793 0)
(-0.0943763 -0.0600844 0)
(-0.126578 0.00234272 0)
(-0.0672515 -0.00984353 0)
(-0.0606033 -0.00120747 0)
(-0.0381086 -0.00444091 0)
(-0.0267803 -0.000969617 0)
(-0.0149045 0.00239537 0)
(-0.00358878 0.00431368 0)
(-0.000412839 0.00149742 0)
(-0.00148919 0.00213197 0)
(-0.00304005 0.00306404 0)
(-0.00529228 0.00421576 0)
(-0.00781922 0.004903 0)
(-0.0104621 0.00586306 0)
(-0.0132489 0.00654659 0)
(-0.0159072 0.00760135 0)
(-0.0198929 0.00952674 0)
(-0.0253963 0.0092725 0)
(-0.0308764 0.00622993 0)
(-0.0338074 -0.000270151 0)
(-0.0322703 -0.00610663 0)
(-0.0265223 -0.00797367 0)
(-0.0210541 -0.00349819 0)
(-0.023886 -0.00442891 0)
(-0.0190431 -0.0274225 0)
(-0.0213261 -0.0259463 0)
(0.00182409 -0.0854943 0)
(0.0830078 -0.0270523 0)
(-0.287649 0.0795886 0)
(-0.228278 0.0491054 0)
(-0.0857104 -0.0664877 0)
(-0.115498 -0.0172583 0)
(-0.0572823 -0.0297123 0)
(-0.046245 -0.0189907 0)
(-0.0286784 -0.0167668 0)
(-0.0188436 -0.0122289 0)
(-0.00998031 -0.00887995 0)
(-0.00199977 -0.00723795 0)
(-0.000390666 0.00155733 0)
(-0.0014307 0.00222837 0)
(-0.00295388 0.00321543 0)
(-0.00521005 0.00443577 0)
(-0.00773507 0.00515277 0)
(-0.0103715 0.00617302 0)
(-0.0131396 0.00686855 0)
(-0.0156844 0.00800225 0)
(-0.019753 0.0103297 0)
(-0.025664 0.010248 0)
(-0.0317335 0.00706004 0)
(-0.034553 -0.000998993 0)
(-0.0310918 -0.0110665 0)
(-0.0212378 -0.0189196 0)
(-0.00981766 -0.0188471 0)
(-0.0131867 -0.00795835 0)
(-0.0292368 -0.0233241 0)
(-0.0211458 -0.0513857 0)
(-0.0125492 -0.135952 0)
(0.0134183 0.0134911 0)
(-0.0337898 0.366517 0)
(-0.020866 -0.0405464 0)
(-0.0826949 -0.0682863 0)
(-0.0807462 -0.0364013 0)
(-0.049303 -0.0455789 0)
(-0.0370748 -0.0333196 0)
(-0.023933 -0.0267476 0)
(-0.0154094 -0.0208387 0)
(-0.00813269 -0.0171166 0)
(-0.00169973 -0.0154443 0)
(-0.000367244 0.00161455 0)
(-0.00136885 0.00232249 0)
(-0.00286272 0.00336583 0)
(-0.00512359 0.00465511 0)
(-0.00764638 0.00540174 0)
(-0.0102773 0.0064828 0)
(-0.0130251 0.00718021 0)
(-0.0154256 0.00838675 0)
(-0.0195676 0.0111681 0)
(-0.0259378 0.0112818 0)
(-0.0329901 0.00814253 0)
(-0.0378191 0.000469114 0)
(-0.0383685 -0.0068816 0)
(-0.0374416 -0.00982255 0)
(-0.0449024 -0.00226223 0)
(-0.057953 0.000687379 0)
(-0.00757882 -0.0360263 0)
(-0.00365478 -0.0323552 0)
(0.0651224 -0.0837295 0)
(-0.100581 -0.0138144 0)
(-0.00726042 0.0298029 0)
(-0.0120186 -0.0238427 0)
(-0.0703163 -0.0529712 0)
(-0.0617788 -0.0531835 0)
(-0.0436105 -0.0553736 0)
(-0.0346386 -0.0446429 0)
(-0.0241174 -0.0355752 0)
(-0.0160017 -0.0287815 0)
(-0.00879298 -0.0247907 0)
(-0.00231331 -0.023059 0)
(-0.000342561 0.00166897 0)
(-0.00130359 0.00241415 0)
(-0.0027665 0.00351531 0)
(-0.00503288 0.00487363 0)
(-0.00755312 0.00565049 0)
(-0.0101804 0.00679309 0)
(-0.0129066 0.00748257 0)
(-0.0151279 0.00876439 0)
(-0.0193314 0.0120959 0)
(-0.0261493 0.0125084 0)
(-0.0336057 0.00922746 0)
(-0.0367416 -0.00161622 0)
(-0.0308394 -0.0140614 0)
(-0.0152302 -0.0202462 0)
(0.0102627 -0.0187888 0)
(0.049276 -0.0120958 0)
(0.0179427 -0.0339844 0)
(-0.0462305 -0.0721344 0)
(0.174228 -0.0795659 0)
(-0.391068 -0.123953 0)
(0.340502 0.33857 0)
(-0.155647 0.0251339 0)
(-0.0369133 -0.0469727 0)
(-0.0511314 -0.0644538 0)
(-0.0369177 -0.0616 0)
(-0.0322529 -0.0523414 0)
(-0.0244278 -0.0432445 0)
(-0.0169765 -0.0367254 0)
(-0.00969041 -0.0329789 0)
(-0.00289247 -0.0313542 0)
(-0.000316605 0.00172044 0)
(-0.00123484 0.00250313 0)
(-0.00266515 0.0036638 0)
(-0.00493786 0.00509067 0)
(-0.0074552 0.00589834 0)
(-0.010081 0.00709984 0)
(-0.0127841 0.00775995 0)
(-0.0147824 0.00908631 0)
(-0.0190298 0.0129467 0)
(-0.0264387 0.0135803 0)
(-0.0360898 0.0107635 0)
(-0.0466398 0.00176994 0)
(-0.0636709 -0.00862712 0)
(-0.0896292 -0.0179313 0)
(-0.0856596 -0.0213353 0)
(-0.0534209 -0.00273069 0)
(-0.0232704 -0.00710657 0)
(-0.0165343 -0.11726 0)
(0.116448 0.0163585 0)
(0.379818 0.098801 0)
(0.0649965 0.254857 0)
(-0.0393564 0.0551447 0)
(-0.00639798 -0.0453989 0)
(-0.0369493 -0.0638789 0)
(-0.030456 -0.0637502 0)
(-0.0288796 -0.0568974 0)
(-0.0227773 -0.0496163 0)
(-0.0161772 -0.044322 0)
(-0.00935948 -0.0412591 0)
(-0.0028763 -0.0399088 0)
(-0.000289368 0.00176898 0)
(-0.00116252 0.00258949 0)
(-0.00255865 0.00381229 0)
(-0.00483857 0.0053083 0)
(-0.00735287 0.00615202 0)
(-0.00998123 0.00742231 0)
(-0.0126625 0.00806479 0)
(-0.0143967 0.00950654 0)
(-0.0186636 0.0142024 0)
(-0.0264081 0.0154381 0)
(-0.0349285 0.0125722 0)
(-0.0361369 0.00121073 0)
(-0.0238511 -0.00761573 0)
(-0.00771751 -0.016207 0)
(0.01965 -0.0285558 0)
(-0.0112253 -0.0212818 0)
(0.0220219 -0.0435769 0)
(-0.0615872 -0.150908 0)
(0.0366409 -0.136271 0)
(-0.0141446 -0.133116 0)
(0.180098 0.223005 0)
(-0.0168177 0.101851 0)
(-0.00377429 -0.0388666 0)
(-0.0312789 -0.0602825 0)
(-0.0265314 -0.0650856 0)
(-0.0245474 -0.0607267 0)
(-0.0189921 -0.0552236 0)
(-0.0133168 -0.0510623 0)
(-0.00761811 -0.0486129 0)
(-0.00227893 -0.0475154 0)
(-0.000260853 0.00181444 0)
(-0.00108649 0.00267246 0)
(-0.0024468 0.00395721 0)
(-0.00473448 0.00551446 0)
(-0.00724472 0.00638144 0)
(-0.00987801 0.00767551 0)
(-0.012532 0.00818581 0)
(-0.013936 0.00953455 0)
(-0.0182072 0.0146477 0)
(-0.0269132 0.0160486 0)
(-0.0414472 0.0141324 0)
(-0.0655841 0.00276458 0)
(-0.0914791 -0.013242 0)
(-0.0765436 -0.0275886 0)
(-0.0257864 -0.0242649 0)
(0.00343054 -0.0118072 0)
(0.0914873 0.000634457 0)
(0.090886 -0.102303 0)
(0.04195 -0.12497 0)
(0.202984 -0.0387628 0)
(-0.00128236 0.383614 0)
(-0.121771 0.128727 0)
(-0.0332021 -0.0419902 0)
(-0.0328544 -0.0614033 0)
(-0.0251321 -0.0681804 0)
(-0.0205856 -0.0650481 0)
(-0.014797 -0.0602772 0)
(-0.00986424 -0.0565097 0)
(-0.00544445 -0.0542234 0)
(-0.001555 -0.053186 0)
(-0.000231954 0.00186037 0)
(-0.00100689 0.00276103 0)
(-0.00233027 0.00413149 0)
(-0.00462745 0.00578078 0)
(-0.00713597 0.00673826 0)
(-0.00978624 0.00818807 0)
(-0.012424 0.00877683 0)
(-0.0134554 0.0104099 0)
(-0.0176609 0.0168971 0)
(-0.0262689 0.0194838 0)
(-0.035754 0.0184281 0)
(-0.0379986 0.0078511 0)
(-0.0404216 -0.0073406 0)
(-0.0664654 -0.0315076 0)
(-0.0775073 -0.0489803 0)
(-0.0541819 -0.0492949 0)
(0.0203985 -0.0536967 0)
(0.145924 -0.124315 0)
(0.0753214 -0.166565 0)
(-0.0545169 0.0599488 0)
(-0.229048 0.416565 0)
(-0.0800532 0.0738421 0)
(-0.0553216 -0.0513407 0)
(-0.0322948 -0.068447 0)
(-0.0251723 -0.073583 0)
(-0.0186763 -0.0703708 0)
(-0.0122867 -0.0652415 0)
(-0.0076333 -0.0610034 0)
(-0.00402731 -0.0583076 0)
(-0.00117315 -0.0570562 0)
(-0.00021744 0.00187993 0)
(-0.000921979 0.00280157 0)
(-0.00220519 0.00416681 0)
(-0.00450922 0.00581302 0)
(-0.00700903 0.00670985 0)
(-0.00966978 0.0080268 0)
(-0.0122771 0.00823603 0)
(-0.0128427 0.00959174 0)
(-0.0168773 0.0162494 0)
(-0.0262032 0.0187952 0)
(-0.0430587 0.0185421 0)
(-0.0590141 0.00673768 0)
(-0.0498902 -0.00723602 0)
(-0.0260901 -0.0207153 0)
(-0.0209399 -0.0346186 0)
(-0.0406343 -0.049241 0)
(0.0174087 -0.0873291 0)
(-0.00713511 -0.0761419 0)
(-1.53628 -0.10895 0)
(-0.185353 0.0148677 0)
(-0.375422 0.386752 0)
(-0.0241436 -0.00155004 0)
(-0.062721 -0.0610408 0)
(-0.0284887 -0.0766439 0)
(-0.0237644 -0.0799708 0)
(-0.0173374 -0.0763986 0)
(-0.0110127 -0.0704229 0)
(-0.00665542 -0.0651939 0)
(-0.00349569 -0.0617001 0)
(-0.00116315 -0.0600301 0)
(-0.000494032 0.00191487 0)
(-0.000844389 0.00294207 0)
(-0.00208838 0.00460555 0)
(-0.00440598 0.00635158 0)
(-0.00692192 0.00747527 0)
(-0.00965699 0.00911387 0)
(-0.0122007 0.00951793 0)
(-0.0122047 0.0109933 0)
(-0.0168126 0.0196869 0)
(-0.0291508 0.0241178 0)
(-0.0465247 0.0240775 0)
(-0.0699459 0.00921951 0)
(-0.0852826 -0.0131191 0)
(-0.0637845 -0.0336302 0)
(-0.014585 -0.0419382 0)
(0.00866418 -0.0495487 0)
(0.0177918 -0.094923 0)
(0.0728553 0.370218 0)
(0.69054 -0.529374 0)
(-0.328094 0.010563 0)
(-0.262854 0.294199 0)
(0.0202206 -0.0432993 0)
(-0.0381438 -0.0627794 0)
(-0.0141563 -0.0811865 0)
(-0.014587 -0.0846944 0)
(-0.0117623 -0.0813943 0)
(-0.00767757 -0.0749315 0)
(-0.00482709 -0.0688696 0)
(-0.00266538 -0.0646415 0)
(-0.00106737 -0.0625691 0)
(-0.00458215 0.00195514 0)
(-0.000761715 0.00277031 0)
(-0.00184088 0.00415971 0)
(-0.00365517 0.00659069 0)
(-0.00595421 0.00718912 0)
(-0.00886729 0.00861733 0)
(-0.0127035 0.00844595 0)
(-0.0124123 0.0103864 0)
(-0.0124128 0.018936 0)
(-0.0173605 0.0231701 0)
(-0.0393741 0.0267526 0)
(-0.0649281 0.0119024 0)
(-0.0946956 -0.0129065 0)
(-0.100843 -0.0432337 0)
(-0.0610245 -0.0592895 0)
(-0.0144153 -0.0586667 0)
(-0.0357697 -0.10365 0)
(0.0625629 0.159854 0)
(0.678816 0.291019 0)
(-0.432797 0.0520427 0)
(-0.0197305 0.1838 0)
(0.0378822 -0.0593005 0)
(0.0058769 -0.0610363 0)
(0.0111993 -0.0800671 0)
(0.00520563 -0.0848871 0)
(0.00165285 -0.0826564 0)
(0.000825068 -0.0767573 0)
(0.000148972 -0.0705776 0)
(-0.000149985 -0.0661162 0)
(-0.000388104 -0.0638902 0)
(-0.0378988 0.0212577 0)
(-0.0806389 0.0157582 0)
(-0.0695857 -0.0116857 0)
(-0.0613884 -0.0258755 0)
(-0.0101495 -0.0332444 0)
(0.0319478 0.0064976 0)
(-0.0472453 0.0240218 0)
(-0.0830583 -0.0130761 0)
(0.117933 -0.0594473 0)
(0.265916 0.0186745 0)
(0.158249 0.0256004 0)
(0.0357921 0.0142421 0)
(-0.00764234 0.00300541 0)
(-0.0174708 -0.000907131 0)
(-0.0167871 -0.00147372 0)
(-0.0120637 -0.00131307 0)
(-0.00648191 -0.00108662 0)
(-0.00110584 -0.000894666 0)
(0.00354021 -0.000673695 0)
(0.00702929 -0.000463764 0)
(0.00910689 -0.000284602 0)
(0.00988165 -0.000151349 0)
(0.00971174 -5.88603e-05 0)
(0.00892263 -2.63974e-06 0)
(0.00768159 3.14543e-05 0)
(0.00617497 4.72631e-05 0)
(0.00453233 5.36262e-05 0)
(0.00293695 4.68651e-05 0)
(0.00158179 3.66569e-05 0)
(0.000484296 2.96095e-05 0)
(-0.0175526 0.09179 0)
(-0.034915 0.0391646 0)
(-0.0369547 -0.0144455 0)
(-0.0277489 -0.0517153 0)
(-0.0099277 -0.0612085 0)
(0.00299261 0.0156282 0)
(-0.0653379 0.0638046 0)
(-0.0592004 -0.0734175 0)
(0.0270829 -0.211533 0)
(0.247603 0.0160993 0)
(0.190144 0.0557286 0)
(0.102904 0.0446717 0)
(0.0555134 0.0195006 0)
(0.0328134 0.00454763 0)
(0.0228153 -0.000357287 0)
(0.0197141 -0.00148856 0)
(0.019507 -0.00158709 0)
(0.0202752 -0.00139816 0)
(0.0210125 -0.00100149 0)
(0.0210613 -0.000558368 0)
(0.0201047 -0.000180345 0)
(0.0182672 7.56779e-05 0)
(0.0159363 0.000210045 0)
(0.0134233 0.000270026 0)
(0.0108367 0.000290633 0)
(0.00830019 0.000277511 0)
(0.00588141 0.000253129 0)
(0.00372067 0.000200054 0)
(0.00197549 0.000147551 0)
(0.00060153 0.000108526 0)
(0.043638 0.0923483 0)
(0.0346067 0.0723299 0)
(0.0436504 0.0043082 0)
(0.0614547 -0.0433044 0)
(0.0625545 -0.0349496 0)
(0.00975434 0.0519939 0)
(-0.0537856 0.0774588 0)
(0.00218847 -0.105701 0)
(-0.0541752 -0.300387 0)
(0.195876 -0.00177164 0)
(0.15943 0.0711768 0)
(0.109014 0.064548 0)
(0.0716972 0.0337969 0)
(0.0476898 0.0116119 0)
(0.0340909 0.00259096 0)
(0.027902 -0.000379158 0)
(0.0255852 -0.00123865 0)
(0.0248932 -0.00128765 0)
(0.0245386 -0.000886377 0)
(0.0237052 -0.000326616 0)
(0.0220261 0.000164864 0)
(0.0196141 0.000474119 0)
(0.0168514 0.000588235 0)
(0.0140304 0.000611621 0)
(0.0112273 0.000592501 0)
(0.00854181 0.000533072 0)
(0.00602223 0.000467761 0)
(0.00379535 0.000361304 0)
(0.00201013 0.000262838 0)
(0.000611216 0.000194182 0)
(0.0210385 -0.0154306 0)
(0.0368946 0.0532856 0)
(0.0866182 -0.0225545 0)
(0.0516328 -0.0723021 0)
(0.0566983 -0.0473124 0)
(0.0355846 0.0650319 0)
(-0.0268019 0.101806 0)
(0.0385811 -0.0752599 0)
(-0.0524686 -0.321531 0)
(0.149064 -0.0334636 0)
(0.115905 0.0760026 0)
(0.0910503 0.0739538 0)
(0.0670001 0.0429143 0)
(0.0474678 0.0174869 0)
(0.0352151 0.00562126 0)
(0.0290674 0.000893225 0)
(0.026541 -0.00080663 0)
(0.0256608 -0.00114366 0)
(0.0251478 -0.000753894 0)
(0.0241588 -8.16119e-05 0)
(0.0223325 0.0005225 0)
(0.0197992 0.000880945 0)
(0.0169552 0.000976399 0)
(0.0140881 0.000961104 0)
(0.011257 0.000900611 0)
(0.00855489 0.000793407 0)
(0.00602475 0.000686074 0)
(0.00379157 0.000524975 0)
(0.0020057 0.000379611 0)
(0.000609233 0.000279851 0)
(-0.0252742 -0.00647173 0)
(0.0276357 0.00486571 0)
(0.0451847 -0.0361275 0)
(-0.009245 -0.0254168 0)
(-0.0437085 0.0143407 0)
(-0.0546914 0.109457 0)
(0.0403434 0.0925782 0)
(0.063894 -0.0658392 0)
(-0.0425406 -0.35178 0)
(0.0915078 -0.0625728 0)
(0.066148 0.075874 0)
(0.0621501 0.080438 0)
(0.054513 0.0530617 0)
(0.041951 0.0237966 0)
(0.0332373 0.00865761 0)
(0.028439 0.00210886 0)
(0.0264322 -0.000390534 0)
(0.0257666 -0.00100123 0)
(0.0253292 -0.000608768 0)
(0.0243275 0.000182055 0)
(0.0224437 0.000894726 0)
(0.0198491 0.00129749 0)
(0.0169669 0.00136916 0)
(0.0140858 0.00131255 0)
(0.0112482 0.00120974 0)
(0.00854361 0.00105417 0)
(0.00601168 0.000904764 0)
(0.00377767 0.000688583 0)
(0.00199557 0.000496146 0)
(0.00060537 0.000365036 0)
(-0.00108278 -0.0197406 0)
(-0.0075326 -0.0301146 0)
(-0.0209854 -0.00146113 0)
(-0.0447243 0.00609194 0)
(-0.0703239 -0.00309269 0)
(-0.0706417 0.037932 0)
(0.074364 0.0406571 0)
(0.0488518 -0.0456806 0)
(-0.0877094 -0.348984 0)
(-0.00523776 -0.0866283 0)
(0.0101669 0.072306 0)
(0.0243514 0.0734448 0)
(0.0351663 0.0515417 0)
(0.032396 0.0245367 0)
(0.0295498 0.00995148 0)
(0.0271034 0.00283869 0)
(0.0260256 -0.000133227 0)
(0.0257475 -0.00091451 0)
(0.025465 -0.00047946 0)
(0.0244803 0.0004484 0)
(0.0225447 0.00127582 0)
(0.0198865 0.0017214 0)
(0.016966 0.00176465 0)
(0.0140737 0.0016646 0)
(0.0112319 0.00151909 0)
(0.00852643 0.00131482 0)
(0.00599357 0.00112357 0)
(0.00375927 0.000851882 0)
(0.00198242 0.000612235 0)
(0.000600388 0.000449629 0)
(-0.00960004 0.000801827 0)
(0.252456 0.0336751 0)
(0.143348 0.000354377 0)
(0.0601698 0.0221308 0)
(0.0650442 0.0191846 0)
(-0.0525129 -0.0173171 0)
(0.0520358 0.0035014 0)
(-0.0225605 -0.00533183 0)
(-0.157866 -0.295234 0)
(-0.120364 -0.0976176 0)
(-0.0378538 0.0627876 0)
(-0.00804354 0.0660824 0)
(0.022185 0.0532074 0)
(0.0252633 0.0268289 0)
(0.0264103 0.0112585 0)
(0.0257378 0.00333527 0)
(0.0255516 -2.65464e-05 0)
(0.0257116 -0.000890233 0)
(0.0256145 -0.00037111 0)
(0.0246531 0.000717868 0)
(0.0226566 0.00166739 0)
(0.0199235 0.0021541 0)
(0.0169592 0.00216323 0)
(0.0140561 0.00201729 0)
(0.0112104 0.00182867 0)
(0.00850468 0.00157536 0)
(0.00597113 0.00134252 0)
(0.00373672 0.00101481 0)
(0.00196639 0.000727782 0)
(0.000594333 0.000533515 0)
(-0.0190804 -0.297237 0)
(-0.0411374 -0.26913 0)
(-0.062696 0.251557 0)
(-0.190765 0.0775988 0)
(-0.0954806 0.103567 0)
(-0.212011 0.0489343 0)
(-0.0508353 0.0431129 0)
(-0.168953 0.0245448 0)
(-0.164581 -0.264751 0)
(-0.182351 -0.116638 0)
(-0.0558515 0.0283841 0)
(-0.0374798 0.0460955 0)
(0.00617213 0.0417952 0)
(0.0155914 0.0225406 0)
(0.0222891 0.0102233 0)
(0.024078 0.00314295 0)
(0.0250067 -0.000133408 0)
(0.0256773 -0.000950237 0)
(0.0257906 -0.000286864 0)
(0.0248528 0.000991732 0)
(0.022782 0.00207179 0)
(0.0199608 0.00259732 0)
(0.0169467 0.00256532 0)
(0.0140328 0.0023706 0)