/*--------------------------------*- C++ -*----------------------------------*\
| =========                 |                                                 |
| \\      /  F ield         | OpenFOAM: The Open Source CFD Toolbox           |
|  \\    /   O peration     | Version:  2.4.0                                 |
|   \\  /    A nd           | Web:      www.OpenFOAM.org                      |
|    \\/     M anipulation  |                                                 |
\*---------------------------------------------------------------------------*/
FoamFile
{
    version     2.0;
    format      ascii;
    class       volScalarField;
    location    "0.118";
    object      p;
}
// * * * * * * * * * * * * * * * * * * * * * * * * * * * * * * * * * * * * * //

dimensions      [1 -1 -2 0 0 0 0];

internalField   nonuniform List<scalar> 
14400
(
104.481
105.631
103.609
100.844
97.849
94.6458
91.0514
87.3029
84.1265
82.2091
81.9743
83.3457
85.9905
89.3177
92.6266
95.5389
97.9194
99.8123
101.303
102.471
103.382
104.086
104.624
105.027
105.322
105.531
105.673
105.762
105.811
105.828
101.226
102.377
100.352
97.5836
94.5845
91.3798
87.7833
84.0293
80.8457
78.9213
78.6821
80.0516
82.7088
86.0537
89.3876
92.3093
94.6901
96.5788
98.0637
99.227
100.134
100.834
101.369
101.769
102.063
102.27
102.411
102.499
102.547
102.565
97.9705
99.132
97.1005
94.3298
91.3193
88.115
84.513
80.7446
77.5394
75.5897
75.3309
76.6843
79.3558
82.7449
86.1329
89.0891
91.4873
93.3816
94.8659
96.0251
96.9258
97.621
98.1503
98.5464
98.8359
99.0409
99.1794
99.2663
99.3134
99.3303
94.7131
95.895
93.8541
91.0823
88.0567
84.8498
81.2388
77.447
74.2077
72.2171
71.9252
73.2494
75.9382
79.3969
82.8666
85.8806
88.3101
90.2176
91.7046
92.861
93.7561
94.4453
94.9683
95.3593
95.6444
95.8462
95.9824
96.0678
96.1141
96.1306
91.4539
92.667
90.6131
87.8416
84.7958
81.5845
77.9607
74.1362
70.8504
68.8031
68.4657
69.7468
72.4555
76.0102
79.591
82.6835
85.1545
87.08
88.5719
89.7267
90.6181
91.3014
91.8183
92.2045
92.4859
92.6849
92.8192
92.9035
92.9491
92.9654
88.1928
89.4478
87.3772
84.6077
81.5364
78.3189
74.6788
70.8117
67.4669
65.3471
64.9523
66.173
68.9025
72.5819
76.3065
79.4985
82.0202
83.9676
85.4661
86.6202
87.508
88.1858
88.6986
89.0808
89.3594
89.5563
89.6893
89.7728
89.8181
89.8343
84.929
86.2381
84.1459
81.3809
78.2781
75.0532
71.3933
67.4735
64.057
61.8482
61.3851
62.5237
65.2719
69.1083
73.0139
76.3277
78.9087
80.8811
82.3874
83.542
84.4259
85.0999
85.6091
85.9882
86.2646
86.4601
86.5923
86.6753
86.7205
86.7368
81.6622
83.0382
80.9186
78.1614
75.0207
71.7878
68.1043
64.1209
60.6202
58.3056
57.7643
58.7934
61.5542
65.584
69.7143
73.1735
75.8216
77.8215
79.3365
80.4915
81.3727
82.0434
82.5496
82.9264
83.2013
83.3958
83.5276
83.6105
83.6557
83.6722
78.3917
79.8485
77.6944
74.9492
71.7636
68.5226
64.8121
60.7535
57.1557
54.7178
54.0911
54.9755
57.7362
62.002
66.4093
70.0389
72.7608
74.7895
76.3136
77.4686
78.3478
79.0159
79.5198
79.8951
80.1689
80.363
80.4946
80.5776
80.6229
80.6397
75.1164
76.6698
74.472
71.7448
68.5063
65.2581
61.5171
57.3704
53.6626
51.0831
50.3676
51.0622
53.8009
58.3535
63.1013
66.9278
69.7283
71.7859
73.3179
74.4736
75.351
76.0169
76.5192
76.8936
77.1671
77.3612
77.493
77.5762
77.6219
77.6391
71.8356
73.5028
71.25
68.5485
65.248
61.9945
58.2199
53.9706
50.1394
47.3995
46.5972
47.0446
49.7255
54.627
59.7941
63.8444
66.7261
68.8114
70.3498
71.5057
72.3814
73.0457
73.5471
73.9212
74.195
74.3897
74.5221
74.6059
74.6522
74.6699
68.548
70.3485
68.0266
65.3605
61.9876
58.7321
54.9212
50.5529
46.584
43.6638
42.7858
42.9122
45.4801
50.8064
56.4939
60.7939
63.756
65.8653
67.4085
68.564
69.438
70.1011
70.6023
70.9771
71.252
71.4478
71.5813
71.666
71.7131
71.7315
65.2522
67.2082
64.7997
62.1813
58.7237
55.4715
51.6221
47.1156
42.9935
39.8716
38.9421
38.6544
41.0258
46.8698
53.2099
57.7827
60.82
62.9473
64.4925
65.6472
66.5195
67.1818
67.6836
68.0601
68.337
68.5347
68.6699
68.7561
68.8043
68.8235
61.9467
64.0835
61.5664
59.0118
55.4542
52.2132
48.324
43.6568
39.3634
36.0173
35.0794
34.2654
36.3135
42.7857
49.9552
54.8191
57.9192
60.0561
61.5998
62.7534
63.624
64.286
64.7896
65.169
65.4491
65.6497
65.7873
65.8754
65.925
65.9453
58.6298
60.9758
58.3228
55.8531
52.1835
48.9575
45.0285
40.1742
35.6869
32.0942
31.2154
29.7517
31.2851
38.5204
46.7487
51.9139
55.0539
57.1886
58.7271
59.8801
60.7491
61.4115
61.9182
62.3021
62.5868
62.7916
62.9325
63.0231
63.0746
63.0962
55.2992
57.8871
55.0651
52.7062
48.9221
45.7048
41.7376
36.6648
31.9552
28.0852
27.371
25.1108
25.8502
34.0553
43.6186
49.0703
52.2255
54.3395
55.8703
57.0249
57.8921
58.5555
59.0672
59.4579
59.7491
59.9595
60.1047
60.1985
60.2523
60.2755
51.9527
54.8194
51.7888
49.5709
45.6614
42.4561
38.4539
33.1251
28.1604
23.9807
23.5755
20.3307
19.8173
29.322
40.589
46.2997
49.4294
51.4989
53.0249
54.1846
55.0494
55.7146
56.2339
56.6341
56.9343
57.152
57.3029
57.4008
57.4573
57.4821
48.5874
51.7751
48.4884
46.4478
42.3986
39.2123
35.18
29.5511
24.3208
19.7839
19.8667
15.4368
12.8696
24.1909
37.6321
43.5956
46.6646
48.6528
50.189
51.3562
52.2163
52.8846
53.4157
53.8293
54.1411
54.3678
54.5257
54.6286
54.6885
54.7154
45.2002
48.7569
45.1572
43.339
39.1318
35.975
31.9191
25.9414
20.5371
15.571
16.2861
10.472
4.56869
18.4595
34.74
40.9646
43.9193
45.7943
47.3543
48.5333
49.3837
50.0598
50.6087
51.0407
51.3677
51.6062
51.7723
51.8809
51.9448
51.9745
41.7874
45.7681
41.7871
40.2476
35.8585
32.746
28.6743
22.3053
16.979
11.5426
12.8624
5.48482
-5.55911
12.3234
32.2194
38.3803
41.1507
42.9225
44.5292
45.714
46.5506
47.2384
47.8121
48.2669
48.6125
48.8649
49.0407
49.1559
49.2244
49.2571
38.3449
42.8123
38.3681
37.1782
32.576
29.5275
25.4489
18.66
13.72
7.88748
9.59179
0.616228
-19.0799
5.25217
30.1547
35.8154
38.5086
40.0341
41.7055
42.8975
43.7231
44.4198
45.0247
45.5086
45.8753
46.1424
46.3294
46.4525
46.5255
46.5603
34.8678
39.8934
34.8889
34.1348
29.2812
26.3224
22.2459
15.0126
10.6576
4.61328
6.38506
-0.391335
-0.172593
3.70004
29.0754
33.3775
36.0172
37.0885
38.7953
40.045
40.8699
41.5954
42.2421
42.7616
43.1532
43.4378
43.6377
43.7692
43.8467
43.8835
31.3505
37.0159
31.3363
31.1195
25.9704
23.1343
19.0685
11.3619
7.65353
1.5148
2.07044
0.24007
0.350848
3.21275
26.3208
30.9386
33.5255
33.9335
35.6709
36.8682
37.9236
38.7505
39.4621
40.0211
40.4399
40.7459
40.9596
41.1
41.1838
41.2246
27.7868
34.1849
27.6938
28.1341
22.6395
19.9673
15.9228
7.73476
4.82088
-0.144509
0.110845
0.20958
0.0635675
-25.2999
26.248
28.2742
30.7594
30.4829
32.3534
33.5845
34.9262
35.8841
36.6853
37.2902
37.7347
38.06
38.2876
38.4387
38.5312
38.5781
24.1692
31.4058
23.9387
25.1834
19.2842
16.8269
12.8135
4.34305
0.0504484
-0.0321914
0.0733125
0.197918
0.050724
-3.2115
26.5938
25.4329
28.0814
27.04
29.2019
30.5615
31.8996
33.0134
33.9058
34.5645
35.0343
35.3782
35.621
35.7832
35.8834
35.9347
20.4891
28.6848
20.0345
22.288
15.8962
13.7189
9.72119
0.690054
0.0332344
-0.103593
0.0177068
0.172666
0.131413
-0.921859
23.6465
21.887
25.7697
22.6246
26.3107
27.5715
28.5286
30.1617
31.1109
31.813
32.3176
32.6953
32.9608
33.1327
33.2341
33.2843
16.7365
26.0291
16.1845
19.491
12.4842
10.6479
6.7011
-3.28976
0.0743814
-0.11921
-0.0121393
0.134209
0.187964
-0.239371
19.4145
17.0445
22.2631
17.2405
23.2785
24.5445
24.925
27.3207
28.2908
29.0153
29.571
30.0003
30.2939
30.4748
30.5747
30.621
12.9005
23.4463
12.0347
16.6612
9.03028
7.62082
0.958486
0.0096435
0.0281466
-0.124838
-0.032563
0.0937584
0.221617
-0.143385
5.69356
13.2366
18.2458
13.1004
21.0474
21.6019
21.2598
24.4922
25.4684
26.1978
26.8007
27.2804
27.6036
27.7971
27.8992
27.9433
8.96969
20.9009
16.5423
13.7074
5.45897
4.7041
-2.47568
0.0219272
0.00443326
-0.121995
-0.0455412
0.0569551
0.171085
-0.014455
1.54185
10.7847
16.213
9.44688
19.2188
19.0683
18.1096
21.6939
22.6855
23.3794
23.9945
24.5159
24.8742
25.0928
25.2115
25.2624
4.94638
18.2956
18.483
11.1281
1.87563
0.15599
0.00140676
0.00884774
-0.0121795
-0.114935
-0.0529019
0.0283202
0.111463
0.0397874
-0.410872
3.47515
15.7294
5.38002
11.495
14.6227
15.0392
18.9261
19.9177
20.572
21.1856
21.7464
22.137
22.3864
22.5308
22.5956
105.822
105.794
105.736
105.64
105.493
105.283
104.991
104.597
104.075
103.394
102.515
101.393
99.972
98.1775
95.9337
93.1832
89.9632
86.5723
83.5635
81.5979
81.1348
82.3665
85.1457
88.9278
93.1249
97.3663
101.323
104.548
106.775
107.775
102.559
102.531
102.473
102.377
102.232
102.023
101.733
101.341
100.822
100.144
99.2695
98.1522
96.7352
94.9454
92.7035
89.9467
86.7119
83.2995
80.2721
78.3033
77.8446
79.0817
81.8684
85.6567
89.8583
94.1027
98.0626
101.289
103.519
104.519
99.3243
99.2964
99.2398
99.1453
99.0018
98.7956
98.5092
98.1216
97.607
96.9342
96.0657
94.9535
93.5384
91.7455
89.4903
86.7038
83.4253
79.9612
76.9029
74.9406
74.5029
75.7616
78.5725
82.3783
86.5904
90.8416
94.8094
98.0376
100.269
101.266
96.1246
96.0971
96.0412
95.9481
95.8068
95.6035
95.3212
94.9388
94.4303
93.7636
92.9011
91.7929
90.3772
88.5751
86.2952
83.4601
80.1087
76.5649
73.4628
71.5152
71.1132
72.4077
75.2569
79.0905
83.3199
87.5823
91.5625
94.7935
97.0255
98.0149
92.9595
92.9324
92.8772
92.7854
92.6459
92.4453
92.1667
91.789
91.2874
90.6253
89.7681
88.6626
87.2444
85.4291
83.116
80.2159
76.7635
73.1111
69.9515
68.0274
67.6759
69.0193
71.9214
75.7932
80.047
84.3246
88.3223
91.5568
93.7893
94.766
89.8286
89.8018
89.7473
89.6565
89.5186
89.3203
89.0447
88.6709
88.1729
87.5178
86.6647
85.5606
84.1386
82.3069
79.953
76.9715
73.3885
69.595
66.3642
64.4761
64.1907
65.5955
68.5657
72.4866
76.7717
81.0685
85.0886
88.3274
90.5601
91.5191
86.7313
86.7049
86.651
86.5612
86.4246
86.2281
85.955
85.5845
85.0904
84.4401
83.5921
82.4866
81.0607
79.2097
76.808
73.7283
69.9817
66.0104
62.695
60.86
60.6576
62.1354
65.1897
69.1708
73.4944
77.8138
81.8619
85.1055
87.338
88.274
83.6669
83.641
83.5877
83.4987
83.3633
83.1684
82.8974
82.5297
82.0392
81.3929
80.5485
79.4443
78.0119
76.1394
73.6834
70.4883
66.5409
62.349
58.9363
57.178
57.0771
58.6376
61.7933
65.8459
70.2155
74.5601
78.6444
81.891
84.1229
85.0304
80.6348
80.6094
80.5567
80.4685
80.3342
80.1407
79.8715
79.5063
79.0189
78.3761
77.5343
76.4329
74.993
73.0976
70.5819
67.2542
63.0632
58.6001
55.0784
53.4291
53.4497
55.1
58.3763
62.5121
66.9353
71.3071
75.4353
78.6839
80.9148
81.788
77.6346
77.6097
77.5577
77.4702
77.3369
77.1445
76.8769
76.5138
76.029
75.3893
74.5503
73.4506
72.0052
70.0864
67.5069
64.0297
59.5456
54.7494
51.1092
49.6133
49.7766
51.5201
54.9386
59.1694
63.6544
68.0542
72.2345
75.4841
77.7137
78.5463
74.6659
74.6415
74.5901
74.5034
74.3708
74.1794
73.913
73.5515
73.0689
72.4322
71.5963
70.4982
69.048
67.1078
64.4622
60.8197
55.9844
50.7784
47.0127
45.7314
46.0599
47.8938
51.4802
55.8181
60.3734
64.8009
69.0423
72.2915
74.5198
75.305
71.7282
71.7043
71.6535
71.5673
71.4353
71.2445
70.9789
70.6184
70.1377
69.5038
68.6712
67.5755
66.1224
64.1634
61.4522
57.63
52.3758
46.6621
42.7677
41.7864
42.3028
44.2157
48.0008
52.4578
57.0931
61.5459
65.859
69.1061
71.3328
72.0633
68.8208
68.7975
68.7472
68.6615
68.5297
68.3391
68.0736
67.7137
67.2342
66.6028
65.7741
64.6818
63.2281
61.2545
58.4819
54.4687
48.7166
42.3665
38.344
37.7842
38.5101
40.4779
44.5004
49.0883
53.8143
58.2879
62.6853
65.9278
68.153
68.8207
65.9434
65.9207
65.8708
65.7852
65.6533
65.4623
65.1963
64.8359
64.3569
63.7278
62.9035
61.8159
60.3643
58.3827
55.5558
51.3445
45.0066
37.8374
33.6973
33.7357
34.6884
36.6691
40.9789
45.7093
50.5378
55.025
59.5217
62.7565
64.9802
65.5765
63.0952
63.073
63.0234
62.9376
62.8051
62.6129
62.3452
61.9832
61.5037
60.8766
60.0574
58.9757
57.5288
55.5484
52.6814
48.2657
41.2558
32.9761
28.7651
29.6556
30.846
32.773
37.4358
42.3196
47.2645
51.7543
56.3687
59.5919
61.8144
62.3297
60.2754
60.2538
60.2042
60.1179
59.9842
59.7898
59.5192
59.154
58.6723
58.0464
57.2333
56.1589
54.7179
52.7513
49.8713
45.2417
37.4915
27.6201
23.4633
25.5672
26.9934
28.7671
33.8705
38.9179
43.9948
48.4725
53.227
56.434
58.6558
59.0795
57.4831
57.4621
57.4125
57.3253
57.1894
56.9917
56.7164
56.3459
55.8596
55.2338
54.4285
53.363
51.9256
49.9878
47.1275
42.298
33.7528
21.5801
17.7082
21.5088
23.1429
24.6246
30.2827
35.5024
40.7291
45.175
50.0972
53.2827
55.5045
55.8247
54.7175
54.697
54.6471
54.5583
54.4194
54.2171
53.9354
53.5567
53.0625
52.4347
51.6395
50.5885
49.1441
47.246
44.4581
39.4325
30.0454
14.5876
11.4044
17.533
19.3122
20.3396
26.6753
32.071
37.4674
41.8563
46.9796
50.1375
52.3604
52.5641
51.9781
51.9577
51.9067
51.8159
51.6733
51.4647
51.1738
50.7831
50.2762
49.6412
48.8567
47.8282
46.3683
44.5229
41.8835
36.6951
26.2288
6.06689
4.39377
13.7106
15.5342
15.9898
23.0616
28.6211
34.2104
38.5087
43.8745
46.9981
49.2238
49.2962
49.2621
49.2418
49.1896
49.0962
48.9491
48.7327
48.4302
48.0242
47.4989
46.8493
46.0794
45.0891
43.6222
41.8083
39.3817
34.1356
22.5195
-4.5975
-3.36966
10.1199
11.8702
11.7601
19.4678
25.151
30.9592
35.1328
40.7819
43.8644
46.0949
46.0196
46.5665
46.547
46.4943
46.3978
46.2445
46.0194
45.704
45.2783
44.7285
44.0604
43.3153
42.3789
40.876
39.0819
36.9811
31.9755
19.1375
-17.027
-11.1353
6.77254
8.39498
7.7834
15.9029
21.6608
27.7157
31.7378
37.7014
40.7357
42.974
42.7322
43.8908
43.8721
43.8192
43.7193
43.559
43.3229
42.9923
42.5428
41.9621
41.2642
40.5214
39.6075
38.0914
36.4122
34.8519
30.1981
14.7497
-29.7944
-0.0405035
3.11573
5.11315
3.93223
12.3413
18.1548
24.4824
28.2993
34.6327
37.6117
39.8617
39.432
41.2336
41.2143
41.1585
41.0544
40.8871
40.6385
40.289
39.8137
39.1902
38.4339
37.5902
36.6313
35.157
33.6442
32.6139
28.7291
11.0208
-0.932733
0.0903558
0.00688387
1.18706
-0.182976
8.74906
14.6422
21.2622
24.8024
31.5752
34.4919
36.7587
36.1169
38.5891
38.5676
38.5064
38.3954
38.2199
37.96
37.5931
37.0889
36.4044
35.5754
34.5042
33.457
31.9888
30.6047
30.3267
27.7469
2.90317
-0.272997
0.0227176
8.77084e-05
-0.143805
-3.45252
5.26754
11.1398
18.0583
21.2379
28.5276
31.3754
33.6658
32.7843
35.947
35.924
35.8587
35.7411
35.5558
35.2835
34.9001
34.3608
33.6035
32.712
31.4237
30.3805
28.7033
27.6924
28.1397
27.2883
-18.9651
-0.161238
-0.0347995
-0.0417052
-0.109173
-0.223386
1.81276
7.73141
14.8739
17.6015
25.4878
28.2615
30.5843
29.432
33.2965
33.2749
33.2114
33.0913
32.8938
32.5975
32.1842
31.6062
30.7739
29.7106
28.0849
27.73
25.2819
24.3973
26.1962
26.4247
-3.64589
-0.131869
-0.0667972
-0.0851285
-0.119068
-0.0883007
-2.32572
4.43613
11.7054
13.8857
22.4531
25.149
27.5156
26.0574
30.6317
30.6121
30.5521
30.4311
30.221
29.8921
29.4311
28.8163
27.9316
26.3782
24.5931
24.9699
21.6827
19.5351
21.7854
23.7986
-3.802
-0.192396
-0.085338
-0.117756
-0.122292
-0.0960769
-0.0807548
-1.36791
8.53333
10.0724
19.4202
22.0365
24.4618
22.6575
27.9519
27.9311
27.8694
27.7424
27.5181
27.1608
26.6626
26.0357
25.137
23.3527
20.1375
20.7494
17.0823
15.9285
17.1529
16.1829
-1.80437
-0.146757
-0.0897745
-0.140651
-0.121094
-0.101872
-0.087339
-1.42325
5.16303
6.15223
16.3856
18.9223
21.4255
19.2314
25.2691
25.2384
25.1583
25.0075
24.7596
24.3799
23.8811
23.2992
22.4647
20.3873
15.2848
20.2272
14.3562
12.8416
15.7624
6.40553
-0.675188
-0.121037
-0.0929631
-0.149777
-0.117439
-0.106536
-0.0899569
-0.0793747
-1.60462
2.04363
13.3452
15.8045
18.4097
15.7753
22.5997
22.5493
22.4347
22.2453
21.9688
21.577
21.0998
20.619
19.8846
18.0205
13.3875
16.0161
10.2811
8.62541
13.4256
4.99435
-0.310942
-0.123208
-0.0942954
-0.164926
-0.0991005
-0.112033
-0.0933462
-0.0838957
-0.474811
-2.45788
10.2781
12.6802
15.4184
12.2868
2.53694
16.1214
14.698
8.56784
-1.86032
-0.30751
-0.0131229
-0.000186424
-0.0236641
-0.108101
-0.0560292
0.0138365
0.0629996
-0.185443
-0.105008
-2.68625
16.9935
-1.30446
4.38255
9.83746
13.0994
16.0172
17.511
18.1669
18.8115
19.3794
19.7784
20.047
20.2111
20.2878
0.71892
14.7917
12.6223
6.59155
-2.69305
-0.26123
-0.0167718
-0.00552177
-0.0296073
-0.104263
-0.057131
0.00838676
0.0391272
-0.26305
-0.250331
-0.98005
8.38425
-1.93794
1.03515
7.61808
12.7499
14.3939
16.1105
16.7672
17.4577
18.016
18.4131
18.6861
18.8582
18.9402
-1.01983
13.2743
10.3927
5.47976
-0.220151
-0.25448
-0.0230055
-0.0111478
-0.0354094
-0.100659
-0.0582245
0.00350156
0.0173061
-0.267534
-0.325656
-0.660004
-0.729044
-3.83408
-1.43474
5.17934
12.8427
13.2942
14.5692
15.2238
16.0111
16.562
16.9502
17.217
17.3929
17.4794
-2.79605
12.2128
8.0883
-4.36474
-0.101279
-0.247232
-0.031381
-0.0171831
-0.0410529
-0.0974844
-0.0598646
-0.00219792
-0.00258581
-0.248575
-0.414435
-0.663879
-0.660806
-0.862903
-0.313244
5.19614
12.2415
12.63
12.8773
13.5976
14.4255
15.0137
15.381
15.6247
15.7992
15.8932
-2.49398
11.0886
2.08732
-5.74551
-0.104538
-0.24022
-0.0413782
-0.0236828
-0.0465275
-0.094902
-0.062533
-0.00658968
-0.0157421
-0.267368
-0.445892
-0.649002
-0.649809
-0.394323
-1.47168
5.71158
10.4622
10.9463
10.7761
11.4866
12.7111
13.3807
13.6996
13.8914
14.0585
14.1742
-1.45443
10.4576
1.72754
0.224319
-0.107561
-0.232734
-0.0522301
-0.0306343
-0.0518603
-0.0930191
-0.0650157
-0.0294236
-0.0282864
-0.248189
-0.442211
-0.636663
-0.642659
-0.432334
-0.244337
-1.62682
8.88364
8.81539
8.29788
9.36895
10.9586
11.7102
11.9083
11.9923
12.1474
12.3267
-0.445186
8.58019
5.6345
-0.310084
-0.10727
-0.222125
-0.0629857
-0.0379843
-0.0571297
-0.0918734
-0.0676
-0.036684
-0.00502759
-0.211852
-0.420883
-0.623935
-0.635031
-0.467103
-0.265857
-0.0914358
6.70191
6.67096
5.23484
6.83779
9.25002
10.086
9.98324
9.86103
10.0032
10.3578
-0.159391
4.0683
-1.60232
-0.216063
-0.108161
-0.210869
-0.072715
-0.0455521
-0.0624504
-0.0914653
-0.0704395
-0.0431744
-0.0440107
-0.178738
-0.389354
-0.570533
-0.617768
-0.467975
-0.247234
-0.168242
-0.123461
-1.09474
-1.26575
3.82629
7.80095
8.74654
7.73451
7.31495
7.43733
8.25735
-0.16015
0.717094
-0.270135
-0.203078
-0.110781
-0.19903
-0.0811846
-0.053261
-0.0678588
-0.0917903
-0.0736404
-0.0520006
0.00898285
-0.11057
-0.356755
-0.547718
-0.579847
-0.463228
-0.310898
-0.164505
-0.128194
-0.154106
-0.19323
-0.143984
0.242367
2.36314
2.87567
3.68073
3.23308
5.55423
-0.162837
-0.0103605
0.383492
-0.172503
-0.11578
-0.187422
-0.0888585
-0.0611065
-0.0733049
-0.0927981
-0.0776521
-0.0679359
-0.004153
-0.0878182
-0.302474
-0.487236
-0.52599
-0.441612
-0.303447
-0.175725
-0.137959
-0.164603
-0.1992
-0.197447
-0.189296
-0.155976
-0.150108
-0.14641
-0.140998
-0.145155
-0.165253
-0.0447786
0.320666
-0.174483
-0.122233
-0.177134
-0.0961006
-0.069236
-0.0786459
-0.0917188
-0.0791987
-0.0785705
-0.0416274
-0.0507944
-0.258505
-0.430172
-0.464629
-0.403811
-0.287878
-0.183398
-0.140873
-0.174402
-0.202061
-0.200945
-0.18793
-0.161575
-0.159241
-0.148026
-0.142133
-0.143136
-0.16734
-0.134754
0.219742
-0.172154
-0.129045
-0.168889
-0.10309
-0.0776935
-0.0838597
-0.0977902
-0.0872158
-0.0882426
-0.0579762
-0.0637139
-0.206731
-0.389859
-0.405231
-0.36196
-0.272993
-0.191862
-0.156047
-0.183168
-0.189375
-0.190715
-0.184126
-0.175272
-0.157025
-0.140734
-0.140704
-0.140788
-0.16931
-0.144272
0.120267
-0.166849
-0.135731
-0.162916
-0.109917
-0.0864771
-0.0894379
-0.0988599
-0.0929685
-0.0938079
-0.0767369
-0.0594748
-0.20315
-0.313469
-0.35476
-0.325245
-0.260908
-0.205393
-0.173282
-0.183072
-0.148839
-0.152574
-0.163301
-0.17876
-0.166403
-0.154026
-0.145548
-0.14095
-0.173383
-0.150739
0.108579
-0.166016
-0.141991
-0.159108
-0.116653
-0.0955884
-0.0960079
-0.104973
-0.0997068
-0.0991467
-0.07633
-0.0762726
-0.195466
-0.307203
-0.314773
-0.266723
-0.253495
-0.215624
-0.193521
-0.196481
-0.182284
-0.159549
-0.149679
-0.17978
-0.164148
-0.150866
-0.140187
-0.126443
-0.178751
-0.161853
0.0907779
-0.167406
-0.147777
-0.157242
-0.123369
-0.104895
-0.101824
-0.108934
-0.107794
-0.105797
-0.0887141
-0.0861554
-0.190154
-0.271391
-0.278648
-0.278212
-0.25641
-0.22306
-0.214845
-0.21163
-0.196118
-0.190917
-0.181886
-0.17201
-0.158146
-0.148094
-0.142008
-0.128892
-0.18495
-0.177399
0.147346
-0.174381
-0.153465
-0.15707
-0.130138
-0.11408
-0.108582
-0.119609
-0.117881
-0.114239
-0.102319
-0.106216
-0.189287
-0.246914
-0.263645
-0.268181
-0.255164
-0.248635
-0.239058
-0.225918
-0.209226
-0.191091
-0.17316
-0.159029
-0.150662
-0.145795
-0.150792
-0.149783
-0.190991
-0.19976
0.167681
-0.189354
-0.159245
-0.158368
-0.137043
-0.123867
-0.115296
-0.131755
-0.13043
-0.124927
-0.117161
-0.127605
-0.187971
-0.235045
-0.256966
-0.26271
-0.26059
-0.263585
-0.259298
-0.244854
-0.223061
-0.196936
-0.175351
-0.162494
-0.152611
-0.150631
-0.148137
-0.15512
-0.195915
-0.219934
0.0155396
-0.212198
-0.164885
-0.160948
-0.14414
-0.133618
-0.131755
-0.144762
-0.146019
-0.138051
-0.132991
-0.147169
-0.190891
-0.22907
-0.250647
-0.258639
-0.263201
-0.268777
-0.270174
-0.256647
-0.234014
-0.210226
-0.194894
-0.192826
-0.1172
-0.126779
-0.139669
-0.165193
-0.199618
-0.218305
-0.089693
-0.213829
-0.17001
-0.164715
-0.151524
-0.142781
-0.143532
-0.163204
-0.164923
-0.153417
-0.149473
-0.164346
-0.196058
-0.225576
-0.244907
-0.254923
-0.262752
-0.269589
-0.268491
-0.255964
-0.237259
-0.219061
-0.207335
-0.206503
-0.122867
-0.205423
-0.174851
-0.173386
-0.202809
-0.205636
-0.12645
-0.201265
-0.174837
-0.16961
-0.159285
-0.152332
-0.153301
-0.185522
-0.184261
-0.17148
-0.165979
-0.178831
-0.202102
-0.224688
-0.241245
-0.25272
-0.261965
-0.266838
-0.264384
-0.254772
-0.240784
-0.225663
-0.211564
-0.201264
-0.200885
-0.20005
-0.1891
-0.180564
-0.206196
-0.19898
-0.13071
-0.194257
-0.179977
-0.175572
-0.167509
-0.162186
-0.164752
-0.213007
-0.216105
-0.189953
-0.181527
-0.191194
-0.208352
-0.225829
-0.24043
-0.252916
-0.263892
-0.270553
-0.270832
-0.265082
-0.255384
-0.244209
-0.233272
-0.222615
-0.211972
-0.20118
-0.191454
-0.184166
-0.210253
-0.197887
-0.140225
-0.192348
-0.185898
-0.182568
-0.176266
-0.17269
-0.176326
-0.23053
-0.240406
-0.205559
-0.195113
-0.201724
-0.214319
-0.227969
-0.241114
-0.25465
-0.268797
-0.279986
-0.284436
-0.282107
-0.276089
-0.269512
-0.264342
-0.258401
-0.249523
-0.237578
-0.227362
-0.224858
-0.215286
-0.200403
-0.154218
-0.194604
-0.192979
-0.190621
-0.185697
-0.182261
-0.186982
-0.212335
-0.247149
-0.215212
-0.206059
-0.210522
-0.219556
-0.229904
-0.241192
-0.25514
-0.272513
-0.288241
-0.295071
-0.294346
-0.294705
-0.289492
-0.282799
-0.233668
-0.275075
-0.263836
-0.266088
-0.26341
-0.221509
-0.205581
-0.170663
-0.200345
-0.201373
-0.19979
-0.196
-0.193026
-0.19594
-0.226972
-0.239594
-0.21992
-0.21482
-0.217941
-0.223968
-0.230846
-0.238652
-0.249605
-0.264185
-0.284842
-0.293376
-0.288726
-0.276708
-0.274099
-0.258727
-0.253131
-0.252819
-0.255506
-0.258599
-0.262137
-0.229078
-0.21324
-0.188223
-0.208836
-0.211079
-0.210132
-0.20731
-0.20514
-0.206889
-0.222043
-0.230922
-0.224337
-0.222745
-0.224876
-0.228242
-0.231508
-0.234269
-0.237081
-0.239871
-0.240397
-0.230697
-0.10427
-0.107262
-0.224729
-0.241387
-0.212638
-0.235316
-0.242407
-0.252793
-0.264131
-0.238115
-0.223028
-0.206106
-0.219605
-0.222161
-0.221694
-0.219695
-0.218303
-0.2196
-0.226341
-0.231894
-0.231302
-0.231323
-0.23248
-0.233764
-0.234313
-0.233572
-0.231206
-0.227075
-0.221481
-0.224282
-0.146461
-0.204657
-0.208918
-0.242004
-0.241938
-0.2446
-0.245854
-0.251938
-0.25935
-0.248705
-0.234881
-0.22402
-0.232349
-0.234668
-0.234522
-0.233188
-0.232408
-0.233482
-0.237043
-0.240241
-0.240999
-0.241335
-0.241703
-0.241731
-0.241049
-0.239534
-0.237505
-0.235767
-0.236064
-0.240598
-0.247378
-0.246993
-0.245062
-0.24459
-0.245616
-0.247079
-0.248855
-0.25111
-0.253812
-0.260908
-0.248552
-0.241988
-0.24683
-0.248634
-0.24865
-0.24782
-0.24745
-0.248276
-0.250277
-0.25211
-0.252874
-0.253097
-0.253
-0.252516
-0.251619
-0.25047
-0.249411
-0.248924
-0.249388
-0.250685
-0.251982
-0.252398
-0.252396
-0.252584
-0.253054
-0.253756
-0.254626
-0.255614
-0.256665
-0.274778
-0.263871
-0.260311
-0.262902
-0.264083
-0.264123
-0.263645
-0.263501
-0.26405
-0.265113
-0.2661
-0.266592
-0.266664
-0.266403
-0.265868
-0.265171
-0.26447
-0.263959
-0.263775
-0.263928
-0.264286
-0.264663
-0.264957
-0.265205
-0.265483
-0.265818
-0.26621
-0.266644
-0.267105
-0.267579
-0.290299
-0.280806
-0.279366
-0.280505
-0.281038
-0.280994
-0.280742
-0.28069
-0.280935
-0.281341
-0.281747
-0.281972
-0.281967
-0.281757
-0.281428
-0.281065
-0.280752
-0.280561
-0.280515
-0.280589
-0.280733
-0.280899
-0.281062
-0.281219
-0.281372
-0.281527
-0.281684
-0.281844
-0.282003
-0.282159
20.2877
20.2141
20.061
19.8319
19.5345
19.1579
18.7107
18.325
17.737
16.2246
12.3534
10.3419
4.61497
2.52108
6.32227
0.103157
0.264383
-0.108886
-0.106555
-0.165304
-0.121215
-0.116905
-0.0967966
-0.0884188
-0.159805
-5.74127
7.50686
9.93279
12.8217
9.21207
18.9367
18.8484
18.67
18.4162
18.1094
17.753
17.3304
16.9538
16.4331
14.9855
11.5111
6.99443
1.19117
0.0444033
-0.0240662
-0.204448
0.171094
-0.0991126
-0.11082
-0.158358
-0.128493
-0.121475
-0.098827
-0.0920401
-0.155644
-0.716791
5.57878
8.30791
11.3054
7.42714
17.4722
17.3671
17.1584
16.8764
16.5655
16.2428
15.843
15.3996
14.9915
13.475
10.5678
5.60201
-0.84188
-0.998612
-0.21656
-0.192684
0.146453
-0.156246
-0.117657
-0.160207
-0.0916441
-0.122891
-0.100925
-0.0959767
-0.147809
-0.0718435
3.06418
6.52646
9.67274
5.61253
15.8853
15.7599
15.5096
15.1911
14.8849
14.5867
14.2126
13.9441
13.5012
12.3019
9.17564
5.07632
-3.33818
-0.118662
-0.217729
-0.181986
0.106354
0.211033
-0.12904
-0.200165
-0.086292
-0.128809
-0.1031
-0.10001
-0.143153
-0.0581333
-2.62183
4.5537
7.92429
3.79098
14.1783
14.0268
13.7074
13.3305
13.0441
12.7965
12.4074
12.0416
12.1667
11.4333
7.17636
3.30791
-0.131315
-0.164475
-0.228089
-0.174272
0.046559
0.245021
-0.143058
-0.195263
-0.135484
-0.130887
-0.105374
-0.104162
-0.13901
-0.0617092
-0.0148489
2.1579
6.02122
8.30264
12.3827
12.199
11.7407
11.2456
11.0229
10.8944
10.4768
9.94681
9.08674
8.71655
4.72711
-1.85204
-0.124492
-0.181224
-0.242117
-0.174644
0.0295316
-0.0164589
-0.180019
-0.190741
-0.185748
-0.130858
-0.107848
-0.108183
-0.135323
-0.063688
-0.124585
-0.597219
3.88939
3.14424
10.5866
10.3766
9.5886
8.7955
8.76456
8.91224
8.41482
7.58606
5.98509
6.71711
0.23751
-0.161609
-0.135427
-0.204688
-0.249271
-0.17506
0.072289
-0.137789
-0.136703
-0.183484
-0.176346
-0.130454
-0.110532
-0.111992
-0.132175
-0.0712449
-0.122013
-0.0486034
1.23255
0.93334
9.04339
8.93147
7.24169
5.50855
6.1158
7.07563
6.05731
4.85606
-1.08844
-0.0724784
-0.0961659
-0.130806
-0.142568
-0.225786
-0.265131
-0.166936
-0.157557
0.0149766
-0.155529
-0.174731
-0.182147
-0.129807
-0.113422
-0.115536
-0.129808
-0.0759144
-0.12108
-0.102314
-0.115039
0.0120061
8.30176
8.63074
3.98807
-0.84654
0.652344
1.04927
-0.341254
0.0504868
-0.00365814
-0.04734
-0.0882677
-0.116218
-0.148695
-0.23567
-0.267527
-0.18148
-0.246502
0.00683295
-0.163214
-0.157389
-0.155422
-0.130487
-0.116497
-0.118831
-0.128404
-0.0813595
-0.120388
-0.108667
-0.119703
-0.0511637
-0.148095
-0.1439
-0.130523
-0.110456
-0.0828398
-0.0907576
-0.0764512
-0.0166648
-0.020037
-0.0486851
-0.080692
-0.102039
-0.144197
-0.232371
-0.154539
-0.192058
-0.220467
-0.0101518
-0.124774
-0.15062
-0.159213
-0.131024
-0.119725
-0.121944
-0.127998
-0.087805
-0.120592
-0.114264
-0.117876
-0.113191
-0.147407
-0.146009
-0.133832
-0.116019
-0.099298
-0.0895256
-0.0710409
-0.0391524
-0.0349948
-0.0514724
-0.0771205
-0.097728
-0.132919
-0.205869
-0.214933
-0.10965
-0.249693
-0.0275033
-0.112793
-0.145779
-0.151805
-0.132134
-0.122988
-0.124981
-0.128532
-0.0952083
-0.122062
-0.119706
-0.12287
-0.11042
-0.158521
-0.165159
-0.143595
-0.121046
-0.103658
-0.0902122
-0.0728563
-0.0519882
-0.0472229
-0.0533813
-0.0761959
-0.0971127
-0.120509
-0.166059
-0.20009
-0.175335
-0.250028
-0.0291315
-0.103678
-0.143224
-0.142811
-0.127042
-0.126241
-0.128059
-0.129925
-0.103361
-0.124789
-0.125206
-0.125263
-0.10125
-0.101436
0.0175432
-0.130689
-0.117919
-0.101487
-0.0861789
-0.069778
-0.053877
-0.039527
-0.0508284
-0.0604775
-0.0980237
-0.110085
-0.0438106
-0.185761
-0.203974
-0.180969
-0.0474031
-0.0969917
-0.136732
-0.144692
-0.129767
-0.129484
-0.1313
-0.1321
-0.111903
-0.128615
-0.130641
-0.139423
-0.131018
-0.0945763
-0.066177
-0.119178
-0.114364
-0.0990019
-0.0795395
-0.0588624
-0.0425691
-0.0405329
-0.0471257
-0.066907
-0.0331197
-0.0931692
-0.096079
-0.212836
-0.161465
-0.136486
-0.0415634
-0.0927795
-0.136017
-0.141725
-0.132989
-0.133176
-0.134809
-0.134998
-0.120387
-0.133268
-0.135988
-0.143318
-0.135787
-0.118999
-0.114667
-0.124484
-0.119672
-0.103062
-0.0808608
-0.0457286
-0.0306563
-0.0408807
-0.0467549
-0.0676865
0.0282732
-0.0844927
-0.0322849
-0.0609651
-0.13263
-0.118508
-0.0508517
-0.0936119
-0.134816
-0.141301
-0.137028
-0.136982
-0.138656
-0.138574
-0.12848
-0.13841
-0.141287
-0.147615
-0.140899
-0.129945
-0.12708
-0.13204
-0.122256
-0.131004
0.140683
0.00354289
-0.0325558
-0.0392099
-0.050826
-0.0742001
-0.0507631
-0.0616802
-0.0429429
-0.0017809
-0.189502
-0.117568
-0.070997
-0.100379
-0.136212
-0.142751
-0.139415
-0.141052
-0.142913
-0.142796
-0.136163
-0.14385
-0.146646
-0.151079
-0.146329
-0.149057
-0.151503
-0.156073
-0.158746
0.194141
0.621588
0.623851
-0.0585325
-0.0571567
-0.0544898
-0.0961074
-0.116268
-0.0869963
-0.145185
-0.116551
-0.159086
-0.123065
-0.0930585
-0.112213
-0.140431
-0.145201
-0.142647
-0.145674
-0.147642
-0.147649
-0.143581
-0.149569
-0.1522
-0.155175
-0.152081
-0.168129
-0.174631
-0.185124
-0.19514
-0.203783
-0.212154
-0.213952
-0.161873
-0.120145
-0.117482
-0.120366
-0.126212
-0.130054
-0.131108
-0.124433
-0.146748
-0.131731
-0.114255
-0.127015
-0.147833
-0.149464
-0.144813
-0.150721
-0.1529
-0.153135
-0.15089
-0.155631
-0.158064
-0.160013
-0.158179
-0.179286
-0.191605
-0.208739
-0.220228
-0.227431
-0.237301
-0.222138
-0.199472
-0.179811
-0.173836
-0.161311
-0.152827
-0.143277
-0.139742
-0.13825
-0.148074
-0.142493
-0.134652
-0.144485
-0.158165
-0.153147
-0.152337
-0.156157
-0.158754
-0.159271
-0.15825
-0.162103
-0.164341
-0.16561
-0.164667
-0.176863
-0.178178
-0.160079
-0.144904
-0.211495
-0.223762
-0.222706
-0.222066
-0.215027
-0.206031
-0.190419
-0.174421
-0.162145
-0.155726
-0.153499
-0.156678
-0.155417
-0.155224
-0.16378
-0.170412
-0.164593
-0.157887
-0.162574
-0.165292
-0.166076
-0.165837
-0.169046
-0.17115
-0.17195
-0.171596
-0.179339
-0.160266
-0.16163
-0.18559
-0.206192
-0.230333
-0.235373
-0.254049
-0.24953
-0.236291
-0.217323
-0.198177
-0.183369
-0.174274
-0.169854
-0.169472
-0.170603
-0.176113