/*--------------------------------*- C++ -*----------------------------------*\
| =========                 |                                                 |
| \\      /  F ield         | OpenFOAM: The Open Source CFD Toolbox           |
|  \\    /   O peration     | Version:  2.4.0                                 |
|   \\  /    A nd           | Web:      www.OpenFOAM.org                      |
|    \\/     M anipulation  |                                                 |
\*---------------------------------------------------------------------------*/
FoamFile
{
    version     2.0;
    format      ascii;
    class       surfaceScalarField;
    location    "0.03";
    object      phiAlpha;
}
// * * * * * * * * * * * * * * * * * * * * * * * * * * * * * * * * * * * * * //

dimensions      [0 3 -1 0 0 0 0];

internalField   nonuniform List<scalar> 
7080
(
-9.81123e-13
9.80972e-13
-4.92676e-12
3.94492e-12
-1.3157e-11
8.22952e-12
-2.64963e-11
1.33382e-11
-4.59147e-11
1.94186e-11
-7.29418e-11
2.70301e-11
-1.06846e-10
3.39033e-11
-1.50767e-10
4.39169e-11
-1.95928e-10
4.51613e-11
-2.51948e-10
5.60155e-11
-2.89547e-10
3.75964e-11
-3.33654e-10
4.40998e-11
-3.24626e-10
-9.02237e-12
-3.13822e-10
-1.08056e-11
-2.27831e-10
-8.5991e-11
-1.56476e-10
-7.13547e-11
-4.94022e-11
-1.07072e-10
1.9462e-11
-6.88633e-11
6.98886e-11
-5.04245e-11
9.52939e-11
-2.54062e-11
9.91541e-11
-3.85406e-12
9.43587e-11
4.78832e-12
7.99932e-11
1.43772e-11
6.53353e-11
1.46457e-11
4.93779e-11
1.59724e-11
3.57795e-11
1.35853e-11
2.41678e-11
1.16232e-11
1.56439e-11
8.517e-12
9.12357e-12
6.52359e-12
4.44369e-12
4.68074e-12
-1.44401e-12
2.42461e-12
-6.34035e-12
8.84039e-12
-1.5624e-11
1.75127e-11
-3.04366e-11
2.81501e-11
-5.16117e-11
4.05948e-11
-8.04255e-11
5.58472e-11
-1.15778e-10
6.92553e-11
-1.60723e-10
8.88576e-11
-2.05832e-10
9.02713e-11
-2.60545e-10
1.10725e-10
-2.93651e-10
7.0701e-11
-3.31068e-10
8.15113e-11
-3.09925e-10
-3.01603e-11
-2.85343e-10
-3.5388e-11
-1.83402e-10
-1.87931e-10
-9.83091e-11
-1.56446e-10
1.47091e-11
-2.20087e-10
8.52721e-11
-1.39425e-10
1.34032e-10
-9.9177e-11
1.51047e-10
-4.24279e-11
1.46449e-10
7.60338e-13
1.31779e-10
1.94398e-11
1.08942e-10
3.72402e-11
8.63888e-11
3.71742e-11
6.4286e-11
3.81012e-11
4.58333e-11
3.20184e-11
3.05798e-11
2.68912e-11
1.95422e-11
1.95488e-11
1.15513e-11
1.45141e-11
9.72062e-12
6.28174e-12
-1.46905e-12
3.89348e-12
-6.44468e-12
1.38153e-11
-1.57291e-11
2.67968e-11
-3.04675e-11
4.28877e-11
-5.15503e-11
6.16776e-11
-8.05973e-11
8.48973e-11
-1.16221e-10
1.04877e-10
-1.61974e-10
1.34606e-10
-2.07367e-10
1.35665e-10
-2.62963e-10
1.66317e-10
-2.95238e-10
1.02973e-10
-3.32072e-10
1.18339e-10
-3.07838e-10
-5.43882e-11
-2.79534e-10
-6.36923e-11
-1.72827e-10
-2.94636e-10
-8.36196e-11
-2.45652e-10
3.07043e-11
-3.34407e-10
9.97679e-11
-2.08488e-10
1.46132e-10
-1.45534e-10
1.60371e-10
-5.66732e-11
1.53447e-10
7.70114e-12
1.36722e-10
3.61461e-11
1.1248e-10
6.15076e-11
8.87597e-11
6.08701e-11
6.58625e-11
6.1024e-11
4.68597e-11
5.10019e-11
3.12088e-11
4.25562e-11
1.98522e-11
3.08997e-11
1.17948e-11
2.25711e-11
1.35792e-11
7.94395e-12
-1.36126e-12
5.25446e-12
-6.26973e-12
1.87229e-11
-1.57766e-11
3.63029e-11
-3.10938e-11
5.82034e-11
-5.30363e-11
8.36205e-11
-8.35495e-11
1.15414e-10
-1.20735e-10
1.42061e-10
-1.6905e-10
1.82917e-10
-2.16243e-10
1.82858e-10
-2.74929e-10
2.24999e-10
-3.07639e-10
1.35682e-10
-3.45579e-10
1.56273e-10
-3.18174e-10
-8.17874e-11
-2.85772e-10
-9.60943e-11
-1.7243e-10
-4.07977e-10
-7.78321e-11
-3.40249e-10
3.81698e-11
-4.50406e-10
1.06982e-10
-2.77299e-10
1.50976e-10
-1.89522e-10
1.63395e-10
-6.90991e-11
1.54972e-10
1.61416e-11
1.37427e-10
5.36719e-11
1.1273e-10
8.62303e-11
8.88005e-11
8.47756e-11
6.58224e-11
8.40271e-11
4.67673e-11
7.00383e-11
3.11214e-11
5.82158e-11
1.9825e-11
4.21906e-11
1.16536e-11
3.07419e-11
1.85744e-11
6.6664e-12
-1.49291e-12
6.74705e-12
-6.74789e-12
2.39769e-11
-1.68808e-11
4.6435e-11
-3.32427e-11
7.45639e-11
-5.6552e-11
1.06931e-10
-8.91949e-11
1.48062e-10
-1.28604e-10
1.81471e-10
-1.80452e-10
2.34761e-10
-2.30136e-10
2.32544e-10
-2.93157e-10
2.88018e-10
-3.2646e-10
1.68983e-10
-3.65916e-10
1.95722e-10
-3.34139e-10
-1.13557e-10
-2.96046e-10
-1.34188e-10
-1.73533e-10
-5.30489e-10
-7.1549e-11
-4.42231e-10
4.66949e-11
-5.68647e-10
1.15339e-10
-3.45942e-10
1.56289e-10
-2.30465e-10
1.66492e-10
-7.93095e-11
1.56231e-10
2.64197e-11
1.37777e-10
7.21074e-11
1.12629e-10
1.11403e-10
8.85359e-11
1.08845e-10
6.55474e-11
1.0704e-10
4.65298e-11
8.90376e-11
3.0942e-11
7.38169e-11
1.97072e-11
5.34202e-11
1.15666e-11
3.88818e-11
2.3718e-11
6.4311e-12
-1.6434e-12
8.39009e-12
-7.36052e-12
2.96929e-11
-1.83059e-11
5.73795e-11
-3.6006e-11
9.22626e-11
-6.10967e-11
1.32023e-10
-9.64943e-11
1.83465e-10
-1.38748e-10
2.23724e-10
-1.95204e-10
2.91213e-10
-2.48157e-10
2.85498e-10
-3.16834e-10
3.56691e-10
-3.50906e-10
2.03053e-10
-3.92211e-10
2.37021e-10
-3.54719e-10
-1.51041e-10
-3.08988e-10
-1.79919e-10
-1.74568e-10
-6.64906e-10
-6.3041e-11
-5.53757e-10
5.7733e-11
-6.89418e-10
1.25899e-10
-4.14107e-10
1.62875e-10
-2.67434e-10
1.70246e-10
-8.66879e-11
1.5769e-10
3.89924e-11
1.38122e-10
9.16569e-11
1.12438e-10
1.37111e-10
8.81614e-11
1.331e-10
6.51735e-11
1.30051e-10
4.6217e-11
1.07976e-10
3.07103e-11
8.93365e-11
1.95474e-11
6.45781e-11
1.14712e-11
4.69572e-11
2.88109e-11
6.38649e-12
-1.81557e-12
1.02053e-11
-8.07579e-12
3.59519e-11
-2.0015e-11
6.93179e-11
-3.93899e-11
1.11636e-10
-6.6682e-11
1.59316e-10
-1.0549e-10
2.22279e-10
-1.51344e-10
2.69578e-10
-2.1357e-10
3.53435e-10
-2.70613e-10
3.42543e-10
-3.46437e-10
4.32512e-10
-3.81447e-10
2.38063e-10
-4.24887e-10
2.80454e-10
-3.80204e-10
-1.95715e-10
-3.24547e-10
-2.35576e-10
-1.75175e-10
-8.14276e-10
-5.17354e-11
-6.77196e-10
7.16707e-11
-8.1282e-10
1.38855e-10
-4.8129e-10
1.70799e-10
-2.99373e-10
1.74667e-10
-9.05624e-11
1.59361e-10
5.43147e-11
1.38482e-10
1.12518e-10
1.1218e-10
1.63437e-10
8.76963e-11
1.57561e-10
6.47167e-11
1.53054e-10
4.58369e-11
1.26839e-10
3.04312e-11
1.04755e-10
1.93542e-11
7.56504e-11
1.13571e-11
5.49533e-11
3.38591e-11
6.317e-12
-2.08041e-12
1.22853e-11
-9.01346e-12
4.2884e-11
-2.21102e-11
8.24145e-11
-4.34877e-11
1.33013e-10
-7.34473e-11
1.89278e-10
-1.16365e-10
2.65205e-10
-1.66506e-10
3.1972e-10
-2.35842e-10
4.22767e-10
-2.9797e-10
4.04675e-10
-3.82655e-10
5.17194e-10
-4.18824e-10
2.74232e-10
-4.64607e-10
3.2623e-10
-4.11086e-10
-2.49225e-10
-3.42763e-10
-3.03898e-10
-1.75006e-10
-9.82029e-10
-3.69971e-11
-8.15203e-10
8.88709e-11
-9.38685e-10
1.54327e-10
-5.46745e-10
1.80055e-10
-3.25094e-10
1.79707e-10
-9.02209e-11
1.61209e-10
7.28277e-11
1.38834e-10
1.34876e-10
1.11846e-10
1.90448e-10
8.71379e-11
1.82248e-10
6.41768e-11
1.76037e-10
4.53893e-11
1.4561e-10
3.01046e-11
1.20051e-10
1.91281e-11
8.66225e-11
1.12227e-11
6.28577e-11
3.88379e-11
6.25182e-12
-2.29146e-12
1.45764e-11
-1.0024e-11
5.06158e-11
-2.45646e-11
9.69555e-11
-4.83345e-11
1.56782e-10
-8.14518e-11
2.22397e-10
-1.29248e-10
3.13009e-10
-1.84547e-10
3.75022e-10
-2.62502e-10
5.00717e-10
-3.30793e-10
4.72971e-10
-4.26328e-10
6.12727e-10
-4.63905e-10
3.1181e-10
-5.12141e-10
3.74459e-10
-4.47939e-10
-3.13416e-10
-3.63624e-10
-3.88212e-10
-1.73565e-10
-1.17209e-09
-1.79413e-11
-9.70825e-10
1.09768e-10
-1.06639e-09
1.72432e-10
-6.09407e-10
1.90597e-10
-3.43253e-10
1.85276e-10
-8.49067e-11
1.63172e-10
9.49473e-11
1.3914e-10
1.5889e-10
1.11415e-10
2.18195e-10
8.64743e-11
2.07169e-10
6.35471e-11
1.98986e-10
4.48694e-11
1.64272e-10
2.97279e-11
1.35204e-10
1.88676e-11
9.74786e-11
1.10664e-11
7.06578e-11
4.37496e-11
6.16256e-12
-2.56248e-12
1.71386e-11
-1.12741e-11
5.93269e-11
-2.75664e-11
1.13247e-10
-5.4213e-11
1.83429e-10
-9.08981e-11
2.59087e-10
-1.44269e-10
3.66392e-10
-2.05605e-10
4.36362e-10
-2.93967e-10
5.89076e-10
-3.69782e-10
5.48793e-10
-4.78538e-10
7.2148e-10
-5.17857e-10
3.51129e-10
-5.68489e-10
4.25084e-10
-4.91515e-10
-3.90375e-10
-3.87209e-10
-4.92516e-10
-1.70299e-10
-1.38899e-09
5.84228e-12
-1.14696e-09
1.34902e-10
-1.19545e-09
1.93307e-10
-6.67809e-10
2.02399e-10
-3.52339e-10
1.91304e-10
-7.38179e-11
1.65206e-10
1.2106e-10
1.39381e-10
1.84699e-10
1.10886e-10
2.46712e-10
8.57092e-11
2.32325e-10
6.28326e-11
2.21883e-10
4.42812e-11
1.82808e-10
2.93038e-11
1.50192e-10
1.85749e-11
1.08204e-10
1.08891e-11
7.83425e-11
4.85863e-11
6.05995e-12
-2.86104e-12
1.99995e-11
-1.2731e-11
6.91959e-11
-3.11302e-11
1.31648e-10
-6.08344e-11
2.13137e-10
-1.01561e-10
2.99822e-10
-1.61259e-10
4.26106e-10
-2.29829e-10
5.04938e-10
-3.308e-10
6.90043e-10
-4.15764e-10
6.33764e-10
-5.40575e-10
8.4629e-10
-5.82114e-10
3.9267e-10
-6.34854e-10
4.77817e-10
-5.42728e-10
-4.82485e-10
-4.13484e-10
-6.21758e-10
-1.64451e-10
-1.63802e-09
3.35364e-11
-1.34495e-09
1.64856e-10
-1.32677e-09
2.17094e-10
-7.20044e-10
2.1539e-10
-3.50629e-10
1.97681e-10
-5.61149e-11
1.67247e-10
1.51508e-10
1.39521e-10
2.12409e-10
1.10244e-10
2.7601e-10
8.48375e-11
2.57713e-10
6.20324e-11
2.44708e-10
4.36244e-11
2.01202e-10
2.88326e-11
1.64995e-10
1.82501e-11
1.18782e-10
1.06909e-11
8.59005e-11
5.33414e-11
5.94324e-12
-3.28506e-12
2.32844e-11
-1.45723e-11
8.04834e-11
-3.4763e-11
1.51844e-10
-6.84962e-11
2.46875e-10
-1.13237e-10
3.44572e-10
-1.81512e-10
4.94397e-10
-2.58483e-10
5.81915e-10
-3.73744e-10
8.05301e-10
-4.69785e-10
7.29815e-10
-6.14032e-10
9.90536e-10
-6.58453e-10
4.37091e-10
-7.12572e-10
5.31929e-10
-6.02558e-10
-5.92481e-10
-4.42384e-10
-7.81929e-10
-1.55042e-10
-1.92536e-09
6.88334e-11
-1.56882e-09
2.00326e-10
-1.45825e-09
2.43917e-10
-7.63632e-10
2.29444e-10
-3.36152e-10
2.04257e-10
-3.09335e-11
1.69204e-10
1.86574e-10
1.39512e-10
2.42086e-10
1.09465e-10
3.06077e-10
8.38457e-11
2.83314e-10
6.11401e-11
2.67433e-10
4.28949e-11
2.19433e-10
2.83116e-11
1.79588e-10
1.78918e-11
1.29199e-10
1.04713e-11
9.33197e-11
5.80066e-11
5.81324e-12
-3.70154e-12
2.6986e-11
-1.68989e-11
9.36811e-11
-4.1166e-11
1.76114e-10
-7.70993e-11
2.82812e-10
-1.28557e-10
3.96036e-10
-2.01545e-10
5.67403e-10
-2.88244e-10
6.68621e-10
-4.22406e-10
9.3946e-10
-5.32224e-10
8.39645e-10
-7.00804e-10
1.15911e-09
-7.49106e-10
4.85396e-10
-8.03404e-10
5.86216e-10
-6.72272e-10
-7.23593e-10
-4.73827e-10
-9.80372e-10
-1.40796e-10
-2.25839e-09
1.13018e-10
-1.82263e-09
2.42139e-10
-1.58737e-09
2.73891e-10
-7.9538e-10
2.44425e-10
-3.06681e-10
2.1089e-10
2.59539e-12
1.71008e-10
2.2647e-10
1.39326e-10
2.73753e-10
1.08543e-10
3.3688e-10
8.2736e-11
3.09103e-10
6.01607e-11
2.90026e-10
4.20967e-11
2.37484e-10
2.77441e-11
1.9395e-10
1.7502e-11
1.39438e-10
1.02318e-11
1.00589e-10
6.25777e-11
5.66761e-12
-4.41154e-12
3.13977e-11
-1.83544e-11
1.07624e-10
-4.09667e-11
1.98728e-10
-8.61914e-11
3.28038e-10
-1.39618e-10
4.4947e-10
-2.30305e-10
6.58111e-10
-3.27861e-10
7.66185e-10
-4.80469e-10
1.09206e-09
-6.08043e-10
9.6723e-10
-8.03576e-10
1.35464e-09
-8.57279e-10
5.39101e-10
-9.09183e-10
6.38109e-10
-7.53336e-10
-8.79418e-10
-5.07661e-10
-1.22604e-09
-1.20169e-10
-2.64587e-09
1.67937e-10
-2.11073e-09
2.91225e-10
-1.71066e-09
3.07075e-10
-8.11226e-10
2.6012e-10
-2.59721e-10
2.17394e-10
4.53161e-11
1.72562e-10
2.71314e-10
1.38923e-10
3.07379e-10
1.07462e-10
3.68359e-10
8.15028e-11
3.35046e-10
5.9093e-11
3.12453e-10
4.123e-11
2.55334e-10
2.71304e-11
2.08058e-10
1.7081e-11
1.49484e-10
9.97319e-12
1.07695e-10
6.70531e-11
5.50439e-12
-4.09692e-12
3.5495e-11
-2.79845e-11
1.31511e-10
-6.64461e-11
2.37192e-10
-1.02151e-10
3.63744e-10
-1.69324e-10
5.16652e-10
-2.46276e-10
7.35088e-10
-3.59523e-10
8.79438e-10
-5.41563e-10
1.27409e-09
-6.88637e-10
1.11431e-09
-9.24561e-10
1.59056e-09
-9.85329e-10
5.99869e-10
-1.03226e-09
6.85025e-10
-8.47045e-10
-1.06461e-09
-5.43604e-10
-1.52948e-09
-9.11715e-11
-3.0983e-09
2.35901e-10
-2.4378e-09
3.48633e-10
-1.82339e-09
3.43418e-10
-8.06006e-10
2.76228e-10
-1.92527e-10
2.23516e-10
9.80226e-11
1.73747e-10
3.21095e-10
1.38247e-10
3.42865e-10
1.06201e-10
4.00423e-10
8.01335e-11
3.61098e-10
5.79311e-11
3.34672e-10
4.02913e-11
2.72962e-10
2.64687e-11
2.21889e-10
1.66277e-11
1.59323e-10
9.69529e-12
1.14626e-10
7.14261e-11
5.3286e-12
-1.08681e-11
4.63624e-11
-2.37224e-11
1.44362e-10
-3.55677e-11
2.4904e-10
-1.03365e-10
4.31544e-10
-1.64601e-10
5.77896e-10
-2.87366e-10
8.57875e-10
-4.14225e-10
1.0063e-09
-6.18825e-10
1.47868e-09
-7.99363e-10
1.29486e-09
-1.06833e-09
1.85951e-09
-1.14138e-09
6.72924e-10
-1.17511e-09
7.18739e-10
-9.55936e-10
-1.28376e-09
-5.81411e-10
-1.904e-09
-5.16148e-11
-3.62809e-09
3.19723e-10
-2.80914e-09
4.15563e-10
-1.91923e-09
3.82821e-10
-7.73258e-10
2.92392e-10
-1.02093e-10
2.29024e-10
1.61385e-10
1.74468e-10
3.75664e-10
1.37271e-10
3.80049e-10
1.04755e-10
4.32956e-10
7.86307e-11
3.87207e-10
5.66795e-11
3.56638e-10
3.92853e-11
2.90346e-10
2.57625e-11
2.3542e-10
1.61441e-11
1.68938e-10
9.39974e-12
1.21369e-10
7.56847e-11
5.14716e-12
1.00809e-11
3.62841e-11
-6.01472e-11
2.14594e-10
-1.44866e-10
3.33759e-10
-1.4101e-10
4.27684e-10
-2.15805e-10
6.52699e-10
-2.8586e-10
9.27957e-10
-4.36816e-10
1.15725e-09
-6.90907e-10
1.73275e-09
-9.00626e-10
1.50458e-09
-1.23911e-09
2.19799e-09
-1.32541e-09
7.59217e-10
-1.34136e-09
7.34667e-10
-1.08021e-09
-1.54488e-09
-6.20592e-10
-2.36362e-09
1.07205e-12
-4.24975e-09
4.23055e-10
-3.23112e-09
4.93431e-10
-1.9896e-09
4.25018e-10
-7.04838e-10
3.08129e-10
1.47993e-11
2.33629e-10
2.35881e-10
1.74607e-10
4.34696e-10
1.3595e-10
4.18694e-10
1.03112e-10
4.6581e-10
7.69904e-11
4.13315e-10
5.53376e-11
3.78305e-10
3.82122e-11
3.07461e-10
2.50124e-11
2.48627e-10
1.56308e-11
1.78318e-10
9.08705e-12
1.27912e-10
7.98162e-11
4.96123e-12
-4.65264e-11
8.28041e-11
-4.21126e-11
2.10172e-10
-3.2723e-12
2.94921e-10
-1.21628e-10
5.46023e-10
-1.95157e-10
7.26196e-10
-3.44417e-10
1.07718e-09
-5.21953e-10
1.33475e-09
-7.88968e-10
1.99973e-09
-1.06416e-09
1.77977e-09
-1.44029e-09
2.5741e-09
-1.56025e-09
8.79157e-10
-1.53458e-09
7.0897e-10
-1.22627e-09
-1.85315e-09
-6.60495e-10
-2.9294e-09
7.84745e-11
-4.98872e-09
5.50144e-10
-3.70278e-09
5.83407e-10
-2.02286e-09
4.69432e-10
-5.90855e-10
3.22752e-10
1.61483e-10
2.36952e-10
3.21676e-10
1.74028e-10
4.97631e-10
1.34232e-10
4.58479e-10
1.01251e-10
4.98805e-10
7.52028e-11
4.39351e-10
5.39001e-11
3.99621e-10
3.7069e-11
3.24283e-10
2.42169e-11
2.61485e-10
1.50869e-11
1.87446e-10
8.75669e-12
1.34241e-10
8.38091e-11
4.76911e-12
-4.92651e-11
1.32063e-10
-2.21491e-10
3.82387e-10
-2.71951e-10
3.4538e-10
-7.41781e-11
3.48253e-10
-1.53246e-10
8.05251e-10
-3.00875e-10
1.22484e-09
-4.80621e-10
1.51443e-09
-8.87151e-10
2.40616e-09
-1.19625e-09
2.08889e-09
-1.68321e-09
3.06103e-09
-1.84139e-09
1.03732e-09
-1.75733e-09
6.24873e-10
-1.38681e-09
-2.22364e-09
-6.99738e-10
-3.61647e-09
1.7959e-10
-5.86804e-09
7.08415e-10
-4.23161e-09
6.87795e-10
-2.00224e-09
5.15551e-10
-4.18601e-10
3.355e-10
3.41536e-10
2.38626e-10
4.18546e-10
1.72624e-10
5.63643e-10
1.32093e-10
4.98999e-10
9.9174e-11
5.31737e-10
7.32733e-11
4.65239e-10
5.23716e-11
4.20535e-10
3.58593e-11
3.40786e-10
2.33789e-11
2.73972e-10
1.45146e-11
1.96308e-10
8.40953e-12
1.40344e-10
8.7654e-11
4.56962e-12
-2.27874e-11
1.5486e-10
-2.57197e-10
6.16526e-10
-1.41093e-10
2.28583e-10
-2.88199e-10
4.95245e-10
-2.74385e-10
7.91534e-10
-3.84288e-10
1.3349e-09
-6.84366e-10
1.81464e-09
-9.82291e-10
2.70412e-09
-1.43328e-09
2.53988e-09
-1.96014e-09
3.58784e-09
-2.20433e-09
1.28148e-09
-2.02047e-09
4.4098e-10
-1.579e-09
-2.66508e-09
-7.3832e-10
-4.45716e-09
3.07914e-10
-6.91427e-09
9.02641e-10
-4.82633e-09
8.05315e-10
-1.90492e-09
5.61473e-10
-1.74748e-10
3.4514e-10
5.57872e-10
2.38198e-10
5.25485e-10
1.70275e-10
6.31576e-10
1.29507e-10
5.39757e-10
9.68738e-11
5.64383e-10
7.12007e-11
4.90902e-10
5.07523e-11
4.40995e-10
3.45838e-11
3.56947e-10
2.2499e-11
2.86062e-10
1.39145e-11
2.04891e-10
8.04568e-12
1.46212e-10
9.1343e-11
4.36132e-12
9.78906e-11
5.69851e-11
4.01309e-10
3.13025e-10
8.58297e-10
-2.27982e-10
3.74918e-10
9.79001e-10
4.95004e-11
1.11699e-09
3.53595e-12
1.38099e-09
-4.78064e-10
2.29634e-09
-1.13539e-09
3.36152e-09
-1.63814e-09
3.0427e-09
-2.33599e-09
4.28572e-09
-2.60848e-09
1.55395e-09
-2.29619e-09
1.28631e-10
-1.7754e-09
-3.18583e-09
-7.72319e-10
-5.46024e-09
4.79976e-10
-8.16656e-09
1.15083e-09
-5.49718e-09
9.45911e-10
-1.7e-09
6.08143e-10
1.63032e-10
3.50773e-10
8.15245e-10
2.35204e-10
6.4105e-10
1.66863e-10
6.99926e-10
1.26448e-10
5.80162e-10
9.43395e-11
5.96502e-10
6.89785e-11
5.16253e-10
4.90382e-11
4.60945e-10
3.32409e-11
3.72737e-10
2.15762e-11
2.97731e-10
1.32863e-11
2.1318e-10
7.66463e-12
1.51832e-10
9.48715e-11
4.14032e-12
1.53705e-11
4.15641e-11
6.02764e-11
2.68058e-10
-3.56816e-10
1.88554e-10
-3.95743e-10
1.01793e-09
-8.02591e-10
1.52391e-09
-7.31517e-10
1.31013e-09
-4.07489e-10
1.97237e-09
-1.27663e-09
4.23063e-09
-1.90237e-09
3.66851e-09
-2.72874e-09
5.11211e-09
-3.18633e-09
2.01155e-09
-2.66995e-09
-3.87823e-10
-2.01687e-09
-3.83888e-09
-8.05014e-10
-6.67211e-09
6.90358e-10
-9.66193e-09
1.43569e-09
-6.24252e-09
1.09101e-09
-1.35532e-09
6.45643e-10
6.08408e-10
3.49684e-10
1.11121e-09
2.2906e-10
7.61672e-10
1.62319e-10
7.66674e-10
1.22924e-10
6.19549e-10
9.15807e-11
6.27856e-10
6.6614e-11
5.41211e-10
4.72349e-11
4.80333e-10
3.18354e-11
3.88131e-10
2.06136e-11
3.08957e-10
1.2632e-11
2.21161e-10
7.26979e-12
1.57193e-10
9.82303e-11
3.9148e-12
-1.95405e-10
2.36871e-10
1.82986e-10
-1.11676e-10
7.10055e-10
-3.41402e-10
4.56615e-10
1.27047e-09
1.81026e-10
1.79951e-09
-4.12629e-10
1.90391e-09
-1.02105e-09
2.58082e-09
-1.53158e-09
4.74112e-09
-2.40826e-09
4.54523e-09
-3.28837e-09
5.9922e-09
-3.76143e-09
2.48463e-09
-3.03892e-09
-1.1104e-09
-2.23952e-09
-4.63821e-09
-8.26321e-10
-8.08532e-09
9.74927e-10
-1.14632e-08
1.8073e-09
-7.07489e-09
1.28411e-09
-8.32133e-10
6.87818e-10
1.20471e-09
3.41316e-10
1.45771e-09
2.19454e-10
8.83532e-10
1.56612e-10
8.29524e-10
1.1895e-10
6.57203e-10
8.86052e-11
6.58209e-10
6.41103e-11
5.65698e-10
4.53434e-11
4.99108e-10
3.03698e-11
4.03099e-10
1.96123e-11
3.19718e-10
1.19519e-11
2.2882e-10
6.85715e-12
1.62287e-10
1.0142e-10
3.67115e-12
9.22633e-11
1.44613e-10
6.33656e-10
-6.56788e-10
4.40669e-10
-1.51302e-10
3.51233e-10
1.35519e-09
4.79816e-10
1.67214e-09
-6.37664e-10
3.02145e-09
-3.48812e-10
2.292e-09
-3.60075e-10
4.75237e-09
-2.7654e-09
6.95059e-09
-3.91623e-09
7.14299e-09
-4.76728e-09
3.33568e-09
-3.60719e-09
-2.27054e-09
-2.52259e-09
-5.72272e-09
-8.46379e-10
-9.76154e-09
1.30924e-09
-1.36188e-08
2.21897e-09
-7.98463e-09
1.45052e-09
-6.36899e-11
6.96537e-10
1.95871e-09
3.19209e-10
1.83504e-09
2.0544e-10
9.973e-10
1.49667e-10
8.85303e-10
1.14514e-10
6.9235e-10
8.53984e-11
6.87333e-10
6.14515e-11
5.89638e-10
4.33514e-11
5.17215e-10
2.88381e-11
4.17608e-10
1.85688e-11
3.29991e-10
1.12456e-11
2.36143e-10
6.43587e-12
1.67096e-10
1.04423e-10
3.43536e-12
3.46818e-11
1.08867e-10
-2.74272e-10
-3.47051e-10
-3.73485e-10
-5.13788e-11
2.87132e-10
7.01031e-10
-1.64059e-09
3.60094e-09
-2.28959e-09
3.67071e-09
-2.59256e-09
2.595e-09
-2.16106e-09
4.32079e-09
-2.44361e-09
7.23316e-09
-4.88181e-09
9.58114e-09
-5.47294e-09
3.9268e-09
-4.05977e-09
-3.68379e-09
-2.7313e-09
-7.05118e-09
-8.32842e-10
-1.166e-08
1.76466e-09
-1.62163e-08
2.78261e-09
-9.00259e-09
1.71828e-09
1.00063e-09
7.25664e-10
2.95134e-09
2.90387e-10
2.27032e-09
1.87481e-10
1.1002e-09
1.41782e-10
9.31008e-10
1.0981e-10
7.24316e-10
8.20642e-11
7.15085e-10
5.87116e-11
6.12985e-10
4.13062e-11
5.34626e-10
2.72747e-11
4.31636e-10
1.75056e-11
3.39762e-10
1.05242e-11
2.43124e-10
5.99902e-12
1.7162e-10
1.07253e-10
3.17221e-12
-1.22281e-11
1.20449e-10
-1.45979e-10
-2.13029e-10
1.15069e-09
-1.3464e-09
1.21158e-09
6.43834e-10
1.54184e-09
3.27184e-09
5.26377e-10
4.68605e-09
-5.01851e-10
3.62324e-09
-1.50451e-09
5.32335e-09
-3.27348e-09
9.00218e-09
-6.22456e-09
1.25322e-08
-7.3755e-09
5.07773e-09
-4.99852e-09
-6.06088e-09
-3.03717e-09
-9.01248e-09
-8.251e-10
-1.38721e-08
2.27683e-09
-1.93182e-08
3.38519e-09
-1.0111e-08
1.89609e-09
2.48972e-09
6.71782e-10
4.17566e-09
2.3485e-10
2.70725e-09
1.63034e-10
1.17202e-09
1.32658e-10
9.61389e-10
1.04586e-10
7.52383e-10
7.83992e-11
7.41277e-10
5.57064e-11
6.35674e-10
3.90744e-11
5.51262e-10
2.55851e-11
4.45122e-10
1.63591e-11
3.4899e-10
9.75125e-12
2.49732e-10
5.54225e-12
1.75828e-10
1.09874e-10
2.92268e-12
3.13289e-10
-1.86849e-10
5.33218e-10
-4.30135e-10
-1.94816e-10
-6.21317e-10
8.84583e-11
3.61056e-10
1.71411e-09
1.64731e-09
1.40616e-09
4.99424e-09
7.18694e-10
4.3107e-09
1.14035e-09
4.90167e-09
-2.93475e-09
1.30773e-08
-6.76448e-09
1.63619e-08
-8.20938e-09
6.52262e-09
-5.52128e-09
-8.74902e-09
-3.10035e-09
-1.14334e-08
-7.00509e-10
-1.6272e-08
2.9786e-09
-2.29974e-08
4.22657e-09
-1.13589e-08
2.24018e-09
4.47608e-09
6.71811e-10
5.74405e-09
1.83612e-10
3.19545e-09
1.36735e-10
1.2189e-09
1.23503e-10
9.74624e-10
9.96624e-11
7.76219e-10
7.49173e-11
7.66026e-10
5.28895e-11
6.57698e-10
3.69765e-11
5.67179e-10
2.40134e-11
4.58083e-10
1.52979e-11
3.57707e-10
9.03186e-12
2.55998e-10
5.105e-12
1.79754e-10
1.12327e-10
2.65388e-12
-2.74826e-10
7.94658e-11
4.01885e-10
-1.10407e-09
3.79458e-10
-6.04569e-10
1.74357e-09
-1.01354e-09
1.45663e-09
1.93857e-09
2.44723e-10
6.20619e-09
-4.19523e-10
4.97499e-09
-3.453e-09
7.93135e-09
-4.68095e-09
1.43053e-08
-6.52717e-09
1.82081e-08
-1.05618e-08
5.8476e-09
-6.91328e-09
-1.04762e-08
-3.12675e-09
-1.52198e-08
-4.97926e-10
-1.89008e-08
3.75294e-09
-2.72482e-08
5.1417e-09
-1.27477e-08
2.43259e-09
7.18517e-09
4.91955e-10
7.6847e-09
6.20945e-11
3.62531e-09
9.82403e-11
1.18275e-09
1.136e-10
9.59267e-10
9.41797e-11
7.95637e-10
7.09035e-11
7.89305e-10
4.94921e-11
6.79108e-10
3.44504e-11
5.82222e-10
2.21092e-11
4.70423e-10
1.40072e-11
3.65809e-10
8.15925e-12
2.61846e-10
4.5931e-12
1.8332e-10
1.14549e-10
2.37245e-12
-2.38975e-10
3.1428e-10
-4.54162e-10
-7.60209e-10
-7.6744e-10
-2.87153e-10
1.40962e-10
-1.98776e-09
2.31171e-09
-2.3281e-10
3.5712e-09
4.94648e-09
4.83941e-09
3.70673e-09
6.19255e-09
6.57821e-09
4.54837e-09
1.36501e-08
-1.69895e-09
7.34966e-09
-3.24633e-09
-7.82862e-10
-3.55137e-09
-4.03479e-10
-1.49167e-09
-8.60023e-09
5.96382e-10
-1.61565e-08
4.89792e-09
-3.15497e-08
6.28601e-09
-1.41358e-08
2.81541e-09
1.06558e-08
4.50113e-10
1.005e-08
2.21573e-12
4.07321e-09
7.59857e-11
1.10898e-09
1.10013e-10
9.25241e-10
9.39928e-11
8.11655e-10
7.08566e-11
8.12443e-10
4.92672e-11
7.00696e-10
3.41615e-11
5.97329e-10
2.17512e-11
4.82833e-10
1.37159e-11
3.73845e-10
7.90311e-12
2.67659e-10
4.43568e-12
1.86787e-10
1.16785e-10
2.20041e-12
3.04316e-10
-7.61357e-11
-9.96978e-10
1.55203e-10
-2.90713e-09
7.99526e-10
-1.9382e-09
-1.83319e-09
1.82708e-09
-2.06883e-09
2.86159e-09
2.82728e-09
3.46588e-09
2.34749e-09
7.55272e-09
5.64674e-10
8.32968e-09
5.10307e-10
9.21462e-10
-2.25825e-11
1.18293e-10
-7.28961e-14
-2.85186e-10
-3.47311e-15
-8.1062e-10
-2.68696e-11
1.03869e-09
-4.59122e-09
7.33867e-09
-2.12682e-08
7.38483e-09
-1.16784e-08
2.85093e-09
1.51896e-08
9.93365e-11
1.28016e-08
-1.7156e-10
4.34411e-09
9.55823e-11
8.41836e-10
1.69242e-10
8.51583e-10
1.43677e-10
8.37217e-10
1.0828e-10
8.4784e-10
7.58115e-11
7.33164e-10
5.24025e-11
6.20738e-10
3.32377e-11
5.01997e-10
2.07129e-11
3.86369e-10
1.16878e-11
2.76684e-10
6.5959e-12
1.91878e-10
3.30858e-12
1.20073e-10
4.09862e-12
5.76414e-13
4.11102e-12
1.31152e-15
3.79606e-12
3.01231e-13
2.84643e-12
9.61152e-13
2.08223e-12
7.55032e-13
1.7577e-12
3.3135e-13
1.44415e-12
3.08647e-13
1.17027e-12
2.77141e-13
8.76596e-13
2.91707e-13
7.69575e-13
1.08007e-13
6.86996e-13
8.24225e-14
4.62652e-13
2.24058e-13
2.80064e-13
1.83383e-13
1.96645e-13
8.25912e-14
1.17169e-13
8.06171e-14
1.03728e-13
1.25408e-14
4.17232e-14
6.31211e-14
3.02383e-14
1.07724e-14
1.24982e-13
-9.38307e-14
8.17355e-14
4.28234e-14
5.07669e-14
3.16283e-14
4.92775e-14
1.35473e-15
1.65978e-14
3.31007e-14
3.53939e-15
1.31612e-14
1.09958e-14
-7.22782e-15
-2.943e-14
4.06986e-14
-1.0156e-13
7.22185e-14
1.83182e-14
-1.19498e-13
1.45133e-13
-1.26819e-13
1.45577e-13
5.26031e-12
1.57919e-12
4.93923e-12
3.46756e-13
3.86928e-12
1.34944e-12
2.63837e-12
2.20939e-12
2.20416e-12
1.17597e-12
1.80273e-12
7.42281e-13
1.44103e-12
6.63885e-13
1.21032e-12
5.11845e-13
9.54793e-13
5.45244e-13
8.68931e-13
1.94518e-13
7.62423e-13
1.89549e-13
4.11994e-13
5.73426e-13
2.69335e-13
3.27886e-13
2.85871e-13
6.44171e-14
2.29689e-13
1.38943e-13
1.75485e-13
6.52191e-14
1.48855e-13
9.1678e-14
1.15671e-13
4.28845e-14
1.1029e-13
-8.69557e-14
1.10747e-13
4.18428e-14
8.69771e-14
5.6426e-14
7.50306e-14
1.32762e-14
7.66654e-14
3.20857e-14
8.55196e-14
4.66746e-15
6.12932e-14
1.73033e-14
5.01938e-14
5.24219e-14
2.55405e-14
9.69554e-14
8.49482e-15
-1.01668e-13
-5.49737e-15
-1.12917e-13
1.40502e-13
6.42731e-12
3.07726e-12
3.57085e-12
3.22701e-12
2.42749e-12
2.472e-12
2.40987e-12
2.24345e-12
2.18529e-12
1.38803e-12
1.77867e-12
1.15781e-12
1.42418e-12
1.01236e-12
1.28062e-12
6.59075e-13
1.10767e-12
7.16422e-13
7.06313e-13
5.96387e-13
3.89598e-13
5.06941e-13
3.97986e-13
5.63953e-13
3.748e-13
3.52881e-13
3.17117e-13
1.20497e-13
2.49757e-13
2.08369e-13
1.69632e-13
1.43872e-13
1.92913e-13
7.02372e-14
1.52922e-13
8.18509e-14
2.8759e-14
3.86214e-14
5.1567e-14
1.8541e-14
1.01069e-13
7.88727e-15
8.88605e-14
2.54699e-14
1.24405e-13
-2.88669e-15
1.50544e-13
-2.11185e-14
6.36422e-14
1.04476e-13
6.48872e-14
5.17806e-14
3.93454e-14
1.22558e-13
-7.4668e-14
1.31026e-14
-9.64719e-14
-9.11977e-14
4.44301e-14
5.4022e-12
4.32323e-12
4.10232e-12
4.54994e-12
3.32501e-12
3.22949e-12
2.77915e-12
2.80484e-12
2.26367e-12
1.89175e-12
1.79666e-12
1.63314e-12
1.42642e-12
1.37701e-12
1.17558e-12
9.13287e-13
9.55025e-13
9.35396e-13
6.95058e-13
8.56749e-13
5.10682e-13
6.92036e-13
4.31429e-13
6.42118e-13
3.81206e-13
4.04869e-13
3.47228e-13
1.52922e-13
2.65863e-13
2.91718e-13
2.05748e-13
2.02578e-13
1.82626e-13
9.51129e-14
1.37351e-13
1.26155e-13
1.0542e-13
7.18924e-14
9.88353e-14
2.46672e-14
9.62002e-14
1.14285e-14
8.73724e-14
3.42971e-14
8.3242e-14
1.77627e-15
8.27022e-14
-2.02291e-14
6.75981e-14
1.19827e-13
6.86855e-14
5.12797e-14
4.26572e-14
1.48635e-13
1.54316e-14
4.10577e-14
-1.85761e-14
-5.72665e-14
2.62358e-14
5.23165e-12
5.50488e-12
4.1954e-12
5.6085e-12
3.46011e-12
3.94584e-12
2.81517e-12
3.46449e-12
2.2391e-12
2.45674e-12
1.78036e-12
2.09967e-12
1.42375e-12
1.72843e-12
1.13295e-12
1.20719e-12
9.0647e-13
1.16047e-12
7.06523e-13
1.05699e-12
5.35196e-13
8.64115e-13
4.49284e-13
7.26945e-13
4.21411e-13
4.34462e-13
3.40035e-13
2.32795e-13
2.50514e-13
3.8315e-13
2.02702e-13
2.49044e-13
1.66604e-13
1.32886e-13
1.24852e-13
1.66992e-13
1.07209e-13
9.08083e-14
9.95061e-14
3.1948e-14
8.94464e-14
2.23452e-14
8.57711e-14
3.79881e-14
7.66187e-14
1.14294e-14
6.58231e-14
-9.08454e-15
6.63779e-14
1.19502e-13
6.88818e-14
4.93489e-14
5.30174e-14
1.64541e-13
5.13415e-14
4.34391e-14
-1.40268e-14
8.03414e-15
1.25755e-14
5.20913e-12
6.66492e-12
4.16848e-12
6.6707e-12
3.4117e-12
4.68452e-12
2.79415e-12
4.096e-12
2.206e-12
3.03443e-12
1.76088e-12
2.5521e-12
1.4152e-12
2.06927e-12
1.08566e-12
1.53957e-12
8.64718e-13
1.38016e-12
6.92575e-13
1.22934e-12
5.49978e-13
1.00749e-12
4.91709e-13
7.84136e-13
4.37171e-13
4.90679e-13
3.0812e-13
3.60396e-13
2.38598e-13
4.54512e-13
2.02723e-13
2.83636e-13
1.67146e-13
1.70067e-13
1.41037e-13
1.92237e-13
1.19061e-13
1.13999e-13
1.03036e-13
4.7586e-14
9.08851e-14
3.53112e-14
8.62783e-14
4.26277e-14
7.68552e-14
2.13268e-14
6.19494e-14
6.17158e-15
6.02803e-14
1.21386e-13
6.2179e-14
4.80127e-14
6.63066e-14
1.60451e-13
6.57534e-14
4.46767e-14
-4.15301e-14
1.15259e-13
-2.86016e-14
5.15991e-12
7.80519e-12
4.16053e-12
7.69091e-12
3.36211e-12
5.46562e-12
2.72982e-12
4.74155e-12
2.15413e-12
3.60024e-12
1.74131e-12
2.97178e-12
1.40629e-12
2.39979e-12
1.04236e-12
1.90613e-12
8.24586e-13
1.59683e-12
6.74851e-13
1.37921e-12
5.69276e-13
1.11387e-12
5.06346e-13
8.45997e-13
4.2426e-13
5.74404e-13
2.88709e-13
4.94547e-13
2.29979e-13
5.15016e-13
1.91396e-13
3.20996e-13
1.49821e-13
2.13181e-13
1.3354e-13
2.07707e-13
1.16498e-13
1.32201e-13
9.51508e-14
6.85812e-14
7.97985e-14
5.14397e-14
7.75411e-14
4.49352e-14
7.65602e-14
2.27589e-14
6.9859e-14
1.32253e-14
7.66081e-14
1.14842e-13
7.69418e-14
4.82322e-14
9.53612e-14
1.42067e-13
1.01597e-13
3.91056e-14
-6.5616e-14
2.82423e-13
-9.3877e-14
5.10964e-12
8.93106e-12
4.11777e-12
8.70288e-12
3.28568e-12
6.28114e-12
2.65792e-12
5.3819e-12
2.10292e-12
4.14591e-12
1.69365e-12
3.38748e-12
1.37553e-12
2.71371e-12
1.06779e-12
2.21628e-12
8.30198e-13
1.83345e-12
6.56295e-13
1.55317e-12
5.99846e-13
1.17115e-12
5.09199e-13
9.35589e-13
3.95583e-13
6.89618e-13
2.86418e-13
6.02363e-13
2.42488e-13
5.60658e-13
2.03845e-13
3.58474e-13
1.63346e-13
2.55156e-13
1.47032e-13
2.23258e-13
1.2688e-13
1.53462e-13
1.03264e-13
9.18792e-14
8.51094e-14
7.03349e-14
7.80459e-14
5.20656e-14
7.63832e-14
2.48519e-14
7.12181e-14
1.87453e-14
8.29895e-14
1.03266e-13
8.06971e-14
5.1069e-14
7.17898e-14
1.5101e-13
9.22594e-14
1.92825e-14
-2.39168e-14
3.98558e-13
-1.17465e-13
5.02966e-12
1.00482e-11
4.06706e-12
9.68483e-12
3.22352e-12
7.10887e-12
2.59705e-12
6.0203e-12
2.05887e-12
4.67529e-12
1.65475e-12
3.79764e-12
1.34831e-12
3.01625e-12
1.0689e-12
2.4979e-12
8.43485e-13
2.05801e-12
6.70074e-13
1.72658e-12
5.81659e-13
1.2604e-12
4.74999e-13
1.04121e-12
3.66733e-13
7.9944e-13
2.7733e-13
6.90468e-13
2.31864e-13
6.07774e-13
1.92677e-13
3.96555e-13
1.53012e-13
2.96236e-13
1.31129e-13
2.44429e-13
1.14064e-13
1.71587e-13
9.37032e-14
1.11955e-13
7.7592e-14
8.7153e-14
7.21631e-14
5.75778e-14
7.4628e-14
2.27976e-14
7.69744e-14
1.67556e-14
1.03697e-13
7.67308e-14
9.96352e-14
5.56656e-14
8.18433e-14
1.68837e-13
1.37326e-13
-3.55728e-14
1.83639e-14
5.17488e-13
-9.87849e-14
4.93342e-12
1.11595e-11
3.99705e-12
1.06398e-11
3.15952e-12
7.93133e-12
2.54043e-12
6.65066e-12
2.02295e-12
5.18449e-12
1.62488e-12
4.20135e-12
1.32203e-12
3.31548e-12
1.05282e-12
2.76912e-12
8.40524e-13
2.26958e-12
6.75759e-13
1.89129e-12
5.59669e-13
1.37734e-12
4.49996e-13
1.14986e-12
3.50201e-13
9.00746e-13
2.78261e-13
7.61166e-13
2.32821e-13
6.54798e-13
1.9785e-13
4.3048e-13
1.66517e-13
3.28922e-13
1.43625e-13
2.66658e-13
1.25936e-13
1.90287e-13
1.05251e-13
1.32387e-13
8.8418e-14
1.0466e-13
7.82162e-14
6.78783e-14
7.31548e-14
2.82509e-14
7.47862e-14
1.54822e-14
8.80688e-14
6.36276e-14
8.20893e-14
6.21702e-14
5.72589e-14
1.93705e-13
7.57212e-14
-5.34266e-14
-1.12235e-14
6.04408e-13
-1.09704e-13
4.82273e-12
1.22654e-11
3.91301e-12