/*--------------------------------*- C++ -*----------------------------------*\
| =========                 |                                                 |
| \\      /  F ield         | OpenFOAM: The Open Source CFD Toolbox           |
|  \\    /   O peration     | Version:  2.4.0                                 |
|   \\  /    A nd           | Web:      www.OpenFOAM.org                      |
|    \\/     M anipulation  |                                                 |
\*---------------------------------------------------------------------------*/
FoamFile
{
    version     2.0;
    format      ascii;
    class       volScalarField;
    location    "0.26";
    object      alpha.water;
}
// * * * * * * * * * * * * * * * * * * * * * * * * * * * * * * * * * * * * * //

dimensions      [0 0 0 0 0 0 0];

internalField   nonuniform List<scalar> 
10000
(
3.20473e-55
2.67548e-51
1.03539e-47
1.95159e-44
1.18523e-41
2.41467e-39
2.0765e-37
9.03875e-36
2.26234e-34
3.58625e-33
3.96982e-32
3.40492e-31
2.43566e-30
1.52764e-29
8.85756e-29
5.04245e-28
3.12591e-27
1.99136e-26
1.19077e-25
6.53658e-25
3.2274e-24
1.44803e-23
5.95986e-23
2.26278e-22
7.85753e-22
2.47507e-21
6.94572e-21
1.6915e-20
3.32263e-20
4.59924e-20
4.46507e-20
3.04202e-20
1.49896e-20
5.5586e-21
1.62129e-21
3.91206e-22
8.14908e-23
1.4471e-23
2.08304e-24
2.29559e-25
1.85683e-26
1.09582e-27
4.85404e-29
1.70075e-30
4.244e-32
9.14408e-34
2.0115e-35
4.33734e-35
3.92628e-34
2.43576e-33
6.80083e-52
5.80847e-48
2.58078e-44
4.82061e-41
2.43254e-38
4.13802e-36
3.07332e-34
1.19114e-32
2.71527e-31
3.97437e-30
4.09422e-29
3.28434e-28
2.21906e-27
1.34662e-26
7.50014e-26
4.03476e-25
2.35893e-24
1.40476e-23
7.61983e-23
3.80916e-22
1.7387e-21
7.16811e-21
2.70825e-20
9.43313e-20
3.02882e-19
8.84619e-19
2.30101e-18
5.19689e-18
9.5733e-18
1.32045e-17
1.35323e-17
1.03513e-17
5.96911e-18
2.66297e-18
9.5596e-19
2.88034e-19
7.41854e-20
1.61718e-20
2.88283e-21
4.05858e-22
4.4228e-23
3.76044e-24
2.59475e-25
1.50098e-26
6.94786e-28
2.38546e-29
7.97346e-31
2.70428e-30
4.62215e-29
6.773e-28
2.06263e-49
2.68491e-45
1.94769e-41
3.33032e-38
1.3532e-35
1.90967e-33
1.22381e-31
4.22867e-30
8.80667e-29
1.19554e-27
1.14767e-26
8.63576e-26
5.50975e-25
3.1895e-24
1.68195e-23
8.5861e-23
4.62493e-22
2.53582e-21
1.24929e-20
5.65577e-20
2.34922e-19
8.84973e-19
3.06481e-18
9.82843e-18
2.91827e-17
7.96848e-17
1.95281e-16
4.17136e-16
7.39943e-16
1.02355e-15
1.09438e-15
9.1022e-16
5.89175e-16
3.02215e-16
1.27496e-16
4.58095e-17
1.41666e-17
3.74188e-18
8.28286e-19
1.51445e-19
2.26754e-20
2.84866e-21
3.01655e-22
2.49363e-23
1.5299e-24
6.85914e-26
2.36239e-26
2.80238e-25
3.08431e-24
2.88689e-23
2.90715e-47
7.68613e-43
7.72023e-39
1.06299e-35
3.41755e-33
3.99702e-31
2.21748e-29
6.85502e-28
1.30811e-26
1.65364e-25
1.48428e-24
1.04556e-23
6.28713e-23
3.429e-22
1.70524e-21
8.20678e-21
4.06792e-20
2.0285e-19
9.13724e-19
3.75807e-18
1.41219e-17
4.85052e-17
1.53879e-16
4.5511e-16
1.25439e-15
3.20181e-15
7.43178e-15
1.5154e-14
2.61627e-14
3.63719e-14
4.02704e-14
3.56462e-14
2.52305e-14
1.44238e-14
6.87801e-15
2.81308e-15
9.9847e-16
3.06567e-16
8.0547e-17
1.79142e-17
3.35223e-18
5.38075e-19
6.93116e-20
6.80989e-21
4.83531e-22
2.92762e-23
7.40278e-23
7.12498e-22
5.85238e-21
4.08165e-20
3.18198e-45
1.90851e-40
1.83611e-36
1.88305e-33
4.78718e-31
4.68857e-29
2.26888e-27
6.30623e-26
1.10668e-24
1.30674e-23
1.10218e-22
7.2608e-22
4.09784e-21
2.08842e-20
9.76408e-20
4.40376e-19
2.01068e-18
9.08164e-18
3.74068e-17
1.40365e-16
4.77382e-16
1.49354e-15
4.34746e-15
1.18713e-14
3.04294e-14
7.27258e-14
1.59794e-13
3.12765e-13
5.27069e-13
7.35957e-13
8.39679e-13
7.8222e-13
5.93931e-13
3.69884e-13
1.93677e-13
8.75657e-14
3.46462e-14
1.20059e-14
3.60526e-15
9.24224e-16
2.02737e-16
3.72976e-17
5.44694e-18
6.00443e-19
4.681e-20
5.49465e-21
2.9942e-20
2.34983e-19
1.56167e-18
8.83151e-18
3.05326e-43
3.97527e-38
2.67655e-34
2.04602e-31
4.18195e-29
3.46833e-27
1.47461e-25
3.70294e-24
5.99802e-23
6.63684e-22
5.28335e-21
3.25912e-20
1.72195e-19
8.16092e-19
3.56248e-18
1.49881e-17
6.30193e-17
2.58391e-16
9.73609e-16
3.33521e-15
1.03003e-14
2.93456e-14
7.84724e-14
1.98182e-13
4.72974e-13
1.05986e-12
2.20179e-12
4.13825e-12
6.80937e-12
9.52888e-12
1.11644e-11
1.08742e-11
8.75187e-12
5.8377e-12
3.29365e-12
1.61422e-12
6.97882e-13
2.66918e-13
8.91609e-14
2.55924e-14
6.30181e-15
1.27638e-15
2.05114e-16
2.48046e-17
2.12701e-18
4.92826e-19
3.07121e-18
2.05889e-17
1.16795e-16
5.64737e-16
3.14014e-41
5.53018e-36
2.53891e-32
1.47349e-29
2.45733e-27
1.7427e-25
6.55139e-24
1.49278e-22
2.23932e-21
2.32935e-20
1.75646e-19
1.01861e-18
5.03032e-18
2.21122e-17
8.95567e-17
3.49254e-16
1.35366e-15
5.04953e-15
1.74565e-14
5.4575e-14
1.53346e-13
3.9835e-13
9.7937e-13
2.2912e-12
5.09851e-12
1.07154e-11
2.10198e-11
3.78152e-11
6.06966e-11
8.49102e-11
1.01802e-10
1.0327e-10
8.74409e-11
6.16958e-11
3.701e-11
1.94137e-11
9.05074e-12
3.75617e-12
1.36947e-12
4.33442e-13
1.17221e-13
2.59124e-14
4.52453e-15
5.9709e-16
5.6938e-17
1.98579e-17
1.18653e-16
7.05236e-16
3.54534e-15
1.52052e-14
3.0945e-39
5.26019e-34
1.65802e-30
7.43042e-28
1.02354e-25
6.2583e-24
2.09168e-22
4.34067e-21
6.04715e-20
5.92994e-19
4.25035e-18
2.33042e-17
1.07602e-16
4.3828e-16
1.63828e-15
5.88755e-15
2.0995e-14
7.13773e-14
2.27274e-13
6.4938e-13
1.66202e-12
3.94392e-12
8.91727e-12
1.93488e-11
4.02134e-11
7.9255e-11
1.46488e-10
2.5132e-10
3.92134e-10
5.46933e-10
6.69581e-10
7.05603e-10
6.2529e-10
4.61865e-10
2.9134e-10
1.62085e-10
8.0836e-11
3.60391e-11
1.42105e-11
4.90238e-12
1.44542e-12
3.49732e-13
6.66184e-14
9.61409e-15
1.02226e-15
4.02014e-16
2.20342e-15
1.19505e-14
5.47622e-14
2.1407e-13
3.28809e-37
3.54314e-32
7.78513e-29
2.73235e-26
3.14043e-24
1.66707e-22
4.97654e-21
9.43391e-20
1.22319e-18
1.13323e-17
7.74479e-17
4.04145e-16
1.74762e-15
6.60413e-15
2.27097e-14
7.47946e-14
2.4425e-13
7.59295e-13
2.23374e-12
5.84486e-12
1.36508e-11
2.96071e-11
6.15579e-11
1.2403e-10
2.41055e-10
4.45841e-10
7.75665e-10
1.26402e-09
1.90712e-09
2.64576e-09
3.30674e-09
3.61731e-09
3.3433e-09
2.55679e-09
1.6785e-09
9.83804e-10
5.21248e-10
2.48783e-10
1.05832e-10
3.96341e-11
1.2726e-11
3.38212e-12
7.12478e-13
1.13321e-13
1.33634e-14
4.73764e-15
2.31559e-14
1.17247e-13
5.00669e-13
1.82163e-12
2.85821e-35
1.7463e-30
2.7166e-27
7.55786e-25
7.31e-23
3.38898e-21
9.07105e-20
1.57448e-18
1.90265e-17
1.66765e-16
1.08929e-15
5.44259e-15
2.213e-14
7.78518e-14
2.46073e-13
7.39112e-13
2.19874e-12
6.25867e-12
1.70588e-11
4.10114e-11
8.76288e-11
1.7369e-10
3.3207e-10
6.21805e-10
1.1312e-09
1.96408e-09
3.21526e-09
4.9678e-09
7.21568e-09
9.9894e-09
1.28239e-08
1.4621e-08
1.40647e-08
1.09438e-08
7.3581e-09
4.50268e-09
2.52386e-09
1.28866e-09
5.92117e-10
2.41154e-10
8.48045e-11
2.48613e-11
5.84655e-12
1.04304e-12
1.36303e-13
3.75798e-14
1.54724e-13
7.44984e-13
3.01843e-12
1.03932e-11
1.94343e-33
6.47193e-29
7.23109e-26
1.61164e-23
1.32145e-21
5.37795e-20
1.29491e-18
2.06149e-17
2.32341e-16
1.92749e-15
1.20491e-14
5.78842e-14
2.228e-13
7.33098e-13
2.13414e-12
5.82771e-12
1.57153e-11
4.09731e-11
1.03585e-10
2.29777e-10
4.50634e-10
8.1633e-10
1.4363e-09
2.49824e-09
4.25144e-09
6.93175e-09
1.06848e-08
1.56834e-08
2.19865e-08
3.10233e-08
4.15954e-08
4.97787e-08
4.98965e-08
3.83572e-08
2.5781e-08
1.62175e-08
9.53723e-09
5.19969e-09
2.58657e-09
1.15082e-09
4.46043e-10
1.45292e-10
3.82653e-11
7.7566e-12
1.14291e-12
2.34234e-13
7.17281e-13
3.33019e-12
1.3001e-11
4.29494e-11
1.0151e-31
1.84285e-27
1.49963e-24
2.70305e-22
1.89114e-20
6.78703e-19
1.47419e-17
2.15516e-16
2.26541e-15
1.77792e-14
1.06374e-13
4.92411e-13
1.8083e-12
5.59683e-12
1.50798e-11
3.74257e-11
9.11482e-11
2.17513e-10
5.09654e-10
1.04753e-09
1.89326e-09
3.13731e-09
5.08976e-09
8.20789e-09
1.30366e-08
1.99375e-08
2.88994e-08
4.02726e-08
5.47793e-08
8.21691e-08
1.16164e-07
1.45441e-07
1.61283e-07
1.12756e-07
7.51122e-08
4.80626e-08
2.93526e-08
1.69832e-08
9.11642e-09
4.43332e-09
1.90281e-09
6.93071e-10
2.05434e-10
4.73996e-11
8.0395e-12
1.32923e-12
2.47828e-12
1.11502e-11
4.25216e-11
1.36364e-10
4.06992e-30
4.10544e-26
2.46677e-23
3.62704e-21
2.17795e-19
6.92094e-18
1.3594e-16
1.82641e-15
1.78945e-14
1.32661e-13
7.58685e-13
3.38545e-12
1.19433e-11
3.49903e-11
8.79189e-11
1.98991e-10
4.36977e-10
9.49386e-10
2.06629e-09
3.95073e-09
6.60432e-09
1.00302e-08
1.5027e-08
2.24379e-08
3.3141e-08
4.71894e-08
6.34614e-08
8.09987e-08
1.02469e-07
1.92968e-07
2.73265e-07
4.00777e-07
7.02682e-07
2.80996e-07
1.66914e-07
1.15155e-07
7.51655e-08
4.63182e-08
2.6651e-08
1.40688e-08
6.65892e-09
2.71643e-09
9.13818e-10
2.40602e-10
4.712e-11
7.38123e-12
6.87453e-12
2.93577e-11
1.10747e-10
3.48425e-10
1.27117e-28
7.28145e-25
3.27239e-22
3.95521e-20
2.04896e-18
5.78616e-17
1.02988e-15
1.27208e-14
1.16024e-13
8.10543e-13
4.41843e-12
1.8973e-11
6.46848e-11
1.80142e-10
4.25786e-10
8.86024e-10
1.75869e-09
3.45765e-09
7.02611e-09
1.25401e-08
1.93843e-08
2.69709e-08
3.75191e-08
5.18919e-08
7.0619e-08
9.24348e-08
1.14847e-07
1.39654e-07
1.7922e-07
2.84547e-07
6.56775e-07
1.92777e-06
3.74166e-06
1.45436e-06
6.55576e-07
3.32625e-07
1.92885e-07
1.15725e-07
6.78242e-08
3.77195e-08
1.93157e-08
8.74496e-09
3.33195e-09
1.01166e-09
2.29456e-10
3.84824e-11
1.7029e-11
6.31655e-11
2.38396e-10
7.43326e-10
3.22377e-27
1.05141e-23
3.5704e-21
3.56744e-19
1.60082e-17
4.02855e-16
6.50674e-15
7.38604e-14
6.25778e-13
4.10463e-12
2.12306e-11
8.73666e-11
2.87783e-10
7.66251e-10
1.71675e-09
3.32781e-09
6.01372e-09
1.06505e-08
2.04456e-08
3.4357e-08
4.84107e-08
6.16437e-08
8.05116e-08
1.02806e-07
1.26731e-07
1.49149e-07
1.66996e-07
1.8154e-07
2.30537e-07
5.5049e-07
1.88791e-06
1.09812e-05
1.55218e-05
6.20993e-06
1.00943e-06
5.64706e-07
3.13737e-07
2.01538e-07
1.29707e-07
7.93774e-08
4.49157e-08
2.27383e-08
9.84002e-09
3.45259e-09
9.21289e-10
1.76107e-10
4.40987e-11
1.14773e-10
4.36504e-10
1.36323e-09
6.86912e-26
1.29931e-22
3.31775e-20
2.73783e-18
1.06503e-16
2.38957e-15
3.50056e-14
3.64421e-13
2.85663e-12
1.74908e-11
8.52208e-11
3.33619e-10
1.0553e-09
2.70459e-09
5.76325e-09
1.05378e-08
1.75926e-08
2.80543e-08
5.22806e-08
8.49448e-08
1.0288e-07
1.22065e-07
1.51558e-07
1.75837e-07
1.9173e-07
2.00682e-07
2.09694e-07
2.34918e-07
4.06469e-07
9.35081e-07
7.20126e-06
1.55102e-05
1.55146e-05
1.48324e-05
2.90669e-06
7.14282e-07
3.18547e-07
2.32118e-07
1.7443e-07
1.24168e-07
8.0982e-08
4.70408e-08
2.34072e-08
9.53597e-09
3.00076e-09
6.81222e-10
1.32878e-10
1.82767e-10
6.94636e-10
2.1986e-09
1.22152e-24
1.43882e-21
2.77782e-19
1.88761e-17
6.3297e-16
1.25859e-14
1.66292e-13
1.57826e-12
1.13612e-11
6.4335e-11
2.91824e-10
1.07296e-09
3.22112e-09
7.92367e-09
1.60907e-08
2.79689e-08
4.38109e-08
6.3298e-08
5.89651e-08
1.89205e-07
1.83835e-07
2.04244e-07
1.89152e-07
2.60373e-07
2.39048e-07
2.03376e-07
2.38258e-07
2.44199e-07
2.84581e-07
5.58889e-07
1.89405e-06
1.14545e-05
1.55221e-05
6.95413e-06
1.2496e-06
7.89161e-07
3.66377e-07
2.57875e-07
2.08706e-07
1.66775e-07
1.23534e-07
8.17837e-08
4.65753e-08
2.18959e-08
8.07366e-09
2.18482e-09
4.34821e-10
2.73422e-10
9.75641e-10
3.17159e-09
1.77738e-23
1.38888e-20
2.0742e-18
1.17588e-16
3.42622e-15
6.06521e-14
7.23819e-13
6.2507e-12
4.10745e-11
2.12639e-10
8.8441e-10
2.99773e-09
8.36753e-09
1.93372e-08
3.73095e-08
6.18187e-08
9.20218e-08
7.40886e-08
2.98579e-07
3.18953e-07
2.35871e-07
3.02721e-07
2.19002e-07
3.26744e-07
3.21209e-07
5.39353e-07
2.39382e-07
2.7031e-07
2.74869e-07
3.06962e-07
5.65626e-07
1.98251e-06
3.48995e-06
1.72618e-06
6.45811e-07
4.45369e-07
3.12889e-07
2.66237e-07
2.38577e-07
2.08918e-07
1.70834e-07
1.25822e-07
8.06249e-08
4.31399e-08
1.84028e-08
5.89355e-09
1.34025e-09
4.42583e-10
1.22355e-09
4.13908e-09
1.98399e-22
1.10701e-19
1.31715e-17
6.33266e-16
1.62141e-14
2.57641e-13
2.79488e-12
2.20813e-11
1.33026e-10
6.30828e-10
2.40169e-09
7.44401e-09
1.9006e-08
4.05184e-08
7.33478e-08
1.14408e-07
1.62738e-07
1.69201e-07
3.23857e-07
3.48724e-07
2.37045e-07
3.50499e-07
9.41149e-07
3.50814e-07
3.62414e-07
3.55848e-07
6.70482e-07
2.70879e-07
2.93053e-07
3.01041e-07
3.32546e-07
5.82467e-07
1.00813e-06
6.09298e-07
3.60253e-07
2.88875e-07
2.83953e-07
2.73763e-07
2.66476e-07
2.49099e-07
2.17438e-07
1.74338e-07
1.23775e-07
7.44604e-08
3.63217e-08
1.36107e-08
3.6615e-09
8.8655e-10
1.39821e-09
4.91184e-09
1.62196e-21
6.93057e-19
6.84198e-17
2.85115e-15
6.49644e-14
9.33817e-13
9.25471e-12
6.7146e-11
3.72102e-10
1.62246e-09
5.67575e-09
1.61511e-08
3.78387e-08
7.40217e-08
1.2361e-07
1.81484e-07
2.43326e-07
2.84814e-07
6.57554e-07
3.4947e-07
3.15328e-06
3.52249e-07
6.8465e-07
5.40321e-07
3.88159e-07
3.42515e-07
3.15112e-07
3.05081e-07
3.18599e-07
3.342e-07
3.36682e-07
3.54508e-07
4.09251e-07
3.69657e-07
3.40453e-07
5.93171e-07
2.86398e-07
3.11012e-07
3.37252e-07
3.28806e-07
2.75152e-07
2.23359e-07
1.71218e-07
1.14459e-07
6.32439e-08
2.73979e-08
8.75242e-09
2.09346e-09
1.54926e-09
5.31089e-09
9.73957e-21
3.36488e-18
2.83682e-16
1.04338e-14
2.13982e-13
2.80094e-12
2.54648e-11
1.70173e-10
8.6976e-10
3.49688e-09
1.12761e-08
2.957e-08
6.38804e-08
1.15752e-07
1.81572e-07
2.60738e-07
3.7793e-07
6.32547e-07
1.30519e-06
6.34158e-06
9.10865e-06
5.49237e-06
5.81586e-07
5.57433e-07
4.22334e-07
3.63526e-07
3.36114e-07
3.2217e-07
3.48929e-07
3.92025e-07
3.51983e-07
3.96957e-07
3.9257e-07
3.90038e-07
3.80914e-07
4.2455e-07
3.72185e-07
4.87286e-07
6.96736e-07
6.45452e-07
5.03483e-07
3.13755e-07
2.25536e-07
1.59837e-07
9.86042e-08
4.91341e-08
1.85072e-08
5.02044e-09
1.93822e-09
5.2518e-09
4.21721e-20
1.23701e-17
9.16164e-16
3.02616e-14
5.65227e-13
6.80024e-12
5.71426e-11
3.54008e-10
1.67924e-09
6.26649e-09
1.87556e-08
4.56729e-08
9.18192e-08
1.56069e-07
2.3486e-07
3.37289e-07
5.10104e-07
9.65864e-07
2.43561e-06
9.1536e-06
9.1438e-06
9.15106e-06
8.78645e-07
6.37468e-07
4.94095e-07
4.0287e-07
3.53834e-07
3.33346e-07
3.71971e-07
4.15896e-07
6.1911e-07
5.06772e-07
4.84313e-07
4.86863e-07
5.05369e-07
5.4336e-07
6.48843e-07
7.35746e-07
2.54113e-06
3.77309e-06
1.11338e-06
7.54425e-07
3.6676e-07
2.21769e-07
1.4129e-07
7.90856e-08
3.49679e-08
1.13559e-08
3.23925e-09
4.85517e-09
1.32248e-19
3.43174e-17
2.29712e-15
6.95556e-14
1.20245e-12
1.34687e-11
1.05734e-10
6.13016e-10
2.72243e-09
9.50704e-09
2.66117e-08
6.06087e-08
1.14131e-07
1.8261e-07
2.61897e-07
3.68725e-07
5.7081e-07
1.01021e-06
1.80367e-06
5.61654e-06
5.52777e-06
4.67931e-06
7.09662e-07
5.42139e-07
4.97825e-07
4.16513e-07
3.58635e-07
3.38862e-07
3.47445e-07
4.65586e-07
4.6847e-07
5.95625e-07
5.9163e-07
5.41875e-07
5.09332e-07
5.0758e-07
5.20569e-07
3.98275e-06
1.13518e-05
1.18036e-05
1.01583e-05
1.65502e-06
7.38558e-07
3.51753e-07
2.00339e-07
1.17568e-07
5.94737e-08
2.31539e-08
6.84202e-09
4.63213e-09
3.07981e-19
7.33416e-17
4.56025e-15
1.2927e-13
2.10226e-12
2.22265e-11
1.65031e-10
9.05826e-10
3.80866e-09
1.25828e-08
3.32873e-08
7.16727e-08
1.283e-07
1.99315e-07
2.92966e-07
4.55361e-07
7.88626e-07
1.4947e-06
2.845e-06
1.66473e-05
1.35288e-05
9.05448e-06
9.36162e-07
1.3311e-06
4.15683e-07
3.74367e-07
3.41097e-07
3.33901e-07
3.48092e-07
3.48778e-07
1.6653e-06
7.1155e-07
7.22714e-07
6.12923e-07
5.34032e-07
5.42637e-07
6.42189e-07
7.44465e-06
1.19362e-05
1.19386e-05
1.19388e-05
4.15118e-06
7.21859e-07
4.48869e-07
2.62454e-07
1.61076e-07
9.15808e-08
4.25528e-08
1.50206e-08
5.83209e-09
5.48484e-19
1.23688e-16
7.31716e-15
1.98058e-13
3.08173e-12
3.12023e-11
2.21984e-10
1.16758e-09
4.70218e-09
1.48673e-08
3.76246e-08
7.76194e-08
1.33936e-07
2.03391e-07
3.02236e-07
5.15874e-07
1.09826e-06
2.64108e-06
2.03527e-05
2.69958e-05
2.7008e-05
2.70086e-05
7.35819e-06
5.12032e-07
4.59845e-07
3.57399e-07
3.2915e-07
3.25081e-07
3.63629e-07
4.60117e-07
5.53477e-07
9.12103e-07
7.73385e-07
6.23002e-07
5.46503e-07
7.28314e-07
9.30681e-07
2.05728e-06
1.04894e-05
1.19392e-05
1.17731e-05
3.39017e-06
6.42343e-07
4.58414e-07
2.99151e-07
2.02331e-07
1.29036e-07
7.01473e-08
3.01518e-08
1.0849e-08
7.65465e-19
1.677e-16
9.65074e-15
2.53864e-13
3.83653e-12
3.77068e-11
2.60136e-10
1.32569e-09
5.17055e-09
1.58378e-08
3.88989e-08
7.82363e-08
1.3269e-07
2.00185e-07
2.97996e-07
5.07337e-07
1.03441e-06
1.51481e-06
2.54595e-05
2.6996e-05
2.70001e-05
2.70096e-05
1.47499e-05
3.7494e-07
3.5574e-07
3.28036e-07
3.22125e-07
6.06233e-07
3.74739e-07
4.75454e-07
7.45218e-07
1.12684e-06
2.45785e-06
4.86556e-07
4.81533e-07
5.31662e-07
6.26182e-07
1.01692e-06
1.70842e-06
4.10183e-06
1.9292e-06
1.50004e-06
2.3636e-06
6.98032e-07
4.25495e-07
2.72406e-07
1.79014e-07
1.08175e-07
5.49763e-08
2.26357e-08
8.5355e-19
1.85814e-16
1.05951e-14
2.75732e-13
4.11216e-12
3.97841e-11
2.69751e-10
1.34971e-09
5.1681e-09
1.55596e-08
3.7669e-08
7.49948e-08
1.26453e-07
1.89758e-07
2.79714e-07
4.80612e-07
1.15218e-06
3.22961e-06
2.37833e-05
2.69941e-05
2.69992e-05
2.70017e-05
1.46187e-05
3.53963e-07
3.32309e-07
3.27694e-07
3.36818e-07
3.4581e-07
3.88383e-07
4.54262e-07
5.85275e-07
6.93e-07
5.12987e-07
5.79615e-07
3.85442e-07
4.05845e-07
4.22888e-07
5.32692e-07
7.28545e-07
8.42288e-07
8.12722e-07
7.7542e-07
8.84797e-07
6.4233e-07
5.50773e-07
3.80291e-07
2.56078e-07
1.64094e-07
9.35406e-08
4.50255e-08
7.70216e-19
1.7044e-16
9.8199e-15
2.56889e-13
3.83884e-12
3.71215e-11
2.51026e-10
1.25108e-09
4.77067e-09
1.43195e-08
3.46513e-08
6.91412e-08
1.1677e-07
1.72453e-07
2.32877e-07
3.05777e-07
4.38314e-07
7.40928e-07
6.73134e-06
2.36536e-05
2.59774e-05
1.90336e-05
2.08006e-06
4.67795e-07
3.41041e-07
3.49636e-07
3.75884e-07
3.95183e-07
4.09952e-07
4.2837e-07
4.63893e-07
4.90341e-07
4.49199e-07
3.83293e-07
3.78085e-07
3.75677e-07
3.77524e-07
4.05087e-07
4.32041e-07
4.73128e-07
4.51652e-07
3.96578e-07
7.19638e-07
1.74081e-06
7.17208e-07
4.81799e-07
2.37132e-07
1.87728e-07
1.3107e-07
7.63278e-08
5.66021e-19
1.30252e-16
7.7383e-15
2.07333e-13
3.1566e-12
3.09889e-11
2.12162e-10
1.06862e-09
4.11616e-09
1.24873e-08
3.05874e-08
6.19645e-08
1.06554e-07
1.602e-07
2.17539e-07
2.74083e-07
3.27519e-07
3.95657e-07
9.05821e-07
2.62903e-06
1.14009e-06
1.51416e-06
7.45777e-07
3.81463e-07
3.64299e-07
3.50502e-07
4.39629e-07
4.67067e-07
4.51711e-07
4.30825e-07
4.46739e-07
4.51048e-07
4.11399e-07
3.85523e-07
3.54378e-07
7.04771e-07
3.69845e-07
4.24792e-07
3.76396e-07
3.79572e-07
3.67858e-07
3.43819e-07
3.4739e-07
4.32757e-07
1.8476e-06
1.8617e-06
1.48458e-06
4.74295e-07
1.78815e-07
1.00751e-07
3.37822e-19
8.27976e-17
5.17405e-15
1.44531e-13
2.28104e-12
2.31048e-11
1.62698e-10
8.40701e-10
3.31567e-09
1.02949e-08
2.582e-08
5.36264e-08
9.4527e-08
1.44711e-07
1.95587e-07
2.34529e-07
2.36104e-07
6.04004e-07
4.22016e-07
6.8171e-07
5.15721e-07
5.72281e-07
4.186e-07
3.8164e-07
3.65579e-07
5.66318e-07
4.4204e-07
5.54469e-07
5.50947e-07
6.10513e-07
5.0741e-07
6.59118e-07
4.53203e-07
4.0026e-07
3.51594e-07
3.5857e-07
3.66288e-07
3.71013e-07
5.64397e-07
4.22307e-07
4.08263e-07
3.64265e-07
3.28271e-07
3.11876e-07
5.19225e-07
5.96558e-07
1.97327e-06
1.97817e-06
9.20921e-07
2.7178e-07
1.62066e-19
4.33728e-17
2.91748e-15
8.67301e-14
1.44374e-12
1.53306e-11
1.12773e-10
6.07407e-10
2.49366e-09
8.05197e-09
2.09878e-08
4.52565e-08
8.27599e-08
1.31463e-07
1.84808e-07
2.32387e-07
2.63735e-07
2.67835e-07
5.82691e-07
3.50244e-07
3.39375e-07
3.51214e-07
3.48643e-07
4.02184e-07
4.57194e-07
4.59525e-07
1.23977e-06
6.90356e-07
5.02542e-07
4.98404e-07
4.9796e-07
4.98804e-07
4.33629e-07
4.31065e-07
3.68909e-07
3.67531e-07
3.80956e-07
3.94379e-07
4.74706e-07
6.0127e-07
5.34043e-07
4.48066e-07
3.89751e-07
3.51806e-07
3.33256e-07
3.5864e-07
6.35335e-07
9.50627e-07
1.22427e-06
7.95294e-07
6.25267e-20
1.86962e-17
1.38033e-15
4.44781e-14
7.9576e-13
9.02744e-12
7.06727e-11
4.03995e-10
1.75623e-09
5.98809e-09
1.6434e-08
3.72038e-08
7.11078e-08
1.17314e-07
1.70351e-07
2.21047e-07
2.5946e-07
2.80084e-07
2.8465e-07
3.08717e-07
3.1761e-07
3.17808e-07
7.47416e-07
3.96064e-07
4.86515e-07
5.38701e-07
6.02876e-07
6.06013e-07
8.77409e-06
3.71239e-05
3.8657e-05
3.72734e-05
9.86646e-06
4.14063e-07
4.00109e-07
3.98371e-07
4.20815e-07
4.35093e-07
5.0431e-07
6.92956e-07
6.38858e-07
5.08281e-07
4.53412e-07
4.21251e-07
3.75931e-07
3.38169e-07
3.74008e-07
5.69177e-07
9.74316e-07
1.06438e-06
1.9363e-20
6.60491e-18
5.47258e-16
1.95174e-14
3.82533e-13
4.72187e-12
3.99751e-11
2.45907e-10
1.14665e-09
4.18658e-09
1.22836e-08
2.96139e-08
5.98734e-08
1.03388e-07
1.54817e-07
2.04338e-07
2.43277e-07
2.66724e-07
2.74668e-07
3.00304e-07
3.10046e-07
3.18249e-07
3.25927e-07
3.85618e-07
4.3367e-07
4.16381e-07
3.31046e-07
6.31952e-06
4.04969e-05
4.42739e-05
4.42651e-05
4.42535e-05
4.34826e-05
7.81741e-06
4.08955e-07
4.42634e-07
4.64974e-07
4.41299e-07
4.56383e-07
1.18055e-06
6.04523e-07
5.20394e-07
4.69952e-07
4.53295e-07
3.82719e-07
3.66583e-07
3.37046e-07
3.93203e-07
5.90215e-07
8.94634e-07
4.79667e-21
1.90035e-18
1.80061e-16
7.22844e-15
1.57777e-13
2.15061e-12
1.99887e-11
1.34499e-10
6.83703e-10
2.71224e-09
8.61312e-09
2.23605e-08
4.83452e-08
8.83117e-08
1.37606e-07
1.8466e-07
2.18865e-07
2.19483e-07
7.52903e-07
2.79055e-07
3.01792e-07
3.11053e-07
3.17596e-07
3.18012e-07
6.59708e-07
3.42955e-07
3.30031e-07
1.10396e-05
4.42941e-05
4.42717e-05
4.42643e-05
4.42541e-05
4.42644e-05
2.08897e-05
4.65224e-07
4.88106e-07
4.65937e-07
5.28765e-07
4.66792e-07
4.84398e-07
5.69018e-07
3.17725e-06
2.14344e-05
2.53058e-05
2.14143e-05
5.17044e-06
4.62241e-07
3.64988e-07
4.09831e-07
4.85368e-07
9.3418e-22
4.45657e-19
4.93842e-17
2.27079e-15
5.58603e-14
8.49303e-13
8.75257e-12
6.50954e-11
3.65185e-10
1.59431e-09
5.54121e-09
1.56503e-08
3.66453e-08
7.24178e-08
1.22166e-07
1.76435e-07
2.19735e-07
2.44817e-07
2.50301e-07
2.62404e-07
2.63108e-07
3.82871e-07
3.2935e-07
3.24561e-07
3.30727e-07
3.30401e-07
3.30008e-07
1.57344e-05
4.42912e-05
4.42754e-05
4.42516e-05
4.42545e-05
4.42519e-05
2.46104e-05
5.12396e-07
4.89602e-07
9.42565e-07
5.36631e-07
5.70088e-07
5.50828e-07
1.5828e-06
3.49069e-05
4.44688e-05
4.44789e-05
4.44775e-05
3.74939e-05
2.38364e-06
3.75111e-07
4.3271e-07
3.96218e-07
1.35074e-22
8.17837e-20
1.10921e-17
6.03072e-16
1.71255e-14
2.95408e-13
3.41348e-12
2.81943e-11
1.74183e-10
8.33805e-10
3.1736e-09
9.79619e-09
2.49673e-08
5.36358e-08
9.84441e-08
1.54592e-07
2.07497e-07
2.43907e-07
2.44614e-07
8.08006e-07
2.81231e-07
2.76515e-07
3.3667e-07
3.52803e-07
3.28436e-07
3.94834e-07
3.34481e-07
2.58007e-06
4.0929e-05
4.42882e-05
4.4279e-05
4.42548e-05
4.42542e-05
1.88192e-05
5.34494e-07
5.27444e-07
5.4527e-07
5.27458e-07
5.35375e-07
4.4594e-07
1.50535e-05
4.44907e-05
4.44737e-05
4.44777e-05
4.44882e-05
4.44844e-05
2.37718e-05
2.07478e-06
4.62975e-07
3.65299e-07
1.46634e-23
1.21173e-20
2.12778e-18
1.43529e-16
4.86947e-15
9.68539e-14
1.25251e-12
1.13184e-11
7.55113e-11
3.89183e-10
1.59816e-09
5.34921e-09
1.4907e-08
3.51104e-08
7.0848e-08
1.23046e-07
1.82027e-07
2.30328e-07
2.5647e-07
2.62303e-07
3.17897e-07
2.78194e-07
2.76195e-07
2.97376e-07
3.26306e-07
3.6254e-07
3.84561e-07
3.91774e-07
8.7239e-06
3.3629e-05
4.42615e-05
4.40787e-05
2.49115e-05
1.77196e-06
6.34699e-07
5.01029e-07
4.82643e-07
7.37202e-07
4.84763e-07
4.45504e-07
1.53596e-05
4.44941e-05
4.44883e-05
4.44901e-05
4.44956e-05
4.44925e-05
1.08797e-05
6.59537e-06
1.56095e-06
3.18361e-07
1.21058e-24
1.48327e-21
3.69714e-19
3.32107e-17
1.3939e-15
3.22884e-14
4.6658e-13
4.57688e-12
3.25259e-11
1.76336e-10
7.57236e-10
2.66884e-09
7.90993e-09
2.00317e-08
4.41313e-08
8.5049e-08
1.41137e-07
1.96932e-07
1.99058e-07
4.43031e-07
2.62248e-07
2.77078e-07
2.84488e-07
2.96684e-07
3.18254e-07
3.57076e-07
4.21791e-07
4.6347e-07
4.74579e-07
2.42872e-06
2.43872e-06
2.88844e-06
1.24761e-06
6.93877e-07
4.69416e-07
7.8419e-07
4.70086e-07
4.79092e-07
5.12095e-07
4.451e-07
7.31806e-06
4.27507e-05
4.4498e-05
4.44949e-05
4.45094e-05
2.80805e-05
9.70961e-07
4.09179e-07
4.04504e-07
8.2698e-07
7.79752e-26
1.62177e-22
6.5814e-20
8.32373e-18
4.35005e-16
1.166e-14
1.86055e-13
1.95864e-12
1.46543e-11
8.24962e-11
3.65252e-10
1.32446e-09
4.04873e-09
1.069e-08
2.47745e-08
5.10836e-08
9.36583e-08
1.48463e-07
1.97942e-07
2.03412e-07
2.46616e-07
2.69289e-07
2.79007e-07
2.88138e-07
3.04265e-07
3.41789e-07
4.21555e-07
4.67507e-07
5.44405e-07
1.88209e-06
1.04832e-06
8.38222e-07
6.50302e-07
5.3223e-07
4.60838e-07
3.95369e-07
4.37566e-07
4.45846e-07
4.45346e-07
4.44911e-07
4.45662e-07
1.39767e-05
3.22719e-05
2.62269e-05
1.40691e-05
6.84275e-07
5.25845e-07
4.58668e-07
4.12319e-07
4.56977e-07
4.21066e-27
1.66641e-23
1.19924e-20
2.16015e-18
1.40109e-16
4.29331e-15
7.45025e-14
8.27986e-13
6.43452e-12
3.73084e-11
1.69618e-10
6.3088e-10
1.98105e-09
5.39372e-09
1.29781e-08
2.79892e-08
5.45709e-08
9.50247e-08
1.44192e-07
1.90905e-07
2.29093e-07
2.54748e-07
2.63484e-07
2.76328e-07
2.87498e-07
3.14711e-07
3.5914e-07
4.95601e-07
7.81169e-07
9.08363e-07
8.28118e-07
6.87004e-07
8.47142e-07
3.93851e-07
3.8851e-07
3.78445e-07
3.68001e-07
9.96138e-07
3.39917e-06
1.11538e-06
3.62195e-06
5.90761e-06
1.92734e-06
6.68466e-07
5.61289e-07
5.48556e-07
5.32957e-07
5.52868e-07
4.09201e-07
3.97999e-07
1.68296e-28
1.54255e-24
2.38586e-21
5.81905e-19
4.38238e-17
1.46614e-15
2.69502e-14
3.12328e-13
2.5074e-12
1.49616e-11
7.0025e-11
2.68319e-10
8.70458e-10
2.45424e-09
6.13849e-09
1.38142e-08
2.83152e-08
5.2846e-08
8.85192e-08
1.31676e-07
1.75471e-07
2.12877e-07
1.89813e-07
6.63251e-07
2.58014e-07
2.75257e-07
3.1322e-07
4.00623e-07
4.75969e-07
4.98552e-07
4.7351e-07
4.42547e-07
4.02896e-07
3.82998e-07
3.70435e-07
3.63089e-07
3.61427e-07
5.06926e-06
1.41125e-05
1.41157e-05
6.72428e-06
7.77827e-07
6.43611e-07
5.5945e-07
5.69675e-07
1.58381e-06
1.57439e-06
5.21596e-07
4.38634e-07
4.2138e-07
3.38708e-30
1.77218e-25
4.65488e-22
1.39981e-19
1.18837e-17
4.29951e-16
8.35913e-15
1.00975e-13
8.37387e-13
5.13733e-12
2.47103e-11
9.76591e-11
3.28607e-10
9.65934e-10
2.52982e-09
5.9811e-09
1.29189e-08
2.56299e-08
4.65007e-08
7.64181e-08
1.13368e-07
1.52579e-07
1.87902e-07
1.78233e-07
2.11791e-07
2.43333e-07
2.76443e-07
3.40709e-07
4.03186e-07
4.23475e-07
4.08324e-07
3.87144e-07
3.75573e-07
3.70181e-07
3.65108e-07
3.61096e-07
3.61125e-07
1.26968e-05
1.41105e-05
1.41088e-05
1.17261e-05
2.14797e-06
5.68544e-07
5.59294e-07
9.19817e-06
3.06525e-06
7.30522e-06
1.05407e-05
4.80832e-06
8.26457e-06
4.52067e-32
2.03174e-26
7.67797e-23
2.79049e-20
2.65891e-18
1.0428e-16
2.14701e-15
2.69755e-14
2.30125e-13
1.44873e-12
7.16839e-12
2.92487e-11
1.02126e-10
3.14112e-10
8.67194e-10
2.17761e-09
5.01432e-09
1.06454e-08
2.08629e-08
3.75667e-08
6.17965e-08
9.27163e-08
1.27342e-07
1.6175e-07
1.9298e-07
2.19626e-07
2.48811e-07
2.97254e-07
3.45198e-07
3.65292e-07
3.63117e-07
3.6462e-07
3.7941e-07
3.90537e-07
3.83996e-07
3.6576e-07
3.62129e-07
9.34596e-06
1.40955e-05
1.2293e-05
4.30878e-06
2.20879e-06
2.06522e-05
2.16699e-05
2.92683e-05
5.64532e-06
1.05047e-05
2.37393e-05
2.15923e-05
1.22232e-05
7.08653e-34
1.93642e-27
1.00812e-23
4.39934e-21
4.79683e-19
2.101e-17
4.70765e-16
6.29744e-15
5.59477e-14
3.59367e-13
1.79231e-12
7.36846e-12
2.61821e-11
8.28942e-11
2.39231e-10
6.37525e-10
1.57824e-09
3.63445e-09
7.77861e-09
1.54287e-08
2.8226e-08
4.74437e-08
7.32145e-08
1.04129e-07
1.37628e-07
1.69844e-07
2.04588e-07
2.52778e-07
3.0337e-07
3.32138e-07
3.43764e-07
3.68706e-07
4.10498e-07
4.29677e-07
4.15237e-07
3.68988e-07
1.8233e-06
4.28353e-06
4.79719e-06
1.39587e-06
2.06604e-06
3.6261e-05
8.55608e-05
8.60173e-05
8.58454e-05
5.38648e-05
3.587e-05
3.62108e-05
1.58651e-05
2.2306e-06
1.76098e-35
1.43708e-28
1.04291e-24
6.54372e-22
1.27309e-19
9.72864e-18
3.15127e-16
5.03932e-15
4.64085e-14
2.79593e-13
1.21824e-12
4.1643e-12
1.19683e-11
3.07418e-11
7.4636e-11
1.78456e-10
4.27192e-10
1.0142e-09
2.33929e-09
5.13213e-09
1.0544e-08
2.00857e-08
3.52802e-08
5.70515e-08
8.51686e-08
1.17685e-07
1.50897e-07
1.90534e-07
2.59875e-07
3.11806e-07
3.42646e-07
4.00374e-07
4.6346e-07
4.6697e-07
4.16056e-07
1.10555e-06
5.5459e-07
5.62116e-07
1.0692e-06
1.11837e-06
2.63756e-05
8.56437e-05
8.58812e-05
8.57565e-05
8.58403e-05
8.57804e-05
8.54045e-05
3.48584e-05
2.58122e-05
3.46918e-05
4.50544e-37
9.21516e-30
4.52738e-25
1.59704e-21
6.10681e-19
5.301e-17
1.63821e-15
2.39188e-14
1.99656e-13
1.08947e-12
4.27932e-12
1.2985e-11
3.20872e-11
6.6904e-11
1.21632e-10
1.99257e-10
3.07373e-10
4.77956e-10
8.12843e-10
1.56899e-09
3.28646e-09
6.93259e-09
1.39652e-08
2.6156e-08
4.51407e-08
7.16852e-08
9.99464e-08
1.10661e-07
2.50337e-07
3.45438e-07
3.80843e-07
4.5871e-07
5.08225e-07
4.77917e-07
4.90723e-07
4.91342e-07
5.32292e-07
8.7969e-07
3.19292e-06
1.34214e-06
5.25376e-05
8.58014e-05
8.57892e-05
8.57893e-05
8.57575e-05
8.57712e-05
8.17204e-05
6.25909e-05
8.91225e-05
8.91025e-05
1.00133e-38
2.83427e-29
5.46177e-24
1.56818e-20
4.68335e-18
3.32401e-16
8.75115e-15
1.12544e-13
8.50091e-13
4.28952e-12
1.58515e-11
4.58651e-11
1.09166e-10
2.2042e-10
3.87865e-10
6.06387e-10
8.53465e-10
1.09363e-09
1.29774e-09
1.48482e-09
1.80138e-09
2.6575e-09
4.91821e-09
1.00845e-08
2.02844e-08
3.78967e-08
6.31535e-08
8.98244e-08
1.38133e-07
2.37785e-07
3.42464e-07
3.48047e-07
9.7467e-07
4.49897e-07
4.71855e-07
5.10841e-07
5.82485e-07
1.70311e-06
6.92192e-06
2.49128e-06
5.19411e-05
8.53462e-05
8.584e-05
8.57812e-05
8.57795e-05
4.84774e-05
1.49626e-05
1.93988e-05
2.96508e-05
8.008e-05
4.34314e-38
5.48405e-28
6.31784e-23
1.27777e-19
2.9472e-17
1.71521e-15
3.86793e-14
4.407e-13
3.02839e-12
1.41968e-11
4.95579e-11
1.37276e-10
3.16292e-10
6.23864e-10
1.0825e-09
1.68498e-09
2.38178e-09
3.07951e-09
3.65688e-09
3.99616e-09
4.03195e-09
3.83544e-09
3.77071e-09
4.74963e-09
8.46805e-09
1.7516e-08
3.46072e-08
5.99551e-08
9.73673e-08
1.9206e-07
1.96246e-07
5.65792e-07
4.90602e-07
4.35491e-07
4.45995e-07
4.89756e-07
6.1144e-07
4.86311e-06
6.93835e-06
2.4831e-06
4.03604e-05
8.58633e-05
8.58864e-05
8.58473e-05
4.73846e-05
1.27032e-05
1.2669e-05
1.26997e-05
1.45233e-05
5.18349e-05
1.93773e-36
8.63281e-27
5.93076e-22
8.51991e-19
1.53035e-16
7.36192e-15
1.43292e-13
1.45637e-12
9.157e-12
4.00534e-11
1.32446e-10
3.51679e-10
7.84236e-10
1.50889e-09
2.57477e-09
3.9759e-09
5.62651e-09
7.35256e-09
8.91507e-09
1.00509e-08
1.05178e-08
1.01537e-08
8.998e-09
7.52396e-09
6.88066e-09
9.20309e-09
1.75505e-08
3.49333e-08
6.35566e-08
8.61928e-08
3.06754e-07
4.49822e-07
4.67361e-07
4.25094e-07
4.34279e-07
4.92124e-07
1.63909e-06
4.87456e-06
2.9025e-06
1.99104e-06
3.67869e-06
4.38538e-05
8.53513e-05
3.84148e-05
1.26988e-05
1.26683e-05
1.26677e-05
1.26701e-05
1.27055e-05
1.65483e-05
7.06913e-35
1.10693e-25