/*--------------------------------*- C++ -*----------------------------------*\
| =========                 |                                                 |
| \\      /  F ield         | OpenFOAM: The Open Source CFD Toolbox           |
|  \\    /   O peration     | Version:  2.4.0                                 |
|   \\  /    A nd           | Web:      www.OpenFOAM.org                      |
|    \\/     M anipulation  |                                                 |
\*---------------------------------------------------------------------------*/
FoamFile
{
    version     2.0;
    format      ascii;
    class       volScalarField;
    location    "0.009";
    object      alpha.water;
}
// * * * * * * * * * * * * * * * * * * * * * * * * * * * * * * * * * * * * * //

dimensions      [0 0 0 0 0 0 0];

internalField   nonuniform List<scalar> 
57600
(
1
1
1
1
1
1
1
1
1
1
1
1
1
1
1
1
1
1
1
1
1
1
1
1
1
1
1
1
1
1
1
1
1
1
1
1
1
1
1
1
1
1
1
1
1
1
1
1
1
1
1
1
1
1
1
1
1
1
1
1
1
1
1
1
1
1
1
1
1
1
1
1
1
1
1
1
1
1
1
1
1
1
1
1
1
1
1
1
1
1
1
1
1
1
1
1
1
1
1
1
1
1
1
1
1
1
1
1
1
1
1
1
1
1
1
1
1
1
1
1
1
1
1
1
1
1
1
1
1
1
1
1
1
1
1
1
1
1
1
1
1
1
1
1
1
1
1
1
1
1
1
1
1
1
1
1
1
1
1
1
1
1
1
1
1
1
1
1
1
1
1
1
1
1
1
1
1
1
1
1
1
1
1
1
1
1
1
1
1
1
1
1
1
1
1
1
1
1
1
1
1
1
1
1
1
1
1
1
1
1
1
1
1
1
1
1
1
1
1
1
1
1
1
1
1
1
1
1
1
1
1
1
1
1
1
1
1
1
1
1
1
1
1
1
1
1
1
1
1
1
1
1
1
1
1
1
1
1
1
1
1
1
1
1
1
1
1
1
1
1
1
1
1
1
1
1
1
1
1
1
1
1
1
1
1
1
1
1
1
1
1
1
1
1
1
1
1
1
1
1
1
1
1
1
1
1
1
1
1
1
1
1
1
1
1
1
1
1
1
1
1
1
1
1
1
1
1
1
1
1
1
1
1
1
1
1
1
1
1
1
1
1
1
1
1
1
1
1
1
1
1
1
1
1
1
1
1
1
1
1
1
1
1
1
1
1
1
1
1
1
1
1
1
1
1
1
1
1
1
1
1
1
1
1
1
1
1
1
1
1
1
1
1
1
1
1
1
1
1
1
1
1
1
1
1
1
1
1
1
1
1
1
1
1
1
1
1
1
1
1
1
1
1
1
1
1
1
1
1
1
1
1
1
1
1
1
1
1
1
1
1
1
1
1
1
1
1
1
1
1
1
1
1
1
1
1
1
1
1
1
1
1
1
1
1
1
1
1
1
1
1
1
1
1
1
1
1
1
1
1
1
1
1
1
1
1
1
1
1
1
1
1
1
1
1
1
1
1
1
1
1
1
1
1
1
1
1
1
1
1
1
1
1
1
1
1
1
1
1
1
1
1
1
1
1
1
1
1
1
1
1
1
1
1
1
1
1
0.999999
0.999999
1
1
1
1
1
1
1
1
1
1
1
1
1
1
1
1
1
1
1
1
1
1
1
1
1
1
0.999998
1
0.876804
0.857074
0.999132
1
1
1
1
1
1
1
1
1
1
1
1
1
1
1
1
1
1
1
1
1
1
1
1
1
1
0.999977
0.957093
0.857888
0.994269
1
1
1
1
1
1
1
1
1
1
1
1
1
1
1
1
1
1
1
1
1
1
1
0.999998
0.999892
0.998357
0.888991
0.713605
0.634098
0.598981
1
1
1
1
1
1
1
1
1
1
1
1
1
1
1
1
1
1
1
1
1
1
0.999951
0.612645
3.23008e-07
2.48567e-07
2.90304e-07
7.32611e-08
-1.50722e-07
-4.13195e-07
1
1
1
1
1
1
1
1
1
1
1
1
1
1
1
1
1
1
1
1
1
0.999333
3.10397e-07
2.81797e-07
2.50364e-05
2.5039e-05
1.65894e-05
1.04257e-07
6.05016e-07
3.15733e-10
1
1
1
1
1
1
1
1
1
1
1
1
1
1
1
1
1
1
1
1
0.999883
3.65922e-06
6.11957e-06
5.92912e-06
9.91107e-07
3.49362e-09
1.38569e-08
1.47381e-08
2.57913e-09
4.21773e-10
1
1
1
1
1
1
1
1
1
1
1
1
1
1
1
1
1
1
1
0.999999
0.101626
1.96459e-05
8.70731e-11
1.04845e-10
1.03134e-10
1.04497e-10
2.67318e-10
1.58753e-09
2.19127e-07
4.71115e-10
1
1
1
1
1
1
1
1
1
1
1
1
1
1
1
1
1
1
1
0.999822
3.02112e-06
7.16273e-11
1.49398e-10
5.97752e-11
4.11702e-11
6.88722e-11
2.81899e-10
1.8925e-09
4.33901e-10
1.17955e-10
1
1
1
1
1
1
1
1
1
1
1
1
1
1
1
1
1
1
1
0.697399
-2.27968e-10
1.97717e-10
9.71501e-11
1.51356e-11
9.65204e-12
3.04375e-11
2.04266e-10
1.51222e-09
4.93436e-10
-3.54905e-11
1
1
1
1
1
1
1
1
1
1
1
1
1
1
1
1
1
1
0.999999
0.00527601
1.08487e-10
3.43207e-10
8.47343e-11
4.85457e-12
1.75946e-12
1.13085e-11
9.3852e-11
5.1558e-10
2.68739e-10
-4.64766e-11
1
1
1
1
1
1
1
1
1
1
1
1
1
1
1
1
1
1
0.999987
1.67156e-06
-6.31692e-10
7.59567e-10
8.94249e-11
3.40143e-12
2.8356e-13
2.7262e-12
2.6291e-11
1.02269e-10
8.41132e-11
-2.18079e-11
1
1
1
1
1
1
1
1
1
1
1
1
1
1
1
1
1
1
0.999759
3.19657e-05
-1.06883e-08
3.74576e-08
7.75883e-11
2.69273e-12
5.04288e-14
3.75929e-13
4.72354e-12
1.664e-11
1.45511e-11
-6.48193e-12
1
1
1
1
1
1
1
1
1
1
1
1
1
1
1
1
1
1
1
1
1
1
1
1
1
1
1
1
1
1
1
1
1
1
1
1
1
1
1
1
1
1
1
1
1
1
1
1
1
1
1
1
1
1
1
1
1
1
1
1
1
1
1
1
1
1
1
1
1
1
1
1
1
1
1
1
1
1
1
1
1
1
1
1
1
1
1
1
1
1
1
1
1
1
1
1
1
1
1
1
1
1
1
1
1
1
1
1
1
1
1
1
1
1
1
1
1
1
1
1
1
1
1
1
1
1
1
1
1
1
1
1
1
1
1
1
1
1
1
1
1
1
1
1
1
1
1
1
1
1
1
1
1
1
1
1
1
1
1
1
1
1
1
1
1
1
1
1
1
1
1
1
1
1
1
1
1
1
1
1
1
1
1
1
1
1
1
1
1
1
1
1
1
1
1
1
1
1
1
1
1
1
1
1
1
1
1
1
1
1
1
1
1
1
1
1
1
1
1
1
1
1
1
1
1
1
1
1
1
1
1
1
1
1
1
1
1
1
1
1
1
1
1
1
1
1
1
1
1
1
1
1
1
1
1
1
1
1
1
1
1
1
1
1
1
1
1
1
1
1
1
1
1
1
1
1
1
1
1
1
1
1
1
1
1
1
1
1
1
1
1
1
1
1
1
1
1
1
1
1
1
1
1
1
1
1
1
1
1
1
1
1
1
1
1
1
1
1
1
1
1
1
1
1
1
1
1
1
1
1
1
1
1
1
1
1
1
1
1
1
1
1
1
1
1
1
1
1
1
1
1
1
1
1
1
1
1
1
1
1
1
1
1
1
1
1
1
1
1
1
1
1
1
1
1
1
1
1
1
1
1
1
1
1
1
1
1
1
1
1
1
1
1
1
1
1
1
1
1
1
1
1
1
1
1
1
1
1
1
1
1
1
1
1
1
1
1
1
1
1
1
1
1
1
1
1
1
1
1
1
1
1
1
1
1
1
1
1
1
1
1
1
1
1
1
1
1
1
1
1
1
1
1
1
1
1
1
1
1
1
1
1
1
1
1
1
1
1
1
1
1
1
1
1
1
1
1
1
1
1
1
1
1
1
1
1
1
1
1
1
1
1
1
1
1
1
1
1
1
1
1
1
1
1
1
1
1
1
1
1
1
0.999999
0.999999
1
1
1
1
1
1
1
1
1
1
1
1
1
1
1
1
1
1
1
1
1
1
1
1
1
1
1
0.999289
0.848465
0.842488
0.999973
0.999999
1
1
1
1
1
1
1
1
1
1
1
1
1
1
1
1
1
1
1
1
1
1
1
1
1
0.993826
0.832486
0.915066
0.999995
0.999999
1
1
1
1
1
1
1
1
1
1
1
1
1
1
1
1
1
1
1
1
1
1
1
1
1
0.593167
0.627129
0.702504
0.849757
0.994864
0.999769
0.999994
1
1
1
1
1
1
1
1
1
1
1
1
1
1
1
1
1
1
1
1
1
1
1
-4.92926e-07
-2.1907e-07
-8.00115e-11
4.57762e-06
2.3309e-07
3.97336e-07
0.225804
0.999758
1
1
1
1
1
1
1
1
1
1
1
1
1
1
1
1
1
1
1
1
1
1
-1.14223e-07
9.15068e-07
9.26015e-07
4.2885e-06
2.42509e-05
2.5378e-05
3.31735e-07
3.27284e-07
0.923003
1
1
1
1
1
1
1
1
1
1
1
1
1
1
1
1
1
1
1
1
1
-3.19803e-09
5.93067e-10
4.55038e-09
1.43225e-09
3.22118e-09
9.49692e-09
5.20428e-06
5.85596e-06
4.49941e-07
0.960985
1
1
1
1
1
1
1
1
1
1
1
1
1
1
1
1
1
1
1
1
4.05889e-10
1.55731e-07
2.28907e-07
9.55208e-10
1.12411e-10
1.08094e-10
1.13423e-10
1.44181e-10
2.19661e-06
4.13707e-06
0.999974
1
1
1
1
1
1
1
1
1
1
1
1
1
1
1
1
1
1
1
2.61204e-11
1.68643e-10
2.00265e-09
7.15586e-10
1.19029e-10
5.25796e-11
4.72886e-11
1.20719e-10
9.74328e-11
7.30196e-06
0.884915
1
1
1
1
1
1
1
1
1
1
1
1
1
1
1
1
1
1
1
-1.17909e-10
2.02273e-10
7.29406e-09
4.90447e-10
7.09307e-11
1.44273e-11
9.66099e-12
5.7379e-11
-3.90079e-10
2.93564e-09
0.000362656
0.999999
1
1
1
1
1
1
1
1
1
1
1
1
1
1
1
1
1
1
-7.3976e-11
8.55098e-11
2.16677e-10
1.86963e-10
2.84078e-11
3.46706e-12
2.46641e-12
6.48299e-11
-1.6244e-09
2.14087e-05
-1.17185e-07
0.999979
1
1
1
1
1
1
1
1
1
1
1
1
1
1
1
1
1
1
-2.81765e-11
2.39105e-11
5.69108e-11
4.31669e-11
6.70678e-12
5.91286e-13
2.01637e-12
8.28142e-11
-1.95731e-09
0.000177212
4.32725e-09
0.999289
1
1
1
1
1
1
1
1
1
1
1
1
1
1
1
1
1
1
-7.62848e-12
4.50249e-12
1.05581e-11
7.57475e-12
9.16053e-13
6.2421e-14
1.95882e-12
7.72084e-11
9.85508e-08
0.000125891
3.69412e-08
0.741515
1
1
1
1
1
1
1
1
1
1
1
1
1
1
1
1
1
1
7.85894e-11
2.03611e-08
1.12325e-07
0.00010137
0.0238343
0.163788
0.587681
1
1
1
1
1
1
1
1
1
1
1
0.979229
1.04731e-05
3.05893e-05
2.63956e-10
5.41966e-11
1.87372e-12
2.17375e-14
4.21799e-14
7.60908e-13
3.24394e-12
2.14447e-12
-1.6971e-12
9.06908e-18
1.26549e-12
5.53275e-12
5.94962e-11
3.70332e-10
3.47218e-10
1.20039e-09
7.13103e-09
2.97379e-06
0.132394
1
1
1
1
1
1
1
1
0.861311
1.68363e-05
1.48995e-09
3.09047e-10
4.01999e-11
1.3721e-12
1.53582e-14
1.18943e-14
2.58393e-13
1.28344e-12
7.31372e-13
-7.44365e-13
3.31909e-26
4.27645e-20
8.38852e-18
5.48249e-16
5.48013e-14
1.62537e-12
2.8704e-11
2.18326e-10
1.39469e-09
1.56616e-09
1.32181e-06
0.162454
1
1
1
1
1
1
0.686116
3.22317e-05
1.16522e-09
3.01558e-10
2.77889e-11
9.06924e-13
1.01717e-14
2.75731e-15
7.32655e-14
4.35542e-13
2.19813e-13
-2.84667e-13
1.62738e-35
2.96622e-28
9.8135e-25
8.20494e-22
5.40305e-19
1.38993e-16
1.57859e-14
8.43753e-13
2.08543e-11
2.05642e-10
1.2109e-09
1.51902e-08
0.000194672
1
1
1
1
1
0.491774
2.01783e-05
9.51884e-10
2.59256e-10
1.81634e-11
5.35295e-13
6.06065e-15
5.1792e-16
1.67901e-14
1.21698e-13
5.70555e-14
-9.28195e-14
1.67382e-45
8.32544e-37
3.32641e-32
3.62379e-28
1.55984e-24
3.30667e-21
2.33603e-18
7.12158e-16
8.70052e-14
4.02725e-12
8.7838e-11
6.50893e-10
6.52228e-06
0.0014437
1
1
1
1
0.287657
7.3478e-05
8.92074e-10
2.20692e-10
1.1566e-11
2.81493e-13
3.16134e-15
8.04719e-17
2.97092e-15
2.66475e-14
1.22486e-14
-2.49851e-14
6.8543e-56
1.28912e-45
5.51775e-40
6.81465e-35
2.11272e-30
3.25311e-26
1.37903e-22
2.26253e-19
1.39948e-16
3.05547e-14
3.18718e-12
2.33887e-10
9.17151e-06
-5.19121e-07
0.554888
1
1
1
0.105675
1.18761e-05
7.84779e-10
1.97975e-10
7.58117e-12
1.34732e-13
1.42501e-15
1.23759e-17
3.84662e-16
4.33293e-15
2.0497e-15
-5.3468e-15
4.34013e-66
1.3071e-54
5.82739e-48
7.08166e-42
1.67492e-36
1.73409e-31
4.27412e-27
3.78317e-23
1.16417e-19
1.38952e-16
2.37893e-13
1.26068e-10
2.11182e-08
3.66426e-08
1.89143e-05
1
1
1
0.00955306
1.16449e-05
7.84987e-10
1.91377e-10
5.42898e-12
6.2468e-14
5.5781e-16
2.60841e-18
3.38823e-17
4.88554e-16
2.467e-16
-8.65097e-16
7.86231e-76
1.00283e-63
4.73864e-56
5.0351e-49
9.21106e-43
6.16822e-37
8.54982e-32
4.13536e-27
7.46751e-23
4.97073e-18
1.48656e-13
1.46356e-10
1.10676e-09
4.72755e-08
2.30225e-08
0.0519307
1
0.999999
1.60305e-06
1.67291e-09
9.39305e-10
1.88724e-10
4.27629e-12
3.12402e-14
1.97263e-16
7.10843e-19
1.82903e-18
3.47293e-17
1.91097e-17
-9.86297e-17
2.08241e-85
7.43163e-73
3.75078e-64
3.04913e-56
4.20228e-49
1.72601e-42
1.35731e-36
1.04783e-30
3.68505e-24
2.24576e-18
1.29131e-13
2.79995e-10
1.28688e-09
2.0523e-06
5.30027e-10
0.000213681
1
0.999997
1.24428e-06
0.000329
8.78246e-10
1.70447e-10
3.47293e-12
1.8468e-14
7.05206e-17
1.93378e-19
5.21743e-20
1.35525e-18
8.07582e-19
-7.16609e-18
9.28639e-95
9.80821e-82
4.11753e-72
2.1345e-63
2.08159e-55
1.21179e-47
2.54675e-39
1.29571e-31
8.9691e-25
6.95674e-19
4.90997e-14
2.21356e-10
2.4808e-09
7.76454e-07
1.04127e-10
0.000105721
0.999992
0.999997
9.97652e-06
0.00159702
4.9155e-10
1.35278e-10
2.69707e-12
1.2592e-14
3.06542e-17
5.34392e-20
6.73118e-22
2.33574e-20
1.38183e-20
-2.85241e-19
2.50852e-103
4.6627e-90
1.91487e-79
8.22292e-69
1.18758e-58
3.16748e-49
1.44383e-40
1.04217e-32
1.04985e-25
1.18212e-19
1.04893e-14
4.33033e-11
3.39964e-07
2.46863e-06
7.8426e-10
5.4009e-10
8.58506e-05
0.999899
0.000120675
3.93241e-07
5.737e-10
1.13011e-10
1.99171e-12
8.94982e-15
1.734e-17
1.84807e-20
1.23898e-23
1.1977e-22
3.14019e-23
-4.80939e-21
2.49185e-106
1.72467e-93
7.59909e-82
7.31616e-71
1.3725e-60
4.77829e-51
2.96323e-42
3.06587e-34
4.70735e-27
8.63324e-21
1.28659e-15
8.2415e-12
4.98567e-10
6.91085e-08
9.00599e-10
1.32391e-06
0.0181091
0.982915
0.000109131
1.08651e-06
6.01763e-10
1.23709e-10
1.48522e-12
6.14825e-15
1.10089e-17
8.59594e-21
2.91623e-24
8.89515e-26
-2.48039e-25
-2.06207e-23
3.75374e-109
3.99596e-96
2.11152e-84
2.47949e-73
5.81509e-63
2.61531e-53
2.1857e-44
3.21667e-36
7.51343e-29
2.28693e-22
6.33915e-17
8.62991e-13
2.31318e-10
3.68618e-10
3.50062e-10
2.34666e-06
0.577531
0.37233
1.19469e-05
0.00169387
2.78103e-07
1.56801e-10
1.09829e-12
3.80591e-15
6.62484e-18
4.59713e-21
1.20551e-24
1.15477e-28
-6.70979e-29
-4.79016e-27
2.094e-112
3.44104e-99
2.17993e-87
3.11302e-76
9.07446e-66
5.22272e-56
5.80567e-47
1.19408e-38
4.14727e-31
2.03626e-24
1.02329e-18
3.08116e-14
2.5434e-11
4.08719e-11
1.09105e-08
0.000402983
0.992623
-5.70256e-05
5.54157e-08
0.00248018
3.59731e-08
1.37807e-10
6.93835e-13
1.86858e-15
3.09514e-18
2.06915e-21
4.90268e-25
3.63517e-29
5.82028e-34
1.51154e-39
4.28232e-116
1.09144e-102
8.30582e-91
1.44137e-79
5.20201e-69
3.80198e-59
5.55444e-50
1.56873e-41
7.90611e-34
6.05167e-27
5.25079e-21
3.21407e-16
6.60244e-13
1.46756e-10
1.51273e-06
0.993315
0.992984
-9.13023e-09
5.21451e-09
8.85646e-09
2.55078e-10
1.66887e-11
1.22248e-13
4.06025e-16
6.09284e-19
3.65226e-22
7.90425e-26
5.26764e-30
7.46802e-35
7.51614e-41
3.14571e-120
1.25497e-106
1.15145e-94
2.43035e-83
1.08336e-72
9.99464e-63
1.89966e-53
7.25878e-45
5.20405e-37
6.05436e-30
8.78457e-24
1.0421e-18
4.99812e-15
5.1041e-11
4.23774e-05
0.993293
0.00134184
0.00488461
0.00053878
5.78596e-09
1.11014e-10
1.94303e-12
1.23431e-14
3.20213e-17
3.47969e-20
1.60472e-23
2.87464e-27
1.6567e-31
2.07141e-36
1.9441e-42
8.16796e-125
5.15003e-111
5.72719e-99
1.47349e-87
8.10127e-77
9.38693e-67
2.30013e-57
1.17362e-48
1.17725e-40
2.04345e-33
4.87172e-27
1.10854e-21
1.33414e-17
1.72742e-11
9.99826e-06
0.845408
1.43529e-08
1.39274e-08
1.08071e-08
6.99097e-11
2.46836e-12
3.30667e-14
1.623e-16
3.10376e-19
2.50515e-22
8.75712e-26
1.24008e-29
5.92364e-34
6.38954e-39
5.43049e-45
7.3692e-130
7.43247e-116
1.0089e-103
3.17465e-92
2.15131e-81
3.11595e-71
9.75337e-62
6.55756e-53
9.05208e-45
2.30236e-37
8.87245e-31
3.84296e-25
1.39893e-20
1.57185e-14
1.69704e-10
2.08131e-05
6.77346e-10
2.24652e-10
1.73402e-11
5.10655e-13
6.20987e-15
3.46658e-17
9.12453e-20
1.13171e-22
6.56618e-26
1.73263e-29
1.90641e-33
7.26235e-38
6.42343e-43
4.64641e-49
2.2798e-135
3.72698e-121
6.2322e-109
2.40969e-97
2.01247e-86
3.62578e-76
1.43532e-66
1.25267e-57
2.33374e-49
8.49869e-42
5.15418e-35
4.32726e-29
5.68591e-24
4.46219e-18
1.53467e-11
9.449e-11
5.27915e-11
1.55402e-12
1.93422e-14
1.35249e-16
5.15329e-19
1.09689e-21
1.32011e-24
8.79109e-28
3.09485e-31
5.38272e-35
4.11231e-39
1.12301e-43
7.27108e-49
3.92377e-55
2.38926e-141
6.45023e-127
1.34471e-114
6.42997e-103
6.62342e-92
1.47694e-81
7.31257e-72
8.14146e-63
1.99882e-54
1.01035e-46
9.24877e-40
1.91631e-33
8.12293e-28
3.30145e-22
6.91471e-15
7.43031e-13
2.83617e-14
1.83443e-16
6.12241e-19
1.2427e-21
1.55817e-24
1.21231e-27
5.82489e-31
1.68741e-34
2.81006e-38
2.49273e-42
1.03335e-46
1.60582e-51
6.12503e-57
1.99414e-63
8.42989e-148
3.84326e-133
1.01481e-120
6.05577e-109
7.71219e-98
2.11879e-87
1.29656e-77
1.80564e-68
5.67887e-60
3.83287e-52
5.38797e-45
3.21641e-38
3.59155e-32
6.01929e-27
2.77733e-19
2.07889e-17
2.35746e-19
4.0507e-22
4.07201e-25
2.75581e-28
1.27551e-31
3.94253e-35
7.87471e-39
9.74492e-43
7.04555e-47
2.73942e-51
5.00724e-56
3.44705e-61
5.85123e-67
8.51011e-74
9.93621e-155
7.88976e-140
2.69506e-127
2.03333e-115
3.21767e-104
1.08564e-93
8.11317e-84
1.3833e-74
5.39731e-66
4.65004e-58
1.28722e-50
1.87895e-43
4.29677e-37
3.43549e-32
1.35508e-24
2.56214e-23
3.21649e-26
1.41637e-29
4.46587e-33
1.0501e-36
1.83304e-40
2.29655e-44
1.9675e-48
1.08592e-52
3.58358e-57
6.42287e-62
5.40693e-67
1.69837e-72
1.29455e-78
8.26077e-86
3.87053e-162
5.58448e-147
2.53924e-134
2.46801e-122
4.89767e-111
2.02799e-100
1.83033e-90
3.73552e-81
1.74592e-72
1.88327e-64
1.18808e-56
3.4463e-49
1.21182e-42
6.62127e-38
6.82879e-31
9.45903e-31
5.40145e-35
4.4511e-39
3.85599e-43
2.9843e-47
1.88628e-51
9.0662e-56
3.10011e-60
7.0347e-65
9.75844e-70
7.464e-75
2.70309e-80
3.65722e-86
1.1943e-92
3.22043e-100
4.89352e-170
1.36077e-154
8.56259e-142
1.10131e-129
2.7829e-118
1.41901e-107
1.53246e-97
3.6593e-88
1.97328e-79
3.14409e-71
3.89129e-63
1.76954e-55
6.9508e-49
2.31776e-44
2.08253e-38
2.19039e-40
2.77564e-45
4.55049e-50
7.88354e-55
1.30235e-59
1.8899e-64
2.23546e-69
2.00263e-74
1.25709e-79
5.05165e-85
1.16294e-90
1.30684e-96
5.61377e-103
5.91058e-110
5.16958e-118
1.93568e-178
1.12831e-162
1.03656e-149
1.83315e-137
6.0426e-126
3.83106e-115
4.92297e-105
1.34553e-95
8.03744e-87
2.10404e-78
4.1252e-70
2.24065e-62
6.79311e-56
8.20858e-52
9.99551e-48
1.93782e-52
6.41046e-58
2.58536e-63
1.0953e-68
4.45293e-74
1.61033e-79
4.83295e-85
1.1224e-90
1.8669e-96
2.02736e-102
1.28181e-108
4.0053e-115
4.82668e-122
1.43293e-129
3.53174e-138
2.24595e-187
3.09988e-171
4.48024e-158
1.15086e-145
5.13562e-134
4.12733e-123
6.31566e-113
1.93819e-103
1.27394e-94
5.28353e-86
1.29077e-77
6.09795e-70
8.95299e-64
1.50543e-60
2.79279e-62
8.07907e-69
7.54639e-75
7.49114e-81
7.55194e-87
7.45348e-93
6.88909e-99
5.75081e-105
4.16909e-111
2.45215e-117
1.04497e-123
2.77564e-130
3.77517e-137
2.00583e-144
2.62195e-152
2.80466e-161
6.78292e-197
2.66645e-180
6.74763e-167
2.72556e-154
1.74187e-142
1.83635e-131
3.38526e-121
1.15036e-111
8.83101e-103
4.72081e-94
1.09477e-85
3.06616e-78
1.11752e-72
2.13687e-71
1.67174e-78
2.72948e-85
6.87169e-92
2.24118e-98
8.31604e-105
3.15978e-111
1.12368e-117
3.44312e-124
8.38077e-131
1.48686e-137
1.74116e-144
1.19379e-151
4.04864e-159
5.27569e-167
1.67821e-175
4.34072e-185
4.27366e-207
6.45628e-190
3.35356e-176
2.39459e-163
2.3877e-151
3.49823e-140
8.00186e-130
2.99676e-120
2.65539e-111
1.46789e-102
2.38211e-94
2.44355e-87
7.04423e-83
5.07556e-87
7.87069e-95
2.38165e-102
1.09782e-109
6.55686e-117
4.47055e-124
3.1357e-131
2.06964e-138
1.18391e-145
5.41171e-153
1.81348e-160
4.03435e-168
5.28668e-176
3.44846e-184
8.69443e-193
5.37422e-202
2.70202e-212
3.5702e-218
3.58757e-200
4.91482e-186
7.41611e-173
1.31678e-160
2.94791e-149
8.87085e-139
3.70815e-129
3.56488e-120
1.64366e-111
1.35187e-103
2.77182e-97
4.54925e-95
3.17448e-104
5.72485e-113
1.91779e-121
9.73102e-130
6.40754e-138
4.8351e-146
3.76885e-154
2.77382e-162
1.7737e-170
9.07311e-179
3.39847e-187
8.41138e-196
1.21519e-204
8.62101e-214
2.32506e-223
1.51122e-233
7.85785e-245
1.28938e-230
3.0398e-211
1.69864e-196
7.21524e-183
2.81181e-170
1.12284e-158
4.93701e-148
2.41822e-138
2.3413e-129
7.55216e-121
2.36742e-113
5.01399e-108
6.69217e-111
9.66122e-122
3.49862e-132
2.30574e-142
2.2781e-152
2.90432e-162
4.2285e-172
6.34741e-182
8.99191e-192
1.10704e-201
1.09061e-211
7.86156e-222
3.7333e-232
1.02774e-242
1.37246e-253
6.84325e-265
8.04453e-277
7.38913e-290
-1.90563e-12
7.36944e-13
2.26562e-12
1.36275e-12
1.04411e-13
1.27067e-14
1.45458e-12
5.31603e-11
8.28085e-10
6.43577e-08
1.96853e-08
0.351822
1
1
1
1
1
1
1
1
1
1
1
0.73198
0.235157
0.042743
0.00140289
1.78529e-07
3.03255e-08
3.75091e-10
-8.2271e-13
2.54673e-13
9.42982e-13
4.91215e-13
2.96287e-14
8.24327e-15
1.05821e-12
3.7094e-11
2.57261e-08
1.30792e-08
2.98319e-05
0.0848265
1
1
1
1
1
1
1
1
0.398001
2.03246e-05
4.98454e-08
1.07695e-09
4.3233e-10
6.53511e-10
1.36306e-10
6.96371e-12
2.88149e-12
1.60807e-13
-3.10213e-13
7.51626e-14
3.39629e-13
1.48512e-13
6.88852e-15
5.54267e-15
6.80062e-13
2.31618e-11
2.36197e-10
1.04916e-09
0.000111237
0.0339203
1
1
1
1
1
1
0.654248
8.29319e-06
3.76478e-09
6.71175e-10
3.03019e-10
5.55835e-11
3.12122e-12
1.15764e-13
1.75799e-15
1.94348e-17
1.84061e-19
1.14665e-21
-9.98459e-14
1.8509e-14
1.01806e-13
3.65019e-14
1.2767e-15
3.43189e-15
3.83744e-13
1.33137e-11
1.88059e-10
9.51608e-10
0.000150085
3.50955e-05
0.999999
1
1
1
1
0.0278954
1.23556e-07
6.56951e-10
2.65713e-10
4.21993e-11
1.98683e-12
4.52087e-14
4.67957e-16
2.3516e-18
3.94846e-21
5.04914e-24
2.24354e-27
1.12281e-30
-2.65437e-14
3.64114e-15
2.41849e-14
6.98421e-15
1.82581e-16
1.83936e-15
1.8987e-13
7.35851e-12
1.45064e-10
7.60933e-10
0.000156553
2.59793e-05
0.999998
1
1
1
0.123895
0.000277783
6.80466e-10
1.35782e-10
8.90536e-12
2.55838e-13
2.60552e-15
9.86551e-18
1.78145e-20
1.17036e-23
2.78297e-27
3.46662e-31
1.06138e-35
2.30686e-40
-5.61007e-15
5.34547e-16
4.31157e-15
9.88266e-16
2.03775e-17
8.30768e-16
8.34064e-14
4.13872e-12
1.19765e-10
6.49601e-10
4.11981e-10
2.7806e-05
0.999996
1
1
1
1.22372e-05
6.47545e-06
2.67366e-10
7.59958e-12
1.00134e-13
5.82289e-16
1.2617e-18
8.98679e-22
2.86496e-25
2.53573e-29
8.57903e-34
1.06361e-38
2.65821e-44
1.43871e-50
-8.963e-16
5.13688e-17
5.38143e-16
9.63647e-17
2.22248e-18
3.1539e-16
3.40405e-14
2.54098e-12
1.06672e-10
6.09964e-10
3.9744e-10
9.56325e-06
0.999998
1
1
0.000245611
1.04933e-07
1.81378e-09
2.04834e-10
7.46443e-13
6.62232e-16
6.94113e-19
3.1544e-22
4.31738e-26
2.46807e-30
3.19635e-35
1.49848e-40
2.00061e-46
4.32601e-53
5.8432e-61
-1.00888e-16
2.19564e-18
4.2704e-17
5.84153e-18
3.83642e-19
1.03861e-16
1.42939e-14
1.77816e-12
1.00498e-10
6.50565e-10
5.56354e-10
1.2326e-05
0.999979
1
0.961802
1.30073e-06
1.70655e-09
5.32564e-09
2.42067e-10
4.54482e-13
3.04636e-17
6.74975e-22
5.05186e-26
1.33039e-30
1.37204e-35
2.84218e-41
1.85948e-47
2.94251e-54
5.93574e-62
7.89617e-71
-7.23657e-18
-8.22537e-20
1.86966e-18
1.89006e-19
9.20364e-20
3.26452e-17
7.05858e-15
1.37437e-12
9.11875e-11
7.54941e-10
-7.37985e-09
5.13264e-06
0.999924
0.999984
0.00299799
8.81214e-09
1.27176e-06
2.29689e-09
2.46002e-10
3.21827e-13
1.27572e-17
3.69372e-23
1.72838e-29
3.22903e-35
5.82216e-41
2.1159e-47
2.00725e-54
4.18448e-62
9.98107e-71
2.16614e-80
-2.84258e-19
-1.14744e-20
3.59499e-20
2.58891e-21
2.28712e-20
1.18311e-17
4.35257e-15
1.07749e-12
7.43267e-11
6.9883e-10
0.000879909
3.04239e-05
0.99969
0.999999
7.45507e-05
2.67747e-10
8.70997e-11
3.57792e-08
1.35998e-10
1.62395e-13
4.08923e-18
8.28645e-24
1.81464e-30
5.42078e-38
4.74812e-46
1.64473e-53
2.40416e-61
7.46655e-70
2.91064e-79
9.97683e-90
-4.72828e-21
-2.95213e-22
1.96431e-22
1.36461e-23
6.65123e-21
5.86156e-18
3.08256e-15
7.93735e-13
5.84723e-11
5.51842e-10
1.34967e-08
0.00121526
0.922166
0.851652
4.54589e-05
4.53454e-10
4.7102e-07
5.81294e-07
9.48476e-11
4.30537e-14
7.67591e-19
1.01955e-24
1.50221e-31
3.12093e-39
1.03951e-47
6.02146e-57
6.73431e-67
3.72006e-77
2.08705e-87
1.87955e-98
-2.00643e-23
-1.5e-24
1.05361e-25
9.72317e-25
2.73972e-21
3.58176e-18
2.12246e-15
5.34632e-13
4.96156e-11
5.62237e-10
-3.48629e-09
9.11149e-05
0.368895
0.615055
1.89003e-10
9.49387e-10
2.60573e-10
8.17669e-10
2.41855e-11
6.40094e-15
6.4055e-20
5.10608e-26
4.88935e-33
7.05892e-41
1.7262e-49
7.65016e-59
6.34921e-69
1.02587e-79
3.51542e-91
3.1765e-103
-4.61513e-27
-3.58684e-28
3.57441e-29
3.56961e-25
1.38291e-21
2.07295e-18
1.22925e-15
3.25747e-13
4.31771e-11
6.04085e-10
0.000349777
3.82889e-05
4.91644e-05
0.996445
6.74321e-06
2.47121e-05
1.28022e-10
8.49527e-10
3.16443e-12
3.51366e-16
1.86925e-21
9.02593e-28
5.72036e-35
5.83678e-43
1.0634e-51
3.65781e-61
2.43253e-71
3.22382e-82
9.21585e-94
6.97371e-106
4.15362e-40
1.45292e-34
9.1884e-30
1.26317e-25
5.45999e-22
8.51524e-19
5.17839e-16
1.50197e-13
2.56379e-11
4.8396e-10
0.000250722
0.000674224
5.79199e-07
0.991732
0.255452
6.88866e-06
3.60217e-10
7.12476e-11
1.17777e-13
6.04025e-18
1.81701e-23
5.53794e-30
2.38845e-37
1.75651e-45
2.41742e-54
6.51488e-64
3.49081e-74
3.80317e-85
9.06355e-97
5.73261e-109
1.13572e-41
1.41421e-35
1.0548e-30
1.61586e-26
7.68404e-23
1.3545e-19
9.70892e-17
3.07437e-14
5.33058e-12
2.36162e-10
1.74492e-09
2.76015e-06
-1.80618e-07
0.857211
0.992481
7.76666e-05
2.0713e-10
1.42509e-12
1.27826e-15
3.37709e-20
6.0255e-26
1.19422e-32
3.5783e-40
1.92528e-48
2.0218e-57
4.29478e-67
1.85875e-77
1.66387e-88
3.29506e-100
1.73425e-112
1.41895e-43
2.29266e-37
2.05574e-32
3.86021e-28
2.37836e-24
5.87455e-21
6.29822e-18
2.88797e-15
5.8783e-13
6.68906e-11
2.27133e-09
0.000231034
0.00287912
0.000286508
0.992484
0.0536341
1.56515e-10
1.24546e-14
4.6502e-18
6.43689e-23
6.91893e-29
9.06081e-36
1.91322e-43
7.61625e-52
6.1482e-61
1.03336e-70
3.61434e-81
2.65229e-92
4.34362e-104
1.89085e-116
1.57122e-46
3.63511e-40
4.51319e-35
1.18938e-30
1.04658e-26
3.72832e-23
5.77613e-20
3.85178e-17
1.04022e-14
1.03259e-12
3.66038e-11
-5.65397e-10
5.32607e-08
2.11894e-06
0.242325
0.0121679
3.59882e-11
4.94507e-17
5.9549e-21
4.2199e-26
2.7396e-32
2.396e-39
3.60795e-47
1.07322e-55
6.70301e-65
8.93973e-75
2.52606e-85
1.51458e-96
2.03875e-108
7.28409e-121
8.88022e-51
3.18597e-44
5.79915e-39
2.17935e-34
2.69128e-30
1.34203e-26
2.96702e-23
2.98744e-20
1.36735e-17
2.7996e-15
2.50149e-13
8.90968e-12
1.18029e-10
4.13822e-10
2.20811e-05
1.17884e-07
2.3914e-12
5.8972e-20
2.57738e-24
9.26894e-30
3.66457e-36
2.16923e-43
2.36106e-51
5.3052e-60
2.58191e-69
2.74098e-79
6.2537e-90
3.05155e-101
3.35179e-113
9.73399e-126
1.02466e-56
5.35475e-50
1.37001e-44
7.11573e-40
1.21417e-35
8.53076e-32
2.77779e-28
4.44396e-25
3.62775e-22
1.5608e-19
3.69363e-17
5.07925e-15
4.5793e-13
2.70968e-11
2.34829e-10
6.24358e-11
1.74661e-15
3.32083e-23
3.80033e-28
6.5083e-34
1.60863e-40
6.58632e-48
5.27547e-56
9.0766e-65
3.47258e-74
2.94649e-84
5.42619e-95
2.14498e-106
1.90574e-118
4.44415e-131
9.50789e-65
7.67288e-58
3.01343e-52
2.41162e-47
6.4621e-43
7.41515e-39
4.20804e-35
1.29062e-31
2.29393e-28
2.51024e-25
1.80571e-22
9.20625e-20
3.71951e-17
1.2803e-14
1.63224e-12
1.07026e-13
2.24048e-19
6.5351e-27
2.25662e-32
1.39565e-38
2.25813e-45
6.60418e-53
3.98613e-61
5.34176e-70
1.62421e-79
1.10717e-89
1.6451e-100
5.23868e-112
3.72396e-124
6.86521e-137
3.84956e-75
5.65265e-68
4.14516e-62
6.41316e-57
3.49018e-52
8.6675e-48
1.14676e-43
8.88197e-40
4.31706e-36
1.39129e-32
3.155e-29
5.40813e-26
7.55164e-23
8.72584e-20
5.15172e-17
6.27835e-18
5.0984e-24
3.77167e-31
5.02627e-37
1.06263e-43
9.97589e-51
2.1735e-58
1.01798e-66
1.08433e-75
2.65354e-85
1.46135e-95
1.74987e-106
4.45482e-118
2.49803e-130
3.56718e-143
1.26528e-87
4.69292e-80
8.73707e-74
3.4304e-68
4.7314e-63
2.98072e-58
1.00846e-53
2.03737e-49
2.67267e-45
2.43278e-41
1.63447e-37
8.60813e-34
3.75272e-30
1.39442e-26
3.95783e-23
3.12872e-23
1.94198e-29
5.49462e-36
3.77748e-42
3.31906e-49
1.38478e-56
2.35957e-64
8.87403e-73
7.68806e-82
1.53484e-91
6.86345e-102
6.60254e-113
1.32916e-124
5.7691e-137
6.21174e-150
6.12736e-102
5.87095e-94
2.82124e-87
2.85283e-81
1.0151e-75
1.66101e-70
1.47672e-65
7.95632e-61
2.82675e-56
7.06675e-52
1.32069e-47
1.96162e-43
2.45733e-39
2.74212e-35
3.01985e-31
1.06874e-29
1.11768e-35
1.74664e-41
8.49997e-48
3.8942e-55
6.98451e-63
8.57037e-71
2.69077e-79
1.94398e-88
3.2092e-98
1.169e-108
8.97491e-120
1.40594e-131
4.60346e-144
3.60503e-157
1.20848e-119
3.20569e-111
4.31962e-104
1.23979e-97
1.27342e-91
6.15152e-86
1.66122e-80
2.81638e-75
3.29102e-70
2.86294e-65
2.00067e-60
1.21519e-55
6.95878e-51
4.12595e-46
2.82163e-41
1.47183e-37
8.36274e-43
1.03552e-47
5.03782e-54
1.55745e-61
1.46568e-69
1.066e-77
2.9174e-86
1.80478e-95
2.49458e-105
7.40034e-116
4.47983e-127
5.33397e-139
1.27178e-151
6.89998e-165
4.43483e-140
4.13963e-131
1.98308e-123
2.03616e-116
7.52647e-110
1.31746e-103
1.30135e-97
8.18128e-92
3.6148e-86
1.21882e-80
3.39222e-75
8.42616e-70
2.02887e-64
5.2646e-59
1.69041e-53
7.52149e-48
6.65993e-51
9.4157e-55
6.83843e-61
1.91306e-68
1.18364e-76
4.76554e-85
1.16893e-93
6.36407e-103
7.43759e-113
1.78662e-123
8.35639e-135
7.30713e-147
1.20802e-159
4.2483e-173
6.48741e-163
1.30393e-153
1.36208e-145
3.07803e-138
2.55968e-131
1.05558e-124
2.66713e-118
4.85477e-112
7.22443e-106
9.47844e-100
1.14466e-93
1.32454e-87
1.56132e-81
2.07386e-75
3.52992e-69
8.19741e-63
2.99026e-60
9.97022e-63
1.82157e-68
6.49594e-76
3.41466e-84
8.96131e-93
1.80384e-101
8.88017e-111
8.81648e-121
1.69031e-131
5.91394e-143
3.61277e-155
3.86559e-168
8.02876e-182
4.1193e-187
3.39087e-177
1.45335e-168
1.33942e-160
4.4655e-153
7.11391e-146
6.48436e-139
3.83094e-132
1.62597e-125
5.40317e-119
1.52856e-112
4.01062e-106
1.06708e-99
3.18665e-93
1.20481e-86
6.76165e-80
6.70716e-73
7.77968e-72
7.96414e-77
5.52385e-84
3.31067e-92
7.07884e-101
1.12737e-109
5.13722e-119
4.31442e-129
6.41799e-140
1.59716e-151
6.33601e-164
3.97444e-177
4.25978e-191
1.39404e-214
5.80893e-204
1.2717e-194
6.03693e-186
1.04583e-177
8.72717e-170
4.19429e-162
1.31334e-154
2.96774e-147
5.27454e-140
8.01951e-133
1.13619e-125
1.63826e-118
2.6553e-111
5.43658e-104
1.64148e-96
8.78999e-89
1.66716e-82
4.67446e-86
1.09728e-92
1.04815e-100
2.31544e-109
3.05062e-118
1.30354e-127
9.07789e-138
9.96724e-149
1.63186e-160
3.77263e-173
1.1983e-186
5.38886e-201
3.57536e-247
1.39747e-235
2.86053e-225
1.25311e-215
1.97163e-206
1.47264e-197
6.26776e-189
1.72793e-180
3.43274e-172
5.37245e-164
7.21551e-156
9.05975e-148
1.1608e-139
1.67455e-131
3.04594e-123
8.07514e-115
3.74176e-106
3.62974e-97
3.05372e-96
5.11367e-102
1.11891e-109
3.23076e-118
3.90508e-127
1.55057e-136
8.54148e-147
6.3616e-158
6.06833e-170
6.93343e-183
8.87748e-197
1.18217e-211
1.14094e-292
2.47055e-279
2.79182e-267
6.65458e-256
5.6133e-245
2.22289e-234
4.98224e-224
7.20999e-214
7.51413e-204
6.1767e-194
4.36705e-184
2.89351e-174
1.95855e-164
1.49054e-154
1.42434e-144
1.97257e-134
4.75376e-124
2.37264e-113
2.28288e-107
6.65003e-112
4.6315e-119
2.12443e-127
2.67174e-136
9.35432e-146
3.71111e-156
1.62839e-167
7.46389e-180
3.24281e-193
1.13897e-207
2.23273e-223
1
1
1
1
1
1
1
1
1
1
1
1
1
1
1
1
1
1
1
1
1
1
1
1
1
1
1
1
1
1
1
1
1
1
1
1
1
1
1
1
1
1
1
1
1
1
1
1
1
1
1
1
1
1
1
1
1
1
1
1
1
1
1
1
1
1
1
1
1
1
1
1
1
1
1
1
1
1
1
1
1
1
1
1
1
1
1
1
1
1
1
1
1
1
1
1
1
1
1
1
1
1
1
1
1
1
1
1
1
1
1
1
1
1
1
1
1
1
1
1
1
1
1
1
1
1
1
1
1
1
1
1
1
1
1
1
1
1
1
1
1
1
1
1
1
1
1
1
1
1
1
1
1
1
1
1
1
1
1
1
1
1
1
1
1
1
1
1
1
1
1
1
1
1
1
1
1
1
1
1
1
1
1
1
1
1
1
1
1
1
1
1
1
1
1
1
1
1
1
1
1
1
1
1
1
1
1
1
1
1
1
1
1
1
1
1
1
1
1
1
1
1
1
1
1
1
1
1
1
1
1
1
1
1
1
1
1
1
1
1
1
1
1
1
1
1
1
1
1
1
1
1
1
1
1
1
1
1
1
1
1
1
1
1
1
1
1
1
1
1
1
1
1
1
1
1
1
1
1
1
1
1
1
1
1
1
1
1
1
1
1
1
1
1
1
1
1
1
1
1
1
1
1
1
1
1
1
1
1
1
1
1
1
1
1
1
1
1
1
1
1
1
1
1
1
1
1
1
1
1
1
1
1
1
1
1
1
1
1
1
1
1
1
1
1
1
1
1
1
1
1
1
1
1
1
1
1
1
1
1
1
1
1
1
1
1
1
1
1
1
1
1
1
1
1
1
1
1
1
1
1
1
1
1
1
1
1
1
1
1
1
1
1
1
1
1
1
1
1
1
1
1
1
1
1
1
1
1
1
1
1
1
1
1
1
1
1
1
1
1
1
1
1
1
1
1
1
1
1
1
1
1
1
1
1
1
1
1
1
1
1
1
1
1
1
1
1
1
1
1
1
1
1
1
1
1
1
1
1
1
1
1
1
1
1
1
1
1
1
1
1
1
1
1
1
1
1
1
1
1
1
1
1
1
1
1
1
1
1
1
1
1
1
1
1
1
1
1
1
1
1
1
1
1
1
1
1
1
1
1
1
1
1
1
1
1
1
1
1
1
1
1
1
1
1
1
1
1
1
1
1
1
1
1
1
1
1
1
1
1
1
1
1
1
1
1
1
1
1
1
1
1
1
1
1
1
1
1
1
1
1
1
1
1
1
1
0.999952
0.961719
0.991431
0.999998
1
1
1
1
1
1
1
1
1
1
1
1
1
1
1
1
1
1
1
1
1
1
1
1
1
0.999988
0.999995
0.855934
0.857695
0.975936
1
1
1
1
1
1
1
1
1
1
1
1
1
1
1
1
1
1
1
1
1
1
1
0.999999
0.999979
0.99974
0.998907
0.994586
0.989354
0.991653
1
1
1
1
1
1
1
1
1
1
1
1
1
1
1
1
1
1
1
1
1
1
0.999979
0.901797
0.00118758
2.00415e-07
8.62824e-08
1.50045e-10
-3.26374e-07
-2.91319e-07
1
1
1
1
1
1
1
1
1
1
1
1
1
1
1
1
1
1
1
1
1
0.999567
2.82621e-07
2.81798e-07
2.55884e-05
2.53643e-05
2.28233e-05
1.2227e-05
3.99751e-07
-1.02454e-07
1
1
1
1
1
1
1
1
1
1
1
1
1
1
1
1
1
1
1
1
0.999734
3.55075e-07
6.1148e-06
5.92991e-06
2.68898e-09
2.04983e-09
1.34588e-09
9.90623e-09
7.63745e-07
6.83411e-08
1
1
1
1
1
1
1
1
1
1
1
1
1
1
1
1
1
1
1
0.999996
0.000928816
3.93215e-06
1.03587e-10
9.95352e-11
9.36143e-09
1.07819e-10
9.68355e-10
7.50992e-09
2.27211e-08
4.6403e-11
1
1
1
1
1
1
1
1
1
1
1
1
1
1
1
1
1
1
1
0.99122
1.62093e-06
1.52219e-11
1.30395e-10
6.37947e-11
6.04397e-11
9.54529e-11
5.13415e-10
8.64736e-09
3.72479e-10
-6.34142e-11
1
1
1
1
1
1
1
1
1
1
1
1
1
1
1
1
1
1
1
0.190518
2.20106e-05
2.16657e-10
7.56242e-11
1.65671e-11
1.69054e-11
5.52571e-11
3.73923e-10
2.75275e-09
3.81786e-10
-1.23496e-10
1
1
1
1
1
1
1
1
1
1
1
1
1
1
1
1
1
1
0.999989
1.42186e-07
1.70154e-10
2.62867e-10
4.89112e-11
3.29549e-12
3.7551e-12
2.51521e-11
1.93919e-10
8.00801e-10
1.92901e-10
-9.11558e-11
1
1
1
1
1
1
1
1
1
1
1
1
1
1
1
1
1
1
0.999787
5.6434e-07
2.99488e-11
4.87426e-10