/*--------------------------------*- C++ -*----------------------------------*\
| =========                 |                                                 |
| \\      /  F ield         | OpenFOAM: The Open Source CFD Toolbox           |
|  \\    /   O peration     | Version:  2.4.0                                 |
|   \\  /    A nd           | Web:      www.OpenFOAM.org                      |
|    \\/     M anipulation  |                                                 |
\*---------------------------------------------------------------------------*/
FoamFile
{
    version     2.0;
    format      ascii;
    class       volVectorField;
    location    "0.219";
    object      U;
}
// * * * * * * * * * * * * * * * * * * * * * * * * * * * * * * * * * * * * * //

dimensions      [0 1 -1 0 0 0 0];

internalField   nonuniform List<vector> 
10000
(
(-1.15953e-06 1.17293e-06 0)
(-2.6147e-06 1.07601e-06 0)
(-2.37253e-06 5.2184e-07 0)
(-2.70295e-07 8.90517e-08 0)
(3.60067e-06 -2.74349e-07 0)
(9.04813e-06 -5.94844e-07 0)
(1.58828e-05 -8.63277e-07 0)
(2.38317e-05 -1.05575e-06 0)
(3.25341e-05 -1.15209e-06 0)
(4.15516e-05 -1.14056e-06 0)
(5.03896e-05 -1.01602e-06 0)
(5.85272e-05 -7.78515e-07 0)
(6.5449e-05 -4.3318e-07 0)
(7.06755e-05 9.44515e-09 0)
(7.37964e-05 5.34449e-07 0)
(7.4523e-05 1.11932e-06 0)
(7.26445e-05 1.69137e-06 0)
(6.81085e-05 2.26643e-06 0)
(6.10518e-05 2.79411e-06 0)
(5.17256e-05 3.24943e-06 0)
(4.05073e-05 3.60933e-06 0)
(2.78492e-05 3.86304e-06 0)
(1.42343e-05 4.00449e-06 0)
(1.27797e-07 4.03884e-06 0)
(-1.40504e-05 3.97748e-06 0)
(-2.794e-05 3.83175e-06 0)
(-4.12318e-05 3.60855e-06 0)
(-5.36458e-05 3.30853e-06 0)
(-6.49077e-05 2.92809e-06 0)
(-7.47434e-05 2.46597e-06 0)
(-8.29102e-05 1.93221e-06 0)
(-8.92757e-05 1.364e-06 0)
(-9.3901e-05 8.11439e-07 0)
(-9.70579e-05 3.22584e-07 0)
(-9.91519e-05 -8.34608e-08 0)
(-0.000100619 -4.15629e-07 0)
(-0.00010187 -6.78796e-07 0)
(-0.000103283 -8.56449e-07 0)
(-0.000105245 -9.44199e-07 0)
(-0.000108211 -9.32305e-07 0)
(-0.000112692 -8.05375e-07 0)
(-0.00011923 -5.53239e-07 0)
(-0.000128359 -1.75807e-07 0)
(-0.000140567 3.15973e-07 0)
(-0.000156256 9.01636e-07 0)
(-0.000175709 1.55423e-06 0)
(-0.000199072 2.24371e-06 0)
(-0.000226342 2.94011e-06 0)
(-0.000257371 3.61571e-06 0)
(-0.000291883 4.24549e-06 0)
(-1.10291e-06 2.67914e-06 0)
(-3.70546e-07 6.57469e-07 0)
(5.00971e-06 -3.32669e-06 0)
(1.46823e-05 -6.84786e-06 0)
(2.84235e-05 -1.0045e-05 0)
(4.61303e-05 -1.3012e-05 0)
(6.75033e-05 -1.56062e-05 0)
(9.19698e-05 -1.76151e-05 0)
(0.000118697 -1.88521e-05 0)
(0.000146643 -1.91854e-05 0)
(0.000174618 -1.854e-05 0)
(0.000201352 -1.68964e-05 0)
(0.000225568 -1.42903e-05 0)
(0.000246061 -1.08148e-05 0)
(0.000261775 -6.6212e-06 0)
(0.000271865 -1.92022e-06 0)
(0.000275819 2.9975e-06 0)
(0.000273468 7.88342e-06 0)
(0.000264979 1.24407e-05 0)
(0.00025089 1.64276e-05 0)
(0.000232012 1.96615e-05 0)
(0.000209337 2.20473e-05 0)
(0.00018392 2.35698e-05 0)
(0.000156779 2.42891e-05 0)
(0.000128815 2.43085e-05 0)
(0.000100779 2.37358e-05 0)
(7.32871e-05 2.2648e-05 0)
(4.68811e-05 2.10746e-05 0)
(2.20872e-05 1.90133e-05 0)
(-5.6261e-07 1.64818e-05 0)
(-2.05827e-05 1.35976e-05 0)
(-3.7726e-05 1.06326e-05 0)
(-5.2187e-05 7.97056e-06 0)
(-6.46446e-05 5.95069e-06 0)
(-7.61013e-05 4.72389e-06 0)
(-8.7611e-05 4.27055e-06 0)
(-0.000100147 4.54093e-06 0)
(-0.000114659 5.54777e-06 0)
(-0.000132159 7.3574e-06 0)
(-0.000153786 1.00724e-05 0)
(-0.000180816 1.37869e-05 0)
(-0.000214604 1.85397e-05 0)
(-0.000256492 2.42897e-05 0)
(-0.000307693 3.09111e-05 0)
(-0.000369195 3.82057e-05 0)
(-0.000441672 4.59233e-05 0)
(-0.000525434 5.37872e-05 0)
(-0.000620399 6.15161e-05 0)
(-0.0007261 6.88414e-05 0)
(-0.00084171 7.55163e-05 0)
(-5.55634e-07 2.05481e-06 0)
(3.94769e-06 -4.94249e-06 0)
(1.52885e-05 -1.43984e-05 0)
(3.27634e-05 -2.30323e-05 0)
(5.60114e-05 -3.11247e-05 0)
(8.49282e-05 -3.87479e-05 0)
(0.000119147 -4.5485e-05 0)
(0.000157889 -5.07894e-05 0)
(0.000199976 -5.41722e-05 0)
(0.00024391 -5.52672e-05 0)
(0.000287958 -5.38493e-05 0)
(0.000330249 -4.9839e-05 0)
(0.000368882 -4.33063e-05 0)
(0.000402039 -3.44771e-05 0)
(0.000428107 -2.37382e-05 0)
(0.000445796 -1.16308e-05 0)
(0.000454268 1.19595e-06 0)
(0.000453208 1.39862e-05 0)
(0.000442851 2.60106e-05 0)
(0.00042397 3.66267e-05 0)
(0.000397764 4.53629e-05 0)
(0.00036571 5.19633e-05 0)
(0.000329382 5.63963e-05 0)
(0.000290287 5.8819e-05 0)
(0.000249738 5.95043e-05 0)
(0.000208792 5.87435e-05 0)
(0.000168273 5.67541e-05 0)
(0.000128867 5.36319e-05 0)
(9.1235e-05 4.93829e-05 0)
(5.60853e-05 4.40492e-05 0)
(2.41043e-05 3.79203e-05 0)
(-4.32866e-06 3.16817e-05 0)
(-2.95232e-05 2.63287e-05 0)
(-5.26207e-05 2.27356e-05 0)
(-7.52665e-05 2.12894e-05 0)
(-9.9108e-05 2.19473e-05 0)
(-0.000125602 2.45876e-05 0)
(-0.000156139 2.92296e-05 0)
(-0.000192227 3.60779e-05 0)
(-0.000235603 4.54172e-05 0)
(-0.000288231 5.74773e-05 0)
(-0.000352197 7.2326e-05 0)
(-0.000429547 8.98127e-05 0)
(-0.000522109 0.000109563 0)
(-0.000631329 0.000131013 0)
(-0.000758152 0.000153466 0)
(-0.000902941 0.000176154 0)
(-0.00106545 0.000198293 0)
(-0.00124484 0.000219129 0)
(-0.00143968 0.000237963 0)
(-1.81185e-08 -6.75488e-07 0)
(7.91661e-06 -1.53162e-05 0)
(2.48591e-05 -3.21037e-05 0)
(4.97205e-05 -4.7464e-05 0)
(8.18826e-05 -6.20727e-05 0)
(0.000121142 -7.59315e-05 0)
(0.000167027 -8.82437e-05 0)
(0.000218579 -9.80155e-05 0)
(0.000274357 -0.000104354 0)
(0.000332502 -0.000106569 0)
(0.000390844 -0.000104216 0)
(0.000447006 -9.71046e-05 0)
(0.000498538 -8.53237e-05 0)
(0.000543063 -6.92528e-05 0)
(0.000578437 -4.95768e-05 0)
(0.000602921 -2.7275e-05 0)
(0.00061535 -3.56809e-06 0)
(0.000615254 2.01675e-05 0)
(0.000602928 4.25575e-05 0)
(0.000579398 6.23929e-05 0)
(0.000546282 7.87868e-05 0)
(0.000505575 9.12649e-05 0)
(0.000459393 9.97802e-05 0)
(0.000409733 0.000104653 0)
(0.000358279 0.000106434 0)
(0.000306303 0.00010572 0)
(0.000254694 0.000102965 0)
(0.000204112 9.83674e-05 0)
(0.000155195 9.19075e-05 0)
(0.000108755 8.35734e-05 0)
(6.57523e-05 7.37968e-05 0)
(2.68495e-05 6.38419e-05 0)
(-8.33438e-06 5.5661e-05 0)
(-4.15441e-05 5.0969e-05 0)
(-7.52602e-05 5.04221e-05 0)
(-0.000111737 5.37832e-05 0)
(-0.000152725 6.07418e-05 0)
(-0.000199815 7.13477e-05 0)
(-0.00025481 8.60295e-05 0)
(-0.000319923 0.000105362 0)
(-0.00039774 0.000129792 0)
(-0.000491041 0.000159433 0)
(-0.000602539 0.000193967 0)
(-0.000734627 0.000232646 0)
(-0.000889154 0.000274373 0)
(-0.00106727 0.000317804 0)
(-0.00126934 0.000361473 0)
(-0.00149491 0.000403886 0)
(-0.00174271 0.000443605 0)
(-0.00201075 0.000479301 0)
(4.37766e-07 -5.32155e-06 0)
(1.17338e-05 -3.03077e-05 0)
(3.44393e-05 -5.63948e-05 0)
(6.68871e-05 -8.00706e-05 0)
(0.000108126 -0.000102606 0)
(0.00015778 -0.000123994 0)
(0.000215237 -0.000143033 0)
(0.000279375 -0.00015822 0)
(0.000348529 -0.00016818 0)
(0.000420545 -0.000171823 0)
(0.000492874 -0.000168404 0)
(0.000562681 -0.000157566 0)
(0.000626991 -0.000139373 0)
(0.000682861 -0.000114353 0)
(0.000727582 -8.35319e-05 0)
(0.000758911 -4.8426e-05 0)
(0.000775304 -1.0974e-05 0)
(0.000776116 2.66201e-05 0)
(0.000761709 6.21238e-05 0)
(0.000733433 9.35653e-05 0)
(0.000693436 0.000119503 0)
(0.00064436 0.000139183 0)
(0.000588987 0.000152566 0)
(0.000529895 0.000160238 0)
(0.000469164 0.0001632 0)
(0.000408214 0.000162543 0)
(0.000347837 0.000159107 0)
(0.000288435 0.000153242 0)
(0.000230392 0.000144815 0)
(0.00017452 0.000133534 0)
(0.000122216 0.000119791 0)
(7.47758e-05 0.00010559 0)
(3.18803e-05 9.44193e-05 0)
(-9.15482e-06 8.9345e-05 0)
(-5.21025e-05 9.12283e-05 0)
(-9.98984e-05 9.91914e-05 0)
(-0.000154283 0.000112466 0)
(-0.000216692 0.000131141 0)
(-0.000288991 0.000156051 0)
(-0.000373772 0.000188271 0)
(-0.000474255 0.000228602 0)
(-0.000593961 0.000277236 0)
(-0.000736322 0.000333621 0)
(-0.000904321 0.000396499 0)
(-0.00110021 0.000464053 0)
(-0.00132531 0.000534093 0)
(-0.00157996 0.000604246 0)
(-0.00186343 0.000672112 0)
(-0.00217404 0.00073539 0)
(-0.00250918 0.00079196 0)
(8.80896e-07 -1.19724e-05 0)
(1.56434e-05 -5.0085e-05 0)
(4.44133e-05 -8.75809e-05 0)
(8.48115e-05 -0.000121221 0)
(0.000135483 -0.000153058 0)
(0.000195847 -0.000183174 0)
(0.000265142 -0.000209985 0)
(0.000342098 -0.000231454 0)
(0.000424865 -0.000245666 0)
(0.000511036 -0.000251052 0)
(0.00059772 -0.000246487 0)
(0.000681638 -0.000231355 0)
(0.000759274 -0.000205628 0)
(0.000827062 -0.000169949 0)
(0.000881636 -0.000125701 0)
(0.000920137 -7.5033e-05 0)
(0.000940543 -2.07717e-05 0)
(0.00094197 3.38026e-05 0)
(0.000924872 8.53165e-05 0)
(0.000891037 0.000130772 0)
(0.000843339 0.000167989 0)
(0.000785297 0.000195864 0)
(0.000720591 0.000214402 0)
(0.000652577 0.000224622 0)
(0.000583838 0.000228238 0)
(0.000515911 0.000227145 0)
(0.000449297 0.000222825 0)
(0.000383815 0.000215886 0)
(0.000319206 0.000205935 0)
(0.000256051 0.000191927 0)
(0.000196469 0.000173717 0)
(0.000143107 0.000154179 0)
(9.60568e-05 0.000139433 0)
(5.10182e-05 0.00013487 0)
(1.95802e-06 0.000141294 0)
(-5.48501e-05 0.000156161 0)
(-0.000120546 0.000177747 0)
(-0.000195861 0.000206265 0)
(-0.000282454 0.00024332 0)
(-0.000383292 0.000290845 0)
(-0.000502363 0.000350217 0)
(-0.000644102 0.000421753 0)
(-0.000812806 0.000504581 0)
(-0.00101214 0.000596756 0)
(-0.00124478 0.000695522 0)
(-0.00151223 0.000797611 0)
(-0.00181475 0.000899527 0)
(-0.00215132 0.000997767 0)
(-0.00251978 0.00108899 0)
(-0.00291687 0.00117015 0)
(1.32637e-06 -2.07072e-05 0)
(1.95739e-05 -7.48325e-05 0)
(5.44613e-05 -0.000125904 0)
(0.000102872 -0.000171187 0)
(0.000163021 -0.000213706 0)
(0.000234123 -0.000253742 0)
(0.000315289 -0.000289376 0)
(0.000405135 -0.000318026 0)
(0.00050167 -0.000337192 0)
(0.000602277 -0.000344746 0)
(0.000703749 -0.000339071 0)
(0.000802367 -0.000319182 0)
(0.000894026 -0.000284845 0)
(0.000974443 -0.00023674 0)
(0.00103945 -0.0001766 0)
(0.0010854 -0.000107288 0)
(0.00110961 -3.27256e-05 0)
(0.00111085 4.24101e-05 0)
(0.00108968 0.000113211 0)
(0.00104848 0.000175278 0)
(0.000991138 0.000225438 0)
(0.000922395 0.000262146 0)
(0.000847177 0.000285501 0)
(0.000769946 0.000297185 0)
(0.000694007 0.000300027 0)
(0.000621029 0.000297214 0)
(0.000551005 0.000291318 0)
(0.000482713 0.000283438 0)
(0.000414555 0.000272772 0)
(0.000346334 0.000256646 0)
(0.000281272 0.000233184 0)
(0.000224852 0.000206095 0)
(0.000178422 0.000186249 0)
(0.000134753 0.00018338 0)
(8.36199e-05 0.000197509 0)
(2.04171e-05 0.000222183 0)
(-5.41253e-05 0.000253936 0)
(-0.000139128 0.000293454 0)
(-0.000235809 0.000343846 0)
(-0.00034768 0.000408505 0)
(-0.000479826 0.000489696 0)
(-0.000637924 0.000587905 0)
(-0.000827375 0.000701788 0)
(-0.00105266 0.000828466 0)
(-0.00131694 0.000963969 0)
(-0.00162189 0.00110368 0)
(-0.00196764 0.00124274 0)
(-0.00235285 0.00137633 0)
(-0.0027748 0.00149992 0)
(-0.00322959 0.00160937 0)
(1.76079e-06 -3.14889e-05 0)
(2.33182e-05 -0.000104461 0)
(6.39987e-05 -0.000171224 0)
(0.00012 -0.000229791 0)
(0.000189146 -0.000284353 0)
(0.000270482 -0.000335511 0)
(0.000363039 -0.000381065 0)
(0.000465379 -0.000417893 0)
(0.000575427 -0.00044286 0)
(0.000690413 -0.000453183 0)
(0.000806855 -0.00044663 0)
(0.000920593 -0.000421681 0)
(0.00102688 -0.000377739 0)
(0.00112061 -0.000315382 0)
(0.0011966 -0.00023663 0)
(0.00125016 -0.000145125 0)
(0.00127768 -4.61195e-05 0)
(0.00127738 5.38871e-05 0)
(0.00124987 0.000147887 0)
(0.00119836 0.000229533 0)
(0.00112816 0.000294295 0)
(0.00104568 0.000340072 0)
(0.000957567 0.000367093 0)
(0.000869897 0.000378002 0)
(0.000787066 0.000377317 0)
(0.000710985 0.000370272 0)
(0.000640917 0.000361258 0)
(0.000574015 0.000352399 0)
(0.000506177 0.000342528 0)
(0.000435109 0.000325834 0)
(0.000365461 0.000296098 0)
(0.000308466 0.000257164 0)
(0.000268782 0.000228839 0)
(0.000233706 0.000229443 0)
(0.000184962 0.000256468 0)
(0.000117364 0.000294716 0)
(3.61788e-05 0.000337969 0)
(-5.47445e-05 0.000388494 0)
(-0.000156099 0.000452314 0)
(-0.000272508 0.000535215 0)
(-0.000410773 0.000640714 0)
(-0.000578308 0.000769426 0)
(-0.000781931 0.000919267 0)
(-0.0010271 0.00108606 0)
(-0.00131749 0.00126426 0)
(-0.00165492 0.00144757 0)
(-0.00203933 0.00162951 0)
(-0.00246896 0.00180375 0)
(-0.00294053 0.00196437 0)
(-0.00344939 0.00210604 0)
(2.15994e-06 -4.41572e-05 0)
(2.6644e-05 -0.000138553 0)
(7.24079e-05 -0.000222942 0)
(0.000135067 -0.00029631 0)
(0.000212142 -0.000364209 0)
(0.000302586 -0.000427688 0)
(0.000405422 -0.000484326 0)
(0.000519237 -0.000530461 0)
(0.00064196 -0.000562274 0)
(0.000770748 -0.000576228 0)
(0.000901908 -0.00056931 0)
(0.00103087 -0.000539265 0)
(0.00115221 -0.000484897 0)
(0.00125985 -0.000406465 0)
(0.00134739 -0.000306123 0)
(0.00140874 -0.000188303 0)
(0.00143895 -5.98392e-05 0)
(0.00143531 7.03925e-05 0)
(0.00139837 0.000192462 0)
(0.00133244 0.000297251 0)
(0.00124481 0.000378357 0)
(0.00114413 0.000433018 0)
(0.00103939 0.000461545 0)
(0.000939013 0.000467897 0)
(0.000849063 0.000459075 0)
(0.00077195 0.000443451 0)
(0.000706054 0.000428367 0)
(0.000646362 0.000418027 0)
(0.000584488 0.000411777 0)
(0.000513162 0.000398325 0)
(0.00043802 0.00036157 0)
(0.000381458 0.000302853 0)
(0.000356211 0.000259152 0)
(0.000339371 0.000266384 0)
(0.000297039 0.000315466 0)
(0.000224924 0.000372133 0)
(0.000138457 0.000426816 0)
(4.60789e-05 0.000486272 0)
(-5.30225e-05 0.000561996 0)
(-0.000165756 0.000663426 0)
(-0.000301668 0.000795603 0)
(-0.000470549 0.000959001 0)
(-0.000680962 0.00115031 0)
(-0.000939445 0.00136353 0)
(-0.00125019 0.00159107 0)
(-0.00161503 0.00182459 0)
(-0.00203365 0.00205569 0)
(-0.00250378 0.00227631 0)
(-0.00302147 0.00247904 0)
(-0.00358128 0.00265721 0)
(2.49951e-06 -5.84443e-05 0)
(2.93312e-05 -0.000176391 0)
(7.91055e-05 -0.000280011 0)
(0.000146997 -0.00036947 0)
(0.000230347 -0.000451869 0)
(0.000328118 -0.000528825 0)
(0.000439424 -0.000597755 0)
(0.00056298 -0.000654469 0)
(0.000696828 -0.000694415 0)
(0.000838167 -0.000713187 0)
(0.000983199 -0.000706811 0)
(0.00112702 -0.00067204 0)
(0.00126355 -0.000606765 0)
(0.00138567 -0.000510587 0)
(0.00148549 -0.000385511 0)
(0.00155508 -0.000236638 0)
(0.00158755 -7.25996e-05 0)
(0.00157861 9.46553e-05 0)
(0.00152846 0.000251058 0)
(0.0014428 0.000383442 0)
(0.0013318 0.000482823 0)
(0.00120701 0.000545799 0)
(0.00108043 0.000572498 0)
(0.000963856 0.000568536 0)
(0.000865944 0.000544459 0)
(0.000789985 0.000513306 0)
(0.000733504 0.000486885 0)
(0.000689294 0.000473161 0)
(0.000642551 0.000475427 0)
(0.000575361 0.000474211 0)
(0.000491222 0.000431721 0)
(0.000432769 0.000338848 0)
(0.000431078 0.000266242 0)
(0.000444961 0.000286343 0)
(0.000410823 0.000374469 0)
(0.000329873 0.000455109 0)
(0.000238599 0.000517638 0)
(0.000150906 0.000580337 0)
(6.34241e-05 0.000664323 0)
(-3.52831e-05 0.000783884 0)
(-0.000158795 0.000945388 0)
(-0.000319934 0.00114845 0)
(-0.00052923 0.00138772 0)
(-0.000794275 0.00165467 0)
(-0.00111963 0.00193909 0)
(-0.00150701 0.00223018 0)
(-0.00195565 0.00251735 0)
(-0.00246265 0.00279065 0)
(-0.00302333 0.00304102 0)
(-0.00363144 0.00326038 0)
(2.75836e-06 -7.39829e-05 0)
(3.11789e-05 -0.000216983 0)
(8.35556e-05 -0.000340965 0)
(0.000154788 -0.000447469 0)
(0.000242189 -0.000545309 0)
(0.000344846 -0.000636782 0)
(0.000462074 -0.000719211 0)
(0.000592833 -0.000787892 0)
(0.000735413 -0.000837501 0)
(0.000887205 -0.000862654 0)
(0.00104447 -0.000858225 0)
(0.00120214 -0.000819681 0)
(0.0013536 -0.000743601 0)
(0.00149066 -0.000628441 0)
(0.00160378 -0.000475555 0)
(0.00168267 -0.000290359 0)
(0.00171767 -8.33392e-05 0)
(0.00170182 0.000129695 0)
(0.00163421 0.000328694 0)
(0.0015224 0.000494397 0)
(0.00138082 0.000614256 0)
(0.00122459 0.000684771 0)
(0.00106927 0.00070504 0)
(0.000931614 0.00068257 0)
(0.000824147 0.000632905 0)
(0.000751392 0.000575885 0)
(0.000710067 0.000529401 0)
(0.000692182 0.000506562 0)
(0.000676125 0.000523476 0)
(0.000623694 0.000554524 0)
(0.000525234 0.000515454 0)
(0.000456368 0.000362596 0)
(0.000486562 0.00023337 0)
(0.000544958 0.000280527 0)
(0.000514939 0.000440595 0)
(0.000414473 0.000548368 0)
(0.000320055 0.00060675 0)
(0.0002475 0.000661372 0)
(0.000184972 0.000747934 0)
(0.000113251 0.000885337 0)
(1.3556e-05 0.0010799 0)
(-0.000130196 0.00132901 0)
(-0.000330405 0.00162415 0)
(-0.000595492 0.00195338 0)
(-0.000930082 0.00230324 0)
(-0.00133551 0.00266009 0)
(-0.00181037 0.0030109 0)
(-0.00235101 0.00334369 0)
(-0.00295192 0.00364769 0)
(-0.00360606 0.00391339 0)
(2.91786e-06 -9.03104e-05 0)
(3.20055e-05 -0.000259086 0)
(8.52718e-05 -0.000403958 0)
(0.000157528 -0.000528001 0)
(0.00024621 -0.000641891 0)
(0.000350653 -0.000748709 0)
(0.000470481 -0.00084575 0)
(0.000605018 -0.000927823 0)
(0.000752947 -0.000988817 0)
(0.000912037 -0.00102229 0)
(0.00107884 -0.0010218 0)
(0.00124838 -0.000981216 0)
(0.00141377 -0.000895341 0)
(0.00156599 -0.000760834 0)
(0.00169378 -0.000577608 0)
(0.00178408 -0.000350621 0)
(0.00182333 -9.18525e-05 0)
(0.00180008 0.000178343 0)
(0.00171077 0.00043112 0)
(0.00156526 0.000637622 0)
(0.00138487 0.000780365 0)
(0.00118866 0.000857896 0)
(0.000995826 0.000865951 0)
(0.000830593 0.000813883 0)
(0.000711198 0.000724374 0)
(0.000643228 0.000627281 0)
(0.000621777 0.000547775 0)
(0.000640339 0.000502868 0)
(0.000678231 0.000532926 0)
(0.000670479 0.00063074 0)
(0.000560361 0.000633032 0)
(0.000461372 0.000381176 0)
(0.000520424 0.000140779 0)
(0.000628414 0.000244698 0)
(0.000585004 0.000536229 0)
(0.000449662 0.000658047 0)
(0.000363842 0.000683707 0)
(0.000326997 0.000713626 0)
(0.000308157 0.000797521 0)
(0.000278376 0.000954571 0)
(0.000214313 0.00118827 0)
(9.72424e-05 0.00149197 0)
(-8.65938e-05 0.00185266 0)
(-0.000345954 0.00225408 0)
(-0.000685138 0.00267896 0)
(-0.00110475 0.00311048 0)
(-0.0016025 0.00353303 0)
(-0.00217388 0.00393259 0)
(-0.00281257 0.00429667 0)
(-0.00351076 0.00461429 0)
(2.96081e-06 -0.000106872 0)
(3.16505e-05 -0.000301232 0)
(8.38291e-05 -0.000466787 0)
(0.000154411 -0.000608288 0)
(0.000241109 -0.000738386 0)
(0.000343606 -0.000861036 0)
(0.000461927 -0.000973567 0)
(0.000595863 -0.00107036 0)
(0.000744625 -0.00114453 0)
(0.000906552 -0.00118857 0)
(0.00107877 -0.00119459 0)
(0.00125677 -0.00115464 0)
(0.0014339 -0.00106127 0)
(0.00160077 -0.000908549 0)
(0.00174479 -0.000693813 0)
(0.00184994 -0.000420151 0)
(0.00189766 -9.97832e-05 0)
(0.00186907 0.000242459 0)
(0.00175465 0.000564578 0)
(0.00156671 0.000821782 0)
(0.00133859 0.00098948 0)
(0.00109309 0.00107479 0)
(0.000851779 0.00106391 0)
(0.000651045 0.000967668 0)
(0.00051735 0.000819401 0)
(0.000455514 0.000664578 0)
(0.000456525 0.000534912 0)
(0.000513308 0.000449575 0)
(0.00061836 0.000469182 0)
(0.000716961 0.000646639 0)
(0.000664064 0.000786711 0)
(0.000524446 0.000424196 0)
(0.000527183 -4.29457e-05 0)
(0.00061449 0.000185502 0)
(0.000531937 0.000696964 0)
(0.000379765 0.000765685 0)
(0.000355351 0.000714409 0)
(0.000392941 0.000709904 0)
(0.00043956 0.000794089 0)
(0.000464947 0.000978009 0)
(0.000445996 0.0012604 0)
(0.000362958 0.00162963 0)
(0.000201226 0.00206732 0)
(-4.7943e-05 0.0025521 0)
(-0.000388076 0.0030624 0)
(-0.000818707 0.00357802 0)
(-0.00133648 0.00408079 0)
(-0.00193594 0.00455468 0)
(-0.00261004 0.00498564 0)
(-0.00335036 0.00536125 0)
(2.87252e-06 -0.000123031 0)
(2.99851e-05 -0.000341756 0)
(7.88923e-05 -0.000526954 0)
(0.000144799 -0.000685142 0)
(0.00022583 -0.000831026 0)
(0.000322094 -0.000969495 0)
(0.000434066 -0.00109798 0)
(0.00056206 -0.0012105 0)
(0.000705906 -0.00129948 0)
(0.000864676 -0.00135642 0)
(0.00103636 -0.001372 0)
(0.00121739 -0.00133634 0)
(0.00140204 -0.00123939 0)
(0.00158147 -0.00107185 0)
(0.00174272 -0.000827047 0)
(0.00186749 -0.000503975 0)
(0.0019316 -0.000112223 0)
(0.00190461 0.000321495 0)
(0.00176434 0.000735574 0)
(0.00152358 0.00105696 0)
(0.00123834 0.00124931 0)
(0.000933868 0.00134666 0)
(0.000630743 0.00130933 0)
(0.000386889 0.0011498 0)
(0.000239337 0.00091834 0)
(0.000185882 0.000687778 0)
(0.000204814 0.000491799 0)
(0.000284992 0.000347934 0)
(0.00043437 0.000310276 0)
(0.000665766 0.000486364 0)
(0.000848957 0.000821981 0)
(0.000824531 0.000558962 0)
(0.000515817 0.000146007 0)
(0.000266652 0.000208241 0)
(0.000201792 0.000854745 0)
(0.000218307 0.000745527 0)
(0.000361255 0.000633353 0)
(0.000494672 0.000624622 0)
(0.000605191 0.000726482 0)
(0.000685039 0.000948609 0)
(0.000713497 0.00129059 0)
(0.000667908 0.00173719 0)
(0.00053165 0.00226413 0)
(0.000295631 0.00284408 0)
(-4.28327e-05 0.00345058 0)
(-0.000481913 0.00405988 0)
(-0.00101701 0.00465136 0)
(-0.00164178 0.00520729 0)
(-0.00234866 0.0057122 0)
(-0.0031289 0.00615239 0)
(2.64304e-06 -0.000138089 0)
(2.69304e-05 -0.000378853 0)
(7.02616e-05 -0.000581746 0)
(0.000128308 -0.00075507 0)
(0.000199715 -0.00091561 0)
(0.000285049 -0.00106922 0)
(0.000385232 -0.00121349 0)
(0.000501085 -0.00134214 0)
(0.000633057 -0.00144708 0)
(0.000781023 -0.00151894 0)
(0.000944042 -0.00154723 0)
(0.00111997 -0.00152026 0)
(0.0013048 -0.00142535 0)
(0.00149159 -0.00124935 0)
(0.00166886 -0.00098017 0)
(0.00181808 -0.00060981 0)
(0.00191095 -0.000140179 0)
(0.00190119 0.000409267 0)
(0.00174163 0.000950208 0)
(0.00143547 0.00135657 0)
(0.00108181 0.00156435 0)
(0.000707326 0.00168723 0)
(0.00032617 0.00161347 0)
(3.71797e-05 0.0013634 0)
(-0.000112695 0.00101627 0)
(-0.000146784 0.000699333 0)
(-0.00011809 0.000440093 0)
(-5.03462e-05 0.000242088 0)
(6.07043e-05 0.000133342 0)
(0.000213105 0.000254101 0)
(0.000334325 0.000766102 0)
(0.000412111 0.000595668 0)
(0.000453972 0.000401323 0)
(0.000358906 0.000336504 0)
(0.000274796 0.000963837 0)
(0.000382055 0.000594277 0)
(0.000545659 0.000483439 0)
(0.000682081 0.000493661 0)
(0.000816314 0.000612951 0)
(0.000939042 0.000872406 0)
(0.00101424 0.00127907 0)
(0.00100838 0.00181278 0)
(0.000900064 0.00244079 0)
(0.000679345 0.00312773 0)
(0.000344675 0.00384111 0)
(-0.000100391 0.00455336 0)
(-0.000649784 0.00524176 0)
(-0.00129643 0.0058873 0)
(-0.00203258 0.00647348 0)
(-0.00284968 0.00698548 0)
(2.26964e-06 -0.000151321 0)
(2.24794e-05 -0.000410666 0)
(5.79284e-05 -0.000628362 0)
(0.000104911 -0.000814428 0)
(0.000162671 -0.000987693 0)
(0.000232217 -0.00115495 0)
(0.000314848 -0.00131395 0)
(0.000411782 -0.00145824 0)
(0.000523955 -0.00157931 0)
(0.000651947 -0.00166726 0)
(0.000795892 -0.00171077 0)
(0.000955305 -0.00169693 0)
(0.00112865 -0.00161092 0)
(0.00131234 -0.00143593 0)
(0.00149891 -0.0011537 0)
(0.00167358 -0.000746597 0)
(0.0018098 -0.000202941 0)
(0.00184661 0.000486014 0)
(0.0016926 0.00120966 0)
(0.00130802 0.00174329 0)
(0.000866886 0.00193198 0)
(0.00040289 0.00211842 0)
(-7.72649e-05 0.00198879 0)
(-0.00039607 0.00159959 0)
(-0.000507082 0.00108491 0)
(-0.000489706 0.000694938 0)
(-0.000440857 0.000398023 0)
(-0.000386624 0.00018783 0)
(-0.000362614 7.40876e-05 0)
(-0.000401595 0.000171625 0)
(-8.46037e-05 0.000439112 0)
(0.000183657 0.000579618 0)
(5.95454e-06 0.000432739 0)
(-0.000244572 0.00042185 0)
(0.000145493 0.00049437 0)
(0.000708256 0.000456448 0)
(0.000748748 0.000386999 0)
(0.000844694 0.000370648 0)
(0.00100868 0.000468624 0)
(0.00119159 0.000749179 0)
(0.00132779 0.00122145 0)
(0.00137107 0.00185209 0)
(0.00129613 0.00259414 0)
(0.00109374 0.00340058 0)
(0.000765341 0.00423143 0)
(0.000317414 0.00505533 0)
(-0.00024213 0.00584818 0)
(-0.00090566 0.00659057 0)
(-0.00166593 0.00726556 0)
(-0.00251529 0.0078574 0)
(1.75922e-06 -0.000162013 0)
(1.67173e-05 -0.000435394 0)
(4.21259e-05 -0.000664077 0)
(7.50378e-05 -0.000859646 0)
(0.000115341 -0.00104285 0)
(0.000164428 -0.00122134 0)
(0.000223848 -0.00139297 0)
(0.000295007 -0.00155114 0)
(0.000379057 -0.00168709 0)
(0.000476943 -0.00179066 0)
(0.000589532 -0.0018503 0)
(0.000717773 -0.00185267 0)
(0.000862755 -0.00178208 0)
(0.00102529 -0.00161944 0)
(0.00120436 -0.00134114 0)
(0.0013935 -0.000918799 0)
(0.00157796 -0.000325083 0)
(0.00170352 0.000502207 0)
(0.0016188 0.00149241 0)
(0.00115358 0.00226507 0)
(0.000590427 0.00234986 0)
(-1.54276e-05 0.0027006 0)
(-0.000622963 0.00243056 0)
(-0.000895027 0.00179634 0)
(-0.000882655 0.00106149 0)
(-0.000769546 0.000645707 0)
(-0.000660104 0.000324527 0)
(-0.000539397 0.000122573 0)
(-0.00043679 4.40676e-05 0)
(-0.000338004 0.000125159 0)
(-0.000243051 0.000144011 0)
(-7.57682e-05 0.000534253 0)
(-5.38355e-07 0.000544067 0)
(-0.00012706 0.000482105 0)
(-6.74542e-05 -6.83501e-05 0)
(0.000239194 0.000211378 0)
(0.000551161 0.000197226 0)
(0.00082661 0.000166767 0)
(0.00111686 0.000238667 0)
(0.00140948 0.000545092 0)
(0.00163535 0.00109755 0)
(0.00174281 0.00184406 0)
(0.0017078 0.00271869 0)
(0.00152638 0.00365947 0)
(0.00120664 0.00461832 0)
(0.000760048 0.00556145 0)
(0.000196603 0.00646512 0)
(-0.000476226 0.00731099 0)
(-0.00125272 0.00808259 0)
(-0.00212731 0.00876345 0)
(1.13033e-06 -0.000169526 0)
(9.83273e-06 -0.000451425 0)
(2.33588e-05 -0.000686448 0)
(3.96316e-05 -0.000887495 0)
(5.92043e-05 -0.00107703 0)
(8.37815e-05 -0.0012634 0)
(0.000114998 -0.00144445 0)
(0.000154192 -0.00161333 0)
(0.000202336 -0.00176106 0)
(0.000260174 -0.00187745 0)
(0.000328535 -0.00195118 0)
(0.000408842 -0.00196953 0)
(0.000503861 -0.00191765 0)
(0.000618427 -0.00177685 0)
(0.000759271 -0.00152132 0)
(0.000931623 -0.00111315 0)
(0.00113487 -0.000509202 0)
(0.00134668 0.000406234 0)
(0.00144683 0.00168126 0)
(0.00099414 0.00297207 0)
(0.000219547 0.00287925 0)
(-0.000627884 0.00349839 0)
(-0.00129831 0.00286949 0)
(-0.00136876 0.00183961 0)
(-0.00120197 0.000938932 0)
(-0.000990448 0.000480505 0)
(-0.000763768 0.000157264 0)
(-0.000555856 -4.33214e-05 0)
(-0.000373685 -9.28295e-05 0)
(-0.000212169 -2.11906e-05 0)
(-6.75645e-05 9.22581e-05 0)
(8.65781e-05 0.000366959 0)
(0.000162099 0.000579968 0)
(0.000184977 0.000489735 0)
(0.000233858 -0.000111542 0)
(0.000332495 -4.60205e-05 0)
(0.000538346 -9.75756e-05 0)
(0.000823271 -0.000154513 0)
(0.00120465 -0.000111827 0)
(0.00161683 0.000230835 0)
(0.00194556 0.000889166 0)
(0.00212161 0.00178053 0)
(0.00212505 0.00281213 0)
(0.00196216 0.00390317 0)
(0.00165188 0.00499862 0)
(0.00121224 0.00606564 0)
(0.000654624 0.00708423 0)
(-1.56435e-05 0.00803929 0)
(-0.000796383 0.00891568 0)
(-0.00168568 0.00969635 0)
(4.14014e-07 -0.000173337 0)
(2.11511e-06 -0.000457472 0)
(2.39117e-06 -0.000693517 0)
(1.29048e-07 -0.00089538 0)
(-3.43801e-06 -0.00108698 0)
(-6.35303e-06 -0.00127709 0)
(-7.02501e-06 -0.00146333 0)
(-4.42328e-06 -0.00163838 0)
(1.84542e-06 -0.00179291 0)
(1.16626e-05 -0.00191658 0)
(2.47382e-05 -0.00199847 0)
(4.12988e-05 -0.00202717 0)
(6.33923e-05 -0.00199043 0)
(9.69507e-05 -0.00187356 0)
(0.0001545 -0.00165515 0)
(0.000257799 -0.00129709 0)
(0.000431819 -0.000741439 0)
(0.000705037 0.000154603 0)
(0.0010167 0.00164481 0)
(0.000881497 0.00376192 0)
(-0.00045649 0.00417719 0)
(-0.00194583 0.00442204 0)
(-0.00208892 0.00282554 0)
(-0.00154209 0.00153552 0)
(-0.00113973 0.000681889 0)
(-0.000873639 0.000217812 0)
(-0.000638529 -8.61578e-05 0)
(-0.000419295 -0.0002654 0)
(-0.000244647 -0.000266434 0)
(-0.000115906 -0.000174534 0)
(-8.79729e-06 -4.16952e-05 0)
(0.000138315 0.000200999 0)
(0.00036621 0.000457481 0)
(0.000563923 0.000389394 0)
(0.000583342 -8.74894e-05 0)
(0.000607231 -0.000190244 0)
(0.00071026 -0.000277443 0)
(0.000885873 -0.000478492 0)
(0.00130191 -0.000554224 0)
(0.00183694 -0.000197126 0)
(0.00226886 0.000595838 0)
(0.00250166 0.00166738 0)
(0.0025297 0.00288123 0)
(0.00237661 0.00413459 0)
(0.00207629 0.00536901 0)
(0.00165321 0.00655861 0)
(0.00111735 0.00769234 0)
(0.000468261 0.00876103 0)
(-0.00029876 0.00975149 0)
(-0.00118763 0.0106454 0)
(-3.56516e-07 -0.000173104 0)
(-6.07601e-06 -0.000452679 0)
(-1.98119e-05 -0.00068399 0)
(-4.16517e-05 -0.000881601 0)
(-6.96441e-05 -0.00107057 0)
(-0.000101583 -0.0012598 0)
(-0.000135957 -0.00144636 0)
(-0.000172139 -0.00162215 0)
(-0.00021054 -0.00177703 0)
(-0.00025262 -0.00190009 0)
(-0.000300769 -0.00198025 0)
(-0.000357867 -0.00200697 0)
(-0.000426205 -0.00197069 0)
(-0.000505386 -0.0018622 0)
(-0.000588721 -0.00166895 0)
(-0.0006578 -0.00136299 0)
(-0.000677969 -0.000883582 0)
(-0.000604938 -6.2181e-05 0)
(-0.000412427 0.00149165 0)
(-0.000216897 0.00415912 0)
(-0.000762097 0.00561003 0)
(-0.00130183 0.004858 0)
(-0.00108263 0.00248845 0)
(-0.000808212 0.00114031 0)
(-0.00057976 0.000389015 0)
(-0.000396383 -1.4139e-05 0)
(-0.000243483 -0.000289712 0)
(-0.000125226 -0.000424319 0)
(-3.79548e-05 -0.000382516 0)
(3.61057e-05 -0.000272508 0)
(0.000116336 -0.00015226 0)
(0.000273782 -1.94277e-06 0)
(0.00054995 0.000172726 0)
(0.000844442 0.000206648 0)
(0.000932735 -1.85907e-05 0)
(0.000838081 -0.000207961 0)
(0.000776843 -0.000336552 0)
(0.000888545 -0.000772283 0)
(0.00137291 -0.00111778 0)
(0.00206809 -0.00075799 0)
(0.00259195 0.000228253 0)
(0.00285098 0.00152449 0)
(0.00287987 0.00293946 0)
(0.00272695 0.0043579 0)
(0.00244256 0.00572231 0)
(0.00205531 0.00702391 0)
(0.00156815 0.00826799 0)
(0.000969069 0.00945416 0)
(0.000241922 0.0105705 0)
(-0.000625651 0.0115953 0)
(-1.12949e-06 -0.000168673 0)
(-1.43343e-05 -0.00043671 0)
(-4.21991e-05 -0.000657365 0)
(-8.37191e-05 -0.000845539 0)
(-0.000136175 -0.00102711 0)
(-0.000197032 -0.00121081 0)
(-0.00026474 -0.0013928 0)
(-0.000338932 -0.00156384 0)
(-0.000420658 -0.00171246 0)
(-0.000512593 -0.00182636 0)
(-0.000619258 -0.0018932 0)
(-0.000747146 -0.00190167 0)
(-0.000904503 -0.00184292 0)
(-0.00110009 -0.00171184 0)
(-0.00133917 -0.0015073 0)
(-0.00161195 -0.00122697 0)
(-0.00186649 -0.000855405 0)
(-0.00193915 -0.000293184 0)
(-0.00146406 0.000869871 0)
(-0.000601943 0.00399778 0)
(-0.000890153 0.00676803 0)
(-0.0012984 0.00468795 0)
(-0.000547959 0.00190976 0)
(-1.28558e-05 0.000804521 0)
(5.8551e-05 0.000222529 0)
(3.38882e-05 -0.000121977 0)
(3.68517e-05 -0.000373058 0)
(6.62202e-05 -0.000489954 0)
(0.000122148 -0.000447168 0)
(0.000186611 -0.000337004 0)
(0.000266403 -0.000263481 0)
(0.000426727 -0.000220437 0)
(0.000710528 -0.00014126 0)
(0.00102308 -3.46285e-05 0)
(0.00121209 -2.10578e-05 0)
(0.00120267 -5.88378e-05 0)
(0.00106163 -0.000270437 0)
(0.00100672 -0.000991119 0)
(0.00150458 -0.00186937 0)
(0.00234025 -0.00145595 0)