/*--------------------------------*- C++ -*----------------------------------*\
| =========                 |                                                 |
| \\      /  F ield         | OpenFOAM: The Open Source CFD Toolbox           |
|  \\    /   O peration     | Version:  2.4.0                                 |
|   \\  /    A nd           | Web:      www.OpenFOAM.org                      |
|    \\/     M anipulation  |                                                 |
\*---------------------------------------------------------------------------*/
FoamFile
{
    version     2.0;
    format      ascii;
    class       surfaceScalarField;
    location    "0.137";
    object      phiAlpha;
}
// * * * * * * * * * * * * * * * * * * * * * * * * * * * * * * * * * * * * * //

dimensions      [0 3 -1 0 0 0 0];

internalField   nonuniform List<scalar> 
119500
(
-2.97065e-13
2.97065e-13
-6.91756e-13
3.94544e-13
-1.13876e-12
4.46879e-13
-1.57946e-12
4.40567e-13
-2.00837e-12
4.28774e-13
-2.41947e-12
4.10972e-13
-2.81007e-12
3.9051e-13
-3.1764e-12
3.66281e-13
-3.51382e-12
3.37396e-13
-3.81798e-12
3.04162e-13
-4.08484e-12
2.66885e-13
-4.31073e-12
2.2592e-13
-4.49201e-12
1.81306e-13
-4.62535e-12
1.33338e-13
-4.70759e-12
8.22016e-14
-4.73622e-12
2.8528e-14
-4.70942e-12
-2.69693e-14
-4.62491e-12
-8.47091e-14
-4.4837e-12
-1.41438e-13
-4.28678e-12
-1.97167e-13
-4.03561e-12
-2.51403e-13
-3.73276e-12
-3.03075e-13
-3.38166e-12
-3.51309e-13
-2.98625e-12
-3.95574e-13
-2.55137e-12
-4.35e-13
-2.08235e-12
-4.69093e-13
-1.58527e-12
-4.97088e-13
-1.06674e-12
-5.18493e-13
-5.33705e-13
-5.32961e-13
6.06259e-15
-5.39684e-13
5.49804e-13
-5.43684e-13
1.08675e-12
-5.36945e-13
1.6112e-12
-5.24545e-13
2.11724e-12
-5.06225e-13
2.59968e-12
-4.82705e-13
3.0524e-12
-4.53058e-13
3.47287e-12
-4.20843e-13
3.85811e-12
-3.85624e-13
4.20296e-12
-3.45221e-13
4.50748e-12
-3.04851e-13
4.76962e-12
-2.62434e-13
4.98963e-12
-2.20283e-13
5.16709e-12
-1.77735e-13
5.30377e-12
-1.36968e-13
5.40162e-12
-9.81831e-14
5.4609e-12
-5.96444e-14
5.48539e-12
-2.4868e-14
5.47916e-12
5.84485e-15
5.44112e-12
3.76703e-14
5.3742e-12
6.65468e-14
5.28024e-12
9.35583e-14
5.15996e-12
1.19831e-13
5.01505e-12
1.44395e-13
4.84586e-12
1.68589e-13
4.65098e-12
1.94231e-13
4.43138e-12
2.18897e-13
4.18465e-12
2.45978e-13
3.90883e-12
2.75034e-13
3.60141e-12
3.06598e-13
3.2599e-12
3.40674e-13
2.88163e-12
3.77444e-13
2.46397e-12
4.16901e-13
2.00466e-12
4.58645e-13
1.50218e-12
5.01898e-13
9.55433e-13
5.46225e-13
3.63929e-13
5.91007e-13
-2.72387e-13
6.35792e-13
-9.52296e-13
6.79324e-13
-1.67364e-12
7.20687e-13
-2.43409e-12
7.59742e-13
-3.23083e-12
7.9601e-13
-4.06096e-12
8.29404e-13
-4.92014e-12
8.58461e-13
-5.80285e-12
8.8202e-13
-6.70483e-12
9.01298e-13
-7.622e-12
9.16475e-13
-8.54825e-12
9.25555e-13
-9.47789e-12
9.28942e-13
-1.04048e-11
9.26272e-13
-1.13283e-11
9.22753e-13
-1.22371e-11
9.08243e-13
-1.31292e-11
8.91556e-13
-1.4e-11
8.70244e-13
-1.48468e-11
8.46257e-13
-1.56647e-11
8.17361e-13
-1.64509e-11
7.85785e-13
-1.72033e-11
7.51998e-13
-1.7923e-11
7.19379e-13
-1.86085e-11
6.85161e-13
-1.92587e-11
6.49977e-13
-1.98733e-11
6.14422e-13
-2.04525e-11
5.78955e-13
-2.09926e-11
5.39922e-13
-2.14979e-11
5.05204e-13
-2.19508e-11
4.52748e-13
-2.23775e-11
4.2653e-13
-2.27407e-11
3.63104e-13
-2.30817e-11
3.40808e-13
-2.32558e-11
1.73966e-13
3.02784e-14
-2.32861e-11
-4.87688e-13
7.84612e-13
-1.24428e-12
1.15087e-12
-2.06371e-12
1.26607e-12
-2.90088e-12
1.2775e-12
-3.7228e-12
1.25048e-12
-4.52418e-12
1.2122e-12
-5.29951e-12
1.16575e-12
-6.04377e-12
1.1105e-12
-6.75116e-12
1.04478e-12
-7.41538e-12
9.68396e-13
-8.02988e-12
8.81409e-13
-8.58769e-12
7.83734e-13
-9.08166e-12
6.75237e-13
-9.50501e-12
5.56566e-13
-9.85166e-12
4.28641e-13
-1.01157e-11
2.92261e-13
-1.02925e-11
1.4944e-13
-1.03783e-11
7.01691e-16
-1.03707e-11
-1.49431e-13
-1.02684e-11
-2.9985e-13
-1.00711e-11
-4.4908e-13
-9.77964e-12
-5.94898e-13
-9.39606e-12
-7.35169e-13
-8.92351e-12
-8.68324e-13
-8.36611e-12
-9.92518e-13
-7.72953e-12
-1.1057e-12
-7.01996e-12
-1.20662e-12
-6.24489e-12
-1.29349e-12
-5.41257e-12
-1.36522e-12
-4.53138e-12
-1.42087e-12
-3.61326e-12
-1.46192e-12
-2.66566e-12
-1.48478e-12
-1.69899e-12
-1.49161e-12
-7.22759e-13
-1.48298e-12
2.53197e-13
-1.45927e-12
1.22682e-12
-1.42733e-12
2.18548e-12
-1.38017e-12
3.12293e-12
-1.32371e-12
4.02924e-12
-1.25211e-12
4.90157e-12
-1.17773e-12
5.73361e-12
-1.09499e-12
6.52239e-12
-1.0096e-12
7.26385e-12
-9.19775e-13
7.95689e-12
-8.30647e-13
8.60237e-12
-7.44352e-13
9.19809e-12
-6.56091e-13
9.74541e-12
-5.72914e-13
1.02438e-11
-4.93302e-13
1.06934e-11
-4.12591e-13
1.10951e-11
-3.36014e-13
1.14498e-11
-2.61972e-13
1.17586e-11
-1.89942e-13
1.20233e-11
-1.21438e-13
1.22433e-11
-5.25465e-14
1.24152e-11
2.10863e-14
1.25404e-11
9.23121e-14
1.26149e-11
1.70054e-13
1.26356e-11
2.52949e-13
1.25987e-11
3.42041e-13
1.24996e-11
4.38314e-13
1.23339e-11
5.41881e-13
1.20969e-11
6.52678e-13
1.17844e-11
7.70135e-13
1.13924e-11
8.92911e-13
1.09185e-11
1.01916e-12
1.03602e-11
1.14826e-12
9.71557e-12
1.27931e-12
8.98369e-12
1.40997e-12
8.16512e-12
1.53796e-12
7.26087e-12
1.66266e-12
6.27229e-12
1.78327e-12
5.201e-12
1.89941e-12
4.04961e-12
2.00858e-12
2.82168e-12
2.1087e-12
1.52101e-12
2.20073e-12
1.51722e-13
2.28452e-12
-1.28079e-12
2.35684e-12
-2.76976e-12
2.41673e-12
-4.31011e-12
2.46549e-12
-5.89256e-12
2.50414e-12
-7.51025e-12
2.52493e-12
-9.16391e-12
2.54427e-12
-1.08436e-11
2.54906e-12
-1.25457e-11
2.54747e-12
-1.42668e-11
2.53767e-12
-1.60033e-11
2.5216e-12
-1.77506e-11
2.49876e-12
-1.95084e-11
2.47667e-12
-2.12738e-11
2.45007e-12
-2.30429e-11
2.41875e-12
-2.48126e-11
2.38379e-12
-2.65779e-11
2.34395e-12
-2.83336e-11
2.29531e-12
-3.00732e-11
2.24459e-12
-3.17813e-11
2.16055e-12
-3.34592e-11
2.10423e-12
-3.50594e-11
1.96315e-12
-3.65417e-11
1.8229e-12
-3.76532e-11
1.28536e-12
3.30084e-13
-3.79529e-11
-5.84733e-13
1.36922e-12
-1.5094e-12
2.07529e-12
-2.51044e-12
2.26688e-12
-3.53395e-12
2.3008e-12
-4.54781e-12
2.26415e-12
-5.54017e-12
2.20442e-12
-6.50529e-12
2.13077e-12
-7.43791e-12
2.04305e-12
-8.33222e-12
1.93904e-12
-9.1815e-12
1.81763e-12
-9.9786e-12
1.67846e-12
-1.07162e-11
1.52125e-12
-1.13867e-11
1.34564e-12
-1.19826e-11
1.1523e-12
-1.24969e-11
9.42757e-13
-1.2923e-11
7.18137e-13
-1.32551e-11
4.81279e-13
-1.34895e-11
2.34763e-13
-1.36218e-11
-1.7412e-14
-1.36497e-11
-2.72277e-13
-1.35722e-11
-5.2685e-13
-1.33893e-11
-7.78064e-13
-1.31021e-11
-1.02266e-12
-1.27127e-11
-1.25794e-12
-1.22246e-11
-1.48081e-12
-1.16426e-11
-1.6878e-12
-1.09723e-11
-1.87698e-12
-1.02209e-11
-2.04506e-12
-9.39609e-12
-2.19011e-12
-8.50643e-12
-2.31071e-12
-7.5623e-12
-2.4063e-12
-6.57203e-12
-2.4754e-12
-5.54551e-12
-2.51853e-12
-4.49172e-12
-2.53724e-12
-3.41905e-12
-2.53245e-12
-2.33838e-12
-2.50855e-12
-1.2568e-12
-2.46229e-12
-1.85566e-13
-2.39547e-12
8.79587e-13
-2.31778e-12
1.92349e-12
-2.22214e-12
2.93926e-12
-2.11129e-12
3.92257e-12
-1.99349e-12
4.87128e-12
-1.8691e-12
5.78146e-12
-1.74151e-12
6.65344e-12
-1.61704e-12
7.48405e-12
-1.48743e-12
8.27224e-12
-1.36181e-12
9.01727e-12
-1.23904e-12
9.71931e-12
-1.11533e-12
1.03772e-11
-9.9469e-13
1.09935e-11
-8.79049e-13
1.15671e-11
-7.64301e-13
1.20974e-11
-6.52671e-13
1.25833e-11
-5.39444e-13
1.30239e-11
-4.20514e-13
1.34149e-11
-2.99777e-13
1.37534e-11
-1.69528e-13
1.40348e-11
-2.95865e-14
1.42548e-11
1.20895e-13
1.44079e-11
2.84105e-13
1.44883e-11
4.60363e-13
1.44908e-11
6.49221e-13
1.44095e-11
8.50426e-13
1.42397e-11
1.06186e-12
1.39774e-11
1.28048e-12
1.3619e-11
1.5056e-12
1.31609e-11
1.73632e-12
1.26012e-11
1.96852e-12
1.19389e-11
2.19913e-12
1.11734e-11
2.42699e-12
1.03045e-11
2.651e-12
9.33277e-12
2.87009e-12
8.25859e-12
3.08169e-12
7.08249e-12
3.28377e-12
5.80742e-12
3.47479e-12
4.43728e-12
3.6537e-12
2.97542e-12
3.81776e-12
1.42588e-12
3.96538e-12
-2.05564e-13
4.09609e-12
-1.91168e-12
4.20945e-12
-3.70042e-12
4.31292e-12
-5.55156e-12
4.39471e-12
-7.47398e-12
4.47082e-12
-9.45785e-12
4.53073e-12
-1.1505e-11
4.58427e-12
-1.36087e-11
4.62474e-12
-1.57779e-11
4.66751e-12
-1.80011e-11
4.69952e-12
-2.02773e-11
4.7259e-12
-2.26038e-11
4.74491e-12
-2.49764e-11
4.75604e-12
-2.73899e-11
4.7572e-12
-2.98351e-11
4.74036e-12
-3.23052e-11
4.7145e-12
-3.47865e-11
4.6417e-12
-3.72609e-11
4.57854e-12
-3.9679e-11
4.38104e-12
-4.19419e-11
4.08566e-12
-4.36904e-11
3.03381e-12
9.90649e-13
-4.4351e-11
-6.58778e-13
2.02787e-12
-1.63157e-12
3.04782e-12
-2.71851e-12
3.35359e-12
-3.82412e-12
3.40619e-12
-4.92273e-12
3.36257e-12
-6.00142e-12
3.28296e-12
-7.05386e-12
3.18308e-12
-8.07429e-12
3.06335e-12
-9.0565e-12
2.92112e-12
-9.99353e-12
2.75453e-12
-1.0878e-11
2.56277e-12
-1.17024e-11
2.34559e-12
-1.24594e-11
2.10248e-12
-1.31412e-11
1.83388e-12
-1.37404e-11
1.54176e-12
-1.42504e-11
1.228e-12
-1.46654e-11
8.95965e-13
-1.49806e-11
5.49748e-13
-1.5192e-11
1.93784e-13
-1.52968e-11
-1.67724e-13
-1.52937e-11
-5.30233e-13
-1.51821e-11
-8.89886e-13
-1.4963e-11
-1.24202e-12
-1.46386e-11
-1.5826e-12
-1.42121e-11
-1.90758e-12
-1.36881e-11
-2.21201e-12
-1.30728e-11
-2.49265e-12
-1.23725e-11
-2.74562e-12
-1.15954e-11
-2.96765e-12
-1.07494e-11
-3.15711e-12
-9.84385e-12
-3.31223e-12
-8.88767e-12
-3.43201e-12
-7.88987e-12
-3.51678e-12
-6.85982e-12
-3.56775e-12
-5.80586e-12
-3.58688e-12
-4.738e-12
-3.57689e-12
-3.66344e-12
-3.53733e-12
-2.58937e-12
-3.47005e-12
-1.526e-12
-3.38169e-12
-4.79616e-13
-3.26911e-12
5.51692e-13
-3.14323e-12
1.55948e-12
-3.00197e-12
2.53433e-12
-2.8447e-12
3.48078e-12
-2.68874e-12
4.39287e-12
-2.52992e-12
5.2705e-12
-2.36585e-12
6.11182e-12
-2.20389e-12
6.91595e-12
-2.04389e-12
7.68422e-12
-1.88433e-12
8.41798e-12
-1.72919e-12
9.11421e-12
-1.57603e-12
9.77499e-12
-1.42585e-12
1.03975e-11
-1.276e-12
1.09806e-11
-1.1234e-12
1.15224e-11
-9.63135e-13
1.20192e-11
-7.97449e-13
1.24667e-11
-6.18021e-13
1.28607e-11
-4.24519e-13
1.31957e-11
-2.15046e-13
1.34663e-11
1.25205e-14
1.36664e-11
2.59369e-13
1.37901e-11
5.24579e-13
1.38313e-11
8.08183e-13
1.37846e-11
1.10751e-12
1.36448e-11
1.41928e-12
1.34069e-11
1.74233e-12
1.30675e-11
2.07461e-12
1.26232e-11
2.41166e-12
1.2072e-11
2.74926e-12
1.1412e-11
3.08589e-12
1.06422e-11
3.41975e-12
9.76222e-12
3.74911e-12
8.77236e-12
4.07063e-12
7.673e-12
4.38226e-12
6.46525e-12
4.68172e-12
5.15156e-12
4.96663e-12
3.73425e-12
5.23435e-12
2.21589e-12
5.48306e-12
5.99199e-13
5.71214e-12
-1.11513e-12
5.92318e-12
-2.91886e-12
6.11608e-12
-4.81421e-12
6.28954e-12
-6.79746e-12
6.45358e-12
-8.86694e-12
6.59975e-12
-1.10239e-11
6.74079e-12
-1.32672e-11
6.86766e-12
-1.55955e-11
6.99538e-12
-1.801e-11
7.11362e-12
-2.05082e-11
7.22381e-12
-2.3087e-11
7.32331e-12
-2.57423e-11
7.4111e-12
-2.84675e-11
7.48226e-12
-3.12575e-11
7.53024e-12
-3.40994e-11
7.55634e-12
-3.69785e-11
7.52071e-12
-3.98694e-11
7.46928e-12
-4.27209e-11
7.2324e-12
-4.53992e-11
6.76376e-12
-4.75451e-11
5.17966e-12
1.96796e-12
-4.85226e-11
-6.8257e-13
2.71031e-12
-1.6945e-12
4.05947e-12
-2.81195e-12
4.47079e-12
-3.95155e-12
4.54557e-12
-5.08617e-12
4.49699e-12
-6.20254e-12
4.39913e-12
-7.2939e-12
4.27425e-12
-8.35415e-12
4.1234e-12
-9.37678e-12
3.94353e-12
-1.03547e-11
3.73227e-12
-1.12805e-11
3.48829e-12
-1.21462e-11
3.21108e-12
-1.29441e-11
2.90023e-12
-1.36665e-11
2.55612e-12
-1.43057e-11
2.18081e-12
-1.48551e-11
1.77721e-12
-1.53088e-11
1.34945e-12
-1.56616e-11
9.02466e-13
-1.59097e-11
4.41617e-13
-1.60498e-11
-2.77368e-14
-1.60806e-11
-4.99706e-13
-1.60017e-11
-9.69048e-13
-1.58138e-11
-1.43019e-12
-1.55195e-11
-1.87732e-12
-1.51221e-11
-2.30532e-12
-1.46263e-11
-2.70823e-12
-1.40385e-11
-3.08095e-12
-1.33654e-11
-3.41936e-12
-1.26144e-11
-3.71916e-12
-1.17944e-11
-3.97768e-12
-1.09135e-11
-4.19366e-12
-9.98157e-12
-4.36452e-12
-9.00673e-12
-4.49212e-12
-7.9989e-12
-4.57604e-12
-6.96645e-12
-4.61978e-12
-5.9195e-12
-4.62431e-12
-4.86507e-12
-4.59225e-12
-3.81178e-12
-4.5239e-12
-2.76663e-12
-4.42745e-12
-1.73552e-12
-4.30091e-12
-7.25323e-13
-4.15418e-12
2.66452e-13
-3.99456e-12
1.2287e-12
-3.80779e-12
2.16269e-12
-3.62358e-12
3.06572e-12
-3.43378e-12
3.93601e-12
-3.23695e-12
4.77553e-12
-3.0442e-12
5.58022e-12
-2.84934e-12
6.35354e-12
-2.65839e-12
7.09491e-12
-2.47129e-12
7.80469e-12
-2.28655e-12
8.48126e-12
-2.10315e-12
9.12393e-12
-1.91941e-12
9.72968e-12
-1.72989e-12
1.02985e-11
-1.5327e-12
1.08248e-11
-1.3245e-12
1.13045e-11
-1.09859e-12
1.17337e-11
-8.54502e-13
1.2106e-11
-5.88179e-13
1.2416e-11
-2.98341e-13
1.26586e-11
1.58757e-14
1.2827e-11
3.55195e-13
1.29154e-11
7.18765e-13
1.29176e-11
1.10412e-12
1.28278e-11
1.50795e-12
1.26405e-11
1.92844e-12
1.23515e-11
2.3624e-12
1.19579e-11
2.80416e-12
1.14559e-11
3.25018e-12
1.08431e-11
3.69777e-12
1.01178e-11
4.14404e-12
9.28019e-12
4.58585e-12
8.32968e-12
5.02032e-12
7.26716e-12
5.44404e-12
6.09334e-12
5.85488e-12
4.80987e-12
6.2495e-12
3.41826e-12
6.6254e-12
1.92004e-12
6.98075e-12
3.17451e-13
7.31422e-12
-1.3849e-12
7.62505e-12
-3.19092e-12
7.92166e-12
-5.1022e-12
8.20041e-12
-7.10875e-12
8.45976e-12
-9.2106e-12
8.70124e-12
-1.14077e-11
8.9375e-12
-1.37111e-11
9.17074e-12
-1.61093e-11
9.39312e-12
-1.86057e-11
9.60964e-12
-2.12e-11
9.81782e-12
-2.38923e-11
1.00153e-11
-2.66779e-11
1.01964e-11
-2.95536e-11
1.03578e-11
-3.25116e-11
1.04882e-11
-3.55367e-11
1.05814e-11
-3.86145e-11
1.05984e-11
-4.17126e-11
1.05673e-11
-4.47764e-11
1.0296e-11
-4.76477e-11
9.63492e-12
-4.99534e-11
7.48507e-12
2.92662e-12
-5.09123e-11
-6.95637e-13
3.4058e-12
-1.72741e-12
5.09093e-12
-2.85989e-12
5.603e-12
-4.01359e-12
5.69901e-12
-5.16385e-12
5.64702e-12
-6.29762e-12
5.53267e-12
-7.40782e-12
5.3842e-12
-8.48804e-12
5.20334e-12
-9.5314e-12
4.9866e-12
-1.05307e-11
4.73127e-12
-1.14782e-11
4.43548e-12
-1.23657e-11
4.0984e-12
-1.31853e-11
3.71962e-12
-1.39289e-11
3.29952e-12
-1.45885e-11
2.84032e-12
-1.51575e-11
2.34598e-12
-1.56296e-11
1.82149e-12
-1.59997e-11
1.27242e-12
-1.62636e-11
7.05403e-13
-1.64185e-11
1.26979e-13
-1.64623e-11
-4.56176e-13
-1.6395e-11
-1.03668e-12
-1.62174e-11
-1.60806e-12
-1.59319e-11
-2.16325e-12
-1.55428e-11
-2.69501e-12
-1.50544e-11
-3.19718e-12
-1.44732e-11
-3.6628e-12
-1.38066e-11
-4.08672e-12
-1.30616e-11
-4.46486e-12
-1.22475e-11
-4.79249e-12
-1.13725e-11
-5.06934e-12
-1.0446e-11
-5.29162e-12
-9.47697e-12
-5.46166e-12
-8.47484e-12
-5.57865e-12
-7.44882e-12
-5.64626e-12
-6.40848e-12
-5.66514e-12
-5.36228e-12
-5.63898e-12
-4.31748e-12
-5.56932e-12
-3.28221e-12
-5.46343e-12
-2.26142e-12
-5.32248e-12
-1.26039e-12
-5.15606e-12
-2.8505e-13
-4.97078e-12
6.6628e-13
-4.75999e-12
1.5906e-12
-4.54874e-12
2.48213e-12
-4.32612e-12
3.34386e-12
-4.09946e-12
4.1736e-12
-3.87471e-12
4.9723e-12
-3.6488e-12
5.74054e-12
-3.42738e-12
6.47976e-12
-3.21125e-12
7.18838e-12
-2.99589e-12
7.8662e-12
-2.78167e-12
8.5118e-12
-2.56571e-12
9.12377e-12
-2.34255e-12
9.69852e-12
-2.10816e-12
1.02334e-11
-1.86005e-12
1.07234e-11
-1.58938e-12
1.1164e-11
-1.29578e-12
1.155e-11
-9.74898e-13
1.1875e-11
-6.24195e-13
1.21334e-11
-2.43346e-13
1.23191e-11
1.68398e-13
1.24261e-11
6.10668e-13
1.2448e-11
1.08103e-12
1.23784e-11
1.57632e-12
1.22116e-11
2.09402e-12
1.1943e-11
2.62989e-12
1.15686e-11
3.17748e-12
1.10849e-11
3.73288e-12
1.04893e-11
4.29242e-12
9.78013e-12
4.8524e-12
8.95703e-12
5.40816e-12
8.01981e-12
5.95685e-12
6.96883e-12
6.49439e-12
5.80541e-12
7.01775e-12
4.53089e-12
7.52352e-12
3.14644e-12
8.00938e-12
1.65358e-12
8.47316e-12
5.33804e-14
8.91397e-12
-1.65387e-12
9.33188e-12
-3.46448e-12
9.73186e-12
-5.37757e-12
1.01131e-11
-7.39086e-12
1.04727e-11
-9.51446e-12
1.08245e-11
-1.1739e-11
1.11616e-11
-1.40642e-11
1.14956e-11
-1.64957e-11
1.18242e-11
-1.90304e-11
1.2144e-11
-2.1671e-11
1.24582e-11
-2.44161e-11
1.27602e-11
-2.72648e-11
1.30449e-11
-3.02124e-11
1.33053e-11
-3.32506e-11
1.35262e-11
-3.63675e-11
1.36982e-11
-3.95453e-11
1.3776e-11
-4.27499e-11
1.37717e-11
-4.59219e-11
1.34677e-11
-4.88884e-11
1.26013e-11
-5.12554e-11
9.85171e-12
3.88058e-12
-5.22097e-11
-7.05074e-13
4.1107e-12
-1.74901e-12
6.13451e-12
-2.89088e-12
6.74456e-12
-4.05276e-12
6.86062e-12
-5.21252e-12
6.80651e-12
-6.35737e-12
6.67723e-12
-7.47989e-12
6.50639e-12
-8.57341e-12
6.29651e-12
-9.63091e-12
6.04374e-12
-1.0645e-11
5.74499e-12
-1.16076e-11
5.39778e-12
-1.25103e-11
5.00088e-12
-1.33447e-11
4.55383e-12
-1.41024e-11
4.05706e-12
-1.47752e-11
3.51299e-12
-1.53562e-11
2.92681e-12
-1.58393e-11
2.30453e-12
-1.62188e-11
1.65185e-12
-1.64904e-11
9.76812e-13
-1.66513e-11
2.87741e-13
-1.66993e-11
-4.0852e-13
-1.66341e-11
-1.10216e-12
-1.64573e-11
-1.78527e-12
-1.6171e-11
-2.45004e-12
-1.57795e-11
-3.08707e-12
-1.5288e-11
-3.68936e-12
-1.47025e-11
-4.2491e-12
-1.40306e-11
-4.75937e-12
-1.32802e-11
-5.21609e-12
-1.24597e-11
-5.61381e-12
-1.15786e-11
-5.95107e-12
-1.06455e-11
-6.22539e-12
-9.67037e-12
-6.43732e-12
-8.66212e-12
-6.58741e-12
-7.63131e-12
-6.67759e-12
-6.58614e-12
-6.71084e-12
-5.53722e-12
-6.68852e-12
-4.49052e-12
-6.6167e-12
-3.45449e-12
-6.50023e-12
-2.43489e-12
-6.3429e-12
-1.43595e-12
-6.15586e-12
-4.62715e-13
-5.94484e-12
4.83902e-13
-5.70739e-12
1.401e-12
-5.46658e-12
2.28754e-12
-5.21337e-12
3.1434e-12
-4.95602e-12
3.96946e-12
-4.70148e-12
4.76484e-12
-4.4449e-12
5.53093e-12
-4.19421e-12
6.26771e-12
-3.94876e-12
6.97535e-12
-3.70425e-12
7.65415e-12
-3.46117e-12
8.30198e-12
-3.21424e-12
8.91674e-12
-2.95802e-12
9.49679e-12
-2.68891e-12
1.00373e-11
-2.40122e-12
1.05354e-11
-2.08814e-12
1.09847e-11
-1.74584e-12
1.13804e-11
-1.37131e-12
1.17164e-11
-9.60987e-13
1.19863e-11
-5.14063e-13
1.2184e-11
-3.03928e-14
1.23029e-11
4.90612e-13
1.23365e-11
1.04625e-12
1.22782e-11
1.63346e-12
1.21219e-11
2.24912e-12
1.18631e-11
2.8877e-12
1.14972e-11
3.54232e-12
1.10213e-11
4.20794e-12
1.04324e-11
4.88044e-12
9.72917e-12
5.55493e-12
8.91052e-12
6.22613e-12
7.97626e-12
6.89049e-12
6.92714e-12
7.54294e-12
5.76457e-12
8.1798e-12
4.49011e-12
8.79748e-12
3.10489e-12
9.39412e-12
1.61035e-12
9.96723e-12
7.58761e-15
1.05163e-11
-1.70269e-12
1.10417e-11
-3.51819e-12
1.15469e-11
-5.43427e-12
1.20288e-11
-7.45972e-12
1.24977e-11
-9.58959e-12
1.29539e-11
-1.18239e-11
1.33955e-11
-1.4164e-11
1.38353e-11
-1.6612e-11
1.42718e-11
-1.91661e-11
1.46977e-11
-2.18293e-11
1.51211e-11
-2.46003e-11
1.55309e-11
-2.74788e-11
1.59231e-11
-3.04614e-11
1.62876e-11
-3.35427e-11
1.66073e-11
-3.67098e-11
1.6865e-11
-3.99457e-11
1.70116e-11
-4.32158e-11
1.70417e-11
-4.64583e-11
1.67099e-11
-4.94945e-11
1.56371e-11
-5.19141e-11
1.22711e-11
4.86692e-12
-5.29009e-11
-7.1329e-13
4.8238e-12
-1.7664e-12
7.18724e-12
-2.91608e-12
7.8939e-12
-4.08536e-12
8.02958e-12
-5.25349e-12
7.97432e-12
-6.40818e-12
7.83158e-12
-7.54176e-12
7.63961e-12
-8.64749e-12
7.40183e-12
-9.71804e-12
7.11389e-12
-1.07457e-11
6.77231e-12
-1.17224e-11
6.37412e-12
-1.26391e-11
5.91738e-12
-1.3487e-11
5.40147e-12
-1.42574e-11
4.8273e-12
-1.49421e-11
4.19756e-12
-1.55336e-11
3.5182e-12
-1.60257e-11
2.79656e-12
-1.64127e-11
2.03864e-12
-1.66894e-11
1.25333e-12
-1.68531e-11
4.51264e-13
-1.6902e-11
-3.59972e-13
-1.68354e-11
-1.16909e-12
-1.66551e-11
-1.96603e-12
-1.63637e-11
-2.74185e-12
-1.59653e-11
-3.48614e-12
-1.54652e-11
-4.19008e-12
-1.48701e-11
-4.845e-12
-1.41869e-11
-5.44337e-12
-1.34248e-11
-5.97896e-12
-1.25915e-11
-6.44791e-12
-1.16974e-11
-6.84591e-12
-1.07509e-11
-7.17244e-12
-9.76262e-12
-7.42621e-12
-8.7416e-12
-7.60899e-12
-7.6988e-12
-7.72095e-12
-6.643e-12
-7.76725e-12
-5.58395e-12
-7.74821e-12
-4.52929e-12
-7.67209e-12
-3.48653e-12
-7.54375e-12
-2.46126e-12
-7.36897e-12
-1.45916e-12
-7.15872e-12
-4.85336e-13
-6.91936e-12
4.63167e-13
-6.65653e-12
1.37966e-12
-6.38365e-12
2.26443e-12
-6.09872e-12
3.11851e-12
-5.8107e-12
3.94028e-12
-5.5239e-12
4.73397e-12
-5.23929e-12
5.49839e-12
-4.95935e-12
6.23398e-12
-4.6851e-12
6.94332e-12
-4.41433e-12
7.62354e-12
-4.14213e-12
8.27413e-12
-3.86557e-12
8.89311e-12
-3.57774e-12
9.47874e-12
-3.27528e-12
1.00261e-11
-2.94934e-12
1.05327e-11
-2.59535e-12
1.09911e-11
-2.20502e-12
1.13976e-11
-1.77845e-12
1.17442e-11
-1.30847e-12
1.20259e-11
-7.96616e-13
1.22349e-11
-2.40351e-13
1.23645e-11
3.5985e-13
1.24084e-11
1.00128e-12
1.23598e-11
1.68096e-12
1.22121e-11
2.39571e-12
1.19605e-11
3.13838e-12
1.16012e-11
3.90072e-12
1.11307e-11
4.67771e-12
1.05462e-11
5.46423e-12
9.84527e-12
6.2552e-12
9.02767e-12
7.0431e-12
8.09316e-12
7.82439e-12
7.04262e-12
8.59288e-12
5.87774e-12
9.3441e-12
4.60004e-12
1.00746e-11
3.21113e-12
1.07824e-11
1.71268e-12
1.14651e-11
1.05952e-13
1.21224e-11
-1.60879e-12
1.27559e-11
-3.42964e-12
1.33672e-11
-5.35279e-12
1.39514e-11
-7.38094e-12
1.45253e-11
-9.51178e-12
1.50843e-11
-1.17523e-11
1.56356e-11
-1.40974e-11
1.61799e-11
-1.65471e-11
1.67212e-11
-1.91136e-11
1.72638e-11
-2.17874e-11
1.77946e-11
-2.45726e-11
1.83156e-11
-2.74683e-11
1.88186e-11
-3.04728e-11
1.92916e-11
-3.358e-11
1.97141e-11
-3.67805e-11
2.00651e-11
-4.00585e-11
2.02892e-11
-4.33806e-11
2.03635e-11
-4.66857e-11
2.00147e-11
-4.97943e-11
1.87455e-11
-5.22779e-11
1.47542e-11
5.89466e-12
-5.3306e-11
-7.21359e-13
5.54494e-12
-1.78219e-12
8.24765e-12
-2.93951e-12
9.05086e-12
-4.11713e-12
9.20686e-12
-5.29435e-12
9.15119e-12
-6.45949e-12
8.99634e-12
-7.60477e-12
8.78448e-12
-8.72343e-12
8.52007e-12
-9.80794e-12
8.198e-12
-1.08502e-11
7.81417e-12
-1.18418e-11
7.3654e-12
-1.27736e-11
6.84898e-12
-1.36361e-11
6.2637e-12
-1.44202e-11
5.6112e-12
-1.51178e-11
4.89494e-12
-1.57208e-11
4.12111e-12
-1.62223e-11
3.29789e-12
-1.66165e-11
2.43258e-12
-1.68982e-11
1.53484e-12
-1.7064e-11
6.16819e-13
-1.71125e-11
-3.11869e-13
-1.70433e-11
-1.23861e-12
-1.68576e-11
-2.15216e-12
-1.65589e-11
-3.04096e-12
-1.61511e-11
-3.89446e-12
-1.56396e-11
-4.70229e-12
-1.50316e-11
-5.45364e-12
-1.43341e-11
-6.14162e-12
-1.35563e-11
-6.75754e-12
-1.27067e-11
-7.2982e-12
-1.17949e-11
-7.75829e-12
-1.0831e-11
-8.13692e-12
-9.82496e-12
-8.43288e-12
-8.78739e-12
-8.64714e-12
-7.728e-12
-8.78094e-12
-6.65772e-12
-8.83816e-12
-5.58515e-12
-8.82144e-12
-4.51841e-12
-8.73952e-12
-3.46532e-12
-8.59753e-12
-2.43142e-12
-8.40353e-12
-1.42245e-12
-8.16828e-12
-4.42587e-13
-7.89975e-12
5.07399e-13
-7.60697e-12
1.42405e-12
-7.30073e-12
2.30847e-12
-6.98359e-12
3.16143e-12
-6.66418e-12
3.98167e-12
-6.34476e-12
4.77312e-12
-6.03142e-12
5.53625e-12
-5.72323e-12
6.27199e-12
-5.4216e-12
6.98124e-12
-5.12434e-12
7.6635e-12
-4.82516e-12
8.3175e-12
-4.52035e-12
8.941e-12
-4.20204e-12
9.53326e-12
-3.86833e-12
1.00889e-11
-3.50578e-12
1.0604e-11
-3.11122e-12
1.10731e-11
-2.67486e-12
1.14901e-11
-2.19618e-12
1.18487e-11
-1.66787e-12
1.2142e-11
-1.09083e-12
1.23628e-11
-4.62053e-13
1.25041e-11
2.17589e-13
1.25587e-11
9.4565e-13
1.25192e-11
1.71949e-12
1.238e-11
2.534e-12
1.21367e-11
3.38092e-12
1.17847e-11
4.25197e-12
1.13194e-11
5.14237e-12
1.07376e-11
6.04544e-12
1.00381e-11
6.95402e-12
9.21981e-12
7.86078e-12
8.28378e-12
8.75975e-12
7.2307e-12
9.64527e-12
6.062e-12
1.05121e-11
4.77968e-12
1.13562e-11
3.38566e-12
1.21758e-11
1.88209e-12
1.2968e-11
2.70464e-13
1.37334e-11
-1.4463e-12
1.4472e-11
-3.26722e-12
1.51874e-11
-5.20041e-12
1.58839e-11
-7.23238e-12
1.65566e-11
-9.36794e-12
1.72192e-11
-1.16071e-11
1.78742e-11
-1.39552e-11
1.85275e-11
-1.64118e-11
1.91773e-11
-1.89763e-11
1.98279e-11
-2.1654e-11
2.04718e-11
-2.44464e-11
2.11076e-11
-2.7353e-11
2.17246e-11
-3.03735e-11
2.23116e-11
-3.35031e-11
2.28431e-11
-3.67346e-11
2.32961e-11
-4.00542e-11
2.36084e-11
-4.34304e-11
2.37393e-11
-4.68032e-11
2.33873e-11
-4.99934e-11
2.19354e-11
-5.25526e-11
1.73131e-11
6.94174e-12
-5.36001e-11
-7.29581e-13
6.27429e-12
-1.79742e-12
9.31504e-12
-2.9626e-12
1.02157e-11
-4.14996e-12
1.03939e-11
-5.33756e-12
1.03384e-11
-6.51441e-12
1.01728e-11
-7.67272e-12
9.94236e-12
-8.80562e-12
9.65253e-12
-9.90562e-12
9.2976e-12
-1.09643e-11
8.87244e-12
-1.19726e-11
8.37344e-12
-1.29214e-11
7.79747e-12
-1.38006e-11
7.14258e-12
-1.46005e-11
6.41079e-12
-1.53126e-11
5.60674e-12
-1.59288e-11
4.73706e-12
-1.6441e-11
3.80993e-12
-1.6843e-11
2.83428e-12
-1.71302e-11
1.82172e-12
-1.72985e-11
7.84879e-13
-1.7346e-11
-2.64709e-13
-1.72735e-11
-1.31151e-12
-1.70817e-11
-2.34431e-12
-1.67739e-11
-3.34912e-12
-1.63549e-11
-4.31391e-12
-1.58301e-11
-5.22763e-12
-1.52067e-11
-6.07769e-12
-1.44927e-11
-6.85617e-12
-1.36962e-11
-7.55466e-12
-1.28273e-11
-8.1677e-12
-1.1895e-11
-8.69112e-12
-1.09104e-11
-9.1221e-12
-9.88345e-12
-9.46043e-12
-8.82595e-12
-9.70522e-12
-7.74762e-12
-9.85984e-12
-6.65953e-12
-9.92685e-12
-5.57074e-12
-9.91083e-12
-4.4895e-12
-9.82135e-12
-3.42362e-12
-9.66396e-12
-2.37918e-12
-9.44848e-12
-1.36196e-12
-9.18592e-12
-3.76513e-13
-8.88554e-12
5.76471e-13
-8.56027e-12
1.49379e-12
-8.21838e-12
2.37833e-12
-7.86853e-12
3.2306e-12
-7.51696e-12
4.04989e-12
-7.16467e-12
4.83948e-12
-6.82171e-12
5.60133e-12
-6.48584e-12
6.3367e-12
-6.15776e-12
7.04563e-12
-5.83408e-12
7.73025e-12
-5.5106e-12
8.38782e-12
-5.17875e-12
9.01721e-12
-4.83225e-12
9.61569e-12
-4.46764e-12
1.01797e-11
-4.07061e-12
1.07044e-11
-3.63675e-12
1.11848e-11
-3.15608e-12
1.16139e-11
-2.62601e-12
1.19852e-11
-2.04008e-12
1.22912e-11
-1.39764e-12
1.25245e-11
-6.96203e-13
1.26783e-11
6.29218e-14
1.27438e-11
8.79287e-13
1.27138e-11
1.74876e-12
1.25833e-11
2.66376e-12
1.23483e-11
3.61526e-12
1.20029e-11
4.59674e-12
1.15425e-11
5.60214e-12
1.09642e-11
6.62321e-12
1.02661e-11
7.6515e-12
9.44768e-12
8.67852e-12
8.50947e-12
9.6972e-12
7.4529e-12
1.0701e-11
6.27991e-12
1.16842e-11
4.99207e-12
1.26432e-11
3.59216e-12
1.35749e-11
2.08259e-12
1.44768e-11
4.65017e-13
1.53502e-11
-1.25958e-12
1.61958e-11
-3.08932e-12
1.70164e-11
-5.01797e-12
1.78117e-11
-7.05292e-12
1.85908e-11
-9.19005e-12
1.93556e-11
-1.14329e-11
2.01164e-11
-1.37811e-11
2.0875e-11
-1.62364e-11
2.1632e-11
-1.88017e-11
2.23928e-11
-2.14819e-11
2.31514e-11
-2.42785e-11
2.39036e-11
-2.7195e-11
2.46405e-11
-3.02298e-11
2.53458e-11
-3.33836e-11
2.59962e-11
-3.66479e-11
2.65599e-11
-4.00131e-11
2.69731e-11
-4.3451e-11
2.71769e-11
-4.69035e-11
2.68394e-11
-5.01928e-11
2.52245e-11
-5.28445e-11
1.99645e-11
8.02586e-12
-5.3929e-11
-7.37937e-13
7.01198e-12
-1.81267e-12
1.03893e-11
-2.98599e-12
1.13886e-11
-4.1845e-12
1.1592e-11
-5.38377e-12
1.15373e-11
-6.57362e-12
1.13622e-11
-7.74649e-12
1.11148e-11
-8.89534e-12
1.08009e-11
-1.00126e-11
1.04145e-11
-1.10899e-11
9.9493e-12
-1.21175e-11
9.40064e-12
-1.30854e-11
8.76499e-12
-1.39835e-11
8.04026e-12
-1.48016e-11
7.22855e-12
-1.55304e-11
6.33512e-12
-1.61613e-11
5.36758e-12
-1.6686e-11
4.33431e-12
-1.70972e-11
3.24517e-12
-1.73903e-11
2.11445e-12
-1.75616e-11
9.55872e-13
-1.76085e-11
-2.18156e-13
-1.75316e-11
-1.38868e-12
-1.73329e-11
-2.54338e-12
-1.70151e-11
-3.66728e-12
-1.6583e-11
-4.74641e-12
-1.60433e-11
-5.76777e-12
-1.54022e-11
-6.71925e-12
-1.46691e-11
-7.58977e-12
-1.38518e-11
-8.37242e-12
-1.29605e-11
-9.05948e-12
-1.20051e-11
-9.64693e-12
-1.09967e-11
-1.0131e-11
-9.94645e-12
-1.05112e-11
-8.86599e-12
-1.07862e-11
-7.76606e-12
-1.09603e-11
-6.65732e-12
-1.10361e-11
-5.54975e-12
-1.10189e-11
-4.45173e-12
-1.09198e-11
-3.37138e-12
-1.07447e-11
-2.31498e-12
-1.05052e-11
-1.28879e-12
-1.02124e-11
-2.96461e-13
-9.87812e-12
6.59893e-13
-9.51688e-12
1.58013e-12
-9.13894e-12
2.46466e-12
-8.75349e-12
3.31496e-12
-8.36782e-12
4.13254e-12
-7.98291e-12
4.92024e-12
-7.61016e-12
5.68047e-12
-7.24686e-12
6.41489e-12
-6.89299e-12
7.1244e-12
-6.54441e-12
7.80901e-12
-6.19605e-12
8.47054e-12
-5.84112e-12
9.10549e-12
-5.46806e-12
9.71087e-12
-5.07388e-12
1.02843e-11
-4.64493e-12
1.08195e-11
-4.17275e-12
1.13126e-11
-3.6501e-12
1.17548e-11
-3.06904e-12
1.21402e-11
-2.42628e-12
1.24599e-11
-1.71815e-12
1.27075e-11
-9.44551e-13
1.28737e-11
-1.03976e-13
1.29505e-11
8.01817e-13
1.29319e-11
1.76669e-12
1.2812e-11
2.783e-12
1.25858e-11
3.84087e-12
1.22472e-11
4.93488e-12
1.17913e-11
6.0575e-12
1.12154e-11
7.19845e-12
1.05186e-11
8.34762e-12
9.69976e-12
9.49663e-12
8.75937e-12
1.06367e-11
7.69896e-12
1.17605e-11
6.5206e-12
1.28617e-11
5.22678e-12
1.39361e-11
3.82047e-12
1.49803e-11
2.3042e-12
1.59922e-11
6.80445e-13
1.69731e-11
-1.04835e-12
1.79238e-11
-2.87841e-12
1.88456e-11
-4.81513e-12
1.97476e-11
-6.85022e-12
2.06251e-11
-8.99021e-12
2.14948e-11
-1.12334e-11
2.23589e-11
-1.35808e-11
2.32218e-11
-1.60347e-11
2.40853e-11
-1.86003e-11
2.49578e-11
-2.12823e-11
2.58327e-11
-2.40845e-11
2.67051e-11
-2.70099e-11
2.75651e-11
-3.00617e-11
2.83969e-11
-3.32383e-11
2.91722e-11
-3.65382e-11
2.98592e-11
-3.99537e-11
3.03882e-11
-4.34607e-11
3.06834e-11
-4.70047e-11
3.03831e-11
-5.04087e-11
2.86281e-11
-5.31724e-11
2.27279e-11
9.163e-12
-5.43098e-11
-7.46403e-13
7.75814e-12
-1.82847e-12
1.14709e-11
-3.01011e-12
1.25698e-11
-4.22083e-12
1.28023e-11
-5.43293e-12
1.2749e-11
-6.637e-12
1.25658e-11
-7.82602e-12
1.23033e-11
-8.99284e-12
1.19673e-11
-1.01296e-11
1.15508e-11
-1.12277e-11
1.10469e-11
-1.22771e-11
1.04495e-11
-1.32667e-11
9.75415e-12
-1.41861e-11
8.95911e-12
-1.5025e-11
8.06692e-12
-1.57731e-11
7.08266e-12
-1.64205e-11
6.0146e-12
-1.6959e-11
4.87241e-12
-1.73811e-11
3.66682e-12
-1.7681e-11
2.41404e-12
-1.78555e-11
1.13e-12
-1.79019e-11
-1.72119e-13
-1.78207e-11
-1.47016e-12
-1.76139e-11
-2.75054e-12
-1.7285e-11
-3.99653e-12
-1.68383e-11
-5.19345e-12
-1.62812e-11
-6.32516e-12
-1.56208e-11
-7.38008e-12
-1.48655e-11
-8.34543e-12
-1.40248e-11
-9.21341e-12
-1.31082e-11
-9.97643e-12
-1.2127e-11
-1.06285e-11
-1.10921e-11
-1.11664e-11
-1.00155e-11
-1.15882e-11
-8.90961e-12
-1.18925e-11
-7.78535e-12
-1.2085e-11
-6.65387e-12
-1.2168e-11
-5.52547e-12
-1.21476e-11
-4.40937e-12
-1.20362e-11
-3.31361e-12
-1.18408e-11
-2.24443e-12
-1.15747e-11
-1.20802e-12
-1.12491e-11
-2.10322e-13
-1.08761e-11
7.51929e-13
-1.04795e-11
1.67625e-12
-1.00637e-11
2.56122e-12
-9.63901e-12
3.41018e-12
-9.21742e-12
4.22589e-12
-8.79936e-12
5.0113e-12
-8.39636e-12
5.76916e-12
-8.00553e-12
6.5019e-12
-7.62655e-12
7.21137e-12
-7.2547e-12
7.89811e-12
-6.88361e-12
8.56211e-12
-6.50595e-12
9.20273e-12
-6.1095e-12
9.81623e-12
-5.68823e-12
1.04001e-11
-5.22963e-12
1.09481e-11
-4.72166e-12
1.14545e-11
-4.15735e-12
1.19121e-11
-3.52753e-12
1.23137e-11
-2.82859e-12
1.26505e-11
-2.05575e-12
1.29141e-11
-1.20878e-12
1.30962e-11
-2.86671e-13
1.31905e-11
7.06906e-13
1.31877e-11
1.76894e-12
1.30804e-11
2.88965e-12
1.2863e-11
4.05781e-12
1.25302e-11
5.26715e-12
1.20782e-11
6.50895e-12
1.1504e-11
7.77193e-12
1.08067e-11
9.04426e-12
9.98559e-12
1.03169e-11
9.04142e-12
1.158e-11
7.97572e-12
1.28253e-11
6.79087e-12