/*--------------------------------*- C++ -*----------------------------------*\
| =========                 |                                                 |
| \\      /  F ield         | OpenFOAM: The Open Source CFD Toolbox           |
|  \\    /   O peration     | Version:  2.4.0                                 |
|   \\  /    A nd           | Web:      www.OpenFOAM.org                      |
|    \\/     M anipulation  |                                                 |
\*---------------------------------------------------------------------------*/
FoamFile
{
    version     2.0;
    format      ascii;
    class       volScalarField;
    location    "0.385";
    object      p_rgh;
}
// * * * * * * * * * * * * * * * * * * * * * * * * * * * * * * * * * * * * * //

dimensions      [1 -1 -2 0 0 0 0];

internalField   nonuniform List<scalar> 
10000
(
0.00225806
0.00225719
0.00225643
0.00225618
0.00225666
0.00225792
0.00225995
0.00226271
0.0022661
0.00227003
0.00227443
0.00227919
0.00228423
0.00228947
0.00229483
0.00230026
0.00230567
0.00231101
0.00231621
0.00232121
0.00232595
0.00233038
0.00233447
0.00233821
0.0023416
0.00234469
0.00234755
0.00235029
0.00235303
0.00235592
0.00235909
0.00236267
0.00236676
0.0023714
0.00237662
0.00238242
0.00238883
0.00239586
0.00240356
0.00241196
0.00242107
0.00243085
0.00244122
0.00245211
0.00246339
0.00247496
0.00248673
0.0024986
0.00251051
0.00252242
0.00225893
0.00225807
0.00225743
0.00225733
0.00225787
0.0022591
0.00226101
0.00226355
0.00226669
0.00227033
0.00227441
0.00227885
0.00228357
0.00228852
0.00229361
0.00229878
0.00230398
0.00230913
0.00231419
0.00231911
0.00232382
0.0023283
0.00233252
0.00233647
0.00234017
0.00234365
0.00234697
0.00235023
0.00235351
0.00235693
0.0023606
0.00236462
0.00236905
0.00237394
0.00237931
0.00238517
0.00239155
0.00239847
0.00240599
0.00241415
0.00242295
0.00243238
0.00244238
0.00245289
0.00246382
0.00247508
0.00248657
0.00249822
0.00250997
0.00252175
0.00225971
0.00225871
0.00225807
0.00225804
0.00225861
0.0022598
0.0022616
0.00226398
0.00226689
0.00227028
0.00227409
0.00227826
0.00228272
0.0022874
0.00229226
0.00229722
0.00230224
0.00230725
0.00231221
0.00231707
0.00232179
0.00232634
0.00233069
0.00233486
0.00233884
0.00234268
0.00234642
0.00235013
0.0023539
0.00235781
0.00236193
0.00236634
0.0023711
0.00237622
0.00238173
0.00238763
0.00239395
0.00240072
0.00240802
0.0024159
0.0024244
0.00243349
0.00244316
0.00245335
0.00246398
0.00247497
0.00248625
0.00249772
0.00250934
0.00252103
0.00225997
0.00225883
0.00225813
0.00225809
0.00225867
0.00225983
0.00226155
0.00226381
0.00226658
0.0022698
0.00227342
0.00227739
0.00228166
0.00228617
0.00229086
0.00229568
0.00230059
0.00230552
0.00231043
0.00231528
0.00232004
0.00232467
0.00232916
0.00233351
0.00233773
0.00234186
0.00234593
0.00235
0.00235414
0.00235842
0.0023629
0.00236763
0.00237265
0.00237798
0.00238361
0.00238952
0.00239572
0.00240229
0.00240933
0.00241693
0.00242512
0.00243394
0.00244335
0.0024533
0.00246373
0.00247456
0.0024857
0.00249708
0.00250863
0.00252028
0.00225952
0.0022583
0.00225757
0.00225755
0.00225813
0.00225927
0.00226095
0.00226314
0.0022658
0.00226891
0.0022724
0.00227624
0.00228038
0.00228476
0.00228935
0.00229409
0.00229894
0.00230383
0.00230874
0.00231362
0.00231844
0.00232317
0.0023278
0.00233232
0.00233674
0.00234111
0.00234544
0.0023498
0.00235424
0.00235882
0.00236359
0.0023686
0.00237387
0.0023794
0.00238515
0.00239104
0.00239707
0.00240335
0.00241006
0.00241732
0.00242521
0.00243377
0.00244297
0.00245276
0.00246307
0.00247382
0.00248491
0.00249627
0.00250781
0.00251947
0.00225828
0.0022571
0.00225641
0.00225642
0.00225703
0.00225818
0.00225985
0.002262
0.00226461
0.00226763
0.00227104
0.0022748
0.00227885
0.00228317
0.0022877
0.0022924
0.00229723
0.00230214
0.00230708
0.00231202
0.00231693
0.00232177
0.00232653
0.00233121
0.00233582
0.00234037
0.00234492
0.00234951
0.00235419
0.00235902
0.00236405
0.00236931
0.00237483
0.0023806
0.00238651
0.00239238
0.00239815
0.002404
0.00241024
0.0024171
0.00242467
0.00243298
0.00244202
0.00245172
0.00246199
0.00247273
0.00248385
0.00249526
0.00250686
0.00251858
0.00225625
0.0022552
0.00225463
0.00225473
0.0022554
0.00225659
0.00225828
0.00226042
0.002263
0.00226599
0.00226936
0.00227307
0.00227708
0.00228137
0.00228589
0.0022906
0.00229545
0.00230041
0.00230543
0.00231046
0.00231547
0.00232044
0.00232533
0.00233016
0.00233492
0.00233964
0.00234435
0.00234912
0.00235398
0.00235901
0.00236427
0.00236977
0.00237557
0.00238167
0.00238786
0.00239373
0.00239909
0.00240427
0.00240986
0.0024162
0.00242341
0.0024315
0.00244044
0.00245012
0.00246044
0.00247128
0.00248251
0.00249404
0.00250577
0.00251761
0.0022535
0.00225265
0.00225226
0.00225249
0.00225326
0.00225452
0.00225625
0.00225842
0.00226101
0.00226399
0.00226735
0.00227105
0.00227506
0.00227936
0.0022839
0.00228866
0.00229358
0.00229863
0.00230375
0.00230891
0.00231406
0.00231916
0.0023242
0.00232915
0.00233404
0.00233887
0.0023437
0.00234857
0.00235355
0.00235871
0.00236415
0.00236987
0.00237599
0.00238261
0.00238937
0.00239536
0.00240007
0.00240416
0.00240881
0.00241449
0.00242131
0.00242923
0.00243815
0.00244792
0.0024584
0.00246944
0.00248089
0.00249264
0.00250456
0.00251657
0.00225008
0.0022495
0.00224934
0.00224974
0.00225064
0.00225199
0.00225379
0.00225601
0.00225863
0.00226164
0.00226501
0.00226873
0.00227277
0.0022771
0.00228171
0.00228655
0.00229159
0.00229677
0.00230205
0.00230736
0.00231267
0.00231793
0.00232311
0.00232818
0.00233314
0.00233801
0.00234285
0.00234773
0.0023527
0.00235786
0.00236342
0.00236924
0.00237566
0.00238314
0.00239113
0.00239757
0.00240121
0.00240346
0.00240676
0.00241168
0.00241815
0.002426
0.00243504
0.00244506
0.00245585
0.00246722
0.002479
0.00249105
0.00250326
0.00251551
0.00224609
0.00224581
0.00224591
0.00224651
0.00224756
0.00224903
0.00225092
0.00225321
0.00225588
0.00225893
0.00226234
0.0022661
0.00227019
0.0022746
0.00227929
0.00228426
0.00228945
0.00229482
0.0023003
0.00230581
0.0023113
0.00231673
0.00232203
0.00232716
0.0023321
0.00233686
0.00234155
0.00234628
0.00235107
0.00235604
0.00236168
0.00236748
0.00237392
0.00238275
0.0023935
0.00240102
0.00240257
0.00240144
0.00240284
0.00240707
0.00241343
0.00242151
0.00243096
0.00244146
0.00245275
0.00246461
0.00247685
0.00248933
0.00250189
0.00251445
0.0022416
0.00224165
0.00224204
0.00224285
0.00224406
0.00224567
0.00224766
0.00225004
0.00225278
0.00225588
0.00225935
0.00226316
0.00226731
0.00227181
0.00227662
0.00228175
0.00228714
0.00229275
0.00229847
0.00230421
0.00230989
0.00231545
0.00232081
0.00232589
0.00233068
0.00233523
0.00233969
0.00234424
0.00234876
0.00235337
0.00235906
0.00236472
0.00237105
0.00238146
0.00239812
0.00240795
0.00240514
0.00239726
0.00239584
0.00239953
0.00240625
0.00241509
0.00242546
0.00243689
0.00244902
0.00246161
0.00247449
0.00248751
0.00250053
0.00251346
0.00223671
0.00223709
0.00223776
0.00223879
0.00224019
0.00224194
0.00224404
0.00224651
0.00224932
0.00225249
0.00225601
0.00225988
0.00226411
0.0022687
0.00227365
0.00227896
0.0022846
0.0022905
0.0022965
0.00230244
0.00230826
0.00231391
0.00231928
0.0023243
0.00232896
0.00233331
0.00233764
0.00234217
0.00234636
0.00235055
0.00235694
0.00236043
0.00236882
0.00238389
0.0024068
0.00242501
0.00241395
0.00239087
0.00238455
0.00238809
0.00239599
0.00240621
0.00241805
0.00243093
0.00244439
0.00245812
0.00247192
0.00248566
0.00249923
0.0025126
0.0022315
0.00223218
0.00223314
0.0022344
0.00223596
0.00223785
0.00224008
0.00224263
0.00224553
0.00224876
0.00225233
0.00225626
0.00226055
0.00226521
0.00227028
0.00227576
0.00228165
0.00228786
0.00229416
0.0023003
0.00230628
0.00231212
0.00231764
0.00232269
0.00232732
0.00233151
0.00233577
0.00234058
0.00234415
0.00234701
0.00235834
0.00236636
0.00235525
0.00238839
0.00248058
0.00247638
0.0024305
0.00237812
0.00236445
0.00237264
0.00238413
0.00239625
0.00240959
0.00242391
0.00243878
0.0024539
0.002469
0.00248377
0.00249807
0.00251197
0.00222603
0.002227
0.00222823
0.00222969
0.00223142
0.00223345
0.00223579
0.00223844
0.0022414
0.00224469
0.0022483
0.00225226
0.00225655
0.00226122
0.0022663
0.00227186
0.00227796
0.00228455
0.00229126
0.00229777
0.00230419
0.00231052
0.00231636
0.00232154
0.00232615
0.00232977
0.00233348
0.00233891
0.00234318
0.00234747
0.00235648
0.00236788
0.00251491
0.00238146
0.00252958
0.002569
0.00246267
0.00235943
0.0023455
0.00236677
0.00237921
0.00239016
0.00240321
0.00241781
0.00243332
0.0024494
0.00246574
0.00248172
0.00249698
0.00251157
0.00222036
0.0022216
0.00222306
0.00222471
0.00222659
0.00222875
0.0022312
0.00223393
0.00223696
0.00224029
0.00224391
0.00224782
0.00225201
0.00225653
0.0022615
0.00226708
0.00227339
0.00228044
0.0022878
0.00229506
0.00230239
0.00230961
0.00231593
0.00232117
0.00232564
0.00232774
0.0023294
0.00233487
0.00234477
0.00235142
0.00237298
0.00236406
0.00233498
0.00214525
0.00335577
0.00346194
0.00258381
0.00227783
0.00239884
0.00238448
0.00238555
0.00238966
0.00240001
0.00241356
0.00242889
0.0024454
0.00246274
0.00247976
0.00249588
0.00251127
0.00221456
0.00221602
0.00221768
0.00221948
0.00222151
0.00222378
0.00222632
0.00222913
0.00223222
0.00223556
0.00223913
0.00224288
0.00224682
0.00225112
0.002256
0.00226163
0.0022682
0.00227571
0.00228384
0.00229226
0.00230116
0.00230988
0.00231685
0.00232202
0.00232608
0.0023251
0.00232329
0.00232905
0.00234419
0.00236766
0.00247294
0.00243471
0.00253843
0.00693021
0.00966343
0.00961913
0.00963058
0.00316573
0.00245593
0.00239637
0.00238657
0.00238771
0.00239612
0.00240896
0.00242437
0.00244157
0.00246036
0.00247847
0.00249501
0.00251092
0.00220866
0.00221028
0.0022121
0.00221404
0.00221618
0.00221855
0.00222118
0.00222406
0.00222719
0.00223051
0.00223394
0.00223743
0.00224115
0.00224538
0.00225034
0.00225616
0.00226297
0.00227077
0.00227959
0.00228956
0.00230083
0.0023121
0.00232035
0.00232535
0.00232913
0.0023211
0.0023143
0.00231746
0.00232684
0.00234424
0.00236252
0.0023834
0.00243283
0.00390424
0.00966846
0.00997887
0.00617481
0.00238767
0.00238825
0.00237923
0.00237244
0.00237745
0.00238739
0.00240154
0.00241773
0.00243629
0.00245824
0.00247825
0.00249468
0.00251054
0.0022027
0.00220443
0.00220636
0.00220839
0.00221062
0.00221308
0.00221579
0.00221873
0.00222189
0.00222515
0.00222839
0.0022317
0.00223541
0.00223985
0.00224517
0.00225137
0.00225851
0.0022666
0.00227618
0.00228788
0.00230194
0.00231738
0.00232869
0.002334
0.0023454
0.00233297
0.00229459
0.0023186
0.00232435
0.0023283
0.00234685
0.00232344
0.0023658
0.00227134
0.00335966
0.00353106
0.00259877
0.00243035
0.00236017
0.00235064
0.00235356
0.00236358
0.0023754
0.0023903
0.00240661
0.00242685
0.00245559
0.00247957
0.002495
0.00251014
0.00219668
0.00219846
0.00220044
0.00220254
0.00220484
0.00220737
0.00221015
0.00221316
0.00221634
0.00221952
0.00222265
0.00222597
0.00222994
0.00223485
0.0022408
0.00224766
0.00225565
0.00226499
0.00227601
0.00228917
0.00230543
0.00232767
0.00234248
0.00235316
0.00233492
0.00236842
0.00329977
0.00232286
0.0023222
0.00231779
0.00232771
0.00232144
0.00229786
0.00234738
0.00240192
0.00239327
0.00233916
0.00228904
0.00230435
0.00232568
0.00234778
0.00235875
0.00236285
0.0023724
0.0023892
0.00241169
0.00245469
0.00248578
0.00249722
0.00250971
0.0021906
0.00219237
0.00219436
0.00219648
0.00219882
0.00220142
0.00220427
0.00220735
0.00221056
0.00221372
0.00221688
0.00222042
0.0022248
0.00223031
0.00223697
0.00224467
0.00225407
0.00226641
0.00228086
0.00229612
0.00231843
0.00235665
0.00238927
0.00237066
0.00236932
0.00236182
0.00247052
0.00236559
0.00231805
0.00230674
0.00230585
0.00231701
0.00233527
0.0023518
0.0023959
0.00239229
0.0023616
0.00234385
0.00234056
0.0023507
0.00235639
0.00235205
0.00233804
0.00235952
0.00236692
0.0023895
0.00245722
0.00249997
0.0024994
0.00250492
0.00218445
0.00218614
0.00218809
0.0021902
0.00219256
0.0021952
0.00219813
0.0022013
0.00220458
0.00220781
0.00221114
0.00221503
0.00221988
0.00222591
0.00223314
0.00224131
0.00225147
0.00226724
0.00228736
0.0023056
0.00234042
0.00238136
0.00244868
0.0026713
0.00243845
0.00239311
0.00241554
0.00235402
0.00230448
0.0022878
0.00229066
0.00229351
0.00231015
0.00233258
0.00234762
0.00235529
0.00234741
0.00233717
0.00233332
0.00233539
0.00234178
0.00236446
0.00290916
0.0023507
0.00231816
0.00234137
0.00249348
0.00255174
0.00250516
0.00250036
0.00217818
0.00217974
0.00218158
0.00218365
0.00218601
0.0021887
0.0021917
0.00219498
0.00219838
0.00220179
0.00220541
0.00220969
0.00221499
0.00222141
0.00222904
0.00223701
0.0022471
0.00226528
0.00229442
0.00228884
0.00224352
0.00319781
0.00251275
0.00252913
0.00257594
0.00246227
0.00237455
0.00241539
0.00222427
0.00225906
0.00227013
0.00227585
0.0022871
0.00229671
0.00231732
0.00232876
0.00233995
0.00234194
0.00234432
0.00235259
0.00235312
0.00236914
0.00241007
0.00235358
0.00228268
0.00231191
0.00288527
0.00290387
0.00266801
0.00257945
0.00217173
0.00217311
0.00217481
0.00217681
0.00217915
0.00218187
0.00218495
0.00218835
0.00219193
0.00219559
0.00219957
0.00220426
0.00220997
0.00221678
0.0022248
0.00223281
0.00224436
0.00226712
0.00228377
0.00232044
0.00252984
0.00239592
0.00251036
0.00292175
0.00700265
0.00819015
0.00434827
0.00204302
0.00219613
0.00224728
0.00225287
0.00225443
0.00226747
0.00228472
0.00230702
0.00233238
0.00235538
0.00237062
0.00237666
0.00237286
0.00238062
0.00237922
0.00239056
0.00240675
0.00237902
0.00356807
0.00824802
0.00743489
0.00317418
0.00254069
0.00216503
0.00216618
0.0021677
0.0021696
0.00217192
0.00217466
0.00217782
0.00218136
0.00218515
0.00218913
0.00219348
0.00219858
0.00220469
0.00221195
0.00222026
0.00222884
0.00224505
0.00225691
0.00227874
0.0029892
0.00235812
0.00248621
0.00243589
0.00905801
0.0106249
0.011069
0.0106789
0.00358132
0.00229108
0.00234648
0.00282825
0.00222057
0.00225806
0.00228184
0.00229727
0.0023234
0.00234511
0.00236217
0.00238657
0.00242595
0.002437
0.00241679
0.00240837
0.00248094
0.00268426
0.00630812
0.00822786
0.00846275
0.00747545
0.00283846
0.00215797
0.00215887
0.0021602
0.00216199
0.00216425
0.002167
0.00217024
0.00217392
0.00217795
0.00218227
0.00218701
0.00219251
0.00219903
0.00220672
0.00221558
0.00222764
0.00223946
0.00225858
0.00243342
0.00227755
0.00231576
0.00238283
0.00239247
0.0112577
0.0108762
0.011041
0.0112136
0.0043238
0.00226455
0.00223964
0.00220296
0.0022358
0.0022611
0.00228172
0.00230156
0.00232364
0.00235301
0.00238415
0.00239979
0.00265991
0.00297859
0.00247574
0.00240328
0.00243317
0.00246482
0.00295402
0.00803688
0.00736041
0.00301008
0.0025032
0.00215048
0.00215111
0.00215223
0.00215389
0.00215609
0.00215884
0.00216214
0.00216596
0.00217023
0.00217488
0.00218001
0.00218589
0.00219279
0.00220087
0.00221158
0.00222262
0.00223858
0.00230114
0.00225806
0.00227329
0.00232246
0.00235853
0.00233195
0.00854798
0.0105425
0.0111122
0.0106216
0.00358631
0.002215
0.00225845
0.00227367
0.00227513
0.00226497
0.00227962
0.00229696
0.00231854
0.00234017
0.00236275
0.00238354
0.00238167
0.00234546
0.00238761
0.00238722
0.00240098
0.00237824
0.00244332
0.00273097
0.00275179
0.00265685
0.00247396
0.00214245
0.00214282
0.00214371
0.00214524
0.00214738
0.00215012
0.00215346
0.0021574
0.00216188
0.00216684
0.00217233
0.00217855
0.00218575
0.00219464
0.00220514
0.00221717
0.00224851
0.00224208
0.0022593
0.00231064
0.0023406
0.00238073
0.00245406
0.00299928
0.00713716
0.00858743
0.00401774
0.00200072
0.00215486
0.00221866
0.00225975
0.00229732
0.00230959
0.00251115
0.00229104
0.00231468
0.00233454
0.00235869
0.00237843
0.00238096
0.00237986
0.00238926
0.00238639
0.00235402
0.002416
0.00244918
0.00252964
0.00253359
0.00246423
0.0024864
0.00213379
0.0021339
0.00213459
0.00213599
0.00213805
0.00214078
0.00214415
0.00214817
0.00215282
0.00215805
0.00216385
0.00217037
0.00217787
0.00218678
0.00219713
0.00221065
0.00222251
0.00223815
0.00225787
0.00228393
0.0028848
0.00238664
0.002439
0.00252485
0.00250693
0.00237898
0.00235042
0.00222517
0.00220138
0.00223437
0.00226493
0.00271027
0.00228825
0.0023179
0.00230016
0.00232001
0.00233331
0.00235472
0.00253857
0.00239473
0.00239192
0.00237589
0.00234093
0.00225651
0.0024052
0.00248468
0.00252498
0.00253252
0.00252256
0.00252976
0.00212441
0.00212429
0.0021248
0.00212607
0.00212806
0.00213076
0.00213414
0.00213823
0.002143
0.00214843
0.00215449
0.00216125
0.00216891
0.00217776
0.00218806
0.00220023
0.00221529
0.00223098
0.00224843
0.00230748
0.0023065
0.00234451
0.00239483
0.00246455
0.00241415
0.00238949
0.00231372
0.00226006
0.002239
0.00224681
0.00227369
0.00223276
0.00263683
0.00232578
0.00232152
0.00233129
0.00235714
0.00247016
0.00242933
0.00240737
0.00242543
0.00241183
0.00244623
0.00209962
0.00248021
0.00253759
0.00249981
0.00252019
0.00248516
0.00250073
0.00211424
0.00211393
0.00211427
0.00211544
0.00211737
0.00212003
0.00212341
0.00212753
0.00213237
0.00213794
0.00214419
0.00215115
0.00215891
0.00216766
0.00217767
0.00218976
0.00220393
0.00221834
0.00223735
0.00226857
0.0022719
0.00229869
0.00232117
0.00260696
0.00233579
0.00248715
0.00228792
0.00227331
0.00227881
0.00224632
0.00225596
0.0022535
0.00227013
0.00230452
0.00232315
0.00233913
0.00235748
0.00237302
0.00241051
0.00246302
0.00253751
0.00314548
0.00970087
0.0155882
0.00822942
0.00300917
0.0024648
0.0024682
0.00247732
0.00247822
0.00210323
0.00210277
0.00210298
0.00210406
0.00210593
0.00210856
0.00211193
0.00211606
0.00212094
0.00212658
0.00213295
0.00214005
0.00214789
0.00215659
0.00216633
0.00217745
0.00219071
0.00220588
0.00222922
0.0022409
0.00225786
0.00226363
0.00238666
0.00226612
0.00225885
0.00225908
0.00226387
0.0022582
0.002233
0.00224302
0.00225208
0.00225971
0.0022751
0.00229712
0.0023169
0.0023362
0.0023574
0.00238159
0.00240996
0.002447
0.00251127
0.0125207
0.0176842
0.0186918
0.0175415
0.0101718
0.00255309
0.00246017
0.00245916
0.00247988
0.00209133
0.00209077
0.00209089
0.0020919
0.00209372
0.00209632
0.00209969
0.00210382
0.00210871
0.00211436
0.00212078
0.00212795
0.00213586
0.00214452
0.00215401
0.00216451
0.00217655
0.00219019
0.00220534
0.00222618
0.00222302
0.00223323
0.00223691
0.00223679
0.00225174
0.00225808
0.00224882
0.00223668
0.00223436
0.00224006
0.00224835
0.00225849
0.00227401
0.00229248
0.00231263
0.00233351
0.0023549
0.00237649
0.00239474
0.00238839
0.00211745
0.0156562
0.0186189
0.0186836
0.0187696
0.0133288
0.00215575
0.00234528
0.00240684
0.00242275
0.00207854
0.00207791
0.00207798
0.00207894
0.00208074
0.00208332
0.00208667
0.00209079
0.00209567
0.00210132
0.00210774
0.00211491
0.00212283
0.00213145
0.00214077
0.00215085
0.00216196
0.00217418
0.00218573
0.00219503
0.0022034
0.00221253
0.0022173
0.00222296
0.00223012
0.0022238
0.00221799
0.00222337
0.00222862
0.00223496
0.00224349
0.0022545
0.00226918
0.00228748
0.0023084
0.00233231
0.00236129
0.00240063
0.00245165
0.00254603
0.00286632
0.0155311
0.0180562
0.0184777
0.0182816
0.0144425
0.00273572
0.00241432
0.00244659
0.00262082
0.00206484
0.00206419
0.00206423
0.00206518
0.00206696
0.00206953
0.00207288
0.00207699
0.00208186
0.0020875
0.00209388
0.00210101
0.00210887
0.00211742
0.00212662
0.00213642
0.00214683
0.00215761
0.00216799
0.00217787
0.00218613
0.00219404
0.00219872
0.00220311
0.00220753
0.0022092
0.00221167
0.00221401
0.0022191
0.00222655
0.00223576
0.00224714
0.00226148
0.00227904
0.00229975
0.0023236
0.00235119
0.00239152
0.00245547
0.00253379
0.00265737
0.0047759
0.0166076
0.0189361
0.0163703
0.00460618
0.00222893
0.00234687
0.00242153
0.00242153
0.00205023
0.0020496
0.00204966
0.00205061
0.0020524
0.00205497
0.00205832
0.00206243
0.00206729
0.0020729
0.00207925
0.00208631
0.00209408
0.00210251
0.00211155
0.00212112
0.00213111
0.00214129
0.00215134
0.00216048
0.00216868
0.00217599
0.00218183
0.00218683
0.00219267
0.0021974
0.00220008
0.0022034
0.00220861
0.0022159
0.00222513
0.00223646
0.00225026
0.00226686
0.00228657
0.00230841
0.00233358
0.00237302
0.00268014
0.00244664
0.0024657
0.00238933
0.00271722
0.00216193
0.00261887
0.00226006
0.00227716
0.00234286
0.00247212
0.0024201
0.00203473
0.00203415
0.00203425
0.00203524
0.00203705
0.00203964
0.002043
0.00204711
0.00205198
0.00205757
0.00206388
0.00207089
0.00207854
0.00208681
0.00209563
0.00210491
0.00211452
0.00212427
0.00213384
0.00214294
0.0021515
0.00215918
0.00216593
0.00217227
0.00217794
0.00218275
0.00218708
0.0021915
0.0021969
0.00220383
0.00221255
0.00222338
0.00223631
0.00225143
0.00226991
0.00229134
0.00232114
0.00235929
0.00235654
0.00239753
0.0023944
0.00237341
0.00236614
0.00226517
0.00235577
0.00235746
0.00235475
0.00236249
0.00239349
0.00241546
0.00201837
0.00201787
0.00201803
0.00201907
0.00202092
0.00202354
0.00202693
0.00203106
0.00203594
0.00204153
0.00204782
0.00205477
0.00206233
0.00207044
0.00207902
0.00208798
0.00209719
0.00210648
0.00211563
0.00212445
0.00213277
0.00214045
0.00214735
0.00215383
0.00215993
0.00216585
0.00217174
0.00217782
0.00218447
0.00219198
0.00220034
0.00220987
0.00222109
0.00223474
0.00225136
0.00227167
0.0022929
0.00231031
0.00232817
0.00234599
0.00235071
0.0023543
0.00234145
0.00228988
0.0023251
0.00234918
0.00236733
0.00236867
0.00238729
0.00241035
0.00200117
0.00200076
0.00200101
0.00200211
0.00200401
0.00200668
0.00201011
0.00201429
0.00201919
0.0020248
0.00203109
0.00203801
0.00204549
0.00205347
0.00206187
0.00207061
0.00207956
0.00208859
0.0020975
0.0021061
0.00211422
0.00212177
0.00212868
0.00213497
0.00214085
0.00214633
0.00215157
0.00215717
0.0021639
0.00217223
0.00218193
0.00219326
0.00220536
0.00221878
0.00223382
0.00225061
0.00226829
0.00228566
0.0023027
0.00231768
0.00232767
0.00233276
0.00233258
0.00231694
0.00232494
0.00257321
0.00237983
0.00237248
0.0023913
0.00241312
0.00198315
0.00198285
0.0019832
0.00198438
0.00198635
0.00198908
0.00199257
0.0019968
0.00200175
0.0020074
0.0020137
0.00202061
0.00202804
0.00203594
0.00204424
0.00205289
0.00206175
0.0020707
0.00207957
0.00208816
0.00209631
0.00210389
0.00211079
0.00211702
0.00212263
0.00212769
0.00213237
0.00213715
0.00214287
0.00215003
0.00215764
0.00216745
0.002179
0.00219383
0.00221172
0.0022306
0.00224854
0.00226492
0.0022802
0.0022947
0.00230579
0.00231378
0.0023182
0.00231461
0.00231978
0.00232749
0.00234919
0.00238143
0.00240116
0.00242067
0.00196435
0.00196416
0.00196461
0.00196588
0.00196793
0.00197073
0.00197429
0.00197859
0.00198361
0.00198932
0.00199566
0.00200257
0.00200998
0.00201786
0.00202618
0.00203485
0.00204379
0.00205284
0.00206183
0.00207057
0.00207888
0.00208658
0.00209353
0.00209966
0.00210496
0.00210949
0.0021133
0.00211697
0.00212183
0.0021288
0.00213469
0.00214356
0.00215192
0.00216403
0.00218014
0.00219995
0.00222191
0.00224369
0.00226225
0.00227734
0.00228945
0.00229953
0.00230756
0.00231258
0.00232186
0.002333
0.00235302
0.00237643
0.0023961
0.00241408
0.00194479
0.00194471
0.00194526
0.00194662
0.00194875
0.00195165
0.00195529
0.00195968
0.00196478
0.00197056
0.00197696
0.00198389
0.00199133
0.00199927
0.0020077
0.00201654
0.00202568
0.00203498
0.00204424
0.00205328
0.00206186
0.00206978
0.00207683
0.00208284
0.00208776
0.00209152
0.00209393
0.0020961
0.00210045
0.002108
0.00211002
0.00211942
0.00212353
0.00213368
0.00214994
0.00217014
0.00219187
0.00221383
0.00223637
0.00225809
0.00227592
0.00228876
0.00229876
0.00230788
0.00232023
0.00233554
0.00235437
0.00237526
0.00239358
0.0024163
0.00192448
0.0019245
0.00192515
0.0019266
0.00192883
0.00193182
0.00193556
0.00194004
0.00194524
0.00195111
0.00195757
0.00196455
0.00197208
0.00198018
0.00198883
0.00199795
0.00200744
0.00201711
0.0020268
0.00203627
0.00204528
0.00205354
0.00206077
0.0020667
0.00207112
0.0020737
0.00207384
0.00207376
0.0020794
0.00209263
0.00208295
0.00209783
0.00209378
0.00209924
0.00211658
0.00213983
0.00216434
0.00218841
0.00221143
0.00223289
0.00225364
0.00227361
0.00229033
0.0023031
0.00231622
0.00233201
0.00235107
0.0023714
0.00238927
0.00241038
0.00190344
0.00190355
0.0019043
0.00190584
0.00190816
0.00191124
0.00191509
0.00191968
0.00192499
0.00193095
0.00193748
0.00194456
0.00195226
0.00196059
0.00196956
0.00197908
0.00198903
0.00199922
0.00200948
0.00201955
0.00202916
0.00203797
0.00204556
0.00205151
0.00205533
0.0020561
0.00205247
0.00204803
0.00205304
0.00208772
0.00208509
0.00208546
0.00205203
0.00205084
0.00207627
0.00210746
0.00213712
0.00216454
0.00218972
0.00221277
0.00223409
0.00225403
0.00227369
0.00229341
0.00231166
0.00232964
0.00234981
0.00237157
0.00238625
0.00240971
0.00188167
0.00188186
0.00188269
0.00188432
0.00188673
0.00188991
0.00189387
0.00189858
0.001904
0.00191005
0.00191667
0.0019239
0.00193183
0.0019405
0.00194987
0.00195988
0.00197039
0.00198123
0.00199222
0.00200311
0.00201358
0.00202325
0.00203158
0.00203792
0.00204134
0.00204009
0.00203115
0.00201327
0.00204254
0.00207658
0.00209837
0.00209468
0.00198108
0.00198573
0.00202836
0.00207304
0.00211066
0.0021426
0.00217035
0.00219497
0.00221736
0.00223818
0.00225808
0.00227778
0.00229849
0.0023199
0.00234003
0.00235939
0.00238217
0.00241287
0.00185918
0.00185943
0.00186033
0.00186204
0.00186453
0.00186782
0.00187188
0.00187671
0.00188224
0.00188838
0.00189512
0.00190256
0.0019108
0.00191984
0.00192968
0.00194024
0.00195141
0.00196303
0.00197492
0.00198685
0.00199853
0.00200954
0.00201932
0.00202702
0.00203124
0.00202923
0.00201691
0.00198857
0.00192142
0.00407622
0.00610279
0.00480991
0.00200397
0.00187713
0.00197697
0.00204237
0.00208727
0.00212388
0.00215386
0.0021795
0.00220254
0.00222386
0.00224406
0.00226378
0.00228382
0.002305
0.0023279
0.00235027
0.00236856
0.00238793
0.00183595
0.00183625
0.00183721
0.00183899
0.00184156
0.00184494
0.00184911
0.00185406
0.00185969
0.00186592
0.00187282
0.00188052
0.00188909
0.00189855
0.00190888
0.00192004
0.00193191
0.00194439
0.00195733
0.00197054
0.00198379
0.00199678
0.00200905
0.00201991
0.00202828
0.00203332
0.00203069
0.00199294
0.00424729
0.0121788
0.0133138
0.0125791
0.0060176
0.00188208
0.00196585
0.00202904
0.00207533
0.00211145
0.00214127
0.00216656
0.00218937
0.00221063
0.00223071
0.00225017
0.00226975
0.0022901
0.00231199
0.00233701
0.00236165
0.00238259
0.00181199
0.00181232
0.00181332
0.00181515
0.0018178
0.00182127
0.00182554
0.00183059
0.00183631
0.00184265
0.00184974
0.00185772
0.00186666
0.00187654
0.00188736
0.00189909
0.00191167
0.00192502
0.00193905
0.00195365
0.00196871
0.00198407
0.00199941
0.00201396
0.00202565
0.00203123
0.00203665
0.00206298
0.01187
0.0131233
0.0130775
0.0132857
0.0117419
0.00195221
0.00197389
0.00202429
0.00206892
0.00210391
0.00213223
0.00215569
0.00217728
0.00219793
0.00221746
0.0022363
0.00225523
0.00227486
0.00229562
0.0023178
0.00234324
0.00236285
0.00178726
0.0017876
0.00178864
0.00179052
0.00179323
0.00179678
0.00180114
0.00180628
0.00181208
0.00181855
0.00182585
0.00183412
0.00184341
0.00185369
0.00186497
0.00187722
0.00189043
0.00190456
0.0019196
0.00193556
0.00195251
0.0019706
0.00199009
0.0020114
0.00203359
0.00206197
0.00209951
0.00209947
0.00545696
0.0114829
0.0129799
0.012247
0.00733615
0.00206381
0.00204129
0.00206036
0.00208188
0.00210712
0.00212897
0.00214717
0.00216567
0.00218508
0.00220373
0.00222173
0.00223971
0.00225849
0.00227865
0.00230043
0.00232398
0.00235062
0.00176175
0.0017621
0.00176315
0.00176507
0.00176784
0.00177146
0.0017759
0.00178112
0.001787
0.0017936
0.00180111
0.00180967
0.00181928
0.00182991
0.00184157
0.00185424
0.00186794
0.00188268
0.0018985
0.00191552
0.00193399
0.00195435
0.0019773
0.00200375
0.00203987
0.0020749
0.00213133
0.0022505
0.00261767
0.00561573
0.0121937
0.00756415
0.00268484
0.00211379
0.00207678
0.00208029
0.00208946
0.00211506
0.00213514
0.00214151
0.00215381
0.002171
0.0021892
0.00220662
0.00222351
0.00224104
0.00226073
0.00228368
0.00231113
0.0023414
0.00173543
0.00173578
0.00173685
0.0017388
0.00174161
0.00174529
0.0017498
0.00175507
0.00176104
0.00176778
0.0017755
0.00178431
0.00179419
0.0018051
0.00181704
0.00183
0.00184403
0.00185915
0.00187545
0.0018931
0.00191243
0.00193389
0.00195834
0.00198668
0.00201896
0.00207608
0.00211737
0.00220537
0.00231848
0.00228105
0.00209596
0.00214547
0.00223881
0.00213959
0.00209596
0.00208936
0.00209058
0.00212126
0.00216748
0.00213061
0.00213909
0.0021562
0.00217688
0.00219424
0.00220856
0.00222333
0.00224066
0.00226348
0.00229563
0.00233277
0.00253428
0.0025461
0.00255787
0.0025696
0.00258132
0.00259302
0.00260474
0.00261646
0.00262817
0.00263985
0.00265143
0.00266284
0.00267401
0.00268484
0.00269526
0.00270522
0.00271473
0.00272386
0.00273268
0.00274131
0.00274983
0.00275829
0.00276673
0.00277521
0.00278381
0.00279255
0.00280138
0.00281024
0.00281901
0.00282762
0.002836
0.00284413
0.00285199
0.0028596
0.00286696
0.00287411
0.00288105
0.00288779
0.0028943
0.00290057
0.00290655
0.00291218
0.00291737
0.00292203
0.00292604
0.00292926
0.00293159
0.0029329
0.00293319
0.00293276
0.00253354
0.00254532
0.00255706
0.00256878
0.00258046
0.00259212
0.00260376
0.00261536
0.00262691
0.00263839
0.00264973
0.00266089
0.0026718
0.00268241
0.00269265
0.00270253
0.00271204
0.00272125
0.00273025
0.00273914
0.00274799
0.00275682
0.00276566
0.00277456
0.00278355
0.00279266
0.00280182
0.00281097
0.00282001
0.00282886
0.00283747
0.00284579
0.00285381
0.00286154
0.00286899
0.00287615
0.00288305
0.00288968
0.00289604
0.00290209
0.0029078
0.00291313
0.002918
0.00292234
0.00292605
0.00292903
0.0029312
0.00293245
0.00293275
0.00293232
0.00253276
0.0025445
0.00255623
0.00256792
0.00257958
0.00259119
0.00260275
0.00261425
0.00262566
0.00263695
0.00264809
0.00265903
0.00266972
0.00268012
0.00269019
0.00269994
0.00270941
0.00271864
0.00272776
0.00273686
0.00274602
0.00275522
0.00276447
0.00277377
0.00278319
0.00279272
0.00280229
0.00281181
0.00282119
0.00283035
0.00283921
0.00284775
0.00285595
0.00286381
0.00287132
0.0028785
0.00288536
0.00289189
0.00289809
0.00290394
0.00290942
0.00291449
0.00291908
0.00292315
0.00292662
0.00292942
0.00293148
0.0029327
0.002933
0.00293258
0.00253199
0.00254372
0.00255544
0.00256712
0.00257875
0.00259033
0.00260183
0.00261324
0.00262454
0.00263571
0.0026467
0.00265748
0.002668
0.00267823
0.00268814
0.00269775
0.00270709
0.00271625
0.00272538
0.00273462
0.00274407
0.00275362
0.00276323
0.00277289
0.00278272
0.0027927
0.00280275
0.00281273
0.00282252
0.00283203
0.00284119