/*--------------------------------*- C++ -*----------------------------------*\
| =========                 |                                                 |
| \\      /  F ield         | OpenFOAM: The Open Source CFD Toolbox           |
|  \\    /   O peration     | Version:  2.4.0                                 |
|   \\  /    A nd           | Web:      www.OpenFOAM.org                      |
|    \\/     M anipulation  |                                                 |
\*---------------------------------------------------------------------------*/
FoamFile
{
    version     2.0;
    format      ascii;
    class       surfaceScalarField;
    location    "0.016";
    object      phiAlpha;
}
// * * * * * * * * * * * * * * * * * * * * * * * * * * * * * * * * * * * * * //

dimensions      [0 3 -1 0 0 0 0];

internalField   nonuniform List<scalar> 
7080
(
-1.84152e-09
1.84152e-09
-4.28986e-09
2.44836e-09
-7.98527e-09
3.69539e-09
-1.35493e-08
5.5641e-09
-2.1583e-08
8.03367e-09
-3.26703e-08
1.10872e-08
-4.73691e-08
1.46988e-08
-6.61157e-08
1.87466e-08
-8.89724e-08
2.28567e-08
-1.15605e-07
2.66322e-08
-1.4546e-07
2.98555e-08
-1.7802e-07
3.256e-08
-2.13047e-07
3.50272e-08
-2.50814e-07
3.77665e-08
-2.92282e-07
4.14682e-08
-3.39107e-07
4.6825e-08
-3.9336e-07
5.42527e-08
-4.56505e-07
6.31454e-08
-5.27554e-07
7.10492e-08
-5.99654e-07
7.20995e-08
-6.54336e-07
5.46824e-08
-6.65912e-07
1.15753e-08
-6.22558e-07
-4.33535e-08
-5.46934e-07
-7.56246e-08
-4.8292e-07
-6.40133e-08
-4.2492e-07
-5.8e-08
-3.13383e-07
-1.11537e-07
-1.05372e-07
-2.08011e-07
-1.6657e-08
-8.87145e-08
-1.63101e-08
-3.46934e-10
-2.13689e-09
3.97839e-09
-4.99289e-09
5.30441e-09
-9.33465e-09
8.03712e-09
-1.59241e-08
1.21535e-08
-2.55224e-08
1.7632e-08
-3.88925e-08
2.44573e-08
-5.67858e-08
3.25922e-08
-7.98326e-08
4.17933e-08
-1.08259e-07
5.12827e-08
-1.41827e-07
6.02008e-08
-1.79992e-07
6.80202e-08
-2.22129e-07
7.46969e-08
-2.67768e-07
8.06667e-08
-3.16829e-07
8.6827e-08
-3.69814e-07
9.44538e-08
-4.27774e-07
1.04785e-07
-4.91861e-07
1.1834e-07
-5.62102e-07
1.33386e-07
-6.35714e-07
1.44661e-07
-7.05229e-07
1.41614e-07
-7.53773e-07
1.03226e-07
-7.56296e-07
1.4099e-08
-6.97461e-07
-1.02189e-07
-5.98929e-07
-1.74157e-07
-5.20663e-07
-1.42279e-07
-4.70113e-07
-1.0855e-07
-3.46957e-07
-2.34693e-07
-6.96553e-08
-4.85314e-07
1.69584e-08
-1.75328e-07
1.05545e-09
-4.07122e-10
-2.14288e-09
6.12125e-09
-5.00839e-09
8.16996e-09
-9.36774e-09
1.23964e-08
-1.59896e-08
1.87754e-08
-2.56446e-08
2.7287e-08
-3.91086e-08
3.79213e-08
-5.71547e-08
5.06383e-08
-8.04494e-08
6.50879e-08
-1.09259e-07
8.00924e-08
-1.43384e-07
9.43255e-08
-1.823e-07
1.06936e-07
-2.25379e-07
1.17776e-07
-2.72104e-07
1.27392e-07
-3.22295e-07
1.37018e-07
-3.76322e-07
1.48481e-07
-4.35089e-07
1.63551e-07
-4.99675e-07
1.82926e-07
-5.70258e-07
2.03968e-07
-6.4468e-07
2.19084e-07
-7.17724e-07
2.14658e-07
-7.75611e-07
1.61113e-07
-7.89039e-07
2.75269e-08
-7.24882e-07
-1.66345e-07
-5.95038e-07
-3.04001e-07
-4.92121e-07
-2.45196e-07
-4.55013e-07
-1.45658e-07
-3.17616e-07
-3.7209e-07
-2.46613e-08
-7.78268e-07
5.59479e-08
-2.55937e-07
5.72718e-08
-2.68434e-10
-2.12906e-09
8.25029e-09
-4.97679e-09
1.10177e-08
-9.31029e-09
1.67299e-08
-1.5895e-08
2.53601e-08
-2.54977e-08
3.68897e-08
-3.88902e-08
5.13138e-08
-5.6846e-08
6.85941e-08
-8.00457e-08
8.82876e-08
-1.08771e-07
1.08817e-07
-1.42828e-07
1.28383e-07
-1.81688e-07
1.45796e-07
-2.24698e-07
1.60787e-07
-2.71282e-07
1.73976e-07
-3.21161e-07
1.86897e-07
-3.74606e-07
2.01925e-07
-4.32508e-07
2.21453e-07
-4.96272e-07
2.46691e-07
-5.67131e-07
2.74827e-07
-6.44809e-07
2.96762e-07
-7.27627e-07
2.97476e-07
-8.06571e-07
2.40056e-07
-8.43179e-07
6.41351e-08
-7.70824e-07
-2.387e-07
-5.71287e-07
-5.03538e-07
-4.04047e-07
-4.12436e-07
-3.78712e-07
-1.70993e-07
-2.38652e-07
-5.1215e-07
-6.68649e-08
-9.50056e-07
-1.51275e-09
-3.2129e-07
5.56259e-08
1.33086e-10
-2.10965e-09
1.03599e-08
-4.93226e-09
1.38404e-08
-9.22895e-09
2.10266e-08
-1.576e-08
3.18912e-08
-2.52862e-08
4.64159e-08
-3.85721e-08
6.45997e-08
-5.63884e-08
8.64104e-08
-7.94311e-08
1.1133e-07
-1.07995e-07
1.37382e-07
-1.41891e-07
1.62278e-07
-1.80576e-07
1.84481e-07
-2.23358e-07
2.03569e-07
-2.69582e-07
2.20199e-07
-3.1884e-07
2.36155e-07
-3.7128e-07
2.54365e-07
-4.27778e-07
2.77952e-07
-4.90167e-07
3.0908e-07
-5.61127e-07
3.45786e-07
-6.42935e-07
3.78571e-07
-7.38211e-07
3.92752e-07
-8.45322e-07
3.47167e-07
-9.19396e-07
1.38209e-07
-8.44361e-07
-3.13735e-07
-5.44569e-07
-8.03331e-07
-2.85842e-07
-6.71163e-07
-2.90265e-07
-1.6657e-07
-2.37305e-07
-5.65111e-07
-2.38562e-07
-9.48798e-07
-1.60668e-07
-3.99184e-07
-1.05689e-07
6.47226e-10
-2.08524e-09
1.24451e-08
-4.87622e-09
1.66314e-08
-9.12647e-09
2.52768e-08
-1.55899e-08
3.83546e-08
-2.50194e-08
5.58454e-08
-3.817e-08
7.77502e-08
-5.58085e-08
1.04049e-07
-7.86497e-08
1.34172e-07
-1.07006e-07
1.65738e-07
-1.40692e-07
1.95964e-07
-1.79147e-07
2.22936e-07
-2.21635e-07
2.46058e-07
-2.67406e-07
2.65969e-07
-3.15888e-07
2.84637e-07
-3.6706e-07
3.05537e-07
-4.21724e-07
3.32615e-07
-4.8206e-07
3.69417e-07
-5.52393e-07
4.16118e-07
-6.38441e-07
4.6462e-07
-7.47745e-07
5.02056e-07
-8.87876e-07
4.87298e-07
-1.01163e-06
2.61958e-07
-9.63711e-07
-3.6165e-07
-6.27548e-07
-1.13949e-06
-3.13593e-07
-9.85118e-07
-2.64405e-07
-2.15757e-07
-3.18269e-07
-5.11247e-07
-3.76198e-07
-8.90869e-07
-2.78887e-07
-4.96494e-07
-3.8473e-07
1.53431e-10
-2.05588e-09
1.4501e-08
-4.8088e-09
1.93844e-08
-9.00316e-09
2.94711e-08
-1.53851e-08
4.47366e-08
-2.46981e-08
6.51584e-08
-3.76853e-08
9.07374e-08
-5.5108e-08
1.21472e-07
-7.77042e-08
1.56768e-07
-1.05808e-07
1.93842e-07
-1.39237e-07
2.29393e-07
-1.77416e-07
2.61116e-07
-2.1956e-07
2.88202e-07
-2.64809e-07
3.11218e-07
-3.12395e-07
3.32223e-07
-3.62072e-07
3.55214e-07
-4.14479e-07
3.85023e-07
-4.71988e-07
4.26925e-07
-5.40474e-07
4.84604e-07
-6.29789e-07
5.53934e-07
-7.50257e-07
6.22524e-07
-9.15616e-07
6.52657e-07
-1.07579e-06
4.2213e-07
-1.07827e-06
-3.59162e-07
-8.5048e-07
-1.36728e-06
-5.98228e-07
-1.23737e-06
-3.05036e-07
-5.08949e-07
-2.58636e-07
-5.57646e-07
-2.73665e-07
-8.75837e-07
-2.12915e-07
-5.57243e-07
-5.96493e-07
-1.15173e-09
-2.02165e-09
1.65226e-08
-4.73016e-09
2.20929e-08
-8.85927e-09
3.36002e-08
-1.51461e-08
5.10235e-08
-2.4323e-08
7.43353e-08
-3.7119e-08
1.03533e-07
-5.42878e-08
1.3864e-07
-7.65952e-08
1.79075e-07
-1.044e-07
2.21646e-07
-1.37529e-07
2.62522e-07
-1.75389e-07
2.98976e-07
-2.17145e-07
3.29958e-07
-2.6182e-07
3.55893e-07
-3.08409e-07
3.78813e-07
-3.56361e-07
4.03166e-07
-4.0595e-07
4.34611e-07
-4.59186e-07
4.80161e-07
-5.22443e-07
5.47862e-07
-6.10225e-07
6.41716e-07
-7.37444e-07
7.49743e-07
-8.97997e-07
8.1321e-07
-1.02506e-06
5.49197e-07
-1.00704e-06
-3.77157e-07
-9.15906e-07
-1.45832e-06
-7.76505e-07
-1.37675e-06
-3.16064e-07
-9.6938e-07
-9.38992e-08
-7.79797e-07
-1.10636e-07
-8.59078e-07
-4.80696e-08
-6.19798e-07
-6.42946e-07
-1.60189e-09
-1.98262e-09
1.85052e-08
-4.64047e-09
2.47508e-08
-8.69509e-09
3.76548e-08
-1.48733e-08
5.72017e-08
-2.38948e-08
8.33568e-08
-3.64721e-08
1.16111e-07
-5.3349e-08
1.55517e-07
-7.53234e-08
2.01049e-07
-1.02784e-07
2.49107e-07
-1.35569e-07
2.95306e-07
-1.73069e-07
3.36476e-07
-2.14399e-07
3.71288e-07
-2.58468e-07
3.99962e-07
-3.04001e-07
4.24345e-07
-3.50105e-07
4.4927e-07
-3.96692e-07
4.81199e-07
-4.45558e-07
5.29027e-07
-5.02888e-07
6.05191e-07
-5.81731e-07
7.20559e-07
-6.88622e-07
8.56635e-07
-7.80825e-07
9.05413e-07
-7.93118e-07
5.61489e-07
-6.21487e-07
-5.48794e-07
-4.96856e-07
-1.58282e-06
-4.15946e-07
-1.45747e-06
-2.05818e-07
-1.17935e-06
-8.3598e-08
-9.01851e-07
-1.09216e-07
-8.33271e-07
-7.2475e-09
-7.21628e-07
-6.49551e-07
-4.98391e-10
-1.93887e-09
2.04441e-08
-4.5399e-09
2.73518e-08
-8.51094e-09
4.16258e-08
-1.45673e-08
6.3258e-08
-2.34144e-08
9.22039e-08
-3.57459e-08
1.28442e-07
-5.22924e-08
1.72064e-07
-7.38897e-08
2.22647e-07
-1.00962e-07
2.76179e-07
-1.33358e-07
3.27703e-07
-1.70459e-07
3.73577e-07
-2.11334e-07
4.12164e-07
-2.5478e-07
4.43407e-07
-2.99206e-07
4.68771e-07
-3.43216e-07
4.9328e-07
-3.85691e-07
5.23674e-07
-4.2608e-07
5.69416e-07
-4.6556e-07
6.44671e-07
-5.09733e-07
7.64732e-07
-5.61856e-07
9.08758e-07
-5.75765e-07
9.19322e-07
-4.87697e-07
4.73421e-07
-1.97267e-07
-8.39224e-07
2.80341e-08
-1.80812e-06
8.3242e-08
-1.51206e-06
5.13399e-08
-1.14601e-06
2.4862e-08
-8.73762e-07
-6.55236e-09
-8.00239e-07
-1.26894e-08
-7.14099e-07
-6.60898e-07
-3.44253e-11
-1.89051e-09
2.23346e-08
-4.42866e-09
2.989e-08
-8.30722e-09
4.55044e-08
-1.42287e-08
6.91795e-08
-2.2883e-08
1.00858e-07
-3.4942e-08
1.40501e-07
-5.11196e-08
1.88242e-07
-7.2295e-08
2.43822e-07
-9.89321e-08
3.02817e-07
-1.30898e-07
3.59668e-07
-1.67563e-07
4.10242e-07
-2.0796e-07
4.52561e-07
-2.5079e-07
4.86238e-07
-2.94147e-07
5.12128e-07
-3.36229e-07
5.35362e-07
-3.75435e-07
5.6288e-07
-4.10779e-07
6.0476e-07
-4.41843e-07
6.75735e-07
-4.63423e-07
7.86312e-07
-4.53425e-07
8.9876e-07
-3.55183e-07
8.2108e-07
-1.78994e-07
2.97232e-07
8.54751e-08
-1.10369e-06
1.9615e-07
-1.91878e-06
2.15806e-07
-1.52796e-06
2.52842e-07
-1.00704e-06
2.62644e-07
-5.82698e-07
1.73004e-07
-4.10427e-07
8.11125e-08
-3.66294e-07
-3.48419e-07
-4.45563e-10
-1.83763e-09
2.41722e-08
-4.307e-09
3.23594e-08
-8.08433e-09
4.92817e-08
-1.38582e-08
7.49534e-08
-2.23016e-08
1.09302e-07
-3.4062e-08
1.52261e-07
-4.98318e-08
2.04011e-07
-7.05403e-08
2.6453e-07
-9.6697e-08
3.28973e-07
-1.28189e-07
3.91159e-07
-1.64384e-07
4.46438e-07
-2.04284e-07
4.92461e-07
-2.46524e-07
5.28477e-07
-2.8883e-07
5.54434e-07
-3.28782e-07
5.75313e-07
-3.633e-07
5.97398e-07
-3.87788e-07
6.29248e-07
-3.95229e-07
6.83175e-07
-3.70964e-07
7.62047e-07
-2.88847e-07
8.16643e-07
-1.11553e-07
6.43787e-07
9.73645e-08
8.83141e-08
3.15075e-07
-1.3214e-06
2.89603e-07
-1.89312e-06
1.49523e-07
-6.55804e-07
5.38804e-08
-7.36335e-08
3.87079e-08
-4.54981e-15
3.97816e-08
3.1932e-15
3.99968e-08
1.97631e-15
7.53373e-16
-9.34528e-11
-1.78035e-09
2.59525e-08
-4.17516e-09
3.47543e-08
-7.84272e-09
5.29492e-08
-1.34567e-08
8.05674e-08
-2.16716e-08
1.17517e-07
-3.31078e-08
1.63697e-07
-4.84306e-08
2.19334e-07
-6.86268e-08
2.84727e-07
-9.42571e-08
3.54604e-07
-1.25232e-07
4.22134e-07
-1.60924e-07
4.8213e-07
-2.00315e-07
5.31852e-07
-2.42021e-07
5.70183e-07
-2.83422e-07
5.95835e-07
-3.21668e-07
6.1356e-07
-3.52968e-07
6.28697e-07
-3.71056e-07
6.47337e-07
-3.6585e-07
6.77969e-07
-3.17296e-07
7.13493e-07
-1.96698e-07
6.96045e-07
-1.29058e-08
4.59994e-07
2.50461e-07
-1.75053e-07
3.74043e-07
-1.44499e-06
1.52078e-07
-1.29981e-06
7.36335e-08
-2.41908e-09
-7.6127e-19
-2.87261e-14
1.36979e-15
-5.92036e-15
4.25409e-16
1.60463e-14
-4.28929e-17
9.41886e-15
4.60947e-15
-7.89295e-18
-1.7188e-09
2.76713e-08
-4.03342e-09
3.70689e-08
-7.5829e-09
5.64987e-08
-1.30248e-08
8.60093e-08
-2.09943e-08
1.25486e-07
-3.20816e-08
1.74785e-07
-4.69179e-08
2.3417e-07
-6.65557e-08
3.04364e-07
-9.16133e-08
3.79661e-07
-1.22029e-07
4.5255e-07
-1.57185e-07
5.17286e-07
-1.96055e-07
5.70721e-07
-2.37303e-07
6.11432e-07
-2.77956e-07
6.36487e-07
-3.1477e-07
6.50374e-07
-3.43336e-07
6.57264e-07
-3.55866e-07
6.59867e-07
-3.41194e-07
6.63297e-07
-2.80312e-07
6.52612e-07
-1.49302e-07
5.65036e-07
2.72839e-08
2.83408e-07
2.36054e-07
-3.83822e-07
1.81077e-07
-1.39012e-06
-1.90392e-09
-9.92227e-08
-1.09008e-14
-4.32299e-09
-4.44591e-15
-2.89268e-14
2.60833e-15
-8.11415e-15
9.5238e-16
4.91359e-14
1.59015e-15
2.39151e-14
1.56283e-14
1.74619e-17
-1.65312e-09
2.93244e-08
-3.88208e-09
3.92979e-08
-7.30539e-09
5.99219e-08
-1.25636e-08
9.12675e-08
-2.02712e-08
1.33194e-07
-3.09858e-08
1.85499e-07
-4.52955e-08
2.4848e-07
-6.43285e-08
3.23397e-07
-8.87668e-08
4.04099e-07
-1.18579e-07
4.82362e-07
-1.53168e-07
5.51876e-07
-1.91504e-07
6.09056e-07
-2.32394e-07
6.52322e-07
-2.72502e-07
6.76595e-07
-3.0823e-07
6.86101e-07
-3.34657e-07
6.83691e-07
-3.42206e-07
6.67417e-07
-3.19257e-07
6.40348e-07
-2.52681e-07
5.86036e-07
-1.33141e-07
4.45495e-07
8.62422e-09
1.41643e-07
8.39194e-08
-4.59122e-07
-1.36935e-08
-1.04184e-06
4.22536e-09
-1.57327e-10
-4.38427e-13
-9.73273e-11
-1.52493e-14
-4.3035e-13
8.5005e-15
9.64852e-14
5.79563e-15
1.23074e-13
4.13948e-15
5.90793e-14
3.46454e-14
1.73277e-16
-1.58345e-09
3.09078e-08
-3.72146e-09
4.1436e-08
-7.01076e-09
6.32112e-08
-1.20739e-08
9.63307e-08
-1.95039e-08
1.40624e-07
-2.9823e-08
1.95819e-07
-4.35656e-08
2.62223e-07
-6.19464e-08
3.41778e-07
-8.57185e-08
4.27872e-07
-1.14882e-07
5.11525e-07
-1.48874e-07
5.85868e-07
-1.86657e-07
6.46839e-07
-2.27312e-07
6.92977e-07
-2.67162e-07
7.16446e-07
-3.02491e-07
7.21429e-07
-3.28843e-07
7.10044e-07
-3.36238e-07
6.74811e-07
-3.14228e-07
6.18337e-07
-2.5682e-07
5.28628e-07
-1.66301e-07
3.54976e-07
-6.74659e-08
4.28082e-08
-4.87869e-08
-4.65738e-07
-5.74091e-10
-9.91855e-08
-1.64619e-11
-7.32312e-10
6.0808e-13
-1.15104e-10
2.45179e-13
-3.00837e-13
-1.08627e-14
4.10224e-13
4.42171e-15
2.42752e-13
3.03145e-15
1.24666e-13
5.87642e-14
4.75706e-16
-1.50995e-09
3.24178e-08
-3.55189e-09
4.34779e-08
-6.69962e-09
6.63589e-08
-1.15568e-08
1.01188e-07
-1.86943e-08
1.47761e-07
-2.85963e-08
2.05721e-07
-4.17304e-08
2.75357e-07
-5.94112e-08
3.59459e-07
-8.24699e-08
4.5093e-07
-1.10939e-07
5.39995e-07
-1.44302e-07
6.1923e-07
-1.81499e-07
6.84036e-07
-2.22055e-07
7.33533e-07
-2.61917e-07
7.56308e-07
-2.9725e-07
7.56762e-07
-3.24376e-07
7.3717e-07
-3.32232e-07
6.82667e-07
-3.11935e-07
5.98041e-07
-2.6389e-07
4.80582e-07
-2.02313e-07
2.93399e-07
-1.42693e-07
-1.68116e-08
-9.61726e-09
-5.10756e-07
-1.86142e-09
-1.30074e-08
-1.9455e-10
-2.88289e-09
-5.42754e-12
-3.94004e-10
2.97199e-13
-9.56036e-12
-2.51373e-13
3.36594e-13
-1.15709e-13
2.39905e-13
-2.68433e-14
1.39408e-13
6.78176e-14
1.0582e-15
-1.43278e-09
3.38505e-08
-3.37373e-09
4.54189e-08
-6.3726e-09
6.93578e-08
-1.10133e-08
1.05829e-07
-1.7844e-08
1.54592e-07
-2.73089e-08
2.15185e-07
-3.97923e-08
2.8784e-07
-5.67244e-08
3.76391e-07
-7.90225e-08
4.73228e-07
-1.06749e-07
5.67722e-07
-1.39452e-07
6.51933e-07
-1.76011e-07
7.20595e-07
-2.16624e-07
7.74146e-07
-2.56836e-07
7.9652e-07
-2.92766e-07
7.92693e-07
-3.2296e-07
7.67364e-07
-3.36863e-07
6.9657e-07
-3.2684e-07
5.88018e-07
-2.93296e-07
4.47038e-07
-2.42584e-07
2.42689e-07
-1.45815e-07
-1.0341e-07
5.83203e-08
-4.61114e-07
3.18645e-09
-1.04806e-09
4.1316e-10
-2.13058e-10
1.08604e-11
-2.89705e-13
8.71545e-13
4.76425e-13
-1.11154e-13
3.32874e-13
-1.16613e-13
2.07841e-13
-4.40936e-14
1.18643e-13
6.64714e-14
1.18957e-15
-1.35212e-09
3.52026e-08
-3.18736e-09
4.72542e-08
-6.03039e-09
7.22008e-08
-1.04446e-08
1.10243e-07
-1.69552e-08
1.61102e-07
-2.59647e-08
2.24195e-07
-3.77542e-08
2.9963e-07
-5.38879e-08
3.92525e-07
-7.53782e-08
4.94719e-07
-1.02311e-07
5.94655e-07
-1.34325e-07
6.83947e-07
-1.70156e-07
7.56427e-07
-2.10959e-07
8.14949e-07
-2.51747e-07
8.37307e-07
-2.88335e-07
8.2928e-07
-3.21855e-07
8.00884e-07
-3.3735e-07
7.12065e-07
-3.23141e-07
5.73809e-07
-2.99819e-07
4.23716e-07
-2.87543e-07
2.30417e-07
-4.26563e-08
-3.08252e-07
-5.2717e-09
-1.48193e-07
-8.18359e-11
-6.27572e-09
-1.90094e-14
-2.94015e-10
3.06398e-14
-3.9332e-13
7.53283e-14
3.71478e-13
2.8427e-14
3.69097e-13
7.532e-15
2.73392e-13
4.47656e-16
1.95596e-13
1.36861e-13
-3.01651e-16
-1.26814e-09
3.64708e-08
-2.99316e-09
4.89792e-08
-5.67369e-09
7.48813e-08
-9.85186e-09
1.14421e-07
-1.60298e-08
1.6728e-07
-2.45679e-08
2.32733e-07
-3.56189e-08
3.10681e-07
-5.09036e-08
4.07809e-07
-7.15393e-08
5.15354e-07
-9.76245e-08
6.2074e-07
-1.28919e-07
7.15241e-07
-1.63907e-07
7.91415e-07
-2.0516e-07
8.56202e-07
-2.4723e-07
8.79377e-07
-2.85084e-07
8.67134e-07
-3.24143e-07
8.39944e-07
-3.54878e-07
7.428e-07
-3.67368e-07
5.86299e-07
-3.55655e-07
4.12004e-07
-3.74115e-07
2.48932e-07
8.83091e-08
-5.72065e-07
6.52596e-09
-1.73204e-08
3.00924e-10
-2.18047e-12
-2.74055e-12
-5.04172e-12
8.12397e-14
-2.9967e-12
1.40036e-13
3.72611e-13
1.27507e-13
4.65373e-13
9.93786e-14
4.07506e-13
5.33534e-14
3.53568e-13
3.00302e-13
-3.07255e-15
-1.18106e-09
3.76518e-08
-2.79154e-09
5.05897e-08
-5.30325e-09
7.7393e-08
-9.23625e-09
1.18354e-07
-1.50701e-08
1.73114e-07
-2.31225e-08
2.40785e-07
-3.33898e-08
3.20948e-07
-4.77735e-08
4.22193e-07
-6.75092e-08
5.3509e-07
-9.26887e-08
6.4592e-07
-1.23231e-07
7.45783e-07
-1.57152e-07
8.25336e-07
-1.98625e-07
8.97674e-07
-2.408e-07
9.21553e-07
-2.77875e-07
9.04209e-07
-3.28626e-07
8.90694e-07
-3.80845e-07
7.9502e-07
-3.81184e-07
5.86638e-07
-3.73313e-07
4.04158e-07
-3.8734e-07
3.90628e-07
-3.29274e-08
-2.57805e-07
-1.91174e-12
-1.48286e-08
-2.10462e-13
-7.05855e-12
-5.37781e-13
-5.73598e-12
9.2724e-14
-5.92256e-12
1.47782e-13
3.38293e-13
1.7209e-13
4.72046e-13
1.42775e-13
4.85494e-13
7.97389e-14
4.79559e-13
4.5771e-13
-4.03327e-15
-1.09105e-09
3.87429e-08
-2.58294e-09
5.20816e-08
-4.91983e-09
7.97299e-08
-8.59908e-09
1.22033e-07
-1.40782e-08
1.78593e-07
-2.1632e-08
2.48339e-07
-3.10705e-08
3.30387e-07
-4.44997e-08
4.35622e-07
-6.32906e-08
5.53881e-07
-8.75009e-08
6.7013e-07
-1.17264e-07
7.75547e-07
-1.50073e-07
8.58145e-07
-1.93316e-07
9.40917e-07
-2.4216e-07
9.70397e-07
-2.89049e-07
9.51099e-07
-3.32715e-07
9.3436e-07
-3.23481e-07
7.85785e-07
-2.95005e-07
5.58163e-07
-2.78281e-07
3.87421e-07
1.58956e-07
-1.00443e-07
1.02606e-08
-2.2182e-07
-5.44745e-11
-4.45506e-09
-5.40607e-12
-5.35924e-11
-3.33049e-12
-3.24826e-12
1.13011e-13
-5.65278e-12
1.54464e-13
2.59002e-13
1.74993e-13
4.09942e-13
1.41934e-13
4.80032e-13
7.95993e-14
5.22903e-13
5.45457e-13
-1.39619e-15
-9.98343e-10
3.97412e-08
-2.36778e-09
5.3451e-08
-4.52427e-09
8.18864e-08
-7.94165e-09
1.25451e-07
-1.30568e-08
1.83709e-07
-2.01007e-08
2.55383e-07
-2.86658e-08
3.38952e-07
-4.10854e-08
4.48042e-07
-5.88923e-08
5.71688e-07
-8.2074e-08
6.93312e-07
-1.10959e-07
8.04431e-07
-1.41782e-07
8.88968e-07
-1.82013e-07
9.81148e-07
-2.15125e-07
1.00351e-06
-2.16234e-07
9.52208e-07
-2.54502e-07
9.72629e-07
-4.71084e-07
1.00237e-06
-6.14014e-07
7.01092e-07
-3.87218e-07
1.60595e-07
1.32215e-07
-6.77191e-07
4.3185e-09
-5.90179e-11
4.21472e-11
-7.00744e-11
-3.55064e-12
-5.96198e-13
-3.60558e-12
-2.80752e-12
8.88833e-14
-5.574e-12
1.21983e-13
1.49193e-13
1.40737e-13
2.99918e-13
1.19867e-13
4.01826e-13
7.18844e-14
4.87091e-13
5.63015e-13
1.33082e-15
-9.0315e-10
4.06443e-08
-2.14654e-09
5.46944e-08
-4.11742e-09
8.38573e-08
-7.26533e-09
1.28599e-07
-1.20083e-08
1.88451e-07
-1.85323e-08
2.61907e-07
-2.61765e-08
3.46596e-07
-3.75293e-08
4.59395e-07
-5.43065e-08
5.88465e-07
-7.63927e-08
7.15398e-07
-1.04469e-07
8.32508e-07
-1.3509e-07
9.19589e-07
-1.88068e-07
1.03413e-06
-2.78514e-07
1.09396e-06
-4.23766e-07
1.09746e-06
-5.99792e-07
1.14866e-06
-5.65876e-07
9.68451e-07
-2.04112e-07
3.39329e-07
-1.76363e-07
1.32872e-07
-7.71786e-11
-5.3558e-07
-1.82482e-11
-8.34027e-11
-1.37592e-12
-2.51326e-14
-1.05395e-12
-1.82626e-12
-1.1041e-12
-2.70909e-12
4.59565e-14
-8.04041e-13
9.69246e-14
-1.74165e-14
1.08258e-13
1.72168e-13
9.93233e-14
2.8459e-13
6.37928e-14
4.03556e-13
5.33615e-13
2.43259e-15
-8.05706e-10
4.145e-08
-1.91968e-09
5.58084e-08
-3.7002e-09
8.56378e-08
-6.57162e-09
1.3147e-07
-1.0936e-08
1.92816e-07
-1.69316e-08
2.67903e-07
-2.36067e-08
3.53271e-07
-3.385e-08
4.69638e-07
-4.95839e-08
6.04199e-07
-7.05165e-08
7.36331e-07
-9.69745e-08
8.58966e-07
-1.20442e-07
9.43057e-07
-1.43091e-07
1.05677e-06
-1.21241e-07
1.07211e-06
-1.5937e-08
9.92156e-07
1.46226e-07
9.86493e-07
2.18487e-08
1.09283e-06
-4.54068e-07
8.15245e-07
-4.14044e-07
1.19366e-07
-7.26099e-10
-6.54444e-07
-3.46658e-12
-8.06479e-10
-2.95825e-12
-1.10994e-12
-1.43812e-12
-2.1998e-12
-1.54285e-13
-8.35588e-12
-2.7338e-14
-9.85916e-13
4.07326e-14
-1.66233e-13
5.00499e-14
5.7764e-14
5.23813e-14
1.6526e-13
3.71083e-14
2.97852e-13
4.66606e-13
1.77928e-15
-7.06211e-10
4.21562e-08
-1.68762e-09
5.67898e-08
-3.27333e-09
8.72235e-08
-5.8613e-09
1.34058e-07
-9.8412e-09
1.96796e-07
-1.52952e-08
2.73357e-07
-2.09365e-08
3.58912e-07
-2.99997e-08
4.78701e-07
-4.46221e-08
6.18821e-07
-6.45157e-08
7.56224e-07
-9.15783e-08
8.86028e-07
-1.29184e-07
9.80662e-07
-2.406e-07
1.16819e-06
-4.69498e-07
1.301e-06
-7.18277e-07
1.24093e-06
-7.10674e-07
9.78889e-07
-6.46539e-07
1.02869e-06
-6.0018e-07
7.68935e-07
-2.88489e-07
-4.72243e-08
-2.81687e-08
-1.92711e-07
-2.26503e-12
-1.94357e-11
-1.35459e-11
9.78135e-12
-2.54034e-11
-7.38338e-11
-4.2149e-12
-1.41718e-10
-1.45596e-13
-6.02245e-12
6.10978e-15
-6.35593e-13
1.34969e-14
-2.27345e-14
1.80978e-14
7.39256e-14
1.4428e-14
2.0041e-13
3.83218e-13
8.73348e-17
-6.05212e-10
4.27614e-08
-1.45129e-09
5.76359e-08
-2.83918e-09
8.86114e-08
-5.13983e-09
1.36359e-07
-8.73893e-09
2.00395e-07
-1.36523e-08
2.7827e-07
-1.82292e-08
3.63489e-07
-2.61292e-08
4.86601e-07
-3.96676e-08
6.32359e-07
-5.77428e-08
7.743e-07
-7.62667e-08
9.04552e-07
-6.76969e-08
9.72092e-07
-3.15556e-08
1.13205e-06
-1.89088e-08
1.28836e-06
-1.41441e-07
1.36347e-06
-4.56308e-07
1.29376e-06
-6.97149e-07
1.26954e-06
-5.17019e-07
5.89012e-07
-2.57019e-07
1.4139e-07
-1.0506e-10
-1.39826e-07
-2.39563e-12
-1.84154e-10
-3.272e-11
4.48419e-11
-2.9393e-11
-1.09146e-10
-8.6774e-13
-1.56582e-10
-3.88009e-13
-5.22566e-11
-1.61608e-14
-1.24726e-12
3.46489e-16
-4.30645e-14
-3.76464e-16
1.81243e-14
-6.42912e-16
1.25456e-13
2.97443e-13
-1.61069e-15
-5.02285e-10
4.32637e-08
-1.20502e-09
5.83387e-08
-2.38629e-09
8.97927e-08
-4.38259e-09
1.38355e-07
-7.58101e-09
2.03593e-07
-1.18953e-08
2.82584e-07
-1.52805e-08
3.66874e-07
-2.18734e-08
4.93194e-07
-3.43856e-08
6.44871e-07
-5.41548e-08
7.94069e-07
-9.36336e-08
9.44031e-07
-1.90886e-07
1.06934e-06
-3.58976e-07
1.30014e-06
-4.10459e-07
1.33984e-06
-2.7302e-07
1.22603e-06
-1.58224e-07
1.17896e-06
-9.37079e-08
1.20508e-06
-2.00499e-07
6.95873e-07
1.63304e-07
-2.53038e-07
6.69731e-11
-1.58706e-11
-1.0248e-10
-6.92944e-12
-1.08809e-11
9.8729e-12
2.30902e-11
-1.2551e-10
1.78786e-11
-1.33914e-10
5.80361e-13
-6.28984e-11
1.97735e-14
-8.12222e-13
1.07663e-14
-3.40971e-14
-1.51833e-15
1.83091e-15
-5.38128e-15
8.06054e-14
2.21588e-13
-2.40674e-15
-4.9036e-10
4.37541e-08
-9.91865e-10
5.88402e-08
-1.98607e-09
9.07869e-08
-3.71151e-09
1.4008e-07
-6.58128e-09
2.06463e-07
-1.0383e-08
2.86386e-07
-1.27053e-08
3.69197e-07
-1.81842e-08
4.98673e-07
-2.91258e-08
6.55813e-07
-3.89135e-08
8.03857e-07
-2.25207e-08
9.27638e-07
3.86892e-08
1.00813e-06
-5.23217e-08
1.39115e-06
-3.40777e-07
1.62829e-06
-4.77515e-07
1.36277e-06
-3.21978e-07
1.02343e-06
-2.23525e-07
1.10663e-06
-5.05274e-07
9.77708e-07
-5.63775e-11
-2.07816e-07
-8.29293e-12
-1.59301e-11
-5.64343e-12
-5.59545e-13
1.5206e-12
-3.6198e-12
1.81644e-11
-8.99875e-12
1.47738e-11
-1.81684e-13
8.59777e-13
-1.13662e-13
4.09084e-14
-1.17039e-15
7.82624e-15
4.8855e-16
-2.18908e-16
8.49849e-15
-4.85683e-15
6.12636e-14
1.65824e-13
-2.14776e-15
-2.46237e-09
4.62164e-08
-7.31545e-10
5.71093e-08
-1.42595e-09
9.14813e-08
-2.64309e-09
1.41297e-07
-4.8262e-09
2.08646e-07
-7.55802e-09
2.89118e-07
-8.44623e-09
3.70085e-07
-1.26399e-08
5.02867e-07
-2.42876e-08
6.67461e-07
-5.21007e-08
8.3167e-07
-1.11002e-07
9.8654e-07
-1.07698e-07
1.00483e-06
-5.95026e-12
1.28346e-06
-1.29718e-07
1.75801e-06
-4.51703e-07
1.68475e-06
-5.56735e-07
1.12846e-06
-4.70348e-07
1.02025e-06
-4.25417e-07
9.35993e-07
-1.27018e-10
-4.41189e-07
2.64068e-13
-7.44643e-11
2.63659e-14
2.13496e-12
-3.09514e-14
7.43241e-14
4.89685e-14
-9.04841e-12
2.17809e-15
-1.36001e-13
1.02199e-15
-1.11854e-13
4.74393e-17
-1.24326e-16
-6.40711e-17
1.75675e-15
-7.23969e-16
1.37231e-14
-2.55965e-15
5.53722e-14
-1.04344e-15
1.26842e-13
1.59937e-08
-1.63406e-08
1.04664e-07
-8.86708e-08
3.13624e-07
-2.0896e-07
4.25573e-07
-1.11948e-07
4.83586e-07
-5.80132e-08
5.47198e-07
-6.36119e-08
6.22426e-07
-7.52277e-08
6.65644e-07
-4.32181e-08
6.54126e-07
1.1518e-08
5.99554e-07
5.45721e-08
5.27538e-07
7.20157e-08
4.56537e-07
7.10009e-08
3.93415e-07
6.31216e-08
3.39169e-07
5.4246e-08
2.92343e-07
4.68267e-08
2.50868e-07
4.14748e-08
2.13092e-07
3.77757e-08
1.78054e-07
3.50378e-08
1.45481e-07
3.25736e-08
1.15611e-07
2.987e-08
8.89673e-08
2.66435e-08
6.61058e-08
2.28615e-08
4.73588e-08
1.87469e-08
3.26613e-08
1.46975e-08
2.15766e-08
1.10847e-08
1.35436e-08
8.03302e-09
7.98017e-09
5.56339e-09
4.28599e-09
3.69417e-09
1.8395e-09
2.44649e-09
1.83951e-09
-1.78239e-08
1.07617e-09
6.87652e-08
-1.7526e-07
3.47169e-07
-4.87364e-07
4.70926e-07
-2.35706e-07
5.21511e-07
-1.08598e-07
5.99206e-07
-1.41307e-07
6.97268e-07
-1.7329e-07
7.55973e-07
-1.01924e-07
7.5353e-07
1.39615e-08
7.05115e-07
1.02987e-07
6.35694e-07
1.41437e-07
5.62137e-07
1.44557e-07
4.91923e-07
1.33336e-07
4.27843e-07
1.18326e-07
3.69881e-07
1.04789e-07
3.16888e-07
9.44678e-08
2.67818e-07
8.68462e-08
2.22167e-07
8.06887e-08
1.80015e-07
7.47248e-08
1.41835e-07
6.80505e-08
1.08254e-07
6.02244e-08
7.98229e-08
5.12926e-08
5.67755e-08
4.17943e-08
3.88833e-08
3.25896e-08
2.55155e-08
2.44526e-08
1.59178e-08
1.76308e-08
9.32915e-09
1.2152e-08
4.98874e-09
8.03458e-09
2.13471e-09
5.30051e-09
3.97422e-09
-5.65586e-08
5.73663e-08
2.39192e-08
-2.55738e-07
3.17556e-07
-7.81e-07
4.55943e-07
-3.74093e-07
4.93223e-07
-1.45878e-07
5.9527e-07
-2.43354e-07
7.24517e-07
-3.02536e-07
7.88597e-07
-1.66005e-07
7.75336e-07
2.72231e-08
7.1761e-07
1.60713e-07
6.44666e-07
2.14381e-07
5.70299e-07
2.18924e-07
4.99742e-07
2.03893e-07
4.35161e-07
1.82907e-07
3.76389e-07
1.6356e-07
3.22355e-07
1.48502e-07
2.72154e-07
1.37047e-07
2.25417e-07
1.27425e-07
1.82323e-07
1.17819e-07
1.43392e-07
1.06982e-07
1.09254e-07
9.43618e-08
8.04396e-08
8.01073e-08
5.71444e-08
6.50896e-08
3.90995e-08
5.06345e-08
2.56377e-08
3.79143e-08
1.59833e-08
2.72852e-08
9.36223e-09
1.87731e-08
5.00424e-09
1.23926e-08
2.14069e-09
8.16405e-09
6.11492e-09
1.4958e-09
5.60036e-08
6.6681e-08
-3.20923e-07
2.38575e-07
-9.52895e-07
3.79662e-07
-5.1518e-07
4.0537e-07
-1.71585e-07
5.71392e-07
-4.09377e-07
7.70148e-07
-5.01291e-07
8.4256e-07
-2.38417e-07
8.06256e-07
6.35272e-08
7.27523e-07
2.39446e-07
6.4481e-07
2.97095e-07
5.67185e-07
2.96549e-07
4.96346e-07
2.74732e-07
4.32583e-07
2.46671e-07
3.74675e-07
2.21468e-07
3.21221e-07
2.01956e-07
2.71332e-07
1.86936e-07
2.24737e-07
1.7402e-07
1.81712e-07
1.60844e-07
1.42835e-07
1.45859e-07
1.08765e-07
1.28431e-07
8.00357e-08
1.08837e-07
5.68355e-08
8.82897e-08
3.88811e-08
6.85889e-08
2.54909e-08
5.13046e-08
1.58887e-08
3.68873e-08
9.30476e-09
2.5357e-08
4.97263e-09
1.67247e-08
2.12687e-09
1.10098e-08
8.2418e-09
1.61199e-07
-1.04548e-07
2.39153e-07
-3.98877e-07
2.37871e-07
-9.51613e-07
2.91246e-07
-5.68554e-07
2.86842e-07
-1.67181e-07
5.44275e-07
-6.6681e-07
8.43361e-07
-8.00377e-07
9.18656e-07
-3.13712e-07
8.45007e-07
1.37176e-07
7.38134e-07
3.46318e-07
6.42962e-07
3.92267e-07
5.61199e-07
3.78313e-07
4.9025e-07
3.45681e-07
4.27857e-07
3.09063e-07
3.7135e-07
2.77975e-07
3.18901e-07
2.54405e-07
2.69632e-07
2.36205e-07
2.23397e-07
2.20255e-07
1.806e-07
2.03642e-07
1.41898e-07
1.84561e-07
1.07989e-07
1.6234e-07
7.94207e-08
1.37405e-07
5.63778e-08
1.11333e-07
3.8563e-08
8.64037e-08
2.52795e-08
6.4588e-08
1.57538e-08
4.64131e-08
9.22339e-09
3.18874e-08
4.9281e-09
2.102e-08
2.10746e-09
1.38304e-08
1.03493e-08
2.78593e-07
-3.82988e-07
3.76468e-07
-4.96752e-07
3.189e-07
-8.94045e-07
2.64508e-07
-5.14162e-07
3.12732e-07
-2.15406e-07
6.2653e-07
-9.80608e-07
9.62787e-07
-1.13663e-06
1.01109e-06
-3.62011e-07
8.87689e-07
2.60574e-07
7.47735e-07
4.86272e-07
6.38514e-07
5.01488e-07
5.52491e-07
4.64335e-07
4.82154e-07
4.16018e-07
4.21806e-07
3.69411e-07
3.67132e-07
3.3265e-07
3.15949e-07
3.05589e-07
2.67456e-07
2.84697e-07
2.21674e-07
2.66037e-07
1.79171e-07
2.46145e-07
1.40697e-07
2.23034e-07
1.06999e-07
1.96038e-07
7.86388e-08
1.65766e-07
5.57977e-08
1.34174e-07
3.81609e-08
1.0404e-07
2.50128e-08
7.77361e-08
1.55837e-08
5.58422e-08
9.12089e-09
3.83502e-08
4.87204e-09
2.52688e-08
2.08305e-09
1.66194e-08
1.24323e-08
2.10917e-07
-5.95055e-07
2.72967e-07
-5.588e-07
2.58306e-07
-8.79382e-07
3.03045e-07
-5.58899e-07
5.95269e-07
-5.0763e-07
8.49041e-07
-1.23438e-06
1.07794e-06
-1.36553e-06
1.07593e-06
-3.59994e-07
9.15792e-07
4.20708e-07
7.50408e-07
6.51656e-07
6.29942e-07
6.21955e-07
5.40608e-07
5.53669e-07
4.72094e-07
4.84531e-07
4.14566e-07
4.26939e-07
3.62144e-07
3.85072e-07
3.12455e-07
3.55277e-07
2.6486e-07
3.32293e-07
2.196e-07
3.11297e-07
1.7744e-07
2.88305e-07
1.39242e-07
2.61232e-07
1.05799e-07
2.29481e-07
7.76927e-08
1.93872e-07
5.5097e-08
1.56769e-07
3.76762e-08
1.21461e-07
2.46916e-08
9.07207e-08
1.53789e-08
6.51549e-08
8.99754e-09
4.47316e-08
4.80461e-09
2.94618e-08
2.05369e-09
1.93703e-08
1.4486e-08
4.58939e-08
-6.42536e-07
1.10023e-07
-6.22917e-07
9.29666e-08
-8.62303e-07
3.14053e-07
-7.79971e-07
7.74717e-07
-9.68284e-07
9.15318e-07
-1.37496e-06
1.00756e-06
-1.45767e-06
1.02594e-06
-3.78358e-07
8.98631e-07
5.4802e-07
7.37805e-07
8.12481e-07
6.10491e-07
7.49269e-07
5.22618e-07
6.41542e-07
4.59305e-07
5.47844e-07
4.06041e-07
4.80204e-07
3.56434e-07
4.34678e-07
3.0847e-07
4.03241e-07
2.61871e-07
3.78892e-07
2.17185e-07
3.55984e-07
1.75413e-07
3.30077e-07
1.37533e-07
2.99113e-07
1.0439e-07
2.62623e-07
7.65831e-08
2.21679e-07
5.42766e-08
1.79076e-07
3.71098e-08
1.38628e-07
2.43166e-08
1.03514e-07
1.51399e-08
7.43316e-08
8.8536e-09
5.10178e-08
4.72596e-09
3.35894e-08
2.01946e-09
2.20768e-08
1.65055e-08
6.9333e-09
-6.49825e-07
1.08566e-07
-7.24409e-07
8.16604e-08
-8.35205e-07
2.03817e-07
-9.01959e-07
4.15325e-07
-1.17963e-06
4.96833e-07
-1.45627e-06
6.22038e-07
-1.58276e-06
7.94233e-07
-5.50552e-07
7.8177e-07
5.60483e-07
6.89279e-07
9.04973e-07
5.82125e-07
8.56422e-07
5.03104e-07
7.20563e-07
4.45691e-07
6.05258e-07
3.96786e-07
5.29108e-07
3.50178e-07
4.81287e-07
3.04061e-07
4.49358e-07
2.58519e-07
4.24434e-07
2.1444e-07
4.00063e-07
1.73092e-07
3.71424e-07
1.35571e-07
3.36634e-07
1.02773e-07
2.95421e-07
7.53107e-08
2.49141e-07
5.33375e-08
2.01049e-07
3.64629e-08
1.55503e-07
2.38885e-08
1.16088e-07
1.48671e-08
8.3353e-08
8.68936e-09
5.71956e-08
4.63625e-09
3.76425e-08
1.98042e-09
2.47326e-08
1.84859e-08
1.26043e-08
-6.61153e-07
4.6983e-09
-7.15098e-07
-2.77136e-08
-8.01159e-07
-5.37391e-08
-8.74307e-07
-8.57015e-08
-1.1462e-06
-2.93658e-08
-1.51198e-06
1.96957e-07
-1.80908e-06
4.88553e-07
-8.42147e-07
5.76544e-07
4.72492e-07
5.62566e-07
9.18951e-07
5.10133e-07
9.08855e-07
4.65774e-07
7.64922e-07
4.26212e-07
6.44819e-07
3.85784e-07
5.69536e-07
3.43288e-07
5.23783e-07
2.99265e-07