/*--------------------------------*- C++ -*----------------------------------*\
| =========                 |                                                 |
| \\      /  F ield         | OpenFOAM: The Open Source CFD Toolbox           |
|  \\    /   O peration     | Version:  2.4.0                                 |
|   \\  /    A nd           | Web:      www.OpenFOAM.org                      |
|    \\/     M anipulation  |                                                 |
\*---------------------------------------------------------------------------*/
FoamFile
{
    version     2.0;
    format      ascii;
    class       volScalarField;
    location    "0.027";
    object      alpha.water;
}
// * * * * * * * * * * * * * * * * * * * * * * * * * * * * * * * * * * * * * //

dimensions      [0 0 0 0 0 0 0];

internalField   nonuniform List<scalar> 
3600
(
1
1
1
1
1
1
1
1
1
1
1
1
1
1
1
1
1
1
1
1
1
1
1
1
1
1
1
1
1
1
1
1
1
1
1
1
1
1
1
1
1
1
1
1
1
1
1
1
1
1
1
1
1
1
1
1
1
1
1
1
1
1
1
1
1
1
1
1
1
1
1
1
1
1
1
1
1
1
1
1
1
1
1
1
1
1
1
1
1
1
1
1
1
1
1
1
1
1
1
1
1
1
1
1
1
1
1
1
1
1
1
1
1
1
1
1
1
1
1
1
1
1
1
1
1
1
1
1
1
1
1
1
1
1
1
1
1
1
1
1
1
1
1
1
1
1
1
1
1
1
1
1
1
1
1
1
1
1
1
1
1
1
1
1
1
1
1
1
1
1
1
1
1
1
1
1
1
1
1
1
1
1
1
1
1
1
1
1
1
1
1
1
1
1
1
1
1
1
1
1
1
1
1
1
1
1
1
1
1
1
1
1
1
1
1
1
1
1
1
1
1
1
1
1
1
1
1
1
1
1
1
1
1
1
1
1
1
1
1
1
1
1
1
1
1
1
1
1
1
1
1
1
1
1
1
1
1
1
1
1
1
1
1
1
1
1
1
1
1
1
1
1
1
1
1
1
1
1
1
1
1
1
1
1
1
1
1
1
1
1
1
1
1
1
1
1
1
1
1
1
1
1
1
1
1
1
1
1
1
1
1
1
1
1
1
1
1
1
1
1
1
1
1
1
1
1
1
1
1
1
1
1
1
1
1
1
1
1
1
1
1
1
1
1
1
1
1
1
1
1
1
1
1
1
1
1
1
1
1
1
1
1
1
1
1
1
1
1
1
1
1
1
1
1
1
1
1
1
1
1
1
1
1
1
1
1
1
1
1
1
1
1
1
1
1
1
1
1
1
1
1
1
1
1
1
1
1
1
1
1
1
1
1
1
1
1
1
1
1
1
1
1
1
1
1
1
1
1
1
1
1
1
1
1
1
1
1
1
1
1
1
1
1
1
1
1
1
1
1
1
1
1
1
1
1
1
1
1
1
1
1
1
1
1
1
1
1
1
1
1
1
1
1
1
1
1
1
1
1
1
1
1
1
1
1
1
1
1
1
1
1
1
1
1
1
1
1
1
1
1
1
1
1
1
1
1
1
1
1
1
1
1
1
1
1
1
1
1
1
1
1
1
1
1
1
1
1
1
1
1
1
1
1
1
1
1
1
1
1
1
1
1
1
1
1
1
1
1
1
1
1
1
1
1
1
1
1
1
1
1
1
1
1
1
1
1
1
1
1
1
1
1
1
1
1
1
1
1
1
1
1
1
1
1
1
1
1
1
1
1
1
1
1
1
1
1
1
1
1
1
1
1
1
1
1
1
1
1
1
1
1
1
1
1
1
1
1
1
1
1
1
1
1
1
1
1
1
1
1
1
1
1
1
1
1
1
1
1
1
1
1
1
1
1
1
1
1
1
1
1
1
0.999999
1
0.991641
0.998864
1
1
1
0.999999
1
1
1
1
1
1
1
1
1
1
1
1
1
1
1
1
1
1
1
1
0.997782
0.906789
0.759203
0.656617
0.548804
0.828383
0.921324
0.977017
0.977033
0.980196
0.967128
1
1
1
1
1
1
1
1
1
1
1
1
1
1
1
1
1
1
1
0.942793
0.507897
0.181215
0.0512896
0.0107612
0.0429653
0.222612
0.490652
0.463777
0.526613
0.364916
1
1
1
1
1
1
1
1
1
1
1
1
1
1
1
1
0.999989
0.999899
0.999949
0.900714
0.249729
0.00333647
0.00276608
0.00251961
0.00276609
0.0134605
0.0659634
0.1834
0.199916
0.360187
1
1
1
1
1
1
1
1
1
1
1
1
1
1
1
1
1
1
0.95254
0.278275
0.00373468
0.00354919
0.00256343
0.00256343
0.0521615
0.202881
0.192996
0.377232
0.377804
0.35052
1
1
1
1
1
1
1
1
1
1
1
1
1
1
1
1
1
0.999976
0.999986
0.143565
0.00373468
0.00368067
0.00319407
0.156948
0.341926
0.343112
0.339291
0.336749
0.343654
0.248312
1
1
1
1
1
1
1
1
1
1
1
1
0.999996
1
1
0.999853
0.999975
0.99999
0.999989
0.332655
0.00380196
0.00376576
0.00386324
0.190274
0.342354
0.202002
0.19825
0.198033
0.363009
0.258357
1
1
1
1
1
1
1
1
1
1
1
0.999999
1
1
1
0.998496
0.999993
0.999993
0.944586
0.348775
0.0712204
0.00597426
0.394008
0.264515
0.219895
0.311719
0.296548
0.197977
0.69512
0.852406
1
0.993344
0.999864
1
1
1
1
1
0.999776
0.892393
0.965771
0.641499
0.806807
0.62977
0.812401
0.998207
0.865569
0.980796
0.97828
0.781597
0.621472
0.0983588
0.693713
0.619689
0.560627
0.814473
0.806546
0.422821
0.603031
0.981531
1
1
1
1
1
1
1
1
1
1
1
1
1
1
1
1
1
1
1
1
1
1
1
1
1
1
1
1
1
1
1
1
1
1
1
1
1
1
1
1
1
1
1
1
1
1
1
1
1
1
1
1
1
1
1
1
1
1
1
1
1
1
1
1
1
1
1
1
1
1
1
1
1
1
1
1
1
1
1
1
1
1
1
1
1
1
1
1
1
1
1
1
1
1
1
1
1
1
1
1
1
1
1
1
1
1
1
1
1
1
1
1
1
1
1
1
1
1
1
1
1
1
1
1
1
1
1
1
1
1
1
1
1
1
1
1
1
1
1
1
1
1
1
1
1
1
1
1
1
1
1
1
1
1
1
1
1
1
1
1
1
1
1
1
1
1
1
1
1
1
1
1
1
1
1
1
1
1
1
1
1
1
1
1
1
1
1
1
1
1
1
1
1
1
1
1
1
1
1
1
1
1
1
1
1
1
1
1
1
1
1
1
1
1
1
1
1
1
1
1
1
1
1
1
1
1
1
1
1
1
1
1
1
1
1
1
1
1
1
1
1
1
1
1
1
1
1
1
1
1
1
1
1
1
1
1
1
1
1
1
1
1
1
1
1
1
1
1
1
1
1
1
1
1
1
1
1
1
1
1
1
1
1
1
1
1
1
1
1
1
1
1
1
1
1
1
1
1
1
1
1
1
1
1
1
1
1
1
1
1
1
1
1
1
1
1
1
1
1
1
1
1
1
1
1
1
1
1
1
1
1
1
1
1
1
1
1
1
1
1
1
1
1
1
1
1
1
1
1
1
1
1
1
1
1
1
1
1
1
1
1
1
1
1
1
1
1
1
1
1
1
1
1
1
1
1
1
1
1
1
1
1
1
1
1
1
1
1
1
1
1
1
1
1
1
1
1
1
1
1
1
1
1
1
1
1
1
1
1
1
1
1
1
1
1
1
1
1
1
1
1
1
1
1
1
1
1
1
1
1
1
1
1
1
1
1
1
1
1
1
1
1
1
1
1
1
1
1
1
1
1
1
1
1
1
1
1
1
1
1
1
1
1
1
1
1
1
1
1
1
1
1
1
1
1
1
1
1
1
1
1
1
1
1
1
1
1
1
1
1
1
1
1
1
1
1
1
1
1
1
1
1
1
1
1
1
1
1
1
1
1
1
1
1
1
1
1
1
1
1
1
1
1
1
1
1
1
1
1
1
1
1
1
1
1
1
1
1
1
1
1
1
1
1
1
1
1
1
1
1
1
1
1
1
1
1
1
1
1
1
1
1
1
1
1
1
1
1
1
1
0.999999
1
1
1
1
1
1
1
1
1
1
1
1
1
1
1
1
1
1
1
1
1
1
1
1
1
1
1
1
1
0.999992
1
1
1
1
1
1
1
1
1
1
1
1
1
1
1
1
1
1
1
1
1
1
1
1
1
1
1
1
1
0.999998
0.999987
0.999998
0.999995
0.996609
0.974513
0.991907
0.999998
0.998785
0.999994
1
1
1
1
1
1
1
1
1
1
1
1
1
1
1
1
1
1
1
1
0.983993
0.766291
0.858066
0.682966
0.623998
0.472044
0.545142
0.628585
0.659455
0.956736
1
1
1
1
1
1
1
1
1
1
1
1
1
1
1
1
1
1
1
1
0.320002
0.193315
0.153096
0.0218551
0.0106345
0.0315743
0.0207607
0.00078316
0.227063
0.297663
0.960488
1
1
1
1
1
1
1
1
1
1
1
1
1
1
1
1
1
1
1
0.26727
0.0619575
0.000222376
0.000222296
0.000222353
0.000222353
0.000259897
0.000296149
0.000777738
0.101104
0.767972
1
0.999876
0.999997
1
1
1
1
1
1
1
1
1
1
1
1
1
1
1
1
0.320932
0.19514
0.0372334
0.000222377
0.000222296
0.000222475
0.000225847
0.000262091
0.000697415
0.138277
0.724051
0.916572
1
1
1
1
1
1
1
1
1
1
1
1
1
1
1
1
1
1
0.251374
0.0664791
0.0622444
0.000224398
0.000222415
0.000223177
0.000223657
0.000226313
0.000306278
0.323746
0.959398
0.999999
0.999999
0.999999
1
1
1
1
1
1
1
1
1
1
1
1
1
1
1
1
0.129215
0.0095172
0.00794826
0.000862528
0.000224106
0.000223631
0.000224681
0.000237351
0.0182276
0.535332
0.813972
0.745571
0.996132
1
1
1
0.999998
0.999999
1
1
1
1
1
1
1
1
1
1
1
1
0.392169
0.0172004
0.0669365
0.007693
0.00210144
0.000224621
0.0014931
0.000341499
0.166447
0.526414
0.1962
0.0853612
0.599606
0.999989
0.999498
0.986133
0.999998
0.999998
0.992933
1
0.989503
0.999201
0.999998
1
1
1
1
1
1
1
0.987161
0.986886
0.867903
0.116587
0.0131717
0.00809707
0.0046513
0.000398542
0.000470501
0.184057
0.0919111
0.00938889
0.125146
0.99993
0.866873
0.482997
0.552507
0.717906
0.775805
0.959422
0.833728
0.915137
0.999978
1
1
1
1
0.999911
0.996416
1
0.974687
0.400833
0.985529
1
1
1
0.998565
0.942976
0.794724
0.164715
0.260862
0.0134014
0.171484
0.0340316
0.186676
0.960449
0.437648
0.961588
0.977983
0.977623
0.787012
0.251908
0.82156
0.980346
0.973257
0.857304
0.779182
0.723442
0.982021
0.9871
0.228682
0.121919
0.999983
1
1
0.999999
0.984658
0.671236
0.392488
0.0313628
0.0994031
0.0132557
0.018045
0.0175614
0.173863
0.931173
0.242977
0.936949
0.977611
0.976319
0.763001
0.38401
0.904477
0.984877
0.989867
0.835736
0.805622
0.899493
0.985387
0.9843
0.0151827
0.128686
0.828908
0.955625
1
0.999779
0.911631
0.289557
0.0761165
0.00548877
0.0193524
0.0132557
0.013256
0.0162612
0.148674
0.895397
0.0899357
0.821818
0.976306
0.971772
0.642067
0.767475
0.982308
0.986874
0.991364
0.851233
0.813098
0.951483
0.985702
0.953816
0.014542
0.111856
0.303895
0.722594
0.944904
0.995655
0.764985
0.107501
0.0019526
0.00157862
0.0276085
0.0132566
0.0135011
0.0137995
0.0218456
0.849664
0.0894444
0.609264
0.946286
0.971221
0.503401
0.853616
0.858957
0.971697
0.992305
0.863486
0.813541
0.92422
0.99166
0.953789
0.00607138
0.0234679
0.353904
0.551391
0.860327
0.992098
0.674475
0.0421523
0.0013223
0.00116266
0.0299086
0.0133939
0.0600093
0.0157477
0.0941716
0.423255
0.0961743
0.492897
0.743607
0.971077
0.242124
0.587455
0.681045
0.956144
0.994022
0.970969
0.937933
0.974721
0.993237
0.971319
0.00031214
0.000165411
0.0555097
0.167421
0.616632
0.953994
0.66008
0.0212645
0.000479251
0.000534974
0.0316288
0.0277134
0.0661227
0.0170325
0.0672825
0.0199902
0.0203202
0.458216
0.490091
0.807246
0.0298366
0.163698
0.415826
0.909193
0.996953
0.997572
0.997751
0.997827
0.993996
0.977984
0.00060772
6.61056e-05
0.00702761
0.181465
0.607926
0.87283
0.560257
0.0122728
3.09094e-06
4.12474e-05
0.0312468
0.0661227
0.0661666
0.0180369
0.0548496
0.0198789
0.00950464
0.441733
0.318352
0.228498
0.00961649
0.0416754
0.218654
0.890459
0.997571
0.997726
0.997812
0.997838
0.996128
0.970922
0.000104552
2.63496e-05
0.00201399
0.0868278
0.460914
0.793406
0.496091
0.15094
3.38262e-05
3.38502e-05
0.00592849
0.0661599
0.0661599
0.0209506
0.0316836
0.0100575
0.00967847
0.432917
0.0585774
0.008629
0.00741313
0.00987631
0.0107267
0.700485
0.99752
0.99781
0.997831
0.997834
0.997107
0.970109
6.54637e-08
3.32948e-07
0.000246964
0.0776836
0.459642
0.7539
0.671701
0.31742
3.38502e-05
4.06067e-05
0.000268964
0.0159595
0.0649569
0.0775011
0.0254074
0.00271417
0.0114199
0.398803
0.160893
0.00538493
0.00358155
0.027078
0.0192969
0.591691
0.994466
0.997823
0.997836
0.997842
0.997837
0.970264
3.16282e-08
6.54653e-08
4.32049e-06
0.0166382
0.28088
0.679555
0.676635
0.0868292
4.01122e-05
4.65247e-05
0.00349657
0.00271182
0.0218962
0.0775011
0.0162027
0.00161251
0.0287538
0.158046
0.0433325
0.00365526
0.00335678
0.0254329
0.0171525
0.296105
0.93006
0.997797
0.997823
0.98047
0.997794
0.99293
1.88464e-09
1.51782e-08
2.53698e-06
0.0168331
0.283523
0.66291
0.62839
0.00115823
7.44428e-05
8.48362e-05
0.00503964
0.00226606
0.0233553
0.0711955
0.0241562
0.000879286
0.0113263
0.00823397
0.0203925
0.00335678
0.00335678
0.00335678
0.0170573
0.0358116
0.862346
0.996845
0.984158
0.956213
0.976624
0.994902
7.04097e-10
-3.20142e-09
1.40046e-07
0.000948167
0.112991
0.58105
0.665518
0.000154832
6.42467e-05
0.000422489
0.00502944
0.00100973
0.00105891
0.0407189
0.0110529
0.000746586
8.17976e-05
0.000455363
0.0202768
0.0149689
0.00335678
0.00774438
0.0191904
0.0120066
0.59507
0.992097
0.9837
0.956265
0.969885
0.994902
4.28008e-11
2.74834e-10
1.26105e-07
3.71567e-05
0.110658
0.524976
0.667916
0.00566766
1.35431e-06
0.000203588
0.00351724
0.000586982
0.00245593
0.0159063
4.37623e-05
4.02855e-05
2.50565e-05
8.31331e-05
0.0209536
0.0208498
0.00340086
0.00521717
0.01923
0.00495346
0.13185
0.886125
0.945321
0.99349
0.995171
0.994739
1.87102e-11
1.95341e-11
6.24407e-09
2.02075e-06
0.0329089
0.404123
0.563135
0.0144247
1.10313e-06
1.82362e-05
0.000109172
0.000551388
0.0012393
0.00521024
3.19289e-05
2.51956e-05
2.05859e-05
2.5182e-05
0.0146518
0.0206707
0.00348202
0.00211669
0.00315996
0.00326953
0.134363
0.8863
0.8744
0.975673
0.995402
0.9954
7.23766e-12
1.2059e-11
2.90207e-09
1.35384e-06
0.040768
0.352301
0.550615
0.128037
1.04267e-06
9.7473e-06
1.15933e-05
0.00125979
0.000134781
0.000141131
0.000162414
6.98823e-05
2.05916e-05
2.05915e-05
0.00193931
0.0204733
0.00250945
0.00210756
0.00211508
0.00225636
0.0623469
0.669329
0.813759
0.935454
0.995388
0.9954
2.2077e-12
5.67361e-12
3.14291e-09
3.67389e-06
0.00636402
0.207956
0.427224
0.0456736
5.49518e-07
1.97703e-05
0.000340091
0.00144108
0.0001314
0.000526506
0.000720831
0.00136791
2.05917e-05
2.1702e-05
0.00282088
0.019082
0.00210756
0.00210596
0.00210596
0.00212807
0.0117462
0.457579
0.590158
0.414139
0.991149
0.877821
3.45662e-13
4.89835e-12
1.24997e-11
4.345e-09
0.00145452
0.0484804
0.127394
1.70851e-07
3.60694e-08
6.39566e-05
0.000703065
0.000709226
4.33793e-05
0.000216708
0.000181817
0.00173771
6.35477e-05
2.28599e-05
0.00168654
0.0154245
0.00226044
0.00210595
0.00209363
0.00208712
0.169958
0.448108
0.121382
0.0889579
0.474081
0.545707
6.10699e-14
2.00717e-12
6.52059e-12
1.42178e-10
8.25818e-07
6.35923e-06
3.59973e-07
6.55521e-07
9.02387e-09
9.42455e-06
0.000355795
0.000157222
3.01243e-09
1.19469e-10
3.01087e-09
0.00164811
0.000140964
4.29802e-05
1.04127e-05
0.0152736
0.0149454
0.00321406
0.00210937
0.0671578
0.169111
0.12082
0.0523184
0.05298
0.0605744
0.242798
1.04478e-14
3.31275e-13
1.51847e-11
1.55082e-11
4.74898e-10
5.55835e-08
1.95935e-08
1.09868e-06
7.03641e-09
5.16028e-07
3.79044e-07
8.91632e-09
1.22763e-10
2.27886e-11
8.95005e-08
4.61777e-10
7.87364e-06
0.000139967
1.19557e-06
0.0124857
0.0126515
0.00227996
0.0021933
0.038318
0.119193
0.0543013
0.0525519
0.0523707
0.11687
0.146775
1.67134e-15
5.69335e-14
1.44801e-12
5.71058e-12
1.57619e-11
4.73989e-10
1.46952e-09
1.63566e-11
1.23462e-09
6.68767e-08
2.65323e-08
1.15017e-08
2.33995e-11
1.97673e-11
5.81023e-12
6.47711e-12
8.59342e-06
0.000139393
1.22573e-07
0.00124622
0.0123377
0.00674028
0.00228119
0.0849941
0.577163
0.660927
0.331964
0.263511
0.767993
0.5114
2.39307e-16
8.53531e-15
1.44778e-13
6.8105e-12
8.73699e-12
1.73768e-11
5.04431e-11
1.63452e-11
1.18433e-11
6.07364e-10
8.60461e-10
1.42723e-09
3.59097e-11
1.25858e-11
5.59547e-12
1.30614e-11
2.05534e-06
2.24062e-05
5.43324e-08
0.00645547
0.0125501
0.0124385
0.00999758
0.0617174
0.718058
0.812494
0.817822
0.825757
0.844573
0.844465
2.97035e-17
1.07559e-15
1.38562e-14
7.5267e-13
4.19499e-12
7.96115e-12
2.70017e-11
2.51971e-11
1.0957e-11
1.37685e-10
1.09664e-10
1.03449e-10
1.24157e-11
1.58992e-12
1.00657e-11
1.41344e-11
1.45902e-11
1.96499e-09
2.73673e-08
0.0048141
0.0124625
0.0125154
0.00662265
0.0123702
0.313915
0.744072
0.841454
0.844573
0.844488
0.844573
3.14536e-18
1.13373e-16
1.26417e-15
5.8672e-14
5.27409e-13
1.86157e-11
2.071e-11
1.50687e-11
2.00372e-12
7.1016e-12
1.28427e-11
3.93559e-11
3.76431e-12
2.73952e-13
7.06816e-14
1.68044e-12
2.67632e-12
1.54107e-11
3.01952e-11
2.42607e-09
0.00813892
0.00237144
0.000383087
0.00108537
0.00524982
0.112347
0.281104
0.476937
0.641413
0.53428
2.82512e-19
1.00058e-17
1.12144e-16
3.4408e-15
4.81536e-14
1.39394e-12
1.50793e-11
2.22199e-12
1.34592e-13
2.29899e-13
9.39109e-12
1.80947e-12
8.80615e-14
2.9161e-15
6.18215e-14
2.05595e-12
1.52476e-11
6.05806e-12
5.36036e-12
1.31587e-11
7.06371e-05
0.000112543
3.99333e-05
0.00035346
0.00408079
0.00485144
0.00555742
0.0141745
0.0525386
0.0316689
2.15164e-20
7.4298e-19
9.49488e-18
1.60453e-16
3.44237e-15
5.85587e-14
3.71482e-12
3.09899e-13
7.83693e-15
3.08452e-15
3.73709e-13
1.38461e-14
1.9613e-16
1.73034e-18
9.09126e-14
2.64408e-12
7.87898e-12
3.41396e-12
1.34656e-12
1.73452e-07
9.57017e-08
0.000122077
2.88245e-05
0.000551174
0.00846591
0.00905876
0.00530025
0.000176291
0.000199035
0.000219992
1.39234e-21
4.6682e-20
7.39052e-19
6.25135e-18
2.00447e-16
1.13771e-15
3.7688e-13
2.3729e-14
3.40994e-16
5.30515e-18
9.32179e-16
2.58579e-18
2.0753e-20
4.2e-21
6.03854e-20
1.01864e-17
6.38085e-14
3.97749e-13
4.05154e-12
1.08745e-11
8.1595e-10
9.74147e-05
2.26534e-05
0.000372227
0.00107545
0.0017114
0.00117509
5.94206e-05
5.81806e-05
3.71627e-05
7.67035e-23
2.49821e-21
5.14679e-20
2.14922e-19
9.84873e-18
1.20687e-17
2.15289e-14
1.05831e-15
1.11042e-17
9.19534e-21
6.0282e-22
2.22123e-22
2.624e-22
1.13787e-22
4.64364e-19
8.97701e-17
8.54526e-15
2.55552e-13
5.22712e-12
3.03163e-11
3.47287e-11
3.19415e-06
2.00237e-06
3.94237e-06
6.23387e-06
1.47631e-05
2.49723e-05
4.9904e-05
4.41347e-05
2.71567e-05
3.6066e-24
1.1449e-22
3.17494e-21
6.96314e-21
4.27637e-19
9.66214e-20
7.4539e-16
2.68795e-17
2.05197e-19
1.20324e-22
3.02708e-23
8.02541e-24
7.57009e-24
2.08769e-24
1.48857e-19
1.59912e-16
2.20742e-14
3.22501e-13
3.24875e-12
3.65549e-11
4.14912e-11
8.65705e-14
4.45304e-06
3.44422e-05
0.000106333
3.97811e-05
3.23141e-05
8.70742e-05
6.83069e-05
2.38651e-05
1.45178e-25
4.50376e-24
1.72865e-22
2.26023e-22
1.74478e-20
7.34208e-22
1.58684e-17
3.59751e-19
1.74202e-21
2.74188e-24
1.38333e-24
2.37889e-25
1.47659e-25
2.30819e-26
2.67284e-22
1.01689e-18
7.80388e-16
3.91859e-14
1.43216e-12
2.57516e-11
8.42496e-12
6.07287e-14
4.44787e-06
0.000376643
0.000374863
4.27495e-05
7.23464e-05
0.000104915
0.000104381
5.92831e-05
5.03348e-27
1.51965e-25
8.27091e-24
7.53036e-24
7.08341e-22
8.43516e-24
2.20732e-19
1.90364e-21
3.55368e-24
7.31093e-26
5.09427e-26
4.78443e-27
1.84557e-27
9.86221e-29
3.53167e-30
4.53281e-32
9.06415e-24
1.40133e-17
2.31957e-15
9.70488e-14
1.44575e-12
6.0719e-14
4.75778e-21
8.75881e-05
0.000297512
5.00703e-06
7.42139e-05
0.000104915
0.000104351
1.69815e-05
0.987161
0.941083
0.942503
0.415858
0.0407206
0.00157943
0.00147223
0.00104678
0.0157661
0.230416
0.180092
0.00938889
0.1509
0.998527
0.910142
0.342746
0.000709311
0.000478593
0.0135262
0.695701
0.718964
0.866532
0.961899
0.999727
1
1
1
0.990207
0.498015
0.996573
0.972791
0.926899
0.94389
0.668678
0.0920188
0.00163306
0.00131841
0.00116456
0.0197163
0.232
0.172137
0.00853995
0.103539
0.997173
0.946376
0.296794
0.00432129
0.000360022
0.00320462
0.27884
0.48003
0.838707
0.952744
0.999462
1
1
1
0.999988
0.0943915
0.270318
0.954599
0.953454
0.953492
0.661758
0.126165
0.00172938
0.00154094
0.00136848
0.0173821
0.232398
0.130617
0.00240146
0.0411844
0.996924
0.939794
0.144679
0.00035974
0.000276788
0.0042563
0.00309225
0.346354
0.791521
0.941579
0.998957
1
1
1
0.904486
0.0988674
0.0123983
0.95385
0.958976
0.883272
0.774434
0.305352
0.0153136
0.00208589
0.00146796
0.00867423
0.232396
0.195283
0.00160086
0.00652119
0.938421
0.96103
0.244091
0.000182913
7.4882e-05
0.000194069
0.000990583
0.173643
0.746524
0.927727
0.998319
0.999997
0.956668
0.796828
0.328985
0.127379
0.011309
0.973238
0.97752
0.884971
0.741183
0.247315
0.00841011
0.00295796
0.0020982
0.030647
0.232397
0.149021
0.00074086
0.0339091
0.96103
0.96103
0.134799
6.12849e-05
6.40567e-05
7.45801e-05
0.000287741
0.0345188
0.638463
0.916419
0.99747
0.984211
0.861788
0.591904
0.365298
0.0443735
0.00737043
0.971338
0.977861
0.978135
0.885432
0.0734237
0.00800749
0.00619205
0.0129332
0.0303617
0.214212
0.0228403
0.000519998
0.00125641
0.561471
0.960554
0.14614
6.17366e-05
6.13502e-05
6.40526e-05
0.000253861
0.0157095
0.463808
0.776043
0.983317
0.904916
0.64272
0.233191
0.0720514
0.000234151
0.000443338
0.971118
0.978135
0.980806
0.970539
0.475175
0.00809268
0.00893248
0.00685144
0.0119981
0.0442804
0.00054239
0.000260214
0.000538031
0.11594
0.955222
0.137473
6.1325e-05
5.54483e-05
0.000403743
0.00763446
0.0561577
0.195788
0.371944
0.909664
0.853527
0.594115
0.193397
0.0121562
9.20234e-05
0.000623649
0.978242
0.971692
0.982258
0.987909
0.962172
0.431222
0.0508288
0.00507173
0.0032248
0.00141629
0.00150627
0.000221976
0.000246154
0.0328242
0.946468
0.0777016
5.77436e-05
2.7113e-05
0.000225286
0.0304515
0.0835661
0.084409
0.646001
0.908065
0.778925
0.4301
0.0906626
0.00297309
4.60484e-05
0.000117361
0.979754
0.895832
0.924458
0.988143
0.98791
0.923795
0.325304
0.00441128
0.00260277
0.00118887
0.000251169
0.000210168
0.000161577
0.0429874
0.943202
0.0432099
2.53153e-05
1.89624e-05
0.000392687
1.73284e-05
0.00624152
0.239898
0.247946
0.735031
0.594924
0.363611
0.0923119
0.00153195
5.46674e-07
1.23644e-07
0.979355
0.895755
0.920776
0.988158
0.988141
0.987747
0.897489
0.404133
0.0877387
0.0065295
0.000174501
0.000184922
0.000462021
0.000769608
0.807059
0.0122673
1.46754e-05
1.4015e-05
3.68683e-05
5.06765e-06
9.47542e-06
0.000138189
0.0453163
0.485141
0.525869
0.301616
0.0363567
0.000107165
1.23637e-07
5.16365e-08
0.979739
0.895755
0.977427
0.988148
0.988141
0.988072
0.987419
0.842632
0.201985
0.00017411
0.000167851
0.000178323
0.000192006
0.034635
0.230332
0.0126963
1.38446e-05
1.03237e-05
4.79307e-06
5.06765e-06
4.91967e-06
6.93315e-06
0.00302368
0.363803
0.508165
0.298239
0.035211
4.23361e-06
3.06348e-08
5.47238e-09
0.9192
0.896478
0.979851
0.98814
0.988136
0.988082
0.987523
0.918925
0.252975
0.000167887
0.000161425
0.000167868
0.000178417
0.0104571
0.000558795
0.00124033
0.000174173
4.27441e-05
4.419e-06
4.97624e-06
1.50055e-05
-2.54896e-06
0.00285522
0.411754
0.452046
0.173013
0.00908946
6.58374e-07
-1.45838e-08
9.83873e-10
0.912075
0.930983
0.982019
0.988156
0.988113
0.988091
0.987897
0.915386
0.243431
0.000143372
0.000157234
0.000177578
0.00172745
0.00835048
1.95213e-07
5.75179e-08
5.38259e-08
1.00411e-05
4.23842e-06
1.58462e-05
3.98299e-05
9.80664e-08
1.14781e-07
0.335999
0.406619
0.13905
0.0038434
2.16361e-07
-1.1448e-09
7.04847e-11
0.94087
0.965706
0.967103
0.986982
0.988088
0.97966
0.980941
0.929539
0.256139
0.000115883
0.000104434
0.000210316
0.00895607
0.0135495
0.000319308
5.38332e-08
5.31127e-08
5.26118e-08
4.20484e-06
5.71759e-05
1.39653e-05
5.38408e-09
0.00118722
0.351154
0.324476
0.0617812
0.000500645
2.22783e-08
1.2365e-11
1.51713e-11
0.964697
0.818449
0.814877
0.987748
0.987909
0.987752
0.987064
0.88599
0.201137
0.00010399
0.000100141
0.000739957
0.0136642
0.0137457
0.00224062
5.30961e-08
5.1893e-08
5.05536e-08
2.77271e-06
5.71759e-05
1.40734e-08
5.38629e-09
5.31519e-09
0.257412
0.189912
0.0233398
1.51753e-05
1.46088e-09
1.4591e-12
7.31999e-12
0.922537
0.653289
0.653347
0.953569
0.98775
0.987622
0.975555
0.52198
0.0565386
0.000100141
9.01374e-05
0.00216879
0.0137458
0.0137703
0.0121162
0.000192004
5.05484e-08
5.05483e-08
7.01824e-07
5.71759e-05
1.64485e-06
2.79086e-09
5.98589e-09
0.043285
0.0202769
0.000981663
7.63047e-07
4.09035e-11
6.51767e-12
1.71133e-12
0.817061
0.802515
0.962356
0.986413
0.987628
0.986454
0.714691
0.0322499
0.000146572
9.85705e-05
8.01491e-05
0.000473718
0.00502433
0.0137616
0.0137616
0.00399928
5.44582e-08
5.05509e-08
6.73071e-08
3.57357e-05
2.3205e-06
1.38914e-10
8.54882e-08
8.41986e-10
7.6429e-07
2.38417e-08
1.67568e-09
9.20312e-12
4.85717e-12
3.1677e-13
0.602958
0.600422
0.366115
0.608861
0.764608
0.424447
0.171572
0.000797135
0.000465141
0.000631062
8.01492e-05
8.01334e-05
8.04632e-05
0.00278012
0.0137407
0.00693743
9.88081e-08
5.45924e-08
1.26774e-06
3.33369e-07
1.31877e-10
1.65868e-11
3.54255e-08
1.25204e-10
8.00207e-10
2.59753e-10
2.00371e-11
6.08995e-12
1.20455e-12
5.51428e-14
0.508824
0.466968
0.326267
0.0140245
0.0740216
0.0020425
0.00083822
0.000828953
0.00086835
0.00199375
8.01433e-05
8.04491e-05
8.87173e-05
0.00466397
0.013711
0.0118669
0.00041333
8.0734e-08
8.50133e-07
7.30294e-09
8.54364e-12
9.77353e-12
9.16244e-12
8.83604e-11
7.67703e-11
7.65904e-11
8.45697e-12
3.80377e-12
2.64576e-13
9.03662e-15
0.774996
0.524183
0.27189
0.000988253
0.000792098
0.00137555
0.00079377
0.000824101
0.00101268
0.00228369
0.00116032
0.00112082
0.000171115
0.00204361
0.0119345
0.0118
0.000651015
8.05806e-09
3.90066e-12
-2.85975e-12
1.59013e-12
4.21734e-12
9.16015e-12
1.50224e-11
1.48049e-11
7.97296e-11
1.32832e-11
4.65307e-13
4.96813e-14
1.37771e-15
0.841404
0.753194
0.179191
0.000797784
0.000631012
0.000659317
0.000713914
0.000794707
0.00199549
0.00230809
0.00230807
0.00230823
0.000252708
2.77512e-06
0.00813126
0.011595
1.5001e-08
2.24457e-09
3.17263e-12
8.45815e-14
3.38197e-13
1.75507e-12
6.83162e-12
1.83703e-11
9.94558e-12
1.6639e-11
1.70044e-12
5.35947e-14
7.75805e-15
1.89202e-16
0.844382
0.799431
0.200691
0.000631011
0.000618143
0.000631011
0.00125895
0.00142943
0.000238755
0.000973794
0.00230829
0.00230807
0.00049247
2.77539e-06
0.000824849
0.011388
0.000404377
-5.42284e-11
-4.03055e-12
7.31996e-14
6.5393e-14
2.30188e-13
1.45508e-12
8.22068e-12
4.67509e-13
2.63274e-12
1.78803e-13
6.11123e-15
9.99141e-16
2.26889e-17
0.572106
0.221604
0.00116426
0.00103527
0.000612848
0.000874835
0.00145712
0.0014518
1.73054e-05
1.72292e-05
0.00207503
0.00133121
0.000110023
2.07919e-06
0.00107017
0.00843226
9.64603e-05
-1.23109e-10
4.99019e-13
8.25421e-14
6.14198e-15
1.67635e-14
1.2365e-13
7.67864e-13
1.62767e-14
2.9655e-13
1.3868e-14
6.61646e-16
1.06324e-16
2.33264e-18
0.0400406
0.0126757
0.0083704
0.000664518
0.000614862
0.00107212
0.00124601
5.49302e-05
1.72378e-05
7.15761e-05
0.000356678
1.27349e-06
1.34716e-05
1.5102e-06
0.000138298
0.000396369
1.00861e-05
5.51708e-13
5.50652e-13
1.70422e-14
5.95777e-16
6.0714e-16
3.16205e-15
2.41927e-14
7.87573e-16
2.41758e-14
7.97159e-16
6.4615e-17
9.40169e-18
2.04015e-19
0.00015524
7.49147e-05
0.00221909
0.00190709
0.000879929
0.000297055
0.000123232
1.40388e-05
3.57821e-05
0.000232161
0.000170705
1.30893e-06
2.94634e-10
5.4925e-11
4.64675e-09
3.99366e-08
1.15208e-08
1.03858e-11
8.96921e-13
1.4058e-14
1.63595e-16
2.06915e-17
4.94437e-17
4.24049e-16
3.99766e-17
1.45934e-15
3.52842e-17
5.51091e-18
6.95532e-19
1.51518e-20
2.28595e-05
1.0297e-05
7.68002e-06
4.44682e-05
0.000896081
0.000483885
1.17748e-05
1.09257e-05
1.09864e-05
0.000435
0.00143683
0.000182768
3.79745e-11
1.0553e-11
1.30692e-11
3.73539e-12
2.35283e-12
1.36988e-13
6.46873e-15
6.3394e-17
6.55019e-19
4.59984e-19
5.68351e-19
4.99954e-18
1.68256e-18
6.71002e-17
1.26734e-18
4.04598e-19
4.33731e-20
9.56712e-22
1.06388e-05
3.50308e-06
1.86169e-06
1.70178e-06
0.000380678
0.000499947
0.000204951
1.10184e-05
1.09263e-05
0.00075465
0.00143691
0.000401894
1.98339e-12
1.74128e-12
5.08464e-12
3.44657e-13
3.68954e-13
1.42446e-14
1.75804e-16
4.07009e-18
4.79418e-20
7.59896e-21
7.20929e-21
5.36065e-20
5.95622e-20
2.45078e-18
3.9662e-20
2.54831e-20
2.29646e-21
5.1463e-23
6.28705e-06
2.21328e-06
1.30911e-06
1.35178e-06
3.01916e-05
0.000483428
0.000477498
0.000324149
1.39775e-05
3.95185e-07
0.000589413
0.000351928
1.36023e-06
1.74652e-12
2.46093e-11
3.42502e-13
2.36106e-14
2.6897e-16
1.87196e-18
2.7292e-20
2.26102e-22
1.59032e-22
2.03347e-22
1.35152e-21
1.84704e-21
7.61637e-20
1.17512e-21
1.38049e-21
1.03919e-22
2.36364e-24
1.24339e-05
2.88798e-06
1.25307e-06
1.30706e-06
1.06623e-05
0.000385934
0.000467748
0.000345585
6.95351e-06
4.1742e-08
3.85813e-07
1.0913e-10
4.3913e-11
4.38243e-11
2.48746e-12
1.2177e-13
5.70197e-15
4.09805e-17
2.98588e-19
3.01278e-21
1.36823e-23
5.33269e-24
6.58901e-24
4.64174e-23
5.19776e-23
2.22844e-21
3.49815e-23
6.46809e-23
4.05227e-24
9.32366e-26
2.2087e-06
1.26865e-06
1.25307e-06
4.11857e-06
3.20992e-05
8.86738e-05
0.000203483
6.18577e-05
4.17443e-08
1.24041e-08
1.20491e-10
4.2516e-11
3.56068e-11
1.30506e-12
2.25723e-15
9.40726e-20
2.19929e-22
2.17091e-24
5.25863e-27
4.1539e-27
2.97391e-26
1.73057e-25
1.90386e-25
1.70863e-24
1.32762e-24
6.7741e-23
1.05765e-24
2.63859e-24
1.37133e-25
3.2147e-27
)
;

boundaryField
{
    leftWall
    {
        type            zeroGradient;
    }
    rightWall
    {
        type            zeroGradient;
    }
    lowerWall
    {
        type            zeroGradient;
    }
    atmosphere
    {
        type            inletOutlet;
        inletValue      uniform 0;
        value           nonuniform List<scalar> 
120
(
0.974687
0.228682
0.0151827
0.014542
0.00607138
0.00031214
0.00060772
0.000104552
6.54637e-08
3.16282e-08
1.88464e-09
7.04097e-10
4.28008e-11
1.87102e-11
7.23766e-12
2.2077e-12
0
0
0
1.67134e-15
2.39307e-16
2.97035e-17
3.14536e-18
2.82512e-19
2.15164e-20
1.39234e-21
7.67035e-23
3.6066e-24
1.45178e-25
5.03348e-27
5.03348e-27
0
8.27091e-24
7.53036e-24
7.08341e-22
0
0
0
0
0
0
0
0
0
0
0
0
0
0
0
0
0
0
0
0.000297512
0
7.42139e-05
0.000104915
0.000104351
1.69815e-05
2.2087e-06
1.26865e-06
1.25307e-06
4.11857e-06
3.20992e-05
8.86738e-05
0.000203483
6.18577e-05
4.17443e-08
1.24041e-08
1.20491e-10
4.2516e-11
0
0
0
0
0
0
0
0
0
0
0
0
0
0
1.05765e-24
2.63859e-24
0
3.2147e-27
0.996573
0.270318
0.0123983
0.011309
0.00737043
0.000443338
0.000623649
0.000117361
1.23644e-07
5.16365e-08
5.47238e-09
9.83873e-10
7.04847e-11
1.51713e-11
7.31999e-12
0
0
0
0
0
0
0
0
0
0
0
0
0
9.32366e-26
3.2147e-27
)
;
    }
    defaultFaces
    {
        type            empty;
    }
}


// ************************************************************************* //
