/*--------------------------------*- C++ -*----------------------------------*\
| =========                 |                                                 |
| \\      /  F ield         | OpenFOAM: The Open Source CFD Toolbox           |
|  \\    /   O peration     | Version:  2.4.0                                 |
|   \\  /    A nd           | Web:      www.OpenFOAM.org                      |
|    \\/     M anipulation  |                                                 |
\*---------------------------------------------------------------------------*/
FoamFile
{
    version     2.0;
    format      ascii;
    class       surfaceScalarField;
    location    "0.027";
    object      phiAlpha;
}
// * * * * * * * * * * * * * * * * * * * * * * * * * * * * * * * * * * * * * //

dimensions      [0 3 -1 0 0 0 0];

internalField   nonuniform List<scalar> 
7080
(
-8.92031e-09
8.92031e-09
-9.28276e-09
3.62487e-10
-1.78444e-08
8.56157e-09
-2.54644e-08
7.61998e-09
-3.39398e-08
8.47543e-09
-4.35448e-08
9.6049e-09
-5.46058e-08
1.10608e-08
-6.86611e-08
1.40556e-08
-8.68679e-08
1.82062e-08
-1.10691e-07
2.38236e-08
-1.41403e-07
3.07119e-08
-1.80144e-07
3.8741e-08
-2.27835e-07
4.76912e-08
-2.85132e-07
5.72971e-08
-3.5237e-07
6.72379e-08
-4.29532e-07
7.71622e-08
-5.16216e-07
8.66837e-08
-6.11608e-07
9.53924e-08
-7.1434e-07
1.02731e-07
-8.22127e-07
1.07787e-07
-9.31137e-07
1.0901e-07
-1.03537e-06
1.04229e-07
-1.12641e-06
9.10424e-08
-1.19351e-06
6.70999e-08
-1.22426e-06
3.07545e-08
-1.19576e-06
-2.85002e-08
-1.06505e-06
-1.30716e-07
-7.61153e-07
-3.03893e-07
-2.52652e-07
-5.08502e-07
-2.4876e-07
-3.89145e-09
-1.00921e-08
1.90124e-08
-1.11225e-08
1.39284e-09
-2.09529e-08
1.83921e-08
-2.96067e-08
1.62735e-08
-3.92091e-08
1.80778e-08
-4.9993e-08
2.03888e-08
-6.21534e-08
2.32205e-08
-7.73369e-08
2.92398e-08
-9.66142e-08
3.74829e-08
-1.21457e-07
4.86665e-08
-1.53077e-07
6.23323e-08
-1.92547e-07
7.82109e-08
-2.40695e-07
9.58397e-08
-2.98069e-07
1.14671e-07
-3.64892e-07
1.34061e-07
-4.41067e-07
1.53338e-07
-5.26245e-07
1.71862e-07
-6.19981e-07
1.89129e-07
-7.21962e-07
2.04711e-07
-8.32227e-07
2.18053e-07
-9.51347e-07
2.2813e-07
-1.08034e-06
2.33219e-07
-1.22045e-06
2.31159e-07
-1.37394e-06
2.20588e-07
-1.5353e-06
1.92116e-07
-1.65769e-06
9.3889e-08
-1.57308e-06
-2.15331e-07
-1.06026e-06
-8.16705e-07
-2.46592e-07
-1.32217e-06
-4.84412e-07
-1.09396e-08
-1.02182e-08
2.92306e-08
-1.09392e-08
2.1138e-09
-2.09082e-08
2.83611e-08
-2.95002e-08
2.48653e-08
-3.90367e-08
2.76142e-08
-4.97218e-08
3.10741e-08
-6.14468e-08
3.49448e-08
-7.60841e-08
4.38779e-08
-9.44849e-08
5.5883e-08
-1.18138e-07
7.23198e-08
-1.48161e-07
9.23556e-08
-1.85554e-07
1.15604e-07
-2.31073e-07
1.41358e-07
-2.85201e-07
1.68798e-07
-3.48124e-07
1.96983e-07
-4.1971e-07
2.24924e-07
-4.99647e-07
2.51799e-07
-5.87728e-07
2.77209e-07
-6.84474e-07
3.01458e-07
-7.92217e-07
3.25796e-07
-9.16672e-07
3.52585e-07
-1.06889e-06
3.85436e-07
-1.26618e-06
4.28446e-07
-1.52351e-06
4.77923e-07
-1.81472e-06
4.83328e-07
-1.98691e-06
2.66071e-07
-1.80351e-06
-3.98727e-07
-1.17752e-06
-1.4427e-06
-4.98178e-07
-2.00151e-06
-9.47537e-07
-3.50539e-08
-1.03734e-08
3.96039e-08
-1.06015e-08
2.34183e-09
-2.07248e-08
3.84845e-08
-2.91949e-08
3.33352e-08
-3.85898e-08
3.70089e-08
-4.90962e-08
4.15807e-08
-6.01032e-08
4.59511e-08
-7.38852e-08
5.76607e-08
-9.08999e-08
7.28972e-08
-1.1271e-07
9.41303e-08
-1.40277e-07
1.19923e-07
-1.74509e-07
1.49836e-07
-2.16062e-07
1.82911e-07
-2.65336e-07
2.18073e-07
-3.22453e-07
2.541e-07
-3.87106e-07
2.89577e-07
-4.58625e-07
3.23318e-07
-5.36062e-07
3.54646e-07
-6.1865e-07
3.84045e-07
-7.06459e-07
4.13605e-07
-8.01027e-07
4.47153e-07
-9.05407e-07
4.89816e-07
-1.02239e-06
5.45428e-07
-1.1447e-06
6.00238e-07
-1.23401e-06
5.72637e-07
-1.23047e-06
2.62525e-07
-1.06958e-06
-5.59615e-07
-8.68341e-07
-1.64394e-06
-8.47871e-07
-2.02198e-06
-1.75786e-06
-3.75483e-08
-1.05828e-08
5.01867e-08
-1.01513e-08
1.9103e-09
-2.0457e-08
4.87902e-08
-2.87843e-08
4.16623e-08
-3.79937e-08
4.62183e-08
-4.83045e-08
5.18918e-08
-5.83451e-08
5.59911e-08
-7.1068e-08
7.03843e-08
-8.62543e-08
8.80831e-08
-1.05691e-07
1.13568e-07
-1.30088e-07
1.44319e-07
-1.60254e-07
1.80002e-07
-1.96727e-07
2.19384e-07
-2.39817e-07
2.61163e-07
-2.89655e-07
3.03938e-07
-3.45811e-07
3.45733e-07
-4.07155e-07
3.84662e-07
-4.71061e-07
4.18552e-07
-5.32521e-07
4.45505e-07
-5.83076e-07
4.64161e-07
-6.1031e-07
4.74386e-07
-5.96805e-07
4.76311e-07
-5.18637e-07
4.6726e-07
-3.51439e-07
4.33041e-07
-8.22002e-08
3.03398e-07
1.5855e-07
2.17748e-08
2.44131e-07
-6.45195e-07
1.35223e-07
-1.53503e-06
-2.89395e-07
-1.59736e-06
-2.07101e-06
2.37549e-08
-1.08507e-08
6.10375e-08
-9.59031e-09
6.49772e-10
-2.00932e-08
5.92931e-08
-2.82747e-08
4.98436e-08
-3.72546e-08
5.5198e-08
-4.73937e-08
6.20313e-08
-5.62059e-08
6.48027e-08
-6.77719e-08
8.19509e-08
-8.06806e-08
1.00991e-07
-9.73e-08
1.30187e-07
-1.17904e-07
1.64923e-07
-1.43226e-07
2.05324e-07
-1.73665e-07
2.49822e-07
-2.09387e-07
2.96885e-07
-2.50647e-07
3.45198e-07
-2.96974e-07
3.9206e-07
-3.4745e-07
4.35139e-07
-3.99599e-07
4.70701e-07
-4.48198e-07
4.94104e-07
-4.82428e-07
4.98391e-07
-4.84995e-07
4.76953e-07
-4.34567e-07
4.25883e-07
-3.07516e-07
3.40209e-07
-7.90478e-08
2.04573e-07
2.26614e-07
-2.26424e-09
6.52826e-07
-4.04437e-07
8.21774e-07
-8.14144e-07
8.62867e-07
-1.57612e-06
5.32218e-07
-1.26672e-06
-1.68605e-06
1.4726e-07
-1.11831e-08
7.22206e-08
-8.918e-09
-1.61548e-09
-1.96227e-08
6.9998e-08
-2.76753e-08
5.78961e-08
-3.63729e-08
6.38954e-08
-4.64177e-08
7.20765e-08
-5.37048e-08
7.20893e-08
-6.41424e-08
9.2389e-08
-7.43169e-08
1.11166e-07
-8.78012e-08
1.43672e-07
-1.04092e-07
1.81214e-07
-1.23962e-07
2.25194e-07
-1.47645e-07
2.73506e-07
-1.75082e-07
3.24322e-07
-2.07175e-07
3.77291e-07
-2.4399e-07
4.28875e-07
-2.86457e-07
4.77606e-07
-3.34527e-07
5.18771e-07
-3.87047e-07
5.46624e-07
-4.4192e-07
5.53265e-07
-4.99347e-07
5.3438e-07
-5.6006e-07
4.86595e-07
-6.04129e-07
3.84278e-07
-5.70593e-07
1.71036e-07
-3.49755e-07
-2.23103e-07
2.23143e-08
-7.76506e-07
3.33673e-07
-1.1255e-06
4.0493e-07
-1.64738e-06
3.07999e-07
-1.16978e-06
-1.49655e-06
1.18499e-07
-1.15879e-08
8.38086e-08
-8.1329e-09
-5.07062e-09
-1.90371e-08
8.09023e-08
-2.70005e-08
6.58593e-08
-3.53446e-08
7.22393e-08
-4.54409e-08
8.21731e-08
-5.08411e-08
7.7489e-08
-6.02518e-08
1.018e-07
-6.72907e-08
1.18204e-07
-7.75158e-08
1.53897e-07
-8.90528e-08
1.92751e-07
-1.02922e-07
2.39063e-07
-1.19088e-07
2.89672e-07
-1.36876e-07
3.4211e-07
-1.57788e-07
3.98203e-07
-1.81545e-07
4.52633e-07
-2.1113e-07
5.07191e-07
-2.5146e-07
5.59102e-07
-3.10525e-07
6.05689e-07
-4.05921e-07
6.4866e-07
-5.4917e-07
6.7763e-07
-7.51164e-07
6.88589e-07
-9.9721e-07
6.30324e-07
-1.1342e-06
3.08022e-07
-9.42315e-07
-4.14983e-07
-6.10501e-07
-1.10832e-06
-1.37749e-07
-1.59825e-06
-2.39293e-07
-1.54583e-06
-7.83398e-08
-1.33074e-06
-1.51788e-06
-5.70119e-08
-1.20755e-08
9.58841e-08
-7.23169e-09
-9.91456e-09
-1.83304e-08
9.2001e-08
-2.62704e-08
7.37992e-08
-3.41718e-08
8.01406e-08
-4.45362e-08
9.25378e-08
-4.76445e-08
8.05969e-08
-5.622e-08
1.10376e-07
-5.96994e-08
1.21683e-07
-6.66519e-08
1.60849e-07
-7.3093e-08
1.99192e-07
-8.05762e-08
2.46547e-07
-8.88737e-08
2.97969e-07
-9.65104e-08
3.49747e-07
-1.06411e-07
4.08104e-07
-1.18148e-07
4.6437e-07
-1.36994e-07
5.26037e-07
-1.70961e-07
5.93068e-07
-2.22698e-07
6.57426e-07
-3.18444e-07
7.44406e-07
-4.76957e-07
8.36143e-07
-7.33543e-07
9.45175e-07
-1.00516e-06
9.01945e-07
-1.0853e-06
3.88161e-07
-8.86734e-07
-6.13552e-07
-6.72957e-07
-1.3221e-06
-3.52658e-07
-1.91855e-06
-3.6793e-07
-1.53056e-06
-6.06608e-09
-1.6926e-06
-1.43252e-06
-9.14234e-08
-1.2664e-08
1.08548e-07
-6.20642e-09
-1.63722e-08
-1.74955e-08
1.0329e-07
-2.55094e-08
8.18131e-08
-3.28857e-08
8.75167e-08
-4.37738e-08
1.03426e-07
-4.42575e-08
8.10802e-08
-5.22227e-08
1.18341e-07
-5.16363e-08
1.21097e-07
-5.5426e-08
1.64639e-07
-5.65878e-08
2.00354e-07
-5.75011e-08
2.4746e-07
-5.75468e-08
2.98015e-07
-5.34375e-08
3.45638e-07
-4.7836e-08
4.02503e-07
-3.59196e-08
4.52453e-07
-2.06512e-08
5.10769e-07
-4.32425e-09
5.76742e-07
6.0129e-09
6.47089e-07
-5.68176e-09
7.56101e-07
-4.41713e-08
8.74633e-07
-1.1846e-07
1.01946e-06
-1.38774e-07
9.2226e-07
-3.31123e-08
2.82499e-07
-1.33943e-08
-6.3327e-07
-4.8212e-08
-1.28728e-06
-1.63504e-07
-1.80326e-06
4.0959e-08
-1.73502e-06
1.34236e-07
-1.78588e-06
-1.2967e-06
-1.58442e-09
-1.33671e-08
1.21915e-07
-5.05503e-09
-2.46844e-08
-1.65275e-08
1.14763e-07
-2.47412e-08
9.00267e-08
-3.15767e-08
9.43521e-08
-4.32084e-08
1.15058e-07
-4.09133e-08
7.87847e-08
-4.84312e-08
1.2586e-07
-4.33758e-08
1.16041e-07
-4.42147e-08
1.65478e-07
-4.0078e-08
1.96217e-07
-3.46817e-08
2.42064e-07
-2.71198e-08
2.90453e-07
-1.27407e-08
3.31259e-07
5.18749e-09
3.84575e-07
3.21703e-08
4.2547e-07
6.39861e-08
4.78953e-07
1.09854e-07
5.30874e-07
1.8341e-07
5.73533e-07
2.96122e-07
6.4339e-07
4.83263e-07
6.87492e-07
7.94049e-07
7.08677e-07
1.14951e-06
5.668e-07
1.33599e-06
9.60221e-08
1.17735e-06
-4.74629e-07
8.7864e-07
-9.88573e-07
4.59588e-07
-1.38421e-06
4.93308e-07
-1.76874e-06
1.8989e-07
-1.48246e-06
-1.09652e-06
-1.02876e-08
-1.42085e-08
1.36124e-07
-3.77018e-09
-3.51228e-08
-1.54151e-08
1.26408e-07
-2.39834e-08
9.8595e-08
-3.03717e-08
1.0074e-07
-4.28783e-08
1.27565e-07
-3.78052e-08
7.37113e-08
-4.49758e-08
1.33031e-07
-3.53798e-08
1.06445e-07
-3.33632e-08
1.63462e-07
-2.40738e-08
1.86928e-07
-1.27267e-08
2.30717e-07
2.5257e-09
2.752e-07
2.57815e-08
3.08003e-07
5.5502e-08
3.54854e-07
1.03007e-07
3.77966e-07
1.63757e-07
4.18203e-07
2.49723e-07
4.44908e-07
3.80839e-07
4.42418e-07
5.24402e-07
4.99827e-07
8.32091e-07
3.79803e-07
1.1063e-06
4.34473e-07
1.38258e-06
2.90511e-07
1.64122e-06
-1.62616e-07
1.42008e-06
-2.53482e-07
1.17171e-06
-7.40212e-07
7.76574e-07
-9.8907e-07
3.6635e-07
-1.35852e-06
3.2378e-08
-1.14849e-06
-9.72057e-07
-9.20875e-08
-1.5211e-08
1.51335e-07
-2.35593e-09
-4.79779e-08
-1.41461e-08
1.38198e-07
-2.32467e-08
1.07696e-07
-2.93683e-08
1.06862e-07
-4.28227e-08
1.41019e-07
-3.50433e-08
6.59317e-08
-4.19753e-08
1.39963e-07
-2.79254e-08
9.23951e-08
-2.31078e-08
1.58645e-07
-9.05607e-09
1.72876e-07
6.57369e-09
2.15088e-07
2.71172e-08
2.54657e-07
5.77167e-08
2.77403e-07
9.39539e-08
3.18617e-07
1.52999e-07
3.18922e-07
2.2234e-07
3.48861e-07
3.09477e-07
3.57771e-07
4.48097e-07
3.03798e-07
5.17597e-07
4.30326e-07
7.2953e-07
1.6787e-07
7.26992e-07
4.37011e-07
8.88981e-07
1.28523e-07
8.81758e-07
-1.55393e-07
7.36476e-07
-1.08201e-07
5.6043e-07
-5.64165e-07
3.20102e-07
-7.48742e-07
-7.93603e-08
-9.59058e-07
-1.92715e-07
-1.03513e-06
-1.13658e-06
-2.81947e-08
-1.64066e-08
1.67742e-07
-8.47598e-10
-6.35368e-08
-1.2696e-08
1.50047e-07
-2.25406e-08
1.1754e-07
-2.86185e-08
1.1294e-07
-4.30923e-08
1.55494e-07
-3.27147e-08
5.55539e-08
-3.9574e-08
1.46823e-07
-2.11753e-08
7.39963e-08
-1.35289e-08
1.50999e-07
4.60179e-09
1.54745e-07
2.39804e-08
1.95709e-07
4.85653e-08
2.30072e-07
8.29367e-08
2.43032e-07
1.22003e-07
2.7955e-07
1.81958e-07
2.58967e-07
2.367e-07
2.94118e-07
3.3071e-07
2.63761e-07
3.73679e-07
2.60828e-07
5.20504e-07
2.83501e-07
5.54755e-07
1.33619e-07
6.79937e-07
3.1183e-07
8.51197e-07
-4.2738e-08
6.96362e-07
-5.58287e-10
7.80651e-07
-1.92489e-07
7.24218e-07
-5.07732e-07
7.15591e-07
-7.40116e-07
5.75482e-07
-8.18949e-07
2.13795e-07
-6.73447e-07
-8.64186e-07
-5.85965e-08
-1.78298e-08
1.85571e-07
1.32583e-09
-8.26924e-08
-1.10327e-08
1.62405e-07
-2.18874e-08
1.28395e-07
-2.81583e-08
1.1921e-07
-4.3747e-08
1.71082e-07
-3.09037e-08
4.27104e-08
-3.79423e-08
1.53862e-07
-1.52864e-08
5.13405e-08
-4.48874e-09
1.40202e-07
1.68537e-08
1.33403e-07
3.79585e-08
1.74604e-07
6.31088e-08
2.04921e-07
9.91373e-08
2.07003e-07
1.38784e-07
2.39903e-07
2.08515e-07
1.89236e-07
2.64854e-07
2.37779e-07
3.64271e-07
1.64344e-07
4.49932e-07
1.75168e-07
5.09842e-07
2.23591e-07
5.9767e-07
4.57907e-08
8.5785e-07
5.165e-08
6.51368e-07
1.63744e-07
7.20398e-07
-6.95885e-08
9.12636e-07
-3.84726e-07
1.12328e-06
-7.18378e-07
1.15643e-06
-7.73265e-07
1.16016e-06
-8.22679e-07
7.02318e-07
-2.15605e-07
3.99239e-08
-2.01792e-07
-1.95321e-08
2.05104e-07
4.38022e-09
-1.06605e-07
-9.125e-09
1.7591e-07
-2.13339e-08
1.40604e-07
-2.80278e-08
1.25904e-07
-4.48471e-08
1.87902e-07
-2.96877e-08
2.7551e-08
-3.7279e-08
1.61453e-07
-1.03547e-08
2.44163e-08
4.17175e-09
1.25675e-07
2.99252e-08
1.07649e-07
5.55016e-08
1.49028e-07
8.53611e-08
1.75062e-07
1.17779e-07
1.74586e-07
1.57544e-07
2.00137e-07
2.10048e-07
1.36731e-07
2.54323e-07
1.93503e-07
3.74029e-07
4.46383e-08
3.42541e-07
2.06656e-07
3.87563e-07
1.78569e-07
7.16058e-07
-2.82704e-07
8.69082e-07
-1.01374e-07
3.96031e-07
6.36796e-07
2.65854e-07
6.05886e-08
5.94824e-07
-7.13697e-07
9.22575e-07
-1.04613e-06
6.72891e-07
-5.2358e-07
3.14302e-07
-4.64091e-07
2.59421e-07
-1.60724e-07
3.6438e-07
-6.50353e-08
-2.15602e-08
2.26664e-07
7.65045e-09
-1.35815e-07
-6.91531e-09
1.90476e-07
-2.0826e-08
1.54515e-07
-2.82722e-08
1.3335e-07
-4.6445e-08
2.06075e-07
-2.91418e-08
1.02478e-08
-3.78911e-08
1.70202e-07
-6.90888e-09
-6.56579e-09
7.21027e-09
1.11556e-07
3.12672e-08
8.35924e-08
5.26125e-08
1.27682e-07
7.51991e-08
1.52476e-07
1.05745e-07
1.4404e-07
1.37909e-07
1.67973e-07
2.19953e-07
5.4686e-08
2.59355e-07
1.54102e-07
4.28172e-07
-1.24179e-07
4.07937e-07
2.26891e-07
5.67718e-07
1.87876e-08
9.59843e-07
-6.74829e-07
1.07668e-06
-2.18207e-07
8.82752e-07
8.30719e-07
4.33884e-07
5.09457e-07
6.3566e-07
-9.15473e-07
5.71205e-07
-9.81675e-07
8.42166e-08
-3.65916e-08
-1.1664e-07
-2.63234e-07
1.30388e-08
-2.90403e-07
3.53136e-07
2.42831e-08
-2.39653e-08
2.50629e-07
1.13234e-08
-1.71104e-07
-4.31346e-09
2.06113e-07
-2.01974e-08
1.70399e-07
-2.8945e-08
1.42098e-07
-4.85745e-08
2.25704e-07
-2.9259e-08
-9.06761e-09
-3.92328e-08
1.80176e-07
-1.45724e-09
-4.43412e-08
2.162e-08
8.84788e-08
5.56222e-08
4.95903e-08
8.96834e-08
9.36209e-08
1.16974e-07
1.25185e-07
1.35743e-07
1.25271e-07
1.69821e-07
1.33896e-07
1.8432e-07
4.01871e-08
2.72119e-07
6.63039e-08
2.78596e-07
-1.30656e-07
5.16428e-07
-1.09405e-08
6.85687e-07
-1.50472e-07
7.16537e-07
-7.05678e-07
7.4722e-07
-2.4889e-07
8.73669e-07
7.0427e-07
1.16712e-06
2.16005e-07
8.75429e-07
-6.2378e-07
5.2978e-07
-6.36026e-07
2.94483e-07
1.98706e-07
9.73491e-09
2.15137e-08
-3.00817e-08
-2.50587e-07
4.07357e-07
-8.43033e-08
-2.68115e-08
2.7744e-07
1.55037e-08
-2.13419e-07
-1.13736e-09
2.22754e-07
-1.93366e-08
1.88598e-07
-3.01115e-08
1.52872e-07
-5.12636e-08
2.46856e-07
-3.04229e-08
-2.99082e-08
-4.55493e-08
1.95303e-07
-7.43427e-09
-8.24562e-08
7.3259e-09
7.37187e-08
3.44687e-08
2.24476e-08
5.30981e-08
7.49915e-08
6.93884e-08
1.08895e-07
7.53108e-08
1.19349e-07
9.53988e-08
1.13808e-07
1.47441e-07
-1.18552e-08
1.9361e-07
2.01353e-08
1.62055e-07
-9.91005e-08
3.04416e-07
-1.53301e-07
3.87264e-07
-2.3332e-07
1.57764e-07
-4.76178e-07
4.91026e-08
-1.40229e-07
5.5983e-07
1.93542e-07
9.78154e-07
-2.02319e-07
3.3161e-07
2.27642e-08
-3.02614e-07
-1.80154e-09
-2.77375e-07
1.73467e-07
-4.51082e-07
1.95221e-07
-4.50709e-07
-2.5096e-07
-8.37099e-08
4.03585e-08
-3.01732e-08
3.07614e-07
2.0285e-08
-2.63877e-07
1.9964e-09
2.41042e-07
-1.82367e-08
2.08831e-07
-3.1854e-08
1.6649e-07
-5.44114e-08
2.69414e-07
-3.20368e-08
-5.22827e-08
-4.45758e-08
2.07842e-07
1.53279e-08
-1.4236e-07
4.28462e-08
4.62007e-08
8.44398e-08
-1.91461e-08
1.37495e-07
2.19367e-08
1.49263e-07
9.71265e-08
1.45336e-07
1.23276e-07
1.4533e-07
1.13815e-07
1.04176e-07
2.92984e-08
1.12146e-07
1.21654e-08
5.12577e-08
-3.82116e-08
4.49059e-09
-1.06534e-07
-1.74136e-07
-5.46931e-08
-4.09738e-07
-2.40576e-07
-4.09347e-07
-1.40619e-07
-2.71854e-07
5.60494e-08
-7.03993e-07
2.29819e-07
-8.32829e-07
1.516e-07
-1.01914e-06
1.84506e-07
-9.09659e-07
6.39889e-08
-3.73932e-07
-3.40506e-07
-3.09993e-07
-3.14899e-07
-2.58913e-07
-1.3479e-07
-3.4137e-08
3.4175e-07
2.57803e-08
-3.23794e-07
5.37201e-09
2.6145e-07
-1.68899e-08
2.31093e-07
-3.42936e-08
1.83893e-07
-5.82162e-08
2.93337e-07
-3.56485e-08
-7.48504e-08
-6.62332e-08
2.38427e-07
-1.8863e-08
-1.89731e-07
6.90471e-10
2.66475e-08
2.42442e-08
-4.26999e-08
4.62572e-08
-7.6083e-11
5.7369e-08
8.60148e-08
2.23995e-08
1.58245e-07
3.89956e-08
9.72188e-08
1.15395e-07
-4.71006e-08
9.57188e-08
3.18414e-08
1.0623e-07
-4.87229e-08
1.05712e-07
-1.06015e-07
9.56511e-08
-4.46326e-08
-7.94845e-08
-6.54408e-08
-8.13641e-08
-1.3874e-07
-1.48261e-07
1.22947e-07
-5.27902e-09
8.68369e-08
1.54455e-07
-8.13453e-09
2.66131e-07
7.28304e-08
3.91619e-07
-6.14986e-08
3.65567e-07
-3.14454e-07
1.83392e-07
-1.32724e-07
3.47264e-07
-4.22785e-07
-3.88025e-08
3.80553e-07
3.2106e-08
-3.94703e-07
9.49249e-09
2.84064e-07
-1.52968e-08
2.55883e-07
-3.75165e-08
2.06113e-07
-6.17809e-08
3.17601e-07
-3.9216e-08
-9.74155e-08
-5.55677e-08
2.54779e-07
3.5041e-08
-2.80339e-07
5.82918e-08
3.39667e-09
1.22557e-07
-1.06965e-07
2.2778e-07
-1.053e-07
2.05144e-07
1.08651e-07
1.76706e-07
1.86683e-07
1.33511e-07
1.40414e-07
5.50473e-08
3.13629e-08
7.59369e-08
1.0952e-08
5.63981e-08
-2.91838e-08
-4.69334e-08
-2.68375e-09
-1.46739e-07
5.51736e-08
-1.49025e-07
-6.31557e-08
-3.39527e-08
-2.53815e-07
1.64757e-07
-7.57635e-08
4.92982e-07
-2.36813e-07
4.51791e-07
3.46155e-08
3.81677e-07
1.42944e-07
2.59569e-07
6.06093e-08
1.56793e-08
-7.0564e-08
1.7329e-07
-2.90332e-07
5.94798e-07
-7.42439e-08
-4.42691e-08
4.24822e-07
3.93628e-08
-4.78335e-07
1.44503e-08
3.08976e-07
-1.34738e-08
2.83807e-07
-4.17235e-08
2.34363e-07
-6.70839e-08
3.42962e-07
-4.69718e-08
-1.17528e-07
-1.01598e-07
3.09405e-07
-3.77539e-08
-3.44184e-07
-1.12961e-08
-2.30612e-08
1.04412e-08
-1.28702e-07
2.94805e-08
-1.24339e-07
3.80029e-08
1.00129e-07
-6.84561e-08
2.93142e-07
-8.84927e-09
8.08074e-08
1.5047e-07
-1.27956e-07
-2.64136e-08
1.87836e-07
-5.63901e-08
7.92958e-10
1.7284e-08
-7.63652e-08
2.5327e-07
-1.84372e-07
5.3758e-07
-3.86306e-07
2.0844e-07
3.61831e-08
-1.16701e-07
1.04727e-07
-8.40529e-07
8.97172e-08
-1.19222e-06
9.02517e-08
-1.39115e-06
9.94276e-08
-1.37516e-06
2.15509e-08
-1.05254e-06
-3.42981e-07
-5.92811e-07
-6.76444e-07
-9.78561e-08
1.44649e-07
-5.06811e-08
4.75503e-07
4.77126e-08
-5.76728e-07
2.04521e-08
3.36237e-07
-1.13856e-08
3.15645e-07
-4.69555e-08
2.69932e-07
-6.72756e-08
3.63282e-07
-5.25439e-08
-1.3226e-07
-8.00998e-08
3.36961e-07
5.3151e-08
-4.77434e-07
5.90727e-08
-2.89828e-08
1.59276e-07
-2.28905e-07
3.9734e-07
-3.62403e-07
3.09753e-07
1.87715e-07
2.3975e-07
3.63146e-07
1.36592e-07
1.83965e-07
-3.90717e-08
4.77083e-08
1.2316e-07
2.5604e-08
-4.80598e-08
1.72013e-07
-4.10529e-07
2.86104e-07
-1.20657e-07
-4.49255e-07
2.09575e-07
-9.83744e-07
1.24618e-07
-1.22186e-07
-3.26767e-08
2.09895e-08
-2.02199e-08
1.04675e-08
-5.10755e-08
-6.0877e-09
-3.47008e-07
-4.33488e-09
-4.17148e-07
1.36013e-08
-3.23034e-07
-3.60442e-07
-7.33437e-07
2.92841e-09
-4.82276e-07
-3.17093e-07
-5.8157e-08
5.3366e-07
5.71857e-08
-6.92071e-07
2.76306e-08
3.65791e-07
-9.23154e-09
3.52507e-07
-5.37783e-08
3.14479e-07
-7.6672e-08
3.86176e-07
-6.89375e-08
-1.39994e-07
-1.49932e-07
4.17955e-07
-6.39157e-08
-5.63451e-07
-3.50368e-08
-5.78614e-08
-3.52099e-09
-2.60421e-07
3.63519e-08
-4.02276e-07
2.07293e-08
2.03337e-07
-2.31421e-07
6.15296e-07
4.37262e-08
-9.11821e-08
3.15008e-07
-2.23573e-07
-1.28363e-07
4.68972e-07
2.23464e-07
-1.79843e-07
-2.1011e-07
7.19664e-07
2.43815e-08
-3.78983e-07
1.19951e-07
-1.36706e-07
-1.61295e-08
7.78064e-09
-1.98218e-09
4.44337e-10
-1.2306e-08
1.56192e-08
-7.27794e-09
-1.63188e-08
2.89491e-09
-1.02035e-07
-4.15421e-08
-2.66662e-08
-1.72913e-08
-4.01603e-07
-1.16987e-07
6.3532e-08
-4.40474e-07
-4.80632e-07
-6.69851e-08
6.00645e-07
6.84459e-08
-8.27501e-07
3.66993e-08
3.97538e-07
-6.5666e-09
3.95773e-07
-6.20098e-08
3.69922e-07
-6.28636e-08
3.8703e-07
-7.78122e-08
-1.25045e-07
-1.26297e-07
4.66441e-07
7.23273e-08
-7.62075e-07
1.24615e-08
2.00446e-09
1.73606e-07
-4.21566e-07
7.13097e-07
-9.41766e-07
4.53239e-07
4.63195e-07
2.8797e-07
7.80565e-07
9.64082e-08
1.0038e-07
3.37638e-07
-4.64802e-07
5.31796e-07
2.74814e-07
-7.26226e-07
1.07818e-06
2.49503e-07
-3.68301e-07
1.25944e-07
-2.37998e-07
-3.62949e-08
1.87551e-08
-4.68792e-08
9.48254e-09
4.65598e-09
-5.69893e-08
4.79661e-09
1.01593e-08
-1.06017e-08
1.25161e-08
-7.39797e-08
-1.73204e-07
-3.84487e-07
-6.71442e-08
-5.34068e-07
-2.03897e-07
-3.65964e-07
-6.15001e-08
-3.33443e-07
-3.0337e-07
-7.69015e-08
6.77546e-07
7.97986e-08
-9.84201e-07
4.66072e-08
4.30729e-07
-4.8559e-09
4.47237e-07
-7.27804e-08
4.37847e-07
-7.82342e-08
3.92484e-07
-1.09635e-07
-9.36444e-08
-2.02222e-07
5.59027e-07
-1.02693e-07
-8.61604e-07
-7.77591e-08
-2.29298e-08
4.33666e-08
-5.42692e-07
1.54411e-07
-1.05281e-06
1.04556e-07
5.1305e-07
-4.1806e-07
1.30318e-06
4.00583e-07
-7.18263e-07
6.51121e-07
-7.1534e-07
-5.2079e-07
1.44673e-06
-2.33671e-07
7.9125e-07
9.5915e-07
-1.56104e-06
-8.36876e-09
1.55269e-07
-3.93728e-09
8.6317e-09
-1.14542e-08
1.30282e-08
-1.05329e-07
2.90023e-08
-4.98572e-07
-1.07996e-07
-5.7687e-07
1.96784e-07
-3.7277e-07
-3.24429e-07
-3.79312e-08
-2.30215e-07
1.46547e-07
-3.34906e-07
2.86321e-07
-5.04036e-08
-1.03371e-07
2.81125e-08
-8.85328e-08
7.66079e-07
9.68831e-08
-1.16962e-06
6.17102e-08
4.65902e-07
-1.58629e-09
5.10533e-07
-8.85691e-08
5.24829e-07
-4.07717e-08
3.44687e-07
-1.40442e-07
6.02536e-09
-1.88497e-07
6.07082e-07
1.0256e-07
-1.15266e-06
-1.55583e-07
2.35213e-07
-9.9593e-08
-5.98682e-07
8.89231e-07
-2.04163e-06
5.73256e-07
8.29056e-07
4.34287e-07
1.44215e-06
1.18609e-06
-1.47007e-06
1.62145e-06
-1.15044e-06
7.8627e-07
2.28205e-06
2.0115e-06
-4.33922e-07
6.78763e-07
-2.28241e-07
-9.30615e-08
1.3434e-06
1.71028e-08
-1.07915e-07
1.15176e-09
2.53082e-08
-1.61881e-07
1.87126e-07
-5.11854e-07
-1.52935e-08
-4.13721e-07
1.86672e-07
-3.1975e-07
-4.15124e-07
-2.35242e-08
-5.72074e-07
5.78185e-08
-4.52838e-07
8.05326e-08
-2.60004e-07
8.68823e-09
-5.47367e-08
-1.15903e-07
8.81983e-07
1.06953e-07
-1.39247e-06
7.40018e-08
4.98853e-07
-2.83505e-09
5.8737e-07
-1.07055e-07
6.29049e-07
-8.14716e-08
3.19103e-07
-1.33172e-07
5.77253e-08
-3.99026e-08
5.13812e-07
5.17973e-08
-1.24436e-06
2.18348e-07
6.86629e-08
-6.5426e-07
2.73927e-07
5.3339e-08
-2.74925e-06
1.98719e-07
6.83676e-07
9.49049e-07
6.91819e-07
1.1757e-06
-1.69672e-06
-2.70984e-07
2.96372e-07
1.01804e-06
9.93082e-07
-3.58264e-07
9.42437e-07
-1.45759e-06
1.20349e-06
-1.10208e-07
9.31063e-07
-2.81029e-09
2.40044e-07
-4.92446e-08
1.01367e-07
1.82286e-06
-7.04557e-07
9.50138e-07
3.56986e-07
6.95819e-07
1.65696e-07
3.55694e-07
4.56853e-08
1.17042e-07
-9.57598e-07
-1.43389e-07
-2.28676e-07
-5.40929e-08
-3.94033e-07
-3.19655e-07
1.98534e-07
1.98169e-07
6.83814e-07
1.60852e-07
-9.92026e-07
1.04176e-07
5.61596e-07
9.25039e-09
6.82296e-07
-1.16345e-07
7.54644e-07
3.14173e-08
1.71341e-07
-4.79566e-07
5.68708e-07
4.19509e-07
-3.85262e-07
-2.0313e-06
1.22701e-06
-1.22097e-06
-3.90318e-07
-2.26864e-07
-3.50219e-07
-1.41749e-06
-2.13153e-08
-6.88149e-07
1.51923e-08
5.0877e-07
-1.6168e-07
2.54503e-07
-4.44554e-07
1.51768e-07
4.06853e-07
6.60958e-07
1.93814e-07
-5.29614e-07
2.11936e-06
5.60584e-07
1.29454e-07
4.89435e-07
1.40626e-06
4.58142e-07
4.22882e-07
6.7377e-07
4.79663e-07
1.2732e-06
-8.45572e-07
1.64266e-06
-3.36105e-07
2.19792e-06
1.22986e-07
2.89846e-06
-4.85699e-07
1.98699e-06
-1.61729e-07
7.28446e-07
1.14904e-07
9.62715e-07
-5.6868e-07
1.16197e-06
-4.59656e-07
2.3728e-07
-2.41172e-07
7.47077e-07
-5.09797e-07
1.0478e-06
-3.00726e-07
1.17745e-06
-1.2965e-07
1.20657e-06
-2.91181e-08
1.1766e-06
2.99689e-08
1.11005e-06
6.65566e-08
1.01911e-06
9.09316e-08
9.14591e-07
1.04523e-07
8.05034e-07
1.09557e-07
6.9664e-07
1.08393e-07
5.93474e-07
1.03167e-07
4.9799e-07
9.54828e-08
4.11657e-07
8.63332e-08
3.35308e-07
7.63489e-08
2.69312e-07
6.59959e-08
2.13622e-07
5.56899e-08
1.6783e-07
4.57922e-08
1.31222e-07
3.66084e-08
1.02824e-07
2.83975e-08
8.14841e-08
2.13395e-08
6.58537e-08
1.56303e-08
5.43808e-08
1.14729e-08
4.55398e-08
8.84094e-09
3.77419e-08
7.79786e-09
3.00725e-08
7.6693e-09
2.22255e-08
7.84684e-09
1.27752e-08
9.45036e-09
1.09599e-08
1.81501e-09
1.09599e-08
2.15464e-07
-4.67576e-07
1.04448e-06
-1.33881e-06
1.55608e-06
-8.12327e-07
1.63791e-06
-2.11482e-07
1.51636e-06
9.24304e-08
1.35696e-06
1.89373e-07
1.20446e-06
2.19057e-07
1.06432e-06
2.31066e-07
9.34679e-07
2.34166e-07
8.14621e-07
2.29615e-07
7.03496e-07
2.19517e-07
6.00977e-07
2.05685e-07
5.07165e-07
1.89295e-07
4.22425e-07
1.71073e-07
3.47185e-07
1.51589e-07
2.81736e-07
1.31446e-07
2.26096e-07
1.11329e-07
1.79963e-07
9.19254e-08
1.42733e-07
7.38384e-08
1.1352e-07
5.76098e-08
9.12534e-08
4.36061e-08
7.4631e-08
3.22525e-08
6.21134e-08
2.39905e-08
5.2195e-08
1.87592e-08
4.32546e-08
1.6738e-08
3.44349e-08
1.64888e-08
2.54964e-08
1.67851e-08
1.47362e-08
2.02105e-08
1.21945e-08
4.35628e-09
2.31545e-08
4.29604e-07
-9.32233e-07
1.13599e-06
-2.04519e-06
1.78231e-06
-1.45865e-06
1.96983e-06
-3.99004e-07
1.80003e-06
2.62228e-07
1.51022e-06
4.79181e-07
1.25306e-06
4.76224e-07
1.05467e-06
4.29458e-07
9.00626e-07
3.88206e-07
7.74384e-07
3.55857e-07
6.65321e-07
3.2858e-07
5.67908e-07
3.03098e-07
4.79832e-07
2.77371e-07
4.00506e-07
2.50399e-07
3.3004e-07
2.22054e-07
2.68646e-07
1.9284e-07
2.16366e-07
1.63608e-07
1.72931e-07
1.35361e-07
1.3782e-07
1.0895e-07
1.10218e-07
8.52113e-08
8.91679e-08
6.46561e-08
7.34413e-08
4.7979e-08
6.1538e-08
3.58938e-08
5.20261e-08
2.82708e-08
4.32331e-08
2.55309e-08
3.44482e-08
2.52736e-08
2.55396e-08
2.56935e-08
1.45597e-08
3.11904e-08
1.23564e-08
6.55926e-09
3.55109e-08
7.89036e-07
-1.75882e-06
8.19223e-07
-2.07538e-06
1.05812e-06
-1.69755e-06
1.23708e-06
-5.77966e-07
1.24598e-06
2.53332e-07
1.14913e-06
5.76033e-07
1.01916e-06
6.06194e-07
8.95348e-07
5.53268e-07
7.85778e-07
4.97776e-07
6.87765e-07
4.5387e-07
5.98048e-07
4.18297e-07
5.14795e-07
3.86351e-07
4.37639e-07
3.54527e-07
3.67081e-07
3.20958e-07
3.03863e-07
2.85272e-07
2.48513e-07
2.48189e-07
2.01251e-07
2.10871e-07
1.61868e-07
1.74743e-07
1.29972e-07
1.40846e-07
1.04831e-07
1.10353e-07
8.56615e-08
8.38253e-08
7.13379e-08
6.23025e-08
6.04073e-08
4.68243e-08
5.15464e-08
3.71314e-08
4.30167e-08
3.40605e-08
3.43212e-08
3.3969e-08
2.54893e-08
3.45253e-08
1.42328e-08
4.24471e-08
1.25633e-08
8.22853e-09
4.80744e-08
3.61626e-07
-2.09669e-06
-5.38947e-08
-1.65986e-06
-1.56621e-07
-1.59482e-06
-7.29523e-08
-6.61636e-07
1.42501e-07
3.78793e-08
3.82101e-07
3.36432e-07
5.26794e-07
4.615e-07
5.89428e-07
4.90635e-07
5.93667e-07
4.93536e-07
5.61533e-07
4.86005e-07
5.08983e-07
4.70847e-07
4.47409e-07
4.47924e-07
3.84484e-07
4.17452e-07
3.24713e-07
3.80729e-07
2.70457e-07
3.39527e-07
2.22697e-07
2.95949e-07
1.81825e-07
2.51742e-07
1.47612e-07
2.08956e-07
1.19851e-07
1.68607e-07
9.78624e-08
1.32341e-07
8.1127e-08
1.00561e-07
6.86355e-08
7.47938e-08
5.89669e-08
5.64927e-08
5.09389e-08
4.51592e-08
4.27414e-08
4.22579e-08
3.415e-08
4.25605e-08
2.54035e-08
4.32717e-08
1.38011e-08
5.40497e-08
1.284e-08
9.18954e-09
6.09145e-08
-2.56416e-07
-1.69301e-06
-6.18987e-07
-1.29729e-06
-6.49047e-07
-1.56476e-06
-5.52128e-07
-7.58555e-07
-1.90765e-07
-3.23483e-07
9.01671e-08
5.54998e-08
2.97474e-07
2.54194e-07
4.13123e-07
3.74986e-07
4.57767e-07
4.48892e-07
4.5306e-07
4.90712e-07
4.19198e-07
5.04709e-07
3.7245e-07
4.94673e-07
3.22683e-07
4.67218e-07
2.74693e-07
4.28719e-07
2.30853e-07
3.83366e-07
1.92006e-07
3.34797e-07
1.58739e-07
2.85009e-07
1.30611e-07
2.37085e-07
1.0779e-07
1.91429e-07
8.95184e-08
1.50613e-07
7.57062e-08
1.14373e-07
6.54496e-08
8.50502e-08
5.7278e-08
6.46643e-08
5.02425e-08
5.21945e-08
4.24273e-08
5.00729e-08
3.39383e-08
5.10495e-08
2.52705e-08
5.19395e-08
1.32658e-08
6.60545e-08
1.31897e-08
9.26562e-09
7.41044e-08
-1.34288e-07
-1.44022e-06
-2.99975e-07
-1.1316e-06
-2.55928e-07
-1.60881e-06
-2.0348e-08
-9.94134e-07
3.02284e-07
-6.46115e-07
4.87375e-07
-1.29592e-07
5.23698e-07
2.17872e-07
4.93216e-07
4.05467e-07
4.45912e-07
4.96196e-07
3.98499e-07
5.38124e-07
3.50503e-07
5.52705e-07
3.03319e-07
5.41857e-07
2.59502e-07
5.11035e-07
2.20574e-07
4.67646e-07
1.86888e-07
4.17052e-07
1.57517e-07
3.64167e-07
1.32824e-07
3.09703e-07
1.11392e-07
2.58517e-07
9.42047e-08
2.08616e-07
8.00295e-08
1.64788e-07
6.95653e-08
1.24837e-07
6.19201e-08
9.26951e-08
5.5371e-08
7.12133e-08
4.95029e-08
5.80624e-08
4.20977e-08
5.74781e-08
3.36878e-08
5.94594e-08
2.50769e-08
6.05504e-08
1.26246e-08
7.85069e-08
1.36176e-08
8.27275e-09
8.77221e-08
-2.86651e-08
-1.46857e-06
1.12603e-07
-1.27287e-06
6.27319e-08
-1.55894e-06
5.31641e-07
-1.46304e-06
8.44349e-07
-9.58823e-07
1.00425e-06
-2.89497e-07
8.64843e-07
3.57282e-07
6.49158e-07
6.21153e-07
4.75391e-07
6.69963e-07
3.50727e-07
6.62787e-07
2.68006e-07
6.35426e-07
2.17417e-07
5.92445e-07
1.82827e-07
5.45625e-07
1.57477e-07
4.92997e-07
1.37289e-07
4.3724e-07
1.19247e-07
3.82209e-07
1.04513e-07
3.24436e-07
9.03854e-08
2.72645e-07
7.95426e-08
2.19459e-07
6.96488e-08
1.74681e-07
6.29009e-08
1.31585e-07
5.80646e-08
9.75313e-08
5.33086e-08
7.59693e-08
4.8777e-08
6.25939e-08
4.17809e-08
6.44741e-08
3.34021e-08
6.78382e-08
2.48103e-08
6.91422e-08
1.18729e-08
9.14443e-08
1.41311e-08
6.01468e-09
1.01853e-07
-1.09847e-07
-1.45015e-06
2.81162e-07
-1.66388e-06
2.47738e-07
-1.52551e-06
6.36318e-07
-1.85162e-06
8.56964e-07
-1.17947e-06
1.03797e-06
-4.70504e-07
9.21585e-07
4.73668e-07
6.43785e-07
8.98953e-07
4.04419e-07
9.09329e-07
2.63237e-07
8.03969e-07
1.79583e-07
7.1908e-07
1.36047e-07
6.35981e-07
1.08399e-07
5.73273e-07
9.39322e-08
5.07464e-07
8.60388e-08
4.45133e-07
7.89871e-08
3.89261e-07
7.47534e-08
3.2867e-07
6.79879e-08
2.7941e-07
6.41205e-08
2.23326e-07
5.85414e-08
1.8026e-07
5.58695e-08
1.34257e-07
5.39846e-08
9.9416e-08
5.11709e-08
7.8783e-08
4.81324e-08
6.56323e-08
4.15108e-08
7.10956e-08
3.30924e-08
7.62565e-08
2.44597e-08
7.77748e-08
1.10039e-08
1.049e-07
1.47404e-08
2.27821e-09
1.16594e-07
-1.07997e-07
-1.34374e-06
1.8776e-08
-1.79065e-06
1.42793e-07
-1.64953e-06
4.57848e-08
-1.75462e-06
2.1078e-08
-1.15476e-06
6.22354e-08
-5.11661e-07
1.49297e-07
3.86607e-07
1.00613e-07
9.47637e-07
1.24809e-08
9.97461e-07
-2.77405e-08
8.4419e-07
-3.72358e-08
7.28575e-07
-2.48798e-08
6.23625e-07
-5.77455e-09
5.54168e-07
1.27479e-08
4.88941e-07
2.81349e-08
4.29746e-07
3.62942e-08
3.81101e-07
4.4108e-08
3.20856e-07
4.45396e-08
2.78978e-07
4.83629e-08
2.19503e-07
4.67e-08
1.81923e-07
4.85985e-08
1.32358e-07
4.98313e-08