/*--------------------------------*- C++ -*----------------------------------*\
| =========                 |                                                 |
| \\      /  F ield         | OpenFOAM: The Open Source CFD Toolbox           |
|  \\    /   O peration     | Version:  2.4.0                                 |
|   \\  /    A nd           | Web:      www.OpenFOAM.org                      |
|    \\/     M anipulation  |                                                 |
\*---------------------------------------------------------------------------*/
FoamFile
{
    version     2.0;
    format      ascii;
    class       surfaceScalarField;
    location    "0.181";
    object      phiAlpha;
}
// * * * * * * * * * * * * * * * * * * * * * * * * * * * * * * * * * * * * * //

dimensions      [0 3 -1 0 0 0 0];

internalField   nonuniform List<scalar> 
28560
(
8.52555e-09
-2.15122e-08
1.29867e-08
-1.56786e-08
2.16101e-08
-5.93152e-09
-2.45914e-08
2.84625e-08
-3.87108e-09
-3.36114e-08
3.52513e-08
-1.63993e-09
-3.52627e-08
3.1495e-08
3.76766e-09
-2.64987e-08
1.88413e-08
7.6574e-09
-1.06665e-08
2.83795e-09
7.82856e-09
5.73361e-09
-1.24738e-08
6.74022e-09
1.84683e-08
-2.20116e-08
3.54332e-09
2.41394e-08
-2.46094e-08
4.70053e-10
2.35886e-08
-2.14318e-08
-2.15675e-09
1.84977e-08
-1.53927e-08
-3.105e-09
1.21381e-08
-9.21979e-09
-2.91828e-09
6.40207e-09
-4.07882e-09
-2.32325e-09
1.96428e-09
-2.98547e-10
-1.66573e-09
-1.15676e-09
2.29515e-09
-1.13839e-09
-3.25772e-09
3.98139e-09
-7.23669e-10
-4.56485e-09
4.97498e-09
-4.10138e-10
-5.27803e-09
5.45708e-09
-1.79058e-10
-5.552e-09
5.56596e-09
-1.39568e-11
-5.51391e-09
5.41209e-09
1.01817e-10
-5.26e-09
5.08067e-09
1.79328e-10
-4.86274e-09
4.63381e-09
2.28934e-10
-4.37465e-09
4.11528e-09
2.59367e-10
-3.8309e-09
3.55348e-09
2.77418e-10
-3.2573e-09
2.97448e-09
2.82822e-10
-2.67809e-09
2.39946e-09
2.78635e-10
-2.11215e-09
1.84563e-09
2.66518e-10
-1.57491e-09
1.32648e-09
2.48431e-10
-1.07543e-09
8.47464e-10
2.27964e-10
3.40599e-08
-4.51148e-08
1.10549e-08
-2.57108e-08
4.2544e-08
1.96152e-08
-3.64484e-08
-5.42128e-08
6.45633e-08
1.2403e-08
-2.27535e-08
-8.02782e-08
8.76894e-08
6.95461e-09
-1.43658e-08
-9.34443e-08
9.29577e-08
-6.4624e-09
6.94901e-09
-8.93207e-08
8.08599e-08
-1.77196e-08
2.61804e-08
-6.9819e-08
5.76622e-08
-2.05771e-08
3.27339e-08
-4.20194e-08
2.79871e-08
-2.0179e-08
3.42113e-08
-1.2556e-08
-2.88425e-10
-1.43648e-08
2.72093e-08
1.20389e-08
-2.10677e-08
-6.33739e-09
1.53662e-08
2.75925e-08
-3.0747e-08
2.05764e-09
1.09683e-09
3.16632e-08
-3.08328e-08
6.07314e-09
-6.90355e-09
2.89392e-08
-2.65712e-08
6.60115e-09
-8.96912e-09
2.37888e-08
-2.11679e-08
5.67246e-09
-8.29339e-09
1.84422e-08
-1.60238e-08
4.38673e-09
-6.80511e-09
1.36053e-08
-1.14684e-08
3.27992e-09
-5.41685e-09
9.38832e-09
-7.5761e-09
2.36954e-09
-4.18177e-09
5.8479e-09
-4.37569e-09
1.63536e-09
-3.10757e-09
3.00013e-09
-1.855e-09
1.05808e-09
-2.20321e-09
8.09611e-10
3.91333e-11
6.05623e-10
-1.45437e-09
-7.97684e-10
1.4086e-09
2.60297e-10
-8.71211e-10
-1.93436e-09
2.33977e-09
7.18959e-12
-4.12602e-10
-2.67488e-09
2.91159e-09
-1.78737e-10
-5.79699e-11
-3.08414e-09
3.18117e-09
-3.15188e-10
2.18166e-10
-3.22041e-09
3.20448e-09
-4.13902e-10
4.29832e-10
-3.13881e-09
3.03769e-09
-4.74825e-10
5.7595e-10
-2.89751e-09
2.73996e-09
-5.02223e-10
6.59782e-10
-2.55575e-09
2.36775e-09
-5.01357e-10
6.89358e-10
-2.16284e-09
1.96587e-09
-4.81178e-10
6.78142e-10
-1.75957e-09
1.56817e-09
-4.48113e-10
6.39514e-10
5.49392e-08
-6.40021e-08
9.06297e-09
-2.17351e-08
3.95364e-08
5.4121e-08
-7.19222e-08
-5.2041e-08
6.30323e-08
3.3616e-08
-4.46074e-08
-8.11873e-08
8.96853e-08
2.26315e-08
-3.11295e-08
-9.73827e-08
9.90862e-08
-5.95024e-09
4.24665e-09
-9.76322e-08
9.18759e-08
-3.29148e-08
3.86711e-08
-8.33618e-08
7.40804e-08
-4.32217e-08
5.25031e-08
-6.12342e-08
5.00315e-08
-4.68027e-08
5.80054e-08
-3.72736e-08
2.64314e-08
-3.93891e-08
5.02313e-08
-1.63415e-08
8.08081e-09
-2.46153e-08
3.2876e-08
-9.20822e-10
-4.00639e-09
-5.81408e-09
1.07413e-08
7.38531e-09
-9.02432e-09
6.05077e-09
-4.41176e-09
9.55233e-09
-9.23814e-09
1.0025e-08
-1.03392e-08
8.30144e-09
-7.14292e-09
1.00122e-08
-1.11707e-08
5.69848e-09
-4.29298e-09
8.64229e-09
-1.00478e-08
2.78777e-09
-1.40337e-09
7.18515e-09
-8.56955e-09
2.8866e-11
1.17688e-09
5.75029e-09
-6.95604e-09
-2.32599e-09
3.28049e-09
4.40346e-09
-5.35796e-09
-4.15093e-09
4.84171e-09
3.20225e-09
-3.89303e-09
-5.43515e-09
5.88024e-09
2.19745e-09
-2.64253e-09
-6.24347e-09
6.49087e-09
1.37965e-09
-1.62706e-09
-6.66046e-09
6.74459e-09
7.31328e-10
-8.15453e-10
-6.76148e-09
6.71219e-09
2.15409e-10
-1.66118e-10
-6.59796e-09
6.4337e-09
-1.98695e-10
3.62947e-10
-6.20661e-09
5.94276e-09
-5.25206e-10
7.89056e-10
-5.61974e-09
5.27537e-09
-7.61904e-10
1.10628e-09
-4.87961e-09
4.47938e-09
-9.06837e-10
1.30707e-09
-4.03983e-09
3.61178e-09
-9.68875e-10
1.39692e-09
-3.15821e-09
2.72985e-09
-9.65828e-10
1.39418e-09
-2.28742e-09
1.88042e-09
-9.16275e-10
1.32327e-09
7.26473e-08
-8.1065e-08
8.41774e-09
-2.01268e-08
3.79993e-08
8.97467e-08
-1.07619e-07
-5.02186e-08
6.13043e-08
5.56585e-08
-6.67442e-08
-7.99098e-08
8.84487e-08
3.96556e-08
-4.81946e-08
-9.64169e-08
9.84822e-08
-2.27952e-09
2.14221e-10
-9.74194e-08
9.21252e-08
-4.4046e-08
4.93402e-08
-8.41888e-08
7.57255e-08
-6.11857e-08
6.9649e-08
-6.37e-08
5.36695e-08
-6.83878e-08
7.84183e-08
-4.24204e-08
3.31532e-08
-6.0052e-08
6.93191e-08
-2.50125e-08
1.87506e-08
-3.99771e-08
4.62391e-08
-1.32881e-08
9.31697e-09
-1.52481e-08
1.92192e-08
-6.28616e-09
4.56171e-09
2.57744e-09
-8.52987e-10
-3.76102e-09
3.70613e-09
1.03598e-08
-1.0305e-08
-4.25407e-09
5.04899e-09
1.20472e-08
-1.28421e-08
-6.08354e-09
7.08374e-09
1.12163e-08
-1.22165e-08
-8.09494e-09
8.95459e-09
9.65872e-09
-1.05184e-08
-9.7366e-09
1.03426e-08
7.82945e-09
-8.43543e-09
-1.08373e-08
1.1172e-08
5.97129e-09
-6.30605e-09
-1.13968e-08
1.14931e-08
4.25424e-09
-4.35056e-09
-1.1491e-08
1.14004e-08
2.79056e-09
-2.70001e-09
-1.12265e-08
1.09958e-08
1.60506e-09
-1.37441e-09
-1.06988e-08
1.03734e-08
6.67297e-10
-3.41872e-10
-9.99238e-09
9.59835e-09
-8.12784e-11
4.75311e-10
-9.15419e-09
8.70658e-09
-6.95095e-10
1.1427e-09
-8.20954e-09
7.71452e-09
-1.1968e-09
1.69182e-09
-7.17054e-09
6.63419e-09
-1.57744e-09
2.11378e-09
-6.05206e-09
5.48689e-09
-1.82373e-09
2.3889e-09
-4.8842e-09
4.3098e-09
-1.93276e-09
2.50717e-09
-3.70923e-09
3.14809e-09
-1.92364e-09
2.48478e-09
-2.57176e-09
2.04279e-09
-1.82387e-09
2.35285e-09
8.93457e-08
-9.75222e-08
8.17647e-09
-1.97305e-08
3.77557e-08
1.25562e-07
-1.43587e-07
-4.98762e-08
6.09337e-08
7.78309e-08
-8.88883e-08
-7.98531e-08
8.85222e-08
5.67817e-08
-6.54509e-08
-9.65063e-08
9.87112e-08
1.9161e-09
-4.12102e-09
-9.76739e-08
9.22759e-08
-5.46679e-08
6.00659e-08
-8.43819e-08
7.59567e-08
-7.80634e-08
8.64886e-08
-6.38059e-08
5.38377e-08
-8.83582e-08
9.83264e-08
-4.26546e-08
3.36258e-08
-7.83725e-08
8.74012e-08
-2.59766e-08
2.03668e-08
-5.20377e-08
5.76475e-08
-1.57118e-08
1.2449e-08
-2.2759e-08
2.60218e-08
-9.98965e-09
8.6247e-09
-6.85463e-10
2.05041e-09
-8.08228e-09
8.13813e-09
1.02871e-08
-1.0343e-08
-8.74502e-09
9.50794e-09
1.36005e-08
-1.43634e-08
-1.04563e-08
1.13143e-08
1.3125e-08
-1.3983e-08
-1.21141e-08
1.27248e-08
1.12222e-08
-1.18329e-08
-1.32036e-08
1.35081e-08
8.85402e-09
-9.15849e-09
-1.36744e-08
1.37047e-08
6.45259e-09
-6.48287e-09
-1.3614e-08
1.34278e-08
4.26897e-09
-4.08278e-09
-1.31388e-08
1.27865e-08
2.44766e-09
-2.09534e-09
-1.23517e-08
1.18903e-08
1.0035e-09
-5.42088e-10
-1.13628e-08
1.08348e-08
-1.05528e-10
6.33565e-10
-1.02579e-08
9.69707e-09
-9.6771e-10
1.52849e-09
-9.10004e-09
8.53053e-09
-1.66318e-09
2.23269e-09
-7.93064e-09
7.36323e-09
-2.23329e-09
2.8007e-09
-6.76989e-09
6.21137e-09
-2.67088e-09
3.2294e-09
-5.62946e-09
5.08411e-09
-2.95485e-09
3.5002e-09
-4.51973e-09
3.99445e-09
-3.06824e-09
3.59351e-09
-3.45579e-09
2.95898e-09
-3.02569e-09
3.5225e-09
-2.45395e-09
1.9933e-09
-2.8589e-09
3.31954e-09
1.05601e-07
-1.13579e-07
7.97768e-09
-1.95268e-08
3.77335e-08
1.617e-07
-1.79907e-07
-4.98425e-08
6.0774e-08
9.98924e-08
-1.10824e-07
-8.01249e-08
8.90066e-08
7.42213e-08
-8.3103e-08
-9.69881e-08
9.9393e-08
6.41755e-09
-8.82246e-09
-9.83567e-08
9.27842e-08
-6.55468e-08
7.11193e-08
-8.48878e-08
7.64131e-08
-9.49383e-08
1.03413e-07
-6.39591e-08
5.3825e-08
-1.08368e-07
1.18503e-07
-4.23352e-08
3.31386e-08
-9.64941e-08
1.05691e-07
-2.54756e-08
1.98531e-08
-6.32257e-08
6.88483e-08
-1.53163e-08
1.22725e-08
-2.91341e-08
3.21779e-08
-1.00827e-08
8.96811e-09
-3.27482e-09
4.38942e-09
-8.66651e-09
8.89603e-09
1.04841e-08
-1.07137e-08
-9.66084e-09
1.04981e-08
1.51544e-08
-1.59917e-08
-1.14945e-08
1.23471e-08
1.48246e-08
-1.56772e-08
-1.31075e-08
1.36572e-08
1.23971e-08
-1.29468e-08
-1.40566e-08
1.42764e-08
9.39997e-09
-9.61978e-09
-1.43531e-08
1.42964e-08
6.45149e-09
-6.39476e-09
-1.41186e-08
1.38468e-08
3.83792e-09
-3.56611e-09
-1.34664e-08
1.30281e-08
1.68719e-09
-1.24884e-09
-1.25007e-08
1.19465e-08
2.2592e-11
5.31678e-10
-1.13227e-08
1.07016e-08
-1.21706e-09
1.83812e-09
-1.00301e-08
9.38426e-09
-2.13783e-09
2.78369e-09
-8.70486e-09
8.0686e-09
-2.83962e-09
3.47588e-09
-7.41288e-09
6.80902e-09
-3.38761e-09
3.99146e-09
-6.19663e-09
5.6392e-09
-3.78587e-09
4.3433e-09
-5.07845e-09
4.57063e-09
-4.02311e-09
4.53093e-09
-4.06182e-09
3.60232e-09
-4.08121e-09
4.54071e-09
-3.14237e-09
2.72666e-09
-3.97359e-09
4.3893e-09
-2.30996e-09
1.93353e-09
-3.73279e-09
4.10922e-09
1.21445e-07
-1.29187e-07
7.74237e-09
-1.92979e-08
3.77186e-08
1.98214e-07
-2.16635e-07
-4.98506e-08
6.05942e-08
1.21669e-07
-1.32413e-07
-8.05108e-08
8.96332e-08
9.21033e-08
-1.01226e-07
-9.76232e-08
1.00294e-07
1.1352e-08
-1.40229e-08
-9.92567e-08
9.34693e-08
-7.67939e-08
8.25814e-08
-8.55727e-08
7.70525e-08
-1.11912e-07
1.20432e-07
-6.42216e-08
5.38685e-08
-1.28741e-07
1.39094e-07
-4.19717e-08
3.25109e-08
-1.15012e-07
1.24473e-07
-2.47662e-08
1.89781e-08
-7.45476e-08
8.03357e-08
-1.43572e-08
1.13383e-08
-3.51986e-08
3.82175e-08
-9.25059e-09
8.30285e-09
-5.41518e-09
6.36292e-09
-8.19951e-09
8.61093e-09
1.1033e-08
-1.14444e-08
-9.57797e-09
1.05421e-08
1.68868e-08
-1.78509e-08
-1.16624e-08
1.25867e-08
1.65576e-08
-1.74818e-08
-1.33964e-08
1.39701e-08
1.35016e-08
-1.40752e-08
-1.43864e-08
1.4614e-08
9.83703e-09
-1.00646e-08
-1.46949e-08
1.46425e-08
6.3347e-09
-6.28235e-09
-1.44617e-08
1.41828e-08
3.2853e-09
-3.00638e-09
-1.37884e-08
1.3329e-08
7.96942e-10
-3.37614e-10
-1.2773e-08
1.21852e-08
-1.10605e-09
1.69386e-09
-1.15197e-08
1.08546e-08
-2.48483e-09
3.14991e-09
-1.01343e-08
9.44154e-09
-3.4565e-09
4.1493e-09
-8.71404e-09
8.03472e-09
-4.13635e-09
4.81567e-09
-7.33941e-09
6.70528e-09
-4.61132e-09
5.24545e-09
-6.06962e-09
5.49859e-09
-4.90593e-09
5.47696e-09
-4.93307e-09
4.43e-09
-5.03246e-09
5.53553e-09
-3.93492e-09
3.49507e-09
-4.98491e-09
5.42475e-09
-3.0617e-09
2.67471e-09
-4.78404e-09
5.17103e-09
-2.29067e-09
1.94575e-09
-4.46314e-09
4.80806e-09
1.36794e-07
-1.44252e-07
7.45816e-09
-1.90006e-08
3.77231e-08
2.35191e-07
-2.53914e-07
-4.98578e-08
6.03568e-08
1.4304e-07
-1.53539e-07
-8.09668e-08
9.03423e-08
1.10473e-07
-1.19848e-07
-9.83575e-08
1.01363e-07
1.68522e-08
-1.98577e-08
-1.00322e-07
9.42717e-08
-8.84933e-08
9.45435e-08
-8.63816e-08
7.78275e-08
-1.28971e-07
1.37525e-07
-6.45482e-08
5.39331e-08
-1.49572e-07
1.60187e-07
-4.1544e-08
3.17679e-08
-1.34085e-07
1.43861e-07
-2.396e-08
1.79796e-08
-8.62176e-08
9.2198e-08
-1.32396e-08
1.02017e-08
-4.12438e-08
4.42816e-08
-8.16424e-09
7.36543e-09
-7.23684e-09
8.03565e-09
-7.45495e-09
8.06578e-09
1.19525e-08
-1.25634e-08
-9.27194e-09
1.03975e-08
1.88941e-08
-2.00196e-08
-1.16888e-08
1.27232e-08
1.84579e-08
-1.94923e-08
-1.36166e-08
1.42533e-08
1.46786e-08
-1.53152e-08
-1.47164e-08
1.49775e-08
1.03081e-08
-1.05693e-08
-1.5092e-08
1.50647e-08
6.23993e-09
-6.21264e-09
-1.49087e-08
1.46457e-08
2.73524e-09
-2.47225e-09
-1.42632e-08
1.3806e-08
-1.20643e-10
5.77883e-10
-1.3244e-08
1.26444e-08
-2.28802e-09
2.88768e-09
-1.196e-08
1.12734e-08
-3.82727e-09
4.51388e-09
-1.05259e-08
9.8046e-09
-4.85745e-09
5.5787e-09
-9.04734e-09
8.3404e-09
-5.50987e-09
6.21681e-09
-7.6169e-09
6.95624e-09
-5.89302e-09
6.55369e-09
-6.29425e-09
5.70001e-09
-6.05883e-09
6.65307e-09
-5.11229e-09
4.58978e-09
-6.04626e-09
6.56877e-09
-4.07656e-09
3.62108e-09
-5.86932e-09
6.3248e-09
-3.17233e-09
2.77214e-09
-5.56038e-09
5.96056e-09
-2.37533e-09
2.01921e-09
-5.1548e-09
5.51092e-09
1.51548e-07
-1.58669e-07
7.12081e-09
-1.86231e-08
3.77666e-08
2.72832e-07
-2.91975e-07
-4.98609e-08
6.00614e-08
1.63896e-07
-1.74096e-07
-8.14833e-08
9.1125e-08
1.29355e-07
-1.38997e-07
-9.91843e-08
1.02598e-07
2.30578e-08
-2.64715e-08
-1.01553e-07
9.51857e-08
-1.00745e-07
1.07113e-07
-8.73103e-08
7.87421e-08
-1.46089e-07
1.54657e-07
-6.49421e-08
5.40168e-08
-1.70951e-07
1.81877e-07
-4.10297e-08
3.08915e-08
-1.53813e-07
1.63951e-07
-2.30579e-08
1.68656e-08
-9.82814e-08
1.04474e-07
-1.1992e-08
8.92558e-09
-4.73329e-08
5.03993e-08
-6.92068e-09
6.28353e-09
-8.75622e-09
9.39337e-09
-6.58096e-09
7.42096e-09
1.32841e-08
-1.41241e-08
-8.90568e-09
1.02202e-08
2.12364e-08
-2.25509e-08
-1.17211e-08
1.28903e-08
2.05916e-08
-2.17608e-08
-1.38882e-08
1.45967e-08
1.59878e-08
-1.66963e-08
-1.5117e-08
1.54164e-08
1.08512e-08
-1.11506e-08
-1.55689e-08
1.55818e-08
6.20441e-09
-6.21729e-09
-1.54591e-08
1.52238e-08
2.22455e-09
-1.98922e-09
-1.48618e-08
1.44158e-08
-1.03002e-09
1.47603e-09
-1.38553e-08
1.32503e-08
-3.49057e-09
4.09563e-09
-1.2553e-08
1.18487e-08
-5.20957e-09
5.91384e-09
-1.10803e-08
1.03374e-08
-6.31066e-09
7.0536e-09
-9.5558e-09
8.82455e-09
-6.93509e-09
7.66635e-09
-8.07403e-09
7.38746e-09
-7.22706e-09
7.91363e-09
-6.69695e-09
6.07411e-09
-7.26087e-09
7.88371e-09
-5.45483e-09
4.90128e-09
-7.10567e-09
7.65922e-09
-4.35369e-09
3.86486e-09
-6.79581e-09
7.28464e-09
-3.38073e-09
2.94696e-09
-6.376e-09
6.80977e-09
-2.51551e-09
2.12717e-09
-5.88154e-09
6.26988e-09
1.65601e-07
-1.7233e-07
6.72928e-09
-1.81575e-08
3.78538e-08
3.11379e-07
-3.31075e-07
-4.98698e-08
5.97209e-08
1.84129e-07
-1.9398e-07
-8.2061e-08
9.199e-08
1.48779e-07
-1.58708e-07
-1.00117e-07
1.0402e-07
3.01195e-08
-3.40231e-08
-1.02973e-07
9.62271e-08
-1.13662e-07
1.20408e-07
-8.83729e-08
7.98215e-08
-1.63222e-07
1.71774e-07
-6.54277e-08
5.41383e-08
-1.92978e-07
2.04267e-07
-4.04176e-08
2.98743e-08
-1.74287e-07
1.84831e-07
-2.20741e-08
1.56366e-08
-1.10784e-07
1.17221e-07
-1.06005e-08
7.49632e-09
-5.34833e-08
5.65875e-08
-5.50989e-09
5.05848e-09
-9.94116e-09
1.03926e-08
-5.58633e-09
6.69291e-09
1.50926e-08
-1.61991e-08
-8.50462e-09
1.00375e-08
2.39696e-08
-2.55024e-08
-1.17909e-08
1.31172e-08
2.30058e-08
-2.43322e-08
-1.42304e-08
1.50138e-08
1.74404e-08
-1.82239e-08
-1.55939e-08
1.59336e-08
1.1472e-08
-1.18117e-08
-1.61294e-08
1.61843e-08
6.25024e-09
-6.30514e-09
-1.61044e-08
1.59035e-08
1.77085e-09
-1.56991e-09
-1.55689e-08
1.51405e-08
-1.91396e-09
2.34238e-09
-1.45837e-08
1.39736e-08
-4.70347e-09
5.31351e-09
-1.3262e-08
1.25391e-08
-6.6264e-09
7.34926e-09
-1.17455e-08
1.09764e-08
-7.80751e-09
8.57667e-09
-1.01657e-08
9.40488e-09
-8.41122e-09
9.172e-09
-8.62282e-09
7.90461e-09
-8.61519e-09
9.3334e-09
-7.17917e-09
6.52208e-09
-8.52335e-09
9.18044e-09
-5.86472e-09
5.27311e-09
-8.23118e-09
8.8228e-09
-4.68423e-09
4.15476e-09
-7.79304e-09
8.32251e-09
-3.62791e-09
3.15392e-09
-7.26351e-09
7.73749e-09
-2.68045e-09
2.25409e-09
-6.6772e-09
7.10356e-09
1.78845e-07
-1.85131e-07
6.2862e-09
-1.7586e-08
3.79702e-08
3.51097e-07
-3.71481e-07
-4.98812e-08
5.93189e-08
2.03634e-07
-2.13071e-07
-8.26605e-08
9.29132e-08
1.68792e-07
-1.79045e-07
-1.01134e-07
1.05621e-07
3.82058e-08
-4.26933e-08
-1.04568e-07
9.73807e-08
-1.27366e-07
1.34554e-07
-8.95484e-08
8.10617e-08
-1.80299e-07
1.88786e-07
-6.60139e-08
5.43019e-08
-2.15759e-07
2.27471e-07
-3.96763e-08
2.86993e-08
-1.95588e-07
2.06565e-07
-2.10308e-08
1.42937e-08
-1.23799e-07
1.30536e-07
-9.04354e-09
5.8876e-09
-5.97151e-08
6.2871e-08
-3.90691e-09
3.67085e-09
-1.07401e-08
1.09761e-08
-4.45885e-09
5.87876e-09
1.74564e-08
-1.88763e-08
-8.07027e-09
9.85423e-09
2.7157e-08
-2.89409e-08
-1.19061e-08
1.34185e-08
2.57475e-08
-2.72598e-08
-1.46484e-08
1.55202e-08
1.90518e-08
-1.99236e-08
-1.615e-08
1.65223e-08
1.21689e-08
-1.25412e-08
-1.67623e-08
1.68672e-08
6.38391e-09
-6.48875e-09
-1.68383e-08
1.66854e-08
1.39391e-09
-1.24101e-09
-1.63888e-08
1.59819e-08
-2.76039e-09
3.16739e-09
-1.54315e-08
1.48133e-08
-5.92803e-09
6.54625e-09
-1.40803e-08
1.3328e-08
-8.08482e-09
8.83706e-09
-1.25007e-08
1.16968e-08
-9.36122e-09
1.01651e-08
-1.08469e-08
1.00485e-08
-9.95026e-09
1.07486e-08
-9.22605e-09
8.46918e-09
-1.00704e-08
1.08273e-08
-7.70142e-09
7.00382e-09
-9.85709e-09
1.05547e-08
-6.30262e-09
5.66858e-09
-9.43492e-09
1.0069e-08
-5.03496e-09
4.46297e-09
-8.873e-09
9.44499e-09
-3.89119e-09
3.37533e-09
-8.23236e-09
8.74822e-09
-2.85896e-09
2.39255e-09
-7.54938e-09
8.01579e-09
1.91175e-07
-1.96966e-07
5.79039e-09
-1.6888e-08
3.81088e-08
3.92264e-07
-4.13485e-07
-4.98968e-08
5.88381e-08
2.22271e-07
-2.31213e-07
-8.32384e-08
9.38831e-08
1.89483e-07
-2.00127e-07
-1.02233e-07
1.07416e-07
4.75136e-08
-5.26972e-08
-1.06341e-07
9.86583e-08
-1.41984e-07
1.49666e-07
-9.08215e-08
8.24643e-08
-1.97217e-07
2.05575e-07
-6.67369e-08
5.45227e-08
-2.39422e-07
2.51636e-07
-3.8768e-08
2.73554e-08
-2.17762e-07
2.29174e-07
-1.99675e-08
1.28483e-08
-1.37454e-07
1.44573e-07
-7.2969e-09
4.06967e-09
-6.60598e-08
6.92871e-08
-2.0841e-09
2.09497e-09
-1.10926e-08
1.10817e-08
-3.1796e-09
4.97631e-09
2.04766e-08
-2.22733e-08
-7.60216e-09
9.68189e-09
3.08673e-08
-3.2947e-08
-1.20837e-08
1.38068e-08
2.88734e-08
-3.05965e-08
-1.51534e-08
1.61174e-08
2.08372e-08
-2.18012e-08
-1.67903e-08
1.71809e-08
1.29244e-08
-1.33149e-08
-1.74684e-08
1.76287e-08
6.62186e-09
-6.78216e-09
-1.76595e-08
1.75732e-08
1.11683e-09
-1.03053e-09
-1.73324e-08
1.69536e-08
-3.56286e-09
3.94168e-09
-1.64105e-08
1.57788e-08
-7.17011e-09
7.80182e-09
-1.50157e-08
1.42264e-08
-9.60654e-09
1.03959e-08
-1.33501e-08
1.24979e-08
-1.09915e-08
1.18438e-08
-1.15958e-08
1.07478e-08
-1.15697e-08
1.24177e-08
-9.87423e-09
9.06874e-09
-1.16074e-08
1.24129e-08
-8.25166e-09
7.50737e-09
-1.12748e-08
1.20191e-08
-6.75789e-09
6.07895e-09
-1.0725e-08
1.14039e-08
-5.3981e-09
4.78232e-09
-1.00388e-08
1.06546e-08
-4.16567e-09
3.60748e-09
-9.28531e-09
9.84349e-09
-3.04782e-09
2.5423e-09
-8.50191e-09
9.00742e-09
2.02486e-07
-2.0772e-07
5.2341e-09
-1.60365e-08
3.82673e-08
4.35188e-07
-4.57419e-07
-4.99083e-08
5.82571e-08
2.39873e-07
-2.48221e-07
-8.37419e-08
9.49021e-08
2.11011e-07
-2.22171e-07
-1.03432e-07
1.09448e-07
5.82785e-08
-6.42948e-08
-1.08306e-07
1.00113e-07
-1.57606e-07
1.65799e-07
-9.21582e-08
8.40292e-08
-2.13835e-07
2.21964e-07
-6.76884e-08
5.48109e-08
-2.64152e-07
2.7703e-07
-3.76352e-08
2.58364e-08
-2.40792e-07
2.52591e-07
-1.89113e-08
1.13251e-08
-1.51918e-07
1.59505e-07
-5.33139e-09
2.01085e-09
-7.25592e-08
7.58797e-08
-7.39596e-11
2.80454e-10
-1.09501e-08
1.07437e-08
-1.75932e-09
3.98149e-09
2.42749e-08
-2.64971e-08
-7.10526e-09
9.52306e-09
3.51909e-08
-3.76087e-08
-1.23456e-08
1.43102e-08
3.24355e-08
-3.44001e-08
-1.57647e-08
1.68316e-08
2.28129e-08
-2.38798e-08
-1.75232e-08
1.79071e-08
1.37081e-08
-1.4092e-08
-1.82466e-08
1.84678e-08
6.97147e-09
-7.19264e-09
-1.85732e-08
1.85775e-08
9.8463e-10
-9.88927e-10
-1.84178e-08
1.80783e-08
-4.30335e-09
4.64293e-09
-1.75415e-08
1.68888e-08
-8.44244e-09
9.09508e-09
-1.6084e-08
1.52406e-08
-1.12097e-08
1.20531e-08
-1.43021e-08
1.33859e-08
-1.27257e-08
1.36419e-08
-1.2417e-08
1.15068e-08
-1.32949e-08
1.4205e-08
-1.05693e-08
9.70569e-09
-1.3246e-08
1.41097e-08
-8.82992e-09
8.0315e-09
-1.27896e-08
1.35881e-08
-7.22757e-09
6.49788e-09
-1.21075e-08
1.28372e-08
-5.76589e-09
5.10369e-09
-1.12932e-08
1.19554e-08
-4.44046e-09
3.84076e-09
-1.04223e-08
1.1022e-08
-3.24028e-09
2.69832e-09
-9.53161e-09
1.00736e-08
2.12653e-07
-2.17267e-07
4.61464e-09
-1.49854e-08
3.84214e-08
4.80225e-07
-5.03661e-07
-4.99114e-08
5.75065e-08
2.56219e-07
-2.63814e-07
-8.4053e-08
9.59315e-08
2.33658e-07
-2.45536e-07
-1.0472e-07
1.11723e-07
7.07852e-08
-7.77886e-08
-1.10446e-07
1.01781e-07
-1.74233e-07
1.82898e-07
-9.3397e-08
8.57555e-08
-2.29902e-07
2.37543e-07
-6.90245e-08
5.50823e-08
-2.90363e-07
3.04305e-07
-3.61476e-08
2.41313e-08
-2.64531e-07
2.76548e-07
-1.78841e-08
9.75961e-09
-1.67362e-07
1.75486e-07
-3.09743e-09
-3.06033e-10
-7.92629e-08
8.26663e-08
2.25905e-09
-1.59357e-09
-1.02779e-08
9.61245e-09
-1.96226e-10
2.87736e-09
2.8957e-08
-3.16382e-08
-6.57344e-09
9.38606e-09
4.0219e-08
-4.30316e-08
-1.27123e-08
1.49499e-08
3.6497e-08
-3.87347e-08
-1.65001e-08
1.76816e-08
2.49993e-08
-2.61808e-08
-1.83479e-08
1.86897e-08
1.4466e-08
-1.48078e-08
-1.90851e-08
1.93768e-08
7.44888e-09
-7.74058e-09
-1.95715e-08
1.97166e-08
1.05573e-09
-1.20082e-09
-1.96781e-08
1.93868e-08
-4.95887e-09
5.25015e-09
-1.88502e-08
1.8164e-08
-9.76199e-09
1.04481e-08
-1.72993e-08
1.63859e-08
-1.29296e-08
1.38429e-08
-1.53641e-08
1.43672e-08
-1.45965e-08
1.55935e-08
-1.33132e-08
1.23273e-08
-1.51515e-08
1.61375e-08
-1.13133e-08
1.03817e-08
-1.50057e-08
1.59373e-08
-9.43891e-09
8.58143e-09
-1.44152e-08
1.52727e-08
-7.7191e-09
6.93753e-09
-1.35929e-08
1.43745e-08
-6.15346e-09
5.44374e-09
-1.26417e-08
1.33514e-08
-4.73271e-09
4.09024e-09
-1.16428e-08
1.22853e-08
-3.44709e-09
2.86647e-09
-1.06339e-08
1.12146e-08
2.21548e-07
-2.2548e-07
3.93202e-09
-1.36686e-08
3.85354e-08
5.27783e-07
-5.52649e-07
-4.99428e-08
5.64882e-08
2.70934e-07
-2.7748e-07
-8.4016e-08
9.69424e-08
2.57887e-07
-2.70813e-07
-1.06121e-07
1.14256e-07
8.5341e-08
-9.34761e-08
-1.12818e-07
1.03635e-07
-1.918e-07
2.00982e-07
-9.43118e-08
8.78898e-08
-2.44709e-07
2.51131e-07
-7.09475e-08
5.50454e-08
-3.1908e-07
3.34982e-07
-3.40745e-08
2.22513e-08
-2.88543e-07
3.00367e-07
-1.70122e-08
8.19761e-09
-1.83954e-07
1.92769e-07
-5.30401e-10
-2.7725e-09
-8.60838e-08
8.93867e-08
4.89799e-09
-3.77669e-09
-8.68552e-09
7.56422e-09
1.64135e-09
1.63755e-09
3.46504e-08
-3.79293e-08
-6.00605e-09
9.30724e-09
4.60716e-08
-4.93728e-08
-1.32243e-08
1.576e-08
4.11239e-08
-4.36596e-08
-1.73888e-08
1.8702e-08
2.74284e-08
-2.87415e-08
-1.92638e-08
1.95115e-08
1.51146e-08
-1.53624e-08
-1.99915e-08
2.03535e-08
8.06648e-09
-8.42847e-09
-2.06424e-08
2.10164e-08
1.44646e-09
-1.82048e-09
-2.11691e-08
2.09335e-08
-5.51446e-09
5.74997e-09
-2.0376e-08
1.96321e-08
-1.11586e-08
1.19025e-08
-1.86824e-08
1.76753e-08
-1.47997e-08
1.58068e-08
-1.6546e-08
1.54457e-08
-1.66392e-08
1.77395e-08
-1.42873e-08
1.32056e-08
-1.71695e-08
1.82511e-08
-1.2099e-08
1.10875e-08
-1.69072e-08
1.79188e-08
-1.00688e-08
9.14616e-09
-1.61614e-08
1.7084e-08
-8.22234e-09
7.38818e-09
-1.51819e-08
1.60161e-08
-6.55341e-09
5.79859e-09
-1.40835e-08
1.48383e-08
-5.04191e-09
4.35687e-09
-1.29495e-08
1.36346e-08
-3.6687e-09
3.04667e-09
-1.1816e-08
1.2438e-08
2.29048e-07
-2.32237e-07
3.18881e-09
-1.19796e-08
3.85474e-08
5.78332e-07
-6.049e-07
-5.00798e-08
5.50179e-08
2.83316e-07
-2.88254e-07
-8.33761e-08
9.7929e-08
2.84456e-07
-2.99009e-07
-1.07679e-07
1.17084e-07
1.02228e-07
-1.11634e-07
-1.15576e-07
1.05458e-07
-2.10552e-07
2.2067e-07
-9.50093e-08
9.10483e-08
-2.56481e-07
2.60442e-07
-7.32874e-08
5.41632e-08
-3.52348e-07
3.71473e-07
-3.11366e-08
2.02759e-08
-3.11832e-07
3.22693e-07
-1.65365e-08
6.72184e-09
-2.02079e-07
2.11893e-07
2.12056e-09
-5.56702e-09
-9.28143e-08
9.62608e-08
7.90773e-09
-6.24971e-09
-6.11229e-09
4.45426e-09
3.69105e-09
2.10208e-10
4.15955e-08
-4.54968e-08
-5.3686e-09
9.26587e-09
5.29032e-08
-5.68005e-08
-1.38861e-08
1.67656e-08
4.63778e-08
-4.92573e-08
-1.84881e-08
1.99335e-08
3.01297e-08
-3.1575e-08
-2.02507e-08
2.03705e-08
1.55472e-08
-1.5667e-08
-2.10142e-08
2.14188e-08
8.82145e-09
-9.22605e-09
-2.17884e-08
2.25667e-08
2.36515e-09
-3.14349e-09
-2.30618e-08
2.28634e-08
-5.96013e-09
6.1585e-09
-2.22049e-08
2.13401e-08
-1.26929e-08
1.35576e-08
-2.0266e-08
1.91343e-08
-1.68718e-08
1.80035e-08
-1.78683e-08
1.6636e-08
-1.89031e-08
2.01354e-08
-1.5348e-08
1.41527e-08
-1.93871e-08
2.05823e-08
-1.29362e-08
1.18306e-08
-1.89754e-08
2.0081e-08
-1.07229e-08
9.72381e-09
-1.8043e-08
1.90421e-08
-8.72594e-09
7.82722e-09
-1.68808e-08
1.77795e-08
-6.93094e-09
6.12388e-09
-1.56178e-08
1.64249e-08
-5.3184e-09
4.59255e-09
-1.43407e-08
1.50665e-08
-3.86802e-09
3.21571e-09
-1.30771e-08
1.37294e-08
2.35032e-07
-2.37418e-07
2.38567e-09
-9.75345e-09
3.83209e-08
6.32426e-07
-6.60994e-07
-5.04254e-08
5.26127e-08
2.92021e-07
-2.94208e-07
-8.15297e-08
9.88811e-08
3.14751e-07
-3.32102e-07
-1.09405e-07
1.2024e-07
1.21732e-07
-1.32568e-07
-1.18761e-07
1.06991e-07
-2.31525e-07
2.43296e-07
-9.614e-08
9.5341e-08
-2.62818e-07
2.63617e-07
-7.51812e-08
5.22927e-08
-3.92511e-07
4.154e-07
-2.75052e-08
1.86129e-08
-3.32699e-07
3.41592e-07
-1.67927e-08
5.29268e-09
-2.22529e-07
2.34029e-07
5.41221e-09
-8.98196e-09
-9.98086e-08
1.03378e-07
1.1104e-08
-8.86487e-09
-2.30469e-09
6.5552e-11
6.06104e-09
-1.11392e-09
4.9898e-08
-5.48451e-08
-4.86209e-09
9.29747e-09
6.0888e-08
-6.53234e-08
-1.46857e-08
1.79796e-08
5.23362e-08
-5.56301e-08
-1.97828e-08
2.13499e-08
3.30853e-08
-3.46524e-08
-2.12883e-08
2.13681e-08
1.57396e-08
-1.58194e-08
-2.23308e-08
2.26163e-08
9.60442e-09
-9.88986e-09
-2.3066e-08
2.47023e-08
4.26953e-09
-5.90578e-09
-2.58486e-08
2.55377e-08
-6.37854e-09
6.68947e-09
-2.45221e-08
2.33726e-08
-1.45346e-08
1.5684e-08
-2.20792e-08
2.07736e-08
-1.92159e-08
2.05215e-08
-1.93313e-08
1.79285e-08
-2.14455e-08
2.28483e-08
-1.64742e-08
1.51332e-08
-2.18459e-08
2.3187e-08
-1.37836e-08
1.25727e-08
-2.12381e-08
2.2449e-08
-1.1373e-08
1.02983e-08
-2.00801e-08
2.11548e-08
-9.22861e-09
8.26563e-09
-1.87121e-08
1.96751e-08
-7.30606e-09
6.44413e-09
-1.72606e-08
1.81225e-08
-5.58848e-09
4.82237e-09
-1.58116e-08
1.65777e-08
-4.06207e-09
3.38131e-09
-1.43938e-08
1.50745e-08
2.39377e-07
-2.40889e-07
1.51198e-09
-6.7248e-09
3.76133e-08
6.90682e-07
-7.2157e-07
-5.11646e-08
4.79777e-08
2.9419e-07
-2.91003e-07
-7.69779e-08
9.98339e-08
3.51707e-07
-3.74563e-07
-1.1137e-07
1.23748e-07
1.44174e-07
-1.56551e-07
-1.2231e-07
1.0835e-07
-2.56111e-07
2.70071e-07
-9.78368e-08
9.95482e-08
-2.63035e-07
2.61324e-07
-7.64295e-08
5.08398e-08
-4.39847e-07
4.65436e-07
-2.4635e-08
1.82957e-08
-3.49217e-07
3.55557e-07
-1.80167e-08
4.04214e-09
-2.46587e-07
2.60562e-07
9.11023e-09
-1.2917e-08
-1.071e-07
1.10906e-07
1.50689e-08
-1.16069e-08
2.7809e-09
-6.24292e-09
8.35011e-09
-2.62404e-09
6.00325e-08
-6.57586e-08
-4.35074e-09
9.39784e-09
7.00923e-08
-7.51394e-08
-1.57527e-08
1.95577e-08
5.92012e-08
-6.30062e-08
-2.14034e-08
2.29655e-08
3.6218e-08
-3.77801e-08
-2.24611e-08
2.28834e-08
1.60091e-08
-1.64313e-08
-2.42454e-08
2.39659e-08
9.97248e-09
-9.69302e-09
-2.45625e-08
2.7713e-08
8.24299e-09
-1.13935e-08
-2.98599e-08
2.91425e-08
-7.17817e-09
7.89551e-09
-2.74133e-08
2.57813e-08
-1.70653e-08
1.86972e-08
-2.41514e-08
2.26285e-08
-2.19312e-08
2.34541e-08
-2.09756e-08
1.93534e-08
-2.43563e-08
2.59785e-08
-1.7688e-08
1.61722e-08
-2.46154e-08
2.61312e-08
-1.46722e-08
1.33457e-08
-2.37145e-08
2.5041e-08
-1.20447e-08
1.08928e-08
-2.22656e-08
2.34175e-08
-9.75923e-09
8.74834e-09
-2.06629e-08
2.16738e-08
-7.74544e-09
6.84365e-09
-1.90065e-08
1.99083e-08
-5.94274e-09
5.12926e-09
-1.7367e-08
1.81805e-08
-4.31448e-09
3.58077e-09
-1.57783e-08
1.65121e-08
2.41924e-07
-2.42429e-07
5.04766e-10
-2.51547e-09
3.60302e-08
7.53739e-07
-7.87254e-07
-5.2571e-08
3.80721e-08
2.83194e-07
-2.68695e-07
-6.63852e-08
1.00965e-07
4.0219e-07
-4.3677e-07
-1.13837e-07
1.27493e-07
1.69644e-07
-1.83299e-07
-1.26303e-07
1.09578e-07
-2.85306e-07
3.02031e-07
-9.91756e-08
1.03084e-07
-2.58598e-07
2.5469e-07
-7.86843e-08
5.16415e-08
-4.91856e-07
5.18899e-07
-2.42693e-08
1.97328e-08
-3.60698e-07
3.65234e-07
-1.87638e-08
2.40313e-09
-2.76341e-07
2.92702e-07
1.3018e-08
-1.65652e-08
-1.14157e-07
1.17704e-07
1.9221e-08
-1.52139e-08
9.8579e-09
-1.38651e-08
1.11084e-08
-4.5695e-09
7.21118e-08
-7.86506e-08
-3.31096e-09
9.69077e-09
8.06638e-08
-8.70437e-08
-1.70076e-08
2.10431e-08
6.69684e-08
-7.10039e-08
-2.30902e-08
2.4764e-08
3.9392e-08
-4.10658e-08
-2.42712e-08
2.55583e-08
1.7215e-08
-1.85021e-08
-2.67849e-08
2.50575e-08
8.83741e-09
-7.10996e-09
-2.51724e-08
2.94058e-08
1.52552e-08
-1.94887e-08
-3.26777e-08
3.19033e-08
-8.75634e-09
9.53067e-09
-3.0076e-08
2.83465e-08
-2.0505e-08
2.22346e-08
-2.64078e-08
2.46166e-08
-2.51062e-08
2.68974e-08
-2.27395e-08
2.0862e-08
-2.77196e-08
2.95971e-08
-1.89513e-08
1.72257e-08
-2.77441e-08
2.94697e-08
-1.55426e-08
1.40773e-08
-2.6437e-08
2.79023e-08
-1.26588e-08
1.14197e-08
-2.46138e-08
2.58529e-08
-1.02132e-08
9.14789e-09
-2.27091e-08
2.37745e-08
-8.09935e-09
7.15937e-09
-2.08278e-08
2.17677e-08
-6.22071e-09
5.37099e-09
-1.90151e-08
1.98649e-08
-4.51753e-09
3.74631e-09
-1.72709e-08
1.80422e-08
2.42442e-07
-2.42074e-07
-3.68178e-10
4.07947e-09
3.33101e-08
8.22139e-07
-8.59528e-07
-5.45941e-08
1.84829e-08
2.44845e-07
-2.08733e-07
-4.35424e-08
1.01145e-07
4.81168e-07
-5.38434e-07
-1.17376e-07
1.31294e-07
1.97251e-07
-2.1117e-07
-1.30904e-07
1.10001e-07
-3.20597e-07
3.415e-07
-9.92904e-08
1.06955e-07
-2.49165e-07
2.415e-07
-8.30057e-08
5.39298e-08
-5.47386e-07
5.76462e-07
-2.5726e-08
2.04641e-08
-3.69222e-07
3.74484e-07
-1.63159e-08
-1.76457e-09
-3.09784e-07
3.27865e-07
2.00422e-08
-2.23103e-08
-1.21488e-07
1.23756e-07
2.38539e-08
-1.83382e-08
1.91724e-08
-2.46882e-08
1.41065e-08
-6.90945e-09
8.5285e-08
-9.24821e-08
-2.25505e-09
1.00638e-08
9.43254e-08
-1.02134e-07
-1.81358e-08
2.30303e-08
7.52582e-08
-8.01527e-08
-2.56239e-08
2.71233e-08
4.26494e-08
-4.41488e-08
-2.72228e-08
2.92168e-08
2.02948e-08
-2.22888e-08
-2.89984e-08
2.50685e-08
4.25162e-09
-3.21772e-10
-2.42376e-08
2.81491e-08
2.3694e-08
-2.76055e-08
-3.12668e-08
3.07106e-08
-1.00548e-08
1.0611e-08
-3.06267e-08
3.07253e-08
-2.34002e-08
2.33016e-08
-2.91435e-08
2.70262e-08
-2.88443e-08
3.09616e-08
-2.48059e-08
2.24963e-08
-3.16553e-08
3.39648e-08
-2.01727e-08
1.81535e-08
-3.13321e-08
3.33513e-08
-1.62786e-08
1.47126e-08
-2.94254e-08
3.09914e-08
-1.32203e-08
1.19141e-08
-2.71295e-08
2.84356e-08
-1.06303e-08
9.48673e-09
-2.48759e-08
2.60195e-08
-8.35854e-09
7.3539e-09
-2.27355e-08
2.37401e-08
-6.36293e-09
5.48059e-09
-2.07277e-08
2.16101e-08
-4.60912e-09
3.83272e-09
-1.88146e-08
1.9591e-08