/*--------------------------------*- C++ -*----------------------------------*\
| =========                 |                                                 |
| \\      /  F ield         | OpenFOAM: The Open Source CFD Toolbox           |
|  \\    /   O peration     | Version:  2.4.0                                 |
|   \\  /    A nd           | Web:      www.OpenFOAM.org                      |
|    \\/     M anipulation  |                                                 |
\*---------------------------------------------------------------------------*/
FoamFile
{
    version     2.0;
    format      ascii;
    class       surfaceScalarField;
    location    "0.08";
    object      phi;
}
// * * * * * * * * * * * * * * * * * * * * * * * * * * * * * * * * * * * * * //

dimensions      [0 3 -1 0 0 0 0];

internalField   nonuniform List<scalar> 
7080
(
3.30857e-13
-3.30812e-13
1.02156e-12
-6.91653e-13
1.46486e-12
-4.45978e-13
1.7047e-12
-2.44057e-13
1.92031e-12
-2.21577e-13
1.69844e-12
2.14412e-13
1.08571e-12
6.0347e-13
-7.22604e-13
1.79733e-12
-3.03318e-12
2.29813e-12
-8.43901e-12
5.39189e-12
-1.44584e-11
6.00459e-12
-2.87739e-11
1.42991e-11
-4.37169e-11
1.49273e-11
-7.68577e-11
3.31243e-11
-1.10815e-10
3.39412e-11
-1.75477e-10
6.46475e-11
-2.34326e-10
5.88345e-11
-3.55082e-10
1.20742e-10
-4.75908e-10
1.20811e-10
-5.56024e-10
8.01162e-11
-4.35172e-10
-1.2088e-10
-2.34109e-10
-2.01045e-10
-2.51262e-11
-2.09013e-10
1.07029e-10
-1.32135e-10
1.47869e-10
-4.08606e-11
1.52702e-10
-4.82826e-12
1.2482e-10
2.78845e-11
9.72454e-11
2.75604e-11
6.6646e-11
3.06182e-11
2.37285e-11
4.2896e-11
-3.18129e-13
-1.37255e-14
-1.40484e-12
3.91413e-13
-3.46755e-12
1.61048e-12
-6.84155e-12
3.12089e-12
-1.15831e-11
4.50836e-12
-1.80792e-11
6.69721e-12
-2.6157e-11
8.66365e-12
-3.71935e-11
1.28125e-11
-5.05227e-11
1.56047e-11
-6.99015e-11
2.47447e-11
-9.12603e-11
2.73362e-11
-1.25791e-10
4.87997e-11
-1.58335e-10
4.74451e-11
-2.16863e-10
9.16232e-11
-2.64849e-10
8.18985e-11
-3.50572e-10
1.50348e-10
-4.09726e-10
1.1796e-10
-5.28942e-10
2.39942e-10
-6.19706e-10
2.11537e-10
-6.49432e-10
1.09859e-10
-4.59317e-10
-3.11052e-10
-1.93701e-10
-4.66623e-10
4.54471e-11
-4.4821e-10
1.91241e-10
-2.77905e-10
2.22217e-10
-7.18546e-11
2.15675e-10
1.7046e-12
1.70789e-10
7.27909e-11
1.30378e-10
6.79371e-11
8.83195e-11
7.27146e-11
5.49793e-11
5.70215e-11
-3.98989e-13
3.84354e-13
-1.80396e-12
1.79324e-12
-4.20268e-12
4.00387e-12
-7.86292e-12
6.77338e-12
-1.31497e-11
9.78537e-12
-2.04605e-11
1.39968e-11
-3.01709e-11
1.83589e-11
-4.27162e-11
2.53391e-11
-5.94059e-11
3.22748e-11
-8.05506e-11
4.58665e-11
-1.06193e-10
5.29543e-11
-1.42648e-10
8.52271e-11
-1.78751e-10
8.35258e-11
-2.38965e-10
1.5181e-10
-2.86702e-10
1.2961e-10
-3.71473e-10
2.35099e-10
-4.25086e-10
1.71546e-10
-5.3911e-10
3.53953e-10
-6.26171e-10
2.98561e-10
-6.48425e-10
1.32129e-10
-4.48538e-10
-5.10993e-10
-1.72897e-10
-7.42229e-10
6.75508e-11
-6.88705e-10
2.1094e-10
-4.21272e-10
2.36998e-10
-9.79287e-11
2.2649e-10
1.22031e-11
1.78048e-10
1.21253e-10
1.3507e-10
1.10881e-10
9.13381e-11
1.16485e-10
8.46795e-11
6.15898e-11
-1.52744e-13
5.36228e-13
-1.03284e-12
2.67031e-12
-3.00485e-12
5.97062e-12
-6.2293e-12
9.99023e-12
-1.13072e-11
1.48535e-11
-1.82102e-11
2.08889e-11
-2.8773e-11
2.8907e-11
-4.06743e-11
3.72224e-11
-5.88958e-11
5.04774e-11
-7.91153e-11
6.60638e-11
-1.06242e-10
8.00577e-11
-1.4161e-10
1.2057e-10
-1.79581e-10
1.21475e-10
-2.38315e-10
2.1052e-10
-2.86877e-10
1.78147e-10
-3.70904e-10
3.19107e-10
-4.23441e-10
2.24057e-10
-5.37833e-10
4.68333e-10
-6.32377e-10
3.93069e-10
-6.56208e-10
1.55977e-10
-4.50275e-10
-7.16979e-10
-1.66064e-10
-1.0264e-09
7.64279e-11
-9.31243e-10
2.18186e-10
-5.63008e-10
2.413e-10
-1.21059e-10
2.28663e-10
2.48304e-11
1.79092e-10
1.70844e-10
1.35592e-10
1.54346e-10
9.13502e-11
1.60765e-10
1.16459e-10
5.95225e-11
-1.94459e-13
7.29811e-13
-1.07896e-12
3.55177e-12
-3.0302e-12
7.91662e-12
-6.09991e-12
1.30523e-11
-1.13496e-11
2.00936e-11
-1.76525e-11
2.71807e-11
-2.87568e-11
3.99966e-11
-3.98965e-11
4.83439e-11
-5.89828e-11
6.95449e-11
-7.81699e-11
8.52289e-11
-1.06191e-10
1.08056e-10
-1.40568e-10
1.5492e-10
-1.79739e-10
1.60625e-10
-2.36769e-10
2.67525e-10
-2.87724e-10
2.29079e-10
-3.71407e-10
4.02771e-10
-4.23429e-10
2.76054e-10
-5.38281e-10
5.83172e-10
-6.44793e-10
4.99546e-10
-6.71408e-10
1.82609e-10
-4.57216e-10
-9.31223e-10
-1.61274e-10
-1.32231e-09
8.45738e-11
-1.17713e-09
2.24706e-10
-7.03118e-10
2.44588e-10
-1.40956e-10
2.29788e-10
3.96204e-11
1.79289e-10
2.21363e-10
1.35441e-10
1.98161e-10
9.10933e-11
2.0515e-10
1.4883e-10
5.86739e-11
-2.41114e-13
9.70042e-13
-1.17194e-12
4.47955e-12
-3.22211e-12
9.96153e-12
-6.1818e-12
1.60044e-11
-1.16831e-11
2.55852e-11
-1.76459e-11
3.31322e-11
-2.93079e-11
5.16438e-11
-3.9639e-11
5.86568e-11
-5.96817e-11
8.95687e-11
-7.77744e-11
1.033e-10
-1.0663e-10
1.36889e-10
-1.40178e-10
1.88443e-10
-1.80467e-10
2.00893e-10
-2.37091e-10
3.24125e-10
-2.89719e-10
2.81683e-10
-3.73109e-10
4.86144e-10
-4.24387e-10
3.27307e-10
-5.39928e-10
6.98702e-10
-6.61539e-10
6.21123e-10
-6.91657e-10
2.12743e-10
-4.66767e-10
-1.15616e-09
-1.55558e-10
-1.63349e-09
9.45269e-11
-1.42726e-09
2.32533e-10
-8.41104e-10
2.48373e-10
-1.5681e-10
2.30947e-10
5.70362e-11
1.7937e-10
2.7296e-10
1.35121e-10
2.42377e-10
9.0766e-11
2.49541e-10
1.81245e-10
5.83038e-11
-2.50922e-13
1.22008e-12
-1.16554e-12
5.39111e-12
-3.27038e-12
1.20611e-11
-6.09263e-12
1.88189e-11
-1.19385e-11
3.14213e-11
-1.74969e-11
3.86794e-11
-3.0002e-11
6.4134e-11
-3.94218e-11
6.80584e-11
-6.06537e-11
1.10782e-10
-7.76427e-11
1.20267e-10
-1.07281e-10
1.66505e-10
-1.40114e-10
2.2125e-10
-1.81531e-10
2.42289e-10
-2.3812e-10
3.8069e-10
-2.92506e-10
3.36046e-10
-3.75618e-10
5.69239e-10
-4.25876e-10
3.7754e-10
-5.43231e-10
8.16047e-10
-6.82298e-10
7.60157e-10
-7.16791e-10
2.47252e-10
-4.78858e-10
-1.39415e-09
-1.48327e-10
-1.96398e-09
1.06797e-10
-1.68243e-09
2.42015e-10
-9.76303e-10
2.52878e-10
-1.67686e-10
2.32285e-10
7.7619e-11
1.79435e-10
3.25829e-10
1.34715e-10
2.87064e-10
9.03731e-11
2.93919e-10
2.13607e-10
5.79642e-11
-3.76646e-13
1.59581e-12
-1.39431e-12
6.40569e-12
-3.49295e-12
1.41544e-11
-6.1681e-12
2.14864e-11
-1.22495e-11
3.74929e-11
-1.75539e-11
4.39725e-11
-3.09771e-11
7.75422e-11
-3.95521e-11
7.66153e-11
-6.22512e-11
1.33462e-10
-7.77535e-11
1.35747e-10
-1.0809e-10
1.96819e-10
-1.40256e-10
2.5339e-10
-1.82832e-10
2.84845e-10
-2.39651e-10
4.37486e-10
-2.96317e-10
3.92688e-10
-3.78862e-10
6.51767e-10
-4.28076e-10
4.2673e-10
-5.47359e-10
9.35319e-10
-7.0721e-10
9.19976e-10
-7.47157e-10
2.87215e-10
-4.93608e-10
-1.64774e-09
-1.39335e-10
-2.31823e-09
1.21598e-10
-1.9434e-09
2.53229e-10
-1.10792e-09
2.58116e-10
-1.72586e-10
2.33798e-10
1.01927e-10
1.79484e-10
3.80163e-10
1.34228e-10
3.32288e-10
8.99073e-11
3.38275e-10
2.45877e-10
5.75923e-11
-4.02241e-13
1.99712e-12
-1.35231e-12
7.3527e-12
-3.33299e-12
1.61298e-11
-5.50371e-12
2.36494e-11
-1.22568e-11
4.42363e-11
-1.65812e-11
4.82855e-11
-3.1679e-11
9.26251e-11
-3.86095e-11
8.35277e-11
-6.31817e-11
1.58015e-10
-7.77615e-11
1.50305e-10
-1.08655e-10
2.2769e-10
-1.40534e-10
2.85244e-10
-1.84304e-10
3.28595e-10
-2.41647e-10
4.94806e-10
-3.00914e-10
4.51932e-10
-3.8281e-10
7.33648e-10
-4.30121e-10
4.74017e-10
-5.51659e-10
1.05685e-09
-7.36483e-10
1.10477e-09
-7.8319e-10
3.33937e-10
-5.10013e-10
-1.92097e-09
-1.28338e-10
-2.69987e-09
1.39127e-10
-2.2109e-09
2.66206e-10
-1.23498e-09
2.64049e-10
-1.7044e-10
2.35443e-10
1.30522e-10
1.79489e-10
4.36136e-10
1.33645e-10
3.78101e-10
8.93564e-11
3.82598e-10
2.78046e-10
5.71439e-11
-3.78856e-13
2.37505e-12
-1.29929e-12
8.27012e-12
-3.53807e-12
1.83633e-11
-5.91637e-12
2.60201e-11
-1.34796e-11
5.179e-11
-1.76066e-11
5.24012e-11
-3.38142e-11
1.08818e-10
-4.00611e-11
8.97569e-11
-6.67214e-11
1.84657e-10
-7.90663e-11
1.62629e-10
-1.10286e-10
2.58888e-10
-1.40965e-10
3.15898e-10
-1.85972e-10
3.73582e-10
-2.4412e-10
5.52932e-10
-3.05866e-10
5.13655e-10
-3.8757e-10
8.15336e-10
-4.30637e-10
5.1706e-10
-5.55739e-10
1.18194e-09
-7.70548e-10
1.31955e-09
-8.25586e-10
3.8899e-10
-5.28143e-10
-2.21846e-09
-1.15084e-10
-3.1129e-09
1.59634e-10
-2.48566e-09
2.81021e-10
-1.35635e-09
2.70674e-10
-1.60104e-10
2.37212e-10
1.63973e-10
1.79452e-10
4.93915e-10
1.32974e-10
4.2455e-10
8.8726e-11
4.26879e-10
3.10101e-10
5.66283e-11
-3.23512e-13
2.6976e-12
-1.17198e-12
9.11574e-12
-3.80761e-12
2.09938e-11
-5.3776e-12
2.75827e-11
-1.34962e-11
5.98995e-11
-1.44064e-11
5.33002e-11
-3.3449e-11
1.27847e-10
-3.68291e-11
9.31199e-11
-6.66895e-11
2.145e-10
-7.80933e-11
1.74012e-10
-1.08948e-10
2.89722e-10
-1.41342e-10
3.48268e-10
-1.87684e-10
4.19904e-10
-2.47082e-10
6.12308e-10
-3.11125e-10
5.77675e-10
-3.93191e-10
8.97386e-10
-4.29358e-10
5.53205e-10
-5.59203e-10
1.31178e-09
-8.09885e-10
1.5702e-09
-8.75123e-10
4.54243e-10
-5.48393e-10
-2.54523e-09
-9.92479e-11
-3.56202e-09
1.83392e-10
-2.76833e-09
2.97735e-10
-1.47067e-09
2.77964e-10
-1.40344e-10
2.39074e-10
2.02853e-10
1.79358e-10
5.5365e-10
1.32209e-10
4.71669e-10
8.80142e-11
4.71106e-10
3.42026e-10
5.60484e-11
-3.34009e-13
3.03064e-12
-1.18034e-12
9.9594e-12
-4.17884e-12
2.39874e-11
-5.36898e-12
2.87658e-11
-1.44633e-11
6.89854e-11
-1.56869e-11
5.45131e-11
-3.77528e-11
1.49899e-10
-4.17854e-11
9.71363e-11
-7.44665e-11
2.47164e-10
-8.31055e-11
1.82631e-10
-1.13368e-10
3.19964e-10
-1.4223e-10
3.77106e-10
-1.8994e-10
4.67596e-10
-2.50537e-10
6.72884e-10
-3.17079e-10
6.44196e-10
-3.99974e-10
9.80266e-10
-4.26027e-10
5.79235e-10
-5.61397e-10
1.44714e-09
-8.55127e-10
1.8639e-09
-9.32639e-10
5.31768e-10
-5.71045e-10
-2.90687e-09
-8.04345e-11
-4.0526e-09
2.10698e-10
-3.0595e-09
3.16379e-10
-1.57634e-09
2.85856e-10
-1.0983e-10
2.40969e-10
2.4773e-10
1.79173e-10
6.15464e-10
1.31334e-10
5.1948e-10
8.72121e-11
5.15258e-10
3.73799e-10
5.54003e-11
2.18329e-14
3.00782e-12
1.14554e-13
9.86452e-12
-1.60497e-12
2.57025e-11
3.2926e-14
2.71216e-11
-9.53715e-12
7.85478e-11
-7.02424e-12
5.19895e-11
-3.51706e-11
1.78033e-10
-3.45213e-11
9.6472e-11
-7.16357e-11
2.84263e-10
-7.88414e-11
1.89818e-10
-1.06731e-10
3.47835e-10
-1.41603e-10
4.11956e-10
-1.91031e-10
5.17007e-10
-2.54471e-10
7.36305e-10
-3.24103e-10
7.13808e-10
-4.07918e-10
1.06407e-09
-4.20408e-10
5.91702e-10
-5.61891e-10
1.58861e-09
-9.07671e-10
2.20965e-09
-9.99321e-10
6.23431e-10
-5.96418e-10
-3.30981e-09
-5.81844e-11
-4.59081e-09
2.41929e-10
-3.35964e-09
3.37045e-10
-1.67144e-09
2.94328e-10
-6.71215e-11
2.42875e-10
2.99172e-10
1.78893e-10
6.79464e-10
1.30353e-10
5.67992e-10
8.63267e-11
5.59315e-10
4.05406e-10
5.46822e-11
4.00099e-14
2.96682e-12
1.13372e-12
8.76915e-12
-8.95762e-13
2.77281e-11
1.25929e-12
2.49611e-11
-1.26633e-11
9.24641e-11
-1.13678e-11
5.06847e-11
-4.5289e-11
2.11944e-10
-4.63373e-11
9.75067e-11
-8.76482e-11
3.2556e-10
-9.25293e-11
1.94682e-10
-1.17701e-10
3.72989e-10
-1.44271e-10
4.38505e-10
-1.95002e-10
5.67721e-10
-2.59141e-10
8.00425e-10
-3.32967e-10
7.87613e-10
-4.18093e-10
1.14918e-09
-4.11421e-10
5.85009e-10
-5.59413e-10
1.7366e-09
-9.68372e-10
2.61858e-09
-1.07645e-09
7.31526e-10
-6.24777e-10
-3.76153e-09
-3.1913e-11
-5.18364e-09
2.77504e-10
-3.66909e-09
3.598e-10
-1.75372e-09
3.03324e-10
-1.06536e-11
2.44745e-10
3.57741e-10
1.78498e-10
7.45728e-10
1.29262e-10
6.17202e-10
8.53573e-11
6.03248e-10
4.36838e-10
5.38903e-11
9.77058e-13
1.98888e-12
4.15535e-12
5.59018e-12
2.86621e-12
2.90142e-11
1.06662e-11
1.71569e-11
-5.6249e-12
1.0875e-10
3.8594e-12
4.11911e-11
-3.83412e-11
2.54136e-10
-3.2571e-11
9.17249e-11
-7.98961e-11
3.72872e-10
-8.16888e-11
1.96459e-10
-9.92589e-11
3.90543e-10
-1.38536e-10
4.77763e-10
-1.92723e-10
6.21893e-10
-2.63305e-10
8.70989e-10
-3.43246e-10
8.67535e-10
-4.28494e-10
1.23442e-09
-3.99847e-10
5.56341e-10
-5.54259e-10
1.891e-09
-1.03494e-09
3.09923e-09
-1.16552e-09
8.62124e-10
-6.56319e-10
-4.27077e-09
-5.19546e-13
-5.83942e-09
3.17875e-10
-3.98751e-09
3.84676e-10
-1.82051e-09
3.1275e-10
6.12651e-11
2.46502e-10
4.23979e-10
1.77951e-10
8.14295e-10
1.28041e-10
6.67086e-10
8.42959e-11
6.47021e-10
4.68068e-10
5.30323e-11
6.84964e-13
1.30312e-12
7.93402e-12
-1.65949e-12
4.9235e-12
3.20227e-11
1.67063e-11
5.37107e-12
-9.09813e-12
1.34552e-10
-2.07163e-12
3.41574e-11
-5.53759e-11
3.07433e-10
-5.6322e-11
9.26606e-11
-1.1142e-10
4.2796e-10
-1.12383e-10
1.97407e-10
-1.22701e-10
4.00847e-10
-1.45886e-10
5.0093e-10
-2.01251e-10
6.77245e-10
-2.7108e-10
9.40802e-10
-3.56955e-10
9.53391e-10
-4.45578e-10
1.32303e-09
-3.78939e-10
4.89683e-10
-5.40788e-10
2.05284e-09
-1.10863e-09
3.66705e-09
-1.2684e-09
1.0219e-09
-6.91452e-10
-4.84775e-09
3.36637e-11
-6.56451e-09
3.63591e-10
-4.31746e-09
4.11782e-10
-1.86869e-09
3.22538e-10
1.50502e-10
2.48105e-10
4.98402e-10
1.77244e-10
8.85172e-10
1.26697e-10
7.1761e-10
8.31494e-11
6.90594e-10
4.99058e-10
5.21274e-11
5.5285e-12
-4.2254e-12
2.04711e-11
-1.66023e-11
1.35612e-11
3.89319e-11
3.86588e-11
-1.97279e-11
1.02903e-11
1.62919e-10
3.18268e-11
1.26124e-11
-4.18445e-11
3.81099e-10
-3.77517e-11
8.85593e-11
-9.82008e-11
4.88401e-10
-8.98991e-11
1.89093e-10
-8.05562e-11
3.91492e-10
-1.25465e-10
5.45823e-10
-1.89998e-10
7.41765e-10
-2.73838e-10
1.02463e-09
-3.70714e-10
1.05025e-09
-4.5982e-10
1.41212e-09
-3.62389e-10
3.92233e-10
-5.28987e-10
2.21943e-09
-1.19137e-09
4.32942e-09
-1.38745e-09
1.21799e-09
-7.30475e-10
-5.50477e-09
7.57291e-11
-7.37069e-09
4.15277e-10
-4.65704e-09
4.41187e-10
-1.89459e-09
3.32591e-10
2.59091e-10
2.49487e-10
5.81497e-10
1.76352e-10
9.58322e-10
1.25222e-10
7.68718e-10
8.19166e-11
7.33924e-10
5.29766e-10
5.11788e-11
1.05514e-11
-1.47773e-11
4.85329e-11
-5.45779e-11
2.31127e-11
6.43527e-11
6.06776e-11
-5.72927e-11
9.78447e-12
2.13814e-10
2.45051e-11
-2.11195e-12
-7.33915e-11
4.78992e-10
-8.38065e-11
9.89659e-11
-1.5839e-10
5.62978e-10
-1.54178e-10
1.84869e-10
-1.29328e-10
3.66632e-10
-1.46879e-10
5.63359e-10
-2.09777e-10
8.04652e-10
-2.87025e-10
1.10186e-09
-3.92601e-10
1.15581e-09
-4.84321e-10
1.50383e-09
-3.16386e-10
2.24281e-10
-4.92136e-10
2.39518e-09
-1.28369e-09
5.12095e-09
-1.52466e-09
1.45896e-09
-7.73848e-10
-6.25561e-09
1.2611e-10
-8.27063e-09
4.73594e-10
-5.00454e-09
4.72902e-10
-1.89389e-09
3.42752e-10
3.89236e-10
2.50547e-10
6.73692e-10
1.75233e-10
1.03365e-09
1.23599e-10
8.2033e-10
8.05881e-11
7.76958e-10
5.60149e-10
5.01781e-11
5.34219e-11
-6.81975e-11
1.91747e-10
-1.92882e-10
1.36236e-10
1.19866e-10
1.72053e-10
-9.3107e-11
7.3868e-11
3.12002e-10
8.21659e-11
-1.04133e-11
-5.23421e-11
6.13497e-10
-7.12986e-11
1.17914e-10
-1.4049e-10
6.32163e-10
-1.05864e-10
1.50232e-10
-3.57162e-11
2.96475e-10
-8.92472e-11
6.16878e-10
-1.78042e-10
8.93438e-10
-2.90098e-10
1.21391e-09
-4.12449e-10
1.27815e-09
-5.11005e-10
1.60238e-09
-2.9912e-10
1.23802e-11
-4.73246e-10
2.5693e-09
-1.38873e-09
6.03641e-09
-1.68421e-09
1.75446e-09
-8.22035e-10
-7.11782e-09
1.84337e-10
-9.27698e-09
5.39395e-10
-5.35962e-09
5.07007e-10
-1.86149e-09
3.52897e-10
5.43342e-10
2.51221e-10
7.75359e-10
1.73873e-10
1.11101e-09
1.21834e-10
8.72349e-10
7.9169e-11
8.19644e-10
5.90167e-10
4.91253e-11
6.48447e-11
-1.33044e-10
3.35858e-10
-4.6385e-10
2.44521e-10
2.11205e-10
2.89955e-10
-1.38536e-10
8.46133e-11
5.17346e-10
5.41881e-11
2.00183e-11
-1.39077e-10
8.06762e-10
-1.7238e-10
1.51207e-10
-2.51305e-10
7.11083e-10
-2.29208e-10
1.28122e-10
-1.34444e-10
2.01704e-10
-1.43517e-10
6.25938e-10
-2.20503e-10
9.70415e-10
-3.08645e-10
1.30204e-09
-4.43477e-10
1.41297e-09
-5.39305e-10
1.6982e-09
-2.08473e-10
-3.18467e-10
-3.96033e-10
2.75686e-09
-1.50414e-09
7.14451e-09
-1.86718e-09
2.1175e-09
-8.75687e-10
-8.10934e-09
2.52137e-10
-1.04048e-08
6.13489e-10
-5.72099e-09
5.43517e-10
-1.79151e-09
3.62837e-10
7.24017e-10
2.51412e-10
8.86776e-10
1.72244e-10
1.19019e-09
1.19921e-10
9.24653e-10
7.7657e-11
8.61927e-10
6.19786e-10
4.80151e-11
8.91244e-13
-1.33939e-10
1.59183e-10
-6.22125e-10
3.24599e-10
4.57927e-11
4.47638e-10
-2.61566e-10
2.56874e-10
7.08097e-10
1.78428e-10
9.84466e-11
-1.33193e-10
1.11839e-09
-2.02686e-10
2.20689e-10
-2.54361e-10
7.62753e-10
-1.46973e-10
2.07203e-11
4.4326e-11
1.03989e-11
-6.92876e-12
6.77185e-10
-1.45702e-10
1.10918e-09
-3.12257e-10
1.46858e-09
-4.80439e-10
1.58114e-09
-5.94919e-10
1.81267e-09
-1.92909e-10
-7.20489e-10
-3.6537e-10
2.92932e-09
-1.6396e-09
8.41872e-09
-2.0833e-09
2.56121e-09
-9.35855e-10
-9.25681e-09
3.32042e-10
-1.16727e-08
6.97147e-10
-6.08611e-09
5.8243e-10
-1.67679e-09
3.72313e-10
9.34131e-10
2.50995e-10
1.00809e-09
1.703e-10
1.2709e-09
1.17844e-10
9.77093e-10
7.60443e-11
9.03745e-10
6.48972e-10
4.68383e-11
-5.46992e-11
-7.92368e-11
-2.59549e-10
-4.17302e-10
-1.85185e-10
-2.85655e-11
1.56348e-12
-4.48309e-10
-9.45994e-11
8.04256e-10
-6.41893e-11
6.80399e-11
-3.18429e-11
1.08604e-09
-3.25323e-10
5.14155e-10
-4.16484e-10
8.53912e-10
-3.59449e-10
-3.63319e-11
-1.1823e-10
-2.30824e-10
-1.15346e-10
6.74291e-10
-2.29266e-10
1.22309e-09
-3.25547e-10
1.56485e-09
-5.15154e-10
1.77074e-09
-6.21051e-10
1.91856e-09
-3.3632e-11
-1.30792e-09
-2.28727e-10
3.12442e-09
-1.78076e-09
9.97074e-09
-2.32579e-09
3.10624e-09
-1.00173e-09
-1.05809e-08
4.24091e-10
-1.30985e-08
7.90734e-10
-6.45276e-09
6.23592e-10
-1.50964e-09
3.80971e-10
1.17675e-09
2.49873e-10
1.13918e-09
1.68028e-10
1.35276e-09
1.1561e-10
1.0295e-09
7.43384e-11
9.45032e-10
6.77689e-10
4.56027e-11
-6.08302e-11
-1.84053e-11
-3.45197e-10
-1.3296e-10
-3.79664e-10
5.90872e-12
-1.12334e-10
-7.15629e-10
-4.54433e-10
1.14637e-09
-3.71008e-10
-1.53705e-11
-5.19614e-10
1.23464e-09
-6.29407e-10
6.23918e-10
-4.40327e-10
6.64832e-10
-1.87214e-10
-2.89468e-10
2.04627e-10
-6.22665e-10
1.91998e-10
6.86918e-10
-7.26422e-11
1.48772e-09
-3.43787e-10
1.83599e-09
-5.92137e-10
2.01908e-09
-7.25869e-10
2.05229e-09
-1.7258e-11
-2.01654e-09
-1.78218e-10
3.28538e-09
-1.9585e-09
1.1751e-08
-2.62446e-09
3.77221e-09
-1.07912e-09
-1.21263e-08
5.34494e-10
-1.47121e-08
8.97436e-10
-6.81571e-09
6.67553e-10
-1.27975e-09
3.8806e-10
1.45624e-09
2.47936e-10
1.27929e-09
1.65402e-10
1.4353e-09
1.13214e-10
1.08167e-09
7.25387e-11
9.85721e-10
7.05903e-10
4.43079e-11
-8.30239e-11
6.46046e-11
-2.06835e-10
-9.15197e-12
-3.97524e-10
1.96607e-10
2.02483e-11
-1.1334e-09
3.99813e-11
1.12664e-09
-1.32627e-10
1.5722e-10
-2.52639e-10
1.35465e-09
-6.43873e-10
1.01513e-09
-9.00435e-10
9.21396e-10
-5.00677e-10
-6.89263e-10
7.71857e-12
-1.13106e-09
-4.43717e-11
7.39005e-10
-2.48627e-10
1.69197e-09
-3.39445e-10
1.9268e-09
-6.20466e-10
2.3001e-09
-7.5467e-10
2.18649e-09
2.06761e-10
-2.97798e-09
4.73706e-11
3.44478e-09
-2.12632e-09
1.39247e-08
-2.94391e-09
4.58979e-09
-1.15853e-09
-1.39117e-08
6.59511e-10
-1.65301e-08
1.01513e-09
-7.17134e-09
7.12349e-10
-9.76968e-10
3.92295e-10
1.77629e-09
2.44978e-10
1.4266e-09
1.6237e-10
1.51791e-09
1.10638e-10
1.13339e-09
7.06364e-11
1.02573e-09
7.33572e-10
4.29532e-11
1.23495e-10
-5.88775e-11
-8.42697e-11
1.98628e-10
-3.98919e-10
5.11256e-10
-2.77948e-10
-1.25436e-09
3.72048e-11
8.11484e-10
-2.60119e-10
4.5454e-10
-2.04371e-10
1.2989e-09
-1.66526e-10
9.77279e-10
-6.52327e-10
1.40719e-09
-2.67407e-10
-1.07424e-09
5.83594e-10
-1.98204e-09
5.90042e-10
7.32563e-10
9.38009e-11
2.1882e-09
-3.99112e-10
2.41971e-09
-7.74352e-10
2.67533e-09
-9.26501e-10
2.33864e-09
2.2524e-10
-4.12973e-09
1.39962e-10
3.53007e-09
-2.36875e-09
1.64334e-08
-3.36211e-09
5.58314e-09
-1.26295e-09
-1.60108e-08
8.09533e-10
-1.86026e-08
1.15093e-09
-7.51274e-09
7.62081e-10
-5.88117e-10
3.97537e-10
2.14083e-09
2.4102e-10
1.58312e-09
1.58983e-10
1.59996e-09
1.0793e-10
1.18444e-09
6.86627e-11
1.06501e-09
7.60671e-10
4.15525e-11
-4.44913e-10
3.85945e-10
-4.13173e-10
1.66855e-10
-5.37415e-10
6.35506e-10
-4.71035e-10
-1.32071e-09
-5.77463e-10
9.17924e-10
-8.97109e-10
7.74253e-10
-8.45426e-10
1.24722e-09
-1.10078e-09
1.23259e-09
-1.0648e-09
1.3712e-09
-7.02076e-10
-1.43705e-09
3.3607e-10
-3.02014e-09
9.88514e-11
9.69777e-10
-3.1338e-10
2.60043e-09
-3.53226e-10
2.45954e-09
-7.6868e-10
3.09078e-09
-9.77665e-10
2.54762e-09
5.47388e-10
-5.6548e-09
5.30924e-10
3.54656e-09
-2.57027e-09
1.95346e-08
-3.7892e-09
6.80207e-09
-1.35431e-09
-1.84457e-08
9.88771e-10
-2.09457e-08
1.3027e-09
-7.82667e-09
8.09105e-10
-9.4516e-11
3.98992e-10
2.55094e-09
2.35479e-10
1.74662e-09
1.55062e-10
1.68038e-09
1.04973e-10
1.23452e-09
6.65366e-11
1.10346e-09
7.87137e-10
4.0061e-11
7.98067e-12
3.77958e-10
1.40081e-10
3.47766e-11
-4.69898e-10
1.2455e-09
-8.31196e-10
-9.5941e-10
-1.39656e-09
1.48333e-09
-1.12357e-09
5.01348e-10
-3.30307e-10
4.53953e-10
-1.45226e-10
1.04747e-09
-7.44768e-12
1.23341e-09
-2.04076e-10
-1.24047e-09
1.12239e-09
-4.3466e-09
1.00531e-09
1.08686e-09
2.01668e-11
3.58554e-09
-4.7435e-10
2.95405e-09
-1.0023e-09
3.61873e-09
-1.17279e-09
2.71811e-09
6.24238e-10
-7.45183e-09
6.90616e-10
3.48021e-09
-2.89542e-09
2.31206e-08
-4.3534e-09
8.26004e-09
-1.49591e-09
-2.13032e-08
1.17431e-09
-2.36159e-08
1.46326e-09
-8.11562e-09
8.62992e-10
5.05757e-10
4.02202e-10
3.01173e-09
2.29609e-10
1.91921e-09
1.5116e-10
1.75883e-09
1.02169e-10
1.2835e-09
6.45339e-11
1.1411e-09
8.13017e-10
3.86472e-11
9.22669e-10
-5.44422e-10
4.91493e-10
4.66077e-10
3.41455e-10
1.39549e-09
-6.02401e-10
-1.54868e-11
-4.66013e-10
1.34694e-09
-6.5346e-10
6.88904e-10
4.1971e-10
-6.19231e-10
-8.49975e-10
2.3171e-09
-7.14478e-10
1.09793e-09
1.13547e-10
-2.06854e-09
4.98929e-10
-4.73198e-09
8.30784e-10
7.5499e-10
1.25732e-09
3.15894e-09
1.51665e-10
4.05971e-09
-5.65249e-10
4.33564e-09
-1.04034e-09
3.19321e-09
1.22284e-09
-9.71502e-09
1.45153e-09
3.25156e-09
-2.984e-09
2.75562e-08
-4.84359e-09
1.01196e-08
-1.55469e-09
-2.45922e-08
1.47149e-09
-2.6642e-08
1.68963e-09
-8.33377e-09
9.21217e-10
1.27418e-09
3.98949e-10
3.534e-09
2.21993e-10
2.09617e-09
1.47482e-10
1.83335e-09
9.96577e-11
1.33132e-09
6.26543e-11
1.17811e-09
8.38433e-10
3.72331e-11
3.42871e-10
-8.87104e-10
-3.30076e-10
1.13925e-09
1.55069e-10
9.10204e-10
-2.21411e-10
3.61155e-10
3.26172e-10
7.99331e-10
1.34959e-09
-3.34684e-10
2.57708e-09
-1.84671e-09
1.93423e-09
2.96009e-09
1.4041e-09
1.62798e-09
2.40915e-09
-3.07358e-09
-4.16336e-11
-2.28117e-09
-3.59259e-09
4.3058e-09
-2.02403e-09
1.59045e-09
2.80921e-10
1.75476e-09
1.04394e-09
3.57265e-09
-1.27845e-10
4.36498e-09
2.00477e-09
-1.18477e-08
2.12318e-09
3.13324e-09
-2.81794e-09
3.24973e-08
-5.00909e-09
1.23107e-08
-1.3908e-09
-2.82105e-08
1.77604e-09
-2.98088e-08
1.88774e-09
-8.44543e-09
9.97401e-10
2.16452e-09
4.22573e-10
4.10882e-09
2.3335e-10
2.28539e-09
1.56196e-10
1.91051e-09
1.05632e-10
1.38188e-09
6.61789e-11
1.21756e-09
8.65574e-10
3.90356e-11
-1.90888e-09
1.02122e-09
-1.8342e-09
1.06461e-09
-1.04475e-09
1.20495e-10
-1.01934e-09
3.35958e-10
-3.28235e-09
3.0625e-09
-2.42855e-09
-1.18855e-09
1.29284e-09
-5.56812e-09
1.0603e-09
3.19275e-09
-7.66563e-10
3.45485e-09
2.7843e-09
-6.62447e-09
1.59305e-09
-1.0899e-09
-1.02254e-09
6.92129e-09
4.28004e-09
-3.71216e-09
1.17062e-08
-5.6714e-09
1.08321e-08
4.44677e-09
5.48934e-09
9.70774e-09
7.45598e-09
-1.38144e-08
7.92058e-09
2.66877e-09
7.9418e-10
3.96236e-08
-4.34043e-09
1.74451e-08
1.36774e-10
-3.26875e-08
3.1398e-09
-3.28118e-08
2.63081e-09
-7.93642e-09
1.32478e-09
3.47056e-09
5.77653e-10
4.85596e-09
3.44934e-10
2.51811e-09
2.39115e-10
2.01633e-09
1.6544e-10
1.45557e-09
1.04355e-10
1.27866e-09
6.23326e-11
9.07607e-10
3.7588e-11
5.34027e-12
3.35838e-11
3.94988e-12
2.93981e-11
4.23126e-12
2.42895e-11
5.07555e-12
2.01006e-11
4.21149e-12
1.70577e-11
3.02803e-12
1.44336e-11
2.63327e-12
1.21524e-11
2.27544e-12
1.01614e-11
1.99408e-12
8.75115e-12
1.40833e-12
7.44309e-12
1.30881e-12
6.12492e-12
1.31771e-12
5.01561e-12
1.1094e-12
4.29007e-12
7.25516e-13
3.64598e-12
6.44091e-13
3.21072e-12
4.35338e-13
2.65331e-12
5.57471e-13
2.26676e-12
3.86619e-13
2.19474e-12
7.21523e-14
1.94222e-12
2.52541e-13
1.77938e-12
1.63021e-13
1.7139e-12
6.54383e-14
1.65535e-12
5.87578e-14
1.69923e-12
-4.39619e-14
1.54709e-12
1.5231e-13
1.65066e-12
-1.03656e-13
5.3893e-13
1.11182e-12
1.196e-12
-6.57103e-13
-3.44571e-13
1.54056e-12
-3.4453e-13
4.92287e-11
1.32086e-11
4.31841e-11
9.91011e-12
3.64124e-11
1.10674e-11
2.98654e-11
1.15775e-11
2.55155e-11
8.59112e-12
2.15424e-11
6.98176e-12
1.81761e-11
6.01109e-12
1.54356e-11
5.00873e-12
1.29343e-11
4.49892e-12
1.10515e-11
3.28899e-12
9.39445e-12
2.96662e-12
7.43451e-12
3.27723e-12
6.12446e-12
2.41952e-12
5.34181e-12
1.50824e-12
4.50896e-12
1.47699e-12
3.81443e-12
1.13002e-12
3.2874e-12
1.08468e-12
2.84587e-12
8.28243e-13
2.55527e-12
3.63044e-13
2.33543e-12
4.72365e-13
2.20328e-12
2.9554e-13
2.09202e-12
1.76578e-13
2.08938e-12
6.17576e-14
2.12687e-12
-8.16094e-14
1.8284e-12
4.51025e-13
1.96327e-12
-2.38628e-13
7.37009e-13
2.33814e-12
1.2709e-12
-1.19098e-12
-6.68013e-13
3.47935e-12
-1.0125e-12
5.26105e-11
2.22623e-11
4.15529e-11
2.08861e-11
3.46548e-11
1.80266e-11
3.01394e-11
1.60507e-11
2.61188e-11
1.26394e-11
2.20592e-11
1.10235e-11
1.85937e-11
9.48721e-12
1.59534e-11
7.64247e-12
1.35641e-11
6.89136e-12
1.10026e-11
5.84856e-12
8.85243e-12
5.11747e-12
7.59852e-12
4.53076e-12
6.43947e-12
3.57863e-12
5.49647e-12
2.45131e-12
4.58919e-12
2.38431e-12
3.80844e-12
1.9109e-12
3.38891e-12
1.50438e-12
2.94576e-12
1.27147e-12
2.43793e-12
8.71161e-13
2.27066e-12
6.39618e-13
2.26937e-12
2.97183e-13
2.15132e-12
2.94505e-13
2.21485e-12
-1.42598e-15
2.26807e-12
-1.34988e-13
1.83829e-12
8.81032e-13
1.99517e-12
-3.95596e-13
7.57434e-13
3.57593e-12
1.1163e-12
-1.54982e-12
-9.033e-13
5.49883e-12
-1.91575e-12
5.09108e-11
3.09465e-11
4.2374e-11
2.93444e-11
3.60755e-11
2.43828e-11
3.08268e-11
2.12598e-11
2.62457e-11
1.72463e-11
2.2099e-11
1.51535e-11
1.85935e-11
1.30025e-11
1.57487e-11
1.04813e-11
1.32477e-11
9.39534e-12
1.09149e-11
8.17954e-12
9.00376e-12
7.02918e-12
7.62698e-12
5.9072e-12
6.48598e-12
4.71968e-12
5.56557e-12
3.37178e-12
4.61886e-12
3.33106e-12
3.88093e-12
2.64895e-12
3.36962e-12
2.01587e-12
2.9026e-12
1.73856e-12
2.5507e-12
1.22334e-12
2.33516e-12
8.55132e-13
2.253e-12
3.79688e-13
2.14536e-12
4.0202e-13
2.15112e-12
-6.85391e-15
2.15334e-12
-1.37351e-13
1.86802e-12
1.16657e-12
2.02938e-12
-5.57037e-13
7.88492e-13
4.81687e-12
1.31392e-12
-2.07523e-12
-8.63355e-13
7.67599e-12
-2.77906e-12
5.02722e-11
3.94186e-11
4.25361e-11
3.70051e-11
3.64145e-11
3.0559e-11
3.09216e-11
2.67156e-11
2.6129e-11
2.20631e-11
2.20052e-11
1.92618e-11
1.85243e-11
1.64923e-11
1.55673e-11
1.34327e-11
1.30554e-11
1.19099e-11
1.08832e-11
1.03501e-11
9.03772e-12
8.87521e-12
7.64502e-12
7.29959e-12
6.58141e-12
5.78334e-12
5.51131e-12
4.44195e-12
4.57434e-12
4.26807e-12
3.87553e-12
3.34787e-12
3.33607e-12
2.5555e-12
2.88053e-12
2.19417e-12
2.56698e-12
1.53716e-12
2.33998e-12
1.0821e-12
2.23749e-12
4.82516e-13
2.13833e-12
5.01067e-13
2.13275e-12
-9.50468e-16
2.10278e-12
-1.07525e-13
1.88434e-12
1.38521e-12
2.04742e-12
-7.20182e-13
8.25735e-13
6.03859e-12
1.43125e-12
-2.6807e-12
-9.63398e-13
1.00705e-11
-3.74241e-12
4.99916e-11
4.77989e-11
4.24174e-11
4.45067e-11
3.62682e-11
3.67602e-11
3.0781e-11
3.21678e-11
2.59378e-11
2.69289e-11
2.18708e-11
2.33144e-11
1.84305e-11
1.9941e-11
1.53706e-11
1.64876e-11
1.28737e-11
1.44092e-11
1.0801e-11
1.24212e-11
9.04627e-12
1.06304e-11
7.71132e-12
8.63426e-12
6.58615e-12
6.90853e-12
5.40131e-12
5.62685e-12
4.51212e-12
5.1573e-12
3.84444e-12
4.01566e-12
3.30038e-12
3.09974e-12
2.87667e-12
2.61794e-12
2.56603e-12
1.84806e-12
2.32408e-12
1.32402e-12
2.21792e-12
5.89012e-13
2.12243e-12
5.96444e-13
2.13482e-12
-1.30377e-14
2.09686e-12
-6.96945e-14
1.91932e-12
1.56295e-12
2.07538e-12
-8.76302e-13
8.88071e-13
7.22593e-12
1.5321e-12
-3.3247e-12
-1.1683e-12
1.27708e-11
-4.91066e-12
4.97197e-11
5.61093e-11
4.22301e-11
5.19267e-11
3.59857e-11
4.30539e-11
3.05071e-11
3.76133e-11
2.56953e-11
3.17619e-11
2.17088e-11
2.72874e-11
1.83273e-11
2.33302e-11
1.51885e-11
1.96216e-11
1.27077e-11
1.68923e-11
1.06938e-11
1.44337e-11
9.04893e-12
1.22757e-11
7.71087e-12
9.97205e-12
6.51332e-12
8.1061e-12
5.31525e-12
6.82498e-12
4.47701e-12
5.99559e-12
3.81035e-12
4.68242e-12
3.25917e-12
3.65109e-12
2.86017e-12
3.01699e-12
2.55534e-12
2.15316e-12
2.30194e-12
1.57739e-12
2.19393e-12
6.97349e-13
2.09775e-12
6.92517e-13
2.13998e-12
-5.49659e-14
2.11221e-12
-4.20463e-14
1.98554e-12
1.6898e-12
2.1291e-12
-1.01992e-12
9.6019e-13
8.39487e-12
1.64206e-12
-4.00652e-12
-1.40447e-12
1.58172e-11
-6.31508e-12
4.93978e-11
6.43673e-11
4.19597e-11
5.92979e-11
3.5632e-11
4.94285e-11
3.0178e-11
4.30362e-11
2.54274e-11
3.65325e-11
2.14753e-11
3.12269e-11
1.81202e-11
2.66925e-11
1.51342e-11
2.26031e-11
1.26244e-11
1.94042e-11
1.05797e-11
1.6477e-11
9.07081e-12
1.3785e-11
7.65771e-12
1.13849e-11
6.38571e-12
9.37811e-12
5.25424e-12
7.95651e-12
4.45312e-12
6.79675e-12
3.78819e-12
5.34745e-12
3.23484e-12
4.20461e-12
2.83691e-12
3.41498e-12
2.53546e-12
2.45487e-12
2.28075e-12
1.83206e-12
2.17591e-12
8.02508e-13
2.07539e-12
7.92931e-13
2.14604e-12
-1.25327e-13
2.12842e-12
-2.45339e-14
2.0686e-12
1.74979e-12
2.19702e-12
-1.14838e-12
9.73737e-13
9.61816e-12
1.71859e-12
-4.75132e-12
-1.55984e-12
1.90955e-11
-7.87486e-12
4.89882e-11
7.2584e-11
4.16211e-11
6.6601e-11
3.52652e-11
5.58289e-11
2.98456e-11
4.84264e-11
2.51569e-11
4.12398e-11
2.12333e-11
3.51387e-11
1.79183e-11
3.00141e-11
1.50291e-11
2.54882e-11
1.25554e-11
2.18798e-11
1.05249e-11
1.85063e-11
8.95264e-12
1.53576e-11
7.51472e-12
1.28226e-11
6.24958e-12
1.06432e-11
5.1912e-12
9.01495e-12
4.40216e-12
7.58584e-12
3.74904e-12
6.00066e-12
3.20402e-12
4.74979e-12
2.79889e-12
3.82016e-12
2.50346e-12
2.75055e-12
2.25387e-12
2.08163e-12
2.15841e-12
8.98279e-13
2.05474e-12
8.965e-13
2.1505e-12
-2.20806e-13
2.14056e-12
-1.46983e-14
2.15697e-12
1.73355e-12
2.26611e-12
-1.25755e-12
1.01509e-12
1.08692e-11
1.83702e-12
-5.57319e-12
-1.77386e-12
2.27063e-11
-9.64867e-12
4.85019e-11
8.0769e-11
4.12135e-11
7.38283e-11
3.48811e-11
6.22035e-11
2.94998e-11
5.37801e-11
2.4888e-11
4.5869e-11
2.0997e-11
3.90187e-11
1.7704e-11
3.33133e-11
1.48653e-11
2.83231e-11
1.24449e-11
2.43019e-11
1.04473e-11
2.05028e-11
8.81201e-12
1.69932e-11
7.37714e-12
1.42573e-11
6.12213e-12
1.18983e-11
5.11817e-12
1.0019e-11
4.3289e-12
8.37516e-12
3.69306e-12
6.63659e-12
3.17017e-12
5.27284e-12
2.76051e-12
4.22986e-12
2.47453e-12
3.03679e-12
2.22807e-12
2.32806e-12
2.14657e-12
9.8008e-13
2.04049e-12
1.00249e-12
2.15227e-12
-3.32307e-13
2.1485e-12
-1.10283e-14
2.21702e-12
1.66519e-12
2.30413e-12
-1.34468e-12