/*--------------------------------*- C++ -*----------------------------------*\
| =========                 |                                                 |
| \\      /  F ield         | OpenFOAM: The Open Source CFD Toolbox           |
|  \\    /   O peration     | Version:  2.4.0                                 |
|   \\  /    A nd           | Web:      www.OpenFOAM.org                      |
|    \\/     M anipulation  |                                                 |
\*---------------------------------------------------------------------------*/
FoamFile
{
    version     2.0;
    format      ascii;
    class       volVectorField;
    location    "0.08";
    object      U;
}
// * * * * * * * * * * * * * * * * * * * * * * * * * * * * * * * * * * * * * //

dimensions      [0 1 -1 0 0 0 0];

internalField   nonuniform List<vector> 
3600
(
(4.019e-05 -0.000115897 2.61539e-11)
(5.0442e-05 -8.34527e-05 -2.76067e-11)
(8.66529e-05 -5.24251e-05 -2.75639e-11)
(2.05584e-05 -4.31188e-05 -2.7672e-11)
(8.56648e-05 -3.89475e-05 -1.80913e-11)
(-1.46585e-05 -3.11807e-05 -1.76269e-11)
(8.25411e-05 -2.50022e-05 -1.14272e-11)
(-6.62217e-05 -1.94141e-05 -1.18176e-11)
(6.04913e-05 -1.63285e-05 -7.47263e-12)
(-0.000132731 -1.17099e-05 -7.95836e-12)
(6.86219e-06 -8.9992e-06 -4.97991e-12)
(-0.000220915 -2.30402e-06 -5.17363e-12)
(-0.000113549 8.91003e-07 -3.33421e-12)
(-0.000355553 9.973e-06 -3.15683e-12)
(-0.000324365 1.29312e-05 -2.13791e-12)
(-0.000577706 2.31071e-05 -1.74565e-12)
(-0.000618241 2.14944e-05 -1.20769e-12)
(-0.000840924 3.77716e-05 -8.17439e-13)
(-0.00107178 3.63306e-05 -5.31451e-13)
(-0.00123649 2.44812e-05 -2.23259e-13)
(-0.00106923 -1.06778e-05 -8.45885e-14)
(-0.000541411 -1.95214e-05 5.08144e-14)
(-0.000200661 -1.92335e-05 4.79526e-14)
(0.000145127 -1.01145e-05 5.80277e-14)
(0.000148111 -3.23305e-06 3.1854e-14)
(0.000198901 -6.68255e-07 2.27727e-14)
(0.00012731 6.72386e-07 1.10099e-14)
(0.000105238 6.59119e-07 6.3369e-15)
(6.01363e-05 6.29489e-07 2.80001e-15)
(3.95704e-05 3.95285e-07 1.36891e-15)
(-1.91596e-05 -0.000109619 -8.39305e-11)
(-8.79561e-05 -5.33246e-05 -1.44901e-10)
(-8.72011e-05 7.337e-06 -9.22912e-11)
(-0.000209529 2.82085e-05 -6.71646e-11)
(-0.000170481 3.00972e-05 -4.29955e-11)
(-0.000351557 3.77298e-05 -3.72146e-11)
(-0.000246439 3.82874e-05 -2.43478e-11)
(-0.000498495 4.77306e-05 -2.31521e-11)
(-0.000326578 4.39783e-05 -1.47118e-11)
(-0.000661111 6.01576e-05 -1.48492e-11)
(-0.000448676 5.10209e-05 -9.19277e-12)
(-0.000833969 7.87362e-05 -9.22381e-12)
(-0.000646907 6.17878e-05 -5.75534e-12)
(-0.00101201 9.85369e-05 -5.27438e-12)
(-0.000914842 7.46774e-05 -3.39393e-12)
(-0.00120698 0.000108793 -2.62694e-12)
(-0.00118487 7.37967e-05 -1.70339e-12)
(-0.00134223 0.000117549 -1.01937e-12)
(-0.00149759 8.74646e-05 -5.99701e-13)
(-0.00148718 4.08411e-05 -1.43499e-13)
(-0.00120216 -6.90669e-05 -7.14794e-15)
(-0.000485756 -8.67939e-05 1.50008e-13)
(-0.000121053 -6.94588e-05 1.07518e-13)
(0.000277817 -3.51195e-05 1.03827e-13)
(0.000239595 -7.9883e-06 5.53827e-14)
(0.000281881 -3.84578e-07 3.73109e-14)
(0.000177304 4.33587e-06 1.78697e-14)
(0.000141292 3.33789e-06 9.98145e-15)
(7.9944e-05 2.9578e-06 4.36648e-15)
(5.23727e-05 1.8563e-06 2.13643e-15)
(-2.41402e-05 9.94727e-05 -9.81907e-11)
(-0.000110042 0.000130603 -1.66343e-10)
(-0.000116363 0.000157471 -1.03079e-10)
(-0.000239533 0.000167049 -7.25554e-11)
(-0.000198758 0.000157251 -4.5482e-11)
(-0.000391041 0.000157004 -3.94823e-11)
(-0.000289773 0.00014356 -2.5613e-11)
(-0.000564262 0.000150764 -2.46409e-11)
(-0.000392178 0.000138899 -1.54818e-11)
(-0.000757803 0.000158633 -1.58058e-11)
(-0.000532587 0.000136464 -9.6264e-12)
(-0.000948611 0.000178615 -9.72669e-12)
(-0.000740323 0.000134776 -5.96458e-12)
(-0.00112244 0.000197683 -5.45574e-12)
(-0.00100325 0.000134824 -3.45105e-12)
(-0.00128992 0.000194887 -2.62676e-12)
(-0.00124416 0.000115962 -1.67316e-12)
(-0.00137352 0.000189357 -9.54492e-13)
(-0.00152368 0.000129272 -5.46113e-13)
(-0.00148993 4.92149e-05 -8.28359e-14)
(-0.00119469 -0.000133888 3.32209e-14)
(-0.000449596 -0.00015827 1.82428e-13)
(-8.88234e-05 -0.000119893 1.25379e-13)
(0.000309974 -5.93777e-05 1.15057e-13)
(0.000259579 -1.16904e-05 6.09381e-14)
(0.000296369 7.42843e-07 4.03713e-14)
(0.000185592 8.61364e-06 1.92885e-14)
(0.000146556 6.41835e-06 1.06782e-14)
(8.25606e-05 5.49258e-06 4.64956e-15)
(5.43409e-05 3.29192e-06 2.28977e-15)
(1.63797e-06 0.000165139 -5.81841e-11)
(-6.2815e-05 0.000229261 -1.37202e-10)
(-6.64617e-05 0.000259463 -9.03175e-11)
(-0.000192317 0.000264491 -6.79091e-11)
(-0.000155466 0.000257315 -4.29414e-11)
(-0.000351875 0.000255958 -3.87447e-11)
(-0.000261369 0.000248326 -2.50408e-11)
(-0.000543267 0.000245188 -2.47579e-11)
(-0.000379194 0.000241165 -1.54049e-11)
(-0.000751193 0.00025063 -1.59831e-11)
(-0.00052513 0.000227024 -9.64381e-12)
(-0.000948528 0.000273765 -9.80206e-12)
(-0.000736807 0.000211456 -5.99372e-12)
(-0.00112354 0.000294357 -5.4611e-12)
(-0.0010033 0.000196361 -3.46048e-12)
(-0.00129011 0.00028026 -2.60323e-12)
(-0.00124065 0.000158751 -1.66266e-12)
(-0.00136445 0.000262332 -9.31498e-13)
(-0.00153369 0.000175725 -5.33082e-13)
(-0.00150966 5.87546e-05 -6.57444e-14)
(-0.00120745 -0.000200143 4.52235e-14)
(-0.000440348 -0.000231677 1.92146e-13)
(-7.53007e-05 -0.000170864 1.3047e-13)
(0.00032226 -8.36327e-05 1.17635e-13)
(0.000266354 -1.50677e-05 6.20819e-14)
(0.000299511 1.9858e-06 4.08532e-14)
(0.000186985 1.29922e-05 1.94892e-14)
(0.000147103 9.53495e-06 1.076e-14)
(8.28926e-05 8.05696e-06 4.68716e-15)
(5.39709e-05 4.69599e-06 2.28005e-15)
(-4.40104e-06 0.000210396 -6.53484e-11)
(-6.73568e-05 0.000310627 -1.42476e-10)
(-6.79739e-05 0.000359447 -9.15047e-11)
(-0.000190581 0.000366251 -6.96668e-11)
(-0.000155839 0.000367597 -4.35592e-11)
(-0.000342847 0.000355493 -3.98905e-11)
(-0.000260871 0.000363921 -2.54732e-11)
(-0.000535271 0.00033625 -2.55465e-11)
(-0.00037673 0.000350582 -1.57136e-11)
(-0.000748175 0.000338767 -1.64506e-11)
(-0.000519579 0.000321297 -9.85979e-12)
(-0.000946835 0.000366212 -1.00143e-11)
(-0.00073242 0.000290921 -6.14251e-12)
(-0.00112324 0.000388147 -5.5417e-12)
(-0.0010049 0.000259518 -3.54223e-12)
(-0.00129361 0.000364896 -2.62597e-12)
(-0.00124145 0.000200376 -1.69165e-12)
(-0.00135986 0.000335335 -9.3554e-13)
(-0.00155558 0.000226457 -5.39191e-13)
(-0.00154721 6.89286e-05 -6.05593e-14)
(-0.00123317 -0.000268602 5.08093e-14)
(-0.000436371 -0.000307628 1.98063e-13)
(-6.29726e-05 -0.000222361 1.3341e-13)
(0.000333616 -0.000107557 1.18765e-13)
(0.000272047 -1.80227e-05 6.24334e-14)
(0.000301312 3.50637e-06 4.08772e-14)
(0.000187478 1.74488e-05 1.94726e-14)
(0.000146953 1.26741e-05 1.07321e-14)
(8.27714e-05 1.06368e-05 4.67585e-15)
(5.36936e-05 6.24481e-06 2.26232e-15)
(-1.0459e-05 0.000292949 -7.58606e-11)
(-7.31619e-05 0.000400823 -1.55614e-10)
(-7.67883e-05 0.000459165 -9.75256e-11)
(-0.00019005 0.000456685 -7.4127e-11)
(-0.00016803 0.000477948 -4.56109e-11)
(-0.000338282 0.000440238 -4.21019e-11)
(-0.000271843 0.000483443 -2.6505e-11)
(-0.000532197 0.000417825 -2.68259e-11)
(-0.000380636 0.000465245 -1.62899e-11)
(-0.000750678 0.000421609 -1.71636e-11)
(-0.000516936 0.00041885 -1.02186e-11)
(-0.000949381 0.000456117 -1.03375e-11)
(-0.000731064 0.000373157 -6.37464e-12)
(-0.00112709 0.000480119 -5.6722e-12)
(-0.00101016 0.000325648 -3.66736e-12)
(-0.00130228 0.000449413 -2.66977e-12)
(-0.00124569 0.000241951 -1.73837e-12)
(-0.00135592 0.000408818 -9.47755e-13)
(-0.00158545 0.0002844 -5.51247e-13)
(-0.00159757 8.05148e-05 -5.68139e-14)
(-0.00126724 -0.000340184 5.63637e-14)
(-0.000432092 -0.00038716 2.04534e-13)
(-4.77811e-05 -0.000274684 1.36557e-13)
(0.000347379 -0.000131197 1.19851e-13)
(0.00027876 -2.04984e-05 6.26997e-14)
(0.000303248 5.26983e-06 4.08208e-14)
(0.000187922 2.19927e-05 1.94142e-14)
(0.000146652 1.58391e-05 1.0679e-14)
(8.25263e-05 1.3218e-05 4.65118e-15)
(5.34549e-05 7.75953e-06 2.24748e-15)
(-1.38794e-05 0.000386814 -8.35738e-11)
(-6.79217e-05 0.000509383 -1.69393e-10)
(-8.72853e-05 0.000580781 -1.04624e-10)
(-0.000176933 0.00056596 -7.9376e-11)
(-0.000183127 0.000603394 -4.82209e-11)
(-0.000326427 0.000541188 -4.48464e-11)
(-0.000286308 0.000612256 -2.78703e-11)
(-0.000528809 0.00050538 -2.84578e-11)
(-0.000386027 0.000586353 -1.70463e-11)
(-0.000756769 0.000500735 -1.80722e-11)
(-0.000514715 0.000519105 -1.06833e-11)
(-0.000954472 0.000543857 -1.07427e-11)
(-0.000730774 0.000457555 -6.67067e-12)
(-0.00113367 0.00057163 -5.83628e-12)
(-0.00101739 0.000393776 -3.8243e-12)
(-0.00131488 0.000533822 -2.72537e-12)
(-0.00125168 0.000282591 -1.79627e-12)
(-0.00135003 0.000482986 -9.63458e-13)
(-0.00162186 0.000350518 -5.66374e-13)
(-0.00166038 9.36238e-05 -5.25267e-14)
(-0.00130909 -0.000415619 6.31194e-14)
(-0.000426431 -0.0004712 2.12321e-13)
(-2.88292e-05 -0.000327983 1.40309e-13)
(0.000364102 -0.000154411 1.21104e-13)
(0.000286795 -2.23529e-05 6.29881e-14)
(0.000305488 7.35595e-06 4.07371e-14)
(0.000188411 2.66412e-05 1.9338e-14)
(0.000146264 1.90357e-05 1.06126e-14)
(8.22112e-05 1.57986e-05 4.6196e-15)
(5.3187e-05 9.28598e-06 2.23162e-15)
(-3.32143e-05 0.000448794 -1.12877e-10)
(-7.83271e-05 0.000562316 -1.96413e-10)
(-0.000109539 0.000656225 -1.15387e-10)
(-0.000166355 0.000611242 -8.58817e-11)
(-0.000203723 0.000709132 -5.1437e-11)
(-0.0003125 0.000581024 -4.81232e-11)
(-0.000309171 0.00074373 -2.95606e-11)
(-0.000525196 0.000546368 -3.04241e-11)
(-0.000399379 0.000714235 -1.79886e-11)
(-0.0007664 0.000566221 -1.91726e-11)
(-0.00051262 0.000621926 -1.12533e-11)
(-0.000961538 0.00062972 -1.12226e-11)
(-0.000730822 0.000544367 -7.02998e-12)
(-0.00114253 0.000663357 -6.0305e-12)
(-0.00102617 0.000464575 -4.01204e-12)
(-0.00133137 0.000617659 -2.79109e-12)
(-0.00125892 0.000322642 -1.86422e-12)
(-0.00134078 0.000558353 -9.82e-13)
(-0.00166449 0.000426392 -5.84215e-13)
(-0.00173663 0.000108806 -4.74208e-14)
(-0.00135912 -0.000495716 7.13458e-14)
(-0.000419035 -0.000560889 2.21578e-13)
(-5.66646e-06 -0.000382434 1.44733e-13)
(0.00038395 -0.000177097 1.22546e-13)
(0.000296184 -2.34649e-05 6.33083e-14)
(0.000308026 9.82167e-06 4.06309e-14)
(0.00018894 3.14117e-05 1.92462e-14)
(0.000145792 2.22685e-05 1.05341e-14)
(8.18334e-05 1.83782e-05 4.58218e-15)
(5.28694e-05 1.08055e-05 2.21307e-15)
(-5.00826e-05 0.000677981 -1.32255e-10)
(-5.46871e-05 0.000748883 -2.13372e-10)
(-0.000137984 0.000831306 -1.25872e-10)
(-0.00011202 0.000771568 -9.21396e-11)
(-0.000232358 0.000885299 -5.53936e-11)
(-0.000271572 0.000731552 -5.18282e-11)
(-0.000328191 0.000908507 -3.15252e-11)
(-0.000514578 0.000669968 -3.27436e-11)
(-0.000396523 0.000854476 -1.90877e-11)
(-0.000779648 0.000656846 -2.04776e-11)
(-0.000505572 0.000727182 -1.19357e-11)
(-0.000970324 0.000714945 -1.17759e-11)
(-0.000730883 0.000633548 -7.45735e-12)
(-0.00115344 0.000755771 -6.25427e-12)
(-0.00103669 0.000538617 -4.23207e-12)
(-0.00135218 0.000700649 -2.86695e-12)
(-0.001267 0.000361299 -1.94183e-12)
(-0.00132688 0.000635013 -1.00343e-12)
(-0.00171322 0.000513843 -6.04816e-13)
(-0.00182769 0.000126398 -4.14719e-14)
(-0.00141802 -0.000581542 8.11926e-14)
(-0.000409608 -0.000657277 2.32385e-13)
(2.2168e-05 -0.000438192 1.49853e-13)
(0.000407051 -0.000199092 1.24171e-13)
(0.000306921 -2.36889e-05 6.3656e-14)
(0.000310832 1.27298e-05 4.05002e-14)
(0.000189495 3.63205e-05 1.91383e-14)
(0.000145232 2.5542e-05 1.04435e-14)
(8.13931e-05 2.09561e-05 4.53908e-15)
(5.24954e-05 1.23207e-05 2.19131e-15)
(-5.71603e-05 0.000681702 -1.38954e-10)
(-3.19293e-05 0.000703133 -2.26099e-10)
(-0.00016193 0.000813194 -1.35666e-10)
(-9.7965e-05 0.000697506 -1.01122e-10)
(-0.00027884 0.000952583 -6.05335e-11)
(-0.000268963 0.000659252 -5.66285e-11)
(-0.000373929 0.0010384 -3.41084e-11)
(-0.000518439 0.000610294 -3.55206e-11)
(-0.000433654 0.000997411 -2.05306e-11)
(-0.000800995 0.000664858 -2.20128e-11)
(-0.000510826 0.000833297 -1.27604e-11)
(-0.000980649 0.000796048 -1.24004e-11)
(-0.000731175 0.000725181 -7.95934e-12)
(-0.00116622 0.000849051 -6.5077e-12)
(-0.00104916 0.000615766 -4.48641e-12)
(-0.00137805 0.000783249 -2.95314e-12)
(-0.00127569 0.000398205 -2.02894e-12)
(-0.00130664 0.000713444 -1.02792e-12)
(-0.00176793 0.00061527 -6.28283e-13)
(-0.0019353 0.000147067 -3.46967e-14)
(-0.00148658 -0.0006745 9.28135e-14)
(-0.000397781 -0.000761373 2.44824e-13)
(5.51999e-05 -0.000495409 1.55687e-13)
(0.000433549 -0.000220225 1.25969e-13)
(0.000318992 -2.28798e-05 6.40242e-14)
(0.000313867 1.61425e-05 4.03423e-14)
(0.000190055 4.13829e-05 1.90135e-14)
(0.000144578 2.88595e-05 1.03407e-14)
(8.08891e-05 2.35318e-05 4.49036e-15)
(5.20622e-05 1.3831e-05 2.16617e-15)
(-8.5646e-05 0.00100166 -1.70917e-10)
(4.37592e-05 0.00099866 -2.39615e-10)
(-0.000247935 0.00112643 -1.57521e-10)
(-7.70869e-06 0.000987011 -1.11614e-10)
(-0.00036015 0.00125998 -6.78638e-11)
(-0.00016315 0.000914782 -6.0901e-11)
(-0.000385461 0.0012916 -3.64825e-11)
(-0.000483015 0.000825445 -3.85815e-11)
(-0.000403575 0.00118049 -2.19474e-11)
(-0.000823884 0.000812627 -2.37834e-11)
(-0.00047688 0.000942843 -1.3692e-11)
(-0.000991652 0.000887833 -1.30926e-11)
(-0.000730237 0.000819649 -8.54322e-12)
(-0.00118081 0.000944477 -6.79135e-12)
(-0.00106369 0.000696238 -4.777e-12)
(-0.00140949 0.000866286 -3.04971e-12)
(-0.00128462 0.000429498 -2.12527e-12)
(-0.00127816 0.000794563 -1.05574e-12)
(-0.00182849 0.000733285 -6.54791e-13)
(-0.00206157 0.000171563 -2.71281e-14)
(-0.00156577 -0.000776161 1.06383e-13)
(-0.000383083 -0.000874305 2.58993e-13)
(9.40354e-05 -0.000554235 1.62255e-13)
(0.000463602 -0.000240287 1.27926e-13)
(0.000332376 -2.08675e-05 6.44046e-14)
(0.000317084 2.0123e-05 4.01541e-14)
(0.000190599 4.6613e-05 1.88707e-14)
(0.000143823 3.2224e-05 1.02255e-14)
(8.03197e-05 2.61048e-05 4.43602e-15)
(5.1569e-05 1.53356e-05 2.13764e-15)
(-0.000106127 0.000828352 -1.88699e-10)
(7.88872e-05 0.00079342 -2.4744e-10)
(-0.000298251 0.00100547 -1.67056e-10)
(2.61424e-05 0.000717525 -1.376e-10)
(-0.000404094 0.00121844 -7.56962e-11)
(-0.000150497 0.000610879 -6.71184e-11)
(-0.000453872 0.00138317 -4.03044e-11)
(-0.000522365 0.00059115 -4.2525e-11)
(-0.000488371 0.00131894 -2.42651e-11)
(-0.000874199 0.000705456 -2.58681e-11)
(-0.000514635 0.00103892 -1.49119e-11)
(-0.00100466 0.000947828 -1.38488e-11)
(-0.000733369 0.000916084 -9.22076e-12)
(-0.0011971 0.00104097 -7.10549e-12)
(-0.00108057 0.000779385 -5.10647e-12)
(-0.00144837 0.000949605 -3.15753e-12)
(-0.00129348 0.000456859 -2.23059e-12)
(-0.00123837 0.000878686 -1.08701e-12)
(-0.00189489 0.000871473 -6.84602e-13)
(-0.00220901 0.000200539 -1.88153e-14)
(-0.00165671 -0.000888244 1.22102e-13)
(-0.000364936 -0.000997398 2.75001e-13)
(0.000139373 -0.000614801 1.69579e-13)
(0.000497382 -0.000259024 1.30027e-13)
(0.00034704 -1.74824e-05 6.47876e-14)
(0.00032043 2.47342e-05 3.99321e-14)
(0.000191102 5.20229e-05 1.8709e-14)
(0.000142959 3.56376e-05 1.00979e-14)
(7.96828e-05 2.8674e-05 4.37604e-15)
(5.10162e-05 1.68335e-05 2.10576e-15)
(-0.000148115 0.00132527 -2.69326e-10)
(0.000286808 0.00126169 -1.15128e-10)
(-0.000376484 0.0015347 -1.68258e-10)
(0.00035198 0.00115219 -4.77645e-10)
(-0.000434661 0.00173802 -1.34503e-10)
(0.000119085 0.00103537 -7.88933e-11)
(-0.00044329 0.00183939 -4.31084e-11)
(-0.000447135 0.000973473 -4.64918e-11)
(-0.000402717 0.00160981 -2.58712e-11)
(-0.000903397 0.000966362 -2.81883e-11)
(-0.000416349 0.00116548 -1.6096e-11)
(-0.00101238 0.00107428 -1.46562e-11)
(-0.00072389 0.00101769 -9.98928e-12)
(-0.00121486 0.00114277 -7.45151e-12)
(-0.00109955 0.000865178 -5.47656e-12)
(-0.00149452 0.0010345 -3.27591e-12)
(-0.00130176 0.000468451 -2.34425e-12)
(-0.00118496 0.000966856 -1.12245e-12)
(-0.00196698 0.00103345 -7.18039e-13)
(-0.0023807 0.000234994 -9.84462e-15)
(-0.00176068 -0.0010127 1.40199e-13)
(-0.000342635 -0.00113215 2.92972e-13)
(0.000192023 -0.000677225 1.7768e-13)
(0.000535078 -0.00027614 1.32251e-13)
(0.000362942 -1.25369e-05 6.51622e-14)
(0.000323844 3.00391e-05 3.96725e-14)
(0.000191537 5.76231e-05 1.85274e-14)
(0.000141978 3.91014e-05 9.95764e-15)
(7.89765e-05 3.12383e-05 4.31043e-15)
(5.04046e-05 1.83239e-05 2.07064e-15)
(-0.00021607 0.000706751 -3.20332e-09)
(0.000421937 0.000670299 -1.02895e-09)
(-0.000422335 0.00106733 -6.01174e-10)
(0.000471465 0.000517026 -9.26354e-09)
(-0.00051927 0.00150314 -1.25282e-09)
(8.55031e-05 0.000445691 -2.84082e-10)
(-0.000580085 0.00187162 -5.66137e-11)
(-0.000570774 0.000482694 -5.20471e-11)
(-0.000566255 0.00168602 -2.97386e-11)
(-0.00102429 0.000675296 -3.10253e-11)
(-0.000528513 0.00120481 -1.80095e-11)
(-0.00103326 0.00108585 -1.55185e-11)
(-0.000740626 0.00111911 -1.089e-11)
(-0.00123485 0.00124351 -7.82958e-12)
(-0.00112164 0.000968991 -5.89039e-12)
(-0.00155315 0.00112113 -3.40818e-12)
(-0.00130917 0.000492876 -2.46601e-12)
(-0.00111139 0.00105846 -1.16165e-12)
(-0.00204475 0.0012252 -7.55611e-13)
(-0.00258019 0.000275544 -3.13071e-16)
(-0.00187922 -0.0011518 1.60934e-13)
(-0.00031533 -0.0012803 3.13052e-13)
(0.00025293 -0.000741591 1.86583e-13)
(0.000576904 -0.000291289 1.34575e-13)
(0.000380024 -5.82105e-06 6.55154e-14)
(0.000327254 3.61e-05 3.93709e-14)
(0.000191876 6.34216e-05 1.83249e-14)
(0.000140874 4.26156e-05 9.80458e-15)
(7.81986e-05 3.37963e-05 4.23919e-15)
(4.97358e-05 1.98063e-05 2.03242e-15)
(-0.000234912 0.00140909 -2.67229e-08)
(0.000837692 0.00114484 9.14986e-08)
(-0.000558407 0.00187627 1.13967e-08)
(0.00100198 0.00110732 -2.00441e-07)
(-0.000618965 0.00246872 -2.92264e-08)
(0.000525635 0.00108991 -3.9092e-09)
(-0.00051953 0.00270003 -2.00259e-10)
(-0.000428507 0.00110154 -4.98815e-11)
(-0.000391378 0.00218947 -3.07923e-11)
(-0.00105651 0.00112509 -3.40024e-11)
(-0.000310697 0.00137453 -1.93976e-11)
(-0.00100891 0.00127687 -1.63353e-11)
(-0.00070198 0.00122261 -1.18431e-11)
(-0.00124972 0.00135283 -8.24037e-12)
(-0.0011448 0.00102738 -6.34766e-12)
(-0.00162019 0.00119576 -3.55067e-12)
(-0.00131558 0.000422641 -2.59477e-12)
(-0.00102041 0.0011546 -1.207e-12)
(-0.00212787 0.00145003 -7.97825e-13)
(-0.00281204 0.000324215 9.60551e-15)
(-0.00201401 -0.00130815 1.84604e-13)
(-0.000282002 -0.00144383 3.35397e-13)
(0.000323187 -0.000807914 1.96313e-13)
(0.000623085 -0.000304044 1.36973e-13)
(0.000398212 2.93685e-06 6.58328e-14)
(0.00033058 4.29782e-05 3.90229e-14)
(0.000192086 6.94238e-05 1.81005e-14)
(0.000139636 4.61792e-05 9.63861e-15)
(7.73468e-05 3.63461e-05 4.16231e-15)
(4.90117e-05 2.12799e-05 1.99126e-15)
(-0.000549866 -8.1735e-05 1.4011e-06)
(0.00131447 -6.09235e-05 5.9875e-06)
(-0.000675598 0.00105877 2.13881e-06)
(0.00135966 -5.38104e-05 -1.9798e-06)
(-0.000708478 0.002012 -3.88564e-07)
(0.000490419 7.59889e-05 -3.24957e-08)
(-0.000693212 0.00258127 -7.98618e-10)
(-0.000702403 0.000265523 1.41775e-10)
(-0.000689646 0.00211349 -2.3246e-11)
(-0.001327 0.00054877 -3.77042e-11)
(-0.000556434 0.00127571 -2.24679e-11)
(-0.00105353 0.00121675 -1.72656e-11)
(-0.000751745 0.00136952 -1.30351e-11)
(-0.00128318 0.00149018 -8.69878e-12)
(-0.00117642 0.00121866 -6.85786e-12)
(-0.00171346 0.00132469 -3.7111e-12)
(-0.00131645 0.000504105 -2.73001e-12)
(-0.000880931 0.00125571 -1.25517e-12)
(-0.00221622 0.00171764 -8.4571e-13)
(-0.00308089 0.0003826 1.97654e-14)
(-0.00216723 -0.00148492 2.11547e-13)
(-0.000241433 -0.00162464 3.60184e-13)
(0.000404055 -0.000876458 2.06894e-13)
(0.000673868 -0.000313932 1.39415e-13)
(0.000417405 1.39548e-05 6.60978e-14)
(0.000333724 5.07321e-05 3.86236e-14)
(0.000192135 7.56316e-05 1.78531e-14)
(0.000138257 4.979e-05 9.45963e-15)
(7.64192e-05 3.88854e-05 4.07981e-15)
(4.82335e-05 2.27433e-05 1.9473e-15)
(-0.000286815 0.00102077 -5.55052e-06)
(0.00274334 -0.000263592 1.37337e-05)
(-0.000806 0.00233645 4.39429e-05)
(0.00235698 0.00040616 -4.04448e-06)
(-0.00060461 0.00376821 2.52045e-06)
(0.00129617 0.00097586 7.51185e-08)
(-0.000490456 0.00406311 4.90374e-08)
(-0.000538128 0.00126319 1.88101e-09)
(-0.000418424 0.00300171 1.10996e-10)
(-0.00135476 0.00131025 -4.30138e-11)
(-0.000138982 0.00150549 -2.36957e-11)
(-0.000922043 0.00149543 -1.78459e-11)
(-0.000644007 0.00140466 -1.41232e-11)
(-0.00128059 0.00153556 -9.17472e-12)
(-0.00120131 0.00118203 -7.40822e-12)
(-0.00180872 0.00132074 -3.88571e-12)
(-0.00132887 0.000244344 -2.87235e-12)
(-0.000748181 0.00135678 -1.31576e-12)
(-0.00230931 0.00202582 -9.00084e-13)
(-0.00339365 0.000454937 2.97852e-14)
(-0.00234116 -0.0016854 2.42166e-13)
(-0.000192198 -0.00182504 3.87605e-13)
(0.000496937 -0.000947264 2.18347e-13)
(0.000729539 -0.000320386 1.41865e-13)
(0.000437486 2.74489e-05 6.62923e-14)
(0.000336584 5.94173e-05 3.81676e-14)
(0.000191986 8.20438e-05 1.75818e-14)
(0.000136728 5.3445e-05 9.26757e-15)
(7.54136e-05 4.14118e-05 3.99172e-15)
(4.74017e-05 2.41943e-05 1.9006e-15)
(-0.000859931 -0.0040503 -0.00126566)
(0.00580682 -0.0031327 -0.00247166)
(-0.000918462 0.00163464 -0.000727668)
(0.00343978 -0.00163851 -0.000381285)
(-0.000623288 0.00296243 -3.05067e-05)
(0.00130182 -0.000643235 -4.74307e-06)
(-0.00076192 0.00385413 -1.70918e-07)
(-0.00111247 2.93344e-05 -1.38551e-08)
(-0.000938616 0.00261343 -1.96004e-09)
(-0.00193903 0.000259527 -6.20828e-11)
(-0.000624827 0.00114509 -2.2448e-11)
(-0.00104875 0.00133851 -1.87477e-11)
(-0.000782262 0.00170573 -1.57151e-11)
(-0.00133739 0.00183373 -9.76369e-12)
(-0.00124546 0.00155243 -8.02899e-12)
(-0.00196177 0.00157918 -4.07178e-12)
(-0.0013018 0.000424024 -3.01335e-12)
(-0.000481976 0.00147597 -1.37155e-12)
(-0.00240529 0.00240142 -9.62826e-13)
(-0.00375527 0.000543777 3.94452e-14)
(-0.00253904 -0.00191517 2.76871e-13)
(-0.000132621 -0.00204871 4.17864e-13)
(0.000603456 -0.00101998 2.30689e-13)
(0.000790376 -0.000322719 1.4428e-13)
(0.000458301 4.37366e-05 6.63957e-14)
(0.000339039 6.90846e-05 3.76492e-14)
(0.000191597 8.86546e-05 1.72854e-14)
(0.00013504 5.71392e-05 9.06239e-15)
(7.43282e-05 4.39226e-05 3.89806e-15)
(4.65154e-05 2.56311e-05 1.85114e-15)
(0.0017619 -0.00596939 0.000554025)
(0.0175575 -0.00761299 0.00147083)
(0.00413599 0.00518786 0.000140771)
(0.00765032 -0.00205855 -0.000476423)
(0.00104166 0.00619316 -4.81155e-05)
(0.00252624 0.000598412 8.35685e-06)
(-0.000217153 0.00649478 8.39524e-07)
(-0.00112769 0.00163381 7.1478e-07)
(-0.000629764 0.00413389 4.08272e-08)
(-0.00189703 0.0015273 1.28939e-09)
(0.00016677 0.00140239 5.79945e-11)
(-0.000634851 0.00172981 -1.99338e-11)
(-0.000507099 0.00157296 -1.66289e-11)
(-0.0013076 0.00168802 -1.03122e-11)
(-0.00127731 0.0013436 -8.68983e-12)
(-0.0021049 0.00141518 -4.29976e-12)
(-0.00134784 -9.47043e-05 -3.17805e-12)
(-0.000305807 0.00156518 -1.46018e-12)
(-0.00250689 0.00281731 -1.03578e-12)
(-0.00417854 0.000649039 4.76874e-14)
(-0.00276421 -0.00217489 3.16195e-13)
(-6.04082e-05 -0.00229733 4.51213e-13)
(0.000725582 -0.00109415 2.43939e-13)
(0.000856662 -0.0003201 1.46611e-13)
(0.000479662 6.31385e-05 6.63856e-14)
(0.000340954 7.97789e-05 3.70623e-14)
(0.000190926 9.54533e-05 1.69626e-14)
(0.000133186 6.08663e-05 8.84408e-15)
(7.31613e-05 4.64147e-05 3.79888e-15)
(4.55727e-05 2.70516e-05 1.79886e-15)
(-0.00274198 -0.0424423 -0.00504872)
(0.03046 -0.0306807 -0.00756758)
(0.00788814 0.00753149 0.00686266)
(0.0130531 -0.00370946 -0.00420069)
(0.00157554 0.00683618 0.000177168)
(0.00244355 -0.000953679 -0.00041348)
(-0.00112066 0.00625223 4.12589e-05)
(-0.0025437 6.52256e-05 -9.24803e-06)
(-0.00155105 0.00311617 2.94498e-07)
(-0.00303255 -0.000330234 -4.18116e-08)
(-0.000742072 0.000604489 -1.99453e-09)
(-0.000963222 0.00145127 -1.4023e-10)
(-0.000845366 0.00218993 -2.00841e-11)
(-0.00138625 0.00232625 -1.09583e-11)
(-0.00132352 0.0019964 -9.50605e-12)
(-0.00233877 0.00188376 -4.48525e-12)
(-0.00125582 0.000122067 -3.3059e-12)
(0.000168772 0.00173599 -1.51851e-12)
(-0.0026035 0.00336094 -1.12079e-12)
(-0.00466427 0.000792176 5.45715e-14)
(-0.00302035 -0.00248183 3.60487e-13)
(2.62302e-05 -0.00257959 4.87816e-13)
(0.000865252 -0.00117045 2.58088e-13)
(0.00092866 -0.000311818 1.48798e-13)
(0.000501332 8.5977e-05 6.62366e-14)
(0.000342177 9.15347e-05 3.64008e-14)
(0.000189926 0.000102423 1.66122e-14)
(0.000131158 6.46177e-05 8.61266e-15)
(7.19112e-05 4.88847e-05 3.69422e-15)
(4.45722e-05 2.84541e-05 1.74369e-15)
(-0.00452028 -0.0478394 -0.0207619)
(0.0088867 -0.0634266 -0.0291832)
(0.0107241 0.0135011 -0.0029067)
(0.0171164 -0.0052646 -0.00342663)
(0.00620381 0.0149154 -0.00439333)
(0.00542849 0.00162996 -0.00175287)
(-0.000346643 0.0111942 -0.000319299)
(-0.00323068 0.00249103 -6.82579e-06)
(-0.00158305 0.00542011 -4.23347e-06)
(-0.00296995 0.00161912 3.18812e-07)
(0.000618902 0.000804648 -4.55972e-08)
(5.99254e-05 0.0019844 2.85774e-10)
(-0.000188449 0.00174959 -8.90752e-11)
(-0.00133425 0.00181057 -7.91806e-12)
(-0.00139333 0.00153533 -1.14878e-11)
(-0.00259217 0.00149357 -4.66667e-12)
(-0.00137524 -0.000669184 -3.55007e-12)
(0.000415334 0.00174786 -1.65973e-12)
(-0.00271502 0.00390337 -1.22524e-12)
(-0.00524346 0.000929183 5.68503e-14)
(-0.00331557 -0.00281736 4.10561e-13)
(0.000132109 -0.00288692 5.28241e-13)
(0.00102573 -0.00124557 2.73207e-13)
(0.00100676 -0.000296044 1.50781e-13)
(0.000523053 0.000112708 6.59222e-14)
(0.000342542 0.000104386 3.56587e-14)
(0.000188552 0.000109542 1.62333e-14)
(0.000128948 6.83842e-05 8.36819e-15)
(7.05766e-05 5.13299e-05 3.58415e-15)
(4.35142e-05 2.9838e-05 1.68571e-15)
(-8.16549e-06 -0.0470029 -0.0372028)
(-0.0201958 -0.0635727 -0.0515355)
(-0.0122487 -0.00851008 -0.00315086)
(-0.000712118 -0.0115766 0.00253696)
(0.000919833 0.0142929 -0.00858718)
(-0.0051871 0.00103012 -0.000722513)
(0.00350465 0.0119424 -0.00032912)
(-0.0049474 0.000699027 0.000581353)
(-0.00263113 0.00331197 -3.46389e-06)
(-0.0050082 -0.00149765 1.4308e-06)
(-0.000853146 -0.000737129 -4.89281e-07)
(-0.000577756 0.00147839 1.3653e-09)
(-0.000922113 0.00292778 -3.1148e-10)
(-0.00141697 0.00307109 6.31228e-12)
(-0.00140201 0.00260306 -2.70542e-11)
(-0.00290623 0.00223892 -2.95604e-12)
(-0.001182 -0.000435757 -3.96849e-12)
(0.00118603 0.00204661 -1.70174e-12)
(-0.00279542 0.00472273 -1.3472e-12)
(-0.00589301 0.00117982 5.70329e-14)
(-0.00364578 -0.00323905 4.66429e-13)
(0.000256408 -0.00325096 5.71898e-13)
(0.0012079 -0.00132779 2.89044e-13)
(0.00109088 -0.0002746 1.52458e-13)
(0.000544394 0.000143436 6.54091e-14)
(0.000341852 0.000118267 3.48296e-14)
(0.000186754 0.000116761 1.5825e-14)
(0.00012655 7.21426e-05 8.11077e-15)
(6.91565e-05 5.37388e-05 3.46872e-15)
(4.24013e-05 3.11928e-05 1.62512e-15)
(-0.00142121 -0.00704087 -0.0483387)
(-0.0194422 -0.0182383 -0.0458673)
(-0.0271278 0.0059636 0.0267716)
(0.00114627 -0.0158121 0.0131493)
(-0.00919074 0.020587 -9.14662e-05)
(-0.00942697 0.00120725 -0.00105956)
(-0.00334145 0.0117377 0.00148273)
(-0.0108921 0.007811 -0.00287221)
(-0.00341194 0.00695401 0.000554249)
(-0.00444821 0.00125572 -2.10655e-05)
(0.00154984 -0.000799983 -6.66186e-06)
(0.00154344 0.0022593 -2.71618e-07)
(0.000503333 0.00204535 2.0391e-08)
(-0.00137377 0.00186917 -5.40312e-10)
(-0.00159712 0.00181989 -2.16874e-10)
(-0.00336761 0.00157995 1.78051e-11)
(-0.00141598 -0.00173295 -8.21219e-12)
(0.00155528 0.00187013 -1.81643e-12)
(-0.00292385 0.00539774 -1.55124e-12)
(-0.00670017 0.00133699 4.44062e-14)
(-0.00404231 -0.00367729 5.2973e-13)
(0.000411695 -0.00363113 6.21041e-13)
(0.00141924 -0.00139326 3.06183e-13)
(0.00118242 -0.000234999 1.53814e-13)
(0.000565286 0.000179572 6.46738e-14)
(0.000339928 0.000133443 3.39082e-14)
(0.00018449 0.000124246 1.53867e-14)
(0.00012396 7.60051e-05 7.84051e-15)
(6.76503e-05 5.61908e-05 3.34799e-15)
(4.12344e-05 3.25738e-05 1.56195e-15)
(-0.0133674 -0.00678673 -0.0243791)
(-0.00560899 -0.0099053 -0.0373531)
(-0.0246927 -0.0056696 0.0197272)
(-0.00345959 -0.0309873 0.0294226)
(0.00525661 0.0260559 -0.0066771)
(-0.0041403 -0.00179158 -0.0016787)
(-0.000438844 0.0136329 0.000383447)
(-0.00668255 0.00138905 0.00335571)
(-0.00849712 0.000613617 -0.00128535)
(-0.00778048 -0.00409691 0.000313372)
(-0.000267234 -0.00353161 -5.6127e-05)
(0.000482799 0.00120422 3.38332e-06)
(-0.00119462 0.00418724 -6.03731e-07)
(-0.00144229 0.00427306 3.59306e-08)
(-0.00145962 0.00346216 -2.55152e-09)
(-0.00380098 0.00264072 2.09594e-10)
(-0.00110705 -0.00141792 -4.71839e-11)
(0.00275737 0.00243049 -1.17294e-12)
(-0.00295988 0.0066602 -2.22028e-12)
(-0.00756409 0.00177379 1.99983e-14)
(-0.00446445 -0.0042259 5.98639e-13)
(0.000589294 -0.00409405 6.72282e-13)
(0.00165645 -0.00148993 3.23325e-13)
(0.00127855 -0.000203613 1.54542e-13)
(0.000583975 0.000218475 6.36519e-14)
(0.000336453 0.000148548 3.2886e-14)
(0.000181698 0.000131016 1.49174e-14)
(0.000121163 7.93968e-05 7.55726e-15)
(6.60529e-05 5.8295e-05 3.22194e-15)
(4.00161e-05 3.37516e-05 1.49663e-15)
(0.0223079 0.0563403 -0.00536142)
(0.00301405 0.00789388 -0.0146582)
(-0.0150224 0.0280901 0.0367538)
(-0.0191513 -0.0391182 0.0150036)
(0.00564573 0.0233293 0.0058291)
(-0.00483992 0.00684268 0.00217841)
(-0.00453869 0.0159723 -0.00763348)
(-0.000397707 0.0152726 -0.00313284)
(-0.00390643 0.0104683 0.00423633)
(-0.00799927 -0.00162899 -0.000410786)
(0.0041183 -0.00409603 -0.00022787)
(0.00449579 0.00295123 -1.88255e-05)
(0.00208118 0.00280858 4.15718e-06)
(-0.00144601 0.0017598 -2.75551e-07)
(-0.0019772 0.00229086 -9.08442e-09)
(-0.00456691 0.00172214 1.42636e-09)
(-0.00147832 -0.00347665 -3.84709e-10)
(0.00332479 0.00182635 -2.50195e-12)
(-0.00312151 0.00745213 -7.8755e-12)
(-0.00870281 0.00194171 -3.09061e-13)
(-0.0050093 -0.00493412 6.6521e-13)
(0.000809667 -0.0046317 7.31589e-13)
(0.00193285 -0.0015432 3.42632e-13)
(0.00138622 -0.00012333 1.55011e-13)
(0.000603091 0.000270569 6.23772e-14)
(0.000331406 0.000167189 3.17676e-14)
(0.000178408 0.000139859 1.44212e-14)
(0.000118204 8.39886e-05 7.26367e-15)
(6.43888e-05 6.12516e-05 3.09168e-15)
(3.87576e-05 3.54052e-05 1.42922e-15)
(-0.0687364 -0.101916 -0.128096)
(-0.0369655 0.034455 -0.0434887)
(-0.0176117 0.0208186 0.00759212)
(-0.0236949 -0.0419249 0.00862713)
(-0.00252082 0.00873633 0.00521429)
(-0.0228257 0.00581719 -0.01217)
(-0.00754874 0.010608 0.00302411)
(-0.0169392 -0.000708768 -0.0107897)
(-0.00648157 0.00575035 -0.0015591)
(-0.0133599 -0.00854674 0.00289516)
(0.00241891 -0.00967678 -0.00119962)
(0.00262339 0.000677727 8.42734e-05)