/*--------------------------------*- C++ -*----------------------------------*\
| =========                 |                                                 |
| \\      /  F ield         | OpenFOAM: The Open Source CFD Toolbox           |
|  \\    /   O peration     | Version:  2.4.0                                 |
|   \\  /    A nd           | Web:      www.OpenFOAM.org                      |
|    \\/     M anipulation  |                                                 |
\*---------------------------------------------------------------------------*/
FoamFile
{
    version     2.0;
    format      ascii;
    class       surfaceScalarField;
    location    "0.237";
    object      phiAlpha;
}
// * * * * * * * * * * * * * * * * * * * * * * * * * * * * * * * * * * * * * //

dimensions      [0 3 -1 0 0 0 0];

internalField   nonuniform List<scalar> 
119500
(
-1.19726e-09
1.19726e-09
-2.4505e-09
1.25323e-09
-3.68929e-09
1.23879e-09
-4.88376e-09
1.19447e-09
-6.02024e-09
1.13648e-09
-7.08973e-09
1.06948e-09
-8.08776e-09
9.98031e-10
-9.01149e-09
9.23733e-10
-9.86188e-09
8.50389e-10
-1.06422e-08
7.80358e-10
-1.13573e-08
7.1509e-10
-1.20149e-08
6.57549e-10
-1.26223e-08
6.07393e-10
-1.31901e-08
5.67814e-10
-1.3726e-08
5.3587e-10
-1.42379e-08
5.11931e-10
-1.47344e-08
4.96479e-10
-1.52226e-08
4.88264e-10
-1.57083e-08
4.85642e-10
-1.61958e-08
4.87559e-10
-1.669e-08
4.94152e-10
-1.71924e-08
5.02401e-10
-1.77037e-08
5.11298e-10
-1.82234e-08
5.19692e-10
-1.87499e-08
5.26512e-10
-1.92806e-08
5.30754e-10
-1.98121e-08
5.31505e-10
-2.03401e-08
5.27986e-10
-2.08596e-08
5.19501e-10
-2.13651e-08
5.05478e-10
-2.18505e-08
4.85435e-10
-2.23095e-08
4.59e-10
-2.27354e-08
4.25859e-10
-2.31212e-08
3.85805e-10
-2.34599e-08
3.38664e-10
-2.37442e-08
2.8434e-10
-2.3967e-08
2.22757e-10
-2.41209e-08
1.53884e-10
-2.41985e-08
7.75998e-11
-2.4195e-08
-3.48366e-12
-2.40987e-08
-9.62175e-11
-2.3905e-08
-1.93781e-10
-2.36067e-08
-2.98222e-10
-2.31971e-08
-4.09679e-10
-2.267e-08
-5.27026e-10
-2.20189e-08
-6.51183e-10
-2.12368e-08
-7.8206e-10
-2.03174e-08
-9.19415e-10
-1.92544e-08
-1.06302e-09
-1.80416e-08
-1.21272e-09
-1.66733e-08
-1.36832e-09
-1.51437e-08
-1.52957e-09
-1.34477e-08
-1.69607e-09
-1.15802e-08
-1.8675e-09
-9.53675e-09
-2.04342e-09
-7.31333e-09
-2.22342e-09
-4.90624e-09
-2.4071e-09
-2.31164e-09
-2.59459e-09
4.77002e-10
-2.78864e-09
3.44486e-09
-2.96786e-09
6.60102e-09
-3.15616e-09
9.94757e-09
-3.34655e-09
1.34839e-08
-3.53629e-09
1.72064e-08
-3.72254e-09
2.11145e-08
-3.90805e-09
2.52021e-08
-4.08769e-09
2.94652e-08
-4.26308e-09
3.39002e-08
-4.43494e-09
3.85026e-08
-4.60239e-09
4.3261e-08
-4.75849e-09
4.8172e-08
-4.91092e-09
5.32251e-08
-5.05318e-09
5.84121e-08
-5.18692e-09
6.3723e-08
-5.31097e-09
6.9147e-08
-5.42397e-09
7.46723e-08
-5.52531e-09
8.02856e-08
-5.61333e-09
8.59718e-08
-5.68616e-09
9.17135e-08
-5.74169e-09
9.74906e-08
-5.77716e-09
1.0328e-07
-5.78909e-09
1.09053e-07
-5.77295e-09
1.14776e-07
-5.72358e-09
1.20412e-07
-5.63592e-09
1.25917e-07
-5.50503e-09
1.31243e-07
-5.32603e-09
1.36338e-07
-5.09481e-09
1.41145e-07
-4.80701e-09
1.45606e-07
-4.46109e-09
1.49651e-07
-4.04487e-09
1.53197e-07
-3.54588e-09
1.56134e-07
-2.93704e-09
1.58294e-07
-2.1602e-09
1.59428e-07
-1.13402e-09
1.59388e-07
4.0405e-11
1.5819e-07
1.19747e-09
1.56043e-07
2.14694e-09
1.5304e-07
3.00356e-09
1.49243e-07
3.79705e-09
4.54075e-09
1.44702e-07
-1.42571e-09
2.62297e-09
-2.97741e-09
2.80494e-09
-4.52762e-09
2.78899e-09
-6.0434e-09
2.71025e-09
-7.51356e-09
2.60664e-09
-8.9349e-09
2.49082e-09
-1.03045e-08
2.36768e-09
-1.16242e-08
2.2434e-09
-1.28982e-08
2.12442e-09
-1.41329e-08
2.01498e-09
-1.53364e-08
1.91857e-09
-1.65194e-08
1.84062e-09
-1.76914e-08
1.77935e-09
-1.88628e-08
1.73926e-09
-2.0041e-08
1.71408e-09
-2.12356e-08
1.70646e-09
-2.24543e-08
1.71524e-09
-2.37026e-08
1.73659e-09
-2.49845e-08
1.76745e-09
-2.63022e-08
1.80533e-09
-2.7656e-08
1.84795e-09
-2.9045e-08
1.8914e-09
-3.04668e-08
1.9331e-09
-3.19176e-08
1.9705e-09
-3.33924e-08
2.0013e-09
-3.48851e-08
2.02347e-09
-3.63888e-08
2.03518e-09
-3.78957e-08
2.03488e-09
-3.93974e-08
2.02123e-09
-4.08851e-08
1.99314e-09
-4.23494e-08
1.94969e-09
-4.37805e-08
1.89017e-09
-4.51687e-08
1.81402e-09
-4.65037e-08
1.72083e-09
-4.77753e-08
1.6103e-09
-4.89733e-08
1.48227e-09
-5.00871e-08
1.33662e-09
-5.11066e-08
1.17333e-09
-5.20214e-08
9.92472e-10
-5.28198e-08
7.94917e-10
-5.34941e-08
5.78033e-10
-5.40327e-08
3.4478e-10
-5.44246e-08
9.37255e-11
-5.46583e-08
-1.76002e-10
-5.47253e-08
-4.59989e-10
-5.46152e-08
-7.61302e-10
-5.43175e-08
-1.07975e-09
-5.38225e-08
-1.41438e-09
-5.31208e-08
-1.76477e-09
-5.22029e-08
-2.13064e-09
-5.10597e-08
-2.51149e-09
-4.96825e-08
-2.90672e-09
-4.80632e-08
-3.31538e-09
-4.6194e-08
-3.73667e-09
-4.4068e-08
-4.16949e-09
-4.16787e-08
-4.61268e-09
-3.90208e-08
-5.06498e-09
-3.60901e-08
-5.52534e-09
-3.28861e-08
-5.99261e-09
-2.93977e-08
-6.45627e-09
-2.56287e-08
-6.92515e-09
-2.15794e-08
-7.39588e-09
-1.72507e-08
-7.86497e-09
-1.26438e-08
-8.32949e-09
-7.76291e-09
-8.7889e-09
-2.61111e-09
-9.23948e-09
2.808e-09
-9.68219e-09
8.48267e-09
-1.01096e-08
1.44005e-08
-1.05202e-08
2.05627e-08
-1.09207e-08
2.69491e-08
-1.12974e-08
3.35573e-08
-1.16613e-08
4.03699e-08
-1.19996e-08
4.73754e-08
-1.23164e-08
5.456e-08
-1.26086e-08
6.19028e-08
-1.28681e-08
6.93894e-08
-1.30999e-08
7.69983e-08
-1.32951e-08
8.47059e-08
-1.34493e-08
9.24851e-08
-1.35563e-08
1.00304e-07
-1.36084e-08
1.08126e-07
-1.35948e-08
1.15907e-07
-1.35038e-08
1.23593e-07
-1.33228e-08
1.3113e-07
-1.30417e-08
1.38448e-07
-1.26443e-08
1.45476e-07
-1.21228e-08
1.52135e-07
-1.14655e-08
1.58345e-07
-1.0671e-08
1.64014e-07
-9.71417e-09
1.69048e-07
-8.57948e-09
1.73332e-07
-7.22132e-09
1.76746e-07
-5.57476e-09
1.79168e-07
-3.55595e-09
1.80379e-07
-1.17005e-09
1.80154e-07
1.42272e-09
1.78336e-07
3.96415e-09
1.74962e-07
6.37801e-09
1.70111e-07
8.64782e-09
1.07314e-08
1.6392e-07
-1.4909e-09
4.11387e-09
-3.13604e-09
4.45007e-09
-4.79013e-09
4.44308e-09
-6.41662e-09
4.33674e-09
-8.00763e-09
4.19764e-09
-9.55962e-09
4.04281e-09
-1.10739e-08
3.88192e-09
-1.25535e-08
3.723e-09
-1.40033e-08
3.57423e-09
-1.54319e-08
3.44363e-09
-1.68486e-08
3.33524e-09
-1.82629e-08
3.25491e-09
-1.96874e-08
3.20388e-09
-2.11274e-08
3.1793e-09
-2.2597e-08
3.18365e-09
-2.41032e-08
3.21268e-09
-2.56521e-08
3.2641e-09
-2.72488e-08
3.33326e-09
-2.88967e-08
3.41538e-09
-3.05975e-08
3.50612e-09
-3.23507e-08
3.60117e-09
-3.41547e-08
3.69542e-09
-3.60064e-08
3.78472e-09
-3.79011e-08
3.86522e-09
-3.98332e-08
3.93345e-09
-4.17961e-08
3.98635e-09
-4.37822e-08
4.02128e-09
-4.57832e-08
4.03592e-09
-4.77904e-08
4.02838e-09
-4.97943e-08
3.99709e-09
-5.17853e-08
3.9407e-09
-5.37534e-08
3.85821e-09
-5.56882e-08
3.74884e-09
-5.75793e-08
3.61197e-09
-5.94162e-08
3.4472e-09
-6.11882e-08
3.25427e-09
-6.28846e-08
3.03302e-09
-6.44947e-08
2.78342e-09
-6.60078e-08
2.50555e-09
-6.74126e-08
2.19971e-09
-6.86994e-08
1.86481e-09
-6.98568e-08
1.50221e-09
-7.08746e-08
1.11148e-09
-7.17432e-08
6.9267e-10
-7.24504e-08
2.47185e-10
-7.29859e-08
-2.25825e-10
-7.33377e-08
-7.27917e-10
-7.34956e-08
-1.25651e-09
-7.34495e-08
-1.81082e-09
-7.31894e-08
-2.39074e-09
-7.27055e-08
-2.99543e-09
-7.19879e-08
-3.62428e-09
-7.10279e-08
-4.27543e-09
-6.98168e-08
-4.94774e-09
-6.83469e-08
-5.63936e-09
-6.66113e-08
-6.34835e-09
-6.46037e-08
-7.07256e-09
-6.23195e-08
-7.80958e-09
-5.97554e-08
-8.55663e-09
-5.69048e-08
-9.30685e-09
-5.37679e-08
-1.00621e-08
-5.03448e-08
-1.0819e-08
-4.66361e-08
-1.15736e-08
-4.26435e-08
-1.23221e-08
-3.83707e-08
-1.30617e-08
-3.38218e-08
-1.37884e-08
-2.90039e-08
-1.45001e-08
-2.39223e-08
-1.51912e-08
-1.85836e-08
-1.58589e-08
-1.30004e-08
-1.65038e-08
-7.17906e-09
-1.71188e-08
-1.13437e-09
-1.7706e-08
5.12429e-09
-1.82582e-08
1.15816e-08
-1.87737e-08
1.82199e-08
-1.9247e-08
2.50267e-08
-1.96749e-08
3.19804e-08
-2.00537e-08
3.90598e-08
-2.03745e-08
4.62396e-08
-2.0629e-08
5.349e-08
-2.08067e-08
6.07752e-08
-2.08936e-08
6.80526e-08
-2.08723e-08
7.5271e-08
-2.07223e-08
8.23716e-08
-2.04234e-08
8.92855e-08
-1.99555e-08
9.59395e-08
-1.92984e-08
1.02255e-07
-1.84381e-08
1.08144e-07
-1.73546e-08
1.1353e-07
-1.60572e-08
1.18339e-07
-1.45226e-08
1.22493e-07
-1.27336e-08
1.25932e-07
-1.06603e-08
1.28622e-07
-8.26476e-09
1.30525e-07
-5.45897e-09
1.3157e-07
-2.21486e-09
1.31645e-07
1.34675e-09
1.30544e-07
5.06609e-09
1.28148e-07
8.77314e-09
1.24383e-07
1.24129e-08
1.58927e-08
1.19222e-07
-1.53818e-09
5.65205e-09
-3.23949e-09
6.15137e-09
-4.95067e-09
6.15426e-09
-6.63441e-09
6.02047e-09
-8.2839e-09
5.84713e-09
-9.89695e-09
5.65586e-09
-1.14733e-08
5.45831e-09
-1.30179e-08
5.26755e-09
-1.45371e-08
5.09342e-09
-1.60394e-08
4.94595e-09
-1.75346e-08
4.83039e-09
-1.90329e-08
4.75327e-09
-2.05456e-08
4.71653e-09
-2.20846e-08
4.71836e-09
-2.36584e-08
4.75745e-09
-2.52757e-08
4.82996e-09
-2.69431e-08
4.93149e-09
-2.86658e-08
5.05595e-09
-3.04472e-08
5.19685e-09
-3.22891e-08
5.34796e-09
-3.41909e-08
5.50304e-09
-3.61512e-08
5.65564e-09
-3.81665e-08
5.80009e-09
-4.02325e-08
5.93123e-09
-4.23435e-08
6.04444e-09
-4.44929e-08
6.13568e-09
-4.66731e-08
6.20148e-09
-4.8876e-08
6.23884e-09
-5.10929e-08
6.24529e-09
-5.33146e-08
6.21877e-09
-5.55315e-08
6.15757e-09
-5.77336e-08
6.0604e-09
-5.9911e-08
5.92621e-09
-6.20533e-08
5.75425e-09
-6.41501e-08
5.54396e-09
-6.61908e-08
5.295e-09
-6.81649e-08
5.00714e-09
-7.00618e-08
4.68032e-09
-7.18708e-08
4.31456e-09
-7.35811e-08
3.90994e-09
-7.51823e-08
3.46604e-09
-7.66636e-08
2.9835e-09
-7.80143e-08
2.46219e-09
-7.9224e-08
1.90236e-09
-8.02816e-08
1.30479e-09
-8.11768e-08
6.69367e-10
-8.18994e-08
-5.23748e-12
-8.24382e-08
-7.17758e-10
-8.27821e-08
-1.46689e-09
-8.29209e-08
-2.25194e-09
-8.28444e-08
-3.07198e-09
-8.25426e-08
-3.92602e-09
-8.20064e-08
-4.8117e-09
-8.12265e-08
-5.72761e-09
-8.01947e-08
-6.67114e-09
-7.89035e-08
-7.63954e-09
-7.73463e-08
-8.62981e-09
-7.55174e-08
-9.63841e-09
-7.34127e-08
-1.06613e-08
-7.10268e-08
-1.16928e-08
-6.83582e-08
-1.27307e-08
-6.54062e-08
-1.3771e-08
-6.2171e-08
-1.48088e-08
-5.86539e-08
-1.58392e-08
-5.4858e-08
-1.68576e-08
-5.07871e-08
-1.78593e-08
-4.64468e-08
-1.88404e-08
-4.1843e-08
-1.9795e-08
-3.69824e-08
-2.07195e-08
-3.18752e-08
-2.16111e-08
-2.65297e-08
-2.24643e-08
-2.09584e-08
-2.32773e-08
-1.51731e-08
-2.40436e-08
-9.18797e-09
-2.47588e-08
-3.01863e-09
-2.54163e-08
3.31644e-09
-2.60099e-08
9.79427e-09
-2.65315e-08
1.63905e-08
-2.69707e-08
2.30754e-08
-2.73139e-08
2.98133e-08
-2.75447e-08
3.6561e-08
-2.76412e-08
4.32658e-08
-2.75771e-08
4.9867e-08
-2.73235e-08
5.62932e-08
-2.68496e-08
6.24653e-08
-2.61276e-08
6.83021e-08
-2.51352e-08
7.37107e-08
-2.38466e-08
7.86291e-08
-2.2273e-08
8.29701e-08
-2.03983e-08
8.66734e-08
-1.82259e-08
8.97058e-08
-1.5766e-08
9.20381e-08
-1.29925e-08
9.36768e-08
-9.90354e-09
9.46691e-08
-6.45125e-09
9.50422e-08
-2.58794e-09
9.47951e-08
1.59388e-09
9.38139e-08
6.04724e-09
9.18582e-08
1.07289e-08
8.86562e-08
1.56148e-08
2.04915e-08
8.40575e-08
-1.56771e-09
7.21976e-09
-3.29724e-09
7.8809e-09
-5.03549e-09
7.89251e-09
-6.7457e-09
7.73067e-09
-8.41863e-09
7.52007e-09
-1.00522e-08
7.28943e-09
-1.16486e-08
7.0547e-09
-1.32112e-08
6.83014e-09
-1.47486e-08
6.63083e-09
-1.62678e-08
6.46518e-09
-1.77814e-08
6.34401e-09
-1.92991e-08
6.27092e-09
-2.08325e-08
6.24989e-09
-2.23949e-08
6.28085e-09
-2.3995e-08
6.3575e-09
-2.56416e-08
6.47659e-09
-2.73419e-08
6.63174e-09
-2.91011e-08
6.81515e-09
-3.09228e-08
7.01857e-09
-3.28087e-08
7.23383e-09
-3.47584e-08
7.45281e-09
-3.67704e-08
7.66759e-09
-3.88413e-08
7.87098e-09
-4.09666e-08
8.05652e-09
-4.31406e-08
8.21845e-09
-4.53566e-08
8.35177e-09
-4.76073e-08
8.45217e-09
-4.98845e-08
8.51602e-09
-5.21795e-08
8.54025e-09
-5.44831e-08
8.52236e-09
-5.67858e-08
8.46028e-09
-5.90778e-08
8.35242e-09
-6.13491e-08
8.19751e-09
-6.35895e-08
7.99462e-09
-6.57886e-08
7.74307e-09
-6.7936e-08
7.44242e-09
-7.00212e-08
7.09238e-09
-7.20337e-08
6.69283e-09
-7.39629e-08
6.24375e-09
-7.57981e-08
5.74512e-09
-7.75288e-08
5.19676e-09
-7.91443e-08
4.59898e-09
-8.06339e-08
3.95175e-09
-8.19868e-08
3.25526e-09
-8.31919e-08
2.50994e-09
-8.42383e-08
1.71575e-09
-8.51159e-08
8.72352e-10
-8.58141e-08
-1.94831e-11
-8.6322e-08
-9.59063e-10
-8.66284e-08
-1.94549e-09
-8.67229e-08
-2.97748e-09
-8.65954e-08
-4.05348e-09
-8.6236e-08
-5.17118e-09
-8.56353e-08
-6.32832e-09
-8.47845e-08
-7.52189e-09
-8.36757e-08
-8.74839e-09
-8.23016e-08
-1.00039e-08
-8.0656e-08
-1.12839e-08
-7.87339e-08
-1.25835e-08
-7.65302e-08
-1.38965e-08
-7.40423e-08
-1.52186e-08
-7.12688e-08
-1.65445e-08
-6.82096e-08
-1.78681e-08
-6.48654e-08
-1.91834e-08
-6.12386e-08
-2.04844e-08
-5.73328e-08
-2.17652e-08
-5.3153e-08
-2.30201e-08
-4.8705e-08
-2.4243e-08
-4.39961e-08
-2.54284e-08
-3.90353e-08
-2.65718e-08
-3.38323e-08
-2.76673e-08
-2.83995e-08
-2.87101e-08
-2.275e-08
-2.9693e-08
-1.68998e-08
-3.06091e-08
-1.08668e-08
-3.14493e-08
-4.67272e-09
-3.22041e-08
1.65777e-09
-3.2862e-08
8.09543e-09
-3.34083e-08
1.46064e-08
-3.38249e-08
2.11499e-08
-3.40881e-08
2.76771e-08
-3.41684e-08
3.4129e-08
-3.40291e-08
4.04378e-08
-3.36323e-08
4.65269e-08
-3.29386e-08
5.23124e-08
-3.19132e-08
5.7705e-08
-3.05278e-08
6.26397e-08
-2.87813e-08
6.70183e-08
-2.66517e-08
7.0782e-08
-2.4162e-08
7.39043e-08
-2.13482e-08
7.63424e-08
-1.82042e-08
7.81011e-08
-1.47512e-08
7.92104e-08
-1.10129e-08
7.97634e-08
-7.00421e-09
7.98489e-08
-2.67342e-09
7.94721e-08
1.97059e-09
7.84958e-08
7.02356e-09
7.66025e-08
1.26221e-08
7.33745e-08
1.88428e-08
2.51951e-08
6.86709e-08
-1.59144e-09
8.8112e-09
-3.33877e-09
9.62823e-09
-5.09332e-09
9.64706e-09
-6.81629e-09
9.45364e-09
-8.49933e-09
9.20311e-09
-1.01394e-08
8.92949e-09
-1.17383e-08
8.65361e-09
-1.33015e-08
8.39334e-09
-1.48361e-08
8.16545e-09
-1.63517e-08
7.98075e-09
-1.78601e-08
7.85245e-09
-1.9373e-08
7.78376e-09
-2.09023e-08
7.77926e-09
-2.24609e-08
7.83946e-09
-2.40594e-08
7.95597e-09
-2.57066e-08
8.12377e-09
-2.74099e-08
8.33503e-09
-2.91748e-08
8.58004e-09
-3.10049e-08
8.84867e-09
-3.29018e-08
9.13074e-09
-3.48653e-08
9.41628e-09
-3.68934e-08
9.69576e-09
-3.89829e-08
9.96049e-09
-4.11291e-08
1.02027e-08
-4.33261e-08
1.04155e-08
-4.55672e-08
1.05928e-08
-4.78447e-08
1.07297e-08
-5.01506e-08
1.08219e-08
-5.24759e-08
1.08656e-08
-5.48115e-08
1.0858e-08
-5.71479e-08
1.07966e-08
-5.94751e-08
1.06796e-08
-6.17831e-08
1.05056e-08
-6.40618e-08
1.02733e-08
-6.63007e-08
9.982e-09
-6.84895e-08
9.6312e-09
-7.06176e-08
9.22053e-09
-7.26746e-08
8.74982e-09
-7.46498e-08
8.21898e-09
-7.65327e-08
7.62798e-09
-7.83126e-08
6.9767e-09
-7.99789e-08
6.26525e-09
-8.15208e-08
5.49364e-09
-8.29275e-08
4.66194e-09
-8.41879e-08
3.77033e-09
-8.52909e-08
2.8188e-09
-8.62258e-08
1.80726e-09
-8.69817e-08
7.36367e-10
-8.75476e-08
-3.93165e-10
-8.79126e-08
-1.58045e-09
-8.80659e-08
-2.8242e-09
-8.79969e-08
-4.12245e-09
-8.76954e-08
-5.47272e-09
-8.71516e-08
-6.87212e-09
-8.63563e-08
-8.31712e-09
-8.53012e-08
-9.80351e-09
-8.39786e-08
-1.13265e-08
-8.23818e-08
-1.28807e-08
-8.05051e-08
-1.44601e-08
-7.83436e-08
-1.6058e-08
-7.58941e-08
-1.76681e-08
-7.31546e-08
-1.92839e-08
-7.01245e-08
-2.08981e-08
-6.68046e-08
-2.25033e-08
-6.31969e-08
-2.40921e-08
-5.93049e-08
-2.56572e-08
-5.51335e-08
-2.71915e-08
-5.06888e-08
-2.86876e-08
-4.59786e-08
-3.01387e-08
-4.10123e-08
-3.15381e-08
-3.58008e-08
-3.28788e-08
-3.03572e-08
-3.41537e-08
-2.46965e-08
-3.53537e-08
-1.88364e-08
-3.64691e-08
-1.27973e-08
-3.74884e-08
-6.60272e-09
-3.83987e-08
-2.7975e-10
-3.9185e-08
6.14074e-09
-3.98288e-08
1.2623e-08
-4.03072e-08
1.91248e-08
-4.059e-08
2.55957e-08
-4.06393e-08
3.19778e-08
-4.04111e-08
3.82014e-08
-3.98559e-08
4.41882e-08
-3.89255e-08
4.98562e-08
-3.75812e-08
5.51205e-08
-3.5792e-08
5.98951e-08
-3.35559e-08
6.41069e-08
-3.08635e-08
6.77081e-08
-2.77632e-08
7.0642e-08
-2.42821e-08
7.28991e-08
-2.04612e-08
7.45175e-08
-1.63696e-08
7.55267e-08
-1.2022e-08
7.60235e-08
-7.50102e-09
7.61281e-08
-2.77807e-09
7.58448e-08
2.2539e-09
7.50346e-08
7.83379e-09
7.32336e-08
1.44231e-08
6.99194e-08
2.2157e-08
3.01536e-08
6.49609e-08
-1.61576e-09
1.0427e-08
-3.38004e-09
1.13925e-08
-5.14889e-09
1.14159e-08
-6.88291e-09
1.11877e-08
-8.57232e-09
1.08925e-08
-1.02143e-08
1.05715e-08
-1.18114e-08
1.02507e-08
-1.33676e-08
9.94954e-09
-1.48923e-08
9.69009e-09
-1.63956e-08
9.48409e-09
-1.78905e-08
9.34733e-09
-1.93887e-08
9.28195e-09
-2.09058e-08
9.29637e-09
-2.24507e-08
9.38435e-09
-2.40381e-08
9.54343e-09
-2.56764e-08
9.76209e-09
-2.73734e-08
1.0032e-08
-2.91346e-08
1.03412e-08
-3.09637e-08
1.06778e-08
-3.28622e-08
1.10293e-08
-3.48298e-08
1.13839e-08
-3.68645e-08
1.17304e-08
-3.89627e-08
1.20587e-08
-4.11194e-08
1.23594e-08
-4.33287e-08
1.26247e-08
-4.55835e-08
1.28477e-08
-4.78762e-08
1.30224e-08
-5.01982e-08
1.31439e-08
-5.25408e-08
1.32081e-08
-5.48945e-08
1.32117e-08
-5.72497e-08
1.31518e-08
-5.95965e-08
1.30264e-08
-6.19247e-08
1.28337e-08
-6.4224e-08
1.25726e-08
-6.64841e-08
1.22421e-08
-6.86944e-08
1.18416e-08
-7.08446e-08
1.13707e-08
-7.2924e-08
1.08292e-08
-7.4922e-08
1.0217e-08
-7.6828e-08
9.53399e-09
-7.86314e-08
8.78012e-09
-8.03215e-08
7.95537e-09
-8.18875e-08
7.05968e-09
-8.33186e-08
6.09303e-09
-8.46037e-08
5.05542e-09
-8.57317e-08
3.94678e-09
-8.66915e-08
2.76711e-09
-8.7472e-08
1.51686e-09
-8.8062e-08
1.96778e-10
-8.84504e-08
-1.19207e-09
-8.86261e-08
-2.64844e-09
-8.85784e-08
-4.17012e-09
-8.82968e-08
-5.75434e-09
-8.77712e-08
-7.39774e-09
-8.69921e-08
-9.09622e-09
-8.59507e-08
-1.08449e-08
-8.46392e-08
-1.26381e-08
-8.30504e-08
-1.44695e-08
-8.11784e-08
-1.63321e-08
-7.90182e-08
-1.82182e-08
-7.65662e-08
-2.01202e-08
-7.38202e-08
-2.20299e-08
-7.07796e-08
-2.39388e-08
-6.74448e-08
-2.5838e-08
-6.3818e-08
-2.77189e-08
-5.99028e-08
-2.95725e-08
-5.57041e-08
-3.13902e-08
-5.12287e-08
-3.31631e-08
-4.64846e-08
-3.48827e-08
-4.1482e-08
-3.65407e-08
-3.62326e-08
-3.81282e-08
-3.07506e-08
-3.96357e-08
-2.50521e-08
-4.10522e-08
-1.91558e-08
-4.23654e-08
-1.30832e-08
-4.3561e-08
-6.85869e-09
-4.46232e-08
-5.09666e-10
-4.5534e-08
5.93313e-09
-4.62716e-08
1.24346e-08
-4.68087e-08
1.8954e-08
-4.71094e-08
2.54431e-08
-4.71284e-08
3.18432e-08
-4.68112e-08
3.80888e-08
-4.61015e-08
4.41006e-08
-4.49373e-08
4.97957e-08
-4.32762e-08
5.50856e-08
-4.1082e-08
5.98781e-08
-3.83484e-08
6.41152e-08
-3.51007e-08
6.77237e-08
-3.13717e-08
7.06686e-08
-2.72269e-08
7.29403e-08
-2.2733e-08
7.45547e-08
-1.79839e-08
7.55825e-08
-1.30499e-08
7.61374e-08
-8.05589e-09
7.63531e-08
-2.99378e-09
7.62823e-08
2.32466e-09
7.57452e-08
8.37088e-09
7.41897e-08
1.59786e-08
7.09088e-08
2.5438e-08
3.5354e-08
6.57084e-08
-1.64404e-09
1.2071e-08
-3.42702e-09
1.31755e-08
-5.21117e-09
1.32001e-08
-6.95726e-09
1.29337e-08
-8.65219e-09
1.25875e-08
-1.02953e-08
1.22146e-08
-1.18865e-08
1.18419e-08
-1.34344e-08
1.14975e-08
-1.49454e-08
1.12011e-08
-1.64322e-08
1.09709e-08
-1.79089e-08
1.0824e-08
-1.93886e-08
1.07617e-08
-2.08873e-08
1.0795e-08
-2.24151e-08
1.09121e-08
-2.39875e-08
1.11159e-08
-2.56134e-08
1.13879e-08
-2.73007e-08
1.17193e-08
-2.90553e-08
1.20959e-08
-3.0881e-08
1.25034e-08
-3.27791e-08
1.29274e-08
-3.4749e-08
1.33539e-08
-3.67887e-08
1.37701e-08
-3.88941e-08
1.41641e-08
-4.10601e-08
1.45254e-08
-4.32804e-08
1.4845e-08
-4.55478e-08
1.51151e-08
-4.78543e-08
1.53289e-08
-5.01913e-08
1.54809e-08
-5.25496e-08
1.55665e-08
-5.49198e-08
1.55819e-08
-5.72921e-08
1.55241e-08
-5.96565e-08
1.53907e-08
-6.20026e-08
1.51798e-08
-6.43201e-08
1.48901e-08
-6.65985e-08
1.45205e-08
-6.88274e-08
1.40704e-08
-7.09961e-08
1.35394e-08
-7.30942e-08
1.29272e-08
-7.51109e-08
1.22337e-08
-7.70357e-08
1.14588e-08
-7.88579e-08
1.06024e-08
-8.05669e-08
9.66433e-09
-8.21518e-08
8.64458e-09
-8.36017e-08
7.54296e-09
-8.49056e-08
6.35933e-09
-8.60524e-08
5.09355e-09
-8.70309e-08
3.74556e-09
-8.78297e-08
2.31568e-09
-8.84375e-08
8.04577e-10
-8.88429e-08
-7.86611e-10
-8.90349e-08
-2.45646e-09
-8.90023e-08
-4.20269e-09
-8.87345e-08
-6.02222e-09
-8.8221e-08
-7.91116e-09
-8.74523e-08
-9.86498e-09
-8.64192e-08
-1.1878e-08
-8.51135e-08
-1.39437e-08
-8.3528e-08
-1.6055e-08
-8.16566e-08
-1.82036e-08
-7.9494e-08
-2.03808e-08
-7.70366e-08
-2.25776e-08
-7.4282e-08
-2.47844e-08
-7.12296e-08
-2.69912e-08
-6.78797e-08
-2.91879e-08
-6.42347e-08
-3.1364e-08
-6.0298e-08
-3.35091e-08
-5.60751e-08
-3.56131e-08
-5.15728e-08
-3.76654e-08
-4.67997e-08
-3.96559e-08
-4.17662e-08
-4.15742e-08
-3.64845e-08
-4.34098e-08
-3.09692e-08
-4.5151e-08
-2.52368e-08
-4.67847e-08
-1.93062e-08
-4.8296e-08
-1.31988e-08
-4.96683e-08
-6.93872e-09
-5.08833e-08
-5.52388e-10
-5.19203e-08
5.93071e-09
-5.27547e-08
1.24773e-08
-5.33552e-08
1.90484e-08
-5.36805e-08
2.55976e-08
-5.36775e-08
3.20707e-08
-5.32843e-08
3.83985e-08
-5.24292e-08
4.45072e-08
-5.1046e-08
5.03046e-08
-4.90737e-08
5.57009e-08
-4.64782e-08
6.05968e-08
-4.32444e-08
6.49291e-08
-3.94329e-08
6.86146e-08
-3.50572e-08
7.16297e-08
-3.0242e-08
7.39507e-08
-2.5054e-08
7.55892e-08
-1.96225e-08
7.66489e-08
-1.41096e-08
7.72349e-08
-8.64193e-09
7.75394e-08
-3.29824e-09
7.77109e-08
2.15313e-09
7.75811e-08
8.50068e-09
7.64509e-08
1.71088e-08
7.32564e-08
2.86324e-08
4.08582e-08
6.77522e-08
-1.67716e-09
1.37482e-08
-3.48165e-09
1.498e-08
-5.28481e-09
1.50032e-08
-7.04225e-09
1.46912e-08
-8.74524e-09
1.42904e-08
-1.0388e-08
1.38574e-08
-1.19734e-08
1.34272e-08
-1.35086e-08
1.30327e-08
-1.50028e-08
1.26952e-08
-1.64698e-08
1.24378e-08
-1.79243e-08
1.22786e-08
-1.93824e-08
1.22197e-08
-2.08579e-08
1.22706e-08
-2.2366e-08
1.24201e-08
-2.39206e-08
1.26706e-08
-2.55317e-08
1.2999e-08
-2.72076e-08
1.33952e-08
-2.89545e-08
1.38428e-08
-3.0776e-08
1.43248e-08
-3.26733e-08
1.48247e-08
-3.46458e-08
1.53264e-08
-3.6691e-08
1.58152e-08
-3.88045e-08
1.62776e-08
-4.09809e-08
1.67018e-08
-4.32135e-08
1.70777e-08
-4.5495e-08
1.73965e-08
-4.78169e-08
1.76508e-08
-5.01704e-08
1.78344e-08
-5.25463e-08
1.79424e-08
-5.49348e-08
1.79704e-08
-5.7326e-08
1.79153e-08
-5.97097e-08
1.77744e-08
-6.20754e-08
1.75456e-08
-6.44129e-08
1.72275e-08
-6.67114e-08
1.68191e-08
-6.89605e-08
1.63195e-08
-7.11494e-08
1.57284e-08
-7.32677e-08
1.50455e-08
-7.53047e-08
1.42707e-08
-7.72498e-08
1.34039e-08
-7.90923e-08
1.24449e-08
-8.08215e-08
1.13936e-08
-8.24267e-08
1.02497e-08
-8.38969e-08
9.01316e-09
-8.52211e-08
7.68352e-09
-8.63881e-08
6.26055e-09
-8.73866e-08
4.7441e-09
-8.82053e-08
3.13436e-09
-8.88326e-08
1.43189e-09
-8.9257e-08
-3.62196e-10
-8.94672e-08
-2.24625e-09
-8.94519e-08
-4.21801e-09
-8.92001e-08
-6.274e-09
-8.87014e-08
-8.40988e-09
-8.79457e-08
-1.06207e-08
-8.69238e-08
-1.28999e-08
-8.56272e-08
-1.52403e-08
-8.40484e-08
-1.76337e-08
-8.21812e-08
-2.00708e-08
-8.00203e-08
-2.25417e-08
-7.75618e-08
-2.5036e-08
-7.48034e-08
-2.75428e-08
-7.17442e-08
-3.00504e-08
-6.83848e-08
-3.25473e-08
-6.47273e-08
-3.50214e-08
-6.07756e-08
-3.74609e-08
-5.65349e-08
-3.98537e-08
-5.20123e-08
-4.2188e-08
-4.72165e-08
-4.44516e-08
-4.21581e-08
-4.66327e-08
-3.68494e-08
-4.87186e-08
-3.13047e-08
-5.06957e-08
-2.55404e-08
-5.25489e-08
-1.95752e-08
-5.42613e-08
-1.34297e-08
-5.58138e-08
-7.12691e-09
-5.71861e-08
-6.9209e-10
-5.83551e-08
5.84698e-09
-5.92938e-08
1.24589e-08
-5.99672e-08
1.91071e-08
-6.03288e-08
2.57479e-08
-6.03183e-08
3.23267e-08
-5.98632e-08
3.87783e-08
-5.88808e-08
4.50218e-08
-5.72894e-08
5.09652e-08
-5.50171e-08
5.65107e-08
-5.20237e-08
6.15569e-08
-4.82906e-08
6.60096e-08
-4.38856e-08
6.98155e-08
-3.88631e-08
7.29122e-08
-3.33387e-08
7.52884e-08
-2.74302e-08
7.69587e-08
-2.12928e-08
7.79865e-08
-1.51373e-08
7.85633e-08
-9.21878e-09
7.89437e-08
-3.67859e-09
7.93801e-08
1.71666e-09
7.98008e-08
8.08003e-09
7.9272e-08
1.76376e-08
7.62376e-08
3.16669e-08
4.68503e-08
7.02455e-08
-1.71564e-09
1.54638e-08
-3.54444e-09
1.68088e-08
-5.36956e-09
1.68283e-08
-7.14292e-09
1.64645e-08
-8.85098e-09
1.59985e-08
-1.04941e-08
1.55005e-08
-1.2072e-08
1.50051e-08
-1.35926e-08
1.45534e-08
-1.50671e-08
1.41697e-08
-1.65104e-08
1.38811e-08
-1.79389e-08
1.37071e-08
-1.93709e-08
1.36517e-08
-2.08206e-08
1.37204e-08
-2.23055e-08
1.3905e-08
-2.38393e-08
1.42044e-08
-2.54334e-08
1.45931e-08
-2.70964e-08
1.50582e-08
-2.88346e-08
1.55809e-08
-3.06515e-08
1.61417e-08
-3.25483e-08
1.67215e-08
-3.4524e-08
1.73021e-08
-3.65755e-08
1.78668e-08
-3.86985e-08
1.84005e-08
-4.08869e-08
1.88902e-08
-4.31338e-08
1.93246e-08
-4.54313e-08
1.9694e-08
-4.77708e-08
1.99903e-08
-5.01432e-08
2.02069e-08
-5.2539e-08
2.03382e-08
-5.49482e-08
2.03797e-08
-5.73608e-08
2.03279e-08
-5.97664e-08
2.018e-08
-6.21544e-08
1.99337e-08
-6.45144e-08
1.95875e-08
-6.68356e-08
1.91403e-08
-6.91075e-08
1.85914e-08
-7.13193e-08
1.79402e-08
-7.34605e-08
1.71867e-08
-7.55204e-08
1.63306e-08
-7.74884e-08
1.53718e-08
-7.93539e-08
1.43103e-08
-8.11061e-08
1.31458e-08
-8.27343e-08
1.1878e-08
-8.42276e-08
1.05065e-08
-8.55749e-08
9.03084e-09
-8.6765e-08
7.45069e-09
-8.77867e-08
5.76572e-09
-8.86283e-08
3.97595e-09
-8.92782e-08
2.08183e-09
-8.97248e-08
8.43884e-11
-8.99564e-08
-2.01459e-09
-8.99617e-08
-4.21272e-09
-8.97294e-08
-6.50629e-09
-8.92487e-08
-8.89062e-09
-8.85095e-08
-1.13599e-08
-8.75021e-08
-1.39073e-08
-8.62179e-08
-1.65245e-08
-8.46492e-08
-1.92023e-08
-8.27895e-08
-2.19305e-08
-8.06335e-08
-2.46978e-08
-7.81771e-08
-2.74925e-08
-7.54178e-08
-3.0302e-08
-7.23549e-08
-3.31134e-08
-6.89887e-08
-3.59135e-08
-6.53215e-08
-3.86886e-08
-6.1357e-08
-4.14254e-08
-5.71008e-08
-4.411e-08
-5.25597e-08
-4.6729e-08
-4.77426e-08
-4.92687e-08
-4.26599e-08
-5.17154e-08
-3.73238e-08
-5.40547e-08
-3.17483e-08
-5.62712e-08
-2.59493e-08
-5.83479e-08
-1.99449e-08
-6.02657e-08
-1.37548e-08
-6.20039e-08
-7.40098e-09
-6.35399e-08
-9.07121e-10
-6.4849e-08
5.70064e-09
-6.59016e-08
1.23929e-08
-6.66594e-08
1.91354e-08
-6.70713e-08
2.58867e-08
-6.70696e-08
3.25946e-08
-6.65711e-08
3.91941e-08
-6.54803e-08
4.56023e-08
-6.36976e-08
5.17223e-08
-6.11371e-08
5.74402e-08
-5.77416e-08
6.26615e-08
-5.35119e-08
6.7272e-08
-4.84961e-08
7.12004e-08
-4.27914e-08
7.43921e-08
-3.65304e-08
7.68211e-08
-2.98592e-08
7.8497e-08
-2.29687e-08
7.94822e-08
-1.61225e-08
7.99707e-08
-9.70732e-09
8.03468e-08
-4.05462e-09
8.10864e-08
9.77014e-10
8.23134e-08
6.85307e-09
8.27251e-08
1.72259e-08
7.98795e-08
3.45124e-08
5.36134e-08
7.31163e-08
-1.76048e-09
1.72243e-08
-3.61891e-09
1.86672e-08
-5.46779e-09
1.86772e-08
-7.25699e-09
1.82537e-08
-8.97568e-09
1.77172e-08
-1.06167e-08
1.71415e-08
-1.21847e-08
1.65732e-08
-1.36883e-08
1.60569e-08
-1.5138e-08
1.56194e-08
-1.65549e-08
1.5298e-08
-1.79529e-08
1.51052e-08
-1.93541e-08
1.50529e-08
-2.07744e-08
1.51407e-08
-2.22344e-08
1.53649e-08
-2.37431e-08
1.57132e-08
-2.5318e-08
1.6168e-08
-2.69665e-08
1.67068e-08
-2.86951e-08
1.73095e-08
-3.05071e-08
1.79538e-08
-3.24036e-08
1.8618e-08
-3.43831e-08
1.92816e-08
-3.64423e-08
1.9926e-08
-3.85762e-08
2.05344e-08
-4.07783e-08
2.10924e-08
-4.30414e-08
2.15876e-08
-4.53571e-08
2.20096e-08
-4.77165e-08
2.23497e-08
-5.01102e-08
2.26006e-08
-5.25284e-08
2.27564e-08
-5.4961e-08
2.28123e-08
-5.73976e-08
2.27645e-08
-5.98277e-08
2.26101e-08
-6.22407e-08
2.23467e-08
-6.46259e-08
2.19727e-08
-6.69725e-08
2.1487e-08
-6.92699e-08
2.08887e-08
-7.15073e-08
2.01777e-08
-7.36741e-08
1.93535e-08
-7.57596e-08
1.84161e-08
-7.77533e-08
1.73655e-08
-7.96444e-08
1.62015e-08
-8.14224e-08
1.49238e-08
-8.30765e-08
1.3532e-08
-8.45958e-08
1.20257e-08
-8.59691e-08
1.04042e-08
-8.71854e-08
8.66696e-09
-8.82331e-08
6.81345e-09
-8.91007e-08
4.84353e-09
-8.97763e-08
2.75748e-09
-9.02482e-08
5.56256e-10
-9.05045e-08
-1.75832e-09
-9.05334e-08
-4.18376e-09
-9.03236e-08
-6.71609e-09
-8.9864e-08
-9.35026e-09
-8.91439e-08
-1.208e-08
-8.81538e-08
-1.48975e-08
-8.68845e-08
-1.77938e-08
-8.53281e-08
-2.07587e-08
-8.3478e-08
-2.37807e-08
-8.13285e-08
-2.68473e-08
-7.88755e-08
-2.99454e-08
-7.61166e-08
-3.30609e-08
-7.30506e-08
-3.61794e-08
-6.96781e-08
-3.9286e-08
-6.60011e-08
-4.23655e-08
-6.20236e-08
-4.54029e-08
-5.77509e-08
-4.83827e-08
-5.31901e-08
-5.12899e-08
-4.83498e-08
-5.41091e-08
-4.32402e-08
-5.68249e-08
-3.78735e-08
-5.94214e-08
-3.22632e-08
-6.18815e-08
-2.64248e-08
-6.41863e-08
-2.03755e-08
-6.6315e-08
-1.41344e-08
-6.8245e-08
-7.72202e-09
-6.99523e-08
-1.16073e-09
-7.14103e-08
5.52513e-09
-7.25874e-08
1.23083e-08
-7.34426e-08
1.91573e-08
-7.39202e-08
2.60333e-08
-7.39456e-08
3.28873e-08
-7.34251e-08
3.96551e-08
-7.22482e-08
4.62532e-08
-7.02957e-08
5.25773e-08
-6.74612e-08
5.85083e-08
-6.36727e-08
6.39181e-08
-5.89216e-08
6.87012e-08
-5.32792e-08
7.27717e-08
-4.68619e-08
7.60676e-08
-3.98264e-08
7.85484e-08
-3.234e-08
8.02009e-08
-2.46212e-08
8.10804e-08
-1.7002e-08
8.13868e-08
-1.00137e-08
8.16621e-08
-4.32988e-09
8.27609e-08
-1.21801e-10
8.51071e-08
4.50681e-09
8.69554e-08
1.53776e-08
8.44355e-08
3.70323e-08
6.1565e-08
7.64839e-08
-1.8125e-09
1.90368e-08
-3.70461e-09
2.05593e-08
-5.58191e-09
2.05545e-08
-7.39131e-09
2.00631e-08
-9.11751e-09
1.94434e-08
-1.07575e-08
1.87815e-08
-1.23135e-08
1.81291e-08
-1.37965e-08
1.754e-08
-1.52196e-08
1.70426e-08
-1.66023e-08
1.66807e-08
-1.79666e-08
1.64695e-08
-1.93324e-08
1.64186e-08
-2.07198e-08
1.65281e-08
-2.21476e-08
1.67927e-08
-2.36307e-08
1.71963e-08
-2.51843e-08
1.77216e-08
-2.68167e-08
1.83392e-08
-2.85347e-08
1.90274e-08
-3.03416e-08
1.97607e-08
-3.22381e-08
2.05145e-08
-3.42223e-08
2.12659e-08
-3.62904e-08
2.19941e-08
-3.84368e-08
2.26808e-08
-4.06546e-08
2.33102e-08
-4.29359e-08
2.3869e-08
-4.5272e-08
2.43458e-08
-4.76537e-08
2.47313e-08
-5.00711e-08
2.5018e-08
-5.25142e-08
2.51995e-08
-5.49727e-08
2.52708e-08
-5.7436e-08
2.52278e-08
-5.98933e-08
2.50674e-08
-6.2334e-08
2.47873e-08
-6.47471e-08
2.43858e-08
-6.71218e-08
2.38617e-08
-6.94474e-08
2.32143e-08
-7.17131e-08
2.24433e-08
-7.39082e-08
2.15486e-08
-7.6022e-08
2.053e-08
-7.8044e-08
1.93875e-08
-7.99636e-08
1.8121e-08
-8.177e-08
1.67303e-08
-8.34527e-08
1.52147e-08
-8.50007e-08
1.35737e-08
-8.6403e-08
1.18065e-08
-8.76483e-08
9.91224e-09
-8.87251e-08
7.89022e-09
-8.96216e-08
5.74006e-09
-9.0326e-08
3.46185e-09
-9.08261e-08
1.05639e-09
-9.111e-08
-1.47446e-09
-9.11655e-08
-4.1282e-09
-9.0981e-08
-6.90058e-09
-9.05451e-08
-9.78621e-09
-8.98468e-08
-1.27782e-08
-8.88762e-08
-1.58682e-08
-8.76238e-08
-1.90462e-08
-8.60815e-08
-2.2301e-08
-8.42423e-08
-2.56199e-08
-8.21005e-08
-2.89892e-08
-7.96517e-08
-3.23941e-08
-7.68934e-08
-3.58193e-08
-7.38242e-08
-3.92486e-08
-7.04447e-08
-4.26655e-08
-6.67571e-08