/*--------------------------------*- C++ -*----------------------------------*\
| =========                 |                                                 |
| \\      /  F ield         | OpenFOAM: The Open Source CFD Toolbox           |
|  \\    /   O peration     | Version:  2.4.0                                 |
|   \\  /    A nd           | Web:      www.OpenFOAM.org                      |
|    \\/     M anipulation  |                                                 |
\*---------------------------------------------------------------------------*/
FoamFile
{
    version     2.0;
    format      ascii;
    class       volScalarField;
    location    "0.17";
    object      alpha.water;
}
// * * * * * * * * * * * * * * * * * * * * * * * * * * * * * * * * * * * * * //

dimensions      [0 0 0 0 0 0 0];

internalField   nonuniform List<scalar> 
60000
(
1
1
1
1
1
1
1
1
1
1
1
1
1
1
1
1
1
1
1
1
1
1
1
1
1
1
1
1
1
1
1
1
1
1
1
1
1
1
1
1
1
1
1
1
1
1
1
1
1
1
1
1
1
1
1
1
1
1
1
1
1
1
1
1
1
1
1
1
1
1
1
1
1
1
1
1
1
1
1
1
1
1
1
1
1
1
1
1
1
1
1
1
1
1
1
1
1
1
1
1
1
1
1
1
1
1
1
1
1
1
1
1
1
1
1
1
1
1
1
1
1
1
1
1
1
1
1
1
1
1
1
1
1
1
1
1
1
1
1
1
1
1
1
1
1
1
1
1
1
1
1
1
1
1
1
1
1
1
1
1
1
1
1
1
1
1
1
1
1
1
1
1
1
1
1
1
1
1
1
1
1
1
1
1
1
1
1
1
1
1
1
1
1
1
1
1
1
1
1
1
1
1
1
1
1
1
1
1
1
1
1
1
1
1
1
1
1
1
1
1
1
1
1
1
1
1
1
1
1
1
1
1
1
1
1
1
1
1
1
1
1
1
1
1
1
1
1
1
1
1
1
1
1
1
1
1
1
1
1
1
1
1
1
1
1
1
1
1
1
1
1
1
1
1
1
1
1
1
1
1
1
1
1
1
1
1
1
1
1
1
1
1
1
1
1
1
1
1
1
1
1
1
1
1
1
1
1
1
1
1
1
1
1
1
1
1
1
1
1
1
1
1
1
1
1
1
1
1
1
1
1
1
1
1
1
1
1
1
1
1
1
1
1
1
1
1
1
1
1
1
1
1
1
1
1
1
1
1
1
1
1
1
1
1
1
1
1
1
1
1
1
1
1
1
1
1
1
1
1
1
1
1
1
1
1
1
1
1
1
1
1
1
1
1
1
1
1
1
1
1
1
1
1
1
1
1
1
1
1
1
1
1
1
1
1
1
1
1
1
1
1
1
1
1
1
1
1
1
1
1
1
1
1
1
1
1
1
1
1
1
1
1
1
1
1
1
1
1
1
1
1
1
1
1
1
1
1
1
1
1
1
1
1
1
1
1
1
1
1
1
1
1
1
1
1
1
1
1
1
1
1
1
1
1
1
1
1
1
1
1
1
1
1
1
1
1
1
1
1
1
1
1
1
1
1
1
1
1
1
1
1
1
1
1
1
1
1
1
1
1
1
1
1
1
1
1
1
1
1
1
1
1
1
1
1
1
1
1
1
1
1
1
1
1
1
1
1
1
1
1
1
1
1
1
1
1
1
1
1
1
1
1
1
1
1
1
1
1
1
1
1
1
1
1
1
1
1
1
1
1
1
1
1
1
1
1
1
1
1
1
1
1
1
1
1
1
1
1
1
1
1
1
1
1
1
1
1
1
1
1
1
1
1
1
1
1
1
1
1
1
1
1
1
1
1
1
1
1
1
1
1
1
1
1
1
1
1
1
1
1
1
1
1
1
1
1
1
1
1
1
1
1
1
1
1
1
1
1
1
1
1
1
1
1
1
1
1
1
1
1
1
1
1
1
1
1
1
1
1
1
1
1
1
1
1
1
1
1
1
1
1
1
1
1
1
1
1
1
1
1
1
1
1
1
1
1
1
1
1
1
1
1
1
1
1
1
1
1
1
1
1
1
1
1
1
1
1
1
1
1
1
1
1
1
1
1
1
1
1
1
1
1
1
1
1
1
1
1
1
1
1
1
1
1
1
1
1
1
1
1
1
1
1
1
1
1
1
1
1
1
1
1
1
1
1
1
1
1
1
1
1
1
1
1
1
1
1
1
1
1
1
1
1
1
1
1
1
1
1
1
1
1
1
1
1
1
1
1
1
1
1
1
1
1
1
1
1
1
1
1
1
1
1
1
1
1
1
1
1
1
1
1
1
1
1
1
1
1
1
1
1
1
1
1
1
1
1
1
1
1
1
1
1
1
1
1
1
1
1
1
1
1
1
1
1
1
1
1
1
1
1
1
1
1
1
1
1
1
1
1
1
1
1
1
1
1
1
1
1
1
1
1
1
1
1
1
1
1
1
1
1
1
1
1
1
1
1
1
1
1
1
1
1
1
1
1
1
1
1
1
1
1
1
1
1
1
1
1
1
1
1
1
1
1
1
1
1
1
1
1
1
1
1
1
1
1
1
1
1
1
1
1
1
1
1
1
1
1
1
1
1
1
1
1
1
1
1
1
1
1
1
1
1
1
1
1
1
1
1
1
1
1
1
1
1
1
1
1
1
1
1
1
1
1
1
1
1
1
1
1
1
1
1
1
1
1
1
1
1
1
1
1
1
1
1
1
1
1
1
1
1
1
1
1
1
1
1
1
1
1
1
1
1
1
1
1
1
1
1
1
1
1
1
1
1
1
1
1
1
1
1
1
1
1
1
1
1
1
1
1
1
1
1
1
1
1
1
1
1
1
1
1
1
1
1
1
1
1
1
1
1
1
1
1
1
1
1
1
1
1
1
1
1
1
1
1
1
1
1
1
1
1
1
1
1
1
1
1
1
1
1
1
1
1
1
1
1
1
1
1
1
1
1
1
1
1
1
1
1
1
1
1
1
1
1
1
1
1
1
1
1
1
1
1
1
1
1
1
1
1
1
1
1
1
1
1
1
1
1
1
1
1
1
1
1
1
1
1
1
1
1
1
1
1
1
1
1
1
1
1
1
1
1
1
1
1
1
1
1
1
1
1
1
1
1
1
1
1
1
1
1
1
1
1
1
1
1
1
1
1
1
1
1
1
1
1
1
1
1
1
1
1
1
1
1
1
1
1
1
1
1
1
1
1
1
1
1
1
1
1
1
1
1
1
1
1
1
1
1
1
1
1
1
1
1
1
1
1
1
1
1
1
1
1
1
1
1
1
1
1
1
1
1
1
1
1
1
1
1
1
1
1
1
1
1
1
1
1
1
1
1
1
1
1
1
1
1
1
1
1
1
1
1
1
1
1
1
1
1
1
1
1
1
1
1
1
1
1
1
1
1
1
1
1
1
1
1
1
1
1
1
1
1
1
1
1
1
1
1
1
1
1
1
1
1
1
1
1
1
1
1
1
1
1
1
1
1
1
1
1
1
1
1
1
1
1
1
1
1
1
1
1
1
1
1
1
1
1
1
1
1
1
1
1
1
1
1
1
1
1
1
1
1
1
1
1
1
1
1
1
1
1
1
1
1
1
1
1
1
1
1
1
1
1
1
1
1
1
1
1
1
1
1
1
1
1
1
1
1
1
1
1
1
1
1
1
1
1
1
1
1
1
1
1
1
1
1
1
1
1
1
1
1
1
1
1
1
1
1
1
1
1
1
1
1
1
1
1
1
1
1
1
1
1
1
1
1
1
1
1
1
1
1
1
1
1
1
1
1
1
1
1
1
1
1
1
1
1
1
1
1
1
1
1
1
1
1
1
1
1
1
1
1
1
1
1
1
1
1
1
1
1
1
1
1
1
1
1
1
1
1
1
1
1
1
1
1
1
1
1
1
1
1
1
1
1
1
1
1
1
1
1
1
1
1
1
1
1
1
1
1
1
1
1
1
1
1
1
1
1
1
1
1
1
1
1
1
1
1
1
1
1
1
1
1
1
1
1
1
1
1
1
1
1
1
1
1
1
1
1
1
1
1
1
1
1
1
1
1
1
1
1
1
1
1
1
1
1
1
1
1
1
1
1
1
1
1
1
1
1
1
1
1
1
1
1
1
1
1
1
1
1
1
1
1
1
1
1
1
1
1
1
1
1
1
1
1
1
1
1
1
1
1
1
1
1
1
1
1
1
1
1
1
1
1
1
1
1
1
1
1
1
1
1
1
1
1
1
1
1
1
1
1
1
1
1
1
1
1
1
1
1
1
1
1
1
1
1
1
1
1
1
1
1
1
1
1
1
1
1
1
1
1
1
1
1
1
1
1
1
1
1
1
1
1
1
1
1
1
1
1
1
1
1
1
1
1
1
1
1
1
1
1
1
1
1
1
1
1
1
1
1
1
1
1
1
1
1
1
1
1
1
1
1
1
1
1
1
1
1
1
1
1
1
1
1
1
1
1
1
1
1
1
1
1
1
1
1
1
1
1
1
1
1
1
1
1
1
1
1
1
1
1
1
1
1
1
1
1
1
1
1
1
1
1
1
1
1
1
1
1
1
1
1
1
1
1
1
1
1
1
1
1
1
1
1
1
1
1
1
1
1
1
1
1
1
1
1
1
1
1
1
1
1
1
1
1
1
1
1
1
1
1
1
1
1
1
1
1
1
1
1
1
1
1
1
1
1
1
1
1
1
1
1
1
1
1
1
1
1
1
1
1
1
1
1
1
1
1
1
1
1
1
1
1
1
1
1
1
1
1
1
1
1
1
1
1
1
1
1
1
1
1
1
1
1
1
1
1
1
1
1
1
1
1
1
1
1
1
1
1
1
1
1
1
1
1
1
1
1
1
1
1
1
1
1
1
1
1
1
1
1
1
1
1
1
1
1
1
1
1
1
1
1
1
1
1
1
1
1
1
1
1
1
1
1
1
1
1
1
1
1
1
1
1
1
1
1
1
1
1
1
1
1
1
1
1
1
1
1
1
1
1
1
1
1
1
1
1
1
1
1
1
1
1
1
1
1
1
1
1
1
1
1
1
1
1
1
1
1
1
1
1
1
1
1
1
1
1
1
1
1
1
1
1
1
1
1
1
1
1
1
1
1
1
1
1
1
1
1
1
1
1
1
1
1
1
1
1
1
1
1
1
1
1
1
1
1
1
1
1
1
1
1
1
1
1
1
1
1
1
1
1
1
1
1
1
1
1
1
1
1
1
1
1
1
1
1
1
1
1
1
1
1
1
1
1
1
1
1
1
1
1
1
1
1
1
1
1
1
1
1
1
1
1
1
1
1
1
1
1
1
1
1
1
1
1
1
1
1
1
1
1
1
1
1
1
1
1
1
1
1
1
1
1
1
1
1
1
1
1
1
1
1
1
1
1
1
1
1
1
1
1
1
1
1
1
1
1
1
1
1
1
1
1
1
1
1
1
1
1
1
1
1
1
1
1
1
1
1
1
1
1
1
1
1
1
1
1
1
1
1
1
1
1
1
1
1
1
1
1
1
1
1
1
1
1
1
1
1
1
1
1
1
1
1
1
1
1
1
1
1
1
1
1
1
1
1
1
1
1
1
1
1
1
1
1
1
1
1
1
1
1
1
1
1
1
1
1
1
1
1
1
1
1
1
1
1
1
1
1
1
1
1
1
1
1
1
1
1
1
1
1
1
1
1
1
1
1
1
1
1
1
1
1
1
1
1
1
1
1
1
1
1
1
1
1
1
1
1
1
1
1
1
1
1
1
1
1
1
1
1
1
1
1
1
1
1
1
1
1
1
1
1
1
1
1
1
1
1
1
1
1
1
1
1
1
1
1
1
1
1
1
1
1
1
1
1
1
1
1
1
1
1
1
1
1
1
1
1
1
1
1
1
1
1
1
1
1
1
1
1
1
1
1
1
1
1
1
1
1
1
1
1
1
1
1
1
1
1
1
1
1
1
1
1
1
1
1
1
1
1
1
1
1
1
1
1
1
1
1
1
1
1
1
1
1
1
1
1
1
1
1
1
1
1
1
1
1
1
1
1
1
1
1
1
1
1
1
1
1
1
1
1
1
1
1
1
1
1
1
1
1
1
1
1
1
1
1
1
1
1
1
1
1
1
1
1
1
1
1
1
1
1
1
1
1
1
1
1
1
1
1
1
1
1
1
1
1
1
1
1
1
1
1
1
1
1
1
1
1
1
1
1
1
1
1
1
1
1
1
1
1
1
1
1
1
1
1
1
1
1
1
1
1
1
1
1
1
1
1
1
1
1
1
1
1
1
1
1
1
1
1
1
1
1
1
1
1
1
1
1
1
1
1
1
1
1
1
1
1
1
1
1
1
1
1
1
1
1
1
1
1
1
1
1
1
1
1
1
1
1
1
1
1
1
1
1
1
1
1
1
1
1
1
1
1
1
1
1
1
1
1
1
1
1
1
1
1
1
1
1
1
1
1
1
1
1
1
1
1
1
1
1
1
1
1
1
1
1
1
1
1
1
1
1
1
1
1
1
1
1
1
1
1
1
1
1
1
1
1
1
1
1
1
1
1
1
1
1
1
1
1
1
1
1
1
1
1
1
1
1
1
1
1
1
1
1
1
1
1
1
1
1
1
1
1
1
1
1
1
1
1
1
1
1
1
1
1
1
1
1
1
1
1
1
1
1
1
1
1
1
1
1
1
1
1
1
1
1
1
1
1
1
1
1
1
1
1
1
1
1
1
1
1
1
1
1
1
1
1
1
1
1
1
1
1
1
1
1
1
1
1
1
1
1
1
1
1
1
1
1
1
1
1
1
1
1
1
1
1
1
1
1
1
1
1
1
1
1
1
1
1
1
1
1
1
1
1
1
1
1
1
1
1
1
1
1
1
1
1
1
1
1
1
1
1
1
1
1
1
1
1
1
1
1
1
1
1
1
1
1
1
1
1
1
1
1
1
1
1
1
1
1
1
1
1
1
1
1
1
1
1
1
1
1
1
1
1
1
1
1
1
1
1
1
1
1
1
1
1
1
1
1
1
1
1
1
1
1
1
1
1
1
1
1
1
1
1
1
1
1
1
1
1
1
1
1
1
1
1
1
1
1
1
1
1
1
1
1
1
1
1
1
1
1
1
1
1
1
1
1
1
1
1
1
1
1
1
1
1
1
1
1
1
1
1
1
1
1
1
1
1
1
1
1
1
1
1
1
1
1
1
1
1
1
1
1
1
1
1
1
1
1
1
1
1
1
1
1
1
1
1
1
1
1
1
1
1
1
1
1
1
1
1
1
1
1
1
1
1
1
1
1
1
1
1
1
1
1
1
1
1
1
1
1
1
1
1
1
1
1
1
1
1
1
1
1
1
1
1
1
1
1
1
1
1
1
1
1
1
1
1
1
1
1
1
1
1
1
1
1
1
1
1
1
1
1
1
1
1
1
1
1
1
1
1
1
1
1
1
1
1
1
1
1
1
1
1
1
1
1
1
1
1
1
1
1
1
1
1
1
1
1
1
1
1
1
1
1
1
1
1
1
1
1
1
1
1
1
1
1
1
1
1
1
1
1
1
1
1
1
1
1
1
1
1
1
1
1
1
1
1
1
1
1
1
1
1
1
1
1
1
1
1
1
1
1
1
1
1
1
1
1
1
1
1
1
1
1
1
1
1
1
1
1
1
1
1
1
1
1
1
1
1
1
1
1
1
1
1
1
1
1
1
1
1
1
1
1
1
1
1
1
1
1
1
1
1
1
1
1
1
1
1
1
1
1
1
1
1
1
1
1
1
1
1
1
1
1
1
1
1
1
1
1
1
1
1
1
1
1
1
1
1
1
1
1
1
1
1
1
1
1
1
1
1
1
1
1
1
1
1
1
1
1
1
1
1
1
1
1
1
1
1
1
1
1
1
1
1
1
1
1
1
1
1
1
1
1
1
1
1
1
1
1
1
1
1
1
1
1
1
1
1
1
1
1
1
1
1
1
1
1
1
1
1
1
1
1
1
1
1
1
1
1
1
1
1
1
1
1
1
1
1
1
1
1
1
1
1
1
1
1
1
1
1
1
1
1
1
1
1
1
1
1
1
1
1
1
1
1
1
1
1
1
1
1
1
1
1
1
1
1
1
1
1
1
1
1
1
1
1
1
1
1
1
1
1
1
1
1
1
1
1
1
1
1
1
1
1
1
1
1
1
1
1
1
1
1
1
1
1
1
1
1
1
1
1
1
1
1
1
1
1
1
1
1
1
1
1
1
1
1
1
1
1
1
1
1
1
1
1
1
1
1
1
1
1
1
1
1
1
1
1
1
1
1
1
1
1
1
1
1
1
1
1
1
1
1
1
1
1
1
1
1
1
1
1
1
1
1
1
1
1
1
1
1
1
1
1
1
1
1
1
1
1
1
1
1
1
1
1
1
1
1
1
1
1
1
1
1
1
1
1
1
1
1
1
1
1
1
1
1
1
1
1
1
1
1
1
1
1
1
1
1
1
1
1
1
1
1
1
1
1
1
1
1
1
1
1
1
1
1
1
1
1
1
1
1
1
1
1
1
1
1
1
1
1
1
1
1
1
1
1
1
1
1
1
1
1
1
1
1
1
1
1
1
1
1
1
1
1
1
1
1
1
1
1
1
1
1
1
1
1
1
1
1
1
1
1
1
1
1
1
1
1
1
1
1
1
1
1
1
1
1
1
1
1
1
1
1
1
1
1
1
1
1
1
1
1
1
1
1
1
1
1
1
1
1
1
1
1
1
1
1
1
1
1
1
1
1
1
1
1
1
1
1
1
1
1
1
1
1
1
1
1
1
1
1
1
1
1
1
1
1
1
1
1
1
1
1
1
1
1
1
1
1
1
1
1
1
1
1
1
1
1
1
1
1
1
1
1
1
1
1
1
1
1
1
1
1
1
1
1
1
1
1
1
1
1
1
1
1
1
1
1
1
1
1
1
1
1
1
1
1
1
1
1
1
1
1
1
1
1
1
1
1
1
1
1
1
1
1
1
1
1
1
1
1
1
1
1
1
1
1
1
1
1
1
1
1
1
1
1
1
1
1
1
1
1
1
1
1
1
1
1
1
1
1
1
1
1
1
1
1
1
1
1
1
1
1
1
1
1
1
1
1
1
1
1
1
1
1
1
1
1
1
1
1
1
1
1
1
1
1
1
1
1
1
1
1
1
1
1
1
1
1
1
1
1
1
1
1
1
1
1
1
1
1
1
1
1
1
1
1
1
1
1
1
1
1
1
1
1
1
1
1
1
1
1
1
1
1
1
1
1
1
1
1
1
1
1
1
1
1
1
1
1
1
1
1
1
1
1
1
1
1
1
1
1
1
1
1
1
1
1
1
1
1
1
1
1
1
1
1
1
1
1
1
1
1
1
1
1
1
1
1
1
1
1
1
1
1
1
1
1
1
1
1
1
1
1
1
1
1
1
1
1
1
1
1
1
1
1
1
1
1
1
1
1
1
1
1
1
1
1
1
1
1
1
1
1
1
1
1
1
1
1
1
1
1
1
1
1
1
1
1
1
1
1
1
1
1
1
1
1
1
1
1
1
1
1
1
1
1
1
1
1
1
1
1
1
1
1
1
1
1
1
1
1
1
1
1
1
1
1
1
1
1
1
1
1
1
1
1
1
1
1
1
1
1
1
1
1
1
1
1
1
1
1
1
1
1
1
1
1
1
1
1
1
1
1
1
1
1
1
1
1
1
1
1
1
1
1
1
1
1
1
1
1
1
1
1
1
1
1
1
1
1
1
1
1
1
1
1
1
1
1
1
1
1
1
1
1
1
1
1
1
1
1
1
1
1
1
1
1
1
1
1
1
1
1
1
1
1
1
1
1
1
1
1
1
1
1
1
1
1
1
1
1
1
1
1
1
1
1
1
1
1
1
1
1
1
1
1
1
1
1
1
1
1
1
1
1
1
1
1
1
1
1
1
1
1
1
1
1
1
1
1
1
1
1
1
1
1
1
1
1
1
1
1
1
1
1
1
1
1
1
1
1
1
1
1
1
1
1
1
1
1
1
1
1
1
1
1
1
1
1
1
1
1
1
1
1
1
1
1
1
1
1
1
1
1
1
1
1
1
1
1
1
1
1
1
1
1
1
1
1
1
1
1
1
1
1
1
1
1
1
1
1
1
1
1
1
1
1
1
1
1
1
1
1
1
1
1
1
1
1
1
1
1
1
1
1
1
1
1
1
1
1
1
1
1
1
1
1
1
1
1
1
1
1
1
1
1
1
1
1
1
1
1
1
1
1
1
1
1
1
1
1
1
1
1
1
1
1
1
1
1
1
1
1
1
1
1
1
1
1
1
1
1
1
1
1
1
1
1
1
1
1
1
1
1
1
1
1
1
1
1
1
1
1
1
1
1
1
1
1
1
1
1
1
1
1
1
1
1
1
1
1
1
1
1
1
1
1
1
1
1
1
1
1
1
1
1
1
1
1
1
1
1
1
1
1
1
1
1
1
1
1
1
1
1
1
1
1
1
1
1
1
1
1
1
1
1
1
1
1
1
1
1
1
1
1
1
1
1
1
1
1
1
1
1
1
1
1
1
1
1
1
1
1
1
1
1
1
1
1
1
1
1
1
1
1
1
1
1
1
1
1
1
1
1
1
1
1
1
1
1
1
1
1
1
1
1
1
1
1
1
1
1
1
1
1
1
1
1
1
1
1
1
1
1
1
1
1
1
1
1
1
1
1
1
1
1
1
1
1
1
1
1
1
1
1
1
1
1
1
1
1
1
1
1
1
1
1
1
1
1
1
1
1
1
1
1
1
1
1
1
1
1
1
1
1
1
1
1
1
1
1
1
1
1
1
1
1
1
1
1
1
1
1
1
1
1
1
1
1
1
1
1
1
1
1
1
1
1
1
1
1
1
1
1
1
1
1
1
1
1
1
1
1
1
1
1
1
1
1
1
1
1
1
1
1
1
1
1
1
1
1
1
1
1
1
1
1
1
1
1
1
1
1
1
1
1
1
1
1
1
1
1
1
1
1
1
1
1
1
1
1
1
1
1
1
1
1
1
1
1
1
1
1
1
1
1
1
1
1
1
1
1
1
1
1
1
1
1
1
1
1
1
1
1
1
1
1
1
1
1
1
1
1
1
1
1
1
1
1
1
1
1
1
1
1
1
1
1
1
1
1
1
1
1
1
1
1
1
1
1
1
1
1
1
1
1
1
1
1
1
1
1
1
1
1
1
1
1
1
1
1
1
1
1
1
1
1
1
1
1
1
1
1
1
1
1
1
1
1
1
1
1
1
1
1
1
1
1
1
1
1
1
1
1
1
1
1
1
1
1
1
1
1
1
1
1
1
1
1
1
1
1
1
1
1
1
1
1
1
1
1
1
1
1
1
1
1
1
1
1
1
1
1
1
1
1
1
1
1
1
1
1
1
1
1
1
1
1
1
1
1
1
1
1
1
1
1
1
1
1
1
1
1
1
1
1
1
1
1
1
1
1
1
1
1
1
1
1
1
1
1
1
1
1
1
1
1
1
1
1
1
1
1
1
1
1
1
1
1
1
1
1
1
1
0.99991
0.999662
0.999425
0.99925
0.999167
0.999175
0.999155
0.999122
0.999099
0.99903
0.998973
0.998877
0.998664
0.998447
0.998268
0.998132
0.998019
0.997913
0.997825
0.997758
0.99769
0.997597
0.997449
0.997279
0.997121
0.996987
0.996884
0.996811
0.996759
0.9967
0.996635
0.996588
0.996512
0.996439
0.99638
0.996328
0.99625
0.996178
0.996117
0.996061
0.995994
0.995918
0.995847
0.995794
0.995764
0.995761
0.995777
0.995798
0.995815
0.995831
0.99585
0.995875
0.995896
0.99591
0.995921
0.995928
0.995932
0.995932
0.99593
0.995925
0.995917
0.995908
0.995899
0.995891
0.995887
0.995884
0.995882
0.995878
0.995873
0.995871
0.99584
0.995793
0.995735
0.995675
0.995616
0.995567
0.995526
0.995494
0.995483
0.99547
0.995494
0.995498
0.995576
0.995543
0.995405
0.995101
0.0101188
0.0100931
0.010031
0.00993721
0.00979579
0.00960994
0.00936629
0.00906813
0.00870948
0.00829689
0.00782954
0.00732427
0.00678641
0.00624194
0.00579338
0.00553471
0.00531566
0.0051069
0.00488286
0.00465285
0.00453159
0.00450196
0.00452514
0.00464076
0.00477293
0.00496052
0.0052607
0.00555596
0.00578402
0.005939
0.00603583
0.00608428
0.00607673
0.00601053
0.00590387
0.00579048
0.00569891
0.00560964
0.0055017
0.00537476
0.0052356
0.00509796
0.00497804
0.00491157
0.00489725
0.00491013
0.00498962
0.00509884
0.00521713
0.00534432
0.00550676
0.00567263
0.00583527
0.00600029
0.00618754
0.00639943
0.00662275
0.00684715
0.00706918
0.00728618
0.00750256
0.00772869
0.00796682
0.00820673
0.00843482
0.00864251
0.008831
0.00900145
0.0091475
0.00927086
0.00937541
0.00946304
0.00953953
0.00960629
0.00966554
0.00971608
0.00975693
0.00978041
0.00978467
0.00976441
0.00972282
0.0096596
0.00957771
0.00947216
0.00938163
0.00929072
0.00919898
0.00909418
0.00897719
0.00883256
0.00866539
0.00846641
0.00822885
0.00796716
0.00764694
0.00731944
0.00689402
0.00654473
0.00626712
0.00611068
4.85898e-09
6.04009e-09
8.63396e-09
7.81481e-09
6.84474e-09
6.05484e-09
5.32396e-09
4.59651e-09
4.05588e-09
3.72291e-09
3.47408e-09
3.1463e-09
2.69838e-09
2.14165e-09
1.54312e-09
1.17893e-09
1.08299e-09
1.06688e-09
1.14299e-09
1.12717e-09
9.12951e-10
8.38566e-10
9.71273e-10
1.09076e-09
1.34198e-09
1.74903e-09
1.81264e-09
1.8813e-09
2.04752e-09
2.27874e-09
2.56843e-09
2.75137e-09
2.73105e-09
2.55232e-09
2.26989e-09
2.1095e-09
2.21948e-09
2.24445e-09
2.13822e-09
2.07983e-09
2.06362e-09
2.09831e-09
2.13862e-09
2.12612e-09
2.17001e-09
2.26094e-09
2.3094e-09
2.07761e-09
1.86652e-09
1.88131e-09
9.83924e-10
2.8189e-10
1.88089e-10
1.87496e-10
1.82372e-10
1.77708e-10
1.79554e-10
1.81403e-10
1.22464e-10
1.26783e-10
1.31778e-10
1.36803e-10
1.4165e-10
1.46696e-10
1.52366e-10
1.58292e-10
1.64031e-10
1.69607e-10
1.75563e-10
1.81809e-10
1.88588e-10
1.97084e-10
2.07859e-10
2.20926e-10
2.36203e-10
2.53998e-10
2.74607e-10
2.98655e-10
3.26321e-10
3.57911e-10
3.93265e-10
4.32575e-10
4.7701e-10
5.30693e-10
5.88309e-10
6.55562e-10
7.33156e-10
8.20442e-10
9.07205e-10
9.83411e-10
1.04515e-09
1.15557e-09
1.28184e-09
1.41654e-09
1.56998e-09
1.71593e-09
1.85535e-09
1.8757e-09
1.95883e-09
2.32527e-09
4.83772e-09
7.15082e-09
1.00277e-08
8.28439e-09
7.25855e-09
6.34427e-09
5.67909e-09
4.8818e-09
4.22402e-09
3.80118e-09
3.55885e-09
3.30346e-09
2.90191e-09
2.4076e-09
1.78945e-09
1.21005e-09
1.06154e-09
1.04522e-09
1.1549e-09
1.24494e-09
9.23575e-10
8.17342e-10
1.03989e-09
1.06856e-09
1.52744e-09
1.88544e-09
1.79107e-09
1.88474e-09
2.12246e-09
2.34825e-09
2.70277e-09
2.73004e-09
2.72355e-09
2.65234e-09
2.36618e-09
2.08831e-09
2.26426e-09
2.27032e-09
2.13252e-09
2.05855e-09
2.04028e-09
2.0749e-09
2.11507e-09
2.10251e-09
2.14575e-09
2.28163e-09
2.30544e-09
2.21086e-09
1.83754e-09
2.09058e-09
1.5607e-09
2.89658e-10
1.53096e-10
1.51663e-10
1.455e-10
1.39516e-10
1.40008e-10
1.44753e-10
8.29113e-11
8.55771e-11
8.86577e-11
9.1656e-11
9.44527e-11
9.71949e-11
9.97876e-11
1.01755e-10
1.02908e-10
1.03647e-10
1.04239e-10
1.04661e-10
1.0536e-10
1.0723e-10
1.10884e-10
1.16203e-10
1.22781e-10
1.30553e-10
1.39633e-10
1.50122e-10
1.62049e-10
1.75384e-10
1.90296e-10
2.07395e-10
2.27376e-10
2.50742e-10
2.77701e-10
3.09759e-10
3.46932e-10
3.86634e-10
4.19518e-10
4.31897e-10
4.21993e-10
4.51556e-10
4.86038e-10
5.16997e-10
5.68308e-10
6.12204e-10
5.98164e-10
4.6364e-10
3.40813e-10
4.19666e-10
6.08795e-11
2.01605e-10
3.62687e-10
3.39163e-10
2.95133e-10
2.58612e-10
2.34384e-10
2.00093e-10
1.74371e-10
1.65204e-10
1.67061e-10
1.64883e-10
1.45911e-10
1.17235e-10
9.32732e-11
7.87779e-11
7.45518e-11
7.49447e-11
7.92001e-11
7.39668e-11
5.38249e-11
4.37966e-11
4.52503e-11
4.86688e-11
6.3816e-11
7.3382e-11
6.97664e-11
7.3835e-11
8.26267e-11
9.14005e-11
1.0273e-10
1.04616e-10
1.05647e-10
1.03694e-10
9.43108e-11
8.73693e-11
9.66513e-11
9.94966e-11
9.78799e-11
9.85625e-11
1.00815e-10
1.03438e-10
1.04324e-10
1.03133e-10
1.03986e-10
1.0681e-10
1.07329e-10
1.06419e-10
1.01902e-10
1.09089e-10
9.65113e-11
7.08588e-11
6.33096e-11
5.73151e-11
4.70617e-11
3.75739e-11
3.4313e-11
3.51669e-11
3.73076e-11
4.04054e-11
4.39045e-11
4.7268e-11
5.03648e-11
5.33754e-11
5.62544e-11
5.85056e-11
5.99019e-11
6.08232e-11
6.15626e-11
6.20996e-11
6.28813e-11
6.48164e-11
6.85173e-11
7.38665e-11
8.04632e-11
8.8243e-11
9.73185e-11
1.07795e-10
1.197e-10
1.33014e-10
1.47933e-10
1.65009e-10
1.84923e-10
2.08299e-10
2.3518e-10
2.67139e-10
3.04209e-10
3.4388e-10
3.76695e-10
3.88907e-10
3.78692e-10
4.08433e-10
4.42464e-10
4.84887e-10
5.25849e-10
5.70396e-10
5.72221e-10
4.17514e-10
2.75795e-10
3.79017e-10
9.12262e-13
6.46557e-12
1.46473e-11
1.57939e-11
1.3956e-11
1.24085e-11
1.14518e-11
9.81504e-12
8.76894e-12
8.78204e-12
9.421e-12
9.63962e-12
8.63482e-12
7.02723e-12
5.90433e-12
5.32236e-12
5.11493e-12
5.15831e-12
5.32608e-12
4.81619e-12
3.60588e-12
2.93484e-12
2.81228e-12
2.95323e-12
3.48506e-12
3.73442e-12
3.54701e-12
3.70822e-12
4.0625e-12
4.42365e-12
4.81218e-12
4.93421e-12
5.06196e-12
5.10151e-12
4.90756e-12
4.8232e-12
5.24778e-12
5.45849e-12
5.56156e-12
5.75135e-12
5.97202e-12
6.13673e-12
6.15802e-12
6.07957e-12
6.0859e-12
6.16861e-12
6.23505e-12
6.36251e-12
6.49247e-12
6.82412e-12
6.62234e-12
6.13338e-12
5.88431e-12
5.50708e-12
4.77296e-12
4.09613e-12
3.91062e-12
4.09292e-12
4.4305e-12
4.88167e-12
5.3812e-12
5.87069e-12
6.33708e-12
6.79283e-12
7.2114e-12
7.52293e-12
7.70415e-12
7.79722e-12
7.8286e-12
7.81058e-12
7.83893e-12
8.0707e-12
8.60086e-12
9.40411e-12
1.04156e-11
1.16211e-11
1.30371e-11
1.46778e-11
1.65467e-11
1.86597e-11
2.10879e-11
2.39566e-11
2.73966e-11
3.15279e-11
3.64987e-11
4.25551e-11
4.98018e-11
5.80232e-11
6.62928e-11
7.34079e-11
7.99437e-11
8.85451e-11
9.83743e-11
1.09984e-10
1.23775e-10
1.3867e-10
1.50863e-10
1.54202e-10
1.60562e-10
1.9802e-10
1.68166e-14
2.39195e-13
6.72491e-13
8.28241e-13
7.51816e-13
6.84027e-13
6.45756e-13
5.5967e-13
5.15197e-13
5.40926e-13
6.03685e-13
6.30324e-13
5.69461e-13
4.69916e-13
4.07436e-13
3.7686e-13
3.65081e-13
3.6823e-13
3.73938e-13
3.34358e-13
2.5807e-13
2.14141e-13
2.00964e-13
2.05299e-13
2.25275e-13
2.30106e-13
2.182e-13
2.2444e-13
2.40127e-13
2.56298e-13
2.71745e-13
2.79977e-13
2.91149e-13
3.01059e-13
3.0348e-13
3.09752e-13
3.32566e-13
3.4883e-13
3.63581e-13
3.81842e-13
3.99479e-13
4.10805e-13
4.12098e-13
4.07945e-13
4.08074e-13
4.12675e-13
4.19955e-13
4.34041e-13
4.51542e-13
4.7346e-13
4.81413e-13
4.83145e-13
4.84575e-13
4.7053e-13
4.33124e-13
3.9994e-13
3.99784e-13
4.27928e-13
4.71764e-13
5.27587e-13
5.89308e-13
6.51817e-13
7.14092e-13
7.76544e-13
8.34953e-13
8.8136e-13
9.12944e-13
9.32793e-13
9.42642e-13
9.45556e-13
9.56409e-13
9.97321e-13
1.08142e-12
1.20614e-12
1.36424e-12
1.55507e-12
1.78193e-12
2.04772e-12
2.35431e-12
2.70783e-12
3.12491e-12
3.63112e-12
4.25386e-12
5.02217e-12
5.97578e-12
7.16716e-12
8.6388e-12
1.03996e-11
1.2384e-11
1.44818e-11
1.67058e-11
1.92e-11
2.20253e-11
2.53358e-11
2.92712e-11
3.37871e-11
3.86324e-11
4.36015e-11
4.99931e-11
6.00356e-11
3.73517e-16
9.94716e-15
3.42938e-14
4.76143e-14
4.47121e-14
4.18848e-14
4.05482e-14
3.56522e-14
3.37861e-14
3.6827e-14
4.22023e-14
4.4594e-14
4.05108e-14
3.37753e-14
2.98468e-14
2.80049e-14
2.72934e-14
2.75032e-14
2.75908e-14
2.45839e-14
1.94991e-14
1.65261e-14
1.54558e-14
1.55003e-14
1.62553e-14
1.61175e-14
1.5262e-14
1.54718e-14
1.62122e-14
1.69881e-14
1.76942e-14
1.82683e-14
1.91615e-14
2.01664e-14
2.09444e-14
2.18462e-14
2.33343e-14
2.46759e-14
2.60989e-14
2.76734e-14
2.90904e-14
2.99725e-14
3.01585e-14
3.00212e-14
3.01416e-14
3.0573e-14
3.12996e-14
3.25158e-14
3.40113e-14
3.57398e-14
3.72745e-14
3.88324e-14
4.01295e-14
4.0292e-14
3.90652e-14
3.82257e-14
3.96671e-14
4.33383e-14
4.85623e-14
5.50451e-14
6.22767e-14
6.98525e-14
7.77096e-14
8.58259e-14
9.3681e-14
1.00421e-13
1.05678e-13
1.09592e-13
1.12231e-13
1.14111e-13
1.17296e-13
1.24725e-13
1.38221e-13
1.57713e-13
1.82608e-13
2.13138e-13
2.50034e-13
2.93975e-13
3.45638e-13
4.06665e-13
4.8064e-13
5.7282e-13
6.89188e-13
8.36765e-13
1.02523e-12
1.26714e-12
1.57539e-12
1.9599e-12
2.42218e-12
2.95584e-12
3.56071e-12
4.25123e-12
5.04979e-12
5.99178e-12
7.11149e-12
8.4254e-12
9.94419e-12
1.17135e-11
1.39268e-11
1.67716e-11
9.83943e-18
4.54351e-16
1.90066e-15
2.94031e-15
2.86935e-15
2.77852e-15
2.75966e-15
2.46303e-15
2.39539e-15
2.68849e-15
3.13839e-15
3.34188e-15
3.04685e-15
2.55887e-15
2.29012e-15
2.17061e-15
2.12615e-15
2.13989e-15
2.12775e-15
1.89675e-15
1.54066e-15
1.33104e-15
1.24765e-15
1.23765e-15
1.26234e-15
1.22933e-15
1.16308e-15
1.16596e-15
1.20208e-15
1.2411e-15
1.27703e-15
1.31798e-15
1.38759e-15
1.47446e-15
1.55738e-15
1.64502e-15
1.75699e-15
1.87185e-15
1.99947e-15
2.13427e-15
2.25264e-15
2.32857e-15
2.35528e-15
2.3618e-15
2.38606e-15
2.43345e-15
2.50493e-15
2.60915e-15
2.73425e-15
2.88186e-15
3.04925e-15
3.24172e-15
3.42201e-15
3.53437e-15
3.57248e-15
3.65309e-15
3.90533e-15
4.3452e-15
4.94071e-15
5.67114e-15
6.49726e-15
7.39038e-15
8.34955e-15
9.36989e-15
1.03946e-14
1.13347e-14
1.21436e-14
1.28164e-14
1.33503e-14
1.38211e-14
1.45027e-14
1.57803e-14
1.79135e-14
2.09434e-14
2.48561e-14
2.97437e-14
3.57658e-14
4.30821e-14
5.18818e-14
6.2553e-14
7.58475e-14
9.2856e-14
1.14901e-13
1.43647e-13
1.81423e-13
2.31309e-13
2.96863e-13
3.81613e-13
4.88252e-13
6.18363e-13
7.73758e-13
9.58268e-13
1.17811e-12
1.44147e-12
1.75631e-12
2.12973e-12
2.57295e-12
3.10858e-12
3.77882e-12
4.61483e-12
3.04791e-19
2.24016e-17
1.12612e-16
1.92221e-16
1.95513e-16
1.9614e-16
1.99684e-16
1.80753e-16
1.79749e-16
2.06444e-16
2.44298e-16
2.61566e-16
2.39058e-16
2.01827e-16
1.8233e-16
1.7424e-16
1.71433e-16
1.7235e-16
1.7029e-16
1.5222e-16
1.26228e-16
1.10875e-16
1.04357e-16
1.0289e-16
1.03144e-16
9.93571e-17
9.39721e-17
9.34497e-17
9.51999e-17
9.71899e-17
9.91391e-17
1.02107e-16
1.07518e-16
1.14688e-16
1.22194e-16
1.30048e-16
1.39215e-16
1.49264e-16
1.60578e-16
1.723e-16
1.82583e-16
1.89561e-16
1.92985e-16
1.95119e-16
1.986e-16
2.03862e-16
2.10947e-16
2.20206e-16
2.31061e-16
2.44216e-16
2.60613e-16
2.80441e-16
3.00718e-16
3.17831e-16
3.31922e-16
3.51014e-16
3.84392e-16
4.34685e-16
5.009e-16
5.81866e-16
6.74915e-16
7.78435e-16
8.93068e-16
1.01848e-15
1.14901e-15
1.2757e-15
1.39295e-15
1.49848e-15
1.59126e-15
1.68193e-15
1.80628e-15
2.01503e-15
2.34605e-15
2.81307e-15
3.42496e-15
4.20509e-15
5.18705e-15
6.40701e-15
7.91132e-15
9.78625e-15
1.21875e-14
1.53422e-14
1.9542e-14
2.51754e-14
3.2796e-14
4.31596e-14
5.72014e-14
7.59673e-14
1.00493e-13
1.31741e-13
1.7075e-13
2.18931e-13
2.78152e-13
3.50504e-13
4.37934e-13
5.42622e-13
6.6866e-13
8.23861e-13
1.02033e-12
1.26824e-12
1.10048e-20
1.17701e-18
7.04667e-18
1.31644e-17
1.39818e-17
1.45445e-17
1.51526e-17
1.38902e-17
1.40757e-17
1.64667e-17
1.96933e-17
2.11752e-17
1.93868e-17
1.64314e-17
1.49568e-17
1.43969e-17
1.42233e-17
1.42876e-17
1.40546e-17
1.26143e-17
1.0651e-17
9.48882e-18
8.97191e-18
8.81715e-18
8.7426e-18
8.36527e-18
7.91205e-18
7.82383e-18
7.9018e-18
7.99911e-18
8.10615e-18
8.32337e-18
8.74682e-18
9.33263e-18
9.98189e-18
1.06725e-17
1.14589e-17
1.23515e-17
1.33606e-17
1.44001e-17
1.53225e-17
1.59888e-17
1.63943e-17
1.6718e-17
1.71515e-17
1.77259e-17
1.84353e-17
1.92899e-17
2.02705e-17
2.14765e-17
2.30402e-17
2.49878e-17
2.7114e-17
2.9192e-17
3.12768e-17
3.39542e-17
3.79329e-17
4.35271e-17
5.0782e-17
5.96722e-17
7.00617e-17
8.19253e-17
9.54278e-17
1.10598e-16
1.26925e-16
1.43547e-16
1.59839e-16
1.75428e-16
1.90182e-16
2.05584e-16
2.26312e-16
2.59126e-16
3.09651e-16
3.81023e-16
4.76155e-16
6.00136e-16
7.59812e-16
9.63029e-16
1.22031e-15
1.55014e-15
1.98448e-15
2.57069e-15
3.3727e-15
4.47971e-15
6.02198e-15
8.18292e-15
1.12017e-14
1.5367e-14
2.1002e-14
2.84571e-14
3.81342e-14
5.05299e-14
6.6232e-14
8.58337e-14
1.09862e-13
1.38961e-13
1.74428e-13
2.18774e-13
2.75806e-13
3.49235e-13
4.55751e-22
6.5266e-20
4.61528e-19
9.37204e-19
1.04049e-18
1.12228e-18
1.19402e-18
1.10658e-18
1.13922e-18
1.35287e-18
1.63192e-18
1.76096e-18
1.61432e-18
1.37237e-18
1.25742e-18
1.21846e-18
1.20848e-18
1.21336e-18
1.19005e-18
1.07324e-18
9.20636e-19
8.30167e-19
7.88493e-19
7.73692e-19
7.61706e-19
7.25774e-19
6.86601e-19
6.76269e-19
6.78739e-19
6.82692e-19
6.88196e-19
7.04159e-19
7.37633e-19
7.85658e-19
8.41245e-19
9.01967e-19
9.71274e-19
1.05155e-18
1.14253e-18
1.23643e-18
1.32122e-18
1.38622e-18
1.43192e-18
1.47266e-18
1.52286e-18
1.58449e-18
1.65607e-18
1.73743e-18
1.82897e-18
1.94194e-18
2.09072e-18
2.27969e-18
2.49639e-18
2.72791e-18
2.98267e-18
3.30664e-18
3.75741e-18
4.36931e-18
5.15713e-18
6.1278e-18
7.28137e-18
8.6304e-18
1.02046e-17
1.20183e-17
1.40321e-17
1.61688e-17
1.83655e-17
2.05763e-17
2.27943e-17
2.52274e-17
2.8493e-17
3.35057e-17
4.11126e-17
5.19341e-17
6.66392e-17
8.62521e-17
1.12129e-16
1.45909e-16
1.89868e-16
2.47862e-16
3.2642e-16
4.35388e-16
5.8868e-16
8.06514e-16
1.11919e-15
1.57072e-15
2.22106e-15
3.14689e-15
4.44107e-15
6.21362e-15
8.59756e-15
1.17556e-14
1.58727e-14
2.11285e-14
2.76795e-14
3.57212e-14
4.56534e-14
5.82635e-14
7.47616e-14
9.64409e-14
2.11985e-23
3.79093e-21
3.14251e-20
6.89575e-20
8.00624e-20
8.94757e-20
9.70083e-20
9.07416e-20
9.46619e-20
1.13815e-19
1.38286e-19
1.49687e-19
1.37362e-19
1.17062e-19
1.07898e-19
1.05221e-19
1.04757e-19
1.05168e-19
1.02958e-19
9.33322e-20
8.11835e-20
7.39713e-20
7.05579e-20
6.91952e-20
6.78017e-20
6.44303e-20
6.09716e-20
5.98855e-20
5.98255e-20
5.98717e-20
6.00882e-20
6.12579e-20
6.39323e-20
6.79044e-20
7.26758e-20
7.80478e-20
8.42625e-20
9.15624e-20
9.98621e-20
1.08481e-19
1.16421e-19
1.22838e-19
1.27824e-19
1.3255e-19
1.38124e-19
1.44651e-19
1.51916e-19
1.59838e-19
1.68599e-19
1.79369e-19
1.93607e-19
2.11943e-19
2.33772e-19
2.58539e-19
2.87355e-19
3.24111e-19
3.73781e-19
4.40014e-19
5.25112e-19
6.30748e-19
7.58379e-19
9.10953e-19
1.09314e-18
1.30812e-18
1.55384e-18
1.82434e-18
2.1141e-18
2.41877e-18
2.73972e-18
3.10661e-18
3.60202e-18
4.35166e-18
5.48417e-18
7.11367e-18
9.37467e-18
1.24637e-17
1.66427e-17
2.22441e-17
2.9742e-17
3.99268e-17
5.41233e-17
7.4373e-17
1.03681e-16
1.46578e-16
2.1004e-16
3.04513e-16
4.44803e-16
6.50782e-16
9.47983e-16
1.3686e-15
1.95332e-15
2.75262e-15
3.82378e-15
5.22243e-15
6.99784e-15
9.2112e-15
1.19858e-14
1.55655e-14
2.03324e-14
2.67222e-14
1.08152e-24
2.29275e-22
2.21271e-21
5.22044e-21
6.33866e-21
7.33145e-21
8.08292e-21
7.61949e-21
8.03705e-21
9.76383e-21
1.19373e-20
1.29582e-20
1.19012e-20
1.01637e-20
9.42078e-21
9.24371e-21
9.23765e-21
9.27574e-21
9.07187e-21
8.26747e-21
7.28045e-21
6.69374e-21
6.41012e-21
6.28653e-21
6.14023e-21
5.82479e-21
5.51398e-21
5.40463e-21
5.38009e-21
5.36235e-21
5.36106e-21
5.44573e-21
5.66152e-21
5.99356e-21
6.40624e-21
6.88543e-21
7.44978e-21
8.12027e-21
8.88598e-21
9.68784e-21
1.04419e-20
1.10798e-20
1.16126e-20
1.2137e-20
1.27403e-20
1.34252e-20
1.41654e-20
1.49495e-20
1.58038e-20
1.68455e-20
1.82201e-20
2.00074e-20
2.21976e-20
2.47926e-20
2.79306e-20
3.19651e-20
3.73508e-20
4.44745e-20
5.36391e-20
6.51162e-20
7.92075e-20
9.64007e-20
1.17377e-19
1.42697e-19
1.72438e-19
2.06282e-19
2.43893e-19
2.85013e-19
3.30223e-19
3.83813e-19
4.57e-19
5.67319e-19
7.34412e-19
9.78347e-19
1.32437e-18
1.80895e-18
2.48166e-18
3.40816e-18
4.6846e-18
6.47053e-18
9.03321e-18
1.27942e-17
1.83977e-17
2.68491e-17
3.97402e-17
5.95264e-17
8.98191e-17
1.35678e-16
2.03931e-16
3.03624e-16
4.46636e-16
6.48039e-16
9.25211e-16
1.29542e-15
1.77449e-15
2.38197e-15
3.15602e-15
4.17213e-15
5.55169e-15
7.44811e-15
5.92459e-26
1.43683e-23
1.60438e-22
4.0522e-22
5.1437e-22
6.14837e-22
6.8794e-22
6.52639e-22
6.94789e-22
8.51487e-22
1.04676e-21
1.13927e-21
1.04712e-21
8.95923e-22
8.34947e-22
8.24193e-22
8.26741e-22
8.30565e-22
8.12041e-22
7.43969e-22
6.62369e-22
6.13806e-22
5.89939e-22
5.78783e-22
5.64071e-22
5.3449e-22
5.06141e-22
4.95333e-22
4.91699e-22
4.88409e-22
4.86619e-22
4.92585e-22
5.10143e-22
5.38202e-22
5.74224e-22
6.17347e-22
6.6912e-22
7.31272e-22
8.02645e-22
8.78108e-22
9.50507e-22
1.01419e-21
1.07032e-21
1.12702e-21
1.19124e-21
1.26268e-21
1.33832e-21
1.41683e-21
1.50132e-21
1.60333e-21
1.73727e-21
1.9126e-21
2.13234e-21
2.40137e-21
2.73625e-21
3.17109e-21
3.74954e-21
4.51288e-21
5.49852e-21
6.7448e-21
8.29895e-21
1.02319e-20
1.26384e-20
1.56069e-20
1.91844e-20
2.33818e-20
2.82049e-20
3.36698e-20
3.99145e-20
4.75663e-20
5.81714e-20
7.4208e-20
9.86831e-20
1.35022e-19
1.87766e-19
2.63522e-19
3.71496e-19
5.24386e-19
7.4128e-19
1.05396e-18
1.51603e-18
2.21411e-18
3.2854e-18
4.95107e-18
7.57129e-18
1.17186e-17
1.82648e-17
2.8481e-17
4.41576e-17
6.77695e-17
1.02682e-16
1.53275e-16
2.24724e-16
3.22343e-16
4.51212e-16
6.17641e-16
8.33606e-16
1.12313e-15
1.52863e-15
2.12424e-15
3.42788e-27
9.2928e-25
1.19378e-23
3.216e-23
4.26512e-23
5.26029e-23
5.96239e-23
5.68578e-23
6.09973e-23
7.53134e-23
9.30404e-23
1.01515e-22
9.33669e-23
8.0024e-23
7.49744e-23
7.44479e-23
7.49578e-23
7.53615e-23
7.36932e-23
6.78679e-23
6.10194e-23
5.69394e-23
5.49085e-23
5.39012e-23
5.2451e-23
4.96643e-23
4.70454e-23
4.59846e-23
4.55421e-23
4.51045e-23
4.47992e-23
4.51981e-23
4.6636e-23
4.90315e-23
5.22061e-23
5.61203e-23
6.0912e-23
6.67223e-23
7.34372e-23
8.06089e-23
8.76202e-23
9.39972e-23
9.98551e-23
1.05885e-22
1.1265e-22
1.2007e-22
1.27818e-22
1.35749e-22
1.44196e-22
1.5429e-22
1.67459e-22
1.84777e-22
2.06871e-22
2.34622e-22
2.69968e-22
3.16354e-22
3.78144e-22
4.59787e-22
5.65763e-22
7.01131e-22
8.72501e-22
1.08953e-21
1.36496e-21
1.71186e-21
2.14023e-21
2.65734e-21
3.27023e-21
3.98813e-21
4.83817e-21
5.91266e-21
7.42738e-21
9.73651e-21
1.33007e-20
1.86922e-20
2.67052e-20
3.85136e-20
5.58006e-20
8.09778e-20
1.17769e-19
1.72433e-19
2.55656e-19
3.85153e-19
5.89945e-19
9.18328e-19
1.4512e-18
2.32108e-18
3.73666e-18
6.01373e-18
9.61505e-18
1.5205e-17
2.37168e-17
3.6399e-17
5.47675e-17
8.04401e-17
1.1504e-16
1.60642e-16
2.21271e-16
3.06048e-16
4.37531e-16
6.87311e-16
2.07038e-28
6.18196e-26
9.08904e-25
2.60365e-24
3.6048e-24
4.57951e-24
5.24975e-24
5.02702e-24
5.42758e-24
6.7443e-24
8.3687e-24
9.15247e-24
8.42335e-24
7.23162e-24
6.81092e-24
6.80273e-24
6.87495e-24
6.91871e-24
6.76932e-24
6.26581e-24
5.68344e-24
5.33622e-24
5.16173e-24
5.07053e-24
4.92888e-24
4.66493e-24
4.4203e-24
4.31632e-24
4.26642e-24
4.21445e-24
4.1739e-24
4.19782e-24
4.31609e-24
4.52252e-24
4.80489e-24
5.16314e-24
5.61014e-24
6.15759e-24
6.79466e-24
7.48201e-24
8.16588e-24
8.80599e-24
9.41354e-24
1.00482e-23
1.07557e-23
1.15245e-23
1.23199e-23
1.31262e-23
1.39781e-23
1.49859e-23
1.62918e-23
1.80141e-23
2.02428e-23
2.31002e-23
2.68096e-23
3.17298e-23
3.83108e-23
4.70376e-23
5.84386e-23
7.31544e-23
9.20577e-23
1.16412e-22
1.47892e-22
1.8834e-22
2.39464e-22
3.02851e-22
3.80198e-22