/*--------------------------------*- C++ -*----------------------------------*\
| =========                 |                                                 |
| \\      /  F ield         | OpenFOAM: The Open Source CFD Toolbox           |
|  \\    /   O peration     | Version:  2.4.0                                 |
|   \\  /    A nd           | Web:      www.OpenFOAM.org                      |
|    \\/     M anipulation  |                                                 |
\*---------------------------------------------------------------------------*/
FoamFile
{
    version     2.0;
    format      ascii;
    class       volScalarField;
    location    "0.17";
    object      p_rgh;
}
// * * * * * * * * * * * * * * * * * * * * * * * * * * * * * * * * * * * * * //

dimensions      [1 -1 -2 0 0 0 0];

internalField   nonuniform List<scalar> 
60000
(
97.6287
97.6287
97.6285
97.6283
97.6281
97.6277
97.6273
97.6269
97.6264
97.6258
97.6252
97.6245
97.6238
97.623
97.6221
97.6213
97.6203
97.6194
97.6184
97.6173
97.6162
97.6151
97.614
97.6128
97.6116
97.6103
97.6091
97.6078
97.6065
97.6051
97.6037
97.6024
97.601
97.5995
97.5981
97.5967
97.5952
97.5938
97.5923
97.5908
97.5894
97.588
97.5866
97.5852
97.5838
97.5825
97.5813
97.58
97.5789
97.5778
97.5767
97.5758
97.5749
97.5741
97.5735
97.5729
97.5725
97.5723
97.5722
97.5722
97.5725
97.573
97.5737
97.5746
97.5758
97.5773
97.5791
97.5812
97.5838
97.5866
97.59
97.5938
97.598
97.6028
97.6082
97.6142
97.6209
97.6283
97.6365
97.6454
97.6553
97.6661
97.6779
97.6907
97.7047
97.72
97.7365
97.7544
97.7737
97.7946
97.8172
97.8414
97.8675
97.8954
97.9254
97.9574
97.9916
98.0281
98.0668
98.108
97.6288
97.6287
97.6286
97.6284
97.6281
97.6278
97.6274
97.6269
97.6264
97.6258
97.6252
97.6245
97.6238
97.623
97.6221
97.6213
97.6203
97.6194
97.6184
97.6173
97.6163
97.6151
97.614
97.6128
97.6116
97.6104
97.6091
97.6078
97.6065
97.6051
97.6038
97.6024
97.601
97.5995
97.5981
97.5967
97.5952
97.5938
97.5923
97.5909
97.5894
97.588
97.5866
97.5852
97.5838
97.5825
97.5813
97.58
97.5789
97.5778
97.5767
97.5758
97.5749
97.5741
97.5735
97.5729
97.5725
97.5723
97.5722
97.5722
97.5725
97.5729
97.5736
97.5746
97.5758
97.5773
97.5791
97.5812
97.5837
97.5866
97.5899
97.5937
97.5979
97.6027
97.6081
97.6141
97.6208
97.6281
97.6363
97.6452
97.6551
97.6659
97.6776
97.6905
97.7045
97.7197
97.7362
97.7541
97.7734
97.7943
97.8168
97.841
97.8671
97.895
97.9249
97.9569
97.9911
98.0275
98.0663
98.1074
97.6288
97.6287
97.6286
97.6284
97.6281
97.6278
97.6274
97.6269
97.6264
97.6258
97.6252
97.6245
97.6238
97.623
97.6222
97.6213
97.6204
97.6194
97.6184
97.6174
97.6163
97.6152
97.614
97.6128
97.6116
97.6104
97.6091
97.6078
97.6065
97.6051
97.6038
97.6024
97.601
97.5996
97.5981
97.5967
97.5952
97.5938
97.5923
97.5909
97.5894
97.588
97.5866
97.5852
97.5838
97.5825
97.5812
97.58
97.5788
97.5777
97.5767
97.5757
97.5749
97.5741
97.5734
97.5729
97.5725
97.5722
97.5721
97.5721
97.5724
97.5729
97.5735
97.5745
97.5757
97.5771
97.5789
97.581
97.5835
97.5864
97.5897
97.5934
97.5977
97.6025
97.6078
97.6138
97.6205
97.6278
97.6359
97.6448
97.6547
97.6654
97.6771
97.69
97.7039
97.7191
97.7355
97.7534
97.7727
97.7935
97.816
97.8402
97.8662
97.8941
97.9239
97.9559
97.99
98.0264
98.0651
98.1062
97.6288
97.6288
97.6286
97.6284
97.6282
97.6278
97.6274
97.627
97.6265
97.6259
97.6253
97.6246
97.6238
97.623
97.6222
97.6213
97.6204
97.6194
97.6184
97.6174
97.6163
97.6152
97.614
97.6129
97.6116
97.6104
97.6091
97.6078
97.6065
97.6052
97.6038
97.6024
97.601
97.5996
97.5981
97.5967
97.5952
97.5938
97.5923
97.5909
97.5894
97.588
97.5866
97.5852
97.5838
97.5825
97.5812
97.58
97.5788
97.5777
97.5766
97.5757
97.5748
97.574
97.5733
97.5728
97.5724
97.5721
97.572
97.572
97.5723
97.5727
97.5734
97.5743
97.5755
97.5769
97.5787
97.5808
97.5832
97.5861
97.5894
97.5931
97.5973
97.6021
97.6074
97.6134
97.62
97.6273
97.6353
97.6442
97.654
97.6647
97.6764
97.6891
97.7031
97.7182
97.7346
97.7523
97.7716
97.7923
97.8147
97.8389
97.8648
97.8926
97.9224
97.9543
97.9884
98.0247
98.0634
98.1045
97.6289
97.6288
97.6287
97.6285
97.6282
97.6279
97.6275
97.627
97.6265
97.6259
97.6253
97.6246
97.6239
97.6231
97.6223
97.6214
97.6204
97.6195
97.6185
97.6174
97.6163
97.6152
97.6141
97.6129
97.6117
97.6104
97.6092
97.6079
97.6065
97.6052
97.6038
97.6024
97.601
97.5996
97.5982
97.5967
97.5952
97.5938
97.5923
97.5909
97.5894
97.588
97.5866
97.5852
97.5838
97.5825
97.5812
97.5799
97.5788
97.5776
97.5766
97.5756
97.5747
97.5739
97.5732
97.5727
97.5722
97.572
97.5718
97.5719
97.5721
97.5725
97.5732
97.5741
97.5752
97.5766
97.5784
97.5805
97.5829
97.5857
97.589
97.5926
97.5968
97.6016
97.6068
97.6127
97.6193
97.6265
97.6346
97.6434
97.6531
97.6637
97.6754
97.6881
97.7019
97.7169
97.7332
97.7509
97.7701
97.7908
97.8131
97.8371
97.8629
97.8907
97.9204
97.9522
97.9862
98.0225
98.0611
98.1021
97.629
97.6289
97.6288
97.6286
97.6283
97.628
97.6276
97.6271
97.6266
97.626
97.6254
97.6247
97.6239
97.6232
97.6223
97.6214
97.6205
97.6195
97.6185
97.6175
97.6164
97.6153
97.6141
97.6129
97.6117
97.6105
97.6092
97.6079
97.6066
97.6052
97.6039
97.6025
97.6011
97.5996
97.5982
97.5967
97.5953
97.5938
97.5923
97.5909
97.5894
97.588
97.5865
97.5851
97.5838
97.5824
97.5811
97.5799
97.5787
97.5776
97.5765
97.5755
97.5746
97.5738
97.5731
97.5725
97.5721
97.5718
97.5716
97.5716
97.5719
97.5723
97.5729
97.5738
97.5749
97.5763
97.578
97.58
97.5824
97.5852
97.5884
97.5921
97.5962
97.6009
97.6061
97.6119
97.6184
97.6256
97.6336
97.6423
97.652
97.6625
97.6741
97.6867
97.7004
97.7154
97.7316
97.7492
97.7682
97.7888
97.811
97.8349
97.8606
97.8883
97.9179
97.9496
97.9835
98.0196
98.0581
98.0991
97.6291
97.629
97.6289
97.6287
97.6284
97.6281
97.6277
97.6272
97.6267
97.6261
97.6255
97.6248
97.624
97.6232
97.6224
97.6215
97.6206
97.6196
97.6186
97.6175
97.6164
97.6153
97.6142
97.613
97.6118
97.6105
97.6093
97.608
97.6066
97.6053
97.6039
97.6025
97.6011
97.5996
97.5982
97.5967
97.5953
97.5938
97.5923
97.5909
97.5894
97.5879
97.5865
97.5851
97.5837
97.5824
97.5811
97.5798
97.5786
97.5775
97.5764
97.5754
97.5745
97.5737
97.5729
97.5724
97.5719
97.5716
97.5714
97.5714
97.5716
97.5719
97.5725
97.5734
97.5745
97.5758
97.5775
97.5795
97.5819
97.5846
97.5878
97.5914
97.5954
97.6001
97.6052
97.611
97.6174
97.6245
97.6324
97.6411
97.6506
97.6611
97.6725
97.685
97.6986
97.7135
97.7296
97.7471
97.766
97.7864
97.8085
97.8322
97.8578
97.8853
97.9148
97.9464
97.9802
98.0162
98.0546
98.0954
97.6292
97.6291
97.629
97.6288
97.6285
97.6282
97.6278
97.6273
97.6268
97.6262
97.6256
97.6249
97.6241
97.6233
97.6225
97.6216
97.6206
97.6197
97.6186
97.6176
97.6165
97.6154
97.6142
97.613
97.6118
97.6106
97.6093
97.608
97.6067
97.6053
97.6039
97.6025
97.6011
97.5997
97.5982
97.5968
97.5953
97.5938
97.5923
97.5909
97.5894
97.5879
97.5865
97.5851
97.5837
97.5823
97.581
97.5797
97.5785
97.5774
97.5763
97.5752
97.5743
97.5735
97.5728
97.5721
97.5717
97.5713
97.5711
97.5711
97.5712
97.5716
97.5721
97.5729
97.574
97.5753
97.577
97.5789
97.5812
97.5839
97.587
97.5905
97.5946
97.5991
97.6042
97.6099
97.6162
97.6232
97.631
97.6396
97.649
97.6594
97.6707
97.6831
97.6966
97.7113
97.7272
97.7446
97.7633
97.7836
97.8055
97.8291
97.8546
97.8819
97.9112
97.9426
97.9763
98.0122
98.0504
98.0912
97.6294
97.6293
97.6291
97.6289
97.6287
97.6283
97.6279
97.6274
97.6269
97.6263
97.6257
97.625
97.6242
97.6234
97.6226
97.6217
97.6207
97.6197
97.6187
97.6177
97.6166
97.6155
97.6143
97.6131
97.6119
97.6106
97.6094
97.6081
97.6067
97.6054
97.604
97.6026
97.6012
97.5997
97.5983
97.5968
97.5953
97.5938
97.5923
97.5908
97.5894
97.5879
97.5864
97.585
97.5836
97.5822
97.5809
97.5796
97.5784
97.5772
97.5761
97.5751
97.5741
97.5733
97.5725
97.5719
97.5714
97.571
97.5708
97.5707
97.5708
97.5712
97.5717
97.5724
97.5735
97.5747
97.5763
97.5782
97.5805
97.5831
97.5861
97.5896
97.5935
97.598
97.603
97.6086
97.6148
97.6218
97.6294
97.6379
97.6472
97.6574
97.6686
97.6809
97.6942
97.7088
97.7246
97.7417
97.7603
97.7804
97.8021
97.8256
97.8508
97.878
97.9071
97.9384
97.9718
98.0075
98.0457
98.0863
97.6295
97.6294
97.6293
97.6291
97.6288
97.6285
97.6281
97.6276
97.627
97.6264
97.6258
97.6251
97.6243
97.6235
97.6227
97.6218
97.6208
97.6198
97.6188
97.6178
97.6167
97.6155
97.6144
97.6132
97.612
97.6107
97.6094
97.6081
97.6068
97.6054
97.604
97.6026
97.6012
97.5998
97.5983
97.5968
97.5953
97.5938
97.5923
97.5908
97.5893
97.5879
97.5864
97.585
97.5835
97.5822
97.5808
97.5795
97.5783
97.5771
97.576
97.5749
97.5739
97.5731
97.5723
97.5716
97.5711
97.5707
97.5704
97.5703
97.5704
97.5707
97.5712
97.5719
97.5729
97.5741
97.5756
97.5774
97.5796
97.5822
97.5851
97.5885
97.5924
97.5968
97.6017
97.6072
97.6133
97.6201
97.6277
97.636
97.6452
97.6552
97.6663
97.6784
97.6915
97.7059
97.7215
97.7385
97.7569
97.7768
97.7983
97.8216
97.8466
97.8735
97.9025
97.9335
97.9668
98.0023
98.0403
98.0808
97.6297
97.6296
97.6295
97.6292
97.629
97.6286
97.6282
97.6277
97.6272
97.6266
97.6259
97.6252
97.6245
97.6236
97.6228
97.6219
97.6209
97.6199
97.6189
97.6178
97.6168
97.6156
97.6145
97.6133
97.612
97.6108
97.6095
97.6082
97.6069
97.6055
97.6041
97.6027
97.6013
97.5998
97.5983
97.5968
97.5953
97.5938
97.5923
97.5908
97.5893
97.5878
97.5864
97.5849
97.5835
97.5821
97.5807
97.5794
97.5781
97.5769
97.5758
97.5747
97.5737
97.5728
97.572
97.5713
97.5708
97.5703
97.57
97.5699
97.5699
97.5702
97.5706
97.5713
97.5722
97.5733
97.5748
97.5766
97.5787
97.5812
97.584
97.5873
97.5911
97.5954
97.6002
97.6056
97.6116
97.6183
97.6257
97.6339
97.6429
97.6528
97.6637
97.6756
97.6886
97.7028
97.7182
97.7349
97.7531
97.7728
97.7941
97.8171
97.8419
97.8686
97.8973
97.9281
97.9612
97.9965
98.0343
98.0746
97.6299
97.6298
97.6296
97.6294
97.6291
97.6288
97.6284
97.6279
97.6274
97.6267
97.6261
97.6254
97.6246
97.6238
97.6229
97.622
97.621
97.62
97.619
97.6179
97.6168
97.6157
97.6146
97.6134
97.6121
97.6109
97.6096
97.6083
97.6069
97.6056
97.6042
97.6027
97.6013
97.5998
97.5984
97.5969
97.5954
97.5938
97.5923
97.5908
97.5893
97.5878
97.5863
97.5848
97.5834
97.582
97.5806
97.5793
97.578
97.5767
97.5756
97.5745
97.5735
97.5725
97.5717
97.571
97.5704
97.5699
97.5696
97.5694
97.5694
97.5696
97.57
97.5706
97.5714
97.5725
97.5739
97.5756
97.5777
97.5801
97.5828
97.586
97.5897
97.5939
97.5986
97.6038
97.6097
97.6162
97.6235
97.6315
97.6404
97.6501
97.6608
97.6725
97.6853
97.6993
97.7145
97.731
97.749
97.7684
97.7895
97.8122
97.8367
97.8632
97.8916
97.9222
97.955
97.9901
98.0277
98.0678
97.6301
97.63
97.6298
97.6296
97.6293
97.629
97.6286
97.6281
97.6275
97.6269
97.6263
97.6255
97.6247
97.6239
97.623
97.6221
97.6212
97.6202
97.6191
97.6181
97.617
97.6158
97.6147
97.6135
97.6122
97.611
97.6097
97.6084
97.607
97.6056
97.6042
97.6028
97.6014
97.5999
97.5984
97.5969
97.5954
97.5939
97.5923
97.5908
97.5893
97.5878
97.5862
97.5848
97.5833
97.5819
97.5805
97.5791
97.5778
97.5765
97.5754
97.5742
97.5732
97.5722
97.5714
97.5706
97.57
97.5695
97.5691
97.5689
97.5688
97.569
97.5693
97.5698
97.5706
97.5717
97.573
97.5746
97.5765
97.5789
97.5815
97.5846
97.5882
97.5922
97.5968
97.6019
97.6076
97.614
97.6211
97.629
97.6377
97.6472
97.6577
97.6692
97.6818
97.6955
97.7105
97.7268
97.7444
97.7636
97.7844
97.8068
97.8311
97.8572
97.8854
97.9157
97.9482
97.9831
98.0204
98.0603
97.6303
97.6302
97.6301
97.6298
97.6296
97.6292
97.6288
97.6283
97.6277
97.6271
97.6264
97.6257
97.6249
97.6241
97.6232
97.6223
97.6213
97.6203
97.6193
97.6182
97.6171
97.6159
97.6148
97.6136
97.6123
97.6111
97.6098
97.6085
97.6071
97.6057
97.6043
97.6029
97.6014
97.5999
97.5985
97.5969
97.5954
97.5939
97.5923
97.5908
97.5892
97.5877
97.5862
97.5847
97.5832
97.5817
97.5803
97.5789
97.5776
97.5763
97.5751
97.574
97.5729
97.5719
97.571
97.5702
97.5695
97.569
97.5686
97.5683
97.5682
97.5683
97.5686
97.569
97.5698
97.5707
97.572
97.5735
97.5753
97.5775
97.5801
97.5831
97.5865
97.5905
97.5949
97.5999
97.6054
97.6117
97.6186
97.6263
97.6347
97.6441
97.6544
97.6656
97.678
97.6914
97.7061
97.7221
97.7395
97.7584
97.7789
97.801
97.825
97.8508
97.8786
97.9086
97.9408
97.9754
98.0125
98.0521
97.6305
97.6304
97.6303
97.6301
97.6298
97.6294
97.629
97.6285
97.6279
97.6273
97.6266
97.6259
97.6251
97.6242
97.6234
97.6224
97.6214
97.6204
97.6194
97.6183
97.6172
97.6161
97.6149
97.6137
97.6124
97.6112
97.6099
97.6086
97.6072
97.6058
97.6044
97.603
97.6015
97.6
97.5985
97.597
97.5954
97.5939
97.5923
97.5908
97.5892
97.5877
97.5861
97.5846
97.5831
97.5816
97.5802
97.5788
97.5774
97.5761
97.5749
97.5737
97.5726
97.5716
97.5706
97.5698
97.5691
97.5685
97.568
97.5677
97.5675
97.5676
97.5678
97.5682
97.5688
97.5697
97.5709
97.5723
97.5741
97.5761
97.5786
97.5815
97.5848
97.5885
97.5928
97.5976
97.6031
97.6091
97.6158
97.6233
97.6316
97.6407
97.6507
97.6618
97.6738
97.687
97.7015
97.7172
97.7342
97.7528
97.7729
97.7948
97.8184
97.8438
97.8714
97.901
97.9329
97.9671
98.0039
98.0433
97.6308
97.6307
97.6306
97.6303
97.63
97.6297
97.6292
97.6287
97.6282
97.6275
97.6268
97.6261
97.6253
97.6244
97.6235
97.6226
97.6216
97.6206
97.6195
97.6184
97.6173
97.6162
97.615
97.6138
97.6126
97.6113
97.61
97.6087
97.6073
97.6059
97.6045
97.603
97.6016
97.6001
97.5986
97.597
97.5955
97.5939
97.5923
97.5908
97.5892
97.5876
97.586
97.5845
97.583
97.5815
97.58
97.5786
97.5772
97.5759
97.5746
97.5734
97.5723
97.5712
97.5702
97.5694
97.5686
97.5679
97.5674
97.567
97.5668
97.5668
97.5669
97.5673
97.5678
97.5686
97.5697
97.571
97.5727
97.5747
97.577
97.5797
97.5829
97.5865
97.5906
97.5953
97.6005
97.6064
97.6129
97.6202
97.6282
97.6371
97.6469
97.6576
97.6694
97.6824
97.6965
97.7118
97.7286
97.7468
97.7666
97.7881
97.8113
97.8364
97.8635
97.8928
97.9243
97.9582
97.9947
98.0338
97.6311
97.631
97.6308
97.6306
97.6303
97.6299
97.6295
97.629
97.6284
97.6278
97.6271
97.6263
97.6255
97.6246
97.6237
97.6228
97.6218
97.6207
97.6197
97.6186
97.6175
97.6163
97.6151
97.6139
97.6127
97.6114
97.6101
97.6088
97.6074
97.606
97.6046
97.6031
97.6017
97.6002
97.5986
97.5971
97.5955
97.5939
97.5923
97.5907
97.5891
97.5876
97.586
97.5844
97.5829
97.5813
97.5798
97.5784
97.577
97.5756
97.5743
97.5731
97.5719
97.5708
97.5698
97.5689
97.5681
97.5674
97.5668
97.5664
97.5661
97.566
97.566
97.5663
97.5668
97.5675
97.5684
97.5697
97.5712
97.5731
97.5753
97.5779
97.5809
97.5844
97.5883
97.5928
97.5978
97.6035
97.6098
97.6168
97.6246
97.6333
97.6428
97.6533
97.6648
97.6774
97.6911
97.7062
97.7226
97.7404
97.7598
97.7809
97.8037
97.8285
97.8552
97.884
97.9152
97.9487
97.9848
98.0236
97.6314
97.6313
97.6311
97.6309
97.6306
97.6302
97.6298
97.6292
97.6287
97.628
97.6273
97.6265
97.6257
97.6248
97.6239
97.6229
97.6219
97.6209
97.6198
97.6187
97.6176
97.6165
97.6153
97.6141
97.6128
97.6115
97.6102
97.6089
97.6075
97.6061
97.6047
97.6032
97.6017
97.6002
97.5987
97.5971
97.5955
97.5939
97.5923
97.5907
97.5891
97.5875
97.5859
97.5843
97.5827
97.5812
97.5797
97.5782
97.5768
97.5754
97.574
97.5727
97.5715
97.5704
97.5693
97.5684
97.5675
97.5668
97.5661
97.5656
97.5653
97.5651
97.5651
97.5653
97.5656
97.5663
97.5671
97.5683
97.5697
97.5714
97.5735
97.5759
97.5788
97.5821
97.5859
97.5901
97.595
97.6004
97.6065
97.6133
97.6209
97.6292
97.6384
97.6486
97.6598
97.6721
97.6855
97.7002
97.7162
97.7337
97.7527
97.7733
97.7957
97.82
97.8463
97.8747
97.9054
97.9385
97.9742
98.0126
97.6317
97.6316
97.6314
97.6312
97.6309
97.6305
97.63
97.6295
97.6289
97.6283
97.6275
97.6268
97.6259
97.625
97.6241
97.6231
97.6221
97.6211
97.62
97.6189
97.6178
97.6166
97.6154
97.6142
97.613
97.6117
97.6104
97.609
97.6077
97.6063
97.6048
97.6033
97.6018
97.6003
97.5988
97.5972
97.5956
97.594
97.5923
97.5907
97.5891
97.5874
97.5858
97.5842
97.5826
97.581
97.5795
97.578
97.5765
97.5751
97.5737
97.5724
97.5711
97.57
97.5689
97.5678
97.5669
97.5661
97.5654
97.5649
97.5644
97.5642
97.5641
97.5642
97.5645
97.565
97.5657
97.5668
97.568
97.5696
97.5716
97.5739
97.5766
97.5797
97.5833
97.5874
97.592
97.5972
97.6031
97.6096
97.6169
97.6249
97.6339
97.6437
97.6546
97.6665
97.6796
97.6939
97.7095
97.7265
97.7451
97.7653
97.7872
97.8111
97.8369
97.8648
97.8951
97.9277
97.963
98.001
97.632
97.6319
97.6318
97.6315
97.6312
97.6308
97.6304
97.6298
97.6292
97.6285
97.6278
97.627
97.6262
97.6253
97.6243
97.6233
97.6223
97.6213
97.6202
97.6191
97.6179
97.6168
97.6156
97.6143
97.6131
97.6118
97.6105
97.6092
97.6078
97.6064
97.6049
97.6035
97.6019
97.6004
97.5988
97.5972
97.5956
97.594
97.5923
97.5907
97.589
97.5874
97.5857
97.5841
97.5825
97.5809
97.5793
97.5777
97.5762
97.5748
97.5734
97.572
97.5707
97.5695
97.5683
97.5673
97.5663
97.5654
97.5647
97.5641
97.5636
97.5632
97.5631
97.5631
97.5633
97.5637
97.5643
97.5652
97.5664
97.5678
97.5696
97.5717
97.5743
97.5772
97.5806
97.5845
97.5889
97.5938
97.5994
97.6057
97.6127
97.6205
97.6291
97.6386
97.6491
97.6606
97.6733
97.6872
97.7024
97.719
97.7371
97.7568
97.7783
97.8016
97.8269
97.8544
97.8841
97.9163
97.9511
97.9886
97.6324
97.6323
97.6321
97.6319
97.6315
97.6312
97.6307
97.6301
97.6295
97.6288
97.6281
97.6273
97.6264
97.6255
97.6245
97.6236
97.6225
97.6215
97.6204
97.6192
97.6181
97.6169
97.6157
97.6145
97.6133
97.612
97.6107
97.6093
97.6079
97.6065
97.6051
97.6036
97.6021
97.6005
97.5989
97.5973
97.5957
97.594
97.5924
97.5907
97.589
97.5873
97.5856
97.584
97.5823
97.5807
97.5791
97.5775
97.576
97.5745
97.573
97.5716
97.5703
97.569
97.5678
97.5667
97.5657
97.5648
97.5639
97.5632
97.5627
97.5622
97.562
97.5619
97.562
97.5623
97.5628
97.5636
97.5646
97.5659
97.5675
97.5695
97.5718
97.5746
97.5777
97.5814
97.5856
97.5903
97.5956
97.6016
97.6083
97.6158
97.624
97.6332
97.6433
97.6545
97.6667
97.6802
97.6949
97.7111
97.7287
97.7479
97.7689
97.7917
97.8164
97.8434
97.8725
97.9042
97.9384
97.9755
97.6327
97.6326
97.6325
97.6322
97.6319
97.6315
97.631
97.6305
97.6298
97.6291
97.6284
97.6276
97.6267
97.6258
97.6248
97.6238
97.6227
97.6217
97.6206
97.6194
97.6183
97.6171
97.6159
97.6147
97.6134
97.6121
97.6108
97.6095
97.6081
97.6067
97.6052
97.6037
97.6022
97.6006
97.599
97.5974
97.5957
97.5941
97.5924
97.5907
97.589
97.5872
97.5855
97.5839
97.5822
97.5805
97.5789
97.5773
97.5757
97.5742
97.5727
97.5712
97.5699
97.5685
97.5673
97.5661
97.565
97.564
97.5631
97.5624
97.5617
97.5612
97.5609
97.5607
97.5606
97.5608
97.5612
97.5618
97.5627
97.5639
97.5654
97.5671
97.5693
97.5718
97.5748
97.5782
97.5821
97.5866
97.5917
97.5974
97.6037
97.6109
97.6188
97.6276
97.6373
97.6481
97.6599
97.6729
97.6872
97.7028
97.7199
97.7386
97.759
97.7812
97.8054
97.8318
97.8604
97.8914
97.9251
97.9616
97.6331
97.633
97.6329
97.6326
97.6323
97.6319
97.6314
97.6308
97.6302
97.6295
97.6287
97.6278
97.627
97.626
97.625
97.624
97.6229
97.6219
97.6208
97.6196
97.6185
97.6173
97.6161
97.6148
97.6136
97.6123
97.611
97.6096
97.6082
97.6068
97.6054
97.6039
97.6023
97.6007
97.5991
97.5975
97.5958
97.5941
97.5924
97.5907
97.5889
97.5872
97.5855
97.5837
97.582
97.5803
97.5787
97.577
97.5754
97.5738
97.5723
97.5708
97.5694
97.568
97.5667
97.5655
97.5643
97.5633
97.5623
97.5615
97.5607
97.5601
97.5597
97.5594
97.5593
97.5593
97.5596
97.5601
97.5608
97.5618
97.5631
97.5647
97.5667
97.569
97.5717
97.5749
97.5786
97.5828
97.5875
97.5929
97.599
97.6058
97.6133
97.6217
97.631
97.6414
97.6527
97.6653
97.679
97.6941
97.7107
97.7288
97.7487
97.7703
97.7939
97.8196
97.8476
97.878
97.9111
97.947
97.6335
97.6335
97.6333
97.633
97.6327
97.6323
97.6318
97.6312
97.6305
97.6298
97.629
97.6282
97.6272
97.6263
97.6253
97.6242
97.6232
97.6221
97.621
97.6198
97.6186
97.6175
97.6163
97.615
97.6138
97.6125
97.6112
97.6098
97.6084
97.607
97.6055
97.604
97.6025
97.6009
97.5992
97.5976
97.5959
97.5941
97.5924
97.5906
97.5889
97.5871
97.5854
97.5836
97.5819
97.5801
97.5784
97.5768
97.5751
97.5735
97.5719
97.5704
97.5689
97.5675
97.5661
97.5648
97.5636
97.5625
97.5615
97.5605
97.5597
97.559
97.5585
97.5581
97.5578
97.5578
97.5579
97.5583
97.5588
97.5597
97.5608
97.5622
97.5639
97.5661
97.5686
97.5715
97.5749
97.5788
97.5833
97.5883
97.594
97.6005
97.6076
97.6156
97.6245
97.6344
97.6453
97.6573
97.6706
97.6851
97.7011
97.7187
97.7379
97.7589
97.7818
97.8068
97.8342
97.8639
97.8963
97.9316
97.634
97.6339
97.6337
97.6335
97.6331
97.6327
97.6322
97.6316
97.6309
97.6302
97.6293
97.6285
97.6275
97.6266
97.6255
97.6245
97.6234
97.6223
97.6212
97.62
97.6188
97.6176
97.6164
97.6152
97.6139
97.6127
97.6113
97.61
97.6086
97.6072
97.6057
97.6042
97.6026
97.601
97.5993
97.5977
97.5959
97.5942
97.5924
97.5906
97.5888
97.5871
97.5853
97.5835
97.5817
97.5799
97.5782
97.5765
97.5748
97.5732
97.5715
97.57
97.5684
97.567
97.5655
97.5642
97.5629
97.5617
97.5606
97.5596
97.5587
97.5579
97.5572
97.5567
97.5564
97.5562
97.5562
97.5564
97.5568
97.5575
97.5584
97.5596
97.5611
97.563
97.5653
97.568
97.5711
97.5747
97.5788
97.5836
97.5889
97.595
97.6017
97.6093
97.6178
97.6272
97.6376
97.6491
97.6618
97.6758
97.6912
97.7081
97.7266
97.7469
97.7692
97.7935
97.8201
97.8492
97.8809
97.9155
97.6344
97.6343
97.6342
97.6339
97.6335
97.6331
97.6326
97.632
97.6313
97.6305
97.6297
97.6288
97.6279
97.6269
97.6258
97.6247
97.6236
97.6225
97.6214
97.6202
97.619
97.6178
97.6166
97.6154
97.6141
97.6129
97.6115
97.6102
97.6088
97.6074
97.6059
97.6043
97.6028
97.6011
97.5995
97.5978
97.596
97.5942
97.5925
97.5906
97.5888
97.587
97.5852
97.5833
97.5815
97.5797
97.578
97.5762
97.5745
97.5728
97.5711
97.5695
97.5679
97.5664
97.5649
97.5635
97.5622
97.5609
97.5597
97.5586
97.5576
97.5567
97.556
97.5553
97.5549
97.5545
97.5544
97.5544
97.5547
97.5552
97.5559
97.5569
97.5582
97.5599
97.5619
97.5643
97.5671
97.5705
97.5743
97.5787
97.5836
97.5893
97.5957
97.6028
97.6108
97.6197
97.6296
97.6405
97.6527
97.666
97.6808
97.6971
97.7149
97.7345
97.7561
97.7797
97.8055
97.8338
97.8647
97.8985
97.6349
97.6348
97.6346
97.6344
97.634
97.6336
97.633
97.6324
97.6317
97.6309
97.6301
97.6292
97.6282
97.6272
97.6261
97.625
97.6239
97.6227
97.6216
97.6204
97.6192
97.618
97.6168
97.6156
97.6143
97.6131
97.6117
97.6104
97.609
97.6076
97.6061
97.6045
97.6029
97.6013
97.5996
97.5979
97.5961
97.5943
97.5925
97.5906
97.5888
97.5869
97.5851
97.5832
97.5814
97.5795
97.5777
97.5759
97.5742
97.5724
97.5707
97.569
97.5674
97.5658
97.5643
97.5628
97.5614
97.56
97.5588
97.5576
97.5565
97.5555
97.5547
97.5539
97.5533
97.5528
97.5526
97.5524
97.5525
97.5528
97.5534
97.5542
97.5553
97.5567
97.5584
97.5605
97.5631
97.5661
97.5696
97.5736
97.5782
97.5834
97.5894
97.5961
97.6036
97.6119
97.6213
97.6317
97.6432
97.656
97.6701
97.6857
97.7028
97.7217
97.7424
97.7652
97.7902
97.8177
97.8478
97.8808
97.6354
97.6353
97.6351
97.6349
97.6345
97.634
97.6335
97.6328
97.6321
97.6313
97.6305
97.6295
97.6285
97.6275
97.6264
97.6253
97.6241
97.623
97.6218
97.6206
97.6194
97.6182
97.617
97.6158
97.6145
97.6133
97.612
97.6106
97.6092
97.6078
97.6063
97.6047
97.6031
97.6015
97.5998
97.598
97.5962
97.5944
97.5925
97.5906
97.5888
97.5869
97.585
97.5831
97.5812
97.5793
97.5775
97.5756
97.5738
97.5721
97.5703
97.5686
97.5669
97.5652
97.5636
97.5621
97.5606
97.5592
97.5578
97.5566
97.5554
97.5543
97.5533
97.5524
97.5517
97.5511
97.5507
97.5504
97.5503
97.5504
97.5508
97.5513
97.5522
97.5533
97.5548
97.5567
97.5589
97.5616
97.5647
97.5684
97.5726
97.5774
97.5829
97.5891
97.5961
97.604
97.6128
97.6226
97.6335
97.6456
97.659
97.6739
97.6902
97.7083
97.7283
97.7502
97.7744
97.801
97.8302
97.8623
97.6359
97.6358
97.6357
97.6354
97.635
97.6345
97.634
97.6333
97.6326
97.6318
97.6309
97.6299
97.6289
97.6278
97.6267
97.6256
97.6244
97.6232
97.622
97.6208
97.6196
97.6184
97.6172
97.616
97.6148
97.6135
97.6122
97.6108
97.6094
97.608
97.6065
97.6049
97.6033
97.6016
97.5999
97.5981
97.5963
97.5945
97.5926
97.5906
97.5887
97.5868
97.5849
97.5829
97.581
97.5791
97.5772
97.5753
97.5735
97.5717
97.5699
97.5681
97.5664
97.5646
97.563
97.5614
97.5598
97.5583
97.5569
97.5555
97.5542
97.553
97.5519
97.551
97.5501
97.5493
97.5488
97.5483
97.548
97.548
97.5481
97.5484
97.5491
97.5499
97.5512
97.5527
97.5546
97.557
97.5598
97.563
97.5668
97.5712
97.5763
97.582
97.5885
97.5958
97.604
97.6132
97.6234
97.6349
97.6476
97.6617
97.6773
97.6945
97.7136
97.7347
97.7579
97.7836
97.8118
97.843
97.6365
97.6364
97.6362
97.6359
97.6355
97.635
97.6345
97.6338
97.633
97.6322
97.6313
97.6303
97.6292
97.6281
97.627
97.6258
97.6246
97.6234
97.6222
97.621
97.6198
97.6186
97.6174
97.6162
97.615
97.6137
97.6124
97.6111
97.6097
97.6082
97.6067
97.6052
97.6035
97.6018
97.6001
97.5983
97.5964
97.5945
97.5926
97.5907
97.5887
97.5867
97.5848
97.5828
97.5808
97.5789
97.577
97.575
97.5732
97.5713
97.5694
97.5676
97.5658
97.564
97.5623
97.5606
97.559
97.5574
97.5559
97.5544
97.553
97.5517
97.5505
97.5494
97.5484
97.5475
97.5468
97.5462
97.5457
97.5454
97.5453
97.5455
97.5458
97.5465
97.5474
97.5486
97.5503
97.5522
97.5547
97.5575
97.5609
97.5649
97.5694
97.5746
97.5806
97.5873
97.5949
97.6035
97.6131
97.6238
97.6358
97.6491
97.6639
97.6803
97.6985
97.7186
97.7409
97.7655
97.7928
97.8229
97.6371
97.637
97.6368
97.6365
97.6361
97.6356
97.635
97.6343
97.6335
97.6327
97.6317
97.6307
97.6296
97.6285
97.6273
97.6261
97.6249
97.6237
97.6225
97.6213
97.6201
97.6189
97.6177
97.6164
97.6152
97.614
97.6127
97.6113
97.6099
97.6085
97.607
97.6054
97.6038
97.602
97.6003
97.5984
97.5966
97.5946
97.5927
97.5907
97.5887
97.5867
97.5847
97.5826
97.5806
97.5787
97.5767
97.5747
97.5728
97.5709
97.569
97.5671
97.5653
97.5634
97.5616
97.5599
97.5582
97.5565
97.5549
97.5533
97.5518
97.5504
97.5491
97.5479
97.5467
97.5457
97.5448
97.544
97.5434
97.5429
97.5426
97.5425
97.5426
97.5429
97.5436
97.5445
97.5458
97.5474
97.5494
97.5519
97.5549
97.5584
97.5624
97.5671
97.5725
97.5787
97.5857
97.5936
97.6025
97.6125
97.6236
97.6361
97.6501
97.6656
97.6828
97.702
97.7232
97.7468
97.773
97.802
97.6377
97.6376
97.6374
97.6371
97.6367
97.6362
97.6356
97.6349
97.6341
97.6332
97.6322
97.6311
97.63
97.6288
97.6276
97.6264
97.6252
97.6239
97.6227
97.6215
97.6203
97.6191
97.6179
97.6167
97.6154
97.6142
97.6129
97.6116
97.6102
97.6088
97.6072
97.6057
97.604
97.6023
97.6005
97.5986
97.5967
97.5947
97.5927
97.5907
97.5887
97.5866
97.5845
97.5825
97.5805
97.5784
97.5764
97.5744
97.5725
97.5705
97.5685
97.5666
97.5647
97.5628
97.5609
97.5591
97.5573
97.5556
97.5539
97.5522
97.5506
97.5491
97.5477
97.5463
97.545
97.5438
97.5428
97.5418
97.541
97.5403
97.5397
97.5394
97.5392
97.5393
97.5397
97.5403
97.5412
97.5425
97.5441
97.5462
97.5487
97.5517
97.5553
97.5595
97.5643
97.5698
97.5762
97.5834
97.5916
97.6008
97.6112
97.6228
97.6359
97.6504
97.6667
97.6848
97.705
97.7275
97.7525
97.7803
97.6383
97.6382
97.638
97.6377
97.6373
97.6368
97.6361
97.6354
97.6346
97.6337
97.6327
97.6316
97.6304
97.6292
97.628
97.6267
97.6254
97.6242
97.6229
97.6217
97.6205
97.6193
97.6181
97.6169
97.6157
97.6145
97.6132
97.6119
97.6105
97.609
97.6075
97.6059
97.6043
97.6025
97.6007
97.5988
97.5968
97.5948
97.5928
97.5907
97.5886
97.5865
97.5844
97.5823
97.5803
97.5782
97.5762
97.5741
97.5721
97.5701
97.5681
97.5661
97.5641
97.5622
97.5602
97.5583
97.5565
97.5546
97.5528
97.5511
97.5494
97.5478
97.5462
97.5447
97.5433
97.542
97.5407
97.5396
97.5385
97.5376
97.5369
97.5363
97.5358
97.5356
97.5357
97.536
97.5365
97.5374
97.5387
97.5403
97.5424
97.5449
97.548
97.5516
97.5558
97.5608
97.5665
97.573
97.5804
97.5889
97.5984
97.6092
97.6213
97.6349
97.6501
97.6672
97.6862
97.7075
97.7313
97.7578
97.6389
97.6388
97.6386
97.6383
97.6379
97.6374
97.6367
97.636
97.6351
97.6342
97.6332
97.632
97.6308
97.6296
97.6283
97.627
97.6257
97.6244
97.6231
97.6219
97.6207
97.6195
97.6183
97.6171
97.6159
97.6147
97.6135
97.6122
97.6108
97.6094
97.6078
97.6062
97.6045
97.6028
97.6009
97.599
97.597
97.595
97.5929
97.5907
97.5886
97.5865
97.5843
97.5822
97.5801
97.578
97.5759
97.5738
97.5717
97.5697
97.5676
97.5656
97.5636
97.5615
97.5595
97.5576
97.5556
97.5537
97.5518
97.5499
97.5481
97.5464
97.5447
97.5431
97.5415
97.54
97.5386
97.5373
97.5361
97.5349
97.5339
97.5331
97.5324
97.5319
97.5316
97.5316
97.5318
97.5323
97.5332
97.5344
97.536
97.538
97.5405
97.5436
97.5472
97.5515
97.5565
97.5623
97.569
97.5767
97.5853
97.5952
97.6064
97.6189
97.6331
97.649
97.6669
97.6869
97.7094
97.7346
97.6396
97.6395
97.6393
97.639
97.6385
97.638
97.6374
97.6366
97.6357
97.6348
97.6337
97.6325
97.6313
97.63
97.6286
97.6273
97.6259
97.6246
97.6233
97.6221
97.6209
97.6197
97.6185
97.6174
97.6162
97.615
97.6138
97.6125
97.6111
97.6097
97.6082
97.6065
97.6048
97.603
97.6012
97.5992
97.5972
97.5951
97.593
97.5908
97.5886
97.5864
97.5842
97.582
97.5799
97.5777
97.5756
97.5735
97.5714
97.5693
97.5672
97.5651
97.563
97.5609
97.5588
97.5568
97.5547
97.5527
97.5507
97.5488
97.5469
97.545
97.5432
97.5415
97.5398
97.5381
97.5365
97.535
97.5336
97.5322
97.531
97.5299
97.5289
97.5281
97.5275
97.5271
97.527
97.5271
97.5276
97.5283
97.5294
97.531
97.533
97.5354
97.5385
97.5421
97.5464
97.5515
97.5574
97.5642
97.572
97.5809
97.591
97.6026
97.6156
97.6303
97.647
97.6657
97.6868
97.7105
97.6403
97.6402
97.64
97.6397
97.6392
97.6387
97.638
97.6373
97.6363
97.6353
97.6342
97.633
97.6317
97.6304
97.629
97.6276
97.6262
97.6248
97.6235
97.6223
97.621
97.6199
97.6187
97.6176
97.6165
97.6153
97.6141
97.6128
97.6115
97.61
97.6085
97.6069
97.6052
97.6033
97.6014
97.5994
97.5974
97.5952
97.593
97.5908
97.5886
97.5863
97.5841
97.5819
97.5797
97.5775
97.5753
97.5732
97.571
97.5689
97.5667
97.5646
97.5624
97.5603
97.5581
97.556
97.5538
97.5517
97.5497
97.5476
97.5456
97.5436
97.5417
97.5398
97.538
97.5362
97.5344
97.5327
97.531
97.5295
97.528
97.5266
97.5254
97.5243
97.5233
97.5226
97.5221
97.5219
97.5219
97.5222
97.5228
97.5238
97.5253
97.5271
97.5295
97.5325
97.5361
97.5404
97.5455
97.5514
97.5583
97.5663
97.5754
97.5858
97.5977
97.6112
97.6265
97.6439
97.6635
97.6858
97.641
97.6409
97.6407
97.6404
97.6399
97.6394
97.6387
97.6379
97.637
97.6359
97.6348
97.6335
97.6322
97.6308
97.6293
97.6279
97.6264
97.6251
97.6237
97.6224
97.6212
97.6201
97.6189
97.6178
97.6167
97.6156
97.6144
97.6132
97.6118
97.6104
97.6089
97.6072
97.6055
97.6037
97.6017
97.5997
97.5976
97.5954
97.5931
97.5909
97.5886
97.5863
97.584
97.5817
97.5795
97.5773
97.5751
97.5729
97.5707
97.5685
97.5663
97.5641
97.5619
97.5596
97.5574
97.5552
97.553
97.5508
97.5486
97.5464
97.5443
97.5422
97.5402
97.5382
97.5362
97.5342
97.5323
97.5304
97.5285
97.5267
97.525
97.5233
97.5218
97.5204
97.5191
97.5181
97.5172
97.5165
97.5161
97.5159
97.5161
97.5166
97.5174
97.5187
97.5205
97.5228
97.5256