/*--------------------------------*- C++ -*----------------------------------*\
| =========                 |                                                 |
| \\      /  F ield         | OpenFOAM: The Open Source CFD Toolbox           |
|  \\    /   O peration     | Version:  2.4.0                                 |
|   \\  /    A nd           | Web:      www.OpenFOAM.org                      |
|    \\/     M anipulation  |                                                 |
\*---------------------------------------------------------------------------*/
FoamFile
{
    version     2.0;
    format      ascii;
    class       surfaceScalarField;
    location    "0.17";
    object      phi;
}
// * * * * * * * * * * * * * * * * * * * * * * * * * * * * * * * * * * * * * //

dimensions      [0 3 -1 0 0 0 0];

internalField   nonuniform List<scalar> 
119500
(
2.77975e-13
-2.77975e-13
3.20471e-13
-4.25415e-14
2.65287e-13
5.51384e-14
1.80393e-13
8.48477e-14
6.99746e-14
1.10391e-13
-6.67769e-14
1.36772e-13
-2.42621e-13
1.75934e-13
-4.62012e-13
2.19542e-13
-7.29157e-13
2.67314e-13
-1.04906e-12
3.20037e-13
-1.42727e-12
3.78263e-13
-1.86944e-12
4.42152e-13
-2.38074e-12
5.11243e-13
-2.96623e-12
5.85442e-13
-3.63056e-12
6.64301e-13
-4.37788e-12
7.47327e-13
-5.21215e-12
8.34293e-13
-6.1372e-12
9.25083e-13
-7.15645e-12
1.01932e-12
-8.2736e-12
1.11725e-12
-9.49186e-12
1.21839e-12
-1.08141e-11
1.32238e-12
-1.22434e-11
1.42944e-12
-1.37822e-11
1.53874e-12
-1.54329e-11
1.65075e-12
-1.71985e-11
1.76545e-12
-1.90814e-11
1.88282e-12
-2.10848e-11
2.00318e-12
-2.32114e-11
2.12642e-12
-2.54644e-11
2.25273e-12
-2.78466e-11
2.38201e-12
-3.03613e-11
2.51459e-12
-3.30128e-11
2.65135e-12
-3.58051e-11
2.79217e-12
-3.8743e-11
2.93782e-12
-4.18308e-11
3.0877e-12
-4.50739e-11
3.24303e-12
-4.84783e-11
3.4045e-12
-5.20499e-11
3.57175e-12
-5.57949e-11
3.74522e-12
-5.97214e-11
3.92663e-12
-6.38363e-11
4.1149e-12
-6.81477e-11
4.31143e-12
-7.2663e-11
4.51537e-12
-7.73901e-11
4.72718e-12
-8.23381e-11
4.94817e-12
-8.75126e-11
5.17471e-12
-9.29214e-11
5.40892e-12
-9.85727e-11
5.65146e-12
-1.04473e-10
5.90066e-12
-1.10629e-10
6.1565e-12
-1.17049e-10
6.41962e-12
-1.23737e-10
6.6883e-12
-1.307e-10
6.96278e-12
-1.37942e-10
7.24258e-12
-1.4547e-10
7.52767e-12
-1.53289e-10
7.81891e-12
-1.61405e-10
8.11654e-12
-1.69826e-10
8.42071e-12
-1.78558e-10
8.73161e-12
-1.87607e-10
9.04968e-12
-1.96983e-10
9.3755e-12
-2.06693e-10
9.7101e-12
-2.16746e-10
1.00536e-11
-2.27153e-10
1.04065e-11
-2.37923e-10
1.07698e-11
-2.49067e-10
1.11444e-11
-2.60597e-10
1.15303e-11
-2.72525e-10
1.19277e-11
-2.84862e-10
1.23373e-11
-2.97622e-10
1.27602e-11
-3.1082e-10
1.31971e-11
-3.24467e-10
1.36474e-11
-3.38577e-10
1.411e-11
-3.53163e-10
1.45856e-11
-3.68237e-10
1.50741e-11
-3.83811e-10
1.55738e-11
-3.99895e-10
1.6084e-11
-4.16498e-10
1.66038e-11
-4.33631e-10
1.71327e-11
-4.51297e-10
1.76658e-11
-4.69497e-10
1.82003e-11
-4.88232e-10
1.87345e-11
-5.07496e-10
1.92641e-11
-5.2728e-10
1.97839e-11
-5.47569e-10
2.02884e-11
-5.68342e-10
2.07732e-11
-5.89576e-10
2.1233e-11
-6.11235e-10
2.16589e-11
-6.33277e-10
2.20416e-11
-6.55648e-10
2.23716e-11
-6.78286e-10
2.26377e-11
-7.01111e-10
2.28256e-11
-7.24037e-10
2.29253e-11
-7.4695e-10
2.29133e-11
-7.69743e-10
2.27927e-11
-7.92264e-10
2.25211e-11
-8.14363e-10
2.2099e-11
-8.35754e-10
2.1391e-11
2.04963e-11
-8.5625e-10
-2.12768e-13
-6.52646e-14
-9.62994e-13
7.07609e-13
-1.83197e-12
9.24062e-13
-2.74799e-12
1.00085e-12
-3.68063e-12
1.0431e-12
-4.63305e-12
1.08936e-12
-5.60594e-12
1.14906e-12
-6.60532e-12
1.21918e-12
-7.63639e-12
1.29858e-12
-8.70451e-12
1.38825e-12
-9.81545e-12
1.48919e-12
-1.0975e-11
1.60163e-12
-1.21893e-11
1.72548e-12
-1.34653e-11
1.86139e-12
-1.48107e-11
2.00969e-12
-1.62331e-11
2.16982e-12
-1.77412e-11
2.34246e-12
-1.93432e-11
2.52723e-12
-2.10471e-11
2.72341e-12
-2.28611e-11
2.93145e-12
-2.47927e-11
3.15013e-12
-2.68489e-11
3.37873e-12
-2.90368e-11
3.61737e-12
-3.13626e-11
3.86444e-12
-3.38319e-11
4.11985e-12
-3.64508e-11
4.38413e-12
-3.9224e-11
4.65573e-12
-4.21569e-11
4.93565e-12
-4.52544e-11
5.22353e-12
-4.8521e-11
5.51909e-12
-5.19623e-11
5.823e-12
-5.55824e-11
6.13451e-12
-5.93868e-11
6.45549e-12
-6.33799e-11
6.78517e-12
-6.75671e-11
7.12488e-12
-7.19526e-11
7.4732e-12
-7.65428e-11
7.83329e-12
-8.13444e-11
8.20634e-12
-8.63654e-11
8.59305e-12
-9.16135e-11
8.99355e-12
-9.70979e-11
9.41115e-12
-1.02827e-10
9.84381e-12
-1.0881e-10
1.02947e-11
-1.15057e-10
1.07622e-11
-1.21575e-10
1.12456e-11
-1.28376e-10
1.17495e-11
-1.35468e-10
1.22673e-11
-1.42862e-10
1.28033e-11
-1.50569e-10
1.33586e-11
-1.58597e-10
1.39288e-11
-1.66952e-10
1.45125e-11
-1.75642e-10
1.51096e-11
-1.84671e-10
1.57172e-11
-1.94045e-10
1.63372e-11
-2.03769e-10
1.69669e-11
-2.13848e-10
1.76069e-11
-2.24288e-10
1.82588e-11
-2.35093e-10
1.89217e-11
-2.46268e-10
1.95957e-11
-2.57818e-10
2.02813e-11
-2.69747e-10
2.0979e-11
-2.82061e-10
2.16894e-11
-2.94765e-10
2.24144e-11
-3.07866e-10
2.3154e-11
-3.21368e-10
2.39087e-11
-3.35278e-10
2.46805e-11
-3.49604e-10
2.54704e-11
-3.64353e-10
2.62788e-11
-3.79531e-10
2.71057e-11
-3.95146e-10
2.79527e-11
-4.11208e-10
2.88218e-11
-4.27726e-10
2.97141e-11
-4.44707e-10
3.06291e-11
-4.62163e-10
3.15652e-11
-4.80101e-10
3.25244e-11
-4.98532e-10
3.35051e-11
-5.17462e-10
3.45042e-11
-5.36897e-10
3.55183e-11
-5.56839e-10
3.65458e-11
-5.7729e-10
3.75842e-11
-5.9825e-10
3.86259e-11
-6.19716e-10
3.96657e-11
-6.41681e-10
4.06996e-11
-6.64136e-10
4.17179e-11
-6.87063e-10
4.2711e-11
-7.10443e-10
4.36675e-11
-7.34248e-10
4.45779e-11
-7.58444e-10
4.54283e-11
-7.82986e-10
4.62007e-11
-8.07818e-10
4.68737e-11
-8.32877e-10
4.74304e-11
-8.5808e-10
4.78407e-11
-8.83335e-10
4.80812e-11
-9.08535e-10
4.81247e-11
-9.33548e-10
4.79264e-11
-9.58235e-10
4.74801e-11
-9.82404e-10
4.66895e-11
-1.00581e-09
4.55051e-11
-1.02804e-09
4.36233e-11
4.09475e-11
-1.04849e-09
-4.31773e-13
3.66463e-13
-1.52935e-12
1.80514e-12
-2.75223e-12
2.14691e-12
-4.02639e-12
2.27501e-12
-5.31842e-12
2.33519e-12
-6.62123e-12
2.39232e-12
-7.93454e-12
2.46257e-12
-9.26233e-12
2.54717e-12
-1.06094e-11
2.64577e-12
-1.19805e-11
2.75943e-12
-1.33808e-11
2.88951e-12
-1.4816e-11
3.03681e-12
-1.62923e-11
3.20168e-12
-1.7816e-11
3.38511e-12
-1.93947e-11
3.58838e-12
-2.10361e-11
3.81131e-12
-2.27487e-11
4.05515e-12
-2.45414e-11
4.31994e-12
-2.6423e-11
4.60511e-12
-2.84023e-11
4.91092e-12
-3.04877e-11
5.23569e-12
-3.26875e-11
5.57852e-12
-3.5009e-11
5.93893e-12
-3.74596e-11
6.31488e-12
-4.00458e-11
6.70597e-12
-4.27746e-11
7.11269e-12
-4.56514e-11
7.5323e-12
-4.86828e-11
7.96677e-12
-5.18746e-11
8.41504e-12
-5.52325e-11
8.87679e-12
-5.87625e-11
9.3528e-12
-6.24698e-11
9.84169e-12
-6.63603e-11
1.03458e-11
-7.04388e-11
1.08636e-11
-7.47111e-11
1.13971e-11
-7.91832e-11
1.19452e-11
-8.38618e-11
1.2512e-11
-8.87539e-11
1.30986e-11
-9.38679e-11
1.37072e-11
-9.92121e-11
1.43379e-11
-1.04797e-10
1.4996e-11
-1.1063e-10
1.56772e-11
-1.16723e-10
1.63877e-11
-1.23086e-10
1.71249e-11
-1.29727e-10
1.78866e-11
-1.36658e-10
1.86812e-11
-1.43891e-10
1.95005e-11
-1.51435e-10
2.03481e-11
-1.59303e-10
2.12263e-11
-1.67501e-10
2.21271e-11
-1.76037e-10
2.30487e-11
-1.84918e-10
2.39906e-11
-1.9415e-10
2.49495e-11
-2.03739e-10
2.59269e-11
-2.13693e-10
2.69203e-11
-2.24015e-10
2.79288e-11
-2.3471e-10
2.89546e-11
-2.45786e-10
2.99971e-11
-2.57245e-10
3.10549e-11
-2.69093e-10
3.21291e-11
-2.81335e-10
3.32208e-11
-2.93975e-10
3.43299e-11
-3.0702e-10
3.54591e-11
-3.20474e-10
3.66085e-11
-3.34344e-10
3.77785e-11
-3.48635e-10
3.89716e-11
-3.63354e-10
4.01894e-11
-3.78507e-10
4.14319e-11
-3.94101e-10
4.26994e-11
-4.10143e-10
4.39947e-11
-4.26641e-10
4.532e-11
-4.43604e-10
4.66771e-11
-4.61041e-10
4.80659e-11
-4.78961e-10
4.94852e-11
-4.97373e-10
5.0936e-11
-5.16283e-10
5.24156e-11
-5.35699e-10
5.39203e-11
-5.55626e-10
5.54455e-11
-5.76068e-10
5.69877e-11
-5.97026e-10
5.85415e-11
-6.18499e-10
6.00996e-11
-6.40485e-10
6.1651e-11
-6.62976e-10
6.31908e-11
-6.85963e-10
6.47043e-11
-7.09431e-10
6.61784e-11
-7.3336e-10
6.75964e-11
-7.57724e-10
6.89415e-11
-7.82486e-10
7.01905e-11
-8.07602e-10
7.1316e-11
-8.33015e-10
7.2287e-11
-8.58658e-10
7.30728e-11
-8.84451e-10
7.36339e-11
-9.10299e-10
7.39298e-11
-9.36093e-10
7.39186e-11
-9.61703e-10
7.35355e-11
-9.86973e-10
7.27507e-11
-1.0117e-09
7.14127e-11
-1.03558e-09
6.93864e-11
-1.05809e-09
6.61377e-11
6.13795e-11
-1.07852e-09
-5.58103e-13
9.24535e-13
-1.7506e-12
2.99763e-12
-3.12452e-12
3.52082e-12
-4.54079e-12
3.6913e-12
-5.97571e-12
3.77019e-12
-7.42023e-12
3.83696e-12
-8.87334e-12
3.91584e-12
-1.03377e-11
4.01169e-12
-1.18173e-11
4.12548e-12
-1.33164e-11
4.25864e-12
-1.48399e-11
4.41297e-12
-1.63933e-11
4.59029e-12
-1.79831e-11
4.79146e-12
-1.96155e-11
5.01748e-12
-2.12975e-11
5.27039e-12
-2.3037e-11
5.5509e-12
-2.48421e-11
5.86023e-12
-2.67211e-11
6.19903e-12
-2.86828e-11
6.56679e-12
-3.0735e-11
6.96327e-12
-3.28865e-11
7.38719e-12
-3.5145e-11
7.83699e-12
-3.75179e-11
8.31183e-12
-4.00128e-11
8.80968e-12
-4.26367e-11
9.32971e-12
-4.53958e-11
9.87167e-12
-4.82973e-11
1.04337e-11
-5.13471e-11
1.10163e-11
-5.45513e-11
1.1619e-11
-5.79155e-11
1.22408e-11
-6.14452e-11
1.28823e-11
-6.51463e-11
1.35427e-11
-6.90239e-11
1.42233e-11
-7.3084e-11
1.49236e-11
-7.73318e-11
1.56449e-11
-8.17742e-11
1.63877e-11
-8.64178e-11
1.71557e-11
-9.12706e-11
1.79515e-11
-9.63399e-11
1.87766e-11
-1.01637e-10
1.96348e-11
-1.07168e-10
2.05273e-11
-1.12945e-10
2.1454e-11
-1.18978e-10
2.24208e-11
-1.25276e-10
2.34232e-11
-1.31852e-10
2.44633e-11
-1.38717e-10
2.55462e-11
-1.45882e-10
2.66661e-11
-1.53358e-10
2.78246e-11
-1.61154e-10
2.90218e-11
-1.69277e-10
3.02509e-11
-1.77738e-10
3.15104e-11
-1.86545e-10
3.27974e-11
-1.95704e-10
3.41087e-11
-2.05222e-10
3.54451e-11
-2.15105e-10
3.68036e-11
-2.2536e-10
3.8183e-11
-2.35991e-10
3.95854e-11
-2.47003e-10
4.10098e-11
-2.58403e-10
4.24548e-11
-2.70195e-10
4.39216e-11
-2.82384e-10
4.54095e-11
-2.94976e-10
4.69219e-11
-3.07977e-10
4.84594e-11
-3.21391e-10
5.0023e-11
-3.35226e-10
5.16136e-11
-3.49488e-10
5.32339e-11
-3.64185e-10
5.48857e-11
-3.79322e-10
5.65689e-11
-3.94907e-10
5.82847e-11
-4.10949e-10
6.00367e-11
-4.27457e-10
6.18276e-11
-4.44439e-10
6.36592e-11
-4.61905e-10
6.55316e-11
-4.79864e-10
6.74449e-11
-4.98327e-10
6.93983e-11
-5.173e-10
7.13886e-11
-5.36791e-10
7.34118e-11
-5.56808e-10
7.54627e-11
-5.77356e-10
7.75355e-11
-5.98437e-10
7.96223e-11
-6.20052e-10
8.17141e-11
-6.42199e-10
8.37985e-11
-6.64875e-10
8.58657e-11
-6.88068e-10
8.78977e-11
-7.11767e-10
8.98768e-11
-7.35952e-10
9.17812e-11
-7.60598e-10
9.35876e-11
-7.85671e-10
9.52633e-11
-8.11127e-10
9.67719e-11
-8.36911e-10
9.8071e-11
-8.62957e-10
9.91178e-11
-8.89184e-10
9.98616e-11
-9.15499e-10
1.00245e-10
-9.41791e-10
1.0021e-10
-9.67927e-10
9.96707e-11
-9.93745e-10
9.85685e-11
-1.01903e-09
9.66958e-11
-1.04345e-09
9.38066e-11
-1.06644e-09
8.91329e-11
8.21987e-11
-1.08726e-09
-5.95099e-13
1.51962e-12
-1.84746e-12
4.25002e-12
-3.27319e-12
4.94657e-12
-4.74574e-12
5.16387e-12
-6.23796e-12
5.26248e-12
-7.74004e-12
5.33916e-12
-9.25073e-12
5.42667e-12
-1.07721e-11
5.53321e-12
-1.23076e-11
5.66113e-12
-1.38615e-11
5.81257e-12
-1.54383e-11
5.98985e-12
-1.70436e-11
6.19558e-12
-1.86835e-11
6.43142e-12
-2.03647e-11
6.69866e-12
-2.2094e-11
6.99968e-12
-2.38793e-11
7.33627e-12
-2.57288e-11
7.70964e-12
-2.76502e-11
8.12046e-12
-2.9652e-11
8.56859e-12
-3.17423e-11
9.05353e-12
-3.39294e-11
9.57427e-12
-3.62213e-11
1.01288e-11
-3.86252e-11
1.07157e-11
-4.11487e-11
1.13332e-11
-4.37989e-11
1.19798e-11
-4.65821e-11
1.26548e-11
-4.95054e-11
1.33569e-11
-5.25747e-11
1.40855e-11
-5.57956e-11
1.48397e-11
-5.91741e-11
1.56192e-11
-6.27146e-11
1.64228e-11
-6.64237e-11
1.72517e-11
-7.03054e-11
1.8105e-11
-7.43663e-11
1.89844e-11
-7.86112e-11
1.98898e-11
-8.30476e-11
2.0824e-11
-8.76813e-11
2.17895e-11
-9.25213e-11
2.27914e-11
-9.75742e-11
2.38296e-11
-1.02851e-10
2.49112e-11
-1.08359e-10
2.60358e-11
-1.14109e-10
2.72041e-11
-1.20112e-10
2.84236e-11
-1.26377e-10
2.96887e-11
-1.32917e-10
3.10036e-11
-1.39743e-10
3.2372e-11
-1.46865e-10
3.37888e-11
-1.54296e-10
3.52555e-11
-1.62042e-10
3.6769e-11
-1.70115e-10
3.83241e-11
-1.78524e-10
3.99191e-11
-1.87275e-10
4.15494e-11
-1.96378e-10
4.32117e-11
-2.05839e-10
4.49063e-11
-2.15665e-10
4.66288e-11
-2.2586e-10
4.83786e-11
-2.36432e-10
5.0157e-11
-2.47385e-10
5.1963e-11
-2.58725e-10
5.37946e-11
-2.70457e-10
5.56531e-11
-2.82585e-10
5.75383e-11
-2.95116e-10
5.94525e-11
-3.08055e-10
6.1398e-11
-3.21407e-10
6.33759e-11
-3.35181e-10
6.53876e-11
-3.49383e-10
6.74359e-11
-3.6402e-10
6.95227e-11
-3.791e-10
7.16482e-11
-3.9463e-10
7.38152e-11
-4.10621e-10
7.60279e-11
-4.27083e-10
7.82889e-11
-4.44023e-10
8.05999e-11
-4.61453e-10
8.29616e-11
-4.79383e-10
8.5374e-11
-4.97821e-10
8.78363e-11
-5.16777e-10
9.03446e-11
-5.3626e-10
9.28953e-11
-5.56279e-10
9.54813e-11
-5.76839e-10
9.80957e-11
-5.97943e-10
1.00727e-10
-6.19597e-10
1.03368e-10
-6.41802e-10
1.06003e-10
-6.64551e-10
1.08615e-10
-6.87837e-10
1.11184e-10
-7.11648e-10
1.13687e-10
-7.35968e-10
1.16101e-10
-7.60771e-10
1.18391e-10
-7.86025e-10
1.20517e-10
-8.11688e-10
1.22435e-10
-8.3771e-10
1.24092e-10
-8.64024e-10
1.25432e-10
-8.90555e-10
1.26392e-10
-9.17207e-10
1.26897e-10
-9.43867e-10
1.26871e-10
-9.70401e-10
1.26205e-10
-9.96641e-10
1.24808e-10
-1.02237e-09
1.22421e-10
-1.04722e-09
1.1866e-10
-1.07061e-09
1.12524e-10
1.03246e-10
-1.09166e-09
-6.04545e-13
2.12418e-12
-1.88256e-12
5.52809e-12
-3.33003e-12
6.39409e-12
-4.82135e-12
6.65524e-12
-6.33328e-12
6.77448e-12
-7.85572e-12
6.8617e-12
-9.38716e-12
6.95824e-12
-1.09293e-11
7.07552e-12
-1.24852e-11
7.21709e-12
-1.40587e-11
7.38615e-12
-1.56546e-11
7.58578e-12
-1.72782e-11
7.81922e-12
-1.89357e-11
8.089e-12
-2.0634e-11
8.39697e-12
-2.23799e-11
8.74563e-12
-2.41813e-11
9.13761e-12
-2.60461e-11
9.57442e-12
-2.79824e-11
1.00567e-11
-2.99987e-11
1.05848e-11
-3.21032e-11
1.1158e-11
-3.43039e-11
1.17748e-11
-3.66091e-11
1.24339e-11
-3.90262e-11
1.31327e-11
-4.15624e-11
1.38693e-11
-4.42254e-11
1.46427e-11
-4.70213e-11
1.54507e-11
-4.99569e-11
1.62925e-11
-5.30385e-11
1.71669e-11
-5.62709e-11
1.8072e-11
-5.96603e-11
1.90084e-11
-6.3211e-11
1.99735e-11
-6.69286e-11
2.09693e-11
-7.08179e-11
2.19943e-11
-7.48843e-11
2.30508e-11
-7.91334e-11
2.41389e-11
-8.3572e-11
2.52625e-11
-8.8207e-11
2.64245e-11
-9.30454e-11
2.76298e-11
-9.80961e-11
2.88802e-11
-1.03368e-10
3.01828e-11
-1.08869e-10
3.15371e-11
-1.14611e-10
3.29463e-11
-1.20603e-10
3.44156e-11
-1.26855e-10
3.59409e-11
-1.33381e-10
3.75296e-11
-1.40189e-10
3.91809e-11
-1.47293e-10
4.08929e-11
-1.54703e-10
4.26658e-11
-1.62428e-10
4.44944e-11
-1.70478e-10
4.63741e-11
-1.78861e-10
4.83027e-11
-1.87586e-10
5.0275e-11
-1.96662e-10
5.22876e-11
-2.06095e-10
5.43392e-11
-2.15892e-10
5.64257e-11
-2.26059e-10
5.85455e-11
-2.36601e-10
6.06992e-11
-2.47524e-10
6.2886e-11
-2.58833e-10
6.51031e-11
-2.70532e-10
6.7352e-11
-2.82626e-10
6.9633e-11
-2.95121e-10
7.19474e-11
-3.08022e-10
7.42993e-11
-3.21336e-10
7.669e-11
-3.3507e-10
7.91215e-11
-3.49231e-10
8.15969e-11
-3.63826e-10
8.41182e-11
-3.78865e-10
8.66865e-11
-3.94355e-10
8.93054e-11
-4.10307e-10
9.19797e-11
-4.2673e-10
9.47118e-11
-4.43634e-10
9.75038e-11
-4.61029e-10
1.00357e-10
-4.78926e-10
1.03271e-10
-4.97334e-10
1.06245e-10
-5.16265e-10
1.09275e-10
-5.35729e-10
1.12359e-10
-5.55733e-10
1.15485e-10
-5.76284e-10
1.18647e-10
-5.9739e-10
1.21832e-10
-6.19054e-10
1.25032e-10
-6.41279e-10
1.28227e-10
-6.64061e-10
1.31397e-10
-6.87394e-10
1.34517e-10
-7.11268e-10
1.37561e-10
-7.35667e-10
1.405e-10
-7.60568e-10
1.43291e-10
-7.85939e-10
1.45888e-10
-8.11742e-10
1.48237e-10
-8.37926e-10
1.50277e-10
-8.64432e-10
1.51938e-10
-8.91182e-10
1.53142e-10
-9.18083e-10
1.53799e-10
-9.45023e-10
1.5381e-10
-9.71868e-10
1.5305e-10
-9.98448e-10
1.51388e-10
-1.02453e-09
1.48508e-10
-1.04976e-09
1.43885e-10
-1.0735e-09
1.36265e-10
1.24588e-10
-1.09484e-09
-6.04183e-13
2.7284e-12
-1.89162e-12
6.81562e-12
-3.34624e-12
7.84878e-12
-4.84234e-12
8.1514e-12
-6.35867e-12
8.29089e-12
-7.88552e-12
8.38865e-12
-9.42133e-12
8.49418e-12
-1.09677e-11
8.62197e-12
-1.25272e-11
8.77673e-12
-1.41038e-11
8.9628e-12
-1.57021e-11
9.18417e-12
-1.73275e-11
9.44468e-12
-1.89861e-11
9.74771e-12
-2.06848e-11
1.00957e-11
-2.24305e-11
1.04913e-11
-2.42312e-11
1.09382e-11
-2.60953e-11
1.14384e-11
-2.80308e-11
1.1992e-11
-3.0046e-11
1.25999e-11
-3.21498e-11
1.32615e-11
-3.435e-11
1.39749e-11
-3.66546e-11
1.47384e-11
-3.90718e-11
1.55498e-11
-4.16087e-11
1.64061e-11
-4.42726e-11
1.73066e-11
-4.70705e-11
1.82485e-11
-5.00083e-11
1.92302e-11
-5.30922e-11
2.02508e-11
-5.63276e-11
2.13073e-11
-5.97192e-11
2.24001e-11
-6.32728e-11
2.3527e-11
-6.69922e-11
2.46888e-11
-7.0883e-11
2.58852e-11
-7.49497e-11
2.71175e-11
-7.91988e-11
2.8388e-11
-8.36355e-11
2.96991e-11
-8.82685e-11
3.10574e-11
-9.31033e-11
3.24644e-11
-9.81494e-11
3.39262e-11
-1.03416e-10
3.54489e-11
-1.0891e-10
3.70316e-11
-1.14644e-10
3.86802e-11
-1.20626e-10
4.03982e-11
-1.26868e-10
4.21832e-11
-1.33383e-10
4.40442e-11
-1.40179e-10
4.5978e-11
-1.4727e-10
4.79839e-11
-1.54665e-10
5.00613e-11
-1.62375e-10
5.22047e-11
-1.7041e-10
5.4409e-11
-1.78778e-10
5.66711e-11
-1.87488e-10
5.89854e-11
-1.96548e-10
6.13481e-11
-2.05966e-10
6.3757e-11
-2.15748e-10
6.62071e-11
-2.25899e-10
6.86969e-11
-2.36426e-10
7.12258e-11
-2.47332e-10
7.37923e-11
-2.58624e-10
7.63942e-11
-2.70304e-10
7.90325e-11
-2.82379e-10
8.17076e-11
-2.94853e-10
8.44215e-11
-3.07732e-10
8.71783e-11
-3.21022e-10
8.99806e-11
-3.34732e-10
9.28311e-11
-3.48867e-10
9.57327e-11
-3.63437e-10
9.8688e-11
-3.7845e-10
1.01699e-10
-3.93913e-10
1.04768e-10
-4.09836e-10
1.07904e-10
-4.26231e-10
1.11107e-10
-4.43107e-10
1.1438e-10
-4.60475e-10
1.17725e-10
-4.78346e-10
1.21142e-10
-4.96731e-10
1.2463e-10
-5.15641e-10
1.28185e-10
-5.35085e-10
1.31803e-10
-5.55074e-10
1.35474e-10
-5.75615e-10
1.39188e-10
-5.96718e-10
1.42935e-10
-6.18385e-10
1.46699e-10
-6.4062e-10
1.50462e-10
-6.63421e-10
1.54198e-10
-6.86785e-10
1.57881e-10
-7.10703e-10
1.61479e-10
-7.35161e-10
1.64958e-10
-7.60137e-10
1.68267e-10
-7.85602e-10
1.71353e-10
-8.11517e-10
1.74152e-10
-8.37835e-10
1.76595e-10
-8.64498e-10
1.786e-10
-8.91431e-10
1.80076e-10
-9.18546e-10
1.80913e-10
-9.45732e-10
1.80996e-10
-9.72857e-10
1.80175e-10
-9.9975e-10
1.78281e-10
-1.02618e-09
1.74942e-10
-1.05178e-09
1.69481e-10
-1.0759e-09
1.60389e-10
1.46313e-10
-1.09763e-09
-5.99741e-13
3.3282e-12
-1.88921e-12
8.10521e-12
-3.34423e-12
9.30389e-12
-4.84014e-12
9.64739e-12
-6.35553e-12
9.80637e-12
-7.88087e-12
9.91409e-12
-9.41443e-12
1.00279e-11
-1.09576e-11
1.01653e-11
-1.25132e-11
1.03323e-11
-1.40848e-11
1.05345e-11
-1.56773e-11
1.07768e-11
-1.72962e-11
1.10636e-11
-1.89473e-11
1.13989e-11
-2.06377e-11
1.17861e-11
-2.23747e-11
1.22283e-11
-2.41662e-11
1.27296e-11
-2.6021e-11
1.3293e-11
-2.79473e-11
1.39182e-11
-2.99533e-11
1.46056e-11
-3.20478e-11
1.53558e-11
-3.42393e-11
1.61662e-11
-3.65356e-11
1.70346e-11
-3.8945e-11
1.79591e-11
-4.14751e-11
1.89363e-11
-4.41329e-11
1.99644e-11
-4.69253e-11
2.10409e-11
-4.98586e-11
2.21634e-11
-5.29379e-11
2.33301e-11
-5.61696e-11
2.4539e-11
-5.95573e-11
2.57878e-11
-6.3107e-11
2.70767e-11
-6.68223e-11
2.84041e-11
-7.07084e-11
2.97713e-11
-7.47696e-11
3.11788e-11
-7.90125e-11
3.26308e-11
-8.34426e-11
3.4129e-11
-8.80673e-11
3.56819e-11
-9.28934e-11
3.72904e-11
-9.79296e-11
3.89622e-11
-1.03184e-10
4.07031e-11
-1.08666e-10
4.25142e-11
-1.14387e-10
4.44011e-11
-1.20355e-10
4.63666e-11
-1.26584e-10
4.84117e-11
-1.33083e-10
5.05433e-11
-1.39864e-10
5.27599e-11
-1.4694e-10
5.50598e-11
-1.5432e-10
5.74416e-11
-1.62014e-10
5.98995e-11
-1.70033e-10
6.24286e-11
-1.78387e-10
6.50249e-11
-1.87084e-10
6.76823e-11
-1.96131e-10
7.0396e-11
-2.05537e-10
7.31629e-11
-2.15307e-10
7.59769e-11
-2.25447e-10
7.88365e-11
-2.35962e-10
8.17406e-11
-2.46856e-10
8.46864e-11
-2.58134e-10
8.76727e-11
-2.69802e-10
9.07001e-11
-2.81863e-10
9.37681e-11
-2.94322e-10
9.68806e-11
-3.07185e-10
1.00041e-10
-3.20459e-10
1.03254e-10
-3.3415e-10
1.06522e-10
-3.48267e-10
1.09849e-10
-3.62816e-10
1.13238e-10
-3.77806e-10
1.16689e-10
-3.93246e-10
1.20209e-10
-4.09147e-10
1.23804e-10
-4.25517e-10
1.27478e-10
-4.4237e-10
1.31232e-10
-4.59715e-10
1.3507e-10
-4.77564e-10
1.38991e-10
-4.95928e-10
1.42993e-10
-5.14817e-10
1.47075e-10
-5.34244e-10
1.51229e-10
-5.54218e-10
1.55448e-10
-5.74749e-10
1.59719e-10
-5.95846e-10
1.64031e-10
-6.17514e-10
1.68367e-10
-6.39755e-10
1.72703e-10
-6.62572e-10
1.77014e-10
-6.85961e-10
1.8127e-10
-7.09917e-10
1.85435e-10
-7.34426e-10
1.89466e-10
-7.59468e-10
1.93309e-10
-7.85018e-10
1.96902e-10
-8.11038e-10
2.00172e-10
-8.37484e-10
2.03041e-10
-8.64298e-10
2.05415e-10
-8.91412e-10
2.07189e-10
-9.18737e-10
2.08239e-10
-9.46168e-10
2.08427e-10
-9.73574e-10
2.07581e-10
-1.00079e-09
2.05498e-10
-1.02759e-09
2.01741e-10
-1.0536e-09
1.95485e-10
-1.07815e-09
1.84949e-10
1.68496e-10
-1.10034e-09
-5.93436e-13
3.9217e-12
-1.88116e-12
9.39308e-12
-3.33363e-12
1.07565e-11
-4.82777e-12
1.11416e-11
-6.34009e-12
1.13188e-11
-7.86136e-12
1.14355e-11
-9.3897e-12
1.15563e-11
-1.09265e-11
1.17022e-11
-1.24745e-11
1.18804e-11
-1.40374e-11
1.20974e-11
-1.56201e-11
1.23596e-11
-1.72281e-11
1.26717e-11
-1.88675e-11
1.30383e-11
-2.0545e-11
1.34637e-11
-2.22689e-11
1.39521e-11
-2.4047e-11
1.45077e-11
-2.58878e-11
1.51336e-11
-2.78001e-11
1.58302e-11
-2.97922e-11
1.65974e-11
-3.18727e-11
1.74361e-11
-3.40506e-11
1.83439e-11
-3.63343e-11
1.93181e-11
-3.87314e-11
2.03561e-11
-4.12503e-11
2.14551e-11
-4.3898e-11
2.2612e-11
-4.66806e-11
2.38235e-11
-4.96051e-11
2.50879e-11
-5.26763e-11
2.64012e-11
-5.59e-11
2.77627e-11
-5.92804e-11
2.91683e-11
-6.2822e-11
3.06184e-11
-6.65292e-11
3.21114e-11
-7.04062e-11
3.36484e-11
-7.44585e-11
3.52311e-11
-7.86906e-11
3.68629e-11
-8.311e-11
3.85482e-11
-8.77225e-11
4.02942e-11
-9.25352e-11
4.2103e-11
-9.75565e-11
4.39834e-11
-1.02795e-10
4.59411e-11
-1.0826e-10
4.79796e-11
-1.13962e-10
5.01033e-11
-1.19911e-10
5.23163e-11
-1.2612e-10
5.4621e-11
-1.32601e-10
5.70237e-11
-1.39363e-10
5.95227e-11
-1.4642e-10
6.21171e-11
-1.53782e-10
6.48036e-11
-1.61458e-10
6.75766e-11
-1.69461e-10
7.04312e-11
-1.77798e-10
7.33627e-11
-1.8648e-10
7.63643e-11
-1.95514e-10
7.94302e-11
-2.04908e-10
8.2556e-11
-2.14665e-10
8.57346e-11
-2.24794e-10
8.89646e-11
-2.35297e-10
9.22439e-11
-2.4618e-10
9.55698e-11
-2.57448e-10
9.89402e-11
-2.69103e-10
1.02356e-10
-2.81152e-10
1.05817e-10
-2.93597e-10
1.09326e-10
-3.06446e-10
1.1289e-10
-3.19705e-10
1.16513e-10
-3.3338e-10
1.20198e-10
-3.47479e-10
1.23948e-10
-3.62007e-10
1.27766e-10
-3.76975e-10
1.31656e-10
-3.92392e-10
1.35626e-10
-4.08269e-10
1.39681e-10
-4.24617e-10
1.43825e-10
-4.41446e-10
1.48061e-10
-4.58768e-10
1.52392e-10
-4.76594e-10
1.56817e-10
-4.94936e-10
1.61335e-10
-5.13806e-10
1.65944e-10
-5.33214e-10
1.70637e-10
-5.53173e-10
1.75407e-10
-5.73693e-10
1.80239e-10
-5.94782e-10
1.8512e-10
-6.16447e-10
1.90033e-10
-6.38695e-10
1.94951e-10
-6.61527e-10
1.99846e-10
-6.84941e-10
2.04685e-10
-7.08933e-10
2.09427e-10
-7.33493e-10
2.14026e-10
-7.58601e-10
2.18418e-10
-7.84235e-10
2.22535e-10
-8.1036e-10
2.26298e-10
-8.36937e-10
2.29617e-10
-8.6391e-10
2.32388e-10
-8.91213e-10
2.34492e-10
-9.18762e-10
2.35788e-10
-9.46456e-10
2.36122e-10
-9.7417e-10
2.35295e-10
-1.00174e-09
2.33069e-10
-1.02895e-09
2.28947e-10
-1.05541e-09
2.21945e-10
-1.08046e-09
2.10001e-10
1.91165e-10
-1.10313e-09
-5.86098e-13
4.50789e-12
-1.8701e-12
1.06772e-11
-3.31866e-12
1.22052e-11
-4.81076e-12
1.26339e-11
-6.31928e-12
1.28275e-11
-7.83536e-12
1.29517e-11
-9.35702e-12
1.30781e-11
-1.08856e-11
1.3231e-11
-1.24241e-11
1.34189e-11
-1.39761e-11
1.36495e-11
-1.55466e-11
1.39301e-11
-1.71413e-11
1.42665e-11
-1.87663e-11
1.46633e-11
-2.04285e-11
1.51259e-11
-2.21362e-11
1.56598e-11
-2.38981e-11
1.62694e-11
-2.57221e-11
1.69574e-11
-2.7617e-11
1.77248e-11
-2.95921e-11
1.85723e-11
-3.16559e-11
1.94995e-11
-3.38171e-11
2.05049e-11
-3.60849e-11
2.15857e-11
-3.84671e-11
2.27382e-11
-4.09717e-11
2.39597e-11
-4.36062e-11
2.52465e-11
-4.63768e-11
2.6594e-11
-4.92899e-11
2.8001e-11
-5.2351e-11
2.94624e-11
-5.55644e-11
3.0976e-11
-5.8935e-11
3.25389e-11
-6.24662e-11
3.41496e-11
-6.61629e-11
3.5808e-11
-7.00283e-11
3.75138e-11
-7.40687e-11
3.92715e-11
-7.82881e-11
4.10821e-11
-8.26935e-11
4.29534e-11
-8.72902e-11
4.48907e-11
-9.20858e-11
4.68983e-11
-9.70884e-11
4.89858e-11
-1.02305e-10
5.11581e-11
-1.07748e-10
5.34226e-11
-1.13429e-10
5.57837e-11
-1.19356e-10
5.82443e-11
-1.25544e-10
6.08083e-11
-1.32001e-10
6.34816e-11
-1.38741e-10
6.6263e-11
-1.45776e-10
6.91521e-11
-1.53116e-10
7.2144e-11
-1.60772e-10
7.52332e-11
-1.68755e-10
7.84146e-11
-1.77075e-10
8.16828e-11
-1.85741e-10
8.50298e-11
-1.9476e-10
8.84493e-11
-2.04139e-10
9.19353e-11
-2.13884e-10
9.54797e-11
-2.24e-10
9.90808e-11
-2.34492e-10
1.02736e-10
-2.45364e-10
1.06442e-10
-2.5662e-10
1.10196e-10
-2.68264e-10
1.14e-10
-2.803e-10
1.17853e-10
-2.92733e-10
1.21759e-10
-3.05567e-10
1.25725e-10
-3.1881e-10
1.29757e-10
-3.3247e-10
1.33857e-10
-3.46549e-10
1.38027e-10
-3.61056e-10
1.42273e-10
-3.76001e-10
1.46601e-10
-3.91395e-10
1.5102e-10
-4.07248e-10
1.55534e-10
-4.2357e-10
1.60148e-10
-4.40374e-10
1.64865e-10
-4.5767e-10
1.69688e-10
-4.75471e-10
1.74618e-10
-4.93789e-10
1.79653e-10
-5.12636e-10
1.84791e-10
-5.32025e-10
1.90026e-10
-5.51966e-10
1.95348e-10
-5.72472e-10
2.00744e-10
-5.93553e-10
2.06201e-10
-6.15216e-10
2.11696e-10
-6.37468e-10
2.17203e-10
-6.60314e-10
2.22691e-10
-6.83753e-10
2.28124e-10
-7.07783e-10
2.33457e-10
-7.32395e-10
2.38637e-10
-7.57572e-10
2.43595e-10
-7.83295e-10
2.48258e-10
-8.09533e-10
2.52537e-10
-8.36249e-10
2.56333e-10
-8.63394e-10
2.59532e-10
-8.90902e-10
2.62001e-10
-9.18697e-10
2.63583e-10
-9.46681e-10
2.64106e-10
-9.74734e-10
2.63348e-10
-1.0027e-09
2.61036e-10
-1.03036e-09
2.56606e-10
-1.05733e-09
2.48918e-10
-1.08294e-09
2.35603e-10
2.14379e-10
-1.10615e-09
-5.78016e-13
5.086e-12
-1.85758e-12
1.1957e-11
-3.30148e-12
1.36492e-11
-4.79168e-12
1.41242e-11
-6.29611e-12
1.43321e-11
-7.80628e-12
1.4462e-11
-9.32038e-12
1.45923e-11
-1.08396e-11
1.47503e-11
-1.23672e-11
1.49465e-11
-1.3907e-11
1.51893e-11
-1.54637e-11
1.54868e-11
-1.7043e-11
1.58458e-11
-1.86514e-11
1.62718e-11
-2.02964e-11
1.67708e-11
-2.19859e-11
1.73492e-11
-2.37289e-11
1.80122e-11
-2.55339e-11
1.87621e-11
-2.74092e-11
1.95999e-11
-2.93645e-11
2.05274e-11
-3.1409e-11
2.15438e-11
-3.35512e-11
2.26469e-11
-3.58005e-11
2.38348e-11
-3.81653e-11
2.5103e-11
-4.06536e-11
2.64479e-11
-4.32727e-11
2.78655e-11
-4.60298e-11
2.9351e-11
-4.89297e-11
3.09009e-11
-5.19788e-11
3.25115e-11
-5.51806e-11
3.41778e-11
-5.85394e-11
3.58978e-11
-6.20589e-11
3.76691e-11
-6.57429e-11
3.9492e-11
-6.95957e-11
4.13665e-11
-7.36218e-11
4.32975e-11
-7.78263e-11
4.52863e-11
-8.22147e-11
4.73416e-11
-8.6793e-11
4.94687e-11
-9.1568e-11
5.16732e-11
-9.65478e-11
5.39655e-11
-1.01742e-10
5.63524e-11
-1.07162e-10
5.8842e-11
-1.12817e-10
6.14393e-11
-1.18719e-10
6.41467e-11
-1.2488e-10
6.69695e-11
-1.31311e-10
6.99133e-11
-1.38026e-10
7.29774e-11
-1.45035e-10
7.61615e-11
-1.5235e-10
7.94597e-11
-1.59984e-10
8.28665e-11
-1.67945e-10
8.63765e-11
-1.76246e-10
8.99833e-11
-1.84894e-10
9.36778e-11
-1.93896e-10
9.74521e-11
-2.03261e-10
1.013e-10
-2.12992e-10
1.05211e-10
-2.23096e-10
1.09184e-10
-2.33576e-10
1.13216e-10
-2.44436e-10
1.17302e-10
-2.5568e-10
1.2144e-10
-2.67311e-10
1.25631e-10
-2.79335e-10
1.29876e-10
-2.91754e-10
1.34178e-10
-3.04574e-10
1.38545e-10
-3.17802e-10
1.42984e-10
-3.31442e-10
1.47497e-10
-3.45499e-10
1.52085e-10
-3.59984e-10
1.56757e-10
-3.74905e-10
1.61523e-10
-3.90275e-10
1.6639e-10
-4.06102e-10
1.71361e-10
-4.22397e-10
1.76443e-10
-4.39173e-10
1.81641e-10
-4.56441e-10
1.86956e-10
-4.74214e-10
1.92391e-10
-4.92505e-10
1.97944e-10
-5.11327e-10
2.03613e-10
-5.30692e-10
2.09391e-10
-5.50614e-10
2.1527e-10
-5.71105e-10
2.21235e-10
-5.92175e-10
2.27271e-10
-6.13833e-10
2.33354e-10
-6.36089e-10
2.39459e-10
-6.58948e-10
2.4555e-10
-6.82413e-10
2.51588e-10
-7.06481e-10
2.57525e-10
-7.31147e-10
2.63303e-10
-7.56398e-10
2.68846e-10
-7.82216e-10
2.74076e-10
-8.08576e-10
2.78897e-10
-8.35444e-10
2.83201e-10
-8.62774e-10
2.86862e-10
-8.90507e-10
2.89734e-10
-9.1857e-10
2.91646e-10
-9.46872e-10
2.92407e-10
-9.75299e-10
2.91775e-10
-1.0037e-09
2.89439e-10
-1.03187e-09
2.84771e-10
-1.05941e-09
2.76465e-10
-1.08563e-09
2.6182e-10
2.38211e-10
-1.10946e-09
-5.69347e-13
5.65545e-12
-1.8447e-12
1.32325e-11
-3.28359e-12
1.50883e-11
-4.77184e-12
1.56127e-11
-6.27197e-12
1.58324e-11
-7.77564e-12
1.59659e-11
-9.28148e-12
1.60983e-11
-1.07907e-11
1.62596e-11
-1.23063e-11
1.64621e-11
-1.38325e-11
1.67155e-11
-1.5374e-11
1.70284e-11
-1.69362e-11
1.74081e-11
-1.85262e-11
1.78618e-11
-2.01519e-11
1.83964e-11
-2.18214e-11
1.90186e-11
-2.35433e-11
1.97339e-11
-2.53266e-11
2.05453e-11
-2.71803e-11
2.14534e-11
-2.91136e-11
2.24606e-11
-3.11362e-11
2.35663e-11
-3.32573e-11
2.47678e-11
-3.5486e-11
2.60634e-11
-3.78312e-11
2.74481e-11
-4.03015e-11
2.8918e-11
-4.29034e-11
3.04673e-11
-4.56447e-11
3.20922e-11
-4.85304e-11
3.37866e-11
-5.15656e-11
3.55467e-11
-5.47544e-11
3.73667e-11
-5.81001e-11
3.92434e-11
-6.16065e-11
4.11755e-11
-6.52766e-11
4.3162e-11
-6.91151e-11
4.52048e-11
-7.31259e-11
4.73082e-11
-7.73139e-11
4.94741e-11
-8.16839e-11
5.17113e-11
-8.62424e-11
5.40271e-11
-9.09968e-11
5.64274e-11
-9.59542e-11
5.89229e-11
-1.01124e-10
6.15219e-11
-1.06515e-10
6.42338e-11
-1.12142e-10
6.7066e-11
-1.18014e-10
7.0019e-11
-1.24145e-10
7.31006e-11
-1.30546e-10
7.63148e-11
-1.3723e-10
7.96619e-11
-1.4421e-10
8.31418e-11
-1.51498e-10
8.67478e-11
-1.59106e-10
9.04743e-11
-1.67044e-10
9.43148e-11
-1.75323e-10
9.8262e-11
-1.83951e-10
1.02306e-10
-1.92936e-10
1.06437e-10
-2.02284e-10
1.10648e-10
-2.12001e-10
1.14928e-10
-2.22091e-10
1.19275e-10
-2.32558e-10
1.23683e-10
-2.43405e-10
1.28149e-10
-2.54636e-10
1.32671e-10
-2.66254e-10
1.37249e-10
-2.78263e-10
1.41885e-10
-2.90667e-10
1.46581e-10
-3.03469e-10
1.51347e-10
-3.16674e-10
1.56189e-10
-3.30291e-10
1.61113e-10
-3.44326e-10
1.66121e-10
-3.58789e-10
1.7122e-10
-3.73688e-10
1.76421e-10
-3.89031e-10
1.81734e-10
-4.04831e-10
1.87161e-10
-4.21097e-10
1.9271e-10
-4.37843e-10
1.98387e-10
-4.55081e-10
2.04194e-10
-4.72824e-10
2.10134e-10
-4.91086e-10
2.16205e-10