/*--------------------------------*- C++ -*----------------------------------*\
| =========                 |                                                 |
| \\      /  F ield         | OpenFOAM: The Open Source CFD Toolbox           |
|  \\    /   O peration     | Version:  2.4.0                                 |
|   \\  /    A nd           | Web:      www.OpenFOAM.org                      |
|    \\/     M anipulation  |                                                 |
\*---------------------------------------------------------------------------*/
FoamFile
{
    version     2.0;
    format      ascii;
    class       volScalarField;
    location    "0.221";
    object      alpha.water;
}
// * * * * * * * * * * * * * * * * * * * * * * * * * * * * * * * * * * * * * //

dimensions      [0 0 0 0 0 0 0];

internalField   nonuniform List<scalar> 
10000
(
8.79414e-58
5.84535e-54
1.40141e-50
1.44737e-47
6.44329e-45
1.41742e-42
1.71163e-40
1.25261e-38
6.07567e-37
2.11287e-35
5.65775e-34
1.21443e-32
2.09682e-31
2.87979e-30
3.2157e-29
3.02e-28
2.48451e-27
1.77569e-26
1.1219e-25
6.30679e-25
3.13798e-24
1.40654e-23
5.76899e-23
2.18181e-22
7.55766e-22
2.37422e-21
6.62031e-21
1.58527e-20
3.04005e-20
4.00101e-20
3.54476e-20
2.11583e-20
8.74e-21
2.59676e-21
5.74231e-22
9.69385e-23
1.33824e-23
1.52512e-24
1.3807e-25
1.01431e-26
6.17598e-28
2.97287e-29
1.12306e-30
3.28945e-32
7.35772e-34
1.23239e-35
1.4946e-37
1.2796e-39
2.18345e-40
1.17812e-38
3.76326e-54
2.48504e-50
5.52083e-47
4.88871e-44
1.86432e-41
3.56897e-39
3.759e-37
2.42567e-35
1.05002e-33
3.28352e-32
7.95748e-31
1.55985e-29
2.47782e-28
3.14014e-27
3.22064e-26
2.74546e-25
2.0521e-24
1.33791e-23
7.58571e-23
3.8413e-22
1.73438e-21
7.03195e-21
2.61023e-20
8.95613e-20
2.84749e-19
8.29719e-19
2.16522e-18
4.88571e-18
8.9527e-18
1.20393e-17
1.16509e-17
8.16368e-18
4.21673e-18
1.66089e-18
5.24457e-19
1.39731e-19
3.25443e-20
6.58351e-21
1.13623e-21
1.63741e-22
1.93518e-23
1.83694e-24
1.37076e-25
7.82655e-27
3.3477e-28
1.0346e-29
2.20518e-31
9.701e-33
2.00113e-31
4.78402e-30
2.81784e-51
2.14315e-47
4.93581e-44
4.11764e-41
1.42754e-38
2.3842e-36
2.18507e-34
1.23881e-32
4.76666e-31
1.33577e-29
2.91409e-28
5.17633e-27
7.51872e-26
8.78051e-25
8.28295e-24
6.44987e-23
4.32737e-22
2.56797e-21
1.3162e-20
5.97521e-20
2.43126e-19
8.92847e-19
3.01367e-18
9.44731e-18
2.75683e-17
7.47161e-17
1.83838e-16
3.95613e-16
7.04973e-16
9.63049e-16
9.94896e-16
7.80424e-16
4.69477e-16
2.23714e-16
8.86677e-17
3.05557e-17
9.29913e-18
2.48084e-18
5.71175e-19
1.11305e-19
1.80117e-20
2.36584e-21
2.44808e-22
1.9238e-23
1.09943e-24
4.37464e-26
1.18904e-27
7.74817e-28
1.46801e-26
2.25319e-25
8.18004e-49
7.40148e-45
2.04613e-41
1.68517e-38
5.17445e-36
7.3598e-34
5.79291e-32
2.87289e-30
9.80575e-29
2.45714e-27
4.80882e-26
7.69975e-25
1.01629e-23
1.08696e-22
9.43123e-22
6.72405e-21
4.06547e-20
2.18339e-19
1.01849e-18
4.16312e-18
1.52534e-17
5.08447e-17
1.56506e-16
4.49979e-16
1.21159e-15
3.04869e-15
7.07557e-15
1.45769e-14
2.53718e-14
3.51151e-14
3.80345e-14
3.2413e-14
2.1836e-14
1.19429e-14
5.54451e-15
2.25467e-15
8.13463e-16
2.58704e-16
7.14966e-17
1.68846e-17
3.34106e-18
5.4008e-19
6.9115e-20
6.7038e-21
4.66192e-22
2.18559e-23
7.60949e-25
2.21079e-24
3.24734e-23
3.76831e-22
1.1472e-46
1.71373e-42
5.7777e-39
4.23162e-36
1.0793e-33
1.28384e-31
8.66905e-30
3.76362e-28
1.14008e-26
2.55491e-25
4.48081e-24
6.4451e-23
7.69224e-22
7.49601e-21
5.95704e-20
3.89523e-19
2.1371e-18
1.03602e-17
4.40197e-17
1.63154e-16
5.39393e-16
1.63385e-15
4.59962e-15
1.21656e-14
3.03184e-14
7.10287e-14
1.55024e-13
3.05659e-13
5.19736e-13
7.25529e-13
8.16884e-13
7.42035e-13
5.45282e-13
3.31503e-13
1.72571e-13
7.90839e-14
3.22931e-14
1.16926e-14
3.69642e-15
1.00156e-15
2.28612e-16
4.30031e-17
6.434e-18
7.32342e-19
5.95448e-20
3.18014e-21
1.55022e-22
8.58209e-22
1.04726e-20
1.00012e-19
1.25417e-44
3.81977e-40
1.15483e-36
6.83023e-34
1.41596e-31
1.41462e-29
8.23599e-28
3.13957e-26
8.45486e-25
1.69628e-23
2.66673e-22
3.43906e-21
3.69694e-20
3.26731e-19
2.3681e-18
1.41806e-17
7.09367e-17
3.11369e-16
1.20555e-15
4.06036e-15
1.21773e-14
3.35329e-14
8.65002e-14
2.10973e-13
4.87812e-13
1.06615e-12
2.18534e-12
4.11474e-12
6.81976e-12
9.56034e-12
1.11127e-11
1.06334e-11
8.37881e-12
5.53877e-12
3.15202e-12
1.58379e-12
7.11524e-13
2.84983e-13
1.00377e-13
3.0492e-14
7.81053e-15
1.65064e-15
2.80402e-16
3.64717e-17
3.39502e-18
2.04632e-19
1.34607e-20
9.03737e-20
9.64889e-19
7.99404e-18
1.42348e-42
6.75394e-38
1.5852e-34
7.39854e-32
1.25464e-29
1.06063e-27
5.34952e-26
1.79626e-24
4.30999e-23
7.75507e-22
1.09444e-20
1.26486e-19
1.22128e-18
9.74968e-18
6.41782e-17
3.50848e-16
1.60521e-15
6.40803e-15
2.26399e-14
6.94349e-14
1.89403e-13
4.74822e-13
1.12359e-12
2.53162e-12
5.4406e-12
1.11062e-11
2.13749e-11
3.82769e-11
6.16468e-11
8.63859e-11
1.03056e-10
1.03165e-10
8.61831e-11
6.09392e-11
3.73083e-11
2.02234e-11
9.82292e-12
4.27529e-12
1.64732e-12
5.52138e-13
1.57226e-13
3.69604e-14
6.98087e-15
1.02391e-15
1.08166e-16
7.40793e-18
5.69365e-19
3.7446e-18
3.63415e-17
2.71041e-16
2.22087e-40
8.71365e-36
1.5315e-32
5.6457e-30
7.90305e-28
5.68857e-26
2.49618e-24
7.40628e-23
1.58736e-21
2.56743e-20
3.26025e-19
3.38009e-18
2.92726e-17
2.10432e-16
1.25307e-15
6.23179e-15
2.60738e-14
9.50421e-14
3.07707e-13
8.61059e-13
2.13887e-12
4.88976e-12
1.06167e-11
2.21225e-11
4.42598e-11
8.44773e-11
1.52498e-10
2.58842e-10
4.02992e-10
5.61942e-10
6.85494e-10
7.14292e-10
6.27119e-10
4.69014e-10
3.05201e-10
1.76436e-10
9.17998e-11
4.29801e-11
1.79463e-11
6.57103e-12
2.06495e-12
5.40541e-13
1.13514e-13
1.85801e-14
2.227e-15
1.75112e-16
1.37053e-17
7.64076e-17
6.94885e-16
4.79906e-15
3.19225e-38
8.2183e-34
1.0755e-30
3.15139e-28
3.66935e-26
2.26093e-24
8.66411e-23
2.27821e-21
4.37285e-20
6.37427e-19
7.30482e-18
6.80961e-17
5.29028e-16
3.41839e-15
1.83541e-14
8.27311e-14
3.15905e-13
1.05567e-12
3.147e-12
8.05652e-12
1.82443e-11
3.80344e-11
7.57429e-11
1.46008e-10
2.72275e-10
4.86595e-10
8.24457e-10
1.32277e-09
1.97695e-09
2.73206e-09
3.4037e-09
3.67906e-09
3.3697e-09
2.63849e-09
1.8074e-09
1.10618e-09
6.1229e-10
3.07039e-10
1.38402e-10
5.52058e-11
1.90698e-11
5.55552e-12
1.31144e-12
2.39681e-13
3.26703e-14
2.98244e-15
2.24778e-16
8.91851e-16
7.79608e-15
5.10143e-14
3.47901e-36
5.78102e-32
5.63017e-29
1.32245e-26
1.28952e-24
6.83405e-23
2.29465e-21
5.361e-20
9.23732e-19
1.21677e-17
1.26245e-16
1.06173e-15
7.41218e-15
4.30417e-14
2.07963e-13
8.46774e-13
2.94283e-12
9.03666e-12
2.49424e-11
5.86133e-11
1.21205e-10
2.30229e-10
4.20138e-10
7.48771e-10
1.30237e-09
2.18248e-09
3.47263e-09
5.27005e-09
7.50585e-09
1.03027e-08
1.31828e-08
1.47911e-08
1.40283e-08
1.13512e-08
8.08052e-09
5.18533e-09
3.0383e-09
1.62861e-09
7.92382e-10
3.4474e-10
1.31277e-10
4.25487e-11
1.13533e-11
2.36393e-12
3.65373e-13
3.91704e-14
2.95933e-15
6.62599e-15
5.68281e-14
3.59434e-13
2.91392e-34
3.08391e-30
2.24298e-27
4.25847e-25
3.49991e-23
1.60236e-21
4.72768e-20
9.83402e-19
1.52404e-17
1.8184e-16
1.71348e-15
1.30523e-14
8.21409e-14
4.29297e-13
1.86622e-12
6.84899e-12
2.16022e-11
6.103e-11
1.56799e-10
3.39666e-10
6.42902e-10
1.11201e-09
1.85711e-09
3.05517e-09
4.9532e-09
7.78868e-09
1.16404e-08
1.67826e-08
2.26732e-08
3.16844e-08
4.25208e-08
4.98631e-08
4.86294e-08
3.98459e-08
2.88043e-08
1.90257e-08
1.16698e-08
6.65516e-09
3.49665e-09
1.66429e-09
7.01111e-10
2.54242e-10
7.6655e-11
1.84064e-11
3.28221e-12
4.13262e-13
3.42699e-14
3.41517e-14
2.8966e-13
1.8046e-12
1.89039e-32
1.26128e-28
6.90669e-26
1.06914e-23
7.45316e-22
2.96008e-20
7.6938e-19
1.42708e-17
1.99178e-16
2.15641e-15
1.85037e-14
1.2818e-13
7.30186e-13
3.44539e-12
1.35017e-11
4.46506e-11
1.27537e-10
3.31394e-10
7.96877e-10
1.59763e-09
2.77872e-09
4.37345e-09
6.68589e-09
1.01333e-08
1.52751e-08
2.24901e-08
3.14904e-08
4.31418e-08
5.45436e-08
8.27978e-08
1.18859e-07
1.43539e-07
1.43233e-07
1.18881e-07
8.62301e-08
5.75005e-08
3.62778e-08
2.17627e-08
1.22674e-08
6.3753e-09
2.98067e-09
1.21552e-09
4.15847e-10
1.14838e-10
2.41342e-11
3.56133e-12
3.48706e-13
1.36081e-13
1.09189e-12
6.82622e-12
9.49808e-31
3.98784e-27
1.66408e-24
2.11966e-22
1.26127e-20
4.3632e-19
1.0014e-17
1.65825e-16
2.08564e-15
2.05076e-14
1.60537e-13
1.01485e-12
5.25649e-12
2.24887e-11
7.9754e-11
2.38237e-10
6.16094e-10
1.46878e-09
3.32961e-09
6.20061e-09
9.94987e-09
1.42328e-08
1.99982e-08
2.78896e-08
3.8871e-08
5.31653e-08
6.91804e-08
8.85526e-08
8.36546e-08
2.01983e-07
2.8123e-07
2.72099e-07
2.20975e-07
2.28829e-07
1.90648e-07
1.38359e-07
9.25934e-08
5.85657e-08
3.51107e-08
1.97359e-08
1.01744e-08
4.66406e-09
1.82761e-09
5.81413e-10
1.43312e-10
2.53303e-11
2.98187e-12
5.17916e-13
3.18184e-12
2.03394e-11
3.66745e-29
9.81803e-26
3.16885e-23
3.35311e-21
1.71377e-19
5.18562e-18
1.05344e-16
1.55893e-15
1.76715e-14
1.57807e-13
1.12783e-12
6.52109e-12
3.08322e-11
1.20155e-10
3.87619e-10
1.05129e-09
2.46933e-09
5.38503e-09
1.1641e-08
2.02415e-08
2.98496e-08
3.87995e-08
5.05807e-08
6.49423e-08
8.28656e-08
1.03606e-07
1.2342e-07
1.42365e-07
1.73959e-07
2.35161e-07
3.81321e-07
1.94642e-06
4.40318e-06
1.9209e-06
8.78685e-07
4.21681e-07
2.39344e-07
1.43669e-07
8.62962e-08
5.06102e-08
2.8168e-08
1.43387e-08
6.39608e-09
2.3751e-09
6.86451e-10
1.45502e-10
2.06373e-11
2.44982e-12
7.44744e-12
4.94647e-11
1.07432e-27
1.89452e-24
4.80884e-22
4.2675e-20
1.88527e-18
5.01229e-17
9.03765e-16
1.19669e-14
1.22255e-13
9.90765e-13
6.46188e-12
3.41945e-11
1.47941e-10
5.27108e-10
1.55475e-09
3.85539e-09
8.2917e-09
1.65126e-08
3.48188e-08
5.72783e-08
7.56392e-08
8.95341e-08
1.10077e-07
1.3023e-07
1.49476e-07
1.66422e-07
1.79312e-07
1.83936e-07
1.81545e-07
1.81961e-07
1.19294e-06
1.12089e-05
1.38225e-05
1.18335e-05
1.84939e-06
6.41491e-07
3.57562e-07
2.33751e-07
1.54693e-07
9.95828e-08
6.11873e-08
3.48327e-08
1.7661e-08
7.61346e-09
2.62665e-09
6.6621e-10
1.15201e-10
1.35854e-11
1.47349e-11
1.01e-10
2.38009e-26
2.88284e-23
5.85416e-21
4.39734e-19
1.68998e-17
3.96822e-16
6.37361e-15
7.5645e-14
6.96577e-13
5.11745e-12
3.04111e-11
1.4711e-10
5.82567e-10
1.90061e-09
5.14236e-09
1.17342e-08
2.33971e-08
4.26472e-08
9.18883e-08
1.4926e-07
1.59288e-07
1.78331e-07
2.12123e-07
2.27901e-07
2.27736e-07
2.19603e-07
2.1903e-07
2.14657e-07
2.00552e-07
2.58324e-07
5.73816e-06
1.3904e-05
1.3912e-05
1.37165e-05
7.19539e-06
5.73008e-07
3.0177e-07
2.42726e-07
1.90425e-07
1.43011e-07
1.01413e-07
6.62435e-08
3.85697e-08
1.92538e-08
7.85068e-09
2.43004e-09
5.12981e-10
6.93261e-11
2.7513e-11
1.77173e-10
4.0493e-25
3.49013e-22
5.75586e-20
3.68877e-18
1.2411e-16
2.58886e-15
3.72163e-14
3.96944e-13
3.29689e-12
2.1935e-11
1.18477e-10
5.22452e-10
1.88993e-09
5.63951e-09
1.39971e-08
2.9477e-08
5.51028e-08
9.24915e-08
1.91959e-07
3.77849e-07
2.65081e-07
3.45139e-07
3.84612e-07
3.51753e-07
2.89658e-07
2.26164e-07
2.45644e-07
2.44316e-07
2.44544e-07
2.43615e-07
4.46819e-07
1.09455e-05
1.35513e-05
1.19835e-05
1.63924e-06
9.52802e-07
3.83526e-07
2.63484e-07
2.18087e-07
1.81525e-07
1.44601e-07
1.06584e-07
7.03197e-08
4.00857e-08
1.89448e-08
7.00617e-09
1.83895e-09
3.00304e-10
5.88609e-11
2.72241e-10
5.38022e-24
3.43713e-21
4.63481e-19
2.54391e-17
7.52781e-16
1.40243e-14
1.81413e-13
1.74475e-12
1.30843e-11
7.87703e-11
3.85541e-10
1.54382e-09
5.08288e-09
1.38302e-08
3.14052e-08
6.0962e-08
1.07122e-07
1.25121e-07
5.55069e-07
4.54435e-07
7.4884e-07
3.46754e-07
7.30823e-07
4.85113e-07
3.24409e-07
6.11002e-07
2.80495e-07
2.75128e-07
2.73971e-07
2.75191e-07
2.78537e-07
1.39079e-06
2.66902e-06
1.6575e-06
5.97473e-07
3.98813e-07
3.03449e-07
2.68041e-07
2.4479e-07
2.20382e-07
1.90491e-07
1.53569e-07
1.11935e-07
7.13374e-08
3.82697e-08
1.64618e-08
5.24808e-09
1.08518e-09
1.59709e-10
3.74637e-10
5.53931e-23
2.73889e-20
3.08456e-18
1.46749e-16
3.8453e-15
6.4243e-14
7.50052e-13
6.52201e-12
4.41878e-11
2.40312e-10
1.06216e-09
3.84558e-09
1.14744e-08
2.83612e-08
5.8733e-08
1.04762e-07
1.72064e-07
2.20385e-07
2.53278e-07
3.13992e-06
1.00144e-05
4.63783e-06
7.74049e-07
6.08263e-07
3.89402e-07
3.44668e-07
6.5876e-07
2.78988e-07
2.92691e-07
2.97942e-07
2.96971e-07
3.62261e-07
5.56534e-07
4.35325e-07
3.31458e-07
2.84585e-07
2.77146e-07
2.70907e-07
2.64897e-07
2.52631e-07
2.31516e-07
2.00147e-07
1.58308e-07
1.1093e-07
6.64213e-08
3.25344e-08
1.22384e-08
3.17023e-09
4.97007e-10
4.78937e-10
4.29536e-22
1.7273e-19
1.66683e-17
6.99534e-16
1.64584e-14
2.4957e-13
2.65911e-12
2.1106e-11
1.30037e-10
6.39637e-10
2.55137e-09
8.33076e-09
2.24363e-08
5.01471e-08
9.42928e-08
1.53915e-07
2.30977e-07
2.84288e-07
1.56344e-06
1.05537e-05
1.05438e-05
1.05471e-05
1.54333e-06
6.35059e-07
3.97008e-07
3.38346e-07
3.06618e-07
3.06027e-07
3.18958e-07
3.33579e-07
3.33213e-07
3.28597e-07
3.361e-07
3.32379e-07
3.11949e-07
6.13784e-07
2.88108e-07
2.9075e-07
3.1337e-07
2.98722e-07
2.67217e-07
2.40844e-07
2.02979e-07
1.54025e-07
1.01442e-07
5.56572e-08
2.41215e-08
7.55379e-09
1.48947e-09
6.12729e-10
2.52138e-21
8.51858e-19
7.19724e-17
2.70886e-15
5.79129e-14
8.03692e-13
7.86393e-12
5.73132e-11
3.23303e-10
1.45057e-09
5.26683e-09
1.56331e-08
3.8231e-08
7.77035e-08
1.33273e-07
1.99099e-07
2.7228e-07
3.51769e-07
6.15314e-07
6.13317e-06
1.05373e-05
7.1205e-06
6.75387e-07
4.95274e-07
3.9226e-07
3.51136e-07
3.31974e-07
3.19717e-07
3.57534e-07
4.02889e-07
4.05838e-07
3.89771e-07
3.80214e-07
3.789e-07
3.62498e-07
3.7579e-07
3.38894e-07
4.33475e-07
5.15509e-07
6.26935e-07
3.86094e-07
2.90946e-07
2.4278e-07
1.94753e-07
1.39223e-07
8.44517e-08
4.14179e-08
1.5294e-08
3.78372e-09
9.28644e-10
1.08558e-20
3.21919e-18
2.44011e-16
8.36258e-15
1.64309e-13
2.10678e-12
1.90941e-11
1.28937e-10
6.72787e-10
2.78474e-09
9.31401e-09
2.54689e-08
5.74038e-08
1.0752e-07
1.69964e-07
2.34309e-07
2.98672e-07
3.94917e-07
6.96939e-07
1.65766e-06
6.77746e-06
1.11626e-06
5.8578e-07
4.91968e-07
4.18403e-07
3.65152e-07
3.37483e-07
3.28549e-07
3.97051e-07
5.15756e-07
5.32842e-07
5.01385e-07
4.66747e-07
4.98035e-07
5.42854e-07
6.15713e-07
7.79521e-07
1.66181e-06
4.2641e-06
3.12498e-06
1.09721e-06
5.73878e-07
2.84804e-07
2.24013e-07
1.73539e-07
1.15863e-07
6.3625e-08
2.71734e-08
8.20191e-09
1.83778e-09
3.475e-20
9.28507e-18
6.45733e-16
2.05277e-14
3.76319e-13
4.51557e-12
3.83476e-11
2.42661e-10
1.18548e-09
4.58667e-09
1.43188e-08
3.65162e-08
7.66536e-08
1.33621e-07
1.97406e-07
2.5917e-07
3.26587e-07
4.12018e-07
4.92074e-07
5.26267e-07
1.21032e-06
5.72945e-07
5.31578e-07
5.97852e-07
4.3598e-07
3.62068e-07
3.33747e-07
3.3629e-07
3.45317e-07
5.36218e-07
5.96062e-07
6.13883e-07
5.64681e-07
5.11983e-07
4.913e-07
4.90379e-07
6.33617e-06
1.02087e-05
1.02018e-05
1.02023e-05
7.53699e-06
7.67716e-07
5.8721e-07
2.62968e-07
1.96822e-07
1.44705e-07
8.89082e-08
4.34424e-08
1.57089e-08
3.99064e-09
8.39636e-20
2.08649e-17
1.36321e-15
4.09475e-14
7.11392e-13
8.09959e-12
6.52928e-11
3.92212e-10
1.81825e-09
6.6673e-09
1.96778e-08
4.72971e-08
9.33891e-08
1.53553e-07
2.17516e-07
2.89469e-07
4.34935e-07
8.7917e-07
1.92555e-06
1.28993e-05
1.61516e-05
9.45174e-06
9.46234e-07
9.90562e-07
3.79555e-07
3.38154e-07
3.25638e-07
3.33377e-07
3.53178e-07
4.04756e-07
1.57134e-06
7.00236e-07
6.9677e-07
5.80813e-07
5.06458e-07
4.95514e-07
4.93344e-06
1.01639e-05
1.02013e-05
1.02017e-05
1.00401e-05
3.74231e-06
5.47838e-07
2.71844e-07
2.23218e-07
1.74828e-07
1.17355e-07
6.45095e-08
2.738e-08
8.34154e-09
1.56948e-19
3.72923e-17
2.3419e-15
6.76635e-14
1.13193e-12
1.24098e-11
9.62866e-11
5.56311e-10
2.47751e-09
8.70523e-09
2.45185e-08
5.6019e-08
1.05131e-07
1.65607e-07
2.30065e-07
3.17058e-07
5.50019e-07
1.44767e-06
1.85894e-05
2.49182e-05
2.49242e-05
2.49213e-05
1.05853e-05
3.16656e-07
3.17918e-07
3.21044e-07
3.21627e-07
3.31045e-07
3.74913e-07
5.04455e-07
5.26131e-07
9.94499e-07
9.14808e-07
6.11337e-07
5.38701e-07
8.43156e-07
1.18998e-06
1.7185e-06
6.17173e-06
1.02071e-05
1.02031e-05
8.26003e-06
1.24736e-06
3.34354e-07
2.5864e-07
2.09733e-07
1.50674e-07
9.15655e-08
4.46757e-08
1.633e-08
2.31062e-19
5.38037e-17
3.31405e-15
9.3801e-14
1.53309e-12
1.63913e-11
1.23772e-10
6.94303e-10
2.99448e-09
1.01646e-08
2.76021e-08
6.0788e-08
1.10434e-07
1.70733e-07
2.41949e-07
3.78154e-07
8.53149e-07
2.87997e-06
2.48877e-05
2.4916e-05
2.49135e-05
2.4918e-05
2.03704e-05
3.13837e-07
3.14001e-07
3.18517e-07
3.25679e-07
5.93979e-07
3.74123e-07
4.53241e-07
7.33e-07
1.41504e-06
2.24265e-06
4.90002e-07
4.89374e-07
5.22002e-07
5.36744e-07
7.02667e-07
9.88398e-07
1.59455e-06
1.22968e-06
2.2588e-06
2.55856e-06
4.89059e-07
3.3889e-07
2.59246e-07
1.92111e-07
1.2647e-07
6.95575e-08
2.99335e-08
2.70624e-19
6.32166e-17
3.89377e-15
1.09798e-13
1.78095e-12
1.88189e-11
1.39943e-10
7.70669e-10
3.2542e-09
1.07944e-08
2.86327e-08
6.17085e-08
1.10293e-07
1.69514e-07
2.42741e-07
3.92717e-07
9.45074e-07
3.20337e-06
2.45905e-05
2.4912e-05
2.49111e-05
2.49062e-05
1.72272e-05
3.13839e-07
3.19077e-07
3.30177e-07
3.47134e-07
3.51698e-07
3.90252e-07
4.41148e-07
5.57802e-07
6.47552e-07
5.45015e-07
6.05935e-07
3.84343e-07
3.83961e-07
3.72257e-07
3.82139e-07
4.34678e-07
5.42887e-07
5.588e-07
7.75552e-07
9.36344e-07
6.01104e-07
4.22994e-07
3.22007e-07
2.44187e-07
1.7123e-07
1.04188e-07
5.16214e-08
2.5333e-19
6.07667e-17
3.81619e-15
1.09029e-13
1.78201e-12
1.88794e-11
1.40093e-10
7.66753e-10
3.20815e-09
1.05276e-08
2.7639e-08
5.91387e-08
1.05441e-07
1.61501e-07
2.20725e-07
2.78582e-07
3.33003e-07
3.49018e-07
9.66938e-06
2.4912e-05
2.4919e-05
1.98555e-05
1.74675e-06
3.19453e-07
3.34369e-07
3.61355e-07
4.00448e-07
4.20575e-07
4.16155e-07
4.1712e-07
4.34515e-07
4.53813e-07
4.65605e-07
4.08664e-07
3.86132e-07
3.77001e-07
3.7011e-07
3.72735e-07
3.74433e-07
3.84527e-07
3.92494e-07
9.77999e-07
1.31581e-06
8.67697e-07
4.2607e-07
2.71489e-07
2.57092e-07
2.09773e-07
1.44881e-07
8.23834e-08
1.89572e-19
4.78669e-17
3.12771e-15
9.21426e-14
1.54175e-12
1.66226e-11
1.24902e-10
6.89203e-10
2.8979e-09
9.54478e-09
2.51721e-08
5.42761e-08
9.80066e-08
1.52729e-07
2.12625e-07
2.72531e-07
3.26385e-07
3.55952e-07
4.70702e-07
2.22218e-06
1.63839e-06
1.34165e-06
5.68588e-07
3.35361e-07
3.73e-07
4.31534e-07
4.98735e-07
5.13346e-07
4.68182e-07
4.27355e-07
4.3275e-07
4.61033e-07
3.91208e-07
3.89817e-07
3.47167e-07
7.00342e-07
3.63225e-07
4.45397e-07
3.58595e-07
3.55796e-07
3.49454e-07
3.08302e-07
2.48822e-06
3.27244e-06
3.29659e-06
2.12926e-06
2.54584e-07
1.82967e-07
1.71613e-07
1.16539e-07
1.12742e-19
3.08147e-17
2.14262e-15
6.63374e-14
1.15576e-12
1.28832e-11
9.95335e-11
5.62252e-10
2.4119e-09
8.08629e-09
2.17024e-08
4.76898e-08
8.79043e-08
1.39319e-07
1.92995e-07
2.33173e-07
2.4673e-07
6.58357e-07
3.23015e-07
4.09063e-07
3.93352e-07
4.08693e-07
3.53447e-07
3.7193e-07
4.46609e-07
5.43115e-07
6.06052e-07
6.48172e-07
5.21472e-07
4.27272e-07
4.27552e-07
4.41135e-07
4.37287e-07
3.98233e-07
3.37856e-07
3.4002e-07
3.61598e-07
3.66231e-07
5.46757e-07
3.26075e-07
3.21669e-07
2.61553e-07
2.43936e-07
2.43982e-07
2.30927e-06
2.96998e-06
2.96529e-06
1.14156e-06
1.41031e-07
1.29229e-07
5.25043e-20
1.60406e-17
1.2189e-15
4.05628e-14
7.50326e-13
8.79971e-12
7.10542e-11
4.17616e-10
1.85808e-09
6.44504e-09
1.78762e-08
4.06063e-08
7.74167e-08
1.27025e-07
1.83132e-07
2.34364e-07
2.67581e-07
2.84471e-07
5.91058e-07
3.12987e-07
3.20381e-07
3.28541e-07
3.32559e-07
4.13611e-07
4.93003e-07
5.05871e-07
1.32508e-06
9.07002e-07
3.8831e-06
8.99392e-06
7.60401e-06
1.76534e-06
4.52311e-07
3.93313e-07
3.45871e-07
3.60151e-07
3.67195e-07
3.66415e-07
3.93221e-07
4.86243e-07
3.40001e-07
2.75402e-07
2.5144e-07
2.51553e-07
2.47081e-07
2.74115e-07
2.47978e-06
2.75321e-06
1.49972e-06
1.16523e-07
1.93139e-20
6.77534e-18
5.76701e-16
2.10855e-14
4.22548e-13
5.31427e-12
4.5676e-11
2.84249e-10
1.33481e-09
4.87725e-09
1.42104e-08
3.37911e-08
6.71364e-08
1.14072e-07
1.69309e-07
2.23212e-07
2.63936e-07
2.83843e-07
2.8886e-07
3.12105e-07
3.16015e-07
3.25124e-07
6.92298e-07
4.06246e-07
5.16667e-07
5.80863e-07
5.9467e-07
1.02377e-05
3.871e-05
4.05196e-05
4.05204e-05
3.0359e-05
2.52703e-06
3.56e-07
3.59561e-07
3.99238e-07
4.18368e-07
4.18019e-07
5.31011e-07
6.97642e-07
4.28163e-07
3.17602e-07
2.86392e-07
2.69452e-07
2.54722e-07
2.66938e-07
2.64103e-07
1.24236e-06
1.68197e-06
1.13391e-06
5.64069e-21
2.33202e-18
2.27994e-16
9.37208e-15
2.07776e-13
2.85709e-12
2.66191e-11
1.78394e-10
8.97634e-10
3.50223e-09
1.08695e-08
2.74335e-08
5.74993e-08
1.02024e-07
1.5579e-07
2.08136e-07
2.49166e-07
2.73752e-07
2.75572e-07
3.07303e-07
3.10001e-07
3.16518e-07
3.34732e-07
4.04689e-07
4.50824e-07
4.377e-07
5.37151e-06
3.80956e-05
4.05105e-05
4.05138e-05
4.05175e-05
4.05199e-05
2.56361e-05
3.56006e-07
3.68199e-07
4.64515e-07
5.03245e-07
4.59526e-07
6.25941e-07
1.22356e-06
4.4371e-07
3.50202e-07
3.12259e-07
2.95892e-07
2.76643e-07
2.62244e-07
2.63704e-07
2.54989e-07
8.77347e-07
1.12434e-06
1.31916e-21
6.59264e-19
7.56037e-17
3.55545e-15
8.86769e-14
1.35662e-12
1.3949e-11
1.02426e-10
5.6103e-10
2.36946e-09
7.9204e-09
2.14194e-08
4.77738e-08
8.92657e-08
1.40942e-07
1.89215e-07
2.21605e-07
2.39497e-07
7.34955e-07
2.59832e-07
3.1474e-07
3.10012e-07
3.15995e-07
3.2574e-07
6.27626e-07
3.89062e-07
9.47772e-06
4.05056e-05
4.05066e-05
4.05052e-05
4.05162e-05
4.05197e-05
3.07743e-05
3.56027e-07
3.77886e-07
5.46482e-07
5.8667e-07
4.60205e-07
5.35464e-07
1.20603e-06
4.61868e-07
3.72827e-07
3.21296e-07
3.00617e-07
2.8415e-07
2.69027e-07
2.60409e-07
2.53897e-07
2.41672e-07
7.86617e-07
2.40617e-22
1.52046e-19
2.12217e-17
1.17301e-15
3.34735e-14
5.7502e-13
6.55866e-12
5.3116e-11
3.20178e-10
1.48281e-09
5.39552e-09
1.57797e-08
3.78916e-08
7.61576e-08
1.29692e-07
1.87197e-07
2.29482e-07
2.4922e-07
2.62201e-07
2.58067e-07
2.64677e-07
4.16627e-07
3.06295e-07
3.19716e-07
3.35327e-07
3.44506e-07
1.01483e-05
4.05031e-05
4.04985e-05
4.03337e-05
4.05082e-05
4.05136e-05
3.38817e-05
3.56187e-07
3.83247e-07
5.7197e-07
8.55335e-07
4.71584e-07
5.39526e-07
5.62587e-07
6.7707e-07
3.80397e-07
3.36631e-07
2.94316e-07
2.68016e-07
2.62493e-07
2.54486e-07
2.49775e-07
2.41114e-07
3.29152e-07
3.15114e-23
2.70418e-20
4.86928e-18
3.29431e-16
1.10632e-14
2.17584e-13
2.78762e-12
2.50013e-11
1.65162e-10
8.35276e-10
3.32637e-09
1.06308e-08
2.76896e-08
6.01427e-08
1.10616e-07
1.71992e-07
2.24783e-07
2.54825e-07
2.69651e-07
7.76743e-07
2.64452e-07
2.71194e-07
3.92048e-07
3.2917e-07
3.66552e-07
3.77627e-07
3.81742e-06
3.63173e-05
4.04987e-05
4.05007e-05
4.05051e-05
4.05046e-05
2.08337e-05
3.73792e-07
4.37098e-07
5.57289e-07
6.92748e-07
4.73633e-07
4.73779e-07
4.73875e-07
1.0206e-06
3.94975e-07
6.49665e-07
3.00971e-07
5.41106e-07
2.56186e-07
2.46136e-07
2.39486e-07
2.35911e-07
2.15565e-07
2.94472e-24
3.80693e-21
9.69911e-19
8.51166e-17
3.4615e-15
7.85451e-14
1.1231e-12
1.10024e-11
7.84765e-11
4.27815e-10
1.83984e-09
6.37534e-09
1.81813e-08
4.32636e-08
8.70364e-08
1.48737e-07
2.12104e-07
2.54583e-07
2.75583e-07
2.89565e-07
3.06182e-07
2.7181e-07
2.80071e-07
3.2023e-07
3.47349e-07
3.85269e-07
3.99215e-07
7.90869e-06
3.51989e-05
4.04592e-05
4.03609e-05
2.38031e-05
1.3275e-06
4.24385e-07
5.15413e-07
5.30192e-07
9.42325e-07
9.3169e-06
1.91498e-05
2.71747e-05
2.29101e-05
1.76962e-05
8.68288e-06
1.92314e-06
9.24656e-07
2.56581e-07
2.4412e-07
2.30858e-07
2.11355e-07
1.98857e-07
1.87186e-25
4.31107e-22
1.81042e-19
2.21668e-17
1.12535e-15
2.97783e-14
4.7557e-13
5.0527e-12
3.83078e-11
2.19024e-10
9.81341e-10
3.57245e-09
1.08233e-08
2.7661e-08
6.08808e-08
1.1574e-07
1.84749e-07
2.38397e-07
2.47063e-07
4.11852e-07
2.8596e-07
2.81605e-07
2.90649e-07
3.12117e-07
3.44354e-07
4.01732e-07
4.77078e-07
4.91668e-07
1.80458e-06
3.29669e-06
3.42979e-06
7.78331e-07
4.05703e-07
4.66354e-07
4.67306e-07
3.79141e-06
1.24831e-05
3.89338e-05
4.15059e-05
4.1575e-05
4.16123e-05
4.15709e-05
4.15824e-05
1.93161e-05
9.66065e-07
1.11127e-06
2.55271e-07
2.4717e-07
2.21299e-07
1.74015e-07
7.10844e-27
4.6044e-23
3.88978e-20
6.76767e-18
4.20319e-16
1.26519e-14
2.20613e-13
2.49676e-12
1.98406e-11
1.17507e-10
5.42038e-10
2.02834e-09
6.33103e-09
1.68894e-08
3.90799e-08
7.96098e-08
1.4191e-07
2.10375e-07
2.47886e-07
2.54782e-07
2.83387e-07
2.82556e-07
2.8722e-07
3.02594e-07
3.35246e-07
4.15102e-07
6.26461e-07
1.11939e-06
1.4777e-06
4.15287e-07
3.80244e-07
4.03672e-07
4.0922e-07
5.14572e-07
4.74115e-07
1.36169e-05
1.90981e-05
3.96997e-05
4.15363e-05
4.15097e-05
3.76337e-05
4.16105e-05
4.15206e-05
4.14027e-05
8.86727e-06
3.61022e-06
1.62599e-06
3.69134e-07
4.01843e-07
3.80453e-06
1.9606e-28
6.59193e-24
9.56052e-21
2.13693e-18
1.55025e-16
5.18971e-15
9.77307e-14
1.17316e-12
9.77891e-12
6.02916e-11
2.88335e-10
1.11487e-09
3.59324e-09
9.92043e-09
2.39025e-08
5.10088e-08
9.72074e-08
1.60958e-07
2.2094e-07
2.55623e-07
2.7862e-07
2.81105e-07
2.82053e-07
2.82495e-07
3.23246e-07
4.14918e-07
6.21926e-07
1.41541e-06
1.9077e-06
3.64057e-07
3.49603e-07
4.18458e-07
5.07146e-07
5.20027e-07
3.32825e-06
1.03569e-05
6.90541e-06
7.41069e-06
2.28862e-05
2.14663e-05
7.19369e-06
2.00216e-05
3.49599e-05
3.75662e-05
3.87235e-05
1.8917e-05
3.65395e-05
7.92956e-07
2.67785e-06
8.58328e-06
5.15133e-30
1.0217e-24
2.232e-21
6.21217e-19
5.20998e-17
1.932e-15
3.92475e-14
4.99716e-13
4.37248e-12
2.8141e-11
1.40316e-10
5.6476e-10
1.89506e-09
5.44252e-09
1.36635e-08
3.04286e-08
6.10125e-08
1.09232e-07
1.68928e-07
2.22167e-07
2.58307e-07
2.73265e-07
2.61575e-07
5.37557e-07
2.93434e-07
3.48749e-07
4.91206e-07
1.07333e-06
9.03142e-07
3.6132e-07
3.44482e-07
4.6926e-07
1.30761e-06
4.38882e-06
1.22921e-05
6.90542e-06
6.9051e-06
6.90528e-06
6.91364e-06
6.99468e-06
7.11066e-06
7.14803e-06
7.14485e-06
7.14423e-06
5.29816e-05
6.47203e-05
8.46067e-05
4.68579e-06
1.09331e-05
2.31632e-06
1.77419e-31
1.44333e-25
4.58568e-22
1.58486e-19
1.53342e-17
6.30293e-16
1.38369e-14
1.87189e-13
1.72302e-12
1.15999e-11
6.03438e-11
2.53811e-10
8.93103e-10
2.69252e-09
7.10542e-09
1.66161e-08
3.50044e-08
6.6633e-08
1.12872e-07
1.66458e-07
2.14468e-07
2.46924e-07
2.60336e-07
2.61201e-07
2.81848e-07
3.11851e-07
3.95412e-07
7.88925e-07
5.06845e-07
3.38664e-07
3.40747e-07
4.50233e-07
3.79091e-07
1.18521e-05
1.8396e-05
7.40382e-06
6.90671e-06
6.91236e-06
7.71954e-06
1.81374e-05
7.9871e-06
7.1549e-06
7.14415e-06
7.14584e-06
3.07523e-05
0.000107598
0.000133373
2.89584e-05
8.71481e-05
1.03994e-07
7.52947e-33
1.72459e-26
7.91035e-23
3.40764e-20
3.81727e-18
1.74076e-16
4.12415e-15
5.92628e-14
5.73668e-13
4.04802e-12
2.21045e-11
9.7634e-11
3.61198e-10
1.15295e-09
3.23009e-09
8.04989e-09
1.80161e-08
3.64524e-08
6.6671e-08
1.08542e-07
1.55856e-07
1.98985e-07
2.30694e-07
2.50527e-07
2.68797e-07
2.92397e-07
3.47427e-07
5.5327e-07
4.05446e-07
3.3353e-07
3.48367e-07
4.12249e-07
3.78114e-07
1.20393e-05
1.84142e-05
1.84075e-05
8.86735e-06
1.79229e-05
4.32192e-05
6.00498e-05
5.09326e-05
1.42448e-05
7.15906e-06
7.20331e-06
0.000108135
0.000108294
0.000109432
0.00137894
0.000606571
9.51525e-05
3.02474e-34
1.67649e-27
1.10142e-23
5.93093e-21
7.75099e-19
3.94307e-17
1.01091e-15
1.54208e-14
1.56688e-13
1.15317e-12
6.56124e-12
3.04064e-11
1.19431e-10
4.06363e-10
1.22247e-09
3.29105e-09
7.97676e-09
1.74664e-08
3.45962e-08
6.17503e-08
9.84808e-08
1.40185e-07
1.80196e-07
2.1369e-07
2.41367e-07
2.48389e-07
3.85699e-07
4.75237e-07
3.88485e-07
3.32434e-07
3.41963e-07
3.7662e-07
3.77507e-07
4.07426e-06
1.48482e-05
1.02843e-05
1.87613e-05
5.0935e-05
6.00807e-05
6.00629e-05
6.00398e-05
2.67589e-05
7.34022e-06
8.43784e-06
5.62067e-05
5.95391e-05
0.00171376
0.0321803
0.0998996
0.271508
1.00494e-35
1.28653e-28
1.22123e-24
8.14581e-22
1.22319e-19
6.9093e-18
1.93382e-16
3.1713e-15
3.41074e-14
2.62557e-13
1.54956e-12
7.43834e-12
3.04468e-11
1.10374e-10
3.59845e-10
1.06297e-09
2.85236e-09
6.93533e-09
1.52476e-08
3.01769e-08
5.3628e-08
8.54571e-08
1.2273e-07
1.61053e-07
1.97326e-07
2.21942e-07
2.76199e-07
3.25466e-07
3.31485e-07
3.2035e-07
3.35163e-07
3.68948e-07
4.10089e-07
4.10356e-07
7.94575e-07
8.47088e-06
2.10918e-05
2.02883e-05
1.63124e-05
6.03062e-05
5.56419e-05
1.50105e-05
8.27639e-06
8.74653e-06
8.87306e-06
0.000837224
0.0953171
0.289389
0.623702
0.903598
2.62978e-37
7.66297e-30
1.02336e-25
8.4307e-23
1.57101e-20
1.08961e-18
3.58173e-17
6.47317e-16
7.27661e-15
5.65125e-14
3.30776e-13
1.56414e-12
6.31134e-12
2.28654e-11
7.76815e-11
2.50361e-10
7.55297e-10
2.10043e-09
5.31454e-09
1.20798e-08
2.44927e-08
4.43146e-08
7.1973e-08
1.05994e-07
1.43778e-07
1.8052e-07
1.54812e-07
4.8946e-07
3.46905e-07
3.25461e-07
3.3131e-07
3.62666e-07
3.69515e-07
4.06788e-07
4.23033e-07
6.48696e-06
1.48721e-05
8.03555e-06
9.06879e-06
7.63178e-05
2.16706e-05
1.46987e-05
3.75519e-05
8.86026e-06
0.00059907
0.167911
0.521956
0.869859
0.996874
0.999956
5.32471e-39
3.80167e-31
1.72699e-26
5.3863e-23
2.25313e-20
2.30902e-18
8.64804e-17
1.53137e-15
1.52845e-14
9.75993e-14
4.38889e-13
1.50259e-12
4.1945e-12
1.01988e-11
2.31312e-11
5.4768e-11
1.48952e-10
4.45325e-10
1.32051e-09
3.61871e-09
8.81031e-09
1.88113e-08
3.54565e-08
5.98166e-08
9.16756e-08
1.29388e-07
1.5079e-07
1.51662e-07
4.61113e-07
3.37771e-07
3.3341e-07
3.63387e-07
8.26099e-07
7.76836e-07
4.68209e-07
9.6053e-07
2.08719e-06
2.24305e-06
3.2286e-05
7.63137e-05
2.75367e-05
1.47827e-05
3.81891e-05
0.00382362
0.216995
0.709423
0.973882
0.999579
0.999944
0.999997
2.0644e-40
1.56018e-30
2.44533e-25
7.18089e-22
2.43962e-19
2.07557e-17
6.68515e-16
1.05069e-14
9.55138e-14
5.66448e-13
2.39426e-12
7.71375e-12
1.99307e-11
4.27004e-11
7.68702e-11
1.18099e-10
1.59438e-10
2.07263e-10
3.33821e-10
8e-10
2.28431e-09
6.0831e-09
1.40008e-08
2.80546e-08
4.99458e-08
8.05682e-08
1.12644e-07
1.44645e-07
1.51118e-07
4.95058e-07
3.45509e-07
3.45796e-07
8.91316e-07
9.64663e-07
2.91219e-07
3.91904e-07
1.71616e-06
3.45117e-06
2.464e-05
7.63129e-05
4.03234e-05
2.68935e-05
3.26241e-05
0.217119
0.791925
0.998447
0.999762
0.999949
0.999994
1
8.97122e-39
4.14344e-29
3.86048e-24
7.99511e-21
2.1049e-18
1.47536e-16
4.09291e-15
5.73459e-14
4.77761e-13
2.65673e-12
1.0736e-11
3.3642e-11
8.59311e-11
1.8467e-10
3.3878e-10
5.36539e-10
7.42667e-10
9.07971e-10
9.8257e-10
9.64542e-10
1.03478e-09
1.76678e-09
4.3426e-09
1.05153e-08
2.24988e-08
4.26261e-08
7.03852e-08
1.04377e-07
1.45847e-07
1.7336e-07
4.54844e-07
3.76631e-07
4.18714e-07
4.53664e-07
2.63908e-07
1.0854e-06
6.46842e-06
2.23127e-05
2.26463e-05
2.5393e-05
5.58921e-05
3.30048e-05
0.172349
0.752792
0.998613
0.99978
0.999969
0.999994
0.999999
1
5.06738e-37
8.3447e-28
4.66616e-23
6.91011e-20
1.42562e-17
8.30384e-16
1.99661e-14
2.50335e-13
1.9137e-12
9.96239e-12
3.83107e-11