/*--------------------------------*- C++ -*----------------------------------*\
| =========                 |                                                 |
| \\      /  F ield         | OpenFOAM: The Open Source CFD Toolbox           |
|  \\    /   O peration     | Version:  2.4.0                                 |
|   \\  /    A nd           | Web:      www.OpenFOAM.org                      |
|    \\/     M anipulation  |                                                 |
\*---------------------------------------------------------------------------*/
FoamFile
{
    version     2.0;
    format      ascii;
    class       volVectorField;
    location    "0.234";
    object      U;
}
// * * * * * * * * * * * * * * * * * * * * * * * * * * * * * * * * * * * * * //

dimensions      [0 1 -1 0 0 0 0];

internalField   nonuniform List<vector> 
10000
(
(-1.81142e-06 1.84943e-06 0)
(-7.49938e-06 2.50424e-06 0)
(-1.28063e-05 2.12426e-06 0)
(-1.59704e-05 1.54377e-06 0)
(-1.66054e-05 1.04436e-06 0)
(-1.50763e-05 6.03109e-07 0)
(-1.1875e-05 2.70395e-07 0)
(-7.48521e-06 4.85706e-08 0)
(-2.45145e-06 -6.15213e-08 0)
(2.65033e-06 -5.53896e-08 0)
(7.22999e-06 7.01553e-08 0)
(1.07032e-05 3.15954e-07 0)
(1.25398e-05 6.77329e-07 0)
(1.22319e-05 1.10211e-06 0)
(9.37137e-06 1.60694e-06 0)
(3.71944e-06 2.15683e-06 0)
(-4.83565e-06 2.70914e-06 0)
(-1.62394e-05 3.22339e-06 0)
(-3.02682e-05 3.66329e-06 0)
(-4.6549e-05 4.00251e-06 0)
(-6.45827e-05 4.22631e-06 0)
(-8.38037e-05 4.32134e-06 0)
(-0.000103628 4.29208e-06 0)
(-0.000123477 4.14809e-06 0)
(-0.000142822 3.901e-06 0)
(-0.000161192 3.56489e-06 0)
(-0.000178187 3.15438e-06 0)
(-0.00019348 2.68367e-06 0)
(-0.000206825 2.16791e-06 0)
(-0.000218081 1.62719e-06 0)
(-0.000227244 1.09323e-06 0)
(-0.000234498 6.12731e-07 0)
(-0.000240243 2.38044e-07 0)
(-0.00024505 3.34233e-09 0)
(-0.000249535 -9.50885e-08 0)
(-0.000254232 -8.92372e-08 0)
(-0.00025953 -1.56574e-08 0)
(-0.000265695 9.99303e-08 0)
(-0.000272926 2.47502e-07 0)
(-0.000281418 4.29989e-07 0)
(-0.000291392 6.57613e-07 0)
(-0.000303114 9.41915e-07 0)
(-0.000316885 1.29077e-06 0)
(-0.000333014 1.70548e-06 0)
(-0.000351786 2.18021e-06 0)
(-0.000373422 2.70306e-06 0)
(-0.000398052 3.25708e-06 0)
(-0.000425693 3.82082e-06 0)
(-0.000456239 4.36892e-06 0)
(-0.000489462 4.87381e-06 0)
(-2.78731e-06 7.83029e-06 0)
(-1.16344e-05 1.06547e-05 0)
(-1.74971e-05 7.31366e-06 0)
(-1.7855e-05 2.58266e-06 0)
(-1.2296e-05 -1.87427e-06 0)
(-1.5319e-06 -5.60828e-06 0)
(1.33559e-05 -8.41144e-06 0)
(3.10489e-05 -1.01818e-05 0)
(5.01254e-05 -1.08484e-05 0)
(6.90924e-05 -1.03662e-05 0)
(8.64417e-05 -8.72763e-06 0)
(0.000100705 -5.97002e-06 0)
(0.000110495 -2.1865e-06 0)
(0.000114607 2.43961e-06 0)
(0.000112063 7.7242e-06 0)
(0.000102153 1.33867e-05 0)
(8.45379e-05 1.91087e-05 0)
(5.92849e-05 2.45607e-05 0)
(2.68783e-05 2.94321e-05 0)
(-1.18077e-05 3.34624e-05 0)
(-5.55721e-05 3.64666e-05 0)
(-0.000102994 3.83326e-05 0)
(-0.000152551 3.90444e-05 0)
(-0.000202735 3.86559e-05 0)
(-0.000252146 3.72734e-05 0)
(-0.000299566 3.50376e-05 0)
(-0.000343997 3.21056e-05 0)
(-0.000384681 2.8642e-05 0)
(-0.000421108 2.48263e-05 0)
(-0.000453037 2.08786e-05 0)
(-0.000480548 1.70955e-05 0)
(-0.00050414 1.38563e-05 0)
(-0.000524795 1.15454e-05 0)
(-0.000543889 1.03956e-05 0)
(-0.000562903 1.03775e-05 0)
(-0.000583115 1.12676e-05 0)
(-0.000605473 1.28069e-05 0)
(-0.000630666 1.4813e-05 0)
(-0.000659268 1.72178e-05 0)
(-0.000691863 2.00473e-05 0)
(-0.000729125 2.33742e-05 0)
(-0.000771816 2.72677e-05 0)
(-0.000820742 3.1756e-05 0)
(-0.000876669 3.68066e-05 0)
(-0.000940239 4.23235e-05 0)
(-0.00101188 4.81546e-05 0)
(-0.00109174 5.41046e-05 0)
(-0.0011797 5.99468e-05 0)
(-0.00127529 6.54373e-05 0)
(-0.00137776 7.03305e-05 0)
(-2.5418e-06 1.41592e-05 0)
(-9.02432e-06 1.68865e-05 0)
(-9.75229e-06 7.75639e-06 0)
(-2.44942e-06 -4.10555e-06 0)
(1.31047e-05 -1.5323e-05 0)
(3.58743e-05 -2.46855e-05 0)
(6.43318e-05 -3.16744e-05 0)
(9.66208e-05 -3.59595e-05 0)
(0.00013068 -3.7327e-05 0)
(0.000164327 -3.56698e-05 0)
(0.00019535 -3.09921e-05 0)
(0.000221584 -2.34158e-05 0)
(0.000240996 -1.31937e-05 0)
(0.000251779 -7.05329e-07 0)
(0.000252438 1.34958e-05 0)
(0.000241894 2.87265e-05 0)
(0.000219592 4.4201e-05 0)
(0.000185575 5.90808e-05 0)
(0.000140515 7.25509e-05 0)
(8.56822e-05 8.39e-05 0)
(2.28522e-05 9.25913e-05 0)
(-4.58561e-05 9.8303e-05 0)
(-0.000118155 0.000100952 0)
(-0.00019177 0.000100671 0)
(-0.000264614 9.77625e-05 0)
(-0.000334897 9.26352e-05 0)
(-0.000401198 8.57493e-05 0)
(-0.000462476 7.7578e-05 0)
(-0.000518063 6.8615e-05 0)
(-0.000567655 5.94291e-05 0)
(-0.000611371 5.07577e-05 0)
(-0.000649916 4.35372e-05 0)
(-0.000684752 3.87201e-05 0)
(-0.000718002 3.68746e-05 0)
(-0.000751952 3.78979e-05 0)
(-0.000788506 4.12154e-05 0)
(-0.000829017 4.62015e-05 0)
(-0.000874457 5.24488e-05 0)
(-0.000925672 5.98404e-05 0)
(-0.000983579 6.84762e-05 0)
(-0.00104926 7.85387e-05 0)
(-0.00112394 9.01665e-05 0)
(-0.00120888 0.000103368 0)
(-0.00130522 0.000117983 0)
(-0.00141389 0.000133691 0)
(-0.00153544 0.000150036 0)
(-0.00166997 0.000166459 0)
(-0.00181714 0.000182345 0)
(-0.00197612 0.000197052 0)
(-0.0021456 0.000209954 0)
(-1.94261e-06 1.84671e-05 0)
(-4.2271e-06 1.80244e-05 0)
(2.10493e-06 6.31888e-07 0)
(1.86224e-05 -2.04794e-05 0)
(4.50784e-05 -4.02762e-05 0)
(8.01079e-05 -5.68015e-05 0)
(0.000121849 -6.90734e-05 0)
(0.000168063 -7.64498e-05 0)
(0.000216239 -7.85097e-05 0)
(0.000263694 -7.50415e-05 0)
(0.000307672 -6.60425e-05 0)
(0.000345449 -5.17253e-05 0)
(0.000374431 -3.25344e-05 0)
(0.000392278 -9.16553e-06 0)
(0.000397024 1.74054e-05 0)
(0.00038723 4.59528e-05 0)
(0.000362122 7.50433e-05 0)
(0.000321708 0.000103134 0)
(0.000266823 0.000128705 0)
(0.000199105 0.000150411 0)
(0.000120859 0.000167224 0)
(3.48554e-05 0.000178523 0)
(-5.59302e-05 0.000184137 0)
(-0.000148561 0.000184318 0)
(-0.000240368 0.000179658 0)
(-0.000329123 0.000170962 0)
(-0.000413111 0.000159126 0)
(-0.000491125 0.000145051 0)
(-0.000562405 0.000129634 0)
(-0.000626564 0.000113863 0)
(-0.000683632 9.90313e-05 0)
(-0.000734356 8.68732e-05 0)
(-0.000780636 7.92422e-05 0)
(-0.000825507 7.72539e-05 0)
(-0.00087225 8.06253e-05 0)
(-0.000923391 8.81531e-05 0)
(-0.000980515 9.86357e-05 0)
(-0.00104466 0.000111373 0)
(-0.00111679 0.000126244 0)
(-0.00119805 0.000143516 0)
(-0.0012899 0.000163562 0)
(-0.00139402 0.000186623 0)
(-0.00151212 0.000212663 0)
(-0.00164575 0.000241314 0)
(-0.00179609 0.000271897 0)
(-0.0019638 0.000303488 0)
(-0.00214897 0.00033499 0)
(-0.00235101 0.000365213 0)
(-0.00256871 0.000392948 0)
(-0.00280024 0.000417033 0)
(-1.34179e-06 2.0103e-05 0)
(8.17671e-07 1.30455e-05 0)
(1.44804e-05 -1.49356e-05 0)
(4.03281e-05 -4.704e-05 0)
(7.75012e-05 -7.67605e-05 0)
(0.000124274 -0.000101452 0)
(0.000178489 -0.000119678 0)
(0.000237608 -0.000130451 0)
(0.000298793 -0.0001331 0)
(0.000358984 -0.000127264 0)
(0.000415001 -0.000112898 0)
(0.000463653 -9.02866e-05 0)
(0.000501846 -6.00692e-05 0)
(0.000526738 -2.32837e-05 0)
(0.000535893 1.86025e-05 0)
(0.000527484 6.37063e-05 0)
(0.000500484 0.000109795 0)
(0.000454828 0.000154432 0)
(0.000391503 0.00019519 0)
(0.000312515 0.000229901 0)
(0.000220729 0.000256899 0)
(0.00011959 0.000275185 0)
(1.27913e-05 0.000284494 0)
(-9.60681e-05 0.000285263 0)
(-0.000203781 0.0002785 0)
(-0.000307753 0.000265562 0)
(-0.000406096 0.000247928 0)
(-0.000497568 0.000227021 0)
(-0.000581425 0.000204162 0)
(-0.000657193 0.000180707 0)
(-0.000724608 0.000158513 0)
(-0.00078417 0.000140387 0)
(-0.000838173 0.000129645 0)
(-0.000890962 0.00012834 0)
(-0.000947262 0.000135765 0)
(-0.00101025 0.00014955 0)
(-0.00108143 0.000167594 0)
(-0.00116159 0.000188859 0)
(-0.00125158 0.000213357 0)
(-0.0013527 0.000241701 0)
(-0.00146682 0.000274595 0)
(-0.00159615 0.000312441 0)
(-0.00174292 0.000355124 0)
(-0.00190914 0.000401967 0)
(-0.0020963 0.00045179 0)
(-0.00230521 0.000503027 0)
(-0.00253591 0.000553862 0)
(-0.0027876 0.000602362 0)
(-0.0030587 0.000646593 0)
(-0.00334681 0.000684717 0)
(-8.27796e-07 1.91615e-05 0)
(5.43428e-06 2.10203e-06 0)
(2.60055e-05 -3.87392e-05 0)
(6.06471e-05 -8.34257e-05 0)
(0.000107869 -0.000124193 0)
(0.000165564 -0.000157831 0)
(0.000231298 -0.000182504 0)
(0.000302293 -0.000196888 0)
(0.000375461 -0.000200034 0)
(0.000447457 -0.000191388 0)
(0.000514759 -0.000170816 0)
(0.000573767 -0.000138623 0)
(0.000620923 -9.56165e-05 0)
(0.000652875 -4.31691e-05 0)
(0.000666681 1.67175e-05 0)
(0.000660055 8.1409e-05 0)
(0.000631643 0.000147721 0)
(0.000581244 0.000212118 0)
(0.000509969 0.000271025 0)
(0.000420231 0.000321224 0)
(0.000315535 0.000360239 0)
(0.000200112 0.000386611 0)
(7.84827e-05 0.000399987 0)
(-4.49979e-05 0.000401094 0)
(-0.000166552 0.000391536 0)
(-0.000283264 0.000373436 0)
(-0.000393199 0.000349053 0)
(-0.000495271 0.000320432 0)
(-0.000588964 0.000289281 0)
(-0.000673783 0.000257069 0)
(-0.000748855 0.000226001 0)
(-0.000813831 0.0002003 0)
(-0.000871229 0.000185787 0)
(-0.000927496 0.000186266 0)
(-0.000989708 0.000200045 0)
(-0.00106168 0.000222512 0)
(-0.00114425 0.000250157 0)
(-0.00123742 0.000281641 0)
(-0.00134164 0.00031742 0)
(-0.00145839 0.000358789 0)
(-0.00159007 0.000407005 0)
(-0.00173956 0.000462706 0)
(-0.00190982 0.000525657 0)
(-0.00210339 0.000594736 0)
(-0.00232216 0.000668082 0)
(-0.0025671 0.000743294 0)
(-0.00283822 0.000817651 0)
(-0.0031345 0.000888304 0)
(-0.00345395 0.000952443 0)
(-0.00379363 0.00100742 0)
(-3.99028e-07 1.59942e-05 0)
(9.39695e-06 -1.42122e-05 0)
(3.6088e-05 -7.00821e-05 0)
(7.86059e-05 -0.00012884 0)
(0.000134859 -0.000181678 0)
(0.00020238 -0.000224956 0)
(0.000278496 -0.000256524 0)
(0.000360245 -0.000274747 0)
(0.000444358 -0.000278385 0)
(0.000527277 -0.00026665 0)
(0.000605202 -0.000239251 0)
(0.000674171 -0.000196448 0)
(0.000730169 -0.000139141 0)
(0.000769303 -6.89964e-05 0)
(0.000788047 1.14465e-05 0)
(0.00078354 9.87311e-05 0)
(0.000753967 0.00018856 0)
(0.000698883 0.000276051 0)
(0.00061948 0.000356178 0)
(0.00051863 0.000424368 0)
(0.000400633 0.000477114 0)
(0.000270693 0.000512395 0)
(0.000134357 0.000529787 0)
(-3.07668e-06 0.000530458 0)
(-0.000137153 0.000516875 0)
(-0.000264651 0.000492254 0)
(-0.000383732 0.000459915 0)
(-0.000493754 0.000422698 0)
(-0.00059485 0.000382621 0)
(-0.00068679 0.000340683 0)
(-0.00076761 0.000298713 0)
(-0.000834867 0.000262675 0)
(-0.000890744 0.000242921 0)
(-0.000945309 0.000246767 0)
(-0.00100978 0.000270267 0)
(-0.00108841 0.000304393 0)
(-0.00118014 0.000343521 0)
(-0.00128334 0.000386314 0)
(-0.00139788 0.000434317 0)
(-0.00152551 0.000490066 0)
(-0.00166944 0.000555686 0)
(-0.00183357 0.000632129 0)
(-0.00202176 0.000718939 0)
(-0.00223728 0.000814361 0)
(-0.00248246 0.000915621 0)
(-0.00275847 0.00101926 0)
(-0.00306526 0.00112145 0)
(-0.00340155 0.00121824 0)
(-0.00376492 0.00130581 0)
(-0.00415187 0.00138055 0)
(-7.27263e-08 1.10151e-05 0)
(1.25844e-05 -3.51085e-05 0)
(4.43884e-05 -0.000107965 0)
(9.3551e-05 -0.000182147 0)
(0.000157479 -0.000247991 0)
(0.000233404 -0.000301567 0)
(0.000318478 -0.000340496 0)
(0.000409623 -0.000362868 0)
(0.000503464 -0.00036715 0)
(0.000596307 -0.000352272 0)
(0.000684142 -0.000317706 0)
(0.000762689 -0.000263557 0)
(0.000827479 -0.000190712 0)
(0.00087403 -0.00010103 0)
(0.000898112 2.45722e-06 0)
(0.000896122 0.000115428 0)
(0.000865572 0.000232305 0)
(0.000805589 0.000346561 0)
(0.000717358 0.0004513 0)
(0.000604292 0.000540171 0)
(0.000471704 0.000608334 0)
(0.000326053 0.000653088 0)
(0.000174209 0.000673943 0)
(2.27133e-05 0.000672719 0)
(-0.000123102 0.000653131 0)
(-0.000259684 0.000619967 0)
(-0.000385459 0.000578052 0)
(-0.00050059 0.000531363 0)
(-0.000606653 0.000482263 0)
(-0.00070452 0.000430151 0)
(-0.000790574 0.000374649 0)
(-0.000857753 0.000323451 0)
(-0.000906323 0.000295379 0)
(-0.000952909 0.00030519 0)
(-0.00101642 0.000343776 0)
(-0.00110065 0.000393295 0)
(-0.00120017 0.000445291 0)
(-0.00131058 0.000499405 0)
(-0.00143108 0.000559519 0)
(-0.00156416 0.00063026 0)
(-0.00171441 0.000714996 0)
(-0.00188715 0.000815002 0)
(-0.00208746 0.000929404 0)
(-0.00231948 0.00105552 0)
(-0.00258602 0.00118938 0)
(-0.00288843 0.00132619 0)
(-0.00322657 0.00146079 0)
(-0.00359885 0.00158797 0)
(-0.00400238 0.00170271 0)
(-0.00443306 0.00180033 0)
(1.51137e-07 4.65261e-06 0)
(1.49251e-05 -5.96405e-05 0)
(5.06379e-05 -0.000151132 0)
(0.00010493 -0.000241892 0)
(0.000174836 -0.000321562 0)
(0.000257379 -0.000386056 0)
(0.000349622 -0.000432852 0)
(0.000448458 -0.000459813 0)
(0.0005505 -0.000465104 0)
(0.000652012 -0.000447322 0)
(0.000748862 -0.000405601 0)
(0.000836513 -0.000339753 0)
(0.000910066 -0.000250478 0)
(0.000964398 -0.000139666 0)
(0.000994436 -1.07221e-05 0)
(0.00099559 0.000131177 0)
(0.000964399 0.000279022 0)
(0.000899247 0.00042427 0)
(0.00080114 0.000557584 0)
(0.000674123 0.000670215 0)
(0.000524862 0.000755561 0)
(0.000361437 0.000810115 0)
(0.000192443 0.000833291 0)
(2.61201e-05 0.000827814 0)
(-0.000130993 0.0007992 0)
(-0.000274944 0.000754493 0)
(-0.000404555 0.000700689 0)
(-0.000521127 0.000643573 0)
(-0.000628972 0.000586503 0)
(-0.000732116 0.000525352 0)
(-0.00082512 0.000453321 0)
(-0.000891529 0.000378564 0)
(-0.000925673 0.000335965 0)
(-0.000956272 0.000356519 0)
(-0.00101683 0.000419265 0)
(-0.00110801 0.000488714 0)
(-0.00121506 0.000553646 0)
(-0.00132965 0.000617202 0)
(-0.00145084 0.000687806 0)
(-0.00158292 0.000773309 0)
(-0.00173268 0.000878626 0)
(-0.00190746 0.00100518 0)
(-0.00211384 0.00115129 0)
(-0.00235691 0.00131294 0)
(-0.00263997 0.00148457 0)
(-0.00296446 0.00165975 0)
(-0.00333007 0.00183175 0)
(-0.00373483 0.00199391 0)
(-0.00417535 0.00213987 0)
(-0.0046469 0.00226375 0)
(2.71223e-07 -2.6366e-06 0)
(1.63574e-05 -8.67465e-05 0)
(5.45991e-05 -0.000198106 0)
(0.000112243 -0.000306316 0)
(0.0001861 -0.000400465 0)
(0.000273095 -0.000476432 0)
(0.000370305 -0.00053164 0)
(0.0004747 -0.00056377 0)
(0.000582995 -0.000570686 0)
(0.000691535 -0.000550595 0)
(0.000796191 -0.000502177 0)
(0.000892281 -0.000424769 0)
(0.000974537 -0.000318654 0)
(0.00103717 -0.000185499 0)
(0.00107411 -2.88592e-05 0)
(0.0010795 0.000145353 0)
(0.00104845 0.000328592 0)
(0.000978095 0.000509882 0)
(0.000868924 0.000676626 0)
(0.000725711 0.000816732 0)
(0.000556995 0.000921228 0)
(0.000372936 0.000985734 0)
(0.000184338 0.00100939 0)
(1.83625e-06 0.000996139 0)
(-0.000166334 0.000954057 0)
(-0.000315717 0.000893399 0)
(-0.00044557 0.000824176 0)
(-0.000558255 0.000755054 0)
(-0.000662507 0.000693057 0)
(-0.000769836 0.000628044 0)
(-0.00087462 0.000537306 0)
(-0.000942925 0.000424327 0)
(-0.000953936 0.000354712 0)
(-0.000958285 0.000395523 0)
(-0.00101688 0.000498402 0)
(-0.00112025 0.000592443 0)
(-0.00123538 0.000667176 0)
(-0.00134981 0.00073511 0)
(-0.00146459 0.000812657 0)
(-0.00158764 0.000911981 0)
(-0.00172908 0.00103945 0)
(-0.00189881 0.00119608 0)
(-0.00210507 0.00137875 0)
(-0.00235389 0.00158151 0)
(-0.00264892 0.00179674 0)
(-0.00299155 0.00201606 0)
(-0.00338119 0.00223092 0)
(-0.00381542 0.00243304 0)
(-0.00429027 0.00261461 0)
(-0.00480039 0.00276845 0)
(2.87624e-07 -1.03791e-05 0)
(1.68274e-05 -0.000115257 0)
(5.60593e-05 -0.000247206 0)
(0.000115038 -0.000373373 0)
(0.000190499 -0.000482418 0)
(0.000279392 -0.000570296 0)
(0.000378917 -0.000634463 0)
(0.00048624 -0.000672468 0)
(0.000598311 -0.000681883 0)
(0.000711716 -0.000660477 0)
(0.000822505 -0.000606353 0)
(0.000926026 -0.000518166 0)
(0.00101678 -0.000395489 0)
(0.00108836 -0.000239397 0)
(0.0011336 -5.32098e-05 0)
(0.00114502 0.000156719 0)
(0.00111574 0.000380363 0)
(0.0010408 0.000603896 0)
(0.000919494 0.000810267 0)
(0.000757416 0.00098253 0)
(0.000565859 0.00110846 0)
(0.000357566 0.00118302 0)
(0.000146052 0.00120453 0)
(-5.4562e-05 0.00117846 0)
(-0.000233624 0.00111658 0)
(-0.000386229 0.00103373 0)
(-0.00051215 0.000943637 0)
(-0.000613554 0.000858616 0)
(-0.000704177 0.000796516 0)
(-0.000810793 0.000741886 0)
(-0.000935083 0.00063559 0)
(-0.00101412 0.000458712 0)
(-0.000993258 0.00033548 0)
(-0.000960018 0.000417331 0)
(-0.00102386 0.000589734 0)
(-0.00114986 0.000709633 0)
(-0.00127223 0.000783703 0)
(-0.00137851 0.000846168 0)
(-0.00147657 0.00092531 0)
(-0.00158058 0.0010375 0)
(-0.00170495 0.00118953 0)
(-0.00186231 0.0013809 0)
(-0.00206247 0.00160607 0)
(-0.00231213 0.00185646 0)
(-0.00261505 0.00212189 0)
(-0.00297237 0.00239171 0)
(-0.00338305 0.00265536 0)
(-0.00384413 0.0029028 0)
(-0.00435107 0.0031247 0)
(-0.00489788 0.00331255 0)
(1.97055e-07 -1.80801e-05 0)
(1.62807e-05 -0.000143898 0)
(5.48299e-05 -0.000296556 0)
(0.000112913 -0.000440745 0)
(0.000187339 -0.000564792 0)
(0.000275194 -0.000664829 0)
(0.000373912 -0.000738433 0)
(0.000480969 -0.000783083 0)
(0.000593701 -0.000796094 0)
(0.000709122 -0.00077477 0)
(0.000823693 -0.000716539 0)
(0.000933054 -0.000619162 0)
(0.00103173 -0.000481155 0)
(0.0011129 -0.000302508 0)
(0.0011683 -8.57041e-05 0)
(0.00118855 0.000163067 0)
(0.00116402 0.00043267 0)
(0.00108634 0.000706219 0)
(0.000952274 0.000960443 0)
(0.000768268 0.00117095 0)
(0.00055001 0.00132095 0)
(0.000313229 0.00140593 0)
(7.44412e-05 0.00142182 0)
(-0.000146844 0.00137589 0)
(-0.000336499 0.00128549 0)
(-0.000489824 0.00117212 0)
(-0.000607885 0.00105332 0)
(-0.00069056 0.000943684 0)
(-0.000751262 0.000881901 0)
(-0.000837833 0.000864324 0)
(-0.000984779 0.000767793 0)
(-0.00109496 0.000488305 0)
(-0.00104298 0.000255244 0)
(-0.000967634 0.000421758 0)
(-0.00105568 0.000715363 0)
(-0.00121766 0.000845702 0)
(-0.00133724 0.000895135 0)
(-0.00141892 0.00093806 0)
(-0.00148564 0.0010138 0)
(-0.00155921 0.00113965 0)
(-0.00165777 0.00132059 0)
(-0.00179606 0.0015531 0)
(-0.00198497 0.00182812 0)
(-0.00223141 0.00213368 0)
(-0.00253887 0.00245664 0)
(-0.00290801 0.00278379 0)
(-0.00333718 0.00310249 0)
(-0.00382286 0.00340093 0)
(-0.0043599 0.00366824 0)
(-0.00494176 0.00389451 0)
(-6.04449e-09 -2.52234e-05 0)
(1.46713e-05 -0.000171303 0)
(5.07662e-05 -0.000344118 0)
(0.000105558 -0.000505874 0)
(0.000176061 -0.000644635 0)
(0.000259599 -0.000756794 0)
(0.000353922 -0.000840134 0)
(0.000456921 -0.000892155 0)
(0.000566461 -0.000909978 0)
(0.000680181 -0.000890479 0)
(0.000795231 -0.000830368 0)
(0.000907906 -0.000726345 0)
(0.00101319 -0.000575508 0)
(0.00110423 -0.000376153 0)
(0.00117196 -0.000129058 0)
(0.00120498 0.000160796 0)
(0.00119018 0.000482158 0)
(0.00111372 0.000815586 0)
(0.000967261 0.00112903 0)
(0.000757746 0.00138589 0)
(0.000508624 0.00156269 0)
(0.000238535 0.00165939 0)
(-3.3317e-05 0.00166535 0)
(-0.000278275 0.00158979 0)
(-0.00047723 0.00145903 0)
(-0.000627905 0.00130515 0)
(-0.000734711 0.00114738 0)
(-0.000796171 0.00100082 0)
(-0.000817159 0.000925256 0)
(-0.000838761 0.000956475 0)
(-0.000960844 0.000942772 0)
(-0.00112163 0.000547138 0)
(-0.00110249 8.66185e-05 0)
(-0.00104152 0.000428525 0)
(-0.00118528 0.000908544 0)
(-0.00136606 0.000982874 0)
(-0.00143716 0.00097302 0)
(-0.00146256 0.000988699 0)
(-0.00148102 0.00106312 0)
(-0.00151466 0.00120819 0)
(-0.00158116 0.00142543 0)
(-0.00169589 0.00170747 0)
(-0.00187014 0.00204098 0)
(-0.00211063 0.00241005 0)
(-0.00242026 0.00279827 0)
(-0.00279897 0.00318986 0)
(-0.00324444 0.00357006 0)
(-0.00375258 0.00392537 0)
(-0.00431779 0.00424344 0)
(-0.00493308 0.00451299 0)
(-3.26071e-07 -3.12693e-05 0)
(1.19782e-05 -0.00019604 0)
(4.38072e-05 -0.000387732 0)
(9.28217e-05 -0.000566021 0)
(0.000156354 -0.000718731 0)
(0.000232034 -0.000842575 0)
(0.000317976 -0.000935631 0)
(0.000412549 -0.000995525 0)
(0.000514245 -0.00101931 0)
(0.000621508 -0.00100357 0)
(0.000732467 -0.000944341 0)
(0.000844519 -0.00083723 0)
(0.000953715 -0.000677619 0)
(0.00105393 -0.000461449 0)
(0.00113595 -0.000186666 0)
(0.00118672 0.00014456 0)
(0.0011893 0.000522834 0)
(0.00112148 0.000928583 0)
(0.000964948 0.00131761 0)
(0.00072529 0.0016321 0)
(0.000440873 0.0018375 0)
(0.000132137 0.00194958 0)
(-0.000180424 0.00194013 0)
(-0.000451157 0.00182105 0)
(-0.000654738 0.00163399 0)
(-0.000797356 0.00143048 0)
(-0.000893523 0.00122469 0)
(-0.000941023 0.00102836 0)
(-0.000936322 0.00091153 0)
(-0.000871007 0.000934565 0)
(-0.000826345 0.00104408 0)
(-0.000919042 0.0006977 0)
(-0.00116927 0.000184535 0)
(-0.0014145 0.000542296 0)
(-0.00155023 0.0010839 0)
(-0.00156917 0.00101261 0)
(-0.00150522 0.00096237 0)
(-0.00145823 0.000977504 0)
(-0.00143249 0.00106572 0)
(-0.00143021 0.00123948 0)
(-0.00146599 0.00150152 0)
(-0.00155699 0.00184192 0)
(-0.00171582 0.00224275 0)
(-0.00194924 0.00268372 0)
(-0.00225959 0.0031449 0)
(-0.00264609 0.00360788 0)
(-0.00310577 0.00405596 0)
(-0.00363412 0.00447407 0)
(-0.00422529 0.00484851 0)
(-0.00487216 0.00516664 0)
(-7.66533e-07 -3.56708e-05 0)
(8.22521e-06 -0.00021666 0)
(3.40267e-05 -0.00042521 0)
(7.4805e-05 -0.000618379 0)
(0.000128303 -0.000783716 0)
(0.00019248 -0.000918285 0)
(0.000265808 -0.00102053 0)
(0.000347126 -0.00108835 0)
(0.000435572 -0.00111891 0)
(0.000530486 -0.00110871 0)
(0.000631213 -0.0010534 0)
(0.000736728 -0.000947633 0)
(0.000844937 -0.000784999 0)
(0.000951544 -0.00055853 0)
(0.00104852 -0.000262052 0)
(0.00112227 0.00010724 0)
(0.00115271 0.000544943 0)
(0.00110599 0.00103808 0)
(0.000946204 0.00152666 0)
(0.000669998 0.00191664 0)
(0.000344844 0.0021474 0)
(-9.61515e-06 0.00228468 0)
(-0.000373148 0.00225113 0)
(-0.000666406 0.00206768 0)
(-0.000860331 0.00180146 0)
(-0.000980786 0.00154585 0)
(-0.00106779 0.00129794 0)
(-0.00112334 0.00105347 0)
(-0.00114443 0.000889908 0)
(-0.0011289 0.000866731 0)
(-0.00112448 0.00107966 0)
(-0.0011395 0.000810718 0)
(-0.00127327 0.000499691 0)
(-0.00146641 0.000706936 0)
(-0.00151198 0.00115705 0)
(-0.00145149 0.000927002 0)
(-0.00138431 0.000895646 0)
(-0.00134794 0.000936827 0)
(-0.00131942 0.00104173 0)
(-0.00129832 0.00124336 0)
(-0.00130945 0.00155294 0)
(-0.00137875 0.00195788 0)
(-0.00152277 0.00243354 0)
(-0.00174888 0.00295396 0)
(-0.00205891 0.00349513 0)
(-0.00245137 0.00403595 0)
(-0.00292282 0.00455794 0)
(-0.00346857 0.00504469 0)
(-0.00408287 0.00548128 0)
(-0.00475883 0.00585379 0)
(-1.32074e-06 -3.79533e-05 0)
(3.50852e-06 -0.000231739 0)
(2.16847e-05 -0.000454449 0)
(5.19576e-05 -0.000660231 0)
(9.25493e-05 -0.000836268 0)
(0.000141719 -0.000979964 0)
(0.00019822 -0.00109019 0)
(0.000261257 -0.00116524 0)
(0.000330503 -0.00120264 0)
(0.000406126 -0.00119917 0)
(0.000488759 -0.00115052 0)
(0.000579299 -0.00105088 0)
(0.000678339 -0.000892436 0)
(0.000784889 -0.000665141 0)
(0.000894196 -0.000357467 0)
(0.000994363 4.11157e-05 0)
(0.00106488 0.000534887 0)
(0.00105723 0.00113298 0)
(0.000907381 0.00175492 0)
(0.000585925 0.00225076 0)
(0.000215421 0.00248758 0)
(-0.000197098 0.00268187 0)
(-0.000631218 0.0026036 0)
(-0.000929452 0.0023143 0)
(-0.00107438 0.0019337 0)
(-0.00114163 0.00164289 0)
(-0.00120376 0.00137607 0)
(-0.00127069 0.00112184 0)
(-0.0013647 0.000957254 0)
(-0.00148509 0.000911837 0)
(-0.00138388 0.000953192 0)
(-0.00122525 0.000810825 0)
(-0.00136375 0.000680517 0)
(-0.00151927 0.000747827 0)
(-0.00125806 0.000904129 0)
(-0.00103769 0.000921954 0)
(-0.00115021 0.00092146 0)
(-0.00120342 0.000937062 0)
(-0.00118802 0.00101879 0)
(-0.00114511 0.00122873 0)
(-0.00112605 0.00158166 0)
(-0.00116983 0.00205548 0)
(-0.00129718 0.00261294 0)
(-0.00151464 0.00321985 0)
(-0.00182259 0.00384733 0)
(-0.00221841 0.0044717 0)
(-0.00269823 0.00507308 0)
(-0.00325749 0.00563407 0)
(-0.00389096 0.00613876 0)
(-0.00459253 0.00657203 0)
(-1.87432e-06 -3.76008e-05 0)
(-1.92043e-06 -0.000240115 0)
(7.22718e-06 -0.000473639 0)
(2.51459e-05 -0.000689173 0)
(5.04248e-05 -0.000873365 0)
(8.15529e-05 -0.00102388 0)
(0.00011743 -0.00114003 0)
(0.000157417 -0.00122061 0)
(0.000201448 -0.00126373 0)
(0.000250215 -0.00126685 0)
(0.000305374 -0.00122639 0)
(0.00036971 -0.00113699 0)
(0.000447031 -0.000990476 0)
(0.000541253 -0.000774577 0)
(0.00065394 -0.000471919 0)
(0.000778905 -6.0941e-05 0)
(0.000901786 0.000473214 0)
(0.000966033 0.0011881 0)
(0.000853747 0.00200407 0)
(0.000455461 0.00266772 0)
(3.01938e-05 0.00283151 0)
(-0.00044899 0.00317854 0)
(-0.000979061 0.00300063 0)
(-0.00123885 0.0025192 0)
(-0.00127058 0.00197095 0)
(-0.00123387 0.00168785 0)
(-0.00122371 0.0014116 0)
(-0.00121013 0.001163 0)
(-0.00119257 0.00100744 0)
(-0.00115352 0.000939895 0)
(-0.00111313 0.000806758 0)
(-0.0010744 0.000795685 0)
(-0.00127614 0.000964695 0)
(-0.00155669 0.000784429 0)
(-0.00153907 0.000603375 0)
(-0.00140674 0.000888397 0)
(-0.00129443 0.000907683 0)
(-0.00120401 0.000903284 0)
(-0.00110926 0.000955647 0)
(-0.00100401 0.00117223 0)
(-0.000932679 0.00157432 0)
(-0.000940149 0.00212831 0)
(-0.00104686 0.00277789 0)
(-0.00125357 0.00347918 0)
(-0.00155688 0.00419885 0)
(-0.00195226 0.00491165 0)
(-0.00243554 0.00559717 0)
(-0.00300276 0.00623764 0)
(-0.00364985 0.00681654 0)
(-0.00437204 0.00731772 0)
(-2.50816e-06 -3.42311e-05 0)
(-7.87395e-06 -0.000240927 0)
(-8.58757e-06 -0.000481424 0)
(-4.28465e-06 -0.000703362 0)
(4.0174e-06 -0.000892613 0)
(1.49299e-05 -0.00104696 0)
(2.73163e-05 -0.00116607 0)
(4.04036e-05 -0.00124925 0)
(5.39658e-05 -0.00129537 0)
(6.86269e-05 -0.0013029 0)
(8.63188e-05 -0.00126968 0)
(0.000110908 -0.00119205 0)
(0.000148921 -0.00106347 0)
(0.000209934 -0.000872019 0)
(0.00030547 -0.000596465 0)
(0.000442502 -0.000201265 0)
(0.000616371 0.000345062 0)
(0.000773297 0.00117118 0)
(0.000785231 0.00222682 0)
(0.000328463 0.00322815 0)
(-0.000240846 0.00321274 0)
(-0.000915025 0.00389898 0)
(-0.00150292 0.00333016 0)
(-0.00152905 0.00258257 0)
(-0.00142391 0.00190921 0)
(-0.0012767 0.00159379 0)
(-0.00112869 0.00134025 0)
(-0.00102199 0.00109172 0)
(-0.000940058 0.000945822 0)
(-0.000873118 0.000862598 0)
(-0.000812096 0.000799039 0)
(-0.000868401 0.000875323 0)
(-0.00100584 0.00123099 0)
(-0.0011536 0.000931471 0)
(-0.00125 0.000587963 0)
(-0.00124286 0.000801048 0)
(-0.00121146 0.000802839 0)
(-0.00114321 0.000792309 0)
(-0.00101566 0.000825929 0)
(-0.00085252 0.00105268 0)
(-0.000720273 0.00151668 0)
(-0.000687932 0.00217116 0)
(-0.000776069 0.00292681 0)
(-0.000972816 0.00373028 0)
(-0.00126919 0.00454636 0)
(-0.001659 0.00535075 0)
(-0.00213874 0.00612403 0)
(-0.00270616 0.00684883 0)
(-0.00335912 0.00750833 0)
(-0.00409499 0.00808559 0)
(-3.16772e-06 -2.77277e-05 0)
(-1.39924e-05 -0.000233665 0)
(-2.48415e-05 -0.000477062 0)
(-3.45985e-05 -0.000701755 0)
(-4.39075e-05 -0.000892586 0)
(-5.4127e-05 -0.00104723 0)
(-6.65958e-05 -0.00116557 0)
(-8.25073e-05 -0.00124727 0)
(-0.000102733 -0.00129187 0)
(-0.000127499 -0.00129897 0)
(-0.000155825 -0.00126822 0)
(-0.000184568 -0.00119883 0)
(-0.000206893 -0.00108836 0)
(-0.00021011 -0.000929953 0)
(-0.000173162 -0.000706357 0)
(-6.31802e-05 -0.000377994 0)
(0.00014925 0.00011294 0)
(0.00048202 0.000951913 0)
(0.000798861 0.00226232 0)
(0.000581889 0.00388978 0)
(-0.000401177 0.00404409 0)
(-0.00143306 0.00474455 0)
(-0.00170701 0.00339996 0)
(-0.00141521 0.00239627 0)
(-0.00111326 0.00173054 0)
(-0.000910606 0.00140225 0)
(-0.000761762 0.00119508 0)
(-0.000656905 0.000982698 0)
(-0.000616209 0.000892377 0)
(-0.000634652 0.000837208 0)
(-0.000694615 0.000816392 0)
(-0.00075418 0.000976314 0)
(-0.000686699 0.00120849 0)
(-0.000643363 0.00106573 0)
(-0.000779116 0.000687305 0)
(-0.000853878 0.000784811 0)
(-0.00090757 0.000820274 0)
(-0.000977639 0.000724406 0)
(-0.000887985 0.000672775 0)
(-0.000676133 0.000871983 0)
(-0.000476952 0.00140587 0)
(-0.000410887 0.00219018 0)
(-0.000492403 0.00306473 0)
(-0.000683279 0.0039735 0)
(-0.000969552 0.00488574 0)
(-0.00134594 0.00578179 0)
(-0.00181196 0.00664484 0)
(-0.00236862 0.00745845 0)
(-0.00301692 0.00820552 0)
(-0.00375709 0.00886838 0)
(-3.80657e-06 -1.81103e-05 0)
(-1.98786e-05 -0.000218382 0)
(-4.04762e-05 -0.000460584 0)
(-6.37997e-05 -0.00068434 0)
(-9.01402e-05 -0.000873164 0)
(-0.000120842 -0.00102438 0)
(-0.00015752 -0.0011378 0)
(-0.000201955 -0.00121317 0)
(-0.000256007 -0.00125033 0)
(-0.000321447 -0.00124959 0)
(-0.000399577 -0.00121207 0)
(-0.00049045 -0.00113978 0)
(-0.000591385 -0.00103539 0)
(-0.000694347 -0.00090031 0)
(-0.000781611 -0.000729492 0)
(-0.000818438 -0.000497357 0)
(-0.000745219 -0.000139474 0)
(-0.000471255 0.000555591 0)
(2.86871e-05 0.00201289 0)
(2.53494e-05 0.00455868 0)
(-0.00093418 0.00521714 0)
(-0.00152587 0.00516844 0)
(-0.00119529 0.00311122 0)
(-0.000713848 0.00200702 0)
(-0.000386665 0.00145625 0)
(-0.000217625 0.00123228 0)
(-0.000139736 0.00108654 0)
(-0.000137917 0.000954718 0)
(-0.000201876 0.000929035 0)
(-0.000303528 0.000914997 0)
(-0.000416894 0.000899844 0)
(-0.000452569 0.000965514 0)
(-0.000344544 0.00105458 0)
(-0.000188779 0.00105637 0)
(-0.000226749 0.000862652 0)
(-0.000419796 0.000880941 0)
(-0.000634595 0.000987356 0)
(-0.000813116 0.000748538 0)
(-0.000749579 0.000492894 0)
(-0.000469377 0.000614516 0)
(-0.000202457 0.00124175 0)
(-0.000123086 0.00220376 0)
(-0.000218583 0.00320054 0)
(-0.000404816 0.00420758 0)
(-0.000671773 0.00520908 0)
(-0.00102108 0.00619339 0)
(-0.00145833 0.00714687 0)
(-0.0019892 0.00805395 0)
(-0.00261896 0.00889684 0)
(-0.00335136 0.00965654 0)
(-4.37458e-06 -5.61454e-06 0)
(-2.51234e-05 -0.000195666 0)
(-5.44417e-05 -0.000432844 0)
(-8.99029e-05 -0.00065222 0)
(-0.000131433 -0.000835702 0)
(-0.000180297 -0.000980025 0)
(-0.000238288 -0.00108462 0)
(-0.000307669 -0.00114893 0)
(-0.000391247 -0.00117247 0)
(-0.000492447 -0.00115543 0)
(-0.000615345 -0.0010991 0)
(-0.00076454 -0.0010066 0)
(-0.000944711 -0.000883448 0)
(-0.00115913 -0.000737801 0)
(-0.001406 -0.00057883 0)
(-0.00166999 -0.000409177 0)
(-0.00190551 -0.000207771 0)
(-0.00194638 0.000179897 0)
(-0.00139823 0.00130911 0)
(-0.000707448 0.00485476 0)
(-0.00108359 0.00625473 0)
(-0.00102403 0.0047576 0)
(-2.96888e-05 0.00246541 0)
(0.000450528 0.00160252 0)
(0.000557995 0.0012816 0)
(0.000507812 0.0011808 0)
(0.000418523 0.0011028 0)
(0.000309909 0.00103324 0)
(0.000196136 0.0010352 0)
(7.65198e-05 0.00104054 0)
(-4.07232e-05 0.000989423 0)
(-7.6731e-05 0.00092337 0)
(3.09428e-05 0.000900348 0)
(0.000190318 0.000945814 0)
(0.000246635 0.000970362 0)
(0.000138442 0.00110605 0)
(-0.000136835 0.00129181 0)