/*--------------------------------*- C++ -*----------------------------------*\
| =========                 |                                                 |
| \\      /  F ield         | OpenFOAM: The Open Source CFD Toolbox           |
|  \\    /   O peration     | Version:  2.4.0                                 |
|   \\  /    A nd           | Web:      www.OpenFOAM.org                      |
|    \\/     M anipulation  |                                                 |
\*---------------------------------------------------------------------------*/
FoamFile
{
    version     2.0;
    format      ascii;
    class       volScalarField;
    location    "0.183";
    object      alpha.water;
}
// * * * * * * * * * * * * * * * * * * * * * * * * * * * * * * * * * * * * * //

dimensions      [0 0 0 0 0 0 0];

internalField   nonuniform List<scalar> 
10000
(
6.60184e-60
4.09611e-56
4.96923e-53
1.36528e-50
1.54711e-48
1.09531e-46
6.30908e-45
3.34672e-43
1.70461e-41
8.33367e-40
3.76317e-38
1.52305e-36
5.3238e-35
1.5512e-33
3.77339e-32
7.74004e-31
1.32647e-29
1.86014e-28
2.17701e-27
2.17426e-26
1.85197e-25
1.36323e-24
8.76695e-24
4.92409e-23
2.39314e-22
9.93158e-22
3.45987e-21
9.78748e-21
2.09229e-20
2.87117e-20
2.53634e-20
1.45399e-20
5.59858e-21
1.51389e-21
3.12083e-22
4.93769e-23
6.4605e-24
6.81581e-25
5.58874e-26
3.54599e-27
1.74156e-28
6.61034e-30
1.92927e-31
4.28664e-33
7.13623e-35
8.72893e-37
7.60974e-39
4.65455e-41
6.67072e-43
3.30454e-41
1.80429e-56
1.24117e-52
1.412e-49
3.86595e-47
4.57707e-45
3.38952e-43
2.01156e-41
1.05302e-39
5.07992e-38
2.26773e-36
9.1813e-35
3.28825e-33
1.00897e-31
2.56927e-30
5.4536e-29
9.74744e-28
1.46067e-26
1.79892e-25
1.84621e-24
1.61649e-23
1.21212e-22
7.89155e-22
4.51902e-21
2.27835e-20
1.0034e-19
3.8179e-19
1.23441e-18
3.28002e-18
6.69918e-18
9.27489e-18
8.73436e-18
5.64955e-18
2.59815e-18
9.10278e-19
2.61552e-19
6.35805e-20
1.32889e-20
2.31511e-21
3.31477e-22
3.846e-23
3.56459e-24
2.5963e-25
1.45688e-26
6.15423e-28
1.90442e-29
4.17938e-31
6.27791e-33
6.31481e-35
5.37267e-35
2.25415e-33
1.16684e-53
1.07237e-49
1.1866e-46
3.19817e-44
3.79597e-42
2.86723e-40
1.68817e-38
8.47479e-37
3.78777e-35
1.53254e-33
5.55203e-32
1.76131e-30
4.75853e-29
1.06369e-27
1.97914e-26
3.09486e-25
4.06674e-24
4.40985e-23
3.98232e-22
3.06536e-21
2.02754e-20
1.1698e-19
5.97812e-19
2.71477e-18
1.08932e-17
3.82517e-17
1.15535e-16
2.90053e-16
5.6876e-16
7.89288e-16
7.77822e-16
5.50211e-16
2.86217e-16
1.183e-16
4.13976e-17
1.27832e-17
3.40741e-18
7.68426e-19
1.44643e-19
2.23733e-20
2.79468e-21
2.76155e-22
2.10311e-23
1.19605e-24
4.8964e-26
1.38548e-27
2.60353e-29
4.24599e-31
4.44969e-30
1.20018e-28
4.32923e-51
4.99499e-47
5.1038e-44
1.30398e-41
1.52051e-39
1.13561e-37
6.47715e-36
3.05979e-34
1.2524e-32
4.55931e-31
1.4736e-29
4.14154e-28
9.87416e-27
1.94414e-25
3.18175e-24
4.366e-23
5.03977e-22
4.81867e-21
3.83861e-20
2.60422e-19
1.5224e-18
7.79904e-18
3.56331e-17
1.46069e-16
5.35569e-16
1.74114e-15
4.92769e-15
1.17232e-14
2.21245e-14
3.06207e-14
3.11667e-14
2.35889e-14
1.34687e-14
6.26316e-15
2.51498e-15
9.05682e-16
2.8347e-16
7.58091e-17
1.70691e-17
3.18171e-18
4.81557e-19
5.78024e-20
5.33825e-21
3.64951e-22
1.7637e-23
5.72961e-25
1.19397e-26
6.97998e-28
1.49583e-26
2.97619e-25
1.35788e-48
1.53844e-44
1.37162e-41
3.25075e-39
3.65554e-37
2.64249e-35
1.43011e-33
6.262e-32
2.32445e-30
7.56065e-29
2.17201e-27
5.40599e-26
1.13945e-24
1.98185e-23
2.86094e-22
3.4533e-21
3.50577e-20
2.957e-19
2.08097e-18
1.24684e-17
6.45323e-17
2.94074e-16
1.20328e-15
4.45901e-15
1.49556e-14
4.50463e-14
1.1954e-13
2.69854e-13
4.90967e-13
6.75493e-13
7.04011e-13
5.61498e-13
3.4551e-13
1.75855e-13
7.83766e-14
3.15531e-14
1.11171e-14
3.37481e-15
8.68745e-16
1.8622e-16
3.25506e-17
4.52142e-18
4.82525e-19
3.7834e-20
2.06197e-21
7.34553e-23
1.62466e-24
4.03028e-25
8.09395e-24
1.30269e-22
3.7665e-46
3.35894e-42
2.55507e-39
5.56842e-37
5.94172e-35
4.06955e-33
2.05305e-31
8.23211e-30
2.74966e-28
7.94088e-27
2.01911e-25
4.44724e-24
8.2994e-23
1.27864e-21
1.6325e-20
1.73752e-19
1.55273e-18
1.15517e-17
7.18406e-17
3.80597e-16
1.74597e-15
7.08706e-15
2.60095e-14
8.7228e-14
2.67618e-13
7.46032e-13
1.85418e-12
3.97214e-12
6.97555e-12
9.52471e-12
1.01091e-11
8.40861e-12
5.50687e-12
3.01566e-12
1.46113e-12
6.42729e-13
2.49228e-13
8.3939e-14
2.41434e-14
5.81649e-15
1.14777e-15
1.80475e-16
2.18056e-17
1.92645e-18
1.16689e-19
4.50189e-21
1.05713e-22
7.49972e-23
1.31154e-21
1.77053e-20
8.4776e-44
5.5259e-40
3.54802e-37
7.02731e-35
6.98737e-33
4.44891e-31
2.06267e-29
7.50284e-28
2.2416e-26
5.7177e-25
1.28081e-23
2.49327e-22
4.1235e-21
5.64055e-20
6.3868e-19
6.01053e-18
4.73385e-17
3.10541e-16
1.70567e-15
7.99123e-15
3.25026e-14
1.17575e-13
3.87413e-13
1.17692e-12
3.30146e-12
8.50041e-12
1.97376e-11
4.00904e-11
6.80124e-11
9.2138e-11
9.92788e-11
8.54912e-11
5.90722e-11
3.44386e-11
1.79133e-11
8.4921e-12
3.57857e-12
1.32165e-12
4.20275e-13
1.12703e-13
2.48907e-14
4.39864e-15
5.98805e-16
5.9569e-17
4.02991e-18
1.69975e-19
4.33734e-21
5.60794e-21
8.7444e-20
1.01721e-18
1.56742e-41
7.15115e-38
3.83727e-35
6.81875e-33
6.20772e-31
3.61646e-29
1.52361e-27
4.98998e-26
1.32741e-24
2.9786e-23
5.8495e-22
1.00401e-20
1.47122e-19
1.78962e-18
1.80167e-17
1.50395e-16
1.04598e-15
6.05185e-15
2.93311e-14
1.21434e-13
4.37656e-13
1.41025e-12
4.17277e-12
1.1488e-11
2.94544e-11
6.98847e-11
1.51097e-10
2.90566e-10
4.7625e-10
6.4092e-10
7.00178e-10
6.20716e-10
4.49006e-10
2.76783e-10
1.53458e-10
7.78713e-11
3.54542e-11
1.42945e-11
5.01025e-12
1.49308e-12
3.68944e-13
7.33749e-14
1.12986e-14
1.27618e-15
9.7906e-17
4.61621e-18
1.3018e-19
2.04132e-19
2.91545e-18
3.00594e-17
2.38469e-39
7.53144e-36
3.34347e-33
5.25355e-31
4.30907e-29
2.2668e-27
8.5933e-26
2.51679e-24
5.93671e-23
1.1686e-21
2.00219e-20
3.0182e-19
3.91088e-18
4.23059e-17
3.79274e-16
2.81672e-15
1.73495e-14
8.86558e-14
3.79051e-13
1.38492e-12
4.41675e-12
1.26612e-11
3.36191e-11
8.38582e-11
1.9646e-10
4.28783e-10
8.60213e-10
1.5642e-09
2.47306e-09
3.32279e-09
3.68026e-09
3.33939e-09
2.51048e-09
1.62959e-09
9.59844e-10
5.20038e-10
2.55315e-10
1.1231e-10
4.34423e-11
1.44306e-11
4.00867e-12
9.0312e-13
1.58743e-13
2.06328e-14
1.83243e-15
9.9503e-17
3.12916e-18
4.14592e-18
5.58265e-17
5.23942e-16
2.95132e-37
6.60734e-34
2.40682e-31
3.29877e-29
2.40431e-27
1.13045e-25
3.82362e-24
9.94639e-23
2.0712e-21
3.56788e-20
5.3097e-19
6.98716e-18
7.9739e-17
7.6543e-16
6.10964e-15
4.04417e-14
2.21364e-13
1.00193e-12
3.78404e-12
1.21864e-11
3.43174e-11
8.73408e-11
2.07871e-10
4.69413e-10
1.00434e-09
2.01452e-09
3.73832e-09
6.43248e-09
9.75992e-09
1.33703e-08
1.50411e-08
1.381e-08
1.06585e-08
7.25768e-09
4.53775e-09
2.62387e-09
1.3892e-09
6.67818e-10
2.86167e-10
1.06585e-10
3.35386e-11
8.638e-12
1.75245e-12
2.6592e-13
2.79393e-14
1.80689e-15
6.49916e-17
5.20733e-17
6.74559e-16
5.93818e-15
2.93837e-35
4.80769e-32
1.44086e-29
1.70271e-27
1.09472e-25
4.57245e-24
1.37326e-22
3.15634e-21
5.78254e-20
8.70802e-19
1.12276e-17
1.27971e-16
1.27831e-15
1.08368e-14
7.68379e-14
4.53269e-13
2.21129e-12
8.9036e-12
2.98156e-11
8.4635e-11
2.09897e-10
4.72983e-10
1.00733e-09
2.0577e-09
4.01806e-09
7.40445e-09
1.26718e-08
2.07544e-08
2.99467e-08
4.5374e-08
5.18785e-08
4.69946e-08
3.59781e-08
2.52829e-08
1.67135e-08
1.0305e-08
5.88234e-09
3.09363e-09
1.47353e-09
6.18903e-10
2.22281e-10
6.60446e-11
1.56302e-11
2.80498e-12
3.55099e-13
2.823e-14
1.2152e-15
4.41239e-16
5.51731e-15
4.68856e-14
2.30262e-33
2.84463e-30
7.08355e-28
7.19941e-26
4.06754e-24
1.50369e-22
3.99308e-21
8.09053e-20
1.30352e-18
1.72292e-17
1.93018e-16
1.89724e-15
1.64683e-14
1.22372e-13
7.67439e-13
4.02634e-12
1.75359e-11
6.31458e-11
1.888e-10
4.73422e-10
1.03142e-09
2.05091e-09
3.90053e-09
7.19842e-09
1.28224e-08
2.17055e-08
3.40953e-08
5.37992e-08
7.36648e-08
1.52161e-07
1.63956e-07
1.44335e-07
1.05959e-07
7.30177e-08
4.96803e-08
3.22766e-08
1.97427e-08
1.1331e-08
6.00563e-09
2.85601e-09
1.17786e-09
4.0673e-10
1.13248e-10
2.42777e-11
3.75162e-12
3.75028e-13
2.03449e-14
2.86544e-15
3.2279e-14
2.72323e-13
1.42116e-31
1.38666e-28
2.89226e-26
2.52723e-24
1.2451e-22
4.04415e-21
9.45824e-20
1.68489e-18
2.38117e-17
2.75639e-16
2.69386e-15
2.30209e-14
1.73244e-13
1.12128e-12
6.17673e-12
2.87275e-11
1.11754e-10
3.62009e-10
9.77031e-10
2.17455e-09
4.15767e-09
7.26599e-09
1.23229e-08
2.048e-08
3.32294e-08
5.15889e-08
7.35873e-08
1.12191e-07
1.52889e-07
5.325e-07
3.26475e-07
2.8366e-07
2.88284e-07
1.91312e-07
1.25854e-07
8.26058e-08
5.29204e-08
3.27995e-08
1.92927e-08
1.04064e-08
4.94764e-09
1.99547e-09
6.57316e-10
1.69349e-10
3.2167e-11
4.09513e-12
2.93937e-13
1.92895e-14
1.40847e-13
1.21419e-12
6.93792e-30
5.47509e-27
9.54121e-25
7.15425e-23
3.04903e-21
8.62965e-20
1.77306e-18
2.78787e-17
3.48352e-16
3.56441e-15
3.06638e-14
2.27614e-13
1.48704e-12
8.44026e-12
4.05881e-11
1.66584e-10
5.78938e-10
1.69825e-09
4.20261e-09
8.35391e-09
1.40387e-08
2.14853e-08
3.25867e-08
4.83795e-08
7.11442e-08
1.00452e-07
1.27138e-07
1.7492e-07
3.08284e-07
1.31726e-06
5.1616e-06
4.37468e-06
9.92639e-07
5.11319e-07
2.92131e-07
1.78692e-07
1.14087e-07
7.45307e-08
4.82597e-08
2.95095e-08
1.62038e-08
7.65027e-09
2.98806e-09
9.27147e-10
2.16852e-10
3.5226e-11
3.40892e-12
1.83433e-13
4.78122e-13
4.30752e-12
2.54959e-28
1.62931e-25
2.42138e-23
1.58292e-21
5.93208e-20
1.46759e-18
2.63005e-17
3.64574e-16
4.03509e-15
3.66156e-14
2.79284e-13
1.83026e-12
1.04688e-11
5.18152e-11
2.19826e-10
7.94012e-10
2.46387e-09
6.5959e-09
1.5261e-08
2.71785e-08
4.02132e-08
5.41348e-08
7.44526e-08
9.70934e-08
1.27847e-07
1.60541e-07
1.75596e-07
1.74912e-07
2.1544e-07
1.11232e-05
1.28271e-05
1.28261e-05
7.56465e-06
4.38308e-07
3.9512e-07
2.83887e-07
1.91225e-07
1.3161e-07
9.32884e-08
6.45452e-08
4.09095e-08
2.25903e-08
1.04475e-08
3.89626e-09
1.11865e-09
2.30626e-10
3.00826e-11
1.98816e-12
1.32603e-12
1.25227e-11
6.74375e-27
3.59727e-24
4.66338e-22
2.7071e-20
9.03531e-19
1.98286e-17
3.1261e-16
3.78749e-15
3.71365e-14
2.99766e-13
2.03403e-12
1.18228e-11
5.97069e-11
2.61104e-10
9.75521e-10
3.13495e-09
8.70206e-09
2.13991e-08
4.70703e-08
7.37835e-08
9.6193e-08
1.18167e-07
1.52014e-07
1.69128e-07
1.94761e-07
2.08871e-07
2.03064e-07
1.75241e-07
3.22881e-06
1.28374e-05
1.28334e-05
1.28274e-05
1.2704e-05
1.82028e-06
2.8203e-07
2.70615e-07
2.166e-07
1.73066e-07
1.4003e-07
1.10479e-07
8.0487e-08
5.16228e-08
2.80612e-08
1.24798e-08
4.35765e-09
1.12589e-09
1.94156e-10
1.80207e-11
3.48863e-12
3.05035e-11
1.27322e-25
5.85147e-23
6.75316e-21
3.52633e-19
1.05935e-17
2.08663e-16
2.93637e-15
3.1521e-14
2.71947e-13
1.9591e-12
1.18716e-11
6.14681e-11
2.75288e-10
1.06928e-09
3.56458e-09
1.01964e-08
2.55995e-08
5.81734e-08
1.21871e-07
1.53201e-07
1.8385e-07
2.22051e-07
2.84041e-07
2.58214e-07
2.4932e-07
2.19699e-07
2.18462e-07
2.23135e-07
2.23176e-07
4.81139e-06
1.27989e-05
1.28277e-05
5.13288e-06
3.03922e-07
2.87397e-07
6.94253e-07
2.21326e-07
2.04892e-07
1.85057e-07
1.61594e-07
1.31185e-07
9.52171e-08
5.96011e-08
3.10741e-08
1.29818e-08
4.12534e-09
9.15735e-10
1.191e-10
1.18e-11
6.35317e-11
1.71294e-24
6.95982e-22
7.25248e-20
3.4453e-18
9.40144e-17
1.67708e-15
2.13144e-14
2.06029e-13
1.58977e-12
1.02074e-11
5.55244e-11
2.57586e-10
1.02973e-09
3.5648e-09
1.06191e-08
2.72289e-08
6.16914e-08
1.31352e-07
2.67261e-07
1.82267e-07
3.02023e-07
2.52078e-07
4.87862e-07
3.41686e-07
2.58418e-07
4.61703e-07
2.34415e-07
2.57279e-07
2.67176e-07
2.67235e-07
7.89662e-07
5.29405e-07
3.07138e-07
3.0011e-07
2.86686e-07
2.70756e-07
2.56509e-07
2.44266e-07
2.30608e-07
2.11789e-07
1.84321e-07
1.46978e-07
1.035e-07
6.20229e-08
3.04202e-08
1.16405e-08
3.23244e-09
5.66821e-10
5.38587e-11
1.15704e-10
1.63491e-23
5.98461e-21
5.70091e-19
2.47852e-17
6.20493e-16
1.01748e-14
1.18648e-13
1.04521e-12
7.32966e-12
4.23794e-11
2.08343e-10
8.72553e-10
3.13128e-09
9.66344e-09
2.55804e-08
5.84144e-08
1.19745e-07
2.38936e-07
5.9234e-07
5.57264e-06
6.93712e-06
2.66575e-06
7.7814e-07
3.90816e-07
3.01138e-07
2.857e-07
5.68209e-07
2.6943e-07
2.81791e-07
2.83757e-07
2.85901e-07
2.90379e-07
2.95555e-07
2.9182e-07
2.88457e-07
2.73641e-07
2.70095e-07
2.67034e-07
2.61605e-07
2.50087e-07
2.29358e-07
1.96756e-07
1.52628e-07
1.03066e-07
5.82043e-08
2.6253e-08
8.87313e-09
2.00741e-09
2.44086e-10
1.92425e-10
1.11196e-22
3.71887e-20
3.25624e-18
1.30583e-16
3.02798e-15
4.61732e-14
5.0219e-13
4.11805e-12
2.66145e-11
1.41287e-10
6.30587e-10
2.39418e-09
7.71017e-09
2.10924e-08
4.91463e-08
9.91105e-08
1.84961e-07
3.6374e-07
6.11354e-06
9.58326e-06
9.587e-06
9.58745e-06
1.15038e-06
4.16097e-07
3.01248e-07
2.9343e-07
2.91406e-07
2.91046e-07
3.05899e-07
3.00834e-07
3.05748e-07
3.16659e-07
3.30691e-07
3.36504e-07
2.89542e-07
6.48157e-07
2.81648e-07
2.84624e-07
2.82992e-07
2.77288e-07
2.63613e-07
2.38482e-07
1.99447e-07
1.48612e-07
9.46956e-08
4.93035e-08
1.97833e-08
5.56273e-09
9.00745e-10
3.19333e-10
5.4679e-22
1.6892e-19
1.37341e-17
5.13894e-16
1.11615e-14
1.59863e-13
1.63621e-12
1.26399e-11
7.6581e-11
3.75806e-10
1.5319e-09
5.25762e-09
1.51622e-08
3.6805e-08
7.58089e-08
1.36282e-07
2.39198e-07
5.60618e-07
7.77642e-06
9.56666e-06
9.58768e-06
7.3512e-06
1.08845e-06
4.03044e-07
3.11047e-07
3.09422e-07
3.11958e-07
3.00207e-07
3.54851e-07
3.34605e-07
3.30829e-07
3.49864e-07
3.98461e-07
3.30008e-07
3.02056e-07
2.88792e-07
2.86445e-07
3.09769e-07
3.14933e-07
3.0676e-07
2.92873e-07
2.72156e-07
2.39748e-07
1.92929e-07
1.35941e-07
8.00857e-08
3.7316e-08
1.26567e-08
2.65541e-09
5.81484e-10
1.97745e-21
5.70339e-19
4.35106e-17
1.53292e-15
3.14125e-14
4.2483e-13
4.10435e-12
2.98838e-11
1.70248e-10
7.78772e-10
2.93107e-09
9.19959e-09
2.42406e-08
5.37163e-08
1.01146e-07
1.65442e-07
2.46306e-07
3.625e-07
3.40133e-07
2.26166e-06
2.86584e-06
2.99007e-07
4.78344e-07
3.48933e-07
3.3024e-07
3.28121e-07
3.23746e-07
3.05731e-07
5.76619e-07
3.7974e-07
3.7252e-07
3.89249e-07
4.8561e-07
1.29336e-06
2.9731e-06
3.62453e-06
2.75604e-06
1.19641e-06
7.44778e-07
5.04442e-07
3.81285e-07
3.18595e-07
2.77224e-07
2.32849e-07
1.77287e-07
1.15909e-07
6.15089e-08
2.45696e-08
6.4512e-09
1.20748e-09
5.4147e-21
1.4785e-18
1.072e-16
3.59715e-15
7.02724e-14
9.05977e-13
8.33584e-12
5.76992e-11
3.11764e-10
1.34917e-09
4.76049e-09
1.39316e-08
3.41974e-08
7.07414e-08
1.24118e-07
1.85692e-07
2.39929e-07
2.75854e-07
2.80523e-07
2.82273e-07
2.88759e-07
3.10365e-07
3.67441e-07
4.16732e-07
3.67639e-07
3.45331e-07
3.2773e-07
3.34972e-07
3.36788e-07
4.03738e-07
4.55705e-07
4.05171e-07
4.13342e-07
7.69999e-06
8.21228e-06
8.22983e-06
8.23202e-06
8.22661e-06
6.59377e-06
1.21868e-06
3.78425e-07
3.66971e-07
3.16148e-07
2.69437e-07
2.15954e-07
1.53371e-07
9.09505e-08
4.1922e-08
1.33709e-08
2.68064e-09
1.15261e-20
3.02814e-18
2.11726e-16
6.85643e-15
1.29252e-13
1.60667e-12
1.42324e-11
9.46485e-11
4.90071e-10
2.02755e-09
6.82263e-09
1.90154e-08
4.46419e-08
8.8876e-08
1.49419e-07
2.11536e-07
2.56574e-07
2.81599e-07
3.14912e-07
3.33241e-07
3.03555e-07
3.26401e-07
3.66449e-07
5.64999e-07
4.21248e-07
3.65453e-07
3.25276e-07
3.47441e-07
3.5702e-07
1.19147e-06
6.45155e-07
4.61087e-07
7.40332e-07
2.33926e-06
7.82239e-06
8.22933e-06
8.23555e-06
8.21508e-06
8.24854e-06
8.24286e-06
3.58485e-06
3.60001e-07
3.45617e-07
2.98771e-07
2.48794e-07
1.88406e-07
1.22659e-07
6.41082e-08
2.42648e-08
5.75039e-09
1.94149e-20
4.99926e-18
3.42573e-16
1.08631e-14
2.00282e-13
2.4316e-12
2.10116e-11
1.36185e-10
6.87235e-10
2.77529e-09
9.14893e-09
2.49172e-08
5.65244e-08
1.06906e-07
1.67907e-07
2.2157e-07
2.56325e-07
2.88189e-07
7.62057e-07
9.19838e-07
9.47617e-06
1.18859e-05
9.42593e-06
6.30992e-07
4.61238e-07
3.74952e-07
3.24018e-07
3.56058e-07
3.85629e-07
1.20819e-06
7.76317e-07
5.67116e-07
4.87244e-07
4.50373e-07
4.34952e-07
1.45077e-06
1.16179e-06
4.41319e-06
8.25179e-06
8.24621e-06
8.22001e-06
1.69882e-06
3.10344e-07
3.03766e-07
2.65465e-07
2.13559e-07
1.51036e-07
8.83919e-08
3.90412e-08
1.12175e-08
2.61123e-20
6.7301e-18
4.60094e-16
1.45097e-14
2.65269e-13
3.1851e-12
2.71555e-11
1.73306e-10
8.59555e-10
3.40474e-09
1.09804e-08
2.91437e-08
6.39456e-08
1.16367e-07
1.76842e-07
2.30001e-07
2.71713e-07
3.27567e-07
8.98911e-07
1.48686e-05
2.2946e-05
2.2938e-05
2.29752e-05
1.20816e-05
3.11792e-07
3.13939e-07
3.23e-07
5.28392e-07
3.79868e-07
7.43957e-07
6.679e-07
1.51376e-06
1.30049e-06
6.32589e-07
4.32588e-07
3.91397e-07
4.12104e-07
3.69168e-07
3.46053e-07
3.34808e-06
4.1945e-06
1.3862e-06
3.07943e-07
3.00805e-07
2.67883e-07
2.23786e-07
1.69128e-07
1.09535e-07
5.58325e-08
1.94493e-08
2.80589e-20
7.41536e-18
5.15789e-16
1.64473e-14
3.02454e-13
3.63654e-12
3.09263e-11
1.96198e-10
9.64196e-10
3.7717e-09
1.19694e-08
3.11777e-08
6.69636e-08
1.19084e-07
1.77945e-07
2.31603e-07
2.78042e-07
2.90748e-07
6.1336e-06
2.29379e-05
2.29299e-05
2.29243e-05
2.29262e-05
2.19674e-05
3.11777e-07
3.1258e-07
3.14805e-07
3.15641e-07
3.51066e-07
3.73323e-07
6.68814e-07
1.52085e-06
1.51236e-06
8.56973e-07
4.8384e-07
3.84532e-07
3.54085e-07
3.43713e-07
3.4229e-07
3.42495e-07
3.42941e-07
3.56168e-07
3.28332e-07
2.97868e-07
2.61677e-07
2.19139e-07
1.7202e-07
1.21062e-07
7.0535e-08
2.96595e-08
2.3945e-20
6.67705e-18
4.83175e-16
1.5864e-14
2.97924e-13
3.63355e-12
3.11661e-11
1.98424e-10
9.74192e-10
3.79082e-09
1.19176e-08
3.06478e-08
6.49474e-08
1.14263e-07
1.70399e-07
2.25304e-07
2.79662e-07
2.92502e-07
6.43455e-06
2.2927e-05
2.29215e-05
2.29346e-05
2.29301e-05
1.33348e-05
3.11751e-07
3.11734e-07
3.12583e-07
3.20155e-07
3.39282e-07
3.77706e-07
5.51063e-07
6.70953e-07
7.80343e-07
6.88155e-07
4.24717e-07
3.84863e-07
3.62998e-07
3.47361e-07
3.61034e-07
3.87346e-07
3.62105e-07
4.02859e-07
3.70672e-07
3.18415e-07
2.58989e-07
2.03258e-07
1.57599e-07
1.17267e-07
7.76879e-08
3.94947e-08
1.6012e-20
4.88303e-18
3.77407e-16
1.30247e-14
2.54052e-13
3.18794e-12
2.79158e-11
1.80261e-10
8.92601e-10
3.48672e-09
1.09661e-08
2.81794e-08
5.98621e-08
1.06399e-07
1.61856e-07
2.20848e-07
2.89869e-07
3.01775e-07
2.91548e-06
2.20527e-05
2.29346e-05
2.29462e-05
1.92216e-05
1.35233e-06
3.14371e-07
3.09748e-07
3.10769e-07
3.21063e-07
3.4155e-07
3.59424e-07
3.79509e-07
3.78673e-07
3.85496e-07
3.93404e-07
4.07494e-07
4.76928e-07
4.01766e-07
4.48256e-07
3.74473e-07
6.06445e-07
2.48469e-06
3.44623e-06
2.30216e-06
3.21213e-07
2.32778e-07
1.76184e-07
1.26365e-07
9.59235e-08
7.17787e-08
4.53176e-08
8.17754e-21
2.86279e-18
2.44215e-16
9.07912e-15
1.87573e-13
2.46155e-12
2.23165e-11
1.47971e-10
7.47271e-10
2.96091e-09
9.41028e-09
2.43982e-08
5.23705e-08
9.45637e-08
1.47168e-07
2.06149e-07
2.77179e-07
3.97816e-07
6.25374e-07
3.22666e-06
1.45901e-05
8.99311e-06
1.32871e-06
3.21811e-07
3.42589e-07
3.06619e-07
3.13155e-07
3.30126e-07
3.54556e-07
3.74497e-07
3.89307e-07
4.01134e-07
3.93102e-07
5.36292e-07
1.41084e-06
5.67161e-07
3.69794e-07
3.55558e-07
3.71961e-07
1.71002e-06
4.32894e-06
4.34883e-06
4.34366e-06
3.54678e-06
2.82337e-07
8.81756e-08
7.54076e-08
5.72377e-08
5.11604e-08
4.33665e-08
3.07146e-21
1.31392e-18
1.29137e-16
5.33258e-15
1.19466e-13
1.67149e-12
1.59512e-11
1.10214e-10
5.75331e-10
2.34146e-09
7.60909e-09
2.01263e-08
4.40917e-08
8.1675e-08
1.31126e-07
1.88867e-07
2.52652e-07
3.20967e-07
8.55111e-07
3.12372e-07
3.12371e-07
3.12255e-07
3.19562e-07
3.19115e-07
3.06259e-07
3.08096e-07
3.20288e-07
3.452e-07
3.60307e-07
3.91628e-07
4.26123e-07
4.10225e-07
2.17391e-06
1.8701e-05
2.77537e-05
1.89078e-05
4.88908e-06
3.54414e-07
6.27824e-07
4.39517e-07
4.87353e-07
2.59418e-06
3.88987e-06
1.75945e-06
1.3005e-07
1.16468e-07
4.1524e-08
3.87985e-08
3.72635e-08
3.64359e-08
8.94851e-22
4.93737e-19
5.76045e-17
2.70064e-15
6.68045e-14
1.01271e-12
1.033e-11
7.54908e-11
4.13336e-10
1.75323e-09
5.91122e-09
1.61733e-08
3.65885e-08
6.98583e-08
1.14972e-07
1.66842e-07
2.16925e-07
2.8462e-07
4.92329e-07
3.12842e-07
3.12506e-07
3.11534e-07
4.78452e-07
3.05921e-07
3.09029e-07
3.11517e-07
3.32755e-07
3.69272e-07
1.36275e-06
1.52056e-06
4.33101e-07
1.05597e-06
2.13453e-05
3.32299e-05
3.32304e-05
3.32239e-05
1.28311e-05
3.53831e-07
3.53932e-07
3.54303e-07
3.54893e-07
3.44666e-07
3.31485e-07
3.20363e-07
1.59682e-07
1.08129e-07
4.39376e-06
3.48334e-05
7.29287e-06
4.55045e-08
2.03242e-22
1.56159e-19
2.25469e-17
1.23082e-15
3.42228e-14
5.70047e-13
6.28835e-12
4.91184e-11
2.84886e-10
1.27108e-09
4.4834e-09
1.27858e-08
3.00874e-08
5.97304e-08
1.02075e-07
1.52774e-07
2.03544e-07
2.43905e-07
2.82596e-07
3.15239e-07
3.10078e-07
3.0471e-07
2.99115e-07
3.06058e-07
3.12587e-07
3.15839e-07
3.25614e-07
6.72169e-07
1.68334e-06
1.69241e-06
7.38005e-07
3.57192e-06
3.19333e-05
3.32302e-05
3.32301e-05
3.21793e-05
2.4767e-06
3.53893e-07
3.55113e-07
3.56337e-07
3.58905e-07
3.59595e-07
3.40768e-07
3.29518e-07
1.57195e-07
1.08144e-07
3.67756e-05
5.17779e-05
5.15333e-05
4.24114e-06
3.54319e-23
4.1937e-20
7.86347e-18
5.13776e-16
1.6353e-14
3.03295e-13
3.65599e-12
3.07897e-11
1.90654e-10
9.0131e-10
3.34882e-09
1.00191e-08
2.46556e-08
5.09811e-08
9.05247e-08
1.40806e-07
1.94257e-07
2.12386e-07
4.21587e-07
3.22173e-07
3.57051e-07
2.99787e-07
2.98623e-07
2.96719e-07
4.0794e-07
3.08941e-07
3.29826e-07
4.52463e-07
1.48573e-06
8.94065e-07
3.83466e-07
3.57981e-06
3.25964e-05
3.32299e-05
3.32269e-05
9.1775e-06
3.59381e-07
3.60469e-07
3.56771e-07
3.62635e-07
4.19825e-07
6.10777e-07
5.51763e-07
2.40733e-07
1.48195e-07
1.10609e-07
3.83514e-05
5.24127e-05
5.26867e-05
2.79923e-05
5.14813e-24
1.00074e-20
2.5516e-18
2.0437e-16
7.54936e-15
1.57214e-13
2.08186e-12
1.89697e-11
1.25686e-10
6.30519e-10
2.47041e-09
7.75341e-09
1.9931e-08
4.28993e-08
7.93378e-08
1.29479e-07
1.90227e-07
2.41622e-07
2.45254e-07
2.83405e-07
2.83102e-07
3.81732e-07
2.89695e-07
2.89548e-07
2.91138e-07
3.06296e-07
3.15873e-07
3.15002e-07
3.00911e-07
3.06671e-07
3.15351e-07
1.51612e-06
2.47658e-05
3.32216e-05
1.48904e-05
3.66786e-07
3.68635e-07
3.66078e-07
3.59252e-07
3.70082e-07
1.42427e-06
3.12059e-06
8.747e-07
2.81359e-07
2.27964e-07
2.45482e-07
1.24382e-05
5.26321e-05
5.26561e-05
4.17385e-05
6.02545e-25
2.15113e-21
7.86598e-19
7.88256e-17
3.40548e-15
7.97851e-14
1.16031e-12
1.14231e-11
8.0898e-11
4.29954e-10
1.77279e-09
5.82781e-09
1.56502e-08
3.51426e-08
6.78033e-08
1.16148e-07
1.77495e-07
2.30392e-07
2.46158e-07
7.33777e-07
2.79368e-07
2.793e-07
3.03371e-07
2.80956e-07
2.89613e-07
2.94491e-07
2.97823e-07
2.97805e-07
3.03145e-07
3.0724e-07
3.20299e-07
1.27556e-06
2.05201e-05
3.09246e-05
3.74167e-07
3.69331e-07
5.17165e-07
8.67179e-07
3.64592e-07
3.81294e-07
2.22109e-06
4.28389e-06
1.35944e-06
8.42203e-07
1.17056e-06
2.98034e-06
1.29454e-05
5.24484e-05
5.26442e-05
2.34719e-05
5.45805e-26
4.37262e-22
2.38298e-19
3.03358e-17
1.53685e-15
4.03313e-14
6.38462e-13
6.71253e-12
5.01523e-11
2.80733e-10
1.21837e-09
4.20085e-09
1.18083e-08
2.7756e-08
5.5988e-08
1.00543e-07
1.62154e-07
2.24963e-07
2.61728e-07
2.6691e-07
3.31515e-07
2.76828e-07
2.76866e-07
2.79921e-07
2.8224e-07
2.92334e-07
3.04046e-07
3.10036e-07
3.05574e-07
3.13991e-07
6.17341e-07
1.86461e-05
3.21769e-05
3.21384e-05
6.97467e-06
3.73408e-07
7.25127e-07
2.1463e-06
3.75353e-07
4.08462e-07
2.20367e-06
1.31687e-05
5.50927e-06
3.06613e-05
0.000196602
3.59881e-05
1.58775e-05
2.52459e-05
3.02081e-05
1.1668e-07
4.08537e-27
8.73203e-23
7.11869e-20
1.13704e-17
6.71622e-16
1.97264e-14
3.40528e-13
3.83711e-12
3.03125e-11
1.77019e-10
7.95759e-10
2.8755e-09
8.50038e-09
2.09587e-08
4.42387e-08
8.28184e-08
1.40519e-07
2.08999e-07
2.66332e-07
2.91499e-07
2.91074e-07
2.94821e-07
2.7602e-07
2.76541e-07
2.80286e-07
2.9455e-07
3.1503e-07
3.29502e-07
3.11477e-07
3.25751e-07
4.02536e-06
3.18294e-05
3.21787e-05
3.21797e-05
2.32282e-05
3.84226e-07
4.2029e-07
5.24561e-06
9.02118e-06
6.51397e-07
2.72474e-06
3.52564e-05
9.83543e-05
0.00013407
0.000699928
0.000270507
4.34208e-06
2.74781e-06
3.34498e-07
6.22778e-08
2.58604e-28
1.70006e-23
2.01063e-20
4.01296e-18
2.76494e-16
9.1029e-15
1.71688e-13
2.07791e-12
1.74248e-11
1.07111e-10
5.03856e-10
1.88124e-09
5.76493e-09
1.50011e-08
3.32011e-08
6.44137e-08
1.13593e-07
1.79036e-07
2.41824e-07
2.8008e-07
2.87061e-07
2.8033e-07
2.78444e-07
2.77677e-07
2.87518e-07
3.08537e-07
3.4474e-07
3.34431e-07
3.21997e-07
3.40469e-07
7.04442e-06
3.21672e-05
3.21769e-05
3.21729e-05
1.45199e-05
3.98831e-07
5.61197e-07
8.0682e-06
2.14448e-05
3.8605e-05
4.43352e-05
0.000178049
0.0006593
0.000409203
0.000987924
0.0125643
0.0309663
0.0881349
0.225575
0.38093
1.60385e-29
3.06798e-24
5.25095e-21
1.31428e-18
1.05999e-16
3.92335e-15
8.10605e-14
1.0562e-12
9.42323e-12
6.1139e-11
3.02059e-10
1.18e-09
3.76319e-09
1.00634e-08
2.33724e-08
4.75048e-08
8.6013e-08
1.42715e-07
2.07767e-07
2.57608e-07
2.78705e-07
2.80149e-07
2.77484e-07
2.77832e-07
2.91451e-07
3.18365e-07
3.25036e-07
1.26775e-06
4.79988e-06
5.53684e-06
7.43725e-06
2.98744e-05
3.21674e-05
3.01296e-05
4.01462e-06
4.41383e-07
4.69514e-06
3.58138e-05
4.25072e-05
5.27145e-05
0.000120439
0.000121369
0.000747623
0.00550081
0.0914523
0.234963
0.527934
0.81689
0.959595
1
1.01552e-30
4.96261e-25
1.243e-21
3.93157e-19
3.73224e-17
1.55972e-15
3.54242e-14
4.98344e-13
4.74202e-12
3.25444e-11
1.6919e-10
6.93356e-10
2.31517e-09
6.46846e-09
1.55154e-08
3.25861e-08
6.182e-08
1.05754e-07
1.65099e-07
2.24559e-07
2.60835e-07
2.7395e-07
2.74154e-07
4.53744e-07
2.8824e-07
3.23037e-07
3.31876e-07
9.8925e-07
1.14704e-05
1.6471e-05
2.04709e-05
3.20742e-05
3.21195e-05
1.32693e-05
6.34889e-06
1.95147e-05
5.36801e-05
0.00011577
0.000178314
0.000134405
0.000121371
0.000535012
0.00604157
0.250409
0.51258
0.854962
0.995647
1
1
1
5.83302e-32
7.01126e-26
2.6041e-22
1.0511e-19
1.18293e-17
5.61333e-16
1.40795e-14
2.1467e-13
2.18572e-12
1.59118e-11
8.72572e-11
3.75964e-10
1.31752e-09
3.86025e-09
9.68915e-09
2.12777e-08
4.16425e-08
7.37027e-08
1.20936e-07
1.7859e-07
2.29874e-07
2.56363e-07
2.68101e-07
2.71852e-07
2.87828e-07
3.2134e-07
3.34405e-07
2.13139e-06
4.72681e-06
3.2534e-06
8.58563e-06
3.0431e-05
3.18719e-05
1.06999e-05
7.31741e-06
4.46416e-05
0.000121188
0.000180752
0.000189898
0.000149379
0.000418921
0.0305687
0.363722
0.732464
0.980085
0.99979
0.999996
1
1
1
2.85922e-33
8.45787e-27
4.69554e-23
2.44289e-20
3.28693e-18
1.78318e-16
4.96843e-15
8.25218e-14
9.03094e-13
7.00207e-12
4.06545e-11
1.8481e-10
6.81969e-10
2.10271e-09
5.55284e-09
1.28273e-08
2.63655e-08
4.88946e-08
8.29454e-08
1.29397e-07
1.83485e-07
2.25558e-07
2.49715e-07
2.65269e-07
2.81722e-07
3.34458e-07
4.31202e-07
5.88125e-07
3.37668e-07
3.14938e-07
1.6221e-06
1.18765e-05
1.58666e-05
1.2793e-05
1.63109e-05
4.63558e-05
0.000114163
0.000133691
0.000141208
0.000327454
0.0190477
0.447292
0.885712
0.999791
0.999965
0.999992
1
1
1
1
1.172e-34
8.5416e-28
7.0952e-24
4.76603e-21
7.72113e-19
4.82816e-17
1.50537e-15
2.74231e-14
3.24611e-13
2.69659e-12
1.66712e-11
8.03997e-11
3.14122e-10
1.02481e-09
2.864e-09
7.00438e-09
1.52487e-08
2.99457e-08
5.36125e-08
8.82032e-08
1.33024e-07
1.79918e-07
2.17045e-07
2.47199e-07
2.71344e-07
3.33094e-07
4.35184e-07
5.59e-07
3.28128e-07
3.08023e-07
2.85778e-07
2.95799e-07
3.41563e-07
1.69515e-05
4.68438e-05
4.86051e-05
0.00021088
0.000141202
0.00025957
0.0296686
0.43162
0.933685
0.999847
0.999977
0.999997
1
1
1
1
1
3.96653e-36
7.05186e-29
8.73888e-25
7.56398e-22
1.4709e-19
1.06256e-17
3.73143e-16
7.5108e-15
9.69561e-14
8.7026e-13
5.77876e-12
2.98276e-11
1.24485e-10
4.33782e-10
1.29523e-09
3.38469e-09
7.87513e-09
1.65337e-08
3.16266e-08
5.5511e-08
8.95573e-08
1.3143e-07
1.71986e-07
2.12966e-07
2.49453e-07
3.18356e-07
4.47677e-07
8.66444e-07
3.1505e-07
2.73159e-07
2.74389e-07
2.81962e-07
2.96472e-07
5.887e-07
1.10556e-05
9.50407e-05
0.00137904
0.000447421
0.00454028
0.362781
0.895724
0.999847
0.999976
0.999996
1
1
1
1
1
1
1.09152e-37
4.62758e-30
8.46314e-26
9.36492e-23
2.17854e-20
1.81029e-18
7.14133e-17
1.59199e-15
2.25434e-14
2.20857e-13
1.59514e-12
8.93726e-12
4.04371e-11
1.52488e-10
4.93053e-10
1.39729e-09
3.52415e-09
8.01208e-09
1.65814e-08
3.14459e-08
5.48255e-08
8.7493e-08
1.2546e-07
1.67503e-07
2.09575e-07
2.71082e-07
4.00293e-07
8.67128e-07
7.29056e-07
2.5345e-07
2.65493e-07
2.7434e-07
2.86065e-07
1.59826e-06
3.11387e-06
0.00150336
0.0014255
0.00551065
0.242445
0.752187
0.999549
0.999964
0.999997
1
1
1
1
1
1
1
2.40273e-39
2.34062e-31
6.16457e-27
8.50809e-24
2.32002e-21
2.18573e-19
9.64478e-18
2.38968e-16
3.74613e-15
4.04697e-14
3.21287e-13
1.9749e-12
9.83351e-12
4.1123e-11
1.4786e-10
4.64837e-10
1.30147e-09
3.27525e-09
7.47202e-09
1.55661e-08
2.97379e-08
5.20626e-08
8.24401e-08
1.20116e-07
1.62966e-07
2.14616e-07
2.94842e-07
6.11579e-07
6.38094e-07
2.46204e-07
2.67407e-07
2.74294e-07
7.3259e-07
3.50651e-05
0.000178077
0.0035801
0.00229221
0.104714
0.531781
0.984536
0.999919
0.999994
1
1
1
1
1
1
1
1
4.14659e-41
8.79129e-33
3.254e-28
5.55538e-25
1.76193e-22
1.85552e-20
8.92394e-19
2.36768e-17
3.96408e-16
4.62327e-15
4.0426e-14
2.7951e-13
1.58147e-12
7.5333e-12
3.08945e-11
1.12367e-10
3.64071e-10
1.05515e-09
2.74554e-09
6.45544e-09
1.38058e-08
2.69282e-08
4.75602e-08
7.66851e-08
1.14238e-07
1.59736e-07
2.24296e-07
2.18383e-07
1.86676e-07
2.19017e-07
2.31526e-07
2.65304e-07
1.28772e-06
2.14261e-05
0.000193016
0.00108045
0.0204029
0.258971
0.872041
0.999604
0.999978
0.999999
1
1
1
1
1
1
1
1
6.45697e-43
1.00653e-33
1.45251e-28
5.55982e-25
2.81823e-22
3.80678e-20
1.98279e-18
4.98804e-17
7.0512e-16
6.21533e-15
3.70729e-14
1.61072e-13
5.53588e-13
1.6882e-12
5.32516e-12
1.88213e-11
6.8505e-11
2.38269e-10
7.49743e-10
2.09335e-09
5.20482e-09
1.16182e-08
2.32909e-08
4.22119e-08
6.99733e-08
1.06935e-07
1.56979e-07
2.07238e-07
1.58673e-07
3.53675e-07
4.51468e-07
4.68725e-07
2.79186e-06
1.68796e-06
-4.0669e-07
-9.00487e-06
0.0496036
0.576579
0.997698
0.999968
0.999999
1
1
1
1
1
1
1
1
1
1.32622e-41
3.12718e-32
3.44475e-27
1.04755e-23
4.45047e-21
5.27455e-19
2.47255e-17
5.69521e-16
7.51158e-15
6.33084e-14
3.69442e-13
1.5855e-12
5.2172e-12
1.35108e-11
2.74294e-11
4.512e-11
6.3316e-11
9.32286e-11
1.86797e-10
5.13039e-10
1.48741e-09
3.93503e-09
9.21566e-09
1.91867e-08
3.59886e-08
6.1337e-08
9.7293e-08
1.44392e-07
1.07718e-07
2.81099e-07
3.59388e-07
2.53778e-07
2.9328e-07
2.29242e-07
7.16351e-08
1.79451e-07
0.134473
0.856476
1
1
1
1
1
1
1
1
1
1
1
1
1.79258e-39
7.85558e-38
2.92152e-36
9.59171e-35
2.84091e-33
7.64206e-32
1.83418e-30
3.86118e-29
7.02055e-28
1.08888e-26
1.43426e-25
1.62204e-24
1.597e-23
1.31977e-22
8.91699e-22
4.53773e-21
1.57343e-20
3.85442e-20
7.24387e-20
1.06752e-19
1.26728e-19
1.23638e-19
1.00169e-19