/*--------------------------------*- C++ -*----------------------------------*\
| =========                 |                                                 |
| \\      /  F ield         | OpenFOAM: The Open Source CFD Toolbox           |
|  \\    /   O peration     | Version:  2.4.0                                 |
|   \\  /    A nd           | Web:      www.OpenFOAM.org                      |
|    \\/     M anipulation  |                                                 |
\*---------------------------------------------------------------------------*/
FoamFile
{
    version     2.0;
    format      ascii;
    class       surfaceScalarField;
    location    "0.183";
    object      phiAlpha;
}
// * * * * * * * * * * * * * * * * * * * * * * * * * * * * * * * * * * * * * //

dimensions      [0 3 -1 0 0 0 0];

internalField   nonuniform List<scalar> 
19800
(
-1.72809e-68
2.7852e-72
-7.31667e-65
4.33818e-68
-3.39798e-62
5.02361e-65
-5.09436e-60
1.0919e-62
-4.27347e-58
9.43287e-61
-2.74253e-56
4.91218e-59
-1.55384e-54
1.88226e-57
-8.17366e-53
5.12645e-56
-3.99166e-51
-2.52649e-52
-1.73565e-49
-4.02317e-49
-6.46768e-48
-3.35422e-47
-1.95876e-46
-1.8641e-45
-4.50012e-45
-7.84744e-44
-7.20295e-44
-2.54767e-42
-5.47552e-43
-6.54753e-41
5.33948e-43
-1.36088e-39
2.99874e-41
-2.29262e-38
7.3935e-40
-3.08113e-37
1.26154e-38
-3.35806e-36
1.66968e-37
-3.04404e-35
1.77495e-36
-2.30708e-34
1.56315e-35
-1.48419e-33
1.16494e-34
-8.22448e-33
7.39504e-34
-3.93941e-32
3.98155e-33
-1.62413e-31
1.80137e-32
-5.72817e-31
6.75438e-32
-1.70901e-30
2.03557e-31
-4.18559e-30
4.59636e-31
-7.84312e-30
6.60935e-31
-9.75583e-30
6.06498e-31
-7.79541e-30
3.57382e-31
-3.76581e-30
1.39643e-31
-9.41095e-31
3.77414e-32
2.01989e-35
7.6427e-33
1.37664e-34
1.16469e-33
4.45099e-35
1.43486e-34
8.90124e-36
1.38687e-35
1.26884e-36
1.0059e-36
1.31298e-37
5.37523e-38
1.00719e-38
2.0593e-39
5.80701e-40
5.28477e-41
2.53148e-41
7.08571e-43
8.33753e-43
-8.0676e-47
2.05895e-44
-5.58164e-48
3.7568e-46
-9.19784e-50
4.96967e-48
-8.45416e-52
4.62428e-50
-1.63872e-53
2.97999e-52
-1.03185e-51
4.44156e-54
2.25857e-52
-6.82288e-50
-6.53019e-65
1.68956e-68
-2.34126e-61
2.72968e-64
-9.47963e-59
2.56034e-61
-1.271e-56
4.36224e-59
-9.05504e-55
2.31561e-57
-4.40346e-53
-9.3342e-54
-1.42809e-51
-8.99883e-51
-8.22592e-51
-8.81147e-49
7.20947e-50
-6.00349e-47
7.77117e-48
-3.34713e-45
5.41953e-46
-1.57698e-43
2.92139e-44
-6.24827e-42
1.25095e-42
-2.04167e-40
4.22788e-41
-5.36884e-39
1.14785e-39
-1.14601e-37
2.54824e-38
-2.00822e-36
4.62835e-37
-2.89189e-35
6.7645e-36
-3.36346e-34
8.08609e-35
-3.19061e-33
8.10909e-34
-2.52814e-32
6.85933e-33
-1.68801e-31
4.96853e-32
-9.64937e-31
3.126e-31
-4.80154e-30
1.71211e-30
-2.09048e-29
8.10923e-30
-7.93917e-29
3.2891e-29
-2.61367e-28
1.12494e-28
-7.3561e-28
3.14099e-28
-1.71323e-27
6.70098e-28
-3.09208e-27
9.63448e-28
-3.86875e-27
9.36308e-28
-3.27671e-27
6.20411e-28
-1.80653e-27
2.89771e-28
-5.93891e-28
1.02093e-28
-7.24837e-29
2.91781e-29
2.71899e-31
6.97134e-30
1.78849e-31
1.41357e-30
6.18202e-32
2.35472e-31
1.51018e-32
3.1706e-32
2.78771e-33
3.39161e-33
3.96354e-34
2.82725e-34
4.35036e-35
1.79269e-35
3.65964e-36
8.36387e-37
2.32517e-37
2.73525e-38
1.09352e-38
5.75634e-40
3.71067e-40
6.20848e-42
8.80408e-42
-9.6991e-47
1.41046e-43
-1.0091e-45
1.49324e-45
-8.27077e-44
1.31981e-45
5.67817e-44
-3.84629e-42
-3.48168e-62
1.46505e-65
-1.27223e-58
3.15769e-61
-4.08284e-56
2.3995e-58
-3.13603e-54
2.18266e-56
8.4749e-55
-8.22294e-52
5.21755e-52
-1.84845e-49
6.66834e-50
-1.72443e-47
5.62739e-48
-1.14082e-45
3.76495e-46
-6.11532e-44
2.13201e-44
-2.80602e-42
1.03381e-42
-1.11229e-40
4.24869e-41
-3.7476e-39
1.44931e-39
-1.04907e-37
4.00367e-38
-2.37735e-36
9.03546e-37
-4.39158e-35
1.6851e-35
-6.67207e-34
2.60022e-34
-8.36583e-33
3.26349e-33
-8.52519e-32
3.36501e-32
-7.10333e-31
2.91984e-31
-4.94793e-30
2.15096e-30
-2.9165e-29
1.36661e-29
-1.48042e-28
7.60991e-29
-6.59274e-28
3.72911e-28
-2.59511e-27
1.60042e-27
-9.02066e-27
5.96322e-27
-2.7525e-26
1.89776e-26
-7.25958e-26
4.98904e-26
-1.60045e-25
1.01872e-25
-2.77535e-25
1.46421e-25
-3.46001e-25
1.48585e-25
-3.03236e-25
1.07505e-25
-1.80364e-25
5.67516e-26
-6.69121e-26
2.35921e-26
-1.09944e-26
8.22214e-27
7.66227e-29
2.50198e-27
7.29219e-29
6.49737e-28
3.30271e-29
1.40975e-28
1.05643e-29
2.51723e-29
2.58006e-30
3.63318e-30
4.91012e-31
4.151e-31
7.28291e-32
3.65838e-32
8.32657e-33
2.403e-33
7.18777e-34
1.12379e-34
4.55342e-35
3.51034e-36
2.04439e-36
6.59828e-38
6.25321e-38
5.72007e-40
1.25284e-39
-2.22857e-41
2.1495e-41
-3.96146e-39
2.33891e-40
6.4653e-39
-1.52046e-37
-6.32511e-60
5.99782e-63
-2.01426e-56
1.60403e-58
1.12072e-57
8.20201e-56
1.5699e-53
-1.61554e-51
4.69838e-51
-8.8641e-49
6.40596e-49
-1.1038e-46
5.74297e-47
-8.41782e-45
3.92212e-45
-4.80795e-43
2.20101e-43
-2.24002e-41
1.05891e-41
-8.92424e-40
4.40014e-40
-3.0803e-38
1.55537e-38
-9.05153e-37
4.57812e-37
-2.21424e-35
1.0947e-35
-4.39365e-34
2.14332e-34
-7.11102e-33
3.46934e-33
-9.45522e-32
4.66142e-32
-1.03872e-30
5.12188e-31
-9.31209e-30
4.63181e-30
-6.84134e-29
3.52556e-29
-4.20346e-28
2.28655e-28
-2.1921e-27
1.28578e-27
-9.89509e-27
6.38393e-27
-3.94594e-26
2.81731e-26
-1.40384e-25
1.10253e-25
-4.46114e-25
3.79591e-25
-1.25956e-24
1.12986e-24
-3.10887e-24
2.80988e-24
-6.48994e-24
5.5137e-24
-1.08363e-23
7.89421e-24
-1.3439e-23
8.267e-24
-1.20911e-23
6.39621e-24
-7.60807e-24
3.70463e-24
-3.06435e-24
1.73217e-24
-5.74165e-25
6.92688e-25
7.52491e-27
2.45882e-25
8.73242e-27
7.50297e-26
4.67678e-27
1.93292e-26
1.77834e-27
4.13638e-27
5.20202e-28
7.21431e-28
1.1942e-28
1.00259e-28
2.14798e-29
1.07921e-29
2.98509e-30
8.66498e-31
3.12637e-31
4.93174e-32
2.38157e-32
1.85738e-33
1.26241e-33
4.18702e-35
4.43296e-35
4.62361e-37
9.84706e-37
1.82355e-39
6.05418e-38
-1.03705e-35
1.34657e-36
2.7444e-35
-3.39414e-34
1.17004e-62
1.87517e-60
1.69464e-57
4.78618e-56
1.35782e-53
9.98218e-54
8.75336e-51
-1.22447e-48
1.88502e-48
-2.90401e-46
2.20928e-46
-3.00302e-44
1.76513e-44
-2.02546e-42
1.07624e-42
-1.0306e-40
5.34741e-41
-4.24889e-39
2.26213e-39
-1.48625e-37
8.26435e-38
-4.50474e-36
2.56758e-36
-1.16464e-34
6.64606e-35
-2.51162e-33
1.39866e-33
-4.40021e-32
2.4092e-32
-6.2835e-31
3.42414e-31
-7.35398e-30
4.04104e-30
-7.10243e-29
3.91356e-29
-5.611e-28
3.12455e-28
-3.64051e-27
2.09942e-27
-1.97688e-26
1.20501e-26
-9.13445e-26
6.02523e-26
-3.67138e-25
2.67796e-25
-1.31241e-24
1.06778e-24
-4.22138e-24
3.81984e-24
-1.22501e-23
1.21738e-23
-3.19311e-23
3.39414e-23
-7.35936e-23
8.00112e-23
-1.45436e-22
1.51228e-22
-2.34348e-22
2.15153e-22
-2.89438e-22
2.30722e-22
-2.66756e-22
1.88157e-22
-1.75946e-22
1.1746e-22
-7.5613e-23
6.01046e-23
-1.53426e-23
2.66692e-23
3.53315e-25
1.05791e-23
4.6168e-25
3.63267e-24
2.78084e-25
1.06203e-24
1.19889e-25
2.59795e-25
4.00684e-26
5.21015e-26
1.05763e-26
8.3615e-27
2.19754e-27
1.04138e-27
3.53571e-28
9.65834e-29
4.28126e-29
6.29984e-30
3.74211e-30
2.67164e-31
2.23773e-31
6.58238e-33
8.61828e-33
7.63835e-35
2.03195e-34
9.01012e-37
5.30046e-35
-5.75814e-33
1.10449e-33
1.82015e-32
-1.48224e-31
2.38262e-59
4.96968e-58
1.23858e-54
9.43005e-54
3.81223e-51
-1.40186e-49
1.92086e-48
-2.9207e-46
3.67512e-46
-5.3259e-44
3.94812e-44
-4.84636e-42
2.88858e-42
-2.93531e-40
1.59797e-40
-1.33984e-38
7.1154e-39
-4.91268e-37
2.67035e-37
-1.51321e-35
8.64504e-36
-4.03422e-34
2.38248e-34
-9.21064e-33
5.4766e-33
-1.75974e-31
1.02425e-31
-2.73719e-30
1.56555e-30
-3.46695e-29
1.96824e-29
-3.58857e-28
2.05081e-28
-3.05527e-27
1.7565e-27
-2.12882e-26
1.2422e-26
-1.22006e-25
7.39471e-26
-5.85932e-25
3.76816e-25
-2.40015e-24
1.68043e-24
-8.59406e-24
6.70513e-24
-2.75614e-23
2.42088e-23
-8.01893e-23
7.92293e-23
-2.12264e-22
2.33631e-22
-5.09275e-22
6.09668e-22
-1.09216e-21
1.36277e-21
-2.0402e-21
2.48481e-21
-3.17825e-21
3.50889e-21
-3.92244e-21
3.83527e-21
-3.71079e-21
3.2656e-21
-2.55629e-21
2.17138e-21
-1.1619e-21
1.19571e-21
-2.50882e-22
5.76641e-22
9.28113e-24
2.49827e-22
1.32335e-23
9.4365e-23
8.74283e-24
3.0592e-23
4.17158e-24
8.35694e-24
1.55577e-24
1.88228e-24
4.61367e-25
3.40661e-25
1.08256e-25
4.79476e-26
1.9731e-26
5.02071e-27
2.70724e-27
3.67256e-28
2.6685e-28
1.71613e-29
1.77479e-29
4.49622e-31
7.40657e-31
5.23354e-33
1.85459e-32
-4.5622e-33
1.3837e-32
-1.0347e-30
2.51054e-31
3.46931e-30
-2.07069e-29
3.57902e-57
1.08273e-55
2.12761e-52
1.36252e-51
5.40413e-49
-5.88134e-47
2.43163e-46
-4.15451e-44
4.30119e-44
-6.40411e-42
4.28955e-42
-5.19952e-40
2.89367e-40
-2.83618e-38
1.46167e-38
-1.16306e-36
5.87198e-37
-3.80008e-35
1.96542e-35
-1.03187e-33
5.66268e-34
-2.41777e-32
1.39305e-32
-4.87959e-31
2.86489e-31
-8.27976e-30
4.79922e-30
-1.14772e-28
6.55781e-29
-1.29496e-27
7.34219e-28
-1.19088e-26
6.78481e-27
-8.96536e-26
5.15212e-26
-5.51536e-25
3.23297e-25
-2.79133e-24
1.70865e-24
-1.18512e-23
7.74449e-24
-4.30227e-23
3.08587e-23
-1.3719e-22
1.10773e-22
-3.94799e-22
3.62809e-22
-1.03939e-21
1.08658e-21
-2.50785e-21
2.95995e-21
-5.52125e-21
7.21323e-21
-1.09664e-20
1.52755e-20
-1.9311e-20
2.68916e-20
-2.90976e-20
3.76972e-20
-3.60958e-20
4.19076e-20
-3.526e-20
3.70238e-20
-2.53585e-20
2.60131e-20
-1.21044e-20
1.52584e-20
-2.76411e-21
7.89939e-21
1.51087e-22
3.68726e-21
2.3241e-22
1.51315e-21
1.66196e-22
5.37815e-22
8.67084e-23
1.624e-22
3.5702e-23
4.07054e-23
1.1784e-23
8.24049e-24
3.09705e-24
1.30193e-24
6.35214e-25
1.53237e-25
9.83446e-26
1.25645e-26
1.0931e-26
6.49951e-28
8.12982e-28
1.82496e-29
3.71286e-29
2.15599e-31
1.011e-30
-9.64988e-31
1.37531e-30
-7.53742e-29
2.2253e-29
2.64967e-28
-1.22719e-27
-3.17232e-51
2.07079e-53
1.27368e-50
1.6046e-49
4.2484e-47
-8.22802e-45
1.8763e-44
-4.06441e-42
3.16475e-42
-5.45601e-40
2.97171e-40
-3.96576e-38
1.86866e-38
-1.94729e-36
8.71005e-37
-7.17205e-35
3.19034e-35
-2.09007e-33
9.60781e-34
-5.00904e-32
2.47789e-32
-1.02986e-30
5.47745e-31
-1.83491e-29
1.01508e-29
-2.76567e-28
1.53485e-28
-3.42254e-27
1.88913e-27
-3.45014e-26
1.89738e-26
-2.83049e-25
1.56333e-25
-1.89135e-24
1.05564e-24
-1.02937e-23
5.88552e-24
-4.6014e-23
2.76443e-23
-1.72541e-22
1.11551e-22
-5.54466e-22
3.97462e-22
-1.57296e-21
1.28522e-21
-4.06038e-21
3.82411e-21
-9.67335e-21
1.04858e-20
-2.12702e-20
2.63451e-20
-4.28709e-20
5.97752e-20
-7.84569e-20
1.19739e-19
-1.29736e-19
2.03474e-19
-1.88574e-19
2.83574e-19
-2.37664e-19
3.20594e-19
-2.42111e-19
2.92648e-19
-1.81824e-19
2.15742e-19
-9.03203e-20
1.33901e-19
-2.16386e-20
7.38901e-20
1.64403e-21
3.69152e-20
2.71086e-21
1.63697e-20
2.08411e-21
6.35454e-21
1.18321e-21
2.11652e-21
5.36363e-22
5.90022e-22
1.96825e-22
1.33736e-22
5.79659e-23
2.37856e-23
1.34078e-23
3.16493e-24
2.35331e-24
2.94032e-25
2.97628e-25
1.71587e-26
2.51499e-26
5.31436e-28
1.28593e-27
6.58897e-30
3.87418e-29
-5.10251e-29
6.39669e-29
-2.65507e-27
9.4842e-28
1.00106e-26
-3.71506e-26
-1.42013e-48
3.60052e-51
-7.86635e-46
1.72585e-47
8.96375e-46
-7.13229e-43
7.11279e-43
-2.9101e-40
1.3136e-40
-3.45163e-38
1.24004e-38
-2.25149e-36
7.58689e-37
-9.94837e-35
3.37107e-35
-3.28841e-33
1.15587e-33
-8.55007e-32
3.19795e-32
-1.81102e-30
7.48344e-31
-3.26268e-29
1.50184e-29
-5.11307e-28
2.53083e-28
-6.83127e-27
3.48386e-27
-7.54234e-26
3.89437e-26
-6.79987e-25
3.53747e-25
-4.99047e-24
2.61684e-24
-2.97201e-23
1.57836e-23
-1.43588e-22
7.83538e-23
-5.67874e-22
3.2726e-22
-1.87887e-21
1.17583e-21
-5.33482e-21
3.74637e-21
-1.34425e-20
1.09186e-20
-3.11085e-20
2.95434e-20
-6.70707e-20
7.42408e-20
-1.3444e-19
1.71921e-19
-2.47871e-19
3.62158e-19
-4.15942e-19
6.85288e-19
-6.43497e-19
1.12139e-18
-8.93882e-19
1.56134e-18
-1.1762e-18
1.79779e-18
-1.26938e-18
1.68893e-18
-9.90377e-19
1.29759e-18
-5.01887e-19
8.48372e-19
-1.23468e-19
4.97206e-19
1.27758e-20
2.65228e-19
2.22587e-20
1.26909e-19
1.8314e-20
5.3821e-20
1.13007e-20
1.98203e-20
5.64863e-21
6.17274e-21
2.31341e-21
1.57668e-21
7.67863e-22
3.18408e-22
2.01831e-22
4.84617e-23
4.05684e-23
5.18872e-24
5.92209e-24
3.50698e-25
5.80828e-25
1.2486e-26
3.42756e-26
1.7048e-28
1.15343e-27
-1.15727e-27
1.61098e-27
-5.19244e-26
2.25361e-26
2.166e-25
-6.55741e-25
-2.53791e-46
5.59193e-49
-2.02568e-43
1.81734e-45
-3.20822e-41
-4.08029e-41
-1.69141e-39
-1.54797e-38
1.0735e-40
-1.65357e-36
1.63706e-37
-9.74873e-35
1.44412e-35
-3.89272e-33
7.32482e-34
-1.15674e-31
2.60502e-32
-2.68851e-30
7.06087e-31
-5.04825e-29
1.55891e-29
-7.97363e-28
2.90682e-28
-1.09315e-26
4.52646e-27
-1.28899e-25
5.74094e-26
-1.26546e-24
5.88605e-25
-1.01914e-23
4.87962e-24
-6.69559e-23
3.26905e-23
-3.56635e-22
1.77307e-22
-1.53677e-21
7.86962e-22
-5.39881e-21
2.92531e-21
-1.57636e-20
9.35344e-21
-3.94529e-20
2.66321e-20
-8.81035e-20
6.99719e-20
-1.82675e-19
1.72314e-19
-3.56708e-19
3.97373e-19
-6.52657e-19
8.49051e-19
-1.10216e-18
1.65807e-18
-1.6896e-18
2.96706e-18
-2.44418e-18
4.64504e-18
-3.18204e-18
6.59238e-18
-4.76897e-18
7.75864e-18
-5.55938e-18
7.4327e-18
-4.42196e-18
5.8779e-18
-2.17134e-18
4.02782e-18
-5.18533e-19
2.50334e-18
7.53805e-20
1.42541e-18
1.34401e-19
7.36506e-19
1.17821e-19
3.42158e-19
7.90922e-20
1.40043e-19
4.37838e-20
4.9093e-20
2.01537e-20
1.42656e-20
7.60662e-21
3.30869e-21
2.2959e-21
5.84098e-22
5.35016e-22
7.3408e-23
9.15492e-23
5.90948e-24
1.06592e-23
2.53346e-25
7.51252e-25
4.09185e-27
2.89771e-26
-1.29541e-26
2.45127e-26
-6.23886e-25
3.30223e-25
2.97871e-24
-7.43083e-24
-3.00692e-44
7.40833e-47
-2.3467e-41
1.80526e-43
-4.41441e-39
-1.3233e-39
-3.70746e-37
-5.97435e-37
-1.7683e-35
-5.949e-35
-5.20692e-34
-3.21736e-33
-8.90693e-33
-1.17059e-31
-3.20951e-32
-3.14835e-30
1.99303e-31
-6.58212e-29
8.38481e-30
-1.10535e-27
2.0681e-28
-1.5405e-26
3.86517e-27
-1.84424e-25
5.78919e-26
-1.909e-24
6.92141e-25
-1.65638e-23
6.6078e-24
-1.18771e-22
5.05568e-23
-6.976e-22
3.09952e-22
-3.33021e-21
1.52591e-21
-1.287e-20
6.09852e-21
-4.04469e-20
2.0221e-20
-1.04451e-19
5.74769e-20
-2.2988e-19
1.46048e-19
-4.53698e-19
3.45884e-19
-8.42244e-19
7.76151e-19
-1.49138e-18
1.64584e-18
-2.49843e-18
3.25446e-18
-3.88024e-18
5.89506e-18
-5.42179e-18
1.00583e-17
-7.38078e-18
1.48983e-17
-8.77475e-18
2.33366e-17
-1.85529e-17
2.81196e-17
-2.21129e-17
2.68455e-17
-1.77983e-17
2.10778e-17
-7.94205e-18
1.48532e-17
-1.61657e-18
9.74179e-18
3.54639e-19
5.91869e-18
6.15656e-19
3.3049e-18
5.72501e-19
1.68591e-18
4.18585e-19
7.70679e-19
2.5779e-19
3.06378e-19
1.34342e-19
1.02254e-19
5.81965e-20
2.75479e-20
2.0388e-20
5.71634e-21
5.57499e-21
8.5737e-22
1.13416e-21
8.41995e-23
1.59816e-22
4.53611e-24
1.38949e-23
9.3933e-26
6.43136e-25
-6.52631e-26
2.47032e-25
-4.93626e-24
3.21653e-24
2.80305e-23
-5.78971e-23
-2.58589e-42
7.90075e-45
-1.82979e-39
1.54448e-41
-3.28666e-37
8.00208e-41
-2.7061e-35
-1.56991e-35
-1.29735e-33
-1.57521e-33
-4.06206e-32
-8.02783e-32
-8.79902e-31
-2.70607e-30
-1.33717e-29
-6.66039e-29
-1.34479e-28
-1.26077e-27
-5.77565e-28
-1.90107e-26
9.0518e-28
-2.35696e-25
2.97916e-26
-2.49132e-24
5.01051e-25
-2.26329e-23
6.00924e-24
-1.72718e-22
5.51136e-23
-1.09619e-21
3.96173e-22
-5.74087e-21
2.25244e-21
-2.45814e-20
1.01894e-20
-8.56971e-20
3.70821e-20
-2.4355e-19
1.10187e-19
-5.58783e-19
2.78137e-19
-1.08015e-18
6.29319e-19
-1.87755e-18
1.34265e-18
-3.12144e-18
2.7482e-18
-5.01225e-18
5.3742e-18
-7.71567e-18
9.88157e-18
-1.10864e-17
1.66339e-17
-1.41015e-17
2.75869e-17
-1.81866e-17
3.86026e-17
-1.99328e-17
8.17813e-17
-7.2082e-17
9.35157e-17
-5.79927e-17
8.76227e-17
-4.80415e-17
6.56918e-17
-2.53262e-17
4.5031e-17
-3.61175e-18
3.03576e-17
1.33496e-18
1.94823e-17
2.16884e-18
1.1702e-17
2.13623e-18
6.54796e-18
1.70133e-18
3.352e-18
1.16921e-18
1.5199e-18
6.94098e-19
5.87243e-19
3.47966e-19
1.85507e-19
1.42834e-19
4.57412e-20
4.63042e-20
8.29409e-21
1.13282e-20
1.01092e-21
1.95922e-21
7.05261e-23
2.1512e-22
2.00411e-24
1.25893e-23
6.40754e-27
1.8801e-24
-2.69877e-23
2.20893e-23
1.91294e-22
-3.27203e-22
-1.70301e-40
6.62223e-43
-1.06656e-37
1.09387e-39
-1.73272e-35
9.4881e-38
-1.30077e-33
-1.87558e-34
-5.72612e-32
-2.72536e-32
-1.66418e-30
-1.41633e-30
-3.41425e-29
-4.59923e-29
-5.14497e-28
-1.06456e-27
-5.79573e-27
-1.86465e-26
-4.82509e-26
-2.56939e-25
-2.68492e-25
-2.87449e-24
-2.99346e-25
-2.68937e-23
2.14081e-24
-2.15213e-22
3.46529e-23
-1.45665e-21
3.33558e-22
-8.14066e-21
2.33968e-21
-3.7861e-20
1.2595e-20
-1.45438e-19
5.32168e-20
-4.6027e-19
1.79294e-19
-1.20102e-18
4.81018e-19
-2.46156e-18
1.0783e-18
-4.18277e-18
2.16527e-18
-6.38232e-18
4.16026e-18
-9.54484e-18
7.76033e-18
-1.38394e-17
1.40261e-17
-1.9591e-17
2.40708e-17
-2.60563e-17
3.76145e-17
-3.00297e-17
6.15648e-17
-3.49315e-17
8.75224e-17
-4.75008e-17
3.02466e-16
-1.77038e-16
2.08863e-16
1.05878e-16
1.9316e-16
1.28296e-16
1.86295e-16
-9.23807e-17
1.2202e-16
-5.35019e-18
8.0033e-17
3.61902e-18
5.21951e-17
5.88618e-18
3.30112e-17
6.15306e-18
2.00743e-17
5.31052e-18
1.14928e-17
4.07098e-18
5.96347e-18
2.76477e-18
2.6823e-18
1.61462e-18
1.00018e-18
7.82397e-19
2.95204e-19
3.03019e-19
6.52369e-20
8.98385e-20
9.96261e-21
1.92275e-20
9.14703e-22
2.70263e-21
3.74657e-23
2.10075e-22
4.56965e-25
1.4658e-23
-1.04433e-22
1.11836e-22
9.90766e-22
-1.39685e-21
-8.63698e-39
4.32731e-41
-4.69556e-36
6.14949e-38
-6.74133e-34
7.4246e-36
-4.48193e-32
1.89991e-34
-1.7572e-30
-1.94208e-31
-4.59768e-29
-1.59109e-29
-8.59558e-28
-5.53272e-28
-1.19919e-26
-1.26114e-26
-1.28406e-25
-2.09533e-25
-1.07098e-24
-2.6796e-24
-6.92661e-24
-2.74358e-23
-3.2534e-23
-2.31907e-22
-7.34228e-23
-1.65307e-21
8.01962e-23
-9.8855e-21
1.33261e-21
-4.92184e-20
1.01613e-20
-2.02824e-19
5.39848e-20
-6.98417e-19
2.18265e-19
-2.02032e-18
6.97082e-19
-4.93121e-18
1.70395e-18
-9.04399e-18
3.39726e-18
-1.35105e-17
6.03117e-18
-1.8177e-17
1.04688e-17
-2.48265e-17
1.76926e-17
-3.20896e-17
2.95147e-17
-4.14896e-17
4.70255e-17
-5.01967e-17
6.70141e-17
-5.18285e-17
1.02411e-16
-4.51408e-17
1.95249e-16
-5.5175e-17
2.0749e-15
-6.94584e-16
3.10538e-15
-2.15042e-15
1.79084e-15
-2.68312e-15
6.60849e-16
-1.12839e-16
3.35966e-16
-9.55968e-18
1.93127e-16
7.21978e-18
1.18288e-16
1.25784e-17
7.49097e-17
1.38768e-17
4.833e-17
1.2674e-17
3.07234e-17
1.07544e-17
1.82561e-17
8.37048e-18
9.58981e-18
5.7227e-18
4.23605e-18
3.29111e-18
1.50177e-18
1.53023e-18
4.05763e-19
5.52056e-19
7.78511e-20
1.46675e-19
9.42631e-21
2.64678e-20
5.62394e-22
2.78614e-21
9.75046e-24
1.59902e-22
-2.8249e-22
4.3641e-22
4.04567e-21
-4.65222e-21
-3.17767e-37
2.08741e-39
-1.51562e-34
2.53206e-36
-1.93299e-32
3.32558e-34
-1.1463e-30
1.54637e-32
-3.97937e-29
2.68053e-31
-9.21061e-28
-5.81928e-29
-1.54533e-26
-4.27328e-27
-1.95666e-25
-1.07899e-25
-1.92453e-24
-1.77731e-24
-1.50232e-23
-2.15683e-23
-9.40241e-23
-2.04737e-22
-4.65971e-22
-1.57915e-21
-1.68413e-21
-1.0145e-20
-3.26098e-21
-5.44276e-20
1.90082e-21
-2.41322e-19
2.97897e-20
-8.913e-19
1.74055e-19
-2.75495e-18
7.02027e-19
-7.32045e-18
2.19492e-18
-1.69696e-17
4.91669e-18
-2.72883e-17
8.71012e-18
-3.57517e-17
1.37129e-17
-4.40155e-17
2.18013e-17
-5.66958e-17
3.29134e-17
-6.3705e-17
5.02988e-17
-7.38079e-17
7.29005e-17
-7.79788e-17
9.19785e-17
-7.40925e-17
1.06851e-16
-6.06646e-17
3.5781e-15
-8.52275e-16
9.38841e-15
-2.09755e-15
9.14267e-15
-2.25873e-15
8.29148e-15
-2.2012e-15
7.69298e-16
-4.92659e-16
3.48236e-16
-6.20498e-17
2.74986e-16
5.05394e-18
1.97631e-16
1.99244e-17
1.32307e-16
2.40761e-17
9.04973e-17
2.29433e-17
6.35709e-17
2.13644e-17
4.32288e-17
1.90635e-17
2.65377e-17
1.53092e-17
1.38886e-17
1.04837e-17
5.90979e-18
5.86372e-18
1.9488e-18
2.57515e-18
4.68123e-19
8.48032e-19
7.41967e-20
1.95598e-19
6.3724e-21
2.78925e-20
1.81342e-22
1.97292e-21
-4.68755e-22
1.38093e-21
1.34373e-20
-1.23563e-20
-8.41227e-36
7.09825e-38
-3.57698e-33
7.50857e-35
-4.10373e-31
9.89743e-33
-2.18787e-29
5.09619e-31
-6.79447e-28
1.31646e-29
-1.39638e-26
1.48059e-28
-2.07144e-25
-1.07102e-26
-2.35951e-24
-6.19235e-25
-2.10869e-23
-1.11637e-23
-1.50953e-22
-1.33379e-22
-8.77323e-22
-1.19505e-21
-4.14213e-21
-8.50717e-21
-1.53607e-20
-4.96778e-20
-4.0844e-20
-2.41028e-19
-5.71012e-20
-9.6611e-19
3.64053e-20
-3.20307e-18
3.99014e-19
-8.98097e-18
1.74995e-18
-2.19904e-17
5.56824e-18
-4.83872e-17
1.12336e-17
-6.18622e-17
1.74809e-17
-7.375e-17
2.52938e-17
-8.98882e-17
3.80792e-17
-1.16289e-16
5.01254e-17
-1.09107e-16
6.90201e-17
-1.08946e-16
8.75374e-17
-9.71257e-17
9.90866e-17
-9.47539e-17
1.28941e-16
-9.22569e-17
8.74108e-15
-9.24871e-17
9.64649e-15
-3.37183e-15
8.94563e-15
-1.92509e-15
7.90292e-15
-1.53148e-15
3.71802e-15
-1.57187e-15
1.96887e-16
-2.385e-17
2.20369e-16
3.0327e-18
1.97723e-16
5.04915e-17
1.57205e-16
2.80207e-17
1.26059e-16
2.97196e-17
1.0221e-16
3.18549e-17
8.03045e-17
3.2966e-17
5.74552e-17
3.11684e-17
3.54068e-17
2.54009e-17
1.79519e-17
1.7044e-17
7.16473e-18
9.06734e-18
2.13199e-18
3.67323e-18
4.35361e-19
1.07037e-18
5.21819e-20
2.02916e-19
2.49397e-21
2.02319e-20
-3.72631e-23
4.12013e-21
3.71714e-20
-2.6444e-20
-1.59912e-34
1.68813e-36
-6.15779e-32
1.59506e-33
-6.41354e-30
2.04576e-31
-3.09799e-28
1.05372e-29
-8.68709e-27
2.8557e-28
-1.60428e-25
4.27089e-27
-2.1263e-24
2.69353e-26
-2.15466e-23
-1.62202e-24
-1.74412e-22
-4.96903e-23
-1.13785e-21
-6.25336e-22
-6.06214e-21
-5.43519e-21
-2.64915e-20
-3.62655e-20
-9.36078e-20
-1.94769e-19
-2.55042e-19
-8.60556e-19
-4.8594e-19
-3.13178e-18
-4.15156e-19
-9.40965e-18
5.24623e-19
-2.39076e-17
3.3177e-18
-5.44519e-17
1.12046e-17
-1.15441e-16
1.81163e-17
-9.40011e-17
2.4763e-17
-1.41653e-16
3.54778e-17
-1.18166e-16
5.45706e-17
-2.15516e-16
6.17826e-17
-1.60486e-16
7.59958e-17
-1.30101e-16
8.21785e-17
-1.09491e-16
9.6547e-17
-1.20404e-16
1.17496e-16
-1.28147e-16
1.32752e-16
-1.22821e-16
8.42405e-15
-8.75189e-17
8.75847e-15
-1.59041e-15
7.26161e-15
-4.26173e-16
2.71323e-16
-2.2566e-16
2.67201e-16
-2.3627e-17
2.71564e-16
2.87615e-18
1.8955e-16
1.86941e-17
1.72683e-16
2.6368e-17
1.58113e-16
3.31182e-17
1.44924e-16
3.99794e-17
1.27917e-16
4.68509e-17
1.03516e-16
5.11302e-17
7.31951e-17
4.87907e-17
4.32959e-17
3.87216e-17
2.0534e-17
2.46163e-17
7.43154e-18
1.20898e-17
1.91155e-18
4.37195e-18
3.081e-19
1.07327e-18
2.32474e-20
1.50537e-19
5.11661e-22
1.57276e-20
8.74921e-20
-4.52134e-20
-2.17307e-33
2.80604e-35
-7.65817e-31
2.41484e-32
-7.30569e-29
2.96906e-30
-3.221e-27
1.47931e-28
-8.21699e-26
3.91959e-27
-1.37766e-24
6.0553e-26
-1.65509e-23
5.30088e-25
-1.51308e-22
1.43594e-24
-1.10422e-21
-1.33799e-22
-6.56674e-21
-2.1687e-21
-3.20088e-20
-1.91447e-20
-1.28579e-19
-1.2232e-19
-4.23013e-19
-6.11691e-19
-1.10678e-18
-2.47231e-18
-2.18853e-18
-8.15428e-18
-2.88376e-18
-2.21511e-17
-6.32166e-19
-5.14264e-17
5.11604e-18
-1.09507e-16
1.94326e-17
-2.91e-16
1.82689e-17
-2.66841e-16
2.52882e-17
-5.85989e-16
2.46278e-17
1.86393e-16
5.63025e-17
-3.6409e-16
5.98828e-17
-2.06952e-16
9.09249e-17
-1.70637e-16
9.5412e-17
-1.65626e-16
9.24987e-17
-1.34985e-16
1.17769e-16
-1.53984e-16
1.38617e-16
-1.46749e-16
1.65692e-16
-1.17717e-16
5.81469e-16
-8.60677e-17
4.30924e-16
-6.34418e-17
2.58987e-16
-4.86013e-17
2.52964e-16
-2.53121e-17
2.42447e-16
2.06094e-18
2.25952e-16
2.10704e-17
2.10569e-16
3.29799e-17
2.02029e-16
3.79722e-17
1.95117e-16
4.54369e-17
1.83657e-16
5.69411e-17
1.61656e-16
7.00218e-17
1.27198e-16
7.70205e-17
8.56267e-17
7.11861e-17
4.72289e-17
5.32168e-17
2.03518e-17
3.11424e-17
6.43156e-18
1.36925e-17
1.34302e-18
4.23147e-18
1.48529e-19
8.03413e-19
5.20273e-21
8.06957e-20
1.79353e-19
-5.79968e-20
-2.09083e-32
3.24945e-34
-6.8079e-30
2.58208e-31
-5.97388e-28
3.02715e-29
-2.4253e-26
1.43559e-27
-5.70821e-25
3.64273e-26
-8.81923e-24
5.52865e-25
-9.71042e-23
5.15449e-24
-8.12758e-22
2.60803e-23
-5.39355e-21
-4.98183e-23
-2.93648e-20
-5.29758e-21
-1.31469e-19
-5.18101e-20
-4.85408e-19
-3.25215e-19
-1.47214e-18
-1.52681e-18
-3.60126e-18
-5.64013e-18
-6.91886e-18
-1.67642e-17
-1.00406e-17
-4.10118e-17
-8.69302e-18
-8.82139e-17
4.85192e-18
-1.8813e-16
1.97649e-16
-1.33671e-15
6.90342e-16
-4.12013e-15
-1.64864e-16
-2.64415e-15
-5.13958e-17
-3.62105e-15
4.0378e-17
-6.24694e-16
4.87621e-17
-2.50679e-16
5.8066e-17
-1.912e-16
7.59644e-17
-1.91547e-16
8.86357e-17
-1.99344e-16
1.14543e-16
-1.88408e-16
1.4365e-16
-1.86031e-16
1.76791e-16
-1.58875e-16
2.15253e-16
-1.31746e-16
2.50648e-16
-1.04106e-16
2.73422e-16
-7.48619e-17
2.75502e-16
-3.55711e-17
2.69353e-16
5.0481e-18
2.48476e-16
4.17317e-17
2.37102e-16
4.2683e-17
2.36218e-16
3.97086e-17
2.39355e-16
4.36051e-17
2.38455e-16
5.75993e-17
2.24523e-16
8.12974e-17
1.9227e-16
1.03444e-16
1.43965e-16
1.10159e-16
9.03572e-17
9.5292e-17
4.5366e-17
6.5247e-17
1.71855e-17
3.41578e-17
4.49264e-18
1.29313e-17
6.81173e-19
3.18052e-18
3.8757e-20
4.09779e-19
3.34627e-19
-3.98293e-20
-1.42489e-31
2.63616e-33
-4.30048e-29
1.9532e-30
-3.49433e-27
2.17039e-28
-1.31786e-25
9.75279e-27
-2.89326e-24
2.35723e-25
-4.18518e-23
3.46377e-24
-4.3109e-22
3.25369e-23
-3.34745e-21
1.8962e-22
-2.05756e-20
4.78635e-22
-1.02889e-19
-7.50023e-21
-4.24139e-19
-1.04428e-19
-1.4353e-18
-6.66832e-19
-3.97457e-18
-2.96794e-18
-8.93896e-18
-1.00828e-17
-1.62593e-17
-2.72109e-17
-2.45011e-17
-6.06976e-17
-3.09973e-17
-1.2547e-16
-1.90773e-17
-3.30524e-16
4.6973e-16
-4.32747e-15
3.56897e-16
-4.31455e-15
1.56078e-16
-2.7555e-15
1.63701e-16
-3.9578e-15
5.82772e-17
-6.24452e-16
3.9164e-17
-2.60344e-16
4.57522e-17
-2.15384e-16
6.48806e-17
-2.23409e-16
8.88165e-17
-2.3033e-16
1.15006e-16
-2.21509e-16
1.53382e-16
-2.57411e-16
1.90282e-16
-2.20577e-16
2.38465e-16
-1.91325e-16
2.89514e-16
-1.62022e-16
3.31701e-16
-1.25578e-16
3.50384e-16
-4.74891e-17
3.42109e-16
1.00728e-17
2.88697e-16
9.93677e-17
2.65583e-16
5.93944e-17
2.67375e-16
3.81089e-17
2.79797e-16
3.32148e-17
2.9151e-16
4.65127e-17
2.88831e-16
8.17418e-17
2.6334e-16
1.23337e-16
2.14165e-16
1.50021e-16
1.49502e-16
1.47478e-16
8.55597e-17
1.15857e-16
3.79553e-17
7.07403e-17
1.20552e-17
3.20057e-17
2.37819e-18
9.82508e-18
2.07423e-19
1.68986e-18
6.21271e-19
7.58389e-21
-6.95733e-31
1.52152e-32
-1.96283e-28
1.05906e-29
-1.49264e-26
1.11809e-27
-5.2856e-25
4.77924e-26
-1.09284e-23
1.10341e-24
-1.49273e-22
1.56489e-23
-1.45509e-21
1.45099e-22
-1.06567e-20
8.85873e-22
-6.1044e-20
3.16015e-21
-2.81829e-19
5.94979e-22
-1.06557e-18
-1.44994e-19
-3.29373e-18
-1.03284e-18
-8.31956e-18
-4.53141e-18
-1.7212e-17
-1.4662e-17
-2.96475e-17
-3.7266e-17
-4.65044e-17
-7.75115e-17
-8.85776e-17
-1.38713e-16
-2.12889e-16
-2.34837e-16
-4.18635e-17
-2.43923e-15
1.34201e-16
-4.37069e-15
-6.40601e-16
-2.28062e-15
-2.17099e-16
-1.37105e-16
1.05893e-17
-2.98086e-16
1.91569e-17
-2.38591e-16
3.01279e-17
-2.44964e-16
5.05053e-17
-2.58686e-16
7.81784e-17
-2.67323e-16
1.06474e-16
-2.58096e-16
1.70703e-16
-1.44915e-16
2.07991e-16
-3.08609e-16
2.5991e-16
-2.76543e-16
3.31635e-16
-2.43423e-16
4.2574e-16
-2.11593e-16
3.73512e-16
-2.76213e-16
3.41544e-16
5.54254e-17
3.02187e-16
1.34728e-16
2.77461e-16
8.03787e-17
3.09957e-16
3.15719e-17
3.3772e-16
1.43688e-17
3.56301e-16
2.411e-17
3.59363e-16
7.16236e-17
3.38641e-16
1.36054e-16
2.91561e-16
1.87091e-16
2.21345e-16
2.04736e-16
1.41429e-16
1.80854e-16
7.19317e-17
1.26293e-16
2.70595e-17
6.68276e-17
6.67383e-18
2.48588e-17
8.27581e-19
5.55433e-18
1.26276e-18
4.97605e-20
-2.47396e-30
6.36044e-32
-6.58434e-28
4.19157e-29
-4.7262e-26
4.22538e-27
-1.58224e-24
1.7252e-25
-3.09632e-23
3.8127e-24
-4.00435e-22
5.2072e-23
-3.69414e-21
4.70906e-22
-2.55812e-20
2.89061e-21
-1.37614e-19
1.15285e-20
-5.92544e-19
2.1056e-20
-2.07692e-18
-1.23128e-19
-5.9767e-18
-1.2744e-18
-1.41483e-17
-5.8171e-18
-2.7797e-17
-1.85003e-17
-4.61749e-17
-4.51987e-17
-6.75133e-17
-8.79266e-17
-9.33072e-17
-1.3913e-16
-9.00316e-17
-1.8375e-16
-5.75808e-16
-1.88043e-16
-4.4627e-16
-1.54902e-16
-3.65089e-17
-7.03483e-17
-2.72959e-17
-1.62498e-16
-1.59787e-17
-2.33117e-16
-6.27876e-18
-2.9611e-16
6.90282e-18
-2.87381e-16
2.78335e-17
-2.94329e-16
5.62972e-17
-2.99802e-16
1.37952e-16
-3.20348e-16
7.93376e-17
-3.80976e-16
2.16708e-16
-3.91665e-16
2.73252e-16
-4.1431e-16
3.577e-16
-3.28509e-16
5.42685e-16
-2.90248e-16
3.09701e-15
-1.49968e-15
4.69518e-15
2.06672e-16
3.62182e-15
1.97556e-15
1.72488e-15
2.26698e-15
1.34691e-15
4.15011e-17
8.69921e-16
-2.55618e-17
6.49756e-16
5.32982e-18
5.22356e-16
6.10834e-17
4.42512e-16
1.5323e-16
3.77778e-16
2.23607e-16
3.0183e-16
2.62574e-16
2.10695e-16
2.54973e-16
1.20539e-16
1.99996e-16
5.25763e-17
1.21543e-16
1.57224e-17
5.35358e-17
2.60594e-18
1.50163e-17
2.92164e-18
1.88287e-19
-6.61252e-30
1.98386e-31
-1.68014e-27
1.25221e-28
-1.15104e-25
1.21607e-26
-3.68007e-24
4.78116e-25
-6.87913e-23
1.01851e-23
-8.49531e-22
1.34586e-22
-7.47732e-21
1.18712e-21
-4.93479e-20
7.23684e-21
-2.52792e-19
3.01784e-20
-1.02952e-18
7.54623e-20
-3.40547e-18
1.10155e-20
-9.28232e-18
-1.22623e-18
-2.09968e-17
-6.46089e-18
-3.97481e-17
-2.11601e-17
-6.34338e-17
-5.12205e-17
-8.66548e-17
-9.60262e-17
-1.05069e-16
-1.43722e-16
-1.14181e-16
-1.80215e-16
-1.16339e-16
-2.09482e-16
-1.03875e-16
-2.0955e-16
-4.24088e-17
-1.8395e-16
-4.64487e-17
-2.29774e-16
-4.69041e-17
-3.00077e-16
-4.03535e-17
-4.03038e-16
-2.80466e-17
-3.41312e-16
-6.40733e-18
-3.34016e-16
2.27477e-17
-3.26495e-16
5.96498e-17
-3.70027e-16
1.03736e-16
-3.91905e-16
1.85362e-16
-8.74369e-16
2.72412e-16
-6.82102e-16
3.12125e-16
-4.53417e-16
3.07399e-15
-5.9214e-16
1.05854e-14
-3.07588e-15
1.05173e-14
-6.00405e-16
1.03098e-14
1.38377e-15
1.02504e-14
1.95649e-15
9.49888e-15
4.46975e-16
3.46172e-15
-1.0218e-16
6.34072e-16
-1.29845e-15
5.9431e-16
1.23483e-16
5.533e-16
1.69102e-16
4.73563e-16
2.5811e-16
3.89738e-16
3.17688e-16
2.90832e-16
3.32126e-16
1.8356e-16
2.87625e-16
9.10285e-17
1.97545e-16
3.21886e-17
1.01115e-16
6.80559e-18
3.4584e-17
7.2184e-18
6.32136e-19
-1.36586e-29
4.74294e-31
-3.35965e-27
2.90863e-28
-2.22532e-25
2.75304e-26
-6.87587e-24
1.05354e-24
-1.24137e-22
2.1844e-23
-1.47918e-21
2.8152e-22
-1.25451e-20
2.43411e-21
-7.96502e-20
1.47091e-20
-3.92122e-19
6.25661e-20
-1.53357e-18
1.77031e-19
-4.87625e-18
2.31781e-19
-1.28709e-17
-8.125e-19
-2.84917e-17
-6.35693e-18
-5.28388e-17
-2.19195e-17
-8.20884e-17
-5.17768e-17
-1.08896e-16
-9.25242e-17
-1.30127e-16
-1.33925e-16
-1.56053e-16
-1.74794e-16
-1.77066e-16
-5.05909e-16
-1.59561e-16
1.6236e-16
-1.11051e-16
-3.23095e-16
-1.08303e-16
-3.13516e-16
-1.26656e-16
-4.06589e-16
-1.00313e-16
-5.35088e-16
-7.51851e-17
-3.8866e-16
-4.51516e-17
-3.67791e-16
-1.68528e-17
-3.54492e-16
2.0928e-17
-4.25327e-16
1.14334e-16
-4.65769e-16
3.10967e-16
-9.30765e-16
2.78815e-16
-9.19829e-16
2.55049e-16
-6.38049e-16
1.60549e-15
-4.7416e-16