/*--------------------------------*- C++ -*----------------------------------*\
| =========                 |                                                 |
| \\      /  F ield         | OpenFOAM: The Open Source CFD Toolbox           |
|  \\    /   O peration     | Version:  2.4.0                                 |
|   \\  /    A nd           | Web:      www.OpenFOAM.org                      |
|    \\/     M anipulation  |                                                 |
\*---------------------------------------------------------------------------*/
FoamFile
{
    version     2.0;
    format      ascii;
    class       surfaceScalarField;
    location    "0.188";
    object      phi;
}
// * * * * * * * * * * * * * * * * * * * * * * * * * * * * * * * * * * * * * //

dimensions      [0 3 -1 0 0 0 0];

internalField   nonuniform List<scalar> 
7080
(
3.86938e-08
-3.86938e-08
7.19532e-08
-3.32594e-08
8.86843e-08
-1.6731e-08
8.5677e-08
3.00725e-09
7.08312e-08
1.48458e-08
4.59272e-08
2.4904e-08
2.52512e-08
2.0676e-08
7.27834e-09
1.79729e-08
-6.39429e-09
1.36726e-08
-1.19558e-08
5.56158e-09
-1.12524e-08
-7.0342e-10
-2.18089e-08
1.05566e-08
-2.62318e-08
4.42284e-09
-3.26195e-08
6.38768e-09
-3.60613e-08
3.44182e-09
-1.53014e-08
-2.07599e-08
2.08353e-08
-3.61367e-08
3.18531e-08
-1.10178e-08
2.41912e-08
7.66198e-09
-2.65977e-08
5.07888e-08
-1.27526e-07
1.00929e-07
-1.92857e-07
6.53311e-08
-1.93891e-07
1.03334e-09
-2.04897e-07
1.10064e-08
-1.786e-07
-2.62966e-08
-1.2733e-07
-5.12707e-08
-8.74228e-08
-3.9907e-08
-5.74724e-08
-2.99504e-08
-2.91978e-08
-2.82746e-08
-2.47701e-08
-4.42775e-09
3.98454e-08
-7.85392e-08
8.72756e-08
-8.06896e-08
1.21793e-07
-5.12482e-08
1.31935e-07
-7.13525e-09
1.27268e-07
1.95127e-08
1.08374e-07
4.37988e-08
8.89265e-08
4.0123e-08
6.96158e-08
3.72836e-08
4.88018e-08
3.44867e-08
3.86319e-08
1.57315e-08
3.50578e-08
2.87076e-09
1.43032e-08
3.13112e-08
6.87977e-09
1.18463e-08
-2.07451e-08
3.40125e-08
-3.07162e-08
1.3413e-08
-2.47715e-08
-2.67046e-08
-1.27781e-08
-4.81301e-08
-2.9962e-09
-2.07997e-08
-5.65306e-08
6.11964e-08
-1.76733e-07
1.70991e-07
-2.89441e-07
2.13637e-07
-2.98571e-07
7.44605e-08
-2.72017e-07
-2.55202e-08
-2.46287e-07
-1.47232e-08
-1.9207e-07
-8.05137e-08
-1.38342e-07
-1.04998e-07
-9.22495e-08
-8.59999e-08
-6.09876e-08
-6.12122e-08
-3.20356e-08
-5.72266e-08
-5.38173e-08
-2.98841e-09
3.49992e-08
-1.13538e-07
8.33294e-08
-1.2902e-07
1.21366e-07
-8.92845e-08
1.3506e-07
-2.08297e-08
1.3452e-07
2.00524e-08
1.20723e-07
5.75965e-08
1.05192e-07
5.56537e-08
9.16842e-08
5.07915e-08
7.14001e-08
5.47708e-08
6.54589e-08
2.16727e-08
6.44933e-08
3.83634e-09
4.43978e-08
5.14067e-08
4.71949e-08
9.04916e-09
1.70431e-08
6.41644e-08
5.1874e-09
2.52687e-08
-7.47788e-10
-2.07694e-08
-2.90837e-08
-1.97942e-08
-5.32204e-08
3.33709e-09
-1.36803e-07
1.44779e-07
-2.54528e-07
2.88716e-07
-3.17213e-07
2.76323e-07
-2.90002e-07
4.72493e-08
-2.54794e-07
-6.07286e-08
-2.10228e-07
-5.92888e-08
-1.57946e-07
-1.32796e-07
-1.16744e-07
-1.462e-07
-7.92863e-08
-1.23458e-07
-5.11076e-08
-8.93909e-08
-2.96335e-08
-7.87008e-08
-7.61838e-08
-7.26696e-09
3.31276e-08
-1.46666e-07
8.14701e-08
-1.77362e-07
1.19992e-07
-1.27807e-07
1.34143e-07
-3.49803e-08
1.34197e-07
1.9998e-08
1.21441e-07
7.03526e-08
1.07035e-07
7.00597e-08
9.62048e-08
6.16221e-08
7.52741e-08
7.57015e-08
7.39409e-08
2.30059e-08
7.11618e-08
6.61548e-09
5.76202e-08
6.49484e-08
7.58115e-08
-9.1422e-09
4.89272e-08
9.10488e-08
3.43809e-08
3.9815e-08
1.985e-08
-6.23852e-09
-3.79003e-08
3.79561e-08
-8.93157e-08
5.47525e-08
-1.71695e-07
2.27158e-07
-2.49581e-07
3.66603e-07
-2.71165e-07
2.97906e-07
-2.58673e-07
3.47574e-08
-2.24501e-07
-9.49003e-08
-1.62741e-07
-1.21049e-07
-1.26962e-07
-1.68574e-07
-1.02959e-07
-1.70204e-07
-7.24767e-08
-1.5394e-07
-4.04335e-08
-1.21434e-07
-2.53762e-08
-9.3758e-08
-8.88263e-08
-1.27336e-08
3.26314e-08
-1.79297e-07
8.12277e-08
-2.25959e-07
1.20031e-07
-1.6661e-07
1.34299e-07
-4.92486e-08
1.34227e-07
2.007e-08
1.21268e-07
8.33122e-08
1.07033e-07
8.42941e-08
9.68444e-08
7.18111e-08
7.42752e-08
9.82707e-08
7.63184e-08
2.09627e-08
6.53618e-08
1.75721e-08
6.23274e-08
6.79828e-08
9.48321e-08
-4.16468e-08
7.03225e-08
1.15558e-07
6.00009e-08
5.01366e-08
4.18618e-08
1.19006e-08
-3.80416e-08
1.1786e-07
-1.11431e-07
1.28142e-07
-1.693e-07
2.85026e-07
-1.94577e-07
3.9188e-07
-1.80849e-07
2.84178e-07
-1.52776e-07
6.68472e-09
-1.06125e-07
-1.41551e-07
-4.80786e-08
-1.79096e-07
-1.60362e-08
-2.00616e-07
-6.89857e-09
-1.79341e-07
-1.63081e-08
-1.4453e-07
-1.76305e-08
-1.20112e-07
-1.56667e-08
-9.57218e-08
-8.49673e-08
-1.95257e-08
3.24566e-08
-2.11754e-07
8.13793e-08
-2.74881e-07
1.20545e-07
-2.05776e-07
1.34985e-07
-6.36881e-08
1.34703e-07
2.03513e-08
1.21296e-07
9.67195e-08
1.07225e-07
9.8365e-08
9.68962e-08
8.21401e-08
7.30342e-08
1.22133e-07
7.68852e-08
1.71118e-08
5.67482e-08
3.77091e-08
6.31254e-08
6.16057e-08
9.8313e-08
-7.68344e-08
8.0695e-08
1.33176e-07
8.4001e-08
4.68306e-08
7.00457e-08
2.58559e-08
-9.7218e-09
1.97627e-07
-8.41139e-08
2.02534e-07
-1.11809e-07
3.12722e-07
-1.14074e-07
3.94145e-07
-1.03122e-07
2.73226e-07
-7.2496e-08
-2.39416e-08
-2.46396e-08
-1.89408e-07
3.11316e-08
-2.34867e-07
5.59039e-08
-2.25389e-07
5.81121e-08
-1.8155e-07
3.70595e-08
-1.23477e-07
8.88161e-09
-9.19337e-08
-5.85335e-09
-8.09867e-08
-7.29418e-08
-1.78788e-08
3.23137e-08
-2.44068e-07
8.16091e-08
-3.24177e-07
1.21223e-07
-2.4539e-07
1.35888e-07
-7.83532e-08
1.35366e-07
2.08735e-08
1.21404e-07
1.10682e-07
1.07674e-07
1.12094e-07
9.6798e-08
9.30164e-08
7.25548e-08
1.46376e-07
7.72896e-08
1.23769e-08
5.36204e-08
6.13783e-08
6.15954e-08
5.36307e-08
7.43906e-08
-8.96295e-08
7.22366e-08
1.3533e-07
1.00534e-07
1.85337e-08
9.20312e-08
3.43582e-08
2.92449e-08
2.60413e-07
-4.35547e-08
2.75334e-07
-5.84326e-08
3.276e-07
-3.38767e-08
3.69589e-07
-8.84907e-09
2.48198e-07
2.50648e-08
-5.78554e-08
5.08498e-08
-2.15193e-07
7.15641e-08
-2.55581e-07
7.69135e-08
-2.30738e-07
7.56981e-08
-1.80334e-07
6.89256e-08
-1.16705e-07
4.5754e-08
-6.8762e-08
1.48237e-08
-5.00565e-08
-4.65725e-08
-1.15456e-08
3.21422e-08
-2.7621e-07
8.18685e-08
-3.73903e-07
1.22019e-07
-2.85541e-07
1.3696e-07
-9.32941e-08
1.36151e-07
2.16821e-08
1.21527e-07
1.25307e-07
1.08325e-07
1.25296e-07
9.65161e-08
1.04825e-07
7.29694e-08
1.69923e-07
7.81982e-08
7.14803e-09
5.83373e-08
8.12393e-08
6.0426e-08
5.1542e-08
3.69149e-08
-6.61184e-08
4.67885e-08
1.25457e-07
9.29124e-08
-2.75901e-08
8.43433e-08
4.29272e-08
5.40498e-08
2.90707e-07
-2.41146e-09
3.31795e-07
-2.00247e-08
3.45213e-07
1.8637e-08
3.30928e-07
7.92846e-08
1.87551e-07
1.14523e-07
-9.3094e-08
1.23622e-07
-2.24291e-07
1.17924e-07
-2.49883e-07
1.02807e-07
-2.15621e-07
8.43483e-08
-1.61875e-07
7.07557e-08
-1.03112e-07
5.19274e-08
-4.99336e-08
2.59064e-08
-2.40355e-08
-2.27678e-08
2.10173e-09
3.19292e-08
-3.08139e-07
8.21504e-08
-4.24124e-07
1.22928e-07
-3.26318e-07
1.38199e-07
-1.08565e-07
1.37047e-07
2.28345e-08
1.21665e-07
1.40689e-07
1.09132e-07
1.37829e-07
9.59731e-08
1.17984e-07
7.42076e-08
1.91688e-07
7.83344e-08
3.02121e-09
6.79478e-08
9.16259e-08
6.67293e-08
5.27605e-08
2.0968e-08
-2.03571e-08
2.35096e-08
1.22915e-07
5.57095e-08
-5.97901e-08
5.70984e-08
4.15383e-08
6.109e-08
2.86715e-07
4.59455e-08
3.4694e-07
5.29581e-08
3.382e-07
9.50955e-08
2.8879e-07
1.56007e-07
1.26639e-07
1.78039e-07
-1.15126e-07
1.63007e-07
-2.09259e-07
1.37432e-07
-2.24308e-07
1.13637e-07
-1.91826e-07
8.85726e-08
-1.36811e-07
6.78951e-08
-8.24347e-08
4.73668e-08
-2.94054e-08
2.64132e-08
-3.08201e-09
-3.55425e-09
7.19957e-09
3.16695e-08
-3.39809e-07
8.24518e-08
-4.74907e-07
1.2395e-07
-3.67816e-07
1.39613e-07
-1.24228e-07
1.38046e-07
2.44013e-08
1.21836e-07
1.56899e-07
1.10009e-07
1.49657e-07
9.53287e-08
1.32664e-07
7.52895e-08
2.11727e-07
7.58625e-08
2.44822e-09
7.74061e-08
9.00824e-08
7.59388e-08
5.42279e-08
2.5245e-08
3.03367e-08
1.84337e-08
1.29727e-07
3.21224e-08
-7.34788e-08
5.16592e-08
2.20015e-08
7.34425e-08
2.64932e-07
7.81216e-08
3.42261e-07
1.23415e-07
2.92907e-07
1.74468e-07
2.37738e-07
2.1444e-07
8.66676e-08
1.98568e-07
-9.9254e-08
1.64476e-07
-1.75168e-07
1.31956e-07
-1.91788e-07
1.05278e-07
-1.65148e-07
7.97011e-08
-1.11234e-07
5.56731e-08
-5.84067e-08
3.62667e-08
-9.99906e-09
1.99199e-08
1.32647e-08
1.03667e-08
5.99884e-09
3.13595e-08
-3.71168e-07
8.27701e-08
-5.26317e-07
1.25082e-07
-4.10128e-07
1.41209e-07
-1.40355e-07
1.39151e-07
2.64598e-08
1.2204e-07
1.74009e-07
1.10931e-07
1.60766e-07
9.48469e-08
1.48748e-07
7.51676e-08
2.31407e-07
7.16258e-08
5.99004e-09
8.40403e-08
7.76679e-08
7.84508e-08
5.98174e-08
3.53653e-08
7.34223e-08
3.15233e-08
1.33569e-07
3.77059e-08
-7.96614e-08
6.20952e-08
-2.38777e-09
8.70384e-08
2.39989e-07
9.52628e-08
3.34036e-07
1.4259e-07
2.45579e-07
1.96048e-07
1.8428e-07
2.10489e-07
7.22262e-08
1.71051e-07
-5.98157e-08
1.50795e-07
-1.54912e-07
1.31168e-07
-1.72161e-07
1.07329e-07
-1.41309e-07
7.87435e-08
-8.26488e-08
4.8799e-08
-2.84624e-08
2.7691e-08
1.11089e-08
1.56723e-08
2.52834e-08
1.76535e-08
8.3855e-09
3.09952e-08
-4.02163e-07
8.31016e-08
-5.78424e-07
1.26319e-07
-4.53345e-07
1.42995e-07
-1.57032e-07
1.40359e-07
2.90967e-08
1.22261e-07
1.92107e-07
1.11961e-07
1.71066e-07
9.46417e-08
1.66067e-07
7.35603e-08
2.52488e-07
6.90032e-08
1.05472e-08
8.78822e-08
5.87889e-08
7.25715e-08
7.51281e-08
4.43624e-08
1.01631e-07
5.07862e-08
1.27145e-07
5.98696e-08
-8.87448e-08
7.35808e-08
-1.6099e-08
9.00358e-08
2.23534e-07
1.08298e-07
3.15775e-07
1.34712e-07
2.19165e-07
1.71563e-07
1.47429e-07
1.80541e-07
6.32485e-08
1.64623e-07
-4.38986e-08
1.58624e-07
-1.48913e-07
1.40866e-07
-1.54403e-07
1.14238e-07
-1.14682e-07
7.70075e-08
-4.54179e-08
3.97752e-08
8.76981e-09
2.27983e-08
2.80857e-08
1.4996e-08
3.30856e-08
2.19469e-08
1.07026e-08
3.0572e-08
-4.32735e-07
8.34411e-08
-6.31293e-07
1.27664e-07
-4.97568e-07
1.44979e-07
-1.74348e-07
1.41665e-07
3.24104e-08
1.22489e-07
2.11283e-07
1.13207e-07
1.80348e-07
9.44703e-08
1.84804e-07
7.13213e-08
2.75637e-07
6.79426e-08
1.39259e-08
9.08708e-08
3.58608e-08
6.64907e-08
9.95083e-08
5.3208e-08
1.14914e-07
6.9296e-08
1.11057e-07
7.68452e-08
-9.6294e-08
7.81047e-08
-1.73585e-08
7.40994e-08
2.27539e-07
1.02718e-07
2.87156e-07
1.29607e-07
1.92276e-07
1.50617e-07
1.2642e-07
1.65122e-07
4.87438e-08
1.66904e-07
-4.5681e-08
1.45684e-07
-1.27693e-07
1.18714e-07
-1.27433e-07
9.3129e-08
-8.90967e-08
6.88338e-08
-2.11229e-08
4.70586e-08
3.0545e-08
3.07948e-08
4.43495e-08
1.76769e-08
4.62036e-08
2.26991e-08
1.69247e-08
3.00842e-08
-4.6282e-07
8.37828e-08
-6.84991e-07
1.29131e-07
-5.42916e-07
1.4717e-07
-1.92386e-07
1.43065e-07
3.65152e-08
1.22734e-07
2.31614e-07
1.14672e-07
1.8841e-07
9.42911e-08
2.05185e-07
6.85406e-08
3.01388e-07
6.69503e-08
1.55162e-08
9.3215e-08
9.59607e-09
6.36537e-08
1.2907e-07
5.32911e-08
1.25277e-07
7.7949e-08
8.63989e-08
7.49982e-08
-9.33431e-08
7.85342e-08
-2.08945e-08
7.43176e-08
2.31756e-07
9.74435e-08
2.6403e-07
1.22632e-07
1.67087e-07
1.38726e-07
1.10326e-07
1.54798e-07
3.26718e-08
1.50375e-07
-4.12582e-08
1.22827e-07
-1.00145e-07
9.74118e-08
-1.02017e-07
7.9131e-08
-7.0816e-08
6.65639e-08
-8.55573e-09
4.78289e-08
4.928e-08
1.83097e-08
7.38687e-08
1.34133e-08
5.11001e-08
1.0406e-08
2.57064e-08
2.9526e-08
-4.92345e-07
8.41203e-08
-7.39586e-07
1.30731e-07
-5.89527e-07
1.49577e-07
-2.11232e-07
1.44555e-07
4.15374e-08
1.22985e-07
2.53184e-07
1.16362e-07
1.95033e-07
9.42281e-08
2.27319e-07
6.56189e-08
3.29997e-07
6.40652e-08
1.70699e-08
9.52192e-08
-2.15579e-08
6.9287e-08
1.55002e-07
6.4143e-08
1.30421e-07
8.67153e-08
6.38266e-08
7.58551e-08
-8.24829e-08
9.06498e-08
-3.56893e-08
8.25411e-08
2.39865e-07
8.52113e-08
2.6136e-07
1.09995e-07
1.42304e-07
1.27262e-07
9.30592e-08
1.32005e-07
2.79291e-08
1.25783e-07
-3.50367e-08
1.01759e-07
-7.61213e-08
5.78435e-08
-5.81016e-08
1.50601e-08
-2.80326e-08
-3.19731e-09
9.7017e-09
-1.78725e-08
6.39552e-08
-2.05991e-08
7.65953e-08
1.88423e-09
2.86169e-08
-4.52519e-09
1.68155e-08
2.889e-08
-5.21236e-07
8.44464e-08
-7.95142e-07
1.32467e-07
-6.37548e-07
1.52216e-07
-2.30981e-07
1.46127e-07
4.76266e-08
1.23232e-07
2.76079e-07
1.18244e-07
2.0002e-07
9.46248e-08
2.50938e-07
6.22459e-08
3.62376e-07
6.08917e-08
1.84241e-08
9.95975e-08
-6.02637e-08
7.23994e-08
1.822e-07
3.05279e-08
1.72292e-07
5.46287e-08
3.97258e-08
7.81524e-08
-1.06007e-07
1.10858e-07
-6.83945e-08
1.00632e-07
2.5009e-07
9.42208e-08
2.67771e-07
1.20014e-07
1.1651e-07
1.12305e-07
1.00768e-07
1.19219e-07
2.10159e-08
1.32715e-07
-4.85332e-08
1.13528e-07
-5.69338e-08
7.40045e-08
-1.85786e-08
2.09829e-08
2.49891e-08
-1.70704e-08
4.77549e-08
-3.12684e-08
7.81533e-08
-2.88369e-08
7.41638e-08
-2.05381e-08
2.03182e-08
-4.88695e-09
-2.01762e-08
2.81689e-08
-5.49404e-07
8.47502e-08
-8.51723e-07
1.34338e-07
-6.87136e-07
1.55107e-07
-2.51749e-07
1.47764e-07
5.4969e-08
1.23405e-07
3.00439e-07
1.20506e-07
2.02919e-07
9.47081e-08
2.76736e-07
5.72849e-08
3.99799e-07
6.0465e-08
1.52441e-08
1.06827e-07
-1.06625e-07
8.18143e-08
2.07212e-07
5.50283e-08
1.99078e-07
7.25923e-08
2.21618e-08
9.06498e-08
-1.24064e-07
1.2891e-07
-1.06655e-07
1.44539e-07
2.34462e-07
1.40064e-07
2.72246e-07
1.11331e-07
1.45243e-07
8.79824e-08
1.24117e-07
1.10966e-07
-1.96794e-09
1.07153e-07
-4.47203e-08
7.10865e-08
-2.0867e-08
5.63142e-08
-3.80626e-09
4.01184e-08
4.11849e-08
7.63517e-09
8.02382e-08
-7.23015e-09
9.30187e-08
-7.97454e-09
7.49082e-08
-2.00303e-08
3.2374e-08
1.16001e-08
-3.65173e-08
2.73576e-08
-5.76762e-07
8.50042e-08
-9.0937e-07
1.36324e-07
-7.38456e-07
1.58271e-07
-2.73696e-07
1.49365e-07
6.38749e-08
1.23579e-07
3.26225e-07
1.22965e-07
2.03532e-07
9.73793e-08
3.02322e-07
5.18407e-08
4.45338e-07
5.63713e-08
1.07135e-08
1.14119e-07
-1.64373e-07
7.63677e-08
2.44964e-07
2.493e-08
2.50516e-07
4.68012e-08
2.90681e-10
7.96111e-08
-1.56874e-07
1.22342e-07
-1.49386e-07
1.3307e-07
2.23734e-07
1.25128e-07
2.80188e-07
9.30905e-08
1.7728e-07
7.90294e-08
1.38178e-07
7.84298e-08
-1.36825e-09
2.49468e-08
8.7627e-09
-1.30777e-08
1.71576e-08
1.82571e-09
-1.87097e-08
2.88436e-08
1.4167e-08
3.29964e-08
7.60854e-08
3.64206e-08
8.95946e-08
3.97487e-08
7.15803e-08
2.54733e-08
4.66494e-08
3.76585e-08
-5.85049e-10
2.64649e-08
-6.03227e-07
8.51181e-08
-9.68023e-07
1.3834e-07
-7.91678e-07
1.61647e-07
-2.97002e-07
1.5074e-07
7.47819e-08
1.23479e-07
3.53486e-07
1.27266e-07
1.99745e-07
9.08733e-08
3.38715e-07
5.16937e-08
4.84517e-07
5.84122e-08
3.99505e-09
1.13452e-07
-2.19413e-07
7.09355e-08
2.8748e-07
-9.10825e-10
3.22362e-07
4.07987e-08
-4.14189e-08
8.42808e-08
-2.00356e-07
1.16095e-07
-1.812e-07
1.1101e-07
2.28818e-07
9.66653e-08
2.94533e-07
9.97556e-08
1.7419e-07
7.13917e-08
1.66542e-07
4.4611e-09
6.55624e-08
-5.62911e-08
6.95149e-08
-7.06859e-08
3.15524e-08
-5.15031e-08
-3.78923e-08
-1.71311e-08
-2.02051e-08
1.35516e-08
4.54028e-08
3.49304e-08
6.82158e-08
5.02036e-08
5.63071e-08
4.43601e-08
5.2493e-08
5.68443e-08
2.51743e-08
2.5555e-08
-6.28782e-07
8.47981e-08
-1.02727e-06
1.40046e-07
-8.46926e-07
1.64878e-07
-3.21834e-07
1.5123e-07
8.84296e-08
1.23985e-07
3.80731e-07
1.2905e-07
1.9468e-07
1.04662e-07
3.63103e-07
3.6771e-08
5.52408e-07
2.32736e-08
1.74925e-08
1.11044e-07
-3.07184e-07
5.73798e-08
3.41145e-07
4.4678e-09
3.75274e-07
7.25081e-08
-1.09459e-07
8.02046e-08
-2.08052e-07
9.86621e-08
-1.99658e-07
7.06928e-08
2.56788e-07
5.75462e-08
3.0768e-07
6.78183e-08
1.63918e-07
6.09691e-08
1.73391e-07
4.83405e-09
1.21698e-07
-8.28938e-08
1.57243e-07
-1.03551e-07
5.221e-08
-9.79596e-08
-4.3484e-08
-6.98524e-08
-4.83122e-08
-3.44819e-08
1.00323e-08
-6.62976e-09
4.03637e-08
1.7999e-08
3.16784e-08
2.5598e-08
4.4894e-08
6.39085e-08
1.85338e-08
2.4849e-08
-6.53631e-07
8.31917e-08
-1.08561e-06
1.40281e-07
-9.04015e-07
1.66667e-07
-3.4822e-07
1.49584e-07
1.05513e-07
1.21841e-07
4.08474e-07
1.36115e-07
1.80405e-07
7.50001e-08
4.24218e-07
3.93351e-08
5.88073e-07
4.4412e-08
1.24156e-08
1.09679e-07
-3.72451e-07
4.26259e-08
4.08198e-07
-1.99747e-08
4.37875e-07
1.15406e-07
-2.4484e-07
1.35788e-07
-2.28434e-07
9.26565e-08
-1.56527e-07
7.31411e-08
2.76303e-07
6.14544e-08
3.19367e-07
1.64815e-08
2.08891e-07
1.17936e-08
1.78079e-07
3.11675e-08
1.02324e-07
-2.50958e-08
2.13506e-07
-5.16595e-08
7.87736e-08
-6.54438e-08
-2.96996e-08
-7.15484e-08
-4.22076e-08
-5.55394e-08
-5.97673e-09
-3.37782e-08
1.86025e-08
-1.7919e-08
1.58192e-08
-5.53296e-09
3.2508e-08
5.4586e-08
3.78957e-09
2.48328e-08
-6.78464e-07
7.82686e-08
-1.13904e-06
1.35865e-07
-9.61612e-07
1.63636e-07
-3.7599e-07
1.40974e-07
1.28174e-07
1.15018e-07
4.3443e-07
1.21875e-07
1.73548e-07
1.0621e-07
4.39883e-07
7.05372e-08
6.23746e-07
4.48901e-08
3.80627e-08
1.74659e-07
-5.0222e-07
1.37719e-07
4.45138e-07
-2.37925e-08
5.99387e-07
1.08277e-07
-3.76909e-07
2.02924e-07
-3.23082e-07
1.09822e-07
-6.34244e-08
7.91667e-08
3.06959e-07
8.26133e-08
3.1592e-07
3.63936e-08
2.55111e-07
-9.98997e-09
2.24463e-07
4.3161e-08
4.91728e-08
5.75392e-08
1.99128e-07
1.99341e-08
1.16379e-07
-2.3406e-10
-9.53146e-09
-1.97487e-08
-2.2693e-08
-2.41394e-08
-1.58604e-09
-2.03456e-08
1.48087e-08
-2.09711e-08
1.64448e-08
-1.59288e-08
2.74657e-08
4.12067e-08
-2.54958e-09
2.59264e-08
-7.0439e-07
6.63546e-08
-1.17947e-06
1.20355e-07
-1.01561e-06
1.48892e-07
-4.04527e-07
1.15943e-07
1.61123e-07
7.9308e-08
4.71065e-07
6.94994e-08
1.83357e-07
4.22341e-08
4.67149e-07
-1.07349e-09
6.67054e-07
-4.29129e-08
7.99022e-08
-1.46501e-08
-5.30483e-07
-1.84477e-09
4.32333e-07
-1.28563e-07
7.26105e-07
8.07333e-09
-5.13546e-07
1.96002e-07
-5.11011e-07
1.20219e-07
1.23593e-08
9.03086e-08
3.36869e-07
9.91557e-08
3.07073e-07
7.78104e-08
2.76456e-07
2.77113e-08
2.74562e-07
3.42339e-08
4.26503e-08
7.70781e-08
1.56284e-07
5.54594e-08
1.37997e-07
2.85196e-08
1.74084e-08
9.03811e-09
-3.21146e-09
7.24653e-09
2.05528e-10
6.30626e-09
1.57489e-08
-9.10319e-10
2.36613e-08
-7.93975e-09
3.44951e-08
4.09987e-08
-7.73175e-09
2.95085e-08
-7.33899e-07
4.34012e-08
-1.19337e-06
8.61299e-08
-1.05834e-06
1.16398e-07
-4.34796e-07
6.43017e-08
2.1322e-07
3.29798e-08
5.02387e-07
5.79959e-08
1.58341e-07
6.62458e-09
5.1852e-07
-3.20855e-08
7.05764e-07
-1.03978e-07
1.51794e-07
-1.36343e-07
-4.98118e-07
-1.21337e-07
4.17327e-07
-2.07596e-07
8.12364e-07
-1.0758e-07
-6.13562e-07
7.3784e-08
-6.92375e-07
3.76107e-08
4.85326e-08
4.4884e-09
3.69991e-07
-3.6153e-09
3.15177e-07
4.97478e-08
2.23093e-07
6.06537e-08
2.63656e-07
3.16481e-08
7.16559e-08
6.94892e-08
1.18443e-07
7.2996e-08
1.34491e-07
3.47625e-08
5.56419e-08
1.13578e-08
2.01932e-08
1.23436e-08
-7.80283e-10
9.66519e-09
1.84273e-08
3.36721e-09
2.99593e-08
-8.07647e-09
4.59388e-08
5.11262e-08
-1.8204e-08
2.18496e-08
-7.55748e-07
9.77666e-09
-1.18129e-06
3.56803e-08
-1.08424e-06
7.77944e-08
-4.7691e-07
2.73786e-08
2.63636e-07
-5.24189e-08
5.82184e-07
-1.4015e-07
2.46072e-07
-8.84499e-08
4.6682e-07
-2.58762e-08
6.4319e-07
-1.25867e-07
2.51786e-07
-1.32219e-07
-4.91766e-07
-1.18854e-07
4.03962e-07
-1.57782e-07
8.51292e-07
-1.56209e-07
-6.15135e-07
-9.05394e-08
-7.58044e-07
-1.00302e-07
5.82948e-08
-1.71499e-07
4.41189e-07
-8.31136e-08
2.26791e-07
7.25372e-08
6.74421e-08
1.21474e-07
2.14719e-07
8.09656e-08
1.12164e-07
5.8047e-08
1.41361e-07
4.61239e-08
1.46414e-07
7.30797e-09
9.44578e-08
-6.53669e-09
3.40378e-08
-9.68519e-09
2.36821e-09
-9.95794e-09
1.87001e-08
-6.49336e-09
2.64947e-08
-9.17852e-09
4.8624e-08
5.72054e-08
-1.52577e-08
2.84733e-08
-7.84222e-07
-2.03496e-08
-1.13247e-06
-9.68951e-09
-1.0949e-06
3.04494e-08
-5.17049e-07
-4.4637e-08
3.38722e-07
-2.7321e-07
8.10757e-07
-4.22367e-07
3.9523e-07
-1.44655e-07
1.89107e-07
-2.73374e-08
5.25873e-07
-1.85679e-07
4.10127e-07
-2.33016e-07
-4.44428e-07
-2.12998e-07
3.83944e-07
-1.12167e-07
7.50461e-07
-1.47016e-07
-5.80286e-07
-1.80176e-07
-7.24884e-07
-1.53095e-07
3.1213e-08
-1.65309e-07
4.53404e-07
-6.83988e-08
1.2988e-07
4.07761e-08
-4.17328e-08
3.29276e-08
2.22568e-07
-2.60558e-08
1.71148e-07
9.9507e-09
1.05355e-07
2.43724e-08
1.31992e-07
-1.51963e-08
1.34026e-07
-2.65501e-08
4.53917e-08
-2.35631e-08
-6.18749e-10
-1.52239e-08
1.03608e-08
-8.79247e-09
2.00633e-08
-3.22477e-09
4.30562e-08
5.28304e-08
1.15016e-09
-4.50802e-08
-7.39141e-07
-2.90041e-08
-1.14855e-06
-2.13977e-07
-9.09931e-07
-6.95693e-07
-3.5333e-08
-6.99715e-07
3.42745e-07
-3.9658e-07
5.07622e-07
-3.97579e-07
3.96229e-07
-2.5573e-07
4.72584e-08
-1.11461e-07
3.81603e-07
-1.88479e-07
4.87145e-07
-3.38994e-07
-2.93914e-07
-2.86293e-07
3.31243e-07
-1.18203e-07
5.82372e-07
-1.83159e-07
-5.15331e-07
-3.08116e-07
-5.99926e-07
-2.41981e-07
-3.49226e-08
-1.27144e-07
3.38567e-07
-1.01744e-07
1.0448e-07
-9.57863e-08
-4.76907e-08
-7.2605e-08
1.99387e-07
-6.06482e-08
1.59191e-07
9.5779e-09
3.51286e-08
4.57813e-08
9.57887e-08
1.21231e-08
1.67685e-07
-5.76915e-09
6.32839e-08
-1.615e-08
9.76207e-09
-1.44516e-08
8.66244e-09
-1.01464e-08
1.57581e-08
-5.25232e-10
3.3435e-08
4.25642e-08
9.74097e-09
-3.77084e-08
-7.01433e-07
2.00786e-07
-1.38704e-06
-6.62501e-07
-4.66442e-08
-1.69732e-06
9.99487e-07
-9.06774e-07
-4.47802e-07
-5.15687e-07
1.16535e-07
-5.41669e-07
4.22211e-07
-5.17149e-07
2.27386e-08
-2.24974e-07
8.94277e-08
-1.78931e-07
4.41102e-07
-4.01637e-07
-7.12079e-08
-1.96721e-07
1.26327e-07
8.24587e-09
3.77405e-07
-1.83881e-07
-3.23204e-07
-3.60068e-07
-4.2374e-07
-2.96719e-07
-9.82713e-08
-1.05874e-07
1.47722e-07
-9.86899e-08
9.72961e-08
-1.23297e-07
-2.30831e-08
-7.83018e-08
1.54391e-07
-4.08638e-08
1.21753e-07
-4.20839e-08
3.63486e-08
-2.14775e-09
5.58526e-08
4.6356e-08
1.19181e-07
5.43072e-08
5.53327e-08
3.10237e-08
3.30455e-08
7.55924e-09
3.21269e-08
-2.1312e-09
2.54485e-08
1.47394e-09
2.98298e-08
3.35631e-08
1.0475e-08
-9.68171e-08
-6.04616e-07
2.29859e-07
-1.71372e-06
4.47266e-07
-2.6405e-07
-1.49551e-07
1.5963e-06
-7.17865e-07
1.20514e-07
-7.12499e-07
1.11168e-07
-7.05367e-07
4.1508e-07
-6.41029e-07
-4.15996e-08
-3.72432e-07
-1.7917e-07
-2.18941e-07
2.87611e-07
-3.57295e-07
6.71469e-08
-1.61142e-07
-6.98265e-08
3.54228e-08
1.80841e-07
-1.48934e-07
-1.38847e-07
-3.46024e-07
-2.26649e-07
-3.5388e-07
-9.04155e-08
-1.14607e-07
-9.15509e-08
-4.03946e-08
2.30841e-08
-9.18827e-08
2.84049e-08
-2.98252e-08
9.23335e-08
3.18785e-08
6.00492e-08
-6.73776e-09
7.49649e-08
-1.0513e-08
5.96278e-08
5.4646e-08
5.40219e-08
7.28202e-08
3.71584e-08
5.55182e-08
5.03475e-08
4.53295e-08
4.23156e-08
3.10286e-08
3.97495e-08
2.05466e-08
4.03118e-08
3.8383e-08
1.57268e-08
2.12227e-07
-8.16843e-07
4.54029e-07
-1.95552e-06
8.65781e-07
-6.75801e-07
2.79445e-07
2.18264e-06
-8.26788e-07
1.22675e-06
-7.7127e-07
5.56501e-08
-7.63426e-07
4.07236e-07
-6.85803e-07
-1.19223e-07
-5.12217e-07
-3.52756e-07
-3.11078e-07
8.64728e-08
-3.17739e-07
7.38079e-08
-3.0938e-07
-7.81855e-08
-1.30526e-07
1.98614e-09
-1.69376e-07
-9.99972e-08
-3.48829e-07
-4.71963e-08
-3.591e-07
-8.01444e-08
-1.54061e-07
-2.96589e-07
-1.58361e-08
-1.15141e-07
1.24067e-08
1.61698e-10
5.17861e-08
5.29539e-08
7.25713e-08
3.92632e-08
6.94949e-08
7.8041e-08
1.10303e-07
1.88194e-08
1.13955e-07
5.0369e-08
8.95392e-08
6.15736e-08
9.03081e-08
4.95778e-08
7.90318e-08
5.35912e-08
5.77065e-08
6.10739e-08
4.52189e-08
5.27985e-08
3.24578e-08
5.1143e-08
2.28996e-08
-2.73274e-08
4.83815e-08
-2.54819e-08
8.27944e-08
-3.44129e-08
1.23379e-07
-4.05847e-08
1.65605e-07
-4.22259e-08
1.85835e-07
-2.02297e-08
1.86714e-07
-8.79114e-10
2.18886e-07
-3.21722e-08
1.7641e-07
4.24765e-08
6.14166e-08
1.14993e-07
-6.2287e-09
6.76453e-08
-2.25866e-08
1.63579e-08
-1.48909e-08
-7.6956e-09
2.10752e-08
-3.59661e-08
4.34569e-08
-2.23817e-08
4.08246e-08
2.63234e-09
3.26698e-08
8.15472e-09
2.64688e-08
6.20101e-09
1.31009e-08
1.33679e-08
5.86638e-09
7.23454e-09
-9.69853e-09
1.55649e-08
-2.39314e-08
1.42329e-08
-3.66863e-08
1.27549e-08
-4.88661e-08
1.21798e-08
-6.83463e-08
1.94802e-08
-8.12582e-08
1.29119e-08
-8.63473e-08
5.08911e-09
-7.13144e-08
-1.5033e-08
-3.82355e-08
-3.30789e-08
-3.82355e-08
2.26619e-08
-5.29777e-08
4.99176e-08
-5.27376e-08
8.41877e-08
-6.8683e-08
1.28377e-07
-8.47737e-08
1.81253e-07
-9.51024e-08
2.33203e-07
-7.2179e-08
2.68233e-07
-3.59098e-08
3.10457e-07
-7.4396e-08
3.17077e-07
3.58565e-08
2.12648e-07
2.19423e-07
8.38883e-08
1.96405e-07
1.79065e-08
8.23396e-08
2.45729e-08
-1.4362e-08
3.9221e-08
-5.06142e-08
4.50629e-08
-2.82236e-08
3.33319e-08
1.43633e-08
2.03099e-09
3.94556e-08
-9.92542e-09
1.81574e-08
-3.60243e-08
3.94667e-08
-4.8974e-08
2.01843e-08
-7.11605e-08
3.77514e-08
-8.98943e-08
3.29666e-08
-1.01516e-07
2.43765e-08
-1.11064e-07
2.17279e-08
-1.24177e-07
3.25933e-08
-1.26957e-07
1.56914e-08
-1.19256e-07
-2.61117e-09
-8.65984e-08
-4.76911e-08
-3.93719e-08
-8.03053e-08
-7.76075e-08
1.00664e-08
-7.03111e-08
3.0495e-08
-7.31661e-08
5.75671e-08
-9.5755e-08
9.38936e-08
-1.211e-07
1.37809e-07
-1.39018e-07
1.94392e-07
-1.28762e-07
2.44334e-07
-8.58518e-08
2.79912e-07
-1.09974e-07
3.08321e-07
7.44733e-09
2.60678e-07
2.67066e-07
1.58141e-07
2.98942e-07
7.5981e-08
1.645e-07
4.8737e-08
1.28821e-08
2.06429e-08
-2.25201e-08
1.11474e-08
-1.87282e-08
-3.05248e-09
2.85632e-08
-3.84551e-08
7.48582e-08
-4.19246e-08
2.16269e-08
-6.7824e-08
6.53661e-08
-7.72291e-08
2.95894e-08
-9.45011e-08
5.50234e-08
-1.1168e-07
5.01451e-08
-1.17208e-07
2.99048e-08
-1.23043e-07
2.75629e-08
-1.31253e-07
4.0804e-08
-1.30068e-07
1.45059e-08
-1.18858e-07
-1.3821e-08
-8.26858e-08
-8.38633e-08
-3.45393e-08
-1.28452e-07
-1.12147e-07
-8.66986e-10
-8.21777e-08
2.01341e-08
-9.41672e-08
4.90501e-08
-1.24671e-07
7.21514e-08
-1.44201e-07
9.31603e-08
-1.60027e-07
1.30197e-07
-1.65798e-07
1.95e-07
-1.50655e-07
2.32423e-07
-1.47397e-07
2.50756e-07
-1.08852e-08
2.49694e-07
2.68128e-07
1.91917e-07
3.56719e-07
1.18115e-07
2.38301e-07
6.31126e-08
6.78848e-08
2.64612e-09
3.79464e-08
-1.80117e-08
1.92962e-09
-3.5689e-08
4.62405e-08
-6.81955e-08
1.07365e-07
-5.71977e-08
1.06292e-08
-7.64737e-08
8.4642e-08
-8.62902e-08
3.94059e-08
-9.87963e-08
6.75295e-08
-1.16201e-07
6.75503e-08
-1.18814e-07
3.25178e-08
-1.23577e-07
3.23251e-08
-1.30752e-07
4.79794e-08
-1.291e-07
1.28542e-08
-1.17474e-07
-2.54474e-08
-8.08559e-08
-1.20481e-07
-3.26728e-08
-1.76635e-07
-1.4482e-07
-1.87027e-08
-8.30006e-08
-1.63813e-08
-9.64885e-08
-2.894e-08
-1.12112e-07
-3.78896e-08
-1.35252e-07
-2.51181e-08
-1.72798e-07
1.09099e-08
-2.01826e-07
6.90584e-08
-2.08804e-07
1.175e-07
-1.95839e-07
1.52465e-07
-4.5851e-08
1.79877e-07
2.40717e-07
1.73443e-07
3.63152e-07
1.28611e-07
2.83134e-07
6.26705e-08
1.33825e-07
-1.68649e-08
1.17482e-07
-4.31981e-08
2.82628e-08
-5.822e-08
6.12624e-08
-8.91294e-08
1.38274e-07
-6.34137e-08
-1.50866e-08
-7.20394e-08
9.32677e-08
-8.90259e-08
5.63923e-08
-9.84713e-08
7.6975e-08
-1.17303e-07
8.6382e-08
-1.1881e-07
3.40249e-08
-1.23285e-07
3.67999e-08
-1.30548e-07
5.52428e-08
-1.29176e-07
1.14817e-08
-1.17491e-07
-3.71322e-08
-8.06513e-08
-1.57321e-07
-3.21803e-08
-2.25106e-07
-1.77e-07
-3.16431e-08
-6.92363e-08
-5.47955e-08
-7.3336e-08
-8.31398e-08
-8.3768e-08
-9.57162e-08
-1.22675e-07
-8.5301e-08
-1.83213e-07
-5.53041e-08
-2.31823e-07
-6.94208e-09
-2.57166e-07
3.34396e-08
-2.3622e-07
7.03497e-08
-8.2761e-08
1.00862e-07
2.10205e-07
1.08358e-07
3.55655e-07
9.58096e-08
2.95682e-07
3.30459e-08
1.96589e-07
-4.60477e-08
1.96575e-07
-6.79928e-08
5.02079e-08
-7.17933e-08
6.50629e-08
-9.73383e-08
1.63819e-07
-6.50215e-08
-4.74033e-08
-6.33655e-08
9.16117e-08
-8.98765e-08
8.29033e-08
-9.81037e-08
8.52022e-08
-1.18032e-07
1.0631e-07
-1.19055e-07
3.50478e-08
-1.23176e-07
4.09207e-08
-1.30724e-07
6.27916e-08
-1.29761e-07
1.05178e-08
-1.17983e-07
-4.89096e-08
-8.08516e-08
-1.94453e-07
-3.20102e-08
-2.73947e-07
-2.0901e-07
-3.73216e-08
-4.34602e-08
-6.47984e-08
-4.58593e-08
-8.02565e-08
-6.83099e-08
-8.61129e-08
-1.16819e-07
-9.41265e-08
-1.752e-07
-9.28791e-08
-2.33071e-07
-7.87398e-08
-2.71305e-07
-6.31031e-08
-2.51857e-07
-2.31777e-08
-1.22686e-07
3.20197e-08
1.55008e-07
6.70476e-08
3.20627e-07
5.52943e-08
3.07435e-07
-1.02555e-08
2.62139e-07
-7.32452e-08
2.59565e-07
-8.80996e-08
6.50623e-08
-6.95905e-08
4.65538e-08
-8.10995e-08
1.75328e-07
-6.40767e-08
-6.44261e-08
-5.79236e-08
8.54587e-08
-9.03954e-08
1.15375e-07
-9.86695e-08
9.34762e-08
-1.18723e-07
1.26364e-07
-1.19569e-07
3.5894e-08
-1.23106e-07
4.44577e-08
-1.31018e-07
7.0703e-08
-1.30544e-07
1.00441e-08
-1.18638e-07
-6.08152e-08
-8.11411e-08
-2.3195e-07
-3.18731e-08
-3.23215e-07
-2.40883e-07
-2.17059e-08
-1.96527e-08
-4.6326e-08
-2.12392e-08
-6.6699e-08
-4.79371e-08
-8.44074e-08
-9.91106e-08
-1.04845e-07
-1.54762e-07
-1.24847e-07
-2.13068e-07
-1.34013e-07
-2.6214e-07
-1.34458e-07
-2.51412e-07
-9.80698e-08
-1.59074e-07
-2.51479e-08
8.20857e-08
1.81568e-08
2.77323e-07
8.45051e-09
3.17142e-07
-3.99589e-08
3.10548e-07
-7.41707e-08
2.93777e-07
-8.86478e-08
7.95394e-08
-4.73705e-08
5.27654e-09
-4.49393e-08
1.72897e-07
-6.18537e-08
-4.75117e-08
-5.89197e-08
8.25246e-08
-9.14443e-08
1.479e-07
-1.00296e-07
1.02328e-07
-1.19323e-07
1.45391e-07
-1.20289e-07
3.68595e-08
-1.23013e-07
4.71819e-08
-1.31362e-07
7.90515e-08
-1.3147e-07
1.01527e-08
-1.19409e-07
-7.28759e-08
-8.14713e-08
-2.69889e-07
-3.17085e-08
-3.72978e-07
-2.72592e-07
-1.13634e-08
-1.08975e-09
-3.2831e-08
2.28316e-10
-5.4924e-08
-2.58441e-08
-7.43896e-08
-7.96451e-08
-9.62089e-08
-1.32943e-07
-1.19834e-07
-1.89443e-07
-1.46333e-07
-2.35641e-07
-1.67361e-07
-2.30383e-07
-1.68075e-07
-1.58361e-07
-1.12887e-07
2.68975e-08
-6.45589e-08
2.28995e-07
-4.12356e-08
2.93818e-07
-4.79931e-08
3.17306e-07
-4.92756e-08
2.95059e-07
-5.4655e-08
8.49188e-08
-1.96976e-08
-2.96808e-08
-2.04812e-08
1.7368e-07
-6.45044e-08
-3.48841e-09
-6.57238e-08
8.37439e-08
-9.22665e-08
1.74442e-07
-1.0312e-07
1.13182e-07
-1.19783e-07
1.62055e-07
-1.21135e-07
3.82109e-08
-1.22898e-07
4.89446e-08
-1.31737e-07
8.78907e-08
-1.32539e-07
1.09553e-08
-1.20294e-07
-8.51216e-08
-8.18356e-08
-3.08347e-07
-3.15035e-08
-4.2331e-07
-3.04095e-07
-5.27737e-09
1.01864e-08
-1.96761e-08
1.4627e-08
-3.74149e-08
-8.10524e-09
-5.96068e-08
-5.74532e-08
-8.09134e-08
-1.11636e-07
-1.05364e-07
-1.64992e-07
-1.34549e-07
-2.06457e-07
-1.64796e-07
-2.00136e-07
-2.02339e-07
-1.20817e-07
-1.81118e-07
5.67626e-09
-1.25188e-07
1.73064e-07
-7.33614e-08
2.41992e-07
-6.05381e-08
3.04483e-07
-3.64936e-08
2.71015e-07
-2.19935e-08
7.04186e-08
-4.14814e-09
-4.75261e-08
-1.51673e-08
1.84699e-07
-7.11017e-08
5.24459e-08
-7.42703e-08
8.69125e-08
-9.08588e-08
1.91031e-07