/*--------------------------------*- C++ -*----------------------------------*\
| =========                 |                                                 |
| \\      /  F ield         | OpenFOAM: The Open Source CFD Toolbox           |
|  \\    /   O peration     | Version:  2.4.0                                 |
|   \\  /    A nd           | Web:      www.OpenFOAM.org                      |
|    \\/     M anipulation  |                                                 |
\*---------------------------------------------------------------------------*/
FoamFile
{
    version     2.0;
    format      ascii;
    class       volScalarField;
    location    "0.082";
    object      alpha.water;
}
// * * * * * * * * * * * * * * * * * * * * * * * * * * * * * * * * * * * * * //

dimensions      [0 0 0 0 0 0 0];

internalField   nonuniform List<scalar> 
10000
(
8.67196e-93
8.26573e-88
2.51901e-83
9.37401e-80
1.21877e-76
1.00228e-73
6.91025e-71
4.53766e-68
2.96022e-65
1.88418e-62
1.10814e-59
5.74445e-57
2.44948e-54
8.04135e-52
2.02788e-49
4.08541e-47
6.73363e-45
9.16935e-43
9.68786e-41
7.57533e-39
4.31184e-37
1.76579e-35
5.17588e-34
1.07255e-32
1.54233e-31
1.5085e-30
9.79199e-30
4.13155e-29
1.1372e-28
1.8538e-28
1.8221e-28
1.08524e-28
3.86102e-29
7.90205e-30
8.60528e-31
4.54067e-32
1.53431e-33
3.80635e-35
7.92503e-37
1.50472e-38
2.68546e-40
4.45858e-42
6.70632e-44
8.90616e-46
1.02211e-47
9.93414e-50
7.98377e-52
5.13029e-54
2.50081e-56
8.43413e-59
3.5204e-89
9.21786e-84
2.66958e-79
8.63768e-76
1.01482e-72
7.73384e-70
5.01581e-67
3.11131e-64
1.90198e-61
1.11846e-58
5.96623e-56
2.7592e-53
1.03558e-50
2.96535e-48
6.45765e-46
1.10486e-43
1.52967e-41
1.75171e-39
1.58419e-37
1.08025e-35
5.43773e-34
1.99275e-32
5.28795e-31
1.00501e-29
1.34492e-28
1.24437e-27
7.7859e-27
3.23742e-26
9.06887e-26
1.534e-25
1.61592e-25
1.07674e-25
4.53771e-26
1.19314e-26
1.90557e-27
1.76673e-28
1.23779e-29
7.27142e-31
3.86984e-32
1.93346e-33
9.06188e-35
3.91137e-36
1.52329e-37
5.26119e-39
1.58657e-40
4.10336e-42
8.87855e-44
1.54835e-45
2.05396e-47
1.8829e-49
4.99557e-86
3.64413e-80
8.94161e-76
2.49091e-72
2.62707e-69
1.83481e-66
1.1013e-63
6.32779e-61
3.55124e-58
1.89249e-55
9.01592e-53
3.67647e-50
1.20486e-47
2.99713e-45
5.6306e-43
8.19575e-41
9.53339e-39
9.13055e-37
7.01244e-35
4.14412e-33
1.83768e-31
6.0123e-30
1.44199e-28
2.51035e-27
3.12295e-26
2.73102e-25
1.64559e-24
6.73415e-24
1.9181e-23
3.34553e-23
3.7298e-23
2.7182e-23
1.30336e-23
4.0928e-24
8.31599e-25
1.07273e-25
1.06623e-26
9.31172e-28
7.55118e-29
5.78488e-30
4.14972e-31
2.73852e-32
1.63548e-33
8.71707e-35
4.0874e-36
1.65406e-37
5.61441e-39
1.53145e-40
3.14701e-42
4.39131e-44
5.55029e-83
7.69886e-77
1.52759e-72
3.66674e-69
3.47118e-66
2.21088e-63
1.21582e-60
6.38457e-58
3.24286e-55
1.54491e-52
6.50165e-50
2.3179e-47
6.59529e-45
1.42159e-42
2.30437e-40
2.86429e-38
2.80991e-36
2.24936e-34
1.45934e-32
7.43348e-31
2.89322e-29
8.43318e-28
1.82575e-26
2.90819e-25
3.35976e-24
2.77426e-23
1.60818e-22
6.46896e-22
1.87395e-21
3.35484e-21
3.92468e-21
3.08461e-21
1.64533e-21
5.95094e-22
1.44912e-22
2.35207e-23
2.95641e-24
3.34971e-25
3.56638e-26
3.59573e-27
3.39322e-28
2.9499e-29
2.33046e-30
1.65257e-31
1.03635e-32
5.62369e-34
2.55529e-35
9.26392e-37
2.49531e-38
4.45757e-40
6.01437e-80
1.02787e-73
1.62127e-69
3.36401e-66
2.86252e-63
1.65801e-60
8.29405e-58
3.94064e-55
1.79192e-52
7.55106e-50
2.78293e-47
8.61337e-45
2.11758e-42
3.94619e-40
5.52013e-38
5.8825e-36
4.8934e-34
3.28445e-32
1.79479e-30
7.83796e-29
2.66573e-27
6.90317e-26
1.34659e-24
1.95954e-23
2.09905e-22
1.63406e-21
9.0984e-21
3.59168e-20
1.05896e-19
1.93792e-19
2.3628e-19
1.98276e-19
1.15947e-19
4.72906e-20
1.33753e-20
2.60249e-21
3.92401e-22
5.41835e-23
7.07752e-24
8.76418e-25
1.01618e-25
1.08795e-26
1.06301e-27
9.36675e-29
7.32306e-30
4.95548e-31
2.79782e-32
1.25016e-33
4.0916e-35
8.6591e-37
6.6072e-77
9.55762e-71
1.19148e-66
2.14462e-63
1.64304e-60
8.63812e-58
3.90908e-55
1.66685e-52
6.72558e-50
2.48463e-47
7.9593e-45
2.12532e-42
4.49423e-40
7.22418e-38
8.71867e-36
7.99272e-34
5.67146e-32
3.21094e-30
1.47784e-28
5.50775e-27
1.62842e-25
3.73232e-24
6.54326e-23
8.68001e-22
8.60322e-21
6.30049e-20
3.36229e-19
1.29981e-18
3.90507e-18
7.27527e-18
9.18944e-18
8.16795e-18
5.18171e-18
2.35044e-18
7.57951e-19
1.72276e-19
3.02728e-20
4.92069e-21
7.59325e-22
1.11161e-22
1.5254e-23
1.93826e-24
2.2564e-25
2.37726e-26
2.22609e-27
1.80268e-28
1.2134e-29
6.41814e-31
2.45557e-32
5.9294e-34
7.00506e-74
6.60768e-68
6.5015e-64
1.01841e-60
7.03542e-58
3.35281e-55
1.36649e-52
5.19336e-50
1.84469e-47
5.92636e-45
1.63858e-42
3.75224e-40
6.79382e-38
9.39509e-36
9.77486e-34
7.72759e-32
4.70346e-30
2.26312e-28
8.80007e-27
2.79096e-25
7.13503e-24
1.44052e-22
2.26185e-21
2.72763e-20
2.49479e-19
1.71404e-18
8.74236e-18
3.30091e-17
1.01211e-16
1.91112e-16
2.48643e-16
2.32463e-16
1.58641e-16
7.92229e-17
2.87755e-17
7.52498e-18
1.51447e-18
2.83708e-19
5.05395e-20
8.5461e-21
1.35663e-21
1.99963e-22
2.70899e-23
3.32953e-24
3.64016e-25
3.43794e-26
2.69094e-27
1.6464e-28
7.21449e-30
1.95267e-31
6.5048e-71
3.56466e-65
2.76766e-61
3.7829e-58
2.35956e-55
1.0183e-52
3.7244e-50
1.25406e-47
3.89271e-45
1.0792e-42
2.55719e-40
4.99122e-38
7.7005e-36
9.1321e-34
8.17863e-32
5.58251e-30
2.92786e-28
1.20648e-26
3.98622e-25
1.07567e-23
2.36684e-22
4.18619e-21
5.86092e-20
6.40234e-19
5.38598e-18
3.45996e-17
1.68088e-16
6.17857e-16
1.93734e-15
3.68909e-15
4.91484e-15
4.8017e-15
3.4989e-15
1.90779e-15
7.73552e-16
2.30472e-16
5.2616e-17
1.12041e-17
2.26868e-18
4.36346e-19
7.89183e-20
1.32852e-20
2.06047e-21
2.90384e-22
3.64177e-23
3.94255e-24
3.53103e-25
2.46385e-26
1.22261e-27
3.6801e-29
5.07396e-68
1.55711e-62
9.53934e-59
1.14013e-55
6.42655e-53
2.50985e-50
8.21552e-48
2.43859e-45
6.57155e-43
1.56063e-40
3.14584e-38
5.19965e-36
6.79882e-34
6.88643e-32
5.29647e-30
3.12084e-28
1.41472e-26
5.0257e-25
1.42112e-23
3.27235e-22
6.18021e-21
9.52287e-20
1.18247e-18
1.16488e-17
8.97772e-17
5.37125e-16
2.47534e-15
8.82357e-15
2.83649e-14
5.41461e-14
7.3414e-14
7.44676e-14
5.7536e-14
3.4e-14
1.52751e-14
5.14828e-15
1.32638e-15
3.18155e-16
7.24625e-17
1.56859e-17
3.19785e-18
6.07893e-19
1.06627e-19
1.70111e-20
2.41587e-21
2.96126e-22
3.00117e-23
2.36597e-24
1.32034e-25
4.40516e-27
3.28036e-65
5.66385e-60
2.73885e-56
2.86646e-53
1.46033e-50
5.15784e-48
1.50821e-45
3.93189e-43
9.1498e-41
1.8494e-38
3.14813e-36
4.37619e-34
4.82046e-32
4.14867e-30
2.73091e-28
1.3867e-26
5.44046e-25
1.67402e-23
4.08082e-22
8.06204e-21
1.30702e-19
1.7465e-18
1.91203e-17
1.68953e-16
1.18727e-15
6.58521e-15
2.86532e-14
9.85978e-14
3.25957e-13
6.19329e-13
8.48905e-13
8.88209e-13
7.22661e-13
4.59538e-13
2.27188e-13
8.61036e-14
2.49676e-14
6.7027e-15
1.70463e-15
4.12239e-16
9.39957e-17
2.00057e-17
3.93221e-18
7.03384e-19
1.12046e-19
1.54103e-20
1.75286e-21
1.55039e-22
9.68065e-24
3.57269e-25
1.75143e-62
1.74907e-57
6.68705e-54
6.13201e-51
2.82095e-48
9.00169e-46
2.3485e-43
5.36512e-41
1.07455e-38
1.84044e-36
2.62946e-34
3.05424e-32
2.81665e-30
2.04663e-28
1.14768e-26
5.00514e-25
1.69848e-23
4.53711e-22
9.59183e-21
1.63667e-19
2.28481e-18
2.64126e-17
2.53484e-16
1.9967e-15
1.27224e-14
6.50742e-14
2.65899e-13
8.78661e-13
2.99828e-12
5.62127e-12
7.73264e-12
8.29012e-12
7.05403e-12
4.79281e-12
2.5898e-12
1.09749e-12
3.58564e-13
1.06965e-13
3.01854e-14
8.1074e-15
2.05488e-15
4.86514e-16
1.06443e-16
2.12051e-17
3.76376e-18
5.77114e-19
7.3234e-20
7.22887e-21
5.0297e-22
2.04943e-23
7.74903e-60
4.63462e-55
1.40605e-51
1.12927e-48
4.68075e-46
1.34695e-43
3.13126e-41
6.26071e-39
1.07796e-36
1.56244e-34
1.86778e-32
1.80512e-30
1.38691e-28
8.45e-27
4.01339e-25
1.49568e-23
4.37844e-22
1.01497e-20
1.86764e-19
2.7693e-18
3.34701e-17
3.34925e-16
2.80538e-15
1.95713e-14
1.12346e-13
5.26734e-13
2.00891e-12
6.33751e-12
2.24182e-11
4.10325e-11
5.61918e-11
6.1313e-11
5.41866e-11
3.90565e-11
2.29075e-11
1.07917e-11
3.99252e-12
1.31347e-12
4.09469e-13
1.21605e-13
3.40937e-14
8.93293e-15
2.16386e-15
4.7746e-16
9.39038e-17
1.5965e-17
2.24845e-18
2.46545e-19
1.90445e-20
8.5486e-22
2.85584e-57
1.05666e-52
2.55746e-49
1.79667e-46
6.68645e-44
1.72966e-41
3.57448e-39
6.24704e-37
9.24744e-35
1.13613e-32
1.13779e-30
9.15139e-29
5.85153e-27
2.97428e-25
1.18978e-23
3.76645e-22
9.46705e-21
1.89847e-19
3.04291e-18
3.93638e-17
4.14354e-16
3.60159e-15
2.62803e-14
1.61426e-13
8.28982e-13
3.53838e-12
1.25108e-11
3.74381e-11
1.37957e-10
2.43288e-10
3.28734e-10
3.62608e-10
3.30597e-10
2.50954e-10
1.58631e-10
8.25719e-11
3.45766e-11
1.25596e-11
4.3231e-12
1.41503e-12
4.36829e-13
1.26039e-13
3.36374e-14
8.18047e-15
1.77397e-15
3.32805e-16
5.17873e-17
6.28344e-18
5.37159e-19
2.65012e-20
8.7044e-55
2.06681e-50
4.01358e-47
2.46153e-44
8.189e-42
1.89552e-39
3.46824e-37
5.28461e-35
6.72249e-33
7.01827e-31
5.91546e-29
3.98123e-27
2.12821e-25
9.02883e-24
3.0345e-22
8.1219e-21
1.74264e-19
3.00776e-18
4.18923e-17
4.7311e-16
4.35691e-15
3.30584e-14
2.10393e-13
1.13331e-12
5.17115e-12
1.99437e-11
6.48881e-11
1.82981e-10
7.06044e-10
1.18034e-09
1.55849e-09
1.72621e-09
1.6133e-09
1.28041e-09
8.65916e-10
4.94853e-10
2.33582e-10
9.36674e-11
3.55408e-11
1.27916e-11
4.33691e-12
1.37426e-12
4.02899e-13
1.07664e-13
2.56657e-14
5.29843e-15
9.08739e-16
1.21741e-16
1.14945e-17
6.21838e-19
2.19705e-52
3.44349e-48
5.39444e-45
2.88347e-42
8.54031e-40
1.75987e-37
2.8355e-35
3.75128e-33
4.09143e-31
3.63136e-29
2.58714e-27
1.46818e-25
6.61655e-24
2.36187e-22
6.69621e-21
1.51577e-19
2.76579e-18
4.08896e-17
4.9238e-16
4.84174e-15
3.9058e-14
2.59777e-13
1.44709e-12
6.82814e-12
2.75326e-11
9.52087e-11
2.82803e-10
7.47001e-10
3.03297e-09
4.71072e-09
6.01726e-09
6.64682e-09
6.33273e-09
5.21844e-09
3.74846e-09
2.33661e-09
1.23702e-09
5.50371e-10
2.30062e-10
9.08651e-11
3.37842e-11
1.17419e-11
3.77645e-12
1.10734e-12
2.8983e-13
6.57664e-14
1.24176e-14
1.83397e-15
1.90821e-16
1.12799e-17
4.58982e-50
4.82959e-46
6.15225e-43
2.8704e-40
7.56476e-38
1.38394e-35
1.95454e-33
2.23561e-31
2.08377e-29
1.56804e-27
9.44174e-26
4.5341e-24
1.73237e-22
5.25548e-21
1.26739e-19
2.44419e-18
3.80696e-17
4.81803e-16
4.99043e-15
4.25474e-14
2.99842e-13
1.75028e-12
8.56542e-12
3.54635e-11
1.26027e-10
3.8811e-10
1.04432e-09
2.57264e-09
1.10307e-08
1.55134e-08
1.89716e-08
2.07857e-08
2.00882e-08
1.70685e-08
1.29453e-08
8.74889e-09
5.16869e-09
2.57926e-09
1.18965e-09
5.1574e-10
2.10276e-10
8.00663e-11
2.81815e-11
9.03817e-12
2.58807e-12
6.43164e-13
1.33197e-13
2.16041e-14
2.46692e-15
1.58519e-16
7.77498e-48
5.62429e-44
5.93685e-41
2.44067e-38
5.75806e-36
9.385e-34
1.16139e-31
1.14515e-29
9.08726e-28
5.79084e-26
2.94573e-24
1.19201e-22
3.83662e-21
9.85995e-20
2.02548e-18
3.35776e-17
4.5128e-16
4.91721e-15
4.38624e-14
3.2369e-13
1.98255e-12
1.01358e-11
4.36226e-11
1.58931e-10
4.98036e-10
1.3601e-09
3.29407e-09
7.55739e-09
3.42496e-08
4.21033e-08
4.84721e-08
5.33684e-08
5.19462e-08
4.47851e-08
3.58472e-08
2.61649e-08
1.71687e-08
9.74348e-09
4.93885e-09
2.35086e-09
1.05064e-09
4.3759e-10
1.68169e-10
5.88246e-11
1.83681e-11
4.98069e-12
1.12679e-12
1.99862e-13
2.49362e-14
1.73269e-15
1.03482e-45
5.42632e-42
4.91641e-39
1.80389e-36
3.77135e-34
5.34802e-32
5.67255e-30
4.73828e-28
3.17952e-26
1.71571e-24
7.41583e-23
2.56022e-21
7.05971e-20
1.55764e-18
2.75763e-17
3.93293e-16
4.54261e-15
4.28253e-14
3.32487e-13
2.13341e-12
1.13403e-11
5.06605e-11
1.91207e-10
6.13975e-10
1.70059e-09
4.11746e-09
8.94622e-09
1.91489e-08
9.14161e-08
9.31957e-08
9.64203e-08
1.18645e-07
1.14683e-07
9.34413e-08
7.91935e-08
6.29205e-08
4.56274e-08
2.95387e-08
1.66122e-08
8.70914e-09
4.26082e-09
1.93594e-09
8.1009e-10
3.08201e-10
1.04625e-10
3.08506e-11
7.59612e-12
1.46776e-12
1.9931e-13
1.4905e-14
1.07019e-43
4.41853e-40
3.46582e-37
1.11559e-34
2.03686e-32
2.48527e-30
2.23021e-28
1.56416e-26
8.83371e-25
4.03649e-23
1.48692e-21
4.39933e-20
1.04462e-18
1.99345e-17
3.06509e-16
3.81051e-15
3.84797e-14
3.17326e-13
2.14859e-12
1.20117e-11
5.589e-11
2.18772e-10
7.22435e-10
2.04403e-09
5.01052e-09
1.07952e-08
2.10709e-08
4.21966e-08
2.09595e-07
1.65583e-07
1.03664e-07
1.40892e-07
1.4413e-07
1.06006e-07
1.03888e-07
1.22129e-07
9.71505e-08
7.09197e-08
4.51914e-08
2.62974e-08
1.41328e-08
7.01647e-09
3.19581e-09
1.31974e-09
4.85545e-10
1.55123e-10
4.14118e-11
8.68413e-12
1.27875e-12
1.02485e-13
8.63305e-42
2.9291e-38
1.96932e-35
5.55596e-33
8.88327e-31
9.36428e-29
7.13653e-27
4.19049e-25
1.97544e-23
7.61327e-22
2.39379e-20
6.09243e-19
1.25138e-17
2.07489e-16
2.7827e-15
3.02723e-14
2.68176e-13
1.94401e-12
1.15912e-11
5.71624e-11
2.34601e-10
8.07104e-10
2.34895e-09
5.86639e-09
1.27374e-08
2.45543e-08
4.32982e-08
8.11896e-08
4.01057e-07
1.7366e-07
1.80988e-06
6.49575e-06
6.72665e-06
3.9455e-06
9.59856e-07
1.79347e-07
1.66829e-07
1.32898e-07
9.82401e-08
6.43147e-08
3.84594e-08
2.10157e-08
1.04495e-08
4.68566e-09
1.86641e-09
6.44866e-10
1.86199e-10
4.22527e-11
6.72493e-12
5.75514e-13
5.30963e-40
1.48993e-36
8.68134e-34
2.17067e-31
3.06848e-29
2.82417e-27
1.8492e-25
9.17576e-24
3.61805e-22
1.16912e-20
3.12324e-19
6.85074e-18
1.22169e-16
1.76727e-15
2.07547e-14
1.98286e-13
1.54592e-12
9.87743e-12
5.19776e-11
2.26524e-10
8.22865e-10
2.51092e-09
6.49908e-09
1.44479e-08
2.80393e-08
4.86836e-08
7.83441e-08
1.37769e-07
5.49791e-07
3.31819e-06
1.05327e-05
1.05563e-05
1.05618e-05
1.05564e-05
6.04356e-06
2.15217e-07
2.33774e-07
1.94759e-07
1.61437e-07
1.21219e-07
8.21768e-08
5.01969e-08
2.75876e-08
1.35603e-08
5.88671e-09
2.2085e-09
6.91018e-10
1.69738e-10
2.91832e-11
2.66529e-12
2.43681e-38
5.65145e-35
2.89502e-32
6.43772e-30
8.08449e-28
6.57541e-26
3.77414e-24
1.62135e-22
5.44847e-21
1.48382e-19
3.35214e-18
6.30947e-17
9.78847e-16
1.23963e-14
1.27934e-13
1.07703e-12
7.41327e-12
4.18645e-11
1.94883e-10
7.52083e-10
2.42279e-09
6.57211e-09
1.51828e-08
3.03232e-08
5.33975e-08
8.50117e-08
1.27482e-07
2.13307e-07
7.06517e-07
1.03993e-05
1.0496e-05
1.05625e-05
1.05643e-05
9.92915e-06
4.96853e-06
2.5491e-07
2.88242e-07
2.31909e-07
2.08905e-07
1.77057e-07
1.36665e-07
9.45928e-08
5.83098e-08
3.18097e-08
1.51921e-08
6.23019e-09
2.12177e-09
5.65755e-10
1.05292e-10
1.02962e-11
7.96406e-37
1.56906e-33
7.12126e-31
1.41636e-28
1.59258e-26
1.16019e-24
5.93756e-23
2.25736e-21
6.64042e-20
1.56084e-18
3.00549e-17
4.83013e-16
6.49288e-15
7.21086e-14
6.56019e-13
4.88273e-12
2.97656e-11
1.49015e-10
6.15307e-10
2.10808e-09
6.03874e-09
1.46106e-08
3.02697e-08
5.47064e-08
8.83636e-08
1.31478e-07
1.88367e-07
2.56624e-07
7.99885e-07
4.61964e-06
7.65859e-06
5.38475e-06
2.68899e-06
2.46706e-07
2.45403e-07
2.49759e-07
2.58542e-07
2.46778e-07
2.31711e-07
2.12906e-07
1.82737e-07
1.42514e-07
9.89673e-08
6.04484e-08
3.20739e-08
1.45079e-08
5.41787e-09
1.57732e-09
3.19339e-10
3.36705e-11
1.83987e-35
3.14958e-32
1.27942e-29
2.29873e-27
2.34711e-25
1.5555e-23
7.20894e-22
2.46033e-20
6.43301e-19
1.3316e-17
2.23963e-16
3.10765e-15
3.60718e-14
3.50696e-13
2.81978e-12
1.86164e-11
1.00851e-10
4.49123e-10
1.65061e-09
5.03796e-09
1.28823e-08
2.79315e-08
5.22144e-08
8.60794e-08
1.28807e-07
1.81073e-07
2.03763e-07
5.15655e-07
2.61297e-06
3.14758e-07
2.46334e-07
2.44125e-07
2.44114e-07
2.44438e-07
2.45259e-07
2.43752e-07
2.68712e-07
2.40786e-07
2.38931e-07
2.29699e-07
2.11875e-07
1.81748e-07
1.40595e-07
9.59229e-08
5.66872e-08
2.841e-08
1.16911e-08
3.73358e-09
8.26362e-10
9.48513e-11
2.9998e-34
4.54888e-31
1.67503e-28
2.7585e-26
2.59842e-24
1.57945e-22
6.69477e-21
2.08439e-19
4.94749e-18
9.2063e-17
1.37351e-15
1.68009e-14
1.70394e-13
1.4448e-12
1.02577e-11
6.02509e-11
2.91124e-10
1.15791e-09
3.80454e-09
1.03948e-08
2.38542e-08
4.66367e-08
7.92156e-08
1.19952e-07
1.6728e-07
2.1643e-07
4.97314e-07
5.94572e-06
8.00316e-06
6.16761e-06
1.18891e-06
2.49348e-07
2.51299e-07
2.55181e-07
2.54737e-07
2.48945e-07
2.44699e-07
2.44484e-07
2.42068e-07
2.36899e-07
2.27235e-07
2.08324e-07
1.75866e-07
1.32435e-07
8.6683e-08
4.8053e-08
2.17972e-08
7.64573e-09
1.85542e-09
2.34047e-10
3.44131e-33
4.7129e-30
1.59798e-27
2.44579e-25
2.13313e-23
1.20029e-21
4.70443e-20
1.3529e-18
2.9604e-17
5.05959e-16
6.88499e-15
7.57268e-14
6.83757e-13
5.12571e-12
3.20326e-11
1.67404e-10
7.24343e-10
2.5858e-09
7.63919e-09
1.88059e-08
3.9017e-08
6.93592e-08
1.08051e-07
1.5164e-07
1.99627e-07
3.17353e-07
5.25052e-06
8.00355e-06
8.0099e-06
8.01339e-06
1.69444e-06
2.44142e-07
2.59972e-07
2.63059e-07
2.6965e-07
2.56726e-07
2.52759e-07
2.54061e-07
2.53478e-07
2.49371e-07
2.42301e-07
2.2873e-07
1.71025e-07
1.37338e-07
1.13727e-07
7.15544e-08
3.58946e-08
1.38127e-08
3.67512e-09
5.14066e-10
2.76536e-32
3.48868e-29
1.10683e-26
1.58796e-24
1.29756e-22
6.83658e-21
2.50883e-19
6.74739e-18
1.37785e-16
2.19126e-15
2.76485e-14
2.80503e-13
2.31014e-12
1.55998e-11
8.72926e-11
4.05738e-10
1.57526e-09
5.07701e-09
1.35831e-08
3.03865e-08
5.75692e-08
9.41683e-08
1.36461e-07
1.78389e-07
1.87105e-07
1.07072e-06
8.00377e-06
8.00993e-06
8.00704e-06
2.07693e-06
2.50304e-07
2.50317e-07
2.63663e-07
5.49736e-07
2.83376e-07
2.6327e-07
2.58354e-07
2.57909e-07
2.63126e-07
2.60271e-07
2.55259e-07
2.41488e-07
3.01509e-07
2.12236e-07
1.02544e-07
9.05206e-08
5.25063e-08
2.23275e-08
6.50489e-09
1.01717e-09
1.54469e-31
1.83228e-28
5.52574e-26
7.53367e-24
5.84939e-22
2.92888e-20
1.02043e-18
2.60094e-17
5.02105e-16
7.52496e-15
8.91366e-14
8.45603e-13
6.48594e-12
4.04705e-11
2.06647e-10
8.71778e-10
3.0483e-09
8.91249e-09
2.17761e-08
4.47024e-08
7.81839e-08
1.1899e-07
1.61919e-07
2.00356e-07
2.05156e-07
6.73635e-07
5.8898e-06
8.01001e-06
2.51604e-06
2.62612e-07
2.6385e-07
2.59481e-07
5.32877e-07
5.80134e-07
5.37892e-07
2.65974e-07
2.60565e-07
2.80713e-07
2.69717e-07
2.6729e-07
2.58852e-07
3.08118e-07
3.07613e-07
1.27974e-07
1.138e-07
1.08054e-07
6.99104e-08
3.25518e-08
1.03268e-08
1.81501e-09
5.91165e-31
6.73871e-28
1.96567e-25
2.59365e-23
1.9488e-21
9.43253e-20
3.17055e-18
7.77619e-17
1.43989e-15
2.06223e-14
2.32487e-13
2.08977e-12
1.51205e-11
8.86896e-11
4.23648e-10
1.65448e-09
5.33044e-09
1.42497e-08
3.20149e-08
6.08638e-08
9.91061e-08
1.41193e-07
1.80979e-07
2.15558e-07
2.44757e-07
2.50921e-07
4.55972e-07
1.89989e-06
2.7596e-07
2.70179e-07
2.6826e-07
2.62816e-07
4.61401e-07
4.95399e-07
3.16374e-07
2.62213e-07
2.63462e-07
2.64113e-07
2.66707e-07
2.68604e-07
2.68752e-07
2.63198e-07
3.12283e-07
3.27253e-07
2.3949e-07
9.33268e-08
8.02218e-08
4.21505e-08
1.45936e-08
2.88673e-09
1.51943e-30
1.70347e-27
4.91054e-25
6.40736e-23
4.75718e-21
2.27064e-19
7.50502e-18
1.80363e-16
3.25918e-15
4.53488e-14
4.94312e-13
4.27482e-12
2.961e-11
1.65475e-10
7.50478e-10
2.77473e-09
8.39796e-09
2.10072e-08
4.38431e-08
7.76837e-08
1.18639e-07
1.59333e-07
1.93597e-07
2.19586e-07
2.38738e-07
2.51409e-07
2.51948e-07
2.56675e-07
2.77649e-07
2.82715e-07
2.876e-07
2.71421e-07
2.64036e-07
2.62759e-07
2.62743e-07
2.62772e-07
2.63087e-07
2.64337e-07
2.65017e-07
2.67555e-07
2.74303e-07
2.61008e-07
2.52483e-07
3.26545e-07
2.99354e-07
1.1147e-07
9.58478e-08
5.10825e-08
1.8361e-08
4.01683e-09
2.55342e-30
2.88875e-27
8.44034e-25
1.11634e-22
8.38692e-21
4.03948e-19
1.3424e-17
3.22976e-16
5.81448e-15
8.01758e-14
8.61203e-13
7.29663e-12
4.92274e-11
2.66441e-10
1.16419e-09
4.13036e-09
1.19656e-08
2.84805e-08
5.63692e-08
9.41389e-08
1.35866e-07
1.73821e-07
2.03143e-07
2.24196e-07
2.40281e-07
2.54843e-07
2.61867e-07
6.66668e-07
4.10124e-06
7.07702e-06
8.68736e-06
2.07279e-06
2.67963e-07
2.62902e-07
2.63243e-07
2.63429e-07
2.64026e-07
2.65438e-07
2.6824e-07
2.74107e-07
2.75857e-07
2.15689e-07
2.01933e-07
1.88954e-07
1.53436e-07
1.44761e-07
1.05927e-07
5.56564e-08
1.98678e-08
4.75827e-09
2.70574e-30
3.18695e-27
9.72168e-25
1.34055e-22
1.04696e-20
5.22249e-19
1.78966e-17
4.41823e-16
8.11707e-15
1.13538e-13
1.22922e-12
1.04266e-11
6.99383e-11
3.73745e-10
1.60151e-09
5.53708e-09
1.55517e-08
3.57679e-08
6.80582e-08
1.09002e-07
1.50346e-07
1.84649e-07
2.09146e-07
2.25952e-07
2.38624e-07
2.4919e-07
2.62942e-07
2.75521e-07
8.85369e-06
1.70886e-05
1.70672e-05
1.51013e-05
7.21205e-07
2.64152e-07
2.65349e-07
2.66737e-07
2.69514e-07
2.72035e-07
2.79394e-07
2.99278e-07
3.62308e-07
2.97698e-07
2.08663e-07
1.93559e-07
2.25e-07
1.45814e-07
1.05676e-07
5.18992e-08
1.92385e-08
4.75804e-09
1.72268e-30
2.19489e-27
7.2425e-25
1.07575e-22
9.00559e-21
4.79065e-19
1.74141e-17
4.53453e-16
8.73366e-15
1.27234e-13
1.42458e-12
1.24026e-11
8.47092e-11
4.57124e-10
1.9614e-09
6.73401e-09
1.86341e-08
4.19469e-08
7.77878e-08
1.20958e-07
1.62038e-07
1.93563e-07
2.14768e-07
2.28897e-07
2.39508e-07
2.48602e-07
2.61342e-07
2.5685e-07
2.9584e-06
1.49081e-05
1.70916e-05
1.70204e-05
1.15726e-05
2.65782e-07
2.74317e-07
2.77754e-07
2.84891e-07
2.94059e-07
3.71965e-07
7.23498e-07
1.53432e-06
1.92633e-06
4.01497e-07
2.33662e-06
6.07326e-07
1.24386e-07
1.40926e-07
3.23843e-08
1.70678e-08
4.62583e-09
6.202e-31
8.97232e-28
3.3411e-25
5.55028e-23
5.15476e-21
3.02051e-19
1.20147e-17
3.40151e-16
7.07601e-15
1.1056e-13
1.3176e-12
1.211e-11
8.65447e-11
4.84063e-10
2.13137e-09
7.4327e-09
2.06802e-08
4.63679e-08
8.49884e-08
1.30011e-07
1.70898e-07
2.00623e-07
2.19076e-07
2.30374e-07
2.37871e-07
2.43292e-07
2.47172e-07
2.49455e-07
2.43497e-07
2.46811e-07
9.58691e-06
1.69272e-05
1.66496e-05
3.10946e-07
2.92148e-07
3.34036e-07
4.21072e-07
5.29584e-07
8.66292e-06
5.39825e-05
1.37106e-05
2.02423e-05
1.17692e-07
2.01748e-07
2.06741e-07
8.08163e-08
3.85927e-08
1.88027e-08
-4.21914e-09
2.41662e-09
1.18447e-31
2.06957e-28
9.14294e-26
1.77091e-23
1.8926e-21
1.26347e-19
5.68016e-18
1.80484e-16
4.18543e-15
7.23892e-14
9.4765e-13
9.48597e-12
7.31338e-11
4.36684e-10
2.0294e-09
7.37976e-09
2.11447e-08
4.82188e-08
8.88552e-08
1.35362e-07
1.76067e-07
2.0376e-07
2.1932e-07
2.27693e-07
2.33089e-07
2.37486e-07
2.41577e-07
2.4793e-07
2.4305e-07
2.43577e-07
2.44932e-07
2.32285e-06
1.40796e-05
1.03956e-05
7.76097e-07
4.49329e-05
0.000129195
0.000216921
0.000161216
0.000492222
0.000224122
0.00017216
-1.33617e-06
1.64254e-08
1.17119e-08
4.80325e-09
8.89486e-10
1.25143e-15
-6.78342e-09
1.98643e-16
1.10842e-32
2.55198e-29
1.42423e-26
3.37015e-24
4.30297e-22
3.38176e-20
1.77208e-18
6.51547e-17
1.73772e-15
3.43575e-14
5.10709e-13
5.75872e-12
4.95425e-11
3.26476e-10
1.65356e-09
6.46249e-09
1.96031e-08
4.65891e-08
8.80905e-08
1.35744e-07
1.76601e-07
2.0309e-07
2.16921e-07
2.24203e-07
2.29429e-07
2.3369e-07
2.35405e-07
2.53778e-07
2.4121e-07
2.43732e-07
2.46026e-07
2.48171e-07
2.55624e-06
5.78672e-05
0.000108494
0.000294622
0.000419232
0.000544373
0.000470325
0.000742521
0.00238338
0.00189815
0.0134421
0.030906
0.101701
0.231211
0.358958
0.458363
0.518233
0.550475
4.42398e-34
1.56102e-30
1.20944e-27
3.71042e-25
5.89592e-23
5.62798e-21
3.53071e-19
1.54118e-17
4.85544e-16
1.12976e-14
1.96826e-13
2.58676e-12
2.57338e-11
1.94033e-10
1.10955e-09
4.8185e-09
1.59512e-08
4.05811e-08
8.05699e-08
1.28136e-07
1.6982e-07
1.97402e-07
2.12295e-07
2.20242e-07
2.2617e-07
2.32683e-07
2.3806e-07
2.3745e-07
2.40185e-07
2.4358e-07
2.51818e-07
2.63626e-07
4.71981e-07
0.000120143
0.000294711
0.000547592
0.000794296
0.00107939
0.000708386
0.000660513
0.0380276
0.231594
0.398275
0.636723
0.86993
0.979931
1
1
0.999462
0.999376
8.02733e-36
5.06573e-32
6.03912e-29
2.53389e-26
5.14535e-24
6.03172e-22
4.54058e-20
2.35477e-18
8.85583e-17
2.4716e-15
5.16798e-14
8.15671e-13
9.71989e-12
8.72215e-11
5.8717e-10
2.95605e-09
1.11248e-08
3.14551e-08
6.77644e-08
1.14321e-07
1.57777e-07
1.88484e-07
2.06301e-07
2.16656e-07
2.26382e-07
2.37921e-07
2.51393e-07
2.38215e-07
2.39864e-07
2.41789e-07
2.49108e-07
2.77913e-07
8.59862e-07
0.000190743
0.000482043
0.000579352
0.000923783
0.00125777
0.000703136
0.10521
0.445328
0.699959
0.919822
0.999581
1
1
1
1
1
1
7.64008e-38
1.33866e-33
2.83861e-30
1.68888e-27
4.38825e-25
6.23137e-23
5.49854e-21
3.27545e-19
1.40044e-17
4.41994e-16
1.04517e-14
1.88042e-13
2.62043e-12
2.80136e-11
2.30478e-10
1.41003e-09
6.36082e-09
2.10633e-08
5.1651e-08
9.61096e-08
1.41961e-07
1.77338e-07
2.0047e-07
2.18743e-07
2.42899e-07
2.59202e-07
2.38098e-07
2.40769e-07
2.40763e-07
2.45624e-07
2.67962e-07
5.28972e-07
2.5561e-06
0.000131884
0.00085723
0.00121063
0.000965018
0.00169347
0.127839
0.668651
0.884985
0.996294
0.999946
0.999988
1
1
1
1
1
1
7.10154e-40
4.17846e-35
1.44934e-31
1.18467e-28
3.87876e-26
6.62356e-24
6.83297e-22
4.67171e-20
2.25986e-18
8.00604e-17
2.12761e-15
4.32119e-14
6.74157e-13
8.11545e-12
7.58828e-11
5.3549e-10
2.85823e-09
1.13652e-08
3.37485e-08
7.35975e-08
1.20803e-07
1.54304e-07
1.57949e-07
2.10667e-07
2.26387e-07
2.36301e-07
2.39769e-07
2.40519e-07
2.43526e-07
2.52843e-07
5.12178e-07
5.80843e-06
9.67222e-06
6.46348e-05
0.00117566
0.00118455
0.00111657
0.119666
0.719896
0.985016
0.999928
0.999993
0.999998
1
1
1
1
1
1
1
7.33199e-42
1.29103e-36
7.39641e-33
8.26236e-30
3.38745e-27
6.91746e-25
8.3048e-23
6.49358e-21
3.54445e-19
1.40707e-17
4.19316e-16
9.6053e-15
1.68988e-13
2.30039e-12
2.42432e-11
1.9505e-10
1.19038e-09
5.43221e-09
1.875e-08
4.82978e-08
9.35883e-08
1.35266e-07
3.86537e-07
1.76756e-07
2.18847e-07
2.33881e-07
2.40594e-07
2.41752e-07
2.48186e-07
2.68824e-07
5.22531e-07
2.60977e-06
3.20695e-05
0.00129044
0.00284083
0.00118716
0.0844285
0.627182
0.994329
0.999954
0.999995
1
1
1
1
1
1
1
1
1
6.80208e-44
3.99494e-38
3.7364e-34
5.63125e-31
2.86319e-28
6.93566e-26
9.62624e-24
8.56767e-22
5.26737e-20
2.34292e-18
7.82045e-17
2.01347e-15
3.98545e-14
6.11859e-13
7.25769e-12
6.62465e-11
4.61957e-10
2.41527e-09
9.56636e-09
2.84902e-08
6.40071e-08
1.09442e-07
1.48082e-07
1.70149e-07
1.93821e-07
2.16946e-07
2.38101e-07
2.40149e-07
2.49245e-07
2.87678e-07
7.0046e-07
5.66386e-06
5.04433e-05
0.000222999
0.000794566
0.0335956
0.413411
0.902807
0.999915
0.999995
0.999999
1
1
1
1
1
1
1
1
1
6.39055e-46
1.2186e-39
1.80473e-35
3.61568e-32
2.26007e-29
6.45065e-27
1.0297e-24
1.03988e-22
7.19487e-21
3.58733e-19
1.34043e-17
3.86722e-16
8.58916e-15
1.48448e-13
1.98407e-12
2.04922e-11
1.6248e-10
9.69616e-10
4.38943e-09
1.50291e-08
3.90298e-08
7.85484e-08
8.48739e-08
2.1955e-07
1.84277e-07
1.86774e-07
1.99859e-07
2.45009e-07
2.34626e-07
2.66409e-07
5.09425e-07
4.86086e-06
0.00020906
0.000425509
0.00281002
0.17398
0.69892
0.999701
0.999985
0.999999
1
1
1
1
1
1
1
1
1
1
6.32517e-48
3.40547e-41
7.81499e-37
2.06661e-33
1.58316e-30
5.31216e-28
9.73748e-26
1.11527e-23
8.68972e-22
4.86264e-20
2.03535e-18
6.57472e-17
1.63798e-15
3.18902e-14
4.81224e-13
5.62234e-12
5.05735e-11
3.43966e-10
1.77777e-09
6.96956e-09
2.08439e-08
4.93556e-08
5.98268e-08
4.00833e-08
4.55213e-07
1.87677e-07
1.91092e-07
1.9432e-07
2.05501e-07
2.43648e-07
7.91998e-07
7.42094e-06
5.69576e-05
0.000350033
0.00928769
0.367557
0.930915
0.999889
0.999995
1
1
1
1
1
1
1
1
1
1
1
5.94475e-50
7.91806e-43
2.80882e-38
9.83314e-35
9.26408e-32
3.66517e-29
7.73499e-27
1.0073e-24
8.86157e-23
5.58059e-21
2.62352e-19
9.50868e-18
2.66412e-16
5.85985e-15
1.00144e-13
1.32651e-12
1.35555e-11
1.05221e-10
6.21507e-10
2.78871e-09
9.59227e-09
2.65976e-08
3.70865e-08
2.76519e-08
1.37738e-08
3.17955e-06
4.86162e-06
3.23618e-06
2.29898e-07
2.50536e-07
1.30884e-06
3.1931e-06
1.1352e-06
2.04636e-07
0.00788612
0.635698
0.999635
0.999995
1
1
1
1
1
1
1
1
1
1
1
1
4.62681e-52
1.40329e-44
7.61516e-40
3.58114e-36
4.19569e-33
1.97488e-30
4.83433e-28
7.20374e-26
7.19583e-24
5.12745e-22
2.72228e-20
1.11328e-18
3.52852e-17
8.81584e-16
1.71514e-14
2.58936e-13
3.02142e-12
2.6887e-11
1.82175e-10
9.38863e-10
3.72296e-09
1.20468e-08
1.95856e-08
1.85457e-08
1.0341e-08
2.85906e-06
5.05081e-06
5.05037e-06
3.29908e-06
2.35341e-06
6.07195e-06
5.63256e-06
1.41658e-06
1.77307e-07
0.0745988
0.851164
1
1
1
1
1
1
1
1
1
1
1
1
1
1
2.60413e-54
1.78955e-46
1.38236e-41
8.65693e-38
1.2963e-34
7.42397e-32
2.14439e-29
3.70751e-27
4.25592e-25
3.46979e-23
2.10333e-21
9.81311e-20
3.55673e-18
1.01926e-16
2.2785e-15
3.95867e-14
5.32583e-13
5.4805e-12
4.29332e-11
2.56239e-10
1.17944e-09
4.4548e-09
8.5641e-09
1.08435e-08
1.00653e-08
1.52019e-07
8.98267e-07
3.89925e-06
6.47546e-06
6.55177e-06
6.55056e-06
6.55116e-06
3.08237e-06
2.59217e-13
0.198034
0.967556
1
1
1
1
1
1
1
1
1
1
1
1
1
1
9.22666e-57
1.23151e-48
1.46899e-43
1.21651e-39
2.18404e-36
1.50112e-33
5.33651e-31
1.11731e-28
1.52697e-26
1.46924e-24
1.0448e-22
5.70016e-21
2.41713e-19
8.1083e-18
2.12253e-16
4.32317e-15
6.82665e-14
8.25594e-13
7.59163e-12
5.32807e-11
2.88443e-10
1.27913e-09
2.94564e-09
4.86291e-09
7.10647e-09
2.59876e-08
2.47083e-08
1.94846e-07
9.40876e-07
2.70215e-06
3.24156e-06
1.72e-06
8.39367e-09
-6.67983e-08
0.331975
1
1
1
1
1
1
1
1
1
1
1
1
1
1
1
1.05289e-58
3.12474e-49
8.24322e-44
7.80669e-40
1.23956e-36
6.27343e-34
1.41503e-31
1.74487e-29
1.36181e-27
7.68598e-26
3.78789e-24
1.85028e-22
8.55808e-21
3.42974e-19
1.10077e-17
2.75772e-16
5.3317e-15
7.86007e-14
8.76475e-13
7.45579e-12
4.86881e-11
2.57458e-10
7.20194e-10
1.51194e-09
2.92051e-09
8.36354e-09
1.85751e-08
1.2825e-08
1.46605e-08
1.89792e-08
1.36186e-08
7.45321e-10
-2.24585e-07
-2.42518e-07
0.448152
1
1
1
1
1
1
1
1
1
1
1
1
1
1
1
1.90526e-56
3.40656e-47
6.77646e-42
5.55792e-38
8.1709e-35
3.97538e-32
8.78982e-30
1.06651e-27
8.01349e-26
4.02054e-24
1.42184e-22
3.67834e-21
7.11611e-20
1.04873e-18
1.19716e-17
1.08489e-16
8.42591e-16
6.57409e-15
5.82231e-14
5.33281e-13
4.22952e-12
2.75921e-11
9.70052e-11
2.58599e-10
6.17304e-10
1.61988e-09
3.64311e-09
5.19407e-09
6.97323e-09
6.70042e-09
6.01808e-09
5.48181e-09
-3.09788e-08
-2.20941e-08
0.518094
0.99964
1
1
1
1
1
1
1
1
1
1
1
1
1
1
1.05115e-60
1.01022e-57
5.3128e-55
1.4458e-52
2.49415e-50
3.16368e-48
3.17221e-46
2.60239e-44
1.76584e-42
9.86656e-41
4.47353e-39
1.60937e-37
4.4624e-36
9.24669e-35
1.41852e-33
1.73866e-32
2.02297e-31
1.18378e-30
3.60801e-30
6.40742e-30
7.11914e-30
5.1778e-30
2.51965e-30
8.31689e-31
1.90778e-31
3.1094e-32
3.65809e-33
3.14224e-34
1.98057e-35
9.25383e-37
3.22879e-38
8.52543e-40
1.72093e-41
2.68643e-43
3.28236e-45
3.16193e-47
2.42382e-49
1.5017e-51
7.7155e-54
3.40385e-56
1.3564e-58
5.03572e-61
1.72436e-63
5.16464e-66
1.20641e-68
1.79468e-71
1.20438e-74
1.87059e-78
1.48758e-83
1.00145e-89
1.35489e-51
2.81925e-49
6.88915e-47
7.19657e-45
4.77517e-43
2.33539e-41
9.06473e-40
2.9085e-38
7.87289e-37
1.80855e-35
3.51079e-34
5.69593e-33
7.61202e-32
8.27453e-31
7.33763e-30
5.56962e-29
4.06326e-28
1.7019e-27
4.21717e-27
6.55268e-27
6.68576e-27
4.62815e-27
2.20934e-27
7.3496e-28
1.73802e-28
2.97114e-29
3.71721e-30
3.43771e-31
2.36151e-32
1.21598e-33
4.72188e-35
1.39959e-36
3.19227e-38