/*--------------------------------*- C++ -*----------------------------------*\
| =========                 |                                                 |
| \\      /  F ield         | OpenFOAM: The Open Source CFD Toolbox           |
|  \\    /   O peration     | Version:  2.4.0                                 |
|   \\  /    A nd           | Web:      www.OpenFOAM.org                      |
|    \\/     M anipulation  |                                                 |
\*---------------------------------------------------------------------------*/
FoamFile
{
    version     2.0;
    format      ascii;
    class       volScalarField;
    location    "0.166";
    object      alpha.water;
}
// * * * * * * * * * * * * * * * * * * * * * * * * * * * * * * * * * * * * * //

dimensions      [0 0 0 0 0 0 0];

internalField   nonuniform List<scalar> 
14400
(
1
1
1
1
1
1
1
1
1
1
1
1
1
1
1
1
1
1
1
1
1
1
1
1
1
1
1
1
1
1
1
1
1
1
1
1
1
1
1
1
1
1
1
1
1
1
1
1
1
1
1
1
1
1
1
1
1
1
1
1
1
1
1
1
1
1
1
1
1
1
1
1
1
1
1
1
1
1
1
1
1
1
1
1
1
1
1
1
1
1
1
1
1
1
1
1
1
1
1
1
1
1
1
1
1
1
1
1
1
1
1
1
1
1
1
1
1
1
1
1
1
1
1
1
1
1
1
1
1
1
1
1
1
1
1
1
1
1
1
1
1
1
1
1
1
1
1
1
1
1
1
1
1
1
1
1
1
1
1
1
1
1
1
1
1
1
1
1
1
1
1
1
1
1
1
1
1
1
1
1
1
1
1
1
1
1
1
1
1
1
1
1
1
1
1
1
1
1
1
1
1
1
1
1
1
1
1
1
1
1
1
1
1
1
1
1
1
1
1
1
1
1
1
1
1
1
1
1
1
1
1
1
1
1
1
1
1
1
1
1
1
1
1
1
1
1
1
1
1
1
1
1
1
1
1
1
1
1
1
1
1
1
1
1
1
1
1
1
1
1
1
1
1
1
1
1
1
1
1
1
1
1
1
1
1
1
1
1
1
1
1
1
1
1
1
1
1
1
1
1
1
1
1
1
1
1
1
1
1
1
1
1
1
1
1
1
1
1
1
1
1
1
1
1
1
1
1
1
1
1
1
1
1
1
1
1
1
1
1
1
1
1
1
1
1
1
1
1
1
1
1
1
1
1
1
1
1
1
1
1
1
1
1
1
1
1
1
1
1
1
1
1
1
1
1
1
1
1
1
1
1
1
1
1
1
1
1
1
1
1
1
1
1
1
1
1
1
1
1
1
1
1
1
1
1
1
1
1
1
1
1
1
1
1
1
1
1
1
1
1
1
1
1
1
1
1
1
1
1
1
1
1
1
1
1
1
1
1
1
1
1
1
1
1
1
1
1
1
1
1
1
1
1
1
1
1
1
1
1
1
1
1
1
1
1
1
1
1
1
1
1
1
1
1
1
1
1
1
1
1
1
1
1
1
1
1
1
1
1
1
1
1
1
1
1
1
1
1
1
1
1
1
1
1
1
1
1
1
1
1
1
1
1
1
1
1
1
1
1
1
1
1
1
1
1
1
1
1
1
1
1
1
1
1
1
1
1
1
1
1
1
1
1
1
1
1
1
1
1
1
1
1
1
1
1
1
1
1
1
1
1
1
1
1
1
1
1
1
1
1
1
1
1
1
1
1
1
1
1
0.999998
1
1
1
1
1
1
1
1
1
1
1
1
1
1
1
1
1
1
1
1
1
1
1
1
1
1
1
1
1
0.999999
1
1
1
1
1
1
1
1
0.999982
1
1
1
1
1
1
1
1
1
1
1
1
1
1
0.999361
1
1
1
1
1
0.999998
1
1
1
1
1
1
1
0.999963
0.999977
1
1
1
1
1
1
1
1
1
1
1
1
1
0.999088
0.999898
1
1
1
1
1
0.999999
0.999999
1
1
1
1
1
1
0.999951
0.999999
0.999996
1
1
1
1
1
1
1
1
1
1
1
1
0.997387
1
0.999998
0.999996
0.647236
0.962759
0.999154
0.999998
1
1
1
1
1
1
0.999994
0.999969
0.999999
0.999993
0.999915
1
1
1
1
1
1
1
1
1
1
0.991989
0.994434
0.998791
0.999995
0.614999
0.223539
0.580072
1
0.999928
1
1
1
1
1
1
1
0.999996
0.998967
0.999977
0.998943
1
1
1
1
1
1
1
1
1
0.999999
0.985526
0.989606
0.995105
0.987267
0.000671806
0.00270674
0.447537
1
0.999977
1
1
1
0.999975
1
0.999998
0.999966
0.998967
0.998967
0.999327
0.999996
0.99998
1
1
1
1
1
1
1
1
0.999936
0.999422
0.981929
0.993114
0.247787
1.08773e-05
9.20927e-06
0.0660869
0.992586
1
1
1
0.999946
0.999534
0.999811
0.999982
0.999989
0.99989
0.999755
0.999208
0.999997
0.999997
1
1
1
1
1
1
1
1
0.999872
0.999824
0.961697
0.958161
7.9652e-05
6.77572e-07
6.86834e-07
0.000114897
0.843851
1
1
1
0.999623
0.999965
0.999965
0.999994
0.999201
0.999896
0.999934
0.999919
0.999982
0.981728
0.83754
0.58439
0.33112
0.195629
0.125087
0.0862136
0.06214
0.0417977
0.999848
0.99982
0.999588
0.175995
2.19609e-06
1.59652e-06
5.66294e-07
1.94981e-05
0.352841
1
0.99995
1
0.999831
0.999059
0.999141
0.999994
0.998215
0.999906
0.998446
0.605993
0.124154
1.04007e-05
7.59649e-07
3.89614e-07
6.107e-06
3.73063e-05
2.36917e-06
3.54554e-07
6.67164e-07
6.41491e-07
0.999857
0.66488
0.902396
1.51068e-05
9.25516e-11
1.61672e-08
1.54867e-06
4.07053e-06
0.0741526
0.999999
0.999915
1
0.999361
0.997561
0.999971
0.999994
0.999386
0.714567
8.00668e-05
6.35991e-07
1.91739e-09
2.05503e-09
3.35864e-09
7.84605e-09
8.79978e-09
8.09295e-09
7.35193e-07
4.49424e-09
4.45349e-09
4.59454e-09
1
1
1
1
1
1
1
1
1
1
1
1
1
1
1
1
1
1
1
1
1
1
1
1
1
1
1
1
1
1
1
1
1
1
1
1
1
1
1
1
1
1
1
1
1
1
1
1
1
1
1
1
1
1
1
1
1
1
1
1
1
1
1
1
1
1
1
1
1
1
1
1
1
1
1
1
1
1
1
1
1
1
1
1
1
1
1
1
1
1
1
1
1
1
1
1
1
1
1
1
1
1
1
1
1
1
1
1
1
1
1
1
1
1
1
1
1
1
1
1
1
1
1
1
1
1
1
1
1
1
1
1
1
1
1
1
1
1
1
1
1
1
1
1
1
1
1
1
1
1
1
1
1
1
1
1
1
1
1
1
1
1
1
1
1
1
1
1
1
1
1
1
1
1
1
1
1
1
1
1
1
1
1
1
1
1
1
1
1
1
1
1
1
1
1
1
1
1
1
1
1
1
1
1
1
1
1
1
1
1
1
1
1
1
1
1
1
1
1
1
1
1
1
1
1
1
1
1
1
1
1
1
1
1
1
1
1
1
1
1
1
1
1
1
1
1
1
1
1
1
1
1
1
1
1
1
1
1
1
1
1
1
1
1
1
1
1
1
1
1
1
1
1
1
1
1
1
1
1
1
1
1
1
1
1
1
1
1
1
1
1
1
1
1
1
1
1
1
1
1
1
1
1
1
1
1
1
1
1
1
1
1
1
1
1
1
1
1
1
1
1
1
1
1
1
1
1
1
1
1
1
1
1
1
1
1
1
1
1
1
1
1
1
1
1
1
1
1
1
1
1
1
1
1
1
1
1
1
1
1
1
1
1
1
1
1
1
1
1
1
1
1
1
1
1
1
1
1
1
1
1
1
1
1
1
1
1
1
1
1
1
1
1
1
1
1
1
1
1
1
1
1
1
1
1
1
1
1
1
1
1
1
1
1
1
1
1
1
1
1
1
1
1
1
1
1
1
1
1
1
1
1
1
1
1
1
1
1
1
1
1
1
1
1
1
1
1
1
1
1
1
1
1
1
1
1
1
1
1
1
1
1
1
1
1
1
1
1
1
1
1
1
1
1
1
1
1
1
1
1
1
1
1
1
1
1
1
1
1
1
1
1
1
1
1
1
1
1
1
1
1
1
1
1
1
1
1
1
1
1
1
1
1
1
1
1
1
1
1
1
1
1
1
1
1
1
1
1
1
1
1
1
1
1
1
1
1
1
1
1
1
1
1
1
1
1
1
1
1
1
1
1
1
1
1
1
1
1
1
1
1
0.999999
1
1
1
1
1
1
1
1
1
1
1
1
1
1
1
1
1
1
1
1
1
1
1
1
1
1
1
1
1
0.999999
1
1
1
1
1
1
1
1
1
1
1
1
1
1
1
1
1
1
1
1
1
1
1
1
1
1
1
1
1
0.999999
1
1
1
1
1
1
1
1
1
1
1
1
1
1
1
1
1
1
1
0.999999
0.999996
1
1
1
1
1
1
1
1
1
1
1
1
1
1
1
1
1
1
1
1
1
1
1
1
1
1
1
1
1
0.999997
0.999997
1
1
1
1
1
1
0.999998
1
1
1
1
1
1
1
1
1
1
1
1
1
1
1
1
1
1
1
0.999999
0.999992
0.999243
1
1
1
1
1
1
1
1
0.999994
0.998253
0.88671
0.999998
1
1
1
1
1
1
1
1
1
1
1
1
1
1
0.999996
1
0.999931
0.999224
0.99904
0.999997
1
1
1
1
1
0.999999
0.999991
0.983703
0.628825
0.0958956
0.999992
1
1
1
1
1
1
1
1
1
1
1
1
1
0.999998
1
0.999929
0.99946
0.99904
0.999956
0.999921
0.999931
0.999982
1
1
0.999998
1
0.950039
0.413688
0.00899393
0.156222
1
1
1
1
1
1
1
1
1
1
1
1
1
1
0.999894
0.999997
0.999224
0.999981
0.999698
0.999994
0.99988
0.999759
1
1
1
1
0.861716
0.0262212
0.00120055
0.0007934
0.85441
1
1
1
0.0267247
0.018947
0.013306
0.0097061
0.00975651
0.0219061
0.0713491
0.198706
0.523603
0.901615
0.999896
0.999708
0.999868
0.999973
0.999534
0.999994
0.999708
0.999653
0.999984
1
1
1
0.358813
5.56117e-05
1.0167e-06
9.24225e-05
0.0177274
0.998781
1
1
2.59306e-07
2.12845e-07
7.25569e-07
1.72334e-07
2.10974e-07
5.13975e-07
3.99676e-07
4.36699e-06
4.7722e-05
0.000285235
0.172643
0.869797
0.999968
0.999977
0.999572
0.999994
0.99965
0.99963
0.999968
1
0.999936
1
0.0745381
-6.46559e-07
1.04784e-06
5.80364e-07
2.91657e-06
0.466195
0.999999
1
8.32404e-09
2.82756e-08
1.24686e-06
9.41633e-09
8.39876e-09
7.99166e-09
9.35544e-09
7.13116e-08
6.86175e-06
0.00619653
0.00176811
8.6112e-06
0.210979
0.968688
0.999899
0.999895
0.999972
0.99965
0.99973
0.999661
0.999998
0.900886
0.00394145
3.51378e-10
1.10713e-08
4.78344e-09
-1.92538e-08
0.000792545
0.622255
0.999999
0.999836
0.0558126
0.00142165
0.000229264
1.12166e-05
2.87176e-08
2.2226e-07
4.09541e-07
0.0217331
0.999998
0.999976
0.999451
0.999534
0.99756
0.999854
0.999993
0.788134
8.3452e-05
8.57638e-08
1.82393e-09
6.35448e-10
5.94281e-10
1.38773e-09
8.5154e-09
8.48259e-09
7.77637e-09
7.10193e-09
4.91307e-09
4.27079e-09
4.94583e-09
0.997213
0.0255209
2.71743e-05
0.000279113
5.4805e-05
1.40555e-09
-7.25081e-09
9.19744e-08
0.00343973
0.962595
0.999999
0.998628
0.998874
0.999974
0.999975
0.999826
0.000766138
1.21257e-05
1.41413e-05
1.07516e-06
1.33895e-10
-8.71309e-09
3.40816e-09
5.80874e-09
7.27836e-09
7.09681e-09
6.76823e-09
4.87521e-09
4.24417e-09
6.11754e-09
0.956706
6.32334e-05
2.8263e-05
0.000238567
1.27697e-05
1.02892e-09
2.01677e-11
1.35841e-05
6.39883e-05
0.838157
0.999862
0.998627
0.998942
0.999982
0.999965
0.11901
2.16575e-05
5.43542e-08
3.40368e-05
3.40368e-05
1.67743e-08
1.39951e-10
2.87825e-08
2.66636e-08
1.09438e-07
4.10933e-08
6.56806e-09
4.94276e-09
4.37344e-09
6.13923e-09
0.347558
6.15745e-05
4.66079e-05
9.08396e-06
4.59895e-08
2.98135e-08
5.33469e-11
5.02331e-06
1.16797e-05
0.51362
0.99986
0.998799
0.999988
0.999987
0.630636
9.9988e-05
4.46284e-09
1.05167e-08
3.40239e-05
2.66895e-06
2.36842e-08
1.12547e-08
1.95702e-09
1.2194e-05
5.4569e-06
7.1653e-09
5.29127e-09
4.99923e-09
4.86114e-09
6.01244e-09
8.61669e-07
2.71373e-05
9.58502e-05
8.14754e-05
6.92502e-07
3.19107e-07
1.05009e-08
0.000223736
5.82389e-05
0.225057
0.999992
0.999981
0.999988
0.908529
9.45243e-05
-6.69393e-07
2.63629e-09
2.79994e-09
9.51652e-06
1.70441e-05
9.67204e-07
4.88409e-09
7.85137e-06
4.33747e-05
4.25875e-05
1.30722e-07
4.61064e-06
5.01854e-09
5.20356e-09
6.11526e-09
2.50076e-07
1.11437e-06
0.000379311
9.7626e-08
9.9887e-11
8.74119e-08
8.75169e-09
8.69043e-05
9.09084e-05
0.0277195
0.960767
0.999989
0.999856
0.00269306
3.73644e-06
5.34652e-08
2.5894e-09
2.50713e-09
2.4709e-09
2.17479e-05
4.9804e-09
4.85138e-09
1.46994e-05
4.33934e-05
4.35436e-05
4.09576e-07
2.60837e-05
2.16316e-05
5.27001e-09
5.63225e-09
1.19113e-11
0.000148681
3.32631e-05
5.85226e-08
7.25762e-10
4.25903e-08
2.57382e-07
0.000230157
0.000154069
7.42867e-06
0.743198
0.525062
0.0322933
3.50641e-05
8.66871e-05
4.93541e-08
2.78872e-09
2.32239e-09
2.20755e-09
2.06149e-09
1.68535e-05
1.87502e-05
1.25108e-05
5.32559e-06
5.24456e-06
4.92879e-06
1.08774e-05
2.61983e-05
2.60788e-05
8.59485e-06
4.44675e-08
1.76532e-08
0.000207552
9.82769e-05
1.19597e-10
5.8523e-08
6.08089e-08
0.000228275
0.000221332
3.7649e-06
0.0035712
0.00373173
0.000136087
3.35772e-05
0.00014905
3.10261e-09
3.30969e-08
6.04884e-09
2.12442e-09
1.94067e-09
1.89149e-09
1.71755e-06
1.37246e-05
1.73834e-05
1.16902e-05
3.50235e-07
3.50663e-07
2.03601e-06
1.10519e-05
2.90771e-06
1.31148e-06
2.07669e-06
1.0667e-05
5.60355e-06
6.02855e-11
9.93317e-09
2.62306e-09
0.000229301
2.54795e-05
1.59244e-06
0.000232762
6.0459e-05
2.62942e-05
1.01578e-05
0.000228899
3.49656e-09
5.29774e-08
2.54519e-09
2.15097e-09
1.99287e-09
1.74631e-09
1.96242e-09
2.41825e-09
4.72901e-07
8.81796e-06
1.42307e-05
1.21501e-05
1.34039e-06
1.45093e-07
9.568e-07
5.13175e-07
1.16623e-05
8.30619e-05
1.29922e-08
3.91253e-11
3.25069e-09
1.80976e-09
0.000201248
2.24266e-06
3.32709e-07
0.000197442
2.51268e-06
8.53109e-05
9.85109e-06
0.000350624
7.99009e-05
4.08814e-09
5.31228e-09
2.79993e-09
2.13054e-09
1.81621e-09
1.56607e-09
1.79179e-09
2.43372e-09
3.74971e-09
1.98341e-08
4.45992e-06
4.64993e-06
4.1057e-08
7.44506e-06
1.40318e-26
2.6649e-07
2.54743e-07
1.54188e-06
4.92506e-11
6.13463e-10
1.04538e-06
0.000219885
2.25894e-07
1.52203e-05
2.58536e-06
2.51269e-06
0.000217872
2.70313e-06
8.36934e-05
0.000408037
5.23872e-09
0.000109484
3.66994e-07
2.43049e-09
2.02485e-09
1.68593e-09
1.44581e-09
1.55297e-09
2.76739e-09
3.21214e-09
2.97603e-09
1.16977e-08
7.25872e-09
5.21472e-09
1.10318e-22
2.74036e-06
2.57016e-07
3.20254e-06
6.11821e-11
8.29108e-10
3.8977e-05
0.000231876
1.20826e-07
3.48388e-05
4.57507e-05
4.11166e-05
0.000218162
0.000110029
5.297e-07
0.000395552
5.23751e-05
0.00168075
0.00142875
3.00067e-08
2.12973e-09
1.86808e-09
1.59402e-09
1.3743e-09
1.28965e-09
1.89366e-09
2.51469e-09
4.7181e-09
4.69459e-09
3.60497e-09
3.11614e-18
7.06937e-06
5.51135e-05
1.90812e-06
8.51796e-11
1.18555e-09
4.74292e-06
0.000232498
7.39421e-08
5.92464e-06
1.00569e-05
5.33472e-05
0.000218095
0.000201783
5.42181e-07
5.49286e-07
6.74023e-05
0.00165919
0.0017084
0.000139424
2.3477e-09
2.06986e-09
1.72277e-09
1.49197e-09
1.30017e-09
1.18857e-09
1.26138e-09
1.59797e-09
1.94342e-09
2.22766e-09
1.68707e-16
8.70116e-07
9.86961e-05
1.33323e-07
1.13302e-10
5.98134e-10
4.88404e-06
0.000221782
1.46409e-07
7.03372e-08
7.06763e-06
1.1777e-06
0.000134113
8.73257e-06
1.26443e-05
5.72539e-07
6.48899e-07
0.0016893
0.00171235
0.000481082
2.8817e-09
2.4443e-09
1.79153e-09
1.55524e-09
1.36998e-09
1.21085e-09
1.09542e-09
1.04033e-09
1.05322e-09
1.13955e-09
1.98531e-15
1.15878e-07
3.94318e-07
2.35744e-08
7.68181e-11
1.43145e-08
2.31799e-05
7.14766e-05
2.03635e-07
6.85463e-06
1.62292e-05
1.31161e-06
4.14377e-05
1.86133e-06
9.87312e-06
5.63955e-07
5.47587e-07
0.000737552
0.00150103
0.00038502
2.18367e-09
1.82357e-09
1.63371e-09
1.51872e-09
1.37875e-09
1.23416e-09
1.10909e-09
1.01818e-09
9.64763e-10
9.48368e-10
4.89564e-15
9.74916e-12
3.99411e-07
1.2996e-08
7.86866e-11
1.86725e-08
1.46568e-07
8.29392e-07
1.12616e-06
5.08507e-06
1.93406e-06
2.87458e-05
3.15102e-05
1.50433e-06
1.30194e-05
8.78667e-05
5.47639e-07
1.36121e-05
3.83727e-06
3.86237e-06
6.17648e-07
1.89706e-09
1.7432e-09
1.54974e-09
1.38411e-09
1.23264e-09
1.10668e-09
1.01564e-09
9.62114e-10
9.41776e-10
2.4914e-15
1.40145e-11
3.28607e-05
2.66848e-10
1.16064e-10
5.4961e-08
1.60869e-08
1.6401e-08
1.00103e-05
1.52394e-06
1.48096e-06
4.48815e-07
9.32305e-10
3.0906e-05
1.78126e-06
0.000129234
0.000129769
1.35532e-05
2.34994e-05
0.000295719
3.43435e-08
1.92825e-09
1.80103e-09
1.64023e-09
1.44847e-09
1.26185e-09
1.11211e-09
1.01448e-09
9.696e-10
9.77894e-10
4.37245e-16
3.93953e-07
4.12021e-05
2.64904e-12
1.14373e-10
9.09151e-09
1.62672e-05
1.87311e-05
2.95032e-05
2.20597e-07
4.83053e-06
6.66288e-10
5.06643e-10
1.89778e-05
7.19692e-05
8.20853e-06
0.000123405
1.87511e-05
0.000109535
0.000382562
1.08329e-07
2.33381e-09
1.96153e-09
1.74945e-09
1.59756e-09
1.35572e-09
1.15277e-09
1.03693e-09
9.8878e-10
1.03992e-09
3.06064e-17
2.71343e-16
6.77846e-08
3.51733e-12
2.18076e-10
6.67785e-07
1.86148e-05
4.65695e-05
3.70783e-07
9.91334e-06
2.67304e-10
2.76075e-10
3.49271e-10
0.000239976
1.82431e-05
2.28886e-06
2.22241e-06
2.21403e-06
0.000255661
0.000280931
5.77347e-08
2.65924e-09
2.92461e-08
5.2895e-08
1.78516e-09
1.5403e-09
1.23011e-09
1.07586e-09
1.00957e-09
1.67863e-08
1.6555e-18
8.20853e-17
6.1503e-12
5.49603e-12
1.49465e-10
3.78824e-08
4.53755e-05
2.70421e-05
3.24106e-07
8.86504e-07
2.70016e-10
4.22879e-10
2.22575e-09
0.000324639
0.0010737
8.46929e-06
2.21347e-06
2.21391e-06
0.000436504
7.87052e-05
2.31439e-08
9.7459e-09
6.37035e-08
6.37188e-08
7.21897e-09
1.48848e-09
1.42196e-09
1.03336e-09
1.01715e-08
1.57478e-07
5.627e-20
4.61231e-17
0.000355829
7.09382e-12
1.65318e-10
3.24711e-10
6.66231e-05
1.86228e-07
1.85029e-07
9.94749e-08
1.48714e-09
5.00144e-10
1.57088e-05
0.00119171
0.00168328
0.00168326
2.83521e-06
0.000272071
0.000437046
3.06298e-07
4.8473e-09
4.21963e-08
6.3653e-08
2.1887e-08
1.03486e-08
1.05116e-08
3.37345e-09
2.01603e-08
1.41456e-07
1.1534e-07
9.96199e-22
4.78749e-14
0.000463617
3.84508e-12
6.02993e-11
1.99435e-10
6.65679e-05
1.89984e-07
8.75506e-05
0.00015416
5.7646e-10
3.73391e-10
3.51809e-07
0.000257645
0.000871774
0.000796029
0.000570394
1.76069e-05
2.76569e-08
4.15978e-09
3.80078e-09
4.60028e-09
8.64132e-09
1.30467e-06
2.94859e-08
4.19633e-09
3.32048e-09
7.4685e-08
5.33044e-08
1.75701e-08
7.8593e-24
4.24022e-18
0.000462954
2.53598e-12
3.89607e-11
8.51982e-11
6.4917e-05
2.02304e-07
0.000219533
0.000219518
1.77485e-10
5.50939e-10
2.1666e-09
1.30633e-09
2.08693e-09
5.56155e-09
1.16618e-06
3.42514e-08
4.05274e-09
3.91127e-09
3.76934e-09
1.39293e-07
4.31462e-06
7.4939e-07
7.3233e-09
2.18355e-06
1.53744e-06
5.75744e-06
1.42184e-05
1.40911e-05
2.49423e-26
1.56224e-13
0.000205621
8.6654e-13
2.02064e-11
4.28782e-11
3.0125e-05
4.2771e-05
0.000219505
4.53839e-05
1.62942e-10
3.50527e-10
3.14927e-10
1.22879e-07
3.09098e-06
7.66045e-09
8.143e-09
1.16754e-08
8.64872e-06
1.22203e-05
1.21923e-05
1.26317e-06
1.22181e-06
5.31798e-06
6.40437e-06
4.31543e-07
1.0127e-05
1.42762e-05
1.33493e-07
2.41948e-09
3.04987e-29
7.20505e-30
0.000610394
1.82706e-13
4.59717e-12
3.73833e-11
3.21184e-06
1.08603e-05
2.19809e-05
1.20568e-05
1.07379e-10
6.85826e-11
1.26367e-10
9.07222e-07
3.05683e-06
8.09169e-09
9.77705e-09
6.80104e-06
2.58262e-06
4.46643e-06
8.30628e-06
8.12026e-06
7.91956e-06
1.40989e-06
8.91351e-08
1.56153e-07
2.21418e-06
5.50796e-09
3.66049e-09
7.88612e-09
1.41247e-32
7.04098e-30
0.000676739
2.79047e-14
4.36359e-13
2.62195e-11
4.77325e-11
2.28004e-05
2.2844e-05
1.95587e-07
2.68856e-10
1.56683e-11
2.13967e-10
3.57096e-08
1.77438e-06
1.0766e-08
6.09688e-05
7.56605e-05
5.56654e-07
6.53417e-06
8.5752e-06
7.01876e-08
7.543e-08
8.08403e-08
8.64993e-08
1.45204e-06
1.45606e-06
1.43999e-06
3.13669e-09
3.12454e-09
2.84012e-36
9.11604e-27
0.000741703
1.50086e-15
2.01798e-14
2.61064e-12
7.18925e-11
5.1459e-07
2.79267e-07
3.64599e-10
1.62653e-10
1.11997e-11
8.11944e-11
1.42184e-06
1.58248e-06
1.23621e-05
7.61698e-05
2.44506e-05
3.74514e-07
8.11055e-06
6.23332e-08
6.04825e-08
1.2778e-07
3.27563e-06
3.60504e-07
4.01374e-07
8.16318e-07
5.88324e-07
5.54862e-07
9.6539e-07
4.43643e-40
3.32579e-18
0.00183215
2.11393e-17
3.32281e-16
1.04108e-13
7.9575e-12
4.67319e-11
1.92796e-10
6.02811e-11
2.37173e-12
4.0149e-12
1.19709e-10
5.43597e-08
3.12477e-06
2.52913e-07
1.58611e-05
3.11457e-07
3.1035e-07
4.30927e-06
6.73858e-06
1.4402e-06
1.45219e-07
1.61438e-05
0.000102155
0.00010232
0.000102332
6.81949e-05
0.000107038
2.46805e-05
7.34268e-44
1.28159e-14
0.00400791
4.10824e-19
1.41865e-18
1.41385e-15
2.54723e-13
1.0108e-11
1.61682e-11
2.03284e-12
3.97674e-15
4.85134e-13
4.12253e-11
1.00649e-10
1.14622e-05
0.000557564
0.000529505
3.09417e-07
3.09399e-07
3.09504e-07
8.61395e-07
4.05492e-06
1.65791e-05
2.01631e-07
4.1601e-09
3.33359e-07
9.58897e-10
8.16047e-10
8.05776e-10
8.07264e-10
1.9084e-47
1.55992e-12
0.00205774
1.93534e-12
9.31791e-22
6.22015e-18
3.17175e-15
2.0094e-13
4.89753e-13
3.5582e-14
2.98835e-17
1.41728e-14
2.76588e-12
8.41114e-11
4.94184e-10
7.0081e-05
0.000151092
3.42869e-05
3.27459e-05
3.39438e-05
3.02293e-05
3.07321e-05
2.10168e-05
1.57373e-08
1.49511e-08
5.50162e-09
4.34601e-09
1.33347e-08
2.0036e-09
1.80912e-09
2.23485e-08
1.44805e-06
1.43846e-06
7.15617e-08
7.69915e-09
7.68965e-09
8.03762e-09
3.68841e-08
2.06765e-05
0.0160015
0.00663474
8.80296e-07
8.66918e-07
0.000148788
0.945384
0.999923
0.99999
0.999864
0.999905
0.999995
0.999999
0.666254
1.63002e-05
2.23441e-10
4.23103e-10
2.38106e-10
2.58484e-10
2.57398e-07
0.000297349
0.862801
3.52169e-07
1.46441e-06
1.22103e-07
5.63738e-08
1.92611e-08
7.55398e-09
7.68795e-09
4.18001e-08
1.65671e-05
0.0160054
0.0159338
2.15981e-07
2.16201e-07
1.34e-05
0.00795333
0.999791
0.99999
0.99999
0.99999
0.999505
0.999999
0.42867
4.9485e-06
1.81929e-10
2.66421e-10
1.12907e-10
-2.11397e-10
-6.90103e-08
8.43411e-06
0.538548
1.84335e-08
5.30725e-07
7.41726e-09
6.57498e-09
6.57253e-09
7.47546e-09
1.04329e-05
3.65275e-05
9.76066e-07
0.0159248
0.00495094
8.60888e-06
1.82791e-07
1.92835e-07
8.70155e-06
0.13587
0.99997
0.999716
0.999943
0.999394
0.999996
0.173565
5.06861e-06
1.80055e-10
1.7197e-10
1.0287e-10
2.02681e-10
1.19389e-08
1.48596e-05
0.00710234
7.15538e-09
7.64312e-09
7.70928e-09
6.46879e-09
6.24162e-09
6.72782e-09
1.0124e-06
2.19232e-05
4.86958e-08
0.0158383
0.000410654
1.67431e-07
1.88955e-07
3.60604e-07
5.33255e-07
5.12496e-05
0.599974
0.999644
0.999632
0.999394
0.999994
0.0490508
6.28684e-05
1.7988e-10
1.67271e-10
1.24815e-10
1.17489e-10
7.41339e-09
9.88389e-07
1.17627e-07
7.42384e-09
6.96079e-09
8.23224e-09
2.71355e-08
6.50685e-09
6.60467e-09
7.9622e-09
4.29178e-08
3.03319e-08
0.00784746
2.0174e-07
2.02526e-07
9.97188e-06
7.25672e-05
3.61649e-06
3.3142e-06
0.000116523
0.94577
0.99999
0.999989
0.999995
0.00791712
0.000182574
1.79806e-10
1.75984e-10
1.59654e-10
7.38815e-11
3.08065e-09
1.40462e-06
8.17837e-08
5.81318e-09
5.89781e-09
5.9797e-09
1.19764e-08
6.40256e-09
6.40308e-09
6.44317e-09
1.05682e-08
2.57045e-07
0.000186679
1.60974e-06
2.03071e-07
2.55983e-07
6.66755e-05
0.000120231
4.10405e-05
2.37032e-05
0.0128025
0.999975
0.999995
0.707198
0.000206427
0.000309575
1.79786e-10
1.81641e-10
1.9697e-10
5.33999e-11
1.47188e-10
7.13978e-09
8.38291e-12
3.64919e-06
5.86732e-06
8.79263e-08
8.02093e-08
4.55263e-06
3.9109e-06
1.18911e-06
6.94429e-09
1.28135e-05
0.000786561
2.07542e-07
2.02766e-07
2.70652e-07
1.34491e-06
0.000283917
3.87246e-05
2.40694e-05
6.93496e-07
0.247662
0.998633
0.037259
2.03541e-05
0.000301973
7.83665e-08
1.86069e-10
2.28857e-10
4.44722e-11
8.66697e-11
4.61787e-09
6.09751e-12
2.24737e-07
2.47874e-06
8.64961e-06
1.26047e-05
3.22462e-06
2.48104e-06
2.9911e-06
4.85909e-06
5.68529e-07
2.24032e-07
1.87163e-05
3.48167e-06
3.16723e-06
3.50535e-07
0.000285706
0.000115418
2.19345e-05
6.31718e-07
6.34539e-07
0.0493711
1.4681e-06
2.03733e-05
0.00030998
1.86098e-10
1.89421e-10
2.36278e-10
3.76016e-11
5.71898e-11
5.57527e-11
4.94991e-12
1.13339e-06
1.34847e-07
1.34897e-07
1.23484e-05
1.26663e-05
4.76009e-07
3.2861e-07
1.55688e-07
1.4079e-07
1.78472e-05
8.92443e-05
6.17977e-07
3.39054e-06
3.27381e-07
0.000285605
0.000180378
1.1658e-06
6.32235e-07
1.49253e-06
8.01775e-07
1.37288e-05
8.04297e-05
4.75286e-05
1.8582e-10
1.90833e-10
2.47714e-10
3.35618e-11
3.48334e-11
3.74676e-11
4.62037e-12
7.46531e-06
5.64112e-06
1.44832e-07
1.59019e-07
3.29667e-07
3.0919e-05
0.000191158
3.07227e-05
1.45803e-07
0.000128734
7.57979e-06
3.36562e-07
7.0896e-07
3.09811e-07
0.00028547
0.000285711
6.91742e-07
1.06249e-06
2.87066e-06
1.26893e-05
6.63755e-06
3.08878e-05
1.91882e-05
0.00104041
2.17989e-10
3.2981e-10
3.06882e-11
1.94726e-11
2.06205e-11
4.10549e-12
1.3125e-06
1.18607e-07
6.52331e-06
2.04462e-05
3.9685e-07
9.51728e-05
0.000191551
9.82692e-05
5.08011e-07
0.000128734
2.96899e-05
2.39063e-07
2.97837e-07
2.07325e-06
8.9902e-05
3.84155e-05
1.50015e-05
4.25505e-07
4.25473e-07
0.000841475
0.000523457
2.3474e-06
0.00048938
0.000840795
1.28667e-09
4.14319e-10
2.30568e-11
9.98385e-12
1.39931e-11
3.38719e-12
3.71893e-09
2.998e-09
2.56823e-09
2.07587e-05
2.09172e-05
5.13654e-06
7.97375e-05
6.13199e-06
6.51288e-07
2.24111e-07
2.27572e-07
2.36818e-07
4.60253e-06
2.05022e-06
2.40122e-05
1.07449e-05
1.26772e-06
2.9825e-06
2.32673e-05
0.00084173
0.000418171
2.79827e-07
0.000804161
1.52942e-05
3.67354e-08
2.34482e-10
1.45327e-11
4.82969e-12
1.03585e-11
2.54373e-12
2.50115e-09
2.60504e-09
2.18916e-09
5.96808e-09
1.98289e-05
2.12111e-05
7.82686e-06
6.86172e-07
1.14187e-06
2.24048e-07
2.44371e-07
1.52792e-06
7.55097e-07
7.55108e-07
2.99934e-05
6.42669e-08
1.16111e-07
2.0271e-07
0.00040054
0.000789821
0.000148603
1.64862e-07
2.42781e-05
3.42242e-05
4.163e-09
1.64774e-10
1.18773e-11
2.31935e-12
7.19915e-12
1.70101e-12
1.30898e-09
1.56156e-09
1.81279e-09
1.86077e-09
2.48737e-09
5.22012e-06
3.41392e-06
7.63182e-07
2.13672e-07
1.89033e-07
0.0002327
9.76438e-06
7.59999e-07
1.89648e-05
4.55181e-06
2.20381e-09
3.12624e-09
5.3335e-06
0.000600945
0.000451091
0.000376729
1.6486e-07
1.04483e-06
2.16465e-06
6.25554e-10
1.66306e-10
1.09961e-11
1.12597e-12
4.53149e-12
9.85522e-13
9.72952e-10
1.05545e-09
1.20273e-09
1.3964e-09
1.31342e-09
1.65807e-09
1.29732e-05
5.71697e-06
1.8839e-07
5.75748e-05
0.000233442
4.9048e-05
3.52217e-05
8.16842e-10
7.71616e-10
1.23933e-09
2.2326e-08
0.000120073
0.000645799
8.03303e-05
0.000194638
1.06178e-06
4.50361e-05
1.5615e-07
3.81216e-10
1.61797e-10
9.37769e-12
5.32091e-13
2.47035e-12
4.73823e-13
9.47054e-10
9.74151e-10
1.01942e-09
1.06967e-09
1.08102e-09
1.2865e-05
1.29875e-05
4.57169e-06
1.9114e-07
0.000174562
0.000233452
6.88532e-07
6.96472e-10
7.94862e-10
7.98276e-10
8.55834e-10
0.000166517
0.000134704
0.000670437
4.70964e-06
0.000147755
1.00029e-05
4.86042e-05
2.62615e-07
3.04892e-10
1.2361e-10
7.40817e-12
2.33697e-13
1.10448e-12
1.76286e-13
1.01677e-09
1.05538e-09
1.05144e-09
1.03458e-09
1.26519e-05
4.68681e-06
5.65929e-06
4.25195e-06
1.90578e-07
1.91374e-05
0.000156038
7.01576e-09
6.42736e-10
6.83071e-10
7.47151e-10
8.37547e-05
0.000153109
2.09971e-05
0.000370167
1.49323e-06
6.62113e-05
2.29319e-05
1.4551e-06
1.44129e-07
1.54416e-08
1.53267e-10
5.08468e-12
9.01949e-14
3.78969e-13
4.64744e-14
1.04295e-09
1.88311e-09
1.06466e-09
9.34968e-06
1.62305e-06
4.13621e-07
6.90736e-06
7.30439e-06
5.98623e-07
2.79136e-07
1.2568e-07
2.97767e-07
6.96383e-10
8.63505e-10
7.71779e-10
0.000158511
5.1489e-06
1.31531e-06
8.93271e-07
8.38396e-07
5.41009e-06
0.000204781
8.50909e-07
1.38482e-07
2.25827e-09
8.87259e-11
3.37363e-12
3.20063e-14
9.18896e-14
8.0218e-15
4.29114e-08
7.68593e-09
6.9589e-07
5.19899e-07
4.57877e-07
8.97081e-06
7.0687e-08
1.06839e-09
1.61263e-07
3.21974e-07
1.0925e-06
4.1932e-10
6.85392e-10
9.38804e-10
4.41111e-06
0.000154587
1.3552e-06
1.06923e-06
5.85321e-05
2.24467e-05
8.67054e-09
0.00019748
1.45598e-08
1.20097e-07
9.49829e-08
7.24553e-11
1.4714e-12
9.40326e-15
1.4171e-14
8.67274e-16
5.48219e-09
1.64469e-08
0.000110838
0.00108854
0.00108949
0.00108943
0.00108804
2.5829e-10
2.05025e-09
3.83975e-08
2.47015e-10
4.28018e-10
1.03076e-09
2.15097e-09
0.000106024
1.38251e-06
1.38581e-06
9.09956e-05
9.09902e-05
2.64111e-06
1.94601e-09
1.9403e-09
1.93499e-09
2.78878e-06
1.39624e-10
2.86167e-11
5.44556e-13
3.02765e-15
1.217e-15
5.79994e-17
5.66279e-09
5.86763e-09
3.58468e-06
4.15242e-05
0.000358929
0.000567931
6.53374e-05
2.57587e-10
3.23429e-10
2.43419e-10
3.16549e-10
7.36143e-10
9.72673e-10
8.78374e-05
0.000212659
1.3836e-06
1.38753e-06
2.51917e-05
9.65587e-06
9.21941e-06
1.93911e-09
1.97169e-09
1.18523e-05
1.53622e-06
1.74517e-10
1.19988e-11
2.10976e-13
8.47049e-16
5.03362e-17
2.27964e-18
1.31225e-05
1.37602e-05
1.74449e-09
1.37445e-09
1.06256e-09
1.33951e-09
6.04577e-10
4.12121e-10
3.06213e-10
3.06278e-10
5.40048e-10
6.97316e-10
2.52699e-05
0.00021319
0.000152295
1.39111e-06
4.64193e-06
2.05598e-06
3.94079e-05
2.84739e-05
1.76043e-08
2.32559e-09
4.31707e-05
1.8997e-10
8.71268e-11
4.43154e-12
4.87142e-14
1.38926e-16
9.88535e-19
4.80215e-20
3.58483e-06
2.73347e-09
9.09878e-10
1.08528e-09
7.85421e-10
5.77708e-10
4.32137e-10
3.20556e-10
2.83846e-10
4.24731e-10
8.80031e-10
1.81135e-09
0.000159325
0.000213196
0.000158676
1.38479e-06
1.39198e-06
1.44756e-06
0.0001049
6.00513e-08
8.96419e-07
2.58053e-05
2.20896e-05
1.59098e-10
3.12386e-11
8.49916e-13
6.97515e-15
1.64369e-17
1.64575e-20
5.73772e-22
1.28504e-09
1.01716e-09
8.04652e-10
7.31535e-10
6.42484e-10
5.37417e-10
3.91523e-10
2.69306e-10
2.59594e-10
4.29716e-10
8.21576e-10
1.61142e-09
0.000116739
0.000213187
0.000100396
2.78522e-05
1.38732e-06
0.000134487
0.000342997
6.0352e-08
1.61546e-06
4.7298e-07
1.9451e-10
9.81683e-11
6.72757e-12
1.11909e-13
6.52716e-16
1.19106e-18
3.8708e-22
4.68373e-24
7.82134e-09
7.90754e-09
5.20921e-10
5.00547e-10
4.15553e-10
3.33332e-10
2.45826e-10
1.69105e-10
1.64602e-10
2.87457e-10
6.13074e-10
6.92947e-10
6.48387e-06
0.000212866
0.00020613
0.000224973
0.000129805
0.000348492
0.00023326
3.25584e-05
7.33162e-06
7.31755e-11
2.26236e-10
2.41256e-11
8.66581e-13
9.51651e-15
3.65505e-17
4.63396e-20
7.42284e-24
1.8055e-26
1.37135e-09
7.82462e-07
5.62637e-10
6.29125e-10
7.1534e-10
5.73997e-10
3.49686e-10
1.44761e-10
8.16741e-11
7.82526e-11
1.74856e-10
4.96126e-10
4.2621e-10
0.000101264
0.000212551
1.19899e-05
3.66799e-05
3.28144e-05
1.13117e-05
5.19175e-05
8.93684e-11
2.70901e-10
4.37731e-11
3.10082e-12
6.76559e-14
4.3923e-16
9.42369e-19
7.30214e-22
6.66331e-26
3.22244e-29
4.87918e-07
1.47568e-06
7.16726e-07
6.7203e-10
5.6949e-08
7.21475e-08
3.37499e-10
2.9434e-10
8.0422e-11
2.46964e-11
9.13428e-12
2.5956e-11
1.37374e-10
1.33788e-10
8.0454e-06
7.05791e-05
4.11705e-07
4.10191e-07
5.08967e-05
4.51107e-06
7.73098e-11
3.53637e-11
5.28498e-12
2.23251e-13
2.74603e-15
9.15303e-18
8.50188e-21
3.05714e-24
1.45681e-28
2.72433e-32
5.72036e-05
3.68762e-06
5.04713e-06
4.02646e-09
1.77955e-09
1.28736e-09
3.07637e-09
1.46215e-09
7.19284e-11
2.05896e-11
2.9367e-12
4.50776e-13
2.43818e-12
2.24942e-11
4.40041e-11
1.09146e-10
1.15712e-06
3.56117e-07
2.74722e-10
1.9784e-10
3.68847e-11
3.60231e-12
3.17623e-13
7.70704e-15
4.83706e-17
7.09627e-20
2.36304e-23
3.21283e-27
7.15855e-32
1.16716e-35
4.73134e-05
7.52206e-08
5.83831e-06
4.18889e-06
2.76015e-08
7.21923e-10
7.73072e-10
1.43667e-09
5.2864e-11
1.14299e-11
1.18461e-12
4.87183e-14
2.98919e-15
1.13456e-13
3.62484e-12
4.34463e-11
6.15444e-11
1.33511e-10
2.7179e-10
1.01705e-10
3.90164e-12
1.82025e-13
8.84e-15
1.15709e-16
3.39013e-19
1.87882e-22
1.71703e-26
6.08659e-31
6.4469e-36
2.83834e-39
9.2735e-10
4.30537e-10
4.84785e-10
6.68773e-10
4.37974e-10
3.08058e-10
1.76724e-10
7.43143e-11
1.59784e-11
1.56404e-12
9.16567e-14
2.46848e-15
2.27206e-17
1.94479e-17
8.71532e-15
5.54409e-13
8.83223e-12
4.4682e-11
3.295e-11
7.06106e-12
1.50822e-13
4.50881e-15
1.16407e-16
7.86235e-19
9.74175e-22
1.53412e-25
1.98672e-30
5.50794e-36
6.34365e-40
4.77286e-43
1
1
1
1
1
1
1
1
1
1
1
1
1
1
1
1
1
1
1
1
1
1
1
1
1
1
1
1
1
1
1
1
1
1
1
1
1
1
1
1
1
1
1
1
1
1
1
1
1
1
1
1
1
1
1
1
1
1
1
1
1
1
1
1
1
1
1
1
1
1
1
1
1
1
1
1
1
1
1
1
1
1
1
1
1
1
1
1
1
1
1
1
1
1
1
1
1
1
1
1
1
1
1
1
1
1
1
1
1
1
1
1
1
1
1
1
1
1
1
1
1
1
1
1
1
1
1
1
1
1
1
1
1
1
1
1
1
1
1
1
1
1
1
1
1
1
1
1
1
1
1
1
1
1
1
1
1
1
1
1
1
1
1
1
1
1
1
1
1
1
1
1
1
1
1
1
1
1
1
1
1
1
1
1
1
1
1
1
1
1
1
1
1
1
1
1
1
1
1
1
1
1
1
1
1
1
1
1
1
1
1
1
1
1
1
1
1
1
1
1
1
1
1
1
1
1
1
1
1
1
1
1
1
1
1
1
1
1
1
1
1
1
1
1
1
1
1
1
1
1
1
1
1
1
1
1
1
1
1
1
1
1
1
1
1
1
1
1
1
1
1
1
1
1
1
1
1
1
1
1
1
1
1
1
1
1
1
1
1
1
1
1
1
1
1
1
1
1
1
1
1
1
1
1
1
1
1
1
1
1
1
1
1
1
1
1
1
1
1
1
1
1
1
1
1
1
1
1
1
1
1
1
1
1
1
1
1
1
1
1
1
1
1
1
1
1
1
1
1
1
1
1
1
1
1
1
1
1
1
1
1
1
1
1
1
1
1
1
1
1
1
1
1
1
1
1
1
1
1
1
1
1
1
1
1
1
1
1
1
1
1
1
1
1
1
1
1
1
1
1
1
1
1
1
1
1
1
1
1
1
1
1
1
1
1
1
1
1
1
1
1
1
1
1
1
1
1
1
1
1
1
1
1
1
1
1
1
1
1
1
1
1
1
1
1
1
1
1
1
1
1
1
1
1
1
1
1
1
1
1
1
1
1
1
1
1
1
1
1
1
1
1
1
1
1
1
1
1
1
1
1
1
1
1
1
1
1
1
1
1
1
1
1
1
1
1
1
1
1
1
1
1
1
1
1
1
1
1
1
1
1
1
1
1
1
1
1
1
1
1
1
1
1
1
1
1
1
1
1
1
1
1
1
1
1
1
1
1
1
1
1
1
1
1
1
1
1
1
0.999998
1
1
1
1
1
1
1
1
1
1
1
1
1
1
1
1
1
1
1
1
1
1
1
1
1
1
1
1
1
0.999998
1
1
1
1
1
1
1
1
1
1
1
1
1
1
1
1
1
1
1
1
1
1
1
1
1
1
1
1
1
1
0.999999
1
1
1
1
1
1
1
0.999993
0.999998
1
1
1
1
1
1
1
1
1
1
1
1
1
0.987215
1
1
1
1
1
1
1
1
1
1
1
1
1
0.999998
0.999951
0.999998
1
1
1
1
1
1
1
1
1
1
1
1
1
0.968543
1
1
1
0.938274
1
1
0.999999
1
1
1
1
1
1
0.999975
0.99999
0.999996
1
1
1
1
1
1
1
1
1
1
1
1
1
0.968551
1
1
0.810742
0.600081
0.996477
1
0.999998
1
1
1
1
1
1
0.999972
0.999998
0.999992
0.999169
1
1
1
1
1
1
1
1
1
1
0.999909
0.999615
0.968553
1
0.997695
0.0413253
0.437677
1
0.999988
0.999999
1
1
1
1
1
1
1
0.999152
0.999912
0.998943
0.999794
1
1
1
1
1
1
1
1
1
0.998892
0.999084
0.968593
0.999996
0.431218
0.000162771
0.0991508
0.854556
0.999999
0.999999
1
1
1
1
1
1
0.999175
0.998967
0.999785
0.999988
0.999826
1
1
1
1
1
1
1
1
1
0.997536
0.973524
0.981988
0.961866
7.56683e-05
2.03831e-06
0.000147031
0.53927
1
0.999998
1
1
0.999544
0.999536
0.999984
0.999994
0.999839
0.998967
0.999605
0.999828
0.999997
1
1
1
1
1
1
1
1
1
0.997536
0.999824
0.989893
0.177515
3.12805e-06
5.3312e-07