/*--------------------------------*- C++ -*----------------------------------*\
| =========                 |                                                 |
| \\      /  F ield         | OpenFOAM: The Open Source CFD Toolbox           |
|  \\    /   O peration     | Version:  2.4.0                                 |
|   \\  /    A nd           | Web:      www.OpenFOAM.org                      |
|    \\/     M anipulation  |                                                 |
\*---------------------------------------------------------------------------*/
FoamFile
{
    version     2.0;
    format      ascii;
    class       volScalarField;
    location    "0.029";
    object      alpha.water;
}
// * * * * * * * * * * * * * * * * * * * * * * * * * * * * * * * * * * * * * //

dimensions      [0 0 0 0 0 0 0];

internalField   nonuniform List<scalar> 
3600
(
1
1
1
1
1
1
1
1
1
1
1
1
1
1
1
1
1
1
1
1
1
1
1
1
1
1
1
1
1
1
1
1
1
1
1
1
1
1
1
1
1
1
1
1
1
1
1
1
1
1
1
1
1
1
1
1
1
1
1
1
1
1
1
1
1
1
1
1
1
1
1
1
1
1
1
1
1
1
1
1
0.999997
0.999988
1
1
1
1
1
1
1
1
1
1
1
1
1
1
1
1
1
1
1
1
1
1
1
1
1
1
1
0.999999
0.99966
0.998791
1
1
1
1
0.999999
1
1
1
1
1
1
1
1
1
1
1
1
1
1
1
1
1
1
1
1
1
1
0.999995
0.998753
0.997864
1
1
1
1
0.999977
0.99999
0.999999
0.99999
1
1
1
1
1
1
1
1
1
1
1
1
1
1
1
1
1
1
1
0.999997
0.999438
0.998842
0.991926
0.999999
1
0.999915
0.990304
0.99163
0.979564
0.975978
1
1
1
1
1
1
1
1
1
1
1
1
1
1
1
1
1
1
1
0.999991
1
0.999994
0.714098
0.961293
0.713909
0.663567
0.431744
0.443812
0.361734
0.364466
1
1
1
1
1
1
1
1
1
1
1
1
1
1
1
1
1
1
1
0.999997
1
0.987192
0.468409
0.483497
0.0288328
0.057094
6.99274e-05
4.53831e-06
5.36204e-07
5.57227e-07
1
1
1
1
1
1
1
1
1
1
1
1
1
1
1
1
1
1
1
1
1
0.830378
0.382184
0.126547
0.00331608
0.00155625
0.00308049
0.000168197
1.42581e-06
3.24378e-07
1
1
1
1
1
1
1
1
1
1
1
1
1
1
1
1
1
1
1
1
1
0.696069
0.106094
0.00255022
0.00140236
0.000299486
0.000297124
0.00012277
-1.7182e-08
5.58086e-08
1
1
1
1
1
1
1
1
1
1
1
1
1
1
1
1
1
1
1
1
1
0.54009
0.045518
0.0011127
0.000315858
3.42752e-05
1.40912e-06
1.02208e-10
-3.13972e-08
7.10936e-08
1
1
1
1
1
1
1
1
1
1
1
1
1
1
1
1
1
1
1
1
1
0.326384
2.53983e-05
0.00286736
0.0011259
1.40165e-06
6.80221e-11
-7.3403e-08
-1.76255e-07
-1.17477e-07
1
1
1
1
1
1
1
1
1
1
1
1
1
1
1
1
1
1
1
1
1
0.279104
2.99085e-06
0.000131977
0.00022183
-4.28793e-10
-2.54464e-07
-2.92899e-07
-2.78529e-07
-2.38485e-07
1
1
1
1
1
1
1
1
1
1
1
1
1
1
1
1
1
1
1
1
0.990687
0.105707
2.08713e-07
1.17708e-06
2.50139e-08
-4.79328e-09
-3.17242e-07
-3.61014e-07
-3.72713e-07
-3.59057e-07
1
1
1
1
1
1
1
1
1
1
1
1
1
1
1
1
1
1
1
1
0.91035
0.0767681
5.55888e-08
2.10777e-07
7.32816e-07
-1.43449e-07
-3.11197e-07
-3.8612e-07
-4.31913e-07
-4.61372e-07
1
1
1
1
1
1
1
1
1
1
1
1
1
1
1
1
1
1
1
1
0.746227
0.0424083
1.38813e-09
1.43249e-06
1.24231e-06
-7.51632e-08
-2.56246e-07
-3.5434e-07
-4.31418e-07
-5.0676e-07
1
1
1
1
1
1
1
1
1
1
1
1
1
1
1
1
1
1
1
1
0.485358
0.00621089
7.63804e-10
3.72034e-10
1.03441e-12
-1.22763e-08
-1.76215e-07
-2.81413e-07
-3.77445e-07
-4.90974e-07
1
1
1
1
1
1
1
1
1
1
1
1
1
1
1
1
1
1
0.999998
0.999987
0.232753
2.56785e-08
1.38882e-09
8.31101e-10
2.54369e-10
4.00596e-11
-9.72254e-08
-1.94727e-07
-2.964e-07
-4.35757e-07
1
1
1
1
1
1
1
1
1
1
1
1
1
1
1
1
1
1
0.999998
0.943936
0.109522
4.22409e-07
5.92637e-07
1.03239e-08
7.31019e-09
2.53348e-07
-3.36228e-08
-1.14688e-07
-2.1309e-07
-3.64476e-07
1
1
1
1
1
1
1
1
1
1
1
1
1
1
1
1
1
1
0.999933
0.650072
0.0384482
1.1231e-06
4.12347e-06
1.39086e-05
4.73506e-06
3.86399e-06
-4.96382e-10
-5.32648e-08
-1.43207e-07
-2.93811e-07
1
1
1
1
1
1
1
1
1
1
1
1
1
1
1
1
1
1
0.999997
0.362914
0.00103064
1.63103e-06
3.6537e-06
3.53845e-05
3.31222e-05
4.51791e-06
1.03495e-13
-1.79614e-08
-9.49799e-08
-2.34192e-07
1
1
1
1
1
1
1
1
1
1
1
1
1
1
1
1
1
1
0.998172
0.253668
0.00016115
3.2772e-06
4.26022e-07
3.52997e-05
2.94511e-05
1.57573e-06
3.67041e-12
-7.16316e-09
-6.93226e-08
-1.90021e-07
1
1
1
1
1
1
1
1
1
1
1
1
1
1
1
1
1
0.999993
0.760676
0.0792164
0.000791437
-6.1722e-08
1.67374e-09
5.30716e-06
3.72766e-10
1.38591e-08
5.84631e-10
-7.96007e-09
-5.81796e-08
-1.55435e-07
1
1
1
1
1
1
1
1
1
1
1
1
1
1
1
1
1
1
0.512527
0.0371938
2.61742e-07
3.69158e-09
3.59635e-09
3.72673e-10
1.24176e-10
6.0763e-13
2.14897e-09
-1.21299e-08
-5.22402e-08
-1.23393e-07
1
1
1
1
1
1
1
1
1
1
1
1
1
1
1
1
1
0.99999
0.355886
0.0015001
0.00122751
0.000110813
4.10504e-09
1.93541e-08
5.70855e-09
-1.12633e-10
-1.00366e-09
-1.4697e-08
-4.4554e-08
-9.2679e-08
1
1
1
1
1
1
1
1
1
1
1
1
1
1
1
1
1
0.966437
0.101186
0.000303114
0.000355938
4.19666e-05
1.41759e-08
6.42006e-07
2.63141e-10
-2.85676e-10
-2.71173e-09
-1.31454e-08
-3.42613e-08
-6.60919e-08
1
1
1
1
1
1
1
1
1
1
1
1
1
1
1
1
0.999987
0.680256
0.00287697
0.000913631
1.35515e-05
1.44315e-05
4.22344e-06
7.65441e-07
9.36459e-15
-1.6336e-10
-2.36527e-09
-9.42511e-09
-2.38943e-08
-4.50954e-08
1
1
1
1
1
1
1
1
1
1
1
1
1
1
1
0.999999
0.993195
0.45744
0.00850505
3.84153e-06
5.39623e-06
4.51995e-05
4.23534e-06
1.00773e-07
3.74031e-12
4.465e-11
-1.2822e-09
-5.86752e-09
-1.5568e-08
-2.96993e-08
1
1
1
1
1
1
1
1
1
1
1
1
1
1
1
1
0.972933
0.226603
0.000177149
3.8974e-06
3.84121e-06
1.34146e-05
3.7815e-07
2.38309e-10
2.37571e-10
1.37264e-10
-5.98825e-10
-3.48427e-09
-9.80591e-09
-1.89709e-08
1
1
1
1
1
1
1
1
1
1
1
1
1
1
1
1
0.97939
0.239246
3.95778e-06
3.84138e-06
7.70116e-06
1.00407e-09
6.85781e-10
3.2575e-10
5.94912e-10
2.01298e-10
-2.91636e-10
-2.09647e-09
-6.10529e-09
-1.18022e-08
1
1
1
1
1
1
1
1
1
1
1
1
1
1
1
1
1
1
1
1
1
1
1
1
1
1
1
1
1
1
1
1
1
1
1
1
1
1
1
1
1
1
1
1
1
1
1
1
1
1
1
1
1
1
1
1
1
1
1
1
1
1
1
1
1
1
1
1
0.999989
0.999997
1
1
1
1
1
1
1
1
1
1
1
1
1
1
1
1
1
1
1
1
1
1
1
0.999999
1
1
1
1
0.998796
0.999666
0.999999
1
1
1
1
1
1
1
1
1
1
1
1
1
1
1
1
1
1
1
0.999991
1
0.99999
0.999977
1
1
1
1
0.997874
0.998797
0.999996
1
1
1
1
1
1
1
1
1
1
1
1
1
1
1
1
1
1
1
0.975928
0.979458
0.991645
0.990199
0.999916
1
0.999999
0.991212
0.998888
0.999485
0.999998
1
1
1
1
1
1
1
1
1
1
1
1
1
1
1
1
1
1
1
0.364628
0.361699
0.444053
0.430749
0.663421
0.709981
0.960335
0.711131
0.999999
1
0.999993
1
1
1
1
1
1
1
1
1
1
1
1
1
1
1
1
1
1
1
5.37259e-07
5.56879e-07
4.91513e-06
7.28219e-05
0.0572911
0.0272594
0.482466
0.467198
0.986341
1
0.999998
1
1
1
1
1
1
1
1
1
1
1
1
1
1
1
1
1
1
1
3.48566e-07
1.75978e-06
0.000176987
0.00313354
0.00158414
0.00340547
0.125739
0.381664
0.828389
1
1
1
1
1
1
1
1
1
1
1
1
1
1
1
1
1
1
1
1
1
5.87199e-08
-2.47986e-08
0.000123267
0.00029658
0.000306793
0.0013631
0.0025513
0.10794
0.695052
1
1
1
1
1
1
1
1
1
1
1
1
1
1
1
1
1
1
1
1
1
7.33311e-08
-4.73917e-08
1.00146e-10
1.57144e-06
3.56366e-05
0.00032896
0.00109399
0.04503
0.537839
1
1
1
1
1
1
1
1
1
1
1
1
1
1
1
1
1
1
1
1
1
-1.14999e-07
-1.69812e-07
-3.24502e-08
6.94377e-11
1.56115e-06
0.00116149
0.00280813
2.46041e-05
0.326164
1
1
1
1
1
1
1
1
1
1
1
1
1
1
1
1
1
1
1
1
1
-2.35788e-07
-2.7276e-07
-2.91126e-07
-2.68009e-07
-4.91007e-10
0.00022697
0.000126667
2.87103e-06
0.277372
1
1
1
1
1
1
1
1
1
1
1
1
1
1
1
1
1
1
1
1
1
-3.61245e-07
-3.73095e-07
-3.6466e-07
-3.2224e-07
-5.89084e-09
3.88259e-08
1.19789e-06
2.17142e-07
0.105495
0.991148
1
1
1
1
1
1
1
1
1
1
1
1
1
1
1
1
1
1
1
1
-4.69968e-07
-4.39755e-07
-3.94436e-07
-3.17122e-07
-1.40863e-07
8.4746e-07
2.90395e-07
5.70516e-08
0.0781804
0.911811
1
1
1
1
1
1
1
1
1
1
1
1
1
1
1
1
1
1
1
1
-5.21248e-07
-4.44848e-07
-3.65757e-07
-2.63173e-07
-7.24468e-08
1.25372e-06
1.49801e-06
1.86337e-09
0.0427708
0.746852
1
1
1
1
1
1
1
1
1
1
1
1
1
1
1
1
1
1
1
1
-5.10021e-07
-3.94277e-07
-2.94532e-07
-1.85453e-07
-1.36996e-08
4.14233e-13
1.4779e-10
7.20142e-10
0.00678924
0.485643
1
1
1
1
1
1
1
1
1
1
1
1
1
1
1
1
1
1
1
1
-4.58246e-07
-3.15522e-07
-2.08668e-07
-1.11146e-07
3.76748e-11
1.36315e-10
7.92261e-10
1.86452e-09
3.92183e-08
0.23192
0.999987
0.999997
1
1
1
1
1
1
1
1
1
1
1
1
1
1
1
1
1
1
-3.89781e-07
-2.32974e-07
-1.28156e-07
-5.05857e-08
1.63971e-07
5.18004e-09
2.57936e-08
9.79667e-07
2.21733e-07
0.10913
0.943382
0.999998
1
1
1
1
1
1
1
1
1
1
1
1
1
1
1
1
1
1
-3.21003e-07
-1.61e-07
-6.42309e-08
-5.0764e-09
2.59848e-06
3.62048e-06
2.06311e-05
5.47358e-06
3.35045e-07
0.0379462
0.6495
0.999933
1
1
1
1
1
1
1
1
1
1
1
1
1
1
1
1
1
1
-2.59525e-07
-1.08485e-07
-2.49208e-08
-1.94568e-12
3.05828e-06
3.11979e-05
4.01512e-05
3.65954e-06
9.62721e-07
0.00172915
0.364533
0.999997
1
1
1
1
1
1
1
1
1
1
1
1
1
1
1
1
1
1
-2.09641e-07
-7.81926e-08
-9.5813e-09
3.11531e-11
1.55728e-06
2.98012e-05
3.94538e-05
2.13612e-07
2.36705e-06
0.000120121
0.248596
0.998009
1
1
1
1
1
1
1
1
1
1
1
1
1
1
1
1
1
1
-1.69216e-07
-6.30695e-08
-7.57587e-09
3.29056e-09
1.17075e-07
4.02231e-10
2.51429e-06
-1.05878e-10
-7.88836e-08
0.000772746
0.0781213
0.759885
0.999993
1
1
1
1
1
1
1
1
1
1
1
1
1
1
1
1
1
-1.33102e-07
-5.44944e-08
-1.07949e-08
8.81147e-09
1.60309e-10
4.02181e-10
4.03276e-10
2.66991e-09
1.468e-09
2.1401e-05
0.0375831
0.514493
1
1
1
1
1
1
1
1
1
1
1
1
1
1
1
1
1
1
-9.93375e-08
-4.58796e-08
-1.38962e-08
3.05167e-09
1.59501e-10
1.11492e-09
7.53709e-09
3.01239e-09
0.000130008
0.00133728
0.0013558
0.349983
0.99999
1
1
1
1
1
1
1
1
1
1
1
1
1
1
1
1
1
-7.03047e-08
-3.55108e-08
-1.32344e-08
-2.05427e-09
-1.79417e-10
-2.98828e-12
5.05719e-07
1.00262e-08
4.9518e-05
0.000351781
0.000279067
0.105993
0.9665
1
1
1
1
1
1
1
1
1
1
1
1
1
1
1
1
1
-4.76589e-08
-2.50744e-08
-9.93272e-09
-2.42973e-09
-1.8767e-10
-4.51809e-12
6.85743e-07
3.21232e-06
1.76558e-05
1.77394e-05
0.000825466
0.00228025
0.677683
0.999987
1
1
1
1
1
1
1
1
1
1
1
1
1
1
1
1
-3.12255e-08
-1.65159e-08
-6.3534e-09
-1.40988e-09
2.69627e-11
2.66775e-12
1.33217e-07
3.72629e-06
3.94344e-05
6.16572e-06
4.72588e-06
0.00893162
0.460157
0.993028
0.999999
1
1
1
1
1
1
1
1
1
1
1
1
1
1
1
-1.98651e-08
-1.0447e-08
-3.79557e-09
-6.68873e-10
1.30614e-10
2.07611e-10
2.08131e-10
5.94522e-07
1.15091e-05
4.7258e-06
4.79238e-06
0.000283269
0.225482
0.972681
1
1
1
1
1
1
1
1
1
1
1
1
1
1
1
1
-1.23322e-08
-6.46162e-09
-2.26138e-09
-3.24368e-10
1.82185e-10
5.27969e-10
2.97209e-10
6.48132e-10
9.76604e-10
7.60821e-06
4.7259e-06
4.80069e-06
0.237826
0.980023
1
1
1
1
1
1
1
1
1
1
1
1
1
1
1
1
0.13295
0.18101
0.361389
0.606189
0.806068
0.989971
1
1
1
1
1
1
1
1
1
0.999998
0.950381
0.128577
4.67379e-06
3.95501e-06
2.58148e-05
3.77877e-09
1.18859e-09
8.79457e-10
4.51316e-10
3.16373e-10
-8.86973e-11
-1.23643e-09
-3.74153e-09
-7.15385e-09
1.95194e-07
1.952e-07
0.000713776
0.0358476
0.15868
0.495655
0.851958
1
1
1
1
1
1
1
1
0.999991
0.949856
0.117242
5.943e-06
5.29904e-06
2.71292e-05
6.56651e-09
4.07834e-09
3.14216e-09
2.17111e-09
4.32187e-10
8.94822e-12
-9.33185e-10
-2.94751e-09
-5.63238e-09
1.95202e-07
4.14345e-07
2.79965e-05
0.0268001
0.173821
0.309659
0.542942
0.794665
0.959186
1
1
1
1
1
0.999999
0.999961
0.879056
0.0535708
8.47014e-06
8.87569e-06
2.71535e-05
2.96303e-07
2.42081e-08
2.01543e-07
2.67581e-08
5.91046e-10
1.17103e-10
-6.51385e-10
-2.23123e-09
-4.29665e-09
5.38414e-07
1.35112e-06
0.00107324
0.0332578
0.116761
0.341407
0.625705
0.861387
0.94003
0.991854
0.998543
1
1
1
0.999999
0.999923
0.808355
0.0432169
1.19555e-05
1.26246e-05
2.2132e-05
3.79302e-07
5.15763e-07
1.74108e-06
5.06366e-08
3.77109e-10
2.39215e-10
-4.04312e-10
-1.60747e-09
-3.1574e-09
1.35112e-06
0.000165405
0.000497811
1.18801e-08
2.43989e-07
1.05453e-05
0.0670372
0.473145
0.858444
0.991349
0.999407
1
1
1
0.999999
0.99486
0.571302
0.000190695
1.35465e-05
2.35629e-05
2.77182e-05
8.62503e-06
1.30482e-05
2.20131e-06
1.23805e-09
4.90335e-10
3.69758e-10
-2.01266e-10
-1.09543e-09
-2.2297e-09
2.5548e-06
3.04086e-06
0.00011907
7.1413e-09
1.18827e-08
2.4282e-07
1.00586e-05
0.00150248
0.340685
0.894809
1
1
1
1
1
0.991173
0.331705
1.45836e-05
1.39539e-05
2.35375e-05
3.97018e-05
3.99192e-05
2.20508e-05
2.87133e-07
1.16029e-09
5.3686e-10
4.40426e-10
-5.14152e-11
-7.04203e-10
-1.51333e-09
0.000178577
0.000624517
0.00037361
4.73637e-09
7.10359e-09
3.3943e-07
1.59757e-05
0.00287015
0.0780001
0.544188
0.959134
1
1
1
0.999997
0.969643
0.133244
1.52483e-05
1.46663e-05
3.95667e-05
3.99201e-05
3.77861e-05
2.9778e-06
2.64034e-09
5.29983e-10
4.73518e-10
3.68502e-10
3.4759e-11
-4.28402e-10
-9.87613e-10
0.000785713
0.000903283
0.000845559
4.51774e-09
3.32628e-09
1.48709e-06
3.27069e-05
6.37773e-05
0.000414069
0.259692
0.858803
1
1
1
0.999981
0.894762
0.122745
1.60697e-05
1.55077e-05
3.92133e-05
3.13222e-05
2.30599e-07
1.33207e-09
3.83813e-10
3.25072e-10
4.22164e-10
2.74138e-10
6.53882e-11
-2.50193e-10
-6.17581e-10
0.00044007
0.000903283
0.000638439
4.47808e-09
2.5261e-09
6.07752e-07
2.29895e-05
3.14743e-05
0.00012899
0.0401541
0.567848
0.979226
1
0.999999
0.999927
0.726405
0.0665629
1.72817e-05
4.14874e-05
3.17799e-05
3.17038e-08
1.38802e-09
3.24248e-10
2.77498e-10
2.68137e-10
2.4822e-10
1.9048e-10
5.83428e-11
-1.4448e-10
-3.65307e-10
0.00017781
0.000903283
0.000130084
2.51463e-09
4.43609e-10
2.18577e-07
1.6141e-06
9.76624e-07
2.61015e-05
0.00419118
0.261064
0.894783
0.999999
0.999996
0.992666
0.564768
0.0515768
1.2378e-05
4.51844e-06
1.80465e-07
4.40334e-09
3.73699e-10
2.87927e-10
2.56715e-10
1.68781e-10
1.44393e-10
1.13017e-10
3.17969e-11
-8.39952e-11
-1.97646e-10
3.81795e-05
0.000820821
2.49524e-08
2.49523e-08
2.91313e-10
1.8013e-08
1.92073e-08
2.9465e-07
-1.00773e-06
2.53303e-05
0.0230068
0.673135
0.999996
0.999978
0.930606
0.218491
0.00420087
3.71439e-05
3.24538e-06
8.50748e-08
9.31239e-10
4.05045e-10
3.62931e-10
2.22703e-10
1.02664e-10
7.79994e-11
5.20693e-11
7.44381e-12
-4.55031e-11
-9.13689e-11
1.00531e-07
6.17038e-05
6.69545e-08
6.69842e-11
6.40625e-11
6.81381e-11
9.62178e-10
3.85274e-08
1.7227e-06
1.23484e-05
0.0165768
0.380852
0.962854
0.999137
0.816739
0.0367439
0.000256792
0.00021479
4.74072e-05
1.51458e-07
1.66169e-08
5.5543e-10
3.23091e-10
2.41907e-10
9.33116e-11
3.91647e-11
1.58522e-11
-1.73251e-12
-1.8978e-11
-3.26516e-11
4.85834e-09
6.37405e-08
1.03495e-07
2.00757e-10
3.573e-11
4.60643e-11
9.30731e-11
4.67486e-07
1.5095e-05
1.30322e-05
1.12662e-05
0.0163785
0.728982
0.99546
0.678655
0.0253367
0.000129832
2.40131e-05
4.64124e-05
3.16351e-06
1.63444e-08
1.29406e-09
2.70259e-10
2.37028e-10
1.705e-10
4.72827e-11
8.73126e-12
-5.43231e-13
-4.92621e-12
-8.01841e-12
2.2942e-10
3.01687e-09
2.49731e-09
6.50011e-11
1.80026e-11
4.36809e-11
5.4822e-11
2.73376e-08
6.8598e-09
1.15158e-06
1.50692e-08
0.00306906
0.160856
0.613714
0.171276
0.00499955
3.18261e-07
1.38256e-05
2.52054e-05
8.54216e-06
-4.70676e-11
4.5289e-11
6.29481e-11
6.02378e-11
3.14562e-10
9.55247e-11
1.7201e-11
1.80164e-12
-4.88616e-13
-1.06375e-12
3.49553e-11
1.7609e-10
1.05837e-10
2.67928e-11
7.38665e-12
1.4448e-11
4.3871e-11
4.85721e-11
1.00182e-10
2.02568e-06
6.27284e-11
1.42397e-12
4.44409e-12
0.0319377
2.49537e-07
1.5618e-07
2.02018e-07
2.55444e-07
2.00849e-13
7.3488e-14
6.00292e-15
-4.05691e-13
1.56854e-12
1.17601e-11
6.67314e-12
2.7602e-12
8.30051e-13
1.69325e-13
2.0903e-14
1.21486e-15
1.72019e-11
3.35153e-11
8.1635e-11
1.09916e-11
2.1303e-12
3.55194e-12
1.35552e-11
3.74181e-11
5.03039e-11
3.25188e-09
4.93244e-11
7.35762e-13
7.35472e-13
1.06634e-11
2.04173e-05
2.10044e-07
1.35166e-06
4.10765e-07
3.20564e-11
5.28134e-12
4.14099e-12
1.45286e-12
4.03542e-13
8.97508e-14
1.46308e-14
1.65349e-15
1.31503e-16
8.59657e-18
6.60401e-19
7.06857e-20
5.24715e-12
9.7209e-12
2.09846e-11
3.10449e-12
4.29745e-13
6.18109e-13
2.72196e-12
2.5104e-11
3.90408e-11
2.07102e-11
2.2007e-11
8.62949e-12
7.74603e-13
8.60421e-15
3.56238e-08
1.45214e-09
2.28166e-13
2.28469e-13
4.21567e-13
6.04551e-12
3.51687e-12
1.53886e-12
5.42325e-13
1.43999e-13
2.69352e-14
3.26149e-15
2.42463e-16
1.07435e-17
2.75344e-19
3.62609e-21
6.0566e-13
1.71091e-11
5.45605e-12
6.51362e-13
6.22712e-14
7.49396e-14
3.77309e-13
4.55552e-12
8.07912e-12
1.16536e-11
3.37045e-12
6.66918e-13
5.11267e-13
4.96971e-15
6.51061e-16
6.42749e-16
3.50367e-13
9.67894e-13
7.76096e-14
8.37135e-15
1.03087e-15
1.41308e-16
2.17012e-17
3.34382e-18
4.51923e-19
4.78989e-20
3.64209e-21
1.93823e-22
7.81666e-24
2.67053e-25
5.72589e-14
3.68148e-12
9.84174e-13
9.7722e-14
6.6772e-15
6.32883e-15
3.57077e-14
5.37569e-13
8.72668e-13
8.40726e-13
1.99229e-13
2.98156e-14
6.76224e-15
1.19462e-15
6.92569e-16
6.39781e-16
1.71522e-15
9.516e-16
2.11251e-16
1.82582e-17
1.61233e-18
1.30786e-19
7.89436e-21
4.90145e-22
3.98089e-23
3.4928e-24
2.90182e-25
1.99511e-26
1.02117e-27
3.25435e-29
4.47453e-15
5.20084e-13
1.25078e-13
1.05581e-14
5.41606e-16
3.75111e-16
2.24246e-15
4.33682e-14
4.8352e-14
2.16449e-14
4.69353e-15
7.78591e-16
1.50119e-16
3.87288e-17
1.29415e-17
4.20765e-18
1.15282e-18
1.79652e-19
3.90223e-20
7.57699e-21
1.37042e-21
2.55166e-22
4.93569e-23
9.01114e-24
1.44045e-24
1.91697e-25
2.04579e-26
1.65983e-27
9.1446e-29
2.5559e-30
2.80387e-16
5.0037e-14
1.13882e-14
8.26359e-16
3.37848e-17
1.5823e-17
8.95219e-17
2.26514e-15
1.5125e-15
3.18358e-16
7.34732e-17
1.78731e-17
4.7361e-18
1.31886e-18
3.87209e-19
1.01545e-19
2.0742e-20
4.88786e-21
8.63643e-22
1.46617e-22
2.30796e-23
3.13453e-24
3.5899e-25
3.54727e-26
3.2169e-27
2.65476e-28
1.96643e-29
1.24475e-30
5.91082e-32
1.51318e-33
1.35336e-17
3.34751e-15
7.5188e-16
4.71397e-17
1.6404e-18
4.87346e-19
2.12997e-18
6.67483e-17
2.59597e-17
5.76796e-18
1.56276e-18
4.56586e-19
1.29297e-19
3.40636e-20
8.56059e-21
1.95121e-21
3.67478e-22
5.8408e-23
8.97805e-24
1.26764e-24
1.65753e-25
2.04918e-26
2.37736e-27
2.5134e-28
2.31128e-29
1.75106e-30
1.02418e-31
4.29164e-33
1.16522e-34
1.64347e-36
4.86481e-19
1.56848e-16
3.6032e-17
1.96587e-18
6.27012e-20
1.14119e-20
2.66673e-20
7.83716e-19
1.85252e-19
6.82042e-20
2.74357e-20
9.22349e-21
2.54806e-21
6.02491e-22
1.28084e-22
2.42244e-23
3.89845e-24
5.63269e-25
7.21295e-26
8.47789e-27
9.26156e-28
9.14515e-29
8.0998e-30
6.386e-31
4.47515e-32
2.7651e-33
1.47006e-34
6.31985e-36
1.93173e-37
3.09953e-39
1.2722e-20
5.13986e-18
1.2529e-18
6.01887e-20
1.90677e-21
2.73449e-22
1.57811e-22
2.00943e-21
9.79745e-22
8.98785e-22
4.35893e-22
1.39224e-22
3.37948e-23
6.77895e-24
1.18607e-24
1.82798e-25
2.45812e-26
2.92303e-27
3.12448e-28
3.02974e-29
2.6913e-30
2.21532e-31
1.65512e-32
1.10191e-33
6.37643e-35
3.10005e-36
1.21328e-37
3.59654e-39
7.26027e-41
7.67764e-43
2.38639e-22
1.17063e-19
3.1628e-20
1.36582e-21
4.64797e-23
6.76171e-24
2.82551e-24
4.28682e-24
8.96153e-24
1.2157e-23
5.29214e-24
1.4188e-24
2.84421e-25
4.67081e-26
6.60612e-27
8.19261e-28
8.94635e-29
8.69171e-30
7.58046e-31
5.9804e-32
4.28137e-33
2.7767e-34
1.62144e-35
8.46996e-37
3.89702e-38
1.53971e-39
5.02954e-41
1.27503e-42
2.23259e-44
2.04821e-46
3.18611e-24
1.83842e-21
5.77115e-22
2.33315e-23
9.12886e-25
1.37297e-25
4.9742e-26
5.80111e-26
1.07041e-25
1.20566e-25
4.19052e-26
8.92017e-27
1.41774e-27
1.83992e-28
2.04454e-29
1.98926e-30
1.7147e-31
1.32088e-32
9.15993e-34
5.7438e-35
3.25937e-36
1.66842e-37
7.6446e-39
3.0961e-40
1.08812e-41
3.23316e-43
7.81984e-45
1.44971e-46
1.84498e-48
1.23523e-50
3.02676e-26
1.97966e-23
7.62738e-24
3.0787e-25
1.4549e-26
2.23212e-27
6.85404e-28
6.34237e-28
9.54972e-28
7.85607e-28
1.99189e-28
3.14852e-29
3.74143e-30
3.62888e-31
3.00058e-32
2.16696e-33
1.3864e-34
7.94175e-36
4.10592e-37
1.92527e-38
8.19679e-40
3.15905e-41
1.09411e-42
3.36481e-44
9.02768e-46
2.05928e-47
3.84256e-49
5.51379e-51
5.43753e-53
2.82422e-55
2.06794e-28
1.46847e-25
7.40488e-26
3.25864e-27
1.88112e-28
2.87098e-29
7.34269e-30
5.20191e-30
6.04846e-30
3.25941e-30
5.3975e-31
5.76763e-32
4.73555e-33
3.21175e-34
1.8674e-35
9.49947e-37
4.28125e-38
1.72397e-39
6.23814e-41
2.03455e-42
5.98177e-44
1.58057e-45
3.72876e-47
7.76932e-49
1.40655e-50
2.15924e-52
2.7085e-54
2.61447e-56
1.74041e-58
6.16822e-61
1.04697e-30
7.73187e-28
5.43585e-28
2.85952e-29
1.9857e-30
2.90884e-31
6.10369e-32
3.25161e-32
2.77222e-32
8.78546e-33
8.26893e-34
5.08393e-35
2.43714e-36
9.77934e-38
3.40233e-39
1.04617e-40
2.87561e-42
7.11568e-44
1.59135e-45
3.22019e-47
5.88655e-49
9.67789e-51
1.42024e-52
1.83908e-54
2.06574e-56
1.96252e-58
1.51777e-60
8.98997e-63
3.65598e-65
7.93595e-68
4.21724e-33
3.14329e-30
3.1832e-30
2.12201e-31
1.71141e-32
2.33799e-33
4.00698e-34
1.61714e-34
9.85107e-35
1.63396e-35
5.67493e-37
1.23111e-38
2.0474e-40
2.83248e-42
3.39412e-44
3.60308e-46
3.4343e-48
2.9624e-50
2.32217e-52
1.65629e-54
1.07343e-56
6.29555e-59
3.31705e-61
1.55203e-63
6.33585e-66
2.19756e-68
6.22283e-71
1.35192e-73
2.02298e-76
1.64115e-79
-7.43729e-09
-3.94072e-09
-1.32548e-09
-1.13476e-10
2.79339e-10
4.39513e-10
8.28653e-10
1.14991e-09
2.61718e-09
2.33143e-05
4.83966e-06
5.42396e-06
0.127492
0.950778
0.999998
1
1
1
1
1
1
1
1
1
0.989555
0.808135
0.604484
0.361259
0.180915
0.132805
-5.8404e-09
-3.10882e-09
-1.00898e-09
-2.11712e-11
3.76581e-10
1.82866e-09
2.47697e-09
4.19536e-09
4.25096e-09
2.3388e-05
5.84018e-06
6.42012e-06
0.114969
0.950418
0.999991
1
1
1
1
1
1
1
1
0.851113
0.493593
0.16035
0.035455
0.000702632
1.99091e-07
1.99084e-07
-4.44313e-09
-2.36112e-09
-7.18121e-10
7.80326e-11
5.06389e-10
1.94682e-08
2.00678e-07
2.52192e-08
1.30713e-08
2.2212e-05
9.9005e-06
9.0478e-06
0.0533872
0.879384
0.999961
0.999999
1
1
1
1
1
0.958222
0.793524
0.542867
0.311181
0.172598
0.0267578
2.86198e-05
4.28049e-07
1.99093e-07
-3.26271e-09
-1.71005e-09
-4.62813e-10
1.86316e-10
3.34979e-10
3.8791e-08
1.58195e-06
5.40351e-07
9.95333e-08
1.39499e-05
1.21901e-05
1.21007e-05
0.042206
0.807875
0.999923
0.999999
1
1
1
0.99853
0.991851
0.94003
0.862633
0.62682
0.341292
0.117328
0.0332901
0.00106261
1.41127e-06
5.57916e-07
-2.30799e-09
-1.17505e-09
-2.53076e-10
2.99746e-10
4.24925e-10
1.03979e-09
1.93702e-06
1.34584e-05
1.10162e-05
3.36247e-05
2.18771e-05
1.34124e-05
4.58866e-05
0.571297
0.994805
0.999999
1
1
1
0.999379
0.991448
0.860599
0.478114
0.0693332
1.09314e-05
2.57642e-07
1.38841e-08
0.000503501
0.000174365
1.64626e-06
-1.5716e-09
-7.64699e-10
-9.73606e-11
3.68757e-10
4.65963e-10
1.00678e-09
2.30475e-07
2.2845e-05
4.07312e-05
4.06141e-05
2.11822e-05
1.41154e-05
1.45859e-05
0.328708
0.990863
1
1
1
1
1
0.893874
0.341628
0.00158127
1.04129e-05
2.56373e-07
1.38868e-08
9.04711e-09
0.000137732
1.04692e-05
3.14784e-06
-1.02912e-09
-4.73008e-10
-2.68462e-12
3.25304e-10
4.29015e-10
5.53925e-10
3.31124e-09
3.40893e-06
3.90489e-05
4.07146e-05
4.01945e-05
1.46437e-05
1.52149e-05
0.133129
0.969441
0.999997
1
1
1
0.959927
0.542779
0.0762207
0.00273701
1.62376e-05
3.53584e-07
9.00869e-09
6.58524e-09
0.000394937
0.000687519
0.000189575
-6.44634e-10
-2.8103e-10
3.76519e-11
2.48433e-10
4.02487e-10
3.20229e-10
3.75635e-10
1.30651e-09
8.20423e-07
3.12119e-05
3.97206e-05
1.54873e-05
1.61084e-05
0.122617
0.894345
0.999981
1
1
1
0.858426
0.254697
0.000406482
6.27596e-05
3.2308e-05
1.5356e-06
5.24259e-09
6.36302e-09
0.000863794
0.000912256
0.000798473
-3.80302e-10
-1.63311e-10
3.99984e-11
1.76644e-10
2.43533e-10
2.59095e-10
2.64678e-10
3.08445e-10
1.34278e-09
3.13346e-08
3.24263e-05
4.35388e-05
1.71825e-05
0.0659132
0.725902
0.999928
0.999999
1
0.979809
0.567258
0.0392051
0.000130912
3.48544e-05
2.7262e-05
8.49115e-07
3.87792e-09
6.358e-09
0.000619434
0.000912256
0.000442155
-2.03904e-10
-9.31298e-11
2.16663e-11
1.04868e-10
1.41555e-10
1.64944e-10
2.46184e-10
2.75177e-10
3.37265e-10
3.70323e-09
1.62141e-07
4.09133e-06
1.20738e-05
0.051068
0.564264
0.992599
0.999996
0.999999
0.896162
0.263391
0.00483544
2.47546e-05
9.91562e-07
2.68197e-06
4.20123e-07
1.11419e-09
3.86673e-09
0.000111393
0.000912256
0.000176097
-9.2939e-11
-4.84659e-11
3.61659e-12
4.87181e-11
7.75613e-11
9.78606e-11
2.10175e-10
3.33138e-10
4.3075e-10
5.66967e-10
7.38298e-08
2.83239e-06
3.55116e-05
0.00388657
0.21629
0.929688
0.999977
0.999996
0.674179
0.0220848
2.39548e-05
-1.09233e-06
4.11986e-07
2.82018e-08
4.32252e-08
9.1911e-10
2.51983e-08
2.52077e-08
0.000815273
3.61738e-05
-3.27553e-11
-1.94956e-11
-2.58022e-12
1.44664e-11
3.72556e-11
8.6166e-11
2.27456e-10
3.06002e-10
4.65717e-10
1.26426e-08
1.33967e-07
4.40051e-05
0.000201619
0.000247537
0.0367759
0.815849
0.999125
0.962996
0.381921
0.0167574
1.15133e-05
1.73079e-06
4.43351e-08
1.48228e-09
7.7767e-11
6.9186e-11
7.22299e-11
9.16165e-08
5.62133e-05
9.75269e-08
-7.97417e-12
-4.97494e-12
-7.59065e-13
7.49725e-12
4.20003e-11
1.56366e-10
2.25336e-10
2.72255e-10
1.17565e-09
1.47421e-08
2.59883e-06
4.94929e-05
2.33149e-05
0.00012965
0.0253688
0.678404
0.995425
0.729786
0.0163592
1.07155e-05
1.21551e-05
1.4524e-05
4.90882e-07
1.21262e-10
4.79734e-11
3.77211e-11
2.03826e-10
9.67086e-08
5.99835e-08
4.74363e-09
-1.05592e-12
-5.2539e-13
1.41423e-12
1.45901e-11
8.52174e-11
2.95775e-10
6.00258e-11
6.31579e-11
4.19513e-11
-4.6155e-11
8.68084e-06
2.45571e-05
1.32457e-05
3.19011e-07
0.00478426
0.169952
0.615823
0.162264
0.00320414
2.21216e-08
1.28855e-06
8.16161e-09
3.0673e-08
6.12654e-11
5.35167e-11
1.8153e-11
6.33512e-11
2.27435e-09
2.83619e-09
2.25553e-10
7.60486e-16
1.5758e-14
1.38906e-13
7.18722e-13
2.49366e-12
6.28838e-12
1.14037e-11
1.55708e-12
-8.02275e-12
-3.2811e-11
-9.56993e-12
2.75186e-15
1.77251e-07
2.11461e-07
1.60389e-07
2.55571e-07
0.0325241
4.42711e-12
1.5366e-12
1.20959e-10
2.52765e-06
1.17396e-10
4.63869e-11
4.73126e-11
1.56935e-11
7.29613e-12
2.52974e-11
1.10596e-10
1.78246e-10
3.45282e-11
7.7957e-20
6.82596e-19
8.02335e-18
1.14595e-16
1.41489e-15
1.26206e-14
7.89361e-14
3.64302e-13
1.35625e-12
3.99019e-12
5.75732e-12
3.24057e-11
4.17606e-07
1.37976e-06
2.19675e-07
2.09719e-05
1.06515e-11
7.03342e-13
7.03766e-13
8.22611e-11
5.80982e-09
5.54578e-11
2.88132e-11
1.46925e-11
3.76507e-12
2.09006e-12
1.09751e-11
8.66391e-11
3.28764e-11
1.70027e-11
2.28001e-21
1.95387e-19
8.09939e-18
1.90576e-16
2.64898e-15
2.25135e-14
1.23865e-13
4.81634e-13
1.41505e-12
3.3699e-12
6.00199e-12
4.28238e-13
2.42063e-13
2.41806e-13
1.36466e-09
3.27534e-08
8.54665e-15
7.36447e-13
8.11351e-12
2.2088e-11
1.92109e-11
4.39258e-11
2.38225e-11
2.97883e-12
6.56095e-13
4.20141e-13
3.06244e-12
2.20455e-11
9.7527e-12
5.20712e-12
3.80501e-25
9.16364e-24
2.08796e-22
3.82559e-21
4.99875e-20
4.72662e-19
3.53395e-18
2.33059e-17
1.52646e-16
1.06989e-15
8.04848e-15
7.55146e-14
9.46887e-13
3.71329e-13
5.38668e-16
5.46207e-16
4.63883e-15
4.90224e-13
6.40797e-13
3.24158e-12
1.11927e-11
8.1836e-12
4.33325e-12
4.17084e-13
7.99831e-14
6.07638e-14
6.29036e-13
5.49888e-12
1.69107e-11
6.05366e-13
4.61032e-29
1.2515e-27
2.29762e-26
3.26457e-25
3.88487e-24
4.35117e-23
5.10013e-22
7.32767e-21
1.06289e-19
1.22069e-18
1.36699e-17
1.62333e-16
7.53027e-16
1.36747e-15
5.35884e-16
6.60328e-16
1.11393e-15
6.64739e-15
2.92248e-14
1.90892e-13
7.92106e-13
8.56139e-13
5.1049e-13
3.98855e-14
6.78419e-15
6.5053e-15
9.28477e-14
9.61969e-13
3.66666e-12
5.74499e-14
2.67714e-30
9.64447e-29
1.74364e-27
2.13686e-26
1.99343e-25
1.4956e-24
9.38174e-24
5.1812e-23
2.71214e-22
1.46521e-21
8.05068e-21
4.12133e-20
1.89453e-19
1.20885e-18
4.46083e-18
1.38431e-17
4.17831e-17
1.60864e-16
8.00579e-16
4.56955e-15
2.03266e-14
4.67795e-14
4.12847e-14
2.53644e-15
4.02751e-16
5.26879e-16
9.90439e-15
1.19803e-13
5.18899e-13
4.48584e-15
1.90672e-33
6.93279e-32
1.41884e-30
2.20881e-29
2.95368e-28
3.54968e-27
3.87651e-26
3.87151e-25
3.33909e-24
2.44092e-23
1.55153e-22
9.16264e-22
5.20455e-21
2.23384e-20
1.10063e-19
4.24024e-19
1.46514e-18
5.36246e-18
2.04269e-17
8.24632e-17
3.37715e-16
1.46753e-15
2.1618e-15
1.02908e-16
1.6994e-17
3.28696e-17
7.68912e-16
1.07581e-14
4.98333e-14
2.79756e-16
1.60721e-36
1.22253e-34
4.58301e-33
1.10001e-31
1.88176e-30
2.48444e-29
2.70368e-28
2.5621e-27
2.21449e-26
1.79441e-25
1.37222e-24
9.72914e-24
6.34276e-23
4.01361e-22
2.14962e-21
9.53817e-21
3.8529e-20
1.49376e-19
5.38961e-19
1.8509e-18
6.46794e-18
2.57732e-17
6.33282e-17
2.49978e-18
5.2227e-19
1.59791e-18
4.36329e-17
7.03519e-16
3.31882e-15
1.34072e-17
3.42937e-39
2.15105e-37
7.01666e-36
1.62573e-34
3.04662e-33
4.91415e-32
6.99193e-31
8.84617e-30
9.97648e-29
1.01043e-27
9.26748e-27
7.8924e-26
6.20197e-25
4.32293e-24
2.70762e-23
1.44649e-22
6.8969e-22
2.97241e-21
1.10235e-20
3.36188e-20
8.30809e-20
1.96746e-19
7.19835e-19
3.20667e-20
1.22183e-20
6.13853e-20
1.81387e-18
3.34971e-17
1.54448e-16
4.77956e-19
8.13387e-43
7.9365e-41
3.9569e-39
1.33647e-37
3.4128e-36
7.01962e-35
1.21342e-33
1.82323e-32
2.44361e-31
2.9702e-30
3.34599e-29
3.46442e-28
3.25768e-27
2.75723e-26
2.06677e-25
1.35461e-24
7.8438e-24
3.97909e-23
1.67821e-22
5.42309e-22
1.16309e-21
1.21734e-21
1.87878e-21
1.87258e-22
2.92346e-22
1.8779e-21
5.55171e-20
1.16107e-18
5.01704e-18
1.23908e-20
2.21229e-46
2.47935e-44
1.41986e-42
5.59211e-41
1.70796e-39
4.31072e-38
9.34815e-37
1.78537e-35
3.05869e-34
4.72699e-33
6.62652e-32
8.44034e-31
9.73768e-30
1.00989e-28
9.33264e-28
7.60913e-27
5.45398e-26
3.37964e-25
1.72481e-24
6.64072e-24
1.59816e-23
1.19319e-23
5.71902e-24
3.22768e-24
7.32685e-24
4.6125e-23
1.26293e-21
2.92956e-20
1.13084e-19
2.30379e-22
1.27177e-50
1.99733e-48
1.59084e-46
8.62731e-45
3.57727e-43
1.20616e-41
3.43817e-40
8.50746e-39
1.86189e-37
3.64997e-36
6.45979e-35
1.03555e-33
1.50257e-32
1.96485e-31
2.29916e-30
2.38744e-29
2.17554e-28
1.70295e-27
1.09378e-26
5.29107e-26
1.59166e-25
1.44133e-25
7.76085e-26
5.72828e-26
1.50199e-25
9.15496e-25
2.16729e-23
5.35694e-22
1.75513e-21
3.04913e-24
2.79524e-55
5.83629e-53
6.06581e-51
4.27392e-49
2.30414e-47
1.01399e-45
3.79057e-44
1.23593e-42
3.57901e-41
9.31806e-40
2.1976e-38
4.71007e-37
9.16535e-36
1.61164e-34
2.54101e-33
3.55541e-32
4.35473e-31
4.56092e-30
3.91687e-29
2.54709e-28
1.04519e-27
1.31183e-27
8.62677e-28
7.94694e-28
2.45865e-27
1.47149e-26
2.8834e-25
7.1146e-24
1.86566e-23
2.87269e-26
5.60774e-61
1.7756e-58
2.77198e-56
2.92667e-54
2.36011e-52
1.54994e-50
8.61803e-49
4.161e-47
1.77436e-45
6.75768e-44
2.31444e-42
7.15174e-41
1.99399e-39
5.00198e-38
1.12278e-36
2.23679e-35
3.90707e-34
5.86584e-33
7.29874e-32
7.00852e-31
4.37046e-30
8.48961e-30
7.17529e-30
8.58589e-30
3.18491e-29
1.92388e-28
3.08146e-27
6.94198e-26
1.36478e-25
1.94786e-28
6.47653e-68
3.51809e-65
9.18254e-63
1.59979e-60
2.10996e-58
2.25235e-56
2.02719e-54
1.57992e-52
1.08557e-50
6.65633e-49
3.67168e-47
1.83089e-45
8.26975e-44
3.38062e-42
1.24618e-40
4.11395e-39
1.20255e-37
3.05334e-36
6.49996e-35
1.08095e-33
1.17955e-32
3.98283e-32
4.55289e-32
7.239e-32
3.24933e-31
2.05049e-30
2.73607e-29
5.13684e-28
7.08333e-28
9.7973e-31
1.15516e-79
1.81349e-76
1.32651e-73
6.41268e-71
2.33745e-68
6.89431e-66
1.71886e-63
3.727e-61
7.16168e-59
1.23474e-56
1.92516e-54
2.72699e-52
3.51562e-50
4.12117e-48
4.37552e-46
4.17491e-44
3.53203e-42
2.59003e-40
1.58082e-38
7.40315e-37
2.17517e-35
1.43492e-34