/*--------------------------------*- C++ -*----------------------------------*\
| =========                 |                                                 |
| \\      /  F ield         | OpenFOAM: The Open Source CFD Toolbox           |
|  \\    /   O peration     | Version:  2.4.0                                 |
|   \\  /    A nd           | Web:      www.OpenFOAM.org                      |
|    \\/     M anipulation  |                                                 |
\*---------------------------------------------------------------------------*/
FoamFile
{
    version     2.0;
    format      ascii;
    class       volScalarField;
    location    "0.31";
    object      p_rgh;
}
// * * * * * * * * * * * * * * * * * * * * * * * * * * * * * * * * * * * * * //

dimensions      [1 -1 -2 0 0 0 0];

internalField   nonuniform List<scalar> 
10000
(
0.00309105
0.00309072
0.00308987
0.00308857
0.00308659
0.00308374
0.0030799
0.00307504
0.00306911
0.00306211
0.00305406
0.00304498
0.0030349
0.00302389
0.00301199
0.00299924
0.00298571
0.00297141
0.0029564
0.0029407
0.00292433
0.00290729
0.00288961
0.00287129
0.00285234
0.00283278
0.00281265
0.00279203
0.002771
0.00274969
0.00272824
0.00270682
0.00268558
0.00266464
0.00264411
0.00262404
0.00260442
0.00258522
0.00256636
0.00254776
0.00252935
0.00251105
0.00249282
0.00247464
0.00245648
0.00243839
0.00242037
0.00240247
0.00238472
0.00236715
0.00309117
0.00309092
0.00309007
0.00308858
0.00308638
0.00308337
0.00307944
0.00307451
0.00306857
0.0030616
0.00305362
0.00304464
0.0030347
0.00302385
0.00301211
0.00299953
0.00298614
0.00297198
0.00295709
0.00294148
0.00292518
0.00290821
0.00289058
0.00287231
0.00285343
0.00283395
0.00281393
0.00279344
0.00277257
0.00275144
0.00273019
0.00270896
0.00268788
0.00266707
0.00264662
0.00262658
0.00260694
0.00258768
0.00256875
0.00255009
0.00253163
0.0025133
0.00249508
0.00247692
0.00245884
0.00244085
0.00242295
0.00240519
0.00238758
0.00237015
0.00309127
0.00309105
0.00309028
0.00308876
0.00308647
0.00308335
0.00307933
0.00307436
0.00306841
0.00306147
0.00305355
0.00304466
0.00303484
0.00302412
0.00301251
0.00300006
0.0029868
0.00297276
0.00295796
0.00294243
0.0029262
0.00290928
0.00289169
0.00287346
0.0028546
0.00283516
0.00281519
0.00279476
0.00277397
0.00275293
0.00273178
0.00271064
0.00268965
0.0026689
0.00264849
0.00262846
0.00260882
0.00258954
0.00257059
0.0025519
0.00253341
0.00251509
0.00249689
0.00247878
0.00246078
0.00244289
0.00242511
0.00240748
0.00238999
0.00237268
0.00309146
0.00309133
0.00309066
0.0030892
0.00308692
0.00308377
0.00307972
0.00307473
0.00306878
0.00306186
0.00305398
0.00304516
0.00303542
0.00302478
0.00301327
0.00300091
0.00298773
0.00297376
0.00295903
0.00294356
0.00292737
0.00291048
0.00289291
0.00287467
0.00285579
0.00283632
0.00281631
0.00279584
0.00277501
0.00275393
0.00273273
0.00271156
0.00269051
0.00266973
0.0026493
0.00262928
0.00260966
0.0025904
0.00257147
0.0025528
0.00253434
0.00251604
0.00249788
0.00247984
0.00246192
0.00244411
0.00242643
0.00240889
0.0023915
0.00237427
0.00309178
0.00309184
0.00309132
0.00308996
0.00308773
0.0030846
0.00308056
0.00307557
0.00306962
0.00306273
0.00305488
0.00304611
0.00303642
0.00302584
0.00301438
0.00300208
0.00298895
0.00297503
0.00296034
0.0029449
0.00292874
0.00291185
0.00289426
0.00287598
0.00285704
0.00283748
0.00281735
0.00279674
0.00277575
0.00275449
0.00273312
0.00271178
0.00269057
0.00266965
0.00264917
0.00262915
0.00260956
0.00259036
0.00257149
0.00255288
0.00253448
0.00251624
0.00249815
0.00248018
0.00246233
0.0024446
0.002427
0.00240954
0.00239222
0.00237505
0.00309232
0.00309265
0.00309232
0.00309107
0.00308892
0.00308585
0.00308183
0.00307686
0.00307093
0.00306405
0.00305623
0.00304749
0.00303783
0.00302728
0.00301585
0.00300358
0.00299048
0.00297658
0.00296191
0.00294649
0.00293032
0.00291342
0.00289578
0.00287743
0.00285838
0.00283868
0.00281835
0.0027975
0.00277622
0.00275465
0.00273297
0.00271133
0.00268983
0.00266866
0.00264808
0.00262807
0.00260855
0.00258946
0.0025707
0.0025522
0.00253389
0.00251575
0.00249774
0.00247985
0.00246207
0.00244441
0.00242687
0.00240946
0.00239219
0.00237508
0.00309322
0.00309381
0.00309369
0.00309259
0.00309053
0.00308752
0.00308355
0.00307861
0.0030727
0.00306584
0.00305803
0.00304931
0.00303966
0.00302912
0.0030177
0.00300542
0.00299232
0.00297843
0.00296376
0.00294833
0.00293215
0.00291521
0.00289752
0.00287907
0.00285988
0.00283996
0.00281936
0.00279815
0.00277643
0.0027544
0.00273225
0.00271018
0.00268823
0.00266663
0.00264595
0.00262598
0.0026066
0.00258767
0.00256909
0.00255075
0.0025326
0.00251458
0.00249667
0.00247885
0.00246114
0.00244353
0.00242603
0.00240866
0.00239144
0.00237437
0.00309454
0.00309539
0.0030955
0.00309455
0.0030926
0.00308967
0.00308575
0.00308084
0.00307495
0.0030681
0.0030603
0.00305157
0.00304191
0.00303135
0.00301991
0.00300761
0.00299449
0.00298057
0.00296589
0.00295044
0.00293423
0.00291725
0.00289949
0.00288093
0.00286157
0.0028414
0.00282043
0.00279872
0.00277638
0.00275366
0.00273085
0.00270824
0.00268563
0.0026633
0.00264256
0.00262276
0.00260362
0.00258497
0.00256667
0.00254857
0.00253062
0.00251274
0.00249494
0.0024772
0.00245953
0.00244195
0.00242449
0.00240715
0.00238997
0.00237294
0.00309637
0.00309746
0.00309778
0.003097
0.00309517
0.00309232
0.00308845
0.00308357
0.0030777
0.00307086
0.00306305
0.00305429
0.00304459
0.00303399
0.00302249
0.00301015
0.00299698
0.00298302
0.0029683
0.00295282
0.00293659
0.00291958
0.00290175
0.00288308
0.00286352
0.00284304
0.0028216
0.00279918
0.00277592
0.00275217
0.00272842
0.00270519
0.00268159
0.00265796
0.00263745
0.00261816
0.00259952
0.00258134
0.00256345
0.00254569
0.00252799
0.00251029
0.00249259
0.0024749
0.00245726
0.0024397
0.00242225
0.00240494
0.00238778
0.00237079
0.00309874
0.00310006
0.0031006
0.00309998
0.00309827
0.0030955
0.00309169
0.00308685
0.00308099
0.00307413
0.00306628
0.00305747
0.00304771
0.00303702
0.00302545
0.00301302
0.00299978
0.00298576
0.00297099
0.00295548
0.00293924
0.00292221
0.00290432
0.00288552
0.00286574
0.00284485
0.00282275
0.00279936
0.00277479
0.00274965
0.00272469
0.00270101
0.00267584
0.00264954
0.00262984
0.00261169
0.00259399
0.00257663
0.00255942
0.00254215
0.00252476
0.00250725
0.00248964
0.00247198
0.00245435
0.00243678
0.00241932
0.00240202
0.00238489
0.00236794
0.00310169
0.00310325
0.003104
0.00310354
0.00310194
0.00309926
0.00309551
0.00309069
0.00308482
0.00307793
0.00307003
0.00306113
0.00305126
0.00304046
0.00302877
0.00301624
0.0030029
0.00298879
0.00297394
0.0029584
0.00294216
0.00292512
0.00290714
0.00288815
0.00286805
0.00284671
0.00282396
0.00279954
0.00277339
0.0027467
0.00272093
0.00269819
0.00267055
0.00263756
0.00261954
0.00260322
0.00258672
0.00257054
0.00255441
0.00253793
0.002521
0.00250369
0.00248613
0.00246847
0.00245079
0.00243318
0.0024157
0.0023984
0.00238129
0.00236439
0.00310529
0.00310708
0.00310803
0.00310772
0.00310624
0.00310364
0.00309993
0.00309513
0.00308924
0.00308229
0.00307429
0.00306527
0.00305526
0.0030443
0.00303246
0.00301979
0.00300633
0.00299209
0.00297711
0.00296149
0.00294522
0.00292811
0.00290995
0.00289073
0.00287044
0.00284896
0.00282598
0.0028009
0.00277337
0.00274535
0.00272085
0.00270765
0.00267921
0.00262223
0.00260663
0.00259317
0.00257785
0.00256302
0.00254827
0.00253288
0.00251664
0.00249963
0.00248211
0.00246436
0.00244659
0.0024289
0.00241137
0.00239405
0.00237697
0.00236012
0.00310957
0.00311159
0.00311274
0.00311258
0.0031112
0.00310867
0.003105
0.00310019
0.00309427
0.00308723
0.0030791
0.00306991
0.00305971
0.00304855
0.00303651
0.00302366
0.00301004
0.00299558
0.0029803
0.00296445
0.00294809
0.00293092
0.00291259
0.00289336
0.00287338
0.00285235
0.00282949
0.00280385
0.0027762
0.00275117
0.00273608
0.00278131
0.0027928
0.00260819
0.00259394
0.00258432
0.00256932
0.0025555
0.00254187
0.00252729
0.00251162
0.00249498
0.00247754
0.00245968
0.00244173
0.0024239
0.00240629
0.00238894
0.00237188
0.00235509
0.0031146
0.00311683
0.00311817
0.00311814
0.00311686
0.0031144
0.00311075
0.00310593
0.00309994
0.00309278
0.00308449
0.00307508
0.00306462
0.00305319
0.00304088
0.00302779
0.00301393
0.00299905
0.00298311
0.00296693
0.00295064
0.00293355
0.00291513
0.00289628
0.0028773
0.00285728
0.0028347
0.00280924
0.00278467
0.00277132
0.00284605
0.00315028
0.00331867
0.00276435
0.00261373
0.00259065
0.00256922
0.00255225
0.00253781
0.0025227
0.00250659
0.00248971
0.00247223
0.00245428
0.00243613
0.0024181
0.00240038
0.002383
0.00236596
0.00234923
0.00312042
0.00312284
0.00312435
0.00312445
0.00312327
0.00312086
0.00311723
0.00311237
0.00310629
0.00309899
0.00309048
0.00308079
0.00306999
0.00305817
0.00304544
0.00303195
0.00301774
0.00300229
0.00298538
0.00296888
0.00295319
0.00293636
0.00291743
0.00289929
0.0028824
0.00286446
0.00284236
0.00282149
0.00281902
0.0029119
0.00320938
0.0066382
0.00804596
0.00303327
0.00273827
0.00263156
0.00258071
0.00255383
0.00253646
0.00251984
0.0025023
0.0024842
0.00246598
0.00244782
0.00242957
0.00241137
0.00239352
0.0023761
0.0023591
0.00234246
0.00312707
0.00312967
0.00313134
0.00313156
0.00313045
0.00312809
0.00312447
0.00311957
0.00311338
0.0031059
0.00309713
0.00308707
0.00307576
0.00306329
0.00304986
0.00303576
0.00302118
0.00300524
0.00298743
0.00297086
0.00295613
0.00294006
0.00292032
0.0029017
0.00288568
0.00287004
0.00285677
0.00286328
0.0029431
0.0032347
0.00687972
0.0114086
0.0115064
0.00713786
0.00305582
0.0027392
0.00260388
0.00256023
0.00253691
0.00251773
0.00249842
0.00247854
0.0024588
0.00243993
0.00242159
0.00240341
0.00238551
0.00236809
0.00235115
0.00233464
0.00313462
0.00313737
0.00313918
0.0031395
0.00313846
0.00313614
0.00313252
0.00312757
0.00312127
0.00311358
0.00310448
0.00309389
0.00308181
0.00306841
0.00305406
0.00303921
0.00302453
0.00300785
0.00298937
0.00297325
0.00295945
0.00294383
0.00292548
0.00290759
0.0028882
0.00287642
0.00285429
0.00284424
0.00286034
0.00296731
0.00334692
0.00739337
0.00972821
0.00323125
0.00281899
0.00266814
0.00258482
0.00255059
0.00253004
0.00251213
0.00249314
0.00247206
0.00245044
0.00243041
0.0024117
0.00239371
0.00237604
0.00235874
0.00234189
0.00232558
0.00314311
0.00314598
0.0031479
0.0031483
0.00314733
0.00314505
0.00314143
0.00313644
0.00313001
0.0031221
0.00311255
0.00310123
0.00308822
0.00307392
0.00305866
0.0030432
0.00302791
0.00301212
0.00299059
0.00298045
0.00296784
0.00294597
0.0029315
0.00290616
0.0028953
0.00298717
0.00285072
0.00285267
0.00283898
0.00283279
0.00290809
0.00329902
0.00345483
0.00294503
0.00267527
0.00261867
0.00257875
0.00254834
0.00252275
0.00250358
0.00248622
0.00246467
0.00244062
0.00241915
0.00239973
0.00238174
0.00236456
0.00234773
0.00233105
0.00231499
0.00315256
0.00315552
0.00315752
0.003158
0.00315709
0.00315485
0.00315125
0.00314623
0.00313971
0.00313152
0.00312141
0.00310932
0.00309562
0.00308074
0.0030648
0.00304835
0.00303041
0.00301231
0.00299131
0.00298281
0.00298006
0.00297311
0.00291652
0.00290003
0.00289461
0.00290172
0.0034187
0.00286851
0.00285824
0.00283967
0.0028218
0.00288033
0.00292415
0.00271956
0.00262369
0.00264525
0.00259366
0.00255134
0.00251108
0.00249036
0.0024786
0.00245645
0.0024284
0.00240565
0.00238551
0.00236717
0.00235034
0.0023345
0.00231836
0.00230249
0.00316301
0.00316602
0.00316807
0.0031686
0.00316775
0.00316557
0.00316201
0.00315701
0.00315043
0.00314197
0.00313138
0.00311893
0.00310518
0.00309035
0.00307411
0.00305619
0.00303464
0.0030107
0.00299244
0.00298171
0.00299653
0.00298577
0.00318365
0.00289648
0.00288545
0.0028948
0.00290504
0.00287594
0.00285164
0.00284293
0.00283266
0.00283544
0.00279086
0.00272865
0.0027009
0.00283811
0.00256905
0.00252647
0.00247885
0.00247853
0.00248019
0.00245414
0.0024142
0.00238893
0.00236843
0.00234974
0.00233286
0.00231798
0.00230344
0.00228771
0.00317444
0.00317745
0.00317952
0.0031801
0.00317932
0.00317722
0.00317376
0.00316884
0.00316225
0.00315364
0.00314298
0.00313089
0.00311798
0.00310433
0.00308922
0.00307115
0.00304867
0.00303016
0.00302399
0.00297163
0.00294966
0.0029669
0.00295409
0.00290533
0.00288725
0.00287703
0.00288066
0.0028647
0.00284975
0.00282824
0.00281125
0.00281635
0.00277226
0.00272126
0.00267081
0.00261228
0.00254735
0.00249268
0.0024803
0.00251946
0.00253023
0.00247753
0.00239914
0.00236754
0.00234743
0.0023287
0.00231171
0.00229719
0.00228505
0.0022706
0.00318682
0.00318979
0.00319186
0.00319248
0.00319178
0.0031898
0.00318648
0.00318172
0.00317525
0.00316675
0.00315656
0.00314549
0.00313421
0.00312271
0.00311021
0.00309549
0.0030913
0.0031013
0.00310578
0.00310339
0.0029459
0.00293289
0.00296033
0.00295534
0.00291173
0.00288509
0.00286123
0.00284718
0.00283067
0.00280729
0.00277652
0.00282737
0.00271086
0.00267397
0.00263844
0.00259488
0.00254315
0.00249911
0.00246145
0.00258967
0.00271567
0.00257201
0.00240499
0.00234329
0.0023279
0.00230619
0.00228728
0.0022723
0.00226136
0.00225082
0.00320008
0.00320299
0.00320504
0.00320571
0.0032051
0.00320327
0.00320015
0.00319562
0.00318939
0.00318131
0.00317195
0.00316229
0.00315293
0.00314394
0.00313484
0.00313093
0.00312467
0.00315089
0.00319272
0.00316157
0.00370896
0.00325413
0.00313438
0.00302999
0.00296859
0.00291516
0.00287575
0.00284684
0.00283047
0.00279279
0.00274339
0.00269658
0.00271653
0.00269436
0.00264485
0.00259834
0.0025634
0.00250864
0.00233389
0.00547962
0.00736722
0.00425595
0.00235885
0.00240107
0.00232655
0.00228963
0.00226252
0.00224456
0.00223222
0.00222558
0.00321414
0.00321697
0.00321901
0.00321972
0.00321924
0.00321757
0.00321469
0.00321046
0.0032046
0.0031971
0.00318872
0.00318045
0.00317282
0.00316599
0.00316259
0.00316829
0.00317302
0.00343569
0.00326975
0.00332908
0.00419477
0.00414978
0.00373698
0.00300865
0.00305684
0.00297935
0.00290179
0.00285687
0.00283879
0.00279915
0.00296398
0.00285759
0.00301592
0.0027315
0.0026456
0.00260643
0.00259771
0.00264979
0.00326638
0.00743649
0.00741862
0.00743543
0.00315336
0.00244553
0.00230915
0.00226142
0.00222991
0.00221102
0.00219806
0.00219196
0.00322892
0.00323167
0.00323369
0.00323448
0.00323412
0.00323265
0.00323003
0.00322614
0.00322071
0.00321383
0.0032063
0.00319901
0.00319233
0.00318669
0.00318516
0.00318133
0.003298
0.00326875
0.00329848
0.00537951
0.0104013
0.0108395
0.010234
0.0043149
0.00311058
0.00300359
0.00293523
0.00289071
0.00285117
0.00280405
0.00275165
0.00268188
0.00266116
0.00267019
0.00261132
0.00257422
0.00270273
0.0025723
0.00253012
0.00631369
0.00743733
0.00666997
0.00230744
0.0022718
0.00223289
0.00219565
0.00217723
0.00216556
0.00215609
0.00215082
0.00324432
0.00324702
0.00324904
0.0032499
0.00324969
0.00324842
0.00324607
0.00324253
0.00323756
0.00323127
0.00322437
0.00321759
0.00321122
0.00320547
0.00319956
0.00318306
0.00327925
0.00331215
0.00322506
0.0102094
0.0108755
0.0108286
0.0108157
0.00863032
0.00304756
0.00296915
0.002962
0.00301619
0.00284878
0.00281506
0.00274471
0.00276398
0.0030323
0.00327589
0.00268635
0.00253842
0.00253438
0.00249231
0.0024001
0.00262921
0.00354805
0.00257232
0.00294198
0.00223549
0.00216772
0.00212511
0.00211733
0.00211436
0.00210836
0.00210551
0.00326026
0.00326293
0.003265
0.00326595
0.00326589
0.00326483
0.00326274
0.00325954
0.00325502
0.00324928
0.00324296
0.00323679
0.00323103
0.00322666
0.00322252
0.00321813
0.00331217
0.0032945
0.00336552
0.0101573
0.0107834
0.0107962
0.0107991
0.00882233
0.00307175
0.00295814
0.00293359
0.00290427
0.00286193
0.0028084
0.00275645
0.00274999
0.00264238
0.00252372
0.00250421
0.00247784
0.00246212
0.00241309
0.00239274
0.00239443
0.00245459
0.00228071
0.00211486
0.0020638
0.00203968
0.00203947
0.00205376
0.00205568
0.00205257
0.00205432
0.00327666
0.00327937
0.0032815
0.00328258
0.00328267
0.0032818
0.00327996
0.00327707
0.00327295
0.00326764
0.00326172
0.00325593
0.00325085
0.00324747
0.00324482
0.00325834
0.00327686
0.00326944
0.00331557
0.00475585
0.0102055
0.0107325
0.0102106
0.00407143
0.00298875
0.00294774
0.00292027
0.00289477
0.00284903
0.00279901
0.00274771
0.00270058
0.002619
0.00252753
0.00249659
0.00251066
0.00245696
0.00240129
0.00235644
0.0023423
0.00232081
0.00223481
0.00218311
0.00210282
0.00232924
0.0020301
0.00197552
0.00199784
0.0019918
0.00199723
0.00329347
0.00329627
0.00329852
0.00329974
0.00329999
0.00329932
0.00329769
0.00329504
0.00329123
0.00328619
0.00328036
0.0032744
0.00326885
0.0032641
0.0032604
0.00326008
0.0032591
0.00324292
0.00326028
0.00327205
0.00369645
0.0034045
0.00344304
0.00311058
0.00304309
0.00293539
0.00290748
0.00287364
0.00283554
0.00279251
0.00273856
0.00268253
0.00261621
0.00251408
0.00248516
0.00273487
0.00240517
0.00238297
0.00233556
0.00229542
0.00225012
0.00219212
0.00213868
0.00208241
0.00203048
0.00200354
0.00224257
0.00196755
0.00190888
0.00193807
0.00331065
0.0033136
0.00331602
0.00331741
0.00331785
0.00331736
0.00331592
0.00331347
0.00330986
0.00330496
0.003299
0.00329251
0.00328589
0.00327931
0.00327314
0.00326571
0.00325557
0.00323241
0.00320098
0.00321769
0.00325918
0.00321175
0.00318216
0.00305557
0.00296978
0.00295507
0.0029162
0.00285403
0.00284196
0.00280562
0.00273472
0.00292972
0.0026067
0.00240745
0.00239091
0.00249139
0.00242676
0.00237738
0.00231751
0.00225998
0.00220106
0.00213996
0.00208234
0.00203887
0.00196955
0.00190103
0.00182513
0.00192142
0.00214207
0.00200127
0.00332819
0.00333135
0.003334
0.0033356
0.00333625
0.00333596
0.00333469
0.00333239
0.00332892
0.00332407
0.00331789
0.00331074
0.00330297
0.0032947
0.00328585
0.00327508
0.00326175
0.00323816
0.00321415
0.00321453
0.00322189
0.00320282
0.0031642
0.00308887
0.00302148
0.00300049
0.00318005
0.00321776
0.00311738
0.00282552
0.00274912
0.00269132
0.00268963
0.00215399
0.00230525
0.00250363
0.00243688
0.00234041
0.00228312
0.00221245
0.00213841
0.00208316
0.00201997
0.00195633
0.0019021
0.00186072
0.00180995
0.00189133
0.00183401
0.00194116
0.00334607
0.00334953
0.00335246
0.00335433
0.00335521
0.00335513
0.00335404
0.00335188
0.0033485
0.00334369
0.00333729
0.00332949
0.00332059
0.00331073
0.00329975
0.00328727
0.00327345
0.00326031
0.00324898
0.00323579
0.00323389
0.00321233
0.00335263
0.00311873
0.00309706
0.00301237
0.00292847
0.00284922
0.00284882
0.00282152
0.00286142
0.00324695
0.00653393
0.0146959
0.0117125
0.00508641
0.00249658
0.00231298
0.00223711
0.0021746
0.00242945
0.00206147
0.00198311
0.00190165
0.00181549
0.00170918
0.0016286
0.00178475
0.00190066
0.00200417
0.00336434
0.00336815
0.00337143
0.00337361
0.00337477
0.00337494
0.00337406
0.00337204
0.00336875
0.00336399
0.00335747
0.00334915
0.00333925
0.00332784
0.00331475
0.00330018
0.00328026
0.00326007
0.00325435
0.00326274
0.00324229
0.00321075
0.00316547
0.00311878
0.00307091
0.00302106
0.00294677
0.00289124
0.00285226
0.0028243
0.00272456
0.00747447
0.0122736
0.0133708
0.0131927
0.0122972
0.00461254
0.00221291
0.00217528
0.00208769
0.00204033
0.00227018
0.00192146
0.00184569
0.00174442
0.00156657
0.00132474
0.00233764
0.00266498
0.00287504
0.00338302
0.00338725
0.00339094
0.00339347
0.00339497
0.00339544
0.0033948
0.00339296
0.00338981
0.00338516
0.00337868
0.00337013
0.00335955
0.00334692
0.00333192
0.00331611
0.00329051
0.00325423
0.00398765
0.00330939
0.00325617
0.00322046
0.00320454
0.00312153
0.00366268
0.00305483
0.00297857
0.00291285
0.00286071
0.00280896
0.0026887
0.0100658
0.0132948
0.0133085
0.0132353
0.0131619
0.00753528
0.00219295
0.00210369
0.00204842
0.0019965
0.0019416
0.00187308
0.00181553
0.0017687
0.00169855
0.0034094
0.0135015
0.0146776
0.0137542
0.00340214
0.00340684
0.003411
0.00341396
0.00341584
0.00341665
0.00341632
0.00341474
0.0034118
0.00340733
0.00340107
0.0033927
0.00338206
0.00336919
0.003355
0.00333843
0.00331972
0.00334048
0.00330765
0.00329084
0.00325593
0.00320212
0.00337916
0.00312432
0.00310269
0.00306184
0.0029962
0.00293434
0.00288701
0.00286214
0.00293414
0.0094648
0.0131387
0.0132671
0.0132407
0.0131504
0.00683026
0.00226804
0.00213031
0.00201874
0.00198288
0.00187801
0.00182426
0.00178053
0.00176498
0.00182791
0.0117474
0.0146388
0.0143786
0.0139869
0.00342175
0.00342698
0.00343166
0.00343509
0.00343741
0.00343863
0.00343867
0.00343742
0.00343476
0.00343056
0.00342462
0.00341664
0.00340635
0.00339379
0.00337947
0.00336338
0.00335146
0.00333597
0.00332846
0.00386729
0.00326949
0.00321539
0.00316204
0.00312681
0.0031123
0.00344179
0.00299695
0.00293686
0.00288984
0.00285426
0.00278384
0.00520046
0.012218
0.0133828
0.013377
0.0126926
0.00366794
0.002062
0.00199903
0.00193986
0.00187752
0.00181309
0.00176048
0.00172135
0.00170953
0.00170039
0.0088714
0.014508
0.0142074
0.0141758
0.00344189
0.00344768
0.00345294
0.00345689
0.0034597
0.00346139
0.00346187
0.00346103
0.00345875
0.0034549
0.00344932
0.00344178
0.003432
0.00341979
0.00340527
0.00338878
0.00337107
0.00335239
0.00333185
0.00328085
0.00326164
0.00322847
0.00318511
0.00315333
0.0031081
0.00304683
0.00299898
0.0029425
0.00288857
0.00284183
0.00279996
0.00283328
0.00428961
0.0103905
0.00912132
0.00361983
0.00190107
0.00218276
0.00195796
0.00207946
0.0018196
0.00174641
0.00168323
0.00165526
0.00167321
0.00173478
0.00450199
0.0134698
0.0137678
0.0145261
0.00346258
0.00346897
0.00347484
0.00347936
0.00348272
0.00348494
0.00348593
0.00348559
0.00348378
0.00348037
0.00347521
0.00346812
0.00345887
0.00344716
0.0034328
0.00341578
0.00339676
0.00337439
0.00334535
0.0033192
0.00328218
0.00324894
0.00320895
0.00316687
0.00312183
0.0030668
0.00301094
0.00294899
0.00292039
0.00281676
0.00289694
0.00275981
0.0026776
0.00218518
0.00213016
0.00224715
0.00204963
0.00193339
0.00187797
0.00180421
0.00173397
0.00173668
0.00156919
0.00155182
0.00160406
0.00179273
0.0022938
0.00475085
0.00758884
0.0168699
0.00348385
0.00349086
0.00349739
0.00350253
0.00350649
0.0035093
0.00351088
0.00351111
0.00350986
0.003507
0.00350237
0.0034958
0.00348709
0.00347598
0.00346219
0.00344547
0.00342573
0.00340303
0.00337714
0.00334783
0.00331345
0.00327713
0.00323524
0.00319065
0.00314569
0.00309424
0.00302995
0.00296511
0.00289363
0.00283014
0.00275372
0.00268673
0.00257798
0.00252845
0.00225526
0.00221832
0.0020542
0.00193162
0.00182367
0.00174407
0.00173681
0.00150054
0.00141315
0.00136094
0.00136663
0.00151578
0.00216357
0.00394402
0.00550399
0.00513097
0.00350571
0.00351337
0.00352058
0.00352638
0.00353099
0.00353447
0.00353671
0.00353761
0.00353702
0.00353482
0.00353084
0.00352491
0.00351683
0.00350638
0.00349329
0.00347728
0.00345803
0.0034354
0.00340884
0.00337858
0.00334528
0.00330787
0.00326547
0.0032212
0.00319628
0.00312126
0.00305082
0.00298152
0.00290716
0.00282752
0.0027453
0.00265586
0.00252558
0.00231482
0.00223653
0.00217398
0.00203561
0.00189913
0.00177376
0.00164449
0.00149964
0.00136458
0.00122987
0.00109359
0.00091576
0.00146726
0.00262622
0.0019824
0.00787931
0.0137151
0.00352817
0.00353649
0.00354441
0.0035509
0.00355623
0.00356043
0.00356342
0.00356507
0.00356526
0.00356384
0.00356065
0.00355551
0.0035482
0.00353852
0.00352622
0.00351103
0.00349263
0.0034707
0.00344474
0.00341453
0.00338031
0.00334303
0.00330377
0.00326273
0.00319435
0.00313775
0.00307814
0.00300924
0.00293051
0.00284353
0.00274978
0.00264205
0.00252136
0.00237428
0.00225641
0.00214844
0.00201631
0.00187499
0.00172575
0.00156185
0.00140016
0.001222
0.0010341
0.000827458
0.000833908
0.00145333
-9.45523e-05
-0.00100909
-0.00356276
0.000653664
0.00355122
0.00356021
0.00356886
0.00357609
0.00358217
0.00358716
0.00359097
0.00359348
0.00359456
0.00359406
0.00359181
0.00358761
0.00358125
0.00357251
0.00356116
0.00354694
0.00352956
0.00350867
0.00348377
0.00345452
0.00342109
0.00338383
0.00334147
0.00329268
0.00323727
0.00317822
0.0031142
0.0030423
0.00296132
0.00287156
0.00277316
0.00266462
0.00254444
0.00240981
0.00228079
0.00215004
0.00200365
0.00184412
0.00168296
0.00162482
0.00129543
0.00108743
0.000864614
0.000606756
0.000200461
-4.35321e-05
9.93224e-05
-0.000837354
0.0131942
0.0283142
0.00357485
0.0035845
0.0035939
0.0036019
0.00360879
0.00361464
0.00361936
0.00362282
0.00362491
0.00362546
0.00362429
0.00362121
0.003616
0.00360842
0.00359823
0.00358517
0.00356895
0.00354929
0.00352581
0.00349817
0.00346603
0.00342898
0.00338647
0.00333768
0.00328321
0.0032232
0.0031571
0.00308328
0.0030007
0.00290906
0.0028083
0.0026974
0.00257558
0.00244178
0.00230442
0.00216044
0.00200145
0.00183031
0.00164776
0.00144588
0.00122382
0.000980485
0.000740365
0.000512548
0.000208943
-6.17742e-06
-0.000180965
-0.00101155
0.0299697
0.0309523
0.00359901
0.00360933
0.00361948
0.00362828
0.00363602
0.0036428
0.00364851
0.00365304
0.00365625
0.00365799
0.00365807
0.0036563
0.00365244
0.00364624
0.00363745
0.00362578
0.00361095
0.00359265
0.00357055
0.00354437
0.00351377
0.00347838
0.0034374
0.00338986
0.0033355
0.00327504
0.00320773
0.00313265
0.00304885
0.00295575
0.0028529
0.00273948
0.00261482
0.00247882
0.0023353
0.00218025
0.00201382
0.00182875
0.00164372
0.00141061
0.00111475
0.000992478
0.000843863
0.000498126
0.000138615
-0.000181342
-0.000448025
-0.00072705
0.0285956
0.0310156
0.00362367
0.00363464
0.00364556
0.00365517
0.00366382
0.00367158
0.00367836
0.00368405
0.00368851
0.00369159
0.00369309
0.00369281
0.00369051
0.00368594
0.0036788
0.00366883
0.0036557
0.00363909
0.00361864
0.00359395
0.00356467
0.00353047
0.00349098
0.0034457
0.00339404
0.00333498
0.00326757
0.0031914
0.00310648
0.00301209
0.00290731
0.00279133
0.00266366
0.0025262
0.00237407
0.00222103
0.00212766
0.00204058
0.00167655
0.0014161
0.00143931
0.0019201
0.000961435
0.000706947
7.50497e-05
-0.000364008
-0.000693999
-0.00113951
0.00908415
0.029185
0.00364875
0.00366036
0.00367204
0.0036825
0.00369208
0.00370088
0.00370882
0.00371577
0.00372161
0.00372617
0.00372926
0.00373068
0.00373016
0.00372745
0.00372226
0.0037143
0.00370326
0.00368878
0.00367046
0.00364784
0.00362048
0.0035879
0.00354964
0.00350522
0.00345449
0.00339737
0.00333309
0.00325953
0.00317479
0.00307866
0.00297196
0.00285366
0.00272457
0.00258251
0.00243723
0.00229568
0.00211095
0.00191253
0.0017534
0.00144261
0.00207521
0.00177873
0.00103206
0.000583511
-0.000210253
-0.000674027
-0.000960903
-0.00136396
-0.00191793
0.0034493
0.00367416
0.00368639
0.00369883
0.00371014
0.00372069
0.0037306
0.00373977
0.00374808
0.00375541
0.00376161
0.00376647
0.00376977
0.00377126
0.00377067
0.00376774
0.00376219
0.00375367
0.00374182
0.00372618
0.00370621
0.00368136
0.00365107
0.00361486
0.00357227
0.00352287
0.00346623
0.00340181
0.00332967
0.00324905
0.00315623
0.00304843
0.00292789
0.00279562
0.00265051
0.00249168
0.00231102
0.00215136
0.00196401
0.00178632
0.00164983
0.00145068
0.00112665
0.00193478
0.00644093
0.00172879
-0.000805097
-0.00107219
-0.0014559
-0.00181571
-0.0018867
0.0036998
0.00371262
0.00372579
0.00373797
0.00374953
0.00376059
0.00377106
0.00378084
0.00378979
0.00379776
0.00380456
0.00380993
0.00381366
0.0038155
0.00381519
0.00381246
0.00380697
0.0037983
0.00378593
0.00376923
0.00374748
0.00372005
0.00368651
0.00364633
0.00359902
0.00354414
0.00348111
0.00340928
0.00332785
0.00323712
0.003135
0.00301412
0.00287689
0.00272678
0.00256448
0.00239056
0.00221558
0.00204766
0.00183962
0.00197412
0.00177273
0.00143472
0.00641135
0.00663158
0.00589359
-0.000428488
-0.00100674
-0.00154484
-0.00209667
-0.0023133
0.00372552
0.00373889
0.0037528
0.00376584
0.00377843
0.00379069
0.00380254
0.00381387
0.00382457
0.00383446
0.00384333
0.00385098
0.0038572
0.00386179
0.00386451
0.00386507
0.00386313
0.00385825
0.00384982
0.00383703
0.00381898
0.00379494
0.00376463
0.00372741
0.00368275
0.00363034
0.00356957
0.0034996
0.00341944
0.00332813
0.00322519
0.00311041
0.00297401
0.00281822
0.00264571
0.0024601
0.00223493
0.00200146
0.0021232
0.00176054
0.00159331
0.00225032
0.00698825
0.00664196
0.0058757
-0.000500333
-0.00098019
-0.00193615
-0.0026132
-0.00304456
0.00375116
0.00376505
0.00377966
0.00379358
0.00380722
0.00382073
0.00383402
0.00384701
0.00385955
0.00387147
0.00388259
0.0038927
0.00390169
0.00390939
0.00391556
0.00391989
0.00392206
0.00392164
0.00391786
0.00390969
0.00389595
0.00387575
0.00384922
0.00381543
0.00377377
0.00372447
0.00366687
0.00359993
0.00352235
0.00343276
0.0033298
0.00321258
0.00308344
0.00293284
0.00274452
0.00254349
0.00231558
0.00219722
0.0018874
0.00162402
0.00131024
0.000790578
0.00556245
0.00719584
0.00155518
-0.001027
-0.00102691
-0.0023374
-0.00238093
-0.00304706
0.00234978
0.00233265
0.00231577
0.00229917
0.00228289
0.00226694
0.00225135
0.00223617
0.00222142
0.00220716
0.0021934
0.00218016
0.00216741
0.0021551
0.00214315
0.00213145
0.00211985
0.00210817
0.00209617
0.00208365
0.00207044
0.00205652
0.00204195
0.00202687
0.00201145
0.00199583
0.00198017
0.00196458
0.00194916
0.00193396
0.00191903
0.00190439
0.00189005
0.001876
0.00186223
0.00184873
0.00183549
0.00182251
0.00180984
0.00179752
0.00178559
0.0017741
0.00176308
0.00175255
0.00174254
0.00173304
0.00172404
0.00171564
0.00170821
0.00170268
0.0023529
0.00233588
0.00231909
0.00230256
0.00228631
0.00227036
0.00225474
0.00223948
0.00222461
0.00221016
0.00219614
0.00218256
0.00216937
0.00215654
0.002144
0.00213166
0.00211939
0.00210705
0.00209446
0.00208143
0.00206785
0.00205369
0.002039
0.00202388
0.00200846
0.00199284
0.00197716
0.00196151
0.00194597
0.00193061
0.00191547
0.00190058
0.00188597
0.00187164
0.00185759
0.00184381
0.00183031
0.00181711
0.00180424
0.00179175
0.00177967
0.00176803
0.00175688
0.00174626
0.00173619
0.0017267
0.00171783
0.0017097
0.00170254
0.00169702
0.00235554
0.0023386
0.00232189
0.00230541
0.00228918
0.00227323
0.00225756
0.00224221
0.0022272
0.00221255
0.00219826
0.00218432
0.00217072
0.00215739
0.00214431
0.00213139
0.00211853
0.00210562
0.00209252
0.00207907
0.00206514
0.00205071
0.00203582
0.00202058
0.00200506
0.00198937
0.00197359
0.00195781
0.00194212
0.00192656
0.00191118
0.00189604
0.00188115
0.00186652
0.00185216
0.00183809
0.00182432
0.00181087
0.00179779
0.0017851
0.00177283
0.00176102
0.00174972
0.00173897
0.0017288
0.00171928
0.00171047
0.00170242
0.00169516
0.00168926
0.00235721
0.00234034
0.00232367
0.00230722
0.00229099
0.00227502
0.00225929
0.00224385
0.0022287
0.00221385
0.00219931
0.00218506
0.00217108
0.00215735
0.00214382
0.00213044
0.00211714
0.00210384
0.00209041
0.00207668
0.00206247
0.00204774
0.00203259
0.00201712