/*--------------------------------*- C++ -*----------------------------------*\
| =========                 |                                                 |
| \\      /  F ield         | OpenFOAM: The Open Source CFD Toolbox           |
|  \\    /   O peration     | Version:  2.4.0                                 |
|   \\  /    A nd           | Web:      www.OpenFOAM.org                      |
|    \\/     M anipulation  |                                                 |
\*---------------------------------------------------------------------------*/
FoamFile
{
    version     2.0;
    format      ascii;
    class       volVectorField;
    location    "0.31";
    object      U;
}
// * * * * * * * * * * * * * * * * * * * * * * * * * * * * * * * * * * * * * //

dimensions      [0 1 -1 0 0 0 0];

internalField   nonuniform List<vector> 
10000
(
(-8.37203e-09 1.41057e-08 0)
(1.23569e-08 -3.80882e-08 0)
(4.6353e-07 -2.43767e-07 0)
(1.81899e-06 -4.98012e-07 0)
(4.35043e-06 -7.38327e-07 0)
(7.91167e-06 -9.34995e-07 0)
(1.22255e-05 -1.07342e-06 0)
(1.70088e-05 -1.14986e-06 0)
(2.20023e-05 -1.16797e-06 0)
(2.69679e-05 -1.13555e-06 0)
(3.16889e-05 -1.06151e-06 0)
(3.59792e-05 -9.54443e-07 0)
(3.96934e-05 -8.23048e-07 0)
(4.27314e-05 -6.76389e-07 0)
(4.5041e-05 -5.23519e-07 0)
(4.66156e-05 -3.73675e-07 0)
(4.74899e-05 -2.36449e-07 0)
(4.7727e-05 -1.18336e-07 0)
(4.74228e-05 -1.50155e-08 0)
(4.66877e-05 6.72362e-08 0)
(4.56206e-05 1.29734e-07 0)
(4.43056e-05 1.79448e-07 0)
(4.2793e-05 2.26186e-07 0)
(4.10862e-05 2.82278e-07 0)
(3.91334e-05 3.6064e-07 0)
(3.68248e-05 4.7325e-07 0)
(3.40012e-05 6.28989e-07 0)
(3.04713e-05 8.3138e-07 0)
(2.60391e-05 1.07709e-06 0)
(2.05365e-05 1.35556e-06 0)
(1.3855e-05 1.65018e-06 0)
(5.97063e-06 1.93947e-06 0)
(-3.03756e-06 2.19881e-06 0)
(-1.29754e-05 2.40088e-06 0)
(-2.35405e-05 2.52232e-06 0)
(-3.43753e-05 2.55898e-06 0)
(-4.51427e-05 2.52256e-06 0)
(-5.5583e-05 2.43529e-06 0)
(-6.55432e-05 2.32352e-06 0)
(-7.49817e-05 2.21227e-06 0)
(-8.39547e-05 2.12157e-06 0)
(-9.25914e-05 2.06455e-06 0)
(-0.000101066 2.04723e-06 0)
(-0.000109569 2.06957e-06 0)
(-0.000118284 2.12705e-06 0)
(-0.000127368 2.21241e-06 0)
(-0.000136941 2.3171e-06 0)
(-0.000147081 2.43236e-06 0)
(-0.000157822 2.54993e-06 0)
(-0.000169169 2.66258e-06 0)
(-6.27544e-08 1.10643e-07 0)
(-4.54167e-09 -2.09364e-07 0)
(1.43069e-06 -1.67663e-06 0)
(5.16642e-06 -3.75469e-06 0)
(1.15538e-05 -5.81127e-06 0)
(2.03221e-05 -7.49516e-06 0)
(3.09136e-05 -8.6826e-06 0)
(4.26832e-05 -9.35585e-06 0)
(5.49915e-05 -9.53703e-06 0)
(6.72341e-05 -9.26849e-06 0)
(7.88579e-05 -8.60765e-06 0)
(8.93845e-05 -7.62478e-06 0)
(9.84327e-05 -6.4008e-06 0)
(0.000105734 -5.02373e-06 0)
(0.000111143 -3.58333e-06 0)
(0.000114632 -2.16676e-06 0)
(0.000116287 -8.51937e-07 0)
(0.00011629 3.00864e-07 0)
(0.000114886 1.26134e-06 0)
(0.000112357 2.01466e-06 0)
(0.000108985 2.5814e-06 0)
(0.000105006 3.01475e-06 0)
(0.000100573 3.3956e-06 0)
(9.57192e-05 3.82512e-06 0)
(9.03427e-05 4.41218e-06 0)
(8.41981e-05 5.25823e-06 0)
(7.69181e-05 6.43915e-06 0)
(6.80571e-05 7.98766e-06 0)
(5.71577e-05 9.88044e-06 0)
(4.38288e-05 1.20346e-05 0)
(2.78204e-05 1.43144e-05 0)
(9.08322e-06 1.65431e-05 0)
(-1.21929e-05 1.85164e-05 0)
(-3.55495e-05 2.0019e-05 0)
(-6.02678e-05 2.08812e-05 0)
(-8.54998e-05 2.10707e-05 0)
(-0.000110456 2.06811e-05 0)
(-0.000134538 1.98917e-05 0)
(-0.00015741 1.89167e-05 0)
(-0.000179008 1.7961e-05 0)
(-0.000199502 1.71902e-05 0)
(-0.000219235 1.67156e-05 0)
(-0.00023865 1.65924e-05 0)
(-0.000258224 1.68272e-05 0)
(-0.000278412 1.73886e-05 0)
(-0.000299603 1.82201e-05 0)
(-0.000322102 1.92504e-05 0)
(-0.000346119 2.04028e-05 0)
(-0.000371769 2.16027e-05 0)
(-0.000399086 2.27837e-05 0)
(8.40746e-08 -8.52967e-08 0)
(1.12882e-06 -1.42558e-06 0)
(4.69944e-06 -5.24429e-06 0)
(1.18029e-05 -1.04551e-05 0)
(2.26395e-05 -1.56025e-05 0)
(3.67704e-05 -1.98386e-05 0)
(5.34399e-05 -2.28503e-05 0)
(7.17628e-05 -2.45763e-05 0)
(9.08298e-05 -2.50487e-05 0)
(0.000109758 -2.43511e-05 0)
(0.000127731 -2.26131e-05 0)
(0.000144035 -2.00092e-05 0)
(0.000158098 -1.67505e-05 0)
(0.000169514 -1.30723e-05 0)
(0.000178056 -9.21776e-06 0)
(0.000183683 -5.42259e-06 0)
(0.000186523 -1.89624e-06 0)
(0.000186857 1.19612e-06 0)
(0.000185071 3.74695e-06 0)
(0.000181611 5.72584e-06 0)
(0.000176932 7.18385e-06 0)
(0.000171422 8.25469e-06 0)
(0.000165349 9.14518e-06 0)
(0.000158807 1.01152e-05 0)
(0.000151681 1.14469e-05 0)
(0.000143643 1.3405e-05 0)
(0.000134174 1.619e-05 0)
(0.000122627 1.98923e-05 0)
(0.000108333 2.44578e-05 0)
(9.07098e-05 2.96784e-05 0)
(6.93838e-05 3.52113e-05 0)
(4.42669e-05 4.06107e-05 0)
(1.56107e-05 4.53653e-05 0)
(-1.59397e-05 4.89302e-05 0)
(-4.93142e-05 5.08758e-05 0)
(-8.32336e-05 5.11371e-05 0)
(-0.000116542 4.99718e-05 0)
(-0.000148401 4.78496e-05 0)
(-0.000178382 4.53205e-05 0)
(-0.000206467 4.29027e-05 0)
(-0.000232982 4.10088e-05 0)
(-0.000258492 3.99107e-05 0)
(-0.000283691 3.97387e-05 0)
(-0.000309305 4.05016e-05 0)
(-0.000336013 4.21163e-05 0)
(-0.000364395 4.44384e-05 0)
(-0.000394904 4.72889e-05 0)
(-0.000427858 5.04769e-05 0)
(-0.000463445 5.38168e-05 0)
(-0.000501727 5.7142e-05 0)
(3.56938e-07 -1.14313e-06 0)
(3.19794e-06 -4.91391e-06 0)
(9.88235e-06 -1.22554e-05 0)
(2.12192e-05 -2.16023e-05 0)
(3.71546e-05 -3.07083e-05 0)
(5.7042e-05 -3.82027e-05 0)
(7.99366e-05 -4.35395e-05 0)
(0.000104759 -4.65825e-05 0)
(0.000130393 -4.7363e-05 0)
(0.000155742 -4.60101e-05 0)
(0.000179784 -4.27437e-05 0)
(0.000201618 -3.78728e-05 0)
(0.00022052 -3.17815e-05 0)
(0.00023597 -2.49041e-05 0)
(0.000247681 -1.76955e-05 0)
(0.000255601 -1.05982e-05 0)
(0.000259903 -4.00894e-06 0)
(0.000260959 1.75426e-06 0)
(0.000259294 6.48257e-06 0)
(0.000255521 1.01056e-05 0)
(0.000250268 1.2706e-05 0)
(0.000244093 1.45214e-05 0)
(0.000237402 1.59281e-05 0)
(0.000230376 1.74046e-05 0)
(0.000222925 1.94777e-05 0)
(0.000214666 2.26494e-05 0)
(0.000204947 2.73088e-05 0)
(0.000192926 3.36423e-05 0)
(0.000177706 4.15654e-05 0)
(0.000158499 5.07027e-05 0)
(0.000134778 6.04329e-05 0)
(0.000106383 6.99517e-05 0)
(7.35593e-05 7.83394e-05 0)
(3.70734e-05 8.45645e-05 0)
(-1.61693e-06 8.77741e-05 0)
(-4.07236e-05 8.7884e-05 0)
(-7.8707e-05 8.54274e-05 0)
(-0.000114526 8.13162e-05 0)
(-0.000147731 7.6584e-05 0)
(-0.000178426 7.21832e-05 0)
(-0.000207155 6.88536e-05 0)
(-0.000234746 6.70689e-05 0)
(-0.000262166 6.70415e-05 0)
(-0.000290387 6.87649e-05 0)
(-0.000320298 7.20704e-05 0)
(-0.000352647 7.66845e-05 0)
(-0.000388015 8.22774e-05 0)
(-0.000426804 8.85025e-05 0)
(-0.000469249 9.50254e-05 0)
(-0.000515427 0.000101544 0)
(6.36106e-07 -3.33666e-06 0)
(5.57365e-06 -1.12204e-05 0)
(1.58144e-05 -2.33127e-05 0)
(3.17659e-05 -3.76898e-05 0)
(5.3063e-05 -5.14086e-05 0)
(7.88295e-05 -6.2627e-05 0)
(0.000107926 -7.05772e-05 0)
(0.000139091 -7.50415e-05 0)
(0.000171027 -7.60435e-05 0)
(0.00020246 -7.37598e-05 0)
(0.000232196 -6.85137e-05 0)
(0.000259182 -6.07723e-05 0)
(0.000282562 -5.11257e-05 0)
(0.000301723 -4.02491e-05 0)
(0.000316327 -2.88559e-05 0)
(0.000326318 -1.76461e-05 0)
(0.000331917 -7.25378e-06 0)
(0.000333593 1.80576e-06 0)
(0.000332011 9.18537e-06 0)
(0.000327965 1.47507e-05 0)
(0.000322279 1.86099e-05 0)
(0.000315709 2.11204e-05 0)
(0.000308829 2.2864e-05 0)
(0.000301948 2.45947e-05 0)
(0.000295031 2.71587e-05 0)
(0.000287659 3.1381e-05 0)
(0.000279043 3.79222e-05 0)
(0.000268107 4.71233e-05 0)
(0.000253663 5.88819e-05 0)
(0.000234651 7.26138e-05 0)
(0.000210352 8.73496e-05 0)
(0.000180492 0.000101853 0)
(0.00014522 0.000114723 0)
(0.000105324 0.000124223 0)
(6.2793e-05 0.000128764 0)
(2.01701e-05 0.000128305 0)
(-2.05367e-05 0.00012384 0)
(-5.81051e-05 0.000116933 0)
(-9.21437e-05 0.000109276 0)
(-0.000122981 0.000102379 0)
(-0.00015147 9.73739e-05 0)
(-0.000178777 9.49538e-05 0)
(-0.000206175 9.53952e-05 0)
(-0.000234902 9.86375e-05 0)
(-0.000266052 0.000104379 0)
(-0.000300525 0.000112168 0)
(-0.000339003 0.000121478 0)
(-0.000381947 0.000131765 0)
(-0.000429609 0.000142512 0)
(-0.000482047 0.000153247 0)
(8.83891e-07 -6.75782e-06 0)
(7.89696e-06 -2.04751e-05 0)
(2.17437e-05 -3.85487e-05 0)
(4.2358e-05 -5.88203e-05 0)
(6.90256e-05 -7.77376e-05 0)
(0.000100624 -9.30474e-05 0)
(0.000135808 -0.000103792 0)
(0.00017313 -0.000109685 0)
(0.000211119 -0.000110744 0)
(0.000248332 -0.000107201 0)
(0.000283418 -9.94936e-05 0)
(0.000315181 -8.82674e-05 0)
(0.000342646 -7.43473e-05 0)
(0.000365112 -5.86864e-05 0)
(0.00038219 -4.22998e-05 0)
(0.000393825 -2.61932e-05 0)
(0.000400286 -1.12872e-05 0)
(0.000402145 1.6567e-06 0)
(0.000400223 1.21088e-05 0)
(0.000395513 1.98383e-05 0)
(0.000389075 2.49652e-05 0)
(0.000381899 2.79756e-05 0)
(0.000374781 2.96918e-05 0)
(0.000368199 3.12021e-05 0)
(0.000362216 3.37588e-05 0)
(0.000356401 3.86213e-05 0)
(0.000349803 4.68402e-05 0)
(0.000341038 5.90045e-05 0)
(0.000328515 7.50205e-05 0)
(0.000310802 9.40339e-05 0)
(0.000286933 0.000114636 0)
(0.000256528 0.00013509 0)
(0.0002195 0.000153533 0)
(0.000176415 0.000167172 0)
(0.000130096 0.000173024 0)
(8.43504e-05 0.000171286 0)
(4.17681e-05 0.000163762 0)
(3.69183e-06 0.000152975 0)
(-2.96801e-05 0.000141503 0)
(-5.90479e-05 0.000131544 0)
(-8.57085e-05 0.00012467 0)
(-0.000111253 0.00012178 0)
(-0.000137319 0.000123163 0)
(-0.000165424 0.000128637 0)
(-0.000196861 0.0001377 0)
(-0.000232657 0.000149661 0)
(-0.000273562 0.000163746 0)
(-0.000320058 0.000179173 0)
(-0.000372377 0.000195203 0)
(-0.000430526 0.000211166 0)
(1.10634e-06 -1.13519e-05 0)
(1.00812e-05 -3.26081e-05 0)
(2.7429e-05 -5.78955e-05 0)
(5.2629e-05 -8.49329e-05 0)
(8.4603e-05 -0.000109632 0)
(0.000121967 -0.000129379 0)
(0.00016316 -0.000143063 0)
(0.000206538 -0.000150345 0)
(0.000250449 -0.000151253 0)
(0.000293281 -0.000146079 0)
(0.000333521 -0.000135389 0)
(0.000369827 -0.000120025 0)
(0.000401098 -0.000101076 0)
(0.000426539 -7.9806e-05 0)
(0.000445706 -5.7577e-05 0)
(0.000458535 -3.57487e-05 0)
(0.000465344 -1.5582e-05 0)
(0.00046681 1.86017e-06 0)
(0.000463922 1.58107e-05 0)
(0.000457904 2.5896e-05 0)
(0.000450091 3.22235e-05 0)
(0.000441769 3.54133e-05 0)
(0.000434005 3.65594e-05 0)
(0.000427515 3.71453e-05 0)
(0.000422521 3.89308e-05 0)
(0.000418617 4.3757e-05 0)
(0.000414673 5.32395e-05 0)
(0.000408896 6.83678e-05 0)
(0.000399108 8.91062e-05 0)
(0.000383349 0.000114213 0)
(0.000360382 0.000141683 0)
(0.00032986 0.000169207 0)
(0.000291248 0.000194755 0)
(0.000244251 0.000213945 0)
(0.000193122 0.000220895 0)
(0.000143937 0.000216665 0)
(9.98921e-05 0.000204518 0)
(6.22529e-05 0.000188389 0)
(3.07862e-05 0.000172009 0)
(4.20074e-06 0.000158385 0)
(-1.94134e-05 0.000149544 0)
(-4.21825e-05 0.000146522 0)
(-6.61572e-05 0.000149527 0)
(-9.31367e-05 0.000158152 0)
(-0.000124587 0.000171604 0)
(-0.000161619 0.000188881 0)
(-0.000205005 0.000208905 0)
(-0.000255202 0.000230616 0)
(-0.000312381 0.00025302 0)
(-0.000376454 0.000275219 0)
(1.31326e-06 -1.70311e-05 0)
(1.2147e-05 -4.75029e-05 0)
(3.28773e-05 -8.12482e-05 0)
(6.2573e-05 -0.000115946 0)
(9.97992e-05 -0.000147033 0)
(0.000142905 -0.00017158 0)
(0.000190102 -0.00018835 0)
(0.000239545 -0.000196977 0)
(0.00028939 -0.000197506 0)
(0.000337843 -0.000190303 0)
(0.00038322 -0.000176073 0)
(0.000424015 -0.000155872 0)
(0.000458985 -0.000131078 0)
(0.00048722 -0.000103304 0)
(0.000508205 -7.43018e-05 0)
(0.000521853 -4.58378e-05 0)
(0.000528521 -1.95715e-05 0)
(0.000528983 3.06911e-06 0)
(0.000524402 2.10097e-05 0)
(0.000516261 3.36677e-05 0)
(0.000506228 4.10999e-05 0)
(0.000495938 4.40595e-05 0)
(0.000486796 4.39393e-05 0)
(0.000479833 4.26692e-05 0)
(0.000475528 4.26258e-05 0)
(0.000473583 4.64221e-05 0)
(0.000472707 5.64981e-05 0)
(0.000470572 7.45008e-05 0)
(0.000464132 0.000100552 0)
(0.000450643 0.000132786 0)
(0.000428592 0.000168278 0)
(0.00039818 0.000204002 0)
(0.00035816 0.000238844 0)
(0.000305768 0.000266056 0)
(0.000247885 0.000273362 0)
(0.00019484 0.000264515 0)
(0.000150044 0.000245443 0)
(0.000114185 0.000222063 0)
(8.61968e-05 0.000199515 0)
(6.39038e-05 0.000181686 0)
(4.45859e-05 0.000170991 0)
(2.54808e-05 0.000168468 0)
(4.10467e-06 0.000174079 0)
(-2.15922e-05 0.000187051 0)
(-5.31866e-05 0.000206188 0)
(-9.18074e-05 0.000230098 0)
(-0.000138184 0.000257351 0)
(-0.000192692 0.000286572 0)
(-0.000255397 0.000316481 0)
(-0.000326082 0.000345923 0)
(1.50955e-06 -2.37302e-05 0)
(1.41292e-05 -6.50597e-05 0)
(3.81528e-05 -0.000108519 0)
(7.2276e-05 -0.000151804 0)
(0.000114727 -0.000189922 0)
(0.000163592 -0.000219667 0)
(0.000216857 -0.000239703 0)
(0.000272468 -0.000249649 0)
(0.000328383 -0.000249584 0)
(0.000382614 -0.000239949 0)
(0.000433283 -0.000221597 0)
(0.000478697 -0.000195816 0)
(0.000517443 -0.000164294 0)
(0.000548467 -0.000129029 0)
(0.000571154 -9.22114e-05 0)
(0.000585375 -5.60687e-05 0)
(0.000591495 -2.27206e-05 0)
(0.00059037 5.96906e-06 0)
(0.00058332 2.85303e-05 0)
(0.000572111 4.40744e-05 0)
(0.000558802 5.25505e-05 0)
(0.000545441 5.4844e-05 0)
(0.000533822 5.26636e-05 0)
(0.000525373 4.84044e-05 0)
(0.000520985 4.51534e-05 0)
(0.000520632 4.65247e-05 0)
(0.000522954 5.61583e-05 0)
(0.000524988 7.68085e-05 0)
(0.000522383 0.000108998 0)
(0.00051113 0.000149768 0)
(0.000489345 0.000194578 0)
(0.000459177 0.000239104 0)
(0.000418548 0.000286295 0)
(0.000358463 0.000326176 0)
(0.00029091 0.000331619 0)
(0.000234339 0.000314391 0)
(0.000190724 0.000285132 0)
(0.00015911 0.000252192 0)
(0.000137041 0.000222215 0)
(0.000121123 0.000199913 0)
(0.000107645 0.000187893 0)
(9.31581e-05 0.000186955 0)
(7.47929e-05 0.000196582 0)
(5.0346e-05 0.000215451 0)
(1.82398e-05 0.00024184 0)
(-2.25724e-05 0.000273899 0)
(-7.2697e-05 0.000309807 0)
(-0.000132371 0.000347847 0)
(-0.000201512 0.000386434 0)
(-0.000279738 0.00042413 0)
(1.69826e-06 -3.14108e-05 0)
(1.60538e-05 -8.52065e-05 0)
(4.33094e-05 -0.000139645 0)
(8.18139e-05 -0.000192473 0)
(0.000129484 -0.000238312 0)
(0.000184159 -0.000273706 0)
(0.000243607 -0.000297239 0)
(0.000305569 -0.000308532 0)
(0.0003678 -0.000307694 0)
(0.000428106 -0.000295247 0)
(0.000484392 -0.000272191 0)
(0.000534749 -0.000240053 0)
(0.000577552 -0.000200853 0)
(0.000611566 -0.000157012 0)
(0.000636039 -0.000111206 0)
(0.00065076 -6.61813e-05 0)
(0.000656076 -2.45791e-05 0)
(0.000652871 1.1231e-05 0)
(0.000642577 3.92726e-05 0)
(0.000627253 5.82014e-05 0)
(0.000609421 6.77798e-05 0)
(0.000591598 6.90404e-05 0)
(0.000575967 6.4019e-05 0)
(0.000564429 5.55153e-05 0)
(0.000558499 4.73551e-05 0)
(0.000558715 4.43929e-05 0)
(0.000563903 5.1976e-05 0)
(0.000570468 7.47557e-05 0)
(0.00057215 0.000114349 0)
(0.000562727 0.000165826 0)
(0.000539336 0.000221496 0)
(0.000509212 0.000273341 0)
(0.000470123 0.000336845 0)
(0.000398871 0.000399033 0)
(0.000317689 0.000396385 0)
(0.00026021 0.000364262 0)
(0.000222147 0.000320598 0)
(0.000199083 0.000275687 0)
(0.000186621 0.000237394 0)
(0.000179903 0.000210977 0)
(0.000174145 0.000198882 0)
(0.000165288 0.000201288 0)
(0.000150239 0.000216897 0)
(0.000126829 0.000243632 0)
(9.36533e-05 0.000279136 0)
(4.98816e-05 0.000321054 0)
(-4.88077e-06 0.000367163 0)
(-7.06819e-05 0.000415403 0)
(-0.000147259 0.000463878 0)
(-0.000234048 0.000510843 0)
(1.88237e-06 -4.00505e-05 0)
(1.79377e-05 -0.000107892 0)
(4.83784e-05 -0.000174576 0)
(9.12298e-05 -0.000237936 0)
(0.000144125 -0.000292236 0)
(0.000204681 -0.000333795 0)
(0.000270466 -0.000361136 0)
(0.00033903 -0.00037388 0)
(0.000407928 -0.000372167 0)
(0.000474748 -0.000356584 0)
(0.000537161 -0.000328271 0)
(0.000593 -0.000288989 0)
(0.000640385 -0.000241109 0)
(0.000677844 -0.000187509 0)
(0.000704437 -0.0001314 0)
(0.000719832 -7.611e-05 0)
(0.000724315 -2.48532e-05 0)
(0.000718724 1.94442e-05 0)
(0.00070449 5.41671e-05 0)
(0.00068395 7.72716e-05 0)
(0.000660206 8.82251e-05 0)
(0.000636284 8.82907e-05 0)
(0.00061464 7.98595e-05 0)
(0.000597647 6.59121e-05 0)
(0.000587737 5.08963e-05 0)
(0.000586438 4.11029e-05 0)
(0.000593225 4.41541e-05 0)
(0.000604274 6.78267e-05 0)
(0.000610967 0.000116662 0)
(0.000603087 0.000182755 0)
(0.00057415 0.000252223 0)
(0.000542394 0.000303785 0)
(0.000508567 0.000387415 0)
(0.000421042 0.000493643 0)
(0.000322128 0.000466307 0)
(0.000271358 0.000408996 0)
(0.000246998 0.00034644 0)
(0.000239071 0.000287725 0)
(0.000241204 0.000241233 0)
(0.000247084 0.000212247 0)
(0.000250996 0.000202433 0)
(0.000248569 0.000210848 0)
(0.000236825 0.000235069 0)
(0.000213932 0.000272078 0)
(0.000178888 0.000318823 0)
(0.000131228 0.000372457 0)
(7.08491e-05 0.000430388 0)
(-2.07123e-06 0.000490251 0)
(-8.70909e-05 0.000549843 0)
(-0.000183463 0.000607099 0)
(2.06421e-06 -4.96328e-05 0)
(1.97885e-05 -0.000133076 0)
(5.33674e-05 -0.000213273 0)
(0.000100528 -0.000288179 0)
(0.000158651 -0.000351735 0)
(0.000225163 -0.000400058 0)
(0.000297467 -0.000431617 0)
(0.00037294 -0.000446034 0)
(0.000448955 -0.000443458 0)
(0.000522882 -0.000424518 0)
(0.000592133 -0.000390467 0)
(0.000654249 -0.000343284 0)
(0.000707032 -0.000285692 0)
(0.000748704 -0.000221056 0)
(0.000778073 -0.000153191 0)
(0.00079464 -8.60677e-05 0)
(0.000798598 -2.3512e-05 0)
(0.000790636 3.10091e-05 0)
(0.000771961 7.41009e-05 0)
(0.000745142 0.000102578 0)
(0.000714073 0.000115474 0)
(0.000682318 0.000114564 0)
(0.000652237 0.000102715 0)
(0.000626502 8.2526e-05 0)
(0.000608857 5.86931e-05 0)
(0.00060235 3.90668e-05 0)
(0.000607651 3.40135e-05 0)
(0.000621795 5.57846e-05 0)
(0.000635395 0.000114976 0)
(0.000631849 0.000202857 0)
(0.000591705 0.000295686 0)
(0.000551388 0.000327456 0)
(0.000522838 0.000431086 0)
(0.000412229 0.000624125 0)
(0.00029711 0.000534035 0)
(0.000269738 0.000438304 0)
(0.000272225 0.000354142 0)
(0.00028828 0.000281622 0)
(0.000310744 0.000229052 0)
(0.000332441 0.000200936 0)
(0.00034732 0.000197293 0)
(0.000351345 0.000215454 0)
(0.00034219 0.000251582 0)
(0.000318752 0.000301626 0)
(0.000280683 0.000361887 0)
(0.000228012 0.000429129 0)
(0.000160971 0.000500497 0)
(7.9949e-05 0.000573388 0)
(-1.44682e-05 0.000645329 0)
(-0.000121395 0.00071391 0)
(2.24448e-06 -6.01409e-05 0)
(2.1602e-05 -0.000160713 0)
(5.82544e-05 -0.000255683 0)
(0.00010966 -0.000343177 0)
(0.000172988 -0.000416844 0)
(0.000245516 -0.000472625 0)
(0.00032452 -0.000508943 0)
(0.00040725 -0.000525407 0)
(0.000490918 -0.000522147 0)
(0.000572692 -0.000499793 0)
(0.000649718 -0.000459656 0)
(0.0007192 -0.000403894 0)
(0.000778554 -0.000335563 0)
(0.000825601 -0.000258546 0)
(0.000858806 -0.000177335 0)
(0.000877448 -9.66404e-05 0)
(0.000881641 -2.09309e-05 0)
(0.000871818 4.59662e-05 0)
(0.000848567 9.98032e-05 0)
(0.000814579 0.000135355 0)
(0.000774966 0.000151061 0)
(0.000733857 0.000149988 0)
(0.000692679 0.000135856 0)
(0.000653979 0.000109501 0)
(0.000623494 7.51132e-05 0)
(0.000606431 4.2344e-05 0)
(0.000604657 2.47907e-05 0)
(0.000616861 3.96328e-05 0)
(0.000638704 0.000103917 0)
(0.000651254 0.000219923 0)
(0.000605378 0.000365271 0)
(0.000538798 0.000358435 0)
(0.000479871 0.000477359 0)
(0.000336695 0.000798806 0)
(0.000234937 0.000577251 0)
(0.000262187 0.000430666 0)
(0.000311696 0.00032916 0)
(0.000362655 0.000248303 0)
(0.000410375 0.000195986 0)
(0.000449054 0.000175142 0)
(0.000474063 0.000183358 0)
(0.000482868 0.000215976 0)
(0.000474379 0.000267741 0)
(0.000448541 0.000333668 0)
(0.000405838 0.000409633 0)
(0.000346834 0.000492227 0)
(0.000272052 0.000578509 0)
(0.000182012 0.000665754 0)
(7.73461e-05 0.000751256 0)
(-4.1014e-05 0.000832237 0)
(2.42154e-06 -7.15525e-05 0)
(2.33578e-05 -0.000190742 0)
(6.298e-05 -0.000301728 0)
(0.000118515 -0.000402865 0)
(0.000186966 -0.000487561 0)
(0.000265515 -0.000551604 0)
(0.000351369 -0.000593378 0)
(0.0004417 -0.000612463 0)
(0.000533615 -0.00060893 0)
(0.000624111 -0.000583341 0)
(0.000710075 -0.000536991 0)
(0.000788351 -0.000472132 0)
(0.000855885 -0.000392101 0)
(0.000909969 -0.000301309 0)
(0.000948577 -0.000205026 0)
(0.000970673 -0.000108864 0)
(0.000976394 -1.80434e-05 0)
(0.000965914 6.37417e-05 0)
(0.000938538 0.00013167 0)
(0.000896819 0.000176631 0)
(0.000847917 0.000196118 0)
(0.000796711 0.000196374 0)
(0.000742124 0.000183179 0)
(0.000685626 0.000152352 0)
(0.000635876 0.000106322 0)
(0.000600823 5.73885e-05 0)
(0.000583118 2.32332e-05 0)
(0.000585448 2.33851e-05 0)
(0.000614723 7.67305e-05 0)
(0.000657485 0.000213445 0)
(0.000655978 0.000435684 0)
(0.000556235 0.000465498 0)
(0.000321031 0.000630603 0)
(0.000144692 0.000935957 0)
(0.000179698 0.000548714 0)
(0.000296425 0.000353797 0)
(0.000408033 0.000255882 0)
(0.000495838 0.000182631 0)
(0.000564396 0.000142092 0)
(0.000613921 0.000137295 0)
(0.000643281 0.000163705 0)
(0.000652235 0.000215355 0)
(0.000640832 0.000286123 0)
(0.000609851 0.000370317 0)
(0.000560499 0.000463705 0)
(0.000493725 0.000563003 0)
(0.000410187 0.000665394 0)
(0.000310368 0.000768164 0)
(0.00019478 0.000868421 0)
(6.42521e-05 0.000962968 0)
(2.59126e-06 -8.38315e-05 0)
(2.50173e-05 -0.00022306 0)
(6.74421e-05 -0.000351266 0)
(0.000126906 -0.00046711 0)
(0.000200302 -0.00056381 0)
(0.000284777 -0.000637038 0)
(0.000377539 -0.000685149 0)
(0.00047576 -0.000707674 0)
(0.00057651 -0.000704577 0)
(0.000676684 -0.000676271 0)
(0.00077296 -0.000623917 0)
(0.000861819 -0.000549731 0)
(0.000939674 -0.00045721 0)
(0.00100312 -0.000351249 0)
(0.00104939 -0.000238003 0)
(0.0010769 -0.000124262 0)
(0.00108594 -1.63999e-05 0)
(0.00107668 8.28914e-05 0)
(0.00104654 0.000169312 0)
(0.000997147 0.000227166 0)
(0.000938872 0.000250971 0)
(0.000878421 0.000254021 0)
(0.000809967 0.000247948 0)
(0.000731749 0.000217445 0)
(0.000656205 0.000160027 0)
(0.000593924 9.29697e-05 0)
(0.000544835 3.86465e-05 0)
(0.000518104 -6.18419e-07 0)
(0.000543481 -1.4788e-05 0)
(0.00062608 9.8486e-05 0)
(0.000667272 0.000494835 0)
(0.000593626 0.000643474 0)
(0.000209234 0.00104294 0)
(-2.67795e-05 0.000979985 0)
(0.000209436 0.000353192 0)
(0.000453125 0.000173852 0)
(0.000611483 0.000124813 0)
(0.000719973 8.85443e-05 0)
(0.0007934 7.6136e-05 0)
(0.00083982 9.63454e-05 0)
(0.000863277 0.000145502 0)
(0.000865674 0.000218824 0)
(0.000846864 0.000310517 0)
(0.000807621 0.000414233 0)
(0.000749574 0.00052591 0)
(0.000673749 0.000642648 0)
(0.000580681 0.000761941 0)
(0.000470606 0.000881213 0)
(0.000343707 0.000997424 0)
(0.000200492 0.00110687 0)
(2.74707e-06 -9.69192e-05 0)
(2.65244e-05 -0.000257507 0)
(7.14966e-05 -0.000404071 0)
(0.000134571 -0.000535669 0)
(0.000212592 -0.000645395 0)
(0.000302744 -0.000728847 0)
(0.000402315 -0.000784372 0)
(0.000508565 -0.000811443 0)
(0.000618636 -0.000809864 0)
(0.000729431 -0.000779807 0)
(0.000837518 -0.000722157 0)
(0.00093909 -0.000638899 0)
(0.00103002 -0.000533471 0)
(0.00110605 -0.000411078 0)
(0.00116331 -0.000278768 0)
(0.00119907 -0.000144817 0)
(0.00121365 -1.78405e-05 0)
(0.00120719 0.000101837 0)
(0.00117559 0.000211296 0)
(0.00112005 0.000286208 0)
(0.0010539 0.000315237 0)
(0.000985888 0.000321376 0)
(0.000906224 0.000329758 0)
(0.000807022 0.000311013 0)
(0.000700815 0.000249849 0)
(0.000597132 0.000176627 0)
(0.00048944 0.000124391 0)
(0.00036079 9.40514e-05 0)
(0.000168205 9.63054e-05 0)
(-0.000113658 0.000185272 0)
(-0.000121206 0.000409292 0)
(2.12542e-05 0.000676617 0)
(-1.64283e-05 0.00120297 0)
(0.000506346 0.000447525 0)
(0.00104935 0.000204393 0)
(0.00102041 0.000102219 0)
(0.00101909 4.98247e-05 0)
(0.00106523 2.44968e-05 0)
(0.00110569 3.01059e-05 0)
(0.00112739 7.07289e-05 0)
(0.00113315 0.000139085 0)
(0.0011236 0.000232254 0)
(0.00109434 0.000344701 0)
(0.00104461 0.000467834 0)
(0.000976503 0.000597718 0)
(0.000890911 0.000732 0)
(0.000788002 0.000868591 0)
(0.000667604 0.00100515 0)
(0.000529388 0.00113856 0)
(0.000373296 0.00126451 0)
(2.88049e-06 -0.000110725 0)
(2.78091e-05 -0.000293841 0)
(7.49667e-05 -0.000459796 0)
(0.000141188 -0.000608147 0)
(0.000223336 -0.000731942 0)
(0.000318703 -0.00082676 0)
(0.000424739 -0.000890971 0)
(0.000538902 -0.000923994 0)
(0.000658532 -0.000925446 0)
(0.000780698 -0.000895169 0)
(0.000902037 -0.000833619 0)
(0.00101864 -0.000742314 0)
(0.00112597 -0.000624304 0)
(0.00121889 -0.000484703 0)
(0.00129206 -0.000331166 0)
(0.00134063 -0.000173496 0)
(0.00136474 -2.52085e-05 0)
(0.00136421 0.000118859 0)
(0.00133114 0.000257815 0)
(0.00126925 0.00035135 0)
(0.00119951 0.000385728 0)
(0.00112525 0.00039833 0)
(0.00103415 0.000421826 0)
(0.000925418 0.000423489 0)
(0.000812794 0.000364767 0)
(0.000700556 0.000295277 0)
(0.000595909 0.000239415 0)
(0.000538224 0.000210341 0)
(0.000536511 0.00025921 0)
(0.000553695 0.000352101 0)
(0.000518273 0.00036978 0)
(0.000408469 0.000685354 0)
(0.000388483 0.00104603 0)
(0.000588826 -0.000146524 0)
(0.000890544 4.41229e-05 0)
(0.00112402 3.62431e-05 0)
(0.00128307 -3.714e-05 0)
(0.00139782 -3.64271e-05 0)
(0.00144658 1.40816e-06 0)
(0.00144963 6.51912e-05 0)
(0.001439 0.000147124 0)
(0.0014206 0.000256597 0)
(0.00138239 0.000389872 0)
(0.00132189 0.000532054 0)
(0.00124361 0.000679606 0)
(0.00114844 0.000831204 0)
(0.001036 0.000985295 0)
(0.000905642 0.00113977 0)
(0.000756533 0.00129171 0)
(0.00058781 0.00143614 0)
(2.98204e-06 -0.000125117 0)
(2.87953e-05 -0.000331725 0)
(7.7661e-05 -0.000517956 0)
(0.000146406 -0.000683975 0)
(0.000231976 -0.000822862 0)
(0.000331834 -0.000930243 0)
(0.000443671 -0.00100456 0)
(0.000565241 -0.00104522 0)
(0.000694226 -0.00105166 0)
(0.000828059 -0.00102334 0)
(0.000963705 -0.000960155 0)
(0.00109746 -0.000862929 0)
(0.00122472 -0.000733906 0)
(0.00133973 -0.000577439 0)
(0.00143555 -0.000401007 0)
(0.00150416 -0.000215047 0)
(0.00154256 -4.1329e-05 0)
(0.00155014 0.000131965 0)
(0.00151862 0.000307758 0)
(0.00145106 0.000421972 0)
(0.0013843 0.00045177 0)
(0.00130941 0.000490252 0)
(0.00118429 0.000539287 0)
(0.00105465 0.000532141 0)
(0.000971853 0.000455167 0)
(0.000903738 0.000395399 0)
(0.000818876 0.00032851 0)
(0.000779791 0.000209502 0)
(0.00081223 0.000211763 0)
(0.000856098 0.000308311 0)
(0.00088973 0.000428554 0)
(0.000896952 0.00074475 0)
(0.00107235 0.000854018 0)
(0.00129192 -0.000242995 0)
(0.00145399 -0.000242696 0)
(0.00164851 -0.000140513 0)
(0.00176674 -0.000177158 0)
(0.0018445 -0.000113416 0)
(0.00185226 -5.35371e-06 0)
(0.00180817 8.52862e-05 0)
(0.00177608 0.000166968 0)
(0.00175607 0.000287651 0)
(0.00171265 0.000445025 0)
(0.0016411 0.000606614 0)
(0.00155304 0.000771088 0)
(0.00144924 0.000939632 0)
(0.0013282 0.00111151 0)
(0.00118863 0.00128452 0)
(0.00102938 0.00145628 0)
(0.000848768 0.00162152 0)
(3.04272e-06 -0.000139923 0)
(2.94123e-05 -0.000370726 0)
(7.94025e-05 -0.000577927 0)
(0.000149896 -0.000762392 0)
(0.000237975 -0.000917315 0)
(0.000341321 -0.00103844 0)
(0.000457912 -0.00112436 0)
(0.000585872 -0.00117453 0)
(0.000723346 -0.00118825 0)
(0.000868323 -0.00116468 0)
(0.00101841 -0.0011031 0)
(0.00117057 -0.00100349 0)
(0.00132073 -0.000866876 0)
(0.00146322 -0.000695997 0)
(0.00159001 -0.00049675 0)
(0.00169078 -0.000278874 0)
(0.00175468 -6.99542e-05 0)
(0.00177417 0.000142263 0)
(0.00174342 0.000360869 0)
(0.00166802 0.000499957 0)
(0.00160191 0.000500623 0)
(0.00154249 0.000581013 0)
(0.00140423 0.000701691 0)
(0.00124016 0.000650888 0)
(0.00114715 0.000519419 0)
(0.0011198 0.000439555 0)
(0.00112734 0.000368785 0)
(0.00114371 0.000194227 0)
(0.00117423 0.000161722 0)
(0.0012345 0.000242859 0)
(0.00130776 0.000361461 0)
(0.00144355 0.000625979 0)
(0.00175732 0.000508636 0)
(0.00192495 -0.000257162 0)
(0.00195134 -0.000431708 0)
(0.00213899 -0.000315737 0)
(0.00229064 -0.000257591 0)
(0.00233061 -0.000139701 0)
(0.00227653 5.66516e-05 0)
(0.00217392 0.000143047 0)
(0.0021317 0.000187912 0)
(0.00213083 0.000314482 0)
(0.00208883 0.000508971 0)
(0.002004 0.000691373 0)
(0.00190666 0.000871255 0)
(0.00179588 0.00105603 0)
(0.00166789 0.00124614 0)
(0.00152019 0.00143867 0)
(0.00135167 0.00163133 0)
(0.00116035 0.00181981 0)
(3.05583e-06 -0.000154937 0)
(2.96091e-05 -0.000410331 0)
(8.0064e-05 -0.000638961 0)
(0.000151418 -0.000842469 0)
(0.000240926 -0.00101422 0)
(0.000346499 -0.00115015 0)
(0.000466412 -0.00124908 0)
(0.000599168 -0.00131062 0)
(0.00074341 -0.00133407 0)
(0.00089778 -0.00131839 0)
(0.00106076 -0.00126246 0)
(0.00123046 -0.00116546 0)
(0.00140422 -0.00102709 0)
(0.00157787 -0.000847859 0)
(0.00174408 -0.000630179 0)
(0.00189088 -0.00038067 0)
(0.00199977 -0.00012587 0)
(0.00205799 0.000136086 0)
(0.0020491 0.000416901 0)
(0.00196865 0.000595372 0)
(0.00186361 0.00056375 0)
(0.00176236 0.000665459 0)
(0.00162456 0.000876337 0)
(0.00149875 0.000757783 0)
(0.00145445 0.000559316 0)
(0.00147745 0.000417484 0)
(0.00156259 0.000308879 0)
(0.00164067 0.000163756 0)
(0.00167976 0.000120771 0)
(0.00172892 0.000167903 0)
(0.00180367 0.000258081 0)
(0.00200041 0.000362032 0)
(0.0023168 0.000185295 0)
(0.0025009 -0.000269381 0)
(0.00252087 -0.000499214 0)
(0.00258604 -0.000482296 0)
(0.00271038 -0.000345511 0)
(0.00277468 -0.000140317 0)
(0.00270126 0.000179747 0)
(0.00255864 0.000228691 0)
(0.00251974 0.000183258 0)
(0.00255861 0.000319202 0)
(0.00251726 0.000586027 0)
(0.00241032 0.000787438 0)
(0.00230496 0.000978397 0)
(0.0021901 0.00117831 0)
(0.00205744 0.00138745 0)
(0.00190319 0.0016012 0)
(0.00172645 0.0018158 0)
(0.00152592 0.00202935 0)
(3.01879e-06 -0.000169929 0)
(2.93695e-05 -0.000449985 0)
(7.96069e-05 -0.000700246 0)
(0.000150891 -0.000923165 0)
(0.000240667 -0.00111232 0)
(0.000347053 -0.00126389 0)
(0.000468571 -0.00137698 0)
(0.000604032 -0.00145145 0)
(0.000752474 -0.00148677 0)
(0.000913083 -0.0014819 0)
(0.00108514 -0.00143564 0)
(0.00126793 -0.00134681 0)
(0.00146057 -0.00121429 0)
(0.00166177 -0.00103673 0)
(0.00186844 -0.000812367 0)
(0.00207175 -0.000540366 0)
(0.00224614 -0.000234626 0)
(0.00237126 7.73387e-05 0)
(0.00242421 0.00045123 0)
(0.00237894 0.000704689 0)
(0.00222046 0.000712699 0)
(0.00200437 0.000791003 0)
(0.00187594 0.000986328 0)
(0.00182842 0.000820388 0)
(0.00182724 0.000548721 0)
(0.00190786 0.000338664 0)
(0.00203861 0.000186379 0)
(0.00215752 9.72512e-05 0)
(0.00224799 5.91504e-05 0)
(0.0023346 9.68283e-05 0)
(0.00242667 0.000148025 0)
(0.0025884 9.61636e-05 0)
(0.00283699 -8.05434e-05 0)
(0.00303859 -0.000389715 0)
(0.00313079 -0.000539746 0)
(0.00320002 -0.000575824 0)
(0.00326673 -0.000417143 0)
(0.00328859 -0.000124497 0)