/*--------------------------------*- C++ -*----------------------------------*\
| =========                 |                                                 |
| \\      /  F ield         | OpenFOAM: The Open Source CFD Toolbox           |
|  \\    /   O peration     | Version:  2.4.0                                 |
|   \\  /    A nd           | Web:      www.OpenFOAM.org                      |
|    \\/     M anipulation  |                                                 |
\*---------------------------------------------------------------------------*/
FoamFile
{
    version     2.0;
    format      ascii;
    class       surfaceScalarField;
    location    "0.073";
    object      phi;
}
// * * * * * * * * * * * * * * * * * * * * * * * * * * * * * * * * * * * * * //

dimensions      [0 3 -1 0 0 0 0];

internalField   nonuniform List<scalar> 
7080
(
2.8276e-13
-2.82722e-13
8.05842e-13
-5.21788e-13
9.18553e-13
-1.09454e-13
6.76563e-13
2.47024e-13
1.22853e-13
5.60388e-13
-1.20333e-12
1.33469e-12
-3.15906e-12
1.96528e-12
-7.61143e-12
4.46275e-12
-1.20328e-11
4.43301e-12
-2.31394e-11
1.11185e-11
-3.30987e-11
9.97185e-12
-5.8665e-11
2.55777e-11
-8.1746e-11
2.30942e-11
-1.34464e-10
5.27283e-11
-1.82321e-10
4.7865e-11
-2.68966e-10
8.66519e-11
-3.499e-10
8.09398e-11
-4.80753e-10
1.3085e-10
-5.33246e-10
5.24992e-11
-4.97976e-10
-3.52702e-11
-2.87424e-10
-2.10547e-10
-8.65406e-11
-2.00889e-10
6.55136e-11
-1.52042e-10
1.42997e-10
-7.74981e-11
1.52056e-10
-9.03595e-12
1.3987e-10
1.2158e-11
1.08998e-10
3.09116e-11
8.15532e-11
2.74045e-11
5.4446e-11
2.71435e-11
2.04228e-11
3.39954e-11
-3.84866e-13
1.03325e-13
-1.70343e-12
8.00794e-13
-4.17299e-12
2.36742e-12
-8.2979e-12
4.382e-12
-1.39292e-11
6.20492e-12
-2.22315e-11
9.65384e-12
-3.18201e-11
1.15714e-11
-4.66159e-11
1.92765e-11
-6.21921e-11
2.00304e-11
-8.89061e-11
3.78529e-11
-1.13659e-10
3.4746e-11
-1.61107e-10
7.3044e-11
-2.00118e-10
6.21267e-11
-2.77527e-10
1.30153e-10
-3.35901e-10
1.0625e-10
-4.37965e-10
1.88725e-10
-5.11301e-10
1.54285e-10
-6.27715e-10
2.47259e-10
-6.3407e-10
5.88666e-11
-5.38974e-10
-1.30373e-10
-2.69328e-10
-4.80177e-10
-2.11507e-11
-4.49085e-10
1.42223e-10
-3.1538e-10
2.20611e-10
-1.55928e-10
2.16443e-10
-4.80682e-12
1.92071e-10
3.64623e-11
1.46082e-10
7.69755e-11
1.077e-10
6.57192e-11
7.12177e-11
6.368e-11
4.67145e-11
4.48802e-11
-4.56374e-13
5.60706e-13
-2.06014e-12
2.40787e-12
-4.7997e-12
5.11313e-12
-9.12949e-12
8.72021e-12
-1.51364e-11
1.22231e-11
-2.41025e-11
1.86349e-11
-3.49196e-11
2.2404e-11
-5.12076e-11
3.55806e-11
-6.90155e-11
3.7858e-11
-9.78801e-11
6.67368e-11
-1.2506e-10
6.19459e-11
-1.74878e-10
1.22879e-10
-2.15403e-10
1.02674e-10
-2.94304e-10
2.09069e-10
-3.51697e-10
1.63655e-10
-4.51846e-10
2.88884e-10
-5.20632e-10
2.2308e-10
-6.34189e-10
3.6081e-10
-6.35397e-10
6.00866e-11
-5.31216e-10
-2.3456e-10
-2.52884e-10
-7.58493e-10
1.9794e-12
-7.03968e-10
1.61999e-10
-4.75365e-10
2.36629e-10
-2.306e-10
2.28006e-10
3.87645e-12
2.00332e-10
6.40698e-11
1.51545e-10
1.25836e-10
1.11155e-10
1.06043e-10
7.33891e-11
1.01499e-10
7.12347e-11
4.8823e-11
-2.11614e-13
7.73319e-13
-1.29888e-12
3.49837e-12
-3.62391e-12
7.4441e-12
-7.53742e-12
1.2642e-11
-1.32831e-11
1.798e-11
-2.20012e-11
2.73681e-11
-3.3103e-11
3.3522e-11
-4.93023e-11
5.17971e-11
-6.77244e-11
5.63012e-11
-9.61339e-11
9.51673e-11
-1.23974e-10
8.98081e-11
-1.73305e-10
1.7223e-10
-2.14692e-10
1.44084e-10
-2.93444e-10
2.87838e-10
-3.5176e-10
2.21984e-10
-4.51414e-10
3.88547e-10
-5.21436e-10
2.93114e-10
-6.39711e-10
4.7908e-10
-6.43993e-10
6.438e-11
-5.35763e-10
-3.42795e-10
-2.48663e-10
-1.04558e-09
1.0562e-11
-9.63212e-10
1.70161e-10
-6.3493e-10
2.42007e-10
-3.02487e-10
2.30908e-10
1.50352e-11
2.01671e-10
9.32403e-11
1.5215e-10
1.75431e-10
1.11453e-10
1.46674e-10
7.33423e-11
1.39663e-10
9.77448e-11
4.67865e-11
-2.57843e-13
1.03212e-12
-1.35815e-12
4.60187e-12
-3.65366e-12
9.74561e-12
-7.50974e-12
1.65066e-11
-1.32056e-11
2.36877e-11
-2.16415e-11
3.58202e-11
-3.29953e-11
4.48939e-11
-4.83921e-11
6.72137e-11
-6.79553e-11
7.58887e-11
-9.46056e-11
1.21842e-10
-1.23934e-10
1.19162e-10
-1.71815e-10
2.20133e-10
-2.14985e-10
1.87281e-10
-2.93395e-10
3.66266e-10
-3.53914e-10
2.82518e-10
-4.53411e-10
4.88057e-10
-5.25764e-10
3.65478e-10
-6.51144e-10
6.04456e-10
-6.59858e-10
7.31062e-11
-5.46284e-10
-4.56373e-10
-2.46873e-10
-1.34497e-09
1.91134e-11
-1.22922e-09
1.78026e-10
-7.93809e-10
2.46671e-10
-3.71172e-10
2.32873e-10
2.88914e-11
2.02132e-10
1.23917e-10
1.52082e-10
2.25553e-10
1.11223e-10
1.8747e-10
7.3076e-11
1.77861e-10
1.2476e-10
4.60158e-11
-3.029e-13
1.33596e-12
-1.46177e-12
5.76408e-12
-3.80923e-12
1.20995e-11
-7.66311e-12
2.037e-11
-1.3547e-11
2.9585e-11
-2.14893e-11
4.37812e-11
-3.38353e-11
5.7261e-11
-4.77075e-11
8.11093e-11
-6.89269e-11
9.71365e-11
-9.3409e-11
1.46353e-10
-1.25112e-10
1.50895e-10
-1.70059e-10
2.65105e-10
-2.16866e-10
2.34118e-10
-2.93551e-10
4.42972e-10
-3.57769e-10
3.46754e-10
-4.56834e-10
5.87134e-10
-5.31952e-10
4.40609e-10
-6.66525e-10
7.39025e-10
-6.80832e-10
8.74255e-11
-5.60217e-10
-5.76992e-10
-2.44881e-10
-1.6603e-09
2.98537e-11
-1.50397e-09
1.87643e-10
-9.51565e-10
2.52199e-10
-4.35768e-10
2.3506e-10
4.6088e-11
2.0252e-10
1.56392e-10
1.51878e-10
2.76265e-10
1.10838e-10
2.28448e-10
7.27495e-11
2.15999e-10
1.51768e-10
4.5698e-11
-3.16326e-13
1.65329e-12
-1.4917e-12
6.9432e-12
-3.90545e-12
1.45207e-11
-7.60435e-12
2.408e-11
-1.40086e-11
3.60051e-11
-2.13671e-11
5.11616e-11
-3.45748e-11
7.04938e-11
-4.74618e-11
9.40244e-11
-6.97445e-11
1.19452e-10
-9.29088e-11
1.6955e-10
-1.25628e-10
1.83649e-10
-1.69021e-10
3.08528e-10
-2.19564e-10
2.84694e-10
-2.94049e-10
5.1748e-10
-3.63513e-10
4.16237e-10
-4.61174e-10
6.8481e-10
-5.39361e-10
5.1881e-10
-6.85506e-10
8.85168e-10
-7.06798e-10
1.0873e-10
-5.7731e-10
-7.06483e-10
-2.42195e-10
-1.9954e-09
4.32989e-11
-1.78948e-09
1.99385e-10
-1.10762e-09
2.58825e-10
-4.95247e-10
2.37624e-10
6.73448e-11
2.02942e-10
1.91012e-10
1.5161e-10
3.27666e-10
1.10359e-10
2.69637e-10
7.23579e-11
2.54049e-10
1.78684e-10
4.53984e-11
-4.453e-13
2.09972e-12
-1.71822e-12
8.22061e-12
-4.15265e-12
1.69642e-11
-7.65448e-12
2.75955e-11
-1.43425e-11
4.27124e-11
-2.13861e-11
5.82312e-11
-3.54619e-11
8.45994e-11
-4.74065e-11
1.06002e-10
-7.07842e-11
1.42868e-10
-9.26618e-11
1.91465e-10
-1.25911e-10
2.16936e-10
-1.68461e-10
3.51111e-10
-2.21611e-10
3.3788e-10
-2.95937e-10
5.91832e-10
-3.7155e-10
4.91874e-10
-4.66288e-10
7.79564e-10
-5.47698e-10
6.00237e-10
-7.08152e-10
1.04562e-09
-7.38129e-10
1.38719e-10
-5.97721e-10
-8.46892e-10
-2.38623e-10
-2.35448e-09
5.97237e-11
-2.08784e-09
2.1338e-10
-1.26124e-09
2.66569e-10
-5.48475e-10
2.40561e-10
9.34081e-11
2.03392e-10
2.2812e-10
1.51278e-10
3.79847e-10
1.09793e-10
3.11063e-10
7.18938e-11
2.91996e-10
2.05465e-10
4.5072e-11
-4.82243e-13
2.58336e-12
-1.74376e-12
9.48767e-12
-4.17276e-12
1.94043e-11
-7.32084e-12
3.076e-11
-1.46671e-11
5.00815e-11
-2.08924e-11
6.44867e-11
-3.6234e-11
9.99752e-11
-4.69672e-11
1.16772e-10
-7.15816e-11
1.67524e-10
-9.25449e-11
2.12469e-10
-1.25897e-10
2.50329e-10
-1.67971e-10
3.9322e-10
-2.23433e-10
3.9338e-10
-2.98832e-10
6.67259e-10
-3.78949e-10
5.72016e-10
-4.72096e-10
8.72729e-10
-5.5659e-10
6.84748e-10
-7.34559e-10
1.22359e-09
-7.75278e-10
1.7945e-10
-6.21654e-10
-1.00052e-09
-2.33966e-10
-2.74216e-09
7.94095e-11
-2.40123e-09
2.29723e-10
-1.41153e-09
2.75399e-10
-5.94189e-10
2.43818e-10
1.25043e-10
2.03832e-10
2.68047e-10
1.5086e-10
4.32884e-10
1.09126e-10
3.5274e-10
7.13465e-11
3.29821e-10
2.32094e-10
4.46767e-11
-4.62783e-13
3.0479e-12
-1.71172e-12
1.07434e-11
-4.35698e-12
2.20627e-11
-7.77799e-12
3.42004e-11
-1.57578e-11
5.80876e-11
-2.18387e-11
7.06014e-11
-3.81112e-11
1.16285e-10
-4.79105e-11
1.26611e-10
-7.39382e-11
1.93596e-10
-9.29943e-11
2.31568e-10
-1.25877e-10
2.83254e-10
-1.67406e-10
4.34785e-10
-2.25227e-10
4.51241e-10
-3.02549e-10
7.4461e-10
-3.87091e-10
6.56585e-10
-4.78541e-10
9.64199e-10
-5.65746e-10
7.71972e-10
-7.64935e-10
1.42278e-09
-8.18975e-10
2.33502e-10
-6.49487e-10
-1.17e-09
-2.28039e-10
-3.1636e-09
1.02701e-10
-2.73199e-09
2.48557e-10
-1.55735e-09
2.85324e-10
-6.30994e-10
2.4738e-10
1.63039e-10
2.04259e-10
3.11111e-10
1.5036e-10
4.86845e-10
1.08366e-10
3.94679e-10
7.07195e-11
3.67512e-10
2.58552e-10
4.4223e-11
-4.52118e-13
3.50216e-12
-1.79465e-12
1.20938e-11
-5.01404e-12
2.52969e-11
-7.77939e-12
3.6987e-11
-1.64376e-11
6.67742e-11
-1.93613e-11
7.356e-11
-3.81014e-11
1.35064e-10
-4.57523e-11
1.34302e-10
-7.36417e-11
2.2153e-10
-9.26335e-11
2.50601e-10
-1.24248e-10
3.1491e-10
-1.66539e-10
4.77112e-10
-2.26941e-10
5.11683e-10
-3.07068e-10
8.24766e-10
-3.96325e-10
7.45871e-10
-4.85356e-10
1.05325e-09
-5.74788e-10
8.61424e-10
-7.99464e-10
1.64746e-09
-8.70026e-10
3.04076e-10
-6.81608e-10
-1.35842e-09
-2.20595e-10
-3.6246e-09
1.30006e-10
-3.08261e-09
2.70027e-10
-1.69734e-09
2.9632e-10
-6.57323e-10
2.51202e-10
2.08207e-10
2.04647e-10
3.57611e-10
1.49769e-10
5.41783e-10
1.07512e-10
4.36883e-10
7.00122e-11
4.05055e-10
2.84814e-10
4.37131e-11
-4.9138e-13
3.996e-12
-1.92458e-12
1.35355e-11
-5.49195e-12
2.88797e-11
-8.23653e-12
3.97531e-11
-1.7525e-11
7.60907e-11
-2.11298e-11
7.71987e-11
-4.21705e-11
1.56141e-10
-5.00442e-11
1.42213e-10
-7.96411e-11
2.51168e-10
-9.56563e-11
2.66655e-10
-1.25161e-10
3.44453e-10
-1.65388e-10
5.17372e-10
-2.28724e-10
5.75058e-10
-3.12396e-10
9.08466e-10
-4.06957e-10
8.40462e-10
-4.92357e-10
1.13868e-09
-5.83124e-10
9.52212e-10
-8.38134e-10
1.90248e-09
-9.29338e-10
3.95291e-10
-7.18412e-10
-1.56934e-09
-2.11316e-10
-4.13169e-09
1.61794e-10
-3.45573e-09
2.94267e-10
-1.82979e-09
3.08326e-10
-6.71417e-10
2.55211e-10
2.6137e-10
2.0495e-10
4.07819e-10
1.49062e-10
5.97729e-10
1.0655e-10
4.79345e-10
6.92221e-11
4.42423e-10
3.10856e-10
4.31447e-11
-2.4719e-13
4.24575e-12
-1.14548e-12
1.44423e-11
-4.0518e-12
3.18004e-11
-3.72082e-12
3.94419e-11
-1.41154e-11
8.65104e-11
-1.30048e-11
7.61171e-11
-3.99736e-11
1.83142e-10
-4.39209e-11
1.46191e-10
-7.59851e-11
2.83268e-10
-9.29304e-11
2.83633e-10
-1.18434e-10
3.69992e-10
-1.62841e-10
5.61808e-10
-2.2978e-10
6.42034e-10
-3.18645e-10
9.97359e-10
-4.19112e-10
9.40959e-10
-4.99015e-10
1.2186e-09
-5.90283e-10
1.0435e-09
-8.8114e-10
2.19335e-09
-9.98198e-10
5.1236e-10
-7.60517e-10
-1.80701e-09
-1.9987e-10
-4.69233e-09
1.98642e-10
-3.85426e-09
3.2148e-10
-1.9526e-09
3.21324e-10
-6.71295e-10
2.59367e-10
3.23373e-10
2.05155e-10
4.61981e-10
1.48241e-10
6.54698e-10
1.05486e-10
5.22051e-10
6.83617e-11
4.79586e-10
3.36669e-10
4.25156e-11
-4.37072e-13
4.68518e-12
-8.89431e-13
1.49022e-11
-4.07964e-12
3.50026e-11
-4.56073e-12
3.99388e-11
-1.84282e-11
1.00398e-10
-1.94411e-11
7.71528e-11
-5.07636e-11
2.1449e-10
-5.5727e-11
1.51179e-10
-8.97378e-11
3.17307e-10
-1.03494e-10
2.97417e-10
-1.23982e-10
3.90511e-10
-1.61233e-10
5.99085e-10
-2.32082e-10
7.12917e-10
-3.26004e-10
1.09131e-09
-4.33594e-10
1.04858e-09
-5.05511e-10
1.29055e-09
-5.95247e-10
1.13326e-09
-9.28215e-10
2.52632e-09
-1.0781e-09
6.62253e-10
-8.08556e-10
-2.07655e-09
-1.85835e-10
-5.31504e-09
2.41234e-10
-4.28134e-09
3.51869e-10
-2.06321e-09
3.35255e-10
-6.54713e-10
2.63598e-10
3.95075e-10
2.05226e-10
5.20304e-10
1.47293e-10
7.12685e-10
1.04318e-10
5.64979e-10
6.74322e-11
5.16509e-10
3.62247e-10
4.18227e-11
1.97975e-13
4.48913e-12
3.00997e-13
1.48051e-11
-3.18548e-12
3.84973e-11
2.57472e-12
3.41895e-11
-1.33e-11
1.16287e-10
-3.43584e-12
6.73027e-11
-4.24844e-11
2.53559e-10
-4.22046e-11
1.50918e-10
-7.94119e-11
3.54537e-10
-9.49591e-11
3.12986e-10
-1.04936e-10
4.00515e-10
-1.52156e-10
6.46327e-10
-2.29935e-10
7.90728e-10
-3.34216e-10
1.19561e-09
-4.50077e-10
1.16447e-09
-5.10504e-10
1.351e-09
-5.9752e-10
1.2203e-09
-9.80025e-10
2.90884e-09
-1.17079e-09
8.53033e-10
-8.63258e-10
-2.38407e-09
-1.68697e-10
-6.00959e-09
2.90359e-10
-4.74041e-09
3.85626e-10
-2.15845e-09
3.50013e-10
-6.19131e-10
2.67796e-10
4.77334e-10
2.0511e-10
5.82944e-10
1.46193e-10
7.71652e-10
1.03032e-10
6.08096e-10
6.64279e-11
5.53148e-10
3.87571e-10
4.10741e-11
-1.39202e-12
5.88223e-12
5.34183e-13
1.28822e-11
-3.77046e-12
4.28065e-11
2.55796e-12
2.78671e-11
-2.13778e-11
1.40232e-10
-1.44031e-11
6.03375e-11
-6.36247e-11
3.02793e-10
-6.78514e-11
1.55159e-10
-1.08474e-10
3.95179e-10
-1.2186e-10
3.26389e-10
-1.21104e-10
3.99783e-10
-1.51e-10
6.76242e-10
-2.34654e-10
8.74412e-10
-3.45647e-10
1.30663e-09
-4.70063e-10
1.28891e-09
-5.14303e-10
1.39527e-09
-5.94713e-10
1.30073e-09
-1.03582e-09
3.34997e-09
-1.27878e-09
1.09601e-09
-9.25532e-10
-2.73732e-09
-1.47885e-10
-6.78723e-09
3.47041e-10
-5.23535e-09
4.23026e-10
-2.23441e-09
3.6553e-10
-5.61665e-10
2.71888e-10
5.71015e-10
2.04782e-10
6.50006e-10
1.44942e-10
8.31541e-10
1.01637e-10
6.5136e-10
6.53543e-11
5.89463e-10
4.1261e-10
4.02871e-11
2.07553e-12
3.80766e-12
6.66864e-12
8.28982e-12
-4.0495e-12
5.35265e-11
2.27391e-11
1.08179e-12
-8.60492e-13
1.6384e-10
2.54815e-11
3.40002e-11
-4.306e-11
3.71345e-10
-4.65933e-11
1.58704e-10
-8.82587e-11
4.36861e-10
-1.0292e-10
3.41065e-10
-7.81574e-11
3.75041e-10
-1.25521e-10
7.23622e-10
-2.23861e-10
9.7278e-10
-3.55201e-10
1.43799e-09
-4.94809e-10
1.42854e-09
-5.17816e-10
1.4183e-09
-5.8797e-10
1.3709e-09
-1.09844e-09
3.86046e-09
-1.4057e-09
1.40327e-09
-9.96626e-10
-3.14638e-09
-1.22694e-10
-7.66116e-09
4.12664e-10
-5.77072e-09
4.64338e-10
-2.28606e-09
3.81684e-10
-4.79039e-10
2.75762e-10
6.76974e-10
2.042e-10
7.21527e-10
1.43527e-10
8.92259e-10
1.00127e-10
6.94721e-10
6.421e-11
6.25411e-10
4.37329e-10
3.94647e-11
-7.54687e-13
4.56121e-12
1.2203e-11
-4.66572e-12
-1.26312e-11
7.83618e-11
2.34028e-11
-3.49488e-11
-1.90907e-11
2.06343e-10
2.79665e-12
1.21245e-11
-8.59356e-11
4.60089e-10
-9.80872e-11
1.70867e-10
-1.46448e-10
4.85238e-10
-1.63667e-10
3.58296e-10
-1.16459e-10
3.27852e-10
-1.29892e-10
7.37068e-10
-2.36443e-10
1.07936e-09
-3.74657e-10
1.57623e-09
-5.21109e-10
1.57502e-09
-5.11268e-10
1.40849e-09
-5.68679e-10
1.42833e-09
-1.16392e-09
4.45572e-09
-1.55562e-09
1.79498e-09
-1.07743e-09
-3.62456e-09
-9.23375e-11
-8.64625e-09
4.9014e-10
-6.35321e-09
5.09802e-10
-2.3057e-09
3.98285e-10
-3.6755e-10
2.79263e-10
7.9603e-10
2.03295e-10
7.97457e-10
1.41921e-10
9.53675e-10
9.84927e-11
7.38113e-10
6.29876e-11
6.60945e-10
4.61692e-10
3.86002e-11
2.04613e-11
-1.59005e-11
9.72292e-11
-8.14206e-11
6.96219e-11
1.05973e-10
1.38288e-10
-1.03608e-10
5.87217e-11
2.85922e-10
8.58182e-11
-1.49534e-11
-4.32754e-11
5.89198e-10
-7.60942e-11
2.03701e-10
-1.1284e-10
5.21998e-10
-1.27562e-10
3.73028e-10
-2.52702e-11
2.25576e-10
-6.20331e-11
7.73843e-10
-2.04655e-10
1.222e-09
-3.87538e-10
1.75913e-09
-5.62528e-10
1.75003e-09
-5.19268e-10
1.36526e-09
-5.50098e-10
1.45917e-09
-1.2416e-09
5.14724e-09
-1.73116e-09
2.28455e-09
-1.17036e-09
-4.18535e-09
-5.58234e-11
-9.76077e-09
5.79849e-10
-6.9889e-09
5.59781e-10
-2.28561e-09
4.15169e-10
-2.22963e-10
2.82265e-10
9.28966e-10
2.02035e-10
8.77652e-10
1.40124e-10
1.01562e-09
9.67401e-11
7.81464e-10
6.16913e-11
6.9602e-10
4.85668e-10
3.76932e-11
4.95964e-11
-6.54959e-11
2.72753e-10
-3.04543e-10
1.21308e-10
2.57425e-10
2.15194e-10
-1.9748e-10
2.78088e-11
4.73324e-10
3.6286e-11
-2.33989e-11
-1.53273e-10
7.78781e-10
-1.85359e-10
2.35808e-10
-2.21951e-10
5.58607e-10
-2.48305e-10
3.9939e-10
-1.06333e-10
8.36147e-11
-8.79155e-11
7.55434e-10
-2.34963e-10
1.36907e-09
-4.18558e-10
1.94274e-09
-5.96063e-10
1.92755e-09
-4.86176e-10
1.2554e-09
-4.94466e-10
1.46748e-09
-1.31585e-09
5.96864e-09
-1.93006e-09
2.89877e-09
-1.27557e-09
-4.83984e-09
-1.29573e-11
-1.10234e-08
6.79468e-10
-7.68134e-09
6.1455e-10
-2.22067e-09
4.32072e-10
-4.05086e-11
2.84592e-10
1.07647e-09
2.00365e-10
9.61846e-10
1.38123e-10
1.0779e-09
9.48673e-11
8.24689e-10
6.03197e-11
7.30591e-10
5.09229e-10
3.6739e-11
7.82397e-11
-1.43739e-10
4.71084e-10
-6.97331e-10
5.01978e-10
2.26539e-10
5.88641e-10
-2.84124e-10
3.06262e-10
7.55706e-10
2.79068e-10
3.80502e-12
-8.83311e-11
1.14621e-09
-1.94526e-10
3.42033e-10
-1.88042e-10
5.52144e-10
-1.8953e-10
4.00888e-10
6.58125e-11
-1.71717e-10
8.54317e-11
7.35825e-10
-1.56594e-10
1.61111e-09
-4.42745e-10
2.22891e-09
-6.69726e-10
2.15455e-09
-5.09736e-10
1.09544e-09
-4.64223e-10
1.42197e-09
-1.41558e-09
6.92001e-09
-2.16685e-09
3.65006e-09
-1.39919e-09
-5.6075e-09
4.59577e-11
-1.24685e-08
7.93575e-10
-8.42897e-09
6.74646e-10
-2.10172e-09
4.48715e-10
1.85401e-10
2.86019e-10
1.2392e-09
1.98213e-10
1.04962e-09
1.35894e-10
1.14025e-09
9.28645e-11
8.67692e-10
5.88673e-11
7.6461e-10
5.32348e-10
3.57301e-11
-6.07741e-11
-8.29807e-11
3.23831e-11
-7.90483e-10
5.15741e-11
2.07351e-10
1.3329e-10
-3.65829e-10
-8.32118e-11
9.72217e-10
-2.43276e-11
-5.50403e-11
8.94387e-12
1.11297e-09
-3.18091e-10
6.69107e-10
-3.47193e-10
5.81272e-10
-4.04671e-10
4.58378e-10
-7.84804e-11
-4.97898e-10
1.10322e-11
6.46319e-10
-2.21164e-10
1.84332e-09
-4.88713e-10
2.49648e-09
-7.10534e-10
2.37638e-09
-4.2835e-10
8.13291e-10
-3.39737e-10
1.33336e-09
-1.49212e-09
8.07241e-09
-2.42924e-09
4.5872e-09
-1.53568e-09
-6.50105e-09
1.14957e-10
-1.41192e-08
9.22259e-10
-9.23628e-09
7.39659e-10
-1.9191e-09
4.6461e-10
4.6043e-10
2.86297e-10
1.41753e-09
1.95539e-10
1.14035e-09
1.33441e-10
1.20238e-09
9.07393e-11
9.10369e-10
5.73409e-11
7.98027e-10
5.54999e-10
3.46737e-11
-1.7658e-10
9.35757e-11
-5.30566e-10
-4.36546e-10
-5.97329e-10
2.74105e-10
-1.7955e-10
-7.8362e-10
-4.44525e-10
1.23718e-09
-2.89974e-10
-2.09566e-10
-5.14214e-10
1.33723e-09
-7.13553e-10
8.68474e-10
-3.41173e-10
2.08928e-10
-2.75838e-10
3.93053e-10
2.35192e-10
-1.00892e-09
4.01857e-10
4.79665e-10
-4.74345e-11
2.29263e-09
-5.48343e-10
2.99741e-09
-8.47465e-10
2.6755e-09
-4.75329e-10
4.41187e-10
-2.98119e-10
1.15615e-09
-1.62707e-09
9.40138e-09
-2.7603e-09
5.72044e-09
-1.70473e-09
-7.55662e-09
2.00255e-10
-1.60241e-08
1.07295e-09
-1.0109e-08
8.12023e-10
-1.65816e-09
4.7977e-10
7.92665e-10
2.85142e-10
1.61218e-09
1.92293e-10
1.23318e-09
1.30755e-10
1.26394e-09
8.84917e-11
9.52611e-10
5.57406e-11
8.30795e-10
5.77157e-10
3.35689e-11
2.45291e-11
6.90631e-11
-3.03658e-10
-1.0839e-10
-5.62312e-10
5.32731e-10
-1.50381e-10
-1.1956e-09
1.82699e-10
9.04017e-10
-1.81819e-11
-8.74516e-12
-1.87877e-10
1.5069e-09
-5.98307e-10
1.27894e-09
-7.43275e-10
3.53925e-10
-6.24785e-10
2.74563e-10
2.33809e-12
-1.63603e-09
2.33633e-10
2.48373e-10
-1.98e-10
2.72427e-09
-6.08967e-10
3.40839e-09
-8.92841e-10
2.95938e-09
-3.28945e-10
-1.22678e-10
-6.2005e-11
8.89199e-10
-1.69167e-09
1.1031e-08
-3.10607e-09
7.13487e-09
-1.88049e-09
-8.7822e-09
2.97656e-10
-1.82023e-08
1.23962e-09
-1.1051e-08
8.87378e-10
-1.3059e-09
4.92406e-10
1.18762e-09
2.81843e-10
1.82276e-09
1.88377e-10
1.32662e-09
1.27808e-10
1.32453e-09
8.61056e-11
9.94296e-10
5.40599e-11
8.62855e-10
5.98787e-10
3.24177e-11
-5.72874e-11
1.2636e-10
-3.69138e-10
2.03396e-10
-7.47374e-10
9.10911e-10
-4.14417e-10
-1.52866e-09
1.06336e-10
3.83099e-10
-1.27098e-10
2.24575e-10
-1.97364e-10
1.57709e-09
-2.12658e-10
1.29424e-09
-4.40619e-10
5.81893e-10
-4.66288e-10
3.00215e-10
6.08276e-10
-2.71058e-09
1.05084e-09
-1.94182e-10
1.78113e-10
3.597e-09
-7.59169e-10
4.34569e-09
-1.14405e-09
3.34425e-09
-3.85765e-10
-8.80933e-10
-1.86106e-12
5.05299e-10
-1.88643e-09
1.29156e-08
-3.58023e-09
8.82869e-09
-2.11992e-09
-1.02425e-08
4.18162e-10
-2.07403e-08
1.43885e-09
-1.20717e-08
9.74982e-10
-8.42018e-10
5.04902e-10
1.65769e-09
2.76498e-10
2.05118e-09
1.83839e-10
1.41927e-09
1.24668e-10
1.38372e-09
8.36327e-11
1.03532e-09
5.23286e-11
8.94171e-10
6.19874e-10
3.12326e-11
-7.12989e-11
1.97643e-10
-3.82941e-10
5.14954e-10
-5.37308e-10
1.06523e-09
-3.47903e-10
-1.71811e-09
-3.97349e-10
4.32376e-10
-7.63181e-10
5.90337e-10
-1.08952e-09
1.90331e-09
-1.1834e-09
1.38807e-09
-7.1655e-10
1.15039e-10
-1.02758e-09
6.11223e-10
2.71598e-10
-4.00976e-09
6.77656e-10
-6.00255e-10
-1.30156e-10
4.40483e-09
-8.27145e-10
5.04269e-09
-1.1852e-09
3.7023e-09
-1.70524e-10
-1.89559e-09
4.34042e-10
-9.92863e-11
-1.91587e-09
1.52656e-08
-4.04165e-09
1.09545e-08
-2.34052e-09
-1.19436e-08
5.66585e-10
-2.36474e-08
1.65896e-09
-1.31641e-08
1.06056e-09
-2.43604e-10
5.10488e-10
2.20774e-09
2.69274e-10
2.29241e-09
1.78394e-10
1.51013e-09
1.21177e-10
1.44095e-09
8.0952e-11
1.07553e-09
5.04676e-11
9.24664e-10
6.40355e-10
2.99789e-11
3.57535e-10
-1.59806e-10
2.25355e-11
8.49916e-10
-4.43337e-10
1.53108e-09
-7.63246e-10
-1.39812e-09
-9.97209e-10
6.66298e-10
-8.03596e-10
3.96726e-10
-3.34367e-10
1.43397e-09
-3.11285e-10
1.36496e-09
3.21635e-10
-5.17895e-10
-7.03207e-10
1.63603e-09
1.13999e-09
-5.85295e-09
2.077e-09
-1.53727e-09
2.81532e-10
6.20028e-09
-1.14576e-09
6.47e-09
-1.57679e-09
4.13332e-09
-1.61214e-10
-3.31114e-09
5.83462e-10
-8.43957e-10
-2.1756e-09
1.80246e-08
-4.69449e-09
1.34734e-08
-2.68115e-09
-1.3957e-08
7.17698e-10
-2.70463e-08
1.90765e-09
-1.4354e-08
1.16257e-09
5.01484e-10
5.19444e-10
2.85087e-09
2.61418e-10
2.55044e-09
1.72742e-10
1.5988e-09
1.17816e-10
1.49589e-09
7.84264e-11
1.11491e-09
4.87134e-11
9.54384e-10
6.6028e-10
2.87824e-11
6.74284e-10
-8.33935e-10
4.50214e-10
1.07412e-09
2.13998e-10
1.76709e-09
-1.12085e-11
-1.17289e-09
3.46312e-10
3.08778e-10
-6.24603e-11
8.05556e-10
-4.07929e-10
1.7794e-09
-1.20087e-09
2.15787e-09
-1.06681e-10
-1.61206e-09
-5.45969e-10
2.07531e-09
3.96643e-10
-6.79554e-09
2.70079e-09
-3.84142e-09
1.76275e-09
7.13827e-09
-7.82777e-10
9.01554e-09
-1.22868e-09
4.57922e-09
3.26262e-10
-4.86607e-09
1.41806e-09
-1.93578e-09
-1.97132e-09
2.1414e-08
-5.139e-09
1.66412e-08
-2.89249e-09
-1.62035e-08
9.85683e-10
-3.09245e-08
2.23909e-09
-1.56075e-08
1.27223e-09
1.46836e-09
5.15442e-10
3.60765e-09
2.49212e-10
2.81668e-09
1.66678e-10
1.68132e-09
1.14674e-10
1.5479e-09
7.59903e-11
1.15359e-09
4.69678e-11
9.83411e-10
6.79711e-10
2.75333e-11
5.33819e-10
-1.36787e-09
6.84999e-10
9.23619e-10
-2.39311e-10
2.69153e-09
-3.6012e-10
-1.05214e-09
1.16733e-09
-1.21873e-09
2.97901e-09
-1.00628e-09
1.97451e-09
2.78386e-09
1.45772e-09
2.67474e-09
2.00962e-09
-2.16394e-09
1.18354e-09
2.90144e-09
-8.32014e-10
-4.77996e-09
-2.16006e-09
-2.51353e-09
-1.93247e-09
6.91082e-09
-7.82036e-10
7.86509e-09
2.59314e-10
3.53786e-09
1.10357e-09
-5.71032e-09
2.07434e-09
-2.90656e-09
-1.50489e-09
2.49933e-08
-5.03768e-09
2.0174e-08
-2.89476e-09
-1.83465e-08
1.30412e-09
-3.51233e-08
2.54559e-09
-1.68489e-08
1.39577e-09
2.61818e-09
5.4345e-10
4.45996e-09
2.57793e-10
3.10234e-09
1.74547e-10
1.76457e-09
1.20936e-10
1.60152e-09
7.99569e-11
1.19456e-09
4.92223e-11
1.01415e-09
7.00331e-10
2.86007e-11
1.55477e-09
-2.92149e-09
4.45465e-10
2.03228e-09
1.52244e-10
2.98522e-09
4.17721e-10
-1.31765e-09
-1.27309e-09
4.71901e-10
-7.53561e-12
-2.27222e-09
-1.14905e-09
3.92555e-09
-2.52752e-11
1.55102e-09
2.04545e-09
-4.23477e-09
1.03963e-09
3.90718e-09
4.82451e-10
-4.22276e-09
2.41419e-09
-4.44536e-09
7.23281e-09
2.09214e-09
1.22303e-08
2.86768e-09
9.52379e-09
6.24433e-09
7.0514e-09
-3.23793e-09
8.89048e-09
-4.74571e-09
3.63691e-09
3.02469e-08
-2.40686e-09
2.62182e-08
-1.46748e-09
-1.9288e-08
3.01945e-09
-3.96103e-08
3.56313e-09
-1.73927e-08
1.80479e-09
4.37651e-09
7.10945e-10
5.5538e-09
3.64022e-10
3.44925e-09
2.64923e-10
1.86365e-09
1.87311e-10
1.67911e-09
1.25904e-10
1.25595e-09
7.79835e-11
1.06205e-09
4.57878e-11
7.32503e-10
2.96441e-11
4.38038e-12
2.65593e-11
3.04703e-12
2.31981e-11
3.3868e-12
1.89475e-11
4.23381e-12
1.54662e-11
3.49125e-12
1.30647e-11
2.39484e-12
1.0982e-11
2.08811e-12
9.18231e-12
1.79414e-12
7.61373e-12
1.57379e-12
6.55211e-12
1.05667e-12
5.56451e-12
9.92043e-13
4.52133e-12
1.03901e-12
3.65117e-12
8.73708e-13
3.10707e-12
5.40821e-13
2.62309e-12
4.866e-13
2.31337e-12
3.07487e-13
1.87054e-12
4.4443e-13
1.57097e-12
2.9842e-13
1.55798e-12
1.35947e-14
1.33364e-12
2.24086e-13
1.185e-12
1.48575e-13
1.1271e-12
5.81694e-14
1.05401e-12
7.2749e-14
1.06988e-12
-1.55172e-14
9.96009e-13
7.36665e-14
1.01081e-12
-1.47181e-14
3.29287e-13
6.8163e-13
7.42369e-13
-4.13261e-13
-8.26464e-14
8.25206e-13
-8.27857e-14
3.84666e-11
1.08473e-11
3.37924e-11
7.66865e-12
2.82161e-11
8.99654e-12
2.28194e-11
9.60877e-12
1.9413e-11
6.91188e-12
1.6283e-11
5.51339e-12
1.36622e-11
4.71894e-12
1.15535e-11
3.89289e-12
9.61857e-12
3.51784e-12
8.208e-12
2.45862e-12
6.9769e-12
2.23068e-12
5.38834e-12
2.62053e-12
4.39331e-12
1.87458e-12
3.84345e-12
1.08547e-12
3.22441e-12
1.10963e-12
2.70024e-12
8.28444e-13
2.31252e-12
8.34239e-13
1.97763e-12
6.31981e-13
1.7581e-12
2.33635e-13
1.59668e-12
3.85534e-13
1.47316e-12
2.7169e-13
1.37949e-12
1.52457e-13
1.35628e-12
9.5426e-14
1.37049e-12
-2.93071e-14
1.16532e-12
2.78742e-13
1.21043e-12
-5.99242e-14
4.803e-13
1.41205e-12
7.46787e-13
-6.80055e-13
-3.60923e-13
1.93322e-12
-4.43836e-13
4.14363e-11
1.82863e-11
3.19031e-11
1.71514e-11
2.6301e-11
1.463e-11
2.28844e-11
1.3005e-11
1.98147e-11
9.99506e-12
1.66303e-11
8.68671e-12
1.39363e-11
7.42259e-12
1.19411e-11
5.87864e-12
1.01366e-11
5.33107e-12
8.09619e-12
4.49075e-12
6.39811e-12
3.93601e-12
5.503e-12
3.5089e-12
4.65499e-12
2.72816e-12
3.95967e-12
1.77583e-12
3.27904e-12
1.79404e-12
2.67794e-12
1.42653e-12
2.39407e-12
1.12005e-12
2.06358e-12
9.61262e-13
1.63017e-12
6.67482e-13
1.52353e-12
4.92245e-13
1.52427e-12
2.70531e-13
1.42514e-12
2.5219e-13
1.46337e-12
5.66919e-14
1.495e-12
-6.05586e-14
1.16266e-12
6.11017e-13
1.23009e-12
-1.27469e-13
4.94808e-13
2.14762e-12
5.88799e-13
-7.74335e-13
-5.62988e-13
3.08528e-12
-1.00694e-12
3.97252e-11
2.53984e-11
3.27137e-11
2.41147e-11
2.7663e-11
1.97102e-11
2.35297e-11
1.71192e-11
1.99203e-11
1.36172e-11
1.66616e-11
1.19349e-11
1.39294e-11
1.01641e-11
1.17432e-11
8.05562e-12
9.83203e-12
7.25067e-12
8.01238e-12
6.30248e-12
6.55239e-12
5.40292e-12
5.52993e-12
4.52494e-12
4.69518e-12
3.56821e-12
4.02521e-12
2.44109e-12
3.30671e-12
2.51611e-12
2.74977e-12
1.98065e-12
2.37686e-12
1.49475e-12
2.01759e-12
1.31943e-12
1.74529e-12
9.40139e-13
1.58591e-12
6.5173e-13
1.50908e-12
3.46945e-13
1.41977e-12
3.42075e-13
1.39871e-12
7.72761e-14
1.38299e-12
-4.44786e-14
1.18323e-12
8.10721e-13
1.2561e-12
-2.00453e-13
5.19426e-13
2.88456e-12
7.70759e-13
-1.02593e-12
-4.89781e-13
4.34607e-12
-1.49682e-12
3.91497e-11
3.23135e-11
3.28742e-11
3.03442e-11
2.79796e-11
2.46326e-11
2.36225e-11
2.14583e-11
1.98209e-11
1.74307e-11
1.65836e-11
1.51622e-11
1.38745e-11
1.2882e-11
1.15855e-11
1.03359e-11
9.66329e-12
9.18092e-12
7.99369e-12
7.9645e-12
6.59064e-12
6.81258e-12
5.54937e-12
5.56008e-12
4.78968e-12
4.33294e-12
3.97857e-12
3.24774e-12
3.26966e-12
3.22839e-12
2.74676e-12
2.5009e-12
2.34846e-12
1.89471e-12
2.00014e-12
1.66675e-12
1.76216e-12
1.17842e-12
1.59285e-12
8.21174e-13
1.49615e-12
4.43226e-13
1.41502e-12
4.23766e-13
1.37981e-12
1.12032e-13
1.33547e-12
1.90846e-16
1.18819e-12
9.57963e-13
1.26519e-12
-2.77569e-13
5.48088e-13
3.60191e-12
8.69e-13
-1.34708e-12
-5.41202e-13
5.75649e-12
-2.03812e-12
3.89132e-11
3.91457e-11
3.27744e-11
3.64389e-11
2.78485e-11
2.95849e-11
2.35067e-11
2.57831e-11
1.9658e-11
2.12909e-11
1.64734e-11
1.83371e-11
1.38024e-11
1.55617e-11
1.14163e-11
1.27136e-11
9.50876e-12
1.10961e-11
7.92758e-12
9.53842e-12
6.60552e-12
8.14095e-12
5.61909e-12
6.54066e-12
4.80078e-12
5.15607e-12
3.88212e-12
4.16216e-12
3.21905e-12
3.89463e-12
2.72293e-12
2.99452e-12
2.32045e-12
2.29874e-12
2.00369e-12
1.9826e-12
1.7653e-12
1.41707e-12
1.58209e-12
1.00455e-12
1.48094e-12
5.43963e-13
1.40336e-12
5.01877e-13
1.37933e-12
1.35642e-13
1.32907e-12
5.07553e-14
1.20706e-12
1.07994e-12
1.28099e-12
-3.516e-13
5.98168e-13
4.28496e-12
9.47887e-13
-1.69702e-12
-6.79161e-13
7.38374e-12
-2.71736e-12
3.8679e-11
4.59107e-11
3.26217e-11
4.2454e-11
2.76065e-11
3.4625e-11
2.32716e-11
3.01019e-11
1.94522e-11
2.51212e-11
1.63418e-11
2.14382e-11
1.37232e-11
1.81885e-11
1.12615e-11
1.51671e-11
9.36878e-12
1.29963e-11
7.83946e-12
1.10608e-11
6.61889e-12
9.36756e-12
5.62722e-12
7.52673e-12
4.74186e-12
6.046e-12
3.81068e-12
5.08932e-12
3.19328e-12
4.51502e-12
2.69706e-12
3.4884e-12
2.28701e-12
2.71023e-12
1.99388e-12
2.27489e-12
1.76005e-12
1.6511e-12
1.56602e-12
1.19875e-12
1.46118e-12
6.48394e-13
1.38335e-12
5.80229e-13
1.38087e-12
1.37724e-13
1.34189e-12
9.00193e-14
1.25282e-12
1.16897e-12
1.3199e-12
-4.18768e-13
6.56195e-13
4.94887e-12
1.0347e-12
-2.07571e-12
-8.31407e-13
9.25003e-12
-3.54885e-12
3.84024e-11
5.26241e-11
3.23938e-11
4.84223e-11
2.7303e-11
3.97395e-11
2.29897e-11
3.43999e-11
1.92271e-11
2.88943e-11
1.61465e-11
2.45099e-11
1.35508e-11
2.07922e-11
1.12315e-11
1.74786e-11
9.30918e-12
1.49257e-11
7.74661e-12
1.26167e-11
6.65271e-12
1.04673e-11
5.58936e-12
8.58473e-12
4.63448e-12
7.00524e-12
3.76467e-12
5.95531e-12
3.18037e-12
5.10215e-12
2.68485e-12
3.98173e-12
2.27236e-12
3.12405e-12
1.97953e-12
2.56696e-12
1.74811e-12
1.8827e-12
1.55266e-12
1.39438e-12
1.44862e-12
7.52025e-13
1.36687e-12
6.62482e-13
1.38278e-12
1.21435e-13
1.3548e-12
1.18272e-13
1.31011e-12
1.21363e-12
1.36883e-12
-4.77566e-13
6.53945e-13
5.66393e-12
1.08438e-12
-2.50632e-12
-8.87794e-13
1.12224e-11
-4.43673e-12
3.80476e-11
5.92952e-11
3.21082e-11
5.43232e-11
2.6995e-11
4.4875e-11
2.27095e-11
3.86709e-11
1.90034e-11
3.26102e-11
1.59468e-11
2.7558e-11
1.33863e-11
2.33602e-11
1.11551e-11
1.97023e-11
9.26252e-12
1.68251e-11
7.71395e-12
1.41589e-11
6.55757e-12
1.16291e-11
5.46957e-12
9.66763e-12
4.52089e-12
7.95806e-12
3.7173e-12
6.75527e-12
3.14185e-12
5.68027e-12
2.65672e-12
4.46479e-12
2.25106e-12
3.53094e-12
1.95063e-12
2.86671e-12
1.7245e-12
2.10895e-12
1.53385e-12
1.58524e-12
1.43621e-12
8.4927e-13
1.35198e-12
7.47192e-13
1.38275e-12
9.03021e-14
1.36398e-12
1.37303e-13
1.37003e-12
1.20755e-12
1.41833e-12
-5.25917e-13
6.76518e-13
6.40589e-12
1.17496e-12
-3.00491e-12
-9.78722e-13
1.33762e-11
-5.41553e-12
3.76262e-11
6.59323e-11
3.17617e-11
6.01509e-11
2.66735e-11
4.99844e-11
2.242e-11
4.29105e-11
1.87846e-11
3.6255e-11
1.57549e-11
3.05795e-11
1.32138e-11
2.59087e-11
1.10264e-11
2.18825e-11
9.17989e-12
1.86781e-11
7.66064e-12
1.5672e-11
6.44204e-12
1.2853e-11
5.35773e-12
1.07471e-11
4.41689e-12
8.90284e-12
3.66339e-12
7.50533e-12
3.08457e-12
6.2616e-12
2.61589e-12
4.93155e-12
2.22941e-12
3.91855e-12
1.92444e-12
3.17106e-12
1.70606e-12
2.32743e-12
1.5182e-12
1.77332e-12
1.43077e-12
9.36309e-13
1.3443e-12
8.34126e-13
1.38014e-12
5.41206e-14
1.36914e-12
1.48545e-13
1.39811e-12
1.17854e-12
1.4346e-12
-5.6245e-13
6.79836e-13
7.16078e-12
1.13289e-12
-3.45811e-12
-1.23531e-12