/*--------------------------------*- C++ -*----------------------------------*\
| =========                 |                                                 |
| \\      /  F ield         | OpenFOAM: The Open Source CFD Toolbox           |
|  \\    /   O peration     | Version:  2.4.0                                 |
|   \\  /    A nd           | Web:      www.OpenFOAM.org                      |
|    \\/     M anipulation  |                                                 |
\*---------------------------------------------------------------------------*/
FoamFile
{
    version     2.0;
    format      ascii;
    class       surfaceScalarField;
    location    "0.073";
    object      phiAlpha;
}
// * * * * * * * * * * * * * * * * * * * * * * * * * * * * * * * * * * * * * //

dimensions      [0 3 -1 0 0 0 0];

internalField   nonuniform List<scalar> 
7080
(
2.82385e-13
-2.82368e-13
8.03053e-13
-5.20866e-13
9.10772e-13
-1.08238e-13
6.62196e-13
2.47858e-13
1.00839e-13
5.60549e-13
-1.23458e-12
1.33524e-12
-3.19878e-12
1.96424e-12
-7.66261e-12
4.46438e-12
-1.20911e-11
4.43043e-12
-2.32126e-11
1.11241e-11
-3.3179e-11
9.97011e-12
-5.87672e-11
2.55914e-11
-8.18571e-11
2.30954e-11
-1.34608e-10
5.27545e-11
-1.82471e-10
4.78664e-11
-2.6915e-10
8.66813e-11
-3.50124e-10
8.09795e-11
-4.8095e-10
1.30815e-10
-5.33277e-10
5.2337e-11
-4.97797e-10
-3.54956e-11
-2.87213e-10
-2.10572e-10
-8.63461e-11
-2.00888e-10
6.55811e-11
-1.51919e-10
1.43038e-10
-7.74652e-11
1.52017e-10
-8.9831e-12
1.39869e-10
1.21471e-11
1.08938e-10
3.09302e-11
8.155e-11
2.7383e-11
5.44052e-11
2.7147e-11
2.04017e-11
3.40052e-11
-3.85705e-13
1.03107e-13
-1.70721e-12
7.99935e-13
-4.18181e-12
2.36562e-12
-8.3137e-12
4.37903e-12
-1.39531e-11
6.20018e-12
-2.22652e-11
9.6498e-12
-3.18622e-11
1.15636e-11
-4.66702e-11
1.92751e-11
-6.22543e-11
2.00204e-11
-8.89845e-11
3.78601e-11
-1.13744e-10
3.47369e-11
-1.61215e-10
7.30679e-11
-2.00232e-10
6.2122e-11
-2.77672e-10
1.302e-10
-3.36044e-10
1.06245e-10
-4.38129e-10
1.88765e-10
-5.11493e-10
1.54355e-10
-6.27857e-10
2.47152e-10
-6.34029e-10
5.85313e-11
-5.38714e-10
-1.30847e-10
-2.69062e-10
-4.80206e-10
-2.09257e-11
-4.49053e-10
1.42291e-10
-3.15131e-10
2.20642e-10
-1.55824e-10
2.16387e-10
-4.73347e-12
1.92055e-10
3.64731e-11
1.46009e-10
7.69778e-11
1.07687e-10
6.57016e-11
7.11697e-11
6.36628e-11
4.66936e-11
4.48863e-11
-4.57296e-13
5.60199e-13
-2.064e-12
2.40612e-12
-4.80841e-12
5.1097e-12
-9.14473e-12
8.71518e-12
-1.51591e-11
1.22155e-11
-2.41343e-11
1.86282e-11
-3.49595e-11
2.23916e-11
-5.12592e-11
3.55776e-11
-6.90739e-11
3.7841e-11
-9.79544e-11
6.67458e-11
-1.25139e-10
6.19277e-11
-1.7498e-10
1.22913e-10
-2.15508e-10
1.0266e-10
-2.9444e-10
2.09137e-10
-3.51829e-10
1.6364e-10
-4.51998e-10
2.88931e-10
-5.20817e-10
2.23187e-10
-6.34325e-10
3.60633e-10
-6.35348e-10
5.95757e-11
-5.30945e-10
-2.35284e-10
-2.52611e-10
-7.58521e-10
2.15303e-12
-7.03844e-10
1.62063e-10
-4.75038e-10
2.36655e-10
-2.30424e-10
2.27945e-10
3.97102e-12
2.00313e-10
6.41003e-11
1.51469e-10
1.25823e-10
1.1114e-10
1.06027e-10
7.33399e-11
1.01462e-10
7.12143e-11
4.88283e-11
-2.12497e-13
7.72572e-13
-1.30256e-12
3.49593e-12
-3.63223e-12
7.43944e-12
-7.55206e-12
1.26354e-11
-1.33048e-11
1.79697e-11
-2.2032e-11
2.73593e-11
-3.31411e-11
3.35042e-11
-4.9353e-11
5.17928e-11
-6.77802e-11
5.62743e-11
-9.62071e-11
9.51778e-11
-1.24049e-10
8.97761e-11
-1.73406e-10
1.72273e-10
-2.14793e-10
1.44057e-10
-2.93581e-10
2.87927e-10
-3.51891e-10
2.21957e-10
-4.51565e-10
3.88602e-10
-5.21629e-10
2.93264e-10
-6.39857e-10
4.78835e-10
-6.43946e-10
6.36861e-11
-5.35482e-10
-3.43781e-10
-2.48382e-10
-1.04561e-09
1.07566e-11
-9.63008e-10
1.70223e-10
-6.34502e-10
2.42031e-10
-3.02239e-10
2.30845e-10
1.51514e-11
2.01651e-10
9.32889e-11
1.52073e-10
1.75401e-10
1.11438e-10
1.4666e-10
7.32931e-11
1.39605e-10
9.77247e-11
4.67922e-11
-2.58694e-13
1.03122e-12
-1.36162e-12
4.59891e-12
-3.66144e-12
9.73989e-12
-7.5236e-12
1.64988e-11
-1.32259e-11
2.36745e-11
-2.16715e-11
3.58097e-11
-3.30305e-11
4.48675e-11
-4.84443e-11
6.72103e-11
-6.80056e-11
7.58418e-11
-9.46818e-11
1.21859e-10
-1.24002e-10
1.19102e-10
-1.7192e-10
2.20194e-10
-2.15082e-10
1.87227e-10
-2.93535e-10
3.66383e-10
-3.54046e-10
2.82473e-10
-4.53562e-10
4.88115e-10
-5.25968e-10
3.65682e-10
-6.51302e-10
6.04145e-10
-6.59814e-10
7.22168e-11
-5.4599e-10
-4.57635e-10
-2.4658e-10
-1.345e-09
1.93162e-11
-1.22893e-09
1.78087e-10
-7.93271e-10
2.46692e-10
-3.7085e-10
2.32809e-10
2.90294e-11
2.02111e-10
1.23982e-10
1.52005e-10
2.25508e-10
1.11207e-10
1.87455e-10
7.3027e-11
1.77783e-10
1.2474e-10
4.60215e-11
-3.03622e-13
1.3349e-12
-1.4649e-12
5.76057e-12
-3.81633e-12
1.20926e-11
-7.67632e-12
2.03607e-11
-1.35651e-11
2.95665e-11
-2.15196e-11
4.37697e-11
-3.38689e-11
5.72214e-11
-4.77556e-11
8.11007e-11
-6.89786e-11
9.70704e-11
-9.34774e-11
1.46361e-10
-1.25182e-10
1.50811e-10
-1.70164e-10
2.65177e-10
-2.1695e-10
2.34022e-10
-2.93703e-10
4.43137e-10
-3.57903e-10
3.4668e-10
-4.56985e-10
5.87193e-10
-5.3217e-10
4.40879e-10
-6.66701e-10
7.38652e-10
-6.80791e-10
8.6323e-11
-5.59905e-10
-5.78547e-10
-2.44574e-10
-1.66032e-09
3.00628e-11
-1.50358e-09
1.87702e-10
-9.5091e-10
2.52217e-10
-4.35371e-10
2.34993e-10
4.62475e-11
2.02498e-10
1.56473e-10
1.51801e-10
2.76205e-10
1.10822e-10
2.28432e-10
7.27008e-11
2.15902e-10
1.51747e-10
4.57036e-11
-3.16876e-13
1.65194e-12
-1.49449e-12
6.93884e-12
-3.9117e-12
1.45114e-11
-7.61747e-12
2.40689e-11
-1.40263e-11
3.59788e-11
-2.13949e-11
5.11437e-11
-3.46075e-11
7.04381e-11
-4.75073e-11
9.40029e-11
-6.97944e-11
1.19361e-10
-9.29717e-11
1.6954e-10
-1.25697e-10
1.83538e-10
-1.69114e-10
3.08593e-10
-2.19655e-10
2.84569e-10
-2.94194e-10
5.17676e-10
-3.63648e-10
4.1614e-10
-4.61324e-10
6.84864e-10
-5.39596e-10
5.19162e-10
-6.85704e-10
8.84739e-10
-7.06758e-10
1.07391e-10
-5.76976e-10
-7.08352e-10
-2.41868e-10
-1.99542e-09
4.35138e-11
-1.78899e-09
1.99442e-10
-1.10684e-09
2.5884e-10
-4.94773e-10
2.37556e-10
6.7525e-11
2.02918e-10
1.91106e-10
1.51533e-10
3.27591e-10
1.10343e-10
2.69619e-10
7.23095e-11
2.53934e-10
1.78662e-10
4.54037e-11
-4.45744e-13
2.09793e-12
-1.7209e-12
8.21473e-12
-4.15859e-12
1.69507e-11
-7.66652e-12
2.75789e-11
-1.43595e-11
4.26747e-11
-2.14129e-11
5.82012e-11
-3.54929e-11
8.452e-11
-4.74492e-11
1.05959e-10
-7.08304e-11
1.42743e-10
-9.27181e-11
1.91425e-10
-1.25977e-10
2.16796e-10
-1.68546e-10
3.51156e-10
-2.21707e-10
3.37735e-10
-2.96074e-10
5.92039e-10
-3.71688e-10
4.9176e-10
-4.66435e-10
7.79606e-10
-5.47953e-10
6.0069e-10
-7.08379e-10
1.04514e-09
-7.38088e-10
1.37112e-10
-5.9736e-10
-8.49099e-10
-2.38271e-10
-2.3545e-09
5.99445e-11
-2.08722e-09
2.13434e-10
-1.26033e-09
2.66579e-10
-5.47921e-10
2.4049e-10
9.36077e-11
2.03366e-10
2.28226e-10
1.51201e-10
3.79756e-10
1.09776e-10
3.11042e-10
7.18458e-11
2.91862e-10
2.05441e-10
4.5077e-11
-4.82531e-13
2.58074e-12
-1.74623e-12
9.47907e-12
-4.17888e-12
1.93846e-11
-7.33354e-12
3.07349e-11
-1.4684e-11
5.00264e-11
-2.09195e-11
6.44382e-11
-3.62626e-11
9.98615e-11
-4.70073e-11
1.16698e-10
-7.16232e-11
1.67354e-10
-9.25923e-11
2.12386e-10
-1.25957e-10
2.50154e-10
-1.68047e-10
3.93237e-10
-2.23527e-10
3.93217e-10
-2.98965e-10
6.67471e-10
-3.79092e-10
5.71892e-10
-4.7224e-10
8.72748e-10
-5.56867e-10
6.85324e-10
-7.34822e-10
1.22308e-09
-7.75237e-10
1.77535e-10
-6.21262e-10
-1.00309e-09
-2.33585e-10
-2.74218e-09
7.96364e-11
-2.40045e-09
2.29773e-10
-1.41047e-09
2.75404e-10
-5.93554e-10
2.43745e-10
1.2526e-10
2.03804e-10
2.68164e-10
1.50784e-10
4.32777e-10
1.09108e-10
3.52715e-10
7.1299e-11
3.29669e-10
2.32068e-10
4.46812e-11
-4.63026e-13
3.04397e-12
-1.71415e-12
1.07302e-11
-4.36293e-12
2.20332e-11
-7.79048e-12
3.41612e-11
-1.57732e-11
5.80069e-11
-2.18636e-11
7.05255e-11
-3.8135e-11
1.16126e-10
-4.79434e-11
1.26495e-10
-7.39697e-11
1.93369e-10
-9.30279e-11
2.31429e-10
-1.25926e-10
2.8304e-10
-1.6747e-10
4.34766e-10
-2.25316e-10
4.5106e-10
-3.02679e-10
7.44825e-10
-3.87236e-10
6.56453e-10
-4.78684e-10
9.64189e-10
-5.66049e-10
7.72695e-10
-7.65244e-10
1.42226e-09
-8.18934e-10
2.31229e-10
-6.4906e-10
-1.17298e-09
-2.27624e-10
-3.16361e-09
1.02935e-10
-2.73103e-09
2.48603e-10
-1.55614e-09
2.85322e-10
-6.30274e-10
2.47304e-10
1.63272e-10
2.04228e-10
3.11236e-10
1.50284e-10
4.86721e-10
1.08348e-10
3.94648e-10
7.06726e-11
3.67343e-10
2.58523e-10
4.42269e-11
-4.52393e-13
3.49633e-12
-1.79767e-12
1.20744e-11
-5.02093e-12
2.52538e-11
-7.79334e-12
3.69286e-11
-1.64528e-11
6.66591e-11
-1.93857e-11
7.34489e-11
-3.81195e-11
1.34846e-10
-4.57796e-11
1.34137e-10
-7.36626e-11
2.21234e-10
-9.26513e-11
2.50397e-10
-1.24286e-10
3.14656e-10
-1.66589e-10
4.7705e-10
-2.27022e-10
5.11487e-10
-3.07196e-10
8.24986e-10
-3.96471e-10
7.4573e-10
-4.85498e-10
1.05321e-09
-5.75118e-10
8.62317e-10
-7.99832e-10
1.64696e-09
-8.69982e-10
3.0138e-10
-6.81139e-10
-1.36183e-09
-2.20138e-10
-3.62462e-09
1.30247e-10
-3.08142e-09
2.70068e-10
-1.69597e-09
2.9631e-10
-6.56517e-10
2.51123e-10
2.08452e-10
2.04614e-10
3.57742e-10
1.49694e-10
5.41642e-10
1.07493e-10
4.36846e-10
6.9966e-11
4.04868e-10
2.84782e-10
4.37164e-11
-4.9189e-13
3.98778e-12
-1.9277e-12
1.35076e-11
-5.49844e-12
2.8819e-11
-8.24903e-12
3.96701e-11
-1.75358e-11
7.59335e-11
-2.11472e-11
7.70449e-11
-4.21758e-11
1.55854e-10
-5.00544e-11
1.41991e-10
-7.96409e-11
2.50796e-10
-9.56456e-11
2.66375e-10
-1.25176e-10
3.44164e-10
-1.6542e-10
5.17268e-10
-2.28794e-10
5.74852e-10
-3.12523e-10
9.08698e-10
-4.07102e-10
8.4031e-10
-4.92497e-10
1.1386e-09
-5.83483e-10
9.53303e-10
-8.38578e-10
1.90205e-09
-9.29292e-10
3.92089e-10
-7.17894e-10
-1.57323e-09
-2.1081e-10
-4.13171e-09
1.62043e-10
-3.45428e-09
2.94302e-10
-1.82824e-09
3.08307e-10
-6.70521e-10
2.55129e-10
2.61623e-10
2.04914e-10
4.07954e-10
1.48987e-10
5.97569e-10
1.0653e-10
4.79301e-10
6.91767e-11
4.42219e-10
3.10821e-10
4.31473e-11
-2.47942e-13
4.23471e-12
-1.1498e-12
1.44054e-11
-4.05978e-12
3.17205e-11
-3.73429e-12
3.93319e-11
-1.41231e-11
8.63061e-11
-1.30165e-11
7.59176e-11
-3.99654e-11
1.82778e-10
-4.39181e-11
1.45915e-10
-7.59645e-11
2.82815e-10
-9.28941e-11
2.83274e-10
-1.18432e-10
3.69676e-10
-1.62851e-10
5.61658e-10
-2.29838e-10
6.41825e-10
-3.18771e-10
9.97612e-10
-4.19255e-10
9.40792e-10
-4.99151e-10
1.21849e-09
-5.90675e-10
1.04482e-09
-8.81688e-10
2.19306e-09
-9.9815e-10
5.08543e-10
-7.59943e-10
-1.81144e-09
-1.99307e-10
-4.69235e-09
1.98901e-10
-3.8525e-09
3.21508e-10
-1.95085e-09
3.21294e-10
-6.70306e-10
2.5928e-10
3.2363e-10
2.05115e-10
4.62117e-10
1.48166e-10
6.54518e-10
1.05466e-10
5.21999e-10
6.83172e-11
4.79365e-10
3.36629e-10
4.25175e-11
-4.38169e-13
4.67124e-12
-8.93927e-13
1.48558e-11
-4.08366e-12
3.49003e-11
-4.57017e-12
3.9804e-11
-1.84239e-11
1.00142e-10
-1.94357e-11
7.69085e-11
-5.07296e-11
2.14047e-10
-5.56942e-11
1.50853e-10
-8.96817e-11
3.16777e-10
-1.03408e-10
2.9697e-10
-1.23941e-10
3.90183e-10
-1.61217e-10
5.98903e-10
-2.32122e-10
7.12716e-10
-3.26131e-10
1.0916e-09
-4.33731e-10
1.04839e-09
-5.0564e-10
1.29039e-09
-5.95673e-10
1.13485e-09
-9.28892e-10
2.52628e-09
-1.07805e-09
6.57686e-10
-8.07917e-10
-2.08156e-09
-1.85207e-10
-5.31507e-09
2.41504e-10
-4.27922e-09
3.51888e-10
-2.06124e-09
3.35213e-10
-6.5363e-10
2.63507e-10
3.95329e-10
2.05184e-10
5.20437e-10
1.47219e-10
7.12484e-10
1.04296e-10
5.64919e-10
6.73886e-11
5.16271e-10
3.62202e-10
4.18239e-11
1.9634e-13
4.47292e-12
2.94501e-13
1.47526e-11
-3.19086e-12
3.83762e-11
2.56793e-12
3.40326e-11
-1.3283e-11
1.15978e-10
-3.41744e-12
6.70257e-11
-4.24212e-11
2.53035e-10
-4.21483e-11
1.50561e-10
-7.93249e-11
3.53937e-10
-9.48346e-11
3.12457e-10
-1.04871e-10
4.00199e-10
-1.52114e-10
6.46116e-10
-2.2996e-10
7.90547e-10
-3.34346e-10
1.19596e-09
-4.50206e-10
1.16425e-09
-5.10621e-10
1.3508e-09
-5.97982e-10
1.2222e-09
-9.80842e-10
2.90914e-09
-1.17074e-09
8.4757e-10
-8.62542e-10
-2.38976e-09
-1.67994e-10
-6.00964e-09
2.90643e-10
-4.73786e-09
3.85633e-10
-2.15624e-09
3.49957e-10
-6.17951e-10
2.677e-10
4.77579e-10
2.05064e-10
5.83072e-10
1.46119e-10
7.71428e-10
1.0301e-10
6.08026e-10
6.63853e-11
5.52894e-10
3.87521e-10
4.10745e-11
-1.39476e-12
5.86556e-12
5.22834e-13
1.28309e-11
-3.76575e-12
4.26586e-11
2.55687e-12
2.77035e-11
-2.13379e-11
1.39869e-10
-1.43635e-11
6.00475e-11
-6.3523e-11
3.02192e-10
-6.77555e-11
1.54789e-10
-1.08337e-10
3.94517e-10
-1.21662e-10
3.25769e-10
-1.20985e-10
3.99511e-10
-1.50922e-10
6.76027e-10
-2.34655e-10
8.74267e-10
-3.45779e-10
1.30706e-09
-4.70185e-10
1.28864e-09
-5.14404e-10
1.39502e-09
-5.95215e-10
1.30299e-09
-1.03678e-09
3.35071e-09
-1.27873e-09
1.0895e-09
-9.24727e-10
-2.74375e-09
-1.47098e-10
-6.78728e-09
3.47341e-10
-5.2323e-09
4.23019e-10
-2.23193e-09
3.65457e-10
-5.60385e-10
2.71786e-10
5.71243e-10
2.04733e-10
6.50124e-10
1.44869e-10
8.31292e-10
1.01613e-10
6.5128e-10
6.53128e-11
5.89192e-10
4.12555e-10
4.02867e-11
2.07286e-12
3.79187e-12
6.65973e-12
8.24268e-12
-4.0538e-12
5.33734e-11
2.2743e-11
9.11045e-13
-8.00455e-13
1.6342e-10
2.55622e-11
3.36956e-11
-4.28983e-11
3.70667e-10
-4.64661e-11
1.58371e-10
-8.80871e-11
4.36155e-10
-1.02668e-10
3.40356e-10
-7.80049e-11
3.74852e-10
-1.25421e-10
7.23425e-10
-2.2385e-10
9.72684e-10
-3.55345e-10
1.43853e-09
-4.94916e-10
1.42821e-09
-5.17883e-10
1.41799e-09
-5.88513e-10
1.3736e-09
-1.09954e-09
3.86175e-09
-1.40564e-09
1.39557e-09
-9.95715e-10
-3.15366e-09
-1.21814e-10
-7.6612e-09
4.12985e-10
-5.7671e-09
4.64314e-10
-2.28327e-09
3.81592e-10
-4.7766e-10
2.75654e-10
6.77175e-10
2.04146e-10
7.2163e-10
1.43455e-10
8.91983e-10
1.00103e-10
6.9463e-10
6.41696e-11
6.25124e-10
4.37269e-10
3.94634e-11
-7.65615e-13
4.55642e-12
1.21524e-11
-4.66943e-12
-1.26377e-11
7.81735e-11
2.33983e-11
-3.51079e-11
-1.90041e-11
2.05848e-10
2.87763e-12
1.18441e-11
-8.57401e-11
4.59319e-10
-9.79219e-11
1.70582e-10
-1.46217e-10
4.84484e-10
-1.63332e-10
3.57488e-10
-1.1624e-10
3.27777e-10
-1.29742e-10
7.36915e-10
-2.36405e-10
1.07934e-09
-3.74812e-10
1.57691e-09
-5.21199e-10
1.57458e-09
-5.11302e-10
1.40809e-09
-5.69281e-10
1.43156e-09
-1.16516e-09
4.45765e-09
-1.55551e-09
1.78591e-09
-1.0764e-09
-3.63276e-09
-9.13575e-11
-8.64626e-09
4.90479e-10
-6.34894e-09
5.09756e-10
-2.30256e-09
3.98172e-10
-3.66072e-10
2.79148e-10
7.96192e-10
2.03238e-10
7.9754e-10
1.4185e-10
9.53371e-10
9.84676e-11
7.3801e-10
6.29484e-11
6.60641e-10
4.61626e-10
3.85982e-11
2.04359e-11
-1.58779e-11
9.71511e-11
-8.13643e-11
6.95892e-11
1.05752e-10
1.38287e-10
-1.03785e-10
5.88593e-11
2.85299e-10
8.59902e-11
-1.52467e-11
-4.29506e-11
5.88263e-10
-7.58812e-11
2.03545e-10
-1.12578e-10
5.2122e-10
-1.27154e-10
3.72092e-10
-2.50015e-11
2.25653e-10
-6.18866e-11
7.73803e-10
-2.04615e-10
1.22206e-09
-3.87719e-10
1.75999e-09
-5.62606e-10
1.74946e-09
-5.19228e-10
1.36472e-09
-5.50743e-10
1.46305e-09
-1.243e-09
5.14992e-09
-1.73105e-09
2.27394e-09
-1.16918e-09
-4.19462e-09
-5.47451e-11
-9.7607e-09
5.8019e-10
-6.98387e-09
5.5971e-10
-2.28209e-09
4.15031e-10
-2.21389e-10
2.82144e-10
9.29074e-10
2.01974e-10
8.77709e-10
1.40054e-10
1.01529e-09
9.67141e-11
7.81348e-10
6.16533e-11
6.957e-10
4.85595e-10
3.76902e-11
4.95279e-11
-6.54029e-11
2.72491e-10
-3.04288e-10
1.21125e-10
2.57125e-10
2.15108e-10
-1.97785e-10
2.79224e-11
4.72507e-10
3.64375e-11
-2.37228e-11
-1.52923e-10
7.77647e-10
-1.85119e-10
2.3574e-10
-2.21603e-10
5.57735e-10
-2.47777e-10
3.98291e-10
-1.05999e-10
8.39069e-11
-8.77051e-11
7.55516e-10
-2.349e-10
1.36925e-09
-4.18765e-10
1.94383e-09
-5.96103e-10
1.92678e-09
-4.86054e-10
1.25468e-09
-4.95213e-10
1.47218e-09
-1.31745e-09
5.97217e-09
-1.93001e-09
2.88648e-09
-1.27422e-09
-4.85039e-09
-1.18348e-11
-1.10231e-08
6.79822e-10
-7.67553e-09
6.14447e-10
-2.21672e-09
4.31906e-10
-3.88452e-11
2.84463e-10
1.07651e-09
2.003e-10
9.61871e-10
1.38055e-10
1.07754e-09
9.48404e-11
8.24561e-10
6.0283e-11
7.30256e-10
5.09149e-10
3.67352e-11
7.8161e-11
-1.43555e-10
4.6955e-10
-6.90098e-10
5.02042e-10
2.26109e-10
5.88537e-10
-2.84556e-10
3.06492e-10
7.54445e-10
2.79558e-10
3.26649e-12
-8.77315e-11
1.14495e-09
-1.94178e-10
3.422e-10
-1.87523e-10
5.5109e-10
-1.88863e-10
3.99635e-10
6.62729e-11
-1.71206e-10
8.56201e-11
7.36188e-10
-1.56547e-10
1.61142e-09
-4.43001e-10
2.23027e-09
-6.69763e-10
2.15353e-09
-5.09507e-10
1.09443e-09
-4.65006e-10
1.42765e-09
-1.41741e-09
6.92459e-09
-2.16691e-09
3.63596e-09
-1.39763e-09
-5.61966e-09
4.74647e-11
-1.24682e-08
7.93945e-10
-8.42201e-09
6.74502e-10
-2.09729e-09
4.48519e-10
1.87142e-10
2.8588e-10
1.23915e-09
1.98144e-10
1.04961e-09
1.35828e-10
1.13985e-09
9.28367e-11
8.67551e-10
5.88319e-11
7.64259e-10
5.32262e-10
3.57254e-11
-6.01871e-11
-8.27089e-11
3.28877e-11
-7.83082e-10
5.21836e-11
2.06086e-10
1.33517e-10
-3.64337e-10
-8.29261e-11
9.71286e-10
-2.38391e-11
-5.5835e-11
9.5448e-12
1.11162e-09
-3.17715e-10
6.6946e-10
-3.46553e-10
5.79927e-10
-4.03808e-10
4.56892e-10
-7.79678e-11
-4.97029e-10
1.12575e-11
6.46982e-10
-2.21116e-10
1.84379e-09
-4.89028e-10
2.49816e-09
-7.10509e-10
2.37499e-09
-4.27869e-10
8.11807e-10
-3.40734e-10
1.34048e-09
-1.4943e-09
8.07818e-09
-2.42943e-09
4.57108e-09
-1.53388e-09
-6.51519e-09
1.16652e-10
-1.41188e-08
9.22643e-10
-9.228e-09
7.39465e-10
-1.91412e-09
4.64379e-10
4.62233e-10
2.86149e-10
1.41737e-09
1.95467e-10
1.14029e-09
1.33376e-10
1.20194e-09
9.07106e-11
9.10214e-10
5.73069e-11
7.97661e-10
5.54906e-10
3.46681e-11
-1.74806e-10
9.28069e-11
-5.24885e-10
-4.32959e-10
-5.89197e-10
2.70571e-10
-1.78887e-10
-7.79342e-10
-4.44038e-10
1.23644e-09
-2.88972e-10
-2.1089e-10
-5.13317e-10
1.33599e-09
-7.1324e-10
8.69349e-10
-3.40585e-10
2.07266e-10
-2.74744e-10
3.91042e-10
2.35949e-10
-1.00772e-09
4.02086e-10
4.80871e-10
-4.74263e-11
2.2933e-09
-5.48732e-10
2.99945e-09
-8.47468e-10
2.67371e-09
-4.74854e-10
4.39207e-10
-2.98995e-10
1.16459e-09
-1.62953e-09
9.40873e-09
-2.76067e-09
5.70221e-09
-1.70264e-09
-7.57321e-09
2.02179e-10
-1.60236e-08
1.07335e-09
-1.00992e-08
8.11769e-10
-1.65256e-09
4.795e-10
7.94506e-10
2.84985e-10
1.61188e-09
1.92218e-10
1.23305e-09
1.30692e-10
1.26347e-09
8.84622e-11
9.52444e-10
5.57081e-11
8.30414e-10
5.77056e-10
3.35624e-11
2.44013e-11
6.8449e-11
-3.00205e-10
-1.08282e-10
-5.58276e-10
5.28815e-10
-1.50728e-10
-1.19583e-09
1.83265e-10
9.02437e-10
-1.74304e-11
-1.02113e-11
-1.86731e-10
1.50532e-09
-5.97758e-10
1.28039e-09
-7.42429e-10
3.51948e-10
-6.23414e-10
2.72019e-10
3.2688e-12
-1.63441e-09
2.33852e-10
2.50312e-10
-1.98049e-10
2.7252e-09
-6.09472e-10
3.41086e-09
-8.92709e-10
2.95693e-09
-3.27691e-10
-1.25793e-10
-6.34712e-11
9.00336e-10
-1.69484e-09
1.10401e-08
-3.10667e-09
7.11403e-09
-1.87807e-09
-8.80179e-09
2.99845e-10
-1.82015e-08
1.24004e-09
-1.10394e-08
8.8705e-10
-1.29958e-09
4.92092e-10
1.18947e-09
2.81677e-10
1.8223e-09
1.883e-10
1.32643e-09
1.27748e-10
1.32402e-09
8.60753e-11
9.94115e-10
5.40289e-11
8.62459e-10
5.98679e-10
3.24103e-11
-5.68196e-11
1.25676e-10
-3.65078e-10
2.02569e-10
-7.46987e-10
9.08648e-10
-4.13942e-10
-1.52888e-09
1.06856e-10
3.81619e-10
-1.25603e-10
2.22257e-10
-1.95609e-10
1.57536e-09
-2.12464e-10
1.29728e-09
-4.39957e-10
5.79461e-10
-4.64452e-10
2.96514e-10
6.09599e-10
-2.70846e-09
1.05115e-09
-1.91217e-10
1.77902e-10
3.59847e-09
-7.59834e-10
4.34858e-09
-1.14412e-09
3.34119e-09
-3.84712e-10
-8.85182e-10
-3.0853e-12
5.18674e-10
-1.88973e-09
1.29268e-08
-3.5811e-09
8.8054e-09
-2.1171e-09
-1.02658e-08
4.20676e-10
-2.07393e-08
1.43929e-09
-1.2058e-08
9.74565e-10
-8.34863e-10
5.04536e-10
1.6595e-09
2.76329e-10
2.0505e-09
1.8376e-10
1.419e-09
1.2461e-10
1.38317e-09
8.36017e-11
1.03512e-09
5.22991e-11
8.93761e-10
6.19757e-10
3.12244e-11
-7.1114e-11
1.96813e-10
-3.80827e-10
5.12314e-10
-5.36534e-10
1.0659e-09
-3.47216e-10
-1.71853e-09
-3.96809e-10
4.30231e-10
-7.60738e-10
5.86282e-10
-1.08795e-09
1.9026e-09
-1.18342e-09
1.39274e-09
-7.16036e-10
1.12094e-10
-1.02535e-09
6.05834e-10
2.73128e-10
-4.00693e-09
6.77718e-10
-5.95806e-10
-1.30496e-10
4.40671e-09
-8.27985e-10
5.04607e-09
-1.18488e-09
3.69807e-09
-1.68243e-10
-1.9018e-09
4.32549e-10
-8.21516e-11
-1.9205e-09
1.52798e-08
-4.04285e-09
1.09278e-08
-2.33724e-09
-1.19714e-08
5.69448e-10
-2.3646e-08
1.65939e-09
-1.31479e-08
1.06002e-09
-2.35498e-10
5.1007e-10
2.20945e-09
2.691e-10
2.29147e-09
1.78314e-10
1.50978e-09
1.21122e-10
1.44036e-09
8.09203e-11
1.07532e-09
5.04398e-11
9.2424e-10
6.4023e-10
2.99699e-11
3.54605e-10
-1.59814e-10
2.3326e-11
8.43508e-10
-4.42156e-10
1.5312e-09
-7.61018e-10
-1.40001e-09
-9.9757e-10
6.6616e-10
-8.00503e-10
3.8934e-10
-3.3049e-10
1.4326e-09
-3.12022e-10
1.37426e-09
3.21092e-10
-5.21026e-10
-7.00043e-10
1.62696e-09
1.14269e-09
-5.84966e-09
2.07765e-09
-1.53076e-09
2.8094e-10
6.2034e-09
-1.14693e-09
6.47393e-09
-1.57692e-09
4.12805e-09
-1.58273e-10
-3.32043e-09
5.81614e-10
-8.22071e-10
-2.18052e-09
1.8042e-08
-4.69613e-09
1.34434e-08
-2.67737e-09
-1.39902e-08
7.21013e-10
-2.70444e-08
1.90813e-09
-1.43351e-08
1.16193e-09
5.10698e-10
5.18959e-10
2.85242e-09
2.61235e-10
2.54919e-09
1.72662e-10
1.59836e-09
1.17764e-10
1.49526e-09
7.8394e-11
1.11469e-09
4.86871e-11
9.53946e-10
6.60147e-10
2.87725e-11
6.58926e-10
-8.62743e-10
4.44778e-10
9.21459e-10
2.1866e-10
1.75714e-09
-1.21897e-11
-1.15691e-09
3.45136e-10
3.08433e-10
-5.61196e-11
7.90571e-10
-4.03124e-10
1.77963e-09
-1.20372e-09
2.17478e-09
-1.0878e-10
-1.61596e-09
-5.41121e-10
2.0593e-09
4.0041e-10
-6.79119e-09
2.70175e-09
-3.83211e-09
1.76138e-09
7.14373e-09
-7.84383e-10
9.01969e-09
-1.22812e-09
4.57178e-09
3.29721e-10
-4.87828e-09
1.41629e-09
-1.90866e-09
-1.9777e-09
2.1436e-08
-5.14105e-09
1.66068e-08
-2.88806e-09
-1.62432e-08
9.89479e-10
-3.09219e-08
2.23949e-09
-1.55851e-08
1.27131e-09
1.47887e-09
5.14891e-10
3.60884e-09
2.4903e-10
2.81505e-09
1.666e-10
1.68079e-09
1.14626e-10
1.54724e-09
7.59569e-11
1.15336e-09
4.69431e-11
9.82959e-10
6.79569e-10
2.75226e-11
4.58947e-10
-6.28015e-10
5.9894e-10
5.09617e-10
-2.07844e-10
2.43072e-09
-3.56007e-10
-1.0478e-09
1.16187e-09
-1.2577e-09
2.98622e-09
-1.03392e-09
1.98178e-09
2.78404e-09
1.45366e-09
2.70297e-09
2.00667e-09
-2.16897e-09
1.18899e-09
2.87705e-09
-8.28008e-10
-4.77413e-09
-2.16043e-09
-2.49986e-09
-1.93466e-09
6.9181e-09
-7.83601e-10
7.8686e-09
2.59694e-10
3.52848e-09
1.10689e-09
-5.72548e-09
2.07292e-09
-2.87471e-09
-1.48135e-09
2.49903e-08
-4.97315e-09
1.51718e-08
-2.88975e-09
-1.67151e-08
1.30814e-09
-3.51198e-08
2.54604e-09
-1.6823e-08
1.39478e-09
2.63014e-09
5.42831e-10
4.4608e-09
2.57592e-10
3.10029e-09
1.74462e-10
1.76392e-09
1.20887e-10
1.60081e-09
7.99194e-11
1.19433e-09
4.9197e-11
1.01368e-09
7.00179e-10
2.85877e-11
6.23703e-10
-3.88581e-11
4.46213e-10
5.9433e-10
1.66635e-10
2.02247e-09
3.31035e-10
-6.36116e-10
-9.23592e-10
2.23835e-10
9.04374e-12
-8.20716e-10
-1.12702e-09
1.68723e-09
-2.58629e-11
1.60186e-09
1.62397e-09
-1.7069e-09
9.31643e-10
1.9307e-09
4.59877e-10
-1.97657e-09
2.33919e-09
-2.04597e-09
6.70207e-09
1.33213e-09
1.1522e-08
1.9376e-09
7.56676e-09
2.84213e-09
5.56342e-09
-1.29793e-09
8.14271e-09
-2.41088e-09
2.55749e-09
1.35441e-08
-1.0907e-09
1.06459e-09
-1.02929e-09
-1.62863e-10
2.79647e-09
-1.36292e-08
3.47261e-09
-6.0247e-09
1.80313e-09
4.29962e-09
7.10094e-10
5.55384e-09
3.63778e-10
3.4466e-09
2.64812e-10
1.86288e-09
1.87241e-10
1.67838e-09
1.25845e-10
1.25573e-09
7.79463e-11
1.06158e-09
4.57653e-11
7.32365e-10
2.95925e-11
4.40635e-12
2.65803e-11
3.02697e-12
2.31629e-11
3.39919e-12
1.89619e-11
4.22124e-12
1.54411e-11
3.50068e-12
1.30757e-11
2.38427e-12
1.09625e-11
2.09598e-12
9.19118e-12
1.78614e-12
7.59867e-12
1.57942e-12
6.55858e-12
1.05086e-12
5.5536e-12
9.95743e-13
4.52555e-12
1.0354e-12
3.64401e-12
8.75609e-13
3.10913e-12
5.3915e-13
2.61909e-12
4.87097e-13
2.31369e-12
3.0707e-13
1.8688e-12
4.44163e-13
1.57025e-12
2.98703e-13
1.55752e-12
1.30506e-14
1.33252e-12
2.24624e-13
1.18491e-12
1.48103e-13
1.1259e-12
5.86422e-14
1.05394e-12
7.23913e-14
1.06858e-12
-1.50523e-14
9.95913e-13
7.32388e-14
1.00953e-12
-1.4257e-14
3.29499e-13
6.80733e-13
7.41475e-13
-4.1253e-13
-8.20912e-14
8.23907e-13
-8.21693e-14
3.84092e-11
1.08603e-11
3.38115e-11
7.65807e-12
2.81772e-11
8.99722e-12
2.28322e-11
9.60328e-12
1.93852e-11
6.91237e-12
1.6293e-11
5.50829e-12
1.36406e-11
4.71971e-12
1.15617e-11
3.88924e-12
9.60203e-12
3.51801e-12
8.21393e-12
2.45605e-12
6.96506e-12
2.23029e-12
5.39212e-12
2.61932e-12
4.38558e-12
1.87377e-12
3.84514e-12
1.08519e-12
3.22007e-12
1.10873e-12
2.70023e-12
8.286e-13
2.31057e-12
8.33469e-13
1.9767e-12
6.32333e-13
1.75742e-12
2.33122e-13
1.59542e-12
3.85907e-13
1.47292e-12
2.71489e-13
1.3781e-12
1.52726e-13
1.35607e-12
9.53735e-14
1.36901e-12
-2.89952e-14
1.1651e-12
2.78368e-13
1.209e-12
-5.93101e-14
4.80464e-13
1.41028e-12
7.45829e-13
-6.78492e-13
-3.60251e-13
1.9303e-12
-4.42479e-13
4.13781e-11
1.82871e-11
3.19216e-11
1.71478e-11
2.62618e-11
1.46216e-11
2.28972e-11
1.30037e-11
1.97863e-11
9.98923e-12
1.66403e-11
8.68481e-12
1.39144e-11
7.41825e-12
1.19492e-11
5.87751e-12
1.01199e-11
5.32724e-12
8.10214e-12
4.49009e-12
6.38597e-12
3.93287e-12
5.50687e-12
3.50878e-12
4.64715e-12
2.72564e-12
3.96129e-12
1.77624e-12
3.27472e-12
1.79215e-12
2.67786e-12
1.42696e-12
2.39214e-12
1.11894e-12
2.06264e-12
9.6155e-13
1.62946e-12
6.67076e-13
1.52226e-12
4.9242e-13
1.52403e-12
2.70563e-13
1.42372e-12
2.5232e-13
1.46314e-12
5.68866e-14
1.49351e-12
-6.03506e-14
1.16242e-12
6.10637e-13
1.22866e-12
-1.26647e-13
4.94951e-13
2.14492e-12
5.87866e-13
-7.71936e-13
-5.62257e-13
3.0807e-12
-1.00478e-12
3.96662e-11
2.53898e-11
3.27325e-11
2.41141e-11
2.76239e-11
1.96959e-11
2.35422e-11
1.71198e-11
1.98921e-11
1.36068e-11
1.66714e-11
1.19346e-11
1.39076e-11
1.01561e-11
1.17513e-11
8.05571e-12
9.81543e-12
7.24403e-12
8.01822e-12
6.30272e-12
6.54051e-12
5.39773e-12
5.53359e-12
4.52546e-12
4.68746e-12
3.56442e-12
4.02675e-12
2.44177e-12
3.30245e-12
2.51358e-12
2.74963e-12
1.98111e-12
2.37498e-12
1.49341e-12
2.01657e-12
1.31966e-12
1.74467e-12
9.39737e-13
1.5846e-12
6.51821e-13
1.50885e-12
3.47122e-13
1.41835e-12
3.42125e-13
1.39849e-12
7.76504e-14
1.38149e-12
-4.43048e-14
1.18298e-12
8.10282e-13
1.25467e-12
-1.99376e-13
5.19541e-13
2.8809e-12
7.69802e-13
-1.02266e-12
-4.89006e-13
4.33975e-12
-1.49382e-12
3.90912e-11
3.22971e-11
3.28924e-11
3.03449e-11
2.7941e-11
2.4614e-11
2.36345e-11
2.14594e-11
1.97931e-11
1.7417e-11
1.65932e-11
1.51624e-11
1.3853e-11
1.28714e-11
1.15933e-11
1.03363e-11
9.64697e-12
9.17223e-12
7.99932e-12
7.965e-12
6.57898e-12
6.80592e-12
5.55284e-12
5.56079e-12
4.78218e-12
4.3282e-12
3.97994e-12
3.24847e-12
3.26554e-12
3.22535e-12
2.74654e-12
2.50129e-12
2.34665e-12
1.89321e-12
1.99909e-12
1.66688e-12
1.76155e-12
1.17803e-12
1.59153e-12
8.21189e-13
1.49592e-12
4.43517e-13
1.4136e-12
4.23767e-13
1.37958e-12
1.12552e-13
1.33399e-12
3.59927e-16
1.1879e-12
9.57452e-13
1.26378e-12
-2.76214e-13
5.48172e-13
3.59728e-12
8.6802e-13
-1.34292e-12
-5.4035e-13
5.74832e-12
-2.03419e-12
3.88553e-11
3.91227e-11
3.27919e-11
3.64396e-11
2.78107e-11
2.95629e-11
2.35182e-11
2.57838e-11
1.96307e-11
2.12746e-11
1.64826e-11
1.8337e-11
1.37814e-11
1.55488e-11
1.14237e-11
1.27139e-11
9.49283e-12
1.10859e-11
7.93292e-12
9.5388e-12
6.59415e-12
8.13317e-12
5.62234e-12
6.54126e-12
4.79349e-12
5.1506e-12
3.88334e-12
4.16277e-12
3.21509e-12
3.89119e-12
2.72264e-12
2.99479e-12
2.31871e-12
2.2971e-12
2.00263e-12
1.98261e-12
1.76471e-12
1.41668e-12
1.58078e-12
1.00449e-12
1.4807e-12
5.4435e-13
1.40196e-12
5.01849e-13
1.37908e-12
1.36294e-13
1.3276e-12
5.09365e-14
1.20673e-12
1.07936e-12
1.27958e-12
-3.49958e-13
5.98217e-13
4.27934e-12
9.46883e-13
-1.69193e-12
-6.78201e-13
7.37359e-12
-2.71241e-12
3.86221e-11
4.5882e-11
3.26383e-11
4.2454e-11
2.75696e-11
3.46003e-11
2.32824e-11
3.01017e-11
1.94255e-11
2.51028e-11
1.63504e-11
2.14375e-11
1.37028e-11
1.81739e-11
1.12685e-11
1.51671e-11
9.35331e-12
1.29847e-11
7.84448e-12
1.10608e-11
6.60787e-12
9.35886e-12
5.63021e-12
7.5271e-12
4.73482e-12
6.03992e-12
3.81174e-12
5.08971e-12
3.18947e-12
4.51125e-12
2.69669e-12
3.4885e-12
2.28533e-12
2.70847e-12
1.99279e-12
2.27479e-12
1.75946e-12
1.65072e-12
1.56472e-12
1.19863e-12
1.46094e-12
6.48866e-13
1.38197e-12
5.80181e-13
1.38059e-12
1.38506e-13
1.34044e-12
9.02199e-14
1.25243e-12
1.16833e-12
1.3185e-12
-4.16843e-13
6.56207e-13
4.94225e-12
1.03367e-12
-2.0697e-12
-8.30315e-13
9.23774e-12
-3.54275e-12
3.83466e-11
5.25905e-11
3.24094e-11
4.84212e-11
2.72672e-11
3.97123e-11
2.29998e-11
3.43986e-11
1.92012e-11
2.88739e-11
1.61546e-11
2.45084e-11
1.35309e-11
2.0776e-11
1.12381e-11
1.74779e-11
9.2942e-12
1.49129e-11
7.75128e-12
1.26163e-11
6.64206e-12
1.04577e-11
5.59209e-12
8.58477e-12
4.62771e-12
6.99862e-12
3.76558e-12
5.95543e-12
3.17672e-12
5.0981e-12
2.68441e-12
3.98162e-12
2.27075e-12
3.12219e-12
1.97844e-12
2.56673e-12
1.74754e-12
1.88232e-12
1.55138e-12
1.39421e-12
1.44837e-12
7.52578e-13
1.36552e-12
6.62418e-13
1.38247e-12
1.22353e-13
1.35337e-12
1.18494e-13
1.30965e-12
1.21297e-12
1.36743e-12
-4.75366e-13
6.5391e-13
5.65632e-12
1.08332e-12
-2.49937e-12
-8.86544e-13
1.12078e-11
-4.42933e-12
3.79932e-11
5.92572e-11
3.21227e-11
5.43207e-11
2.69602e-11
4.48455e-11
2.27188e-11
3.86683e-11
1.89783e-11
3.25881e-11
1.59543e-11
2.75556e-11
1.3367e-11
2.33427e-11
1.11612e-11
1.97008e-11
9.24801e-12
1.68113e-11
7.71826e-12
1.4158e-11
6.54732e-12
1.16189e-11
5.47204e-12
9.6673e-12
4.5144e-12
7.95095e-12
3.71805e-12
6.75508e-12
3.13835e-12
5.67597e-12
2.65621e-12
4.46448e-12
2.24952e-12
3.52899e-12
1.94952e-12
2.86635e-12
1.72394e-12
2.10858e-12
1.53258e-12
1.58501e-12
1.43594e-12
8.49903e-13
1.35065e-12
7.47112e-13
1.3824e-12
9.13667e-14
1.36258e-12
1.37542e-13
1.3695e-12
1.20688e-12
1.41693e-12
-5.23461e-13
6.76434e-13
6.3973e-12
1.17387e-12
-2.99704e-12
-9.77279e-13
1.33591e-11
-5.40667e-12
3.75732e-11
6.58901e-11
3.17752e-11
6.0147e-11
2.66397e-11
4.99528e-11
2.24286e-11
4.29067e-11
1.87603e-11
3.62313e-11
1.57619e-11
3.05761e-11
1.31952e-11
2.58899e-11
1.1032e-11
2.18803e-11
9.16588e-12
1.86633e-11
7.66457e-12
1.56705e-11
6.43216e-12
1.2842e-11
5.35995e-12
1.07463e-11
4.41067e-12
8.89528e-12
3.66399e-12
7.50482e-12
3.08122e-12
6.25707e-12
2.61532e-12
4.93101e-12
2.22793e-12
3.91652e-12
1.92333e-12
3.17056e-12
1.70551e-12
2.32706e-12
1.51695e-12
1.77303e-12
1.43049e-12
9.37024e-13
1.343e-12
8.34028e-13
1.37975e-12
5.53455e-14
1.36777e-12
1.48795e-13
1.3975e-12
1.17792e-12
1.43321e-12
-5.59764e-13
6.79692e-13
7.15124e-12
1.13177e-12