/*--------------------------------*- C++ -*----------------------------------*\
| =========                 |                                                 |
| \\      /  F ield         | OpenFOAM: The Open Source CFD Toolbox           |
|  \\    /   O peration     | Version:  2.4.0                                 |
|   \\  /    A nd           | Web:      www.OpenFOAM.org                      |
|    \\/     M anipulation  |                                                 |
\*---------------------------------------------------------------------------*/
FoamFile
{
    version     2.0;
    format      ascii;
    class       volScalarField;
    location    "0.022";
    object      p;
}
// * * * * * * * * * * * * * * * * * * * * * * * * * * * * * * * * * * * * * //

dimensions      [1 -1 -2 0 0 0 0];

internalField   nonuniform List<scalar> 
14400
(
95.4499
97.1387
97.2641
97.4278
97.5936
97.7029
97.6729
97.3983
96.7548
95.6098
93.8574
91.4474
88.401
84.8171
80.8618
76.7354
72.6373
68.7456
65.2068
62.1235
59.5443
57.4705
55.8615
54.6516
53.7678
53.1411
52.7126
52.4349
52.271
52.1924
92.1898
93.8789
94.0044
94.1685
94.335
94.4457
94.4177
94.1463
93.5072
92.3677
90.6212
88.2169
85.1746
81.5925
77.6357
73.5033
69.3954
65.4889
61.9314
58.8256
56.2256
54.1341
52.5122
51.2944
50.4063
49.7779
49.3488
49.0711
48.9074
48.829
88.9294
90.6186
90.7444
90.9089
91.0766
91.1896
91.1654
90.9002
90.2701
89.1422
87.4088
85.0175
81.9853
78.4078
74.448
70.304
66.1731
62.2352
58.6343
55.479
52.8299
50.697
49.0452
47.8088
46.9111
46.2786
45.8485
45.5709
45.4075
45.3294
85.6687
87.358
87.4839
87.6492
87.8185
87.9347
87.9162
87.6601
87.0438
85.9338
84.2208
81.8502
78.8348
75.2654
71.3021
67.1408
62.9768
58.9869
55.3173
52.0826
49.3544
47.1542
45.4535
44.1871
43.2742
42.6357
42.2043
41.9272
41.7647
41.6872
82.4076
84.097
84.2232
84.3893
84.5606
84.6811
84.67
84.426
83.8282
82.7424
81.0571
78.715
75.7232
72.166
68.1989
64.0152
59.8069
55.7471
51.9833
48.638
45.7978
43.5013
41.7309
40.4227
39.4896
38.8442
38.4124
38.1373
37.9767
37.9003
79.1463
80.8356
80.962
81.1291
81.303
81.4286
81.4267
81.1978
80.6231
79.5675
77.9173
75.6118
72.6509
69.1102
65.1397
60.9291
56.6663
52.5198
48.6365
45.1473
42.1583
39.7318
37.8677
36.505
35.5479
34.8968
34.4674
34.1969
34.0403
33.966
75.8846
77.5738
77.7005
77.8687
78.0455
78.1773
78.1862
77.9751
77.4281
76.4092
74.8014
72.5406
69.6182
66.099
62.126
57.8849
53.559
49.3102
45.2825
41.6142
38.4341
35.8371
33.8503
32.4192
31.4363
30.7836
30.3622
30.101
29.9516
29.8814
72.6226
74.3117
74.4387
74.6081
74.7882
74.9271
74.9485
74.7579
74.2432
73.2671
71.7089
69.5014
66.6257
63.1334
59.1594
54.8854
50.4894
46.1249
41.929
38.0445
34.6241
31.8062
29.6598
28.1447
27.1371
26.4917
26.0879
25.8437
25.7069
25.6435
69.3603
71.0491
71.1764
71.3472
71.531
71.6778
71.7133
71.5458
71.0679
70.1408
68.6396
66.494
63.6736
60.2145
56.2419
51.9334
47.4625
42.9718
38.5862
34.447
30.7286
27.6246
25.2697
23.652
22.6258
22.0041
21.6337
21.4182
21.3021
21.2503
66.0977
67.7862
67.9138
68.086
68.2739
68.4294
68.4804
68.3386
67.9018
67.0299
65.5929
63.5182
60.7626
57.3436
53.3754
49.0323
44.484
39.8604
35.2674
30.8357
26.7523
23.2755
20.6434
18.8999
17.8679
17.2986
16.987
16.8174
16.7342
16.702
62.8348
64.523
64.6508
64.8246
65.0168
65.1819
65.2499
65.136
64.7446
63.9342
62.5684
60.5737
57.8931
54.5222
50.5621
46.1852
41.5599
36.8014
31.9894
27.2314
22.7076
18.7397
15.7282
13.8289
12.813
12.3445
12.1331
12.035
12.0023
12.0019
59.5717
61.2593
61.3873
61.5628
61.7597
61.935
62.0214
61.9374
61.5958
60.8529
59.5652
57.6601
55.0657
51.7516
47.8041
43.395
38.6959
33.8066
28.772
23.6638
18.6213
13.9991
10.4459
8.35504
7.37809
7.09387
7.05483
7.07044
7.11231
7.15995
56.3083
57.9953
58.1235
58.3006
58.5024
58.6888
58.7947
58.7426
58.4548
57.7858
56.5825
54.7768
52.2808
49.0335
45.1035
40.6644
35.8974
30.8885
25.6381
20.1733
14.5462
9.04931
4.67115
2.37314
1.40677
1.4773
1.74137
1.93558
2.09281
2.22395
53.0446
54.7309
54.8592
55.0382
55.2451
55.4431
55.5698
55.551
55.3212
54.7323
53.6193
51.9229
49.5391
46.3696
42.4625
37.9956
33.1684
28.0598
22.6119
16.8101
10.5752
3.93618
-1.82248
-4.1308
-5.55691
-4.47424
-3.72083
-3.43766
-3.1567
-2.73391
49.7807
51.4662
51.5945
51.7752
51.9875
52.1978
52.3462
52.3621
52.1941
51.6919
50.6745
49.0974
46.8408
43.7618
39.8835
35.3895
30.5109
25.3325
19.7165
13.6282
6.85237
-1.13782
-9.39685
-12.2817
-5.5885
-0.228621
0.179181
0.165619
0.162715
0.174592
46.5165
48.2011
48.3294
48.5119
48.7296
48.9527
49.1239
49.1754
49.0728
48.6642
47.7467
46.2989
44.1863
41.212
37.3689
32.8465
27.9236
22.7179
16.9728
10.6707
3.56353
-5.70067
-3.48309
0.40231
0.167697
0.16134
0.16588
0.163986
0.161096
0.162925
43.2521
44.9357
45.0638
45.2481
45.4714
45.7077
45.9028
45.9902
45.9566
45.6489
44.8342
43.5256
41.5758
38.7226
34.9216
30.366
25.4
20.2256
14.401
7.94207
0.872534
-5.69033
0.0227031
0.206857
0.176027
0.163347
0.159195
0.156938
0.155176
0.161726
39.9876
41.6699
41.7977
41.9838
42.2127
42.4627
42.6824
42.8058
42.8444
42.6459
41.9351
40.7751
39.0093
36.2958
32.5449
27.9468
22.9247
17.8602
12.0327
5.30086
-5.5677
0.133086
0.0657808
0.134903
0.161057
0.15597
0.151566
0.14919
0.147806
0.148905
36.7228
38.4038
38.5312
38.719
38.9535
39.2175
39.4627
39.6215
39.7352
39.6551
39.0472
38.0444
36.4867
33.9343
30.2435
25.5887
20.4715
15.6125
9.96684
1.99484
-2.6027
0.125681
0.0730141
0.113494
0.141568
0.144281
0.142209
0.140498
0.139163
0.138969
33.4579
35.1374
35.2642
35.4537
35.6936
35.972
36.2435
36.4365
36.6275
36.6772
36.1681
35.3294
34.0077
31.641
28.0232
23.295
17.9994
13.4327
8.5676
-13.6009
0.155469
0.129014
0.096885
0.113059
0.130397
0.13314
0.132305
0.131234
0.131782
0.129801
30.1929
31.8706
31.9966
32.1878
32.4331
32.7259
33.0246
33.25
33.5196
33.713
33.2946
32.625
31.5716
29.4186
25.8916
21.0764
15.4561
11.1811
7.97822
-0.524647
0.156282
0.130629
0.109721
0.113821
0.120905
0.122553
0.122172
0.121407
0.120882
0.120756
26.9277
28.6035
28.7286
28.9212
29.1717
29.4791
29.8059
30.0613
30.4095
30.7646
30.4232
29.9246
29.1775
27.2698
23.8577
18.9564
12.8032
8.47551
-6.64131
-0.199865
0.167145
0.12274
0.108724
0.108715
0.111272
0.112084
0.112013
0.111433
0.111176
0.111125
23.6624
25.3361
25.46
25.6541
25.9095
26.2315
26.5875
26.8695
27.2944
27.8349
27.5498
27.2197
26.8237
25.1968
21.9315
16.9722
10.065
3.89088
-7.81787
-0.0266673
0.132766
0.108594
0.101123
0.100267
0.101152
0.101556
0.101464
0.101284
0.101194
0.101179
20.3972
22.0683
22.1908
22.3863
22.6462
22.9827
23.369
23.6738
24.1708
24.9284
24.6694
24.4989
24.508
23.2004
20.1198
15.1696
7.4213
-0.628095
-0.757624
0.0328292
0.0912477
0.0932363
0.0906714
0.09013
0.0905459
0.0908318
0.0908847
0.0908961
0.0909395
0.0909854
17.1318
18.8003
18.921
19.1178
19.3818
19.7326
20.1506
20.4737
21.0336
22.0516
21.7752
21.7478
22.2279
21.2825
18.4327
13.6072
5.63094
-15.1613
0.548776
0.130253
0.0849756
0.0801539
0.0791356
0.0790514
0.0794863
0.0798349
0.0800381
0.0802021
0.0803507
0.0804518
13.8665
15.532
15.6507
15.8486
16.1163
16.4809
16.9322
17.2692
17.8763
19.2134
18.8572
18.9476
19.982
19.449
16.8524
12.2596
5.44323
-7.10024
0.239386
0.085229
0.0734
0.067626
0.0669458
0.0673374
0.0680068
0.0685263
0.0688887
0.0691796
0.0694102
0.0695538
10.6013
12.2633
12.3797
12.5787
12.8494
13.2273
13.7136
14.0606
14.6896
16.4256
15.8989
16.0725
17.7707
17.6944
15.3658
10.9947
7.05026
-4.12239
0.0982215
0.0685608
0.0576497
0.0540782
0.054185
0.0551445
0.0561582
0.0569081
0.057433
0.057824
0.0581016
0.0582598
7.33612
8.99438
9.10799
9.30809
9.58119
9.9713
10.4946
10.8494
11.4605
13.7027
12.8736
13.0865
15.5883
15.964
13.9778
9.99905
6.98829
-0.682463
-0.0086098
0.0403605
0.0397061
0.0395901
0.0409351
0.0425806
0.0440151
0.045045
0.0457518
0.0462375
0.0465377
0.046682
4.07124
5.72521
5.83564
6.03676
6.3115
6.71267
7.27477
7.63829
8.1706
11.0623
9.74272
9.9374
13.4259
14.2973
12.7261
8.68196
-1.42835
-0.117713
-0.0504574
0.0148643
0.0211513
0.0244709
0.0272777
0.0297217
0.0316449
0.0330115
0.0339544
0.0345773
0.0349292
0.0350769
0.818385
2.45576
2.56252
2.76463
3.04021
3.4508
4.05315
4.43063
4.79336
8.52662
6.45235
6.54934
11.3129
12.7092
11.4565
7.20718
-0.0411557
-0.10696
-0.0614593
-0.00944126
0.00293041
0.00904546
0.0133307
0.0166281
0.0190819
0.0208404
0.0220797
0.0228974
0.0233581
0.0235552
52.1775
52.2198
52.3357
52.5498
52.8949
53.4125
54.156
55.1892
56.5845
58.4124
60.7285
63.5535
66.8638
70.5831
74.5867
78.7132
82.7744
86.5704
89.9169
92.6799
94.7977
96.2798
97.1953
97.6557
97.7884
97.7178
97.5508
97.3648
97.2072
97.1058
48.8141
48.8563
48.972
49.186
49.5313
50.05
50.7963
51.8355
53.2411
55.0845
57.4202
60.2676
63.5983
67.3342
71.3498
75.4842
79.5491
83.3448
86.6883
89.4464
91.5585
93.035
93.9457
94.4022
94.5322
94.4598
94.2918
94.1052
93.9474
93.8459
45.3146
45.3566
45.4719
45.6856
46.0312
46.5522
47.3051
48.3581
49.7878
51.6672
54.0488
56.9463
60.3241
64.098
68.1405
72.2912
76.363
80.1577
83.4937
86.2402
88.3394
89.8039
90.7044
91.1534
91.2781
91.2023
91.0326
90.8453
90.6871
90.5855
41.6725
41.7141
41.8286
42.0415
42.3872
42.9116
43.6745
44.7495
46.2185
48.1564
50.6125
53.5906
57.0434
60.8775
64.9619
69.1372
73.2189
77.011
80.3342
83.0619
85.1409
86.5868
87.4718
87.9093
88.0261
87.9456
87.7734
87.5849
87.4265
87.3247
37.8858
37.9267
38.0396
38.2504
38.595
39.1224
39.898
41.0032
42.5277
44.5495
47.1117
50.2032
53.7595
57.6754
61.816
66.0238
70.1177
73.9051
77.21
79.9115
81.9629
83.3836
84.2478
84.6699
84.7763
84.6895
84.5141
84.3243
84.1655
84.0635
33.9519
33.9914
34.1011
34.3074
34.6481
35.1762
35.9655
37.1086
38.707
40.8423
43.5468
46.7873
50.4765
54.4951
58.7051
62.9522
67.0603
70.8405
74.1211
76.7887
78.805
80.1941
81.0321
81.435
81.5286
81.4339
81.2546
81.0633
80.904
80.8019
29.8679
29.905
30.0088
30.2064
30.5379
31.0617
31.8628
33.0512
34.745
37.0296
39.9191
43.3481
47.2001
51.3412
55.6321
59.9243
64.0478
67.8177
71.0676
73.6934
75.6671
77.018
77.8246
78.2047
78.2828
78.1789
77.995
77.8019
77.6421
77.5398
25.6313
25.6641
25.7577
25.9401
26.2536
26.7635
27.5703
28.8103
30.6261
33.1054
36.2318
39.893
43.9378
48.2193
52.6006
56.9424
61.0816
64.8376
68.0499
70.6255
72.549
73.8552
74.625
74.9786
75.039
74.9244
74.7353
74.5402
74.3799
74.2774
21.2405
21.266
21.3422
21.4995
21.7816
22.2605
23.0602
24.3567
26.3291
29.0634
32.4906
36.4322
40.6989
45.1356
49.6144
54.0087
58.163
61.9007
65.0677
67.5845
69.4501
70.7052
71.4331
71.7567
71.797
71.6703
71.4754
71.278
71.1172
71.0144
16.6969
16.71
16.7568
16.8748
17.1048
17.5242
18.2934
19.6492
21.8257
24.8986
28.7067
32.9802
37.4949
42.0978
46.6777
51.1255
55.2937
59.008
62.1214
64.5701
66.3701
67.5679
68.2486
68.5387
68.5566
68.4165
68.2152
68.0155
67.8542
67.7511
12.0064
11.9985
11.9967
12.0559
12.2017
12.5127
13.2131
14.6283
17.078
20.6106
24.8997
29.5566
34.3394
39.1138
43.7948
48.2955
52.4755
56.1603
59.2109
61.5818
63.3086
64.4427
65.0711
65.3245
65.3178
65.1631
64.9549
64.7526
64.5907
64.4873
7.17769
7.137
7.06529
7.03588
7.04131
7.15459
7.73633
9.20534
12.0345
16.2106
21.1017
26.186
31.2479
36.1919
40.9695
45.521
49.7099
53.3587
56.3361
58.6187
60.2648
61.3292
61.9001
62.1137
62.0803
61.9097
61.6942
61.4892
61.3268
61.2229
2.24811
2.15355
1.99394
1.82007
1.5715
1.31918
1.75843
3.23664
6.6272
11.7374
17.3632
22.8988
28.2379
33.3405
38.2053
42.8043
46.9989
50.6041
53.4969
55.6801
57.2383
58.227
58.7353
58.9061
58.8441
58.6565
58.4332
58.2253
58.0625
57.9581
-2.65933
-2.87053
-3.20808
-3.59501
-4.37448
-5.2055
-4.69023
-3.58318
0.776368
7.28543
13.7571
19.7287
25.3271
30.5671
35.5046
40.1475
44.3447
47.8977
50.693
52.765
54.2283
55.1357
55.5761
55.7015
55.609
55.4033
55.1719
54.9611
54.7978
54.6929
0.180091
0.170046
0.156212
0.17466
0.00755625
-1.41634
-9.84707
-12.8384
-5.51165
3.0403
10.3782
16.7066
22.534
27.8773
32.8682
37.5523
41.7491
45.2404
47.9237
49.8718
51.234
52.0548
52.4219
52.4996
52.3746
52.1499
51.91
51.6963
51.5326
51.4271
0.162975
0.160146
0.161652
0.164867
0.16208
0.161853
0.162652
0.227748
-11.074
-0.749761
7.33124
13.852
19.878
25.2736
30.2946
35.0206
39.2146
42.6333
45.1885
46.9989
48.2549
48.9836
49.2721
49.3001
49.1409
48.8963
48.6477
48.431
48.267
48.1607
0.161625
0.161036
0.155369
0.157241
0.159526
0.167234
0.180929
0.143972
0.0917016
-5.60455
4.69743
11.1595
17.3832
22.7533
27.7795
32.5541
36.744
40.0775
42.4862
44.1444
45.29
45.9219
46.126
46.1028
45.9077
45.6423
45.385
45.1653
45.0011
44.8938
0.147789
0.14738
0.148076
0.149636
0.152493
0.158348
0.147084
0.0784217
0.152057
-6.41247
2.58241
8.56692
15.0858
20.3001
25.3156
30.155
34.3402
37.5741
39.8155
41.3055
42.3387
42.8691
42.9825
42.9073
42.6747
42.3877
42.1216
41.899
41.7347
41.6263
0.139263
0.141259
0.13954
0.140804
0.142574
0.143546
0.12879
0.121415
0.119127
0.107366
-12.3297
5.98143
13.0489
17.8791
22.8921
27.8274
32.0069
35.1242
37.1743
38.479
39.4004
39.8249
39.8408
39.7133
39.4416
39.1324
38.8576
38.6321
38.4679
38.3582
0.130555
0.13635
0.130714
0.13138
0.132327
0.131984
0.123566
0.102188
0.115094
0.129698
-0.277654
3.13727
11.3666
15.4168
20.4988
25.5777
29.7483
32.7286
34.5604
35.6607
36.4747
36.7889
36.6997
36.5206
36.2083
35.8763
35.5929
35.3647
35.2007
35.0895
0.120874
0.123836
0.121055
0.121675
0.122085
0.121647
0.117626
0.110142
0.117218
0.141533
0.240327
-11.9524
10.2496
12.7723
18.1328
23.4163
27.5688
30.3882
31.9703
32.8452
33.5616
33.761
33.5578
33.3291
32.9744
32.6192
32.3275
32.0967
31.9331
31.8201
0.111093
0.111084
0.111196
0.111578
0.111821
0.111519
0.109742
0.107625
0.11347
0.134973
0.17977
-1.92553
10.2582
9.71489
15.8141
21.3591
25.4732
28.1033
29.3999
30.0255
30.6615
30.7411
30.4135
30.1385
29.7397
29.3608
29.0613
28.8281
28.665
28.5501
0.101168
0.101154
0.10119
0.101317
0.101431
0.101253
0.100492
0.100149
0.104263
0.114002
0.0203917
-0.0186229
10.1704
6.06655
13.5961
19.4259
23.4655
25.8736
26.8441
27.1925
27.7757
27.7299
27.265
26.9489
26.5039
26.1012
25.7944
25.5589
25.3967
25.2794
0.0909943
0.0909628
0.0909224
0.0909058
0.0908765
0.0907062
0.0903278
0.0903724
0.0926615
0.0940469
0.0383217
0.294887
-13.6957
2.09128
11.6016
17.6304
21.5487
23.6977
24.2961
24.3339
24.9066
24.728
24.11
23.7603
23.2667
22.84
22.5265
22.289
22.1279
22.0079
0.0804809
0.0804359
0.0803345
0.0802063
0.0800518
0.0798169
0.0794887
0.0794589
0.0806213
0.0815752
0.0733284
0.195412
1.59563
-1.8172
10.0624
16.0015
19.7274
21.5735
21.748
21.4336
22.0584
21.7372
20.9459
20.5728
20.0278
19.577
19.2578
19.0184
18.8587
18.7357
0.0695959
0.0695397
0.069396
0.0691817
0.0689071
0.0685516
0.068097
0.0677967
0.0683678
0.0702478
0.0781425
0.165239
0.120947
-4.83964
9.02567
14.4905
18.0051
19.5003
19.1911
18.4708
19.2378
18.7605
17.7696
17.3869
16.7868
16.3122
15.9882
15.7473
15.5893
15.4626
0.0583071
0.0582554
0.0580989
0.0578275
0.0574385
0.0569174
0.0562325
0.0555316
0.0554313
0.056947
0.0650315
0.106778
-0.579357
9.83561
8.21885
13.064
16.3689
17.4753
16.6165
15.42
16.4554
15.803
14.5774
14.2029
13.5436
13.0451
12.7176
12.4753
12.3195
12.1887
0.0467264
0.0466961
0.0465485
0.0462288
0.0457115
0.0449776
0.0439756
0.0427603
0.0417668
0.0416756
0.0442174
0.0550549
-0.0827699
5.15831
7.53765
11.8031
14.7714
15.4629
14.0158
12.2504
13.7277
12.8741
11.3652
11.0215
10.2977
9.77556
9.44616
9.2027
9.04939
8.91383
0.0351169
0.0350869
0.0349166
0.0345093
0.0338106
0.0327961
0.0313991
0.0295676
0.0274974
0.0253371
0.0224488
0.0168158
-0.0518478
-5.181
5.82092
10.5398
13.3026
13.4546
11.3783
8.92387
11.0812
9.98892
8.12815
7.84344
7.04904
6.50341
6.1738
5.92937
5.77912
5.63807
0.0235979
0.023527
0.0232707
0.0227166
0.0217782
0.0204116
0.0185494
0.016052
0.0128235
0.00858211
0.00124872
-0.0221874
-0.00744076
-5.43934
5.58457
9.23673
11.8824
11.4888
8.71439
5.38808
8.55888
7.17151
4.85945
4.6692
3.79741
3.22823
2.90048
2.65522
2.50863
2.35956
-0.102151
-0.0297136
0.0200355
0.107972
0.254322
0.588561
1.22842
1.627
1.73323
6.41563
3.37174
3.30699
9.48677
11.2484
10.4561
5.82321
7.49316
-0.207015
-0.0619207
-0.0287279
-0.0128013
-0.00467925
0.000821461
0.00485184
0.00779879
0.00995815
0.0115111
0.012543
0.0131403
0.0134157
-0.102736
-0.0973501
-0.0937107
-0.0889284
-0.0815682
-0.0667251
-0.0657387
-0.0199428
-0.121104
5.22839
1.46481
1.26211
8.44076
10.4267
9.87032
4.80893
0.198311
-0.148847
-0.0623215
-0.0385134
-0.0220731
-0.012874
-0.00671001
-0.00231167
0.000935053
0.00336859
0.00512048
0.0062832
0.00698138
0.00732977
-0.104625
-0.0991819
-0.0955299
-0.090739
-0.083375
-0.0697969
-0.0374518
-0.256783
-1.7039
3.99608
-0.692068
-1.12268
7.31508
9.46543
9.29985
4.13056
-9.44051
-0.128273
-0.067895
-0.0475563
-0.0318794
-0.0216166
-0.0148217
-0.0100612
-0.00650551
-0.00382605
-0.00191714
-0.000642359
0.000157478
0.000583065
-0.10653
-0.101164
-0.0975032
-0.0927098
-0.0853505
-0.0716722
-0.0385789
-0.0091373
-0.633118
2.55309
-3.11684
-3.8694
6.1419
8.40922
8.57595
4.73359
-5.67238
-0.0965127
-0.0821435
-0.0569821
-0.0421065
-0.0309896
-0.0235738
-0.018411
-0.0145515
-0.0116705
-0.00963074
-0.00824812
-0.00735803
-0.00687652
-0.108611
-0.103308
-0.0996434
-0.0948533
-0.0875183
-0.073848
-0.0416131
-0.0266035
-0.195326
0.901638
-5.533
-6.5646
4.89792
7.22482
7.8232
6.76734
-0.816002
-0.102087
-0.0971787
-0.0685079
-0.0530312
-0.041112
-0.0330458
-0.0274089
-0.0232531
-0.0202025
-0.018035
-0.0165424
-0.0155787
-0.015066
-0.110876
-0.105625
-0.101962
-0.0971843
-0.0898895
-0.0763381
-0.0456125
-0.0423689
-0.239838
-0.640789
-5.46193
-5.63483
3.49368
5.73544
6.91472
8.46448
-0.864651
-0.136321
-0.106953
-0.0822677
-0.065076
-0.0521235
-0.0432902
-0.0370986
-0.0326414
-0.0294241
-0.0271219
-0.0255237
-0.0245028
-0.0239734
-0.113336
-0.108132
-0.104477
-0.0997189
-0.0924899
-0.0791894
-0.050474
-0.0648497
-0.269682
-0.23266
-3.51204
-7.07036
2.51926
3.87141
5.90613
7.25645
-0.871702
-0.175636
-0.116421
-0.097381
-0.0785479
-0.0641728
-0.0543691
-0.0475458
-0.0427531
-0.0393436
-0.0369025
-0.0352112
-0.0341445
-0.033602
-0.116013
-0.110844
-0.107204
-0.102479
-0.0953426
-0.0824388
-0.0565272
-0.0887979
-0.289838
-0.245416
-0.547543
-12.7949
2.06726
1.04799
4.85721
-8.32522
-0.339425
-0.217095
-0.135157
-0.114246
-0.0934779
-0.0773109
-0.0663199
-0.0587925
-0.0536055
-0.0499633
-0.0473806
-0.0456091
-0.0445032
-0.0439465
-0.118928
-0.113781
-0.110164
-0.105486
-0.0984862
-0.0861532
-0.0638013
-0.0831759
-0.286275
-0.258694
-0.288067
-15.6367
1.83661
-2.56008
3.38645
-15.2886
-0.0494723
-0.250331
-0.169549
-0.135715
-0.110102
-0.0915346
-0.0791705
-0.0708662
-0.0652141
-0.0612926
-0.0585589
-0.0567133
-0.0555725
-0.0550011
-0.122098
-0.11696
-0.113376
-0.108766
-0.101955
-0.0903762
-0.0720852
-0.115817
-0.279384
-0.272044
-0.246708
-4.56042
1.08441
-5.39643
0.48843
10.3895
-0.159438
-0.268064
-0.216038
-0.163107
-0.128522
-0.106819
-0.09293
-0.0837563
-0.077561
-0.0733132
-0.0704098
-0.068488
-0.0673151
-0.0667312
-0.125547
-0.120404
-0.116864
-0.112341
-0.105776
-0.0951368
-0.0810696
-0.125253
-0.270231
-0.283682
-0.22128
-0.334899
1.91153
-7.12457
-2.23413
-2.23669
-0.313368
-0.322612
-0.258272
-0.189615
-0.148109
-0.123199
-0.107579
-0.0973963
-0.0905787
-0.0859651
-0.0828714
-0.0808651
-0.0796606
-0.0790686
-0.129298
-0.124135
-0.120652
-0.116242
-0.109986
-0.100456
-0.090593
-0.133561
-0.260454
-0.29184
-0.201569
-0.148708
-4.33107
-11.3504
-3.14854
-0.58844
-0.480275
-0.434334
-0.307653
-0.219219
-0.169764
-0.140685
-0.12295
-0.111605
-0.104113
-0.0991149
-0.0958188
-0.0937195
-0.0924822
-0.0918858
-0.133376
-0.128178
-0.124765
-0.120493
-0.114612
-0.106339
-0.100479
-0.142633
-0.251701
-0.294555
-0.197805
-0.228845
0.455027
-14.213
1.23449
-0.463809
-0.66241
-0.605453
-0.386818
-0.258882
-0.193535
-0.15876
-0.138599
-0.126038
-0.117888
-0.112528
-0.109038
-0.106848
-0.10558
-0.104984
-0.13781
-0.132559
-0.129233
-0.12513
-0.11969
-0.112783
-0.110569
-0.150932
-0.24352
-0.289769
-0.200244
-0.208106
-8.90524
-13.4931
6.82884
-0.191943
-0.851831
-0.76935
-0.477375
-0.300865
-0.216562
-0.176126
-0.15374
-0.140159
-0.131493
-0.125857
-0.122221
-0.119964
-0.118679
-0.11809
-0.142629
-0.137309
-0.134085
-0.130182
-0.125248
-0.119772
-0.12072
-0.158353
-0.235622
-0.276931
-0.202986
-0.191896
-1.67552
-1.78962
9.71837
-0.245357
-0.930489
-0.90321
-0.522253
-0.331036
-0.234902
-0.190831
-0.167272
-0.153231
-0.144361
-0.138632
-0.134955
-0.132687
-0.131409
-0.130837
-0.147866
-0.142457
-0.139356
-0.135685
-0.131315
-0.127278
-0.130817
-0.165173
-0.228165
-0.259621
-0.2073
-0.210456
-0.090512
12.2804
12.6561
-0.112214
-0.924653
-0.918631
-0.506505
-0.335812
-0.242479
-0.200514
-0.177978
-0.164467
-0.155882
-0.150335
-0.146777
-0.144586
-0.143363
-0.142823
-0.153555
-0.148041
-0.14508
-0.141676
-0.137918
-0.135275
-0.140802
-0.171598
-0.221863
-0.244175
-0.213391
-0.227657
-0.379134
1.87281
0.800359
-0.254958
-0.806716
-0.787672
-0.430782
-0.303523
-0.237534
-0.204397
-0.185199
-0.173261
-0.165552
-0.160518
-0.157273
-0.155273
-0.154158
-0.153674
-0.159733
-0.154096
-0.151295
-0.148187
-0.145074
-0.143731
-0.150643
-0.177778
-0.217386
-0.234195
-0.219981
-0.2375
-0.295616
-0.16434
-0.33994
-0.235389
-0.396946
-0.449256
-0.344653
-0.272027
-0.228737
-0.204325
-0.189283
-0.179599
-0.173202
-0.168964
-0.16621
-0.164506
-0.163556
-0.163149
-0.166437
-0.160663
-0.158042
-0.155257
-0.152798
-0.152615
-0.160357
-0.183871
-0.214941
-0.228851
-0.224561
-0.235525
-0.253249
-0.201998
-0.249442
-0.158109
-0.219412
-0.298842
-0.276048
-0.241397
-0.217231
-0.201553
-0.19106
-0.183934
-0.179075
-0.175797
-0.173644
-0.172305
-0.171558
-0.171243
-0.173712
-0.167784
-0.165361
-0.16292
-0.161102
-0.161899
-0.169977
-0.190047
-0.214391
-0.226445
-0.227142
-0.23277
-0.235493
-0.208292
-0.202099
-0.160169
-0.180647
-0.224703
-0.229915
-0.21884
-0.207293
-0.198365
-0.191823
-0.187111
-0.183777
-0.181475
-0.179944
-0.178986
-0.178452
-0.178233
-0.181605
-0.175506
-0.173299
-0.171213
-0.169999
-0.171571
-0.179581
-0.196456
-0.215541
-0.225973
-0.228595
-0.230742
-0.227898
-0.211016
-0.195035
-0.171722
-0.180927
-0.199785
-0.207011
-0.205291
-0.200905
-0.196566
-0.192977
-0.190203
-0.188153
-0.186702
-0.185725
-0.185109
-0.184769
-0.184636
-0.190165
-0.18388
-0.181902
-0.180175
-0.179507
-0.181637
-0.189249
-0.20324
-0.218175
-0.226977
-0.229894
-0.230028
-0.225426
-0.213494
-0.199798
-0.187237
-0.18829
-0.19535
-0.199674
-0.200322
-0.199085
-0.197309
-0.195597
-0.194158
-0.193043
-0.192234
-0.191683
-0.191336
-0.191149
-0.191082
-0.199447
-0.19296
-0.191221
-0.189843
-0.189643
-0.192113
-0.199095
-0.210522
-0.222141
-0.229302
-0.231795
-0.230895
-0.22609
-0.217196
-0.207192
-0.199458
-0.197621
-0.199409
-0.201186
-0.201833
-0.201617
-0.201001
-0.20029
-0.199636
-0.199107
-0.198715
-0.198449
-0.198284
-0.198201
-0.198178
-0.209509
-0.202803
-0.201307
-0.200257
-0.20043
-0.203037
-0.209224
-0.218403
-0.227337
-0.232936
-0.234785
-0.233451
-0.22912
-0.222446
-0.215369
-0.210014
-0.207581
-0.207248
-0.207543
-0.207734
-0.207686
-0.207476
-0.207205
-0.206943
-0.206728
-0.20657
-0.206463
-0.206402
-0.206379
-0.206382
-0.220413
-0.21347
-0.212218
-0.211462
-0.211902
-0.214461
-0.219759
-0.226987
-0.233728
-0.237925
-0.23915
-0.237732
-0.234136
-0.229187
-0.224193
-0.220325
-0.218063
-0.217058
-0.21669
-0.21654
-0.216431
-0.216319
-0.216208
-0.216112
-0.21604
-0.215988
-0.215956
-0.215945
-0.21595
-0.215962
-0.232227
-0.225025
-0.224011
-0.223507
-0.2241
-0.226457
-0.230821
-0.236359
-0.241315
-0.24432
-0.245039
-0.243735
-0.240923
-0.237342
-0.233845
-0.231073
-0.229242
-0.228195
-0.227646
-0.227362
-0.227208
-0.227118
-0.227064
-0.22703
-0.227011
-0.227002
-0.227001
-0.227008
-0.227018
-0.227025
-0.245025
-0.23754
-0.236757
-0.236452
-0.237091
-0.239115
-0.242538
-0.246619
-0.250122
-0.252159
-0.252516
-0.251432
-0.249361
-0.246875
-0.244509
-0.242614
-0.241295
-0.240473
-0.240003
-0.239752
-0.239628
-0.239573
-0.239555
-0.239554
-0.239563
-0.239575
-0.239588
-0.239599
-0.239605
-0.239609
-0.258886
-0.251091
-0.250527
-0.250366
-0.250948
-0.252535
-0.255033
-0.257854
-0.260179
-0.261458
-0.261585
-0.260771
-0.259375
-0.257786
-0.256323
-0.255173
-0.254381
-0.253897
-0.253638
-0.253524
-0.253494
-0.25351
-0.253545
-0.253586
-0.253625
-0.253657
-0.25368
-0.253695
-0.253704
-0.253709
-0.273898
-0.265764
-0.265408
-0.265339
-0.265772
-0.266841
-0.268432
-0.27015
-0.271511
-0.272209
-0.272214
-0.271705
-0.270924
-0.270102
-0.269408
-0.268922
-0.268649
-0.268549
-0.268567
-0.268653
-0.268771
-0.268895
-0.269011
-0.26911
-0.26919
-0.269251
-0.269294
-0.269322
-0.269339
-0.269349
-0.290155
-0.281653
-0.2815
-0.281481
-0.281688
-0.282169
-0.282859
-0.283578
-0.284126
-0.284382
-0.284335
-0.284162
-0.283969
-0.283851
-0.283865
-0.284012
-0.284264
-0.28458
-0.284921
-0.285255
-0.285561
-0.285825
-0.286045
-0.286221
-0.286357
-0.286459
-0.286531
-0.28658
-0.28661
-0.286625
0.0134695
0.0133355
0.0129557
0.012227
0.0110377
0.00930702
0.00696989
0.00387234
-0.000334089
-0.00633954
-0.0171268
-0.0454976
-0.0418581
-1.36266
3.16572
8.37755
10.6198
9.69126
6.36721
2.05102
6.50363
4.79059
1.96163
1.89344
0.945761
0.383806
0.177241
0.0596419
-0.0063972
-0.0646516
0.00740236
0.00721943
0.00673652
0.00588153
0.00454182
0.00259136
-6.00233e-05
-0.00352235
-0.00823752
-0.0152468
-0.0274759
-0.053
-0.0845767
-0.717444
-1.91517
7.89729
9.92659
8.64546
4.9842
-0.0400074
5.37557
3.43353
0.24177
0.337188
-0.0349831
-0.068328
-0.0818349
-0.0893529
-0.0945699
-0.100322
0.000677895
0.000449842
-0.000132987
-0.00111234
-0.00258787
-0.00471843
-0.0076549
-0.0115295
-0.0167918
-0.0247316
-0.037903
-0.060043
-0.110687
0.0354097
-15.4862
7.49372
9.16622
7.44916
3.47809
-2.46087
4.22982
2.00279
0.157509
0.23928
-0.0348522
-0.0701159
-0.0836435
-0.0911647
-0.0963933
-0.102083
-0.00676775
-0.00702523
-0.00768231
-0.00877264
-0.0103834
-0.0126805
-0.015869
-0.0201693
-0.0260621
-0.0348327
-0.0486781
-0.071059
-0.12565
0.128742
-12.3133
7.01588
8.29722
6.11742
1.82994
-5.33331
3.06985
1.09256
-0.152535
0.235244
-0.0371983
-0.0721085
-0.0856232
-0.0931358
-0.0983676
-0.103915
-0.0149532
-0.0152264
-0.0159319
-0.0171176
-0.0188681
-0.0213419
-0.0247809
-0.0295152
-0.0361077
-0.0457042
-0.0604963
-0.0858683
-0.127582
-0.0610771
3.24636
6.54335
7.40565
4.62444
-0.102721
-8.11961
0.421514
0.0343575
-0.208324
0.213617
-0.0411994
-0.0743752
-0.0877912
-0.0952776
-0.100506
-0.105887
-0.0238616
-0.0241446
-0.0248842
-0.0261528
-0.0280443
-0.030713
-0.0344313
-0.0396297
-0.046971
-0.0575428
-0.0737799
-0.101797
-0.128689
-0.123739
7.89397
5.83483
6.36347
2.81194
-1.12115
-5.0343
-1.32607
-0.132719
-0.226329
-0.0426396
-0.0461416
-0.0769285
-0.0901633
-0.0976039
-0.102821
-0.108037
-0.0334914
-0.0337846
-0.0345559
-0.0359006
-0.0379313
-0.0408141
-0.0448557
-0.0505752
-0.0587319
-0.0704952
-0.0885671
-0.117147
-0.13554
-0.14135
8.64802
4.36646
5.21102
0.464617
-1.99499
-7.69612
-0.126737
-0.186953
-0.25386
-0.0572563
-0.0517124
-0.0798111
-0.0927588
-0.100132
-0.105328
-0.11038
-0.0438359
-0.0441414
-0.0449477
-0.0463678
-0.0485392
-0.0516569
-0.0560684
-0.0623749
-0.0714536
-0.0845529
-0.104461
-0.134779
-0.164569
-0.157651
-2.69323
2.23015
3.90317
-1.82129
-3.09405
-7.19214
-0.0891231
-0.202418
-0.269952
-0.0717724
-0.058023
-0.0830488
-0.0956029
-0.102881
-0.108045
-0.112933
-0.0548894
-0.0552097
-0.0560552
-0.0575541
-0.0598739
-0.0632526
-0.0680845
-0.0750458
-0.0851859
-0.0998881
-0.121837
-0.159008
-0.213708
-0.170795
-1.98665
1.87917
2.13931
-2.11262
-5.27547
-0.516449
-0.159087
-0.21637
-0.27694
-0.0857263
-0.06506
-0.0866984
-0.0987227
-0.105873
-0.110989
-0.115715
-0.0666198
-0.0669559
-0.0678433
-0.0694269
-0.0719078
-0.0755755
-0.0808828
-0.088584
-0.0999459
-0.116821
-0.142441
-0.188328
-0.245177
-0.226226
-1.12574
2.89308
-0.273419
-2.17087
-14.9751
-0.176741
-0.17851
-0.226988
-0.272598
-0.0988312
-0.072755
-0.090795
-0.102152
-0.10913
-0.114181
-0.118746
-0.0789608
-0.0793138
-0.0802444
-0.0819188
-0.0845731
-0.0885525
-0.0943862
-0.102934
-0.115706
-0.135294
-0.165972
-0.217392
-0.287294
-0.353348
-0.676929
-12.372
-4.11696
-1.87483
-16.7116
-0.197709
-0.196044
-0.234684
-0.26223
-0.110913
-0.081002
-0.0953636
-0.105913
-0.112676
-0.117642
-0.122048
-0.0917856
-0.0921571
-0.0931321
-0.0949003
-0.0977335
-0.102033
-0.108418
-0.117903
-0.132308
-0.155072
-0.19296
-0.259862
-0.369163
-0.502375
-0.133906
-30.7288
-8.03191
-1.11188
-4.38307
-0.188447
-0.211395
-0.240007
-0.249489
-0.121463
-0.089685
-0.100428
-0.110042
-0.116539
-0.121398
-0.125646
-0.104895
-0.105286
-0.106302
-0.108158
-0.111158
-0.115757
-0.122666
-0.133091
-0.149258
-0.175677
-0.222663
-0.316876
-0.486051
-0.682582
-0.272914
-5.30519
-8.18066
-1.03602
-0.333166
-0.173789
-0.221896
-0.242616
-0.236514
-0.130602
-0.0986795
-0.105999
-0.114566
-0.120745
-0.125473
-0.129563
-0.118014
-0.11842
-0.119467
-0.121388
-0.124515
-0.129342
-0.136661
-0.14785
-0.16556
-0.19551
-0.252231
-0.377981
-0.617527
-0.857849
-0.527861
1.6997
-6.01977
-0.655259
-0.0420383
-0.166657
-0.225677
-0.241791
-0.225238
-0.138613
-0.107883
-0.112088
-0.11952
-0.125327
-0.129898
-0.133829
-0.130775
-0.131191
-0.132248
-0.13419
-0.13736
-0.142272
-0.149757
-0.161286
-0.17977
-0.21178
-0.275462
-0.416106
-0.725712
-1.01988
-0.72643
-0.801442
5.44156
1.87701
-0.146227
-0.165127
-0.223361
-0.237142
-0.215849
-0.145878
-0.117204
-0.118693
-0.124934
-0.130317
-0.134702
-0.138472
-0.142777
-0.143188
-0.144219
-0.14611
-0.149198
-0.153978
-0.161256
-0.172449
-0.190433
-0.220845
-0.281937
-0.419412
-0.730747
-1.06505
-0.77796
-0.412035
24.6109
-0.893813
-0.220274
-0.173802
-0.217659
-0.229188
-0.208639
-0.15273
-0.126586
-0.125808
-0.13084
-0.135748
-0.139919
-0.143524
-0.153644
-0.154033
-0.154991
-0.156741
-0.159588
-0.163974
-0.170596
-0.180633
-0.196249
-0.221899
-0.268491
-0.372354
-0.590683
-0.921685
-0.487564
-0.538274
5.82715
-0.174619
-0.311383
-0.192123
-0.213155
-0.221394
-0.203746
-0.15943
-0.135997
-0.133429
-0.137268
-0.141657
-0.145585
-0.149018
-0.163135
-0.163484
-0.164323
-0.165844
-0.168301
-0.172053
-0.177643
-0.185935
-0.19844
-0.218042
-0.250828
-0.308567
-0.395481
-0.474566
-0.167207
0.0167559
-0.208819
-0.143863
-0.346421
-0.213546
-0.213196
-0.216563
-0.201158
-0.166166
-0.145431
-0.141539
-0.144243
-0.148081
-0.151738
-0.154992