/*--------------------------------*- C++ -*----------------------------------*\
| =========                 |                                                 |
| \\      /  F ield         | OpenFOAM: The Open Source CFD Toolbox           |
|  \\    /   O peration     | Version:  2.4.0                                 |
|   \\  /    A nd           | Web:      www.OpenFOAM.org                      |
|    \\/     M anipulation  |                                                 |
\*---------------------------------------------------------------------------*/
FoamFile
{
    version     2.0;
    format      ascii;
    class       volScalarField;
    location    "0.022";
    object      p_rgh;
}
// * * * * * * * * * * * * * * * * * * * * * * * * * * * * * * * * * * * * * //

dimensions      [1 -1 -2 0 0 0 0];

internalField   nonuniform List<scalar> 
14400
(
97.8948
97.9537
98.0791
98.2428
98.4085
98.5179
98.4878
98.2133
97.5697
96.4248
94.6723
92.2624
89.2159
85.6321
81.6768
77.5504
73.4523
69.5606
66.0218
62.9384
60.3592
58.2854
56.6765
55.4665
54.5827
53.9561
53.5276
53.2498
53.0859
53.0074
97.8946
97.9537
98.0793
98.2433
98.4098
98.5205
98.4925
98.2211
97.582
96.4425
94.696
92.2917
89.2494
85.6673
81.7105
77.5781
73.4702
69.5638
66.0063
62.9004
60.3004
58.2089
56.5871
55.3692
54.4812
53.8527
53.4237
53.146
52.9822
52.9038
97.894
97.9533
98.0791
98.2436
98.4113
98.5243
98.5001
98.2349
97.6048
96.4769
94.7435
92.3522
89.32
85.7424
81.7827
77.6387
73.5078
69.5699
65.969
62.8137
60.1646
58.0317
56.3799
55.1435
54.2458
53.6133
53.1832
52.9056
52.7422
52.6641
97.8932
97.9525
98.0785
98.2438
98.413
98.5293
98.5108
98.2547
97.6384
96.5284
94.8154
92.4448
89.4294
85.8599
81.8966
77.7353
73.5714
69.5815
65.9118
62.6772
59.949
57.7487
56.0481
54.7817
53.8688
53.2303
52.7988
52.5218
52.3593
52.2818
97.892
97.9514
98.0776
98.2437
98.415
98.5355
98.5244
98.2804
97.6826
96.5968
94.9115
92.5694
89.5776
86.0204
82.0533
77.8696
73.6613
69.6015
65.8377
62.4924
59.6522
57.3557
55.5853
54.2771
53.344
52.6986
52.2668
51.9917
51.8311
51.7547
97.8905
97.9498
98.0763
98.2434
98.4173
98.5429
98.541
98.312
97.7373
96.6818
95.0316
92.7261
89.7652
86.2245
82.254
78.0433
73.7806
69.6341
65.7508
62.2616
59.2726
56.8461
54.982
53.6192
52.6622
52.0111
51.5817
51.3112
51.1545
51.0803
97.8887
97.9479
98.0747
98.2429
98.4197
98.5515
98.5604
98.3493
97.8023
96.7833
95.1755
92.9148
89.9924
86.4732
82.5001
78.259
73.9331
69.6843
65.6566
61.9884
58.8082
56.2113
54.2245
52.7933
51.8105
51.1577
50.7363
50.4751
50.3258
50.2555
97.8865
97.9456
98.0727
98.2421
98.4222
98.5611
98.5825
98.3919
97.8772
96.9011
95.3429
93.1354
90.2597
86.7674
82.7934
78.5194
74.1234
69.7588
65.563
61.6785
58.258
55.4402
53.2938
51.7786
50.7711
50.1257
49.7219
49.4777
49.3409
49.2775
97.8841
97.943
98.0703
98.2411
98.4249
98.5716
98.6071
98.4397
97.9617
97.0346
95.5335
93.3879
90.5675
87.1084
83.1358
78.8273
74.3564
69.8656
65.4801
61.3409
57.6225
54.5185
52.1636
50.5459
49.5196
48.8979
48.5276
48.3121
48.196
48.1442
97.8814
97.9399
98.0675
98.2398
98.4276
98.5831
98.6342
98.4924
98.0556
97.1837
95.7467
93.6719
90.9163
87.4974
83.5292
79.186
74.6377
70.0141
65.4212
60.9894
56.9061
53.4293
50.7971
49.0536
48.0217
47.4524
47.1407
46.9712
46.8879
46.8557
97.8784
97.9365
98.0643
98.2382
98.4304
98.5955
98.6635
98.5496
98.1582
97.3477
95.982
93.9873
91.3067
87.9357
83.9757
79.5987
74.9735
70.215
65.403
60.645
56.1212
52.1533
49.1418
47.2425
46.2265
45.7581
45.5466
45.4486
45.4159
45.4155
97.8751
97.9328
98.0608
98.2362
98.4331
98.6085
98.6948
98.6109
98.2693
97.5264
96.2386
94.3335
91.7391
88.425
84.4775
80.0685
75.3694
70.4801
65.4455
60.3372
55.2947
50.6726
47.1194
45.0285
44.0515
43.7673
43.7283
43.7439
43.7858
43.8334
97.8715
97.9286
98.0568
98.234
98.4358
98.6221
98.728
98.6759
98.3882
97.7191
96.5158
94.7101
92.2142
88.9668
85.0368
80.5978
75.8307
70.8219
65.5714
60.1066
54.4795
48.9826
44.6045
42.3065
41.3401
41.4106
41.6746
41.8688
42.026
42.1571
97.8677
97.9241
98.0524
98.2313
98.4383
98.6363
98.7629
98.7442
98.5143
97.9255
96.8125
95.1161
92.7323
89.5628
85.6557
81.1888
76.3616
71.253
65.805
60.0032
53.7684
47.1293
41.3707
39.0622
37.6328
38.7001
39.426
39.3273
39.1078
39.2034
97.8637
97.9192
98.0476
98.2283
98.4406
98.6508
98.7993
98.8152
98.6471
98.1449
97.1276
95.5505
93.2938
90.2148
86.3366
81.8426
76.964
71.7856
66.1695
60.0813
53.3054
45.3152
37.053
26.3459
7.54661
3.27657
0.333295
0.212216
0.209313
0.221191
97.8594
97.914
98.0423
98.2248
98.4426
98.6656
98.8369
98.8883
98.7857
98.3771
97.4596
96.0119
93.8992
90.925
87.0818
82.5594
77.6366
72.4309
66.6857
60.3837
53.2764
44.0073
9.5103
0.452328
0.21758
0.211207
0.215748
0.213853
0.210963
0.214725
97.8549
97.9085
98.0366
98.2209
98.4442
98.6805
98.8755
98.9629
98.9294
98.6217
97.807
96.4984
94.5486
91.6954
87.8944
83.3387
78.3727
73.1983
67.3738
60.9148
53.8444
16.3712
0.0894577
0.260603
0.229168
0.216488
0.212333
0.210082
0.208314
0.21762
97.8501
97.9025
98.0304
98.2165
98.4453
98.6953
98.915
99.0384
99.0771
98.8785
98.1677
97.0077
95.2419
92.5284
88.7776
84.1794
79.1573
74.0929
68.2654
61.5334
43.4641
0.195436
0.123237
0.200667
0.217467
0.212378
0.207984
0.205608
0.204217
0.206629
97.8453
97.8963
98.0237
98.2115
98.446
98.71
98.9552
99.114
99.2277
99.1476
98.5398
97.5369
95.9792
93.4268
89.736
85.0812
79.964
75.105
69.4594
61.4825
-0.632017
0.185403
0.134709
0.177597
0.201245
0.203959
0.201887
0.200179
0.198841
0.198683
97.8402
97.8897
98.0165
98.2061
98.446
98.7243
98.9958
99.1889
99.3798
99.4295
98.9204
98.0818
96.76
94.3933
90.7756
86.0474
80.7518
76.185
71.3198
36.8483
0.218459
0.192008
0.159852
0.176007
0.193344
0.196087
0.195253
0.1942
0.195182
0.192971
97.835
97.8828
98.0089
98.2
98.4453
98.7381
99.0368
99.2623
99.5318
99.7252
99.3068
98.6372
97.5839
95.4308
91.9038
87.0886
81.4683
77.1933
73.9863
-0.000280949
0.222636
0.197021
0.175948
0.180039
0.187122
0.188771
0.188421
0.187674
0.187237
0.186994
97.8297
97.8756
98.0007
98.1933
98.4438
98.7512
99.078
99.3334
99.6816
100.037
99.6953
99.1967
98.4496
96.5419
93.1298
88.2285
82.0753
77.7475
53.5595
-0.13036
0.236634
0.192256
0.178212
0.178203
0.18076
0.181571
0.181548
0.180928
0.180663
0.180613
97.8243
97.868
97.9919
98.186
98.4414
98.7635
99.1194
99.4014
99.8264
100.367
100.082
99.7516
99.3556
97.7287
94.4634
89.5041
82.597
76.4215
-1.48948
0.0462832
0.205565
0.181352
0.173881
0.173024
0.173909
0.174313
0.174222
0.174042
0.173951
0.173937
97.8189
97.8602
97.9826
98.1781
98.438
98.7746
99.1608
99.4656
99.9626
100.72
100.461
100.291
100.3
98.9922
95.9116
90.9614
83.2131
73.7985
-0.628433
0.109163
0.168927
0.169264
0.166699
0.166158
0.166573
0.166859
0.166912
0.166924
0.166967
0.167013
97.8134
97.852
97.9727
98.1695
98.4335
98.7843
99.2023
99.5254
100.085
101.103
100.827
100.799
101.28
100.334
97.4844
92.6589
84.6825
46.2611
0.628459
0.221482
0.164273
0.159451
0.158433
0.158349
0.158784
0.159132
0.159336
0.1595
0.159648
0.159749
97.808
97.8435
97.9622
98.1602
98.4278
98.7925
99.2437
99.5807
100.188
101.525
101.169
101.259
102.294
101.761
99.1639
94.5711
87.7538
8.74617
0.321861
0.167804
0.155968
0.150193
0.149513
0.149905
0.150574
0.151094
0.151456
0.151747
0.151978
0.152121
97.8026
97.8347
97.9511
98.1501
98.4208
98.7987
99.285
99.632
100.261
101.997
101.47
101.644
103.342
103.266
100.937
96.5661
92.6189
9.30392
0.183685
0.154465
0.143487
0.139916
0.140022
0.140982
0.141996
0.142746
0.143271
0.143661
0.143939
0.144097
97.7973
97.8257
97.9393
98.1394
98.4125
98.8026
99.3258
99.6807
100.292
102.534
101.705
101.918
104.42
104.795
102.809
98.8303
95.8077
3.02061
0.080497
0.129468
0.128814
0.128698
0.130043
0.131688
0.133123
0.134153
0.134859
0.135345
0.135645
0.13579
97.7923
97.8163
97.9268
98.1279
98.4026
98.8038
99.3659
99.7294
100.262
103.153
101.834
102.029
105.517
106.388
104.817
100.773
88.6792
-0.0253325
0.0419201
0.107242
0.113529
0.116848
0.119655
0.122099
0.124022
0.125389
0.126332
0.126955
0.127307
0.127454
97.7993
97.8068
97.9135
98.1156
98.3912
98.8018
99.4041
99.7816
100.144
103.878
101.803
101.9
106.664
108.06
106.807
102.558
83.7899
-0.0117076
0.0341931
0.0862063
0.0985779
0.104693
0.108978
0.112276
0.114729
0.116488
0.117727
0.118545
0.119006
0.119203
52.9925
53.0348
53.1506
53.3648
53.7098
54.2275
54.9709
56.0042
57.3994
59.2274
61.5435
64.3684
67.6788
71.3981
75.4017
79.5281
83.5893
87.3854
90.7319
93.4949
95.6127
97.0948
98.0103
98.4707
98.6034
98.5328
98.3658
98.1798
98.0222
97.9208
52.8889
52.9311
53.0468
53.2609
53.6061
54.1248
54.8711
55.9103
57.3159
59.1593
61.495
64.3424
67.6731
71.4091
75.4246
79.559
83.6239
87.4197
90.7631
93.5212
95.6333
97.1098
98.0205
98.4771
98.607
98.5346
98.3666
98.18
98.0222
97.9207
52.6493
52.6913
52.8066
53.0203
53.3659
53.8869
54.6398
55.6927
57.1225
59.0019
61.3835
64.281
67.6587
71.4327
75.4752
79.6259
83.6976
87.4924
90.8283
93.5748
95.6741
97.1386
98.0391
98.4881
98.6128
98.537
98.3673
98.1799
98.0218
97.9202
52.2671
52.3087
52.4232
52.6361
52.9818
53.5061
54.2691
55.3441
56.813
58.751
61.2071
64.1852
67.6379
71.472
75.5565
79.7318
83.8135
87.6056
90.9287
93.6564
95.7355
97.1814
98.0664
98.5038
98.6207
98.5401
98.3679
98.1795
98.0211
97.9193
51.7402
51.7811
51.894
52.1048
52.4494
52.9768
53.7524
54.8576
56.3821
58.4039
60.9661
64.0576
67.6139
71.5298
75.6704
79.8782
83.9721
87.7595
91.0644
93.7659
95.8173
97.238
98.1022
98.5243
98.6307
98.5439
98.3685
98.1787
98.0199
97.9179
51.0661
51.1057
51.2154
51.4217
51.7623
52.2905
53.0797
54.2229
55.8213
57.9566
60.6611
63.9016
67.5908
71.6094
75.8193
80.0664
84.1746
87.9547
91.2353
93.903
95.9193
97.3084
98.1464
98.5493
98.6428
98.5482
98.3689
98.1776
98.0183
97.9162
50.242
50.2791
50.3829
50.5806
50.912
51.4359
52.2369
53.4253
55.1192
57.4037
60.2933
63.7223
67.5743
71.7154
76.0063
80.2985
84.422
88.1919
91.4418
94.0676
96.0413
97.3922
98.1987
98.5788
98.657
98.553
98.3692
98.1761
98.0163
97.914
49.2652
49.2981
49.3917
49.5741
49.8876
50.3974
51.2043
52.4443
54.2601
56.7394
59.8658
63.527
67.5718
71.8533
76.2346
80.5764
84.7156
88.4715
91.6838
94.2595
96.1829
97.4892
98.259
98.6126
98.673
98.5584
98.3693
98.1742
98.0139
97.9114
48.1343
48.1599
48.2361
48.3934
48.6754
49.1543
49.9541
51.2506
53.223
55.9573
59.3845
63.3261
67.5928
72.0295
76.5083
80.9025
85.0569
88.7945
91.9616
94.4784
96.3439
97.5991
98.327
98.6506
98.6908
98.5641
98.3693
98.1719
98.0111
97.9083
46.8507
46.8638
46.9105
47.0285
47.2585
47.678
48.4472
49.803
51.9795
55.0524
58.8605
63.134
67.6486
72.2515
76.8315
81.2793
85.4475
89.1617
92.2751
94.7239
96.5238
97.7216
98.4023
98.6924
98.7103
98.5703
98.369
98.1692
98.0079
97.9048
45.42
45.4121
45.4103
45.4694
45.6153
45.9263
46.6267
48.0419
50.4916
54.0242
58.3133
62.9701
67.7529
72.5274
77.2084
81.7091
85.889
89.5739
92.6245
94.9953
96.7222
97.8563
98.4847
98.738
98.7314
98.5766
98.3685
98.1662
98.0043
97.9008
43.8511
43.8105
43.7388
43.7093
43.7148
43.8281
44.4098
45.8788
48.7079
52.8841
57.7751
62.8594
67.9214
72.8654
77.643
82.1945
86.3833
90.0322
93.0095
95.2922
96.9383
98.0027
98.5736
98.7871
98.7538
98.5832
98.3677
98.1626
98.0003
97.8964
42.1812
42.0867
41.9272
41.7533
41.5048
41.2525
41.6918
43.17
46.5605
51.6708
57.2965
62.8322
68.1712
73.2738
78.1386
82.7376
86.9323
90.5375
93.4302
95.6135
97.1716
98.1604
98.6686
98.8394
98.7774
98.5899
98.3665
98.1587
97.9958
97.8915
39.1871
39.1861
39.3255
39.3978
38.7902
37.978
38.5021
39.61
43.9695
50.4786
56.9503
62.9219
68.5203
73.7603
78.6978
83.3407
87.5378
91.0909
93.8861
95.9581
97.4214
98.3289
98.7693
98.8947
98.8021
98.5965
98.365
98.1543
97.9909
97.8861
0.226697
0.216644
0.202809
0.221258
1.25903
5.43011
15.6443
32.7035
40.9412
49.4933
56.8313
63.1596
68.9871
74.3304
79.3212
84.0054
88.2021
91.6934
94.3768
96.3248
97.6871
98.5078
98.875
98.9527
98.8277
98.603
98.3631
98.1494
97.9857
97.8801
0.214989
0.210491
0.21152
0.214735
0.211947
0.211721
0.21261
0.370322
31.4295
48.9629
57.0442
63.5649
69.5909
74.9865
80.0075
84.7335
88.9275
92.3462
94.9014
96.7119
97.9678
98.6966
98.985
99.0131
98.8538
98.6092
98.3607
98.144
97.98
97.8736
0.217521
0.216703
0.208507
0.21038
0.212664
0.220372
0.234139
0.20341
0.203546
45.822
57.6702
64.1323
70.3559
75.726
80.7523
85.5268
89.7167
93.0503
95.459
97.1172
98.2628
98.8947
99.0987
99.0756
98.8805
98.615
98.3577
98.138
97.9739
97.8666
0.205162
0.203793
0.204495
0.206055
0.208912
0.214756
0.204088
0.148009
0.208894
2.04758
58.812
64.7996
71.3185
76.5327
81.5482
86.3876
90.5728
93.8068
96.0481
97.5381
98.5714
99.1018
99.2152
99.1399
98.9073
98.6203
98.3542
98.1316
97.9673
97.8589
0.198948
0.201529
0.199218
0.200481
0.202251
0.203224
0.18847
0.195116
0.178835
0.171074
36.4027
65.4738
72.5414
77.3716
82.3846
87.3199
91.4994
94.6167
96.6669
97.9715
98.8929
99.3174
99.3333
99.2058
98.9341
98.6249
98.3501
98.1246
97.9604
97.8507
0.193516
0.200204
0.193662
0.19433
0.195275
0.194931
0.186514
0.165144
0.178064
0.19268
-0.207814
65.8851
74.119
78.1691
83.2512
88.33
92.5006
95.481
97.3128
98.413
99.2271
99.5413
99.452
99.273
98.9606
98.6286
98.3453
98.1171
97.953
97.8419
0.187127
0.190704
0.187276
0.187942
0.18831
0.187864
0.183844
0.176373
0.183437
0.207832
0.306843
43.9367
76.2617
78.7845
84.145
89.4285
93.581
96.4004
97.9825
98.8574
99.5738
99.7732
99.57
99.3413
98.9866
98.6314
98.3397
98.1089
97.9453
97.8324
0.180581
0.180572
0.18069
0.181105
0.181325
0.181007
0.179229
0.177114
0.182958
0.204493
0.249258
0.0933758
79.5275
78.987
85.0862
90.6312
94.7453
97.3754
98.672
99.2976
99.9336
100.013
99.6856
99.4106
99.0118
98.633
98.3334
98.1002
97.9371
97.8222
0.173925
0.173911
0.173947
0.174074
0.174188
0.174011
0.17325
0.172906
0.177021
0.186759
0.0935605
0.0545243
81.5087
78.5984
86.128
91.9578
95.9974
98.4055
99.3761
99.7244
100.308
100.262
99.7969
99.4808
99.0359
98.6332
98.3263
98.0908
97.9286
97.8113
0.167022
0.16699
0.16695
0.166933
0.166904
0.166734
0.166355
0.1664
0.16869
0.170512
0.114675
0.453046
9.56237
77.8827
87.3934
93.4222
97.3406
99.4895
100.088
100.126
100.698
100.52
99.9018
99.5521
99.0585
98.6318
98.3183
98.0808
97.9197
97.7997
0.159778
0.159733
0.159632
0.159504
0.159349
0.159114
0.158786
0.158756
0.159919
0.160926
0.152628
0.280222
1.67576
77.2281
89.114
95.0532
98.7791
100.625
100.8
100.485
101.11
100.789
99.9976
99.6245
99.0795
98.6287
98.3095
98.0701
97.9104
97.7874
0.152163
0.152107
0.151963
0.151749
0.151475
0.151119
0.150664
0.150364
0.150935
0.152815
0.16071
0.247806
0.207555
74.1916
91.3372
96.802
100.317
101.812
101.503
100.782
101.549
101.072
100.081
99.6984
99.0984
98.6237
98.2997
98.0588
97.9008
97.7742
0.144145
0.144093
0.143936
0.143665
0.143276
0.142755
0.14207
0.141369
0.141269
0.142785
0.150869
0.192971
-0.49352
86.6796
93.7902
98.6354
101.94
103.047
102.188
100.991
102.027
101.374
100.149
99.7743
99.115
98.6165
98.289
98.0467
97.8909
97.7601
0.135834
0.135804
0.135656
0.135336
0.134819
0.134085
0.133083
0.131868
0.130874
0.130783
0.133325
0.144784
0.00634623
71.5802
96.3686
100.634
103.603
104.294
102.847
101.082
102.559
101.705
100.197
99.8528
99.129
98.6068
98.2774
98.034
97.8807
97.7451
0.127494
0.127464
0.127294
0.126887
0.126188
0.125174
0.123777
0.121945
0.119875
0.117715
0.114826
0.109193
0.0405299
32.23
97.9105
102.631
105.394
105.546
103.469
101.015
103.172
102.08
100.219
99.9346
99.1402
98.5945
98.2649
98.0205
97.8702
97.7292
0.119245
0.119175
0.118918
0.118364
0.117426
0.116059
0.114197
0.1117
0.108471
0.10423
0.0968962
0.0734634
0.0882072
4.737
100.932
104.588
107.233
106.84
104.065
100.739
103.91
102.523
100.21
100.02
99.1484
98.5792
98.2515
98.0062
97.8596
97.7105
-0.00281297
16.9823
30.0298
52.2033
79.062
98.7957
99.4355
99.8341
99.9404
104.623
101.579
101.514
107.694
109.456
108.663
104.03
73.2413
-0.108502
0.0365937
0.0697846
0.0857112
0.0938333
0.099334
0.103364
0.106311
0.108471
0.110024
0.111056
0.111653
0.111928
-0.00164658
0.00284636
0.00648593
0.01128
0.0188832
0.498731
35.0618
99.734
99.7647
105.114
101.351
101.148
108.327
110.312
109.756
104.694
53.3809
-0.0486946
0.0378756
0.0616831
0.0781233
0.0873224
0.0934864
0.0978847
0.101131
0.103565
0.105317
0.10648
0.107178
0.107526
-0.00163776
0.00283815
0.00649025
0.0112811
0.0186451
0.0322238
0.0647579
-0.029106
82.14
105.7
101.012
100.581
109.019
111.169
111.004
105.832
16.9597
-0.0262526
0.0341251
0.0544638
0.0701407
0.0804034
0.0871984
0.0919589
0.0955146
0.098194
0.100103
0.101378
0.102178
0.102603
-0.00148943
0.00282963
0.00649012
0.0112836
0.0186429
0.0323212
0.0654154
0.100646
20.4436
103.955
100.554
99.8016
109.813
112.08
112.247
108.399
8.03321
0.00747974
0.0218499
0.0470113
0.0618869
0.0730038
0.0804195
0.0855824
0.0894418
0.0923229
0.0943626
0.0957452
0.0966353
0.0971168
-0.00134737
0.00282278
0.00648758
0.0112776
0.0186126
0.0322829
0.064518
0.0867376
0.814004
70.8441
100.269
99.2374
110.7
113.027
113.625
112.562
8.04396
0.00404351
0.00895229
0.0376231
0.0530998
0.065019
0.0730851
0.0787221
0.0828778
0.0859284
0.088096
0.0895886
0.0905523
0.091065
-0.00120469
0.00281883
0.00648193
0.0112598
0.0185547
0.0321061
0.0628317
0.067742
-0.123731
3.94257
61.3677
100.709
111.602
113.843
115.023
116.559
2.81242
-0.0278773
0.00149147
0.0261765
0.0433682
0.0563207
0.065154
0.0713456
0.0758028
0.07902
0.0813223
0.0829205
0.0839414
0.0844707
-0.00105863
0.00281693
0.00647245
0.0112303
0.0184592
0.0317597
0.0604752
0.0461088
-0.145642
-0.101966
16.9226
100.377
113.124
114.477
116.511
117.713
-0.711245
-0.0646873
-0.00547132
0.0135682
0.0324012
0.0467764
0.05658
0.0634033
0.0681961
0.0716055
0.0740467
0.0757379
0.0768046
0.0773471
-0.0009144
0.00281627
0.00645653
0.0111814
0.018318
0.0312218
0.0571335
0.025113
-0.16711
-0.12935
-0.296295
83.79
115.376
114.356
118.165
99.2338
-0.225759
-0.103438
-0.0214964
-0.000585238
0.0201827
0.0363497
0.0473407
0.0548682
0.0600551
0.0636973
0.0662801
0.0680515
0.0691574
0.0697141
-0.000773873
0.00281601
0.00643301
0.0111109
0.0181106
0.0304436
0.0527955
0.0404454
-0.169654
-0.141934
-0.159287
35.9117
118.072
113.675
119.622
77.7395
0.0673324
-0.131344
-0.0529527
-0.0191181
0.00649487
0.0250622
0.0374262
0.0457306
0.0513826
0.0553042
0.0580379
0.0598834
0.0610242
0.0615957
-0.00063693
0.00281511
0.00639881
0.0110089
0.0178201
0.029399
0.0476909
0.00398475
-0.159608
-0.15226
-0.126311
5.72442
120.488
114.007
119.892
90.8365
-0.0394016
-0.145821
-0.096263
-0.0433317
-0.00874644
0.0129565
0.0268452
0.0360189
0.0422142
0.046462
0.0493654
0.0512872
0.0524601
0.053044
-0.000505365
0.00281248
0.00635236
0.0108751
0.0174401
0.0280798
0.042147
-0.0020356
-0.147014
-0.160464
-0.0978712
0.196325
124.746
115.71
120.598
35.1851
-0.190027
-0.199391
-0.135055
-0.0663987
-0.0248924
1.75679e-05
0.0156378
0.0258203
0.0326378
0.0372515
0.0403452
0.0423514
0.0435559
0.044148
-0.000379702
0.00280706
0.00629026
0.0107003
0.0169567
0.0264865
0.0363494
-0.00661878
-0.133512
-0.164897
-0.0743705
0.00676132
109.122
115.198
123.384
2.10421
-0.353076
-0.305539
-0.180711
-0.092277
-0.0428213
-0.0137427
0.0039923
0.0153375
0.0228297
0.0278275
0.0311236
0.0332228
0.0344602
0.0350566
-0.000261499
0.00279764
0.0062105
0.0104819
0.0163631
0.0246364
0.030496
-0.0116572
-0.120726
-0.16358
-0.066827
-0.0935106
91.7738
116.355
131.721
-0.33135
-0.530757
-0.436824
-0.255849
-0.127906
-0.0625594
-0.0277848
-0.00762344
0.00493729
0.0130868
0.0184475
0.0219371
0.0241273
0.0253949
0.0259909
-0.000151913
0.00278287
0.00610941
0.0102124
0.0156527
0.0225587
0.0247728
-0.0155898
-0.108178
-0.154427
-0.0649016
-0.0722974
44.4822
121.424
140.313
-0.0549335
-0.713162
-0.567914
-0.302719
-0.165523
-0.0812202
-0.0407835
-0.0183981
-0.00481682
0.00384937
0.00948562
0.0131209
0.0153778
0.0166633
0.0172525
-5.24348e-05
0.002761
0.00598438
0.0098875
0.0148213
0.0202979
0.0193497
-0.0182831
-0.0955521
-0.136861
-0.0629159
-0.0518428
21.7806
137.829
141.522
-0.103496
-0.788629
-0.756978
-0.315371
-0.190967
-0.0948324
-0.0507609
-0.0272027
-0.0131618
-0.00429178
0.00143806
0.0051151
0.00738304
0.00866028
0.00923298
3.56978e-05
0.00273001
0.00583183
0.0095021
0.0138725
0.0179095
0.0143709
-0.0199855
-0.0829773
-0.114434
-0.0621127
-0.0651963
4.18525
156.953
121.526
0.0348503
-0.772929
-0.768677
-0.287997
-0.190512
-0.0972918
-0.0553262
-0.0327909
-0.0192798
-0.0106948
-0.00514756
-0.00158911
0.00060115
0.00182403
0.00236494
0.000112349
0.00268774
0.00564894
0.00905309
0.0128105
0.0154535
0.00992645
-0.0208697
-0.0711347
-0.0934461
-0.0626622
-0.0736545
-0.217208
29.1186
6.91729
-0.101889
-0.653676
-0.578731
-0.205029
-0.152774
-0.086805
-0.0536681
-0.0344703
-0.0225325
-0.0148233
-0.0097889
-0.00654401
-0.00454419
-0.00342899
-0.00294495
0.000177126
0.00263194
0.00543282
0.00854057
0.0116544
0.0129972
0.00608538
-0.0210502
-0.0606581
-0.0774666
-0.0632532
-0.080772
-0.138888
-0.00761619
-0.183113
-0.00832935
-0.20324
-0.219699
-0.181547
-0.115299
-0.0720087
-0.0475974
-0.0325555
-0.0228714
-0.0164738
-0.0122356
-0.00948181
-0.00777777
-0.00682764
-0.00642109
0.000230502
0.00256049
0.00518145
0.0079659
0.0104247
0.0106085
0.00286592
-0.0206473
-0.0517175
-0.0656273
-0.0613376
-0.0723022
-0.090026
-0.0387749
-0.0862183
0.0638182
-0.0468358
-0.135616
-0.112825
-0.0781735
-0.0540074
-0.0383295
-0.0278368
-0.0207109
-0.0158523
-0.0125736
-0.0104208
-0.00908162
-0.00833474
-0.00801987
0.000271531
0.002471
0.00489336
0.00733476
0.00915253
0.00835554
0.0002773
-0.019793
-0.0441363
-0.0561908
-0.0568871
-0.062516
-0.0652386
-0.0380377
-0.0318449
0.0100857
-0.0103904
-0.0544482
-0.0596606
-0.0485855
-0.0370382
-0.0281102
-0.0215681
-0.0168569
-0.0135223
-0.0112207
-0.00968996
-0.00873155
-0.00819793
-0.00797872
0.000299562
0.00236114
0.00456806
0.00665381
0.00786758
0.0062957
-0.00171425
-0.0185886
-0.0376736
-0.048106
-0.0507284
-0.0528754
-0.0500306
-0.0331494
-0.0171677
0.00614556
-0.00306013
-0.0219183
-0.0291438
-0.0274235
-0.0230381
-0.0186994
-0.0151101
-0.0123358
-0.0102857
-0.00883511
-0.0078576
-0.00724236
-0.00690238
-0.00676903
0.000314603
0.0022285
0.00420637
0.00593389
0.00660098
0.00447128
-0.00314062
-0.0171316
-0.0320669
-0.0408682
-0.0437853
-0.0439193
-0.0393174
-0.0273856
-0.0136893
-0.00112808
-0.0021819
-0.00924129
-0.0135658
-0.0142136
-0.0129761
-0.011201
-0.0094885
-0.00804953
-0.00693459
-0.00612544
-0.00557429
-0.00522796
-0.00504087
-0.00497387
0.000316493
0.00207136
0.00381042
0.00518843
0.00538826
0.00291838
-0.00406377
-0.01549
-0.0271094
-0.0342703
-0.0367634
-0.035863
-0.0310587
-0.022164
-0.0121605
-0.00442599
-0.0025896
-0.00437752
-0.00615405
-0.00680128
-0.00658549
-0.00596983
-0.00525814
-0.00460474
-0.004075
-0.00368379
-0.00341709
-0.00325232
-0.00316928
-0.00314673
0.000305998
0.00188866
0.00338417
0.00443422
0.00426132
0.00165423
-0.00453198
-0.0137117
-0.022645
-0.0282446
-0.0300932
-0.0287598
-0.0244281
-0.0177541
-0.0106771
-0.00532289
-0.00288951
-0.00255633
-0.00285191
-0.00304279
-0.00299437
-0.00278461
-0.00251308
-0.00225108
-0.00203651
-0.00187868
-0.00177193
-0.00171024
-0.00168781
-0.00169065
0.000283667
0.00168044
0.0029324
0.0036876
0.00324847
0.000688519
-0.00460947
-0.0118368
-0.0185779
-0.0227748
-0.0240002
-0.0225825
-0.018986
-0.014037
-0.00904263
-0.00517504
-0.00291256
-0.00190836
-0.00154006
-0.00139033
-0.00128147
-0.00116914
-0.00105785
-0.000962236
-0.000889723
-0.00083837
-0.000806429
-0.000794898
-0.000800457
-0.000811873
0.000250269
0.00144741
0.0024607
0.00296543
0.00237169
1.49153e-05
-0.00434898
-0.00988672
-0.0148426
-0.0178474
-0.0185673
-0.0172625
-0.0144506
-0.0108698
-0.00737288
-0.00460077
-0.00276964
-0.00172319
-0.00117393
-0.000890152
-0.000736168
-0.00064626
-0.000591403
-0.0005582
-0.000539007
-0.00052943
-0.000528679
-0.000535614
-0.000545568
-0.000552985
0.000206884
0.00119065
0.00197393
0.00227923
0.00163951
-0.00038411
-0.00380716
-0.00788806
-0.0113917
-0.0134284
-0.0137856
-0.0127012
-0.01063
-0.00814392
-0.0057778
-0.00388352
-0.00256421
-0.00174268
-0.00127226
-0.00102117
-0.000896936
-0.000842122
-0.000823814
-0.000823657
-0.000832141
-0.000844443
-0.000857376
-0.000868042
-0.000874714
-0.000877916
0.00015407
0.000910569
0.00147488
0.00163588
0.00105388
-0.000533518
-0.00303137
-0.00585241
-0.00817728
-0.00945596
-0.00958295
-0.00876943
-0.00737367
-0.00578388
-0.0043213
-0.00317164
-0.00237892
-0.00189512
-0.00163607
-0.00152205
-0.00149271
-0.00150795
-0.00154344
-0.00158461
-0.00162311
-0.00165481
-0.00167827
-0.00169365
-0.00170263
-0.00170753
9.19365e-05
0.000605811
0.00096175
0.00103073
0.000598128
-0.000470556
-0.00206182
-0.00378017
-0.00514057
-0.00583926
-0.00584442
-0.00533479
-0.00455426
-0.00373202
-0.00303764
-0.00255176
-0.00227881
-0.00217876
-0.00219685
-0.00228342
-0.00240122
-0.00252529
-0.0026409
-0.00274042
-0.00282041
-0.00288078
-0.00292376
-0.00295228
-0.00296955
-0.00297871
1.96448e-05
0.000272148
0.000425295
0.00044444
0.000237137
-0.000244218
-0.000934085
-0.00165327
-0.00220055
-0.0024564
-0.00240984
-0.00223652
-0.00204344
-0.00192614
-0.00193977
-0.00208654
-0.00233856
-0.00265513
-0.00299627
-0.00333025
-0.0036355
-0.00389999
-0.00411964
-0.00429567
-0.00443189
-0.00453348
-0.00460604
-0.00465484
-0.00468473
-0.00470005
0.111982
0.111848
0.111468
0.110739
0.10955
0.10782
0.105482
0.102385
0.0981784
0.092173
0.0813857
0.0530205
0.0566546
2.21532
101.357
106.585
108.827
107.898
104.574
100.258
104.711
102.998
100.169
100.101
99.1529
91.0346
65.5386
40.0543
22.0658
10.1174
0.107599
0.107416
0.106933
0.106078
0.104738
0.102788
0.100136
0.096674
0.0919589
0.0849496
0.0727205
0.0472018
0.0156198
-0.277903
97.4803
107.783
109.812
108.531
104.87
99.8458
105.261
103.319
100.128
76.8914
9.17493
0.0327383
0.0184242
0.010845
0.00562655
-0.000125242
0.102698
0.10247
0.101887
0.100908
0.0994322
0.0973016
0.0943652
0.0904906
0.0852283
0.0772885
0.0641171
0.0419771
-0.00866661
0.137452
82.002
109.197
110.87
109.153
105.182
99.2429
105.934
103.707
20.6193
0.346656
0.0671959
0.0319043
0.0183767
0.0108554
0.00562682
-6.30102e-05
0.0972256
0.0969681
0.096311
0.0952207
0.09361
0.0913128
0.0881243
0.0838241
0.0779313
0.0691607
0.0553153
0.0329344
-0.0216566
0.232735
80.52
110.687
111.968
109.788
105.501
98.3377
106.741
62.3695
2.47705
0.343314
0.0667952
0.0318849
0.0183701
0.0108576
0.00562577
7.85963e-05
0.0911778
0.0909046
0.0901991
0.0890133
0.0872629
0.0847891
0.08135
0.0766157
0.0700233
0.0604267
0.0456346
0.0202627
-0.0214511
0.0450539
92.3352
112.345
113.208
110.426
105.699
97.6823
101.487
21.195
-0.0836815
0.386711
0.0649316
0.0317558
0.0183398
0.0108534
0.00562454
0.000244006
0.0845826
0.0842995
0.0835599
0.0822914
0.0803998
0.0777312
0.0740129
0.0688144
0.0614731
0.0509013
0.0346643
0.00664707
-0.0202449
-0.015295
87.7654
113.943
114.471
110.92
106.987
85.4095
35.5966
0.0882466
-0.115717
0.0660247
0.0623056
0.0315156
0.0182808
0.0108402
0.00562312
0.000406859
0.0774577
0.0771645
0.0763933
0.0750486
0.0730178
0.070135
0.0660934
0.0603739
0.0522172
0.040454
0.0223821
-0.00619781
-0.0245903
-0.0304013
73.5263
114.971
115.816
111.07
108.61
70.3964
0.0780923
-0.0683046
-0.137721
0.0536963
0.0592368
0.031138
0.0181903
0.0108175
0.00562067
0.000568892
0.0698248
0.0695192
0.0687129
0.0672929
0.0651215
0.0620037
0.0575922
0.0512857
0.042207
0.0291077
0.0091998
-0.0211185
-0.0509087
-0.0439895
26.1496
115.535
117.211
111.487
110.214
14.2187
0.038511
-0.0878415
-0.152818
0.0418883
0.0556377
0.0306118
0.0180577
0.0107794
0.00561589
0.00072795
0.0617073
0.0613871
0.0605416
0.0590427
0.0567228
0.0533441
0.0485123
0.0415509
0.0314109
0.0167087
-0.00524026
-0.0424112
-0.0971114
-0.0541411
4.07514
118.101
118.375
114.123
108.543
-0.117613
-0.041472
-0.0997022
-0.153965
0.0308706
0.0515367
0.0298984
0.0178741
0.0107241
0.00560775
0.000882005
0.0531554
0.0528192
0.0519319
0.0503483
0.0478674
0.0441997
0.0388923
0.0311912
0.0198293
0.00295409
-0.0226655
-0.0685523
-0.124864
-0.105778
-0.494467
122.271
119.13
117.233
75.8553
-0.0457347
-0.0586749
-0.107212
-0.148772
0.0210016
0.0470202
0.0289802
0.0176237
0.0106451
0.00559458
0.00102931
0.0442557
0.0439028
0.0429721
0.0412977
0.0386434
0.034664
0.0288304
0.0202827
0.00751006
-0.0120774
-0.0427557
-0.0941757
-0.164075
-0.229324
-0.553412
106.508
118.718
120.96
24.6368
-0.071012
-0.0728153
-0.111467
-0.139014
0.012308
0.0422146
0.0278529
0.0173035
0.0105404
0.00557447
0.00116805
0.0351568
0.0347852
0.0338103
0.0320421
0.0292089
0.0249097
0.0185245
0.00903933
-0.0053659
-0.0281299
-0.066018
-0.13292
-0.242182
-0.37522
-0.00754757
69.3574
118.517
125.437
11.4973
-0.056562
-0.084451
-0.113065
-0.122546
0.00547904
0.0372574
0.0265148
0.0169003
0.0104034
0.00554476
0.00129622
0.02608
0.0256897
0.0246734
0.0228177
0.0198171
0.0152186
0.00830882
-0.00211532
-0.0182825
-0.0447022
-0.091688
-0.185901
-0.33395
-0.532594
-0.140761
73.6102
122.387
129.533
7.18055
-0.042656
-0.0909206
-0.111641
-0.105539
0.000373221
0.0322957
0.0249759
0.0164092
0.0102304
0.00550245
0.00141181
0.0173282
0.0169221
0.0158749
0.0139538
0.0108268
0.00600019
-0.00131865
-0.012508
-0.0302182
-0.0601674
-0.116888
-0.24264
-0.42808
-0.670725
-0.390736
59.31
128.895
134.262
0.463302
-0.031303
-0.0903345
-0.106449
-0.0898955
-0.00327098
0.0274597
0.0232547
0.0158223
0.010015
0.00544439
0.00151277
0.00929414
0.0088789
0.00782192
0.00587997
0.00270915
-0.00220254
-0.00968745
-0.0212168
-0.0397008
-0.0717102
-0.135392
-0.27298
-0.528963
-0.871652
-0.584117
29.1323
145.047
132.603
0.0109275
-0.025055
-0.0832918
-0.0970722
-0.0757798
-0.00580874
0.0228652
0.0213769
0.0151354
0.00975301
0.00536739
0.00159733
0.00241089
0.00199964
0.000968611
-0.000922565
-0.00401022
-0.00879061
-0.0160683
-0.0272613
-0.0452457
-0.0756579
-0.136747
-0.249346
-0.534698
-0.916497
-0.630373
2.01867
169.064
79.9295
-0.0653552
-0.0286137
-0.0724715
-0.0840009
-0.0634511
-0.00754243
0.0186018
0.0193796
0.0143478
0.00943965
0.00526822
0.00166367
-0.00291518
-0.00330442
-0.00426278
-0.00601214
-0.00885893
-0.0132449
-0.0198675
-0.0299046
-0.0455202
-0.0711703
-0.117762
-0.218292
-0.375148
-0.76811
-0.334207
-0.384562
63.8
-0.0174556
0.0518855
-0.0413938
-0.0624264
-0.0706655
-0.0530176
-0.00870146
0.0147319
0.0173001
0.0134605
0.00907188
0.00514357
0.00171034
-0.00640736
-0.00675563
-0.00759543
-0.00911576
-0.0115726
-0.0153252
-0.0209152
-0.0292072