/*--------------------------------*- C++ -*----------------------------------*\
| =========                 |                                                 |
| \\      /  F ield         | OpenFOAM: The Open Source CFD Toolbox           |
|  \\    /   O peration     | Version:  2.4.0                                 |
|   \\  /    A nd           | Web:      www.OpenFOAM.org                      |
|    \\/     M anipulation  |                                                 |
\*---------------------------------------------------------------------------*/
FoamFile
{
    version     2.0;
    format      ascii;
    class       volScalarField;
    location    "0.058";
    object      p_rgh;
}
// * * * * * * * * * * * * * * * * * * * * * * * * * * * * * * * * * * * * * //

dimensions      [1 -1 -2 0 0 0 0];

internalField   nonuniform List<scalar> 
10000
(
0.0103342
0.0103329
0.0103321
0.0103315
0.0103306
0.0103288
0.0103256
0.0103203
0.0103121
0.0102998
0.0102822
0.0102578
0.0102251
0.0101826
0.0101291
0.0100637
0.00998597
0.00989644
0.00979636
0.00968779
0.00957351
0.00945672
0.00934078
0.00922886
0.00912368
0.00902725
0.00894069
0.00886415
0.00879694
0.00873766
0.00868452
0.0086357
0.00858956
0.00854497
0.00850135
0.00845875
0.00841776
0.00837938
0.00834479
0.00831513
0.00829131
0.00827384
0.00826278
0.00825773
0.00825791
0.00826234
0.00826992
0.0082796
0.00829045
0.00830181
0.0103372
0.0103362
0.0103355
0.0103345
0.010333
0.0103303
0.0103261
0.0103196
0.0103102
0.0102967
0.0102778
0.0102522
0.0102182
0.0101743
0.0101193
0.0100523
0.00997305
0.0098821
0.00978085
0.00967152
0.00955696
0.00944039
0.00932513
0.00921424
0.00911029
0.00901509
0.00892955
0.00885367
0.00878665
0.00872711
0.00867339
0.00862386
0.0085772
0.00853253
0.00848955
0.00844847
0.00840997
0.008375
0.00834459
0.00831964
0.00830075
0.00828808
0.0082814
0.0082801
0.00828329
0.00828996
0.0082991
0.00830979
0.00832128
0.0083331
0.0103416
0.010341
0.0103402
0.0103385
0.0103357
0.0103313
0.0103249
0.0103162
0.0103043
0.0102883
0.0102668
0.0102386
0.010202
0.0101556
0.0100982
0.0100291
0.0099483
0.00985648
0.00975524
0.00964691
0.0095343
0.00942049
0.00930853
0.00920111
0.00910036
0.00900765
0.00892354
0.00884782
0.00877969
0.00871801
0.00866154
0.0086092
0.00856022
0.00851429
0.00847151
0.00843235
0.00839748
0.00836761
0.00834335
0.00832504
0.0083127
0.00830598
0.00830426
0.00830671
0.00831246
0.00832063
0.00833052
0.00834157
0.00835341
0.00836589
0.0103471
0.0103469
0.0103458
0.0103429
0.010338
0.010331
0.0103216
0.0103094
0.0102938
0.0102738
0.0102483
0.010216
0.0101754
0.0101253
0.0100647
0.00999318
0.0099111
0.00981946
0.00971999
0.00961501
0.00950711
0.00939897
0.00929306
0.00919139
0.00909538
0.00900581
0.00892283
0.00884616
0.00877525
0.00870946
0.00864833
0.00859162
0.00853943
0.00849212
0.0084502
0.00841424
0.00838464
0.00836159
0.00834493
0.00833419
0.00832864
0.00832738
0.00832947
0.00833406
0.00834052
0.0083484
0.00835752
0.00836791
0.00837967
0.00839293
0.0103522
0.0103522
0.0103506
0.0103461
0.0103388
0.0103286
0.0103154
0.0102989
0.0102785
0.0102535
0.0102226
0.0101849
0.010139
0.0100841
0.0100196
0.0099456
0.0098628
0.00977249
0.00967649
0.00957692
0.00947595
0.00937558
0.00927743
0.00918261
0.00909174
0.00900502
0.00892237
0.00884365
0.00876885
0.00869817
0.00863213
0.00857153
0.00851729
0.00847035
0.00843139
0.00840071
0.00837813
0.00836299
0.00835417
0.00835035
0.00835014
0.00835227
0.00835579
0.00836015
0.00836524
0.00837127
0.00837872
0.00838812
0.00839992
0.00841435
0.0103549
0.0103551
0.0103528
0.0103467
0.0103368
0.0103232
0.0103059
0.0102847
0.0102589
0.0102278
0.0101905
0.0101462
0.0100939
0.0100334
0.00996473
0.00988838
0.00980552
0.00971766
0.00962654
0.00953389
0.0094412
0.00934956
0.00925959
0.00917148
0.00908513
0.00900036
0.00891717
0.00883588
0.00875727
0.00868255
0.0086133
0.00855117
0.00849771
0.00845398
0.00842041
0.00839666
0.00838166
0.00837387
0.00837126
0.00837191
0.00837414
0.00837678
0.00837928
0.0083817
0.00838462
0.00838893
0.00839552
0.00840517
0.00841828
0.00843483
0.0103529
0.0103533
0.0103504
0.0103428
0.0103305
0.0103138
0.0102925
0.0102664
0.0102347
0.010197
0.0101525
0.0101007
0.0100414
0.00997492
0.00990196
0.00982368
0.00974156
0.00965716
0.00957195
0.00948702
0.00940297
0.00931988
0.00923736
0.00915485
0.0090718
0.00898803
0.00890392
0.00882052
0.00873955
0.0086632
0.00859381
0.00853357
0.00848404
0.00844597
0.00841909
0.00840223
0.00839348
0.00839043
0.00839079
0.00839254
0.00839429
0.00839545
0.0083962
0.00839732
0.00839993
0.00840517
0.00841392
0.00842663
0.00844324
0.00846311
0.0103443
0.0103448
0.0103415
0.0103328
0.0103187
0.0102993
0.0102744
0.0102434
0.0102058
0.0101611
0.0101088
0.0100492
0.00998262
0.00991022
0.00983341
0.00975387
0.00967328
0.0095931
0.00951423
0.00943696
0.00936091
0.00928516
0.00920857
0.0091301
0.00904918
0.00896596
0.00888147
0.0087976
0.00871688
0.00864215
0.00857605
0.00852066
0.00847708
0.00844531
0.00842427
0.00841204
0.00840623
0.00840432
0.00840426
0.00840462
0.00840483
0.00840515
0.00840646
0.00840992
0.00841663
0.00842736
0.00844231
0.00846112
0.00848288
0.00850632
0.0103273
0.010328
0.0103245
0.0103151
0.0102999
0.0102785
0.0102505
0.0102151
0.0101717
0.0101199
0.0100599
0.00999248
0.00991897
0.00984121
0.00976128
0.00968127
0.00960288
0.00952717
0.00945436
0.00938384
0.00931428
0.00924406
0.00917159
0.0090958
0.00901643
0.00893422
0.00885092
0.00876908
0.00869167
0.00862158
0.00856119
0.00851193
0.00847413
0.00844699
0.00842888
0.00841764
0.00841106
0.00840727
0.00840507
0.00840409
0.00840469
0.00840778
0.00841441
0.00842544
0.0084412
0.00846142
0.00848515
0.00851101
0.00853735
0.00856257
0.0103004
0.0103014
0.010298
0.0102885
0.0102728
0.0102502
0.0102197
0.0101803
0.0101315
0.0100731
0.0100059
0.00993146
0.00985187
0.00976974
0.00968769
0.00960797
0.00953207
0.00946051
0.00939274
0.00932731
0.00926229
0.00919564
0.0091258
0.00905201
0.00897454
0.00889475
0.00881488
0.0087377
0.00866604
0.00860231
0.00854812
0.00850408
0.0084698
0.0084441
0.00842533
0.00841182
0.00840223
0.00839584
0.00839261
0.00839311
0.00839826
0.00840893
0.00842558
0.00844801
0.00847522
0.00850559
0.00853709
0.00856762
0.0085954
0.00861918
0.0102627
0.010264
0.0102609
0.0102519
0.0102363
0.0102131
0.0101807
0.010138
0.0100845
0.0100204
0.00994717
0.00986693
0.00978268
0.00969754
0.00961443
0.00953553
0.00946196
0.00939359
0.00932922
0.00926689
0.00920438
0.00913974
0.00907175
0.00900016
0.00892577
0.00885028
0.00877597
0.0087053
0.00864043
0.00858293
0.00853358
0.00849236
0.00845861
0.00843135
0.00840958
0.00839267
0.00838049
0.00837349
0.00837246
0.00837836
0.00839191
0.00841318
0.00844145
0.00847506
0.0085117
0.00854876
0.00858375
0.0086147
0.00864045
0.00866074
0.0102137
0.0102152
0.0102126
0.0102044
0.0101894
0.010166
0.0101322
0.0100871
0.0100299
0.00996153
0.00988381
0.00979965
0.00971255
0.00962594
0.00954275
0.00946486
0.00939292
0.0093263
0.00926342
0.00920219
0.00914059
0.00907707
0.00901094
0.00894243
0.00887257
0.00880297
0.00873546
0.00867172
0.00861308
0.0085603
0.00851363
0.0084729
0.00843773
0.00840784
0.00838327
0.00836446
0.00835231
0.0083479
0.00835221
0.00836586
0.00838874
0.00841976
0.0084569
0.00849741
0.00853827
0.00857679
0.00861096
0.00863971
0.00866294
0.00868141
0.0101533
0.0101548
0.0101528
0.0101454
0.0101311
0.0101077
0.0100733
0.0100265
0.0099671
0.00989613
0.00981608
0.00973023
0.00964237
0.00955578
0.00947321
0.00939613
0.00932475
0.00925823
0.00919499
0.00913329
0.00907162
0.00900903
0.00894529
0.00888081
0.00881645
0.00875331
0.00869243
0.00863471
0.00858081
0.00853107
0.00848568
0.00844473
0.00840845
0.00837733
0.00835228
0.00833444
0.00832511
0.0083254
0.00833591
0.00835654
0.00838622
0.0084229
0.0084638
0.00850589
0.00854639
0.00858333
0.00861578
0.0086438
0.00866814
0.00868993
0.0100815
0.0100829
0.0100812
0.0100746
0.0100608
0.0100377
0.010003
0.00995564
0.00989555
0.00982419
0.00974422
0.00965901
0.00957259
0.00948725
0.00940566
0.00932885
0.00925684
0.0091889
0.00912392
0.00906081
0.00899872
0.00893725
0.00887634
0.00881622
0.00875721
0.00869973
0.00864418
0.00859102
0.00854065
0.00849346
0.00844978
0.00841004
0.00837486
0.00834517
0.00832222
0.00830738
0.00830189
0.00830664
0.00832177
0.00834655
0.00837934
0.00841763
0.00845862
0.00849972
0.00853893
0.00857526
0.00860878
0.00864031
0.00867075
0.0087006
0.00999871
0.00999977
0.00999817
0.00999174
0.00997824
0.00995531
0.00992095
0.00987415
0.00981521
0.00974577
0.00966845
0.00958639
0.00950271
0.00941975
0.00933927
0.00926211
0.00918845
0.00911807
0.00905063
0.00898579
0.00892332
0.00886303
0.0088047
0.00874808
0.00869298
0.00863939
0.00858757
0.00853804
0.00849136
0.00844798
0.00840814
0.00837212
0.00834038
0.00831379
0.00829378
0.00828187
0.00827939
0.0082872
0.00830523
0.00833239
0.00836676
0.00840577
0.00844681
0.00848789
0.00852786
0.00856644
0.00860418
0.00864204
0.00868055
0.00871903
0.00990544
0.00990594
0.00990389
0.00989716
0.0098835
0.00986074
0.00982722
0.00978225
0.00972635
0.00966109
0.00958873
0.00951171
0.0094323
0.00935222
0.00927277
0.0091948
0.00911899
0.00904586
0.0089759
0.00890944
0.00884652
0.0087868
0.0087297
0.00867458
0.00862113
0.00856956
0.00852059
0.00847512
0.00843379
0.00839657
0.00836285
0.00833204
0.00830406
0.00827981
0.00826151
0.00825144
0.00825149
0.00826263
0.00828456
0.00831568
0.00835351
0.0083952
0.00843819
0.00848097
0.00852316
0.00856504
0.00860718
0.00865033
0.00869471
0.0087387
0.00980227
0.00980188
0.00979886
0.00979126
0.00977706
0.00975452
0.00972248
0.00968063
0.00962954
0.00957045
0.00950487
0.00943429
0.00936001
0.00928313
0.0092047
0.00912593
0.00904813
0.00897267
0.00890065
0.00883269
0.00876869
0.008708
0.00864977
0.00859353
0.00853958
0.00848901
0.00844327
0.00840348
0.00836968
0.0083404
0.00831321
0.00828641
0.0082598
0.00823526
0.00821732
0.00820973
0.00821482
0.00823309
0.00826311
0.00830191
0.00834589
0.00839168
0.00843697
0.00848096
0.00852431
0.00856801
0.00861253
0.00865817
0.00870517
0.00875174
0.00968977
0.00968818
0.00968374
0.0096748
0.00965983
0.00963772
0.00960789
0.00957035
0.00952553
0.00947406
0.00941644
0.00935305
0.00928429
0.0092108
0.00913372
0.00905474
0.00897587
0.00889903
0.00882553
0.00875579
0.00868934
0.00862532
0.00856323
0.00850357
0.00844793
0.00839856
0.00835734
0.00832483
0.00829957
0.00827775
0.00825462
0.00822821
0.00819944
0.00817241
0.00815601
0.00815514
0.00817113
0.00820226
0.00824459
0.00829305
0.00834303
0.00839142
0.00843708
0.0084806
0.0085238
0.00856844
0.00861463
0.00866166
0.00870983
0.0087581
0.00956858
0.00956552
0.00955933
0.00954881
0.00953309
0.00951181
0.00948496
0.00945272
0.00941517
0.00937205
0.00932279
0.00926672
0.00920355
0.00913377
0.00905881
0.00898086
0.00890236
0.00882529
0.00875061
0.00867819
0.00860728
0.0085374
0.00846925
0.00840496
0.0083477
0.00830043
0.0082646
0.0082392
0.00822089
0.0082038
0.00818076
0.00815127
0.00811854
0.00808879
0.00807815
0.00809049
0.00812321
0.00817049
0.00822544
0.00828159
0.00833475
0.00838361
0.00842912
0.00847318
0.00851791
0.00856498
0.00861383
0.0086622
0.00871029
0.00875897
0.00943934
0.00943466
0.0094266
0.00941457
0.00939844
0.00937858
0.00935544
0.00932915
0.00929922
0.00926443
0.0092232
0.00917409
0.00911649
0.00905099
0.0089794
0.00890419
0.00882769
0.00875131
0.0086752
0.00859869
0.00852125
0.00844364
0.00836845
0.00829969
0.00824154
0.00819662
0.00816482
0.0081433
0.0081282
0.00811362
0.0080889
0.00805658
0.00802084
0.00798786
0.00798726
0.0080173
0.00806833
0.00812977
0.00819341
0.00825411
0.00830982
0.00836132
0.00841076
0.00845974
0.00850877
0.00855841
0.00860807
0.00865497
0.00869944
0.00874523
0.0093028
0.00929647
0.00928669
0.00927356
0.00925765
0.00923993
0.00922108
0.00920094
0.00917832
0.00915115
0.00911704
0.00907428
0.00902229
0.00896199
0.0088954
0.00882478
0.00875167
0.00867635
0.00859803
0.00851593
0.00843057
0.00834467
0.00826291
0.0081906
0.00813165
0.00808703
0.00805444
0.0080309
0.00801684
0.00800669
0.00798292
0.0079526
0.00791598
0.0078734
0.0078809
0.00792852
0.00799548
0.0080671
0.00813694
0.00820355
0.00826698
0.00832786
0.00838664
0.00844251
0.00849359
0.00853987
0.00858317
0.00862294
0.00866012
0.00870066
0.00915981
0.00915199
0.0091409
0.00912739
0.00911257
0.00909774
0.00908349
0.0090692
0.00905296
0.00903208
0.00900397
0.00896694
0.00892086
0.00886694
0.00880705
0.00874258
0.00867365
0.00859914
0.00851763
0.008429
0.0083356
0.00824236
0.00815548
0.0080801
0.00801835
0.00796859
0.00792697
0.00789448
0.00788728
0.00789201
0.00787283
0.00785862
0.00781698
0.00773365
0.00774126
0.00780733
0.00789123
0.00797438
0.00805556
0.00813625
0.0082158
0.00829088
0.00835788
0.00841413
0.00845801
0.00849139
0.0085206
0.00854926
0.00857868
0.00861456
0.00901142
0.00900239
0.00899067
0.00897773
0.00896498
0.00895366
0.00894398
0.00893476
0.00892355
0.00890746
0.0088841
0.00885239
0.00881276
0.00876652
0.00871477
0.00865736
0.00859261
0.00851821
0.00843283
0.00833784
0.00823778
0.00813931
0.00804864
0.007969
0.00789943
0.00783621
0.00777574
0.00772456
0.00775109
0.00779457
0.00779617
0.00782793
0.0077881
0.0074969
0.00755224
0.00764935
0.00775272
0.00785553
0.00795966
0.00806466
0.00816528
0.00825221
0.00831831
0.00836262
0.0083884
0.00840181
0.00841292
0.00842868
0.00844999
0.00848046
0.00885886
0.00884907
0.00883753
0.0088262
0.00881643
0.00880898
0.00880349
0.00879818
0.00879042
0.00877758
0.00875804
0.00873161
0.00869919
0.00866173
0.00861891
0.00856859
0.00850736
0.00843235
0.00834322
0.00824336
0.00813923
0.00803785
0.00794359
0.00785616
0.00777134
0.00768497
0.00759631
0.00751566
0.00754916
0.0078856
0.00908486
0.0103994
0.0100076
0.00864837
0.00729846
0.00747459
0.00759446
0.00772325
0.00785987
0.00799528
0.00811688
0.00821034
0.00826676
0.00828869
0.00828679
0.00827296
0.00826017
0.00825745
0.00826576
0.00828645
0.00870356
0.00869352
0.00868302
0.00867426
0.00866811
0.00866458
0.00866255
0.00865984
0.008654
0.00864321
0.00862702
0.00860618
0.00858176
0.00855366
0.00851969
0.0084756
0.00841685
0.00834091
0.0082492
0.00814712
0.00804194
0.00793924
0.00783985
0.00773944
0.00763141
0.0075116
0.00738081
0.00725649
0.00726666
0.00976378
0.0109237
0.0106241
0.0112112
0.0106948
0.00729599
0.00733073
0.00744611
0.00759404
0.00775965
0.00792736
0.00807395
0.00817609
0.00821987
0.00820898
0.00816272
0.00810367
0.00805218
0.00802066
0.00800976
0.00801672
0.00854705
0.00853731
0.00852861
0.00852311
0.00852088
0.00852092
0.0085214
0.00852001
0.00851491
0.00850551
0.00849272
0.00847805
0.00846214
0.00844328
0.0084171
0.00837778
0.00832049
0.00824403
0.00815188
0.00805074
0.00794706
0.00784328
0.00773608
0.00761841
0.00748375
0.00732976
0.0071565
0.00699122
0.00702037
0.0115146
0.0105
0.00967693
0.00841724
0.00719958
0.00707326
0.00716584
0.00728239
0.00744646
0.00764733
0.0078643
0.00805699
0.00818089
0.00820819
0.00814147
0.00801579
0.00787778
0.00776584
0.00769734
0.00766521
0.00765718
0.00839092
0.00838197
0.00837561
0.00837368
0.00837522
0.00837818
0.00838014
0.00837902
0.00837401
0.00836602
0.00835718
0.00834925
0.00834182
0.0083312
0.00831104
0.00827473
0.00821829
0.00814251
0.0080526
0.00795523
0.00785434
0.00774828
0.00763065
0.00749447
0.00733655
0.00715974
0.00696369
0.00672133
0.00676916
0.00678393
0.00705176
0.00753421
0.00762114
0.00726276
0.00695478
0.00695861
0.0070751
0.00725641
0.00751574
0.00782325
0.00810574
0.00827242
0.00826579
0.00809697
0.00783537
0.00756966
0.00737207
0.00726679
0.00722166
0.00719976
0.00823667
0.00822888
0.00822511
0.00822665
0.0082314
0.00823636
0.00823886
0.00823739
0.00823249
0.00822653
0.00822243
0.00822155
0.00822188
0.0082177
0.00820137
0.00816648
0.0081109
0.00803755
0.00795245
0.00786057
0.00776206
0.00765169
0.00752232
0.00737016
0.00719757
0.00701142
0.00681687
0.00661163
0.00643005
0.00659349
0.0071989
0.007627
0.00757415
0.00669272
0.00654487
0.00661629
0.00676763
0.00705598
0.00735078
0.00781566
0.00826815
0.00851509
0.00845109
0.00810573
0.00761168
0.00714426
0.00683165
0.00670391
0.00667671
0.0066542
0.00808561
0.00807922
0.00807795
0.00808242
0.00808949
0.00809548
0.00809779
0.0080959
0.00809174
0.00808883
0.00809026
0.00809625
0.00810288
0.00810279
0.00808802
0.00805352
0.00799948
0.0079305
0.00785195
0.00776564
0.00766774
0.00755095
0.00740976
0.00724437
0.00706023
0.00686393
0.00665857
0.00644994
0.00626836
0.00619583
0.0062004
0.00614218
0.00661123
0.00563763
0.00591359
0.00614614
0.00634198
0.00662567
0.00710507
0.00783924
0.00862063
0.00904565
0.00889116
0.008235
0.00734228
0.00654144
0.00607177
0.00596988
0.0060383
0.00605538
0.00793876
0.00793382
0.0079347
0.00794126
0.00794956
0.00795564
0.00795742
0.00795555
0.00795322
0.00795453
0.00796194
0.00797401
0.00798491
0.00798639
0.00797127
0.00793682
0.00788551
0.00782248
0.00775098
0.00766899
0.00756961
0.00744574
0.00729505
0.00712075
0.00692772
0.00671726
0.0064866
0.00623445
0.00596705
0.00570064
0.00628621
0.00801472
0.0082246
0.00639769
0.00549497
0.00567971
0.00582149
0.00606112
0.00665127
0.00783184
0.0092788
0.0101147
0.00996166
0.00870394
0.007007
0.00561095
0.00490515
0.00497884
0.00535165
0.00550426
0.00779677
0.00779321
0.00779566
0.00780329
0.00781173
0.0078172
0.00781851
0.00781752
0.00781829
0.00782478
0.00783811
0.00785486
0.00786772
0.00786846
0.00785182
0.00781777
0.00777049
0.00771425
0.00764911
0.00756951
0.00746747
0.00733816
0.00718267
0.007005
0.00680592
0.00657908
0.00631588
0.0060115
0.00566828
0.00528532
0.0065605
0.00773167
0.00716074
0.00578967
0.00516013
0.0052062
0.00513598
0.00512465
0.00568518
0.00755116
0.0103984
0.0121901
0.0117368
0.00936517
0.00650071
0.00397314
0.0028946
0.00357617
0.00470257
0.00527221
0.00765992
0.00765756
0.00766092
0.0076686
0.00767624
0.00768073
0.007682
0.00768296
0.00768799
0.00770018
0.00771876
0.00773839
0.00775094
0.00774929
0.0077308
0.00769802
0.00765575
0.00760617
0.00754584
0.00746698
0.00736271
0.00723167
0.00707722
0.00690132
0.00669864
0.00645626
0.00616346
0.00581938
0.00542091
0.00495107
0.00497578
0.00721085
0.00598775
0.00557185
0.00478153
0.0046647
0.00424887
0.00351415
0.00345989
0.00624378
0.0122048
0.0162075
0.0153541
0.0106783
0.00590933
0.00145622
-0.0002259
0.00170891
0.00464974
0.0061924
0.00752811
0.00752676
0.00753039
0.00753727
0.00754348
0.007547
0.00754891
0.00755288
0.00756296
0.00758074
0.00760337
0.00762391
0.00763434
0.00762952
0.0076097
0.00757928
0.00754237
0.00749836
0.00744098
0.00736212
0.00725766
0.00712953
0.00698112
0.00681027
0.00660598
0.00635152
0.0060386
0.00566835
0.00526859
0.00476331
0.0042358
0.00442553
0.00573805
0.0037713
0.00364643
0.00413705
0.00379546
0.00189183
-0.00179636
0.00173117
0.0153448
0.0240529
0.0218957
0.0123211
0.00549112
-0.000605257
-0.00345706
0.000251549
0.00604331
0.00914736
0.00740096
0.00740047
0.00740391
0.00740942
0.007414
0.00741687
0.00742021
0.00742798
0.00744334
0.007466
0.00749111
0.00751081
0.00751805
0.00751026
0.00749024
0.00746307
0.00743115
0.00739099
0.00733489
0.00725632
0.00715458
0.00703329
0.00689341
0.00672867
0.00652635
0.00626513
0.00594274
0.00555687
0.00510742
0.00459038
0.00404156
0.00360033
0.00298648
0.00462718
0.00180418
0.00428463
0.00552343
0.00261044
0.00269281
0.00376813
0.0218082
0.0365048
0.0383194
0.0168025
0.010343
0.00286829
-0.00523187
-0.0013895
0.00420131
0.00694762
0.00727792
0.00727822
0.00728127
0.00728527
0.00728839
0.00729119
0.00729667
0.0073086
0.00732887
0.00735519
0.00738113
0.00739873
0.00740265
0.00739293
0.00737408
0.00735067
0.00732268
0.00728446
0.00722854
0.00715129
0.00705497
0.00694252
0.0068107
0.00665234
0.00646202
0.0062041
0.00588126
0.00548158
0.00499145
0.00439587
0.00370953
0.00298277
0.00194687
0.0062716
0.00585113
0.00331477
0.00327719
0.00354113
-0.0119074
-0.0190131
0.0554398
0.114543
0.0649724
0.0337294
0.0275848
-0.0749859
-0.141145
-0.0856585
0.437284
1.17013
0.00715835
0.00715954
0.00716228
0.00716502
0.00716723
0.00717063
0.00717872
0.00719471
0.00721896
0.00724744
0.00727279
0.00728775
0.0072891
0.00727904
0.00726265
0.00724295
0.00721744
0.00717943
0.00712329
0.00704871
0.00695929
0.00685523
0.00672719
0.00657552
0.00640999
0.00616723
0.00586328
0.00548605
0.0049515
0.00430018
0.00350973
0.00259855
0.00156521
0.000280578
0.00224578
0.00343436
0.0145414
0.018395
0.0724352
0.303971
0.0684552
0.326173
0.0981288
0.512693
-0.780656
-0.291397
15.5737
33.754
34.495
32.8532
0.00704169
0.00704399
0.00704682
0.0070489
0.00705096
0.00705561
0.00706647
0.00708593
0.00711288
0.00714201
0.00716582
0.0071784
0.00717861
0.00716998
0.00715699
0.00714043
0.0071158
0.00707671
0.00702033
0.00694882
0.00686431
0.00676147
0.00663298
0.00649425
0.00639676
0.00619465
0.00591658
0.00553669
0.00504211
0.00434521
0.00349547
0.00248746
0.00139919
0.000250437
0.00123916
0.0191771
0.0183231
0.0989223
0.108063
-0.0191301
-0.379249
-0.0847654
3.51659
10.5161
22.7765
36.273
42.1618
44.9879
42.9424
40.9457
0.00692746
0.00693125
0.00693477
0.00693706
0.00693982
0.00694623
0.0069597
0.00698169
0.00700991
0.00703844
0.0070604
0.00707154
0.00707238
0.00706675
0.00705759
0.00704328
0.00701822
0.0069776
0.0069214
0.00685229
0.00676828
0.00665213
0.00650669
0.0063161
0.00646494
0.00627731
0.00606749
0.00574112
0.00523438
0.00454453
0.00363161
0.00236977
0.000679458
-0.00266557
-0.00365392
0.024532
0.0158888
0.0951362
0.0567185
0.143434
5.16187
9.54878
19.9996
36.8101
38.4919
39.2245
41.0683
42.4079
42.1848
41.6665
0.00681538
0.00682111
0.00682609
0.00682953
0.00683378
0.00684225
0.00685788
0.00688128
0.00690943
0.00693657
0.00695696
0.00696801
0.00697123
0.00696976
0.00696438
0.00695143
0.00692542
0.00688418
0.00683001
0.00676387
0.00667857
0.00654877
0.00629174
0.00633114
0.00785042
0.00658415
0.00636105
0.00610385
0.00560029
0.00487759
0.00379043
0.00195671
-0.00124624
-0.0142716
-0.033437
0.0112549
0.0973263
0.0982602
-0.257622
5.49229
21.1643
37.3353
37.7904
37.7642
38.3453
39.3645
40.5539
41.4152
41.6579
41.6448
0.00670535
0.00671351
0.00672075
0.00672623
0.00673266
0.00674327
0.00676042
0.00678408
0.00681114
0.00683655
0.00685604
0.00686838
0.00687528
0.00687849
0.00687645
0.00686428
0.00683799
0.00679879
0.00675122
0.00669455
0.00661637
0.00649706
0.00632119
0.00752889
0.0135745
0.0080467
0.00714744
0.00676125
0.00628327
0.00564057
0.00459461
0.00253894
0.000228983
-0.0139523
0.0655742
0.309448
0.101678
0.339681
6.88277
26.9452
36.1402
38.0531
38.0418
38.2271
38.7201
39.5298
40.3838
41.0326
41.3731
41.5152
0.00659743
0.00660848
0.00661871
0.00662703
0.00663611
0.00664875
0.00666673
0.00668975
0.00671507
0.00673885
0.00675823
0.0067729
0.00678408
0.00679165
0.0067921
0.00678038
0.00675494
0.00672021
0.00668157
0.00663493
0.00656215
0.00644414
0.00626512
0.00721346
0.0134549
0.0102397
0.00817274
0.007689
0.00739803
0.00730741
0.00730806
0.00795788
0.0167692
0.0269971
0.0545655
0.0774656
-0.563029
6.21302
27.8563
34.7276
36.6671
37.7453
38.1649
38.5615
39.0897
39.764
40.4254
40.9439
41.2734
41.4493
0.00649181
0.00650612
0.00651992
0.00653167
0.00654368
0.00655813
0.00657636
0.00659812
0.00662152
0.00664398
0.0066639
0.00668135
0.0066966
0.00670762
0.00670953
0.00669821
0.00667514
0.0066477
0.00662161
0.00659082
0.00653607
0.00643771
0.00627808
0.00629393
0.0128664
0.0115397
0.0090077
0.008358
0.00814889
0.00805856
0.00759861
0.00422912
0.0166568
0.0817714
0.0743344
-0.0964545
6.28176
23.4894
36.3134
36.7246
37.5814
38.2034
38.6023
39.0343
39.54
40.0935
40.6078
41.0156
41.295
41.4594
0.00638875
0.00640657
0.00642434
0.00643987
0.00645487
0.00647089
0.00648898
0.00650927
0.00653084
0.00655233
0.00657305
0.00659303
0.00661137
0.00662444
0.00662683
0.006616
0.00659655
0.00657838
0.0065679
0.00656077
0.00654585
0.00651849
0.0065015
0.00663182
0.0113535
0.0128925
0.00821197
0.00864351
0.00892006
0.00969629
0.0111602
0.0144573
0.0447597
0.267208
0.00126182
4.70207
17.0628
40.6025
39.0844
38.2791
38.4468
38.8218
39.2116
39.6317
40.0645
40.4862
40.8619
41.1612
41.3749
41.5089
0.00628857
0.00631
0.00633191
0.00635132
0.00636924
0.00638663
0.00640446
0.00642338
0.00644338
0.00646406
0.00648528
0.0065068
0.00652668
0.0065402
0.00654203
0.00653138
0.00651528
0.00650472
0.00650541
0.00651325
0.00652149
0.00653338
0.00657751
0.0067273
0.00710926
0.012141
0.0105093
0.00868671
0.00924997
0.0110299
0.014996
0.0232607
0.0409474
0.093372
0.426846
5.78057
25.8835
39.5227
38.8803
38.7291
38.9564
39.377
39.8256
40.2288
40.5726
40.8679
41.1169
41.3158
41.4629
41.5607
0.00619158
0.00621656
0.00624257
0.00626575
0.00628642
0.0063051
0.00632281
0.00634066
0.00635932
0.00637899
0.00639985
0.00642141
0.006441
0.00645337
0.00645361
0.00644241
0.0064282
0.00642162
0.00642656
0.00643844
0.00645354
0.00647856
0.00653288
0.0066457
0.00680841
0.0070863
0.0131064
0.0069933
0.00815362
0.00934312
0.0113019
0.0153943
0.0248438
0.0578082
0.949694
9.98072
36.4781
38.2697
38.7615
39.0391
39.4166
39.9004
40.3653
40.7286
40.9872
41.1767
41.3244
41.441
41.5303
41.5934
0.00609808
0.00612641
0.00615626
0.00618292
0.00620616
0.0062262
0.00624412
0.00626128
0.00627865
0.00629673
0.00631593
0.00633576
0.00635332
0.00636314
0.0063607
0.00634767
0.00633288
0.00632571
0.00632796
0.00633469
0.0063442
0.00636402
0.0064052
0.00647267
0.00655256
0.00662375
0.00836984
0.0104141
0.00783115
0.00707029
0.00748536
0.00818114
0.0105865
-0.0150735
2.50105
31.3419
40.0979
39.4736
39.4368
39.6291
39.9778
40.4132
40.8132
41.1038
41.2841
41.394
41.4685
41.5254
41.5698
41.6032
0.00600835
0.00603971
0.00607297
0.00610272
0.00612835
0.00614994
0.00616848
0.00618527
0.00620114
0.00621669
0.00623268
0.0062491
0.00626322
0.00626945
0.00626331
0.00624672
0.00622805
0.006215
0.00620776
0.00620148
0.00619513
0.00619317
0.00619722
0.00620284
0.00621514
0.00624332
0.00628569
0.00566404
0.00719436
0.00878493
0.00875754
0.0088753
0.0154
-0.0586937
5.42034
44.0022
41.2166
40.491
40.2944
40.3534
40.584
40.8955
41.181
41.3782
41.4853
41.5356
41.5598
41.5752
41.5873
41.5965
0.00592262
0.00595656
0.0059927
0.00602509
0.00605298
0.00607635
0.00609594
0.0061125
0.0061264
0.00613827
0.00614956
0.00616116
0.00617078
0.00617263
0.00616192
0.00614014
0.00611449
0.00609068
0.00606766
0.00604126
0.0060109
0.00597706
0.00593349
0.00587037
0.00578534
0.00566662
0.00550534
0.00529982
0.0052765
0.00543529
0.00700163
0.0119058
0.0271472
0.0209822
16.5424
41.6581
41.4946
41.2066
41.0361
41.0193
41.1343
41.3134
41.4775
41.5826
41.6232
41.6276
41.6163
41.6025
41.592
41.5812
0.00584111
0.00587708
0.00591545
0.00595
0.00598004
0.00600542
0.00602632
0.00604258
0.00605384
0.0060609
0.00606632
0.00607217
0.00607655
0.00607325
0.00605691
0.00602839
0.00599361
0.0059562
0.00591364
0.00586217
0.00580151
0.00572903
0.00563327
0.00550047
0.00532319
0.00509142
0.00480561
0.0044608
0.00419751
0.00420823
0.00539333
0.00951959
0.0121232
-0.0939408
31.028
41.7376
42.0434
41.8492
41.6432
41.5524
41.5688
41.6387
41.7033
41.7315
41.7215
41.6897
41.652
41.6168
41.586
41.5615
0.00576406
0.00580143
0.00584133
0.00587755
0.00590958
0.00593709
0.00595937
0.00597498
0.00598281
0.00598411
0.00598295
0.00598269
0.00598149
0.00597232
0.00594894
0.00591173
0.00586577
0.00581318
0.00575004
0.00567227
0.00557872
0.00546426
0.0053148
0.00511391
0.004849
0.0045032
0.00405543
0.00346676
0.00273747
0.00193146
0.00162763
0.00226741
-0.0130051
1.85269
39.4326
43.7917
43.0527
42.4831
42.1259
41.9377
41.8706
41.8613
41.8575
41.8332
41.7869
41.73
41.6735
41.6226
41.5789
41.5405
0.00831324
0.00832458
0.0083359
0.00834734
0.00835917
0.00837162
0.00838487
0.00839905
0.0084142
0.00843028
0.00844717
0.00846481
0.00848306
0.00850173
0.00852081
0.00854055
0.00856115
0.00858287
0.00860589
0.00863032
0.00865639
0.00868468
0.00871565
0.00874917
0.00878478
0.00882257
0.00886392
0.00891111
0.00896557
0.00902591
0.00908767
0.00914493
0.00919235
0.00922666
0.00924783
0.00925827
0.00926083
0.00925775
0.0092505
0.00923961
0.00922429
0.00920285
0.00917353
0.00913623
0.00909501
0.00905781
0.00903204
0.00901894
0.00901148
0.00900398
0.00834497
0.00835684
0.00836879
0.00838094
0.00839346
0.00840649
0.00842007
0.00843422
0.00844887
0.0084639
0.00847914
0.00849448
0.00850981
0.00852501
0.00853999
0.00855506
0.00857055
0.00858706
0.00860501
0.0086247
0.00864646
0.00867116
0.00870009
0.00873399
0.0087726
0.0088151
0.00886119
0.0089116
0.00896702
0.00902643
0.00908654
0.00914231
0.00918887
0.00922292
0.0092438
0.0092533
0.00925416
0.00924863
0.00923811
0.0092235
0.0092051
0.00918239
0.00915451
0.00912134
0.00908543
0.00905243
0.00902752
0.00901053
0.00899639
0.00898419
0.00837894
0.00839256
0.00840675
0.00842147
0.00843664
0.00845212
0.00846769
0.00848315
0.00849821
0.00851264
0.00852622
0.0085388
0.00855033
0.00856088
0.00857044
0.00857906
0.00858749
0.00859682
0.008608
0.00862168
0.00863849
0.0086596
0.00868683
0.0087218
0.0087644
0.00881255
0.00886359
0.00891621
0.00897051
0.00902623
0.00908182
0.00913408
0.00917881
0.00921215
0.00923235
0.00924035
0.00923871
0.00923012
0.00921626
0.00919818
0.0091768
0.00915304
0.00912716
0.00909892
0.00906909
0.00904023
0.00901456
0.00899118
0.00896855
0.00895056
0.00840777
0.00842407
0.00844159
0.00845996
0.00847869
0.00849727
0.00851513
0.00853179
0.00854689
0.00856016
0.00857141
0.00858052
0.00858767
0.00859321
0.00859734
0.00860018
0.00860245
0.00860571
0.00861168
0.00862144
0.00863552
0.00865476
0.00868087
0.00871583
0.00875987
0.00881043
0.00886327
0.00891535
0.00896623
0.0090166
0.00906648
0.00911419
0.00915635
0.00918869
0.0092083
0.00921526
0.00921227
0.00920271
0.00918852
0.00917019
0.0091478
0.00912241
0.00909563
0.00906847
0.00904131
0.00901421
0.00898696
0.00895866
0.00893107
0.00891088
0.00843136
0.00845053
0.0084712
0.00849257
0.00851372
0.00853381
0.00855209
0.00856796
0.00858111
0.00859152
0.00859922
0.00860422
0.00860694
0.00860827
0.00860879
0.00860863
0.00860822
0.00860901
0.00861319
0.00862219
0.00863625
0.00865523
0.00867988
0.00871209
0.008753
0.008801
0.00885184
0.0089015
0.00894857
0.00899377
0.00903798
0.00908072
0.00911969
0.00915093
0.00917065
0.00917781
0.00917493
0.00916614
0.00915382
0.00913763
0.00911596
0.00908862
0.00905812
0.00902783
0.00899993
0.00897383
0.00894699
0.00891808
0.00889037
0.00887158
0.00845435
0.00847597
0.00849855
0.00852093
0.00854196