/*--------------------------------*- C++ -*----------------------------------*\
| =========                 |                                                 |
| \\      /  F ield         | OpenFOAM: The Open Source CFD Toolbox           |
|  \\    /   O peration     | Version:  2.4.0                                 |
|   \\  /    A nd           | Web:      www.OpenFOAM.org                      |
|    \\/     M anipulation  |                                                 |
\*---------------------------------------------------------------------------*/
FoamFile
{
    version     2.0;
    format      ascii;
    class       volScalarField;
    location    "0.241";
    object      p;
}
// * * * * * * * * * * * * * * * * * * * * * * * * * * * * * * * * * * * * * //

dimensions      [1 -1 -2 0 0 0 0];

internalField   nonuniform List<scalar> 
60000
(
108.029
108.065
108.142
108.258
108.413
108.606
108.835
109.098
109.394
109.72
110.073
110.45
110.85
111.27
111.706
112.156
112.618
113.089
113.567
114.051
114.537
115.025
115.512
115.998
116.48
116.959
117.433
117.901
118.362
118.816
119.262
119.699
120.126
120.544
120.95
121.344
121.726
122.093
122.446
122.782
123.099
123.397
123.673
123.925
124.151
124.349
124.515
124.649
124.745
124.803
124.819
124.791
124.715
124.589
124.411
124.178
123.888
123.539
123.129
122.656
122.119
121.517
120.848
120.112
119.309
118.439
117.5
116.494
115.421
114.282
113.077
111.808
110.476
109.082
107.628
106.115
104.545
102.919
101.24
99.5089
97.7275
95.8975
94.0207
92.099
90.1342
88.1284
86.0836
84.0019
81.8851
79.7349
77.5522
75.3378
73.0918
70.8143
68.5054
66.1665
63.801
61.4068
58.9886
56.5466
106.061
106.098
106.174
106.29
106.445
106.638
106.868
107.131
107.427
107.753
108.107
108.485
108.885
109.305
109.742
110.193
110.655
111.127
111.606
112.089
112.576
113.064
113.552
114.038
114.521
115
115.474
115.942
116.403
116.857
117.303
117.74
118.168
118.585
118.991
119.386
119.768
120.135
120.488
120.824
121.142
121.439
121.715
121.968
122.194
122.392
122.559
122.692
122.789
122.847
122.863
122.835
122.759
122.634
122.456
122.223
121.933
121.583
121.173
120.7
120.162
119.56
118.891
118.154
117.351
116.48
115.541
114.534
113.46
112.32
111.115
109.845
108.512
107.118
105.663
104.149
102.578
100.952
99.2723
97.5406
95.7586
93.9281
92.0509
90.1287
88.1636
86.1575
84.1126
82.0309
79.9142
77.7643
75.5821
73.3682
71.1228
68.8457
66.5371
64.1985
61.8332
59.4419
57.0267
54.5864
104.083
104.119
104.195
104.312
104.468
104.661
104.891
105.156
105.453
105.78
106.134
106.514
106.915
107.336
107.774
108.226
108.69
109.162
109.642
110.127
110.614
111.103
111.591
112.078
112.561
113.041
113.515
113.984
114.446
114.9
115.346
115.783
116.211
116.629
117.035
117.43
117.812
118.18
118.533
118.869
119.187
119.486
119.763
120.016
120.243
120.442
120.609
120.743
120.841
120.9
120.917
120.889
120.814
120.688
120.511
120.278
119.988
119.639
119.228
118.755
118.217
117.614
116.944
116.208
115.403
114.531
113.591
112.583
111.509
110.368
109.161
107.89
106.556
105.16
103.703
102.188
100.616
98.9891
97.3082
95.5755
93.7927
91.9616
90.0838
88.1613
86.1961
84.1901
82.1454
80.0643
77.9487
75.8002
73.6198
71.4082
69.1653
66.891
64.5853
62.2493
59.8836
57.4926
55.077
52.6358
102.093
102.13
102.206
102.323
102.48
102.675
102.906
103.172
103.47
103.799
104.155
104.536
104.94
105.363
105.802
106.256
106.721
107.196
107.677
108.163
108.652
109.141
109.631
110.118
110.603
111.083
111.558
112.027
112.489
112.944
113.391
113.828
114.257
114.675
115.082
115.477
115.86
116.228
116.582
116.919
117.238
117.538
117.816
118.07
118.298
118.498
118.667
118.803
118.902
118.962
118.98
118.953
118.879
118.755
118.578
118.346
118.056
117.707
117.296
116.823
116.285
115.681
115.011
114.273
113.468
112.594
111.653
110.644
109.567
108.424
107.216
105.943
104.607
103.209
101.751
100.234
98.6603
97.0314
95.349
93.615
91.8312
89.9992
88.121
86.1983
84.2332
82.2278
80.1841
78.1044
75.9909
73.845
71.6681
69.4606
67.2224
64.9534
62.6531
60.3219
57.9603
55.5706
53.1546
50.7112
100.092
100.129
100.206
100.324
100.482
100.678
100.911
101.179
101.48
101.811
102.169
102.553
102.959
103.385
103.827
104.283
104.75
105.227
105.71
106.198
106.688
107.18
107.67
108.159
108.645
109.126
109.602
110.072
110.535
110.99
111.437
111.875
112.304
112.723
113.131
113.527
113.91
114.28
114.634
114.973
115.294
115.595
115.874
116.13
116.361
116.562
116.733
116.871
116.972
117.034
117.053
117.029
116.956
116.833
116.657
116.426
116.137
115.788
115.378
114.904
114.366
113.762
113.09
112.352
111.545
110.67
109.726
108.715
107.637
106.492
105.281
104.006
102.667
101.267
99.8059
98.2867
96.7106
95.0796
93.3953
91.6597
89.8745
88.0416
86.1628
84.2401
82.2754
80.2708
78.2286
76.1512
74.0405
71.8984
69.7261
67.5241
65.2924
63.0303
60.7372
58.4127
56.0566
53.6707
51.2548
48.8087
98.0793
98.1167
98.1948
98.3141
98.4735
98.6716
98.9069
99.1774
99.4809
99.8149
100.177
100.564
100.973
101.402
101.847
102.306
102.777
103.256
103.742
104.232
104.724
105.218
105.71
106.2
106.687
107.17
107.647
108.117
108.581
109.037
109.485
109.924
110.354
110.773
111.182
111.579
111.964
112.335
112.691
113.031
113.354
113.657
113.939
114.197
114.429
114.634
114.807
114.948
115.051
115.116
115.138
115.115
115.045
114.924
114.75
114.52
114.232
113.884
113.474
113
112.461
111.856
111.184
110.444
109.635
108.758
107.813
106.799
105.718
104.57
103.357
102.078
100.736
99.3329
97.8691
96.3469
94.7679
93.1342
91.4475
89.7098
87.9229
86.0888
84.2094
82.2866
80.3223
78.3189
76.2785
74.2036
72.0964
69.9586
67.7917
65.5961
63.3716
61.1173
58.8321
56.5149
54.1649
51.7826
49.3673
46.9183
96.0555
96.0934
96.1724
96.2932
96.4545
96.6551
96.8932
97.1669
97.4739
97.8116
98.1774
98.5684
98.9817
99.4144
99.8636
100.327
100.801
101.283
101.772
102.265
102.76
103.255
103.75
104.242
104.73
105.214
105.692
106.164
106.629
107.086
107.535
107.975
108.405
108.826
109.236
109.634
110.02
110.393
110.751
111.093
111.418
111.724
112.008
112.27
112.505
112.713
112.89
113.033
113.14
113.208
113.233
113.214
113.146
113.027
112.855
112.627
112.341
111.994
111.584
111.111
110.571
109.966
109.292
108.55
107.74
106.861
105.913
104.896
103.812
102.661
101.443
100.161
98.8156
97.4082
95.9406
94.4147
92.8322
91.1952
89.5055
87.7653
85.9764
84.1409
82.2606
80.3375
78.3738
76.3715
74.333
72.2609
70.1574
68.0244
65.8634
63.6747
61.458
59.2121
56.9352
54.6257
52.282
49.9029
47.4876
45.0345
94.0201
94.0586
94.1387
94.2613
94.425
94.6284
94.8699
95.1474
95.4586
95.8007
96.1712
96.5669
96.9851
97.4225
97.8763
98.3436
98.8218
99.3082
99.8006
100.297
100.795
101.293
101.79
102.284
102.774
103.259
103.739
104.212
104.678
105.136
105.586
106.027
106.459
106.88
107.292
107.691
108.079
108.454
108.814
109.159
109.487
109.796
110.084
110.349
110.588
110.8
110.981
111.128
111.239
111.311
111.34
111.324
111.26
111.144
110.974
110.748
110.463
110.118
109.709
109.236
108.696
108.09
107.415
106.671
105.859
104.977
104.026
103.006
101.918
100.762
99.5408
98.2543
96.9043
95.4924
94.0204
92.49
90.9034
89.2625
87.5694
85.8262
84.0348
82.1975
80.3161
78.3927
76.4294
74.4282
72.3917
70.3224
68.2229
66.095
63.9404
61.7592
59.5509
57.3139
55.0459
52.7444
50.4068
48.0306
45.6142
43.1553
91.973
92.0121
92.0936
92.2182
92.3846
92.5915
92.8369
93.1189
93.4349
93.7823
94.1582
94.5595
94.9831
95.4261
95.8852
96.3576
96.8405
97.3314
97.8279
98.3278
98.8291
99.3303
99.8297
100.326
100.818
101.305
101.787
102.261
102.728
103.188
103.639
104.081
104.514
104.937
105.35
105.752
106.141
106.518
106.881
107.229
107.56
107.873
108.165
108.434
108.678
108.894
109.08
109.232
109.348
109.424
109.458
109.446
109.385
109.273
109.107
108.884
108.601
108.256
107.849
107.375
106.836
106.228
105.552
104.807
103.991
103.106
102.152
101.128
100.036
98.8757
97.6493
96.3577
95.0025
93.5854
92.1082
90.5729
88.9814
87.336
85.6388
83.8921
82.0979
80.2584
78.3757
76.4518
74.4887
72.4886
70.4541
68.3878
66.2923
64.1699
62.022
59.8489
57.6498
55.4225
53.1641
50.8711
48.5397
46.1659
43.747
41.2804
89.9139
89.9537
90.0367
90.1637
90.3333
90.5441
90.7941
91.0812
91.4029
91.7562
92.1383
92.546
92.976
93.4252
93.8903
94.3685
94.8569
95.3528
95.8539
96.358
96.8631
97.3676
97.87
98.3689
98.8634
99.3524
99.8353
100.311
100.78
101.241
101.693
102.137
102.571
102.996
103.41
103.814
104.206
104.586
104.952
105.303
105.638
105.954
106.251
106.525
106.774
106.996
107.187
107.345
107.466
107.548
107.587
107.58
107.524
107.416
107.253
107.033
106.752
106.41
106.003
105.53
104.99
104.382
103.704
102.956
102.138
101.25
100.291
99.263
98.1658
97.0006
95.7687
94.4714
93.1103
91.6872
90.2041
88.663
87.066
85.4155
83.7136
81.9628
80.1652
78.3232
76.4389
74.5142
72.5513
70.5522
68.5196
66.4563
64.3651
62.2485
60.1079
57.9436
55.7544
53.5377
51.2899
49.0061
46.6812
44.3092
41.8858
39.4088
87.8426
87.8832
87.968
88.0977
88.2709
88.4861
88.7413
89.0343
89.3623
89.7225
90.1116
90.5264
90.9636
91.4199
91.8919
92.3766
92.871
93.3726
93.8788
94.3876
94.8968
95.405
95.9105
96.4123
96.9092
97.4004
97.8852
98.3629
98.8331
99.2952
99.749
100.194
100.63
101.056
101.473
101.879
102.274
102.656
103.026
103.381
103.72
104.041
104.343
104.622
104.877
105.105
105.302
105.466
105.594
105.682
105.727
105.726
105.675
105.572
105.413
105.196
104.918
104.578
104.172
103.7
103.16
102.55
101.871
101.12
100.299
99.4069
98.4439
97.4107
96.308
95.137
93.8989
92.5951
91.2274
89.7976
88.3078
86.7602
85.157
83.5006
81.7934
80.0379
78.2365
76.3915
74.5052
72.5796
70.6166
68.6185
66.5877
64.5273
62.4405
60.33
58.1973
56.0426
53.8644
51.6596
49.4235
47.1501
44.8321
42.4608
40.0295
37.5382
85.7587
85.8003
85.887
86.0198
86.197
86.4172
86.6783
86.9779
87.3131
87.6809
88.078
88.5009
88.9461
89.4103
89.8899
90.3818
90.883
91.3908
91.9027
92.4165
92.9304
93.4425
93.9516
94.4564
94.9559
95.4494
95.9362
96.4157
96.8875
97.3512
97.8065
98.2531
98.6907
99.119
99.5376
99.9459
100.343
100.729
101.103
101.462
101.806
102.132
102.44
102.725
102.987
103.221
103.426
103.597
103.732
103.827
103.879
103.884
103.839
103.741
103.587
103.374
103.099
102.761
102.357
101.885
101.345
100.734
100.052
99.2993
98.4744
97.5779
96.6099
95.5712
94.4624
93.2849
92.0398
90.7289
89.3538
87.9165
86.4193
84.8644
83.2542
81.5912
79.8779
78.1171
76.3112
74.4628
72.5741
70.6472
68.6841
66.6867
64.6575
62.6
60.5177
58.4137
56.2895
54.1453
51.9795
49.7881
47.5655
45.304
42.9934
40.6205
38.1754
35.6638
83.662
83.7046
83.7935
83.9297
84.1115
84.3373
84.605
84.912
85.2552
85.6316
86.0375
86.4693
86.9235
87.3964
87.8844
88.3843
88.8929
89.4076
89.9257
90.4451
90.9638
91.4803
91.9932
92.5012
93.0036
93.4996
93.9885
94.4698
94.9433
95.4086
95.8655
96.3137
96.7531
97.1833
97.6042
98.0152
98.4158
98.8052
99.1825
99.5464
99.8955
100.228
100.542
100.834
101.103
101.345
101.557
101.737
101.879
101.982
102.041
102.054
102.015
101.923
101.774
101.566
101.295
100.959
100.557
100.086
99.5448
98.9328
98.249
97.4928
96.664
95.7628
94.7894
93.7445
92.6291
91.4443
90.1916
88.8727
87.4894
86.0438
84.5384
82.9754
81.3573
79.6869
77.9668
76.1999
74.3889
72.5365
70.645
68.7166
66.753
64.7561
62.7285
60.6737
58.5959
56.4985
54.3836
52.2511
50.0991
47.9232
45.7166
43.4693
41.1668
38.7881
36.3187
33.7769
81.5521
81.5958
81.6872
81.8272
82.014
82.2461
82.5211
82.8363
83.1885
83.5743
83.99
84.4318
84.8959
85.3784
85.8757
86.3843
86.901
87.4231
87.948
88.4734
88.9974
89.5186
90.0354
90.547
91.0523
91.5508
92.0419
92.5253
93.0005
93.4675
93.926
94.3758
94.817
95.2493
95.6726
96.0864
96.4903
96.8835
97.2653
97.6343
97.9891
98.3279
98.6485
98.9486
99.2255
99.476
99.6971
99.8852
100.037
100.148
100.216
100.236
100.205
100.119
99.9759
99.7722
99.5051
99.1722
98.7716
98.3014
97.7602
97.1469
96.4607
95.7011
94.8681
93.9616
92.9822
91.9306
90.8079
89.6152
88.3541
87.0264
85.6341
84.1794
82.6649
81.0928
79.4661
77.7874
76.0597
74.2859
72.469
70.612
68.7173
66.787
64.8226
62.826
60.7995
58.7471
56.6738
54.5836
52.4786
50.3589
48.2227
46.0648
43.8776
41.6483
39.3559
36.9663
34.458
31.8706
79.4286
79.4736
79.5676
79.7118
79.9042
80.1432
80.4263
80.7506
81.1127
81.509
81.9356
82.3884
82.8633
83.3563
83.8637
84.3819
84.9075
85.4376
85.9697
86.5016
87.0313
87.5574
88.0785
88.5937
89.1022
89.6033
90.0967
90.5821
91.0591
91.5277
91.9879
92.4395
92.8825
93.317
93.7427
94.1594
94.5668
94.9642
95.3507
95.7252
96.0862
96.4319
96.7602
97.0686
97.3542
97.614
97.8446
98.0424
98.2036
98.3245
98.4012
98.4299
98.4069
98.3286
98.1918
97.9934
97.7305
97.4009
97.0022
96.5329
95.9913
95.3765
94.6877
93.9244
93.0866
92.1745
91.1886
90.1297
88.9989
87.7975
86.5273
85.19
83.7879
82.3232
80.7986
79.2167
77.5803
75.8924
74.1561
72.3746
70.5511
68.6887
66.7902
64.8575
62.8921
60.8953
58.8695
56.8192
54.7503
52.6674
50.5731
48.4677
46.3491
44.2124
42.0491
39.8435
37.5665
35.1637
32.5947
29.9537
77.291
77.3373
77.4343
77.5831
77.7818
78.0284
78.3205
78.6548
79.0278
79.4357
79.8742
80.339
80.8258
81.3304
81.8488
82.3773
82.9125
83.4513
83.9912
84.5299
85.0657
85.5969
86.1225
86.6415
87.1532
87.6572
88.1529
88.6403
89.1191
89.5894
90.0512
90.5045
90.9494
91.386
91.8143
92.2341
92.6452
93.0469
93.4385
93.8189
94.1866
94.5398
94.8764
95.1938
95.489
95.7589
96
96.2083
96.3802
96.5115
96.5982
96.6364
96.6222
96.5519
96.422
96.2294
95.9713
95.6451
95.2486
94.7801
94.2382
93.6217
92.93
92.1627
91.3198
90.4016
89.4086
88.3417
87.2022
85.9914
84.7111
83.3634
81.9505
80.4749
78.9393
77.3465
75.6996
74.0016
72.2558
70.4656
68.6345
66.7659
64.8628
62.9273
60.9605
58.9632
56.9375
54.8886
52.8237
50.7485
48.6657
46.5756
44.4768
42.3645
40.2305
38.0558
35.8023
33.3963
30.7799
28.0659
75.1388
75.1866
75.2868
75.4407
75.6462
75.9013
76.2032
76.5486
76.9337
77.3543
77.8058
78.2838
78.7836
79.3008
79.8311
80.3708
80.9162
81.4643
82.0125
82.5586
83.1007
83.6374
84.1677
84.6906
85.2057
85.7124
86.2105
86.6999
87.1805
87.6525
88.1159
88.5709
89.0177
89.4565
89.8874
90.3104
90.7252
91.1315
91.5285
91.9152
92.2901
92.6514
92.997
93.3241
93.6298
93.9107
94.163
94.383
94.5664
94.7091
94.8068
94.8554
94.8507
94.7891
94.6668
94.4806
94.2276
93.9051
93.5109
93.0434
92.501
91.8827
91.1879
90.4163
89.5679
88.643
87.6423
86.5668
85.4178
84.1968
82.9057
81.5466
80.122
78.6345
77.0869
75.4823
73.8237
72.1145
70.3582
68.5582
66.7185
64.8428
62.9344
60.9954
59.0267
57.0283
55.0018
52.9537
50.8925
48.8251
46.7544
44.6808
42.6035
40.5188
38.4193
36.2829
34.0607
31.6714
29.0364
26.2681
72.9714
73.0208
73.1245
73.2841
73.497
73.7614
74.0741
74.4317
74.83
75.2646
75.7305
76.2228
76.7367
77.2676
77.8108
78.3625
78.919
79.4771
80.0341
80.5878
81.1366
81.6791
82.2141
82.7411
83.2595
83.7691
84.2696
84.761
85.2434
85.7169
86.1819
86.6385
87.0871
87.5281
87.9617
88.3879
88.8067
89.2178
89.6205
90.0138
90.3964
90.7664
91.1216
91.4592
91.7762
92.069
92.3337
92.5662
92.7622
92.9173
93.027
93.0868
93.0926
93.0404
92.9263
92.7471
92.4995
92.1811
91.7895
91.3229
90.78
90.1598
89.4616
88.6853
87.8308
86.8988
85.8898
84.805
83.6457
82.4137
81.1108
79.7395
78.3022
76.8017
75.2412
73.6236
71.9524
70.231
68.4629
66.652
64.8026
62.9186
61.0039
59.0608
57.0896
55.0893
53.0611
51.0125
48.9545
46.8951
44.837
42.7809
40.7265
38.6716
36.6106
34.5202
32.335
29.9823
27.3758
24.6135
70.7882
70.8394
70.9469
71.1125
71.3337
71.6083
71.933
72.304
72.7168
73.1665
73.6481
74.1561
74.6854
75.231
75.7882
76.3528
76.9211
77.4897
78.0561
78.6179
79.1737
79.722
80.2621
80.7932
81.315
81.8274
82.3302
82.8236
83.3077
83.7827
84.2491
84.7073
85.1577
85.6008
86.037
86.4665
86.8893
87.3054
87.714
88.1144
88.5052
88.8845
89.25
89.599
89.9282
90.2338
90.5119
90.758
90.9677
91.1362
91.2588
91.3309
91.348
91.306
91.2009
91.0291
90.7875
90.4733
90.0844
89.6189
89.0755
88.4531
87.7513
86.9698
86.1089
85.1691
84.1512
83.0564
81.8861
80.6421
79.3266
77.942
76.491
74.9766
73.4019
71.7703
70.0853
68.3504
66.5695
64.7465
62.886
60.9925
59.0704
57.1222
55.1478
53.1447
51.1132
49.0628
47.0073
44.9561
42.9114
40.8733
38.8425
36.8183
34.7987
32.7576
30.616
28.3136
25.7842
23.1058
68.5885
68.6415
68.7531
68.9255
69.1557
69.4414
69.7792
70.1649
70.5937
71.0601
71.5587
72.0838
72.6297
73.1913
73.7635
74.342
74.9228
75.5026
76.0788
76.6492
77.2121
77.7666
78.3116
78.8469
79.3722
79.8874
80.3925
80.8877
81.3734
81.8498
82.3176
82.7772
83.2292
83.6744
84.1131
84.5459
84.9729
85.394
85.8089
86.2167
86.6161
87.0053
87.3819
87.7431
88.0854
88.4049
88.6974
88.9583
89.1827
89.3657
89.5024
89.5878
89.6172
89.5862
89.4906
89.3269
89.0917
88.7822
88.3961
87.9317
87.3876
86.7629
86.0571
85.2701
84.4023
83.4541
82.4266
81.3209
80.1388
78.8821
77.553
76.1541
74.6883
73.1588
71.5689
69.9221
68.2222
66.4727
64.6776
62.8411
60.9681
59.0637
57.1327
55.1783
53.1999
51.1928
49.156
47.1018
45.0482
43.0057
40.9749
38.9555
36.9484
34.9549
32.9773
30.99
28.9012
26.6568
24.2395
21.6947
66.3714
66.4263
66.5425
66.7222
66.9622
67.2603
67.6125
68.0143
68.4605
68.9452
69.4624
70.006
70.5699
71.1487
71.7371
72.3304
72.9245
73.5162
74.1027
74.6819
75.2523
75.8129
76.3631
76.9026
77.4312
77.9491
78.4564
78.9534
79.4406
79.9183
80.3872
80.8481
81.3016
81.7486
82.1898
82.6258
83.057
83.4834
83.9048
84.3203
84.7289
85.1286
85.517
85.8912
86.2475
86.582
86.8901
87.1668
87.4072
87.606
87.7578
87.8575
87.9002
87.8811
87.7959
87.6408
87.4124
87.1079
86.7248
86.2616
85.7167
85.0894
84.3793
83.5864
82.711
81.7539
80.716
79.5989
78.404
77.1336
75.7899
74.3757
72.8941
71.3483
69.7419
68.0788
66.3626
64.5973
62.7867
60.9353
59.0482
57.1311
55.1897
53.2277
51.2443
49.2314
47.1866
45.1262
43.074
41.041
39.0254
37.025
35.0415
33.0777
31.1415
29.2127
27.1913
25.0118
22.7003
20.2806
64.1361
64.1931
64.314
64.5018
64.7526
65.0642
65.4322
65.8517
66.317
66.8216
67.3591
67.9228
68.5063
69.1036
69.7092
70.3183
70.9266
71.5308
72.128
72.7163
73.2944
73.8613
74.4167
74.9603
75.4923
76.0128
76.5222
77.0208
77.5092
77.988
78.4579
78.9198
79.3747
79.8234
80.2669
80.7061
81.1414
81.5731
82.0012
82.4249
82.843
83.2538
83.6548
84.0429
84.4144
84.7649
85.0897
85.3836
85.6412
85.857
86.0252
86.1404
86.1973
86.191
86.1169
85.9711
85.75
85.4507
85.0709
84.6087
84.063
83.4329
82.7182
81.9188
81.0353
80.0686
79.0197
77.8902
76.6818
75.3967
74.0374
72.6068
71.1081
69.5449
67.9208
66.24
64.5064
62.7239
60.8965
59.0287
57.1257
55.1941
53.2403
51.2689
49.2789
47.258
45.2015
43.1321
41.081
39.0593
37.0603
35.0796
33.1192
31.1839
29.2893
27.4212
25.4816
23.3819
21.1433
18.7772
61.8815
61.9406
62.0668
62.2634
62.526
62.8524
63.2378
63.6768
64.1629
64.6894
65.2489
65.8344
66.4389
67.0562
67.6803
68.3062
68.9295
69.5468
70.1552
70.753
71.3388
71.9121
72.4726
73.0203
73.5554
74.0785
74.5898
75.0899
75.5794
76.059
76.5297
76.9924
77.4482
77.8984
78.3441
78.7863
79.2257
79.6629
80.0978
80.5299
80.9581
81.3807
81.795
82.1979
82.5856
82.9533
83.2962
83.6086
83.8847
84.1188
84.3047
84.4365
84.5087
84.5162
84.454
84.3181
84.1048
83.8111
83.4346
82.9736
82.4268
81.7937
81.0738
80.2675
79.3754
78.3983
77.3377
76.1949
74.972
73.6713
72.2953
70.8472
69.3303
67.7484
66.1052
64.4055
62.6532
60.8522
59.0066
57.1208
55.2003
53.2519
51.2832
49.3002
47.3015
45.2691
43.1959
41.1141
39.065
37.0575
35.0771
33.1166
31.1788
29.2701
27.4146
25.6097
23.7571
21.7521
19.5767
17.2044
59.6065
59.6678
59.7996
60.0058
60.2815
60.6242
61.0287
61.489
61.9981
62.5483
63.1318
63.7409
64.3682
65.0069
65.6508
66.2946
66.9338
67.5647
68.1848
68.7922
69.3859
69.9656
70.531
71.0827
71.6209
72.1463
72.6593
73.1607
73.6511
74.1313
74.6024
75.0656
75.5222
75.9736
76.4211
76.8661
77.3095
77.7521
78.194
78.6349
79.0737
79.5086
79.9371
80.3558
80.7607
81.147
81.5092
81.8415
82.1377
82.3914
82.5963
82.7461
82.8348
82.8569
82.8075
82.6822
82.4771
82.1893
81.8163
81.3564
80.8085
80.1719
79.4466
78.6328
77.7314
76.7433
75.6701
74.5133
73.275
71.9575
70.5638
69.0969
67.5605
65.9586
64.295
62.575
60.8026
58.9818
57.1166
55.2114
53.2714
51.304
49.3175
47.3193
45.3081
43.2586
41.162
39.0644
37.0204
35.0322
33.0732
31.1332
29.2172
27.3336
25.516
23.7707
21.997
20.0882
17.9976
15.6596
57.3097
57.3733
57.5111
57.7278
58.0178
58.3785
58.8041
59.2879
59.8221
60.3984
61.008
61.6427
62.2946
62.9562
63.6213
64.284
64.9398
65.5851
66.2171
66.8344
67.4361
68.022
68.5923
69.1477
69.6888
70.2163
70.7309
71.2332
71.7243
72.2048
72.6761
73.1394
73.5963
74.0485
74.4976
74.9452
75.3925
75.8404
76.2895
76.7393
77.1891
77.6371
78.0806
78.5161
78.9395
79.3456
79.7286
80.0823
80.3999
80.6749
80.9002
81.0692
81.1756
81.2136
81.1778
81.0637
80.8674
80.5858
80.2164
79.7576
79.2083
78.5679
77.8366
77.0148
76.1035
75.1037
74.017
72.8453
71.5906
70.2554
68.8427
67.3559
65.7986
64.1752
62.49
60.7482
58.9542
57.1122
55.2262
53.3002
51.3392
49.3504
47.3421
45.3233
43.2921
41.2149
39.0849
36.97
34.94
32.9802
31.0457
29.1251
27.2282
25.3675
23.587
21.8982
20.187
18.3508
16.3642
14.151
54.9897
55.0554
55.1998
55.428
55.7337
56.1144
56.5632
57.073
57.6348
58.2395
58.8776
59.54
60.2183
60.9046
61.5922
62.275
62.9483
63.6084
64.2528
64.8801
65.4896
66.0816
66.6567
67.2156
67.7593
68.2886
68.8045
69.3077
69.799
70.2796
70.7506
71.2137
71.6705
72.1231
72.5733
73.0231
73.474
73.9273
74.3835
74.8427
75.3039
75.7655
76.2249
76.6783
77.1214
77.5487
77.9541
78.3307
78.6715
78.9693
79.2166
79.4063
79.5317
79.5865
79.5653
79.4632
79.2762
79.001
78.6354
78.1775
77.6265
76.9821
76.2443
75.4139
74.4918
73.4796
72.3786
71.191
69.9189
68.565
67.1321
65.624
64.0446
62.3983
60.6898
58.9247
57.1077
55.2432
53.3352
51.3873
49.404
47.3913
45.3565
43.3093
41.2478
39.1295
36.9537
34.8208
32.8182
30.8999
28.9921
27.0862
25.202
23.3602
21.6122
19.9656
18.2961
16.5063
14.6196
12.6088
52.6446
52.7124
52.8638
53.1047
53.4279
53.8305
54.3052
54.8435
55.4358
56.0716
56.7407
57.4331
58.1398
58.8526
59.5641
60.2682
60.9599
61.6354
62.2924
62.9297
63.547
64.1449
64.7243
65.2864
65.8324
66.3634
66.8803
67.384
67.8753
68.3555
68.8259
69.2882
69.7445
70.1969
70.6479
71.0995
71.5538
72.0122
72.4756
72.9443
73.4174
73.8933
74.3694
74.8419
75.306
75.756
76.1853
76.5867
76.9525
77.2747
77.5456
77.7574
77.9031
77.976
77.9703
77.881
77.7037
77.4354
77.0735
76.6165
76.0636
75.4146
74.6698
73.8301
72.8967
71.8711
70.7551
69.5507
68.2602
66.8862
65.4321
63.9013
62.2982
60.6275
58.8942
57.1041
55.2625
53.3741
51.4431
49.4728
47.4664
45.428
43.3621
41.2789
39.1791
37.016
34.7932
32.6423
30.6701
28.7984
26.9139
25.0104
23.1271
21.3008
19.5823
17.9539
16.2884
14.5346
12.7642
11.0288
50.2724
50.3422
50.5011
50.756
51.0985
51.5256
52.0289
52.599
53.2247
53.8947
54.5974
55.3223
56.0596
56.8007
57.5378
58.2643
58.9752
59.6667
60.3365
60.9837
61.6086
62.2121
62.7955
63.3605
63.9085
64.4407
64.9583
65.4622
65.9533
66.4327
66.902
67.363
67.8181
68.2698
68.7209
69.1739
69.6311
70.0945
70.5651
71.0434
71.5288
72.0197
72.5134
73.0061
73.4927
73.967
74.422
74.85
75.2425
75.591
75.8873
76.123
76.2904
76.3827
76.3935
76.3176
76.1507
75.8894
75.5314
75.0751
74.5199
73.8658
73.1134
72.2637
71.3182
70.2785
69.1464
67.9242
66.6143
65.2193
63.7425
62.1878
60.5595
58.8628
57.1029
55.286
53.4181
51.5045
49.5494
47.5561
45.5266
43.4619
41.3628
39.24
37.1016
34.9064
32.66
30.5042
28.5467
26.7012
24.8241
22.9015
20.9949
19.1702
17.4693
15.8349
14.1539
12.4476
10.8164
9.42532
47.8707
47.9421
48.1092
48.3794
48.7435
49.198
49.7332
50.3385
51.0013
51.7087
52.4481
53.2081
53.9784
54.7497
55.5139
56.2642
56.9951
57.703
58.3858
59.0429
59.675
60.2835
60.8705
61.4379
61.9874
62.5206
63.0387
63.5425
64.0329
64.5112
64.9788
65.438
65.8912
66.3415
66.792
67.2458
67.7055
68.1735
68.6512
69.1393
69.6373
70.1439
70.6563
71.1703
71.6808
72.1812
72.6638
73.1203
73.5416
73.9185
74.2419
74.5032
74.6939
74.8068
74.8352
74.7736
74.6175
74.3636
74.0094
73.5536
72.9958
72.3361
71.5754
70.715
69.7565
68.7018
67.5528
66.3119
64.9813
63.5641
62.0635
60.4834
58.8284
57.104
55.3158
53.4699
51.574
49.6334
47.6531
45.6364
43.5839
41.4937
39.3629
37.2021
35.0275
32.8111
30.5701
28.4353
26.4782
24.6272
22.7358
20.7608
18.7852
16.931
15.2334
13.5886
11.9272
10.3153
8.80111
7.68692
45.4364
45.5093
45.6851
45.9723
46.3606
46.8457
47.4168
48.0614
48.7652
49.5136
50.2929
51.0909
51.8966
52.7003
53.4934
54.2687
55.0205
55.7452
56.441
57.1076
57.7465
58.3596
58.9495
59.5188
60.0694
60.6032
61.1214
61.6248
62.1143
62.591
63.0564
63.5129
63.9635
64.4116
64.8608
65.3146
65.7763
66.2486
66.7332
67.2311
67.7422
68.2651
68.797
69.3339
69.8699
70.3981
70.9104
71.3974
71.8496
72.257
72.6097
72.8984
73.1141
73.249
73.2961
73.2496
73.1048
72.8584
72.5081
72.0526
71.4917
70.8258
70.0562
69.1842
68.2119
67.1412
65.9743
64.7136
63.3614
61.9208
60.395
58.7881
57.1049
55.351
53.5327
51.6556
49.7297
47.7603
45.7532
43.712
41.6361
39.5219
37.3637
35.1698
32.9581
30.7131
28.4745
26.3595
24.4159
22.5828
20.6526
18.5818
16.4815
14.5902
12.9023
11.2997
9.74124
8.22986
6.71232
5.41426
42.9658
43.0399
43.2251
43.5312
43.9469
44.4666
45.078
45.7667
46.516
47.3095
48.1323
48.9713
49.815
50.6533
51.4771
52.2787
53.0523
53.7942
54.5028
55.1787
55.8237
56.4406
57.0328
57.6032
58.1545
58.6886
59.2066
59.7093
60.1975
60.6721
61.1347
61.5879
62.0349
62.4798
62.9267
63.3798
63.8429
64.3189
64.8101
65.318
65.8424
66.3823
66.9349
67.4958
68.059
68.6171
69.1611
69.6812
70.1666
70.6067
70.9909
71.3089
71.5514
71.7097
71.7767
71.7461
71.6132
71.3746
71.0281
70.5726
70.0081
69.3354
68.5559
67.6715
66.6844
65.5968
64.411
63.1294
61.7546
60.2894
58.7372
57.102
55.3889
53.6038
51.7536
49.8425
47.8847
45.8844
43.8483
41.7806
39.6804
37.5438
35.3631
33.1422
30.8936
28.6066
26.3377
24.1994
22.1863
20.2638
18.303
16.1328
13.9131
12.0212
10.4643
9.14138
7.87905
6.36716
3.80297
0.262223
40.4543
40.5294
40.7247
41.052
41.4988
42.0579
42.7152
43.4535
44.2535
45.0966
45.9666
46.8498
47.7344
48.6096
49.4659
50.2953
51.0915
51.8508
52.5722
53.2566
53.907
54.5269
55.1205
55.6914
56.2427
56.7766
57.2942
57.7961
58.2826
58.7546
59.2137
59.6626
60.1052
60.5458
60.9894
61.4409
61.9044
62.3836
62.8812
63.3989
63.937
64.4945
65.0688
65.6552
66.2475
66.8375
67.4157
67.9712
68.4924
68.9678
69.3857
69.7353
70.0063
70.1897
70.2777
70.2639
70.1434
69.9128
69.5699
69.114
68.5453
67.865
67.0748
66.1771
65.1741
64.0686
62.8629
61.5595
60.161
58.67
57.09
55.4251
53.6804
51.8622
49.9788
48.0301
46.0386
44.0049
41.9372
39.8408
37.7151
35.557
33.3584
31.1166
28.8349
26.4999
24.1705
21.9491
19.8111
17.7457
15.6409
13.339
11.0965
9.34374
8.06252
7.1091
6.30511
4.62794
1.14908
0.224967
37.896
37.9721
38.1781
38.5294
39.0121
39.6165
40.3263
41.1207
41.9773
42.875
43.7964
44.7272
45.6555
46.5701
47.4611
48.3197
49.1393
49.9163
50.65
51.3423
51.9969
52.6187
53.2127
53.7833
54.3341
54.8674
55.3843
55.8851
56.3698
56.8387
57.2936
57.7373
58.1741
58.6092
59.0483
59.497
59.96
60.4418
60.9453
61.4727
62.0248
62.6006
63.1976
63.8111
64.4344
65.0587
65.6735
66.2671
66.827
67.3402
67.7945
68.1779
68.4794
68.6895
68.7998
68.8037
68.6961
68.4736
68.1342
67.6775
67.1039
66.4151
65.6132
64.701
63.6813
62.5567
61.3301
60.0039
58.5805
57.0627
55.4537
53.7575
51.9794
50.1259
48.2047
46.2212
44.1914
42.1212
40.0193
37.892
35.74
33.5617
31.3478
29.0872
26.7711
24.3795
21.9655
19.6105
17.2793
14.9718
12.6127
10.152
8.00769
6.50682
5.49681
4.80305
3.57162
1.43379
0.262397
0.321949
35.2829
35.3607
35.5782
35.9569
36.4815
37.1385
37.9088
38.7673
39.6873
40.6451
41.6222
42.6042
43.5791
44.5359
45.4637
46.3531
47.197
47.9917
48.7372
49.4363
50.094
50.7164
51.3095
51.8788
52.4284
52.9608
53.477
53.9766
54.4591
54.9246
55.3744
55.8117
56.2415
56.6697
57.1029
57.5474
58.009
58.4925
59.0014
59.5384
60.1045
60.6993
61.3201
61.9623
62.6187
63.2797
63.934
64.5687
65.1701
65.7242
66.2175
66.6372
66.9714
67.2098
67.3437
67.3662
67.272
67.0578
66.7217
66.2635
65.6842
64.9859
64.1713
63.2435
62.2058
61.0612
59.8126
58.4626
57.0134
55.4676
53.8283
52.0993
50.286
48.3951
46.4345
44.4123
42.3419
40.2326
38.0941
35.9346
33.7563
31.5587
29.3288
27.0419
24.6741
22.2007
19.6667
17.1335
14.56
11.9541
9.28246
6.65841
4.67499
3.42954
2.50457
1.40353
0.476128
0.287065
0.290839
0.314431
32.6045
32.6857
32.9156
33.3258
33.8999
34.6191
35.4602
36.3921
37.3835
38.4074
39.4447
40.4814
41.5063
42.508
43.4752
44.3971
45.2661
46.0784
46.8348
47.5394
48.1987
48.82
49.4109
49.9778
50.5256
51.0568
51.5721
52.0707
52.551
53.0125
53.4564
53.8861
54.3072
54.7268
55.1524
55.5915
56.0504
56.5346
57.0483
57.5945
58.1749
58.7892
59.4351
60.1077
60.7993
61.4997
62.1965
62.8756
63.5218
64.12
64.6552
65.1137
65.4828
65.7515
65.9105
65.9525
65.8721
65.6662
65.333
64.8727
64.2868
63.5779
62.7493
61.8047
60.7478
59.582
58.3104
56.9356
55.4596
53.8848
52.2139
50.4507
48.6005
46.67
44.6678
42.6033
40.4896
38.3382
36.1612
33.9691
31.7648
29.547
27.2939
24.9598
22.5028
19.9025
17.2015
14.4526
11.6351
8.77335
5.86215
3.12856
1.2705
0.0072696
-1.91118
-0.703831
0.298936
0.320756
0.303419
0.309638
29.8463
29.9347
30.178
30.625
31.2589
32.0529
32.9773
33.994
35.0661
36.1627
37.2649
38.3598
39.4377
40.4876
41.4967
42.4532
43.3481
44.1778
44.9441
45.6525
46.3114
46.9299
47.5169
48.0802
48.6253
49.1551
49.6697
50.1674
50.6456
51.1029
51.5399
51.9605
52.3711
52.7801
53.1964
53.6283
54.0831
54.567
55.0847
55.6397
56.2344
56.8688
57.5409
58.2457
58.975
59.7178
60.4604
61.1873
61.8819
62.5275
63.1079
63.6082
64.0146
64.3154
64.5008
64.5633
64.4973
64.2996
63.9689
63.5057
62.9121
62.1913
61.3474
60.3846
59.3072
58.1191
56.8235
55.4228
53.9192
52.3144
50.6108
48.812
46.923
44.9509
42.9044
40.7942
38.6337
36.4377
34.2207
31.9956
29.7644
27.5213
25.2285
22.8082
20.2032
17.4181
14.5115
11.5492
8.57602
5.62935
2.63398
-0.271306
-2.14848
-1.49843
0.379107
0.362918
0.325107
0.321417
0.310463
0.309157
26.9876
27.0913
27.3492
27.8391
28.547
29.4326
30.4565
31.5721
32.7355
33.912
35.0835
36.2399
37.3743
38.4756
39.53
40.5233
41.445
42.2915
43.0661
43.7763
44.4326
45.046
45.6273
46.1856
46.7273
47.2555
47.7698
48.2671
48.7434
49.1961
49.6252
50.035
50.433
50.8292
51.2339
51.6568
52.106
52.5884
53.1092
53.6726
54.2814
54.9364
55.6359
56.3748
57.1444
57.9328
58.7249
59.5035
60.2504
60.9472
61.5762
62.1212
62.5674
62.9025
63.1159
63.1998
63.1485
62.959
62.6302
62.1631
61.5606
60.8265
59.9657
58.9832
57.8839
56.6723
55.3515
53.9242
52.3921
50.7565
49.0192
47.1835
45.254
43.2379
41.1444
38.9851
36.7743
34.5311
32.2726
30.013
27.7505
25.4695
23.1042
20.5363
17.7094
14.6917
11.5871
8.51894
5.59887