/*--------------------------------*- C++ -*----------------------------------*\
| =========                 |                                                 |
| \\      /  F ield         | OpenFOAM: The Open Source CFD Toolbox           |
|  \\    /   O peration     | Version:  2.4.0                                 |
|   \\  /    A nd           | Web:      www.OpenFOAM.org                      |
|    \\/     M anipulation  |                                                 |
\*---------------------------------------------------------------------------*/
FoamFile
{
    version     2.0;
    format      ascii;
    class       surfaceScalarField;
    location    "0.241";
    object      phi;
}
// * * * * * * * * * * * * * * * * * * * * * * * * * * * * * * * * * * * * * //

dimensions      [0 3 -1 0 0 0 0];

internalField   nonuniform List<scalar> 
119500
(
-1.79618e-09
1.79618e-09
-3.69528e-09
1.8991e-09
-5.57211e-09
1.87683e-09
-7.38428e-09
1.81217e-09
-9.11098e-09
1.7267e-09
-1.07374e-08
1.6264e-09
-1.22534e-08
1.516e-09
-1.36521e-08
1.39868e-09
-1.4931e-08
1.27891e-09
-1.60909e-08
1.15997e-09
-1.71356e-08
1.04467e-09
-1.80721e-08
9.36463e-10
-1.89085e-08
8.36457e-10
-1.96563e-08
7.47773e-10
-2.03257e-08
6.69364e-10
-2.09276e-08
6.01912e-10
-2.14735e-08
5.45927e-10
-2.19741e-08
5.00594e-10
-2.24388e-08
4.64697e-10
-2.28762e-08
4.37354e-10
-2.32943e-08
4.18132e-10
-2.36988e-08
4.04541e-10
-2.40941e-08
3.95314e-10
-2.44832e-08
3.89044e-10
-2.48675e-08
3.84346e-10
-2.52474e-08
3.79864e-10
-2.56217e-08
3.74307e-10
-2.59882e-08
3.66485e-10
-2.63435e-08
3.5528e-10
-2.66832e-08
3.39692e-10
-2.7002e-08
3.18805e-10
-2.72938e-08
2.91829e-10
-2.75518e-08
2.58039e-10
-2.77687e-08
2.16841e-10
-2.79364e-08
1.67691e-10
-2.80465e-08
1.10169e-10
-2.80906e-08
4.40888e-11
-2.80608e-08
-2.98522e-11
-2.79449e-08
-1.15865e-10
-2.77351e-08
-2.09783e-10
-2.74221e-08
-3.13023e-10
-2.69972e-08
-4.24926e-10
-2.64517e-08
-5.4543e-10
-2.57769e-08
-6.74889e-10
-2.49639e-08
-8.12988e-10
-2.40045e-08
-9.59352e-10
-2.28909e-08
-1.11359e-09
-2.16157e-08
-1.27524e-09
-2.01719e-08
-1.4438e-09
-1.85533e-08
-1.61864e-09
-1.67542e-08
-1.7991e-09
-1.47697e-08
-1.98445e-09
-1.25958e-08
-2.17387e-09
-1.02293e-08
-2.36657e-09
-7.66755e-09
-2.56172e-09
-4.90894e-09
-2.75861e-09
-1.95198e-09
-2.95696e-09
1.20574e-09
-3.15772e-09
4.55061e-09
-3.34487e-09
8.08705e-09
-3.53643e-09
1.18129e-08
-3.72582e-09
1.57248e-08
-3.91193e-09
1.98178e-08
-4.09304e-09
2.4084e-08
-4.26614e-09
2.85208e-08
-4.43684e-09
3.31179e-08
-4.59707e-09
3.7869e-08
-4.75111e-09
4.27648e-08
-4.89582e-09
4.77976e-08
-5.03281e-09
5.29583e-08
-5.16071e-09
5.82372e-08
-5.27892e-09
6.36248e-08
-5.38753e-09
6.91111e-08
-5.4863e-09
7.46861e-08
-5.575e-09
8.03393e-08
-5.65325e-09
8.60599e-08
-5.72054e-09
9.18364e-08
-5.77652e-09
9.76564e-08
-5.82006e-09
1.03506e-07
-5.8497e-09
1.0937e-07
-5.8636e-09
1.15229e-07
-5.85919e-09
1.21062e-07
-5.83296e-09
1.26843e-07
-5.78062e-09
1.3254e-07
-5.69774e-09
1.38121e-07
-5.58043e-09
1.43546e-07
-5.425e-09
1.48774e-07
-5.22867e-09
1.53764e-07
-4.98995e-09
1.58473e-07
-4.70879e-09
1.62854e-07
-4.38078e-09
1.66852e-07
-3.99771e-09
1.70395e-07
-3.54318e-09
1.73379e-07
-2.98399e-09
1.75636e-07
-2.25693e-09
1.76937e-07
-1.30131e-09
1.7714e-07
-2.03398e-10
1.7625e-07
8.9064e-10
1.74481e-07
1.76903e-09
1.71922e-07
2.55856e-09
3.33882e-09
1.68583e-07
-2.27707e-09
4.07325e-09
-4.75701e-09
4.37903e-09
-7.21098e-09
4.3308e-09
-9.59553e-09
4.19671e-09
-1.18895e-08
4.02065e-09
-1.40801e-08
3.81707e-09
-1.61581e-08
3.59395e-09
-1.81194e-08
3.35998e-09
-1.99646e-08
3.12414e-09
-2.1698e-08
2.89339e-09
-2.33275e-08
2.67411e-09
-2.48642e-08
2.47317e-09
-2.632e-08
2.29223e-09
-2.77084e-08
2.13624e-09
-2.90418e-08
2.00269e-09
-3.03338e-08
1.89397e-09
-3.15974e-08
1.80955e-09
-3.28436e-08
1.74671e-09
-3.40817e-08
1.70282e-09
-3.53197e-08
1.67541e-09
-3.65634e-08
1.66175e-09
-3.78166e-08
1.65781e-09
-3.90817e-08
1.66042e-09
-4.0359e-08
1.66631e-09
-4.1647e-08
1.67234e-09
-4.29427e-08
1.67553e-09
-4.42415e-08
1.6731e-09
-4.55374e-08
1.66247e-09
-4.68235e-08
1.6413e-09
-4.80912e-08
1.60746e-09
-4.93315e-08
1.55906e-09
-5.05341e-08
1.49442e-09
-5.16882e-08
1.4121e-09
-5.27822e-08
1.31085e-09
-5.38041e-08
1.18961e-09
-5.47415e-08
1.04756e-09
-5.55815e-08
8.84147e-10
-5.63105e-08
6.99096e-10
-5.69169e-08
4.90532e-10
-5.73867e-08
2.60071e-10
-5.77055e-08
5.73901e-12
-5.78597e-08
-2.70703e-10
-5.78367e-08
-5.68399e-10
-5.76232e-08
-8.88415e-10
-5.72065e-08
-1.22972e-09
-5.65746e-08
-1.59123e-09
-5.57159e-08
-1.97225e-09
-5.46195e-08
-2.37167e-09
-5.32749e-08
-2.78838e-09
-5.16726e-08
-3.22094e-09
-4.98039e-08
-3.66781e-09
-4.76611e-08
-4.12728e-09
-4.52375e-08
-4.59745e-09
-4.25277e-08
-5.07641e-09
-3.95273e-08
-5.56211e-09
-3.62334e-08
-6.05252e-09
-3.26445e-08
-6.54584e-09
-2.87624e-08
-7.03984e-09
-2.45814e-08
-7.52589e-09
-2.01078e-08
-8.00995e-09
-1.53453e-08
-8.48837e-09
-1.02986e-08
-8.95867e-09
-4.97322e-09
-9.41838e-09
6.26878e-10
-9.86625e-09
6.48618e-09
-1.02961e-08
1.26003e-08
-1.07112e-08
1.89575e-08
-1.11083e-08
2.55493e-08
-1.14877e-08
3.23584e-08
-1.18418e-08
3.93818e-08
-1.21841e-08
4.65978e-08
-1.24949e-08
5.39993e-08
-1.27891e-08
6.15703e-08
-1.30572e-08
6.92973e-08
-1.3302e-08
7.71665e-08
-1.35225e-08
8.51604e-08
-1.37144e-08
9.32646e-08
-1.38808e-08
1.01461e-07
-1.40167e-08
1.09731e-07
-1.41193e-08
1.18052e-07
-1.41843e-08
1.26399e-07
-1.42061e-08
1.34742e-07
-1.41765e-08
1.43047e-07
-1.40855e-08
1.51272e-07
-1.39226e-08
1.5937e-07
-1.36785e-08
1.67287e-07
-1.3342e-08
1.74965e-07
-1.29066e-08
1.82342e-07
-1.23672e-08
1.89356e-07
-1.17228e-08
1.95941e-07
-1.09655e-08
2.02027e-07
-1.00843e-08
2.07536e-07
-9.05138e-09
2.12372e-07
-7.82019e-09
2.16426e-07
-6.31123e-09
2.19568e-07
-4.44367e-09
2.21579e-07
-2.21405e-09
2.22187e-07
2.82364e-10
2.21188e-07
2.76814e-09
2.18582e-07
5.16494e-09
7.46627e-09
2.14454e-07
-2.37333e-09
6.44658e-09
-4.97838e-09
6.98408e-09
-7.56849e-09
6.92091e-09
-1.00953e-08
6.72348e-09
-1.25401e-08
6.46551e-09
-1.48909e-08
6.16786e-09
-1.71413e-08
5.84432e-09
-1.92889e-08
5.50762e-09
-2.13353e-08
5.17053e-09
-2.32868e-08
4.8449e-09
-2.51524e-08
4.53969e-09
-2.69431e-08
4.26383e-09
-2.8673e-08
4.02218e-09
-3.03529e-08
3.81613e-09
-3.19993e-08
3.64906e-09
-3.36247e-08
3.51936e-09
-3.52408e-08
3.42562e-09
-3.68583e-08
3.36425e-09
-3.84864e-08
3.33091e-09
-4.01322e-08
3.32119e-09
-4.18006e-08
3.33021e-09
-4.3495e-08
3.35221e-09
-4.52166e-08
3.38202e-09
-4.69648e-08
3.41453e-09
-4.87373e-08
3.44482e-09
-5.05301e-08
3.46829e-09
-5.23377e-08
3.48069e-09
-5.41533e-08
3.47805e-09
-5.59688e-08
3.45683e-09
-5.77751e-08
3.41383e-09
-5.95622e-08
3.34614e-09
-6.13191e-08
3.25128e-09
-6.3034e-08
3.12704e-09
-6.46947e-08
2.97155e-09
-6.62884e-08
2.78325e-09
-6.78017e-08
2.56087e-09
-6.9221e-08
2.3035e-09
-7.05323e-08
2.01039e-09
-7.17222e-08
1.6804e-09
-7.27761e-08
1.31397e-09
-7.36808e-08
9.1044e-10
-7.44223e-08
4.70829e-10
-7.49862e-08
-4.49e-12
-7.53585e-08
-5.16169e-10
-7.55249e-08
-1.06332e-09
-7.54725e-08
-1.64359e-09
-7.51887e-08
-2.25606e-09
-7.46617e-08
-2.89869e-09
-7.38803e-08
-3.56974e-09
-7.28342e-08
-4.26705e-09
-7.15139e-08
-4.98812e-09
-6.99107e-08
-5.73044e-09
-6.80175e-08
-6.49073e-09
-6.58279e-08
-7.26599e-09
-6.33372e-08
-8.05283e-09
-6.05418e-08
-8.84784e-09
-5.744e-08
-9.64763e-09
-5.40318e-08
-1.04481e-08
-5.03148e-08
-1.12429e-08
-4.62928e-08
-1.20319e-08
-4.19697e-08
-1.28116e-08
-3.73503e-08
-1.35781e-08
-3.24408e-08
-1.43279e-08
-2.72492e-08
-1.50579e-08
-2.17821e-08
-1.57633e-08
-1.60499e-08
-1.64433e-08
-1.00627e-08
-1.70955e-08
-3.83223e-09
-1.77182e-08
2.6352e-09
-1.83093e-08
9.31301e-09
-1.88619e-08
1.62018e-08
-1.93837e-08
2.32824e-08
-1.98697e-08
3.05424e-08
-2.03172e-08
3.79669e-08
-2.07265e-08
4.5539e-08
-2.10946e-08
5.32449e-08
-2.14202e-08
6.10655e-08
-2.17014e-08
6.89819e-08
-2.19331e-08
7.69725e-08
-2.21099e-08
8.50127e-08
-2.22245e-08
9.30731e-08
-2.22666e-08
1.01119e-07
-2.22224e-08
1.09109e-07
-2.20753e-08
1.16994e-07
-2.18076e-08
1.24717e-07
-2.14021e-08
1.32218e-07
-2.08429e-08
1.39431e-07
-2.01198e-08
1.46288e-07
-1.92237e-08
1.52724e-07
-1.81586e-08
1.58679e-07
-1.69205e-08
1.64096e-07
-1.55013e-08
1.68924e-07
-1.38795e-08
1.73124e-07
-1.20206e-08
1.76664e-07
-9.85068e-09
1.79504e-07
-7.28378e-09
1.81561e-07
-4.2708e-09
1.82659e-07
-8.15778e-10
1.82574e-07
2.85298e-09
1.8106e-07
6.67852e-09
1.05117e-08
1.78015e-07
-2.43038e-09
8.87696e-09
-5.10122e-09
9.65492e-09
-7.75943e-09
9.57912e-09
-1.03546e-08
9.31866e-09
-1.28689e-08
8.97976e-09
-1.5291e-08
8.59003e-09
-1.76141e-08
8.16743e-09
-1.98372e-08
7.73071e-09
-2.19632e-08
7.29646e-09
-2.39986e-08
6.88031e-09
-2.59531e-08
6.49421e-09
-2.78385e-08
6.14921e-09
-2.96684e-08
5.85209e-09
-3.14579e-08
5.6057e-09
-3.32205e-08
5.41164e-09
-3.49698e-08
5.26867e-09
-3.67182e-08
5.17397e-09
-3.84765e-08
5.12252e-09
-4.02539e-08
5.10834e-09
-4.20577e-08
5.12497e-09
-4.38928e-08
5.16536e-09
-4.57626e-08
5.22196e-09
-4.76681e-08
5.28757e-09
-4.96088e-08
5.35518e-09
-5.15821e-08
5.41813e-09
-5.3584e-08
5.4702e-09
-5.56089e-08
5.50564e-09
-5.765e-08
5.51914e-09
-5.96991e-08
5.50593e-09
-6.1747e-08
5.46172e-09
-6.37835e-08
5.38265e-09
-6.57976e-08
5.26535e-09
-6.77774e-08
5.1069e-09
-6.97107e-08
4.90478e-09
-7.15843e-08
4.65689e-09
-7.3385e-08
4.36154e-09
-7.50989e-08
4.01739e-09
-7.67119e-08
3.62341e-09
-7.82101e-08
3.17862e-09
-7.95791e-08
2.68294e-09
-8.08047e-08
2.13608e-09
-8.18726e-08
1.53873e-09
-8.27687e-08
8.91532e-10
-8.34795e-08
1.94671e-10
-8.39912e-08
-5.51622e-10
-8.42902e-08
-1.34461e-09
-8.43632e-08
-2.18301e-09
-8.41981e-08
-3.06386e-09
-8.37827e-08
-3.98509e-09
-8.31064e-08
-4.94331e-09
-8.21593e-08
-5.93526e-09
-8.09323e-08
-6.95742e-09
-7.94177e-08
-8.00535e-09
-7.76088e-08
-9.07495e-09
-7.55001e-08
-1.01615e-08
-7.30878e-08
-1.12601e-08
-7.03695e-08
-1.23659e-08
-6.73443e-08
-1.34733e-08
-6.40111e-08
-1.4576e-08
-6.03724e-08
-1.56706e-08
-5.64315e-08
-1.67524e-08
-5.21933e-08
-1.78163e-08
-4.76636e-08
-1.88576e-08
-4.28498e-08
-1.98717e-08
-3.77593e-08
-2.08537e-08
-3.24018e-08
-2.18008e-08
-2.67875e-08
-2.27098e-08
-2.09279e-08
-2.35778e-08
-1.48352e-08
-2.4402e-08
-8.51924e-09
-2.51779e-08
-1.99548e-09
-2.59075e-08
4.72256e-09
-2.65877e-08
1.16207e-08
-2.72153e-08
1.86829e-08
-2.77887e-08
2.58927e-08
-2.83045e-08
3.32315e-08
-2.87591e-08
4.06787e-08
-2.91486e-08
4.82115e-08
-2.94659e-08
5.58039e-08
-2.97023e-08
6.34254e-08
-2.98459e-08
7.10392e-08
-2.98804e-08
7.86015e-08
-2.97846e-08
8.60606e-08
-2.95344e-08
9.33561e-08
-2.91031e-08
1.0042e-07
-2.84662e-08
1.07181e-07
-2.76041e-08
1.13563e-07
-2.65015e-08
1.19502e-07
-2.5163e-08
1.2493e-07
-2.35863e-08
1.29794e-07
-2.1784e-08
1.34058e-07
-1.97657e-08
1.37697e-07
-1.75185e-08
1.40706e-07
-1.50291e-08
1.43105e-07
-1.22499e-08
1.4492e-07
-9.09857e-09
1.46156e-07
-5.50756e-09
1.46757e-07
-1.41617e-09
1.46536e-07
3.07337e-09
1.45161e-07
8.05398e-09
1.33197e-08
1.42353e-07
-2.47258e-09
1.13495e-08
-5.18503e-09
1.23674e-08
-7.88353e-09
1.22776e-08
-1.05171e-08
1.19523e-08
-1.30662e-08
1.15288e-08
-1.55193e-08
1.10432e-08
-1.78712e-08
1.05193e-08
-2.012e-08
9.97958e-09
-2.22704e-08
9.44679e-09
-2.43283e-08
8.93822e-09
-2.63056e-08
8.47147e-09
-2.82139e-08
8.05754e-09
-3.00678e-08
7.70597e-09
-3.18835e-08
7.42142e-09
-3.36749e-08
7.20308e-09
-3.54563e-08
7.05004e-09
-3.72404e-08
6.95808e-09
-3.90385e-08
6.92066e-09
-4.08602e-08
6.92995e-09
-4.27126e-08
6.97741e-09
-4.46011e-08
7.05384e-09
-4.65288e-08
7.14973e-09
-4.84971e-08
7.25584e-09
-5.05052e-08
7.36327e-09
-5.25507e-08
7.46359e-09
-5.46294e-08
7.54892e-09
-5.67358e-08
7.61202e-09
-5.88629e-08
7.64627e-09
-6.10026e-08
7.64564e-09
-6.31457e-08
7.60476e-09
-6.52818e-08
7.5188e-09
-6.74e-08
7.38354e-09
-6.94884e-08
7.19529e-09
-7.15345e-08
6.9509e-09
-7.35253e-08
6.64772e-09
-7.54474e-08
6.28359e-09
-7.72868e-08
5.8568e-09
-7.90294e-08
5.36603e-09
-8.0661e-08
4.81025e-09
-8.21672e-08
4.18908e-09
-8.35334e-08
3.50232e-09
-8.47451e-08
2.75045e-09
-8.57877e-08
1.93413e-09
-8.66471e-08
1.05407e-09
-8.73101e-08
1.11322e-10
-8.77627e-08
-8.91977e-10
-8.79919e-08
-1.95385e-09
-8.79846e-08
-3.07117e-09
-8.77287e-08
-4.24091e-09
-8.7213e-08
-5.45908e-09
-8.64268e-08
-6.72145e-09
-8.53609e-08
-8.02332e-09
-8.40068e-08
-9.35939e-09
-8.23576e-08
-1.07242e-08
-8.04074e-08
-1.21117e-08
-7.81518e-08
-1.35157e-08
-7.5588e-08
-1.49298e-08
-7.27142e-08
-1.63471e-08
-6.95299e-08
-1.77604e-08
-6.60367e-08
-1.91639e-08
-6.22375e-08
-2.05515e-08
-5.81369e-08
-2.19169e-08
-5.37404e-08
-2.3254e-08
-4.90551e-08
-2.4557e-08
-4.40888e-08
-2.58201e-08
-3.88506e-08
-2.7039e-08
-3.3351e-08
-2.82094e-08
-2.76013e-08
-2.93275e-08
-2.16137e-08
-3.03895e-08
-1.54001e-08
-3.13915e-08
-8.97503e-09
-3.23325e-08
-2.3536e-09
-3.32092e-08
4.44865e-09
-3.40175e-08
1.1414e-08
-3.47541e-08
1.85233e-08
-3.54137e-08
2.57554e-08
-3.59912e-08
3.30861e-08
-3.64793e-08
4.04893e-08
-3.68691e-08
4.79347e-08
-3.71478e-08
5.53871e-08
-3.72984e-08
6.28047e-08
-3.72979e-08
7.01372e-08
-3.71171e-08
7.7326e-08
-3.67232e-08
8.43039e-08
-3.60811e-08
9.09968e-08
-3.51591e-08
9.73252e-08
-3.39325e-08
1.0322e-07
-3.23959e-08
1.086e-07
-3.05434e-08
1.13409e-07
-2.83954e-08
1.1761e-07
-2.59853e-08
1.21169e-07
-2.33248e-08
1.24082e-07
-2.0431e-08
1.26365e-07
-1.73118e-08
1.28071e-07
-1.3956e-08
1.29266e-07
-1.02943e-08
1.29994e-07
-6.23472e-09
1.30209e-07
-1.63111e-09
1.29643e-07
3.63858e-09
1.27906e-07
9.79141e-09
1.65599e-08
1.24666e-07
-2.51075e-09
1.38603e-08
-5.25654e-09
1.51132e-08
-7.98588e-09
1.5007e-08
-1.06458e-08
1.46122e-08
-1.32167e-08
1.40996e-08
-1.56864e-08
1.35129e-08
-1.8049e-08
1.28819e-08
-2.03044e-08
1.2235e-08
-2.24564e-08
1.15987e-08
-2.45129e-08
1.09948e-08
-2.6486e-08
1.04445e-08
-2.83889e-08
9.96048e-09
-3.0237e-08
9.55405e-09
-3.20466e-08
9.23102e-09
-3.38334e-08
8.98988e-09
-3.56119e-08
8.82854e-09
-3.73955e-08
8.74168e-09
-3.91958e-08
8.721e-09
-4.10226e-08
8.75675e-09
-4.28834e-08
8.83818e-09
-4.47835e-08
8.95391e-09
-4.67261e-08
9.09234e-09
-4.87124e-08
9.24218e-09
-5.07417e-08
9.39257e-09
-5.28114e-08
9.53328e-09
-5.49173e-08
9.65482e-09
-5.70537e-08
9.74841e-09
-5.92136e-08
9.80611e-09
-6.13886e-08
9.82067e-09
-6.35694e-08
9.78561e-09
-6.57458e-08
9.69516e-09
-6.79065e-08
9.54423e-09
-7.00396e-08
9.32838e-09
-7.21325e-08
9.0438e-09
-7.41721e-08
8.6873e-09
-7.61447e-08
8.25627e-09
-7.80366e-08
7.74861e-09
-7.98332e-08
7.16272e-09
-8.15204e-08
6.49743e-09
-8.30835e-08
5.75215e-09
-8.45079e-08
4.92666e-09
-8.57787e-08
4.02131e-09
-8.68814e-08
3.03678e-09
-8.78013e-08
1.97402e-09
-8.85245e-08
8.34551e-10
-8.90372e-08
-3.79355e-10
-8.93258e-08
-1.66518e-09
-8.93774e-08
-3.01958e-09
-8.91795e-08
-4.43879e-09
-8.87205e-08
-5.91815e-09
-8.79894e-08
-7.45257e-09
-8.69764e-08
-9.03627e-09
-8.56729e-08
-1.06629e-08
-8.40714e-08
-1.23257e-08
-8.21658e-08
-1.40173e-08
-7.99513e-08
-1.57302e-08
-7.74246e-08
-1.74565e-08
-7.45839e-08
-1.91878e-08
-7.14285e-08
-2.09158e-08
-6.79596e-08
-2.26327e-08
-6.41801e-08
-2.4331e-08
-6.00942e-08
-2.60029e-08
-5.57073e-08
-2.76408e-08
-5.10266e-08
-2.92377e-08
-4.60599e-08
-3.07868e-08
-4.08166e-08
-3.22823e-08
-3.53074e-08
-3.37186e-08
-2.95439e-08
-3.5091e-08
-2.35388e-08
-3.63946e-08
-1.73054e-08
-3.7625e-08
-1.08588e-08
-3.87791e-08
-4.21523e-09
-3.98527e-08
2.60789e-09
-4.08407e-08
9.59123e-09
-4.17374e-08
1.67137e-08
-4.25362e-08
2.39518e-08
-4.32293e-08
3.12804e-08
-4.38079e-08
3.8671e-08
-4.42597e-08
4.6092e-08
-4.45688e-08
5.35069e-08
-4.47133e-08
6.08725e-08
-4.46636e-08
6.81386e-08
-4.43831e-08
7.52447e-08
-4.38294e-08
8.21213e-08
-4.29577e-08
8.86929e-08
-4.17307e-08
9.48793e-08
-4.01188e-08
1.00599e-07
-3.81153e-08
1.05781e-07
-3.57255e-08
1.10372e-07
-3.29865e-08
1.14324e-07
-2.99377e-08
1.17622e-07
-2.6622e-08
1.20279e-07
-2.30881e-08
1.22322e-07
-1.9355e-08
1.2382e-07
-1.54539e-08
1.24869e-07
-1.13439e-08
1.25524e-07
-6.88996e-09
1.25727e-07
-1.83336e-09
1.2512e-07
4.24509e-09
1.2319e-07
1.17221e-08
2.01856e-08
1.19564e-07
-2.55191e-09
1.64122e-08
-5.33251e-09
1.78937e-08
-8.0929e-09
1.77674e-08
-1.07789e-08
1.72983e-08
-1.33693e-08
1.669e-08
-1.58517e-08
1.59952e-08
-1.82207e-08
1.52509e-08
-2.04752e-08
1.44895e-08
-2.26207e-08
1.37442e-08
-2.46662e-08
1.30403e-08
-2.66248e-08
1.24031e-08
-2.85106e-08
1.18463e-08
-3.03417e-08
1.13851e-08
-3.21326e-08
1.10219e-08
-3.39021e-08
1.07594e-08
-3.56649e-08
1.05913e-08
-3.7435e-08
1.05118e-08
-3.92244e-08
1.05104e-08
-4.10432e-08
1.05755e-08
-4.2899e-08
1.0694e-08
-4.47972e-08
1.08521e-08
-4.67411e-08
1.10362e-08
-4.87316e-08
1.12327e-08
-5.07679e-08
1.14289e-08
-5.28473e-08
1.16127e-08
-5.49653e-08
1.17729e-08
-5.71162e-08
1.18993e-08
-5.92927e-08
1.19826e-08
-6.14863e-08
1.20143e-08
-6.36875e-08
1.19868e-08
-6.58859e-08
1.18935e-08
-6.80701e-08
1.17284e-08
-7.0228e-08
1.14863e-08
-7.23469e-08
1.11627e-08
-7.44135e-08
1.07539e-08
-7.64142e-08
1.02569e-08
-7.83348e-08
9.66917e-09
-8.01609e-08
8.98883e-09
-8.1878e-08
8.21454e-09
-8.34714e-08
7.34554e-09
-8.49262e-08
6.38154e-09
-8.62277e-08
5.3228e-09
-8.7361e-08
4.17003e-09
-8.83113e-08
2.92437e-09
-8.90643e-08
1.58756e-09
-8.96058e-08
1.62127e-10
-8.99221e-08
-1.34888e-09
-8.99999e-08
-2.94178e-09
-8.98265e-08
-4.61217e-09
-8.939e-08
-6.35464e-09
-8.86793e-08
-8.16329e-09
-8.76843e-08
-1.00313e-08
-8.6396e-08
-1.19512e-08
-8.48067e-08
-1.3915e-08
-8.291e-08
-1.5914e-08
-8.0701e-08
-1.79392e-08
-7.81762e-08
-1.99813e-08
-7.53336e-08
-2.20304e-08
-7.21725e-08
-2.40769e-08
-6.8694e-08
-2.61112e-08
-6.4901e-08
-2.81241e-08
-6.07975e-08
-3.01064e-08
-5.63893e-08
-3.20491e-08
-5.16832e-08
-3.39437e-08
-4.66878e-08
-3.57823e-08
-4.14125e-08
-3.75576e-08
-3.58683e-08
-3.92628e-08
-3.00674e-08
-4.08919e-08
-2.4023e-08
-4.2439e-08
-1.77493e-08
-4.38987e-08
-1.12621e-08
-4.52663e-08
-4.57864e-09
-4.65362e-08
2.28277e-09
-4.77021e-08
9.30185e-09
-4.87565e-08
1.64566e-08
-4.96909e-08
2.37234e-08
-5.04961e-08
3.1076e-08
-5.11605e-08
3.84868e-08
-5.16705e-08
4.59249e-08
-5.20068e-08
5.33547e-08
-5.21432e-08
6.0735e-08
-5.20438e-08
6.80156e-08
-5.16638e-08
7.51386e-08
-5.09523e-08
8.2034e-08
-4.98531e-08
8.8624e-08
-4.83206e-08
9.48244e-08
-4.63193e-08
1.00548e-07
-4.3839e-08
1.05727e-07
-4.09048e-08
1.10298e-07
-3.75566e-08
1.1422e-07
-3.38598e-08
1.1748e-07
-2.9882e-08
1.20087e-07
-2.56959e-08
1.22093e-07
-2.13607e-08
1.23586e-07
-1.69471e-08
1.24686e-07
-1.24439e-08
1.25489e-07
-7.69248e-09
1.25928e-07
-2.27241e-09
1.25591e-07
4.58249e-09
1.23777e-07
1.35356e-08
2.39632e-08
1.19999e-07
-2.59975e-09
1.9012e-08
-5.4202e-09
2.07142e-08
-8.21573e-09
2.05629e-08
-1.09312e-08
2.00137e-08
-1.35425e-08
1.93013e-08
-1.60382e-08
1.84909e-08
-1.84111e-08
1.76237e-08
-2.06631e-08
1.67416e-08
-2.27985e-08
1.58795e-08
-2.48282e-08
1.50701e-08
-2.67669e-08
1.43417e-08
-2.86302e-08
1.37096e-08
-3.0437e-08
1.31919e-08
-3.22036e-08
1.27885e-08
-3.39498e-08
1.25056e-08
-3.56911e-08
1.23326e-08
-3.74422e-08
1.22628e-08
-3.92156e-08
1.22838e-08
-4.10216e-08
1.23816e-08
-4.28681e-08
1.25405e-08
-4.47604e-08
1.27445e-08
-4.67018e-08
1.29776e-08
-4.86931e-08
1.3224e-08
-5.07333e-08
1.3469e-08
-5.28193e-08
1.36987e-08
-5.49467e-08
1.39002e-08
-5.71093e-08
1.40619e-08
-5.92996e-08
1.41729e-08
-6.1509e-08
1.42237e-08
-6.37278e-08
1.42057e-08
-6.59453e-08
1.4111e-08
-6.815e-08
1.39331e-08
-7.03296e-08
1.36659e-08
-7.24712e-08
1.33043e-08
-7.45614e-08
1.28441e-08
-7.65862e-08
1.22818e-08
-7.85315e-08
1.16145e-08
-8.03827e-08
1.08401e-08
-8.21252e-08
9.95701e-09
-8.3744e-08
8.9644e-09
-8.52244e-08
7.86185e-09
-8.65511e-08
6.64956e-09
-8.77094e-08
5.32827e-09
-8.86842e-08
3.89925e-09
-8.94611e-08
2.36443e-09
-9.00255e-08
7.26546e-10
-9.03635e-08
-1.01087e-09
-9.04616e-08
-2.84372e-09
-9.03068e-08
-4.76699e-09
-8.98869e-08
-6.77453e-09
-8.91906e-08
-8.85952e-09
-8.82077e-08
-1.10142e-08
-8.69289e-08
-1.323e-08
-8.53464e-08
-1.54975e-08
-8.34536e-08
-1.78068e-08
-8.12454e-08
-2.01475e-08
-7.87182e-08
-2.25085e-08
-7.587e-08
-2.48787e-08
-7.27001e-08
-2.72467e-08
-6.92097e-08
-2.96016e-08
-6.54015e-08
-3.19323e-08
-6.12798e-08
-3.4228e-08
-5.68504e-08
-3.64785e-08
-5.21205e-08
-3.86737e-08
-4.70986e-08
-4.08042e-08
-4.17946e-08
-4.28615e-08
-3.62198e-08
-4.48376e-08
-3.03868e-08
-4.6725e-08
-2.4309e-08
-4.85167e-08
-1.80013e-08
-5.02064e-08
-1.14799e-08
-5.17877e-08
-4.76219e-09
-5.32539e-08
2.13308e-09
-5.45973e-08
9.18553e-09
-5.5809e-08
1.63732e-08
-5.68786e-08
2.36728e-08
-5.77957e-08
3.10595e-08
-5.85471e-08
3.85062e-08
-5.91173e-08
4.59837e-08
-5.94843e-08
5.34583e-08
-5.96178e-08
6.08906e-08
-5.94761e-08
6.82337e-08
-5.90068e-08
7.54285e-08
-5.81472e-08
8.24079e-08
-5.68325e-08
8.9088e-08
-5.50007e-08
9.53807e-08
-5.26121e-08
1.01193e-07
-4.9651e-08
1.06449e-07
-4.61612e-08
1.11079e-07
-4.21865e-08
1.15047e-07
-3.78284e-08
1.18336e-07
-3.31704e-08
1.20955e-07
-2.83149e-08
1.22973e-07
-2.33784e-08
1.24485e-07
-1.846e-08
1.25658e-07
-1.36166e-08
1.26662e-07
-8.69626e-09
1.27482e-07
-3.09248e-09
1.27638e-07
4.42627e-09
1.26139e-07
1.50351e-08
2.77937e-08
1.22308e-07
-2.65561e-09
2.16676e-08
-5.52239e-09
2.3581e-08
-8.35951e-09
2.34e-08
-1.11075e-08
2.27617e-08
-1.37438e-08
2.19377e-08
-1.62535e-08
2.10007e-08
-1.8631e-08
2.00013e-08
-2.08778e-08
1.89884e-08
-2.30001e-08
1.80018e-08
-2.50104e-08
1.70804e-08
-2.69246e-08
1.62559e-08
-2.87609e-08
1.5546e-08
-3.05381e-08
1.49691e-08
-3.2276e-08
1.45264e-08
-3.39944e-08
1.42241e-08
-3.57101e-08
1.40482e-08
-3.74385e-08
1.39912e-08
-3.91927e-08
1.40381e-08
-4.09835e-08
1.41723e-08
-4.28187e-08
1.43757e-08
-4.47038e-08
1.46296e-08
-4.66418e-08
1.49156e-08
-4.86335e-08
1.52157e-08
-5.06774e-08
1.5513e-08
-5.27706e-08
1.57918e-08
-5.49079e-08
1.60376e-08
-5.70831e-08
1.62371e-08
-5.92885e-08
1.63783e-08
-6.15152e-08
1.64504e-08
-6.37532e-08
1.64436e-08
-6.59915e-08
1.63494e-08
-6.82186e-08
1.61601e-08
-7.04218e-08
1.58691e-08
-7.2588e-08
1.54706e-08
-7.47038e-08
1.49598e-08
-7.67549e-08
1.43329e-08
-7.8727e-08
1.35866e-08
-8.06054e-08
1.27185e-08
-8.23753e-08
1.17269e-08
-8.40216e-08
1.06107e-08
-8.55294e-08
9.36959e-09
-8.68834e-08
8.00355e-09
-8.80685e-08
6.5134e-09
-8.90697e-08
4.9005e-09
-8.98723e-08
3.16695e-09
-9.04614e-08
1.31571e-09
-9.0823e-08
-6.49299e-10
-9.09432e-08
-2.72348e-09
-9.08089e-08
-4.90131e-09
-9.04076e-08
-7.17583e-09
-8.97278e-08
-9.5393e-09
-8.8759e-08
-1.1983e-08
-8.74918e-08
-1.44972e-08
-8.59182e-08
-1.70711e-08
-8.40314e-08
-1.96936e-08
-8.18262e-08
-2.23526e-08
-7.92991e-08
-2.50357e-08
-7.64478e-08
-2.773e-08
-7.32718e-08
-3.04227e-08
-6.97724e-08
-3.3101e-08
-6.59523e-08
-3.57524e-08
-6.18158e-08
-3.83644e-08
-5.7369e-08
-4.09253e-08
-5.26192e-08
-4.34235e-08
-4.75752e-08
-4.58483e-08
-4.22471e-08
-4.81896e-08
-3.66464e-08
-5.04383e-08
-3.07859e-08
-5.25855e-08
-2.46793e-08
-5.46233e-08
-1.83417e-08
-5.6544e-08
-1.17893e-08
-5.83401e-08
-5.03948e-09
-6.00037e-08
1.88906e-09
-6.15259e-08
8.97639e-09
-6.28963e-08
1.6201e-08
-6.41032e-08
2.35405e-08
-6.51352e-08
3.09711e-08
-6.59778e-08
3.84673e-08
-6.66135e-08
4.60014e-08
-6.70184e-08
5.3542e-08
-6.71583e-08
6.1052e-08
-6.69861e-08
6.84859e-08
-6.64408e-08
7.57876e-08
-6.54489e-08
8.2886e-08
-6.39309e-08
8.96964e-08
-6.18111e-08
9.61228e-08
-5.90384e-08
1.02065e-07
-5.55936e-08
1.07432e-07
-5.15273e-08
1.12158e-07
-4.69133e-08
1.16195e-07
-4.18652e-08
1.19528e-07
-3.65031e-08
1.22169e-07
-3.09564e-08
1.24173e-07
-2.53819e-08
1.25678e-07
-1.99649e-08
1.26901e-07
-1.48396e-08
1.28111e-07
-9.90636e-09
1.29423e-07
-4.40472e-09
1.30271e-07
3.57856e-09
1.29243e-07
1.60625e-08
3.17278e-08
1.25309e-07
-2.72032e-09
2.43879e-08
-5.64037e-09
2.6501e-08
-8.52559e-09
2.62852e-08
-1.13125e-08
2.55486e-08
-1.3975e-08
2.46002e-08
-1.65009e-08
2.35265e-08
-1.88828e-08
2.23832e-08
-2.1123e-08
2.12285e-08
-2.32294e-08
2.01083e-08
-2.52163e-08
1.90674e-08
-2.71015e-08
1.8141e-08
-2.89056e-08
1.73502e-08
-3.06488e-08
1.67122e-08
-3.23531e-08
1.62307e-08
-3.40391e-08
1.591e-08
-3.57252e-08
1.57344e-08
-3.74276e-08
1.56936e-08
-3.91601e-08
1.57706e-08
-4.09335e-08
1.59457e-08
-4.27559e-08
1.61982e-08
-4.46329e-08
1.65066e-08
-4.65673e-08
1.68499e-08
-4.85596e-08
1.72079e-08
-5.06081e-08
1.75616e-08
-5.27094e-08
1.78931e-08
-5.48583e-08
1.81864e-08
-5.7048e-08
1.84268e-08
-5.92706e-08
1.86009e-08
-6.15168e-08
1.86966e-08
-6.37766e-08
1.87034e-08
-6.60386e-08
1.86115e-08
-6.8291e-08
1.84125e-08
-7.0521e-08
1.8099e-08
-7.27152e-08
1.76648e-08
-7.48599e-08
1.71045e-08
-7.69407e-08
1.64137e-08
-7.89432e-08
1.5589e-08
-8.08523e-08
1.46276e-08
-8.26532e-08
1.35278e-08
-8.43307e-08
1.22882e-08
-8.58695e-08
1.09084e-08
-8.72544e-08
9.38843e-09
-8.84701e-08
7.72905e-09
-8.95013e-08
5.93173e-09
-9.03331e-08
3.99871e-09
-9.09505e-08
1.93316e-09
-9.13392e-08
-2.6068e-10
-9.1485e-08
-2.57767e-09
-9.13745e-08
-5.01178e-09
-9.09951e-08
-7.55528e-09
-9.03348e-08
-1.01995e-08
-8.93831e-08
-1.29347e-08
-8.81303e-08
-1.575e-08
-8.65681e-08
-1.86333e-08
-8.46898e-08
-2.15719e-08
-8.24899e-08
-2.45525e-08
-7.99648e-08
-2.75608e-08
-7.71123e-08
-3.05825e-08
-7.39319e-08
-3.3603e-08
-7.04249e-08
-3.6608e-08
-6.65941e-08
-3.95832e-08
-6.24441e-08
-4.25145e-08
-5.79808e-08
-4.53885e-08
-5.32119e-08
-4.81924e-08
-4.81463e-08
-5.09139e-08
-4.27944e-08
-5.35415e-08
-3.71679e-08
-5.60648e-08
-3.12795e-08
-5.84739e-08
-2.51434e-08
-6.07594e-08
-1.87745e-08
-6.29129e-08
-1.2189e-08
-6.49256e-08
-5.40424e-09
-6.67885e-08
1.56157e-09
-6.84917e-08
8.68901e-09
-7.00237e-08
1.5957e-08
-7.13712e-08
2.33444e-08
-7.25226e-08
3.08285e-08
-7.34618e-08
3.83851e-08
-7.41701e-08
4.59883e-08
-7.46216e-08
5.36089e-08
-7.47789e-08
6.12124e-08
-7.45896e-08
6.87561e-08
-7.39845e-08
7.61857e-08
-7.28786e-08
8.34295e-08
-7.11747e-08
9.03986e-08
-6.87802e-08
9.69851e-08
-6.56249e-08
1.03084e-07
-6.16926e-08
1.08588e-07
-5.70315e-08
1.13423e-07
-5.1748e-08
1.1754e-07
-4.59819e-08
1.20918e-07
-3.98811e-08
1.23567e-07
-3.36057e-08
1.25539e-07
-2.73536e-08
1.26975e-07
-2.14012e-08
1.28174e-07
-1.60387e-08
1.29587e-07
-1.13189e-08
1.31546e-07
-6.36452e-09
1.33394e-07
1.7306e-09
1.33011e-07
1.64459e-08
3.58949e-08
1.28844e-07
-2.79504e-09
2.71829e-08
-5.77732e-09
2.94833e-08
-8.71677e-09
2.92247e-08
-1.15469e-08
2.83787e-08
-1.42417e-08
2.7295e-08
-1.67842e-08
2.6069e-08
-1.91697e-08
2.47687e-08
-2.14013e-08
2.34601e-08
-2.34878e-08
2.21947e-08
-2.54477e-08
2.10273e-08
-2.72987e-08
1.9992e-08
-2.90651e-08
1.91166e-08
-3.0769e-08
1.84161e-08
-3.24357e-08
1.78974e-08
-3.40838e-08
1.75581e-08
-3.57364e-08
1.73869e-08
-3.74094e-08
1.73666e-08
-3.91172e-08
1.74784e-08
-4.08712e-08
1.76997e-08
-4.26796e-08
1.80066e-08
-4.45478e-08
1.83748e-08
-4.64784e-08
1.87806e-08
-4.84717e-08
1.92012e-08
-5.05257e-08
1.96155e-08
-5.26364e-08
2.00039e-08
-5.47984e-08
2.03484e-08
-5.70046e-08
2.0633e-08
-5.92467e-08
2.0843e-08
-6.15152e-08
2.09651e-08
-6.37995e-08
2.09877e-08
-6.60883e-08
2.09002e-08
-6.83692e-08
2.06934e-08
-7.06293e-08
2.03591e-08
-7.2855e-08
1.98905e-08
-7.50322e-08
1.92817e-08
-7.71464e-08
1.8528e-08
-7.9183e-08
1.76255e-08
-8.11267e-08
1.65714e-08
-8.29625e-08
1.53636e-08
-8.46749e-08
1.40007e-08
-8.62487e-08
1.24822e-08
-8.76684e-08
1.08081e-08
-8.89185e-08
8.97912e-09
-8.99835e-08
6.9968e-09
-9.08483e-08
4.86351e-09
-9.14978e-08
2.5826e-09
-9.1917e-08
1.58597e-10
-9.2092e-08
-2.40273e-09
-9.20087e-08
-5.09506e-09
-9.16542e-08
-7.90971e-09
-9.10165e-08
-1.08372e-08
-9.00846e-08
-1.38667e-08
-8.88486e-08
-1.6986e-08
-8.73e-08
-2.01819e-08
-8.54318e-08
-2.34401e-08
-8.32386e-08
-2.67457e-08
-8.07166e-08
-3.00828e-08
-7.78636e-08
-3.34355e-08
-7.46791e-08
-3.67875e-08
-7.11645e-08
-4.01227e-08
-6.73225e-08
-4.34251e-08
-6.3158e-08
-4.6679e-08
-5.86771e-08
-4.98694e-08
-5.38876e-08
-5.2982e-08
-4.87985e-08
-5.60029e-08
-4.34205e-08
-5.89195e-08
-3.77654e-08
-6.17199e-08
-3.18462e-08
-6.4393e-08
-2.56771e-08
-6.69286e-08
-1.9273e-08
-6.93169e-08
-1.26501e-08
-7.15484e-08
-5.82554e-09
-7.36131e-08
1.18284e-09
-7.55001e-08
8.35646e-09
-7.71974e-08
1.56741e-08
-7.86889e-08
2.31164e-08
-7.99649e-08
3.06613e-08
-8.10068e-08
3.82864e-08
-8.17952e-08
4.59676e-08
-8.23028e-08
5.36781e-08
-8.24894e-08
6.13867e-08
-8.22982e-08
6.90545e-08
-8.16522e-08
7.66295e-08
-8.04536e-08
8.40413e-08
-7.85865e-08
9.11952e-08
-7.59341e-08
9.79743e-08
-7.2404e-08
1.0425e-07
-6.79686e-08
1.0991e-07
-6.26915e-08
1.14869e-07
-5.67064e-08
1.19073e-07
-5.01857e-08
1.22495e-07
-4.33033e-08
1.25134e-07
-3.62449e-08
1.27031e-07
-2.92509e-08
1.28324e-07
-2.26938e-08
1.29398e-07
-1.71132e-08
1.3097e-07
-1.28909e-08
1.33763e-07
-9.15684e-09
1.37049e-07
-1.55619e-09
1.37627e-07
1.58686e-08
4.04608e-08
1.33061e-07
-2.88087e-09
3.00638e-08
-5.93407e-09
3.25365e-08
-8.93598e-09
3.22266e-08
-1.18162e-08
3.12589e-08
-1.45448e-08
3.00237e-08
-1.71063e-08
2.86305e-08
-1.94948e-08
2.71573e-08
-2.17154e-08
2.56806e-08
-2.37791e-08
2.42584e-08
-2.57052e-08
2.29535e-08
-2.75173e-08
2.18041e-08
-2.92401e-08
2.08394e-08
-3.08995e-08
2.00755e-08
-3.25211e-08
1.9519e-08
-3.41279e-08
1.91649e-08
-3.57426e-08
1.90016e-08
-3.73825e-08
1.90066e-08
-3.9063e-08
1.91588e-08
-4.07955e-08
1.94322e-08
-4.25885e-08
1.97996e-08
-4.44472e-08
2.02335e-08
-4.6374e-08
2.07074e-08
-4.83687e-08
2.1196e-08
-5.04291e-08
2.16759e-08
-5.25507e-08
2.21255e-08
-5.47276e-08
2.25254e-08
-5.69524e-08
2.28578e-08
-5.92164e-08
2.31069e-08
-6.15097e-08
2.32584e-08
-6.38215e-08
2.32995e-08
-6.614e-08
2.32187e-08
-6.84527e-08
2.30061e-08
-7.07463e-08
2.26528e-08
-7.3007e-08
2.21512e-08
-7.52204e-08
2.14951e-08
-7.73718e-08
2.06794e-08
-7.94462e-08
1.96999e-08
-8.14283e-08
1.85535e-08
-8.33027e-08
1.7238e-08
-8.50541e-08
1.57521e-08
-8.66668e-08
1.40949e-08
-8.81251e-08
1.22664e-08
-8.94134e-08
1.02675e-08
-9.05162e-08
8.09955e-09
-9.14178e-08
5.76513e-09
-9.21029e-08
3.26774e-09
-9.25565e-08
6.12138e-10
-9.2764e-08
-2.19518e-09
-9.27112e-08
-5.14789e-09
-9.23848e-08
-8.2361e-09
-9.17725e-08
-1.14496e-08
-9.08628e-08
-1.47764e-08
-8.96457e-08
-1.82031e-08
-8.81125e-08
-2.17151e-08
-8.62559e-08
-2.52967e-08
-8.40705e-08
-2.89311e-08
-8.15521e-08
-3.26011e-08
-7.86988e-08
-3.62889e-08
-7.55099e-08
-3.99764e-08
-7.19868e-08
-4.36458e-08
-6.81326e-08
-4.72792e-08
-6.39521e-08
-5.08595e-08
-5.94516e-08
-5.437e-08
-5.46389e-08
-5.77946e-08
-4.95236e-08