/*--------------------------------*- C++ -*----------------------------------*\
| =========                 |                                                 |
| \\      /  F ield         | OpenFOAM: The Open Source CFD Toolbox           |
|  \\    /   O peration     | Version:  2.4.0                                 |
|   \\  /    A nd           | Web:      www.OpenFOAM.org                      |
|    \\/     M anipulation  |                                                 |
\*---------------------------------------------------------------------------*/
FoamFile
{
    version     2.0;
    format      ascii;
    class       volVectorField;
    location    "0.132";
    object      U;
}
// * * * * * * * * * * * * * * * * * * * * * * * * * * * * * * * * * * * * * //

dimensions      [0 1 -1 0 0 0 0];

internalField   nonuniform List<vector> 
10000
(
(1.83184e-06 -2.05082e-06 0)
(1.89275e-06 -1.52023e-07 0)
(-5.04181e-06 2.11555e-06 0)
(-1.95568e-05 3.83709e-06 0)
(-4.107e-05 5.08882e-06 0)
(-6.79687e-05 5.87454e-06 0)
(-9.90273e-05 6.27974e-06 0)
(-0.000133075 6.43279e-06 0)
(-0.000169058 6.46806e-06 0)
(-0.000206047 6.49461e-06 0)
(-0.0002432 6.56764e-06 0)
(-0.000279718 6.67244e-06 0)
(-0.000314802 6.73097e-06 0)
(-0.000347633 6.62999e-06 0)
(-0.000377391 6.26141e-06 0)
(-0.000403303 5.56141e-06 0)
(-0.000424702 4.53511e-06 0)
(-0.000441071 3.25848e-06 0)
(-0.000452052 1.85695e-06 0)
(-0.000457423 4.67046e-07 0)
(-0.000457046 -8.06888e-07 0)
(-0.000450866 -1.92589e-06 0)
(-0.000438866 -2.91961e-06 0)
(-0.000421039 -3.85772e-06 0)
(-0.00039745 -4.81271e-06 0)
(-0.000368282 -5.81682e-06 0)
(-0.000333906 -6.83713e-06 0)
(-0.000294956 -7.77799e-06 0)
(-0.000252379 -8.50849e-06 0)
(-0.00020742 -8.90442e-06 0)
(-0.00016153 -8.88971e-06 0)
(-0.000116208 -8.46041e-06 0)
(-7.28496e-05 -7.68168e-06 0)
(-3.26276e-05 -6.66271e-06 0)
(3.53325e-06 -5.51984e-06 0)
(3.49157e-05 -4.3424e-06 0)
(6.09136e-05 -3.17603e-06 0)
(8.09746e-05 -2.01582e-06 0)
(9.45657e-05 -8.31855e-07 0)
(0.000101164 4.19731e-07 0)
(0.000100302 1.76187e-06 0)
(9.15087e-05 3.17644e-06 0)
(7.4584e-05 4.79869e-06 0)
(4.9566e-05 6.47273e-06 0)
(1.66078e-05 8.13302e-06 0)
(-2.37989e-05 9.70827e-06 0)
(-7.08805e-05 1.1112e-05 0)
(-0.000123601 1.22602e-05 0)
(-0.000180722 1.30791e-05 0)
(-0.000240872 1.35173e-05 0)
(1.68506e-06 -3.87046e-06 0)
(-4.48711e-06 7.39625e-06 0)
(-2.62176e-05 2.17075e-05 0)
(-6.588e-05 3.55855e-05 0)
(-0.000122098 4.77343e-05 0)
(-0.000192327 5.74239e-05 0)
(-0.000273799 6.45455e-05 0)
(-0.000363558 6.92957e-05 0)
(-0.000458665 7.19796e-05 0)
(-0.000556298 7.28996e-05 0)
(-0.00065382 7.22791e-05 0)
(-0.000748832 7.02299e-05 0)
(-0.000839214 6.67637e-05 0)
(-0.000923124 6.1842e-05 0)
(-0.000998975 5.54422e-05 0)
(-0.00106539 4.7616e-05 0)
(-0.00112113 3.85182e-05 0)
(-0.00116506 2.83978e-05 0)
(-0.0011961 1.75552e-05 0)
(-0.00121326 6.283e-06 0)
(-0.00121564 -5.19475e-06 0)
(-0.00120254 -1.67735e-05 0)
(-0.00117348 -2.83921e-05 0)
(-0.00112821 -4.00048e-05 0)
(-0.00106684 -5.14883e-05 0)
(-0.000989883 -6.25621e-05 0)
(-0.000898408 -7.27546e-05 0)
(-0.00079417 -8.14378e-05 0)
(-0.0006797 -8.79321e-05 0)
(-0.000558276 -9.16585e-05 0)
(-0.000433725 -9.22903e-05 0)
(-0.000310083 -8.98383e-05 0)
(-0.000191195 -8.46255e-05 0)
(-8.04041e-05 -7.71688e-05 0)
(1.95804e-05 -6.8018e-05 0)
(0.000106655 -5.76173e-05 0)
(0.000179183 -4.62416e-05 0)
(0.000235812 -3.40002e-05 0)
(0.000275336 -2.09121e-05 0)
(0.000296636 -6.97179e-06 0)
(0.000298678 7.76522e-06 0)
(0.000280682 2.31389e-05 0)
(0.000242051 3.89847e-05 0)
(0.000182554 5.48296e-05 0)
(0.000102589 7.01849e-05 0)
(3.08616e-06 8.45177e-05 0)
(-0.000114393 9.72747e-05 0)
(-0.000247648 0.000107927 0)
(-0.000393889 0.000116021 0)
(-0.000549813 0.000121225 0)
(2.59137e-07 -6.42223e-08 0)
(-1.73137e-05 3.00186e-05 0)
(-5.9008e-05 6.39276e-05 0)
(-0.00012525 9.74459e-05 0)
(-0.000213855 0.000127414 0)
(-0.00032173 0.000152091 0)
(-0.000445247 0.000170997 0)
(-0.00058044 0.000184249 0)
(-0.000723277 0.000192195 0)
(-0.000869802 0.000195225 0)
(-0.00101625 0.000193665 0)
(-0.00115912 0.00018776 0)
(-0.00129524 0.000177695 0)
(-0.00142178 0.000163661 0)
(-0.00153623 0.000145919 0)
(-0.00163637 0.000124841 0)
(-0.00172023 0.000100909 0)
(-0.00178606 7.46692e-05 0)
(-0.00183227 4.66561e-05 0)
(-0.00185747 1.73207e-05 0)
(-0.00186047 -1.30184e-05 0)
(-0.00184032 -4.41691e-05 0)
(-0.00179631 -7.58903e-05 0)
(-0.00172804 -0.000107853 0)
(-0.00163557 -0.000139464 0)
(-0.00151953 -0.000169753 0)
(-0.00138137 -0.000197354 0)
(-0.00122364 -0.000220618 0)
(-0.0010501 -0.000237858 0)
(-0.000865721 -0.000247696 0)
(-0.000676359 -0.000249407 0)
(-0.000488171 -0.000243105 0)
(-0.000306984 -0.000229651 0)
(-0.000137789 -0.000210336 0)
(1.54304e-05 -0.000186489 0)
(0.000149596 -0.000159158 0)
(0.000262277 -0.000128976 0)
(0.000351394 -9.6221e-05 0)
(0.000415012 -6.09799e-05 0)
(0.000451275 -2.33309e-05 0)
(0.000458466 1.6498e-05 0)
(0.00043514 5.80396e-05 0)
(0.000380278 0.000100462 0)
(0.000293507 0.000142769 0)
(0.000175304 0.000183711 0)
(2.70633e-05 0.000221925 0)
(-0.000148841 0.000256031 0)
(-0.000349045 0.000284721 0)
(-0.00056926 0.000306849 0)
(-0.000804399 0.000321526 0)
(-1.59665e-06 1.14476e-05 0)
(-3.16387e-05 6.91991e-05 0)
(-9.42153e-05 0.000129926 0)
(-0.000186992 0.000189119 0)
(-0.000306447 0.00024219 0)
(-0.00044879 0.000286367 0)
(-0.000609705 0.00032063 0)
(-0.000784533 0.000344867 0)
(-0.000968507 0.000359378 0)
(-0.0011569 0.000364626 0)
(-0.00134515 0.000361104 0)
(-0.0015289 0.000349301 0)
(-0.00170412 0.000329724 0)
(-0.00186709 0.000302944 0)
(-0.00201446 0.000269636 0)
(-0.00214323 0.000230578 0)
(-0.00225081 0.000186613 0)
(-0.00233496 0.000138579 0)
(-0.00239376 8.72256e-05 0)
(-0.00242563 3.31606e-05 0)
(-0.00242925 -2.31536e-05 0)
(-0.00240351 -8.13066e-05 0)
(-0.00234751 -0.000140786 0)
(-0.00226065 -0.000200819 0)
(-0.00214274 -0.000260157 0)
(-0.00199425 -0.00031692 0)
(-0.00181674 -0.000368582 0)
(-0.00161321 -0.00041215 0)
(-0.00138844 -0.000444576 0)
(-0.00114896 -0.000463364 0)
(-0.000902612 -0.000467201 0)
(-0.000657661 -0.000456303 0)
(-0.000421786 -0.000432243 0)
(-0.000201381 -0.000397337 0)
(-1.35085e-06 -0.000353919 0)
(0.000174606 -0.000303788 0)
(0.000323526 -0.000248006 0)
(0.000442731 -0.000187055 0)
(0.000529569 -0.000121143 0)
(0.000581377 -5.05246e-05 0)
(0.000595616 2.42479e-05 0)
(0.000570086 0.000102161 0)
(0.000503224 0.000181703 0)
(0.000394366 0.000260946 0)
(0.000243988 0.00033761 0)
(5.38426e-05 0.000409217 0)
(-0.000172977 0.000473268 0)
(-0.000432041 0.000527391 0)
(-0.000717676 0.000569485 0)
(-0.00102314 0.000597857 0)
(-3.40147e-06 3.03107e-05 0)
(-4.52655e-05 0.000125011 0)
(-0.000127988 0.000219305 0)
(-0.000246214 0.000309161 0)
(-0.000394839 0.000389232 0)
(-0.000569221 0.000455958 0)
(-0.000764367 0.000507816 0)
(-0.000975029 0.000544429 0)
(-0.00119585 0.000566035 0)
(-0.00142149 0.000573192 0)
(-0.00164672 0.000566632 0)
(-0.00186647 0.000547185 0)
(-0.00207596 0.000515774 0)
(-0.00227074 0.000473422 0)
(-0.00244676 0.000421244 0)
(-0.00260042 0.000360418 0)
(-0.00272867 0.000292129 0)
(-0.00282892 0.000217498 0)
(-0.00289907 0.000137527 0)
(-0.0029374 5.30737e-05 0)
(-0.0029425 -3.51226e-05 0)
(-0.00291309 -0.000126335 0)
(-0.00284807 -0.000219715 0)
(-0.00274649 -0.000314029 0)
(-0.00260774 -0.000407375 0)
(-0.00243187 -0.000496932 0)
(-0.0022202 -0.00057886 0)
(-0.0019759 -0.000648479 0)
(-0.00170454 -0.000700866 0)
(-0.00141424 -0.000731835 0)
(-0.00111505 -0.00073908 0)
(-0.000817579 -0.000722877 0)
(-0.00053147 -0.000685783 0)
(-0.000264362 -0.00063159 0)
(-2.17372e-05 -0.000564052 0)
(0.000192476 -0.000485958 0)
(0.00037506 -0.00039887 0)
(0.000522865 -0.000303448 0)
(0.000632505 -0.000199966 0)
(0.00070041 -8.88177e-05 0)
(0.000723074 2.91065e-05 0)
(0.000697407 0.000152201 0)
(0.000621154 0.000278096 0)
(0.000493231 0.000403741 0)
(0.000314013 0.000525558 0)
(8.55259e-05 0.000639648 0)
(-0.000188489 0.000742042 0)
(-0.000502601 0.000828958 0)
(-0.000849816 0.00089701 0)
(-0.00122178 0.000943407 0)
(-5.08207e-06 5.61642e-05 0)
(-5.76323e-05 0.000196481 0)
(-0.000158975 0.00033076 0)
(-0.000301001 0.000455882 0)
(-0.000477009 0.00056628 0)
(-0.000681409 0.000657944 0)
(-0.000908491 0.000729001 0)
(-0.00115242 0.000778889 0)
(-0.00140727 0.00080783 0)
(-0.00166716 0.000816534 0)
(-0.00192622 0.000806015 0)
(-0.00217878 0.00077749 0)
(-0.00241941 0.00073232 0)
(-0.00264303 0.000671978 0)
(-0.00284506 0.000598004 0)
(-0.00302146 0.000511968 0)
(-0.00316883 0.000415422 0)
(-0.00328434 0.000309854 0)
(-0.00336576 0.00019665 0)
(-0.00341127 7.70688e-05 0)
(-0.00341934 -4.77689e-05 0)
(-0.00338864 -0.000176824 0)
(-0.0033178 -0.00030899 0)
(-0.00320548 -0.000442775 0)
(-0.00305043 -0.000575852 0)
(-0.00285194 -0.000704564 0)
(-0.00261059 -0.000823587 0)
(-0.00232923 -0.000926018 0)
(-0.00201393 -0.00100417 0)
(-0.00167448 -0.00105115 0)
(-0.00132369 -0.00106299 0)
(-0.000975199 -0.00104009 0)
(-0.000640976 -0.000986639 0)
(-0.000329836 -0.000908826 0)
(-4.73899e-05 -0.000812574 0)
(0.000202754 -0.000701977 0)
(0.000417516 -0.000579022 0)
(0.000593423 -0.000444276 0)
(0.00072632 -0.000297766 0)
(0.000811578 -0.000139773 0)
(0.000844527 2.86085e-05 0)
(0.000820976 0.000205171 0)
(0.000737769 0.000386521 0)
(0.00059323 0.000568218 0)
(0.000387506 0.000745 0)
(0.000122793 0.000911113 0)
(-0.000196578 0.00106066 0)
(-0.000564176 0.00118801 0)
(-0.000971653 0.00128812 0)
(-0.00140899 0.00135682 0)
(-6.61128e-06 8.81041e-05 0)
(-6.87465e-05 0.000282085 0)
(-0.000187027 0.000462592 0)
(-0.000351167 0.000627531 0)
(-0.000552983 0.000771468 0)
(-0.000785888 0.000890266 0)
(-0.00104341 0.000981917 0)
(-0.00131906 0.00104582 0)
(-0.00160636 0.00108228 0)
(-0.00189881 0.00109223 0)
(-0.00219 0.00107701 0)
(-0.00247367 0.00103824 0)
(-0.00274384 0.000977681 0)
(-0.00299495 0.000897217 0)
(-0.00322198 0.000798779 0)
(-0.00342055 0.000684342 0)
(-0.00358695 0.00055591 0)
(-0.00371815 0.000415501 0)
(-0.00381175 0.000265084 0)
(-0.00386585 0.000106487 0)
(-0.00387896 -5.8728e-05 0)
(-0.00384974 -0.000229309 0)
(-0.00377673 -0.00040418 0)
(-0.00365816 -0.000582023 0)
(-0.00349194 -0.000760515 0)
(-0.00327603 -0.00093539 0)
(-0.00300951 -0.00109963 0)
(-0.00269403 -0.00124329 0)
(-0.00233564 -0.0013545 0)
(-0.00194605 -0.00142203 0)
(-0.0015419 -0.00143927 0)
(-0.00114121 -0.00140705 0)
(-0.000759045 -0.00133259 0)
(-0.000405266 -0.00122608 0)
(-8.48146e-05 -0.00109673 0)
(0.00019997 -0.000950153 0)
(0.00044674 -0.00078827 0)
(0.000651853 -0.000610856 0)
(0.000810257 -0.00041705 0)
(0.000915973 -0.000206598 0)
(0.00096281 1.93683e-05 0)
(0.000945131 0.000257949 0)
(0.000858557 0.000504436 0)
(0.000700566 0.000752546 0)
(0.000470898 0.00099481 0)
(0.000171832 0.00122306 0)
(-0.000191715 0.00142896 0)
(-0.00061223 0.00160457 0)
(-0.00107987 0.00174282 0)
(-0.00158277 0.0018379 0)
(-7.96069e-06 0.000125338 0)
(-7.87794e-05 0.000380521 0)
(-0.000212524 0.000613284 0)
(-0.000397379 0.00082254 0)
(-0.000623829 0.00100322 0)
(-0.00088426 0.00115135 0)
(-0.0011714 0.00126502 0)
(-0.00147808 0.00134377 0)
(-0.00179717 0.00138811 0)
(-0.00212158 0.00139926 0)
(-0.00244433 0.0013789 0)
(-0.00275868 0.001329 0)
(-0.00305819 0.00125167 0)
(-0.0033369 0.00114911 0)
(-0.0035894 0.00102365 0)
(-0.00381095 0.00087774 0)
(-0.00399749 0.000714004 0)
(-0.00414568 0.000535224 0)
(-0.00425296 0.000344191 0)
(-0.00431744 0.000143461 0)
(-0.00433784 -6.49508e-05 0)
(-0.00431313 -0.000279791 0)
(-0.00424201 -0.000500468 0)
(-0.00412238 -0.000726475 0)
(-0.00395099 -0.000956156 0)
(-0.00372372 -0.00118505 0)
(-0.00343694 -0.00140426 0)
(-0.00308976 -0.00159979 0)
(-0.00268724 -0.00175351 0)
(-0.00224341 -0.00184721 0)
(-0.00178088 -0.0018701 0)
(-0.00132438 -0.00182436 0)
(-0.000893189 -0.00172263 0)
(-0.000497761 -0.00158169 0)
(-0.000140775 -0.00141555 0)
(0.000178344 -0.00123112 0)
(0.000458761 -0.001029 0)
(0.000696614 -0.000806953 0)
(0.000885518 -0.00056233 0)
(0.00101754 -0.000293919 0)
(0.00108437 -2.86416e-06 0)
(0.0010784 0.000306944 0)
(0.000993585 0.000628992 0)
(0.000826285 0.000954577 0)
(0.00057569 0.00127341 0)
(0.000244145 0.00157436 0)
(-0.000162751 0.00184613 0)
(-0.000636223 0.00207804 0)
(-0.00116468 0.00226062 0)
(-0.00173414 0.0023862 0)
(-9.08177e-06 0.000167231 0)
(-8.79026e-05 0.000490881 0)
(-0.000236019 0.000781723 0)
(-0.000440615 0.00103973 0)
(-0.000690967 0.00126042 0)
(-0.000978424 0.00144021 0)
(-0.0012949 0.00157753 0)
(-0.00163249 0.00167222 0)
(-0.0019834 0.00172513 0)
(-0.00233996 0.0017378 0)
(-0.00269469 0.00171219 0)
(-0.0030404 0.00165054 0)
(-0.00337028 0.00155521 0)
(-0.00367798 0.00142868 0)
(-0.00395766 0.00127369 0)
(-0.00420408 0.0010933 0)
(-0.00441265 0.000891005 0)
(-0.00457965 0.000670593 0)
(-0.0047023 0.000435929 0)
(-0.00477891 0.000190468 0)
(-0.00480872 -6.33068e-05 0)
(-0.00479149 -0.000324351 0)
(-0.00472651 -0.000593079 0)
(-0.00461157 -0.000870628 0)
(-0.00444196 -0.001157 0)
(-0.00421054 -0.00144837 0)
(-0.0039093 -0.00173417 0)
(-0.00353275 -0.00199523 0)
(-0.00308327 -0.00220437 0)
(-0.00257774 -0.00233194 0)
(-0.00204839 -0.00236017 0)
(-0.00153058 -0.0022945 0)
(-0.00104913 -0.00215699 0)
(-0.000613776 -0.00197513 0)
(-0.000221909 -0.00176959 0)
(0.000132553 -0.00154758 0)
(0.000450961 -0.00130591 0)
(0.000728536 -0.00103851 0)
(0.000956494 -0.000740021 0)
(0.00112391 -0.000408023 0)
(0.0012195 -4.39041e-05 0)
(0.00123304 0.000346975 0)
(0.00115644 0.000755702 0)
(0.000984723 0.00117055 0)
(0.000716491 0.00157783 0)
(0.000354252 0.00196286 0)
(-9.55445e-05 0.00231089 0)
(-0.00062262 0.00260795 0)
(-0.0012133 0.00284176 0)
(-0.00185118 0.00300241 0)
(-9.92711e-06 0.000213303 0)
(-9.62678e-05 0.000612664 0)
(-0.00025809 0.000967243 0)
(-0.000481887 0.00127839 0)
(-0.0007558 0.00154243 0)
(-0.00107014 0.00175641 0)
(-0.00141602 0.00191931 0)
(-0.0017848 0.00203143 0)
(-0.00216805 0.00209401 0)
(-0.00255757 0.00210889 0)
(-0.00294547 0.00207826 0)
(-0.0033242 0.00200448 0)
(-0.00368656 0.00189005 0)
(-0.00402574 0.00173776 0)
(-0.00433528 0.00155082 0)
(-0.00460924 0.00133305 0)
(-0.0048423 0.00108899 0)
(-0.00503015 0.000823702 0)
(-0.00516983 0.000542385 0)
(-0.00525999 0.000249657 0)
(-0.00530081 -5.13416e-05 0)
(-0.00529343 -0.000359803 0)
(-0.00523845 -0.000677614 0)
(-0.00513403 -0.00100861 0)
(-0.00497397 -0.00135602 0)
(-0.00474709 -0.0017183 0)
(-0.00443904 -0.00208424 0)
(-0.00403669 -0.00242897 0)
(-0.00353637 -0.00271237 0)
(-0.00295801 -0.00288523 0)
(-0.0023499 -0.00291736 0)
(-0.00176432 -0.00282154 0)
(-0.00123276 -0.00263604 0)
(-0.000761238 -0.00240548 0)
(-0.000336594 -0.00215986 0)
(5.65092e-05 -0.00190393 0)
(0.000421426 -0.00162612 0)
(0.000750339 -0.00131428 0)
(0.00103013 -0.000959472 0)
(0.00124545 -0.000558208 0)
(0.00138111 -0.000112557 0)
(0.00142372 0.000370075 0)
(0.0013629 0.000877763 0)
(0.00119226 0.00139512 0)
(0.000909868 0.00190442 0)
(0.000518523 0.00238674 0)
(2.57165e-05 0.00282315 0)
(-0.000556504 0.00319575 0)
(-0.00121198 0.00348875 0)
(-0.00192142 0.0036896 0)
(-1.0487e-05 0.000263232 0)
(-0.000104043 0.000745666 0)
(-0.000279292 0.00116953 0)
(-0.000522101 0.00153816 0)
(-0.00081949 0.00184903 0)
(-0.00116077 0.00210002 0)
(-0.00153631 0.0022908 0)
(-0.00193678 0.00242226 0)
(-0.00235322 0.00249604 0)
(-0.00277702 0.00251421 0)
(-0.00319996 0.00247906 0)
(-0.00361415 0.002393 0)
(-0.00401197 0.00225864 0)
(-0.00438597 0.00207901 0)
(-0.00472885 0.00185786 0)
(-0.00503367 0.00159985 0)
(-0.00529413 0.00131067 0)
(-0.00550514 0.000996856 0)
(-0.00566341 0.000665269 0)
(-0.005768 0.000322197 0)
(-0.00582037 -2.79752e-05 0)
(-0.00582378 -0.000384282 0)
(-0.00578125 -0.00075034 0)
(-0.0056924 -0.00113404 0)
(-0.00555002 -0.00154425 0)
(-0.00533837 -0.00198476 0)
(-0.00503467 -0.00244637 0)
(-0.00461385 -0.00289928 0)
(-0.0040594 -0.00328563 0)
(-0.00339305 -0.00352113 0)
(-0.00269075 -0.00355234 0)
(-0.00203185 -0.00340931 0)
(-0.00145405 -0.00315765 0)
(-0.000953756 -0.00286934 0)
(-0.000498484 -0.00258727 0)
(-5.90041e-05 -0.0023074 0)
(0.00036743 -0.00200114 0)
(0.000765446 -0.00164792 0)
(0.00111479 -0.00123493 0)
(0.00139417 -0.000758253 0)
(0.00158382 -0.000221339 0)
(0.00166691 0.000365657 0)
(0.00163065 0.000987039 0)
(0.00146722 0.00162293 0)
(0.00117422 0.00225063 0)
(0.000754872 0.00284605 0)
(0.000217923 0.00338516 0)
(-0.00042251 0.00384527 0)
(-0.00114724 0.00420641 0)
(-0.00193341 0.00445284 0)
(-1.08185e-05 0.000316864 0)
(-0.000111443 0.000889828 0)
(-0.000300118 0.00138845 0)
(-0.000561948 0.00181894 0)
(-0.000882818 0.00218031 0)
(-0.00125114 0.00247144 0)
(-0.00165662 0.00269281 0)
(-0.00208938 0.00284594 0)
(-0.00254008 0.00293282 0)
(-0.00299983 0.00295571 0)
(-0.00346018 0.0029169 0)
(-0.0039129 0.00281878 0)
(-0.00434979 0.00266402 0)
(-0.0047626 0.00245588 0)
(-0.00514297 0.00219855 0)
(-0.00548269 0.00189743 0)
(-0.00577416 0.00155932 0)
(-0.00601116 0.00119237 0)
(-0.00618967 0.000805585 0)
(-0.00630888 0.000407823 0)
(-0.00637166 5.92738e-06 0)
(-0.00638424 -0.000397876 0)
(-0.00635374 -0.000808761 0)
(-0.00628334 -0.00124037 0)
(-0.00616637 -0.0017108 0)
(-0.00598284 -0.00223397 0)
(-0.00570021 -0.00280767 0)
(-0.00527609 -0.00340131 0)
(-0.00466796 -0.00393508 0)
(-0.00389385 -0.00425944 0)
(-0.00307956 -0.00427601 0)
(-0.00234726 -0.00405792 0)
(-0.00173467 -0.00371387 0)
(-0.00121795 -0.00335918 0)
(-0.000731619 -0.00305453 0)
(-0.00022889 -0.00277227 0)
(0.000284352 -0.00245067 0)
(0.000777444 -0.00206074 0)
(0.00121989 -0.00158682 0)
(0.00158354 -0.00102641 0)
(0.00184404 -0.000385449 0)
(0.00198105 0.000322121 0)
(0.00197934 0.00107571 0)
(0.0018297 0.00184979 0)
(0.0015293 0.00261551 0)
(0.00108197 0.00334252 0)
(0.00049804 0.00400071 0)
(-0.000205851 0.0045618 0)
(-0.00100684 0.00500091 0)
(-0.00187766 0.00529848 0)
(-1.10487e-05 0.000374206 0)
(-0.000118719 0.00104508 0)
(-0.00032094 0.00162389 0)
(-0.000601813 0.00212071 0)
(-0.000946087 0.00253648 0)
(-0.00134144 0.0028712 0)
(-0.00177705 0.00312625 0)
(-0.0022427 0.00330375 0)
(-0.00272883 0.00340603 0)
(-0.00322643 0.00343544 0)
(-0.00372684 0.00339428 0)
(-0.00422144 0.0032849 0)
(-0.0047014 0.00310994 0)
(-0.00515753 0.00287272 0)
(-0.00558025 0.00257761 0)
(-0.00595988 0.00223043 0)
(-0.00628715 0.00183885 0)
(-0.00655404 0.00141269 0)
(-0.00675498 0.000963729 0)
(-0.00688842 0.000504744 0)
(-0.00695828 4.70912e-05 0)
(-0.00697451 -0.000403568 0)
(-0.00695098 -0.000852943 0)
(-0.00689789 -0.00132243 0)
(-0.00681195 -0.00184411 0)
(-0.00667041 -0.00244848 0)
(-0.00643192 -0.00314772 0)
(-0.00603266 -0.00392175 0)
(-0.00538075 -0.00467281 0)
(-0.00447506 -0.00512657 0)
(-0.00353456 -0.00509294 0)
(-0.0027461 -0.00475876 0)
(-0.00212345 -0.00428652 0)
(-0.00160513 -0.0038638 0)
(-0.00107497 -0.00357357 0)
(-0.000472877 -0.00332738 0)
(0.000167905 -0.00300701 0)
(0.000791734 -0.0025829 0)
(0.00135685 -0.00204097 0)
(0.00182897 -0.00138373 0)
(0.00217985 -0.000621028 0)
(0.00238589 0.000228047 0)
(0.00242948 0.00113657 0)
(0.00230008 0.00207211 0)
(0.00199462 0.00299859 0)
(0.00151782 0.00387835 0)
(0.000882069 0.00467431 0)
(0.000107052 0.00535177 0)
(-0.000780043 0.00588009 0)
(-0.00174643 0.00623509 0)
(-1.13442e-05 0.000435396 0)
(-0.000126103 0.00121121 0)
(-0.000341935 0.00187562 0)
(-0.000641703 0.00244339 0)
(-0.00100908 0.00291769 0)
(-0.00143124 0.00329977 0)
(-0.001897 0.00359191 0)
(-0.00239603 0.00379681 0)
(-0.00291871 0.00391714 0)
(-0.00345601 0.00395538 0)
(-0.00399907 0.00391383 0)
(-0.00453891 0.00379479 0)
(-0.00506606 0.00360074 0)
(-0.00557041 0.00333474 0)
(-0.00604121 0.00300081 0)
(-0.00646714 0.00260463 0)
(-0.00683678 0.00215427 0)
(-0.00713938 0.00166109 0)
(-0.00736637 0.00114022 0)
(-0.00751374 0.000610058 0)
(-0.00758511 8.94519e-05 0)
(-0.00759468 -0.000408676 0)
(-0.00756662 -0.000887838 0)
(-0.00752335 -0.00137935 0)
(-0.00746866 -0.00193513 0)
(-0.00737883 -0.00260947 0)
(-0.00720887 -0.00343603 0)
(-0.00687752 -0.00442844 0)
(-0.00621053 -0.00550738 0)
(-0.00515382 -0.00616192 0)
(-0.00409673 -0.00597766 0)
(-0.00331402 -0.00548453 0)
(-0.0027252 -0.00484106 0)
(-0.00220529 -0.00437933 0)
(-0.00157855 -0.00418698 0)
(-0.000804259 -0.00402648 0)
(2.26559e-05 -0.00371663 0)
(0.000820109 -0.00325114 0)
(0.00154049 -0.00262594 0)
(0.00214715 -0.00185227 0)
(0.00260925 -0.000944661 0)
(0.00289997 7.1432e-05 0)
(0.00299961 0.0011616 0)
(0.00289655 0.00228551 0)
(0.00258764 0.003399 0)
(0.00207876 0.00445626 0)
(0.00138471 0.00541214 0)
(0.000528656 0.00622438 0)
(-0.000457293 0.0068554 0)
(-0.00153367 0.00727528 0)
(-1.18567e-05 0.000500627 0)
(-0.000133721 0.00138785 0)
(-0.000363014 0.00214323 0)
(-0.000681216 0.0027867 0)
(-0.00107108 0.00332388 0)
(-0.0015195 0.0037573 0)
(-0.0020152 0.00409018 0)
(-0.00254784 0.00432582 0)
(-0.00310793 0.00446728 0)
(-0.00368641 0.00451725 0)
(-0.00427432 0.00447814 0)
(-0.00486237 0.00435211 0)
(-0.00544065 0.00414125 0)
(-0.00599842 0.00384786 0)
(-0.0065239 0.00347498 0)
(-0.00700417 0.00302732 0)
(-0.00742518 0.00251253 0)
(-0.00777232 0.00194296 0)
(-0.00803198 0.00133723 0)
(-0.00819483 0.000720877 0)
(-0.00826131 0.000124091 0)
(-0.00824899 -0.000426552 0)
(-0.00819725 -0.000926137 0)
(-0.00814799 -0.00141861 0)
(-0.00811488 -0.00198373 0)
(-0.00807063 -0.00270658 0)
(-0.00797627 -0.00363828 0)
(-0.00775755 -0.00485912 0)
(-0.00713331 -0.00642467 0)
(-0.00592911 -0.00742102 0)
(-0.00483983 -0.00680072 0)
(-0.00422692 -0.00616923 0)
(-0.00373578 -0.00533122 0)
(-0.00314162 -0.00497147 0)
(-0.00226158 -0.00501025 0)
(-0.00119703 -0.00495057 0)
(-0.000124832 -0.00463189 0)
(0.000883003 -0.00410265 0)
(0.00178764 -0.00336962 0)
(0.00255283 -0.00245403 0)
(0.00314582 -0.0013739 0)
(0.00353656 -0.000161296 0)
(0.00370318 0.00114131 0)
(0.00363296 0.00248488 0)
(0.00332268 0.00381639 0)
(0.00277908 0.00508087 0)
(0.00201929 0.00622358 0)
(0.0010702 0.00719294 0)
(-3.05753e-05 0.00794281 0)
(-0.00123551 0.00843609 0)
(-1.26658e-05 0.000570049 0)
(-0.000141526 0.00157445 0)
(-0.000383791 0.00242607 0)
(-0.000719562 0.00315007 0)
(-0.00113091 0.00375455 0)
(-0.00160474 0.00424342 0)
(-0.00212977 0.00462085 0)
(-0.00269585 0.00489086 0)
(-0.0032936 0.005057 0)
(-0.00391403 0.00512237 0)
(-0.00454815 0.0050895 0)
(-0.00518661 0.00496036 0)
(-0.00581946 0.00473631 0)
(-0.00643577 0.00441841 0)
(-0.00702319 0.00400796 0)
(-0.0075674 0.0035077 0)
(-0.00805154 0.00292368 0)
(-0.00845621 0.00226781 0)
(-0.00876056 0.00156111 0)
(-0.00894595 0.000836682 0)
(-0.00900397 0.000140267 0)
(-0.00895148 -0.000477525 0)
(-0.00884975 -0.000989951 0)
(-0.00877113 -0.00145909 0)
(-0.00873874 -0.00200656 0)
(-0.00870337 -0.00275784 0)
(-0.00863312 -0.00374581 0)
(-0.00852262 -0.00512488 0)
(-0.0080517 -0.00731811 0)
(-0.00684183 -0.00891991 0)
(-0.00593076 -0.00730202 0)
(-0.00581045 -0.00657495 0)
(-0.00542444 -0.00585242 0)
(-0.00437109 -0.00594455 0)
(-0.00296094 -0.00620312 0)
(-0.00155328 -0.00616797 0)
(-0.000226214 -0.00578987 0)
(0.00100563 -0.00516578 0)
(0.00211161 -0.00429474 0)
(0.0030526 -0.00320946 0)
(0.00379343 -0.00192671 0)
(0.00429933 -0.000484647 0)
(0.00454522 0.0010655 0)
(0.00451668 0.00266517 0)
(0.00420945 0.00425137 0)
(0.00362992 0.00575855 0)
(0.00279672 0.00712046 0)
(0.0017406 0.0082738 0)
(0.000505546 0.00916179 0)
(-0.000851179 0.0097385 0)
(-1.37429e-05 0.00064366 0)
(-0.000149269 0.00177035 0)
(-0.000403605 0.00272329 0)
(-0.000755651 0.00353254 0)
(-0.00118712 0.00420867 0)
(-0.00168504 0.00475708 0)
(-0.00223831 0.00518297 0)
(-0.00283695 0.00549123 0)
(-0.00347172 0.00568615 0)
(-0.00413376 0.00577133 0)
(-0.00481425 0.00574952 0)
(-0.00550417 0.00562234 0)
(-0.006194 0.0053902 0)
(-0.00687323 0.00505248 0)
(-0.0075296 0.00460815 0)
(-0.00814802 0.00405702 0)
(-0.00870939 0.0034018 0)
(-0.00918953 0.00265145 0)
(-0.00955901 0.00182606 0)
(-0.00978531 0.000963801 0)
(-0.00984158 0.000128863 0)
(-0.00973258 -0.000588061 0)
(-0.00955153 -0.00110949 0)
(-0.00942046 -0.00153035 0)
(-0.0093667 -0.00204544 0)
(-0.00927029 -0.00285084 0)
(-0.00903312 -0.00389791 0)
(-0.00870389 -0.00531403 0)
(-0.00843653 -0.00774916 0)
(-0.00835799 -0.00963649 0)
(-0.00820221 -0.00757265 0)
(-0.00810985 -0.00668769 0)
(-0.00716951 -0.00718879 0)
(-0.00518868 -0.00758774 0)
(-0.00336827 -0.00780533 0)
(-0.00173985 -0.00765523 0)
(-0.000223515 -0.00718547 0)
(0.00120859 -0.0064415 0)
(0.00250877 -0.00541153 0)
(0.0036341 -0.00413427 0)
(0.00453856 -0.00261991 0)
(0.00517711 -0.000913304 0)
(0.00551853 0.000923102 0)
(0.00554522 0.00281974 0)
(0.00525007 0.00470257 0)
(0.00463685 0.00649401 0)
(0.00372395 0.00811406 0)
(0.00254578 0.00948462 0)
(0.00115382 0.0105351 0)
(-0.000382711 0.0112083 0)
(-1.49503e-05 0.000721226 0)
(-0.000156527 0.00197477 0)
(-0.000421614 0.00303377 0)
(-0.000788223 0.0039327 0)
(-0.00123801 0.00468459 0)
(-0.0017582 0.00529644 0)
(-0.0023379 0.00577473 0)
(-0.00296729 0.00612539 0)
(-0.00363727 0.00635363 0)
(-0.00433919 0.0064637 0)
(-0.0050647 0.00645855 0)
(-0.00580547 0.00633941 0)
(-0.00655294 0.00610566 0)
(-0.0072976 0.0057549 0)
(-0.00802805 0.00528352 0)
(-0.00872965 0.00468764 0)
(-0.00938271 0.00396489 0)
(-0.00996036 0.00311756 0)
(-0.010426 0.0021587 0)
(-0.0107305 0.00112342 0)
(-0.0108152 9.02202e-05 0)
(-0.0106463 -0.000787042 0)
(-0.0103654 -0.00131326 0)
(-0.0101824 -0.00164888 0)
(-0.0101188 -0.00212708 0)
(-0.00993145 -0.00308953 0)
(-0.00945134 -0.00430622 0)
(-0.0086109 -0.00592473 0)
(-0.0077953 -0.00803637 0)
(-0.00750722 -0.00959197 0)
(-0.0076509 -0.00753145 0)
(-0.00774305 -0.00674651 0)
(-0.00693679 -0.00891919 0)
(-0.00521678 -0.00956871 0)
(-0.00338066 -0.00958209 0)
(-0.00170988 -0.00929199 0)
(-9.86899e-05 -0.00874045 0)
(0.00146193 -0.00789108 0)
(0.00293355 -0.00671507 0)
(0.00425134 -0.00523953 0)
(0.0053407 -0.00347074 0)
(0.00613668 -0.00146519 0)
(0.00659785 0.000697601 0)
(0.00670175 0.00293491 0)
(0.00643614 0.00516127 0)
(0.00579872 0.00728631 0)
(0.00480431 0.00921334 0)
(0.00348985 0.0108446 0)
(0.00191564 0.0120904 0)
(0.00016572 0.0128779 0)
(-1.60804e-05 0.000802258 0)
(-0.000162792 0.00218683 0)
(-0.000436924 0.0033561 0)
(-0.000815993 0.00434862 0)
(-0.00128181 0.00517994 0)
(-0.00182181 0.0058589 0)
(-0.00242523 0.00639344 0)
(-0.0030824 0.00679079 0)
(-0.00378439 0.0070572 0)
(-0.00452295 0.00719759 0)
(-0.00529039 0.00721512 0)
(-0.0060794 0.00711069 0)
(-0.00688259 0.00688282 0)
(-0.00769184 0.0065277 0)
(-0.00849737 0.00603946 0)
(-0.00928646 0.00541049 0)
(-0.0100417 0.00463215 0)
(-0.0107381 0.00369665 0)
(-0.0113387 0.00260239 0)
(-0.0117837 0.00136632 0)
(-0.0119705 5.58207e-05 0)
(-0.0117733 -0.00109535 0)
(-0.0113998 -0.00160856 0)
(-0.0112122 -0.00179076 0)
(-0.0112114 -0.00221187 0)
(-0.0108987 -0.00359217 0)
(-0.0099732 -0.00519162 0)
(-0.00873751 -0.00706529 0)
(-0.00787448 -0.00854142 0)
(-0.00794276 -0.00941981 0)
(-0.00764227 -0.00794658 0)
(-0.00621262 -0.00757352 0)
(-0.0050584 -0.00990492 0)
(-0.00426267 -0.0109752 0)
(-0.00307833 -0.0111078 0)
(-0.00161901 -0.010866 0)
(-3.01071e-05 -0.0103503 0)
(0.00163309 -0.00947534 0)
(0.00328031 -0.0082015 0)
(0.00481527 -0.00654425 0)
(0.00612757 -0.00450658 0)
(0.00711893 -0.00216928 0)
(0.00773611 0.000360008 0)
(0.00795295 0.00298384 0)
(0.00774898 0.00560713 0)
(0.00710973 0.00812655 0)
(0.00604043 0.0104242 0)
(0.00457776 0.0123747 0)
(0.00279242 0.0138606 0)
(0.000787882 0.014787 0)
(-1.69197e-05 0.000886037 0)
(-0.000167578 0.00240543 0)
(-0.000448723 0.00368847 0)
(-0.000837758 0.00477777 0)
(-0.00131677 0.00569165 0)
(-0.00187328 0.00644103 0)
(-0.00249668 0.00703556 0)
(-0.00317741 0.00748386 0)
(-0.00390686 0.00779326 0)
(-0.00467729 0.00796934 0)
(-0.00548183 0.00801545 0)
(-0.00631413 0.00793235 0)
(-0.0071679 0.00771814 0)
(-0.00803631 0.00736834 0)
(-0.00891146 0.00687573 0)
(-0.00978375 0.00622995 0)
(-0.0106407 0.00541669 0)
(-0.0114649 0.00441728 0)
(-0.0122299 0.00321121 0)
(-0.0128895 0.00178447 0)
(-0.0133179 0.000134238 0)
(-0.0132116 -0.00149221 0)
(-0.0128612 -0.00190413 0)
(-0.0128428 -0.00181894 0)
(-0.0130196 -0.00211965 0)
(-0.0126457 -0.00432133 0)
(-0.0116583 -0.00626766 0)
(-0.0107676 -0.00804407 0)
(-0.0101454 -0.0090586 0)
(-0.0096834 -0.00950715 0)
(-0.00886169 -0.00920984 0)
(-0.00728434 -0.00929005 0)
(-0.00574837 -0.0108214 0)
(-0.0046168 -0.0119736 0)
(-0.00337432 -0.0124268 0)
(-0.00189703 -0.0123809 0)
(-0.000249117 -0.0120044 0)
(0.0015337 -0.0112044 0)
(0.00339527 -0.00990116 0)
(0.00520686 -0.00809538 0)
(0.00680474 -0.00577628 0)
(0.00804441 -0.00307121 0)
(0.00886771 -0.000134963 0)
(0.00925227 0.00292252 0)
(0.00916391 0.00600419 0)
(0.00856438 0.00899437 0)
(0.00743872 0.0117466 0)
(0.00581859 0.014096 0)
(0.00378769 0.0158843 0)
(0.00147634 0.0169842 0)
(-1.73179e-05 0.000971684 0)
(-0.000170524 0.00262918 0)
(-0.000456371 0.0040286 0)
(-0.000852452 0.00521702 0)
(-0.00134112 0.00621596 0)
(-0.00190994 0.00703867 0)
(-0.00254846 0.00769663 0)
(-0.00324738 0.0081999 0)
(-0.0039985 0.0085568 0)
(-0.00479474 0.00877344 0)
(-0.00562994 0.00885339 0)
(-0.00649841 0.00879751 0)
(-0.00739439 0.00860399 0)
(-0.00831166 0.00826844 0)
(-0.00924368 0.00778356 0)
(-0.0101838 0.00713815 0)
(-0.0111255 0.00631531 0)
(-0.012061 0.00529025 0)
(-0.0129804 0.00403029 0)
(-0.0138759 0.00250731 0)
(-0.0147163 0.000646179 0)
(-0.015069 -0.00165552 0)
(-0.0152525 -0.00175679 0)
(-0.0158062 -0.00151664 0)
(-0.0155386 -0.0025805 0)
(-0.0143107 -0.00538383 0)
(-0.0131599 -0.00728933 0)
(-0.0123118 -0.00875804 0)
(-0.0116766 -0.00969218 0)
(-0.011013 -0.0102319 0)
(-0.0100371 -0.0105009 0)
(-0.00859233 -0.0109901 0)
(-0.0070768 -0.0121493 0)
(-0.00573406 -0.0132256 0)
(-0.00432265 -0.0138562 0)
(-0.00271325 -0.014017 0)
(-0.000933215 -0.0137794 0)
(0.00103023 -0.0131339 0)
(0.00316331 -0.0118793 0)
(0.00532344 -0.00996806 0)
(0.00728305 -0.00734676 0)
(0.00882883 -0.00422828 0)
(0.00991799 -0.000848263 0)
(0.0105479 0.0026856 0)
(0.0106583 0.00629375 0)
(0.0101653 0.00985155 0)
(0.00901655 0.0131719 0)
(0.00723176 0.0160304 0)
(0.00491178 0.0182083 0)
(0.0022255 0.0195317 0)
(-1.72357e-05 0.00105824 0)
(-0.00017144 0.00285631 0)
(-0.000459417 0.00437364 0)
(-0.000859126 0.00566263 0)