/*--------------------------------*- C++ -*----------------------------------*\
| =========                 |                                                 |
| \\      /  F ield         | OpenFOAM: The Open Source CFD Toolbox           |
|  \\    /   O peration     | Version:  2.4.0                                 |
|   \\  /    A nd           | Web:      www.OpenFOAM.org                      |
|    \\/     M anipulation  |                                                 |
\*---------------------------------------------------------------------------*/
FoamFile
{
    version     2.0;
    format      ascii;
    class       volVectorField;
    location    "0.311";
    object      U;
}
// * * * * * * * * * * * * * * * * * * * * * * * * * * * * * * * * * * * * * //

dimensions      [0 1 -1 0 0 0 0];

internalField   nonuniform List<vector> 
10000
(
(-1.64639e-07 1.75471e-07 0)
(-1.42885e-06 4.61219e-07 0)
(-2.44273e-06 3.42588e-07 0)
(-2.27459e-06 1.82248e-08 0)
(-9.26448e-07 -3.15309e-07 0)
(1.59224e-06 -5.7829e-07 0)
(5.06529e-06 -7.84095e-07 0)
(9.23438e-06 -9.33192e-07 0)
(1.37756e-05 -1.0326e-06 0)
(1.83711e-05 -1.07027e-06 0)
(2.27502e-05 -1.0449e-06 0)
(2.66574e-05 -9.6043e-07 0)
(2.98831e-05 -8.17482e-07 0)
(3.22654e-05 -6.2776e-07 0)
(3.37499e-05 -3.84563e-07 0)
(3.42986e-05 -1.82596e-07 0)
(3.39013e-05 1.47982e-08 0)
(3.2682e-05 1.97951e-07 0)
(3.07983e-05 3.50812e-07 0)
(2.84223e-05 4.62281e-07 0)
(2.57259e-05 5.27717e-07 0)
(2.28529e-05 5.50058e-07 0)
(1.99089e-05 5.43396e-07 0)
(1.69258e-05 5.18545e-07 0)
(1.3847e-05 4.99084e-07 0)
(1.05434e-05 5.07595e-07 0)
(6.81229e-06 5.64104e-07 0)
(2.40424e-06 6.825e-07 0)
(-2.93966e-06 8.67534e-07 0)
(-9.4449e-06 1.11283e-06 0)
(-1.72635e-05 1.40242e-06 0)
(-2.64392e-05 1.7081e-06 0)
(-3.68875e-05 1.99897e-06 0)
(-4.83893e-05 2.23897e-06 0)
(-6.06044e-05 2.39645e-06 0)
(-7.3132e-05 2.46004e-06 0)
(-8.55958e-05 2.43617e-06 0)
(-9.77061e-05 2.34479e-06 0)
(-0.000109294 2.21351e-06 0)
(-0.000120317 2.0723e-06 0)
(-0.000130844 1.94869e-06 0)
(-0.000141028 1.86442e-06 0)
(-0.000151068 1.83393e-06 0)
(-0.000161178 1.8638e-06 0)
(-0.000171553 1.95348e-06 0)
(-0.000182345 2.09629e-06 0)
(-0.000193653 2.28019e-06 0)
(-0.000205517 2.4888e-06 0)
(-0.000217927 2.70276e-06 0)
(-0.000230831 2.90215e-06 0)
(8.1147e-10 1.04365e-06 0)
(-1.30563e-06 2.0162e-06 0)
(-1.34865e-06 7.22023e-07 0)
(1.05702e-06 -1.48851e-06 0)
(6.01111e-06 -3.71449e-06 0)
(1.32598e-05 -5.61471e-06 0)
(2.22692e-05 -7.03404e-06 0)
(3.24878e-05 -7.92528e-06 0)
(4.32917e-05 -8.29687e-06 0)
(5.40726e-05 -8.15933e-06 0)
(6.42862e-05 -7.55509e-06 0)
(7.34624e-05 -6.55171e-06 0)
(8.1228e-05 -5.22661e-06 0)
(8.7329e-05 -3.68177e-06 0)
(9.15831e-05 -2.01004e-06 0)
(9.39732e-05 -3.78678e-07 0)
(9.45968e-05 1.13791e-06 0)
(9.35854e-05 2.48027e-06 0)
(9.11661e-05 3.59104e-06 0)
(8.75907e-05 4.4457e-06 0)
(8.31007e-05 5.05972e-06 0)
(7.78876e-05 5.48988e-06 0)
(7.20613e-05 5.83467e-06 0)
(6.56149e-05 6.20772e-06 0)
(5.84061e-05 6.7458e-06 0)
(5.01617e-05 7.57502e-06 0)
(4.04958e-05 8.7904e-06 0)
(2.89551e-05 1.0434e-05 0)
(1.50869e-05 1.24791e-05 0)
(-1.47926e-06 1.48261e-05 0)
(-2.09623e-05 1.73191e-05 0)
(-4.33638e-05 1.97411e-05 0)
(-6.84342e-05 2.18665e-05 0)
(-9.56622e-05 2.34621e-05 0)
(-0.000124288 2.43524e-05 0)
(-0.000153435 2.45077e-05 0)
(-0.000182305 2.40309e-05 0)
(-0.000210295 2.31152e-05 0)
(-0.000237071 2.1992e-05 0)
(-0.00026257 2.08854e-05 0)
(-0.000286955 1.99795e-05 0)
(-0.000310563 1.94e-05 0)
(-0.00033382 1.92098e-05 0)
(-0.000357186 1.94154e-05 0)
(-0.000381095 1.99783e-05 0)
(-0.00040592 2.08297e-05 0)
(-0.000431954 2.18835e-05 0)
(-0.000459402 2.30471e-05 0)
(-0.000488384 2.42314e-05 0)
(-0.000518937 2.53573e-05 0)
(1.69762e-07 1.50901e-06 0)
(1.04459e-07 2.03393e-06 0)
(2.50331e-06 -1.68805e-06 0)
(8.35745e-06 -6.905e-06 0)
(1.77638e-05 -1.20587e-05 0)
(3.03066e-05 -1.64848e-05 0)
(4.52821e-05 -1.97852e-05 0)
(6.18716e-05 -2.18045e-05 0)
(7.92048e-05 -2.2526e-05 0)
(9.64274e-05 -2.20096e-05 0)
(0.000112753 -2.03769e-05 0)
(0.000127501 -1.78009e-05 0)
(0.000140123 -1.44937e-05 0)
(0.000150233 -1.07009e-05 0)
(0.0001576 -6.69032e-06 0)
(0.000162167 -2.68693e-06 0)
(0.00016406 1.0509e-06 0)
(0.000163519 4.34731e-06 0)
(0.000160866 7.08269e-06 0)
(0.000156486 9.21516e-06 0)
(0.000150756 1.07938e-05 0)
(0.000143989 1.19614e-05 0)
(0.000136378 1.29454e-05 0)
(0.00012795 1.4031e-05 0)
(0.000118533 1.55327e-05 0)
(0.000107757 1.77439e-05 0)
(9.50728e-05 2.08835e-05 0)
(7.98229e-05 2.5043e-05 0)
(6.13396e-05 3.01491e-05 0)
(3.90749e-05 3.59543e-05 0)
(1.2687e-05 4.20625e-05 0)
(-1.78475e-05 4.79735e-05 0)
(-5.219e-05 5.31342e-05 0)
(-8.96286e-05 5.69789e-05 0)
(-0.00012904 5.90802e-05 0)
(-0.000169117 5.9388e-05 0)
(-0.000208687 5.81813e-05 0)
(-0.000246905 5.59541e-05 0)
(-0.000283331 5.32838e-05 0)
(-0.000317926 5.07195e-05 0)
(-0.000350988 4.87034e-05 0)
(-0.000383048 4.75324e-05 0)
(-0.00041477 4.73512e-05 0)
(-0.000446851 4.81699e-05 0)
(-0.000479944 4.98931e-05 0)
(-0.000514613 5.23528e-05 0)
(-0.000551302 5.53392e-05 0)
(-0.000590324 5.86275e-05 0)
(-0.000631866 6.19986e-05 0)
(-0.000675989 6.52554e-05 0)
(2.59835e-07 1.18667e-06 0)
(1.86183e-06 -1.72824e-07 0)
(7.46778e-06 -7.47363e-06 0)
(1.74421e-05 -1.66955e-05 0)
(3.17656e-05 -2.56267e-05 0)
(4.98671e-05 -3.3195e-05 0)
(7.0883e-05 -3.87941e-05 0)
(9.3791e-05 -4.21447e-05 0)
(0.000117512 -4.31975e-05 0)
(0.000140981 -4.20575e-05 0)
(0.00016321 -3.89435e-05 0)
(0.000183334 -3.41661e-05 0)
(0.000200652 -2.81092e-05 0)
(0.000214663 -2.12088e-05 0)
(0.000225079 -1.39266e-05 0)
(0.000231834 -6.70314e-06 0)
(0.000235077 5.84745e-08 0)
(0.000235135 6.01888e-06 0)
(0.000232466 1.09679e-05 0)
(0.000227605 1.4833e-05 0)
(0.000221096 1.77022e-05 0)
(0.000213411 1.98285e-05 0)
(0.000204867 2.16121e-05 0)
(0.000195567 2.3561e-05 0)
(0.000185348 2.62322e-05 0)
(0.000173763 3.01504e-05 0)
(0.000160109 3.57109e-05 0)
(0.000143511 4.30829e-05 0)
(0.000123055 5.21372e-05 0)
(9.79712e-05 6.24283e-05 0)
(6.77778e-05 7.32438e-05 0)
(3.23975e-05 8.37073e-05 0)
(-7.81514e-06 9.28354e-05 0)
(-5.19889e-05 9.95843e-05 0)
(-9.85896e-05 0.000103128 0)
(-0.00014579 0.000103419 0)
(-0.000192033 0.000101031 0)
(-0.000236261 9.69066e-05 0)
(-0.000278001 9.21137e-05 0)
(-0.000317325 8.76381e-05 0)
(-0.000354735 8.42524e-05 0)
(-0.000391021 8.24554e-05 0)
(-0.000427114 8.2472e-05 0)
(-0.000463961 8.42917e-05 0)
(-0.00050243 8.77255e-05 0)
(-0.000543256 9.24665e-05 0)
(-0.000587008 9.81436e-05 0)
(-0.000634076 0.000104367 0)
(-0.000684681 0.00011076 0)
(-0.000738875 0.000116986 0)
(4.04273e-07 -1.93496e-07 0)
(3.8158e-06 -5.104e-06 0)
(1.28309e-05 -1.71098e-05 0)
(2.72222e-05 -3.11946e-05 0)
(4.6709e-05 -4.45386e-05 0)
(7.0489e-05 -5.5705e-05 0)
(9.75282e-05 -6.38696e-05 0)
(0.000126624 -6.86369e-05 0)
(0.000156513 -6.99301e-05 0)
(0.000185948 -6.79019e-05 0)
(0.000213765 -6.28793e-05 0)
(0.000238941 -5.53313e-05 0)
(0.000260645 -4.58412e-05 0)
(0.000278278 -3.50728e-05 0)
(0.000291498 -2.37281e-05 0)
(0.000300236 -1.24951e-05 0)
(0.000304675 -1.99694e-06 0)
(0.000305236 7.2437e-06 0)
(0.00030252 1.4894e-05 0)
(0.000297232 2.08264e-05 0)
(0.000290112 2.51622e-05 0)
(0.00028182 2.82786e-05 0)
(0.00027284 3.07839e-05 0)
(0.000263387 3.34607e-05 0)
(0.000253335 3.71803e-05 0)
(0.000242181 4.27808e-05 0)
(0.000229057 5.09141e-05 0)
(0.000212824 6.1882e-05 0)
(0.000192261 7.55072e-05 0)
(0.000166314 9.10966e-05 0)
(0.000134319 0.000107551 0)
(9.61203e-05 0.000123516 0)
(5.20283e-05 0.000137516 0)
(2.99019e-06 0.00014782 0)
(-4.89016e-05 0.000152908 0)
(-0.000101065 0.000152818 0)
(-0.000151489 0.000148602 0)
(-0.000198945 0.000141858 0)
(-0.000243024 0.000134303 0)
(-0.000284016 0.000127472 0)
(-0.000322734 0.000122523 0)
(-0.000360302 0.000120166 0)
(-0.000397964 0.000120684 0)
(-0.000436932 0.000124007 0)
(-0.000478285 0.000129809 0)
(-0.000522905 0.0001376 0)
(-0.000571456 0.00014681 0)
(-0.000624373 0.000156854 0)
(-0.000681876 0.000167174 0)
(-0.000743977 0.000177268 0)
(5.64976e-07 -2.44083e-06 0)
(5.76816e-06 -1.28499e-05 0)
(1.82123e-05 -3.07993e-05 0)
(3.71361e-05 -5.05917e-05 0)
(6.18953e-05 -6.89401e-05 0)
(9.1414e-05 -8.40901e-05 0)
(0.000124467 -9.50144e-05 0)
(0.000159671 -0.000101212 0)
(0.000195587 -0.000102588 0)
(0.000230794 -9.93501e-05 0)
(0.000263968 -9.19453e-05 0)
(0.000293937 -8.10202e-05 0)
(0.000319748 -6.73856e-05 0)
(0.000340711 -5.19704e-05 0)
(0.000356435 -3.57626e-05 0)
(0.000366845 -1.97421e-05 0)
(0.000372166 -4.8074e-06 0)
(0.000372921 8.31102e-06 0)
(0.000369868 1.9092e-05 0)
(0.000363908 2.73266e-05 0)
(0.00035601 3.31594e-05 0)
(0.000347069 3.71046e-05 0)
(0.00033778 4.00149e-05 0)
(0.000328516 4.30086e-05 0)
(0.00031923 4.73604e-05 0)
(0.000309377 5.43358e-05 0)
(0.0002979 6.49627e-05 0)
(0.000283324 7.97674e-05 0)
(0.000263997 9.85435e-05 0)
(0.000238484 0.000120274 0)
(0.000205896 0.000143355 0)
(0.000166023 0.000165866 0)
(0.000119029 0.00018584 0)
(6.57299e-05 0.000200533 0)
(9.08364e-06 0.000207117 0)
(-4.70909e-05 0.000205936 0)
(-0.000100252 0.000198878 0)
(-0.000149091 0.000188488 0)
(-0.000193409 0.000177347 0)
(-0.000233879 0.000167655 0)
(-0.000271758 0.000160991 0)
(-0.000308601 0.000158259 0)
(-0.000346016 0.000159748 0)
(-0.000385498 0.000165262 0)
(-0.000428319 0.000174268 0)
(-0.000475478 0.000186042 0)
(-0.000527694 0.00019977 0)
(-0.000585403 0.000214635 0)
(-0.000648785 0.000229867 0)
(-0.000717779 0.000244773 0)
(6.97519e-07 -5.55051e-06 0)
(7.64033e-06 -2.34189e-05 0)
(2.34735e-05 -4.85789e-05 0)
(4.69252e-05 -7.49393e-05 0)
(7.69753e-05 -9.88688e-05 0)
(0.000112255 -0.000118353 0)
(0.000151328 -0.000132188 0)
(0.000192621 -0.000139786 0)
(0.000234511 -0.000141044 0)
(0.000275406 -0.000136237 0)
(0.000313818 -0.000125943 0)
(0.000348427 -0.000111005 0)
(0.000378151 -9.24869e-05 0)
(0.000402205 -7.16187e-05 0)
(0.00042014 -4.97172e-05 0)
(0.000431869 -2.81001e-05 0)
(0.00043768 -7.98842e-06 0)
(0.000438186 9.60617e-06 0)
(0.000434295 2.39403e-05 0)
(0.000427156 3.46771e-05 0)
(0.000418009 4.19604e-05 0)
(0.000408036 4.64469e-05 0)
(0.000398196 4.92669e-05 0)
(0.000389082 5.19374e-05 0)
(0.000380787 5.62416e-05 0)
(0.000372762 6.40235e-05 0)
(0.000363738 7.6865e-05 0)
(0.000351794 9.56675e-05 0)
(0.000334664 0.000120235 0)
(0.000310369 0.000149088 0)
(0.000277769 0.000179922 0)
(0.000236767 0.000210136 0)
(0.000187231 0.000237536 0)
(0.000129275 0.000257875 0)
(6.73195e-05 0.000265609 0)
(7.37132e-06 0.000262063 0)
(-4.75315e-05 0.000250599 0)
(-9.62371e-05 0.000235143 0)
(-0.000139014 0.000219377 0)
(-0.000177139 0.000206269 0)
(-0.000212486 0.000197826 0)
(-0.000247143 0.000195078 0)
(-0.000283131 0.000198221 0)
(-0.000322219 0.000206836 0)
(-0.00036584 0.000220103 0)
(-0.000415064 0.00023699 0)
(-0.000470608 0.000256392 0)
(-0.000532862 0.00027722 0)
(-0.000601922 0.000298456 0)
(-0.000677614 0.000319187 0)
(8.04233e-07 -9.48791e-06 0)
(9.42792e-06 -3.67091e-05 0)
(2.85848e-05 -7.03823e-05 0)
(5.65184e-05 -0.00010421 0)
(9.18432e-05 -0.000134322 0)
(0.0001329 -0.000158499 0)
(0.00017803 -0.000175396 0)
(0.000225455 -0.000184355 0)
(0.000273365 -0.000185281 0)
(0.000319984 -0.000178522 0)
(0.000363649 -0.0001648 0)
(0.000402878 -0.000145172 0)
(0.000436447 -0.000120982 0)
(0.000463456 -9.37941e-05 0)
(0.000483385 -6.52975e-05 0)
(0.000496127 -3.71957e-05 0)
(0.000502 -1.10842e-05 0)
(0.000501717 1.16625e-05 0)
(0.000496361 3.00321e-05 0)
(0.000487332 4.34923e-05 0)
(0.000476196 5.2147e-05 0)
(0.000464481 5.67949e-05 0)
(0.000453472 5.88721e-05 0)
(0.000444062 6.03489e-05 0)
(0.00043658 6.3632e-05 0)
(0.000430556 7.13404e-05 0)
(0.00042452 8.58751e-05 0)
(0.000415974 0.00010877 0)
(0.000401736 0.000139929 0)
(0.000379013 0.000177144 0)
(0.000346397 0.000217035 0)
(0.000304441 0.000256086 0)
(0.000252564 0.000292897 0)
(0.000188694 0.000321023 0)
(0.000119926 0.000328887 0)
(5.63182e-05 0.000320715 0)
(9.19936e-07 0.000302525 0)
(-4.5814e-05 0.000280136 0)
(-8.50289e-05 0.000258544 0)
(-0.000118893 0.000241536 0)
(-0.000150087 0.00023147 0)
(-0.000181326 0.00022937 0)
(-0.000215054 0.000235187 0)
(-0.000253279 0.00024814 0)
(-0.000297526 0.000267012 0)
(-0.000348859 0.00029039 0)
(-0.000407929 0.00031682 0)
(-0.000475023 0.000344901 0)
(-0.000550109 0.000373335 0)
(-0.000632864 0.000400949 0)
(9.00864e-07 -1.42328e-05 0)
(1.11634e-05 -5.26264e-05 0)
(3.358e-05 -9.61223e-05 0)
(6.59512e-05 -0.000138355 0)
(0.000106538 -0.000175294 0)
(0.000153407 -0.000204562 0)
(0.000204672 -0.000224704 0)
(0.000258349 -0.000235011 0)
(0.000312426 -0.000235401 0)
(0.000364935 -0.000226305 0)
(0.000414018 -0.000208597 0)
(0.000458009 -0.000183563 0)
(0.000495513 -0.00015285 0)
(0.000525492 -0.000118392 0)
(0.000547329 -8.22955e-05 0)
(0.00056087 -4.67029e-05 0)
(0.000566445 -1.36466e-05 0)
(0.000564843 1.50911e-05 0)
(0.000557307 3.81198e-05 0)
(0.000545508 5.46195e-05 0)
(0.000531397 6.45987e-05 0)
(0.00051691 6.89962e-05 0)
(0.00050371 6.95736e-05 0)
(0.000493077 6.87779e-05 0)
(0.000485731 6.97405e-05 0)
(0.000481446 7.6095e-05 0)
(0.000478641 9.14467e-05 0)
(0.000474122 0.000118419 0)
(0.000463332 0.000157255 0)
(0.000442141 0.000204521 0)
(0.000408737 0.000254986 0)
(0.000365719 0.000303487 0)
(0.000312115 0.000352388 0)
(0.000240164 0.000392353 0)
(0.000162103 0.000397669 0)
(9.57004e-05 0.000380911 0)
(4.22112e-05 0.000352728 0)
(3.01658e-07 0.00032117 0)
(-3.25914e-05 0.000292579 0)
(-5.98339e-05 0.000271476 0)
(-8.5074e-05 0.000260389 0)
(-0.000111698 0.000260097 0)
(-0.000142524 0.000270085 0)
(-0.000179698 0.000289026 0)
(-0.000224725 0.000315185 0)
(-0.00027856 0.000346689 0)
(-0.000341706 0.000381688 0)
(-0.000414288 0.000418437 0)
(-0.000496105 0.000455322 0)
(-0.000586652 0.000490883 0)
(1.00447e-06 -1.97894e-05 0)
(1.2889e-05 -7.11041e-05 0)
(3.85147e-05 -0.000125728 0)
(7.5293e-05 -0.000177339 0)
(0.000121147 -0.000221802 0)
(0.000173889 -0.000256619 0)
(0.000231417 -0.000280246 0)
(0.000291538 -0.000291938 0)
(0.000352038 -0.000291631 0)
(0.000410739 -0.000279837 0)
(0.000465571 -0.000257587 0)
(0.000514652 -0.0002264 0)
(0.000556383 -0.00018825 0)
(0.000589545 -0.000145474 0)
(0.000613389 -0.000100643 0)
(0.000627683 -5.6392e-05 0)
(0.000632735 -1.52474e-05 0)
(0.000629364 2.05312e-05 0)
(0.000618914 4.90692e-05 0)
(0.000603342 6.91088e-05 0)
(0.000585055 8.04814e-05 0)
(0.000566451 8.42797e-05 0)
(0.00054958 8.26022e-05 0)
(0.00053619 7.83174e-05 0)
(0.000527614 7.53193e-05 0)
(0.000524171 7.85094e-05 0)
(0.000524419 9.32244e-05 0)
(0.000524461 0.000123988 0)
(0.000517716 0.000172087 0)
(0.000497706 0.000231977 0)
(0.000461493 0.000294949 0)
(0.00041678 0.00035151 0)
(0.000363172 0.000415868 0)
(0.000279716 0.000476313 0)
(0.000188897 0.000472152 0)
(0.000122847 0.00044011 0)
(7.59907e-05 0.000397802 0)
(4.34266e-05 0.000354819 0)
(2.06965e-05 0.00031848 0)
(3.0363e-06 0.000293755 0)
(-1.42316e-05 0.000282997 0)
(-3.50877e-05 0.000286389 0)
(-6.25668e-05 0.000302649 0)
(-9.87696e-05 0.000329701 0)
(-0.000145013 0.000365167 0)
(-0.000202013 0.000406656 0)
(-0.000270033 0.000451901 0)
(-0.000348982 0.000498797 0)
(-0.000438458 0.000545404 0)
(-0.000537758 0.000589941 0)
(1.12502e-06 -2.61782e-05 0)
(1.46347e-05 -9.20955e-05 0)
(4.34331e-05 -0.000159148 0)
(8.45972e-05 -0.000221144 0)
(0.000135735 -0.000273886 0)
(0.000194436 -0.000314782 0)
(0.000258394 -0.000342219 0)
(0.000325224 -0.000355416 0)
(0.000392507 -0.000354325 0)
(0.000457849 -0.000339532 0)
(0.000518945 -0.000312209 0)
(0.000573662 -0.000274115 0)
(0.000620151 -0.000227559 0)
(0.000656962 -0.000175317 0)
(0.000683164 -0.000120475 0)
(0.000698406 -6.62161e-05 0)
(0.000702934 -1.56098e-05 0)
(0.000697515 2.8557e-05 0)
(0.000683486 6.37976e-05 0)
(0.000663067 8.8172e-05 0)
(0.000639235 0.000101221 0)
(0.000614899 0.000104267 0)
(0.000592391 9.97718e-05 0)
(0.000573943 9.08059e-05 0)
(0.000561808 8.19185e-05 0)
(0.000557291 7.94934e-05 0)
(0.000559577 9.12028e-05 0)
(0.000564455 0.000124748 0)
(0.000562835 0.000184322 0)
(0.000544004 0.000261294 0)
(0.00050106 0.000340426 0)
(0.000452439 0.000397825 0)
(0.000401891 0.000480579 0)
(0.000301819 0.000581548 0)
(0.00019472 0.00055035 0)
(0.000137119 0.000492739 0)
(0.000105112 0.000432141 0)
(8.83873e-05 0.00037618 0)
(8.07195e-05 0.00033239 0)
(7.60117e-05 0.000305711 0)
(6.86916e-05 0.000297763 0)
(5.44586e-05 0.000307645 0)
(3.03738e-05 0.000332975 0)
(-5.33422e-06 0.000370721 0)
(-5.35713e-05 0.000417787 0)
(-0.000114667 0.000471262 0)
(-0.000188563 0.000528479 0)
(-0.000274918 0.000587001 0)
(-0.00037312 0.000644565 0)
(-0.000482263 0.000699059 0)
(1.26601e-06 -3.34311e-05 0)
(1.64101e-05 -0.000115565 0)
(4.83484e-05 -0.000196343 0)
(9.38727e-05 -0.000269765 0)
(0.000150309 -0.000331602 0)
(0.000215061 -0.000379196 0)
(0.000285648 -0.00041087 0)
(0.00035951 -0.000425809 0)
(0.000434038 -0.000423967 0)
(0.000506622 -0.000405973 0)
(0.000574701 -0.000373123 0)
(0.000635856 -0.00032739 0)
(0.000687927 -0.000271426 0)
(0.000729167 -0.000208478 0)
(0.000758397 -0.000142202 0)
(0.000775102 -7.63978e-05 0)
(0.000779434 -1.47094e-05 0)
(0.000772 3.95669e-05 0)
(0.000753906 8.31959e-05 0)
(0.000727582 0.000113113 0)
(0.000696787 0.000128418 0)
(0.000664979 0.000130928 0)
(0.000634419 0.000123585 0)
(0.000607669 0.000109095 0)
(0.000588332 9.22949e-05 0)
(0.00057927 8.11906e-05 0)
(0.000580894 8.63103e-05 0)
(0.000589788 0.000119983 0)
(0.000595885 0.000192495 0)
(0.000581806 0.000294335 0)
(0.00052706 0.000400485 0)
(0.000467315 0.000440361 0)
(0.000419133 0.000540088 0)
(0.000295584 0.000721293 0)
(0.000174316 0.00062422 0)
(0.000141974 0.000528419 0)
(0.000137321 0.000447468 0)
(0.000144644 0.000378874 0)
(0.000157372 0.000329885 0)
(0.000168636 0.000304758 0)
(0.000172493 0.000303586 0)
(0.00016489 0.000323827 0)
(0.000143468 0.000361686 0)
(0.000107147 0.000413066 0)
(5.5679e-05 0.000474168 0)
(-1.07471e-05 0.00054163 0)
(-9.17072e-05 0.000612483 0)
(-0.00018661 0.000684034 0)
(-0.000294666 0.000753732 0)
(-0.000414796 0.000819128 0)
(1.42555e-06 -4.15817e-05 0)
(1.82025e-05 -0.000141475 0)
(5.32334e-05 -0.000237266 0)
(0.000103067 -0.000323186 0)
(0.000164793 -0.000395002 0)
(0.000235671 -0.00045001 0)
(0.000313087 -0.000486483 0)
(0.000394342 -0.000503559 0)
(0.000476665 -0.000501164 0)
(0.000557241 -0.000479933 0)
(0.000633248 -0.000441229 0)
(0.000701938 -0.000387203 0)
(0.000760774 -0.000320832 0)
(0.000807617 -0.000245858 0)
(0.000840948 -0.000166589 0)
(0.000860034 -8.75258e-05 0)
(0.000864941 -1.2918e-05 0)
(0.000856013 5.3612e-05 0)
(0.000833717 0.000108014 0)
(0.00080058 0.000145206 0)
(0.00076156 0.000163654 0)
(0.000720705 0.000166428 0)
(0.000679394 0.00015731 0)
(0.000640115 0.000137258 0)
(0.000608532 0.000110633 0)
(0.000589781 8.72884e-05 0)
(0.000585638 8.10963e-05 0)
(0.000594358 0.000109606 0)
(0.000610682 0.000189895 0)
(0.000614769 0.000323403 0)
(0.000555726 0.00048767 0)
(0.000467952 0.000494473 0)
(0.000386465 0.000603779 0)
(0.000230346 0.000901698 0)
(0.000124196 0.000672131 0)
(0.000146661 0.000526974 0)
(0.000187451 0.000430483 0)
(0.000228428 0.000354684 0)
(0.000265805 0.000306645 0)
(0.000293914 0.000289329 0)
(0.000308001 0.000300598 0)
(0.000305309 0.000335998 0)
(0.000284554 0.000390278 0)
(0.000245639 0.000458304 0)
(0.00018915 0.000535751 0)
(0.000115844 0.000619018 0)
(2.64893e-05 0.000704999 0)
(-7.81375e-05 0.000790849 0)
(-0.000197155 0.0008738 0)
(-0.000329397 0.000951057 0)
(1.59826e-06 -5.06512e-05 0)
(1.99786e-05 -0.000169772 0)
(5.80166e-05 -0.000281841 0)
(0.000112057 -0.000381354 0)
(0.000179004 -0.000464099 0)
(0.000256031 -0.000527355 0)
(0.000340441 -0.000569348 0)
(0.00042945 -0.000589158 0)
(0.000520173 -0.000586639 0)
(0.000609627 -0.000562369 0)
(0.000694738 -0.000517702 0)
(0.000772404 -0.000454886 0)
(0.000839628 -0.000377168 0)
(0.000893748 -0.000288798 0)
(0.000932762 -0.000194833 0)
(0.000955619 -0.000100635 0)
(0.000962402 -1.11596e-05 0)
(0.000953179 7.01409e-05 0)
(0.000927119 0.000138688 0)
(0.000886557 0.000185545 0)
(0.000838472 0.000208151 0)
(0.000787711 0.000212661 0)
(0.000733221 0.000204895 0)
(0.000676476 0.000180804 0)
(0.000626132 0.000142978 0)
(0.000590222 0.000103851 0)
(0.000571679 8.1261e-05 0)
(0.000573218 9.50271e-05 0)
(0.000600893 0.000165939 0)
(0.000640172 0.000324517 0)
(0.000632234 0.000572585 0)
(0.000514732 0.00062853 0)
(0.000254795 0.00077137 0)
(6.58159e-05 0.00104382 0)
(9.43442e-05 0.00065039 0)
(0.000199369 0.00046015 0)
(0.000297587 0.000368157 0)
(0.000372873 0.000299835 0)
(0.000430066 0.000263371 0)
(0.000468759 0.000262153 0)
(0.000487283 0.000292033 0)
(0.000484848 0.000347235 0)
(0.000461077 0.000421482 0)
(0.000416619 0.000508725 0)
(0.000352804 0.00060437 0)
(0.00027085 0.00070484 0)
(0.000171738 0.000807119 0)
(5.62812e-05 0.000908375 0)
(-7.46899e-05 0.00100567 0)
(-0.000220067 0.00109582 0)
(1.77571e-06 -6.06317e-05 0)
(2.16854e-05 -0.00020036 0)
(6.25799e-05 -0.000329934 0)
(0.000120639 -0.000444144 0)
(0.000192644 -0.000538835 0)
(0.000275742 -0.000611294 0)
(0.000367221 -0.000659718 0)
(0.000464284 -0.000683104 0)
(0.000564012 -0.000681191 0)
(0.000663317 -0.000654415 0)
(0.000758922 -0.00060401 0)
(0.00084737 -0.000532188 0)
(0.000925138 -0.000442349 0)
(0.000988876 -0.000339209 0)
(0.00103585 -0.000228676 0)
(0.00106445 -0.000117245 0)
(0.00107491 -1.09678e-05 0)
(0.00106726 8.77451e-05 0)
(0.00103877 0.000174887 0)
(0.000990746 0.000234994 0)
(0.000933355 0.000262378 0)
(0.000873351 0.000270084 0)
(0.00080502 0.000269769 0)
(0.000726637 0.000246272 0)
(0.000650616 0.000197291 0)
(0.000587565 0.000140073 0)
(0.000537783 9.72848e-05 0)
(0.000512738 7.24432e-05 0)
(0.000544984 7.81354e-05 0)
(0.000636156 0.000219812 0)
(0.000685482 0.000636757 0)
(0.00061544 0.000828631 0)
(0.000197624 0.0012068 0)
(-7.26289e-05 0.00110223 0)
(0.000151597 0.000478862 0)
(0.000374677 0.000301207 0)
(0.000514529 0.000254224 0)
(0.000608478 0.000219705 0)
(0.000670104 0.000209369 0)
(0.000705794 0.00023228 0)
(0.00071872 0.000285052 0)
(0.00070991 0.000362807 0)
(0.000678511 0.000459211 0)
(0.000625106 0.000567189 0)
(0.000551533 0.000682073 0)
(0.000459216 0.00080056 0)
(0.000349134 0.000919918 0)
(0.000221962 0.00103748 0)
(7.82729e-05 0.0011502 0)
(-8.1082e-05 0.00125448 0)
(1.94642e-06 -7.1473e-05 0)
(2.32524e-05 -0.000233084 0)
(6.67619e-05 -0.000381323 0)
(0.000128533 -0.000511326 0)
(0.000205294 -0.000619029 0)
(0.000294228 -0.000701772 0)
(0.00039269 -0.000757735 0)
(0.000497966 -0.000785828 0)
(0.000607201 -0.000785621 0)
(0.00071732 -0.00075732 0)
(0.000824938 -0.000701893 0)
(0.000926319 -0.00062133 0)
(0.0010174 -0.000518968 0)
(0.001094 -0.000399812 0)
(0.00115228 -0.000270626 0)
(0.00118948 -0.000139333 0)
(0.00120586 -1.41326e-05 0)
(0.00120138 0.000104885 0)
(0.0011717 0.000215269 0)
(0.0011176 0.000292959 0)
(0.00105215 0.000326137 0)
(0.000984373 0.000337314 0)
(0.000904639 0.000351811 0)
(0.000805066 0.000340189 0)
(0.000698123 0.000287639 0)
(0.000593391 0.000223912 0)
(0.000485439 0.000181714 0)
(0.000358861 0.00016255 0)
(0.000175194 0.000178175 0)
(-9.53532e-05 0.000285129 0)
(-8.03007e-05 0.00053473 0)
(0.000114418 0.000843473 0)
(5.45038e-05 0.00141855 0)
(0.000513007 0.000615186 0)
(0.00102296 0.000357671 0)
(0.000956631 0.000247566 0)
(0.000933396 0.000192427 0)
(0.000964043 0.000167671 0)
(0.000993314 0.000174209 0)
(0.00100527 0.000217174 0)
(0.00100143 0.000289547 0)
(0.000981104 0.000388444 0)
(0.000938939 0.000507348 0)
(0.000874009 0.000636386 0)
(0.000788835 0.000770702 0)
(0.000684917 0.000907438 0)
(0.000563043 0.00104429 0)
(0.00042361 0.00117886 0)
(0.000266779 0.00130816 0)
(9.28862e-05 0.00142804 0)
(2.09663e-06 -8.30732e-05 0)
(2.45958e-05 -0.000267706 0)
(7.03678e-05 -0.000435677 0)
(0.000135399 -0.000582525 0)
(0.000216432 -0.000704332 0)
(0.000310754 -0.000798541 0)
(0.000415873 -0.000863348 0)
(0.00052926 -0.000897577 0)
(0.000648261 -0.000900604 0)
(0.000769965 -0.000872317 0)
(0.000891063 -0.000813271 0)
(0.00100771 -0.000724999 0)
(0.00111546 -0.000610448 0)
(0.00120924 -0.000474518 0)
(0.00128377 -0.000324544 0)
(0.0013342 -0.000169907 0)
(0.00136047 -2.35653e-05 0)
(0.00136226 0.000119836 0)
(0.00133142 0.000260086 0)
(0.00127084 0.000357296 0)
(0.00120113 0.000396588 0)
(0.00112658 0.000414329 0)
(0.00103532 0.000444367 0)
(0.00092581 0.000453588 0)
(0.000811373 0.000404044 0)
(0.000695837 0.000344625 0)
(0.000586412 0.000297828 0)
(0.000523383 0.000275792 0)
(0.000516092 0.000331498 0)
(0.000522018 0.000433276 0)
(0.000475521 0.000483534 0)
(0.000367846 0.00082336 0)
(0.000363367 0.00128193 0)
(0.000571255 5.92324e-05 0)
(0.000858266 0.000220534 0)
(0.00106981 0.00019964 0)
(0.00121066 0.000120296 0)
(0.00131066 0.000119108 0)
(0.00134784 0.000155951 0)
(0.00134162 0.000221529 0)
(0.00132203 0.00030792 0)
(0.00129336 0.000425 0)
(0.00124173 0.000567277 0)
(0.00116453 0.000717654 0)
(0.00106706 0.000871257 0)
(0.000951135 0.0010262 0)
(0.000817208 0.00118078 0)
(0.000665356 0.00133296 0)
(0.000495328 0.00148002 0)
(0.000306729 0.00161729 0)
(2.21139e-06 -9.52763e-05 0)
(2.56272e-05 -0.0003039 0)
(7.31886e-05 -0.000492527 0)
(0.000140865 -0.000657191 0)
(0.00022548 -0.000794177 0)
(0.00032448 -0.000901091 0)
(0.000435605 -0.000976196 0)
(0.000556616 -0.00101827 0)
(0.000685197 -0.00102649 0)
(0.000818801 -0.00100039 0)
(0.000954447 -0.000939999 0)
(0.0010885 -0.000846146 0)
(0.00121645 -0.000720984 0)
(0.00133262 -0.000568639 0)
(0.00143013 -0.000396238 0)
(0.001501 -0.000213733 0)
(0.00154205 -4.21055e-05 0)
(0.00155242 0.000130625 0)
(0.00152335 0.000308332 0)
(0.00145671 0.000427653 0)
(0.00138878 0.000463634 0)
(0.00131248 0.000506732 0)
(0.00118724 0.000562219 0)
(0.00105713 0.000563844 0)
(0.00097165 0.000497606 0)
(0.000898214 0.000450307 0)
(0.000805356 0.000394583 0)
(0.000756495 0.000284198 0)
(0.000777708 0.00029644 0)
(0.000808512 0.000407068 0)
(0.000833192 0.000548996 0)
(0.000833111 0.000883727 0)
(0.00101892 0.0010637 0)
(0.00125207 -4.07807e-05 0)
(0.00140816 -4.79001e-05 0)
(0.00159508 4.98215e-05 0)
(0.00170252 1.43142e-06 0)
(0.0017675 5.66978e-05 0)
(0.00176592 0.000160305 0)
(0.00171444 0.000250919 0)
(0.00167498 0.000337062 0)
(0.00164586 0.000468084 0)
(0.00158844 0.000638263 0)
(0.00149817 0.000811258 0)
(0.00138818 0.000983899 0)
(0.00126059 0.00115691 0)
(0.00111497 0.00132956 0)
(0.000950874 0.00149988 0)
(0.000767892 0.00166583 0)
(0.00056486 0.00182261 0)
(2.27619e-06 -0.000107876 0)
(2.62651e-05 -0.000341244 0)
(7.5031e-05 -0.000551274 0)
(0.000144585 -0.00073459 0)
(0.000231882 -0.000887749 0)
(0.000334566 -0.00100859 0)
(0.000450662 -0.0010955 0)
(0.000578292 -0.0011473 0)
(0.000715598 -0.00116302 0)
(0.000860586 -0.00114191 0)
(0.00101091 -0.0010834 0)
(0.00116362 -0.000987502 0)
(0.00131472 -0.000855153 0)
(0.00145864 -0.000688869 0)
(0.00158743 -0.00049416 0)
(0.00169083 -0.000280206 0)
(0.00175793 -7.35848e-05 0)
(0.00178086 0.000138212 0)
(0.00175294 0.000359868 0)
(0.0016775 0.000506481 0)
(0.00160848 0.000514824 0)
(0.00154617 0.000599132 0)
(0.00140805 0.000724131 0)
(0.00124476 0.000684182 0)
(0.00114855 0.000566366 0)
(0.00111468 0.000501611 0)
(0.00111347 0.0004446 0)
(0.00111908 0.000280466 0)
(0.00113765 0.000259408 0)
(0.00118601 0.000353817 0)
(0.00125038 0.000488147 0)
(0.001381 0.000769695 0)
(0.00170181 0.000701756 0)
(0.00188428 -5.55325e-05 0)
(0.00191333 -0.000230675 0)
(0.00208902 -0.000113558 0)
(0.00222888 -6.63288e-05 0)
(0.00226274 3.99988e-05 0)
(0.00220221 0.000229508 0)
(0.0020935 0.000315744 0)
(0.00204687 0.000364885 0)
(0.00203911 0.000506227 0)
(0.00198236 0.000719445 0)
(0.00187619 0.000917682 0)
(0.00175356 0.00110838 0)
(0.00161541 0.00129899 0)
(0.00145919 0.00149021 0)
(0.00128343 0.00167957 0)
(0.00108785 0.0018653 0)
(0.000871058 0.00204375 0)
(2.27936e-06 -0.000120629 0)
(2.64508e-05 -0.000379241 0)
(7.57557e-05 -0.000611197 0)
(0.000146304 -0.000813816 0)
(0.000235212 -0.000983987 0)
(0.000340331 -0.00111984 0)
(0.000459973 -0.00122 0)
(0.000592634 -0.00128337 0)
(0.000736941 -0.00130903 0)
(0.000891546 -0.00129603 0)
(0.00105497 -0.00124343 0)
(0.0012254 -0.00115046 0)
(0.00140026 -0.00101676 0)
(0.00157549 -0.000842615 0)
(0.00174391 -0.000630044 0)
(0.00189362 -0.000385008 0)
(0.00200616 -0.000132881 0)
(0.00206831 0.000128783 0)
(0.00206307 0.000413884 0)
(0.00198141 0.000604818 0)
(0.00187059 0.000581685 0)
(0.00176649 0.000684844 0)
(0.00163104 0.000896977 0)
(0.00150768 0.000792119 0)
(0.00146014 0.000611877 0)
(0.00147521 0.000487685 0)
(0.00155127 0.000394206 0)
(0.00161934 0.000261231 0)
(0.00164762 0.000229584 0)
(0.00168795 0.000287616 0)
(0.00175772 0.000389795 0)
(0.0019528 0.000507227 0)
(0.00227479 0.000368829 0)
(0.00246214 -6.88181e-05 0)
(0.00247919 -0.000295267 0)
(0.00254017 -0.000277835 0)
(0.00265715 -0.000150003 0)
(0.00271599 4.31716e-05 0)
(0.00263837 0.000355587 0)
(0.00249099 0.000406282 0)
(0.0024512 0.00036276 0)
(0.00248635 0.000521251 0)
(0.00242882 0.000815806 0)
(0.00229717 0.00103866 0)
(0.00216277 0.0012435 0)
(0.00201665 0.0014509 0)
(0.00185171 0.00166156 0)
(0.00166542 0.00187158 0)
(0.00145781 0.00207794 0)
(0.00122827 0.0022796 0)
(2.21468e-06 -0.000133273 0)
(2.61646e-05 -0.000417349 0)
(7.53189e-05 -0.000671503 0)
(0.000145935 -0.000893848 0)
(0.000235301 -0.00108164 0)
(0.000341447 -0.00123336 0)
(0.00046292 -0.00134791 0)
(0.000598512 -0.00142443 0)
(0.000747233 -0.00146213 0)
(0.000908261 -0.00146013 0)
(0.0010809 -0.0014174 0)
(0.00126448 -0.00133288 0)
(0.00145821 -0.00120538 0)
(0.00166089 -0.00103341 0)
(0.00186967 -0.000814824 0)
(0.00207596 -0.000548076 0)
(0.00225442 -0.000245626 0)
(0.00238376 6.64848e-05 0)
(0.00244046 0.000445598 0)
(0.00239197 0.000719916 0)
(0.00222431 0.000735963 0)
(0.00200423 0.000809917 0)
(0.00188172 0.00100143 0)
(0.00184183 0.000853617 0)
(0.00183824 0.000608082 0)
(0.0019096 0.000418278 0)
(0.00203094 0.000280876 0)
(0.00214075 0.000204604 0)
(0.00222189 0.000177516 0)
(0.0023006 0.00022248 0)
(0.00238792 0.000282032 0)
(0.00255247 0.000239333 0)
(0.00280758 9.53574e-05 0)
(0.0030104 -0.00019679 0)
(0.00310015 -0.000334873 0)
(0.00316716 -0.000367668 0)
(0.00322837 -0.000215849 0)
(0.00324486 6.40807e-05 0)