/*--------------------------------*- C++ -*----------------------------------*\
| =========                 |                                                 |
| \\      /  F ield         | OpenFOAM: The Open Source CFD Toolbox           |
|  \\    /   O peration     | Version:  2.4.0                                 |
|   \\  /    A nd           | Web:      www.OpenFOAM.org                      |
|    \\/     M anipulation  |                                                 |
\*---------------------------------------------------------------------------*/
FoamFile
{
    version     2.0;
    format      ascii;
    class       volScalarField;
    location    "0.118";
    object      alpha.water;
}
// * * * * * * * * * * * * * * * * * * * * * * * * * * * * * * * * * * * * * //

dimensions      [0 0 0 0 0 0 0];

internalField   nonuniform List<scalar> 
3600
(
1
1
1
1
1
1
1
1
1
1
1
1
1
1
1
1
1
0.999716
0.994128
0.993162
0.995443
0.999348
0.998556
0.998329
0.998328
0.998299
0.999517
0.999607
0.996397
0.985119
1
1
1
1
1
1
1
1
1
1
1
1
1
1
1
1
1
0.999975
0.996706
0.993668
0.999952
0.99995
0.999952
0.999891
0.999951
0.99995
0.999834
0.994657
0.979675
0.979666
1
1
1
1
1
1
1
1
1
1
1
1
1
1
1
1
1
1
0.99921
0.994084
0.999953
0.999953
0.999953
0.999952
0.999952
0.999954
0.992483
0.979757
0.979666
0.979675
1
1
1
1
1
1
1
1
1
1
1
1
1
1
1
1
1
1
0.999977
0.99427
0.999952
0.999914
0.999821
0.999952
0.999951
0.999961
0.999255
0.992441
0.989526
0.992621
1
1
1
1
1
1
1
1
1
1
1
1
1
1
1
1
1
1
0.999999
0.994122
0.999855
0.999606
0.999065
0.999134
0.999907
0.999961
0.999961
0.999961
0.99996
0.999958
1
1
1
1
1
1
1
1
1
1
1
1
1
1
1
1
1
1
1
0.994122
0.999318
0.999824
0.999646
0.998258
0.999678
0.999961
0.999961
0.99991
0.999873
0.999855
1
1
1
1
1
1
1
1
1
1
1
1
1
1
1
1
1
1
1
0.998642
0.999602
0.999824
0.999824
0.997742
0.999435
0.999895
0.999925
0.999898
0.999754
0.99975
1
1
1
1
1
1
1
1
1
1
1
1
1
1
1
1
1
1
1
0.999995
0.998768
0.999318
0.995907
0.994663
0.996128
0.999646
0.999998
0.999998
0.999985
0.999754
1
1
1
1
1
1
1
1
1
1
1
1
1
1
1
1
1
1
1
1
0.999071
0.994734
0.994663
0.994663
0.994663
0.998911
0.999999
0.999998
0.999998
0.999952
1
1
1
1
1
1
1
1
1
1
1
1
1
1
1
1
1
1
1
1
1
0.995667
0.994663
0.994663
0.996702
0.999915
1
0.999998
0.999998
0.999998
1
1
1
1
1
1
1
1
1
1
1
1
1
1
1
1
1
1
1
1
1
0.999572
0.995291
0.995355
0.998989
1
1
0.999997
0.999962
0.999987
1
1
1
1
1
1
1
1
1
1
1
1
1
1
1
1
1
1
1
1
1
1
0.999409
0.999635
0.999985
1
1
1
0.999678
0.99977
1
1
1
1
1
1
1
1
1
1
1
1
1
1
1
1
1
1
1
1
1
1
1
1
1
1
1
0.999891
0.999515
0.999545
1
1
1
1
1
1
1
1
1
1
1
1
1
1
1
1
1
1
1
1
1
1
1
1
1
0.999999
0.999723
0.999522
0.99952
0.999515
1
1
1
1
1
1
1
1
1
1
1
1
1
1
1
1
1
1
1
1
1
1
1
1
1
0.999999
0.999837
0.999744
1
0.999564
1
1
1
1
1
1
1
1
1
1
1
1
1
1
1
1
1
1
1
1
1
1
1
1
1
1
0.999999
1
1
0.999897
1
1
1
1
1
1
1
1
1
1
1
1
1
1
1
1
1
1
1
1
1
1
1
1
1
1
1
1
1
0.999741
1
1
1
1
1
1
1
1
1
1
1
1
1
1
1
1
1
1
1
1
1
1
1
1
0.999999
1
1
0.999952
0.999773
0.999684
1
1
1
1
1
1
1
1
1
1
1
1
1
1
1
1
1
1
1
1
1
1
1
1
0.999957
0.999887
0.999889
0.999874
0.999864
0.999827
1
1
1
1
1
1
1
1
1
1
1
1
1
1
1
1
1
1
1
1
1
1
1
1
0.999996
0.999916
0.999883
0.999922
0.999999
0.999997
1
1
1
1
1
1
1
1
1
1
0.999991
0.968938
0.985242
1
1
1
1
1
0.9998
1
0.998568
0.999734
1
1
1
0.999992
0.999883
0.999995
0.999999
0.999993
1
1
1
1
1
1
1
1
1
0.999991
0.894416
0.615085
0.86468
0.983655
0.999246
0.999848
0.99398
0.995952
0.99946
0.995367
0.991477
0.999083
1
1
1
1
0.999967
1
1
0.999997
1
1
1
1
1
1
1
1
0.999998
0.869009
0.274997
0.487161
0.797691
0.918376
0.979434
0.979544
0.986186
0.998056
0.999434
0.989389
0.989422
0.998549
1
1
1
1
1
1
1
1
1
1
1
1
1
1
1
1
0.966503
0.202355
0.0132307
0.160031
0.48613
0.796968
0.994164
0.994276
0.993002
0.995998
0.993642
0.989333
0.987995
0.99996
0.999967
1
1
0.999999
1
1
1
0.999991
1
1
1
1
1
1
1
0.999119
0.377984
0.000765435
0.000531333
0.00588255
0.259429
0.772084
0.980445
0.998165
0.998154
0.993364
0.992372
0.995361
0.98645
0.991408
0.999549
1
1
0.999993
0.999789
0.999691
0.999952
0.999918
1
1
1
1
1
1
0.999981
0.842895
0.0400777
5.68433e-05
7.09761e-05
0.000362457
0.0800887
0.469209
0.909918
0.998169
0.998168
0.998166
0.997667
0.995533
0.98645
0.98645
0.999557
0.999975
1
0.999986
0.999691
0.999636
0.99965
0.999934
1
1
1
1
1
1
0.998508
0.167473
3.96324e-05
3.47374e-05
1.04261e-05
5.76033e-05
0.00223228
0.140137
0.7023
0.998169
0.998169
0.998168
0.998166
0.99491
0.98645
0.987551
0.999996
0.999988
0.999999
0.999995
0.999755
0.999636
0.999641
0.999984
1
1
1
1
1
0.999875
0.681697
0.0133647
2.03124e-06
2.38476e-08
1.54279e-06
0.0001236
0.00341628
0.000458066
0.242895
0.928159
0.998168
0.998168
0.998167
0.997203
0.986474
0.989975
0.999998
0.999998
0.999998
0.999996
0.999777
0.999636
0.999761
0.999944
1
1
1
1
0.999998
0.953779
0.029534
1.14836e-06
5.24736e-08
2.18017e-08
5.26017e-08
5.83851e-05
0.00239734
6.5344e-05
0.00336679
0.429242
0.950516
0.998167
0.998149
0.998117
0.991951
0.987085
0.994742
0.999552
0.999998
0.999995
0.999767
0.999644
0.999973
0.999924
1
1
1
1
0.962153
0.312726
0.00251193
3.01862e-06
-2.60458e-07
1.07052e-08
3.08544e-08
0.000324655
0.000242147
3.75077e-06
5.53527e-05
0.0260568
0.429068
0.893189
0.998118
0.99798
0.994342
0.987119
0.987256
0.999998
0.999998
0.999955
0.999855
0.999904
0.999973
0.99989
0.984628
0.996809
0.999706
0.999609
0.998312
0.998321
0.99829
0.998491
0.999273
0.995531
0.993337
0.994213
0.999709
1
1
1
1
1
1
1
1
1
1
1
1
1
1
1
1
1
0.97967
0.979683
0.99461
0.999862
0.999954
0.999954
0.99991
0.999955
0.999941
0.999955
0.99382
0.996714
0.999973
1
1
1
1
1
1
1
1
1
1
1
1
1
1
1
1
1
0.979683
0.979674
0.979778
0.992991
0.999955
0.999954
0.999955
0.999955
0.999955
0.999955
0.994206
0.999194
1
1
1
1
1
1
1
1
1
1
1
1
1
1
1
1
1
1
0.992433
0.990221
0.992971
0.99927
0.999961
0.999954
0.999954
0.999837
0.999923
0.999955
0.994477
0.999971
1
1
1
1
1
1
1
1
1
1
1
1
1
1
1
1
1
1
0.999958
0.99996
0.999961
0.999961
0.999961
0.999924
0.999139
0.999037
0.999604
0.999877
0.99425
0.999998
1
1
1
1
1
1
1
1
1
1
1
1
1
1
1
1
1
1
0.999857
0.999874
0.999905
0.999961
0.999961
0.9997
0.998225
0.999658
0.999859
0.999343
0.994251
1
1
1
1
1
1
1
1
1
1
1
1
1
1
1
1
1
1
1
0.99975
0.99975
0.999884
0.999898
0.999893
0.999382
0.997475
0.999842
0.999858
0.999667
0.998377
1
1
1
1
1
1
1
1
1
1
1
1
1
1
1
1
1
1
1
0.999751
0.999968
0.999998
0.999998
0.999693
0.996076
0.99462
0.995701
0.999368
0.998821
0.999996
1
1
1
1
1
1
1
1
1
1
1
1
1
1
1
1
1
1
1
0.999945
0.999998
0.999998
0.999999
0.999064
0.99462
0.99462
0.99462
0.994716
0.999041
1
1
1
1
1
1
1
1
1
1
1
1
1
1
1
1
1
1
1
1
0.999998
0.999998
0.999997
1
0.999951
0.996981
0.99462
0.99462
0.995484
1
1
1
1
1
1
1
1
1
1
1
1
1
1
1
1
1
1
1
1
1
0.99999
0.999997
0.999993
1
1
0.999127
0.995462
0.995216
0.99948
1
1
1
1
1
1
1
1
1
1
1
1
1
1
1
1
1
1
1
1
1
0.999772
0.999815
1
1
1
0.999992
0.999681
0.999428
1
1
1
1
1
1
1
1
1
1
1
1
1
1
1
1
1
1
1
1
1
1
0.999569
0.99952
0.999948
1
1
1
1
1
1
1
1
1
1
1
1
1
1
1
1
1
1
1
1
1
1
1
1
1
1
1
0.999515
0.999518
0.99952
0.999759
1
1
1
1
1
1
1
1
1
1
1
1
1
1
1
1
1
1
1
1
1
1
1
1
1
1
0.999727
1
0.999763
0.999912
1
1
1
1
1
1
1
1
1
1
1
1
1
1
1
1
1
1
1
1
1
1
1
1
1
1
0.999911
1
1
1
1
1
1
1
1
1
1
1
1
1
1
1
1
1
1
1
1
1
1
1
1
1
1
1
1
1
0.999773
1
1
1
1
1
1
1
1
1
1
1
1
1
1
1
1
1
1
1
1
1
1
1
1
1
1
1
1
1
0.999684
0.999857
0.999963
1
1
0.999999
1
1
1
1
1
1
1
1
1
1
1
1
1
1
1
1
1
1
1
1
1
1
1
1
0.999853
0.999884
0.99989
0.9999
0.999899
0.999974
1
1
1
1
1
1
1
1
1
1
1
1
1
1
1
1
1
1
1
1
1
1
1
1
0.999998
0.999999
0.999924
0.999891
0.999933
0.999999
1
1
0.999895
0.999423
1
1
1
1
1
1
1
1
1
1
1
1
1
1
1
1
1
1
1
1
0.999995
1
0.999995
0.999905
0.999996
1
1
1
1
0.990052
0.99889
1
1
1
1
0.998126
0.983179
0.969486
1
0.999996
1
1
1
1
1
1
1
1
1
1
0.999999
1
1
0.999993
1
1
1
1
0.995267
0.987589
0.984696
0.997826
0.999974
0.998116
0.995988
0.995747
0.921292
0.844115
0.68736
0.87294
0.999989
1
1
1
1
1
1
1
1
1
0.999998
1
1
1
1
1
1
0.998023
0.993235
0.993053
0.980922
0.997914
0.999877
0.996178
0.997704
0.990822
0.923498
0.766292
0.278556
0.197138
0.84023
0.999999
1
1
1
1
1
1
1
1
0.999986
1
1
1
1
1
1
0.996701
0.996086
0.983725
0.980922
0.99987
0.999874
0.996187
0.998305
0.995571
0.866019
0.606865
0.149813
0.00404264
0.162004
0.966586
1
1
1
1
1
1
1
1
0.999982
1
0.999823
0.999814
0.999962
1
1
0.997312
0.990003
0.981195
0.982052
0.985779
0.994963
0.998266
0.998307
0.990666
0.793487
0.347619
0.020616
0.000264079
0.0403143
0.383
0.999992
1
1
1
1
1
1
1
0.999984
1
0.999731
0.999671
0.999882
1
1
0.998071
0.981195
0.981181
0.996048
0.993549
0.99401
0.998307
0.998307
0.929456
0.47123
0.114215
0.00212975
3.40312e-05
8.11449e-05
0.0492174
0.840694
0.999979
1
1
1
1
1
1
0.999984
0.999807
0.999671
0.999671
0.9999
0.999997
0.999998
0.999997
0.982271
0.981191
0.994817
0.998287
0.998307
0.998308
0.998307
0.695213
0.0984958
0.00160491
0.00194849
5.32033e-06
1.96564e-05
6.33199e-05
0.172172
0.998501
1
1
1
1
1
1
0.999984
0.999954
0.999671
0.999671
0.999943
0.999998
0.999998
0.999998
0.99205
0.981201
0.992722
0.998306
0.998308
0.998307
0.880193
0.211572
0.00325316
0.000148049
0.000602425
1.24211e-06
1.17133e-07
-2.62345e-06
0.0120327
0.678398
0.99985
1
1
1
1
1
0.999962
0.999968
0.999739
0.999671
0.999943
0.999998
0.999998
0.999998
0.993727
0.981543
0.995544
0.998304
0.998306
0.984423
0.392139
0.000729209
0.000160344
4.13984e-05
3.29408e-07
1.17338e-07
5.3959e-08
1.45596e-07
1.59848e-06
0.0292024
0.953587
0.999998
1
1
1
1
0.999838
0.999967
0.999941
0.999897
0.999915
0.999998
0.999998
0.999277
0.986367
0.993795
0.998207
0.998254
0.994958
0.587195
0.0395019
9.33329e-05
9.44896e-06
1.48472e-05
-1.71309e-07
4.28138e-08
9.30883e-09
-2.00964e-08
3.08006e-06
0.00248812
0.309185
0.961504
1
1
1
1
1
1
1
0.999921
0.908476
0.0118197
1.29285e-05
2.72417e-07
-1.69749e-08
1.07101e-08
1.07044e-08
0.000296942
3.75342e-06
-4.68978e-08
3.46382e-06
6.76048e-05
0.0300522
0.379109
0.84731
0.997708
0.997801
0.992608
0.987745
0.999997
0.999998
0.999988
0.999987
0.999984
0.999976
0.996741
1
1
1
0.979913
0.321954
0.00895096
4.9127e-06
-1.00239e-06
7.653e-09
1.07139e-08
1.10201e-08
0.00013417
2.31394e-06
2.6008e-07
4.3272e-07
6.06626e-06
0.000134152
0.0315218
0.359626
0.876643
0.998333
0.998416
0.98971
0.999997
0.999997
0.99999
0.999975
0.999869
0.999348
0.995967
1
1
1
0.945492
0.0144724
2.59323e-05
6.53833e-07
-8.93411e-08
2.91222e-09
2.65405e-08
8.13431e-09
-2.8657e-07
1.1973e-06
2.29815e-07
2.86152e-07
1.28186e-06
1.32376e-05
0.000170513
0.00320505
0.3801
0.990132
0.999273
0.998935
0.99981
0.999735
0.999583
0.998446
0.998054
0.997976
0.995972
0.992978
0.970245
0.97171
0.484333
0.0139969
5.14189e-07
-1.34929e-07
1.89981e-10
2.10535e-09
4.59517e-08
1.13423e-08
-8.89337e-08
4.89672e-07
1.96413e-07
4.5151e-06
4.80914e-05
5.50177e-05
8.159e-05
0.000617095
0.0308561
0.552671
0.999541
0.999656
0.99978
0.999209
0.998021
0.997152
0.997014
0.997392
0.996965
0.729426
0.96052
0.775497
7.32622e-05
1.7975e-06
3.24074e-08
-1.01009e-08
1.68881e-10
1.49458e-09
4.52952e-08
9.29327e-08
1.40955e-08
4.33705e-07
1.98468e-07
9.08964e-07
0.000103745
9.97294e-05
9.18007e-06
1.04149e-06
7.36698e-06
0.122643
0.936195
0.999541
0.999622
0.999263
0.997983
0.997106
0.996954
0.997306
0.997011
0.43937
0.598473
0.582076
0.0228413
-2.80355e-07
-1.78918e-07
2.09362e-11
3.28423e-11
1.98941e-10
1.33049e-09
1.16604e-07
1.3377e-07
2.96035e-07
1.27341e-07
8.50549e-09
0.00010313
1.4603e-05
9.10819e-06
9.08144e-06
8.62705e-06
8.24145e-06
0.213362
0.969282
0.910449
0.989737
0.995426
0.996679
0.996565
0.996928
0.996632
0.016783
0.0590825
0.0226328
2.18935e-05
5.73094e-13
-1.77339e-10
2.68523e-13
1.30825e-11
1.99103e-10
1.55674e-09
3.77578e-08
4.08432e-08
1.09292e-07
1.14824e-08
8.37634e-09
4.11561e-05
1.96739e-05
1.15543e-05
9.13735e-06
9.13721e-06
9.83735e-06
2.89445e-05
0.199076
0.247021
0.488178
0.550018
0.644355
0.697689
0.712795
0.733915
1.05931e-10
8.49079e-11
3.57987e-11
1.15323e-11
4.73337e-12
5.30292e-12
5.74177e-12
2.5205e-11
1.54137e-10
4.97661e-09
1.37882e-08
9.8626e-09
7.60367e-09
7.94365e-09
8.36515e-09
8.37864e-09
8.03127e-05
9.19735e-05
4.4692e-05
1.03874e-05
6.34886e-05
0.00185715
1.56983e-06
7.82432e-07
7.47104e-07
6.76163e-07
0.017486
0.0372978
0.0504225
0.0566262
1.68019e-07
1.1772e-09
1.56245e-09
1.75053e-11
5.07851e-12
1.06497e-11
5.35806e-12
1.90138e-11
8.83669e-11
6.7605e-09
3.30723e-08
1.62519e-08
7.81971e-09
8.37522e-09
8.36526e-09
8.36701e-09
0.000103727
0.00010392
7.78269e-05
1.00357e-05
1.00157e-05
2.36179e-06
7.82487e-07
7.47133e-07
6.7619e-07
6.0879e-07
6.05122e-07
6.01603e-07
5.9786e-07
5.95245e-07
1.36326e-06
8.25369e-08
1.7721e-09
1.04139e-11
4.10177e-12
1.09272e-11
3.68301e-12
1.37572e-11
1.54142e-10
2.32965e-09
1.83671e-08
1.14982e-08
8.56515e-09
8.3742e-09
8.35931e-09
4.27069e-05
0.000101085
7.82253e-05
3.37381e-05
1.40703e-05
8.99904e-06
2.17743e-06
2.09128e-06
1.85663e-06
7.47178e-07
2.90065e-06
6.08243e-07
6.0414e-07
6.00312e-07
5.9645e-07
2.11471e-06
2.68697e-07
7.681e-09
1.37215e-07
2.28563e-12
1.01732e-11
2.43173e-12
1.05661e-11
1.50596e-10
2.64353e-09
3.28664e-08
1.10262e-08
1.08395e-08
1.34638e-08
8.24475e-09
2.9754e-05
4.33756e-05
0.000144673
0.000146687
8.1148e-05
2.55436e-06
2.17744e-06
5.62507e-06
3.10352e-05
2.48926e-05
2.14915e-05
6.08596e-07
6.02253e-07
5.9698e-07
5.955e-07
2.34803e-06
1.17716e-06
5.70785e-06
6.70276e-07
2.16647e-12
8.92655e-12
1.50404e-12
7.8268e-12
1.0561e-10
4.11667e-09
5.053e-08
1.14782e-08
1.23438e-08
1.62606e-08
8.55478e-09
8.45304e-09
2.32115e-05
0.000147853
0.000147288
6.48038e-05
2.23301e-06
2.18279e-06
2.18234e-06
3.96542e-05
0.000166012
2.32755e-05
6.10078e-07
6.06199e-07
5.97558e-07
5.8874e-07
2.34573e-06
9.77465e-06
1.21154e-05
6.53763e-07
2.12753e-12
7.40885e-12
8.62064e-13
3.23681e-12
4.382e-11
1.10148e-09
5.03527e-08
1.46771e-08
8.03547e-09
1.60938e-08
7.7061e-09
7.9439e-09
9.78145e-05
0.00014764
7.14001e-05
1.00096e-05
2.12743e-06
2.18237e-06
2.18234e-06
7.19235e-06
0.000264819
7.615e-05
6.15722e-07
6.29546e-07
6.09381e-07
5.86778e-07
8.06417e-07
1.21349e-05
1.21349e-05
1.13278e-07
2.09753e-12
5.65406e-12
4.75531e-13
1.43132e-12
2.09603e-11
3.40785e-11
2.79179e-08
1.28383e-07
7.84257e-09
7.72465e-09
7.62068e-09
7.68892e-09
0.00035874
8.73761e-05
1.36478e-05
5.63306e-06
1.98603e-06
2.09809e-06
2.18237e-06
0.000100453
0.000265947
0.000144813
6.62506e-07
1.53461e-05
4.27133e-05
2.45301e-05
2.97631e-22
1.21343e-05
1.17954e-05
4.22824e-08
2.06082e-12
3.74877e-12
2.48901e-13
6.01393e-13
1.06985e-11
2.10305e-11
2.19194e-08
1.31223e-07
9.99258e-08
8.06193e-09
4.68826e-09
0.000400063
0.0004682
2.869e-05
3.8244e-07
1.35382e-06
1.4223e-06
4.88747e-06
2.18236e-06
0.00016634
0.000266244
0.000216187
2.90334e-06
9.07915e-05
0.00010262
9.2609e-05
2.29023e-18
5.20369e-06
1.13574e-06
3.48525e-08
2.01312e-12
1.99625e-12
1.18398e-13
2.26534e-13
3.37801e-12
1.49516e-11
5.46147e-09
9.03814e-08
7.85842e-08
1.34316e-10
0.000227249
0.000801209
0.000415758
1.58366e-06
1.59143e-07
2.21962e-05
9.27448e-05
7.83902e-05
1.8823e-05
0.000266209
0.000266156
0.000229076
3.80846e-05
0.000107459
9.0487e-05
1.0225e-05
1.29539e-13
3.45475e-12
3.1438e-12
2.90188e-12
2.89456e-12
7.76696e-13
4.98136e-14
9.52697e-14
9.76019e-13
1.13264e-11
1.19521e-10
1.477e-09
2.44559e-09
3.82171e-11
0.00078649
0.000801209
0.000258799
1.53637e-07
2.38446e-08
1.08102e-05
0.000102127
0.000102127
5.96543e-05
0.000109677
0.000266203
0.000263251
8.76765e-05
0.00010801
0.000209971
5.05783e-06
2.67062e-12
7.10158e-12
3.70092e-11
1.28164e-11
2.81478e-12
2.27805e-13
1.87373e-14
3.92985e-14
4.19269e-13
3.58548e-12
2.82084e-11
3.68789e-11
5.10563e-11
3.31196e-11
0.000717882
0.000484242
2.13389e-05
1.73294e-08
7.20941e-09
5.57911e-09
2.16315e-05
7.52335e-05
3.4876e-05
1.27598e-07
0.000139223
0.000262828
9.28591e-05
9.31184e-05
0.000264926
0.000152406
8.19415e-13
9.47267e-11
6.52305e-11
1.79269e-11
1.65497e-12
1.02254e-13
6.8107e-15
9.47253e-15
9.38253e-14
7.47047e-13
6.11564e-12
5.6555e-11
1.5437e-10
3.1078e-11
8.25774e-05
6.9692e-06
1.20295e-07
5.58521e-09
6.61841e-09
4.38101e-09
3.54203e-09
9.68598e-07
8.04596e-07
6.07803e-09
5.76597e-08
0.000222618
9.51057e-05
9.49155e-05
0.000272859
0.000265488
2.24038e-13
3.99538e-11
4.73718e-11
1.02284e-11
7.4447e-13
3.84919e-14
2.19222e-15
3.48012e-15
3.7456e-14
2.83463e-13
1.82113e-12
1.29296e-11
6.25979e-11
3.01513e-11
-3.8009e-10
3.20088e-09
3.17133e-09
5.35564e-09
6.21059e-09
4.31008e-09
5.87965e-10
9.1381e-10
1.90672e-09
1.71826e-09
2.85878e-09
0.000121261
0.000123709
0.000110411
0.000273472
0.000274588
3.45712e-14
1.0592e-11
1.0325e-11
2.65841e-12
2.41071e-13
1.16494e-14
5.5844e-16
1.16944e-15
1.39428e-14
1.12042e-13
6.93354e-13
3.69458e-12
2.25397e-11
2.84189e-11
3.80802e-11
1.04328e-10
1.68734e-10
3.18688e-10
5.08052e-10
5.12614e-10
5.27998e-10
6.01949e-10
1.21101e-09
1.54486e-09
1.63284e-09
3.49019e-09
0.000112203
0.000151731
0.000233684
0.000275052
3.53798e-15
1.50916e-12
3.14907e-12
7.49757e-13
6.53366e-14
2.68953e-15
1.04163e-16
3.29809e-16
4.29301e-15
3.70082e-14
2.38762e-13
1.25954e-12
7.64318e-12
1.76137e-11
2.69691e-11
9.06692e-11
1.45059e-10
1.8665e-10
1.88269e-10
1.8628e-07
1.55404e-07
8.26443e-09
1.50308e-09
1.58612e-09
1.57712e-09
1.63282e-09
4.63913e-05
0.000145972
0.00025422
0.000275052
2.36492e-16
1.09958e-13
6.57353e-13
1.50943e-13
1.26074e-14
4.32391e-16
1.35006e-17
7.49341e-17
1.11994e-15
1.12146e-14
8.41825e-14
5.03798e-13
3.11797e-12
1.19825e-11
6.1898e-11
7.05573e-11
8.5196e-11
8.09778e-10
1.98437e-10
2.55337e-07
8.54001e-08
1.11226e-08
9.08051e-06
1.74217e-05
2.34723e-08
1.04927e-07
2.08182e-07
2.85671e-05
0.000208955
0.000275052
1.0257e-17
4.20769e-15
8.76913e-14
1.90119e-14
1.49519e-15
4.34899e-17
1.21721e-18
1.35444e-17
2.43554e-16
2.9783e-15
2.74301e-14
2.10634e-13
1.61745e-12
8.45398e-12
3.03015e-11
4.79319e-11
4.84527e-11
9.14949e-09
6.17719e-07
3.24062e-07
8.91565e-08
3.80674e-05
7.13171e-05
7.27382e-05
6.57049e-05
9.44172e-06
1.42817e-06
2.64643e-06
3.15287e-05
0.000101102
2.86493e-19
7.94403e-17
6.51492e-15
1.31631e-15
9.62209e-17
2.44181e-18
7.68532e-20
1.63321e-18
3.64703e-17
5.63784e-16
6.59387e-15
6.5453e-14
6.09242e-13
4.38902e-12
2.21256e-11
4.18969e-11
5.33368e-10
5.39578e-10
3.61607e-06
3.99346e-06
2.16048e-06
1.11279e-07
3.94667e-05
7.34577e-05
7.37595e-05
7.37221e-05
2.79668e-05
3.86327e-06
4.9523e-06
5.61498e-06
5.12056e-21
5.24575e-19
2.43012e-16
4.46553e-17
2.95923e-18
6.65533e-20
3.29167e-21
1.20024e-19
3.55455e-18
7.48424e-17
1.23511e-15
1.81801e-14
2.457e-13
2.51611e-12
1.73246e-11
1.74638e-11
8.36962e-09
1.3828e-08
8.70943e-08
3.54916e-07
7.24413e-07
9.7186e-08
5.72438e-06
7.34757e-05
7.37595e-05
7.37595e-05
4.45512e-05
4.93917e-06
4.75678e-06
4.75721e-06
5.80344e-23
8.80366e-22
4.01331e-18
6.40961e-19
3.67598e-20
7.22394e-22
8.66207e-23
4.99021e-21
2.08215e-19
6.30531e-18
1.5209e-16
3.15522e-15
5.72416e-14
7.54211e-13
6.32879e-12
2.97437e-11
3.04647e-11
4.01274e-11
3.6149e-07
8.7531e-07
5.76456e-07
9.40957e-08
2.47419e-06
4.20577e-05
7.25093e-05
4.88525e-05
9.19606e-06
4.75336e-06
4.75712e-06
4.75678e-06
4.17328e-25
3.68168e-25
2.39094e-20
3.06487e-21
1.40301e-22
2.28557e-24
8.18007e-25
7.40898e-23
4.76316e-21
2.29497e-19
9.20489e-18
3.17348e-16
9.49571e-15
2.14918e-13
3.20039e-12
2.68981e-11
3.67286e-11
5.11049e-11
2.6023e-07
8.79838e-07
4.70625e-07
8.82836e-08
9.21571e-08
2.20281e-06
4.73263e-05
7.72015e-05
6.397e-05
3.25741e-05
1.78e-05
1.77041e-05
1.94872e-27
8.89609e-28
4.02004e-23
3.49407e-24
1.06836e-25
1.2137e-27
1.22521e-27
1.99593e-25
2.34181e-23
2.11848e-21
1.64963e-19
1.1294e-17
6.42497e-16
2.50338e-14
5.55603e-13
6.59555e-12
4.50491e-11
5.08626e-11
1.29162e-08
3.59321e-07
4.56273e-07
8.58372e-08
8.82889e-08
1.20038e-07
2.09249e-05
6.95963e-05
0.000111709
0.000155523
0.000190831
0.000197879
6.53731e-30
2.91291e-30
2.00004e-26
6.53992e-28
7.2395e-30
3.04251e-32
7.35499e-33
3.91921e-30
1.59894e-27
5.21577e-25
1.53223e-22
3.77924e-20
6.15175e-18
5.2856e-16
2.28627e-14
5.30279e-13
6.94044e-12
4.9027e-11
7.1151e-11
3.85487e-09
5.24774e-08
8.48101e-08
8.58444e-08
6.8261e-07
4.02874e-06
1.15705e-05
2.84283e-05
4.83538e-05
6.0743e-05
7.16981e-05
0.996201
0.999897
0.999984
0.999992
0.999994
0.999998
0.999998
0.987709
0.986492
0.995687
0.998091
0.998207
0.678142
0.0566459
7.94295e-05
8.58446e-06
1.78438e-06
5.04664e-06
-2.18167e-07
9.04037e-09
6.4153e-09
-1.06091e-08
3.01419e-07
1.37724e-05
0.0119657
0.908467
0.999922
1
1
1
0.995967
0.998949
0.99966
0.999844
0.999992
0.999995
0.999983
0.987985
0.993752
0.997989
0.997805
0.770838
0.157239
0.0003749
1.24398e-05
-3.88857e-07
2.92182e-07
2.26862e-06
-1.02387e-07
4.96836e-09
5.28983e-09
4.54844e-09
-8.80067e-07
5.03066e-06
0.00871496
0.323114
0.980062
1
1
1
0.995967
0.997605
0.997946
0.997931
0.998931
0.999107
0.999662
0.995846
0.998795
0.998764
0.833855
0.260117
0.000859936
-3.71676e-06
6.98178e-07
3.24641e-08
1.31113e-07
2.65543e-07
-1.41235e-08
1.30319e-09
4.50849e-09
2.03668e-09
-9.06676e-08
6.38681e-07
2.5619e-05
0.0143519
0.945433
1
1
1
0.996812
0.99718
0.997063
0.996839
0.997432
0.998267
0.999597
0.999299
0.999012
0.944965
0.29578
0.000465162
2.46728e-05
8.0409e-07
-3.01262e-07
6.17385e-08
1.01921e-07
9.03091e-08
-2.829e-08
8.12249e-10
1.81091e-08
4.42978e-10
2.865e-10
-1.1045e-07
5.15489e-07
0.0142283
0.485996
0.97166
0.96993
0.991568
0.996923
0.99711
0.996995
0.996789
0.997529
0.998229
0.999289
0.999012
0.999002
0.434458
0.00150148
1.01564e-05
2.07265e-07
9.96119e-08
6.00511e-08
5.30051e-08
4.5241e-08
4.39433e-08
3.96002e-08
7.11586e-08
4.91998e-08
3.66126e-10
1.82e-10
-8.33601e-09
2.95896e-08
1.70847e-06
7.30935e-05
0.775853
0.960652
0.727483
0.996532
0.996792
0.996517
0.996413
0.991509
0.996071
0.885517
0.993596
0.501316
0.00199454
-2.88286e-07
2.25689e-07
1.92826e-07
1.68352e-07
9.83279e-08
4.58361e-08
4.43955e-08
4.39654e-08
9.69144e-08
2.14875e-07
4.73387e-08
1.13209e-10
2.94183e-11
2.44014e-11
-1.79317e-07
-1.15081e-07
0.0228363
0.583507
0.593116
0.43264
0.720904
0.718995
0.665781
0.654858
0.498524
0.570886
0.225156
0.401246
2.51218e-05
2.49471e-06
2.56105e-07
2.59774e-07
2.36162e-07
1.28192e-06
4.60579e-06
3.25626e-06
4.42463e-08
4.444e-08
5.11863e-08
2.14875e-07
1.8821e-08
3.57607e-11
7.65414e-12
3.4524e-12
-1.82039e-10
7.54682e-13
2.81909e-05
0.0231588
0.0568221
0.0147622
0.0483537
0.0530839
0.0268938
0.0236064
6.10935e-07
0.000495263
7.56794e-07
0.0132892
0.00711916
8.0132e-05
3.05716e-07
2.5806e-07
1.90185e-06
1.35101e-05
1.46912e-05
7.44428e-06
4.42669e-08
4.41976e-08
7.91247e-08
1.98292e-07
6.2404e-09
3.68664e-11
9.96766e-12
6.70342e-12
7.4079e-12
7.40205e-12
1.43168e-11
3.17089e-11
5.59177e-11
5.87238e-11
5.9388e-07
5.95364e-07
5.97616e-07
6.01258e-07
6.05616e-07
6.10909e-07
6.51747e-07
7.56832e-07
1.8805e-06
0.00011358
1.62762e-06
1.35582e-06
1.21984e-05
1.4915e-05
1.4915e-05
4.98409e-06
4.42046e-08
4.42741e-08
4.00465e-07
1.21059e-07
1.50665e-10
5.44919e-11
5.87377e-12
5.56923e-12
1.63e-11
1.06324e-11
2.07398e-11
1.4795e-10
6.58987e-11
1.75675e-07
5.96111e-07
5.97018e-07
5.99189e-07
6.03455e-07
6.10042e-07
1.86537e-06
3.48883e-06
2.75621e-06
2.28205e-06
5.5644e-06
1.85e-06
6.65719e-06
1.48643e-05
1.44904e-05
4.13859e-06
6.24916e-07
6.45848e-08
2.43862e-07
4.01617e-07
4.84911e-08
4.60885e-11
2.63486e-11
3.36961e-12
3.65702e-12
1.30622e-11
7.05334e-12
1.35904e-11
3.94678e-10
6.54947e-08
1.40989e-06
5.9503e-07
5.96759e-07
5.95699e-07
6.91159e-07
3.48298e-06
5.42304e-06
5.42705e-06
5.39814e-06
2.55478e-06
1.33559e-06
1.93871e-06
1.22678e-05
1.48643e-05
1.15351e-06
4.13278e-07
3.74655e-07
3.02484e-08
8.85309e-08
1.30671e-07
7.4475e-09
9.60848e-11
1.29709e-11
1.91207e-12
2.3223e-12
1.13991e-11
2.90349e-12
1.48245e-07
3.96456e-08
1.82111e-07
2.25083e-06
5.93573e-07
5.94888e-07
5.97857e-07
1.123e-06
5.09985e-06
5.42554e-06
2.84592e-06
9.7284e-07
9.84517e-07
1.03137e-06
5.47475e-06
1.36492e-05
8.95174e-06
1.4024e-07
1.18364e-06
1.55381e-06
2.32566e-08
1.41214e-08
1.4799e-08
7.71099e-10
4.74229e-11
4.33448e-12
1.00501e-12
1.42892e-12
9.70876e-12
2.79899e-12
5.84087e-07
7.06e-06
9.54716e-07
2.70507e-06
5.90068e-07
5.99425e-07
6.31863e-07
6.12502e-07
6.01056e-07
7.79882e-07
9.61407e-07
8.86223e-07
9.72851e-07
5.52472e-06
1.7273e-05
1.27853e-05
2.02222e-08
8.03426e-08
2.08734e-06
3.23376e-06
1.54663e-07
1.32111e-08
4.32977e-09
5.72919e-11
1.43507e-11
1.85572e-12
5.20348e-13
8.51746e-13
8.16174e-12
2.77061e-12
5.59351e-07
1.27026e-05
1.00094e-05
2.70176e-06
5.94775e-07
5.95768e-07
5.98731e-07
6.00671e-07
5.98883e-07
5.97967e-07
5.98319e-07
8.55983e-07
1.07412e-05
1.80184e-05
1.77e-05
1.03936e-05
1.78632e-08
2.34223e-08
1.50726e-06
3.24431e-06
3.09957e-06
1.32761e-06
4.84124e-11
2.81325e-11
6.5705e-12
7.89656e-13
2.53581e-13
4.87298e-13
6.4309e-12
2.75633e-12
1.41419e-07
1.27437e-05
1.27437e-05
1.17117e-06
5.95789e-07
5.98507e-07
6.01075e-07
6.0134e-07
6.00629e-07
6.10411e-07
8.95601e-07
1.17696e-05
1.81087e-05
1.80708e-05
1.80174e-05
7.61629e-06
1.7507e-08
1.74316e-08
1.53272e-07
1.98957e-06
3.11293e-06
5.11577e-07
5.67384e-11
5.48158e-11
3.6297e-12
4.4218e-13
1.23792e-13
2.60645e-13
4.4355e-12
2.75192e-12
3.3803e-08
1.08868e-05
1.27429e-05
3.48198e-23
2.87029e-05
4.62954e-05
2.64658e-05
6.0137e-07
6.03312e-07
6.11529e-07
1.07172e-06
1.50627e-05
1.80992e-05
1.80933e-05
1.69727e-05
1.34387e-06
1.74137e-08
1.69625e-08
1.53859e-08
5.15966e-08
5.38226e-07
1.26699e-10
2.91178e-11
9.68018e-12
1.57229e-12
2.40111e-13
5.47918e-14
1.23973e-13
2.44262e-12
2.74144e-12
1.2036e-08
1.40506e-10
7.99912e-06
4.08744e-19
4.03627e-06
4.72423e-05
5.54598e-05
5.56586e-05
2.19836e-05
6.64215e-07
6.99901e-07
5.8083e-06
1.21013e-05
1.09807e-05
2.2235e-06
3.43368e-09
2.85107e-08
2.62659e-08
6.18158e-10
8.91056e-10
4.15999e-10
3.60691e-11
2.05746e-11
3.74187e-12
7.81821e-13
1.17921e-13
2.14999e-14
5.01619e-14
9.4426e-13
4.20937e-12
4.23122e-12
9.41538e-12
6.1685e-08
7.58471e-14
3.02928e-06
8.71226e-06
5.41577e-05
5.70044e-05
5.69492e-05
5.10215e-05
1.56945e-05
1.09529e-08
5.06689e-08
4.32258e-08
7.08218e-10
3.39792e-09
9.6081e-09
2.01727e-10
2.01494e-10
1.76227e-10
8.96889e-11
5.57113e-11
7.68026e-12
1.75304e-12
3.58903e-13
5.1092e-14
7.42585e-15
1.80138e-14
2.50886e-13
2.785e-12
1.68038e-11
5.67682e-11
5.23594e-12
2.71757e-12
6.56376e-06
1.17928e-06
1.6346e-05
5.69585e-05
5.70044e-05
5.69491e-05
4.18858e-05
1.37382e-09
9.40926e-10
7.06403e-10
6.76498e-10
6.52692e-10
5.57821e-10
5.55303e-10
3.68211e-10
1.61726e-10
1.01377e-10
2.41626e-11
4.22239e-12
8.16818e-13
1.51107e-13
1.97863e-14
2.30645e-15
6.73454e-15
1.19651e-13
1.79712e-12
1.64991e-11
6.57495e-11
1.4513e-10
8.43136e-13
9.65488e-05
1.1381e-06
9.51319e-07
1.89653e-05
5.27699e-05
5.64272e-05
1.18057e-05
9.69573e-10
7.88662e-10
7.13485e-10
6.78166e-10
6.38014e-10
6.24188e-10
4.65294e-10
3.59017e-10
1.68346e-10
6.0119e-11
1.49272e-11
2.77339e-12
4.40514e-13
6.79999e-14
7.93357e-15
7.29367e-16
2.12748e-15
4.7166e-14
8.62102e-13
8.96305e-12
3.8902e-11
4.39403e-11
2.16341e-13
0.000270398
7.47248e-05
6.86588e-07
8.45019e-07
8.53608e-06
1.08396e-05
1.14335e-09
1.10594e-09
1.04441e-09
7.57934e-10
3.00001e-08
3.71189e-08
1.83454e-10
2.2561e-10
2.26257e-10
1.26618e-10
4.82755e-11
1.15492e-11
2.02756e-12
2.81353e-13
3.59415e-14
3.7059e-15
2.74397e-16
5.31231e-16
1.46885e-14
2.82796e-13
2.53504e-12
9.59965e-12
1.02665e-11
3.28147e-14
0.000275066
4.29145e-05
6.76365e-07
6.37719e-07
3.57438e-07
1.58372e-08
2.59755e-09
1.11677e-09
1.11148e-09
9.11862e-07
9.65824e-07
6.79204e-07
1.05335e-10
8.3083e-11
9.0302e-11
6.73612e-11
2.69853e-11
6.49835e-12
1.13599e-12
1.47665e-13
1.59414e-14
1.47498e-15
9.32551e-17
9.67282e-17
3.5333e-15
7.93875e-14
7.54288e-13
2.99745e-12
1.58363e-12
3.30263e-15
0.000273929
0.000113392
6.76364e-07
6.75522e-07
6.8205e-07
4.52694e-06
7.40913e-06
4.4047e-06
1.08673e-05
1.26841e-05
1.26001e-05
7.26726e-06
8.24041e-08
4.42022e-11
3.91572e-11
3.88798e-11
1.5108e-11
2.95748e-12
4.36434e-13
5.06097e-14
4.48978e-15
3.64951e-16
1.97627e-17
1.18034e-17
5.98538e-16
1.56403e-14
1.56974e-13
6.47144e-13
1.31081e-13
2.17587e-16
0.000270067
0.00020121
7.35809e-06
6.79818e-07
1.36271e-06
1.16139e-05
1.26695e-05
1.26828e-05
1.26842e-05
1.26841e-05
1.16709e-05
1.13409e-05
9.84007e-06
4.36822e-11
3.94017e-11
4.13865e-11
1.5631e-11
2.44476e-12
2.58869e-13
2.17602e-14
1.46837e-15
9.26292e-17
3.92666e-18
9.24839e-19
6.43111e-17
1.89314e-15
2.03713e-14
8.89286e-14
5.53482e-15
9.30424e-18
2.37352e-05
8.92856e-05
0.000207703
7.57714e-07
1.38052e-06
5.05462e-06
1.26537e-05
1.26695e-05
9.1522e-06
4.06912e-06
2.91337e-06
1.10434e-05
1.10206e-05
2.53039e-06
3.96195e-11
4.89121e-11
1.74127e-11
2.03567e-12
1.56849e-13
9.32918e-15
4.47294e-16
2.01383e-17
6.2897e-19
4.71313e-20
3.84271e-18
1.24535e-16
1.45457e-15
6.81756e-15
1.13739e-16
2.56662e-19
4.82205e-06
5.74884e-05
0.000250805
0.000170642
1.42182e-06
2.94072e-06
5.28483e-06
3.81221e-06
2.20001e-06
2.1729e-06
2.1729e-06
2.1729e-06
1.09495e-05
4.12002e-06
4.15147e-11
4.13312e-11
2.14272e-11
1.74416e-12
8.95457e-14
3.34202e-15
1.02998e-16
3.02872e-18
6.43687e-20
1.64345e-21
1.10146e-19
3.91635e-18
5.09048e-17
2.6249e-16
9.98107e-19
4.54335e-21
4.75687e-06
4.8193e-06
0.00024835
0.000307535
0.000249994
4.45432e-05
3.55629e-06
3.55629e-06
3.30238e-05
1.72997e-05
2.17291e-06
2.17397e-06
7.01335e-06
1.8786e-06
7.00085e-11
3.19415e-11
2.37704e-11
1.49524e-12
4.8855e-14
1.11658e-15
2.06086e-17
3.44435e-19
4.43881e-21
4.5977e-23
1.26207e-21
4.99135e-20
7.56093e-19
4.48358e-18
2.39097e-21
5.11743e-23
2.44898e-05
0.000150129
0.000307876
0.000308278
0.000307535
0.000220372
3.36803e-05
3.08424e-05
7.72022e-05
7.78554e-05
6.06454e-05
4.66311e-06
2.46964e-09
8.65083e-11
5.45999e-11
9.82158e-11
1.44751e-11
7.6137e-13
1.72165e-14
2.14568e-16
1.96263e-18
1.69665e-20
1.21675e-22
6.45985e-25
4.33131e-24
2.07388e-22
3.99404e-21
2.96274e-20
6.53628e-25
3.6518e-25
0.000234865
0.000301282
0.000308239
0.000308026
0.000269651
0.000101025
6.66401e-06
5.55513e-05
7.78588e-05
7.78029e-05
4.07855e-05
4.55089e-07
8.46055e-10
3.89497e-11
2.10157e-11
1.25839e-11
1.4729e-12
6.54519e-14
1.188e-15
9.90722e-18
4.82184e-20
1.93847e-22
6.59419e-25
1.70058e-27
2.50511e-27
1.73667e-25
5.05382e-24
5.53487e-23
7.96728e-28
1.70139e-27
8.31688e-05
8.31457e-05
9.68357e-05
8.4344e-05
3.45263e-05
7.79638e-06
6.664e-06
1.20444e-05
2.59721e-05
1.63128e-05
2.3235e-06
2.08899e-07
6.39406e-11