/*--------------------------------*- C++ -*----------------------------------*\
| =========                 |                                                 |
| \\      /  F ield         | OpenFOAM: The Open Source CFD Toolbox           |
|  \\    /   O peration     | Version:  2.4.0                                 |
|   \\  /    A nd           | Web:      www.OpenFOAM.org                      |
|    \\/     M anipulation  |                                                 |
\*---------------------------------------------------------------------------*/
FoamFile
{
    version     2.0;
    format      ascii;
    class       surfaceScalarField;
    location    "0.406";
    object      phi;
}
// * * * * * * * * * * * * * * * * * * * * * * * * * * * * * * * * * * * * * //

dimensions      [0 3 -1 0 0 0 0];

internalField   nonuniform List<scalar> 
19800
(
5.5468e-15
-5.5468e-15
-1.27068e-13
1.32551e-13
-4.07389e-13
2.80319e-13
-7.95705e-13
3.88273e-13
-1.24779e-12
4.5206e-13
-1.7252e-12
4.77426e-13
-2.19685e-12
4.71692e-13
-2.63855e-12
4.41705e-13
-3.03181e-12
3.93238e-13
-3.36272e-12
3.30896e-13
-3.62099e-12
2.58287e-13
-3.79925e-12
1.78283e-13
-3.89253e-12
9.32968e-14
-3.89807e-12
5.53956e-15
-3.81522e-12
-8.28577e-14
-3.64573e-12
-1.69503e-13
-3.39393e-12
-2.51807e-13
-3.06709e-12
-3.26843e-13
-2.67566e-12
-3.91437e-13
-2.23336e-12
-4.42312e-13
-1.75706e-12
-4.76309e-13
-1.26642e-12
-4.90645e-13
-7.83215e-13
-4.83206e-13
-3.30359e-13
-4.52853e-13
6.93585e-14
-3.99713e-13
3.94789e-13
-3.25427e-13
6.28087e-13
-2.33294e-13
7.56413e-13
-1.28321e-13
7.73442e-13
-1.70194e-14
6.8036e-13
9.30874e-14
4.85883e-13
1.94478e-13
2.04714e-13
2.81168e-13
-1.45809e-13
3.5053e-13
-5.50657e-13
4.04862e-13
-1.0024e-12
4.51761e-13
-1.50426e-12
5.01855e-13
-2.06779e-12
5.63534e-13
-2.70536e-12
6.37568e-13
-3.42128e-12
7.15931e-13
-4.20706e-12
7.85795e-13
-5.0416e-12
8.34536e-13
-5.89476e-12
8.5316e-13
-6.73239e-12
8.37637e-13
-7.52105e-12
7.88661e-13
-8.23159e-12
7.10548e-13
-8.84143e-12
6.09844e-13
-9.33545e-12
4.94012e-13
-9.70583e-12
3.70382e-13
-9.95127e-12
2.45441e-13
1.24419e-13
-1.00757e-11
-1.32159e-13
1.26693e-13
-5.86554e-13
5.86969e-13
-1.33479e-12
1.02863e-12
-2.30159e-12
1.3551e-12
-3.39924e-12
1.54966e-12
-4.54491e-12
1.62302e-12
-5.66708e-12
1.59385e-12
-6.70695e-12
1.48162e-12
-7.61768e-12
1.30401e-12
-8.36281e-12
1.07604e-12
-8.91472e-12
8.10206e-13
-9.25337e-12
5.16929e-13
-9.36533e-12
2.05262e-13
-9.24336e-12
-1.16423e-13
-8.88647e-12
-4.39748e-13
-8.30022e-12
-7.55777e-13
-7.49734e-12
-1.05471e-12
-6.49846e-12
-1.32574e-12
-5.33258e-12
-1.55733e-12
-4.03717e-12
-1.73772e-12
-2.65779e-12
-1.8557e-12
-1.24692e-12
-1.90152e-12
1.3778e-13
-1.8679e-12
1.43605e-12
-1.75112e-12
2.58829e-12
-1.55194e-12
3.53931e-12
-1.27643e-12
4.24249e-12
-9.36467e-13
4.66388e-12
-5.49705e-13
4.78575e-12
-1.38885e-13
4.60897e-12
2.69881e-13
4.15305e-12
6.50409e-13
3.45256e-12
9.81667e-13
2.54936e-12
1.25373e-12
1.48116e-12
1.47307e-12
2.69076e-13
1.66387e-12
-1.08972e-12
1.86068e-12
-2.61701e-12
2.09083e-12
-4.33588e-12
2.35643e-12
-6.25035e-12
2.6304e-12
-8.3345e-12
2.86996e-12
-1.05332e-11
3.03328e-12
-1.27708e-11
3.09078e-12
-1.49627e-11
3.02946e-12
-1.70261e-11
2.85207e-12
-1.8889e-11
2.57349e-12
-2.04953e-11
2.21608e-12
-2.18066e-11
1.80538e-12
-2.28029e-11
1.36665e-12
-2.34799e-11
9.22449e-13
4.91176e-13
-2.38467e-11
-2.7836e-13
4.05051e-13
-1.02392e-12
1.33246e-12
-2.14319e-12
2.1479e-12
-3.52835e-12
2.74032e-12
-5.06576e-12
3.08709e-12
-6.6472e-12
3.20444e-12
-8.17662e-12
3.12323e-12
-9.57264e-12
2.87764e-12
-1.07687e-11
2.50006e-12
-1.17118e-11
2.01918e-12
-1.23612e-11
1.45968e-12
-1.26871e-11
8.42837e-13
-1.26694e-11
1.8756e-13
-1.22975e-11
-4.88374e-13
-1.15701e-11
-1.1671e-12
-1.04963e-11
-1.82959e-12
-9.09601e-12
-2.45504e-12
-7.40111e-12
-3.02065e-12
-5.45627e-12
-3.50219e-12
-3.31893e-12
-3.87507e-12
-1.05863e-12
-4.116e-12
1.2447e-12
-4.20484e-12
3.50349e-12
-4.12669e-12
5.62637e-12
-3.87399e-12
7.52292e-12
-3.44849e-12
9.10933e-12
-2.86282e-12
1.03143e-11
-2.14141e-12
1.1085e-11
-1.32041e-12
1.13925e-11
-4.4636e-13
1.12354e-11
4.26948e-13
1.06411e-11
1.24477e-12
9.66086e-12
1.96188e-12
8.35973e-12
2.55487e-12
6.79884e-12
3.03397e-12
5.01473e-12
3.44799e-12
3.00496e-12
3.87046e-12
7.3462e-13
4.36119e-12
-1.83384e-12
4.9249e-12
-4.70591e-12
5.50247e-12
-7.83883e-12
6.00287e-12
-1.11453e-11
6.33976e-12
-1.45086e-11
6.45406e-12
-1.78006e-11
6.32151e-12
-2.08985e-11
5.9499e-12
-2.3696e-11
5.37105e-12
-2.61113e-11
4.6314e-12
-2.80893e-11
3.78332e-12
-2.9601e-11
2.87842e-12
-3.06413e-11
1.96276e-12
1.07404e-12
-3.12242e-11
-3.83665e-13
7.88758e-13
-1.34335e-12
2.2921e-12
-2.72405e-12
3.52852e-12
-4.38481e-12
4.40107e-12
-6.19112e-12
4.89342e-12
-8.01826e-12
5.0316e-12
-9.75529e-12
4.86025e-12
-1.1307e-11
4.42937e-12
-1.25944e-11
3.78745e-12
-1.35537e-11
2.9785e-12
-1.41353e-11
2.04127e-12
-1.43023e-11
1.0099e-12
-1.403e-11
-8.47827e-14
-1.3305e-11
-1.21343e-12
-1.21257e-11
-2.34634e-12
-1.05035e-11
-3.4518e-12
-8.46358e-12
-4.49498e-12
-6.04652e-12
-5.43771e-12
-3.30938e-12
-6.23932e-12
-3.25854e-13
-6.85859e-12
2.81465e-12
-7.2565e-12
6.00917e-12
-7.39935e-12
9.14469e-12
-7.2622e-12
1.2103e-11
-6.83229e-12
1.47668e-11
-6.11227e-12
1.70267e-11
-5.12272e-12
1.87888e-11
-3.90346e-12
1.99819e-11
-2.51354e-12
2.05649e-11
-1.02937e-12
2.05325e-11
4.59307e-13
1.99187e-11
1.85858e-12
1.8793e-11
3.08764e-12
1.72481e-11
4.09975e-12
1.53766e-11
4.90551e-12
1.3236e-11
5.58864e-12
1.08196e-11
6.28679e-12
8.06341e-12
7.11741e-12
4.89681e-12
8.09151e-12
1.30344e-12
9.09583e-12
-2.65695e-12
9.96325e-12
-6.8607e-12
1.05435e-11
-1.11465e-11
1.07398e-11
-1.53424e-11
1.05175e-11
-1.92877e-11
9.89515e-12
-2.28468e-11
8.93019e-12
-2.59175e-11
7.70208e-12
-2.84327e-11
6.29859e-12
-3.03594e-11
4.80513e-12
-3.16942e-11
3.29751e-12
1.83754e-12
-3.24577e-11
-4.44315e-13
1.23309e-12
-1.53017e-12
3.378e-12
-3.05924e-12
5.05755e-12
-4.86275e-12
6.20453e-12
-6.78899e-12
6.81964e-12
-8.70153e-12
6.94416e-12
-1.04803e-11
6.639e-12
-1.20221e-11
5.97121e-12
-1.32409e-11
5.00629e-12
-1.40668e-11
3.8044e-12
-1.44449e-11
2.41933e-12
-1.4334e-11
8.99003e-13
-1.3706e-11
-7.12788e-13
-1.25453e-11
-2.37407e-12
-1.08496e-11
-4.04203e-12
-8.63081e-12
-5.67063e-12
-5.91692e-12
-7.20887e-12
-2.75425e-12
-8.60038e-12
7.91133e-13
-9.78469e-12
4.63286e-12
-1.07003e-11
8.66525e-12
-1.12889e-11
1.27658e-11
-1.14999e-11
1.67994e-11
-1.12958e-11
2.06239e-11
-1.06568e-11
2.40976e-11
-9.58594e-12
2.70873e-11
-8.11243e-12
2.94774e-11
-6.29346e-12
3.11778e-11
-4.21397e-12
3.21331e-11
-1.98464e-12
3.23311e-11
2.61276e-13
3.18112e-11
2.37843e-12
3.06637e-11
4.23513e-12
2.90188e-11
5.74468e-12
2.70164e-11
6.90793e-12
2.47484e-11
7.85667e-12
2.21976e-11
8.83764e-12
1.92394e-11
1.00756e-11
1.57351e-11
1.15958e-11
1.16425e-11
1.31884e-11
7.04302e-12
1.45627e-11
2.10888e-12
1.54776e-11
-2.9435e-12
1.57922e-11
-7.89269e-12
1.54667e-11
-1.25392e-11
1.45417e-11
-1.67209e-11
1.31119e-11
-2.03196e-11
1.13007e-11
-2.32612e-11
9.24028e-12
-2.5513e-11
7.05689e-12
-2.7077e-11
4.86149e-12
2.74394e-12
-2.79834e-11
-4.66739e-13
1.6998e-12
-1.59748e-12
4.50879e-12
-3.16988e-12
6.62996e-12
-4.9964e-12
8.03102e-12
-6.91293e-12
8.73613e-12
-8.77516e-12
8.80639e-12
-1.04577e-11
8.32157e-12
-1.18537e-11
7.36716e-12
-1.28738e-11
6.0264e-12
-1.34455e-11
4.37614e-12
-1.35117e-11
2.48547e-12
-1.3029e-11
4.16319e-13
-1.19672e-11
-1.77453e-12
-1.03088e-11
-4.03245e-12
-8.04952e-12
-6.30135e-12
-5.19985e-12
-8.5203e-12
-1.78793e-12
-1.06208e-11
2.13767e-12
-1.2526e-11
6.50533e-12
-1.41523e-11
1.12194e-11
-1.54143e-11
1.61609e-11
-1.62304e-11
2.11908e-11
-1.65298e-11
2.61541e-11
-1.6259e-11
3.08866e-11
-1.53893e-11
3.52236e-11
-1.3923e-11
3.90096e-11
-1.18984e-11
4.21077e-11
-9.39151e-12
4.44082e-11
-6.51456e-12
4.58378e-11
-3.41423e-12
4.6372e-11
-2.72876e-13
4.60517e-11
2.69874e-12
4.4989e-11
5.29787e-12
4.33641e-11
7.36958e-12
4.13935e-11
8.87847e-12
3.92337e-11
1.00166e-11
3.68514e-11
1.12199e-11
3.40078e-11
1.29192e-11
3.0433e-11
1.51706e-11
2.60407e-11
1.75807e-11
2.09507e-11
1.96526e-11
1.54087e-11
2.10197e-11
9.70434e-12
2.14966e-11
4.11728e-12
2.10537e-11
-1.11302e-12
1.9772e-11
-5.8008e-12
1.77997e-11
-9.81691e-12
1.53169e-11
-1.30859e-11
1.25092e-11
-1.55798e-11
9.55079e-12
-1.73105e-11
6.59224e-12
3.75448e-12
-1.83211e-11
-4.58911e-13
2.15867e-12
-1.56619e-12
5.61607e-12
-3.09139e-12
8.1552e-12
-4.83775e-12
9.77738e-12
-6.63435e-12
1.05327e-11
-8.33281e-12
1.05048e-11
-9.80563e-12
9.79439e-12
-1.09451e-11
8.50662e-12
-1.16619e-11
6.74319e-12
-1.18836e-11
4.59791e-12
-1.15533e-11
2.15516e-12
-1.06274e-11
-5.09571e-13
-9.07472e-12
-3.32726e-12
-6.87554e-12
-6.23162e-12
-4.02254e-12
-9.15435e-12
-5.22648e-13
-1.20202e-11
3.59932e-12
-1.47427e-11
8.29623e-12
-1.72228e-11
1.34946e-11
-1.93506e-11
1.90924e-11
-2.10122e-11
2.49604e-11
-2.20984e-11
3.09448e-11
-2.25141e-11
3.6872e-11
-2.21863e-11
4.25569e-11
-2.10742e-11
4.7813e-11
-1.91791e-11
5.24637e-11
-1.65491e-11
5.63527e-11
-1.32805e-11
5.93511e-11
-9.51301e-12
6.13627e-11
-5.42584e-12
6.23408e-11
-1.25096e-12
6.23188e-11
2.72071e-12
6.14243e-11
6.19244e-12
5.98992e-11
8.89468e-12
5.80857e-11
1.06919e-11
5.62698e-11
1.18324e-11
5.44067e-11
1.3083e-11
5.20472e-11
1.52788e-11
4.86775e-11
1.85403e-11
4.41503e-11
2.21079e-11
3.86685e-11
2.51344e-11
3.25961e-11
2.70921e-11
2.63214e-11
2.77712e-11
2.01904e-11
2.71848e-11
1.44804e-11
2.5482e-11
9.39469e-12
2.28854e-11
5.06637e-12
1.96452e-11
1.56623e-12
1.60094e-11
-1.08808e-12
1.22051e-11
-2.92247e-12
8.42663e-12
4.82806e-12
-3.99606e-12
-4.28272e-13
2.58693e-12
-1.45782e-12
6.64558e-12
-2.86201e-12
9.5594e-12
-4.44317e-12
1.13586e-11
-6.02907e-12
1.21186e-11
-7.47089e-12
1.19466e-11
-8.64193e-12
1.09654e-11
-9.43615e-12
9.30084e-12
-9.76663e-12
7.07366e-12
-9.56362e-12
4.39489e-12
-8.77239e-12
1.36392e-12
-7.35097e-12
-1.931e-12
-5.26819e-12
-5.41004e-12
-2.5025e-12
-8.9973e-12
9.57712e-13
-1.26146e-11
5.11178e-12
-1.61742e-11
9.94198e-12
-1.95729e-11
1.54069e-11
-2.26878e-11
2.14351e-11
-2.53788e-11
2.79212e-11
-2.74983e-11
3.47276e-11
-2.89048e-11
4.1687e-11
-2.94736e-11
4.8608e-11
-2.91073e-11
5.5284e-11
-2.77502e-11
6.1507e-11
-2.54021e-11
6.70818e-11
-2.21239e-11
7.18381e-11
-1.80367e-11
7.56326e-11
-1.33075e-11
7.83414e-11
-8.13468e-12
7.98793e-11
-2.78883e-12
8.02557e-11
2.34426e-12
7.95895e-11
6.85873e-12
7.81814e-11
1.03027e-11
7.65768e-11
1.22966e-11
7.53291e-11
1.30801e-11
7.44144e-11
1.39978e-11
7.29997e-11
1.66935e-11
7.01167e-11
2.14232e-11
6.55597e-11
2.66649e-11
5.97189e-11
3.09753e-11
5.31517e-11
3.36592e-11
4.6372e-11
3.4551e-11
3.97905e-11
3.37663e-11
3.37119e-11
3.15606e-11
2.83451e-11
2.82522e-11
2.38174e-11
2.41729e-11
2.0188e-11
1.96388e-11
1.74596e-11
1.49335e-11
1.55886e-11
1.02976e-11
5.92006e-12
1.44966e-11
-3.81151e-13
2.96811e-12
-1.29197e-12
7.55639e-12
-2.51787e-12
1.07853e-11
-3.86691e-12
1.27076e-11
-5.17016e-12
1.34219e-11
-6.28172e-12
1.30582e-11
-7.07814e-12
1.17618e-11
-7.45726e-12
9.67995e-12
-7.33662e-12
6.95301e-12
-6.65121e-12
3.70947e-12
-5.3508e-12
6.34952e-14
-3.39697e-12
-3.88484e-12
-7.60142e-13
-8.04687e-12
2.58259e-12
-1.234e-11
6.64799e-12
-1.66799e-11
1.14443e-11
-2.09705e-11
1.69653e-11
-2.50939e-11
2.31806e-11
-2.89031e-11
3.00249e-11
-3.2223e-11
3.73924e-11
-3.48659e-11
4.51387e-11
-3.66511e-11
5.30839e-11
-3.74187e-11
6.1017e-11
-3.70403e-11
6.87072e-11
-3.54404e-11
7.59242e-11
-3.26191e-11
8.24579e-11
-2.86577e-11
8.81362e-11
-2.37149e-11
9.28174e-11
-1.79887e-11
9.63486e-11
-1.16659e-11
9.85805e-11
-5.02074e-12
9.94772e-11
1.44754e-12
9.90926e-11
7.24331e-12
9.77311e-11
1.16643e-11
9.62482e-11
1.37794e-11
9.57473e-11
1.3581e-11
9.63424e-11
1.34027e-11
9.64873e-11
1.65486e-11
9.43564e-11
2.35541e-11
8.97617e-11
3.12596e-11
8.35107e-11
3.72263e-11
7.64603e-11
4.07097e-11
6.92572e-11
4.17541e-11
6.23521e-11
4.06713e-11
5.60505e-11
3.78622e-11
5.05476e-11
3.37551e-11
4.59532e-11
2.87673e-11
4.23096e-11
2.32824e-11
3.96019e-11
1.76412e-11
3.77667e-11
1.21328e-11
6.98267e-12
3.67041e-11
-3.22727e-13
3.29087e-12
-1.08561e-12
8.31929e-12
-2.09143e-12
1.17911e-11
-3.15864e-12
1.37748e-11
-4.12521e-12
1.43884e-11
-4.85074e-12
1.37837e-11
-5.21701e-12
1.21281e-11
-5.12752e-12
9.59045e-12
-4.50602e-12
6.3315e-12
-3.29423e-12
2.49766e-12
-1.44871e-12
-1.78203e-12
1.06299e-12
-6.39654e-12
4.26658e-12
-1.12505e-11
8.18481e-12
-1.62582e-11
1.28396e-11
-2.13347e-11
1.82504e-11
-2.63814e-11
2.44277e-11
-3.12711e-11
3.13584e-11
-3.58338e-11
3.8989e-11
-3.98536e-11
4.7216e-11
-4.30929e-11
5.58896e-11
-4.53247e-11
6.4817e-11
-4.63462e-11
7.37636e-11
-4.59868e-11
8.24667e-11
-4.41436e-11
9.06685e-11
-4.08209e-11
9.81473e-11
-3.61365e-11
1.04753e-10
-3.03202e-11
1.10386e-10
-2.36222e-11
1.14875e-10
-1.61548e-11
1.17969e-10
-8.11472e-12
1.19565e-10
-1.48662e-13
1.19565e-10
7.24307e-12
1.18086e-10
1.31432e-11
1.1639e-10
1.54756e-11
1.16682e-10
1.32893e-11
1.19563e-10
1.0522e-11
1.22124e-10
1.39872e-11
1.20914e-10
2.47639e-11
1.16067e-10
3.61067e-11
1.09268e-10
4.4026e-11
1.01775e-10
4.82024e-11
9.43123e-11
4.92168e-11
8.72962e-11
4.76874e-11
8.09858e-11
4.41726e-11
7.5539e-11
3.92019e-11
7.10397e-11
3.32666e-11
6.75128e-11
2.68093e-11
6.49291e-11
2.02249e-11
6.32063e-11
1.38556e-11
7.9678e-12
6.22211e-11
-2.57245e-13
3.54812e-12
-8.53361e-13
8.91544e-12
-1.61144e-12
1.25492e-11
-2.36324e-12
1.45266e-11
-2.95596e-12
1.49812e-11
-3.25637e-12
1.40841e-11
-3.1528e-12
1.20245e-11
-2.55553e-12
8.99317e-12
-1.39587e-12
5.17183e-12
3.75969e-13
7.25809e-13
2.79431e-12
-4.20038e-12
5.88267e-12
-9.4849e-12
9.65953e-12
-1.50273e-11
1.41444e-11
-2.07431e-11
1.93627e-11
-2.65529e-11
2.53461e-11
-3.23648e-11
3.21269e-11
-3.80519e-11
3.97184e-11
-4.34252e-11
4.8086e-11
-4.82212e-11
5.71323e-11
-5.21391e-11
6.67045e-11
-5.48969e-11
7.65968e-11
-5.62386e-11
8.65412e-11
-5.59313e-11
9.62255e-11
-5.38278e-11
1.05349e-10
-4.99439e-11
1.13671e-10
-4.44593e-11
1.21104e-10
-3.7753e-11
1.2769e-10
-3.02081e-11
1.3327e-10
-2.17351e-11
1.37449e-10
-1.2293e-11
1.40053e-10
-2.75347e-12
1.4069e-10
6.6069e-12
1.38934e-10
1.48991e-11
1.36328e-10
1.80814e-11
1.37128e-10
1.24892e-11
1.43333e-10
4.31673e-12
1.49529e-10
7.79118e-12
1.49101e-10
2.51921e-11
1.4345e-10
4.17576e-11
1.35921e-10
5.15555e-11
1.28187e-10
5.59359e-11
1.20829e-10
5.65754e-11
1.14072e-10
5.44442e-11
1.08071e-10
5.01739e-11
1.02932e-10
4.43406e-11
9.87178e-11
3.74806e-11
9.54494e-11
3.00777e-11
9.30957e-11
2.25786e-11
9.1561e-11
1.53903e-11
8.83288e-12
9.06959e-11
-1.88328e-13
3.73644e-12
-6.08055e-13
9.33518e-12
-1.10374e-12
1.30449e-11
-1.52173e-12
1.49446e-11
-1.71946e-12
1.51789e-11
-1.57154e-12
1.39362e-11
-9.73244e-13
1.14262e-11
1.57993e-13
7.86193e-12
1.88269e-12
3.44712e-12
4.24096e-12
-1.63247e-12
7.25587e-12
-7.21529e-12
1.09387e-11
-1.31677e-11
1.52961e-11
-1.93848e-11
2.03394e-11
-2.57863e-11
2.60924e-11
-3.23059e-11
3.25974e-11
-3.88698e-11
3.99122e-11
-4.53668e-11
4.80877e-11
-5.16007e-11
5.71194e-11
-5.72529e-11
6.6923e-11
-6.19427e-11
7.73491e-11
-6.53231e-11
8.81804e-11
-6.70699e-11
9.90984e-11
-6.68493e-11
1.09707e-10
-6.44361e-11
1.19626e-10
-5.98634e-11
1.28561e-10
-5.33943e-11
1.36523e-10
-4.57144e-11
1.43904e-10
-3.75897e-11
1.50674e-10
-2.85049e-11
1.56138e-10
-1.77566e-11
1.60456e-10
-7.07186e-12
1.62321e-10
4.74171e-12
1.60173e-10
1.70472e-11
1.55746e-10
2.2508e-11
1.56151e-10
1.20842e-11
1.66553e-10
-6.08474e-12
1.78256e-10
-3.91139e-12
1.77715e-10
2.57329e-11
1.70251e-10
4.92213e-11
1.6198e-10
5.98267e-11
1.54685e-10
6.3231e-11
1.48169e-10
6.3091e-11
1.42259e-10
6.03545e-11
1.36997e-10
5.54355e-11
1.32468e-10
4.887e-11
1.2874e-10
4.12089e-11
1.25863e-10
3.29546e-11
1.23835e-10
2.46067e-11
1.22555e-10
1.66699e-11
9.54883e-12
1.21839e-10
-1.19236e-13
3.85567e-12
-3.6141e-13
9.57735e-12
-5.92249e-13
1.32757e-11
-6.72549e-13
1.50249e-11
-4.69757e-13
1.49761e-11
1.34103e-13
1.33323e-11
1.23744e-12
1.03229e-11
2.91636e-12
6.18302e-12
5.22366e-12
1.13982e-12
8.18961e-12
-4.59844e-12
1.18247e-11
-1.08504e-11
1.6125e-11
-1.7468e-11
2.10805e-11
-2.43402e-11
2.66864e-11
-3.13922e-11
3.29566e-11
-3.85762e-11
3.99355e-11
-4.58487e-11
4.77051e-11
-5.31363e-11
5.63638e-11
-6.02594e-11
6.5954e-11
-6.68432e-11
7.6421e-11
-7.24096e-11
8.76379e-11
-7.654e-11
9.93864e-11
-7.88183e-11
1.11274e-10
-7.87369e-11
1.22764e-10
-7.59265e-11
1.33338e-10
-7.04367e-11
1.42512e-10
-6.25682e-11
1.50367e-10
-5.35694e-11
1.58001e-10
-4.52238e-11
1.66038e-10
-3.65426e-11
1.72839e-10
-2.45569e-11
1.79179e-10
-1.34121e-11
1.85351e-10
-1.43087e-12
1.83616e-10
1.87823e-11
1.73788e-10
3.2336e-11
1.72419e-10
1.34536e-11
1.89818e-10
-2.34833e-11
2.0739e-10
-2.14834e-11
2.04421e-10
2.87019e-11
1.932e-10
6.04421e-11
1.85468e-10
6.75586e-11
1.80503e-10
6.81962e-11
1.76109e-10
6.74844e-11
1.71816e-10
6.46472e-11
1.67758e-10
5.94938e-11
1.64108e-10
5.25199e-11
1.61011e-10
4.43058e-11
1.58608e-10
3.53583e-11
1.56968e-10
2.62459e-11
1.55995e-10
1.76432e-11
1.01078e-11
1.55436e-10
-5.30638e-14
3.90874e-12
-1.24568e-13
9.64885e-12
-9.98575e-14
1.3251e-11
1.47169e-13
1.47779e-11
7.40389e-13
1.43829e-11
1.79184e-12
1.22809e-11
3.39533e-12
8.71939e-12
5.62237e-12
3.95598e-12
8.51998e-12
-1.75779e-12
1.21101e-11
-8.18861e-12
1.63914e-11
-1.51317e-11
2.13433e-11
-2.24199e-11
2.69346e-11
-2.99316e-11
3.31368e-11
-3.75944e-11
3.99407e-11
-4.53801e-11
4.73746e-11
-5.32826e-11
5.5529e-11
-6.12907e-11
6.45504e-11
-6.92808e-11
7.45464e-11
-7.68391e-11
8.55307e-11
-8.3394e-11
9.74486e-11
-8.8458e-11
1.10112e-10
-9.14819e-11
1.23029e-10
-9.16539e-11
1.35446e-10
-8.83435e-11
1.4663e-10
-8.16206e-11
1.55619e-10
-7.15571e-11
1.62343e-10
-6.02938e-11
1.68905e-10
-5.17858e-11
1.7738e-10
-4.50168e-11
1.87348e-10
-3.45253e-11
1.94672e-10
-2.07362e-11
2.04889e-10
-1.16478e-11
2.12864e-10
1.08073e-11
2.04241e-10
4.09587e-11
1.87052e-10
3.06432e-11
2.10349e-10
-4.67805e-11
2.2885e-10
-3.99844e-11
2.19177e-10
3.83753e-11
2.04935e-10
7.46833e-11
2.05655e-10
6.68391e-11
2.06457e-10
6.7394e-11
2.05527e-10
6.84144e-11
2.03416e-10
6.67578e-11
2.00816e-10
6.20947e-11
1.98133e-10
5.52025e-11
1.95645e-10
4.67943e-11
1.93659e-10
3.73437e-11
1.92403e-10
2.75025e-11
1.91774e-10
1.82715e-11
1.05188e-11
1.91363e-10
7.17839e-15
3.90157e-12
9.16221e-14
9.56439e-12
3.51063e-13
1.29916e-11
9.00853e-13
1.42281e-11
1.85841e-12
1.34253e-11
3.33218e-12
1.08071e-11
5.41399e-12
6.63759e-12
8.17391e-12
1.19607e-12
1.16568e-11
-5.24065e-12
1.58802e-11
-1.2412e-11
2.08343e-11
-2.00858e-11
2.64845e-11
-2.80701e-11
3.27781e-11
-3.62252e-11
3.9656e-11
-4.44722e-11
4.70704e-11
-5.27945e-11
5.50072e-11
-6.12194e-11
6.35308e-11
-6.98142e-11
7.28092e-11
-7.85592e-11
8.30194e-11
-8.70493e-11
9.43e-11
-9.46746e-11
1.06761e-10
-1.00919e-10
1.20334e-10
-1.05055e-10
1.34419e-10
-1.05739e-10
1.47968e-10
-1.01892e-10
1.59996e-10
-9.36491e-11
1.68535e-10
-8.00956e-11
1.72941e-10
-6.47005e-11
1.76833e-10
-5.56771e-11
1.82372e-10
-5.05563e-11
1.92748e-10
-4.49007e-11
2.06646e-10
-3.46346e-11
2.14798e-10
-1.98e-11
2.33028e-10
-7.42195e-12
2.52957e-10
2.10295e-11
2.35236e-10
4.83636e-11
2.04593e-10
-1.6137e-11
2.26675e-10
-6.20667e-11
1.9149e-10
7.35602e-11
2.19812e-10
4.63614e-11
2.32423e-10
5.42285e-11
2.37552e-10
6.22644e-11
2.38945e-10
6.70214e-11
2.38328e-10
6.73747e-11
2.36856e-10
6.35665e-11
2.34936e-10
5.71226e-11
2.3282e-10
4.89104e-11
2.3103e-10
3.9134e-11
2.30076e-10
2.84567e-11
2.29852e-10
1.84957e-11
1.07731e-11
2.29597e-10
5.8472e-14
3.84309e-12
2.76554e-13
9.34629e-12
7.38675e-13
1.25294e-11
1.55254e-12
1.34142e-11
2.83192e-12
1.21459e-11
4.68446e-12
8.9546e-12
7.20326e-12
4.11879e-12
1.04609e-11
-2.06161e-12
1.45053e-11
-9.28498e-12
1.93559e-11
-1.72627e-11
2.50022e-11
-2.57321e-11
3.14029e-11
-3.44708e-11
3.84895e-11
-4.33118e-11
4.61727e-11
-5.21554e-11
5.43569e-11
-6.09788e-11
6.29593e-11
-6.98218e-11
7.19642e-11
-7.88191e-11
8.14932e-11
-8.80882e-11
9.17561e-11
-9.73123e-11
1.03038e-10
-1.05956e-10
1.15725e-10
-1.13606e-10
1.30082e-10
-1.19412e-10
1.45472e-10
-1.21129e-10
1.60525e-10
-1.16945e-10
1.74135e-10
-1.07259e-10
1.82255e-10
-8.82159e-11
1.83392e-10
-6.58375e-11
1.84256e-10
-5.65405e-11
1.85844e-10
-5.21451e-11
1.89935e-10
-4.8991e-11
1.93234e-10
-3.79341e-11
1.89125e-10
-1.56911e-11
1.69126e-10
1.25779e-11
1.60412e-10
2.97428e-11
1.79498e-10
2.92777e-11
2.06237e-10
-4.28756e-11
1.90302e-10
-4.61314e-11
2.71456e-10
-7.59472e-12
2.72576e-10
4.52416e-11
2.7365e-10
5.31551e-11
2.74602e-10
6.13121e-11
2.75278e-10
6.63457e-11
2.75616e-10
6.70361e-11
2.75453e-10
6.37302e-11
2.74415e-10
5.81606e-11
2.72467e-10
5.08578e-11
2.70545e-10
4.10566e-11
2.69805e-10
2.91964e-11
2.70183e-10
1.81175e-11
1.07673e-11
2.70189e-10
9.80067e-14
3.74508e-12
4.20234e-13
9.02405e-12
1.04239e-12
1.19073e-11
2.06804e-12
1.23886e-11
3.61023e-12
1.06037e-11
5.77868e-12
6.78616e-12
8.67088e-12
1.22659e-12
1.2366e-11
-5.75676e-12
1.69205e-11
-1.38394e-11
2.23639e-11
-2.27061e-11
2.86954e-11
-3.20636e-11
3.58812e-11
-4.16565e-11
4.38522e-11
-5.12829e-11
5.25032e-11
-6.08065e-11
6.16984e-11
-7.0174e-11
7.1274e-11
-7.93973e-11
8.10766e-11
-8.86218e-11
9.10769e-11
-9.80884e-11
1.01422e-10
-1.07657e-10
1.12436e-10
-1.16971e-10
1.24812e-10
-1.25982e-10
1.39456e-10
-1.34057e-10
1.56009e-10
-1.37682e-10
1.72717e-10
-1.33653e-10
1.89554e-10
-1.24095e-10
1.97542e-10
-9.62041e-11
1.94604e-10
-6.28995e-11
1.93373e-10
-5.53088e-11
1.95851e-10
-5.46236e-11
1.95316e-10
-4.84564e-11
1.94174e-10
-3.67918e-11
1.90391e-10
-1.19084e-11
1.89314e-10
1.36553e-11
1.81157e-10
3.79001e-11
2.18574e-10
-8.13947e-12
2.20537e-10
-4.48386e-11
1.83791e-10
-9.38581e-12
2.42509e-10
-6.63122e-11
2.6646e-10
2.12904e-11
2.83497e-10
3.61178e-11
2.96183e-10
4.86266e-11
3.06358e-10
5.61708e-11
3.12528e-10
6.08658e-11
3.16036e-10
6.02226e-11
3.16692e-10
5.75041e-11
3.14631e-10
5.29192e-11
3.11928e-10
4.37588e-11
3.11236e-10
2.98891e-11
3.12684e-10
1.66697e-11
1.02196e-11
3.13231e-10
1.23268e-13
3.62179e-12
5.13969e-13
8.63333e-12
1.24425e-12
1.1177e-11
2.41721e-12
1.12156e-11
4.14788e-12
8.87308e-12
6.55019e-12
4.38385e-12
9.72827e-12
-1.9515e-12
1.37708e-11
-9.79924e-12
1.87469e-11
-1.88156e-11
2.47031e-11
-2.86623e-11
3.16599e-11
-3.90203e-11
3.96084e-11
-4.9605e-11
4.85039e-11
-6.01784e-11
5.82577e-11
-7.05603e-11
6.87295e-11
-8.06458e-11
7.97015e-11
-9.03693e-11
9.08721e-11
-9.97924e-11
1.01952e-10
-1.09169e-10
1.12844e-10
-1.18548e-10
1.23653e-10
-1.2778e-10
1.35149e-10
-1.37478e-10
1.49081e-10
-1.47988e-10
1.65919e-10
-1.5452e-10
1.82965e-10
-1.507e-10
2.03653e-10
-1.44784e-10
2.17385e-10
-1.09935e-10
2.04079e-10
-4.9594e-11
2.07056e-10
-5.82859e-11
2.12213e-10
-5.97805e-11
2.15139e-10
-5.13817e-11
2.18189e-10
-3.98426e-11
2.28171e-10
-2.18902e-11
2.49895e-10
-8.06838e-12
2.91062e-10
-3.26735e-12
2.97483e-10
-1.45604e-11
2.33288e-10
1.93562e-11
2.15324e-10
8.57877e-12
1.95736e-10
-4.6724e-11
2.52558e-10
-3.55321e-11
2.90716e-10
-2.04002e-12
3.21558e-10
1.77845e-11
3.42085e-10
3.56438e-11
3.54339e-10
4.86117e-11
3.61441e-10
5.31208e-11
3.63028e-10
5.59166e-11
3.59524e-10
5.64234e-11
3.54652e-10
4.86314e-11
3.5366e-10
3.08807e-11
3.57189e-10
1.31408e-11
8.58508e-12
3.58823e-10
1.32372e-13
3.48941e-12
5.51302e-13
8.21439e-12
1.33092e-12
1.03974e-11
2.57735e-12
9.96917e-12
4.40969e-12
7.04074e-12
6.94723e-12
1.84631e-12
1.03012e-11
-5.30551e-12
1.45701e-11
-1.40681e-11
1.98369e-11
-2.40823e-11
2.61674e-11
-3.49928e-11
3.36101e-11
-4.6463e-11
4.21943e-11
-5.81892e-11
5.1925e-11
-6.99091e-11
6.27735e-11
-8.14089e-11
7.46613e-11
-9.25337e-11
8.74115e-11
-1.03119e-10
1.00692e-10
-1.13073e-10
1.13942e-10
-1.22419e-10
1.26561e-10
-1.31168e-10
1.3817e-10
-1.39389e-10
1.48811e-10
-1.48118e-10
1.62045e-10
-1.61222e-10
1.75408e-10
-1.67883e-10
1.91541e-10
-1.66833e-10
2.16833e-10
-1.70076e-10
2.31289e-10
-1.24391e-10
2.15168e-10
-3.34732e-11
2.31107e-10
-7.42244e-11
2.32484e-10
-6.1158e-11
2.36102e-10
-5.49996e-11
2.45433e-10
-4.91738e-11
2.63823e-10
-4.02802e-11
2.88172e-10
-3.24172e-11
3.07358e-10
-2.24531e-11
3.04181e-10
-1.13834e-11
3.18033e-10
5.50365e-12
3.29051e-10
-2.43902e-12
3.17912e-10
-3.55843e-11
3.20868e-10
-3.84888e-11
3.43425e-10
-2.45966e-11
3.68874e-10
-7.66465e-12
3.91128e-10
1.33894e-11
4.04198e-10
3.55425e-11
4.10796e-10
4.65225e-11
4.12466e-10
5.42466e-11
4.06418e-10
6.2471e-11
3.97938e-10
5.71119e-11
3.96299e-10
3.25199e-11
4.03726e-10
5.71336e-12
5.19836e-12
4.07113e-10
1.24367e-13
3.36503e-12
5.29057e-13
7.80969e-12
1.2958e-12
9.63061e-12
2.53688e-12
8.72809e-12
4.37682e-12
5.20079e-12
6.94019e-12
-7.17064e-13
1.0344e-11
-8.7093e-12
1.46937e-11
-1.84178e-11
2.0082e-11
-2.94707e-11
2.65901e-11
-4.15008e-11
3.42899e-11
-5.41628e-11
4.32471e-11
-6.71465e-11
5.3524e-11
-8.01859e-11
6.51789e-11
-9.30638e-11
7.82587e-11
-1.05613e-10
9.27702e-11
-1.17631e-10
1.08584e-10
-1.28886e-10
1.2523e-10
-1.39065e-10
1.41695e-10
-1.47633e-10
1.56409e-10
-1.54103e-10
1.68979e-10
-1.60689e-10
1.80179e-10
-1.72422e-10
1.89672e-10
-1.77377e-10
1.9479e-10
-1.71951e-10
1.99209e-10
-1.74495e-10
2.03209e-10
-1.28391e-10
2.72232e-10
-1.02496e-10
2.521e-10
-5.40926e-11
2.43113e-10
-5.21706e-11
2.49841e-10
-6.17275e-11
2.64386e-10
-6.37194e-11
2.82828e-10
-5.87224e-11
3.02614e-10
-5.22026e-11
3.23236e-10
-4.30753e-11
3.43218e-10
-3.13654e-11
3.64502e-10
-1.57803e-11
3.84466e-10
-2.24028e-11
3.88813e-10
-3.99316e-11
3.94495e-10
-4.41703e-11
4.07364e-10
-3.74656e-11
4.2738e-10
-2.76808e-11
4.45336e-10
-4.56611e-12
4.514e-10
2.94777e-11
4.61833e-10
3.60899e-11
4.66614e-10
4.94658e-11
4.58716e-10
7.03685e-11
4.44598e-10
7.12301e-11
4.40878e-10
3.62403e-11
4.53664e-10
-7.0731e-12
1.46172e-13
4.58716e-10
9.94958e-14
3.26553e-12
4.48199e-13
7.46098e-12
1.1408e-12
8.938e-12
2.29852e-12
7.57037e-12
4.05206e-12
3.44725e-12
6.53021e-12
-3.19522e-12
9.85278e-12
-1.20319e-11
1.41272e-11
-2.26922e-11
1.94479e-11
-3.47915e-11
2.58994e-11
-4.79523e-11
3.35602e-11
-6.18236e-11
4.25103e-11
-7.60966e-11
5.28431e-11
-9.05187e-11
6.46832e-11
-1.04904e-10
7.82051e-11
-1.19135e-10
9.36566e-11
-1.33082e-10
1.11306e-10
-1.46536e-10
1.31241e-10
-1.59e-10
1.54561e-10
-1.70953e-10
1.77928e-10
-1.7747e-10
1.95972e-10
-1.78732e-10
2.04812e-10
-1.81262e-10
2.27588e-10
-2.00153e-10
2.08182e-10
-1.52544e-10
2.00095e-10
-1.66408e-10
2.12523e-10
-1.40819e-10
2.25471e-10
-1.15444e-10
2.17919e-10
-4.65397e-11
2.28704e-10
-6.29558e-11
2.50598e-10
-8.36221e-11
2.76109e-10
-8.92296e-11
3.01249e-10
-8.3863e-11
3.2467e-10
-7.56232e-11
3.48176e-10
-6.65821e-11
3.71552e-10
-5.47406e-11
4.00827e-10
-4.50555e-11
4.25448e-10
-4.70237e-11
4.39541e-10
-5.40249e-11
4.49372e-10
-5.40011e-11
4.59366e-10
-4.74596e-11
4.73921e-10
-4.22363e-11
4.90117e-10
-2.07617e-11
4.99124e-10
2.04706e-11
5.17625e-10
1.75893e-11
5.28725e-10
3.83657e-11
5.22307e-10
7.67857e-11
4.9833e-10
9.52079e-11
4.8977e-10
4.48005e-11
5.06064e-10
-2.33678e-11
-2.06767e-12
5.08278e-10
5.93235e-14
3.20621e-12
3.1425e-13
7.20606e-12
8.77281e-13
8.37497e-12
1.88093e-12
6.56671e-12
3.46261e-12
1.86556e-12
5.75412e-12
-5.48673e-12
8.87482e-12
-1.51526e-11
1.29281e-11
-2.67455e-11
1.80007e-11
-3.98641e-11
2.41647e-11
-5.41163e-11
3.14817e-11
-6.91406e-11
4.00103e-11
-8.46252e-11
4.98229e-11
-1.00331e-10
6.10365e-11
-1.16118e-10
7.3838e-11
-1.31937e-10
8.85326e-11
-1.47777e-10
1.05552e-10
-1.63556e-10
1.26419e-10
-1.79867e-10
1.4893e-10
-1.93464e-10
1.82218e-10
-2.10757e-10
2.36059e-10
-2.32573e-10
2.62053e-10
-2.07255e-10
2.26076e-10
-1.64176e-10
2.15637e-10
-1.42105e-10
2.29224e-10
-1.79995e-10
1.3296e-10
-4.45557e-11
1.79565e-10
-1.62049e-10
1.77448e-10
-4.44229e-11
2.23202e-10
-1.0871e-10
2.59244e-10
-1.19664e-10
2.89676e-10
-1.19662e-10
3.19891e-10
-1.14079e-10
3.48952e-10
-1.04684e-10
3.7609e-10
-9.37194e-11
4.04502e-10
-8.31529e-11
4.34752e-10
-7.53059e-11
4.61133e-10
-7.34043e-11
4.79823e-10
-7.2715e-11
4.93605e-10
-6.77828e-11
5.05143e-10
-5.89981e-11
5.14889e-10
-5.19815e-11
5.29743e-10
-3.56163e-11
5.61162e-10
-1.09484e-11
5.72021e-10
6.7309e-12
5.83973e-10
2.64134e-11
5.98724e-10
6.20343e-11
6.03983e-10
8.99494e-11
5.54771e-10
9.40123e-11
5.63054e-10
-3.16506e-11
2.1225e-11
5.39761e-10
6.6914e-15
3.19952e-12
1.37062e-13
7.07569e-12
5.25503e-13
7.98653e-12
1.31797e-12
5.77424e-12
2.65929e-12
5.24238e-13
4.68363e-12
-7.51108e-12
7.50778e-12
-1.79767e-11
1.12269e-11
-3.04646e-11
1.59125e-11
-4.45497e-11
2.16124e-11
-5.98162e-11
2.83514e-11
-7.58795e-11
3.61357e-11
-9.24096e-11
4.49636e-11
-1.09159e-10
5.48416e-11
-1.25996e-10
6.57576e-11
-1.42853e-10
7.76283e-11
-1.59648e-10
9.08586e-11
-1.76786e-10
1.01462e-10
-1.9047e-10
1.14261e-10
-2.06263e-10
1.3822e-10
-2.34716e-10
1.41658e-10
-2.36012e-10
1.26319e-10
-1.91917e-10
1.1104e-10
-1.48897e-10
5.59822e-11
-8.7047e-11
1.01782e-10
-2.25795e-10
2.08933e-10
-1.51706e-10
2.34032e-10
-1.87149e-10
2.36229e-10
-4.66194e-11
2.53839e-10
-1.2632e-10
2.82525e-10
-1.48349e-10
3.10157e-10
-1.47294e-10
3.39891e-10
-1.43813e-10
3.70527e-10
-1.3532e-10
4.00743e-10
-1.23935e-10
4.31578e-10
-1.13988e-10
4.62454e-10
-1.06182e-10
4.90001e-10
-1.00951e-10
5.12387e-10
-9.5101e-11
5.30241e-10
-8.56372e-11
5.43449e-10
-7.22057e-11
5.54811e-10
-6.33435e-11
5.74943e-10
-5.57488e-11
5.96195e-10
-3.21997e-11
6.07999e-10
-5.07375e-12
6.23954e-10
1.04587e-11
6.59408e-10
2.65803e-11
6.90198e-10
5.91589e-11
6.90277e-10
9.39335e-11
6.34755e-10
2.38714e-11
3.36186e-11
6.22362e-10
-5.45814e-14
3.2541e-12
-7.00913e-14
7.09121e-12
1.12824e-13
7.80362e-12
6.55494e-13
5.23157e-12
1.7114e-12
-5.31675e-13
3.41778e-12
-9.21746e-12
5.88896e-12
-2.04479e-11
9.21134e-12
-3.3787e-11
1.34398e-11
-4.87782e-11
1.85952e-11
-6.49716e-11
2.46619e-11
-8.19462e-11
3.15868e-11
-9.93346e-11
3.9279e-11
-1.16851e-10
4.75993e-11
-1.34316e-10
5.63265e-11
-1.5158e-10
6.53618e-11
-1.68683e-10
7.19607e-11
-1.83385e-10
7.93981e-11
-1.97907e-10
9.35029e-11
-2.20368e-10
9.50744e-11
-2.36288e-10
8.94776e-11
-2.30415e-10
1.08414e-10
-2.10853e-10
1.55211e-10
-1.95694e-10
2.69025e-10
-2.0086e-10
1.74643e-10
-1.31413e-10
1.53983e-10
-1.31046e-10
7.25164e-11
-1.05682e-10
1.98896e-10
-1.72999e-10
2.53511e-10
-1.80935e-10
2.8868e-10
-1.83519e-10
3.18594e-10
-1.77207e-10
3.56851e-10
-1.82071e-10
3.89851e-10
-1.6832e-10
4.19617e-10
-1.53701e-10
4.49025e-10
-1.43396e-10
4.77735e-10
-1.34893e-10