/*--------------------------------*- C++ -*----------------------------------*\
| =========                 |                                                 |
| \\      /  F ield         | OpenFOAM: The Open Source CFD Toolbox           |
|  \\    /   O peration     | Version:  2.4.0                                 |
|   \\  /    A nd           | Web:      www.OpenFOAM.org                      |
|    \\/     M anipulation  |                                                 |
\*---------------------------------------------------------------------------*/
FoamFile
{
    version     2.0;
    format      ascii;
    class       volVectorField;
    location    "0.406";
    object      U;
}
// * * * * * * * * * * * * * * * * * * * * * * * * * * * * * * * * * * * * * //

dimensions      [0 1 -1 0 0 0 0];

internalField   nonuniform List<vector> 
10000
(
(2.16151e-07 -2.1573e-07 0)
(-2.86137e-07 1.52198e-07 0)
(-2.41632e-06 5.51472e-07 0)
(-5.83992e-06 8.33169e-07 0)
(-1.0126e-05 9.94249e-07 0)
(-1.4848e-05 1.06064e-06 0)
(-1.96546e-05 1.05588e-06 0)
(-2.42698e-05 9.99025e-07 0)
(-2.84821e-05 9.04701e-07 0)
(-3.21313e-05 7.83593e-07 0)
(-3.50981e-05 6.43303e-07 0)
(-3.72953e-05 4.89338e-07 0)
(-3.86621e-05 3.25974e-07 0)
(-3.91599e-05 1.56919e-07 0)
(-3.87716e-05 -1.39799e-08 0)
(-3.75021e-05 -1.82815e-07 0)
(-3.53813e-05 -3.44813e-07 0)
(-3.24667e-05 -4.94411e-07 0)
(-2.88464e-05 -6.25357e-07 0)
(-2.46413e-05 -7.31011e-07 0)
(-2.00052e-05 -8.04807e-07 0)
(-1.51218e-05 -8.40802e-07 0)
(-1.02004e-05 -8.34311e-07 0)
(-5.46683e-06 -7.8258e-07 0)
(-1.15282e-06 -6.85452e-07 0)
(2.51828e-06 -5.45959e-07 0)
(5.34771e-06 -3.70675e-07 0)
(7.17857e-06 -1.69999e-07 0)
(7.91226e-06 4.22107e-08 0)
(7.52199e-06 2.49622e-07 0)
(6.05896e-06 4.35577e-07 0)
(3.64559e-06 5.86885e-07 0)
(4.51029e-07 6.98128e-07 0)
(-3.35195e-06 7.75748e-07 0)
(-7.64225e-06 8.3959e-07 0)
(-1.2398e-05 9.1785e-07 0)
(-1.77034e-05 1.03335e-06 0)
(-2.36951e-05 1.18887e-06 0)
(-3.04707e-05 1.3639e-06 0)
(-3.80142e-05 1.52604e-06 0)
(-4.61737e-05 1.64407e-06 0)
(-5.46838e-05 1.69616e-06 0)
(-6.32129e-05 1.67274e-06 0)
(-7.14139e-05 1.57545e-06 0)
(-7.89675e-05 1.41438e-06 0)
(-8.56117e-05 1.2046e-06 0)
(-9.11569e-05 9.63031e-07 0)
(-9.54895e-05 7.05956e-07 0)
(-9.85661e-05 4.47431e-07 0)
(-0.000100403 1.98477e-07 0)
(-1.50803e-07 2.86761e-07 0)
(-2.8848e-06 2.89327e-06 0)
(-9.00108e-06 5.59963e-06 0)
(-1.77749e-05 7.61812e-06 0)
(-2.83033e-05 8.82757e-06 0)
(-3.97036e-05 9.30956e-06 0)
(-5.11979e-05 9.19181e-06 0)
(-6.21345e-05 8.59987e-06 0)
(-7.19876e-05 7.64241e-06 0)
(-8.03441e-05 6.40823e-06 0)
(-8.68869e-05 4.96835e-06 0)
(-9.13801e-05 3.38023e-06 0)
(-9.3658e-05 1.6925e-06 0)
(-9.36177e-05 -5.04817e-08 0)
(-9.12176e-05 -1.80445e-06 0)
(-8.64792e-05 -3.52233e-06 0)
(-7.94923e-05 -5.1517e-06 0)
(-7.04224e-05 -6.63434e-06 0)
(-5.95169e-05 -7.90744e-06 0)
(-4.71084e-05 -8.90651e-06 0)
(-3.3614e-05 -9.56962e-06 0)
(-1.95274e-05 -9.84249e-06 0)
(-5.40465e-06 -9.68421e-06 0)
(8.1576e-06 -9.07311e-06 0)
(2.05515e-05 -8.01247e-06 0)
(3.11935e-05 -6.53518e-06 0)
(3.95645e-05 -4.70663e-06 0)
(4.52522e-05 -2.62502e-06 0)
(4.79908e-05 -4.17468e-07 0)
(4.76925e-05 1.77002e-06 0)
(4.44629e-05 3.79171e-06 0)
(3.85858e-05 5.53221e-06 0)
(3.04666e-05 6.94054e-06 0)
(2.05331e-05 8.05935e-06 0)
(9.10579e-06 9.03098e-06 0)
(-3.71966e-06 1.00542e-05 0)
(-1.80945e-05 1.1285e-05 0)
(-3.42917e-05 1.27366e-05 0)
(-5.24865e-05 1.42569e-05 0)
(-7.25808e-05 1.56031e-05 0)
(-9.41565e-05 1.65353e-05 0)
(-0.000116534 1.68817e-05 0)
(-0.000138885 1.65649e-05 0)
(-0.000160348 1.55976e-05 0)
(-0.000180134 1.40624e-05 0)
(-0.000197592 1.20853e-05 0)
(-0.000212249 9.81043e-06 0)
(-0.000223816 7.38021e-06 0)
(-0.000232175 4.92113e-06 0)
(-0.000237359 2.53586e-06 0)
(-5.4558e-07 2.40676e-06 0)
(-5.56199e-06 8.99935e-06 0)
(-1.5042e-05 1.50978e-05 0)
(-2.78466e-05 1.9603e-05 0)
(-4.27426e-05 2.2287e-05 0)
(-5.85888e-05 2.32738e-05 0)
(-7.43597e-05 2.28062e-05 0)
(-8.91674e-05 2.11479e-05 0)
(-0.000102273 1.85438e-05 0)
(-0.000113083 1.5206e-05 0)
(-0.000121132 1.13139e-05 0)
(-0.00012607 7.01911e-06 0)
(-0.000127649 2.45467e-06 0)
(-0.000125715 -2.25549e-06 0)
(-0.000120209 -6.98746e-06 0)
(-0.000111167 -1.16094e-05 0)
(-9.87324e-05 -1.59767e-05 0)
(-8.31615e-05 -1.99311e-05 0)
(-6.48362e-05 -2.33038e-05 0)
(-4.42677e-05 -2.59234e-05 0)
(-2.20937e-05 -2.76269e-05 0)
(9.32883e-07 -2.82732e-05 0)
(2.39665e-05 -2.77576e-05 0)
(4.61018e-05 -2.60266e-05 0)
(6.64169e-05 -2.30927e-05 0)
(8.40264e-05 -1.90448e-05 0)
(9.81397e-05 -1.40557e-05 0)
(0.000108122 -8.38122e-06 0)
(0.000113553 -2.35029e-06 0)
(0.000114274 3.65962e-06 0)
(0.000110417 9.26941e-06 0)
(0.000102395 1.41727e-05 0)
(9.08234e-05 1.82212e-05 0)
(7.63826e-05 2.15009e-05 0)
(5.96105e-05 2.43544e-05 0)
(4.06912e-05 2.72774e-05 0)
(1.93901e-05 3.06646e-05 0)
(-4.74305e-06 3.45453e-05 0)
(-3.19913e-05 3.85256e-05 0)
(-6.21817e-05 4.19884e-05 0)
(-9.46367e-05 4.43345e-05 0)
(-0.000128292 4.51425e-05 0)
(-0.000161881 4.42293e-05 0)
(-0.000194114 4.16378e-05 0)
(-0.000223821 3.75836e-05 0)
(-0.000250052 3.23893e-05 0)
(-0.000272119 2.64233e-05 0)
(-0.000289607 2.00497e-05 0)
(-0.000302354 1.35945e-05 0)
(-0.000310415 7.32425e-06 0)
(-8.18903e-07 5.79836e-06 0)
(-7.53226e-06 1.7725e-05 0)
(-1.94536e-05 2.78803e-05 0)
(-3.50127e-05 3.51839e-05 0)
(-5.26841e-05 3.94115e-05 0)
(-7.11461e-05 4.076e-05 0)
(-8.92215e-05 3.96001e-05 0)
(-0.00010588 3.63488e-05 0)
(-0.000120251 3.14074e-05 0)
(-0.000131624 2.51359e-05 0)
(-0.000139435 1.7848e-05 0)
(-0.000143254 9.8168e-06 0)
(-0.000142774 1.28717e-06 0)
(-0.000137805 -7.50954e-06 0)
(-0.000128272 -1.63402e-05 0)
(-0.00011422 -2.49565e-05 0)
(-9.58278e-05 -3.30869e-05 0)
(-7.34217e-05 -4.04344e-05 0)
(-4.74881e-05 -4.66833e-05 0)
(-1.86815e-05 -5.15139e-05 0)
(1.2179e-05 -5.46238e-05 0)
(4.41243e-05 -5.57518e-05 0)
(7.60643e-05 -5.4705e-05 0)
(0.000106829 -5.13855e-05 0)
(0.000135225 -4.58164e-05 0)
(0.0001601 -3.81609e-05 0)
(0.000180419 -2.87344e-05 0)
(0.000195339 -1.80031e-05 0)
(0.000204281 -6.56777e-06 0)
(0.000207 4.87447e-06 0)
(0.000203638 1.56087e-05 0)
(0.00019473 2.50374e-05 0)
(0.000181132 3.28397e-05 0)
(0.000163847 3.91309e-05 0)
(0.000143714 4.4543e-05 0)
(0.000121026 5.00546e-05 0)
(9.53516e-05 5.64745e-05 0)
(6.58605e-05 6.38694e-05 0)
(3.20071e-05 7.14432e-05 0)
(-5.99847e-06 7.79886e-05 0)
(-4.71837e-05 8.23787e-05 0)
(-9.00529e-05 8.38556e-05 0)
(-0.000132879 8.21188e-05 0)
(-0.000173953 7.72824e-05 0)
(-0.000211768 6.97674e-05 0)
(-0.000245124 6.0179e-05 0)
(-0.000273174 4.9196e-05 0)
(-0.000295425 3.74852e-05 0)
(-0.000311707 2.56411e-05 0)
(-0.000322122 1.41502e-05 0)
(-9.69203e-07 1.00223e-05 0)
(-8.6856e-06 2.81565e-05 0)
(-2.20381e-05 4.27061e-05 0)
(-3.91086e-05 5.28319e-05 0)
(-5.81321e-05 5.84362e-05 0)
(-7.76483e-05 5.98429e-05 0)
(-9.63818e-05 5.75724e-05 0)
(-0.000113219 5.22064e-05 0)
(-0.000127215 4.43122e-05 0)
(-0.000137593 3.44092e-05 0)
(-0.000143731 2.29584e-05 0)
(-0.000145152 1.03686e-05 0)
(-0.000141512 -2.98822e-06 0)
(-0.000132591 -1.67571e-05 0)
(-0.000118298 -3.05774e-05 0)
(-9.86763e-05 -4.40632e-05 0)
(-7.39209e-05 -5.67899e-05 0)
(-4.43986e-05 -6.8291e-05 0)
(-1.06685e-05 -7.8069e-05 0)
(2.65069e-05 -8.56195e-05 0)
(6.61632e-05 -9.04648e-05 0)
(0.000107151 -9.21925e-05 0)
(0.000148171 -9.04966e-05 0)
(0.000187819 -8.52198e-05 0)
(0.000224656 -7.63924e-05 0)
(0.000257288 -6.4262e-05 0)
(0.000284448 -4.931e-05 0)
(0.000305086 -3.22504e-05 0)
(0.000318455 -1.40096e-05 0)
(0.000324191 4.31565e-06 0)
(0.00032242 2.15615e-05 0)
(0.000313799 3.67096e-05 0)
(0.000299479 4.91436e-05 0)
(0.000280924 5.8954e-05 0)
(0.000259463 6.71798e-05 0)
(0.000235561 7.5606e-05 0)
(0.000208382 8.57925e-05 0)
(0.00017632 9.78966e-05 0)
(0.000138284 0.00011043 0)
(9.449e-05 0.000121246 0)
(4.63212e-05 0.000128466 0)
(-4.16702e-06 0.000130917 0)
(-5.47028e-05 0.000128205 0)
(-0.000103131 0.000120594 0)
(-0.000147618 0.00010881 0)
(-0.000186755 9.38383e-05 0)
(-0.000219585 7.6755e-05 0)
(-0.000245585 5.86015e-05 0)
(-0.000264619 4.02989e-05 0)
(-0.000276867 2.25967e-05 0)
(-1.02395e-06 1.46502e-05 0)
(-9.11684e-06 3.94173e-05 0)
(-2.29537e-05 5.84537e-05 0)
(-4.03947e-05 7.12595e-05 0)
(-5.95107e-05 7.79502e-05 0)
(-7.87437e-05 7.90291e-05 0)
(-9.67568e-05 7.5194e-05 0)
(-0.000112393 6.72039e-05 0)
(-0.000124674 5.58005e-05 0)
(-0.000132794 4.16679e-05 0)
(-0.000136107 2.54201e-05 0)
(-0.000134116 7.60687e-06 0)
(-0.000126453 -1.12683e-05 0)
(-0.00011288 -3.0721e-05 0)
(-9.32838e-05 -5.0256e-05 0)
(-6.76917e-05 -6.93386e-05 0)
(-3.62894e-05 -8.73735e-05 0)
(5.47233e-07 -0.0001037 0)
(4.2222e-05 -0.000117606 0)
(8.78989e-05 -0.000128366 0)
(0.000136501 -0.000135291 0)
(0.000186728 -0.000137784 0)
(0.000237095 -0.000135397 0)
(0.000285989 -0.000127895 0)
(0.000331741 -0.000115307 0)
(0.000372725 -9.79686e-05 0)
(0.000407458 -7.65434e-05 0)
(0.000434686 -5.20157e-05 0)
(0.000453467 -2.56716e-05 0)
(0.000463273 9.22154e-07 0)
(0.000464155 2.60207e-05 0)
(0.000456868 4.8009e-05 0)
(0.000442906 6.57658e-05 0)
(0.000424413 7.92035e-05 0)
(0.000403572 8.99084e-05 0)
(0.000381228 0.000101054 0)
(0.000355804 0.000115618 0)
(0.000324198 0.000133962 0)
(0.000284306 0.000153328 0)
(0.000236405 0.000170025 0)
(0.000182553 0.000181114 0)
(0.000125599 0.000184955 0)
(6.84931e-05 0.00018115 0)
(1.38796e-05 0.000170255 0)
(-3.60982e-05 0.000153436 0)
(-7.98672e-05 0.000132179 0)
(-0.000116416 0.00010805 0)
(-0.000145245 8.25327e-05 0)
(-0.000166295 5.69266e-05 0)
(-0.000179863 3.22783e-05 0)
(-1.00814e-06 1.93362e-05 0)
(-8.96643e-06 5.07527e-05 0)
(-2.24756e-05 7.41417e-05 0)
(-3.93001e-05 8.93552e-05 0)
(-5.74291e-05 9.6764e-05 0)
(-7.52514e-05 9.70879e-05 0)
(-9.14008e-05 9.12255e-05 0)
(-0.000104707 8.01275e-05 0)
(-0.000114189 6.47168e-05 0)
(-0.000119043 4.58461e-05 0)
(-0.000118624 2.42832e-05 0)
(-0.000112436 7.1666e-07 0)
(-0.000100106 -2.42217e-05 0)
(-8.13803e-05 -4.99235e-05 0)
(-5.61209e-05 -7.57629e-05 0)
(-2.43184e-05 -0.000101056 0)
(1.38788e-05 -0.000125028 0)
(5.81223e-05 -0.000146804 0)
(0.000107817 -0.000165424 0)
(0.000162087 -0.000179903 0)
(0.000219772 -0.000189299 0)
(0.000279446 -0.000192794 0)
(0.000339456 -0.000189766 0)
(0.000397987 -0.000179873 0)
(0.000453151 -0.000163137 0)
(0.000503105 -0.000139985 0)
(0.000546162 -0.000111272 0)
(0.000580886 -7.82629e-05 0)
(0.000606127 -4.26009e-05 0)
(0.000621105 -6.36287e-06 0)
(0.000625697 2.79763e-05 0)
(0.000620657 5.79819e-05 0)
(0.000607794 8.1673e-05 0)
(0.000590228 9.83939e-05 0)
(0.000571707 0.000110366 0)
(0.000553972 0.000123185 0)
(0.000534196 0.000142591 0)
(0.000506442 0.000169371 0)
(0.000466844 0.000198299 0)
(0.000416028 0.000223081 0)
(0.000357283 0.000239342 0)
(0.000294624 0.000245034 0)
(0.000231822 0.000239969 0)
(0.000172026 0.000225217 0)
(0.000117636 0.000202577 0)
(7.03184e-05 0.000174167 0)
(3.10715e-05 0.000142137 0)
(3.14789e-07 0.000108479 0)
(-2.20179e-05 7.49107e-05 0)
(-3.63784e-05 4.28027e-05 0)
(-9.42103e-07 2.38159e-05 0)
(-8.37159e-06 6.15497e-05 0)
(-2.08971e-05 8.8948e-05 0)
(-3.62934e-05 0.000106179 0)
(-5.25445e-05 0.000113877 0)
(-6.80298e-05 0.000112995 0)
(-8.13841e-05 0.000104649 0)
(-9.14506e-05 8.99919e-05 0)
(-9.7269e-05 7.01355e-05 0)
(-9.80607e-05 4.6103e-05 0)
(-9.32091e-05 1.88139e-05 0)
(-8.22361e-05 -1.09106e-05 0)
(-6.47804e-05 -4.23221e-05 0)
(-4.05796e-05 -7.47033e-05 0)
(-9.46494e-06 -0.000107314 0)
(2.86273e-05 -0.000139334 0)
(7.36197e-05 -0.000169811 0)
(0.000125234 -0.000197637 0)
(0.000182919 -0.000221572 0)
(0.000245795 -0.000240324 0)
(0.00031264 -0.000252652 0)
(0.000381922 -0.000257471 0)
(0.000451828 -0.000253944 0)
(0.000520338 -0.000241596 0)
(0.000585343 -0.000220431 0)
(0.000644791 -0.000190983 0)
(0.000696837 -0.000154322 0)
(0.000739927 -0.000111986 0)
(0.00077272 -6.59064e-05 0)
(0.000794069 -1.86382e-05 0)
(0.000803505 2.64642e-05 0)
(0.000801561 6.5918e-05 0)
(0.000790105 9.63267e-05 0)
(0.00077352 0.000115546 0)
(0.00075844 0.000126217 0)
(0.000748766 0.000138173 0)
(0.000739627 0.000162656 0)
(0.000719707 0.00020133 0)
(0.000682159 0.000243928 0)
(0.000628875 0.000279723 0)
(0.000565463 0.00030261 0)
(0.000497581 0.000310481 0)
(0.000429899 0.000303793 0)
(0.000365973 0.000284468 0)
(0.000308338 0.000255156 0)
(0.00025864 0.000218746 0)
(0.000217781 0.00017805 0)
(0.000186048 0.000135614 0)
(0.000163207 9.36082e-05 0)
(0.000148619 5.37435e-05 0)
(-8.41674e-07 2.78949e-05 0)
(-7.45195e-06 7.1335e-05 0)
(-1.84904e-05 0.000102219 0)
(-3.18235e-05 0.000120974 0)
(-4.5492e-05 0.000128478 0)
(-5.7905e-05 0.000125922 0)
(-6.77262e-05 0.000114644 0)
(-7.38339e-05 9.60109e-05 0)
(-7.53098e-05 7.13256e-05 0)
(-7.14223e-05 4.17853e-05 0)
(-6.16025e-05 8.45812e-06 0)
(-4.54149e-05 -2.77117e-05 0)
(-2.25263e-05 -6.58765e-05 0)
(7.32213e-06 -0.000105236 0)
(4.43304e-05 -0.000144965 0)
(8.86338e-05 -0.000184135 0)
(0.000140262 -0.00022163 0)
(0.00019906 -0.000256102 0)
(0.000264569 -0.000285987 0)
(0.000335941 -0.000309626 0)
(0.000411918 -0.000325427 0)
(0.000490869 -0.000331984 0)
(0.000570822 -0.000328188 0)
(0.000649526 -0.000313397 0)
(0.000724621 -0.000287601 0)
(0.000793853 -0.000251483 0)
(0.000855293 -0.000206399 0)
(0.00090745 -0.000154157 0)
(0.000948907 -9.67838e-05 0)
(0.000977982 -3.71268e-05 0)
(0.000993644 2.04406e-05 0)
(0.000995831 7.13066e-05 0)
(0.000985663 0.000109918 0)
(0.000968768 0.000130646 0)
(0.000957015 0.000135348 0)
(0.00095936 0.000141192 0)
(0.00096775 0.000170589 0)
(0.000960476 0.000227026 0)
(0.000925806 0.00028956 0)
(0.000869329 0.000339994 0)
(0.000800929 0.000370748 0)
(0.000728334 0.000380671 0)
(0.000656888 0.000371625 0)
(0.000590252 0.000346801 0)
(0.000530859 0.000309916 0)
(0.000480187 0.000264719 0)
(0.000438965 0.000214719 0)
(0.000407307 0.000163038 0)
(0.0003848 0.000112322 0)
(0.00037059 6.46341e-05 0)
(-7.1879e-07 3.14358e-05 0)
(-6.30755e-06 7.9761e-05 0)
(-1.54956e-05 0.000113461 0)
(-2.62975e-05 0.000133157 0)
(-3.68566e-05 0.000139939 0)
(-4.56428e-05 0.000135224 0)
(-5.13699e-05 0.000120575 0)
(-5.29692e-05 9.7573e-05 0)
(-4.95816e-05 6.77214e-05 0)
(-4.0541e-05 3.23935e-05 0)
(-2.53477e-05 -7.19518e-06 0)
(-3.63259e-06 -4.99875e-05 0)
(2.48849e-05 -9.50579e-05 0)
(6.0439e-05 -0.000141556 0)
(0.000103252 -0.000188619 0)
(0.00015354 -0.000235257 0)
(0.000211478 -0.000280228 0)
(0.000277095 -0.000321942 0)
(0.000350094 -0.000358459 0)
(0.000429697 -0.000387675 0)
(0.00051463 -0.000407577 0)
(0.000603177 -0.000416374 0)
(0.000693184 -0.000412608 0)
(0.000782101 -0.000395407 0)
(0.000867242 -0.00036478 0)
(0.000946112 -0.000321666 0)
(0.00101681 -0.000267895 0)
(0.00107831 -0.00020563 0)
(0.00112946 -0.000136543 0)
(0.00116784 -6.32881e-05 0)
(0.00119162 8.50637e-06 0)
(0.00119971 7.36089e-05 0)
(0.00119068 0.000123621 0)
(0.0011702 0.000145452 0)
(0.00115916 0.00013636 0)
(0.00117792 0.000125917 0)
(0.00121387 0.000159236 0)
(0.00122497 0.00024396 0)
(0.00119187 0.000335964 0)
(0.00112974 0.000404872 0)
(0.00105586 0.000443707 0)
(0.000979775 0.000454592 0)
(0.000906603 0.000441921 0)
(0.000839469 0.000410511 0)
(0.000780384 0.000365216 0)
(0.000730514 0.000310629 0)
(0.000690383 0.000250914 0)
(0.000659966 0.000189757 0)
(0.000638692 0.000130298 0)
(0.000625488 7.49837e-05 0)
(-5.82537e-07 3.43482e-05 0)
(-5.02192e-06 8.65905e-05 0)
(-1.21223e-05 0.000122332 0)
(-2.00801e-05 0.000142315 0)
(-2.71709e-05 0.000147808 0)
(-3.19453e-05 0.00014043 0)
(-3.31813e-05 0.000121968 0)
(-2.98749e-05 9.42192e-05 0)
(-2.12378e-05 5.88936e-05 0)
(-6.68437e-06 1.75475e-05 0)
(1.41959e-05 -2.84539e-05 0)
(4.1679e-05 -7.79466e-05 0)
(7.59599e-05 -0.000129948 0)
(0.000117215 -0.000183598 0)
(0.000165659 -0.000238055 0)
(0.000221586 -0.000292345 0)
(0.000285344 -0.000345168 0)
(0.000357224 -0.000394715 0)
(0.000437176 -0.000438602 0)
(0.000524552 -0.000474168 0)
(0.000618092 -0.000498897 0)
(0.000716018 -0.000510533 0)
(0.000815951 -0.000507124 0)
(0.000914891 -0.000487465 0)
(0.00100964 -0.000451641 0)
(0.00109729 -0.000401056 0)
(0.00117608 -0.000338502 0)
(0.0012462 -0.000266906 0)
(0.00130774 -0.000186631 0)
(0.00135724 -9.8893e-05 0)
(0.00139188 -1.16701e-05 0)
(0.00140948 7.15232e-05 0)
(0.0014027 0.000139814 0)
(0.00137328 0.000165057 0)
(0.00135578 0.000129517 0)
(0.00139493 8.35514e-05 0)
(0.00147305 0.000118074 0)
(0.00150864 0.000251041 0)
(0.00147133 0.000386875 0)
(0.00139894 0.00047648 0)
(0.00132013 0.000520821 0)
(0.00124389 0.000529984 0)
(0.00117288 0.000511958 0)
(0.00110876 0.000473005 0)
(0.00105283 0.00041884 0)
(0.00100595 0.000354694 0)
(0.000968529 0.000285243 0)
(0.000940567 0.000214698 0)
(0.000921435 0.00014676 0)
(0.000909836 8.43202e-05 0)
(-4.40237e-07 3.65806e-05 0)
(-3.66687e-06 9.1683e-05 0)
(-8.55606e-06 0.000128622 0)
(-1.35015e-05 0.000148191 0)
(-1.69242e-05 0.000151792 0)
(-1.74636e-05 0.000141231 0)
(-1.39674e-05 0.000118502 0)
(-5.49881e-06 8.56255e-05 0)
(8.65521e-06 4.45256e-05 0)
(2.89918e-05 -3.04632e-06 0)
(5.58162e-05 -5.5565e-05 0)
(8.92842e-05 -0.000111757 0)
(0.000129466 -0.000170595 0)
(0.000176429 -0.00023125 0)
(0.00023033 -0.000292976 0)
(0.000291496 -0.000354913 0)
(0.000360456 -0.000415831 0)
(0.00043784 -0.00047377 0)
(0.00052397 -0.000525824 0)
(0.000618421 -0.000568611 0)
(0.000720021 -0.000599021 0)
(0.000826991 -0.00061422 0)
(0.000936664 -0.000611493 0)
(0.00104531 -0.000589078 0)
(0.00114886 -0.000547222 0)
(0.00124356 -0.000488075 0)
(0.00132751 -0.000416461 0)
(0.0014035 -0.000337516 0)
(0.00147496 -0.000248614 0)
(0.00153732 -0.000145989 0)
(0.00158683 -4.41623e-05 0)
(0.00162146 6.07906e-05 0)
(0.0016222 0.000161818 0)
(0.00157747 0.000200604 0)
(0.00153899 0.000119709 0)
(0.00159945 6.72275e-07 0)
(0.00173949 3.05936e-05 0)
(0.00180345 0.000251879 0)
(0.00174815 0.000452293 0)
(0.00166012 0.00055721 0)
(0.00158139 0.000598653 0)
(0.00151283 0.000601763 0)
(0.00145077 0.000577016 0)
(0.00139468 0.000530463 0)
(0.00134548 0.000467912 0)
(0.00130401 0.000394854 0)
(0.0012709 0.000316249 0)
(0.00124649 0.000236805 0)
(0.00123032 0.000160967 0)
(0.00122083 9.22631e-05 0)
(-2.98333e-07 3.81155e-05 0)
(-2.30718e-06 9.49859e-05 0)
(-4.96748e-06 0.000132246 0)
(-6.86926e-06 0.000150675 0)
(-6.57746e-06 0.000151762 0)
(-2.81759e-06 0.000137471 0)
(5.49905e-06 0.000110001 0)
(1.92484e-05 7.15921e-05 0)
(3.90751e-05 2.43963e-05 0)
(6.53903e-05 -2.96223e-05 0)
(9.8388e-05 -8.87568e-05 0)
(0.000138084 -0.000151607 0)
(0.000184384 -0.000217099 0)
(0.000237183 -0.000284459 0)
(0.000296496 -0.000353106 0)
(0.00036259 -0.000422426 0)
(0.000436113 -0.000491441 0)
(0.000518074 -0.000558215 0)
(0.000609305 -0.000619252 0)
(0.000709775 -0.000670255 0)
(0.000818603 -0.000707422 0)
(0.000934204 -0.000727161 0)
(0.00105359 -0.000725482 0)
(0.00117185 -0.000699614 0)
(0.00128354 -0.000650027 0)
(0.00138292 -0.000579669 0)
(0.00146669 -0.000497367 0)
(0.00154196 -0.000414402 0)
(0.00161982 -0.000323618 0)
(0.00169615 -0.000207536 0)
(0.00176392 -9.45684e-05 0)
(0.00182945 2.43391e-05 0)
(0.00185778 0.000186271 0)
(0.001794 0.00027566 0)
(0.00170603 0.000122627 0)
(0.00178543 -0.000154717 0)
(0.00200936 -0.000124279 0)
(0.00208987 0.000268201 0)
(0.00199014 0.000551223 0)
(0.00188806 0.000642258 0)
(0.00182761 0.00066528 0)
(0.00178259 0.000659619 0)
(0.00173939 0.000629804 0)
(0.00169718 0.000578011 0)
(0.00165819 0.00050929 0)
(0.00162406 0.00042917 0)
(0.00159625 0.000342713 0)
(0.00157604 0.000255205 0)
(0.00156345 0.000172307 0)
(0.00155646 9.86142e-05 0)
(-1.62969e-07 3.89672e-05 0)
(-1.00416e-06 9.65285e-05 0)
(-1.51875e-06 0.00013324 0)
(-4.78435e-07 0.000149798 0)
(3.42209e-06 0.000147737 0)
(1.13852e-05 0.000129153 0)
(2.44516e-05 9.64341e-05 0)
(4.34548e-05 5.20446e-05 0)
(6.89905e-05 -1.62455e-06 0)
(0.000101402 -6.23715e-05 0)
(0.000140786 -0.000128275 0)
(0.000187015 -0.000197771 0)
(0.000239807 -0.000269712 0)
(0.000298825 -0.000343373 0)
(0.000363838 -0.000418381 0)
(0.000434889 -0.000494476 0)
(0.000512557 -0.000571181 0)
(0.000598131 -0.000646899 0)
(0.000693032 -0.000717592 0)
(0.000797916 -0.00077794 0)
(0.000912676 -0.000823395 0)
(0.00103642 -0.000849254 0)
(0.00116591 -0.000849297 0)
(0.0012945 -0.000818891 0)
(0.00141482 -0.000758754 0)
(0.00151714 -0.000671515 0)
(0.0015931 -0.000573028 0)
(0.0016553 -0.000488843 0)
(0.00172831 -0.000408718 0)
(0.00182028 -0.000292861 0)
(0.00191175 -0.000165393 0)
(0.0020035 -5.28245e-05 0)
(0.00209794 0.000162128 0)
(0.00209985 0.000372825 0)
(0.00195569 0.000213457 0)
(0.00196091 -0.000374125 0)
(0.00220739 -0.000348709 0)
(0.00225735 0.000356154 0)
(0.00210999 0.000680134 0)
(0.00205403 0.000692974 0)
(0.00206129 0.000692092 0)
(0.00206221 0.000687559 0)
(0.00204652 0.000662015 0)
(0.0020218 0.000611324 0)
(0.0019946 0.00054085 0)
(0.00196802 0.000456833 0)
(0.00194492 0.00036437 0)
(0.00192851 0.000269568 0)
(0.00191978 0.000180361 0)
(0.00191564 0.000103407 0)
(-4.03109e-08 3.91799e-05 0)
(1.82237e-07 9.64192e-05 0)
(1.63201e-06 0.000131755 0)
(5.38196e-06 0.000145737 0)
(1.26323e-05 0.000139899 0)
(2.45359e-05 0.000116443 0)
(4.21096e-05 7.79304e-05 0)
(6.6173e-05 2.70489e-05 0)
(9.7307e-05 -3.35609e-05 0)
(0.000135826 -0.000101434 0)
(0.000181767 -0.000174394 0)
(0.000234894 -0.00025066 0)
(0.00029475 -0.000328948 0)
(0.000360741 -0.000408527 0)
(0.00043228 -0.000489203 0)
(0.000508984 -0.000571103 0)
(0.000591037 -0.000654488 0)
(0.000679653 -0.000738556 0)
(0.000776687 -0.000819042 0)
(0.000883773 -0.000889856 0)
(0.00100234 -0.000945838 0)
(0.00113324 -0.000980625 0)
(0.00127358 -0.000984042 0)
(0.00141433 -0.000948026 0)
(0.00154626 -0.000873857 0)
(0.00165264 -0.000759359 0)
(0.00171297 -0.000631819 0)
(0.00174663 -0.000544204 0)
(0.00179046 -0.000484333 0)
(0.00187211 -0.000404261 0)
(0.00199674 -0.000288177 0)
(0.00211459 -0.000175973 0)
(0.00225577 -1.35807e-05 0)
(0.00243714 0.000308916 0)
(0.00242581 0.000413571 0)
(0.00220312 -0.000293362 0)
(0.00213902 -0.000494108 0)
(0.00208395 0.00060348 0)
(0.00207429 0.0006472 0)
(0.00225261 0.000617139 0)
(0.00235432 0.000651734 0)
(0.00238848 0.000680175 0)
(0.0023898 0.000673912 0)
(0.00237763 0.000631315 0)
(0.00235996 0.00056365 0)
(0.00233877 0.000479349 0)
(0.00231775 0.000382667 0)
(0.00230339 0.000280409 0)
(0.00229868 0.000184801 0)
(0.00229817 0.00010677 0)
(6.357e-08 3.88283e-05 0)
(1.19344e-06 9.48443e-05 0)
(4.33081e-06 0.000128056 0)
(1.04295e-05 0.000138806 0)
(2.06166e-05 0.000128589 0)
(3.6023e-05 9.96799e-05 0)
(5.76711e-05 5.47983e-05 0)
(8.64019e-05 -3.15545e-06 0)
(0.000122826 -7.12871e-05 0)
(0.000167287 -0.000146851 0)
(0.000219832 -0.000227376 0)
(0.000280197 -0.000310804 0)
(0.000347822 -0.000395623 0)
(0.000421894 -0.000480976 0)
(0.000501445 -0.00056672 0)
(0.000585502 -0.000653261 0)
(0.00067345 -0.000741661 0)
(0.000765764 -0.00083237 0)
(0.000864138 -0.000921602 0)
(0.000971046 -0.00100334 0)
(0.00109002 -0.00107254 0)
(0.00122547 -0.00112096 0)
(0.00137662 -0.00113162 0)
(0.00153179 -0.00108998 0)
(0.00168172 -0.00100013 0)
(0.00179849 -0.000841831 0)
(0.00183701 -0.000661498 0)
(0.00183513 -0.000566223 0)
(0.00184739 -0.000521294 0)
(0.00187943 -0.00048037 0)
(0.00192386 -0.000377006 0)
(0.00191542 -0.000197424 0)
(0.00178435 -8.24079e-06 0)
(0.00163561 0.00026756 0)
(0.00170634 0.000407802 0)
(0.00193256 -0.000272117 0)
(0.00195076 -0.000511434 0)
(0.00228069 0.000339228 0)
(0.00273337 0.000501326 0)
(0.00276067 0.000548313 0)
(0.00275254 0.000627802 0)
(0.00275323 0.000676798 0)
(0.00275738 0.000680538 0)
(0.00275806 0.000642454 0)
(0.00275226 0.00057952 0)
(0.00273589 0.000499247 0)
(0.00271349 0.000400317 0)
(0.00269851 0.000288642 0)
(0.00269885 0.000184608 0)
(0.00270433 0.000108346 0)
(1.42466e-07 3.80165e-05 0)
(1.97375e-06 9.20643e-05 0)
(6.43287e-06 0.000122518 0)
(1.43975e-05 0.000129464 0)
(2.69576e-05 0.000114316 0)
(4.52505e-05 7.93956e-05 0)
(7.03323e-05 2.75565e-05 0)
(0.0001031 -3.81047e-05 0)
(0.000144241 -0.000114452 0)
(0.000194193 -0.000198458 0)
(0.000253107 -0.00028734 0)
(0.000320813 -0.000378712 0)
(0.0003968 -0.000470739 0)
(0.000480193 -0.000562273 0)
(0.000569773 -0.000652997 0)
(0.00066399 -0.000743284 0)
(0.000761119 -0.000834677 0)
(0.000860067 -0.000929063 0)
(0.000961283 -0.00102413 0)
(0.00106695 -0.00111519 0)
(0.00118197 -0.00119907 0)
(0.00131631 -0.00126762 0)
(0.00147463 -0.00129286 0)
(0.00164327 -0.00124858 0)
(0.00181999 -0.00115043 0)
(0.00196159 -0.000924267 0)
(0.00197139 -0.000644331 0)
(0.00193242 -0.00056312 0)
(0.00194533 -0.000534135 0)
(0.00195712 -0.000487141 0)
(0.00195068 -0.000367283 0)
(0.00192441 -0.000114055 0)
(0.00187912 0.000169325 0)
(0.00183612 0.000364285 0)
(0.00202908 7.39398e-05 0)
(0.00221815 -0.000474496 0)
(0.00197215 -0.000337316 0)
(0.0020791 -0.00039256 0)
(0.00255062 0.000326747 0)
(0.0027712 0.000485196 0)
(0.00291229 0.000584127 0)
(0.00302311 0.000637753 0)
(0.00310259 0.000654682 0)
(0.00315 0.000628497 0)
(0.00317085 0.000581872 0)
(0.00316091 0.000517755 0)
(0.00313082 0.000421397 0)
(0.00310999 0.000295387 0)
(0.0031178 0.000176825 0)
(0.00313465 0.000106403 0)
(1.90851e-07 3.68759e-05 0)
(2.47445e-06 8.84081e-05 0)
(7.81231e-06 0.00011562 0)
(1.7053e-05 0.0001183 0)
(3.12857e-05 9.77513e-05 0)
(5.16778e-05 5.6317e-05 0)
(7.93399e-05 -3.04047e-06 0)
(0.000115248 -7.70547e-05 0)
(0.0001602 -0.000162375 0)
(0.000214781 -0.000255723 0)
(0.000279333 -0.000354021 0)
(0.000353922 -0.000454554 0)
(0.000438295 -0.000555113 0)
(0.000531803 -0.000654118 0)
(0.000633334 -0.00075081 0)
(0.000741111 -0.000845021 0)
(0.000852476 -0.000938003 0)
(0.000964264 -0.00103249 0)
(0.00107421 -0.00112833 0)
(0.00118178 -0.00122325 0)
(0.00129036 -0.0013184 0)
(0.00141578 -0.00141313 0)
(0.00157025 -0.00146116 0)
(0.00173984 -0.00142222 0)
(0.00194422 -0.00134396 0)
(0.00213436 -0.00103171 0)
(0.00211567 -0.000540407 0)
(0.00204855 -0.000576244 0)
(0.00209588 -0.000567392 0)
(0.00213284 -0.00049321 0)
(0.00215673 -0.00036902 0)
(0.0022176 -0.000146016 0)
(0.00238875 5.82753e-05 0)
(0.00271555 0.000169065 0)
(0.00297026 -0.000124555 0)
(0.00269384 -0.000104259 0)
(0.00221105 1.05058e-05 0)
(0.00199894 -0.000592552 0)
(0.00222132 -9.66639e-05 0)
(0.00270716 0.000163216 0)
(0.00307307 0.00034355 0)
(0.00333665 0.0004716 0)
(0.00349894 0.000554924 0)
(0.0035912 0.000572446 0)
(0.00363451 0.000568271 0)
(0.00362094 0.000542731 0)
(0.00356768 0.000456002 0)
(0.00353048 0.000302952 0)
(0.0035508 0.000154577 0)
(0.00358969 9.66682e-05 0)
(2.04411e-07 3.55604e-05 0)
(2.65914e-06 8.42602e-05 0)
(8.37591e-06 0.000107922 0)
(1.82225e-05 0.000106014 0)
(3.332e-05 7.97106e-05 0)
(5.48821e-05 3.13577e-05 0)
(8.40806e-05 -3.59964e-05 0)
(0.000121974 -0.000118945 0)
(0.000169474 -0.000213964 0)
(0.000227326 -0.000317573 0)
(0.000296106 -0.000426472 0)
(0.000376207 -0.000537691 0)
(0.000467812 -0.000648692 0)
(0.000570831 -0.000757459 0)
(0.00068479 -0.000862647 0)
(0.000808519 -0.000963094 0)
(0.00093956 -0.00105875 0)
(0.00107337 -0.0011514 0)
(0.00120402 -0.00124214 0)
(0.0013252 -0.00133055 0)
(0.00143459 -0.00142518 0)
(0.00154988 -0.00154859 0)
(0.00168572 -0.00161961 0)
(0.00183561 -0.00160528 0)
(0.00204696 -0.0015843 0)
(0.00223543 -0.00115321 0)
(0.00225015 -0.000375615 0)
(0.0022533 -0.000646 0)
(0.00230434 -0.000609146 0)
(0.0023314 -0.000529198 0)
(0.00239524 -0.0004356 0)
(0.00253233 -0.00030266 0)
(0.00274838 -0.000202985 0)
(0.00298683 -0.000137034 0)
(0.00310147 -0.000104137 0)
(0.00312882 0.000197642 0)
(0.00322521 9.37324e-05 0)
(0.00320892 -0.000422694 0)
(0.00316387 -0.000392823 0)
(0.00331623 -0.00016947 0)
(0.00356385 3.48849e-05 0)
(0.00381679 0.000237421 0)
(0.00399102 0.000420287 0)
(0.00408579 0.000499243 0)
(0.00413376 0.00055227 0)
(0.0041082 0.000590798 0)
(0.00401728 0.000521027 0)
(0.0039513 0.000312582 0)
(0.00399381 0.000102154 0)
(0.00407167 7.0981e-05 0)
(1.80815e-07 3.42387e-05 0)
(2.50973e-06 8.00404e-05 0)
(8.07801e-06 0.000100037 0)
(1.78193e-05 9.33808e-05 0)
(3.29151e-05 6.1114e-05 0)
(5.46314e-05 5.57656e-06 0)
(8.41932e-05 -7.01086e-05 0)
(0.00012272 -0.000162418 0)
(0.000171205 -0.00026769 0)
(0.000230511 -0.000382307 0)
(0.0003014 -0.000502843 0)
(0.000384554 -0.0006262 0)
(0.000480603 -0.000749689 0)
(0.000590155 -0.000871074 0)
(0.000713781 -0.000988616 0)
(0.000851873 -0.00110027 0)
(0.00100404 -0.00120417 0)
(0.00116744 -0.00129912 0)
(0.0013352 -0.00138389 0)
(0.0014936 -0.0014539 0)
(0.00163238 -0.00153063 0)
(0.00174752 -0.0016618 0)
(0.00186184 -0.00175147 0)
(0.00192318 -0.00171565 0)
(0.0019545 -0.00174178 0)
(0.00200973 -0.00128647 0)
(0.00238753 -0.000649964 0)
(0.00263591 -0.000633909 0)
(0.00247404 -0.000560604 0)
(0.00245035 -0.000565783 0)
(0.00255593 -0.000548109 0)
(0.00272641 -0.000484085 0)
(0.0029252 -0.000417222 0)
(0.0031381 -0.000321467 0)
(0.00333434 -0.000195858 0)
(0.00353577 -1.91192e-05 0)
(0.00376545 -0.000102437 0)
(0.00387869 -0.000361742 0)
(0.00390288 -0.000415098 0)
(0.00399603 -0.000319092 0)
(0.00417012 -0.000189295 0)
(0.00437201 3.65087e-05 0)
(0.00449275 0.000330333 0)
(0.00457532 0.000416696 0)
(0.00466248 0.000525311 0)
(0.0046484 0.000667617 0)
(0.00451544 0.000639585 0)
(0.00439766 0.000331866 0)
(0.00446256 -4.94828e-06 0)
(0.00459009 2.32688e-05 0)
(1.20372e-07 3.30835e-05 0)
(2.03132e-06 7.61775e-05 0)
(6.93285e-06 9.25967e-05 0)
(1.58678e-05 8.12015e-05 0)
(3.0101e-05 4.29217e-05 0)
(5.09504e-05 -1.98981e-05 0)
(7.96744e-05 -0.000104058 0)
(0.000117415 -0.000205919 0)
(0.00016518 -0.000321705 0)
(0.000223858 -0.000447695 0)
(0.000294249 -0.000580409 0)
(0.000377127 -0.000716743 0)
(0.000473323 -0.000854081 0)
(0.000583884 -0.000990346 0)
(0.000710254 -0.00112399 0)
(0.000854539 -0.00125307 0)
(0.00101975 -0.00137524 0)
(0.00120907 -0.00148696 0)
(0.00142346 -0.00158069 0)
(0.00165254 -0.0016332 0)
(0.0018775 -0.0016794 0)
(0.00204538 -0.00177169 0)
(0.00218884 -0.00190295 0)
(0.00216527 -0.00165289 0)
(0.00206888 -0.00175957 0)
(0.0020243 -0.00136812 0)
(0.00216121 -0.00112978 0)
(0.00224608 -0.00049343 0)
(0.00220377 -0.000547282 0)
(0.00238433 -0.00068957 0)
(0.00262809 -0.000741001 0)
(0.00288522 -0.000698463 0)
(0.00313043 -0.000629887 0)
(0.00336436 -0.000539444 0)
(0.00359572 -0.00041707 0)