/*--------------------------------*- C++ -*----------------------------------*\
| =========                 |                                                 |
| \\      /  F ield         | OpenFOAM: The Open Source CFD Toolbox           |
|  \\    /   O peration     | Version:  2.4.0                                 |
|   \\  /    A nd           | Web:      www.OpenFOAM.org                      |
|    \\/     M anipulation  |                                                 |
\*---------------------------------------------------------------------------*/
FoamFile
{
    version     2.0;
    format      ascii;
    class       volScalarField;
    location    "0.241";
    object      p_rgh;
}
// * * * * * * * * * * * * * * * * * * * * * * * * * * * * * * * * * * * * * //

dimensions      [1 -1 -2 0 0 0 0];

internalField   nonuniform List<scalar> 
10000
(
0.00225219
0.00225404
0.0022572
0.00226125
0.00226587
0.00227081
0.00227589
0.002281
0.00228607
0.00229103
0.00229588
0.0023006
0.00230523
0.00230984
0.00231452
0.00231935
0.00232444
0.00232992
0.00233585
0.00234227
0.0023492
0.00235662
0.00236444
0.00237254
0.00238071
0.00238874
0.00239636
0.00240328
0.00240924
0.00241393
0.00241707
0.00241838
0.0024176
0.00241449
0.00240893
0.00240082
0.00239013
0.00237684
0.00236091
0.00234231
0.002321
0.00229698
0.00227029
0.00224101
0.00220925
0.00217517
0.00213888
0.00210054
0.00206033
0.00201844
0.00225014
0.00225199
0.0022549
0.0022586
0.00226287
0.0022675
0.00227236
0.00227734
0.00228237
0.0022874
0.00229241
0.0022974
0.00230239
0.00230743
0.00231258
0.00231793
0.00232355
0.0023295
0.00233583
0.00234257
0.00234972
0.00235724
0.00236504
0.002373
0.00238093
0.00238863
0.00239584
0.00240232
0.0024078
0.00241204
0.00241478
0.00241577
0.00241475
0.00241153
0.00240595
0.00239795
0.00238747
0.0023745
0.00235898
0.00234088
0.00232017
0.00229683
0.00227092
0.00224251
0.00221169
0.00217858
0.00214328
0.00210591
0.00206662
0.0020256
0.00224637
0.00224845
0.00225136
0.00225489
0.00225893
0.00226336
0.00226807
0.00227297
0.002278
0.00228312
0.0022883
0.00229354
0.00229886
0.0023043
0.0023099
0.00231572
0.00232181
0.00232821
0.00233494
0.00234203
0.00234944
0.00235713
0.00236501
0.00237296
0.00238079
0.0023883
0.00239527
0.00240146
0.00240666
0.00241064
0.00241318
0.00241402
0.00241293
0.00240969
0.00240419
0.00239635
0.00238615
0.00237354
0.00235849
0.00234095
0.00232087
0.00229826
0.00227314
0.00224559
0.00221569
0.0021835
0.00214911
0.00211261
0.00207415
0.0020339
0.00224121
0.00224361
0.00224667
0.00225021
0.00225419
0.00225854
0.0022632
0.00226809
0.00227316
0.00227838
0.00228373
0.0022892
0.0022948
0.00230056
0.00230652
0.00231272
0.0023192
0.00232598
0.00233308
0.0023405
0.00234821
0.00235616
0.00236425
0.00237234
0.00238025
0.0023878
0.00239476
0.00240093
0.00240611
0.0024101
0.0024127
0.00241364
0.00241267
0.00240956
0.00240422
0.00239662
0.00238674
0.00237455
0.00236
0.00234303
0.00232359
0.00230167
0.00227729
0.00225051
0.00222138
0.00218994
0.00215626
0.00212043
0.00208259
0.00204288
0.00223492
0.00223766
0.00224095
0.00224458
0.00224859
0.00225295
0.00225762
0.00226255
0.0022677
0.00227304
0.00227855
0.00228422
0.00229006
0.0022961
0.00230237
0.00230889
0.00231571
0.00232284
0.00233029
0.00233807
0.00234613
0.00235442
0.00236283
0.00237121
0.00237938
0.00238715
0.00239432
0.00240068
0.00240607
0.00241031
0.00241319
0.00241446
0.00241379
0.00241092
0.00240582
0.00239852
0.00238903
0.00237732
0.00236332
0.00234695
0.00232816
0.00230692
0.00228324
0.00225716
0.00222869
0.00219788
0.00216476
0.00212944
0.00209202
0.00205264
0.00222774
0.00223079
0.00223431
0.00223807
0.00224215
0.00224656
0.00225129
0.0022563
0.00226154
0.00226701
0.00227268
0.00227854
0.0022846
0.00229088
0.00229741
0.00230422
0.00231134
0.00231879
0.0023266
0.00233475
0.00234322
0.00235194
0.00236079
0.00236961
0.00237821
0.0023864
0.00239395
0.00240071
0.00240649
0.00241117
0.00241458
0.00241643
0.00241626
0.00241371
0.00240887
0.0024019
0.00239285
0.00238167
0.00236827
0.00235255
0.00233443
0.00231387
0.00229087
0.00226541
0.00223751
0.00220719
0.00217449
0.0021395
0.00210231
0.00206304
0.00221983
0.00222313
0.00222685
0.00223073
0.0022349
0.0022394
0.00224421
0.00224931
0.00225468
0.00226028
0.0022661
0.00227213
0.00227839
0.00228488
0.00229163
0.00229868
0.00230607
0.00231382
0.00232196
0.00233052
0.00233946
0.0023487
0.00235813
0.00236755
0.00237676
0.00238553
0.00239367
0.00240098
0.00240731
0.00241261
0.00241681
0.00241958
0.00242018
0.00241797
0.00241332
0.00240666
0.00239807
0.00238749
0.00237476
0.00235975
0.00234233
0.00232244
0.00230006
0.00227514
0.00224769
0.0022177
0.00218523
0.00215034
0.00211313
0.00207368
0.0022113
0.00221477
0.00221864
0.00222264
0.0022269
0.00223149
0.0022364
0.00224161
0.00224709
0.00225283
0.0022588
0.002265
0.00227142
0.00227809
0.00228502
0.00229226
0.00229986
0.00230786
0.00231633
0.00232531
0.00233479
0.00234467
0.00235481
0.00236501
0.00237501
0.00238456
0.00239344
0.00240144
0.00240841
0.00241444
0.00241973
0.00242398
0.00242579
0.00242379
0.00241907
0.00241263
0.00240454
0.00239465
0.00238269
0.00236845
0.00235177
0.00233253
0.00231069
0.00228618
0.002259
0.00222914
0.00219665
0.00216159
0.00212403
0.00208405
0.00220222
0.00220579
0.00220975
0.00221382
0.00221816
0.00222283
0.00222784
0.00223317
0.00223878
0.00224466
0.00225078
0.00225714
0.00226371
0.00227052
0.00227758
0.00228494
0.00229267
0.00230085
0.0023096
0.00231901
0.0023291
0.00233974
0.00235077
0.00236194
0.00237293
0.00238344
0.00239319
0.00240195
0.00240949
0.00241617
0.00242284
0.00242952
0.00243334
0.00243109
0.00242571
0.0024194
0.00241196
0.00240295
0.00239194
0.00237858
0.00236266
0.00234403
0.00232261
0.00229833
0.00227119
0.00224118
0.00220834
0.00217274
0.00213442
0.00209348
0.00219265
0.00219622
0.00220019
0.00220429
0.00220869
0.00221344
0.00221854
0.00222399
0.00222975
0.00223578
0.00224207
0.00224858
0.00225529
0.00226219
0.00226931
0.0022767
0.00228444
0.00229269
0.00230163
0.00231146
0.00232223
0.00233376
0.00234586
0.00235822
0.0023704
0.00238201
0.00239272
0.00240221
0.00240999
0.00241703
0.00242539
0.00243636
0.00244376
0.00243987
0.00243241
0.00242611
0.00241969
0.00241205
0.00240234
0.00239007
0.00237495
0.00235684
0.00233566
0.00231137
0.00228395
0.00225342
0.00221983
0.00218322
0.00214366
0.00210125
0.00218261
0.00218608
0.00218998
0.00219405
0.00219846
0.00220328
0.00220849
0.00221407
0.00221999
0.00222621
0.00223269
0.00223936
0.0022462
0.00225316
0.00226025
0.00226753
0.00227512
0.00228323
0.00229219
0.00230237
0.00231388
0.00232642
0.00233978
0.00235353
0.0023671
0.00237998
0.00239194
0.00240241
0.00240979
0.00241634
0.0024275
0.00244703
0.00246091
0.00245205
0.00243908
0.00243193
0.00242688
0.00242131
0.00241355
0.00240276
0.00238857
0.00237088
0.0023497
0.00232506
0.00229697
0.00226546
0.0022306
0.00219244
0.00215107
0.0021066
0.00217208
0.00217534
0.00217907
0.00218306
0.00218746
0.00219233
0.00219764
0.00220339
0.00220952
0.00221597
0.00222268
0.00222956
0.00223652
0.00224349
0.00225045
0.00225746
0.00226465
0.00227228
0.0022809
0.00229122
0.0023035
0.0023171
0.00233191
0.00234742
0.00236287
0.00237752
0.00239131
0.00240354
0.00241026
0.00241371
0.0024303
0.00246996
0.00249847
0.00247409
0.00244426
0.00243464
0.0024326
0.00243041
0.00242532
0.00241643
0.00240338
0.00238608
0.00236464
0.00233922
0.00230996
0.00227694
0.00224023
0.0021999
0.00215607
0.00210888
0.00216101
0.00216393
0.0021674
0.00217126
0.00217562
0.00218053
0.00218599
0.00219194
0.00219833
0.00220509
0.0022121
0.00221924
0.00222635
0.00223331
0.00224005
0.00224657
0.00225299
0.0022595
0.00226703
0.00227707
0.00229026
0.00230499
0.00232168
0.00233977
0.0023581
0.00237532
0.00239196
0.00240564
0.00241314
0.00241977
0.00244009
0.00251156
0.0026051
0.00251247
0.00243982
0.00243421
0.00243893
0.00244128
0.00243902
0.00243172
0.00241947
0.00240231
0.00238034
0.00235374
0.00232277
0.00228761
0.00224838
0.00220521
0.00215823
0.00210764
0.00214931
0.00215179
0.00215491
0.00215857
0.00216287
0.00216785
0.00217347
0.00217968
0.00218643
0.00219359
0.00220101
0.0022085
0.00221585
0.00222282
0.00222924
0.002235
0.00224009
0.00224436
0.0022494
0.0022589
0.00227377
0.00228955
0.00230858
0.00233056
0.00235318
0.00237391
0.00239385
0.00240995
0.00241622
0.00241456
0.00242394
0.00279218
0.00326905
0.00280115
0.00253223
0.00246787
0.0024641
0.00246185
0.0024586
0.002451
0.00243806
0.00241988
0.00239669
0.00236848
0.00233529
0.00229736
0.00225495
0.00220823
0.00215742
0.00210276
0.00213686
0.00213878
0.00214147
0.0021449
0.00214913
0.00215418
0.00216002
0.00216658
0.00217378
0.00218147
0.00218945
0.00219748
0.00220521
0.00221226
0.00221825
0.00222291
0.00222607
0.00222693
0.00222803
0.00223584
0.00225402
0.00227037
0.00229289
0.00231934
0.00234828
0.00237418
0.00239898
0.00242284
0.00244086
0.00245805
0.00270233
0.00583976
0.00816493
0.00549001
0.00271288
0.00256108
0.00251226
0.00249402
0.00248538
0.00247541
0.00246024
0.00243957
0.0024139
0.00238329
0.00234744
0.00230624
0.00226001
0.00220911
0.00215385
0.00209453
0.0021235
0.00212477
0.00212695
0.00213012
0.00213428
0.00213944
0.00214554
0.00215254
0.00216031
0.0021687
0.00217748
0.00218629
0.00219466
0.0022019
0.00220742
0.00221089
0.00221175
0.00220768
0.00220397
0.00220964
0.00223011
0.00224456
0.0022732
0.00230975
0.00234692
0.00237515
0.00240376
0.00243746
0.00248116
0.00259398
0.00373696
0.00824401
0.00823178
0.00810585
0.00357211
0.00265382
0.00254871
0.00252397
0.00251354
0.0025024
0.00248502
0.00246133
0.00243235
0.00239835
0.00235916
0.00231435
0.00226388
0.00220829
0.00214809
0.00208368
0.00210902
0.00210956
0.00211119
0.00211408
0.00211818
0.00212347
0.00212991
0.00213742
0.00214592
0.00215522
0.00216507
0.00217503
0.00218436
0.00219218
0.00219773
0.00220042
0.00219943
0.00219034
0.00217152
0.0021815
0.00221713
0.00222524
0.00224452
0.00230996
0.00235974
0.00237032
0.00239658
0.00243367
0.002467
0.00247902
0.00267163
0.00617013
0.00819616
0.00587683
0.00273288
0.00263721
0.00254275
0.00253645
0.00253577
0.00252883
0.0025114
0.00248496
0.00245236
0.00241424
0.00237084
0.0023219
0.002267
0.00220644
0.002141
0.00207127
0.00209316
0.00209295
0.00209401
0.0020966
0.00210065
0.0021061
0.00211292
0.00212105
0.00213042
0.00214086
0.00215211
0.00216361
0.00217457
0.00218427
0.00219144
0.00219554
0.00218798
0.00217273
0.00218085
0.00213534
0.00223536
0.00216557
0.00235441
0.00230034
0.00239386
0.00261971
0.00239008
0.00243511
0.00246549
0.00247683
0.00245942
0.00285638
0.00318881
0.00289084
0.00255558
0.00253628
0.00254204
0.00255502
0.00256188
0.00255932
0.00254198
0.00251178
0.00247476
0.00243173
0.00238325
0.00232939
0.0022698
0.00220429
0.00213358
0.00205848
0.00207567
0.00207469
0.00207517
0.00207748
0.00208149
0.00208712
0.00209436
0.00210317
0.00211352
0.0021253
0.00213821
0.00215176
0.00216562
0.00217945
0.00219177
0.00219931
0.00219113
0.00215158
0.00206394
0.00192666
0.00232483
0.00193204
0.00230241
0.00232955
0.00239966
0.002448
0.00287934
0.00246433
0.00248064
0.00250003
0.00252376
0.00258625
0.00270635
0.00261104
0.00253706
0.00262538
0.00258339
0.00258743
0.00259653
0.00259834
0.00257948
0.00254241
0.00249981
0.00245119
0.00239702
0.00233754
0.00227277
0.00220244
0.00212674
0.00204642
0.00205623
0.00205453
0.00205447
0.0020565
0.00206047
0.00206629
0.00207395
0.00208345
0.00209482
0.00210799
0.00212272
0.00213904
0.00215755
0.00217869
0.00220159
0.00222388
0.00223591
0.00221759
0.00221341
0.00320872
0.00591805
0.00291346
0.00229107
0.00241045
0.00242942
0.00247673
0.00249862
0.00249605
0.00249779
0.00251814
0.00255853
0.00261707
0.00264481
0.00265348
0.00263286
0.00266583
0.00259083
0.00260387
0.00263562
0.00265402
0.00262857
0.00257577
0.00252545
0.00247198
0.00241227
0.00234686
0.00227646
0.0022012
0.00212108
0.00203589
0.00203458
0.00203223
0.00203167
0.00203346
0.00203739
0.00204337
0.0020514
0.00206153
0.00207382
0.0020882
0.00210473
0.0021243
0.00214862
0.0021795
0.00221854
0.00226693
0.00232501
0.0023952
0.00248653
0.00553123
0.00563572
0.00583969
0.00254766
0.00252294
0.00250984
0.00250584
0.00251392
0.00251873
0.00251958
0.00254305
0.00256374
0.00260869
0.00265309
0.0026492
0.00262491
0.00257498
0.00256172
0.00259964
0.00270784
0.00276403
0.00271868
0.00261239
0.00255236
0.00249437
0.00242917
0.00235774
0.00228141
0.00220085
0.00211663
0.00202727
0.00201047
0.00200758
0.0020066
0.00200816
0.00201204
0.00201813
0.00202644
0.00203703
0.00204994
0.00206513
0.00208307
0.0021054
0.00213459
0.00217373
0.00222679
0.00230037
0.00240952
0.00259631
0.00293624
0.00358025
0.00355717
0.00331209
0.00275426
0.00264138
0.00258491
0.00254256
0.00253124
0.00253792
0.00253746
0.00258567
0.0026211
0.00263081
0.00263861
0.00263349
0.00263122
0.00262177
0.00262497
0.00259879
0.00361051
0.0037089
0.00300501
0.00274067
0.00259848
0.002524
0.00244983
0.00237113
0.00228825
0.00220182
0.00211295
0.0020204
0.00198371
0.00198041
0.0019791
0.00198047
0.00198428
0.0019904
0.00199885
0.00200965
0.00202277
0.00203818
0.00205665
0.00207996
0.00211046
0.00215088
0.00220488
0.00227797
0.00238533
0.00260951
0.003226
0.00425665
0.00346639
0.0040231
0.00303377
0.00272762
0.00261383
0.00256024
0.00254383
0.00254875
0.00255394
0.00259209
0.00259952
0.00269799
0.0027053
0.0026833
0.00269237
0.00267855
0.00262851
0.00517698
0.00656789
0.00626742
0.00518489
0.00297131
0.00270561
0.00256994
0.00247681
0.0023881
0.00229743
0.00220428
0.00210973
0.00201434
0.00195419
0.00195061
0.00194906
0.00195028
0.001954
0.00196008
0.00196851
0.00197927
0.00199219
0.00200726
0.0020253
0.00204779
0.00207601
0.00211052
0.0021512
0.00219925
0.00225842
0.00239214
0.00256129
0.00491183
0.00457297
0.00310339
0.00243623
0.00268322
0.00252169
0.00252654
0.00253909
0.00255816
0.0025734
0.00257494
0.00401278
0.00280732
0.00278573
0.00275785
0.00275811
0.00276381
0.00279641
0.00560789
0.00664371
0.0063999
0.00642281
0.00296384
0.00272457
0.00260086
0.00249807
0.0024032
0.00230669
0.00220742
0.00210681
0.00200733
0.00192187
0.00191814
0.00191643
0.00191753
0.00192115
0.00192713
0.00193543
0.00194594
0.00195843
0.00197285
0.00199
0.00201107
0.00203679
0.00206695
0.00210176
0.00214845
0.00223233
0.0024377
0.00625527
0.00848094
0.00876477
0.00815358
0.00296386
0.00251365
0.00249721
0.00251017
0.00253317
0.00256831
0.00261705
0.00266274
0.00278566
0.00292085
0.00286641
0.00279843
0.00281921
0.00287603
0.0029839
0.00335308
0.00493758
0.00622505
0.00639875
0.00320877
0.00269109
0.00259687
0.00250521
0.00241196
0.00231381
0.00221053
0.00210447
0.00199776
0.00188674
0.00188297
0.00188121
0.00188222
0.00188574
0.00189158
0.00189966
0.00190983
0.00192174
0.00193531
0.00195118
0.00197008
0.00199201
0.00201605
0.00204239
0.00207917
0.00216656
0.00228145
0.00799275
0.00873759
0.00880018
0.00883467
0.00430549
0.00244094
0.00245603
0.00248194
0.00251193
0.00282781
0.00268603
0.00270835
0.00283362
0.00318349
0.00486398
0.00283728
0.0028713
0.0028624
0.00294575
0.0031092
0.00323834
0.00327591
0.00292336
0.00277481
0.00360776
0.00259449
0.00251599
0.00242476
0.00232803
0.00221681
0.00210313
0.00198669
0.00184887
0.00184514
0.00184338
0.00184436
0.00184778
0.00185348
0.00186132
0.00187111
0.00188247
0.00189521
0.00190979
0.00192657
0.00194513
0.0019645
0.00198642
0.00202241
0.00212367
0.00257258
0.00778918
0.00872332
0.00885202
0.0086975
0.0046706
0.00236622
0.00241118
0.00244274
0.0024963
0.00257247
0.00264169
0.00269723
0.00279216
0.00285202
0.00282335
0.00295614
0.00295727
0.0029975
0.00301338
0.00305881
0.00308043
0.00304669
0.00291676
0.00270459
0.00249647
0.00253904
0.00252466
0.00243297
0.00234677
0.00223497
0.00210769
0.00197627
0.00180831
0.0018047
0.001803
0.00180397
0.00180734
0.0018129
0.00182053
0.00183
0.00184089
0.00185295
0.00186644
0.00188152
0.00189756
0.00191282
0.00192558
0.00193872
0.00195965
0.00199123
0.0038067
0.00832617
0.00844103
0.00611959
0.00228735
0.0022356
0.00233371
0.00239279
0.0024645
0.00254247
0.00263297
0.00271645
0.00277766
0.00283378
0.00287979
0.00294173
0.00300366
0.0030552
0.00308163
0.00310533
0.00311582
0.00307861
0.00301681
0.00290389
0.00305606
0.00271902
0.00251098
0.00247729
0.00238371
0.002256
0.00210872
0.00196644
0.00176515
0.00176169
0.0017601
0.00176111
0.00176445
0.00176992
0.00177738
0.00178661
0.00179721
0.00180886
0.00182174
0.001836
0.00185118
0.00186626
0.00188002
0.00189253
0.00189146
0.00186801
0.00186443
0.00228673
0.00212315
0.00225459
0.00199368
0.00215829
0.00226164
0.00235401
0.00243906
0.00252177
0.00263258
0.00274796
0.0028234
0.00287311
0.00294907
0.00298946
0.00306045
0.00355413
0.00313835
0.00313771
0.00320189
0.00317709
0.00313195
0.00304673
0.00295137
0.00383051
0.00431048
0.00375421
0.00274127
0.00229251
0.00212215
0.00194877
0.00171944
0.00171617
0.00171472
0.00171582
0.00171917
0.00172458
0.00173192
0.00174101
0.00175146
0.00176294
0.00177556
0.00178953
0.00180466
0.00182051
0.00183775
0.00185347
0.0018706
0.00204751
0.00187949
0.00200228
0.00202576
0.00205112
0.00209156
0.00216665
0.00223527
0.00240116
0.00242313
0.00251748
0.00265915
0.00279458
0.00284756
0.00290683
0.00297942
0.00302205
0.00310495
0.00316191
0.00320053
0.00323427
0.00337778
0.00325822
0.00322992
0.0031936
0.00311124
0.00296737
0.00272263
0.00295995
0.00336687
0.00298673
0.00212806
0.00191144
0.00167125
0.00166819
0.00166692
0.00166812
0.00167151
0.0016769
0.00168418
0.00169318
0.0017036
0.00171508
0.00172766
0.00174164
0.0017571
0.00177394
0.00179208
0.00181009
0.00182872
0.00183675
0.00195964
0.00196492
0.00201666
0.002066
0.00211506
0.00216313
0.00223969
0.00230845
0.00283697
0.00246413
0.00275817
0.00304015
0.00319532
0.00307882
0.00308731
0.00305761
0.00314452
0.0032179
0.00326891
0.00332149
0.00334454
0.00339282
0.00335788
0.00331099
0.00324497
0.00311838
0.00294767
0.00274184
0.0024313
0.00236519
0.00229181
0.00192654
0.00162061
0.00161779
0.00161672
0.00161804
0.00162149
0.00162688
0.00163412
0.00164308
0.00165352
0.00166509
0.00167775
0.0016919
0.00170784
0.00172572
0.00174572
0.00176868
0.0017991
0.00183983
0.0019172
0.00194237
0.00199068
0.00204788
0.00257579
0.00216535
0.00223462
0.00232678
0.0024288
0.00309228
0.00848015
0.0106683
0.0108511
0.0094926
0.0044392
0.00303428
0.00319761
0.00327905
0.00334483
0.00341852
0.00349151
0.00365672
0.00358746
0.00352138
0.00343427
0.0032809
0.00307615
0.00283492
0.00252474
0.00227589
0.00194663
0.00192683
0.00156752
0.00156498
0.00156413
0.00156559
0.00156911
0.00157452
0.00158173
0.00159067
0.00160114
0.00161286
0.00162571
0.00164016
0.00165681
0.00167612
0.00169842
0.00172417
0.0017558
0.00179498
0.00185556
0.00191282
0.00196172
0.00201949
0.00207905
0.00214825
0.00225466
0.00236323
0.00256481
0.0078459
0.0103815
0.0106119
0.0107173
0.0106002
0.00971503
0.00359065
0.00331295
0.00335605
0.0034291
0.00352872
0.003628
0.00446437
0.00386487
0.00379246
0.00370094
0.00350778
0.00324375
0.00291093
0.00253712
0.00220029
0.00185933
0.00151373
0.001512
0.00150975
0.00150915
0.00151077
0.00151437
0.00151981
0.00152701
0.00153591
0.00154641
0.0015583
0.00157144
0.00158627
0.0016037
0.00162455
0.00164931
0.0016784
0.00170858
0.00173532
0.00240607
0.00191459
0.00192698
0.00199237
0.00206938
0.00214019
0.00238414
0.00238829
0.00237691
0.00872743
0.0106676
0.0106973
0.0108121
0.0109043
0.0110966
0.00357028
0.00335807
0.00341391
0.00349919
0.00366073
0.00383117
0.00400826
0.00408283
0.00414306
0.00405572
0.00379423
0.00346679
0.00301261
0.00251834
0.00210379
0.00174604
0.00138319
0.00145403
0.00145213
0.00145182
0.00145361
0.00145731
0.00146278
0.00146996
0.00147881
0.00148932
0.00150137
0.00151484
0.0015301
0.00154823
0.00157051
0.00159809
0.00163175
0.00167231
0.00172757
0.001802
0.0018569
0.00192419
0.00206893
0.00206386
0.0021604
0.00228342
0.00243167
0.00263069
0.00899328
0.0105787
0.0106892
0.0108938
0.0110302
0.0114262
0.00405833
0.00332289
0.00352736
0.00423412
0.0038044
0.00406743
0.00429803
0.00446203
0.00444101
0.00458897
0.00445029
0.00401911
0.00326869
0.00244124
0.00194084
0.0016081
0.00122013
0.00139363
0.00139214
0.00139215
0.00139415
0.00139797
0.00140347
0.00141062
0.00141941
0.00142987
0.00144204
0.00145587
0.0014716
0.00149025
0.00151338
0.00154263
0.00157968
0.00162695
0.00168939
0.0017704
0.00247713
0.00188675
0.00198215
0.00207374
0.00214783
0.00225971
0.00236936
0.00241113
0.00518271
0.0100557
0.0106242
0.0109951
0.0109124
0.00926909
0.0031453
0.00320182
0.00343094
0.00364426
0.00394161
0.00435169
0.00465495
0.00500701
0.00754996
0.0104255
0.0119435
0.0117812
0.00757681
0.00307093
0.00159619
0.00147032
0.00106244
0.00133085
0.00132983
0.00133022
0.00133248
0.00133642
0.00134196
0.00134906
0.00135776
0.00136814
0.00138036
0.00139454
0.00141085
0.00143009
0.00145379
0.00148383
0.00152218
0.00157091
0.00163098
0.00170035
0.00176139
0.00185154
0.00194397
0.00203418
0.00213287
0.00225395
0.00239096
0.00255554
0.00287465
0.00497721
0.00769378
0.00956304
0.00780625
0.00394215
0.00295731
0.00321197
0.00343827
0.00368923
0.00406299
0.00464105
0.00488332
0.0073679
0.0113196
0.0121356
0.0126131
0.0134574
0.0162564
0.0116691
0.00188029
0.00149399
0.000932781
0.00126576
0.00126529
0.00126614
0.00126868
0.00127277
0.00127834
0.00128539
0.00129397
0.00130423
0.00131642
0.00133084
0.00134781
0.00136788
0.00139237
0.00142309
0.0014621
0.00151242
0.00157021
0.00163513
0.0018112
0.00179827
0.00189653
0.00199965
0.00211067
0.00223361
0.00237079
0.00256697
0.00279158
0.00303288
0.00313992
0.00297457
0.00317217
0.00315858
0.00316795
0.00330089
0.0035138
0.00361699
0.00403046
0.0051133
0.00517538
0.0124804
0.0126274
0.012681
0.0128798
0.0131524
0.0144765
0.00913997
0.00236922
0.00172147
0.000821797
0.0011985
0.00119866
0.00120003
0.00120289
0.00120715
0.00121274
0.00121971
0.00122815
0.00123827
0.00125038
0.00126494
0.00128245
0.00130352
0.00132917
0.00136103
0.00140108
0.0014515
0.00151176
0.00158812
0.00166471
0.00175357
0.00185605
0.00196733
0.00208577
0.00220115
0.00233456
0.00249639
0.00271757
0.00317905
0.003047
0.0030311
0.00314123
0.00320847
0.00326023
0.00336173
0.00329242
0.00416276
0.00397009
0.00660406
0.00630555
0.0126083
0.0131362
0.0130991
0.0127209
0.0111871
0.00930202
0.00573369
0.00343143
0.00180797
0.000571438
0.00112922
0.00113009
0.00113204
0.00113526
0.00113969
0.00114531
0.00115219
0.00116048
0.00117044
0.00118246
0.00119711
0.00121507
0.00123711
0.00126416
0.00129764
0.0013393
0.00139095
0.00145365
0.00152722
0.00161094
0.00170692
0.00180984
0.00192468
0.00205885
0.002171
0.00228593
0.00242419
0.00263906
0.00334998
0.00296641
0.00300712
0.00312064
0.0032434
0.00338798
0.00350398
0.00436595
0.00889083
0.00824663
0.00780492
0.00874665
0.00698053
0.0128747
0.0122395
0.0118086
0.0121318
0.0103781
0.00722927
0.00510823
0.00199331
-5.28663e-05
0.00105811
0.00105978
0.00106236
0.00106596
0.00107057
0.00107622
0.00108302
0.00109116
0.00110096
0.00111291
0.00112766
0.00114604
0.00116899
0.00119754
0.0012329
0.00127655
0.00133003
0.00139452
0.00147025
0.00155745
0.00165463
0.00175622
0.00186922
0.00243527
0.00213673
0.00225197
0.00235785
0.00254006
0.00266811
0.00281534
0.00296406
0.00312683
0.00329567
0.0034416
0.00355393
0.00742319
0.0083684
0.00862406
0.00854853
0.0114533
0.00842334
0.0106123
0.0159443
0.014843
0.0135485
0.0114516
0.00883431
0.00510066
0.00147729
-0.00106925
0.000985417
0.000987926
0.00099118
0.000995187
0.001
0.0010057
0.00101242
0.00102041
0.00103007
0.00104198
0.00105687
0.00107569
0.00109954
0.00112959
0.00116699
0.00121295
0.00126866
0.00133508
0.00141238
0.00150039
0.00159855
0.00170622
0.00182323
0.00193365
0.00207006
0.00219958
0.0023239
0.00248567
0.0026492
0.00279791
0.00297534
0.00315992
0.00333644
0.00348858
0.00357822
0.00771166
0.00782708
0.00655843
0.00960481
0.00856481
0.0100354
0.00996817
0.0140043
0.0167854
0.0155343
0.0129299
0.0104314
0.00555845
-0.000142184
-0.00281103
0.000911388
0.000914788
0.000918759
0.000923204
0.000928243
0.000933998
0.000940648
0.000948509
0.000958061
0.000969957
0.000985041
0.00100435
0.0010291
0.00106058
0.0011
0.00114837
0.00120651
0.00127499
0.00135393
0.00144302
0.00154137
0.00164759
0.00175871
0.00187868
0.00200865
0.0021403
0.00227621
0.0024356
0.00259869
0.00278256
0.00299244
0.00319031
0.00340039
0.00361908
0.00376169
0.00517682
0.00784172
0.0069862
0.00730411
0.0178878
0.0254092
0.0275204
0.0128822
0.0204501
0.0176123
0.014898
0.0144156
0.00495432
-0.00420244
-0.00474812
0.000836319
0.000840655
0.000845381
0.000850289
0.000855567
0.000861386
0.000867981
0.000875737
0.00088521
0.000897139
0.00091246
0.000932308
0.000957972
0.000990799
0.00103203
0.00108261
0.00114307
0.00121353
0.00129375
0.0013832
0.00148099
0.00158624
0.00169808
0.00181742
0.00194354
0.00207752
0.0022195
0.00238183
0.00255942
0.00276722
0.00299317
0.00322614
0.00351453
0.00384472
0.00425351
0.00497692
0.0061363
0.0121722
0.0114038
0.0223272
0.0242766
0.0250149
0.0146125
0.0309062
0.0205478
0.0269197
0.03576
0.0365649
0.0294043
-0.01797
0.00076054
0.000765848
0.000771355
0.000776745
0.000782271
0.000788164
0.000794722
0.000802397
0.000811823
0.000823823
0.000839426
0.00085985
0.000886436
0.000920523
0.000963294
0.00101561
0.00107784
0.00114979
0.00123075
0.00131984
0.0014162
0.0015192
0.00162845
0.00174492
0.00187091
0.00200641
0.00215164
0.00231061
0.00250551
0.00272377
0.0029579
0.00322315
0.00357425
0.00395941
0.0044783
0.00546467
0.00668854
0.00942379
0.00874309
0.0235567
0.0251731
0.0153479
0.0253904
0.0246146
0.0261166
0.0329934
0.0431377
0.0868015
0.145505
0.801572
0.000684403
0.000690704
0.000697009
0.000702886
0.000708663
0.000714642
0.000721183
0.000728804
0.000738214
0.00075032
0.000766238
0.000787253
0.00081472
0.000849926
0.000893936
0.000947437
0.00101061
0.00108307
0.00116387
0.00125178
0.00134577
0.00144542
0.00155101
0.0016639
0.00178649
0.00192299
0.00207363
0.00225243
0.00252253
0.00264524
0.00288399
0.00317609
0.00357
0.00391217
0.00445313
0.00530974
0.00683542
0.00757371
0.00725818
0.0256199
0.0134264
0.0206628
0.0188268
0.025007
0.0286556
0.0296941
0.0378022
0.110576
0.136048
0.0225745
0.000608269
0.000615569
0.000622672
0.000629033
0.000635066
0.000641146
0.00064769
0.000655283
0.000664703
0.000676942
0.000693189
0.000714766
0.000743006
0.000779107
0.000823972
0.000878067
0.000941318
0.00101311
0.00109242
0.001178
0.00126869
0.00136401
0.00146477
0.0015728
0.00169082
0.00182274
0.00196954
0.00213403
0.00231583
0.00251337
0.00274621
0.00304686
0.00379825
0.00369595
0.00422798
0.00495264
0.00598839
0.00639047
0.00731083
0.0108484
0.0130486
0.0147807
0.0231826
0.0290209
0.032098
0.0311239
0.0255184
-0.0027215
0.300532
3.65033
0.000532509
0.000540795
0.000548682
0.000555521
0.000561817
0.000568011
0.000574579
0.000582163
0.000591613
0.000603995
0.000620551
0.000642608
0.000671438
0.000708115
0.000753349
0.000807349
0.000869758
0.000939717
0.00101608
0.00109772
0.00118389
0.00127432
0.00136939
0.00147098
0.00158242
0.00170665
0.00184511
0.00199736
0.00216584
0.00233168
0.00254285
0.00279874
0.00305287
0.00336234
0.00379494
0.00438045
0.00511829
0.00634601
0.00818983
0.0106937
0.00913511
0.0603211
0.0410621
0.0341315
0.0339329
0.036014
0.0432699
0.588675
5.97359
11.5167
0.000457501
0.000466745
0.000475395
0.000482707
0.000489269
0.00049559
0.000502193
0.000509777
0.000519262
0.000531772
0.000548576
0.000570968
0.000600129
0.000636971
0.000681979
0.000735088
0.000795668
0.000862644
0.000934743
0.00101088
0.00109058
0.00117435
0.00126348
0.00135881
0.00146145
0.00157402
0.00169831
0.00183342
0.00197783
0.00212875
0.00232369
0.00242007
0.00265253
0.00291854
0.00320414
0.00359231
0.00418958
0.00522857
0.00731432
0.00904543
0.0358494
0.0491743
0.0298743
0.0394409
0.0431981
0.0309369
0.58081
7.8135
21.2808
32.9893
0.000383637
0.000393802
0.000403191
0.000410963
0.000417791
0.000424238
0.000430874
0.000438454
0.000447959
0.000460552
0.000477494
0.000500014
0.000529167
0.000565671
0.000609764
0.000661115
0.000718862
0.000781758
0.000848478
0.000918032
0.000990158
0.00106546
0.00114535
0.00123202
0.00132699
0.0014279
0.0015338
0.00164561
0.00176125
0.00187706
0.00199362
0.00242173
0.00224189
0.00235641
0.00244869
0.00251094
0.00258769
0.00313241
0.00521992
0.00626151
0.013768
0.0327051
0.000818836
0.0376523
0.0626252
0.502024
8.71947
30.0806
36.8103
36.5316
0.00197509
0.00193049
0.00188481
0.00183822
0.00179087
0.00174292
0.0016945
0.00164574
0.00159673
0.00154751
0.00149814
0.00144871
0.0013993
0.00134997
0.0013008
0.00125182
0.00120311
0.00115468
0.00110652
0.0010585
0.00101044
0.000962118
0.000913321
0.00086389
0.000813764
0.000762997
0.000711736
0.000660213
0.000608684
0.000557427
0.000506735
0.00045688
0.000408129
0.000360714
0.000314835
0.000270654
0.000228349
0.000188087
0.000149994
0.000114263
8.10867e-05
5.06042e-05
2.30081e-05
-1.46766e-06
-2.25863e-05
-4.0023e-05
-5.33903e-05
-6.21756e-05
-6.60779e-05
-6.60423e-05
0.00198305
0.00193913
0.001894
0.00184781
0.00180069
0.00175282
0.00170434
0.00165536
0.00160597
0.00155622
0.00150623
0.00145608
0.00140587
0.00135567
0.00130554
0.00125555
0.00120573
0.00115611
0.00110666
0.00105726
0.00100774
0.00095798
0.00090782
0.000857166
0.00080601
0.000754461
0.000702688
0.000650913
0.000599358
0.000548251
0.00049785
0.000448388
0.000400085
0.000353144
0.000307761
0.000264083
0.000222262
0.000182492
0.000144925
0.000109721
7.70904e-05
4.72004e-05
2.02371e-05
-3.56103e-06
-2.39946e-05
-4.07741e-05
-5.35485e-05
-6.19153e-05
-6.56403e-05
-6.5649e-05
0.00199202
0.00194866
0.00190394
0.00185801
0.001811
0.00176308
0.00171438
0.00166502
0.00161508
0.00156467
0.00151389
0.00146288
0.00141173
0.00136051
0.00130929
0.00125815
0.00120714
0.00115627
0.0011055
0.00105472
0.00100381
0.000952652
0.000901125
0.00084917
0.000796852
0.00074435
0.000691881
0.000639678
0.000587946
0.00053688
0.000486682
0.000437547
0.000389642
0.00034314
0.000298215
0.000255007
0.000213663
0.000174351
0.000137263
0.00010255
7.03976e-05
4.10148e-05
1.45905e-05
-8.68013e-06
-2.86166e-05
-4.49675e-05
-5.74564e-05
-6.56945e-05
-6.93642e-05
-6.93877e-05
0.00200144
0.00195839
0.00191384
0.00186793
0.0018208
0.00177261
0.00172349
0.00167354
0.00162288
0.00157164
0.00151994
0.00146793
0.0014157
0.00136335
0.00131096
0.00125862
0.0012064
0.00115432