/*--------------------------------*- C++ -*----------------------------------*\
| =========                 |                                                 |
| \\      /  F ield         | OpenFOAM: The Open Source CFD Toolbox           |
|  \\    /   O peration     | Version:  2.4.0                                 |
|   \\  /    A nd           | Web:      www.OpenFOAM.org                      |
|    \\/     M anipulation  |                                                 |
\*---------------------------------------------------------------------------*/
FoamFile
{
    version     2.0;
    format      ascii;
    class       volVectorField;
    location    "0.377";
    object      U;
}
// * * * * * * * * * * * * * * * * * * * * * * * * * * * * * * * * * * * * * //

dimensions      [0 1 -1 0 0 0 0];

internalField   nonuniform List<vector> 
10000
(
(2.60528e-07 -2.60307e-07 0)
(-2.04199e-06 8.07494e-07 0)
(-8.45512e-06 1.74261e-06 0)
(-1.75273e-05 2.25281e-06 0)
(-2.7719e-05 2.38947e-06 0)
(-3.77229e-05 2.2581e-06 0)
(-4.66013e-05 1.95446e-06 0)
(-5.3763e-05 1.55779e-06 0)
(-5.89079e-05 1.12807e-06 0)
(-6.19576e-05 7.06133e-07 0)
(-6.29856e-05 3.16148e-07 0)
(-6.2155e-05 -3.06148e-08 0)
(-5.96707e-05 -3.31922e-07 0)
(-5.57444e-05 -5.91218e-07 0)
(-5.05743e-05 -8.14691e-07 0)
(-4.43364e-05 -1.00895e-06 0)
(-3.71852e-05 -1.1792e-06 0)
(-2.92625e-05 -1.32782e-06 0)
(-2.07114e-05 -1.45326e-06 0)
(-1.16948e-05 -1.54956e-06 0)
(-2.41715e-06 -1.60536e-06 0)
(6.85822e-06 -1.60395e-06 0)
(1.5786e-05 -1.52736e-06 0)
(2.3927e-05 -1.35292e-06 0)
(3.07529e-05 -1.05959e-06 0)
(3.56582e-05 -6.3195e-07 0)
(3.8e-05 -6.50688e-08 0)
(3.71554e-05 6.29474e-07 0)
(3.26049e-05 1.42272e-06 0)
(2.40264e-05 2.26288e-06 0)
(1.13829e-05 3.07999e-06 0)
(-5.02093e-06 3.79495e-06 0)
(-2.45209e-05 4.33671e-06 0)
(-4.61515e-05 4.65129e-06 0)
(-6.87729e-05 4.71848e-06 0)
(-9.12117e-05 4.54955e-06 0)
(-0.000112393 4.17913e-06 0)
(-0.000131429 3.65331e-06 0)
(-0.000147669 3.02393e-06 0)
(-0.000160719 2.34376e-06 0)
(-0.000170439 1.66211e-06 0)
(-0.000176914 1.02073e-06 0)
(-0.000180414 4.51579e-07 0)
(-0.00018134 -2.42838e-08 0)
(-0.000180173 -3.97963e-07 0)
(-0.000177421 -6.67703e-07 0)
(-0.000173582 -8.40054e-07 0)
(-0.000169115 -9.26298e-07 0)
(-0.000164415 -9.40258e-07 0)
(-0.000159805 -8.97697e-07 0)
(-8.06798e-07 2.04217e-06 0)
(-9.29388e-06 9.29277e-06 0)
(-2.57892e-05 1.54048e-05 0)
(-4.73137e-05 1.88177e-05 0)
(-7.06869e-05 1.95875e-05 0)
(-9.31866e-05 1.8255e-05 0)
(-0.000112745 1.546e-05 0)
(-0.000127979 1.17987e-05 0)
(-0.000138134 7.76156e-06 0)
(-0.000142964 3.7104e-06 0)
(-0.000142596 -1.1772e-07 0)
(-0.000137389 -3.59186e-06 0)
(-0.00012783 -6.66119e-06 0)
(-0.000114444 -9.32815e-06 0)
(-9.77473e-05 -1.16241e-05 0)
(-7.82183e-05 -1.35887e-05 0)
(-5.62971e-05 -1.52531e-05 0)
(-3.24025e-05 -1.66269e-05 0)
(-6.96379e-06 -1.7688e-05 0)
(1.95373e-05 -1.83772e-05 0)
(4.65184e-05 -1.85943e-05 0)
(7.32493e-05 -1.82004e-05 0)
(9.88083e-05 -1.70313e-05 0)
(0.000122057 -1.49086e-05 0)
(0.000141646 -1.16714e-05 0)
(0.000156054 -7.21201e-06 0)
(0.000163685 -1.51829e-06 0)
(0.00016301 5.28401e-06 0)
(0.000152768 1.29022e-05 0)
(0.000132188 2.08656e-05 0)
(0.000101203 2.8558e-05 0)
(6.06032e-05 3.52939e-05 0)
(1.2059e-05 4.0435e-05 0)
(-4.20078e-05 4.3511e-05 0)
(-9.87246e-05 4.43174e-05 0)
(-0.000155127 4.29183e-05 0)
(-0.000208485 3.95941e-05 0)
(-0.000256528 3.47559e-05 0)
(-0.000297573 2.88848e-05 0)
(-0.000330588 2.24807e-05 0)
(-0.000355182 1.60154e-05 0)
(-0.000371546 9.89335e-06 0)
(-0.000380344 4.42614e-06 0)
(-0.00038258 -1.78204e-07 0)
(-0.000379465 -3.81309e-06 0)
(-0.00037229 -6.45763e-06 0)
(-0.000362327 -8.16096e-06 0)
(-0.00035075 -9.02245e-06 0)
(-0.000338582 -9.17415e-06 0)
(-0.000326656 -8.76768e-06 0)
(-1.74231e-06 8.45628e-06 0)
(-1.5419e-05 2.57891e-05 0)
(-3.89395e-05 3.89042e-05 0)
(-6.8114e-05 4.58783e-05 0)
(-9.87776e-05 4.68895e-05 0)
(-0.00012747 4.3014e-05 0)
(-0.000151522 3.56266e-05 0)
(-0.0001691 2.60821e-05 0)
(-0.000179176 1.55437e-05 0)
(-0.000181401 4.9038e-06 0)
(-0.000175938 -5.22758e-06 0)
(-0.000163288 -1.44917e-05 0)
(-0.000144143 -2.27275e-05 0)
(-0.000119269 -2.991e-05 0)
(-8.94335e-05 -3.60925e-05 0)
(-5.53649e-05 -4.13545e-05 0)
(-1.77458e-05 -4.57592e-05 0)
(2.27668e-05 -4.93201e-05 0)
(6.54991e-05 -5.19749e-05 0)
(0.000109704 -5.35696e-05 0)
(0.000154493 -5.38513e-05 0)
(0.000198771 -5.24744e-05 0)
(0.00024117 -4.90248e-05 0)
(0.000280018 -4.30633e-05 0)
(0.00031333 -3.41962e-05 0)
(0.000338872 -2.2166e-05 0)
(0.000354283 -6.95798e-06 0)
(0.000357288 1.10945e-05 0)
(0.000345979 3.12283e-05 0)
(0.000319153 5.223e-05 0)
(0.000276647 7.2511e-05 0)
(0.000219581 9.03017e-05 0)
(0.000150429 0.000103935 0)
(7.28279e-05 0.000112185 0)
(-8.89077e-06 0.00011451 0)
(-9.02759e-05 0.000111065 0)
(-0.000167256 0.000102571 0)
(-0.000236467 9.00871e-05 0)
(-0.000295416 7.4865e-05 0)
(-0.000342578 5.8211e-05 0)
(-0.000377388 4.13639e-05 0)
(-0.000400143 2.53889e-05 0)
(-0.000411845 1.11077e-05 0)
(-0.000413994 -9.28861e-07 0)
(-0.000408389 -1.04318e-05 0)
(-0.000396944 -1.73412e-05 0)
(-0.000381537 -2.17788e-05 0)
(-0.000363899 -2.39989e-05 0)
(-0.000345539 -2.43446e-05 0)
(-0.000327689 -2.3212e-05 0)
(-2.25563e-06 1.75412e-05 0)
(-1.88721e-05 4.73484e-05 0)
(-4.60215e-05 6.80995e-05 0)
(-7.85085e-05 7.83082e-05 0)
(-0.000111485 7.85762e-05 0)
(-0.000141083 7.06573e-05 0)
(-0.000164344 5.67821e-05 0)
(-0.000179236 3.91964e-05 0)
(-0.000184625 1.98701e-05 0)
(-0.000180148 3.47955e-07 0)
(-0.000166035 -1.82888e-05 0)
(-0.000142916 -3.53829e-05 0)
(-0.000111655 -5.06194e-05 0)
(-7.32133e-05 -6.39257e-05 0)
(-2.85603e-05 -7.53724e-05 0)
(2.13791e-05 -8.50835e-05 0)
(7.57344e-05 -9.31608e-05 0)
(0.00013367 -9.96226e-05 0)
(0.000194336 -0.000104358 0)
(0.000256805 -0.000107094 0)
(0.000319986 -0.000107384 0)
(0.000382542 -0.000104613 0)
(0.000442805 -9.8041e-05 0)
(0.000498715 -8.68744e-05 0)
(0.000547807 -7.03937e-05 0)
(0.000587256 -4.81147e-05 0)
(0.000614024 -1.99831e-05 0)
(0.000625104 1.34284e-05 0)
(0.000617881 5.07593e-05 0)
(0.000590586 8.98018e-05 0)
(0.000542782 0.000127622 0)
(0.000475746 0.000160911 0)
(0.000392636 0.000186508 0)
(0.000298267 0.000202086 0)
(0.000198404 0.000206645 0)
(9.8906e-05 0.000200512 0)
(5.02491e-06 0.000185068 0)
(-7.89744e-05 0.000162284 0)
(-0.000149964 0.000134468 0)
(-0.000206064 0.000104034 0)
(-0.000246633 7.32718e-05 0)
(-0.000272146 4.41471e-05 0)
(-0.000283962 1.81682e-05 0)
(-0.000284055 -3.66268e-06 0)
(-0.000274749 -2.08275e-05 0)
(-0.000258482 -3.32257e-05 0)
(-0.000237627 -4.10867e-05 0)
(-0.000214354 -4.48803e-05 0)
(-0.000190546 -4.52363e-05 0)
(-0.000167734 -4.28794e-05 0)
(-2.39914e-06 2.77744e-05 0)
(-1.97151e-05 7.08321e-05 0)
(-4.72241e-05 9.88886e-05 0)
(-7.91135e-05 0.000111342 0)
(-0.000110129 0.000109497 0)
(-0.000136197 9.59355e-05 0)
(-0.00015426 7.38329e-05 0)
(-0.000162253 4.63976e-05 0)
(-0.000159059 1.64724e-05 0)
(-0.000144384 -1.36849e-05 0)
(-0.000118564 -4.24706e-05 0)
(-8.23697e-05 -6.88916e-05 0)
(-3.68243e-05 -9.24563e-05 0)
(1.69431e-05 -0.000113035 0)
(7.78009e-05 -0.000130719 0)
(0.000144674 -0.000145687 0)
(0.00021656 -0.000158091 0)
(0.000292512 -0.000167968 0)
(0.000371589 -0.000175161 0)
(0.00045278 -0.000179277 0)
(0.000534913 -0.000179653 0)
(0.000616548 -0.000175365 0)
(0.000695866 -0.000165275 0)
(0.000770576 -0.000148145 0)
(0.000837857 -0.000122814 0)
(0.000894387 -8.84505e-05 0)
(0.000936467 -4.48542e-05 0)
(0.000960287 7.21783e-06 0)
(0.000962347 6.57663e-05 0)
(0.00094005 0.000127398 0)
(0.000892399 0.000187467 0)
(0.000820596 0.000240617 0)
(0.000728418 0.000281614 0)
(0.000622011 0.0003066 0)
(0.000508784 0.000314028 0)
(0.000396113 0.000304561 0)
(0.000290368 0.000280563 0)
(0.000196556 0.000245181 0)
(0.000118307 0.000202044 0)
(5.77388e-05 0.000154946 0)
(1.54436e-05 0.000107485 0)
(-9.33801e-06 6.27302e-05 0)
(-1.841e-05 2.3007e-05 0)
(-1.42621e-05 -1.0169e-05 0)
(2.6589e-07 -3.60449e-05 0)
(2.22587e-05 -5.45112e-05 0)
(4.89297e-05 -6.59568e-05 0)
(7.77601e-05 -7.11282e-05 0)
(0.000106589 -7.10078e-05 0)
(0.000133664 -6.67163e-05 0)
(-2.27801e-06 3.7865e-05 0)
(-1.84839e-05 9.35574e-05 0)
(-4.36083e-05 0.000127868 0)
(-7.16486e-05 0.000141179 0)
(-9.72251e-05 0.00013566 0)
(-0.000116225 0.000114828 0)
(-0.000125618 8.28778e-05 0)
(-0.000123414 4.4024e-05 0)
(-0.000108605 2.01793e-06 0)
(-8.10243e-05 -4.01416e-05 0)
(-4.11556e-05 -8.0306e-05 0)
(1.00733e-05 -0.000117132 0)
(7.14792e-05 -0.000149947 0)
(0.00014178 -0.000178569 0)
(0.000219707 -0.000203124 0)
(0.000304074 -0.000223866 0)
(0.000393798 -0.000241026 0)
(0.000487891 -0.000254682 0)
(0.0005854 -0.00026466 0)
(0.000685338 -0.000270458 0)
(0.000786582 -0.000271198 0)
(0.00088774 -0.000265621 0)
(0.000987008 -0.00025213 0)
(0.00108202 -0.00022893 0)
(0.00116975 -0.00019427 0)
(0.00124645 -0.000146784 0)
(0.00130776 -8.5928e-05 0)
(0.00134895 -1.24744e-05 0)
(0.00136537 7.10087e-05 0)
(0.00135318 0.000159811 0)
(0.00131042 0.000247176 0)
(0.00123786 0.000325063 0)
(0.00113982 0.000385304 0)
(0.00102419 0.000421877 0)
(0.000900497 0.000432655 0)
(0.000777933 0.000418967 0)
(0.000663937 0.000384693 0)
(0.000564058 0.000334429 0)
(0.000482326 0.00027337 0)
(0.000421005 0.000206966 0)
(0.000380519 0.000140393 0)
(0.000359668 7.80198e-05 0)
(0.000356063 2.30895e-05 0)
(0.000366609 -2.23579e-05 0)
(0.000387917 -5.73795e-05 0)
(0.000416621 -8.19284e-05 0)
(0.000449582 -9.66305e-05 0)
(0.000484014 -0.000102581 0)
(0.000517558 -0.000101177 0)
(0.000548318 -9.39906e-05 0)
(-1.98662e-06 4.68873e-05 0)
(-1.5805e-05 0.000113483 0)
(-3.6512e-05 0.000152399 0)
(-5.82721e-05 0.000164895 0)
(-7.58271e-05 0.000154034 0)
(-8.51643e-05 0.000124328 0)
(-8.33786e-05 8.10301e-05 0)
(-6.86315e-05 2.93904e-05 0)
(-4.00818e-05 -2.59147e-05 0)
(2.26061e-06 -8.11342e-05 0)
(5.77323e-05 -0.00013357 0)
(0.000125227 -0.000181529 0)
(0.000203393 -0.000224165 0)
(0.000290795 -0.000261264 0)
(0.000386041 -0.000293013 0)
(0.00048786 -0.000319778 0)
(0.000595134 -0.000341909 0)
(0.000706884 -0.000359571 0)
(0.000822231 -0.000372614 0)
(0.000940311 -0.000380468 0)
(0.00106018 -0.000382069 0)
(0.00118066 -0.000375814 0)
(0.00130015 -0.000359591 0)
(0.00141639 -0.000330929 0)
(0.00152631 -0.000287291 0)
(0.00162587 -0.000226517 0)
(0.00171008 -0.00014741 0)
(0.00177314 -5.04346e-05 0)
(0.00180892 6.15101e-05 0)
(0.00181184 0.000182369 0)
(0.0017783 0.000302834 0)
(0.00170806 0.000411373 0)
(0.00160587 0.000495513 0)
(0.00148206 0.000546016 0)
(0.00134922 0.000560296 0)
(0.0012188 0.000540976 0)
(0.00109917 0.000494409 0)
(0.000996009 0.000426827 0)
(0.00091371 0.000345156 0)
(0.000854676 0.000256805 0)
(0.000819045 0.000168857 0)
(0.00080498 8.71996e-05 0)
(0.000809313 1.60626e-05 0)
(0.000828206 -4.20377e-05 0)
(0.000857677 -8.60797e-05 0)
(0.00089393 -0.000116203 0)
(0.00093354 -0.000133377 0)
(0.000973537 -0.000139129 0)
(0.00101145 -0.000135333 0)
(0.00104531 -0.000124056 0)
(-1.60222e-06 5.42535e-05 0)
(-1.2257e-05 0.00012923 0)
(-2.72433e-05 0.000170647 0)
(-4.11388e-05 0.00018044 0)
(-4.89895e-05 0.000162512 0)
(-4.69934e-05 0.000122373 0)
(-3.24426e-05 6.63461e-05 0)
(-3.70291e-06 7.27899e-07 0)
(3.98573e-05 -6.88744e-05 0)
(9.80174e-05 -0.000137957 0)
(0.000169905 -0.000203274 0)
(0.000254213 -0.000262793 0)
(0.0003494 -0.000315513 0)
(0.000453869 -0.000361215 0)
(0.000566103 -0.000400185 0)
(0.000684757 -0.000432952 0)
(0.000808698 -0.000460044 0)
(0.000937008 -0.000481775 0)
(0.00106894 -0.000498085 0)
(0.00120384 -0.000508407 0)
(0.00134107 -0.000511552 0)
(0.00147985 -0.000505602 0)
(0.00161897 -0.000487889 0)
(0.00175653 -0.000455141 0)
(0.00188963 -0.00040381 0)
(0.0020141 -0.000330611 0)
(0.00212443 -0.00023326 0)
(0.00221373 -0.0001114 0)
(0.00227406 3.22525e-05 0)
(0.00229734 0.000190461 0)
(0.00227755 0.00035093 0)
(0.00221234 0.00049772 0)
(0.00210643 0.000611726 0)
(0.00197393 0.000678623 0)
(0.00183205 0.000695886 0)
(0.00169525 0.00066861 0)
(0.0015722 0.00060742 0)
(0.00146789 0.000519951 0)
(0.00138722 0.000414801 0)
(0.00133291 0.000301708 0)
(0.00130474 0.000190137 0)
(0.00129997 8.77727e-05 0)
(0.00131436 -1.37601e-07 0)
(0.00134319 -7.07372e-05 0)
(0.00138183 -0.000123125 0)
(0.0014261 -0.000157816 0)
(0.00147239 -0.000176262 0)
(0.00151765 -0.000180511 0)
(0.00155939 -0.000172965 0)
(0.00159563 -0.000156213 0)
(-1.18282e-06 5.96574e-05 0)
(-8.31315e-06 0.000140024 0)
(-1.69204e-05 0.000181544 0)
(-2.21313e-05 0.000186605 0)
(-1.94075e-05 0.00015986 0)
(-5.23032e-06 0.000107778 0)
(2.28629e-05 3.77412e-05 0)
(6.62681e-05 -4.29084e-05 0)
(0.00012538 -0.000127635 0)
(0.000199743 -0.000211182 0)
(0.00028825 -0.000289765 0)
(0.000389365 -0.000361023 0)
(0.000501332 -0.000423819 0)
(0.000622365 -0.000477964 0)
(0.000750802 -0.000523894 0)
(0.000885211 -0.000562363 0)
(0.00102445 -0.000594151 0)
(0.00116769 -0.000619804 0)
(0.00131435 -0.000639439 0)
(0.00146405 -0.000652596 0)
(0.00161657 -0.000658075 0)
(0.00177169 -0.000653721 0)
(0.00192886 -0.000636307 0)
(0.00208679 -0.00060164 0)
(0.00224302 -0.000544931 0)
(0.00239353 -0.000461393 0)
(0.00253255 -0.00034713 0)
(0.0026523 -0.000200207 0)
(0.00274275 -2.22183e-05 0)
(0.00279251 0.000178939 0)
(0.00279208 0.000387638 0)
(0.00273509 0.000582856 0)
(0.0026249 0.000734799 0)
(0.00248182 0.00082049 0)
(0.00233035 0.000838985 0)
(0.00218901 0.000799878 0)
(0.00206521 0.000721715 0)
(0.00196141 0.000611963 0)
(0.00188385 0.000480307 0)
(0.00183616 0.000339395 0)
(0.00181768 0.000201871 0)
(0.00182433 7.76085e-05 0)
(0.00185047 -2.71626e-05 0)
(0.00189028 -0.000109522 0)
(0.00193848 -0.000169015 0)
(0.00199064 -0.000206795 0)
(0.0020431 -0.000224957 0)
(0.00209288 -0.000226149 0)
(0.00213756 -0.000213332 0)
(0.00217524 -0.000189623 0)
(-7.67808e-07 6.30061e-05 0)
(-4.32385e-06 0.00014558 0)
(-6.40582e-06 0.000184668 0)
(-2.7347e-06 0.000182909 0)
(1.07667e-05 0.000145595 0)
(3.72995e-05 8.01025e-05 0)
(7.90593e-05 -5.14992e-06 0)
(0.000137189 -0.000101788 0)
(0.000211833 -0.000202349 0)
(0.000302284 -0.000300827 0)
(0.000407181 -0.000392896 0)
(0.00052473 -0.000475874 0)
(0.000652922 -0.000548511 0)
(0.00078974 -0.000610679 0)
(0.00093333 -0.000663019 0)
(0.00108214 -0.00070659 0)
(0.00123501 -0.000742511 0)
(0.00139117 -0.000771658 0)
(0.00155022 -0.000794428 0)
(0.00171208 -0.000810611 0)
(0.00187703 -0.000819178 0)
(0.00204559 -0.000817896 0)
(0.00221812 -0.000803016 0)
(0.00239421 -0.000769348 0)
(0.00257219 -0.000710642 0)
(0.00274856 -0.000620255 0)
(0.00291774 -0.000492144 0)
(0.00307165 -0.000321856 0)
(0.0031983 -0.000108209 0)
(0.00328203 0.00014132 0)
(0.00330899 0.000407619 0)
(0.00326548 0.000665517 0)
(0.00314995 0.000866776 0)
(0.00299307 0.000973122 0)
(0.00283143 0.00098917 0)
(0.00268914 0.000931551 0)
(0.00256859 0.000835032 0)
(0.00246623 0.000701638 0)
(0.00239227 0.000540363 0)
(0.00235256 0.000368043 0)
(0.00234574 0.000202051 0)
(0.00236565 5.50012e-05 0)
(0.00240467 -6.60955e-05 0)
(0.0024557 -0.000158768 0)
(0.00251296 -0.000223516 0)
(0.002572 -0.000262477 0)
(0.00262937 -0.000278543 0)
(0.00268231 -0.000274994 0)
(0.00272858 -0.000255348 0)
(0.00276644 -0.000223222 0)
(-3.81111e-07 6.4355e-05 0)
(-5.25103e-07 0.000145973 0)
(3.69335e-06 0.000180091 0)
(1.59796e-05 0.00016943 0)
(3.99572e-05 0.00011982 0)
(7.8512e-05 3.94873e-05 0)
(0.000133576 -6.21451e-05 0)
(0.000206044 -0.000175681 0)
(0.000295812 -0.000292731 0)
(0.00040192 -0.000406532 0)
(0.000522733 -0.000512213 0)
(0.000656172 -0.000606764 0)
(0.00079993 -0.000688827 0)
(0.000951696 -0.000758364 0)
(0.00110935 -0.000816279 0)
(0.00127117 -0.000864019 0)
(0.00143588 -0.000903155 0)
(0.00160279 -0.000935 0)
(0.00177161 -0.000960335 0)
(0.00194253 -0.000979373 0)
(0.00211636 -0.000991545 0)
(0.00229453 -0.000994792 0)
(0.00247855 -0.000984943 0)
(0.0026692 -0.000955765 0)
(0.00286587 -0.000899389 0)
(0.00306596 -0.00080706 0)
(0.00326472 -0.000670303 0)
(0.00345509 -0.000481254 0)
(0.0036241 -0.000233095 0)
(0.00375096 6.89807e-05 0)
(0.00381758 0.000401788 0)
(0.00379763 0.000743574 0)
(0.00367639 0.00101114 0)
(0.0035016 0.0011378 0)
(0.0033296 0.00114496 0)
(0.00319313 0.00105689 0)
(0.00308202 0.000944683 0)
(0.00297994 0.000789303 0)
(0.00290842 0.000594805 0)
(0.00287774 0.000386267 0)
(0.00288473 0.000188912 0)
(0.00291957 1.86807e-05 0)
(0.00297191 -0.000117271 0)
(0.00303332 -0.000217874 0)
(0.00309786 -0.000285356 0)
(0.00316156 -0.000323248 0)
(0.00322158 -0.000335314 0)
(0.00327556 -0.000325394 0)
(0.00332153 -0.000297487 0)
(0.00335791 -0.000255658 0)
(-3.53824e-08 6.3852e-05 0)
(2.93867e-06 0.000141525 0)
(1.29847e-05 0.000168234 0)
(3.32979e-05 0.000146656 0)
(6.70952e-05 8.30663e-05 0)
(0.000116979 -1.35123e-05 0)
(0.000184647 -0.000132679 0)
(0.000270769 -0.000264024 0)
(0.000375017 -0.000398227 0)
(0.000496184 -0.000527751 0)
(0.000632363 -0.000647153 0)
(0.000781162 -0.000753075 0)
(0.000939927 -0.000844034 0)
(0.00110597 -0.000920094 0)
(0.00127683 -0.000982467 0)
(0.00145043 -0.00103308 0)
(0.00162537 -0.00107409 0)
(0.00180091 -0.00110738 0)
(0.00197683 -0.00113417 0)
(0.00215344 -0.00115531 0)
(0.00233206 -0.00117109 0)
(0.00251521 -0.00118004 0)
(0.00270574 -0.00117767 0)
(0.00290583 -0.0011567 0)
(0.00311619 -0.00110753 0)
(0.00333519 -0.00101918 0)
(0.00355945 -0.000881172 0)
(0.00378525 -0.000682266 0)
(0.00400126 -0.000405066 0)
(0.00418134 -4.87121e-05 0)
(0.00430601 0.000353378 0)
(0.00433052 0.000811447 0)
(0.00420679 0.00117571 0)
(0.00400887 0.00131457 0)
(0.00382709 0.00130118 0)
(0.00370769 0.00116136 0)
(0.0036131 0.00105029 0)
(0.00350424 0.000879464 0)
(0.00343218 0.000644799 0)
(0.00341298 0.000392335 0)
(0.00343747 0.000160325 0)
(0.00348921 -3.23333e-05 0)
(0.00355437 -0.000180049 0)
(0.00362365 -0.00028487 0)
(0.00369188 -0.000351839 0)
(0.00375645 -0.000386261 0)
(0.00381568 -0.000392612 0)
(0.00386778 -0.000374989 0)
(0.00391095 -0.00033772 0)
(0.0039438 -0.00028525 0)
(2.63749e-07 6.16973e-05 0)
(5.98689e-06 0.000132702 0)
(2.12321e-05 0.000149743 0)
(4.87726e-05 0.000115342 0)
(9.14924e-05 3.61514e-05 0)
(0.000151768 -7.80586e-05 0)
(0.00023111 -0.000215932 0)
(0.000330013 -0.000366051 0)
(0.000447962 -0.000518149 0)
(0.000583537 -0.000663885 0)
(0.000734574 -0.000797201 0)
(0.000898362 -0.000914338 0)
(0.00107185 -0.00101364 0)
(0.00125191 -0.00109525 0)
(0.00143555 -0.00116071 0)
(0.00162024 -0.00121251 0)
(0.0018042 -0.00125355 0)
(0.00198658 -0.00128645 0)
(0.00216707 -0.00131291 0)
(0.00234595 -0.00133454 0)
(0.00252497 -0.00135315 0)
(0.00270785 -0.00136836 0)
(0.00289902 -0.00137551 0)
(0.00310221 -0.00136621 0)
(0.00331955 -0.00132896 0)
(0.00354965 -0.00125031 0)
(0.00378999 -0.00111954 0)
(0.00404333 -0.000925246 0)
(0.00430653 -0.000633008 0)
(0.00454895 -0.000224805 0)
(0.00475136 0.00023494 0)
(0.00486446 0.00083725 0)
(0.00475954 0.00138058 0)
(0.00452245 0.00151099 0)
(0.00433707 0.00143297 0)
(0.00425642 0.00122596 0)
(0.00416873 0.00117273 0)
(0.0040313 0.000983347 0)
(0.00396021 0.000688403 0)
(0.00396317 0.000379908 0)
(0.00401376 0.000111664 0)
(0.00408521 -9.91063e-05 0)
(0.0041609 -0.00025223 0)
(0.00423271 -0.000355615 0)
(0.00429826 -0.000418225 0)
(0.00435781 -0.000447116 0)
(0.00441151 -0.000446733 0)
(0.00445805 -0.000420719 0)
(0.00449547 -0.000373522 0)
(0.00452234 -0.000309982 0)
(5.14379e-07 5.81178e-05 0)
(8.57576e-06 0.000120066 0)
(2.82946e-05 0.000125406 0)
(6.21232e-05 7.64259e-05 0)
(0.000112703 -1.99098e-05 0)
(0.000182257 -0.000153123 0)
(0.00027218 -0.000310921 0)
(0.000382853 -0.000480877 0)
(0.000513639 -0.000651757 0)
(0.000662963 -0.000814376 0)
(0.000828451 -0.000961995 0)
(0.00100709 -0.00109037 0)
(0.00119544 -0.0011976 0)
(0.00138982 -0.00128379 0)
(0.00158659 -0.00135078 0)
(0.00178249 -0.00140165 0)
(0.00197508 -0.00144027 0)
(0.00216311 -0.00147023 0)
(0.00234602 -0.00149364 0)
(0.00252384 -0.00151312 0)
(0.00269878 -0.00153274 0)
(0.00287596 -0.00155396 0)
(0.00306153 -0.00157193 0)
(0.00326097 -0.00157715 0)
(0.00347804 -0.00155553 0)
(0.00370941 -0.00148965 0)
(0.0039497 -0.00137209 0)
(0.0042095 -0.00120066 0)
(0.00450764 -0.000925125 0)
(0.00482643 -0.000485168 0)
(0.00512515 2.11989e-05 0)
(0.00536182 0.000761091 0)
(0.00536956 0.00159024 0)
(0.00515173 0.00174527 0)
(0.00488927 0.00157721 0)
(0.00477395 0.00123799 0)
(0.00467044 0.00136286 0)
(0.00451061 0.00108789 0)
(0.00448701 0.000701335 0)
(0.00454529 0.000329336 0)
(0.00463647 3.43363e-05 0)
(0.00472764 -0.000181122 0)
(0.00480618 -0.000327863 0)
(0.00486997 -0.000422121 0)
(0.00492246 -0.000476725 0)
(0.00496851 -0.000499475 0)
(0.00501079 -0.000492968 0)
(0.00504773 -0.000458989 0)
(0.00507622 -0.00040198 0)
(0.00509445 -0.000327524 0)
(7.15625e-07 5.33549e-05 0)
(1.06773e-05 0.000104228 0)
(3.40768e-05 9.61079e-05 0)
(7.31523e-05 3.09715e-05 0)
(0.000130401 -8.39579e-05 0)
(0.000207978 -0.000237527 0)
(0.000307238 -0.000416524 0)
(0.000428534 -0.000607512 0)
(0.000571191 -0.000798269 0)
(0.00073357 -0.000978716 0)
(0.000913172 -0.00114136 0)
(0.00110677 -0.00128136 0)
(0.00131054 -0.0013964 0)
(0.00152027 -0.00148643 0)
(0.00173154 -0.0015534 0)
(0.00194003 -0.00160089 0)
(0.00214216 -0.0016339 0)
(0.00233578 -0.00165731 0)
(0.00251961 -0.00167373 0)
(0.00269331 -0.00168717 0)
(0.00285975 -0.00170496 0)
(0.00302592 -0.00173103 0)
(0.00319981 -0.00176027 0)
(0.00338906 -0.00178235 0)
(0.0036003 -0.00177903 0)
(0.00382454 -0.0017226 0)
(0.00404478 -0.00161402 0)
(0.00427199 -0.00147351 0)
(0.00454719 -0.00125707 0)
(0.00490191 -0.000857847 0)
(0.0052857 -0.000329351 0)
(0.00570794 0.000408904 0)
(0.00603642 0.00159686 0)
(0.00607365 0.00194325 0)
(0.00561396 0.0020904 0)
(0.00513702 0.00133441 0)
(0.00500819 0.00159131 0)
(0.00497713 0.00111991 0)
(0.00508096 0.000614067 0)
(0.00522706 0.000215029 0)
(0.00534945 -7.14596e-05 0)
(0.005441 -0.00026714 0)
(0.00550313 -0.000392677 0)
(0.00554205 -0.000470825 0)
(0.0055675 -0.000516046 0)
(0.00558987 -0.000535294 0)
(0.00561478 -0.000526175 0)
(0.00563874 -0.000486193 0)
(0.00565557 -0.000420111 0)
(0.00566248 -0.000335324 0)
(8.66002e-07 4.7661e-05 0)
(1.22656e-05 8.58461e-05 0)
(3.84954e-05 6.28083e-05 0)
(8.1687e-05 -1.98533e-05 0)
(0.000144294 -0.000154705 0)
(0.00022849 -0.000329949 0)
(0.000335677 -0.000531473 0)
(0.000466269 -0.000744833 0)
(0.000619656 -0.000956805 0)
(0.000794249 -0.00115638 0)
(0.000987562 -0.00133523 0)
(0.00119629 -0.00148781 0)
(0.0014164 -0.00161118 0)
(0.00164319 -0.00170486 0)
(0.00187144 -0.00177062 0)
(0.00209555 -0.00181222 0)
(0.00231022 -0.00183568 0)
(0.00251145 -0.00184754 0)
(0.00269628 -0.00185111 0)
(0.00286345 -0.00185292 0)
(0.00301691 -0.00186506 0)
(0.00316671 -0.00189422 0)
(0.00332331 -0.00193442 0)
(0.00349693 -0.00197606 0)
(0.00370077 -0.00199555 0)
(0.00391669 -0.00193683 0)
(0.00410523 -0.00181625 0)
(0.00427314 -0.00168681 0)
(0.00445923 -0.00152551 0)
(0.0046832 -0.00118697 0)
(0.00489825 -0.000625543 0)
(0.00504858 0.000108901 0)
(0.00539107 0.0012495 0)
(0.00561569 0.00205951 0)
(0.00559084 0.00245282 0)
(0.0054251 0.00159565 0)
(0.00555079 0.0013768 0)
(0.00594132 0.00103344 0)
(0.00603153 0.000517632 0)
(0.00609137 0.000117443 0)
(0.00615949 -0.000154702 0)
(0.00621541 -0.000325491 0)
(0.00624278 -0.000425482 0)
(0.00624299 -0.000485686 0)
(0.00622872 -0.000523681 0)
(0.00621815 -0.000546752 0)
(0.00622214 -0.000542547 0)
(0.00623234 -0.00049991 0)
(0.00623612 -0.000425486 0)
(0.00622949 -0.00033089 0)
(9.62747e-07 4.13022e-05 0)
(1.33105e-05 6.56174e-05 0)
(4.14632e-05 2.65389e-05 0)
(8.75519e-05 -7.47763e-05 0)
(0.000154084 -0.000230725 0)
(0.000243333 -0.000428896 0)
(0.000356828 -0.000654297 0)
(0.000495133 -0.00089149 0)
(0.000657806 -0.00112626 0)
(0.000843446 -0.00134665 0)
(0.00104975 -0.00154345 0)
(0.00127355 -0.00171028 0)
(0.00151084 -0.00184342 0)
(0.00175672 -0.00194162 0)
(0.00200535 -0.00200598 0)
(0.0022499 -0.00203978 0)
(0.00248285 -0.00204951 0)
(0.00269715 -0.00204325 0)
(0.00288659 -0.00202548 0)
(0.00304709 -0.00200689 0)
(0.0031828 -0.00200776 0)
(0.00330969 -0.00203857 0)
(0.00344336 -0.00208953 0)
(0.00359659 -0.00215424 0)
(0.00379538 -0.00220972 0)
(0.00401232 -0.00213257 0)
(0.00417012 -0.00196371 0)
(0.00428703 -0.00182655 0)
(0.00440046 -0.00167392 0)
(0.00451575 -0.00135678 0)
(0.00465224 -0.000775532 0)
(0.00481391 -5.38862e-06 0)
(0.005044 0.000882156 0)
(0.00539084 0.00189407 0)
(0.00571401 0.00224875 0)
(0.00582721 0.00170493 0)
(0.00597525 0.000929396 0)
(0.00630946 0.000787543 0)
(0.00660803 0.00038218 0)
(0.00679904 2.21109e-05 0)
(0.00691838 -0.000222965 0)
(0.00698617 -0.00036136 0)
(0.00699845 -0.000424626 0)
(0.00696057 -0.000458378 0)
(0.0068971 -0.000489352 0)
(0.00684543 -0.00052845 0)
(0.00682918 -0.000541983 0)
(0.00682931 -0.000500452 0)
(0.00682053 -0.000416862 0)
(0.00679872 -0.00031218 0)
(1.00205e-06 3.45609e-05 0)
(1.37789e-05 4.42846e-05 0)
(4.28917e-05 -1.15951e-05 0)
(9.05726e-05 -0.000132417 0)
(0.000159471 -0.000310444 0)
(0.000252029 -0.000532675 0)
(0.00036997 -0.000783261 0)
(0.000514073 -0.0010458 0)
(0.000684154 -0.00130512 0)
(0.000879118 -0.00154834 0)
(0.00109701 -0.00176539 0)
(0.00133508 -0.00194899 0)
(0.00158969 -0.00209451 0)
(0.00185619 -0.0021996 0)
(0.00212869 -0.00226418 0)
(0.0023996 -0.00229012 0)
(0.00265933 -0.00228295 0)
(0.00289693 -0.00225134 0)
(0.00310103 -0.00220087 0)
(0.00326051 -0.00214699 0)
(0.00337452 -0.00212526 0)
(0.00346837 -0.00215776 0)
(0.00357109 -0.00222205 0)
(0.00369932 -0.00231304 0)
(0.00389453 -0.00243137 0)
(0.00413294 -0.00233334 0)
(0.00427041 -0.00204682 0)
(0.0043563 -0.00194191 0)
(0.00446162 -0.00176628 0)
(0.00453456 -0.00144927 0)
(0.00463706 -0.00092344 0)
(0.00484651 -0.000251369 0)
(0.00523848 0.000521049 0)
(0.00576271 0.00142454 0)
(0.00607735 0.00209424 0)
(0.00614594 0.00163577 0)
(0.00631915 0.000656125 0)
(0.00672088 0.000346174 0)
(0.00715622 6.53155e-05 0)
(0.00745908 -0.000183586 0)
(0.00765906 -0.000348937 0)
(0.00776959 -0.000412206 0)
(0.00777464 -0.000396955 0)
(0.00768971 -0.000380705 0)
(0.007562 -0.000401747 0)
(0.00746031 -0.000478428 0)
(0.00743136 -0.000531254 0)
(0.00743175 -0.00049226 0)
(0.00741223 -0.000393857 0)
(0.00737334 -0.0002775 0)
(9.80003e-07 2.7737e-05 0)
(1.36418e-05 2.26326e-05 0)
(4.2707e-05 -5.04205e-05 0)
(9.06049e-05 -0.000191295 0)
(0.000160202 -0.000392136 0)
(0.000254162 -0.000639372 0)
(0.000374436 -0.000916321 0)
(0.000522057 -0.00120566 0)
(0.000697142 -0.00149129 0)
(0.000898964 -0.00175951 0)
(0.00112605 -0.00199943 0)
(0.00137625 -0.00220302 0)
(0.00164667 -0.00236467 0)
(0.00193349 -0.00248088 0)
(0.00223164 -0.0025499 0)
(0.00253397 -0.00257127 0)
(0.00283022 -0.00254765 0)
(0.00310635 -0.00248576 0)
(0.0033448 -0.00239029 0)
(0.00352164 -0.00227725 0)
(0.00361713 -0.00220589 0)
(0.00366403 -0.0022403 0)
(0.00371949 -0.0023281 0)
(0.0038293 -0.00246324 0)
(0.00402339 -0.00265459 0)
(0.00423619 -0.00251783 0)
(0.00439246 -0.00212684 0)
(0.0045282 -0.00208329 0)
(0.00462555 -0.00184636 0)
(0.00468021 -0.00152356 0)
(0.00479394 -0.00108772 0)
(0.0050236 -0.000551386 0)
(0.00535659 8.38353e-05 0)
(0.00576794 0.000946173 0)
(0.00640309 0.00167366 0)
(0.00708325 0.00133212 0)
(0.00743308 0.000423033 0)
(0.00763314 -1.75929e-05 0)
(0.0079047 -0.000271314 0)
(0.00818976 -0.000446718 0)
(0.00842093 -0.000523449 0)
(0.0085537 -0.000472316 0)
(0.00854095 -0.00032716 0)
(0.00841001 -0.000242681 0)
(0.0082162 -0.000249979 0)
(0.00805963 -0.000403967 0)
(0.00803362 -0.000530398 0)
(0.00804915 -0.000482872 0)
(0.00801677 -0.000353706 0)
(0.00795602 -0.000224756 0)
(8.9395e-07 2.11433e-05 0)
(1.28839e-05 1.47506e-06 0)
(4.08745e-05 -8.87172e-05 0)
(8.75803e-05 -0.00024985 0)
(0.000156146 -0.000473953 0)
(0.000249484 -0.000746881 0)
(0.000369784 -0.00105113 0)
(0.000518325 -0.00136848 0)
(0.000695505 -0.00168199 0)
(0.000900952 -0.00197721 0)
(0.00113367 -0.00224263 0)
(0.00139217 -0.00246958 0)
(0.00167447 -0.00265177 0)
(0.00197801 -0.00278467 0)
(0.00229934 -0.00286503 0)
(0.00263338 -0.00288964 0)
(0.00297202 -0.00285689 0)
(0.00330187 -0.00276788 0)
(0.00360334 -0.00262193 0)
(0.00383878 -0.00242145 0)
(0.00394534 -0.00224283 0)
(0.00393474 -0.00225854 0)
(0.0039079 -0.00238872 0)
(0.0039556 -0.0025859 0)
(0.00411 -0.00286757 0)
(0.00435526 -0.00272734 0)
(0.00469763 -0.00238916 0)
(0.00488348 -0.00217532 0)
(0.00484271 -0.00186108 0)
(0.00484296 -0.00158578 0)
(0.00495097 -0.00124829 0)
(0.00516557 -0.000828915 0)
(0.0054848 -0.000285542 0)
(0.00597801 0.000414338 0)
(0.00671176 0.000854706 0)
(0.00749555 0.00069214 0)
(0.00802689 0.0001401 0)
(0.00834427 -0.000265516 0)
(0.00862297 -0.000543711 0)
(0.00887593 -0.00069057 0)
(0.00909824 -0.00071033 0)
(0.00926733 -0.000550136 0)
(0.00928453 -0.000219868 0)
(0.00917337 -7.8978e-05 0)
(0.00894416 -2.45889e-05 0)
(0.00871521 -0.000318068 0)
(0.00869076 -0.000563094 0)
(0.00871161 -0.00046369 0)
(0.00864075 -0.000280929 0)
(0.00854713 -0.000150646 0)
(7.43867e-07 1.50959e-05 0)
(1.15149e-05 -1.83712e-05 0)
(3.74258e-05 -0.000125259 0)
(8.15544e-05 -0.000306504 0)
(0.000147371 -0.000553992 0)
(0.000238046 -0.000852979 0)
(0.000355986 -0.00118513 0)
(0.000502675 -0.00153134 0)
(0.000678718 -0.00187386 0)
(0.000883996 -0.0021976 0)
(0.00111786 -0.00249056 0)
(0.0013793 -0.00274368 0)
(0.0016671 -0.00295032 0)
(0.00197985 -0.00310546 0)
(0.00231592 -0.00320498 0)
(0.00267308 -0.00324385 0)
(0.00304765 -0.00321675 0)
(0.00343307 -0.00311828 0)
(0.00381993 -0.00293842 0)
(0.00417806 -0.0026474 0)
(0.00439651 -0.00228499 0)
(0.00436128 -0.00216213 0)
(0.00415777 -0.00232254 0)
(0.00413382 -0.00272257 0)
(0.0043487 -0.00313112 0)
(0.00473825 -0.00311067 0)
(0.00504425 -0.00263534 0)
(0.00499391 -0.00211355 0)
(0.00489209 -0.00181951 0)
(0.00493967 -0.00165758 0)
(0.00512115 -0.00143347 0)
(0.00540361 -0.00111559 0)
(0.00579149 -0.000702815 0)
(0.0063461 -0.00021632 0)
(0.00707269 6.53853e-05 0)
(0.0078361 -2.21774e-05 0)
(0.00842591 -0.000302756 0)
(0.00881398 -0.00059135 0)
(0.00911359 -0.000821297 0)
(0.00938241 -0.000936944 0)
(0.00964567 -0.000938395 0)
(0.00989697 -0.000709873 0)
(0.0100795 -0.00019552 0)
(0.0101438 6.85359e-05 0)
(0.00989554 0.000345847 0)
(0.00950166 -0.000188341 0)