/*--------------------------------*- C++ -*----------------------------------*\
| =========                 |                                                 |
| \\      /  F ield         | OpenFOAM: The Open Source CFD Toolbox           |
|  \\    /   O peration     | Version:  2.4.0                                 |
|   \\  /    A nd           | Web:      www.OpenFOAM.org                      |
|    \\/     M anipulation  |                                                 |
\*---------------------------------------------------------------------------*/
FoamFile
{
    version     2.0;
    format      ascii;
    class       volScalarField;
    location    "0.05";
    object      alpha.water;
}
// * * * * * * * * * * * * * * * * * * * * * * * * * * * * * * * * * * * * * //

dimensions      [0 0 0 0 0 0 0];

internalField   nonuniform List<scalar> 
14400
(
1
1
1
1
1
1
1
1
1
1
1
1
1
1
1
1
1
1
1
1
1
1
1
1
1
1
1
1
1
1
1
1
1
1
1
1
1
1
1
1
1
1
1
1
1
1
1
1
1
1
1
1
1
1
1
1
1
1
1
1
1
1
1
1
1
1
1
1
1
1
1
1
1
1
1
1
1
1
1
1
1
1
1
1
1
1
1
1
1
1
1
1
1
1
1
1
1
1
1
1
1
1
1
1
1
1
1
1
1
1
1
1
1
1
1
1
1
1
1
1
1
1
1
1
1
1
1
1
1
1
1
1
1
1
1
1
1
1
1
1
1
1
1
1
1
1
1
1
1
1
1
1
1
1
1
1
1
1
1
1
1
1
1
1
1
1
1
1
1
1
1
1
1
1
1
1
1
1
1
1
1
1
1
1
1
1
1
1
1
1
1
1
1
1
1
1
1
1
1
1
1
1
1
1
1
1
1
1
1
1
1
1
1
1
1
1
1
1
1
1
1
1
1
1
1
1
1
1
1
1
1
1
1
1
1
1
1
1
1
1
1
1
1
1
1
1
1
1
1
1
1
1
1
1
1
1
1
1
1
1
1
1
1
1
1
1
1
1
1
1
1
1
1
1
1
1
1
1
1
1
1
1
1
1
1
1
1
1
1
1
1
1
1
1
1
1
1
1
1
1
1
1
1
1
1
1
1
1
1
1
1
1
1
1
1
1
1
1
1
1
1
1
1
1
1
1
1
1
1
1
1
1
1
1
1
1
1
1
1
1
1
1
1
1
1
1
1
1
1
1
1
1
1
1
1
1
1
1
1
1
1
1
1
1
1
1
1
1
1
1
1
1
1
1
1
1
1
1
1
1
1
1
1
1
1
1
1
1
1
1
1
1
1
1
1
1
1
1
1
1
1
1
1
1
1
1
1
1
1
1
1
1
1
1
1
1
1
1
1
1
1
1
1
1
1
1
1
1
1
1
1
1
1
1
1
1
1
1
1
1
1
1
1
1
1
1
1
1
1
1
1
1
1
1
1
1
1
1
1
1
1
1
1
1
1
1
1
1
1
1
1
1
1
1
1
1
1
1
1
1
1
1
1
1
1
1
1
1
1
1
1
1
1
1
1
1
1
1
1
1
1
1
1
1
1
1
1
1
1
1
1
1
1
1
1
1
1
1
1
1
1
1
1
1
1
1
1
1
0.999998
1
0.765448
0.278078
0.215129
0.210724
0.226104
0.268086
0.313103
0.348337
0.367499
0.36779
1
1
1
1
1
1
1
1
1
1
1
1
1
1
1
1
1
1
0.999982
0.384418
0.000653765
0.000231112
9.81871e-05
0.000208525
0.00028352
0.000390342
0.000588735
0.000819326
0.00122283
0.00191
1
1
1
1
1
1
1
1
1
1
1
1
1
1
1
1
1
0.948258
0.532011
0.000597036
2.97774e-05
2.64877e-06
1.38894e-06
3.54291e-06
5.98016e-06
1.01153e-05
1.83717e-05
3.31069e-05
7.19025e-05
0.000151795
1
1
1
1
1
1
1
1
1
1
1
1
1
1
1
1
1
0.935974
0.000963463
1.18761e-05
1.07505e-06
3.52222e-08
1.02025e-08
1.3499e-08
2.9049e-08
7.19069e-08
3.12893e-07
6.86257e-07
2.58769e-06
7.14715e-06
1
1
1
1
1
1
1
1
1
1
1
1
1
1
1
1
0.955737
0.102405
9.94244e-05
1.35484e-06
1.75186e-07
1.3371e-08
1.02379e-08
1.08491e-08
1.28724e-08
2.67967e-08
8.27867e-08
6.62489e-08
2.29478e-07
6.53254e-07
1
1
1
1
1
1
1
1
1
1
1
1
1
1
1
1
0.893766
0.000557175
7.08412e-06
1.28317e-07
5.62809e-06
1.65739e-08
9.92132e-09
9.95112e-09
5.25954e-06
6.09219e-05
1.21953e-05
2.49914e-08
3.36618e-08
6.29872e-08
1
1
1
1
1
1
1
1
1
1
1
1
1
1
1
1
0.118518
3.32176e-05
2.60269e-08
2.69648e-09
4.18961e-09
9.75916e-09
1.33638e-08
8.44191e-05
8.70643e-05
8.53193e-05
3.53242e-07
2.30336e-08
2.41024e-08
2.62191e-08
1
1
1
1
1
1
1
1
1
1
1
1
1
1
1
0.999999
0.000222059
3.02414e-06
7.89748e-07
2.70918e-09
3.32923e-09
9.11714e-09
1.42931e-05
8.69988e-05
8.70737e-05
8.80521e-06
2.00162e-08
2.27438e-08
2.3477e-08
2.41054e-08
1
1
1
1
1
1
1
1
1
1
1
1
1
1
1
0.553792
0.000290381
2.86969e-06
1.63791e-09
1.97835e-09
2.8913e-08
5.0089e-07
4.02258e-07
1.65815e-06
4.92496e-07
1.03897e-07
2.36018e-08
2.28578e-08
5.24097e-07
4.33382e-08
1
1
1
1
1
1
1
1
1
1
1
1
1
1
1
0.0931424
-1.90662e-08
3.33223e-10
1.17542e-09
1.74597e-09
3.50254e-07
3.21038e-07
6.36579e-09
2.49732e-08
5.13419e-08
6.79557e-08
3.32622e-08
1.55082e-05
2.56533e-05
2.56148e-05
1
1
1
1
1
1
1
1
1
1
1
1
1
1
1
0.0410703
2.52684e-16
4.07047e-10
6.13529e-10
1.4821e-09
1.48782e-09
1.9254e-09
2.32843e-09
3.643e-09
1.31774e-08
2.40163e-06
6.69728e-06
5.05815e-06
2.06018e-05
1.97473e-05
1
1
1
1
1
1
1
1
1
1
1
1
1
1
1
8.34066e-05
7.77435e-17
3.1636e-11
1.557e-10
4.98416e-10
9.85502e-10
1.4271e-09
1.858e-09
2.3326e-09
6.6246e-09
1.24647e-06
4.89529e-07
3.53716e-08
9.79208e-08
1.00953e-07
1
1
1
1
1
1
1
1
1
0.999998
0.999983
1
1
1
0.946995
6.84084e-06
-1.27589e-11
1.09737e-11
2.74473e-11
1.11299e-10
2.95584e-10
5.48464e-10
8.91642e-10
1.47442e-09
6.37565e-09
5.16734e-09
4.87484e-09
3.47371e-09
5.75814e-09
6.22953e-09
1
1
1
1
1
1
1
1
1
1
1
1
1
1
1
1
1
1
1
1
1
1
1
1
1
1
1
1
1
1
1
1
1
1
1
1
1
1
1
1
1
1
1
1
1
1
1
1
1
1
1
1
1
1
1
1
1
1
1
1
1
1
1
1
1
1
1
1
1
1
1
1
1
1
1
1
1
1
1
1
1
1
1
1
1
1
1
1
1
1
1
1
1
1
1
1
1
1
1
1
1
1
1
1
1
1
1
1
1
1
1
1
1
1
1
1
1
1
1
1
1
1
1
1
1
1
1
1
1
1
1
1
1
1
1
1
1
1
1
1
1
1
1
1
1
1
1
1
1
1
1
1
1
1
1
1
1
1
1
1
1
1
1
1
1
1
1
1
1
1
1
1
1
1
1
1
1
1
1
1
1
1
1
1
1
1
1
1
1
1
1
1
1
1
1
1
1
1
1
1
1
1
1
1
1
1
1
1
1
1
1
1
1
1
1
1
1
1
1
1
1
1
1
1
1
1
1
1
1
1
1
1
1
1
1
1
1
1
1
1
1
1
1
1
1
1
1
1
1
1
1
1
1
1
1
1
1
1
1
1
1
1
1
1
1
1
1
1
1
1
1
1
1
1
1
1
1
1
1
1
1
1
1
1
1
1
1
1
1
1
1
1
1
1
1
1
1
1
1
1
1
1
1
1
1
1
1
1
1
1
1
1
1
1
1
1
1
1
1
1
1
1
1
1
1
1
1
1
1
1
1
1
1
1
1
1
1
1
1
1
1
1
1
1
1
1
1
1
1
1
1
1
1
1
1
1
1
1
1
1
1
1
1
1
1
1
1
1
1
1
1
1
1
1
1
1
1
1
1
1
1
1
1
1
1
1
1
1
1
1
1
1
1
1
1
1
1
1
1
1
1
1
1
1
1
1
1
1
1
1
1
1
1
1
1
1
1
1
1
1
1
1
1
1
1
1
1
1
1
1
1
1
1
1
1
1
1
1
1
1
1
1
1
1
1
1
1
1
1
1
1
1
1
1
1
1
1
1
1
1
1
1
1
1
1
1
1
1
1
1
1
1
1
1
1
1
1
1
1
1
1
1
1
1
1
1
1
1
1
1
1
1
1
1
1
1
1
1
1
1
1
1
1
1
1
1
1
1
1
1
0.364512
0.360912
0.347834
0.313354
0.274021
0.242292
0.212601
0.178039
0.22651
0.53366
0.977528
1
1
1
1
1
1
1
1
1
1
1
1
1
1
1
1
1
1
1
0.00207553
0.00145144
0.000924321
0.000657117
0.00047843
0.000351516
0.000205628
0.000129398
0.000106587
0.000749574
0.00212576
0.962395
0.999058
1
1
1
1
1
1
1
1
1
1
1
1
1
1
1
1
1
0.000172222
9.6834e-05
4.28404e-05
2.23595e-05
1.27675e-05
7.85695e-06
4.30168e-06
2.05996e-06
1.1752e-06
1.01993e-05
0.000112312
0.021198
0.997814
1
1
1
1
1
1
1
1
1
1
1
1
1
1
1
1
1
8.30396e-06
4.02455e-06
1.09705e-06
3.31143e-07
1.10063e-07
3.86425e-08
1.51397e-08
6.35027e-09
1.21732e-08
2.52307e-07
3.55742e-06
0.000109558
0.22933
0.98289
1
1
1
1
1
1
1
1
1
1
1
1
1
1
1
1
7.5663e-07
3.64615e-07
1.01392e-07
4.75321e-08
3.33152e-08
1.02988e-08
7.6233e-09
6.41719e-09
7.72671e-09
1.87386e-08
2.94061e-06
6.56064e-07
0.000982266
0.906686
1
1
1
1
1
1
1
1
1
1
1
1
1
1
1
1
7.20243e-08
4.33122e-08
2.57226e-08
2.20714e-08
5.17789e-05
2.15034e-05
6.12884e-09
6.03246e-09
6.10327e-09
3.25331e-07
1.25685e-05
7.89536e-07
9.12526e-05
0.0614544
0.972591
1
1
1
1
1
1
1
1
1
1
1
1
1
1
1
2.73806e-08
2.36946e-08
2.16528e-08
1.95309e-08
9.31886e-05
9.56855e-05
9.52367e-05
1.8653e-06
6.41378e-09
4.52481e-09
3.95244e-09
-5.10149e-09
3.34968e-06
0.000280417
0.995432
1
1
1
1
1
1
1
1
1
1
1
1
1
1
1
2.4098e-08
2.21549e-08
2.06456e-08
1.85774e-08
1.83468e-06
9.37391e-05
9.56338e-05
3.89254e-05
1.57542e-08
3.29622e-09
2.89292e-09
1.28223e-09
8.90597e-06
1.87985e-05
0.257309
1
1
1
1
1
1
1
1
1
1
1
1
1
1
1
2.42549e-08
2.1786e-08
2.09618e-08
1.9838e-08
4.12075e-08
5.34256e-07
2.00571e-06
2.1071e-07
8.62508e-07
1.03574e-07
1.79897e-09
1.25836e-09
2.34148e-05
-3.71311e-06
0.00128965
1
1
1
1
1
1
1
1
1
1
1
1
1
1
1
2.52922e-05
2.43315e-05
3.64239e-06
2.12291e-08
3.10478e-08
6.264e-08
3.31286e-08
8.79548e-09
2.20986e-07
4.10331e-07
2.63749e-09
1.35258e-09
7.24924e-10
1.21448e-14
-2.31718e-09
0.973014
1
1
1
1
1
1
1
1
1
1
1
1
1
1
1.4508e-05
1.0107e-05
6.51274e-06
6.06073e-06
5.52151e-06
2.14945e-08
4.82933e-09
2.48667e-09
2.08962e-09
1.82902e-09
1.36351e-09
7.61692e-10
3.6412e-10
5.8387e-11
-1.78812e-11
0.651114
1
1
1
1
1
1
1
1
1
1
1
1
1
1
7.45374e-08
5.22726e-08
3.30349e-08
3.85125e-06
1.91313e-06
4.60789e-08
2.45759e-09
2.00566e-09
1.58282e-09
1.18608e-09
6.08519e-10
2.11022e-10
4.86819e-11
1.57397e-11
-1.92974e-09
0.344665
1
1
1
1
1
1
1
1
1
1
1
1
1
1
5.30301e-09
4.15394e-09
3.74285e-09
1.19106e-08
8.24266e-09
3.59037e-09
1.49694e-09
1.00897e-09
6.32137e-10
3.55843e-10
1.40621e-10
3.755e-11
1.16357e-11
7.35447e-12
-1.08807e-06
0.157448
1
1
1
0.999991
0.999988
1
1
1
1
1
1
1
1
1
1.24103e-09
0.751761
0.986723
1
1
1
1
1
1
0.999985
1
0.999999
1
1
0.736662
1.36832e-07
-3.9669e-11
2.17555e-12
5.81487e-12
2.37497e-11
7.62568e-11
1.74181e-10
3.38802e-10
7.02063e-10
1.62944e-09
2.09368e-09
2.28845e-09
2.3445e-09
1.9907e-09
2.24535e-09
2.14856e-10
1.48399e-07
0.00184203
0.349624
0.973701
1
1
1
1
0.999985
1
0.999998
1
1
0.583459
-1.44167e-11
-3.54072e-11
2.02318e-12
2.07557e-12
5.42964e-12
1.98581e-11
5.37688e-11
1.21675e-10
2.71877e-10
5.97071e-10
1.08163e-09
1.25964e-09
9.21118e-10
9.25148e-10
9.52039e-10
1.99584e-10
2.21526e-09
0.00266571
0.0098789
0.342419
0.959314
1
1
0.999998
1
1
0.999997
1
1
0.428374
-6.2192e-10
-1.12301e-11
4.99103e-12
1.40475e-12
9.94712e-13
3.57505e-12
1.14423e-11
3.03916e-11
7.49752e-11
1.69457e-10
3.09872e-10
4.00289e-10
3.35482e-10
2.92088e-10
2.83465e-10
3.08646e-10
4.96637e-09
0.000666925
0.00157289
0.167417
0.836723
0.996323
0.997638
0.999998
1
1
0.999999
1
1
0.271859
3.20243e-16
5.33231e-12
7.43312e-12
1.59629e-12
3.16973e-13
4.44281e-13
1.5981e-12
4.99944e-12
1.38717e-11
3.36517e-11
6.52301e-11
9.1104e-11
8.4042e-11
6.93665e-11
6.39707e-11
1.14614e-09
3.22669e-05
0.000656143
0.000122641
0.0148396
0.70657
0.990095
0.9998
0.999991
0.999999
1
1
1
0.999999
0.152724
1.08634e-14
2.54812e-13
7.84027e-12
2.21862e-12
3.64256e-13
6.93187e-14
1.39628e-13
5.06887e-13
1.6029e-12
4.25555e-12
8.85241e-12
1.3264e-11
1.32319e-11
1.08512e-11
9.66567e-12
1.25189e-09
4.21043e-06
0.00065608
7.61512e-05
9.20138e-05
0.149761
0.946604
0.999971
0.999999
0.999948
0.999977
1
1
0.999965
0.0446371
6.28314e-10
3.0674e-07
6.14523e-12
3.27656e-12
5.93893e-13
7.181e-14
1.17525e-14
2.94325e-14
1.06799e-13
3.15543e-13
7.11837e-13
1.14307e-12
1.22181e-12
1.01946e-12
8.91383e-13
4.14418e-10
1.76624e-05
6.57685e-05
0.000119456
4.203e-05
0.000200468
0.509986
0.999998
0.999998
0.99845
0.999552
1
1
0.972141
0.00950975
1.68467e-09
1.06772e-07
1.08105e-11
4.77436e-12
9.87232e-13
1.36909e-13
1.13113e-14
1.39809e-15
3.69815e-15
1.23999e-14
3.08543e-14
5.34665e-14
6.11254e-14
5.25993e-14
4.57743e-14
1.70102e-10
8.23787e-06
0.00054787
0.000139421
2.1778e-07
4.91992e-06
0.0138924
0.921007
0.999953
0.553996
0.506836
1
1
0.649435
0.000846339
1.14125e-09
2.71846e-10
2.01024e-11
7.08192e-12
1.89901e-12
3.47256e-13
3.42617e-14
1.75783e-15
1.12353e-16
2.24739e-16
6.34098e-16
1.20967e-15
1.4913e-15
1.33915e-15
1.17446e-15
7.08092e-11
2.68425e-09
0.000532472
0.000192822
1.48455e-07
1.57821e-07
2.56605e-06
0.189532
0.774608
0.000143594
0.00981593
1.00002
0.999969
0.251479
0.000191804
5.80244e-06
4.65754e-07
2.83786e-11
1.28262e-11
5.3957e-12
1.53027e-12
2.21495e-13
1.36104e-14
4.20445e-16
1.0037e-17
5.15299e-18
1.10435e-17
1.50684e-17
1.43799e-17
1.28958e-17
4.65339e-12
6.4446e-10
0.000529984
2.13057e-05
1.79231e-07
7.01513e-06
8.65638e-07
7.38998e-07
6.63292e-06
3.75507e-06
-1.13249e-05
0.896843
0.998808
0.0301618
0.000361693
8.00289e-07
7.75217e-08
4.43597e-11
3.10959e-11
1.98419e-11
9.01312e-12
2.10914e-12
2.012e-13
8.01102e-15
1.72269e-16
2.66199e-18
6.30153e-20
4.72922e-20
4.96e-20
4.66456e-20
2.85495e-13
7.24594e-11
2.38299e-07
5.1578e-05
5.45909e-06
1.40984e-05
1.31214e-05
4.8114e-06
1.10247e-05
2.46964e-07
1.31396e-07
0.0130903
0.605198
0.000161054
3.75852e-05
4.42508e-07
8.38581e-11
8.58523e-11
8.9725e-11
7.72027e-11
4.85737e-11
1.63044e-11
2.40248e-12
1.45517e-13
4.41877e-15
8.35936e-17
1.17889e-18
1.42343e-20
1.80468e-22
3.19923e-23
2.75506e-14
3.87167e-11
2.36002e-09
2.60823e-10
1.16187e-07
7.55637e-06
8.17796e-06
1.4016e-07
2.56565e-07
3.01767e-08
3.94531e-10
-4.93889e-10
3.42473e-09
6.52795e-09
6.5179e-05
1.23355e-08
2.08685e-10
2.32725e-10
3.22787e-10
3.69293e-10
2.61107e-10
9.02757e-11
1.97048e-11
1.74979e-12
7.32036e-14
1.81291e-15
3.2055e-17
4.53051e-19
5.45408e-21
6.01647e-23
5.63964e-15
9.54486e-12
1.01995e-10
1.80469e-10
2.75314e-10
6.60146e-07
3.69861e-08
1.55096e-07
2.17612e-07
3.29174e-07
1.755e-07
-1.0263e-08
1.79953e-08
3.07247e-08
3.77282e-05
7.90944e-07
3.36251e-10
5.28656e-10
8.26829e-10
9.71822e-10
7.14495e-10
4.59226e-10
1.07589e-10
1.44024e-11
8.23675e-13
2.62711e-14
5.65768e-16
9.30293e-18
1.27345e-19
1.59616e-21
1.09424e-15
1.40674e-12
4.44938e-11
1.34796e-10
2.91628e-10
2.55467e-07
3.0135e-07
1.28183e-07
4.38158e-10
4.99513e-07
6.65201e-11
-5.43887e-09
2.21994e-07
0.000567074
0.000135411
5.56612e-10
5.42223e-10
6.16505e-10
1.19656e-09
6.64053e-09
1.73985e-08
8.59775e-10
4.00536e-10
8.39477e-11
6.6099e-12
2.75664e-13
7.28645e-15
1.40968e-16
2.21736e-18
3.24075e-20
1.50456e-16
3.09005e-13
3.34064e-11
6.78866e-11
7.66848e-11
6.03449e-11
4.16966e-07
1.29787e-08
3.89041e-10
6.37197e-11
5.19852e-11
6.18655e-11
-1.34391e-09
0.000240849
2.21481e-05
5.12966e-09
-1.1234e-10
-6.27408e-09
0.000199023
3.03021e-05
3.62629e-05
2.47527e-08
7.47896e-10
3.59834e-10
3.89229e-11
2.19681e-12
7.33019e-14
1.71502e-15
3.16244e-17
5.76051e-19
1.35115e-17
4.93335e-14
1.1223e-11
1.90299e-11
1.56113e-11
1.35386e-10
3.54026e-09
6.86704e-10
3.30043e-10
1.28755e-10
3.3773e-11
1.53562e-10
9.69314e-06
0.000332444
0.000396824
2.74284e-08
4.40308e-07
0.000292291
2.38523e-05
9.44095e-06
0.000137177
8.6048e-05
4.04845e-09
1.06134e-09
1.7241e-10
1.37156e-11
6.08028e-13
1.78879e-14
4.01756e-16
8.30644e-18
7.67104e-19
4.96284e-15
1.95155e-12
3.42353e-12
3.71088e-12
7.74289e-11
8.49392e-11
1.41486e-10
1.00463e-10
6.45483e-11
1.42961e-11
1.65188e-10
1.93195e-05
8.11541e-05
3.84791e-06
2.34365e-07
5.73861e-05
0.000300092
9.58732e-06
9.47183e-06
9.46715e-06
0.000140651
2.38303e-05
1.25888e-09
6.11093e-10
6.94366e-11
4.31753e-12
1.58942e-13
3.92403e-15
7.06144e-17
2.74425e-20
3.01651e-16
1.84737e-13
4.09499e-13
7.78721e-13
2.18043e-11
6.79308e-11
4.25963e-11
2.20324e-11
1.7794e-11
4.06732e-12
5.18861e-11
5.43084e-07
0.000108516
6.51996e-06
6.84344e-07
0.000314318
0.000314358
0.000290174
9.70712e-06
9.57882e-06
9.19579e-05
7.99084e-05
2.98929e-09
5.96934e-10
1.84684e-10
1.53348e-11
6.78165e-13
1.75133e-14
2.83479e-16
6.47437e-22
1.10498e-17
9.56731e-15
3.19121e-14
1.19332e-13
3.78845e-12
1.64286e-11
6.6894e-12
3.55623e-12
3.46059e-12
8.11568e-13
6.02524e-11
5.09783e-06
0.000111499
3.37666e-07
3.02497e-06
0.000232503
0.000314299
3.59242e-05
3.23141e-05
0.000209523
0.000270138
8.52879e-08
1.45847e-09
1.03142e-09
2.1375e-10
2.09825e-11
1.02945e-12
2.69037e-14
3.87853e-16
1.09748e-23
2.53361e-19
2.76777e-16
1.67826e-15
1.22264e-14
3.96242e-13
1.79056e-12
6.03428e-13
4.18862e-13
4.51445e-13
1.0958e-13
9.1509e-11
3.591e-08
0.000143152
2.89905e-07
7.33246e-07
4.26689e-06
5.8486e-06
0.000154721
0.000527445
0.000527445
3.18113e-05
5.63144e-06
7.1444e-10
5.23417e-10
1.03653e-10
9.12601e-12
4.07543e-13
9.57566e-15
1.13622e-16
1.42137e-25
3.96165e-21
4.74827e-18
6.29001e-17
7.90384e-16
2.23957e-14
9.39863e-14
3.40596e-14
3.37082e-14
3.74632e-14
1.9812e-14
3.59637e-11
2.28192e-09
7.84935e-05
0.000103368
3.06705e-05
3.66908e-07
0.000336371
0.000501475
0.000234241
3.86023e-06
6.29895e-06
8.69324e-11
1.98048e-10
5.69621e-11
7.6218e-12
5.29328e-13
1.97435e-14
3.85591e-16
3.42955e-18
1.35029e-27
4.66255e-23
5.42212e-20
1.70473e-18
3.09402e-17
6.63376e-16
2.52831e-15
1.29156e-15
1.72041e-15
1.88812e-15
7.07793e-16
1.71135e-12
4.68057e-11
1.52905e-07
4.25432e-06
7.97526e-06
2.7359e-07
0.000446462
-5.74681e-09
5.22716e-11
3.24018e-11
3.3723e-11
2.72603e-11
6.01472e-12
7.9271e-13
6.34465e-14
3.02629e-15
8.21988e-17
1.1407e-18
6.31075e-21
8.55591e-30
4.18486e-25
4.70825e-22
3.17888e-20
7.12353e-19
1.05845e-17
3.83082e-17
3.25147e-17
5.19696e-17
5.47395e-17
1.36223e-17
2.96008e-15
1.77624e-12
1.55505e-10
1.58745e-10
1.13754e-10
3.94047e-11
2.51864e-12
1.74006e-11
5.52655e-11
1.46488e-11
2.50232e-12
3.00449e-13
2.52139e-14
1.4481e-15
5.5154e-17
1.32489e-18
1.85404e-20
1.31541e-22
3.53119e-25
3.37252e-32
2.63676e-27
3.18677e-24
3.79306e-22
9.47947e-21
9.73954e-20
3.66826e-19
5.0281e-19
8.80714e-19
8.66302e-19
1.94813e-19
9.40979e-20
1.54824e-16
1.1286e-13
1.09838e-11
3.44424e-12
1.47697e-11
4.38234e-12
1.76954e-13
6.00342e-15
2.52285e-16
1.05749e-17
3.69061e-19
9.90065e-21
1.9284e-22
2.58337e-24
2.22334e-26
1.1102e-28
2.70793e-31
2.27864e-34
8.0107e-35
1.07442e-29
1.53206e-26
2.74753e-24
7.25604e-23
5.71618e-22
2.35745e-21
4.45303e-21
8.06219e-21
7.12526e-21
1.38576e-21
7.68085e-23
2.92128e-24
2.00931e-21
3.86233e-17
1.97416e-27
2.01798e-28
2.5097e-29
3.03056e-30
3.29017e-31
3.13375e-32
2.50235e-33
1.6073e-34
7.97973e-36
2.9438e-37
7.72004e-39
1.35353e-40
1.44771e-42
8.05822e-45
1.72344e-47
1.13443e-37
2.73248e-32
4.82324e-29
1.18317e-26
3.22922e-25
2.19617e-24
9.87526e-24
2.18037e-23
3.88462e-23
2.91267e-23
4.4427e-24
1.84892e-25
3.96863e-27
6.01949e-29
8.64735e-31
1.67964e-32
5.33291e-34
2.44217e-35
1.25728e-36
6.29695e-38
2.85201e-39
1.11014e-40
3.54705e-42
8.93828e-44
1.69907e-45
2.31497e-47
2.11058e-49
1.16174e-51
3.26313e-54
3.27593e-57
9.51912e-41
4.33488e-35
9.70894e-32
3.0503e-29
8.57031e-28
5.55956e-27
2.54647e-26
5.86954e-26
9.70346e-26
5.67195e-26
5.9417e-27
1.60208e-28
2.09382e-30
1.91368e-32
1.62858e-34
1.71237e-36
2.48888e-38
4.62354e-40
9.80086e-42
2.14001e-43
4.26895e-45
7.36324e-47
1.04978e-48
1.18886e-50
1.02068e-52
6.30057e-55
2.59708e-57
6.41157e-60
7.98112e-63
3.18341e-66
4.62565e-44
4.38178e-38
1.27525e-34
4.87345e-32
1.41132e-30
9.12613e-30
3.96235e-29
8.84833e-29
1.26128e-28
5.10958e-29
3.08501e-30
4.52516e-32
3.12999e-34
1.52831e-36
6.95137e-39
3.67834e-41
2.44441e-43
1.9479e-45
1.69957e-47
1.51191e-49
1.27538e-51
9.44598e-54
5.82985e-56
2.86717e-58
1.07097e-60
2.87218e-63
5.11223e-66
5.43833e-69
2.79825e-72
4.11691e-76
1.19879e-47
2.9167e-41
1.14993e-37
5.13413e-35
1.52362e-33
9.77721e-33
3.87163e-32
7.80639e-32
8.8653e-32
2.12233e-32
5.80328e-34
3.5806e-36
1.01527e-38
2.04151e-41
3.79462e-44
7.8363e-47
1.91787e-49
5.39218e-52
1.62275e-54
4.86947e-57
1.37791e-59
3.45889e-62
7.33819e-65
1.24854e-67
1.61923e-70
1.50966e-73
9.38397e-77
3.44605e-80
5.90956e-84
2.58343e-88
1.46355e-51
1.33121e-44
7.70526e-41
3.90343e-38
1.17284e-36
7.2667e-36
2.51476e-35
4.34646e-35
3.65465e-35
4.17975e-36
3.34107e-38
4.96843e-41
2.85844e-44
1.11032e-47
3.92357e-51
1.49149e-54
6.43407e-58
3.07804e-61
1.55045e-64
7.71827e-68
3.61048e-71
1.51843e-74
5.45245e-78
1.60027e-81
3.66025e-85
6.16093e-89
7.02188e-93
4.74329e-97
1.46814e-101
1.03532e-106
2.20597e-09
1.96024e-09
2.70271e-09
3.38366e-09
2.79052e-09
1.63789e-09
8.13777e-10
3.97286e-10
2.08932e-10
9.39327e-11
2.98916e-11
6.89239e-12
5.68999e-12
8.70117e-12
1.06353e-10
0.034495
1
1
1
1
0.999999
0.999998
1
1
1
1
1
1
0.841142
0.426308
8.58802e-10
8.68899e-10
1.21453e-09
1.98867e-09
1.49825e-09
7.2614e-10
3.24561e-10
1.47439e-10
6.65765e-11
2.47995e-11
6.60672e-12
1.83228e-12
4.85034e-12
1.85794e-11
5.1283e-07
0.0126124
1
1
1
1
1
0.999994
1
1
1
1
0.624556
0.0368904
7.97465e-06
5.05912e-10
2.61706e-10
3.04872e-10
4.53876e-10
5.79899e-10
4.13993e-10
2.11228e-10
9.26061e-11
3.81862e-11
1.46191e-11
4.49001e-12
1.07765e-12
9.85716e-13
5.15838e-12
7.27096e-11
7.25489e-08
1.6193e-05
0.998401
1
1
1
1
0.999992
1
1
1
0.70186
0.122766
4.79606e-05
4.3237e-08
6.6452e-11
6.04527e-11
7.65046e-11
1.1358e-10
1.27271e-10
8.69187e-11
4.31753e-11
1.781e-11
6.54827e-12
2.10892e-12
5.42633e-13
2.41545e-13
1.16942e-12
6.34578e-12
6.96148e-11
1.82822e-06
2.9359e-05
0.963708
1
1
1
1
0.999998
1
0.99869
0.985632
0.483346
0.0173893
0.00130933
8.83915e-06
9.04844e-11
9.28083e-12
1.23081e-11
1.78366e-11
1.83195e-11
1.19543e-11
5.67145e-12
2.16329e-12
6.9982e-13
1.89291e-13
5.92614e-14
2.45455e-13
1.77536e-12
8.59432e-12
2.01677e-08
0.000246254
0.000168146
0.859764
1
1
1
0.999999
1
0.999686
0.999965
0.930866
0.275085
0.000105769
0.000752541
3.11927e-05
1.01729e-10
8.65907e-13
1.17702e-12
1.65644e-12
1.59817e-12
9.95035e-13
4.45417e-13
1.54902e-13
4.35594e-14
1.18677e-14
4.03446e-14
4.20527e-13
2.8039e-12
1.21013e-11
2.82537e-10
0.000187171
4.15096e-07
0.536461
0.999935
1
1
0.999926
0.999997
0.999902
0.999978
0.731726
0.000383114
1.72788e-05
0.000555701
8.42294e-05
1.71698e-10
4.49139e-14
6.18104e-14
8.45925e-14
7.77091e-14
4.60301e-14
1.91987e-14
5.98658e-15
1.60583e-15
4.7359e-15
7.26485e-14
7.03662e-13
4.22081e-12
1.671e-11
2.71393e-11
1.09196e-08
1.95921e-07
0.169927
0.999996
1
1.00001
0.992472
0.999839
0.999998
0.941346
0.0797645
2.69304e-05
1.4834e-05
5.25769e-05
0.000126738
1.25125e-10
1.1655e-15
1.61521e-15
2.15735e-15
1.89761e-15
1.06143e-15
4.05115e-16
1.20596e-16
3.8786e-16
8.60292e-15
1.26112e-13
1.09906e-12
5.91237e-12
2.17027e-11
2.89165e-11
3.32436e-07
5.68132e-08
0.0581399
0.998861
1
0.999972
0.0309867
0.972556
0.999996
0.411426
7.21872e-05
2.04214e-06
7.68078e-05
2.32171e-05
7.41642e-06
4.33717e-11
1.30104e-17
1.81614e-17
2.37613e-17
1.99785e-17
1.03766e-17
3.95885e-18
2.20471e-17
7.17535e-16
1.67429e-14
2.42865e-13
1.88504e-12
8.43351e-12
2.67118e-11
3.15559e-11
4.79816e-07
-5.33365e-07
0.00121437
0.919453
0.999998
0.504124
0.000489558
0.227391
0.714987
9.25888e-05
1.83624e-06
1.44237e-06
2.49998e-05
5.90768e-05
1.4194e-09
3.97479e-11
4.84818e-20
6.86462e-20
8.81998e-20
7.00468e-20
4.61318e-20
8.98371e-19
4.673e-17
2.0549e-15
6.55074e-14
9.2045e-13
5.25129e-12
1.60634e-11
3.58399e-11
1.1539e-10
4.09576e-07
2.02291e-07
0.000510858
0.47053
0.999868
0.0669482
-2.25207e-06
4.54155e-06
3.37291e-06
2.35832e-06
6.31889e-06
5.9207e-06
3.79918e-05
2.4026e-06
2.10296e-10
3.87115e-11
3.40673e-23
5.01362e-23
6.46471e-23
2.96557e-22
2.95755e-20
3.10379e-18
2.88252e-16
1.8516e-14
5.91818e-13
5.56209e-12
2.18869e-11
5.62483e-11
7.17194e-11
1.60653e-10
4.45529e-10
-2.30742e-08
0.000125332
0.0186354
0.800047
1.83131e-05
1.31094e-06
1.95747e-07
1.94406e-05
2.48239e-06
9.77544e-06
2.24155e-05
8.98362e-05
7.78503e-07
8.41218e-10
1.6141e-10
9.77718e-25
5.88014e-26
2.03803e-24
8.33326e-22
2.19542e-19
3.67757e-17
3.75917e-15
2.12715e-13
5.12539e-12
2.94279e-11
8.56068e-11
3.23118e-10
3.13674e-10
2.10091e-10
8.46945e-10
8.55189e-10
0.000311995
1.77789e-07
5.08957e-16
1.05995e-08
1.45919e-07
1.80196e-07
8.23334e-08
1.34971e-08
1.67282e-06
4.88142e-06
0.000391194
3.4842e-09
1.20147e-08
8.05558e-11
3.41409e-23
1.40443e-24
8.91722e-24
9.19221e-21
3.05387e-18
4.94909e-16
4.29403e-14
1.90313e-12
3.28854e-11
1.15885e-10
1.74772e-10
3.93762e-10
5.66771e-10
4.09135e-10
6.15154e-10
8.79172e-05
1.24614e-05
3.07698e-06
6.44349e-06
3.88686e-08
1.76975e-06
1.07371e-07
1.41424e-07
2.04244e-09
4.36075e-10
3.07452e-05
8.19532e-05
5.8794e-09
6.7276e-08
2.51539e-11
7.97555e-22
2.28716e-23
9.48966e-23
1.16013e-19
3.72502e-17
5.32723e-15
3.75846e-13
1.25423e-11
1.52805e-10
3.26583e-10
2.97377e-10
1.4921e-09
7.69386e-09
4.51914e-10
6.15127e-10
9.83849e-05
1.47926e-05
3.65379e-06
6.30907e-06
2.39284e-10
5.3546e-07
6.50047e-10
8.90615e-10
2.13777e-09
3.6585e-10
1.01818e-05
9.81776e-05
3.60085e-06
5.12362e-10
3.32103e-12
1.29899e-20
2.49023e-22
1.00748e-21
1.25023e-18
3.68245e-16
4.54128e-14
2.54105e-12
6.1269e-11
5.06731e-10
5.53578e-10
1.99886e-09
0.000147743
0.000239572
2.01758e-05
1.05806e-09
1.29422e-05
0.000807535
1.24221e-07
1.40768e-10
2.01409e-10
8.28894e-08
3.36382e-10
7.15388e-10
3.17206e-10
3.43203e-10
1.71339e-09
0.000201139
2.9359e-09
1.25379e-10
4.39389e-13
1.39687e-19
1.72777e-21
9.50709e-21
1.15557e-17
3.02593e-15
3.14085e-13
1.35632e-11
2.27011e-10
7.27858e-10
9.55173e-10
2.21891e-06
2.07029e-06
0.000229458
0.000241987
3.08404e-07
3.94103e-07
0.000810281
4.68593e-06
1.12147e-10
7.29672e-11
8.13124e-11
6.97123e-10
3.08895e-10
1.79473e-10
6.45266e-11
8.8331e-10
2.22394e-08
1.74846e-10
1.95687e-11
4.85218e-14
8.86429e-19
6.75171e-21
8.3444e-20
9.57647e-17
2.16567e-14
1.82297e-12
5.9039e-11
5.82846e-10
3.25314e-09
3.00263e-08
1.78964e-06
2.16925e-06
2.18585e-06
0.000238391
6.0804e-06
8.21169e-07
0.000662286
0.000301772
3.12528e-08
1.08379e-11
5.16047e-11
1.30051e-10
1.04758e-10
6.38777e-11
1.05081e-11
1.04876e-10
1.91428e-10
1.14152e-10
2.53164e-12
5.14718e-15
2.67184e-18
1.15876e-20
7.63655e-19
7.74392e-16
1.46702e-13
9.50561e-12
2.24651e-10
8.13025e-10
7.19755e-06
1.98237e-05
1.76848e-06
5.96158e-05
6.25561e-05
0.000239021
3.57612e-05
1.02258e-06
3.79049e-06
0.000114131
5.20172e-10
1.31095e-11
1.44025e-11
3.56269e-11
2.04485e-11
1.24684e-11
1.61114e-12
1.85948e-11
1.32378e-10
3.01506e-11
2.73568e-13
4.26028e-16
2.66113e-18
5.6765e-21
9.31527e-18
6.51566e-15
7.866e-13
3.33611e-11
7.26716e-10
2.49822e-09
3.1924e-05
3.05212e-05
2.57705e-06
1.94856e-05
0.000238806
0.000239021
0.000188814
9.00881e-07
1.73764e-05
0.00010723
-7.12646e-10
3.16622e-11
2.82971e-12
6.3438e-12
2.96096e-12
1.46697e-12
1.78434e-13
3.2429e-12
3.57623e-11
5.0401e-12
2.05753e-14
2.35533e-17
5.06754e-19
1.45467e-20
4.77758e-17
1.26069e-14
1.01309e-12
3.36172e-11
5.10371e-10
1.0764e-09
1.18341e-05
2.35322e-05
0.00027129
0.000443375
3.51783e-05
3.22586e-05
6.24623e-07
4.901e-07
2.04399e-05
6.99968e-05
9.50493e-10
3.07733e-11
3.64313e-13
7.44959e-13
3.17884e-13
1.12309e-13
1.18862e-14
2.74888e-13
6.00803e-12
4.3477e-13
9.59084e-16
8.06455e-19
7.81374e-21
1.93542e-20
1.39096e-17
2.30409e-15
1.50781e-13
4.85125e-12
8.43931e-11
7.57392e-10
2.48477e-10
1.71355e-05
3.35031e-05
0.000449596
0.00044106
8.58148e-05
9.9919e-06
3.3392e-05
0.00015179
1.23892e-06
-3.55834e-11
3.50868e-12
2.94965e-14
5.64164e-14
2.24995e-14
5.88349e-15
5.20849e-16
1.11163e-14
4.60238e-13
1.92728e-14
2.64451e-17
1.64802e-20
7.37381e-24
6.53842e-22
2.74823e-19
3.73576e-17
2.22253e-15
6.69279e-14
1.10132e-12
1.05584e-11
6.61086e-11
2.9056e-10
2.58646e-07
3.87571e-07
4.15596e-08
0.000454667
0.000492274
6.76845e-07
5.54677e-08
1.13939e-09
3.057e-11
9.54973e-14
1.42072e-15
2.59845e-15
9.99892e-16
2.1175e-16
1.64204e-17
2.22515e-16
1.55558e-14
4.50049e-16
4.234e-19
1.96576e-22
5.91186e-28
6.09784e-25
2.60133e-22
4.49182e-20
3.84349e-18
1.83729e-16
5.27316e-15
9.50631e-14
1.11515e-12
8.8792e-12
5.62428e-11
1.23001e-10
8.99399e-12
9.0258e-12
2.13188e-10
1.58084e-05
2.13099e-10
5.18898e-11
6.52185e-13
9.44216e-16
3.83672e-17
6.97904e-17
2.63866e-17
5.01257e-18
3.78528e-19
2.31479e-18
2.44385e-16
5.61661e-18
3.8936e-21
1.34813e-24
3.28885e-34
4.9644e-31
2.96582e-28
8.25562e-26
1.23242e-23
1.08615e-21
6.03315e-20
2.21257e-18
5.57382e-17
1.00376e-15
1.36547e-14
1.52625e-13
1.75059e-12
1.96589e-11
3.80054e-11
4.09283e-11
3.5298e-11
5.53917e-14
1.36893e-16
1.82519e-19
5.48682e-19
1.04991e-18
3.9995e-19
7.35047e-20
6.04732e-21
1.35242e-20
1.87096e-18
3.77206e-20
2.04536e-23
5.26953e-27
1.08079e-49
1.13137e-46
4.28163e-44
7.24941e-42
6.63835e-40
3.70238e-38
1.35858e-36
3.45704e-35
6.35349e-34
8.72599e-33
9.28838e-32
7.99549e-31
5.91935e-30
3.99963e-29
2.53452e-28
1.79778e-27
1.83153e-26
3.79671e-25
1.35301e-23
3.69526e-22
3.92531e-21
8.49664e-21
3.40176e-21
6.37613e-22
6.22778e-23
5.18509e-23
7.20304e-21
1.3704e-22
6.13644e-26
1.16966e-29
2.93614e-59
4.93282e-56
3.1359e-53
9.42753e-51
1.59306e-48
1.69257e-46
1.21958e-44
6.28793e-43
2.42217e-41
7.23616e-40
1.7457e-38
3.5628e-37
6.70881e-36
1.28852e-34
2.76929e-33
8.7031e-32
4.94115e-30
3.85409e-28
2.45431e-26
9.38701e-25
1.32169e-23
3.56607e-23
1.59668e-23
3.18969e-24
3.91208e-25
1.64021e-25
1.42614e-23
2.72373e-25
1.06011e-28
1.48039e-32
6.42219e-68
1.96407e-64
2.37126e-61
1.40389e-58
4.78257e-56
1.04153e-53
1.55917e-51
1.69116e-49
1.38802e-47
8.95126e-46
4.72144e-44
2.16609e-42
9.50466e-41
4.20955e-39
2.09839e-37
1.37879e-35
1.32734e-33
1.56661e-31
1.55209e-29
9.25561e-28
1.9764e-26
7.55996e-26
4.09924e-26
9.11582e-27
1.45029e-27
4.45866e-28
1.48687e-26
3.02678e-28
1.07598e-31
1.08534e-35
1.18611e-77
7.33309e-74
1.83395e-70
2.2975e-67
1.68111e-64
7.95746e-62
2.6184e-59
6.31699e-57
1.16814e-54
1.72174e-52
2.13156e-50
2.38058e-48
2.51909e-46
2.67371e-44
3.13045e-42
4.47274e-40
8.21479e-38
1.71088e-35
3.04344e-33
3.28937e-31
1.25213e-29
8.0283e-29
5.82289e-29
1.50049e-29
3.1547e-30
8.78964e-31
8.56689e-30
1.96174e-31
6.70029e-35
4.79149e-39
8.52001e-90
1.35953e-85
8.94666e-82
2.99934e-78
5.95032e-75
7.72395e-72
7.04465e-69
4.75934e-66
2.49371e-63
1.06487e-60
3.9339e-58
1.2968e-55
4.01821e-53
1.23932e-50
4.12238e-48
1.58925e-45
7.28297e-43
3.58357e-40
1.5006e-37
3.80934e-35
3.28158e-33
4.36989e-32
4.77496e-32
1.48824e-32
4.12859e-33
1.14972e-33
3.08993e-33
8.0324e-35
2.78649e-38
1.36574e-42
2.4423e-108
1.99677e-103
6.5894e-99
1.11527e-94
1.14103e-90
7.85711e-87
3.9132e-83
1.48853e-79
4.57411e-76
1.18532e-72
2.63212e-69
5.23878e-66
9.70906e-63
1.77769e-59
3.42467e-56
7.34147e-53
1.77866e-49
4.47877e-46
9.36939e-43
1.06737e-39
3.38871e-37
1.31033e-35
2.42372e-35
9.59457e-36
3.46703e-36
1.02969e-36
9.31978e-37
2.4255e-38
8.98232e-42
2.70597e-46
1
1
1
1
1
1
1
1
1
1
1
1
1
1
1
1
1
1
1
1
1
1
1
1
1
1
1
1
1
1
1
1
1
1
1
1
1
1
1
1
1
1
1
1
1
1
1
1
1
1
1
1
1
1
1
1
1
1
1
1
1
1
1
1
1
1
1
1
1
1
1
1
1
1
1
1
1
1
1
1
1
1
1
1
1
1
1
1
1
1
1
1
1
1
1
1
1
1
1
1
1
1
1
1
1
1
1
1
1
1
1
1
1
1
1
1
1
1
1
1
1
1
1
1
1
1
1
1
1
1
1
1
1
1
1
1
1
1
1
1
1
1
1
1
1
1
1
1
1
1
1
1
1
1
1
1
1
1
1
1
1
1
1
1
1
1
1
1
1
1
1
1
1
1
1
1
1
1
1
1
1
1
1
1
1
1
1
1
1
1
1
1
1
1
1
1
1
1
1
1
1
1
1
1
1
1
1
1
1
1
1
1
1
1
1
1
1
1
1
1
1
1
1
1
1
1
1
1
1
1
1
1
1
1
1
1
1
1
1
1
1
1
1
1
1
1
1
1
1
1
1
1
1
1
1
1
1
1
1
1
1
1
1
1
1
1
1
1
1
1
1
1
1
1
1
1
1
1
1
1
1
1
1
1
1
1
1
1
1
1
1
1
1
1
1
1
1
1
1
1
1
1
1
1
1
1
1
1
1
1
1
1
1
1
1
1
1
1
1
1
1
1
1
1
1
1
1
1
1
1
1
1
1
1
1
1
1
1
1
1
1
1
1
1
1
1
1
1
1
1
1
1
1
1
1
1
1
1
1
1
1
1
1
1
1
1
1
1
1
1
1
1
1
1
1
1
1
1
1
1
1
1
1
1
1
1
1
1
1
1
1
1
1
1
1
1
1
1
1
1
1
1
1
1
1
1
1
1
1
1
1
1
1
1
1
1
1
1
1
1
1
1
1
1
1
1
1
1
1
1
1
1
1
1
1
1
1
1
1
1
1
1
1
1
1
1
1
1
1
1
1
1
1
1
1
1
1
1
1
1
1
1
1
1
1
1
1
1
1
1
1
1
1
1
1
1
1
1
1
1
1
1
1
1
1
1
1
1
1
1
1
1
1
1
1
1
1
1
1
1
1
1
1
1
1
1
1
1
1
1
1
1
1
1
1
1
1
1
1
1
1
1
1
1
1
1
1
1
1
0.979562
0.548889
0.237739
0.183258
0.21717
0.248414
0.283898
0.32347
0.35669
0.365617
0.366149
1
1
1
1
1
1
1
1
1
1
1
1
1
1
1
1
1
0.999173
0.966396
0.00217753
0.0007998
0.000108605
0.00012872
0.000204755
0.000364479
0.000503365
0.000689316
0.000987338
0.00155901
0.00211551
1
1
1
1
1
1
1
1
1
1
1
1
1
1
1
1
1
0.998629
0.0202596
0.000117441
1.3321e-05
1.19999e-06
2.04492e-06
4.38611e-06
8.44221e-06
1.39628e-05
2.43297e-05
4.80401e-05
0.000108074
0.000176488
1
1
1
1
1
1
1
1
1
1
1
1
1
1
1
1
0.984472
0.230614
0.000113146
3.79624e-06
1.23925e-07
1.70788e-08