/*--------------------------------*- C++ -*----------------------------------*\
| =========                 |                                                 |
| \\      /  F ield         | OpenFOAM: The Open Source CFD Toolbox           |
|  \\    /   O peration     | Version:  2.4.0                                 |
|   \\  /    A nd           | Web:      www.OpenFOAM.org                      |
|    \\/     M anipulation  |                                                 |
\*---------------------------------------------------------------------------*/
FoamFile
{
    version     2.0;
    format      ascii;
    class       volVectorField;
    location    "0.05";
    object      U;
}
// * * * * * * * * * * * * * * * * * * * * * * * * * * * * * * * * * * * * * //

dimensions      [0 1 -1 0 0 0 0];

internalField   nonuniform List<vector> 
14400
(
(-0.000491458 7.54184e-05 0)
(-0.00182909 1.69744e-05 0)
(-0.00324891 1.71825e-05 0)
(-0.0047327 2.24078e-05 0)
(-0.00656434 2.68411e-05 0)
(-0.00809406 1.16663e-05 0)
(-0.00815106 -3.28777e-05 0)
(-0.00564786 -0.000104485 0)
(-0.000232362 -0.00018424 0)
(0.00755175 -0.000250178 0)
(0.0165671 -0.000292489 0)
(0.0256562 -0.000302933 0)
(0.0340251 -0.000287759 0)
(0.0411531 -0.000246818 0)
(0.04666 -0.000178666 0)
(0.0502942 -8.43308e-05 0)
(0.0519583 3.11728e-05 0)
(0.0517208 0.000153735 0)
(0.0497723 0.000272292 0)
(0.0464363 0.00038713 0)
(0.0420966 0.000480254 0)
(0.0371473 0.000544422 0)
(0.0319488 0.000582495 0)
(0.0267744 0.000598249 0)
(0.0218119 0.000599721 0)
(0.0171683 0.000593031 0)
(0.0128905 0.000583172 0)
(0.00898878 0.000573687 0)
(0.00544994 0.000566067 0)
(0.00224925 0.000561483 0)
(-0.000552356 0.000223257 0)
(-0.0030525 0.00016907 0)
(-0.00561285 0.000197785 0)
(-0.00856713 0.000269175 0)
(-0.0122714 0.000331714 0)
(-0.0158308 0.000238431 0)
(-0.0174851 -0.000114516 0)
(-0.0154789 -0.000723513 0)
(-0.0090937 -0.00145029 0)
(0.000983166 -0.00208471 0)
(0.0131197 -0.00252709 0)
(0.0256683 -0.00272466 0)
(0.0375518 -0.00272734 0)
(0.048115 -0.00253614 0)
(0.0568851 -0.00213969 0)
(0.0635076 -0.00154183 0)
(0.0677741 -0.000751295 0)
(0.0696184 0.000182593 0)
(0.0691316 0.00121232 0)
(0.0665244 0.00226533 0)
(0.0621438 0.00327471 0)
(0.0564114 0.00417214 0)
(0.049785 0.0049222 0)
(0.0426747 0.0055131 0)
(0.0354287 0.00595738 0)
(0.0283101 0.00627699 0)
(0.0214975 0.00649611 0)
(0.0151064 0.00663807 0)
(0.00919877 0.00672128 0)
(0.00379898 0.00676047 0)
(-0.00055434 0.000375863 0)
(-0.00315829 0.000346653 0)
(-0.00583512 0.000416255 0)
(-0.0089612 0.00057504 0)
(-0.0129454 0.000724287 0)
(-0.0169125 0.000580702 0)
(-0.0190929 -6.77663e-05 0)
(-0.0176792 -0.00121963 0)
(-0.0118955 -0.00261079 0)
(-0.00241337 -0.00384737 0)
(0.00910945 -0.00466995 0)
(0.0210344 -0.00506451 0)
(0.0323514 -0.00511432 0)
(0.0424894 -0.00482951 0)
(0.051025 -0.00418469 0)
(0.0576075 -0.00316952 0)
(0.0619949 -0.00179808 0)
(0.0640832 -0.000125829 0)
(0.0639291 0.00175664 0)
(0.061698 0.00373989 0)
(0.0577272 0.00567844 0)
(0.0524362 0.00744723 0)
(0.0462802 0.0089624 0)
(0.0396638 0.0101933 0)
(0.0329214 0.0111476 0)
(0.0263002 0.011855 0)
(0.019968 0.0123558 0)
(0.0140304 0.0126881 0)
(0.00854424 0.0128873 0)
(0.00352993 0.0129835 0)
(-0.000549792 0.000528085 0)
(-0.00316259 0.000525849 0)
(-0.00584338 0.000637757 0)
(-0.00897029 0.000887264 0)
(-0.012997 0.00112971 0)
(-0.0170553 0.000944758 0)
(-0.0193697 9.34293e-06 0)
(-0.0180915 -0.00168256 0)
(-0.0123972 -0.00374006 0)
(-0.00293433 -0.00557779 0)
(0.00859717 -0.00677954 0)
(0.0205337 -0.0073684 0)
(0.0318735 -0.0074729 0)
(0.0420737 -0.0071112 0)
(0.050721 -0.00623932 0)
(0.0574549 -0.00482645 0)
(0.062011 -0.00288811 0)
(0.0642699 -0.000494658 0)
(0.0642581 0.00223963 0)
(0.0621173 0.00515489 0)
(0.0581683 0.00802796 0)
(0.0528379 0.0106635 0)
(0.0466068 0.0129283 0)
(0.0399038 0.0147752 0)
(0.0330845 0.0162107 0)
(0.0264037 0.0172788 0)
(0.0200298 0.0180363 0)
(0.0140656 0.0185403 0)
(0.00856254 0.0188433 0)
(0.00353677 0.0189893 0)
(-0.000543222 0.00067949 0)
(-0.00315825 0.000704546 0)
(-0.00583198 0.00085877 0)
(-0.00893874 0.00120011 0)
(-0.0129906 0.00153983 0)
(-0.0171251 0.00131919 0)
(-0.0195603 0.000100621 0)
(-0.0183962 -0.00213462 0)
(-0.0127499 -0.0048688 0)
(-0.0032338 -0.00731511 0)
(0.00839926 -0.00890519 0)
(0.0204382 -0.00968776 0)
(0.0318828 -0.00985355 0)
(0.0422199 -0.00942584 0)
(0.0510515 -0.0083414 0)
(0.0580108 -0.00654204 0)
(0.0628213 -0.00404639 0)
(0.0653473 -0.000936188 0)
(0.0655812 0.00266496 0)
(0.0636265 0.00653502 0)
(0.0597545 0.0103855 0)
(0.0543902 0.0139291 0)
(0.0480348 0.016982 0)
(0.0411513 0.0194673 0)
(0.0341265 0.0213956 0)
(0.0272365 0.022828 0)
(0.0206611 0.0238427 0)
(0.0145081 0.024518 0)
(0.00883118 0.0249233 0)
(0.00364715 0.0251185 0)
(-0.000534801 0.00082976 0)
(-0.00315207 0.000882397 0)
(-0.00581623 0.00107898 0)
(-0.00889479 0.00151345 0)
(-0.0129766 0.00195502 0)
(-0.0172055 0.00170586 0)
(-0.0197929 0.000208454 0)
(-0.0187733 -0.0025741 0)
(-0.0131877 -0.0059984 0)
(-0.00360055 -0.00906897 0)
(0.00816876 -0.0110542 0)
(0.0203374 -0.0120311 0)
(0.0319116 -0.0122627 0)
(0.0424191 -0.0117838 0)
(0.0514778 -0.0105033 0)
(0.058725 -0.008342 0)
(0.0638628 -0.00530886 0)
(0.0667379 -0.0014879 0)
(0.0673098 0.00297598 0)
(0.0656197 0.00784057 0)
(0.0618713 0.012726 0)
(0.0564785 0.0172471 0)
(0.0499685 0.0211463 0)
(0.0428492 0.024316 0)
(0.0355513 0.026768 0)
(0.0283803 0.028582 0)
(0.0215323 0.0298655 0)
(0.0151214 0.0307192 0)
(0.00920442 0.0312324 0)
(0.00380049 0.03148 0)
(-0.000524425 0.000978673 0)
(-0.00314449 0.00105921 0)
(-0.00579713 0.00129818 0)
(-0.00883957 0.00182725 0)
(-0.012957 0.00237641 0)
(-0.0173004 0.00210766 0)
(-0.0200747 0.000337209 0)
(-0.019234 -0.00299739 0)
(-0.013726 -0.00712894 0)
(-0.00405067 -0.0108444 0)
(0.00788934 -0.0132297 0)
(0.0202128 -0.0143978 0)
(0.0319383 -0.0147064 0)
(0.0426462 -0.014194 0)
(0.0519767 -0.0127442 0)
(0.0595727 -0.0102498 0)
(0.0651113 -0.00669873 0)
(0.0684178 -0.00218204 0)
(0.0694254 0.0031431 0)
(0.0680928 0.00904274 0)
(0.0645205 0.0150399 0)
(0.0591005 0.0206268 0)
(0.0523969 0.025452 0)
(0.0449763 0.0293672 0)
(0.0373289 0.0323806 0)
(0.0298036 0.0345995 0)
(0.022615 0.0361654 0)
(0.0158837 0.0372075 0)
(0.00966835 0.0378357 0)
(0.00399077 0.0381414 0)
(-0.000511952 0.00112592 0)
(-0.00313551 0.00123474 0)
(-0.00577507 0.00151633 0)
(-0.00877222 0.00214175 0)
(-0.0129312 0.00280503 0)
(-0.017409 0.00252763 0)
(-0.0204059 0.000491409 0)
(-0.0197803 -0.00340104 0)
(-0.0143683 -0.00826039 0)
(-0.00458719 -0.0126466 0)
(0.00756096 -0.0154383 0)
(0.0200632 -0.0167966 0)
(0.0319581 -0.0171901 0)
(0.0428945 -0.0166663 0)
(0.0525411 -0.0150775 0)
(0.060545 -0.0122817 0)
(0.0665602 -0.00824287 0)
(0.0703763 -0.00306106 0)
(0.0719374 0.00311793 0)
(0.0710752 0.0100952 0)
(0.0677533 0.0173103 0)
(0.0623106 0.0240807 0)
(0.055367 0.0299364 0)
(0.0475671 0.0346751 0)
(0.0394794 0.0382964 0)
(0.0315171 0.040942 0)
(0.0239164 0.0428063 0)
(0.0168031 0.0440505 0)
(0.0102195 0.0448057 0)
(0.0042145 0.0451885 0)
(-0.000497214 0.00127126 0)
(-0.00312521 0.0014088 0)
(-0.00575063 0.0017334 0)
(-0.00869197 0.00245712 0)
(-0.0128981 0.00324186 0)
(-0.0175299 0.00296872 0)
(-0.0207864 0.000675589 0)
(-0.020414 -0.00378111 0)
(-0.0151192 -0.00939256 0)
(-0.00521331 -0.0144812 0)
(0.00718441 -0.0176863 0)
(0.0198884 -0.019228 0)
(0.0319682 -0.0197185 0)
(0.0431576 -0.0192085 0)
(0.0531607 -0.0175162 0)
(0.0616351 -0.0144592 0)
(0.0682007 -0.00997069 0)
(0.072602 -0.00415126 0)
(0.07485 0.00284573 0)
(0.07461 0.0109511 0)
(0.0716369 0.019517 0)
(0.0661799 0.0276239 0)
(0.0589447 0.0346445 0)
(0.0506679 0.0403086 0)
(0.042026 0.044589 0)
(0.0335308 0.0476776 0)
(0.0254277 0.0498765 0)
(0.0178848 0.0513397 0)
(0.010825 0.0522218 0)
(0.00443473 0.0527626 0)
(-0.000480024 0.00141436 0)
(-0.00311368 0.00158116 0)
(-0.00572435 0.00194954 0)
(-0.00859766 0.00277379 0)
(-0.0128567 0.00368775 0)
(-0.0176616 0.00343388 0)
(-0.021216 0.000894555 0)
(-0.021137 -0.00413348 0)
(-0.0159837 -0.0105252 0)
(-0.00593245 -0.0163545 0)
(0.00676027 -0.0199805 0)
(0.0196881 -0.0216958 0)
(0.0319634 -0.022294 0)
(0.0434277 -0.0218271 0)
(0.0538246 -0.0200729 0)
(0.0628329 -0.016808 0)
(0.070026 -0.0119217 0)
(0.07507 -0.00550231 0)
(0.0781642 0.00226199 0)
(0.0787442 0.0115322 0)
(0.076262 0.0216323 0)
(0.0708012 0.0312747 0)
(0.0632157 0.0396293 0)
(0.0543403 0.0463604 0)
(0.044983 0.0513471 0)
(0.0358409 0.0548741 0)
(0.0270883 0.0575147 0)
(0.0188076 0.0592497 0)
(0.0113688 0.0600954 0)
(0.00445696 0.0609583 0)
(-0.000460149 0.00155497 0)
(-0.00310102 0.00175159 0)
(-0.0056971 0.00216497 0)
(-0.00848811 0.00309218 0)
(-0.0128056 0.00414345 0)
(-0.0178025 0.00392601 0)
(-0.0216944 0.00115324 0)
(-0.0219514 -0.00445366 0)
(-0.0169682 -0.0116577 0)
(-0.00674899 -0.0182735 0)
(0.00629048 -0.0223252 0)
(0.0194622 -0.0242014 0)
(0.0319399 -0.0249214 0)
(0.0436954 -0.0245296 0)
(0.0545205 -0.0227619 0)
(0.0641274 -0.0193533 0)
(0.0720369 -0.0141484 0)
(0.0777414 -0.00716877 0)
(0.0818662 0.00128304 0)
(0.0835312 0.0117378 0)
(0.0817554 0.0236216 0)
(0.0762941 0.0350569 0)
(0.0682945 0.0449487 0)
(0.0586803 0.0529963 0)
(0.0483443 0.0586658 0)
(0.0383608 0.0626023 0)
(0.0290238 0.0654404 0)
(0.0184663 0.0677354 0)
(0.0117254 0.0686427 0)
(0.00438491 0.0695272 0)
(-0.000437361 0.00169273 0)
(-0.00308732 0.0019199 0)
(-0.00566987 0.00238019 0)
(-0.00836174 0.00341299 0)
(-0.0127434 0.00460967 0)
(-0.0179502 0.00444786 0)
(-0.0222213 0.00145679 0)
(-0.0228597 -0.00473683 0)
(-0.0180798 -0.0127894 0)
(-0.00766835 -0.0202463 0)
(0.00577718 -0.0247276 0)
(0.0192115 -0.0267439 0)
(0.0318909 -0.027603 0)
(0.0439517 -0.0273196 0)
(0.0552334 -0.025595 0)
(0.0655128 -0.0221313 0)
(0.0742498 -0.0167242 0)
(0.0805474 -0.00922526 0)
(0.0859303 -0.000187669 0)
(0.0890423 0.0113837 0)
(0.0882909 0.025457 0)
(0.082811 0.0389969 0)
(0.074325 0.0505643 0)
(0.0639251 0.0605687 0)
(0.052253 0.0666784 0)
(0.0412044 0.0710602 0)
(0.0318682 0.0730311 0)
(0.0234321 0.0760303 0)
(0.0152176 0.0781801 0)
(0.00650929 0.0784706 0)
(-0.000411342 0.00182734 0)
(-0.00307267 0.00208582 0)
(-0.00564383 0.00259588 0)
(-0.00821689 0.00373711 0)
(-0.0126685 0.00508691 0)
(-0.0181024 0.00500203 0)
(-0.0227965 0.0018105 0)
(-0.0238641 -0.0049783 0)
(-0.0193274 -0.013919 0)
(-0.00869711 -0.0222823 0)
(0.00522496 -0.0271964 0)
(0.018937 -0.0293244 0)
(0.0318113 -0.0303376 0)
(0.0441857 -0.0302013 0)
(0.0559465 -0.0285815 0)
(0.0669828 -0.0251775 0)
(0.076719 -0.0197692 0)
(0.0833796 -0.0117977 0)
(0.0902984 -0.00225276 0)
(0.0953872 0.010183 0)
(0.0961585 0.0271279 0)
(0.0905995 0.0432158 0)
(0.0813611 0.0561243 0)
(0.06988 0.0694377 0)
(0.0566151 0.0758661 0)
(0.0447913 0.0796109 0)
(0.0341636 0.0823976 0)
(0.022606 0.085126 0)
(0.0134654 0.0873457 0)
(0.00501633 0.0886527 0)
(-0.000381818 0.00195844 0)
(-0.00305721 0.00224914 0)
(-0.00562065 0.00281301 0)
(-0.00805137 0.00406566 0)
(-0.012579 0.00557556 0)
(-0.018256 0.0055907 0)
(-0.0234192 0.00221987 0)
(-0.0249672 -0.00517115 0)
(-0.0207209 -0.015045 0)
(-0.00984268 -0.0243924 0)
(0.00463974 -0.0297407 0)
(0.0186404 -0.0319407 0)
(0.0316934 -0.0331286 0)
(0.0443879 -0.0331785 0)
(0.0566403 -0.0317287 0)
(0.0685328 -0.028529 0)
(0.0795574 -0.0234345 0)
(0.086093 -0.0150252 0)
(0.0949112 -0.00499085 0)
(0.102993 0.00754972 0)
(0.106166 0.0286468 0)
(0.100885 0.0480894 0)
(0.090331 0.061886 0)
(0.074454 0.0786469 0)
(0.061435 0.086546 0)
(0.0476412 0.0886108 0)
(0.0417473 0.0888402 0)
(0.0375335 0.0955861 0)
(0.0231743 0.0991496 0)
(0.00937543 0.100455 0)
(-0.000348379 0.00208568 0)
(-0.00304101 0.00240957 0)
(-0.00560204 0.00303286 0)
(-0.00786277 0.0044002 0)
(-0.012473 0.00607579 0)
(-0.0184078 0.00621558 0)
(-0.0240894 0.0026904 0)
(-0.0261714 -0.00531072 0)
(-0.0222722 -0.0161649 0)
(-0.0111144 -0.0265892 0)
(0.00402877 -0.0323726 0)
(0.0183254 -0.0345866 0)
(0.0315288 -0.0359751 0)
(0.0445478 -0.0362523 0)
(0.0572924 -0.0350382 0)
(0.0701421 -0.0322052 0)
(0.0829541 -0.0278726 0)
(0.0886261 -0.018951 0)
(0.100101 -0.00845999 0)
(0.113766 0.00214089 0)
(0.117476 0.0298667 0)
(0.114509 0.0526426 0)
(0.101533 0.0686381 0)
(0.0932015 0.084196 0)
(0.0636304 0.101716 0)
(0.0498733 0.0938168 0)
(0.0405073 0.0931669 0)
(0.0299029 0.10518 0)
(0.0191682 0.115297 0)
(0.00847161 0.116363 0)
(-0.000310684 0.00220865 0)
(-0.00302434 0.0025669 0)
(-0.00559039 0.00325705 0)
(-0.00764822 0.00474256 0)
(-0.0123484 0.00658754 0)
(-0.0185534 0.00687756 0)
(-0.0248064 0.00322755 0)
(-0.0274785 -0.00539045 0)
(-0.0239952 -0.017276 0)
(-0.0125229 -0.0288881 0)
(0.00340309 -0.0351097 0)
(0.0179954 -0.0372527 0)
(0.0313079 -0.0388766 0)
(0.0446569 -0.039424 0)
(0.0578743 -0.038504 0)
(0.0717438 -0.0361737 0)
(0.0874289 -0.0332082 0)
(0.0912805 -0.0235888 0)
(0.110321 -0.0134163 0)
(0.131676 -0.00644128 0)
(0.139519 0.0282066 0)
(0.134001 0.0573165 0)
(0.114045 0.0808584 0)
(0.0853512 0.101505 0)
(0.0774776 0.109541 0)
(0.0645784 0.104553 0)
(0.0445702 0.106267 0)
(0.0263399 0.115209 0)
(0.0163155 0.124765 0)
(0.0069173 0.127451 0)
(-0.000268234 0.00232696 0)
(-0.00300719 0.00272078 0)
(-0.00558837 0.00348753 0)
(-0.0074045 0.00509502 0)
(-0.0122027 0.00711043 0)
(-0.0186881 0.00757651 0)
(-0.02557 0.00383658 0)
(-0.0288904 -0.00540365 0)
(-0.0259061 -0.0183741 0)
(-0.0140815 -0.0313076 0)
(0.00277684 -0.0379639 0)
(0.0176556 -0.0399242 0)
(0.0310206 -0.0418335 0)
(0.0447075 -0.0426926 0)
(0.0583508 -0.0421053 0)
(0.0731287 -0.0402577 0)
(0.0946951 -0.0391409 0)
(0.101318 -0.0318553 0)
(0.140665 -0.0174598 0)
(0.142598 -0.0137216 0)
(0.14672 0.0247732 0)
(0.118968 0.0726475 0)
(0.124407 0.0844331 0)
(0.112415 0.105096 0)
(0.104873 0.114011 0)
(0.0871719 0.118895 0)
(0.0616346 0.124841 0)
(0.0358485 0.12879 0)
(0.0190492 0.131769 0)
(0.00805441 0.135463 0)
(-0.000220582 0.00244013 0)
(-0.00298995 0.00287096 0)
(-0.0055991 0.00372653 0)
(-0.0071279 0.00546016 0)
(-0.0120331 0.00764383 0)
(-0.0188063 0.00831103 0)
(-0.0263802 0.00452218 0)
(-0.0304079 -0.00534225 0)
(-0.0280242 -0.0194533 0)
(-0.0158074 -0.0338702 0)
(0.00217054 -0.0409525 0)
(0.0173119 -0.0425781 0)
(0.0306517 -0.0448474 0)
(0.0447004 -0.0460617 0)
(0.0586846 -0.0458333 0)
(0.0733645 -0.0444796 0)
(0.0928656 -0.0397525 0)
(0.152806 -0.0658157 0)
(0.16411 -0.00591365 0)
(0.100022 0.000653825 0)
(0.143193 0.00919104 0)
(0.170034 0.052719 0)
(0.150289 0.0783996 0)
(0.139127 0.116959 0)
(0.130383 0.118577 0)
(0.111653 0.12629 0)
(0.0910761 0.142278 0)
(0.0644949 0.147848 0)
(0.0437688 0.146581 0)
(0.0213354 0.162636 0)
(-0.000167156 0.00254771 0)
(-0.00297269 0.00301707 0)
(-0.00562631 0.00397644 0)
(-0.00681426 0.00584071 0)
(-0.0118367 0.00818671 0)
(-0.0189008 0.00907767 0)
(-0.0272373 0.00528807 0)
(-0.0320309 -0.00520236 0)
(-0.0303719 -0.0205064 0)
(-0.0177217 -0.0366026 0)
(0.00161083 -0.0440951 0)
(0.0169733 -0.045183 0)
(0.0301845 -0.047919 0)
(0.0446357 -0.0495447 0)
(0.0589079 -0.0496842 0)
(0.0729678 -0.0512392 0)
(0.054741 -0.045161 0)
(0.194166 -0.0710059 0)
(0.135405 0.0248727 0)
(0.0852892 -0.0134334 0)
(0.353561 0.0686198 0)
(0.418545 0.0498396 0)
(0.420515 0.0802572 0)
(0.361469 0.141708 0)
(0.312878 0.167408 0)
(0.288294 0.163682 0)
(0.250832 0.182048 0)
(0.219415 0.193762 0)
(0.164266 0.220381 0)
(0.0602254 0.255778 0)
(-0.000107356 0.00264919 0)
(-0.0029558 0.00315874 0)
(-0.00567411 0.00423973 0)
(-0.00645903 0.00623932 0)
(-0.01161 0.00873761 0)
(-0.0189635 0.00987047 0)
(-0.0281424 0.00613673 0)
(-0.0337574 -0.00497671 0)
(-0.0329762 -0.0215232 0)
(-0.0198519 -0.0395371 0)
(0.00113293 -0.0474168 0)
(0.0166501 -0.0476923 0)
(0.029594 -0.0510583 0)
(0.0445304 -0.05315 0)
(0.0590076 -0.0534343 0)
(0.0789023 -0.0562793 0)
(0.146395 -0.0567296 0)
(0.046444 -0.0102208 0)
(0.0311846 -0.0285854 0)
(0.648509 -0.223258 0)
(0.599891 -0.056795 0)
(0.539019 0.070098 0)
(0.481627 0.132668 0)
(0.408267 0.169804 0)
(0.347983 0.186726 0)
(0.305075 0.198413 0)
(0.24925 0.218626 0)
(0.180667 0.250615 0)
(0.107406 0.312306 0)
(0.0389427 0.351792 0)
(-4.05193e-05 0.00274403 0)
(-0.00293958 0.00329555 0)
(-0.00574727 0.00451868 0)
(-0.00605718 0.00665821 0)
(-0.0113489 0.00929467 0)
(-0.0189842 0.0106803 0)
(-0.0290977 0.00706968 0)
(-0.0355826 -0.00466134 0)
(-0.0358692 -0.0224892 0)
(-0.0222329 -0.0427123 0)
(0.000783553 -0.0509534 0)
(0.0163544 -0.0500417 0)
(0.02885 -0.0542716 0)
(0.0443986 -0.0569129 0)
(0.0584806 -0.0571358 0)
(0.067239 -0.0580747 0)
(0.0990636 -0.0538139 0)
(-0.0824488 -0.00999273 0)
(0.390571 -0.283466 0)
(0.382233 -0.234974 0)
(0.38261 -0.0661258 0)
(0.361789 0.0985697 0)
(0.33655 0.169319 0)
(0.296388 0.205911 0)
(0.260197 0.217721 0)
(0.22347 0.242197 0)
(0.169722 0.27968 0)
(0.108357 0.321091 0)
(0.0579561 0.376387 0)
(0.0214676 0.411352 0)
(3.41196e-05 0.00283164 0)
(-0.00292428 0.00342695 0)
(-0.00585101 0.00481528 0)
(-0.00560325 0.00709887 0)
(-0.0110488 0.0098558 0)
(-0.0189506 0.0114947 0)
(-0.0301068 0.00808739 0)
(-0.0374982 -0.00424565 0)
(-0.0390888 -0.0233881 0)
(-0.0249095 -0.0461742 0)
(0.000624677 -0.0547493 0)
(0.0160994 -0.05213 0)
(0.0279064 -0.0575827 0)
(0.0442679 -0.0608983 0)
(0.0590434 -0.0605993 0)
(0.0864419 -0.0730386 0)
(0.0517032 0.0238637 0)
(0.205728 -0.158435 0)
(0.586228 -0.310954 0)
(0.359808 -0.221759 0)
(0.23834 -0.0208087 0)
(0.183418 0.120167 0)
(0.158215 0.18841 0)
(0.138771 0.223107 0)
(0.12819 0.234282 0)
(0.113749 0.274027 0)
(0.0728384 0.329051 0)
(0.0365732 0.367622 0)
(0.0138998 0.410636 0)
(0.00280683 0.440453 0)
(0.000117357 0.00291141 0)
(-0.00291024 0.00355234 0)
(-0.0059912 0.00513094 0)
(-0.00509142 0.00756174 0)
(-0.0107045 0.0104188 0)
(-0.0188477 0.0122978 0)
(-0.0311763 0.00918975 0)
(-0.0394914 -0.00371394 0)
(-0.0426785 -0.0241889 0)
(-0.0279398 -0.049977 0)
(0.000739727 -0.0588696 0)
(0.015898 -0.0538162 0)
(0.0267032 -0.0610189 0)
(0.0441144 -0.065197 0)
(0.0586715 -0.0596758 0)
(0.114345 -0.0911191 0)
(0.00144518 -0.00892334 0)
(0.46606 -0.308902 0)
(0.413952 -0.236914 0)
(0.152802 -0.152674 0)
(0.0235532 0.0150599 0)
(0.00517615 0.130607 0)
(0.00421937 0.197653 0)
(0.00505086 0.224909 0)
(0.0100969 0.236723 0)
(-0.0105356 0.300368 0)
(-0.0268102 0.348638 0)
(-0.0183948 0.379573 0)
(-0.015253 0.416889 0)
(-0.00831429 0.440671 0)
(0.000210133 0.00298266 0)
(-0.00289757 0.00367087 0)
(-0.00617426 0.00546655 0)
(-0.00451508 0.00804597 0)
(-0.0103101 0.0109821 0)
(-0.018657 0.0130722 0)
(-0.0323162 0.0103769 0)
(-0.0415434 -0.00304033 0)
(-0.0466883 -0.024859 0)
(-0.0313996 -0.0541835 0)
(0.00124064 -0.0633997 0)
(0.0157609 -0.0548977 0)
(0.0251564 -0.0645953 0)
(0.0439587 -0.0702461 0)
(0.0464275 -0.0614214 0)
(0.084299 -0.0814813 0)
(0.126898 -0.0872978 0)
(0.205635 -0.353838 0)
(0.179037 -0.118961 0)
(-0.0392344 -0.0716738 0)
(-0.120221 0.0384569 0)
(-0.114484 0.123447 0)
(-0.0884945 0.19179 0)
(-0.0595579 0.210472 0)
(-0.062374 0.248476 0)
(-0.0764683 0.311827 0)
(-0.0608016 0.331573 0)
(-0.0465104 0.368304 0)
(-0.0315952 0.403675 0)
(-0.014366 0.423448 0)
(0.000313423 0.00304471 0)
(-0.00288633 0.00378151 0)
(-0.00640756 0.00582249 0)
(-0.00386735 0.00854925 0)
(-0.00985931 0.0115451 0)
(-0.0183564 0.0138011 0)
(-0.0335416 0.0116506 0)
(-0.0436265 -0.00220067 0)
(-0.0511744 -0.0253535 0)
(-0.0353868 -0.0588655 0)
(0.00227706 -0.0684607 0)
(0.0156959 -0.0551109 0)
(0.023189 -0.0683483 0)
(0.0447412 -0.076436 0)
(0.0385156 -0.0778758 0)
(0.0439721 -0.0579444 0)
(0.350201 -0.388626 0)
(-0.0710512 -0.312876 0)
(-0.00820454 0.0102198 0)
(-0.154711 -0.0135672 0)
(-0.196359 0.0464649 0)
(-0.183646 0.107427 0)
(-0.141219 0.160087 0)
(-0.110462 0.210638 0)
(-0.114158 0.25903 0)
(-0.104401 0.297817 0)
(-0.0825898 0.31858 0)
(-0.0654651 0.351406 0)
(-0.0440651 0.380954 0)
(-0.0193298 0.395989 0)
(0.000428292 0.00309683 0)
(-0.00287625 0.00388288 0)
(-0.00669918 0.00619895 0)
(-0.00314021 0.00906775 0)
(-0.00934573 0.0121097 0)
(-0.0179188 0.014472 0)
(-0.0348743 0.0130142 0)
(-0.0457019 -0.00115398 0)
(-0.0561985 -0.0256097 0)
(-0.040028 -0.0641004 0)
(0.00403848 -0.0742299 0)
(0.015701 -0.0541063 0)
(0.0206591 -0.0722879 0)
(0.047113 -0.0824726 0)
(0.0936418 -0.0876186 0)
(0.163794 -0.0243474 0)
(0.0471919 -0.335708 0)
(-0.169813 -0.190677 0)
(-0.223303 0.0585854 0)
(-0.217451 0.0173456 0)
(-0.233551 0.0506977 0)
(-0.227566 0.0952042 0)
(-0.209762 0.139947 0)
(-0.189049 0.200581 0)
(-0.164621 0.24655 0)
(-0.134994 0.276186 0)
(-0.106997 0.299542 0)
(-0.0815632 0.327845 0)
(-0.0528105 0.351016 0)
(-0.0225326 0.358398 0)
(0.000552368 0.00313836 0)
(-0.00286685 0.00397323 0)
(-0.0070584 0.00659633 0)
(-0.00232521 0.00959611 0)
(-0.00876363 0.0126817 0)
(-0.017311 0.0150787 0)
(-0.0363461 0.0144707 0)
(-0.0477144 0.000148438 0)
(-0.0618282 -0.025548 0)
(-0.0455009 -0.0699621 0)
(0.00643792 -0.0809784 0)
(0.0157551 -0.0514026 0)
(0.0173177 -0.0764672 0)
(0.0481059 -0.0863842 0)
(0.131551 -0.114024 0)
(0.0488626 -0.192274 0)
(-0.106778 -0.078828 0)
(-0.224921 -0.115346 0)
(-0.241003 0.0381674 0)
(-0.238443 0.0304929 0)
(-0.24803 0.0548661 0)
(-0.247405 0.0904222 0)
(-0.238443 0.131786 0)
(-0.218797 0.181563 0)
(-0.187913 0.221752 0)
(-0.154089 0.249314 0)
(-0.12008 0.271774 0)
(-0.085127 0.294601 0)
(-0.0507882 0.313982 0)
(-0.0209508 0.322014 0)
(0.000564088 0.00316618 0)
(-0.00285735 0.00405022 0)
(-0.00749553 0.00701528 0)
(-0.00141282 0.010127 0)
(-0.00810887 0.0132722 0)
(-0.0164922 0.0156225 0)
(-0.0380014 0.0160147 0)
(-0.0495891 0.00178696 0)
(-0.0681328 -0.0250682 0)
(-0.0522912 -0.0763885 0)
(0.00524824 -0.0892621 0)
(0.0158042 -0.0463284 0)
(0.0123748 -0.081188 0)
(0.0414923 -0.0906178 0)
(0.101341 -0.151135 0)
(-0.0115928 -0.157479 0)
(-0.148732 0.000969661 0)
(-0.221483 -0.0519888 0)
(-0.228345 0.0230756 0)
(-0.23933 0.0349237 0)
(-0.248345 0.057783 0)
(-0.247833 0.0878704 0)
(-0.238763 0.12373 0)
(-0.218767 0.163191 0)
(-0.188661 0.19643 0)
(-0.154338 0.220171 0)
(-0.119309 0.23832 0)
(-0.0874216 0.259266 0)
(-0.0548256 0.277085 0)
(-0.0214434 0.286068 0)
(-0.00221853 0.00332719 0)
(-0.00284974 0.00411224 0)
(-0.00802486 0.00745805 0)
(-0.000394071 0.0106504 0)
(-0.00738015 0.0138979 0)
(-0.0154115 0.0161103 0)
(-0.0399012 0.0176227 0)
(-0.0512258 0.00384335 0)
(-0.0751897 -0.0240376 0)
(-0.0639201 -0.0820155 0)
(-0.0252275 -0.101141 0)
(0.0159671 -0.0377875 0)
(0.00627044 -0.0871058 0)
(0.0366295 -0.0983932 0)
(0.101793 -0.167063 0)
(-0.307249 -0.120458 0)
(-0.137523 0.0172486 0)
(-0.207055 -0.0126898 0)
(-0.224235 0.023058 0)
(-0.234844 0.0379017 0)
(-0.241426 0.0588515 0)
(-0.238479 0.0845252 0)
(-0.226989 0.114585 0)
(-0.206434 0.145756 0)
(-0.178258 0.172385 0)
(-0.147134 0.192075 0)
(-0.117473 0.209612 0)
(-0.0866729 0.227168 0)
(-0.0540972 0.238953 0)
(-0.0226467 0.245799 0)
(-0.0413379 0.00488891 0)
(-0.002885 0.0041925 0)
(-0.00870754 0.0079355 0)
(0.00070545 0.0111692 0)
(-0.00659528 0.0145886 0)
(-0.0140176 0.0165543 0)
(-0.0421319 0.0192453 0)
(-0.0525042 0.00639978 0)
(-0.0831418 -0.022181 0)
(-0.0988422 -0.0799802 0)
(-0.104631 -0.124969 0)
(0.0169033 -0.0243313 0)
(-0.00193843 -0.0948669 0)
(0.0262949 -0.111974 0)
(0.135497 -0.156414 0)
(-0.0870635 -0.0196251 0)
(-0.136164 0.0185553 0)
(-0.197079 0.0119143 0)
(-0.219747 0.028718 0)
(-0.229038 0.0408056 0)
(-0.232238 0.0582412 0)
(-0.226251 0.0796481 0)
(-0.212336 0.104296 0)
(-0.19133 0.129108 0)
(-0.165146 0.150643 0)
(-0.13714 0.167868 0)
(-0.108935 0.182577 0)
(-0.079655 0.195101 0)
(-0.049575 0.203507 0)
(-0.020441 0.207775 0)
(-0.000712625 0.000560352 0)
(-0.00375405 0.00056363 0)
(-0.00712153 0.000569908 0)
(-0.0108405 0.00057869 0)
(-0.0149316 0.000588821 0)
(-0.0193977 0.000597673 0)
(-0.0242131 0.000601115 0)
(-0.0293019 0.000593185 0)
(-0.0345211 0.000567274 0)
(-0.0396376 0.000516406 0)
(-0.0443321 0.000437424 0)
(-0.0482212 0.000332068 0)
(-0.0509085 0.000212224 0)
(-0.0520359 9.61631e-05 0)
(-0.0513449 -2.79869e-05 0)
(-0.048703 -0.000133574 0)
(-0.0441243 -0.000215533 0)
(-0.0377843 -0.000270095 0)
(-0.0299968 -0.000297746 0)
(-0.0212028 -0.000300557 0)
(-0.0120369 -0.000276103 0)
(-0.00350069 -0.000217009 0)
(0.00321917 -0.000146313 0)
(0.00725021 -6.94776e-05 0)
(0.00854046 -1.2241e-05 0)
(0.00775464 2.05165e-05 0)
(0.00594094 2.89715e-05 0)
(0.00402058 2.46479e-05 0)
(0.00237337 1.88116e-05 0)
(0.000968527 1.66175e-05 0)
(-0.00121805 0.00676844 0)
(-0.00636258 0.00674616 0)
(-0.0120185 0.00668657 0)
(-0.0181733 0.00657631 0)
(-0.0247866 0.00639866 0)
(-0.0317704 0.00613288 0)
(-0.0389809 0.00575434 0)
(-0.0461963 0.00523858 0)
(-0.053116 0.00456857 0)
(-0.0593504 0.00374277 0)
(-0.0644621 0.00278226 0)
(-0.0680047 0.00173846 0)
(-0.0695815 0.000684421 0)
(-0.068925 -0.000299383 0)
(-0.0658813 -0.00116059 0)
(-0.0604335 -0.00185757 0)
(-0.0527186 -0.00236062 0)
(-0.0430282 -0.00265333 0)
(-0.0317621 -0.00274684 0)
(-0.0194616 -0.00264904 0)
(-0.00695933 -0.0023368 0)
(0.00434548 -0.00178956 0)
(0.01273 -0.0010855 0)
(0.0169691 -0.000408827 0)
(0.0171542 6.87402e-05 0)
(0.0144949 0.000300496 0)
(0.0106867 0.00032583 0)
(0.00707359 0.00025858 0)
(0.00411584 0.000190068 0)
(0.00165974 0.00016126 0)
(-0.00112913 0.0130004 0)
(-0.00590666 0.012947 0)
(-0.0111578 0.012803 0)
(-0.0168752 0.0125417 0)
(-0.0230205 0.0121299 0)
(-0.0295146 0.0115319 0)
(-0.0362226 0.0107055 0)
(-0.0429378 0.00961682 0)
(-0.0493746 0.00824298 0)
(-0.0551507 0.0065938 0)
(-0.0598366 0.00472718 0)
(-0.0629832 0.00274448 0)
(-0.0642078 0.000793846 0)
(-0.0632559 -0.000992896 0)
(-0.0600184 -0.00251445 0)
(-0.0545219 -0.00371227 0)
(-0.0469489 -0.0045459 0)
(-0.0375923 -0.00500759 0)
(-0.0268315 -0.00512548 0)
(-0.0151385 -0.00491122 0)
(-0.00325744 -0.00430793 0)
(0.00744402 -0.00326622 0)
(0.0152314 -0.00190854 0)
(0.0188647 -0.000619732 0)
(0.0184855 0.000273055 0)
(0.0153593 0.000682551 0)
(0.0112094 0.000695365 0)
(0.00737178 0.00054007 0)
(0.00427053 0.00039203 0)
(0.00171775 0.000328982 0)
(-0.0011311 0.0190146 0)
(-0.00591801 0.0189342 0)
(-0.0111841 0.0187152 0)
(-0.016922 0.0183176 0)
(-0.0231015 0.0176943 0)
(-0.0296453 0.0167896 0)
(-0.0364231 0.0155448 0)
(-0.0432219 0.0139097 0)
(-0.0497408 0.0118519 0)
(-0.0555795 0.00939028 0)
(-0.0602764 0.00661352 0)
(-0.063367 0.0036923 0)
(-0.0644691 0.000842955 0)
(-0.0633593 -0.00174234 0)
(-0.0599472 -0.00391217 0)
(-0.0542863 -0.00558861 0)
(-0.0465826 -0.00672987 0)
(-0.03714 -0.00734054 0)
(-0.0263394 -0.00747024 0)
(-0.0146342 -0.00713693 0)
(-0.00273941 -0.00625041 0)
(0.00796333 -0.00471251 0)
(0.0156943 -0.00269853 0)
(0.0192068 -0.000797968 0)
(0.018692 0.000503067 0)
(0.0154558 0.00108175 0)
(0.0112401 0.00107417 0)
(0.00737784 0.000825894 0)
(0.0042703 0.000596182 0)
(0.00171723 0.000498506 0)
(-0.00116783 0.0251547 0)
(-0.00610552 0.0250449 0)
(-0.0115376 0.0247512 0)
(-0.0174571 0.0242198 0)
(-0.0238316 0.0233843 0)
(-0.0305818 0.0221721 0)
(-0.0375693 0.0205017 0)
(-0.0445643 0.0183021 0)
(-0.0512401 0.01553 0)
(-0.0571617 0.0122157 0)
(-0.0618393 0.00848773 0)
(-0.0647953 0.00458156 0)
(-0.0656735 0.000813251 0)
(-0.0642999 -0.0025652 0)
(-0.0606265 -0.00537568 0)
(-0.0547237 -0.00751929 0)
(-0.0468149 -0.0089505 0)
(-0.0372137 -0.00970035 0)
(-0.0262944 -0.00983131 0)
(-0.0144906 -0.0093794 0)
(-0.00248913 -0.00821068 0)
(0.0083013 -0.00616446 0)
(0.0160308 -0.00348131 0)
(0.0194513 -0.000962798 0)
(0.0188193 0.000744823 0)
(0.0154886 0.00148834 0)
(0.0112234 0.00145535 0)
(0.00735413 0.00111172 0)
(0.00425399 0.000799863 0)
(0.00171074 0.000668279 0)
(-0.00121877 0.0315248 0)
(-0.00636607 0.0313862 0)
(-0.0120278 0.0310145 0)
(-0.0181968 0.0303419 0)
(-0.0248372 0.0292858 0)
(-0.031865 0.0277514 0)
(-0.0391323 0.0256324 0)
(-0.046387 0.0228308 0)
(-0.0532635 0.0192927 0)
(-0.0592826 0.0150602 0)
(-0.0639135 0.0103112 0)
(-0.0666705 0.00538029 0)
(-0.0672376 0.000671955 0)
(-0.0655113 -0.00349299 0)
(-0.0614974 -0.00692885 0)
(-0.0552876 -0.009523 0)
(-0.0471206 -0.011226 0)
(-0.0373228 -0.0120956 0)
(-0.0262577 -0.012218 0)
(-0.0143288 -0.0116426 0)
(-0.00218848 -0.0101932 0)
(0.00871889 -0.00762566 0)
(0.0164484 -0.00425606 0)
(0.0197516 -0.00111167 0)
(0.0189719 0.00100037 0)
(0.0155235 0.00190353 0)
(0.0111975 0.00183892 0)
(0.00732162 0.001397 0)
(0.00423199 0.00100265 0)
(0.0017021 0.000838301 0)
(-0.00128207 0.0381963 0)
(-0.00668927 0.0380248 0)
(-0.0126378 0.0375684 0)
(-0.0191168 0.0367465 0)
(-0.0260878 0.0354579 0)
(-0.0334635 0.0335842 0)
(-0.0410864 0.0309872 0)
(-0.0486736 0.0275347 0)
(-0.0558058 0.0231581 0)
(-0.0619421 0.0179202 0)
(-0.0665018 0.0120658 0)
(-0.068984 0.00604271 0)
(-0.069138 0.000378155 0)
(-0.0669698 -0.00455463 0)
(-0.0625348 -0.00859444 0)
(-0.0559505 -0.0116108 0)
(-0.0474749 -0.0135661 0)
(-0.0374435 -0.0145334 0)
(-0.0262077 -0.0146338 0)
(-0.0141325 -0.0139328 0)
(-0.0018216 -0.0122026 0)
(0.00923233 -0.00909859 0)
(0.0169606 -0.0050203 0)
(0.0201169 -0.00124024 0)
(0.0191553 0.00127317 0)
(0.0155632 0.00232932 0)
(0.0111641 0.00222538 0)
(0.0072812 0.0016816 0)
(0.00420493 0.00120434 0)
(0.0016915 0.0010086 0)
(-0.00135659 0.0452555 0)
(-0.00707036 0.0450421 0)
(-0.0133705 0.0444794 0)
(-0.0202248 0.0435014 0)
(-0.027591 0.0419604 0)
(-0.0353912 0.0397334 0)
(-0.043458 0.0366262 0)
(-0.0514657 0.0324602 0)
(-0.0589175 0.0271538 0)
(-0.0651939 0.0207996 0)
(-0.0696443 0.013722 0)
(-0.0717541 0.00653048 0)
(-0.0713735 -0.000107187 0)
(-0.068666 -0.00577482 0)
(-0.063731 -0.010394 0)
(-0.0567043 -0.0138067 0)
(-0.0478702 -0.01598 0)
(-0.0375709 -0.0170202 0)
(-0.0261422 -0.0170824 0)
(-0.0139007 -0.016254 0)
(-0.00138677 -0.0142444 0)
(0.00984536 -0.0105859 0)
(0.0175702 -0.00577128 0)
(0.0205476 -0.00134416 0)
(0.019369 0.00156668 0)
(0.0156071 0.00276786 0)
(0.0111226 0.00261504 0)
(0.00723282 0.00196526 0)
(0.00417259 0.00140462 0)
(0.00167901 0.00117925 0)
(-0.00142811 0.0528324 0)
(-0.0074601 0.0525579 0)
(-0.0142204 0.0518093 0)
(-0.0215155 0.0507235 0)
(-0.0293487 0.0488555 0)
(-0.0376617 0.0462712 0)
(-0.0462817 0.0426236 0)
(-0.0548208 0.0376673 0)
(-0.0626705 0.0313104 0)
(-0.0691101 0.0236934 0)
(-0.0733992 0.0152396 0)
(-0.0750035 0.00678504 0)
(-0.0739388 -0.000831655 0)
(-0.0705904 -0.00718416 0)
(-0.065075 -0.0123508 0)
(-0.0575399 -0.0161276 0)