/*--------------------------------*- C++ -*----------------------------------*\
| =========                 |                                                 |
| \\      /  F ield         | OpenFOAM: The Open Source CFD Toolbox           |
|  \\    /   O peration     | Version:  2.4.0                                 |
|   \\  /    A nd           | Web:      www.OpenFOAM.org                      |
|    \\/     M anipulation  |                                                 |
\*---------------------------------------------------------------------------*/
FoamFile
{
    version     2.0;
    format      ascii;
    class       surfaceScalarField;
    location    "0.042";
    object      phiAlpha;
}
// * * * * * * * * * * * * * * * * * * * * * * * * * * * * * * * * * * * * * //

dimensions      [0 3 -1 0 0 0 0];

internalField   nonuniform List<scalar> 
19800
(
-1.40463e-125
3.96651e-130
-5.32412e-121
2.90184e-125
-4.68997e-117
1.94737e-121
-1.63581e-113
-2.47044e-114
-2.31774e-110
-9.78843e-110
-3.00663e-108
-3.85464e-106
4.01424e-107
-7.83583e-103
1.12377e-103
-1.10184e-99
2.06687e-100
-1.32135e-96
3.04947e-97
-1.4038e-93
3.83681e-94
-1.36304e-90
4.18767e-91
-1.20842e-87
3.96684e-88
-9.59675e-85
3.21221e-85
-6.63701e-82
2.17967e-82
-3.86088e-79
1.22002e-79
-1.8401e-76
5.56163e-77
-7.0597e-74
2.03281e-74
-2.1605e-71
5.89268e-72
-5.24318e-69
1.35291e-69
-1.01076e-66
2.42961e-67
-1.53296e-64
3.41553e-65
-1.83342e-62
3.66829e-63
-1.68987e-60
2.96738e-61
-1.18324e-58
1.77118e-59
-6.16627e-57
7.60027e-58
-2.32848e-55
2.28825e-56
-6.21327e-54
4.7065e-55
-1.1403e-52
6.41577e-54
-1.396e-51
5.58252e-53
-1.09802e-50
2.94842e-52
-5.2765e-50
8.84747e-52
-1.44991e-49
1.37783e-51
-2.08382e-49
9.83613e-52
-1.3881e-49
2.77339e-52
-3.70737e-50
2.69355e-53
-3.47948e-51
8.33307e-55
-1.03907e-52
9.91782e-57
-7.21545e-55
9.02513e-59
6.27684e-61
1.04721e-60
1.88402e-62
1.1713e-62
3.49432e-64
1.15004e-64
4.9198e-66
9.70695e-67
5.55473e-68
7.01303e-69
5.16978e-70
4.32741e-71
4.02493e-72
2.27069e-73
2.63585e-74
1.00381e-75
1.45014e-76
3.66875e-78
6.64675e-79
1.06902e-80
2.48033e-81
7.17622e-84
2.32283e-83
-5.00936e-121
2.22933e-125
-1.62007e-116
1.33221e-120
-1.34696e-112
6.67651e-117
-3.75722e-109
-1.69802e-109
-9.54178e-107
-2.40042e-105
1.0168e-105
-8.36929e-102
3.77043e-102
-1.54468e-98
7.80667e-99
-2.07253e-95
1.22893e-95
-2.34051e-92
1.63323e-92
-2.34909e-89
1.86734e-89
-2.11565e-86
1.84081e-86
-1.69287e-83
1.55075e-83
-1.18259e-80
1.10437e-80
-7.08659e-78
6.54265e-78
-3.56621e-75
3.18471e-75
-1.48237e-72
1.26003e-72
-5.02133e-70
4.01818e-70
-1.37228e-67
1.02358e-67
-2.99746e-65
2.07782e-65
-5.22007e-63
3.3189e-63
-7.16509e-61
4.17749e-61
-7.77024e-59
4.05356e-59
-6.52889e-57
2.99483e-57
-4.20333e-55
1.65345e-55
-2.03775e-53
6.64828e-54
-7.24883e-52
1.89909e-52
-1.84374e-50
3.7513e-51
-3.26021e-49
4.97276e-50
-3.8854e-48
4.2684e-49
-3.01015e-47
2.26387e-48
-1.44693e-46
6.98229e-48
-4.06211e-46
1.15466e-47
-6.14666e-46
9.18128e-48
-4.49806e-46
3.09714e-48
-1.39546e-46
4.04093e-49
-1.62375e-47
2.05491e-50
-6.36134e-49
5.47131e-52
-3.72794e-51
1.5319e-53
1.86203e-55
4.39891e-55
1.21544e-56
1.16144e-56
5.16466e-58
2.71253e-58
1.71034e-59
5.52468e-60
4.63613e-61
9.7425e-62
1.05044e-62
1.4774e-63
2.00809e-64
1.90792e-65
3.24344e-66
2.06608e-67
4.40095e-68
1.82953e-69
4.94863e-70
1.26981e-71
4.49376e-72
3.1441e-74
6.40845e-74
-6.88877e-118
5.28808e-122
-1.96286e-113
2.98298e-117
-4.8239e-110
1.18744e-114
4.9052e-109
-2.2108e-105
6.4817e-105
-1.89607e-101
2.68803e-101
-5.26947e-98
6.00009e-98
-8.48833e-95
9.57584e-95
-1.02738e-91
1.25066e-91
-1.05579e-88
1.4114e-88
-9.64744e-86
1.39114e-85
-7.87069e-83
1.1905e-82
-5.6679e-80
8.73943e-80
-3.54327e-77
5.43917e-77
-1.8938e-74
2.8248e-74
-8.49597e-72
1.20918e-71
-3.15291e-69
4.22026e-69
-9.55916e-67
1.19057e-66
-2.34436e-64
2.69046e-64
-4.60663e-62
4.85829e-62
-7.22985e-60
6.93053e-60
-8.9664e-58
7.83168e-58
-8.81297e-56
6.87893e-56
-6.75309e-54
4.64763e-54
-3.99802e-52
2.37559e-52
-1.80201e-50
8.95837e-51
-6.03313e-49
2.43068e-49
-1.46198e-47
4.61884e-48
-2.49286e-46
5.9679e-47
-2.90011e-45
5.06819e-46
-2.22357e-44
2.70862e-45
-1.07584e-43
8.61539e-45
-3.10655e-43
1.51592e-44
-4.97681e-43
1.33945e-44
-4.00955e-43
5.32151e-45
-1.43704e-43
8.80388e-46
-2.02599e-44
6.23331e-47
-9.84638e-46
2.56325e-48
-3.38088e-48
1.11525e-49
2.0629e-51
4.73247e-51
1.88465e-52
1.83323e-52
1.1571e-53
6.31126e-54
5.61091e-55
1.90781e-55
2.24959e-56
5.02477e-57
7.59881e-58
1.14374e-58
2.17869e-59
2.22438e-60
5.30142e-61
3.63233e-62
1.08677e-62
4.84452e-64
1.84745e-64
5.04279e-66
2.53224e-66
2.66572e-68
3.78356e-68
-2.04074e-115
3.96686e-119
4.25056e-115
2.04116e-114
1.05847e-109
-1.76929e-106
4.74191e-105
-9.69381e-102
3.95335e-101
-6.03416e-98
1.24326e-97
-1.41835e-94
2.31702e-94
-2.0311e-91
3.21677e-91
-2.22884e-88
3.71984e-88
-2.08799e-85
3.74375e-85
-1.73837e-82
3.29796e-82
-1.28817e-79
2.52243e-79
-8.39432e-77
1.65377e-76
-4.73261e-74
9.18777e-74
-2.27577e-71
4.2604e-71
-9.17694e-69
1.62943e-68
-3.06133e-66
5.08683e-66
-8.35041e-64
1.28528e-63
-1.84495e-61
2.60593e-61
-3.27229e-59
4.22927e-59
-4.643e-57
5.43848e-57
-5.21943e-55
5.55991e-55
-4.662e-53
4.44741e-53
-3.26354e-51
2.76012e-51
-1.77766e-49
1.31048e-49
-7.4456e-48
4.64801e-48
-2.34421e-46
1.20118e-46
-5.40881e-45
2.20162e-45
-8.89278e-44
2.77958e-44
-1.01029e-42
2.34015e-43
-7.67032e-42
1.26192e-42
-3.73716e-41
4.14119e-42
-1.11005e-40
7.7438e-42
-1.88134e-40
7.56962e-42
-1.66466e-40
3.49945e-42
-6.85722e-41
7.11139e-43
-1.15961e-41
6.49635e-44
-6.88481e-43
3.54612e-45
-1.24762e-45
2.01347e-46
5.0231e-48
1.09393e-47
5.76166e-49
5.41323e-49
4.49271e-50
2.38718e-50
2.78366e-51
9.27907e-52
1.43351e-52
3.1543e-53
6.24755e-54
9.29597e-55
2.31971e-55
2.34611e-56
7.3309e-57
4.97655e-58
1.95535e-58
8.61402e-60
4.32559e-60
1.15935e-61
7.69938e-62
1.04763e-63
1.11547e-63
2.45203e-117
2.17929e-116
1.5473e-111
5.07809e-112
3.93023e-106
-6.69876e-103
1.37032e-101
-2.05756e-98
8.96947e-98
-1.0282e-94
2.40419e-94
-2.10808e-91
3.96353e-91
-2.71766e-88
4.95095e-88
-2.71871e-85
5.1845e-85
-2.32915e-82
4.73271e-82
-1.7716e-79
3.77811e-79
-1.1959e-76
2.61361e-76
-7.07569e-74
1.54653e-73
-3.61061e-71
7.74137e-71
-1.56764e-68
3.23195e-68
-5.7008e-66
1.11284e-65
-1.71447e-63
3.12958e-63
-4.2184e-61
7.13085e-61
-8.41751e-59
1.30607e-58
-1.35121e-56
1.91766e-56
-1.73806e-54
2.23668e-54
-1.77605e-52
2.07933e-52
-1.44496e-50
1.52053e-50
-9.25387e-49
8.6884e-49
-4.63837e-47
3.83633e-47
-1.80345e-45
1.28066e-45
-5.33126e-44
3.1543e-44
-1.16949e-42
5.58076e-43
-1.85188e-41
6.88905e-42
-2.05271e-40
5.75097e-41
-1.5416e-39
3.12754e-40
-7.55268e-39
1.05747e-39
-2.30302e-38
2.09578e-39
-4.11777e-38
2.25515e-39
-3.98632e-38
1.20225e-39
-1.87848e-38
2.94874e-40
-3.79404e-39
3.34973e-41
-2.75402e-40
2.25907e-42
-6.50926e-43
1.55304e-43
4.81461e-45
1.0138e-44
6.64653e-46
6.02195e-46
6.22648e-47
3.19228e-47
4.64098e-48
1.49469e-48
2.88129e-49
6.13277e-50
1.51725e-50
2.18514e-51
6.81998e-52
6.67389e-53
2.61275e-53
1.71274e-54
8.45163e-55
3.57856e-56
2.26471e-56
5.78202e-58
4.86531e-58
7.93598e-60
6.60626e-60
4.85239e-114
1.62461e-113
2.25241e-108
-1.4053e-105
7.55775e-103
-1.2114e-99
2.02007e-98
-2.6366e-95
1.1122e-94
-1.10524e-91
2.63075e-91
-2.00997e-88
3.91367e-88
-2.35055e-85
4.45422e-85
-2.15144e-82
4.26122e-82
-1.68907e-79
3.55212e-79
-1.17552e-76
2.58409e-76
-7.23892e-74
1.62485e-73
-3.89438e-71
8.71655e-71
-1.80129e-68
3.94742e-68
-7.07106e-66
1.48948e-65
-2.32194e-63
4.63414e-63
-6.30291e-61
1.1782e-60
-1.40049e-58
2.42984e-58
-2.52714e-56
4.03619e-56
-3.67715e-54
5.38298e-54
-4.29539e-52
5.71772e-52
-3.99765e-50
4.85023e-50
-2.96766e-48
3.2503e-48
-1.74062e-46
1.7119e-46
-8.02833e-45
7.02842e-45
-2.89384e-43
2.20653e-43
-8.0147e-42
5.17516e-42
-1.66762e-40
8.83179e-41
-2.53789e-39
1.0652e-39
-2.73945e-38
8.80761e-39
-2.03088e-37
4.82203e-38
-9.97896e-37
1.6755e-37
-3.11365e-36
3.50639e-37
-5.85006e-36
4.13117e-37
-6.16667e-36
2.52094e-37
-3.30821e-36
7.38671e-38
-7.96222e-37
1.02521e-38
-7.11461e-38
8.22392e-40
-4.06217e-40
6.58717e-41
2.38464e-42
5.00266e-42
3.89946e-43
3.45607e-43
4.27444e-44
2.13165e-44
3.71928e-45
1.16205e-45
2.69489e-46
5.55516e-47
1.65694e-47
2.30719e-48
8.70053e-49
8.21222e-50
3.89418e-50
2.45245e-51
1.47045e-51
5.94053e-53
4.58811e-53
1.10462e-54
1.14198e-54
2.1395e-56
1.43245e-56
5.76737e-111
1.16083e-110
2.57904e-105
-3.88055e-102
8.60383e-100
-1.37155e-96
1.86102e-95
-2.30149e-92
8.88262e-92
-8.28765e-89
1.8851e-88
-1.3504e-85
2.55555e-85
-1.43942e-82
2.66635e-82
-1.20807e-79
2.34024e-79
-8.70115e-77
1.78694e-76
-5.54377e-74
1.18755e-73
-3.11523e-71
6.80188e-71
-1.52421e-68
3.31465e-68
-6.39175e-66
1.36057e-65
-2.26896e-63
4.64839e-63
-6.72918e-61
1.30913e-60
-1.64906e-58
3.0146e-58
-3.3098e-56
5.63855e-56
-5.40278e-54
8.51408e-54
-7.13014e-52
1.03401e-51
-7.56964e-50
1.00296e-49
-6.4234e-48
7.7827e-48
-4.35598e-46
4.78832e-46
-2.34188e-44
2.32623e-44
-9.93946e-43
8.87435e-43
-3.31695e-41
2.6159e-41
-8.58511e-40
5.83121e-40
-1.6892e-38
9.58166e-39
-2.46328e-37
1.1272e-37
-2.58203e-36
9.21309e-37
-1.88402e-35
5.06452e-36
-9.25258e-35
1.80218e-35
-2.94199e-34
3.96479e-35
-5.78046e-34
5.08529e-35
-6.59794e-34
3.52774e-35
-4.0075e-34
1.22659e-35
-1.14665e-34
2.06512e-36
-1.27091e-35
1.93485e-37
-1.53722e-37
1.77097e-38
7.10881e-40
1.54044e-39
1.37636e-40
1.21789e-40
1.7449e-41
8.58641e-42
1.74499e-42
5.34654e-43
1.44949e-43
2.91855e-44
1.0207e-44
1.38381e-45
6.13616e-46
5.61861e-47
3.14252e-47
1.90973e-48
1.35568e-48
5.23999e-50
4.81649e-50
1.09391e-51
1.35671e-51
2.84726e-53
1.56615e-53
5.54195e-108
7.61822e-108
2.70076e-102
-5.85644e-99
6.55733e-97
-1.09402e-93
1.1849e-92
-1.47516e-89
4.99206e-89
-4.63196e-86
9.60499e-86
-6.8084e-83
1.19391e-82
-6.63612e-80
1.14615e-79
-5.11352e-77
9.25138e-77
-3.38034e-74
6.48084e-74
-1.97138e-71
3.93895e-71
-1.0104e-68
2.05698e-68
-4.49343e-66
9.11389e-66
-1.70735e-63
3.39369e-63
-5.47732e-61
1.05082e-60
-1.46645e-58
2.68148e-58
-3.24287e-56
5.59846e-56
-5.87684e-54
9.50808e-54
-8.67504e-52
1.30693e-51
-1.03816e-49
1.44768e-49
-1.00165e-47
1.28474e-47
-7.75225e-46
9.13744e-46
-4.80524e-44
5.16972e-44
-2.36934e-42
2.31824e-42
-9.2537e-41
8.21192e-41
-2.85564e-39
2.26835e-39
-6.88895e-38
4.79354e-38
-1.27722e-36
7.56415e-37
-1.77789e-35
8.65803e-36
-1.80317e-34
6.97635e-35
-1.29027e-33
3.83782e-34
-6.30733e-33
1.3928e-33
-2.03379e-32
3.2048e-33
-4.15548e-32
4.44683e-33
-5.10299e-32
3.48249e-33
-3.48641e-32
1.42874e-33
-1.18145e-32
2.91274e-34
-1.63332e-33
3.17865e-35
-3.58233e-35
3.28297e-36
1.3939e-37
3.24012e-37
3.21838e-38
2.90531e-38
4.69645e-39
2.31888e-39
5.35631e-40
1.63237e-40
5.05371e-41
1.00659e-41
4.03484e-42
5.38796e-43
2.7476e-43
2.46649e-44
1.5922e-44
9.42463e-46
7.75544e-46
2.89056e-47
3.09841e-47
6.67577e-49
9.74525e-49
2.25743e-50
1.03704e-50
4.06171e-105
4.00619e-105
2.16798e-99
-6.20403e-96
3.56338e-94
-6.6146e-91
5.5073e-90
-7.31132e-87
2.07703e-86
-2.02218e-83
3.6534e-83
-2.69499e-80
4.18439e-80
-2.40769e-77
3.7065e-77
-1.70466e-74
2.7562e-74
-1.03426e-71
1.77321e-71
-5.51746e-69
9.86281e-69
-2.57656e-66
4.69844e-66
-1.04019e-63
1.89379e-63
-3.57664e-61
6.40081e-61
-1.03562e-58
1.79755e-58
-2.50033e-56
4.1594e-56
-4.98434e-54
7.87986e-54
-8.14795e-52
1.21616e-51
-1.0866e-49
1.5232e-49
-1.17817e-47
1.54058e-47
-1.03237e-45
1.2526e-45
-7.28428e-44
8.17867e-44
-4.12704e-42
4.26159e-42
-1.86665e-40
1.76552e-40
-6.70847e-39
5.80468e-39
-1.91243e-37
1.49958e-37
-4.28902e-36
2.99525e-36
-7.4638e-35
4.52414e-35
-9.87339e-34
5.02248e-34
-9.64697e-33
3.97662e-33
-6.74046e-32
2.18082e-32
-3.26431e-31
8.03337e-32
-1.06152e-30
1.92224e-31
-2.24106e-30
2.86553e-31
-2.93902e-30
2.51431e-31
-2.24112e-30
1.20991e-31
-8.94256e-31
2.98703e-32
-1.54508e-31
3.85086e-33
-5.59682e-33
4.47639e-34
1.91656e-35
4.98389e-35
5.3562e-36
5.03026e-36
8.96859e-37
4.51005e-37
1.15961e-37
3.56292e-38
1.23486e-38
2.46484e-39
1.11084e-39
1.47956e-40
8.51621e-41
7.58533e-42
5.54948e-42
3.23545e-43
3.03223e-43
1.10069e-44
1.35276e-44
2.78753e-46
4.71497e-46
1.19524e-47
4.64591e-48
1.6507e-102
2.12004e-102
1.24307e-96
-5.09313e-93
1.41266e-91
-3.29924e-88
1.91226e-87
-2.922e-84
6.55486e-84
-7.15456e-81
1.06359e-80
-8.67936e-78
1.12851e-77
-7.11978e-75
9.2528e-75
-4.63335e-72
6.35226e-72
-2.57928e-69
3.75842e-69
-1.2573e-66
1.915e-66
-5.34075e-64
8.32902e-64
-1.95339e-61
3.05673e-61
-6.06548e-59
9.38592e-59
-1.58177e-56
2.39323e-56
-3.43765e-54
5.02689e-54
-6.1671e-52
8.65025e-52
-9.07928e-50
1.21438e-49
-1.09214e-47
1.38718e-47
-1.07136e-45
1.28232e-45
-8.51505e-44
9.56325e-44
-5.47159e-42
5.74053e-42
-2.83177e-40
2.75882e-40
-1.17448e-38
1.05709e-38
-3.88286e-37
3.2258e-37
-1.02165e-35
7.7807e-36
-2.12507e-34
1.4644e-34
-3.45738e-33
2.10927e-33
-4.32487e-32
2.26263e-32
-4.0504e-31
1.75369e-31
-2.74987e-30
9.54596e-31
-1.31234e-29
3.5502e-30
-4.27715e-29
8.77765e-30
-9.26297e-29
1.39509e-29
-1.28649e-28
1.36001e-29
-1.08503e-28
7.62229e-30
-5.05768e-29
2.27784e-30
-1.08983e-29
3.55109e-31
-6.13841e-31
4.65818e-32
1.90387e-33
5.82179e-33
6.59945e-34
6.57281e-34
1.26653e-34
6.58539e-35
1.85054e-35
5.81631e-36
2.21812e-36
4.50238e-37
2.24387e-37
3.02504e-38
1.93398e-38
1.73396e-39
1.41548e-39
8.24089e-41
8.66421e-41
3.10232e-42
4.30879e-42
8.58617e-44
1.6604e-43
4.59099e-45
1.52608e-45
-4.08913e-95
2.95875e-99
4.13672e-94
-3.42023e-90
4.03335e-89
-1.41216e-85
4.885e-85
-9.92162e-82
1.55935e-81
-2.12977e-78
2.36801e-78
-2.35498e-75
2.34762e-75
-1.77401e-72
1.79162e-72
-1.06057e-69
1.14035e-69
-5.41175e-67
6.22543e-67
-2.40631e-64
2.91363e-64
-9.27278e-62
1.15974e-61
-3.06226e-59
3.88413e-59
-8.55736e-57
1.08579e-56
-2.00288e-54
2.51935e-54
-3.90669e-52
4.81368e-52
-6.28996e-50
7.53825e-50
-8.31845e-48
9.64157e-48
-9.00379e-46
1.00595e-45
-7.97434e-44
8.51064e-44
-5.73816e-42
5.82914e-42
-3.35209e-40
3.22148e-40
-1.58269e-38
1.43005e-38
-6.01344e-37
5.07443e-37
-1.82748e-35
1.43798e-35
-4.43398e-34
3.23467e-34
-8.53621e-33
5.72004e-33
-1.29353e-31
7.82537e-32
-1.52217e-30
8.07685e-31
-1.3587e-29
6.10191e-30
-8.91311e-29
3.28095e-29
-4.16707e-28
1.22468e-28
-1.35179e-27
3.10665e-28
-2.97915e-27
5.22036e-28
-4.34126e-27
5.6018e-28
-4.00859e-27
3.62571e-28
-2.16127e-27
1.30825e-28
-5.77202e-28
2.50996e-29
-4.82081e-29
3.72173e-30
1.3513e-31
5.21267e-31
6.07884e-32
6.57801e-32
1.3446e-32
7.37e-33
2.22672e-33
7.29064e-34
3.0132e-34
6.33055e-35
3.43871e-35
4.7733e-36
3.3424e-36
3.06627e-37
2.75517e-37
1.62653e-38
1.8933e-38
6.78133e-40
1.05102e-39
2.05016e-41
4.48035e-41
1.35052e-42
3.87282e-43
-1.05404e-91
5.51274e-96
-1.16856e-87
-1.8783e-87
5.6626e-87
-5.56177e-83
8.10726e-83
-3.01095e-79
2.58751e-79
-5.67777e-76
3.81796e-76
-5.66871e-73
3.61175e-73
-3.89913e-70
2.60266e-70
-2.13316e-67
1.55367e-67
-9.94363e-65
7.90318e-65
-4.01642e-62
3.42615e-62
-1.39616e-59
1.25712e-59
-4.13406e-57
3.86766e-57
-1.03293e-54
9.90037e-55
-2.15614e-52
2.10187e-52
-3.75511e-50
3.67064e-50
-5.401e-48
5.25251e-48
-6.38949e-46
6.14128e-46
-6.20015e-44
5.86959e-44
-4.94267e-42
4.55614e-42
-3.21158e-40
2.87162e-40
-1.70131e-38
1.46387e-38
-7.31381e-37
6.01266e-37
-2.54132e-35
1.97893e-35
-7.08997e-34
5.21302e-34
-1.58442e-32
1.09322e-32
-2.81816e-31
1.81219e-31
-3.96411e-30
2.34539e-30
-4.36538e-29
2.31837e-29
-3.6908e-28
1.6991e-28
-2.32488e-27
8.97693e-28
-1.05788e-26
3.34156e-27
-3.39018e-26
8.63037e-27
-7.53736e-26
1.51938e-26
-1.1408e-25
1.7765e-26
-1.1404e-25
1.31466e-26
-7.02946e-26
5.6966e-27
-2.30325e-26
1.35308e-27
-2.75077e-27
2.2756e-28
6.56599e-30
3.59198e-29
4.20061e-30
5.10716e-30
1.0883e-30
6.46082e-31
2.06796e-31
7.23186e-32
3.19558e-32
7.11142e-33
4.15652e-33
6.06535e-34
4.59449e-34
4.39145e-35
4.29138e-35
2.60888e-36
3.32321e-36
1.2062e-37
2.0632e-37
3.98068e-39
9.73403e-39
3.19613e-40
7.95817e-41
-1.12736e-88
7.5199e-93
-2.57143e-84
-7.9321e-85
-7.48888e-81
-1.91721e-80
-6.92877e-79
-8.72067e-77
1.59698e-77
-1.43261e-73
3.13838e-74
-1.29456e-70
3.21365e-71
-8.17089e-68
2.35476e-68
-4.08363e-65
1.39134e-65
-1.71871e-62
6.88492e-63
-6.229e-60
2.86339e-60
-1.92646e-57
9.96352e-58
-5.03316e-55
2.88378e-55
-1.10871e-52
6.89092e-53
-2.03689e-50
1.36034e-50
-3.13496e-48
2.19955e-48
-3.99308e-46
2.90529e-46
-4.19379e-44
3.13019e-44
-3.62641e-42
2.7584e-42
-2.58986e-40
1.97457e-40
-1.51348e-38
1.14957e-38
-7.24446e-37
5.42263e-37
-2.82762e-35
2.06595e-35
-8.96235e-34
6.32046e-34
-2.29089e-32
1.55042e-32
-4.70781e-31
3.03296e-31
-7.72309e-30
4.70626e-30
-1.00544e-28
5.74149e-29
-1.03102e-27
5.40866e-28
-8.20256e-27
3.82537e-27
-4.92728e-26
1.97464e-26
-2.16676e-25
7.28002e-26
-6.80492e-25
1.89874e-25
-1.51222e-24
3.46803e-25
-2.35147e-24
4.36994e-25
-2.5142e-24
3.65556e-25
-1.74862e-24
1.88595e-25
-6.9342e-25
5.55727e-26
-1.14722e-25
1.06867e-26
1.95464e-28
1.92786e-27
2.19976e-28
3.13782e-28
6.85531e-29
4.54444e-29
1.52017e-29
5.81309e-30
2.71291e-30
6.51214e-31
4.04889e-31
6.30172e-32
5.10763e-32
5.14994e-33
5.41568e-33
3.42974e-34
4.73273e-34
1.76022e-35
3.29146e-35
6.34541e-37
1.72203e-36
6.16977e-38
1.33939e-38
-8.24762e-86
7.711e-90
-1.71548e-81
-2.51861e-82
-6.7341e-78
-5.64974e-78
-9.52211e-75
-2.22825e-74
-7.33233e-72
-3.32425e-71
-3.8329e-69
-2.79343e-68
-1.47523e-66
-1.64925e-65
-3.95518e-64
-7.6737e-63
-4.05569e-62
-2.9621e-60
9.9124e-62
-9.61122e-58
8.50386e-59
-2.62029e-55
3.87652e-56
-5.97153e-53
1.26374e-53
-1.13107e-50
3.14565e-51
-1.77863e-48
6.20315e-49
-2.36669e-46
9.74129e-47
-2.62235e-44
1.22683e-44
-2.4084e-42
1.24616e-42
-1.83551e-40
1.02932e-40
-1.16488e-38
6.87557e-39
-6.08218e-37
3.72832e-37
-2.61668e-35
1.63761e-35
-9.23536e-34
5.81326e-34
-2.66074e-32
1.659e-32
-6.21419e-31
3.79999e-31
-1.17168e-29
6.94621e-30
-1.76941e-28
1.00873e-28
-2.12645e-27
1.15673e-27
-2.02133e-26
1.03344e-26
-1.50326e-25
7.01475e-26
-8.54792e-25
3.51668e-25
-3.60533e-24
1.27493e-24
-1.10034e-23
3.32916e-24
-2.42056e-23
6.24309e-24
-3.82213e-23
8.37897e-24
-4.31505e-23
7.82354e-24
-3.33778e-23
4.75066e-24
-1.57593e-23
1.7312e-24
-3.50374e-24
3.84485e-25
1.69944e-27
8.03301e-26
8.66715e-27
1.51311e-26
3.33391e-27
2.52572e-27
8.71886e-28
3.70566e-28
1.80644e-28
4.74024e-29
3.10339e-29
5.21572e-30
4.48013e-30
4.82333e-31
5.40877e-31
3.61145e-32
5.35215e-32
2.06356e-33
4.185e-33
8.14385e-35
2.43695e-34
9.55593e-36
1.8114e-36
-4.59295e-83
6.00846e-87
-8.11453e-79
-5.38226e-80
-3.06411e-75
-1.41054e-75
-4.62972e-72
-5.06212e-72
-4.03393e-69
-6.96157e-69
-2.4743e-66
-5.45835e-66
-1.17599e-63
-3.00753e-63
-4.48791e-61
-1.29476e-60
-1.3757e-58
-4.56402e-58
-3.34293e-56
-1.3354e-55
-6.28355e-54
-3.24831e-53
-8.70605e-52
-6.54958e-51
-7.7997e-50
-1.09107e-48
-1.60876e-48
-1.50089e-46
9.11679e-48
-1.70922e-44
2.29845e-45
-1.61238e-42
3.34998e-43
-1.25675e-40
3.53693e-41
-8.26168e-39
2.89469e-39
-4.58764e-37
1.86561e-37
-2.11424e-35
9.62459e-36
-8.10629e-34
3.99264e-34
-2.57076e-32
1.33308e-32
-6.69855e-31
3.5725e-31
-1.42403e-29
7.67678e-30
-2.4559e-28
1.31558e-28
-3.40583e-27
1.79034e-27
-3.76919e-26
1.92686e-26
-3.30843e-25
1.62563e-25
-2.2857e-24
1.05307e-24
-1.22092e-23
5.09565e-24
-4.8998e-23
1.80327e-23
-1.44056e-22
4.67262e-23
-3.1059e-22
8.89744e-23
-4.91887e-22
1.25628e-22
-5.78502e-22
1.29155e-22
-4.90153e-22
9.10303e-23
-2.70554e-22
4.06722e-23
-7.84258e-23
1.0751e-23
-2.84968e-24
2.60017e-24
2.55155e-25
5.68065e-25
1.24138e-25
1.09299e-25
3.84776e-26
1.83869e-26
9.27026e-27
2.68733e-27
1.83619e-27
3.36852e-28
3.04128e-28
3.53582e-29
4.19557e-29
2.98805e-30
4.72172e-30
1.90893e-31
4.17172e-31
8.27628e-33
2.71773e-32
1.17151e-33
1.93586e-34
-2.04968e-80
3.6871e-84
-3.09383e-76
-2.82937e-78
-1.07778e-72
-2.94554e-73
-1.57651e-69
-1.00068e-69
-1.34965e-66
-1.27973e-66
-8.09315e-64
-9.33476e-64
-3.71119e-61
-4.76378e-61
-1.3492e-58
-1.88215e-58
-3.9223e-56
-6.02321e-56
-9.11795e-54
-1.58532e-53
-1.68863e-51
-3.44322e-51
-2.47694e-49
-6.16373e-49
-2.85513e-47
-9.07907e-47
-2.54798e-45
-1.10054e-44
-1.68862e-43
-1.09916e-42
-7.28366e-42
-9.05544e-41
-7.56822e-41
-6.15477e-39
3.91458e-40
-3.46234e-37
4.89716e-38
-1.63471e-35
3.54725e-36
-6.49222e-34
1.87151e-34
-2.18499e-32
7.62468e-33
-6.15753e-31
2.44954e-31
-1.44005e-29
6.25234e-30
-2.77144e-28
1.27182e-28
-4.35363e-27
2.05554e-27
-5.52653e-26
2.63064e-26
-5.61758e-25
2.65849e-25
-4.53837e-24
2.11155e-24
-2.89674e-23
1.29855e-23
-1.44256e-22
6.02718e-23
-5.46256e-22
2.06654e-22
-1.53329e-21
5.26606e-22
-3.20773e-21
1.00641e-21
-5.0292e-21
1.47594e-21
-6.07684e-21
1.64702e-21
-5.55182e-21
1.32631e-21
-3.51352e-21
7.16763e-22
-1.28796e-21
2.37269e-22
-1.24473e-22
6.61487e-23
5.59883e-24
1.65639e-23
3.52749e-24
3.64101e-24
1.29262e-24
6.9955e-25
3.61564e-25
1.16839e-25
8.26819e-26
1.67346e-26
1.57704e-26
2.00326e-27
2.49915e-27
1.92152e-28
3.2187e-28
1.38042e-29
3.23478e-29
6.60413e-31
2.37325e-30
1.13062e-31
1.61885e-32
-7.80161e-78
1.89458e-81
-1.00913e-73
1.51406e-77
-3.1696e-70
-4.72974e-71
-4.3468e-67
-1.64505e-67
-3.52021e-64
-1.96936e-64
-1.98492e-61
-1.32612e-61
-8.45346e-59
-6.19583e-59
-2.81791e-56
-2.22388e-56
-7.44746e-54
-6.42548e-54
-1.56841e-51
-1.52061e-51
-2.637e-49
-2.96019e-49
-3.54285e-47
-4.73762e-47
-3.80646e-45
-6.22528e-45
-3.26689e-43
-6.71243e-43
-2.22682e-41
-5.94227e-41
-1.18762e-39
-4.32502e-39
-4.80846e-38
-2.59372e-37
-1.37029e-36
-1.28617e-35
-1.79755e-35
-5.3151e-34
2.1955e-35
-1.82518e-32
2.19214e-33
-5.25109e-31
1.0377e-31
-1.28693e-29
3.44396e-30
-2.66575e-28
8.67787e-29
-4.60488e-27
1.7044e-27
-6.55009e-26
2.62848e-26
-7.57779e-25
3.18623e-25
-7.053e-24
3.03374e-24
-5.22957e-23
2.26654e-23
-3.07014e-22
1.31757e-22
-1.41547e-21
5.83056e-22
-5.01415e-21
1.9228e-21
-1.3317e-20
4.77627e-21
-2.67694e-20
9.05119e-21
-4.09889e-20
1.36086e-20
-5.01778e-20
1.62436e-20
-4.86528e-20
1.46924e-20
-3.4597e-20
9.43663e-21
-1.55522e-20
3.93631e-21
-2.63517e-21
1.26516e-21
8.50491e-23
3.62998e-22
7.38898e-23
9.15028e-23
3.24059e-23
2.02129e-23
1.06245e-23
3.88884e-24
2.83131e-24
6.4158e-25
6.27437e-25
8.82353e-26
1.15135e-25
9.66691e-27
1.70887e-26
7.84785e-28
1.9654e-27
4.15247e-29
1.63212e-28
8.61952e-30
1.05677e-30
-2.5727e-75
8.38577e-79
-2.84237e-71
1.04468e-74
-7.88584e-68
-4.09083e-69
-9.89254e-65
-2.00478e-65
-7.38255e-62
-2.3068e-62
-3.81647e-59
-1.43656e-59
-1.4762e-56
-6.12498e-57
-4.43151e-54
-1.9947e-54
-1.04939e-51
-5.21534e-52
-1.97618e-49
-1.11541e-49
-2.97376e-47
-1.95963e-47
-3.58808e-45
-2.82591e-45
-3.48018e-43
-3.34066e-43
-2.71756e-41
-3.23671e-41
-1.70842e-39
-2.57275e-39
-8.62706e-38
-1.68067e-37
-3.48046e-36
-9.04238e-36
-1.11104e-34
-4.01525e-34
-2.69514e-33
-1.47432e-32
-4.51921e-32
-4.48482e-31
-3.04294e-31
-1.13688e-29
5.82354e-31
-2.41339e-28
3.16164e-29
-4.30742e-27
8.94275e-28
-6.57944e-26
1.78905e-26
-8.39399e-25
2.70299e-25
-8.79623e-24
3.14919e-24
-7.46686e-23
2.8479e-23
-5.06702e-22
2.00659e-22
-2.72697e-21
1.10008e-21
-1.15725e-20
4.61634e-21
-3.80217e-20
1.45437e-20
-9.47235e-20
3.49266e-20
-1.81263e-19
6.4818e-20
-2.67322e-19
9.86189e-20
-3.26992e-19
1.24067e-19
-3.31208e-19
1.23819e-19
-2.59283e-19
9.26036e-20
-1.38613e-19
4.78153e-20
-3.51357e-20
1.78733e-20
8.14471e-22
5.97272e-21
1.13569e-21
1.75895e-21
6.14635e-22
4.54076e-22
2.40951e-22
1.01809e-22
7.58293e-23
1.94767e-23
1.96744e-23
3.08592e-24
4.19541e-24
3.86321e-25
7.1851e-25
3.54081e-26
9.46101e-26
2.06559e-27
8.89541e-27
5.20266e-28
5.35571e-29
-6.88313e-73
2.97686e-76
-6.53064e-69
4.15413e-72
-1.58534e-65
2.11326e-69
-1.78105e-62
-1.49408e-63
-1.2039e-59
-1.88706e-60
-5.62111e-57
-1.11338e-57
-1.95233e-54
-4.38025e-55
-5.23518e-52
-1.30663e-52
-1.10408e-49
-3.12768e-50
-1.85023e-47
-6.12603e-48
-2.48042e-45
-9.84329e-46
-2.67376e-43
-1.29477e-43
-2.32695e-41
-1.39194e-41
-1.6401e-39
-1.22318e-39
-9.38031e-38
-8.80053e-38
-4.3552e-36
-5.19678e-36
-1.63867e-34
-2.52545e-34
-4.97141e-33
-1.01254e-32
-1.20352e-31
-3.35628e-31
-2.2838e-30
-9.21117e-30
-3.23427e-29
-2.09492e-28
-2.88151e-28
-3.95217e-27
6.84329e-30
-6.22084e-26
5.25771e-27
-8.20434e-25
1.34617e-25
-9.21339e-24
2.14889e-24
-8.66114e-23
2.48823e-23
-6.66851e-22
2.17413e-22
-4.12827e-21
1.45674e-21
-2.0318e-20
7.54279e-21
-7.90499e-20
2.98981e-20
-2.38954e-19
8.94821e-20
-5.54002e-19
2.06238e-19
-1.00042e-18
3.70165e-19
-1.40179e-18
5.62704e-19
-1.69087e-18
7.35307e-19
-1.76122e-18
7.95132e-19
-1.48728e-18
6.77239e-19
-9.17641e-19
4.23046e-19
-3.16652e-19
1.86354e-19
3.57045e-21
7.36173e-20
1.26958e-20
2.55258e-20
8.69898e-21
7.70603e-21
4.09998e-21
2.00823e-21
1.52288e-21
4.44376e-22
4.61992e-22
8.10724e-23
1.14528e-22
1.16187e-23
2.26957e-23
1.20625e-24
3.43838e-24
7.77008e-26
3.68221e-25
2.3949e-26
2.00527e-27
-1.45899e-70
8.14719e-74
-1.20708e-66
1.14878e-69
-2.53438e-63
1.50974e-66
-2.53494e-60
-1.83848e-63
-1.53094e-57
-8.07396e-59
-6.40156e-55
-5.28298e-56
-1.98324e-52
-2.0247e-53
-4.72878e-50
-5.74244e-51
-8.85789e-48
-1.3033e-48
-1.31899e-45
-2.41905e-46
-1.57381e-43
-3.6561e-44
-1.51392e-41
-4.48417e-42
-1.17978e-39
-4.45864e-40
-7.47694e-38
-3.60042e-38
-3.8645e-36
-2.36908e-36
-1.63164e-34
-1.27515e-34
-5.62845e-33
-5.63565e-33
-1.58339e-31
-2.05199e-31
-3.61558e-30
-6.17179e-30
-6.63938e-29
-1.53627e-28
-9.63729e-28
-3.16806e-27
-1.07106e-26
-5.41321e-26
-8.26777e-26
-7.65955e-25
-2.61993e-25
-8.97409e-24
4.71078e-25
-8.80134e-23
1.1802e-23
-7.25924e-22
1.50132e-22
-5.02566e-21
1.31926e-21
-2.82636e-20
8.56913e-21
-1.26965e-19
4.22492e-20
-4.52147e-19
1.58058e-19
-1.24875e-18
4.47806e-19
-2.67669e-18
9.84546e-19
-4.52194e-18
1.68876e-18
-5.94711e-18
2.53463e-18
-6.99407e-18
3.39149e-18
-7.37249e-18
3.90295e-18
-6.58275e-18
3.69987e-18
-4.55498e-18
2.72137e-18
-1.99736e-18
1.43459e-18
-9.81358e-20
6.66088e-19
9.99364e-20
2.69947e-19
8.85594e-20
9.4737e-20
5.02044e-20
2.86139e-20
2.2002e-20
7.32337e-21
7.815e-21
1.54138e-21
2.25881e-21
2.536e-22
5.20013e-22
2.98989e-23
9.1052e-23
2.12332e-24
1.11535e-23
8.07386e-25
5.21886e-26
-2.42631e-68
1.70367e-71
-1.75842e-64
2.31633e-67
-3.25596e-61
3.65884e-64
-2.87184e-58
1.91343e-61
-1.54348e-55
4.15117e-59
-5.7256e-53
-9.33473e-56
-1.56859e-50
-2.82179e-52
-3.30556e-48
-1.14526e-49
-5.49222e-46
-3.06642e-47
-7.26495e-44
-6.13183e-45
-7.71929e-42
-9.42661e-43
-6.63102e-40
-1.13345e-40
-4.6289e-38
-1.07609e-38
-2.63665e-36
-8.15699e-37
-1.22937e-34
-4.98281e-35
-4.70223e-33
-2.47179e-33
-1.47694e-31
-1.00194e-31
-3.80783e-30
-3.33511e-30
-8.03994e-29
-9.15028e-29
-1.38344e-27
-2.07464e-27
-1.92271e-26
-3.89308e-26
-2.1238e-25
-6.04902e-25
-1.80818e-24
-7.77843e-24
-1.11252e-23
-8.2661e-23
-3.66722e-23
-7.24745e-22
2.22916e-23
-5.2657e-21
6.04188e-22
-3.19952e-20
6.0475e-21
-1.62419e-19
3.98738e-20
-6.64602e-19
1.9122e-19
-2.16888e-18
6.78755e-19
-5.44328e-18
1.82081e-18
-1.07514e-17
3.80008e-18
-1.68274e-17
6.16755e-18
-2.05738e-17
9.05214e-18
-2.34341e-17
1.22275e-17
-2.45569e-17
1.47163e-17
-2.27293e-17
1.51811e-17
-1.71782e-17
1.27698e-17
-9.05904e-18
8.24998e-18
-1.62169e-18
4.41117e-18
5.38998e-19
2.05826e-18
6.39892e-19
8.33873e-19
4.3714e-19
2.91411e-19
2.26394e-19
8.63406e-20
9.43987e-20
2.10013e-20
3.19076e-20
3.97375e-21
8.55979e-21
5.32533e-22
1.73784e-21
4.15231e-23
2.44291e-22
1.96806e-23
8.95215e-25
-3.15371e-66
2.72695e-69
-2.00815e-62
3.48525e-65
-3.32512e-59
5.71323e-62
-2.62185e-56
3.72677e-59
-1.25225e-53
1.46478e-56
-4.09953e-51
4.1429e-54
-9.86961e-49
8.61042e-52
-1.82452e-46
1.19277e-49
-2.66697e-44
6.75665e-48
-3.12224e-42
-4.60145e-44
-2.95635e-40
-1.34368e-41
-2.27061e-38
-1.90049e-39
-1.42172e-36
-1.8687e-37
-7.28596e-35
-1.38813e-35
-3.06567e-33
-8.07478e-34
-1.06152e-31
-3.7531e-32
-3.02885e-30
-1.41147e-30
-7.12318e-29
-4.33152e-29
-1.37916e-27
-1.09098e-27
-2.19195e-26
-2.26407e-26
-2.84443e-25
-3.88034e-25
-2.98655e-24
-5.49793e-24
-2.49815e-23
-6.43901e-23
-1.61791e-22
-6.22614e-22
-7.64991e-22
-4.96019e-21
-2.12727e-21
-3.24751e-20
5.35213e-22
-1.74809e-19
1.79308e-20
-7.82332e-19
1.38985e-19
-2.90717e-18
6.83416e-19
-8.73091e-18
2.34331e-18
-1.98166e-17
6.00026e-18
-3.62538e-17
1.18389e-17
-5.19794e-17
1.80654e-17
-5.85755e-17
2.58221e-17
-6.48298e-17
3.46785e-17
-6.60157e-17
4.29278e-17
-6.20927e-17
4.72078e-17
-5.00821e-17
4.41278e-17
-3.03965e-17
3.36823e-17
-9.20551e-18
2.07423e-17
1.82319e-18
1.11972e-17
3.23248e-18
5.26996e-18
2.71241e-18
2.14059e-18
1.6747e-18
7.35326e-19
8.22779e-19
2.06472e-19
3.25364e-19
4.48152e-20
1.01607e-19
6.80463e-21
2.39057e-20
5.77761e-22
3.86124e-21
3.46307e-22
9.08112e-24
-3.1367e-64
3.2923e-67
-1.76276e-60
3.9024e-63
-2.62649e-57
6.29121e-60
-1.86666e-54
4.24446e-57
-7.99802e-52
1.74993e-54
-2.33341e-49
5.10362e-52
-4.97526e-47
1.09597e-49
-8.1013e-45
1.73067e-47
-1.03667e-42
1.95789e-45
-1.06397e-40
1.44761e-43
-8.9135e-39
3.98429e-42
-6.11914e-37
-1.289e-38
-3.44162e-35
-2.03342e-36
-1.58935e-33
-1.67602e-34
-6.0429e-32
-9.80413e-33
-1.89558e-30
-4.39528e-31
-4.91233e-29
-1.56096e-29
-1.05214e-27
-4.46873e-28
-1.86135e-26
-1.04191e-26
-2.71462e-25
-1.99103e-25
-3.25203e-24
-3.13026e-24
-3.18137e-23
-4.05681e-23
-2.51799e-22
-4.33623e-22
-1.5881e-21
-3.82018e-21
-7.76778e-21
-2.76957e-20
-2.78591e-20
-1.64857e-19
-6.13068e-20
-8.03526e-19
5.58279e-21
-3.20216e-18
3.05433e-19
-1.05862e-17
1.8253e-18
-2.94455e-17
6.34865e-18
-6.00605e-17
1.59407e-17
-1.02483e-16
2.96775e-17
-1.33797e-16
4.24307e-17
-1.38798e-16
5.9517e-17
-1.5175e-16
7.8006e-17
-1.45533e-16
9.77889e-17
-1.36483e-16
1.12713e-16
-1.15213e-16
1.14245e-16
-7.79401e-17
9.90502e-17
-3.23363e-17
7.049e-17
3.22407e-18
4.42538e-17
1.15331e-17
2.41781e-17
1.21099e-17
1.13372e-17
8.90341e-18
4.46882e-18
5.11501e-18
1.43208e-18
2.34396e-18
3.52787e-19
8.44568e-19
6.01386e-20
2.28883e-19
5.48586e-21
4.24366e-20
4.25107e-21
2.96174e-23
-2.35049e-62
2.95953e-65
-1.17932e-58
3.24637e-61
-1.59383e-55
5.04326e-58
-1.02853e-52
3.33274e-55
-3.98133e-50
1.33311e-52
-1.041e-47
3.68986e-50
-1.97354e-45
7.41597e-48
-2.84282e-43
1.10342e-45
-3.21387e-41
1.2256e-43
-2.91549e-39
1.00938e-41
-2.15255e-37
5.886e-40
-1.30742e-35
1.97288e-38
-6.59635e-34
-3.78192e-36
-2.74914e-32
-1.18804e-33
-9.46108e-31
-8.3431e-32
-2.69252e-29
-3.85141e-30
-6.34264e-28
-1.33362e-28
-1.23713e-26
-3.62816e-27
-1.99708e-25
-7.9242e-26
-2.66426e-24
-1.40565e-24
-2.92961e-23
-2.03848e-23
-2.64416e-22
-2.42546e-22
-1.9468e-21
-2.37153e-21
-1.15853e-20
-1.90585e-20
-5.49193e-20
-1.25788e-19
-2.02143e-19