/*--------------------------------*- C++ -*----------------------------------*\
| =========                 |                                                 |
| \\      /  F ield         | OpenFOAM: The Open Source CFD Toolbox           |
|  \\    /   O peration     | Version:  2.4.0                                 |
|   \\  /    A nd           | Web:      www.OpenFOAM.org                      |
|    \\/     M anipulation  |                                                 |
\*---------------------------------------------------------------------------*/
FoamFile
{
    version     2.0;
    format      ascii;
    class       volVectorField;
    location    "0.12";
    object      U;
}
// * * * * * * * * * * * * * * * * * * * * * * * * * * * * * * * * * * * * * //

dimensions      [0 1 -1 0 0 0 0];

internalField   nonuniform List<vector> 
10000
(
(-2.07653e-07 4.26817e-07 0)
(1.18664e-06 -1.13742e-06 0)
(5.21468e-06 -1.59889e-06 0)
(8.22454e-06 -9.57034e-07 0)
(8.45998e-06 1.11443e-07 0)
(4.74462e-06 1.24703e-06 0)
(-2.58711e-06 2.23313e-06 0)
(-1.27206e-05 2.97732e-06 0)
(-2.46768e-05 3.41844e-06 0)
(-3.74068e-05 3.53768e-06 0)
(-4.99097e-05 3.35891e-06 0)
(-6.12724e-05 2.94182e-06 0)
(-7.06889e-05 2.36354e-06 0)
(-7.74617e-05 1.70094e-06 0)
(-8.09796e-05 1.00821e-06 0)
(-8.07045e-05 2.96366e-07 0)
(-7.61574e-05 -4.50958e-07 0)
(-6.69315e-05 -1.28494e-06 0)
(-5.27238e-05 -2.24537e-06 0)
(-3.33633e-05 -3.33887e-06 0)
(-8.84349e-06 -4.52422e-06 0)
(2.06765e-05 -5.71446e-06 0)
(5.48911e-05 -6.79944e-06 0)
(9.33803e-05 -7.67765e-06 0)
(0.000135641 -8.29361e-06 0)
(0.000181096 -8.65419e-06 0)
(0.000229075 -8.8203e-06 0)
(0.000278779 -8.87715e-06 0)
(0.000329232 -8.89385e-06 0)
(0.000379267 -8.88935e-06 0)
(0.000427545 -8.81928e-06 0)
(0.000472631 -8.58905e-06 0)
(0.000513099 -8.08695e-06 0)
(0.000547642 -7.22407e-06 0)
(0.00057515 -5.96816e-06 0)
(0.000594742 -4.35966e-06 0)
(0.000605764 -2.50437e-06 0)
(0.000607731 -5.44159e-07 0)
(0.000600297 1.39912e-06 0)
(0.000583204 3.22024e-06 0)
(0.00055624 4.88646e-06 0)
(0.000519258 6.42709e-06 0)
(0.000472201 7.90931e-06 0)
(0.000415147 9.40364e-06 0)
(0.000348342 1.09534e-05 0)
(0.000272238 1.25517e-05 0)
(0.000187522 1.41351e-05 0)
(9.50983e-05 1.56127e-05 0)
(-3.94567e-06 1.68931e-05 0)
(-0.000108328 1.78786e-05 0)
(-4.77894e-07 5.43871e-07 0)
(2.8358e-06 -5.80279e-06 0)
(9.39535e-06 -7.18788e-06 0)
(1.41763e-05 -3.4901e-06 0)
(1.33616e-05 2.80037e-06 0)
(5.22321e-06 9.43296e-06 0)
(-9.74922e-06 1.52366e-05 0)
(-3.01159e-05 1.94956e-05 0)
(-5.40589e-05 2.18988e-05 0)
(-7.94773e-05 2.23656e-05 0)
(-0.000104206 2.09649e-05 0)
(-0.000126107 1.78604e-05 0)
(-0.000143129 1.32595e-05 0)
(-0.000153368 7.37952e-06 0)
(-0.000155115 4.21849e-07 0)
(-0.000146909 -7.44713e-06 0)
(-0.000127587 -1.60868e-05 0)
(-9.63168e-05 -2.53651e-05 0)
(-5.25799e-05 -3.51161e-05 0)
(3.85174e-06 -4.51216e-05 0)
(7.2969e-05 -5.51096e-05 0)
(0.00015455 -6.4768e-05 0)
(0.000248158 -7.37778e-05 0)
(0.000353106 -8.18411e-05 0)
(0.000468355 -8.87051e-05 0)
(0.000592415 -9.41527e-05 0)
(0.000723243 -9.79721e-05 0)
(0.000858206 -9.99259e-05 0)
(0.000994123 -9.97435e-05 0)
(0.0011274 -9.71519e-05 0)
(0.00125425 -9.19409e-05 0)
(0.00137096 -8.40328e-05 0)
(0.00147413 -7.35197e-05 0)
(0.00156084 -6.06498e-05 0)
(0.00162864 -4.5779e-05 0)
(0.00167553 -2.93049e-05 0)
(0.00169975 -1.16092e-05 0)
(0.00169973 6.98479e-06 0)
(0.00167404 2.62356e-05 0)
(0.00162135 4.5955e-05 0)
(0.00154058 6.60037e-05 0)
(0.00143099 8.6245e-05 0)
(0.00129226 0.000106496 0)
(0.00112461 0.000126486 0)
(0.000928894 0.000145845 0)
(0.000706598 0.000164113 0)
(0.000459893 0.000180769 0)
(0.00019161 0.000195284 0)
(-9.47764e-05 0.000207186 0)
(-0.000395206 0.000216075 0)
(-5.05917e-07 -1.06e-06 0)
(3.78725e-06 -1.35744e-05 0)
(9.92912e-06 -1.41057e-05 0)
(1.16415e-05 -4.63837e-06 0)
(4.42826e-06 9.94274e-06 0)
(-1.31925e-05 2.53087e-05 0)
(-4.02225e-05 3.8652e-05 0)
(-7.47468e-05 4.82981e-05 0)
(-0.000114061 5.34971e-05 0)
(-0.000155112 5.40407e-05 0)
(-0.000194737 5.00463e-05 0)
(-0.000229817 4.18191e-05 0)
(-0.000257376 2.97555e-05 0)
(-0.00027465 1.42813e-05 0)
(-0.000279167 -4.17222e-06 0)
(-0.000268803 -2.51772e-05 0)
(-0.000241836 -4.83005e-05 0)
(-0.000196959 -7.30552e-05 0)
(-0.000133295 -9.88868e-05 0)
(-5.03889e-05 -0.000125165 0)
(5.18252e-05 -0.000151204 0)
(0.000173036 -0.000176304 0)
(0.000312529 -0.000199795 0)
(0.000469162 -0.000221046 0)
(0.00064127 -0.000239439 0)
(0.000826561 -0.000254311 0)
(0.00102202 -0.000264891 0)
(0.00122382 -0.000270286 0)
(0.00142736 -0.000269549 0)
(0.0016274 -0.000261847 0)
(0.00181828 -0.000246669 0)
(0.00199434 -0.000223996 0)
(0.0021503 -0.000194327 0)
(0.00228152 -0.00015855 0)
(0.00238411 -0.000117729 0)
(0.00245481 -7.28829e-05 0)
(0.00249081 -2.48408e-05 0)
(0.00248964 2.58089e-05 0)
(0.00244904 7.86517e-05 0)
(0.00236696 0.000133378 0)
(0.00224168 0.000189634 0)
(0.00207194 0.000246904 0)
(0.00185711 0.000304427 0)
(0.00159737 0.000361167 0)
(0.00129388 0.000415843 0)
(0.000948848 0.000467016 0)
(0.000565628 0.000513203 0)
(0.000148703 0.000552992 0)
(-0.000296395 0.000585168 0)
(-0.000763223 0.000608758 0)
(-5.70467e-07 -2.46362e-06 0)
(1.28084e-06 -1.84952e-05 0)
(1.71616e-06 -1.55398e-05 0)
(-5.79549e-06 2.57565e-06 0)
(-2.53246e-05 2.81963e-05 0)
(-5.78065e-05 5.47634e-05 0)
(-0.000101894 7.75541e-05 0)
(-0.000154943 9.3907e-05 0)
(-0.000213509 0.000102534 0)
(-0.000273767 0.000103006 0)
(-0.000331775 9.54133e-05 0)
(-0.000383661 8.01605e-05 0)
(-0.000425734 5.783e-05 0)
(-0.00045457 2.91039e-05 0)
(-0.000467085 -5.26926e-06 0)
(-0.000460595 -4.44774e-05 0)
(-0.000432867 -8.76207e-05 0)
(-0.000382153 -0.000133699 0)
(-0.00030724 -0.000181616 0)
(-0.000207469 -0.00023021 0)
(-8.27382e-05 -0.000278304 0)
(6.65231e-05 -0.000324754 0)
(0.000239348 -0.000368461 0)
(0.000434222 -0.000408346 0)
(0.000649065 -0.000443246 0)
(0.000881124 -0.000471786 0)
(0.00112682 -0.000492316 0)
(0.00138159 -0.000502947 0)
(0.00163981 -0.000501763 0)
(0.00189482 -0.000487189 0)
(0.00213927 -0.000458401 0)
(0.00236568 -0.000415607 0)
(0.002567 -0.00036 0)
(0.0027371 -0.000293398 0)
(0.00287093 -0.000217766 0)
(0.00296434 -0.000134791 0)
(0.00301381 -4.56724e-05 0)
(0.00301617 4.88399e-05 0)
(0.00296841 0.000148237 0)
(0.00286769 0.000251998 0)
(0.00271145 0.000359331 0)
(0.00249768 0.000468997 0)
(0.00222515 0.00057925 0)
(0.00189373 0.000687869 0)
(0.00150464 0.000792283 0)
(0.00106062 0.000889745 0)
(0.000565998 0.00097752 0)
(2.67195e-05 0.00105303 0)
(-0.000549835 0.00111404 0)
(-0.00115513 0.00115872 0)
(-9.11789e-07 -1.60527e-06 0)
(-4.14872e-06 -1.65495e-05 0)
(-1.32496e-05 -6.69658e-06 0)
(-3.42495e-05 2.29768e-05 0)
(-7.03107e-05 6.22604e-05 0)
(-0.000121628 0.00010195 0)
(-0.000186283 0.000135672 0)
(-0.000260968 0.000159705 0)
(-0.000341596 0.000172154 0)
(-0.000423715 0.000172295 0)
(-0.000502772 0.000160132 0)
(-0.000574303 0.000136139 0)
(-0.000634048 0.000101097 0)
(-0.000678037 5.60008e-05 0)
(-0.000702659 2.01169e-06 0)
(-0.000704725 -5.95438e-05 0)
(-0.000681547 -0.000127182 0)
(-0.000630996 -0.000199285 0)
(-0.000551586 -0.000274143 0)
(-0.00044252 -0.000350017 0)
(-0.000303687 -0.0004252 0)
(-0.000135639 -0.000498063 0)
(6.0501e-05 -0.000567015 0)
(0.00028307 -0.000630397 0)
(0.000529841 -0.000686333 0)
(0.000797933 -0.000732544 0)
(0.00108357 -0.000766265 0)
(0.00138174 -0.000784352 0)
(0.00168598 -0.000783667 0)
(0.00198828 -0.000761692 0)
(0.00227954 -0.000717218 0)
(0.00255037 -0.000650793 0)
(0.00279207 -0.000564552 0)
(0.00299737 -0.000461484 0)
(0.0031605 -0.000344598 0)
(0.00327691 -0.000216241 0)
(0.00334271 -7.78784e-05 0)
(0.00335416 6.96814e-05 0)
(0.00330744 0.00022585 0)
(0.00319865 0.000389797 0)
(0.00302413 0.000560106 0)
(0.00278077 0.000734588 0)
(0.00246648 0.000910267 0)
(0.00208064 0.0010835 0)
(0.00162436 0.00125017 0)
(0.00110074 0.00140595 0)
(0.000514919 0.0015465 0)
(-0.000125908 0.0016677 0)
(-0.000812714 0.00176581 0)
(-0.00153506 0.00183774 0)
(-1.36488e-06 2.24976e-06 0)
(-1.1015e-05 -5.66489e-06 0)
(-3.17112e-05 1.53128e-05 0)
(-6.85319e-05 5.98283e-05 0)
(-0.000123508 0.000115252 0)
(-0.000195933 0.000169954 0)
(-0.000283194 0.000215923 0)
(-0.000381351 0.000248399 0)
(-0.000485747 0.00026487 0)
(-0.000591399 0.000264286 0)
(-0.000693257 0.000246549 0)
(-0.000786367 0.000212201 0)
(-0.000865986 0.000162252 0)
(-0.000927663 9.80662e-05 0)
(-0.000967307 2.13021e-05 0)
(-0.000981269 -6.6119e-05 0)
(-0.000966457 -0.000162054 0)
(-0.000920427 -0.000264205 0)
(-0.000841492 -0.000370199 0)
(-0.000728777 -0.000477676 0)
(-0.000582198 -0.000584362 0)
(-0.000402373 -0.000688082 0)
(-0.000190496 -0.000786698 0)
(5.17998e-05 -0.000877938 0)
(0.000322451 -0.000959161 0)
(0.000618766 -0.00102712 0)
(0.000937093 -0.0010778 0)
(0.00127228 -0.00110654 0)
(0.00161716 -0.00110857 0)
(0.00196234 -0.00108 0)
(0.0022967 -0.00101894 0)
(0.00260872 -0.000926331 0)
(0.00288804 -0.000805605 0)
(0.00312655 -0.000661351 0)
(0.00331831 -0.000497955 0)
(0.00345894 -0.000318536 0)
(0.00354449 -0.000124738 0)
(0.00357073 8.27385e-05 0)
(0.00353284 0.000303366 0)
(0.00342559 0.000536102 0)
(0.00324384 0.000778938 0)
(0.00298312 0.00102871 0)
(0.00264026 0.00128112 0)
(0.00221388 0.0015309 0)
(0.0017048 0.00177206 0)
(0.00111629 0.00199821 0)
(0.000454058 0.00220288 0)
(-0.000273632 0.00237981 0)
(-0.00105626 0.00252322 0)
(-0.00188154 0.00262831 0)
(-1.88055e-06 9.56058e-06 0)
(-1.83402e-05 1.51027e-05 0)
(-5.1458e-05 5.18336e-05 0)
(-0.000105197 0.000114656 0)
(-0.000180219 0.000188782 0)
(-0.000274859 0.000260361 0)
(-0.000385779 0.000319828 0)
(-0.000508433 0.000361427 0)
(-0.000637645 0.000382052 0)
(-0.000767966 0.000380333 0)
(-0.000893906 0.000356072 0)
(-0.00101007 0.000309906 0)
(-0.00111128 0.000243109 0)
(-0.00119261 0.00015747 0)
(-0.00124953 5.52053e-05 0)
(-0.00127797 -6.11213e-05 0)
(-0.00127449 -0.000188661 0)
(-0.00123639 -0.000324398 0)
(-0.00116185 -0.000465249 0)
(-0.00104995 -0.000608179 0)
(-0.000900657 -0.000750276 0)
(-0.000714619 -0.000888772 0)
(-0.000492993 -0.00102097 0)
(-0.000237253 -0.00114406 0)
(5.08961e-05 -0.00125475 0)
(0.000369321 -0.00134891 0)
(0.000714898 -0.00142119 0)
(0.00108271 -0.00146504 0)
(0.00146515 -0.00147341 0)
(0.00185136 -0.00144018 0)
(0.00222771 -0.00136222 0)
(0.00257996 -0.00124098 0)
(0.00289592 -0.00108192 0)
(0.00316693 -0.000892084 0)
(0.00338759 -0.000677902 0)
(0.00355435 -0.000443439 0)
(0.00366367 -0.000190246 0)
(0.00371081 8.15617e-05 0)
(0.00368973 0.000372007 0)
(0.0035935 0.000680217 0)
(0.00341514 0.00100383 0)
(0.00314847 0.00133874 0)
(0.00278884 0.00167916 0)
(0.00233382 0.00201781 0)
(0.00178361 0.00234624 0)
(0.00114135 0.00265535 0)
(0.000413148 0.0029358 0)
(-0.000391811 0.00317856 0)
(-0.00126149 0.00337534 0)
(-0.00218159 0.00351924 0)
(-2.41246e-06 2.04532e-05 0)
(-2.56753e-05 4.60363e-05 0)
(-7.14718e-05 0.00010334 0)
(-0.000142468 0.000188118 0)
(-0.00023795 0.000283657 0)
(-0.000355286 0.000374051 0)
(-0.000490425 0.000448288 0)
(-0.000638245 0.000499698 0)
(-0.000793085 0.000524622 0)
(-0.000949069 0.000521412 0)
(-0.00110029 0.000489803 0)
(-0.00124092 0.000430563 0)
(-0.00136534 0.000345272 0)
(-0.0014682 0.000236173 0)
(-0.00154451 0.000106059 0)
(-0.00158983 -4.18392e-05 0)
(-0.00160041 -0.000203949 0)
(-0.00157335 -0.000376491 0)
(-0.00150671 -0.000555597 0)
(-0.00139957 -0.000737449 0)
(-0.0012519 -0.000918396 0)
(-0.00106439 -0.00109504 0)
(-0.000838178 -0.00126421 0)
(-0.000574503 -0.00142276 0)
(-0.000274567 -0.0015671 0)
(6.03755e-05 -0.00169248 0)
(0.000428361 -0.00179218 0)
(0.000825398 -0.00185726 0)
(0.00124391 -0.00187727 0)
(0.0016715 -0.00184248 0)
(0.00209117 -0.00174749 0)
(0.00248469 -0.00159463 0)
(0.0028376 -0.00139286 0)
(0.00314114 -0.00115319 0)
(0.00339137 -0.000885209 0)
(0.00358674 -0.000593963 0)
(0.0037247 -0.000280086 0)
(0.00380002 5.79524e-05 0)
(0.00380508 0.000421658 0)
(0.00373065 0.000810926 0)
(0.00356735 0.00122326 0)
(0.00330669 0.0016535 0)
(0.00294206 0.0020939 0)
(0.00246945 0.00253453 0)
(0.00188807 0.00296376 0)
(0.0012007 0.00336893 0)
(0.00041375 0.00373721 0)
(-0.000462628 0.00405625 0)
(-0.00141465 0.00431483 0)
(-0.00242562 0.0045037 0)
(-2.95855e-06 3.48499e-05 0)
(-3.28525e-05 8.70049e-05 0)
(-9.13299e-05 0.000169895 0)
(-0.000179596 0.00028046 0)
(-0.00029564 0.000400272 0)
(-0.000435905 0.000511532 0)
(-0.000595662 0.000601901 0)
(-0.000769248 0.000663889 0)
(-0.000950549 0.000693366 0)
(-0.00113327 0.000688465 0)
(-0.00131108 0.000648909 0)
(-0.00147775 0.000575633 0)
(-0.0016272 0.000470538 0)
(-0.00175364 0.000336321 0)
(-0.00185167 0.000176333 0)
(-0.00191651 -5.53666e-06 0)
(-0.00194409 -0.000204967 0)
(-0.00193129 -0.000417338 0)
(-0.00187606 -0.000637864 0)
(-0.00177739 -0.000861776 0)
(-0.00163533 -0.00108456 0)
(-0.00145068 -0.00130215 0)
(-0.00122466 -0.0015111 0)
(-0.000958424 -0.00170833 0)
(-0.000652568 -0.00189046 0)
(-0.000307063 -0.00205265 0)
(7.8107e-05 -0.00218699 0)
(0.000501075 -0.00228146 0)
(0.000955273 -0.0023206 0)
(0.00142677 -0.00228881 0)
(0.00189351 -0.00217659 0)
(0.00233107 -0.00198801 0)
(0.0027219 -0.00173831 0)
(0.00305788 -0.00144482 0)
(0.00333827 -0.00112182 0)
(0.00356539 -0.000774977 0)
(0.00373854 -0.000402152 0)
(0.00385174 1.67113e-06 0)
(0.00389493 0.000440744 0)
(0.00385562 0.000916278 0)
(0.0037211 0.0014256 0)
(0.00347976 0.00196204 0)
(0.00312237 0.00251525 0)
(0.00264289 0.00307184 0)
(0.00203918 0.00361623 0)
(0.00131358 0.00413155 0)
(0.000472917 0.00460079 0)
(-0.000471479 0.00500786 0)
(-0.00150382 0.00533815 0)
(-0.00260453 0.0055796 0)
(-3.51588e-06 5.26456e-05 0)
(-3.98543e-05 0.0001379 0)
(-0.000110939 0.000251471 0)
(-0.000216407 0.000391773 0)
(-0.000353047 0.000538849 0)
(-0.000516444 0.000673153 0)
(-0.000701243 0.000781153 0)
(-0.000901277 0.000854651 0)
(-0.00111 0.000889145 0)
(-0.00132069 0.000882625 0)
(-0.00152664 0.000834853 0)
(-0.00172116 0.000746946 0)
(-0.00189777 0.000621108 0)
(-0.00205024 0.000460446 0)
(-0.0021728 0.000268825 0)
(-0.00226026 5.07718e-05 0)
(-0.00230822 -0.000188597 0)
(-0.00231326 -0.0004437 0)
(-0.00227306 -0.000708645 0)
(-0.00218654 -0.000977507 0)
(-0.00205383 -0.00124473 0)
(-0.00187604 -0.00150559 0)
(-0.00165479 -0.00175651 0)
(-0.00139145 -0.00199498 0)
(-0.00108614 -0.00221869 0)
(-0.000737096 -0.00242362 0)
(-0.000341187 -0.00260119 0)
(0.000103601 -0.0027358 0)
(0.00059356 -0.00280482 0)
(0.00111367 -0.00278298 0)
(0.00163395 -0.00265316 0)
(0.00211959 -0.00242293 0)
(0.00254911 -0.00211872 0)
(0.00291664 -0.0017675 0)
(0.00322742 -0.00139066 0)
(0.00349077 -0.000993139 0)
(0.0037087 -0.000566562 0)
(0.00387338 -9.97251e-05 0)
(0.00397056 0.000415775 0)
(0.00398293 0.00098267 0)
(0.00389323 0.0015977 0)
(0.00368591 0.002252 0)
(0.00334854 0.00293184 0)
(0.00287274 0.00361968 0)
(0.0022549 0.0042953 0)
(0.00149689 0.00493692 0)
(0.000606164 0.00552264 0)
(-0.000404514 0.00603181 0)
(-0.00151715 0.00644582 0)
(-0.00270896 0.006749 0)
(-4.07401e-06 7.37522e-05 0)
(-4.67375e-05 0.000198666 0)
(-0.000130387 0.000348053 0)
(-0.000253026 0.000522119 0)
(-0.00041035 0.000699563 0)
(-0.000597161 0.000859235 0)
(-0.000807527 0.000986551 0)
(-0.00103481 0.00107274 0)
(-0.00127205 0.00111302 0)
(-0.00151215 0.00110533 0)
(-0.00174798 0.00104948 0)
(-0.0019725 0.000946765 0)
(-0.00217881 0.000799632 0)
(-0.00236029 0.000611521 0)
(-0.00251076 0.000386751 0)
(-0.00262458 0.000130477 0)
(-0.00269686 -0.000151338 0)
(-0.0027237 -0.000452005 0)
(-0.0027024 -0.000764327 0)
(-0.00263167 -0.00108097 0)
(-0.00251177 -0.0013951 0)
(-0.00234439 -0.00170114 0)
(-0.00213205 -0.00199549 0)
(-0.00187692 -0.00227673 0)
(-0.00157914 -0.0025447 0)
(-0.00123509 -0.00279786 0)
(-0.000837135 -0.00302848 0)
(-0.000376776 -0.00321738 0)
(0.000148394 -0.00333216 0)
(0.000724095 -0.00333156 0)
(0.00130751 -0.0031832 0)
(0.001846 -0.00290197 0)
(0.00231394 -0.00253439 0)
(0.00271077 -0.00212122 0)
(0.00305194 -0.00169498 0)
(0.00335872 -0.00125704 0)
(0.00363603 -0.000786447 0)
(0.00387124 -0.000262112 0)
(0.00404292 0.000329824 0)
(0.00412693 0.000993226 0)
(0.00410027 0.00172344 0)
(0.00394287 0.00250859 0)
(0.00363882 0.00333082 0)
(0.00317729 0.00416767 0)
(0.00255318 0.00499349 0)
(0.00176783 0.00578073 0)
(0.000829411 0.0065015 0)
(-0.000247633 0.00712946 0)
(-0.00144288 0.00764096 0)
(-0.00272998 0.00801598 0)
(-4.62563e-06 9.81355e-05 0)
(-5.35933e-05 0.000269278 0)
(-0.00014983 0.000459649 0)
(-0.000289706 0.000671578 0)
(-0.000467901 0.000882606 0)
(-0.000678508 0.00107014 0)
(-0.000915062 0.0012187 0)
(-0.00117049 0.00131907 0)
(-0.00143746 0.00136631 0)
(-0.00170853 0.00135833 0)
(-0.00197625 0.00129501 0)
(-0.00223323 0.00117776 0)
(-0.00247224 0.00100919 0)
(-0.00268627 0.000792978 0)
(-0.00286867 0.000533842 0)
(-0.00301323 0.000237531 0)
(-0.00311441 -8.91146e-05 0)
(-0.00316754 -0.000438191 0)
(-0.0031693 -0.000801024 0)
(-0.003118 -0.00116857 0)
(-0.003014 -0.0015323 0)
(-0.00285975 -0.00188533 0)
(-0.00265927 -0.00222378 0)
(-0.00241661 -0.0025476 0)
(-0.00213321 -0.00286025 0)
(-0.00180421 -0.00316543 0)
(-0.00141629 -0.00345947 0)
(-0.000950817 -0.00372116 0)
(-0.000393507 -0.00390565 0)
(0.000247258 -0.0039451 0)
(0.00090735 -0.00377523 0)
(0.0015028 -0.00342733 0)
(0.00200665 -0.00298427 0)
(0.00242897 -0.00250421 0)
(0.00280108 -0.00203845 0)
(0.00316379 -0.0015791 0)
(0.00352286 -0.00108054 0)
(0.00385486 -0.00050726 0)
(0.00412677 0.000160748 0)
(0.00430554 0.00092692 0)
(0.00436188 0.00178383 0)
(0.00427116 0.00271551 0)
(0.00401403 0.0036991 0)
(0.00357722 0.00470629 0)
(0.00295404 0.00570493 0)
(0.00214518 0.00666051 0)
(0.00115947 0.00753788 0)
(1.33768e-05 0.00830366 0)
(-0.00126979 0.00892807 0)
(-0.00265961 0.00938597 0)
(-5.17756e-06 0.000125842 0)
(-6.05216e-05 0.000349751 0)
(-0.000169431 0.000586302 0)
(-0.000326701 0.000840265 0)
(-0.000526036 0.00108822 0)
(-0.000760885 0.00130632 0)
(-0.00102429 0.00147835 0)
(-0.0013088 0.00159477 0)
(-0.00160677 0.00165057 0)
(-0.00191049 0.00164365 0)
(-0.00221227 0.00157395 0)
(-0.00250449 0.00144291 0)
(-0.00277963 0.00125322 0)
(-0.00303028 0.00100873 0)
(-0.00324925 0.000714437 0)
(-0.00342962 0.000376619 0)
(-0.00356495 2.92263e-06 0)
(-0.00364955 -0.000397561 0)
(-0.00367906 -0.000814545 0)
(-0.00365098 -0.00123694 0)
(-0.00356542 -0.00165383 0)
(-0.00342556 -0.00205613 0)
(-0.00323753 -0.0024387 0)
(-0.0030089 -0.00280267 0)
(-0.00274493 -0.00315654 0)
(-0.00244176 -0.00351361 0)
(-0.00208002 -0.00388025 0)
(-0.00162674 -0.00423784 0)
(-0.00104611 -0.00452814 0)
(-0.000327868 -0.00463936 0)
(0.000426806 -0.00443917 0)
(0.00107844 -0.00399809 0)
(0.00161137 -0.00346542 0)
(0.0020546 -0.00291278 0)
(0.00246125 -0.00242707 0)
(0.00290292 -0.00198018 0)
(0.00337847 -0.00147741 0)
(0.00384278 -0.000865227 0)
(0.0042459 -0.000119083 0)
(0.00454475 0.000759774 0)
(0.00470471 0.00175892 0)
(0.00469726 0.00285691 0)
(0.00449993 0.00402483 0)
(0.00409705 0.0052275 0)
(0.00348028 0.00642512 0)
(0.00264952 0.00757505 0)
(0.00161423 0.00863362 0)
(0.000393237 0.00955903 0)
(-0.000986556 0.0103141 0)
(-0.00248997 0.0108676 0)
(-5.75365e-06 0.00015699 0)
(-6.76111e-05 0.000440117 0)
(-0.000189318 0.000728075 0)
(-0.000364177 0.00102833 0)
(-0.000584937 0.00131672 0)
(-0.000844459 0.00156831 0)
(-0.00113534 0.00176633 0)
(-0.00144983 0.00190107 0)
(-0.00178005 0.00196746 0)
(-0.00211816 0.00196344 0)
(-0.00245633 0.00188895 0)
(-0.00278679 0.00174541 0)
(-0.00310177 0.00153553 0)
(-0.00339351 0.0012632 0)
(-0.00365422 0.000933584 0)
(-0.00387614 0.000553287 0)
(-0.00405174 0.000130532 0)
(-0.00417395 -0.00032462 0)
(-0.0042368 -0.000800263 0)
(-0.00423622 -0.00128291 0)
(-0.00417118 -0.00175839 0)
(-0.004045 -0.00221381 0)
(-0.00386618 -0.00264086 0)
(-0.00364781 -0.00304026 0)
(-0.00340337 -0.00342635 0)
(-0.00313483 -0.00382782 0)
(-0.00281831 -0.00427112 0)
(-0.00240292 -0.00475006 0)
(-0.00181849 -0.00519954 0)
(-0.00100739 -0.00543882 0)
(-0.000138022 -0.005182 0)
(0.000551881 -0.00460394 0)
(0.00109787 -0.00397532 0)
(0.00156022 -0.00334096 0)
(0.00201655 -0.00287516 0)
(0.00258286 -0.00249824 0)
(0.00322882 -0.00202025 0)
(0.00387133 -0.0013747 0)
(0.00443973 -0.000540349 0)
(0.00488331 0.000468042 0)
(0.00516548 0.0016306 0)
(0.0052553 0.00291921 0)
(0.00512795 0.00429823 0)
(0.00476546 0.00572502 0)
(0.00415778 0.00715138 0)
(0.00330388 0.00852545 0)
(0.00221362 0.00979374 0)
(0.000908385 0.0109043 0)
(-0.000580568 0.0118108 0)
(-0.00221246 0.0124747 0)
(-6.38489e-06 0.000191737 0)
(-7.49059e-05 0.000540387 0)
(-0.000209525 0.00088502 0)
(-0.000402129 0.00123593 0)
(-0.000644529 0.00156839 0)
(-0.000929048 0.00185664 0)
(-0.00124791 0.0020835 0)
(-0.00159315 0.00223917 0)
(-0.00195679 0.00231861 0)
(-0.00233097 0.00231979 0)
(-0.00270784 0.00224264 0)
(-0.00307959 0.00208855 0)
(-0.00343826 0.00186016 0)
(-0.00377576 0.0015613 0)
(-0.00408375 0.00119706 0)
(-0.00435363 0.000774022 0)
(-0.00457664 0.000300548 0)
(-0.00474397 -0.000212769 0)
(-0.00484728 -0.000752683 0)
(-0.00487971 -0.00130317 0)
(-0.0048375 -0.00184583 0)
(-0.00472243 -0.00236191 0)
(-0.00454457 -0.00283651 0)
(-0.0043242 -0.00326584 0)
(-0.00408944 -0.00366826 0)
(-0.00385632 -0.00409524 0)
(-0.00360003 -0.00460792 0)
(-0.00325225 -0.00522706 0)
(-0.00270005 -0.0059064 0)
(-0.00178253 -0.00638337 0)
(-0.000786736 -0.00599297 0)
(-0.000119733 -0.00520808 0)
(0.000404292 -0.00451681 0)
(0.000893668 -0.00377918 0)
(0.00145101 -0.0034318 0)
(0.00223895 -0.00320409 0)
(0.00313464 -0.00277064 0)
(0.00400655 -0.00207883 0)
(0.00476932 -0.00113115 0)
(0.00537528 3.25309e-05 0)
(0.00579163 0.00138531 0)
(0.005987 0.00289273 0)
(0.00593504 0.00451279 0)
(0.00561553 0.00619578 0)
(0.0050163 0.0078847 0)
(0.00413479 0.00951725 0)
(0.00298061 0.0110283 0)
(0.00157758 0.0123535 0)
(-3.79858e-05 0.0134351 0)
(-0.00181842 0.0142254 0)
(-7.10013e-06 0.000230236 0)
(-8.23899e-05 0.000650543 0)
(-0.000229955 0.00105716 0)
(-0.000440332 0.00146317 0)
(-0.000704418 0.0018435 0)
(-0.00101406 0.00217177 0)
(-0.0013612 0.00243057 0)
(-0.00173775 0.0026101 0)
(-0.0021358 0.00270543 0)
(-0.00254753 0.00271458 0)
(-0.00296523 0.00263751 0)
(-0.00338107 0.00247559 0)
(-0.00378708 0.00223133 0)
(-0.00417494 0.00190832 0)
(-0.00453594 0.00151126 0)
(-0.00486078 0.00104623 0)
(-0.00513945 0.000521085 0)
(-0.00536113 -5.37856e-05 0)
(-0.00551433 -0.000664543 0)
(-0.0055879 -0.00129303 0)
(-0.0055729 -0.00191622 0)
(-0.00546635 -0.00250729 0)
(-0.00527663 -0.00303981 0)
(-0.00503087 -0.0034971 0)
(-0.00478003 -0.00389393 0)
(-0.00456595 -0.00431398 0)
(-0.0043642 -0.00487391 0)
(-0.0040951 -0.00562761 0)
(-0.00362227 -0.00659592 0)
(-0.00259236 -0.00753748 0)
(-0.00151103 -0.00678661 0)
(-0.0010298 -0.00570449 0)
(-0.000589094 -0.00511023 0)
(-2.99951e-05 -0.00423464 0)
(0.000783822 -0.00426015 0)
(0.00198843 -0.0042153 0)
(0.00322024 -0.00379964 0)
(0.00435274 -0.00301155 0)
(0.00531784 -0.00190796 0)
(0.00608853 -0.000555956 0)
(0.0066394 0.00101745 0)
(0.0069401 0.00277405 0)
(0.00696294 0.00466738 0)
(0.00668473 0.00664164 0)
(0.00608969 0.00863086 0)
(0.00517227 0.0105606 0)
(0.00394075 0.0123517 0)
(0.00242095 0.0139248 0)
(0.000655252 0.0152079 0)
(-0.00129985 0.0161421 0)
(-7.90354e-06 0.000272581 0)
(-8.99669e-05 0.000770527 0)
(-0.000250357 0.00124444 0)
(-0.000478319 0.00171004 0)
(-0.000763887 0.00214212 0)
(-0.0010985 0.00251389 0)
(-0.00147391 0.0028079 0)
(-0.00188205 0.00301449 0)
(-0.00231513 0.00312888 0)
(-0.00276552 0.00314927 0)
(-0.00322567 0.00307571 0)
(-0.00368792 0.00290955 0)
(-0.00414438 0.00265313 0)
(-0.00458681 0.00230957 0)
(-0.00500638 0.00188285 0)
(-0.00539341 0.00137799 0)
(-0.00573687 0.000801611 0)
(-0.00602395 0.000162788 0)
(-0.00623957 -0.000525466 0)
(-0.0063669 -0.00124436 0)
(-0.00638896 -0.00196715 0)
(-0.00629305 -0.0026578 0)
(-0.00607859 -0.00327281 0)
(-0.00577378 -0.00376839 0)
(-0.00546267 -0.00413641 0)
(-0.00522914 -0.00450714 0)
(-0.00503427 -0.00508915 0)
(-0.00477779 -0.00594355 0)
(-0.00438575 -0.00715635 0)
(-0.0033041 -0.0089195 0)
(-0.00236418 -0.00725583 0)
(-0.00229337 -0.00595765 0)
(-0.00212798 -0.00563973 0)
(-0.00124175 -0.00508671 0)
(0.000376562 -0.00568209 0)
(0.00213002 -0.00565775 0)
(0.00368937 -0.00513516 0)
(0.00504093 -0.00417007 0)
(0.00617982 -0.00286404 0)
(0.00709699 -0.00129047 0)
(0.00776879 0.000533028 0)
(0.00816514 0.00256837 0)
(0.00825599 0.00476713 0)
(0.00801314 0.00706901 0)
(0.00741425 0.00939897 0)
(0.00644837 0.0116686 0)
(0.00512107 0.0137816 0)
(0.00345981 0.0156407 0)
(0.00151403 0.017156 0)
(-0.000648763 0.0182545 0)
(-8.76205e-06 0.000318765 0)
(-9.74626e-05 0.000900221 0)
(-0.000270337 0.00144668 0)
(-0.000515409 0.00197633 0)
(-0.000821935 0.002464 0)
(-0.00118101 0.00288281 0)
(-0.0015843 0.0032154 0)
(-0.00202386 0.00345241 0)
(-0.00249208 0.00358939 0)
(-0.00298159 0.0036248 0)
(-0.00348508 0.00355888 0)
(-0.0039952 0.00339298 0)
(-0.00450438 0.00312914 0)
(-0.00500473 0.0027699 0)
(-0.00548771 0.0023182 0)
(-0.00594364 0.00177758 0)
(-0.00636106 0.00115266 0)
(-0.00672572 0.000449954 0)
(-0.00701948 -0.000320558 0)
(-0.00721945 -0.00114249 0)
(-0.00729841 -0.00198867 0)
(-0.00722818 -0.00281555 0)
(-0.00698733 -0.00355953 0)
(-0.00658959 -0.0041302 0)
(-0.00616517 -0.00445522 0)
(-0.00586478 -0.00473655 0)
(-0.00558926 -0.00535333 0)
(-0.00511945 -0.00634489 0)
(-0.0044078 -0.00768607 0)
(-0.00356375 -0.0100151 0)
(-0.00280168 -0.00762795 0)
(-0.00274758 -0.00579632 0)
(-0.00284526 -0.00612888 0)
(-0.00111259 -0.00710617 0)
(0.0013186 -0.00760562 0)
(0.0030757 -0.00740402 0)
(0.00472921 -0.00666811 0)
(0.00618741 -0.00548482 0)
(0.00743976 -0.00395789 0)
(0.00846557 -0.0021437 0)
(0.00923335 -4.94362e-05 0)
(0.00970893 0.00228845 0)
(0.00985671 0.00482134 0)
(0.00964009 0.00748631 0)
(0.00902655 0.0101995 0)
(0.00799651 0.0128567 0)
(0.00655083 0.0153408 0)
(0.00471792 0.0175311 0)
(0.00255506 0.0193155 0)
(0.000143043 0.0206017 0)
(-9.60761e-06 0.000368651 0)
(-0.000104646 0.00103941 0)
(-0.000289391 0.00166351 0)
(-0.000550762 0.00226149 0)
(-0.000877338 0.00280848 0)
(-0.00125993 0.00327776 0)
(-0.00169023 0.00365234 0)
(-0.00216045 0.00392331 0)
(-0.00266321 0.00408671 0)
(-0.00319143 0.00414142 0)
(-0.00373818 0.0040879 0)
(-0.00429654 0.00392748 0)
(-0.00485953 0.00366188 0)
(-0.00541982 0.00329291 0)
(-0.00596944 0.00282242 0)
(-0.00649924 0.00225231 0)
(-0.00699806 0.00158475 0)
(-0.00745163 0.000822485 0)
(-0.00784061 -3.00357e-05 0)
(-0.00813797 -0.000963374 0)
(-0.00830664 -0.00195634 0)
(-0.00829953 -0.00296406 0)
(-0.00806071 -0.00390771 0)
(-0.00756374 -0.00462687 0)
(-0.00700672 -0.00490012 0)
(-0.00664592 -0.00505724 0)
(-0.00625101 -0.00582106 0)
(-0.00541319 -0.00719328 0)
(-0.00363501 -0.00917349 0)
(-0.00208608 -0.01079 0)
(-0.00149603 -0.00810129 0)
(-0.00113707 -0.00560891 0)
(-0.000614308 -0.00676019 0)
(0.000731206 -0.00930518 0)
(0.00264263 -0.00961549 0)
(0.00454303 -0.00921455 0)
(0.00625176 -0.00827221 0)
(0.00778037 -0.00688838 0)
(0.00911566 -0.00514298 0)
(0.0102229 -0.00308385 0)
(0.0110663 -0.000708524 0)
(0.0116063 0.00194816 0)
(0.0118003 0.00483946 0)
(0.0116012 0.00790205 0)
(0.010963 0.0110444 0)
(0.00985265 0.0141448 0)
(0.0082629 0.017059 0)
(0.00622189 0.0196353 0)
(0.00379585 0.0217316 0)
(0.00108219 0.0232312 0)
(-1.03521e-05 0.000421973 0)
(-0.00011126 0.0011877 0)
(-0.000306957 0.00189423 0)
(-0.000583439 0.00256452 0)
(-0.000928711 0.00317432 0)
(-0.00133336 0.00369737 0)
(-0.00178917 0.0041173 0)
(-0.00228852 0.0044259 0)
(-0.00282431 0.00461986 0)
(-0.00338984 0.00469854 0)
(-0.00397866 0.00466265 0)
(-0.00458446 0.00451344 0)
(-0.0052009 0.00425224 0)
(-0.0058213 0.00388021 0)
(-0.00643834 0.00339824 0)
(-0.00704357 0.00280684 0)
(-0.00762695 0.00210585 0)
(-0.00817593 0.00129389 0)
(-0.00867337 0.000368123 0)
(-0.00909329 -0.000673882 0)
(-0.00939374 -0.00182654 0)
(-0.00951079 -0.00305462 0)
(-0.00934113 -0.00428545 0)
(-0.00878108 -0.00526901 0)
(-0.0081483 -0.00544181 0)
(-0.00787141 -0.00538202 0)
(-0.00738032 -0.00657188 0)
(-0.00603074 -0.00861648 0)
(-0.00456353 -0.0108648 0)
(-0.0038903 -0.0113722 0)
(-0.00292268 -0.00919569 0)
(-0.000566354 -0.00709061 0)
(0.00201303 -0.00822759 0)
(0.00370524 -0.0106677 0)
(0.00503142 -0.0112741 0)
(0.00658287 -0.0108815 0)
(0.00820938 -0.0098611 0)
(0.00977198 -0.0083452 0)
(0.011183 -0.00640025 0)
(0.0123699 -0.00409536 0)
(0.0132818 -0.00143154 0)
(0.0138773 0.00155692 0)
(0.0141113 0.00482825 0)
(0.0139273 0.00832314 0)
(0.0132601 0.0119463 0)
(0.0120557 0.0155557 0)
(0.0102933 0.0189716 0)
(0.00799971 0.0219999 0)
(0.00525301 0.0244588 0)
(0.0021726 0.0262004 0)
(-1.09117e-05 0.000478355 0)
(-0.000117056 0.00134446 0)
(-0.000322466 0.00213776 0)
(-0.00061246 0.0028839 0)
(-0.000974552 0.00355965 0)
(-0.00139917 0.00413956 0)
(-0.0018782 0.00460816 0)
(-0.00240426 0.00495817 0)
(-0.0029706 0.00518703 0)
(-0.003571 0.0052946 0)
(-0.00419962 0.00528177 0)
(-0.00485084 0.00514963 0)
(-0.00551888 0.00489909 0)
(-0.00619751 0.00453075 0)
(-0.00687961 0.00404484 0)
(-0.00755715 0.00344098 0)
(-0.00822115 0.00271757 0)
(-0.00886183 0.0018705 0)
(-0.0094679 0.000891097 0)
(-0.0100238 -0.000235802 0)
(-0.0104988 -0.00152934 0)
(-0.0108287 -0.00297998 0)
(-0.010868 -0.00456002 0)
(-0.0103818 -0.00595644 0)
(-0.0100142 -0.00566498 0)
(-0.0102996 -0.0053023 0)
(-0.00977164 -0.00771923 0)
(-0.00820196 -0.0102201 0)
(-0.00682018 -0.0119785 0)
(-0.0056204 -0.0122619 0)
(-0.00384911 -0.0113138 0)
(-0.000952461 -0.0102294 0)
(0.00230884 -0.0108517 0)
(0.00485264 -0.0123072 0)
(0.00680982 -0.0128745 0)
(0.00866903 -0.012545 0)
(0.0104549 -0.0114712 0)
(0.0121129 -0.00985652 0)
(0.0136159 -0.00773521 0)
(0.014893 -0.00517968 0)
(0.015877 -0.00221522 0)
(0.0165267 0.0011188 0)
(0.016803 0.00478903 0)
(0.0166418 0.00875076 0)
(0.0159515 0.0129133 0)
(0.0146447 0.0171115 0)
(0.0126792 0.0211173 0)
(0.0100801 0.0246791 0)
(0.0069423 0.0275625 0)
(0.00341552 0.0295802 0)
(-1.1232e-05 0.000537337 0)
(-0.000121814 0.00150874 0)
(-0.000335372 0.00239253 0)
(-0.000636819 0.0032175 0)
(-0.00101324 0.00396193 0)
(-0.00145497 0.00460154 0)
(-0.00195406 0.00512206 0)
(-0.00250344 0.00551729 0)