/*--------------------------------*- C++ -*----------------------------------*\
| =========                 |                                                 |
| \\      /  F ield         | OpenFOAM: The Open Source CFD Toolbox           |
|  \\    /   O peration     | Version:  2.4.0                                 |
|   \\  /    A nd           | Web:      www.OpenFOAM.org                      |
|    \\/     M anipulation  |                                                 |
\*---------------------------------------------------------------------------*/
FoamFile
{
    version     2.0;
    format      ascii;
    class       volScalarField;
    location    "0.051";
    object      p_rgh;
}
// * * * * * * * * * * * * * * * * * * * * * * * * * * * * * * * * * * * * * //

dimensions      [1 -1 -2 0 0 0 0];

internalField   nonuniform List<scalar> 
3600
(
97.778
97.7706
97.7667
97.7598
97.754
97.738
97.7274
97.6974
97.6797
97.6314
97.6043
97.5374
97.5036
97.4296
97.4098
97.3677
97.4181
97.4866
97.6312
97.7139
97.7902
97.793
97.7931
97.7811
97.7496
97.7515
97.7159
97.7263
97.7009
97.7096
97.7805
97.7781
97.7743
97.7666
97.7603
97.7439
97.7328
97.7023
97.684
97.6352
97.6071
97.5395
97.5043
97.4295
97.4079
97.3648
97.4144
97.4846
97.6311
97.7148
97.7909
97.7938
97.793
97.7815
97.7494
97.7516
97.7158
97.7263
97.7009
97.7096
97.7855
97.7846
97.7822
97.775
97.769
97.7523
97.7412
97.7099
97.6911
97.6412
97.6118
97.5427
97.5052
97.4284
97.4037
97.3586
97.4074
97.481
97.6316
97.7168
97.7925
97.7951
97.7932
97.7818
97.7492
97.7517
97.7157
97.7263
97.7009
97.7096
97.8025
97.7998
97.7971
97.7895
97.7834
97.7658
97.7543
97.7218
97.7018
97.6502
97.6188
97.5473
97.5063
97.4266
97.3973
97.3491
97.3967
97.4757
97.6328
97.7201
97.7953
97.7968
97.7937
97.7821
97.7491
97.7517
97.7156
97.7262
97.7009
97.7096
97.8227
97.8201
97.8173
97.8092
97.8028
97.7841
97.7719
97.7377
97.7163
97.6623
97.6281
97.5534
97.5078
97.4241
97.3886
97.336
97.3821
97.4685
97.6347
97.7245
97.7991
97.7989
97.7945
97.7824
97.7491
97.7515
97.7156
97.726
97.7009
97.7095
97.8485
97.8457
97.843
97.8341
97.8275
97.8073
97.7942
97.7577
97.7344
97.6774
97.6398
97.5611
97.5095
97.4209
97.3774
97.3191
97.3633
97.4593
97.6377
97.7303
97.8041
97.8016
97.7955
97.7827
97.7491
97.7513
97.7156
97.7258
97.701
97.7094
97.8803
97.8773
97.8747
97.8648
97.8578
97.8355
97.8214
97.782
97.7565
97.6959
97.654
97.5706
97.5116
97.4172
97.3637
97.2979
97.3397
97.4481
97.6418
97.7376
97.8103
97.8048
97.7968
97.7829
97.7492
97.751
97.7157
97.7256
97.701
97.7093
97.9191
97.9154
97.9127
97.9015
97.894
97.8693
97.8537
97.811
97.7827
97.718
97.6711
97.5821
97.5143
97.4132
97.3474
97.2719
97.3107
97.4345
97.6475
97.7465
97.8177
97.8085
97.7983
97.7832
97.7493
97.7507
97.7157
97.7252
97.7011
97.7091
97.9635
97.9606
97.958
97.9451
97.9367
97.9091
97.8916
97.845
97.8133
97.744
97.6913
97.5959
97.5175
97.409
97.3283
97.2406
97.2754
97.4183
97.655
97.7572
97.8265
97.8127
97.7999
97.7834
97.7494
97.7502
97.7158
97.7249
97.7012
97.7089
98.0175
98.0141
98.011
97.9954
97.9863
97.9545
97.9354
97.8838
97.8486
97.7743
97.7149
97.6125
97.5215
97.405
97.3065
97.2032
97.2329
97.3994
97.6649
97.7699
97.8366
97.8173
97.8017
97.7837
97.7495
97.7497
97.7159
97.7244
97.7013
97.7087
98.0805
98.0764
98.0727
98.0568
98.0444
98.0097
97.9852
97.9301
97.8889
97.8094
97.7424
97.6322
97.5264
97.4018
97.2819
97.1587
97.1821
97.3772
97.6777
97.7851
97.8483
97.8224
97.8037
97.7838
97.7496
97.7491
97.7159
97.724
97.7014
97.7085
98.1507
98.1444
98.1434
98.1196
98.1098
98.0653
98.0424
97.9779
97.9346
97.8485
97.7742
97.6557
97.5322
97.3998
97.2547
97.106
97.1215
97.3513
97.6942
97.803
97.8615
97.828
97.8057
97.784
97.7497
97.7485
97.716
97.7234
97.7015
97.7082
98.2468
98.24
98.2323
98.2092
98.1859
98.1442
98.1057
98.0413
97.9855
97.8967
97.811
97.6837
97.5389
97.4001
97.2251
97.0436
97.0493
97.3211
97.7143
97.8247
97.8763
97.8339
97.8078
97.784
97.7498
97.7478
97.7161
97.7229
97.7016
97.7079
98.3212
98.3102
98.3112
98.276
98.2679
98.204
98.1772
98.0948
98.043
97.9431
97.8535
97.7167
97.5454
97.4039
97.1938
96.9698
96.9634
97.2861
97.7394
97.8504
97.893
97.8402
97.8098
97.784
97.7499
97.747
97.7161
97.7223
97.7017
97.7076
98.4834
98.4691
98.4578
98.4198
98.3805
98.3213
98.2579
98.1824
98.1063
98.0103
97.9031
97.7592
97.551
97.4123
97.1621
96.8828
96.8609
97.2456
97.7708
97.8809
97.9114
97.8468
97.8119
97.7839
97.7499
97.7461
97.7162
97.7216
97.7018
97.7073
98.5522
98.5331
98.5335
98.4826
98.4625
98.3773
98.3298
98.2336
98.1678
98.0609
97.9557
97.8053
97.5564
97.4258
97.1318
96.7795
96.7381
97.1988
97.8102
97.9168
97.9317
97.8535
97.8138
97.7836
97.7498
97.7452
97.7163
97.7209
97.702
97.707
98.8216
98.7986
98.7762
98.702
98.6422
98.5493
98.452
98.3541
98.2603
98.1527
98.0309
97.8701
97.5616
97.4469
97.1053
96.6564
96.5915
97.1448
97.8592
97.9593
97.9537
97.8602
97.8155
97.7832
97.7498
97.7442
97.7163
97.7202
97.7021
97.7066
98.8873
98.8385
98.8358
98.7775
98.7191
98.5968
98.5003
98.3912
98.3097
98.2049
98.0904
97.9336
97.5636
97.4764
97.0861
96.5094
96.4156
97.0824
97.9201
98.0095
97.9774
97.8668
97.817
97.7826
97.7496
97.7432
97.7164
97.7195
97.7022
97.7062
99.1103
99.277
99.2336
99.0771
98.9881
98.8384
98.6636
98.5502
98.4391
98.3192
98.2083
98.0298
97.5632
97.5199
97.0785
96.3308
96.2059
97.0105
97.9959
98.0688
98.0028
97.8732
97.8181
97.7818
97.7494
97.7421
97.7164
97.7187
97.7024
97.7058
99.7364
99.4202
99.1764
99.2447
99.0953
98.8733
98.6759
98.5514
98.4745
98.3656
98.285
98.1234
97.5584
97.5796
97.0901
96.1196
95.9521
96.9268
98.0893
98.1385
98.0297
97.8789
97.8187
97.7808
97.7491
97.7409
97.7164
97.7179
97.7025
97.7054
100.026
99.6705
99.8166
99.5885
99.4645
99.2309
98.8348
98.7609
98.6337
98.4984
98.4632
98.2611
97.5084
97.6462
97.1139
95.8556
95.6492
96.8298
98.2061
98.2211
98.0583
97.8836
97.8188
97.7795
97.7488
97.7397
97.7164
97.717
97.7026
97.705
101.261
101.072
100.343
99.9144
99.5606
99.2007
98.7343
98.6454
98.6806
98.5138
98.5951
98.4063
97.5319
97.7894
97.2063
95.5561
95.2788
96.716
98.349
98.3168
98.0871
97.8869
97.8181
97.778
97.7483
97.7384
97.7164
97.7161
97.7027
97.7046
103.316
101.74
101.62
100.278
100.075
99.7623
98.7698
98.9089
98.8224
98.6573
98.8515
98.6011
97.361
97.8517
97.2802
95.1569
94.8317
96.5826
98.528
98.4323
98.1205
97.8884
97.8165
97.7761
97.7478
97.737
97.7163
97.7152
97.7028
97.7042
102.453
102.141
101.582
101.149
100.432
99.6254
98.37
98.5609
98.8326
98.6015
99.1045
98.8309
97.389
98.1487
97.5321
94.7394
94.288
96.4231
98.748
98.5643
98.1461
97.8869
97.8138
97.7739
97.7472
97.7356
97.7163
97.7143
97.7029
97.7037
102.558
101.874
103.629
102.971
101.969
100.687
97.9982
99.0139
99.0538
98.7318
99.4864
99.1163
97.0443
98.1991
97.7253
94.1234
93.6008
96.2466
99.0065
98.7242
98.1824
97.8835
97.8101
97.7715
97.7466
97.7341
97.7162
97.7133
97.703
97.7033
101.24
103.374
103.678
103.357
102.483
100.115
96.8028
97.9855
99.1163
98.5281
99.9716
99.4976
96.9425
98.6953
98.2395
93.5363
92.834
96.0661
99.3285
98.911
98.1981
97.8719
97.8045
97.7686
97.7457
97.7325
97.716
97.7123
97.7031
97.7028
104.177
105.42
104.77
106.37
104.936
101.653
95.2452
98.621
99.2001
98.5658
100.581
99.977
96.3177
98.7053
98.7528
92.5868
91.6778
95.7981
99.6766
99.1136
98.234
97.8631
97.7986
97.7658
97.7451
97.731
97.716
97.7113
97.7032
97.7023
109.256
113.278
105.124
110.105
106.319
100.921
90.4509
96.5654
99.5611
98.2251
101.345
100.476
95.791
99.52
99.6466
91.7528
90.6464
95.5821
100.203
99.4233
98.2309
97.8335
97.788
97.7621
97.7439
97.7291
97.7157
97.7102
97.7032
97.7018
96.7268
124.098
100.013
114.836
114.247
102.45
86.9175
97.0281
100.274
97.8894
102.482
101.435
94.5762
97.1859
100.807
84.2027
79.46
95.0712
100.632
99.6108
98.2577
97.8192
97.7812
97.7593
97.7436
97.7277
97.7158
97.7093
97.7034
97.7014
151.447
163.009
91.8896
124.02
128.476
89.7979
53.0954
84.4255
97.3953
89.7141
103.893
99.226
73.1944
82.6989
78.2948
27.5246
18.8001
62.2623
96.6898
100.24
98.2212
97.7501
97.7605
97.7544
97.7419
97.7253
97.7151
97.7079
97.7033
97.7008
97.6983
97.7042
97.6988
97.7011
97.6989
97.6996
97.6987
97.6988
97.6984
97.6984
97.6982
97.6982
97.6981
97.698
97.698
97.6979
97.6979
97.6979
97.6978
97.6978
97.6978
97.6978
97.6978
97.6978
97.6978
97.6978
97.6977
97.6978
97.6977
97.6977
97.6981
97.7042
97.6987
97.7012
97.6989
97.6996
97.6987
97.6988
97.6984
97.6984
97.6982
97.6982
97.6981
97.698
97.698
97.6979
97.6979
97.6979
97.6978
97.6978
97.6978
97.6978
97.6978
97.6978
97.6978
97.6978
97.6977
97.6978
97.6977
97.6977
97.698
97.7042
97.6987
97.7011
97.6989
97.6996
97.6987
97.6988
97.6984
97.6984
97.6982
97.6982
97.6981
97.698
97.698
97.6979
97.6979
97.6979
97.6978
97.6978
97.6978
97.6978
97.6978
97.6978
97.6978
97.6978
97.6977
97.6978
97.6977
97.6977
97.6979
97.7041
97.6988
97.7011
97.6989
97.6996
97.6987
97.6988
97.6984
97.6984
97.6982
97.6982
97.6981
97.698
97.698
97.6979
97.6979
97.6979
97.6978
97.6978
97.6978
97.6978
97.6978
97.6978
97.6978
97.6978
97.6977
97.6978
97.6977
97.6977
97.6979
97.704
97.6988
97.701
97.6989
97.6996
97.6987
97.6988
97.6984
97.6984
97.6982
97.6982
97.6981
97.698
97.698
97.6979
97.6979
97.6979
97.6978
97.6978
97.6978
97.6978
97.6978
97.6978
97.6977
97.6978
97.6977
97.6978
97.6977
97.6977
97.6979
97.7039
97.6989
97.701
97.699
97.6995
97.6987
97.6988
97.6984
97.6984
97.6982
97.6982
97.6981
97.698
97.698
97.6979
97.6979
97.6979
97.6978
97.6978
97.6978
97.6978
97.6978
97.6978
97.6977
97.6978
97.6977
97.6978
97.6977
97.6977
97.698
97.7038
97.6989
97.7009
97.699
97.6995
97.6987
97.6988
97.6984
97.6984
97.6982
97.6982
97.6981
97.698
97.698
97.6979
97.6979
97.6979
97.6978
97.6978
97.6978
97.6978
97.6978
97.6978
97.6977
97.6978
97.6977
97.6978
97.6977
97.6977
97.6981
97.7037
97.699
97.7008
97.699
97.6995
97.6987
97.6988
97.6984
97.6984
97.6982
97.6981
97.6981
97.698
97.698
97.6979
97.6979
97.6979
97.6978
97.6978
97.6978
97.6978
97.6978
97.6978
97.6977
97.6978
97.6977
97.6978
97.6977
97.6977
97.6981
97.7035
97.699
97.7007
97.699
97.6994
97.6987
97.6988
97.6984
97.6984
97.6982
97.6981
97.698
97.698
97.6979
97.6979
97.6979
97.6979
97.6978
97.6978
97.6978
97.6978
97.6978
97.6978
97.6977
97.6978
97.6977
97.6978
97.6977
97.6977
97.6982
97.7033
97.6991
97.7007
97.699
97.6994
97.6987
97.6987
97.6984
97.6984
97.6982
97.6981
97.698
97.698
97.6979
97.6979
97.6979
97.6979
97.6978
97.6978
97.6978
97.6978
97.6978
97.6978
97.6977
97.6978
97.6977
97.6978
97.6977
97.6977
97.6983
97.7032
97.6991
97.7006
97.699
97.6994
97.6987
97.6987
97.6984
97.6983
97.6982
97.6981
97.698
97.698
97.6979
97.6979
97.6979
97.6979
97.6978
97.6978
97.6978
97.6978
97.6978
97.6978
97.6977
97.6978
97.6977
97.6978
97.6977
97.6978
97.6984
97.703
97.6992
97.7005
97.699
97.6993
97.6987
97.6987
97.6984
97.6983
97.6982
97.6981
97.698
97.698
97.6979
97.6979
97.6979
97.6979
97.6978
97.6978
97.6978
97.6978
97.6978
97.6978
97.6977
97.6978
97.6977
97.6978
97.6977
97.6978
97.6985
97.7028
97.6992
97.7004
97.699
97.6993
97.6987
97.6987
97.6984
97.6983
97.6982
97.6981
97.698
97.698
97.6979
97.6979
97.6979
97.6979
97.6978
97.6978
97.6978
97.6978
97.6978
97.6978
97.6977
97.6978
97.6977
97.6978
97.6977
97.6978
97.6986
97.7026
97.6992
97.7003
97.699
97.6992
97.6987
97.6986
97.6984
97.6983
97.6982
97.6981
97.698
97.698
97.6979
97.6979
97.6979
97.6979
97.6978
97.6978
97.6978
97.6978
97.6978
97.6978
97.6977
97.6978
97.6977
97.6978
97.6977
97.6978
97.6987
97.7024
97.6992
97.7002
97.699
97.6992
97.6987
97.6986
97.6984
97.6983
97.6982
97.6981
97.698
97.698
97.6979
97.6979
97.6979
97.6978
97.6978
97.6978
97.6978
97.6978
97.6978
97.6978
97.6977
97.6978
97.6977
97.6978
97.6977
97.6978
97.6988
97.7022
97.6993
97.7001
97.699
97.6991
97.6986
97.6986
97.6984
97.6983
97.6981
97.6981
97.698
97.698
97.6979
97.6979
97.6979
97.6978
97.6978
97.6978
97.6978
97.6978
97.6978
97.6978
97.6977
97.6978
97.6977
97.6978
97.6977
97.6978
97.6989
97.702
97.6993
97.7
97.699
97.6991
97.6986
97.6986
97.6983
97.6983
97.6981
97.6981
97.698
97.698
97.6979
97.6979
97.6979
97.6978
97.6978
97.6978
97.6978
97.6978
97.6978
97.6978
97.6977
97.6978
97.6977
97.6978
97.6976
97.6978
97.699
97.7018
97.6993
97.7
97.699
97.699
97.6986
97.6985
97.6983
97.6982
97.6981
97.6981
97.698
97.698
97.6979
97.6979
97.6979
97.6978
97.6978
97.6978
97.6978
97.6978
97.6978
97.6978
97.6977
97.6978
97.6977
97.6978
97.6976
97.6978
97.6991
97.7016
97.6993
97.6999
97.699
97.699
97.6986
97.6985
97.6983
97.6982
97.6981
97.6981
97.698
97.6979
97.6979
97.6979
97.6979
97.6978
97.6978
97.6978
97.6978
97.6978
97.6978
97.6978
97.6977
97.6978
97.6977
97.6978
97.6976
97.6978
97.6992
97.7014
97.6993
97.6998
97.6989
97.6989
97.6986
97.6985
97.6983
97.6982
97.6981
97.698
97.698
97.6979
97.6979
97.6979
97.6979
97.6978
97.6978
97.6978
97.6978
97.6978
97.6978
97.6978
97.6977
97.6978
97.6977
97.6978
97.6976
97.6978
97.6993
97.7012
97.6993
97.6997
97.6989
97.6989
97.6985
97.6984
97.6983
97.6982
97.6981
97.698
97.698
97.6979
97.6979
97.6979
97.6979
97.6978
97.6978
97.6978
97.6978
97.6978
97.6978
97.6978
97.6977
97.6978
97.6977
97.6978
97.6976
97.6978
97.6993
97.701
97.6993
97.6996
97.6989
97.6988
97.6985
97.6984
97.6982
97.6982
97.6981
97.698
97.698
97.6979
97.6979
97.6979
97.6978
97.6978
97.6978
97.6978
97.6978
97.6978
97.6978
97.6978
97.6977
97.6978
97.6977
97.6978
97.6975
97.6979
97.6994
97.7008
97.6993
97.6995
97.6988
97.6988
97.6985
97.6984
97.6982
97.6981
97.6981
97.698
97.698
97.6979
97.6979
97.6979
97.6978
97.6978
97.6978
97.6978
97.6978
97.6978
97.6978
97.6978
97.6977
97.6978
97.6977
97.6978
97.6975
97.6979
97.6995
97.7006
97.6993
97.6994
97.6988
97.6987
97.6984
97.6983
97.6982
97.6981
97.698
97.698
97.6979
97.6979
97.6979
97.6979
97.6978
97.6978
97.6978
97.6978
97.6978
97.6978
97.6978
97.6978
97.6978
97.6978
97.6977
97.6978
97.6975
97.6979
97.6995
97.7004
97.6992
97.6993
97.6988
97.6987
97.6984
97.6983
97.6982
97.6981
97.698
97.698
97.6979
97.6979
97.6979
97.6979
97.6978
97.6978
97.6978
97.6978
97.6978
97.6978
97.6978
97.6978
97.6978
97.6978
97.6977
97.6978
97.6974
97.6979
97.6996
97.7002
97.6992
97.6991
97.6987
97.6986
97.6984
97.6983
97.6982
97.6981
97.698
97.698
97.6979
97.6979
97.6979
97.6978
97.6978
97.6978
97.6978
97.6978
97.6978
97.6978
97.6978
97.6978
97.6978
97.6978
97.6977
97.6978
97.6974
97.698
97.6997
97.7
97.6992
97.6991
97.6987
97.6985
97.6984
97.6982
97.6981
97.6981
97.698
97.698
97.6979
97.6979
97.6979
97.6978
97.6978
97.6978
97.6978
97.6978
97.6978
97.6978
97.6978
97.6978
97.6978
97.6978
97.6977
97.6978
97.6973
97.698
97.6997
97.6997
97.6991
97.6989
97.6986
97.6985
97.6983
97.6982
97.6981
97.698
97.698
97.6979
97.6979
97.6979
97.6979
97.6978
97.6978
97.6978
97.6978
97.6978
97.6978
97.6978
97.6978
97.6978
97.6978
97.6978
97.6977
97.6978
97.6972
97.6982
97.6997
97.6996
97.6991
97.6989
97.6986
97.6984
97.6983
97.6982
97.6981
97.698
97.698
97.6979
97.6979
97.6979
97.6978
97.6978
97.6978
97.6978
97.6978
97.6978
97.6978
97.6978
97.6978
97.6978
97.6978
97.6978
97.6977
97.6978
97.6971
97.698
97.6997
97.6993
97.6989
97.6987
97.6985
97.6983
97.6982
97.6981
97.698
97.698
97.6979
97.6979
97.6979
97.6978
97.6978
97.6978
97.6978
97.6978
97.6978
97.6978
97.6978
97.6978
97.6976
97.6978
97.6966
97.6978
97.6948
97.6978
97.6918
97.6985
268.784
166.331
6.68456
32.3174
43.3272
10.057
2.42596
6.82496
7.90136
7.71902
12.5073
7.90833
0.259038
6.53392
8.41559
0.646409
0.0275891
5.32832
18.5598
13.8789
6.72858
2.58815
1.63449
1.02751
0.739718
0.456925
0.290968
0.167526
0.0929413
0.0497927
69.8008
2.02903
0.0302056
0.420827
0.0659467
0.0625888
0.0888806
0.0100945
0.0253685
0.00850072
0.00169536
0.00486785
-0.00368281
0.00512262
-0.00792333
0.00596243
0.000607209
-0.00752414
-0.00224813
-0.00504365
0.00356933
-0.000772825
0.00192605
-9.05871e-05
0.000688268
0.000229896
0.000132201
0.000196394
-1.23408e-05
6.90795e-05
88.4756
-3.95439
0.231071
-0.611972
0.316201
-0.143616
0.158458
-0.00875543
0.038441
0.0131036
0.00589502
0.010454
-0.000989246
0.00715629
-0.0121445
0.0199191
0.0187035
-0.0195158
0.0110708
-0.00596655
0.0034751
-0.00074501
0.00189782
-8.90957e-05
0.000681612
0.000226384
0.000135445
0.000195471
-1.0396e-05
6.89827e-05
44.1184
-1.93441
0.357665
-0.0501719
0.0745263
-0.0598102
0.0255581
-0.0256263
0.0131897
0.00188615
0.000628332
0.00525799
-0.00299491
0.00701079
-0.00272047
0.00778916
0.000590582
-0.00362192
0.00197146
-0.00403543
0.00319273
-0.000965602
0.00176101
-0.000101787
0.000656381
0.000224161
0.000128922
0.000191253
-1.19618e-05
6.70361e-05
5.67353
-0.278875
-0.558785
-0.0697598
-0.123541
-0.0435471
-0.0296145
-0.00657832
-0.00238296
0.00634778
-0.000370875
0.00731772
-0.000762239
0.00599109
-0.00363759
0.00970883
0.00917581
-0.00850564
0.00667156
-0.00425841
0.00297967
-0.000841678
0.00165776
-9.75344e-05
0.000627555
0.000223256
0.000124759
0.000188241
-1.25238e-05
6.58684e-05
44.6916
35.3368
13.5517
0.0258825
-0.0541017
0.0229243
-0.0104923
0.0112799
-0.00149107
0.0055693
-0.00128077
0.00564961
-0.00186411
0.00615285
-0.00128198
0.00574456
0.00152427
-0.00217404
0.00293273
-0.00311906
0.00267257
-0.000915949
0.00152544
-9.00885e-05
0.000590806
0.000222296
0.000119396
0.00018427
-1.32632e-05
6.41186e-05
49.3635
35.7428
6.92933
0.0183321
0.00319032
0.0291031
-0.0131096
0.0197767
-0.0100282
0.0124977
-0.00447865
0.00725374
-0.00180744
0.00516125
-0.00141297
0.00541782
0.00315944
-0.00339066
0.00383423
-0.00263258
0.00238418
-0.000713106
0.0013957
-6.94302e-05
0.000548962
0.000223378
0.000113417
0.000180962
-1.40192e-05
6.27694e-05
-3.95141
0.297729
2.20918
0.051382
-0.126109
0.0401877
-0.0488373
0.0142688
-0.0148426
0.00824166
-0.0056678
0.0061654
-0.00255541
0.00510065
-0.00115055
0.00400508
0.00186434
-0.000955497
0.00261691
-0.00203144
0.00207951
-0.000721547
0.00126111
-4.86143e-05
0.000502726
0.000224622
0.000106789
0.000176662
-1.47729e-05
6.08523e-05
-0.998612
-0.415899
-0.0107379
-0.01575
-0.0296149
0.0247516
-0.0244282
0.018791
-0.0177576
0.0120635
-0.00849429
0.00703561
-0.0033923
0.00448928
-0.00131587
0.00348134
0.00101453
-0.000979665
0.002138
-0.00150163
0.00178431
-0.000551063
0.00112527
-1.56006e-05
0.000453749
0.000227123
9.9602e-05
0.000172948
-1.55059e-05
5.9196e-05
-0.536927
-0.338613
-0.157547
-0.0362239
-0.0467661
0.0290589
-0.03414
0.0291422
-0.020902
0.0184969
-0.0102906
0.0087514
-0.00429509
0.00461984
-0.00157225
0.00302612
0.000655772
-0.000217359
0.00168971
-0.0011392
0.00150916
-0.000487061
0.000991478
1.62412e-05
0.000403714
0.000228722
9.19799e-05
0.00016844
-1.61986e-05
5.72943e-05
-0.711391
-0.73636
-0.14548
0.0674144
0.00107277
0.0510057
-0.012962
0.0243048
-0.0163127
0.0141842
-0.0117587
0.00837929
-0.00535423
0.0043919
-0.00190759
0.00264978
8.83461e-05
0.000146641
0.00116979
-0.000721233
0.00125208
-0.000335259
0.000861541
5.27e-05
0.000355217
0.000228606
8.4066e-05
0.00016378
-1.68285e-05
5.53319e-05
-1.96535
-1.82305
0.598196
-0.339071
0.17683
0.00449575
-0.0163854
0.0328065
-0.0246935
0.0226536
-0.0152401
0.010528
-0.00648566
0.00443901
-0.00229611
0.00237931
-0.000273689
0.000321149
0.000819536
-0.000505746
0.00101463
-0.000236924
0.000735419
8.95831e-05
0.000309535
0.000225957
7.60072e-05
0.000158767
-1.73734e-05
5.32763e-05
0.116065
0.97355
2.73929
0.327805
-0.235363
0.0570231
-0.0919187
0.0307383
-0.0402144
0.0174575
-0.0175218
0.00958306
-0.00740952
0.00429599
-0.00265336
0.00215322
-0.000574264
0.00054861
0.000508237
-0.000220703
0.000804134
-0.000123441
0.000615567
0.000125777
0.00026665
0.000221739
6.79698e-05
0.000153378
-1.78118e-05
5.11238e-05
38.7652
34.294
12.8223
0.0761772
-0.0334264
0.0683743
-0.033029
0.0430123
-0.0266713
0.0225115
-0.0179083
0.0100839
-0.00803828
0.00413232
-0.00297197
0.00194976
-0.000831964
0.000590096
0.000244239
-6.52477e-05
0.000606056
-2.71822e-05
0.000501991
0.000157636
0.000228167
0.000216435
6.01129e-05
0.000147597
-1.81227e-05
4.88729e-05
88.5512
6.608
9.91342
0.132869
-0.177573
0.0868767
-0.0889901
0.0422715
-0.0443896
0.0204412
-0.0193718
0.00935265
-0.00844027
0.00384118
-0.00321898
0.00176346
-0.00102484
0.000667046
4.5821e-05
7.99888e-05
0.000435013
5.80017e-05
0.000399091
0.000181236
0.00019561
0.000210181
5.25692e-05
0.000141412
-1.82883e-05
4.65228e-05
89.3108
-0.20211
0.358579
0.0696192
-0.07039
0.0339915
-0.032618
0.026597
-0.0264047
0.0154817
-0.0171524
0.00796677
-0.00844715
0.00343555
-0.00337615
0.00157992
-0.00117118
0.00067555
-0.000115552
0.000171638
0.000297126
0.000125898
0.00031315
0.000195142
0.000166933
0.00020297
4.54344e-05
0.000134814
-1.82935e-05
4.40735e-05
61.1207
0.0158521
0.166395
0.0495367
0.0114753
0.0517073
0.100663
0.0236674
-0.0298125
0.0120848
-0.0171589
0.00651077
-0.00832501
0.00295611
-0.00343637
0.00139636
-0.00126491
0.000665477
-0.000237277
0.000234221
0.000192317
0.000165738
0.000247078
0.000201439
0.000141344
0.000194778
3.87852e-05
0.0001278
-1.81261e-05
4.15265e-05
34.1474
0.169156
0.109915
0.099285
0.0428983
0.111547
0.197066
0.00660418
-0.0284134
0.00506462
-0.0154308
0.00457474
-0.00791398
0.00243233
-0.00338467
0.00121496
-0.00130761
0.000636919
-0.000325776
0.000273988
0.000108598
0.000191233
0.000192365
0.000202786
0.000118517
0.000185584
3.26737e-05
0.000120369
-1.77776e-05
3.88837e-05
34.0844
1.08497
0.678615
0.947864
0.288058
0.469985
0.0539359
0.00236119
-0.0194682
0.00353519
-0.0129698
0.00301191
-0.007182
0.00195632
-0.00322199
0.00104045
-0.00130326
0.00059525
-0.000384274
0.000295218
4.28151e-05
0.000206102
0.000146926
0.000200165
9.82973e-05
0.000175381
2.7136e-05
0.000112526
-1.72425e-05
3.6148e-05
46.1941
0.183318
0.632377
0.829218
0.805794
0.217267
-0.0320005
-0.00141132
-0.0199658
0.000152642
-0.0111655
0.00145112
-0.00622152
0.00149471
-0.00295855
0.000877735
-0.00125443
0.000545436
-0.000416136
0.000301937
-7.56642e-06
0.000212375
0.000109203
0.000194103
8.05246e-05
0.000164174
2.21939e-05
0.000104282
-1.65194e-05
3.33235e-05
55.6104
0.122447
0.428703
0.84862
0.246971
-0.0209832
-0.0509323
-0.00766745
-0.0204426
-0.0015339
-0.00908217
0.000518973
-0.00505283
0.00110361
-0.00262276
0.000730648
-0.00116983
0.000491058
-0.000425419
0.000296963
-4.41447e-05
0.000211348
7.84344e-05
0.000184962
6.50835e-05
0.000151984
1.78522e-05
9.56528e-05
-1.56102e-05
3.0415e-05
53.2655
6.07174
0.117248
0.486745
0.00132567
-0.00819267
-0.0229205
-0.00364076
-0.0107992
-0.00132719
-0.00613005
0.000111628
-0.0038217
0.000796195
-0.00220281
0.000597158
-0.00105552
0.000434898
-0.000415878
0.000282802
-6.88178e-05
0.000204053
5.37971e-05
0.000173038
5.18248e-05
0.000138848
1.41017e-05
8.66562e-05
-1.45205e-05
2.74279e-05
27.8883
5.9741
0.124131
0.0467276
0.00584335
0.0101568
-0.00284922
0.00192391
-0.00389359
0.000162252
-0.00340254
0.000203682
-0.00265125
0.000594162
-0.00175808
0.000486575
-0.000922963
0.000378981
-0.000391133
0.000261474
-8.30731e-05
0.000191391
3.46475e-05
0.000158609
4.05973e-05
0.00012482
1.09204e-05
7.73185e-05
-1.32594e-05
2.4369e-05
6.90158
1.92314
0.0440476
0.0331383
0.0174738
0.016477
0.00674016
0.00593315
0.000829356
0.00158063
-0.00128599
0.000474631
-0.00167696
0.000489163
-0.00134374
0.000398255
-0.000782572
0.000324293
-0.000354718
0.000234606
-8.84941e-05
0.000174171
2.03115e-05
0.000141952
3.12197e-05
0.000109968
8.27284e-06
6.76682e-05
-1.18391e-05
2.12456e-05
8.31897
0.0160086
0.00589484
0.0236595
0.0130639
0.0153192
0.00845128
0.00731106
0.00292122
0.00254006
4.915e-05
0.000756395
-0.000933894
0.000440602
-0.000983554
0.00032631
-0.000642042
0.000271049
-0.000309714
0.000203511
-8.65233e-05
0.000153136
1.01353e-05
0.000123345
2.34947e-05
9.43741e-05
6.11168e-06
5.77378e-05
-1.02748e-05
1.80654e-05
6.56761
0.00819769
0.00638417
0.0160527
0.0110074
0.0133359
0.00865316
0.00772301
0.00392676
0.00303795
0.000820087
0.000941989
-0.000410943
0.000409925
-0.000688746
0.000263331
-0.000507037
0.000219008
-0.000258845
0.000169263
-7.85616e-05
0.000128984
3.45956e-06
0.000103077
1.72033e-05
7.81348e-05
4.38004e-06
4.75657e-05
-8.58442e-06
1.48375e-05
1.07625
-0.00799816
-0.00122256
0.00730838
0.00822419
0.00957658
0.00782217
0.00653473
0.00411849
0.00269957
0.00131627
0.000862513
-5.59564e-05
0.000346517
-0.000459537
0.000202798
-0.000380689
0.000167795
-0.000204273
0.000132709
-6.59211e-05
0.000102355
-3.55264e-07
8.144e-05
1.21021e-05
6.13536e-05
3.01214e-06
3.71914e-05
-6.78843e-06
1.15709e-05
0.00262293
-0.00284347
0.00151925
0.00617
0.00749387
0.00768553
0.00635807
0.00503003
0.00339923
0.00217013
0.00119871
0.000670736
0.000122079
0.000253508
-0.000279295
0.000141775
-0.000263907
0.000117129
-0.000147624
9.45318e-05
-4.97992e-05
7.38463e-05
-1.93844e-06
5.87342e-05
7.95319e-06
4.41421e-05
1.93543e-06
2.66559e-05
-4.90866e-06
8.27427e-06
0.00616613
0.00224558
0.0049603
0.00649103
0.00643338
0.00548087
0.00410693
0.00305345
0.00221618
0.00144837
0.000896038
0.000446101
0.000151715
0.000146994
-0.000146392
8.01535e-05
-0.000156087
6.68587e-05
-9.00109e-05
5.52797e-05
-3.12984e-05
4.40154e-05
-1.92715e-06
3.52686e-05
4.46968e-06
2.66192e-05
1.07426e-06
1.60021e-05
-2.9678e-06
4.95604e-06
-0.00773113
-0.0068007
-0.000681823
0.00224745
0.00263972
0.0020021
0.00102203
0.000249674
7.53254e-05
0.000209718
0.000157918
9.26679e-05
3.4022e-05
3.19852e-05
-4.80681e-05
1.8652e-05
-5.35168e-05
1.69229e-05
-3.17144e-05
1.5412e-05
-1.13478e-05
1.33792e-05
-9.72434e-07
1.13505e-05
1.39333e-06
8.86681e-06
3.43785e-07
5.27741e-06
-9.94517e-07
1.624e-06
0.0320812
0.0259056
0.0200937
0.0161799
0.0125212
0.0100733
0.00778523
0.0063034
0.00485266
0.0039376
0.00304123
0.0024569
0.00192088
0.00153634
0.00122191
0.000959436
0.000768224
0.000594492
0.000477781
0.000362617
0.000284711
0.00017912
9.71447e-06
4.77458e-05
-1.72889e-05
0.000141592
-2.37052e-05
0.000996838
-0.000135959
0.00447401
-1.4351e-05
-5.45879e-06
-2.42758e-05
-3.02252e-05
-3.04546e-05
-4.20764e-05
-3.40527e-05
-4.61152e-05
-3.50002e-05
-4.49134e-05
-3.41169e-05
-4.0829e-05
-3.19735e-05
-3.56283e-05
-2.88241e-05
-3.02649e-05
-2.544e-05
-2.5347e-05
-2.22635e-05
-2.14309e-05
-1.95021e-05
-1.89584e-05
-1.75283e-05
-1.80848e-05
-1.70685e-05
-1.91574e-05
-1.91433e-05
-2.3043e-05
-2.18784e-05
-2.30635e-05
-1.27563e-05
-5.71892e-06
-2.37735e-05
-2.98143e-05
-3.03959e-05
-4.15159e-05
-3.40064e-05
-4.5613e-05
-3.49504e-05
-4.45405e-05
-3.40292e-05
-4.05434e-05
-3.18846e-05
-3.53712e-05
-2.87125e-05
-3.00728e-05
-2.531e-05
-2.52015e-05
-2.21233e-05
-2.13096e-05
-1.93787e-05
-1.88481e-05
-1.7346e-05
-1.80862e-05
-1.74413e-05
-2.04757e-05
-2.32378e-05
-3.38945e-05
-5.49829e-05
-0.000106863
-1.39344e-05
-5.90663e-06
-2.4479e-05
-2.9598e-05
-3.05426e-05
-4.14134e-05
-3.3899e-05
-4.54671e-05
-3.47607e-05
-4.43138e-05
-3.37481e-05
-4.02966e-05
-3.16774e-05
-3.50938e-05
-2.85087e-05
-2.98555e-05
-2.51058e-05
-2.50361e-05
-2.19352e-05
-2.11707e-05
-1.91944e-05
-1.86916e-05
-1.71938e-05
-1.77684e-05
-1.66251e-05
-1.85767e-05
-1.76656e-05
-2.33221e-05
-1.76814e-05
-3.02825e-05
-1.39329e-05
-5.91163e-06
-2.46753e-05
-2.9062e-05
-3.05169e-05
-4.08598e-05
-3.36895e-05
-4.49186e-05
-3.44968e-05
-4.38572e-05
-3.33337e-05
-3.99176e-05
-3.13701e-05
-3.46813e-05
-2.82273e-05
-2.9526e-05
-2.48265e-05
-2.47733e-05
-2.16668e-05
-2.0944e-05
-1.8943e-05
-1.84628e-05
-1.69396e-05
-1.75496e-05
-1.66604e-05
-1.92815e-05
-1.97354e-05
-2.83595e-05
-2.45385e-05
-5.17066e-05
-1.4108e-05
-6.03475e-06
-2.47694e-05
-2.87397e-05
-3.0345e-05
-4.04273e-05
-3.33142e-05
-4.43728e-05
-3.4105e-05
-4.3354e-05
-3.28076e-05
-3.94791e-05
-3.0948e-05
-3.41873e-05
-2.78638e-05
-2.91216e-05
-2.44769e-05
-2.44496e-05
-2.13374e-05
-2.06615e-05
-1.86279e-05
-1.81699e-05
-1.66021e-05
-1.71131e-05
-1.58217e-05
-1.75388e-05
-1.55819e-05
-2.09268e-05
-1.0715e-05
-2.40626e-05
-1.42285e-05
-6.02251e-06
-2.47281e-05
-2.82314e-05
-3.00502e-05
-3.97619e-05
-3.28243e-05
-4.3691e-05
-3.35338e-05
-4.27106e-05
-3.22554e-05
-3.88993e-05
-3.04168e-05
-3.36019e-05
-2.7418e-05
-2.86341e-05
-2.4056e-05
-2.40493e-05
-2.09441e-05
-2.03144e-05
-1.82519e-05
-1.78165e-05
-1.61996e-05
-1.66743e-05
-1.53397e-05
-1.73251e-05
-1.56849e-05
-2.23488e-05
-1.19734e-05
-2.84315e-05
-1.42879e-05
-6.07838e-06
-2.45502e-05
-2.77702e-05
-2.96368e-05
-3.90633e-05
-3.22358e-05
-4.29321e-05
-3.283e-05
-4.19129e-05
-3.19203e-05
-3.79904e-05
-2.97833e-05
-3.2928e-05
-2.68942e-05
-2.80688e-05
-2.35672e-05
-2.35836e-05
-2.04907e-05
-1.99071e-05
-1.78187e-05
-1.7405e-05
-1.57328e-05
-1.61442e-05
-1.45918e-05
-1.61141e-05
-1.33583e-05
-1.78229e-05
-6.77713e-06
-1.65968e-05
-1.4276e-05
-6.06706e-06
-2.42385e-05
-2.72217e-05
-2.91064e-05
-3.82273e-05
-3.15534e-05
-4.20422e-05
-3.20201e-05
-4.08658e-05
-3.14763e-05
-3.71165e-05
-2.90594e-05
-3.21693e-05
-2.62885e-05
-2.74265e-05
-2.30113e-05
-2.30498e-05
-1.99791e-05
-1.9441e-05
-1.7332e-05
-1.69399e-05
-1.52153e-05
-1.55735e-05
-1.38778e-05
-1.53214e-05
-1.24336e-05
-1.70858e-05
-6.4963e-06
-1.66149e-05
-1.41958e-05
-6.09625e-06
-2.38017e-05
-2.66679e-05
-2.84646e-05
-3.7313e-05
-3.07802e-05
-4.10314e-05
-3.11351e-05
-3.98898e-05
-3.07049e-05
-3.61759e-05
-2.82465e-05
-3.13286e-05
-2.56099e-05
-2.67105e-05
-2.2391e-05
-2.24507e-05
-1.94117e-05
-1.89181e-05
-1.67959e-05
-1.64248e-05
-1.46535e-05
-1.49592e-05
-1.31275e-05
-1.43626e-05
-1.11408e-05
-1.45877e-05
-4.77741e-06
-1.14009e-05
-1.40427e-05
-6.03998e-06
-2.32472e-05
-2.60124e-05
-2.77162e-05
-3.62786e-05
-2.99184e-05
-3.98918e-05
-3.0177e-05
-3.88326e-05
-2.97684e-05
-3.51673e-05
-2.73473e-05
-3.04083e-05
-2.48582e-05
-2.59213e-05
-2.17086e-05
-2.17881e-05
-1.87913e-05
-1.83406e-05
-1.62142e-05
-1.58637e-05
-1.40554e-05
-1.4313e-05
-1.23747e-05
-1.34546e-05
-1.01263e-05
-1.30931e-05
-4.18883e-06
-1.00519e-05
-1.38172e-05
-5.98092e-06
-2.25845e-05
-2.53097e-05
-2.68681e-05
-3.51503e-05
-2.8968e-05
-3.863e-05
-2.91486e-05
-3.76646e-05
-2.87122e-05
-3.40808e-05
-2.63655e-05
-2.94133e-05
-2.40354e-05
-2.50613e-05
-2.09666e-05
-2.1064e-05
-1.81208e-05
-1.77111e-05
-1.55909e-05
-1.52606e-05
-1.34271e-05
-1.36409e-05
-1.16238e-05
-1.25647e-05
-9.18928e-06
-1.15423e-05
-3.57068e-06
-7.81471e-06
-1.35198e-05
-5.89125e-06
-2.18224e-05
-2.45365e-05
-2.59266e-05
-3.3924e-05
-2.79299e-05
-3.72507e-05
-2.8051e-05
-3.63747e-05
-2.75635e-05
-3.29073e-05
-2.53045e-05
-2.83486e-05
-2.31427e-05
-2.41329e-05
-2.01673e-05
-2.02806e-05
-1.74028e-05
-1.7032e-05
-1.49296e-05