/*--------------------------------*- C++ -*----------------------------------*\
| =========                 |                                                 |
| \\      /  F ield         | OpenFOAM: The Open Source CFD Toolbox           |
|  \\    /   O peration     | Version:  2.4.0                                 |
|   \\  /    A nd           | Web:      www.OpenFOAM.org                      |
|    \\/     M anipulation  |                                                 |
\*---------------------------------------------------------------------------*/
FoamFile
{
    version     2.0;
    format      ascii;
    class       volScalarField;
    location    "0.158";
    object      alpha.water;
}
// * * * * * * * * * * * * * * * * * * * * * * * * * * * * * * * * * * * * * //

dimensions      [0 0 0 0 0 0 0];

internalField   nonuniform List<scalar> 
10000
(
5.42484e-62
6.72273e-58
6.68395e-55
1.1067e-52
6.58632e-51
2.14411e-49
5.23303e-48
1.1841e-46
2.90511e-45
8.50161e-44
2.88485e-42
1.09225e-40
4.37928e-39
1.82471e-37
7.63072e-36
2.95859e-34
9.67865e-33
2.67331e-31
6.5079e-30
1.30041e-28
2.08987e-27
2.73952e-26
2.92586e-25
2.54231e-24
1.7867e-23
1.00368e-22
4.49187e-22
1.58407e-21
4.16424e-21
6.62889e-21
6.68201e-21
4.46934e-21
2.02733e-21
6.46603e-22
1.43863e-22
2.26385e-23
2.66746e-24
2.26011e-25
1.34664e-26
5.79192e-28
1.85424e-29
4.51334e-31
8.5339e-33
1.25543e-34
1.46603e-36
1.35705e-38
9.62832e-41
5.21662e-43
1.94551e-44
8.35981e-43
1.8795e-58
2.69989e-54
2.33252e-51
3.82118e-49
2.4443e-47
8.93407e-46
2.51691e-44
6.58072e-43
1.82483e-41
5.698e-40
1.92032e-38
6.72454e-37
2.34055e-35
8.03808e-34
2.69276e-32
8.33283e-31
2.19665e-29
4.90101e-28
9.58147e-27
1.56368e-25
2.08259e-24
2.28629e-23
2.07184e-22
1.54956e-21
9.51399e-21
4.76379e-20
1.94381e-19
6.36646e-19
1.57405e-18
2.46844e-18
2.55723e-18
1.81784e-18
9.31796e-19
3.49958e-19
9.83361e-20
2.07049e-20
3.40494e-21
4.2868e-22
4.07338e-23
2.91978e-24
1.5772e-25
6.3196e-27
1.89481e-28
4.41208e-30
7.48763e-32
9.06947e-34
7.75173e-36
4.84811e-38
8.62588e-38
3.35828e-36
2.07957e-55
3.07258e-51
2.32185e-48
3.74731e-46
2.54694e-44
1.03657e-42
3.35068e-41
1.00283e-39
3.11497e-38
1.01385e-36
3.31994e-35
1.0566e-33
3.15813e-32
8.82359e-31
2.3289e-29
5.67097e-28
1.19701e-26
2.14434e-25
3.35882e-24
4.49469e-23
4.99947e-22
4.64796e-21
3.62111e-20
2.36378e-19
1.28628e-18
5.82008e-18
2.18588e-17
6.67732e-17
1.55595e-16
2.39107e-16
2.52452e-16
1.88808e-16
1.04971e-16
4.45023e-17
1.45443e-17
3.70735e-18
7.48208e-19
1.18735e-19
1.46152e-20
1.37504e-21
9.82941e-23
5.2015e-24
2.04362e-25
6.07991e-27
1.34155e-28
2.04735e-30
2.49523e-32
3.93692e-34
6.02602e-33
1.48254e-31
1.41469e-52
1.70536e-48
1.11849e-45
1.77506e-43
1.26763e-41
5.69578e-40
2.07582e-38
6.9869e-37
2.35235e-35
7.69867e-34
2.36541e-32
6.63387e-31
1.67114e-29
3.79575e-28
7.9488e-27
1.53785e-25
2.62075e-24
3.82502e-23
4.89317e-22
5.43811e-21
5.10831e-20
4.06668e-19
2.75507e-18
1.58731e-17
7.74482e-17
3.19829e-16
1.11201e-15
3.17326e-15
6.96872e-15
1.04454e-14
1.11374e-14
8.70682e-15
5.12864e-15
2.38697e-15
8.74694e-16
2.5704e-16
6.04451e-17
1.13474e-17
1.6781e-18
1.92319e-19
1.66996e-20
1.08312e-21
5.15122e-23
1.83153e-24
4.97073e-26
9.65237e-28
1.63099e-29
1.45506e-30
2.90024e-29
5.16723e-28
6.85098e-50
5.72715e-46
3.2585e-43
5.05213e-41
3.76118e-39
1.84641e-37
7.4336e-36
2.73125e-34
9.48631e-33
2.97305e-31
8.23254e-30
1.99037e-28
4.19868e-27
7.84539e-26
1.333e-24
2.0911e-23
2.92993e-22
3.55697e-21
3.78791e-20
3.5399e-19
2.8369e-18
1.95126e-17
1.15876e-16
5.9376e-16
2.61816e-15
9.92376e-15
3.20277e-14
8.53745e-14
1.76563e-13
2.57103e-13
2.74932e-13
2.22469e-13
1.37566e-13
6.90937e-14
2.78025e-14
9.16715e-15
2.4469e-15
5.27358e-16
9.05054e-17
1.21495e-17
1.24738e-18
9.50338e-20
5.31792e-21
2.22975e-22
7.29879e-24
1.84343e-25
4.27776e-27
1.29232e-27
2.30239e-26
3.3168e-25
2.36946e-47
1.31984e-43
6.52282e-41
9.84932e-39
7.59493e-37
4.01705e-35
1.74484e-33
6.69984e-32
2.25798e-30
6.47765e-29
1.57525e-27
3.26132e-26
5.8043e-25
9.06282e-24
1.27749e-22
1.65858e-21
1.94364e-20
1.99257e-19
1.79473e-18
1.42657e-17
9.83497e-17
5.88008e-16
3.07414e-15
1.40716e-14
5.62962e-14
1.96227e-13
5.87932e-13
1.46274e-12
2.84722e-12
4.01625e-12
4.28495e-12
3.56091e-12
2.29881e-12
1.22995e-12
5.38344e-13
1.96403e-13
5.88024e-14
1.43534e-14
2.81269e-15
4.34193e-16
5.16941e-17
4.58655e-18
2.97648e-19
1.47585e-20
5.87105e-22
1.9462e-23
5.96287e-25
3.40528e-25
5.38489e-24
6.66327e-23
6.06108e-45
2.27519e-41
9.82708e-39
1.44293e-36
1.14576e-34
6.40299e-33
2.90729e-31
1.09644e-29
3.39077e-28
8.59927e-27
1.8099e-25
3.20282e-24
4.85075e-23
6.4394e-22
7.66667e-21
8.41394e-20
8.38217e-19
7.35386e-18
5.67211e-17
3.8746e-16
2.31485e-15
1.20944e-14
5.58447e-14
2.2865e-13
8.30454e-13
2.66016e-12
7.38347e-12
1.7125e-11
3.13836e-11
4.28255e-11
4.54293e-11
3.85268e-11
2.59348e-11
1.46438e-11
6.92674e-12
2.77798e-12
9.30128e-13
2.56252e-13
5.70639e-14
1.00697e-14
1.3796e-15
1.42684e-16
1.07812e-17
6.29882e-19
3.09387e-20
1.32211e-21
4.99405e-23
3.60912e-23
5.17259e-22
5.70514e-21
1.16867e-42
3.1106e-39
1.18599e-36
1.689e-34
1.37018e-32
7.89048e-31
3.52003e-29
1.22109e-27
3.36585e-26
7.46221e-25
1.35687e-23
2.06638e-22
2.68804e-21
3.06143e-20
3.13036e-19
2.92717e-18
2.50079e-17
1.89492e-16
1.26397e-15
7.47077e-15
3.89055e-14
1.78866e-13
7.31807e-13
2.68237e-12
8.82654e-12
2.59031e-11
6.64046e-11
1.43394e-10
2.47827e-10
3.27279e-10
3.44638e-10
2.96533e-10
2.07526e-10
1.23437e-10
6.28242e-11
2.76531e-11
1.03806e-11
3.23496e-12
8.20558e-13
1.65839e-13
2.61577e-14
3.15006e-15
2.80167e-16
1.92666e-17
1.16057e-18
6.25239e-20
2.77978e-21
1.8913e-21
2.50226e-20
2.5259e-19
1.76359e-40
3.48378e-37
1.19016e-34
1.64035e-32
1.3209e-30
7.39887e-29
3.04092e-27
9.52222e-26
2.30973e-24
4.44691e-23
6.98626e-22
9.20967e-21
1.039e-19
1.02678e-18
9.13031e-18
7.37432e-17
5.43534e-16
3.56317e-15
2.06566e-14
1.06315e-13
4.84048e-13
1.96044e-12
7.14043e-12
2.34988e-11
6.98716e-11
1.87001e-10
4.411e-10
8.86396e-10
1.44995e-09
1.85684e-09
1.94151e-09
1.68437e-09
1.22186e-09
7.69042e-10
4.19334e-10
2.02643e-10
8.55212e-11
3.03315e-11
8.83407e-12
2.06097e-12
3.76635e-13
5.29865e-14
5.62219e-15
4.5615e-16
3.29407e-17
2.1621e-18
1.10143e-19
5.64072e-20
6.96202e-19
6.57048e-18
2.04247e-38
3.20985e-35
9.84134e-33
1.28314e-30
9.91031e-29
5.15828e-27
1.91569e-25
5.27914e-24
1.11953e-22
1.8815e-21
2.57197e-20
2.93757e-19
2.89833e-18
2.50347e-17
1.95093e-16
1.37714e-15
8.8657e-15
5.07036e-14
2.55518e-13
1.14602e-12
4.57979e-12
1.63553e-11
5.29616e-11
1.5659e-10
4.21489e-10
1.02416e-09
2.21386e-09
4.14393e-09
6.45177e-09
8.03303e-09
8.35258e-09
7.25874e-09
5.46965e-09
3.67013e-09
2.12632e-09
1.12979e-09
5.37417e-10
2.18844e-10
7.39721e-11
2.01387e-11
4.30594e-12
7.12305e-13
9.03064e-14
8.74742e-15
7.35686e-16
5.70139e-17
3.32284e-18
1.06997e-18
1.22166e-17
1.09834e-16
1.83325e-36
2.36532e-33
6.504e-31
7.94274e-29
5.6873e-27
2.6595e-25
8.73919e-24
2.12602e-22
3.9623e-21
5.84212e-20
6.99908e-19
6.9957e-18
6.0371e-17
4.5946e-16
3.15036e-15
1.95749e-14
1.10601e-13
5.55175e-13
2.45097e-12
9.58844e-12
3.35459e-11
1.05864e-10
3.04541e-10
8.06885e-10
1.96268e-09
4.33325e-09
8.55913e-09
1.49806e-08
2.22471e-08
2.70044e-08
2.78913e-08
2.42247e-08
1.91797e-08
1.38228e-08
8.4019e-09
4.90167e-09
2.6249e-09
1.23607e-09
4.90053e-10
1.5762e-10
3.99247e-11
7.84116e-12
1.18906e-12
1.38901e-13
1.32924e-14
1.18376e-15
7.99144e-17
1.45124e-17
1.44311e-16
1.25789e-15
1.27085e-34
1.36746e-31
3.39718e-29
3.81004e-27
2.44508e-25
1.01581e-23
2.95864e-22
6.33451e-21
1.04127e-19
1.35819e-18
1.4428e-17
1.27667e-16
9.66871e-16
6.51126e-15
3.94404e-14
2.16814e-13
1.0787e-12
4.7654e-12
1.84818e-11
6.3356e-11
1.93995e-10
5.3919e-10
1.379e-09
3.26784e-09
7.1653e-09
1.43557e-08
2.59796e-08
4.29831e-08
5.94241e-08
7.22783e-08
7.25281e-08
6.37948e-08
5.41924e-08
4.19302e-08
2.62624e-08
1.66595e-08
1.00056e-08
5.4773e-09
2.56719e-09
9.86292e-10
2.99974e-10
7.08313e-11
1.29389e-11
1.83638e-12
2.0363e-13
2.00271e-14
1.57989e-15
1.67303e-16
1.2069e-15
1.03752e-14
6.69278e-33
6.1672e-30
1.37958e-27
1.388e-25
7.9264e-24
2.92929e-22
7.53132e-21
1.42851e-19
2.08618e-18
2.42306e-17
2.29604e-16
1.81272e-15
1.21976e-14
7.27038e-14
3.9056e-13
1.90595e-12
8.38011e-12
3.26661e-11
1.11487e-10
3.35357e-10
9.00041e-10
2.19746e-09
4.9877e-09
1.05686e-08
2.08643e-08
3.79256e-08
6.28843e-08
1.01774e-07
1.19924e-07
1.79263e-07
1.60072e-07
1.43591e-07
1.27877e-07
1.02727e-07
6.48878e-08
4.38345e-08
2.94499e-08
1.87668e-08
1.04609e-08
4.8404e-09
1.78808e-09
5.1405e-10
1.14436e-10
1.98216e-11
2.65871e-12
2.85162e-13
2.58625e-14
2.00953e-15
7.46441e-15
6.42321e-14
2.6731e-31
2.14518e-28
4.29665e-26
3.84862e-24
1.9608e-22
6.42314e-21
1.46894e-19
2.48542e-18
3.24546e-17
3.37696e-16
2.87086e-15
2.03521e-14
1.22691e-13
6.49309e-13
3.10707e-12
1.35073e-11
5.26792e-11
1.81712e-10
5.47026e-10
1.44559e-09
3.40064e-09
7.29537e-09
1.46561e-08
2.77764e-08
4.93555e-08
8.13798e-08
1.22063e-07
2.16596e-07
1.85799e-07
6.27671e-07
4.89237e-07
3.876e-07
2.77347e-07
2.02418e-07
1.25334e-07
8.70435e-08
6.56315e-08
4.88563e-08
3.24301e-08
1.81158e-08
8.18786e-09
2.90215e-09
7.98885e-10
1.70905e-10
2.83402e-11
3.50078e-12
3.51665e-13
2.60879e-14
3.58334e-14
3.09891e-13
8.04898e-30
5.69637e-27
1.01655e-24
8.14057e-23
3.69744e-21
1.08176e-19
2.21629e-18
3.36793e-17
3.95824e-16
3.71328e-15
2.84969e-14
1.82481e-13
9.92217e-13
4.69772e-12
2.01095e-11
7.81362e-11
2.71388e-10
8.31631e-10
2.21662e-09
5.16262e-09
1.06608e-08
2.00957e-08
3.56987e-08
6.05126e-08
9.66372e-08
1.43677e-07
1.81834e-07
4.62251e-07
6.43683e-06
1.07169e-05
9.55348e-06
2.04722e-06
6.23246e-07
3.2057e-07
1.87928e-07
1.30812e-07
1.10044e-07
9.58113e-08
7.53594e-08
5.05406e-08
2.79448e-08
1.23102e-08
4.24531e-09
1.14056e-09
2.37403e-10
3.68096e-11
4.06431e-12
3.32659e-13
1.44936e-13
1.2063e-12
1.81117e-28
1.13913e-25
1.81851e-23
1.3069e-21
5.32649e-20
1.4031e-18
2.59532e-17
3.56889e-16
3.80288e-15
3.23949e-14
2.26003e-13
1.31641e-12
6.50805e-12
2.78371e-11
1.06898e-10
3.72459e-10
1.15717e-09
3.16695e-09
7.52948e-09
1.56077e-08
2.85007e-08
4.73064e-08
7.39898e-08
1.11768e-07
1.59625e-07
2.13056e-07
1.82155e-07
5.11738e-06
1.20463e-05
1.20447e-05
1.20448e-05
1.06023e-05
1.07839e-06
4.13286e-07
2.293e-07
1.61033e-07
1.47629e-07
1.45974e-07
1.32517e-07
1.04686e-07
6.99588e-08
3.81614e-08
1.65325e-08
5.62146e-09
1.48627e-09
2.96692e-10
3.96675e-11
3.68018e-12
5.90478e-13
3.91633e-12
3.01726e-27
1.69964e-24
2.44471e-22
1.58456e-20
5.84661e-19
1.39852e-17
2.35493e-16
2.95419e-15
2.87668e-14
2.2425e-13
1.43314e-12
7.65098e-12
3.46569e-11
1.35318e-10
4.68941e-10
1.47032e-09
4.11148e-09
1.01497e-08
2.19248e-08
4.16825e-08
6.85646e-08
1.01454e-07
1.36958e-07
1.80313e-07
2.27681e-07
2.76567e-07
1.83546e-07
5.41877e-06
1.20396e-05
1.20462e-05
1.20455e-05
9.46877e-06
1.15891e-06
5.12371e-07
2.60088e-07
4.86513e-07
1.96989e-07
1.97547e-07
1.89038e-07
1.66962e-07
1.30514e-07
8.64487e-08
4.66332e-08
2.00385e-08
6.75556e-09
1.7359e-09
3.08942e-10
3.3099e-11
3.06064e-12
1.09589e-11
3.70053e-26
1.87988e-23
2.45361e-21
1.44708e-19
4.8756e-18
1.068e-16
1.65074e-15
1.90446e-14
1.7082e-13
1.22811e-12
7.24509e-12
3.57218e-11
1.49397e-10
5.37167e-10
1.69567e-09
4.8202e-09
1.22801e-08
2.79513e-08
5.72069e-08
1.06725e-07
1.52433e-07
2.1268e-07
2.48554e-07
2.60625e-07
2.80059e-07
2.87488e-07
2.98291e-07
2.75713e-07
2.97586e-06
7.23476e-06
5.28347e-06
2.91315e-07
2.99695e-07
2.70683e-07
2.56234e-07
2.45679e-07
2.4277e-07
2.38904e-07
2.32908e-07
2.18753e-07
1.90877e-07
1.4796e-07
9.69712e-08
5.18457e-08
2.20551e-08
7.23077e-09
1.70302e-09
2.29497e-10
1.93708e-11
2.73844e-11
3.34135e-25
1.54288e-22
1.84035e-20
9.95918e-19
3.08909e-17
6.24583e-16
8.9296e-15
9.54546e-14
7.94361e-13
5.30428e-12
2.90869e-11
1.33382e-10
5.18952e-10
1.7347e-09
5.05732e-09
1.32395e-08
3.13872e-08
6.80771e-08
1.41219e-07
2.73518e-07
1.74743e-07
2.97133e-07
4.83104e-07
3.24882e-07
2.93759e-07
2.75498e-07
3.91305e-07
2.75622e-07
2.7138e-07
2.71389e-07
2.71472e-07
2.74815e-07
2.76748e-07
2.77427e-07
2.72279e-07
2.63219e-07
2.73339e-07
2.69184e-07
2.62834e-07
2.53632e-07
2.35921e-07
2.03955e-07
1.55976e-07
1.00618e-07
5.27185e-08
2.15939e-08
6.49577e-09
1.19386e-09
1.10666e-10
6.38591e-11
2.23792e-24
9.47455e-22
1.04129e-19
5.21254e-18
1.50008e-16
2.82071e-15
3.75737e-14
3.74757e-13
2.91309e-12
1.81866e-11
9.3331e-11
4.01032e-10
1.46491e-09
4.61008e-09
1.26596e-08
3.0952e-08
6.86435e-08
1.44652e-07
3.27615e-07
1.03054e-06
3.99334e-06
2.87459e-06
9.38309e-07
3.20494e-07
2.78816e-07
2.74893e-07
2.7523e-07
2.80805e-07
2.78642e-07
2.83405e-07
2.87805e-07
2.91674e-07
2.95248e-07
2.95195e-07
2.7352e-07
4.7016e-07
2.80845e-07
2.902e-07
2.88083e-07
2.80621e-07
2.67848e-07
2.45678e-07
2.08521e-07
1.55683e-07
9.72513e-08
4.84432e-08
1.80716e-08
4.38267e-09
4.88117e-10
1.44653e-10
1.1289e-23
4.42216e-21
4.51748e-19
2.10919e-17
5.67651e-16
1.00028e-14
1.25065e-13
1.17224e-12
8.57091e-12
5.03628e-11
2.43349e-10
9.84514e-10
3.38342e-09
9.99224e-09
2.55755e-08
5.71096e-08
1.14556e-07
2.23557e-07
1.04762e-06
7.98973e-06
9.02714e-06
9.03119e-06
1.84222e-06
2.59914e-07
2.70458e-07
2.83241e-07
2.91242e-07
2.8814e-07
2.84753e-07
2.92838e-07
2.99756e-07
3.10982e-07
3.22255e-07
3.19546e-07
3.17731e-07
3.03101e-07
3.00001e-07
3.00405e-07
3.04903e-07
3.04089e-07
2.95959e-07
2.78993e-07
2.50448e-07
2.06224e-07
1.47619e-07
8.6622e-08
3.89099e-08
1.18946e-08
1.66463e-09
3.21674e-10
4.37779e-23
1.60174e-20
1.5339e-18
6.73061e-17
1.70519e-15
2.83121e-14
3.33625e-13
2.94614e-12
2.02738e-11
1.11927e-10
5.06822e-10
1.91488e-09
6.12137e-09
1.6771e-08
3.98799e-08
8.2387e-08
1.41424e-07
1.57001e-07
4.52038e-06
9.01891e-06
9.02342e-06
8.84511e-06
1.62277e-06
2.67111e-07
2.84985e-07
2.98686e-07
3.0404e-07
2.91154e-07
4.70721e-07
2.99662e-07
3.1728e-07
3.48053e-07
3.32127e-07
3.3194e-07
3.29908e-07
3.20782e-07
3.05351e-07
4.84717e-07
3.3029e-07
3.14481e-07
2.97792e-07
2.82935e-07
2.66528e-07
2.39065e-07
1.92314e-07
1.29904e-07
6.84903e-08
2.52719e-08
4.57507e-09
6.90001e-10
1.33632e-22
4.61695e-20
4.18667e-18
1.74244e-16
4.19059e-15
6.60588e-14
7.38691e-13
6.1836e-12
4.02723e-11
2.09969e-10
8.95543e-10
3.1779e-09
9.5164e-09
2.43715e-08
5.39799e-08
1.02859e-07
1.60955e-07
1.74871e-07
2.85108e-06
8.88898e-06
8.63422e-06
2.16072e-06
2.85777e-07
2.90709e-07
3.08474e-07
3.17191e-07
3.19015e-07
3.10379e-07
3.07224e-07
3.06085e-07
5.39794e-07
3.63607e-07
1.33601e-06
2.86772e-06
2.53357e-06
9.3721e-07
3.30865e-07
3.51285e-07
3.4443e-07
4.81209e-07
3.65249e-07
2.30609e-07
2.23048e-07
2.22766e-07
2.12523e-07
1.67523e-07
1.02627e-07
4.45056e-08
1.00243e-08
1.39236e-09
3.27861e-22
1.08351e-19
9.41454e-18
3.75741e-16
8.666e-15
1.30928e-13
1.40168e-12
1.12166e-11
6.97055e-11
3.46035e-10
1.40167e-09
4.70795e-09
1.32729e-08
3.1702e-08
6.46841e-08
1.14615e-07
1.85579e-07
2.97223e-07
4.84749e-07
8.19422e-07
9.61136e-07
3.13489e-07
3.21137e-07
3.24799e-07
3.41035e-07
3.29393e-07
3.35034e-07
3.18332e-07
3.58978e-07
3.51114e-07
5.71708e-07
3.90668e-06
7.59407e-06
7.59231e-06
7.59002e-06
7.40168e-06
2.74109e-06
3.66953e-07
3.77108e-07
3.79461e-07
3.18567e-07
4.66184e-07
9.45361e-07
1.99087e-07
1.96002e-07
1.91175e-07
1.3526e-07
6.75962e-08
1.81701e-08
2.60526e-09
6.5532e-22
2.10276e-19
1.77487e-17
6.87969e-16
1.53971e-14
2.25431e-13
2.3349e-12
1.80433e-11
1.08077e-10
5.16253e-10
2.0099e-09
6.49022e-09
1.76517e-08
4.10714e-08
8.30932e-08
1.4687e-07
2.18351e-07
2.52469e-07
5.62251e-07
3.15432e-07
3.23619e-07
3.50018e-07
3.82807e-07
3.32752e-07
3.47306e-07
4.68403e-07
3.39887e-07
3.26087e-07
4.07151e-07
3.57429e-07
4.96352e-06
7.52676e-06
7.562e-06
7.58978e-06
7.58995e-06
7.58151e-06
7.57328e-06
4.65439e-06
4.24213e-07
3.80498e-07
7.80902e-07
3.53036e-05
5.26626e-05
2.37558e-05
1.86229e-07
1.64138e-07
1.55846e-07
9.02752e-08
2.82394e-08
4.50713e-09
1.07297e-21
3.40128e-19
2.83282e-17
1.08182e-15
2.38081e-14
3.42018e-13
3.46771e-12
2.61708e-11
1.52759e-10
7.09697e-10
2.68315e-09
8.40249e-09
2.21181e-08
4.95475e-08
9.52445e-08
1.56899e-07
2.1862e-07
2.55827e-07
2.584e-07
3.20898e-07
3.55366e-07
3.62044e-07
6.26429e-07
4.46562e-06
4.94938e-06
3.7451e-07
3.34861e-07
5.14579e-07
4.55213e-07
5.50133e-07
5.05888e-06
6.59458e-06
6.14218e-06
4.61295e-06
4.2125e-06
6.05546e-06
7.57595e-06
7.52993e-06
1.30666e-06
3.83626e-07
2.92044e-05
5.26578e-05
5.27066e-05
5.27135e-05
1.6179e-05
1.6137e-07
1.34244e-07
1.1214e-07
3.9191e-08
7.22844e-09
1.4351e-21
4.58622e-19
3.83611e-17
1.46617e-15
3.21841e-14
4.59613e-13
4.61727e-12
3.44184e-11
1.97852e-10
9.02843e-10
3.34434e-09
1.02337e-08
2.62202e-08
5.67865e-08
1.04443e-07
1.63178e-07
2.17564e-07
2.55358e-07
2.8224e-07
3.13029e-07
3.29078e-07
1.07303e-06
1.38328e-05
2.12017e-05
2.1204e-05
8.36161e-06
3.18363e-07
3.20641e-07
4.63342e-07
2.18495e-06
3.32693e-07
3.28095e-07
3.26638e-07
3.26007e-07
3.25758e-07
3.25705e-07
1.27638e-06
5.2083e-06
2.1225e-06
4.02691e-07
3.47502e-05
5.27139e-05
5.27163e-05
5.27212e-05
2.94019e-05
2.09029e-07
1.42373e-07
1.30383e-07
5.03501e-08
1.08429e-08
1.55139e-21
5.12353e-19
4.39266e-17
1.70995e-15
3.80197e-14
5.47217e-13
5.51496e-12
4.10643e-11
2.34851e-10
1.06225e-09
3.88634e-09
1.17014e-08
2.93605e-08
6.18656e-08
1.098e-07
1.64491e-07
2.10891e-07
2.42976e-07
2.70545e-07
6.66806e-07
4.73029e-07
1.02413e-05
2.11954e-05
2.11974e-05
2.12009e-05
1.6441e-05
3.18414e-07
3.53618e-07
4.94621e-07
2.19303e-06
4.83838e-07
3.56272e-07
3.56291e-07
3.43157e-07
3.38895e-07
3.28745e-07
3.25083e-07
3.24977e-07
2.06256e-06
1.50211e-06
1.108e-05
5.27224e-05
5.27222e-05
5.27164e-05
2.09546e-05
1.92987e-07
1.64273e-07
1.46541e-07
6.23735e-08
1.53503e-08
1.32778e-21
4.68101e-19
4.21736e-17
1.70642e-15
3.90993e-14
5.75753e-13
5.89889e-12
4.43952e-11
2.55273e-10
1.15521e-09
4.20979e-09
1.25749e-08
3.11959e-08
6.48554e-08
1.13744e-07
1.70072e-07
2.22828e-07
2.72259e-07
3.31687e-07
7.21294e-07
8.6752e-06
1.68356e-05
2.11958e-05
2.11969e-05
2.02204e-05
1.27703e-06
3.24074e-07
3.37475e-07
3.98227e-07
8.88018e-07
5.48875e-07
1.26908e-06
1.6137e-06
6.98759e-07
3.41667e-07
3.33236e-07
3.28363e-07
3.25102e-07
1.86791e-06
3.72275e-06
3.63494e-06
1.32868e-05
3.23522e-05
2.10767e-05
3.86482e-06
2.31105e-07
2.19703e-07
1.6148e-07
7.64548e-08
2.09572e-08
8.68045e-22
3.42044e-19
3.34486e-17
1.44214e-15
3.47477e-14
5.3253e-13
5.62975e-12
4.3391e-11
2.53789e-10
1.16107e-09
4.25419e-09
1.27191e-08
3.14909e-08
6.53303e-08
1.14825e-07
1.73645e-07
2.32985e-07
3.08632e-07
5.38962e-07
1.14861e-05
1.70204e-05
1.702e-05
1.34544e-05
1.55678e-05
2.99109e-06
3.13521e-07
3.14937e-07
3.1991e-07
3.64301e-07
3.12771e-07
7.26526e-07
1.75122e-06
1.75201e-06
1.15266e-06
3.46181e-07
3.33493e-07
3.33343e-07
3.38199e-07
3.39281e-07
3.65386e-06
1.31698e-06
4.59036e-07
6.10401e-07
3.53863e-07
2.64001e-07
3.98993e-07
2.30482e-07
1.72001e-07
9.35108e-08
2.8629e-08
4.07715e-22
1.9273e-19
2.13997e-17
1.01522e-15
2.63685e-14
4.29207e-13
4.76363e-12
3.81755e-11
2.3022e-10
1.07786e-09
4.01484e-09
1.21362e-08
3.02709e-08
6.3242e-08
1.12527e-07
1.75397e-07
2.58548e-07
4.19719e-07
2.40687e-06
1.70252e-05
1.70211e-05
1.70208e-05
4.29065e-06
3.10011e-07
3.07843e-07
3.07729e-07
3.10801e-07
3.11776e-07
3.10067e-07
3.12653e-07
7.07675e-07
1.72098e-06
1.32031e-06
4.61591e-07
3.75682e-07
3.3644e-07
3.4649e-07
3.7637e-07
4.06731e-07
1.16013e-06
4.6298e-07
4.37315e-07
4.03831e-07
3.59644e-07
2.47646e-07
3.99929e-07
2.55087e-07
1.64703e-07
1.10227e-07
3.93212e-08
1.29348e-22
7.99652e-20
1.06676e-17
5.8032e-16
1.67747e-14
2.97322e-13
3.53671e-12
3.00015e-11
1.89539e-10
9.21298e-10
3.53454e-09
1.09292e-08
2.77352e-08
5.87487e-08
1.05722e-07
1.65004e-07
2.27401e-07
2.27478e-07
4.76622e-06
1.70283e-05
1.70247e-05
1.6515e-05
3.44925e-06
3.22235e-07
3.12235e-07
3.06644e-07
3.07286e-07
3.05181e-07
3.06975e-07
3.11983e-07
6.84259e-07
3.19497e-07
3.21428e-07
3.35746e-07
3.45542e-07
3.42808e-07
3.74916e-07
3.81688e-07
4.04813e-07
2.97383e-06
9.93829e-06
2.50304e-06
9.87833e-07
2.48317e-07
2.40137e-07
2.4398e-07
2.04713e-07
2.3437e-07
1.25808e-07
5.34269e-08
3.0726e-23
2.80598e-20
4.68377e-18
2.96413e-16
9.59589e-15
1.86247e-13
2.38926e-12
2.16142e-11
1.44361e-10
7.36231e-10
2.94149e-09
9.40911e-09
2.45439e-08
5.31428e-08
9.72861e-08
1.53433e-07
2.09822e-07
2.30502e-07
1.43397e-06
1.16534e-05
1.64444e-05
2.41194e-06
3.11255e-07
3.11265e-07
3.07978e-07
3.0436e-07
3.04678e-07
3.01919e-07
3.02522e-07
3.15892e-07
2.98074e-07
3.15494e-07
3.3032e-07
1.18398e-06
8.72473e-07
3.58026e-07
3.77235e-07
3.15274e-06
6.76362e-06
6.36141e-06
1.14542e-05
7.74592e-06
3.50567e-07
1.96678e-07
1.89868e-07
1.90026e-07
1.9431e-07
1.90019e-07
1.40363e-07
6.71762e-08
4.97492e-24
8.26549e-21
1.845e-18
1.40342e-16
5.18023e-15
1.11188e-13
1.5469e-12
1.49681e-11
1.05829e-10
5.66702e-10
2.36067e-09
7.82417e-09
2.10313e-08
4.66844e-08
8.7211e-08
1.39935e-07
1.96316e-07
2.56944e-07
4.2759e-07
3.68603e-07
1.66262e-06
3.12881e-07
3.11885e-07
3.10909e-07
3.96643e-07
3.02307e-07
3.03412e-07
2.98554e-07
3.00426e-07
2.80103e-07
2.93485e-07
3.1716e-07
3.48914e-07
1.60536e-06
3.94116e-06
3.78853e-07
2.97893e-06
2.52088e-05
3.37214e-05
1.92814e-05
6.671e-06
5.98724e-06
5.93387e-06
4.97608e-06
2.19136e-06
1.87112e-06
6.39903e-07
1.42641e-07
1.50141e-07
7.97782e-08
5.89788e-25
2.02706e-21
6.33964e-19
5.95648e-17
2.55211e-15
6.13249e-14
9.33206e-13
9.71987e-12
7.3099e-11
4.12709e-10
1.80045e-09
6.21515e-09
1.73184e-08
3.96752e-08
7.61766e-08
1.25242e-07
1.8074e-07
2.39316e-07
3.5641e-07
3.68319e-07
3.50346e-07
4.2799e-07
3.07399e-07
3.06664e-07
2.9922e-07
3.01773e-07
3.03899e-07
2.95337e-07
2.97579e-07
2.86991e-07
8.50241e-07
1.45428e-06
3.63983e-07
1.45312e-06
4.08378e-06
3.93379e-06
2.34044e-05
3.40764e-05
3.38718e-05
2.87923e-05
6.50006e-06
6.36491e-06
7.053e-06
3.40184e-06
2.41142e-06
6.93991e-06
1.26749e-06
1.28728e-07
1.46183e-07
7.7886e-08
6.03201e-26
4.48641e-22
1.98931e-19
2.32754e-17
1.16511e-15
3.15066e-14
5.26627e-13
5.92619e-12
4.75727e-11
2.84168e-10
1.30315e-09
4.70515e-09
1.36592e-08
3.24804e-08
6.45065e-08
1.09423e-07
1.62921e-07
2.20353e-07
2.86408e-07
4.30565e-07
3.48786e-07
3.13107e-07
3.11934e-07
3.02492e-07
2.99024e-07
2.99614e-07
3.03059e-07
2.90696e-07
2.9365e-07
2.96478e-07
1.20588e-06
2.17442e-06
1.40464e-06
1.41815e-06
2.97697e-06
1.12076e-05
2.49631e-05
3.37804e-05
1.70868e-05
1.42595e-05
7.22116e-06
5.23965e-05
0.000138758
1.23695e-05
7.13012e-05
2.48112e-07
7.13616e-08
6.77587e-08
6.04784e-08
5.96684e-08
5.82933e-27
9.48016e-23
5.94392e-20
8.64535e-18
5.05267e-16
1.53749e-14
2.82362e-13
3.43507e-12
2.94649e-11
1.86466e-10
9.00352e-10
3.40726e-09
1.03349e-08
2.56059e-08
5.28611e-08
9.30149e-08
1.43105e-07
1.98866e-07
2.61719e-07
2.67088e-07
3.34838e-07
3.25784e-07
3.06437e-07
2.97426e-07
2.94128e-07
2.93636e-07
3.46659e-07
2.79946e-07
2.85816e-07
2.82113e-07
4.49088e-07
2.17717e-06
2.04842e-06
1.32355e-06
6.51351e-06
1.74492e-05
1.75372e-05
1.77134e-05
1.77836e-05
5.93507e-05
7.08003e-05
5.9304e-05
6.64982e-05
1.97187e-05
1.96895e-05
2.37791e-06
1.57616e-07
7.10931e-08
0.0227172
0.0655717
5.2343e-28
1.90371e-23
1.69654e-20
3.07135e-18
2.09613e-16
7.17654e-15
1.44788e-13
1.90392e-12
1.74512e-11
1.17029e-10
5.95232e-10
2.36298e-09
7.49959e-09
1.94045e-08
4.17726e-08
7.65146e-08
1.22115e-07
1.74654e-07
2.33449e-07
2.91391e-07
3.16439e-07
3.13217e-07
3.00713e-07
2.92625e-07
2.86668e-07
2.8471e-07
2.75224e-07
2.7414e-07
2.74276e-07
2.72661e-07
2.82124e-07
4.47142e-07
8.0182e-07
9.01767e-07
8.85154e-06
2.66797e-05
2.89813e-05
2.49586e-05
3.52185e-05
8.85594e-05
0.000266033
7.8329e-05
0.000181305
0.000560662
0.0507294
0.182577
0.416786
0.658616
0.841571
0.926853
4.14706e-29
3.50691e-24
4.51576e-21
1.02617e-18
8.21799e-17
3.17513e-15
7.05065e-14
1.00328e-12
9.83413e-12
6.99255e-11
3.7485e-10
1.56225e-09
5.19306e-09
1.40519e-08
3.16048e-08
6.04032e-08
1.00323e-07
1.48167e-07
2.01415e-07
2.57979e-07
2.9352e-07
3.00579e-07
2.94011e-07
2.90896e-07
2.7889e-07
2.76133e-07
2.6823e-07
2.66129e-07
2.63278e-07
2.68989e-07
2.81773e-07
2.85515e-07
3.06335e-07
5.44396e-06
2.23034e-05
4.97757e-05
5.19819e-05
4.61823e-05
7.23376e-05
0.000208762
0.000413836
0.00217482
0.0709527
0.304752
0.645621
0.91247
0.996062
1
1
0.999999
2.80789e-30
5.74081e-25
1.08998e-21
3.14862e-19
2.9841e-17
1.30889e-15
3.21279e-14
4.96234e-13
5.21325e-12
3.93728e-11
2.22784e-10
9.7606e-10
3.40204e-09
9.63938e-09
2.26857e-08
4.53286e-08
7.85806e-08
1.20769e-07
1.68278e-07
2.20273e-07
2.63393e-07
2.82192e-07
2.85849e-07
2.91732e-07
2.72128e-07
2.72628e-07
2.65785e-07
2.57716e-07
2.57518e-07
2.72081e-07
2.78344e-07
2.95049e-07
4.29311e-07
3.40059e-05
6.45725e-05
6.97868e-05
6.69748e-05
7.51008e-05
0.000307915
0.000475578
0.00171771
0.182528
0.572267
0.893957
0.999217
1
1
1
1
1
1.60755e-31
8.1862e-26
2.33496e-22
8.68872e-20
9.84255e-18
4.93843e-16
1.3478e-14
2.26999e-13
2.56513e-12
2.06367e-11
1.23548e-10
5.70168e-10
2.08716e-09
6.20189e-09
1.52973e-08
3.20198e-08
5.81006e-08
9.33046e-08
1.3522e-07
1.80407e-07
2.25638e-07
2.53716e-07
2.55797e-07
5.2521e-07
2.61829e-07
2.69798e-07
2.64421e-07
2.5531e-07
2.45648e-07
2.71692e-07
9.57439e-07
1.39258e-06
1.4967e-06
1.2844e-05
3.46313e-05
3.77388e-05
0.000128874
0.00064315
0.000606575
0.00958088
0.284192
0.744083
0.981302
0.999671
0.999962
1
1
1
1
1
7.76261e-33
1.00396e-26
4.369e-23
2.1202e-20
2.89952e-18
1.67775e-16
5.12516e-15
9.46375e-14
1.15545e-12
9.93881e-12
6.31514e-11
3.07776e-10
1.18576e-09
3.70215e-09
9.58866e-09
2.10704e-08
4.01271e-08
6.75808e-08
1.02492e-07
1.42295e-07
1.83065e-07
2.1854e-07
2.19893e-07
2.17809e-07
2.61894e-07
2.69001e-07
3.25842e-07
2.30982e-07
2.35023e-07
2.46682e-07
2.52497e-06
1.77261e-05
1.82896e-05
1.29798e-05
2.19009e-05
0.00018845
0.000610111
0.000677631
0.0042207
0.340101
0.818273
0.999825
0.999931
0.999979
0.999998
1
1
1
1
1
3.16682e-34
1.04616e-27
7.03415e-24
4.50154e-21
7.50438e-19
5.04925e-17
1.73859e-15
3.54077e-14
4.69422e-13
4.33554e-12
2.93424e-11
1.51471e-10
6.15773e-10
2.02475e-09
5.51904e-09
1.27624e-08
2.55809e-08
4.53399e-08
7.2305e-08
1.05325e-07
1.41752e-07
1.77644e-07
1.98207e-07
2.14574e-07
2.44663e-07
2.61476e-07
2.5407e-07
2.24661e-07
2.31348e-07
2.36451e-07
2.60233e-07
8.23847e-06
1.84424e-05
1.58494e-05
0.000142591
0.000277899
0.000341721
0.00737714
0.308233
0.817807
0.999809
0.999969
0.999995
0.999998
1
1
1
1
1
1
1.10044e-35
9.11889e-29
9.54537e-25
8.14572e-22
1.67162e-19
1.31921e-17
5.15867e-16
1.16629e-14
1.68836e-13
1.68232e-12
1.21766e-11
6.68102e-11
2.8748e-10
9.9836e-10
2.87186e-09
7.00851e-09
1.48321e-08
2.77682e-08
4.67803e-08
7.19444e-08
1.02173e-07
1.35108e-07
1.62471e-07
1.85791e-07
2.12079e-07
2.21939e-07
2.14993e-07
2.13779e-07
2.25023e-07
2.26332e-07
2.73449e-07
2.7323e-05
6.21863e-05
6.57903e-05
0.000445184
0.000399092
0.00106838
0.1996
0.738986
0.998316
0.999985
0.999995
0.999999
1
1
1
1
1
1
1
3.25654e-37
6.54444e-30
1.05223e-25
1.21188e-22
3.10255e-20
2.90183e-18
1.30021e-16
3.28841e-15
5.2326e-14
5.65733e-13
4.4008e-12
2.57751e-11
1.17859e-10
4.33906e-10
1.32204e-09
3.41768e-09
7.66717e-09
1.52292e-08
2.72411e-08
4.45027e-08
6.71605e-08
9.44491e-08
1.22431e-07
1.48278e-07
1.79323e-07
2.03033e-07
2.08735e-07
2.08902e-07
2.18699e-07
2.03574e-07
2.50793e-07
3.1824e-05
7.56871e-05
7.63545e-05
0.000119147
0.000534885
0.0924997
0.562068
0.982778
0.999956
0.999997
0.999999
1
1
1
1
1
1
1
1
8.35416e-39
3.89609e-31
9.24045e-27
1.39047e-23
4.46505e-21
5.05911e-19
2.6428e-17
7.57135e-16
1.33684e-14
1.58095e-13
1.331e-12
8.37314e-12
4.09226e-11
1.60601e-10
5.2111e-10
1.43492e-09
3.43189e-09
7.276e-09
1.39092e-08
2.43114e-08
3.92912e-08
5.92329e-08
8.30061e-08
1.08626e-07
1.37579e-07
1.67895e-07
1.90978e-07
1.98914e-07
1.99908e-07
1.82815e-07
2.11794e-07
3.74715e-07
2.86228e-06
2.33128e-05
0.002138
0.0146592
0.299573
0.896032
0.999848
0.999993
0.999999
1
1
1
1
1
1
1
1
1
1.82548e-40
2.02461e-32
6.90841e-28
1.28794e-24
4.84933e-22
6.27077e-20
3.8052e-18
1.26437e-16
2.55129e-15
3.37736e-14
3.13385e-13
2.14325e-12
1.13103e-11
4.77728e-11
1.6663e-10
4.93277e-10
1.26959e-09
2.90058e-09
5.98431e-09
1.13047e-08
1.97694e-08
3.22769e-08
4.92226e-08
7.02469e-08
9.55418e-08
1.24784e-07
1.53455e-07
1.74521e-07
1.87165e-07
1.65949e-07
1.85125e-07
8.44328e-07
2.81754e-06
-2.04363e-08
2.51903e-05
0.0666262
0.621629
0.999325
0.999977
0.999999
1
1
1
1
1
1
1
1
1
1
3.15354e-42
8.93278e-34
4.62969e-29
1.1029e-25
4.78227e-23
6.80038e-21
4.34296e-19
1.49513e-17
3.18642e-16
4.58585e-15
4.69498e-14
3.62946e-13
2.15553e-12
1.01447e-11
3.89589e-11
1.26453e-10
3.56896e-10
8.94923e-10
2.02859e-09
4.21418e-09
8.10857e-09
1.45655e-08
2.44803e-08
3.85318e-08
5.73078e-08
8.10846e-08
1.08105e-07
1.33959e-07
1.55527e-07
1.57982e-07
1.99468e-07
1.06296e-06
2.89765e-06
1.47984e-08
6.49546e-08
0.195915
0.888183
0.999884
1
1
1
1
1
1
1
1
1
1
1
1
4.23946e-44
3.78765e-35
3.87082e-30
1.34127e-26
6.9399e-24
1.04378e-21
6.57156e-20
2.16063e-18
4.28866e-17
5.68125e-16
5.35657e-15
3.83639e-14
2.2096e-13
1.08374e-12
4.83313e-12
1.87503e-11
6.25203e-11
1.81815e-10
4.74003e-10
1.12625e-09
2.46743e-09
5.02445e-09
9.5395e-09
1.68982e-08
2.80431e-08
4.37705e-08
6.39328e-08
8.65214e-08
1.08689e-07
1.20521e-07
1.31144e-07
1.31363e-07
6.47332e-08
4.23433e-09
1.06701e-08
0.417252
0.99197
1
1
1
1
1
1
1
1
1
1
1
1
1
7.04151e-44
3.02936e-34
3.87019e-29
1.27742e-25
5.86588e-23
7.59292e-21
4.01435e-19
1.0824e-17
1.72217e-16
1.7932e-15
1.31706e-14
7.21885e-14
3.0771e-13
1.051e-12
2.94789e-12
6.95649e-12
1.45646e-11
3.01845e-11
6.86743e-11
1.84602e-10
4.8059e-10
1.16417e-09
2.60896e-09
5.39666e-09
1.03106e-08
1.82228e-08
2.96963e-08
4.42912e-08
6.03438e-08
7.26781e-08
7.86542e-08
6.91069e-08
5.34651e-08
5.85164e-13
2.9554e-09
0.650157
1
1
1
1
1
1
1
1
1
1
1
1
1
1
3.98844e-41
1.67735e-39
6.02017e-38
1.85305e-36
4.98662e-35
1.2071e-33
2.7223e-32
5.92455e-31
1.27673e-29
2.75486e-28
5.90663e-27
1.1984e-25
2.02235e-24
2.15555e-23
1.4399e-22
6.27996e-22
1.93512e-21
4.42121e-21
7.76837e-21
1.07583e-20
1.19381e-20
1.07186e-20
7.81604e-21
4.62157e-21
2.20027e-21
8.38702e-22
2.53878e-22
6.03094e-23
1.12051e-23
1.62996e-24
1.84833e-25
1.63121e-26
1.12494e-27
6.12925e-29
2.72179e-30
1.07148e-31
3.86791e-33
1.2667e-34
3.75856e-36
1.01564e-37
2.48972e-39
5.45519e-41
1.02893e-42
1.5658e-44
1.74247e-46