/*--------------------------------*- C++ -*----------------------------------*\
| =========                 |                                                 |
| \\      /  F ield         | OpenFOAM: The Open Source CFD Toolbox           |
|  \\    /   O peration     | Version:  2.4.0                                 |
|   \\  /    A nd           | Web:      www.OpenFOAM.org                      |
|    \\/     M anipulation  |                                                 |
\*---------------------------------------------------------------------------*/
FoamFile
{
    version     2.0;
    format      ascii;
    class       volScalarField;
    location    "0.144";
    object      alpha.water;
}
// * * * * * * * * * * * * * * * * * * * * * * * * * * * * * * * * * * * * * //

dimensions      [0 0 0 0 0 0 0];

internalField   nonuniform List<scalar> 
10000
(
1.67414e-64
2.5887e-60
9.45686e-58
6.3849e-56
1.62014e-54
2.14758e-53
2.49958e-52
5.89985e-51
8.67277e-50
1.34846e-48
1.87686e-46
2.05238e-44
2.46773e-42
3.69546e-40
3.33754e-38
2.31253e-36
1.26311e-34
6.35553e-33
2.58542e-31
7.43419e-30
1.61314e-28
2.72726e-27
3.58269e-26
3.68679e-25
2.98869e-24
1.89852e-23
9.48841e-23
3.7703e-22
1.15538e-21
2.13094e-21
2.50857e-21
1.96492e-21
1.04197e-21
3.77712e-22
9.35834e-23
1.57438e-23
1.75736e-24
1.27595e-25
6.07112e-27
2.10916e-28
5.75041e-30
1.2593e-31
2.27195e-33
3.48457e-35
4.62528e-37
5.22383e-39
4.82078e-41
3.4124e-43
4.06212e-45
4.74945e-44
1.6265e-60
1.56922e-56
5.66083e-54
4.63566e-52
1.60512e-50
3.38017e-49
7.78001e-48
3.19111e-46
4.03711e-44
3.87184e-42
2.90636e-40
1.73627e-38
8.47155e-37
3.44179e-35
1.21704e-33
3.97916e-32
1.14391e-30
3.11177e-29
7.89096e-28
1.57306e-26
2.4843e-25
3.16904e-24
3.26189e-23
2.719e-22
1.84321e-21
1.00865e-20
4.49351e-20
1.63631e-19
4.64148e-19
8.26347e-19
9.76712e-19
7.96893e-19
4.55556e-19
1.84524e-19
5.31065e-20
1.08641e-20
1.55989e-21
1.55556e-22
1.09463e-23
5.86749e-25
2.51333e-26
8.74485e-28
2.50228e-29
5.96272e-31
1.18971e-32
1.96191e-34
2.57194e-36
2.50413e-38
2.12363e-40
1.09874e-39
4.53559e-57
2.96606e-53
1.08984e-50
1.09561e-48
5.42282e-47
2.16689e-45
1.63361e-43
1.78207e-41
1.46223e-39
9.26638e-38
4.63308e-36
1.86787e-34
6.20707e-33
1.72992e-31
4.09861e-30
8.48757e-29
1.59624e-27
2.7788e-26
4.67603e-25
6.77876e-24
8.17946e-23
8.23981e-22
6.91416e-21
4.83299e-20
2.81158e-19
1.35612e-18
5.47613e-18
1.84322e-17
4.87293e-17
8.37079e-17
9.87696e-17
8.30782e-17
5.03476e-17
2.22534e-17
7.19774e-18
1.70709e-18
2.93289e-19
3.61446e-20
3.21672e-21
2.1935e-22
1.20674e-23
5.45703e-25
2.0604e-26
6.59303e-28
1.79763e-29
4.11411e-31
7.57373e-33
1.03914e-34
3.21609e-36
1.05242e-34
6.0398e-54
2.81185e-50
1.06972e-47
1.32915e-45
9.92988e-44
8.96975e-42
9.89761e-40
7.97035e-38
4.77178e-36
2.2102e-34
8.17938e-33
2.47827e-31
6.26555e-30
1.34178e-28
2.46369e-27
3.92439e-26
5.62226e-25
7.39285e-24
9.33579e-23
1.06348e-21
1.03694e-20
8.62255e-20
6.10905e-19
3.68129e-18
1.87755e-17
8.1199e-17
3.00412e-16
9.37708e-16
2.31315e-15
3.82914e-15
4.49279e-15
3.87204e-15
2.46296e-15
1.1726e-15
4.19195e-16
1.12741e-16
2.2488e-17
3.28058e-18
3.48362e-19
2.83277e-20
1.86467e-21
1.01882e-22
4.74366e-24
1.93114e-25
6.96028e-27
2.19444e-28
5.74316e-30
1.10714e-31
3.06582e-32
1.04977e-30
4.72482e-51
1.62703e-47
6.46467e-45
9.95726e-43
1.17907e-40
1.43906e-38
1.23134e-36
7.57233e-35
3.52462e-33
1.28961e-31
3.81597e-30
9.3333e-29
1.91963e-27
3.36625e-26
5.09042e-25
6.70471e-24
7.84611e-23
8.4236e-22
8.58333e-21
8.07881e-20
6.62963e-19
4.71179e-18
2.89367e-17
1.53133e-16
6.96665e-16
2.73966e-15
9.32641e-15
2.70138e-14
6.21202e-14
9.88599e-14
1.15002e-13
1.0114e-13
6.70728e-14
3.4121e-14
1.33592e-14
4.03322e-15
9.2199e-16
1.56307e-16
1.94076e-17
1.82904e-18
1.39724e-19
8.96485e-21
5.04107e-22
2.58833e-23
1.23576e-24
5.36781e-26
1.89469e-27
4.54648e-29
4.93764e-29
1.48233e-27
2.38957e-48
6.35553e-45
2.64254e-42
5.06004e-40
7.39648e-38
7.39549e-36
5.06022e-34
2.53041e-32
9.69518e-31
2.9475e-29
7.30103e-28
1.50398e-26
2.61857e-25
3.90423e-24
5.03921e-23
5.68385e-22
5.67238e-21
5.17282e-20
4.43413e-19
3.54829e-18
2.51144e-17
1.55668e-16
8.43017e-16
3.98088e-15
1.63672e-14
5.88979e-14
1.85373e-13
4.97101e-13
1.0639e-12
1.62444e-12
1.86872e-12
1.67224e-12
1.15046e-12
6.22161e-13
2.65324e-13
8.9553e-14
2.33739e-14
4.58394e-15
6.62172e-16
7.16834e-17
6.27899e-18
4.68668e-19
3.17392e-20
2.05844e-21
1.29629e-22
7.40823e-24
3.19629e-25
8.73529e-27
2.17002e-26
5.54445e-25
8.16654e-46
1.78668e-42
7.49096e-40
1.54634e-37
2.01931e-35
1.67035e-33
9.57859e-32
4.05264e-30
1.32331e-28
3.44832e-27
7.35557e-26
1.30995e-24
1.97839e-23
2.56618e-22
2.88897e-21
2.8486e-20
2.48369e-19
1.9678e-18
1.45489e-17
1.00849e-16
6.25229e-16
3.42238e-15
1.65185e-14
7.02499e-14
2.6318e-13
8.71663e-13
2.53398e-12
6.28423e-12
1.25007e-11
1.82887e-11
2.07668e-11
1.8859e-11
1.34106e-11
7.68572e-12
3.55531e-12
1.34147e-12
4.00053e-13
9.10554e-14
1.53549e-14
1.91944e-15
1.92078e-16
1.66379e-17
1.35478e-18
1.10105e-19
8.85933e-21
6.26321e-22
3.10794e-23
9.38528e-25
3.63652e-24
7.8839e-23
1.87561e-43
3.3633e-40
1.34402e-37
2.63756e-35
2.92098e-33
2.0692e-31
1.02362e-29
3.75697e-28
1.06884e-26
2.43519e-25
4.55484e-24
7.13034e-23
9.48598e-22
1.08585e-20
1.08055e-19
9.43118e-19
7.28512e-18
5.08109e-17
3.29231e-16
1.99923e-15
1.09579e-14
5.33826e-14
2.31148e-13
8.90174e-13
3.04978e-12
9.30386e-12
2.4977e-11
5.71711e-11
1.05704e-10
1.4819e-10
1.65941e-10
1.52499e-10
1.11754e-10
6.78519e-11
3.38638e-11
1.43254e-11
4.89413e-12
1.30227e-12
2.58665e-13
3.77503e-14
4.3186e-15
4.33782e-16
4.22106e-17
4.21119e-18
4.16243e-19
3.49441e-20
1.96462e-21
6.44302e-23
2.79559e-22
5.3123e-21
2.75776e-41
4.19888e-38
1.58296e-35
2.71582e-33
2.61646e-31
1.62147e-29
7.04706e-28
2.27976e-26
5.73146e-25
1.15634e-23
1.91856e-22
2.66801e-21
3.15693e-20
3.21738e-19
2.853e-18
2.2206e-17
1.53009e-16
9.47664e-16
5.42993e-15
2.91118e-14
1.4181e-13
6.17415e-13
2.40624e-12
8.41067e-12
2.63681e-11
7.39816e-11
1.82962e-10
3.86388e-10
6.65133e-10
8.9485e-10
9.88754e-10
9.16094e-10
6.90593e-10
4.45665e-10
2.37806e-10
1.13333e-10
4.44677e-11
1.39578e-11
3.30624e-12
5.71852e-13
7.5399e-14
8.75536e-15
1.00198e-15
1.19259e-16
1.40179e-17
1.37341e-18
8.85253e-20
3.13531e-21
1.12541e-20
1.95683e-19
2.72216e-39
3.6668e-36
1.25083e-33
1.88746e-31
1.60671e-29
8.82726e-28
3.40966e-26
9.82206e-25
2.20202e-23
3.9663e-22
5.88064e-21
7.31324e-20
7.74298e-19
7.06395e-18
5.60887e-17
3.90981e-16
2.41263e-15
1.33412e-14
6.79481e-14
3.23086e-13
1.4019e-12
5.46194e-12
1.91695e-11
6.07941e-11
1.74125e-10
4.48094e-10
1.01838e-09
1.98417e-09
3.19271e-09
4.13855e-09
4.52195e-09
4.19999e-09
3.26124e-09
2.25234e-09
1.26537e-09
6.82929e-10
3.07726e-10
1.14862e-10
3.2863e-11
6.87334e-12
1.05886e-12
1.41082e-13
1.85859e-14
2.56519e-15
3.501e-16
3.98714e-17
3.0164e-18
1.19037e-19
2.61143e-19
4.35023e-18
1.93802e-37
2.34901e-34
7.10024e-32
9.52841e-30
7.23521e-28
3.55342e-26
1.22887e-24
3.17278e-23
6.38013e-22
1.03133e-20
1.37281e-19
1.53312e-18
1.45782e-17
1.19444e-16
8.5164e-16
5.32977e-15
2.95169e-14
1.46219e-13
6.6412e-13
2.8064e-12
1.08465e-11
3.77893e-11
1.19251e-10
3.4233e-10
8.93031e-10
2.10109e-09
4.3799e-09
7.88418e-09
1.19373e-08
1.50511e-08
1.63184e-08
1.50079e-08
1.21346e-08
9.01913e-09
5.21075e-09
3.1922e-09
1.64476e-09
7.3403e-10
2.56205e-10
6.59509e-11
1.21727e-11
1.85872e-12
2.77008e-13
4.31334e-14
6.69477e-15
8.8439e-16
8.00813e-17
3.75129e-18
3.73808e-18
6.25323e-17
1.04399e-35
1.13217e-32
3.05201e-30
3.66584e-28
2.49725e-26
1.10208e-24
3.42838e-23
7.96746e-22
1.44267e-20
2.10021e-19
2.51775e-18
2.53206e-17
2.16769e-16
1.59843e-15
1.0252e-14
5.76816e-14
2.86996e-13
1.27518e-12
5.17511e-12
1.94565e-11
6.69029e-11
2.07958e-10
5.88238e-10
1.52306e-09
3.60535e-09
7.73133e-09
1.47679e-08
2.46594e-08
3.56867e-08
4.43754e-08
4.78619e-08
4.25112e-08
3.6761e-08
2.91815e-08
1.68484e-08
1.16436e-08
6.81382e-09
3.64226e-09
1.55741e-09
5.00409e-10
1.14254e-10
2.02836e-11
3.41256e-12
5.88219e-13
1.01745e-13
1.54292e-14
1.68955e-15
1.00629e-16
3.51415e-17
6.10208e-16
4.39585e-34
4.25561e-31
1.02742e-28
1.10887e-26
6.80197e-25
2.70678e-23
7.59894e-22
1.59436e-20
2.60663e-19
3.42595e-18
3.70706e-17
3.36385e-16
2.59717e-15
1.72614e-14
9.97105e-14
5.04815e-13
2.25781e-12
9.00372e-12
3.26735e-11
1.09357e-10
3.33978e-10
9.23338e-10
2.33213e-09
5.42417e-09
1.16087e-08
2.26324e-08
3.96552e-08
6.2287e-08
9.06494e-08
1.04721e-07
1.1171e-07
9.64272e-08
9.31307e-08
7.61491e-08
4.27558e-08
3.27497e-08
2.17626e-08
1.38995e-08
7.25586e-09
2.92742e-09
8.49959e-10
1.80761e-10
3.48963e-11
6.64543e-12
1.26376e-12
2.17193e-13
2.85139e-14
2.22712e-15
2.58156e-16
4.19308e-15
1.46995e-32
1.27028e-29
2.75506e-27
2.67996e-25
1.48473e-23
5.34319e-22
1.35755e-20
2.57847e-19
3.81595e-18
4.53859e-17
4.44216e-16
3.64406e-15
2.54186e-14
1.52505e-13
7.94501e-13
3.62347e-12
1.45784e-11
5.2202e-11
1.69494e-10
5.05176e-10
1.36799e-09
3.35332e-09
7.53451e-09
1.5685e-08
3.02615e-08
5.36088e-08
8.70139e-08
1.35472e-07
2.1503e-07
1.15217e-07
1.21799e-07
1.74996e-07
1.9998e-07
1.57607e-07
8.28955e-08
6.8856e-08
5.31179e-08
4.02747e-08
2.53823e-08
1.28056e-08
4.81265e-09
1.28628e-09
2.92116e-10
6.21942e-11
1.2967e-11
2.49313e-12
3.85881e-13
3.91044e-14
2.50354e-15
2.08167e-14
3.89872e-31
3.01671e-28
5.89689e-26
5.18656e-24
2.60344e-22
8.49985e-21
1.96057e-19
3.3815e-18
4.54377e-17
4.90505e-16
4.35509e-15
3.23888e-14
2.04667e-13
1.11143e-12
5.23491e-12
2.15544e-11
7.81502e-11
2.516e-10
7.3178e-10
1.94357e-09
4.66255e-09
1.0109e-08
2.0147e-08
3.74485e-08
6.50783e-08
1.05428e-07
1.62302e-07
2.44153e-07
1.17648e-06
4.17966e-06
3.48449e-06
2.24268e-07
3.78775e-07
2.51741e-07
1.22779e-07
1.05046e-07
9.88569e-08
8.8125e-08
6.57909e-08
4.09125e-08
1.98822e-08
6.98617e-09
1.94709e-09
4.83932e-10
1.12937e-10
2.41415e-11
4.3009e-12
5.43403e-13
3.75766e-14
7.6615e-14
8.09732e-30
5.63624e-27
9.97413e-25
7.96763e-23
3.63994e-21
1.08298e-19
2.27806e-18
3.58395e-17
4.39208e-16
4.32229e-15
3.4964e-14
2.36732e-13
1.36076e-12
6.71512e-12
2.87054e-11
1.0709e-10
3.51028e-10
1.01879e-09
2.66016e-09
6.30453e-09
1.34035e-08
2.5676e-08
4.53254e-08
7.51664e-08
1.17741e-07
1.73903e-07
1.92658e-07
2.1016e-06
1.06729e-05
1.17256e-05
1.17258e-05
6.0185e-06
5.17114e-07
1.97645e-07
1.74049e-07
1.20808e-07
1.4339e-07
1.47891e-07
1.27008e-07
9.47839e-08
5.84253e-08
2.72711e-08
9.69718e-09
2.94325e-09
7.98087e-10
1.92838e-10
3.92281e-11
5.98698e-12
5.44137e-13
2.21657e-13
1.30022e-28
8.18339e-26
1.31758e-23
9.60798e-22
4.01565e-20
1.09463e-18
2.11131e-17
3.04663e-16
3.42414e-15
3.08909e-14
2.28924e-13
1.41886e-12
7.45906e-12
3.36294e-11
1.31166e-10
4.45679e-10
1.32728e-09
3.48806e-09
8.20288e-09
1.73945e-08
3.28681e-08
5.57383e-08
8.7257e-08
1.28925e-07
1.7967e-07
2.38219e-07
3.26519e-07
8.15545e-06
1.17251e-05
1.17307e-05
1.17259e-05
1.12932e-05
1.067e-06
1.98139e-07
2.04484e-07
3.70585e-07
1.794e-07
2.00327e-07
1.89341e-07
1.626e-07
1.22416e-07
7.45998e-08
3.47566e-08
1.33411e-08
4.37466e-09
1.23493e-09
2.90379e-10
5.25297e-11
6.17174e-12
6.9576e-13
1.60024e-27
9.15662e-25
1.34828e-22
9.0221e-21
3.46825e-19
8.70929e-18
1.54896e-16
2.06191e-15
2.13778e-14
1.77853e-13
1.21477e-12
6.93425e-12
3.35455e-11
1.39036e-10
4.97889e-10
1.55049e-09
4.22108e-09
1.01026e-08
2.15066e-08
4.1148e-08
7.01424e-08
1.07313e-07
1.51208e-07
2.0167e-07
2.53192e-07
2.94755e-07
3.0941e-07
5.36064e-06
1.15963e-05
1.1733e-05
1.01301e-05
1.90362e-06
2.21981e-07
2.2372e-07
2.36076e-07
2.39325e-07
2.29611e-07
2.3847e-07
2.34403e-07
2.19162e-07
1.90324e-07
1.44395e-07
8.76449e-08
4.30184e-08
1.74658e-08
5.93121e-09
1.65171e-09
3.56173e-10
5.2472e-11
4.27485e-12
1.50531e-26
7.87456e-24
1.06589e-21
6.57841e-20
2.33787e-18
5.43617e-17
8.96174e-16
1.10633e-14
1.06385e-13
8.20701e-13
5.19548e-12
2.74714e-11
1.23019e-10
4.71624e-10
1.5608e-09
4.4868e-09
1.12601e-08
2.48098e-08
4.86163e-08
8.68848e-08
1.4228e-07
2.18927e-07
2.75115e-07
3.03887e-07
3.12057e-07
2.80117e-07
4.44476e-07
2.74165e-07
1.51385e-06
2.76785e-06
2.60107e-07
2.60135e-07
2.62541e-07
2.64198e-07
2.64751e-07
2.49849e-07
2.48251e-07
2.62947e-07
2.6269e-07
2.54197e-07
2.38026e-07
2.08514e-07
1.57549e-07
9.72331e-08
4.89511e-08
2.02452e-08
6.78676e-09
1.76435e-09
3.22127e-10
3.2271e-11
1.08762e-25
5.23257e-23
6.5461e-21
3.74563e-19
1.23684e-17
2.67631e-16
4.10964e-15
4.72807e-14
4.23768e-13
3.04663e-12
1.79688e-11
8.84863e-11
3.68934e-10
1.31688e-09
4.06021e-09
1.08975e-08
2.56765e-08
5.37423e-08
1.01668e-07
1.78757e-07
2.95729e-07
8.33264e-07
7.4602e-07
4.52662e-07
3.11181e-07
2.72256e-07
2.70327e-07
2.71623e-07
2.70506e-07
2.70574e-07
2.74887e-07
2.77545e-07
2.78813e-07
2.79299e-07
2.68678e-07
4.95094e-07
2.59936e-07
2.79428e-07
2.84905e-07
2.77842e-07
2.65545e-07
2.48302e-07
2.16776e-07
1.61959e-07
9.96923e-08
5.01168e-08
2.02894e-08
6.3748e-09
1.43039e-09
1.85748e-10
6.10043e-25
2.71692e-22
3.16012e-20
1.68582e-18
5.19994e-17
1.05238e-15
1.51264e-14
1.62962e-13
1.36797e-12
9.21208e-12
5.08996e-11
2.34908e-10
9.18569e-10
3.07835e-09
8.9217e-09
2.25209e-08
4.97479e-08
9.5971e-08
1.59647e-07
1.86036e-07
3.98774e-06
8.62006e-06
7.29051e-06
2.5615e-07
2.56128e-07
2.65841e-07
2.77111e-07
2.80536e-07
2.75376e-07
2.87919e-07
2.88828e-07
2.88106e-07
2.87231e-07
2.8823e-07
2.87842e-07
2.67915e-07
2.88549e-07
2.95078e-07
3.1732e-07
3.11341e-07
2.88929e-07
2.71985e-07
2.52003e-07
2.14754e-07
1.56494e-07
9.40464e-08
4.55546e-08
1.71669e-08
4.67382e-09
7.65143e-10
2.6988e-24
1.1209e-21
1.22026e-19
6.10633e-18
1.76912e-16
3.36493e-15
4.54536e-14
4.59951e-13
3.62287e-12
2.28589e-11
1.18124e-10
5.0874e-10
1.85194e-09
5.76338e-09
1.54737e-08
3.60296e-08
7.24812e-08
1.24749e-07
1.3677e-07
4.20608e-06
8.62469e-06
8.62778e-06
8.11707e-06
2.59424e-07
2.59363e-07
2.7599e-07
2.87642e-07
2.85624e-07
3.999e-07
2.88586e-07
2.92453e-07
2.93905e-07
2.95205e-07
3.0149e-07
3.05644e-07
2.82213e-07
5.12831e-07
3.38566e-07
3.22769e-07
3.11309e-07
2.95005e-07
2.99024e-07
2.74928e-07
2.48594e-07
2.04348e-07
1.42824e-07
8.14048e-08
3.6316e-08
1.18117e-08
2.36492e-09
9.58478e-24
3.74468e-21
3.84629e-19
1.81904e-17
4.98443e-16
8.96658e-15
1.14482e-13
1.0937e-12
8.12041e-12
4.82052e-11
2.33859e-10
9.43373e-10
3.20883e-09
9.30768e-09
2.32235e-08
5.01243e-08
9.4201e-08
1.60098e-07
2.29377e-07
6.10406e-06
8.62928e-06
8.63186e-06
3.26105e-06
2.6331e-07
2.72035e-07
2.88479e-07
2.98546e-07
3.00337e-07
2.95627e-07
2.953e-07
4.25522e-07
3.05658e-07
3.10179e-07
3.2016e-07
3.25574e-07
3.28949e-07
3.32061e-07
3.37597e-07
6.16045e-06
1.00142e-05
3.41585e-06
3.19854e-07
3.12303e-07
2.75086e-07
2.38983e-07
1.86796e-07
1.2244e-07
6.36298e-08
2.43292e-08
5.80065e-09
2.77525e-23
1.03064e-20
1.00861e-18
4.55003e-17
1.18953e-15
2.04054e-14
2.48152e-13
2.25442e-12
1.58854e-11
8.92902e-11
4.09159e-10
1.55515e-09
4.97248e-09
1.35342e-08
3.16756e-08
6.42076e-08
1.12614e-07
1.68309e-07
1.78589e-07
2.97223e-06
8.63201e-06
4.56651e-06
2.7929e-07
2.80564e-07
2.92115e-07
3.03942e-07
3.09779e-07
3.05418e-07
3.04027e-07
3.11182e-07
3.13402e-07
3.09808e-07
3.14766e-07
3.23174e-07
3.28375e-07
3.33931e-07
3.30762e-07
8.74437e-06
5.08757e-05
5.25733e-05
4.50436e-05
5.43165e-06
2.8922e-07
2.76264e-07
2.65763e-07
2.22193e-07
1.62513e-07
9.6459e-08
4.2647e-08
1.18155e-08
6.61432e-23
2.3643e-20
2.23033e-18
9.70306e-17
2.44547e-15
4.03999e-14
4.72412e-13
4.11855e-12
2.77858e-11
1.49168e-10
6.51224e-10
2.35266e-09
7.13594e-09
1.84036e-08
4.08473e-08
7.90379e-08
1.35647e-07
2.20057e-07
4.37989e-07
1.06013e-06
8.21075e-07
3.20338e-07
3.24026e-07
3.11447e-07
3.16914e-07
3.32301e-07
3.30693e-07
3.08369e-07
3.12694e-07
3.32582e-07
3.20998e-07
6.20248e-07
1.41076e-06
1.05037e-06
3.3996e-07
3.54086e-07
3.30771e-07
3.94861e-05
5.25742e-05
5.25846e-05
5.25911e-05
3.84143e-05
1.56975e-06
2.58884e-07
2.51358e-07
2.40236e-07
1.9564e-07
1.30625e-07
6.57441e-08
2.07272e-08
1.30241e-22
4.54753e-20
4.19125e-18
1.78061e-16
4.37759e-15
7.04349e-14
8.00618e-13
6.76998e-12
4.41953e-11
2.29032e-10
9.62976e-10
3.3436e-09
9.73041e-09
2.40424e-08
5.10454e-08
9.42432e-08
1.531e-07
2.20827e-07
2.82616e-07
3.14981e-07
3.17625e-07
3.20206e-07
3.21513e-07
3.35647e-07
3.22594e-07
3.35324e-07
3.36192e-07
4.05904e-07
3.19452e-07
3.52622e-07
2.13929e-06
6.00262e-06
7.5476e-06
7.38275e-06
3.00524e-06
3.48077e-07
3.31686e-07
1.30515e-05
5.23705e-05
5.25778e-05
5.25915e-05
4.70651e-05
4.21301e-06
2.92519e-07
3.99764e-07
2.32897e-07
2.1593e-07
1.61199e-07
9.14168e-08
3.22261e-08
2.11291e-22
7.33346e-20
6.70603e-18
2.82108e-16
6.85254e-15
1.08675e-13
1.21442e-12
1.00685e-11
6.42651e-11
3.24722e-10
1.32763e-09
4.47101e-09
1.2588e-08
3.00047e-08
6.11829e-08
1.07571e-07
1.63756e-07
2.1594e-07
2.48735e-07
2.67333e-07
3.18594e-07
3.34719e-07
3.6447e-07
3.45985e-07
2.67688e-06
5.60484e-06
1.57973e-06
3.4178e-07
3.6433e-07
4.45395e-07
6.00215e-06
7.56034e-06
7.55428e-06
7.5468e-06
7.53961e-06
2.46266e-06
3.54729e-07
3.7724e-07
1.41556e-05
5.18635e-05
5.26035e-05
1.74626e-05
3.09058e-07
2.87928e-07
2.83836e-07
2.55808e-07
2.31659e-07
1.8653e-07
1.16947e-07
4.53276e-08
2.79653e-22
9.86043e-20
9.10996e-18
3.8549e-16
9.38199e-15
1.48535e-13
1.65118e-12
1.35705e-11
8.55679e-11
4.25658e-10
1.70761e-09
5.62455e-09
1.54403e-08
3.57578e-08
7.04607e-08
1.18511e-07
1.69656e-07
2.06657e-07
2.16038e-07
5.13253e-07
2.90702e-07
3.5996e-07
3.68174e-07
4.6446e-06
2.00226e-05
2.0881e-05
1.24302e-05
3.39262e-07
3.66979e-07
4.21111e-07
4.13259e-06
7.56806e-06
7.55039e-06
7.54595e-06
7.53574e-06
7.46095e-06
3.73951e-06
1.02337e-06
8.0359e-07
1.52027e-06
2.03679e-06
8.915e-07
4.53857e-07
2.74636e-07
2.71817e-07
2.25526e-07
2.02034e-07
1.93796e-07
1.37354e-07
5.83764e-08
2.96362e-22
1.09234e-19
1.04264e-17
4.52024e-16
1.1198e-14
1.79471e-13
2.00991e-12
1.65667e-11
1.0431e-10
5.1595e-10
2.04961e-09
6.65895e-09
1.79682e-08
4.07939e-08
7.87052e-08
1.29899e-07
1.84791e-07
2.32178e-07
2.69394e-07
2.74703e-07
2.85646e-07
2.93e-07
1.8982e-06
1.87635e-05
2.0893e-05
2.08977e-05
1.94824e-05
3.39258e-07
3.61368e-07
3.93577e-07
2.24955e-06
7.5855e-06
6.11635e-06
3.17967e-06
4.44502e-06
6.18301e-06
6.53559e-06
6.53559e-06
2.47156e-06
3.0577e-07
2.90004e-07
2.82849e-07
2.74179e-07
2.68002e-07
2.49206e-07
2.27309e-07
2.27281e-07
1.75781e-07
1.4898e-07
6.97723e-08
2.44279e-22
9.78081e-20
9.92128e-18
4.50556e-16
1.1571e-14
1.90717e-13
2.18198e-12
1.82669e-11
1.16193e-10
5.77636e-10
2.2948e-09
7.42068e-09
1.9848e-08
4.45513e-08
8.50595e-08
1.40047e-07
2.02447e-07
2.60986e-07
2.70698e-07
1.46668e-06
7.92849e-06
7.7397e-06
2.28495e-06
2.014e-05
2.08975e-05
2.08989e-05
6.26125e-06
3.3931e-07
3.55305e-07
2.69819e-06
4.79218e-06
2.36583e-06
3.23152e-07
3.22642e-07
3.22568e-07
8.17347e-07
4.73506e-06
6.30237e-06
5.82309e-06
2.25237e-06
2.90882e-07
2.79871e-07
2.75158e-07
2.73164e-07
2.46458e-07
3.23684e-07
3.78244e-07
1.88644e-07
1.59999e-07
7.88563e-08
1.50242e-22
6.88855e-20
7.69952e-18
3.76339e-16
1.02387e-14
1.76721e-13
2.09832e-12
1.80951e-11
1.17783e-10
5.95539e-10
2.39221e-09
7.77761e-09
2.08074e-08
4.65326e-08
8.84274e-08
1.45647e-07
2.14134e-07
2.9347e-07
3.06974e-07
8.59638e-06
1.64752e-05
1.64657e-05
8.64223e-06
6.56088e-06
2.08992e-05
1.10099e-05
3.13494e-07
3.43194e-07
3.92299e-07
4.13211e-06
4.79445e-06
1.25093e-06
3.25479e-07
3.22964e-07
3.22562e-07
3.22609e-07
3.22637e-07
7.09061e-07
3.28947e-07
7.18996e-06
4.71187e-06
3.91327e-06
1.74664e-06
2.53458e-07
2.48722e-07
2.38637e-07
3.79544e-07
1.63928e-07
1.59909e-07
8.59038e-08
6.48383e-23
3.67556e-20
4.748e-18
2.58326e-16
7.6399e-15
1.41029e-13
1.76942e-12
1.59702e-11
1.07923e-10
5.6243e-10
2.31268e-09
7.64626e-09
2.06706e-08
4.64442e-08
8.82758e-08
1.44716e-07
2.05906e-07
2.14991e-07
2.81747e-06
1.64766e-05
1.64761e-05
1.64748e-05
1.31443e-05
3.09e-07
3.16742e-06
3.05357e-07
3.13486e-07
3.35224e-07
3.44468e-07
9.09636e-07
1.93895e-06
3.79937e-07
4.65513e-07
3.27962e-07
3.23014e-07
3.22677e-07
3.22862e-07
3.24035e-07
3.25971e-07
7.04334e-06
2.24494e-05
2.43189e-05
2.64863e-06
2.39174e-07
2.31784e-07
2.30873e-07
3.76581e-07
3.77002e-07
1.53682e-07
9.2117e-08
1.76675e-23
1.40692e-20
2.24649e-18
1.42038e-16
4.71105e-15
9.53225e-14
1.2901e-12
1.24096e-11
8.85038e-11
4.82627e-10
2.06036e-09
7.01901e-09
1.94069e-08
4.4278e-08
8.49018e-08
1.39929e-07
2.02415e-07
2.11268e-07
1.92548e-06
1.6126e-05
1.6478e-05
1.64687e-05
4.56208e-06
3.05335e-07
3.05681e-07
3.05324e-07
3.11485e-07
3.20755e-07
3.40922e-07
3.05925e-07
3.06748e-07
4.78564e-07
1.79174e-06
7.97748e-07
3.23721e-07
3.24047e-07
3.25908e-07
3.30777e-07
3.3538e-07
1.52466e-05
2.7914e-05
1.09695e-05
6.38526e-07
5.9118e-07
9.60398e-07
2.78608e-07
3.31978e-07
3.36941e-07
1.44303e-07
9.7234e-08
2.6231e-24
3.62696e-21
7.84629e-19
6.07941e-17
2.34482e-15
5.34579e-14
7.9852e-13
8.35455e-12
6.40553e-11
3.71858e-10
1.67516e-09
5.97139e-09
1.71319e-08
4.02189e-08
7.86813e-08
1.31199e-07
1.92143e-07
2.54009e-07
3.50334e-07
6.88686e-06
1.64804e-05
8.78607e-06
3.1449e-07
3.12709e-07
4.11372e-07
3.05224e-07
3.09376e-07
3.09829e-07
3.03432e-07
3.04621e-07
3.33137e-07
1.72336e-06
1.79563e-06
1.74053e-06
3.26251e-07
3.32721e-07
3.38381e-07
8.05672e-07
3.86722e-07
9.71108e-06
5.84608e-05
4.44845e-05
1.08699e-06
1.88428e-06
3.0422e-06
2.07133e-07
4.24127e-08
5.76193e-08
1.0649e-07
7.41594e-08
2.66546e-25
7.65205e-22
2.35954e-19
2.28703e-17
1.03529e-15
2.67068e-14
4.412e-13
5.02967e-12
4.15765e-11
2.5833e-10
1.23807e-09
4.67049e-09
1.41102e-08
3.46101e-08
7.00849e-08
1.19748e-07
1.77566e-07
2.36471e-07
2.99016e-07
4.16854e-07
2.38612e-06
1.05122e-06
3.28159e-07
3.22053e-07
3.08268e-07
3.05611e-07
3.0622e-07
3.04539e-07
3.03317e-07
3.05583e-07
5.33911e-07
1.75857e-06
1.79738e-06
5.71458e-07
3.34395e-07
9.07855e-07
2.19105e-06
9.22052e-06
9.45612e-06
9.99451e-06
4.02998e-05
6.33431e-05
1.14751e-05
1.47395e-07
1.30727e-08
1.50944e-12
-1.26613e-07
-5.84985e-07
1.5063e-14
1.86509e-14
2.63766e-26
1.6865e-22
7.2926e-20
8.72871e-18
4.59575e-16
1.33212e-14
2.41957e-13
2.98876e-12
2.64944e-11
1.75125e-10
8.87362e-10
3.52126e-09
1.11413e-08
2.84951e-08
5.98934e-08
1.05672e-07
1.60823e-07
2.17624e-07
2.71421e-07
3.37559e-07
3.44222e-07
4.09241e-07
3.28169e-07
3.14134e-07
3.05896e-07
3.01461e-07
3.02703e-07
3.00014e-07
3.01069e-07
2.99612e-07
3.0868e-07
5.99567e-07
7.57725e-07
3.38864e-07
3.49577e-07
4.98092e-06
1.95841e-05
2.36238e-05
1.24477e-05
0.000139675
0.000354709
0.000172708
0.000178259
-5.13896e-06
8.42751e-08
-2.43487e-08
-6.75388e-09
0.0678069
0.12507
0.157608
2.60542e-27
3.62881e-23
2.20072e-20
3.25101e-18
1.9884e-16
6.46695e-15
1.28939e-13
1.72242e-12
1.63404e-11
1.14692e-10
6.13512e-10
2.55947e-09
8.48684e-09
2.26722e-08
4.96014e-08
9.06836e-08
1.42001e-07
1.96106e-07
2.49103e-07
3.0533e-07
3.36015e-07
3.3994e-07
3.21686e-07
3.05902e-07
2.97931e-07
2.97308e-07
3.05748e-07
2.95767e-07
2.98093e-07
2.9838e-07
2.99179e-07
3.00701e-07
3.05129e-07
3.19145e-07
3.46147e-07
4.97525e-06
5.61782e-05
0.000121889
0.00011343
0.000131457
0.000321621
0.000535702
0.0175563
0.0892927
0.216495
0.496193
0.754297
0.899497
0.934916
0.958088
2.27107e-28
7.13533e-24
6.17349e-21
1.13587e-18
8.11407e-17
2.97143e-15
6.51866e-14
9.43217e-13
9.58776e-12
7.15389e-11
4.04481e-10
1.77642e-09
6.18129e-09
1.72831e-08
3.94747e-08
7.51094e-08
1.21835e-07
1.73239e-07
2.23615e-07
2.7422e-07
3.12302e-07
3.20699e-07
3.12447e-07
2.99106e-07
2.92107e-07
2.97288e-07
3.73223e-07
2.92822e-07
2.97363e-07
2.96113e-07
3.03238e-07
3.87042e-07
3.40298e-07
3.46931e-07
4.40077e-07
1.29877e-05
7.1256e-05
0.00012881
0.000148733
0.000210231
0.000730525
0.0589648
0.27833
0.599006
0.901762
0.999761
1
1
1
1
1.68861e-29
1.24833e-24
1.5711e-21
3.64254e-19
3.06274e-17
1.26989e-15
3.07783e-14
4.83941e-13
5.28465e-12
4.20146e-11
2.51632e-10
1.16573e-09
4.26424e-09
1.25072e-08
2.9915e-08
5.94898e-08
1.00559e-07
1.48345e-07
1.9667e-07
2.42734e-07
2.812e-07
2.99889e-07
3.00787e-07
2.92254e-07
2.85888e-07
2.83033e-07
2.82862e-07
2.92989e-07
2.97656e-07
2.90633e-07
2.91215e-07
7.57149e-07
3.69372e-06
9.35118e-07
1.60959e-06
3.67479e-05
0.00013451
0.000158653
0.000196433
0.000303681
0.118034
0.460891
0.808224
0.992902
1
1
1
1
1
1
1.07743e-30
1.93597e-25
3.6018e-22
1.06347e-19
1.06053e-17
5.00678e-16
1.34649e-14
2.30859e-13
2.71582e-12
2.30604e-11
1.46603e-10
7.17751e-10
2.76497e-09
8.5246e-09
2.14075e-08
4.46474e-08
7.9019e-08
1.21669e-07
1.67212e-07
2.10941e-07
2.48688e-07
2.73737e-07
2.84337e-07
2.79194e-07
2.78985e-07
2.78579e-07
2.81911e-07
2.88345e-07
3.38394e-07
2.72459e-07
2.81407e-07
2.93626e-07
5.16624e-06
1.45268e-05
5.35568e-06
0.000161121
0.00030181
0.000207811
0.000303687
0.142168
0.565403
0.917233
0.999806
0.999984
1
1
1
1
1
1
5.99616e-32
2.67489e-26
7.44377e-23
2.82278e-20
3.36017e-18
1.81514e-16
5.43717e-15
1.01959e-13
1.29522e-12
1.17686e-11
7.95401e-11
4.12088e-10
1.67402e-09
5.433e-09
1.43507e-08
3.14652e-08
5.85054e-08
9.44666e-08
1.35564e-07
1.77023e-07
2.14579e-07
2.43736e-07
2.20853e-07
4.85193e-07
2.85408e-07
2.80815e-07
2.75651e-07
2.7666e-07
3.23595e-07
2.60264e-07
2.81311e-07
2.87194e-07
1.3911e-06
2.67886e-05
0.000106741
0.000172718
0.000315771
0.000318003
0.135264
0.58343
0.979049
0.999906
0.999989
1
1
1
1
1
1
1
2.95848e-33
3.31484e-27
1.39069e-23
6.81525e-21
9.73162e-19
6.03809e-17
2.0205e-15
4.15339e-14
5.70715e-13
5.55603e-12
3.99576e-11
2.19206e-10
9.39677e-10
3.21274e-09
8.9347e-09
2.06251e-08
4.03785e-08
6.85971e-08
1.03338e-07
1.40967e-07
1.77519e-07
2.09193e-07
2.11663e-07
2.08321e-07
2.6043e-07
2.69662e-07
2.67468e-07
2.60429e-07
2.44607e-07
2.55963e-07
2.562e-07
3.98788e-07
3.8956e-06
1.98554e-05
0.000400407
0.000420763
0.000384809
0.101107
0.535597
0.9826
0.999915
0.999991
0.999999
1
1
1
1
1
1
1
1.30851e-34
3.69855e-28
2.35033e-24
1.49475e-21
2.56901e-19
1.83566e-17
6.87551e-16
1.55148e-14
2.30818e-13
2.40895e-12
1.84392e-11
1.07116e-10
4.84591e-10
1.74564e-09
5.11309e-09
1.24358e-08
2.5667e-08
4.59768e-08
7.29736e-08
1.04639e-07
1.38023e-07
1.69927e-07
1.87351e-07
1.98103e-07
2.28433e-07
2.46156e-07
2.29601e-07
4.49558e-07
2.40432e-07
2.4474e-07
2.38851e-07
2.90881e-07
4.96343e-06
1.81688e-05
7.98099e-05
0.000713891
0.0473695
0.41379
0.908094
0.999915
0.999991
0.999999
1
1
1
1
1
1
1
1
5.19261e-36
3.70413e-29
3.57538e-25
2.959e-22
6.13479e-20
5.05653e-18
2.12232e-16
5.26062e-15
8.47605e-14
9.48334e-13
7.72412e-12
4.74933e-11
2.26683e-10
8.60171e-10
2.65348e-09
6.80113e-09
1.48085e-08
2.80062e-08
4.69456e-08
7.10522e-08
9.87521e-08
1.27847e-07
1.51715e-07
1.70353e-07
1.94604e-07
2.15481e-07
2.18801e-07
2.06386e-07
2.38131e-07
2.30897e-07
2.27781e-07
1.80471e-07
1.71674e-07
1.4686e-06
0.000103445
0.00977248
0.243074
0.778349
0.999735
0.999985
0.999999
1
1
1
1
1
1
1
1
1
1.82554e-37
3.28716e-30
4.83009e-26
5.21296e-23
1.3058e-20
1.24284e-18
5.84882e-17
1.59274e-15
2.77891e-14
3.33183e-13
2.88603e-12
1.87705e-11
9.44704e-11
3.77451e-10
1.22592e-09
3.31104e-09
7.60717e-09
1.52008e-08
2.69522e-08
4.31743e-08
6.3496e-08
8.69097e-08
1.10397e-07
1.3226e-07
1.55409e-07
1.77777e-07
1.91853e-07
1.96512e-07
2.09833e-07
2.13751e-07
2.21195e-07
1.40625e-07
1.42457e-07
1.23329e-06
2.00875e-06
0.0638745
0.542131
0.987416
0.999964
0.999998
1
1
1
1
1
1
1
1
1
1
5.53649e-39
2.52321e-31
5.65984e-27
7.98376e-24
2.41979e-21
2.66176e-19
1.40493e-17
4.20267e-16
7.93667e-15
1.01906e-13
9.37987e-13
6.44761e-12
3.41915e-11
1.43744e-10
4.91256e-10
1.39752e-09
3.3874e-09
7.15358e-09
1.34289e-08
2.28107e-08
3.56103e-08
5.17622e-08
7.03107e-08
9.01482e-08
1.1146e-07
1.335e-07
1.528e-07
1.66842e-07
1.80054e-07
1.41864e-07
3.16053e-07
1.51542e-07
1.14201e-07
8.94224e-07
8.85371e-06
0.198793
0.876379
0.99995
0.999998
1
1
1
1
1
1
1
1
1
1
1
1.3925e-40
1.61607e-32
5.55624e-28
1.02726e-24
3.77376e-22
4.80166e-20
2.84292e-18
9.33777e-17
1.90714e-15
2.61941e-14
2.55864e-13
1.85624e-12
1.03574e-11
4.57552e-11
1.64328e-10
4.91803e-10
1.25643e-09
2.80282e-09
5.57163e-09
1.00471e-08
1.66894e-08
2.58628e-08
3.76379e-08
5.18353e-08
6.83973e-08
8.69954e-08
1.06138e-07
1.23729e-07
1.39362e-07
1.35975e-07
1.3708e-07
2.03869e-07
3.21102e-07
7.28839e-05
9.22155e-05
0.494633
0.998013
1
0.999999
1
1
1
1
1
1
1
1
1
1
1
2.75186e-42
8.21014e-34
4.35095e-29
1.0582e-25
4.72152e-23
6.95445e-21
4.6174e-19
1.66335e-17
3.66742e-16
5.37556e-15
5.55715e-14
4.24242e-13
2.48281e-12
1.14877e-11
4.32129e-11
1.35617e-10
3.64091e-10
8.55929e-10
1.79913e-09
3.44357e-09
6.09583e-09
1.01068e-08
1.58209e-08
2.35377e-08
3.35326e-08
4.59386e-08
6.03715e-08
7.57319e-08
9.0688e-08
9.8593e-08
1.00543e-07
7.67684e-08
4.68713e-08
-1.5678e-06
0.00463648
0.788383
1
1
1
1
1
1
1
1
1
1
1
1
1
1
3.95124e-44
3.06694e-35
2.52557e-30
8.12109e-27
4.41195e-24
7.5255e-22
5.59497e-20
2.20388e-18
5.22312e-17
8.12577e-16
8.83331e-15
7.04478e-14
4.2897e-13
2.06102e-12
8.04739e-12
2.62418e-11
7.33788e-11
1.8033e-10
3.98204e-10
8.05642e-10
1.51839e-09
2.70143e-09
4.57761e-09
7.43133e-09
1.16055e-08
1.74509e-08
2.51625e-08
3.45349e-08
4.48272e-08
5.34957e-08
5.81938e-08
5.58502e-08
4.68705e-08
2.24837e-08
0.108153
0.936957
1
1
1
1
1
1
1
1
1
1
1
1
1
1
3.76043e-46
7.40535e-37
9.60554e-32
4.12204e-28
2.73865e-25
5.40759e-23
4.48116e-21
1.91422e-19
4.82005e-18
7.84288e-17
8.80873e-16
7.193e-15
4.46449e-14
2.17958e-13
8.63662e-13
2.87357e-12
8.31068e-12
2.14229e-11
5.03777e-11
1.1033e-10
2.27751e-10
4.4578e-10
8.31438e-10
1.48859e-09
2.57101e-09
4.28279e-09
6.84587e-09
1.03969e-08
1.48073e-08
1.92645e-08
2.2168e-08
2.25323e-08
2.30165e-08
2.24837e-08
0.206878
0.997581
1
1
1
1
1
1
1
1
1
1
1
1
1
1
1.04316e-42
3.30646e-41
1.28415e-39
4.88007e-38
1.67332e-36
4.82358e-35
1.21816e-33
2.66741e-32
5.1679e-31
9.47207e-30
1.87719e-28
4.00344e-27
8.64629e-26
1.12668e-24
8.68109e-24
4.39605e-23
1.53864e-22
3.91197e-22
7.46644e-22
1.09387e-21
1.25106e-21
1.12973e-21
8.08984e-22
4.5833e-22
2.04027e-22
7.07132e-23
1.88525e-23
3.81741e-24
5.81985e-25
6.58912e-26
5.4647e-27
3.28906e-28
1.43244e-29
4.35255e-31
9.53309e-33
1.63081e-34
2.51765e-36
3.52446e-38
4.18981e-40
3.81222e-42
3.13807e-44
2.0367e-46
1.00047e-48
6.16001e-51
8.10118e-53
5.11752e-55
3.83457e-57
2.8236e-59
8.85528e-62
2.01383e-65
3.48772e-38
1.60648e-36
6.6368e-35
2.12258e-33
5.41486e-32
1.18579e-30
2.22818e-29
3.55205e-28
5.07586e-27
6.90915e-26
9.28768e-25
1.22506e-23
1.53703e-22
1.27724e-21
7.14777e-21
2.83426e-20
8.22741e-20