/*--------------------------------*- C++ -*----------------------------------*\
| =========                 |                                                 |
| \\      /  F ield         | OpenFOAM: The Open Source CFD Toolbox           |
|  \\    /   O peration     | Version:  2.4.0                                 |
|   \\  /    A nd           | Web:      www.OpenFOAM.org                      |
|    \\/     M anipulation  |                                                 |
\*---------------------------------------------------------------------------*/
FoamFile
{
    version     2.0;
    format      ascii;
    class       volVectorField;
    location    "0.138";
    object      U;
}
// * * * * * * * * * * * * * * * * * * * * * * * * * * * * * * * * * * * * * //

dimensions      [0 1 -1 0 0 0 0];

internalField   nonuniform List<vector> 
60000
(
(-6.57757e-08 2.9655e-08 0)
(-2.56132e-07 2.99501e-08 0)
(-4.82887e-07 3.45576e-08 0)
(-7.15853e-07 3.23564e-08 0)
(-9.4276e-07 3.07031e-08 0)
(-1.15964e-06 2.83443e-08 0)
(-1.36537e-06 2.57467e-08 0)
(-1.55791e-06 2.27792e-08 0)
(-1.73526e-06 1.93611e-08 0)
(-1.89514e-06 1.56017e-08 0)
(-2.03561e-06 1.15818e-08 0)
(-2.15498e-06 7.39803e-09 0)
(-2.25168e-06 3.08196e-09 0)
(-2.32427e-06 -1.31945e-09 0)
(-2.37149e-06 -5.81056e-09 0)
(-2.39231e-06 -1.03488e-08 0)
(-2.38587e-06 -1.46428e-08 0)
(-2.35146e-06 -1.87418e-08 0)
(-2.28927e-06 -2.26767e-08 0)
(-2.20002e-06 -2.64397e-08 0)
(-2.0845e-06 -2.98439e-08 0)
(-1.94394e-06 -3.27846e-08 0)
(-1.78005e-06 -3.51872e-08 0)
(-1.59483e-06 -3.70478e-08 0)
(-1.3906e-06 -3.82889e-08 0)
(-1.17003e-06 -3.8904e-08 0)
(-9.36078e-07 -3.88255e-08 0)
(-6.91984e-07 -3.80447e-08 0)
(-4.41163e-07 -3.65429e-08 0)
(-1.86279e-07 -3.42131e-08 0)
(6.79769e-08 -3.21876e-08 0)
(3.18146e-07 -2.87471e-08 0)
(5.62263e-07 -2.49746e-08 0)
(7.96627e-07 -2.08106e-08 0)
(1.01869e-06 -1.64009e-08 0)
(1.22574e-06 -1.12753e-08 0)
(1.41587e-06 -6.44404e-09 0)
(1.58812e-06 -1.59154e-09 0)
(1.7407e-06 3.50346e-09 0)
(1.87264e-06 8.26497e-09 0)
(1.98375e-06 1.29249e-08 0)
(2.07391e-06 1.7257e-08 0)
(2.14335e-06 2.14002e-08 0)
(2.19253e-06 2.50964e-08 0)
(2.22272e-06 2.85012e-08 0)
(2.23469e-06 3.18914e-08 0)
(2.22961e-06 3.45264e-08 0)
(2.20896e-06 3.62325e-08 0)
(2.17345e-06 3.76418e-08 0)
(2.12396e-06 3.88279e-08 0)
(2.06141e-06 3.98771e-08 0)
(1.98632e-06 4.09911e-08 0)
(1.89901e-06 4.20351e-08 0)
(1.79971e-06 4.31627e-08 0)
(1.68824e-06 4.4321e-08 0)
(1.56443e-06 4.55826e-08 0)
(1.42758e-06 4.71253e-08 0)
(1.27649e-06 4.88955e-08 0)
(1.11001e-06 5.09547e-08 0)
(9.26885e-07 5.32331e-08 0)
(7.25892e-07 5.57265e-08 0)
(5.0576e-07 5.84082e-08 0)
(2.65394e-07 6.12094e-08 0)
(4.08145e-09 6.40404e-08 0)
(-2.7859e-07 6.68016e-08 0)
(-5.82942e-07 6.93812e-08 0)
(-9.08758e-07 7.18519e-08 0)
(-1.25538e-06 7.40237e-08 0)
(-1.6219e-06 7.57703e-08 0)
(-2.00684e-06 7.71037e-08 0)
(-2.40855e-06 7.79727e-08 0)
(-2.82548e-06 7.83878e-08 0)
(-3.25561e-06 7.81933e-08 0)
(-3.6963e-06 7.72584e-08 0)
(-4.14498e-06 7.57986e-08 0)
(-4.59942e-06 7.3847e-08 0)
(-5.05702e-06 7.12108e-08 0)
(-5.51488e-06 6.80291e-08 0)
(-5.97031e-06 6.41545e-08 0)
(-6.42064e-06 6.05794e-08 0)
(-6.86325e-06 5.57325e-08 0)
(-7.29586e-06 5.07018e-08 0)
(-7.71645e-06 4.53725e-08 0)
(-8.12335e-06 3.99257e-08 0)
(-8.51479e-06 3.40014e-08 0)
(-8.88905e-06 2.79721e-08 0)
(-9.24508e-06 2.18702e-08 0)
(-9.58288e-06 1.61221e-08 0)
(-9.90259e-06 1.03596e-08 0)
(-1.02037e-05 4.73168e-09 0)
(-1.0486e-05 -7.17062e-10 0)
(-1.07503e-05 -5.79914e-09 0)
(-1.09944e-05 -1.12023e-08 0)
(-1.12226e-05 -1.52511e-08 0)
(-1.14216e-05 -2.1882e-08 0)
(-1.16145e-05 -2.36398e-08 0)
(-1.1764e-05 -3.0097e-08 0)
(-1.19252e-05 -2.75736e-08 0)
(-1.20167e-05 -3.73303e-08 0)
(-1.20651e-05 -2.11651e-08 0)
(-9.24745e-08 1.36029e-07 0)
(-4.36455e-07 1.87872e-07 0)
(-8.61716e-07 2.0842e-07 0)
(-1.29274e-06 2.06895e-07 0)
(-1.72269e-06 2.00779e-07 0)
(-2.13933e-06 1.92234e-07 0)
(-2.54252e-06 1.82321e-07 0)
(-2.92868e-06 1.7075e-07 0)
(-3.29537e-06 1.57249e-07 0)
(-3.63941e-06 1.41937e-07 0)
(-3.95772e-06 1.24958e-07 0)
(-4.24708e-06 1.0644e-07 0)
(-4.5042e-06 8.64198e-08 0)
(-4.72587e-06 6.50442e-08 0)
(-4.90922e-06 4.2439e-08 0)
(-5.05157e-06 1.87931e-08 0)
(-5.15072e-06 -5.28546e-09 0)
(-5.20486e-06 -2.93905e-08 0)
(-5.21289e-06 -5.41464e-08 0)
(-5.17433e-06 -7.86076e-08 0)
(-5.08901e-06 -1.02353e-07 0)
(-4.95742e-06 -1.24991e-07 0)
(-4.78058e-06 -1.46191e-07 0)
(-4.56011e-06 -1.65713e-07 0)
(-4.29806e-06 -1.83231e-07 0)
(-3.99715e-06 -1.98476e-07 0)
(-3.66059e-06 -2.11186e-07 0)
(-3.29202e-06 -2.21109e-07 0)
(-2.89558e-06 -2.28097e-07 0)
(-2.4755e-06 -2.31894e-07 0)
(-2.03715e-06 -2.33943e-07 0)
(-1.58547e-06 -2.31909e-07 0)
(-1.12471e-06 -2.27279e-07 0)
(-6.59772e-07 -2.20078e-07 0)
(-1.94449e-07 -2.1058e-07 0)
(2.66258e-07 -1.99142e-07 0)
(7.18478e-07 -1.85991e-07 0)
(1.16019e-06 -1.71604e-07 0)
(1.58698e-06 -1.55128e-07 0)
(1.9958e-06 -1.38601e-07 0)
(2.38477e-06 -1.21189e-07 0)
(2.75198e-06 -1.03849e-07 0)
(3.09613e-06 -8.62501e-08 0)
(3.41597e-06 -6.93308e-08 0)
(3.71216e-06 -5.31769e-08 0)
(3.98442e-06 -3.69273e-08 0)
(4.23228e-06 -2.22841e-08 0)
(4.45677e-06 -8.99143e-09 0)
(4.65793e-06 3.92101e-09 0)
(4.83529e-06 1.60629e-08 0)
(4.9894e-06 2.77021e-08 0)
(5.12107e-06 3.90584e-08 0)
(5.23069e-06 4.9671e-08 0)
(5.31814e-06 6.03454e-08 0)
(5.38267e-06 7.18574e-08 0)
(5.42379e-06 8.3755e-08 0)
(5.44036e-06 9.65572e-08 0)
(5.43047e-06 1.10339e-07 0)
(5.39225e-06 1.25221e-07 0)
(5.32364e-06 1.41157e-07 0)
(5.22241e-06 1.58294e-07 0)
(5.08626e-06 1.76452e-07 0)
(4.9131e-06 1.95571e-07 0)
(4.70111e-06 2.15267e-07 0)
(4.44888e-06 2.35258e-07 0)
(4.15535e-06 2.5522e-07 0)
(3.8198e-06 2.75227e-07 0)
(3.44188e-06 2.94701e-07 0)
(3.02182e-06 3.13201e-07 0)
(2.5604e-06 3.30582e-07 0)
(2.05864e-06 3.46743e-07 0)
(1.51753e-06 3.61626e-07 0)
(9.38475e-07 3.74701e-07 0)
(3.23318e-07 3.85546e-07 0)
(-3.25865e-07 3.94583e-07 0)
(-1.00688e-06 4.01895e-07 0)
(-1.71712e-06 4.06747e-07 0)
(-2.45381e-06 4.09194e-07 0)
(-3.21303e-06 4.09013e-07 0)
(-3.99172e-06 4.07714e-07 0)
(-4.7864e-06 4.02777e-07 0)
(-5.59336e-06 3.97038e-07 0)
(-6.41052e-06 3.8905e-07 0)
(-7.23632e-06 3.79869e-07 0)
(-8.06942e-06 3.68909e-07 0)
(-8.90762e-06 3.56825e-07 0)
(-9.74879e-06 3.43902e-07 0)
(-1.05924e-05 3.31299e-07 0)
(-1.14374e-05 3.18092e-07 0)
(-1.22824e-05 3.04451e-07 0)
(-1.3126e-05 2.90591e-07 0)
(-1.39678e-05 2.76538e-07 0)
(-1.48016e-05 2.61181e-07 0)
(-1.56347e-05 2.46701e-07 0)
(-1.64367e-05 2.26048e-07 0)
(-1.72582e-05 2.13726e-07 0)
(-1.79958e-05 1.8738e-07 0)
(-1.87781e-05 1.71764e-07 0)
(-1.93582e-05 9.52628e-08 0)
(-1.9746e-05 -4.29673e-09 0)
(-1.06173e-07 2.81375e-07 0)
(-5.24355e-07 4.14882e-07 0)
(-1.04218e-06 4.51762e-07 0)
(-1.56731e-06 4.55263e-07 0)
(-2.09425e-06 4.44996e-07 0)
(-2.60813e-06 4.30081e-07 0)
(-3.10817e-06 4.12194e-07 0)
(-3.59026e-06 3.91301e-07 0)
(-4.05208e-06 3.67037e-07 0)
(-4.49028e-06 3.39364e-07 0)
(-4.90151e-06 3.08363e-07 0)
(-5.2823e-06 2.74082e-07 0)
(-5.62914e-06 2.36531e-07 0)
(-5.9385e-06 1.95936e-07 0)
(-6.20708e-06 1.52651e-07 0)
(-6.43182e-06 1.06952e-07 0)
(-6.60995e-06 5.94787e-08 0)
(-6.73956e-06 1.09636e-08 0)
(-6.81885e-06 -3.86969e-08 0)
(-6.84646e-06 -8.83148e-08 0)
(-6.82205e-06 -1.37298e-07 0)
(-6.74565e-06 -1.85039e-07 0)
(-6.6178e-06 -2.30926e-07 0)
(-6.43963e-06 -2.74425e-07 0)
(-6.21281e-06 -3.14952e-07 0)
(-5.93969e-06 -3.51848e-07 0)
(-5.62317e-06 -3.84729e-07 0)
(-5.26665e-06 -4.12971e-07 0)
(-4.87409e-06 -4.36223e-07 0)
(-4.44978e-06 -4.54237e-07 0)
(-3.99865e-06 -4.67291e-07 0)
(-3.52555e-06 -4.74597e-07 0)
(-3.03499e-06 -4.76672e-07 0)
(-2.53175e-06 -4.73877e-07 0)
(-2.01997e-06 -4.66467e-07 0)
(-1.5044e-06 -4.55986e-07 0)
(-9.89246e-07 -4.41052e-07 0)
(-4.76924e-07 -4.2282e-07 0)
(2.76496e-08 -4.01734e-07 0)
(5.20992e-07 -3.78501e-07 0)
(1.00129e-06 -3.52858e-07 0)
(1.46599e-06 -3.26479e-07 0)
(1.91322e-06 -2.98955e-07 0)
(2.3411e-06 -2.71729e-07 0)
(2.74989e-06 -2.45528e-07 0)
(3.13919e-06 -2.18755e-07 0)
(3.50761e-06 -1.93332e-07 0)
(3.85505e-06 -1.68608e-07 0)
(4.18152e-06 -1.43777e-07 0)
(4.48665e-06 -1.19857e-07 0)
(4.77051e-06 -9.66674e-08 0)
(5.03345e-06 -7.38435e-08 0)
(5.27528e-06 -5.1814e-08 0)
(5.49566e-06 -2.93621e-08 0)
(5.69318e-06 -5.43376e-09 0)
(5.8664e-06 1.93416e-08 0)
(6.01399e-06 4.60703e-08 0)
(6.13368e-06 7.4808e-08 0)
(6.22301e-06 1.05712e-07 0)
(6.27952e-06 1.38701e-07 0)
(6.30052e-06 1.74348e-07 0)
(6.28312e-06 2.12193e-07 0)
(6.22476e-06 2.52247e-07 0)
(6.12304e-06 2.93903e-07 0)
(5.97581e-06 3.36522e-07 0)
(5.7814e-06 3.79887e-07 0)
(5.53854e-06 4.23703e-07 0)
(5.24613e-06 4.67298e-07 0)
(4.90372e-06 5.09764e-07 0)
(4.51129e-06 5.51003e-07 0)
(4.0692e-06 5.90748e-07 0)
(3.57774e-06 6.28874e-07 0)
(3.03753e-06 6.64781e-07 0)
(2.44914e-06 6.97916e-07 0)
(1.81365e-06 7.28301e-07 0)
(1.13308e-06 7.55961e-07 0)
(4.09577e-07 7.80075e-07 0)
(-3.55227e-07 8.00368e-07 0)
(-1.15841e-06 8.1659e-07 0)
(-1.99817e-06 8.29294e-07 0)
(-2.8713e-06 8.38697e-07 0)
(-3.77535e-06 8.4513e-07 0)
(-4.70936e-06 8.49033e-07 0)
(-5.67135e-06 8.50192e-07 0)
(-6.6615e-06 8.49559e-07 0)
(-7.67924e-06 8.46585e-07 0)
(-8.72242e-06 8.43234e-07 0)
(-9.79064e-06 8.38829e-07 0)
(-1.08838e-05 8.33348e-07 0)
(-1.19997e-05 8.26627e-07 0)
(-1.31366e-05 8.18756e-07 0)
(-1.4294e-05 8.09322e-07 0)
(-1.54643e-05 7.96952e-07 0)
(-1.66568e-05 7.83558e-07 0)
(-1.78329e-05 7.60599e-07 0)
(-1.90576e-05 7.4317e-07 0)
(-2.0187e-05 6.99009e-07 0)
(-2.14002e-05 6.45264e-07 0)
(-2.23192e-05 4.50623e-07 0)
(-2.3015e-05 9.05212e-08 0)
(-1.23587e-07 4.46843e-07 0)
(-5.77035e-07 6.65438e-07 0)
(-1.12656e-06 7.25982e-07 0)
(-1.69512e-06 7.34256e-07 0)
(-2.26512e-06 7.20873e-07 0)
(-2.8228e-06 6.9957e-07 0)
(-3.36724e-06 6.7361e-07 0)
(-3.89394e-06 6.4319e-07 0)
(-4.40043e-06 6.07873e-07 0)
(-4.8832e-06 5.67456e-07 0)
(-5.33879e-06 5.21948e-07 0)
(-5.76362e-06 4.71416e-07 0)
(-6.15423e-06 4.1585e-07 0)
(-6.50705e-06 3.55471e-07 0)
(-6.81864e-06 2.90774e-07 0)
(-7.08585e-06 2.22143e-07 0)
(-7.3059e-06 1.50332e-07 0)
(-7.47656e-06 7.61698e-08 0)
(-7.59594e-06 7.67624e-10 0)
(-7.66262e-06 -7.51246e-08 0)
(-7.67599e-06 -1.5057e-07 0)
(-7.63588e-06 -2.24748e-07 0)
(-7.54266e-06 -2.96689e-07 0)
(-7.39742e-06 -3.6559e-07 0)
(-7.20178e-06 -4.30589e-07 0)
(-6.95796e-06 -4.90646e-07 0)
(-6.66895e-06 -5.45143e-07 0)
(-6.33812e-06 -5.93208e-07 0)
(-5.96932e-06 -6.34219e-07 0)
(-5.56682e-06 -6.67853e-07 0)
(-5.13515e-06 -6.9394e-07 0)
(-4.679e-06 -7.12159e-07 0)
(-4.20286e-06 -7.22783e-07 0)
(-3.71137e-06 -7.26272e-07 0)
(-3.20881e-06 -7.23118e-07 0)
(-2.6997e-06 -7.14385e-07 0)
(-2.18816e-06 -6.99581e-07 0)
(-1.6774e-06 -6.7931e-07 0)
(-1.17137e-06 -6.55536e-07 0)
(-6.73134e-07 -6.27176e-07 0)
(-1.85024e-07 -5.95858e-07 0)
(2.90867e-07 -5.62588e-07 0)
(7.52193e-07 -5.26602e-07 0)
(1.19757e-06 -4.91242e-07 0)
(1.62701e-06 -4.56322e-07 0)
(2.03988e-06 -4.20385e-07 0)
(2.43538e-06 -3.85448e-07 0)
(2.81256e-06 -3.51063e-07 0)
(3.17208e-06 -3.16671e-07 0)
(3.51455e-06 -2.83145e-07 0)
(3.83921e-06 -2.50319e-07 0)
(4.14592e-06 -2.17727e-07 0)
(4.43422e-06 -1.85264e-07 0)
(4.70347e-06 -1.51852e-07 0)
(4.9521e-06 -1.16854e-07 0)
(5.17858e-06 -8.03541e-08 0)
(5.38119e-06 -4.0689e-08 0)
(5.55744e-06 2.10852e-09 0)
(5.70464e-06 4.84274e-08 0)
(5.82009e-06 9.8257e-08 0)
(5.90108e-06 1.52178e-07 0)
(5.94444e-06 2.09784e-07 0)
(5.94744e-06 2.70975e-07 0)
(5.90741e-06 3.35057e-07 0)
(5.82177e-06 4.01083e-07 0)
(5.68816e-06 4.68899e-07 0)
(5.50497e-06 5.3786e-07 0)
(5.27079e-06 6.0709e-07 0)
(4.98464e-06 6.75396e-07 0)
(4.64588e-06 7.42661e-07 0)
(4.25426e-06 8.08423e-07 0)
(3.80972e-06 8.72411e-07 0)
(3.31266e-06 9.33984e-07 0)
(2.76353e-06 9.92586e-07 0)
(2.16292e-06 1.04783e-06 0)
(1.5121e-06 1.09942e-06 0)
(8.12631e-07 1.14671e-06 0)
(6.53346e-08 1.18941e-06 0)
(-7.27886e-07 1.22684e-06 0)
(-1.56555e-06 1.25975e-06 0)
(-2.44603e-06 1.28937e-06 0)
(-3.36754e-06 1.31394e-06 0)
(-4.32988e-06 1.33655e-06 0)
(-5.33146e-06 1.35513e-06 0)
(-6.37251e-06 1.37242e-06 0)
(-7.4534e-06 1.3867e-06 0)
(-8.57317e-06 1.40141e-06 0)
(-9.73239e-06 1.41404e-06 0)
(-1.09311e-05 1.42524e-06 0)
(-1.2168e-05 1.43453e-06 0)
(-1.34408e-05 1.4417e-06 0)
(-1.47498e-05 1.44595e-06 0)
(-1.60863e-05 1.44555e-06 0)
(-1.74609e-05 1.44168e-06 0)
(-1.88302e-05 1.42492e-06 0)
(-2.02659e-05 1.4079e-06 0)
(-2.16028e-05 1.3517e-06 0)
(-2.30511e-05 1.25498e-06 0)
(-2.41587e-05 9.26568e-07 0)
(-2.50933e-05 2.7763e-07 0)
(-1.28143e-07 6.23934e-07 0)
(-5.99803e-07 9.24708e-07 0)
(-1.16713e-06 1.01278e-06 0)
(-1.75319e-06 1.02563e-06 0)
(-2.34136e-06 1.00976e-06 0)
(-2.91821e-06 9.8245e-07 0)
(-3.48247e-06 9.48688e-07 0)
(-4.02936e-06 9.08896e-07 0)
(-4.55633e-06 8.62586e-07 0)
(-5.05976e-06 8.09446e-07 0)
(-5.53615e-06 7.49406e-07 0)
(-5.98177e-06 6.82552e-07 0)
(-6.39302e-06 6.08901e-07 0)
(-6.76632e-06 5.2866e-07 0)
(-7.09811e-06 4.42402e-07 0)
(-7.38516e-06 3.50743e-07 0)
(-7.62474e-06 2.54607e-07 0)
(-7.8145e-06 1.55115e-07 0)
(-7.95245e-06 5.35131e-08 0)
(-8.03718e-06 -4.90884e-08 0)
(-8.0679e-06 -1.51474e-07 0)
(-8.04442e-06 -2.52578e-07 0)
(-7.96717e-06 -3.51074e-07 0)
(-7.83721e-06 -4.45804e-07 0)
(-7.65629e-06 -5.3565e-07 0)
(-7.42673e-06 -6.19271e-07 0)
(-7.15154e-06 -6.9565e-07 0)
(-6.83425e-06 -7.63821e-07 0)
(-6.47867e-06 -8.22894e-07 0)
(-6.08911e-06 -8.72383e-07 0)
(-5.67e-06 -9.12053e-07 0)
(-5.22593e-06 -9.41506e-07 0)
(-4.76147e-06 -9.61195e-07 0)
(-4.28117e-06 -9.71369e-07 0)
(-3.78947e-06 -9.72886e-07 0)
(-3.29088e-06 -9.66349e-07 0)
(-2.78952e-06 -9.52129e-07 0)
(-2.28899e-06 -9.30589e-07 0)
(-1.79282e-06 -9.03667e-07 0)
(-1.30389e-06 -8.70803e-07 0)
(-8.24457e-07 -8.34485e-07 0)
(-3.55709e-07 -7.95513e-07 0)
(9.87664e-08 -7.5207e-07 0)
(5.3771e-07 -7.09509e-07 0)
(9.62415e-07 -6.66571e-07 0)
(1.37189e-06 -6.22541e-07 0)
(1.7657e-06 -5.79489e-07 0)
(2.14297e-06 -5.36539e-07 0)
(2.50449e-06 -4.94154e-07 0)
(2.85117e-06 -4.52692e-07 0)
(3.1821e-06 -4.11569e-07 0)
(3.4971e-06 -3.70619e-07 0)
(3.79551e-06 -3.29299e-07 0)
(4.07658e-06 -2.86495e-07 0)
(4.33864e-06 -2.41497e-07 0)
(4.58012e-06 -1.93983e-07 0)
(4.7991e-06 -1.42178e-07 0)
(4.99301e-06 -8.61087e-08 0)
(5.15915e-06 -2.50568e-08 0)
(5.29471e-06 4.1164e-08 0)
(5.39692e-06 1.12763e-07 0)
(5.46256e-06 1.89583e-07 0)
(5.48903e-06 2.71409e-07 0)
(5.47349e-06 3.57477e-07 0)
(5.41302e-06 4.46817e-07 0)
(5.30495e-06 5.39006e-07 0)
(5.14743e-06 6.33284e-07 0)
(4.93878e-06 7.28354e-07 0)
(4.67775e-06 8.23157e-07 0)
(4.36325e-06 9.17208e-07 0)
(3.99469e-06 1.00992e-06 0)
(3.57193e-06 1.10073e-06 0)
(3.0953e-06 1.18894e-06 0)
(2.56523e-06 1.27394e-06 0)
(1.98231e-06 1.35526e-06 0)
(1.34753e-06 1.43228e-06 0)
(6.62066e-07 1.50442e-06 0)
(-7.38988e-08 1.5713e-06 0)
(-8.58678e-07 1.63285e-06 0)
(-1.6911e-06 1.68843e-06 0)
(-2.57064e-06 1.74064e-06 0)
(-3.49558e-06 1.78813e-06 0)
(-4.46661e-06 1.83211e-06 0)
(-5.48243e-06 1.87195e-06 0)
(-6.54335e-06 1.91069e-06 0)
(-7.64982e-06 1.94763e-06 0)
(-8.8012e-06 1.98377e-06 0)
(-9.99894e-06 2.01836e-06 0)
(-1.12429e-05 2.05136e-06 0)
(-1.25328e-05 2.08211e-06 0)
(-1.38675e-05 2.10983e-06 0)
(-1.52478e-05 2.13354e-06 0)
(-1.66644e-05 2.15094e-06 0)
(-1.81292e-05 2.1616e-06 0)
(-1.95941e-05 2.15573e-06 0)
(-2.11356e-05 2.14228e-06 0)
(-2.25751e-05 2.07663e-06 0)
(-2.41377e-05 1.93317e-06 0)
(-2.53207e-05 1.4666e-06 0)
(-2.63262e-05 5.00096e-07 0)
(-1.30594e-07 8.05643e-07 0)
(-6.12546e-07 1.19066e-06 0)
(-1.18942e-06 1.30458e-06 0)
(-1.78335e-06 1.32202e-06 0)
(-2.37943e-06 1.3041e-06 0)
(-2.96515e-06 1.27118e-06 0)
(-3.53895e-06 1.22991e-06 0)
(-4.09588e-06 1.18096e-06 0)
(-4.63323e-06 1.12378e-06 0)
(-5.14726e-06 1.05802e-06 0)
(-5.63439e-06 9.83508e-07 0)
(-6.09082e-06 9.00314e-07 0)
(-6.51278e-06 8.08508e-07 0)
(-6.89656e-06 7.08304e-07 0)
(-7.2385e-06 6.00319e-07 0)
(-7.53527e-06 4.85449e-07 0)
(-7.78411e-06 3.64827e-07 0)
(-7.98257e-06 2.39749e-07 0)
(-8.12857e-06 1.11698e-07 0)
(-8.22078e-06 -1.78919e-08 0)
(-8.25826e-06 -1.47564e-07 0)
(-8.24074e-06 -2.75843e-07 0)
(-8.16881e-06 -4.01182e-07 0)
(-8.0435e-06 -5.22025e-07 0)
(-7.86668e-06 -6.36855e-07 0)
(-7.64089e-06 -7.44188e-07 0)
(-7.36908e-06 -8.42552e-07 0)
(-7.05497e-06 -9.30815e-07 0)
(-6.70245e-06 -1.00802e-06 0)
(-6.31582e-06 -1.0733e-06 0)
(-5.89967e-06 -1.12662e-06 0)
(-5.4585e-06 -1.1673e-06 0)
(-4.997e-06 -1.19604e-06 0)
(-4.51976e-06 -1.21289e-06 0)
(-4.03135e-06 -1.21893e-06 0)
(-3.53633e-06 -1.21456e-06 0)
(-3.03905e-06 -1.20069e-06 0)
(-2.54314e-06 -1.17771e-06 0)
(-2.05203e-06 -1.14762e-06 0)
(-1.56869e-06 -1.1104e-06 0)
(-1.09514e-06 -1.06851e-06 0)
(-6.31947e-07 -1.02354e-06 0)
(-1.83393e-07 -9.73555e-07 0)
(2.49105e-07 -9.23878e-07 0)
(6.67947e-07 -8.73127e-07 0)
(1.07184e-06 -8.21516e-07 0)
(1.46105e-06 -7.70924e-07 0)
(1.83491e-06 -7.20094e-07 0)
(2.19378e-06 -6.7036e-07 0)
(2.53882e-06 -6.21643e-07 0)
(2.86918e-06 -5.72969e-07 0)
(3.18468e-06 -5.24276e-07 0)
(3.4846e-06 -4.74787e-07 0)
(3.76825e-06 -4.23195e-07 0)
(4.03379e-06 -3.68761e-07 0)
(4.2796e-06 -3.10732e-07 0)
(4.50369e-06 -2.47234e-07 0)
(4.70346e-06 -1.78257e-07 0)
(4.87624e-06 -1.02883e-07 0)
(5.01906e-06 -2.0816e-08 0)
(5.12922e-06 6.80074e-08 0)
(5.20339e-06 1.63535e-07 0)
(5.23897e-06 2.65529e-07 0)
(5.23307e-06 3.73213e-07 0)
(5.18259e-06 4.8563e-07 0)
(5.08472e-06 6.02114e-07 0)
(4.93729e-06 7.2164e-07 0)
(4.73841e-06 8.42646e-07 0)
(4.48674e-06 9.64126e-07 0)
(4.18104e-06 1.08529e-06 0)
(3.82063e-06 1.20532e-06 0)
(3.40539e-06 1.32331e-06 0)
(2.93561e-06 1.43859e-06 0)
(2.41165e-06 1.55036e-06 0)
(1.83422e-06 1.65808e-06 0)
(1.2043e-06 1.76099e-06 0)
(5.22882e-07 1.85859e-06 0)
(-2.09753e-07 1.95037e-06 0)
(-9.92759e-07 2.03703e-06 0)
(-1.82446e-06 2.11612e-06 0)
(-2.7045e-06 2.19247e-06 0)
(-3.6325e-06 2.26405e-06 0)
(-4.60873e-06 2.33076e-06 0)
(-5.63152e-06 2.39448e-06 0)
(-6.70156e-06 2.4561e-06 0)
(-7.82029e-06 2.51727e-06 0)
(-8.9869e-06 2.57704e-06 0)
(-1.02025e-05 2.63542e-06 0)
(-1.14675e-05 2.69266e-06 0)
(-1.27821e-05 2.74757e-06 0)
(-1.41459e-05 2.79891e-06 0)
(-1.556e-05 2.84533e-06 0)
(-1.7015e-05 2.88361e-06 0)
(-1.85242e-05 2.91177e-06 0)
(-2.00364e-05 2.91937e-06 0)
(-2.16321e-05 2.91111e-06 0)
(-2.3124e-05 2.83625e-06 0)
(-2.47451e-05 2.6417e-06 0)
(-2.59632e-05 2.02748e-06 0)
(-2.69936e-05 7.15461e-07 0)
(-1.32723e-07 9.90202e-07 0)
(-6.2172e-07 1.46084e-06 0)
(-1.20492e-06 1.59933e-06 0)
(-1.80378e-06 1.62104e-06 0)
(-2.40474e-06 1.60135e-06 0)
(-2.99615e-06 1.56318e-06 0)
(-3.5762e-06 1.51468e-06 0)
(-4.13977e-06 1.45676e-06 0)
(-4.68407e-06 1.38885e-06 0)
(-5.20527e-06 1.31056e-06 0)
(-5.6997e-06 1.22163e-06 0)
(-6.16344e-06 1.12208e-06 0)
(-6.59255e-06 1.01201e-06 0)
(-6.98314e-06 8.91674e-07 0)
(-7.33145e-06 7.61743e-07 0)
(-7.63404e-06 6.23408e-07 0)
(-7.88817e-06 4.78047e-07 0)
(-8.09131e-06 3.27037e-07 0)
(-8.24117e-06 1.72165e-07 0)
(-8.33642e-06 1.52186e-08 0)
(-8.3761e-06 -1.42167e-07 0)
(-8.35982e-06 -2.98017e-07 0)
(-8.28828e-06 -4.50502e-07 0)
(-8.16263e-06 -5.97822e-07 0)
(-7.98475e-06 -7.37895e-07 0)
(-7.75732e-06 -8.69121e-07 0)
(-7.48339e-06 -9.89691e-07 0)
(-7.16667e-06 -1.09814e-06 0)
(-6.81131e-06 -1.19353e-06 0)
(-6.42159e-06 -1.2747e-06 0)
(-6.00226e-06 -1.34157e-06 0)
(-5.55796e-06 -1.39354e-06 0)
(-5.09339e-06 -1.43116e-06 0)
(-4.61329e-06 -1.45464e-06 0)
(-4.12246e-06 -1.4649e-06 0)
(-3.62543e-06 -1.46262e-06 0)
(-3.12674e-06 -1.44861e-06 0)
(-2.6302e-06 -1.42398e-06 0)
(-2.13902e-06 -1.3904e-06 0)
(-1.6564e-06 -1.34853e-06 0)
(-1.1844e-06 -1.30101e-06 0)
(-7.22823e-07 -1.24936e-06 0)
(-2.76668e-07 -1.19267e-06 0)
(1.52445e-07 -1.13605e-06 0)
(5.68271e-07 -1.07753e-06 0)
(9.68996e-07 -1.01859e-06 0)
(1.35544e-06 -9.60659e-07 0)
(1.72755e-06 -9.02502e-07 0)
(2.08502e-06 -8.45664e-07 0)
(2.42913e-06 -7.89936e-07 0)
(2.7591e-06 -7.34131e-07 0)
(3.07479e-06 -6.78108e-07 0)
(3.37562e-06 -6.20829e-07 0)
(3.66099e-06 -5.60846e-07 0)
(3.92887e-06 -4.97284e-07 0)
(4.1777e-06 -4.29023e-07 0)
(4.40548e-06 -3.54279e-07 0)
(4.60948e-06 -2.72577e-07 0)
(4.78704e-06 -1.83198e-07 0)
(4.93507e-06 -8.55146e-08 0)
(5.05084e-06 2.0371e-08 0)
(5.13083e-06 1.34442e-07 0)
(5.17222e-06 2.5653e-07 0)
(5.17203e-06 3.85776e-07 0)
(5.12703e-06 5.21272e-07 0)
(5.03435e-06 6.62164e-07 0)
(4.89159e-06 8.07109e-07 0)
(4.69679e-06 9.54337e-07 0)
(4.44872e-06 1.1027e-06 0)
(4.14623e-06 1.25119e-06 0)
(3.78857e-06 1.39878e-06 0)
(3.37555e-06 1.54425e-06 0)
(2.90734e-06 1.68694e-06 0)
(2.38429e-06 1.82578e-06 0)
(1.80725e-06 1.96009e-06 0)
(1.17736e-06 2.08909e-06 0)
(4.95607e-07 2.21239e-06 0)
(-2.3757e-07 2.32953e-06 0)
(-1.02193e-06 2.44055e-06 0)
(-1.85508e-06 2.54543e-06 0)
(-2.73678e-06 2.64552e-06 0)
(-3.66764e-06 2.74053e-06 0)
(-4.64656e-06 2.83146e-06 0)
(-5.67283e-06 2.92003e-06 0)
(-6.74768e-06 3.00553e-06 0)
(-7.87225e-06 3.09087e-06 0)
(-9.0465e-06 3.17564e-06 0)
(-1.0271e-05 3.25877e-06 0)
(-1.15462e-05 3.34137e-06 0)
(-1.28729e-05 3.42152e-06 0)
(-1.42504e-05 3.49804e-06 0)
(-1.56807e-05 3.56879e-06 0)
(-1.71547e-05 3.62976e-06 0)
(-1.86877e-05 3.67754e-06 0)
(-2.02258e-05 3.70052e-06 0)
(-2.1854e-05 3.69901e-06 0)
(-2.33785e-05 3.61551e-06 0)
(-2.50388e-05 3.36804e-06 0)
(-2.62865e-05 2.59998e-06 0)
(-2.73454e-05 9.31629e-07 0)
(-1.34926e-07 1.17726e-06 0)
(-6.29701e-07 1.73411e-06 0)
(-1.21816e-06 1.89652e-06 0)
(-1.82149e-06 1.92223e-06 0)
(-2.42695e-06 1.90097e-06 0)
(-3.0235e-06 1.85784e-06 0)
(-3.6092e-06 1.80234e-06 0)
(-4.1788e-06 1.73564e-06 0)
(-4.72946e-06 1.65713e-06 0)
(-5.25719e-06 1.56638e-06 0)
(-5.75825e-06 1.46306e-06 0)
(-6.22862e-06 1.3471e-06 0)
(-6.66409e-06 1.21861e-06 0)
(-7.06063e-06 1.07794e-06 0)
(-7.41447e-06 9.25827e-07 0)
(-7.72207e-06 7.63724e-07 0)
(-7.98049e-06 5.93301e-07 0)
(-8.18715e-06 4.15976e-07 0)
(-8.3396e-06 2.33787e-07 0)
(-8.43631e-06 4.90222e-08 0)
(-8.47642e-06 -1.36521e-07 0)
(-8.45956e-06 -3.20506e-07 0)
(-8.38634e-06 -5.00582e-07 0)
(-8.25813e-06 -6.74736e-07 0)
(-8.07686e-06 -8.40484e-07 0)
(-7.84515e-06 -9.95898e-07 0)
(-7.56633e-06 -1.13895e-06 0)
(-7.24404e-06 -1.26789e-06 0)
(-6.88265e-06 -1.38152e-06 0)
(-6.4866e-06 -1.4788e-06 0)
(-6.06066e-06 -1.55918e-06 0)
(-5.60972e-06 -1.62248e-06 0)
(-5.13859e-06 -1.66885e-06 0)
(-4.65219e-06 -1.69886e-06 0)
(-4.15548e-06 -1.71303e-06 0)
(-3.6532e-06 -1.71262e-06 0)
(-3.14986e-06 -1.69809e-06 0)
(-2.64939e-06 -1.67143e-06 0)
(-2.15518e-06 -1.63402e-06 0)
(-1.67013e-06 -1.58713e-06 0)
(-1.19665e-06 -1.53357e-06 0)
(-7.34123e-07 -1.47484e-06 0)
(-2.87804e-07 -1.41134e-06 0)
(1.40545e-07 -1.34723e-06 0)
(5.55591e-07 -1.28107e-06 0)
(9.54908e-07 -1.21478e-06 0)
(1.33966e-06 -1.14944e-06 0)
(1.71022e-06 -1.08439e-06 0)
(2.06648e-06 -1.02063e-06 0)
(2.41023e-06 -9.58015e-07 0)
(2.74051e-06 -8.95541e-07 0)
(3.05698e-06 -8.32457e-07 0)
(3.35919e-06 -7.67678e-07 0)
(3.64663e-06 -6.9958e-07 0)
(3.91729e-06 -6.27307e-07 0)
(4.16954e-06 -5.49042e-07 0)
(4.40141e-06 -4.63446e-07 0)
(4.61003e-06 -3.69173e-07 0)
(4.79263e-06 -2.66025e-07 0)
(4.94601e-06 -1.5285e-07 0)
(5.06727e-06 -3.00011e-08 0)
(5.15276e-06 1.02687e-07 0)
(5.19944e-06 2.44982e-07 0)
(5.20417e-06 3.95951e-07 0)
(5.16366e-06 5.54712e-07 0)
(5.07491e-06 7.20274e-07 0)
(4.93553e-06 8.90932e-07 0)
(4.7437e-06 1.06465e-06 0)
(4.49812e-06 1.24013e-06 0)
(4.19746e-06 1.41621e-06 0)
(3.84084e-06 1.59166e-06 0)
(3.4281e-06 1.76498e-06 0)
(2.95953e-06 1.93536e-06 0)
(2.4356e-06 2.10155e-06 0)
(1.8573e-06 2.26264e-06 0)
(1.22571e-06 2.41789e-06 0)
(5.41915e-07 2.56702e-06 0)
(-1.93463e-07 2.70954e-06 0)
(-9.79563e-07 2.84509e-06 0)
(-1.81485e-06 2.97568e-06 0)
(-2.69932e-06 3.09979e-06 0)
(-3.63205e-06 3.21814e-06 0)
(-4.61234e-06 3.33372e-06 0)
(-5.64077e-06 3.44629e-06 0)
(-6.71789e-06 3.55663e-06 0)
(-7.84446e-06 3.66647e-06 0)
(-9.02149e-06 3.7762e-06 0)
(-1.02492e-05 3.88545e-06 0)
(-1.15287e-05 3.99366e-06 0)
(-1.28613e-05 4.09978e-06 0)
(-1.42462e-05 4.20227e-06 0)
(-1.56856e-05 4.29844e-06 0)
(-1.71708e-05 4.38346e-06 0)
(-1.87191e-05 4.45266e-06 0)
(-2.02746e-05 4.49298e-06 0)
(-2.19272e-05 4.50034e-06 0)
(-2.34787e-05 4.41013e-06 0)
(-2.51749e-05 4.1109e-06 0)
(-2.6458e-05 3.18624e-06 0)
(-2.75495e-05 1.1561e-06 0)
(-1.37386e-07 1.36683e-06 0)
(-6.37476e-07 2.00997e-06 0)
(-1.2308e-06 2.19609e-06 0)
(-1.839e-06 2.22578e-06 0)
(-2.44956e-06 2.20307e-06 0)
(-3.05163e-06 2.15525e-06 0)
(-3.64331e-06 2.09295e-06 0)
(-4.21929e-06 2.01767e-06 0)
(-4.77669e-06 1.92869e-06 0)
(-5.31137e-06 1.82554e-06 0)
(-5.81944e-06 1.70787e-06 0)
(-6.29681e-06 1.57545e-06 0)
(-6.73911e-06 1.42836e-06 0)
(-7.14202e-06 1.26711e-06 0)
(-7.50174e-06 1.0926e-06 0)
(-7.81472e-06 9.06409e-07 0)
(-8.07767e-06 7.10462e-07 0)
(-8.28776e-06 5.0636e-07 0)
(-8.4426e-06 2.96325e-07 0)
(-8.54048e-06 8.31034e-08 0)
(-8.5804e-06 -1.31144e-07 0)
(-8.56223e-06 -3.43768e-07 0)
(-8.48649e-06 -5.52054e-07 0)
(-8.35459e-06 -7.53491e-07 0)
(-8.16866e-06 -9.45402e-07 0)
(-7.93127e-06 -1.12547e-06 0)
(-7.6459e-06 -1.29129e-06 0)
(-7.31641e-06 -1.44111e-06 0)
(-6.94713e-06 -1.57318e-06 0)
(-6.54278e-06 -1.68674e-06 0)
(-6.10817e-06 -1.78078e-06 0)
(-5.64838e-06 -1.85537e-06 0)
(-5.16847e-06 -1.91048e-06 0)
(-4.67365e-06 -1.94674e-06 0)
(-4.16899e-06 -1.96465e-06 0)
(-3.65941e-06 -1.96564e-06 0)
(-3.14965e-06 -1.95035e-06 0)
(-2.64345e-06 -1.92118e-06 0)
(-2.14439e-06 -1.87953e-06 0)
(-1.65532e-06 -1.82725e-06 0)
(-1.17872e-06 -1.76713e-06 0)
(-7.14011e-07 -1.70089e-06 0)
(-2.66584e-07 -1.63027e-06 0)
(1.62012e-07 -1.55816e-06 0)
(5.76714e-07 -1.48424e-06 0)
(9.75162e-07 -1.41051e-06 0)
(1.35879e-06 -1.33753e-06 0)
(1.72831e-06 -1.2658e-06 0)
(2.08384e-06 -1.19533e-06 0)
(2.42724e-06 -1.12612e-06 0)
(2.75786e-06 -1.05732e-06 0)
(3.07539e-06 -9.87509e-07 0)
(3.37926e-06 -9.1555e-07 0)
(3.66907e-06 -8.39644e-07 0)
(3.94294e-06 -7.59079e-07 0)
(4.19902e-06 -6.71125e-07 0)
(4.43537e-06 -5.749e-07 0)
(4.64903e-06 -4.68326e-07 0)
(4.83703e-06 -3.51524e-07 0)
(4.99613e-06 -2.22978e-07 0)
(5.12313e-06 -8.31875e-08 0)
(5.21437e-06 6.82375e-08 0)
(5.26658e-06 2.30859e-07 0)
(5.2764e-06 4.03794e-07 0)
(5.24026e-06 5.86139e-07 0)
(5.15528e-06 7.76628e-07 0)
(5.01941e-06 9.73174e-07 0)
(4.8308e-06 1.1736e-06 0)
(4.58756e-06 1.3766e-06 0)
(4.2882e-06 1.58073e-06 0)
(3.93196e-06 1.78447e-06 0)
(3.51874e-06 1.98604e-06 0)
(3.049e-06 2.18436e-06 0)
(2.52346e-06 2.37811e-06 0)
(1.94314e-06 2.5662e-06 0)
(1.30904e-06 2.74791e-06 0)
(6.22424e-07 2.92292e-06 0)
(-1.15831e-07 3.09077e-06 0)
(-9.04438e-07 3.2516e-06 0)
(-1.74226e-06 3.40616e-06 0)
(-2.62953e-06 3.55468e-06 0)
(-3.56388e-06 3.69762e-06 0)
(-4.54528e-06 3.83668e-06 0)
(-5.57516e-06 3.97304e-06 0)
(-6.65336e-06 4.1081e-06 0)
(-7.78067e-06 4.24277e-06 0)
(-8.95802e-06 4.37745e-06 0)
(-1.01863e-05 4.51306e-06 0)
(-1.14669e-05 4.64735e-06 0)
(-1.28017e-05 4.78025e-06 0)
(-1.41906e-05 4.90953e-06 0)
(-1.56362e-05 5.03222e-06 0)
(-1.71302e-05 5.14267e-06 0)
(-1.86919e-05 5.23519e-06 0)
(-2.02637e-05 5.29521e-06 0)
(-2.19407e-05 5.31423e-06 0)
(-2.35208e-05 5.2204e-06 0)
(-2.52556e-05 4.87245e-06 0)
(-2.65808e-05 3.78941e-06 0)
(-2.77015e-05 1.38853e-06 0)
(-1.40118e-07 1.55904e-06 0)
(-6.45411e-07 2.28825e-06 0)
(-1.24352e-06 2.49815e-06 0)
(-1.85722e-06 2.53208e-06 0)
(-2.47375e-06 2.50799e-06 0)
(-3.08203e-06 2.45571e-06 0)
(-3.68039e-06 2.38681e-06 0)
(-4.26342e-06 2.30314e-06 0)
(-4.82825e-06 2.20388e-06 0)
(-5.37069e-06 2.08841e-06 0)
(-5.88664e-06 1.95638e-06 0)
(-6.37184e-06 1.80749e-06 0)
(-6.82181e-06 1.64165e-06 0)
(-7.23201e-06 1.45956e-06 0)
(-7.59845e-06 1.26239e-06 0)
(-7.91748e-06 1.05178e-06 0)
(-8.18558e-06 8.29752e-07 0)
(-8.39952e-06 5.98253e-07 0)
(-8.55691e-06 3.59823e-07 0)
(-8.65608e-06 1.17436e-07 0)
(-8.69573e-06 -1.26238e-07 0)
(-8.67583e-06 -3.68109e-07 0)
(-8.59711e-06 -6.05268e-07 0)
(-8.46085e-06 -8.34576e-07 0)
(-8.26926e-06 -1.05316e-06 0)
(-8.02519e-06 -1.2584e-06 0)
(-7.7321e-06 -1.44742e-06 0)
(-7.39413e-06 -1.61842e-06 0)
(-7.01564e-06 -1.76935e-06 0)
(-6.60144e-06 -1.8993e-06 0)
(-6.15662e-06 -2.00728e-06 0)
(-5.68637e-06 -2.09312e-06 0)
(-5.19605e-06 -2.15693e-06 0)
(-4.69122e-06 -2.19911e-06 0)
(-4.17719e-06 -2.22055e-06 0)
(-3.65894e-06 -2.22246e-06 0)
(-3.14132e-06 -2.20604e-06 0)
(-2.62818e-06 -2.17389e-06 0)
(-2.12314e-06 -2.12755e-06 0)
(-1.62907e-06 -2.06939e-06 0)
(-1.14853e-06 -2.00217e-06 0)
(-6.8124e-07 -1.92801e-06 0)
(-2.32615e-07 -1.84944e-06 0)
(1.96329e-07 -1.76896e-06 0)
(6.1076e-07 -1.68716e-06 0)
(1.00862e-06 -1.60589e-06 0)
(1.39135e-06 -1.52522e-06 0)
(1.76005e-06 -1.44675e-06 0)
(2.11512e-06 -1.36981e-06 0)
(2.45814e-06 -1.29432e-06 0)
(2.78908e-06 -1.21933e-06 0)
(3.10772e-06 -1.1433e-06 0)
(3.41331e-06 -1.06458e-06 0)
(3.70558e-06 -9.81255e-07 0)
(3.98297e-06 -8.92685e-07 0)
(4.24327e-06 -7.95482e-07 0)
(4.48447e-06 -6.88767e-07 0)
(4.70366e-06 -5.70305e-07 0)
(4.89763e-06 -4.3988e-07 0)
(5.06295e-06 -2.96113e-07 0)
(5.19612e-06 -1.39287e-07 0)
(5.2935e-06 3.09105e-08 0)
(5.35155e-06 2.1399e-07 0)
(5.36663e-06 4.09266e-07 0)
(5.33494e-06 6.15591e-07 0)
(5.2538e-06 8.312e-07 0)
(5.12147e-06 1.05372e-06 0)
(4.93583e-06 1.2812e-06 0)
(4.69459e-06 1.51222e-06 0)
(4.39634e-06 1.74489e-06 0)
(4.04047e-06 1.97731e-06 0)
(3.6268e-06 2.20757e-06 0)
(3.15577e-06 2.43416e-06 0)
(2.62826e-06 2.65572e-06 0)
(2.04539e-06 2.87105e-06 0)
(1.40833e-06 3.07941e-06 0)
(7.18483e-07 3.28037e-06 0)
(-2.29734e-08 3.47349e-06 0)
(-8.1476e-07 3.65934e-06 0)
(-1.65548e-06 3.83811e-06 0)
(-2.54477e-06 4.0106e-06 0)
(-3.48088e-06 4.17775e-06 0)
(-4.4638e-06 4.34032e-06 0)
(-5.49459e-06 4.50037e-06 0)
(-6.57317e-06 4.65968e-06 0)
(-7.70059e-06 4.8192e-06 0)
(-8.87761e-06 4.979e-06 0)
(-1.01055e-05 5.14033e-06 0)
(-1.13862e-05 5.30147e-06 0)
(-1.27222e-05 5.46182e-06 0)
(-1.41142e-05 5.61899e-06 0)
(-1.55654e-05 5.76949e-06 0)
(-1.7068e-05 5.90722e-06 0)
(-1.86432e-05 6.0253e-06 0)
(-2.02327e-05 6.10796e-06 0)
(-2.19369e-05 6.14224e-06 0)
(-2.35502e-05 6.04875e-06 0)
(-2.53304e-05 5.6563e-06 0)
(-2.6708e-05 4.41318e-06 0)
(-2.7867e-05 1.62844e-06 0)
(-1.43056e-07 1.75403e-06 0)
(-6.5365e-07 2.56895e-06 0)
(-1.25671e-06 2.80284e-06 0)
(-1.87652e-06 2.84157e-06 0)
(-2.4999e-06 2.81613e-06 0)
(-3.11511e-06 2.75959e-06 0)
(-3.7209e-06 2.68433e-06 0)
(-4.31183e-06 2.59244e-06 0)
(-4.88495e-06 2.48309e-06 0)
(-5.4361e-06 2.35548e-06 0)
(-5.96101e-06 2.20912e-06 0)