/*--------------------------------*- C++ -*----------------------------------*\
| =========                 |                                                 |
| \\      /  F ield         | OpenFOAM: The Open Source CFD Toolbox           |
|  \\    /   O peration     | Version:  2.4.0                                 |
|   \\  /    A nd           | Web:      www.OpenFOAM.org                      |
|    \\/     M anipulation  |                                                 |
\*---------------------------------------------------------------------------*/
FoamFile
{
    version     2.0;
    format      ascii;
    class       volScalarField;
    location    "0.308";
    object      p_rgh;
}
// * * * * * * * * * * * * * * * * * * * * * * * * * * * * * * * * * * * * * //

dimensions      [1 -1 -2 0 0 0 0];

internalField   nonuniform List<scalar> 
60000
(
126.491
126.451
126.365
126.234
126.057
125.835
125.568
125.257
124.902
124.502
124.06
123.574
123.045
122.474
121.863
121.21
120.517
119.786
119.016
118.209
117.367
116.489
115.577
114.633
113.657
112.652
111.617
110.556
109.469
108.359
107.225
106.071
104.898
103.708
102.502
101.282
100.052
98.8113
97.5638
96.3112
95.0561
93.8008
92.548
91.3007
90.0617
88.8343
87.622
86.4284
85.2573
84.1125
82.9981
81.9181
80.8766
79.8775
78.9244
78.0207
77.1696
76.3737
75.6348
74.9548
74.3355
73.7723
73.2682
72.8214
72.4299
72.0911
71.8024
71.5608
71.3635
71.2076
71.0904
71.0096
70.9634
70.9502
70.9689
71.0189
71.0995
71.2115
71.355
71.5307
71.7392
71.9813
72.258
72.5699
72.9178
73.3022
73.7234
74.1816
74.6766
75.208
75.7755
76.3782
77.0155
77.6864
78.3901
79.1259
79.8929
80.6902
81.5171
82.3724
126.493
126.454
126.369
126.237
126.06
125.838
125.572
125.26
124.905
124.505
124.062
123.576
123.048
122.477
121.865
121.212
120.52
119.788
119.018
118.211
117.368
116.49
115.578
114.634
113.658
112.652
111.618
110.557
109.47
108.359
107.225
106.071
104.898
103.707
102.501
101.282
100.051
98.81
97.5623
96.3094
95.0539
93.7983
92.5451
91.2972
90.0577
88.8298
87.6169
86.4226
85.2507
84.1051
82.9899
81.9091
80.8667
79.8667
78.9128
78.0084
77.1567
76.3601
75.6208
74.94
74.3176
73.7561
73.2526
72.8062
72.415
72.0767
71.7884
71.5473
71.3505
71.195
71.0782
70.9978
70.9519
70.9389
70.9578
71.0078
71.089
71.2012
71.3448
71.5205
71.7293
71.9718
72.249
72.5616
72.9102
73.2954
73.7174
74.1765
74.6724
75.2049
75.7733
76.377
77.0152
77.687
78.3915
79.128
79.8956
80.6935
81.5209
82.3767
126.507
126.467
126.381
126.25
126.073
125.851
125.584
125.273
124.917
124.517
124.074
123.588
123.059
122.488
121.875
121.222
120.529
119.797
119.027
118.22
117.377
116.498
115.586
114.641
113.665
112.659
111.624
110.562
109.475
108.363
107.229
106.075
104.901
103.71
102.503
101.283
100.052
98.8104
97.562
96.3084
95.052
93.7954
92.5413
91.2923
90.0516
88.8223
87.6079
86.4121
85.2386
84.0913
82.9744
81.8918
80.8477
79.846
78.8905
77.9846
77.1316
76.3339
75.5938
74.9124
74.2902
73.7283
73.225
72.779
72.3885
72.051
71.7636
71.5234
71.3275
71.1728
71.0568
70.9771
70.9316
70.919
70.938
70.9881
71.0691
71.181
71.3243
71.4996
71.7077
71.9496
72.2264
72.5386
72.8871
73.2724
73.6947
74.1542
74.6507
75.1838
75.753
76.3574
76.9963
77.6688
78.3738
79.1108
79.8787
80.6767
81.5043
82.3599
126.531
126.491
126.405
126.273
126.096
125.874
125.607
125.295
124.939
124.539
124.095
123.609
123.079
122.508
121.895
121.241
120.548
119.815
119.045
118.237
117.392
116.513
115.6
114.655
113.678
112.671
111.636
110.573
109.485
108.373
107.238
106.082
104.908
103.716
102.508
101.287
100.054
98.8121
97.5623
96.3074
95.0496
93.7914
92.5354
91.2846
90.0418
88.8102
87.5934
86.395
85.2188
84.0687
82.9489
81.8635
80.8165
79.8121
78.854
77.9459
77.0908
76.2915
75.55
74.8678
74.2454
73.6834
73.1805
72.7354
72.3461
72.0099
71.724
71.4854
71.2909
71.1377
71.0229
70.9442
70.8996
70.8875
70.9069
70.957
71.0378
71.1494
71.2921
71.4668
71.6743
71.9156
72.1915
72.5032
72.8512
73.2362
73.6584
74.1179
74.6147
75.1482
75.7178
76.3227
76.962
77.6348
78.34
79.077
79.8447
80.6424
81.4695
82.3245
126.566
126.525
126.439
126.307
126.13
125.907
125.64
125.328
124.972
124.571
124.127
123.64
123.11
122.537
121.924
121.269
120.575
119.842
119.07
118.261
117.416
116.536
115.622
114.675
113.698
112.69
111.653
110.589
109.5
108.387
107.251
106.094
104.918
103.724
102.515
101.293
100.059
98.8147
97.5632
96.3064
95.0465
93.7861
92.5277
91.2742
90.0285
88.7939
87.5737
86.3717
85.1918
84.0379
82.9141
81.8247
80.7739
79.7657
78.8041
77.8927
77.0349
76.2332
75.4899
74.8065
74.1837
73.6216
73.1194
72.6754
72.2876
71.9534
71.6696
71.4332
71.2409
71.0898
70.9768
70.8997
70.8564
70.8452
70.8651
70.9156
70.9964
71.1077
71.25
71.4241
71.631
71.8716
72.147
72.4581
72.8057
73.1904
73.6126
74.0722
74.5692
75.1031
75.6731
76.2784
76.918
77.5909
78.296
79.0326
79.7997
80.5966
81.4228
82.2769
126.612
126.571
126.485
126.352
126.175
125.952
125.684
125.371
125.014
124.613
124.168
123.68
123.149
122.576
121.962
121.306
120.611
119.876
119.103
118.293
117.447
116.566
115.65
114.703
113.723
112.714
111.676
110.611
109.52
108.405
107.267
106.109
104.931
103.736
102.525
101.301
100.064
98.8182
97.5644
96.3052
95.0427
93.7794
92.5179
91.261
90.0116
88.773
87.5486
86.3421
85.1574
83.9986
82.8698
81.7754
80.7196
79.7066
78.7405
77.825
76.9635
76.1588
75.4132
74.7283
74.1047
73.5427
73.0412
72.5988
72.213
71.8812
71.6002
71.3666
71.1772
71.0288
70.9183
70.8433
70.8017
70.7919
70.8127
70.8637
70.9446
71.0557
71.1976
71.3712
71.5775
71.8175
72.0923
72.403
72.7504
73.135
73.5573
74.0173
74.5148
75.0492
75.6198
76.2256
76.8655
77.5385
78.2434
78.9794
79.7457
80.5415
81.3665
82.2196
126.669
126.628
126.541
126.408
126.23
126.007
125.739
125.426
125.068
124.666
124.22
123.731
123.199
122.625
122.009
121.352
120.656
119.92
119.145
118.334
117.486
116.603
115.686
114.736
113.755
112.744
111.704
110.637
109.544
108.427
107.288
106.127
104.947
103.75
102.537
101.31
100.071
98.8225
97.5659
96.3037
95.038
93.7712
92.506
91.245
89.9911
88.7477
87.5182
86.3062
85.1158
83.9509
82.816
81.7155
80.6536
79.6348
78.6631
77.7426
76.8766
76.0682
75.3197
74.6329
74.0084
73.4464
72.9459
72.5053
72.122
71.7933
71.5157
71.2857
71.0999
70.9548
70.8475
70.7752
70.7358
70.7276
70.7496
70.8013
70.8825
70.9935
71.1351
71.3082
71.5138
71.7532
72.0275
72.3379
72.6851
73.0698
73.4924
73.9529
74.4511
74.9864
75.5577
76.1642
76.8045
77.4775
78.1822
78.9176
79.6828
80.4773
81.3009
82.1524
126.737
126.696
126.609
126.476
126.297
126.073
125.804
125.49
125.132
124.729
124.282
123.792
123.259
122.683
122.066
121.408
120.709
119.971
119.195
118.382
117.532
116.647
115.728
114.776
113.793
112.78
111.738
110.669
109.573
108.454
107.312
106.149
104.966
103.766
102.551
101.321
100.079
98.8275
97.5677
96.3019
95.0325
93.7617
92.492
91.2262
89.9671
88.7181
87.4825
86.264
85.0668
83.8949
82.7528
81.645
80.5759
79.5501
78.5719
77.6453
76.774
75.9611
75.2092
74.5201
73.8945
73.3325
72.8332
72.3948
72.0146
71.6895
71.4161
71.1904
71.0089
70.8679
70.7643
70.6952
70.6585
70.6524
70.6759
70.7285
70.8101
70.9211
71.0623
71.2348
71.4398
71.6786
71.9524
72.2624
72.6095
72.9944
73.4175
73.8788
74.3779
74.9141
75.4865
76.0937
76.7346
77.4078
78.1122
78.8467
79.6107
80.4036
81.2253
82.0751
126.817
126.775
126.687
126.554
126.375
126.15
125.881
125.566
125.206
124.802
124.354
123.863
123.328
122.751
122.132
121.472
120.772
120.032
119.254
118.438
117.586
116.699
115.777
114.823
113.837
112.822
111.777
110.705
109.607
108.485
107.34
106.174
104.989
103.786
102.567
101.334
100.089
98.8333
97.5697
96.3
95.0262
93.7507
92.476
91.2047
89.9397
88.6841
87.4416
86.2157
85.0106
83.8306
82.6801
81.5639
80.4865
79.4526
78.4667
77.533
76.6555
75.8374
75.0815
74.3896
73.7627
73.2008
72.7029
72.267
71.8904
71.5697
71.3011
71.0806
70.9042
70.7681
70.6688
70.6036
70.57
70.5664
70.5916
70.6453
70.7273
70.8383
70.9792
71.1511
71.3554
71.5935
71.8668
72.1765
72.5236
72.9088
73.3325
73.7947
74.295
74.8324
75.406
76.0142
76.6557
77.3291
78.0331
78.7667
79.5292
80.3201
81.1396
81.987
126.907
126.865
126.777
126.643
126.464
126.238
125.968
125.652
125.291
124.886
124.437
123.944
123.407
122.829
122.208
121.546
120.843
120.101
119.32
118.502
117.647
116.757
115.833
114.876
113.888
112.869
111.822
110.747
109.646
108.52
107.372
106.203
105.014
103.807
102.585
101.348
100.099
98.8399
97.5721
96.2978
95.0192
93.7385
92.4581
91.1806
89.9089
88.646
87.3956
86.1613
84.9473
83.758
82.598
81.4722
80.3852
79.3421
78.3474
77.4056
76.5209
75.6968
74.9362
74.2411
73.6127
73.0508
72.5545
72.1216
71.7493
71.4337
71.1708
70.9563
70.7858
70.6553
70.5612
70.5004
70.4704
70.4696
70.4969
70.5517
70.6343
70.7453
70.8857
71.057
71.2605
71.4978
71.7705
72.0798
72.427
72.8126
73.2372
73.7005
74.2022
74.7411
75.3161
75.9256
76.5679
77.2414
77.945
78.6774
79.4381
80.2267
81.0435
81.8881
127.009
126.966
126.878
126.744
126.564
126.338
126.066
125.749
125.387
124.981
124.53
124.035
123.497
122.916
122.293
121.628
120.923
120.179
119.395
118.574
117.717
116.824
115.896
114.936
113.945
112.923
111.872
110.793
109.689
108.56
107.408
106.235
105.042
103.832
102.605
101.364
100.111
98.8474
97.5748
96.2956
95.0117
93.7252
92.4385
91.1542
89.8749
88.6039
87.3447
86.101
84.877
83.6773
82.5066
81.3699
80.2722
79.2185
78.2138
77.2629
76.37
75.539
74.773
74.0742
73.4439
72.8822
72.3877
71.9584
71.5909
71.2812
71.0249
70.8172
70.6536
70.5296
70.4413
70.3856
70.3598
70.3622
70.3917
70.4479
70.531
70.642
70.7819
70.9523
71.1548
71.3913
71.6633
71.9723
72.3195
72.7057
73.1312
73.596
74.0993
74.6401
75.2168
75.8277
76.471
77.1448
77.8478
78.5789
79.3375
80.1233
80.9369
81.7782
127.121
127.079
126.99
126.855
126.675
126.448
126.175
125.857
125.494
125.086
124.633
124.136
123.596
123.013
122.387
121.72
121.013
120.265
119.478
118.654
117.793
116.897
115.966
115.003
114.007
112.982
111.927
110.845
109.736
108.604
107.448
106.27
105.074
103.859
102.628
101.382
100.124
98.8557
97.5781
96.2934
95.0036
93.7108
92.4173
91.1254
89.838
88.558
87.289
86.0349
84.7998
83.5885
82.4059
81.257
80.1473
79.0818
78.0659
77.1045
76.2023
75.3635
74.5913
73.8884
73.2561
72.6944
72.2021
71.7768
71.4149
71.112
70.8633
70.6635
70.5076
70.391
70.3094
70.2594
70.2383
70.2443
70.2762
70.3338
70.4175
70.5283
70.6675
70.8369
71.0383
71.2737
71.5449
71.8536
72.2009
72.5877
73.0144
73.4808
73.9861
74.5291
75.1079
75.7206
76.365
77.0392
77.7417
78.4712
79.2273
80.0098
80.8196
81.6568
127.246
127.203
127.114
126.978
126.797
126.569
126.295
125.976
125.611
125.201
124.747
124.248
123.705
123.12
122.491
121.822
121.111
120.36
119.57
118.742
117.878
116.978
116.043
115.076
114.077
113.047
111.988
110.901
109.789
108.652
107.491
106.309
105.108
103.888
102.653
101.402
100.139
98.865
97.5818
96.2912
94.9952
93.6956
92.3946
91.0946
89.7982
88.5085
87.2288
85.9632
84.7159
83.4918
82.2959
81.1336
80.0104
78.9318
77.9034
76.9303
76.0177
75.17
74.3909
73.6832
73.0485
72.4869
71.9971
71.5764
71.2209
70.9258
70.6856
70.4948
70.3478
70.2395
70.1655
70.1219
70.1061
70.116
70.1506
70.2097
70.2939
70.4043
70.5426
70.7107
70.9107
71.1449
71.4152
71.7233
72.0707
72.4582
72.8863
73.3547
73.8624
74.4079
74.9893
75.6041
76.25
76.9247
77.6266
78.3543
79.1075
79.8863
80.6916
81.524
127.381
127.338
127.249
127.113
126.93
126.701
126.427
126.106
125.739
125.328
124.871
124.37
123.825
123.236
122.605
121.932
121.218
120.464
119.67
118.839
117.97
117.066
116.127
115.156
114.152
113.118
112.054
110.963
109.846
108.704
107.539
106.352
105.145
103.921
102.68
101.424
100.155
98.8753
97.5861
96.2893
94.9865
93.6796
92.3707
91.062
89.7559
88.4556
87.1643
85.8862
84.6255
83.3873
82.1768
80.9997
79.8617
78.7685
77.7261
76.74
75.8157
74.958
74.171
73.458
72.8206
72.259
71.772
71.3566
71.0084
70.7222
70.4918
70.3112
70.1742
70.0753
70.0097
69.9733
69.9632
69.9775
70.0149
70.0756
70.1601
70.27
70.407
70.5735
70.7719
71.0045
71.2736
71.5812
71.9286
72.317
72.7467
73.2174
73.7279
74.2765
74.8608
75.4782
76.1259
76.8013
77.5026
78.2284
78.9783
79.7525
80.5526
81.3794
127.528
127.485
127.395
127.258
127.075
126.845
126.569
126.246
125.878
125.465
125.006
124.502
123.954
123.363
122.728
122.052
121.334
120.576
119.778
118.943
118.07
117.161
116.218
115.242
114.233
113.194
112.126
111.03
109.908
108.76
107.59
106.398
105.186
103.955
102.709
101.447
100.173
98.8866
97.5911
96.2876
94.9777
93.6631
92.3458
91.0277
89.7113
88.3995
87.0958
85.804
84.5287
83.2751
82.0487
80.8553
79.7009
78.5917
77.5338
76.5332
75.5959
74.727
73.9312
73.2121
72.5716
72.0101
71.5263
71.1169
70.777
70.5008
70.2816
70.1125
69.9868
69.8984
69.8422
69.8138
69.8101
69.829
69.8695
69.9316
70.0163
70.1253
70.2608
70.4253
70.6216
70.8523
71.12
71.4267
71.7742
72.1635
72.5951
73.0684
73.5822
74.1344
74.7224
75.3429
75.9927
76.6691
77.3697
78.0933
78.8395
79.6087
80.4026
81.2227
127.687
127.643
127.553
127.415
127.231
127
126.722
126.398
126.028
125.612
125.151
124.645
124.094
123.499
122.861
122.181
121.459
120.697
119.895
119.055
118.177
117.264
116.316
115.335
114.321
113.277
112.203
111.102
109.974
108.821
107.645
106.447
105.229
103.993
102.74
101.472
100.191
98.8991
97.5969
96.2863
94.9689
93.6463
92.32
90.992
89.6646
88.3406
87.0234
85.7169
84.4259
83.1555
81.9117
80.7004
79.5282
78.4013
77.3264
76.3098
75.3579
74.4765
73.6708
72.9447
72.3007
71.7393
71.2591
70.8565
70.5261
70.2613
70.0546
69.8984
69.7854
69.7089
69.6631
69.6436
69.6468
69.6708
69.7144
69.778
69.8626
69.9704
70.1037
70.2658
70.4595
70.6879
70.9538
71.2595
71.6069
71.9973
72.4309
72.9073
73.425
73.9815
74.5738
75.198
75.8506
76.5281
77.2282
77.9494
78.6913
79.4546
80.2414
81.0537
127.857
127.813
127.722
127.584
127.399
127.166
126.887
126.561
126.189
125.771
125.307
124.798
124.244
123.646
123.004
122.32
121.594
120.827
120.02
119.175
118.293
117.374
116.421
115.434
114.415
113.365
112.286
111.179
110.045
108.886
107.704
106.5
105.276
104.033
102.774
101.499
100.212
98.9126
97.6034
96.2855
94.9603
93.6292
92.2936
90.9552
89.6162
88.2793
86.9476
85.6253
84.3172
83.0287
81.7658
80.5352
79.3434
78.1972
77.1035
76.0693
75.1012
74.2059
73.3889
72.655
72.007
71.4457
70.9695
70.5746
70.2549
70.003
69.8106
69.669
69.5703
69.5069
69.4728
69.4629
69.4738
69.5031
69.55
69.6149
69.6991
69.8051
69.9358
70.0947
70.2852
70.5108
70.7745
71.0789
71.4262
71.8176
72.2536
72.7336
73.2558
73.8174
74.4148
75.0436
75.6994
76.3785
77.0782
77.7967
78.5338
79.2904
80.0691
80.8722
128.039
127.994
127.903
127.764
127.578
127.344
127.063
126.735
126.361
125.94
125.474
124.961
124.404
123.802
123.156
122.468
121.737
120.965
120.154
119.303
118.415
117.491
116.533
115.54
114.515
113.459
112.374
111.261
110.121
108.956
107.767
106.556
105.325
104.076
102.81
101.528
100.234
98.9274
97.6109
96.2854
94.9521
93.6122
92.2669
90.9177
89.5664
88.2157
86.8687
85.5295
84.2029
82.8948
81.6114
80.3596
79.1466
77.9793
76.8651
75.8114
74.8254
73.9144
73.0849
72.342
71.6894
71.1281
70.6565
70.2703
69.9628
69.7255
69.5492
69.4241
69.3412
69.2926
69.2713
69.2722
69.2913
69.3264
69.3766
69.4425
69.5259
69.6295
69.7569
69.9119
70.0985
70.3206
70.5816
70.8844
71.2313
71.6239
72.0625
72.5466
73.0741
73.6417
74.2452
74.8795
75.5393
76.2205
76.9198
77.6355
78.3673
79.1162
79.8854
80.6778
128.233
128.188
128.096
127.956
127.769
127.533
127.251
126.921
126.544
126.121
125.651
125.135
124.574
123.968
123.318
122.625
121.889
121.113
120.296
119.44
118.546
117.616
116.651
115.653
114.622
113.559
112.468
111.348
110.201
109.029
107.834
106.616
105.378
104.121
102.848
101.559
100.257
98.9433
97.6192
96.2859
94.9444
93.5955
92.2402
90.8797
89.5156
88.1504
86.7872
85.4298
84.0835
82.7541
81.4485
80.1739
78.9377
77.7475
76.6109
75.5357
74.5299
73.6015
72.7577
72.0047
71.3467
70.7853
70.3189
69.9426
69.6489
69.4282
69.27
69.1634
69.0984
69.0661
69.0591
69.0717
69.0998
69.141
69.1946
69.2612
69.3432
69.4437
69.5669
69.7171
69.899
70.1168
70.3744
70.6751
71.0215
71.4152
71.8568
72.3457
72.8793
73.4541
74.0648
74.7056
75.3704
76.0542
76.7534
77.466
78.1918
78.9322
79.6904
80.4704
128.439
128.393
128.301
128.16
127.971
127.734
127.449
127.117
126.738
126.312
125.839
125.32
124.755
124.145
123.49
122.792
122.051
121.269
120.446
119.584
118.684
117.748
116.777
115.772
114.734
113.665
112.567
111.44
110.286
109.107
107.904
106.679
105.433
104.169
102.888
101.591
100.282
98.9604
97.6286
96.2873
94.9373
93.5792
92.2137
90.8416
89.4643
88.0839
86.7034
85.3268
83.9592
82.607
81.2773
79.9779
78.7168
77.5017
76.3407
75.2419
74.2142
73.2662
72.4064
71.6417
70.9775
70.4159
69.9553
69.5902
69.3121
69.1103
68.9726
68.8869
68.8418
68.8277
68.8364
68.8618
68.8997
68.9474
69.0043
69.0713
69.1511
69.2477
69.3656
69.5101
69.6862
69.8988
70.1522
70.4503
70.7957
71.1906
71.6356
72.1299
72.6707
73.2538
73.8733
74.5221
75.1929
75.8799
76.5792
77.2887
78.0079
78.7384
79.4842
80.2497
128.657
128.61
128.517
128.375
128.185
127.946
127.66
127.325
126.944
126.514
126.038
125.515
124.946
124.332
123.672
122.969
122.222
121.434
120.605
119.736
118.83
117.887
116.909
115.897
114.853
113.777
112.671
111.537
110.376
109.189
107.978
106.745
105.492
104.219
102.93
101.626
100.308
98.9787
97.6389
96.2896
94.9311
93.5638
92.1879
90.8039
89.4128
88.0166
86.618
85.2209
83.8306
82.4537
81.0981
79.772
78.4839
77.2419
76.0542
74.9297
73.8777
72.9079
72.0298
71.2518
70.5803
70.0183
69.5641
69.2117
68.9514
68.771
68.6566
68.5943
68.5716
68.5776
68.6037
68.6432
68.6916
68.7462
68.8063
68.8732
68.95
69.0415
69.153
69.2904
69.4595
69.6658
69.9142
70.2089
70.553
70.9489
71.3977
71.8982
72.4475
73.0405
73.6704
74.3288
75.0069
75.698
76.3978
77.1039
77.8158
78.5354
79.267
80.0158
128.886
128.839
128.746
128.603
128.411
128.171
127.882
127.545
127.16
126.728
126.248
125.721
125.148
124.529
123.864
123.155
122.402
121.607
120.772
119.897
118.984
118.034
117.049
116.03
114.978
113.895
112.781
111.639
110.47
109.276
108.057
106.815
105.553
104.272
102.975
101.662
100.336
98.9982
97.6503
96.2928
94.9259
93.5494
92.163
90.7669
89.3618
87.9491
86.5315
85.1127
83.6981
82.2947
80.911
79.5561
78.239
76.9679
75.7514
74.5988
73.5199
72.5257
71.6268
70.8334
70.1533
69.5905
69.1435
68.8055
68.5656
68.4095
68.3214
68.2855
68.2877
68.3162
68.3614
68.4164
68.4762
68.538
68.6011
68.6673
68.7402
68.8253
68.9289
69.0577
69.2184
69.417
69.6593
69.9497
70.2919
70.6888
71.1416
71.6495
72.2086
72.8133
73.4557
74.1256
74.8126
75.5088
76.2096
76.9121
77.616
78.3234
79.039
79.7685
129.129
129.081
128.986
128.842
128.649
128.407
128.115
127.776
127.388
126.953
126.469
125.938
125.36
124.736
124.066
123.351
122.592
121.79
120.948
120.066
119.145
118.188
117.196
116.169
115.109
114.018
112.897
111.747
110.569
109.366
108.139
106.889
105.618
104.328
103.021
101.699
100.365
99.0188
97.6628
96.2972
94.9219
93.5363
92.1396
90.7313
89.3118
87.8821
86.4446
85.0028
83.5623
82.1304
80.7165
79.3305
77.982
76.6798
75.4322
74.2488
73.1403
72.1186
71.1961
70.3847
69.6943
69.1304
68.6913
68.3698
68.153
68.0247
67.9666
67.9605
67.9906
68.0438
68.1102
68.182
68.2541
68.3236
68.3897
68.4543
68.522
68.5992
68.6933
68.8118
68.9622
69.1516
69.3863
69.6713
70.0109
70.4084
70.8657
71.3819
71.9527
72.5713
73.2287
73.9127
74.6104
75.3129
76.0152
76.7141
77.409
78.1029
78.8006
79.5081
129.383
129.335
129.239
129.094
128.899
128.654
128.361
128.019
127.628
127.189
126.701
126.166
125.583
124.954
124.277
123.556
122.79
121.982
121.132
120.242
119.314
118.349
117.349
116.314
115.246
114.147
113.018
111.859
110.673
109.461
108.225
106.965
105.685
104.386
103.07
101.739
100.395
99.0404
97.6762
96.3027
94.9193
93.5249
92.1179
90.6976
89.2634
87.8163
86.358
84.8921
83.4239
81.9613
80.5146
79.0951
77.7132
76.3775
75.0964
73.8795
72.7383
71.6858
70.7363
69.9037
69.2011
68.6354
68.2052
67.9023
67.7121
67.6156
67.5915
67.6191
67.6803
67.7611
67.8506
67.9408
68.0264
68.1039
68.1727
68.2349
68.296
68.3635
68.446
68.5522
68.6904
68.8687
69.0942
69.3725
69.7083
70.1059
70.568
71.0939
71.6782
72.3133
72.9888
73.6899
74.4004
75.1106
75.8153
76.5104
77.1955
77.8745
78.5524
79.2349
129.65
129.601
129.505
129.358
129.161
128.914
128.618
128.273
127.879
127.436
126.945
126.405
125.817
125.182
124.499
123.771
122.998
122.182
121.325
120.427
119.491
118.518
117.509
116.466
115.39
114.282
113.144
111.976
110.781
109.56
108.314
107.045
105.755
104.446
103.12
101.779
100.426
99.0628
97.6905
96.3093
94.9183
93.5154
92.0986
90.6662
89.2174
87.7524
86.2727
84.7814
83.2837
81.788
80.3057
78.85
77.4323
76.0611
74.7442
73.4909
72.3135
71.2264
70.2457
69.3882
68.6707
68.1025
67.682
67.4004
67.2409
67.1809
67.1957
67.2612
67.3571
67.4684
67.5834
67.6937
67.7938
67.88
67.9511
68.0098
68.0624
68.1182
68.187
68.2785
68.4022
68.5673
68.7818
69.052
69.3828
69.7796
70.247
70.784
71.3841
72.0384
72.7359
73.4576
74.1835
74.903
75.6109
76.3021
76.9763
77.6391
78.2954
78.9496
129.929
129.88
129.782
129.634
129.435
129.186
128.887
128.539
128.142
127.695
127.199
126.655
126.062
125.42
124.731
123.996
123.216
122.392
121.526
120.62
119.676
118.694
117.677
116.625
115.54
114.423
113.276
112.099
110.895
109.664
108.408
107.129
105.828
104.509
103.172
101.821
100.458
99.0859
97.7056
96.3171
94.9189
93.5082
92.0821
90.638
89.1745
87.6914
86.1896
84.6717
83.1425
81.6109
80.09
78.5953
77.1395
75.7306
74.3755
73.0829
71.8656
70.7396
69.7229
68.8354
68.0998
67.5283
67.1183
66.861
66.7371
66.7192
66.7785
66.8867
67.0213
67.1663
67.3092
67.4414
67.5573
67.6527
67.7259
67.7796
67.8218
67.8633
67.9156
67.9897
68.0963
68.2456
68.4471
68.7076
69.0322
69.4278
69.9012
70.4516
71.0699
71.7467
72.4706
73.2174
73.9611
74.6917
75.4042
76.091
76.7527
77.398
78.0312
78.654
130.222
130.171
130.073
129.923
129.722
129.47
129.169
128.817
128.416
127.965
127.465
126.916
126.317
125.669
124.974
124.231
123.442
122.61
121.736
120.821
119.868
118.877
117.851
116.79
115.696
114.569
113.413
112.227
111.012
109.771
108.505
107.215
105.904
104.573
103.226
101.864
100.491
99.1094
97.7213
96.326
94.9214
93.5037
92.0689
90.6135
89.1356
87.6342
86.1098
84.5641
83.0015
81.431
79.8677
78.3306
76.8345
75.3862
73.9909
72.6558
71.3944
70.2245
69.1659
68.2421
67.4847
66.9089
66.5099
66.2806
66.1985
66.2292
66.3394
66.496
66.6736
66.8557
67.0293
67.1853
67.3186
67.4242
67.4992
67.5465
67.5756
67.5999
67.6329
67.6865
67.7724
67.9024
68.0879
68.3364
68.6528
69.0461
69.5274
70.0951
70.7353
71.4384
72.1946
72.9719
73.7358
74.4794
75.1981
75.8793
76.5263
77.1529
77.7621
78.3504
130.527
130.476
130.376
130.225
130.021
129.767
129.462
129.107
128.702
128.247
127.743
127.188
126.583
125.929
125.226
124.475
123.679
122.837
121.954
121.03
120.067
119.068
118.032
116.961
115.858
114.722
113.555
112.359
111.135
109.883
108.606
107.306
105.983
104.64
103.281
101.907
100.524
99.133
97.7372
96.3359
94.926
93.5023
92.0597
90.5937
89.1015
87.5818
86.0345
84.4602
82.8621
81.2491
79.6389
78.0557
76.5171
75.0281
73.5907
72.2099
70.8999
69.6809
68.5736
67.6049
66.8217
66.2409
65.8522
65.655
65.6221
65.7088
65.8776
66.0891
66.3148
66.5386
66.7464
66.9289
67.082
67.1998
67.2769
67.316
67.3291
67.333
67.3433
67.3732
67.435
67.5417
67.7075
67.9401
68.2432
68.6297
69.1189
69.7088
70.3764
71.1112
71.9082
72.7232
73.51
74.2698
74.9972
75.6704
76.2993
76.9067
77.4918
78.0428
130.845
130.793
130.692
130.539
130.333
130.076
129.767
129.409
129
128.541
128.031
127.471
126.861
126.2
125.489
124.73
123.924
123.074
122.181
121.247
120.275
119.265
118.22
117.139
116.026
114.88
113.703
112.497
111.262
110
108.711
107.399
106.064
104.709
103.337
101.951
100.556
99.156
97.753
96.3466
94.9326
93.5044
92.0551
90.5792
89.0732
87.5354
85.9651
84.3615
82.7258
81.0662
79.4036
77.7697
76.1867
74.6565
73.1759
71.746
70.3826
69.1095
67.9453
66.919
66.1051
65.5174
65.1349
64.9747
65.0013
65.1531
65.3904
65.6656
65.9458
66.2172
66.4638
66.6763
66.8525
66.985
67.0647
67.0933
67.0864
67.0654
67.0492
67.052
67.0864
67.167
67.3116
67.527
67.8117
68.1824
68.6748
69.287
69.9842
70.7573
71.608
72.4693
73.2803
74.0616
74.8024
75.4641
76.0709
76.6603
77.2235
77.7358
131.177
131.124
131.022
130.866
130.657
130.397
130.085
129.722
129.309
128.846
128.332
127.766
127.149
126.481
125.763
124.995
124.179
123.319
122.416
121.472
120.49
119.47
118.414
117.324
116.2
115.044
113.857
112.64
111.394
110.12
108.82
107.496
106.148
104.78
103.394
101.995
100.588
99.178
97.7682
96.3579
94.9416
93.5105
92.056
90.5711
89.0518
87.4961
85.9031
84.2701
82.5949
80.8838
79.1615
77.4712
75.8426
74.2718
72.7479
71.2652
69.8429
68.511
67.2786
66.1734
65.3239
64.7286
64.3459
64.2328
64.3355
64.5639
64.8826
65.2322
65.5736
65.8988
66.1881
66.4323
66.6337
66.7829
66.8644
66.878
66.8447
66.7932
66.7461
66.7175
66.72
66.77
66.893
67.0945
67.3604
67.7098
68.2062
68.8406
69.5564
70.3659
71.2882
72.2091
73.0449
73.8575
74.6184
75.2603
75.8385
76.4136
76.9606
77.4344
131.522
131.467
131.364
131.206
130.995
130.731
130.415
130.048
129.631
129.163
128.643
128.072
127.449
126.774
126.047
125.269
124.444
123.573
122.659
121.705
120.712
119.682
118.616
117.515
116.38
115.214
114.016
112.788
111.53
110.245
108.933
107.596
106.235
104.852
103.452
102.039
100.619
99.198
97.7819
96.3694
94.9529
93.5211
92.0631
90.5704
89.0382
87.465
85.8499
84.1881
82.4721
80.7036
78.912
77.1577
75.4829
73.8743
72.3083
70.7678
69.2791
67.8846
66.5691
65.3543
64.476
63.8793
63.4838
63.4348
63.6377
63.9521
64.3652
64.7997
65.206
65.5892
65.9229
66.1975
66.4247
66.5926
66.6748
66.6679
66.6013
66.5141
66.4331
66.3702
66.3349
66.3445
66.4396
66.6278
66.8719
67.1888
67.6981
68.3762
69.1106
69.9411
70.9418
71.9223
72.7744
73.6394
74.4349
75.0439
75.5874
76.1592
76.7021
77.142
131.881
131.825
131.721
131.559
131.345
131.077
130.757
130.386
129.964
129.491
128.967
128.39
127.76
127.077
126.341
125.554
124.718
123.836
122.911
121.946
120.942
119.901
118.824
117.712
116.567
115.389
114.18
112.941
111.672
110.375
109.05
107.7
106.324
104.927
103.511
102.082
100.647
99.215
97.7934
96.3807
94.9668
93.537
92.0776
90.5782
89.0337
87.4433
85.8071
84.1184
82.3612
80.5282
78.6533
76.8248
75.1043
73.464
71.8604
70.2545
68.6881
67.234
65.8182
64.4491
63.5661
62.9513
62.4836
62.5148
62.8504
63.2558
63.7811
64.312
64.7824
65.227
65.6041
65.9052
66.1607
66.3549
66.443
66.4143
66.3088
66.1812
66.0642
65.9648
65.8852
65.8389
65.8927
66.0661
66.2878
66.5635
67.1068
67.8413
68.5895
69.477
70.6194
71.6642
72.5059
73.4447
74.2786
74.8151
75.3081
75.8925
76.4495
76.8638
132.253
132.196
132.091
131.926
131.708
131.436
131.111
130.736
130.309
129.831
129.302
128.719
128.083
127.392
126.647
125.849
125.001
124.107
123.171
122.194
121.179
120.127
119.039
117.916
116.759
115.57
114.35
113.099
111.818
110.509
109.172
107.807
106.417
105.003
103.569
102.123
100.671
99.2274
97.8012
96.391
94.9833
93.559
92.1007
90.5959
89.0392
87.4317
85.7761
84.0643
82.2676
80.3612
78.3831
76.4653
74.702
73.044
71.4161
69.7334
68.0694
66.5805
65.0176
63.3676
62.5057
61.5795
59.2196
57.0597
55.5277
54.6217
54.7591
55.4954
56.5688
57.901
59.2139
60.3902
61.4449
62.3117
62.8925
63.1832
63.2803
63.3124
63.3679
63.4792
63.6607
63.9193
64.3413
64.8854
65.25
65.532
66.4005
67.4006
68.0652
68.9423
70.2839
71.3464
72.1608
73.2534
74.1487
74.5568
74.9874
75.613
76.2106
76.6159
132.64
132.582
132.473
132.306
132.084
131.807
131.478
131.097
130.666
130.183
129.648
129.06
128.417
127.718
126.963
126.154
125.294
124.388
123.439
122.45
121.424
120.36
119.261
118.126
116.958
115.757
114.525
113.262
111.97
110.648
109.297
107.918
106.512
105.081
103.628
102.161
100.691
99.2335
97.8038
96.3997
95.0026
93.588
92.1339
90.625
89.056
87.431
85.7579
84.0299
82.1987
80.2082
78.0985
76.0708
74.2731
72.6205
70.995
69.2132
67.4144
65.9542
63.6701
55.246
43.2085
29.7821
20.2097
14.6369
11.4764
9.8037
9.34419
9.57407
10.3249
11.4887
12.8787
14.3826
15.9249
17.3897
18.6183
19.5415
20.2313
20.8452
21.5478
22.4784
23.7883
25.6735
28.4426
32.3935
37.7555
44.0768
51.8469
61.7809
66.6218
68.0198
70.0284
71.0438
71.8026
73.1744
74.0908
74.2353
74.6015
75.3197
75.9927
76.4157
133.041
132.983
132.87
132.7
132.473
132.191
131.856
131.47
131.034
130.546
130.006
129.412
128.762
128.055
127.29
126.469
125.596
124.677
123.715
122.714
121.676
120.6
119.489
118.343
117.162
115.95
114.705
113.431
112.126
110.792
109.428
108.034
106.611
105.16
103.686
102.196
100.703
99.2306
97.7989
96.4055
95.025
93.6253
92.1791
90.6676
89.0853
87.4412
85.7523
84.0193
82.1647
80.0783
77.7991
75.6311
73.8108
72.1959
70.6159
68.6622
65.4398
54.0673
29.9562
11.0867
2.05346
0.351256
0.337394
0.327568
0.322716
0.319132
0.315117
0.311262
0.307751
0.303809
0.300398
0.297143
0.295441
0.293257
0.289115
0.285571
0.283021
0.280532
0.278079
0.275491
0.272352
0.268251
0.262572
0.249038
0.322016
2.01076
5.43793
11.1001
22.6864
40.0126
58.5323
70.2475
70.9937
73.2157
74.1852
73.7888
74.1236
75.0288
75.8191
76.3097
133.457
133.397
133.282
133.107
132.875
132.587
132.247
131.855
131.413
130.92
130.375
129.775
129.119
128.403
127.629
126.794
125.908
124.974
123.999
122.986
121.935
120.847
119.724
118.565
117.373
116.148
114.891
113.604
112.287
110.94
109.563
108.154
106.713
105.242
103.744
102.227
100.707
99.2154
97.7837
96.4073
95.0509
93.6728
92.239
90.7264
89.1287
87.4617
85.757
84.0356
82.1773
79.9855
77.4867
75.1331
73.2807
71.7511
70.3242
59.2666
29.9935
6.75074
0.346326
0.344453
0.344454
0.343956
0.336312
0.328845
0.323993
0.320058
0.316064
0.312217
0.30879
0.305019
0.301785
0.298697
0.297349
0.295299
0.290975
0.287211
0.284435
0.281538
0.278625
0.275384
0.271364
0.266014
0.258941
0.248594
0.241988
0.234684
0.220178
0.204533
0.18709
1.42318
5.35253
15.1502
34.8396
56.0266
70.2299
72.8214
73.2564
74.612
75.6739
76.4173
133.888
133.827
133.708
133.528
133.29
132.997
132.65
132.252
131.804
131.305
130.755
130.15
129.487
128.763
127.979
127.129
126.228
125.28
124.291
123.264
122.201
121.101
119.965
118.794
117.589
116.351
115.082
113.783
112.454
111.094
109.703
108.279
106.82
105.327
103.802
102.253
100.697
99.1832
97.7543
96.4034
95.0807
93.7325
92.317
90.8049
89.1879
87.4898
85.7636
84.0758
82.249
79.9508
77.1603
74.5567
72.6143
68.0852
45.3413
11.8832
0.365691
0.362348
0.351981
0.347244
0.344252
0.341834
0.335803
0.328999
0.323874
0.319578
0.315417
0.311408
0.307908
0.304027
0.300883
0.297176
0.294096
0.291285
0.288383
0.286096
0.283519
0.280435
0.277482
0.274107
0.26985