/*--------------------------------*- C++ -*----------------------------------*\
| =========                 |                                                 |
| \\      /  F ield         | OpenFOAM: The Open Source CFD Toolbox           |
|  \\    /   O peration     | Version:  2.4.0                                 |
|   \\  /    A nd           | Web:      www.OpenFOAM.org                      |
|    \\/     M anipulation  |                                                 |
\*---------------------------------------------------------------------------*/
FoamFile
{
    version     2.0;
    format      ascii;
    class       volScalarField;
    location    "0.016";
    object      p;
}
// * * * * * * * * * * * * * * * * * * * * * * * * * * * * * * * * * * * * * //

dimensions      [1 -1 -2 0 0 0 0];

internalField   nonuniform List<scalar> 
14400
(
95.387
97.0603
97.1558
97.2929
97.4512
97.5932
97.6612
97.5753
97.2384
96.544
95.3949
93.7317
91.5543
88.9326
86.0072
82.9691
80.0174
77.3188
74.9814
73.0482
71.5094
70.3215
69.4271
68.7677
68.2917
67.9565
67.7284
67.5815
67.4959
67.4562
92.127
93.8005
93.8961
94.0336
94.1926
94.3358
94.4058
94.323
93.9902
93.3012
92.1581
90.5005
88.3271
85.7059
82.7761
79.728
76.7612
74.0444
71.6873
69.7358
68.1813
66.9808
66.0766
65.4098
64.9283
64.5892
64.3585
64.2098
64.1231
64.0829
88.8668
90.5404
90.6361
90.7739
90.9338
91.0788
91.1519
91.0739
90.7482
90.0685
88.9363
87.2895
85.1246
82.5058
79.569
76.5025
73.5069
70.7534
68.3564
66.3662
64.7772
63.548
62.6209
61.9363
61.4415
61.0927
60.855
60.7018
60.6124
60.5709
85.6063
87.2799
87.3757
87.5139
87.6749
87.8221
87.8994
87.8281
87.5124
86.8462
85.7298
84.0991
81.9475
79.3339
76.3882
73.2957
70.2574
67.4486
64.99
62.939
61.2954
60.0199
59.0553
58.3414
57.8244
57.4592
57.2101
57.0493
56.9553
56.9116
82.3455
84.0192
84.115
84.2536
84.4158
84.5659
84.6484
84.5856
84.2828
83.6342
82.5386
80.9294
78.7961
76.1906
73.2348
70.1089
67.0142
64.1308
61.588
59.453
57.7331
56.3927
55.3752
54.6197
54.0711
53.6828
53.4173
53.2456
53.145
53.0981
79.0846
80.7582
80.854
80.993
81.1566
81.31
81.3987
81.3463
81.0591
80.4323
79.3624
77.78
75.6705
73.0768
70.1101
66.9438
63.7788
60.801
58.1502
55.906
54.0862
52.6607
51.5736
50.7634
50.1731
49.7543
49.4672
49.281
49.1716
49.1205
75.8234
77.4969
77.5925
77.732
77.8972
78.0544
78.1504
78.1101
77.8413
77.2402
76.201
74.651
72.5709
69.9932
67.0155
63.8025
60.5535
57.4608
54.6761
52.2951
50.3497
48.8168
47.6417
46.762
46.1192
45.6619
45.3475
45.1428
45.0223
44.9658
72.562
74.2353
74.3308
74.4706
74.6377
74.7991
74.9033
74.8768
74.6292
74.0578
73.0543
71.542
69.4974
66.9407
63.9531
60.6875
57.3412
54.1123
51.1657
48.6169
46.5167
44.8515
43.5677
42.6021
41.8947
41.3905
41.0425
40.8149
40.6802
40.6168
69.3003
70.9734
71.0687
71.2089
71.3779
71.5439
71.6574
71.6463
71.4223
70.8846
69.9219
68.4527
66.4499
63.9202
60.9248
57.6019
54.1451
50.7578
47.6189
44.867
42.578
40.7522
39.3364
38.2659
37.4807
36.9207
36.5324
36.2765
36.1241
36.052
66.0384
67.7111
67.8062
67.9467
68.1178
68.2889
68.4125
68.4184
68.2205
67.7205
66.8034
65.3827
63.4284
60.9329
57.933
54.5493
50.9693
47.4009
44.0366
41.0404
38.522
36.5031
34.9285
33.7307
32.8532
32.2288
31.7933
31.5025
31.3276
31.2449
62.7763
64.4487
64.5434
64.6842
64.8575
65.0341
65.1685
65.1929
65.0235
64.5651
63.6986
62.3313
60.4327
57.9796
54.9806
51.5337
47.8189
44.0466
40.4208
37.1315
34.3334
32.0829
30.3197
28.9678
27.9815
27.2857
26.7963
26.4621
26.2579
26.1623
59.514
61.1859
61.2801
61.4213
61.5968
61.7792
61.9253
61.9696
61.8307
61.4178
60.607
59.2978
57.4622
55.0614
52.0703
48.5597
44.6993
40.7013
36.7753
33.1343
29.9911
27.4622
25.4797
23.9404
22.8262
22.0546
21.5066
21.1183
20.8739
20.7633
56.2515
57.9227
58.0165
58.1579
58.3358
58.5242
58.6828
58.7482
58.6418
58.2782
57.5281
56.2813
54.5161
52.179
49.2052
45.6324
41.6174
37.3729
33.1074
29.0448
25.4661
22.5963
20.3706
18.6053
17.3375
16.4857
15.8805
15.4289
15.1267
14.9997
52.9888
54.6594
54.7525
54.8941
55.0745
55.2691
55.4409
55.5285
55.4563
55.1458
54.4617
53.2807
51.5934
49.3333
46.3888
42.7574
38.5805
34.0722
29.4298
24.864
20.7187
17.4082
14.9424
12.9212
11.4584
10.4926
9.85043
9.3472
8.96788
8.81804
49.7259
51.3957
51.4881
51.6298
51.8126
52.0137
52.1992
52.3103
52.2736
52.0199
51.4072
50.2944
48.6923
46.5243
43.6243
39.9406
35.5968
30.8113
25.7627
20.6055
15.6986
11.7451
9.11115
6.87328
5.14648
3.88833
3.29436
2.81747
2.39071
2.21951
46.4628
48.1317
48.2233
48.365
48.5503
48.758
48.9578
49.0932
49.0932
48.8999
48.3647
47.3209
45.8105
43.7523
40.9154
37.1887
32.6744
27.6037
22.1368
16.309
10.3627
5.28851
2.65933
0.515246
-1.49603
-3.71554
-4.05155
-4.12948
-4.78786
-4.84387
43.1995
44.8675
44.9582
45.0998
45.2876
45.5019
45.7165
45.8771
45.9144
45.7849
45.3341
44.358
42.9446
41.0165
38.2657
34.5089
29.8213
24.4629
18.5942
12.0611
4.7481
-2.51459
-4.84902
-6.09903
-8.46911
-1.46076
-0.194378
-0.0259833
-0.029724
-0.0140307
39.9361
41.603
41.6926
41.834
42.0242
42.2453
42.4749
42.6616
42.7365
42.674
42.3158
41.4035
40.0902
38.3154
35.6787
31.909
27.0448
21.3978
15.185
8.02144
-0.824256
-11.6786
-8.40237
-0.172547
-0.0320323
-0.0385142
-0.034407
-0.0302896
-0.0291172
-0.0256953
36.6725
38.3383
38.4265
38.5677
38.7603
38.9879
39.2331
39.4465
39.5587
39.5659
39.3108
38.4546
37.2417
35.6465
33.1579
29.3979
24.3513
18.4077
11.952
4.44057
-5.57934
-7.96605
-0.0752524
-0.0708345
-0.0505758
-0.0428492
-0.0398932
-0.0377933
-0.0364695
-0.0296461
33.4088
35.0733
35.1601
35.3008
35.4958
35.7299
35.9907
36.2317
36.3803
36.4591
36.3208
35.5083
34.3912
33.0058
30.7063
26.9864
21.7474
15.4746
8.90641
1.56354
-12.4066
-0.184566
-0.108201
-0.0616449
-0.0527029
-0.0487407
-0.046581
-0.0452409
-0.0441236
-0.0358874
30.1451
31.808
31.8933
32.0334
32.2305
32.471
32.7476
33.0168
33.2003
33.3514
33.3488
32.5608
31.5285
30.3874
28.3262
24.6865
19.2422
12.5589
5.92316
0.00627068
-10.6064
-0.182721
-0.127455
-0.0650205
-0.0569613
-0.0548931
-0.0534833
-0.0526563
-0.0525477
-0.0519973
26.8812
28.5425
28.626
28.7653
28.9646
29.211
29.5036
29.8017
30.018
30.2398
30.3995
29.608
28.6406
27.7842
26.019
22.5131
16.8531
9.61433
2.58151
-4.30996
-0.315483
-0.147436
-0.106711
-0.0707594
-0.0627353
-0.0607656
-0.05986
-0.0593781
-0.0553665
-0.0586455
23.6172
25.2769
25.3583
25.4966
25.698
25.95
26.2584
26.5863
26.8327
27.12
27.4802
26.6453
25.7097
25.1855
23.7834
20.4832
14.6122
6.64856
-1.5141
-22.4865
-0.141414
-0.110503
-0.0907476
-0.0733843
-0.0678311
-0.0662753
-0.0657805
-0.0656442
-0.0660122
-0.0655676
20.3532
22.0109
22.0901
22.2273
22.4306
22.6877
23.0118
23.3704
23.6437
23.9858
24.602
23.6673
22.7122
22.5763
21.615
18.6116
12.5556
3.48139
-7.22025
-1.81881
-0.10093
-0.0818157
-0.0798402
-0.0741082
-0.0718616
-0.0713602
-0.0713618
-0.0715325
-0.0716257
-0.0715911
17.0891
18.7448
18.8214
18.9572
19.1624
19.424
19.7636
20.1539
20.4511
20.8278
21.7814
20.6672
19.6163
19.9365
19.5071
16.9015
10.9891
-0.394458
4.07526
0.0812049
-0.0229147
-0.0583987
-0.0709868
-0.0742621
-0.0753617
-0.0761949
-0.0768763
-0.0772984
-0.0774993
-0.077631
13.825
15.4785
15.5524
15.6866
15.8935
16.1589
16.5134
16.9367
17.2554
17.6327
19.043
17.6367
16.3783
17.2416
17.4644
15.3921
9.78469
-2.01528
-14.2356
0.104742
-0.00661514
-0.0451142
-0.066854
-0.0754742
-0.0791236
-0.0811402
-0.0823991
-0.0831543
-0.0835926
-0.083884
10.5609
12.212
12.2828
12.4151
12.6236
12.8921
13.2609
13.7185
14.0586
14.3803
16.4214
14.5642
12.9401
14.4819
15.5131
13.8346
8.69818
2.72986
-0.856545
0.0475084
-0.0152014
-0.04706
-0.0684733
-0.078784
-0.0837754
-0.0865598
-0.0882995
-0.0894181
-0.0901241
-0.0905681
7.2968
8.9453
9.01278
9.1429
9.35295
9.62365
10.0059
10.499
10.8648
11.0424
13.9642
11.4357
9.22542
11.6627
13.5391
12.4456
7.96738
8.34843
-0.511095
-0.0253171
-0.0389329
-0.0575372
-0.0747734
-0.0844115
-0.0896277
-0.0927102
-0.0947338
-0.0961177
-0.0970575
-0.0976705
4.03275
5.67845
5.74227
5.86994
6.08146
6.35337
6.74782
7.27728
7.6817
7.57871
11.733
8.24166
5.13329
8.60453
11.3835
11.2502
7.18963
0.00805178
-0.146456
-0.0829753
-0.0644344
-0.0728069
-0.0843312
-0.0920749
-0.0967503
-0.0997098
-0.101724
-0.103151
-0.104186
-0.104913
0.775384
2.41155
2.4714
2.59632
2.80929
3.08117
3.48595
4.05109
4.52171
3.93436
9.81591
4.99573
0.467014
5.29669
9.52114
10.15
6.52227
-12.571
-0.0595429
-0.108254
-0.0880194
-0.0891374
-0.095802
-0.101315
-0.10504
-0.107561
-0.109304
-0.110553
-0.111497
-0.112203
67.4508
67.4766
67.5425
67.6621
67.8528
68.1373
68.5456
69.1156
69.8949
70.9392
72.3084
74.0555
76.2097
78.7567
81.6203
84.6597
87.685
90.4923
92.9086
94.8253
96.2083
97.0923
97.5644
97.735
97.7095
97.5777
97.4076
97.2458
97.1201
97.044
64.0774
64.1035
64.1702
64.2911
64.484
64.7718
65.1847
65.761
66.5488
67.6043
68.9877
70.7519
72.9254
75.4918
78.3723
81.4245
84.4571
87.2663
89.68
91.5916
92.9686
93.8466
94.3139
94.4809
94.453
94.3196
94.1486
93.9863
93.8603
93.7842
60.5652
60.592
60.6607
60.7852
60.9837
61.2798
61.7041
62.2957
63.1037
64.1849
65.5999
67.401
69.6146
72.2201
75.1341
78.2104
81.2558
84.0669
86.4746
88.3759
89.7416
90.609
91.0678
91.2289
91.1971
91.0614
90.8892
90.7263
90.6002
90.524
56.9055
56.9335
57.0056
57.1362
57.3441
57.6539
58.0972
58.7143
59.5554
60.6783
62.1439
64.0034
66.2792
68.9444
71.9085
75.0199
78.0827
80.8952
83.2928
85.1786
86.5275
87.3795
87.8263
87.9791
87.942
87.8033
87.6296
87.466
87.3397
87.2635
53.0915
53.1213
53.1982
53.3374
53.5589
53.8881
54.3585
55.0118
55.8998
57.0814
58.6178
60.5584
62.9198
65.6662
68.6973
71.8543
74.939
77.7517
80.1348
81.9995
83.3263
84.1581
84.5893
84.7315
84.6877
84.5452
84.3696
84.2053
84.0789
84.0027
49.1132
49.1454
49.2287
49.3795
49.6188
49.9739
50.4798
51.1808
52.1304
53.3891
55.0183
57.0646
59.5368
62.3866
65.5018
68.7152
71.8255
74.6367
77.0005
78.8384
80.1377
80.9445
81.3565
81.4858
81.4341
81.287
81.1093
80.9442
80.8177
80.7416
44.9575
44.9929
45.0844
45.2499
45.5119
45.8995
46.4503
47.2115
48.2393
49.5952
51.3413
53.5206
56.1309
59.1078
62.3245
65.6044
68.7435
71.5508
73.8898
75.6953
76.9615
77.7386
78.1279
78.2422
78.1811
78.0288
77.8487
77.6827
77.5561
77.4802
40.6073
40.6467
40.7487
40.9328
41.2229
41.6502
42.2558
43.0913
44.2156
45.6914
47.5816
49.9246
52.7033
55.8324
59.1683
62.5243
65.6944
68.4944
70.8028
72.5698
73.7976
74.5401
74.9033
75.0004
74.9287
74.7706
74.5877
74.4208
74.2943
74.2185
36.0411
36.0855
36.2007
36.408
36.7324
37.2069
37.8778
38.8034
40.0454
41.6665
43.7321
46.2745
49.2553
52.5635
56.0362
59.4774
62.6797
65.4679
67.739
69.4616
70.6456
71.3486
71.6824
71.7604
71.6768
71.5122
71.3263
71.1585
71.0321
70.9564
31.2323
31.2828
31.4145
31.6511
32.017
32.5461
33.2929
34.3269
35.711
37.5064
39.7843
42.5685
45.7896
49.3051
52.9324
56.4669
59.7012
62.4718
64.6983
66.3703
67.5051
68.1639
68.4651
68.5219
68.4253
68.2537
68.0646
67.8957
67.7695
67.6941
26.1482
26.2058
26.3576
26.6327
27.0487
27.6379
28.4707
29.6348
31.1896
33.1916
35.7275
38.8054
42.3104
46.0622
49.8615
53.4962
56.7608
59.5065
61.6801
63.2954
64.376
64.9854
65.2509
65.2849
65.1743
64.995
64.8025
64.6326
64.5066
64.4314
20.7504
20.8145
20.9894
21.3178
21.7933
22.4442
23.3723
24.6937
26.4511
28.6952
31.5479
34.9851
38.8233
42.8412
46.8287
50.5692
53.8604
56.572
58.6835
60.2365
61.2577
61.8128
62.0397
62.0492
61.9234
61.736
61.5399
61.369
61.2433
61.1684
14.995
15.0619
15.2617
15.6644
16.2067
16.9136
17.9507
19.4638
21.4534
23.9765
27.23
31.1112
35.3368
39.6496
43.8397
47.6902
51.0022
53.6683
55.7078
57.1928
58.1499
58.6454
58.8309
58.8145
58.6726
58.4767
58.2769
58.1049
57.9797
57.9051
8.82225
8.89153
9.13231
9.61328
10.2106
10.969
12.1602
13.9023
16.1268
18.9708
22.7577
27.1939
31.8631
36.4963
40.9013
44.8637
48.188
50.795
52.7515
54.1638
55.0521
55.4826
55.6244
55.5809
55.422
55.2171
55.0134
54.8405
54.7157
54.6415
2.20156
2.274
2.5945
3.0699
3.62315
4.48279
5.9908
7.96743
10.3264
13.5707
18.1225
23.2542
28.4187
33.3908
38.0204
42.0946
45.4199
47.9513
49.8128
51.1486
51.964
52.3237
52.4197
52.3479
52.1712
51.957
51.7494
51.5755
51.4514
51.3775
-4.81147
-4.80313
-4.40584
-4.07857
-3.88011
-2.74545
-0.439379
1.60445
3.68313
7.61088
13.3425
19.3326
25.0244
30.343
35.2046
39.3883
42.6997
45.1358
46.8894
48.1466
48.8852
49.1679
49.2163
49.1155
48.9202
48.6965
48.4849
48.31
48.1867
48.1132
-0.00515528
-0.0177762
-0.0375221
-0.0131496
-0.486946
-4.87242
-8.57814
-4.83677
-4.72456
0.948206
8.50331
15.4961
21.7041
27.3619
32.4617
36.7504
40.0289
42.346
43.9782
45.1572
45.8156
46.0141
46.0139
45.8834
45.6689
45.4355
45.2199
45.0441
44.9217
44.8485
-0.0258745
-0.0290205
-0.0296353
-0.031049
-0.0367562
-0.0336977
-0.0768371
-2.52238
-14.7973
-5.98783
3.82766
11.8441
18.4789
24.4538
29.8003
34.1871
37.4085
39.5787
41.0753
42.1799
42.7548
42.8611
42.8119
42.6515
42.4171
42.1738
41.9543
41.7777
41.6563
41.5835
-0.0296034
-0.0321627
-0.0371127
-0.0384641
-0.0405818
-0.0438575
-0.0609793
-0.0169669
-0.470588
-11.6299
-0.268993
8.50512
15.3563
21.6204
27.2298
31.7048
34.8392
36.8293
38.1758
39.2146
39.703
39.7076
39.6101
39.4195
39.1646
38.9115
38.6881
38.5107
38.3906
38.3181
-0.0383639
-0.0436889
-0.0447403
-0.045675
-0.0470511
-0.0494631
-0.0552111
-0.0665666
-0.131192
-10.2517
-3.41384
5.60006
12.3106
18.8573
24.7621
29.3107
32.3203
34.0911
35.2734
36.2618
36.6603
36.5519
36.4081
36.1873
35.9114
35.6485
35.4213
35.2433
35.1246
35.0524
-0.0496398
-0.0502904
-0.0524275
-0.0529893
-0.0539265
-0.0554209
-0.0584121
-0.0857586
-0.168372
-0.137027
-12.0145
3.16209
9.25117
16.155
22.4133
27.0119
29.85
31.3555
32.36
33.3226
33.6271
33.3919
33.2055
32.9547
32.6572
32.3847
32.1538
31.9753
31.8583
31.7862
-0.0584876
-0.0515477
-0.0594777
-0.0598106
-0.0603989
-0.0616146
-0.0649702
-0.0828728
-0.129251
-0.148733
-12.7949
0.742995
6.01776
13.5065
20.2072
24.8155
27.4254
28.6113
29.4251
30.3998
30.6041
30.2248
30.0022
29.7215
29.4018
29.12
28.8856
28.7067
28.5916
28.5196
-0.0655866
-0.0644137
-0.0661565
-0.0660711
-0.0665134
-0.0674386
-0.0702866
-0.0791506
-0.100088
-0.122229
-0.18442
-8.62202
2.55203
10.9081
18.1779
22.7279
25.0404
25.843
26.4555
27.4978
27.5925
27.0477
26.7982
26.4876
26.1451
25.8545
25.6168
25.4376
25.3247
25.2526
-0.0717188
-0.0719532
-0.0722258
-0.0720966
-0.0723164
-0.0726725
-0.0740234
-0.0773824
-0.0854047
-0.0773184
-0.0539623
-19.4876
-1.02951
8.3048
16.3588
20.7535
22.6848
23.03
23.4339
24.6235
24.5935
23.8563
23.5937
23.2528
22.8868
22.5879
22.3472
22.1679
22.0574
21.9852
-0.0778082
-0.0780082
-0.0781534
-0.0781359
-0.0779393
-0.0775713
-0.0770438
-0.0755874
-0.0689763
0.00160852
0.185702
-9.47699
-4.99841
6.21692
14.7672
18.8961
20.3434
20.1458
20.3373
21.7873
21.6093
20.6456
20.3893
20.017
19.6267
19.3204
19.0769
18.8976
18.7899
18.7173
-0.0841142
-0.0842801
-0.0843274
-0.084163
-0.0836703
-0.0826346
-0.0805355
-0.075584
-0.0610276
-0.0284335
0.0513925
-0.263884
-21.3311
5.49038
13.4626
17.1709
18.0049
17.1541
17.1355
19.0046
18.6427
17.4089
17.1863
16.7801
16.3646
16.0518
15.8058
15.6267
15.5221
15.449
-0.0908502
-0.0909974
-0.0909486
-0.0905961
-0.0898131
-0.0883193
-0.0853567
-0.0789514
-0.0638886
-0.0331846
-0.0119792
-0.0399039
-9.73551
5.81673
12.0007
15.5267
15.6994
14.0121
13.7877
16.2963
15.6977
14.1373
13.9864
13.5419
13.1001
12.7821
12.5339
12.3552
12.2541
12.1802
-0.0980218
-0.0981391
-0.0979915
-0.097505
-0.0965651
-0.0949099
-0.0918284
-0.0856674
-0.0733469
-0.0516864
-0.0397006
-0.0617599
13.6361
5.85983
10.9279
13.8927
13.3931
10.6803
10.2401
13.6893
12.7813
10.8178
10.7922
10.3024
9.8328
9.51128
9.26118
9.08296
8.98583
8.91089
-0.105332
-0.105449
-0.105285
-0.104833
-0.103992
-0.102521
-0.0998944
-0.0950218
-0.086516
-0.075479
-0.0734086
-0.140513
-1.50923
4.12125
9.96553
12.3699
10.8242
7.06593
6.42496
11.214
9.90399
7.4298
7.60734
7.06155
6.56242
6.23937
5.98764
5.81012
5.71744
5.64111
-0.112657
-0.112862
-0.112846
-0.112621
-0.112108
-0.11111
-0.1093
-0.106153
-0.101383
-0.0977558
-0.112192
-0.202871
-2.17906
3.57335
9.01995
11.1224
8.27881
2.99829
2.22988
8.90117
7.08247
3.94003
4.43538
3.81866
3.28823
2.96641
2.71339
2.53673
2.44901
2.37004
-0.101623
-0.0556994
-0.0229216
0.0318783
0.125272
0.273184
0.621365
1.22052
1.79878
0.539718
8.50691
2.1172
-4.20601
2.37536
7.55999
9.0884
5.22186
4.98691
-0.0828832
-0.1147
-0.104432
-0.103036
-0.106522
-0.110134
-0.112863
-0.114784
-0.116098
-0.117037
-0.117752
-0.118313
-0.102735
-0.0992057
-0.0974957
-0.0953689
-0.0918119
-0.0856078
-0.0707263
-0.0886998
0.221982
-1.5688
7.9259
0.44562
-7.29581
0.473273
6.53546
8.60334
3.97276
9.88333
-0.0868617
-0.110645
-0.112305
-0.110575
-0.112642
-0.115331
-0.117478
-0.118934
-0.119909
-0.120604
-0.121117
-0.121535
-0.104588
-0.101032
-0.0993153
-0.0971799
-0.0936128
-0.0874244
-0.0750437
-0.0361346
0.135625
-2.89985
7.50987
-1.34725
-10.8816
-1.74887
5.0386
8.02953
2.45671
-0.449047
-0.141819
-0.121968
-0.120465
-0.118384
-0.119318
-0.121275
-0.122825
-0.123799
-0.124452
-0.12492
-0.125258
-0.125569
-0.106523
-0.103008
-0.101286
-0.0991429
-0.095571
-0.0894006
-0.0769056
-0.0370873
0.0681676
-0.29701
6.44049
-3.20675
-15.2511
-4.16859
3.62032
7.29863
1.9085
-3.83755
-0.181984
-0.134152
-0.128891
-0.126538
-0.126697
-0.127961
-0.128901
-0.129431
-0.129775
-0.130031
-0.130258
-0.130535
-0.108631
-0.105147
-0.103423
-0.101275
-0.097713
-0.0915854
-0.0791203
-0.0424348
-0.0254906
-0.492842
1.58601
-3.85889
-19.2093
-7.00792
1.59778
6.63956
4.91056
-0.282169
-0.196224
-0.137488
-0.137674
-0.13538
-0.134916
-0.135392
-0.135745
-0.135874
-0.135917
-0.135986
-0.13615
-0.136436
-0.110923
-0.107459
-0.105737
-0.103583
-0.100038
-0.093981
-0.0817096
-0.0491309
-0.0443326
-0.388989
-0.428481
0.207298
-20.5014
-10.6749
-0.798851
5.58253
10.7419
-1.31437
-0.181572
-0.136993
-0.147687
-0.145402
-0.144105
-0.143657
-0.14342
-0.143157
-0.142915
-0.142822
-0.14293
-0.14322
-0.113409
-0.109961
-0.108244
-0.106089
-0.102575
-0.0966186
-0.0847067
-0.0565995
-0.0621549
-0.331111
-0.285813
-0.355769
-14.0772
-12.4837
-4.11497
4.43321
10.6557
-0.363878
-0.170047
-0.145414
-0.158692
-0.157045
-0.154465
-0.152937
-0.152022
-0.151329
-0.150812
-0.150558
-0.150588
-0.150853
-0.116113
-0.112668
-0.11096
-0.108807
-0.105335
-0.0995147
-0.0881508
-0.0646087
-0.0792829
-0.345278
-0.342919
-0.256205
-11.4045
-12.8639
-9.4181
3.25275
-6.64916
-0.177248
-0.171874
-0.170179
-0.174116
-0.170676
-0.166233
-0.163404
-0.16163
-0.160416
-0.159599
-0.159166
-0.159088
-0.159302
-0.119052
-0.115599
-0.113903
-0.111761
-0.108353
-0.102721
-0.0920904
-0.0731369
-0.0960373
-0.332763
-0.359507
-0.316529
-1.60999
-11.9607
-14.1035
1.15176
-24.3176
-0.0548416
-0.194008
-0.211104
-0.197473
-0.186759
-0.179666
-0.175173
-0.172287
-0.170415
-0.169233
-0.168588
-0.168379
-0.168526
-0.122246
-0.118771
-0.117094
-0.114968
-0.111644
-0.106261
-0.0965627
-0.082123
-0.111924
-0.327251
-0.373031
-0.332109
-0.62475
-16.0812
-16.2625
-1.64882
13.4663
-0.296217
-0.252687
-0.243575
-0.223316
-0.205418
-0.194933
-0.188235
-0.183951
-0.181255
-0.179616
-0.178714
-0.178359
-0.178434
-0.125715
-0.122206
-0.120552
-0.118454
-0.115239
-0.110165
-0.101583
-0.0915519
-0.126428
-0.324755
-0.382688
-0.320064
-0.495541
-10.1863
-16.6327
-5.10712
-5.39363
-0.629288
-0.390542
-0.29357
-0.253428
-0.227399
-0.211944
-0.202402
-0.19645
-0.192774
-0.190581
-0.189378
-0.188865
-0.18887
-0.129485
-0.125926
-0.1243
-0.122241
-0.11916
-0.114466
-0.107167
-0.101334
-0.139221
-0.321045
-0.384356
-0.32264
-0.415749
-15.2913
-16.4929
-3.72163
-0.22932
-0.970375
-0.565066
-0.382899
-0.293873
-0.252081
-0.229996
-0.217187
-0.209402
-0.204657
-0.20185
-0.200315
-0.199639
-0.199582
-0.13358
-0.129953
-0.128362
-0.126357
-0.123441
-0.119193
-0.113305
-0.111397
-0.150511
-0.312782
-0.375009
-0.321548
-0.418226
-2.18433
-17.8187
-2.4723
-0.759722
-1.30116
-0.780124
-0.472757
-0.333709
-0.276103
-0.247667
-0.231692
-0.222164
-0.216399
-0.212998
-0.211139
-0.210311
-0.210202
-0.138029
-0.134315
-0.132767
-0.13083
-0.128111
-0.124384
-0.119991
-0.121609
-0.160637
-0.297241
-0.354116
-0.316777
-0.426989
-0.6667
-10.0353
1.61209
-0.643573
-1.51712
-0.918455
-0.517112
-0.361782
-0.29555
-0.262902
-0.24466
-0.233859
-0.22732
-0.223461
-0.221349
-0.220405
-0.220263
-0.142859
-0.139039
-0.137541
-0.135691
-0.133202
-0.130056
-0.12719
-0.13183
-0.169553
-0.274808
-0.325613
-0.307047
-0.449871
-0.00426494
4.88804
9.12667
-0.460631
-1.36449
-0.850185
-0.502438
-0.369234
-0.30641
-0.273423
-0.254659
-0.243453
-0.236622
-0.232573
-0.230353
-0.229368
-0.229226
-0.148103
-0.144156
-0.142718
-0.140971
-0.138743
-0.136233
-0.134866
-0.141929
-0.177322
-0.255832
-0.300246
-0.295844
-0.380029
0.39524
14.8406
3.85165
-0.508775
-0.704902
-0.670823
-0.459893
-0.357949
-0.306897
-0.277804
-0.26059
-0.250058
-0.243576
-0.239703
-0.237581
-0.236659
-0.236561
-0.153796
-0.149701
-0.14833
-0.146706
-0.144768
-0.142919
-0.142962
-0.151799
-0.184175
-0.243959
-0.280995
-0.279696
-0.30627
-0.139014
0.121469
-0.680881
-0.102181
-0.496683
-0.489892
-0.398868
-0.334815
-0.298538
-0.276194
-0.262156
-0.253304
-0.247763
-0.244432
-0.242623
-0.241878
-0.241874
-0.159976
-0.155709
-0.154416
-0.152932
-0.151307
-0.150128
-0.15143
-0.16139
-0.190292
-0.236495
-0.265842
-0.263209
-0.25074
-0.11396
-0.0176291
-0.278825
-0.20039
-0.345733
-0.363883
-0.338503
-0.306859
-0.284696
-0.26988
-0.259917
-0.253373
-0.2492
-0.24669
-0.245366
-0.244892
-0.245019
-0.16668
-0.16222
-0.161013
-0.159687
-0.158392
-0.157865
-0.160223
-0.170677
-0.195853
-0.23151
-0.253535
-0.248582
-0.220994
-0.138236
-0.0916069
-0.168144
-0.176925
-0.260525
-0.291026
-0.290875
-0.280156
-0.269421
-0.261157
-0.255169
-0.25106
-0.248402
-0.246832
-0.246074
-0.245917
-0.24619
-0.173953
-0.169275
-0.168163
-0.167008
-0.166053
-0.166133
-0.169307
-0.179705
-0.201122
-0.22825
-0.24386
-0.237296
-0.209233
-0.159215
-0.136018
-0.163154
-0.18512
-0.226009
-0.251391
-0.259322
-0.2588
-0.255576
-0.252225
-0.249489
-0.247515
-0.246246
-0.245565
-0.245352
-0.245501
-0.245909
-0.18184
-0.17692
-0.175912
-0.174938
-0.174317
-0.174932
-0.178659
-0.188546
-0.206304
-0.226529
-0.23694
-0.229948
-0.20695
-0.176467
-0.163555
-0.174872
-0.192584
-0.214668
-0.23196
-0.240903
-0.244346
-0.245104
-0.24485
-0.244364
-0.243965
-0.243768
-0.243793
-0.244023
-0.24442
-0.244932
-0.190392
-0.185205
-0.184308
-0.183519
-0.183213
-0.184268
-0.188285
-0.197318
-0.21166
-0.226366
-0.232879
-0.226424
-0.209425
-0.190646
-0.182842
-0.188151
-0.199632
-0.212959
-0.22435
-0.231911
-0.2363
-0.238713
-0.240049
-0.240853
-0.241424
-0.241919
-0.242415
-0.242942
-0.243499
-0.244067
-0.199662
-0.194183
-0.193402
-0.192796
-0.192769
-0.194147
-0.198205
-0.20615
-0.217424
-0.22784
-0.231641
-0.226261
-0.214438
-0.202806
-0.197918
-0.200586
-0.207616
-0.215979
-0.223571
-0.229386
-0.233469
-0.236252
-0.238162
-0.239528
-0.240567
-0.241418
-0.242159
-0.242833
-0.243456
-0.244029
-0.209707
-0.203909
-0.203246
-0.202812
-0.203018
-0.204592
-0.208475
-0.215212
-0.223831
-0.231004
-0.233061
-0.228906
-0.221022
-0.213836
-0.210783
-0.212218
-0.216498
-0.221826
-0.226951
-0.231258
-0.234627
-0.237178
-0.2391
-0.240576
-0.241744
-0.242699
-0.243505
-0.244202
-0.244817
-0.245359
-0.22059
-0.214447
-0.2139
-0.21362
-0.213995
-0.215635
-0.219164
-0.224679
-0.231071
-0.235874
-0.236889
-0.233875
-0.228791
-0.224418
-0.222579
-0.223432
-0.226098
-0.229555
-0.233052
-0.23618
-0.238794
-0.240904
-0.24259
-0.243942
-0.245038
-0.245938
-0.246692
-0.247338
-0.247899
-0.248382
-0.232379
-0.225861
-0.225426
-0.225272
-0.225747
-0.227326
-0.230371
-0.234715
-0.239298
-0.24242
-0.24286
-0.240789
-0.237622
-0.235035
-0.234009
-0.234607
-0.236351
-0.238656
-0.241071
-0.24332
-0.245284
-0.24694
-0.248312
-0.249439
-0.250367
-0.251137
-0.251788
-0.252344
-0.252818
-0.253215
-0.245147
-0.238223
-0.237893
-0.237833
-0.238334
-0.239736
-0.242211
-0.245467
-0.248628
-0.250585
-0.250734
-0.249384
-0.247495
-0.246046
-0.245564
-0.246069
-0.247288
-0.248883
-0.250578
-0.252198
-0.253652
-0.254909
-0.255971
-0.256859
-0.257602
-0.258228
-0.258756
-0.259199
-0.259567
-0.259867
-0.258975
-0.25161
-0.251377
-0.251375
-0.251826
-0.252953
-0.254807
-0.25708
-0.259135
-0.260297
-0.260311
-0.259484
-0.258434
-0.257714
-0.257599
-0.258082
-0.259001
-0.260154
-0.261376
-0.262552
-0.263621
-0.264556
-0.265358
-0.26604
-0.266614
-0.267096
-0.267493
-0.267817
-0.268078
-0.268286
-0.27395
-0.266106
-0.265962
-0.265983
-0.266317
-0.267089
-0.268296
-0.269685
-0.270872
-0.271485
-0.271445
-0.270989
-0.270493
-0.270249
-0.270386
-0.27088
-0.271627
-0.272505
-0.273411
-0.274278
-0.275065
-0.275759
-0.276356
-0.276862
-0.277281
-0.277623
-0.277897
-0.278113
-0.278282
-0.278413
-0.290166
-0.281805
-0.281743
-0.281759
-0.281918
-0.28227
-0.282799
-0.283387
-0.283862
-0.284084
-0.284033
-0.283842
-0.283747
-0.283839
-0.284167
-0.284695
-0.285351
-0.286059
-0.286759
-0.28741
-0.287992
-0.288494
-0.288917
-0.289263
-0.28954
-0.289757
-0.289923
-0.290047
-0.290138
-0.290202
-0.118764
-0.119134
-0.119401
-0.119524
-0.11945
-0.119056
-0.118155
-0.116553
-0.114399
-0.114674
-0.132555
-0.229707
-1.26469
6.25752
8.11398
9.71371
5.98726
-0.80361
-1.90549
7.03023
4.67973
0.767427
1.67625
0.975173
0.431438
0.218699
0.0917639
0.0150339
-0.0336659
-0.0702217
-0.121961
-0.122454
-0.122963
-0.123377
-0.123632
-0.123671
-0.123364
-0.122602
-0.121732
-0.123387
-0.139019
-0.234809
-0.632686
4.98331
7.62446
9.12193
4.49906
-3.30425
-4.62391
5.99946
3.28345
-1.16485
0.125315
-0.0228392
-0.0445972
-0.0617785
-0.0739871
-0.0829909
-0.09035
-0.0981218
-0.125976
-0.126556
-0.12726
-0.127954
-0.128548
-0.12902
-0.129308
-0.129336
-0.129616
-0.132229
-0.144676
-0.23281
-0.272246
-5.45576
7.42732
8.12426
2.78503
-6.18503
-7.748
4.94066
1.77393
-0.972341
0.057413
-0.0167093
-0.0464526
-0.0635888
-0.0757942
-0.0848119
-0.0921743
-0.0998641
-0.130946
-0.131556
-0.132363
-0.133281
-0.134218
-0.135128
-0.135983
-0.136781
-0.138056
-0.141283
-0.151547
-0.210563
-0.103264
-20.8092
7.39033
7.23392
0.736182
-9.43665
-11.6415
3.89495
0.723567
-0.257111
0.0692921
-0.0185915
-0.0484204
-0.0655711
-0.0777614
-0.0867893
-0.0941504
-0.101714
-0.136862
-0.137478
-0.138327
-0.139405
-0.140662
-0.142011
-0.143413
-0.144972
-0.14719
-0.150776
-0.159139
-0.184851
0.0175161
-19.6678
7.47505
6.27817
-1.57264
-13.3824
-14.7376
2.06629
-0.180068
0.0546758
0.0581606
-0.0210604
-0.0506398
-0.0677601
-0.0799103
-0.0889379
-0.0962928
-0.103717
-0.143661
-0.144287
-0.145175
-0.146381
-0.147914
-0.149694
-0.151656
-0.153991
-0.157177
-0.16137
-0.168908
-0.172408
-0.0339275
9.33557
7.10584
5.04967
-4.65025
-15.52
-11.4915
0.295857
-0.267432
0.00112483
0.0440514
-0.0241279
-0.0531202
-0.0701523
-0.0822466
-0.0912689
-0.0986127
-0.105898
-0.151301
-0.151957
-0.152912
-0.154253
-0.156039
-0.15824
-0.160827
-0.16403
-0.168249
-0.173221
-0.178426
-0.172557
-0.0334468
9.50201
5.30465
3.49088
-8.25455
-17.3665
-4.2024
-0.0776704
0.0745214
-0.021184
0.0288801
-0.0278174
-0.0558919
-0.0727832
-0.0847973
-0.0938012
-0.101128
-0.108273
-0.159749
-0.16045
-0.161504
-0.163008
-0.165058
-0.167709
-0.171036
-0.175308
-0.18083
-0.186561
-0.192816
-0.183682
-0.09868
0.943463
2.23579
1.69025
-10.2976
-16.0934
-0.652103
-0.080189
-0.353081
-0.0456871
0.0132544
-0.0321584
-0.0589885
-0.0756633
-0.0875771
-0.0965518
-0.103853
-0.110859
-0.168966
-0.169721
-0.170895
-0.172594
-0.174951
-0.178129
-0.182353
-0.188001
-0.195502
-0.204045
-0.218151
-0.207694
-0.171417
0.0111209
1.542
-2.10084
-12.1863
-21.1515
-0.312049
-0.089385
-0.34297
-0.0688236
-0.00199813
-0.0371801
-0.0624759
-0.0788409
-0.0906164
-0.0995427
-0.10681
-0.113676
-0.178866
-0.179677
-0.180983
-0.182907
-0.185636
-0.189447
-0.19475
-0.202139
-0.212519
-0.226555
-0.246754
-0.258844
-0.316766
-1.6229
2.31275
-6.96064
-11.4654
-6.11933
-0.224878
-0.101533
-0.335829
-0.0880879
-0.0165095
-0.0429013
-0.0664004
-0.0823368
-0.0939352
-0.102795
-0.110017
-0.116742
-0.189296
-0.190163
-0.191606
-0.193784
-0.19695
-0.201505
-0.208063
-0.217568
-0.231681
-0.253878
-0.290691
-0.368029
-0.53949
-0.79147
-21.8599
-10.5945
-6.66423
-1.69262
-0.175102
-0.114431
-0.329735
-0.103871
-0.0303251
-0.0493378
-0.0707982
-0.0861883
-0.0975651
-0.106333
-0.113497
-0.120081
-0.200006
-0.200926
-0.202508
-0.204958
-0.208606
-0.213974
-0.221896
-0.233772
-0.25231
-0.284024
-0.3494
-0.492731
-0.824847
-0.620155
-22.2858
-10.8028
-1.17731
-0.0823802
-0.155901
-0.126805
-0.319052
-0.115662
-0.043653
-0.0564866
-0.0757168
-0.0904293
-0.101534
-0.110183
-0.117273
-0.123715
-0.21063
-0.211601
-0.213315
-0.216032
-0.220153
-0.226312
-0.235548
-0.249727
-0.27268
-0.313736
-0.40165
-0.617438
-1.13319
-0.991067
-1.79438
-11.2002
-2.69027
-0.113055
-0.144639
-0.13755
-0.299156
-0.123449
-0.0567189
-0.0643354
-0.0811898
-0.0951
-0.105875
-0.114374
-0.121372
-0.127668
-0.220701
-0.221718
-0.223542
-0.226479
-0.230986
-0.237772
-0.248029
-0.263954
-0.29009
-0.337493
-0.439655
-0.680441
-1.36922
-1.1804
-0.30321
-3.47083
0.480007
-0.13263
-0.139417
-0.145295
-0.266967
-0.127905
-0.0695943
-0.0728498
-0.0872662
-0.100246
-0.110626
-0.118939
-0.125824
-0.13197
-0.229682
-0.23073
-0.232617
-0.235673
-0.240378
-0.247463
-0.258161
-0.274719
-0.301635
-0.349217
-0.442496
-0.664363
-1.28435
-1.11537
-0.977841
19.4483
5.49194
-0.0960988
-0.133837
-0.15204
-0.229262
-0.130871
-0.0821834
-0.0819834
-0.0939666
-0.105903
-0.115823
-0.123911
-0.130659
-0.13665
-0.237045
-0.238103
-0.239983
-0.24301
-0.247645
-0.254578
-0.264936
-0.280689
-0.305614
-0.347207
-0.422638
-0.582872
-0.823412
-0.553657
-0.794745
25.0902
10.5843
-0.176004
-0.143694
-0.158863
-0.20022
-0.134238
-0.0944429
-0.0916735
-0.101319
-0.112117
-0.121506
-0.129327
-0.135911
-0.14174
-0.242392
-0.243431
-0.245224
-0.248061
-0.252344
-0.258655
-0.267909
-0.281612
-0.302399
-0.334621
-0.388263
-0.481929
-0.561963
-0.351346
-0.095638
-0.244671
-0.114189
-0.198265
-0.157969
-0.165073
-0.183669
-0.138585
-0.106385
-0.101864
-0.109325
-0.118924
-0.127721
-0.135229
-0.14162
-0.147274
-0.245572
-0.246565
-0.248197
-0.250704
-0.254398
-0.259719
-0.267315
-0.278161
-0.293691
-0.316007
-0.349149
-0.391147
-0.41247
-0.358875
-0.15398
-0.235865
-0.154924
-0.195143
-0.169711
-0.170705
-0.176014
-0.14399
-0.118076
-0.1125