/*--------------------------------*- C++ -*----------------------------------*\
| =========                 |                                                 |
| \\      /  F ield         | OpenFOAM: The Open Source CFD Toolbox           |
|  \\    /   O peration     | Version:  2.4.0                                 |
|   \\  /    A nd           | Web:      www.OpenFOAM.org                      |
|    \\/     M anipulation  |                                                 |
\*---------------------------------------------------------------------------*/
FoamFile
{
    version     2.0;
    format      ascii;
    class       volScalarField;
    location    "0.073";
    object      alpha.water;
}
// * * * * * * * * * * * * * * * * * * * * * * * * * * * * * * * * * * * * * //

dimensions      [0 0 0 0 0 0 0];

internalField   nonuniform List<scalar> 
57600
(
1
1
1
1
1
1
1
1
1
1
1
1
1
1
1
1
1
1
1
1
1
1
1
1
1
1
1
1
1
1
1
1
1
1
1
1
1
1
1
1
1
1
1
1
1
1
1
1
1
1
1
1
1
1
1
1
1
1
1
1
1
1
1
1
1
1
1
1
1
1
1
1
1
1
1
1
1
1
1
1
1
1
1
1
1
1
1
1
1
1
1
1
1
1
1
1
1
1
1
1
1
1
1
1
1
1
1
1
1
1
1
1
1
1
1
1
1
1
1
1
1
1
1
1
1
1
1
1
1
1
1
1
1
1
1
1
1
1
1
1
1
1
1
1
1
1
1
1
1
1
1
1
1
1
1
1
1
1
1
1
1
1
1
1
1
1
1
1
1
1
1
1
1
1
1
1
1
1
1
1
1
1
1
1
1
1
1
1
1
1
1
1
1
1
1
1
1
1
1
1
1
1
1
1
1
1
1
1
1
1
1
1
1
1
1
1
1
1
1
1
1
1
1
1
1
1
1
1
1
1
1
1
1
1
1
1
1
1
1
1
1
1
1
1
1
1
1
1
1
1
1
1
1
1
1
1
1
1
1
1
1
1
1
1
1
1
1
1
1
1
1
1
1
1
1
1
1
1
1
1
1
1
1
1
1
1
1
1
1
1
1
1
1
1
1
1
1
1
1
1
1
1
1
1
1
1
1
1
1
1
1
1
1
1
1
1
1
1
1
1
1
1
1
1
1
1
1
1
1
1
1
1
1
1
1
1
1
1
1
1
1
1
1
1
1
1
1
1
1
1
1
1
1
1
1
1
1
1
1
0.99993
1
1
1
1
1
1
1
1
1
1
1
1
1
1
1
1
1
1
1
1
1
1
1
1
1
1
1
1
1
1
1
1
1
1
1
1
1
1
1
1
1
1
1
1
1
1
1
1
1
1
1
1
1
1
1
1
1
1
1
1
1
1
1
1
1
1
1
1
1
1
1
1
1
1
1
1
1
1
1
1
1
1
1
1
1
1
1
1
1
1
1
1
1
1
1
1
1
1
1
1
1
1
1
1
1
1
1
1
1
1
1
1
1
1
1
1
1
1
1
1
1
1
1
1
1
1
1
1
1
1
1
1
1
1
1
1
1
1
1
1
1
1
1
1
1
1
1
1
1
1
1
1
1
1
1
1
1
1
1
1
1
1
1
1
1
1
1
1
1
1
1
1
1
1
1
1
1
1
1
1
1
1
1
1
1
1
1
1
1
1
1
1
1
1
1
1
1
1
1
1
1
1
1
1
1
1
1
1
1
1
1
1
1
1
1
1
1
1
1
1
1
1
1
1
1
1
1
0.998575
1
1
1
1
1
1
1
1
1
1
1
1
1
1
1
1
1
1
1
1
1
1
1
1
1
1
1
1
1
0.999633
1
1
1
1
1
1
1
1
1
1
1
1
1
1
1
1
1
1
1
1
1
1
1
1
1
1
1
1
1
1
0.999695
1
1
1
0.999993
1
1
1
1
1
1
1
1
1
1
1
1
1
1
1
1
1
1
1
1
1
1
1
0.999999
0.999957
0.999943
0.999146
1
1
1
1
1
1
1
1
1
1
1
1
1
1
1
1
1
1
1
1
1
1
1
1
1
0.240831
2.76083e-05
5.33933e-05
0.00580562
0.999998
1
0.999999
1
0.997655
1
1
1
1
1
1
1
1
1
1
1
1
1
1
1
1
0.999941
1
1
1
0.993996
5.0277e-05
2.3621e-08
9.58193e-09
0.000111271
0.00107366
1
0.999997
1
0.999096
1
1
1
1
1
1
1
1
1
1
1
1
1
1
1
1
0.999998
1
1
0.999999
0.00130581
7.78977e-08
2.57713e-09
3.75754e-09
-2.86013e-10
1.52064e-06
0.773395
1
1
1
1
1
1
1
1
1
1
1
1
1
1
1
1
1
0.99999
0.999987
1
0.999995
0.999364
0.368522
-5.73292e-08
1.66193e-09
1.98874e-09
3.15976e-09
3.6165e-09
3.95637e-09
7.08178e-06
1
1
1
1
1
1
1
1
1
1
1
1
1
1
1
1
1
0.999981
0.999997
0.999966
0.907224
4.36353e-07
4.38915e-05
1.31363e-05
1.14387e-09
3.16738e-09
4.66211e-09
3.45039e-08
3.7701e-09
8.18979e-09
0.00027205
1
1
1
1
1
1
1
1
1
1
1
1
1
1
1
0.999988
0.999987
0.999698
1.02638e-06
-3.04013e-07
2.21904e-05
9.07789e-05
1.38617e-10
1.43732e-09
3.61437e-07
2.20868e-07
5.93749e-09
6.69844e-08
5.62448e-09
1.34807e-07
0.000940267
0.0285072
0.366731
0.786499
0.927115
0.973564
0.945879
0.911772
1
1
1
1
1
1
1
0.999999
0.999996
0.000565245
1.05668e-06
2.23508e-06
0.000110168
1.02842e-05
0.000188832
8.54608e-10
2.2942e-09
4.49935e-09
9.04606e-09
6.38594e-09
6.59657e-08
2.00845e-08
3.81407e-07
1.39853e-05
3.55477e-05
5.70403e-05
7.25159e-05
4.35424e-05
5.2719e-05
3.20978e-05
1
1
1
1
1
1
1
1
1
1
1
1
1
1
1
1
1
1
1
1
1
1
1
1
1
1
1
1
1
1
1
1
1
1
1
1
1
1
1
1
1
1
1
1
1
1
1
1
1
1
1
1
1
1
1
1
1
1
1
1
1
1
1
1
1
1
1
1
1
1
1
1
1
1
1
1
1
1
1
1
1
1
1
1
1
1
1
1
1
1
1
1
1
1
1
1
1
1
1
1
1
1
1
1
1
1
1
1
1
1
1
1
1
1
1
1
1
1
1
1
1
1
1
1
1
1
1
1
1
1
1
1
1
1
1
1
1
1
1
1
1
1
1
1
1
1
1
1
1
1
1
1
1
1
1
1
1
1
1
1
1
1
1
1
1
1
1
1
1
1
1
1
1
1
1
1
1
1
1
1
1
1
1
1
1
1
1
1
1
1
1
1
1
1
1
1
1
1
1
1
1
1
1
1
1
1
1
1
1
1
1
1
1
1
1
1
1
1
1
1
1
1
1
1
1
1
1
1
1
1
1
1
1
1
1
1
1
1
1
1
1
1
1
1
1
1
1
1
1
1
1
1
1
1
1
1
1
1
1
1
1
1
1
1
1
1
1
1
1
1
1
1
1
1
1
1
1
1
1
1
1
1
1
1
1
1
1
1
1
1
1
1
1
1
1
1
1
1
1
1
0.999516
0.999321
1
1
1
1
1
1
1
1
1
1
1
1
1
1
1
1
1
1
1
1
1
1
1
1
1
1
1
1
0.999982
0.999996
1
1
1
1
1
1
1
1
1
1
1
1
1
1
1
1
1
1
1
1
1
1
1
1
1
1
1
1
1
0.999966
0.999908
1
1
1
1
1
1
1
1
1
1
1
1
1
1
1
1
1
1
1
1
1
1
1
1
1
1
1
1
0.999999
1
1
1
1
1
1
1
1
1
1
1
1
1
1
1
1
1
1
1
1
1
1
1
1
1
1
1
1
1
1
0.999999
1
1
1
1
1
1
1
1
1
1
1
1
1
1
1
1
1
1
1
1
1
1
1
1
1
1
1
0.999999
1
1
1
1
1
1
1
1
1
1
1
1
1
1
1
1
1
1
1
1
1
1
1
1
1
1
1
1
1
0.999999
0.980899
1
1
1
1
1
1
1
1
1
1
1
1
1
1
1
1
1
1
1
1
1
1
1
1
1
1
1
1
0.999998
0.985026
1
1
1
1
1
1
1
1
1
1
1
1
1
1
1
1
1
1
1
1
1
1
1
1
1
1
1
1
0.999999
1
1
1
1
1
1
1
0.999997
1
1
1
1
1
1
0.999997
0.999996
1
1
1
1
1
1
1
1
1
1
1
1
1
1
1
1
1
1
1
1
0.999998
1
1
1
1
1
1
1
1
0.999998
1
1
1
1
1
1
1
1
1
1
1
1
1
1
1
1
1
1
1
1
0.999996
0.999976
1
1
1
1
1
1
1
0.999998
1
1
1
1
1
1
1
1
1
1
1
1
1
1
1
1
1
1
1
1
0.997431
1
1
0.999999
1
0.999734
0.99682
1
1
1
1
1
1
1
1
1
1
1
1
1
1
1
1
1
1
1
1
1
1
0.999998
0.999999
1
0.999999
0.999993
0.99999
0.951317
0.891368
0.999765
1
1
1
1
1
1
1
1
1
1
1
1
1
1
1
1
1
1
1
1
1
0.999068
0.999667
0.999908
1
1
0.0170401
4.3312e-05
2.45166e-05
0.00272739
0.999996
1
1
1
1
1
1
1
1
1
1
1
1
1
1
1
1
1
1
1
1
0.999988
1
1
1
0.163414
1.74367e-07
3.40346e-08
1.75804e-08
7.58786e-06
0.563474
1
1
1
1
1
1
1
1
1
1
1
1
1
1
1
1
1
1
1
1
1
1
1
0.816676
1.3937e-05
2.89904e-09
2.7594e-09
3.56828e-09
3.728e-08
8.86892e-05
0.999988
1
1
0.999954
1
0.999997
1
1
1
1
1
1
1
1
1
1
1
1
1
1
1
1
1
1.25787e-05
2.49194e-08
2.53993e-09
2.11429e-09
1.4954e-09
2.08246e-09
0.000373879
-1.45288e-06
0.998948
0.999968
1
0.999991
0.999997
1
1
1
1
1
1
1
1
1
1
1
1
1
1
1
1
0.000169955
-3.23693e-10
3.11595e-09
2.83089e-09
3.55452e-08
1.54327e-09
2.79928e-10
0.000515743
1.66894e-05
4.16147e-07
0.207421
0.999985
0.999993
1
0.999895
1
1
1
1
1
1
1
0.865574
0.904026
0.930933
0.979255
0.946186
0.72228
0.115546
0.000115271
1.44843e-07
5.68373e-09
1.55666e-08
7.99745e-07
5.02617e-09
1.87013e-09
2.27821e-10
0.000325502
2.55827e-07
1.49532e-07
2.08564e-07
0.385019
0.999967
0.999968
0.999999
1
1
1
1
1
1
1
1.27888e-05
5.18688e-05
1.76795e-05
0.000109059
8.42365e-05
7.34961e-05
1.07452e-05
1.16129e-07
6.26086e-09
2.01868e-08
1.69414e-07
6.65795e-09
4.24081e-09
1.41889e-09
1.64472e-10
5.62796e-05
2.66733e-07
1.69055e-07
1.59445e-06
-4.39729e-09
0.000680241
0.999994
0.999997
1
1
1
1
1
1
1
0.450469
1
1
1
1
1
1
0.999998
0.992541
6.67595e-06
4.86459e-07
2.50884e-08
9.85824e-08
0.000349492
1.31449e-08
6.27492e-10
3.02189e-09
5.34618e-09
7.57776e-09
1.2687e-07
6.69146e-09
5.77211e-09
4.51111e-09
4.64243e-08
5.65626e-08
5.16735e-08
3.78353e-08
2.45033e-08
2.0589e-08
1.8632e-08
2.2017e-11
0.118525
1
1
1
1
0.999606
0.999997
0.73235
0.000113495
5.27251e-07
2.29957e-07
4.24475e-09
0.000264333
9.89829e-05
6.61806e-10
4.47791e-09
6.93723e-09
8.29043e-09
3.9329e-06
2.11186e-08
6.22727e-09
4.8078e-09
6.13026e-09
7.71211e-09
7.98035e-09
7.70833e-09
8.52371e-09
9.87995e-09
1.09931e-08
4.4356e-11
-4.12465e-09
0.174344
1
1
1
0.998819
0.999999
0.0960356
0.000461583
2.17859e-05
3.60647e-09
4.37984e-08
0.000303212
7.39312e-08
4.49127e-10
3.36239e-09
1.44451e-06
6.08259e-09
3.92806e-06
9.03232e-09
6.00346e-09
4.87089e-09
5.74903e-09
7.10533e-09
7.2295e-09
6.61847e-09
6.64894e-09
8.48433e-09
9.07737e-09
8.81305e-12
2.01915e-07
0.0038153
0.922785
0.997279
1
0.999874
0.999997
0.000416809
2.09469e-05
4.84316e-05
1.10466e-08
1.85633e-05
7.77801e-05
9.87946e-05
2.64249e-10
2.78485e-09
5.4199e-06
6.00943e-09
6.99239e-09
2.18533e-06
5.844e-09
5.33092e-09
5.84895e-09
6.61763e-09
6.64974e-09
6.03209e-09
6.13763e-09
8.27058e-09
8.17328e-09
9.36353e-13
3.15802e-10
6.7964e-07
0.249114
0.999943
1
0.999046
0.999996
3.11893e-05
1.54859e-05
6.14968e-06
2.8607e-09
9.41289e-05
1.58686e-05
9.90107e-05
1.51871e-10
1.84424e-09
6.87967e-07
5.1493e-07
5.26535e-09
7.96208e-09
5.6178e-07
5.6916e-09
5.84646e-09
6.23724e-09
6.23348e-09
5.74025e-09
6.0054e-09
8.28384e-09
7.64219e-09
4.77751e-12
2.13544e-06
0.000131809
8.16843e-05
0.876909
0.999787
0.999125
0.959763
1.07772e-05
7.71984e-07
1.20623e-05
1.39821e-09
2.38638e-06
0.000247148
3.9297e-05
7.77638e-11
1.09147e-09
3.18667e-09
5.20447e-07
2.11821e-06
4.31067e-09
2.31985e-08
5.97232e-09
5.7957e-09
6.02842e-09
5.94422e-09
5.52295e-09
6.06251e-09
8.25671e-09
7.26981e-09
3.65454e-12
7.43752e-07
0.000165328
6.57837e-05
0.14689
0.999998
1
0.1241
0.000164262
6.60383e-07
7.47466e-06
4.2538e-10
3.46343e-06
0.000449451
0.000137925
3.2902e-11
4.94942e-10
2.78416e-09
6.10185e-09
1.19927e-05
3.58488e-09
6.45645e-09
4.71625e-08
2.92643e-08
6.27728e-09
5.69826e-09
5.32607e-09
6.32482e-09
8.56863e-09
6.99362e-09
1.06391e-12
6.93907e-06
0.000220775
0.00014291
0.00014357
1
0.872426
9.58382e-05
1.58464e-05
1.00519e-08
2.31366e-09
1.50892e-10
4.69833e-06
0.000216497
1.42847e-06
1.30307e-11
2.50077e-10
2.39721e-09
5.28209e-09
6.3116e-09
1.92615e-08
4.35752e-09
1.05976e-07
1.24814e-08
6.07393e-09
5.39884e-09
5.22786e-09
6.75566e-09
8.05207e-09
6.80237e-09
1.20517e-12
3.68356e-08
3.95576e-05
0.00023325
5.31052e-06
0.958946
0.00435585
0.000284273
0.000568776
6.66934e-10
2.61613e-10
1.42918e-10
1.09138e-05
0.00042543
2.90934e-06
4.44451e-12
1.07299e-10
1.34284e-09
5.00186e-07
5.54292e-09
7.42999e-09
6.89888e-09
6.54158e-09
8.91292e-09
5.88145e-09
5.12627e-09
5.50129e-09
7.22671e-09
1.42633e-08
6.752e-09
1.66103e-13
2.68254e-06
0.000238631
5.98023e-06
1.18888e-05
3.30601e-06
5.53048e-06
0.000291268
0.000569009
5.71079e-10
3.94245e-10
1.42918e-10
2.85753e-05
1.0214e-05
4.83076e-12
1.14535e-12
3.46801e-11
5.75677e-10
2.36065e-09
3.12316e-06
5.71011e-09
5.70881e-09
6.05706e-09
5.6786e-09
5.39034e-09
2.60787e-07
5.91486e-09
4.10271e-08
7.86429e-09
7.00245e-09
1.89261e-14
1.94305e-10
0.000343993
9.75727e-05
1.26361e-07
1.69513e-08
1.03819e-06
4.89198e-06
2.41426e-06
6.80399e-08
4.00174e-10
5.61867e-10
0.00053496
1.03182e-05
1.38231e-13
2.00028e-13
7.78816e-12
1.78256e-10
1.75063e-09
8.3267e-07
3.11089e-06
6.00796e-09
6.17014e-09
3.0819e-07
1.44812e-07
1.27644e-08
1.45265e-08
8.06047e-09
8.08939e-09
7.19444e-09
2.92324e-15
8.80666e-11
0.000257553
1.99258e-05
0.00021912
1.64707e-08
2.94401e-07
2.85488e-06
2.24422e-06
5.20859e-10
2.16819e-10
1.82215e-05
8.34358e-05
1.84605e-05
1.77204e-13
2.12327e-14
1.08973e-12
3.40223e-11
4.58035e-10
2.20699e-09
3.67325e-09
5.61977e-07
2.08254e-07
1.38719e-06
3.69377e-06
2.16193e-06
7.10896e-09
1.99507e-08
2.01022e-08
9.74246e-09
5.26366e-16
3.81853e-11
2.41579e-07
5.43758e-09
8.39651e-05
1.33152e-08
1.38495e-09
2.3724e-07
2.52222e-06
2.24942e-07
1.04321e-10
1.10489e-05
6.92747e-10
2.20124e-10
1.72771e-13
2.18685e-13
1.65378e-13
3.61389e-12
7.11822e-11
5.60994e-10
1.8664e-09
3.14507e-09
1.49998e-07
1.2028e-08
7.92931e-09
5.62928e-09
7.03011e-09
2.14437e-06
1.71991e-06
1.83466e-06
3.5822e-17
8.04255e-12
1.64176e-09
3.89497e-09
6.03932e-05
3.41817e-10
1.11802e-09
3.20222e-09
5.74873e-05
3.00741e-10
6.07636e-11
2.2597e-05
5.55032e-10
1.88982e-10
5.96613e-11
8.00637e-11
1.91669e-11
1.25293e-12
5.17828e-12
6.61031e-11
3.69755e-10
1.04875e-09
1.88102e-09
2.46356e-09
2.88866e-09
3.37749e-09
4.20107e-09
8.97065e-09
6.00207e-09
5.00437e-09
9.15333e-19
7.80791e-13
5.33955e-10
2.95043e-06
3.07479e-09
2.03716e-10
2.03908e-10
2.00158e-10
5.0615e-06
4.93564e-10
4.70087e-11
3.77393e-05
5.63736e-10
3.15319e-05
4.37193e-06
5.2108e-10
9.74735e-10
5.80306e-11
2.64021e-12
2.83555e-12
2.50282e-11
1.07789e-10
2.65727e-10
4.46476e-10
6.02883e-10
7.50744e-10
9.61854e-10
1.30942e-09
1.3811e-09
1.16812e-09
1.18887e-20
2.16687e-14
4.81543e-11
1.04236e-10
2.02984e-10
8.406e-11
8.78375e-11
1.40703e-10
9.79844e-06
8.95388e-11
5.04959e-11
6.90854e-06
3.64454e-09
0.000140892
5.28665e-07
7.2565e-05
1.88857e-09
1.6662e-08
1.01738e-10
5.38251e-12
5.68201e-13
3.04332e-12
1.00346e-11
2.09986e-11
3.2511e-11
4.30876e-11
5.40008e-11
6.56416e-11
6.94384e-11
5.92122e-11
1.50245e-22
2.13423e-16
1.90962e-12
2.75342e-11
9.35196e-11
2.30631e-11
2.3548e-11
3.6476e-11
7.98237e-11
1.20634e-11
7.54147e-11
0.000105094
3.59217e-08
0.000160298
3.83333e-09
7.73255e-09
0.000110622
1.58039e-09
8.70021e-09
1.48671e-10
1.05942e-11
1.70089e-13
8.53909e-14
2.07976e-13
3.58782e-13
4.97447e-13
6.1183e-13
6.94311e-13
7.02293e-13
5.88053e-13
1.71304e-24
1.57542e-18
2.92356e-14
2.48249e-12
1.25562e-11
3.27028e-12
3.62268e-12
5.08504e-12
3.63147e-12
2.10808e-11
1.32799e-10
0.000255757
2.80016e-06
5.2582e-06
2.28026e-09
3.78055e-08
6.64449e-06
2.85834e-05
0.000220058
7.4314e-10
2.0291e-10
1.10485e-11
1.77225e-13
2.78839e-15
6.60589e-16
8.74649e-16
1.03572e-15
1.09444e-15
1.0284e-15
8.28219e-16
8.74527e-27
1.2843e-20
3.25501e-16
1.05713e-13
2.62987e-13
2.23278e-13
3.13606e-13
3.78503e-13
1.68347e-13
5.02117e-11
3.05299e-10
6.0059e-05
1.13604e-07
1.54785e-09
1.24433e-09
9.80941e-10
6.92177e-10
9.6496e-08
5.68008e-10
6.96286e-10
4.28968e-10
8.31566e-11
4.3287e-12
1.40813e-13
4.65599e-15
1.66056e-16
6.79896e-18
4.62584e-19
1.43282e-19
9.51263e-20
1.71953e-29
5.14389e-23
2.52957e-18
9.74301e-16
1.90692e-15
7.38873e-15
1.48587e-14
1.50327e-14
1.16411e-12
6.7199e-11
5.0537e-05
0.000182302
1.90715e-08
1.95396e-09
6.62755e-07
9.71144e-09
7.4149e-10
3.12967e-10
2.84202e-10
2.59256e-10
1.70082e-10
6.0594e-11
9.64465e-12
8.35988e-13
4.99715e-14
2.32267e-15
9.53844e-17
3.9163e-18
1.78625e-19
9.78085e-21
1.57023e-32
7.66927e-26
6.82508e-21
2.32558e-18
1.0992e-17
1.29915e-16
3.52587e-16
3.43622e-16
1.4136e-11
4.76553e-11
0.000521879
5.76994e-08
1.68351e-06
1.73073e-06
1.37658e-07
3.70638e-05
4.79306e-05
1.01033e-09
1.07052e-10
6.75998e-11
3.51009e-11
1.19403e-11
2.63062e-12
3.54129e-13
2.93252e-14
1.61775e-15
6.69545e-17
2.39331e-18
8.48367e-20
3.32511e-21
7.87044e-36
5.15293e-29
6.1051e-24
2.50133e-21
4.30882e-20
1.04074e-18
4.00144e-18
6.09851e-16
8.24448e-11
0.000319873
0.000521644
1.88414e-06
4.17824e-07
4.4382e-08
2.94766e-09
1.62673e-07
6.96107e-09
5.03979e-05
1.87942e-10
5.29413e-11
1.55489e-11
5.20419e-12
9.90238e-13
1.1787e-13
8.84281e-15
4.32814e-16
1.49807e-17
4.13804e-19
1.04355e-20
2.70987e-22
1.96497e-39
1.91307e-32
2.46153e-27
1.60293e-24
7.87874e-23
3.29692e-21
2.12334e-20
2.97259e-14
1.88353e-10
0.000256089
2.45441e-06
4.4156e-06
3.75143e-07
9.12888e-05
3.32438e-09
4.91193e-08
6.59754e-09
3.19173e-08
3.38135e-05
2.62328e-10
1.04834e-11
2.03763e-12
3.52385e-13
3.38824e-14
1.97221e-15
7.28751e-17
1.83842e-18
3.50775e-20
5.69192e-22
8.72686e-24
2.00795e-43
3.58397e-36
5.06128e-31
4.95599e-28
5.55759e-26
4.03436e-24
6.35846e-21
4.93224e-13
2.13051e-10
4.4585e-05
0.000954597
5.79175e-08
8.17694e-06
3.55112e-08
3.14625e-07
2.29833e-09
3.07807e-09
1.21121e-05
8.66182e-05
6.42657e-10
4.19695e-11
9.20674e-13
8.87449e-14
6.22055e-15
2.49394e-16
6.26332e-18
1.06097e-19
1.3031e-21
1.26889e-23
1.0908e-25
7.48086e-48
2.75321e-40
4.29179e-35
6.01139e-32
1.45885e-29
1.93631e-27
6.09229e-19
1.21279e-12
1.88081e-10
3.20445e-05
1.82943e-06
3.56269e-05
0.000158006
3.94731e-07
1.89761e-05
3.72147e-09
5.61777e-09
6.61317e-06
8.65265e-05
7.36346e-10
8.07014e-11
1.48338e-12
2.22323e-14
7.59368e-16
1.83797e-17
2.67442e-19
2.59886e-21
1.81046e-23
9.80734e-26
6.12571e-28
9.77399e-53
7.74121e-45
1.25063e-39
2.82375e-36
1.49016e-33
4.32317e-31
3.65084e-19
5.65004e-13
2.5677e-10
0.000222306
6.22859e-05
1.75709e-05
1.80913e-07
1.97205e-05
1.92731e-07
1.48317e-05
1.0271e-08
9.68413e-07
5.22075e-11
2.17401e-10
2.39699e-11
6.63045e-13
6.76891e-15
5.43408e-17
6.04627e-19
5.55754e-21
3.54705e-23
1.59055e-25
5.214e-28
1.31686e-30
4.71011e-58
7.86856e-50
1.24711e-44
5.80537e-41
7.8913e-38
2.87603e-34
2.92966e-21
9.09362e-15
4.91601e-11
0.000220765
5.81497e-07
3.57901e-08
5.28543e-09
4.16111e-06
7.24469e-06
9.21855e-10
8.04662e-08
2.83433e-11
1.51895e-11
3.54116e-12
2.91754e-13
1.01142e-14
1.21222e-16
5.33186e-19
1.30579e-21
3.31344e-24
8.25293e-27
1.44984e-29
1.55735e-32
9.35103e-36
1.10938e-63
3.39017e-55
6.34002e-50
8.54988e-46
4.67474e-42
9.69312e-35
7.62408e-25
4.95429e-18
4.37795e-13
1.39161e-10
2.00484e-09
2.44787e-07
4.14612e-06
2.80186e-10
1.73419e-10
9.91737e-11
2.81029e-11
2.46474e-12
4.6739e-14
4.74978e-16
3.48231e-18
2.132e-20
8.25439e-23
1.53541e-25
1.29823e-28
5.29182e-32
1.19637e-35
1.87183e-39
2.17218e-43
1.44288e-47
1.8025e-69
1.09974e-60
4.03414e-55
1.92599e-50
3.03051e-46
3.57161e-40
4.70755e-30
2.01409e-22
1.58287e-16
1.06312e-12
3.43117e-11
8.93157e-11
7.10828e-11
1.02528e-11
1.89079e-12
1.82827e-13
3.12897e-15
1.10581e-17
1.22052e-20
6.24041e-24
1.7657e-27
2.77734e-31
2.33044e-35
1.00108e-39
2.10193e-44
2.02656e-49
8.60223e-55
1.44618e-60
8.41579e-67
8.1581e-73
1.91909e-75
4.84602e-66
4.19174e-60
4.45962e-55
1.18795e-50
1.6319e-46
7.4174e-38
1.93794e-28
4.8953e-21
2.683e-16
6.46207e-14
3.9767e-13
1.80413e-13
1.76531e-14
3.06497e-16
5.14171e-19
9.2441e-23
3.12084e-27
3.17292e-32
1.38797e-37
3.2988e-43
4.73903e-49
4.15857e-55
2.13024e-61
5.86181e-68
7.64119e-75
4.39006e-82
9.65002e-90
6.41014e-98
1.64458e-106
1.39232e-08
2.3535e-08
1.88721e-08
1.17986e-07
1.54423e-07
1.6219e-07
5.42624e-08
4.56326e-09
4.68531e-09
1.731e-07
7.83599e-09
6.11528e-09
3.4888e-09
1.0706e-09
1.12011e-10
3.04473e-06
1.63623e-07
2.33755e-05
6.97562e-07
1.00909e-08
0.000122309
0.0386476
0.999992
1
1
1
1
1
1
1
1.0176e-08
9.36299e-09
8.5672e-09
8.58062e-09
8.60856e-09
7.56777e-09
5.35973e-09
4.08894e-09
1.67473e-08
7.81083e-08
7.3645e-09
5.68836e-09
3.14993e-09
8.88392e-10
8.10857e-11
4.51125e-06
1.11713e-07
0.000182606
0.000191605
2.23587e-06
2.26699e-05
7.95444e-05
0.999989
1
1
1
1
1
0.596018
-1.99194e-10
8.19924e-09
7.92593e-09
7.53783e-09
7.35961e-09
7.1798e-09
6.26871e-09
5.18472e-09
4.55602e-09
5.38641e-09
1.74647e-08
6.91265e-09
4.61717e-09
3.74142e-09
8.82737e-10
5.72878e-11
1.36623e-11
4.84306e-08
5.19859e-08
3.11931e-06
5.47709e-09
2.32312e-05
0.00012926
0.999997
0.999999
1
1
1
0.494902
8.89998e-09
7.0564e-10
7.25894e-09
7.07472e-09
6.73046e-09
6.58445e-09
6.53744e-09
5.97127e-09
4.96431e-09
4.68685e-09
7.2979e-09
6.85651e-09
6.71113e-09
9.25398e-06
3.59248e-09
6.88521e-10
3.82031e-11
3.45023e-12
4.84898e-08
1.58913e-07
5.86933e-05
2.14338e-09
6.29118e-05
9.28202e-06
0.994991
0.998199
1
1
0.986618
0.162032
3.93217e-09
1.99775e-10
6.82391e-09
6.70958e-09
6.37824e-09
6.20771e-09
6.23766e-09
1.8316e-08
4.81049e-09
4.71608e-09
7.16374e-09
6.48635e-09
2.42644e-06
3.61092e-06
2.99948e-09
4.40001e-10
2.24825e-11
1.02913e-06
1.78767e-05
3.8157e-06
5.648e-05
1.62032e-09
9.56052e-06
0.000280225
0.607378
0.998603
1
0.999569
0.718361
1.14583e-05
0.000340954
3.01794e-11
6.57141e-09
6.57387e-09
6.42934e-09
6.45182e-09
8.22329e-09
5.19401e-09
5.05573e-09
5.5246e-09
4.28256e-08
3.85185e-06
6.60741e-09
5.82276e-09
1.97677e-09
2.63029e-10
1.18313e-11
3.03e-10
4.36836e-05
7.66536e-05
6.72058e-06
5.67733e-08
1.47347e-07
1.48855e-07
0.03762
0.99944
0.999123
0.999999
0.00022168
0.00028331
5.8279e-05
1.14842e-10
6.37121e-09
6.50333e-09
6.74456e-09
7.5162e-09
1.34952e-06
5.64038e-09
3.01257e-07
4.9983e-08
7.9065e-09
6.65893e-09
7.4709e-07
3.92746e-09
1.23848e-09
1.39737e-10
5.46628e-12
8.68651e-11
0.000437771
0.000665441
9.08961e-05
2.95592e-09
1.62585e-08
2.59833e-06
0.000184948
0.999999
0.999999
0.776976
5.2061e-05
6.1262e-05
1.52167e-06
5.6362e-11
6.18351e-09
6.36261e-09
6.98672e-09
8.79307e-09
1.26574e-06
1.85533e-08
2.12118e-08
3.44674e-05
1.38756e-08
8.9403e-07
5.87636e-07
3.05016e-09
6.76182e-10
6.34391e-11
2.15427e-12
5.52696e-10
0.000337281
2.95139e-07
1.14042e-06
1.06214e-09
4.13356e-07
5.04711e-05
6.67157e-06
0.72227
0.999999
0.0727604
4.04543e-05
0.000299423
6.81805e-06
7.63585e-11
6.04979e-09
6.0857e-09
7.26781e-09
1.3804e-06
7.75872e-09
6.51897e-09
5.70431e-09
7.89789e-08
7.34548e-09
6.32289e-09
4.4491e-09
1.61382e-09
2.96716e-10
2.34069e-11
6.96367e-13
1.24887e-09
0.000776894
0.00019462
1.48695e-06
1.42234e-10
2.05688e-08
3.62211e-06
1.28203e-05
3.55238e-05
0.997583
2.02873e-05
0.000393368
9.37727e-05
9.4896e-05
2.10062e-11
6.12212e-09
6.11899e-09
6.33958e-09
7.51583e-09
2.14391e-08
1.51826e-08
5.51023e-09
0.000106468
1.51582e-08
4.85587e-09
2.5126e-09
7.05788e-10
1.01233e-10
6.73003e-12
1.921e-13
6.44775e-11
0.00169542
2.50445e-06
8.57695e-05
1.37739e-10
4.04377e-09
8.29243e-07
5.57391e-07
0.000102379
0.00143509
2.02995e-05
1.96482e-05
0.000256481
8.3954e-05
5.04149e-12
6.1582e-09
6.23235e-09
1.38121e-08
1.35893e-08
7.0408e-09
3.5048e-08
9.83273e-08
1.86815e-07
6.9493e-08
3.29008e-09
1.15437e-09
2.2857e-10
2.51225e-11
1.44059e-12
6.33009e-13
6.45569e-12
0.00164679
9.83637e-05
1.03975e-06
1.28965e-10
1.5643e-10
3.97495e-06
4.48464e-06
1.19897e-05
2.43054e-05
3.54007e-08
1.22253e-05
3.34701e-05
4.52968e-06
1.07763e-12
3.70906e-08
7.37781e-08
8.08557e-08
1.13225e-08
7.42526e-09
7.46832e-09
6.59658e-09
5.06609e-09
3.64807e-09
1.4941e-09
3.4571e-10
4.79647e-11
4.13964e-12
4.03999e-13
1.02721e-11
2.27926e-11
0.00201205
5.40568e-05
1.6718e-05
3.48455e-08
1.44587e-10
6.81007e-06
1.40543e-08
3.33495e-08
3.75222e-07
1.56611e-06
4.40284e-08
1.89651e-06
1.81745e-09
5.68978e-13
2.33607e-06
2.56e-06
2.4497e-06
2.51469e-06
9.11559e-07
5.22086e-09
4.72447e-09
3.13506e-09
1.40186e-09
3.63305e-10
5.60894e-11
5.69768e-12
4.59681e-13
2.04855e-12
6.40511e-11
2.65659e-10
0.000204034
2.69366e-05
3.32448e-05
0.000142175
3.23987e-10
3.46822e-06
4.19924e-05
5.17067e-05
3.24186e-08
1.25983e-06
2.63309e-10
1.82774e-06
2.99784e-09
2.72262e-14
4.38387e-09
4.44035e-09
9.01143e-09
3.33983e-09
2.64439e-09
2.25974e-09
1.45582e-09
6.88654e-10
2.07283e-10
3.68455e-11
4.13173e-12
3.57128e-13
6.40761e-13
1.14749e-11
1.60819e-10
2.13465e-10
0.000828186
1.58595e-06
1.18355e-06
4.6898e-05
6.43634e-09
0.000118022
4.7118e-10
1.38682e-06
4.58155e-09
1.07187e-10
2.96382e-11
5.31784e-06
1.04975e-10
1.05171e-15
1.09769e-09
1.13236e-09
1.12054e-09
7.60563e-10
4.79032e-10
2.83548e-10
1.37042e-10
4.64916e-11
9.99056e-12
1.32194e-12
1.4017e-13
4.58233e-13
4.99999e-12
4.02813e-11
2.20739e-10
3.03425e-06
0.00120757
8.92917e-07
0.000151561
1.94552e-05
5.63849e-10
0.000120344
2.2846e-10
1.03863e-08
7.51868e-09
1.0266e-10
1.5669e-11
5.29503e-10
6.15128e-12
3.53828e-17
5.45085e-11
5.15714e-11
4.33748e-11
2.90465e-11
1.69549e-11
8.4127e-12
3.16545e-12
8.11911e-13
1.33465e-13
4.0415e-14
5.16154e-13
5.01481e-12
2.91546e-11
1.13118e-10
2.28887e-10
6.67201e-06
0.0176692
6.59361e-08
0.000363921
8.97094e-05
2.01301e-10
0.00011113
1.54133e-10
3.55035e-10
7.45306e-11
3.64596e-11
2.3987e-12
5.11493e-11
1.84606e-13
5.48393e-19
5.17757e-13
4.53474e-13
3.45665e-13
2.16553e-13
1.13944e-13
4.77751e-14
1.45113e-14
3.55975e-15
1.98739e-14
4.53247e-13
5.53141e-12
3.39407e-11
1.219e-10
3.0853e-10
1.20275e-09
1.11863e-09
0.0178409
7.13194e-08
0.000353271
8.67979e-05
6.96846e-12
5.15389e-11
4.90804e-11
4.31468e-11
2.90888e-11
5.08046e-12
1.72871e-13
3.26769e-12
2.04296e-15
3.92173e-21
6.81939e-16
5.54058e-16
3.89969e-16
2.25716e-16
1.05979e-16
4.15755e-17
1.47916e-16
3.97138e-15
9.10179e-14
1.5416e-12
1.53613e-11
8.43308e-11
2.73162e-10
5.8729e-10
1.13375e-09
1.77352e-09
0.00204615
3.62326e-07
0.000130038
7.75471e-05
5.80138e-11
1.06224e-11
7.61662e-12
6.14555e-12
5.10175e-12
3.13162e-13
8.24741e-15
7.70086e-14
9.88809e-18
1.56495e-23
7.08626e-20
5.29254e-20
3.4228e-20
1.90319e-20
7.64326e-20
3.65057e-18
1.41015e-16
3.63728e-15
6.04739e-14
6.31054e-13
3.99907e-12
1.59103e-11
4.50617e-11
1.12119e-10
2.9227e-10
6.67768e-10
6.25026e-07
1.11417e-07
0.000114812
7.42658e-05
2.72585e-10
2.73516e-13
4.91182e-13
4.01441e-13
3.46658e-13
1.10012e-14
1.96673e-16
3.81556e-16
2.58817e-20
4.19395e-26
6.46484e-22
5.20465e-23
6.70838e-24
1.08159e-22
1.25416e-20
9.69303e-19
4.60358e-17
1.28308e-15
2.07606e-14
1.94693e-13
1.06711e-12
3.52258e-12
8.43257e-12
2.31714e-11
6.79165e-11
1.49904e-10
3.45561e-10
7.02937e-10
0.000479241
6.30716e-05
5.01647e-11
9.19206e-15
1.27461e-14
1.17748e-14
8.33143e-15
2.07654e-16
2.10152e-18
7.20878e-19
4.43069e-23
6.13981e-29
1.56776e-22
8.5435e-24
6.79081e-25
8.0699e-24
1.63181e-21
1.84929e-19
1.13199e-17
3.66566e-16
6.30774e-15
5.84313e-14
2.99736e-13
1.2873e-12
8.76903e-12
4.40312e-11
1.36749e-10
3.07128e-10
5.06911e-10
2.54552e-09
0.00147291
2.52686e-05
8.85897e-11
2.75926e-15
1.5827e-16
1.30664e-16
7.82394e-17
1.78011e-18
1.15505e-20
7.6115e-22
4.10734e-26
4.30875e-32
8.2271e-24
2.91816e-25
1.36914e-26
3.98722e-25
1.40709e-22
2.39498e-20
1.9686e-18
7.93934e-17
1.64082e-15
1.74527e-14
1.38015e-13
1.66764e-12
1.21559e-11
5.23018e-11
1.81165e-10
3.55752e-10
2.99453e-07
2.00479e-06
0.00066629
1.43381e-05
5.84854e-11
2.3828e-14
1.86854e-18
5.59985e-19
2.41537e-19
5.7301e-21
2.74911e-23
3.78574e-25
1.78835e-29
1.64597e-35
1.57421e-25
3.19072e-27
7.96914e-29
9.70147e-27
6.27493e-24
1.71834e-21
2.12012e-19
1.36484e-17
4.32935e-16
6.90421e-15
1.28359e-13
1.6509e-12
1.14029e-11
1.05654e-10
2.23439e-10
2.25952e-07
1.33076e-08
6.46712e-08
1.91063e-07
2.02656e-05
1.58135e-10
2.19629e-13
5.59689e-20
1.53929e-21
2.34074e-22
5.41691e-24
2.13414e-26
1.04534e-28
4.11423e-33
2.99404e-39
1.19047e-27
1.2498e-29
1.41562e-31
8.7801e-29
1.12055e-25
5.84558e-23
1.78268e-20
2.51349e-18
1.12602e-16
3.26915e-15
8.43387e-14
1.04307e-12
2.59063e-11
4.13914e-10
4.67166e-10
5.71622e-06
1.40009e-05
3.59198e-08
4.02345e-07
1.10199e-05
1.81897e-08
1.14194e-12
2.42811e-21
7.35869e-24
1.2427e-25
1.59421e-27
4.62905e-30
1.18438e-32
4.20937e-37
2.01755e-43
3.46095e-30
1.35816e-32
5.31269e-35
1.90551e-31
8.26877e-28
2.21375e-24
1.73321e-21
2.90257e-19
1.99804e-17
1.05863e-15
2.88251e-14
1.47527e-12
8.26429e-11
1.30612e-09
8.96974e-10
1.07846e-06
4.70415e-08
2.22259e-05
0.000794572
1.26121e-05
3.84585e-10
2.57237e-12
1.28598e-20
5.34299e-26
1.20162e-28
2.80056e-31
3.52943e-34
3.87811e-37
1.48357e-41
4.83394e-48
2.17524e-33
1.6893e-36
2.05398e-39
2.01331e-34
7.91012e-30
4.02649e-26
3.54817e-23
1.12877e-20
1.87363e-18
1.36254e-16
1.53526e-14
3.78634e-12
1.80151e-10
6.07565e-08
3.1948e-09
2.0009e-08
2.17417e-05
6.99858e-05
0.000103834
0.000353187
2.70903e-10
2.41377e-12
7.93456e-20
2.11002e-28
1.81339e-31
9.7575e-35
2.65337e-38
5.7717e-42
1.91574e-46
6.21533e-53
2.33386e-39
1.2641e-43
8.10849e-45
3.22536e-38
4.34652e-33
4.49215e-29
1.15522e-25
8.85869e-23
2.35873e-20
1.68159e-17
1.61902e-14
3.62364e-12
1.85974e-10
5.99094e-09
7.81521e-09
0.000315744
9.29393e-08
3.65932e-05
6.21667e-05
0.000418281
2.56651e-10
1.38938e-12
9.65015e-20
3.47885e-31
1.42796e-34
3.48683e-38
3.61735e-42
1.68613e-46
2.23118e-51
1.01119e-57
3.0504e-52
4.11585e-57
6.5599e-51
1.83417e-45
1.02553e-40
2.31015e-36
9.1912e-32
3.11148e-27
4.28864e-23
2.13547e-19
3.58785e-16
1.88917e-13
2.85459e-11
4.1806e-10
1.98059e-05
3.62031e-07
0.000339794
9.38693e-06
2.59141e-06
1.81413e-05
2.47528e-10
3.18402e-13
1.29975e-20
2.27882e-34
4.70343e-38
5.81416e-42
3.0701e-46
6.5205e-51
3.99827e-56
1.2314e-62
8.85436e-77
1.73467e-69
1.37464e-62
4.45783e-56
6.26426e-50
3.96088e-44
1.14162e-38
1.46984e-33
8.11683e-29
1.80218e-24
1.48938e-20
4.22208e-17
3.8114e-14
1.09687e-11
3.01464e-10
1.5628e-05
1.01527e-05
1.24216e-05
9.84112e-08
2.76166e-10
1.44709e-11
1.73279e-15
3.79157e-23
5.64737e-38
6.5086e-42
4.38317e-46
1.23784e-50
1.35844e-55
4.0544e-61
5.62799e-68
2.8842e-102
1.20026e-93
2.26997e-85
2.05999e-77
9.36567e-70
2.17671e-62
2.58097e-55
1.51431e-48
4.20119e-42
5.17678e-36
2.64663e-30
5.21082e-25
3.59776e-20
7.99264e-16
1.65405e-12
1.39588e-10
1.8906e-10
2.26265e-10
2.02945e-10
3.39689e-11
2.6664e-14
4.84776e-20
2.32263e-29
4.89912e-42
3.91019e-46
1.69968e-50
2.8839e-55
1.69423e-60
2.27206e-66
1.01598e-73
1
1
1
1
1
1
1
1
1
1
1
1
1
1
1
1
1
1
1
1
1
1
1
1
1
1
1
1
1
1
1
1
1
1
1
1
1
1
1
1
1
1
1
1
1
1
1
1
1
1
1
1
1
1
1
1
1
1
1
1
1
1
1
1
1
1
1
1
1
1
1
1
1
1
1
1
1
1
1
1
1
1
1
1
1
1
1
1
1
1
1
1
1
1
1
1
1
1
1
1
1
1
1
1
1
1
1
1
1
1
1
1
1
1
1
1
1
1
1
1
1
1
1
1
1
1
1
1
1
1
1
1
1
1
1
1
1
1
1
1
1
1
1
1
1
1
1
1
1
1
1
1
1
1
1
1
1
1
1
1
1
1
1
1
1
1
1
1
1
1
1
1
1
1
1
1
1
1
1
1
1
1
1
1
1
1
1
1
1
1
1
1
1
1
1
1
1
1
1
1
1
1
1
1
1
1
1
1
1
1
1
1
1
1
1
1
1
1
1
1
1
1
1
1
1
1
1
1
1
1
1
1
1
1
1
1
1
1
1
1
1
1
1
1
1
1
1
1
1
1
1
1
1
1
1
1
1
1
1
1
1
1
1
1
1
1
1
1
1
1
1
1
1
1
1
1
1
1
1
1
1
1
1
1
1
1
1
1
1
1
1
1
1
1
1
1
1
1
1
1
1
1
1
1
1
1
1
1
1
1
1
1
1
1
1
1
1
1
1
1
1
1
1
1
1
1
1
1
1
1
1
1
1
1
1
1
1
1
1
1
1
1
1
1
1
1
1
1
1
1
1
1
1
1
1
1
1
1
1
0.999783
1
1
1
1
1
1
1
1
1
1
1
1
1
1
1
1
1
1
1
1
1
1
1
1
1
1
1
1
1
0.999779
1
1
1
1
1
1
1
1
1
1
1
1
1
1
1
1
1
1
1
1
1
1
1
1
1
1
1
1
1
1
1
1
1
1
1
1
1
1
1
1
1
1
1
1
1
1
1
1
1
1
1
1
1
1
1
1
1
1
1
1
1
1
1
1
1
1
1
1
1
1
1
1
1
1
1
1
1
1
1
1
1
1
1
1
1
1
1
1
1
1
1
1
1
1
1
1
1
1
1
1
1
1
1
1
1
1
1
1
1
1
1
1
1
1
1
1
1
1
1
1
1
1
1
1
1
1
1
1
1
1
1
1
1
1
1
1
1
1
1
1
1
1
1
1
1
1
1
1
1
1
1
1
1
1
1
1
1
1
1
1
1
1
1
1
1
1
1
1
1
1
1
1
1
1
1
1
1
1
1
1
1
1
1
1
1
1
1
1
1
1
1
1
1
1
1
1
1
0.99986
1
1
1
1
1
1
1
1
1
1
1
1
1
1
1
1
1
1
1
1
1
1
1
1
1
1
1
1
1
0.998631
1
1
1
1
1
1
1
1
1
1
1
1
1
1
1
1
1
1
1
1
1
1
1
1
1
1
1
1
1
0.999313
1
1
1
1
0.999993
1
1
1
1
1
1
1
1
1
1
1
1
1
1
1
1
1
1
1
1
1
1
1
1
0.999958
0.999045
0.999999
1
1
1
1
1
1
1
1
1
1
1
1
1
1
1
1
1
1
1
1
1
1
1
1
1
0.211277
3.46611e-05
5.93965e-05
0.893973
0.999998
1
1
0.997088
0.999999
1
1
1
1
1
1
1
1
1
1
1
1
1
1
1
1
1
1
1
1
0.978173
2.82156e-06
5.18531e-07
6.30752e-08
0.00229175
0.978463
0.999999
0.999996
1
0.999368
1
1
1
1
1
1
1
1
1
1
1
1
1
1
0.999999
1
0.99996
1
1
1
0.000829236
9.63587e-08
3.12443e-09
3.90156e-09
1.12577e-06
0.00149914
0.999999
1
1
1
1
1
1
1
1
1
1
1
1
1
1
1
1
1
0.99996
0.999999
1
0.999994
0.99989
0.25169
1.65464e-07
2.13922e-09
2.10172e-09
3.39748e-09
4.77471e-09
6.42707e-09
0.0480903
1
1
1
1
1
1
1
1
1
1
1
1
1
1
1
1
1
0.999961
0.999987
0.999997
0.860403
4.24011e-07
3.3785e-05
4.15362e-07
1.41265e-09
3.19236e-09
4.32573e-09
4.11923e-09
3.80363e-09
2.19048e-07
0.509844
1
1
1
1
1
1
1
1
1
1
1
1
1
1
1
0.999987
0.999992
0.999463
0.706557
1.11907e-08
1.6267e-05
0.000370442
1.45847e-10
2.39157e-09
5.27397e-07
5.24669e-09
5.85121e-09
6.70273e-08
5.53905e-09
1.12218e-05
0.0108126
0.750341
0.992495
1
1
1
1
1
1
1
1
1
1
1
1
0.999953
0.999996
4.51376e-05
9.65831e-07
4.07392e-06
1.51992e-05
6.04548e-05
1.32934e-10
1.38367e-09
2.93694e-09
1.90819e-08
6.3719e-09
7.26762e-09
6.67361e-08
1.93121e-08
2.5413e-06
6.51005e-05
0.000158543