/*--------------------------------*- C++ -*----------------------------------*\
| =========                 |                                                 |
| \\      /  F ield         | OpenFOAM: The Open Source CFD Toolbox           |
|  \\    /   O peration     | Version:  2.4.0                                 |
|   \\  /    A nd           | Web:      www.OpenFOAM.org                      |
|    \\/     M anipulation  |                                                 |
\*---------------------------------------------------------------------------*/
FoamFile
{
    version     2.0;
    format      ascii;
    class       volScalarField;
    location    "0.293";
    object      p_rgh;
}
// * * * * * * * * * * * * * * * * * * * * * * * * * * * * * * * * * * * * * //

dimensions      [1 -1 -2 0 0 0 0];

internalField   nonuniform List<scalar> 
60000
(
133.494
133.447
133.355
133.217
133.032
132.801
132.525
132.203
131.836
131.426
130.971
130.473
129.933
129.352
128.729
128.067
127.367
126.629
125.854
125.045
124.202
123.327
122.422
121.487
120.526
119.539
118.53
117.499
116.45
115.385
114.304
113.213
112.112
111.006
109.897
108.789
107.683
106.584
105.494
104.416
103.354
102.31
101.288
100.289
99.316
98.3714
97.4566
96.5728
95.7208
94.9007
94.1125
93.3554
92.6282
91.9297
91.258
90.6111
89.9872
89.3842
88.8002
88.2334
87.6824
87.1459
86.623
86.1129
85.6154
85.1302
84.6575
84.1976
83.7509
83.318
82.8997
82.4968
82.1106
81.7425
81.394
81.0672
80.7646
80.4892
80.2444
80.0343
79.8619
79.7336
79.654
79.6283
79.6621
79.7605
79.9286
80.1711
80.4926
80.8966
81.3863
81.9637
82.6305
83.3871
84.2334
85.1683
86.1904
87.2977
88.4885
89.76
133.502
133.456
133.364
133.226
133.041
132.81
132.533
132.211
131.845
131.434
130.979
130.481
129.941
129.359
128.736
128.074
127.373
126.635
125.86
125.05
124.207
123.331
122.425
121.491
120.529
119.542
118.532
117.501
116.451
115.385
114.304
113.212
112.111
111.004
109.895
108.785
107.679
106.579
105.488
104.41
103.347
102.302
101.278
100.279
99.3052
98.3599
97.4444
96.56
95.7075
94.887
94.0985
93.3411
92.6139
91.9153
91.2436
90.5969
89.9732
89.3703
88.7865
88.22
87.6692
87.1329
86.6101
86.1002
85.6028
85.1178
84.6452
84.1854
83.7388
83.3059
82.8876
82.4848
82.0985
81.7302
81.3815
81.0545
80.7515
80.4756
80.2301
80.0187
79.8467
79.7178
79.6375
79.6111
79.6444
79.7422
79.9098
80.1521
80.4733
80.8774
81.3671
81.9449
82.612
83.3691
84.2159
85.1514
86.1741
87.282
88.4734
89.7454
133.522
133.475
133.384
133.245
133.06
132.829
132.552
132.23
131.863
131.452
130.996
130.498
129.957
129.375
128.752
128.089
127.388
126.649
125.873
125.063
124.219
123.342
122.436
121.5
120.537
119.549
118.539
117.507
116.456
115.389
114.307
113.214
112.11
111.002
109.892
108.781
107.673
106.572
105.479
104.399
103.334
102.288
101.263
100.261
99.2863
98.3396
97.4229
96.5375
95.6842
94.8631
94.0741
93.3165
92.5893
91.8908
91.2194
90.573
89.9497
89.3474
88.7641
88.1981
87.6478
87.112
86.5896
86.0801
85.583
85.0982
84.6258
84.1661
83.7196
83.2868
82.8684
82.4655
82.0789
81.7102
81.361
81.0332
80.7294
80.4523
80.2055
79.9928
79.8189
79.6882
79.6059
79.5776
79.6085
79.7042
79.8701
80.1111
80.4313
80.8345
81.3239
81.9014
82.5685
83.3257
84.1726
85.1081
86.1308
87.2387
88.4299
89.7014
133.554
133.507
133.415
133.276
133.091
132.86
132.582
132.26
131.892
131.481
131.025
130.526
129.984
129.401
128.778
128.114
127.411
126.671
125.895
125.084
124.238
123.361
122.453
121.516
120.552
119.563
118.55
117.517
116.464
115.396
114.311
113.217
112.11
111
109.887
108.774
107.664
106.56
105.465
104.382
103.315
102.266
101.238
100.234
99.2572
98.3084
97.3899
96.5029
95.6482
94.8262
94.0366
93.2787
92.5513
91.8531
91.1821
90.5363
89.9138
89.3123
88.7298
88.1647
87.6152
87.08
86.5583
86.0493
85.5527
85.0682
84.5961
84.1366
83.6902
83.2574
82.839
82.4358
82.049
81.6797
81.3297
81.0008
80.6955
80.4168
80.1679
79.9528
79.7762
79.6426
79.5573
79.5258
79.5537
79.6465
79.8098
80.0483
80.3666
80.7684
81.2567
81.8337
82.5006
83.2578
84.1049
85.0407
86.0635
87.1713
88.3623
89.6334
133.597
133.55
133.457
133.318
133.133
132.901
132.624
132.301
131.933
131.52
131.064
130.564
130.022
129.438
128.813
128.148
127.445
126.703
125.926
125.113
124.266
123.387
122.477
121.538
120.572
119.581
118.566
117.531
116.476
115.405
114.319
113.223
112.109
110.998
109.882
108.766
107.653
106.545
105.446
104.36
103.289
102.236
101.205
100.198
99.2177
98.2661
97.345
96.4558
95.5994
94.776
93.9855
93.2271
92.4997
91.8017
91.1313
90.4865
89.8649
89.2646
88.6833
88.1193
87.5709
87.0368
86.516
86.0078
85.5118
85.0279
84.5562
84.097
83.6508
83.2181
82.7997
82.3964
82.0092
81.6393
81.2883
80.9582
80.6512
80.3703
80.1188
79.9007
79.7205
79.5831
79.4938
79.4582
79.4819
79.5709
79.7305
79.9658
80.2814
80.681
81.1678
81.744
82.4106
83.168
84.0156
84.952
85.9754
87.0837
88.2749
89.5461
133.651
133.604
133.511
133.372
133.186
132.954
132.676
132.353
131.984
131.571
131.113
130.613
130.069
129.484
128.858
128.192
127.487
126.744
125.965
125.15
124.301
123.42
122.508
121.567
120.599
119.605
118.588
117.549
116.491
115.417
114.328
113.227
112.113
110.996
109.876
108.756
107.638
106.526
105.423
104.332
103.256
102.199
101.164
100.152
99.1679
98.2126
97.2883
96.3963
95.5376
94.7124
93.9207
93.1617
92.4342
91.7366
91.067
90.4232
89.803
89.2041
88.6244
88.062
87.515
86.9822
86.4626
85.9554
85.4602
84.9769
84.5058
84.047
83.6012
83.1687
82.7504
82.3469
81.9594
81.5889
81.2369
80.9052
80.5962
80.3127
80.058
79.8361
79.6516
79.5094
79.415
79.3742
79.3928
79.4767
79.6315
79.8627
80.1747
80.5717
81.0567
81.6318
82.2982
83.056
83.9044
84.8419
85.8665
86.9758
88.1679
89.4396
133.716
133.669
133.576
133.437
133.251
133.018
132.74
132.415
132.046
131.632
131.173
130.672
130.127
129.541
128.913
128.245
127.539
126.794
126.012
125.196
124.345
123.461
122.546
121.603
120.631
119.634
118.614
117.572
116.51
115.432
114.339
113.233
112.117
110.994
109.869
108.744
107.621
106.504
105.395
104.299
103.217
102.155
101.114
100.097
99.1079
98.1481
97.2197
96.3243
95.4627
94.6355
93.8423
93.0825
92.3549
91.6577
90.989
90.3465
89.728
89.1309
88.5531
87.9925
87.4474
86.9162
86.398
85.892
85.3978
84.9154
84.445
83.9867
83.5413
83.1091
82.6909
82.2874
81.8995
81.5283
81.1752
80.8419
80.5305
80.2439
79.9855
79.7591
79.5694
79.4215
79.321
79.2738
79.286
79.3637
79.5128
79.7388
80.0466
80.4402
80.9229
81.4969
82.1631
82.9215
83.7712
84.7103
85.7365
86.8473
88.0407
89.3134
133.793
133.745
133.652
133.513
133.326
133.093
132.814
132.489
132.119
131.704
131.244
130.741
130.195
129.607
128.978
128.309
127.6
126.853
126.069
125.25
124.396
123.51
122.592
121.645
120.67
119.669
118.645
117.599
116.533
115.45
114.352
113.242
112.121
110.992
109.862
108.731
107.601
106.478
105.363
104.259
103.172
102.103
101.055
100.033
99.0375
98.0723
97.1392
96.2397
95.3748
94.5449
93.75
92.9892
92.2614
91.5647
90.8971
90.2563
89.6396
89.0448
88.4692
87.9109
87.3679
86.8387
86.3222
85.8177
85.3247
84.8433
84.3736
83.9161
83.4711
83.0393
82.6213
82.2178
81.8296
81.4578
81.1034
80.7682
80.4542
80.1642
79.9013
79.6697
79.474
79.3194
79.2117
79.157
79.1616
79.2319
79.3741
79.5939
79.8965
80.2862
80.7662
81.3388
82.0049
82.7642
83.6155
84.5567
85.5851
86.698
87.8931
89.1671
133.881
133.833
133.74
133.6
133.413
133.179
132.9
132.574
132.203
131.787
131.326
130.822
130.274
129.684
129.053
128.382
127.671
126.921
126.135
125.312
124.455
123.566
122.645
121.694
120.715
119.71
118.681
117.63
116.56
115.472
114.368
113.252
112.125
110.991
109.853
108.715
107.579
106.448
105.325
104.215
103.12
102.043
100.988
99.9584
98.9566
97.9852
97.0466
96.1422
95.2734
94.4405
93.6435
92.8816
92.1535
91.4574
90.7911
90.1522
89.5378
88.9455
88.3727
87.8171
87.2766
86.7497
86.2352
85.7324
85.2409
84.7606
84.2918
83.835
83.3906
82.9593
82.5416
82.1382
81.7498
81.3772
81.0216
80.6843
80.3675
80.0735
79.8058
79.5682
79.3655
79.2031
79.087
79.0235
79.0193
79.081
79.2151
79.4277
79.7242
80.1092
80.5861
81.1572
81.8232
82.5837
83.4372
84.381
85.4123
86.5278
87.725
89.0007
133.98
133.932
133.839
133.698
133.511
133.277
132.996
132.67
132.297
131.88
131.418
130.912
130.363
129.772
129.138
128.464
127.751
126.999
126.209
125.383
124.523
123.63
122.705
121.749
120.766
119.757
118.723
117.667
116.59
115.496
114.387
113.264
112.131
110.989
109.844
108.698
107.554
106.415
105.284
104.165
103.061
101.976
100.912
99.8746
98.8651
97.8867
96.9416
96.0317
95.1583
94.3219
93.5225
92.7593
92.031
91.3356
90.6708
90.034
89.4224
88.8331
88.2634
87.7109
87.1734
86.6492
86.1371
85.6362
85.1463
84.6673
84.1995
83.7435
83.2998
82.869
82.4517
82.0485
81.6599
81.2867
80.9298
80.5904
80.2704
79.9721
79.6988
79.4545
79.244
79.0728
78.9471
78.8735
78.8591
78.9109
79.0356
79.2399
79.5294
79.909
80.3823
80.9516
81.6177
82.3799
83.236
84.1833
85.2181
86.3368
87.5365
88.8141
134.09
134.042
133.949
133.808
133.62
133.385
133.104
132.776
132.403
131.985
131.521
131.014
130.463
129.869
129.233
128.557
127.84
127.085
126.292
125.463
124.599
123.701
122.772
121.812
120.824
119.809
118.769
117.707
116.625
115.524
114.408
113.278
112.137
110.988
109.835
108.68
107.527
106.378
105.238
104.109
102.996
101.901
100.828
99.7812
98.7629
97.7764
96.8241
95.9079
95.0293
94.1889
93.3867
92.622
91.8933
91.1987
90.5357
89.9014
89.2929
88.7072
88.1412
87.5923
87.0582
86.5371
86.0277
85.529
85.0409
84.5634
84.0967
83.6416
83.1987
82.7685
82.3517
81.9487
81.5601
81.1863
80.8281
80.4865
80.1631
79.8602
79.5808
79.329
79.1096
78.9285
78.7919
78.7069
78.6809
78.7213
78.8353
79.03
79.3114
79.6848
80.1541
80.7216
81.388
82.1523
83.0119
83.9633
85.0024
86.1249
87.3277
88.6074
134.211
134.164
134.07
133.929
133.74
133.505
133.223
132.894
132.52
132.1
131.635
131.126
130.573
129.977
129.339
128.659
127.94
127.181
126.385
125.551
124.683
123.781
122.846
121.881
120.888
119.867
118.821
117.753
116.663
115.555
114.431
113.294
112.145
110.987
109.824
108.66
107.497
106.338
105.187
104.048
102.924
101.818
100.735
99.6779
98.6499
97.6543
96.6937
95.7704
94.8859
94.0409
93.2356
92.4692
91.7402
91.0465
90.3855
89.7542
89.1493
88.5676
88.0058
87.4611
86.931
86.4135
85.9071
85.411
84.9248
84.4488
83.9834
83.5293
83.0871
82.6576
82.2414
81.8389
81.4503
81.0761
80.7166
80.3728
80.0458
79.7378
79.4518
79.1918
78.9626
78.7703
78.6215
78.5236
78.4845
78.512
78.6139
78.7976
79.0699
79.4363
79.9011
80.4667
81.1336
81.9006
82.7645
83.721
84.7653
85.8924
87.0987
88.3808
134.344
134.296
134.202
134.061
133.872
133.636
133.353
133.023
132.648
132.226
131.76
131.249
130.693
130.095
129.454
128.772
128.049
127.287
126.486
125.649
124.775
123.868
122.929
121.958
120.958
119.931
118.879
117.803
116.706
115.59
114.458
113.311
112.153
110.987
109.813
108.638
107.465
106.295
105.133
103.982
102.846
101.728
100.633
99.5647
98.5258
97.52
96.5503
95.6189
94.7277
93.8776
93.0688
92.3004
91.5711
90.8784
90.2198
89.5918
88.9911
88.4141
87.8572
87.3173
86.7917
86.2782
85.7753
85.282
84.7981
84.3238
83.8596
83.4065
82.9652
82.5364
82.1209
81.7189
81.3306
80.9561
80.5955
80.2494
79.9188
79.6055
79.3122
79.0431
78.8031
78.5984
78.436
78.3237
78.2698
78.2827
78.3709
78.5423
78.8042
79.1628
79.6225
80.186
80.8539
81.6243
82.4935
83.4563
84.5068
85.6393
86.8496
88.1343
134.488
134.44
134.346
134.204
134.015
133.778
133.494
133.164
132.787
132.364
131.895
131.382
130.825
130.224
129.58
128.894
128.168
127.401
126.597
125.754
124.876
123.964
123.018
122.041
121.035
120.001
118.941
117.858
116.753
115.629
114.487
113.331
112.164
110.987
109.801
108.616
107.43
106.248
105.074
103.91
102.761
101.63
100.523
99.4414
98.3905
97.3734
96.3933
95.453
94.5544
93.6985
92.8857
92.1152
91.3854
90.694
90.038
89.414
88.818
88.2463
87.6951
87.1607
86.6403
86.1314
85.6323
85.1422
84.6607
84.1882
83.7253
83.2732
82.8327
82.4048
81.9901
81.5888
81.201
80.8264
80.4649
80.1167
79.7822
79.4632
79.1623
78.8833
78.6313
78.4129
78.2354
78.107
78.0366
78.0333
78.106
78.2635
78.5138
78.8634
79.3176
79.879
80.5482
81.3229
82.1986
83.169
84.227
85.366
86.5809
87.8683
134.644
134.596
134.501
134.359
134.169
133.931
133.647
133.315
132.937
132.512
132.042
131.527
130.967
130.363
129.716
129.027
128.296
127.526
126.716
125.869
124.985
124.067
123.115
122.132
121.119
120.077
119.009
117.918
116.804
115.67
114.519
113.353
112.175
110.987
109.79
108.592
107.393
106.199
105.01
103.833
102.67
101.525
100.403
99.308
98.2437
97.2141
96.2226
95.2723
94.3653
93.5029
92.6856
91.9127
91.1825
90.4926
89.8396
89.22
88.6296
88.064
87.5192
86.9911
86.4766
85.9729
85.4783
84.9916
84.5127
84.0421
83.5806
83.1294
82.6897
82.2627
81.8488
81.4485
81.0614
80.687
80.3249
79.9746
79.6365
79.3115
79.0023
78.7126
78.4476
78.2141
78.0198
77.8736
77.7848
77.7633
77.8188
77.9607
78.1978
78.5375
78.9854
79.5447
80.2158
80.9959
81.8796
82.8592
83.9262
85.0727
86.2929
87.583
134.81
134.762
134.667
134.525
134.334
134.096
133.81
133.477
133.098
132.672
132.199
131.682
131.119
130.512
129.862
129.169
128.435
127.66
126.845
125.993
125.103
124.179
123.22
122.23
121.209
120.159
119.083
117.983
116.859
115.716
114.555
113.378
112.188
110.988
109.779
108.567
107.355
106.146
104.943
103.751
102.572
101.412
100.275
99.1643
98.0853
97.0419
96.0377
95.0762
94.1598
93.2903
92.468
91.6924
90.9617
90.2734
89.624
89.0095
88.4253
87.8668
87.3292
86.8084
86.3006
85.8029
85.3132
84.8304
84.3543
83.8856
83.4253
82.975
82.5362
82.1099
81.6971
81.2978
80.9118
80.5381
80.1756
79.8236
79.4817
79.1507
78.8327
78.5315
78.2523
78.0022
77.7894
77.6234
77.5143
77.4725
77.5086
77.6331
77.8554
78.1839
78.625
79.1821
79.8557
80.6425
81.5359
82.5266
83.6044
84.7598
85.986
87.2791
134.988
134.94
134.845
134.702
134.511
134.272
133.985
133.651
133.27
132.842
132.368
131.848
131.283
130.673
130.019
129.322
128.583
127.803
126.984
126.125
125.23
124.298
123.333
122.335
121.306
120.248
119.163
118.052
116.919
115.765
114.593
113.404
112.202
110.989
109.768
108.541
107.314
106.09
104.872
103.663
102.468
101.291
100.137
99.0102
97.9151
96.8564
95.8382
94.8642
93.9375
93.0599
92.232
91.4534
90.7222
90.0358
89.3904
88.7816
88.2046
87.6541
87.125
86.6125
86.1123
85.6213
85.1371
84.6586
84.1856
83.7188
83.2597
82.8102
82.3719
81.9465
81.5347
81.1368
80.7521
80.3795
80.0172
79.6638
79.3184
78.9812
78.654
78.3403
78.0457
77.7774
77.5443
77.3565
77.2248
77.1605
77.1751
77.28
77.4857
77.8017
78.2351
78.79
79.4669
80.262
81.1672
82.1714
83.2621
84.428
85.6609
86.9569
135.177
135.129
135.034
134.89
134.699
134.459
134.171
133.836
133.453
133.024
132.547
132.025
131.457
130.844
130.186
129.485
128.742
127.957
127.131
126.267
125.365
124.426
123.453
122.447
121.409
120.342
119.248
118.127
116.984
115.819
114.634
113.434
112.219
110.992
109.757
108.514
107.272
106.032
104.797
103.571
102.358
101.163
99.9907
98.8457
97.7329
96.6573
95.6236
94.6358
93.6975
92.8109
91.9767
91.1947
90.463
89.7787
89.1378
88.5357
87.9669
87.4256
86.9061
86.403
85.9117
85.4283
84.9504
84.4765
84.0067
83.5418
83.0838
82.6347
82.1969
81.7721
81.3615
80.9652
80.5823
80.2113
79.8498
79.4955
79.1469
78.8035
78.4666
78.1396
77.8283
77.5402
77.2848
77.0729
76.9162
76.8269
76.8176
76.9005
77.0877
77.3896
77.8144
78.3671
79.0482
79.8533
80.7729
81.7934
82.8996
84.0778
85.3185
86.6174
135.378
135.33
135.234
135.09
134.898
134.657
134.369
134.032
133.648
133.217
132.738
132.213
131.642
131.025
130.364
129.659
128.91
128.12
127.288
126.418
125.508
124.563
123.581
122.567
121.52
120.443
119.339
118.208
117.053
115.876
114.679
113.465
112.237
110.996
109.746
108.486
107.228
105.971
104.718
103.473
102.242
101.027
99.8352
98.6705
97.5384
96.4443
95.3934
94.3904
93.4391
92.5424
91.7012
90.9154
90.183
89.5011
88.8655
88.2709
87.7114
87.1807
86.6722
86.1799
85.6986
85.2239
84.753
84.2844
83.8179
83.355
82.8976
82.4487
82.011
81.5866
81.1772
80.7827
80.4022
80.0335
79.6734
79.319
78.9676
78.6181
78.2711
77.93
77.6005
77.2908
77.0109
76.7726
76.5884
76.4715
76.4354
76.4939
76.6602
76.9462
77.3615
77.9118
78.5981
79.4154
80.3526
81.3928
82.5175
83.7102
84.9597
86.2612
135.59
135.541
135.445
135.301
135.108
134.867
134.577
134.239
133.854
133.421
132.94
132.412
131.838
131.218
130.552
129.842
129.089
128.293
127.455
126.578
125.661
124.707
123.718
122.694
121.638
120.551
119.436
118.293
117.127
115.937
114.728
113.5
112.257
111.002
109.737
108.458
107.183
105.908
104.636
103.372
102.119
100.884
99.6708
98.4847
97.3315
96.2171
95.1472
94.1271
93.1615
92.2534
91.4043
90.6142
89.8812
89.202
88.5722
87.9862
87.4374
86.9187
86.4228
85.9429
85.473
85.0083
84.5453
84.0824
83.6196
83.1584
82.7014
82.2522
81.814
81.3899
80.9815
80.5892
80.2116
79.8459
79.4883
79.1346
78.7811
78.4256
78.0683
77.7122
77.3631
77.0297
76.7231
76.4557
76.2411
76.0937
76.028
76.0592
76.2019
76.47
76.8744
77.4222
78.1149
78.9471
79.9055
80.9695
82.1164
83.3262
84.5857
85.8893
135.813
135.764
135.668
135.523
135.33
135.088
134.797
134.458
134.071
133.636
133.153
132.623
132.045
131.421
130.752
130.037
129.278
128.476
127.632
126.747
125.823
124.861
123.862
122.829
121.763
120.665
119.539
118.385
117.205
116.003
114.779
113.538
112.279
111.008
109.726
108.432
107.137
105.842
104.55
103.265
101.991
100.734
99.4975
98.2882
97.112
95.9752
94.8843
93.8454
92.8635
91.9427
91.0848
90.2899
89.5559
88.8798
88.2566
87.6804
87.1439
86.639
86.1575
85.6919
85.2351
84.7816
84.3277
83.8712
83.4121
82.9524
82.4953
82.0451
81.6059
81.1815
80.7741
80.3841
80.0101
79.6485
79.2945
78.9426
78.5877
78.2267
77.8588
77.4868
77.1166
76.7575
76.4215
76.1222
75.8743
75.6932
75.5946
75.5952
75.7115
75.9592
76.3513
76.8963
77.5966
78.4467
79.4308
80.5238
81.6973
82.927
84.1977
85.503
136.047
135.999
135.902
135.757
135.563
135.32
135.028
134.688
134.3
133.862
133.377
132.844
132.264
131.636
130.962
130.242
129.477
128.669
127.818
126.926
125.994
125.023
124.015
122.972
121.895
120.786
119.648
118.481
117.289
116.073
114.835
113.578
112.304
111.016
109.716
108.405
107.09
105.775
104.462
103.155
101.858
100.576
99.3153
98.081
96.8797
95.7184
94.6042
93.5442
92.5443
91.6092
90.7413
89.9408
89.2058
88.5331
87.9174
87.3523
86.8297
86.3406
85.8758
85.4264
84.9846
84.5442
84.1005
83.6511
83.196
82.7375
82.2796
81.8275
81.3865
80.9611
80.5544
80.1671
79.7974
79.4411
79.092
78.7433
78.3883
78.0222
77.6436
77.2547
76.8617
76.4747
76.1065
75.7723
75.4878
75.2695
75.1345
75.1009
75.1873
75.4118
75.7898
76.3315
77.0408
77.9123
78.9277
80.0558
81.2611
82.5141
83.7976
85.1038
136.293
136.244
136.147
136.002
135.807
135.564
135.271
134.93
134.539
134.1
133.613
133.077
132.493
131.862
131.183
130.458
129.687
128.873
128.014
127.114
126.174
125.194
124.176
123.122
122.034
120.914
119.763
118.584
117.378
116.147
114.895
113.622
112.331
111.026
109.707
108.378
107.043
105.706
104.371
103.04
101.719
100.412
99.1245
97.8631
96.6344
95.4462
94.3063
93.2228
92.2026
91.2514
90.3721
89.5653
88.829
88.16
87.5527
87.0003
86.4937
86.0227
85.5769
85.1462
84.7218
84.2963
83.8642
83.4228
82.972
82.5142
82.0546
81.5995
81.1554
80.7283
80.3219
79.9374
79.5729
79.2232
78.8809
78.5371
78.1833
77.8131
77.4238
77.0171
76.5994
76.1818
75.7784
75.4059
75.0814
74.8222
74.6467
74.5749
74.6276
74.8257
75.1872
75.7249
76.4445
77.3415
78.3951
79.566
80.8093
82.0896
83.3872
84.6939
136.549
136.501
136.404
136.258
136.063
135.818
135.525
135.182
134.791
134.35
133.86
133.321
132.734
132.098
131.415
130.685
129.908
129.086
128.221
127.313
126.363
125.373
124.345
123.281
122.181
121.049
119.885
118.692
117.472
116.226
114.958
113.669
112.361
111.038
109.7
108.352
106.995
105.636
104.277
102.922
101.575
100.241
98.9253
97.6346
96.3762
95.1583
93.9899
92.8801
91.8372
90.8677
89.9755
89.1613
88.4234
87.7585
87.1607
86.6227
86.1344
85.6842
85.2602
84.8511
84.4466
84.0383
83.6197
83.1873
82.7408
82.2833
81.8208
81.3611
80.9126
80.4825
80.0759
79.6944
79.3359
78.9946
78.6611
78.3244
77.9736
77.6002
77.2002
76.7748
76.3305
75.8793
75.4373
75.0229
74.6547
74.3506
74.1303
74.0158
74.0305
74.1983
74.5406
75.0731
75.8042
76.7315
77.8317
79.0552
80.3444
81.6563
82.9694
84.2755
136.817
136.768
136.671
136.525
136.329
136.084
135.79
135.446
135.053
134.611
134.119
133.577
132.986
132.347
131.658
130.922
130.139
129.311
128.437
127.52
126.562
125.562
124.523
123.447
122.336
121.19
120.013
118.806
117.571
116.31
115.026
113.72
112.394
111.052
109.695
108.327
106.946
105.564
104.181
102.801
101.426
100.064
98.7179
97.3958
96.1049
94.8544
93.6543
92.5152
91.4465
90.4563
89.5493
88.7267
87.9867
87.3262
86.7391
86.2175
85.7502
85.3237
84.9248
84.5405
84.1591
83.7706
83.3675
82.9454
82.5036
82.0456
81.5787
81.1127
80.6577
80.2231
79.8153
79.4368
79.0855
78.7544
78.4322
78.1053
77.7597
77.3845
76.9741
76.5289
76.0557
75.5679
75.0834
74.6233
74.2076
73.8542
73.5843
73.4223
73.394
73.5272
73.8468
74.3723
75.1157
76.0787
77.2362
78.5248
79.8694
81.2184
82.5479
83.8516
137.096
137.047
136.95
136.803
136.607
136.361
136.066
135.722
135.327
134.883
134.389
133.844
133.25
132.606
131.913
131.171
130.382
129.546
128.664
127.738
126.77
125.76
124.71
123.622
122.498
121.339
120.148
118.926
117.676
116.399
115.098
113.774
112.43
111.069
109.691
108.301
106.899
105.493
104.084
102.676
101.274
99.8809
98.5029
97.1468
95.8206
94.5342
93.299
92.1268
91.0291
90.0153
89.0913
88.2588
87.516
86.8603
86.2852
85.7824
85.3391
84.9399
84.5697
84.2141
83.8593
83.494
83.1089
82.6985
82.2616
81.8023
81.3292
80.8542
80.3903
79.9491
79.539
79.1635
78.8205
78.5019
78.194
77.88
77.5425
77.1673
76.7469
76.281
75.7765
75.2483
74.7172
74.2076
73.7407
73.3337
73.0089
72.7939
72.717
72.81
73.1025
73.6181
74.3741
75.3786
76.6072
77.9766
79.3887
80.7808
82.1275
83.426
137.386
137.337
137.24
137.093
136.896
136.65
136.354
136.008
135.613
135.167
134.67
134.123
133.525
132.877
132.179
131.431
130.635
129.791
128.901
127.966
126.988
125.967
124.906
123.805
122.668
121.496
120.29
119.052
117.786
116.493
115.174
113.832
112.469
111.088
109.69
108.277
106.853
105.42
103.985
102.55
101.118
99.6929
98.2806
96.8879
95.5233
94.1975
92.9231
91.7138
90.5831
89.5422
88.5987
87.7546
87.0081
86.3577
85.7959
85.3148
84.8989
84.5309
84.1939
83.8712
83.5473
83.2089
82.8448
82.448
82.0166
81.5548
81.073
80.586
80.1101
79.6596
79.2455
78.8727
78.5394
78.236
77.9463
77.6493
77.3234
76.9504
76.521
76.0337
75.4955
74.9229
74.3406
73.7778
73.2564
72.7909
72.4051
72.131
71.9988
72.0451
72.304
72.8055
73.5728
74.6245
75.9422
77.4144
78.9079
80.3495
81.7131
83.0016
137.687
137.638
137.54
137.393
137.196
136.949
136.653
136.306
135.909
135.462
134.963
134.414
133.813
133.16
132.457
131.703
130.9
130.048
129.149
128.205
127.216
126.184
125.11
123.997
122.846
121.659
120.438
119.185
117.902
116.591
115.255
113.894
112.512
111.11
109.69
108.256
106.808
105.348
103.886
102.422
100.959
99.5005
98.0518
96.6198
95.2134
93.8442
92.5261
91.2749
90.1066
89.0345
88.0685
87.2105
86.4593
85.8145
85.2678
84.8114
84.4271
84.0949
83.7959
83.5112
83.2231
82.9161
82.5768
82.196
81.7705
81.3049
80.8116
80.3087
79.8166
79.3535
78.9333
78.5628
78.2407
77.956
77.689
77.4143
77.1047
76.7373
76.3001
75.7914
75.2172
74.5956
73.9565
73.3367
72.758
72.2277
71.7734
71.4335
71.238
71.2295
71.4466
71.9283
72.7034
73.8067
75.237
76.8409
78.4324
79.9289
81.3073
82.5789
137.999
137.95
137.852
137.704
137.507
137.259
136.962
136.615
136.217
135.769
135.268
134.716
134.112
133.455
132.746
131.986
131.175
130.316
129.408
128.453
127.453
126.41
125.324
124.197
123.032
121.83
120.593
119.324
118.024
116.695
115.34
113.961
112.558
111.135
109.694
108.236
106.764
105.276
103.787
102.293
100.798
99.3043
97.8171
96.343
94.8912
93.4741
92.1073
90.8087
89.5974
88.4891
87.4969
86.6224
85.8651
85.2264
84.6964
84.2689
83.9207
83.6293
83.3739
83.133
82.8865
82.6164
82.3065
81.9448
81.5262
81.0551
80.5465
80.0228
79.5094
79.0293
78.6002
78.2314
77.9222
77.6602
77.4217
77.1758
76.8887
76.5307
76.088
75.5582
74.9453
74.2683
73.5648
72.8842
72.2449
71.6414
71.109
70.6963
70.4285
70.3574
70.5228
70.9781
71.7557
72.9113
74.4851
76.2584
77.9657
79.5203
80.9081
82.1536
138.321
138.272
138.174
138.026
137.828
137.581
137.283
136.935
136.537
136.087
135.585
135.03
134.422
133.761
133.047
132.281
131.463
130.595
129.677
128.713
127.701
126.646
125.547
124.406
123.226
122.009
120.756
119.469
118.151
116.804
115.43
114.031
112.608
111.164
109.7
108.218
106.723
105.204
103.688
102.164
100.636
99.1054
97.5776
96.0585
94.5574
93.0875
91.6661
90.3138
89.0532
87.9025
86.8799
85.9854
85.2203
84.5881
84.0771
83.6831
83.3762
83.1315
82.9262
82.7357
82.5375
82.3107
82.0359
81.6971
81.2866
80.8082
80.2795
79.7288
79.1876
78.685
78.2433
77.8749
77.5802
77.3454
77.1419
76.9322
76.6744
76.3301
75.8833
75.3333
74.6779
73.9351
73.1554
72.4113
71.7091
71.0194
70.397
69.9071
69.5591
69.4219
69.5237
69.9468
70.72
71.9207
73.6782
75.6693
77.5076
79.119
80.5068
81.7164
138.654
138.605
138.507
138.359
138.16
137.912
137.615
137.267
136.868
136.417
135.913
135.356
134.745
134.08
133.361
132.588
131.762
130.885
129.958
128.982
127.96
126.891
125.779
124.624
123.429
122.195
120.925
119.621
118.284
116.919
115.525
114.106
112.662
111.196
109.709
108.203
106.681
105.137
103.591
102.036
100.473
98.9049
97.3343
95.7672
94.2126
92.6848
91.2021
89.7886
88.4711
87.2707
86.2124
85.2935
84.5186
83.8935
83.4042
83.0496
82.7897
82.5983
82.4504
82.3178
82.1756
81.9999
81.7668
81.456
81.0552
80.5672
80.0128
79.4272
78.8504
78.3182
77.8591
77.4891
77.2102
77.0074
76.846
76.6808
76.4604
76.1324
75.6813
75.1123
74.4095
73.5833
72.7089
71.9038
71.1416
70.3462
69.6188
69.0521
68.6173
68.4237
68.4471
68.8332
69.5955
70.8186
72.8126
75.0785
77.053
78.7144
80.088
81.2545
138.998
138.949
138.85
138.701
138.503
138.255
137.957
137.609
137.209
136.758
136.254
135.695
135.081
134.411
133.686
132.906
132.073
131.187
130.25
129.263
128.229
127.147
126.021
124.851
123.64
122.389
121.101
119.779
118.424
117.038
115.625
114.185
112.72
111.232
109.721
108.191
106.642
105.072
103.496
101.909
100.312
98.704
97.0887
95.4706
93.8581
92.2665
90.7151
89.2315
87.8485
86.589
85.4886
84.5394
83.7519
83.1347
82.6707
82.363
82.1561
82.0254
81.9432
81.877
81.7994
81.6837
81.5011
81.2248
80.837
80.3374
79.7504
79.1205
78.4978
77.9268
77.4439
77.0697
76.8089
76.6452
76.5364
76.428
76.2576
75.9494
75.491
74.9061
74.1525
73.2174
72.2209
71.3679
70.5573
69.6332
68.7858
68.1401
67.5907
67.3846
67.373
67.6779
68.3927
69.5676
71.8828
74.5008
76.5935
78.2872
79.6326
80.7551
139.352
139.303
139.204
139.055
138.856
138.607
138.31
137.962
137.562
137.111
136.606
136.045
135.428
134.755
134.024
133.238
132.396
131.5
130.553
129.555
128.508
127.413
126.272
125.087
123.859
122.591
121.285
119.944
118.569
117.163
115.729
114.268
112.782
111.271
109.737
108.182
106.606
105.009
103.404
101.785
100.152
98.5041
96.8424
95.1704
93.4953
91.8338
90.205
88.6411
87.1822
85.8514
84.7012
83.7139
82.9106
82.3023
81.8693
81.6178
81.4704
81.4086
81.4011
81.4103
81.4075
81.3632
81.243
81.0119
80.6431
80.1299
79.5002
78.8111
78.1271
77.5042
76.9895
76.6089
76.3709
76.2594
76.2217
76.192
76.0967
75.8204
75.3548
74.7656
73.9607
72.8867
71.7429
70.8728
70.0232
68.9371
67.9818
67.268
66.3979
65.3396
64.927
65.867
66.9774
68.0399
70.83
73.9405
76.1225
77.8221
79.1185
80.2057
139.716
139.667
139.567
139.418
139.219
138.97
138.673
138.325
137.926
137.475
136.969
136.408
135.789
135.111
134.375
133.581
132.731
131.826
130.868
129.858
128.798
127.69
126.534
125.333
124.088
122.801
121.476
120.115
118.72
117.293
115.838
114.356
112.848
111.315
109.757
108.177
106.574
104.949
103.314
101.664
99.9953
98.3068
96.597
94.8689
93.1264
91.3884
89.672
88.0157
86.4686
85.0492
83.839
82.8051
81.984
81.3868
80.994
80.8093
80.727
80.7433
80.8202
80.9153
81.0004
81.0441
81.0041
80.8338
80.4915
79.9582
79.267
78.4953
77.7286
77.0363
76.4813
76.0931
75.8851
75.8457
75.9068
75.9864
76.0036
75.775
75.3116
74.7559
73.8788
72.6037
71.3119
70.491
69.5399
68.1659
67.1579
66.6086
65.9682
65.5915
64.6686
65.4939
65.8775
66.3438
69.6812
73.3975
75.6186
77.3148
78.5204
79.5964
140.091
140.041
139.941
139.791
139.591
139.343
139.046
138.699
138.301
137.851
137.345
136.783
136.161
135.48
134.739
133.938
133.079
132.164
131.195
130.173
129.1
127.977
126.806
125.588
124.325
123.02
121.675
120.293
118.876
117.429
115.952
114.448
112.918
111.362
109.781
108.175
106.546
104.891
103.229
101.548
99.8433
98.1138
96.3544
94.5692
92.753
90.9328
89.1173
87.3534
85.7028
84.1719
82.8889
81.7966
80.9534
80.3693
80.0326
79.9286
79.9145
80.0186
80.1909
80.3855
80.5776
80.7328
80.7966
80.7043
80.3931
79.8263
79.0488
78.1709
77.304
76.5287
75.9302
75.5351
75.3609
75.4088
75.5914
75.8024
75.9574
75.7492
75.2784
74.8491
73.8404
72.0991
70.5643
70.0403
67.1128
60.7697
54.0028
48.5228
43.7556
43.4178
45.3433
53.731
62.1422
64.1835
68.8656
73.0929
75.1114
76.7838
77.8318
78.9304
140.476
140.425
140.324
140.173
139.973
139.725
139.428
139.083
138.686
138.237
137.732
137.17
136.547
135.863
135.116
134.308
133.44
132.514
131.534
130.499
129.413
128.275
127.088
125.853
124.571
123.246
121.88
120.477
119.039
117.569
116.07
114.544
112.992
111.414
109.809
108.178
106.521
104.84
103.15
101.437
99.6971
97.9271
96.1146
94.2661
92.3815
90.471
88.5448
86.6538
84.8794
83.2088
81.8289
80.6614
79.7834
79.2254
78.9782
78.9733
79.0266
79.231
79.5144
79.8283
80.1511
80.442
80.6288
80.6249
80.3475
79.7364
78.8565
77.8673
76.9013
76.0335
75.389
74.9744
74.8096
74.9242
75.2034
75.5282
75.8367
75.5137
74.8708
74.7736
72.1619
64.0381
52.312
39.7822
25.8034
14.2715
7.34304
4.39608
2.74072
2.80827
3.33383
5.74373
12.3221
26.3441
51.9187
70.0781
74.5602
76.264
77.0231
78.2582
140.87
140.819
140.717
140.565
140.364
140.115
139.82
139.476
139.082
138.635
138.132
137.57
136.946
136.259
135.507
134.691
133.814
132.877
131.885
130.838
129.737
128.584
127.381
126.127
124.827
123.481
122.094
120.668
119.207
117.714
116.192
114.644
113.07
111.469
109.84
108.184
106.497
104.793
103.076
101.334
99.5577
97.7488
95.8816
93.9688
92.0112
90.0055
87.9549
85.9149
83.9949
82.1385
80.6198
79.3804
78.478
77.9784
77.8623
77.9571
78.0824
78.4129
78.8343
79.2911
79.7595
80.1904
80.4944
80.5732
80.3371
79.6835
78.7006
77.6121
76.5495
75.5479
74.8225
74.3244
74.079
74.0944
73.6883
72.4741
70.1645
64.4938
54.8962
43.4132
28.3818
13.6785
2.15396
0.0332176
0.0233787
0.01669
0.0201303
0.0487911