/*--------------------------------*- C++ -*----------------------------------*\
| =========                 |                                                 |
| \\      /  F ield         | OpenFOAM: The Open Source CFD Toolbox           |
|  \\    /   O peration     | Version:  2.4.0                                 |
|   \\  /    A nd           | Web:      www.OpenFOAM.org                      |
|    \\/     M anipulation  |                                                 |
\*---------------------------------------------------------------------------*/
FoamFile
{
    version     2.0;
    format      ascii;
    class       surfaceScalarField;
    location    "0.293";
    object      phiAlpha;
}
// * * * * * * * * * * * * * * * * * * * * * * * * * * * * * * * * * * * * * //

dimensions      [0 3 -1 0 0 0 0];

internalField   nonuniform List<scalar> 
119500
(
1.69883e-09
-1.69883e-09
3.06567e-09
-1.36684e-09
4.36891e-09
-1.30324e-09
5.67428e-09
-1.30537e-09
6.98664e-09
-1.31236e-09
8.30661e-09
-1.31997e-09
9.63515e-09
-1.32854e-09
1.0973e-08
-1.33783e-09
1.23202e-08
-1.34717e-09
1.36781e-08
-1.35798e-09
1.50466e-08
-1.36841e-09
1.64256e-08
-1.37904e-09
1.78147e-08
-1.38907e-09
1.9213e-08
-1.39832e-09
2.06179e-08
-1.40493e-09
2.20294e-08
-1.41146e-09
2.34438e-08
-1.41446e-09
2.48608e-08
-1.41697e-09
2.62731e-08
-1.41225e-09
2.76807e-08
-1.40765e-09
2.90791e-08
-1.39837e-09
3.04642e-08
-1.38511e-09
3.18318e-08
-1.3676e-09
3.3178e-08
-1.34616e-09
3.44989e-08
-1.32091e-09
3.57892e-08
-1.29031e-09
3.70463e-08
-1.25712e-09
3.82671e-08
-1.22085e-09
3.94493e-08
-1.18212e-09
4.05921e-08
-1.14281e-09
4.16891e-08
-1.09703e-09
4.27443e-08
-1.05518e-09
4.37578e-08
-1.01351e-09
4.47312e-08
-9.73372e-10
4.56688e-08
-9.37614e-10
4.65767e-08
-9.07908e-10
4.74649e-08
-8.88221e-10
4.8345e-08
-8.80103e-10
4.92294e-08
-8.84395e-10
5.01343e-08
-9.04894e-10
5.10767e-08
-9.42414e-10
5.20748e-08
-9.98139e-10
5.31479e-08
-1.07303e-09
5.43155e-08
-1.16765e-09
5.55977e-08
-1.28216e-09
5.70116e-08
-1.41395e-09
5.8573e-08
-1.56141e-09
6.02947e-08
-1.72163e-09
6.2185e-08
-1.89037e-09
6.42485e-08
-2.06348e-09
6.64845e-08
-2.23601e-09
6.88874e-08
-2.40286e-09
7.14464e-08
-2.55906e-09
7.41464e-08
-2.69996e-09
7.6968e-08
-2.82156e-09
7.98889e-08
-2.9209e-09
8.28849e-08
-2.996e-09
8.59308e-08
-3.04595e-09
8.90017e-08
-3.07086e-09
9.20735e-08
-3.07178e-09
9.51239e-08
-3.05045e-09
9.8133e-08
-3.00908e-09
1.01083e-07
-2.95014e-09
1.03959e-07
-2.87604e-09
1.06748e-07
-2.78887e-09
1.09438e-07
-2.69027e-09
1.1202e-07
-2.58124e-09
1.14482e-07
-2.46211e-09
1.16814e-07
-2.33267e-09
1.19007e-07
-2.19219e-09
1.21046e-07
-2.03967e-09
1.2292e-07
-1.87393e-09
1.24614e-07
-1.69391e-09
1.26113e-07
-1.49876e-09
1.27401e-07
-1.2881e-09
1.28463e-07
-1.06206e-09
1.29284e-07
-8.21328e-10
1.29851e-07
-5.6717e-10
1.30153e-07
-3.01455e-10
1.30183e-07
-3.01921e-11
1.29928e-07
2.54947e-10
1.29387e-07
5.41221e-10
1.28565e-07
8.22388e-10
1.27468e-07
1.09685e-09
1.26106e-07
1.36183e-09
1.24496e-07
1.60998e-09
1.22654e-07
1.84203e-09
1.20599e-07
2.05494e-09
1.18351e-07
2.24795e-09
1.15931e-07
2.4198e-09
1.13362e-07
2.56925e-09
1.10664e-07
2.69806e-09
1.07852e-07
2.81219e-09
1.04931e-07
2.92058e-09
1.01898e-07
3.03335e-09
9.87376e-08
3.16016e-09
9.54292e-08
3.30838e-09
9.1942e-08
3.4872e-09
8.82469e-08
3.69509e-09
3.96567e-09
8.42813e-08
1.06341e-09
-2.76223e-09
1.36463e-09
-1.66806e-09
1.52602e-09
-1.46464e-09
1.70344e-09
-1.48278e-09
1.91387e-09
-1.52279e-09
2.16469e-09
-1.57079e-09
2.46259e-09
-1.62644e-09
2.81445e-09
-1.6897e-09
3.22776e-09
-1.76048e-09
3.70486e-09
-1.83508e-09
4.25254e-09
-1.91609e-09
4.8736e-09
-2.0001e-09
5.57099e-09
-2.08646e-09
6.34631e-09
-2.17364e-09
7.20448e-09
-2.26311e-09
8.14162e-09
-2.3486e-09
9.16021e-09
-2.43305e-09
1.02543e-08
-2.5111e-09
1.14333e-08
-2.59125e-09
1.2685e-08
-2.65934e-09
1.40092e-08
-2.72253e-09
1.54033e-08
-2.77921e-09
1.68641e-08
-2.82845e-09
1.83887e-08
-2.87069e-09
1.99743e-08
-2.90655e-09
2.1614e-08
-2.93002e-09
2.33109e-08
-2.95403e-09
2.50593e-08
-2.9692e-09
2.68587e-08
-2.98151e-09
2.87109e-08
-2.99501e-09
3.06081e-08
-2.99426e-09
3.25582e-08
-3.00526e-09
3.45618e-08
-3.01718e-09
3.66178e-08
-3.02933e-09
3.87434e-08
-3.06324e-09
4.0936e-08
-3.10047e-09
4.32098e-08
-3.1621e-09
4.55792e-08
-3.24946e-09
4.80596e-08
-3.36483e-09
5.06682e-08
-3.51349e-09
5.34241e-08
-3.69827e-09
5.63473e-08
-3.92132e-09
5.94589e-08
-4.18467e-09
6.27792e-08
-4.48794e-09
6.63284e-08
-4.8314e-09
7.01238e-08
-5.20929e-09
7.41798e-08
-5.6174e-09
7.85071e-08
-6.049e-09
8.3112e-08
-6.49519e-09
8.79948e-08
-6.94635e-09
9.31504e-08
-7.39163e-09
9.85678e-08
-7.82019e-09
1.0423e-07
-8.22124e-09
1.10115e-07
-8.58478e-09
1.16196e-07
-8.9023e-09
1.22442e-07
-9.16731e-09
1.28821e-07
-9.37551e-09
1.353e-07
-9.52491e-09
1.41845e-07
-9.61576e-09
1.48424e-07
-9.6503e-09
1.55006e-07
-9.63235e-09
1.61563e-07
-9.56685e-09
1.68073e-07
-9.45926e-09
1.74512e-07
-9.31508e-09
1.80862e-07
-9.13915e-09
1.87107e-07
-8.93533e-09
1.93232e-07
-8.70614e-09
1.99222e-07
-8.45262e-09
2.05064e-07
-8.17447e-09
2.10742e-07
-7.87028e-09
2.1624e-07
-7.53784e-09
2.21541e-07
-7.17457e-09
2.26625e-07
-6.77798e-09
2.31472e-07
-6.34602e-09
2.36062e-07
-5.87759e-09
2.40373e-07
-5.37263e-09
2.44384e-07
-4.83239e-09
2.48076e-07
-4.25949e-09
2.51432e-07
-3.65803e-09
2.54437e-07
-3.03444e-09
2.57081e-07
-2.3897e-09
2.59357e-07
-1.73441e-09
2.61256e-07
-1.07657e-09
2.62775e-07
-4.21954e-10
2.63907e-07
2.29652e-10
2.64657e-07
8.60148e-10
2.6503e-07
1.46888e-09
2.65037e-07
2.0476e-09
2.6469e-07
2.59568e-09
2.63998e-07
3.11124e-09
2.62974e-07
3.5929e-09
2.61628e-07
4.045e-09
2.59963e-07
4.47714e-09
2.57981e-07
4.90229e-09
2.55679e-07
5.33498e-09
2.5305e-07
5.78931e-09
2.5008e-07
6.27842e-09
2.4675e-07
6.81755e-09
2.43027e-07
7.41774e-09
8.11475e-09
2.38878e-07
2.41146e-10
-3.00338e-09
-5.61931e-10
-8.64979e-10
-1.50518e-09
-5.21389e-10
-2.4218e-09
-5.6616e-10
-3.28661e-09
-6.5798e-10
-4.08719e-09
-7.70203e-10
-4.8131e-09
-9.00533e-10
-5.45351e-09
-1.04928e-09
-5.99997e-09
-1.21403e-09
-6.44401e-09
-1.39104e-09
-6.77788e-09
-1.58222e-09
-6.99633e-09
-1.78165e-09
-7.09348e-09
-1.98931e-09
-7.06595e-09
-2.20118e-09
-6.91152e-09
-2.41754e-09
-6.62646e-09
-2.63367e-09
-6.21144e-09
-2.84806e-09
-5.66448e-09
-3.05806e-09
-4.98961e-09
-3.26612e-09
-4.18439e-09
-3.46456e-09
-3.25177e-09
-3.65516e-09
-2.19368e-09
-3.8373e-09
-1.01286e-09
-4.00927e-09
2.87451e-10
-4.171e-09
1.70283e-09
-4.32193e-09
3.24125e-09
-4.46844e-09
4.89045e-09
-4.60323e-09
6.65092e-09
-4.72968e-09
8.52132e-09
-4.85191e-09
1.04933e-08
-4.96701e-09
1.25936e-08
-5.09456e-09
1.4795e-08
-5.2066e-09
1.71092e-08
-5.33142e-09
1.95415e-08
-5.46168e-09
2.20841e-08
-5.60581e-09
2.47636e-08
-5.77999e-09
2.75738e-08
-5.97224e-09
3.05299e-08
-6.20556e-09
3.36451e-08
-6.48008e-09
3.69339e-08
-6.80221e-09
4.04124e-08
-7.17685e-09
4.40981e-08
-7.60704e-09
4.80087e-08
-8.09519e-09
5.21605e-08
-8.63976e-09
5.65719e-08
-9.24282e-09
6.12564e-08
-9.89381e-09
6.62265e-08
-1.05875e-08
7.14901e-08
-1.13126e-08
7.70513e-08
-1.20563e-08
8.29089e-08
-1.2804e-08
8.90566e-08
-1.35393e-08
9.54822e-08
-1.42457e-08
1.02168e-07
-1.49071e-08
1.09091e-07
-1.55082e-08
1.16225e-07
-1.60364e-08
1.2354e-07
-1.64817e-08
1.31002e-07
-1.68377e-08
1.38578e-07
-1.71012e-08
1.46235e-07
-1.72726e-08
1.5394e-07
-1.73553e-08
1.61663e-07
-1.73552e-08
1.69376e-07
-1.72799e-08
1.77055e-07
-1.71381e-08
1.84678e-07
-1.69382e-08
1.92227e-07
-1.66882e-08
1.99686e-07
-1.63942e-08
2.0704e-07
-1.60605e-08
2.14277e-07
-1.5689e-08
2.21382e-07
-1.52796e-08
2.28342e-07
-1.48301e-08
2.35141e-07
-1.43372e-08
2.41763e-07
-1.37969e-08
2.4819e-07
-1.3205e-08
2.54403e-07
-1.25582e-08
2.6038e-07
-1.18545e-08
2.661e-07
-1.10933e-08
2.71544e-07
-1.02764e-08
2.76692e-07
-9.40736e-09
2.81526e-07
-8.49216e-09
2.8603e-07
-7.53863e-09
2.90194e-07
-6.55374e-09
2.94009e-07
-5.54917e-09
2.97468e-07
-4.53579e-09
3.0057e-07
-3.5237e-09
3.03322e-07
-2.52199e-09
3.05726e-07
-1.54413e-09
3.07788e-07
-5.928e-10
3.09511e-07
3.24005e-10
3.10897e-07
1.20975e-09
3.11949e-07
2.05927e-09
3.1267e-07
2.87196e-09
3.1306e-07
3.65534e-09
3.13115e-07
4.42215e-09
3.1283e-07
5.18737e-09
3.12196e-07
5.96848e-09
3.11203e-07
6.78251e-09
3.09837e-07
7.64497e-09
3.08082e-07
8.57253e-09
3.05919e-07
9.57982e-09
1.06983e-08
3.03336e-07
-2.14057e-10
-2.78932e-09
-1.6168e-09
5.37767e-10
-3.14878e-09
1.01059e-09
-4.64634e-09
9.31398e-10
-6.08242e-09
7.78097e-10
-7.44172e-09
5.89101e-10
-8.71111e-09
3.68855e-10
-9.87923e-09
1.18829e-10
-1.09355e-08
-1.57708e-10
-1.18697e-08
-4.56934e-10
-1.26748e-08
-7.77119e-10
-1.3343e-08
-1.11345e-09
-1.38691e-08
-1.46312e-09
-1.42481e-08
-1.82221e-09
-1.44774e-08
-2.1882e-09
-1.45542e-08
-2.55689e-09
-1.44773e-08
-2.92499e-09
-1.42452e-08
-3.2902e-09
-1.38595e-08
-3.65179e-09
-1.33197e-08
-4.00431e-09
-1.2627e-08
-4.34793e-09
-1.17827e-08
-4.68157e-09
-1.07886e-08
-5.00339e-09
-9.64656e-09
-5.31302e-09
-8.35785e-09
-5.61064e-09
-6.92718e-09
-5.89912e-09
-5.35472e-09
-6.1757e-09
-3.64208e-09
-6.44232e-09
-1.79177e-09
-6.70223e-09
1.97073e-10
-6.95585e-09
2.31647e-09
-7.21396e-09
4.58014e-09
-7.47027e-09
6.98493e-09
-7.73622e-09
9.52179e-09
-7.99853e-09
1.22096e-08
-8.2936e-09
1.50426e-08
-8.61305e-09
1.8029e-08
-8.9586e-09
2.11826e-08
-9.3592e-09
2.45119e-08
-9.80935e-09
2.80302e-08
-1.03205e-08
3.17511e-08
-1.08978e-08
3.56905e-08
-1.15464e-08
3.98647e-08
-1.22694e-08
4.42906e-08
-1.30657e-08
4.89781e-08
-1.39303e-08
5.39455e-08
-1.48612e-08
5.92021e-08
-1.58441e-08
6.4755e-08
-1.68654e-08
7.06068e-08
-1.79081e-08
7.67557e-08
-1.89529e-08
8.31945e-08
-1.99781e-08
8.99102e-08
-2.09614e-08
9.68847e-08
-2.18816e-08
1.04095e-07
-2.27183e-08
1.11513e-07
-2.34548e-08
1.19109e-07
-2.40778e-08
1.2685e-07
-2.45787e-08
1.34703e-07
-2.49534e-08
1.42632e-07
-2.52025e-08
1.50608e-07
-2.53306e-08
1.58598e-07
-2.5346e-08
1.66578e-07
-2.5259e-08
1.74521e-07
-2.50815e-08
1.82408e-07
-2.48255e-08
1.90222e-07
-2.45017e-08
1.97946e-07
-2.41189e-08
2.05569e-07
-2.36831e-08
2.13077e-07
-2.31971e-08
2.20458e-07
-2.26609e-08
2.277e-07
-2.20716e-08
2.34787e-07
-2.14247e-08
2.41705e-07
-2.07145e-08
2.48435e-07
-1.99352e-08
2.54959e-07
-1.90821e-08
2.61256e-07
-1.81519e-08
2.67307e-07
-1.71438e-08
2.7309e-07
-1.60598e-08
2.78588e-07
-1.49047e-08
2.83782e-07
-1.36861e-08
2.88657e-07
-1.24142e-08
2.93204e-07
-1.11004e-08
2.97414e-07
-9.75886e-09
3.01282e-07
-8.40387e-09
3.04808e-07
-7.04952e-09
3.07994e-07
-5.70887e-09
3.10846e-07
-4.39539e-09
3.1337e-07
-3.11675e-09
3.15574e-07
-1.88083e-09
3.17471e-07
-6.87285e-10
3.19065e-07
4.65459e-10
3.20357e-07
1.58056e-09
3.21345e-07
2.66666e-09
3.22026e-07
3.74149e-09
3.22391e-07
4.82201e-09
3.22432e-07
5.92795e-09
3.22136e-07
7.07848e-09
3.2149e-07
8.2908e-09
3.2048e-07
9.58277e-09
3.1909e-07
1.09692e-08
1.24826e-08
3.17306e-07
-4.22945e-10
-2.36638e-09
-2.08727e-09
2.20209e-09
-3.88028e-09
2.8036e-09
-5.63502e-09
2.68613e-09
-7.32406e-09
2.46714e-09
-8.93162e-09
2.19666e-09
-1.04438e-08
1.881e-09
-1.18482e-08
1.52325e-09
-1.31336e-08
1.12775e-09
-1.42898e-08
6.9922e-10
-1.53086e-08
2.41662e-10
-1.61823e-08
-2.39696e-10
-1.69051e-08
-7.40301e-10
-1.7472e-08
-1.25532e-09
-1.78797e-08
-1.78057e-09
-1.81252e-08
-2.31131e-09
-1.82067e-08
-2.84357e-09
-1.81229e-08
-3.37394e-09
-1.78743e-08
-3.90043e-09
-1.74597e-08
-4.41886e-09
-1.68804e-08
-4.92721e-09
-1.61369e-08
-5.42508e-09
-1.52305e-08
-5.90984e-09
-1.41625e-08
-6.38106e-09
-1.29343e-08
-6.83881e-09
-1.15491e-08
-7.28433e-09
-1.0008e-08
-7.71676e-09
-8.3129e-09
-8.13745e-09
-6.46602e-09
-8.54911e-09
-4.4679e-09
-8.95397e-09
-2.32318e-09
-9.35868e-09
-3.1126e-11
-9.76232e-09
2.40454e-09
-1.01719e-08
5.00659e-09
-1.06006e-08
7.75025e-09
-1.10373e-08
1.06536e-08
-1.15164e-08
1.37202e-08
-1.20252e-08
1.69571e-08
-1.25962e-08
2.03754e-08
-1.32276e-08
2.39862e-08
-1.39313e-08
2.78034e-08
-1.47151e-08
3.18418e-08
-1.55848e-08
3.61176e-08
-1.65452e-08
4.06445e-08
-1.75926e-08
4.54393e-08
-1.87251e-08
5.05132e-08
-1.9935e-08
5.58776e-08
-2.12086e-08
6.15391e-08
-2.25269e-08
6.75005e-08
-2.38696e-08
7.37597e-08
-2.52121e-08
8.03089e-08
-2.65273e-08
8.71349e-08
-2.77875e-08
9.42187e-08
-2.89654e-08
1.01536e-07
-3.00361e-08
1.0906e-07
-3.09783e-08
1.16758e-07
-3.17756e-08
1.24596e-07
-3.24171e-08
1.32541e-07
-3.28979e-08
1.40557e-07
-3.3219e-08
1.48613e-07
-3.33865e-08
1.56678e-07
-3.3411e-08
1.64725e-07
-3.33061e-08
1.72731e-07
-3.30872e-08
1.80675e-07
-3.27696e-08
1.88541e-07
-3.23675e-08
1.96314e-07
-3.18922e-08
2.03982e-07
-3.13514e-08
2.11534e-07
-3.0749e-08
2.18958e-07
-3.00847e-08
2.26241e-07
-2.9355e-08
2.33371e-07
-2.85538e-08
2.4033e-07
-2.76735e-08
2.47101e-07
-2.67067e-08
2.53666e-07
-2.56467e-08
2.60003e-07
-2.44891e-08
2.66092e-07
-2.32328e-08
2.71912e-07
-2.18797e-08
2.77443e-07
-2.0436e-08
2.82668e-07
-1.89111e-08
2.87572e-07
-1.73179e-08
2.92143e-07
-1.56715e-08
2.96373e-07
-1.39893e-08
3.00259e-07
-1.22895e-08
3.03799e-07
-1.059e-08
3.06998e-07
-8.90753e-09
3.0986e-07
-7.25739e-09
3.12394e-07
-5.65039e-09
3.14607e-07
-4.09429e-09
3.1651e-07
-2.59019e-09
3.18111e-07
-1.13536e-09
3.19414e-07
2.77563e-10
3.20418e-07
1.66213e-09
3.21121e-07
3.03864e-09
3.21515e-07
4.42864e-09
3.21588e-07
5.85444e-09
3.2133e-07
7.33701e-09
3.20726e-07
8.89464e-09
3.19763e-07
1.0546e-08
3.18425e-07
1.23066e-08
1.42154e-08
3.16692e-07
-5.15894e-10
-1.85048e-09
-2.28786e-09
3.97406e-09
-4.19028e-09
4.70602e-09
-6.05376e-09
4.54961e-09
-7.8506e-09
4.26398e-09
-9.56491e-09
3.91097e-09
-1.11825e-08
3.49855e-09
-1.26904e-08
3.03121e-09
-1.40771e-08
2.51443e-09
-1.53319e-08
1.95406e-09
-1.64461e-08
1.35582e-09
-1.74118e-08
7.26036e-10
-1.82228e-08
7.06842e-11
-1.88739e-08
-6.04272e-10
-1.93612e-08
-1.29329e-09
-1.96815e-08
-1.99099e-09
-1.98327e-08
-2.69233e-09
-1.98133e-08
-3.39338e-09
-1.96228e-08
-4.09088e-09
-1.92607e-08
-4.78098e-09
-1.87268e-08
-5.46115e-09
-1.80221e-08
-6.12979e-09
-1.7147e-08
-6.7849e-09
-1.61029e-08
-7.42515e-09
-1.48914e-08
-8.05037e-09
-1.35148e-08
-8.66092e-09
-1.1975e-08
-9.25651e-09
-1.02743e-08
-9.83819e-09
-8.41517e-09
-1.04082e-08
-6.39968e-09
-1.09695e-08
-4.23142e-09
-1.15269e-08
-1.91105e-09
-1.20827e-08
5.58747e-10
-1.26417e-08
3.19202e-09
-1.32339e-08
5.97173e-09
-1.3817e-08
8.90366e-09
-1.44483e-08
1.20142e-08
-1.51357e-08
1.52899e-08
-1.58718e-08
1.87459e-08
-1.66836e-08
2.23941e-08
-1.75795e-08
2.62487e-08
-1.85698e-08
3.03253e-08
-1.96614e-08
3.46358e-08
-2.08556e-08
3.91994e-08
-2.21562e-08
4.40326e-08
-2.35584e-08
4.91455e-08
-2.50479e-08
5.45504e-08
-2.66135e-08
6.02557e-08
-2.82322e-08
6.62643e-08
-2.98782e-08
7.25742e-08
-3.15219e-08
7.91778e-08
-3.31309e-08
8.60615e-08
-3.46711e-08
9.32059e-08
-3.61098e-08
1.00586e-07
-3.74164e-08
1.08173e-07
-3.85653e-08
1.15934e-07
-3.95365e-08
1.23834e-07
-4.03171e-08
1.31837e-07
-4.09012e-08
1.39909e-07
-4.12903e-08
1.48015e-07
-4.14923e-08
1.56124e-07
-4.15206e-08
1.6421e-07
-4.13922e-08
1.72249e-07
-4.11263e-08
1.80222e-07
-4.07422e-08
1.88112e-07
-4.02574e-08
1.95906e-07
-3.96862e-08
2.03593e-07
-3.90381e-08
2.11162e-07
-3.83178e-08
2.18602e-07
-3.75249e-08
2.25902e-07
-3.66548e-08
2.33047e-07
-3.56996e-08
2.40023e-07
-3.46496e-08
2.46812e-07
-3.34951e-08
2.53393e-07
-3.22276e-08
2.59745e-07
-3.08414e-08
2.65846e-07
-2.93344e-08
2.71676e-07
-2.77089e-08
2.77212e-07
-2.59722e-08
2.82437e-07
-2.41358e-08
2.87334e-07
-2.22153e-08
2.91892e-07
-2.02295e-08
2.96102e-07
-1.81995e-08
2.9996e-07
-1.61475e-08
3.03465e-07
-1.40953e-08
3.06621e-07
-1.20635e-08
3.09434e-07
-1.007e-08
3.11912e-07
-8.12826e-09
3.14064e-07
-6.24692e-09
3.15902e-07
-4.42776e-09
3.17433e-07
-2.66639e-09
3.18662e-07
-9.51884e-10
3.19591e-07
7.33755e-10
3.20215e-07
2.41443e-09
3.20527e-07
4.11683e-09
3.20514e-07
5.86681e-09
3.20164e-07
7.68749e-09
3.19461e-07
9.59796e-09
3.18389e-07
1.16174e-08
3.16934e-07
1.37621e-08
1.60784e-08
3.15071e-07
-5.64427e-10
-1.28606e-09
-2.38709e-09
5.79672e-09
-4.34149e-09
6.66043e-09
-6.25695e-09
6.46506e-09
-8.10554e-09
6.11258e-09
-9.87118e-09
5.67661e-09
-1.15395e-08
5.16687e-09
-1.30973e-08
4.58899e-09
-1.45325e-08
3.94963e-09
-1.58343e-08
3.25588e-09
-1.69935e-08
2.51498e-09
-1.80019e-08
1.7345e-09
-1.88531e-08
9.2187e-10
-1.95417e-08
8.42547e-11
-2.00634e-08
-7.71563e-10
-2.04152e-08
-1.63923e-09
-2.05945e-08
-2.51297e-09
-2.05999e-08
-3.38802e-09
-2.04305e-08
-4.26025e-09
-2.00858e-08
-5.12566e-09
-1.95657e-08
-5.98125e-09
-1.88708e-08
-6.82471e-09
-1.80018e-08
-7.65387e-09
-1.69599e-08
-8.46712e-09
-1.57467e-08
-9.26355e-09
-1.43646e-08
-1.0043e-08
-1.28159e-08
-1.08052e-08
-1.11033e-08
-1.15508e-08
-9.22963e-09
-1.22819e-08
-7.19789e-09
-1.30012e-08
-5.01146e-09
-1.37134e-08
-2.67179e-09
-1.44224e-08
-1.78085e-10
-1.51354e-08
2.45405e-09
-1.5866e-08
5.26418e-09
-1.66271e-08
8.2197e-09
-1.74039e-08
1.13313e-08
-1.82474e-08
1.46157e-08
-1.91561e-08
1.80775e-08
-2.01455e-08
2.173e-08
-2.12319e-08
2.55859e-08
-2.24257e-08
2.96608e-08
-2.37363e-08
3.39723e-08
-2.51671e-08
3.85363e-08
-2.67202e-08
4.33686e-08
-2.83907e-08
4.84848e-08
-3.01641e-08
5.38976e-08
-3.20262e-08
5.9615e-08
-3.39497e-08
6.56416e-08
-3.59048e-08
7.19759e-08
-3.78563e-08
7.86108e-08
-3.97657e-08
8.55324e-08
-4.15928e-08
9.27208e-08
-4.32982e-08
1.0015e-07
-4.48458e-08
1.0779e-07
-4.62051e-08
1.15606e-07
-4.73524e-08
1.23561e-07
-4.82724e-08
1.31619e-07
-4.89586e-08
1.39742e-07
-4.94131e-08
1.47895e-07
-4.96457e-08
1.56047e-07
-4.96729e-08
1.64171e-07
-4.95157e-08
1.72242e-07
-4.91976e-08
1.80242e-07
-4.87421e-08
1.88155e-07
-4.81707e-08
1.9597e-07
-4.75007e-08
2.03675e-07
-4.67437e-08
2.11263e-07
-4.59052e-08
2.18722e-07
-4.49843e-08
2.26043e-07
-4.39752e-08
2.33211e-07
-4.28678e-08
2.40211e-07
-4.16499e-08
2.47025e-07
-4.03093e-08
2.53633e-07
-3.88352e-08
2.60012e-07
-3.72201e-08
2.66139e-07
-3.54612e-08
2.71991e-07
-3.3561e-08
2.77546e-07
-3.15276e-08
2.82785e-07
-2.9375e-08
2.87691e-07
-2.71216e-08
2.92252e-07
-2.479e-08
2.96458e-07
-2.24054e-08
3.00305e-07
-1.99942e-08
3.03792e-07
-1.75827e-08
3.06924e-07
-1.51951e-08
3.09706e-07
-1.28525e-08
3.12149e-07
-1.05713e-08
3.14263e-07
-8.36129e-09
3.1606e-07
-6.22474e-09
3.1755e-07
-4.15573e-09
3.18738e-07
-2.13977e-09
3.19626e-07
-1.54188e-10
3.2021e-07
1.83006e-09
3.20482e-07
3.84481e-09
3.20429e-07
5.92027e-09
3.20034e-07
8.08219e-09
3.19282e-07
1.03502e-08
3.18156e-07
1.27432e-08
3.1664e-07
1.52779e-08
1.80076e-08
3.14711e-07
-5.99009e-10
-6.8705e-10
-2.45566e-09
7.65337e-09
-4.4441e-09
8.64887e-09
-6.39317e-09
8.41413e-09
-8.27475e-09
7.99415e-09
-1.00726e-08
7.47446e-09
-1.17721e-08
6.86636e-09
-1.33597e-08
6.17658e-09
-1.4823e-08
5.413e-09
-1.61512e-08
4.58405e-09
-1.73346e-08
3.69842e-09
-1.83652e-08
2.76502e-09
-1.9236e-08
1.79275e-09
-1.99419e-08
7.90071e-10
-2.04785e-08
-2.3497e-10
-2.08426e-08
-1.27504e-09
-2.10321e-08
-2.32355e-09
-2.10452e-08
-3.37485e-09
-2.08813e-08
-4.42415e-09
-2.05399e-08
-5.46708e-09
-2.0021e-08
-6.50016e-09
-1.93252e-08
-7.52052e-09
-1.84533e-08
-8.52575e-09
-1.74067e-08
-9.51376e-09
-1.61871e-08
-1.04832e-08
-1.47969e-08
-1.14332e-08
-1.32388e-08
-1.23633e-08
-1.15158e-08
-1.32739e-08
-9.63128e-09
-1.41664e-08
-7.58864e-09
-1.50438e-08
-5.39154e-09
-1.59105e-08
-3.04225e-09
-1.67717e-08
-5.41735e-10
-1.76359e-08
2.11176e-09
-1.85195e-08
4.89625e-09
-1.94116e-08
7.85052e-09
-2.03581e-08
1.09685e-08
-2.13654e-08
1.42437e-08
-2.24313e-08
1.76926e-08
-2.35944e-08
2.13286e-08
-2.4868e-08
2.51656e-08
-2.62627e-08
2.922e-08
-2.77906e-08
3.35099e-08
-2.9457e-08
3.80545e-08
-3.12648e-08
4.28674e-08
-3.32036e-08
4.79697e-08
-3.52664e-08
5.33724e-08
-3.74289e-08
5.90874e-08
-3.96647e-08
6.51198e-08
-4.19371e-08
7.1469e-08
-4.42055e-08
7.8128e-08
-4.64247e-08
8.5083e-08
-4.85478e-08
9.23132e-08
-5.05284e-08
9.97917e-08
-5.23243e-08
1.07486e-07
-5.38995e-08
1.1536e-07
-5.52264e-08
1.23375e-07
-5.62873e-08
1.31491e-07
-5.70749e-08
1.3967e-07
-5.75922e-08
1.47876e-07
-5.78513e-08
1.56075e-07
-5.78722e-08
1.6424e-07
-5.76803e-08
1.72346e-07
-5.7304e-08
1.80376e-07
-5.67719e-08
1.88315e-07
-5.61095e-08
1.96152e-07
-5.53377e-08
2.03879e-07
-5.44704e-08
2.11487e-07
-5.35136e-08
2.18969e-07
-5.24662e-08
2.26314e-07
-5.13204e-08
2.3351e-07
-5.00636e-08
2.40541e-07
-4.86808e-08
2.47388e-07
-4.71565e-08
2.5403e-07
-4.54775e-08
2.60444e-07
-4.36342e-08
2.66606e-07
-4.16226e-08
2.7249e-07
-3.94454e-08
2.78074e-07
-3.71119e-08
2.83338e-07
-3.46382e-08
2.88262e-07
-3.20461e-08
2.92834e-07
-2.93623e-08
2.97045e-07
-2.66162e-08
3.0089e-07
-2.38391e-08
3.04369e-07
-2.10616e-08
3.07486e-07
-1.83123e-08
3.1025e-07
-1.56161e-08
3.12671e-07
-1.29921e-08
3.14761e-07
-1.0452e-08
3.16535e-07
-7.99857e-09
3.18004e-07
-5.62425e-09
3.19175e-07
-3.31099e-09
3.20052e-07
-1.03084e-09
3.2063e-07
1.25149e-09
3.20901e-07
3.57383e-09
3.2085e-07
5.97158e-09
3.20459e-07
8.4733e-09
3.1971e-07
1.10985e-08
3.18589e-07
1.38646e-08
3.1708e-07
1.67871e-08
1.99259e-08
3.15162e-07
-6.30866e-10
-5.61844e-11
-2.51899e-09
9.5415e-09
-4.53796e-09
1.06678e-08
-6.51657e-09
1.03927e-08
-8.42658e-09
9.90416e-09
-1.02515e-08
9.29941e-09
-1.19765e-08
8.59132e-09
-1.35877e-08
7.78775e-09
-1.50725e-08
6.89786e-09
-1.64199e-08
5.93146e-09
-1.76202e-08
4.89868e-09
-1.86652e-08
3.81e-09
-1.95481e-08
2.67563e-09
-2.02636e-08
1.50559e-09
-2.08076e-08
3.09073e-10
-2.11772e-08
-9.05516e-10
-2.137e-08
-2.1307e-09
-2.13849e-08
-3.35999e-09
-2.1221e-08
-4.58798e-09
-2.08782e-08
-5.80987e-09
-2.03567e-08
-7.02168e-09
-1.9657e-08
-8.22019e-09
-1.87802e-08
-9.40254e-09
-1.77277e-08
-1.05663e-08
-1.65015e-08
-1.17094e-08
-1.51039e-08
-1.28307e-08
-1.35381e-08
-1.39291e-08
-1.18072e-08
-1.50047e-08
-9.9151e-09
-1.60586e-08
-7.86566e-09
-1.70933e-08
-5.66288e-09
-1.81133e-08
-3.30994e-09
-1.91246e-08
-8.09608e-10
-2.01362e-08
1.82915e-09
-2.11583e-08
4.63569e-09
-2.22181e-08
7.57662e-09
-2.32991e-08
1.06661e-08
-2.44548e-08
1.3924e-08
-2.56892e-08
1.73513e-08
-2.70218e-08
2.09603e-08
-2.84769e-08
2.47674e-08
-3.00698e-08
2.87901e-08
-3.18133e-08
3.30476e-08
-3.37146e-08
3.75595e-08
-3.57767e-08
4.23461e-08
-3.79901e-08
4.74245e-08
-4.03448e-08
5.28117e-08
-4.28161e-08
5.85189e-08
-4.5372e-08
6.45534e-08
-4.79715e-08
7.09156e-08
-5.05678e-08
7.75992e-08
-5.31083e-08
8.45901e-08
-5.55387e-08
9.18666e-08
-5.78049e-08
9.94001e-08
-5.98578e-08
1.07156e-07
-6.16556e-08
1.15096e-07
-6.31666e-08
1.23179e-07
-6.43703e-08
1.31363e-07
-6.52587e-08
1.39607e-07
-6.58358e-08
1.47872e-07
-6.61165e-08
1.56125e-07
-6.61248e-08
1.64336e-07
-6.58913e-08
1.72482e-07
-6.545e-08
1.80544e-07
-6.48348e-08
1.88511e-07
-6.40764e-08
1.96373e-07
-6.31994e-08
2.04123e-07
-6.222e-08
2.11754e-07
-6.11453e-08
2.19261e-07
-5.99731e-08
2.26634e-07
-5.86935e-08
2.33862e-07
-5.7291e-08
2.40928e-07
-5.5747e-08
2.47814e-07
-5.40424e-08
2.54497e-07
-5.21607e-08
2.60953e-07
-5.00901e-08
2.67156e-07
-4.78253e-08
2.73079e-07
-4.53689e-08
2.78698e-07
-4.27312e-08
2.83991e-07
-3.99311e-08
2.88939e-07
-3.69937e-08
2.93527e-07
-3.39502e-08
2.97746e-07
-3.08349e-08
3.01591e-07
-2.76841e-08
3.05062e-07
-2.45334e-08
3.08166e-07
-2.14163e-08
3.10912e-07
-1.83616e-08
3.13312e-07
-1.53918e-08
3.15381e-07
-1.2521e-08
3.17134e-07
-9.75249e-09
3.18587e-07
-7.0773e-09
3.1975e-07
-4.47349e-09
3.20626e-07
-1.90715e-09
3.21213e-07
6.64527e-10
3.215e-07
3.28658e-09
3.21471e-07
6.00076e-09
3.21106e-07
8.83836e-09
3.20387e-07
1.1818e-08
3.19298e-07
1.49534e-08
3.17828e-07
1.82565e-08
2.17931e-08
3.15961e-07
-6.64053e-10
6.0787e-10
-2.58585e-09
1.14633e-08
-4.63678e-09
1.27188e-08
-6.64601e-09
1.2402e-08
-8.58523e-09
1.18434e-08
-1.04376e-08
1.11518e-08
-1.2188e-08
1.03417e-08
-1.38223e-08
9.42205e-09
-1.53278e-08
8.40339e-09
-1.66933e-08
7.2969e-09
-1.79089e-08
6.11431e-09
-1.89665e-08
4.86762e-09
-1.98596e-08
3.56867e-09
-2.05828e-08
2.22882e-09
-2.11323e-08
8.58545e-10
-2.15052e-08
-5.32599e-10
-2.16997e-08
-1.93624e-09
-2.17146e-08
-3.34509e-09
-2.15495e-08
-4.75309e-09
-2.12042e-08
-6.15511e-09
-2.06792e-08
-7.54668e-09
-1.99752e-08
-8.92418e-09
-1.90932e-08
-1.02845e-08
-1.80349e-08
-1.16246e-08
-1.68024e-08
-1.2942e-08
-1.53981e-08
-1.42349e-08
-1.38254e-08
-1.55019e-08
-1.20878e-08
-1.67423e-08
-1.01895e-08
-1.79569e-08
-8.13492e-09
-1.91479e-08
-5.92847e-09
-2.03197e-08
-3.57412e-09
-2.1479e-08
-1.07489e-09
-2.26355e-08
1.57285e-09
-2.3806e-08
4.34126e-09
-2.49865e-08
7.27817e-09
-2.6236e-08
1.03571e-08
-2.75338e-08
1.35874e-08
-2.89194e-08
1.6985e-08
-3.04194e-08
2.05607e-08
-3.20527e-08
2.43314e-08
-3.38405e-08
2.83156e-08
-3.57974e-08
3.25341e-08
-3.79331e-08
3.70085e-08
-4.02511e-08
4.17611e-08
-4.27427e-08
4.68114e-08
-4.5395e-08
5.2178e-08
-4.81827e-08
5.78748e-08
-5.10687e-08
6.39104e-08
-5.40071e-08
7.02867e-08
-5.69441e-08
7.69978e-08
-5.98194e-08
8.40294e-08
-6.25703e-08
9.13588e-08
-6.51343e-08
9.89555e-08
-6.74545e-08
1.06783e-07
-6.94829e-08
1.14799e-07
-7.11829e-08
1.2296e-07
-7.25315e-08
1.31221e-07
-7.35198e-08
1.39539e-07
-7.41532e-08
1.47872e-07
-7.44498e-08
1.56185e-07
-7.44381e-08
1.64449e-07
-7.41547e-08
1.72639e-07
-7.36399e-08
1.80738e-07
-7.29341e-08
1.88735e-07
-7.20737e-08
1.96623e-07
-7.10875e-08
2.04398e-07
-6.99943e-08
2.12054e-07
-6.8802e-08
2.19589e-07
-6.75073e-08
2.26993e-07
-6.60978e-08
2.34256e-07
-6.45541e-08
2.41362e-07
-6.28533e-08
2.48292e-07
-6.09724e-08
2.55023e-07
-5.8891e-08
2.61527e-07
-5.65944e-08
2.67777e-07
-5.40758e-08
2.73746e-07
-5.13375e-08
2.79406e-07
-4.83912e-08
2.84733e-07
-4.52583e-08
2.89708e-07
-4.19681e-08
2.94314e-07
-3.85564e-08
2.98542e-07
-3.50629e-08
3.02387e-07
-3.15295e-08
3.05851e-07
-2.79973e-08
3.0894e-07
-2.4505e-08
3.11664e-07
-2.10863e-08
3.1404e-07
-1.77675e-08
3.16084e-07
-1.45653e-08
3.17816e-07
-1.14842e-08
3.19253e-07
-8.51388e-09
3.20407e-07
-5.62815e-09
3.21286e-07
-2.78616e-09
3.21887e-07
6.36157e-11
3.22198e-07
2.97568e-09
3.222e-07
5.99893e-09
3.2187e-07
9.16797e-09
3.21189e-07
1.24991e-08
3.20143e-07
1.59996e-08
3.18725e-07
1.96743e-08
2.35924e-08
3.16926e-07
-7.00194e-10
1.30806e-09
-2.65945e-09
1.34226e-08
-4.74571e-09
1.4805e-08
-6.78865e-09
1.44449e-08
-8.75987e-09
1.38146e-08
-1.06423e-08
1.30342e-08
-1.24204e-08
1.21198e-08
-1.40797e-08
1.10814e-08
-1.56075e-08
9.93116e-09
-1.69922e-08
8.68164e-09
-1.82241e-08
7.34622e-09
-1.92951e-08
5.9386e-09
-2.01987e-08
4.47222e-09
-2.09297e-08
2.95988e-09
-2.14846e-08
1.41344e-09
-2.18608e-08
-1.56404e-10
-2.20567e-08
-1.74037e-09
-2.20715e-08
-3.33032e-09
-2.19048e-08
-4.91972e-09
-2.1557e-08
-6.50294e-09
-2.10284e-08
-8.07533e-09
-2.03199e-08
-9.63265e-09
-1.94326e-08
-1.11718e-08
-1.83685e-08
-1.26887e-08
-1.71295e-08
-1.4181e-08
-1.57184e-08
-1.5646e-08
-1.41387e-08
-1.70816e-08
-1.23943e-08
-1.84867e-08
-1.04897e-08
-1.98614e-08
-8.42987e-09
-2.12077e-08
-6.21987e-09
-2.25297e-08
-3.86444e-09
-2.38344e-08
-1.36828e-09
-2.51316e-08
1.25738e-09
-2.64317e-08
4.04529e-09
-2.77745e-08
6.95614e-09
-2.91468e-08
1.00115e-08
-3.05892e-08
1.32145e-08
-3.21224e-08
1.65779e-08
-3.37828e-08
2.01157e-08
-3.55905e-08
2.38448e-08
-3.75695e-08
2.77848e-08
-3.97375e-08
3.19587e-08
-4.2107e-08
3.63902e-08
-4.46827e-08
4.11034e-08
-4.74559e-08
4.61206e-08
-5.04123e-08
5.14632e-08
-5.35253e-08
5.71472e-08
-5.67528e-08
6.31835e-08
-6.00434e-08
6.95752e-08
-6.33359e-08
7.63174e-08
-6.65616e-08
8.33953e-08
-6.96482e-08
9.07851e-08
-7.2524e-08
9.8454e-08
-7.51234e-08
1.06363e-07
-7.73914e-08
1.14466e-07
-7.92863e-08
1.22717e-07
-8.0782e-08
1.31066e-07
-8.18692e-08
1.39467e-07
-8.25546e-08
1.47878e-07
-8.286e-08
1.56259e-07
-8.28195e-08
1.64581e-07
-8.24763e-08
1.72819e-07
-8.18782e-08
1.80958e-07
-8.1073e-08
1.88987e-07
-8.01033e-08
1.96903e-07
-7.90032e-08
2.04703e-07
-7.77943e-08
2.12386e-07
-7.6485e-08
2.1995e-07
-7.50708e-08
2.27388e-07
-7.35359e-08
2.3469e-07
-7.18565e-08
2.41842e-07
-7.00048e-08
2.48822e-07
-6.79525e-08
2.55606e-07
-6.56749e-08
2.62165e-07
-6.31541e-08
2.6847e-07
-6.03811e-08
2.74491e-07
-5.73579e-08
2.80198e-07
-5.40978e-08
2.85564e-07
-5.0625e-08
2.90569e-07
-4.69732e-08
2.95196e-07
-4.31833e-08
2.99435e-07
-3.93013e-08
3.0328e-07
-3.5375e-08
3.06735e-07
-3.14517e-08
3.09806e-07
-2.7576e-08
3.12506e-07
-2.37867e-08
3.14853e-07
-2.01149e-08
3.16869e-07
-1.65806e-08
3.18574e-07
-1.31898e-08
3.19991e-07
-9.93114e-09
3.21137e-07
-6.77389e-09
3.2202e-07
-3.6691e-09
3.22638e-07
-5.54574e-10
3.22978e-07
2.63579e-09
3.23017e-07
5.95995e-09
3.22729e-07
9.4563e-09
3.22091e-07
1.31372e-08
3.21091e-07
1.69997e-08
3.19729e-07
2.10361e-08
2.53156e-08
3.18006e-07
-7.40101e-10
2.04817e-09
-2.74126e-09
1.54237e-08
-4.86698e-09
1.69307e-08
-6.94758e-09
1.65255e-08
-8.95458e-09
1.58216e-08
-1.08705e-08
1.49501e-08
-1.26794e-08
1.39287e-08
-1.43667e-08
1.27687e-08
-1.59192e-08
1.14837e-08
-1.73254e-08
1.00878e-08
-1.85754e-08
8.59621e-09
-1.96612e-08
7.02435e-09
-2.05762e-08
5.38731e-09
-2.13159e-08
3.69953e-09
-2.18767e-08
1.97427e-09
-2.22565e-08
2.23397e-10
-2.2454e-08
-1.5429e-09
-2.24687e-08
-3.31566e-09
-2.23006e-08
-5.08782e-09
-2.195e-08
-6.85353e-09
-2.14176e-08
-8.6077e-09
-2.07043e-08
-1.03459e-08
-1.98117e-08
-1.20644e-08
-1.87412e-08
-1.37592e-08
-1.74953e-08
-1.54269e-08
-1.60768e-08
-1.70645e-08
-1.44893e-08
-1.86691e-08
-1.27372e-08
-2.02388e-08
-1.08255e-08
-2.17732e-08
-8.75952e-09
-2.32736e-08
-6.5451e-09
-2.47441e-08
-4.18777e-09
-2.61917e-08
-1.69231e-09
-2.76271e-08
9.42111e-10
-2.90661e-08
3.7001e-09
-3.05324e-08
6.59757e-09
-3.20443e-08
9.62869e-09
-3.36203e-08
1.28011e-08
-3.52948e-08
1.61277e-08
-3.71095e-08
1.96234e-08
-3.90862e-08
2.33056e-08
-4.12517e-08
2.71963e-08
-4.36282e-08
3.13206e-08
-4.62313e-08
3.57022e-08
-4.90643e-08
4.03702e-08
-5.21239e-08
4.53505e-08
-5.53925e-08
5.0664e-08
-5.88388e-08
5.63325e-08
-6.24213e-08
6.23686e-08
-6.60795e-08
6.87772e-08
-6.97445e-08
7.55541e-08
-7.33385e-08
8.26843e-08
-7.67784e-08
9.01424e-08
-7.99821e-08
9.78934e-08
-8.28744e-08
1.05894e-07
-8.53924e-08
1.14097e-07
-8.74886e-08
1.22449e-07
-8.9134e-08
1.30898e-07
-9.03184e-08
1.39394e-07
-9.10506e-08
1.4789e-07
-9.13565e-08
1.56348e-07
-9.12767e-08
1.64733e-07
-9.08621e-08
1.73024e-07
-9.01691e-08
1.81205e-07
-8.92538e-08
1.89269e-07
-8.81667e-08
1.97213e-07
-8.69472e-08
2.05039e-07
-8.56204e-08
2.12749e-07
-8.41952e-08
2.20343e-07
-8.26651e-08
2.27818e-07
-8.10105e-08
2.35164e-07
-7.92022e-08
2.42365e-07
-7.72063e-08