/*--------------------------------*- C++ -*----------------------------------*\
| =========                 |                                                 |
| \\      /  F ield         | OpenFOAM: The Open Source CFD Toolbox           |
|  \\    /   O peration     | Version:  2.4.0                                 |
|   \\  /    A nd           | Web:      www.OpenFOAM.org                      |
|    \\/     M anipulation  |                                                 |
\*---------------------------------------------------------------------------*/
FoamFile
{
    version     2.0;
    format      ascii;
    class       volScalarField;
    location    "0.114";
    object      alpha.water;
}
// * * * * * * * * * * * * * * * * * * * * * * * * * * * * * * * * * * * * * //

dimensions      [0 0 0 0 0 0 0];

internalField   nonuniform List<scalar> 
14400
(
1
1
1
1
1
1
1
1
1
1
1
1
1
1
1
1
1
1
1
1
1
1
1
1
1
1
1
1
1
1
1
1
1
1
1
1
1
1
1
1
1
1
1
1
1
1
1
1
1
1
1
1
1
1
1
1
1
1
1
1
1
1
1
1
1
1
1
1
1
1
1
1
1
1
1
1
1
1
1
1
1
1
1
1
1
1
1
1
1
1
1
1
1
1
1
1
1
1
1
1
1
1
1
1
1
1
1
1
1
1
1
1
1
1
1
1
1
1
1
1
1
1
1
1
1
1
1
1
1
1
1
1
1
1
1
1
1
1
1
1
1
1
1
1
1
1
1
1
1
1
1
1
1
1
1
1
1
1
1
1
1
1
1
1
1
1
1
1
1
1
1
1
1
1
1
1
1
1
1
1
1
1
1
1
1
1
1
1
1
1
1
1
1
1
1
1
1
1
1
1
1
1
1
1
1
1
1
1
1
1
1
1
1
1
1
1
1
1
1
1
1
1
1
1
1
1
1
1
1
1
1
1
1
1
1
1
1
1
1
1
1
1
1
1
1
1
1
1
1
1
1
1
1
1
1
1
1
1
1
1
1
1
1
1
1
1
1
1
1
1
1
1
1
1
1
1
1
1
1
1
1
1
1
1
1
1
1
1
1
1
1
1
1
1
1
1
1
1
1
1
1
1
1
1
1
1
1
1
1
1
1
1
1
1
1
1
1
1
1
1
1
1
1
1
1
1
1
1
1
1
1
1
1
1
1
1
1
1
1
1
1
1
1
1
1
1
1
1
1
1
1
1
1
1
1
1
1
1
1
1
1
1
1
1
1
1
1
1
1
1
1
1
1
1
1
1
1
1
1
1
1
1
1
1
1
1
1
1
1
1
1
1
1
1
1
1
1
1
1
1
1
1
1
1
1
1
1
1
1
1
1
1
1
1
1
1
1
1
1
1
1
1
1
1
1
1
1
1
1
1
1
1
1
1
1
1
1
1
1
1
1
1
1
1
1
1
1
1
1
1
1
1
1
1
1
1
1
1
1
1
1
1
1
1
1
1
1
1
1
1
1
1
1
1
1
1
1
1
1
1
1
1
1
1
1
1
1
1
1
1
1
1
1
1
1
1
1
1
1
1
1
1
1
1
1
1
1
1
1
1
1
1
1
1
1
1
1
1
1
1
1
1
1
1
1
1
1
1
1
1
1
1
1
1
1
1
1
1
1
1
1
1
1
1
1
1
1
1
0.999999
1
1
1
1
1
1
1
1
1
1
1
1
1
1
1
1
1
1
1
1
1
1
1
1
1
1
1
1
1
0.999992
0.999997
1
1
1
1
1
1
1
1
1
1
1
1
1
1
1
1
1
1
1
1
1
1
1
1
1
1
1
1
0.999996
0.999992
1
1
0.595571
0.940633
1
1
1
1
1
1
1
1
1
1
1
1
1
1
1
1
1
1
1
1
1
1
1
1
1
0.999996
1
0.609557
0.00277254
0.205207
0.9965
1
1
1
1
1
1
1
1
1
1
1
1
1
1
1
1
1
1
1
1
1
1
1
1
0.999996
0.736352
1.19091e-05
0.000207117
0.00697141
0.974836
1
1
1
1
0.999995
1
1
1
1
1
1
1
1
1
1
1
1
1
1
1
1
1
1
0.999999
0.325104
1.83242e-05
2.02553e-07
1.65375e-07
0.00148571
0.817661
0.998086
1
1
0.999996
0.99991
0.999953
1
1
1
1
1
1
1
1
1
1
1
1
1
1
1
1
1
0.913504
0.000250065
1.63116e-06
2.59359e-08
4.76087e-08
0.000523743
0.510563
0.999876
0.999391
1
0.999964
0.999999
0.999956
1
1
1
1
1
1
1
1
1
1
1
1
1
1
1
1
0.996659
0.0599206
1.73711e-05
9.05778e-08
1.3751e-09
4.94564e-07
5.02389e-07
0.107173
0.999987
0.999887
0.999603
0.999999
0.99999
0.999996
1
1
1
1
1
1
1
1
1
1
1
0.987477
1
1
1
1
0.867613
0.000143824
4.72719e-07
1.37083e-09
1.47273e-10
2.15081e-06
0.000177256
0.000984742
0.99999
0.999989
0.999833
0.999936
0.999982
0.999997
0.999973
1
1
1
1
1
1
1
1
1
1
0.98381
1
1
1
0.999996
0.0348575
-2.64256e-06
7.69921e-09
1.95943e-10
1.46721e-10
1.62328e-06
7.64299e-05
0.000801038
0.95377
0.99999
0.99999
0.999888
0.999247
0.999722
0.999975
1
1
1
1
1
1
1
1
1
1
0.962037
1
1
1
0.937534
7.49071e-05
6.06498e-08
4.30222e-10
3.1455e-10
2.92377e-06
4.93625e-06
0.000852057
0.000736277
0.490471
0.99999
0.99999
0.999987
0.998638
0.999067
0.999884
0.999915
1
1
1
1
1
1
1
1
0.999998
0.977366
0.998469
1
0.999979
0.0166577
-1.07527e-06
1.97361e-10
3.13481e-10
2.61534e-10
6.31792e-06
1.78967e-05
0.000330339
0.00293342
0.0206834
0.999411
0.994302
0.990663
0.999845
0.999807
0.999903
0.999996
1
1
1
1
1
1
1
1
1
1
1
1
1
1
1
1
1
1
1
1
1
1
1
1
1
1
1
1
1
1
1
1
1
1
1
1
1
1
1
1
1
1
1
1
1
1
1
1
1
1
1
1
1
1
1
1
1
1
1
1
1
1
1
1
1
1
1
1
1
1
1
1
1
1
1
1
1
1
1
1
1
1
1
1
1
1
1
1
1
1
1
1
1
1
1
1
1
1
1
1
1
1
1
1
1
1
1
1
1
1
1
1
1
1
1
1
1
1
1
1
1
1
1
1
1
1
1
1
1
1
1
1
1
1
1
1
1
1
1
1
1
1
1
1
1
1
1
1
1
1
1
1
1
1
1
1
1
1
1
1
1
1
1
1
1
1
1
1
1
1
1
1
1
1
1
1
1
1
1
1
1
1
1
1
1
1
1
1
1
1
1
1
1
1
1
1
1
1
1
1
1
1
1
1
1
1
1
1
1
1
1
1
1
1
1
1
1
1
1
1
1
1
1
1
1
1
1
1
1
1
1
1
1
1
1
1
1
1
1
1
1
1
1
1
1
1
1
1
1
1
1
1
1
1
1
1
1
1
1
1
1
1
1
1
1
1
1
1
1
1
1
1
1
1
1
1
1
1
1
1
1
1
1
1
1
1
1
1
1
1
1
1
1
1
1
1
1
1
1
1
1
1
1
1
1
1
1
1
1
1
1
1
1
1
1
1
1
1
1
1
1
1
1
1
1
1
1
1
1
1
1
1
1
1
1
1
1
1
1
1
1
1
1
1
1
1
1
1
1
1
1
1
1
1
1
1
1
1
1
1
1
1
1
1
1
1
1
1
1
1
1
1
1
1
1
1
1
1
1
1
1
1
1
1
1
1
1
1
1
1
1
1
1
1
1
1
1
1
1
1
1
1
1
1
1
1
1
1
1
1
1
1
1
1
1
1
1
1
1
1
1
1
1
1
1
1
1
1
1
1
1
1
1
1
1
1
1
1
1
1
1
1
1
1
1
1
1
1
1
1
1
1
1
1
1
1
1
1
1
1
1
1
1
1
1
1
1
1
1
1
1
1
1
1
1
1
1
1
1
1
1
1
1
1
1
1
1
1
1
1
1
1
1
1
1
1
1
1
1
1
1
1
1
1
1
1
1
1
1
1
1
1
1
1
1
1
1
1
1
1
1
1
1
1
1
1
1
1
1
1
1
1
1
1
1
1
1
1
1
1
1
1
1
1
1
1
1
1
1
1
1
1
1
1
1
1
1
1
1
1
1
1
1
1
1
1
1
1
1
1
1
1
1
1
1
1
1
1
1
1
1
1
1
1
1
1
1
1
1
1
1
1
1
1
1
1
1
1
0.999994
1
1
1
1
1
1
1
1
1
1
1
1
1
1
1
1
1
1
1
1
1
1
1
1
0.999665
0.222197
0.981988
1
1
0.999994
0.999995
1
1
1
1
1
1
1
1
1
1
1
1
1
1
1
1
1
1
1
1
1
1
1
0.96194
0.00282791
0.0272118
0.999996
1
1
1
1
1
1
1
1
1
1
1
1
1
1
1
1
1
1
1
1
1
1
1
1
1
1
0.343738
0.000594808
1.48319e-06
0.0454699
0.931001
1
1
1
1
1
1
1
1
1
1
1
1
1
1
1
1
1
1
1
0.999976
0.999992
1
1
1
0.990891
0.000509594
1.1973e-06
1.50384e-06
1.79617e-06
0.000189143
0.891377
1
1
1
1
1
1
1
1
1
1
1
1
1
1
1
1
1
0.999996
0.999995
0.999976
0.999999
1
1
0.994138
0.00079876
1.11945e-06
1.10742e-06
1.19485e-06
2.1642e-05
0.0340633
0.992414
1
1
1
1
1
1
1
1
1
1
1
1
1
1
1
1
0.999986
1
1
1
0.999137
0.999597
0.898102
0.000406409
1.08197e-06
1.09992e-06
1.31857e-06
1.14996e-06
8.5353e-05
0.791198
1
1
1
1
1
1
1
1
1
1
1
1
1
1
1
1
0.99999
0.998864
0.999998
1
0.999999
1
0.541214
0.000666152
1.00661e-05
1.47049e-06
6.1844e-06
8.72798e-07
1.5064e-06
0.014302
0.992569
1
1
1
1
1
1
1
1
1
1
1
1
1
1
0.999997
0.999991
0.998845
0.999817
0.999996
1
1
0.111368
4.06885e-05
3.16361e-06
9.15641e-05
4.31929e-05
1.72661e-06
1.05733e-07
1.27791e-05
0.600553
1
1
1
1
1
1
1
1
1
1
1
1
1
0.999993
0.999967
0.999993
0.999824
0.999809
0.999999
1
0.932307
0.00594752
0.000166564
1.45254e-06
0.000120411
5.34195e-06
5.81417e-05
3.6011e-08
-5.98835e-07
0.00991256
0.991971
1
1
1
1
1
1
1
1
1
1
1
1
1
0.999977
0.999994
0.998726
0.998735
0.999703
1
0.403477
0.00427487
1.12326e-05
0.000144493
5.20516e-05
0.000110939
3.18842e-05
3.58468e-08
2.71045e-08
1.3041e-05
0.426606
0.999999
1
1
1
1
1
0.999924
0.97737
1
0.999998
0.473335
1.26208e-05
-2.86016e-08
3.53073e-10
3.80838e-10
8.67814e-10
1.52921e-10
2.38877e-05
7.15224e-06
0.000421898
0.00358604
0.592048
0.997197
0.999627
0.999848
0.999494
1
1
1
1
1
1
1
1
1
1
0.999984
0.977639
1
0.999779
0.00550915
4.68937e-07
-4.21726e-10
1.89309e-10
3.13082e-10
8.14938e-11
2.01856e-06
2.38861e-05
8.671e-06
1.85372e-05
0.000485405
0.0217465
0.996911
0.985457
0.999842
0.999889
1
1
1
1
1
1
1
1
1
1
0.999893
0.988076
0.999993
0.256862
1.81086e-05
2.51788e-08
1.46652e-10
1.28702e-10
3.69455e-10
7.92067e-11
0.000159449
2.36171e-05
1.20305e-06
0.000315381
0.000144354
0.000628788
0.448825
0.992863
0.999128
0.999474
1
1
1
1
1
1
1
1
1
0.709043
0.999443
0.999843
0.779875
0.000186815
-2.72512e-07
7.6479e-10
1.46148e-10
1.49955e-10
2.08246e-10
7.96259e-11
4.37336e-05
2.1826e-06
9.16552e-07
4.71903e-07
4.74243e-05
0.00013446
0.00287988
0.951907
0.999584
0.998034
1
1
0.999999
0.999979
1
1
1
1
1
0.0921228
0.999727
0.887999
0.438831
-2.63705e-05
7.07034e-08
2.39461e-10
1.28447e-10
2.00225e-10
3.63549e-08
8.08082e-11
5.96524e-06
0.000298782
7.8442e-07
3.87193e-07
2.27695e-06
2.03163e-05
0.00020316
0.10327
0.999677
0.997966
0.997033
0.997663
0.997693
1
1
1
1
1
1
0.0179387
0.976962
0.917131
0.0815695
9.42466e-07
6.82237e-09
7.84222e-10
1.7717e-10
2.70388e-10
3.80284e-08
2.99916e-10
1.93401e-07
0.00030759
2.00442e-05
1.34778e-06
1.8695e-06
4.32726e-06
2.0057e-05
0.000509234
0.739662
0.99996
0.998757
0.998454
0.999618
1
1
1
1
1
1
0.000898391
0.867954
0.818639
0.0163909
2.25407e-05
1.8565e-06
9.39516e-09
2.12008e-10
3.60769e-10
9.14759e-09
4.11821e-10
1.32174e-09
0.000213209
0.000296937
2.0713e-06
2.17185e-06
1.1234e-05
0.000121888
5.99669e-05
0.000361748
0.999848
0.999997
0.999999
1
1
1
1
1
1
1
6.77455e-05
0.546722
0.762543
3.90576e-05
3.27911e-07
7.1106e-05
1.19347e-10
2.77239e-10
4.74465e-10
3.42684e-10
1.58135e-07
1.31353e-09
0.000135127
0.000153057
1.7403e-05
2.05433e-06
2.03536e-06
7.23327e-05
6.0609e-05
3.50782e-05
0.00679741
0.995078
0.999916
0.999994
1
1
1
1
1
1
2.12334e-05
0.115884
0.232186
-1.37522e-07
1.57349e-07
0.000132351
4.54335e-11
5.47157e-10
6.47132e-10
4.91164e-10
1.67828e-06
5.05456e-06
0.000596053
6.99568e-05
0.000109634
2.02921e-06
2.06039e-06
0.000161034
6.17127e-05
0.000340854
3.85723e-06
1.07791e-05
0.560146
0.986799
0.999834
0.999975
0.999989
0.999995
0.999997
0.999996
1.70938e-05
0.0171359
0.0147261
1.7848e-06
1.67244e-07
4.80567e-11
2.27597e-11
9.67102e-10
8.5062e-10
8.768e-06
4.51071e-07
3.25518e-07
0.000599249
0.000539138
5.7711e-05
8.61863e-06
9.756e-06
0.000162865
0.000164033
0.000350774
3.71182e-06
3.45567e-06
3.42491e-06
4.16844e-06
0.251249
0.693604
0.888501
0.969575
0.992856
0.997887
5.49286e-08
0.003134
0.0137626
6.14846e-05
4.37688e-11
7.68861e-11
1.4125e-11
2.89433e-09
2.33731e-09
5.11302e-05
3.51433e-05
3.59513e-08
0.000405928
0.000461054
0.000164818
5.71625e-06
5.30871e-05
0.000124647
0.000161765
3.55565e-05
0.00029506
3.45183e-06
3.45022e-06
3.44804e-06
2.78541e-06
5.99165e-07
1.92743e-07
9.44263e-08
1.17385e-08
0.00417611
1.62535e-06
0.000292718
0.00689773
1.087e-08
4.11732e-11
6.6098e-11
1.63745e-11
2.31298e-09
1.23462e-08
2.38824e-05
2.30587e-08
2.04071e-07
2.2049e-07
0.000215695
0.000199624
0.0001935
1.53702e-05
2.8189e-05
2.84391e-05
3.18703e-05
0.000448408
0.000315755
3.431e-06
3.44223e-06
5.39593e-05
5.01637e-05
1.88641e-05
1.28288e-07
1.1383e-08
3.55298e-09
5.86276e-06
1.52331e-06
0.00310641
2.15884e-12
2.77141e-11
4.86374e-12
1.72955e-11
4.27661e-10
4.93242e-07
4.85987e-05
1.69477e-08
6.22627e-07
3.27032e-07
7.74728e-06
4.28345e-05
2.83368e-05
2.39212e-05
2.51075e-05
0.000187824
0.000160918
0.000265603
0.000455401
0.000313121
7.24678e-06
4.60749e-05
4.65412e-05
5.27231e-05
8.85383e-05
1.1697e-05
5.4229e-08
3.52414e-25
1.15924e-06
0.00464998
-1.20706e-10
5.96329e-12
1.94537e-12
1.78728e-11
1.43705e-10
1.21071e-06
6.42032e-05
1.69385e-08
1.86309e-08
6.57089e-07
2.35498e-06
0.000223545
0.000122505
5.1574e-05
0.000191189
0.000108166
1.376e-06
1.16645e-06
0.000160074
4.00578e-05
1.13744e-06
1.12958e-06
0.000877246
0.000889239
0.000165206
4.00304e-06
3.50784e-07
4.80226e-23
3.89483e-07
0.00241011
-2.30345e-10
7.05092e-13
1.12909e-12
2.66097e-11
1.81133e-10
6.91777e-05
6.46825e-05
2.89884e-08
7.18951e-07
4.02928e-07
9.31168e-08
4.33018e-05
0.000164935
0.000160572
5.91607e-05
1.09764e-06
1.07937e-06
1.07951e-06
1.03527e-06
1.09461e-06
1.09983e-06
1.11775e-06
0.000798623
0.000892577
0.000903278
7.43027e-06
4.43022e-07
5.49564e-17
5.96304e-09
0.0150349
-2.75278e-10
1.36962e-13
9.38536e-13
3.56146e-11
1.86925e-10
6.14768e-05
0.000145898
1.31879e-08
1.08808e-09
7.24442e-07
5.77709e-07
9.24432e-08
4.78465e-07
1.00946e-05
1.04393e-06
1.0345e-06
5.41643e-06
1.07811e-06
1.09146e-06
1.09228e-06
4.729e-06
1.20559e-06
0.000892577
0.00089832
1.16963e-05
3.58293e-07
6.1863e-08
3.26696e-16
5.962e-09
0.0167601
2.93106e-15
3.81192e-14
1.39979e-12
9.84471e-11
3.5183e-10
9.10197e-05
5.69086e-05
3.06817e-06
9.82051e-10
7.22295e-10
3.92459e-07
8.49198e-07
1.04084e-05
9.41887e-06
9.50864e-07
7.90836e-06
1.68408e-05
1.68162e-05
1.94688e-06
2.67947e-06
2.23106e-06
0.000891998
0.000913948
0.000711417
2.6473e-06
1.27028e-07
2.09874e-08
3.53725e-13
4.64136e-12
0.000441282
1.51378e-10
1.88897e-14
2.04515e-12
1.63459e-10
1.6125e-08
5.3129e-05
1.7589e-06
2.28626e-06
3.10359e-08
3.99104e-09
6.43169e-10
8.0004e-10
7.48001e-06
2.58399e-06
3.79148e-06
7.58387e-06
1.69075e-05
1.68666e-05
1.2847e-06
1.24405e-08
0.000918012
0.000911038
0.000918306
3.88509e-06
1.08834e-07
1.81468e-08
1.1954e-08
3.3576e-14
5.53893e-12
-2.64536e-10
3.50027e-11
1.50793e-14
2.64583e-12
3.91397e-11
1.51175e-06
3.0867e-05
1.30302e-06
9.84168e-08
1.5102e-07
1.37224e-07
3.62973e-10
4.28444e-08
5.98095e-09
3.41648e-06
3.01657e-06
7.52072e-09
1.10977e-08
1.39365e-08
4.96928e-09
4.17433e-09
0.000920123
0.000918522
2.38521e-05
7.47274e-08
4.40248e-08
6.71271e-07
4.02643e-07
1.60641e-15
9.99176e-13
8.52302e-12
7.11625e-13
1.16274e-14
2.69591e-12
4.02367e-11
1.54367e-06
3.68502e-05
1.08031e-06
0.000142262
1.41423e-06
4.33038e-09
3.25872e-10
1.55307e-10
3.2112e-10
1.06701e-09
1.43556e-09
9.71091e-08
4.19268e-08
2.54458e-08
1.03432e-07
4.12944e-07
3.43377e-09
3.71685e-08
3.14234e-08
4.99504e-08
6.75375e-07
3.1118e-07
1.73448e-08
3.62424e-17
9.74434e-14
2.25427e-11
1.63988e-14
7.45871e-15
1.99235e-12
2.9854e-11
5.44818e-08
9.46597e-05
7.5607e-06
0.000250517
0.000110027
2.76896e-09
4.16771e-09
1.14526e-10
3.82315e-10
1.07516e-09
1.76579e-09
1.22915e-07
2.6347e-07
7.54321e-08
3.44029e-09
2.87036e-09
3.01346e-09
3.45435e-09
1.14752e-07
1.21515e-07
1.01887e-07
5.04828e-05
5.23905e-05
3.49856e-19
3.20656e-15
1.0371e-12
5.45151e-16
3.12854e-15
9.09674e-13
1.0994e-10
1.03464e-09
9.50554e-05
9.72689e-06
0.000250472
1.71967e-08
2.36222e-09
3.50482e-09
2.56524e-11
1.36222e-10
3.05833e-10
4.20501e-10
1.23466e-09
3.26243e-09
2.15408e-09
3.05724e-09
2.95943e-09
2.89492e-08
7.58142e-09
1.58428e-05
0.00011887
0.000119078
5.55646e-05
0.000182993
1.37375e-21
2.82056e-17
2.10261e-14
4.13824e-18
1.04023e-15
4.37908e-13
3.22608e-11
1.30446e-08
3.65917e-06
0.000197454
9.10784e-05
3.25521e-07
7.71131e-08
4.05713e-11
1.03088e-11
4.99512e-11
2.01195e-10
5.54682e-10
9.08713e-09
1.92924e-09
1.36773e-09
1.57091e-09
1.47962e-09
4.2417e-09
2.62349e-07
7.99192e-05
3.47057e-05
0.000275308
0.000313127
0.000323122
2.12894e-24
6.81807e-20
7.91827e-17
6.755e-21
7.24209e-17
5.5924e-14
8.38505e-12
5.48564e-11
1.11053e-07
1.97866e-07
2.37544e-07
2.45431e-06
4.78755e-09
4.41763e-11
4.20064e-12
1.92695e-11
1.28265e-10
2.75896e-10
2.50296e-09
2.60221e-05
9.70233e-07
1.46393e-09
-2.10394e-07
0.00235165
0.00112004
0.000528842
0.000162629
6.31061e-06
0.000190431
0.000179123
1.30039e-27
4.93034e-23
2.95175e-20
2.34333e-23
1.48016e-18
1.74448e-15
5.13096e-13
4.01708e-11
4.16004e-08
2.54447e-07
2.43365e-06
1.66331e-06
7.13698e-11
4.90602e-11
1.62908e-12
3.64944e-12
4.5903e-11
2.49163e-10
7.33166e-10
1.13488e-05
3.01648e-05
1.03019e-05
0.0023296
0.00237749
0.00110193
0.000782128
3.25228e-08
7.5938e-09
7.94272e-08
9.2548e-07
3.12989e-31
1.76143e-26
3.54025e-26
6.76579e-26
7.36561e-21
1.59763e-17
9.69606e-15
2.31829e-12
1.25829e-10
8.43035e-08
2.39846e-08
4.8694e-11
3.52426e-11
6.95223e-12
2.73886e-13
2.31834e-13
5.52225e-12
5.90242e-11
3.05026e-10
4.06833e-10
6.73306e-08
3.87877e-05
9.01824e-06
5.0715e-07
6.16264e-08
4.34438e-08
1.66092e-09
1.85142e-09
5.62193e-09
8.58747e-07
3.40244e-35
3.97736e-30
1.10153e-29
3.457e-29
4.57984e-24
2.09145e-20
3.09739e-17
2.43797e-14
3.77957e-12
8.54316e-11
4.90727e-11
1.6708e-11
3.06369e-12
1.68581e-13
9.90974e-16
4.41602e-15
2.10219e-13
4.55207e-12
4.68845e-11
2.22718e-10
3.07844e-10
2.47342e-09
1.05418e-06
9.70458e-10
5.97867e-10
6.61046e-10
1.24963e-09
1.20219e-09
2.84012e-08
2.51187e-08
3.01432e-39
5.86416e-34
5.85254e-33
1.80118e-32
2.24785e-28
2.8002e-24
1.27169e-20
3.71089e-17
2.16203e-14
7.28491e-13
2.83231e-13
7.82832e-14
2.56592e-15
7.31742e-18
1.18537e-19
3.02125e-17
3.21673e-15
1.44073e-13
2.54242e-12
2.05048e-11
8.94143e-11
1.07569e-10
1.89628e-10
4.48774e-10
4.20284e-10
4.83178e-10
6.65616e-10
1.30825e-09
2.60282e-08
8.63218e-09
3.08936e-43
7.95719e-38
2.92905e-36
2.0525e-35
4.48057e-34
1.80195e-29
3.44283e-25
4.66253e-21
1.65272e-17
8.70952e-16
7.48565e-17
3.88128e-18
7.32513e-21
1.3779e-25
1.20212e-22
8.73546e-20
2.17326e-17
1.68326e-15
4.89114e-14
6.26016e-13
4.09783e-12
1.56088e-11
3.92557e-11
6.09852e-11
6.62954e-11
7.50437e-11
1.05143e-10
3.80158e-10
3.2549e-10
2.46086e-10
5.91201e-47
1.51968e-41
1.3411e-39
1.67318e-38
1.15049e-37
2.77515e-36
2.87409e-31
2.67905e-26
1.26602e-21
5.45237e-20
1.50307e-22
6.72526e-26
8.24905e-31
2.29172e-30
3.0355e-26
9.67575e-23
5.40692e-20
7.7861e-18
3.74951e-16
7.39924e-15
7.09806e-14
3.80149e-13
1.27408e-12
2.75998e-12
3.59776e-12
3.83658e-12
5.27222e-12
1.50126e-11
1.51908e-11
1.22579e-11
1
1
1
1
1
1
1
1
0.999987
0.999981
0.99999
0.999998
0.999999
0.999999
0.00520956
0.00184082
2.62211e-06
0.0010572
1.75571e-05
0.000115824
0.000388037
3.66168e-08
1.88187e-09
-5.58711e-07
0.000145295
0.921162
1
1
1
1
1
1
1
1
1
1
1
1
1
1
0.999244
0.999922
0.999998
0.693771
0.000920211
0.00125736
3.12982e-06
0.00106283
1.4258e-05
0.000242388
0.000519771
1.67453e-07
7.14319e-10
4.87258e-09
3.84957e-06
0.276761
1
1
1
1
1
1
1
1
1
1
1
1
1
1
0.999241
0.999951
0.999946
0.0149822
0.000215221
0.000230231
1.05076e-05
0.00107745
0.00021172
1.58592e-05
0.000288322
1.10183e-05
5.30009e-10
-2.17728e-10
-9.31808e-07
0.0420325
0.999153
1
1
1
1
1
1
1
1
0.999974
1
0.999999
1
0.999871
0.999676
0.999918
0.42212
0.000300322
3.70848e-05
0.000195211
0.000145963
0.00107794
0.000589643
2.61778e-06
0.00010282
1.77909e-05
2.33965e-10
1.92528e-10
2.99885e-08
6.08098e-05
0.954289
1
1
0.99969
1
1
1
1
1
0.999998
0.999806
0.997572
0.998913
0.997536
0.999808
0.973127
0.00189136
5.08785e-05
2.57725e-05
5.53845e-05
0.000376056
0.00104567
2.34388e-05
3.96534e-06
0.000511014
1.76843e-05
1.60843e-10
7.71952e-11
1.50825e-10
-5.77858e-06
0.000512867
0.999128
1
0.995932
1
1
1
1
1
1
0.999788
0.997659
0.997555
0.9994
0.999774
0.0770226
4.68993e-05
2.36816e-05
2.47295e-05
3.52107e-05
0.00104098
0.00105953
2.59429e-05
1.71609e-05
6.88893e-05
9.40456e-06
1.88774e-10
3.49849e-11
3.49916e-08
2.25659e-07
6.50087e-06
0.762212
0.998861
0.923599
1
1
1
1
1
1
1
1
0.999996
0.999983
0.534631
0.000134171
3.24789e-05
2.3805e-05
2.3786e-05
0.000485651
0.000316807
0.00106021
2.10166e-07
2.56328e-05
0.000234306
7.46613e-06
2.1102e-10
3.50212e-11
3.08609e-11
8.22586e-06
1.36107e-06
7.57458e-06
0.881536
0.374726
1
1
1
1
1
1
0.999999
0.999987
0.999953
0.801829
6.1653e-05
1.37962e-06
9.38747e-05
6.02287e-05
2.42541e-05
7.36721e-05
0.000607133
5.663e-06
4.33031e-08
7.31462e-05
0.000139106
7.72768e-07
2.79232e-10
4.33266e-11
3.02929e-11
2.05123e-05
1.82962e-07
1.0546e-09
0.00138815
1.66507e-05
0.999995
0.999995
0.999994
0.999991
0.99998
0.999954
0.999763
0.972263
0.444256
2.63003e-07
2.27381e-07
2.8807e-07
9.62098e-05
2.39382e-05
2.41728e-05
0.000561599
7.39452e-05
2.8047e-07
1.85831e-08
2.31683e-07
0.000114015
1.82877e-09
7.42801e-10
6.35865e-11
2.64838e-11
5.879e-11
6.74664e-11
1.53387e-09
3.39219e-06
0.000202436
0.998444
0.997541
0.988768
0.950754
0.847155
0.617071
0.210453
-3.03541e-06
2.10302e-09
3.71407e-07
1.5247e-07
9.38938e-05
5.42512e-05
2.38384e-05
2.6253e-05
0.00062423
0.000637046
6.61773e-08
2.68556e-06
3.29049e-07
0.00011054
7.57016e-09
6.49607e-09
6.72771e-11
1.91583e-11
6.62937e-10
2.42572e-10
1.26468e-07
5.79779e-05
4.90076e-05
0.0128514
0.00291383
2.0954e-09
1.29561e-09
1.1642e-09
6.83869e-10
6.36639e-10
5.73375e-10
5.83585e-10
4.86836e-10
5.66055e-10
9.23415e-05
2.38022e-05
2.3874e-05
0.000177128
0.000500628
7.62119e-05
6.60734e-08
8.83666e-06
7.10583e-07
0.000105602
1.26044e-05
2.11817e-08
4.86302e-11
1.14022e-11
2.1992e-10
3.25706e-10
4.66129e-10
4.10942e-08
4.60582e-08
3.44252e-09
5.35795e-09
3.5735e-09
2.53957e-09
2.48351e-09
3.71157e-08
1.57813e-09
1.09993e-09
1.28075e-09
7.03426e-10
4.35407e-05
6.67025e-05
0.000374067
2.75639e-05
6.83193e-05
0.000264612
4.43725e-05
7.38711e-08
3.11367e-06
0.000170627
3.61428e-05
6.55786e-05
3.2123e-10
5.25455e-11
5.78102e-12
9.00443e-11
2.33829e-10
4.67965e-10
7.79614e-06
5.70752e-05
3.02674e-07
5.7905e-09
3.21734e-09
2.8784e-09
8.42379e-07
5.25166e-08
6.14902e-09
2.50114e-08
4.92088e-09
8.94964e-10
1.42149e-05
5.05007e-05
0.000516392
0.000239987
3.56628e-05
0.0014809
3.0437e-05
7.38729e-08
9.92589e-07
1.49246e-07
4.81904e-06
3.58932e-05
1.07255e-10
3.63673e-11
2.74231e-12
3.40384e-11
1.21235e-10
3.83036e-10
4.34323e-05
5.14821e-15
2.82498e-08
9.60034e-09
3.6041e-09
7.60987e-07
5.54811e-06
1.10627e-07
1.74614e-07
5.01318e-05
4.16864e-06
1.22165e-07
9.67132e-05
7.30829e-05
0.00135688
0.00186716
0.00183913
0.00183275
2.85128e-07
2.95709e-06
6.32519e-08
1.24849e-07
2.48645e-05
3.13841e-05
2.70215e-10
4.86277e-11
1.49819e-12
1.70685e-11
5.16124e-11
4.69066e-10
7.09056e-06
6.71324e-15
1.85486e-07
1.39352e-08
1.71234e-07
1.03957e-06
4.24378e-06
3.90052e-07
7.39852e-05
7.40893e-05
1.28589e-06
6.78961e-05
6.33632e-05
6.32891e-05
0.000573545
0.00186952
0.00187064
3.85363e-05
2.16642e-07
2.09606e-06
2.03805e-06
1.79694e-06
7.82487e-07
4.86269e-06
1.28158e-10
5.12578e-11
1.07794e-12
7.31556e-12
1.84247e-11
2.12978e-10
7.22782e-11
8.5954e-11
1.17015e-07
0.000649132
0.00358337
0.00500744
0.000496187
2.65834e-05
7.03204e-05
1.93637e-06
8.87584e-07
2.05259e-05
0.000170001
0.000115033
4.72218e-06
0.000124111
1.37851e-06
1.4406e-08
8.88495e-07
1.70053e-06
9.09346e-07
2.53143e-07
5.51844e-07
7.17312e-06
1.4431e-10
6.58282e-11
8.62262e-13
2.66711e-12
6.17806e-12
4.69288e-11
1.08582e-10
2.83811e-11
1.57599e-05
0.000363241
0.00519611
0.00520487
0.00326688
3.15231e-06
6.60967e-07
7.57807e-07
9.64296e-07
7.56871e-05
0.000170001
2.70944e-08
1.86762e-08
1.10915e-08
1.35392e-09
1.04701e-08
1.0454e-09
4.66097e-10
4.80204e-10
4.83775e-10
1.35076e-05
3.32353e-05
3.13188e-10
4.56898e-11
4.81289e-13
7.91643e-13
1.99111e-12
1.18536e-11
4.27103e-11
1.4399e-11
6.97076e-09
6.94878e-09
7.31146e-09
2.51517e-05
3.20689e-05
8.7448e-06
0.000965579
4.99895e-05
4.52515e-06
0.000164924
6.06354e-05
0.000151384
0.000151294
6.65214e-10
6.23337e-10
6.42657e-10
5.28866e-10
5.17461e-10
4.94173e-10
4.5329e-10
6.07492e-05
1.70718e-05
1.65859e-10
2.37284e-11
2.82099e-13
1.81919e-13
5.26344e-13
2.87689e-12
1.43728e-11
2.52352e-12
7.14323e-09
7.07193e-09
5.72039e-05
3.99429e-05
1.49231e-05
0.00097321
0.000993383
0.000662913
6.6175e-06
1.11916e-05
0.000105473
3.72395e-08
3.67736e-08
1.61255e-08
5.65099e-10
3.19489e-10
1.67359e-10
1.85642e-10
5.99501e-10
4.53295e-10
5.64332e-05
2.02581e-06
1.41288e-10
2.02453e-11
2.12072e-13
3.08682e-14
1.04332e-13
4.57688e-13
2.41714e-12
1.73783e-13
2.05221e-06
6.91255e-05
6.04296e-05
1.01347e-06
7.02511e-06
0.00099516
0.00099516
1.96029e-05
4.6143e-06
6.69054e-05
1.18887e-05
2.22759e-07
3.75433e-07
2.38861e-08
4.10613e-10
1.73184e-10
1.23454e-10
2.03485e-06
1.84477e-06
5.4551e-07
1.93487e-06
6.28954e-06
8.80206e-11
1.96714e-11
1.58043e-13
3.77656e-15
1.44253e-14
4.50353e-14
1.77784e-13
6.19923e-15
2.22858e-05
1.07436e-05
1.33949e-07
2.83085e-07
1.63985e-06
3.04851e-05
0.00010912
2.98268e-06
3.3925e-06
2.19981e-06
1.62542e-09
2.71268e-08
6.08031e-10
6.81854e-10
2.5059e-10
8.06073e-11
5.03091e-09
2.78565e-07
5.2875e-06
2.84715e-05
2.65687e-06
6.34223e-06
6.98636e-11
9.92634e-12
9.29144e-14
4.11643e-16
1.27455e-15
2.92654e-15
5.12542e-15
1.28337e-16
0.000290361
5.16627e-08
5.63955e-08
1.2661e-07
7.48266e-07
0.000112877
0.000121896
0.000114913
3.66015e-09
1.73851e-09
1.39321e-09
6.32844e-10
5.54003e-10
4.27779e-10
1.17311e-10
3.00646e-11
2.15953e-07
2.17491e-07
6.73602e-06
3.11799e-06
0.000149046
2.39325e-10
1.16229e-10
4.99794e-12
4.06935e-14
7.01511e-17
6.58036e-17
1.2648e-16
5.88443e-17
1.44321e-18
3.78157e-05
8.32845e-07
1.76763e-08
1.69445e-07
1.83728e-05
0.000122373
3.15866e-05
9.64424e-08
3.67402e-09
3.94055e-06
9.1812e-07
9.48185e-10
4.2981e-10
1.41481e-10
2.8006e-11
2.03792e-11
1.29653e-10
0.000132704
1.09184e-05
7.97756e-06
0.000153968
1.34604e-10
8.88004e-11
1.73949e-12
1.03089e-14
1.221e-17
1.84065e-18
3.19465e-18
4.57753e-19
9.31235e-21
4.78623e-08
7.31975e-09
8.22306e-09
3.15981e-08
8.49949e-07
5.84214e-08
6.6098e-09
4.67321e-09
4.90956e-06
2.44944e-05
1.6317e-05
4.33025e-10
3.40149e-10
8.75302e-11
8.11553e-12
3.57315e-11
1.58653e-09
0.000158921
7.94709e-05
0.000126039
3.2729e-06
2.33147e-10
1.88822e-11
3.82748e-13
1.81557e-15
1.60876e-18
2.65634e-20
4.19931e-20
3.54807e-21
4.67169e-23
1.97907e-08
1.71754e-08
5.74974e-08
1.16702e-08
1.32376e-08
1.51496e-08
5.81725e-09
1.26323e-05
6.91084e-07
1.1313e-05
5.09178e-08
3.01779e-10
1.52757e-10
2.28407e-11
9.81014e-13
2.67186e-11
3.42859e-09
0.000158907
0.000158848
0.000129979
1.00482e-10
5.45683e-11
3.07496e-12
4.222e-14
1.3824e-16
8.57738e-20
1.92999e-22
2.73192e-22
1.59033e-23
1.17469e-25
7.45866e-06
1.24748e-05
2.89966e-08
7.86754e-06
1.28778e-05
1.8337e-06
6.11123e-09
1.82215e-05
1.2403e-05
9.49607e-10
1.25565e-10
1.07465e-10
2.74935e-11
2.02617e-12
3.86118e-14
6.22728e-11
2.28628e-10
5.84456e-05
0.000158788
1.85897e-10
2.90472e-10
1.74459e-11
2.69877e-13
1.55551e-15
2.80099e-18
1.07735e-21
6.87687e-25
8.61326e-25
3.58515e-26
1.45448e-28
1.82952e-09
9.98094e-06
1.36169e-05
3.99249e-08
1.16217e-05
2.72632e-06
1.08581e-09
3.0662e-07
1.89619e-08
3.48798e-10
9.93169e-11
1.70296e-11
1.49554e-12
5.20559e-14
4.77282e-16
2.77064e-12
4.70569e-11
1.18267e-10
1.60138e-09
4.04968e-10
3.06826e-11
4.6321e-13
3.31406e-15
9.94586e-18
9.71661e-21
2.10617e-24
1.1395e-27
1.3222e-27
4.05741e-29
9.05085e-32
1.02911e-09
5.82198e-10
2.33182e-08
1.7039e-09
3.68717e-10
2.1956e-10
5.02036e-10
3.92222e-10
1.26932e-10
3.18228e-11
5.25552e-12
4.89881e-13
2.21608e-14
3.9073e-16
1.84131e-18
4.53474e-15
2.66513e-12
9.3112e-11
1.75049e-10
3.88873e-11
2.77212e-13
1.38948e-15
4.03984e-18
5.13485e-21
2.25863e-24
2.32874e-28
9.17039e-31
1.02902e-30
2.37123e-32
3.01738e-35
1.89999e-10
2.44218e-10
3.05181e-10
1.39229e-10
1.20956e-10
6.5663e-11
4.40693e-11
2.07823e-11
5.67375e-12
1.10171e-12
1.26348e-13
6.94662e-15
1.48966e-16
1.18157e-18
2.67796e-21
1.24973e-20
8.44801e-16
5.40941e-13
4.72665e-12
1.17611e-13
1.75561e-16
2.28807e-19
1.90944e-22
7.58575e-26
1.12534e-29
4.6758e-34
4.08533e-34
4.43431e-34
7.9027e-36
6.00429e-39
1.03979e-11
9.72817e-12
7.3086e-12
5.53373e-12
4.00366e-12
2.47956e-12
1.33221e-12
4.56208e-13
1.04778e-13
1.57339e-14
1.29978e-15
4.75038e-17
6.06233e-19
2.13384e-21
1.60853e-24
1.29359e-24
4.14737e-20
3.97766e-16
6.72221e-15
2.95238e-17
2.37814e-21
2.52124e-25
2.66517e-29
1.44748e-33
2.11693e-37
5.92621e-38
1.30108e-37
1.23763e-37
1.83128e-39
8.65921e-43
1
1
1
1
1
1
1
1
1
1
1
1
1
1
1
1
1
1
1
1
1
1
1
1
1
1
1
1
1
1
1
1
1
1
1
1
1
1
1
1
1
1
1
1
1
1
1
1
1
1
1
1
1
1
1
1
1
1
1
1
1
1
1
1
1
1
1
1
1
1
1
1
1
1
1
1
1
1
1
1
1
1
1
1
1
1
1
1
1
1
1
1
1
1
1
1
1
1
1
1
1
1
1
1
1
1
1
1
1
1
1
1
1
1
1
1
1
1
1
1
1
1
1
1
1
1
1
1
1
1
1
1
1
1
1
1
1
1
1
1
1
1
1
1
1
1
1
1
1
1
1
1
1
1
1
1
1
1
1
1
1
1
1
1
1
1
1
1
1
1
1
1
1
1
1
1
1
1
1
1
1
1
1
1
1
1
1
1
1
1
1
1
1
1
1
1
1
1
1
1
1
1
1
1
1
1
1
1
1
1
1
1
1
1
1
1
1
1
1
1
1
1
1
1
1
1
1
1
1
1
1
1
1
1
1
1
1
1
1
1
1
1
1
1
1
1
1
1
1
1
1
1
1
1
1
1
1
1
1
1
1
1
1
1
1
1
1
1
1
1
1
1
1
1
1
1
1
1
1
1
1
1
1
1
1
1
1
1
1
1
1
1
1
1
1
1
1
1
1
1
1
1
1
1
1
1
1
1
1
1
1
1
1
1
1
1
1
1
1
1
1
1
1
1
1
1
1
1
1
1
1
1
1
1
1
1
1
1
1
1
1
1
1
1
1
1
1
1
1
1
1
1
1
1
1
1
1
1
1
1
1
1
1
1
1
1
1
1
1
1
1
1
1
1
1
1
1
1
1
1
1
1
1
1
1
1
1
1
1
1
1
1
1
1
1
1
1
1
1
1
1
1
1
1
1
1
1
1
1
1
1
1
1
1
1
1
1
1
1
1
1
1
1
1
1
1
1
1
1
1
1
1
1
1
1
1
1
1
1
1
1
1
1
1
1
1
1
1
1
1
1
1
1
1
1
1
1
1
1
1
1
1
1
1
1
1
1
1
1
1
1
1
1
1
1
1
1
1
1
1
1
1
1
1
1
1
1
1
1
1
1
1
1
1
1
1
1
1
1
1
1
1
1
1
1
1
1
1
1
1
1
1
1
1
1
1
1
1
1
1
1
1
1
1
1
1
1
1
1
1
1
1
1
1
1
1
1
1
1
1
1
1
1
1
1
1
1
1
1
1
1
1
1
1
1
1
1
1
1
1
1
1
1
1
1
1
1
1
1
1
1
1
1
1
1
1
1
1
0.999992
1
1
1
1
1
1
1
1
1
1
1
1
1
1
1
1
1
1
1
1
1
1
1
1
1
1
1
1
0.999995
0.999992
0.999998
1
0.977336
0.266655
0.999991
1
1
1
1
1
1
1
1
1
1
1
1
1
1
1
1
1
1
1
1
1
1
1
1
1
0.999997
0.999998
0.031856
0.0050824
0.962072
1
1
1
1
1
1
1
1
1
1
1
1
1
1
1
1
1
1
1
1
1
1
1
1
1
0.994937
0.0883186
1.86017e-06
0.000407698
0.438161
1
1
1
1
1
0.99998
1
1
1
1
1
1
1
1
1
1
1
1
1
1
1
1
1
1
0.98309
0.0137779
9.39898e-07
1.14869e-07
1.24918e-07
0.0105114
0.999857
1
1
1
0.999921
0.99991
1
1
1
1
1
1
1
1
1
1
1
1
1
1
1
1
1
0.996216
0.0812928
1.91199e-05
1.1181e-07
3.77981e-08
5.76705e-08
0.000472688
0.999876
0.999429
1
0.999997
0.999959
0.999999
0.999954
1
1
1
1
1
1
1
1
1
1
1
1
1
1
1
1
0.919689
0.000231888
9.45566e-07
6.87461e-09
1.34557e-07
4.98119e-07
0.000100213
0.992636
0.998846
0.999775
0.999999
0.999999
0.999999
0.999941
1
1
1
1
1
1
1
1
1
1
0.999979
0.932537
1
1
1
0.993371
0.0298456
7.86395e-06
2.66719e-08
1.82864e-10
2.08404e-06
1.34259e-06
0.00117013
0.577446
0.99999
0.999936
0.999808
0.999902
0.999935
0.999916
1
1
1
1
1
1
1
1
1
1
0.999841
0.934531
1
1
1
0.924404
8.64174e-05
1.85445e-07
5.46053e-10
1.53937e-10
7.27037e-08
8.47193e-05
0.000165891
0.162737
0.99999
0.99999
0.999952
0.999968
0.998563
0.999966
1
1
1
1
1
1
1
1
1
1
0.998562
0.95828
1
1
0.999995
0.0273605
-2.13737e-06
1.37159e-09
3.34278e-10
7.90052e-11
4.6812e-05
0.000182895
0.0005505
0.0394901
0.914734
0.99999
0.99999
0.99987
0.998563
0.999964
0.999876
1
1
1
1
1
1
1
1
1
0.994681
0.999534
1
1
0.916625
1.97045e-05
1.26966e-08
3.54697e-10
2.74096e-10
7.87249e-11
6.10343e-05
1.24345e-05
0.000151046
0.0141641
0.493584
0.99993
0.990663
0.999681
0.999835
0.99996
0.999877
1
1
1
1
1
1
1
1
1
1
1
1
1
1
1
1
1
1
1
1
1
1
1
1
1
1
1
1
1
1
1
1
1
1
1
1
1
1
1
1
1
1
1
1
1
1
1
1
1
1
1
1
1
1
1
1
1
1
1
1
1
1
1
1
1
1
1
1
1
1
1
1
1
1
1
1
1
1
1
1
1
1
1
1
1
1
1
1
1
1
1
1
1
1
1
1
1
1
1
1
1
1
1
1
1
1
1
1
1
1
1
1
1
1
1
1
1
1
1
1
1
1
1
1
1
1
1
1
1
1
1
1
1
1
1
1
1
1
1
1
1
1
1
1
1
1
1
1
1
1
1
1
1
1
1
1
1
1
1
1
1
1
1
1
1
1
1
1
1
1
1
1
1
1
1
1
1
1
1
1
1
1
1
1
1
1
1
1
1
1
1
1
1
1
1
1
1
1
1
1
1
1
1
1
1
1
1
1
1
1
1
1
1
1
1
1
1
1
1
1
1
1
1
1
1
1
1
1
1
1
1
1
1
1
1
1
1
1
1
1
1
1
1
1
1
1
1
1
1
1
1
1
1
1
1
1
1
1
1
1
1
1
1
1
1
1
1
1
1
1
1
1
1
1
1
1
1
1
1
1
1
1
1
1
1
1
1
1
1
1
1
1
1
1
1
1
1
1
1
1
1
1
1
1
1
1
1
1
1
1
1
1
1
1
1
1
1
1
1
1
1
1
1
1
1
1
1
1
1
1
1
1
1
1
1
1
1
1
1
1
1
1
1
1
1
1
1
1
1
1
1
1
1
1
1
1
1
1
1
1
1
1
1
1
1
1
1
1
1
1
1
1
1
1
1
1
1
1
1
1
1
1
1
1
1
1
1
1
1
1
1
1
1
1
1
1
1
1
1
1
1
1
1
1
1
1
1
1
1
1
1
1
1
1
1
1
1
1
1
1
1
1
1
1
1
1
1
1
1
1
1
1
1
1
1
1
1
1
1
1
1
1
1
1
1
1
1
1
1
1
1
1
1
1
1
1
1
1
1
1
1
1
1
1
1
1
1
1
1
1
1
1
1
1
1
1
1
1
1
1
1
1
1
1
1
1
1
1
1
1
1
1
1
1
1
1
1
1
1
1
1
1
1
1
1
1
1
1
1
1
1
1
1
1
1
1
1
1
1
1
1
1
1
1
1
1
1
1
1
1
1
1
1
1
1
1
1
1
1
1
1
1
1
1
1
1
1
1
1
1
1
1
1
1
1
1
1
1
1
1
1
1
1
1
1
1
1
1
1
1
1
1
1
1
1
1
1
1
1
1
1
1
1
1
1
1
1
1
1
1
1
1
1
1
1
1
1
1
0.999999
0.999994
1
1
1
1
1
1
1
1
1
1
1
1
1
1
1
1