/*--------------------------------*- C++ -*----------------------------------*\
| =========                 |                                                 |
| \\      /  F ield         | OpenFOAM: The Open Source CFD Toolbox           |
|  \\    /   O peration     | Version:  2.4.0                                 |
|   \\  /    A nd           | Web:      www.OpenFOAM.org                      |
|    \\/     M anipulation  |                                                 |
\*---------------------------------------------------------------------------*/
FoamFile
{
    version     2.0;
    format      ascii;
    class       volVectorField;
    location    "0.128";
    object      U;
}
// * * * * * * * * * * * * * * * * * * * * * * * * * * * * * * * * * * * * * //

dimensions      [0 1 -1 0 0 0 0];

internalField   nonuniform List<vector> 
10000
(
(2.55951e-06 -2.52012e-06 0)
(4.02769e-06 -1.45412e-06 0)
(-2.06193e-06 6.02161e-07 0)
(-1.61397e-05 2.43059e-06 0)
(-3.7085e-05 3.88324e-06 0)
(-6.34969e-05 5.00097e-06 0)
(-9.40935e-05 5.81469e-06 0)
(-0.000127704 6.36654e-06 0)
(-0.000163259 6.70048e-06 0)
(-0.000199789 6.85112e-06 0)
(-0.000236426 6.84208e-06 0)
(-0.000272385 6.68944e-06 0)
(-0.000306948 6.40553e-06 0)
(-0.000339456 6.00141e-06 0)
(-0.0003693 5.488e-06 0)
(-0.000395931 4.87608e-06 0)
(-0.000418855 4.17553e-06 0)
(-0.000437641 3.39431e-06 0)
(-0.00045191 2.53812e-06 0)
(-0.000461335 1.61098e-06 0)
(-0.000465626 6.17119e-07 0)
(-0.000464527 -4.3908e-07 0)
(-0.000457828 -1.55184e-06 0)
(-0.000445377 -2.71092e-06 0)
(-0.000427113 -3.89692e-06 0)
(-0.000403098 -5.08131e-06 0)
(-0.000373566 -6.22378e-06 0)
(-0.000338965 -7.27281e-06 0)
(-0.000299985 -8.17148e-06 0)
(-0.000257556 -8.86783e-06 0)
(-0.000212802 -9.32755e-06 0)
(-0.000166945 -9.54425e-06 0)
(-0.00012118 -9.54127e-06 0)
(-7.65706e-05 -9.36349e-06 0)
(-3.39772e-05 -9.06095e-06 0)
(5.93095e-06 -8.67379e-06 0)
(4.26299e-05 -8.22501e-06 0)
(7.56639e-05 -7.72065e-06 0)
(0.000104589 -7.15411e-06 0)
(0.000128955 -6.51459e-06 0)
(0.000148304 -5.79389e-06 0)
(0.000162205 -4.99049e-06 0)
(0.000170275 -4.10894e-06 0)
(0.000172231 -3.16678e-06 0)
(0.000167944 -2.17892e-06 0)
(0.000157452 -1.17763e-06 0)
(0.000140976 -1.95583e-07 0)
(0.000118928 7.36505e-07 0)
(9.19111e-05 1.58792e-06 0)
(6.06962e-05 2.33061e-06 0)
(1.54563e-06 -3.97288e-06 0)
(-6.25025e-06 6.55372e-06 0)
(-3.1927e-05 2.19241e-05 0)
(-7.49527e-05 3.59415e-05 0)
(-0.000133282 4.76618e-05 0)
(-0.000204335 5.70171e-05 0)
(-0.000285372 6.40393e-05 0)
(-0.000373651 6.88609e-05 0)
(-0.000466549 7.16796e-05 0)
(-0.000561627 7.26958e-05 0)
(-0.000656628 7.20793e-05 0)
(-0.000749464 6.99677e-05 0)
(-0.000838199 6.64794e-05 0)
(-0.00092104 6.17266e-05 0)
(-0.000996342 5.58231e-05 0)
(-0.00106262 4.88851e-05 0)
(-0.00111854 4.10286e-05 0)
(-0.00116298 3.23644e-05 0)
(-0.00119495 2.29953e-05 0)
(-0.00121363 1.30165e-05 0)
(-0.00121837 2.51914e-06 0)
(-0.00120863 -8.40003e-06 0)
(-0.00118404 -1.96336e-05 0)
(-0.00114443 -3.10351e-05 0)
(-0.00108987 -4.23975e-05 0)
(-0.00102072 -5.34339e-05 0)
(-0.000937813 -6.37684e-05 0)
(-0.000842483 -7.29512e-05 0)
(-0.000736664 -8.05069e-05 0)
(-0.000622876 -8.60122e-05 0)
(-0.00050411 -8.91862e-05 0)
(-0.000383603 -8.99612e-05 0)
(-0.000264541 -8.84946e-05 0)
(-0.000149798 -8.51099e-05 0)
(-4.17857e-05 -8.01857e-05 0)
(5.75483e-05 -7.40474e-05 0)
(0.000146604 -6.69041e-05 0)
(0.000223957 -5.88484e-05 0)
(0.000288259 -4.98984e-05 0)
(0.0003382 -4.00507e-05 0)
(0.000372518 -2.93302e-05 0)
(0.00039008 -1.78289e-05 0)
(0.000389951 -5.69137e-06 0)
(0.000371526 6.80953e-06 0)
(0.000334649 1.93696e-05 0)
(0.00027965 3.16236e-05 0)
(0.000207408 4.31894e-05 0)
(0.000119374 5.36939e-05 0)
(1.75138e-05 6.27854e-05 0)
(-9.57473e-05 7.01573e-05 0)
(-4.18732e-07 1.85006e-06 0)
(-2.09118e-05 3.17631e-05 0)
(-6.71645e-05 6.82808e-05 0)
(-0.000137092 0.000101695 0)
(-0.000227692 0.00013014 0)
(-0.000335703 0.000153181 0)
(-0.000457529 0.00017066 0)
(-0.000589405 0.000182696 0)
(-0.000727613 0.000189607 0)
(-0.000868611 0.000191778 0)
(-0.00100906 0.000189576 0)
(-0.00114584 0.000183326 0)
(-0.001276 0.000173327 0)
(-0.00139682 0.000159877 0)
(-0.0015058 0.000143282 0)
(-0.00160067 0.000123866 0)
(-0.00167942 0.000101964 0)
(-0.00174034 7.79104e-05 0)
(-0.00178201 5.2031e-05 0)
(-0.00180324 2.46377e-05 0)
(-0.00180315 -3.97017e-06 0)
(-0.00178108 -3.34885e-05 0)
(-0.00173662 -6.35859e-05 0)
(-0.00166966 -9.38469e-05 0)
(-0.00158044 -0.000123716 0)
(-0.00146964 -0.00015244 0)
(-0.00133858 -0.000179051 0)
(-0.00118932 -0.000202396 0)
(-0.00102485 -0.000221263 0)
(-0.00084904 -0.000234563 0)
(-0.000666518 -0.000241565 0)
(-0.000482315 -0.000242072 0)
(-0.000301405 -0.000236462 0)
(-0.00012828 -0.00022554 0)
(3.32958e-05 -0.000210262 0)
(0.00018026 -0.000191453 0)
(0.00031004 -0.000169652 0)
(0.000420339 -0.000145126 0)
(0.000508966 -0.000117968 0)
(0.000573774 -8.82333e-05 0)
(0.000612707 -5.60642e-05 0)
(0.00062397 -2.17781e-05 0)
(0.000606105 1.40365e-05 0)
(0.000558217 5.06681e-05 0)
(0.000480192 8.71784e-05 0)
(0.000372714 0.000122514 0)
(0.000237351 0.000155574 0)
(7.66041e-05 0.000185285 0)
(-0.000106175 0.000210641 0)
(-0.000306893 0.00023078 0)
(-2.16596e-06 1.53985e-05 0)
(-3.44756e-05 7.39546e-05 0)
(-9.99055e-05 0.000137907 0)
(-0.000194338 0.000195838 0)
(-0.000313427 0.000245395 0)
(-0.00045315 0.00028575 0)
(-0.000609227 0.000316454 0)
(-0.000777151 0.000337544 0)
(-0.000952406 0.000349425 0)
(-0.00113063 0.000352657 0)
(-0.00130764 0.000347812 0)
(-0.0014795 0.00033543 0)
(-0.00164246 0.000316038 0)
(-0.00179305 0.000290174 0)
(-0.00192805 0.000258413 0)
(-0.00204456 0.000221374 0)
(-0.00214005 0.00017971 0)
(-0.00221235 0.000134089 0)
(-0.00225969 8.51731e-05 0)
(-0.00228069 3.36001e-05 0)
(-0.00227428 -2.00218e-05 0)
(-0.00223979 -7.50956e-05 0)
(-0.00217681 -0.000130983 0)
(-0.0020853 -0.000186923 0)
(-0.00196556 -0.000241915 0)
(-0.00181845 -0.000294605 0)
(-0.00164554 -0.000343234 0)
(-0.0014494 -0.000385683 0)
(-0.00123379 -0.000419681 0)
(-0.00100375 -0.000443151 0)
(-0.000765459 -0.000454659 0)
(-0.000525705 -0.000453792 0)
(-0.000291232 -0.000441244 0)
(-6.80535e-05 -0.000418552 0)
(0.000138913 -0.00038753 0)
(0.000325738 -0.000349703 0)
(0.000489128 -0.000306045 0)
(0.000626086 -0.000257021 0)
(0.000733647 -0.00020279 0)
(0.000808837 -0.00014348 0)
(0.000848781 -7.94229e-05 0)
(0.000850867 -1.13112e-05 0)
(0.000813117 5.96851e-05 0)
(0.000734345 0.000132075 0)
(0.000614335 0.000203986 0)
(0.000454088 0.000273327 0)
(0.000255836 0.000337928 0)
(2.30926e-05 0.00039566 0)
(-0.00023945 0.000444561 0)
(-0.000526065 0.000482941 0)
(-3.5536e-06 3.56058e-05 0)
(-4.63005e-05 0.000131505 0)
(-0.000129284 0.00022863 0)
(-0.00024627 0.000315207 0)
(-0.000391372 0.00038905 0)
(-0.000559654 0.000449161 0)
(-0.000746145 0.00049485 0)
(-0.000945694 0.000526068 0)
(-0.00115315 0.000543286 0)
(-0.00136351 0.000547222 0)
(-0.00157194 0.000538649 0)
(-0.00177383 0.000518331 0)
(-0.0019648 0.000487042 0)
(-0.00214074 0.000445607 0)
(-0.00229787 0.000394925 0)
(-0.00243278 0.000335987 0)
(-0.0025425 0.000269851 0)
(-0.00262452 0.000197618 0)
(-0.00267682 0.000120391 0)
(-0.00269788 3.92289e-05 0)
(-0.0026866 -4.48716e-05 0)
(-0.00264229 -0.000130963 0)
(-0.00256459 -0.000218081 0)
(-0.00245344 -0.000305113 0)
(-0.00230909 -0.0003906 0)
(-0.0021323 -0.000472539 0)
(-0.00192458 -0.000548237 0)
(-0.00168861 -0.000614351 0)
(-0.00142863 -0.000667173 0)
(-0.0011507 -0.000703205 0)
(-0.000862536 -0.000719942 0)
(-0.0005729 -0.000716614 0)
(-0.00029048 -0.000694383 0)
(-2.28318e-05 -0.000655895 0)
(0.000224163 -0.00060422 0)
(0.000446063 -0.000541832 0)
(0.000639207 -0.000470182 0)
(0.000800089 -0.000389847 0)
(0.000925039 -0.000300941 0)
(0.00101021 -0.000203603 0)
(0.00105176 -9.83761e-05 0)
(0.00104623 1.35432e-05 0)
(0.000990861 0.000130272 0)
(0.000883987 0.000249194 0)
(0.000725258 0.000367182 0)
(0.000515882 0.00048076 0)
(0.000258681 0.00058632 0)
(-4.1868e-05 0.000680341 0)
(-0.000379762 0.000759587 0)
(-0.000747667 0.00082128 0)
(-4.65211e-06 6.14086e-05 0)
(-5.65197e-05 0.000202732 0)
(-0.000155513 0.000338672 0)
(-0.000293382 0.000457841 0)
(-0.000462696 0.000558783 0)
(-0.000657525 0.000640646 0)
(-0.000872162 0.000702654 0)
(-0.00110084 0.000744731 0)
(-0.00133785 0.000767434 0)
(-0.00157763 0.00077164 0)
(-0.00181481 0.000758317 0)
(-0.00204424 0.000728459 0)
(-0.002261 0.000683105 0)
(-0.00246045 0.00062339 0)
(-0.00263832 0.000550589 0)
(-0.00279077 0.000466125 0)
(-0.00291446 0.000371549 0)
(-0.00300662 0.000268491 0)
(-0.00306506 0.000158594 0)
(-0.0030882 4.343e-05 0)
(-0.00307496 -7.55533e-05 0)
(-0.00302473 -0.000197038 0)
(-0.00293721 -0.000319767 0)
(-0.00281227 -0.00044236 0)
(-0.00264993 -0.000563008 0)
(-0.00245051 -0.000679106 0)
(-0.00221501 -0.000786962 0)
(-0.00194573 -0.000881734 0)
(-0.00164695 -0.000957776 0)
(-0.00132553 -0.00100951 0)
(-0.000990953 -0.00103274 0)
(-0.000654377 -0.0010261 0)
(-0.000326933 -0.000991481 0)
(-1.79174e-05 -0.000933271 0)
(0.00026609 -0.00085646 0)
(0.000520656 -0.000764795 0)
(0.000742199 -0.000660146 0)
(0.00092695 -0.000542957 0)
(0.00107056 -0.000413036 0)
(0.00116817 -0.000270354 0)
(0.00121479 -0.000115625 0)
(0.00120581 4.93733e-05 0)
(0.00113752 0.000221737 0)
(0.00100757 0.000397509 0)
(0.0008153 0.000571936 0)
(0.000562036 0.000739758 0)
(0.000251123 0.000895538 0)
(-0.000112021 0.00103399 0)
(-0.000520081 0.00115027 0)
(-0.000964084 0.00124024 0)
(-5.5311e-06 9.20139e-05 0)
(-6.53883e-05 0.000286195 0)
(-0.000178997 0.000466476 0)
(-0.000336315 0.000622215 0)
(-0.000528463 0.000753069 0)
(-0.000748505 0.000858621 0)
(-0.000989974 0.0009382 0)
(-0.00124649 0.000991807 0)
(-0.0015118 0.00102014 0)
(-0.00177985 0.00102425 0)
(-0.0020448 0.00100531 0)
(-0.00230101 0.00096455 0)
(-0.00254307 0.000903277 0)
(-0.0027659 0.000822961 0)
(-0.00296477 0.000725286 0)
(-0.00313545 0.00061217 0)
(-0.00327426 0.000485737 0)
(-0.0033782 0.000348251 0)
(-0.00344495 0.000202001 0)
(-0.00347296 4.91779e-05 0)
(-0.00346127 -0.000108256 0)
(-0.00340947 -0.000268609 0)
(-0.00331737 -0.000430431 0)
(-0.00318477 -0.000592271 0)
(-0.00301128 -0.000752227 0)
(-0.00279642 -0.000907324 0)
(-0.00254006 -0.00105291 0)
(-0.00224338 -0.00118238 0)
(-0.00191005 -0.00128745 0)
(-0.00154743 -0.00135941 0)
(-0.0011671 -0.00139134 0)
(-0.000783523 -0.00138084 0)
(-0.000411234 -0.00133089 0)
(-6.17083e-05 -0.00124882 0)
(0.000258193 -0.00114265 0)
(0.000544889 -0.00101784 0)
(0.000795539 -0.000876431 0)
(0.00100638 -0.000718215 0)
(0.00117229 -0.000542208 0)
(0.00128715 -0.000347914 0)
(0.00134447 -0.00013612 0)
(0.00133814 9.07042e-05 0)
(0.00126322 0.000328398 0)
(0.00111643 0.000571295 0)
(0.000896666 0.000812601 0)
(0.000605248 0.00104483 0)
(0.000246017 0.00126028 0)
(-0.000174658 0.00145148 0)
(-0.00064809 0.00161163 0)
(-0.00116358 0.0017349 0)
(-6.26095e-06 0.000126801 0)
(-7.32424e-05 0.000380708 0)
(-0.000200353 0.000610735 0)
(-0.000376019 0.000807107 0)
(-0.000590042 0.000970822 0)
(-0.000834517 0.00110214 0)
(-0.00110222 0.00120065 0)
(-0.00138614 0.00126659 0)
(-0.00167952 0.00130083 0)
(-0.00197583 0.00130467 0)
(-0.00226877 0.00127949 0)
(-0.00255226 0.00122674 0)
(-0.00282045 0.00114801 0)
(-0.00306779 0.00104512 0)
(-0.00328915 0.000920174 0)
(-0.00347985 0.000775653 0)
(-0.00363589 0.000614335 0)
(-0.00375399 0.000439228 0)
(-0.00383177 0.000253409 0)
(-0.00386774 5.98228e-05 0)
(-0.0038612 -0.00013895 0)
(-0.00381209 -0.00034084 0)
(-0.00372055 -0.000544349 0)
(-0.0035864 -0.000748293 0)
(-0.00340875 -0.000951169 0)
(-0.00318586 -0.00115012 0)
(-0.0029157 -0.00133982 0)
(-0.00259727 -0.00151165 0)
(-0.00223256 -0.00165381 0)
(-0.00182881 -0.0017528 0)
(-0.00140028 -0.00179704 0)
(-0.000966301 -0.00178231 0)
(-0.000546546 -0.00171333 0)
(-0.000155491 -0.00160246 0)
(0.000200514 -0.00146277 0)
(0.000520225 -0.00130196 0)
(0.00080251 -0.00112152 0)
(0.00104381 -0.000919667 0)
(0.00123798 -0.000693817 0)
(0.00137713 -0.000442564 0)
(0.00145275 -0.000166664 0)
(0.00145682 0.000130577 0)
(0.0013828 0.000443418 0)
(0.00122624 0.000764043 0)
(0.000985435 0.00108312 0)
(0.000661624 0.00139043 0)
(0.000259144 0.0016755 0)
(-0.000214618 0.00192821 0)
(-0.000749488 0.00213937 0)
(-0.00133287 0.00230115 0)
(-6.90043e-06 0.000165322 0)
(-8.04288e-05 0.000485418 0)
(-0.000220282 0.000770517 0)
(-0.000413583 0.00101169 0)
(-0.000648953 0.00121142 0)
(-0.000917573 0.00137079 0)
(-0.00121148 0.00148986 0)
(-0.00152307 0.00156914 0)
(-0.00184505 0.00160985 0)
(-0.00217044 0.00161352 0)
(-0.00249252 0.00158175 0)
(-0.00280477 0.00151625 0)
(-0.00310091 0.00141885 0)
(-0.00337493 0.0012917 0)
(-0.00362119 0.00113739 0)
(-0.00383456 0.000958954 0)
(-0.00401061 0.000759931 0)
(-0.00414576 0.000544203 0)
(-0.00423749 0.000315815 0)
(-0.00428442 7.86788e-05 0)
(-0.00428627 -0.000163822 0)
(-0.0042436 -0.000409175 0)
(-0.00415722 -0.000656001 0)
(-0.00402731 -0.000903881 0)
(-0.00385253 -0.00115251 0)
(-0.00362947 -0.00140007 0)
(-0.00335323 -0.00164121 0)
(-0.00301911 -0.00186533 0)
(-0.0026256 -0.00205599 0)
(-0.00217865 -0.00219229 0)
(-0.00169593 -0.00225453 0)
(-0.00120426 -0.00223524 0)
(-0.000731511 -0.00214174 0)
(-0.000296614 -0.00199538 0)
(9.62071e-05 -0.00181783 0)
(0.000450733 -0.00161955 0)
(0.000768928 -0.00139984 0)
(0.00104736 -0.00115361 0)
(0.0012782 -0.000875502 0)
(0.00145097 -0.000562676 0)
(0.00155443 -0.000215808 0)
(0.00157813 0.000160694 0)
(0.00151352 0.000559053 0)
(0.0013548 0.000968759 0)
(0.00109948 0.00137736 0)
(0.00074874 0.00177129 0)
(0.000307434 0.00213674 0)
(-0.000215904 0.00246041 0)
(-0.000809431 0.00273025 0)
(-0.00145842 0.00293604 0)
(-7.49108e-06 0.000207304 0)
(-8.72357e-05 0.000599797 0)
(-0.000239403 0.000945273 0)
(-0.000449986 0.00123556 0)
(-0.000706548 0.00147467 0)
(-0.000999422 0.00166467 0)
(-0.00131995 0.00180618 0)
(-0.00165993 0.00190018 0)
(-0.0020116 0.00194823 0)
(-0.00236753 0.00195216 0)
(-0.00272059 0.00191384 0)
(-0.00306383 0.00183516 0)
(-0.00339052 0.0017182 0)
(-0.00369414 0.00156543 0)
(-0.0039685 0.00137985 0)
(-0.00420788 0.00116513 0)
(-0.00440727 0.000925595 0)
(-0.00456264 0.000666171 0)
(-0.0046712 0.000392119 0)
(-0.00473167 0.000108644 0)
(-0.00474431 -0.00017973 0)
(-0.00471072 -0.000469833 0)
(-0.00463296 -0.000760516 0)
(-0.00451225 -0.00105275 0)
(-0.00434716 -0.00134865 0)
(-0.00413239 -0.00164896 0)
(-0.00385902 -0.00194971 0)
(-0.00351662 -0.00223886 0)
(-0.00309734 -0.00249425 0)
(-0.00260319 -0.00268356 0)
(-0.00205628 -0.00277259 0)
(-0.00149501 -0.00274806 0)
(-0.000960731 -0.00262097 0)
(-0.000479435 -0.00242913 0)
(-4.97945e-05 -0.00220913 0)
(0.000341889 -0.00197429 0)
(0.000702352 -0.00171793 0)
(0.00102743 -0.00142886 0)
(0.0013062 -0.00109737 0)
(0.00152435 -0.000718741 0)
(0.00166705 -0.000293742 0)
(0.00172082 0.000171632 0)
(0.00167482 0.000666943 0)
(0.00152166 0.0011783 0)
(0.00125808 0.00168944 0)
(0.000885173 0.00218278 0)
(0.00040844 0.00264048 0)
(-0.00016226 0.00304548 0)
(-0.000813151 0.00338232 0)
(-0.00152705 0.003638 0)
(-8.05911e-06 0.000252608 0)
(-9.38633e-05 0.000723583 0)
(-0.000258164 0.00113477 0)
(-0.000485942 0.00147861 0)
(-0.000763804 0.00176071 0)
(-0.0010813 0.00198419 0)
(-0.00142913 0.00215039 0)
(-0.00179856 0.00226081 0)
(-0.00218134 0.00231747 0)
(-0.00256967 0.00232252 0)
(-0.00295601 0.00227807 0)
(-0.003333 0.0021862 0)
(-0.00369344 0.00204918 0)
(-0.00403024 0.0018697 0)
(-0.00433654 0.00165116 0)
(-0.00460587 0.00139778 0)
(-0.00483243 0.00111475 0)
(-0.00501141 0.00080818 0)
(-0.00513952 0.000484866 0)
(-0.00521539 0.000151791 0)
(-0.00523993 -0.000184782 0)
(-0.0052162 -0.00052052 0)
(-0.00514848 -0.000854384 0)
(-0.00504017 -0.00118942 0)
(-0.00489072 -0.00153189 0)
(-0.00469306 -0.00188753 0)
(-0.00443324 -0.00225618 0)
(-0.0040927 -0.00262608 0)
(-0.0036528 -0.00296903 0)
(-0.00310637 -0.00323546 0)
(-0.00248105 -0.00336452 0)
(-0.00183303 -0.00333347 0)
(-0.00122575 -0.00315721 0)
(-0.000697079 -0.00290409 0)
(-0.000232873 -0.00263736 0)
(0.000199113 -0.00237137 0)
(0.000611566 -0.00208517 0)
(0.000996798 -0.00175743 0)
(0.00133832 -0.00137234 0)
(0.00161623 -0.000923404 0)
(0.00181125 -0.000412098 0)
(0.00190641 0.000153194 0)
(0.00188838 0.000758535 0)
(0.00174819 0.00138583 0)
(0.00148179 0.00201421 0)
(0.00109033 0.0026213 0)
(0.000580103 0.00318454 0)
(-3.74723e-05 0.00368237 0)
(-0.000746349 0.00409539 0)
(-0.00152646 0.00440728 0)
(-8.61885e-06 0.000301183 0)
(-0.000100425 0.000856685 0)
(-0.000276819 0.00133896 0)
(-0.000521851 0.00174096 0)
(-0.000821253 0.00206987 0)
(-0.00116387 0.00232998 0)
(-0.0015398 0.00252344 0)
(-0.00193984 0.00265239 0)
(-0.00235534 0.00271935 0)
(-0.00277813 0.00272683 0)
(-0.00320033 0.00267718 0)
(-0.0036142 0.00257259 0)
(-0.00401203 0.00241544 0)
(-0.00438612 0.00220854 0)
(-0.00472881 0.00195552 0)
(-0.00503268 0.00166107 0)
(-0.00529076 0.00133119 0)
(-0.0054971 0.000973296 0)
(-0.00564735 0.000596092 0)
(-0.00573968 0.000209008 0)
(-0.00577547 -0.000178999 0)
(-0.00575972 -0.000561383 0)
(-0.00570013 -0.000936587 0)
(-0.00560425 -0.00131026 0)
(-0.00547421 -0.00169515 0)
(-0.00530192 -0.00210548 0)
(-0.00506793 -0.00254881 0)
(-0.00474345 -0.00301731 0)
(-0.00429309 -0.00347903 0)
(-0.00369029 -0.00385956 0)
(-0.00296941 -0.00404835 0)
(-0.00221258 -0.00400907 0)
(-0.00151864 -0.00375669 0)
(-0.000946162 -0.00341717 0)
(-0.000453109 -0.00310193 0)
(2.53598e-05 -0.00281897 0)
(0.000505957 -0.0025155 0)
(0.000970983 -0.00215571 0)
(0.00139452 -0.00171666 0)
(0.00174929 -0.00119146 0)
(0.00201103 -0.000583622 0)
(0.00215922 9.48915e-05 0)
(0.00217815 0.000825617 0)
(0.00205738 0.00158534 0)
(0.00179228 0.00234772 0)
(0.0013842 0.00308483 0)
(0.000840469 0.00376856 0)
(0.000174332 0.00437213 0)
(-0.00059548 0.00487144 0)
(-0.00144554 0.00524633 0)
(-9.1754e-06 0.000353019 0)
(-0.000106959 0.000999093 0)
(-0.000295447 0.00155791 0)
(-0.000557816 0.00202279 0)
(-0.000878996 0.00240253 0)
(-0.00124719 0.0027027 0)
(-0.00165199 0.00292634 0)
(-0.00208377 0.00307633 0)
(-0.00253357 0.00315575 0)
(-0.00299293 0.0031675 0)
(-0.00345367 0.00311413 0)
(-0.00390772 0.00299788 0)
(-0.0043469 0.00282109 0)
(-0.00476285 0.00258652 0)
(-0.00514701 0.00229778 0)
(-0.00549075 0.00195981 0)
(-0.00578556 0.00157924 0)
(-0.00602368 0.00116481 0)
(-0.00619895 0.000727423 0)
(-0.00630819 0.000279811 0)
(-0.00635271 -0.000164936 0)
(-0.00633957 -0.000596174 0)
(-0.00628141 -0.00101019 0)
(-0.00619285 -0.0014152 0)
(-0.00608159 -0.0018335 0)
(-0.00594007 -0.00229252 0)
(-0.00574386 -0.00281281 0)
(-0.005454 -0.00339664 0)
(-0.00501225 -0.00401706 0)
(-0.00435459 -0.00456849 0)
(-0.00352356 -0.00484582 0)
(-0.00263521 -0.0047983 0)
(-0.00184179 -0.00442232 0)
(-0.0012376 -0.00395766 0)
(-0.000722622 -0.00360207 0)
(-0.000181261 -0.00333255 0)
(0.000395833 -0.00303095 0)
(0.000969211 -0.00264639 0)
(0.00149918 -0.00215037 0)
(0.00195019 -0.00153958 0)
(0.00229366 -0.000821606 0)
(0.00250605 -1.34084e-05 0)
(0.0025698 0.00086094 0)
(0.00247338 0.00177219 0)
(0.00221189 0.00268776 0)
(0.00178706 0.00357336 0)
(0.00120749 0.0043945 0)
(0.000488521 0.00511827 0)
(-0.000347968 0.00571508 0)
(-0.00127459 0.00616024 0)
(-9.72664e-06 0.00040811 0)
(-0.000113443 0.00115079 0)
(-0.000313973 0.00179163 0)
(-0.000593676 0.00232423 0)
(-0.000936744 0.00275902 0)
(-0.00133082 0.00310291 0)
(-0.00176506 0.00335999 0)
(-0.00222953 0.00353394 0)
(-0.00271502 0.00362848 0)
(-0.00321289 0.00364691 0)
(-0.00371478 0.00359194 0)
(-0.00421233 0.0034658 0)
(-0.00469696 0.00327058 0)
(-0.00515972 0.00300873 0)
(-0.00559108 0.00268353 0)
(-0.00598098 0.00229974 0)
(-0.00631894 0.00186422 0)
(-0.00659463 0.00138676 0)
(-0.00679893 0.000880607 0)
(-0.00692588 0.000362632 0)
(-0.00697525 -0.000147976 0)
(-0.0069556 -0.000633375 0)
(-0.00688591 -0.00108429 0)
(-0.00679218 -0.00151017 0)
(-0.00669187 -0.00194708 0)
(-0.00657929 -0.00244173 0)
(-0.00642623 -0.00303313 0)
(-0.00618874 -0.00374006 0)
(-0.00578558 -0.00456314 0)
(-0.00509006 -0.00537097 0)
(-0.00415483 -0.00577496 0)
(-0.00312848 -0.00572987 0)
(-0.00223339 -0.0051451 0)
(-0.00161898 -0.0045016 0)
(-0.00107477 -0.0041471 0)
(-0.000425893 -0.00394496 0)
(0.000296287 -0.00366687 0)
(0.00101707 -0.00325977 0)
(0.00168181 -0.00269698 0)
(0.00224926 -0.00198552 0)
(0.00268877 -0.00113898 0)
(0.00297508 -0.000180666 0)
(0.00308967 0.000858876 0)
(0.00302054 0.00194368 0)
(0.00276282 0.00303427 0)
(0.00231885 0.00408926 0)
(0.00169854 0.00506693 0)
(0.000919656 0.00592721 0)
(7.60549e-06 0.00663401 0)
(-0.00100549 0.00715727 0)
(-1.0265e-05 0.000466419 0)
(-0.000119804 0.00131171 0)
(-0.000332197 0.00204004 0)
(-0.000629042 0.00264525 0)
(-0.000993868 0.00313943 0)
(-0.00141384 0.00353095 0)
(-0.00187778 0.00382501 0)
(-0.00237552 0.00402625 0)
(-0.00289775 0.00413907 0)
(-0.00343573 0.00416721 0)
(-0.00398103 0.00411351 0)
(-0.00452517 0.00398006 0)
(-0.00505934 0.00376854 0)
(-0.00557407 0.00348075 0)
(-0.00605894 0.0031192 0)
(-0.00650239 0.00268784 0)
(-0.00689164 0.00219307 0)
(-0.00721302 0.00164497 0)
(-0.00745303 0.00105876 0)
(-0.00760069 0.000455998 0)
(-0.00765153 -0.000135742 0)
(-0.0076134 -0.000686767 0)
(-0.00751236 -0.00117585 0)
(-0.00739219 -0.00160969 0)
(-0.00728553 -0.00204526 0)
(-0.00718687 -0.00255655 0)
(-0.00706238 -0.00320429 0)
(-0.00687539 -0.00401971 0)
(-0.00653738 -0.00507445 0)
(-0.00583916 -0.0062629 0)
(-0.00487972 -0.00679811 0)
(-0.00379011 -0.00682345 0)
(-0.00281895 -0.00589547 0)
(-0.00220319 -0.00502487 0)
(-0.00156141 -0.00479675 0)
(-0.000701458 -0.00472383 0)
(0.00023726 -0.00447568 0)
(0.00114991 -0.00403262 0)
(0.00197713 -0.00338132 0)
(0.00267895 -0.00254622 0)
(0.00322621 -0.00154698 0)
(0.00359359 -0.000413766 0)
(0.00376264 0.000815988 0)
(0.0037216 0.0020993 0)
(0.00346583 0.00338946 0)
(0.00299818 0.0046374 0)
(0.00232981 0.00579322 0)
(0.001481 0.00680852 0)
(0.000481179 0.00763935 0)
(-0.000631901 0.00824915 0)
(-1.07793e-05 0.000527861 0)
(-0.000125925 0.00148161 0)
(-0.000349805 0.00230286 0)
(-0.000663324 0.00298556 0)
(-0.00104943 0.00354354 0)
(-0.0014949 0.00398674 0)
(-0.00198832 0.00432162 0)
(-0.00251942 0.00455386 0)
(-0.00307886 0.00468862 0)
(-0.00365797 0.00473013 0)
(-0.00424841 0.00468135 0)
(-0.00484175 0.00454413 0)
(-0.00542916 0.00431956 0)
(-0.00600089 0.00400846 0)
(-0.00654591 0.00361204 0)
(-0.00705136 0.00313267 0)
(-0.00750214 0.00257514 0)
(-0.00788076 0.00194848 0)
(-0.00816791 0.00126856 0)
(-0.00834479 0.000561161 0)
(-0.00839816 -0.000135799 0)
(-0.00833011 -0.000774445 0)
(-0.00817239 -0.00131029 0)
(-0.00799705 -0.001738 0)
(-0.00785899 -0.00215116 0)
(-0.00774172 -0.00266291 0)
(-0.00759267 -0.00335488 0)
(-0.00739047 -0.00424244 0)
(-0.0070875 -0.00549982 0)
(-0.00643215 -0.00720752 0)
(-0.00570885 -0.00764494 0)
(-0.00488534 -0.00798608 0)
(-0.00392253 -0.00667251 0)
(-0.00316924 -0.00560199 0)
(-0.00219602 -0.00573505 0)
(-0.000950278 -0.00577961 0)
(0.000276352 -0.0055202 0)
(0.00141389 -0.00500135 0)
(0.00242216 -0.00422482 0)
(0.00326983 -0.00323473 0)
(0.00393175 -0.0020533 0)
(0.00438384 -0.000716625 0)
(0.00460856 0.000731235 0)
(0.00459484 0.00224055 0)
(0.00433802 0.00375743 0)
(0.00384091 0.00522473 0)
(0.00311537 0.00658333 0)
(0.00218406 0.00777488 0)
(0.00108095 0.0087458 0)
(-0.000149554 0.0094515 0)
(-1.12551e-05 0.000592278 0)
(-0.000131655 0.00166011 0)
(-0.000366389 0.00257951 0)
(-0.000695757 0.0033445 0)
(-0.00110223 0.00397071 0)
(-0.00157228 0.00446975 0)
(-0.00209438 0.00484948 0)
(-0.00265824 0.00511672 0)
(-0.00325463 0.00527755 0)
(-0.00387508 0.00533669 0)
(-0.0045115 0.00529727 0)
(-0.00515576 0.00516084 0)
(-0.00579925 0.00492776 0)
(-0.00643236 0.00459764 0)
(-0.0070439 0.00416986 0)
(-0.00762031 0.00364436 0)
(-0.00814478 0.00302289 0)
(-0.00859629 0.00231132 0)
(-0.0089491 0.00152345 0)
(-0.00917378 0.00068679 0)
(-0.0092422 -0.000150427 0)
(-0.00914087 -0.00091492 0)
(-0.00890062 -0.00151937 0)
(-0.00864177 -0.00192467 0)
(-0.00845266 -0.00230015 0)
(-0.00827002 -0.0028207 0)
(-0.00799411 -0.00356482 0)
(-0.00761048 -0.00448701 0)
(-0.0072168 -0.00573928 0)
(-0.00696871 -0.00774644 0)
(-0.00686224 -0.00804925 0)
(-0.00667762 -0.00872424 0)
(-0.00605953 -0.00756887 0)
(-0.00457181 -0.00692637 0)
(-0.00265825 -0.00724833 0)
(-0.000973555 -0.00720754 0)
(0.000519934 -0.00683683 0)
(0.00186573 -0.00617913 0)
(0.00304793 -0.005235 0)
(0.00404101 -0.00405571 0)
(0.00481866 -0.00266047 0)
(0.00535615 -0.00108989 0)
(0.00563656 0.000605382 0)
(0.00564963 0.00236972 0)
(0.00538974 0.00414284 0)
(0.0048581 0.00585918 0)
(0.00406597 0.007449 0)
(0.00303785 0.00884177 0)
(0.00181277 0.00997173 0)
(0.000443278 0.010784 0)
(-1.16758e-05 0.000659423 0)
(-0.000136813 0.00184657 0)
(-0.000381459 0.00286908 0)
(-0.000725423 0.00372099 0)
(-0.00115081 0.00441975 0)
(-0.00164391 0.00497879 0)
(-0.00219315 0.00540751 0)
(-0.00278835 0.00571402 0)
(-0.0034205 0.00590538 0)
(-0.00408146 0.00598694 0)
(-0.00476355 0.00596201 0)
(-0.00545911 0.00583189 0)
(-0.00616007 0.0055962 0)
(-0.00685739 0.0052532 0)
(-0.00754042 0.00480016 0)
(-0.00819594 0.00423387 0)
(-0.00880685 0.00355168 0)
(-0.0093503 0.00275369 0)
(-0.00979546 0.00184735 0)
(-0.0101017 0.00085597 0)
(-0.0102197 -0.000167173 0)
(-0.0101039 -0.00111924 0)
(-0.00976442 -0.00183715 0)
(-0.0094115 -0.00218915 0)
(-0.0091947 -0.00251703 0)
(-0.00891805 -0.00313902 0)
(-0.00835673 -0.0040633 0)
(-0.00744644 -0.0051637 0)
(-0.005922 -0.0066735 0)
(-0.00528259 -0.00746648 0)
(-0.00609864 -0.00757704 0)
(-0.00668694 -0.00875487 0)
(-0.00619178 -0.00868996 0)
(-0.00433552 -0.00916058 0)
(-0.0022179 -0.00911212 0)
(-0.000522905 -0.00886143 0)
(0.00105748 -0.00833496 0)
(0.00252574 -0.00752049 0)
(0.0038497 -0.00639431 0)
(0.00497945 -0.00500311 0)
(0.00587248 -0.00336701 0)
(0.0064977 -0.00153335 0)
(0.0068371 0.000438214 0)
(0.00688083 0.00248713 0)
(0.00662067 0.00454818 0)
(0.00605358 0.00654736 0)
(0.00518767 0.00840225 0)
(0.00404814 0.0100267 0)
(0.00267978 0.011339 0)
(0.00114545 0.0122707 0)
(-1.20224e-05 0.000728951 0)
(-0.000141196 0.00204011 0)
(-0.000394461 0.00317027 0)
(-0.000751284 0.00411341 0)
(-0.00119354 0.00488886 0)
(-0.00170743 0.00551197 0)
(-0.00228147 0.00599383 0)
(-0.00290565 0.00634398 0)
(-0.0035713 0.00657057 0)
(-0.00427068 0.00667967 0)
(-0.00499663 0.00667486 0)
(-0.00574212 0.00655732 0)
(-0.00649981 0.00632602 0)
(-0.00726162 0.005978 0)
(-0.0080181 0.00550849 0)
(-0.00875766 0.00491104 0)
(-0.00946506 0.00417783 0)
(-0.0101191 0.00330111 0)
(-0.0106887 0.00227711 0)
(-0.0111274 0.00111538 0)
(-0.0113639 -0.000140761 0)
(-0.011299 -0.00137068 0)
(-0.0108744 -0.0022887 0)
(-0.0104528 -0.00250387 0)
(-0.0103161 -0.00273795 0)
(-0.010037 -0.00365373 0)
(-0.00912138 -0.00511589 0)
(-0.00751803 -0.00668047 0)
(-0.0058359 -0.00830074 0)
(-0.00493178 -0.00736497 0)
(-0.00440632 -0.00738138 0)
(-0.0040214 -0.00863897 0)
(-0.00363666 -0.00957207 0)
(-0.00275421 -0.0107925 0)
(-0.00147071 -0.0107365 0)
(9.05362e-05 -0.0104654 0)
(0.00169014 -0.00989371 0)
(0.0032669 -0.00897761 0)
(0.00473374 -0.0076875 0)
(0.00601103 -0.00607687 0)
(0.00703408 -0.00417778 0)
(0.00776051 -0.00205303 0)
(0.00817215 0.000222782 0)
(0.00826133 0.00258586 0)
(0.00801505 0.00496908 0)
(0.00742129 0.00729077 0)
(0.00648064 0.00945282 0)
(0.00521708 0.011348 0)
(0.00368221 0.0128727 0)
(0.00195259 0.0139406 0)
(-1.22734e-05 0.000800413 0)
(-0.000144583 0.00223955 0)
(-0.000404792 0.00348134 0)
(-0.000772207 0.00451958 0)
(-0.00122862 0.00537553 0)
(-0.00176029 0.00606658 0)
(-0.00235587 0.00660563 0)
(-0.00300566 0.00700376 0)
(-0.00370136 0.00727033 0)
(-0.00443572 0.0074122 0)
(-0.00520211 0.00743337 0)
(-0.00599411 0.00733497 0)
(-0.00680516 0.00711558 0)
(-0.00762818 0.00677136 0)
(-0.00845531 0.00629607 0)
(-0.00927737 0.00568077 0)
(-0.010083 0.00491335 0)
(-0.0108569 0.00397825 0)
(-0.0115761 0.00285788 0)
(-0.0122024 0.00153907 0)
(-0.0126617 3.31944e-05 0)
(-0.0127871 -0.00157953 0)
(-0.0123611 -0.00287433 0)
(-0.0119978 -0.00271419 0)
(-0.0121689 -0.00271635 0)
(-0.0120157 -0.0041888 0)
(-0.0110848 -0.00635384 0)
(-0.00988664 -0.00818332 0)
(-0.00902118 -0.00934583 0)
(-0.00795655 -0.0084125 0)
(-0.00642369 -0.0085486 0)
(-0.00500361 -0.00940455 0)
(-0.00366119 -0.0105399 0)
(-0.00238811 -0.0117922 0)
(-0.00105169 -0.0121563 0)
(0.000511247 -0.012022 0)
(0.00218043 -0.0115107 0)
(0.00388518 -0.0105598 0)
(0.00553274 -0.00913802 0)
(0.00700326 -0.00730375 0)
(0.00819488 -0.0051162 0)
(0.00905235 -0.00266865 0)
(0.00956467 -6.15169e-05 0)
(0.00973344 0.00264383 0)
(0.00953655 0.0053867 0)
(0.00894333 0.00807993 0)
(0.007939 0.0106045 0)
(0.00654359 0.0128232 0)
(0.00481764 0.0146016 0)
(0.00285701 0.0158282 0)
(-1.24061e-05 0.000873253 0)
(-0.000146743 0.00244343 0)
(-0.00041182 0.00380008 0)
(-0.000787002 0.00493672 0)
(-0.00125418 0.00587654 0)
(-0.00179978 0.00663907 0)
(-0.00241274 0.00723911 0)
(-0.00308372 0.0076894 0)
(-0.00380487 0.00800056 0)
(-0.0045694 0.00818033 0)
(-0.00537117 0.00823314 0)
(-0.00620426 0.00816023 0)
(-0.00706259 0.00795989 0)
(-0.00793973 0.00762785 0)
(-0.00882881 0.00715723 0)
(-0.00972261 0.00653826 0)
(-0.0106138 0.00575732 0)
(-0.0114951 0.00479535 0)
(-0.0123585 0.00362568 0)
(-0.0131915 0.00221361 0)
(-0.0139636 0.000541899 0)
(-0.0145284 -0.00142377 0)
(-0.0144232 -0.00339132 0)
(-0.0146002 -0.00221812 0)
(-0.0151413 -0.00258174 0)
(-0.0143688 -0.00524859 0)
(-0.012901 -0.00758429 0)
(-0.0117647 -0.00923199 0)
(-0.0108845 -0.0101176 0)
(-0.00972591 -0.0100086 0)
(-0.00805676 -0.0102689 0)
(-0.00629461 -0.0110482 0)
(-0.00459407 -0.012099 0)
(-0.00300738 -0.0131689 0)
(-0.00142973 -0.0137064 0)
(0.000313436 -0.0137237 0)
(0.00218203 -0.0132806 0)
(0.00411692 -0.0123407 0)
(0.00603726 -0.0108151 0)
(0.00777526 -0.00873985 0)
(0.0091918 -0.00622642 0)
(0.0102244 -0.00341652 0)
(0.0108857 -0.000456601 0)
(0.0111999 0.00261289 0)
(0.0111239 0.00575683 0)
(0.0105891 0.00888597 0)
(0.00955201 0.0118504 0)
(0.00802501 0.0144675 0)
(0.00608221 0.0165576 0)
(0.00384805 0.0179751 0)
(-1.23974e-05 0.000946797 0)
(-0.000147441 0.00264995 0)
(-0.0004149 0.0041238 0)
(-0.00079445 0.00536142 0)