/*--------------------------------*- C++ -*----------------------------------*\
| =========                 |                                                 |
| \\      /  F ield         | OpenFOAM: The Open Source CFD Toolbox           |
|  \\    /   O peration     | Version:  2.4.0                                 |
|   \\  /    A nd           | Web:      www.OpenFOAM.org                      |
|    \\/     M anipulation  |                                                 |
\*---------------------------------------------------------------------------*/
FoamFile
{
    version     2.0;
    format      ascii;
    class       surfaceScalarField;
    location    "0.278";
    object      phiAlpha;
}
// * * * * * * * * * * * * * * * * * * * * * * * * * * * * * * * * * * * * * //

dimensions      [0 3 -1 0 0 0 0];

internalField   nonuniform List<scalar> 
119500
(
-4.08352e-10
4.08352e-10
-1.2439e-09
8.35549e-10
-2.1341e-09
8.90195e-10
-3.00453e-09
8.70429e-10
-3.84436e-09
8.39833e-10
-4.64651e-09
8.02147e-10
-5.40513e-09
7.58626e-10
-6.11515e-09
7.10015e-10
-6.77219e-09
6.57044e-10
-7.37253e-09
6.00333e-10
-7.91309e-09
5.40568e-10
-8.39141e-09
4.78314e-10
-8.80543e-09
4.14022e-10
-9.15352e-09
3.48092e-10
-9.43408e-09
2.8056e-10
-9.64564e-09
2.11561e-10
-9.78669e-09
1.41051e-10
-9.85548e-09
6.87821e-11
-9.85359e-09
-1.88422e-12
-9.77497e-09
-7.86302e-11
-9.61824e-09
-1.5673e-10
-9.38133e-09
-2.36904e-10
-9.06039e-09
-3.20948e-10
-8.65287e-09
-4.07512e-10
-8.15482e-09
-4.98061e-10
-7.56123e-09
-5.93587e-10
-6.86725e-09
-6.93983e-10
-6.067e-09
-8.00242e-10
-5.15402e-09
-9.12987e-10
-4.12206e-09
-1.03196e-09
-2.96543e-09
-1.15663e-09
-1.67859e-09
-1.28685e-09
-2.55402e-10
-1.42319e-09
1.31062e-09
-1.56603e-09
3.02594e-09
-1.71531e-09
4.89563e-09
-1.8697e-09
6.92663e-09
-2.031e-09
9.12291e-09
-2.19628e-09
1.14839e-08
-2.36104e-09
1.4018e-08
-2.53401e-09
1.67247e-08
-2.70671e-09
1.96038e-08
-2.87909e-09
2.26513e-08
-3.0475e-09
2.58663e-08
-3.21507e-09
2.92437e-08
-3.37742e-09
3.27758e-08
-3.53205e-09
3.64544e-08
-3.67862e-09
4.02704e-08
-3.81597e-09
4.42105e-08
-3.94013e-09
4.8264e-08
-4.05347e-09
5.24189e-08
-4.15488e-09
5.66629e-08
-4.24408e-09
6.09831e-08
-4.32016e-09
6.53664e-08
-4.3833e-09
6.98e-08
-4.43364e-09
7.42719e-08
-4.47184e-09
7.877e-08
-4.49809e-09
8.32827e-08
-4.51271e-09
8.77989e-08
-4.51619e-09
9.23076e-08
-4.50878e-09
9.67982e-08
-4.4906e-09
1.0126e-07
-4.46186e-09
1.05683e-07
-4.42281e-09
1.10057e-07
-4.37371e-09
1.14371e-07
-4.31486e-09
1.18618e-07
-4.24655e-09
1.22787e-07
-4.16914e-09
1.2687e-07
-4.08293e-09
1.30858e-07
-3.98817e-09
1.34743e-07
-3.88489e-09
1.38516e-07
-3.77287e-09
1.42168e-07
-3.65161e-09
1.45688e-07
-3.52027e-09
1.49066e-07
-3.37769e-09
1.52288e-07
-3.22242e-09
1.55341e-07
-3.05281e-09
1.58208e-07
-2.86713e-09
1.60872e-07
-2.66381e-09
1.63314e-07
-2.44173e-09
1.65514e-07
-2.20044e-09
1.67454e-07
-1.94047e-09
1.69118e-07
-1.66357e-09
1.70491e-07
-1.37272e-09
1.71563e-07
-1.07218e-09
1.7233e-07
-7.67049e-10
1.72793e-07
-4.63291e-10
1.72958e-07
-1.65015e-10
1.72829e-07
1.28818e-10
1.72425e-07
4.04549e-10
1.71778e-07
6.46611e-10
1.70917e-07
8.61199e-10
1.69863e-07
1.05412e-09
1.68632e-07
1.23062e-09
1.67233e-07
1.39894e-09
1.65672e-07
1.56187e-09
1.63949e-07
1.72262e-09
1.62067e-07
1.88213e-09
1.60024e-07
2.04236e-09
1.5782e-07
2.20459e-09
2.3856e-09
1.55434e-07
-1.98911e-09
2.39746e-09
-4.91019e-09
3.75662e-09
-7.89965e-09
3.87965e-09
-1.08516e-08
3.82235e-09
-1.37481e-08
3.73641e-09
-1.65765e-08
3.63053e-09
-1.93249e-08
3.50697e-09
-2.1982e-08
3.3671e-09
-2.45373e-08
3.21238e-09
-2.69811e-08
3.04417e-09
-2.93045e-08
2.86392e-09
-3.1499e-08
2.67283e-09
-3.35569e-08
2.47192e-09
-3.54708e-08
2.26202e-09
-3.72338e-08
2.04355e-09
-3.88392e-08
1.81697e-09
-4.02806e-08
1.58246e-09
-4.1552e-08
1.34017e-09
-4.2645e-08
1.09111e-09
-4.35552e-08
8.31552e-10
-4.42752e-08
5.63222e-10
-4.47978e-08
2.85719e-10
-4.5114e-08
-4.70517e-12
-4.52171e-08
-3.0442e-10
-4.5099e-08
-6.16155e-10
-4.47508e-08
-9.4184e-10
-4.41633e-08
-1.28141e-09
-4.33275e-08
-1.63608e-09
-4.22337e-08
-2.00679e-09
-4.08724e-08
-2.39328e-09
-3.9235e-08
-2.79405e-09
-3.73137e-08
-3.20813e-09
-3.51011e-08
-3.63581e-09
-3.25898e-08
-4.07732e-09
-2.97733e-08
-4.53175e-09
-2.66456e-08
-4.99745e-09
-2.3203e-08
-5.4736e-09
-1.94424e-08
-5.9568e-09
-1.53602e-08
-6.44332e-09
-1.09597e-08
-6.9345e-09
-6.24213e-09
-7.42426e-09
-1.21194e-09
-7.90928e-09
4.12599e-09
-8.38543e-09
9.76018e-09
-8.84926e-09
1.56813e-08
-9.29855e-09
2.18773e-08
-9.72802e-09
2.83333e-08
-1.01347e-08
3.50339e-08
-1.05165e-08
4.19631e-08
-1.08693e-08
4.91027e-08
-1.11931e-08
5.64322e-08
-1.14843e-08
6.39342e-08
-1.17461e-08
7.15905e-08
-1.19765e-08
7.9383e-08
-1.21758e-08
8.7294e-08
-1.23447e-08
9.53063e-08
-1.24841e-08
1.03403e-07
-1.25944e-08
1.11567e-07
-1.26769e-08
1.19783e-07
-1.27323e-08
1.28035e-07
-1.27612e-08
1.36309e-07
-1.27642e-08
1.44589e-07
-1.27416e-08
1.5286e-07
-1.2694e-08
1.61108e-07
-1.26219e-08
1.69319e-07
-1.25259e-08
1.77479e-07
-1.24065e-08
1.85574e-07
-1.22644e-08
1.93591e-07
-1.21002e-08
2.01517e-07
-1.19143e-08
2.09339e-07
-1.17067e-08
2.17043e-07
-1.14768e-08
2.24615e-07
-1.12234e-08
2.32039e-07
-1.09446e-08
2.39299e-07
-1.06378e-08
2.46376e-07
-1.02994e-08
2.53249e-07
-9.92551e-09
2.59894e-07
-9.5118e-09
2.66284e-07
-9.05405e-09
2.72391e-07
-8.54874e-09
2.78184e-07
-7.99361e-09
2.83632e-07
-7.38829e-09
2.88703e-07
-6.73495e-09
2.93369e-07
-6.03867e-09
2.97605e-07
-5.30764e-09
3.01391e-07
-4.55292e-09
3.04715e-07
-3.78809e-09
3.07579e-07
-3.02881e-09
3.09998e-07
-2.28975e-09
3.1199e-07
-1.5875e-09
3.13573e-07
-9.36408e-10
3.14773e-07
-3.3895e-10
3.15618e-07
2.08746e-10
3.16147e-07
7.018e-10
3.16399e-07
1.14675e-09
3.16408e-07
1.55333e-09
3.16194e-07
1.93651e-09
3.15771e-07
2.30501e-09
3.15146e-07
2.66718e-09
3.14322e-07
3.02866e-09
3.40688e-09
3.13301e-07
-2.81619e-09
5.21366e-09
-6.77872e-09
7.71916e-09
-1.08089e-08
7.90983e-09
-1.47916e-08
7.80506e-09
-1.87061e-08
7.65091e-09
-2.2537e-08
7.46142e-09
-2.627e-08
7.23997e-09
-2.98915e-08
6.98863e-09
-3.33889e-08
6.70976e-09
-3.67505e-08
6.40577e-09
-3.99654e-08
6.07886e-09
-4.30236e-08
5.73096e-09
-4.59154e-08
5.36373e-09
-4.86318e-08
4.97844e-09
-5.11643e-08
4.57606e-09
-5.35047e-08
4.1573e-09
-5.56448e-08
3.7226e-09
-5.75768e-08
3.27216e-09
-5.92918e-08
2.80614e-09
-6.07828e-08
2.32252e-09
-6.2041e-08
1.82143e-09
-6.30574e-08
1.30211e-09
-6.38248e-08
7.62649e-10
-6.43331e-08
2.03951e-10
-6.45723e-08
-3.76949e-10
-6.4532e-08
-9.82157e-10
-6.42024e-08
-1.61107e-09
-6.35734e-08
-2.265e-09
-6.26353e-08
-2.94494e-09
-6.13774e-08
-3.6511e-09
-5.97899e-08
-4.3816e-09
-5.78636e-08
-5.13444e-09
-5.55909e-08
-5.9085e-09
-5.29652e-08
-6.70298e-09
-4.99811e-08
-7.51593e-09
-4.66339e-08
-8.34461e-09
-4.29214e-08
-9.1861e-09
-3.88423e-08
-1.00359e-08
-3.43964e-08
-1.08892e-08
-2.95877e-08
-1.17433e-08
-2.44204e-08
-1.25915e-08
-1.89014e-08
-1.34283e-08
-1.30393e-08
-1.42476e-08
-6.84473e-09
-1.50438e-08
-3.31203e-10
-1.58121e-08
6.48676e-09
-1.6546e-08
1.35928e-08
-1.72407e-08
2.09693e-08
-1.78931e-08
2.85979e-08
-1.84978e-08
3.64585e-08
-1.90538e-08
4.45323e-08
-1.95581e-08
5.27977e-08
-2.00115e-08
6.12355e-08
-2.04144e-08
6.98261e-08
-2.07663e-08
7.85505e-08
-2.1069e-08
8.739e-08
-2.13236e-08
9.63276e-08
-2.1532e-08
1.05346e-07
-2.16955e-08
1.14429e-07
-2.18153e-08
1.23561e-07
-2.18925e-08
1.32725e-07
-2.19282e-08
1.41906e-07
-2.19231e-08
1.5109e-07
-2.18783e-08
1.60263e-07
-2.17945e-08
1.6941e-07
-2.16728e-08
1.78518e-07
-2.15142e-08
1.87573e-07
-2.132e-08
1.96564e-07
-2.1091e-08
2.05478e-07
-2.08282e-08
2.14303e-07
-2.05316e-08
2.23027e-07
-2.02006e-08
2.31637e-07
-1.98336e-08
2.4012e-07
-1.94275e-08
2.48461e-07
-1.89785e-08
2.56642e-07
-1.8481e-08
2.64646e-07
-1.79288e-08
2.72448e-07
-1.73147e-08
2.80026e-07
-1.66314e-08
2.8735e-07
-1.58725e-08
2.94389e-07
-1.50327e-08
3.0111e-07
-1.41096e-08
3.07479e-07
-1.31044e-08
3.13463e-07
-1.20222e-08
3.19029e-07
-1.08734e-08
3.24149e-07
-9.67302e-09
3.28801e-07
-8.44057e-09
3.32972e-07
-7.19936e-09
3.36657e-07
-5.97457e-09
3.39861e-07
-4.79227e-09
3.42601e-07
-3.6759e-09
3.44903e-07
-2.6411e-09
3.46809e-07
-1.6973e-09
3.48358e-07
-8.46638e-10
3.49584e-07
-7.93229e-11
3.50517e-07
6.20247e-10
3.51181e-07
1.27226e-09
3.51596e-07
1.89007e-09
3.51773e-07
2.48971e-09
3.51721e-07
3.081e-09
3.68179e-09
3.51446e-07
-3.16739e-09
8.38105e-09
-7.55029e-09
1.21021e-08
-1.20032e-08
1.23627e-08
-1.64063e-08
1.22082e-08
-2.07374e-08
1.19819e-08
-2.498e-08
1.17041e-08
-2.91193e-08
1.13792e-08
-3.3141e-08
1.10104e-08
-3.70322e-08
1.06009e-08
-4.07806e-08
1.01542e-08
-4.43751e-08
9.67334e-09
-4.78051e-08
9.16097e-09
-5.10608e-08
8.61938e-09
-5.41327e-08
8.05034e-09
-5.70119e-08
7.45524e-09
-5.96896e-08
6.83501e-09
-6.21571e-08
6.19016e-09
-6.44058e-08
5.52083e-09
-6.64264e-08
4.82668e-09
-6.82101e-08
4.10624e-09
-6.97474e-08
3.35878e-09
-7.10285e-08
2.58313e-09
-7.20435e-08
1.77765e-09
-7.27816e-08
9.42123e-10
-7.3233e-08
7.43759e-11
-7.33866e-08
-8.28543e-10
-7.32317e-08
-1.76596e-09
-7.2757e-08
-2.73963e-09
-7.19523e-08
-3.7497e-09
-7.08068e-08
-4.79657e-09
-6.93105e-08
-5.87795e-09
-6.74537e-08
-6.99126e-09
-6.52285e-08
-8.13368e-09
-6.26288e-08
-9.30271e-09
-5.96496e-08
-1.04951e-08
-5.62874e-08
-1.17067e-08
-5.25409e-08
-1.29326e-08
-4.84101e-08
-1.41668e-08
-4.38964e-08
-1.54029e-08
-3.90047e-08
-1.6635e-08
-3.37408e-08
-1.78553e-08
-2.81131e-08
-1.9056e-08
-2.21317e-08
-2.0229e-08
-1.58087e-08
-2.13668e-08
-9.15862e-09
-2.24621e-08
-2.19743e-09
-2.35072e-08
5.05756e-09
-2.44957e-08
1.25872e-08
-2.54228e-08
2.03722e-08
-2.62828e-08
2.83919e-08
-2.70735e-08
3.66261e-08
-2.77922e-08
4.50524e-08
-2.84378e-08
5.36515e-08
-2.90135e-08
6.2403e-08
-2.95179e-08
7.12874e-08
-2.99534e-08
8.02859e-08
-3.03221e-08
8.93804e-08
-3.06265e-08
9.85537e-08
-3.08689e-08
1.07789e-07
-3.10507e-08
1.1707e-07
-3.11737e-08
1.26382e-07
-3.12395e-08
1.35708e-07
-3.12491e-08
1.45033e-07
-3.1204e-08
1.54344e-07
-3.11055e-08
1.63627e-07
-3.09551e-08
1.72867e-07
-3.07545e-08
1.82052e-07
-3.05054e-08
1.91171e-07
-3.02094e-08
2.0021e-07
-2.98678e-08
2.0916e-07
-2.9481e-08
2.18007e-07
-2.90484e-08
2.26742e-07
-2.85679e-08
2.3535e-07
-2.8036e-08
2.43819e-07
-2.74472e-08
2.52132e-07
-2.67943e-08
2.60272e-07
-2.60686e-08
2.68217e-07
-2.526e-08
2.75944e-07
-2.43582e-08
2.83425e-07
-2.33533e-08
2.90629e-07
-2.22372e-08
2.97524e-07
-2.10048e-08
3.04076e-07
-1.96558e-08
3.10249e-07
-1.81951e-08
3.1601e-07
-1.66344e-08
3.21329e-07
-1.49923e-08
3.26182e-07
-1.32934e-08
3.30551e-07
-1.15682e-08
3.34427e-07
-9.85079e-09
3.37811e-07
-8.17691e-09
3.40716e-07
-6.58024e-09
3.43162e-07
-5.08779e-09
3.45183e-07
-3.7175e-09
3.46812e-07
-2.47602e-09
3.48089e-07
-1.3561e-09
3.49046e-07
-3.36908e-10
3.49706e-07
6.12197e-10
3.50082e-07
1.5139e-09
3.50179e-07
2.39273e-09
3.50003e-07
3.25708e-09
4.12228e-09
3.49563e-07
-3.30541e-09
1.16865e-08
-7.84181e-09
1.66385e-08
-1.24519e-08
1.69728e-08
-1.70137e-08
1.67701e-08
-2.1504e-08
1.64722e-08
-2.59065e-08
1.61065e-08
-3.02059e-08
1.56787e-08
-3.43882e-08
1.51927e-08
-3.84402e-08
1.46529e-08
-4.23497e-08
1.40637e-08
-4.61052e-08
1.34288e-08
-4.9696e-08
1.27518e-08
-5.31121e-08
1.20354e-08
-5.63437e-08
1.12819e-08
-5.93815e-08
1.04931e-08
-6.22164e-08
9.66992e-09
-6.48392e-08
8.81293e-09
-6.72404e-08
7.92207e-09
-6.94104e-08
6.99665e-09
-7.13394e-08
6.03521e-09
-7.3017e-08
5.0364e-09
-7.44325e-08
3.99861e-09
-7.55748e-08
2.92e-09
-7.64322e-08
1.79948e-09
-7.69931e-08
6.35305e-10
-7.72466e-08
-5.75087e-10
-7.71807e-08
-1.83182e-09
-7.67839e-08
-3.13639e-09
-7.60453e-08
-4.48836e-09
-7.49546e-08
-5.88729e-09
-7.35016e-08
-7.33086e-09
-7.16772e-08
-8.81565e-09
-6.94733e-08
-1.03376e-08
-6.68837e-08
-1.18923e-08
-6.39038e-08
-1.3475e-08
-6.05307e-08
-1.50798e-08
-5.67633e-08
-1.66999e-08
-5.26025e-08
-1.83276e-08
-4.80509e-08
-1.99545e-08
-4.31135e-08
-2.15724e-08
-3.77974e-08
-2.31714e-08
-3.21115e-08
-2.47418e-08
-2.6067e-08
-2.62736e-08
-1.96769e-08
-2.77569e-08
-1.29565e-08
-2.91825e-08
-5.92242e-09
-3.05412e-08
1.40719e-09
-3.18253e-08
9.01192e-09
-3.30275e-08
1.68722e-08
-3.4143e-08
2.49663e-08
-3.51676e-08
3.32731e-08
-3.6099e-08
4.17724e-08
-3.69371e-08
5.04411e-08
-3.76822e-08
5.92597e-08
-3.83364e-08
6.82082e-08
-3.89019e-08
7.72676e-08
-3.93814e-08
8.64198e-08
-3.97788e-08
9.56472e-08
-4.00964e-08
1.04933e-07
-4.03367e-08
1.14261e-07
-4.05018e-08
1.23616e-07
-4.05937e-08
1.3298e-07
-4.0614e-08
1.42341e-07
-4.05644e-08
1.51682e-07
-4.04467e-08
1.6099e-07
-4.0263e-08
1.70251e-07
-4.00156e-08
1.79453e-07
-3.97067e-08
1.88582e-07
-3.93388e-08
1.97628e-07
-3.89136e-08
2.06579e-07
-3.84318e-08
2.15423e-07
-3.78931e-08
2.2415e-07
-3.7295e-08
2.32748e-07
-3.66332e-08
2.41201e-07
-3.5901e-08
2.49496e-07
-3.50892e-08
2.57614e-07
-3.41865e-08
2.65534e-07
-3.31801e-08
2.73232e-07
-3.20561e-08
2.8068e-07
-3.08012e-08
2.87847e-07
-2.94039e-08
2.94699e-07
-2.78566e-08
3.012e-07
-2.61569e-08
3.07315e-07
-2.43099e-08
3.13009e-07
-2.23285e-08
3.18251e-07
-2.02348e-08
3.23017e-07
-1.80589e-08
3.27287e-07
-1.58388e-08
3.31054e-07
-1.36176e-08
3.34318e-07
-1.14411e-08
3.37092e-07
-9.35383e-09
3.39398e-07
-7.39341e-09
3.41266e-07
-5.58618e-09
3.42733e-07
-3.94266e-09
3.43831e-07
-2.4545e-09
3.44589e-07
-1.09464e-09
3.45025e-07
1.75894e-10
3.45144e-07
1.39513e-09
3.44945e-07
2.5917e-09
3.44428e-07
3.77409e-09
4.95078e-09
3.436e-07
-3.36788e-09
1.50543e-08
-7.96642e-09
2.1237e-08
-1.26412e-08
2.16476e-08
-1.72693e-08
2.13981e-08
-2.18269e-08
2.10298e-08
-2.62977e-08
2.05773e-08
-3.06664e-08
2.00475e-08
-3.49191e-08
1.94454e-08
-3.90425e-08
1.87763e-08
-4.30242e-08
1.80454e-08
-4.68526e-08
1.72573e-08
-5.0517e-08
1.64162e-08
-5.4007e-08
1.55254e-08
-5.73128e-08
1.45877e-08
-6.04248e-08
1.36051e-08
-6.33336e-08
1.25787e-08
-6.60297e-08
1.1509e-08
-6.85032e-08
1.03956e-08
-7.07442e-08
9.23761e-09
-7.27423e-08
8.03327e-09
-7.44866e-08
6.78073e-09
-7.59659e-08
5.47791e-09
-7.71685e-08
4.12261e-09
-7.80822e-08
2.71312e-09
-7.86945e-08
1.24762e-09
-7.89935e-08
-2.76066e-10
-7.89672e-08
-1.85807e-09
-7.86038e-08
-3.4998e-09
-7.78919e-08
-5.20025e-09
-7.68212e-08
-6.958e-09
-7.53819e-08
-8.77022e-09
-7.35648e-08
-1.06327e-08
-7.13621e-08
-1.25403e-08
-6.87674e-08
-1.4487e-08
-6.57765e-08
-1.6466e-08
-6.23864e-08
-1.84699e-08
-5.85966e-08
-2.04898e-08
-5.4408e-08
-2.25162e-08
-4.98238e-08
-2.45387e-08
-4.48494e-08
-2.65468e-08
-3.94922e-08
-2.85287e-08
-3.37616e-08
-3.04724e-08
-2.76693e-08
-3.23659e-08
-2.12289e-08
-3.41974e-08
-1.4456e-08
-3.59554e-08
-7.36791e-09
-3.76293e-08
1.63837e-11
-3.92096e-08
7.67697e-09
-4.06881e-08
1.55927e-08
-4.20588e-08
2.37415e-08
-4.33164e-08
3.21029e-08
-4.44604e-08
4.06532e-08
-4.54874e-08
4.9372e-08
-4.64011e-08
5.82385e-08
-4.72029e-08
6.72327e-08
-4.78961e-08
7.63357e-08
-4.84843e-08
8.55289e-08
-4.8972e-08
9.47952e-08
-4.93627e-08
1.04118e-07
-4.96592e-08
1.1348e-07
-4.98642e-08
1.22866e-07
-4.99801e-08
1.32261e-07
-5.00088e-08
1.41649e-07
-4.99524e-08
1.51015e-07
-4.98131e-08
1.60346e-07
-4.95935e-08
1.69627e-07
-4.92966e-08
1.78846e-07
-4.89253e-08
1.8799e-07
-4.84829e-08
1.97048e-07
-4.79715e-08
2.06008e-07
-4.73926e-08
2.14861e-07
-4.67459e-08
2.23595e-07
-4.60287e-08
2.32197e-07
-4.52359e-08
2.40656e-07
-4.43594e-08
2.48955e-07
-4.33881e-08
2.57076e-07
-4.23081e-08
2.64999e-07
-4.11032e-08
2.72699e-07
-3.9756e-08
2.80147e-07
-3.82492e-08
2.87311e-07
-3.65676e-08
2.94155e-07
-3.47005e-08
3.00642e-07
-3.26436e-08
3.06733e-07
-3.04015e-08
3.12393e-07
-2.79886e-08
3.17589e-07
-2.54306e-08
3.22294e-07
-2.27636e-08
3.26488e-07
-2.00334e-08
3.30164e-07
-1.7293e-08
3.33322e-07
-1.45994e-08
3.35977e-07
-1.20085e-08
3.38153e-07
-9.56952e-09
3.39884e-07
-7.3176e-09
3.41209e-07
-5.26713e-09
3.42161e-07
-3.40729e-09
3.42769e-07
-1.70202e-09
3.43043e-07
-9.85312e-11
3.42983e-07
1.45532e-09
3.4258e-07
2.99466e-09
3.41828e-07
4.52608e-09
6.04658e-09
3.40732e-07
-3.40837e-09
1.84627e-08
-8.04421e-09
2.58729e-08
-1.27571e-08
2.63605e-08
-1.74236e-08
2.60646e-08
-2.20197e-08
2.5626e-08
-2.65289e-08
2.50865e-08
-3.0936e-08
2.44546e-08
-3.52269e-08
2.37362e-08
-3.93882e-08
2.29376e-08
-4.34076e-08
2.20648e-08
-4.72735e-08
2.11232e-08
-5.09751e-08
2.01177e-08
-5.4502e-08
1.90524e-08
-5.78446e-08
1.79303e-08
-6.09931e-08
1.67536e-08
-6.39381e-08
1.55237e-08
-6.66699e-08
1.42408e-08
-6.91787e-08
1.29045e-08
-7.14544e-08
1.15133e-08
-7.34864e-08
1.00653e-08
-7.52637e-08
8.55803e-09
-7.67748e-08
6.98899e-09
-7.80077e-08
5.35551e-09
-7.89499e-08
3.65536e-09
-7.95888e-08
1.88647e-09
-7.99119e-08
4.70888e-11
-7.99067e-08
-1.86332e-09
-7.95612e-08
-3.84529e-09
-7.88638e-08
-5.89761e-09
-7.78039e-08
-8.0179e-09
-7.63716e-08
-1.02025e-08
-7.45578e-08
-1.24465e-08
-7.23549e-08
-1.47433e-08
-6.97564e-08
-1.70855e-08
-6.67579e-08
-1.94645e-08
-6.33567e-08
-2.1871e-08
-5.95521e-08
-2.42944e-08
-5.53453e-08
-2.6723e-08
-5.07396e-08
-2.91445e-08
-4.57403e-08
-3.15461e-08
-4.03551e-08
-3.39139e-08
-3.45935e-08
-3.62339e-08
-2.84675e-08
-3.84919e-08
-2.1991e-08
-4.06739e-08
-1.51798e-08
-4.27666e-08
-8.05172e-09
-4.47574e-08
-6.26086e-10
-4.66352e-08
7.07659e-09
-4.83908e-08
1.50345e-08
-5.00167e-08
2.32263e-08
-5.15082e-08
3.1629e-08
-5.28631e-08
4.02198e-08
-5.40781e-08
4.89778e-08
-5.51591e-08
5.7882e-08
-5.61071e-08
6.69122e-08
-5.69263e-08
7.60494e-08
-5.76216e-08
8.52755e-08
-5.81981e-08
9.4573e-08
-5.86602e-08
1.03925e-07
-5.90116e-08
1.13317e-07
-5.92554e-08
1.22731e-07
-5.93941e-08
1.32152e-07
-5.94301e-08
1.41565e-07
-5.93657e-08
1.50956e-07
-5.92036e-08
1.60309e-07
-5.89468e-08
1.69612e-07
-5.85991e-08
1.7885e-07
-5.81642e-08
1.88014e-07
-5.7646e-08
1.9709e-07
-5.70477e-08
2.06068e-07
-5.63712e-08
2.14939e-07
-5.56164e-08
2.23691e-07
-5.47807e-08
2.32313e-07
-5.38581e-08
2.40793e-07
-5.28393e-08
2.49116e-07
-5.17111e-08
2.57265e-07
-5.04567e-08
2.65218e-07
-4.90564e-08
2.7295e-07
-4.74887e-08
2.80433e-07
-4.5732e-08
2.87632e-07
-4.37669e-08
2.94511e-07
-4.1579e-08
3.01029e-07
-3.91615e-08
3.07146e-07
-3.65183e-08
3.12822e-07
-3.36651e-08
3.18023e-07
-3.06314e-08
3.22719e-07
-2.74595e-08
3.26889e-07
-2.42036e-08
3.30523e-07
-2.09274e-08
3.33624e-07
-1.77001e-08
3.36207e-07
-1.45911e-08
3.38299e-07
-1.16621e-08
3.39941e-07
-8.95884e-09
3.41174e-07
-6.50051e-09
3.4204e-07
-4.27293e-09
3.42565e-07
-2.22787e-09
3.42762e-07
-2.94825e-10
3.42621e-07
1.59573e-09
3.42128e-07
3.48774e-09
3.4127e-07
5.38468e-09
7.26836e-09
3.40048e-07
-3.44402e-09
2.19067e-08
-8.11283e-09
3.05417e-08
-1.28583e-08
3.1106e-08
-1.75566e-08
3.0763e-08
-2.21838e-08
3.02531e-08
-2.67229e-08
2.96256e-08
-3.11589e-08
2.88905e-08
-3.54774e-08
2.80547e-08
-3.96651e-08
2.71254e-08
-4.37099e-08
2.61095e-08
-4.76002e-08
2.50135e-08
-5.13253e-08
2.38428e-08
-5.48751e-08
2.26022e-08
-5.82399e-08
2.12951e-08
-6.14103e-08
1.9924e-08
-6.43768e-08
1.84902e-08
-6.713e-08
1.6994e-08
-6.96602e-08
1.54347e-08
-7.19573e-08
1.38104e-08
-7.40108e-08
1.21187e-08
-7.58095e-08
1.03568e-08
-7.73419e-08
8.5214e-09
-7.85959e-08
6.60952e-09
-7.95589e-08
4.61837e-09
-8.02181e-08
2.5456e-09
-8.05605e-08
3.89528e-10
-8.05734e-08
-1.8504e-09
-8.02445e-08
-4.17415e-09
-7.9562e-08
-6.58015e-09
-7.85147e-08
-9.06516e-09
-7.70926e-08
-1.16247e-08
-7.52866e-08
-1.42525e-08
-7.30887e-08
-1.69411e-08
-7.04926e-08
-1.96815e-08
-6.74937e-08
-2.24635e-08
-6.40892e-08
-2.52756e-08
-6.02781e-08
-2.81054e-08
-5.60617e-08
-3.09394e-08
-5.14431e-08
-3.37631e-08
-4.64277e-08
-3.65615e-08
-4.10231e-08
-3.93185e-08
-3.52389e-08
-4.20181e-08
-2.90871e-08
-4.46437e-08
-2.25817e-08
-4.71793e-08
-1.57391e-08
-4.96093e-08
-8.57713e-09
-5.19193e-08
-1.11568e-09
-5.40967e-08
6.62419e-09
-5.61306e-08
1.46204e-08
-5.80129e-08
2.28503e-08
-5.97381e-08
3.12907e-08
-6.13036e-08
3.99193e-08
-6.27068e-08
4.87138e-08
-6.39536e-08
5.7653e-08
-6.50463e-08
6.67169e-08
-6.59902e-08
7.58864e-08
-6.6791e-08
8.51434e-08
-6.74552e-08
9.44708e-08
-6.79876e-08
1.03852e-07
-6.83929e-08
1.13271e-07
-6.86745e-08
1.22712e-07
-6.88353e-08
1.3216e-07
-6.88778e-08
1.41599e-07
-6.88047e-08
1.51014e-07
-6.86189e-08
1.60392e-07
-6.8324e-08
1.69717e-07
-6.79244e-08
1.78978e-07
-6.74248e-08
1.88162e-07
-6.683e-08
1.97258e-07
-6.61442e-08
2.06257e-07
-6.53701e-08
2.15149e-07
-6.45079e-08
2.23923e-07
-6.35551e-08
2.3257e-07
-6.2505e-08
2.41078e-07
-6.13471e-08
2.49432e-07
-6.00659e-08
2.57618e-07
-5.86417e-08
2.65612e-07
-5.70511e-08
2.73391e-07
-5.52679e-08
2.80925e-07
-5.32656e-08
2.88178e-07
-5.10201e-08
2.95112e-07
-4.85124e-08
3.01683e-07
-4.5733e-08
3.07849e-07
-4.26842e-08
3.13567e-07
-3.93831e-08
3.18798e-07
-3.58627e-08
3.23511e-07
-3.21719e-08
3.27681e-07
-2.83738e-08
3.31297e-07
-2.45438e-08
3.34362e-07
-2.07648e-08
3.36892e-07
-1.7121e-08
3.38919e-07
-1.36896e-08
3.40489e-07
-1.05287e-08
3.41653e-07
-7.66412e-09
3.42458e-07
-5.07808e-09
3.42937e-07
-2.70692e-09
3.431e-07
-4.57448e-10
3.42933e-07
1.76263e-09
3.42411e-07
4.00919e-09
3.41515e-07
6.28117e-09
8.54026e-09
3.40243e-07
-3.48024e-09
2.5387e-08
-8.18361e-09
3.5245e-08
-1.29625e-08
3.58848e-08
-1.7693e-08
3.54935e-08
-2.2351e-08
3.4911e-08
-2.69193e-08
3.4194e-08
-3.13827e-08
3.33539e-08
-3.57269e-08
3.23988e-08
-3.99386e-08
3.13371e-08
-4.40058e-08
3.01767e-08
-4.79172e-08
2.89249e-08
-5.16623e-08
2.75879e-08
-5.52312e-08
2.61711e-08
-5.86144e-08
2.46783e-08
-6.18028e-08
2.31124e-08
-6.47872e-08
2.14746e-08
-6.75584e-08
1.97652e-08
-7.01069e-08
1.79831e-08
-7.24226e-08
1.61261e-08
-7.44953e-08
1.41913e-08
-7.63138e-08
1.21752e-08
-7.78665e-08
1.00741e-08
-7.91412e-08
7.88423e-09
-8.01252e-08
5.60237e-09
-8.08054e-08
3.22586e-09
-8.11688e-08
7.52903e-10
-8.12022e-08
-1.81704e-09
-8.08929e-08
-4.48344e-09
-8.02287e-08
-7.24433e-09
-7.91982e-08
-1.00957e-08
-7.77909e-08
-1.3032e-08
-7.59974e-08
-1.6046e-08
-7.38096e-08
-1.91289e-08
-7.1221e-08
-2.22701e-08
-6.82267e-08
-2.54578e-08
-6.48236e-08
-2.86787e-08
-6.10107e-08
-3.19183e-08
-5.6789e-08
-3.51611e-08
-5.21614e-08
-3.83907e-08
-4.71332e-08
-4.15896e-08
-4.17119e-08
-4.47399e-08
-3.59072e-08
-4.78228e-08
-2.9731e-08
-5.08199e-08
-2.31976e-08
-5.37126e-08
-1.63235e-08
-5.64834e-08
-9.12708e-09
-5.91157e-08
-1.62864e-09
-6.15951e-08
6.15011e-09
-6.39094e-08
1.41865e-08
-6.60493e-08
2.2457e-08
-6.80087e-08
3.0937e-08
-6.97835e-08
3.96067e-08
-7.13765e-08
4.84406e-08
-7.27875e-08
5.74176e-08
-7.40234e-08
6.65178e-08
-7.50904e-08
7.57223e-08
-7.59955e-08
8.50127e-08
-7.67456e-08
9.43723e-08
-7.73472e-08
1.03785e-07
-7.78055e-08
1.13235e-07
-7.81242e-08
1.22706e-07
-7.83064e-08
1.32183e-07
-7.83548e-08
1.4165e-07
-7.82722e-08
1.51093e-07
-7.80617e-08
1.60497e-07
-7.77276e-08
1.69847e-07
-7.72749e-08
1.79132e-07
-7.67095e-08
1.88339e-07
-7.60372e-08
1.97458e-07
-7.52633e-08
2.06479e-07
-7.43914e-08
2.15394e-07
-7.34226e-08
2.24193e-07
-7.23543e-08
2.32868e-07
-7.11795e-08
2.41407e-07
-6.98862e-08
2.49798e-07
-6.8457e-08
2.58025e-07
-6.68688e-08
2.66068e-07
-6.50941e-08
2.73902e-07
-6.31018e-08
2.81496e-07
-6.08598e-08
2.88815e-07
-5.83382e-08
2.95815e-07
-5.55131e-08
3.02453e-07
-5.2371e-08
3.08682e-07
-4.89125e-08
3.14454e-07
-4.51556e-08
3.19728e-07
-4.11367e-08
3.24468e-07
-3.69115e-08
3.28646e-07
-3.25527e-08
3.32251e-07
-2.81483e-08
3.35282e-07
-2.37963e-08
3.3776e-07
-1.95984e-08
3.3972e-07
-1.56497e-08
3.41215e-07
-1.20242e-08
3.42308e-07
-8.7567e-09
3.43056e-07
-5.82587e-09
3.43498e-07
-3.14943e-09
3.43645e-07
-6.04026e-10
3.43474e-07
1.93314e-09
3.4295e-07
4.53406e-09
3.4204e-07
7.19026e-09
9.83689e-09
3.40744e-07
-3.51921e-09
2.89062e-08
-8.26075e-09
3.99866e-08
-1.30763e-08
4.07004e-08
-1.7842e-08
4.02592e-08
-2.25333e-08
3.96023e-08
-2.7133e-08
3.87937e-08
-3.16256e-08
3.78466e-08
-3.59969e-08
3.67701e-08
-4.02339e-08
3.5574e-08
-4.43244e-08
3.42673e-08
-4.82576e-08
3.28581e-08
-5.20232e-08
3.13535e-08
-5.56116e-08
2.97595e-08
-5.90137e-08
2.80804e-08
-6.22206e-08
2.63193e-08
-6.52234e-08
2.44775e-08
-6.80133e-08
2.25551e-08
-7.05809e-08
2.05507e-08
-7.29165e-08
1.84617e-08
-7.50098e-08
1.62846e-08
-7.68498e-08
1.40152e-08
-7.84248e-08
1.16491e-08
-7.97226e-08
9.18202e-09
-8.07303e-08
6.61006e-09
-8.14346e-08
3.93016e-09
-8.18221e-08
1.14038e-09
-8.18793e-08
-1.75987e-09
-8.15931e-08
-4.7696e-09
-8.09509e-08
-7.88655e-09
-7.99408e-08
-1.11057e-08
-7.8552e-08
-1.44208e-08
-7.67747e-08
-1.78234e-08
-7.46004e-08
-2.13032e-08
-7.20222e-08
-2.48483e-08
-6.90352e-08
-2.84449e-08
-6.56358e-08
-3.2078e-08
-6.18228e-08
-3.57313e-08
-5.75969e-08
-3.9387e-08
-5.29609e-08
-4.30266e-08
-4.792e-08
-4.66306e-08
-4.24813e-08
-5.01785e-08
-3.66547e-08
-5.36495e-08
-3.04521e-08
-5.70225e-08
-2.3888e-08
-6.02767e-08
-1.69792e-08
-6.33923e-08
-9.74444e-09
-6.63505e-08
-2.20469e-09
-6.91349e-08
5.6177e-09
-7.17318e-08
1.36992e-08
-7.41308e-08
2.20156e-08
-7.63251e-08
3.05425e-08
-7.83104e-08
3.92565e-08
-8.00905e-08
4.81342e-08
-8.16652e-08
5.71536e-08
-8.30428e-08
6.62945e-08
-8.42313e-08
7.55378e-08
-8.52387e-08
8.48657e-08
-8.60735e-08
9.42616e-08
-8.6743e-08
1.03709e-07
-8.72532e-08
1.13193e-07
-8.76082e-08
1.22698e-07
-8.78112e-08
1.32208e-07
-8.78647e-08
1.41708e-07
-8.77717e-08
1.51181e-07
-8.75356e-08
1.60615e-07
-8.7161e-08
1.69994e-07
-8.66539e-08
1.79306e-07
-8.60212e-08
1.88538e-07
-8.52701e-08
1.97682e-07
-8.44073e-08
2.06729e-07
-8.34375e-08
2.15669e-07
-8.23627e-08
2.24495e-07
-8.11807e-08
2.332e-07
-7.98842e-08
2.41774e-07
-7.846e-08
2.50205e-07
-7.68883e-08
2.58479e-07
-7.5143e-08
2.66577e-07
-7.31918e-08
2.74473e-07
-7.09981e-08
2.82137e-07
-6.85236e-08
2.8953e-07
-6.57316e-08
2.96609e-07
-6.25922e-08
3.03326e-07
-5.90873e-08
3.09628e-07
-5.5215e-08
3.15466e-07
-5.09935e-08
3.20792e-07
-4.64629e-08
3.25566e-07
-4.16856e-08
3.29758e-07
-3.67447e-08
3.33351e-07
-3.17416e-08
3.36346e-07
-2.67914e-08
3.38764e-07
-2.20158e-08
3.40646e-07
-1.75315e-08
3.42054e-07
-1.34327e-08
3.43064e-07
-9.76665e-09
3.43748e-07
-6.50938e-09
3.44154e-07
-3.55565e-09
3.44292e-07
-7.42029e-10
3.44129e-07
2.09563e-09
3.43613e-07
5.05064e-09
3.42699e-07
8.10418e-09
1.11549e-08
3.41381e-07
-3.56204e-09
3.24682e-08
-8.34624e-09
4.47708e-08
-1.32028e-08
4.5557e-08
-1.80076e-08
4.50639e-08
-2.27359e-08
4.43306e-08
-2.73703e-08
4.34281e-08
-3.18952e-08
4.23715e-08
-3.62964e-08
4.11714e-08
-4.0561e-08
3.98386e-08
-4.46772e-08
3.83835e-08
-4.86343e-08
3.68151e-08
-5.24223e-08
3.51415e-08
-5.6032e-08
3.33692e-08
-5.94547e-08
3.15031e-08
-6.26819e-08
2.95464e-08
-6.5705e-08
2.75006e-08
-6.85155e-08
2.53656e-08
-7.11043e-08
2.31396e-08
-7.34621e-08
2.08195e-08
-7.55785e-08
1.84011e-08
-7.74427e-08
1.58795e-08
-7.9043e-08
1.32495e-08
-8.0367e-08
1.0506e-08
-8.14016e-08
7.64465e-09
-8.21333e-08
4.66185e-09
-8.25482e-08
1.55533e-09
-8.26326e-08
-1.67548e-09
-8.23729e-08
-5.02934e-09
-8.1756e-08
-8.50345e-09
-8.07695e-08
-1.20922e-08
-7.94021e-08
-1.57882e-08
-7.76436e-08
-1.95819e-08
-7.54851e-08
-2.34617e-08
-7.29194e-08
-2.7414e-08
-6.9941e-08
-3.14233e-08
-6.65462e-08
-3.54728e-08
-6.27335e-08
-3.9544e-08
-5.85033e-08
-4.36173e-08
-5.38582e-08
-4.76718e-08
-4.88031e-08
-5.16857e-08
-4.33451e-08
-5.56364e-08
-3.7494e-08
-5.95006e-08
-3.12618e-08
-6.32547e-08
-2.46631e-08
-6.68754e-08
-1.7715e-08
-7.03403e-08
-1.0437e-08
-7.36285e-08
-2.85055e-09
-7.67213e-08
5.02115e-09
-7.96035e-08
1.31537e-08
-8.22634e-08
2.15219e-08
-8.46932e-08
3.01013e-08
-8.68898e-08
3.88657e-08
-8.88549e-08
4.77926e-08
-9.05921e-08
5.68596e-08
-9.21097e-08
6.60458e-08
-9.34176e-08
7.53326e-08
-9.45255e-08
8.47022e-08
-9.54431e-08
9.41382e-08
-9.61791e-08
1.03625e-07
-9.674e-08
1.13147e-07
-9.71305e-08
1.2269e-07
-9.73534e-08
1.32236e-07
-9.74115e-08
1.41772e-07
-9.73072e-08
1.5128e-07
-9.70443e-08
1.60747e-07
-9.66278e-08
1.70158e-07
-9.60646e-08
1.795e-07
-9.53628e-08
1.88761e-07
-9.45314e-08
1.97932e-07
-9.35784e-08
2.07005e-07
-9.25104e-08
2.15972e-07
-9.13302e-08
2.24828e-07
-9.00365e-08
2.33565e-07
-8.86216e-08
2.42177e-07
-8.70714e-08
2.50652e-07
-8.53638e-08
2.58978e-07
-8.34692e-08
2.67137e-07
-8.13504e-08
2.75104e-07
-7.89647e-08
2.82846e-07
-7.62663e-08
2.90326e-07
-7.3211e-08
2.97495e-07
-6.97618e-08
3.04303e-07
-6.58946e-08
3.10692e-07
-6.16042e-08
3.16607e-07
-5.69086e-08
3.21995e-07
-5.18513e-08
3.26811e-07
-4.65017e-08
3.31021e-07
-4.09539e-08
3.34603e-07
-3.53237e-08
3.37557e-07
-2.97452e-08
3.39904e-07
-2.4363e-08
3.41693e-07
-1.93202e-08
3.42997e-07
-1.47368e-08
3.43908e-07
-1.06778e-08
3.44516e-07
-7.11797e-09
3.44884e-07
-3.92339e-09
3.4502e-07
-8.77564e-10
3.44876e-07
2.23886e-09
3.44378e-07
5.54935e-09
3.43462e-07
9.01951e-09
1.24991e-08
3.42118e-07
-3.60935e-09
3.60776e-08
-8.44115e-09
4.96026e-08
-1.33434e-08
5.04593e-08
-1.81918e-08
4.99122e-08
-2.29612e-08
4.91001e-08
-2.76341e-08
4.8101e-08
-3.21948e-08
4.69322e-08
-3.6629e-08
4.56056e-08
-4.09241e-08
4.41337e-08
-4.50685e-08
4.25279e-08
-4.90518e-08
4.07984e-08
-5.28645e-08
3.89542e-08
-5.64977e-08
3.70024e-08
-5.9943e-08
3.49485e-08
-6.31925e-08
3.27959e-08
-6.6238e-08
3.05461e-08
-6.90713e-08
2.81989e-08
-7.16838e-08
2.5752e-08
-7.40662e-08
2.32018e-08
-7.62085e-08
2.05433e-08
-7.80998e-08
1.77708e-08
-7.97284e-08
1.48781e-08
-8.10818e-08
1.18594e-08
-8.21466e-08
8.70951e-09
-8.29091e-08
5.42432e-09
-8.3355e-08
2.00122e-09
-8.347e-08
-1.56046e-09
-8.324e-08
-5.25934e-09
-8.26515e-08
-9.09196e-09
-8.16916e-08
-1.30521e-08
-8.03483e-08
-1.71315e-08
-7.86109e-08
-2.13193e-08
-7.64702e-08
-2.56024e-08
-7.39184e-08
-2.99657e-08
-7.09497e-08
-3.4392e-08
-6.75601e-08
-3.88624e-08
-6.37477e-08
-4.33564e-08
-5.95126e-08
-4.78524e-08
-5.48572e-08
-5.23272e-08
-4.97861e-08
-5.67568e-08
-4.43065e-08
-6.1116e-08
-3.84279e-08
-6.53792e-08
-3.21625e-08
-6.95202e-08
-2.5525e-08
-7.35129e-08
-1.85329e-08
-7.73324e-08
-1.12063e-08
-8.09551e-08
-3.56738e-09
-8.43603e-08
4.35968e-09
-8.75305e-08
1.25495e-08
-9.04533e-08
2.0976e-08
-9.31197e-08
2.96132e-08
-9.5527e-08
3.84345e-08
-9.76762e-08
4.74163e-08
-9.95739e-08
5.65361e-08
-1.01229e-07
6.57727e-08
-1.02654e-07
7.51072e-08
-1.0386e-07
8.45226e-08
-1.04859e-07
9.40028e-08
-1.05659e-07
1.03533e-07
-1.0627e-07
1.13097e-07
-1.06695e-07
1.22681e-07
-1.06937e-07
1.32268e-07
-1.06999e-07
1.41843e-07
-1.06883e-07
1.51391e-07
-1.06592e-07
1.60894e-07
-1.06131e-07
1.7034e-07
-1.0551e-07
1.79714e-07
-1.04737e-07
1.89006e-07
-1.03823e-07
1.98207e-07