/*--------------------------------*- C++ -*----------------------------------*\
| =========                 |                                                 |
| \\      /  F ield         | OpenFOAM: The Open Source CFD Toolbox           |
|  \\    /   O peration     | Version:  2.4.0                                 |
|   \\  /    A nd           | Web:      www.OpenFOAM.org                      |
|    \\/     M anipulation  |                                                 |
\*---------------------------------------------------------------------------*/
FoamFile
{
    version     2.0;
    format      ascii;
    class       surfaceScalarField;
    location    "0.086";
    object      phi;
}
// * * * * * * * * * * * * * * * * * * * * * * * * * * * * * * * * * * * * * //

dimensions      [0 3 -1 0 0 0 0];

internalField   nonuniform List<scalar> 
119500
(
-1.8817e-13
1.8817e-13
-3.91779e-13
2.04405e-13
-6.45499e-13
2.54408e-13
-9.03613e-13
2.58814e-13
-1.16387e-12
2.60981e-13
-1.42396e-12
2.60821e-13
-1.68246e-12
2.59252e-13
-1.93971e-12
2.58005e-13
-2.19542e-12
2.56476e-13
-2.44982e-12
2.55165e-13
-2.70312e-12
2.54057e-13
-2.95543e-12
2.53067e-13
-3.20672e-12
2.52031e-13
-3.45645e-12
2.50444e-13
-3.70404e-12
2.48265e-13
-3.94867e-12
2.45272e-13
-4.18993e-12
2.41867e-13
-4.42753e-12
2.38175e-13
-4.66188e-12
2.34883e-13
-4.89291e-12
2.31554e-13
-5.12027e-12
2.27869e-13
-5.34478e-12
2.25011e-13
-5.56612e-12
2.21829e-13
-5.7845e-12
2.18884e-13
-5.99991e-12
2.15902e-13
-6.21235e-12
2.12942e-13
-6.42119e-12
2.09338e-13
-6.62656e-12
2.05866e-13
-6.82784e-12
2.01781e-13
-7.02464e-12
1.97294e-13
-7.21632e-12
1.92167e-13
-7.40112e-12
1.85279e-13
-7.57696e-12
1.763e-13
-7.74109e-12
1.64582e-13
-7.88984e-12
1.49203e-13
-8.01855e-12
1.29169e-13
-8.12207e-12
1.04006e-13
-8.1957e-12
7.41441e-14
-8.23469e-12
3.95254e-14
-8.23467e-12
5.48082e-16
-8.19061e-12
-4.34872e-14
-8.09619e-12
-9.38516e-14
-7.94801e-12
-1.47599e-13
-7.7425e-12
-2.0494e-13
-7.47567e-12
-2.66246e-13
-7.14814e-12
-3.26953e-13
-6.75819e-12
-3.89348e-13
-6.30467e-12
-4.52924e-13
-5.79078e-12
-5.13285e-13
-5.21886e-12
-5.71328e-13
-4.59103e-12
-6.27244e-13
-3.9106e-12
-6.79853e-13
-3.18087e-12
-7.29151e-13
-2.40717e-12
-7.73121e-13
-1.59541e-12
-8.11167e-13
-7.51578e-13
-8.43238e-13
1.16943e-13
-8.67914e-13
1.00373e-12
-8.86174e-13
1.90101e-12
-8.96661e-13
2.8014e-12
-8.99751e-13
3.69762e-12
-8.95567e-13
4.58267e-12
-8.84374e-13
5.45011e-12
-8.66733e-13
6.29485e-12
-8.44008e-13
7.11086e-12
-8.15242e-13
7.89427e-12
-7.8264e-13
8.64163e-12
-7.46606e-13
9.34936e-12
-7.06996e-13
1.00131e-11
-6.63004e-13
1.06321e-11
-6.18397e-13
1.12049e-11
-5.72216e-13
1.17292e-11
-5.23687e-13
1.22044e-11
-4.74676e-13
1.26309e-11
-4.25876e-13
1.30079e-11
-3.76494e-13
1.3336e-11
-3.27499e-13
1.36162e-11
-2.79597e-13
1.38493e-11
-2.32404e-13
1.40369e-11
-1.8697e-13
1.41795e-11
-1.41961e-13
1.42767e-11
-9.65601e-14
1.43285e-11
-5.1206e-14
1.43331e-11
-4.00841e-15
1.4287e-11
4.67116e-14
1.41875e-11
1.00196e-13
1.40313e-11
1.56752e-13
1.38146e-11
2.17285e-13
1.35324e-11
2.82784e-13
1.31799e-11
3.52993e-13
1.27534e-11
4.26991e-13
1.22491e-11
5.04584e-13
1.16648e-11
5.84689e-13
1.10001e-11
6.64899e-13
1.02512e-11
7.49191e-13
9.44561e-12
8.05753e-13
8.48361e-12
9.6219e-13
7.59233e-12
8.91466e-13
6.42556e-12
1.16694e-12
5.45918e-12
9.66516e-13
9.91085e-13
4.46817e-12
-2.38964e-13
4.2792e-13
-6.47947e-13
6.14789e-13
-1.10313e-12
7.10888e-13
-1.58249e-12
7.39508e-13
-2.05504e-12
7.34881e-13
-2.52588e-12
7.33032e-13
-2.99531e-12
7.3007e-13
-3.46358e-12
7.27658e-13
-3.93048e-12
7.24768e-13
-4.39605e-12
7.22118e-13
-4.86056e-12
7.19928e-13
-5.32467e-12
7.18509e-13
-5.78854e-12
7.17173e-13
-6.25192e-12
7.15049e-13
-6.71467e-12
7.12176e-13
-7.17622e-12
7.07913e-13
-7.63552e-12
7.02199e-13
-8.09249e-12
6.96132e-13
-8.54729e-12
6.90639e-13
-8.99935e-12
6.84542e-13
-9.44919e-12
6.7863e-13
-9.89722e-12
6.73963e-13
-1.03427e-11
6.68218e-13
-1.07859e-11
6.63046e-13
-1.12271e-11
6.57985e-13
-1.16645e-11
6.51298e-13
-1.20996e-11
6.4536e-13
-1.25313e-11
6.38469e-13
-1.29591e-11
6.30531e-13
-1.3384e-11
6.23108e-13
-1.38041e-11
6.1314e-13
-1.42197e-11
6.0169e-13
-1.46268e-11
5.84289e-13
-1.50228e-11
5.61453e-13
-1.54022e-11
5.29482e-13
-1.57591e-11
4.86963e-13
-1.60864e-11
4.32228e-13
-1.63786e-11
3.67319e-13
-1.66287e-11
2.90731e-13
-1.68313e-11
2.04093e-13
-1.69785e-11
1.0485e-13
-1.70627e-11
-8.67926e-15
-1.70765e-11
-1.32729e-13
-1.70117e-11
-2.68736e-13
-1.68647e-11
-4.12186e-13
-1.66327e-11
-5.57894e-13
-1.63103e-11
-7.10612e-13
-1.58952e-11
-8.66987e-13
-1.53877e-11
-1.01971e-12
-1.47862e-11
-1.17179e-12
-1.40903e-11
-1.32201e-12
-1.33018e-11
-1.46728e-12
-1.24228e-11
-1.60715e-12
-1.14575e-11
-1.73735e-12
-1.04115e-11
-1.85603e-12
-9.29119e-12
-1.96245e-12
-8.10417e-12
-2.05381e-12
-6.85973e-12
-2.12948e-12
-5.56691e-12
-2.18831e-12
-4.23593e-12
-2.22954e-12
-2.87713e-12
-2.25313e-12
-1.50092e-12
-2.25929e-12
-1.17974e-13
-2.24835e-12
1.26152e-12
-2.22213e-12
2.63173e-12
-2.18408e-12
3.98316e-12
-2.13273e-12
5.30772e-12
-2.06987e-12
6.60013e-12
-1.99819e-12
7.85007e-12
-1.9118e-12
9.05325e-12
-1.82049e-12
1.02034e-11
-1.72129e-12
1.12937e-11
-1.613e-12
1.23192e-11
-1.49915e-12
1.32738e-11
-1.37946e-12
1.41544e-11
-1.25606e-12
1.49579e-11
-1.12983e-12
1.56806e-11
-1.00122e-12
1.63211e-11
-8.71833e-13
1.68777e-11
-7.4238e-13
1.73471e-11
-6.1027e-13
1.77256e-11
-4.73993e-13
1.80104e-11
-3.34846e-13
1.81937e-11
-1.86246e-13
1.827e-11
-2.84212e-14
1.82301e-11
1.41195e-13
1.80672e-11
3.20689e-13
1.77711e-11
5.14323e-13
1.73335e-11
7.2124e-13
1.67468e-11
9.40536e-13
1.60025e-11
1.17195e-12
1.50953e-11
1.41233e-12
1.40214e-11
1.6591e-12
1.27795e-11
1.90721e-12
1.13711e-11
2.15803e-12
9.81783e-12
2.35939e-12
8.07554e-12
2.70483e-12
6.27318e-12
2.69412e-12
4.32067e-12
3.11967e-12
2.62271e-12
2.66459e-12
2.00379e-12
1.60999e-12
-2.38582e-13
6.67191e-13
-7.16131e-13
1.0936e-12
-1.25311e-12
1.24903e-12
-1.80586e-12
1.29345e-12
-2.35739e-12
1.28762e-12
-2.90526e-12
1.28211e-12
-3.45197e-12
1.278e-12
-3.9981e-12
1.275e-12
-4.54362e-12
1.27149e-12
-5.08833e-12
1.26802e-12
-5.63243e-12
1.2652e-12
-6.17649e-12
1.26371e-12
-6.72066e-12
1.26244e-12
-7.26527e-12
1.2607e-12
-7.81028e-12
1.25819e-12
-8.35538e-12
1.25395e-12
-8.89999e-12
1.24772e-12
-9.44392e-12
1.24093e-12
-9.98634e-12
1.23392e-12
-1.05274e-11
1.22646e-12
-1.10679e-11
1.21995e-12
-1.16069e-11
1.21382e-12
-1.21451e-11
1.20723e-12
-1.26821e-11
1.201e-12
-1.32179e-11
1.19462e-12
-1.37522e-11
1.18647e-12
-1.4286e-11
1.18003e-12
-1.48184e-11
1.17169e-12
-1.53501e-11
1.16309e-12
-1.58808e-11
1.15467e-12
-1.64091e-11
1.14233e-12
-1.69352e-11
1.12854e-12
-1.7455e-11
1.1049e-12
-1.79662e-11
1.07344e-12
-1.84623e-11
1.02643e-12
-1.89386e-11
9.64068e-13
-1.93878e-11
8.82221e-13
-1.98038e-11
7.84191e-13
-2.01787e-11
6.66547e-13
-2.05072e-11
5.33456e-13
-2.07793e-11
3.77835e-13
-2.09896e-11
2.02504e-13
-2.11276e-11
6.17396e-15
-2.11859e-11
-2.09583e-13
-2.11608e-11
-4.36426e-13
-2.10456e-11
-6.72165e-13
-2.08367e-11
-9.18618e-13
-2.05313e-11
-1.1715e-12
-2.01252e-11
-1.42482e-12
-1.96171e-11
-1.67902e-12
-1.90063e-11
-1.93188e-12
-1.82937e-11
-2.17901e-12
-1.74812e-11
-2.41868e-12
-1.65724e-11
-2.64518e-12
-1.55721e-11
-2.85543e-12
-1.44863e-11
-3.04724e-12
-1.33219e-11
-3.21729e-12
-1.20875e-11
-3.3629e-12
-1.0792e-11
-3.48274e-12
-9.44498e-12
-3.57557e-12
-8.05637e-12
-3.64068e-12
-6.63668e-12
-3.67789e-12
-5.19591e-12
-3.688e-12
-3.74385e-12
-3.67307e-12
-2.29099e-12
-3.63581e-12
-8.46126e-13
-3.57651e-12
5.81258e-13
-3.49621e-12
1.98149e-12
-3.39744e-12
3.35854e-12
-3.28793e-12
4.68988e-12
-3.15096e-12
5.9727e-12
-3.00327e-12
7.19801e-12
-2.8375e-12
8.36084e-12
-2.66116e-12
9.45266e-12
-2.47047e-12
1.04682e-11
-2.27076e-12
1.1402e-11
-2.06283e-12
1.225e-11
-1.84829e-12
1.3005e-11
-1.62602e-12
1.36647e-11
-1.40111e-12
1.42221e-11
-1.16675e-12
1.46715e-11
-9.22475e-13
1.50038e-11
-6.66256e-13
1.52154e-11
-3.96943e-13
1.52916e-11
-1.03667e-13
1.52254e-11
2.08306e-13
1.5002e-11
5.44897e-13
1.46111e-11
9.06063e-13
1.40414e-11
1.29165e-12
1.32833e-11
1.69937e-12
1.2327e-11
2.12882e-12
1.11654e-11
2.57457e-12
9.79365e-12
3.03132e-12
8.2119e-12
3.48943e-12
6.42319e-12
3.94718e-12
4.44089e-12
4.34207e-12
2.30263e-12
4.84341e-12
-8.80764e-14
5.08509e-12
-2.4149e-12
5.44669e-12
-4.53642e-12
4.7862e-12
3.10974e-12
-5.64237e-12
-2.91955e-13
9.59811e-13
-7.51372e-13
1.55427e-12
-1.30335e-12
1.80217e-12
-1.87778e-12
1.86906e-12
-2.4536e-12
1.86462e-12
-3.02724e-12
1.85693e-12
-3.59981e-12
1.85174e-12
-4.17167e-12
1.84801e-12
-4.74335e-12
1.84431e-12
-5.31503e-12
1.84083e-12
-5.88704e-12
1.8383e-12
-6.45939e-12
1.83712e-12
-7.03213e-12
1.8362e-12
-7.60539e-12
1.83494e-12
-8.17892e-12
1.83265e-12
-8.75211e-12
1.82805e-12
-9.3253e-12
1.82179e-12
-9.89825e-12
1.81474e-12
-1.04703e-11
1.80686e-12
-1.10421e-11
1.7991e-12
-1.16134e-11
1.79211e-12
-1.21837e-11
1.78496e-12
-1.27537e-11
1.77814e-12
-1.33235e-11
1.77168e-12
-1.38925e-11
1.76454e-12
-1.44628e-11
1.75768e-12
-1.50332e-11
1.75137e-12
-1.56048e-11
1.74423e-12
-1.61782e-11
1.73735e-12
-1.67516e-11
1.72895e-12
-1.73257e-11
1.7173e-12
-1.7897e-11
1.70065e-12
-1.84645e-11
1.67331e-12
-1.90237e-11
1.63338e-12
-1.95705e-11
1.57408e-12
-2.00989e-11
1.49331e-12
-2.06036e-11
1.38764e-12
-2.10766e-11
1.25805e-12
-2.1511e-11
1.10173e-12
-2.18982e-11
9.21454e-13
-2.22303e-11
7.10745e-13
-2.2499e-11
4.72076e-13
-2.26965e-11
2.04438e-13
-2.28148e-11
-9.05201e-14
-2.28477e-11
-4.02644e-13
-2.27885e-11
-7.30539e-13
-2.26326e-11
-1.07369e-12
-2.23774e-11
-1.42589e-12
-2.20187e-11
-1.7827e-12
-2.1554e-11
-2.14277e-12
-2.0984e-11
-2.50102e-12
-2.03093e-11
-2.85287e-12
-1.95326e-11
-3.19446e-12
-1.86577e-11
-3.51915e-12
-1.76894e-11
-3.82291e-12
-1.66335e-11
-4.10215e-12
-1.54974e-11
-4.35254e-12
-1.42888e-11
-4.57059e-12
-1.30164e-11
-4.75414e-12
-1.16895e-11
-4.90153e-12
-1.03174e-11
-5.0118e-12
-8.90995e-12
-5.08438e-12
-7.47707e-12
-5.1199e-12
-6.02841e-12
-5.12075e-12
-4.57439e-12
-5.08886e-12
-3.12469e-12
-5.02529e-12
-1.68815e-12
-4.93187e-12
-2.73724e-13
-4.81103e-12
1.10639e-12
-4.66726e-12
2.44913e-12
-4.49295e-12
3.74459e-12
-4.29802e-12
4.98225e-12
-4.07447e-12
6.15884e-12
-3.83706e-12
7.26433e-12
-3.57528e-12
8.29413e-12
-3.29988e-12
9.24198e-12
-3.00998e-12
1.01005e-11
-2.70611e-12
1.08676e-11
-2.39235e-12
1.15327e-11
-2.06545e-12
1.20867e-11
-1.71994e-12
1.25287e-11
-1.36368e-12
1.28444e-11
-9.81132e-13
1.30255e-11
-5.77218e-13
1.30628e-11
-1.402e-13
1.29431e-11
3.28786e-13
1.26568e-11
8.31959e-13
1.21895e-11
1.3741e-12
1.15292e-11
1.95264e-12
1.0663e-11
2.56629e-12
9.58148e-12
3.21095e-12
8.27617e-12
3.88051e-12
6.74231e-12
4.56576e-12
4.97961e-12
5.25266e-12
2.99154e-12
5.93571e-12
7.69003e-13
6.56499e-12
-1.59305e-12
7.20579e-12
-4.15616e-12
7.64844e-12
-6.77559e-12
8.06628e-12
-9.20813e-12
7.21883e-12
4.51074e-12
-1.06091e-11
-3.07775e-13
1.26826e-12
-7.76985e-13
2.02477e-12
-1.32611e-12
2.35248e-12
-1.9039e-12
2.44804e-12
-2.48489e-12
2.44679e-12
-3.06517e-12
2.43838e-12
-3.64488e-12
2.43259e-12
-4.22424e-12
2.42849e-12
-4.80378e-12
2.42496e-12
-5.38374e-12
2.42186e-12
-5.96426e-12
2.41987e-12
-6.5454e-12
2.41928e-12
-7.12706e-12
2.41884e-12
-7.70904e-12
2.41787e-12
-8.2912e-12
2.41573e-12
-8.87334e-12
2.41109e-12
-9.45547e-12
2.40481e-12
-1.00375e-11
2.3977e-12
-1.06193e-11
2.38957e-12
-1.12007e-11
2.38132e-12
-1.17814e-11
2.37373e-12
-1.23614e-11
2.36593e-12
-1.29408e-11
2.35849e-12
-1.35201e-11
2.35197e-12
-1.40999e-11
2.34531e-12
-1.46809e-11
2.33966e-12
-1.52639e-11
2.33533e-12
-1.58494e-11
2.33065e-12
-1.64374e-11
2.3263e-12
-1.70277e-11
2.32026e-12
-1.76189e-11
2.30933e-12
-1.82093e-11
2.29199e-12
-1.8796e-11
2.26089e-12
-1.93758e-11
2.21398e-12
-1.99439e-11
2.14305e-12
-2.04958e-11
2.04595e-12
-2.10244e-11
1.91708e-12
-2.15237e-11
1.7581e-12
-2.19842e-11
1.56307e-12
-2.2398e-11
1.336e-12
-2.27566e-11
1.07007e-12
-2.30503e-11
7.66572e-13
-2.32727e-11
4.27587e-13
-2.34153e-11
5.28911e-14
-2.34701e-11
-3.47076e-13
-2.34307e-11
-7.69179e-13
-2.32928e-11
-1.2108e-12
-2.30521e-11
-1.66578e-12
-2.27045e-11
-2.12946e-12
-2.22486e-11
-2.59784e-12
-2.16845e-11
-3.06419e-12
-2.10136e-11
-3.52287e-12
-2.02394e-11
-3.96778e-12
-1.93658e-11
-4.39192e-12
-1.83976e-11
-4.79025e-12
-1.73414e-11
-5.15742e-12
-1.62046e-11
-5.48848e-12
-1.49947e-11
-5.7796e-12
-1.37204e-11
-6.02762e-12
-1.23907e-11
-6.23034e-12
-1.10148e-11
-6.38679e-12
-9.60212e-12
-6.49618e-12
-8.16246e-12
-6.55867e-12
-6.70592e-12
-6.57644e-12
-5.24291e-12
-6.55104e-12
-3.78364e-12
-6.48378e-12
-2.33771e-12
-6.37704e-12
-9.14483e-13
-6.23353e-12
4.75576e-13
-6.05662e-12
1.82387e-12
-5.84058e-12
3.12026e-12
-5.59377e-12
4.36638e-12
-5.31997e-12
5.54474e-12
-5.01482e-12
6.65748e-12
-4.68744e-12
7.69155e-12
-4.33335e-12
8.64276e-12
-3.96059e-12
9.50572e-12
-3.56845e-12
1.027e-11
-3.15592e-12
1.09327e-11
-2.72754e-12
1.14881e-11
-2.27461e-12
1.19209e-11
-1.79574e-12
1.22294e-11
-1.28894e-12
1.23987e-11
-7.45737e-13
1.24189e-11
-1.59673e-13
1.22799e-11
4.68387e-13
1.19678e-11
1.1448e-12
1.14698e-11
1.87271e-12
1.07732e-11
2.64993e-12
9.86551e-12
3.47463e-12
8.73551e-12
4.34162e-12
7.37372e-12
5.24297e-12
5.77476e-12
6.16532e-12
3.9357e-12
7.09227e-12
1.86802e-12
8.00386e-12
-4.26039e-13
8.85942e-12
-2.92943e-12
9.70946e-12
-5.58531e-12
1.03045e-11
-8.29614e-12
1.07773e-11
-1.08155e-11
9.73829e-12
5.86538e-12
-1.21701e-11
-3.12765e-13
1.58173e-12
-7.90203e-13
2.50352e-12
-1.33976e-12
2.90325e-12
-1.91556e-12
3.02505e-12
-2.49607e-12
3.02849e-12
-3.07723e-12
3.02071e-12
-3.6584e-12
3.0149e-12
-4.23952e-12
3.01073e-12
-4.82105e-12
3.00757e-12
-5.40327e-12
3.00514e-12
-5.98616e-12
3.0038e-12
-6.56973e-12
3.00384e-12
-7.15392e-12
3.004e-12
-7.73837e-12
3.00326e-12
-8.32281e-12
3.0011e-12
-8.90744e-12
2.99664e-12
-9.4923e-12
2.9906e-12
-1.0077e-11
2.98332e-12
-1.06616e-11
2.9751e-12
-1.12457e-11
2.96644e-12
-1.18287e-11
2.95772e-12
-1.24111e-11
2.94929e-12
-1.29929e-11
2.94127e-12
-1.35742e-11
2.93433e-12
-1.41567e-11
2.92879e-12
-1.47407e-11
2.92467e-12
-1.53271e-11
2.92277e-12
-1.59172e-11
2.9217e-12
-1.65103e-11
2.92046e-12
-1.71071e-11
2.91796e-12
-1.77057e-11
2.90895e-12
-1.83046e-11
2.89174e-12
-1.8901e-11
2.85823e-12
-1.94913e-11
2.80514e-12
-2.00713e-11
2.72386e-12
-2.06358e-11
2.61131e-12
-2.11788e-11
2.46081e-12
-2.16921e-11
2.27225e-12
-2.21685e-11
2.04014e-12
-2.25973e-11
1.76561e-12
-2.29705e-11
1.44393e-12
-2.3279e-11
1.07588e-12
-2.35142e-11
6.63461e-13
-2.36686e-11
2.08113e-13
-2.37347e-11
-2.80278e-13
-2.37037e-11
-7.99313e-13
-2.3571e-11
-1.34273e-12
-2.33327e-11
-1.90328e-12
-2.29849e-11
-2.47642e-12
-2.25265e-11
-3.05541e-12
-2.19579e-11
-3.63191e-12
-2.12807e-11
-4.19921e-12
-2.04982e-11
-4.74936e-12
-1.9615e-11
-5.27424e-12
-1.86363e-11
-5.76815e-12
-1.75684e-11
-6.22445e-12
-1.64191e-11
-6.63698e-12
-1.51962e-11
-7.00166e-12
-1.39083e-11
-7.31472e-12
-1.25644e-11
-7.57336e-12
-1.11739e-11
-7.77654e-12
-9.74597e-12
-7.92329e-12
-8.29055e-12
-8.01331e-12
-6.81802e-12
-8.04823e-12
-5.3389e-12
-8.02944e-12
-3.86374e-12
-7.95826e-12
-2.40262e-12
-7.83749e-12
-9.65398e-13
-7.67011e-12
4.36864e-13
-7.45824e-12
1.79993e-12
-7.20302e-12
3.11001e-12
-6.90324e-12
4.36501e-12
-6.57437e-12
5.55544e-12
-6.20469e-12
6.67242e-12
-5.80387e-12
7.71458e-12
-5.37496e-12
8.67284e-12
-4.91829e-12
9.5412e-12
-4.43623e-12
1.03163e-11
-3.93042e-12
1.09869e-11
-3.39744e-12
1.15467e-11
-2.83377e-12
1.19866e-11
-2.235e-12
1.22987e-11
-1.60038e-12
1.24709e-11
-9.1729e-13
1.24969e-11
-1.85024e-13
1.23601e-11
6.05822e-13
1.20487e-11
1.45677e-12
1.15513e-11
2.3707e-12
1.08523e-11
3.34954e-12
9.9394e-12
4.3882e-12
8.80051e-12
5.48118e-12
7.42537e-12
6.61875e-12
5.80688e-12
7.78442e-12
3.94207e-12
8.9576e-12
1.83777e-12
1.01086e-11
-4.92463e-13
1.119e-11
-3.054e-12
1.22712e-11
-5.76667e-12
1.30174e-11
-8.52975e-12
1.35405e-11
-1.10731e-11
1.22817e-11
7.21356e-12
-1.24212e-11
-3.15276e-13
1.89773e-12
-7.97936e-13
2.98752e-12
-1.34846e-12
3.455e-12
-1.92201e-12
3.59981e-12
-2.50103e-12
3.6087e-12
-3.08163e-12
3.60246e-12
-3.66269e-12
3.59709e-12
-4.24403e-12
3.59317e-12
-4.82585e-12
3.59047e-12
-5.40854e-12
3.58887e-12
-5.99207e-12
3.58835e-12
-6.57621e-12
3.58897e-12
-7.16095e-12
3.58971e-12
-7.74607e-12
3.58934e-12
-8.33115e-12
3.58713e-12
-8.91646e-12
3.5829e-12
-9.50237e-12
3.57747e-12
-1.00881e-11
3.57001e-12
-1.06733e-11
3.56134e-12
-1.12582e-11
3.55234e-12
-1.18418e-11
3.54229e-12
-1.24242e-11
3.53274e-12
-1.30062e-11
3.52431e-12
-1.35877e-11
3.5169e-12
-1.41703e-11
3.51233e-12
-1.47548e-11
3.51026e-12
-1.5342e-11
3.51093e-12
-1.59332e-11
3.51394e-12
-1.65287e-11
3.51689e-12
-1.71281e-11
3.51834e-12
-1.77312e-11
3.51301e-12
-1.83353e-11
3.49676e-12
-1.89386e-11
3.46245e-12
-1.95369e-11
3.40428e-12
-2.01267e-11
3.31449e-12
-2.07014e-11
3.18688e-12
-2.12565e-11
3.01665e-12
-2.17822e-11
2.79869e-12
-2.22711e-11
2.52982e-12
-2.27138e-11
2.209e-12
-2.31001e-11
1.83103e-12
-2.34213e-11
1.39775e-12
-2.36693e-11
9.12212e-13
-2.38344e-11
3.74072e-13
-2.39082e-11
-2.05682e-13
-2.38838e-11
-8.22925e-13
-2.37551e-11
-1.47063e-12
-2.35176e-11
-2.13993e-12
-2.31691e-11
-2.82403e-12
-2.2708e-11
-3.51564e-12
-2.21345e-11
-4.20456e-12
-2.14504e-11
-4.88246e-12
-2.0659e-11
-5.53993e-12
-1.97651e-11
-6.16736e-12
-1.87741e-11
-6.7583e-12
-1.76926e-11
-7.3052e-12
-1.65283e-11
-7.80049e-12
-1.52895e-11
-8.23974e-12
-1.39846e-11
-8.61878e-12
-1.26231e-11
-8.93408e-12
-1.12147e-11
-9.18425e-12
-9.76901e-12
-9.36822e-12
-8.29619e-12
-9.48545e-12
-6.80655e-12
-9.53722e-12
-5.31054e-12
-9.52482e-12
-3.81878e-12
-9.4494e-12
-2.34187e-12
-9.31377e-12
-8.89742e-13
-9.12161e-12
5.30173e-13
-8.87752e-12
1.90291e-12
-8.57512e-12
3.22883e-12
-8.22853e-12
4.49278e-12
-7.8377e-12
5.6906e-12
-7.40192e-12
6.82154e-12
-6.93423e-12
7.87433e-12
-6.42718e-12
8.84223e-12
-5.8856e-12
9.72004e-12
-5.31344e-12
1.05045e-11
-4.71422e-12
1.11843e-11
-4.07663e-12
1.17549e-11
-3.40371e-12
1.22069e-11
-2.6864e-12
1.25306e-11
-1.92346e-12
1.27178e-11
-1.10394e-12
1.27551e-11
-2.21786e-13
1.26321e-11
7.29421e-13
1.23348e-11
1.75451e-12
1.18496e-11
2.85652e-12
1.11616e-11
4.03808e-12
1.02572e-11
5.29315e-12
9.12362e-12
6.61539e-12
7.74995e-12
7.99299e-12
6.12743e-12
9.40746e-12
4.25219e-12
1.08333e-11
2.12432e-12
1.22368e-11
-2.38168e-13
1.35527e-11
-2.83716e-12
1.48704e-11
-5.60006e-12
1.57804e-11
-8.42362e-12
1.63641e-11
-1.10128e-11
1.48709e-11
8.59583e-12
-1.2395e-11
-3.16957e-13
2.21542e-12
-8.0302e-13
3.47492e-12
-1.35422e-12
4.00743e-12
-1.92614e-12
4.17293e-12
-2.5039e-12
4.18762e-12
-3.08372e-12
4.18343e-12
-3.66431e-12
4.1788e-12
-4.24552e-12
4.17547e-12
-4.82728e-12
4.1733e-12
-5.40987e-12
4.17251e-12
-5.99347e-12
4.17297e-12
-6.57775e-12
4.17424e-12
-7.16245e-12
4.17539e-12
-7.74769e-12
4.17556e-12
-8.33323e-12
4.17365e-12
-8.91904e-12
4.16971e-12
-9.5055e-12
4.16492e-12
-1.0092e-11
4.15749e-12
-1.06776e-11
4.14798e-12
-1.12625e-11
4.13823e-12
-1.18461e-11
4.127e-12
-1.24283e-11
4.11592e-12
-1.30097e-11
4.10673e-12
-1.3591e-11
4.09925e-12
-1.41729e-11
4.09525e-12
-1.4757e-11
4.09533e-12
-1.53443e-11
4.0992e-12
-1.59356e-11
4.10613e-12
-1.65324e-11
4.11465e-12
-1.71338e-11
4.12065e-12
-1.77402e-11
4.12039e-12
-1.83492e-11
4.10669e-12
-1.8959e-11
4.07308e-12
-1.95653e-11
4.01144e-12
-2.01648e-11
3.91482e-12
-2.07509e-11
3.77384e-12
-2.13177e-11
3.58422e-12
-2.1857e-11
3.33874e-12
-2.23596e-11
3.03322e-12
-2.28159e-11
2.66597e-12
-2.32168e-11
2.2327e-12
-2.35513e-11
1.73309e-12
-2.38107e-11
1.17238e-12
-2.39865e-11
5.50707e-13
-2.40699e-11
-1.21444e-13
-2.40538e-11
-8.38223e-13
-2.39314e-11
-1.59215e-12
-2.36982e-11
-2.37228e-12
-2.33507e-11
-3.17068e-12
-2.28876e-11
-3.97781e-12
-2.23099e-11
-4.78145e-12
-2.16194e-11
-5.57213e-12
-2.08195e-11
-6.33905e-12
-1.99148e-11
-7.07122e-12
-1.89113e-11
-7.76107e-12
-1.78157e-11
-8.40001e-12
-1.66359e-11
-8.97963e-12
-1.53802e-11
-9.49464e-12
-1.4058e-11
-9.9403e-12
-1.26785e-11
-1.03128e-11
-1.12516e-11
-1.06104e-11
-9.78746e-12
-1.08317e-11
-8.29639e-12
-1.09759e-11
-6.78868e-12
-1.10443e-11
-5.27507e-12
-1.10378e-11
-3.76652e-12
-1.09574e-11
-2.27341e-12
-1.08063e-11
-8.05786e-13
-1.05886e-11
6.22954e-13
-1.03056e-11
2.01866e-12
-9.97013e-12
3.35406e-12
-9.56323e-12
4.63417e-12
-9.11712e-12
5.84639e-12
-8.61345e-12
6.98544e-12
-8.07262e-12
8.04683e-12
-7.48792e-12
9.0244e-12
-6.86253e-12
9.91375e-12
-6.20213e-12
1.07062e-11
-5.506e-12
1.13965e-11
-4.76626e-12
1.19776e-11
-3.98423e-12
1.2444e-11
-3.15214e-12
1.2783e-11
-2.26193e-12
1.29865e-11
-1.30687e-12
1.30417e-11
-2.76489e-13
1.29372e-11
8.34417e-13
1.26596e-11
2.03256e-12
1.21942e-11
3.32242e-12
1.1525e-11
4.7078e-12
1.06374e-11
6.18126e-12
9.51678e-12
7.73647e-12
8.151e-12
9.35923e-12
6.52941e-12
1.10295e-11
4.64568e-12
1.27174e-11
2.49887e-12
1.43839e-11
7.86656e-14
1.59732e-11
-2.53638e-12
1.74857e-11
-5.35591e-12
1.86001e-11
-8.25905e-12
1.92674e-11
-1.09207e-11
1.75327e-11
1.00198e-11
-1.23447e-11
-3.17833e-13
2.53399e-12
-8.06007e-13
3.96441e-12
-1.3579e-12
4.56051e-12
-1.92885e-12
4.74504e-12
-2.50577e-12
4.76568e-12
-3.08502e-12
4.76381e-12
-3.66514e-12
4.76003e-12
-4.2461e-12
4.75751e-12
-4.82772e-12
4.75599e-12
-5.41006e-12
4.75589e-12
-5.99339e-12
4.75732e-12
-6.57766e-12
4.75952e-12
-7.16234e-12
4.76107e-12
-7.74756e-12
4.76177e-12
-8.33358e-12
4.76067e-12
-8.92022e-12
4.75735e-12
-9.50721e-12
4.75292e-12
-1.00942e-11
4.74546e-12
-1.06804e-11
4.73524e-12
-1.12652e-11
4.72404e-12
-1.18486e-11
4.71145e-12
-1.24307e-11
4.69894e-12
-1.30113e-11
4.68831e-12
-1.35919e-11
4.68081e-12
-1.41731e-11
4.67744e-12
-1.47561e-11
4.67927e-12
-1.53431e-11
4.68705e-12
-1.59344e-11
4.69833e-12
-1.65319e-11
4.713e-12
-1.71355e-11
4.72519e-12
-1.7745e-11
4.7308e-12
-1.83592e-11
4.72177e-12
-1.89756e-11
4.69035e-12
-1.95911e-11
4.62774e-12
-2.02007e-11
4.52531e-12
-2.07997e-11
4.37367e-12
-2.13802e-11
4.16551e-12
-2.19339e-11
3.89321e-12
-2.24522e-11
3.55225e-12
-2.29243e-11
3.13884e-12
-2.33402e-11
2.64945e-12
-2.36908e-11
2.0845e-12
-2.39658e-11
1.44818e-12
-2.41552e-11
7.41002e-13
-2.42504e-11
-2.53378e-14
-2.42434e-11
-8.44291e-13
-2.41282e-11
-1.70653e-12
-2.38994e-11
-2.60012e-12
-2.35536e-11
-3.51565e-12
-2.30898e-11
-4.44078e-12
-2.25083e-11
-5.36204e-12
-2.18112e-11
-6.26844e-12
-2.10023e-11
-7.14721e-12
-2.00864e-11
-7.98632e-12
-1.90696e-11
-8.77713e-12
-1.7959e-11
-9.50993e-12
-1.67626e-11
-1.01753e-11
-1.54893e-11
-1.07672e-11
-1.41483e-11
-1.12805e-11
-1.27495e-11
-1.1711e-11
-1.13029e-11
-1.20563e-11
-9.81898e-12
-1.2315e-11
-8.30782e-12
-1.24864e-11
-6.7803e-12
-1.25712e-11
-5.24771e-12
-1.25698e-11
-3.72058e-12
-1.24839e-11
-2.20889e-12
-1.23173e-11
-7.22837e-13
-1.20739e-11
7.28947e-13
-1.17566e-11
2.1278e-12
-1.13682e-11
3.48407e-12
-1.09187e-11
4.77129e-12
-1.04035e-11
5.99899e-12
-9.84037e-12
7.15002e-12
-9.22286e-12
8.21872e-12
-8.55585e-12
9.20972e-12
-7.85277e-12
1.01089e-11
-7.10062e-12
1.09125e-11
-6.30888e-12
1.16144e-11
-5.46741e-12
1.22095e-11
-4.57865e-12
1.26898e-11
-3.63188e-12
1.30455e-11
-2.61699e-12
1.32656e-11
-1.52642e-12
1.33433e-11
-3.53749e-13
1.32616e-11
9.16643e-13
1.30072e-11
2.28746e-12
1.25642e-11
3.76582e-12
1.19192e-11
5.35324e-12
1.10529e-11
7.04792e-12
9.95012e-12
8.83967e-12
8.59633e-12
1.07134e-11
6.97927e-12
1.26468e-11
5.09123e-12
1.46057e-11
2.92798e-12
1.65474e-11
4.87512e-13
1.84138e-11
-2.19052e-12
2.01639e-11
-5.08176e-12
2.14914e-11
-8.0845e-12
2.22702e-11
-1.0844e-11
2.02922e-11
1.14896e-11
-1.23138e-11
-3.17834e-13
2.85255e-12
-8.07081e-13
4.45493e-12
-1.35985e-12
5.11443e-12
-1.93048e-12
5.3168e-12
-2.50697e-12
5.34328e-12
-3.08591e-12
5.34384e-12
-3.66568e-12
5.34088e-12
-4.24624e-12
5.33915e-12
-4.8276e-12
5.3384e-12
-5.40973e-12
5.33906e-12
-5.99272e-12
5.34132e-12
-6.57679e-12
5.3446e-12
-7.16158e-12
5.34686e-12
-7.74703e-12
5.34822e-12
-8.3335e-12
5.34814e-12
-8.92112e-12
5.34597e-12
-9.50899e-12
5.34179e-12
-1.00963e-11
5.33382e-12
-1.06832e-11
5.32306e-12
-1.12683e-11
5.31017e-12
-1.18513e-11
5.29544e-12
-1.2433e-11
5.2815e-12
-1.30129e-11
5.26917e-12
-1.35922e-11
5.26097e-12
-1.41723e-11
5.2584e-12
-1.47543e-11
5.26208e-12
-1.53401e-11
5.27368e-12
-1.59316e-11
5.29072e-12
-1.65295e-11
5.31165e-12
-1.71353e-11
5.33188e-12
-1.77483e-11
5.3446e-12
-1.8368e-11
5.34235e-12
-1.89918e-11
5.31498e-12
-1.96173e-11
5.25414e-12
-2.02392e-11
5.148e-12
-2.08521e-11
4.98737e-12
-2.14487e-11
4.76291e-12
-2.20197e-11
4.46507e-12
-2.25558e-11
4.08908e-12
-2.3047e-11
3.6309e-12
-2.34825e-11
3.08585e-12
-2.3852e-11
2.45486e-12
-2.41439e-11
1.74094e-12
-2.43487e-11
9.46733e-13
-2.4457e-11
8.39065e-14
-2.44607e-11
-8.39642e-13
-2.43534e-11
-1.81286e-12
-2.41297e-11
-2.82294e-12
-2.3786e-11
-3.85843e-12
-2.33212e-11
-4.90472e-12
-2.27356e-11
-5.9468e-12
-2.20316e-11
-6.97166e-12
-2.12131e-11
-7.96496e-12
-2.02849e-11
-8.91377e-12
-1.92534e-11
-9.80791e-12
-1.81262e-11
-1.06363e-11
-1.69118e-11
-1.1389e-11
-1.56189e-11
-1.20593e-11
-1.42574e-11
-1.26413e-11
-1.28374e-11
-1.31302e-11
-1.13694e-11
-1.35237e-11
-9.86349e-12
-1.38202e-11
-8.33047e-12
-1.40188e-11
-6.7818e-12
-1.41193e-11
-5.22859e-12
-1.41224e-11
-3.68095e-12
-1.40309e-11
-2.14914e-12
-1.38484e-11
-6.44119e-13
-1.35782e-11
8.23798e-13
-1.32237e-11
2.24776e-12
-1.27913e-11
3.61352e-12
-1.22836e-11
4.9204e-12
-1.17095e-11
6.15595e-12
-1.1075e-11
7.31656e-12
-1.03826e-11
8.40358e-12
-9.64199e-12
9.40293e-12
-8.85127e-12
1.03133e-11
-8.01016e-12
1.11291e-11
-7.12389e-12
1.18453e-11
-6.18286e-12
1.24554e-11
-5.18806e-12
1.29512e-11
-4.12706e-12
1.33256e-11
-2.99078e-12
1.35696e-11
-1.76979e-12
1.36692e-11
-4.52767e-13
1.3613e-11
9.7336e-13
1.33855e-11
2.51544e-12
1.29708e-11
4.18093e-12
1.23515e-11
5.97293e-12
1.15098e-11
7.89001e-12
1.04276e-11
9.92211e-12
9.08806e-12
1.20532e-11
7.47741e-12
1.42577e-11
5.58409e-12
1.64992e-11
3.40076e-12
1.87309e-11
9.32074e-13
2.08827e-11
-1.81182e-12
2.29079e-11
-4.78773e-12
2.44675e-11
-7.91173e-12
2.53943e-11
-1.08005e-11
2.3181e-11
1.3028e-11
-1.23389e-11
-3.17064e-13
3.17031e-12
-8.06543e-13
4.94561e-12
-1.36033e-12
5.6693e-12
-1.93125e-12
5.8888e-12
-2.50766e-12
5.92075e-12
-3.0864e-12
5.92365e-12
-3.66595e-12
5.92148e-12
-4.24612e-12
5.92036e-12
-4.82706e-12
5.92036e-12
-5.40902e-12
5.92204e-12
-5.99181e-12
5.92512e-12
-6.57559e-12
5.92937e-12
-7.16042e-12
5.93268e-12
-7.74647e-12
5.93526e-12
-8.33362e-12
5.93629e-12
-8.92208e-12
5.93541e-12
-9.5111e-12
5.9318e-12
-1.00992e-11
5.92291e-12
-1.06864e-11
5.91122e-12
-1.12721e-11
5.89675e-12
-1.18551e-11
5.87928e-12
-1.24358e-11
5.86313e-12
-1.3015e-11
5.84915e-12
-1.35928e-11
5.83967e-12
-1.41709e-11
5.83729e-12
-1.47517e-11
5.84357e-12
-1.53359e-11
5.85869e-12
-1.5927e-11
5.88257e-12
-1.65255e-11
5.91089e-12
-1.71331e-11
5.9403e-12
-1.775e-11
5.96229e-12
-1.83756e-11
5.9688e-12
-1.90081e-11
5.94836e-12
-1.96445e-11
5.89141e-12
-2.02804e-11
5.78471e-12
-2.09092e-11
5.61702e-12
-2.15237e-11
5.37827e-12
-2.21147e-11
5.0569e-12
-2.26721e-11
4.64733e-12
-2.31842e-11
4.1439e-12
-2.36409e-11
3.54345e-12
-2.40313e-11
2.84613e-12
-2.43428e-11
2.05341e-12
-2.45653e-11
1.17019e-12
-2.46888e-11
2.08387e-13
-2.47051e-11
-8.2243e-13
-2.46072e-11
-1.90975e-12
-2.43895e-11
-3.03976e-12
-2.40484e-11
-4.19867e-12
-2.35826e-11
-5.36956e-12
-2.29929e-11
-6.53566e-12
-2.22817e-11
-7.68213e-12
-2.14525e-11
-8.7933e-12
-2.05107e-11
-9.85481e-12
-1.94632e-11
-1.08547e-11
-1.83178e-11
-1.17809e-11
-1.70831e-11
-1.26229e-11
-1.57688e-11
-1.33729e-11
-1.43849e-11
-1.40244e-11
-1.29416e-11
-1.45728e-11
-1.14495e-11
-1.50151e-11
-9.91948e-12
-1.53496e-11
-8.36282e-12
-1.55748e-11
-6.79084e-12
-1.56906e-11
-5.21453e-12
-1.56981e-11
-3.64443e-12
-1.56003e-11
-2.09099e-12
-1.54011e-11
-5.64958e-13
-1.51034e-11
9.2357e-13
-1.47114e-11
2.36129e-12
-1.42281e-11
3.74889e-12
-1.36702e-11
5.07108e-12
-1.30307e-11
6.32362e-12
-1.23265e-11
7.50018e-12
-1.15581e-11
8.59603e-12
-1.07369e-11
9.60689e-12
-9.86119e-12
1.05303e-11
-8.93273e-12
1.13596e-11
-7.95227e-12
1.20906e-11
-6.91315e-12
1.27176e-11
-5.81426e-12
1.32333e-11
-4.64205e-12
1.36307e-11
-3.3875e-12
1.38968e-11
-2.03519e-12
1.40242e-11
-5.79532e-13
1.39991e-11
9.99059e-13
1.3803e-11
2.71201e-12
1.34194e-11
4.56501e-12
1.28318e-11
6.56089e-12
1.20186e-11
8.70353e-12
1.09607e-11
1.09802e-11
9.6388e-12
1.33753e-11
8.03638e-12
1.58603e-11
6.13911e-12
1.83966e-11
3.9377e-12
2.09325e-11
1.42823e-12
2.33923e-11
-1.38237e-12
2.57186e-11
-4.45443e-12
2.75396e-11
-7.71755e-12
2.86574e-11
-1.07626e-11
2.62261e-11
1.46592e-11
-1.23938e-11
-3.1575e-13
3.48672e-12
-8.04869e-13
5.43587e-12
-1.35966e-12
6.22513e-12
-1.93134e-12
6.4615e-12
-2.50794e-12
6.49837e-12
-3.08652e-12
6.50325e-12
-3.66589e-12
6.50187e-12
-4.24586e-12
6.50134e-12
-4.82642e-12
6.50192e-12
-5.40807e-12
6.50468e-12
-5.99071e-12
6.50873e-12
-6.57431e-12
6.51393e-12
-7.1591e-12
6.51843e-12
-7.74586e-12
6.52297e-12
-8.33416e-12
6.52552e-12
-8.9235e-12
6.52569e-12
-9.51354e-12
6.52277e-12
-1.01029e-11
6.51322e-12
-1.06908e-11
6.49996e-12
-1.12767e-11
6.4835e-12
-1.18599e-11
6.46329e-12
-1.24398e-11
6.44391e-12
-1.30176e-11
6.42765e-12
-1.35939e-11
6.41678e-12
-1.41697e-11
6.41378e-12
-1.47481e-11
6.42273e-12
-1.53308e-11
6.44215e-12
-1.59204e-11
6.47287e-12
-1.65193e-11
6.51051e-12
-1.71284e-11
6.55022e-12
-1.77494e-11
6.58404e-12
-1.83812e-11
6.60147e-12
-1.90232e-11
6.59117e-12
-1.9672e-11
6.54109e-12
-2.03231e-11
6.43666e-12
-2.09701e-11
6.26495e-12
-2.16052e-11
6.01416e-12
-2.22183e-11
5.67093e-12
-2.27992e-11
5.2291e-12
-2.33358e-11
4.6814e-12
-2.38168e-11
4.0254e-12
-2.42303e-11
3.26056e-12
-2.45635e-11
2.38759e-12
-2.48061e-11
1.41373e-12
-2.49471e-11
3.50403e-13
-2.49776e-11
-7.90995e-13
-2.48903e-11
-1.99603e-12
-2.46793e-11
-3.24981e-12
-2.43413e-11
-4.53575e-12
-2.38751e-11
-5.83495e-12
-2.32808e-11
-7.12908e-12
-2.2561e-11
-8.40105e-12
-2.17201e-11
-9.63341e-12
-2.07632e-11
-1.08108e-11
-1.96976e-11
-1.19195e-11
-1.85316e-11
-1.2946e-11
-1.72745e-11
-1.38792e-11
-1.5936e-11
-1.47105e-11
-1.45264e-11
-1.54333e-11
-1.30561e-11
-1.60422e-11
-1.15365e-11
-1.6534e-11
-9.97875e-12
-1.69066e-11
-8.39406e-12
-1.71589e-11
-6.79382e-12
-1.72902e-11
-5.18974e-12
-1.73015e-11
-3.59318e-12
-1.71961e-11
-2.01486e-12
-1.69787e-11
-4.65387e-13
-1.66521e-11
1.04435e-12
-1.62203e-11