/*--------------------------------*- C++ -*----------------------------------*\
| =========                 |                                                 |
| \\      /  F ield         | OpenFOAM: The Open Source CFD Toolbox           |
|  \\    /   O peration     | Version:  2.4.0                                 |
|   \\  /    A nd           | Web:      www.OpenFOAM.org                      |
|    \\/     M anipulation  |                                                 |
\*---------------------------------------------------------------------------*/
FoamFile
{
    version     2.0;
    format      ascii;
    class       surfaceScalarField;
    location    "0.109";
    object      phiAlpha;
}
// * * * * * * * * * * * * * * * * * * * * * * * * * * * * * * * * * * * * * //

dimensions      [0 3 -1 0 0 0 0];

internalField   nonuniform List<scalar> 
19800
(
6.72974e-90
-1.11454e-85
-6.63187e-84
8.02336e-86
-3.67185e-83
4.4723e-83
-2.27663e-79
6.23283e-83
-5.19548e-76
2.04545e-79
-6.19064e-73
3.05542e-76
-4.51959e-70
2.62611e-73
-2.23975e-67
1.4609e-70
-8.04764e-65
5.70545e-68
-2.19133e-62
1.65071e-65
-4.6791e-60
3.66891e-63
-8.12783e-58
6.44359e-61
-1.21383e-55
9.22577e-59
-1.67183e-53
1.13121e-56
-2.14131e-51
1.26455e-54
-2.24806e-49
1.28571e-52
-1.70133e-47
1.03031e-50
-9.31287e-46
5.54401e-49
-4.01732e-44
1.85667e-47
-1.39135e-42
3.05582e-46
-3.62701e-41
-1.3053e-41
-6.88806e-40
-8.96094e-40
-9.55716e-39
-2.2698e-38
-9.63449e-38
-3.65368e-37
-6.96829e-37
-4.10368e-36
-3.54453e-36
-3.28675e-35
-1.26021e-35
-1.87293e-34
-3.41084e-35
-7.63296e-34
-5.18802e-35
-2.45615e-33
-4.7358e-35
-4.50055e-33
-2.68448e-35
-5.0674e-33
-9.42147e-36
-3.66368e-33
-1.98754e-36
-1.71366e-33
-2.37583e-37
-5.11038e-34
-1.46595e-38
-9.40297e-35
-3.71613e-40
-1.01795e-35
4.56509e-42
-6.01234e-37
6.74737e-42
-1.59304e-38
1.16341e-43
-1.19088e-41
2.99899e-47
1.36924e-45
-3.34423e-49
3.10223e-47
-6.67801e-51
5.18237e-49
-6.70627e-53
5.48057e-51
-4.40394e-55
3.79634e-53
-2.29803e-57
1.90452e-55
-1.08076e-59
8.00825e-58
-3.86834e-62
3.13339e-60
-7.16406e-65
9.52131e-63
-6.54177e-64
1.51695e-65
1.20213e-64
-9.38915e-62
-1.32958e-81
7.18036e-85
-6.79289e-78
1.6707e-80
-4.69719e-74
2.4147e-77
-9.32558e-71
8.05475e-74
-8.31566e-68
9.91376e-71
-4.18893e-65
6.16793e-68
-1.35969e-62
2.31644e-65
-3.09221e-60
5.83701e-63
-5.216e-58
1.05754e-60
-6.7962e-56
1.44508e-58
-7.04948e-54
1.54068e-56
-5.96478e-52
1.3134e-54
-4.21471e-50
9.12103e-53
-2.55659e-48
5.2468e-51
-1.37202e-46
2.54663e-49
-6.5836e-45
1.05983e-47
-2.72482e-43
3.72714e-46
-9.36011e-42
1.01061e-44
-2.7356e-40
1.70008e-43
-6.57365e-39
-8.057e-41
-1.21849e-37
-4.5755e-38
-1.73623e-36
-1.37325e-36
-1.89392e-35
-2.49539e-35
-1.56512e-34
-3.21213e-34
-9.62274e-34
-3.04582e-33
-4.30002e-33
-2.13986e-32
-1.38389e-32
-1.10773e-31
-3.49655e-32
-4.2652e-31
-4.9262e-32
-1.36434e-30
-4.07272e-32
-2.51217e-30
-1.95469e-32
-2.90517e-30
-4.58839e-33
-2.21677e-30
2.00902e-34
-1.12826e-30
1.48872e-33
-3.79111e-31
5.79307e-34
-8.17144e-32
1.06631e-34
-1.08033e-32
1.05859e-35
-8.18361e-34
5.72282e-37
-2.95434e-35
1.66862e-38
-2.00564e-38
3.61283e-40
4.2624e-41
7.18985e-42
2.13836e-42
1.19569e-43
8.20878e-44
1.08897e-45
3.19711e-45
-1.59892e-48
1.25607e-46
-9.08051e-50
4.10441e-48
-1.84746e-51
9.30619e-50
-1.44688e-53
1.21009e-51
-1.24734e-55
6.99825e-54
-7.06831e-54
4.7666e-56
2.21509e-54
-4.11368e-52
-4.31649e-76
8.77155e-80
-4.91425e-72
2.04791e-75
-1.28419e-68
1.27313e-71
-1.32287e-65
2.12854e-68
-7.06396e-63
1.53967e-65
-2.28921e-60
6.13311e-63
-4.97662e-58
1.54227e-60
-7.76943e-56
2.67043e-58
-9.14413e-54
3.37854e-56
-8.40847e-52
3.25812e-54
-6.20701e-50
2.46936e-52
-3.75861e-48
1.50385e-50
-1.90342e-46
7.47844e-49
-8.22888e-45
3.07396e-47
-3.10969e-43
1.05519e-45
-1.04755e-41
3.04528e-44
-3.13547e-40
7.29244e-43
-8.14064e-39
1.33201e-41
-1.8484e-37
1.28852e-40
-3.44768e-36
-3.18013e-37
-5.12159e-35
-1.75235e-35
-6.01702e-34
-3.90505e-34
-5.55909e-33
-5.8519e-33
-3.98159e-32
-6.4775e-32
-2.16637e-31
-5.42793e-31
-8.75551e-31
-3.44487e-30
-2.61451e-30
-1.64833e-29
-6.3293e-30
-6.06492e-29
-8.35802e-30
-1.95301e-28
-6.14752e-30
-3.6292e-28
-2.08032e-30
-4.31374e-28
5.80194e-31
-3.46752e-28
1.66476e-30
-1.91218e-28
1.07228e-30
-7.17611e-29
3.66744e-31
-1.78698e-29
7.36526e-32
-2.8274e-30
8.89738e-33
-2.66436e-31
6.44746e-34
-1.25822e-32
2.80953e-35
-2.17896e-35
1.04236e-36
1.13536e-37
4.1696e-38
1.07909e-38
1.81879e-39
9.22853e-40
6.9974e-41
7.66645e-41
9.84769e-43
5.42352e-42
-3.3508e-45
2.87631e-43
-1.38649e-46
9.87251e-45
-1.39043e-48
1.76212e-46
-5.74157e-50
1.14439e-48
-2.86879e-48
3.49864e-50
1.37975e-48
-1.11868e-46
-9.47479e-72
2.10738e-75
-6.18711e-68
4.90645e-71
-1.02764e-64
1.69561e-67
-7.36432e-62
1.87545e-64
-2.8909e-59
9.78346e-62
-7.12822e-57
2.94181e-59
-1.20569e-54
5.73745e-57
-1.4867e-52
7.83775e-55
-1.39659e-50
7.91165e-53
-1.03287e-48
6.13359e-51
-6.16744e-47
3.75657e-49
-3.03408e-45
1.85525e-47
-1.25179e-43
7.4972e-46
-4.41092e-42
2.50456e-44
-1.35527e-40
6.96395e-43
-3.7036e-39
1.61344e-41
-9.05288e-38
3.05197e-40
-1.95249e-36
4.25032e-39
-3.69626e-35
2.30011e-38
-5.76766e-34
-6.90255e-35
-7.2793e-33
-2.40232e-33
-7.38928e-32
-4.40718e-32
-5.99049e-31
-5.70488e-31
-3.82006e-30
-5.5819e-30
-1.87525e-29
-4.20617e-29
-6.93886e-29
-2.43878e-28
-1.94036e-28
-1.08721e-27
-4.55206e-28
-3.83434e-27
-5.62038e-28
-1.24987e-26
-3.49201e-28
-2.34147e-26
-2.52353e-29
-2.85192e-26
2.3043e-28
-2.40571e-26
2.76251e-28
-1.42895e-26
1.67689e-28
-5.94247e-27
6.18038e-29
-1.69013e-27
1.43308e-29
-3.15097e-28
2.11008e-30
-3.61474e-29
1.97196e-31
-2.16577e-30
1.18789e-32
-7.78242e-33
6.71791e-34
7.74843e-35
4.45355e-35
1.20411e-35
3.22261e-36
1.63232e-36
2.01113e-37
1.94934e-37
7.40007e-39
1.87676e-38
-5.12367e-42
1.33921e-39
-6.35463e-43
6.17512e-41
-7.53073e-45
1.40566e-42
-7.83081e-46
9.4068e-45
-3.23189e-44
6.84789e-46
2.16463e-44
-9.86233e-43
-1.96582e-68
7.62614e-72
-9.56787e-65
1.23199e-67
-1.22458e-61
3.01621e-64
-6.99016e-59
2.56446e-61
-2.23983e-56
1.07405e-58
-4.58743e-54
2.66049e-56
-6.52598e-52
4.34579e-54
-6.82914e-50
5.02763e-52
-5.48014e-48
4.3306e-50
-3.47903e-46
2.87975e-48
-1.7898e-44
1.51816e-46
-7.60735e-43
6.46858e-45
-2.71707e-41
2.25799e-43
-8.29523e-40
6.51553e-42
-2.20678e-38
1.56141e-40
-5.21404e-37
3.09872e-39
-1.10348e-35
4.952e-38
-2.07343e-34
5.59412e-37
-3.4122e-33
1.34165e-36
-4.63408e-32
-6.26597e-33
-5.13071e-31
-1.68617e-31
-4.61268e-30
-2.66035e-30
-3.34261e-29
-3.03927e-29
-1.92402e-28
-2.66141e-28
-8.61329e-28
-1.8167e-27
-2.94681e-27
-9.66866e-27
-7.7736e-27
-4.02886e-26
-1.78911e-26
-1.36323e-25
-2.07679e-26
-4.5083e-25
-1.04046e-26
-8.48019e-25
4.51131e-27
-1.05375e-24
1.651e-26
-9.28398e-25
1.79355e-26
-5.90709e-25
1.13797e-26
-2.70292e-25
4.65726e-27
-8.69734e-26
1.25247e-27
-1.8875e-26
2.22232e-28
-2.59581e-27
2.6069e-29
-1.93685e-28
2.0748e-30
-1.40364e-30
1.65605e-31
2.06813e-32
1.56493e-32
4.59789e-33
1.54365e-33
8.33828e-34
1.2921e-34
1.27038e-34
7.0511e-36
1.52934e-35
5.25135e-38
1.35458e-36
-6.36512e-40
7.89213e-38
-9.61158e-42
2.29452e-39
-1.45966e-42
1.69056e-41
-5.20571e-41
1.71082e-42
4.5594e-41
-1.34453e-39
-1.03582e-65
6.18247e-69
-4.2221e-62
7.91322e-65
-4.56678e-59
1.55826e-61
-2.23228e-56
1.10692e-58
-6.19492e-54
3.96358e-56
-1.10877e-51
8.5185e-54
-1.38795e-49
1.21947e-51
-1.28479e-47
1.24515e-49
-9.15603e-46
9.51291e-48
-5.17725e-44
5.62994e-46
-2.37745e-42
2.64742e-44
-9.03409e-41
1.0075e-42
-2.88754e-39
3.14271e-41
-7.89107e-38
8.09958e-40
-1.87749e-36
1.73001e-38
-3.96049e-35
3.04423e-37
-7.4781e-34
4.26201e-36
-1.25619e-32
4.05584e-35
-1.83784e-31
8.70244e-36
-2.2188e-30
-3.24141e-31
-2.19225e-29
-7.27165e-30
-1.76765e-28
-1.00823e-28
-1.15562e-27
-1.02691e-27
-6.04737e-27
-8.08906e-27
-2.48574e-26
-5.01418e-26
-7.92432e-26
-2.45308e-25
-1.9896e-25
-9.55729e-25
-4.56553e-25
-3.10386e-24
-5.09525e-25
-1.04074e-23
-2.13311e-25
-1.95316e-23
2.08238e-25
-2.4625e-23
5.61969e-25
-2.25476e-23
6.19105e-25
-1.52856e-23
4.23114e-25
-7.64233e-24
1.93802e-25
-2.75872e-24
6.02681e-26
-6.90893e-25
1.27452e-26
-1.12879e-25
1.83948e-27
-1.04034e-26
1.87022e-28
-1.48829e-28
1.96257e-29
2.61222e-30
2.40098e-30
7.6666e-31
2.95912e-31
1.72451e-31
3.08085e-32
3.17775e-32
2.21195e-33
4.62278e-33
5.43482e-35
4.96518e-34
-2.24738e-37
3.53306e-35
-4.97294e-39
1.3019e-36
-7.40859e-40
1.18063e-38
-2.36884e-38
1.11705e-39
2.60955e-38
-5.44337e-37
-2.31453e-63
1.93926e-66
-8.38346e-60
2.13298e-62
-8.05516e-57
3.61793e-59
-3.51392e-54
2.25461e-56
-8.74574e-52
7.16964e-54
-1.40996e-49
1.37983e-51
-1.59554e-47
1.77933e-49
-1.33895e-45
1.64362e-47
-8.66918e-44
1.13951e-45
-4.46039e-42
6.13241e-44
-1.86563e-40
2.62554e-42
-6.4605e-39
9.10214e-41
-1.88184e-37
2.58604e-39
-4.6837e-36
6.06451e-38
-1.01337e-34
1.17596e-36
-1.93951e-33
1.8699e-35
-3.31635e-32
2.34244e-34
-5.04379e-31
1.93076e-33
-6.63314e-30
-6.25471e-32
-7.19373e-29
-1.10644e-29
-6.39446e-28
-2.14749e-28
-4.65008e-27
-2.64583e-27
-2.75357e-26
-2.41306e-26
-1.31454e-25
-1.71212e-25
-4.98302e-25
-9.63595e-25
-1.48862e-24
-4.33134e-24
-3.5921e-24
-1.57599e-23
-8.35776e-24
-4.91348e-23
-9.27685e-24
-1.66381e-22
-3.84482e-24
-3.08925e-22
4.07057e-24
-3.92732e-22
1.11471e-23
-3.71903e-22
1.30379e-23
-2.67105e-22
9.72734e-24
-1.44958e-22
4.99619e-24
-5.82903e-23
1.79092e-24
-1.67341e-23
4.48098e-25
-3.23014e-24
7.8539e-26
-3.66938e-25
9.97937e-27
-9.75977e-27
1.30365e-27
1.77691e-28
1.94946e-28
6.63965e-29
2.87325e-29
1.78652e-29
3.58564e-30
3.87093e-30
3.21301e-31
6.63144e-31
1.32874e-32
8.51503e-32
-3.35941e-35
7.30325e-33
-1.33382e-36
3.37831e-34
-1.47799e-37
4.22262e-36
-4.35192e-36
2.81037e-37
5.90001e-36
-9.22807e-35
-2.98034e-61
3.30195e-64
-9.89696e-58
3.26706e-60
-8.67964e-55
4.95719e-57
-3.45795e-52
2.78725e-54
-7.87235e-50
8.0474e-52
-1.1629e-47
1.41242e-49
-1.20768e-45
1.66649e-47
-9.31269e-44
1.41195e-45
-5.54569e-42
8.99419e-44
-2.62579e-40
4.45233e-42
-1.01086e-38
1.75434e-40
-3.22101e-37
5.59713e-39
-8.6265e-36
1.46255e-37
-1.97122e-34
3.15019e-36
-3.90676e-33
5.59697e-35
-6.82935e-32
8.12112e-34
-1.06378e-30
9.21518e-33
-1.47136e-29
6.73494e-32
-1.74995e-28
-2.64971e-30
-1.71295e-27
-2.71279e-28
-1.37403e-26
-4.65237e-27
-9.02735e-26
-5.12332e-26
-4.84729e-25
-4.19032e-25
-2.1138e-24
-2.67633e-24
-7.40921e-24
-1.3653e-23
-2.08312e-23
-5.62854e-23
-4.87691e-23
-1.91e-22
-1.16585e-22
-5.72425e-22
-1.32846e-22
-1.94007e-21
-6.54398e-23
-3.52888e-21
3.94769e-23
-4.49287e-21
1.39206e-22
-4.38063e-21
1.79609e-22
-3.31444e-21
1.47959e-22
-1.94048e-21
8.54039e-23
-8.63633e-22
3.52202e-23
-2.82602e-22
1.03798e-23
-6.42197e-23
2.19189e-24
-8.99761e-24
3.43538e-25
-4.12841e-25
5.38174e-26
7.04592e-27
9.496e-27
3.34969e-27
1.63204e-27
1.05958e-27
2.391e-28
2.65706e-28
2.60349e-29
5.27758e-29
1.5526e-30
7.96475e-30
-1.96489e-33
8.27044e-31
-2.04245e-34
4.77339e-32
-1.44727e-35
8.7662e-34
-3.99268e-34
3.45744e-35
6.59653e-34
-8.04699e-33
-2.70972e-59
3.82826e-62
-8.36932e-56
3.48238e-58
-6.78613e-53
4.81775e-55
-2.49642e-50
2.47912e-52
-5.24735e-48
6.57072e-50
-7.1589e-46
1.061e-47
-6.86906e-44
1.1537e-45
-4.89568e-42
9.02009e-44
-2.69498e-40
5.3069e-42
-1.17946e-38
2.42753e-40
-4.19521e-37
8.83921e-39
-1.23404e-35
2.60501e-37
-3.04676e-34
6.28198e-36
-6.40441e-33
1.24675e-34
-1.16414e-31
2.03611e-33
-1.85979e-30
2.70615e-32
-2.63924e-29
2.79962e-31
-3.31827e-28
1.8517e-30
-3.5745e-27
-5.83186e-29
-3.16144e-26
-5.03068e-27
-2.2893e-25
-7.73003e-26
-1.35864e-24
-7.63416e-25
-6.61252e-24
-5.60121e-24
-2.63392e-23
-3.21592e-23
-8.54827e-23
-1.48357e-22
-2.27023e-22
-5.59497e-22
-5.20586e-22
-1.76906e-21
-1.28497e-21
-5.1157e-21
-1.52956e-21
-1.7079e-20
-9.47849e-22
-3.01156e-20
7.37555e-23
-3.81223e-20
1.09204e-21
-3.81545e-20
1.66275e-21
-3.02503e-20
1.54165e-21
-1.89924e-20
1.00576e-21
-9.2968e-21
4.77477e-22
-3.44933e-21
1.655e-22
-9.20375e-22
4.19571e-23
-1.59227e-22
8.05926e-24
-1.17162e-23
1.47681e-24
1.67229e-25
3.0107e-25
1.05927e-25
5.94516e-26
3.92541e-26
1.0097e-26
1.1304e-26
1.31411e-27
2.57893e-27
1.0521e-28
4.52258e-28
6.12324e-31
5.62927e-29
-1.77518e-32
4.05096e-30
-8.284e-34
1.08725e-31
-2.09195e-32
2.51056e-33
4.20723e-32
-4.11435e-31
-2.00917e-57
3.54424e-60
-5.7886e-54
2.98359e-56
-4.3515e-51
3.78773e-53
-1.48127e-48
1.79123e-50
-2.87877e-46
4.36918e-48
-3.63004e-44
6.4997e-46
-3.21879e-42
6.51669e-44
-2.11976e-40
4.701e-42
-1.078e-38
2.55307e-40
-4.35676e-37
1.07822e-38
-1.43003e-35
3.62423e-37
-3.87733e-34
9.85467e-36
-8.80827e-33
2.19043e-34
-1.69927e-31
4.00068e-33
-2.82487e-30
5.99938e-32
-4.11078e-29
7.30168e-31
-5.29571e-28
6.90473e-30
-6.0283e-27
4.2035e-29
-5.87284e-26
-7.71095e-28
-4.68783e-25
-7.28036e-26
-3.06128e-24
-1.01375e-24
-1.63957e-23
-8.99948e-24
-7.22545e-23
-5.92365e-23
-2.62682e-22
-3.05366e-22
-7.89548e-22
-1.27091e-21
-1.98741e-21
-4.37229e-21
-4.50839e-21
-1.28797e-20
-1.14069e-20
-3.60529e-20
-1.41814e-20
-1.16063e-19
-1.06717e-20
-1.96375e-19
-3.24576e-21
-2.45468e-19
4.52312e-21
-2.52032e-19
1.01375e-20
-2.08378e-19
1.10768e-20
-1.39455e-19
8.29342e-21
-7.46023e-20
4.55851e-21
-3.12204e-20
1.86304e-21
-9.76119e-21
5.67529e-22
-2.0865e-21
1.33219e-22
-2.30884e-22
2.81388e-23
2.21764e-24
6.55676e-24
2.19162e-24
1.47613e-24
9.62192e-25
2.88424e-25
3.17935e-25
4.4349e-26
8.29311e-26
4.56124e-27
1.6778e-26
1.58778e-28
2.47029e-27
-8.52881e-31
2.24125e-28
-3.19649e-32
8.36342e-30
-6.84496e-31
1.2589e-31
1.68618e-30
-1.34835e-29
-1.34653e-55
2.93245e-58
-3.60171e-52
2.27792e-54
-2.49951e-49
2.64835e-51
-7.83908e-47
1.14755e-48
-1.4022e-44
2.56639e-46
-1.62643e-42
3.50205e-44
-1.32615e-40
3.22218e-42
-8.02894e-39
2.13391e-40
-3.75281e-37
1.06425e-38
-1.39347e-35
4.12819e-37
-4.1993e-34
1.27443e-35
-1.04414e-32
3.18148e-34
-2.17124e-31
6.48723e-33
-3.8234e-30
1.0855e-31
-5.77943e-29
1.48852e-30
-7.61393e-28
1.65347e-29
-8.84854e-27
1.42823e-28
-9.06271e-26
8.09603e-28
-7.95708e-25
-4.40268e-27
-5.71765e-24
-8.36788e-25
-3.36078e-23
-1.06865e-23
-1.62233e-22
-8.54608e-23
-6.4668e-22
-5.04754e-22
-2.14338e-21
-2.33488e-21
-5.96292e-21
-8.75174e-21
-1.42688e-20
-2.73998e-20
-3.22452e-20
-7.51858e-20
-8.21221e-20
-2.03405e-19
-1.05216e-19
-6.17236e-19
-9.07326e-20
-9.92435e-19
-5.06124e-20
-1.21834e-18
-4.25396e-21
-1.28742e-18
3.51699e-20
-1.10626e-18
5.29969e-20
-7.83441e-19
4.75354e-20
-4.54988e-19
3.07872e-20
-2.13663e-19
1.49865e-20
-7.81213e-20
5.52419e-21
-2.06234e-20
1.58602e-21
-3.2553e-21
3.85311e-22
8.35347e-24
1.01908e-22
3.01651e-23
2.60685e-23
1.62015e-23
5.83562e-24
6.18305e-24
1.051e-24
1.84338e-24
1.34627e-25
4.28467e-25
8.56249e-27
7.39198e-26
-1.9686e-29
8.33828e-27
-9.21547e-31
4.24502e-28
-1.48286e-29
4.93341e-30
4.53703e-29
-3.01031e-28
-8.64009e-54
2.30448e-56
-2.13056e-50
1.64248e-52
-1.35581e-47
1.74028e-49
-3.89066e-45
6.87118e-47
-6.35909e-43
1.40014e-44
-6.73353e-41
1.74059e-42
-5.00893e-39
1.45883e-40
-2.76554e-37
8.80058e-39
-1.17848e-35
3.99855e-37
-3.98829e-34
1.41319e-35
-1.09493e-32
3.9755e-34
-2.47798e-31
9.04321e-33
-4.68226e-30
1.67965e-31
-7.47152e-29
2.55799e-30
-1.01927e-27
3.18833e-29
-1.20606e-26
3.21565e-28
-1.25421e-25
2.52904e-27
-1.14721e-24
1.3415e-26
-9.03156e-24
5.9939e-27
-5.82145e-23
-7.69e-24
-3.0721e-22
-9.15567e-23
-1.33457e-21
-6.61535e-22
-4.80753e-21
-3.50773e-21
-1.45116e-20
-1.45589e-20
-3.73307e-20
-4.91101e-20
-8.50687e-20
-1.39719e-19
-1.9149e-19
-3.56554e-19
-4.79294e-19
-9.23588e-19
-6.20298e-19
-2.58003e-18
-5.82576e-19
-3.92417e-18
-4.2424e-19
-4.71626e-18
-1.91014e-19
-5.17362e-18
8.05656e-22
-4.61906e-18
1.42084e-19
-3.4237e-18
1.79377e-19
-2.14026e-18
1.44402e-19
-1.12481e-18
8.60349e-20
-4.79222e-19
3.90548e-20
-1.5598e-19
1.38253e-20
-3.36569e-20
3.96379e-21
-2.05333e-21
1.1691e-21
2.71325e-22
3.39224e-22
1.92237e-22
8.68189e-23
8.60793e-23
1.81934e-23
2.94468e-23
2.83687e-24
7.85239e-24
2.63895e-25
1.57722e-24
1.30908e-27
2.16559e-25
-2.77177e-29
1.51472e-26
-2.19661e-28
2.19617e-28
8.55201e-28
-4.75678e-27
-5.28893e-52
1.7109e-54
-1.19736e-48
1.11538e-50
-6.95988e-46
1.07455e-47
-1.81973e-43
3.85501e-45
-2.70467e-41
7.13215e-43
-2.59994e-39
8.04218e-41
-1.75321e-37
6.10761e-39
-8.76448e-36
3.33559e-37
-3.37863e-34
1.37104e-35
-1.0337e-32
4.38163e-34
-2.56424e-31
1.11438e-32
-5.24003e-30
2.29175e-31
-8.92889e-29
3.84838e-30
-1.28175e-27
5.29772e-29
-1.56665e-26
5.96562e-28
-1.65208e-25
5.43436e-27
-1.52462e-24
3.87584e-26
-1.23655e-23
1.92256e-25
-8.66687e-23
2.38412e-25
-4.99136e-22
-5.62204e-23
-2.35781e-21
-6.40985e-22
-9.19958e-21
-4.20652e-21
-2.99182e-20
-2.00534e-20
-8.21852e-20
-7.4715e-20
-1.95347e-19
-2.26842e-19
-4.23618e-19
-5.85812e-19
-9.40954e-19
-1.38324e-18
-2.25209e-18
-3.36641e-18
-2.89361e-18
-8.46187e-18
-2.85033e-18
-1.22367e-17
-2.43181e-18
-1.43858e-17
-1.52801e-18
-1.67122e-17
-6.21904e-19
-1.56561e-17
-3.2996e-20
-1.18287e-17
3.43295e-19
-7.83147e-18
4.35854e-19
-4.65931e-18
3.44489e-19
-2.28464e-18
2.00624e-19
-9.14773e-19
8.93001e-20
-2.61296e-19
3.15322e-20
-3.81321e-20
1.03082e-20
1.40511e-21
3.36743e-21
1.63209e-21
9.81203e-22
8.81547e-22
2.37795e-22
3.48819e-22
4.43504e-23
1.06835e-22
5.48295e-24
2.48788e-23
2.53276e-25
4.089e-24
-7.02696e-28
3.85584e-25
-2.25566e-27
9.98185e-27
1.16368e-26
-5.46705e-26
-2.94888e-50
1.14569e-52
-6.1151e-47
6.81857e-49
-3.24241e-44
5.96897e-46
-7.71671e-42
1.94507e-43
-1.04194e-39
3.26621e-41
-9.08055e-38
3.33882e-39
-5.53995e-36
2.29535e-37
-2.50063e-34
1.13296e-35
-8.68837e-33
4.20223e-34
-2.39236e-31
1.21023e-32
-5.33496e-30
2.77099e-31
-9.79114e-29
5.12763e-30
-1.49666e-27
7.74692e-29
-1.92349e-26
9.59652e-28
-2.09729e-25
9.72682e-27
-1.96201e-24
7.98167e-26
-1.59648e-23
5.15233e-25
-1.13867e-22
2.3815e-24
-7.05909e-22
4.34263e-24
-3.61968e-21
-3.19514e-22
-1.52636e-20
-3.66663e-21
-5.33788e-20
-2.20736e-20
-1.56513e-19
-9.49757e-20
-3.9105e-19
-3.18186e-19
-8.58e-19
-8.69757e-19
-1.76248e-18
-2.03413e-18
-3.78945e-18
-4.39739e-18
-8.43973e-18
-9.78661e-18
-1.06813e-17
-2.17394e-17
-1.07463e-17
-3.03511e-17
-1.0374e-17
-3.50691e-17
-7.72303e-18
-4.55018e-17
-4.29541e-18
-4.46039e-17
-1.77941e-18
-3.3806e-17
-3.48481e-19
-2.20046e-17
5.58386e-19
-1.58341e-17
8.84781e-19
-8.57092e-18
7.40129e-19
-4.21281e-18
4.32597e-19
-1.55541e-18
1.93465e-19
-3.61528e-19
7.08476e-20
1.38846e-22
2.60061e-20
9.70429e-21
8.60977e-21
6.72602e-21
2.3995e-21
3.12359e-21
5.27514e-22
1.10229e-21
8.21442e-23
2.96765e-22
6.77798e-24
5.77435e-23
-5.44249e-27
7.00513e-24
-1.58589e-26
3.0201e-25
1.1644e-25
-4.65154e-25
-1.43088e-48
6.63116e-51
-2.70874e-45
3.59056e-47
-1.30772e-42
2.85084e-44
-2.83057e-40
8.42978e-42
-3.47172e-38
1.28449e-39
-2.7441e-36
1.19076e-37
-1.51554e-34
7.4157e-36
-6.17979e-33
3.31103e-34
-1.93548e-31
1.10903e-32
-4.79435e-30
2.87944e-31
-9.60144e-29
5.93482e-30
-1.5803e-27
9.87571e-29
-2.16359e-26
1.34115e-27
-2.48619e-25
1.49367e-26
-2.4162e-24
1.36222e-25
-2.00351e-23
1.00741e-24
-1.43416e-22
5.89064e-24
-8.95669e-22
2.52979e-23
-4.8772e-21
5.54153e-23
-2.2219e-20
-1.32403e-21
-8.35244e-20
-1.70225e-20
-2.61501e-19
-9.57032e-20
-6.9052e-19
-3.74713e-19
-1.56732e-18
-1.13408e-18
-3.16615e-18
-2.79458e-18
-6.10099e-18
-5.88979e-18
-1.23667e-17
-1.14547e-17
-2.50823e-17
-2.25933e-17
-3.13392e-17
-4.40226e-17
-3.17113e-17
-6.16383e-17
-3.54882e-17
-7.14945e-17
-2.94081e-17
-1.01515e-16
-1.83907e-17
-7.7913e-17
-9.62015e-18
-9.42688e-17
-5.02577e-18
-4.60057e-17
-1.21814e-18
-4.49135e-17
9.20367e-19
-2.53813e-17
1.88372e-18
-1.53886e-17
1.58928e-18
-7.17261e-18
9.20922e-19
-2.31875e-18
4.01518e-19
-3.16992e-19
1.61117e-19
3.73258e-20
6.01857e-20
3.8639e-20
1.916e-20
2.15833e-20
4.90358e-21
8.83062e-21
9.29447e-22
2.7462e-21
1.09007e-22
6.27534e-22
3.35351e-24
9.44648e-23
-7.24174e-26
6.597e-24
8.7516e-25
-2.94457e-24
-5.8859e-47
3.24245e-49
-1.01214e-43
1.58933e-45
-4.43405e-41
1.14045e-42
-8.7085e-39
3.05191e-40
-9.68831e-37
4.2121e-38
-6.94043e-35
3.53732e-36
-3.46962e-33
1.99486e-34
-1.27847e-31
8.05844e-33
-3.61139e-30
2.439e-31
-8.05225e-29
5.71371e-30
-1.44891e-27
1.06106e-28
-2.13957e-26
1.58913e-27
-2.62512e-25
1.94158e-26
-2.69995e-24
1.94641e-25
-2.3432e-23
1.60015e-24
-1.72711e-22
1.06954e-23
-1.09086e-21
5.68561e-23
-5.97115e-21
2.26926e-22
-2.84791e-20
5.40924e-22
-1.15181e-19
-3.15813e-21
-3.86341e-19
-6.31422e-20
-1.084e-18
-3.4196e-19
-2.57893e-18
-1.23603e-18
-5.31056e-18
-3.41228e-18
-9.8217e-18
-7.61617e-18
-1.74736e-17
-1.4394e-17
-3.24573e-17
-2.46808e-17
-5.94296e-17
-4.19705e-17
-7.50464e-17
-7.36859e-17
-7.6838e-17
-1.09259e-16
-9.59058e-17
-1.60533e-16
-6.48334e-17
2.4709e-16
-6.92093e-17
3.87165e-16
-3.02141e-17
-3.28121e-16
-2.46533e-17
-7.34433e-17
-9.58958e-18
-3.89602e-17
-1.99841e-18
-5.72062e-17
2.88439e-18
-4.43387e-17
4.45086e-18
-2.54255e-17
3.46248e-18
-1.07781e-17
1.90507e-18
-2.71066e-18
8.33149e-19
5.24713e-20
3.45471e-19
1.67558e-19
1.24262e-19
1.17456e-19
3.65936e-20
5.62664e-20
8.24407e-21
2.02358e-20
1.25332e-21
5.39997e-21
8.86943e-23
9.86963e-22
-2.02506e-25
9.82453e-23
6.20287e-24
-1.3783e-23
-2.02423e-45
1.32394e-47
-3.14561e-42
5.84373e-44
-1.24575e-39
3.77445e-41
-2.21376e-37
9.11179e-39
-2.22956e-35
1.13629e-36
-1.44589e-33
8.63056e-35
-6.53994e-32
4.40359e-33
-2.17805e-30
1.60916e-31
-5.5524e-29
4.40281e-30
-1.11524e-27
9.31451e-29
-1.8043e-26
1.56018e-27
-2.39145e-25
2.10525e-26
-2.63015e-24
2.31609e-25
-2.42257e-23
2.09154e-24
-1.88064e-22
1.55177e-23
-1.23651e-21
9.39568e-23
-6.92794e-21
4.55738e-22
-3.33993e-20
1.69305e-21
-1.39685e-19
4.15917e-21
-5.02211e-19
9.79453e-22
-1.50836e-18
-1.81311e-19
-3.80814e-18
-1.00008e-18
-8.19088e-18
-3.41304e-18
-1.53105e-17
-8.73607e-18
-2.57539e-17
-1.78771e-17
-4.15408e-17
-3.04001e-17
-6.92542e-17
-4.56969e-17
-1.17721e-16
-6.76491e-17
-1.55479e-16
-1.14824e-16
-2.02255e-16
1.00578e-16
-4.15084e-16
-6.96009e-16
-1.39293e-15
-6.26216e-15
-6.45965e-16
-5.58132e-15
-6.61736e-17
-1.57047e-15
-8.99717e-17
-9.2749e-17
-6.81331e-17
-1.08123e-16
-1.27672e-17
-1.01129e-16
8.22166e-19
-9.76799e-17
9.49726e-18
-6.75841e-17
1.03888e-17
-3.64092e-17
7.25745e-18
-1.33691e-17
3.66231e-18
-1.55585e-18
1.6594e-18
5.25087e-19
6.69757e-19
5.1098e-19
2.24745e-19
2.91595e-19
5.9074e-20
1.21576e-19
1.10655e-20
3.76965e-20
1.18349e-21
8.22693e-21
1.71247e-23
1.07683e-21
6.12187e-23
-4.60858e-23
-5.69112e-44
4.41636e-46
-7.9641e-41
1.74882e-42
-2.84435e-38
1.01401e-39
-4.56624e-36
2.20385e-37
-4.15976e-34
2.48013e-35
-2.44174e-32
1.70273e-33
-9.99711e-31
7.86103e-32
-3.01209e-29
2.60027e-30
-6.93898e-28
6.43923e-29
-1.25748e-26
1.23217e-27
-1.83204e-25
1.86492e-26
-2.18245e-24
2.27144e-25
-2.15396e-23
2.25393e-24
-1.77864e-22
1.83622e-23
-1.23727e-21
1.23127e-22
-7.28381e-21
6.76728e-22
-3.64375e-20
3.00506e-21
-1.55846e-19
1.04154e-20
-5.7453e-19
2.55684e-20
-1.83555e-18
2.58202e-20
-4.96414e-18
-3.73086e-19
-1.13576e-17
-2.36136e-18
-2.22539e-17
-7.87356e-18
-3.79808e-17
-1.91449e-17
-5.8126e-17
-3.67096e-17
-8.45369e-17
-5.67153e-17
-1.29165e-16
-7.52314e-17
-2.19834e-16
-9.78947e-17
1.1917e-17
-1.11024e-16
-1.42334e-15
-1.79444e-15
-8.83172e-15
-4.65386e-15
-8.89999e-15
-6.38723e-15
-8.48028e-15
-6.85483e-15
-6.17113e-15
-6.15303e-15
-5.95776e-16
-3.91505e-15
-6.22037e-17
-1.47002e-16
-3.46606e-17
-1.43769e-16
-5.60507e-18
-1.66209e-16
1.55975e-17
-1.33181e-16
2.4612e-17
-8.79767e-17
2.19855e-17
-4.34097e-17
1.39406e-17
-1.16178e-17
6.93601e-18
9.95388e-19
3.08884e-18
1.80549e-18
1.16247e-18
1.25471e-18
3.50169e-19
6.07512e-19
7.81384e-20
2.17799e-19
1.10728e-20
5.5987e-20
5.95038e-22
9.183e-21
6.95962e-22
-9.81599e-23
-1.29658e-42
1.19278e-44
-1.63107e-39
4.23058e-41
-5.24604e-37
2.19938e-38
-7.59947e-35
4.29873e-36
-6.25707e-33
4.3615e-34
-3.32327e-31
2.70502e-32
-1.23184e-29
1.12979e-30
-3.36021e-28
3.38402e-29
-7.00436e-27
7.59142e-28
-1.14728e-25
1.31583e-26
-1.50843e-24
1.80314e-25
-1.6187e-23
1.987e-24
-1.43655e-22
1.78278e-23
-1.06528e-21
1.31322e-22
-6.65099e-21
7.97351e-22
-3.51394e-20
3.98427e-21
-1.57634e-19
1.62213e-20
-6.02718e-19
5.24601e-20
-1.9783e-18
1.26344e-19
-5.62624e-18
1.77091e-19
-1.37812e-17
-3.93584e-19
-2.88521e-17
-4.36536e-18
-5.21434e-17
-1.50576e-17
-8.2391e-17
-3.60177e-17
-1.15506e-16
-6.59346e-17
-1.52023e-16
-8.07088e-17
-2.13698e-16
-9.28106e-17
2.01392e-16
-1.06565e-16
-2.12207e-15
-7.99355e-16
-6.01169e-15
-4.89207e-15
-6.76582e-15
-4.31417e-15
-9.09907e-15
-4.62249e-15
-1.08006e-14
-5.82189e-15
-1.09868e-14
-6.40757e-15
-4.87061e-16
-3.56128e-16
-7.76444e-17
-4.48952e-16
-5.5747e-17
-1.97538e-16
-1.46648e-17
-2.33043e-16
2.09892e-17
-2.04191e-16
4.52704e-17
-1.57453e-16
5.09872e-17
-9.80704e-17
4.07898e-17
-4.04838e-17
2.37164e-17
-1.49763e-18
1.18862e-17
4.9242e-18
5.03523e-18
4.44481e-18
1.72588e-18
2.53257e-18
4.49525e-19
1.05005e-18
7.92512e-20
3.15101e-19
7.00038e-21
6.28967e-20
6.58692e-21
-6.09139e-23
-2.37313e-41
2.5855e-43
-2.68396e-38
8.21644e-40
-7.77348e-36
3.8314e-37
-1.01594e-33
6.7351e-35
-7.55975e-32
6.16071e-33
-3.63396e-30
3.4519e-31
-1.22043e-28
1.3048e-29
-3.01809e-27
3.54204e-28
-5.70384e-26
7.20867e-27
-8.46583e-25
1.13419e-25
-1.00746e-23
1.41092e-24
-9.76905e-23
1.41102e-23
-7.81872e-22
1.14836e-22
-5.219e-21
7.67111e-22
-2.92941e-20
4.22706e-21
-1.39117e-19
1.92278e-20
-5.61345e-19
7.17943e-20
-1.93124e-18
2.16387e-19
-5.69501e-18
5.05044e-19
-1.45158e-17
8.04832e-19
-3.2389e-17
3.2237e-19
-6.27846e-17
-5.78099e-18
-1.06534e-16
-2.32622e-17
-1.57568e-16
-5.75163e-17
-1.77162e-16
-1.0131e-16
-2.09877e-16
1.48389e-16
-2.52681e-16
4.76608e-17
-1.27885e-16
-1.8924e-16
-2.95451e-15
-6.07673e-16
-5.10048e-15
-1.80253e-15
-7.7943e-15
-2.02919e-15
-1.01349e-14
-2.85647e-15
-6.78898e-15
-1.47725e-16
-2.22724e-16
-2.10832e-16
-2.83866e-16
-2.62506e-16
-2.18776e-16
-4.58193e-16
-6.99535e-17
-2.75764e-16
-2.30004e-17
-2.92135e-16
2.44526e-17
-2.72056e-16
6.62253e-17
-2.31303e-16
9.04261e-17
-1.68872e-16
8.92298e-17
-9.23794e-17
6.56873e-17
-2.18879e-17
3.77468e-17
9.635e-18
1.81134e-17
1.28076e-17
7.04904e-18
8.77099e-18
2.11813e-18
4.22546e-18
4.48698e-19
1.47378e-18
5.44127e-20
3.51251e-19
4.80878e-20
1.39106e-21
-3.47342e-40
4.46938e-42
-3.54462e-37
1.2773e-38
-9.27337e-35
5.36265e-36
-1.09608e-32
8.50537e-34
-7.38423e-31
7.03152e-32
-3.21682e-29
3.56591e-30
-9.7987e-28
1.22155e-28
-2.19916e-26
3.00872e-27
-3.77291e-25
5.5613e-26
-5.08263e-24
7.95291e-25
-5.48594e-23
8.9961e-24
-4.81883e-22
8.18169e-23
-3.48789e-21
6.0548e-22
-2.10159e-20
3.67758e-21
-1.06316e-19
1.84366e-20
-4.54782e-19
7.64753e-20
-1.65444e-18
2.61972e-19
-5.14307e-18
7.3426e-19
-1.37349e-17
1.64339e-18
-3.17918e-17
2.75106e-18
-6.47669e-17
2.64311e-18
-1.1752e-16
-3.52362e-18
-1.90154e-16
-2.5668e-17
-2.62964e-16
-6.67882e-17
-4.03124e-16
9.55449e-17
-2.49682e-15
-1.56043e-15
-3.00124e-15
-1.91481e-15
-2.07181e-15
-9.6001e-16
-3.63066e-16
-1.4799e-16
-1.07932e-15
-1.58845e-16
-1.01774e-15
-1.37092e-16
-2.39914e-16
-1.44421e-16
-2.11115e-16
-1.95194e-16
-1.85904e-16
-2.54689e-16
-1.54427e-16
-3.07825e-16
-1.16878e-16
-3.43182e-16
-8.15588e-17
-1.29825e-16
-2.99715e-17
-3.49254e-16
2.71559e-17
-3.42557e-16
8.43495e-17
-3.08268e-16
1.30624e-16
-2.4791e-16
1.51257e-16
-1.62466e-16
1.36784e-16
-6.4439e-17
9.33218e-17
1.02431e-17
5.17969e-17
2.85886e-17
2.31418e-17
2.44889e-17
8.0258e-18
1.39061e-17
2.0092e-18
5.65339e-18
3.10136e-19
1.59261e-18
2.72807e-19
1.73726e-20
-4.03257e-39
6.11471e-41
-3.73345e-36
1.57898e-37
-8.87016e-34
6.00132e-35
-9.5284e-32
8.6339e-33
-5.83684e-30
6.48282e-31
-2.31274e-28
2.98844e-29
-6.40916e-27
9.31139e-28
-1.30892e-25
2.08721e-26
-2.04369e-24
3.51318e-25
-2.50544e-23
4.57772e-24
-2.46e-22
4.72071e-23
-1.96397e-21
3.9155e-22
-1.29018e-20
2.64306e-21
-7.04225e-20
1.4644e-20
-3.22073e-19
6.69867e-20
-1.24356e-18
2.53865e-19
-4.08287e-18
7.97673e-19
-1.14797e-17
2.07097e-18
-2.78547e-17
4.39202e-18
-5.89068e-17
7.37715e-18
-1.09872e-16
8.9085e-18
-1.81595e-16
4.28842e-18
-2.63e-16
-1.40106e-17
-3.11115e-16
-9.87664e-17
-5.69732e-15
-1.92174e-15
-1.11371e-14
-2.93412e-15
-1.13454e-14
-1.62251e-15
-3.77973e-16
-2.18001e-15
-3.84332e-16
-1.47286e-16
-3.82453e-16
-1.83427e-16
-3.58272e-16
-2.02705e-16
-3.24229e-16
-2.35942e-16
-2.75706e-16
-2.6932e-16
-2.30789e-16
-3.04251e-16
-1.91001e-16
-3.4716e-16
-8.11219e-17
-3.84869e-16
-1.19573e-16
-4.12944e-16
-3.38951e-17
-4.25805e-16
3.27378e-17
-4.20248e-16
1.03623e-16
-3.92986e-16
1.6997e-16
-3.36021e-16
2.1712e-16
-2.46329e-16
2.26124e-16
-1.27992e-16
1.83686e-16
-5.01242e-18
1.18804e-16
4.95798e-17
6.12352e-17
5.53902e-17
2.4484e-17
3.7482e-17
7.16e-18
1.77912e-17
1.34924e-18
5.87884e-18
1.22367e-18
1.13744e-19
-3.70765e-38
6.62318e-40
-3.13271e-35
1.55226e-36
-6.80308e-33
5.37186e-34
-6.68599e-31
7.05495e-32
-3.74827e-29
4.84286e-30
-1.35899e-27
2.04232e-28
-3.44464e-26
5.82245e-27
-6.43109e-25
1.19406e-25
-9.17505e-24
1.83851e-24
-1.02733e-22
2.1913e-23
-9.20815e-22
2.06724e-22
-6.70595e-21
1.56887e-21
-4.01377e-20
9.69175e-21
-1.99279e-19
4.91466e-20
-8.2728e-19
2.05789e-19
-2.89332e-18
7.14353e-19
-8.59055e-18
2.06031e-18
-2.18335e-17
4.93725e-18
-4.79549e-17
9.79065e-18
-9.20522e-17
1.58549e-17
-1.54547e-16
2.01413e-17
-2.07516e-16
1.68073e-17
-2.49925e-16
-3.59727e-19
-5.56905e-15
-4.05689e-16
-1.21262e-14
-3.17596e-15
-1.23672e-14
-2.78241e-15
-1.25269e-14
-1.56293e-15
-4.54792e-16
-1.15798e-16
-4.52391e-16
-1.55976e-16
-4.93989e-16
-2.10392e-16
-4.88127e-16
-2.67415e-16
-4.07654e-16
-3.85302e-16
-3.21901e-16
-4.29288e-16
-2.58894e-16
-3.40002e-16
-2.068e-16
-3.95218e-16
-1.53396e-16
-4.40648e-16
-9.59707e-17
-4.77113e-16
-2.919e-17
-4.9979e-16
4.70173e-17
-5.02909e-16
1.31011e-16
-4.8422e-16
2.15436e-16
-4.3208e-16
2.87366e-16
-3.42424e-16
3.25564e-16
-2.07267e-16
3.06677e-16
-4.77582e-17
2.27533e-16
6.91573e-17
1.34198e-16
1.04784e-16
6.14e-17
8.46711e-17
2.07133e-17
4.676e-17
4.6265e-18
1.79556e-17
4.43834e-18
5.13969e-19
-2.70124e-37
5.69459e-39
-2.0947e-34
1.2165e-35
-4.18403e-32
3.85338e-33
-3.78831e-30
4.6478e-31
-1.95822e-28
2.93666e-29
-6.5469e-27
1.14131e-27
-1.52938e-25
2.99976e-26
-2.62903e-24
5.67043e-25
-3.44944e-23
8.04265e-24
-3.54783e-22
8.82351e-23
-2.9179e-21
7.65657e-22
-1.94796e-20
5.34237e-21
-1.06772e-19
3.03376e-20
-4.84864e-19
1.41427e-19
-1.8381e-18
5.44529e-19
-5.85942e-18
1.73885e-18
-1.58325e-17
4.61862e-18
-3.66253e-17
1.02237e-17
-7.34869e-17