/*--------------------------------*- C++ -*----------------------------------*\
| =========                 |                                                 |
| \\      /  F ield         | OpenFOAM: The Open Source CFD Toolbox           |
|  \\    /   O peration     | Version:  2.4.0                                 |
|   \\  /    A nd           | Web:      www.OpenFOAM.org                      |
|    \\/     M anipulation  |                                                 |
\*---------------------------------------------------------------------------*/
FoamFile
{
    version     2.0;
    format      ascii;
    class       volScalarField;
    location    "0.182";
    object      p_rgh;
}
// * * * * * * * * * * * * * * * * * * * * * * * * * * * * * * * * * * * * * //

dimensions      [1 -1 -2 0 0 0 0];

internalField   nonuniform List<scalar> 
3600
(
94.9256
92.3074
89.6646
87.9377
87.8946
89.1861
91.6412
93.3569
94.9672
95.6996
96.5301
96.5053
96.6646
96.8017
96.502
96.59
96.5664
96.2746
95.7869
94.8842
94.4444
95.6617
96.0165
96.4718
97.3757
98.1928
98.2852
98.673
98.9878
99.0785
94.9311
92.3048
89.6561
87.9243
87.8797
89.1782
91.6451
93.3646
94.9777
95.7104
96.5426
96.5115
96.6732
96.815
96.5007
96.5991
96.5652
96.1559
95.3594
94.8169
94.1471
93.9099
94.2654
94.912
95.8289
96.7962
97.3434
97.6145
97.7355
97.8102
94.9451
92.303
89.6419
87.8994
87.8496
89.1602
91.6517
93.3754
94.993
95.7311
96.5606
96.5156
96.6811
96.8228
96.5053
96.627
96.5176
96.1027
95.3732
94.6757
93.4593
92.752
93.3868
94.6194
95.3552
96.2642
96.9782
97.3295
97.4304
97.4941
94.968
92.3019
89.6215
87.8624
87.8041
89.1317
91.6604
93.3894
95.0119
95.7625
96.5884
96.5194
96.6844
96.8301
96.5255
96.6776
96.5896
96.1701
95.461
94.3729
92.2548
91.5127
92.6728
93.7939
94.7991
95.8036
96.2911
96.7359
96.9334
97.0109
94.9997
92.3016
89.5948
87.8131
87.7429
89.093
91.6718
93.4066
95.0341
95.8046
96.629
96.5268
96.6788
96.8337
96.5483
96.7419
96.6554
96.3601
95.48
94.1104
91.5247
90.4008
91.6618
92.8546
93.7119
94.8802
96.0564
96.588
96.514
96.5529
95.0406
92.3021
89.5619
87.7512
87.6656
89.0439
91.6862
93.427
95.0592
95.8566
96.6821
96.5405
96.6606
96.8276
96.5697
96.7557
96.6253
96.4116
95.5009
94.3323
91.2252
89.878
91.3621
92.9629
93.8942
94.793
95.5679
96.1482
96.2839
96.3401
95.0907
92.3034
89.5224
87.6766
87.5716
88.9843
91.7043
93.4502
95.087
95.9181
96.744
96.5606
96.671
96.826
96.5815
96.7097
96.4852
96.342
95.3683
94.0331
91.1389
89.9117
91.3156
92.7067
93.9169
94.6958
95.4735
95.9649
96.1896
96.2483
95.1502
92.3056
89.4765
87.589
87.4603
88.9139
91.7268
93.4759
95.1177
95.9888
96.8134
96.5811
96.741
96.8505
96.5464
96.6386
96.2775
96.2019
95.2036
93.816
91.3909
90.3705
91.3721
92.8914
94.0176
94.7362
95.2894
95.7383
95.9831
96.0565
95.2193
92.3087
89.424
87.4882
87.3309
88.8324
91.7545
93.5037
95.1517
96.0707
96.8937
96.5922
96.8514
96.8922
96.4942
96.5992
96.1514
96.0623
95.1567
93.8924
92.1324
91.1333
92.1406
93.2298
94.0779
94.6776
95.1605
95.5075
95.7306
95.8493
95.2981
92.3128
89.3649
87.3738
87.1825
88.7398
91.7886
93.5332
95.1892
96.1679
96.9895
96.5912
96.9599
96.9299
96.4527
96.581
96.1355
95.9755
95.2153
94.1831
93.076
92.4989
92.9558
93.6908
94.275
94.7206
95.063
95.3146
95.4809
95.5973
95.387
92.318
89.2991
87.2454
87.014
88.6357
91.8301
93.5636
95.2301
96.283
97.1004
96.5783
97.0536
96.9656
96.426
96.5595
96.1217
95.9113
95.3043
94.5546
93.8701
93.3559
93.5974
93.9932
94.4016
94.7509
95.0182
95.1802
95.292
95.3472
95.4862
92.3243
89.2265
87.1026
86.8242
88.5198
91.8807
93.5938
95.2735
96.4173
97.2237
96.5575
97.1465
97.0343
96.4128
96.5278
96.0538
95.8537
95.3816
94.8465
94.2989
93.9795
94.0319
94.2435
94.4939
94.7305
94.9339
95.0755
95.1445
95.1542
95.596
92.3317
89.1472
86.9446
86.6116
88.3919
91.9421
93.6224
95.3179
96.5725
97.3555
96.5331
97.2406
97.1243
96.4103
96.5262
95.9478
95.8311
95.4431
95.0448
94.6485
94.4518
94.4068
94.4388
94.5352
94.6887
94.8426
94.9662
95.0312
95.027
95.7166
92.3404
89.0612
86.771
86.3746
88.2517
92.0165
93.6473
95.3625
96.7514
97.4936
96.498
97.3588
97.2386
96.4169
96.502
95.8365
95.8117
95.4892
95.2134
94.9664
94.8189
94.7055
94.5603
94.4489
94.4147
94.5773
94.824
94.9366
94.8713
95.8485
92.3505
88.9685
86.5809
86.1113
88.099
92.1062
93.6665
95.4052
96.9575
97.6369
96.4492
97.4892
97.3787
96.4743
96.4589
95.7077
95.754
95.5117
95.3357
95.1945
95.0314
94.8919
94.7758
94.6287
94.4359
94.45
94.6256
94.7727
94.6632
95.9921
92.3621
88.869
86.3736
85.8197
87.9336
92.2145
93.6771
95.4433
97.1968
97.7533
96.3853
97.6354
97.4983
96.443
96.31
95.5715
95.7043
95.5353
95.4309
95.3703
95.154
94.9613
94.8657
94.8441
94.8033
94.6782
94.5648
94.5685
94.536
96.1477
92.3752
88.7625
86.1485
85.4973
87.7556
92.3445
93.6768
95.4724
97.4681
97.8938
96.2907
97.7799
97.6651
96.4288
96.0638
95.2987
95.6548
95.6342
95.4938
95.5541
95.2562
94.9661
94.7696
94.6784
94.6281
94.6563
94.4751
94.4327
94.5552
96.3159
92.3901
88.6489
85.9046
85.1414
87.5648
92.5008
93.6553
95.4902
97.7903
97.9946
96.1641
97.9403
97.8659
96.3833
95.7451
94.989
95.5984
95.6997
95.5341
95.673
95.3986
94.9666
94.7208
94.5748
94.519
94.5841
94.5341
94.5124
94.6401
96.4971
92.4065
88.528
85.6412
84.749
87.3617
92.6873
93.621
95.5098
98.1468
98.1001
96.0189
98.0781
98.0127
96.2274
95.245
94.679
95.5635
95.7188
95.5643
95.7691
95.4297
94.9555
94.7402
94.5258
94.453
94.5979
94.5935
94.5413
94.5896
96.6917
92.4248
88.3995
85.3574
84.3168
87.1469
92.9102
93.5298
95.5102
98.5481
98.1245
95.797
98.1581
98.2108
96.0952
94.5984
94.395
95.4999
95.7047
95.4783
95.8378
95.2815
94.5867
94.4905
94.5333
94.5352
94.6417
94.6224
94.5274
94.5368
96.9009
92.4449
88.2633
85.0528
83.8417
86.922
93.1762
93.4446
95.5191
98.9679
98.1102
95.7141
98.2805
98.4141
95.8657
94.0599
94.0626
95.4998
95.728
95.3614
95.5127
94.8578
94.179
94.3609
94.6334
94.7034
94.7048
94.6462
94.5916
94.5899
97.1247
92.4673
88.1195
84.7279
83.3205
86.6896
93.4843
93.2531
95.5516
99.4801
96.9613
95.1676
98.394
98.9536
95.5019
93.4135
94.2357
95.5319
95.7383
95.1877
95.1394
94.6991
94.3055
94.3972
94.6951
94.7794
94.7378
94.6681
94.627
94.6072
97.3645
92.4926
87.9686
84.3873
82.7537
86.4599
93.863
93.0401
95.5791
99.9294
98.3991
93.7182
98.1722
99.3031
95.6186
92.5278
93.3557
95.6094
95.8271
94.9054
94.9895
95.2816
94.5161
94.6051
94.7753
94.729
94.6778
94.6211
94.5885
94.5527
97.6228
92.5165
87.8132
84.0409
82.1742
86.242
94.2795
92.6873
95.6014
100.23
98.7809
94.6003
97.6825
99.256
94.3685
91.4083
92.9371
96.0512
95.9216
94.8249
95.0719
95.0558
94.701
94.9561
94.8766
94.788
94.6823
94.5753
94.5067
94.4556
97.8984
92.5433
87.6608
83.6881
80.6843
85.9872
94.7562
97.8922
95.8535
101.318
98.9786
92.9078
96.781
98.8467
93.7029
90.839
92.8865
96.3181
95.3312
94.6065
94.9582
94.8723
94.8533
95.0307
94.8764
94.7019
94.598
94.4869
94.4143
94.3347
98.1965
92.5758
87.5155
69.1117
37.0159
63.4291
93.6108
96.066
96.3396
101.212
99.9799
94.2355
96.2445
98.1195
93.6139
90.6965
92.9249
96.7435
94.9169
94.3488
95.2944
94.74
95.0311
95.0504
94.8124
94.7715
94.6398
94.4746
94.3563
94.226
98.5066
92.5975
72.5284
9.47594
7.05328
42.0794
93.0209
104.441
96.7427
102.017
100.89
94.7683
96.5604
97.8696
94.4483
91.3564
92.9755
97.3481
94.6017
94.4215
95.4406
94.4594
95.1554
94.8599
94.6568
94.5688
94.6074
94.4096
94.2726
94.0999
98.8125
92.4303
15.059
0.245524
6.83243
45.049
85.9181
92.318
96.127
102.266
102.114
94.9515
97.3857
98.502
95.6117
92.7636
94.0961
97.6505
95.2112
94.9987
95.0768
94.1841
95.2106
94.9509
94.97
94.8224
94.7785
94.4563
94.199
93.9202
98.7206
51.7528
2.50363
0.230574
0.787854
16.8585
69.6011
85.85
96.0625
102.532
102.713
95.595
98.2592
99.0093
96.3088
93.3276
95.0227
98.1744
94.7729
95.031
91.3213
84.6251
86.8453
90.1983
86.0781
83.5107
81.6984
79.6802
78.1359
76.4501
97.5267
1.08558
0.0300901
0.0905868
-0.00150162
1.90996
25.0455
48.1847
81.6838
102.15
102.687
89.6296
98.3931
92.8975
69.0322
49.6281
44.4396
70.8312
27.4719
34.1712
20.4524
28.3763
22.1874
17.4355
17.5832
18.6279
17.1914
16.5295
15.7091
15.2855
99.0931
98.9618
98.4433
98.5397
98.2042
97.3393
96.5446
96.0776
94.5664
94.1092
94.4264
95.2553
95.6919
96.1035
96.0682
96.0432
96.2708
96.1373
95.9564
95.9143
95.0564
94.8429
93.7272
92.6005
90.1818
88.6654
88.3377
89.8646
92.4367
94.9956
97.8055
97.7661
97.6656
97.3629
96.7934
95.95
95.071
94.2627
93.5306
93.6758
94.2924
94.7731
95.5267
96.0582
96.077
96.0446
96.2868
96.1442
95.9651
95.9241
95.0624
94.8482
93.7361
92.6082
90.1785
88.6514
88.3237
89.8549
92.4341
95.0008
97.4728
97.4604
97.3562
96.9991
96.4408
95.5838
94.7543
93.3351
92.036
92.7874
94.0782
94.8581
95.4984
96.0029
96.1034
96.0514
96.2937
96.1506
95.973
95.9358
95.0683
94.8551
93.7499
92.6236
90.1704
88.6233
88.2977
89.8384
92.4323
95.0143
96.9815
96.9145
96.7755
96.5037
95.9909
95.0394
94.213
92.5784
90.9725
91.7811
93.8016
94.8898
95.5886
96.0811
96.1514
96.0781
96.2979
96.1485
95.982
95.9514
95.076
94.8632
93.769
92.6462
90.1572
88.5805
88.259
89.8144
92.4311
95.0363
96.5793
96.6024
96.6513
95.8479
95.099
94.1641
93.2848
91.6185
90.1715
91.1965
93.6393
94.8654
95.7608
96.1498
96.2149
96.1102
96.2979
96.135
95.9972
95.9737
95.0857
94.8724
93.7939
92.6762
90.1391
88.5228
88.2072
89.783
92.4308
95.067
96.3618
96.2826
96.0881
95.6239
94.9905
94.214
93.3208
91.5195
90.0076
90.937
93.6314
94.8922
95.8054
96.1263
96.2344
96.1424
96.2881
96.1018
96.0231
96.0033
95.0967
94.8826
93.8247
92.7143
90.1163
88.4496
88.1423
89.7439
92.4312
95.1065
96.238
96.1406
95.876
95.3971
94.7843
94.2053
93.2013
91.4372
90.2112
90.8397
93.1762
94.7182
95.7558
96.0063
96.1974
96.1697
96.278
96.08
96.0614
96.0366
95.1077
94.8932
93.8614
92.7609
90.0888
88.3603
88.064
89.6971
92.4324
95.155
96.0394
95.9169
95.6207
95.1781
94.6697
94.1322
93.2718
91.9541
90.6555
91.4794
93.1971
94.6188
95.6435
95.822
96.128
96.1595
96.2959
96.111
96.1089
96.0718
95.1179
94.9037
93.9042
92.8168
90.057
88.2542
87.9721
89.6423
92.4346
95.2127
95.7917
95.6649
95.3822
95.0205
94.6233
94.1802
93.5615
92.6833
91.7671
92.0925
93.3795
94.6266
95.5412
95.7031
96.082
96.1142
96.3387
96.191
96.1579
96.1102
95.1269
94.9138
93.9533
92.8831
90.0211
88.1304
87.8662
89.5794
92.4377
95.2796
95.5048
95.4132
95.1972
94.9239
94.6194
94.2742
93.8635
93.366
92.8607
93.2322
93.8132
94.7489
95.4995
95.6893
96.0679
96.0897
96.3795
96.2731
96.204
96.1569
95.1363
94.9231
94.0088
92.9608
89.9814
87.9878
87.746
89.5084
92.4419
95.3561
95.2987
95.2424
95.0635
94.8601
94.6336
94.3555
94.0698
93.7749
93.5751
93.7417
94.2468
94.8646
95.4821
95.7063
96.068
96.0857
96.408
96.3365
96.2457
96.2146
95.1475
94.9306
94.071
93.0515
89.9382
87.8253
87.6111
89.4288
92.4473
95.4424
95.1402
95.0889
94.9719
94.8096
94.6163
94.4023
94.2473
94.1149
94.0073
94.1117
94.4838
94.9464
95.4651
95.6988
96.0846
96.1005
96.4665
96.3776
96.2866
96.2837
95.16
94.9352
94.1395
93.1567
89.8922
87.6413
87.461
89.3407
92.4539
95.5388
95.0234
94.9576
94.788
94.5878
94.4951
94.392
94.3833
94.4016
94.3348
94.4063
94.6421
95.0006
95.4695
95.6677
96.1329
96.1625
96.545
96.3997
96.3324
96.3609
95.1719
94.9352
94.2145
93.2782
89.8437
87.4343
87.2951
89.2436
92.4619
95.6455
94.7835
94.67
94.5641
94.4514
94.3916
94.4084
94.4906
94.5885
94.5612
94.6518
94.7864
95.0286
95.473
95.6203
96.1574
96.2043
96.6516
96.4259
96.3764
96.4469
95.1821
94.929
94.2959
93.4179
89.7935
87.2025
87.1126
89.1375
92.4715
95.7628
94.4864
94.4441
94.5086
94.5838
94.5595
94.5837
94.616
94.6813
94.6577
94.7681
94.8898
95.0254
95.4447
95.5606
96.1954
96.3446
96.7815
96.4452
96.438
96.5404
95.1889
94.9145
94.3838
93.5779
89.7424
86.9439
86.9126
89.0223
92.4828
95.8913
94.3803
94.3346
94.4838
94.5544
94.5192
94.5641
94.6858
94.7306
94.706
94.8283
94.9278
94.99
95.4112
95.5142
96.1476
96.4314
96.9191
96.4667
96.467
96.6479
95.1963
94.889
94.4783
93.7605
89.6912
86.6562
86.6943
88.8976
92.4959
96.0311
94.4971
94.441
94.4038
94.2512
94.1847
94.382
94.6963
94.7826
94.8353
94.8887
94.9705
95.0182
95.3808
95.3894
96.1026
96.4567
97.0259
96.4952
96.5554
96.7682
95.1856
94.8485
94.5798
93.9684
89.6411
86.3367
86.4563
88.7634
92.511
96.1829
94.664
94.5355
94.3602
94.0599
94.0298
94.3124
94.7129
94.7074
94.7114
94.5389
94.8381
94.9631
95.34
95.2376
96.0077
96.6239
97.3288
96.4822
96.5279
96.8978
95.1877
94.8043
94.6854
94.2043
89.5932
85.9827
86.1976
88.6192
92.5284
96.3471
94.6027
94.4839
94.3641
94.082
94.009
94.2221
94.4314
94.5736
94.7118
94.376
94.6815
94.8966
95.3132
95.098
95.8901
96.6127
97.3411
96.4689
96.6744
97.0869
95.1551
94.6914
94.807
94.4709
89.5491
85.5907
85.9167
88.4649
92.5482
96.5241
94.5575
94.5118
94.4272
94.3563
94.238
94.2071
94.2435
94.1166
94.8942
94.6769
94.5949
94.8243
95.2857
94.9587
95.7235
96.6799
97.609
96.4384
96.6443
97.1691
95.1412
94.6512
94.9251
94.7719
89.5106
85.1573
85.6124
88.2998
92.5705
96.7144
94.6104
94.5988
94.5489
94.5501
94.4361
94.166
94.1548
93.9067
94.7652
94.792
94.5382
94.799
95.2778
94.7839
95.5584
96.835
97.9235
96.3711
96.6167
97.4515
95.0948
94.433
95.0541
95.1094
89.4792
84.6791
85.2833
88.1236
92.5958
96.9191
94.6075
94.5931
94.5785
94.5723
94.4504
94.2886
94.2386
94.4902
94.5641
94.6116
94.2073
94.8652
95.3126
94.4997
95.3547
97.0366
98.1932
96.4213
96.618
97.6122
95.0607
94.3041
95.2025
95.4842
89.4605
84.1515
84.9297
87.936
92.6245
97.1385
94.5233
94.4892
94.4479
94.4051
94.3964
94.3644
94.1864
94.2838
94.8794
94.4302
95.3802
94.5766
95.4157
94.037
94.4816
97.1199
98.2965
96.366
96.6827
97.8076
95.0275
94.1553
95.4097
95.8874
89.4467
83.5698
84.5558
87.7373
92.6576
97.3737
94.3996
94.3392
94.2861
94.1979
94.2538
94.3715
94.0575
94.0159
95.0108
94.349
93.4722
94.7695
95.6755
93.4853
93.8521
97.1256
98.5576
96.2124
96.2398
98.0915
94.9826
93.8757
95.4183
96.3107
89.4743
82.9207
84.1726
87.5301
92.6915
97.6275
94.2599
94.1704
94.1158
94.0132
94.0548
94.2894
93.8505
93.6823
94.9881
94.0686
93.058
93.6425
95.5841
93.241
93.0692
97.7109
99.5396
96.2359
96.5841
98.527
94.9415
95.1313
95.5897
96.7337
89.5043
82.5736
83.779
87.3213
92.7309
97.8985
94.1209
94.0053
93.9144
93.7949
93.7851
94.142
93.5331
93.4464
94.5338
94.1146
92.9241
93.8613
95.8954
92.534
92.3334
96.8
100.435
95.8631
95.9759
99.5351
95.3005
93.7374
95.7912
96.8099
78.3162
48.5642
70.9138
87.1112
92.779
98.1918
93.9602
93.8503
93.7213
93.6606
93.2954
93.6713
93.392
93.4429
94.0261
94.2178
93.959
93.9993
96.2861
92.1369
92.9028
96.3885
100.79
96.0651
95.9526
99.0373
95.2613
94.0664
96.8012
96.1391
63.3394
14.508
11.3548
69.1244
92.8173
98.4967
93.7028
93.644
93.5373
93.5537
93.4198
93.5324
93.787
93.7391
94.0175
94.3378
94.1254
94.9681
96.359
92.5311
92.4663
97.0965
100.922
96.9388
96.8182
99.5347
95.6908
94.1635
96.7257
96.3982
63.2394
14.9674
0.106421
11.7019
92.6599
98.7934
75.5218
75.154
75.3018
75.1369
75.1785
76.1388
81.3593
75.9469
78.9354
83.0188
89.2487
92.9265
96.8157
92.4501
92.0798
97.9291
101.172
97.7793
97.087
99.7632
95.831
85.8451
94.6706
90.7437
49.562
4.02631
0.0182264
5.71392
51.6358
98.6642
14.6852
13.0684
11.8736
10.4197
11.5291
8.50166
8.36476
12.9176
15.9654
11.503
14.401
15.1145
38.2637
29.3191
39.1927
76.763
101.597
89.7778
87.0058
99.1071
62.0453
24.8314
42.2007
39.2692
11.8139
0.265392
0.0149773
0.0404214
1.24761
97.5327
30.2983
0.664985
0.0368423
0.0169648
-0.00249994
0.0117772
0.00849488
3.66476
34.3486
89.4296
91.8557
40.422
54.982
17.7897
10.8074
2.97625
0.0251732
0.0118311
0.0308299
0.0305201
0.0237907
0.026162
0.0216328
0.0182658
0.0284982
0.0244042
0.0210936
0.0241858
0.0287493
0.0345465
-0.0183277
-0.00692854
0.0351602
0.0155742
-0.00287197
0.0116018
-0.0015645
-0.0108953
4.98066
51.756
70.9602
2.19278
0.168685
0.0643512
0.0792756
0.0558923
0.0908054
0.14418
0.0782117
0.0344254
0.0235827
0.0212588
0.0199686
0.0178472
0.0188493
0.0195324
0.0198702
0.0209115
0.0220455
0.0233607
-0.00975739
-0.00599162
0.0227307
0.0136507
-0.00350643
0.0114497
-0.00153185
-0.0117144
-0.00447153
2.72358
9.34851
2.44235
0.0370979
0.0672343
0.0765073
0.0480325
0.0175781
0.041646
0.0258974
0.0276435
0.0212964
0.0210541
0.0192817
0.0178662
0.0185409
0.0195348
0.0201404
0.0209614
0.0219096
0.0230669
-0.0105992
-0.00712044
0.0202286
0.0122463
-0.00419727
0.0113891
-0.00125533
-0.0117396
-0.0032535
-0.00556852
-0.0322704
-0.0536008
0.0285706
0.0460403
0.0496688
0.0437252
0.0245543
0.0203187
0.0161666
0.0221174
0.0204002
0.0207319
0.0198242
0.0180141
0.0186374
0.0196377
0.0202964
0.0210642
0.0220226
0.0232205
-0.0108359
-0.0064119
0.0180348
0.0107892
-0.00462893
0.0116177
-0.000973274
-0.0115208
-0.0030313
-0.00603338
-0.0295846
-0.0470975
0.0220323
0.0603178
0.0504416
0.0377685
0.0173545
0.0176186
0.0179319
0.021595
0.0198089
0.0209502
0.0197474
0.0182296
0.0187471
0.0196851
0.0203706
0.0211047
0.0220208
0.0231493
-0.0114277
-0.00570783
0.0162647
0.00937809
-0.00473687
0.0115348
-0.00055308
-0.0110221
-0.00250296
-0.00662693
-0.0292983
-0.0408449
0.0110202
0.00697913
0.00122936
0.0125655
0.0119903
0.0184195
0.0191953
0.0211413
0.0194575
0.0199499
0.0193541
0.0185179
0.0189208
0.0197262
0.0203921
0.0210862
0.0218993
0.0233681
-0.0112703
-0.00567503
0.0149334
0.00806357
-0.00443682
0.0113521
0.00014991
-0.0102133
-0.00196689
-0.00678804
-0.0284524
-0.0358711
0.00629941
0.00407909
0.000111021
0.00849817
0.0112791
0.0183786
0.0209214
0.0209137
0.0195231
0.0197342
0.0194225
0.0188472
0.0191603
0.0197932
0.0203845
0.0210102
0.0225486
0.0250646
-0.0109453
-0.00502233
0.0138881
0.00698088
-0.00385729
0.0111107
0.00119389
-0.0092027
-0.00146227
-0.00674388
-0.0269088
-0.0303623
0.00319296
0.00107817
-0.00136179
0.00466818
0.0100914
0.0197
0.0230359
0.0218951
0.0199564
0.0199277
0.0195984
0.0192084
0.0194263
0.0198705
0.0203523
0.0208664
0.0218137
0.0249642
-0.0105909
-0.00424116
0.0130031
0.00636018
-0.00302223
0.0107715
0.00245099
-0.00824134
-0.00184398
-0.00553022
-0.0244066
-0.025705
0.000558694
-0.0017879
-0.00370833
0.000544679
0.00861477
0.0189466
0.0242929
0.0249976
0.0207183
0.0202972
0.0199738
0.0195792
0.0196716
0.0199296
0.0203379
0.0207733
0.0211384
0.021552
-0.0102194
-0.00345089
0.0121978
0.00601158
-0.0020747
0.0103057
0.00362224
-0.00759623
-0.00328873
-0.00523393
-0.0219554
-0.0206237
-0.00161129
-0.00467175
-0.00668591
-0.00361676
0.00737809
0.0185072
0.0241195
0.0230059
0.0218758
0.0210564
0.0206251
0.0200187
0.01988
0.0200688
0.0202601
0.0205341
0.0206708
0.0210059
-0.0098375
-0.00265902
0.0114163
0.00590987
-0.00110432
0.00960642
0.00435364
-0.00749163
-0.00571725
-0.00892794
-0.0213454
-0.0151169
-0.00264358
-0.00737538
-0.00865212
0.00897924
0.0400241
0.0529106
0.0257174
0.0241561
0.0231936
0.02205
0.0211958
0.0203621
0.0201917
0.0200108
0.0199081
0.0198819
0.0201091
0.0203009
-0.00945002
-0.00187194
0.0106344
0.00591744
-0.000175739
0.00855376
0.00445068
-0.00809437
-0.00940023
-0.0113588
-0.022406
-0.0128384
-0.00255258
-0.00906926
-0.011236
0.0150061
0.115238
0.0910596
0.0282683
0.0255846
0.0243617
0.0227555
0.021562
0.0205792
0.0199481
0.0195467
0.0193675
0.019278
0.0193005
0.0193828
-0.00906
-0.00109593
0.00983898
0.00592252
0.000666473
0.00734061
0.0038029
-0.00946906
-0.0138144
-0.0124837
-0.0229816
-0.0133524
-0.00343062
-0.0112384
-0.0125462
-0.010039
0.0122753
0.0884435
0.029399
0.0259567
0.0252019
0.0234983
0.0219521
0.0206647
0.0197347
0.0191042
0.0187161
0.0185714
0.0184294
0.0183553
-0.0086693
-0.000349457
0.00903395
0.00586793
0.00139714
0.00639499
0.00339117
-0.0115679
-0.0170901
-0.0132344
-0.0217132
-0.0120867
-0.00420208
-0.0127619
-0.0132599
-0.0096081
0.00424342
0.0926615
0.0531157
0.0257167
0.0257939
0.0239784
0.0221248
0.0205154
0.0192954
0.0184275
0.017845
0.0175744
0.017393
0.0172308
-0.00827832
0.000364297
0.00820984
0.00573896
0.00199516
0.00576276
0.0030699
-0.0125005
-0.0175419
-0.0132532
-0.0194716
-0.0105485
-0.00689605
-0.0130028
-0.0134805
-0.00892512
0.0119759
0.0932714
0.0927599
0.0270829
0.0260911
0.0240847
0.0219452
0.0200382
0.0185499
0.0174888
0.0167953
0.0163569
0.0160949
0.0159442
-0.00788598
0.00100702
0.00739991
0.00554459
0.00245545
0.00514692
0.00258561
-0.0131533
-0.0152841
-0.0126221
-0.0160678
-0.0091604
-0.00823689
-0.0124263
-0.0120324
-0.00700884
0.00808552
0.0929812
0.0964857
0.0546743
0.025979
0.0235236
0.0213261
0.0191779
0.0174298
0.016158
0.0154305
0.0149809
0.0147037
0.014593
-0.00748986
0.00157179
0.00660519
0.00529841
0.00278091
0.00444921
0.00194237
-0.0137612
-0.0135149
-0.0120184
-0.0118567
-0.00779452
-0.00871678
-0.0114087
-0.00999477
-0.00441233
0.00252477
0.0375053
0.0953803
0.0982947
0.0330568
0.0224047
0.0202982
0.0180041
0.0180958
0.0167638
0.014929
0.014016
0.0136234
0.0136622
-0.00708699
0.00205027
0.00583147
0.00501183
0.00297623
0.00372189
0.00134535
-0.0136126
-0.0137242
-0.011965
-0.00915089
-0.00789576
-0.00906399
-0.010922
-0.00841558
-0.00227634
0.00473111
0.0122547
0.0898577
0.100234
0.0867439
0.0201755
0.0182963
0.0162533
0.0155617
0.0146881
0.0161125
0.0160107
0.015584
0.0149983
-0.00667463
0.00243439
0.00508745
0.00469302
0.0030446
0.00302217
0.000869217
-0.0122512
-0.0147217
-0.0123351
-0.00902222
-0.0099615
-0.0097989
-0.0114113
-0.00826166
-0.001997
0.00366566
0.00775411
0.0153208
0.0613293
0.0938472
0.0415982
0.0148758
0.014258
0.0133305
0.012624
0.0121077
0.011503
0.0108667
0.0111765
-0.00625054
0.00271646
0.00438381
0.00434852
0.0029958
0.00238777
0.000492195
-0.0101148
-0.0140853
-0.0107494
-0.00842149
-0.0109863
-0.0117382
-0.0130933
-0.0097415
-0.00315253
0.00221517
0.00572373
0.00569422
0.00520641
0.0390061
0.0870371
0.0271807
0.0131729
0.013151
0.0134003
0.0140602
0.0360307
0.0562889
0.059369
-0.00581257
0.00288623
0.00373538
0.00398376
0.0028589
0.00183081
0.000214768
-0.0078361
-0.0104949
-0.00600477
-0.00501931
-0.00927101
-0.014087
-0.0159159
-0.0121633
-0.0046837
0.00119537
0.00488988
0.00597074
0.00632751
0.00727586
0.0206706
0.0200548
0.0129272
0.0122833
0.0196803
0.0494079
0.0581397
0.0585668
0.0588189
-0.00535764
0.00294969
0.00314046
0.00360295
0.00265723
0.00135907
3.88739e-05
-0.00585876
-0.00682555
-0.00187413
-0.000911083
-0.00714067
-0.0162962
-0.0190214
-0.0145588
-0.00598841
0.000668509
0.00490938
0.00706235
0.010057
0.0123732
0.011676
0.0111746
0.0104878
0.0103799
0.0131379
0.0521456
0.0598418
0.0594887
0.0592006
-0.00488272
0.0029265
0.00258295
0.00320949
0.00240981
0.000972434
-4.13944e-05
-0.00436706
-0.00422698
-7.81321e-05
0.00115161
-0.00618436
-0.0178857
-0.0220563
-0.0164297
-0.0067367
0.000278299
0.00459673
0.00716262
0.0102311
0.00993756
0.00872743
0.00859356
0.00868409
0.00862882
0.00843494
0.014277
0.0231293
0.0224759
0.0186403
-0.00438313
0.00282026
0.00206404
0.00280637
0.00213152
0.000665206
-4.41811e-05
-0.0032975
-0.00283052
-6.41188e-05
0.0002473
-0.00591961
-0.016327
-0.0206357
-0.0148339
-0.00592402
0.000351165
0.00391426
0.00617083
0.0069441
0.00732629
0.00755567
0.0077125
0.00791035
0.00810431
0.00811207
0.00815041
0.00823009
0.00851088
0.00888143
-0.00385301
0.00263602
0.00158266
0.00239567
0.0018317
0.00042791
4.03531e-05
-0.00256474
-0.00196023
-0.000596279
-0.000295877
-0.00429645
-0.0115823
-0.0124612
-0.00951365
-0.00376849
0.000166204
0.00310064
0.00468953
0.00557267
0.00613773
0.00653972
0.00689187
0.00723763
0.00755099
0.00784089
0.00811892
0.00839783
0.00869584
0.00897769
-0.00328618
0.00235024
0.00116829
0.00197929
0.00151702
0.000245553
9.84978e-05
-0.00195356
-0.00132749
-0.000865538
-0.000691399
-0.00303812
-0.00531057
-0.00710357
-0.00538139
-0.00201198
0.000468158
0.00246627
0.00364082
0.00447319
0.00505695
0.00549833
0.00586793
0.00620015
0.00653184
0.00720786
0.00731815
0.00753135
0.00788483
0.00825789
-0.00267347
0.00200234
0.00077874
0.00155553
0.00119167
9.80975e-05
0.000156064
-0.00143258
-0.000865612
-0.000827485
-0.000718529
-0.00204239
-0.00372234
-0.00449905
-0.0028574
-0.000831743
0.00068726
0.00204113
0.00281285
0.00354964
0.00408817
0.00450357
0.00484488
0.00514021
0.00556146
0.00597241
0.00618844
0.00618498
0.00634816
0.00648188
-0.0020085
0.00155702
0.000451535
0.00112325
0.000858447
2.0628e-05
0.000158147
-0.000974983
-0.000518778
-0.000631217
-0.000520488
-0.00110712
-0.00224683
-0.00253281
-0.00151169
-0.000339459
0.000615184
0.00147385
0.00214334
0.00270254
0.00316873
0.00357617
0.00396537
0.00436897
0.00504185
0.00547828
0.005851
0.00612683
0.00629317
0.0082377
-0.0012869
0.000997503
0.00019948
0.000681193
0.000519532
-1.0798e-05
0.000118023
-0.000564395
-0.000261549
-0.000375518
-0.000283772
-0.000523675
-0.000972209
-0.00118583
-0.000642183
-7.2641e-05
0.000467866
0.000981137
0.00144515
0.00188455
0.00228983
0.0026719
0.0030619
0.00344964
0.00389046
0.00430972
0.00467011
0.00475833
0.0046889
0.00448761
-0.000507124
0.000339507
-5.60509e-06
0.000218068
0.000163927
-1.4948e-05
4.7118e-05
-0.000170973
-4.19494e-05
-8.40847e-05
-5.34696e-05
-0.000125842
-0.000267308
-0.000357914
-0.000189123
-4.41517e-05
9.78175e-05
0.00023112
0.000359018
0.000490236
0.000622689
0.000755448
0.000883328
0.000994753
0.00107253
0.0011034
0.0010979
0.0009938
0.000784078
0.000504385
0.0389757
0.0372007
0.0332442
0.0270293
0.0270003
0.0339097
0.0309867
0.0270634
0.0294448
0.02286
0.0131217
0.00488211
-0.00764789
-0.0109431
0.0145588
4.25437
49.6055
21.9213
15.9225
51.2965
5.1392
-0.0118045
0.190584
0.0845362
0.0204284
-0.000244109
0.0128014
0.0400648
0.681351
30.2863
0.0248704
0.0260847
0.0269187
0.0267191
0.0269326
0.0289245
0.0290867
0.0271496
0.0252302
0.0207318
0.0142223
0.00651602
-0.00193751
-0.00621821
0.00859031
0.00907682
0.5882
0.00666879
-0.00377711
2.65054
-0.0142913
-0.0131021
-0.0118012
-0.000880441
0.0174259
1.15022e-05
0.0120051
0.0375304
-0.00203046
-0.0216854
0.0244009
0.0256376
0.0265598
0.026617
0.026901
0.0285733
0.0285068
0.0264479
0.0249974
0.0207863
0.0135385
0.00589542
-0.00230626
-0.00556217
0.00792889
0.0091711
0.00769909
0.00753673
-0.00313858
-0.00377336
-0.010538
-0.0131281
-0.0117084
-0.000650357
0.0168775
-0.000431765
0.0107739
0.022566
-0.00091305
-0.0132524
0.0244627
0.0255398
0.0261002
0.0263563
0.0264546
0.028171
0.0272946
0.0258819
0.0247733
0.0205651
0.0130845
0.00502703
-0.00340683
-0.00612199
0.00719154
0.00905861
0.00770242
0.00716276
-0.00359346
-0.00374389
-0.0107681
-0.012979
-0.0115232
-0.000246156
0.016403
-0.000920945
0.0103759
0.0186929
-0.00214894
-0.0140888
0.0242383
0.0252281
0.0259772
0.0266563
0.027564
0.027114
0.0266718
0.0255028
0.024277
0.0202115
0.0125949
0.00409054
-0.00413247
-0.0063042
0.00581592
0.00848335
0.00771881
0.00726388
-0.00363757
-0.00368547
-0.0106796
-0.0127032
-0.0111261
0.000272702
0.0159981
-0.0013313
0.0102579
0.0149835
-0.00142423
-0.0143209
0.025291
0.0264069
0.0273946
0.0282671
0.0269012
0.026278
0.026048
0.0250134
0.023554
0.0194965
0.0118057
0.00291989
-0.0051827
-0.00709384
0.00478306
0.0086456
0.00820029
0.00702797
-0.00451565
-0.00398929
-0.0104062
-0.0123001
-0.0104874
0.000907742
0.0157914
-0.00162777
0.0102522
0.0117802
-0.00154268
-0.0149229
0.0255802
0.0263056
0.0266336
0.0249988
0.0253586
0.025682
0.0253735
0.0243605
0.0226072
0.0184215
0.0106746
0.00152899
-0.00648114
-0.00794236
0.00387248
0.00889195
0.00865478
0.00691007
-0.00473883
-0.00400922
-0.0101459
-0.0117887
-0.0096259
0.00169193
0.0158285
-0.00170952
0.0103641
0.00945876
-0.0015037
-0.0148845
0.0248705
0.0235299
0.0240045
0.024368
0.0247918
0.0249542
0.0245712
0.0235087
0.0214451
0.0170641
0.00957583
0.000464103
-0.00776666
-0.00887237
0.00302714
0.0090885
0.00897359
0.00684425
-0.00496639
-0.00403173
-0.00997917
-0.0112662
-0.00860534
0.00262575
0.0160264
-0.00155181
0.0105806
0.00807887
-0.000774436
-0.014582
0.0220784
0.0226263
0.0232093
0.0236177
0.023933
0.0239979
0.0235693
0.0224384
0.0201083
0.0159727
0.00921346
0.000112026
-0.00885206
-0.00965984
0.00222536
0.00910936
0.00944547
0.00656111
-0.00507487
-0.0040676
-0.00998841
-0.0108876
-0.00756543
0.00360885
0.0161737
-0.00125892
0.0108276
0.00730082
-2.40668e-05
-0.0142486
0.02141
0.0218104
0.0222008
0.022577
0.0228323
0.0227939
0.0223386
0.0211736
0.0186947
0.0149824
0.0079432
-0.000963918
-0.00941649
-0.00991087
0.00141063
0.00891016
0.00972251
0.00607632
-0.00499854
-0.00413249
-0.0103227
-0.0108168
-0.00672795
0.00443936
0.0160011
-0.000964321
0.0110824
0.00676391
0.000744819
-0.0138969
0.0204829
0.020777
0.0210624
0.0212983
0.0214951
0.0214559
0.0209334
0.0197984
0.0173427
0.013247
0.00696693
-0.00141042
-0.0090744
-0.00951583
0.000792431
0.00852066
0.0101435
0.00518066
-0.00477656
-0.00422413
-0.0111479
-0.0111145
-0.00634537
0.00494874
0.0153243
-0.000723497
0.0113976
0.00626597
0.00152563
-0.0135338
0.0194748
0.0195934
0.0197333
0.0198641
0.0199583
0.0199049
0.0195259
0.0184357
0.0161972
0.0120384
0.00671129
-0.00094722
-0.00779701
-0.00831639
0.000478134
0.0078234
0.00970063
0.00387867
-0.0044667
-0.00436193
-0.0125456
-0.0115926
-0.00647998
0.0051371
0.0142313
-0.000423044
0.0117005
0.00572048
0.00231474
-0.0131636
0.0183271
0.018329
0.0183527
0.0183998
0.0184339
0.0183848
0.0181103
0.0172709
0.0153737
0.0117832
0.00696174
0.000640697
-0.005254
-0.00630331
0.00038352
0.00649057
0.00851022
0.00294577
-0.00397468
-0.0045401
-0.0144064
-0.0118395
-0.00670591
0.00507493
0.0130969
-0.000139042
0.0120042
0.00512073
0.00310405
-0.0127885
0.0171408
0.0170817
0.0170347
0.0170369
0.0170624
0.0170509
0.0169051
0.0163817
0.0149489
0.0121543
0.00843874
0.00332874
-0.00129984
-0.00296517
0.000294575
0.0048029
0.00680974
0.00267353
-0.0029167
-0.0047263
-0.0163683
-0.0117895
-0.00640691
0.00479759
0.012099
0.000107173
0.0122326
0.00445397
0.00389725
-0.0124094
0.0158503
0.0158016
0.0157843
0.015805
0.0159151
0.0159837
0.0159755
0.0157408
0.0148203
0.0128567
0.00986626
0.00656245
0.00252117
0.000522053
-1.53427e-05
0.00285186
0.00512947
0.00315446
-0.001194
-0.00493973
-0.0177818
-0.0118081
-0.00546088
0.00442152
0.0111793
0.000297929
0.0123273
0.00376069
0.00464896
-0.0120251
0.0145852
0.0146265
0.0146947
0.0147822
0.0148908
0.0150216
0.0151656
0.0152056
0.0147621
0.0135864
0.0112761
0.00819146
0.00461688
0.000968326
-0.000557966
0.00102211
0.00415647
0.00426255
0.000947317
-0.00528361
-0.0182449
-0.0122601
-0.00441257
0.00400509
0.0102529
0.000427277
0.0122688
0.00304851
0.00534231
-0.0116327
0.0135207
0.0135732
0.0137696
0.0139478
0.0141483
0.0143588
0.0145584
0.0146821
0.0145705
0.0139291
0.0124312