/*--------------------------------*- C++ -*----------------------------------*\
| =========                 |                                                 |
| \\      /  F ield         | OpenFOAM: The Open Source CFD Toolbox           |
|  \\    /   O peration     | Version:  2.4.0                                 |
|   \\  /    A nd           | Web:      www.OpenFOAM.org                      |
|    \\/     M anipulation  |                                                 |
\*---------------------------------------------------------------------------*/
FoamFile
{
    version     2.0;
    format      ascii;
    class       surfaceScalarField;
    location    "0.182";
    object      phiAlpha;
}
// * * * * * * * * * * * * * * * * * * * * * * * * * * * * * * * * * * * * * //

dimensions      [0 3 -1 0 0 0 0];

internalField   nonuniform List<scalar> 
7080
(
3.37474e-08
-3.37474e-08
6.73683e-08
-3.36209e-08
8.95369e-08
-2.21686e-08
9.42622e-08
-4.72528e-09
8.62513e-08
8.01092e-09
6.23409e-08
2.39104e-08
3.75863e-08
2.47546e-08
1.57411e-08
2.18453e-08
-1.81894e-09
1.756e-08
-1.07143e-08
8.89539e-09
-1.28569e-08
2.14258e-09
-2.44057e-08
1.15488e-08
-3.02713e-08
5.86572e-09
-3.80922e-08
7.82088e-09
-4.17161e-08
3.62388e-09
-2.25913e-08
-1.91248e-08
1.11688e-08
-3.36853e-08
2.39985e-08
-1.28299e-08
1.6204e-08
7.79444e-09
-3.41845e-08
5.03969e-08
-1.38096e-07
1.04585e-07
-1.94012e-07
5.72863e-08
-1.83831e-07
-1.02052e-08
-1.82358e-07
-1.49453e-09
-1.72088e-07
-1.02904e-08
-1.35512e-07
-3.71536e-08
-9.28357e-08
-4.33218e-08
-5.95828e-08
-3.35652e-08
-3.13784e-08
-2.84925e-08
-2.69172e-08
-4.72101e-09
3.18941e-08
-6.56415e-08
7.8092e-08
-7.98188e-08
1.17836e-07
-6.19129e-08
1.36551e-07
-2.34402e-08
1.40502e-07
4.06027e-09
1.25033e-07
3.93791e-08
1.02884e-07
4.69041e-08
8.17567e-08
4.29722e-08
5.8421e-08
4.08958e-08
4.43759e-08
2.29405e-08
3.76951e-08
8.82338e-09
1.60036e-08
3.32403e-08
7.72686e-09
1.41425e-08
-2.24256e-08
3.79734e-08
-3.3843e-08
1.50413e-08
-3.16876e-08
-2.12787e-08
-2.56654e-08
-3.96026e-08
-1.5378e-08
-2.31148e-08
-6.18545e-08
5.43126e-08
-1.76955e-07
1.65545e-07
-2.92519e-07
2.20527e-07
-3.09385e-07
7.44939e-08
-2.77868e-07
-4.16286e-08
-2.50565e-07
-2.88795e-08
-2.06854e-07
-5.43241e-08
-1.51544e-07
-9.24602e-08
-1.02935e-07
-9.19277e-08
-6.77708e-08
-6.87254e-08
-3.35454e-08
-6.27444e-08
-5.78804e-08
-2.60936e-09
2.65934e-08
-9.22349e-08
7.3204e-08
-1.26429e-07
1.1602e-07
-1.04729e-07
1.37929e-07
-4.53491e-08
1.45782e-07
-3.79202e-09
1.3524e-07
4.99204e-08
1.17076e-07
6.50686e-08
1.02152e-07
5.78961e-08
7.99218e-08
6.3126e-08
7.07382e-08
3.2124e-08
6.66588e-08
1.29029e-08
4.63518e-08
5.35472e-08
4.89815e-08
1.15129e-08
1.68437e-08
7.01113e-08
4.58758e-09
2.72975e-08
-4.04955e-09
-1.26404e-08
-3.72254e-08
-6.46541e-09
-6.17376e-08
1.24659e-09
-1.33945e-07
1.26403e-07
-2.48004e-07
2.79644e-07
-3.18533e-07
2.91142e-07
-3.01237e-07
5.73377e-08
-2.66141e-07
-7.69555e-08
-2.28501e-07
-6.63785e-08
-1.77253e-07
-1.05429e-07
-1.25738e-07
-1.43862e-07
-8.43697e-08
-1.33262e-07
-5.92439e-08
-9.38456e-08
-3.25082e-08
-8.94794e-08
-8.48054e-08
-5.58282e-09
2.4651e-08
-1.16886e-07
7.11932e-08
-1.72972e-07
1.14464e-07
-1.48e-07
1.36814e-07
-6.76989e-08
1.45267e-07
-1.22453e-08
1.35502e-07
5.9686e-08
1.18193e-07
8.23775e-08
1.05815e-07
7.02744e-08
8.3046e-08
8.58946e-08
7.85035e-08
3.66664e-08
7.2124e-08
1.92824e-08
5.91611e-08
6.65101e-08
7.70714e-08
-6.39736e-09
4.83486e-08
9.8834e-08
3.44683e-08
4.11778e-08
1.88195e-08
3.00843e-09
-4.39273e-08
5.63119e-08
-9.99231e-08
5.72329e-08
-1.74206e-07
2.00727e-07
-2.45526e-07
3.51004e-07
-2.66775e-07
3.12466e-07
-2.54394e-07
4.48413e-08
-2.37591e-07
-9.38623e-08
-1.94949e-07
-1.09118e-07
-1.50312e-07
-1.50157e-07
-1.18222e-07
-1.76036e-07
-8.36347e-08
-1.68016e-07
-4.58174e-08
-1.31627e-07
-2.76025e-08
-1.07692e-07
-1.01241e-07
-1.116e-08
2.40716e-08
-1.40957e-07
7.08126e-08
-2.19713e-07
1.1442e-07
-1.91607e-07
1.36997e-07
-9.02766e-08
1.45532e-07
-2.07805e-08
1.35466e-07
6.97523e-08
1.18065e-07
9.97787e-08
1.06304e-07
8.20352e-08
8.19633e-08
1.10236e-07
8.05992e-08
3.80305e-08
6.56999e-08
3.41818e-08
6.40473e-08
6.81626e-08
9.4923e-08
-3.7273e-08
6.90402e-08
1.24717e-07
6.08548e-08
4.93633e-08
4.39426e-08
1.99206e-08
-3.77096e-08
1.37964e-07
-1.16455e-07
1.35965e-07
-1.7327e-07
2.57566e-07
-1.8994e-07
3.67598e-07
-1.77072e-07
2.99466e-07
-1.54913e-07
2.25665e-08
-1.22758e-07
-1.26353e-07
-7.65919e-08
-1.55619e-07
-4.67621e-08
-1.80253e-07
-3.4583e-08
-1.8851e-07
-3.29222e-08
-1.69871e-07
-2.02902e-08
-1.44434e-07
-1.62394e-08
-1.11724e-07
-1.00498e-07
-1.69602e-08
2.37835e-08
-1.64741e-07
7.07791e-08
-2.66708e-07
1.14809e-07
-2.35637e-07
1.37693e-07
-1.1316e-07
1.46306e-07
-2.93936e-08
1.35737e-07
8.03209e-08
1.18196e-07
1.1732e-07
1.06411e-07
9.382e-08
8.08613e-08
1.35785e-07
8.10687e-08
3.78231e-08
5.71898e-08
5.80607e-08
6.53298e-08
6.00227e-08
9.59428e-08
-6.7886e-08
7.85553e-08
1.42104e-07
8.58458e-08
4.20728e-08
7.34288e-08
3.23376e-08
-3.60563e-09
2.14999e-07
-8.46712e-08
2.17031e-07
-1.18316e-07
2.91543e-07
-1.12389e-07
3.61517e-07
-9.55346e-08
2.82475e-07
-6.96187e-08
-3.45332e-09
-2.28492e-08
-1.73067e-07
3.0808e-08
-2.09227e-07
6.02787e-08
-2.0961e-07
5.25926e-08
-1.8075e-07
2.43036e-08
-1.41689e-07
2.07463e-10
-1.2048e-07
-8.88136e-09
-1.02639e-07
-9.08234e-08
-1.85871e-08
2.3502e-08
-1.88243e-07
7.07827e-08
-3.13989e-07
1.15327e-07
-2.80182e-07
1.38595e-07
-1.36428e-07
1.47314e-07
-3.81127e-08
1.36127e-07
9.15077e-08
1.18536e-07
1.34912e-07
1.06412e-07
1.05944e-07
8.05566e-08
1.61641e-07
8.13576e-08
3.70221e-08
5.42839e-08
8.51344e-08
6.37845e-08
5.0522e-08
6.93092e-08
-7.34107e-08
6.92943e-08
1.42119e-07
1.02323e-07
9.04405e-09
9.21057e-08
4.2555e-08
3.48584e-08
2.72246e-07
-4.15329e-08
2.93422e-07
-7.4217e-08
3.24555e-07
-4.57526e-08
3.34059e-07
-8.90262e-09
2.46215e-07
2.78999e-08
-4.02437e-08
5.7513e-08
-2.02702e-07
9.10065e-08
-2.42634e-07
1.03098e-07
-2.21713e-07
9.55952e-08
-1.73056e-07
7.56649e-08
-1.21758e-07
3.99841e-08
-8.47994e-08
8.70263e-09
-7.13801e-08
-6.7439e-08
-1.46776e-08
2.31669e-08
-2.1141e-07
7.0775e-08
-3.61597e-07
1.15929e-07
-3.25336e-07
1.3966e-07
-1.60159e-07
1.48507e-07
-4.69597e-08
1.36577e-07
1.03437e-07
1.1901e-07
1.52479e-07
1.06248e-07
1.18706e-07
8.11569e-08
1.86731e-07
8.20236e-08
3.61554e-08
5.89141e-08
1.08244e-07
6.2712e-08
4.67241e-08
3.24652e-08
-4.31638e-08
4.33379e-08
1.31247e-07
9.11679e-08
-3.8786e-08
7.88704e-08
5.48525e-08
5.32973e-08
2.97819e-07
7.85813e-09
3.38861e-07
-1.39843e-08
3.46456e-07
1.68529e-08
3.03582e-07
8.38303e-08
1.79555e-07
1.21606e-07
-7.80061e-08
1.30459e-07
-2.11609e-07
1.33021e-07
-2.45241e-07
1.21884e-07
-2.10613e-07
1.05546e-07
-1.56778e-07
8.62012e-08
-1.02403e-07
5.8406e-08
-5.70039e-08
2.52105e-08
-3.81844e-08
-3.96602e-08
-2.57749e-09
2.27649e-08
-2.34175e-07
7.07476e-08
-4.0958e-07
1.16608e-07
-3.71196e-07
1.40889e-07
-1.8444e-07
1.4988e-07
-5.59505e-08
1.37091e-07
1.16226e-07
1.19569e-07
1.70001e-07
1.05865e-07
1.3241e-07
8.25878e-08
2.10009e-07
8.1678e-08
3.70652e-08
6.86221e-08
1.213e-07
6.94357e-08
4.59105e-08
1.92191e-08
7.05281e-09
2.01768e-08
1.30289e-07
5.12528e-08
-6.9862e-08
5.34238e-08
5.26815e-08
5.88135e-08
2.92429e-07
5.75623e-08
3.40112e-07
8.11275e-08
3.22891e-07
1.17389e-07
2.67276e-07
1.72212e-07
1.24696e-07
1.89469e-07
-9.53893e-08
1.74717e-07
-1.96912e-07
1.52981e-07
-2.23562e-07
1.29249e-07
-1.87006e-07
1.03906e-07
-1.31437e-07
8.13435e-08
-7.984e-08
5.50718e-08
-3.07319e-08
2.8022e-08
-1.11355e-08
-1.58812e-08
4.24017e-09
2.22902e-08
-2.56465e-07
7.06962e-08
-4.57986e-07
1.17359e-07
-4.17858e-07
1.4229e-07
-2.09371e-07
1.51435e-07
-6.50957e-08
1.37686e-07
1.29974e-07
1.20131e-07
1.87556e-07
1.05482e-07
1.47059e-07
8.38322e-08
2.31659e-07
7.86428e-08
4.22546e-08
7.82132e-08
1.2173e-07
7.84346e-08
4.56891e-08
2.47652e-08
6.07223e-08
1.61954e-08
1.38859e-07
2.97359e-08
-8.34025e-08
5.20714e-08
3.0346e-08
7.55558e-08
2.68945e-07
8.5604e-08
3.30064e-07
1.41566e-07
2.66929e-07
1.90306e-07
2.18535e-07
2.22969e-07
9.17636e-08
2.08739e-07
-8.1309e-08
1.77492e-07
-1.65742e-07
1.45115e-07
-1.91178e-07
1.17504e-07
-1.59396e-07
8.97774e-08
-1.03713e-07
6.3842e-08
-5.39073e-08
4.11718e-08
-8.06085e-09
2.08086e-08
9.2272e-09
1.03111e-09
3.89343e-09
2.17384e-08
-2.78203e-07
7.06166e-08
-5.06864e-07
1.18168e-07
-4.65409e-07
1.43869e-07
-2.35072e-07
1.53179e-07
-7.4406e-08
1.38357e-07
1.44797e-07
1.20681e-07
2.05232e-07
1.0537e-07
1.62371e-07
8.39015e-08
2.53127e-07
7.40905e-08
5.20656e-08
8.46547e-08
1.11165e-07
7.92934e-08
5.10504e-08
3.47549e-08
1.05261e-07
3.01659e-08
1.43448e-07
3.63169e-08
-8.95535e-08
5.9788e-08
6.87482e-09
8.74162e-08
2.41317e-07
9.83522e-08
3.19128e-07
1.4254e-07
2.22741e-07
1.86514e-07
1.74529e-07
1.99836e-07
7.84033e-08
1.72564e-07
-5.40221e-08
1.5974e-07
-1.52918e-07
1.36367e-07
-1.67805e-07
1.10996e-07
-1.34025e-07
8.14162e-08
-7.41356e-08
5.04534e-08
-2.29467e-08
2.90207e-08
1.33731e-08
1.58324e-08
2.24144e-08
1.01919e-08
6.67304e-09
2.11047e-08
-2.99308e-07
7.05033e-08
-5.56263e-07
1.19014e-07
-5.1392e-07
1.45634e-07
-2.61693e-07
1.55121e-07
-8.38922e-08
1.39087e-07
1.60831e-07
1.21288e-07
2.2303e-07
1.05606e-07
1.78053e-07
8.26093e-08
2.76124e-07
7.13916e-08
6.32833e-08
8.78792e-08
9.46778e-08
7.19829e-08
6.69467e-08
4.32704e-08
1.33973e-07
4.9371e-08
1.37347e-07
5.76053e-08
-9.77879e-08
6.76291e-08
-3.14899e-09
8.36005e-08
2.25345e-07
1.05668e-07
2.97061e-07
1.27542e-07
2.00867e-07
1.58293e-07
1.43774e-07
1.70064e-07
6.66399e-08
1.66073e-07
-5.00309e-08
1.66733e-07
-1.53577e-07
1.44367e-07
-1.45439e-07
1.13764e-07
-1.03422e-07
7.46681e-08
-3.50451e-08
3.8506e-08
1.32151e-08
2.39273e-08
2.79529e-08
1.49435e-08
3.13972e-08
1.52405e-08
9.89636e-09
2.03837e-08
-3.19692e-07
7.03494e-08
-6.06229e-07
1.19911e-07
-5.63481e-07
1.47594e-07
-2.89376e-07
1.57263e-07
-9.35611e-08
1.39866e-07
1.78227e-07
1.22046e-07
2.4085e-07
1.05944e-07
1.94155e-07
8.09057e-08
3.01162e-07
7.00547e-08
7.41343e-08
9.03069e-08
7.44256e-08
6.62617e-08
9.09919e-08
5.17972e-08
1.48438e-07
6.6528e-08
1.22617e-07
7.35453e-08
-1.04805e-07
7.32547e-08
-2.85846e-09
6.60789e-08
2.32521e-07
9.82673e-08
2.64873e-07
1.25003e-07
1.74131e-07
1.44738e-07
1.24041e-07
1.62669e-07
4.87095e-08
1.67296e-07
-5.4658e-08
1.48934e-07
-1.35215e-07
1.22457e-07
-1.18963e-07
9.45287e-08
-7.54935e-08
7.0388e-08
-1.09044e-08
4.88172e-08
3.4786e-08
2.96455e-08
4.71246e-08
1.55934e-08
4.54481e-08
1.37348e-08
1.70995e-08
1.95689e-08
-3.39261e-07
7.01467e-08
-6.56806e-07
1.20894e-07
-6.14228e-07
1.49757e-07
-3.18238e-07
1.59612e-07
-1.03417e-07
1.40703e-07
1.97137e-07
1.22944e-07
2.58609e-07
1.06425e-07
2.10674e-07
7.89401e-08
3.28647e-07
6.8569e-08
8.45055e-08
9.23532e-08
5.06415e-08
6.46966e-08
1.18649e-07
5.10347e-08
1.621e-07
7.2597e-08
1.01054e-07
6.97568e-08
-1.01965e-07
7.83967e-08
-1.14983e-08
7.42838e-08
2.36634e-07
9.45397e-08
2.44617e-07
1.19281e-07
1.4939e-07
1.37288e-07
1.06034e-07
1.54367e-07
3.1631e-08
1.46561e-07
-4.68526e-08
1.18699e-07
-1.07353e-07
9.81937e-08
-9.84571e-08
8.28779e-08
-6.01768e-08
6.85203e-08
3.45426e-09
4.43721e-08
5.89341e-08
1.01581e-08
8.13385e-08
9.06401e-09
4.65411e-08
-8.62565e-10
2.36621e-08
1.86532e-08
-3.57914e-07
6.98868e-08
-7.0804e-07
1.21981e-07
-6.66323e-07
1.52132e-07
-3.48389e-07
1.6218e-07
-1.13465e-07
1.41579e-07
2.17738e-07
1.23991e-07
2.76198e-07
1.07239e-07
2.27426e-07
7.67853e-08
3.59101e-07
6.4979e-08
9.63118e-08
9.4519e-08
2.11016e-08
7.25059e-08
1.40662e-07
6.30349e-08
1.71571e-07
8.01531e-08
8.3936e-08
7.00606e-08
-9.18723e-08
9.32084e-08
-3.46462e-08
8.56167e-08
2.44226e-07
8.48814e-08
2.45352e-07
1.10413e-07
1.23858e-07
1.25136e-07
9.1311e-08
1.25835e-07
3.09318e-08
1.17118e-07
-3.81353e-08
9.03885e-08
-8.0624e-08
4.55326e-08
-5.36011e-08
3.66637e-09
-1.83135e-08
-1.34754e-08
2.05938e-08
-2.80663e-08
7.3525e-08
-2.73238e-08
8.0596e-08
-2.53298e-09
2.17522e-08
-1.28286e-08
9.43327e-09
1.76281e-08
-3.75542e-07
6.95602e-08
-7.59972e-07
1.23177e-07
-7.1994e-07
1.54737e-07
-3.79949e-07
1.64972e-07
-1.237e-07
1.42474e-07
2.40236e-07
1.25174e-07
2.93498e-07
1.08619e-07
2.43981e-07
7.34572e-08
3.94263e-07
6.08806e-08
1.08888e-07
9.89544e-08
-1.69722e-08
7.56987e-08
1.63917e-07
2.33704e-08
2.23899e-07
4.27738e-08
6.45326e-08
7.29468e-08
-1.22045e-07
1.14604e-07
-7.63037e-08
1.13345e-07
2.45485e-07
1.06915e-07
2.51782e-07
1.21398e-07
1.09376e-07
1.06769e-07
1.05939e-07
1.16808e-07
2.08934e-08
1.29759e-07
-5.10864e-08
1.05228e-07
-5.60935e-08
6.39195e-08
-1.22924e-08
1.35462e-08
3.20597e-08
-2.20635e-08
5.62003e-08
-3.37945e-08
8.52452e-08
-2.95232e-08
7.63146e-08
-2.59821e-08
1.82095e-08
-8.35848e-09
-3.04507e-08
1.64842e-08
-3.92026e-07
6.91555e-08
-8.12643e-07
1.24476e-07
-7.7526e-07
1.5759e-07
-4.13064e-07
1.67977e-07
-1.34087e-07
1.43321e-07
2.64892e-07
1.26696e-07
3.10124e-07
1.10059e-07
2.60617e-07
6.87188e-08
4.35603e-07
5.97721e-08
1.17835e-07
1.06214e-07
-6.34136e-08
8.62155e-08
1.83915e-07
5.34194e-08
2.56695e-07
6.52282e-08
5.27238e-08
8.71749e-08
-1.43992e-07
1.34922e-07
-1.24051e-07
1.55781e-07
2.24626e-07
1.41287e-07
2.66276e-07
9.94947e-08
1.51168e-07
8.23499e-08
1.23084e-07
1.11911e-07
-8.66747e-09
1.02598e-07
-4.17739e-08
6.35856e-08
-1.70809e-08
5.08962e-08
3.97097e-10
4.12992e-08
4.16566e-08
1.40593e-08
8.34462e-08
2.50143e-09
9.68003e-08
2.85192e-09
7.59617e-08
-1.27031e-08
3.37618e-08
1.482e-08
-3.588e-08
1.52117e-08
-4.07238e-07
6.86532e-08
-8.66085e-07
1.25862e-07
-8.32469e-07
1.60714e-07
-4.47915e-07
1.71112e-07
-1.44485e-07
1.44174e-07
2.91831e-07
1.28492e-07
3.25805e-07
1.13361e-07
2.75748e-07
6.19872e-08
4.86976e-07
5.48037e-08
1.25019e-07
1.13976e-07
-1.22585e-07
7.84873e-08
2.19404e-07
1.64292e-08
3.18754e-07
2.99425e-08
3.92105e-08
7.17655e-08
-1.85815e-07
1.25774e-07
-1.78059e-07
1.24007e-07
2.26392e-07
1.09807e-07
2.80477e-07
8.75625e-08
1.73412e-07
7.79295e-08
1.32717e-07
7.15887e-08
-2.32661e-09
1.07091e-08
1.91049e-08
-2.45071e-08
1.81358e-08
-5.36276e-09
-1.87468e-08
2.75279e-08
8.76519e-09
3.83868e-08
7.25867e-08
4.6791e-08
8.84037e-08
5.19191e-08
7.08313e-08
3.59992e-08
4.96875e-08
4.44322e-08
6.38876e-09
1.38045e-08
-4.21042e-07
6.80025e-08
-9.20283e-07
1.27296e-07
-8.91763e-07
1.64058e-07
-4.84677e-07
1.74192e-07
-1.54619e-07
1.44844e-07
3.21179e-07
1.31811e-07
3.38838e-07
1.09291e-07
2.98268e-07
6.52829e-08
5.30985e-07
5.77785e-08
1.32523e-07
1.14239e-07
-1.79046e-07
7.27289e-08
2.60914e-07
-1.36332e-08
4.05116e-07
1.83233e-08
7.25409e-09
7.5238e-08
-2.4273e-07
1.21727e-07
-2.23806e-07
9.91167e-08
2.49112e-07
8.33646e-08
2.96229e-07
9.70103e-08
1.59767e-07
6.6395e-08
1.63332e-07
-6.54781e-09
7.06162e-08
-7.30567e-08
8.5615e-08
-8.40461e-08
2.91245e-08
-6.25405e-08
-4.02531e-08
-2.69856e-08
-2.67908e-08
7.33463e-09
3.82658e-08
3.13971e-08
6.43424e-08
4.90557e-08
5.31823e-08
4.37224e-08
5.50247e-08
6.37307e-08
2.4424e-08
1.22806e-08
-4.33323e-07
6.70442e-08
-9.75046e-07
1.28608e-07
-9.53328e-07
1.67308e-07
-5.23376e-07
1.76623e-07
-1.63935e-07
1.45917e-07
3.51886e-07
1.33091e-07
3.51664e-07
1.22237e-07
3.09122e-07
4.36427e-08
6.09578e-07
1.8681e-08
1.57485e-07
1.15137e-07
-2.75502e-07
5.98609e-08
3.1619e-07
-7.34333e-09
4.7232e-07
4.16361e-08
-4.17253e-08
6.02048e-08
-2.61299e-07
1.01253e-07
-2.64959e-07
6.80776e-08
2.82482e-07
5.40666e-08
3.1024e-07
5.37026e-08
1.60131e-07
4.95004e-08
1.67535e-07
7.05296e-09
1.13064e-07
-8.86673e-08
1.81337e-07
-1.13848e-07
5.43117e-08
-1.09015e-07
-4.50869e-08
-8.28903e-08
-5.29186e-08
-4.86451e-08
4.0176e-09
-2.06417e-08
3.63362e-08
4.99067e-09
2.75471e-08
1.60291e-08
4.3984e-08
6.70214e-08
1.27349e-08
1.07456e-08
-4.44068e-07
6.5276e-08
-1.02958e-06
1.29135e-07
-1.01719e-06
1.69309e-07
-5.6355e-07
1.76952e-07
-1.71578e-07
1.43998e-07
3.8484e-07
1.37526e-07
3.58136e-07
9.53474e-08
3.51301e-07
5.56941e-08
6.49232e-07
3.91166e-08
1.74062e-07
1.17356e-07
-3.53741e-07
6.86096e-08
3.64936e-07
-8.94011e-09
5.4987e-07
7.86179e-08
-1.29283e-07
8.8385e-08
-2.71046e-07
9.09825e-08
-2.67655e-07
9.56184e-08
2.77752e-07
7.62923e-08
3.29529e-07
1.02599e-08
2.26143e-07
-3.72905e-09
1.81524e-07
3.6096e-08
7.23368e-08
-1.15386e-08
2.29055e-07
-4.46851e-08
8.74582e-08
-6.26372e-08
-2.71348e-08
-7.46807e-08
-4.08751e-08
-6.30925e-08
-7.57003e-09
-4.36347e-08
1.68792e-08
-2.90772e-08
1.29922e-08
-1.48425e-08
2.97488e-08
5.21319e-08
4.67193e-11
9.58814e-09
-4.53656e-07
6.13332e-08
-1.08132e-06
1.26726e-07
-1.08258e-06
1.66912e-07
-6.03736e-07
1.6963e-07
-1.74296e-07
1.34739e-07
4.1973e-07
1.18598e-07
3.74277e-07
1.30119e-07
3.39781e-07
8.40766e-08
6.95274e-07
5.26834e-08
2.05455e-07
1.73698e-07
-4.63145e-07
1.39056e-07
3.95455e-07
1.77615e-09
6.86508e-07
1.00106e-07
-2.27614e-07
1.57966e-07
-3.28647e-07
1.02247e-07
-2.12033e-07
1.07379e-07
2.72531e-07
9.21716e-08
3.45189e-07
5.08382e-08
2.67479e-07
-2.14373e-10
2.30937e-07
4.65718e-08
2.54823e-08
6.84434e-08
2.06804e-07
2.69252e-08
1.28976e-07
4.87715e-09
-5.08677e-09
-1.68575e-08
-1.91404e-08
-2.38126e-08
-6.14935e-10
-2.13991e-08
1.4465e-08
-2.36552e-08
1.52481e-08
-1.96296e-08
2.57271e-08
3.76207e-08
-5.11573e-09
8.78669e-09
-4.62443e-07
5.22246e-08
-1.12476e-06
1.1604e-07
-1.14639e-06
1.53353e-07
-6.4105e-07
1.43294e-07
-1.64236e-07
9.31313e-08
4.69893e-07
6.54234e-08
4.01985e-07
3.86815e-08
3.66523e-07
-1.96278e-08
7.53583e-07
-5.2922e-08
2.39723e-07
-5.19178e-08
-4.64447e-07
-5.3444e-08
3.90187e-07
-1.02873e-07
7.3418e-07
3.9036e-08
-3.69524e-07
1.8674e-07
-4.76458e-07
1.16166e-07
-1.41553e-07
8.6057e-08
3.04374e-07
6.78747e-08
3.63726e-07
8.11362e-08
2.54218e-07
3.90859e-08
2.70558e-07
3.63606e-08
2.81394e-08
8.50981e-08
1.57536e-07
6.34611e-08
1.50816e-07
3.18411e-08
2.65333e-08
9.23886e-09
3.46185e-09
8.12412e-09
4.98826e-10
7.36773e-09
1.52203e-08
-1.48296e-10
2.27615e-08
-9.2121e-09
3.47907e-08
4.04504e-08
-1.20415e-08
1.32267e-08
-4.7567e-07
3.33248e-08
-1.14486e-06
8.81282e-08
-1.2012e-06
1.21778e-07
-6.747e-07
9.10534e-08
-1.33509e-07
4.50596e-08
5.15887e-07
4.04394e-08
4.06605e-07
1.56856e-08
3.90444e-07
1.71111e-09
7.65234e-07
-8.62551e-08
3.29602e-07
-1.33166e-07
-4.17833e-07
-9.44905e-08
3.51128e-07
-1.9841e-07
8.38019e-07
-8.82145e-08
-4.80008e-07
1.02433e-07
-6.68991e-07
3.32294e-08
-7.2568e-08
-5.30601e-08
3.91091e-07
-5.84386e-08
3.69146e-07
4.04312e-08
1.55349e-07
7.10017e-08
2.42006e-07
4.05808e-08
5.8492e-08
8.10054e-08
1.18505e-07
7.44098e-08
1.57774e-07
2.83698e-08
7.25735e-08
6.17838e-09
2.56442e-08
8.9265e-09
-2.25068e-09
5.6929e-09
1.84526e-08
3.13017e-10
2.81414e-08
-1.09003e-08
4.60036e-08
5.18554e-08
-2.23051e-08
2.40582e-09
-4.78076e-07
2.38313e-09
-1.14484e-06
3.86294e-08
-1.23744e-06
8.43214e-08
-7.20377e-07
5.33866e-08
-9.05105e-08
-5.19971e-08
5.43505e-07
-1.84808e-07
5.39663e-07
-8.11821e-08
2.66704e-07
7.32688e-09
6.76401e-07
-1.36036e-07
4.69546e-07
-1.63204e-07
-3.98346e-07
-1.36756e-07
3.31668e-07
-2.19387e-07
9.21585e-07
-1.66547e-07
-5.33168e-07
-4.93089e-08
-7.85931e-07
-8.03375e-08
-4.17899e-08
-1.80794e-07
4.91592e-07
-1.1152e-07
2.99916e-07
6.02367e-08
-1.68246e-08
1.08719e-07
1.94047e-07
5.6938e-08
1.10355e-07
4.16762e-08
1.34638e-07
3.53014e-08
1.64206e-07
-3.92263e-09
1.11799e-07
-1.39279e-08
3.56516e-08
-1.62918e-08
1.15348e-10
-1.70415e-08
1.92043e-08
-1.20953e-08
2.31988e-08
-1.25104e-08
4.64185e-08
5.54521e-08
-1.61077e-08
2.6796e-08
-5.04872e-07
-3.50092e-08
-1.08303e-06
-1.08086e-08
-1.26163e-06
5.25826e-08
-3.7007e-07
6.57245e-09
-7.61986e-09
-2.25276e-07
2.87819e-07
-4.357e-07
7.24244e-07
-2.00928e-07
1.45599e-08
-4.23873e-08
5.18383e-07
-1.71974e-07
6.03521e-07
-2.77198e-07
-2.93389e-07
-2.75281e-07
3.29436e-07
-1.82114e-07
8.28327e-07
-1.64522e-07
-5.5084e-07
-1.67462e-07
-7.82064e-07
-1.35473e-07
-7.44523e-08
-1.2966e-07
4.85753e-07
-5.91304e-08
2.29425e-07
1.56986e-08
-9.1692e-08
-4.45676e-09
2.14153e-07
-5.75285e-08
1.64315e-07
-2.07336e-09
7.91812e-08
2.25815e-08
1.39548e-07
-2.09844e-08
1.55356e-07
-3.35431e-08
4.82112e-08
-3.049e-08
-2.93774e-09
-2.2804e-08
1.15182e-08
-1.6544e-08
1.69386e-08
-8.90958e-09
3.87846e-08
4.75396e-08
-9.97244e-10
-4.09904e-08
-4.63881e-07
-6.11615e-08
-1.06278e-06
-5.21177e-09
-6.863e-07
-2.9407e-08
-2.60698e-08
-2.43292e-07
2.39451e-09
-4.45111e-07
1.22943e-07
-3.96495e-07
5.65717e-07
-3.42569e-07
-4.79867e-08
-1.54368e-07
3.30176e-07
-1.46734e-07
5.95917e-07
-3.70964e-07
-6.91798e-08
-3.01208e-07
2.58159e-07
-1.03788e-07
6.28967e-07
-1.72852e-07
-4.81764e-07
-2.97691e-07
-6.57159e-07
-2.53741e-07
-1.18228e-07
-1.18231e-07
3.4698e-07
-1.01633e-07
2.1243e-07
-1.26429e-07
-6.71362e-08
-9.8937e-08
1.86754e-07
-7.20815e-08
1.37459e-07
-3.02074e-11
7.1285e-09
4.41969e-08
9.53189e-08
1.44969e-08
1.85051e-07
-6.23782e-09
6.89433e-08
-1.84927e-08
9.31709e-09
-1.96734e-08
1.26988e-08
-1.88742e-08
1.61392e-08
-9.05284e-09
2.89629e-08
3.54308e-08
3.05595e-09
-2.99094e-08
-4.33864e-07
7.24893e-08
-1.13506e-06
-7.20023e-09
-6.61136e-08
-3.07701e-08
-4.15745e-10
-2.42107e-07
-8.98389e-09
-4.79397e-07
-2.29865e-08
-5.28235e-07
3.99126e-07
-5.75176e-07
-4.05974e-08
-2.9712e-07
4.2965e-08
-1.76855e-07
4.7568e-07
-4.1768e-07
1.72323e-07
-2.10927e-07
5.00687e-08
2.53665e-08
3.90893e-07
-1.74865e-07
-2.8156e-07
-3.6567e-07
-4.66375e-07
-3.27484e-07
-1.56581e-07
-1.30498e-07
1.50474e-07
-1.17818e-07
1.99449e-07
-1.44223e-07
-4.07305e-08
-8.1126e-08
1.23656e-07
-3.4172e-08
9.05045e-08
-4.90777e-08
2.20339e-08
-1.15172e-08
5.77579e-08
5.05131e-08
1.2302e-07
5.94536e-08
6.00027e-08
2.82293e-08
4.05414e-08
-1.78289e-09
4.27111e-08
-1.49104e-08
2.92668e-08
-1.16221e-08
2.56747e-08
2.42659e-08
-4.57162e-10
-1.40724e-07
-2.62432e-07
6.37825e-08
-3.58217e-07
-8.87828e-10
-4.64672e-09
9.24142e-11
4.18964e-10
-2.62836e-08
-1.58802e-09
-4.02676e-07
-8.99651e-09
-6.02715e-07
2.07444e-07
-6.82801e-07
-8.15425e-08
-4.751e-07
-1.87739e-07
-2.65951e-07
2.6656e-07
-3.70944e-07
2.77341e-07
-2.28076e-07
-9.27774e-08
-2.9985e-09
1.67028e-07
-1.4018e-07
-1.44401e-07
-3.35735e-07
-2.70819e-07
-3.76074e-07
-1.13959e-07
-1.68697e-07
-5.39387e-08
-7.46533e-08
1.05756e-07
-9.89231e-08
-1.26474e-08
-1.73402e-08
4.20738e-08
5.13655e-08
1.20649e-08
1.15277e-08
3.58541e-08
-3.25133e-09
4.2743e-08
5.37473e-08
4.00216e-08
5.89452e-08
2.81864e-08
4.36085e-08
2.92992e-08
3.41045e-08
2.57231e-08
1.82132e-08
2.16718e-08
6.76434e-09
1.70368e-08
1.29752e-08
6.01878e-10
3.96027e-07
-4.94774e-07
3.89636e-09
-2.78777e-08
1.39222e-10
-4.28598e-10
5.52312e-10
-2.73145e-11
-1.171e-09
4.9292e-11
-1.01054e-07
-6.51214e-10
-2.74129e-07
-3.52125e-09
-5.25297e-07
-3.29575e-08
-5.90091e-07
-2.42466e-07
-3.76577e-07
4.00151e-08
-3.35606e-07
2.36824e-07
-3.81485e-07
-5.76276e-08
-1.74095e-07
-3.62652e-08
-1.29443e-07
-9.07465e-08
-1.98373e-07
-3.58514e-08
-1.80588e-07
-1.31613e-08
-1.66087e-07
-3.12874e-10
-1.99144e-08
-1.75088e-10
5.78882e-09
-1.24252e-10
3.61837e-08
-1.95808e-12
2.1072e-08
5.86769e-11
2.18831e-08
1.31599e-10
2.92602e-08
-1.96412e-11
2.8955e-08
2.41608e-10
1.92177e-08
7.06882e-11
1.77988e-08
-1.70568e-10
1.74242e-08
-5.63528e-11
1.615e-08
1.1859e-11
1.20192e-08
-2.50375e-11
6.07482e-09
-8.71592e-11
2.32151e-08
-2.82046e-08
4.9509e-08
-2.65674e-08
8.98542e-08
-4.07767e-08
1.24978e-07
-3.57675e-08
1.53507e-07
-2.86749e-08
1.67577e-07
-1.42305e-08
1.88363e-07
-2.09644e-08
2.28682e-07
-4.05128e-08
1.77213e-07
5.36943e-08
5.98307e-08
1.17513e-07
-1.35862e-09
6.11217e-08
-1.61093e-08
1.47507e-08
-5.13185e-09
-1.09775e-08
2.94273e-08
-3.44113e-08
4.99437e-08
-2.05071e-08
4.63402e-08
3.60346e-09
3.62578e-08
1.00824e-08
2.88317e-08
7.4262e-09
1.34471e-08
1.53846e-08
3.71334e-09
9.73376e-09
-1.35644e-08
1.72778e-08
-2.96798e-08
1.61154e-08
-4.61938e-08
1.6514e-08
-6.33789e-08
1.71851e-08
-8.40898e-08
2.0711e-08
-9.12514e-08
7.16163e-09
-8.8248e-08
-3.00334e-09
-6.6782e-08
-2.14661e-08
-3.35706e-08
-3.32114e-08
-3.35706e-08
2.75197e-08
-5.83334e-08
5.96958e-08
-5.87433e-08
9.56516e-08
-7.67321e-08
1.43381e-07
-8.34964e-08
1.94052e-07
-7.95707e-08
2.41072e-07
-6.1263e-08
2.78694e-07
-5.85278e-08
3.21917e-07
-8.36036e-08
3.12497e-07
6.3634e-08
2.01684e-07
2.28379e-07
8.1461e-08
1.8139e-07
2.81459e-08
6.80778e-08
3.70456e-08
-1.99139e-08
4.67124e-08
-4.39598e-08
4.84184e-08
-2.21856e-08
3.42505e-08
1.77714e-08
-1.22061e-10
4.44551e-08
-1.22649e-08
1.95691e-08
-4.0219e-08
4.33388e-08
-5.49883e-08
2.4503e-08
-7.81984e-08
4.04881e-08
-9.80319e-08
3.59489e-08
-1.11981e-07
3.04631e-08
-1.25628e-07
3.08327e-08
-1.38033e-07
3.31156e-08
-1.33265e-07
2.39367e-09
-1.16506e-07
-1.97622e-08
-7.75012e-08
-6.04711e-08
-3.17253e-08
-7.89873e-08
-6.52958e-08
1.77905e-08
-8.17065e-08
3.99118e-08
-8.08645e-08
6.25843e-08
-9.93543e-08
1.07918e-07
-1.28736e-07
1.64198e-07
-1.35853e-07
2.15344e-07
-1.12438e-07
2.50199e-07
-9.34171e-08
2.88653e-07
-1.22477e-07
3.04138e-07
4.81856e-08
2.56566e-07
2.76088e-07
1.58255e-07
2.79714e-07
8.4557e-08
1.4179e-07
5.68787e-08
7.59249e-09
2.37579e-08
-1.09046e-08
1.1649e-08
-1.00611e-08
-4.00772e-09
3.34281e-08
-4.14908e-08
8.19382e-08
-4.42257e-08
2.23041e-08
-7.13365e-08
7.04497e-08
-8.24465e-08
3.5613e-08
-1.00076e-07
5.81177e-08
-1.18058e-07
5.39309e-08
-1.25744e-07
3.81489e-08
-1.35574e-07
4.06625e-08
-1.43233e-07
4.07753e-08
-1.3466e-07
-6.17982e-09
-1.14722e-07
-3.96999e-08
-7.26418e-08
-1.02551e-07
-2.64338e-08
-1.25195e-07
-9.17296e-08
3.27588e-09
-9.6123e-08
2.65804e-08
-1.04115e-07
6.07268e-08
-1.33538e-07
9.35037e-08
-1.6147e-07
1.2433e-07
-1.66889e-07
1.62919e-07
-1.5107e-07
2.07535e-07
-1.38078e-07
2.27229e-07
-1.42216e-07
2.48686e-07
2.66793e-08
2.47542e-07
2.77263e-07
1.932e-07
3.34069e-07
1.24461e-07
2.10542e-07
6.72837e-08
6.47583e-08
2.78112e-09
5.36278e-08
-1.85115e-08
1.12322e-08
-3.6151e-08
5.10676e-08
-7.07628e-08
1.1655e-07
-5.87595e-08
1.03009e-08
-7.85586e-08
9.02488e-08
-9.06812e-08
4.77356e-08
-1.03496e-07
7.09324e-08
-1.21691e-07
7.21263e-08
-1.26721e-07
4.3179e-08
-1.35667e-07
4.96083e-08
-1.42588e-07
4.76964e-08
-1.33524e-07
-1.52439e-08
-1.1317e-07
-6.00543e-08
-7.06507e-08
-1.4507e-07
-2.44949e-08
-1.71351e-07
-1.16225e-07
-1.65157e-08
-9.65443e-08
-7.4929e-09
-1.13095e-07
-1.65004e-09
-1.39558e-07
-4.35012e-09
-1.59369e-07
5.08877e-09
-1.76292e-07
3.58747e-08
-1.8209e-07
8.4754e-08
-1.87152e-07
1.19083e-07
-1.76974e-07
1.53612e-07
-8.03406e-09
1.79409e-07
2.51364e-07
1.76549e-07
3.36688e-07
1.32984e-07
2.54141e-07
6.12164e-08
1.36497e-07
-2.00598e-08
1.34904e-07
-4.45176e-08
3.569e-08
-5.77629e-08
6.4313e-08
-9.0607e-08
1.49394e-07
-6.48529e-08
-1.54532e-08
-7.33225e-08
9.87185e-08
-9.31761e-08
6.75892e-08
-1.03029e-07
8.07857e-08
-1.22521e-07
9.16184e-08
-1.26604e-07
4.72617e-08
-1.35466e-07
5.84699e-08
-1.42668e-07
5.48985e-08
-1.33668e-07
-2.42433e-08
-1.13126e-07
-8.05963e-08
-7.02917e-08
-1.87905e-07
-2.39186e-08
-2.17724e-07
-1.40143e-07
-2.65564e-08
-8.86034e-08
-4.15802e-08
-9.81743e-08
-7.19264e-08
-1.09367e-07
-9.46395e-08
-1.36642e-07
-9.38353e-08
-1.77058e-07
-6.12958e-08
-2.14544e-07
-8.18855e-09
-2.40154e-07
3.56291e-08
-2.20672e-07
7.68399e-08
-4.93145e-08
1.09887e-07
2.1821e-07
1.23454e-07
3.23002e-07
9.82089e-08
2.80095e-07
2.63742e-08
2.08332e-07
-5.10141e-08
2.12292e-07
-6.99603e-08
5.46363e-08
-6.99637e-08
6.43165e-08
-9.61513e-08
1.75582e-07
-6.65099e-08
-4.50946e-08
-6.47537e-08
9.69624e-08
-9.40553e-08
9.68908e-08
-1.02767e-07
8.94972e-08
-1.23114e-07
1.11965e-07
-1.26778e-07
5.09259e-08
-1.3553e-07
6.72217e-08
-1.43203e-07
6.25723e-08
-1.34316e-07
-3.31307e-08
-1.13521e-07
-1.01391e-07
-7.0285e-08
-2.31141e-07
-2.36346e-08
-2.64374e-07
-1.63778e-07
-3.93901e-08
-6.39035e-08
-7.16641e-08
-6.59001e-08
-9.92566e-08
-8.17745e-08
-1.14639e-07
-1.21243e-07
-1.20275e-07
-1.71233e-07
-1.10403e-07
-2.24447e-07
-8.17232e-08
-2.6887e-07
-6.02933e-08
-2.42072e-07
-1.28743e-08
-9.66583e-08
4.42736e-08
1.61595e-07
7.73424e-08
2.91161e-07
5.16526e-08
3.06194e-07
-1.72993e-08
2.7728e-07
-7.44675e-08
2.69461e-07
-8.9685e-08
6.98538e-08
-6.59619e-08
4.05934e-08
-7.60388e-08
1.85659e-07
-6.53731e-08
-5.57603e-08
-5.98499e-08
9.14393e-08
-9.46845e-08
1.31725e-07
-1.03484e-07
9.82972e-08
-1.2366e-07
1.32141e-07
-1.27174e-07
5.44406e-08
-1.35662e-07
7.57096e-08
-1.43921e-07
7.08309e-08
-1.35163e-07
-4.1888e-08
-1.14047e-07
-1.22507e-07
-7.03213e-08
-2.74867e-07
-2.33581e-08
-3.11338e-07
-1.87136e-07
-3.03314e-08
-3.61525e-08
-6.18771e-08
-3.43543e-08
-8.8165e-08
-5.54866e-08
-1.08216e-07
-1.01192e-07
-1.26556e-07
-1.52992e-07
-1.4103e-07
-2.10114e-07
-1.43193e-07
-2.66741e-07
-1.43505e-07
-2.41801e-07
-1.05101e-07
-1.3507e-07
-3.03734e-08
8.69139e-08
6.55169e-09
2.5428e-07
-2.18536e-09
3.1492e-07
-3.99721e-08
3.1507e-07
-6.82978e-08
2.97786e-07
-8.62306e-08
8.77867e-08
-4.26064e-08
-3.03086e-09
-3.9228e-08
1.8228e-07
-6.32959e-08
-3.16924e-08
-6.11785e-08
8.9322e-08
-9.57902e-08
1.66337e-07
-1.05296e-07
1.07803e-07
-1.24086e-07
1.50931e-07
-1.27715e-07
5.80692e-08
-1.35805e-07
8.37998e-08
-1.44767e-07
7.97932e-08
-1.36168e-07
-5.04874e-08
-1.14663e-07
-1.44012e-07
-7.03525e-08
-3.19178e-07
-2.3029e-08
-3.58661e-07
-2.10165e-07
-1.88489e-08
-1.30642e-08
-4.5757e-08
-7.44607e-09
-7.27221e-08
-2.85205e-08
-9.44408e-08
-7.94723e-08
-1.17018e-07
-1.30415e-07
-1.39791e-07
-1.87342e-07
-1.67217e-07
-2.39481e-07
-1.84524e-07
-2.24572e-07
-1.81246e-07
-1.38431e-07
-1.32425e-07
3.79067e-08
-9.00565e-08
2.11912e-07
-5.22436e-08
2.77108e-07
-4.58199e-08
3.08647e-07
-4.32412e-08
2.95207e-07
-4.81141e-08
9.26596e-08
-1.52683e-08
-3.58766e-08
-1.80468e-08
1.85059e-07
-6.68252e-08
1.7086e-08
-6.8287e-08
9.0784e-08
-9.63574e-08
1.94407e-07
-1.08308e-07
1.19753e-07
-1.24368e-07
1.66991e-07
-1.283e-07
6.20013e-08
-1.35962e-07
9.14624e-08
-1.45734e-07
8.9565e-08
-1.37332e-07
-5.8889e-08
-1.15364e-07
-1.6598e-07
-7.03706e-08
-3.64171e-07
-2.26338e-08
-4.06398e-07
-2.32799e-07
-1.0796e-08
1.62544e-09
-2.87605e-08
1.05187e-08
-4.93062e-08
-7.97402e-09
-7.23931e-08
-5.63863e-08
-9.5201e-08
-1.07608e-07
-1.2081e-07
-1.61733e-07
-1.52015e-07
-2.08276e-07
-1.75845e-07
-2.00761e-07
-2.04169e-07
-1.10188e-07
-1.87177e-07
2.07499e-08
-1.38169e-07
1.62844e-07
-7.99071e-08
2.18845e-07
-6.28216e-08
2.91561e-07
-3.50508e-08
2.67437e-07
-1.75434e-08
7.51523e-08
-1.99505e-09
-5.1425e-08
-1.54293e-08
1.98493e-07