/*--------------------------------*- C++ -*----------------------------------*\
| =========                 |                                                 |
| \\      /  F ield         | OpenFOAM: The Open Source CFD Toolbox           |
|  \\    /   O peration     | Version:  2.4.0                                 |
|   \\  /    A nd           | Web:      www.OpenFOAM.org                      |
|    \\/     M anipulation  |                                                 |
\*---------------------------------------------------------------------------*/
FoamFile
{
    version     2.0;
    format      ascii;
    class       volScalarField;
    location    "0.272";
    object      p;
}
// * * * * * * * * * * * * * * * * * * * * * * * * * * * * * * * * * * * * * //

dimensions      [1 -1 -2 0 0 0 0];

internalField   nonuniform List<scalar> 
60000
(
127.569
127.595
127.654
127.742
127.859
128.001
128.166
128.352
128.554
128.77
128.995
129.226
129.46
129.693
129.923
130.146
130.359
130.561
130.748
130.919
131.073
131.206
131.319
131.409
131.477
131.521
131.538
131.529
131.494
131.432
131.342
131.223
131.075
130.897
130.689
130.449
130.178
129.875
129.539
129.169
128.766
128.328
127.856
127.349
126.808
126.232
125.621
124.978
124.301
123.592
122.852
122.083
121.286
120.461
119.612
118.739
117.844
116.93
115.997
115.048
114.084
113.107
112.118
111.119
110.111
109.096
108.073
107.045
106.011
104.973
103.929
102.881
101.829
100.772
99.71
98.6434
97.5719
96.496
95.4161
94.3332
93.2486
92.1642
91.0826
90.0068
88.9406
87.8884
86.8552
85.8458
84.8672
83.9253
83.0268
82.1779
81.385
80.6538
79.9896
79.397
78.8799
78.4414
78.084
77.8091
125.607
125.633
125.692
125.78
125.897
126.04
126.206
126.392
126.595
126.811
127.037
127.269
127.504
127.737
127.967
128.191
128.404
128.606
128.793
128.964
129.118
129.251
129.364
129.454
129.521
129.565
129.581
129.572
129.537
129.474
129.383
129.264
129.115
128.937
128.728
128.488
128.216
127.912
127.576
127.205
126.801
126.363
125.891
125.383
124.841
124.264
123.653
123.009
122.331
121.622
120.882
120.112
119.313
118.488
117.638
116.765
115.87
114.954
114.021
113.071
112.107
111.13
110.14
109.141
108.133
107.117
106.095
105.066
104.033
102.994
101.951
100.904
99.8516
98.7949
97.7335
96.6673
95.5964
94.5209
93.4415
92.3589
91.2746
90.1905
89.109
88.0333
86.967
85.9145
84.8808
83.8717
82.8927
81.9504
81.0511
80.2014
79.4075
78.6753
78.0101
77.4165
76.8986
76.4592
76.1008
75.8248
123.631
123.658
123.717
123.807
123.925
124.069
124.237
124.424
124.629
124.847
125.074
125.307
125.543
125.779
126.01
126.234
126.449
126.652
126.84
127.011
127.165
127.299
127.412
127.502
127.569
127.61
127.628
127.62
127.584
127.521
127.43
127.31
127.161
126.982
126.773
126.532
126.26
125.955
125.618
125.247
124.842
124.403
123.929
123.421
122.877
122.3
121.688
121.042
120.363
119.653
118.911
118.14
117.34
116.514
115.662
114.787
113.891
112.975
112.04
111.089
110.124
109.146
108.156
107.156
106.147
105.131
104.109
103.08
102.047
101.009
99.9663
98.9194
97.8681
96.8124
95.752
94.6868
93.6169
92.5423
91.4636
90.3817
89.2979
88.2139
87.1324
86.0564
84.9895
83.9362
82.9015
81.891
80.9105
79.9663
79.065
78.2132
77.4171
76.6826
76.0153
75.4198
74.9
74.4589
74.0987
73.8207
121.644
121.672
121.732
121.823
121.943
122.089
122.259
122.449
122.656
122.877
123.107
123.343
123.581
123.819
124.052
124.279
124.495
124.699
124.889
125.062
125.216
125.351
125.464
125.555
125.622
125.664
125.682
125.673
125.638
125.574
125.483
125.363
125.213
125.033
124.823
124.582
124.309
124.003
123.664
123.292
122.886
122.446
121.971
121.461
120.916
120.337
119.723
119.075
118.395
117.682
116.938
116.165
115.363
114.535
113.681
112.804
111.906
110.988
110.052
109.099
108.132
107.152
106.161
105.161
104.151
103.135
102.112
101.084
100.051
99.013
97.9714
96.9256
95.8756
94.8214
93.7625
92.699
91.6306
90.5575
89.4801
88.3991
87.3159
86.2322
85.1505
84.0737
83.0056
81.9505
80.9136
79.9003
78.9167
77.9691
77.0641
76.2085
75.4086
74.6706
74
73.4015
72.8792
72.4359
72.0737
71.7934
119.645
119.674
119.736
119.829
119.951
120.1
120.273
120.467
120.677
120.902
121.135
121.375
121.617
121.858
122.094
122.324
122.543
122.749
122.941
123.115
123.271
123.407
123.522
123.613
123.681
123.724
123.742
123.733
123.697
123.634
123.542
123.421
123.271
123.091
122.88
122.637
122.363
122.056
121.716
121.342
120.935
120.492
120.016
119.504
118.957
118.375
117.759
117.109
116.426
115.71
114.964
114.187
113.383
112.551
111.695
110.815
109.914
108.993
108.055
107.1
106.131
105.149
104.157
103.155
102.144
101.127
100.104
99.076
98.0433
97.0067
95.9662
94.922
93.8739
92.8218
91.7652
90.7039
89.6378
88.5669
87.4914
86.4119
85.3297
84.2465
83.1644
82.0866
81.0168
79.9592
78.919
77.9018
76.9136
75.961
75.0508
74.1898
73.3846
72.6415
71.9663
71.364
70.8385
70.3927
70.0282
69.7457
117.635
117.664
117.728
117.823
117.948
118.101
118.279
118.477
118.692
118.921
119.16
119.404
119.651
119.896
120.136
120.369
120.592
120.801
120.995
121.172
121.331
121.468
121.584
121.677
121.746
121.789
121.808
121.799
121.764
121.7
121.608
121.487
121.336
121.155
120.943
120.699
120.423
120.115
119.773
119.398
118.988
118.543
118.064
117.549
117
116.415
115.796
115.143
114.456
113.737
112.987
112.207
111.399
110.564
109.704
108.82
107.916
106.992
106.05
105.092
104.121
103.137
102.142
101.138
100.127
99.1086
98.0851
97.0571
96.0251
94.9895
93.9506
92.9084
91.8627
90.8132
89.7596
88.7013
87.6382
86.5701
85.497
84.4196
83.3387
82.256
81.1737
80.0947
79.0226
77.9618
76.9173
75.8949
74.9008
73.9417
73.0246
72.1565
71.3444
70.5949
69.914
69.3069
68.7775
68.3288
67.962
67.6772
115.612
115.643
115.708
115.806
115.936
116.093
116.275
116.479
116.7
116.935
117.18
117.43
117.682
117.932
118.178
118.415
118.642
118.855
119.053
119.233
119.394
119.534
119.652
119.746
119.816
119.861
119.88
119.872
119.837
119.773
119.681
119.559
119.407
119.225
119.012
118.767
118.49
118.18
117.836
117.458
117.046
116.599
116.116
115.599
115.045
114.457
113.834
113.177
112.486
111.763
111.008
110.224
109.411
108.572
107.707
106.82
105.911
104.982
104.037
103.076
102.101
101.114
100.117
99.1107
98.0977
97.0786
96.0547
95.0268
93.9955
92.9613
91.9243
90.8845
89.8417
88.7955
87.7454
86.6908
85.6314
84.5667
83.4968
82.4218
81.3427
80.2609
79.1783
78.0978
77.023
75.9581
74.9085
73.8797
72.8783
71.9112
70.9856
70.1089
69.2883
68.5309
67.843
67.23
66.6962
66.2442
65.8752
65.5883
113.576
113.608
113.676
113.778
113.912
114.075
114.263
114.474
114.702
114.944
115.195
115.452
115.711
115.968
116.219
116.462
116.694
116.912
117.113
117.297
117.461
117.604
117.724
117.821
117.892
117.939
117.958
117.951
117.916
117.853
117.76
117.638
117.486
117.303
117.088
116.842
116.563
116.25
115.904
115.524
115.109
114.658
114.172
113.651
113.094
112.501
111.874
111.212
110.516
109.788
109.028
108.238
107.42
106.575
105.705
104.812
103.899
102.966
102.015
101.05
100.071
99.0807
98.0806
97.0723
96.0573
95.0371
94.0126
92.9848
91.9543
90.9216
89.8869
88.85
87.8106
86.7683
85.7225
84.6723
83.6173
82.5568
81.4906
80.4188
79.3418
78.261
77.1782
76.096
75.018
73.9485
72.8927
71.8564
70.8463
69.8696
68.9338
68.0467
67.216
66.4491
65.7529
65.1332
64.5943
64.1388
63.7675
63.4789
111.528
111.562
111.632
111.738
111.878
112.047
112.242
112.46
112.696
112.947
113.206
113.471
113.738
114.002
114.261
114.51
114.747
114.971
115.177
115.365
115.533
115.679
115.802
115.901
115.975
116.022
116.044
116.037
116.003
115.94
115.847
115.725
115.572
115.387
115.172
114.923
114.642
114.327
113.978
113.595
113.176
112.722
112.232
111.706
111.144
110.547
109.914
109.247
108.545
107.811
107.045
106.249
105.425
104.574
103.698
102.799
101.879
100.941
99.9854
99.0151
98.0317
97.0374
96.0337
95.0226
94.0054
92.9837
91.9585
90.9308
89.9013
88.8704
87.8382
86.8046
85.7693
84.7315
83.6906
82.6457
81.5958
80.5403
79.4786
78.4104
77.3361
76.2566
75.1736
74.0897
73.0081
71.9332
70.8703
69.8253
68.8051
67.8171
66.8693
65.97
65.1274
64.3494
63.6435
63.0159
62.4713
62.0123
61.639
61.3491
109.466
109.501
109.575
109.686
109.832
110.008
110.212
110.439
110.684
110.944
111.213
111.487
111.763
112.036
112.302
112.558
112.803
113.032
113.244
113.437
113.609
113.759
113.885
113.987
114.063
114.113
114.135
114.13
114.096
114.034
113.941
113.818
113.664
113.479
113.261
113.011
112.728
112.41
112.058
111.671
111.249
110.79
110.296
109.765
109.198
108.595
107.956
107.282
106.574
105.833
105.06
104.257
103.426
102.568
101.685
100.779
99.8532
98.9083
97.9469
96.9709
95.9824
94.9834
93.9758
92.9613
91.9416
90.9181
89.8921
88.8645
87.8361
86.8072
85.7779
84.7481
83.7173
82.6848
81.6496
80.6106
79.5668
78.5171
77.4606
76.3967
75.3256
74.2479
73.1649
72.0791
70.9935
69.9127
68.8416
67.7866
66.7548
65.7539
64.7923
63.8788
63.0223
62.2314
61.5142
60.8776
60.3268
59.8642
59.4894
59.199
107.39
107.428
107.505
107.622
107.775
107.959
108.172
108.409
108.665
108.936
109.215
109.5
109.786
110.068
110.343
110.608
110.86
111.096
111.314
111.512
111.689
111.844
111.974
112.078
112.157
112.209
112.234
112.23
112.197
112.134
112.042
111.919
111.764
111.577
111.358
111.106
110.82
110.499
110.144
109.753
109.326
108.863
108.363
107.826
107.253
106.644
105.998
105.318
104.602
103.854
103.073
102.262
101.423
100.557
99.6665
98.7534
97.8197
96.8677
95.8994
94.9171
93.9228
92.9186
91.9064
90.8882
89.8656
88.8401
87.8131
86.7856
85.7583
84.7316
83.7056
82.6801
81.6544
80.6278
79.5991
78.567
77.5301
76.4871
75.4366
74.378
73.3107
72.2351
71.1524
70.0646
68.9748
67.8872
66.8072
65.7409
64.6959
63.6802
62.7028
61.7731
60.9006
60.0948
59.3645
58.7177
58.16
57.6939
57.3185
57.0289
105.3
105.34
105.422
105.545
105.705
105.9
106.123
106.372
106.639
106.922
107.214
107.51
107.807
108.1
108.385
108.659
108.919
109.163
109.388
109.592
109.774
109.933
110.067
110.176
110.258
110.312
110.338
110.336
110.304
110.242
110.15
110.026
109.871
109.683
109.462
109.207
108.918
108.594
108.235
107.84
107.408
106.939
106.434
105.891
105.311
104.695
104.042
103.353
102.63
101.873
101.084
100.264
99.416
98.5414
97.6422
96.7206
95.7787
94.8187
93.8429
92.8536
91.8528
90.8427
89.8254
88.8029
87.777
86.7493
85.7211
84.6936
83.6675
82.6433
81.6209
80.6001
79.5802
78.5603
77.5389
76.5145
75.4855
74.4501
73.4067
72.3541
71.2913
70.2185
69.1363
68.0466
66.9522
65.8574
64.7674
63.6886
62.6287
61.5964
60.601
59.6527
58.7619
57.939
57.1938
56.5354
55.9702
55.5009
55.1258
54.8385
103.195
103.237
103.324
103.454
103.624
103.829
104.064
104.325
104.606
104.902
105.207
105.517
105.826
106.13
106.426
106.711
106.98
107.232
107.465
107.676
107.864
108.028
108.167
108.279
108.364
108.421
108.45
108.449
108.418
108.357
108.265
108.141
107.984
107.795
107.572
107.315
107.023
106.695
106.332
105.931
105.494
105.02
104.508
103.959
103.372
102.747
102.086
101.389
100.657
99.891
99.0927
98.2623
97.4048
96.5207
95.612
94.681
93.73
92.7613
91.7772
90.78
89.772
88.7554
87.7324
86.7051
85.6755
84.6452
83.6157
82.5881
81.5633
80.5417
79.5233
78.5077
77.4943
76.4817
75.4685
74.4529
73.4328
72.4061
71.3708
70.3251
69.2678
68.1983
67.117
66.0255
64.9264
63.8237
62.7228
61.6302
60.5538
59.5028
58.4871
57.5178
56.6061
55.7635
55.0012
54.3296
53.7563
53.2842
52.9109
52.6281
101.074
101.119
101.212
101.35
101.529
101.746
101.995
102.27
102.566
102.877
103.197
103.52
103.843
104.161
104.469
104.764
105.043
105.304
105.545
105.764
105.958
106.128
106.271
106.388
106.477
106.537
106.568
106.569
106.54
106.479
106.387
106.263
106.105
105.914
105.689
105.429
105.134
104.802
104.434
104.028
103.586
103.105
102.586
102.029
101.434
100.801
100.131
99.4248
98.683
97.9071
97.0989
96.2569
95.3892
94.4947
93.5757
92.6345
91.6735
90.6952
89.7019
88.6961
87.6801
86.6563
85.627
84.5944
83.5605
82.5273
81.4962
80.4686
79.4451
78.4263
77.4123
76.4024
75.396
74.3916
73.3876
72.3817
71.3717
70.3549
69.3288
68.2912
67.2402
66.1748
65.095
64.0019
62.8979
61.7868
60.6741
59.5663
58.4717
57.3999
56.3615
55.3684
54.4329
53.5677
52.7858
52.0991
51.5169
51.0427
50.6731
50.3974
98.9374
98.9854
99.084
99.2309
99.4218
99.6518
99.9154
100.206
100.518
100.846
101.182
101.521
101.859
102.19
102.512
102.819
103.109
103.38
103.629
103.856
104.057
104.233
104.382
104.503
104.596
104.659
104.693
104.696
104.668
104.608
104.516
104.392
104.233
104.041
103.813
103.55
103.251
102.915
102.542
102.131
101.681
101.194
100.667
100.102
99.4985
98.8566
98.1769
97.4603
96.708
95.9214
95.103
94.2474
93.3693
92.4634
91.5331
90.5807
89.6089
88.6202
87.6169
86.6017
85.5769
84.5451
83.5088
82.4703
81.4317
80.3952
79.3623
78.3344
77.3123
76.2966
75.2872
74.2836
73.2849
72.2896
71.2956
70.3006
69.3019
68.2962
67.2806
66.2522
65.2087
64.1483
63.0706
61.9762
60.8672
59.7474
58.6219
57.4976
56.383
55.2881
54.2244
53.2045
52.242
51.351
50.5463
49.8423
49.2504
48.7751
48.4116
48.1466
96.783
96.8346
96.94
97.0969
97.3003
97.5451
97.8249
98.1333
98.4634
98.8086
99.1625
99.5192
99.8733
100.22
100.555
100.875
101.177
101.459
101.718
101.952
102.161
102.343
102.498
102.624
102.721
102.788
102.824
102.829
102.803
102.744
102.653
102.528
102.368
102.174
101.944
101.677
101.374
101.033
100.655
100.238
99.7815
99.2863
98.7518
98.178
97.5649
96.9131
96.223
95.4956
94.7319
93.9335
93.1022
92.2364
91.3449
90.4266
89.484
88.5196
87.5361
86.536
85.5218
84.4963
83.4619
82.4214
81.3774
80.3323
79.2886
78.2483
77.2133
76.185
75.1644
74.1519
73.1475
72.1507
71.1604
70.1749
69.1921
68.2091
67.2229
66.2298
65.2261
64.2083
63.1734
62.119
61.0442
59.9489
58.835
57.706
56.5669
55.4248
54.2884
53.1682
52.0763
51.0263
50.0331
49.1125
48.2815
47.5574
46.9548
46.4794
46.1251
45.8751
94.6105
94.666
94.7791
94.947
95.1644
95.4255
95.7234
96.0509
96.4008
96.7658
97.1391
97.5145
97.8863
98.2495
98.5999
98.9339
99.2484
99.5411
99.8099
100.053
100.27
100.459
100.62
100.751
100.852
100.923
100.962
100.97
100.945
100.888
100.796
100.671
100.51
100.314
100.081
99.8111
99.5036
99.1578
98.7732
98.3494
97.886
97.3827
96.8394
96.2561
95.6331
94.9706
94.2694
93.5303
92.7545
91.9435
91.0988
90.221
89.3159
88.3842
87.4283
86.451
85.4548
84.4424
83.4165
82.3797
81.3349
80.2848
79.2323
78.18
77.1304
76.086
75.0486
74.0198
73.0006
71.9915
70.9925
70.0029
69.0217
68.047
67.0764
66.1067
65.1344
64.1553
63.165
62.1593
61.1344
60.0873
59.0162
57.9206
56.802
55.6634
54.51
53.3488
52.1888
51.0408
49.9177
48.8341
47.8061
46.8514
45.9896
45.242
44.6275
44.1535
43.8123
43.5827
92.4188
92.4786
92.6002
92.7805
93.0134
93.2925
93.6103
93.9589
94.3305
94.7171
95.1116
95.5073
95.8982
96.2791
96.6458
96.9946
97.3225
97.6271
97.9065
98.1593
98.3843
98.5806
98.7473
98.8839
98.9898
99.0644
99.1071
99.1173
99.0944
99.0379
98.9469
98.8209
98.659
98.4606
98.2249
97.9513
97.6392
97.2879
96.897
96.466
95.9946
95.4826
94.93
94.3366
93.7029
93.0291
92.316
91.5645
90.7757
89.9513
89.0927
88.2014
87.2818
86.3358
85.3658
84.3745
83.3647
82.3391
81.3004
80.2516
79.1954
78.1349
77.073
76.0127
74.9567
73.9076
72.8675
71.8379
70.8201
69.8146
68.8213
67.8396
66.8682
65.9052
64.9478
63.9927
63.0358
62.0723
61.0971
60.1052
59.092
58.0534
56.9871
55.8919
54.7687
53.6204
52.452
51.2704
50.085
48.9067
47.7492
46.628
45.5607
44.5667
43.6687
42.8933
42.2651
41.7944
41.4713
41.2689
90.2067
90.2714
90.4025
90.5964
90.8464
91.1455
91.4853
91.8572
92.2524
92.6627
93.0801
93.4977
93.9091
94.3092
94.6933
95.0578
95.3998
95.7169
96.0075
96.2702
96.5038
96.7076
96.8809
97.0232
97.134
97.2126
97.2587
97.2715
97.2506
97.1952
97.1046
96.9781
96.815
96.6144
96.3756
96.098
95.7809
95.4237
95.0259
94.5872
94.1073
93.586
93.0233
92.4192
91.7741
91.0883
90.3626
89.5978
88.7954
87.9567
87.0834
86.1775
85.2426
84.2813
83.2962
82.29
81.2656
80.2258
79.1735
78.1115
77.043
75.9711
74.899
73.8299
72.7668
71.7125
70.6692
69.6387
68.6223
67.6204
66.6332
65.6598
64.699
63.7485
62.8056
61.8665
60.9265
59.9804
59.0222
58.0459
57.046
56.0175
54.9572
53.8632
52.7359
51.5778
50.3936
49.1906
47.9778
46.7668
45.5716
44.4086
43.2968
42.2574
41.3166
40.5077
39.8635
39.3986
39.1
38.9326
87.9729
88.0431
88.1847
88.3938
88.6629
88.984
89.348
89.7453
90.1665
90.6024
91.0448
91.486
91.9195
92.3399
92.7425
93.1237
93.4806
93.811
94.1132
94.3861
94.6287
94.8403
95.0205
95.1687
95.2845
95.3675
95.417
95.4327
95.4138
95.3596
95.2694
95.1425
94.9779
94.775
94.5329
94.251
93.9285
93.565
93.1599
92.713
92.2239
91.6927
91.1192
90.5037
89.8465
89.1479
88.4089
87.6302
86.8133
85.9596
85.0709
84.1492
83.198
82.2204
81.2193
80.1973
79.1573
78.1023
77.0352
75.9592
74.8773
73.793
72.7097
71.6309
70.56
69.4998
68.4529
67.4213
66.4061
65.4081
64.4273
63.4628
62.5132
61.5763
60.6489
59.7272
58.8058
57.8789
56.9397
55.9811
54.9965
53.9799
52.927
51.8352
50.7042
49.5362
48.3357
47.1099
45.8681
44.6218
43.3855
42.1763
41.0143
39.9222
38.9303
38.0809
37.4178
36.9616
36.6956
36.5732
85.716
85.7922
85.9457
86.1716
86.4618
86.8074
87.198
87.6232
88.0727
88.5365
89.0058
89.4724
89.9296
90.3717
90.7939
91.1927
91.5652
91.9094
92.2238
92.5073
92.7592
92.979
93.1662
93.3205
93.4416
93.5289
93.5822
93.6007
93.5839
93.531
93.4413
93.3138
93.1478
92.9425
92.6969
92.4103
92.0821
91.7117
91.2988
90.843
90.3442
89.8023
89.2174
88.5898
87.9198
87.2078
86.4547
85.6614
84.8293
83.9598
83.0549
82.1165
81.1478
80.1531
79.1349
78.0961
77.0395
75.9683
74.8855
73.7942
72.6978
71.6
70.5045
69.4151
68.3355
67.2688
66.2178
65.1847
64.1708
63.1767
62.2025
61.2474
60.3098
59.3874
58.4769
57.5739
56.673
55.7673
54.8492
53.9106
52.9434
51.9406
50.8968
49.8083
48.6743
47.4965
46.2791
45.0292
43.7564
42.4725
41.1918
39.9319
38.7131
37.5596
36.507
35.6088
34.9232
34.4789
34.255
34.1904
83.4345
83.5174
83.684
83.9287
84.2423
84.6149
85.0348
85.4906
85.9709
86.465
86.9633
87.4573
87.9398
88.4049
88.8478
89.2651
89.654
90.0126
90.3395
90.634
90.8955
91.1236
91.318
91.4786
91.6051
91.697
91.7541
91.7756
91.761
91.7095
91.6202
91.4923
91.3247
91.1167
90.8673
90.5758
90.2414
89.8638
89.4424
88.9771
88.4679
87.9147
87.3177
86.6772
85.9937
85.2677
84.4998
83.6912
82.8431
81.9571
81.0352
80.0793
79.0918
78.0789
77.0428
75.9862
74.912
73.8235
72.7238
71.6161
70.5041
69.3917
68.2828
67.1817
66.0924
65.0185
63.9629
62.928
61.9152
60.9252
59.958
59.0128
58.0879
57.1809
56.2884
55.4058
54.5271
53.6448
52.7502
51.8339
50.8866
49.8999
48.867
47.7833
46.6471
45.4593
44.2244
42.9491
41.6434
40.3193
38.9914
37.676
36.3927
35.1673
34.0422
33.0855
32.3732
31.9444
31.7739
31.7838
81.1264
81.217
81.3982
81.6638
82.0035
82.4057
82.8579
83.3472
83.8612
84.3881
84.9177
85.441
85.9504
86.4399
86.9047
87.3414
87.7473
88.1207
88.4607
88.7664
89.0377
89.2743
89.4761
89.6431
89.7751
89.8718
89.9327
89.9574
89.9451
89.895
89.8062
89.6777
89.5085
89.2977
89.0443
88.7474
88.4065
88.021
87.5906
87.1152
86.5947
86.0294
85.4196
84.7656
84.0679
83.3271
82.5439
81.7193
80.8546
79.9514
79.0118
78.0376
77.0296
75.9978
74.9429
73.8674
72.7746
71.6677
70.5499
69.4247
68.2958
67.1673
66.0439
64.93
63.8301
62.748
61.6873
60.6502
59.6384
58.6526
57.6927
56.7578
55.8463
54.9556
54.0823
53.2216
52.367
51.5103
50.6417
49.7506
48.8259
47.8577
46.8379
45.7606
44.623
43.4256
42.1722
40.8702
39.5296
38.1633
36.7851
35.4091
34.0521
32.7411
31.5276
30.499
29.7542
29.3455
29.2425
29.3492
78.79
78.889
79.0866
79.3756
79.7441
80.1793
80.667
81.193
81.7435
82.306
82.8693
83.4239
83.962
84.4773
84.9651
85.4219
85.8455
86.2343
86.5875
86.9048
87.186
87.4312
87.6406
87.8141
87.9517
88.0532
88.1181
88.146
88.1361
88.0875
87.9992
87.8701
87.6992
87.4854
87.2276
86.9251
86.5771
86.1832
85.7431
85.2568
84.7244
84.1463
83.5229
82.8546
82.142
81.3858
80.5866
79.7454
78.8634
77.9424
76.9845
75.9916
74.9607
73.9095
72.8348
71.7395
70.6269
69.5005
68.3634
67.2194
66.0722
64.9265
63.7871
62.659
61.5473
60.4564
59.3897
58.3501
57.3391
56.3576
55.4053
54.4812
53.5838
52.7104
51.8575
51.0201
50.1915
49.3628
48.523
47.6599
46.7608
45.8139
44.8095
43.7404
42.6025
41.3957
40.1235
38.7934
37.4164
36.0057
34.5741
33.1318
31.6904
30.2771
28.9537
27.8334
27.0463
26.6624
26.6443
26.8745
76.423
76.5315
76.7475
77.0625
77.4631
77.9348
78.4616
79.0277
79.618
80.2189
80.8185
81.4066
81.9751
82.5176
83.0294
83.5073
83.9491
84.3536
84.7203
85.0493
85.3405
85.5945
85.8114
85.9915
86.1348
86.2412
86.3103
86.3415
86.334
86.2869
86.1991
86.0694
85.8967
85.6797
85.4173
85.1087
84.7532
84.3502
83.8997
83.4017
82.8566
82.2648
81.6269
80.9436
80.2156
79.4433
78.6276
77.7692
76.8694
75.9299
74.9532
73.9423
72.8841
71.8139
70.7187
69.6023
68.4688
67.3217
66.1642
64.9999
63.8331
62.6685
61.5115
60.368
59.2433
58.1424
57.0692
56.0265
55.0163
54.0391
53.0947
52.182
51.2992
50.444
49.6126
48.8
47.9993
47.201
46.3929
45.5609
44.6905
43.768
42.7817
41.7227
40.5859
39.3702
38.0791
36.7203
35.3056
33.8489
32.3609
30.8464
29.3104
27.7783
26.321
25.084
24.2389
23.8824
23.9683
24.3458
74.0229
74.1421
74.3787
74.7229
75.1592
75.6713
76.2411
76.8512
77.4849
78.1274
78.7658
79.3896
79.9903
80.5614
81.0983
81.5979
82.0585
82.479
82.8595
83.2002
83.5016
83.7643
83.9888
84.1755
84.3245
84.4358
84.5091
84.5436
84.5387
84.4932
84.406
84.2757
84.101
83.8806
83.6133
83.2982
82.9345
82.5218
82.0601
81.5495
80.9907
80.3844
79.7313
79.0322
78.288
77.4991
76.6663
75.7903
74.8722
73.9135
72.9173
71.8913
70.7976
69.7113
68.5943
67.4557
66.3001
65.131
63.9518
62.7659
61.5778
60.3926
59.2166
58.0559
56.9169
55.8049
54.7243
53.6783
52.6686
51.6958
50.7596
49.8587
48.9914
48.155
47.3461
46.5598
45.7889
45.0234
44.2499
43.4525
42.6142
41.7193
40.7538
39.7073
38.5732
37.3498
36.0402
34.6526
33.1995
31.6954
30.149
28.5592
26.9214
25.2544
23.6422
22.2621
21.3433
21.0154
21.2203
21.7775
71.5871
71.7183
71.9781
72.355
72.8312
73.3881
74.0054
74.6635
75.3443
76.0317
76.7119
77.3737
78.0084
78.6095
79.1725
79.6945
80.1742
80.6111
81.0054
81.3578
81.6693
81.9406
82.1727
82.3659
82.5207
82.637
82.7145
82.7525
82.7502
82.7063
82.6197
82.4887
82.312
82.088
81.8154
81.4933
81.1208
80.6977
80.2239
79.6999
79.1264
78.5045
77.8353
77.1197
76.3586
75.5527
74.7024
73.8084
72.8715
71.893
70.8754
69.8217
68.7184
67.6028
66.4617
65.2996
64.1207
62.9284
61.726
60.517
59.3059
58.0983
56.9012
55.7217
54.5668
53.4426
52.3539
51.3039
50.2946
49.3264
48.3987
47.5102
46.6588
45.8421
45.0566
44.2977
43.5584
42.8281
42.0923
41.3329
40.5305
39.6666
38.7254
37.6943
36.5653
35.3358
34.0085
32.5919
31.0995
29.5468
27.9424
26.2786
24.5383
22.7287
20.9365
19.3826
18.3736
18.0813
18.4119
19.1374
69.1123
69.2572
69.5432
69.9568
70.4776
71.0843
71.7539
72.4647
73.1967
73.9325
74.6573
75.3595
76.0301
76.6625
77.2526
77.7977
78.2969
78.7502
79.1583
79.5224
79.8438
80.1237
80.3632
80.5629
80.7234
80.8447
80.9264
80.968
80.9684
80.9262
80.8402
80.7086
80.5296
80.3018
80.0236
79.694
79.3121
78.8776
78.3908
77.8522
77.263
76.6245
75.9382
75.2052
74.4267
73.6032
72.7353
71.823
70.8671
69.8684
68.8288
67.7502
66.6295
65.4872
64.3207
63.1338
61.9302
60.7135
59.4866
58.2528
57.0169
55.7849
54.5647
53.3643
52.1919
51.0542
49.9564
48.9021
47.893
46.9295
46.0108
45.1351
44.3003
43.5039
42.7425
42.0119
41.3056
40.6129
39.9179
39.2002
38.4378
37.6092
36.6963
35.6844
34.5637
33.33
31.9855
30.5385
29.0041
27.4024
25.7444
24.0159
22.18
20.2215
18.2201
16.4483
15.3228
15.0762
15.5565
16.476
66.5952
66.7556
67.0714
67.5264
68.0971
68.759
69.4863
70.2548
71.0425
71.8304
72.603
73.3481
74.0564
74.7215
75.3394
75.9081
76.4271
76.8968
77.3186
77.6942
78.0254
78.3136
78.5603
78.7664
78.9325
79.0588
79.1448
79.19
79.1932
79.1528
79.0675
78.9351
78.7539
78.522
78.2378
77.9
77.5079
77.0612
76.5603
76.006
75.3998
74.7436
74.039
73.2879
72.4914
71.6501
70.7642
69.8337
68.8587
67.8395
66.7777
65.6751
64.5329
63.3641
62.1711
60.958
59.7286
58.4862
57.2334
55.9732
54.7103
53.4517
52.2059
50.9825
49.7907
48.638
47.5303
46.4711
45.4622
44.5037
43.5944
42.7321
41.9145
41.1388
40.402
39.7004
39.0281
38.375
37.7241
37.0525
36.3348
35.5468
34.6674
33.6796
32.5709
31.3345
29.9709
28.489
26.9086
25.2597
23.56
21.7859
19.8696
17.7584
15.5041
13.4411
12.1483
11.959
12.6171
13.7645
64.0318
64.2099
64.5595
65.0613
65.688
66.4115
67.2025
68.0342
68.8822
69.7263
70.55
71.3404
72.0882
72.7873
73.434
74.0267
74.5654
75.0515
75.4868
75.8736
76.2141
76.5104
76.7641
76.9764
77.148
77.2792
77.3696
77.4184
77.4245
77.3859
77.3014
77.1683
76.9846
76.7484
76.4577
76.1112
75.7081
75.2481
74.7318
74.1605
73.536
72.8607
72.1369
71.3667
70.5516
69.6922
68.7886
67.84
66.846
65.8065
64.7225
63.5958
62.4295
61.2335
60.0128
58.7722
57.5158
56.2464
54.9663
53.6778
52.3859
51.0979
49.824
48.575
47.3617
46.1926
45.0739
44.0095
43.0008
42.0476
41.1481
40.2998
39.5
38.7454
38.0333
37.3607
36.7232
36.1117
35.5085
34.888
34.221
33.4799
32.6405
31.6824
30.5887
29.3485
27.9601
26.4351
24.8046
23.1152
21.3941
19.6015
17.6309
15.3662
12.7955
10.3171
8.75567
8.63896
9.52706
10.9686
61.4176
61.6162
62.0043
62.5592
63.2488
64.0409
64.9024
65.8032
66.7168
67.6213
68.4993
69.3375
70.1268
70.8611
71.5371
72.1541
72.7127
73.2149
73.6633
74.0608
74.4103
74.7142
74.9746
75.1928
75.3698
75.5058
75.6006
75.6531
75.6621
75.6259
75.5418
75.408
75.2218
74.9809
74.6833
74.3275
73.9124
73.438
72.9049
72.315
71.6706
70.9747
70.2303
69.4402
68.6061
67.7286
66.8074
65.8412
64.8287
63.7693
62.6631
61.512
60.3198
59.0956
57.8458
56.5762
55.2915
53.9941
52.6852
51.3666
50.0432
48.7229
47.4177
46.1403
44.9031
43.7159
42.5854
41.5153
40.5068
39.5593
38.6703
37.8368
37.0553
36.3223
35.6346
34.9907
34.3883
33.8203
33.269
32.7058
32.0969
31.4104
30.6179
29.6942
28.6156
27.365
25.94
24.361
22.6792
20.9664
19.2517
17.4711
15.4401
13.0043
10.0393
6.98481
4.957
4.96506
6.17675
8.02822
58.7475
58.9697
59.4021
60.0174
60.7779
61.6466
62.5859
63.5624
64.5471
65.5164
66.4522
67.3409
68.1734
68.9439
69.65
70.2914
70.8696
71.3875
71.8485
72.2562
72.6141
72.9252
73.1918
73.4156
73.5978
73.7385
73.8376
73.8939
73.906
73.8718
73.7886
73.654
73.4652
73.2195
72.9145
72.5485
72.1204
71.6302
71.0789
70.4686
69.8025
69.0843
68.318
67.507
66.6534
65.7579
64.8196
63.8366
62.8066
61.7279
60.5998
59.424
58.2046
56.9505
55.67
54.3701
53.0558
51.7291
50.3902
49.0396
47.6819
46.326
44.9859
43.6767
42.4131
41.2061
40.0628
38.9866
37.9785
37.0371
36.1593
35.3414
34.5792
33.8682
33.205
32.589
32.0216
31.499
31.0047
30.5065
29.9645
29.3408
28.6009
27.7127
26.6426
25.3663
23.8857
22.2391
20.5074
18.7914
17.1163
15.3983
13.3966
10.7381
7.20148
3.19639
0.439672
0.779673
2.43683
4.80721
56.0155
56.2653
56.7488
57.4331
58.2736
59.2278
60.2533
61.3126
62.3743
63.4132
64.4103
65.352
66.2293
67.0372
67.7737
68.4395
69.0371
69.57
70.0428
70.46
70.8256
71.1432
71.4156
71.6447
71.8317
71.9771
72.0804
72.1405
72.1558
72.1238
72.0417
71.9064
71.7149
71.4639
71.151
70.774
70.3318
69.8243
69.2529
68.6203
67.9303
67.1879
66.398
65.565
64.6917
63.7785
62.8242
61.8256
60.7794
59.6824
58.5331
57.3323
56.0845
54.7986
53.4856
52.1536
50.8085
49.4516
48.0815
46.697
45.302
43.9066
42.5273
41.1825
39.8895
38.6608
37.5036
36.4211
35.4136
34.479
33.6135
32.8125
32.0712
31.3835
30.7447
30.1556
29.6222
29.147
28.7155
28.2912
27.825
27.2702
26.5837
25.7243
24.6459
23.3194
21.7584
20.0341
18.2606
16.5619
14.9679
13.3693
11.3385
8.46855
4.18721
-1.00654
-2.81944
-4.07651
-1.97997
1.17038
53.2148
53.4972
54.0399
54.8033
55.7344
56.7843
57.905
59.0551
60.2
61.3132
62.3753
63.3724
64.2962
65.1423
65.9096
66.5996
67.2159
67.7632
68.2469
68.6726
69.0451
69.3685
69.646
69.8799
70.0715
70.2213
70.3288
70.3928
70.4114
70.3818
70.3008
70.1649
69.9706
69.7142
69.3927
69.0039
68.5462
68.0198
67.4262
66.7688
66.0526
65.2836
64.4682
63.6122
62.7188
61.7886
60.8195
59.8072
58.7465
57.633
56.4634
55.2378
53.9604
52.6402
51.2926
49.9267
48.5495
47.1616
45.7593
44.3389
42.9033
41.4639
40.0405
38.6555
37.3297
36.0773
34.9053
33.8164
32.8099
31.883
31.0314
30.2496
29.5318
28.8698
28.2559
27.6915
27.1895
26.7617
26.398
26.0551
25.6699
25.1829
24.5402
23.6912
22.5769
21.1689
19.5039
17.7033
15.9219
14.2748
12.7042
11.3457
9.43888
6.41732
1.14458
-7.00864
-12.8486
-10.6431
-5.6953
-1.72577
50.3374
50.6587
51.2706
52.1247
53.1586
54.3159
55.5419
56.7911
58.0259
59.2185
60.349
61.404
62.3758
63.2608
64.059
64.7728
65.4071
65.9676
66.4612
66.8943
67.2726
67.601
67.8829
68.121
68.3169
68.4709
68.5825
68.6505
68.6725
68.6455
68.5658
68.4294
68.2322
67.9701
67.6395
67.2377
66.7632
66.2159
65.5977
64.9129
64.1674
63.3691
62.5261
61.6457
60.7321
59.7859
58.804
57.7802
56.7078
55.5799
54.3916
53.1414
51.8334
50.4763
49.0912
47.6891
46.2785
44.8592
43.4241
41.9661
40.4863
38.9975
37.5239
36.0931
34.7307
33.4524
32.2651
31.1701
30.1655
29.2481
28.4128
27.6536
26.9636
26.3307
25.7416
25.1969
24.719
24.3335
24.0369
23.7761
23.4668
23.0337
22.4118
21.546
20.3648
18.8458
17.0585
15.1921
13.4305
11.9693
10.8304
9.56328
7.79719
4.4987
-1.32241
-6.57424
-3.81507
-0.740782
-0.0162216
0.109009
47.3739
47.7421
48.4353
49.3941
50.5449
51.8225
53.1652
54.5225
55.8541
57.1312
58.3336
59.4488
60.4698
61.3943
62.2233
62.9604
63.6116
64.1842
64.6863
65.1254
65.5084
65.8406
66.1262
66.3679
66.5675
66.7255
66.8413
66.9133
66.939
66.9148
66.8365
66.6998
66.4997
66.2315
65.8911
65.4753
64.9823
64.4119
63.7665
63.0509
62.2727
61.4418
60.5685
59.6622
58.7285
57.7677
56.7755
55.7436
54.6627
53.5236
52.3189
51.0447
49.705
48.3076
46.8816
45.4406
43.9953
42.5444
41.0767
39.5794
38.0513
36.5067
34.9753
33.4922
32.0889
30.7829
29.5804
28.4805
27.4794
26.5738
25.7584
25.0262
24.3693
23.7696
23.2035
22.668
22.1979
21.8392
21.5976
21.4066
21.1556
20.7523
20.1266
19.2247
17.9605
16.3206
14.3977
12.4895
10.7315
9.32349
8.23513
7.3789
5.86316
2.34628
-0.345852
-0.195332
0.192014
0.182996
0.171252
0.157553
44.313
44.739
45.5283
46.608
47.8919
49.3047
50.7765
52.2517
53.6874
55.0538
56.3315
57.5089
58.5803
59.5445
60.4041
61.1637
61.8307
62.4138
62.9227
63.3663
63.7525
64.0874
64.3757
64.6203
64.8232
64.9848
65.1047
65.1808
65.2104
65.1893
65.1127
64.9759
64.7729
64.4983
64.1474
63.7164
63.203
62.6071
61.9311
61.181
60.3661
59.4985
58.5917
57.6578
56.704
55.7307
54.7316
53.6958
52.6108
51.4646
50.2465
48.9496
47.5773
46.1351
44.6641
43.1805
41.6991
40.2174
38.7179
37.1803
35.5992
33.9911
32.3928
30.8492
29.4007
28.0661
26.8498
25.7474
24.7517
23.8606
23.069
22.3681
21.7499
21.1877
20.6409
20.0977
19.6085
19.2462
19.0317
18.8866
18.6724
18.2833
17.6537
16.7308
15.3978
13.647
11.5698
9.64212
7.87107