/*--------------------------------*- C++ -*----------------------------------*\
| =========                 |                                                 |
| \\      /  F ield         | OpenFOAM: The Open Source CFD Toolbox           |
|  \\    /   O peration     | Version:  2.4.0                                 |
|   \\  /    A nd           | Web:      www.OpenFOAM.org                      |
|    \\/     M anipulation  |                                                 |
\*---------------------------------------------------------------------------*/
FoamFile
{
    version     2.0;
    format      ascii;
    class       volScalarField;
    location    "0.397";
    object      p_rgh;
}
// * * * * * * * * * * * * * * * * * * * * * * * * * * * * * * * * * * * * * //

dimensions      [1 -1 -2 0 0 0 0];

internalField   nonuniform List<scalar> 
10000
(
0.00197408
0.00197349
0.00197308
0.00197315
0.00197385
0.00197521
0.00197724
0.0019799
0.00198316
0.00198695
0.00199122
0.0019959
0.00200094
0.00200625
0.00201176
0.00201742
0.00202314
0.00202885
0.0020345
0.00204
0.00204532
0.00205041
0.00205525
0.00205984
0.00206421
0.0020684
0.00207248
0.00207653
0.00208068
0.00208502
0.00208969
0.00209477
0.00210034
0.00210645
0.00211309
0.00212025
0.00212793
0.00213612
0.00214489
0.00215428
0.00216436
0.00217514
0.00218664
0.00219882
0.00221162
0.00222495
0.00223871
0.00225282
0.00226716
0.00228165
0.00197466
0.00197408
0.00197375
0.00197392
0.00197467
0.00197602
0.00197797
0.0019805
0.00198358
0.00198716
0.0019912
0.00199563
0.0020004
0.00200546
0.00201072
0.00201614
0.00202165
0.00202718
0.00203268
0.00203809
0.00204337
0.00204849
0.00205342
0.00205817
0.00206276
0.00206723
0.00207164
0.00207607
0.00208061
0.00208535
0.00209039
0.00209581
0.00210169
0.00210804
0.00211489
0.00212222
0.00213002
0.00213832
0.00214714
0.00215654
0.00216657
0.00217724
0.00218857
0.00220053
0.00221307
0.00222612
0.0022396
0.00225342
0.00226749
0.00228174
0.00197508
0.00197441
0.00197408
0.00197429
0.00197506
0.00197639
0.00197826
0.00198068
0.00198361
0.00198701
0.00199084
0.00199506
0.00199962
0.00200445
0.00200951
0.00201473
0.00202007
0.00202546
0.00203085
0.0020362
0.00204146
0.00204661
0.00205164
0.00205654
0.00206133
0.00206605
0.00207075
0.00207549
0.00208036
0.00208544
0.00209081
0.00209655
0.0021027
0.00210931
0.00211637
0.00212388
0.00213181
0.00214018
0.00214902
0.0021584
0.00216835
0.00217891
0.00219008
0.00220185
0.00221417
0.00222699
0.00224023
0.00225382
0.00226768
0.00228173
0.00197503
0.00197424
0.00197386
0.00197408
0.00197484
0.00197614
0.00197796
0.0019803
0.00198312
0.00198639
0.00199009
0.00199416
0.00199856
0.00200324
0.00200816
0.00201326
0.00201849
0.0020238
0.00202915
0.00203447
0.00203975
0.00204496
0.00205007
0.00205509
0.00206004
0.00206494
0.00206984
0.00207481
0.00207991
0.00208522
0.00209083
0.00209679
0.00210318
0.00211002
0.00211731
0.00212498
0.00213302
0.00214142
0.00215024
0.00215955
0.00216941
0.00217985
0.00219089
0.00220251
0.00221468
0.00222735
0.00224046
0.00225391
0.00226765
0.0022816
0.00197437
0.00197352
0.00197311
0.00197331
0.00197407
0.00197535
0.00197714
0.00197942
0.00198217
0.00198536
0.00198895
0.00199292
0.00199722
0.00200181
0.00200665
0.00201168
0.00201686
0.00202214
0.00202748
0.00203283
0.00203815
0.00204342
0.00204862
0.00205374
0.00205881
0.00206384
0.00206888
0.00207399
0.00207923
0.0020847
0.00209046
0.00209661
0.0021032
0.00211027
0.0021178
0.00212568
0.00213381
0.00214219
0.00215093
0.00216012
0.00216985
0.00218016
0.00219109
0.0022026
0.00221468
0.00222727
0.0022403
0.00225371
0.0022674
0.00228132
0.00197305
0.0019722
0.0019718
0.00197201
0.00197278
0.00197406
0.00197583
0.00197808
0.00198078
0.00198392
0.00198745
0.00199136
0.0019956
0.00200014
0.00200494
0.00200995
0.00201512
0.00202042
0.0020258
0.0020312
0.00203659
0.00204194
0.00204722
0.00205244
0.0020576
0.00206271
0.00206783
0.00207301
0.00207833
0.00208386
0.00208972
0.00209598
0.00210275
0.00211008
0.00211793
0.00212607
0.00213431
0.00214261
0.00215116
0.00216016
0.00216971
0.00217989
0.0021907
0.00220214
0.00221418
0.00222675
0.00223978
0.00225321
0.00226694
0.0022809
0.00197108
0.00197028
0.00196993
0.00197019
0.00197099
0.00197228
0.00197405
0.00197629
0.00197897
0.00198208
0.00198558
0.00198946
0.00199368
0.00199821
0.00200301
0.00200804
0.00201327
0.00201863
0.00202408
0.00202957
0.00203506
0.00204051
0.00204589
0.00205118
0.0020564
0.00206156
0.0020667
0.00207189
0.00207718
0.00208269
0.00208854
0.00209485
0.00210177
0.00210941
0.00211774
0.0021263
0.00213466
0.00214274
0.00215097
0.00215967
0.00216898
0.00217898
0.0021897
0.00220111
0.00221315
0.00222577
0.00223889
0.00225241
0.00226625
0.00228033
0.00196847
0.00196779
0.00196753
0.00196785
0.00196869
0.00197002
0.00197182
0.00197406
0.00197675
0.00197985
0.00198335
0.00198723
0.00199146
0.00199601
0.00200086
0.00200596
0.00201127
0.00201674
0.00202231
0.00202794
0.00203355
0.00203912
0.00204461
0.00204998
0.00205524
0.00206039
0.00206549
0.00207058
0.00207575
0.0020811
0.00208682
0.00209304
0.00210004
0.00210809
0.00211724
0.00212654
0.00213507
0.00214269
0.00215034
0.00215857
0.00216757
0.00217738
0.00218802
0.00219944
0.00221157
0.00222432
0.00223759
0.0022513
0.00226533
0.00227962
0.00196528
0.00196473
0.00196459
0.00196501
0.00196592
0.0019673
0.00196913
0.0019714
0.00197411
0.00197722
0.00198074
0.00198465
0.00198891
0.00199353
0.00199845
0.00200366
0.00200911
0.00201474
0.00202049
0.00202629
0.00203208
0.0020378
0.0020434
0.00204884
0.0020541
0.00205918
0.00206412
0.00206899
0.00207387
0.00207885
0.00208423
0.00209013
0.00209698
0.00210554
0.0021162
0.00212694
0.0021358
0.00214243
0.00214909
0.0021567
0.00216533
0.00217496
0.00218557
0.00219708
0.00220938
0.00222236
0.00223589
0.00224988
0.0022642
0.00227877
0.00196153
0.00196116
0.00196116
0.00196169
0.00196268
0.00196412
0.00196601
0.00196832
0.00197106
0.00197421
0.00197776
0.00198171
0.00198604
0.00199073
0.00199578
0.00200114
0.00200678
0.00201263
0.00201861
0.00202464
0.00203064
0.00203653
0.00204224
0.0020477
0.00205287
0.00205775
0.00206239
0.00206689
0.00207126
0.00207558
0.00208038
0.00208559
0.00209177
0.00210081
0.00211441
0.00212795
0.00213719
0.00214159
0.00214658
0.0021535
0.00216185
0.00217144
0.00218218
0.00219393
0.00220654
0.00221986
0.00223377
0.00224815
0.00226286
0.00227781
0.00195729
0.00195709
0.00195726
0.00195791
0.00195899
0.00196051
0.00196246
0.00196482
0.0019676
0.00197079
0.00197439
0.00197839
0.0019828
0.0019876
0.00199279
0.00199835
0.00200423
0.00201037
0.00201665
0.00202295
0.00202916
0.00203521
0.00204098
0.00204639
0.00205139
0.00205599
0.00206028
0.00206439
0.00206814
0.0020715
0.00207538
0.00207948
0.00208433
0.00209327
0.00211244
0.00213126
0.00214098
0.00214005
0.00214203
0.00214805
0.00215627
0.00216612
0.00217733
0.00218967
0.00220287
0.00221676
0.00223122
0.00224611
0.00226132
0.00227674
0.00195259
0.00195258
0.00195292
0.00195369
0.00195488
0.00195648
0.00195849
0.00196091
0.00196373
0.00196697
0.00197062
0.00197468
0.00197917
0.00198409
0.00198944
0.00199522
0.00200139
0.00200787
0.00201449
0.00202106
0.00202747
0.00203366
0.0020395
0.00204488
0.00204978
0.00205418
0.00205827
0.0020622
0.00206535
0.00206752
0.00207063
0.00207171
0.00207537
0.00208501
0.00211166
0.00214077
0.00215382
0.00213981
0.00213518
0.00213959
0.00214804
0.00215845
0.00217043
0.00218373
0.00219796
0.00221281
0.00222811
0.00224375
0.00225961
0.00227561
0.00194748
0.00194767
0.00194817
0.00194907
0.00195036
0.00195204
0.00195412
0.00195659
0.00195946
0.00196274
0.00196643
0.00197055
0.00197511
0.00198013
0.00198563
0.00199161
0.00199807
0.00200492
0.00201192
0.00201879
0.00202547
0.00203196
0.00203805
0.00204355
0.00204847
0.00205274
0.00205674
0.00206096
0.00206361
0.00206362
0.00206889
0.0020725
0.00205668
0.0020668
0.00214223
0.0021925
0.00218689
0.00214074
0.00212042
0.00212702
0.00213827
0.00214958
0.00216223
0.0021764
0.00219167
0.00220766
0.00222415
0.0022409
0.00225768
0.00227442
0.00194201
0.00194238
0.00194305
0.00194407
0.00194545
0.00194721
0.00194935
0.00195187
0.00195479
0.0019581
0.00196182
0.00196597
0.00197055
0.00197558
0.00198111
0.00198721
0.00199393
0.00200122
0.00200874
0.00201615
0.00202345
0.00203058
0.00203714
0.00204286
0.00204783
0.00205166
0.00205516
0.00206021
0.00206386
0.00206454
0.00206598
0.00207356
0.00209432
0.00205141
0.00216469
0.00227712
0.00224926
0.00213987
0.00210484
0.00212523
0.00213634
0.00214483
0.00215604
0.00216985
0.0021853
0.00220188
0.00221935
0.00223735
0.00225534
0.00227307
0.00193623
0.00193676
0.00193757
0.0019387
0.00194017
0.001942
0.0019442
0.00194676
0.00194971
0.00195305
0.00195677
0.00196087
0.00196534
0.00197024
0.00197571
0.00198188
0.00198888
0.00199671
0.002005
0.00201334
0.00202177
0.00203003
0.00203728
0.00204315
0.00204801
0.0020506
0.00205231
0.0020582
0.00206643
0.00206748
0.00207884
0.00207825
0.00203022
0.00178053
0.0024693
0.00339474
0.00260902
0.00210316
0.00217653
0.0021487
0.00214716
0.00214619
0.00215307
0.002165
0.00217976
0.00219632
0.00221435
0.00223345
0.00225258
0.00227134
0.00193017
0.00193083
0.00193176
0.00193299
0.00193454
0.00193643
0.00193868
0.00194128
0.00194425
0.00194757
0.00195123
0.00195516
0.0019594
0.00196414
0.00196959
0.00197592
0.00198327
0.00199165
0.00200081
0.0020105
0.00202074
0.00203086
0.00203918
0.0020451
0.00204934
0.00204914
0.00204778
0.00205559
0.00206946
0.00209287
0.0020874
0.00220577
0.00222343
0.00297988
0.00940342
0.00950219
0.00950477
0.00519322
0.00224992
0.00216791
0.00214868
0.00214235
0.00214727
0.00215866
0.00217347
0.00219028
0.00220913
0.00222966
0.00224986
0.00226925
0.00192386
0.00192463
0.00192566
0.00192696
0.00192857
0.00193051
0.0019328
0.00193543
0.0019384
0.00194168
0.00194517
0.00194886
0.00195292
0.00195766
0.0019633
0.00196995
0.0019777
0.00198655
0.00199661
0.00200801
0.00202081
0.00203399
0.00204449
0.00205064
0.00205384
0.00204613
0.00203889
0.00204827
0.00206422
0.0020834
0.00211078
0.00213739
0.00218704
0.00231668
0.00842896
0.00960849
0.00944716
0.00273631
0.00217613
0.00215318
0.00213071
0.00212687
0.00213461
0.00214866
0.00216483
0.0021822
0.00220251
0.00222589
0.00224762
0.00226703
0.00191733
0.00191816
0.00191926
0.00192061
0.00192227
0.00192425
0.00192657
0.00192923
0.00193219
0.00193537
0.00193867
0.00194218
0.00194628
0.00195129
0.00195739
0.00196457
0.00197288
0.00198243
0.00199365
0.00200703
0.00202283
0.00204074
0.00205569
0.00206375
0.00207457
0.00205659
0.0020136
0.00205103
0.00207115
0.00207848
0.00209829
0.00209871
0.00212457
0.00213928
0.0025373
0.00336555
0.00290048
0.00212212
0.00216196
0.00212009
0.00210648
0.00210755
0.0021185
0.00213571
0.00215269
0.00216986
0.00219219
0.00222171
0.00224629
0.00226469
0.00191059
0.00191145
0.00191258
0.00191396
0.00191564
0.00191766
0.00192001
0.00192268
0.00192563
0.0019287
0.00193186
0.00193539
0.00193975
0.00194526
0.00195203
0.00195998
0.00196936
0.00198057
0.00199383
0.00200943
0.0020287
0.00205415
0.00207176
0.00208645
0.0020703
0.0020988
0.00313188
0.00207343
0.00208021
0.00207898
0.00208491
0.00210068
0.00207911
0.00210852
0.00216257
0.00220921
0.00214925
0.00202978
0.00202587
0.00205493
0.00208192
0.00209562
0.00210619
0.00212087
0.0021364
0.00215178
0.00217702
0.00221876
0.00224793
0.00226288
0.00190365
0.00190449
0.00190561
0.00190699
0.00190869
0.00191073
0.00191311
0.00191581
0.00191873
0.00192174
0.00192489
0.00192861
0.00193335
0.00193942
0.00194688
0.00195564
0.00196634
0.00198035
0.00199711
0.00201564
0.00204554
0.00208546
0.00211258
0.00211263
0.00210557
0.00212337
0.00230261
0.00214535
0.00208581
0.00207482
0.00207525
0.00207898
0.00209709
0.00211293
0.00215007
0.00213902
0.00211536
0.0020836
0.00207733
0.00208568
0.00209689
0.00209546
0.00208624
0.00210914
0.00211774
0.00212478
0.00215406
0.0022202
0.00225589
0.00226015
0.00189649
0.00189728
0.00189835
0.00189971
0.00190141
0.00190346
0.00190587
0.00190859
0.00191153
0.00191455
0.00191782
0.0019218
0.00192694
0.00193346
0.00194143
0.00195056
0.00196182
0.00197835
0.00200022
0.00202018
0.00205028
0.00209909
0.00215796
0.00237909
0.00223091
0.00218599
0.00215208
0.00209071
0.0020633
0.00206369
0.00206797
0.00206511
0.00206815
0.00209052
0.00210506
0.00211398
0.00210145
0.00208084
0.00207074
0.00207068
0.00207791
0.00210875
0.00275203
0.0021097
0.00209734
0.00206926
0.00211793
0.00225071
0.00229539
0.00225772
0.00188908
0.00188977
0.00189077
0.0018921
0.00189378
0.00189584
0.00189827
0.00190104
0.00190402
0.00190713
0.00191059
0.00191487
0.00192033
0.00192715
0.00193547
0.00194454
0.00195605
0.00197439
0.00200272
0.00199892
0.00196808
0.003283
0.00228765
0.00226349
0.00247946
0.0022521
0.00224883
0.00209671
0.00206733
0.00205902
0.00206064
0.00205739
0.00205108
0.00205518
0.00206477
0.00207493
0.00208315
0.002083
0.00208044
0.00207977
0.00208202
0.00210488
0.00214738
0.0021057
0.00207918
0.00212627
0.00213403
0.00248938
0.002569
0.00243011
0.00188139
0.00188196
0.00188285
0.00188412
0.00188577
0.00188783
0.00189029
0.00189311
0.00189618
0.00189944
0.00190312
0.00190765
0.00191337
0.00192046
0.00192911
0.0019386
0.00195211
0.00197448
0.00199323
0.00203078
0.00231385
0.00226919
0.00244122
0.00317147
0.00868396
0.0111673
0.00800226
0.00255446
0.00211615
0.00209824
0.00206262
0.00203958
0.00203499
0.00203961
0.00204892
0.00206454
0.00208107
0.00209266
0.0021021
0.00210768
0.0021021
0.00210373
0.00211858
0.00211493
0.00212639
0.00209756
0.0029165
0.00789286
0.00666058
0.00275757
0.00187337
0.00187379
0.00187456
0.00187575
0.00187737
0.00187942
0.0018819
0.00188478
0.00188796
0.00189139
0.00189528
0.00190001
0.0019059
0.00191318
0.00192197
0.00193211
0.00194851
0.00196379
0.00199032
0.00274603
0.00204449
0.00216529
0.00227425
0.00884707
0.0105226
0.0108368
0.0106461
0.00648437
0.00217814
0.00221455
0.00278299
0.00199562
0.00201689
0.00202749
0.00203497
0.00204682
0.00206071
0.00207345
0.00208694
0.00211016
0.00214574
0.00214945
0.00212663
0.0021265
0.00221172
0.00242911
0.00630198
0.00799831
0.00834637
0.00748728
0.00186496
0.00186521
0.00186585
0.00186696
0.00186853
0.00187056
0.00187306
0.001876
0.0018793
0.00188291
0.00188698
0.00189185
0.00189782
0.00190511
0.00191408
0.00192606
0.00193894
0.00195841
0.00210067
0.00198076
0.00202888
0.00209086
0.00211791
0.0105666
0.0108624
0.010915
0.0110089
0.00628064
0.00212038
0.00206807
0.00200388
0.00200766
0.00201386
0.00201914
0.00202778
0.00204014
0.0020568
0.0020751
0.00209231
0.00211421
0.00250291
0.0023056
0.00216823
0.00211029
0.00213274
0.00217824
0.00272209
0.00786916
0.00711668
0.00275001
0.0018561
0.00185619
0.00185668
0.0018577
0.00185922
0.00186123
0.00186373
0.00186672
0.00187013
0.0018739
0.00187813
0.00188308
0.00188902
0.0018962
0.001906
0.00191633
0.00193045
0.00198839
0.00195597
0.00197133
0.0020298
0.00205785
0.00209093
0.00424931
0.0101336
0.011046
0.0105059
0.00310628
0.00200726
0.00206004
0.00205951
0.00204182
0.00202007
0.00201174
0.00201656
0.0020288
0.00204764
0.00206777
0.00208261
0.00208987
0.00208011
0.00206131
0.00206995
0.00207869
0.00207354
0.00208573
0.0021805
0.00250773
0.00253992
0.00240646
0.00184674
0.00184666
0.00184702
0.00184795
0.00184941
0.00185139
0.0018539
0.00185691
0.00186041
0.00186432
0.00186868
0.00187367
0.00187949
0.00188681
0.00189549
0.00190538
0.00193031
0.0019265
0.00193605
0.00196643
0.00199708
0.00200339
0.00198884
0.00190258
0.00304613
0.00352623
0.00239656
0.00168264
0.0019355
0.00198272
0.00201304
0.00205191
0.00205446
0.00241265
0.00200743
0.00202453
0.00203952
0.00206172
0.00208551
0.00208257
0.00207231
0.0020631
0.00205805
0.00207464
0.00206145
0.00214276
0.00217206
0.0022581
0.00227308
0.00221203
0.00183681
0.00183659
0.00183683
0.00183767
0.00183908
0.00184103
0.00184352
0.00184655
0.0018501
0.00185412
0.00185859
0.00186359
0.00186934
0.00187613
0.00188394
0.00189401
0.00190212
0.00191202
0.00192143
0.00192888
0.00248424
0.00197476
0.00195592
0.0019416
0.00200326
0.00200735
0.00194272
0.001857
0.00190134
0.00195574
0.00198851
0.00259682
0.00199682
0.0020343
0.0020131
0.00202766
0.0020361
0.00205267
0.00246676
0.00207843
0.00206405
0.00204323
0.00201349
0.00199974
0.00193533
0.00212567
0.00222995
0.00226425
0.00228368
0.00227081
0.00182629
0.00182593
0.00182607
0.00182684
0.0018282
0.00183012
0.00183259
0.00183563
0.00183921
0.0018433
0.00184785
0.00185289
0.00185851
0.00186487
0.00187207
0.00188025
0.00188994
0.00189866
0.00190567
0.00193163
0.00192377
0.00193722
0.00194163
0.00194903
0.00198273
0.00201079
0.00193348
0.00190979
0.00191519
0.00194482
0.0019524
0.00193714
0.00232475
0.00202835
0.00201952
0.00202537
0.00204243
0.00207235
0.00206419
0.00208552
0.00208298
0.00205961
0.0019623
0.00207126
0.00156461
0.00226866
0.00234334
0.00220435
0.00222807
0.00222932
0.00181512
0.00181467
0.00181472
0.00181543
0.00181675
0.00181864
0.0018211
0.00182413
0.00182772
0.00183185
0.00183647
0.00184156
0.00184712
0.00185321
0.0018599
0.00186753
0.00187612
0.00188403
0.00189065
0.00190313
0.00190613
0.00191723
0.00193325
0.00207515
0.00195852
0.00221227
0.00191264
0.00192739
0.00196479
0.00192095
0.00194477
0.00194522
0.00196219
0.00199746
0.00201293
0.00202367
0.00203831
0.00205095
0.00207622
0.00210672
0.00216254
0.00222259
0.00240356
0.0109266
0.0196449
0.0130535
0.00373822
0.0020446
0.00218458
0.00221428
0.00180329
0.00180277
0.00180277
0.00180343
0.00180472
0.0018066
0.00180905
0.00181207
0.00181566
0.0018198
0.00182447
0.00182962
0.0018352
0.0018412
0.00184764
0.00185458
0.00186241
0.00187066
0.00188231
0.0018865
0.00189391
0.00190062
0.00195494
0.00189684
0.00188835
0.00187423
0.00189424
0.0019122
0.00189529
0.001914
0.00193287
0.00194427
0.00196085
0.0019823
0.00199999
0.0020159
0.00203309
0.00205343
0.00208105
0.00211548
0.00217534
0.0023699
0.0112866
0.0179622
0.0185724
0.0180891
0.0144642
0.00273043
0.00226704
0.00221131
0.00179078
0.00179023
0.00179019
0.00179084
0.00179211
0.00179397
0.00179641
0.00179943
0.00180302
0.00180718
0.00181187
0.00181707
0.00182272
0.00182876
0.00183514
0.00184187
0.00184922
0.00185727
0.00186549
0.00187233
0.00187567
0.0018816
0.00188444
0.00188118
0.00188241
0.00187762
0.00188707
0.00188994
0.00189748
0.00191095
0.00192468
0.00193803
0.00195458
0.00197191
0.00198962
0.00200732
0.00202562
0.00204487
0.002065
0.0020843
0.00208228
0.00186999
0.00743873
0.0187725
0.0187053
0.0188253
0.0123019
0.00186438
0.00212597
0.00215369
0.00177759
0.00177703
0.00177699
0.00177763
0.0017789
0.00178077
0.00178321
0.00178624
0.00178983
0.00179399
0.0017987
0.00180394
0.00180966
0.00181579
0.00182226
0.00182903
0.00183621
0.00184381
0.00185087
0.00185689
0.00186238
0.00186775
0.0018703
0.00187275
0.00187476
0.00187298
0.00187673
0.00188458
0.00189411
0.0019056
0.00191832
0.00193146
0.0019463
0.00196283
0.0019803
0.00199906
0.00201939
0.00204387
0.00207675
0.00211947
0.0021808
0.00237411
0.0113634
0.0178224
0.018494
0.0182931
0.015481
0.00270886
0.00220296
0.00215803
0.00176372
0.00176319
0.00176316
0.00176382
0.0017651
0.00176698
0.00176944
0.00177248
0.00177609
0.00178026
0.00178499
0.00179025
0.00179601
0.00180223
0.00180883
0.00181574
0.00182293
0.00183025
0.00183733
0.00184398
0.00184985
0.00185537
0.00185881
0.0018615
0.0018648
0.00186857
0.00187472
0.00188156
0.00188968
0.00189989
0.00191128
0.00192352
0.00193715
0.0019523
0.00196908
0.00198785
0.00200761
0.00203368
0.00206737
0.0021173
0.0021754
0.00225037
0.00241074
0.0115485
0.0191457
0.0150179
0.00393791
0.00166102
0.00201075
0.00208531
0.00174919
0.0017487
0.00174872
0.0017494
0.00175071
0.00175261
0.00175509
0.00175816
0.00176179
0.00176599
0.00177073
0.00177602
0.00178181
0.00178806
0.00179472
0.00180172
0.00180896
0.00181633
0.00182363
0.00183056
0.0018372
0.00184333
0.00184903
0.00185415
0.00185968
0.0018653
0.0018712
0.00187749
0.0018848
0.00189352
0.00190339
0.0019143
0.00192644
0.00193992
0.00195529
0.00197312
0.00199412
0.00201996
0.002063
0.00210829
0.00212473
0.00215635
0.00218592
0.00213722
0.00158253
0.00224696
0.00225807
0.0019975
0.00224376
0.00204353
0.00173401
0.00173358
0.00173365
0.00173438
0.00173573
0.00173766
0.00174018
0.00174327
0.00174694
0.00175117
0.00175595
0.00176126
0.00176706
0.00177332
0.00177995
0.0017869
0.00179409
0.00180141
0.00180872
0.00181592
0.00182298
0.00182979
0.00183635
0.00184283
0.00184929
0.00185595
0.00186326
0.0018711
0.00187937
0.00188807
0.00189693
0.00190577
0.00191539
0.00192631
0.0019397
0.00195621
0.00197687
0.001998
0.00201337
0.00203923
0.00206245
0.00208444
0.00208684
0.00204977
0.00194483
0.00208387
0.00212123
0.00202794
0.00199474
0.00204303
0.00171819
0.00171784
0.00171798
0.00171877
0.00172016
0.00172214
0.0017247
0.00172784
0.00173155
0.00173582
0.00174064
0.00174599
0.00175181
0.00175805
0.00176466
0.00177158
0.00177875
0.00178608
0.00179349
0.00180087
0.00180817
0.00181533
0.00182226
0.00182906
0.00183598
0.00184326
0.00185092
0.0018589
0.0018673
0.00187617
0.00188546
0.00189464
0.00190432
0.00191412
0.00192521
0.00193848
0.00195413
0.00197206
0.00198964
0.0020091
0.00202697
0.00204002
0.00204144
0.00202953
0.00198741
0.00203954
0.00206977
0.00204918
0.00203462
0.00205095
0.00170176
0.0017015
0.00170171
0.00170256
0.00170401
0.00170604
0.00170865
0.00171184
0.00171561
0.00171993
0.00172481
0.00173019
0.00173603
0.00174228
0.00174891
0.00175588
0.00176314
0.00177063
0.00177827
0.00178598
0.00179369
0.00180136
0.00180895
0.00181649
0.00182411
0.00183189
0.00183976
0.00184751
0.00185515
0.00186253
0.00186952
0.00187542
0.00188352
0.0018929
0.00190528
0.00191972
0.00193453
0.00194901
0.00196398
0.00198011
0.00199506
0.00200621
0.00201043
0.0020082
0.00199318
0.00202151
0.00204518
0.00208986
0.00204108
0.00204729
0.00168474
0.00168456
0.00168485
0.00168577
0.00168728
0.00168937
0.00169204
0.00169529
0.00169912
0.00170351
0.00170844
0.00171385
0.00171972
0.001726
0.0017327
0.0017398
0.00174726
0.00175501
0.00176299
0.00177113
0.00177935
0.0017876
0.00179585
0.00180411
0.00181243
0.00182085
0.00182919
0.00183709
0.00184467
0.00185162
0.00185756
0.00185906
0.0018642
0.00186834
0.00187629
0.00188898
0.00190548
0.0019236
0.00194139
0.00195682
0.00196936
0.00197902
0.00198502
0.00198746
0.00198578
0.00199971
0.00200404
0.00201461
0.00202763
0.00204627
0.00166714
0.00166704
0.00166741
0.00166839
0.00166997
0.00167212
0.00167486
0.00167818
0.00168207
0.00168653
0.00169151
0.00169696
0.00170285
0.00170921
0.00171604
0.00172335
0.00173108
0.00173918
0.00174757
0.00175619
0.00176496
0.00177382
0.00178273
0.00179168
0.00180071
0.00180984
0.00181884
0.00182719
0.00183557
0.00184318
0.00184982
0.00184289
0.00184615
0.00184343
0.00184805
0.00185893
0.00187374
0.00189078
0.0019091
0.00192814
0.00194545
0.0019576
0.00196506
0.00196961
0.00197313
0.00198279
0.00199104
0.00200047
0.00201339
0.00202916
0.00164897
0.00164895
0.00164939
0.00165044
0.00165208
0.0016543
0.00165711
0.0016605
0.00166447
0.00166899
0.00167401
0.00167949
0.00168544
0.00169192
0.00169895
0.00170652
0.00171459
0.00172309
0.00173194
0.00174107
0.0017504
0.00175987
0.00176942
0.00177902
0.00178873
0.00179857
0.00180833
0.00181771
0.00182858
0.00184102
0.00185202
0.00182883
0.0018305
0.00181681
0.00181586
0.0018259
0.00184185
0.00186006
0.00187858
0.00189627
0.00191278
0.00192882
0.00194297
0.00195273
0.00195888
0.00196667
0.001976
0.00198661
0.00199845
0.00201269
0.00163025
0.00163029
0.00163081
0.00163192
0.00163362
0.00163591
0.00163878
0.00164224
0.00164629
0.00165086
0.00165592
0.00166144
0.00166749
0.00167413
0.00168141
0.00168931
0.00169775
0.00170669
0.00171603
0.0017257
0.00173562
0.00174569
0.00175583
0.00176602
0.00177627
0.00178662
0.00179703
0.00180815
0.00182465
0.00184522
0.00189137
0.00181667
0.00182464
0.00178137
0.00177055
0.00178597
0.00180724
0.00182903
0.00184971
0.00186863
0.00188566
0.00190087
0.00191429
0.00192737
0.00194008
0.00195118
0.00196041
0.00197019
0.00198065
0.00199171
0.00161097
0.00161107
0.00161165
0.00161282
0.00161458
0.00161693
0.00161987
0.0016234
0.00162751
0.00163213
0.00163722
0.0016428
0.00164899
0.00165586
0.00166342
0.00167166
0.00168052
0.00168993
0.00169979
0.00171003
0.00172054
0.00173122
0.00174195
0.00175261
0.00176317
0.00177351
0.00178361
0.00179486
0.00182284
0.00187817
0.00189833
0.00180915
0.0018338
0.00172472
0.00171721
0.00173885
0.00176935
0.00179757
0.00182203
0.00184291
0.0018609
0.00187661
0.0018904
0.00190291
0.00191471
0.00192744
0.0019411
0.00195419
0.00196212
0.00196937
0.00159114
0.00159129
0.00159191
0.00159313
0.00159495
0.00159736
0.00160037
0.00160397
0.00160814
0.00161279
0.0016179
0.00162358
0.00162995
0.00163707
0.00164494
0.00165354
0.00166282
0.00167271
0.00168312
0.00169396
0.00170512
0.00171647
0.00172782
0.00173892
0.00174946
0.00175897
0.00176663
0.00177134
0.00178552
0.00193378
0.00541255
0.00833284
0.00591624
0.00191542
0.00161518
0.00168667
0.00173348
0.00176771
0.00179643
0.00181933
0.00183828
0.00185443
0.00186845
0.00188089
0.00189233
0.00190355
0.00191494
0.00192761
0.0019404
0.0019504
0.00157076
0.00157094
0.0015716
0.00157287
0.00157473
0.0015772
0.00158027
0.00158393
0.00158814
0.00159281
0.00159797
0.00160379
0.00161036
0.00161773
0.00162591
0.00163487
0.00164456
0.00165493
0.00166589
0.00167736
0.00168925
0.00170141
0.00171359
0.00172537
0.00173586
0.00174339
0.00174696
0.00173765
0.00165684
0.00591139
0.0121216
0.0132347
0.0125693
0.00639152
0.0016041
0.00166338
0.0017112
0.00174568
0.00177508
0.00179866
0.00181791
0.00183412
0.00184804
0.00186015
0.00187088
0.00188087
0.00189062
0.001901
0.00191246
0.00192058
0.00154981
0.00155001
0.00155071
0.00155201
0.00155392
0.00155643
0.00155956
0.00156328
0.00156751
0.00157219
0.00157744
0.00158341
0.0015902
0.00159781
0.00160627
0.00161554
0.00162561
0.00163641
0.00164788
0.00165997
0.00167263
0.00168581
0.00169932
0.0017129
0.00172557
0.00173539
0.0017398
0.00174271
0.00175845
0.0121707
0.0129883
0.0130418
0.013264
0.0105952
0.00163662
0.00164799
0.00169356
0.00172894
0.00175746
0.00178095
0.00179978
0.00181549
0.00182897
0.00184049
0.00185029
0.00185899
0.00186692
0.00187452
0.00188301
0.00188997
0.00152829
0.00152851
0.00152922
0.00153055
0.0015325
0.00153506
0.00153823
0.00154199
0.00154623
0.00155095
0.00155629
0.00156242
0.00156942
0.00157726
0.00158595
0.00159548
0.00160583
0.00161695
0.00162881
0.0016414
0.00165475
0.00166898
0.00168419
0.00170009
0.00171801
0.00173851
0.00176545
0.00180583
0.00184397
0.0041817
0.0112461
0.013085
0.0121458
0.00535565
0.00165372
0.00170816
0.00170831
0.00172849
0.00174998
0.00176909
0.0017849
0.00179873
0.00181117
0.00182196
0.00183049
0.00183776
0.00184394
0.00184921
0.00185397
0.00185951
0.00150619
0.00150641
0.00150714
0.00150849
0.00151047
0.00151307
0.00151628
0.00152006
0.00152431
0.00152907
0.00153452
0.00154082
0.001548
0.00155602
0.00156489
0.00157458
0.00158509
0.00159639
0.00160844
0.00162129
0.00163504
0.00164995
0.00166621
0.00168269
0.00170595
0.0017299
0.00175751
0.00179666
0.00188087
0.00209504
0.00390651
0.00881979
0.00506506
0.00183971
0.00172326
0.00170072
0.00170904
0.00172334
0.00174257
0.0017629
0.00177442
0.00178392
0.00179455
0.00180395
0.00181134
0.00181739
0.00182179
0.00182494
0.00182773
0.00183042
0.00148349
0.0014837
0.00148444
0.00148582
0.00148782
0.00149045
0.00149369
0.00149749
0.00150175
0.00150657
0.00151214
0.00151858
0.0015259
0.00153405
0.00154301
0.00155278
0.00156332
0.00157463
0.0015867
0.00159959
0.00161343
0.00162867
0.00164508
0.00166239
0.001692
0.00170915
0.00173596
0.0017731
0.00182632
0.00188651
0.00187046
0.00175314
0.00168397
0.00174323
0.00171576
0.00170176
0.00170531
0.00171473
0.0017369
0.00175
0.00175762
0.00176653
0.00177708
0.00178742
0.00179484
0.00179948
0.00180182
0.00180195
0.00180169
0.00180179
0.00146017
0.00146038
0.00146113
0.00146252
0.00146454
0.0014672
0.00147047
0.00147427
0.00147855
0.00148344
0.00148912
0.00149568
0.00150309
0.0015113
0.00152029
0.00153002
0.0015405
0.00155172
0.00156368
0.00157647
0.0015902
0.00160511
0.00162155
0.00164045
0.00165851
0.00167953
0.00170596
0.00173491
0.00176707
0.00179022
0.00179516
0.00171714
0.00170453
0.00169834
0.00169666
0.00169488
0.00169658
0.00169939
0.00173045
0.00172567
0.00173686
0.00174839
0.00175913
0.00180902
0.00177784
0.00178259
0.00178314
0.00178053
0.00177637
0.00177217
0.0022962
0.00231075
0.00232523
0.0023396
0.00235381
0.00236782
0.00238161
0.00239513
0.00240835
0.00242122
0.00243368
0.0024457
0.00245723
0.00246824
0.00247874
0.00248875
0.00249832
0.00250752
0.00251641
0.00252503
0.00253337
0.00254139
0.00254908
0.00255649
0.00256373
0.00257088
0.00257796
0.00258492
0.00259171
0.00259824
0.00260445
0.00261031
0.0026158
0.00262095
0.00262579
0.00263035
0.00263468
0.00263879
0.00264273
0.00264649
0.00265007
0.00265344
0.00265656
0.00265938
0.00266182
0.0026638
0.00266523
0.00266606
0.00266627
0.00266605
0.00229607
0.00231043
0.00232475
0.00233898
0.00235307
0.00236698
0.00238067
0.0023941
0.00240723
0.00242002
0.00243243
0.00244441
0.00245594
0.00246699
0.00247757
0.00248769
0.00249741
0.00250676
0.00251579
0.00252454
0.002533
0.00254112
0.00254891
0.00255641
0.00256372
0.00257092
0.00257801
0.00258498
0.00259176
0.0025983
0.00260455
0.00261047
0.00261605
0.00262129
0.00262623
0.00263088
0.00263527
0.00263942
0.00264335
0.00264707
0.00265057
0.00265384
0.00265683
0.0026595
0.00266179
0.00266365
0.00266502
0.00266582
0.00266605
0.00266582
0.0022959
0.00231011
0.00232431
0.00233843
0.00235244
0.00236627
0.00237989
0.00239327
0.00240634
0.00241909
0.00243146
0.00244342
0.00245496
0.00246605
0.0024767
0.00248692
0.00249675
0.00250623
0.0025154
0.00252429
0.00253289
0.00254112
0.00254898
0.00255651
0.00256384
0.00257107
0.00257819
0.00258519
0.00259201
0.0025986
0.00260491
0.00261091
0.00261658
0.00262192
0.00262694
0.00263166
0.0026361
0.00264028
0.00264421
0.00264789
0.00265132
0.00265449
0.00265737
0.00265993
0.00266213
0.00266391
0.00266523
0.00266603
0.00266627
0.00266605
0.00229567
0.00230981
0.00232395
0.00233804
0.00235201
0.00236582
0.00237943
0.00239279
0.00240585
0.00241859
0.00243097
0.00244295
0.00245451
0.00246564
0.00247633
0.00248661
0.00249651
0.00250608
0.00251535
0.00252439
0.00253316
0.00254151
0.00254937
0.00255683
0.00256412
0.00257135
0.00257852