/*--------------------------------*- C++ -*----------------------------------*\
| =========                 |                                                 |
| \\      /  F ield         | OpenFOAM: The Open Source CFD Toolbox           |
|  \\    /   O peration     | Version:  2.4.0                                 |
|   \\  /    A nd           | Web:      www.OpenFOAM.org                      |
|    \\/     M anipulation  |                                                 |
\*---------------------------------------------------------------------------*/
FoamFile
{
    version     2.0;
    format      ascii;
    class       volScalarField;
    location    "0.186";
    object      p_rgh;
}
// * * * * * * * * * * * * * * * * * * * * * * * * * * * * * * * * * * * * * //

dimensions      [1 -1 -2 0 0 0 0];

internalField   nonuniform List<scalar> 
3600
(
94.5435
91.9806
89.2602
87.788
88.2005
89.8757
92.3864
93.7666
95.1528
95.7138
96.369
96.2658
96.3935
96.5028
96.2108
96.3166
96.3462
96.0603
95.6489
94.7865
94.4242
95.8048
96.0071
96.5835
97.6476
97.877
98.017
98.599
98.8399
98.9148
94.5479
91.9786
89.25
87.7736
88.1869
89.8724
92.3931
93.7749
95.1626
95.724
96.3815
96.2704
96.401
96.5141
96.2065
96.323
96.3413
95.9434
95.2571
94.7328
94.0443
93.923
94.3406
95.0269
95.9982
96.8287
97.3319
97.5532
97.6667
97.7514
94.5606
91.9779
89.232
87.7467
88.1591
89.8633
92.4061
93.7852
95.1773
95.7443
96.3942
96.2715
96.4071
96.5197
96.2078
96.3479
96.2766
95.8968
95.2821
94.6323
93.5224
92.8739
93.6325
94.6259
95.3724
96.2698
96.9559
97.282
97.3729
97.4415
94.5815
91.9786
89.206
87.7062
88.1166
89.8483
92.4246
93.7978
95.1961
95.7751
96.415
96.2707
96.4089
96.5238
96.2235
96.3949
96.344
95.9509
95.3304
94.2957
92.0647
91.6067
92.9219
94.0044
94.8971
95.7778
96.3312
96.7506
96.9104
96.9581
94.6108
91.9805
89.1717
87.652
88.0594
89.8277
92.4491
93.8127
95.2187
95.8164
96.4466
96.2719
96.4009
96.5232
96.2408
96.448
96.4179
96.1456
95.3298
93.948
91.2839
90.4126
91.7966
92.9984
93.985
95.127
96.0923
96.5451
96.5261
96.557
94.6487
91.9839
89.1289
87.5839
87.9869
89.8016
92.4803
93.8296
95.2448
95.8677
96.4892
96.2778
96.3773
96.5118
96.2562
96.4665
96.393
96.1998
95.3971
94.0453
90.9089
89.8566
91.456
93.0322
93.9786
95.0155
95.7041
96.1463
96.3027
96.3617
94.6953
91.9887
89.0775
87.5016
87.8987
89.7702
92.5187
93.8479
95.2741
95.9283
96.5385
96.2881
96.3768
96.5003
96.2627
96.425
96.2618
96.1402
95.248
93.9719
90.8652
89.8733
91.4029
92.7778
94.0133
94.8686
95.5188
95.9538
96.1691
96.2325
94.7508
91.9951
89.0173
87.4049
87.795
89.7335
92.5651
93.867
95.3069
95.998
96.5933
96.2975
96.4359
96.5121
96.2261
96.3456
96.0521
96.0113
95.0252
93.6293
91.0111
90.3103
91.4487
92.9611
94.0594
94.7593
95.3148
95.7111
95.9374
96.0125
94.8154
92.0031
88.9481
87.2934
87.6739
89.6918
92.6207
93.8861
95.3438
96.0784
96.6557
96.298
96.5377
96.542
96.1627
96.2971
95.9133
95.867
94.9701
93.7266
91.8503
91.0578
92.2062
93.296
94.1986
94.7681
95.1974
95.4985
95.6957
95.8099
94.8893
92.0129
88.8697
87.1665
87.5344
89.6453
92.6866
93.9041
95.3853
96.1741
96.7291
96.2872
96.6404
96.5687
96.1073
96.2725
95.8887
95.77
95.0213
94.0024
92.7588
92.3108
92.9325
93.728
94.3611
94.8132
95.1272
95.3421
95.4833
95.5899
94.9726
92.0246
88.7818
87.0239
87.3756
89.5943
92.7645
93.9196
95.4315
96.2881
96.8127
96.2641
96.7275
96.5926
96.063
96.2368
95.8773
95.7023
95.1193
94.3902
93.6915
93.2616
93.5877
94.0376
94.4869
94.8503
95.1067
95.2469
95.3373
95.3936
95.0658
92.0384
88.6842
86.8648
87.1965
89.5393
92.856
93.9307
95.4819
96.4211
96.9042
96.2313
96.8129
96.6461
96.0279
96.1741
95.8073
95.6396
95.2075
94.7147
94.1806
93.9197
94.0417
94.304
94.5859
94.8355
95.0349
95.1629
95.2235
95.2321
95.1691
92.0545
88.5767
86.6887
86.9956
89.4807
92.9631
93.9351
95.5355
96.5744
96.9997
96.1916
96.8976
96.7215
96.0006
96.1427
95.6937
95.6084
95.2765
94.9288
94.5577
94.4068
94.4369
94.524
94.6414
94.7987
94.9548
95.0727
95.1336
95.1344
95.2828
92.073
88.459
86.4946
86.7715
89.4192
93.0879
93.9298
95.5919
96.7508
97.0971
96.1385
97.0051
96.8198
95.9782
96.096
95.5792
95.591
95.3262
95.1001
94.888
94.7827
94.7506
94.6846
94.6104
94.5754
94.7165
94.9529
95.0663
95.0188
95.4073
92.0943
88.3307
86.2816
86.5222
89.3556
93.2328
93.9115
95.65
96.9539
97.2036
96.0684
97.1281
96.9454
95.9966
96.0276
95.4558
95.535
95.3503
95.2281
95.1259
95.0153
94.948
94.9026
94.8015
94.6325
94.6275
94.8001
94.9519
94.8757
95.5429
92.1185
88.1916
86.0488
86.2459
89.2907
93.4003
93.8754
95.7105
97.1891
97.2949
95.9781
97.271
97.0545
95.9328
95.8593
95.3295
95.4724
95.3548
95.3261
95.3147
95.1633
95.0337
94.9921
95.0051
94.9878
94.8746
94.7997
94.8225
94.7764
95.6902
92.1459
88.0411
85.795
85.9403
89.2258
93.5926
93.819
95.7738
97.4474
97.3842
95.8524
97.4241
97.2022
95.8729
95.5959
95.0811
95.4192
95.4294
95.398
95.5101
95.2823
95.0668
94.9252
94.866
94.848
94.8701
94.7256
94.6957
94.7794
95.8496
92.1769
87.8788
85.5191
85.6028
89.1623
93.8126
93.7324
95.8368
97.7568
97.441
95.6813
97.604
97.3947
95.7801
95.2574
94.7931
95.3667
95.493
95.4451
95.6177
95.4267
95.0934
94.9
94.7789
94.7669
94.8385
94.7817
94.772
94.8982
96.0215
92.2118
87.7041
85.2197
85.2307
89.1021
94.0611
93.6264
95.9132
98.0879
97.489
95.4843
97.7789
97.5273
95.5817
94.7074
94.5188
95.3282
95.5073
95.4871
95.7126
95.5089
95.1185
94.9452
94.757
94.7311
94.875
94.8844
94.8485
94.9031
96.2065
92.2508
87.5164
84.8954
84.8215
89.0477
94.3413
93.4613
95.9812
98.478
97.4749
95.1686
97.9292
97.7486
95.392
94.0883
94.2966
95.2651
95.4584
95.4306
95.7579
95.4193
94.8372
94.7604
94.7993
94.8254
94.9501
94.9431
94.8629
94.8841
96.4056
92.2947
87.3153
84.5451
84.3793
89.0026
94.6529
93.292
96.0633
98.8523
97.4255
94.9863
98.124
97.9269
95.0763
93.5535
94.097
95.244
95.4112
95.3484
95.4782
95.079
94.4599
94.6471
94.9157
95.0105
95.0393
94.993
94.9435
94.9532
96.6188
92.3445
87.1004
84.1693
83.8798
88.9701
94.9903
93.0404
96.1902
99.3472
95.8012
94.4623
98.333
98.3645
94.768
92.8532
93.9925
95.3119
95.3455
95.2682
95.137
95.0076
94.5534
94.6842
95.0193
95.1218
95.1083
95.0544
95.0201
95.0143
96.848
92.4014
86.8725
83.7726
83.3522
88.9563
95.3881
92.7619
96.3142
99.7032
97.0772
92.7568
98.059
98.573
94.4455
91.877
93.5
95.3216
95.3003
94.7084
94.9631
95.0842
94.7619
94.8785
95.1192
95.0984
95.0847
95.0549
95.0401
95.0176
97.0945
92.463
86.6352
83.3673
82.7819
88.967
95.782
92.3665
96.4849
99.8538
97.3877
94.3703
97.3461
98.3041
93.569
90.2335
92.6874
95.7607
95.2652
94.8769
95.0127
95.7153
94.9731
95.2281
95.2352
95.1833
95.1246
95.0574
95.0168
94.9848
97.3583
92.5359
86.3935
82.9501
81.424
88.9974
96.2718
96.2662
96.6839
100.724
98.9745
93.1393
96.5874
97.8248
92.6038
89.765
92.8119
96.0957
94.8166
94.7391
94.9612
95.1032
95.1764
95.3681
95.2801
95.1445
95.0822
95.0153
94.9834
94.9331
97.6412
92.6188
86.1279
57.3863
39.653
80.1857
95.9197
95.1295
96.8942
101.001
99.5221
94.6145
96.4282
97.2561
92.7075
89.8543
92.9425
96.4731
94.426
94.4765
95.2225
95.2612
95.4003
95.4423
95.2651
95.2124
95.1472
95.0474
94.9877
94.8957
97.9341
92.7039
52.7807
3.20047
13.8944
58.542
97.0338
102.535
97.2577
101.855
100.312
95.1953
96.9413
96.9365
93.5106
90.9976
93.4206
97.0051
94.5154
94.6225
96.0335
95.1655
95.6179
95.3478
95.1303
95.0642
95.1495
95.0375
94.9784
94.8554
98.2275
88.4305
6.08777
0.499887
16.6786
57.9985
92.921
93.9751
96.9552
102.159
101.571
95.4741
97.5295
97.348
94.6245
92.2581
94.2407
97.4074
94.4704
95.2953
95.8067
95.0484
95.7894
95.4034
95.3672
95.2342
95.2857
95.107
94.963
94.802
97.2042
30.8029
2.81127
0.155369
1.58453
33.678
83.0329
90.4558
97.2487
102.393
102.259
95.9663
98.0657
97.905
94.9097
91.9644
94.5316
97.8562
93.6091
95.4736
94.6043
90.3065
92.6451
95.246
91.5979
89.8666
88.8082
87.1512
85.7638
84.7711
89.2107
1.66697
0.00259511
0.0661511
0.119443
8.29291
41.4152
56.8818
86.6704
102.577
102.122
90.5449
97.6429
81.3886
51.2917
37.8771
35.6206
63.7343
23.4022
40.2608
27.6357
36.8391
30.4826
27.4431
27.3629
28.0469
26.6051
26.5468
26.2852
25.6649
98.9405
98.8537
98.3135
98.2258
98.4148
97.5526
96.6097
96.0612
95.4384
94.0948
94.438
95.2277
95.563
95.9699
95.8759
95.8107
96.0088
95.8656
95.6821
95.6268
94.822
94.6215
93.678
92.9489
90.686
88.9461
88.1999
89.466
92.2204
94.6739
97.738
97.71
97.6643
97.3989
96.9442
96.1435
95.2457
94.444
93.6731
93.6788
94.3555
94.7795
95.3991
95.9113
95.8822
95.8098
96.0218
95.873
95.6902
95.6357
94.8272
94.6248
93.6854
92.9576
90.6873
88.935
88.1858
89.4544
92.2188
94.678
97.4244
97.4407
97.3151
96.9552
96.5
95.7506
94.9891
93.8295
92.2462
92.7691
94.1214
94.8161
95.3738
95.847
95.905
95.8141
96.0299
95.8768
95.6969
95.6455
94.8321
94.6278
93.6954
92.9754
90.6884
88.9121
88.1581
89.4338
92.2189
94.6901
96.9237
96.9296
96.811
96.5344
96.0951
95.371
94.5177
93.0207
91.2081
91.6728
93.7615
94.8359
95.4608
95.9248
95.9474
95.8386
96.0351
95.8736
95.7042
95.6586
94.8383
94.6301
93.7085
93.0015
90.6892
88.8769
88.1162
89.4035
92.2207
94.71
96.5787
96.746
96.5907
95.9864
95.3537
94.448
93.5653
92.0237
90.1264
90.9844
93.3985
94.7565
95.6394
96.0026
96.013
95.8674
96.0358
95.8602
95.7167
95.6778
94.8463
94.6318
93.7252
93.0364
90.6899
88.8292
88.0601
89.3635
92.2242
94.7381
96.3614
96.2989
96.0886
95.7246
95.1241
94.3571
93.4145
91.7365
90.015
90.7411
93.3736
95.0061
95.6785
95.9857
96.0366
95.8951
96.027
95.8267
95.739
95.7039
94.8555
94.6326
93.7453
93.0803
90.6909
88.7713
87.9895
89.3134
92.2295
94.7744
96.2218
96.1038
95.8399
95.4159
94.9953
94.3481
93.3054
91.6359
90.2059
90.7889
93.2532
94.7427
95.6436
95.8778
96.0039
95.9178
96.0141
95.7981
95.7728
95.7335
94.8645
94.6319
93.769
93.134
90.6925
88.6977
87.9041
89.2532
92.2366
94.8191
95.9942
95.8685
95.5951
95.2166
94.7711
94.2054
93.3929
92.1197
90.7199
91.2671
93.1801
94.6148
95.5417
95.694
95.929
95.9063
96.0258
95.8207
95.8152
95.765
94.8724
94.6293
93.7959
93.1981
90.6952
88.61
87.8035
89.1824
92.2458
94.8724
95.7571
95.6384
95.3899
95.0871
94.7428
94.3084
93.7053
92.7881
91.7517
92.0073
93.3687
94.607
95.4432
95.5629
95.8753
95.8644
96.063
95.8936
95.8588
95.7991
94.8792
94.6242
93.8261
93.2734
90.6996
88.5077
87.6872
89.101
92.2571
94.9345
95.5056
95.4257
95.2485
95.0227
94.7527
94.4129
93.9833
93.4336
92.8249
93.0445
93.7829
94.7121
95.3983
95.5359
95.8542
95.8286
96.0997
95.9851
95.9003
95.841
94.8862
94.6162
93.8596
93.361
90.7064
88.3899
87.5548
89.0084
92.2707
95.0054
95.3471
95.2983
95.1566
94.9869
94.7785
94.5029
94.1989
93.8572
93.5833
93.7066
94.2352
94.8287
95.3841
95.5512
95.8427
95.809
96.1246
96.0505
95.9364
95.8932
94.8947
94.6045
93.8961
93.4621
90.7164
88.2557
87.4055
88.9044
92.2868
95.0856
95.2226
95.1837
95.0893
94.949
94.7712
94.5619
94.3956
94.2201
94.0505
94.1229
94.5048
94.9185
95.3694
95.5403
95.8393
95.8029
96.1752
96.0957
95.9698
95.9563
94.9046
94.5878
93.935
93.5781
90.7307
88.104
87.2387
88.7886
92.3056
95.1753
95.1394
95.086
94.9407
94.7726
94.6746
94.575
94.5539
94.5244
94.4009
94.4452
94.6675
94.9806
95.3717
95.5009
95.8608
95.8371
96.2465
96.1231
96.0066
96.0273
94.9143
94.5646
93.976
93.7107
90.7502
87.9337
87.0533
88.6605
92.3273
95.2747
94.958
94.8619
94.7627
94.6541
94.5979
94.6207
94.6856
94.7269
94.6494
94.7037
94.8177
95.0164
95.3793
95.4466
95.8619
95.8565
96.3431
96.155
96.0397
96.1071
94.9227
94.5331
94.0184
93.8614
90.7765
87.7434
86.8484
88.5197
92.3523
95.3842
94.7235
94.6892
94.7473
94.8034
94.7823
94.8015
94.8273
94.8388
94.7852
94.8493
94.9367
95.0245
95.355
95.381
95.8744
95.9589
96.4646
96.1872
96.0903
96.1943
94.9282
94.4913
94.0619
94.0321
90.8109
87.5316
86.6227
88.3657
92.3806
95.5041
94.627
94.5902
94.7395
94.8091
94.7688
94.7996
94.9125
94.9103
94.868
94.9126
94.996
94.9974
95.3186
95.3281
95.7983
96.0238
96.5977
96.2211
96.1043
96.295
94.9354
94.4367
94.1058
94.2246
90.8555
87.2973
86.3748
88.198
92.4128
95.6349
94.7235
94.6848
94.6779
94.5416
94.479
94.654
94.9464
94.9946
95.0121
95.0405
95.0668
95.033
95.2903
95.2068
95.7152
96.0066
96.6909
96.2707
96.1803
96.408
94.9249
94.3645
94.1503
94.4408
90.9123
87.0463
86.103
88.0161
92.4491
95.777
94.9299
94.8229
94.665
94.3905
94.3641
94.6148
94.9766
94.9472
94.9085
94.7179
94.9696
95.0172
95.2558
95.0446
95.5812
96.134
96.9829
96.2865
96.1396
96.524
94.9264
94.2879
94.1878
94.6835
90.9837
86.7563
85.8056
87.8194
92.4899
95.9308
94.9215
94.8186
94.7068
94.4323
94.357
94.5558
94.7447
94.8617
94.8711
94.6363
94.8439
94.9862
95.2211
94.8911
95.4139
96.0775
97.011
96.3028
96.2531
96.7127
94.9009
94.1427
94.2429
94.9538
91.0725
86.4354
85.4803
87.6072
92.5356
96.0968
94.9083
94.8669
94.7827
94.708
94.5847
94.5659
94.589
94.4391
95.0016
94.889
94.8108
94.9356
95.197
94.7397
95.1877
96.0831
97.2476
96.3145
96.236
96.7802
94.886
94.0542
94.2637
95.2559
91.1818
86.0806
85.1253
87.3787
92.5866
96.2756
94.9678
94.9707
94.931
94.917
94.7864
94.5435
94.4804
94.415
94.8276
95.0677
94.8158
94.9323
95.1828
94.5449
94.9368
96.151
97.5707
96.2943
96.1868
97.0326
94.8549
93.8252
94.303
95.5911
91.3138
85.6904
84.7384
87.1334
92.6436
96.468
95.0234
95.0214
95.0228
94.9947
94.8548
94.6645
94.565
94.8841
94.5857
94.3197
94.8236
95.1072
95.2042
94.2293
94.5385
96.2272
97.8705
96.3905
96.1513
97.2146
94.8325
93.6365
94.3442
95.9622
91.4738
85.2608
84.3193
86.8708
92.708
96.6742
95.0008
94.9815
94.9482
94.8978
94.8558
94.769
94.5678
94.5595
94.5161
94.4524
94.5692
94.852
95.2434
93.7496
93.7194
96.1642
98.0032
96.4072
96.1894
97.38
94.8028
93.4583
94.3988
96.3636
91.651
84.8002
83.8717
86.5918
92.781
96.896
94.945
94.8996
94.8521
94.7592
94.7765
94.8299
94.5021
94.4798
95.2583
94.5815
93.8744
94.7813
95.4231
93.3924
92.9808
96.0916
98.228
96.3052
95.8565
97.5985
94.7531
93.1884
94.3624
96.7808
91.8637
84.3034
83.4089
86.3008
92.8609
97.1348
94.8774
94.8059
94.7558
94.6466
94.6619
94.818
94.3543
94.1849
95.349
94.2976
93.3867
93.7033
95.3589
92.8134
92.0336
96.3665
99.4376
96.4445
96.2621
98.079
94.7875
94.1945
94.9796
97.2662
92.065
83.8178
82.9301
86.0033
92.9547
97.3904
94.8178
94.7223
94.6483
94.5227
94.5017
94.7744
94.122
93.9898
95.0586
94.5677
93.3546
93.8171
95.6209
92.582
91.2334
95.5548
100.482
96.227
95.9305
99.2266
95.3316
93.1799
94.7792
97.5572
88.2768
55.372
60.9691
85.4721
93.0617
97.6648
94.7626
94.6683
94.556
94.4907
94.1062
94.422
94.047
94.0717
94.6233
94.7862
94.4554
93.8853
95.9306
91.9871
91.8407
94.9755
100.709
96.4131
95.8633
98.7534
95.2145
93.5716
96.2244
97.8307
77.8832
24.9933
5.24449
47.0546
93.1533
97.9473
94.6876
94.594
94.479
94.5278
94.391
94.3353
94.3811
94.3393
94.6195
94.9656
94.8236
94.715
95.9187
92.097
91.3846
95.5458
100.904
96.9967
96.4759
99.4427
95.759
93.644
96.1533
98.5247
76.2341
29.1915
1.52976
4.78204
88.8816
98.2248
84.2524
83.9078
84.1063
84.7647
84.4854
84.3847
88.2494
82.8027
84.9088
87.1676
93.1134
91.6279
95.8089
89.0021
87.6237
96.3356
101.29
98.3223
96.9315
99.6392
95.8093
84.4319
94.9845
96.3023
68.5356
9.0468
-0.00355405
6.82007
31.7516
97.0954
24.8718
23.3422
21.8413
19.1455
19.6484
16.7602
16.2499
19.2327
22.2957
16.5604
18.4562
12.0465
27.4752
17.5083
25.5313
60.8449
101.483
92.0363
84.7137
98.6174
59.9054
20.8372
43.7715
49.9171
27.6377
1.84413
-0.00607699
0.0824309
1.94237
89.4646
5.25474
-0.00513744
0.000258986
0.00915158
-7.21768e-05
-0.00628916
1.08053
5.80631
39.1284
90.8126
87.8755
38.4924
38.8365
4.66174
4.786
0.073564
0.0206774
0.0269303
0.0369547
0.0326288
0.0165885
0.0209794
0.0145771
0.0157346
0.0223898
0.0192116
0.0198618
0.0260796
0.0278062
0.0289632
0.00840476
-0.00445933
-0.00107475
0.00770222
-0.000955095
-0.00613617
-0.0101665
-0.0110972
6.86699
55.9774
63.626
1.87376
0.0321457
0.123712
0.108852
0.0729571
0.0539369
0.104406
0.0652569
0.0294186
0.0179173
0.0169576
0.0168121
0.0147842
0.0155667
0.0159472
0.0163605
0.0172831
0.0178037
0.01851
0.00988853
-0.00509469
-0.00267984
0.00651838
-0.00195313
-0.00579438
-0.0103786
-0.011984
-0.00703749
2.1619
3.23893
1.87629
0.256248
0.132693
0.109638
0.0567112
0.0209291
0.0361658
0.0233714
0.0205237
0.017321
0.0170955
0.0156447
0.0148846
0.0154401
0.0160095
0.0164638
0.0171182
0.0177066
0.0184232
0.00942176
-0.00398625
-0.00387388
0.00537141
-0.00313112
-0.00532669
-0.010024
-0.012064
-0.00552571
-0.00811592
0.00284312
-0.0429728
-0.0323278
0.120182
0.0815426
0.0740604
0.0230634
0.0217323
0.0221317
0.0178605
0.016811
0.0169345
0.0161764
0.0149799
0.0155101
0.0160914
0.0165878
0.0172388
0.0179168
0.0186586
0.00652692
-0.0036016
-0.00488969
0.00420967
-0.00423239
-0.00466564
-0.00958677
-0.0119568
-0.00548802
-0.00862899
0.00167159
-0.0466564
-0.133314
0.0396703
0.0792112
0.0411513
0.0221044
0.022088
0.0214614
0.0179862
0.0167545
0.0174646
0.0163036
0.0151446
0.0155572
0.0161362
0.0166486
0.017289
0.0180151
0.0187194
0.00577859
-0.00381364
-0.0055555
0.00298481
-0.00496487
-0.00388084
-0.00899154
-0.0116495
-0.00493955
-0.00907492
-0.0011838
-0.0499239
-0.119692
0.00326351
0.0286916
0.0297217
0.0219278
0.0219242
0.0212882
0.0181641
0.0167552
0.0168395
0.0160723
0.0153659
0.0156425
0.016162
0.0166577
0.0172741
0.0180865
0.0190966
0.0053573
-0.00366577
-0.00576816
0.00181582
-0.0052928
-0.00312468
-0.00814114
-0.0111012
-0.00461258
-0.00914617
-0.00418035
-0.0489245
-0.0990391
-0.00236451
0.0194143
0.0232115
0.020374
0.0225295
0.0224678
0.0183689
0.0169815
0.0167113
0.0162005
0.0156215
0.0157842
0.016185
0.0166173
0.0173027
0.0194031
0.020072
0.00496878
-0.00329708
-0.00553403
0.000736806
-0.00524401
-0.00245229
-0.00703789
-0.0103569
-0.00426799
-0.00924518
-0.00691849
-0.0454513
-0.0795316
-0.00507102
0.0114514
0.0162474
0.0177551
0.022122
0.0228141
0.0196016
0.0174781
0.0169493
0.0164251
0.0159173
0.0159643
0.0162103
0.0165377
0.0181291
0.019912
0.0201831
0.00459628
-0.00291668
-0.00501698
-0.000158544
-0.00500024
-0.00186989
-0.0056696
-0.00959819
-0.0042446
-0.00799035
-0.00897553
-0.0409693
-0.0622888
-0.00770197
0.00421989
0.00891953
0.0144073
0.0211391
0.0228716
0.0206156
0.0182034
0.0173624
0.0167566
0.0162445
0.0161526
0.0162274
0.0164459
0.0175006
0.017731
0.01739
0.00423264
-0.00253061
-0.0044057
-0.000766654
-0.0046449
-0.00144993
-0.00425592
-0.00905943
-0.00554203
-0.00761383
-0.011127
-0.0351002
-0.0478331
-0.0101563
-0.000746923
0.00988941
0.0291253
0.0283599
0.0229244
0.0203507
0.0191651
0.0181085
0.0172657
0.0165904
0.0163904
0.0163559
0.0163339
0.0163435
0.0165658
0.0168214
0.00387489
-0.00214518
-0.00379099
-0.00103657
-0.00422287
-0.00133632
-0.00309474
-0.00899495
-0.00768809
-0.00866565
-0.0139207
-0.0282328
-0.0362937
-0.0121125
-0.00556202
0.0454163
0.0953635
0.0753587
0.0235192
0.0215269
0.0202733
0.0188937
0.017904
0.0170445
0.0165859
0.0162987
0.0160245
0.0160355
0.0161163
0.0161831
0.00352131
-0.00176687
-0.00320717
-0.00105778
-0.00376763
-0.00160505
-0.00240987
-0.00962322
-0.0109431
-0.0122616
-0.0179051
-0.0242608
-0.0264473
-0.013457
-0.00827005
0.00143032
0.0924445
0.0914424
0.0242076
0.0225188
0.0210642
0.0194561
0.0181986
0.0171549
0.0164638
0.0159171
0.0156373
0.0154337
0.0154161
0.0154041
0.00317129
-0.00140252
-0.00267044
-0.000960832
-0.00329996
-0.00206458
-0.00219811
-0.0111341
-0.0148899
-0.0141678
-0.0212985
-0.023348
-0.018963
-0.0140186
-0.00945751
-0.00317063
0.015236
0.08537
0.0240058
0.022983
0.0218177
0.0200434
0.018489
0.0171816
0.0162119
0.0155119
0.0151355
0.0148285
0.0146146
0.0144863
0.00282512
-0.00105912
-0.00219116
-0.000842388
-0.00284895
-0.00225497
-0.00211202
-0.0127367
-0.0178941
-0.0152848
-0.0219065
-0.0208377
-0.0143451
-0.014749
-0.0118435
-0.00479198
0.0198211
0.0908631
0.0361823
0.0233282
0.0224682
0.0204871
0.0186242
0.0170369
0.0158151
0.0149169
0.0144452
0.0140061
0.0136971
0.013494
0.00248419
-0.000743385
-0.00177457
-0.000748811
-0.00245067
-0.00207813
-0.00215958
-0.0140123
-0.0185758
-0.0158216
-0.0211364
-0.0183459
-0.0137625
-0.0147392
-0.0135359
-0.00682603
0.0262724
0.0917964
0.0826822
0.0244826
0.0227909
0.0205706
0.0184371
0.0166004
0.0151665
0.0141129
0.013386
0.0129116
0.0125748
0.0123486
0.00215106
-0.000457363
-0.00142546
-0.000689412
-0.00212788
-0.00186122
-0.00244704
-0.0149525
-0.0169076
-0.0157728
-0.0189818
-0.01633
-0.013718
-0.0143834
-0.0126332
-0.00630135
0.00860808
0.0878565
0.0910546
0.053734
0.0225082
0.0199636
0.0178121
0.0157856
0.014171
0.0130227
0.0122269
0.011712
0.0114041
0.0112319
0.00182921
-0.000203242
-0.00114377
-0.000656032
-0.00187348
-0.00177347
-0.00286848
-0.0157003
-0.0154756
-0.0155435
-0.0159691
-0.0146078
-0.0126869
-0.0131937
-0.0110809
-0.00496942
0.000769972
0.0370863
0.0953347
0.100374
0.0293175
0.0183628
0.0167229
0.0148909
0.0145586
0.0123638
0.0111265
0.0105293
0.0103231
0.0101741
0.00152251
1.7928e-05
-0.000926715
-0.000637897
-0.00167996
-0.00178926
-0.00315576
-0.0156501
-0.0155108
-0.0154035
-0.0137627
-0.013261
-0.0120397
-0.0124348
-0.00987956
-0.00351869
0.00297854
0.0121077
0.0909281
0.10058
0.0737041
0.0160679
0.0149664
0.0134566
0.0131259
0.0135258
0.013855
0.0130087
0.0120787
0.0106683
0.00123448
0.000206168
-0.000769136
-0.000626183
-0.0015377
-0.00185903
-0.00330404
-0.0142744
-0.01667
-0.0154361
-0.0129402
-0.0131833
-0.0123591
-0.0125559
-0.0100465
-0.00398109
0.00111025
0.00327085
0.00879644
0.0430439
0.0796816
0.0294231
0.012976
0.0122852
0.0110821
0.0103786
0.0100191
0.00942674
0.0090245
0.00789645
0.000967827
0.000357245
-0.000658398
-0.000614505
-0.0014322
-0.0019532
-0.00338029
-0.0121214
-0.0171255
-0.0140338
-0.0117875
-0.0134456
-0.013638
-0.0137894
-0.0117428
-0.00579189
-0.000971181
0.00144463
0.00125069
0.000702237
0.0110844
0.0724558
0.0311761
0.0118482
0.0110059
0.0105361
0.0103043
0.0161629
0.0376069
0.0612112
0.000724638
0.000468719
-0.000581777
-0.000599065
-0.0013473
-0.00204197
-0.00338898
-0.0100051
-0.0145724
-0.010097
-0.00837603
-0.0119641
-0.0149674
-0.0164954
-0.0145013
-0.00801271
-0.00257461
0.000678887
0.00192677
0.0024889
0.00403264
0.0130209
0.0286183
0.0106377
0.0103926
0.0105339
0.0255181
0.0544359
0.0567044
0.0571711
0.000506928
0.000542801
-0.000530776
-0.000578379
-0.00127195
-0.00209156
-0.00330383
-0.00815349
-0.0110804
-0.00591104
-0.00385768
-0.00927015
-0.0164107
-0.0195392
-0.01726
-0.00986283
-0.00348533
0.000766906
0.00327062
0.00498556
0.00814461
0.0110425
0.0108987
0.00848845
0.00806851
0.00779006
0.0343241
0.0563077
0.0571113
0.0568855
0.000317027
0.000581706
-0.00049665
-0.000550916
-0.00119599
-0.00208028
-0.00311361
-0.00661846
-0.00779492
-0.00340435
-0.0012102
-0.00751859
-0.0174974
-0.0227644
-0.0196897
-0.0109915
-0.00389578
0.000797541
0.00366059
0.0063811
0.00835678
0.00647474
0.00618251
0.00613541
0.00598457
0.00540064
0.00903203
0.0230651
0.0378057
0.0244673
0.000157527
0.000587469
-0.000470648
-0.000515135
-0.0011079
-0.00200218
-0.00283826
-0.00536783
-0.00569012
-0.00271343
-0.00111632
-0.00675802
-0.0162239
-0.0220979
-0.0186177
-0.0102594
-0.00376023
0.000444975
0.00313528
0.00462313
0.00483022
0.00499677
0.00514384
0.00528264
0.00547193
0.00545726
0.00537796
0.00529746
0.00529525
0.00583885
3.08552e-05
0.000562133
-0.000444692
-0.000469894
-0.0010022
-0.00186015
-0.00249326
-0.0043359
-0.00437359
-0.00275064
-0.00166744
-0.00505582
-0.0124435
-0.0144875
-0.0130498
-0.00734085
-0.00289376
0.000246987
0.00215248
0.00316084
0.00375971
0.00414934
0.00446597
0.00476725
0.00504547
0.00528537
0.00549282
0.00569273
0.0059172
0.0061611
-6.13256e-05
0.000507831
-0.000411852
-0.000413937
-0.000875214
-0.00165523
-0.00208823
-0.0034589
-0.00331127
-0.00259896
-0.00206735
-0.00393736
-0.0063623
-0.00880165
-0.00779414
-0.00449591
-0.00195845
0.000190874
0.00148383
0.00238139
0.00297063
0.00339285
0.00373063
0.0040261
0.00429528
0.00484904
0.00498667
0.00512666
0.00540049
0.00568588
-0.000118859
0.000426883
-0.000366767
-0.000346308
-0.00072552
-0.00139032
-0.00164404
-0.00266251
-0.00243898
-0.00219058
-0.00197023
-0.00309374
-0.00479299
-0.00593527
-0.00449831
-0.00261809
-0.00110686
0.000227127
0.00117178
0.0018639
0.00235727
0.00271897
0.00299486
0.0032126
0.00347268
0.00389338
0.00400902
0.00390483
0.00396943
0.00402577
-0.000144091
0.000321886
-0.000305808
-0.000266494
-0.000552415
-0.00107482
-0.00117925
-0.00189731
-0.00167078
-0.00162274
-0.0014476
-0.00202648
-0.003272
-0.00361768
-0.00265882
-0.00155631
-0.000631232
0.000213234
0.000887762
0.00142611
0.00185527
0.00221463
0.00254238
0.00286909
0.00342535
0.00379122
0.00405553
0.00420932
0.0042619
0.00841125
-0.000143145
0.000191741
-0.000223568
-0.000173236
-0.000354071
-0.000690378
-0.000717251
-0.00114747
-0.000993186
-0.000998735
-0.000885464
-0.00112312
-0.0016342
-0.00185437
-0.00133097
-0.000791232
-0.000276059
0.000223844
0.00068141
0.00111558
0.00151986
0.00191299
0.00232459
0.00275698
0.0032925
0.00386238
0.00433048
0.00464435
0.00484068
0.00542356
-0.000127246
5.41891e-05
-0.0001372
-7.06174e-05
-0.000134754
-0.000251312
-0.000240266
-0.00037675
-0.000279604
-0.000273449
-0.000258901
-0.000332552
-0.000491419
-0.000576938
-0.000408099
-0.000267033
-0.00012854
7.63424e-06
0.000142442
0.000284278
0.00042915
0.000576372
0.000721854
0.000853002
0.000951605
0.0010053
0.00101579
0.000999601
0.000750129
0.000444032
0.0299136
0.0315355
0.034212
0.0283592
0.0242283
0.0316357
0.0280746
0.0205228
0.0210632
0.0159836
0.00769167
0.00260506
-0.00964265
-0.00921566
0.00975943
0.879991
43.5152
23.693
10.8077
48.8822
3.62627
-0.0194148
0.639219
1.45407
0.0409703
-0.0651981
-0.0098512
0.0662681
0.00964251
5.49944
0.0192908
0.0203093
0.0215276
0.0218432
0.0219757
0.0232777
0.0228697
0.0212509
0.0182768
0.0136843
0.00857291
0.00289117
-0.00528123
-0.00639639
0.00509521
0.00427714
-0.00344684
-0.0025978
-0.010493
2.69544
-0.021195
-0.0203925
-0.0235929
-0.0215162
-0.0187437
-0.0641581
-0.0106591
0.0623129
0.0102359
0.011414
0.0192177
0.020125
0.0211355
0.0217998
0.0218568
0.0226257
0.0223723
0.0204496
0.0181051
0.0138179
0.00812662
0.00227955
-0.00529144
-0.0062009
0.00458818
0.00418874
0.000169526
-0.00161902
-0.0102529
-0.0117827
-0.0176755
-0.020431
-0.0234816
-0.0214532
-0.018544
-0.0608724
-0.0110136
0.0570616
0.00944013
0.012754
0.0194104
0.0202187
0.0210941
0.0214932
0.0216208
0.022264
0.0217661
0.0200751
0.017957
0.0138584
0.00782407
0.00157155
-0.00556805
-0.0067892
0.00420503
0.00431871
-0.000108395
-0.00192217
-0.0106739
-0.0117376
-0.0179201
-0.0202845
-0.0232604
-0.0211516
-0.0182789
-0.0575248
-0.0108663
0.0525816
0.010741
0.0122544
0.0193724
0.0200576
0.0204098
0.0212438
0.021948
0.0216744
0.0212597
0.0197738
0.0176727
0.0136826
0.00741231
0.000705302
-0.00606012
-0.00718812
0.00301766
0.00390083
0.000277877
-0.00184085
-0.0108178
-0.011664
-0.0178395
-0.020006
-0.0228438
-0.0206727
-0.0180417
-0.0543611
-0.0103923
0.0477869
0.0110624
0.00943445
0.0204413
0.0213855
0.0223244
0.0229169
0.0206028
0.0209958
0.0206915
0.0193437
0.0171917
0.0132048
0.00672246
-0.000400548
-0.00690972
-0.00790686
0.00205718
0.0041653
0.000802994
-0.00207088
-0.011631
-0.0120807
-0.0175824
-0.019617
-0.0222161
-0.0200073
-0.017721
-0.0514041
-0.00989612
0.0428322
0.0106344
0.00855017
0.0206081
0.0214036
0.0209376
0.0197504
0.0201502
0.0204355
0.0200565
0.0187495
0.0164787
0.0123936
0.00588251
-0.00148944
-0.00798272
-0.00885969
0.00128893
0.00449311
0.00138755
-0.00216293
-0.0118832
-0.0121254
-0.0173605
-0.0191327
-0.0214003
-0.0191497
-0.017208
-0.048512
-0.009386
0.0380886
0.0108111
0.00805889
0.0195695
0.0186369
0.0190851
0.0193833
0.0196692
0.019776
0.0193109
0.0179767
0.0155263
0.0113667
0.00577812
-0.00170951
-0.00891421
-0.00984196
0.000643172
0.00481369
0.00185419
-0.00222451
-0.0121303
-0.0121884
-0.0172916
-0.0186975
-0.0204532
-0.0181078
-0.0164406
-0.0455144
-0.00878571
0.0339127
0.0109155
0.00757297
0.0176945
0.0181114
0.01852
0.0187705
0.0189689
0.0189483
0.0184079
0.0170198
0.0144298
0.0110581
0.00448464
-0.00305464
-0.0100841
-0.0106527
7.34908e-05
0.00496028
0.00248049
-0.00243632
-0.0123208
-0.0122725
-0.0174765
-0.0184334
-0.0195001
-0.0169438
-0.0154747
-0.0423449
-0.00805667
0.0305403
0.0109605
0.00708766
0.0171239
0.0174123
0.0176927
0.017958
0.0180556
0.0179191
0.0173326
0.0159206
0.0132586
0.010532
0.00326376
-0.004111
-0.0107683
-0.0108595
-0.000555044
0.00489865
0.00289717
-0.00282405
-0.0122792
-0.0123858
-0.0180654
-0.0184605
-0.0187405
-0.0158047
-0.0145404
-0.0390882
-0.00724959
0.0277213
0.010951
0.00659407
0.0163558
0.0165421
0.0167488
0.0169085
0.0169723
0.0167742
0.0161173
0.014758
0.0120641
0.00800076
0.00242104
-0.00450164
-0.0107595
-0.0105206
-0.00102093
0.00466136
0.00324626
-0.00354222
-0.0121053
-0.0125165
-0.0191921
-0.0187907
-0.0184248
-0.0148637
-0.0138699
-0.0358847
-0.00639874
0.0251422
0.0108816
0.00608906
0.01544
0.0155047
0.015598
0.0156521
0.0156543
0.0154875
0.0149121
0.0136429
0.0111849
0.00739335
0.00233115
-0.00404192
-0.00990772
-0.00954932
-0.00130043
0.00401861
0.00271335
-0.00428454
-0.0117998
-0.0126876
-0.0208802
-0.0192515
-0.0185117
-0.0142115
-0.0134608
-0.0328076
-0.00546013
0.0226563
0.0107448
0.00557163
0.0144096
0.014364
0.0143298
0.0143456
0.0143235
0.0141836
0.0137545
0.0126759
0.010582
0.00743211
0.0031644
-0.00259787
-0.00798621
-0.00796606
-0.00155374
0.00289695
0.00169533
-0.00469095
-0.011202
-0.0129109
-0.0229202
-0.0195987
-0.0185225
-0.0137955
-0.013022
-0.0297076
-0.00456658
0.0202375
0.0105426
0.00504221
0.0133576
0.0132382
0.0131568
0.0131383
0.0131178
0.0130345
0.0127553
0.0119707
0.0103584
0.00786406
0.0047351
-0.000234298
-0.00485296
-0.00604814
-0.00207239
0.00118854
0.000485489
-0.004524
-0.0100735
-0.0131763
-0.0247648
-0.0197249
-0.0179472
-0.0134718
-0.0124034
-0.0267277
-0.0036638
0.0178726
0.0103005
0.00450268
0.0122048
0.012111
0.0120481
0.0120434
0.0121188
0.012108
0.011997
0.0114876
0.0104235
0.00836277
0.00599782
0.00257911
-0.000836649
-0.0042192
-0.00277571
-0.000532684
-0.000357686
-0.00366785
-0.00838061
-0.0135199
-0.0257181
-0.0199095
-0.01683
-0.013095
-0.0116626
-0.0239181
-0.00280863
0.0155643
0.0100311
0.00395642
0.0111473
0.0111116
0.0110883
0.0111011
0.0111481
0.0112198
0.0112594
0.0111065
0.0105052
0.00912062
0.00683819
0.00391968
0.0001895
-0.00308896
-0.00367608
-0.00217151
-0.000546368
-0.00219827
-0.00634547
-0.0141049
-0.0257943
-0.0202718
-0.0158126
-0.0126822
-0.0109107
-0.0213064
-0.00204461
0.0133871
0.00968046
0.00340824