/*--------------------------------*- C++ -*----------------------------------*\
| =========                 |                                                 |
| \\      /  F ield         | OpenFOAM: The Open Source CFD Toolbox           |
|  \\    /   O peration     | Version:  2.4.0                                 |
|   \\  /    A nd           | Web:      www.OpenFOAM.org                      |
|    \\/     M anipulation  |                                                 |
\*---------------------------------------------------------------------------*/
FoamFile
{
    version     2.0;
    format      ascii;
    class       volScalarField;
    location    "0.2";
    object      p_rgh;
}
// * * * * * * * * * * * * * * * * * * * * * * * * * * * * * * * * * * * * * //

dimensions      [1 -1 -2 0 0 0 0];

internalField   nonuniform List<scalar> 
2400
(
0.0012389
0.00124058
0.00124395
0.00124896
0.00125557
0.0012637
0.00127328
0.0012842
0.00129635
0.00130959
0.00132377
0.00133874
0.00135432
0.00137033
0.00138658
0.00140288
0.00141904
0.00143486
0.00145016
0.00146477
0.00123848
0.00124017
0.00124354
0.00124857
0.00125519
0.00126335
0.00127295
0.0012839
0.00129608
0.00130935
0.00132357
0.00133859
0.00135421
0.00137027
0.00138657
0.00140292
0.00141912
0.00143499
0.00145034
0.00146498
0.00123765
0.00123935
0.00124274
0.00124779
0.00125445
0.00126264
0.00127229
0.00128329
0.00129553
0.00130888
0.00132318
0.00133827
0.00135398
0.00137013
0.00138653
0.00140298
0.00141929
0.00143525
0.0014507
0.00146543
0.00123641
0.00123812
0.00124154
0.00124662
0.00125332
0.00126157
0.00127129
0.00128238
0.00129471
0.00130816
0.00132258
0.0013378
0.00135364
0.00136994
0.00138648
0.00140308
0.00141953
0.00143565
0.00145124
0.00146611
0.00123474
0.00123647
0.00123992
0.00124505
0.00125182
0.00126015
0.00126996
0.00128116
0.00129362
0.00130721
0.00132178
0.00133716
0.00135319
0.00136967
0.00138641
0.00140321
0.00141987
0.00143618
0.00145196
0.00146702
0.00123264
0.00123439
0.00123788
0.00124308
0.00124992
0.00125835
0.00126829
0.00127962
0.00129224
0.00130601
0.00132077
0.00133637
0.00135263
0.00136935
0.00138634
0.00140339
0.00142029
0.00143686
0.00145287
0.00146816
0.0012301
0.00123188
0.00123542
0.00124069
0.00124763
0.00125618
0.00126626
0.00127777
0.00129058
0.00130456
0.00131957
0.00133542
0.00135195
0.00136896
0.00138624
0.0014036
0.00142081
0.00143767
0.00145397
0.00146953
0.00122712
0.00122893
0.00123253
0.00123788
0.00124494
0.00125363
0.00126389
0.00127559
0.00128863
0.00130287
0.00131815
0.00133431
0.00135116
0.00136851
0.00138614
0.00140385
0.00142142
0.00143862
0.00145527
0.00147114
0.00122368
0.00122552
0.00122919
0.00123464
0.00124183
0.0012507
0.00126115
0.00127309
0.00128639
0.00130093
0.00131653
0.00133304
0.00135026
0.00136799
0.00138603
0.00140415
0.00142212
0.00143973
0.00145675
0.00147299
0.00121978
0.00122166
0.0012254
0.00123096
0.00123831
0.00124736
0.00125805
0.00127025
0.00128385
0.00129872
0.00131469
0.00133159
0.00134924
0.00136742
0.00138591
0.00140449
0.00142292
0.00144098
0.00145844
0.00147509
0.0012154
0.00121732
0.00122114
0.00122684
0.00123435
0.00124362
0.00125456
0.00126706
0.001281
0.00129624
0.00131263
0.00132998
0.00134809
0.00136677
0.00138577
0.00140487
0.00142383
0.00144239
0.00146033
0.00147744
0.00121053
0.0012125
0.00121642
0.00122226
0.00122996
0.00123947
0.00125069
0.00126352
0.00127783
0.00129349
0.00131033
0.00132818
0.00134682
0.00136605
0.00138562
0.0014053
0.00142483
0.00144395
0.00146244
0.00148005
0.00120518
0.00120719
0.00121121
0.0012172
0.00122512
0.00123488
0.00124641
0.0012596
0.00127433
0.00129045
0.00130779
0.00132619
0.00134541
0.00136525
0.00138545
0.00140577
0.00142593
0.00144568
0.00146476
0.00148293
0.00119931
0.00120138
0.00120551
0.00121167
0.00121981
0.00122985
0.00124172
0.0012553
0.00127048
0.0012871
0.001305
0.00132399
0.00134385
0.00136436
0.00138526
0.00140628
0.00142714
0.00144757
0.0014673
0.0014861
0.00119292
0.00119506
0.00119931
0.00120565
0.00121402
0.00122437
0.0012366
0.00125061
0.00126627
0.00128344
0.00130194
0.00132158
0.00134214
0.00136338
0.00138504
0.00140682
0.00142846
0.00144964
0.00147008
0.00148957
0.00118601
0.0011882
0.00119258
0.00119911
0.00120774
0.00121841
0.00123103
0.0012455
0.00126168
0.00127944
0.00129859
0.00131893
0.00134025
0.00136229
0.00138478
0.00140741
0.0014299
0.00145189
0.00147309
0.00149337
0.00117854
0.00118081
0.00118532
0.00119205
0.00120095
0.00121197
0.001225
0.00123996
0.0012567
0.00127509
0.00129494
0.00131604
0.00133818
0.00136109
0.00138448
0.00140803
0.00143146
0.00145434
0.00147635
0.00149754
0.00117047
0.00117281
0.00117747
0.00118441
0.0011936
0.00120497
0.00121845
0.00123392
0.00125126
0.00127032
0.00129091
0.00131284
0.00133586
0.0013597
0.00138408
0.0014086
0.00143306
0.00145685
0.00147944
0.00150204
0.00116259
0.00116502
0.00116982
0.00117698
0.00118646
0.00119821
0.00121214
0.00122814
0.00124609
0.00126584
0.00128721
0.00130998
0.0013339
0.00135872
0.00138412
0.00140962
0.00143526
0.00146011
0.00148298
0.00150696
0.00114927
0.00115176
0.00115675
0.00116422
0.00117413
0.00118642
0.00120102
0.00121781
0.00123669
0.0012575
0.00128005
0.00130413
0.00132949
0.00135582
0.00138289
0.00140985
0.00143726
0.00146394
0.00148982
0.00151416
0.00147507
0.00148171
0.00148809
0.00149422
0.00150006
0.00150562
0.00151087
0.00151581
0.00152043
0.00152472
0.00152868
0.0015323
0.00153558
0.00153852
0.00154112
0.00154339
0.00154532
0.00154692
0.0015482
0.00154916
0.00147532
0.00148197
0.00148838
0.00149452
0.00150038
0.00150595
0.00151121
0.00151616
0.00152079
0.00152508
0.00152905
0.00153267
0.00153595
0.00153889
0.00154149
0.00154375
0.00154568
0.00154727
0.00154854
0.00154949
0.00147583
0.00148253
0.00148897
0.00149515
0.00150104
0.00150663
0.00151192
0.00151689
0.00152153
0.00152584
0.00152981
0.00153344
0.00153672
0.00153966
0.00154225
0.0015445
0.00154641
0.00154798
0.00154923
0.00155016
0.00147661
0.00148337
0.00148987
0.00149609
0.00150203
0.00150767
0.00151299
0.00151799
0.00152265
0.00152698
0.00153096
0.0015346
0.00153788
0.00154081
0.00154339
0.00154562
0.00154751
0.00154906
0.00155027
0.00155117
0.00147765
0.00148448
0.00149106
0.00149736
0.00150335
0.00150905
0.00151441
0.00151945
0.00152415
0.0015285
0.0015325
0.00153614
0.00153942
0.00154235
0.00154491
0.00154712
0.00154897
0.00155049
0.00155166
0.00155251
0.00147894
0.00148588
0.00149255
0.00149893
0.00150501
0.00151077
0.00151619
0.00152128
0.00152602
0.0015304
0.00153441
0.00153807
0.00154135
0.00154426
0.0015468
0.00154898
0.0015508
0.00155227
0.00155339
0.00155418
0.00148051
0.00148756
0.00149434
0.00150082
0.00150699
0.00151283
0.00151832
0.00152347
0.00152825
0.00153267
0.00153671
0.00154037
0.00154365
0.00154655
0.00154907
0.00155121
0.00155299
0.0015544
0.00155546
0.00155618
0.00148234
0.00148953
0.00149644
0.00150303
0.0015093
0.00151523
0.00152081
0.00152602
0.00153086
0.00153531
0.00153937
0.00154305
0.00154633
0.00154921
0.00155171
0.00155381
0.00155554
0.00155689
0.00155788
0.00155852
0.00148443
0.00149179
0.00149884
0.00150556
0.00151195
0.00151799
0.00152366
0.00152894
0.00153384
0.00153833
0.00154243
0.00154611
0.00154939
0.00155226
0.00155473
0.00155679
0.00155846
0.00155975
0.00156066
0.0015612
0.00148681
0.00149434
0.00150155
0.00150843
0.00151495
0.0015211
0.00152687
0.00153224
0.0015372
0.00154175
0.00154588
0.00154958
0.00155285
0.00155571
0.00155814
0.00156016
0.00156177
0.00156298
0.0015638
0.00156424
0.00148947
0.0014972
0.00150459
0.00151163
0.0015183
0.00152459
0.00153047
0.00153593
0.00154097
0.00154557
0.00154973
0.00155345
0.00155672
0.00155956
0.00156195
0.00156392
0.00156546
0.00156658
0.0015673
0.00156763
0.00149243
0.00150037
0.00150796
0.00151519
0.00152202
0.00152845
0.00153446
0.00154002
0.00154514
0.0015498
0.00155401
0.00155774
0.00156102
0.00156383
0.00156619
0.00156809
0.00156956
0.00157059
0.00157119
0.00157139
0.0014957
0.00150387
0.00151168
0.00151911
0.00152613
0.00153271
0.00153885
0.00154454
0.00154975
0.00155448
0.00155872
0.00156248
0.00156576
0.00156855
0.00157086
0.0015727
0.00157408
0.001575
0.00157548
0.00157553
0.00149929
0.00150773
0.00151578
0.00152342
0.00153064
0.0015374
0.00154369
0.0015495
0.00155481
0.00155962
0.00156392
0.0015677
0.00157097
0.00157374
0.001576
0.00157776
0.00157904
0.00157984
0.00158018
0.00158008
0.00150323
0.00151195
0.00152027
0.00152816
0.00153559
0.00154254
0.001549
0.00155494
0.00156037
0.00156526
0.00156961
0.00157341
0.00157668
0.00157941
0.00158162
0.0015833
0.00158447
0.00158514
0.00158533
0.00158505
0.00150754
0.00151658
0.00152519
0.00153334
0.001541
0.00154816
0.0015548
0.0015609
0.00156645
0.00157142
0.00157583
0.00157966
0.00158292
0.00158561
0.00158775
0.00158934
0.00159039
0.00159091
0.00159093
0.00159046
0.00151227
0.00152165
0.00153057
0.00153899
0.00154691
0.0015543
0.00156113
0.00156739
0.00157307
0.00157815
0.00158261
0.00158646
0.0015897
0.00159235
0.00159442
0.0015959
0.00159681
0.00159718
0.00159701
0.00159632
0.00151742
0.00152717
0.00153642
0.00154515
0.00155334
0.00156097
0.00156801
0.00157446
0.00158029
0.00158548
0.00159
0.00159385
0.00159707
0.00159967
0.00160165
0.00160302
0.00160379
0.00160398
0.0016036
0.00160268
0.00152292
0.00153302
0.00154259
0.00155162
0.00156008
0.00156794
0.00157519
0.00158181
0.00158781
0.00159313
0.00159766
0.00160147
0.00160464
0.00160718
0.00160908
0.00161032
0.00161091
0.0016109
0.00161029
0.0016091
0.00153104
0.00154172
0.00155187
0.00156145
0.00157042
0.00157874
0.00158637
0.00159329
0.00159965
0.00160531
0.00160992
0.00161365
0.00161675
0.00161923
0.00162105
0.00162212
0.00162245
0.00162215
0.00162121
0.00161962
0.00155015
0.00155024
0.00154924
0.00154726
0.00154443
0.0015409
0.0015368
0.00153228
0.00152748
0.00152253
0.00151757
0.00151271
0.00150809
0.0015038
0.00149995
0.00149661
0.00149385
0.00149174
0.0014903
0.00148958
0.00155046
0.00155052
0.00154949
0.00154748
0.00154461
0.00154105
0.00153691
0.00153236
0.00152752
0.00152253
0.00151754
0.00151266
0.00150801
0.0015037
0.00149982
0.00149646
0.00149369
0.00149157
0.00149012
0.0014894
0.00155109
0.00155109
0.00155
0.00154791
0.00154498
0.00154134
0.00153713
0.0015325
0.00152759
0.00152254
0.00151748
0.00151254
0.00150784
0.00150348
0.00149957
0.00149617
0.00149337
0.00149123
0.00148977
0.00148904
0.00155203
0.00155195
0.00155076
0.00154857
0.00154553
0.00154178
0.00153746
0.00153272
0.0015277
0.00152255
0.00151739
0.00151237
0.00150759
0.00150316
0.00149918
0.00149574
0.0014929
0.00149071
0.00148924
0.00148849
0.00155329
0.00155309
0.00155177
0.00154944
0.00154626
0.00154236
0.00153789
0.00153301
0.00152785
0.00152256
0.00151728
0.00151214
0.00150725
0.00150273
0.00149867
0.00149515
0.00149225
0.00149003
0.00148852
0.00148777
0.00155486
0.00155452
0.00155303
0.00155054
0.00154718
0.00154309
0.00153844
0.00153337
0.00152803
0.00152257
0.00151713
0.00151184
0.00150682
0.00150218
0.00149802
0.00149441
0.00149145
0.00148917
0.00148763
0.00148685
0.00155674
0.00155623
0.00155455
0.00155186
0.00154828
0.00154397
0.00153909
0.0015338
0.00152825
0.00152259
0.00151696
0.00151149
0.00150631
0.00150152
0.00149723
0.00149352
0.00149047
0.00148813
0.00148654
0.00148575
0.00155895
0.00155823
0.00155633
0.00155339
0.00154956
0.00154499
0.00153985
0.0015343
0.0015285
0.0015226
0.00151674
0.00151106
0.00150569
0.00150074
0.0014963
0.00149247
0.00148931
0.0014869
0.00148527
0.00148445
0.00156148
0.00156053
0.00155837
0.00155515
0.00155102
0.00154616
0.00154071
0.00153487
0.00152877
0.0015226
0.00151648
0.00151056
0.00150497
0.00149982
0.00149522
0.00149124
0.00148798
0.00148548
0.00148379
0.00148294
0.00156435
0.00156313
0.00156067
0.00155713
0.00155268
0.00154747
0.00154168
0.0015355
0.00152908
0.00152259
0.00151618
0.00150999
0.00150415
0.00149878
0.00149398
0.00148985
0.00148645
0.00148386
0.00148211
0.00148122
0.00156755
0.00156603
0.00156324
0.00155935
0.00155451
0.00154892
0.00154275
0.00153619
0.0015294
0.00152256
0.00151581
0.00150932
0.0015032
0.00149759
0.00149258
0.00148827
0.00148473
0.00148203
0.0014802
0.00147928
0.00157109
0.00156924
0.00156609
0.00156179
0.00155654
0.00155052
0.00154392
0.00153693
0.00152974
0.0015225
0.00151539
0.00150856
0.00150214
0.00149625
0.00149101
0.0014865
0.0014828
0.00147998
0.00147807
0.00147711
0.001575
0.00157278
0.00156921
0.00156448
0.00155876
0.00155226
0.00154519
0.00153773
0.00153008
0.00152242
0.0015149
0.00150769
0.00150094
0.00149475
0.00148925
0.00148452
0.00148065
0.0014777
0.0014757
0.00147469
0.00157929
0.00157666
0.00157263
0.0015674
0.00156117
0.00155415
0.00154655
0.00153858
0.00153044
0.00152229
0.00151433
0.00150672
0.00149959
0.00149308
0.0014873
0.00148233
0.00147827
0.00147517
0.00147308
0.00147202
0.00158397
0.00158089
0.00157635
0.00157058
0.00156379
0.00155619
0.00154801
0.00153948
0.00153079
0.00152213
0.00151369
0.00150563
0.0014981
0.00149123
0.00148514
0.00147992
0.00147565
0.00147239
0.0014702
0.00146909
0.00158905
0.00158547
0.00158038
0.00157401
0.0015666
0.00155836
0.00154956
0.00154041
0.00153114
0.00152191
0.00151294
0.00150441
0.00149644
0.00148919
0.00148276
0.00147726
0.00147277
0.00146935
0.00146704
0.00146588
0.00159456
0.00159043
0.00158473
0.00157771
0.00156961
0.00156068
0.00155118
0.00154138
0.00153149
0.00152163
0.00151209
0.00150304
0.00149461
0.00148694
0.00148015
0.00147435
0.00146962
0.00146602
0.0014636
0.00146239
0.00160054
0.0015958
0.00158943
0.0015817
0.00157286
0.00156319
0.00155294
0.00154244
0.0015319
0.00152136
0.00151123
0.00150163
0.00149271
0.00148461
0.00147744
0.00147132
0.00146635
0.00146257
0.00146004
0.00145876
0.00160652
0.00160112
0.00159402
0.0015855
0.00157586
0.00156537
0.00155429
0.00154302
0.00153183
0.00152048
0.00150971
0.00149952
0.00149006
0.00148147
0.00147387
0.0014674
0.00146215
0.00145817
0.0014555
0.00145417
0.00161639
0.00160999
0.00160179
0.00159211
0.00158128
0.00156961
0.0015573
0.00154491
0.00153288
0.00152035
0.00150875
0.00149781
0.00148769
0.00147853
0.00147048
0.00146362
0.00145805
0.00145382
0.00145099
0.00144956
0.00115562
0.00115807
0.00116299
0.00117034
0.00118008
0.00119215
0.00120646
0.00122291
0.00124138
0.00126169
0.00128368
0.00130711
0.00133173
0.00135725
0.00138336
0.0014097
0.00143591
0.00146158
0.0014863
0.00150968
0.00114435
0.00114688
0.00115193
0.0011595
0.00116954
0.00118201
0.00119683
0.0012139
0.0012331
0.00125429
0.00127729
0.00130188
0.0013278
0.00135476
0.00138241
0.00141039
0.00143827
0.00146565
0.0014921
0.00151715
0.00112575
0.00112837
0.00113364
0.00114154
0.00115205
0.00116514
0.00118074
0.00119879
0.0012192
0.00124183
0.00126653
0.00129309
0.00132126
0.00135073
0.00138113
0.00141206
0.00144304
0.00147356
0.00150305
0.00153101
0.00109626
0.00109901
0.00110455
0.00111287
0.00112397
0.00113786
0.00115452
0.00117393
0.00119603
0.00122075
0.00124797
0.00127752
0.00130916
0.0013426
0.00137745
0.00141322
0.00144935
0.00148521
0.00152006
0.00155314
0.00105564
0.00105851
0.0010643
0.00107303
0.00108475
0.0010995
0.00111734
0.0011383
0.00116243
0.00118973
0.00122017
0.00125366
0.00129004
0.00132903
0.00137024
0.00141313
0.00145701
0.00150102
0.00154417
0.00158542
0.0010034
0.00100634
0.00101227
0.00102125
0.00103339
0.0010488
0.00106762
0.00109001
0.00111614
0.00114617
0.00118021
0.00121836
0.00126059
0.00130676
0.00135655
0.0014094
0.00146447
0.00152053
0.001576
0.00163039
0.000939306
0.000942181
0.000947997
0.000956861
0.000968932
0.000984419
0.00100359
0.00102675
0.00105427
0.00108653
0.00112392
0.00116683
0.00121557
0.00127032
0.00133105
0.00139741
0.00146861
0.00154329
0.00161945
0.00169304
0.000863595
0.000866202
0.000871493
0.000879615
0.000890783
0.000905298
0.000923556
0.000946054
0.0009734
0.0010063
0.00104556
0.00109207
0.00114673
0.0012104
0.00128375
0.00136709
0.00146008
0.00156137
0.00166823
0.00177631
0.000777373
0.000779434
0.000783634
0.000790136
0.000799192
0.00081115
0.000826507
0.000845928
0.000870244
0.000900531
0.000938118
0.000984617
0.00104193
0.00111218
0.0011976
0.00130038
0.00142228
0.00156391
0.00172343
0.00189539
0.000682849
0.000684055
0.000686528
0.000690401
0.000695895
0.000703315
0.000713095
0.000726072
0.000743106
0.000765423
0.000794769
0.000833488
0.00088492
0.000952966
0.00104233
0.00115845
0.00130745
0.00149575
0.0017252
0.00199201
0.000583467
0.00058355
0.000583725
0.00058404
0.00058459
0.000585533
0.000587142
0.000589867
0.00059437
0.000601686
0.000613383
0.000630964
0.00066059
0.000706972
0.000778784
0.00088757
0.00104888
0.00128935
0.00162647
0.0022375
0.000483836
0.000482698
0.000480348
0.000476697
0.000471625
0.000464952
0.000456472
0.000445961
0.000433243
0.000418195
0.000401007
0.000382576
0.000365515
0.000355014
0.000362019
0.000397978
0.000503571
0.000777177
0.00120976
0.00197456
0.00038885
0.00038667
0.000382171
0.000375105
0.000365114
0.000351666
0.000333974
0.000311024
0.000281341
0.000242878
0.00019234
0.000124543
3.11164e-05
-0.000101527
-0.000295423
-0.000579979
-0.00107325
-0.0014231
-0.00372658
-0.00156773
0.000302494
0.000299757
0.000294086
0.00028515
0.000272412
0.000255173
0.000232231
0.000201735
0.000161777
0.000110023
4.2634e-05
-4.56443e-05
-0.000161886
-0.000315911
-0.000524379
-0.000704462
-0.00136262
-0.00114793
-0.00311681
-0.00162169
0.000226853
0.000224029
0.000218273
0.000209536
0.000197852
0.000183201
0.000165421
0.000143486
0.000115369
8.21553e-05
4.56377e-05
4.07967e-06
-4.39836e-05
-9.89383e-05
-0.00016063
-0.000226624
-0.00032271
-0.000329579
-0.00055601
-0.000209364
0.000163559
0.000160699
0.000154767
0.000145432
0.0001321
0.000113728
8.91351e-05
5.85404e-05
2.42861e-05
-1.40421e-05
-5.79335e-05
-0.000105233
-0.000154881
-0.000206725
-0.000255952
-0.000292394
-0.000349559
-0.00011772
-0.000432439
0.000721497
0.000112355
0.000110039
0.000105371
9.84799e-05
8.98268e-05
8.04285e-05
7.18392e-05
6.4856e-05
5.78981e-05
4.82726e-05
3.4467e-05
1.55091e-05
-7.61524e-06
-3.12481e-05
-6.08007e-05
-0.000127663
-0.000252513
-0.000496515
-0.000402183
-0.00133735
7.09077e-05
6.89135e-05
6.48013e-05
5.84052e-05
4.94257e-05
3.73345e-05
2.14479e-05
1.48482e-06
-2.14071e-05
-4.41143e-05
-6.14726e-05
-6.52419e-05
-4.22224e-05
2.98908e-05
0.00019546
0.00070708
0.000790897
0.00224312
0.00340203
0.00129916
3.82899e-05
3.6909e-05
3.40656e-05
2.96497e-05
2.35448e-05
1.56311e-05
5.84847e-06
-5.75939e-06
-1.93964e-05
-3.66239e-05
-6.21851e-05
-0.000105853
-0.000184162
-0.000324636
-0.000581878
-0.00104035
-0.00176498
-0.00280748
-0.00537867
-0.00388827
1.10481e-05
1.04212e-05
9.09908e-06
6.9332e-06
3.67501e-06
-1.11045e-06
-8.1807e-06
-1.88946e-05
-3.55114e-05
-6.11527e-05
-9.90809e-05
-0.000152375
-0.000225584
-0.000327228
-0.000472472
-0.000680267
-0.000997338
-0.0013359
-0.0022431
-0.00333967
0.00152595
0.00153631
0.00154615
0.00155544
0.00156413
0.00157221
0.00157964
0.0015864
0.00159248
0.00159786
0.00160254
0.00160651
0.00160978
0.00161235
0.00161423
0.00161543
0.00161598
0.00161589
0.00161519
0.0016139
0.00153455
0.00154562
0.00155611
0.00156597
0.00157518
0.0015837
0.00159149
0.00159855
0.00160484
0.00161037
0.00161511
0.00161906
0.00162223
0.00162464
0.00162628
0.00162718
0.00162736
0.00162686
0.00162568
0.00162388
0.00155041
0.00156273
0.00157436
0.00158526
0.00159538
0.00160468
0.00161312
0.00162067
0.00162732
0.00163303
0.00163782
0.00164168
0.00164461
0.00164664
0.00164777
0.00164805
0.00164749
0.00164613
0.00164402
0.0016412
0.00157606
0.00159056
0.00160422
0.00161695
0.00162868
0.00163935
0.00164891
0.00165733
0.00166457
0.00167061
0.00167547
0.00167913
0.00168162
0.00168295
0.00168318
0.00168233
0.00168047
0.00167764
0.0016739
0.00166932
0.00161397
0.00163199
0.00164887
0.00166449
0.00167875
0.00169156
0.00170285
0.00171256
0.00172066
0.00172713
0.00173197
0.00173519
0.00173684
0.00173696
0.00173563
0.0017329
0.00172886
0.00172359
0.0017172
0.00170978
0.00166786
0.00169142
0.00171336
0.0017335
0.00175167
0.00176775
0.00178162
0.00179321
0.00180248
0.00180941
0.00181402
0.00181635
0.00181647
0.00181448
0.00181049
0.00180462
0.00179701
0.0017878
0.00177711
0.00176512
0.00174426
0.00177641
0.0018062
0.00183329
0.00185739
0.00187829
0.0018958
0.00190984
0.00192035
0.0019273
0.0019307
0.00193053
0.00192689
0.00192004
0.00191035
0.00189829
0.00188433
0.00186898
0.00185216
0.00183388
0.00185118
0.00189779
0.00194051
0.00197886
0.00201246
0.00204104
0.00206444
0.00208263
0.0020957
0.00210386
0.00210736
0.00210656
0.0021017
0.00209289
0.00208021
0.00206367
0.00204387
0.0020169
0.00198793
0.00195461
0.00201187
0.00208303
0.00214665
0.00220207
0.00224872
0.00228586
0.00231303
0.00233009
0.0023371
0.00233409
0.0023209
0.00229637
0.00226091
0.00221573
0.0021615
0.00209928
0.00203671
0.00202932
0.00201007
0.00197888
0.00221247
0.00233223
0.00242886
0.00250584
0.00257166
0.00262591
0.00266897
0.00270159
0.00272515
0.00274152
0.00275136
0.00275726
0.00275416
0.0027448
0.00273319
0.00267345
0.00283212
0.00263567
0.00263483
0.00243839
0.0028928
0.0030596
0.00314984
0.00324799
0.00337535
0.0034764
0.00353518
0.00354495
0.00352112
0.00347111
0.00339691
0.00329432
0.0031644
0.00298293
0.00261263
0.0018988
0.000327008
0.00168403
0.00250955
0.00233128
0.00332966
0.00365717
0.00355208
0.00320345
0.00329242
0.00324191
0.00316521
0.00306206
0.00291061
0.00275588
0.00272062
0.00271775
0.00244874
0.00206768
0.00111318
3.01607e-05
-0.000882143
-0.000457761
0.000695015
0.00144248
0.0253152
0.0131235
0.0258779
0.00702372
0.00821364
0.00894973
0.00840938
0.00819694
0.008203
0.00822254
0.00832707
0.00785806
0.00414
0.00558863
-0.117653
0.0425876
3.31358
0.0538132
-0.00933111
0.017152
1.66888
0.689483
0.736868
0.965941
0.506814
0.273123
0.032612
-0.0245332
0.0292331
0.0892815
-0.156929
-0.426657
-0.561292
-0.231691
0.206069
0.590921
0.935475
1.13696
0.979284
0.729774
0.260122
0.367645
0.333536
0.370646
0.338325
0.319321
0.297354
0.278108
0.263005
0.250571
0.238517
0.235956
0.240449
0.268865
0.296362
0.329839
0.389118
0.318587
0.30852
0.212017
0.125191
0.261038
0.262053
0.291522
0.273799
0.284774
0.265568
0.253514
0.243407
0.239837
0.241586
0.244558
0.249815
0.253515
0.248798
0.308471
0.290017
0.336069
0.28301
0.205829
0.51138
0.702446
0.567237
0.505275
0.503942
0.510357
0.488946
0.47662
0.471391
0.476688
0.493289
0.516787
0.541628
0.594838
0.495482
0.706
0.759937
0.712704
0.585101
0.472442
0.474908
1.01883
1.00564
-0.278153
0.189709
1.06645
0.403201
0.275107
0.0388868
0.0614565
0.319896
0.497823
1.10036
0.360659
-0.896798
0.558568
1.4936
0.79506
0.528633
0.0762368
0.0447626
0.00427064
-0.0105487
-0.0123568
-0.0150665
-0.0204105
-0.0194447
-0.0077906
-0.00399845
-0.00398334
-0.00694148
-0.014056
-0.0168582
-0.00212481
-0.0039607
-0.000527497
0.0246726
-0.00297805
-0.00211626
-0.00337519
-0.00474229
-0.00530863
-0.00237762
-0.00343271
-0.00313108
-0.00389528
-0.00359204
-0.00364324
-0.00365065
-0.00379149
-0.00405978
-0.00431822
-0.00478172
-0.00457801
-0.00537312
-0.00360686
-0.00727427
-0.00413005
-0.00561939
-0.0045841
0.00161114
0.00160541
0.00159793
0.00158899
0.0015789
0.00156796
0.00155646
0.00154469
0.00153288
0.00152129
0.00151012
0.00149957
0.0014898
0.00148095
0.00147315
0.0014665
0.00146109
0.00145698
0.00145421
0.00145282
0.00162028
0.00161332
0.00160454
0.00159426
0.00158284
0.00157061
0.00155788
0.00154495
0.0015321
0.00151956
0.00150756
0.00149628
0.00148589
0.00147653
0.00146832
0.00146134
0.00145567
0.00145137
0.00144847
0.00144701
0.00163598
0.00162665
0.00161537
0.00160257
0.00158867
0.00157405
0.00155907
0.00154407
0.00152934
0.00151511
0.00150162
0.00148905
0.00147755
0.00146725
0.00145826
0.00145064
0.00144448
0.00143981
0.00143667
0.0014351
0.00166129
0.00164792
0.00163246
0.00161549
0.00159753
0.00157908
0.00156057
0.00154235
0.00152473
0.00150798
0.0014923
0.00147785
0.00146477
0.00145316
0.00144309
0.00143463
0.00142781
0.00142267
0.00141923
0.0014175
0.00169726
0.00167752
0.0016556
0.00163232
0.00160838
0.00158439
0.00156085
0.00153818
0.00151667
0.00149656
0.00147799
0.00146114
0.00144608
0.00143285
0.00142147
0.00141198
0.00140437
0.00139866
0.00139485
0.0013929
0.00174544
0.00171582
0.00168424
0.0016518
0.00161943
0.00158787
0.00155771
0.00152935
0.00150305
0.00147895
0.00145683
0.00143732
0.00142009
0.00140511
0.00139235
0.00138178
0.00137336
0.00136708
0.0013629
0.00136081
0.00180447
0.00176131
0.00171622
0.00167101
0.00162724
0.00158575
0.0015474
0.00151231
0.00148054
0.00145206
0.00142673
0.00140448
0.00138512
0.00136852
0.00135452
0.00134301
0.0013339
0.00132712
0.00132266
0.00132045
0.00190074
0.00182568
0.001753
0.00168593
0.00162575
0.00157202
0.00152427
0.00148205
0.00144496
0.00141256
0.00138439
0.00136007
0.00133922
0.00132155
0.00130679
0.00129476
0.00128523
0.00127807
0.0012737
0.00127157
0.0019212
0.00183738
0.00175302
0.00167001
0.0015978
0.00153421
0.00147889
0.00143125
0.0013906
0.00135608
0.00132675
0.00130178
0.00128067
0.00126306
0.00124832
0.00123684
0.00122786
0.0012213
0.00121657
0.00121418
0.00220721
0.00195994
0.00176712
0.00162795
0.00152635
0.00145105
0.00139369
0.00134809
0.00131043
0.00127864
0.00125155
0.00122807
0.00120832
0.0011935
0.00118061
0.00116917
0.00116011
0.00115339
0.00114895
0.00114673
0.00201253
0.00185034
0.00170879
0.00161072
0.00152992
0.00146016
0.0013976
0.00133834
0.00128368
0.00123647
0.00119868
0.00116656
0.0011399
0.00111873
0.00110303
0.0010914
0.00108271
0.00107642
0.00107232
0.00107029
0.00132481
0.0011876
0.00107493
0.000999217
0.000968963
0.000961037
0.000961876
0.000968463
0.00097705
0.000985558
0.000998484
0.00101052
0.0010155
0.00101323
0.00100793
0.00100154
0.000995573
0.000990713
0.000987352
0.000985649
0.00051648
0.00114783
0.00086748
0.00108943
0.00112175
0.00111542
0.00109482
0.00107018
0.0010462
0.00102333
0.000994762
0.000967966
0.000947613
0.000932106
0.00092023
0.000911159
0.000904204
0.000899134
0.000895798
0.000894141
-0.000882663
-0.000380703
0.000157052
0.000358517
0.000544816
0.000661002
0.000736401
0.000782903
0.000810178
0.000823818
0.000833892
0.000834301
0.000830178
0.000824019
0.000817205
0.000810698
0.000805001
0.000800488
0.000797401
0.000795846
0.00146822
0.00120498
0.00107903
0.000995683
0.00093844
0.000894359
0.000861319
0.00083627
0.000818102
0.000799229
0.000775413
0.00075648
0.000740832
0.000727761
0.000716996
0.000708229
0.000701343
0.000696259
0.000692905
0.000691245
0.00154182
0.001352
0.00123809
0.00113486
0.00104312
0.00096042
0.000885216
0.000815592
0.000757431
0.000712357
0.000678658
0.000653478
0.000634209
0.000619143
0.000607172
0.000597693
0.000590378
0.000585032
0.000581539
0.000579822
-0.000473832
0.000425065
8.80555e-05
0.000309292
0.000362398
0.000402764
0.000448176
0.000486238
0.000508514
0.000519164
0.000520409
0.000515161
0.000506375
0.000496363
0.000486691
0.000478245
0.000471416
0.00046633
0.000462987
0.00046134
0.00285857
0.0033757
0.00253841
0.00193245
0.00150806
0.00118735
0.000946299
0.000764532
0.000632466
0.000538275
0.000472547
0.000427683
0.000397378
0.000376804
0.0003626
0.000352606
0.00034553
0.000340652
0.000337577
0.000336094
-0.00183324
-0.000814273
-0.000457885
-0.000215286
-6.27335e-05
3.95893e-05
0.000112051
0.000162454
0.000196995
0.000218585
0.000229103
0.000231518
0.000229086
0.000224366
0.000219139
0.000214357
0.000210443
0.000207519
0.0002056
0.000204656
-0.00270299
-0.00151897
-0.000795151
-0.000369823
-0.000124683
9.65797e-06
7.70834e-05
9.33777e-05
0.000101764
9.90642e-05
9.26706e-05
8.64217e-05
8.15502e-05
7.79539e-05
7.52575e-05
7.3191e-05
7.16234e-05
7.04911e-05
6.97574e-05
6.93982e-05
)
;

boundaryField
{
    leftWall
    {
        type            fixedFluxPressure;
        gradient        uniform 0;
        value           nonuniform List<scalar> 
40
(
0.0012389
0.00123848
0.00123765
0.00123641
0.00123474
0.00123264
0.0012301
0.00122712
0.00122368
0.00121978
0.0012154
0.00121053
0.00120518
0.00119931
0.00119292
0.00118601
0.00117854
0.00117047
0.00116259
0.00114927
0.00115562
0.00114435
0.00112575
0.00109626
0.00105564
0.0010034
0.000939306
0.000863595
0.000777373
0.000682849
0.000583467
0.000483836
0.00038885
0.000302494
0.000226853
0.000163559
0.000112355
7.09077e-05
3.82899e-05
1.10481e-05
)
;
    }
    rightWall
    {
        type            fixedFluxPressure;
        gradient        uniform 0;
        value           nonuniform List<scalar> 
40
(
0.00148958
0.0014894
0.00148904
0.00148849
0.00148777
0.00148685
0.00148575
0.00148445
0.00148294
0.00148122
0.00147928
0.00147711
0.00147469
0.00147202
0.00146909
0.00146588
0.00146239
0.00145876
0.00145417
0.00144956
0.00145282
0.00144701
0.0014351
0.0014175
0.0013929
0.00136081
0.00132045
0.00127157
0.00121418
0.00114673
0.00107029
0.000985649
0.000894141
0.000795846
0.000691245
0.000579822
0.00046134
0.000336094
0.000204656
6.93982e-05
)
;
    }
    lowerWall
    {
        type            fixedFluxPressure;
        gradient        uniform 0;
        value           nonuniform List<scalar> 
60
(
0.0012389
0.00124058
0.00124395
0.00124896
0.00125557
0.0012637
0.00127328
0.0012842
0.00129635
0.00130959
0.00132377
0.00133874
0.00135432
0.00137033
0.00138658
0.00140288
0.00141904
0.00143486
0.00145016
0.00146477
0.00147507
0.00148171
0.00148809
0.00149422
0.00150006
0.00150562
0.00151087
0.00151581
0.00152043
0.00152472
0.00152868
0.0015323
0.00153558
0.00153852
0.00154112
0.00154339
0.00154532
0.00154692
0.0015482
0.00154916
0.00155015
0.00155024
0.00154924
0.00154726
0.00154443
0.0015409
0.0015368
0.00153228
0.00152748
0.00152253
0.00151757
0.00151271
0.00150809
0.0015038
0.00149995
0.00149661
0.00149385
0.00149174
0.0014903
0.00148958
)
;
    }
    atmosphere
    {
        type            totalPressure;
        rho             rho;
        psi             none;
        gamma           1;
        p0              uniform 0;
        value           nonuniform List<scalar> 
60
(
-3.88135e-07
-4.18817e-07
-4.56749e-07
-5.19418e-07
-6.14653e-07
-7.55021e-07
-9.60054e-07
-1.25982e-06
-1.70093e-06
-2.3575e-06
-3.35164e-06
-4.89132e-06
-7.34325e-06
-1.13794e-05
-1.83117e-05
-3.0763e-05
-5.49767e-05
-9.69524e-05
-0.000211605
-0.000238684
0
0
0
-0.000579696
0
-6.77811e-06
0
0
-2.24638e-06
-1.17423e-06
0
-1.68179e-06
-2.99338e-05
-5.10072e-05
-0.000384564
-5.47895e-05
0
-1.27452e-05
-9.17735e-05
-0.000213225