/*--------------------------------*- C++ -*----------------------------------*\
| =========                 |                                                 |
| \\      /  F ield         | OpenFOAM: The Open Source CFD Toolbox           |
|  \\    /   O peration     | Version:  2.4.0                                 |
|   \\  /    A nd           | Web:      www.OpenFOAM.org                      |
|    \\/     M anipulation  |                                                 |
\*---------------------------------------------------------------------------*/
FoamFile
{
    version     2.0;
    format      ascii;
    class       surfaceScalarField;
    location    "0.2";
    object      phiAlpha;
}
// * * * * * * * * * * * * * * * * * * * * * * * * * * * * * * * * * * * * * //

dimensions      [0 3 -1 0 0 0 0];

internalField   nonuniform List<scalar> 
4700
(
-1.64841e-11
1.64841e-11
-3.28579e-11
1.64065e-11
-4.90538e-11
1.62244e-11
-6.49719e-11
1.59457e-11
-8.05158e-11
1.55702e-11
-9.55872e-11
1.50964e-11
-1.10086e-10
1.45227e-11
-1.23913e-10
1.38481e-11
-1.36964e-10
1.30721e-11
-1.49142e-10
1.21955e-11
-1.60348e-10
1.12211e-11
-1.70489e-10
1.01537e-11
-1.79479e-10
9.0006e-12
-1.87244e-10
7.7721e-12
-1.93718e-10
6.4811e-12
-1.98854e-10
5.14317e-12
-2.02622e-10
3.77608e-12
-2.05011e-10
2.3993e-12
-2.0603e-10
1.03296e-12
-3.05798e-13
-2.05706e-10
-1.65403e-11
3.30582e-11
-3.29768e-11
3.28982e-11
-4.92332e-11
3.253e-11
-6.52116e-11
3.19709e-11
-8.08156e-11
3.12185e-11
-9.59469e-11
3.02695e-11
-1.10505e-10
2.91203e-11
-1.2439e-10
2.77684e-11
-1.37499e-10
2.62129e-11
-1.49732e-10
2.44557e-11
-1.6099e-10
2.25022e-11
-1.7118e-10
2.03624e-11
-1.80215e-10
1.80513e-11
-1.88019e-10
1.55896e-11
-1.94526e-10
1.30031e-11
-1.99689e-10
1.03229e-11
-2.03476e-10
7.58474e-12
-2.05876e-10
4.82756e-12
-2.06899e-10
2.09249e-12
-5.79152e-13
-2.06573e-10
-1.65849e-11
4.96717e-11
-3.30689e-11
4.94281e-11
-4.93731e-11
4.88747e-11
-6.53999e-11
4.80365e-11
-8.1053e-11
4.69089e-11
-9.62344e-11
4.54863e-11
-1.10844e-10
4.37631e-11
-1.24779e-10
4.17351e-11
-1.37939e-10
3.94007e-11
-1.50221e-10
3.67623e-11
-1.61526e-10
3.38282e-11
-1.71758e-10
3.06133e-11
-1.80831e-10
2.71399e-11
-1.88666e-10
2.34389e-11
-1.95197e-10
1.95492e-11
-2.00374e-10
1.55175e-11
-2.04166e-10
1.13974e-11
-2.0656e-10
7.24803e-12
-2.07568e-10
3.13182e-12
-8.88281e-13
-2.07214e-10
-1.66526e-11
6.63493e-11
-3.32073e-11
6.6023e-11
-4.95827e-11
6.52858e-11
-6.56818e-11
6.41703e-11
-8.14087e-11
6.26695e-11
-9.66652e-11
6.07755e-11
-1.11351e-10
5.84801e-11
-1.25363e-10
5.5777e-11
-1.38598e-10
5.26637e-11
-1.50954e-10
4.9143e-11
-1.62329e-10
4.52255e-11
-1.72627e-10
4.09306e-11
-1.81756e-10
3.6288e-11
-1.89638e-10
3.13385e-11
-1.96204e-10
2.61339e-11
-2.01404e-10
2.07367e-11
-2.05203e-10
1.52192e-11
-2.07589e-10
9.66073e-12
-2.08572e-10
4.14576e-12
-1.24201e-12
-2.08178e-10
-1.67432e-11
8.31148e-11
-3.33916e-11
8.27069e-11
-4.98616e-11
8.17875e-11
-6.6057e-11
8.0397e-11
-8.18823e-11
7.8526e-11
-9.72391e-11
7.61632e-11
-1.12026e-10
7.32978e-11
-1.26141e-10
6.99211e-11
-1.39479e-10
6.60288e-11
-1.51934e-10
6.16241e-11
-1.63403e-10
5.67191e-11
-1.73787e-10
5.13377e-11
-1.82994e-10
4.55164e-11
-1.90939e-10
3.93058e-11
-1.97554e-10
3.27706e-11
-2.02783e-10
2.59895e-11
-2.06592e-10
1.90536e-11
-2.08968e-10
1.20636e-11
-2.09919e-10
5.1266e-12
-1.65322e-12
-2.0947e-10
-1.68567e-11
9.99911e-11
-3.36215e-11
9.95026e-11
-5.02092e-11
9.84034e-11
-6.65248e-11
9.6741e-11
-8.2473e-11
9.4503e-11
-9.79554e-11
9.16749e-11
-1.12871e-10
8.82424e-11
-1.27114e-10
8.41936e-11
-1.4058e-10
7.95225e-11
-1.5316e-10
7.42315e-11
-1.64748e-10
6.83342e-11
-1.75243e-10
6.1858e-11
-1.84546e-10
5.4846e-11
-1.92573e-10
4.73583e-11
-1.99249e-10
3.94726e-11
-2.04517e-10
3.12842e-11
-2.0834e-10
2.29036e-11
-2.10702e-10
1.44537e-11
-2.11611e-10
6.06449e-12
-2.13349e-12
-2.11097e-10
-1.69926e-11
1.17001e-10
-3.38963e-11
1.16433e-10
-5.06249e-11
1.15157e-10
-6.70843e-11
1.13226e-10
-8.318e-11
1.10625e-10
-9.88136e-11
1.07336e-10
-1.13883e-10
1.0334e-10
-1.28282e-10
9.8621e-11
-1.41903e-10
9.31713e-11
-1.54634e-10
8.69915e-11
-1.66368e-10
8.00961e-11
-1.76996e-10
7.25153e-11
-1.86418e-10
6.4298e-11
-1.94544e-10
5.55138e-11
-2.01296e-10
4.62535e-11
-2.06612e-10
3.66291e-11
-2.10452e-10
2.67719e-11
-2.12799e-10
1.68279e-11
-2.1366e-10
6.95175e-12
-2.7001e-12
-2.13065e-10
-1.71506e-11
1.34166e-10
-3.42155e-11
1.33521e-10
-5.11076e-11
1.3207e-10
-6.77346e-11
1.29876e-10
-8.40024e-11
1.26917e-10
-9.98128e-11
1.23171e-10
-1.15063e-10
1.18616e-10
-1.29645e-10
1.1323e-10
-1.43448e-10
1.07002e-10
-1.56358e-10
9.99312e-11
-1.68263e-10
9.20308e-11
-1.7905e-10
8.33338e-11
-1.88614e-10
7.38942e-11
-1.96859e-10
6.37905e-11
-2.03702e-10
5.31268e-11
-2.09076e-10
4.20326e-11
-2.12938e-10
3.06609e-11
-2.15268e-10
1.91828e-11
-2.16073e-10
7.77904e-12
-3.36833e-12
-2.15381e-10
-1.73304e-11
1.51508e-10
-3.45782e-11
1.50788e-10
-5.16563e-11
1.49167e-10
-6.84743e-11
1.46714e-10
-8.49389e-11
1.43403e-10
-1.00952e-10
1.39207e-10
-1.16409e-10
1.34097e-10
-1.31202e-10
1.28048e-10
-1.45215e-10
1.21044e-10
-1.58333e-10
1.13078e-10
-1.70437e-10
1.04165e-10
-1.8141e-10
9.43387e-11
-1.9114e-10
8.36571e-11
-1.99525e-10
7.22075e-11
-2.06475e-10
6.0107e-11
-2.11919e-10
4.75037e-11
-2.15807e-10
3.45737e-11
-2.18119e-10
2.15152e-11
-2.18859e-10
8.53717e-12
-4.15244e-12
-2.18059e-10
-1.75314e-11
1.6905e-10
-3.49835e-11
1.68257e-10
-5.22698e-11
1.6647e-10
-6.9302e-11
1.63763e-10
-8.59879e-11
1.60108e-10
-1.02229e-10
1.55469e-10
-1.17921e-10
1.49812e-10
-1.32953e-10
1.43104e-10
-1.47207e-10
1.35323e-10
-1.60562e-10
1.26461e-10
-1.72894e-10
1.16527e-10
-1.8408e-10
1.05556e-10
-1.94003e-10
9.36106e-11
-2.0255e-10
8.0785e-11
-2.09626e-10
6.721e-11
-2.15151e-10
5.30526e-11
-2.19072e-10
3.8514e-11
-2.21363e-10
2.38223e-11
-2.22031e-10
9.21735e-12
-5.06756e-12
-2.21107e-10
-1.77532e-11
1.86812e-10
-3.54302e-11
1.85948e-10
-5.29465e-11
1.84e-10
-7.02159e-11
1.81048e-10
-8.71477e-11
1.77057e-10
-1.03644e-10
1.71984e-10
-1.19599e-10
1.65786e-10
-1.34898e-10
1.58425e-10
-1.49423e-10
1.49871e-10
-1.63045e-10
1.4011e-10
-1.75636e-10
1.29146e-10
-1.87067e-10
1.17015e-10
-1.97209e-10
1.0378e-10
-2.05944e-10
8.95455e-11
-2.13165e-10
7.44536e-11
-2.18785e-10
5.86915e-11
-2.22744e-10
4.24871e-11
-2.25014e-10
2.61021e-11
-2.25602e-10
9.81148e-12
-6.12811e-12
-2.24541e-10
-1.79952e-11
2.04815e-10
-3.59173e-11
2.03883e-10
-5.36846e-11
2.0178e-10
-7.1214e-11
1.98591e-10
-8.84161e-11
1.94273e-10
-1.05193e-10
1.88776e-10
-1.21439e-10
1.82049e-10
-1.37037e-10
1.74042e-10
-1.51863e-10
1.64718e-10
-1.65786e-10
1.54055e-10
-1.78669e-10
1.42053e-10
-1.90375e-10
1.28744e-10
-2.00768e-10
1.14195e-10
-2.09717e-10
9.85145e-11
-2.17105e-10
8.18588e-11
-2.22836e-10
6.44352e-11
-2.2684e-10
4.64999e-11
-2.29086e-10
2.83533e-11
-2.29587e-10
1.03124e-11
-7.34708e-12
-2.28374e-10
-1.82565e-11
2.23078e-10
-3.64431e-11
2.22081e-10
-5.44819e-11
2.19831e-10
-7.22936e-11
2.16415e-10
-8.97905e-11
2.11783e-10
-1.06875e-10
2.05874e-10
-1.23441e-10
1.98628e-10
-1.39368e-10
1.89984e-10
-1.54529e-10
1.79895e-10
-1.68786e-10
1.6833e-10
-1.81997e-10
1.55282e-10
-1.94013e-10
1.40778e-10
-2.04688e-10
1.24886e-10
-2.1388e-10
1.07721e-10
-2.21461e-10
8.94502e-11
-2.2732e-10
7.03018e-11
-2.31376e-10
5.05613e-11
-2.33596e-10
3.05743e-11
-2.34001e-10
1.07138e-11
-8.73547e-12
-2.32625e-10
-1.85367e-11
2.41621e-10
-3.70059e-11
2.40561e-10
-5.5336e-11
2.38171e-10
-7.34518e-11
2.34541e-10
-9.12678e-11
2.29609e-10
-1.08687e-10
2.23304e-10
-1.25602e-10
2.15552e-10
-1.4189e-10
2.06284e-10
-1.57421e-10
1.95437e-10
-1.72049e-10
1.8297e-10
-1.85623e-10
1.68868e-10
-1.97985e-10
1.53152e-10
-2.08979e-10
1.3589e-10
-2.18448e-10
1.17199e-10
-2.26248e-10
9.72565e-11
-2.32255e-10
7.6313e-11
-2.36373e-10
5.46816e-11
-2.3856e-10
3.27613e-11
-2.38863e-10
1.10098e-11
-1.0302e-11
-2.37311e-10
-1.88351e-11
2.60462e-10
-3.76035e-11
2.59339e-10
-5.62436e-11
2.5682e-10
-7.4685e-11
2.52991e-10
-9.28442e-11
2.47776e-10
-1.10625e-10
2.41092e-10
-1.27919e-10
2.32853e-10
-1.44602e-10
2.22973e-10
-1.60538e-10
2.11378e-10
-1.75574e-10
1.98013e-10
-1.89552e-10
1.82852e-10
-2.02301e-10
1.65908e-10
-2.13652e-10
1.47246e-10
-2.23433e-10
1.26986e-10
-2.31483e-10
1.05311e-10
-2.37662e-10
8.24945e-11
-2.41852e-10
5.88727e-11
-2.43998e-10
3.49048e-11
-2.4419e-10
1.11948e-11
-1.20526e-11
-2.42454e-10
-1.91519e-11
2.79619e-10
-3.82334e-11
2.78429e-10
-5.7201e-11
2.75795e-10
-7.59889e-11
2.71785e-10
-9.45154e-11
2.66308e-10
-1.12685e-10
2.59266e-10
-1.30389e-10
2.50559e-10
-1.47501e-10
2.40087e-10
-1.63879e-10
2.27758e-10
-1.79365e-10
2.13501e-10
-1.93788e-10
1.97277e-10
-2.06967e-10
1.79091e-10
-2.18717e-10
1.59e-10
-2.28852e-10
1.37124e-10
-2.37187e-10
1.13649e-10
-2.43567e-10
8.88768e-11
-2.47843e-10
6.31494e-11
-2.49924e-10
3.6983e-11
-2.5e-10
1.12633e-11
-1.39868e-11
-2.4808e-10
-1.94884e-11
2.99112e-10
-3.88919e-11
2.97839e-10
-5.82037e-11
2.95113e-10
-7.73587e-11
2.90944e-10
-9.62762e-11
2.85227e-10
-1.14862e-10
2.77853e-10
-1.33008e-10
2.68704e-10
-1.50584e-10
2.57662e-10
-1.67444e-10
2.44617e-10
-1.83421e-10
2.29479e-10
-1.98335e-10
2.12192e-10
-2.1199e-10
1.92748e-10
-2.24186e-10
1.71199e-10
-2.34721e-10
1.47663e-10
-2.4338e-10
1.22312e-10
-2.49999e-10
9.54977e-11
-2.54385e-10
6.75349e-11
-2.56358e-10
3.89525e-11
-2.56417e-10
1.1316e-11
-1.61945e-11
-2.54222e-10
-1.98389e-11
3.18955e-10
-3.95697e-11
3.17574e-10
-5.92402e-11
3.14786e-10
-7.87806e-11
3.10486e-10
-9.81107e-11
3.04557e-10
-1.17139e-10
2.96879e-10
-1.35756e-10
2.87318e-10
-1.53831e-10
2.75735e-10
-1.71213e-10
2.61996e-10
-1.87726e-10
2.45991e-10
-2.03177e-10
2.27643e-10
-2.17357e-10
2.0693e-10
-2.30048e-10
1.83893e-10
-2.41034e-10
1.58652e-10
-2.50053e-10
1.31334e-10
-2.5695e-10
1.02396e-10
-2.61456e-10
7.20403e-11
-2.63071e-10
4.05634e-11
-2.62701e-10
1.09409e-11
-1.78234e-11
-2.61081e-10
-2.03156e-11
3.39274e-10
-4.0319e-11
3.37579e-10
-6.03797e-11
3.34847e-10
-8.03417e-11
3.30448e-10
-1.00119e-10
3.24333e-10
-1.19623e-10
3.16379e-10
-1.38743e-10
3.06435e-10
-1.57349e-10
2.94337e-10
-1.75281e-10
2.79926e-10
-1.92356e-10
2.63066e-10
-2.08369e-10
2.43657e-10
-2.23094e-10
2.21657e-10
-2.36298e-10
1.97099e-10
-2.47758e-10
1.70115e-10
-2.57145e-10
1.40723e-10
-2.64387e-10
1.09638e-10
-2.69179e-10
7.68318e-11
-2.70321e-10
4.17035e-11
-2.69326e-10
9.94389e-12
-1.91699e-11
-2.67983e-10
-2.67297e-11
3.66003e-10
-5.36257e-11
3.64475e-10
-8.05334e-11
3.61754e-10
-1.07363e-10
3.57275e-10
-1.34064e-10
3.51029e-10
-1.60551e-10
3.42862e-10
-1.86706e-10
3.32584e-10
-2.12369e-10
3.19996e-10
-2.37341e-10
3.04895e-10
-2.61379e-10
2.87103e-10
-2.84202e-10
2.6648e-10
-3.05491e-10
2.42948e-10
-3.24904e-10
2.16516e-10
-3.42174e-10
1.87389e-10
-3.56656e-10
1.55208e-10
-3.68251e-10
1.21235e-10
-3.76798e-10
8.53798e-11
-3.81869e-10
4.67751e-11
-3.83691e-10
1.1769e-11
-3.81847e-10
-3.36161e-12
-2.05038e-10
-6.37755e-13
-2.04056e-10
-9.48142e-13
-2.02764e-10
-1.25412e-12
-2.01177e-10
-1.54686e-12
-1.99303e-10
-1.82877e-12
-1.97155e-10
-2.09867e-12
-1.94746e-10
-2.35595e-12
-1.92091e-10
-2.5995e-12
-1.89202e-10
-2.83025e-12
-1.86096e-10
-3.04476e-12
-1.8279e-10
-3.24396e-12
-1.79295e-10
-3.43086e-12
-1.75633e-10
-3.59877e-12
-1.71817e-10
-3.75267e-12
-1.67863e-10
-3.89235e-12
-1.63791e-10
-4.01527e-12
-1.59612e-10
-4.12501e-12
-1.55342e-10
-4.21931e-12
-1.50996e-10
-4.29828e-12
-4.36086e-12
-1.4659e-10
-2.05899e-10
-1.24929e-12
-2.04906e-10
-1.87317e-12
-2.03608e-10
-2.479e-12
-2.0201e-10
-3.06436e-12
-2.00124e-10
-3.6275e-12
-1.97963e-10
-4.16695e-12
-1.9554e-10
-4.68109e-12
-1.92869e-10
-5.16873e-12
-1.89965e-10
-5.62789e-12
-1.86842e-10
-6.05935e-12
-1.83515e-10
-6.46079e-12
-1.80003e-10
-6.83232e-12
-1.7632e-10
-7.17358e-12
-1.72484e-10
-7.4849e-12
-1.68512e-10
-7.76553e-12
-1.64417e-10
-8.01745e-12
-1.60216e-10
-8.23846e-12
-1.55924e-10
-8.42948e-12
-1.51554e-10
-8.59121e-12
-8.72574e-12
-1.47129e-10
-2.06523e-10
-1.88829e-12
-2.05513e-10
-2.82786e-12
-2.04194e-10
-3.73922e-12
-2.02574e-10
-4.62048e-12
-2.00664e-10
-5.4684e-12
-1.98478e-10
-6.28052e-12
-1.96028e-10
-7.05437e-12
-1.9333e-10
-7.78797e-12
-1.90396e-10
-8.47939e-12
-1.87243e-10
-9.12762e-12
-1.83888e-10
-9.73144e-12
-1.80345e-10
-1.02901e-11
-1.76632e-10
-1.08034e-11
-1.72766e-10
-1.12713e-11
-1.68763e-10
-1.16929e-11
-1.64638e-10
-1.20699e-11
-1.60408e-10
-1.24006e-11
-1.56086e-10
-1.26864e-11
-1.51688e-10
-1.29288e-11
-1.31307e-11
-1.47238e-10
-2.07463e-10
-2.55616e-12
-2.06425e-10
-3.81647e-12
-2.05075e-10
-5.03756e-12
-2.03422e-10
-6.21912e-12
-2.01476e-10
-7.35585e-12
-1.99252e-10
-8.44426e-12
-1.96762e-10
-9.48102e-12
-1.94021e-10
-1.04634e-11
-1.91044e-10
-1.13891e-11
-1.87847e-10
-1.22563e-11
-1.84446e-10
-1.30637e-11
-1.80858e-10
-1.38103e-11
-1.771e-10
-1.44958e-11
-1.73188e-10
-1.51196e-11
-1.69139e-10
-1.56806e-11
-1.64969e-10
-1.61814e-11
-1.60693e-10
-1.66199e-11
-1.56328e-10
-1.69986e-11
-1.5189e-10
-1.73198e-11
-1.75859e-11
-1.474e-10
-2.08723e-10
-3.26104e-12
-2.07647e-10
-4.84954e-12
-2.06257e-10
-6.38467e-12
-2.04558e-10
-7.87237e-12
-2.02565e-10
-9.30296e-12
-2.00289e-10
-1.06722e-11
-1.97744e-10
-1.19759e-11
-1.94947e-10
-1.32107e-11
-1.91911e-10
-1.43735e-11
-1.88654e-10
-1.54621e-11
-1.85193e-10
-1.64747e-11
-1.81544e-10
-1.74101e-11
-1.77724e-10
-1.82675e-11
-1.7375e-10
-1.90462e-11
-1.69639e-10
-1.97456e-11
-1.65407e-10
-2.03677e-11
-1.61072e-10
-2.09121e-11
-1.5665e-10
-2.13816e-11
-1.52156e-10
-2.17781e-11
-2.21039e-11
-1.4761e-10
-2.10307e-10
-4.01519e-12
-2.09188e-10
-5.93298e-12
-2.07744e-10
-7.79379e-12
-2.05989e-10
-9.59302e-12
-2.03934e-10
-1.13232e-11
-2.01592e-10
-1.29786e-11
-1.98979e-10
-1.45541e-11
-1.9611e-10
-1.60454e-11
-1.93e-10
-1.74488e-11
-1.89667e-10
-1.87615e-11
-1.86128e-10
-1.99811e-11
-1.82401e-10
-2.11059e-11
-1.78503e-10
-2.21349e-11
-1.7445e-10
-2.30674e-11
-1.7026e-10
-2.39035e-11
-1.65952e-10
-2.46447e-11
-1.61541e-10
-2.52925e-11
-1.57046e-10
-2.5849e-11
-1.52481e-10
-2.63162e-11
-2.66968e-11
-1.47865e-10
-2.12226e-10
-4.82453e-12
-2.1105e-10
-7.08167e-12
-2.09543e-10
-9.27451e-12
-2.07719e-10
-1.13932e-11
-2.05589e-10
-1.34298e-11
-2.03168e-10
-1.53776e-11
-2.00471e-10
-1.72304e-11
-1.97513e-10
-1.8983e-11
-1.94312e-10
-2.06309e-11
-1.90887e-10
-2.21704e-11
-1.87253e-10
-2.35987e-11
-1.8343e-10
-2.49136e-11
-1.79435e-10
-2.61138e-11
-1.75286e-10
-2.7199e-11
-1.71001e-10
-2.81697e-11
-1.66599e-10
-2.90277e-11
-1.62098e-10
-2.97755e-11
-1.57513e-10
-3.04145e-11
-1.52861e-10
-3.09474e-11
-3.13785e-11
-1.48161e-10
-2.14486e-10
-5.69766e-12
-2.13243e-10
-8.30644e-12
-2.11662e-10
-1.08395e-11
-2.09756e-10
-1.32861e-11
-2.07537e-10
-1.56371e-11
-2.05021e-10
-1.78844e-11
-2.02223e-10
-2.00206e-11
-1.99161e-10
-2.20396e-11
-1.95852e-10
-2.39365e-11
-1.92315e-10
-2.57053e-11
-1.88568e-10
-2.73442e-11
-1.84631e-10
-2.88499e-11
-1.8052e-10
-3.02213e-11
-1.76257e-10
-3.14583e-11
-1.71859e-10
-3.25619e-11
-1.67347e-10
-3.35329e-11
-1.62737e-10
-3.43774e-11
-1.58046e-10
-3.50941e-11
-1.53292e-10
-3.56884e-11
-3.61661e-11
-1.48494e-10
-2.17096e-10
-6.64669e-12
-2.15776e-10
-9.61782e-12
-2.14109e-10
-1.25019e-11
-2.12107e-10
-1.52864e-11
-2.09784e-10
-1.79608e-11
-2.07157e-10
-2.05156e-11
-2.04242e-10
-2.29421e-11
-2.01057e-10
-2.52332e-11
-1.97621e-10
-2.73837e-11
-1.93954e-10
-2.9385e-11
-1.90074e-10
-3.12364e-11
-1.86002e-10
-3.29339e-11
-1.81757e-10
-3.44763e-11
-1.77361e-10
-3.5864e-11
-1.72832e-10
-3.70981e-11
-1.6819e-10
-3.81798e-11
-1.63454e-10
-3.9116e-11
-1.58641e-10
-3.99062e-11
-1.5377e-10
-4.05577e-11
-4.10772e-11
-1.4886e-10
-2.20068e-10
-7.68168e-12
-2.1866e-10
-1.10281e-11
-2.16893e-10
-1.42754e-11
-2.14781e-10
-1.74093e-11
-2.12339e-10
-2.04175e-11
-2.09584e-10
-2.32889e-11
-2.06533e-10
-2.60136e-11
-2.03207e-10
-2.85833e-11
-1.99624e-10
-3.09913e-11
-1.95805e-10
-3.32294e-11
-1.91772e-10
-3.52953e-11
-1.87544e-10
-3.71854e-11
-1.83145e-10
-3.88986e-11
-1.78595e-10
-4.04353e-11
-1.73915e-10
-4.1797e-11
-1.69124e-10
-4.29866e-11
-1.64244e-10
-4.40091e-11
-1.59292e-10
-4.48686e-11
-1.54289e-10
-4.55722e-11
-4.6126e-11
-1.49251e-10
-2.23416e-10
-8.81258e-12
-2.21907e-10
-1.25491e-11
-2.20027e-10
-1.61738e-11
-2.17789e-10
-1.96701e-11
-2.1521e-10
-2.30237e-11
-2.12308e-10
-2.62218e-11
-2.09103e-10
-2.9253e-11
-2.05614e-10
-3.21081e-11
-2.01863e-10
-3.4779e-11
-1.97871e-10
-3.72577e-11
-1.93662e-10
-3.95405e-11
-1.89258e-10
-4.1624e-11
-1.84682e-10
-4.35071e-11
-1.79957e-10
-4.51905e-11
-1.75105e-10
-4.66764e-11
-1.70146e-10
-4.79689e-11
-1.65103e-10
-4.90736e-11
-1.59996e-10
-4.99966e-11
-1.54843e-10
-5.07448e-11
-5.13237e-11
-1.49658e-10
-2.27153e-10
-1.00485e-11
-2.25532e-10
-1.41916e-11
-2.23523e-10
-1.82096e-11
-2.21143e-10
-2.20827e-11
-2.18408e-10
-2.57944e-11
-2.1534e-10
-2.93304e-11
-2.11958e-10
-3.26772e-11
-2.08284e-10
-3.58253e-11
-2.04342e-10
-3.87654e-11
-2.00154e-10
-4.14891e-11
-1.95745e-10
-4.39917e-11
-1.91141e-10
-4.62695e-11
-1.86365e-10
-4.83215e-11
-1.81443e-10
-5.01488e-11
-1.76397e-10
-5.17549e-11
-1.71251e-10
-5.31452e-11
-1.66026e-10
-5.43263e-11
-1.60744e-10
-5.53052e-11
-1.55422e-10
-5.60884e-11
-5.66831e-11
-1.50074e-10
-2.31296e-10
-1.13973e-11
-2.2955e-10
-1.59649e-11
-2.27396e-10
-2.03943e-11
-2.24854e-10
-2.46606e-11
-2.21944e-10
-2.87443e-11
-2.18687e-10
-3.26314e-11
-2.15106e-10
-3.63035e-11
-2.11224e-10
-3.97535e-11
-2.07066e-10
-4.29705e-11
-2.02657e-10
-4.59449e-11
-1.98023e-10
-4.86709e-11
-1.93193e-10
-5.11446e-11
-1.88193e-10
-5.33644e-11
-1.83049e-10
-5.53326e-11
-1.77788e-10
-5.70545e-11
-1.72432e-10
-5.85368e-11
-1.67005e-10
-5.9787e-11
-1.61527e-10
-6.08125e-11
-1.56016e-10
-6.1621e-11
-6.22225e-11
-1.5049e-10
-2.35864e-10
-1.28668e-11
-2.33979e-10
-1.78773e-11
-2.31663e-10
-2.27413e-11
-2.28938e-10
-2.74201e-11
-2.25831e-10
-3.18901e-11
-2.22359e-10
-3.61462e-11
-2.18556e-10
-4.01519e-11
-2.14441e-10
-4.39146e-11
-2.10041e-10
-4.74182e-11
-2.05383e-10
-5.065e-11
-2.00497e-10
-5.36041e-11
-1.95413e-10
-5.62753e-11
-1.90161e-10
-5.86614e-11
-1.84771e-10
-6.07661e-11
-1.7927e-10
-6.25981e-11
-1.73682e-10
-6.41653e-11
-1.68031e-10
-6.5476e-11
-1.62336e-10
-6.65382e-11
-1.56618e-10
-6.73622e-11
-6.7961e-11
-1.50897e-10
-2.40874e-10
-1.44679e-11
-2.38837e-10
-1.99385e-11
-2.3634e-10
-2.52669e-11
-2.33413e-10
-3.03791e-11
-2.3008e-10
-3.52588e-11
-2.26374e-10
-3.98905e-11
-2.22318e-10
-4.42504e-11
-2.17945e-10
-4.83323e-11
-2.13272e-10
-5.2136e-11
-2.08337e-10
-5.56315e-11
-2.03168e-10
-5.88188e-11
-1.97799e-10
-6.16899e-11
-1.92266e-10
-6.42384e-11
-1.86603e-10
-6.6472e-11
-1.80837e-10
-6.84058e-11
-1.74993e-10
-7.00487e-11
-1.69093e-10
-7.14102e-11
-1.6316e-10
-7.24989e-11
-1.57217e-10
-7.33281e-11
-7.39124e-11
-1.51283e-10
-2.46341e-10
-1.62245e-11
-2.44169e-10
-2.21321e-11
-2.41453e-10
-2.80078e-11
-2.38292e-10
-3.35669e-11
-2.34712e-10
-3.88706e-11
-2.30734e-10
-4.39015e-11
-2.264e-10
-4.86208e-11
-2.2175e-10
-5.30202e-11
-2.16768e-10
-5.71561e-11
-2.11524e-10
-6.09151e-11
-2.0604e-10
-6.43423e-11
-2.00346e-10
-6.74223e-11
-1.94501e-10
-7.01213e-11
-1.88535e-10
-7.24747e-11
-1.8248e-10
-7.44956e-11
-1.76354e-10
-7.62051e-11
-1.70182e-10
-7.76086e-11
-1.63989e-10
-7.87128e-11
-1.57801e-10
-7.95348e-11
-8.00902e-11
-1.51635e-10
-2.52368e-10
-1.80925e-11
-2.49883e-10
-2.4635e-11
-2.46985e-10
-3.09251e-11
-2.43572e-10
-3.70011e-11
-2.39712e-10
-4.27531e-11
-2.35458e-10
-4.81802e-11
-2.30817e-10
-5.32864e-11
-2.2581e-10
-5.80535e-11
-2.20506e-10
-6.24867e-11
-2.14944e-10
-6.65045e-11
-2.09124e-10
-7.01893e-11
-2.03034e-10
-7.35392e-11
-1.96854e-10
-7.63288e-11
-1.90555e-10
-7.88e-11
-1.84189e-10
-8.08865e-11
-1.77758e-10
-8.26575e-11
-1.71286e-10
-8.40978e-11
-1.64811e-10
-8.52028e-11
-1.58358e-10
-8.60011e-11
-8.65123e-11
-1.51942e-10
-2.59063e-10
-2.0121e-11
-2.56415e-10
-2.72931e-11
-2.53202e-10
-3.41494e-11
-2.49508e-10
-4.07066e-11
-2.45349e-10
-4.69239e-11
-2.40723e-10
-5.28176e-11
-2.35748e-10
-5.82748e-11
-2.30421e-10
-6.33927e-11
-2.24792e-10
-6.81297e-11
-2.18801e-10
-7.2509e-11
-2.12484e-10
-7.65209e-11
-2.06038e-10
-8.00009e-11
-1.99381e-10
-8.30015e-11
-1.9271e-10
-8.54872e-11
-1.85991e-10
-8.762e-11
-1.79207e-10
-8.94531e-11
-1.72406e-10
-9.09103e-11
-1.65628e-10
-9.19886e-11
-1.58892e-10
-9.27415e-11
-9.31909e-11
-1.52214e-10
-2.65704e-10
-2.24003e-11
-2.62764e-10
-3.02329e-11
-2.59278e-10
-3.76343e-11
-2.5525e-10
-4.47345e-11
-2.50719e-10
-5.14551e-11
-2.45765e-10
-5.77727e-11
-2.40363e-10
-6.36775e-11
-2.34644e-10
-6.91143e-11
-2.2868e-10
-7.40958e-11
-2.2235e-10
-7.88422e-11
-2.15568e-10
-8.33069e-11
-2.08496e-10
-8.70776e-11
-2.01426e-10
-9.00775e-11
-1.94419e-10
-9.25006e-11
-1.87431e-10
-9.46136e-11
-1.80313e-10
-9.65765e-11
-1.73139e-10
-9.80907e-11
-1.66028e-10
-9.91044e-11
-1.58978e-10
-9.97936e-11
-1.00148e-10
-1.52023e-10
-3.79417e-10
-3.9711e-12
-3.7617e-10
-5.35388e-12
-3.72355e-10
-6.62901e-12
-3.6773e-10
-7.89473e-12
-3.6241e-10
-9.08154e-12
-3.56454e-10
-1.01941e-11
-3.49866e-10
-1.12403e-11
-3.42794e-10
-1.21879e-11
-3.35576e-10
-1.30084e-11
-3.27865e-10
-1.38471e-11
-3.19167e-10
-2.53666e-16
-3.09954e-10
-3.95015e-22
-3.00684e-10
-2.435e-22
-2.91755e-10
-9.54897e-23
-2.83065e-10
-1.75953e-23
-2.73835e-10
-5.58013e-26
-2.6437e-10
-1.52065e-64
-2.55152e-10
-5.88909e-54
-2.45954e-10
-3.79457e-51
-2.36809e-10
-1.02667e-52
-1.37681e-10
-8.87716e-12
-1.28666e-10
-8.98447e-12
-1.19641e-10
-8.99854e-12
-1.10688e-10
-8.93085e-12
-1.01874e-10
-8.79379e-12
-9.32568e-11
-8.6e-12
-8.48794e-11
-8.36198e-12
-7.67742e-11
-8.09157e-12
-6.8962e-11
-7.79956e-12
-6.14535e-11
-7.4957e-12
-5.42503e-11
-7.18912e-12
-4.7346e-11
-6.88842e-12
-4.07268e-11
-6.60179e-12
-3.43722e-11
-6.33674e-12
-2.82552e-11
-6.09923e-12
-2.23437e-11
-5.89387e-12
-1.66011e-11
-5.72461e-12
-1.09886e-11
-5.59466e-12
-5.46573e-12
-5.5054e-12
-5.44838e-12
-1.38178e-10
-1.77791e-11
-1.29121e-10
-1.79962e-11
-1.20057e-10
-1.8024e-11
-1.11065e-10
-1.78876e-11
-1.02216e-10
-1.76123e-11
-9.35643e-11
-1.72235e-11
-8.51552e-11
-1.67458e-11
-7.70203e-11
-1.62022e-11
-6.91803e-11
-1.56146e-11
-6.16457e-11
-1.50032e-11
-5.4418e-11
-1.43869e-11
-4.74909e-11
-1.37837e-11
-4.08505e-11
-1.32096e-11
-3.44758e-11
-1.26787e-11
-2.83397e-11
-1.22028e-11
-2.24099e-11
-1.17913e-11
-1.66499e-11
-1.14522e-11
-1.10203e-11
-1.1192e-11
-5.47825e-12
-1.10151e-11
-1.09112e-11
-1.38233e-10
-2.67473e-11
-1.29129e-10
-2.70654e-11
-1.20023e-10
-2.70984e-11
-1.10997e-10
-2.6885e-11
-1.02119e-10
-2.64637e-11
-9.34452e-11
-2.58725e-11
-8.50197e-11
-2.5148e-11
-7.68737e-11
-2.43251e-11
-6.90277e-11
-2.34365e-11
-6.14919e-11
-2.2513e-11
-5.42674e-11
-2.15834e-11
-4.73476e-11
-2.06745e-11
-4.07179e-11
-1.98102e-11
-3.4357e-11
-1.9011e-11
-2.8237e-11
-1.82942e-11
-2.23252e-11
-1.76744e-11
-1.65849e-11
-1.71637e-11
-1.09761e-11
-1.6772e-11
-5.45548e-12
-1.65059e-11
-1.63512e-11
-1.38313e-10
-3.58047e-11
-1.29137e-10
-3.62115e-11
-1.1997e-10
-3.62382e-11
-1.10891e-10
-3.59368e-11
-1.01971e-10
-3.53589e-11
-9.32641e-11
-3.45551e-11
-8.48139e-11
-3.35743e-11
-7.66516e-11
-3.24632e-11
-6.87968e-11
-3.12658e-11
-6.12595e-11
-3.00234e-11
-5.40402e-11
-2.87747e-11
-4.71315e-11
-2.7555e-11
-4.05182e-11
-2.63958e-11
-3.41778e-11
-2.5324e-11
-2.80821e-11
-2.43627e-11
-2.21976e-11
-2.35313e-11
-1.6487e-11
-2.28463e-11
-1.09096e-11
-2.23207e-11
-5.42167e-12
-2.1964e-11
-2.17575e-11
-1.38414e-10
-4.49753e-11
-1.29144e-10
-4.54561e-11
-1.19894e-10
-4.54627e-11
-1.10747e-10
-4.50597e-11
-1.0177e-10
-4.43117e-11
-9.3019e-11
-4.32822e-11
-8.45362e-11
-4.20328e-11
-7.63522e-11
-4.06221e-11
-6.84863e-11
-3.91056e-11
-6.09473e-11
-3.75353e-11
-5.37353e-11
-3.59595e-11
-4.68417e-11
-3.44218e-11
-4.02502e-11
-3.29611e-11
-3.39375e-11
-3.16107e-11
-2.78743e-11
-3.03996e-11
-2.20263e-11
-2.93522e-11
-1.63556e-11
-2.84893e-11
-1.08204e-11
-2.78273e-11
-5.37655e-12
-2.73785e-11
-2.71199e-11
-1.38534e-10
-5.42837e-11
-1.29145e-10
-5.48228e-11
-1.19793e-10
-5.47929e-11
-1.1056e-10
-5.42716e-11
-1.01513e-10
-5.33369e-11
-9.27066e-11
-5.20657e-11
-8.41835e-11
-5.05324e-11
-7.59731e-11
-4.8808e-11
-6.80937e-11
-4.69597e-11
-6.05534e-11
-4.50502e-11
-5.33509e-11
-4.31369e-11
-4.64766e-11
-4.12718e-11
-3.99127e-11
-3.9501e-11
-3.36347e-11
-3.78645e-11
-2.76124e-11
-3.63969e-11
-2.18106e-11
-3.51281e-11
-1.61901e-11
-3.40831e-11
-1.07082e-11
-3.32817e-11
-5.32009e-12
-3.27392e-11
-3.2428e-11
-1.38669e-10
-6.37583e-11
-1.29138e-10
-6.4337e-11
-1.19663e-10
-6.42509e-11
-1.10326e-10
-6.35911e-11
-1.01195e-10
-6.24496e-11
-9.23233e-11
-6.09173e-11
-8.37524e-11
-5.90818e-11
-7.55111e-11
-5.7027e-11
-6.76164e-11
-5.48319e-11
-6.00751e-11
-5.25692e-11
-5.28847e-11
-5.03057e-11
-4.60339e-11
-4.81016e-11
-3.95036e-11
-4.60101e-11
-3.32679e-11
-4.40781e-11
-2.72953e-11
-4.23463e-11
-2.15494e-11
-4.08497e-11
-1.59898e-11
-3.96176e-11
-1.05726e-11
-3.86735e-11
-5.25217e-12
-3.80356e-11
-3.76707e-11
-1.38814e-10
-7.34296e-11
-1.29116e-10
-7.40249e-11
-1.19498e-10
-7.38583e-11
-1.10041e-10
-7.30356e-11
-1.00812e-10
-7.16638e-11
-9.18644e-11
-6.98478e-11
-8.32387e-11
-6.76891e-11
-7.49623e-11
-6.52844e-11
-6.70508e-11
-6.27244e-11
-5.95093e-11
-6.00923e-11
-5.23337e-11
-5.74637e-11
-4.55111e-11
-5.49067e-11
-3.90207e-11
-5.24823e-11
-3.2835e-11
-5.02441e-11
-2.69211e-11
-4.82389e-11
-2.12414e-11
-4.65072e-11
-1.57538e-11
-4.50824e-11
-1.04131e-11
-4.39917e-11
-5.17254e-12
-4.32562e-11
-4.28357e-11
-1.38963e-10
-8.33267e-11
-1.29075e-10
-8.39102e-11
-1.19292e-10
-8.36345e-11
-1.09698e-10
-8.26212e-11
-1.00358e-10
-8.09921e-11
-9.13248e-11
-7.88669e-11
-8.26376e-11
-7.6361e-11
-7.43223e-11
-7.35841e-11
-6.63928e-11
-7.06389e-11
-5.88522e-11
-6.76185e-11
-5.16945e-11
-6.46073e-11
-4.4905e-11
-6.16819e-11
-3.84612e-11
-5.89106e-11
-3.23338e-11
-5.63542e-11
-2.64883e-11
-5.40656e-11
-2.08853e-11
-5.20906e-11
-1.54811e-11
-5.04669e-11
-1.02292e-11
-4.92252e-11
-5.08075e-12
-4.83887e-11
-4.79103e-11
-1.39108e-10
-9.34742e-11
-1.29006e-10
-9.40137e-11
-1.19039e-10
-9.35975e-11
-1.09291e-10
-9.23627e-11
-9.98265e-11
-9.04464e-11
-9.06983e-11
-8.79835e-11
-8.19434e-11
-8.51032e-11
-7.35861e-11
-8.19289e-11
-6.56377e-11
-7.85751e-11
-5.80994e-11
-7.51452e-11
-5.09632e-11
-7.17321e-11
-4.42123e-11
-6.84207e-11
-3.78221e-11
-6.52873e-11
-3.17617e-11
-6.23996e-11
-2.59945e-11
-5.98168e-11
-2.04794e-11
-5.75896e-11
-1.51707e-11
-5.57599e-11
-1.00201e-11
-5.43618e-11
-4.9762e-12
-5.34201e-11
-5.28811e-11
-1.39243e-10
-1.03895e-10
-1.28902e-10
-1.04356e-10
-1.1873e-10
-1.03766e-10
-1.08812e-10
-1.02276e-10
-9.92108e-11
-1.00039e-10
-8.99783e-11
-9.72061e-11
-8.11499e-11
-9.3921e-11
-7.27477e-11
-9.03205e-11
-6.47803e-11
-8.65321e-11
-5.72462e-11
-8.26691e-11
-5.01354e-11
-7.88323e-11
-4.3429e-11
-7.51157e-11
-3.71003e-11
-7.16036e-11
-3.11161e-11
-6.83707e-11
-2.54378e-11
-6.54819e-11
-2.0022e-11
-6.29927e-11
-1.48212e-11
-6.09492e-11
-9.78472e-12
-5.93883e-11
-4.85822e-12
-5.83363e-11
-5.77345e-11
-1.39359e-10
-1.14614e-10
-1.28754e-10
-1.14962e-10
-1.18358e-10
-1.1416e-10
-1.08252e-10
-1.12376e-10
-9.85025e-11
-1.09782e-10
-8.9157e-11
-1.06543e-10
-8.02498e-11
-1.02819e-10
-7.18006e-11
-9.87597e-11
-6.38146e-11
-9.45078e-11
-5.62871e-11
-9.01857e-11
-4.92064e-11
-8.59015e-11
-4.25511e-11
-8.17585e-11
-3.62922e-11
-7.78498e-11
-3.0394e-11
-7.42564e-11
-2.48156e-11
-7.1049e-11
-1.95112e-11
-6.82872e-11
-1.44311e-11
-6.60209e-11
-9.52177e-12
-6.42899e-11
-4.72624e-12
-6.31227e-11
-6.24563e-11
-1.39446e-10
-1.25665e-10
-1.28553e-10
-1.25858e-10
-1.17912e-10
-1.24801e-10
-1.07604e-10
-1.22681e-10
-9.76928e-11
-1.19688e-10
-8.82259e-11
-1.16003e-10
-7.92352e-11
-1.11801e-10
-7.07377e-11
-1.07247e-10
-6.27342e-11
-1.025e-10
-5.52162e-11
-9.76915e-11
-4.81707e-11
-9.29338e-11
-4.1574e-11
-8.83415e-11
-3.53939e-11
-8.40164e-11
-2.95922e-11
-8.00459e-11
-2.41252e-11
-7.65057e-11
-1.89447e-11
-7.34594e-11
-1.39984e-11
-7.09601e-11
-9.23e-12
-6.9051e-11
-4.57983e-12
-6.77635e-11
-6.70314e-11
-1.39494e-10
-1.37078e-10
-1.28289e-10
-1.3707e-10
-1.17382e-10
-1.3571e-10
-1.06855e-10
-1.33208e-10
-9.67716e-11
-1.29769e-10
-8.71754e-11
-1.25594e-10
-7.80969e-11
-1.20872e-10
-6.95511e-11
-1.15784e-10
-6.15321e-11
-1.10509e-10
-5.40269e-11
-1.05185e-10
-4.70228e-11
-9.99251e-11
-4.04929e-11
-9.48583e-11
-3.44014e-11
-9.00955e-11
-2.87072e-11
-8.57295e-11
-2.33637e-11
-8.18405e-11
-1.832e-11
-7.84959e-11
-1.35212e-11
-7.57521e-11
-8.9082e-12
-7.36558e-11
-4.41869e-12
-7.22434e-11
-7.14451e-11
-1.39492e-10
-1.4888e-10
-1.27949e-10
-1.48619e-10
-1.16756e-10
-1.46907e-10
-1.05996e-10
-1.4397e-10
-9.57279e-11
-1.40037e-10
-8.59949e-11
-1.35325e-10
-7.6825e-11
-1.30038e-10
-6.82324e-11
-1.24371e-10
-6.02012e-11
-1.18532e-10
-5.2712e-11
-1.12666e-10
-4.57562e-11
-1.06872e-10
-3.93023e-11
-1.01303e-10
-3.33101e-11
-9.60796e-11
-2.77351e-11
-9.12976e-11
-2.25277e-11
-8.70421e-11
-1.76341e-11
-8.33837e-11
-1.29972e-11
-8.03825e-11
-8.55516e-12
-7.80895e-11
-4.2427e-12
-7.65464e-11
-7.56827e-11
-1.39427e-10
-1.61096e-10
-1.27521e-10
-1.6053e-10
-1.16022e-10
-1.58408e-10
-1.05013e-10
-1.54982e-10
-9.455e-11
-1.50502e-10
-8.46731e-11
-1.45203e-10
-7.54083e-11
-1.39302e-10
-6.6773e-11
-1.33003e-10
-5.87346e-11
-1.26567e-10
-5.12637e-11
-1.20132e-10
-4.43643e-11
-1.13767e-10
-3.79966e-11
-1.07667e-10
-3.21147e-11
-1.01958e-10
-2.66714e-11
-9.67376e-11
-2.16132e-11
-9.20964e-11
-1.68839e-11
-8.81081e-11
-1.24241e-11
-8.48358e-11
-8.16946e-12
-8.23363e-11
-4.05205e-12
-8.06549e-11
-7.97304e-11
-1.39285e-10
-1.73757e-10
-1.2699e-10
-1.72829e-10
-1.15166e-10
-1.70235e-10
-1.03892e-10
-1.66257e-10
-9.32252e-11
-1.6117e-10
-8.31978e-11
-1.55231e-10
-7.38337e-11
-1.48666e-10
-6.5164e-11
-1.41672e-10
-5.71257e-11
-1.34604e-10
-4.96723e-11
-1.27584e-10
-4.28393e-11
-1.20599e-10
-3.65694e-11
-1.13936e-10
-3.08097e-11
-1.07717e-10
-2.55111e-11
-1.02035e-10
-2.06161e-11
-9.69883e-11
-1.60658e-11
-9.26536e-11
-1.17992e-11
-8.90963e-11
-7.74922e-12
-8.63796e-11
-3.84878e-12
-8.4548e-11
-8.35766e-11
-1.39084e-10
-1.86888e-10
-1.26376e-10
-1.85539e-10
-1.14209e-10
-1.82404e-10
-1.0266e-10
-1.77806e-10
-9.1781e-11
-1.7205e-10
-8.15976e-11
-1.65415e-10
-7.21264e-11
-1.58137e-10
-6.3438e-11
-1.50362e-10
-5.5409e-11
-1.42635e-10
-4.79625e-11
-1.35034e-10
-4.12092e-11
-1.27355e-10
-3.50476e-11
-1.20101e-10
-2.94191e-11
-1.13348e-10