/*--------------------------------*- C++ -*----------------------------------*\
| =========                 |                                                 |
| \\      /  F ield         | OpenFOAM: The Open Source CFD Toolbox           |
|  \\    /   O peration     | Version:  2.4.0                                 |
|   \\  /    A nd           | Web:      www.OpenFOAM.org                      |
|    \\/     M anipulation  |                                                 |
\*---------------------------------------------------------------------------*/
FoamFile
{
    version     2.0;
    format      ascii;
    class       surfaceScalarField;
    location    "0.065";
    object      phiAlpha;
}
// * * * * * * * * * * * * * * * * * * * * * * * * * * * * * * * * * * * * * //

dimensions      [0 3 -1 0 0 0 0];

internalField   nonuniform List<scalar> 
7080
(
2.26413e-13
-2.26397e-13
5.36799e-13
-3.10986e-13
2.43557e-13
2.91642e-13
-6.29016e-13
8.69937e-13
-2.11214e-12
1.47934e-12
-5.09846e-12
2.98177e-12
-8.98135e-12
3.87629e-12
-1.72382e-11
8.24817e-12
-2.55478e-11
8.29992e-12
-4.4777e-11
1.92174e-11
-6.22314e-11
1.74419e-11
-1.02362e-10
4.01159e-11
-1.38034e-10
3.56605e-11
-2.11305e-10
7.32574e-11
-2.72929e-10
6.16118e-11
-3.8036e-10
1.07419e-10
-4.63294e-10
8.29279e-11
-5.37493e-10
7.41831e-11
-4.68075e-10
-6.94216e-11
-3.16573e-10
-1.51505e-10
-1.08422e-10
-2.0816e-10
4.83754e-11
-1.56789e-10
1.26994e-10
-7.86368e-11
1.58356e-10
-3.13372e-11
1.42956e-10
1.5366e-11
1.2215e-10
2.08433e-11
9.01709e-11
3.19398e-11
6.55422e-11
2.46624e-11
4.21853e-11
2.33309e-11
1.66299e-11
2.55717e-11
-4.59096e-13
2.32052e-13
-2.0303e-12
1.25792e-12
-4.96976e-12
3.22725e-12
-9.92436e-12
5.81865e-12
-1.67028e-11
8.25024e-12
-2.69462e-11
1.32167e-11
-3.88503e-11
1.57675e-11
-5.79616e-11
2.73424e-11
-7.77072e-11
2.80279e-11
-1.13003e-10
5.44923e-11
-1.4482e-10
4.92362e-11
-2.06139e-10
1.01409e-10
-2.55228e-10
8.47316e-11
-3.49153e-10
1.67159e-10
-4.14714e-10
1.27153e-10
-5.27726e-10
2.20414e-10
-5.91662e-10
1.46852e-10
-6.35102e-10
1.17604e-10
-5.11703e-10
-1.9283e-10
-3.04619e-10
-3.58584e-10
-5.94858e-11
-4.53318e-10
1.20585e-10
-3.36829e-10
1.98603e-10
-1.56705e-10
2.24572e-10
-5.72452e-11
1.94853e-10
4.50127e-11
1.62811e-10
5.29549e-11
1.18328e-10
7.63582e-11
8.49157e-11
5.81243e-11
5.44552e-11
5.3759e-11
3.76316e-11
3.34728e-11
-5.15319e-13
7.46818e-13
-2.31591e-12
3.05647e-12
-5.42223e-12
6.33016e-12
-1.04265e-11
1.08177e-11
-1.73431e-11
1.51603e-11
-2.79924e-11
2.38588e-11
-4.06374e-11
2.84011e-11
-6.08989e-11
4.75887e-11
-8.205e-11
4.91639e-11
-1.19096e-10
9.15192e-11
-1.52279e-10
8.24002e-11
-2.15441e-10
1.64548e-10
-2.64929e-10
1.34205e-10
-3.59711e-10
2.61922e-10
-4.23437e-10
1.90862e-10
-5.3486e-10
3.31821e-10
-5.96809e-10
2.08792e-10
-6.36476e-10
1.57252e-10
-5.06174e-10
-3.23141e-10
-2.8896e-10
-5.75793e-10
-4.02625e-11
-7.02041e-10
1.40285e-10
-5.17346e-10
2.14448e-10
-2.30919e-10
2.36608e-10
-7.93447e-11
2.03273e-10
7.82764e-11
1.68711e-10
8.75858e-11
1.22184e-10
1.22822e-10
8.72754e-11
9.30812e-11
5.59667e-11
8.50358e-11
5.67497e-11
3.68676e-11
-2.72781e-13
1.01903e-12
-1.56454e-12
4.34607e-12
-4.24804e-12
9.00994e-12
-8.82379e-12
1.53878e-11
-1.53922e-11
2.17216e-11
-2.57951e-11
3.4254e-11
-3.84215e-11
4.10161e-11
-5.87478e-11
6.79001e-11
-7.99406e-11
7.03422e-11
-1.17118e-10
1.28678e-10
-1.50374e-10
1.15639e-10
-2.13971e-10
2.28123e-10
-2.63954e-10
1.84174e-10
-3.59662e-10
3.57611e-10
-4.24202e-10
2.55387e-10
-5.37111e-10
4.44716e-10
-6.04204e-10
2.75875e-10
-6.46058e-10
1.99088e-10
-5.1271e-10
-4.56498e-10
-2.85421e-10
-8.03077e-10
-3.1907e-11
-9.55579e-10
1.49304e-10
-6.98526e-10
2.20523e-10
-3.02187e-10
2.40009e-10
-9.87708e-11
2.0495e-10
1.13265e-10
1.69397e-10
1.23206e-10
1.22459e-10
1.69698e-10
8.74076e-11
1.2818e-10
5.58283e-11
1.16584e-10
7.7706e-11
3.48904e-11
-3.14927e-13
1.33333e-12
-1.6066e-12
5.63537e-12
-4.2301e-12
1.16294e-11
-8.74208e-12
1.98938e-11
-1.51437e-11
2.81157e-11
-2.53762e-11
4.44787e-11
-3.78015e-11
5.34299e-11
-5.80155e-11
8.80993e-11
-7.91038e-11
9.14166e-11
-1.16342e-10
1.65899e-10
-1.49716e-10
1.48996e-10
-2.13959e-10
2.92346e-10
-2.64857e-10
2.3506e-10
-3.62153e-10
4.54889e-10
-4.28335e-10
3.21554e-10
-5.43617e-10
5.59984e-10
-6.18238e-10
3.50488e-10
-6.63255e-10
2.44087e-10
-5.25759e-10
-5.94002e-10
-2.84303e-10
-1.04453e-09
-2.38114e-11
-1.2161e-09
1.58543e-10
-8.80851e-10
2.26296e-10
-3.69989e-10
2.42658e-10
-1.15075e-10
2.05803e-10
1.50053e-10
1.69388e-10
1.59687e-10
1.22228e-10
2.16797e-10
8.71456e-11
1.63309e-10
5.55811e-11
1.48118e-10
9.90918e-11
3.42131e-11
-3.50673e-13
1.68329e-12
-1.68455e-12
6.96667e-12
-4.31029e-12
1.42508e-11
-8.82016e-12
2.43973e-11
-1.51443e-11
3.44322e-11
-2.53025e-11
5.4629e-11
-3.75826e-11
6.56988e-11
-5.75902e-11
1.08093e-10
-7.87162e-11
1.12529e-10
-1.15912e-10
2.03079e-10
-1.49609e-10
1.82677e-10
-2.14665e-10
3.57383e-10
-2.66828e-10
2.87212e-10
-3.66163e-10
5.54207e-10
-4.3437e-10
3.89747e-10
-5.52344e-10
6.77945e-10
-6.36868e-10
4.35004e-10
-6.85949e-10
2.93151e-10
-5.42437e-10
-7.37522e-10
-2.83024e-10
-1.30394e-09
-1.3722e-11
-1.48542e-09
1.69983e-10
-1.06453e-09
2.33283e-10
-4.33337e-10
2.45713e-10
-1.27447e-10
2.06667e-10
1.89032e-10
1.69247e-10
1.97171e-10
1.21862e-10
2.64122e-10
8.67496e-11
1.98467e-10
5.52885e-11
1.79549e-10
1.20439e-10
3.39581e-11
-3.61376e-13
2.04391e-12
-1.69979e-12
8.30239e-12
-4.30506e-12
1.68516e-11
-8.78631e-12
2.88721e-11
-1.50536e-11
4.06917e-11
-2.51001e-11
6.4668e-11
-3.74273e-11
7.80153e-11
-5.69537e-11
1.27606e-10
-7.857e-11
1.34134e-10
-1.15309e-10
2.39804e-10
-1.49765e-10
2.17118e-10
-2.15644e-10
4.23244e-10
-2.69492e-10
3.4105e-10
-3.71285e-10
6.55985e-10
-4.41868e-10
4.60317e-10
-5.62435e-10
7.985e-10
-6.59837e-10
5.32398e-10
-7.14119e-10
3.47416e-10
-5.62201e-10
-8.89447e-10
-2.81119e-10
-1.58501e-09
-1.44843e-12
-1.76512e-09
1.84013e-10
-1.24996e-09
2.41714e-10
-4.91085e-10
2.49316e-10
-1.34993e-10
2.07646e-10
2.30637e-10
1.69046e-10
2.35834e-10
1.21408e-10
3.11703e-10
8.62638e-11
2.33655e-10
5.49391e-11
2.10845e-10
1.4169e-10
3.37052e-11
-4.80576e-13
2.52369e-12
-1.89378e-12
9.71285e-12
-4.36228e-12
1.93157e-11
-8.75052e-12
3.32544e-11
-1.49221e-11
4.68562e-11
-2.4713e-11
7.44523e-11
-3.75593e-11
9.08519e-11
-5.55832e-11
1.45618e-10
-7.91887e-11
1.57729e-10
-1.13853e-10
2.74456e-10
-1.50319e-10
2.53571e-10
-2.16702e-10
4.89611e-10
-2.72789e-10
3.97129e-10
-3.77459e-10
7.6064e-10
-4.50795e-10
5.33641e-10
-5.72567e-10
9.20261e-10
-6.87315e-10
6.4714e-10
-7.48244e-10
4.08327e-10
-5.85443e-10
-1.05226e-09
-2.78358e-10
-1.89209e-09
1.57653e-11
-2.05926e-09
2.00833e-10
-1.435e-09
2.51621e-10
-5.41919e-10
2.53452e-10
-1.3677e-10
2.08732e-10
2.75294e-10
1.68781e-10
2.75845e-10
1.20866e-10
3.59562e-10
8.56914e-11
2.68872e-10
5.45268e-11
2.41982e-10
1.62799e-10
3.34338e-11
-5.10954e-13
3.03387e-12
-1.94987e-12
1.11493e-11
-4.34689e-12
2.1709e-11
-8.42195e-12
3.73242e-11
-1.50855e-11
5.35137e-11
-2.34351e-11
8.27969e-11
-3.79333e-11
1.05342e-10
-5.34705e-11
1.61145e-10
-7.98642e-11
1.84114e-10
-1.11673e-10
3.06253e-10
-1.51905e-10
2.93792e-10
-2.17595e-10
5.55287e-10
-2.76708e-10
4.56236e-10
-3.84673e-10
8.68593e-10
-4.61299e-10
6.10256e-10
-5.84216e-10
1.04317e-09
-7.19495e-10
7.82413e-10
-7.88903e-10
4.77718e-10
-6.1259e-10
-1.22857e-09
-2.74516e-10
-2.23016e-09
3.58873e-11
-2.36969e-09
2.20594e-10
-1.61968e-09
2.62985e-10
-5.84355e-10
2.58058e-10
-1.3179e-10
2.09875e-10
3.23416e-10
1.68424e-10
3.17355e-10
1.20221e-10
4.07711e-10
8.50246e-11
3.04109e-10
5.40443e-11
2.72936e-10
1.83756e-10
3.31019e-11
-4.72399e-13
3.50559e-12
-1.87042e-12
1.25451e-11
-4.28773e-12
2.41232e-11
-8.45634e-12
4.14886e-11
-1.5509e-11
6.05614e-11
-2.32268e-11
9.0511e-11
-3.86217e-11
1.20731e-10
-5.2188e-11
1.74703e-10
-8.08753e-11
2.12795e-10
-1.0999e-10
3.35359e-10
-1.53512e-10
3.37306e-10
-2.17708e-10
6.1947e-10
-2.81299e-10
5.19823e-10
-3.93001e-10
9.80284e-10
-4.74106e-10
6.91351e-10
-5.98134e-10
1.16719e-09
-7.56692e-10
9.40966e-10
-8.36964e-10
5.57972e-10
-6.44151e-10
-1.42139e-09
-2.69361e-10
-2.60495e-09
5.97649e-11
-2.69884e-09
2.43518e-10
-1.8034e-09
2.7583e-10
-6.1671e-10
2.63108e-10
-1.19016e-10
2.11064e-10
3.754e-10
1.67976e-10
3.605e-10
1.19478e-10
4.56157e-10
8.427e-11
3.39357e-10
5.34951e-11
3.03685e-10
2.04543e-10
3.2722e-11
-4.87598e-13
3.99262e-12
-2.05117e-12
1.41069e-11
-5.10907e-12
2.71786e-11
-8.48797e-12
4.4864e-11
-1.5905e-11
6.79747e-11
-2.02543e-11
9.4858e-11
-3.72237e-11
1.37696e-10
-4.85017e-11
1.85974e-10
-7.93897e-11
2.43678e-10
-1.077e-10
3.63663e-10
-1.53596e-10
3.83195e-10
-2.16997e-10
6.8286e-10
-2.86633e-10
5.89455e-10
-4.02437e-10
1.09608e-09
-4.88612e-10
7.77517e-10
-6.13009e-10
1.29158e-09
-7.99182e-10
1.12714e-09
-8.93433e-10
6.52204e-10
-6.80633e-10
-1.6342e-09
-2.62577e-10
-3.023e-09
8.79825e-11
-3.04942e-09
2.69852e-10
-1.98525e-09
2.90148e-10
-6.37048e-10
2.6854e-10
-9.73577e-11
2.12261e-10
4.31622e-10
1.67422e-10
4.05395e-10
1.18633e-10
5.04895e-10
8.34264e-11
3.74602e-10
5.28781e-11
3.34209e-10
2.2514e-10
3.22954e-11
-5.12976e-13
4.5052e-12
-2.14026e-12
1.57327e-11
-5.15504e-12
3.01917e-11
-8.83101e-12
4.85375e-11
-1.57389e-11
7.48802e-11
-2.08893e-11
1.00008e-10
-3.90095e-11
1.55813e-10
-4.87475e-11
1.95707e-10
-8.24351e-11
2.77362e-10
-1.06818e-10
3.8804e-10
-1.54996e-10
4.31367e-10
-2.17052e-10
7.44908e-10
-2.93059e-10
6.6546e-10
-4.12859e-10
1.21587e-09
-5.02848e-10
8.67498e-10
-6.28218e-10
1.41694e-09
-8.47121e-10
1.34603e-09
-9.59355e-10
7.6442e-10
-7.22566e-10
-1.87099e-09
-2.53748e-10
-3.49181e-09
1.2117e-10
-3.42436e-09
2.99859e-10
-2.16391e-09
3.05895e-10
-6.43125e-10
2.74255e-10
-6.56699e-11
2.13404e-10
4.92418e-10
1.66729e-10
4.52122e-10
1.17668e-10
5.53909e-10
8.2485e-11
4.09821e-10
5.2188e-11
3.64482e-10
2.4552e-10
3.18209e-11
-3.51162e-13
4.8561e-12
-1.92102e-12
1.73016e-11
-4.46165e-12
3.27312e-11
-5.10606e-12
4.91806e-11
-1.23035e-11
8.20762e-11
-1.20707e-11
9.97736e-11
-3.4082e-11
1.77821e-10
-4.03698e-11
2.0199e-10
-7.61951e-11
3.13183e-10
-1.01778e-10
4.13617e-10
-1.51149e-10
4.80733e-10
-2.17188e-10
8.10938e-10
-3.00589e-10
7.48861e-10
-4.24146e-10
1.33942e-09
-5.16809e-10
9.60153e-10
-6.42908e-10
1.54303e-09
-9.00972e-10
1.6041e-09
-1.03644e-09
8.99868e-10
-7.70699e-10
-2.13674e-09
-2.4242e-10
-4.02009e-09
1.60074e-10
-3.82688e-09
3.33915e-10
-2.33773e-09
3.23063e-10
-6.32312e-10
2.80191e-10
-2.27517e-11
2.14463e-10
5.58093e-10
1.65895e-10
5.0074e-10
1.16589e-10
6.03169e-10
8.14522e-11
4.44992e-10
5.14287e-11
3.94483e-10
2.65664e-10
3.12962e-11
-6.65415e-13
5.52137e-12
-1.99479e-12
1.863e-11
-3.8075e-12
3.45432e-11
-6.82873e-12
5.22004e-11
-1.49779e-11
9.02236e-11
-1.7855e-11
1.02649e-10
-4.1543e-11
2.01504e-10
-4.53342e-11
2.05776e-10
-8.53599e-11
3.53204e-10
-1.04646e-10
4.32896e-10
-1.56374e-10
5.32456e-10
-2.18555e-10
8.73111e-10
-3.09781e-10
8.40088e-10
-4.36725e-10
1.46635e-09
-5.31099e-10
1.05452e-09
-6.56856e-10
1.66878e-09
-9.60816e-10
1.90805e-09
-1.12623e-09
1.06526e-09
-8.25906e-10
-2.43706e-09
-2.28001e-10
-4.61799e-09
2.05556e-10
-4.26046e-09
3.72467e-10
-2.50462e-09
3.41602e-10
-6.01485e-10
2.86247e-10
3.26478e-11
2.15384e-10
6.28906e-10
1.64901e-10
5.51271e-10
1.15389e-10
6.52638e-10
8.03265e-11
4.80087e-10
5.06009e-11
4.24188e-10
2.85558e-10
3.0718e-11
-1.30742e-13
5.65203e-12
-2.66784e-12
2.11665e-11
-6.08343e-12
3.79575e-11
-1.91614e-12
4.80309e-11
-9.42691e-12
9.77313e-11
3.48579e-14
9.3183e-11
-2.72488e-11
2.28784e-10
-2.7134e-11
2.05655e-10
-6.88561e-11
3.9492e-10
-9.27764e-11
4.5681e-10
-1.42181e-10
5.81855e-10
-2.14712e-10
9.45634e-10
-3.16176e-10
9.41553e-10
-4.51578e-10
1.60175e-09
-5.4442e-10
1.14736e-09
-6.67912e-10
1.79227e-09
-1.0274e-09
2.26754e-09
-1.23159e-09
1.26943e-09
-8.89038e-10
-2.77961e-09
-2.09741e-10
-5.29728e-09
2.58599e-10
-4.72882e-09
4.1581e-10
-2.66181e-09
3.6142e-10
-5.47132e-10
2.92268e-10
1.01843e-10
2.16084e-10
7.05042e-10
1.63711e-10
6.0369e-10
1.14053e-10
7.02254e-10
7.90998e-11
5.15071e-10
4.97044e-11
4.53564e-10
3.05178e-10
3.00949e-11
-2.91376e-12
8.56497e-12
-5.18785e-12
2.34384e-11
-4.7822e-12
3.75493e-11
-4.93237e-12
4.81772e-11
-1.63499e-11
1.09145e-10
-1.12785e-11
8.81059e-11
-4.48186e-11
2.62316e-10
-4.1732e-11
2.02558e-10
-9.21296e-11
4.4531e-10
-1.05393e-10
4.70065e-10
-1.57945e-10
6.344e-10
-2.19659e-10
1.00734e-09
-3.28854e-10
1.05075e-09
-4.70711e-10
1.7436e-09
-5.58239e-10
1.23488e-09
-6.76563e-10
1.91059e-09
-1.10005e-09
2.69103e-09
-1.35421e-09
1.52356e-09
-9.6151e-10
-3.17231e-09
-1.86781e-10
-6.07201e-09
3.20387e-10
-5.236e-09
4.64098e-10
-2.8055e-09
3.82442e-10
-4.65511e-10
2.98139e-10
1.86187e-10
2.16518e-10
7.86618e-10
1.6232e-10
6.57931e-10
1.12586e-10
7.5195e-10
7.77785e-11
5.49907e-10
4.87488e-11
4.82575e-10
3.24494e-10
2.94422e-11
9.78574e-13
7.586e-12
-4.18902e-12
2.86034e-11
-1.86435e-11
5.20005e-11
8.34177e-12
2.11867e-11
4.22959e-12
1.1325e-10
3.6648e-11
5.56778e-11
-1.01194e-11
3.09072e-10
-9.2774e-12
2.01706e-10
-5.80686e-11
4.94089e-10
-8.02137e-11
4.92202e-10
-1.2176e-10
6.75939e-10
-2.04295e-10
1.08986e-09
-3.30433e-10
1.17689e-09
-4.91017e-10
1.90418e-09
-5.69296e-10
1.31316e-09
-6.79062e-10
2.02035e-09
-1.18152e-09
3.19349e-09
-1.50028e-09
1.84229e-09
-1.04457e-09
-3.62802e-09
-1.57954e-10
-6.95862e-09
3.92303e-10
-5.78628e-09
5.17559e-10
-2.93074e-09
4.04532e-10
-3.52517e-10
3.03695e-10
2.87062e-10
2.16612e-10
8.73658e-10
1.60707e-10
7.13877e-10
1.10982e-10
8.01638e-10
7.63617e-11
5.84555e-10
4.7736e-11
5.11184e-10
3.43476e-10
2.87628e-11
-7.12521e-12
1.471e-11
-2.18773e-11
4.33508e-11
-3.22129e-11
6.23321e-11
-4.52599e-12
-6.5063e-12
-1.77562e-11
1.26476e-10
8.27719e-12
2.96389e-11
-5.21786e-11
3.69517e-10
-4.26022e-11
1.92115e-10
-1.0924e-10
5.60711e-10
-1.14925e-10
4.97874e-10
-1.61843e-10
7.22849e-10
-2.2024e-10
1.14825e-09
-3.54175e-10
1.31082e-09
-5.22831e-10
2.07283e-09
-5.77513e-10
1.36783e-09
-6.7242e-10
2.11525e-09
-1.26741e-09
3.78848e-09
-1.66842e-09
2.24327e-09
-1.14015e-09
-4.15628e-09
-1.21874e-10
-7.97689e-09
4.75873e-10
-6.38405e-09
5.76535e-10
-3.03139e-09
4.27457e-10
-2.0347e-10
3.08719e-10
4.05836e-10
2.16266e-10
9.66072e-10
1.58835e-10
7.71346e-10
1.09227e-10
8.51212e-10
7.4842e-11
6.18965e-10
4.66616e-11
5.39348e-10
3.62094e-10
2.80518e-11
8.30941e-12
6.39931e-12
4.44411e-11
7.22297e-12
1.53825e-11
9.13861e-11
9.55468e-11
-8.6682e-11
6.90435e-11
1.52959e-10
1.15264e-10
-1.65838e-11
2.24607e-11
4.62272e-10
7.46582e-12
2.07096e-10
-4.97189e-11
6.1788e-10
-6.21533e-11
5.10297e-10
-7.77071e-11
7.38393e-10
-1.73068e-10
1.2436e-09
-3.42192e-10
1.47995e-09
-5.51385e-10
2.28201e-09
-5.89409e-10
1.40585e-09
-6.6336e-10
2.1892e-09
-1.36867e-09
4.49379e-09
-1.87382e-09
2.7484e-09
-1.25042e-09
-4.77967e-09
-7.64895e-11
-9.15082e-09
5.73141e-10
-7.03369e-09
6.41677e-10
-3.09991e-09
4.51e-10
-1.28225e-11
3.13021e-10
5.43849e-10
2.15416e-10
1.06364e-09
1.56696e-10
8.30101e-10
1.07325e-10
9.00553e-10
7.32263e-11
6.53086e-10
4.55294e-11
5.67031e-10
3.80322e-10
2.73083e-11
3.03616e-11
-2.3962e-11
6.88477e-11
-3.12593e-11
-1.98611e-11
1.8009e-10
1.29268e-10
-2.3585e-10
1.86736e-11
2.63502e-10
4.43522e-11
-4.22547e-11
-9.4018e-11
6.00631e-10
-7.18056e-11
1.84849e-10
-1.49795e-10
6.9586e-10
-1.38642e-10
4.99126e-10
-1.70827e-10
7.70565e-10
-2.22433e-10
1.29519e-09
-3.91793e-10
1.64931e-09
-5.9963e-10
2.48984e-09
-5.77033e-10
1.38325e-09
-6.17413e-10
2.22958e-09
-1.46353e-09
5.33992e-09
-2.10262e-09
3.38745e-09
-1.37715e-09
-5.50514e-09
-1.92059e-11
-1.05088e-08
6.85853e-10
-7.73877e-09
7.13321e-10
-3.12736e-09
4.74718e-10
2.25753e-10
3.16332e-10
7.02266e-10
2.13969e-10
1.16597e-09
1.54269e-10
8.89832e-10
1.05271e-10
9.49523e-10
7.15143e-11
6.86863e-10
4.43386e-11
5.94194e-10
3.98138e-10
2.65288e-11
6.38954e-11
-8.78593e-11
3.66787e-10
-3.34124e-10
3.92854e-10
1.53511e-10
5.79432e-10
-4.22825e-10
3.66728e-10
4.76534e-10
4.24995e-10
-1.00546e-10
4.9172e-11
9.76445e-10
-1.71241e-11
2.51145e-10
-7.60857e-11
7.5482e-10
-4.57042e-11
4.68735e-10
6.88926e-12
7.17953e-10
-9.61887e-11
1.39827e-09
-3.46226e-10
1.89935e-09
-6.50427e-10
2.79404e-09
-6.01317e-10
1.33414e-09
-5.96335e-10
2.22459e-09
-1.59611e-09
6.33969e-09
-2.39555e-09
4.18685e-09
-1.52716e-09
-6.37351e-09
4.47952e-11
-1.20807e-08
8.17668e-10
-8.51165e-09
7.92872e-10
-3.10256e-09
4.97613e-10
5.20987e-10
3.18361e-10
8.81547e-10
2.11816e-10
1.27248e-09
1.51524e-10
9.50153e-10
1.03053e-10
9.97968e-10
6.96999e-11
7.20235e-10
4.30853e-11
6.20797e-10
4.15522e-10
2.5707e-11
-1.19418e-10
3.14043e-11
4.27303e-10
-8.80057e-10
3.34139e-10
2.44774e-10
3.4023e-10
-4.26918e-10
-1.9907e-11
8.37089e-10
1.0217e-10
-2.2262e-10
1.40581e-10
9.38083e-10
-8.6344e-11
4.78079e-10
-2.12896e-10
8.81379e-10
-1.93861e-10
4.49688e-10
-1.77945e-10
7.02036e-10
-2.18736e-10
1.43904e-09
-4.46756e-10
2.12737e-09
-7.17665e-10
3.06494e-09
-5.4346e-10
1.15993e-09
-4.6952e-10
2.15065e-09
-1.68896e-09
7.55914e-09
-2.70168e-09
5.19953e-09
-1.69517e-09
-7.38e-09
1.22893e-10
-1.38988e-08
9.68703e-10
-9.35748e-09
8.78269e-10
-3.01212e-09
5.17548e-10
8.81685e-10
3.18737e-10
1.08038e-09
2.0888e-10
1.38231e-09
1.48457e-10
1.0106e-09
1.00678e-10
1.04572e-09
6.77902e-11
7.53139e-10
4.17751e-11
6.46801e-10
4.32452e-10
2.48505e-11
-1.28243e-10
1.57666e-10
7.23885e-11
-1.08013e-09
-5.51201e-11
3.7198e-10
2.86949e-10
-7.64428e-10
-9.09434e-12
1.13355e-09
8.2388e-12
-2.39926e-10
-2.98617e-10
1.24495e-09
-4.65946e-10
6.45382e-10
-1.80471e-10
5.9591e-10
-7.50075e-12
2.767e-10
1.57616e-10
5.36909e-10
8.18946e-11
1.51475e-09
-3.35591e-10
2.54484e-09
-8.24064e-10
3.5534e-09
-5.99141e-10
9.35009e-10
-4.31798e-10
1.9833e-09
-1.87267e-09
9.00002e-09
-3.1285e-09
6.45532e-09
-1.90697e-09
-8.60153e-09
2.22307e-10
-1.6028e-08
1.1486e-09
-1.02838e-08
9.76398e-10
-2.83991e-09
5.39426e-10
1.31864e-09
3.17235e-10
1.3026e-09
2.05092e-10
1.49443e-09
1.45062e-10
1.07065e-09
9.81446e-11
1.09262e-09
6.57863e-11
7.85512e-10
4.04077e-11
6.72171e-10
4.48906e-10
2.39573e-11
6.2992e-11
9.53312e-11
-2.22829e-10
-7.9081e-10
-3.1951e-10
4.68359e-10
-9.86291e-11
-9.87294e-10
4.68231e-10
5.66269e-10
1.72611e-10
5.56645e-11
6.00822e-11
1.35749e-09
-1.53076e-10
8.58547e-10
-5.1984e-10
9.62684e-10
-2.35288e-10
-7.8778e-12
-1.5395e-10
4.55546e-10
-2.14196e-10
1.57498e-09
-5.41378e-10
2.87202e-09
-9.09349e-10
3.92137e-09
-4.60024e-10
4.85683e-10
-1.65697e-10
1.68897e-09
-1.94488e-09
1.07792e-08
-3.53644e-09
8.04683e-09
-2.12899e-09
-1.0009e-08
3.42499e-10
-1.84995e-08
1.3509e-09
-1.12922e-08
1.07545e-09
-2.56446e-09
5.56961e-10
1.83711e-09
3.13044e-10
1.54653e-09
2.00307e-10
1.60715e-09
1.41296e-10
1.12968e-09
9.54289e-11
1.13847e-09
6.3674e-11
8.17279e-10
3.89781e-11
6.9686e-10
4.64855e-10
2.30329e-11
5.74036e-11
3.85927e-11
-6.50981e-10
-8.05168e-11
-6.75563e-10
4.92627e-10
-3.86963e-10
-1.28663e-09
3.70461e-10
-1.91174e-10
-1.31642e-11
4.39305e-10
-6.7062e-11
1.41141e-09
2.99428e-10
4.92071e-10
-9.78126e-11
1.35992e-09
3.68209e-11
-1.42542e-10
5.37934e-10
-4.56001e-11
4.6336e-10
1.64955e-09
-2.80591e-10
3.61598e-09
-1.13781e-09
4.77857e-09
-5.72255e-10
-7.98724e-11
-8.77291e-11
1.20445e-09
-2.20196e-09
1.28934e-08
-4.16718e-09
1.0012e-08
-2.43892e-09
-1.17372e-08
4.88649e-10
-2.14271e-08
1.59476e-09
-1.23983e-08
1.19688e-09
-2.16659e-09
5.77552e-10
2.45643e-09
3.06665e-10
1.81744e-09
1.94612e-10
1.71918e-09
1.37258e-10
1.18705e-09
9.26032e-11
1.18311e-09
6.1508e-11
8.48385e-10
3.75166e-11
7.20845e-10
4.80284e-10
2.20897e-11
-2.66947e-10
2.19642e-10
-9.11505e-10
5.50526e-10
-4.06539e-10
-1.35012e-11
-1.8041e-10
-1.51259e-09
-1.3876e-10
-2.33112e-10
-1.06156e-09
1.36221e-09
-1.10776e-09
1.45763e-09
-8.17957e-10
2.02238e-10
-3.22638e-10
8.64595e-10
-3.56812e-10
-1.08385e-10
3.31278e-11
-4.35569e-10
-2.2973e-10
1.91239e-09
-7.08107e-10
4.09438e-09
-1.22991e-09
5.30037e-09
-3.00438e-10
-1.00935e-09
4.08427e-10
4.95577e-10
-2.23704e-09
1.55389e-08
-4.72474e-09
1.24996e-08
-2.73191e-09
-1.373e-08
6.84192e-10
-2.48432e-08
1.87503e-09
-1.35892e-08
1.3107e-09
-1.60227e-09
5.85338e-10
3.18178e-09
2.95162e-10
2.10763e-09
1.8758e-10
1.82675e-09
1.3271e-10
1.24194e-09
8.94576e-11
1.22635e-09
5.91493e-11
8.78701e-10
3.59351e-11
7.44055e-10
4.95132e-10
2.10895e-11
-3.47019e-10
3.30569e-10
4.44178e-10
-3.36788e-10
9.1464e-10
-4.83853e-10
7.45001e-10
-1.34277e-09
3.37862e-10
1.73717e-10
-7.83412e-10
2.4837e-09
-1.39236e-10
8.13464e-10
6.09724e-10
-5.46737e-10
9.45106e-10
5.29181e-10
1.51982e-10
6.84725e-10
1.18904e-09
-1.47265e-09
1.04129e-09
2.06011e-09
-4.25699e-10
5.56138e-09
-1.67429e-09
6.54895e-09
-4.53198e-10
-2.23044e-09
6.37791e-10
-5.95414e-10
-2.54606e-09
1.87228e-08
-5.62088e-09
1.55744e-08
-3.1828e-09
-1.6168e-08
8.76085e-10
-2.89021e-08
2.18454e-09
-1.48976e-08
1.45402e-09
-8.71758e-10
6.02598e-10
4.0332e-09
2.83457e-10
2.42678e-09
1.80273e-10
1.92992e-09
1.28325e-10
1.29389e-09
8.64874e-11
1.26818e-09
5.69679e-11
9.08226e-10
3.44711e-11
7.66548e-10
5.09453e-10
2.01509e-11
1.55807e-10
1.95479e-10
3.75084e-10
-4.04204e-10
1.46401e-09
-1.57121e-09
6.68281e-10
-5.35181e-10
6.12438e-10
2.29464e-10
-6.18366e-10
3.71449e-09
-9.93722e-10
1.18879e-09
-7.63279e-11
-1.46423e-09
4.28157e-10
2.46736e-11
4.97793e-10
6.15088e-10
2.38905e-10
-1.21378e-09
1.19161e-09
1.10739e-09
6.97216e-10
6.05573e-09
-1.39962e-09
8.64578e-09
3.18042e-10
-3.9481e-09
1.64174e-09
-1.91907e-09
-2.31087e-09
2.26754e-08
-6.17067e-09
1.94341e-08
-3.4402e-09
-1.88985e-08
1.23396e-09
-3.35762e-08
2.61545e-09
-1.62791e-08
1.60353e-09
1.40155e-10
5.95618e-10
5.04111e-09
2.61321e-10
2.76108e-09
1.71535e-10
2.0197e-09
1.2383e-10
1.3416e-09
8.34691e-11
1.30854e-09
5.4652e-11
9.37046e-10
3.28853e-11
7.88313e-10
5.2325e-10
1.90888e-11
1.09402e-10
1.05625e-10
7.03382e-10
-9.01216e-10
2.47481e-09
-2.46637e-09
1.19142e-09
1.1765e-09
2.94236e-09
-1.52171e-09
1.7238e-09
4.93266e-09
1.84943e-09
1.06289e-09
3.04696e-09
-2.6618e-09
3.06707e-09
4.54436e-12
2.7555e-09
9.26736e-10
-1.25085e-09
2.79259e-09
-5.10745e-09
4.96379e-09
-3.49018e-09
4.43865e-09
-1.35198e-09
6.1794e-09
1.53597e-09
-6.83605e-09
2.75256e-09
-3.13567e-09
-1.74118e-09
2.71691e-08
-6.0182e-09
1.76547e-08
-3.26745e-09
-1.78659e-08
1.65671e-09
-3.85004e-08
2.99805e-09
-1.76204e-08
1.75946e-09
1.37874e-09
6.25341e-10
6.17522e-09
2.6428e-10
3.12215e-09
1.7724e-10
2.10674e-09
1.29487e-10
1.38936e-09
8.73964e-11
1.35063e-09
5.69476e-11
9.67497e-10
3.41228e-11
8.11138e-10
5.37767e-10
1.96054e-11
-2.09105e-10
2.60321e-10
-7.64623e-11
-7.67241e-10
-2.45867e-09
-2.78994e-10
-2.96828e-09
1.59965e-09
-6.63379e-10
-1.54531e-09
-3.8322e-10
2.00638e-09
7.54275e-10
-5.75267e-11
3.34215e-09
-2.5922e-09
4.23171e-09
-4.4341e-10
3.46201e-09
1.41456e-09
3.73348e-10
4.23388e-09
5.0582e-10
3.13851e-09
8.24549e-09
-1.32277e-09
1.25217e-08
1.0343e-09
8.82401e-09
-1.60425e-09
9.32353e-09
-1.09198e-09
3.44059e-09
1.48436e-08
-1.39309e-09
1.14397e-09
-3.00564e-10
-2.23187e-10
3.3704e-09
-1.48407e-08
4.11028e-09
-7.34733e-09
2.23606e-09
3.25294e-09
7.75191e-10
7.63608e-09
3.58829e-10
3.53851e-09
2.63628e-10
2.20193e-09
2.00441e-10
1.45254e-09
1.3642e-10
1.41464e-09
8.99547e-11
1.01396e-09
5.41817e-11
8.46902e-10
3.13502e-11
5.6059e-10
2.21595e-11
3.40115e-12
1.99934e-11
2.17242e-12
1.74531e-11
2.54196e-12
1.40554e-11
3.39167e-12
1.12881e-11
2.7752e-12
9.47373e-12
1.8068e-12
7.91285e-12
1.56757e-12
6.56501e-12
1.34318e-12
5.38491e-12
1.18384e-12
4.64086e-12
7.4237e-13
3.93892e-12
7.03505e-13
3.15255e-12
7.86373e-13
2.49415e-12
6.58928e-13
2.11288e-12
3.81828e-13
1.76809e-12
3.45021e-13
1.56822e-12
2.00434e-13
1.23193e-12
3.36508e-13
1.01495e-12
2.17409e-13
1.04471e-12
-2.95142e-14
8.65097e-13
1.79914e-13
7.42274e-13
1.23064e-13
6.93619e-13
4.88937e-14
6.27211e-13
6.66355e-14
6.24926e-13
2.50733e-15
6.04857e-13
2.0275e-14
5.74419e-13
3.06692e-14
1.66522e-13
4.08076e-13
4.40367e-13
-2.73606e-13
5.67448e-14
3.83775e-13
5.69851e-14
2.8511e-11
8.35309e-12
2.50837e-11
5.60017e-12
2.07338e-11
6.90103e-12
1.64598e-11
7.65279e-12
1.39333e-11
5.31548e-12
1.16132e-11
4.11533e-12
9.67717e-12
3.51346e-12
8.15275e-12
2.86164e-12
6.73287e-12
2.60872e-12
5.75775e-12
1.71595e-12
4.88721e-12
1.576e-12
3.66416e-12
2.00998e-12
2.93588e-12
1.38792e-12
2.59446e-12
7.24336e-13
2.15914e-12
7.80761e-13
1.79156e-12
5.68964e-13
1.52349e-12
6.05018e-13
1.28813e-12
4.53475e-13
1.13774e-12
1.21339e-13
1.02636e-12
2.91813e-13
9.2862e-13
2.21252e-13
8.52403e-13
1.25551e-13
8.33262e-13
8.61928e-14
8.34057e-13
2.14446e-15
6.98428e-13
1.56273e-13
6.99458e-13
3.009e-14
2.87305e-13
8.20547e-13
4.04499e-13
-3.90343e-13
-1.77046e-13
9.65587e-13
-1.19835e-13
3.09609e-11
1.42506e-11
2.31197e-11
1.34411e-11
1.87215e-11
1.13085e-11
1.63592e-11
1.00025e-11
1.41695e-11
7.51844e-12
1.18195e-11
6.45428e-12
9.8355e-12
5.50677e-12
8.43558e-12
4.25602e-12
7.14523e-12
3.90368e-12
5.59552e-12
3.26429e-12
4.30827e-12
2.86502e-12
3.72855e-12
2.59028e-12
3.15426e-12
1.96285e-12
2.67973e-12
1.1999e-12
2.19481e-12
1.26608e-12
1.7607e-12
1.00397e-12
1.59064e-12
7.75486e-13
1.35703e-12
6.87746e-13
1.00888e-12
4.69928e-13
9.48704e-13
3.52471e-13
9.68145e-13
2.02235e-13
8.8729e-13
2.06821e-13
9.25074e-13
4.87986e-14
9.4461e-13
-1.69833e-14
6.8951e-13
4.11718e-13
7.12136e-13
7.89046e-15
2.99261e-13
1.23372e-12
2.51208e-13
-3.41856e-13
-3.50601e-13
1.56765e-12
-4.70224e-13
2.93333e-11
1.97992e-11
2.38824e-11
1.88913e-11
2.00276e-11
1.51726e-11
1.69598e-11
1.3058e-11
1.42738e-11
1.02171e-11
1.18427e-11
8.87496e-12
9.82609e-12
7.53214e-12
8.24793e-12
5.82904e-12
6.86382e-12
5.29207e-12
5.52486e-12
4.60203e-12
4.46095e-12
3.93057e-12
3.75983e-12
3.29198e-12
3.1876e-12
2.53568e-12
2.73982e-12
1.64868e-12
2.22238e-12
1.7839e-12
1.82987e-12
1.39734e-12
1.57515e-12
1.03062e-12
1.3194e-12
9.4411e-13
1.12034e-12
6.69414e-13
1.00957e-12
4.63706e-13
9.54458e-13
2.57747e-13
8.82304e-13
2.7937e-13
8.62261e-13
6.92117e-14
8.37332e-13
8.33559e-15
7.04842e-13
5.44534e-13
7.31539e-13
-1.83999e-14
3.18971e-13
1.64656e-12
4.16652e-13
-4.39123e-13
-2.59634e-13
2.24417e-12
-7.29654e-13
2.88372e-11
2.51672e-11
2.40394e-11
2.3688e-11
2.03237e-11
1.88976e-11
1.70446e-11
1.63252e-11
1.41958e-11
1.3078e-11
1.17805e-11
1.12805e-11
9.7859e-12
9.5349e-12
8.1157e-12
7.49448e-12
6.72054e-12
6.69121e-12
5.51729e-12
5.80421e-12
4.50181e-12
4.94755e-12
3.78234e-12
4.01205e-12
3.27372e-12
3.04485e-12
2.70506e-12
2.21831e-12
2.19126e-12
2.29806e-12
1.82869e-12
1.76073e-12
1.55116e-12
1.30854e-12
1.30466e-12
1.19121e-12
1.13659e-12
8.37895e-13
1.01734e-12
5.83394e-13
9.43781e-13
3.31699e-13
8.79196e-13
3.44335e-13
8.4443e-13
1.04333e-13
7.94126e-13
5.90162e-14
7.03581e-13
6.3539e-13
7.34457e-13
-4.88838e-14
3.41639e-13
2.03965e-12
4.9772e-13
-5.94807e-13
-2.80149e-13
3.02227e-12
-1.00961e-12
2.86549e-11
3.0463e-11
2.39556e-11
2.83858e-11
2.02125e-11
2.26499e-11
1.69527e-11
1.95734e-11
1.40613e-11
1.5981e-11
1.16947e-11
1.36378e-11
9.73506e-12
1.15023e-11
7.97581e-12
9.24932e-12
6.59305e-12
8.07769e-12
5.46624e-12
6.9301e-12
4.52087e-12
5.89433e-12
3.85249e-12
4.68105e-12
3.28957e-12
3.60831e-12
2.62297e-12
2.88585e-12
2.14975e-12
2.77164e-12
1.81115e-12
2.10012e-12
1.53059e-12
1.58949e-12
1.31138e-12
1.411e-12
1.14267e-12
1.00701e-12
1.01048e-12
7.16011e-13
9.32513e-13
4.10048e-13
8.70874e-13
4.06342e-13
8.43452e-13
1.32098e-13
7.88109e-13
1.14725e-13
7.12355e-13
7.11445e-13
7.41146e-13
-7.72954e-14
3.82798e-13
2.39825e-12
5.57882e-13
-7.69506e-13
-3.72652e-13
3.95302e-12
-1.38207e-12
2.84661e-11
3.56952e-11
2.3839e-11
3.30111e-11
2.00202e-11
2.64778e-11
1.67576e-11
2.28248e-11
1.38932e-11
1.88566e-11
1.15936e-11
1.59285e-11
9.67496e-12
1.34282e-11
7.84922e-12
1.1071e-11
6.47893e-12
9.45145e-12
5.39784e-12
8.0104e-12
4.54168e-12
6.7518e-12
3.86718e-12
5.35619e-12
3.24331e-12
4.23269e-12
2.56536e-12
3.56473e-12
2.13093e-12
3.20643e-12
1.79188e-12
2.43995e-12
1.50387e-12
1.87789e-12
1.30529e-12
1.61014e-12
1.14123e-12
1.17147e-12
9.98886e-13
8.58773e-13
9.16202e-13
4.93103e-13
8.54551e-13
4.68354e-13
8.43318e-13
1.43664e-13
7.98798e-13
1.59601e-13
7.45213e-13
7.65322e-13
7.69066e-13
-1.00779e-13
4.3156e-13
2.73601e-12
6.26487e-13
-9.6406e-13
-4.68576e-13
5.0483e-12
-1.85047e-12
2.82445e-11
4.08781e-11
2.36549e-11
3.75986e-11
1.97736e-11
3.0368e-11
1.65261e-11
2.60616e-11
1.37118e-11
2.16815e-11
1.14356e-11
1.81964e-11
9.5395e-12
1.53312e-11
7.8401e-12
1.27666e-11
6.44109e-12
1.08537e-11
5.32633e-12
9.12449e-12
4.5804e-12
7.49897e-12
3.84355e-12
6.0937e-12
3.15652e-12
4.92023e-12
2.53238e-12
4.18977e-12
2.12759e-12
3.61159e-12
1.7879e-12
2.78038e-12
1.49762e-12
2.16856e-12
1.29886e-12
1.80944e-12
1.13574e-12
1.33499e-12
9.91776e-13
1.00314e-12
9.08272e-13
5.76969e-13
8.42755e-13
5.34222e-13
8.43596e-13
1.43147e-13
8.09005e-13
1.94539e-13
7.85311e-13
7.89298e-13
8.02931e-13
-1.1804e-13
4.1956e-13
3.11962e-12
6.55411e-13
-1.19955e-12
-4.63402e-13
6.16733e-12
-2.31369e-12
2.79548e-11
4.60194e-11
2.34256e-11
4.21255e-11
1.95282e-11
3.42742e-11
1.63009e-11
2.92785e-11
1.35351e-11
2.44575e-11
1.12783e-11
2.04453e-11
9.41212e-12
1.72039e-11
7.78923e-12
1.4386e-11
6.41546e-12
1.22305e-11
5.31159e-12
1.02278e-11
4.50889e-12
8.30282e-12
3.74545e-12
6.85782e-12
3.06631e-12
5.59985e-12
2.49805e-12
4.75891e-12
2.101e-12
4.00901e-12
1.76843e-12
3.11369e-12
1.48367e-12
2.45371e-12
1.27757e-12
2.01607e-12
1.11839e-12
1.49456e-12
9.78763e-13
1.14316e-12
8.99448e-13
6.56639e-13
8.31903e-13
6.0211e-13
8.41722e-13
1.33643e-13
8.15931e-13
2.20667e-13
8.27477e-13
7.78026e-13
8.3813e-13
-1.28344e-13
4.31704e-13
3.52628e-12
7.25835e-13
-1.49333e-12
-4.76358e-13
7.36973e-12
-2.78988e-12
2.76096e-11
5.11265e-11
2.31451e-11
4.65874e-11
1.92711e-11
3.81568e-11
1.60713e-11
3.24683e-11
1.33657e-11
2.71728e-11
1.11312e-11
2.26724e-11
9.28043e-12
1.90607e-11
7.69356e-12
1.59696e-11
6.35941e-12
1.35675e-11
5.27891e-12
1.13079e-11
4.42039e-12
9.16243e-12
3.6571e-12
7.62179e-12
2.98655e-12
6.27088e-12
2.46061e-12
5.28573e-12
2.05997e-12
4.41002e-12
1.74095e-12
3.43342e-12
1.47252e-12
2.72254e-12
1.26247e-12
2.22663e-12
1.10856e-12
1.64886e-12
9.71221e-13
1.28089e-12
8.98863e-13
7.29344e-13
8.28902e-13
6.72404e-13
8.37862e-13
1.24989e-13
8.19104e-13
2.39754e-13
8.35932e-13
7.61464e-13
8.38701e-13
-1.30776e-13
4.20417e-13
3.94479e-12
6.66022e-13
-1.7386e-12
-6.29225e-13