/*--------------------------------*- C++ -*----------------------------------*\
| =========                 |                                                 |
| \\      /  F ield         | OpenFOAM: The Open Source CFD Toolbox           |
|  \\    /   O peration     | Version:  2.4.0                                 |
|   \\  /    A nd           | Web:      www.OpenFOAM.org                      |
|    \\/     M anipulation  |                                                 |
\*---------------------------------------------------------------------------*/
FoamFile
{
    version     2.0;
    format      ascii;
    class       volVectorField;
    location    "0.027";
    object      U;
}
// * * * * * * * * * * * * * * * * * * * * * * * * * * * * * * * * * * * * * //

dimensions      [0 1 -1 0 0 0 0];

internalField   nonuniform List<vector> 
3600
(
(-8.58725e-05 0.000146121 -4.71958e-11)
(-0.00024011 0.000189339 1.28595e-11)
(-0.00044968 0.000210565 8.23848e-12)
(-0.000675151 0.000208682 3.98082e-12)
(-0.000907921 0.000202475 2.47162e-12)
(-0.00115686 0.000196391 1.82425e-12)
(-0.00136612 0.000178079 1.57298e-12)
(-0.00164341 0.000167551 1.2849e-12)
(-0.00172626 0.0001275 1.38736e-12)
(-0.00197479 0.000116467 1.14952e-12)
(-0.00183624 5.66653e-05 1.31823e-12)
(-0.00191922 4.9203e-05 1.1118e-12)
(-0.00153585 -1.37044e-05 1.14454e-12)
(-0.00133616 -1.08856e-05 9.67403e-13)
(-0.00083865 -4.9278e-05 8.3389e-13)
(-0.000469219 -2.83227e-05 6.61363e-13)
(-0.000183249 -3.32645e-05 4.7356e-13)
(0.0001054 -1.80185e-05 3.3882e-13)
(0.000120818 -1.00208e-05 2.12459e-13)
(0.000229279 -4.72351e-06 1.35761e-13)
(0.000164608 -1.09563e-06 7.83883e-14)
(0.00016736 -9.55376e-08 4.52456e-14)
(0.000115732 7.19422e-07 2.45504e-14)
(8.9192e-05 6.78346e-07 1.29378e-14)
(6.03335e-05 6.45444e-07 6.52936e-15)
(3.94668e-05 4.59237e-07 3.1565e-15)
(2.42143e-05 3.32406e-07 1.44933e-15)
(1.41281e-05 1.96282e-07 6.39375e-16)
(7.67517e-06 1.29545e-07 2.56757e-16)
(3.60643e-06 5.45112e-08 1.01351e-16)
(-0.000128949 0.000582342 -7.47493e-11)
(-0.000310335 0.000648312 2.33668e-11)
(-0.000520629 0.00067728 2.16429e-11)
(-0.000746684 0.000664373 1.44475e-11)
(-0.000982262 0.000636018 1.0473e-11)
(-0.00123177 0.000603541 8.13338e-12)
(-0.00142316 0.000536876 6.67204e-12)
(-0.00169358 0.000492187 5.36878e-12)
(-0.0017385 0.000365053 4.71357e-12)
(-0.00197534 0.000321443 3.77037e-12)
(-0.00177884 0.000135853 3.42085e-12)
(-0.00183731 0.000109652 2.72687e-12)
(-0.00139027 -8.06451e-05 2.38577e-12)
(-0.0011539 -6.64884e-05 1.88518e-12)
(-0.000620154 -0.000173427 1.49035e-12)
(-0.000231661 -0.000101874 1.11623e-12)
(3.55581e-05 -0.000106047 7.71978e-13)
(0.000309908 -5.16074e-05 5.29652e-13)
(0.000282922 -2.65277e-05 3.2813e-13)
(0.000360369 -8.47305e-06 2.04084e-13)
(0.000259719 1.44733e-06 1.16977e-13)
(0.000236179 3.74012e-06 6.64005e-14)
(0.000162479 5.0381e-06 3.57274e-14)
(0.000119955 4.05586e-06 1.86198e-14)
(7.97696e-05 3.24659e-06 9.31543e-15)
(5.12602e-05 2.18445e-06 4.46758e-15)
(3.10062e-05 1.47988e-06 2.03721e-15)
(1.78759e-05 8.5409e-07 8.93435e-16)
(9.57074e-06 5.2276e-07 3.5629e-16)
(4.92358e-06 3.02926e-07 1.51528e-16)
(-0.000131487 0.00112422 -7.59258e-11)
(-0.000318299 0.00115462 2.70673e-11)
(-0.000529586 0.00115245 2.47628e-11)
(-0.000753663 0.00112085 1.67832e-11)
(-0.000984855 0.0010657 1.22216e-11)
(-0.00124461 0.0010053 9.38336e-12)
(-0.00143038 0.000885187 7.63987e-12)
(-0.00171978 0.000809237 6.05417e-12)
(-0.00175363 0.000591197 5.27721e-12)
(-0.00200452 0.000517926 4.17892e-12)
(-0.00179128 0.000203313 3.75926e-12)
(-0.00184574 0.000160565 2.98119e-12)
(-0.00138162 -0.00015771 2.58045e-12)
(-0.00112522 -0.000131102 2.03141e-12)
(-0.000580723 -0.000301563 1.58984e-12)
(-0.000178207 -0.000179785 1.18469e-12)
(7.96941e-05 -0.000178053 8.1335e-13)
(0.000350727 -8.2123e-05 5.54792e-13)
(0.000311056 -4.19443e-05 3.42276e-13)
(0.000380563 -1.00907e-05 2.1195e-13)
(0.00027298 4.98673e-06 1.21208e-13)
(0.000244689 8.64249e-06 6.86148e-14)
(0.000167879 9.8728e-06 3.68582e-14)
(0.000123261 7.8283e-06 1.91807e-14)
(8.17064e-05 6.07518e-06 9.58096e-15)
(5.24018e-05 4.0375e-06 4.59194e-15)
(3.16505e-05 2.70635e-06 2.09281e-15)
(1.82057e-05 1.55477e-06 9.169e-16)
(9.64793e-06 9.23602e-07 3.63363e-16)
(5.18326e-06 4.64725e-07 1.59567e-16)
(-0.000120376 0.00159933 -6.29891e-11)
(-0.000308371 0.00164446 3.54977e-11)
(-0.000533295 0.00163375 2.77324e-11)
(-0.000777102 0.00158865 1.78938e-11)
(-0.00101925 0.00150863 1.27706e-11)
(-0.00130902 0.00142712 9.59694e-12)
(-0.00149426 0.0012525 7.82301e-12)
(-0.00181875 0.0011475 6.1058e-12)
(-0.00184032 0.000829833 5.37677e-12)
(-0.00211557 0.000727723 4.22262e-12)
(-0.00188029 0.000271881 3.83618e-12)
(-0.00192897 0.000213617 3.04165e-12)
(-0.00143896 -0.000241619 2.63804e-12)
(-0.00114796 -0.00020112 2.08324e-12)
(-0.000582823 -0.000436367 1.62287e-12)
(-0.000152623 -0.000260936 1.20884e-12)
(9.87489e-05 -0.000250045 8.24224e-13)
(0.000371896 -0.000113108 5.60232e-13)
(0.000321827 -5.63835e-05 3.43985e-13)
(0.00038706 -1.15268e-05 2.12395e-13)
(0.000275739 8.83226e-06 1.21179e-13)
(0.000245797 1.35909e-05 6.85028e-14)
(0.000168251 1.47631e-05 3.67667e-14)
(0.000123256 1.16118e-05 1.91196e-14)
(8.16671e-05 8.9102e-06 9.55005e-15)
(5.2295e-05 5.89042e-06 4.57427e-15)
(3.15508e-05 3.93185e-06 2.08357e-15)
(1.81465e-05 2.2549e-06 9.12965e-16)
(9.66868e-06 1.32862e-06 3.63087e-16)
(4.93394e-06 6.14394e-07 1.54144e-16)
(-0.000134844 0.0020951 -7.77014e-11)
(-0.000338678 0.00215959 3.29809e-11)
(-0.000578083 0.002147 2.74592e-11)
(-0.000846243 0.00209126 1.76596e-11)
(-0.00109729 0.00198264 1.26727e-11)
(-0.00142417 0.0018806 9.43508e-12)
(-0.00160463 0.00164122 7.80793e-12)
(-0.00197368 0.00150963 6.01328e-12)
(-0.00197491 0.00107831 5.41669e-12)
(-0.00228141 0.000950188 4.21692e-12)
(-0.00201432 0.000337363 3.89768e-12)
(-0.00205209 0.000265408 3.09548e-12)
(-0.00152588 -0.000336375 2.69686e-12)
(-0.00118533 -0.000280512 2.14067e-12)
(-0.00059129 -0.000579904 1.65868e-12)
(-0.000122686 -0.000347024 1.23519e-12)
(0.00012063 -0.000321906 8.34831e-13)
(0.000396734 -0.000143272 5.65011e-13)
(0.000333608 -6.95235e-05 3.4479e-13)
(0.000393809 -1.21041e-05 2.1215e-13)
(0.00027806 1.31105e-05 1.20679e-13)
(0.000246316 1.87113e-05 6.81065e-14)
(0.000168109 1.97169e-05 3.65134e-14)
(0.000122859 1.54078e-05 1.89748e-14)
(8.13197e-05 1.17455e-05 9.47411e-15)
(5.2021e-05 7.74124e-06 4.53663e-15)
(3.13644e-05 5.15314e-06 2.0658e-15)
(1.80278e-05 2.94986e-06 9.05083e-16)
(9.6123e-06 1.73649e-06 3.60163e-16)
(4.87384e-06 8.44955e-07 1.52078e-16)
(-0.000151009 0.00265941 -9.6233e-11)
(-0.000377067 0.00272816 2.95841e-11)
(-0.000634855 0.00270701 2.70507e-11)
(-0.000937355 0.00263981 1.73043e-11)
(-0.00119675 0.00249615 1.25741e-11)
(-0.00157525 0.00237594 9.17732e-12)
(-0.0017468 0.0020612 7.79212e-12)
(-0.00217497 0.00190608 5.8827e-12)
(-0.00215044 0.00134305 5.45735e-12)
(-0.00249679 0.00119252 4.2045e-12)
(-0.00218946 0.000400373 3.97269e-12)
(-0.00221042 0.000317289 3.16487e-12)
(-0.00163837 -0.000445594 2.7717e-12)
(-0.00123133 -0.000372295 2.21496e-12)
(-0.000600527 -0.000735102 1.70442e-12)
(-8.26248e-05 -0.000439268 1.26844e-12)
(0.000149602 -0.000393838 8.47957e-13)
(0.000427942 -0.000172669 5.70756e-13)
(0.000348227 -8.10783e-05 3.45632e-13)
(0.000402009 -1.19283e-05 2.11749e-13)
(0.000280777 1.78922e-05 1.20005e-13)
(0.000246828 2.40208e-05 6.75862e-14)
(0.000167844 2.47431e-05 3.61839e-14)
(0.000122317 1.9218e-05 1.87883e-14)
(8.08511e-05 1.45792e-05 9.37597e-15)
(5.1663e-05 9.58491e-06 4.4884e-15)
(3.11273e-05 6.36841e-06 2.04326e-15)
(1.78758e-05 3.64054e-06 8.95044e-16)
(9.52933e-06 2.14101e-06 3.56124e-16)
(4.83371e-06 1.03412e-06 1.50411e-16)
(-0.000169566 0.00328543 -1.17659e-10)
(-0.000423908 0.00335748 2.61801e-11)
(-0.000701442 0.00332517 2.70646e-11)
(-0.00105187 0.00324661 1.69268e-11)
(-0.00131943 0.00306063 1.24679e-11)
(-0.00176424 0.00292417 8.85574e-12)
(-0.00192405 0.00251941 7.76679e-12)
(-0.00242848 0.00234528 5.69282e-12)
(-0.00237064 0.00162738 5.50201e-12)
(-0.00276676 0.00145883 4.18249e-12)
(-0.00240999 0.000459123 4.06169e-12)
(-0.00240608 0.000367751 3.25248e-12)
(-0.00177826 -0.000573424 2.86439e-12)
(-0.00128501 -0.000480234 2.30857e-12)
(-0.000608933 -0.000904928 1.76122e-12)
(-3.04018e-05 -0.000538352 1.3092e-12)
(0.000186808 -0.000466115 8.6378e-13)
(0.000465957 -0.000200811 5.77506e-13)
(0.000365793 -9.05485e-05 3.46516e-13)
(0.000411619 -1.06632e-05 2.11197e-13)
(0.000283871 2.33037e-05 1.19165e-13)
(0.000247333 2.95591e-05 6.69485e-14)
(0.00016747 2.98544e-05 3.57835e-14)
(0.000121639 2.30438e-05 1.85626e-14)
(8.02745e-05 1.74103e-05 9.25744e-15)
(5.12255e-05 1.14194e-05 4.43021e-15)
(3.08403e-05 7.57606e-06 2.01615e-15)
(1.7692e-05 4.32594e-06 8.8297e-16)
(9.42833e-06 2.54176e-06 3.51234e-16)
(4.7867e-06 1.2398e-06 1.48473e-16)
(-0.000197536 0.00400451 -1.48044e-10)
(-0.000488202 0.00406326 2.12535e-11)
(-0.000782631 0.00401324 2.70533e-11)
(-0.00119471 0.00392547 1.64098e-11)
(-0.00146731 0.00368895 1.23962e-11)
(-0.00199885 0.00353922 8.37068e-12)
(-0.00213881 0.00302599 7.73689e-12)
(-0.00273941 0.00283931 5.43616e-12)
(-0.00264168 0.00193619 5.53742e-12)
(-0.00309796 0.0017558 4.14413e-12)
(-0.00268269 0.000512314 4.16084e-12)
(-0.00264247 0.000416092 3.36005e-12)
(-0.00194867 -0.000724584 2.97586e-12)
(-0.00134562 -0.000609272 2.42372e-12)
(-0.000614888 -0.00109262 1.82993e-12)
(3.61486e-05 -0.000645646 1.35781e-12)
(0.000233341 -0.000538418 8.82283e-13)
(0.000511062 -0.000227215 5.8516e-13)
(0.000386278 -9.74997e-05 3.4738e-13)
(0.000422508 -8.16239e-06 2.10465e-13)
(0.000287283 2.94468e-05 1.18149e-13)
(0.000247791 3.536e-05 6.61904e-14)
(0.000166974 3.50612e-05 3.53118e-14)
(0.000120823 2.68859e-05 1.82979e-14)
(7.95893e-05 2.02373e-05 9.11879e-15)
(5.07085e-05 1.32429e-05 4.36217e-15)
(3.05032e-05 8.77449e-06 1.98452e-15)
(1.74768e-05 5.00512e-06 8.68891e-16)
(9.30972e-06 2.93801e-06 3.45524e-16)
(4.73035e-06 1.43722e-06 1.46187e-16)
(-0.000216544 0.00483092 -1.72796e-10)
(-0.000560083 0.00486575 1.75618e-11)
(-0.000876689 0.00478866 2.76579e-11)
(-0.00136944 0.00469444 1.57616e-11)
(-0.00164281 0.00439327 1.23637e-11)
(-0.00228363 0.00423425 7.74037e-12)
(-0.00239647 0.00359159 7.66967e-12)
(-0.0031178 0.00339965 5.05742e-12)
(-0.00297112 0.00227534 5.54935e-12)
(-0.00349922 0.00208981 4.07902e-12)
(-0.0030158 0.000558005 4.26609e-12)
(-0.00292368 0.00046046 3.48979e-12)
(-0.00215346 -0.000904416 3.1071e-12)
(-0.00141214 -0.000764481 2.56316e-12)
(-0.000616047 -0.00130157 1.91175e-12)
(0.000119715 -0.000762781 1.41463e-12)
(0.000290549 -0.000610031 9.03427e-13)
(0.000563553 -0.00025124 5.93595e-13)
(0.000409615 -0.000101386 3.48143e-13)
(0.000434495 -4.17574e-06 2.09512e-13)
(0.000290922 3.64214e-05 1.16945e-13)
(0.000248152 4.14535e-05 6.53082e-14)
(0.000166339 4.03718e-05 3.47683e-14)
(0.000119861 3.07439e-05 1.79944e-14)
(7.87942e-05 2.30583e-05 8.96022e-15)
(5.01115e-05 1.50533e-05 4.2844e-15)
(3.0116e-05 9.962e-06 1.94842e-15)
(1.72302e-05 5.67706e-06 8.52832e-16)
(9.17388e-06 3.32914e-06 3.3901e-16)
(4.66327e-06 1.63289e-06 1.43525e-16)
(-0.000239917 0.00574337 -2.01731e-10)
(-0.000651916 0.00576867 1.38e-11)
(-0.000989632 0.00566569 2.91609e-11)
(-0.00158726 0.0055619 1.47932e-11)
(-0.00185099 0.00518776 1.23807e-11)
(-0.00262548 0.00502279 6.88645e-12)
(-0.00269986 0.00422569 7.56724e-12)
(-0.00357153 0.00404167 4.53791e-12)
(-0.00336817 0.0026504 5.51931e-12)
(-0.00398091 0.00246915 3.97539e-12)
(-0.00341977 0.00059357 4.37097e-12)
(-0.00325447 0.000498481 3.64492e-12)
(-0.00239696 -0.00111917 3.26006e-12)
(-0.00148322 -0.000953031 2.73026e-12)
(-0.000609745 -0.00153564 2.00782e-12)
(0.000223586 -0.000891277 1.4801e-12)
(0.000360067 -0.000679954 9.27154e-13)
(0.00062367 -0.000272107 6.02636e-13)
(0.000435702 -0.000101645 3.48714e-13)
(0.000447359 1.55842e-06 2.08292e-13)
(0.000294683 4.43166e-05 1.15537e-13)
(0.000248358 4.78645e-05 6.42978e-14)
(0.000165546 4.57911e-05 3.41525e-14)
(0.00011875 3.46166e-05 1.76524e-14)
(7.78878e-05 2.58711e-05 8.78201e-15)
(4.94346e-05 1.68485e-05 4.19704e-15)
(2.96789e-05 1.11369e-05 1.90792e-15)
(1.69525e-05 6.34071e-06 8.34829e-16)
(9.02114e-06 3.71454e-06 3.31712e-16)
(4.58485e-06 1.82553e-06 1.40478e-16)
(-0.000264408 0.00683621 -2.33537e-10)
(-0.000757789 0.00685628 1.13649e-11)
(-0.00112036 0.00668529 3.26513e-11)
(-0.00184399 0.00659588 1.42325e-11)
(-0.00208384 0.00608959 1.28541e-11)
(-0.00302843 0.0059493 5.7555e-12)
(-0.00305309 0.00494554 7.38232e-12)
(-0.0041131 0.00478778 3.80652e-12)
(-0.00384453 0.00306947 5.41521e-12)
(-0.00455579 0.00290387 3.81953e-12)
(-0.00390785 0.00061584 4.46709e-12)
(-0.00364058 0.000526704 3.82991e-12)
(-0.00268484 -0.00137604 3.43562e-12)
(-0.00155705 -0.00118283 2.92912e-12)
(-0.000591913 -0.00179901 2.12043e-12)
(0.000351786 -0.00103258 1.55469e-12)
(0.000443818 -0.000746982 9.53348e-13)
(0.000691616 -0.000288812 6.12075e-13)
(0.00046437 -9.76468e-05 3.48981e-13)
(0.000460829 9.24959e-06 2.06753e-13)
(0.000298436 5.32096e-05 1.13909e-13)
(0.000248349 5.46114e-05 6.31549e-14)
(0.000164573 5.13209e-05 3.34636e-14)
(0.000117481 3.85021e-05 1.7272e-14)
(7.68689e-05 2.86731e-05 8.58442e-15)
(4.86775e-05 1.86266e-05 4.10025e-15)
(2.91919e-05 1.22974e-05 1.8631e-15)
(1.66439e-05 6.99509e-06 8.14913e-16)
(8.8517e-06 4.09362e-06 3.23644e-16)
(4.49513e-06 2.01487e-06 1.37052e-16)
(-0.000293912 0.00801811 -2.76085e-10)
(-0.000933631 0.00802278 1.67944e-12)
(-0.00125643 0.00786168 3.86095e-11)
(-0.00216041 0.0076468 1.34427e-11)
(-0.00235539 0.00713263 1.34833e-11)
(-0.00350428 0.00689879 4.28486e-12)
(-0.00347665 0.0057713 7.05975e-12)
(-0.00475592 0.00563566 2.79156e-12)
(-0.0044163 0.00354453 5.19886e-12)
(-0.00523967 0.00340125 3.58985e-12)
(-0.00449707 0.0006215 4.54373e-12)
(-0.00408875 0.000539809 4.05046e-12)
(-0.00302309 -0.00168339 3.63849e-12)
(-0.00163126 -0.00146388 3.16477e-12)
(-0.000557928 -0.00209604 2.25076e-12)
(0.00050907 -0.00118842 1.63882e-12)
(0.000544037 -0.000809281 9.81858e-13)
(0.000767503 -0.000300089 6.21661e-13)
(0.000495345 -8.87103e-05 3.48813e-13)
(0.000474581 1.90668e-05 2.04835e-13)
(0.000302043 6.3161e-05 1.12044e-13)
(0.000248056 6.17051e-05 6.18752e-14)
(0.000163397 5.69594e-05 3.27013e-14)
(0.000116046 4.23975e-05 1.68535e-14)
(7.57362e-05 3.1461e-05 8.36779e-15)
(4.78404e-05 2.03854e-05 3.99423e-15)
(2.86552e-05 1.34419e-05 1.81403e-15)
(1.63045e-05 7.63914e-06 7.93124e-16)
(8.6658e-06 4.46581e-06 3.14824e-16)
(4.39454e-06 2.20073e-06 1.33261e-16)
(-0.000334119 0.00938963 -2.84945e-10)
(-0.00100043 0.00943202 3.29868e-11)
(-0.00149476 0.00903746 4.74225e-11)
(-0.00249233 0.00917696 3.06145e-11)
(-0.00267173 0.00819273 1.50519e-11)
(-0.00406604 0.00835165 2.33147e-12)
(-0.00390623 0.00667625 6.67696e-12)
(-0.00551384 0.00670531 1.39576e-12)
(-0.00509165 0.00407521 4.81683e-12)
(-0.00605282 0.00398803 3.26718e-12)
(-0.00520718 0.00060301 4.58585e-12)
(-0.00460694 0.000531959 4.31482e-12)
(-0.00341901 -0.00205134 3.87141e-12)
(-0.00170268 -0.00180856 3.4432e-12)
(-0.000501211 -0.00243293 2.40188e-12)
(0.000701148 -0.00135903 1.73303e-12)
(0.000663363 -0.000864589 1.01246e-12)
(0.000851256 -0.000304357 6.31059e-13)
(0.000528226 -7.4101e-05 3.48055e-13)
(0.000488226 3.12477e-05 2.02474e-13)
(0.000305346 7.42117e-05 1.09923e-13)
(0.000247411 6.91482e-05 6.04545e-14)
(0.000161994 6.2701e-05 3.1865e-14)
(0.000114436 4.62985e-05 1.6397e-14)
(7.44882e-05 3.42312e-05 8.13247e-15)
(4.69234e-05 2.21228e-05 3.87917e-15)
(2.80695e-05 1.45685e-05 1.76082e-15)
(1.59347e-05 8.27185e-06 7.69505e-16)
(8.46369e-06 4.83048e-06 3.05272e-16)
(4.2836e-06 2.38275e-06 1.29123e-16)
(-0.000319739 0.0112665 -7.43014e-10)
(-0.00147485 0.0113311 -4.16753e-11)
(-0.00140754 0.0110666 5.48578e-10)
(-0.00298092 0.0102441 -1.33829e-09)
(-0.00296384 0.00983806 4.99529e-11)
(-0.00469017 0.00918543 -2.76417e-12)
(-0.00457992 0.00787653 5.35436e-12)
(-0.00638674 0.00772367 -4.87425e-13)
(-0.00593707 0.00471668 4.13655e-12)
(-0.00701526 0.0046387 2.82594e-12)
(-0.00606984 0.000560836 4.57263e-12)
(-0.0052027 0.000489128 4.63402e-12)
(-0.00388069 -0.0024911 4.14024e-12)
(-0.00176754 -0.00223209 3.77185e-12)
(-0.000413405 -0.00281796 2.57689e-12)
(0.000935071 -0.00154345 1.83772e-12)
(0.000804459 -0.000909907 1.0448e-12)
(0.000942624 -0.000299695 6.39884e-13)
(0.000562465 -5.30964e-05 3.46533e-13)
(0.000501317 4.59803e-05 1.996e-13)
(0.000308173 8.63783e-05 1.07527e-13)
(0.000246343 7.69338e-05 5.88889e-14)
(0.000160342 6.85369e-05 3.09547e-14)
(0.000112644 5.02e-05 1.5903e-14)
(7.31234e-05 3.69795e-05 7.87881e-15)
(4.59266e-05 2.38364e-05 3.75529e-15)
(2.74351e-05 1.56755e-05 1.70359e-15)
(1.55349e-05 8.89221e-06 7.44103e-16)
(8.2456e-06 5.18704e-06 2.95007e-16)
(4.16312e-06 2.56087e-06 1.24661e-16)
(-0.000291533 0.0126423 1.89962e-08)
(-0.0012756 0.0125383 4.50245e-09)
(-0.00266514 0.0116318 -2.48677e-08)
(-0.00349759 0.0128324 7.1589e-08)
(-0.00357952 0.0107021 -2.82342e-09)
(-0.00550499 0.0118321 2.2008e-10)
(-0.00491595 0.00886033 1.96364e-12)
(-0.00747037 0.00950084 -3.1318e-12)
(-0.0068386 0.00538183 3.23461e-12)
(-0.00817292 0.0054785 2.22078e-12)
(-0.00710109 0.000469937 4.49238e-12)
(-0.00588845 0.000408185 5.02262e-12)
(-0.00441567 -0.00301649 4.45263e-12)
(-0.00182168 -0.00275094 4.15954e-12)
(-0.000283034 -0.00325909 2.77974e-12)
(0.00121957 -0.00174059 1.95328e-12)
(0.000970191 -0.000941179 1.07844e-12)
(0.00104104 -0.000283779 6.4766e-13)
(0.000597319 -2.49504e-05 3.44049e-13)
(0.000513345 6.34185e-05 1.96139e-13)
(0.000310331 9.96475e-05 1.04838e-13)
(0.000244776 8.50435e-05 5.7175e-14)
(0.000158421 7.4454e-05 2.99707e-14)
(0.000110663 5.40955e-05 1.5372e-14)
(7.16401e-05 3.97013e-05 7.60723e-15)
(4.48504e-05 2.5524e-05 3.62284e-15)
(2.67531e-05 1.67612e-05 1.64247e-15)
(1.51054e-05 9.49923e-06 7.1697e-16)
(8.01184e-06 5.53485e-06 2.84052e-16)
(4.03407e-06 2.73495e-06 1.19904e-16)
(-0.00084539 0.0151908 -4.28832e-07)
(-0.0029277 0.017141 -3.57953e-07)
(-0.000697002 0.0163311 8.0058e-07)
(-0.00395293 0.0129346 -2.45722e-06)
(-0.003545 0.0136992 1.39529e-07)
(-0.00609172 0.0116475 -1.26484e-08)
(-0.00612509 0.0108925 2.83382e-10)
(-0.00853826 0.0105397 -1.53256e-11)
(-0.00821732 0.00636182 1.4205e-12)
(-0.00951716 0.0062723 1.47838e-12)
(-0.0083884 0.000354821 4.28351e-12)
(-0.00666865 0.000240095 5.50056e-12)
(-0.00503705 -0.00364344 4.81881e-12)
(-0.00185939 -0.00339372 4.6171e-12)
(-9.65315e-05 -0.00376555 3.015e-12)
(0.00156489 -0.00194999 2.07988e-12)
(0.00116352 -0.000953418 1.11266e-12)
(0.00114553 -0.000253966 6.53823e-13)
(0.000631815 1.15691e-05 3.40384e-13)
(0.000523734 8.36653e-05 1.92015e-13)
(0.000311621 0.000113971 1.01839e-13)
(0.000242637 9.34471e-05 5.53094e-14)
(0.000156213 8.04348e-05 2.89136e-14)
(0.000108486 5.79779e-05 1.48046e-14)
(7.0037e-05 4.23917e-05 7.31817e-15)
(4.36954e-05 2.7183e-05 3.48208e-15)
(2.60245e-05 1.78236e-05 1.5776e-15)
(1.46468e-05 1.00919e-05 6.88164e-16)
(7.76272e-06 5.87325e-06 2.72431e-16)
(3.89713e-06 2.90459e-06 1.14872e-16)
(0.00260761 0.0199717 -2.7183e-06)
(-0.000622621 0.0154533 1.57746e-05)
(-0.00717176 0.01323 -1.89684e-05)
(-0.00509325 0.0184153 4.93629e-05)
(-0.00471203 0.0136925 -4.27161e-06)
(-0.00737927 0.0169326 4.31583e-07)
(-0.00579137 0.0117172 -1.43753e-08)
(-0.0102107 0.0135763 5.85051e-10)
(-0.00933197 0.0071571 -6.45329e-12)
(-0.0112206 0.0075833 4.51479e-13)
(-0.00987606 0.000135852 4.00297e-12)
(-0.00757281 2.41918e-05 6.09438e-12)
(-0.00574549 -0.00438598 5.25399e-12)
(-0.00187449 -0.00417058 5.15536e-12)
(0.000166196 -0.00434301 3.2884e-12)
(0.00198365 -0.00216648 2.21752e-12)
(0.00138787 -0.000939259 1.14666e-12)
(0.00125469 -0.00020673 6.57692e-13)
(0.000664707 5.71757e-05 3.35294e-13)
(0.000531759 0.000106752 1.87151e-13)
(0.00031184 0.000129261 9.85148e-14)
(0.000239851 0.000102102 5.32893e-14)
(0.000153699 8.64578e-05 2.77841e-14)
(0.000106108 6.18394e-05 1.42017e-14)
(6.83129e-05 4.50454e-05 7.01215e-15)
(4.2462e-05 2.88108e-05 3.33328e-15)
(2.52502e-05 1.88611e-05 1.50914e-15)
(1.41597e-05 1.06694e-05 6.57746e-16)
(7.49862e-06 6.2016e-06 2.6017e-16)
(3.75271e-06 3.06926e-06 1.09581e-16)
(-0.00768001 0.00835466 0.000514882)
(-0.0071982 0.0321772 -0.000351529)
(0.00252805 0.0272276 0.000243558)
(-0.00459266 0.0134026 -0.000681439)
(-0.00450161 0.0186025 7.55035e-05)
(-0.00733065 0.0139614 -9.39296e-06)
(-0.00843791 0.0153441 4.58019e-07)
(-0.0112685 0.0146286 -2.39911e-08)
(-0.0117021 0.00884334 3.82265e-10)
(-0.013077 0.00850111 -5.56898e-12)
(-0.011868 -0.000104682 3.40407e-12)
(-0.00858 -0.000393534 6.84722e-12)
(-0.0065712 -0.00527867 5.77971e-12)
(-0.00185845 -0.00515636 5.78941e-12)
(0.000523421 -0.00501897 3.60516e-12)
(0.00248964 -0.00239556 2.36577e-12)
(0.00164573 -0.00089245 1.17915e-12)
(0.00136606 -0.000139418 6.5844e-13)
(0.000694322 0.000112205 3.28501e-13)
(0.000536703 0.000132602 1.81473e-13)
(0.000310784 0.000145375 9.48513e-14)
(0.000236347 0.000110952 5.11128e-14)
(0.000150859 9.24968e-05 2.65831e-14)
(0.000103526 6.5671e-05 1.35642e-14)
(6.64673e-05 4.76567e-05 6.68973e-15)
(4.11502e-05 3.04048e-05 3.1767e-15)
(2.44308e-05 1.98717e-05 1.43722e-15)
(1.36447e-05 1.12306e-05 6.25781e-16)
(7.21993e-06 6.51926e-06 2.47295e-16)
(3.60074e-06 3.22845e-06 1.04035e-16)
(-0.00224371 0.0577483 -0.00520909)
(-0.00991745 0.0118102 0.00617351)
(-0.0162829 0.00932779 -0.00283727)
(-0.00465483 0.0278685 0.00464234)
(-0.00181267 0.0183527 -0.000809209)
(-0.00989374 0.0237597 0.000121404)
(-0.00572411 0.0158822 -8.24666e-06)
(-0.0140719 0.019366 5.68194e-07)
(-0.0130845 0.00986043 -1.39339e-08)
(-0.0157375 0.0105027 2.53373e-10)
(-0.0140036 -0.000510302 1.30063e-12)
(-0.00976628 -0.000862991 7.79559e-12)
(-0.00748521 -0.00630918 6.42709e-12)
(-0.00180108 -0.00629028 6.53754e-12)
(0.00101665 -0.00575366 3.97656e-12)
(0.00310492 -0.00258774 2.52455e-12)
(0.00194248 -0.000794724 1.20885e-12)
(0.00147692 -4.49543e-05 6.5516e-13)
(0.000718861 0.000177485 3.19716e-13)
(0.000537738 0.000161014 1.74903e-13)
(0.000308246 0.00016212 9.08378e-14)
(0.000232072 0.000119929 4.87798e-14)
(0.000147679 9.8522e-05 2.5312e-14)
(0.000100739 6.94631e-05 1.28931e-14)
(6.45002e-05 5.02197e-05 6.35154e-15)
(3.97605e-05 3.19621e-05 3.01264e-15)
(2.35667e-05 2.08537e-05 1.36198e-15)
(1.31025e-05 1.17747e-05 5.92342e-16)
(6.9271e-06 6.82557e-06 2.33838e-16)
(3.44083e-06 3.38175e-06 9.82354e-17)
(0.0114648 0.035143 0.0145932)
(-0.0225859 0.0683981 -0.0413772)
(0.00703029 0.0356316 0.0167729)
(-0.0110445 0.00312097 -0.020398)
(-0.0100425 0.0237777 0.00492445)
(-0.00669506 0.0190457 -0.00089012)
(-0.0127056 0.0214496 9.12353e-05)
(-0.0146094 0.0213858 -7.99986e-06)
(-0.017151 0.0128136 2.99707e-07)
(-0.018315 0.0115734 -7.97126e-09)
(-0.0171333 -0.000992435 8.22501e-11)
(-0.0110493 -0.00182155 8.7084e-12)
(-0.00854837 -0.00760667 7.22898e-12)
(-0.00168605 -0.0078335 7.41618e-12)
(0.00165857 -0.00670122 4.39969e-12)
(0.00383618 -0.00285648 2.68966e-12)
(0.00226998 -0.00065995 1.23232e-12)
(0.00158092 7.77679e-05 6.46561e-13)
(0.0007352 0.000253131 3.08598e-13)
(0.000533941 0.000191572 1.6737e-13)
(0.00030403 0.000179233 8.64675e-14)
(0.000226986 0.000128952 4.62923e-14)
(0.00014415 0.0001045 2.39729e-14)
(9.77455e-05 7.32055e-05 1.21899e-14)
(6.24119e-05 5.27282e-05 5.99828e-15)
(3.82935e-05 3.34802e-05 2.84141e-15)
(2.26585e-05 2.18051e-05 1.28357e-15)
(1.2534e-05 1.23006e-05 5.57502e-16)
(6.62055e-06 7.1199e-06 2.19828e-16)
(3.27263e-06 3.52874e-06 9.2179e-17)
(0.00949207 0.0571914 0.0028717)
(0.00931029 0.0417337 0.0747206)
(0.0384496 -0.0075496 -0.107124)
(0.0165506 0.050072 0.00848196)
(-0.00433122 0.0214315 -0.0078788)
(-0.00545738 0.0280839 0.00299368)
(-0.00363205 0.0238407 -0.000476878)
(-0.0191124 0.0268594 5.56039e-05)
(-0.0191955 0.0144812 -3.35647e-06)
(-0.0227185 0.0144888 1.29551e-07)
(-0.0202613 -0.00171569 -2.15852e-09)
(-0.0125966 -0.0027585 3.25053e-11)
(-0.0096696 -0.00895498 8.0642e-12)
(-0.00150478 -0.0094449 8.45266e-12)
(0.00253873 -0.0075776 4.91199e-12)
(0.00474613 -0.00291153 2.86892e-12)
(0.0026625 -0.00039024 1.25152e-12)
(0.00167842 0.000241465 6.31753e-13)
(0.000741238 0.000339752 2.94863e-13)
(0.000524414 0.000223648 1.58818e-13)
(0.000297982 0.0001964 8.17395e-14)
(0.000221074 0.000137928 4.36542e-14)
(0.000140267 0.000110399 2.2568e-14)
(9.45462e-05 7.68887e-05 1.14556e-14)
(6.02039e-05 5.51769e-05 5.63069e-15)
(3.67506e-05 3.49565e-05 2.66337e-15)
(2.17071e-05 2.27241e-05 1.20217e-15)
(1.194e-05 1.28079e-05 5.21337e-16)
(6.30074e-06 7.40197e-06 2.05296e-16)
(3.09597e-06 3.67094e-06 8.58784e-17)
(-0.0156333 -0.0163449 0.016668)
(-0.000814352 0.0179658 0.103839)
(-0.0325575 -0.00339272 -0.0900717)
(-0.0197031 0.0329758 0.0277594)
(-0.014101 0.0424026 -0.00180687)
(-0.0306732 0.0215118 -0.0042506)
(-0.00652553 0.0339986 0.00142069)
(-0.0205532 0.0341096 -0.00018874)
(-0.02526 0.0195774 1.96718e-05)
(-0.0264044 0.0155909 -1.17017e-06)
(-0.0251339 -0.00270616 2.60203e-08)
(-0.0141707 -0.00484511 -6.48634e-11)
(-0.0109718 -0.0108717 6.30236e-12)
(-0.00123163 -0.0118407 9.66258e-12)
(0.00364251 -0.00900668 5.46022e-12)
(0.00578376 -0.00324992 3.0328e-12)
(0.0030419 -0.00012811 1.25135e-12)
(0.00174147 0.000439767 6.07959e-13)
(0.000731191 0.000435059 2.78078e-13)
(0.00050808 0.000256187 1.49203e-13)
(0.000289997 0.000213183 7.66609e-14)
(0.000214338 0.000146728 4.08706e-14)
(0.000136031 0.000116162 2.11004e-14)
(9.11416e-05 8.04899e-05 1.06917e-14)
(5.78775e-05 5.75529e-05 5.24958e-15)
(3.51337e-05 3.63834e-05 2.4789e-15)
(2.07136e-05 2.36053e-05 1.11794e-15)
(1.13212e-05 1.32911e-05 4.83927e-16)
(5.96821e-06 7.66593e-06 1.90274e-16)
(2.91444e-06 3.79361e-06 7.93893e-17)
(-0.0372544 0.113631 -0.0278114)
(0.00746709 0.0772433 0.00905559)
(0.0459026 0.0360666 -0.0213286)
(0.0166619 0.0440277 -0.0167728)
(0.00368645 0.0426495 0.0151244)
(-0.00344641 0.0286488 -0.00282537)
(-0.0221577 0.0185953 0.000495842)
(-0.0199133 0.0430965 -0.000239556)
(-0.0322217 0.0222496 -4.31484e-06)
(-0.0338032 0.020254 2.01342e-06)
(-0.0297382 -0.00385585 -3.34307e-07)
(-0.0161248 -0.00672796 1.25758e-08)
(-0.0122013 -0.0124946 -1.33565e-10)
(-0.000862483 -0.0140838 1.14036e-11)
(0.00514643 -0.0100458 6.17492e-12)
(0.0071556 -0.00299512 3.23512e-12)
(0.00356627 0.000442042 1.25153e-12)
(0.00180134 0.000701762 5.75965e-13)
(0.00070402 0.00054165 2.58113e-13)
(0.000484385 0.000289091 1.38523e-13)
(0.000280075 0.000229905 7.12481e-14)
(0.000206814 0.000155644 3.79489e-14)
(0.000131455 0.000122048 1.95738e-14)
(8.75364e-05 8.41819e-05 9.89977e-15)
(5.54357e-05 5.99705e-05 4.8558e-15)
(3.34453e-05 3.78413e-05 2.28842e-15)
(1.9679e-05 2.45036e-05 1.03107e-15)
(1.06784e-05 1.37957e-05 4.45352e-16)
(5.62265e-06 7.95324e-06 1.74785e-16)
(2.72156e-06 3.95732e-06 7.26339e-17)
(-0.00633743 0.0925338 0.00261039)
(0.0786118 -0.0936728 0.010012)
(0.0394273 -0.0545916 0.0573859)
(0.0141315 0.0646429 0.0230006)
(0.0157786 0.0530794 -0.00951121)
(-0.0172964 0.0475599 0.0144801)
(-0.0307444 0.0510725 -0.00922711)
(-0.00355887 0.0457494 0.00395676)
(-0.0387394 0.0339752 -0.000381695)
(-0.0395855 0.0184785 2.46817e-05)
(-0.037441 -0.0062047 -3.71938e-06)
(-0.0179535 -0.0110901 1.63818e-07)
(-0.0136329 -0.0152277 -1.82689e-09)
(-0.000395326 -0.017672 1.65309e-11)
(0.00697274 -0.0121878 6.85379e-12)
(0.00861524 -0.00339709 3.35975e-12)
(0.00394288 0.000907663 1.20233e-12)
(0.00176089 0.000985166 5.28277e-13)
(0.000648155 0.000646161 2.34317e-13)
(0.000451864 0.000316669 1.26755e-13)
(0.00026818 0.000242598 6.55175e-14)
(0.000198492 0.000162742 3.48944e-14)
(0.000126528 0.000126538 1.79909e-14)
(8.37154e-05 8.70235e-05 9.08087e-15)
(5.28696e-05 6.1765e-05 4.4499e-15)
(3.16813e-05 3.88892e-05 2.09223e-15)
(1.86014e-05 2.51216e-05 9.41702e-16)
(1.00113e-05 1.411e-05 4.05679e-16)
(5.26574e-06 8.09962e-06 1.58892e-16)
(2.53264e-06 3.99729e-06 6.58957e-17)
(-0.00805824 -0.00765018 0.0367233)
(0.0472369 -0.0728558 0.0883149)
(-0.0745083 0.0664599 -0.0418292)
(0.0615204 0.0515527 -0.0138206)
(-0.0319345 0.0696288 0.0341146)
(-0.0371228 0.0634783 -0.00703228)
(-0.0341192 0.0213141 0.0291573)
(-0.0598894 0.047354 -0.0210215)
(-0.03287 0.0543111 0.00322719)
(-0.0558101 0.0281125 -0.000132301)
(-0.0433248 -0.00723663 -3.40094e-05)
(-0.0200876 -0.0144972 1.68956e-06)
(-0.0145695 -0.0171647 -1.75647e-08)
(0.000243183 -0.0207551 4.59607e-11)
(0.00944278 -0.0135236 7.86704e-12)
(0.0107012 -0.00259382 3.58516e-12)
(0.00463604 0.00205927 1.17022e-12)
(0.00173905 0.0014147 4.72931e-13)
(0.000569776 0.000771272 2.07253e-13)
(0.00041165 0.000346312 1.14105e-13)
(0.000254928 0.00026014 5.95496e-14)
(0.000189759 0.000173012 3.17401e-14)
(0.000121391 0.000134089 1.63648e-14)
(7.97866e-05 9.18029e-05 8.24156e-15)
(5.02351e-05 6.49979e-05 4.03487e-15)
(2.98792e-05 4.08626e-05 1.89175e-15)
(1.75024e-05 2.63686e-05 8.50471e-16)
(9.33098e-06 1.48257e-05 3.65151e-16)
(4.90056e-06 8.52948e-06 1.4263e-16)
(2.32786e-06 4.25068e-06 5.87637e-17)
(0.0399276 0.0344602 -0.0448236)
(-0.10836 -0.0721872 -0.0869844)
(0.0828973 -0.0273768 0.0712503)
(0.00445142 0.00265305 0.00930718)
(0.0618028 0.137112 -0.0664295)
(0.0325187 0.0719049 -0.0281819)
(0.00296527 0.0700267 0.0147264)
(-0.020881 0.0585248 0.018702)
(-0.0558963 0.0346466 -0.0109879)
(-0.0677922 0.0292063 0.00294042)
(-0.056557 -0.017054 -0.000367601)
(-0.0224532 -0.0226231 1.29786e-05)
(-0.0159307 -0.0211056 -1.09313e-07)
(0.000926486 -0.0258293 7.90565e-11)
(0.0123489 -0.0165332 7.97939e-12)
(0.012798 -0.00291063 3.60793e-12)
(0.00491028 0.00269033 1.02883e-12)
(0.00146986 0.00171878 3.86386e-13)
(0.000434219 0.000854609 1.75135e-13)
(0.000359819 0.000357032 1.00311e-13)
(0.000239888 0.000261891 5.32702e-14)
(0.000179964 0.000175715 2.84302e-14)
(0.000115737 0.000134639 1.46714e-14)
(7.54494e-05 9.2313e-05 7.3672e-15)
(4.73669e-05 6.49047e-05 3.60393e-15)
(2.79224e-05 4.07493e-05 1.6835e-15)
(1.63146e-05 2.61648e-05 7.55834e-16)
(8.59901e-06 1.46765e-05 3.2313e-16)
(4.51066e-06 8.37297e-06 1.2583e-16)
(2.12713e-06 4.12938e-06 5.18112e-17)
(0.0562359 0.0475972 0.0987599)
(0.00625335 0.00568144 0.151746)