/*--------------------------------*- C++ -*----------------------------------*\
| =========                 |                                                 |
| \\      /  F ield         | OpenFOAM: The Open Source CFD Toolbox           |
|  \\    /   O peration     | Version:  2.4.0                                 |
|   \\  /    A nd           | Web:      www.OpenFOAM.org                      |
|    \\/     M anipulation  |                                                 |
\*---------------------------------------------------------------------------*/
FoamFile
{
    version     2.0;
    format      ascii;
    class       volVectorField;
    location    "0.033";
    object      U;
}
// * * * * * * * * * * * * * * * * * * * * * * * * * * * * * * * * * * * * * //

dimensions      [0 1 -1 0 0 0 0];

internalField   nonuniform List<vector> 
3600
(
(-0.000862567 4.7205e-05 0)
(-0.000576409 -4.31345e-05 0)
(0.000182858 -4.59961e-05 0)
(-0.000157249 -2.34813e-05 0)
(0.000393184 -6.83883e-05 0)
(0.000297791 3.20056e-05 0)
(4.99572e-05 1.0013e-05 0)
(-0.000261385 0.000137765 0)
(-0.00158809 0.000239867 0)
(-0.00345836 0.000463719 0)
(-0.00638134 0.000751177 0)
(-0.0104612 0.00114903 0)
(-0.0159259 0.00168843 0)
(-0.0230129 0.00241567 0)
(-0.0320107 0.00339957 0)
(-0.0432852 0.00474368 0)
(-0.0573263 0.00660814 0)
(-0.0748166 0.00923588 0)
(-0.096719 0.0129767 0)
(-0.124385 0.0182953 0)
(-0.15953 0.0257923 0)
(-0.204317 0.0362528 0)
(-0.263615 0.0490874 0)
(-0.339012 0.0528687 0)
(-0.387077 0.0140593 0)
(-0.333947 -0.101355 0)
(-0.202138 -0.230169 0)
(-0.0831008 -0.227777 0)
(-0.0195045 -0.0886482 0)
(-0.00305006 0.0457838 0)
(-0.000951995 0.000171392 0)
(-0.000784586 -8.90161e-05 0)
(-0.000123114 -0.000100719 0)
(-0.000613715 2.69081e-05 0)
(-0.000179688 -0.000153303 0)
(-0.000423357 0.000194198 0)
(-0.000820304 6.74283e-05 0)
(-0.00126921 0.000541053 0)
(-0.0027512 0.000837076 0)
(-0.00476116 0.00154527 0)
(-0.0078402 0.00243759 0)
(-0.0120514 0.00366556 0)
(-0.017607 0.0053122 0)
(-0.0246989 0.00750315 0)
(-0.0335395 0.0104214 0)
(-0.044366 0.0143361 0)
(-0.0574588 0.0196642 0)
(-0.0731847 0.0270615 0)
(-0.0920828 0.0375601 0)
(-0.115007 0.0527484 0)
(-0.142984 0.074896 0)
(-0.177107 0.105742 0)
(-0.223521 0.13787 0)
(-0.284326 0.131503 0)
(-0.320461 0.00721439 0)
(-0.281095 -0.257418 0)
(-0.24391 -0.452602 0)
(-0.241655 -0.336498 0)
(-0.184089 -0.0692996 0)
(-0.0408956 0.0267959 0)
(-0.000983717 0.000307043 0)
(-0.000821848 -0.000131061 0)
(-0.000112705 -0.000166868 0)
(-0.000637184 0.000111139 0)
(-0.000166351 -0.000253561 0)
(-0.000414495 0.000372509 0)
(-0.000772192 6.74265e-05 0)
(-0.00113215 0.000953008 0)
(-0.00254593 0.00138312 0)
(-0.00437726 0.00257859 0)
(-0.00726585 0.0040362 0)
(-0.0111737 0.00604253 0)
(-0.0162941 0.00870913 0)
(-0.0227465 0.0122127 0)
(-0.0306308 0.0167999 0)
(-0.0399927 0.0228073 0)
(-0.0507723 0.0307406 0)
(-0.0627221 0.0413802 0)
(-0.0752859 0.055957 0)
(-0.0874987 0.076455 0)
(-0.0979143 0.105855 0)
(-0.104257 0.14609 0)
(-0.104148 0.186791 0)
(-0.108192 0.180499 0)
(-0.123702 0.0471058 0)
(-0.126816 -0.217102 0)
(-0.185355 -0.40475 0)
(-0.195785 -0.499861 0)
(-0.148434 -0.581662 0)
(-0.0108799 -0.781834 0)
(-0.00102864 0.000444702 0)
(-0.000871599 -0.000173148 0)
(-8.09429e-05 -0.000238153 0)
(-0.000653537 0.000187973 0)
(-0.000120914 -0.00035955 0)
(-0.000372602 0.000540827 0)
(-0.000655984 4.88321e-05 0)
(-0.000874922 0.00134441 0)
(-0.00218064 0.00185579 0)
(-0.00372475 0.00353987 0)
(-0.00632452 0.0054977 0)
(-0.0097703 0.00820292 0)
(-0.0142512 0.011759 0)
(-0.0197994 0.0163566 0)
(-0.0263988 0.0222438 0)
(-0.0339111 0.0296861 0)
(-0.0419687 0.0390067 0)
(-0.0498321 0.0505678 0)
(-0.0561307 0.0647493 0)
(-0.058473 0.0819682 0)
(-0.053153 0.102354 0)
(-0.0349459 0.124665 0)
(-0.00121908 0.142747 0)
(0.0527962 0.136129 0)
(0.0818674 0.0709916 0)
(0.123638 -0.0619555 0)
(0.0794487 -0.190425 0)
(0.10894 -0.465213 0)
(0.0893992 -0.559381 0)
(0.119162 -0.639033 0)
(-0.00108921 0.000588114 0)
(-0.0009399 -0.000218757 0)
(-3.60545e-05 -0.000316109 0)
(-0.000675394 0.000265251 0)
(-6.1757e-05 -0.000473671 0)
(-0.000323701 0.000694146 0)
(-0.000502474 -5.67252e-06 0)
(-0.000543369 0.00169017 0)
(-0.00171056 0.00222439 0)
(-0.00287672 0.00438897 0)
(-0.00512561 0.00675087 0)
(-0.00799145 0.0100558 0)
(-0.0117019 0.0143425 0)
(-0.0162022 0.0197892 0)
(-0.0214118 0.0266184 0)
(-0.0271445 0.0349549 0)
(-0.033033 0.044857 0)
(-0.0384713 0.056108 0)
(-0.0424137 0.067979 0)
(-0.0434215 0.0789925 0)
(-0.0400941 0.0866507 0)
(-0.031148 0.0871217 0)
(-0.0142626 0.0734343 0)
(0.00724877 0.0372163 0)
(0.0422925 -0.047249 0)
(0.0562873 -0.193489 0)
(0.0954212 -0.244365 0)
(0.108345 -0.473884 0)
(0.0494771 -0.454926 0)
(0.0655265 -0.239649 0)
(-0.00116632 0.000739752 0)
(-0.001028 -0.000268491 0)
(2.22047e-05 -0.000401463 0)
(-0.00070345 0.000342797 0)
(8.54105e-06 -0.000597043 0)
(-0.000271829 0.000827235 0)
(-0.000317973 -9.52369e-05 0)
(-0.000150798 0.00196579 0)
(-0.00114841 0.00248354 0)
(-0.00186103 0.00510461 0)
(-0.00371962 0.00775251 0)
(-0.00590882 0.0115574 0)
(-0.00876575 0.0164073 0)
(-0.0121326 0.0224453 0)
(-0.0159099 0.029887 0)
(-0.0199416 0.0386829 0)
(-0.0240297 0.048722 0)
(-0.0281086 0.0595344 0)
(-0.0322792 0.0700469 0)
(-0.0368828 0.0786824 0)
(-0.0424749 0.0829869 0)
(-0.0499082 0.0796381 0)
(-0.0579371 0.0627383 0)
(-0.072606 0.0212186 0)
(-0.0587832 -0.0674369 0)
(-0.0736119 -0.231719 0)
(-0.000721602 -0.352509 0)
(-0.0272715 -0.44252 0)
(-0.065574 -0.492436 0)
(-0.0253585 -0.547855 0)
(-0.00126118 0.00090258 0)
(-0.00113748 -0.000325826 0)
(9.43859e-05 -0.000495734 0)
(-0.000737856 0.000420299 0)
(8.71966e-05 -0.000730883 0)
(-0.000220449 0.000936973 0)
(-0.000112108 -0.000223349 0)
(0.000290207 0.00214857 0)
(-0.000505718 0.00264049 0)
(-0.000712312 0.00564934 0)
(-0.00215741 0.00847758 0)
(-0.00359146 0.0126779 0)
(-0.00556932 0.0179175 0)
(-0.00778451 0.0243135 0)
(-0.0101826 0.0321672 0)
(-0.0127082 0.0413593 0)
(-0.0153388 0.0519575 0)
(-0.0185117 0.0637592 0)
(-0.0228164 0.0760184 0)
(-0.029155 0.087783 0)
(-0.0390557 0.0974354 0)
(-0.055766 0.103131 0)
(-0.0816853 0.0988958 0)
(-0.11184 0.0589982 0)
(-0.108366 -0.0750079 0)
(-0.0855011 -0.292671 0)
(-0.0466705 -0.40016 0)
(-0.0447805 -0.314175 0)
(-0.00241044 -0.473699 0)
(0.00219538 -0.459839 0)
(-0.00137572 0.00107989 0)
(-0.00127021 -0.000392159 0)
(0.000181511 -0.000600928 0)
(-0.000779023 0.000497896 0)
(0.000171265 -0.000878469 0)
(-0.000173704 0.00101972 0)
(0.000103215 -0.000413818 0)
(0.000771661 0.00225231 0)
(0.000199003 0.0026898 0)
(0.000531251 0.00596948 0)
(-0.000483959 0.00893767 0)
(-0.00111325 0.0133908 0)
(-0.00221748 0.0188394 0)
(-0.00323895 0.025345 0)
(-0.00414792 0.03331 0)
(-0.00483768 0.0424468 0)
(-0.00514715 0.0529168 0)
(-0.00565904 0.0648839 0)
(-0.00719285 0.0779312 0)
(-0.0116091 0.0942792 0)
(-0.0210542 0.113394 0)
(-0.0376453 0.13661 0)
(-0.0670959 0.144052 0)
(-0.0984242 0.0846389 0)
(-0.076675 -0.133666 0)
(-0.0737404 -0.350756 0)
(-0.0741347 -0.455509 0)
(-0.0753215 -0.512791 0)
(0.0236714 -0.626702 0)
(-0.0354724 -0.419919 0)
(-0.00151194 0.00127522 0)
(-0.0014287 -0.000472334 0)
(0.000284454 -0.000718209 0)
(-0.000827443 0.000576218 0)
(0.000257081 -0.00104016 0)
(-0.000140857 0.0010735 0)
(0.000324527 -0.00068387 0)
(0.0012862 0.00230384 0)
(0.000928593 0.00258079 0)
(0.00184465 0.00607936 0)
(0.00125997 0.00912556 0)
(0.00143577 0.0136697 0)
(0.00115455 0.0191805 0)
(0.0012579 0.025595 0)
(0.00165093 0.0334902 0)
(0.00239388 0.042506 0)
(0.00392222 0.0533066 0)
(0.00526308 0.0666419 0)
(0.0077957 0.0825856 0)
(0.0100617 0.103629 0)
(0.0152038 0.129587 0)
(0.0156293 0.159686 0)
(0.023401 0.172282 0)
(0.0130148 0.0962144 0)
(0.0380132 -0.130249 0)
(0.0140984 -0.307805 0)
(-0.000805415 -0.441998 0)
(-0.0128481 -0.62572 0)
(-0.011175 -0.588617 0)
(-0.0344079 -0.572418 0)
(-0.00167318 0.0014924 0)
(-0.00161557 -0.00056831 0)
(0.000405292 -0.000848232 0)
(-0.000883379 0.000656538 0)
(0.000341056 -0.00121719 0)
(-0.000130763 0.00110844 0)
(0.000549519 -0.00103906 0)
(0.00181264 0.00230481 0)
(0.00166259 0.00227976 0)
(0.00320563 0.00601858 0)
(0.00301073 0.00900903 0)
(0.00398953 0.013539 0)
(0.00448039 0.0189685 0)
(0.00568886 0.025055 0)
(0.00746955 0.0325306 0)
(0.0101625 0.0406436 0)
(0.0148103 0.0501173 0)
(0.0204709 0.0614755 0)
(0.0296081 0.0733316 0)
(0.0415233 0.0905103 0)
(0.0579966 0.109199 0)
(0.0856254 0.137035 0)
(0.11967 0.145677 0)
(0.127047 0.0815917 0)
(0.149821 -0.0860824 0)
(0.142113 -0.250272 0)
(0.0903674 -0.322081 0)
(0.0910479 -0.470934 0)
(-0.0163679 -0.500253 0)
(0.0273194 -0.578628 0)
(-0.00186239 0.00173565 0)
(-0.00183406 -0.000684305 0)
(0.000545532 -0.000992427 0)
(-0.000947501 0.000741916 0)
(0.000421871 -0.00140927 0)
(-0.000154148 0.00113639 0)
(0.000772511 -0.00149719 0)
(0.00233361 0.00225253 0)
(0.00237989 0.00178884 0)
(0.00458661 0.00578371 0)
(0.00472412 0.00859057 0)
(0.00648825 0.0130528 0)
(0.00761779 0.0182801 0)
(0.00974352 0.0238506 0)
(0.0124327 0.0307549 0)
(0.0160661 0.0375888 0)
(0.022157 0.0456475 0)
(0.0282327 0.0544592 0)
(0.040633 0.0618263 0)
(0.0519262 0.0731954 0)
(0.0789244 0.0792229 0)
(0.0932359 0.0843976 0)
(0.133564 0.105385 0)
(0.151873 0.0379196 0)
(0.174974 -0.0730075 0)
(0.174388 -0.206392 0)
(0.118519 -0.253887 0)
(0.105576 -0.294813 0)
(0.0191414 -0.401216 0)
(0.0173855 -0.457476 0)
(-0.00208429 0.0020097 0)
(-0.00208774 -0.000824422 0)
(0.000708691 -0.00115717 0)
(-0.00101977 0.000837718 0)
(0.000498276 -0.00161046 0)
(-0.00022525 0.00115659 0)
(0.00098749 -0.00206598 0)
(0.00283464 0.00215039 0)
(0.00305937 0.001105 0)
(0.00596555 0.00537952 0)
(0.00636346 0.00788895 0)
(0.00890006 0.0122335 0)
(0.0105252 0.0171848 0)
(0.0134776 0.0220529 0)
(0.0168399 0.0282623 0)
(0.0214048 0.0336036 0)
(0.0286126 0.0396526 0)
(0.0338671 0.0470162 0)
(0.0469394 0.0494948 0)
(0.0561016 0.0545976 0)
(0.0653042 0.0528713 0)
(0.0953001 0.0481046 0)
(0.105287 0.0467557 0)
(0.117057 -0.0288806 0)
(0.135606 -0.090627 0)
(0.102361 -0.150866 0)
(0.0631789 -0.200198 0)
(0.0501412 -0.247511 0)
(0.024267 -0.312596 0)
(-0.00325826 -0.394991 0)
(-0.0023433 0.0023199 0)
(-0.0023818 -0.000993295 0)
(0.000898276 -0.00134695 0)
(-0.00109827 0.000949564 0)
(0.000567355 -0.00181208 0)
(-0.000358384 0.00116152 0)
(0.0011903 -0.00274397 0)
(0.00329996 0.00200665 0)
(0.00368043 0.000233283 0)
(0.00732398 0.0048234 0)
(0.00789285 0.00696884 0)
(0.0111952 0.0112059 0)
(0.0131063 0.0159294 0)
(0.0166925 0.0201133 0)
(0.0203324 0.0259338 0)
(0.0249021 0.0290715 0)
(0.0336616 0.0337541 0)
(0.0369593 0.0389281 0)
(0.0504903 0.0302175 0)
(0.0599593 0.0533393 0)
(0.0596061 0.0140852 0)
(0.0879617 0.0191547 0)
(0.0764142 0.0711252 0)
(0.0864346 -0.0430069 0)
(0.0810032 -0.0246741 0)
(0.0599583 -0.0831042 0)
(0.0385963 -0.163097 0)
(0.0372679 -0.237105 0)
(0.0293272 -0.263911 0)
(0.0139493 -0.343321 0)
(-0.00264573 0.00267241 0)
(-0.0027215 -0.00119823 0)
(0.00111991 -0.00156357 0)
(-0.00118012 0.00108308 0)
(0.000624385 -0.0020058 0)
(-0.000569232 0.00114635 0)
(0.00137968 -0.00353512 0)
(0.00371661 0.00183343 0)
(0.00422507 -0.000853982 0)
(0.0086646 0.00398128 0)
(0.00932224 0.00530257 0)
(0.0134257 0.0091718 0)
(0.0154776 0.0132368 0)
(0.0197231 0.0159946 0)
(0.0228708 0.0209508 0)
(0.0274666 0.0226708 0)
(0.0366778 0.0252816 0)
(0.0313488 0.0330302 0)
(0.0634521 0.0192852 0)
(0.0236155 0.0534292 0)
(0.100438 -0.00305188 0)
(0.020204 0.0516751 0)
(0.102687 0.0296557 0)
(0.068342 -0.0207335 0)
(0.06549 -0.00755215 0)
(0.0724767 -0.0708524 0)
(0.0760929 -0.0898428 0)
(0.062954 -0.204539 0)
(0.0598824 -0.170583 0)
(0.0268659 -0.154322 0)
(-0.00299818 0.00307427 0)
(-0.00311336 -0.00144284 0)
(0.00137959 -0.00181285 0)
(-0.00126122 0.00124503 0)
(0.000663664 -0.00218388 0)
(-0.000875057 0.00111126 0)
(0.00155689 -0.0044445 0)
(0.00406056 0.00165019 0)
(0.00461868 -0.00211331 0)
(0.00975997 0.00396111 0)
(0.0103305 0.00554587 0)
(0.0152138 0.0100425 0)
(0.0169156 0.0147311 0)
(0.0216303 0.0178999 0)
(0.0247982 0.023439 0)
(0.0285403 0.0222093 0)
(0.0414218 0.0297395 0)
(0.0318963 0.0221918 0)
(0.0627534 0.0303535 0)
(0.0355475 0.0271661 0)
(0.069031 0.0119218 0)
(0.0239299 0.0321 0)
(0.10017 -0.0100883 0)
(0.0282054 0.0165992 0)
(0.0448841 -0.00562651 0)
(0.0325562 -0.140077 0)
(0.101268 -0.0981937 0)
(0.0680277 -0.221328 0)
(0.0531986 -0.138019 0)
(0.0317181 -0.000232009 0)
(-0.00340864 0.00353365 0)
(-0.00356493 -0.00173499 0)
(0.00168505 -0.00210624 0)
(-0.00133585 0.00145027 0)
(0.00067871 -0.00233772 0)
(-0.00129479 0.00105488 0)
(0.00172705 -0.00547069 0)
(0.0043366 0.00143194 0)
(0.00525461 -0.00373598 0)
(0.0116877 0.000968879 0)
(0.0121426 0.000402071 0)
(0.0180054 0.00336594 0)
(0.0197777 0.00639968 0)
(0.0250421 0.00668084 0)
(0.0258844 0.0120511 0)
(0.0321394 0.00814586 0)
(0.0373689 0.0154464 0)
(0.0307029 0.0145151 0)
(0.0691632 0.00919264 0)
(0.0154154 0.0440325 0)
(0.0453828 0.0160433 0)
(0.0655642 -0.0195531 0)
(0.110545 0.0633277 0)
(0.025129 0.0408563 0)
(0.0381007 0.00194076 0)
(0.0514224 -0.253679 0)
(0.0721652 -0.177819 0)
(0.0502706 -0.121654 0)
(-0.00268231 -0.0454266 0)
(0.0325134 0.175756 0)
(-0.00388618 0.00405998 0)
(-0.00408617 -0.00208435 0)
(0.00204703 -0.00245827 0)
(-0.00139583 0.00171748 0)
(0.000659756 -0.00246054 0)
(-0.00184724 0.000984588 0)
(0.00188435 -0.00661847 0)
(0.00445281 0.00143983 0)
(0.00463424 -0.00530802 0)
(0.0113187 0.0035058 0)
(0.0115516 0.00367348 0)
(0.0182776 0.00961838 0)
(0.01879 0.0152028 0)
(0.0252857 0.0185685 0)
(0.0256329 0.0230816 0)
(0.0316067 0.0187454 0)
(0.0459562 0.032823 0)
(0.0295403 -0.00200495 0)
(0.0957611 0.0441663 0)
(0.0162167 0.0591458 0)
(0.112418 -0.0496674 0)
(0.0800443 -0.0882453 0)
(0.180443 0.0704668 0)
(0.133572 0.112337 0)
(0.0668063 -0.0350347 0)
(0.0814004 -0.196509 0)
(-0.0142249 -0.0808892 0)
(-0.00263276 0.000961251 0)
(-0.0192439 -0.0565664 0)
(0.0197188 0.108283 0)
(-0.00444175 0.00466428 0)
(-0.00468889 -0.00250492 0)
(0.00247923 -0.00287995 0)
(-0.00143126 0.00206178 0)
(0.000597601 -0.00254483 0)
(-0.00255445 0.000919625 0)
(0.00211401 -0.00791795 0)
(0.00456024 0.00079462 0)
(0.00625127 -0.00757063 0)
(0.0151488 -0.00247913 0)
(0.0149789 -0.00452947 0)
(0.0236628 -0.00334462 0)
(0.0246217 -0.00165412 0)
(0.0298451 -0.00373157 0)
(0.0271408 0.00352491 0)
(0.0377121 -0.0106502 0)
(0.030226 0.00920004 0)
(0.0576495 -0.03104 0)
(0.0273296 0.0124719 0)
(0.0982485 0.0297526 0)
(0.110479 -0.081028 0)
(0.088211 -0.116109 0)
(0.112881 -0.0152951 0)
(0.0546134 0.255916 0)
(0.114352 0.108307 0)
(0.0933978 -0.0654342 0)
(0.0342091 0.000343319 0)
(0.0285377 -0.122204 0)
(-0.0203864 -0.111821 0)
(0.0127549 0.127488 0)
(-0.00508832 0.00535949 0)
(-0.00538695 -0.00300802 0)
(0.00299835 -0.00338533 0)
(-0.00143022 0.00250028 0)
(0.000483576 -0.00257315 0)
(-0.00344618 0.000915355 0)
(0.00213084 -0.00937759 0)
(0.00433427 0.00185713 0)
(0.00367877 -0.00959082 0)
(0.0123509 0.00209339 0)
(0.0112994 -0.000160386 0)
(0.0197859 0.00787412 0)
(0.0186146 0.0170345 0)
(0.0280578 0.0224573 0)
(0.0204513 0.0225179 0)
(0.0334943 0.0211334 0)
(0.0268969 0.0177126 0)
(0.0444225 0.0131144 0)
(0.00409342 -0.00443705 0)
(0.0682158 -0.00928675 0)
(0.0533227 -0.0558158 0)
(0.0156576 -0.0289582 0)
(-0.0144825 0.125783 0)
(0.0150805 0.0901106 0)
(0.0922081 -0.0778998 0)
(-0.0223058 -0.0554539 0)
(-0.00110144 0.126142 0)
(-0.0111085 0.120342 0)
(-0.0548849 -0.0133634 0)
(0.0104715 0.196969 0)
(-0.00584047 0.0061608 0)
(-0.00619708 -0.00360757 0)
(0.00362393 -0.0039906 0)
(-0.00137629 0.003053 0)
(0.000318117 -0.00252453 0)
(-0.0045529 0.000721153 0)
(0.00274656 -0.01103 0)
(0.00420572 6.20215e-05 0)
(0.00659551 -0.0124581 0)
(0.0186355 -0.00570031 0)
(0.017592 -0.0109183 0)
(0.0319142 -0.00861018 0)
(0.0324931 -0.0101902 0)
(0.0336355 -0.0119718 0)
(0.0281952 -0.0036385 0)
(0.034991 -0.020517 0)
(0.0226438 -0.0013076 0)
(0.0334581 -0.0154489 0)
(0.00918357 -0.0153265 0)
(0.00465729 -0.0259739 0)
(-0.0402193 -0.0473533 0)
(-0.080792 -0.0317153 0)
(-0.0557998 -0.0165824 0)
(-0.0627685 0.0636444 0)
(-0.0932565 0.185933 0)
(-0.0948054 0.074083 0)
(-0.116338 -0.0112458 0)
(-0.0279287 -0.0339097 0)
(-0.0404605 -0.12785 0)
(-0.000876194 -0.099003 0)
(-0.00671531 0.00708618 0)
(-0.00713883 -0.00433344 0)
(0.00437937 -0.00471125 0)
(-0.00125002 0.00374939 0)
(2.23863e-05 -0.00236023 0)
(-0.00591207 0.00128222 0)
(0.00231747 -0.01285 0)
(0.00359788 0.00312929 0)
(0.00190095 -0.0151405 0)
(0.0125628 0.000974119 0)
(0.010104 -0.00475699 0)
(0.0202483 0.00295095 0)
(0.017012 0.0218095 0)
(0.0306493 0.0323464 0)
(0.0133477 0.0238868 0)
(0.0360889 0.0317962 0)
(0.0322173 0.0173119 0)
(0.0321619 0.0361891 0)
(0.0252799 0.0232693 0)
(0.0243946 0.0654367 0)
(0.0156519 0.045545 0)
(-0.0223513 0.0257286 0)
(-0.0104226 0.0882875 0)
(-0.0402923 0.131515 0)
(0.0451262 0.0386311 0)
(0.0380422 -0.052533 0)
(0.0540265 0.0388186 0)
(0.0494554 -0.12187 0)
(0.0287873 -0.0724906 0)
(0.00422449 -0.0648185 0)
(-0.00773473 0.00815536 0)
(-0.00823482 -0.00519705 0)
(0.00529607 -0.00558655 0)
(-0.00102363 0.00460135 0)
(-0.000167572 -0.00206105 0)
(-0.00758514 7.24518e-05 0)
(0.00380566 -0.0148935 0)
(0.00310182 -0.000624177 0)
(0.00601161 -0.0184654 0)
(0.0222627 -0.00964768 0)
(0.0180577 -0.0201277 0)
(0.0436166 -0.0145536 0)
(0.0485142 -0.0202532 0)
(0.0357699 -0.018359 0)
(0.0356704 -0.00984678 0)
(0.0316976 -0.0419875 0)
(0.0290459 0.00192287 0)
(0.040584 -0.0146806 0)
(0.038873 -0.013891 0)
(0.0126396 -0.0165034 0)
(-0.00711356 -0.000418888 0)
(-0.0550264 0.00176349 0)
(-0.0441472 -0.00485264 0)
(0.00308249 -0.0390615 0)
(0.060019 0.0199731 0)
(0.0346322 0.0728852 0)
(0.0531543 -0.0290516 0)
(0.127501 0.046997 0)
(0.025395 0.0218998 0)
(0.0805356 0.123704 0)
(-0.0089198 0.00940131 0)
(-0.00951574 -0.00624202 0)
(0.00640281 -0.00657499 0)
(-0.000665168 0.00569814 0)
(-0.000987519 -0.00151817 0)
(-0.00956205 0.00210786 0)
(0.00264847 -0.0170459 0)
(0.00220891 0.00584589 0)
(-0.000998235 -0.0221465 0)
(0.0111212 0.000950513 0)
(0.00772341 -0.012121 0)
(0.0210629 -0.00644198 0)
(0.0157659 0.0316809 0)
(0.0318691 0.0524207 0)
(-0.00445784 0.0243704 0)
(0.0462376 0.0459616 0)
(0.0495036 0.00530435 0)
(0.0180618 0.0415743 0)
(0.0358843 0.0483123 0)
(0.0226309 0.13645 0)
(0.056227 0.143865 0)
(0.0137782 0.120836 0)
(-0.0726578 -0.0224373 0)
(-0.120912 -0.0658248 0)
(-0.198939 0.0363847 0)
(-0.0364721 -0.123885 0)
(-0.0966782 -0.159649 0)
(0.110998 -0.0552348 0)
(-0.0527683 0.0943621 0)
(0.0795467 0.074684 0)
(-0.0103036 0.01081 0)
(-0.0110025 -0.00748395 0)
(0.00775663 -0.00795399 0)
(-0.000133239 0.00691031 0)
(-0.000925549 -0.000888788 0)
(-0.012043 -0.00124199 0)
(0.00565689 -0.0196153 0)
(0.00106469 -0.00144232 0)
(0.00425455 -0.0250972 0)
(0.025413 -0.0140891 0)
(0.0130523 -0.0330096 0)
(0.0586788 -0.0229045 0)
(0.0806237 -0.0317289 0)
(0.0320164 -0.018126 0)
(0.055209 -0.0198372 0)
(0.0210528 -0.0919653 0)
(0.0329234 0.0215295 0)
(0.0710937 -0.00292378 0)
(0.0672166 -0.0262751 0)
(0.0330857 -0.0521701 0)
(0.226967 -0.0185056 0)
(0.0735858 0.175686 0)
(0.0340573 0.151809 0)
(-0.0768658 0.167321 0)
(-0.133399 -0.0160104 0)
(-0.0661296 -0.271554 0)
(-0.0686608 -0.255766 0)
(-0.0255749 -0.161039 0)
(0.118964 0.15346 0)
(0.0421545 -0.318677 0)
(-0.0119038 0.0125488 0)
(-0.012775 -0.0091053 0)
(0.00936882 -0.00912487 0)
(0.000630827 0.00878104 0)
(-0.0029238 0.000487954 0)
(-0.0148198 0.00297682 0)
(0.00338332 -0.0221445 0)
(0.000539648 0.0108819 0)
(-0.00513192 -0.0309455 0)
(0.00663057 0.00410665 0)
(0.0027346 -0.0255569 0)
(0.0273571 -0.0294185 0)
(0.0185618 0.0519332 0)
(0.0288508 0.0896045 0)
(-0.0439541 0.0219079 0)
(0.0736133 0.079367 0)
(0.0686228 -0.0371019 0)
(0.0304906 0.0224874 0)
(0.164043 0.0818285 0)
(0.00983646 -0.0972192 0)
(0.295798 0.148383 0)
(0.0778626 0.383754 0)
(-0.245232 0.244496 0)
(-0.184623 0.195061 0)
(-0.14266 0.117367 0)
(-0.0627861 -0.46438 0)
(-0.120831 -0.132438 0)
(-0.0529268 -0.559648 0)
(-0.00809024 0.0639626 0)
(0.0573391 -0.268611 0)
(-0.0138235 0.0145661 0)
(-0.0147766 -0.0103495 0)
(0.0114343 -0.0115664 0)
(0.00167472 0.0102335 0)
(-0.00223738 0.00148367 0)
(-0.0185423 -0.00298767 0)
(0.00907471 -0.0246488 0)
(-0.00222992 -0.00167559 0)
(0.00183099 -0.0290776 0)
(0.0260568 -0.0196446 0)
(-0.0056206 -0.0525663 0)
(0.072874 -0.036397 0)
(0.149615 -0.0443902 0)
(0.00745872 0.00304125 0)
(0.0813445 -0.0458496 0)
(0.00716323 -0.184674 0)
(0.141414 0.03716 0)
(0.0672541 -0.079798 0)
(-0.10321 0.0297138 0)
(0.230207 -0.240535 0)
(0.0568327 -0.118542 0)
(0.271185 0.847472 0)
(-0.313735 0.582774 0)
(0.271879 -0.375686 0)
(0.00678211 0.073835 0)
(0.227277 -0.257411 0)
(-0.0901317 -0.51283 0)
(-0.238813 -0.515719 0)
(-0.103192 -0.162846 0)
(0.0737043 -0.187327 0)
(-0.0158926 0.015821 0)
(-0.0173331 -0.0143187 0)
(0.0136127 -0.0126348 0)
(0.00314841 0.0135938 0)
(-0.00617452 0.00453168 0)
(-0.0220814 0.00257477 0)
(0.00499595 -0.029844 0)
(0.00103167 0.0189594 0)
(-0.00908705 -0.0472177 0)
(-0.0050325 0.0157082 0)
(-0.00178458 -0.0481401 0)
(0.0284251 -0.0997774 0)
(0.0383261 0.0984343 0)
(0.0222443 0.160213 0)
(-0.104885 -0.00196586 0)
(0.167661 0.068999 0)
(0.123542 -0.0698011 0)
(-0.0307245 0.232518 0)
(0.154441 -0.13206 0)
(0.112778 -0.139909 0)
(-0.376505 0.102987 0)
(-0.279467 1.19206 0)
(-0.218306 0.434847 0)
(0.158112 -0.356205 0)
(0.171785 0.256712 0)
(0.348043 -0.363938 0)
(0.0965417 0.787037 0)
(0.2098 -0.0735102 0)
(0.0637458 -1.10305 0)
(0.303627 -0.664312 0)
(-0.01829 0.0212291 0)
(-0.0197544 -0.0126615 0)
(0.0171753 -0.017055 0)
(0.00501873 0.0153493 0)
(-0.00485718 0.00594014 0)
(-0.0284395 -0.00599875 0)
(0.0155126 -0.0297794 0)
(-0.00986604 -0.000412187 0)
(0.0143902 -0.0222017 0)
(0.0184973 -0.024886 0)
(-0.0428067 -0.0696952 0)
(-0.101282 -0.0328981 0)
(0.213082 -0.0632428 0)
(0.0246689 0.065121 0)
(0.319484 -0.130564 0)
(0.130626 -0.376185 0)
(0.290934 0.132236 0)
(-0.176351 -0.0327387 0)
(0.363059 -0.185232 0)
(-0.292649 0.231414 0)
(0.0478558 1.24771 0)
(-0.281564 -0.0999729 0)
(-0.215393 0.0348503 0)
(-0.010765 -1.55315 0)
(0.177996 -0.00914974 0)
(0.215261 -0.172558 0)
(0.00919367 0.0214406 0)
(0.405228 -0.399697 0)
(0.303844 -0.999229 0)
(0.140355 -0.0835031 0)
(-0.0305398 0.018983 0)
(-0.0227458 -0.0243732 0)
(0.0194558 -0.0175163 0)
(0.00755166 0.0207714 0)
(-0.0117018 0.0108591 0)
(-0.0321536 0.00105878 0)
(0.0107516 -0.0396447 0)
(0.013294 0.022262 0)
(0.0481012 -0.0688556 0)
(0.0121763 0.053474 0)
(0.0113218 -0.0013363 0)
(-0.394898 -0.274971 0)
(0.242972 0.0416632 0)
(-0.18245 0.143909 0)
(0.365082 -0.133001 0)
(0.210297 0.143541 0)
(-0.0946468 0.286776 0)
(0.303756 0.0362525 0)
(-0.118241 0.142778 0)
(0.130882 0.0956236 0)
(0.385288 -0.466729 0)
(1.08799 0.861227 0)
(0.961945 0.159564 0)
(0.181634 -0.498858 0)
(0.0552143 -0.444003 0)
(0.307441 0.0954987 0)
(0.390053 0.0299092 0)
(0.339554 -0.385345 0)
(0.12148 -0.247835 0)
(0.0864918 -0.193171 0)
(0.104217 0.0316465 0)
(-0.0156916 -0.0152841 0)
(0.0325778 -0.02429 0)
(0.0128457 0.0243802 0)
(-0.00710162 0.0150917 0)
(-0.0588642 -0.0140621 0)
(0.0455827 -0.0438868 0)
(-0.175972 -0.00994159 0)
(0.0445047 -0.0173196 0)
(-0.602638 -0.0203806 0)
(0.456044 0.0909907 0)
(-0.156017 -0.0622501 0)
(-0.0293329 -0.160676 0)
(-0.238047 -0.0489292 0)
(-0.265322 -0.356413 0)
(-0.353949 -0.0185925 0)
(0.126966 0.00213245 0)
(-0.0685838 0.00227882 0)
(0.0183827 -0.0719986 0)
(0.160375 -0.0629301 0)
(0.0193091 -0.215367 0)
(-0.159832 0.614802 0)
(0.400452 1.43364 0)
(0.756058 -0.113417 0)
(0.210685 -0.470189 0)
(0.339478 -0.368314 0)
(0.241021 0.0380504 0)
(0.176844 0.116308 0)
(0.128667 -0.16131 0)
(0.0310146 -0.319128 0)
(-0.0513007 0.0195099 0)
(-0.00945714 -0.146224 0)
(0.0686781 -0.26744 0)
(0.203152 -0.254355 0)
(0.343215 -0.111355 0)
(0.399637 0.0132774 0)
(0.34966 0.0555454 0)
(0.270692 0.0518358 0)
(0.208721 0.0381406 0)
(0.162045 0.0269413 0)
(0.125564 0.0189691 0)
(0.0970171 0.013352 0)
(0.0745937 0.00941897 0)
(0.0568636 0.00666755 0)
(0.0427973 0.00472653 0)
(0.0316545 0.0033389 0)
(0.0228962 0.00233425 0)
(0.016113 0.00160212 0)
(0.0109828 0.00106691 0)
(0.00723437 0.000680607 0)
(0.00464158 0.000401682 0)
(0.0029931 0.000211759 0)
(0.00206488 8.97105e-05 0)
(0.00163651 1.94493e-05 0)
(0.00150673 -1.96403e-06 0)
(0.00128265 -1.10523e-06 0)
(0.00159531 -2.86598e-06 0)
(0.000615969 5.67732e-05 0)
(0.000651445 -4.35575e-05 0)
(0.00109416 6.90524e-05 0)
(0.0358424 -0.0180722 0)
(0.18919 -0.134533 0)
(0.243228 -0.387612 0)
(0.241262 -0.486936 0)
(0.281658 -0.271442 0)
(0.321934 0.00669843 0)
(0.285863 0.135872 0)
(0.225249 0.14282 0)
(0.178553 0.109607 0)
(0.143825 0.0775505 0)
(0.115215 0.0544413 0)
(0.0917825 0.0385435 0)
(0.0725703 0.0275398 0)
(0.0567302 0.0198002 0)
(0.0436943 0.0142551 0)
(0.0330561 0.0102163 0)
(0.0244958 0.00723976 0)
(0.017738 0.00503729 0)
(0.0125412 0.00340543 0)
(0.00867893 0.00221514 0)
(0.00595314 0.00134665 0)
(0.00416812 0.000751995 0)
(0.00310186 0.000366272 0)
(0.0025388 0.000140719 0)
(0.00227272 6.68174e-05 0)
(0.00190319 6.59576e-05 0)
(0.00208745 4.41862e-05 0)
(0.000941433 0.00022632 0)
(0.000856412 -9.39543e-05 0)
(0.0011919 0.00023867 0)
(0.038088 -0.841101 0)
(0.153995 -0.64338 0)
(0.208392 -0.525718 0)
(0.188316 -0.421074 0)
(0.130244 -0.225682 0)
(0.127356 0.0454431 0)
(0.110034 0.183361 0)
(0.105157 0.190704 0)
(0.104338 0.149891 0)
(0.0974726 0.108892 0)
(0.0866652 0.0785741 0)
(0.0742286 0.0572206 0)
(0.0616032 0.0419627 0)
(0.049733 0.0308402 0)
(0.039145 0.0225963 0)
(0.0300589 0.016413 0)
(0.0225095 0.0117466 0)
(0.0164221 0.00823596 0)
(0.0116778 0.00559946 0)
(0.00812077 0.00366309 0)
(0.00560467 0.00223534 0)
(0.00396801 0.00125823 0)
(0.00299966 0.000621971 0)
(0.00250596 0.000248893 0)
(0.00228211 0.000130698 0)
(0.00191729 0.000136084 0)
(0.00212286 8.83975e-05 0)
(0.000935891 0.000404035 0)
(0.000859214 -0.000149107 0)
(0.00123229 0.000420321 0)
(-0.0400366 -0.643458 0)
(-0.0659923 -0.579685 0)
(-0.0794979 -0.491182 0)
(-0.058423 -0.219903 0)
(-0.105929 -0.0662762 0)
(-0.0756399 0.0769592 0)
(-0.0476258 0.144651 0)
(0.00220808 0.150577 0)
(0.034499 0.130501 0)
(0.0516161 0.106285 0)
(0.0565684 0.0843898 0)
(0.0542083 0.0660427 0)
(0.0481095 0.0510377 0)
(0.040554 0.0389202 0)
(0.0328549 0.0292516 0)
(0.025729 0.0216206 0)
(0.0195339 0.0156563 0)
(0.0143889 0.011073 0)
(0.0103056 0.0075678 0)
(0.00720695 0.00497733 0)
(0.00501263 0.00303656 0)
(0.00360935 0.00171249 0)
(0.00279666 0.000845559 0)
(0.00241625 0.000336534 0)
(0.00226393 0.000187477 0)
(0.00191189 0.000202105 0)
(0.0021564 0.000135016 0)
(0.000912862 0.000586255 0)
(0.000854641 -0.000208994 0)
(0.00129101 0.000603931 0)
(-0.00656126 -0.15302 0)
(-0.0149601 -0.378965 0)
(-0.0776987 -0.474441 0)
(-0.0720121 -0.252479 0)
(-0.0568568 -0.162659 0)
(-0.0406815 -0.0257952 0)
(-0.0143053 0.0521841 0)
(0.00882112 0.084847 0)
(0.0255638 0.0943013 0)
(0.0353926 0.0909169 0)
(0.0395843 0.0812606 0)
(0.039325 0.0689128 0)
(0.0360466 0.0561754 0)
(0.0312189 0.0443969 0)
(0.02588 0.0341835 0)
(0.0206524 0.0256963 0)
(0.0159225 0.0188171 0)
(0.0118653 0.0134312 0)
(0.00857706 0.009217 0)
(0.00604299 0.00609746 0)
(0.00425121 0.0037023 0)
(0.0031484 0.00208406 0)
(0.00253455 0.00101611 0)
(0.0023027 0.000390335 0)
(0.00224385 0.000230996 0)
(0.00190581 0.000261659 0)
(0.00220224 0.000182059 0)
(0.00088064 0.000774249 0)
(0.000847801 -0.000278594 0)
(0.00137104 0.000792696 0)
(-0.00355811 -0.505627 0)
(0.0669141 -0.447007 0)
(0.0180144 -0.428255 0)
(0.00868928 -0.322874 0)
(0.05482 -0.184508 0)
(0.0475516 -0.0409628 0)
(0.051979 0.0352231 0)
(0.0439608 0.0706772 0)
(0.0389117 0.0841103 0)
(0.0344522 0.0852591 0)
(0.0310691 0.0795422 0)
(0.0280523 0.0699828 0)
(0.0250696 0.0588635 0)
(0.0218989 0.0477046 0)
(0.0185268 0.0374641 0)
(0.0150986 0.028606 0)
(0.0118698 0.02116 0)
(0.00897837 0.0152648 0)
(0.0065709 0.0104918 0)
(0.00467727 0.00699963 0)
(0.00334644 0.00420391 0)
(0.00260334 0.00235816 0)
(0.00222312 0.00112251 0)
(0.00217244 0.000404125 0)
(0.00222641 0.000258518 0)
(0.00190127 0.000313508 0)
(0.0022622 0.000230333 0)
(0.000838434 0.000970229 0)
(0.00083854 -0.000359657 0)
(0.00147375 0.000988238 0)
(-0.036015 -0.472965 0)
(-0.000430166 -0.459518 0)
(0.022837 -0.316044 0)
(0.0334178 -0.378496 0)
(0.0750636 -0.229118 0)
(0.0955671 -0.0317491 0)
(0.0878543 0.0695211 0)
(0.0623472 0.0984563 0)
(0.0422612 0.101282 0)
(0.0296806 0.095698 0)
(0.0225429 0.0860732 0)
(0.018075 0.0742889 0)
(0.015165 0.0620128 0)
(0.0130527 0.0502003 0)
(0.0112363 0.0395885 0)
(0.00937639 0.0304759 0)
(0.00758502 0.0226755 0)
(0.00585917 0.0165483 0)
(0.00436616 0.0113482 0)
(0.00316254 0.00766831 0)
(0.00232308 0.0045117 0)
(0.00199484 0.00252038 0)
(0.00187281 0.0011566 0)
(0.00203346 0.000370392 0)
(0.00221653 0.000267666 0)
(0.00190061 0.00035658 0)
(0.00233823 0.000280712 0)
(0.000785 0.00117646 0)
(0.000826528 -0.000456217 0)
(0.00160087 0.00119227 0)
(0.0423921 -0.447725 0)
(-0.0212058 -0.630217 0)
(0.0789247 -0.471251 0)
(0.0594785 -0.451907 0)
(0.0672875 -0.310552 0)
(0.0786313 -0.0723956 0)
(0.0875272 0.106012 0)
(0.0535763 0.138799 0)
(0.027598 0.128069 0)
(0.0135797 0.107078 0)
(0.00588618 0.089861 0)
(0.00297763 0.0746619 0)
(0.00261252 0.062125 0)
(0.00299803 0.0504416 0)
(0.00346644 0.0401049 0)
(0.00343032 0.0311878 0)
(0.00316632 0.0233304 0)
(0.00261271 0.0172601 0)
(0.00204208 0.0117636 0)
(0.00155265 0.00808073 0)
(0.00120532 0.00461024 0)
(0.00134812 0.00255878 0)
(0.00149497 0.00111056 0)
(0.00189395 0.00028135 0)
(0.0022201 0.000256913 0)
(0.00190648 0.000390207 0)
(0.00243262 0.000334433 0)
(0.000718496 0.00139549 0)
(0.000811308 -0.00057163 0)
(0.0017547 0.00140666 0)
(0.0514439 -0.570954 0)
(0.0090678 -0.58581 0)
(0.0277792 -0.569392 0)
(0.000213794 -0.407847 0)
(-0.0148911 -0.275011 0)
(-0.03381 -0.0815851 0)
(-0.00894551 0.122226 0)
(-0.0240461 0.171061 0)
(-0.0169943 0.150906 0)
(-0.0182209 0.121885 0)
(-0.0133772 0.0978129 0)
(-0.0108942 0.0781414 0)
(-0.00787137 0.0629401 0)
(-0.00583855 0.050113 0)
(-0.00359802 0.0395952 0)
(-0.00222254 0.0309279 0)
(-0.00113502 0.0232065 0)
(-0.000627658 0.0173777 0)