/*--------------------------------*- C++ -*----------------------------------*\
| =========                 |                                                 |
| \\      /  F ield         | OpenFOAM: The Open Source CFD Toolbox           |
|  \\    /   O peration     | Version:  2.4.0                                 |
|   \\  /    A nd           | Web:      www.OpenFOAM.org                      |
|    \\/     M anipulation  |                                                 |
\*---------------------------------------------------------------------------*/
FoamFile
{
    version     2.0;
    format      ascii;
    class       volScalarField;
    location    "0.136";
    object      p_rgh;
}
// * * * * * * * * * * * * * * * * * * * * * * * * * * * * * * * * * * * * * //

dimensions      [1 -1 -2 0 0 0 0];

internalField   nonuniform List<scalar> 
3600
(
104.395
103.44
100.879
97.1859
93.62
90.238
87.3803
85.3805
84.9878
85.9097
88.4764
90.5278
92.9901
94.8077
96.1499
97.5315
98.2429
98.926
99.082
98.7161
97.3228
96.6254
96.9044
97.6324
98.7173
100.049
100.962
103.054
103.218
102.83
104.403
103.445
100.882
97.1844
93.6151
90.2298
87.3633
85.3519
84.9517
85.8798
88.4607
90.5261
92.9832
94.8244
96.1595
97.5896
98.3262
98.8849
99.0628
98.2805
97.3034
96.4694
96.5876
97.3956
98.5147
99.8465
101.72
102.362
102.66
102.926
104.414
103.457
100.892
97.1842
93.6084
90.2167
87.3322
85.2987
84.8784
85.8185
88.4287
90.5176
92.9614
94.8191
96.1865
97.6259
98.3483
98.9071
99.0419
98.3851
97.138
95.9048
95.894
96.7225
99.0264
100.058
100.685
101.561
102.146
102.342
104.43
103.476
100.907
97.1851
93.5999
90.1985
87.2866
85.2197
84.7674
85.7255
88.38
90.5074
92.9205
94.7964
96.2203
97.6478
98.3216
98.9733
99.001
98.5269
96.7889
94.8972
94.6292
95.6729
97.4205
99.0253
100.072
100.965
101.553
101.619
104.451
103.502
100.93
97.1872
93.5895
90.1752
87.2263
85.1145
84.6179
85.5992
88.3147
90.5021
92.8877
94.7657
96.2562
97.6403
98.229
98.9359
98.9303
98.3114
96.2878
93.7327
93.0649
94.0827
95.7909
97.8737
99.4264
100.243
100.719
100.858
104.477
103.536
100.959
97.1903
93.5775
90.1471
87.1514
84.9824
84.4284
85.4369
88.229
90.5035
92.9014
94.7584
96.264
97.6163
98.0891
98.7881
98.7848
98.2645
95.9628
93.1948
92.5707
93.8057
95.5091
97.3146
98.8311
99.6924
100.187
100.405
104.508
103.577
100.995
97.1944
93.5638
90.1145
87.0618
84.8227
84.1972
85.2368
88.1206
90.5024
92.971
94.7971
96.2474
97.5894
97.9901
98.66
98.688
98.1721
95.9428
93.3532
92.8144
93.8258
95.2111
96.9833
98.6842
99.5811
100.037
100.245
104.543
103.625
101.037
97.1994
93.5485
90.0777
86.9579
84.6345
83.9223
84.998
87.9921
90.486
93.0258
94.8771
96.2438
97.5805
97.9863
98.6372
98.6411
98.1726
96.8051
94.1407
93.5755
94.171
95.5345
97.251
98.9939
99.7935
100.096
100.281
104.583
103.68
101.087
97.2052
93.5319
90.0372
86.8396
84.4167
83.6011
84.7213
87.8498
90.4561
93.0381
94.9579
96.3748
97.6414
98.0601
98.6657
98.6039
98.3608
97.4508
95.4987
94.9528
95.3339
96.6715
98.1668
99.5852
100.256
100.514
100.594
104.628
103.743
101.144
97.2116
93.514
89.9937
86.7074
84.168
83.2308
84.4051
87.6982
90.4393
93.0118
95.0274
96.5441
97.7906
98.1353
98.7018
98.66
98.6288
98.1411
96.8677
96.3154
96.7457
97.9988
99.2432
100.215
100.766
100.967
101.048
104.677
103.813
101.208
97.2185
93.495
89.9476
86.5617
83.8864
82.8082
84.0434
87.5334
90.4489
92.9644
95.0979
96.7669
97.9891
98.2148
98.7906
98.7489
98.7698
98.6284
97.9064
97.5996
98.0431
99.1532
99.8331
100.553
101.154
101.358
101.467
104.731
103.889
101.279
97.2256
93.475
89.8999
86.403
83.5701
82.3293
83.6296
87.3531
90.467
92.9007
95.1797
97.0062
98.2106
98.314
98.9008
98.8491
98.8951
98.7984
98.3677
97.9451
98.6111
99.5441
100.236
100.898
101.432
101.676
101.83
104.789
103.973
101.358
97.2328
93.4543
89.8511
86.2322
83.2166
81.7891
83.1592
87.1597
90.4916
92.8134
95.2637
97.2475
98.4664
98.4421
98.9699
98.998
99.1095
99.0926
98.8109
98.7035
99.1609
99.7675
100.06
100.496
101.554
102.132
101.845
104.85
104.064
101.445
97.2398
93.4331
89.8021
86.0501
82.823
81.1822
82.6257
86.9587
90.5347
92.6925
95.388
97.5571
98.7646
98.5668
99.0827
99.1342
99.3385
99.4049
99.1669
99.0633
99.5725
100.132
100.611
100.649
100.856
101.376
101.284
104.915
104.161
101.539
97.2462
93.4118
89.7537
85.8579
82.3861
80.5024
82.019
86.7549
90.6178
92.5006
95.4296
97.8438
99.1175
98.7129
99.1604
99.2526
99.4927
99.6385
99.4529
99.4644
100.081
100.237
99.8972
100.247
100.286
100.434
100.996
104.984
104.265
101.642
97.2518
93.3907
89.7066
85.6571
81.9024
79.743
81.3239
86.5526
90.7589
92.291
95.6634
98.1924
99.4636
98.8581
99.1951
99.366
99.5508
99.7574
99.8789
99.949
100.255
100.634
100.402
100.338
100.335
100.625
101.697
105.056
104.375
101.754
97.2562
93.3704
89.6616
85.4493
81.3683
78.8947
80.527
86.3545
90.9847
91.809
95.6504
98.7276
100.025
99.0541
99.193
99.3333
99.5434
99.8637
100.08
100.171
100.254
100.699
100.547
100.604
101.092
101.804
102.75
105.13
104.491
101.875
97.2588
93.3515
89.6198
85.2366
80.7793
77.9442
79.6208
86.168
91.2456
91.5374
95.8281
99.0642
100.425
99.2903
99.2634
99.3999
99.8309
100.236
100.721
100.573
100.46
100.91
100.61
100.576
101.29
101.766
102.265
105.207
104.614
102.005
97.2592
93.3344
89.582
85.0214
80.1288
76.8779
78.5964
86.0109
91.4913
90.6443
95.8809
99.7237
101.003
99.3009
99.3321
99.3737
99.6211
100.326
100.507
100.433
100.31
100.745
100.577
100.65
101.422
101.656
102.142
105.286
104.742
102.144
97.2568
93.3196
89.5495
84.8069
79.4101
75.7493
77.4441
85.8618
92.0776
89.7948
95.6337
100.25
101.851
99.5805
98.9918
99.3115
99.6457
99.6147
100.065
100.116
100.034
100.599
101.044
101.456
101.959
102.394
102.749
105.366
104.874
102.294
97.2506
93.3078
89.5236
84.5991
78.6362
74.2649
76.1895
85.6823
92.7216
88.728
95.7346
100.444
101.89
99.907
98.8086
98.2663
98.6693
98.7104
99.4973
100.087
100.393
101.256
102.037
102.301
102.325
102.704
102.977
105.448
105.015
102.456
97.2397
93.2994
89.5064
84.4086
77.8761
73.1521
74.8065
85.7499
87.7634
89.0201
94.8718
100.388
102.552
100.192
98.1436
97.9931
99.2239
99.1427
99.5157
100.53
101.215
102.326
102.494
102.629
102.564
102.74
102.919
105.528
105.151
102.629
97.2226
93.2948
89.5004
84.2587
77.2379
65.7672
61.9289
84.704
88.9057
87.685
94.2428
101.776
103.695
100.237
97.9634
99.1536
98.1366
99.1873
100.381
100.815
101.842
103.255
103.061
103.097
102.888
102.92
103.022
105.611
105.312
102.816
97.1976
93.2945
89.5058
84.1692
68.1987
16.2404
31.5061
81.422
83.1853
90.4094
94.3623
103.038
104.987
99.1881
98.1701
99.3181
98.7055
98.8387
100.568
100.989
102.475
103.916
103.581
103.464
103.121
103.048
103.113
105.688
105.425
103.018
97.1636
93.2978
89.5148
83.9554
20.0715
4.79031
31.8302
77.5303
91.8661
89.2376
94.9687
104.216
105.406
99.3819
97.5958
99.1869
96.1888
97.699
101.484
101.594
103.067
104.165
103.64
103.598
103.174
103.078
103.12
105.767
105.644
103.222
97.1327
93.301
89.5001
50.5472
6.6868
3.19609
20.6447
67.2016
87.8579
85.8027
95.5998
103.91
105.603
99.6969
97.7395
98.2046
95.9345
98.0622
101.361
102.034
103.746
104.043
103.206
103.52
103.087
103.154
103.182
105.846
105.709
103.433
97.1006
93.2848
82.902
4.57745
0.0891123
1.53133
6.0222
40.3627
75.3863
83.7897
96.4821
104.338
105.364
99.9669
98.1205
96.7959
95.8285
98.7804
100.244
101.282
104.578
103.81
102.598
103.233
102.857
103.078
103.066
105.891
105.943
103.659
97.0698
92.5181
23.8458
0.101159
0.0709677
0.124558
0.107128
4.84767
37.0315
70.3553
97.231
104.955
105.717
100.747
97.7277
96.4426
96.5231
100.097
98.724
98.9948
105.204
103.228
102.174
102.732
102.457
102.75
102.667
106.023
106.051
103.923
97.0086
62.7957
0.288698
0.0966542
0.0648603
0.107773
0.0928489
0.100491
3.4632
38.0548
90.1215
105.887
106.039
101.715
99.0134
97.6149
97.4549
102.425
97.332
95.722
103.658
102.748
101.956
102.149
101.935
102.26
102.33
106.048
106.259
104.203
86.6184
1.22028
0.115426
0.0921533
0.0505907
0.0935324
0.0904017
0.0936317
0.0284626
5.72918
57.7921
106.509
106.118
102.085
98.9228
97.9208
98.8863
105.378
98.9316
93.2411
104.097
103.097
101.613
101.531
101.247
101.677
101.625
102.759
103.291
103.136
101.107
100.183
98.8904
97.7803
97.0736
96.7254
97.3525
98.7163
99.0676
98.8945
98.1303
97.2779
95.7262
94.2633
92.4222
89.8801
87.9907
85.4969
84.7292
85.0525
87.1675
90.075
93.5406
97.1506
100.879
103.443
104.393
102.921
102.582
102.318
101.961
100.009
98.7415
97.6683
96.7603
96.5551
97.323
98.2922
99.0515
98.854
98.2198
97.3375
95.7303
94.2751
92.4112
89.8743
87.9738
85.4684
84.6955
85.023
87.1507
90.0669
93.5359
97.1493
100.882
103.449
104.401
102.426
102.146
101.615
100.806
100.156
99.1197
96.9059
96.0544
95.9591
97.1386
98.3983
99.0466
98.8744
98.2531
97.3727
95.7467
94.2578
92.3824
89.8571
87.9399
85.4102
84.6273
84.9681
87.1198
90.0538
93.5298
97.1494
100.892
103.461
104.412
101.649
101.548
101.016
100.184
99.1897
97.5929
95.8115
94.6862
94.9005
96.7646
98.5174
99.0195
98.9385
98.2452
97.3923
95.7638
94.2152
92.3312
89.8334
87.8886
85.3223
84.524
84.8865
87.0744
90.0357
93.5222
97.1508
100.908
103.48
104.428
100.868
100.736
100.307
99.5464
98.0698
96.0174
94.2791
93.1857
93.7299
96.2538
98.3034
98.9686
98.9319
98.1491
97.382
95.777
94.1556
92.285
89.8101
87.82
85.2033
84.3849
84.7778
87.0143
90.0125
93.513
97.1535
100.931
103.506
104.449
100.421
100.227
99.7827
98.9827
97.5346
95.7297
94.0872
92.7608
93.2367
95.96
98.2649
98.8667
98.8119
98.0111
97.3543
95.7589
94.1124
92.2882
89.7885
87.7304
85.0514
84.2085
84.6415
86.9394
89.9844
93.5024
97.1573
100.961
103.54
104.475
100.263
100.096
99.6882
98.8645
97.2105
95.4363
94.1448
93.0456
93.452
96.0196
98.2432
98.784
98.7055
97.9164
97.3189
95.7093
94.1089
92.3496
89.7586
87.6173
84.865
83.993
84.4769
86.8498
89.9519
93.4905
97.1623
100.998
103.582
104.506
100.303
100.172
99.8799
99.1633
97.4739
95.7915
94.499
93.8391
94.2844
96.9363
98.3242
98.7689
98.7028
97.9168
97.3013
95.6844
94.1428
92.3969
89.7074
87.4828
84.6444
83.7361
84.2834
86.7453
89.9153
93.4774
97.1683
101.041
103.63
104.541
100.588
100.52
100.303
99.6843
98.3302
96.9127
95.6519
95.227
95.7372
97.7034
98.5975
98.778
98.7631
98.0032
97.3486
95.7764
94.1701
92.4041
89.6373
87.3327
84.3912
83.4351
84.0603
86.6261
89.8751
93.4632
97.1752
101.092
103.686
104.581
101.023
100.934
100.756
100.264
99.3194
98.2554
97.1709
96.645
97.209
98.5003
98.9372
98.8764
98.8321
98.0977
97.4861
95.9125
94.1796
92.3743
89.5705
87.1707
84.1052
83.0873
83.8064
86.4923
89.8318
93.4482
97.1829
101.151
103.749
104.626
101.47
101.368
101.109
100.581
99.8935
99.3738
98.485
98.0839
98.3451
99.0807
99.1432
99.0089
98.9607
98.2086
97.6648
96.0946
94.1772
92.3245
89.5125
86.9929
83.7824
82.6987
83.5207
86.3439
89.7861
93.4326
97.1911
101.216
103.819
104.675
101.871
101.648
101.348
100.828
100.278
99.798
99.0316
98.442
98.737
99.2684
99.3071
99.1683
99.1265
98.3522
97.8642
96.2601
94.1677
92.2593
89.447
86.7966
83.4179
82.2454
83.2015
86.1813
89.7385
93.4165
97.1997
101.289
103.897
104.728
101.818
101.979
101.414
100.36
100.067
100.092
99.6997
99.1345
99.2408
99.6207
99.5597
99.3834
99.2857
98.5433
98.0906
96.4221
94.1374
92.186
89.3713
86.5838
83.0099
81.7297
82.8474
86.0047
89.6899
93.4001
97.2085
101.37
103.981
104.785
101.127
101.113
100.554
100.407
100.695
100.619
100.263
99.6493
99.6506
100.015
99.8584
99.6121
99.4593
98.7397
98.3596
96.6132
94.1127
92.1074
89.2944
86.3589
82.5559
81.1455
82.4567
85.8145
89.6414
93.3837
97.2172
101.459
104.072
104.847
100.832
100.277
100.279
100.503
100.578
100.76
100.513
100.146
100.05
100.403
100.088
99.7798
99.6699
98.9812
98.6954
96.801
94.0179
92.0307
89.2213
86.1254
82.0514
80.4855
82.0273
85.6112
89.5937
93.3677
97.2254
101.556
104.17
104.912
101.637
100.867
100.576
100.488
100.729
101.151
100.912
100.705
100.456
100.567
100.102
100.029
99.8097
99.2648
99.0558
97.0454
94.0628
91.9439
89.152
85.8847
81.487
79.7413
81.5573
85.3953
89.5479
93.3525
97.2329
101.662
104.275
104.98
102.784
102.021
101.261
100.627
100.683
101.084
100.922
101.081
100.831
100.804
100.233
100.118
99.9798
99.5916
99.5733
97.3052
93.78
91.6271
89.1104
85.6379
80.854
78.8988
81.0448
85.1674
89.505
93.3385
97.2391
101.776
104.386
105.051
102.233
101.669
101.08
100.149
100.423
101.281
101.583
101.606
101.019
100.998
100.387
100.013
100.149
100.022
99.8908
97.4564
93.8081
91.7263
89.0392
85.3975
80.1496
77.9412
80.4873
84.9286
89.4662
93.3265
97.2437
101.9
104.503
105.125
102.142
101.646
101.27
100.434
100.562
100.877
100.863
101.458
101.493
101.406
100.518
100.262
100.643
100.439
100.56
97.9318
93.3286
91.0019
89.0532
85.1894
79.3706
76.8551
79.8815
84.68
89.4327
93.3171
97.246
102.033
104.627
105.202
102.756
102.413
101.976
101.64
101.383
101.249
101.002
101.071
101.487
101.103
100.569
100.156
100.81
100.858
101.072
97.7395
93.0476
90.9855
89.0445
84.9837
78.5328
75.6246
79.2281
84.4232
89.4059
93.3108
97.2453
102.176
104.756
105.28
102.976
102.706
102.378
102.441
102.148
101.758
101.473
101.29
101.555
100.694
99.9839
100.042
100.961
101.244
101.472
97.7987
92.8624
90.8057
89.0472
84.8939
77.6104
74.257
78.5429
84.1616
89.3876
93.3085
97.2409
102.33
104.889
105.359
102.918
102.735
102.636
102.799
102.641
102.286
101.719
101.514
101.362
100.065
100.27
100.576
101.15
101.823
101.986
98.0356
91.6268
89.7396
89.1013
84.7979
76.7815
72.9949
77.8737
83.9077
89.3799
93.3108
97.2315
102.495
105.031
105.44
103.02
102.922
102.932
103.05
103.239
103.169
102.115
101.238
101.768
99.6902
100.27
100.007
101.49
102.57
103.079
98.3562
92.0321
90.5917
93.2883
83.8567
64.6073
62.6083
77.2742
83.6919
89.3857
93.3184
97.2157
102.673
105.168
105.52
103.123
103.082
103.207
103.41
103.772
103.834
102.923
101.715
101.481
100.079
100.313
101.714
101.901
103.373
105.015
98.9623
91.4281
89.1515
90.678
80.5479
50.1164
21.0872
69.7243
83.5288
89.4088
93.3321
97.1913
102.865
105.33
105.602
103.161
103.115
103.338
103.526
103.979
104.151
103.73
102.967
102.602
99.5883
100.697
102.041
102.264
103.949
106.413
99.664
91.5221
90.7565
91.013
80.7415
42.0945
8.75359
21.3292
83.0193
89.4489
93.3521
97.158
103.071
105.445
105.677
103.221
103.168
103.278
103.54
103.747
104.19
104.32
103.365
102.122
99.209
98.2347
100.991
101.918
104.832
107.312
100.226
91.4765
89.9994
89.2435
70.7816
29.6206
1.61075
2.81886
46.6201
89.4631
93.3742
97.127
103.28
105.664
105.755
103.121
103.119
103.163
103.407
103.189
103.885
104.661
102.654
100.944
99.3778
98.2956
101.18
102.427
104.723
106.893
101.05
91.7288
85.9444
72.1727
36.0714
6.08967
0.117315
0.143783
3.69521
82.0758
93.373
97.094
103.496
105.73
105.833
102.747
102.807
102.879
103.102
102.757
102.824
103.14
100.647
99.5329
100.301
98.3971
100.233
101.764
104.753
106.832
101.733
90.1082
66.175
26.8645
2.3299
0.0581038
0.0940602
0.130403
0.0841162
21.9146
92.4582
97.0621
103.728
105.965
105.877
102.684
102.475
102.504
102.712
102.622
101.959
101.16
97.7397
98.3635
101.786
99.1795
100.702
102.3
104.832
107.01
102.332
76.0467
29.6608
2.30657
0.0267514
0.0533039
0.081592
0.12025
0.0839152
0.207224
62.4855
96.9975
103.998
106.074
106.008
101.994
102.138
102.248
102.671
102.579
102.953
102.78
95.7468
99.2748
104.432
100.853
100.958
102.281
105.057
107.656
96.096
35.1579
1.66977
0.0266127
0.0227091
0.0548671
0.0696638
0.102404
0.0805823
0.119994
1.25918
86.6683
104.284
106.282
106.031
106.208
106.212
101.725
31.8395
0.614809
0.113906
0.090233
0.0428421
0.0853748
0.0890643
0.0932353
0.0161302
-0.00915999
13.8602
87.7494
106.1
98.5447
95.7522
90.5285
98.3503
106.138
102.842
93.0978
104.511
102.986
101.13
100.401
100.247
100.927
101.428
106.359
106.12
99.0053
1.09083
0.180049
0.113357
0.0887777
0.0389
0.0804862
0.0880049
0.0927834
0.0135282
-0.00796282
0.727508
37.0661
84.1173
49.9517
43.55
27.245
53.4902
69.9189
91.479
45.991
83.6764
70.4634
82.1532
74.5909
81.2392
81.3576
85.3268
106.573
104.896
51.1273
1.2352
0.181553
0.112258
0.0874264
0.0361599
0.0762648
0.0866556
0.0912398
0.0108661
-0.0174014
-0.0383431
1.6486
11.1192
0.572829
0.399531
0.0523884
0.0261407
0.0894525
14.3186
1.61824
25.7993
6.08555
12.77
6.6755
11.0609
11.3302
13.209
106.747
91.603
3.16711
0.0667438
0.180947
0.110538
0.0860366
0.0347609
0.0728888
0.0850851
0.0883855
0.00677181
-0.0249939
-0.0337855
0.0185614
0.029575
0.0330405
0.0482878
0.0489461
0.0452981
0.0757431
0.108741
0.0842502
1.00347
0.0579369
0.0652086
0.0575696
0.0495585
0.0518458
0.0489353
77.2517
53.2982
5.00388
0.0829768
0.176879
0.108576
0.0847881
0.0347656
0.0702991
0.0833316
0.0841666
0.00182693
-0.0320587
-0.0313467
0.0184633
0.0280421
0.0316284
0.0465718
0.0459604
0.048034
0.0700677
0.0921519
0.0806147
0.056432
0.0591111
0.060718
0.0567035
0.0534788
0.0525637
0.051446
2.31543
-0.116056
-0.147907
0.0893047
0.168525
0.105945
0.083625
0.0360563
0.0682602
0.0814496
0.0786486
-0.00353299
-0.0387538
-0.0286601
0.0154392
0.0292855
0.0296059
0.0411932
0.0531934
0.0644051
0.0839174
0.0925203
0.0791965
0.0600054
0.0596499
0.0593692
0.056276
0.0533608
0.0517862
0.0507656
-0.0392483
-0.0883612
-0.136544
0.0845875
0.159431
0.10329
0.0824331
0.0383997
0.066536
0.0795975
0.0722643
-0.00907119
-0.0451092
-0.0274264
0.0187805
0.0274203
0.0308654
0.0662738
0.0628792
0.0672604
0.0803586
0.0650534
0.0614333
0.0594707
0.0596532
0.0585754
0.0556458
0.0528472
0.0510951
0.0499497
-0.0377065
-0.084861
-0.127813
0.0807354
0.150031
0.100693
0.0811382
0.0412573
0.0652905
0.078109
0.0664133
-0.0143633
-0.0493496
-0.0258951
0.0110117
0.0334674
0.026758
0.0394669
0.062657
0.0684088
0.0764253
0.0651575
0.0627273
0.0616069
0.0593395
0.0575758
0.0546481
0.0518956
0.050108
0.0487433
-0.0366314
-0.0811735
-0.118632
0.0769229
0.140538
0.0980735
0.0797237
0.0444321
0.0648039
0.0774579
0.0636719
-0.0186355
-0.0522399
-0.0250047
0.00896889
0.028212
0.0266894
0.038034
0.0526082
0.0690274
0.0744703
0.0631246
0.059425
0.0616882
0.0581656
0.0564366
0.0535739
0.0507908
0.0485674
0.0473342
-0.0353048
-0.076957
-0.109769
0.0729771
0.131015
0.0953514
0.0781396
0.0477591
0.065122
0.0777115
0.0667862
-0.0212617
-0.0544797
-0.0245241
0.00701816
0.0265791
0.0276452
0.0383996
0.0512324
0.0698546
0.0745055
0.0618118
0.0689689
0.0850797
0.0665505
0.0557965
0.052907
0.049997
0.047509
0.0463665
-0.0336353
-0.0721017
-0.101214
0.0689688
0.12156
0.0924524
0.0763316
0.0508041
0.065224
0.0765298
0.0750324
-0.0213909
-0.0516045
-0.0228075
0.00514958
0.0269258
0.0284213
0.0381784
0.0533726
0.0707666
0.0731629
0.0599243
0.0608537
0.0881338
0.0796837
0.0563704
0.0532201
0.0501853
0.0475645
0.046382
-0.0313944
-0.066851
-0.0927595
0.0649071
0.112272
0.089307
0.0742681
0.0529871
0.0638777
0.0699301
0.080094
-0.0219157
-0.0436512
-0.0195054
0.00536151
0.0266438
0.0292939
0.0382812
0.0535422
0.0700509
0.0566896
0.0576589
0.059727
0.0878599
0.0673223
0.057638
0.0548374
0.0519776
0.0494902
0.047374
-0.0314709
-0.0620648
-0.085521
0.0608516
0.103237
0.085866
0.0719503
0.0542055
0.0615397
0.0611137
0.0743408
-0.0307095
-0.0331563
-0.0129402
0.00795312
0.0269107
0.030793
0.0389131
0.0479601
0.0516911
0.0523586
0.0561096
0.0573716
0.0876594
0.0656887
0.0600383
0.057631
0.0551366
0.0527747
0.0507752
-0.0295603
-0.05721
-0.0771666
0.0568823
0.0945293
0.0821145
0.0693899
0.054756
0.0594629
0.0570774
0.060957
-0.0395637
-0.0217783
-0.00494043
0.012528
0.0282593
0.0330483
0.0448318
0.0473634
0.0499173
0.0524133
0.055227
0.0609567
0.0819767
0.0711535
0.0614564
0.0601396
0.0583598
0.0562739
0.05411
-0.027507
-0.0526035
-0.0688626
0.0530701
0.0861968
0.0780628
0.0665982
0.0547825
0.057439
0.0544609
0.0440346
-0.0341567
-0.0101444
0.0035849
0.0172575
0.0307146
0.0365294
0.0516959
0.0495471
0.0501285
0.0523961
0.0546364
0.055953
0.0776567
0.0742147
0.0614771
0.0616073
0.060388
0.0583268
0.0581221
-0.0253437
-0.0491327
-0.0608833
0.0495481
0.0782646
0.0737362
0.0635759
0.0542353
0.0544679
0.0503289
0.0240115
-0.0196866
-9.12937e-05
0.0112113
0.0216706
0.0338337
0.097429
0.0833739
0.046771
0.0507934
0.0527428
0.0540641
0.0557265
0.1191
0.0858651
0.0639051
0.0630899
0.0613479
0.0594796
0.0595154
-0.0231056
-0.0443401
-0.0532967
0.0462764
0.0707473
0.0691605
0.0603115
0.0529737
0.050647
0.045855
0.0040405
-0.0108545
0.00837376
0.0207329
0.0287443
0.0412021
0.154441
0.132584
0.0544435
0.0512107
0.0556236
0.0585142
0.0605392
0.109564
0.110458
0.0873584
0.0617116
0.0602554
0.0580195
0.0561218
-0.0208329
-0.0396321
-0.0457284
0.0426409
0.0636461
0.0643628
0.0568145
0.0509459
0.0463935
0.0418263
-0.00780916
-0.0120024
0.00665565
0.0307559
0.0327589
0.0491497
0.161737
0.167655
0.0780791
0.0510958
0.0543346
0.0584453
0.0592498
0.0946573
0.109073
0.106918
0.0778911
0.0590411
0.0568532
0.0543865
-0.0185661
-0.0350482
-0.0385699
0.0388971
0.056961
0.059377
0.0531116
0.048261
0.042215
0.0382673
-0.00413097
-0.0157168
-0.00294943
0.0396684
0.0336834
0.0960814
0.166534
0.168162
0.0784255
0.0509497
0.0529707
0.0543468
0.058115
0.0625322
0.0917601
0.109068
0.108041
0.0739623
0.0559685
0.0547982
-0.0163434
-0.030623
-0.0319589
0.0351175
0.050683
0.0542452
0.0492437
0.0452024
0.0387004
0.0351121
0.00680697
-0.016546
-0.00660655
0.047814
0.0340193
0.0796222
0.164771
0.105397
0.0477902
0.0488997
0.0506922
0.051701
0.0545809
0.0535523
0.0547953
0.0612997
0.0880541
0.0825325
0.0682517
0.0635001
-0.0141985
-0.0263892
-0.0259647
0.0313507
0.0447913
0.0490179
0.0452427
0.0418566
0.0357427
0.0318876
0.0146928
-0.0122852
0.0112172
0.0513738
0.0358325
0.0370498
0.0518359
0.0450783
0.0449044
0.0469317
0.0485733
0.0496957
0.0504436
0.0508625
0.050787
0.0502537
0.0500552
0.0514362
0.0526
0.0525686
-0.0121585
-0.0223759
-0.0206182
0.0276292
0.0392534
0.0437519
0.041123
0.038302
0.0330552
0.0293484
0.0190536
-0.00182303
0.0288606
0.0479207
0.0377769
0.0363144
0.03947
0.0414911
0.0431618
0.0448895
0.0464278
0.0476171
0.048485
0.0491284
0.0495996
0.0500194
0.0508985
0.0524796
0.0549199
0.0581719
-0.0102438
-0.0186127
-0.0159389
0.0239807
0.0340268
0.0385024
0.0368839
0.0345835
0.0303867
0.0271449
0.0216348
0.0101485
0.0365786
0.0422425
0.0379362
0.0367008
0.0380857
0.0395574
0.0410496
0.0426385
0.0441879
0.0455251
0.0465585
0.0472285
0.0473841
0.0468932
0.0456545
0.0435124
0.0403652
0.0484039
-0.00846759
-0.0151328
-0.0119398
0.02043
0.0290651
0.0333096
0.0325164
0.0307132
0.0275392
0.0250393
0.0227172
0.0182493
0.0375034
0.036641
0.0357686
0.035194
0.0359134
0.0370179
0.038343
0.0398925
0.0416974
0.0437554
0.0456134
0.0476941
0.0498488
0.0520361
0.053785
0.0552511
0.0585005
0.111889
-0.00683588
-0.0119696
-0.00862214
0.0169947
0.0243218
0.0281873
0.0280092
0.0266816
0.0244302
0.0227151
0.0222005
0.0207375
0.0340454
0.0315844
0.0322404
0.0321611
0.0326557
0.033458
0.0345009
0.0357707
0.0376475
0.0394795
0.0414542
0.0434674
0.0457057
0.0491618
0.0510754
0.0527303
0.0545278
0.0633942
-0.00534814
-0.00914939
-0.00596868
0.0136791
0.0197515
0.0231202
0.0233487
0.0224612
0.0209789
0.0199526
0.0202546
0.0201394
0.0284817
0.0266529
0.0276278
0.0277943
0.0281371
0.0284969
0.0289199
0.0293909
0.0298779
0.0309624
0.0315615
0.0322807
0.0330967
0.034399
0.0351528
0.033951
0.0326003
0.0303454
-0.00399802
-0.00668246
-0.00393909
0.0104697
0.0152979
0.0180759
0.0185211
0.0180068
0.0171158
0.0165936
0.017153
0.0174769
0.022265
0.0214053
0.022127
0.0221844
0.0220289
0.0217341
0.0211695
0.0204076
0.0195175
0.0186622
0.0177286
0.0173099
0.0176036
0.0183533
0.019492
0.0210561
0.0208057
0.0210165
-0.00277306
-0.00455181
-0.00246772
0.00733257
0.0108926
0.0130006
0.0135013
0.0132684
0.0127992
0.0125868
0.0130688
0.0134396
0.0159641
0.01569
0.0160151
0.0158228
0.0152287
0.014085
0.0122048
0.00946452
0.005892
0.00194007
-0.0014704
-0.00394048
-0.00542451
-0.00605748
-0.00625889
-0.00627089
0.00406812
0.0128645
-0.00165105
-0.00270068
-0.00145693
0.0042094
0.00644828
0.00781419
0.00824001
0.00819811
0.00801066
0.00796335
0.0082659
0.00842067
0.00974453
0.00960987
0.0095906
0.00917494
0.00830377
0.00679145
0.00445614
0.00116954
-0.00311804
-0.007888
-0.012756
-0.0173421
-0.0172181
-0.0214644
-0.0238815
-0.0139368
0.00493631
0.00523944
-0.000590931
-0.00101547
-0.000763984
0.000996426
0.00183079
0.00238553
0.0026479
0.00272823
0.00273322
0.00276287
0.00288
0.00293705
0.0032698
0.00315956
0.00297143
0.00250196
0.00167599
0.000425492
-0.00131114
-0.00348366
-0.0060001
-0.00877921
-0.012014
-0.015516
-0.0136777
0.000345183
0.00408065
0.00352266
0.00374538
0.00461976
101.813
101.828
101.88
102.195
102.58
103.066
103.685
95.8902
101.804
105.886
100.906
100.744
101.868
105.047
107.964
63.3403
4.25272
0.0229058
0.0267494
0.0244204
0.0556912
0.0615535
0.091736
0.0794677
0.114404
0.657886
31.425
101.728
106.236
106.19
88.2098
86.7005
91.0157
87.5734
95.2505
87.3543
97.0146
71.9133
102.673
99.7271
94.0963
88.2048
89.4505
92.2586
85.6961
17.9952
-0.0243661
0.0136364
0.0269348
0.0263121
0.0562154
0.0568135
0.0852313
0.0786707
0.112164
0.197001
1.07734
99.1269
106.144
106.34
15.4755
15.0952
20.45
15.709
28.1606
15.6273
39.7983
13.5667
42.115
23.2354
23.1557
16.0111
18.0194
20.3305
13.8514
-0.0475978
-0.0327904
0.0130546
0.0227228
0.0282306
0.056959
0.05299
0.079388
0.0779613
0.10987
0.199074
1.22225
51.437
104.932
106.553
0.0477904
0.0496578
0.0488501
0.0534881
0.0650577
0.0627787
1.53618
0.0682872
0.0481
0.0420149
0.0331008
0.0231098
0.0124351
-0.00734062
-0.0310423
-0.0387103
-0.0340275
0.0142952
0.0227108
0.0303985
0.0581959
0.0499073
0.0743944
0.0774662
0.107122
0.198508
0.0581213
2.98007
91.3504
106.725
0.0509283
0.0512919
0.0519076
0.053791
0.0581329
0.0608731
0.0640379
0.0626911
0.0569181
0.0471314
0.0347634
0.022888
0.0105718
-0.00866228
-0.0297014
-0.0410469
-0.0352482
0.0143374
0.021911
0.032685
0.0600904
0.0473677
0.0703078
0.0773557
0.104047
0.193765
0.0754746
5.02784
53.8458
76.7818
0.0503774
0.0507294
0.0516734
0.0536174
0.0577079
0.059876
0.0616454
0.0596032
0.0548512
0.0461358
0.033506
0.0221328
0.00921812
-0.00995564
-0.0295612
-0.0428579
-0.0365502
0.014145
0.0200599
0.0345863
0.0625331
0.0453552
0.0670843
0.077451
0.100297
0.18458
0.0833441
-0.130704
-0.116089
2.11321
0.0495195
0.0497824
0.0508199
0.0528946
0.0563758
0.0585942
0.059821
0.0645178
0.0564268
0.0439429
0.0308768
0.0217419
0.00883484
-0.0105585
-0.0329089
-0.0465652
-0.0384284
0.0105546
0.0152426
0.0349158
0.0649367
0.0440256
0.0645838
0.0775715
0.096548
0.175082
0.0792914
-0.119951
-0.0869297
-0.0410933
0.0481316
0.0483718
0.0495875
0.0517401
0.054958
0.0573626
0.0583874
0.0577019
0.0494795
0.0393174
0.0301972
0.0213144
0.00601679
-0.0136637
-0.0357033
-0.0505151
-0.0409876
0.00768848
0.0109295
0.0327315
0.0662797
0.0433564
0.0628607
0.0775008
0.0929675
0.165446
0.0761241
-0.112064
-0.0834241
-0.0393376
0.0469766
0.0471331
0.0483805
0.0507392
0.0534499
0.0561662
0.0568545
0.0544839
0.0476864
0.0391019
0.0302274
0.0208082
0.00505575
-0.0150779
-0.0384904
-0.0539436
-0.0438769
0.00420508
0.00873261
0.0278968
0.0656355
0.0431501
0.0618226
0.0771292
0.0895376
0.155694
0.0729429
-0.103547
-0.0796946
-0.0379956
0.0456015
0.0454497
0.0465374
0.0490762
0.0519527
0.0545259
0.0550988
0.0526103
0.0463326
0.0386265
0.0302476
0.020569
0.00476725
-0.0157467
-0.0405585
-0.0562057
-0.0461031
0.000299468
0.00780379
0.0211413
0.0624855
0.0433911
0.0615134
0.0763962
0.0862174
0.145829
0.0696676
-0.095532
-0.0754909
-0.0363965
0.0452062
0.0447256
0.0456383
0.047812
0.0504532
0.052277
0.0529296
0.0500792
0.0443716
0.038027
0.0304623
0.0208693
0.00574507
-0.015132
-0.0407722
-0.056047
-0.0458553
-0.00431464
0.00638219
0.0140663
0.0587853
0.0434811
0.0617538
0.0752837
0.0829689
0.135919
0.0662969
-0.0877506
-0.0706948
-0.0344414
0.046092
0.0456205
0.0457346
0.0469284
0.0486733
0.049908
0.0488916
0.0464172
0.0424303
0.0374708
0.0308482
0.0219452
0.00774404
-0.0125814
-0.0378922
-0.0523679
-0.0427463
-0.00963355
0.00311486
0.00770427
0.0559826
0.0432425
0.0621329
0.0737942
0.0797573
0.126037
0.0628248
-0.0802537
-0.0654596
-0.031792
0.0491124
0.0477236
0.0468075
0.0460516
0.0459601
0.0459956
0.0448531
0.0432142
0.0405594
0.036791
0.0315869
0.023797
0.0111097
-0.00759142
-0.0310318
-0.0439999
-0.0350347
-0.0139189
-0.00327492
0.0026986
0.0546863
0.0424926
0.0622265
0.0719266
0.0765478
0.116258
0.0593006
-0.0736373
-0.0607579
-0.031814
0.0520834
0.0508273
0.0484474
0.044549
0.0431995
0.0421268
0.0413285
0.0404373
0.0390039
0.036437
0.0325052
0.026195
0.0156511
-0.000326123
-0.0203828
-0.0313193
-0.0224601
-0.0166665
-0.0107996
0.00177131
0.0546775
0.041278
0.0617436
0.0696893
0.0733017
0.106655
0.0557857
-0.0659052
-0.0559761
-0.0297025
0.0567565
0.0536015
0.0499668
0.0457965
0.0410809
0.0392279
0.0385352
0.0383699
0.0379243
0.036418
0.0334507
0.0284627
0.0204015
0.00788503
-0.00748326
-0.0154422
-0.00650836
-0.00929705
-0.0070932
0.00736039
0.0550351
0.0398872
0.0605927
0.0671114
0.069977
0.0972981
0.0523384
-0.0582958
-0.0512172
-0.0274372
0.0563961
0.0528351
0.0488549
0.0450361
0.0421179
0.0388686
0.0368578
0.0372204
0.0373683
0.0364628
0.0340958
0.0300746
0.0239814
0.0149796
0.00441047
0.000565365
0.0108961
0.0195671
0.00455042
0.0158123
0.0545101
0.0385656
0.0588435
0.0642314
0.0665311
0.0882499
0.0491496
-0.0510666
-0.0479655
-0.02507
0.0554601
0.0521444
0.0483122
0.0448083
0.0421266
0.0404039
0.0369549
0.0371081
0.0373126
0.0365125
0.0343599
0.0308368
0.026001
0.0194894
0.0125788
0.0107244
0.0218665
0.042907
0.0127778
0.0217916
0.0528387
0.0372403
0.0565901
0.0610881
0.0629247
0.0795622
0.0456201
-0.0437614
-0.0432247
-0.0226437
0.0522373
0.0500116
0.0472301
0.0454764
0.0436111
0.0420761
0.0381421
0.0378464
0.0376633
0.0365686
0.0343534
0.0311056
0.0269253
0.0219531
0.0172478
0.0163591
0.0240439
0.0449062
0.018082
0.0245826
0.0504431
0.0359092
0.0538938
0.0577152
0.0591283
0.0712832
0.0419113
-0.0367084
-0.0384945
-0.0202057
0.0524017
0.0503177
0.0477179
0.0452291
0.0434415
0.042141
0.0395202
0.0390879
0.0382679
0.0366317
0.0341607
0.0310325
0.0274046
0.0234348
0.0199729
0.0193588
0.0243559
0.0399251
0.0221827
0.0259222
0.0473663
0.0346977
0.0508044
0.0541364
0.0551258
0.0634498
0.0381055
-0.030149
-0.0338716
-0.0178038
0.0536352
0.0514368
0.0534196
0.0457932
0.0437485
0.0424577
0.041551
0.0405145
0.0389186
0.0366423
0.0337978
0.0306511
0.0273999
0.0242513
0.0217658
0.0212647
0.0242701
0.034057
0.0248791
0.0262892
0.0438376
0.0334506
0.0473722
0.0503613
0.0509164
0.0560839
0.034273
-0.0242012
-0.0293997
-0.0154812