/*--------------------------------*- C++ -*----------------------------------*\
| =========                 |                                                 |
| \\      /  F ield         | OpenFOAM: The Open Source CFD Toolbox           |
|  \\    /   O peration     | Version:  2.4.0                                 |
|   \\  /    A nd           | Web:      www.OpenFOAM.org                      |
|    \\/     M anipulation  |                                                 |
\*---------------------------------------------------------------------------*/
FoamFile
{
    version     2.0;
    format      ascii;
    class       surfaceScalarField;
    location    "0.001";
    object      phiAlpha;
}
// * * * * * * * * * * * * * * * * * * * * * * * * * * * * * * * * * * * * * //

dimensions      [0 3 -1 0 0 0 0];

internalField   nonuniform List<scalar> 
7080
(
9.2436e-14
-9.2437e-14
4.06525e-13
-3.38065e-13
1.00523e-12
-6.60536e-13
1.97514e-12
-1.06142e-12
3.39507e-12
-1.53305e-12
5.32566e-12
-2.0543e-12
7.79146e-12
-2.58657e-12
1.07609e-11
-3.07393e-12
1.41184e-11
-3.43532e-12
1.76533e-11
-3.58125e-12
2.10627e-11
-3.42539e-12
2.39807e-11
-2.91023e-12
2.60484e-11
-2.04634e-12
2.69615e-11
-8.94688e-13
2.67155e-11
2.75016e-13
2.51122e-11
1.55168e-12
2.29509e-11
2.2307e-12
1.96935e-11
3.02941e-12
1.67977e-11
3.05339e-12
1.33331e-11
3.09881e-12
1.05222e-11
2.92592e-12
7.87116e-12
2.42508e-12
5.50416e-12
2.23978e-12
3.92896e-12
1.62664e-12
2.38319e-12
1.31736e-12
1.52245e-12
9.53902e-13
8.20058e-13
6.23121e-13
4.77749e-13
3.4535e-13
-1.19747e-14
4.63121e-13
-7.33169e-15
8.32226e-14
8.87747e-14
-2.04741e-13
3.91917e-13
-7.17501e-13
9.83706e-13
-1.3772e-12
1.95184e-12
-2.18756e-12
3.37732e-12
-3.13246e-12
5.32185e-12
-4.16853e-12
7.80821e-12
-5.21887e-12
1.07958e-11
-6.16899e-12
1.41607e-11
-6.86259e-12
1.76831e-11
-7.12304e-12
2.10583e-11
-6.78715e-12
2.39311e-11
-5.75407e-12
2.59756e-11
-4.0497e-12
2.68751e-11
-1.81889e-12
2.66728e-11
5.5365e-13
2.50718e-11
2.90018e-12
2.29392e-11
4.56712e-12
1.95779e-11
5.82872e-12
1.66089e-11
6.28485e-12
1.30158e-11
6.12095e-12
1.01014e-11
5.82965e-12
7.45175e-12
4.91067e-12
5.12527e-12
4.21522e-12
3.62372e-12
3.27499e-12
2.21858e-12
2.41975e-12
1.43698e-12
1.8293e-12
8.19592e-13
1.13854e-12
5.29372e-13
7.23688e-13
1.65072e-13
6.28549e-13
2.5465e-13
3.01261e-13
9.14988e-14
-3.16137e-13
4.12403e-13
-1.0944e-12
1.04041e-12
-2.09192e-12
2.06169e-12
-3.31472e-12
3.55511e-12
-4.73845e-12
5.57867e-12
-6.29767e-12
8.1489e-12
-7.87534e-12
1.12146e-11
-9.29305e-12
1.46402e-11
-1.03158e-11
1.81934e-11
-1.06757e-11
2.15608e-11
-1.01336e-11
2.43817e-11
-8.54874e-12
2.63437e-11
-5.97281e-12
2.71306e-11
-2.64172e-12
2.68351e-11
9.29457e-13
2.51257e-11
4.35376e-12
2.29484e-11
6.95078e-12
1.95341e-11
8.70161e-12
1.65585e-11
9.51136e-12
1.29553e-11
9.18937e-12
1.00501e-11
8.71237e-12
7.41279e-12
7.40607e-12
5.09289e-12
6.18673e-12
3.60257e-12
4.91305e-12
2.20455e-12
3.52328e-12
1.42776e-12
2.69665e-12
8.13363e-13
1.6533e-12
5.28743e-13
1.09701e-12
1.64749e-13
7.92111e-13
5.22707e-13
3.14517e-13
9.71197e-14
-4.29081e-13
4.47019e-13
-1.48226e-12
1.13106e-12
-2.82887e-12
2.23358e-12
-4.4769e-12
3.83064e-12
-6.39354e-12
5.97388e-12
-8.48934e-12
8.66965e-12
-1.06039e-11
1.18533e-11
-1.2491e-11
1.537e-11
-1.38288e-11
1.89683e-11
-1.42559e-11
2.23214e-11
-1.34596e-11
2.50634e-11
-1.12682e-11
2.6895e-11
-7.77008e-12
2.75183e-11
-3.31224e-12
2.7068e-11
1.45826e-12
2.52188e-11
5.94402e-12
2.29501e-11
9.42145e-12
1.94767e-11
1.1653e-11
1.64792e-11
1.27448e-11
1.28729e-11
1.22944e-11
9.97617e-12
1.1575e-11
7.35852e-12
9.90152e-12
5.05148e-12
8.14921e-12
3.57408e-12
6.53781e-12
2.18653e-12
4.62531e-12
1.41661e-12
3.5535e-12
8.05998e-13
2.16694e-12
5.26937e-13
1.46482e-12
1.59222e-13
9.58738e-13
7.89988e-13
3.20761e-13
1.07592e-13
-5.46309e-13
4.98222e-13
-1.88889e-12
1.25782e-12
-3.60316e-12
2.46943e-12
-5.69822e-12
4.20604e-12
-8.13166e-12
6.51156e-12
-1.07865e-11
9.37832e-12
-1.34528e-11
1.27222e-11
-1.58094e-11
1.63613e-11
-1.74381e-11
2.00174e-11
-1.7881e-11
2.33462e-11
-1.67591e-11
2.59765e-11
-1.38821e-11
2.76296e-11
-9.39578e-12
2.80319e-11
-3.77423e-12
2.73729e-11
2.19127e-12
2.53396e-11
7.71379e-12
2.29467e-11
1.20097e-11
1.94013e-11
1.46928e-11
1.63678e-11
1.59982e-11
1.27656e-11
1.54255e-11
9.87604e-12
1.4419e-11
7.28639e-12
1.23867e-11
4.99579e-12
1.00995e-11
3.53626e-12
8.14353e-12
2.16246e-12
5.72283e-12
1.40198e-12
4.39709e-12
7.96536e-13
2.67827e-12
5.23425e-13
1.82637e-12
1.53373e-13
1.12778e-12
1.05109e-12
3.25515e-13
1.23191e-13
-6.71808e-13
5.67265e-13
-2.32606e-12
1.42275e-12
-4.43597e-12
2.77321e-12
-7.0116e-12
4.68831e-12
-9.99756e-12
7.20313e-12
-1.32446e-11
1.02921e-11
-1.64833e-11
1.38407e-11
-1.93035e-11
1.76325e-11
-2.11834e-11
2.13565e-11
-2.1569e-11
2.4645e-11
-2.00215e-11
2.71238e-11
-1.63541e-11
2.85424e-11
-1.07961e-11
2.86641e-11
-3.96839e-12
2.77393e-11
3.18418e-12
2.54816e-11
9.70337e-12
2.29311e-11
1.47477e-11
1.93032e-11
1.78297e-11
1.62231e-11
1.92824e-11
1.26309e-11
1.85741e-11
9.74951e-12
1.72436e-11
7.19492e-12
1.48531e-11
4.92631e-12
1.20321e-11
3.48864e-12
9.72574e-12
2.13242e-12
6.81213e-12
1.38376e-12
5.22492e-12
7.84915e-13
3.18602e-12
5.18237e-13
2.18087e-12
1.47057e-13
1.29878e-12
1.30167e-12
3.29149e-13
1.44028e-13
-8.10939e-13
6.54753e-13
-2.81003e-12
1.62879e-12
-5.35724e-12
3.15168e-12
-8.46187e-12
5.29095e-12
-1.20516e-11
8.06978e-12
-1.59349e-11
1.1436e-11
-1.97674e-11
1.52382e-11
-2.30373e-11
1.92149e-11
-2.51094e-11
2.30126e-11
-2.53344e-11
2.62363e-11
-2.32276e-11
2.85144e-11
-1.86375e-11
2.96347e-11
-1.19083e-11
2.94105e-11
-3.82875e-12
2.81615e-11
4.49505e-12
2.5639e-11
1.19542e-11
2.29009e-11
1.76652e-11
1.91801e-11
2.1074e-11
1.60459e-11
2.26046e-11
1.24687e-11
2.17337e-11
9.59804e-12
2.00469e-11
7.08472e-12
1.72934e-11
4.84385e-12
1.39416e-11
3.43171e-12
1.12804e-11
2.09674e-12
7.88959e-12
1.36212e-12
6.03474e-12
7.71241e-13
3.6889e-12
5.11464e-13
2.52758e-12
1.40244e-13
1.4714e-12
1.53829e-12
3.31953e-13
1.70432e-13
-9.70652e-13
7.62592e-13
-3.36205e-12
1.88141e-12
-6.40572e-12
3.61733e-12
-1.0107e-11
6.03517e-12
-1.43687e-11
9.14037e-12
-1.89416e-11
1.28477e-11
-2.3389e-11
1.6957e-11
-2.7081e-11
2.11489e-11
-2.92585e-11
2.50182e-11
-2.91825e-11
2.81403e-11
-2.63442e-11
3.01556e-11
-2.06711e-11
3.09033e-11
-1.26578e-11
3.02602e-11
-3.28058e-12
2.863e-11
6.18154e-12
2.58028e-11
1.45083e-11
2.28509e-11
2.07885e-11
1.9027e-11
2.44367e-11
1.58352e-11
2.59686e-11
1.22779e-11
2.48989e-11
9.4222e-12
2.28249e-11
6.95581e-12
1.97011e-11
4.74867e-12
1.58224e-11
3.3656e-12
1.28036e-11
2.05551e-12
8.95168e-12
1.33699e-12
6.82449e-12
7.55552e-13
4.18552e-12
5.03153e-13
2.86577e-12
1.32974e-13
1.64526e-12
1.7584e-12
3.34063e-13
2.03261e-13
-1.15979e-12
8.94667e-13
-4.00861e-12
2.19091e-12
-7.62917e-12
4.19004e-12
-1.20168e-11
6.95147e-12
-1.70358e-11
1.04578e-11
-2.23605e-11
1.45808e-11
-2.74411e-11
1.90548e-11
-3.15059e-11
2.34878e-11
-3.3665e-11
2.74112e-11
-3.30998e-11
3.0378e-11
-2.93185e-11
3.20513e-11
-2.23745e-11
3.23386e-11
-1.29552e-11
3.12004e-11
-2.2449e-12
2.9126e-11
8.30772e-12
2.59592e-11
1.74033e-11
2.27719e-11
2.41396e-11
1.88386e-11
2.79259e-11
1.55878e-11
2.93759e-11
1.20566e-11
2.8063e-11
9.22146e-12
2.55729e-11
6.8076e-12
2.20698e-11
4.6405e-12
1.76688e-11
3.2901e-12
1.42915e-11
2.00863e-12
9.99482e-12
1.30805e-12
7.59231e-12
7.37822e-13
4.67418e-12
4.93314e-13
3.19469e-12
1.25312e-13
1.81992e-12
1.96023e-12
3.35413e-13
2.43171e-13
-1.3884e-12
1.05683e-12
-4.78169e-12
2.57241e-12
-9.08369e-12
4.89813e-12
-1.42716e-11
8.08605e-12
-2.01532e-11
1.20868e-11
-2.63004e-11
1.67113e-11
-3.20209e-11
2.16089e-11
-3.63777e-11
2.62986e-11
-3.83473e-11
3.02426e-11
-3.70527e-11
3.29774e-11
-3.20718e-11
3.42081e-11
-2.36444e-11
3.39337e-11
-1.26967e-11
3.22179e-11
-6.36415e-13
2.96391e-11
1.09352e-11
2.6096e-11
2.06787e-11
2.26575e-11
2.77351e-11
1.86116e-11
3.15465e-11
1.53042e-11
3.28245e-11
1.18051e-11
3.12202e-11
8.997e-12
2.8285e-11
6.64102e-12
2.43936e-11
4.52008e-12
1.94753e-11
3.20573e-12
1.57403e-11
1.95643e-12
1.10157e-11
1.27547e-12
8.33653e-12
7.18179e-13
5.15322e-12
4.82034e-13
3.51366e-12
1.17313e-13
1.99494e-12
2.14278e-12
3.35704e-13
2.91581e-13
-1.66782e-12
1.2573e-12
-5.71819e-12
3.04903e-12
-1.08359e-11
5.78582e-12
-1.69663e-11
9.50679e-12
-2.38362e-11
1.41166e-11
-3.08816e-11
1.93413e-11
-3.72291e-11
2.47215e-11
-4.17543e-11
2.9666e-11
-4.33003e-11
3.35678e-11
-4.09742e-11
3.59644e-11
-3.44942e-11
3.66266e-11
-2.43513e-11
3.56726e-11
-1.17622e-11
3.32917e-11
1.63509e-12
3.0148e-11
1.41253e-11
2.62011e-11
2.43644e-11
2.24981e-11
3.15887e-11
1.83415e-11
3.52986e-11
1.49821e-11
3.63106e-11
1.15224e-11
3.4363e-11
8.749e-12
3.09545e-11
6.45626e-12
2.66662e-11
4.38764e-12
2.12367e-11
3.11266e-12
1.71463e-11
1.89902e-12
1.2011e-11
1.23932e-12
9.05555e-12
6.9668e-13
5.62097e-12
4.69334e-13
3.82201e-12
1.09093e-13
2.16973e-12
2.30559e-12
3.34889e-13
3.51027e-13
-2.0111e-12
1.50966e-12
-6.8624e-12
3.65472e-12
-1.29657e-11
6.91493e-12
-2.02141e-11
1.13061e-11
-2.822e-11
1.66638e-11
-3.62381e-11
2.25994e-11
-4.31695e-11
2.8513e-11
-4.7679e-11
3.36857e-11
-4.84905e-11
3.74463e-11
-4.47598e-11
3.93582e-11
-3.64348e-11
3.92973e-11
-2.4338e-11
3.75277e-11
-1.00139e-11
3.4395e-11
4.65819e-12
3.06293e-11
1.79357e-11
2.62534e-11
2.84875e-11
2.2282e-11
3.57046e-11
1.80221e-11
3.91768e-11
1.46184e-11
3.98269e-11
1.1207e-11
3.74825e-11
8.47682e-12
3.35741e-11
6.25293e-12
2.88812e-11
4.243e-12
2.29476e-11
3.01074e-12
1.85058e-11
1.83635e-12
1.29774e-11
1.19954e-12
9.74775e-12
6.73325e-13
6.07575e-12
4.55223e-13
4.11909e-12
1.00826e-13
2.34355e-12
2.44908e-12
3.32441e-13
4.25475e-13
-2.43391e-12
1.83473e-12
-8.27103e-12
4.43913e-12
-1.55748e-11
8.37344e-12
-2.41576e-11
1.36116e-11
-3.34703e-11
1.98876e-11
-4.25278e-11
2.66563e-11
-4.99525e-11
3.31392e-11
-5.41773e-11
3.84752e-11
-5.38454e-11
4.19451e-11
-4.82549e-11
4.31783e-11
-3.76966e-11
4.22074e-11
-2.34154e-11
3.9477e-11
-7.3058e-12
3.54891e-11
8.53738e-12
3.10619e-11
2.24052e-11
2.624e-11
3.30662e-11
2.20025e-11
4.00807e-11
1.76489e-11
4.31728e-11
1.42128e-11
4.33625e-11
1.08595e-11
4.05691e-11
8.1816e-12
3.61355e-11
6.03204e-12
3.10323e-11
4.0869e-12
2.46029e-11
2.90054e-12
1.9815e-11
1.76877e-12
1.3912e-11
1.15641e-12
1.04116e-11
6.48255e-13
6.51596e-12
4.39772e-13
4.40432e-12
9.26275e-14
2.51557e-12
2.5744e-12
3.27872e-13
5.21973e-13
-2.95746e-12
2.26221e-12
-1.00195e-11
5.47122e-12
-1.87985e-11
1.0281e-11
-2.89847e-11
1.65951e-11
-3.98013e-11
2.39967e-11
-4.99439e-11
3.17278e-11
-5.76955e-11
3.87868e-11
-6.1248e-11
4.41637e-11
-5.92374e-11
4.71258e-11
-5.12396e-11
4.74307e-11
-3.80282e-11
4.53281e-11
-2.1361e-11
4.14746e-11
-3.47516e-12
3.65453e-11
1.33597e-11
3.14119e-11
2.75781e-11
2.61449e-11
3.80998e-11
2.16477e-11
4.47101e-11
1.7217e-11
4.72711e-11
1.37633e-11
4.69033e-11
1.0479e-11
4.36112e-11
7.86358e-12
3.86301e-11
5.79395e-12
3.31127e-11
3.91965e-12
2.61977e-11
2.78232e-12
2.10704e-11
1.69643e-12
1.48117e-11
1.11005e-12
1.10455e-11
6.21544e-13
6.94009e-12
4.23018e-13
4.67713e-12
8.46129e-14
2.68488e-12
2.683e-12
3.21128e-13
6.51102e-13
-3.61235e-12
2.83636e-12
-1.22149e-11
6.85088e-12
-2.28266e-11
1.28061e-11
-3.49528e-11
2.04908e-11
-4.74953e-11
2.92667e-11
-5.87255e-11
3.80859e-11
-6.65177e-11
4.56765e-11
-6.8843e-11
5.08874e-11
-6.4458e-11
5.3037e-11
-5.34082e-11
5.20979e-11
-3.71128e-11
4.86087e-11
-1.79192e-11
4.34642e-11
1.64685e-12
3.75094e-11
1.92103e-11
3.16484e-11
3.34752e-11
2.59424e-11
4.35821e-11
2.12072e-11
4.95702e-11
1.67201e-11
5.14514e-11
1.32668e-11
5.04323e-11
1.00643e-11
4.65958e-11
7.52213e-12
4.10483e-11
5.5384e-12
3.51154e-11
3.74123e-12
2.77268e-11
2.65608e-12
2.22683e-11
1.61933e-12
1.56736e-11
1.06051e-12
1.16481e-11
5.9321e-13
7.34661e-12
4.04972e-13
4.937e-12
7.68823e-14
2.85043e-12
2.77674e-12
3.11966e-13
8.28617e-13
-4.44457e-12
3.62135e-12
-1.50138e-11
8.72073e-12
-2.79307e-11
1.61889e-11
-4.24218e-11
2.5628e-11
-5.69311e-11
3.60735e-11
-6.91657e-11
4.60862e-11
-7.65247e-11
5.40791e-11
-7.68338e-11
5.87975e-11
-6.91815e-11
5.97194e-11
-5.43448e-11
5.71466e-11
-3.4559e-11
5.19631e-11
-1.27803e-11
4.54031e-11
8.18699e-12
3.8337e-11
2.61771e-11
3.17377e-11
4.01076e-11
2.56167e-11
4.94896e-11
2.06724e-11
5.46312e-11
1.61553e-11
5.56874e-11
1.27231e-11
5.39295e-11
9.61606e-12
4.95086e-11
7.15828e-12
4.33803e-11
5.2664e-12
3.70333e-11
3.55245e-12
2.91852e-11
2.52249e-12
2.34053e-11
1.53787e-12
1.64949e-11
1.00805e-12
1.2218e-11
5.63399e-13
7.73416e-12
3.8571e-13
5.18343e-12
6.94882e-14
3.01123e-12
2.8578e-12
3.00148e-13
1.07747e-12
-5.5236e-12
4.7104e-12
-1.86457e-11
1.12892e-11
-3.45033e-11
2.07759e-11
-5.18978e-11
3.24706e-11
-6.86127e-11
4.49266e-11
-8.16097e-11
5.61827e-11
-8.77706e-11
6.43075e-11
-8.49523e-11
6.80402e-11
-7.29152e-11
6.71791e-11
-5.34924e-11
6.25043e-11
-2.98954e-11
5.53356e-11
-5.65086e-12
4.71661e-11
1.63423e-11
3.89662e-11
3.42858e-11
3.16451e-11
4.74603e-11
2.51477e-11
5.57843e-11
2.00333e-11
5.9853e-11
1.55179e-11
5.99468e-11
1.21311e-11
5.73713e-11
9.13412e-12
5.23343e-11
6.77252e-12
4.56157e-11
4.97849e-12
3.88592e-11
3.35374e-12
3.05678e-11
2.38192e-12
2.4478e-11
1.45226e-12
1.7273e-11
9.52857e-13
1.27536e-11
5.32192e-13
8.10143e-12
3.65279e-13
5.41599e-12
6.24501e-14
3.16626e-12
2.92867e-12
2.85469e-13
1.43177e-12
-6.95433e-12
6.24495e-12
-2.34514e-11
1.48722e-11
-4.31165e-11
2.7084e-11
-6.40926e-11
4.16898e-11
-8.3202e-11
5.65277e-11
-9.6435e-11
6.89563e-11
-1.00188e-10
7.67184e-11
-9.27041e-11
7.87326e-11
-7.49257e-11
7.53645e-11
-5.01241e-11
6.8044e-11
-2.25751e-11
5.85728e-11
3.7888e-12
4.86712e-11
2.62381e-11
3.93257e-11
4.35514e-11
3.13289e-11
5.54898e-11
2.45137e-11
6.24092e-11
1.92785e-11
6.51856e-11
1.48032e-11
6.41906e-11
1.14883e-11
6.07321e-11
8.61786e-12
5.50553e-11
6.36483e-12
4.77437e-11
4.67487e-12
4.05855e-11
3.1453e-12
3.18699e-11
2.23458e-12
2.5483e-11
1.36257e-12
1.80055e-11
8.94969e-13
1.32539e-11
4.9962e-13
8.44713e-12
3.43703e-13
5.63426e-12
5.57752e-14
3.31451e-12
2.99164e-12
2.68151e-13
1.94472e-12
-8.8961e-12
8.44937e-12
-2.99445e-11
1.99664e-11
-5.46156e-11
3.59072e-11
-8.00146e-11
5.42761e-11
-1.01555e-10
7.1852e-11
-1.14e-10
8.51436e-11
-1.13468e-10
9.16966e-11
-9.92403e-11
9.09431e-11
-7.41632e-11
8.41609e-11
-4.33314e-11
7.35626e-11
-1.19649e-11
6.15352e-11
1.57926e-11
4.98048e-11
3.79715e-11
3.93472e-11
5.39418e-11
3.07523e-11
6.41208e-11
2.36968e-11
6.92887e-11
1.84042e-11
7.05657e-11
1.40098e-11
6.83771e-11
1.07954e-11
6.39836e-11
8.06867e-12
5.76534e-11
5.93666e-12
4.97532e-11
4.35686e-12
4.22049e-11
2.92804e-12
3.30867e-11
2.08113e-12
2.64172e-11
1.26921e-12
1.86902e-11
8.34659e-13
1.37176e-11
4.65815e-13
8.77013e-12
3.21063e-13
5.83784e-12
4.94411e-14
3.45508e-12
3.04868e-12
2.48541e-13
2.70059e-12
-1.1593e-11
1.16815e-11
-3.891e-11
2.73561e-11
-7.02664e-11
4.84691e-11
-1.01103e-10
7.16933e-11
-1.24759e-10
9.22447e-11
-1.34539e-10
1.05646e-10
-1.26857e-10
1.09601e-10
-1.03171e-10
1.04618e-10
-6.91689e-11
9.33234e-11
-3.20195e-11
7.88283e-11
2.55109e-12
6.39816e-11
3.06209e-11
5.04297e-11
5.15317e-11
3.89544e-11
6.53615e-11
2.9878e-11
7.32378e-11
2.26812e-11
7.63262e-11
1.74017e-11
7.59228e-11
1.31359e-11
7.24575e-11
1.00526e-11
6.7096e-11
7.48734e-12
6.01096e-11
5.48905e-12
5.1633e-11
4.02531e-12
4.37103e-11
2.70254e-12
3.42139e-11
1.92199e-12
2.72776e-11
1.17242e-12
1.93247e-11
7.72079e-13
1.41436e-11
4.30831e-13
9.06935e-12
2.97429e-13
6.02634e-12
4.3365e-14
3.58717e-12
3.1017e-12
2.26639e-13
3.8396e-12
-1.54283e-11
1.65355e-11
-5.15798e-11
3.83248e-11
-9.20101e-11
6.67135e-11
-1.29443e-10
9.61388e-11
-1.54146e-10
1.19543e-10
-1.57926e-10
1.31496e-10
-1.38806e-10
1.30663e-10
-1.0231e-10
1.19488e-10
-5.79881e-11
1.02344e-10
-1.48606e-11
8.35508e-11
2.13678e-11
6.56762e-11
4.84785e-11
5.03959e-11
6.68204e-11
3.80691e-11
7.76399e-11
2.86676e-11
8.26835e-11
2.14504e-11
8.34024e-11
1.62654e-11
8.11763e-11
1.21799e-11
7.63793e-11
9.26026e-12
7.00374e-11
6.87439e-12
6.24047e-11
5.0226e-12
5.33717e-11
3.68076e-12
4.50946e-11
2.46913e-12
3.52472e-11
1.75734e-12
2.80616e-11
1.07232e-12
1.99071e-11
7.07312e-13
1.4531e-11
3.94753e-13
9.34373e-12
2.72827e-13
6.19944e-12
3.75812e-14
3.70999e-12
3.1523e-12
2.0286e-13
5.60413e-12
-2.10253e-11
2.40236e-11
-6.99438e-11
5.50253e-11
-1.22909e-10
9.37948e-11
-1.681e-10
1.30957e-10
-1.91224e-10
1.56226e-10
-1.83166e-10
1.63785e-10
-1.46389e-10
1.54828e-10
-9.33346e-11
1.34988e-10
-3.81545e-11
1.10768e-10
9.36457e-12
8.70964e-11
4.50597e-11
6.63292e-11
6.92294e-11
4.95567e-11
8.35976e-11
3.66246e-11
9.05258e-11
2.70946e-11
9.22585e-11
1.99972e-11
9.03775e-11
1.4996e-11
8.62377e-11
1.11444e-11
8.00882e-11
8.42149e-12
7.27752e-11
6.23244e-12
6.45197e-11
4.53903e-12
5.4959e-11
3.32458e-12
4.6351e-11
2.22864e-12
3.61829e-11
1.58777e-12
2.87666e-11
9.693e-13
2.04354e-11
6.4058e-13
1.4879e-11
3.57713e-13
9.5923e-12
2.47372e-13
6.3568e-12
3.19572e-14
3.82295e-12
3.2016e-12
1.77543e-13
8.4179e-12
-2.94268e-11
3.59049e-11
-9.73035e-11
8.11506e-11
-1.67914e-10
1.34934e-10
-2.21617e-10
1.8124e-10
-2.37328e-10
2.05485e-10
-2.07346e-10
2.03344e-10
-1.44326e-10
1.81441e-10
-7.14353e-11
1.50001e-10
-6.72419e-12
1.17669e-10
4.16934e-11
8.89873e-11
7.37592e-11
6.56345e-11
9.25717e-11
4.77644e-11
1.0147e-10
3.45603e-11
1.03683e-10
2.51398e-11
1.01721e-10
1.83168e-11
9.70965e-11
1.35952e-11
9.10119e-11
1.00321e-11
8.35287e-11
7.53842e-12
7.52776e-11
5.56335e-12
6.6436e-11
4.03984e-12
5.63847e-11
2.95765e-12
4.74735e-11
1.98173e-12
3.70174e-11
1.41364e-12
2.93908e-11
8.6357e-13
2.09077e-11
5.71904e-13
1.51868e-11
3.19904e-13
9.81389e-12
2.21199e-13
6.49819e-12
2.64111e-14
3.92567e-12
3.25039e-12
1.51023e-13
1.3029e-11
-4.24176e-11
5.52694e-11
-1.39265e-10
1.23162e-10
-2.35271e-10
1.9896e-10
-2.96804e-10
2.54736e-10
-2.92608e-10
2.7106e-10
-2.23466e-10
2.5009e-10
-1.23515e-10
2.08684e-10
-3.00644e-11
1.62928e-10
3.90388e-11
1.21819e-10
8.28075e-11
8.85673e-11
1.07031e-10
6.32803e-11
1.17861e-10
4.4888e-11
1.19869e-10
3.18305e-11
1.16695e-10
2.27924e-11
1.10796e-10
1.64102e-11
1.03392e-10
1.20661e-11
9.54012e-11
8.84627e-12
8.66457e-11
6.61351e-12
7.75139e-11
4.86868e-12
6.81356e-11
3.52602e-12
5.76392e-11
2.58064e-12
4.84566e-11
1.72884e-12
3.77471e-11
1.23525e-12
2.99321e-11
7.55383e-13
2.13222e-11
5.01723e-13
1.54537e-11
2.80578e-13
1.00085e-11
1.94257e-13
6.62265e-12
2.09862e-14
4.01766e-12
3.29881e-12
1.24019e-13
2.07802e-11
-6.31086e-11
8.76284e-11
-2.05541e-10
1.9275e-10
-3.39257e-10
3.01425e-10
-4.04124e-10
3.63195e-10
-3.53179e-10
3.56439e-10
-2.1608e-10
3.01814e-10
-6.91655e-11
2.33431e-10
3.82284e-11
1.71116e-10
1.01377e-10
1.21738e-10
1.32204e-10
8.51724e-11
1.43619e-10
5.89971e-11
1.44051e-10
4.08391e-11
1.38041e-10
2.84195e-11
1.29073e-10
2.00583e-11
1.19188e-10
1.42879e-11
1.09091e-10
1.04174e-11
9.93096e-11
7.59345e-12
8.93858e-11
5.65113e-12
7.94553e-11
4.15139e-12
6.96024e-11
2.99944e-12
5.87139e-11
2.19492e-12
4.92952e-11
1.47078e-12
3.8369e-11
1.05322e-12
3.0389e-11
6.4512e-13
2.16772e-11
4.302e-13
1.56792e-11
2.40402e-13
1.01757e-11
1.66703e-13
6.72975e-12
1.57529e-14
4.09849e-12
3.35037e-12
9.32515e-14
3.41091e-11
-9.70225e-11
1.42742e-10
-3.13097e-10
3.11505e-10
-5.05798e-10
4.70731e-10
-5.60581e-10
5.23823e-10
-4.03624e-10
4.61998e-10
-1.52536e-10
3.52236e-10
4.00722e-11
2.49804e-10
1.40461e-10
1.71085e-10
1.80087e-10
1.15936e-10
1.87363e-10
7.82201e-11
1.81351e-10
5.25896e-11
1.69697e-10
3.55748e-11
1.55075e-10
2.43343e-11
1.4028e-10
1.69559e-11
1.26591e-10
1.19651e-11
1.14024e-10
8.65966e-12
1.02645e-10
6.28039e-12
9.16996e-11
4.65538e-12
8.1076e-11
3.41401e-12
7.08215e-11
2.46178e-12
5.96009e-11
1.80163e-12
4.99848e-11
1.20825e-12
3.88805e-11
8.68062e-13
3.07601e-11
5.3315e-13
2.19711e-11
3.5753e-13
1.58628e-11
2.00208e-13
1.03144e-11
1.3866e-13
6.81977e-12
1.0788e-14
4.16776e-12
3.40674e-12
6.07301e-14
5.74573e-11
-1.54107e-10
2.37128e-10
-4.91073e-10
5.19867e-10
-7.84917e-10
7.61494e-10
-7.97437e-10
7.58942e-10
-3.96243e-10
5.78576e-10
3.18576e-11
3.88163e-10
2.29567e-10
2.484e-10
2.79879e-10
1.58813e-10
2.69654e-10
1.03038e-10
2.4316e-10
6.7346e-11
2.17057e-10
4.39901e-11
1.93066e-10
2.91201e-11
1.69966e-10
1.96169e-11
1.49758e-10
1.35189e-11
1.32707e-10
9.46363e-12
1.18036e-10
6.80624e-12
1.05326e-10
4.91526e-12
9.35428e-11
3.63105e-12
8.23535e-11
2.65933e-12
7.17802e-11
1.9148e-12
6.02935e-11
1.40213e-12
5.05216e-11
9.41988e-13
3.92795e-11
6.80353e-13
3.10442e-11
4.1986e-13
2.22026e-11
2.83911e-13
1.60043e-11
1.59712e-13
1.04239e-11
1.06375e-13
6.89646e-12
6.41446e-15
4.22096e-12
3.46504e-12
3.13108e-14
9.91288e-11
-2.52702e-10
3.96986e-10
-7.87062e-10
8.92597e-10
-1.27718e-09
1.28521e-09
-1.18656e-09
1.08707e-09
-1.92819e-10
6.82486e-10
4.44484e-10
3.79967e-10
5.31115e-10
2.17212e-10
4.42158e-10
1.30725e-10
3.56092e-10
8.23991e-11
2.91516e-10
5.2589e-11
2.46886e-10
3.33158e-11
2.12348e-10
2.15895e-11
1.81708e-10
1.43513e-11
1.5698e-10
9.80203e-12
1.3727e-10
6.81742e-12
1.20991e-10
4.87659e-12
1.07281e-10
3.51002e-12
9.48788e-11
2.58526e-12
8.32702e-11
1.89257e-12
7.24678e-11
1.3619e-12
6.07865e-11
9.9866e-13
5.0903e-11
6.73746e-13
3.95641e-11
4.91337e-13
3.12408e-11
3.06425e-13
2.23703e-11
2.10169e-13
1.61039e-11
1.2002e-13
1.05034e-11
7.55411e-14
6.95901e-12
4.21187e-15
4.25769e-12
3.52538e-12
3.68002e-15
1.80185e-10
-4.30951e-10
6.75912e-10
-1.27824e-09
1.57169e-09
-2.16714e-09
2.25515e-09
-1.87009e-09
1.5905e-09
4.7012e-10
6.80663e-10
1.35591e-09
2.79822e-10
9.31954e-10
1.45148e-10
5.76774e-10
8.59124e-11
4.15299e-10
5.48496e-11
3.22592e-10
3.45775e-11
2.67167e-10
2.0896e-11
2.26031e-10
1.31817e-11
1.89432e-10
8.65692e-12
1.61497e-10
5.86834e-12
1.40066e-10
4.06029e-12
1.22782e-10
2.89016e-12
1.08458e-10
2.07525e-12
9.56794e-11
1.5282e-12
8.38087e-11
1.11497e-12
7.28825e-11
8.0506e-13
6.10737e-11
5.86805e-13
5.11327e-11
4.00836e-13
3.97307e-11
2.9674e-13
3.1351e-11
1.90144e-13
2.24711e-11
1.3362e-13
1.61616e-11
7.73286e-14
1.05529e-11
4.81464e-14
7.00076e-12
-3.76059e-15
4.28742e-12
3.59305e-12
-3.53204e-14
3.62083e-10
-3.8423e-10
1.19173e-09
-1.00735e-09
2.76608e-09
-1.80719e-09
4.83637e-09
-1.49651e-09
2.13374e-09
2.55505e-09
3.18486e-10
2.42101e-09
4.55258e-11
9.1771e-10
6.34308e-11
4.30316e-10
4.96394e-11
3.3231e-10
3.60223e-11
2.95111e-10
2.14097e-11
2.81758e-10
1.12591e-11
2.36167e-10
6.84064e-12
1.93844e-10
4.54637e-12
1.63776e-10
3.13731e-12
1.41468e-10
2.17474e-12
1.23726e-10
1.45078e-12
1.09175e-10
8.86761e-13
9.62272e-11
4.87502e-13
8.41943e-11
2.62995e-13
7.30997e-11
1.51379e-13
6.1166e-11
1.09856e-13
5.11737e-11
8.62757e-14
3.97382e-11
7.09389e-14
3.13651e-11
4.57851e-14
2.24879e-11
4.47482e-14
1.61608e-11
1.0179e-13
1.04887e-11
1.92938e-13
6.25889e-12
2.78353e-13
3.25871e-12
3.05171e-13
2.78627e-12
-5.75635e-13
3.76144e-13
3.31718e-13
-2.47111e-13
-2.56582e-13
-7.32068e-14
5.01529e-13
-1.86006e-13
1.39352e-13
-7.67784e-14
7.76248e-13
-3.18572e-13
2.75662e-13
2.91021e-13
6.52671e-13
-2.35012e-13
2.36696e-13
3.24465e-13
2.18913e-13
7.53754e-14
2.81917e-13
-7.94337e-14
4.80353e-17
2.52082e-13
4.73619e-14
2.96613e-14
-1.86506e-13
1.25946e-13
-1.77983e-13
9.68395e-14
-1.77894e-13
-6.17064e-14
-3.77719e-13
1.80121e-13
1.95503e-14
-2.81195e-13
-2.68032e-13
8.77802e-14
4.76871e-14
-7.86069e-14
-6.79667e-15
-1.60243e-13
-7.70592e-14
1.97669e-13
1.1364e-13
-1.9788e-13
-2.65126e-13
2.58065e-13
-7.23872e-14
1.12221e-14
-3.4834e-13
4.24692e-14
-1.80346e-13
1.56652e-14
-5.64838e-14
-2.15289e-13
-5.94759e-14
-3.49019e-14
8.59777e-14
-4.285e-13
2.00611e-13
5.44677e-13
-2.87925e-14
-3.41254e-13
-2.34812e-13
3.29519e-13
-1.38176e-14
-2.048e-13
-1.53378e-13
1.46409e-13
-2.3806e-13
-1.05262e-13
2.60793e-13
6.35696e-14
-2.15688e-13
-1.16817e-14
2.96007e-13
2.4906e-14
6.76361e-14
5.13086e-14
-5.00866e-14
-4.82958e-14
2.20177e-13
9.8918e-14
5.95323e-14
-2.02247e-14
7.75997e-14
3.43835e-14
1.30659e-13
1.04773e-13
-8.55353e-14
-7.91689e-14
1.56584e-13
1.87672e-13
-2.08589e-13
-1.35397e-13
8.98234e-15
1.30334e-13
1.14819e-14
-3.77329e-15
-2.44708e-13
-3.97204e-14
2.43049e-13
1.43878e-13
-1.91915e-13
-1.14927e-13
1.72785e-13
1.72071e-13
1.02414e-13
-8.42905e-15
-9.51926e-14
4.35929e-14
1.08331e-13
9.62262e-14
-2.18998e-13
-1.47319e-13
-6.23858e-14
8.50386e-14
-4.42297e-13
5.47794e-14
5.49157e-13
1.44001e-13
-3.42942e-13
-3.44818e-13
3.22907e-13
1.17951e-13
-2.05048e-13
-1.99547e-13
1.41619e-13
-1.80579e-13
-1.05236e-13
2.44354e-13
6.54173e-14
-2.11753e-13
-1.58352e-14
2.84169e-13
2.12728e-14
5.00489e-14
4.97921e-14
-1.60052e-14
-5.13712e-14
1.87464e-13
9.6963e-14
8.4142e-14
-1.64648e-14
3.45361e-14
3.23806e-14
1.54676e-13
1.08855e-13
-9.97329e-14
-8.3785e-14
1.31599e-13
1.94579e-13
-1.47397e-13
-1.3707e-13
-4.91993e-14
1.32424e-13
7.60411e-14
-7.35094e-15
-2.97163e-13
-3.16297e-14
2.5392e-13
1.43031e-13
-1.63694e-13
-1.04535e-13
7.7116e-14
1.7007e-13
1.9254e-13
-6.15799e-15
-2.14316e-13
3.70888e-14
1.85745e-13
9.82212e-14
-2.10936e-13
-1.5069e-13
-7.61982e-14
7.95201e-14
-4.51313e-13
-6.03454e-14
5.44524e-13
2.76401e-13
-3.35867e-13
-4.19213e-13
3.17138e-13
2.17591e-13
-1.97434e-13
-2.23246e-13
1.44239e-13
-1.44649e-13
-1.02104e-13
2.45459e-13
6.61572e-14
-2.18544e-13
-1.71543e-14
2.84386e-13
1.73413e-14
2.70565e-14
5.70789e-14
1.17158e-14
-4.88262e-14
1.59453e-13
9.34982e-14
1.08702e-13
-1.47933e-14
-1.97994e-15
2.57588e-14
1.72495e-13
1.10489e-13
-1.09338e-13
-9.05471e-14
1.08855e-13
1.95557e-13
-9.78725e-14
-1.35554e-13
-9.31183e-14
1.32714e-13
1.19418e-13
-4.37329e-15
-3.27794e-13
-3.20644e-14
2.48963e-13
1.4381e-13
-1.27731e-13
-1.03959e-13
-1.39646e-14
1.67246e-13
2.70783e-13
-1.07481e-14
-3.09552e-13
2.84413e-14
2.45931e-13
1.01179e-13
-2.00258e-13
-1.43478e-13
-8.79495e-14
7.98243e-14
-4.52325e-13
-1.48896e-13
5.3548e-13
3.79887e-13
-3.26637e-13
-4.67795e-13
3.0887e-13
2.93663e-13
-1.89476e-13
-2.30591e-13
1.42848e-13
-1.23405e-13
-9.73263e-14
2.56887e-13
6.50634e-14
-2.3151e-13
-1.58155e-14
2.9133e-13
1.35128e-14
2.16497e-15
5.42366e-14
4.22585e-14
-4.87422e-14
1.29439e-13
8.97039e-14
1.30531e-13
-1.15084e-14
-3.40524e-14
1.98805e-14
1.85909e-13
1.11776e-13
-1.14752e-13
-9.55827e-14
8.78325e-14
1.96001e-13
-5.88339e-14
-1.31713e-13
-1.2555e-13
1.2936e-13
1.48573e-13
2.11635e-16
-3.43762e-13
-3.43761e-14
2.3379e-13
1.47523e-13
-9.06129e-14
-1.02927e-13
-9.73135e-14
1.67331e-13
3.35182e-13
-1.54996e-14
-3.79568e-13
2.69514e-14
2.83928e-13
1.00607e-13
-1.79151e-13
-1.38863e-13
-1.01097e-13
8.36768e-14
-4.48208e-13
-2.14905e-13
5.24165e-13
4.62674e-13
-3.16238e-13
-4.97399e-13
2.99736e-13
3.51876e-13
-1.80813e-13
-2.26142e-13
1.3934e-13
-1.11798e-13
-9.09717e-14
2.73543e-13
6.21896e-14
-2.46366e-13
-1.32386e-14
3.01315e-13
6.95517e-15
-1.99917e-14
5.48723e-14
6.87447e-14
-4.84469e-14
1.0126e-13
8.61932e-14
1.49277e-13
-8.54883e-15
-6.12306e-14
1.42249e-14
1.94952e-13
1.13128e-13
-1.16661e-13
-9.88305e-14
6.75742e-14
1.94912e-13
-2.73291e-14
-1.25726e-13
-1.50465e-13
1.24247e-13
1.68326e-13
5.98791e-15
-3.49373e-13
-3.76249e-14
2.11822e-13
1.5215e-13
-5.50697e-14
-1.02526e-13
-1.71344e-13
1.66824e-13
3.86414e-13
-1.92162e-14
-4.27412e-13
2.51395e-14
3.02741e-13
1.008e-13
-1.50096e-13
-1.35534e-13
-1.155e-13
9.00723e-14
-4.40718e-13
-2.61463e-13
5.11917e-13
5.29626e-13
-3.05826e-13
-5.11309e-13
2.89967e-13
3.95495e-13
-1.71314e-13
-2.13549e-13
1.34805e-13
-1.06348e-13
-8.33616e-14
2.92125e-13
5.75377e-14
-2.59419e-13
-9.70691e-15
3.11112e-13
4.43138e-17
-3.75813e-14
5.67144e-14
8.90341e-14
-4.75867e-14
7.61036e-14
8.29909e-14
1.64842e-13
-5.76213e-15
-8.30254e-14
8.9627e-15
1.99428e-13
1.1422e-13
-1.15061e-13
-1.00774e-13
4.72061e-14
1.92707e-13
-1.4059e-15
-1.17956e-13
-1.70757e-13
1.17957e-13
1.82129e-13
1.22164e-14
-3.47149e-13
-4.09894e-14
1.84592e-13
1.56861e-13
-2.20488e-14
-1.02318e-13
-2.35576e-13
1.65297e-13
4.25665e-13
-2.12427e-14
-4.56705e-13
2.29394e-14
3.05588e-13
1.00691e-13
-1.13991e-13
-1.33183e-13
-1.316e-13
9.81457e-14
-4.30919e-13
-2.90731e-13
4.99472e-13
5.83132e-13
-2.95718e-13
-5.10702e-13
2.79275e-13
4.26794e-13
-1.60995e-13
-1.96017e-13
1.28543e-13
-1.03414e-13
-7.4981e-14
3.09444e-13
5.27242e-14
-2.69291e-13
-4.37761e-15
3.18381e-13
-6.93082e-15
-4.82718e-14
5.78596e-14
1.03168e-13
-4.63307e-14
5.34911e-14
7.92372e-14
1.77712e-13
-2.39576e-15
-1.0044e-13
3.47002e-15
2.00439e-13
1.15112e-13
-1.10649e-13
-1.01709e-13
2.63559e-14
1.89266e-13
2.04475e-14
-1.07713e-13
-1.89776e-13
1.11149e-13
1.93126e-13
1.85143e-14
-3.38317e-13
-4.37632e-14
1.52474e-13
1.60779e-13
8.96725e-15
-1.01779e-13
-2.90612e-13
1.62679e-13
4.54329e-13
-2.13952e-14
-4.70918e-13
1.92741e-14
2.96645e-13
1.01005e-13
-7.33496e-14
-1.29765e-13
-1.50507e-13
1.08893e-13
-4.19693e-13
-3.03954e-13
4.86809e-13
6.24079e-13
-2.83418e-13
-4.9846e-13
2.75892e-13
4.41595e-13
-1.50977e-13
-1.6687e-13
1.21057e-13
-1.01357e-13
-6.56554e-14
3.22869e-13
4.64397e-14
-2.73258e-13
8.35901e-16
3.2144e-13
-1.4425e-14
-5.11898e-14
5.8414e-14
1.10582e-13
-4.53695e-14
3.38117e-14
7.50206e-14
1.87521e-13
1.37664e-15
-1.14178e-13
-1.20324e-15
1.97892e-13
1.16205e-13
-1.03588e-13
-1.01341e-13
4.9621e-15
1.84866e-13
3.95006e-14
-9.30361e-14
-2.1229e-13
1.04073e-13
2.05971e-13
2.6992e-14
-3.25875e-13
-4.5887e-14
1.17967e-13
1.63741e-13
3.85164e-14
-1.00471e-13
-3.37354e-13
1.59118e-13
4.73786e-13
-2.07697e-14
-4.72021e-13
1.41347e-14
2.78857e-13
1.04411e-13
-3.33648e-14
-1.26937e-13
-1.68493e-13
1.21482e-13
-4.07382e-13
-3.02178e-13
4.73271e-13
6.53315e-13
-2.70756e-13
-4.75838e-13
2.67907e-13
4.4539e-13
-1.40886e-13
-1.31422e-13
1.12455e-13
-9.84817e-14
-5.59566e-14
3.30567e-13
3.9717e-14
-2.70252e-13
6.34632e-15
3.19226e-13
-2.00174e-14
-4.74377e-14
5.84447e-14
1.13019e-13
-4.39006e-14
1.67533e-14
7.086e-14
1.94187e-13
5.2562e-15
-1.24175e-13
-4.60312e-15
1.91053e-13
1.17588e-13
-9.38296e-14
-1.00399e-13
-1.60383e-14
1.79768e-13
5.58674e-14
-8.07866e-14
-2.35831e-13
9.68175e-14
2.18338e-13
3.617e-14
-3.11317e-13
-4.74658e-14
8.23469e-14
1.65542e-13
6.70399e-14
-9.82079e-14
-3.76883e-13
1.5551e-13
4.84547e-13
-1.84899e-14
-4.61867e-13
1.0758e-14
2.52791e-13
1.06026e-13
8.79208e-15
-1.26534e-13
-1.84501e-13
1.33131e-13
-3.93893e-13
-2.8652e-13
4.58998e-13
6.7149e-13
-2.60029e-13
-4.41421e-13
2.57344e-13
4.3913e-13