/*--------------------------------*- C++ -*----------------------------------*\
| =========                 |                                                 |
| \\      /  F ield         | OpenFOAM: The Open Source CFD Toolbox           |
|  \\    /   O peration     | Version:  2.4.0                                 |
|   \\  /    A nd           | Web:      www.OpenFOAM.org                      |
|    \\/     M anipulation  |                                                 |
\*---------------------------------------------------------------------------*/
FoamFile
{
    version     2.0;
    format      ascii;
    class       volVectorField;
    location    "0.14";
    object      U;
}
// * * * * * * * * * * * * * * * * * * * * * * * * * * * * * * * * * * * * * //

dimensions      [0 1 -1 0 0 0 0];

internalField   nonuniform List<vector> 
60000
(
(-7.46071e-08 3.36399e-08 0)
(-2.83966e-07 3.31201e-08 0)
(-5.2899e-07 3.79169e-08 0)
(-7.79347e-07 3.51999e-08 0)
(-1.02129e-06 3.30945e-08 0)
(-1.25054e-06 3.01635e-08 0)
(-1.46563e-06 2.69742e-08 0)
(-1.66436e-06 2.33954e-08 0)
(-1.84464e-06 1.93848e-08 0)
(-2.00433e-06 1.50928e-08 0)
(-2.14176e-06 1.0632e-08 0)
(-2.25565e-06 6.12399e-09 0)
(-2.34492e-06 1.61245e-09 0)
(-2.40874e-06 -2.84721e-09 0)
(-2.44643e-06 -7.27172e-09 0)
(-2.45773e-06 -1.16725e-08 0)
(-2.44218e-06 -1.53661e-08 0)
(-2.39972e-06 -1.90235e-08 0)
(-2.33128e-06 -2.24746e-08 0)
(-2.23791e-06 -2.5591e-08 0)
(-2.1208e-06 -2.82597e-08 0)
(-1.98156e-06 -3.04212e-08 0)
(-1.82217e-06 -3.20139e-08 0)
(-1.64487e-06 -3.30559e-08 0)
(-1.45219e-06 -3.34726e-08 0)
(-1.24693e-06 -3.32736e-08 0)
(-1.03215e-06 -3.23939e-08 0)
(-8.11144e-07 -3.08368e-08 0)
(-5.87357e-07 -2.85842e-08 0)
(-3.63609e-07 -2.55376e-08 0)
(-1.43197e-07 -2.25192e-08 0)
(6.88437e-08 -1.93126e-08 0)
(2.70516e-07 -1.47814e-08 0)
(4.60289e-07 -1.0186e-08 0)
(6.35049e-07 -5.54492e-09 0)
(7.92379e-07 -6.45189e-11 0)
(9.30808e-07 4.76247e-09 0)
(1.0501e-06 9.56741e-09 0)
(1.14903e-06 1.44407e-08 0)
(1.22704e-06 1.90212e-08 0)
(1.28442e-06 2.33244e-08 0)
(1.32165e-06 2.73073e-08 0)
(1.33932e-06 3.11775e-08 0)
(1.33856e-06 3.46838e-08 0)
(1.32063e-06 3.70692e-08 0)
(1.28592e-06 3.92109e-08 0)
(1.23575e-06 4.07926e-08 0)
(1.17187e-06 4.2075e-08 0)
(1.09505e-06 4.31904e-08 0)
(1.00579e-06 4.41632e-08 0)
(9.04662e-07 4.51149e-08 0)
(7.91938e-07 4.61418e-08 0)
(6.67826e-07 4.71365e-08 0)
(5.32342e-07 4.82548e-08 0)
(3.8493e-07 4.9518e-08 0)
(2.25096e-07 5.09147e-08 0)
(5.19725e-08 5.26125e-08 0)
(-1.35683e-07 5.45086e-08 0)
(-3.39013e-07 5.66408e-08 0)
(-5.59177e-07 5.8926e-08 0)
(-7.97272e-07 6.13618e-08 0)
(-1.05433e-06 6.39044e-08 0)
(-1.3311e-06 6.64917e-08 0)
(-1.62807e-06 6.89499e-08 0)
(-1.94521e-06 7.13118e-08 0)
(-2.28228e-06 7.33825e-08 0)
(-2.63867e-06 7.52438e-08 0)
(-3.01327e-06 7.67228e-08 0)
(-3.40467e-06 7.77021e-08 0)
(-3.81098e-06 7.81989e-08 0)
(-4.23015e-06 7.81764e-08 0)
(-4.66029e-06 7.76596e-08 0)
(-5.09909e-06 7.65015e-08 0)
(-5.54379e-06 7.4646e-08 0)
(-5.99143e-06 7.20724e-08 0)
(-6.43965e-06 6.91623e-08 0)
(-6.88586e-06 6.55215e-08 0)
(-7.32706e-06 6.13771e-08 0)
(-7.76072e-06 5.6663e-08 0)
(-8.18443e-06 5.22106e-08 0)
(-8.59578e-06 4.66732e-08 0)
(-8.99268e-06 4.0982e-08 0)
(-9.37338e-06 3.50768e-08 0)
(-9.73644e-06 2.90988e-08 0)
(-1.00804e-05 2.27366e-08 0)
(-1.04039e-05 1.63398e-08 0)
(-1.07062e-05 9.96309e-09 0)
(-1.09877e-05 3.97287e-09 0)
(-1.12488e-05 -1.94267e-09 0)
(-1.14894e-05 -7.67453e-09 0)
(-1.17097e-05 -1.31619e-08 0)
(-1.19106e-05 -1.82523e-08 0)
(-1.20904e-05 -2.35992e-08 0)
(-1.22532e-05 -2.76448e-08 0)
(-1.23871e-05 -3.4079e-08 0)
(-1.25136e-05 -3.58989e-08 0)
(-1.2598e-05 -4.20211e-08 0)
(-1.26924e-05 -3.9635e-08 0)
(-1.27192e-05 -4.9764e-08 0)
(-1.27021e-05 -3.26051e-08 0)
(-1.03312e-07 1.51227e-07 0)
(-4.75298e-07 2.03859e-07 0)
(-9.28695e-07 2.24178e-07 0)
(-1.38581e-06 2.20944e-07 0)
(-1.83897e-06 2.12778e-07 0)
(-2.27523e-06 2.01799e-07 0)
(-2.69392e-06 1.89261e-07 0)
(-3.09119e-06 1.74945e-07 0)
(-3.46443e-06 1.58704e-07 0)
(-3.81054e-06 1.40797e-07 0)
(-4.12663e-06 1.21483e-07 0)
(-4.40985e-06 1.00982e-07 0)
(-4.65739e-06 7.93993e-08 0)
(-4.86664e-06 5.69363e-08 0)
(-5.03539e-06 3.37434e-08 0)
(-5.16159e-06 9.99025e-09 0)
(-5.24383e-06 -1.34203e-08 0)
(-5.28113e-06 -3.68043e-08 0)
(-5.27296e-06 -6.02931e-08 0)
(-5.21946e-06 -8.30318e-08 0)
(-5.12112e-06 -1.04693e-07 0)
(-4.97897e-06 -1.24966e-07 0)
(-4.79454e-06 -1.43541e-07 0)
(-4.5699e-06 -1.60243e-07 0)
(-4.30752e-06 -1.74768e-07 0)
(-4.01051e-06 -1.86869e-07 0)
(-3.68241e-06 -1.96329e-07 0)
(-3.32713e-06 -2.02921e-07 0)
(-2.94909e-06 -2.06527e-07 0)
(-2.55269e-06 -2.06919e-07 0)
(-2.1429e-06 -2.052e-07 0)
(-1.72552e-06 -2.01176e-07 0)
(-1.30482e-06 -1.93227e-07 0)
(-8.84714e-07 -1.83238e-07 0)
(-4.68777e-07 -1.71319e-07 0)
(-6.21515e-08 -1.57844e-07 0)
(3.3174e-07 -1.43075e-07 0)
(7.11917e-07 -1.27455e-07 0)
(1.07448e-06 -1.10459e-07 0)
(1.41684e-06 -9.33484e-08 0)
(1.73775e-06 -7.61796e-08 0)
(2.03621e-06 -5.92804e-08 0)
(2.31135e-06 -4.23307e-08 0)
(2.5623e-06 -2.63017e-08 0)
(2.79023e-06 -1.19012e-08 0)
(2.99539e-06 2.23004e-09 0)
(3.17753e-06 1.48554e-08 0)
(3.33767e-06 2.66712e-08 0)
(3.47576e-06 3.82667e-08 0)
(3.59132e-06 4.91529e-08 0)
(3.6845e-06 5.96144e-08 0)
(3.75593e-06 7.05012e-08 0)
(3.80607e-06 8.12497e-08 0)
(3.83464e-06 9.23064e-08 0)
(3.84042e-06 1.03905e-07 0)
(3.82254e-06 1.15948e-07 0)
(3.77961e-06 1.2908e-07 0)
(3.70959e-06 1.43153e-07 0)
(3.61058e-06 1.58273e-07 0)
(3.48057e-06 1.74351e-07 0)
(3.31741e-06 1.91467e-07 0)
(3.119e-06 2.094e-07 0)
(2.88356e-06 2.28048e-07 0)
(2.60957e-06 2.46887e-07 0)
(2.29609e-06 2.65781e-07 0)
(1.94263e-06 2.84289e-07 0)
(1.54902e-06 3.02451e-07 0)
(1.11548e-06 3.19715e-07 0)
(6.4291e-07 3.35639e-07 0)
(1.32695e-07 3.50093e-07 0)
(-4.1353e-07 3.62994e-07 0)
(-9.94239e-07 3.74315e-07 0)
(-1.60745e-06 3.83584e-07 0)
(-2.25108e-06 3.90418e-07 0)
(-2.92232e-06 3.95243e-07 0)
(-3.61862e-06 3.98167e-07 0)
(-4.33738e-06 3.98483e-07 0)
(-5.07528e-06 3.96417e-07 0)
(-5.82849e-06 3.91977e-07 0)
(-6.594e-06 3.86371e-07 0)
(-7.36835e-06 3.77481e-07 0)
(-8.14796e-06 3.67764e-07 0)
(-8.93091e-06 3.56149e-07 0)
(-9.71581e-06 3.43509e-07 0)
(-1.05015e-05 3.29369e-07 0)
(-1.12863e-05 3.14345e-07 0)
(-1.20683e-05 2.98853e-07 0)
(-1.28475e-05 2.83863e-07 0)
(-1.36232e-05 2.68593e-07 0)
(-1.43944e-05 2.53181e-07 0)
(-1.51601e-05 2.37833e-07 0)
(-1.59203e-05 2.22534e-07 0)
(-1.66694e-05 2.06213e-07 0)
(-1.74147e-05 1.90883e-07 0)
(-1.81276e-05 1.69862e-07 0)
(-1.88562e-05 1.56918e-07 0)
(-1.95028e-05 1.30863e-07 0)
(-2.01881e-05 1.14444e-07 0)
(-2.06751e-05 3.78845e-08 0)
(-2.09649e-05 -6.16807e-08 0)
(-1.17237e-07 3.09092e-07 0)
(-5.66209e-07 4.46383e-07 0)
(-1.11563e-06 4.81799e-07 0)
(-1.66981e-06 4.82566e-07 0)
(-2.22285e-06 4.68557e-07 0)
(-2.7592e-06 4.49258e-07 0)
(-3.27738e-06 4.26566e-07 0)
(-3.77296e-06 4.00629e-07 0)
(-4.24343e-06 3.71301e-07 0)
(-4.68551e-06 3.3876e-07 0)
(-5.09603e-06 3.03273e-07 0)
(-5.47183e-06 2.65045e-07 0)
(-5.80989e-06 2.24211e-07 0)
(-6.10724e-06 1.81101e-07 0)
(-6.36118e-06 1.36146e-07 0)
(-6.56932e-06 8.96749e-08 0)
(-6.72968e-06 4.21761e-08 0)
(-6.84096e-06 -5.6076e-09 0)
(-6.90199e-06 -5.36842e-08 0)
(-6.91214e-06 -1.01017e-07 0)
(-6.87165e-06 -1.47093e-07 0)
(-6.78109e-06 -1.91379e-07 0)
(-6.64152e-06 -2.33299e-07 0)
(-6.45457e-06 -2.72402e-07 0)
(-6.22235e-06 -3.08149e-07 0)
(-5.94762e-06 -3.39901e-07 0)
(-5.63368e-06 -3.67357e-07 0)
(-5.28425e-06 -3.89923e-07 0)
(-4.90361e-06 -4.07309e-07 0)
(-4.49625e-06 -4.19329e-07 0)
(-4.06712e-06 -4.26269e-07 0)
(-3.62155e-06 -4.28287e-07 0)
(-3.16411e-06 -4.24653e-07 0)
(-2.69907e-06 -4.16525e-07 0)
(-2.23033e-06 -4.04183e-07 0)
(-1.76263e-06 -3.89763e-07 0)
(-1.29976e-06 -3.7113e-07 0)
(-8.4349e-07 -3.49981e-07 0)
(-3.97858e-07 -3.26719e-07 0)
(3.38302e-08 -3.02082e-07 0)
(4.50282e-07 -2.75885e-07 0)
(8.50111e-07 -2.49507e-07 0)
(1.23164e-06 -2.22569e-07 0)
(1.59352e-06 -1.96628e-07 0)
(1.93654e-06 -1.71829e-07 0)
(2.26065e-06 -1.46738e-07 0)
(2.56471e-06 -1.23179e-07 0)
(2.84863e-06 -1.00429e-07 0)
(3.11231e-06 -7.74369e-08 0)
(3.35537e-06 -5.52203e-08 0)
(3.57796e-06 -3.35422e-08 0)
(3.78018e-06 -1.14351e-08 0)
(3.96139e-06 1.06143e-08 0)
(4.12086e-06 3.35094e-08 0)
(4.25711e-06 5.78282e-08 0)
(4.36867e-06 8.30894e-08 0)
(4.45371e-06 1.10261e-07 0)
(4.50975e-06 1.39598e-07 0)
(4.5344e-06 1.71136e-07 0)
(4.52518e-06 2.04691e-07 0)
(4.47948e-06 2.4065e-07 0)
(4.39463e-06 2.78494e-07 0)
(4.26833e-06 3.18129e-07 0)
(4.09853e-06 3.58835e-07 0)
(3.88354e-06 3.99989e-07 0)
(3.62223e-06 4.41282e-07 0)
(3.31389e-06 4.82379e-07 0)
(2.95804e-06 5.22579e-07 0)
(2.55487e-06 5.6099e-07 0)
(2.10503e-06 5.97496e-07 0)
(1.60947e-06 6.31865e-07 0)
(1.06909e-06 6.64007e-07 0)
(4.85117e-07 6.9341e-07 0)
(-1.4151e-07 7.19509e-07 0)
(-8.0909e-07 7.42721e-07 0)
(-1.51523e-06 7.62519e-07 0)
(-2.25748e-06 7.7865e-07 0)
(-3.03366e-06 7.90837e-07 0)
(-3.841e-06 7.99108e-07 0)
(-4.67766e-06 8.03949e-07 0)
(-5.54037e-06 8.05596e-07 0)
(-6.42673e-06 8.04478e-07 0)
(-7.33579e-06 8.01128e-07 0)
(-8.26578e-06 7.95419e-07 0)
(-9.21701e-06 7.88264e-07 0)
(-1.01892e-05 7.79213e-07 0)
(-1.11806e-05 7.70194e-07 0)
(-1.21912e-05 7.60589e-07 0)
(-1.3221e-05 7.50374e-07 0)
(-1.42684e-05 7.39425e-07 0)
(-1.5332e-05 7.27785e-07 0)
(-1.64117e-05 7.15053e-07 0)
(-1.75003e-05 6.99897e-07 0)
(-1.86073e-05 6.84067e-07 0)
(-1.9696e-05 6.59372e-07 0)
(-2.08284e-05 6.40222e-07 0)
(-2.18675e-05 5.95387e-07 0)
(-2.29814e-05 5.39735e-07 0)
(-2.3808e-05 3.45323e-07 0)
(-2.44002e-05 -1.5548e-08 0)
(-1.36325e-07 4.88259e-07 0)
(-6.22334e-07 7.13295e-07 0)
(-1.20427e-06 7.71663e-07 0)
(-1.80396e-06 7.7598e-07 0)
(-2.4018e-06 7.57148e-07 0)
(-2.9836e-06 7.29416e-07 0)
(-3.54769e-06 6.96358e-07 0)
(-4.08924e-06 6.58475e-07 0)
(-4.60562e-06 6.15646e-07 0)
(-5.09333e-06 5.67964e-07 0)
(-5.5491e-06 5.15701e-07 0)
(-5.96972e-06 4.59149e-07 0)
(-6.35217e-06 3.98487e-07 0)
(-6.69349e-06 3.34077e-07 0)
(-6.99086e-06 2.66512e-07 0)
(-7.24181e-06 1.9622e-07 0)
(-7.44431e-06 1.23889e-07 0)
(-7.59676e-06 5.04746e-08 0)
(-7.69791e-06 -2.317e-08 0)
(-7.74702e-06 -9.63423e-08 0)
(-7.74407e-06 -1.68132e-07 0)
(-7.68941e-06 -2.37832e-07 0)
(-7.58393e-06 -3.04555e-07 0)
(-7.42915e-06 -3.67571e-07 0)
(-7.22717e-06 -4.26079e-07 0)
(-6.98062e-06 -4.79091e-07 0)
(-6.69283e-06 -5.26067e-07 0)
(-6.36758e-06 -5.66188e-07 0)
(-6.00899e-06 -5.98928e-07 0)
(-5.62158e-06 -6.24062e-07 0)
(-5.21002e-06 -6.41565e-07 0)
(-4.77929e-06 -6.51602e-07 0)
(-4.33393e-06 -6.54015e-07 0)
(-3.87827e-06 -6.49695e-07 0)
(-3.41637e-06 -6.39304e-07 0)
(-2.95259e-06 -6.24305e-07 0)
(-2.49065e-06 -6.03899e-07 0)
(-2.03316e-06 -5.79049e-07 0)
(-1.58337e-06 -5.51461e-07 0)
(-1.14403e-06 -5.20885e-07 0)
(-7.16748e-07 -4.87935e-07 0)
(-3.02739e-07 -4.54169e-07 0)
(9.58504e-08 -4.18704e-07 0)
(4.78323e-07 -3.8433e-07 0)
(8.45129e-07 -3.50905e-07 0)
(1.19586e-06 -3.16931e-07 0)
(1.53e-06 -2.84205e-07 0)
(1.84663e-06 -2.52112e-07 0)
(2.14638e-06 -2.19819e-07 0)
(2.42978e-06 -1.88054e-07 0)
(2.69602e-06 -1.56502e-07 0)
(2.94468e-06 -1.24842e-07 0)
(3.17493e-06 -9.28874e-08 0)
(3.38578e-06 -5.94637e-08 0)
(3.57544e-06 -2.38178e-08 0)
(3.7421e-06 1.36577e-08 0)
(3.88388e-06 5.43233e-08 0)
(3.99817e-06 9.83659e-08 0)
(4.08208e-06 1.45975e-07 0)
(4.13292e-06 1.96989e-07 0)
(4.14807e-06 2.51776e-07 0)
(4.12456e-06 3.09798e-07 0)
(4.05995e-06 3.70823e-07 0)
(3.95193e-06 4.34011e-07 0)
(3.79836e-06 4.98376e-07 0)
(3.59746e-06 5.63643e-07 0)
(3.34816e-06 6.29121e-07 0)
(3.04969e-06 6.93876e-07 0)
(2.70171e-06 7.56731e-07 0)
(2.30425e-06 8.17539e-07 0)
(1.85768e-06 8.75889e-07 0)
(1.36254e-06 9.3156e-07 0)
(8.19821e-07 9.84005e-07 0)
(2.30383e-07 1.03275e-06 0)
(-4.04672e-07 1.07762e-06 0)
(-1.08357e-06 1.11805e-06 0)
(-1.80437e-06 1.15399e-06 0)
(-2.56583e-06 1.18508e-06 0)
(-3.3661e-06 1.21096e-06 0)
(-4.20376e-06 1.23234e-06 0)
(-5.07702e-06 1.25049e-06 0)
(-5.98415e-06 1.26402e-06 0)
(-6.925e-06 1.27575e-06 0)
(-7.89815e-06 1.28404e-06 0)
(-8.90395e-06 1.29142e-06 0)
(-9.94308e-06 1.2965e-06 0)
(-1.10149e-05 1.3024e-06 0)
(-1.21203e-05 1.30696e-06 0)
(-1.32597e-05 1.31071e-06 0)
(-1.44319e-05 1.31322e-06 0)
(-1.56354e-05 1.31427e-06 0)
(-1.68705e-05 1.31308e-06 0)
(-1.81293e-05 1.30795e-06 0)
(-1.94224e-05 1.29994e-06 0)
(-2.07081e-05 1.27996e-06 0)
(-2.2055e-05 1.25993e-06 0)
(-2.33055e-05 1.2018e-06 0)
(-2.46569e-05 1.10188e-06 0)
(-2.56758e-05 7.72517e-07 0)
(-2.65055e-05 1.25375e-07 0)
(-1.41369e-07 6.801e-07 0)
(-6.47096e-07 9.89332e-07 0)
(-1.24844e-06 1.07499e-06 0)
(-1.86707e-06 1.08252e-06 0)
(-2.48438e-06 1.05944e-06 0)
(-3.08653e-06 1.02358e-06 0)
(-3.67143e-06 9.80344e-07 0)
(-4.23403e-06 9.30587e-07 0)
(-4.77154e-06 8.74231e-07 0)
(-5.28039e-06 8.11347e-07 0)
(-5.75729e-06 7.42211e-07 0)
(-6.19889e-06 6.67211e-07 0)
(-6.60207e-06 5.86616e-07 0)
(-6.96388e-06 5.00808e-07 0)
(-7.28142e-06 4.10486e-07 0)
(-7.55215e-06 3.1632e-07 0)
(-7.77409e-06 2.19203e-07 0)
(-7.94557e-06 1.20265e-07 0)
(-8.06527e-06 2.06035e-08 0)
(-8.13242e-06 -7.88179e-08 0)
(-8.14679e-06 -1.76793e-07 0)
(-8.10875e-06 -2.72412e-07 0)
(-8.0192e-06 -3.64454e-07 0)
(-7.87966e-06 -4.51842e-07 0)
(-7.69232e-06 -5.33518e-07 0)
(-7.45991e-06 -6.08226e-07 0)
(-7.18582e-06 -6.75019e-07 0)
(-6.87393e-06 -7.33011e-07 0)
(-6.52838e-06 -7.81439e-07 0)
(-6.15373e-06 -8.19949e-07 0)
(-5.75459e-06 -8.48517e-07 0)
(-5.33577e-06 -8.67066e-07 0)
(-4.90187e-06 -8.76003e-07 0)
(-4.45724e-06 -8.75898e-07 0)
(-4.00609e-06 -8.67852e-07 0)
(-3.55268e-06 -8.52787e-07 0)
(-3.10073e-06 -8.31044e-07 0)
(-2.65324e-06 -8.03218e-07 0)
(-2.21309e-06 -7.71264e-07 0)
(-1.78268e-06 -7.34949e-07 0)
(-1.36362e-06 -6.96191e-07 0)
(-9.56403e-07 -6.56256e-07 0)
(-5.63915e-07 -6.13302e-07 0)
(-1.86904e-07 -5.71783e-07 0)
(1.76069e-07 -5.30474e-07 0)
(5.24447e-07 -4.88818e-07 0)
(8.58118e-07 -4.48396e-07 0)
(1.17622e-06 -4.08184e-07 0)
(1.47947e-06 -3.68313e-07 0)
(1.76867e-06 -3.28957e-07 0)
(2.0428e-06 -2.89396e-07 0)
(2.30138e-06 -2.49465e-07 0)
(2.5434e-06 -2.08578e-07 0)
(2.76775e-06 -1.65549e-07 0)
(2.97247e-06 -1.19715e-07 0)
(3.15571e-06 -7.08175e-08 0)
(3.31536e-06 -1.71777e-08 0)
(3.44866e-06 4.09211e-08 0)
(3.55278e-06 1.04004e-07 0)
(3.62488e-06 1.72089e-07 0)
(3.66227e-06 2.45184e-07 0)
(3.66194e-06 3.22922e-07 0)
(3.62156e-06 4.04913e-07 0)
(3.53866e-06 4.90219e-07 0)
(3.41079e-06 5.7776e-07 0)
(3.23584e-06 6.66991e-07 0)
(3.01253e-06 7.57055e-07 0)
(2.73983e-06 8.4661e-07 0)
(2.41716e-06 9.34579e-07 0)
(2.04406e-06 1.02048e-06 0)
(1.62059e-06 1.10377e-06 0)
(1.14724e-06 1.18396e-06 0)
(6.24912e-07 1.26046e-06 0)
(5.44347e-08 1.3328e-06 0)
(-5.63147e-07 1.40073e-06 0)
(-1.22622e-06 1.46318e-06 0)
(-1.93322e-06 1.52072e-06 0)
(-2.68358e-06 1.57251e-06 0)
(-3.47572e-06 1.61888e-06 0)
(-4.30852e-06 1.65938e-06 0)
(-5.18123e-06 1.69658e-06 0)
(-6.09234e-06 1.72936e-06 0)
(-7.0425e-06 1.75904e-06 0)
(-8.03058e-06 1.78523e-06 0)
(-9.05706e-06 1.81079e-06 0)
(-1.01227e-05 1.83526e-06 0)
(-1.12272e-05 1.8597e-06 0)
(-1.23723e-05 1.88339e-06 0)
(-1.35583e-05 1.90633e-06 0)
(-1.47851e-05 1.92785e-06 0)
(-1.60521e-05 1.94721e-06 0)
(-1.73603e-05 1.96344e-06 0)
(-1.87013e-05 1.97423e-06 0)
(-2.00865e-05 1.97915e-06 0)
(-2.14702e-05 1.96861e-06 0)
(-2.2925e-05 1.95086e-06 0)
(-2.42804e-05 1.88196e-06 0)
(-2.57478e-05 1.73382e-06 0)
(-2.68444e-05 1.26451e-06 0)
(-2.77449e-05 3.00362e-07 0)
(-1.44265e-07 8.77112e-07 0)
(-6.61686e-07 1.27283e-06 0)
(-1.27414e-06 1.38398e-06 0)
(-1.90189e-06 1.39464e-06 0)
(-2.52821e-06 1.36769e-06 0)
(-3.14015e-06 1.324e-06 0)
(-3.73533e-06 1.2708e-06 0)
(-4.30846e-06 1.20927e-06 0)
(-4.85664e-06 1.13942e-06 0)
(-5.37616e-06 1.06134e-06 0)
(-5.8637e-06 9.75316e-07 0)
(-6.31582e-06 8.81791e-07 0)
(-6.72931e-06 7.81147e-07 0)
(-7.10112e-06 6.73822e-07 0)
(-7.42828e-06 5.60574e-07 0)
(-7.70821e-06 4.42364e-07 0)
(-7.9389e-06 3.20301e-07 0)
(-8.11863e-06 1.95632e-07 0)
(-8.24598e-06 6.96975e-08 0)
(-8.32021e-06 -5.61805e-08 0)
(-8.34101e-06 -1.80684e-07 0)
(-8.30865e-06 -3.02468e-07 0)
(-8.22418e-06 -4.20103e-07 0)
(-8.08908e-06 -5.32133e-07 0)
(-7.90567e-06 -6.37114e-07 0)
(-7.67688e-06 -7.33651e-07 0)
(-7.40605e-06 -8.20357e-07 0)
(-7.09727e-06 -8.96201e-07 0)
(-6.75476e-06 -9.6037e-07 0)
(-6.38309e-06 -1.01218e-06 0)
(-5.98706e-06 -1.05183e-06 0)
(-5.57137e-06 -1.07892e-06 0)
(-5.14073e-06 -1.09431e-06 0)
(-4.69957e-06 -1.09836e-06 0)
(-4.25226e-06 -1.09246e-06 0)
(-3.80303e-06 -1.07732e-06 0)
(-3.3558e-06 -1.05396e-06 0)
(-2.91362e-06 -1.02301e-06 0)
(-2.47926e-06 -9.86564e-07 0)
(-2.05511e-06 -9.44746e-07 0)
(-1.64254e-06 -8.99819e-07 0)
(-1.24151e-06 -8.5341e-07 0)
(-8.55428e-07 -8.03634e-07 0)
(-4.85028e-07 -7.55317e-07 0)
(-1.28017e-07 -7.06479e-07 0)
(2.14751e-07 -6.57704e-07 0)
(5.43999e-07 -6.10237e-07 0)
(8.59011e-07 -5.62665e-07 0)
(1.16009e-06 -5.15928e-07 0)
(1.44825e-06 -4.69718e-07 0)
(1.72247e-06 -4.22922e-07 0)
(1.98228e-06 -3.75386e-07 0)
(2.22658e-06 -3.26269e-07 0)
(2.4543e-06 -2.74228e-07 0)
(2.66329e-06 -2.18569e-07 0)
(2.85162e-06 -1.58623e-07 0)
(3.01704e-06 -9.26795e-08 0)
(3.15678e-06 -2.09366e-08 0)
(3.26801e-06 5.72416e-08 0)
(3.34775e-06 1.41933e-07 0)
(3.39336e-06 2.32942e-07 0)
(3.40174e-06 3.29957e-07 0)
(3.37055e-06 4.32507e-07 0)
(3.29729e-06 5.39605e-07 0)
(3.17934e-06 6.50129e-07 0)
(3.01445e-06 7.63263e-07 0)
(2.80106e-06 8.77864e-07 0)
(2.53793e-06 9.92318e-07 0)
(2.22438e-06 1.10559e-06 0)
(1.85985e-06 1.21691e-06 0)
(1.44431e-06 1.32549e-06 0)
(9.7828e-07 1.43055e-06 0)
(4.62629e-07 1.53153e-06 0)
(-1.01804e-07 1.6278e-06 0)
(-7.14137e-07 1.71925e-06 0)
(-1.37238e-06 1.80402e-06 0)
(-2.07521e-06 1.88387e-06 0)
(-2.82226e-06 1.957e-06 0)
(-3.61245e-06 2.02486e-06 0)
(-4.4444e-06 2.08543e-06 0)
(-5.31754e-06 2.14314e-06 0)
(-6.23155e-06 2.19643e-06 0)
(-7.1867e-06 2.24548e-06 0)
(-8.18165e-06 2.2921e-06 0)
(-9.21727e-06 2.33736e-06 0)
(-1.02952e-05 2.38291e-06 0)
(-1.1415e-05 2.42808e-06 0)
(-1.25781e-05 2.47285e-06 0)
(-1.37853e-05 2.51746e-06 0)
(-1.50372e-05 2.56077e-06 0)
(-1.63337e-05 2.6016e-06 0)
(-1.76763e-05 2.63855e-06 0)
(-1.90564e-05 2.66844e-06 0)
(-2.04868e-05 2.68928e-06 0)
(-2.19185e-05 2.6908e-06 0)
(-2.34284e-05 2.67698e-06 0)
(-2.48371e-05 2.59757e-06 0)
(-2.63638e-05 2.39678e-06 0)
(-2.74963e-05 1.77769e-06 0)
(-2.8422e-05 4.67353e-07 0)
(-1.46995e-07 1.07754e-06 0)
(-6.72972e-07 1.56133e-06 0)
(-1.29327e-06 1.69657e-06 0)
(-1.92729e-06 1.70995e-06 0)
(-2.55961e-06 1.6793e-06 0)
(-3.1781e-06 1.62803e-06 0)
(-3.78012e-06 1.56501e-06 0)
(-4.36023e-06 1.4918e-06 0)
(-4.91543e-06 1.40846e-06 0)
(-5.44194e-06 1.31516e-06 0)
(-5.93637e-06 1.21221e-06 0)
(-6.39522e-06 1.10006e-06 0)
(-6.81513e-06 9.79211e-07 0)
(-7.19291e-06 8.5017e-07 0)
(-7.52557e-06 7.1377e-07 0)
(-7.81044e-06 5.71271e-07 0)
(-8.04555e-06 4.24024e-07 0)
(-8.22912e-06 2.7332e-07 0)
(-8.35957e-06 1.20801e-07 0)
(-8.43615e-06 -3.18622e-08 0)
(-8.45853e-06 -1.83317e-07 0)
(-8.42686e-06 -3.31634e-07 0)
(-8.34228e-06 -4.7514e-07 0)
(-8.2064e-06 -6.1215e-07 0)
(-8.02152e-06 -7.40671e-07 0)
(-7.79073e-06 -8.59196e-07 0)
(-7.51748e-06 -9.66014e-07 0)
(-7.20584e-06 -1.05978e-06 0)
(-6.86033e-06 -1.13971e-06 0)
(-6.48552e-06 -1.20487e-06 0)
(-6.0864e-06 -1.25543e-06 0)
(-5.66778e-06 -1.2911e-06 0)
(-5.2344e-06 -1.3127e-06 0)
(-4.79089e-06 -1.32079e-06 0)
(-4.3418e-06 -1.31664e-06 0)
(-3.89134e-06 -1.3013e-06 0)
(-3.44358e-06 -1.27579e-06 0)
(-3.00171e-06 -1.24147e-06 0)
(-2.56831e-06 -1.20017e-06 0)
(-2.14589e-06 -1.15263e-06 0)
(-1.73583e-06 -1.10142e-06 0)
(-1.33736e-06 -1.04798e-06 0)
(-9.54479e-07 -9.91411e-07 0)
(-5.88012e-07 -9.36294e-07 0)
(-2.34481e-07 -8.8014e-07 0)
(1.04752e-07 -8.24596e-07 0)
(4.3109e-07 -7.70371e-07 0)
(7.44376e-07 -7.16059e-07 0)
(1.04427e-06 -6.6276e-07 0)
(1.33182e-06 -6.09995e-07 0)
(1.60606e-06 -5.56416e-07 0)
(1.86653e-06 -5.01713e-07 0)
(2.11225e-06 -4.44774e-07 0)
(2.3422e-06 -3.84119e-07 0)
(2.55402e-06 -3.18934e-07 0)
(2.74581e-06 -2.48193e-07 0)
(2.91526e-06 -1.70324e-07 0)
(3.05944e-06 -8.50862e-08 0)
(3.17554e-06 7.92918e-09 0)
(3.26046e-06 1.0905e-07 0)
(3.31153e-06 2.17866e-07 0)
(3.32544e-06 3.34049e-07 0)
(3.29968e-06 4.57133e-07 0)
(3.23164e-06 5.86011e-07 0)
(3.1186e-06 7.19557e-07 0)
(2.95824e-06 8.56731e-07 0)
(2.74881e-06 9.96056e-07 0)
(2.48903e-06 1.13569e-06 0)
(2.17836e-06 1.27446e-06 0)
(1.81634e-06 1.41138e-06 0)
(1.40289e-06 1.54548e-06 0)
(9.38481e-07 1.67568e-06 0)
(4.2389e-07 1.80142e-06 0)
(-1.40001e-07 1.92186e-06 0)
(-7.52526e-07 2.03652e-06 0)
(-1.411e-06 2.14482e-06 0)
(-2.11417e-06 2.2467e-06 0)
(-2.86195e-06 2.34142e-06 0)
(-3.65336e-06 2.43025e-06 0)
(-4.48667e-06 2.51284e-06 0)
(-5.36138e-06 2.59081e-06 0)
(-6.27796e-06 2.66409e-06 0)
(-7.23556e-06 2.73385e-06 0)
(-8.23372e-06 2.80183e-06 0)
(-9.27383e-06 2.8678e-06 0)
(-1.03573e-05 2.93452e-06 0)
(-1.14845e-05 3.00173e-06 0)
(-1.26563e-05 3.06858e-06 0)
(-1.38735e-05 3.13599e-06 0)
(-1.51372e-05 3.20223e-06 0)
(-1.64473e-05 3.2661e-06 0)
(-1.78061e-05 3.32545e-06 0)
(-1.92051e-05 3.3763e-06 0)
(-2.06592e-05 3.4152e-06 0)
(-2.2117e-05 3.43073e-06 0)
(-2.36594e-05 3.42242e-06 0)
(-2.51009e-05 3.33305e-06 0)
(-2.66666e-05 3.07772e-06 0)
(-2.78289e-05 2.3026e-06 0)
(-2.87826e-05 6.35423e-07 0)
(-1.4996e-07 1.28117e-06 0)
(-6.83454e-07 1.85372e-06 0)
(-1.31065e-06 2.01231e-06 0)
(-1.95064e-06 2.02806e-06 0)
(-2.58873e-06 1.99376e-06 0)
(-3.21333e-06 1.93508e-06 0)
(-3.82162e-06 1.86232e-06 0)
(-4.40806e-06 1.77745e-06 0)
(-4.96958e-06 1.68059e-06 0)
(-5.50229e-06 1.57202e-06 0)
(-6.00274e-06 1.45205e-06 0)
(-6.46738e-06 1.32114e-06 0)
(-6.89266e-06 1.17986e-06 0)
(-7.27527e-06 1.02886e-06 0)
(-7.61227e-06 8.69058e-07 0)
(-7.90096e-06 7.01975e-07 0)
(-8.13921e-06 5.29239e-07 0)
(-8.32521e-06 3.52157e-07 0)
(-8.45722e-06 1.72597e-07 0)
(-8.53436e-06 -7.31746e-09 0)
(-8.55635e-06 -1.86081e-07 0)
(-8.52332e-06 -3.61443e-07 0)
(-8.43636e-06 -5.31229e-07 0)
(-8.29728e-06 -6.93548e-07 0)
(-8.10843e-06 -8.46013e-07 0)
(-7.87283e-06 -9.86796e-07 0)
(-7.59421e-06 -1.11397e-06 0)
(-7.27661e-06 -1.22592e-06 0)
(-6.92477e-06 -1.32163e-06 0)
(-6.54345e-06 -1.40029e-06 0)
(-6.13769e-06 -1.46165e-06 0)
(-5.71257e-06 -1.50587e-06 0)
(-5.27294e-06 -1.53347e-06 0)
(-4.82361e-06 -1.54539e-06 0)
(-4.36933e-06 -1.5426e-06 0)
(-3.91446e-06 -1.52677e-06 0)
(-3.46303e-06 -1.49866e-06 0)
(-3.01834e-06 -1.46056e-06 0)
(-2.58307e-06 -1.41401e-06 0)
(-2.15939e-06 -1.36042e-06 0)
(-1.74898e-06 -1.30254e-06 0)
(-1.35065e-06 -1.24174e-06 0)
(-9.68555e-07 -1.17833e-06 0)
(-6.03549e-07 -1.11589e-06 0)
(-2.5139e-07 -1.0528e-06 0)
(8.60444e-08 -9.9046e-07 0)
(4.1055e-07 -9.29505e-07 0)
(7.22318e-07 -8.68952e-07 0)
(1.02121e-06 -8.09342e-07 0)
(1.30874e-06 -7.50224e-07 0)
(1.58372e-06 -6.90331e-07 0)
(1.84548e-06 -6.28758e-07 0)
(2.09312e-06 -5.64302e-07 0)
(2.32567e-06 -4.95305e-07 0)
(2.54076e-06 -4.20974e-07 0)
(2.73638e-06 -3.39642e-07 0)
(2.91022e-06 -2.50164e-07 0)
(3.05919e-06 -1.51535e-07 0)
(3.18034e-06 -4.38504e-08 0)
(3.27045e-06 7.36384e-08 0)
(3.32667e-06 2.00237e-07 0)
(3.34559e-06 3.35724e-07 0)
(3.32447e-06 4.79515e-07 0)
(3.26059e-06 6.30389e-07 0)
(3.15116e-06 7.87191e-07 0)
(2.99378e-06 9.48703e-07 0)
(2.78673e-06 1.11306e-06 0)
(2.5289e-06 1.27815e-06 0)
(2.21969e-06 1.44263e-06 0)
(1.8585e-06 1.6054e-06 0)
(1.44515e-06 1.76529e-06 0)
(9.80153e-07 1.92093e-06 0)
(4.64398e-07 2.07168e-06 0)
(-1.01141e-07 2.21652e-06 0)
(-7.15268e-07 2.35453e-06 0)
(-1.37587e-06 2.48646e-06 0)
(-2.08177e-06 2.61052e-06 0)
(-2.8318e-06 2.72666e-06 0)
(-3.6249e-06 2.83665e-06 0)
(-4.46032e-06 2.94117e-06 0)
(-5.33759e-06 3.03958e-06 0)
(-6.25582e-06 3.13275e-06 0)
(-7.2145e-06 3.22355e-06 0)
(-8.21439e-06 3.31223e-06 0)
(-9.25632e-06 3.39975e-06 0)
(-1.03414e-05 3.48795e-06 0)
(-1.14708e-05 3.57726e-06 0)
(-1.26454e-05 3.66743e-06 0)
(-1.38663e-05 3.75794e-06 0)
(-1.51356e-05 3.84781e-06 0)
(-1.64526e-05 3.93552e-06 0)
(-1.782e-05 4.01838e-06 0)
(-1.92298e-05 4.09156e-06 0)
(-2.06988e-05 4.15037e-06 0)
(-2.21736e-05 4.18188e-06 0)
(-2.37399e-05 4.18119e-06 0)
(-2.52081e-05 4.08379e-06 0)
(-2.68093e-05 3.77505e-06 0)
(-2.80065e-05 2.84114e-06 0)
(-2.89926e-05 8.11624e-07 0)
(-1.53348e-07 1.48819e-06 0)
(-6.94181e-07 2.14961e-06 0)
(-1.32811e-06 2.33124e-06 0)
(-1.97467e-06 2.34924e-06 0)
(-2.6193e-06 2.31128e-06 0)
(-3.2505e-06 2.24525e-06 0)
(-3.86547e-06 2.16278e-06 0)
(-4.45859e-06 2.06626e-06 0)
(-5.02677e-06 1.95585e-06 0)
(-5.56598e-06 1.8319e-06 0)
(-6.07267e-06 1.6948e-06 0)
(-6.54329e-06 1.54498e-06 0)
(-6.97417e-06 1.38301e-06 0)
(-7.36179e-06 1.20976e-06 0)
(-7.70326e-06 1.02633e-06 0)
(-7.9959e-06 8.34351e-07 0)
(-8.23729e-06 6.35696e-07 0)
(-8.42541e-06 4.3182e-07 0)
(-8.55861e-06 2.24737e-07 0)
(-8.63582e-06 1.69564e-08 0)
(-8.65662e-06 -1.89577e-07 0)
(-8.62136e-06 -3.92447e-07 0)
(-8.53105e-06 -5.89092e-07 0)
(-8.3875e-06 -7.77133e-07 0)
(-8.19326e-06 -9.54002e-07 0)
(-7.9513e-06 -1.11748e-06 0)
(-7.66553e-06 -1.26526e-06 0)
(-7.3402e-06 -1.39576e-06 0)
(-6.98004e-06 -1.50738e-06 0)
(-6.59015e-06 -1.59964e-06 0)
(-6.17561e-06 -1.67187e-06 0)
(-5.74172e-06 -1.72451e-06 0)
(-5.29359e-06 -1.75795e-06 0)
(-4.83637e-06 -1.77333e-06 0)
(-4.37486e-06 -1.77163e-06 0)
(-3.91363e-06 -1.75474e-06 0)
(-3.45689e-06 -1.72371e-06 0)
(-3.00771e-06 -1.6813e-06 0)
(-2.56893e-06 -1.6291e-06 0)
(-2.14258e-06 -1.5691e-06 0)
(-1.73037e-06 -1.50405e-06 0)
(-1.33106e-06 -1.43556e-06 0)
(-9.48829e-07 -1.36509e-06 0)
(-5.84457e-07 -1.29493e-06 0)
(-2.3326e-07 -1.22486e-06 0)
(1.03002e-07 -1.15572e-06 0)
(4.26208e-07 -1.08791e-06 0)
(7.3697e-07 -1.0214e-06 0)
(1.03539e-06 -9.55799e-07 0)
(1.32299e-06 -8.90675e-07 0)
(1.59885e-06 -8.24846e-07 0)
(1.86228e-06 -7.56758e-07 0)
(2.11223e-06 -6.85108e-07 0)
(2.3478e-06 -6.08063e-07 0)
(2.56668e-06 -5.24959e-07 0)
(2.76662e-06 -4.33305e-07 0)
(2.94529e-06 -3.32381e-07 0)
(3.09948e-06 -2.20551e-07 0)
(3.22603e-06 -9.82311e-08 0)
(3.32164e-06 3.55897e-08 0)
(3.3832e-06 1.80032e-07 0)
(3.40728e-06 3.35015e-07 0)
(3.39091e-06 4.99711e-07 0)
(3.33117e-06 6.72894e-07 0)
(3.22505e-06 8.53323e-07 0)
(3.07028e-06 1.03946e-06 0)
(2.86555e-06 1.22905e-06 0)
(2.60972e-06 1.41981e-06 0)
(2.30162e-06 1.61042e-06 0)
(1.94051e-06 1.79948e-06 0)
(1.52639e-06 1.98552e-06 0)
(1.05983e-06 2.16697e-06 0)
(5.41942e-07 2.34293e-06 0)
(-2.60876e-08 2.51235e-06 0)
(-6.42813e-07 2.67435e-06 0)
(-1.30643e-06 2.82897e-06 0)
(-2.01593e-06 2.97515e-06 0)
(-2.76898e-06 3.11375e-06 0)
(-3.56443e-06 3.24496e-06 0)
(-4.40245e-06 3.36984e-06 0)
(-5.28227e-06 3.48894e-06 0)
(-6.20185e-06 3.60297e-06 0)
(-7.1613e-06 3.7138e-06 0)
(-8.16215e-06 3.82291e-06 0)
(-9.20459e-06 3.93188e-06 0)
(-1.02898e-05 4.04182e-06 0)
(-1.14189e-05 4.1532e-06 0)
(-1.25933e-05 4.26692e-06 0)
(-1.38147e-05 4.38099e-06 0)
(-1.50855e-05 4.49529e-06 0)
(-1.64059e-05 4.60765e-06 0)
(-1.77788e-05 4.71513e-06 0)
(-1.91968e-05 4.81204e-06 0)
(-2.06784e-05 4.89266e-06 0)
(-2.21689e-05 4.9425e-06 0)
(-2.3759e-05 4.95225e-06 0)
(-2.52551e-05 4.8499e-06 0)
(-2.68942e-05 4.49071e-06 0)
(-2.81327e-05 3.39629e-06 0)
(-2.91474e-05 9.9566e-07 0)
(-1.57182e-07 1.69887e-06 0)
(-7.0557e-07 2.44895e-06 0)
(-1.34641e-06 2.65359e-06 0)
(-2.00042e-06 2.67401e-06 0)
(-2.65268e-06 2.63227e-06 0)
(-3.29131e-06 2.55894e-06 0)
(-3.91376e-06 2.46673e-06 0)
(-4.51426e-06 2.35853e-06 0)
(-5.08974e-06 2.23455e-06 0)
(-5.63616e-06 2.09511e-06 0)
(-6.14982e-06 1.94073e-06 0)
(-6.62705e-06 1.77184e-06 0)
(-7.06415e-06 1.58895e-06 0)
(-7.45748e-06 1.39314e-06 0)
(-7.804e-06 1.18579e-06 0)
(-8.10104e-06 9.68598e-07 0)
(-8.34599e-06 7.43509e-07 0)
(-8.53646e-06 5.12275e-07 0)
(-8.67083e-06 2.77183e-07 0)
(-8.74808e-06 4.09231e-08 0)
(-8.76747e-06 -1.94079e-07 0)
(-8.72945e-06 -4.25011e-07 0)
(-8.63519e-06 -6.4914e-07 0)
(-8.48638e-06 -8.63463e-07 0)
(-8.28564e-06 -1.06521e-06 0)
(-8.03621e-06 -1.25188e-06 0)
(-7.74199e-06 -1.42068e-06 0)
(-7.40754e-06 -1.56994e-06 0)
(-7.03765e-06 -1.69784e-06 0)
(-6.63754e-06 -1.80373e-06 0)
(-6.21262e-06 -1.88698e-06 0)
(-5.76831e-06 -1.94787e-06 0)
(-5.31006e-06 -1.98703e-06 0)
(-4.84336e-06 -2.00538e-06 0)
(-4.3733e-06 -2.00444e-06 0)
(-3.90445e-06 -1.98593e-06 0)
(-3.44111e-06 -1.95153e-06 0)
(-2.98639e-06 -1.90429e-06 0)
(-2.54313e-06 -1.84596e-06 0)
(-2.11328e-06 -1.7791e-06 0)
(-1.69855e-06 -1.7064e-06 0)
(-1.29797e-06 -1.62985e-06 0)
(-9.15665e-07 -1.55164e-06 0)
(-5.51954e-07 -1.47365e-06 0)
(-2.01776e-07 -1.39625e-06 0)
(1.33489e-07 -1.32044e-06 0)
(4.55613e-07 -1.24586e-06 0)
(7.65638e-07 -1.17347e-06 0)
(1.06389e-06 -1.1022e-06 0)
(1.35162e-06 -1.03146e-06 0)
(1.62844e-06 -9.59902e-07 0)
(1.8937e-06 -8.85805e-07 0)
(2.14615e-06 -8.07381e-07 0)
(2.38496e-06 -7.22657e-07 0)
(2.60806e-06 -6.3103e-07 0)
(2.81279e-06 -5.29419e-07 0)
(2.99673e-06 -4.17127e-07 0)
(3.15668e-06 -2.92401e-07 0)
(3.28921e-06 -1.55398e-07 0)
(3.39083e-06 -5.28455e-09 0)
(3.4581e-06 1.57188e-07 0)
(3.48762e-06 3.31797e-07 0)
(3.4762e-06 5.1762e-07 0)
(3.42064e-06 7.13559e-07 0)
(3.31773e-06 9.18071e-07 0)
(3.16547e-06 1.12906e-06 0)
(2.96289e-06 1.344e-06 0)
(2.70861e-06 1.5608e-06 0)
(2.40109e-06 1.77802e-06 0)
(2.03969e-06 1.99382e-06 0)
(1.6246e-06 2.20639e-06 0)
(1.15635e-06 2.41403e-06 0)
(6.3605e-07 2.61547e-06 0)
(6.50786e-08 2.80963e-06 0)
(-5.54966e-07 2.99574e-06 0)
(-1.2224e-06 3.17336e-06 0)
(-1.93539e-06 3.34144e-06 0)
(-2.69186e-06 3.50242e-06 0)
(-3.49082e-06 3.65457e-06 0)
(-4.33156e-06 3.79988e-06 0)
(-5.21323e-06 3.93919e-06 0)
(-6.13421e-06 4.07371e-06 0)
(-7.09469e-06 4.20451e-06 0)
(-8.09591e-06 4.3339e-06 0)
(-9.13811e-06 4.46383e-06 0)
(-1.02227e-05 4.59547e-06 0)
(-1.13507e-05 4.72902e-06 0)
(-1.25239e-05 4.86573e-06 0)
(-1.37447e-05 5.00407e-06 0)
(-1.50158e-05 5.14347e-06 0)
(-1.63384e-05 5.2816e-06 0)
(-1.77161e-05 5.41498e-06 0)
(-1.91417e-05 5.53746e-06 0)
(-2.06361e-05 5.64213e-06 0)
(-2.21436e-05 5.71323e-06 0)
(-2.37599e-05 5.73703e-06 0)
(-2.52885e-05 5.63367e-06 0)
(-2.69721e-05 5.22823e-06 0)
(-2.82619e-05 3.97161e-06 0)
(-2.93138e-05 1.1869e-06 0)
(-1.614e-07 1.91355e-06 0)
(-7.17809e-07 2.75191e-06 0)
(-1.36603e-06 2.97966e-06 0)
(-2.02838e-06 3.00293e-06 0)
(-2.68938e-06 2.95724e-06 0)
(-3.33634e-06 2.87657e-06 0)
(-3.96712e-06 2.77461e-06 0)
(-4.57586e-06 2.65466e-06 0)
(-5.15948e-06 2.51705e-06 0)