/*--------------------------------*- C++ -*----------------------------------*\
| =========                 |                                                 |
| \\      /  F ield         | OpenFOAM: The Open Source CFD Toolbox           |
|  \\    /   O peration     | Version:  2.4.0                                 |
|   \\  /    A nd           | Web:      www.OpenFOAM.org                      |
|    \\/     M anipulation  |                                                 |
\*---------------------------------------------------------------------------*/
FoamFile
{
    version     2.0;
    format      ascii;
    class       surfaceScalarField;
    location    "0.044";
    object      phi;
}
// * * * * * * * * * * * * * * * * * * * * * * * * * * * * * * * * * * * * * //

dimensions      [0 3 -1 0 0 0 0];

internalField   nonuniform List<scalar> 
7080
(
-5.89896e-09
5.89896e-09
-1.22604e-08
6.3614e-09
-1.88185e-08
6.55811e-09
-2.52027e-08
6.38424e-09
-3.00439e-08
4.84118e-09
-3.25539e-08
2.51004e-09
-3.12555e-08
-1.29839e-09
-2.45224e-08
-6.73312e-09
-1.04803e-08
-1.40421e-08
1.2131e-08
-2.26114e-08
4.22778e-08
-3.01468e-08
7.91285e-08
-3.68507e-08
1.20855e-07
-4.17267e-08
1.6435e-07
-4.34951e-08
2.10276e-07
-4.59259e-08
2.53712e-07
-4.34359e-08
2.80312e-07
-2.65996e-08
1.31365e-07
1.48946e-07
-2.66748e-07
3.98114e-07
-6.53683e-07
3.86935e-07
-4.2097e-07
-2.32713e-07
3.76911e-07
-7.97882e-07
7.40107e-07
-3.63196e-07
6.58643e-07
8.14637e-08
4.48094e-07
2.10549e-07
3.12902e-07
1.35192e-07
2.77327e-07
3.55758e-08
2.25471e-07
5.18552e-08
1.06579e-07
1.18893e-07
1.08724e-07
-2.14537e-09
-7.34172e-09
1.32407e-08
-1.54521e-08
1.44718e-08
-2.42809e-08
1.53869e-08
-3.35551e-08
1.56585e-08
-4.18227e-08
1.31088e-08
-4.83916e-08
9.07897e-09
-5.17985e-08
2.10856e-09
-5.04248e-08
-8.10695e-09
-4.22845e-08
-2.21823e-08
-2.5378e-08
-3.95179e-08
2.37547e-10
-5.57622e-08
3.13023e-08
-6.79155e-08
6.63424e-08
-7.67668e-08
1.01018e-07
-7.81705e-08
1.33368e-07
-7.82766e-08
1.52604e-07
-6.26712e-08
1.45149e-07
-1.91447e-08
4.05945e-08
2.53501e-07
-1.92679e-07
6.31387e-07
-3.97245e-07
5.91501e-07
-2.43986e-07
-3.85971e-07
4.48498e-08
-1.08672e-06
3.34555e-07
-6.52901e-07
3.79716e-07
3.63028e-08
3.28979e-07
2.61286e-07
2.88832e-07
1.75339e-07
2.86103e-07
3.83052e-08
2.43785e-07
9.41731e-08
1.56021e-07
2.06656e-07
2.65689e-07
-9.43564e-10
-7.4939e-09
2.07346e-08
-1.58129e-08
2.27908e-08
-2.49535e-08
2.45275e-08
-3.46927e-08
2.53977e-08
-4.36043e-08
2.20203e-08
-5.10673e-08
1.6542e-08
-5.56858e-08
6.72707e-09
-5.59064e-08
-7.88637e-09
-4.97226e-08
-2.8366e-08
-3.50752e-08
-5.41654e-08
-1.23334e-08
-7.8504e-08
1.66037e-08
-9.68526e-08
4.77336e-08
-1.07897e-07
7.69847e-08
-1.07422e-07
9.96563e-08
-1.00948e-07
1.03676e-07
-6.66911e-08
8.16257e-08
2.90591e-09
3.08835e-08
3.04243e-07
-6.10122e-08
7.23283e-07
-1.52535e-07
6.83023e-07
-4.49891e-08
-4.93517e-07
-3.31502e-08
-1.09856e-06
1.06925e-07
-7.92976e-07
2.0407e-07
-6.0842e-08
1.69931e-07
2.95425e-07
1.29179e-07
2.1609e-07
1.2866e-07
3.88244e-08
9.66856e-08
1.26148e-07
5.82133e-08
2.45128e-07
3.24228e-07
-3.25623e-10
-7.49199e-09
2.82266e-08
-1.58256e-08
3.11244e-08
-2.50026e-08
3.37045e-08
-3.48203e-08
3.52153e-08
-4.38486e-08
3.10486e-08
-5.15026e-08
2.4196e-08
-5.64195e-08
1.1644e-08
-5.70782e-08
-7.22776e-09
-5.14355e-08
-3.40086e-08
-3.73281e-08
-6.82729e-08
-1.50725e-08
-1.0076e-07
1.33998e-08
-1.25325e-07
4.38816e-08
-1.38378e-07
7.22404e-08
-1.3578e-07
9.29683e-08
-1.21676e-07
9.75862e-08
-7.13089e-08
8.40798e-08
1.64123e-08
7.79655e-08
3.10357e-07
1.19946e-07
6.81303e-07
7.56793e-08
7.2729e-07
1.91306e-07
-6.09144e-07
2.00637e-07
-1.10789e-06
1.68845e-07
-7.61183e-07
1.5564e-07
-4.76375e-08
4.82725e-08
4.02793e-07
-2.67541e-08
2.91117e-07
-8.23252e-08
9.43955e-08
-7.62715e-08
1.20094e-07
-8.09379e-08
2.49795e-07
2.42155e-07
1.13474e-09
-7.46907e-09
3.56956e-08
-1.57946e-08
3.94499e-08
-2.49772e-08
4.28871e-08
-3.48337e-08
4.50718e-08
-4.39189e-08
4.01338e-08
-5.1683e-08
3.19602e-08
-5.67937e-08
1.67547e-08
-5.77651e-08
-6.25633e-09
-5.25064e-08
-3.92673e-08
-3.87047e-08
-8.20746e-08
-1.65764e-08
-1.22888e-07
1.20248e-08
-1.53926e-07
4.29456e-08
-1.69299e-07
7.19503e-08
-1.64785e-07
9.44923e-08
-1.44218e-07
1.05928e-07
-8.27445e-08
1.08642e-07
1.36985e-08
1.43048e-07
2.75951e-07
2.93103e-07
5.31247e-07
3.96575e-07
6.23818e-07
3.74034e-07
-5.86602e-07
3.8991e-07
-1.12376e-06
3.05254e-07
-6.76528e-07
2.73642e-07
-1.60255e-08
1.48672e-07
5.27763e-07
4.82498e-09
4.34964e-07
-1.36727e-07
2.35948e-07
-1.54779e-07
1.38146e-07
-9.96126e-08
1.94629e-07
1.39032e-07
3.5109e-09
-7.43818e-09
4.31338e-08
-1.57506e-08
4.77624e-08
-2.49356e-08
5.20721e-08
-3.48337e-08
5.49699e-08
-4.39784e-08
4.92786e-08
-5.18622e-08
3.98439e-08
-5.71896e-08
2.20821e-08
-5.85193e-08
-4.92663e-09
-5.37056e-08
-4.40809e-08
-4.02358e-08
-9.55445e-08
-1.81939e-08
-1.4493e-07
1.07481e-08
-1.82868e-07
4.22896e-08
-2.00841e-07
7.30682e-08
-1.95563e-07
9.96222e-08
-1.70772e-07
1.23112e-07
-1.06234e-07
1.47431e-07
-1.06203e-08
2.1849e-07
2.04893e-07
4.03149e-07
3.46587e-07
5.46143e-07
4.80824e-07
5.45218e-07
-5.85676e-07
5.73377e-07
-1.15192e-06
4.32876e-07
-5.36027e-07
2.74066e-07
1.42785e-07
2.67602e-07
5.34227e-07
2.59549e-07
4.43017e-07
1.29376e-07
3.6612e-07
3.71664e-08
2.30356e-07
5.12127e-08
1.80582e-07
1.98495e-07
-8.25032e-09
-7.40036e-09
5.05341e-08
-1.56962e-08
5.60582e-08
-2.48824e-08
6.12583e-08
-3.48294e-08
6.49169e-08
-4.40424e-08
5.84916e-08
-5.20646e-08
4.78661e-08
-5.76457e-08
2.76632e-08
-5.94026e-08
-3.16974e-09
-5.51269e-08
-4.83565e-08
-4.20561e-08
-1.08615e-07
-2.0114e-08
-1.66872e-07
9.20455e-09
-2.12187e-07
4.15488e-08
-2.33185e-07
7.38917e-08
-2.27906e-07
1.03711e-07
-2.00592e-07
1.35607e-07
-1.3813e-07
1.7037e-07
-4.53836e-08
2.78577e-07
9.66858e-08
4.39305e-07
1.85859e-07
5.05328e-07
4.14801e-07
5.66671e-07
-6.4702e-07
4.53455e-07
-1.03871e-06
3.83281e-07
-4.65853e-07
2.98822e-07
2.27244e-07
3.37049e-07
4.96e-07
3.56946e-07
4.2312e-07
2.3536e-07
4.87706e-07
8.29469e-08
3.82769e-07
3.61123e-08
2.27417e-07
2.06883e-07
2.77242e-08
-7.35567e-09
5.78898e-08
-1.56315e-08
6.43341e-08
-2.48177e-08
7.04444e-08
-3.4821e-08
7.49202e-08
-4.41111e-08
6.77817e-08
-5.22902e-08
5.60452e-08
-5.81623e-08
3.35353e-08
-6.04191e-08
-9.12901e-10
-5.67828e-08
-5.19927e-08
-4.41892e-08
-1.21209e-07
-2.23738e-08
-1.88687e-07
7.39915e-09
-2.4196e-07
4.06548e-08
-2.66441e-07
7.48563e-08
-2.62108e-07
1.08831e-07
-2.34566e-07
1.49761e-07
-1.7906e-07
1.90893e-07
-8.65159e-08
3.24074e-07
-3.64949e-08
4.98065e-07
1.18678e-08
4.7613e-07
4.36736e-07
5.76918e-07
-7.47808e-07
5.03482e-07
-9.65271e-07
4.61412e-07
-4.23783e-07
5.0897e-07
1.79687e-07
5.80152e-07
4.24818e-07
5.01393e-07
5.01878e-07
4.02874e-07
5.86226e-07
2.9666e-07
4.88982e-07
1.23221e-07
4.00856e-07
3.57159e-07
-2.70555e-08
-7.3041e-09
6.51939e-08
-1.55564e-08
7.25864e-08
-2.4741e-08
7.96291e-08
-3.48081e-08
8.49872e-08
-4.41835e-08
7.71572e-08
-5.2537e-08
6.43987e-08
-5.87356e-08
3.97339e-08
-6.15676e-08
1.91906e-09
-5.86768e-08
-5.48835e-08
-4.66479e-08
-1.33238e-07
-2.50006e-08
-2.10334e-07
5.27577e-09
-2.72236e-07
3.94012e-08
-3.00566e-07
7.52346e-08
-2.97941e-07
1.11846e-07
-2.71178e-07
1.56504e-07
-2.23718e-07
2.0782e-07
-1.37832e-07
3.32795e-07
-1.6147e-07
5.48138e-07
-2.03476e-07
6.34761e-07
3.50113e-07
6.69286e-07
-7.82334e-07
5.65509e-07
-8.61493e-07
4.14916e-07
-2.7319e-07
4.93554e-07
1.01048e-07
7.46039e-07
1.72334e-07
5.56357e-07
6.9156e-07
3.89639e-07
7.52944e-07
2.91607e-07
5.87013e-07
1.14583e-07
5.77881e-07
4.65546e-07
6.19662e-09
-7.24561e-09
7.24395e-08
-1.54708e-08
8.08116e-08
-2.4652e-08
8.88103e-08
-3.47903e-08
9.51255e-08
-4.42585e-08
8.66254e-08
-5.28019e-08
7.29422e-08
-5.93599e-08
4.62919e-08
-6.28438e-08
5.40301e-09
-6.08127e-08
-5.69146e-08
-4.94433e-08
-1.44607e-07
-2.80167e-08
-2.31761e-07
2.69397e-09
-3.02946e-07
3.81059e-08
-3.35978e-07
7.52525e-08
-3.35088e-07
1.14665e-07
-3.1059e-07
1.60194e-07
-2.69247e-07
2.27057e-07
-2.04695e-07
3.14127e-07
-2.4854e-07
4.79119e-07
-3.68467e-07
7.81051e-07
4.81812e-08
7.54575e-07
-7.55858e-07
5.73191e-07
-6.8011e-07
5.26142e-07
-2.2614e-07
7.4658e-07
-1.1939e-07
1.00526e-06
-8.63442e-08
5.38293e-07
1.15853e-06
5.94863e-07
6.96374e-07
2.82899e-07
8.98978e-07
1.54076e-07
7.06703e-07
6.13795e-07
5.82723e-09
-7.18017e-09
7.96197e-08
-1.53746e-08
8.90061e-08
-2.45503e-08
9.7986e-08
-3.4767e-08
1.05342e-07
-4.43346e-08
9.61931e-08
-5.30819e-08
8.16895e-08
-6.00296e-08
5.32396e-08
-6.42436e-08
9.61706e-09
-6.31944e-08
-5.79638e-08
-5.25894e-08
-1.55212e-07
-3.14517e-08
-2.52899e-07
-4.35666e-10
-3.33963e-07
3.60949e-08
-3.72509e-07
7.46416e-08
-3.73634e-07
1.15677e-07
-3.51626e-07
1.59311e-07
-3.12881e-07
2.41798e-07
-2.87182e-07
2.78108e-07
-2.84849e-07
3.98301e-07
-4.88661e-07
7.6688e-07
-3.20398e-07
8.09494e-07
-7.98471e-07
7.23845e-07
-5.94461e-07
7.11917e-07
-2.14212e-07
8.54276e-07
-2.61749e-07
7.61615e-07
6.31742e-09
1.01628e-06
9.03864e-07
6.71724e-07
1.04093e-06
5.57735e-07
1.01297e-06
3.59944e-07
9.04496e-07
1.00737e-06
-3.363e-08
-7.10775e-09
8.67274e-08
-1.52677e-08
9.7166e-08
-2.44359e-08
1.07154e-07
-3.47377e-08
1.15644e-07
-4.44106e-08
1.05866e-07
-5.33733e-08
9.06522e-08
-6.07378e-08
6.06041e-08
-6.57614e-08
1.46406e-08
-6.58241e-08
-5.79011e-08
-5.61006e-08
-1.64936e-07
-3.53219e-08
-2.73677e-07
-3.90584e-09
-3.65379e-07
3.39877e-08
-4.10402e-07
7.35581e-08
-4.13205e-07
1.15295e-07
-3.93363e-07
1.57535e-07
-3.55121e-07
2.38546e-07
-3.68193e-07
2.89824e-07
-3.36127e-07
3.41562e-07
-5.40399e-07
6.92449e-07
-6.71284e-07
6.68809e-07
-7.74832e-07
7.84999e-07
-7.10651e-07
1.06067e-06
-4.89882e-07
9.06553e-07
-1.07633e-07
6.19598e-07
2.93274e-07
8.70429e-07
6.53036e-07
8.89936e-07
1.02142e-06
8.0409e-07
1.09882e-06
4.19423e-07
1.28916e-06
1.41444e-06
1.23514e-08
-7.0283e-09
9.37557e-08
-1.51499e-08
1.05288e-07
-2.43109e-08
1.16315e-07
-3.47017e-08
1.26035e-07
-4.44847e-08
1.15649e-07
-5.36723e-08
9.98398e-08
-6.14765e-08
6.84084e-08
-6.73925e-08
2.05566e-08
-6.87046e-08
-5.6589e-08
-5.99931e-08
-1.73647e-07
-3.96503e-08
-2.9402e-07
-7.70145e-09
-3.97327e-07
3.14256e-08
-4.49529e-07
7.20297e-08
-4.53809e-07
1.13778e-07
-4.35111e-07
1.55207e-07
-3.9655e-07
2.2578e-07
-4.38766e-07
3.0933e-07
-4.19677e-07
3.17643e-07
-5.48712e-07
5.69568e-07
-9.23209e-07
6.05807e-07
-8.11071e-07
8.69306e-07
-9.7415e-07
2.80848e-06
-2.42905e-06
2.33075e-06
3.70093e-07
2.01698e-06
6.07045e-07
1.66553e-06
1.00449e-06
1.17208e-06
1.51486e-06
6.58224e-07
1.61268e-06
2.54476e-07
1.69291e-06
1.65209e-06
1.68305e-08
-6.94178e-09
1.00697e-07
-1.50211e-08
1.13367e-07
-2.41752e-08
1.25469e-07
-3.46586e-08
1.36518e-07
-4.45556e-08
1.25546e-07
-5.39746e-08
1.09259e-07
-6.22355e-08
7.66692e-08
-6.91242e-08
2.74454e-08
-7.18426e-08
-5.38706e-08
-6.42841e-08
-1.81206e-07
-4.44688e-08
-3.13835e-07
-1.19276e-08
-4.29869e-07
2.84039e-08
-4.89861e-07
7.01209e-08
-4.95526e-07
1.10769e-07
-4.7576e-07
1.49807e-07
-4.35587e-07
2.11115e-07
-5.00075e-07
2.95083e-07
-5.03645e-07
3.50389e-07
-6.04018e-07
5.36189e-07
-1.10901e-06
6.88075e-07
-9.62957e-07
4.09255e-07
-6.95331e-07
8.1393e-09
-2.02793e-06
8.33842e-07
-4.55608e-07
8.25863e-07
6.15025e-07
8.20859e-07
1.0095e-06
6.73374e-07
1.66235e-06
4.07861e-07
1.87819e-06
1.86178e-07
1.9146e-06
1.81933e-06
1.89348e-08
-6.84815e-09
1.07546e-07
-1.4881e-08
1.214e-07
-2.40287e-08
1.34617e-07
-3.46075e-08
1.47097e-07
-4.46215e-08
1.3556e-07
-5.42758e-08
1.18913e-07
-6.30037e-08
8.53971e-08
-7.09502e-08
3.53919e-08
-7.52374e-08
-4.95833e-08
-6.89924e-08
-1.87451e-07
-4.98067e-08
-3.33021e-07
-1.66172e-08
-4.63058e-07
2.51783e-08
-5.31656e-07
6.80336e-08
-5.38381e-07
1.0737e-07
-5.15096e-07
1.43766e-07
-4.71983e-07
1.9276e-07
-5.49069e-07
2.86124e-07
-5.97009e-07
4.00024e-07
-7.17918e-07
4.22074e-07
-1.13106e-06
5.10475e-07
-1.05136e-06
2.25044e-06
-2.43529e-06
4.50655e-07
-2.28151e-07
-1.64302e-07
1.59354e-07
-1.89706e-08
4.6969e-07
1.04544e-07
8.85982e-07
1.86441e-07
1.58045e-06
1.51742e-07
1.91289e-06
9.32899e-08
1.97305e-06
1.88838e-06
2.42427e-08
-6.74735e-09
1.14293e-07
-1.47293e-08
1.29382e-07
-2.38707e-08
1.43758e-07
-3.45478e-08
1.57774e-07
-4.46808e-08
1.45693e-07
-5.45711e-08
1.28803e-07
-6.37671e-08
9.4593e-08
-7.28509e-08
4.44758e-08
-7.88954e-08
-4.35389e-08
-7.41402e-08
-1.92206e-07
-5.5706e-08
-3.51455e-07
-2.18133e-08
-4.96951e-07
2.15642e-08
-5.75034e-07
6.56933e-08
-5.8251e-07
1.02827e-07
-5.5223e-07
1.33782e-07
-5.02938e-07
1.77567e-07
-5.92854e-07
2.41265e-07
-6.60707e-07
4.49928e-07
-9.26581e-07
3.66894e-07
-1.04802e-06
-6.38288e-07
-4.61761e-08
-1.00837e-06
-2.06521e-06
-7.27146e-07
-5.09375e-07
-5.6764e-07
-1.54005e-10
-4.27973e-07
3.30021e-07
-3.57974e-07
8.15985e-07
-2.49748e-07
1.47223e-06
-1.62739e-07
1.82588e-06
-6.3449e-08
1.87376e-06
1.79306e-06
3.18732e-08
-6.63932e-09
1.20932e-07
-1.45659e-08
1.37308e-07
-2.37007e-08
1.52893e-07
-3.44789e-08
1.68552e-07
-4.47319e-08
1.55946e-07
-5.48557e-08
1.38927e-07
-6.45095e-08
1.04247e-07
-7.48062e-08
5.47725e-08
-8.28161e-08
-3.55289e-08
-7.97502e-08
-1.95272e-07
-6.22006e-08
-3.69005e-07
-2.75261e-08
-5.31625e-07
1.80043e-08
-6.20564e-07
6.3867e-08
-6.28373e-07
9.91446e-08
-5.87507e-07
1.2391e-07
-5.27703e-07
1.6285e-07
-6.31794e-07
2.23881e-07
-7.21739e-07
4.36775e-07
-1.13947e-06
1.86084e-07
-7.97333e-07
1.48505e-07
-8.59681e-09
-7.18956e-07
-1.19775e-06
-8.03117e-07
-4.25217e-07
-7.55087e-07
-4.81816e-08
-7.08005e-07
2.82941e-07
-6.47081e-07
7.55062e-07
-5.13741e-07
1.33889e-06
-3.07267e-07
1.61941e-06
-1.0654e-07
1.67304e-06
1.65788e-06
2.86427e-08
-6.52403e-09
1.27456e-07
-1.43903e-08
1.45175e-07
-2.35184e-08
1.62021e-07
-3.43998e-08
1.79434e-07
-4.47731e-08
1.66319e-07
-5.51247e-08
1.49279e-07
-6.5211e-08
1.14333e-07
-7.67694e-08
6.63309e-08
-8.70033e-08
-2.52951e-08
-8.58542e-08
-1.96421e-07
-6.9386e-08
-3.85473e-07
-3.40094e-08
-5.67001e-07
1.33793e-08
-6.67953e-07
6.10827e-08
-6.76076e-07
9.38599e-08
-6.20285e-07
1.08903e-07
-5.42747e-07
1.41194e-07
-6.64085e-07
2.27348e-07
-8.07892e-07
3.51336e-07
-1.26346e-06
3.39132e-07
-7.85129e-07
1.01248e-07
2.29287e-07
-4.75345e-07
-6.21157e-07
-7.37047e-07
-1.63511e-07
-7.94803e-07
9.57516e-09
-7.99938e-07
2.88075e-07
-7.35306e-07
6.90431e-07
-5.62666e-07
1.16625e-06
-3.34017e-07
1.39076e-06
-1.33983e-07
1.473e-06
1.47221e-06
5.16875e-08
-6.40141e-09
1.33858e-07
-1.42018e-08
1.52975e-07
-2.33231e-08
1.71143e-07
-3.43098e-08
1.9042e-07
-4.4803e-08
1.76813e-07
-5.53737e-08
1.59849e-07
-6.58475e-08
1.24807e-07
-7.8714e-08
7.91975e-08
-9.1454e-08
-1.25551e-08
-9.24485e-08
-1.95426e-07
-7.71384e-08
-4.00784e-07
-4.05816e-08
-6.03558e-07
9.81642e-09
-7.18351e-07
6.03904e-08
-7.2665e-07
9.2491e-08
-6.52385e-07
1.03274e-07
-5.5353e-07
1.27104e-07
-6.87915e-07
2.55538e-07
-9.36327e-07
2.34327e-07
-1.24225e-06
-9.00747e-08
-4.60728e-07
-1.60999e-07
3.00212e-07
-4.57717e-07
-3.2444e-07
-6.35326e-07
1.41012e-08
-7.46465e-07
1.20715e-07
-7.80063e-07
3.21673e-07
-7.15852e-07
6.2622e-07
-4.95832e-07
9.46233e-07
-3.24653e-07
1.21958e-06
-1.67232e-07
1.31558e-06
1.29852e-06
6.45509e-09
-6.27143e-09
1.40129e-07
-1.39997e-08
1.60703e-07
-2.31144e-08
1.80257e-07
-3.42082e-08
2.01514e-07
-4.48209e-08
1.87425e-07
-5.55985e-08
1.70627e-07
-6.63959e-08
1.35604e-07
-8.07092e-08
9.35108e-08
-9.6184e-08
2.91962e-09
-9.96788e-08
-1.91932e-07
-8.61494e-08
-4.14313e-07
-4.97757e-08
-6.39932e-07
7.74723e-10
-7.68902e-07
5.32776e-08
-7.79153e-07
8.96781e-08
-6.88786e-07
9.82413e-08
-5.62093e-07
8.22851e-08
-6.71958e-07
2.90445e-07
-1.14449e-06
1.6207e-07
-1.11387e-06
3.30647e-07
-6.29306e-07
-1.07138e-07
7.38001e-07
-4.53869e-07
2.22886e-08
-5.64781e-07
1.25011e-07
-6.64999e-07
2.20933e-07
-7.14015e-07
3.70694e-07
-6.73579e-07
5.85786e-07
-5.37831e-07
8.10487e-07
-3.85772e-07
1.06753e-06
-2.19122e-07
1.14893e-06
1.11044e-06
-3.10348e-08
-6.13405e-09
1.46263e-07
-1.37831e-08
1.68352e-07
-2.28919e-08
1.89366e-07
-3.4094e-08
2.12716e-07
-4.48293e-08
1.98161e-07
-5.57954e-08
1.81593e-07
-6.68628e-08
1.46672e-07
-8.27713e-08
1.09419e-07
-1.01149e-07
2.12969e-08
-1.07245e-07
-1.85835e-07
-9.50092e-08
-4.26549e-07
-5.78531e-08
-6.77088e-07
-7.07297e-09
-8.19682e-07
4.15059e-08
-8.27732e-07
8.78621e-08
-7.35142e-07
1.26127e-07
-6.00358e-07
9.82448e-08
-6.44076e-07
3.23195e-07
-1.36944e-06
1.96093e-07
-9.86772e-07
3.4072e-07
-7.73933e-07
1.85621e-07
8.93103e-07
-3.64746e-07
5.72653e-07
-4.85111e-07
2.45376e-07
-5.68748e-07
3.04568e-07
-6.20125e-07
4.22076e-07
-6.17735e-07
5.83396e-07
-5.53299e-07
7.46051e-07
-4.01457e-07
9.15687e-07
-2.23147e-07
9.70626e-07
9.26526e-07
-3.9232e-08
-5.98924e-09
1.52252e-07
-1.35512e-08
1.75914e-07
-2.26552e-08
1.9847e-07
-3.39663e-08
2.24027e-07
-4.48303e-08
2.09025e-07
-5.59607e-08
1.92724e-07
-6.72392e-08
1.5795e-07
-8.48871e-08
1.27067e-07
-1.06464e-07
4.2874e-08
-1.16088e-07
-1.76212e-07
-1.07999e-07
-4.34638e-07
-7.7796e-08
-7.07291e-07
-3.98829e-08
-8.57595e-07
-4.44654e-09
-8.63168e-07
6.67422e-08
-8.06331e-07
1.69311e-07
-7.02927e-07
2.01064e-07
-6.7583e-07
2.85688e-07
-1.45406e-06
-1.51333e-07
-5.49751e-07
-7.85733e-07
-1.39532e-07
-4.22139e-07
5.29508e-07
-4.0966e-07
5.60175e-07
-4.41573e-07
2.77289e-07
-4.77382e-07
3.40375e-07
-5.1097e-07
4.55666e-07
-5.12412e-07
5.84835e-07
-4.62114e-07
6.95752e-07
-3.3921e-07
7.92782e-07
-1.89289e-07
8.20704e-07
7.80435e-07
-4.31945e-08
-5.837e-09
1.58089e-07
-1.33026e-08
1.8338e-07
-2.24038e-08
2.07571e-07
-3.3824e-08
2.35448e-07
-4.48263e-08
2.20027e-07
-5.60917e-08
2.03989e-07
-6.75086e-08
1.69367e-07
-8.70188e-08
1.46578e-07
-1.11827e-07
6.76818e-08
-1.24212e-07
-1.63826e-07
-1.18116e-07
-4.40735e-07
-9.33956e-08
-7.32011e-07
-5.94125e-08
-8.91578e-07
9.03266e-09
-9.31614e-07
1.59796e-07
-9.57094e-07
2.17151e-07
-7.60282e-07
2.96643e-07
-7.55322e-07
2.24564e-07
-1.38198e-06
2.91813e-07
-6.17001e-07
-3.85397e-07
5.37676e-07
-4.58039e-07
6.02148e-07
-3.41538e-07
4.43674e-07
-3.70942e-07
3.06694e-07
-3.83029e-07
3.5246e-07
-4.03458e-07
4.76097e-07
-3.97959e-07
5.79336e-07
-3.55799e-07
6.53596e-07
-2.65643e-07
7.02629e-07
-1.50663e-07
7.05724e-07
6.65726e-07
-3.59509e-08
-5.67727e-09
1.63767e-07
-1.30363e-08
1.90739e-07
-2.21375e-08
2.16673e-07
-3.36655e-08
2.46975e-07
-4.48186e-08
2.3118e-07
-5.61816e-08
2.15352e-07
-6.76353e-08
1.80821e-07
-8.91523e-08
1.68095e-07
-1.17967e-07
9.64961e-08
-1.36847e-07
-1.44945e-07
-1.43584e-07
-4.33997e-07
-1.40466e-07
-7.35129e-07
-1.24527e-07
-9.07516e-07
-5.8142e-08
-9.97999e-07
-5.95731e-09
-1.00928e-06
6.87104e-08
-8.3495e-07
2.68456e-07
-9.55068e-07
-1.88387e-07
-9.25139e-07
1.69598e-07
-9.74986e-07
2.65767e-07
4.41507e-07
1.22926e-07
7.44987e-07
-1.01748e-07
6.68345e-07
-2.47454e-07
4.52401e-07
-2.84229e-07
3.89234e-07
-3.06813e-07
4.98682e-07
-3.00229e-07
5.72753e-07
-2.64382e-07
6.17752e-07
-1.97429e-07
6.35679e-07
-1.13614e-07
6.2191e-07
5.81514e-07
-2.94019e-08
-5.51007e-09
1.69277e-07
-1.2751e-08
1.9798e-07
-2.18563e-08
2.25778e-07
-3.34896e-08
2.58609e-07
-4.48125e-08
2.42503e-07
-5.62363e-08
2.26776e-07
-6.76254e-08
1.9221e-07
-9.12001e-08
1.91669e-07
-1.23083e-07
1.28379e-07
-1.42069e-07
-1.25959e-07
-1.41238e-07
-4.34829e-07
-1.04934e-07
-7.71433e-07
-2.84514e-08
-9.84e-07
7.80344e-08
-1.10448e-06
1.48664e-07
-1.07991e-06
2.0512e-07
-8.91406e-07
3.38702e-07
-1.08865e-06
-7.55351e-08
-5.10902e-07
3.83415e-07
-1.43394e-06
5.42009e-07
2.82913e-07
3.24004e-07
9.6299e-07
1.7855e-07
8.13796e-07
-4.44827e-08
6.75433e-07
-1.64063e-07
5.08811e-07
-2.1859e-07
5.53207e-07
-2.21725e-07
5.75886e-07
-1.94856e-07
5.90883e-07
-1.45837e-07
5.86661e-07
-8.5789e-08
5.61863e-07
5.21004e-07
-2.52789e-08
-5.33536e-09
1.74612e-07
-1.2445e-08
2.05089e-07
-2.15581e-08
2.34891e-07
-3.32888e-08
2.70339e-07
-4.4798e-08
2.54012e-07
-5.62182e-08
2.38196e-07
-6.73787e-08
2.0337e-07
-9.32819e-08
2.17572e-07
-1.31255e-07
1.66352e-07
-1.67069e-07
-9.01445e-08
-2.0215e-07
-3.99748e-07
-2.11634e-07
-7.61948e-07
-1.79882e-07
-1.01575e-06
-1.46863e-07
-1.1375e-06
-2.98966e-08
-1.19687e-06
8.56572e-08
-1.00696e-06
1.98416e-07
-1.20141e-06
6.34479e-07
-9.46965e-07
1.09027e-06
-1.88973e-06
4.72252e-07
9.00932e-07
4.31577e-07
1.00366e-06
3.60652e-07
8.84716e-07
3.07028e-08
1.00538e-06
-1.02576e-07
6.42089e-07
-1.60356e-07
6.10983e-07
-1.66409e-07
5.81938e-07
-1.46226e-07
5.70701e-07
-1.09887e-07
5.50323e-07
-6.63451e-08
5.18322e-07
4.77326e-07
-2.26668e-08
-5.15634e-09
1.79768e-07
-1.21195e-08
2.12053e-07
-2.12478e-08
2.44019e-07
-3.30757e-08
2.82167e-07
-4.48144e-08
2.65751e-07
-5.62011e-08
2.49583e-07
-6.7008e-08
2.14177e-07
-9.50564e-08
2.45621e-07
-1.34519e-07
2.05814e-07
-1.57993e-07
-6.66701e-08
-1.46488e-07
-4.11253e-07
-8.77675e-08
-8.20669e-07
-2.98568e-08
-1.07366e-06
7.76881e-09
-1.17513e-06
8.42853e-08
-1.27339e-06
1.45318e-07
-1.06799e-06
-2.06414e-07
-8.49676e-07
-1.25131e-06
9.79313e-08
-1.03967e-06
-2.10137e-06
-4.40463e-07
3.01725e-07
2.98463e-07
2.64739e-07
3.97433e-08
1.14343e-06
-3.86499e-08
1.08378e-06
-1.1064e-07
7.14078e-07
-1.35452e-07
6.35791e-07
-1.33883e-07
5.80371e-07
-1.15031e-07
5.51848e-07
-8.60875e-08
5.2138e-07
-5.31379e-08
4.85372e-07
4.4482e-07
-2.06322e-08
-5.00826e-09
1.84777e-07
-1.17633e-08
2.18808e-07
-2.09046e-08
2.53161e-07
-3.28063e-08
2.94069e-07
-4.47607e-08
2.77705e-07
-5.60025e-08
2.60824e-07
-6.62338e-08
2.24409e-07
-9.6268e-08
2.75655e-07
-1.41374e-07
2.5092e-07
-1.85183e-07
-2.28612e-08
-2.21598e-07
-3.74837e-07
-2.22738e-07
-8.1953e-07
-1.58901e-07
-1.1375e-06
-6.00859e-08
-1.27395e-06
1.35605e-07
-1.46908e-06
2.41032e-07
-1.17342e-06
2.66902e-07
-8.75545e-07
9.66652e-07
-6.01819e-07
3.72863e-08
-1.17201e-06
-7.8092e-08
4.171e-07
-3.4076e-07
5.27406e-07
-2.66835e-07
1.0695e-06
-8.01214e-08
8.97062e-07
-1.32036e-07
7.6599e-07
-1.26227e-07
6.2998e-07
-1.15808e-07
5.69952e-07
-9.56198e-08
5.31658e-07
-7.06251e-08
4.96383e-07
-4.42229e-08
4.5897e-07
4.19456e-07
-1.88612e-08
-5.44974e-09
1.90226e-07
-1.14199e-08
2.24778e-07
-2.0634e-08
2.62375e-07
-3.27466e-08
3.06182e-07
-4.50478e-08
2.90007e-07
-5.59466e-08
2.71723e-07
-6.52481e-08
2.3371e-07
-1.0069e-07
3.11097e-07
-1.58111e-07
3.08341e-07
-2.09499e-07
2.85262e-08
-2.48677e-07
-3.35659e-07
-2.71165e-07
-7.97042e-07
-2.70577e-07
-1.13809e-06
-2.40355e-07
-1.30417e-06
-6.31498e-08
-1.64629e-06
-9.40995e-08
-1.14247e-06
2.99451e-07
-1.2691e-06
6.54944e-08
-3.67862e-07
-3.31471e-07
-7.75043e-07
5.15153e-08
3.41119e-08
-7.08686e-07
1.28761e-06
-4.15104e-07
7.75917e-07
-1.60485e-07
6.42441e-07
-1.45431e-07
7.50933e-07
-1.1999e-07
6.04536e-07
-1.02011e-07
5.51974e-07
-8.12408e-08
5.10885e-07
-5.92889e-08
4.74429e-07
-3.7579e-08
4.37259e-07
3.99115e-07
-1.72403e-08
-8.72484e-09
1.98951e-07
-9.38249e-09
2.25435e-07
-1.67863e-08
2.69778e-07
-2.7601e-08
3.16996e-07
-4.13933e-08
3.03799e-07
-5.57565e-08
2.86086e-07
-6.65289e-08
2.44483e-07
-9.39645e-08
3.38533e-07
-1.37046e-07
3.51423e-07
-1.91182e-07
8.26626e-08
-2.28061e-07
-2.98779e-07
-2.30282e-07
-7.94821e-07
-2.09776e-07
-1.15859e-06
-1.35753e-07
-1.37819e-06
-2.76296e-08
-1.75441e-06
1.07189e-07
-1.27729e-06
8.93812e-07
-2.05572e-06
1.67317e-06
-1.14722e-06
1.2349e-06
-3.36769e-07
2.98163e-07
9.70845e-07
-4.03601e-07
1.98937e-06
-3.13506e-07
6.85821e-07
-1.88714e-07
5.17644e-07
-1.22472e-07
6.84689e-07
-9.90743e-08
5.81136e-07
-8.14574e-08
5.34357e-07
-6.46867e-08
4.94113e-07
-4.75853e-08
4.57324e-07
-3.10115e-08
4.20683e-07
-1.56056e-08
3.83706e-07
-1.09902e-07
1.07757e-07
-2.27587e-07
1.17685e-07
-2.78807e-07
5.12207e-08
-3.13204e-07
3.43968e-08
-4.48198e-07
1.34994e-07
-6.59541e-07
2.11343e-07
-7.41398e-07
8.18569e-08
-3.78438e-07
-3.62961e-07
4.20139e-07
-7.98576e-07
6.53723e-07
-2.33584e-07
2.66398e-07
3.87325e-07
-1.31601e-07
3.98e-07
-2.803e-07
1.48699e-07
-2.53647e-07
-2.66528e-08
-2.10239e-07
-4.34083e-08
-1.64313e-07
-4.59262e-08
-1.20824e-07
-4.34885e-08
-7.91082e-08
-4.1716e-08
-4.22688e-08
-3.68394e-08
-1.2138e-08
-3.01307e-08
1.04529e-08
-2.2591e-08
2.44802e-08
-1.40272e-08
3.12036e-08
-6.72348e-09
3.2505e-08
-1.30142e-09
3.00166e-08
2.48848e-09
2.51863e-08
4.83029e-09
1.88259e-08
6.36043e-09
1.22587e-08
6.56716e-09
5.90316e-09
6.35556e-09
5.90316e-09
-1.58143e-07
2.64956e-07
-2.4599e-07
2.05532e-07
-2.87786e-07
9.30171e-08
-2.90207e-07
3.68175e-08
-3.30301e-07
1.75088e-07
-3.80881e-07
2.61923e-07
-3.35879e-07
3.68556e-08
-4.68886e-08
-6.51951e-07
2.42138e-07
-1.0876e-06
3.9647e-07
-3.87916e-07
1.91636e-07
5.92159e-07
-4.11908e-08
6.30826e-07
-1.4534e-07
2.52848e-07
-1.52644e-07
-1.93491e-08
-1.33357e-07
-6.26947e-08
-1.00983e-07
-7.83011e-08
-6.63053e-08
-7.81658e-08
-3.12715e-08
-7.67497e-08
-2.13684e-10
-6.78972e-08
2.53767e-08
-5.5721e-08
4.22581e-08
-3.94724e-08
5.03797e-08
-2.21488e-08
5.1742e-08
-8.08583e-09
4.83387e-08
2.10194e-09
4.17935e-08
9.0337e-09
3.35355e-08
1.30883e-08
2.42892e-08
1.56067e-08
1.54499e-08
1.54065e-08
7.34617e-09
1.44593e-08
1.32493e-08
-5.87115e-08
3.23342e-07
-9.71882e-08
2.44009e-07
-1.30202e-07
1.26031e-07
-1.30595e-07
3.72099e-08
-1.70686e-07
2.15179e-07
-2.04523e-07
2.9576e-07
-1.07429e-07
-6.02383e-08
3.28045e-08
-7.92184e-07
4.33909e-08
-1.09819e-06
1.51185e-07
-4.9571e-07
5.98817e-08
6.83462e-07
-3.15715e-08
7.22279e-07
-8.1945e-08
3.03222e-07
-1.03808e-07
2.51443e-09
-9.9679e-08
-6.68242e-08
-7.69624e-08
-1.01018e-07
-4.76979e-08
-1.0743e-07
-1.65716e-08
-1.07876e-07
1.2356e-08
-9.68249e-08
3.50762e-08
-7.84412e-08
4.96971e-08
-5.40934e-08
5.58611e-08
-2.83128e-08
5.56284e-08
-7.85312e-09
5.10135e-08
6.71678e-09
4.35748e-08
1.64724e-08
3.46728e-08
2.19905e-08
2.4962e-08
2.53174e-08
1.58105e-08
2.4558e-08
7.4983e-09
2.27715e-08
2.07476e-08
8.34813e-08
2.40995e-07
7.63808e-08
2.51109e-07
8.06272e-08
1.21785e-07
2.52524e-08
9.25848e-08
-4.85766e-08
2.89008e-07
-1.54978e-07
4.02162e-07
-1.67003e-07
-4.82142e-08
-1.99811e-07
-7.59376e-07
-1.91883e-07
-1.10612e-06
-7.7132e-08
-6.10461e-07
-1.2137e-07
7.277e-07
-7.86096e-08
6.79519e-07
-8.44497e-08
3.09062e-07
-9.77458e-08
1.58105e-08
-9.3005e-08
-7.1565e-08
-7.222e-08
-1.21803e-07
-4.38462e-08
-1.35804e-07
-1.33699e-08
-1.38352e-07
1.50961e-08
-1.25291e-07
3.73297e-08
-1.00675e-07
5.141e-08
-6.81738e-08
5.70325e-08
-3.39353e-08
5.63617e-08
-7.18232e-09
5.14484e-08
1.16301e-08
4.38191e-08
2.41016e-08
3.48005e-08
3.10092e-08
2.50117e-08
3.51061e-08
1.58232e-08
3.37466e-08
7.49639e-09
3.10983e-08
2.8244e-08
1.05206e-07
1.393e-07
1.55265e-07
2.0105e-07
1.36963e-07
1.40087e-07
-3.71621e-09
2.33264e-07
-1.47776e-07
4.33068e-07
-2.72961e-07
5.27347e-07
-3.03795e-07
-1.73806e-08
-3.88214e-07
-6.74957e-07
-3.74133e-07
-1.1202e-06
-3.9677e-07
-5.87823e-07
-2.94147e-07
6.25076e-07
-1.43496e-07
5.28869e-07
-1.08984e-07
2.7455e-07
-1.06066e-07
1.28919e-08
-9.45212e-08
-8.31097e-08
-7.19235e-08
-1.444e-07
-4.29062e-08
-1.64822e-07
-1.19834e-08
-1.69275e-07
1.66016e-08
-1.53876e-07
3.87067e-08
-1.2278e-07
5.24805e-08
-8.19476e-08
5.77186e-08
-3.91734e-08
5.67348e-08
-6.19853e-09
5.1628e-08
1.67369e-08
4.38895e-08
3.18402e-08
3.48141e-08
4.00846e-08
2.49872e-08
4.4933e-08
1.57921e-08
4.29417e-08
7.47347e-09
3.94169e-08
3.57175e-08
-6.30069e-08
1.94057e-07
-3.8982e-08
1.77025e-07
-1.26917e-07
2.28022e-07
-2.56394e-07
3.62741e-07
-2.66415e-07
4.43089e-07
-2.70555e-07
5.31487e-07
-4.2916e-07
1.41225e-07
-5.73831e-07
-5.30286e-07
-5.45916e-07
-1.14811e-06
-5.45826e-07
-5.87914e-07
-4.04076e-07
4.83326e-07
-2.18634e-07
3.43426e-07
-1.47651e-07
2.03568e-07
-1.23197e-07
-1.15624e-08
-9.96258e-08
-1.06681e-07
-7.30319e-08
-1.70994e-07
-4.22458e-08
-1.95608e-07
-1.07108e-08
-2.0081e-07
1.82205e-08
-1.82807e-07
4.02381e-08
-1.44797e-07
5.3679e-08
-9.53886e-08
5.84715e-08
-4.39659e-08
5.71297e-08
-4.85668e-09
5.18063e-08
2.20603e-08
4.39491e-08
3.96974e-08
3.48145e-08
4.92192e-08
2.49466e-08
5.48009e-08
1.5748e-08
5.21403e-08
7.44259e-09
4.77222e-08
4.31601e-08
5.8077e-09
2.15973e-07
-6.32017e-08
2.46035e-07
-2.27838e-07
3.92658e-07
-3.52448e-07
4.87352e-07
-3.31118e-07
4.21759e-07
-3.02916e-07
5.03284e-07
-3.84497e-07
2.22806e-07
-4.54915e-07
-4.59868e-07
-5.65998e-07
-1.03703e-06
-5.05038e-07
-6.48874e-07
-4.39856e-07
4.18145e-07
-2.78395e-07
1.81965e-07
-1.70423e-07
9.55962e-08
-1.35612e-07
-4.63743e-08
-1.03683e-07
-1.3861e-07
-7.38413e-08
-2.00835e-07
-4.14996e-08
-2.27949e-07
-9.16514e-09
-2.33144e-07
2.01421e-08
-2.12115e-07
4.20589e-08
-1.66714e-07
5.50996e-08
-1.08429e-07
5.93536e-08
-4.82199e-08
5.75841e-08
-3.08719e-09
5.20075e-08
2.76368e-08
4.40131e-08
4.76917e-08
3.48105e-08
5.84219e-08
2.48948e-08
6.47166e-08
1.56935e-08
6.13416e-08
7.40477e-09
5.60109e-08
5.05649e-08
-1.61925e-07
3.50843e-07
-3.07476e-07
3.91586e-07
-4.12249e-07
4.97431e-07
-5.04034e-07
5.79137e-07
-5.80886e-07
4.98611e-07
-5.04118e-07
4.26516e-07
-4.66002e-07
1.84691e-07
-5.04243e-07
-4.21627e-07
-5.76572e-07
-9.64701e-07
-4.75354e-07
-7.50092e-07
-4.97595e-07
4.40385e-07
-3.23892e-07
8.26249e-09
-1.90797e-07
-3.74985e-08
-1.49725e-07
-8.7447e-08
-1.08774e-07
-1.7956e-07
-7.47923e-08
-2.34817e-07
-4.05872e-08
-2.62155e-07
-7.35765e-09
-2.66374e-07
2.24033e-08
-2.41876e-07
4.41925e-08
-1.88503e-07
5.67546e-08
-1.20991e-07
6.03687e-08
-5.18341e-08
5.80989e-08
-8.17409e-10
5.22319e-08
3.35039e-08
4.40819e-08
5.58417e-08
3.48025e-08
6.77012e-08
2.48317e-08
7.46874e-08
1.56286e-08
7.05447e-08
7.36008e-09
6.42795e-08
5.7925e-08
-1.10502e-07
4.67541e-07
-2.80888e-07
5.61972e-07
-3.863e-07
6.02842e-07
-5.44782e-07
7.37618e-07
-7.43939e-07
6.97768e-07
-4.92323e-07
1.749e-07
-4.15132e-07
1.075e-07
-5.65515e-07
-2.71244e-07
-6.68804e-07
-8.61412e-07
-6.34191e-07
-7.84705e-07
-5.47083e-07
3.53277e-07
-3.32725e-07
-2.06096e-07
-2.07597e-07
-1.62627e-07
-1.564e-07
-1.38644e-07
-1.11755e-07
-2.24206e-07
-7.51528e-08
-2.71419e-07
-3.93391e-08
-2.97968e-07
-5.23222e-09
-3.0048e-07
2.50316e-08
-2.7214e-07
4.66515e-08
-2.10123e-07
5.86471e-08
-1.32987e-07
6.15158e-08
-5.47028e-08
5.86702e-08
2.02828e-09
5.2477e-08
3.9697e-08
4.41545e-08
6.41642e-08
3.47902e-08
7.70655e-08
2.4757e-08
8.47206e-08
1.55534e-08
7.97482e-08
7.3085e-09
7.25244e-08
6.52335e-08
-1.30125e-07
6.03494e-07
-2.6874e-07
7.00586e-07
-5.88405e-07
9.22508e-07
-5.3811e-07
6.87323e-07
-1.00553e-06
1.16519e-06
-7.51723e-07
-7.89108e-08
-5.2596e-07
-1.18263e-07
-5.70435e-07
-2.2677e-07