/*--------------------------------*- C++ -*----------------------------------*\
| =========                 |                                                 |
| \\      /  F ield         | OpenFOAM: The Open Source CFD Toolbox           |
|  \\    /   O peration     | Version:  2.4.0                                 |
|   \\  /    A nd           | Web:      www.OpenFOAM.org                      |
|    \\/     M anipulation  |                                                 |
\*---------------------------------------------------------------------------*/
FoamFile
{
    version     2.0;
    format      ascii;
    class       volVectorField;
    location    "0.389";
    object      U;
}
// * * * * * * * * * * * * * * * * * * * * * * * * * * * * * * * * * * * * * //

dimensions      [0 1 -1 0 0 0 0];

internalField   nonuniform List<vector> 
10000
(
(2.28034e-07 -2.28374e-07 0)
(-4.45924e-07 2.11632e-07 0)
(-3.005e-06 6.64823e-07 0)
(-6.9613e-06 9.56099e-07 0)
(-1.1709e-05 1.0855e-06 0)
(-1.66587e-05 1.08708e-06 0)
(-2.13307e-05 9.92897e-07 0)
(-2.53574e-05 8.30863e-07 0)
(-2.8473e-05 6.23713e-07 0)
(-3.04983e-05 3.89009e-07 0)
(-3.1325e-05 1.39998e-07 0)
(-3.09009e-05 -1.13509e-07 0)
(-2.92166e-05 -3.64399e-07 0)
(-2.62964e-05 -6.07547e-07 0)
(-2.21907e-05 -8.38935e-07 0)
(-1.69729e-05 -1.05482e-06 0)
(-1.07388e-05 -1.25097e-06 0)
(-3.60985e-06 -1.42209e-06 0)
(4.2627e-06 -1.5614e-06 0)
(1.26916e-05 -1.66095e-06 0)
(2.14494e-05 -1.71165e-06 0)
(3.02665e-05 -1.70434e-06 0)
(3.88349e-05 -1.63093e-06 0)
(4.68166e-05 -1.48597e-06 0)
(5.38615e-05 -1.26835e-06 0)
(5.96309e-05 -9.82763e-07 0)
(6.3827e-05 -6.40782e-07 0)
(6.6224e-05 -2.60801e-07 0)
(6.66963e-05 1.33185e-07 0)
(6.52377e-05 5.14153e-07 0)
(6.19658e-05 8.5617e-07 0)
(5.71048e-05 1.13979e-06 0)
(5.09456e-05 1.35676e-06 0)
(4.37887e-05 1.51376e-06 0)
(3.58807e-05 1.63148e-06 0)
(2.7374e-05 1.73534e-06 0)
(1.83439e-05 1.83791e-06 0)
(8.86407e-06 1.92874e-06 0)
(-9.10793e-07 1.98042e-06 0)
(-1.07105e-05 1.96571e-06 0)
(-2.01771e-05 1.8687e-06 0)
(-2.89267e-05 1.68955e-06 0)
(-3.66156e-05 1.44329e-06 0)
(-4.29893e-05 1.15364e-06 0)
(-4.79059e-05 8.46039e-07 0)
(-5.13383e-05 5.43472e-07 0)
(-5.33605e-05 2.65916e-07 0)
(-5.41253e-05 2.85257e-08 0)
(-5.38342e-05 -1.60318e-07 0)
(-5.27103e-05 -3.00046e-07 0)
(-2.11571e-07 4.43896e-07 0)
(-3.53083e-06 3.52544e-06 0)
(-1.0689e-05 6.55045e-06 0)
(-2.06289e-05 8.5789e-06 0)
(-3.20627e-05 9.47905e-06 0)
(-4.37494e-05 9.37465e-06 0)
(-5.46179e-05 8.4575e-06 0)
(-6.38031e-05 6.92472e-06 0)
(-7.06506e-05 4.95502e-06 0)
(-7.47008e-05 2.70007e-06 0)
(-7.56638e-05 2.83525e-07 0)
(-7.33911e-05 -2.19634e-06 0)
(-6.78485e-05 -4.66308e-06 0)
(-5.90935e-05 -7.05652e-06 0)
(-4.72585e-05 -9.32688e-06 0)
(-3.2542e-05 -1.14282e-05 0)
(-1.52069e-05 -1.33123e-05 0)
(4.41393e-06 -1.49237e-05 0)
(2.59077e-05 -1.61972e-05 0)
(4.87698e-05 -1.70583e-05 0)
(7.23951e-05 -1.74267e-05 0)
(9.60766e-05 -1.72241e-05 0)
(0.000119015 -1.63847e-05 0)
(0.000140346 -1.48689e-05 0)
(0.000159179 -1.26768e-05 0)
(0.000174662 -9.86063e-06 0)
(0.000186048 -6.53135e-06 0)
(0.000192773 -2.85742e-06 0)
(0.000194523 9.46807e-07 0)
(0.000191275 4.64435e-06 0)
(0.00018331 8.0105e-06 0)
(0.000171172 1.08756e-05 0)
(0.000155575 1.31621e-05 0)
(0.00013727 1.4908e-05 0)
(0.000116893 1.6253e-05 0)
(9.48645e-05 1.73659e-05 0)
(7.14237e-05 1.83256e-05 0)
(4.68115e-05 1.90535e-05 0)
(2.147e-05 1.93544e-05 0)
(-3.88322e-06 1.90334e-05 0)
(-2.83311e-05 1.79845e-05 0)
(-5.091e-05 1.62249e-05 0)
(-7.07652e-05 1.38814e-05 0)
(-8.72634e-05 1.11515e-05 0)
(-0.000100051 8.25823e-06 0)
(-0.000109056 5.41086e-06 0)
(-0.000114457 2.78243e-06 0)
(-0.000116623 4.97791e-07 0)
(-0.000116046 -1.37143e-06 0)
(-0.000113274 -2.80694e-06 0)
(-6.67862e-07 3.00845e-06 0)
(-6.58222e-06 1.06928e-05 0)
(-1.74305e-05 1.73771e-05 0)
(-3.16056e-05 2.17415e-05 0)
(-4.73601e-05 2.35351e-05 0)
(-6.30837e-05 2.29692e-05 0)
(-7.7364e-05 2.04317e-05 0)
(-8.90305e-05 1.6356e-05 0)
(-9.71768e-05 1.11587e-05 0)
(-0.000101153 5.20991e-06 0)
(-0.000100541 -1.17674e-06 0)
(-9.51246e-05 -7.74426e-06 0)
(-8.48516e-05 -1.42863e-05 0)
(-6.98076e-05 -2.0636e-05 0)
(-5.0192e-05 -2.66528e-05 0)
(-2.63049e-05 -3.22066e-05 0)
(1.45481e-06 -3.71628e-05 0)
(3.25822e-05 -4.13706e-05 0)
(6.64519e-05 -4.46568e-05 0)
(0.000102302 -4.68268e-05 0)
(0.000139224 -4.7675e-05 0)
(0.00017616 -4.70034e-05 0)
(0.000211919 -4.46497e-05 0)
(0.000245215 -4.05205e-05 0)
(0.00027473 -3.46259e-05 0)
(0.000299204 -2.71091e-05 0)
(0.000317532 -1.82618e-05 0)
(0.000328879 -8.52035e-06 0)
(0.000332772 1.56451e-06 0)
(0.000329172 1.1385e-05 0)
(0.00031849 2.03632e-05 0)
(0.000301533 2.80578e-05 0)
(0.000279377 3.42567e-05 0)
(0.000253165 3.90399e-05 0)
(0.00022386 4.27514e-05 0)
(0.000192053 4.58183e-05 0)
(0.000158012 4.84377e-05 0)
(0.000122003 5.03986e-05 0)
(8.46594e-05 5.11926e-05 0)
(4.70935e-05 5.03248e-05 0)
(1.07431e-05 4.75402e-05 0)
(-2.2893e-05 4.29004e-05 0)
(-5.25018e-05 3.67441e-05 0)
(-7.71224e-05 2.95837e-05 0)
(-9.62227e-05 2.19954e-05 0)
(-0.000109697 1.45187e-05 0)
(-0.000117809 7.59952e-06 0)
(-0.0001211 1.55642e-06 0)
(-0.000120294 -3.4286e-06 0)
(-0.000116192 -7.30468e-06 0)
(-9.6628e-07 6.98988e-06 0)
(-8.66312e-06 2.0683e-05 0)
(-2.19145e-05 3.15784e-05 0)
(-3.85785e-05 3.83589e-05 0)
(-5.65339e-05 4.07889e-05 0)
(-7.39317e-05 3.92144e-05 0)
(-8.91644e-05 3.4251e-05 0)
(-0.000100892 2.66052e-05 0)
(-0.000108066 1.69758e-05 0)
(-0.000109932 6.00099e-06 0)
(-0.000106003 -5.76598e-06 0)
(-9.6029e-05 -1.78631e-05 0)
(-7.99594e-05 -2.99127e-05 0)
(-5.7909e-05 -4.16057e-05 0)
(-3.01315e-05 -5.26785e-05 0)
(2.99554e-06 -6.28867e-05 0)
(4.09724e-05 -7.19779e-05 0)
(8.31669e-05 -7.96713e-05 0)
(0.000128796 -8.56466e-05 0)
(0.000176902 -8.95466e-05 0)
(0.000226343 -9.0996e-05 0)
(0.000275784 -8.96359e-05 0)
(0.000323721 -8.51734e-05 0)
(0.000368525 -7.74423e-05 0)
(0.000408522 -6.6466e-05 0)
(0.000442104 -5.25094e-05 0)
(0.000467861 -3.61077e-05 0)
(0.000484716 -1.80578e-05 0)
(0.000492052 6.33731e-07 0)
(0.000489805 1.88506e-05 0)
(0.000478505 3.55202e-05 0)
(0.000459216 4.98134e-05 0)
(0.000433382 6.13144e-05 0)
(0.000402562 7.01658e-05 0)
(0.000368036 7.70525e-05 0)
(0.000330427 8.28647e-05 0)
(0.000289744 8.80184e-05 0)
(0.000245984 9.2065e-05 0)
(0.000199818 9.39373e-05 0)
(0.000152762 9.2637e-05 0)
(0.000106849 8.76787e-05 0)
(6.41853e-05 7.92053e-05 0)
(2.65805e-05 6.78803e-05 0)
(-4.66602e-06 5.46815e-05 0)
(-2.88551e-05 4.06851e-05 0)
(-4.58615e-05 2.68938e-05 0)
(-5.60348e-05 1.41262e-05 0)
(-6.00821e-05 2.96233e-06 0)
(-5.8935e-05 -6.26917e-06 0)
(-5.36225e-05 -1.34767e-05 0)
(-1.10584e-06 1.17962e-05 0)
(-9.6393e-06 3.2239e-05 0)
(-2.38839e-05 4.74486e-05 0)
(-4.12968e-05 5.63623e-05 0)
(-5.948e-05 5.89073e-05 0)
(-7.64261e-05 5.56357e-05 0)
(-9.04217e-05 4.74269e-05 0)
(-0.000100048 3.52862e-05 0)
(-0.000104199 2.02194e-05 0)
(-0.000102083 3.15886e-06 0)
(-9.31987e-05 -1.50759e-05 0)
(-7.72986e-05 -3.37918e-05 0)
(-5.43528e-05 -5.24176e-05 0)
(-2.45097e-05 -7.04823e-05 0)
(1.19332e-05 -8.75827e-05 0)
(5.4546e-05 -0.000103343 0)
(0.000102766 -0.000117374 0)
(0.000155883 -0.00012924 0)
(0.000213013 -0.000138445 0)
(0.000273066 -0.000144433 0)
(0.000334731 -0.00014662 0)
(0.000396463 -0.000144447 0)
(0.000456507 -0.000137456 0)
(0.000512946 -0.000125383 0)
(0.000563799 -0.00010826 0)
(0.000607147 -8.64917e-05 0)
(0.000641295 -6.09022e-05 0)
(0.000664937 -3.27231e-05 0)
(0.000677304 -3.51795e-06 0)
(0.00067829 2.49598e-05 0)
(0.000668533 5.09958e-05 0)
(0.000649366 7.32429e-05 0)
(0.000622657 9.09853e-05 0)
(0.000590499 0.000104452 0)
(0.000554579 0.000114905 0)
(0.000515388 0.0001241 0)
(0.000472209 0.000132887 0)
(0.000424271 0.000140385 0)
(0.000372083 0.000144501 0)
(0.000317676 0.000143385 0)
(0.00026389 0.000136202 0)
(0.000213613 0.00012324 0)
(0.000169255 0.000105651 0)
(0.000132481 8.5061e-05 0)
(0.000104151 6.32125e-05 0)
(8.43925e-05 4.17013e-05 0)
(7.27435e-05 2.18112e-05 0)
(6.83189e-05 4.43997e-06 0)
(6.99762e-05 -9.91098e-06 0)
(7.64657e-05 -2.11073e-05 0)
(-1.121e-06 1.68513e-05 0)
(-9.63227e-06 4.41467e-05 0)
(-2.35391e-05 6.34106e-05 0)
(-4.00814e-05 7.39377e-05 0)
(-5.67035e-05 7.59191e-05 0)
(-7.1312e-05 7.01785e-05 0)
(-8.21524e-05 5.78976e-05 0)
(-8.77915e-05 4.04041e-05 0)
(-8.71284e-05 1.90283e-05 0)
(-7.93888e-05 -4.98801e-06 0)
(-6.40995e-05 -3.05455e-05 0)
(-4.10509e-05 -5.67095e-05 0)
(-1.02533e-05 -8.27076e-05 0)
(2.81064e-05 -0.000107903 0)
(7.36974e-05 -0.000131751 0)
(0.000126063 -0.000153743 0)
(0.000184618 -0.000173345 0)
(0.000248627 -0.000189954 0)
(0.000317162 -0.000202871 0)
(0.000389065 -0.000211312 0)
(0.000462918 -0.000214444 0)
(0.000537026 -0.000211465 0)
(0.000609433 -0.00020171 0)
(0.000677977 -0.000184785 0)
(0.000740397 -0.000160711 0)
(0.000794483 -0.000130041 0)
(0.000838266 -9.39211e-05 0)
(0.000870205 -5.40767e-05 0)
(0.000889357 -1.27141e-05 0)
(0.00089553 2.7648e-05 0)
(0.000889447 6.448e-05 0)
(0.000872703 9.57527e-05 0)
(0.000847671 0.000120273 0)
(0.000817237 0.000138333 0)
(0.000783802 0.000152151 0)
(0.000747591 0.000165158 0)
(0.000706386 0.000179087 0)
(0.000657803 0.000192253 0)
(0.00060194 0.000200631 0)
(0.000541675 0.000200927 0)
(0.000481067 0.000191824 0)
(0.000424068 0.000173904 0)
(0.000373807 0.000149059 0)
(0.000332339 0.000119816 0)
(0.000300649 8.87887e-05 0)
(0.000278819 5.83015e-05 0)
(0.000266237 3.0188e-05 0)
(0.00026181 5.71067e-06 0)
(0.000264171 -1.44382e-05 0)
(0.000271841 -3.00851e-05 0)
(-1.04348e-06 2.16849e-05 0)
(-8.82912e-06 5.53532e-05 0)
(-2.12541e-05 7.80709e-05 0)
(-3.55185e-05 8.94922e-05 0)
(-4.90313e-05 9.01175e-05 0)
(-5.96852e-05 8.10861e-05 0)
(-6.57394e-05 6.39129e-05 0)
(-6.57972e-05 4.02687e-05 0)
(-5.88091e-05 1.18228e-05 0)
(-4.40624e-05 -1.98647e-05 0)
(-2.11509e-05 -5.34094e-05 0)
(1.00684e-05 -8.76348e-05 0)
(4.95255e-05 -0.000121573 0)
(9.69881e-05 -0.000154432 0)
(0.000152101 -0.00018554 0)
(0.000214408 -0.000214267 0)
(0.000283344 -0.000239944 0)
(0.000358201 -0.000261794 0)
(0.000438073 -0.000278899 0)
(0.000521796 -0.000290209 0)
(0.000607904 -0.000294603 0)
(0.000694605 -0.000290987 0)
(0.000779787 -0.000278434 0)
(0.00086107 -0.000256374 0)
(0.000935927 -0.00022479 0)
(0.00100187 -0.000184381 0)
(0.00105665 -0.000136638 0)
(0.00109851 -8.3825e-05 0)
(0.00112628 -2.88478e-05 0)
(0.0011396 2.48914e-05 0)
(0.00113922 7.3835e-05 0)
(0.00112692 0.000115076 0)
(0.0011056 0.000146576 0)
(0.00107943 0.000168469 0)
(0.0010523 0.000184462 0)
(0.00102417 0.000201286 0)
(0.000990005 0.000222504 0)
(0.000944288 0.000244912 0)
(0.00088646 0.000260749 0)
(0.000821041 0.000264352 0)
(0.000754034 0.000253876 0)
(0.000690808 0.000230544 0)
(0.000635299 0.000197403 0)
(0.000589895 0.000158227 0)
(0.000555616 0.000116729 0)
(0.00053241 7.61037e-05 0)
(0.000519458 3.88033e-05 0)
(0.000515431 6.48451e-06 0)
(0.000518716 -1.99637e-05 0)
(0.000527602 -4.03386e-05 0)
(-9.00033e-07 2.59363e-05 0)
(-7.42131e-06 6.5004e-05 0)
(-1.74495e-05 9.02659e-05 0)
(-2.82892e-05 0.000101681 0)
(-3.74231e-05 0.000100063 0)
(-4.2797e-05 8.68835e-05 0)
(-4.27327e-05 6.40117e-05 0)
(-3.5911e-05 3.34766e-05 0)
(-2.13723e-05 -2.70312e-06 0)
(1.49872e-06 -4.26425e-05 0)
(3.30083e-05 -8.46723e-05 0)
(7.32043e-05 -0.000127382 0)
(0.000121936 -0.000169623 0)
(0.000178916 -0.000210475 0)
(0.000243772 -0.000249168 0)
(0.000316072 -0.000284983 0)
(0.000395317 -0.000317139 0)
(0.000480889 -0.00034469 0)
(0.000571969 -0.000366479 0)
(0.00066745 -0.000381159 0)
(0.000765875 -0.000387272 0)
(0.000865406 -0.000383371 0)
(0.000963806 -0.0003682 0)
(0.00105849 -0.00034095 0)
(0.00114667 -0.000301532 0)
(0.00122557 -0.000250786 0)
(0.00129271 -0.000190576 0)
(0.0013461 -0.000123722 0)
(0.00138436 -5.38315e-05 0)
(0.00140679 1.47362e-05 0)
(0.00141405 7.71363e-05 0)
(0.00140785 0.000129428 0)
(0.00139143 0.000168002 0)
(0.00137094 0.000192004 0)
(0.00135362 0.000207206 0)
(0.0013396 0.000226943 0)
(0.00131858 0.000258602 0)
(0.00127916 0.000296032 0)
(0.00122002 0.00032411 0)
(0.00114913 0.000333486 0)
(0.00107559 0.000322134 0)
(0.0010065 0.000292682 0)
(0.00094652 0.000249988 0)
(0.000898148 0.000199499 0)
(0.000862249 0.000146262 0)
(0.000838518 9.44419e-05 0)
(0.000825867 4.71455e-05 0)
(0.000822708 6.42839e-06 0)
(0.000827184 -2.66332e-05 0)
(0.000837353 -5.18254e-05 0)
(-7.1279e-07 2.93444e-05 0)
(-5.58459e-06 7.24503e-05 0)
(-1.25353e-05 9.90873e-05 0)
(-1.90797e-05 0.00010944 0)
(-2.28589e-05 0.000104606 0)
(-2.19286e-05 8.63929e-05 0)
(-1.47139e-05 5.70287e-05 0)
(-6.72517e-09 1.89109e-05 0)
(2.30322e-05 -2.55839e-05 0)
(5.48906e-05 -7.42419e-05 0)
(9.57446e-05 -0.000125111 0)
(0.000145518 -0.000176558 0)
(0.000203953 -0.000227279 0)
(0.000270694 -0.000276262 0)
(0.000345349 -0.00032269 0)
(0.000427534 -0.000365807 0)
(0.000516863 -0.00040476 0)
(0.000612878 -0.000438453 0)
(0.000714921 -0.000465473 0)
(0.000822005 -0.000484132 0)
(0.000932739 -0.00049258 0)
(0.00104528 -0.000488943 0)
(0.00115729 -0.000471548 0)
(0.00126597 -0.000439267 0)
(0.00136824 -0.0003919 0)
(0.00146105 -0.000330442 0)
(0.0015417 -0.000257183 0)
(0.00160815 -0.000175509 0)
(0.00165876 -8.95947e-05 0)
(0.0016923 -4.72887e-06 0)
(0.00170921 7.26338e-05 0)
(0.00171059 0.000137685 0)
(0.001699 0.000183918 0)
(0.00168345 0.000207217 0)
(0.00167858 0.000215375 0)
(0.0016862 0.000235254 0)
(0.00168622 0.000282156 0)
(0.00165615 0.000344129 0)
(0.00159442 0.000391232 0)
(0.00151641 0.000408955 0)
(0.00143595 0.000396576 0)
(0.0013618 0.000359647 0)
(0.00129875 0.000305766 0)
(0.00124898 0.000242486 0)
(0.00121288 0.000176338 0)
(0.00118976 0.000112462 0)
(0.00117825 5.45857e-05 0)
(0.00117652 5.13892e-06 0)
(0.0011825 -3.46351e-05 0)
(0.00119404 -6.45348e-05 0)
(-4.9961e-07 3.17346e-05 0)
(-3.47305e-06 7.72385e-05 0)
(-6.88782e-06 0.000103882 0)
(-8.53668e-06 0.000111987 0)
(-6.27769e-06 0.000102897 0)
(1.68289e-06 7.87367e-05 0)
(1.67867e-05 4.20914e-05 0)
(4.01063e-05 -4.26721e-06 0)
(7.23377e-05 -5.75977e-05 0)
(0.000113816 -0.000115352 0)
(0.000164561 -0.000175295 0)
(0.000224338 -0.000235586 0)
(0.000292756 -0.000294793 0)
(0.000369358 -0.000351862 0)
(0.000453725 -0.000405997 0)
(0.000545533 -0.000456487 0)
(0.000644559 -0.000502476 0)
(0.000750585 -0.000542752 0)
(0.000863202 -0.000575622 0)
(0.000981613 -0.000598996 0)
(0.00110455 -0.000610568 0)
(0.0012302 -0.000607952 0)
(0.00135613 -0.000588925 0)
(0.00147926 -0.000551936 0)
(0.00159616 -0.00049665 0)
(0.00170345 -0.000424275 0)
(0.00179835 -0.00033768 0)
(0.00187905 -0.000240854 0)
(0.0019439 -0.000138131 0)
(0.00199068 -3.54941e-05 0)
(0.00201975 5.84442e-05 0)
(0.00203067 0.000139459 0)
(0.00202248 0.00019572 0)
(0.00200716 0.000214708 0)
(0.0020153 0.000203633 0)
(0.00205465 0.000217205 0)
(0.00208641 0.000286855 0)
(0.0020673 0.000389506 0)
(0.00199814 0.000464622 0)
(0.00190995 0.000492091 0)
(0.00182287 0.000476789 0)
(0.00174588 0.000429902 0)
(0.0016826 0.000362799 0)
(0.00163404 0.000285344 0)
(0.00159984 0.000205442 0)
(0.00157883 0.000129038 0)
(0.00156946 6.03546e-05 0)
(0.00156977 2.14622e-06 0)
(0.00157757 -4.41854e-05 0)
(0.00159057 -7.847e-05 0)
(-2.74739e-07 3.30053e-05 0)
(-1.21918e-06 7.90909e-05 0)
(-8.4237e-07 0.000104238 0)
(2.7498e-06 0.000108821 0)
(1.14511e-05 9.43782e-05 0)
(2.68818e-05 6.3328e-05 0)
(5.03343e-05 1.86069e-05 0)
(8.27326e-05 -3.6638e-05 0)
(0.000124616 -9.92917e-05 0)
(0.000176151 -0.000166462 0)
(0.000237173 -0.000235629 0)
(0.000307261 -0.000304748 0)
(0.000385843 -0.000372291 0)
(0.000472326 -0.000437219 0)
(0.000566226 -0.000498847 0)
(0.000667278 -0.00055662 0)
(0.000775465 -0.000609795 0)
(0.000890905 -0.000657099 0)
(0.00101355 -0.000696526 0)
(0.00114289 -0.000725499 0)
(0.0012778 -0.00074118 0)
(0.0014166 -0.000740553 0)
(0.00155668 -0.000720652 0)
(0.00169456 -0.00067934 0)
(0.00182628 -0.000616146 0)
(0.001948 -0.000532656 0)
(0.00205699 -0.000432737 0)
(0.0021524 -0.000321228 0)
(0.00223323 -0.00020156 0)
(0.00229562 -7.974e-05 0)
(0.00234059 3.15203e-05 0)
(0.00236516 0.000134765 0)
(0.00235854 0.000208075 0)
(0.0023325 0.000219472 0)
(0.00234998 0.000166339 0)
(0.00243482 0.000160008 0)
(0.00251274 0.00026472 0)
(0.00250221 0.00043666 0)
(0.00241444 0.00055021 0)
(0.00231242 0.000584342 0)
(0.00222184 0.000560637 0)
(0.00214745 0.000499897 0)
(0.00208915 0.000417544 0)
(0.00204591 0.000325177 0)
(0.0020164 0.000231488 0)
(0.00199927 0.000142798 0)
(0.00199304 6.3603e-05 0)
(0.00199597 -3.02194e-06 0)
(0.00200583 -5.54666e-05 0)
(0.00202026 -9.35922e-05 0)
(-4.96067e-08 3.31171e-05 0)
(1.06333e-06 7.7886e-05 0)
(5.30472e-06 9.99621e-05 0)
(1.42488e-05 9.96935e-05 0)
(2.95342e-05 7.87636e-05 0)
(5.26047e-05 3.98546e-05 0)
(8.46028e-05 -1.37574e-05 0)
(0.000126305 -7.85471e-05 0)
(0.000178094 -0.000151015 0)
(0.000239958 -0.000227907 0)
(0.000311535 -0.000306403 0)
(0.00039218 -0.000384251 0)
(0.000481096 -0.000459849 0)
(0.000577488 -0.000532228 0)
(0.000680746 -0.000600924 0)
(0.000790622 -0.000665687 0)
(0.000907324 -0.000726065 0)
(0.00103142 -0.000780845 0)
(0.00116339 -0.000827648 0)
(0.00130308 -0.000863279 0)
(0.00144968 -0.000884283 0)
(0.00160164 -0.000886857 0)
(0.00175613 -0.000866945 0)
(0.00190897 -0.000821567 0)
(0.00205531 -0.000750155 0)
(0.00219049 -0.000654947 0)
(0.00231176 -0.000541815 0)
(0.00242065 -0.000417547 0)
(0.00251855 -0.000282333 0)
(0.00259891 -0.000139688 0)
(0.00266571 -1.49658e-05 0)
(0.00271417 0.00012122 0)
(0.00270992 0.000231829 0)
(0.00265298 0.00023615 0)
(0.00266874 9.81686e-05 0)
(0.00281752 4.36954e-05 0)
(0.00295877 0.000206524 0)
(0.00294402 0.000500929 0)
(0.00281704 0.000659377 0)
(0.00270117 0.000684397 0)
(0.00261777 0.000641325 0)
(0.00255708 0.000562405 0)
(0.00251207 0.000464174 0)
(0.00247955 0.000357919 0)
(0.00245789 0.000251956 0)
(0.00244618 0.000152332 0)
(0.0024438 6.35951e-05 0)
(0.00244961 -1.07009e-05 0)
(0.00246156 -6.85184e-05 0)
(0.00247719 -0.000109719 0)
(1.66312e-07 3.20833e-05 0)
(3.27587e-06 7.36404e-05 0)
(1.12905e-05 9.10628e-05 0)
(2.54817e-05 8.45987e-05 0)
(4.7249e-05 5.60264e-05 0)
(7.7874e-05 8.26223e-06 0)
(0.000118366 -5.5091e-05 0)
(0.000169371 -0.000130127 0)
(0.000231131 -0.000212945 0)
(0.000303466 -0.000299904 0)
(0.000385809 -0.000387852 0)
(0.00047727 -0.000474308 0)
(0.000576771 -0.000557591 0)
(0.000683235 -0.000636849 0)
(0.000795825 -0.000711946 0)
(0.000914203 -0.000783132 0)
(0.00103876 -0.000850512 0)
(0.0011706 -0.000913158 0)
(0.00131092 -0.000968273 0)
(0.00146018 -0.00101185 0)
(0.00161803 -0.00103972 0)
(0.00178325 -0.00104704 0)
(0.00195266 -0.00102807 0)
(0.00212083 -0.000978528 0)
(0.00228155 -0.000897815 0)
(0.00242834 -0.000788983 0)
(0.00255756 -0.000661917 0)
(0.00267507 -0.000528855 0)
(0.00278918 -0.00038365 0)
(0.00288942 -0.000217329 0)
(0.0029826 -9.17018e-05 0)
(0.00308146 7.47891e-05 0)
(0.0030988 0.00028704 0)
(0.0029687 0.000313201 0)
(0.00296139 -2.74575e-05 0)
(0.00320898 -0.000172195 0)
(0.00341693 0.000116686 0)
(0.00335374 0.000626377 0)
(0.0031606 0.000804116 0)
(0.0030497 0.000777182 0)
(0.00300089 0.000701839 0)
(0.0029725 0.000604853 0)
(0.00295122 0.000494645 0)
(0.00293465 0.000379033 0)
(0.00292289 0.000264682 0)
(0.00291692 0.000156833 0)
(0.00291805 6.00957e-05 0)
(0.00292647 -2.08839e-05 0)
(0.00294019 -8.30935e-05 0)
(0.00295644 -0.000126371 0)
(3.64816e-07 2.99635e-05 0)
(5.33084e-06 6.64942e-05 0)
(1.68783e-05 7.77295e-05 0)
(3.6013e-05 6.37504e-05 0)
(6.393e-05 2.63813e-05 0)
(0.00010178 -3.1258e-05 0)
(0.000150473 -0.000105252 0)
(0.000210559 -0.000191311 0)
(0.000282172 -0.000285111 0)
(0.000364996 -0.000382589 0)
(0.000458277 -0.000480212 0)
(0.000560875 -0.000575219 0)
(0.000671394 -0.000665814 0)
(0.000788385 -0.000751269 0)
(0.000910642 -0.000831858 0)
(0.00103754 -0.000908524 0)
(0.00116947 -0.0009823 0)
(0.00130804 -0.00105296 0)
(0.00145536 -0.00111733 0)
(0.00161285 -0.00117045 0)
(0.00178122 -0.00120733 0)
(0.00195997 -0.00122161 0)
(0.00214536 -0.0012047 0)
(0.00232996 -0.00115043 0)
(0.00250559 -0.00105814 0)
(0.00266202 -0.000930924 0)
(0.00279184 -0.000786002 0)
(0.00290636 -0.000648828 0)
(0.00302963 -0.000509164 0)
(0.00315892 -0.000325208 0)
(0.00327874 -0.000200333 0)
(0.00343169 -5.48732e-05 0)
(0.00356386 0.000313402 0)
(0.00340728 0.00055855 0)
(0.003313 -0.000213235 0)
(0.00357996 -0.000470946 0)
(0.00377059 3.42231e-05 0)
(0.00359896 0.000887823 0)
(0.00336841 0.000946052 0)
(0.00335111 0.0008114 0)
(0.00338585 0.000712098 0)
(0.00340826 0.000611535 0)
(0.0034169 0.00050165 0)
(0.00341742 0.000386017 0)
(0.00341413 0.000269716 0)
(0.00341132 0.000157349 0)
(0.00341371 5.404e-05 0)
(0.00342354 -3.29791e-05 0)
(0.00343838 -9.85407e-05 0)
(0.00345426 -0.000142591 0)
(5.38376e-07 2.68594e-05 0)
(7.14845e-06 5.66997e-05 0)
(2.18516e-05 6.03195e-05 0)
(4.54406e-05 3.75698e-05 0)
(7.8956e-05 -9.72534e-06 0)
(0.000123464 -7.82746e-05 0)
(0.000179819 -0.000163866 0)
(0.000248528 -0.000261825 0)
(0.000329673 -0.000367385 0)
(0.000422859 -0.000476018 0)
(0.000527196 -0.000583745 0)
(0.000641327 -0.000687442 0)
(0.000763537 -0.000785118 0)
(0.00089194 -0.000876104 0)
(0.00102479 -0.000961093 0)
(0.00116091 -0.00104185 0)
(0.00130027 -0.00112074 0)
(0.00144472 -0.0011989 0)
(0.00159722 -0.00127313 0)
(0.00176077 -0.00133772 0)
(0.00193811 -0.00138684 0)
(0.00213053 -0.00141155 0)
(0.00233369 -0.00139843 0)
(0.0025369 -0.00133842 0)
(0.00272974 -0.0012312 0)
(0.00289553 -0.00107597 0)
(0.00301753 -0.000901961 0)
(0.00310974 -0.000757946 0)
(0.00321168 -0.00064276 0)
(0.00335178 -0.000477714 0)
(0.00348715 -0.000332421 0)
(0.0036153 -0.000255206 0)
(0.00387376 6.18817e-05 0)
(0.00403068 0.000812558 0)
(0.0039552 -0.000287166 0)
(0.00387877 -0.000565391 0)
(0.0037664 5.32953e-05 0)
(0.00351662 0.00127017 0)
(0.0035012 0.000862078 0)
(0.00372822 0.000716886 0)
(0.0038425 0.000653879 0)
(0.00389887 0.000579743 0)
(0.00392669 0.0004876 0)
(0.00393677 0.000382856 0)
(0.00393547 0.000271492 0)
(0.00392978 0.000157925 0)
(0.00392908 4.79532e-05 0)
(0.00393863 -4.58444e-05 0)
(0.00395404 -0.000113881 0)
(0.00396827 -0.000156825 0)
(6.79869e-07 2.2911e-05 0)
(8.65506e-06 4.46125e-05 0)
(2.60106e-05 3.93462e-05 0)
(5.33912e-05 6.67548e-06 0)
(9.17429e-05 -5.16208e-05 0)
(0.000142101 -0.000132112 0)
(0.000205322 -0.000230312 0)
(0.000281932 -0.000341164 0)
(0.000372035 -0.000459447 0)
(0.000475238 -0.000580125 0)
(0.000590609 -0.000698705 0)
(0.000716663 -0.000811595 0)
(0.000851425 -0.000916469 0)
(0.000992568 -0.00101257 0)
(0.00113769 -0.00110087 0)
(0.00128475 -0.00118394 0)
(0.00143277 -0.00126577 0)
(0.00158304 -0.00134966 0)
(0.00173896 -0.00143325 0)
(0.00190532 -0.0015111 0)
(0.00208831 -0.00157706 0)
(0.00229326 -0.00161805 0)
(0.00251619 -0.00161192 0)
(0.00274122 -0.00154502 0)
(0.00295592 -0.00142016 0)
(0.003134 -0.00122132 0)
(0.00324377 -0.00099732 0)
(0.00330656 -0.000831548 0)
(0.00336134 -0.000730193 0)
(0.00342971 -0.000594589 0)
(0.00348899 -0.000407335 0)
(0.00342875 -0.000267355 0)
(0.00329729 -9.77714e-05 0)
(0.00378867 0.000301899 0)
(0.00407842 -7.05844e-05 0)
(0.00380007 -0.000449105 0)
(0.00353327 0.000350763 0)
(0.00378797 0.000964081 0)
(0.00431538 0.000677055 0)
(0.00435853 0.00062377 0)
(0.00439305 0.000594137 0)
(0.00443906 0.000540248 0)
(0.00447475 0.000467263 0)
(0.00448925 0.000378095 0)
(0.00448484 0.000276952 0)
(0.00446957 0.000164615 0)
(0.00446068 4.50441e-05 0)
(0.00446929 -5.87844e-05 0)
(0.00448612 -0.000128395 0)
(0.0044975 -0.000167006 0)
(7.82594e-07 1.82937e-05 0)
(9.78358e-06 3.06835e-05 0)
(2.91742e-05 1.54681e-05 0)
(5.95234e-05 -2.8127e-05 0)
(0.000101749 -9.84091e-05 0)
(0.000156911 -0.000191843 0)
(0.000225928 -0.000303691 0)
(0.000309408 -0.000428535 0)
(0.000407558 -0.000560695 0)
(0.000520092 -0.000694608 0)
(0.000646159 -0.000825202 0)
(0.000784293 -0.00094831 0)
(0.000932407 -0.0010611 0)
(0.00108785 -0.00116247 0)
(0.00124758 -0.00125341 0)
(0.00140851 -0.00133699 0)
(0.00156811 -0.00141875 0)
(0.00172596 -0.00150478 0)
(0.00188473 -0.00159506 0)
(0.00205028 -0.00168632 0)
(0.0022327 -0.00177418 0)
(0.00244538 -0.00184104 0)
(0.00268831 -0.0018484 0)
(0.00293798 -0.00177348 0)
(0.00318082 -0.00163301 0)
(0.00337682 -0.00136922 0)
(0.00347046 -0.00106467 0)
(0.00351706 -0.000880941 0)
(0.00356581 -0.000769946 0)
(0.00360484 -0.000636657 0)
(0.00363914 -0.000420065 0)
(0.0036525 -0.00016467 0)
(0.00365822 -1.14816e-05 0)
(0.00379179 -0.000270032 0)
(0.00372716 0.000282698 0)
(0.00363176 -0.00060027 0)
(0.00382568 0.000426834 0)
(0.00411828 0.000329833 0)
(0.00444231 0.000506955 0)
(0.0046657 0.000528261 0)
(0.004829 0.000510739 0)
(0.00495397 0.000474949 0)
(0.00503351 0.00043017 0)
(0.00506634 0.000369037 0)
(0.00506017 0.000289875 0)
(0.0050278 0.000184125 0)
(0.00500412 4.81231e-05 0)
(0.00501336 -7.31527e-05 0)
(0.00503521 -0.000142496 0)
(0.00504257 -0.000170552 0)
(8.40581e-07 1.32151e-05 0)
(1.04763e-05 1.54481e-05 0)
(3.1187e-05 -1.0526e-05 0)
(6.35422e-05 -6.58588e-05 0)
(0.000108497 -0.000148978 0)
(0.000167189 -0.000256277 0)
(0.000240645 -0.000382798 0)
(0.000329616 -0.000522786 0)
(0.000434482 -0.000670128 0)
(0.000555159 -0.000818735 0)
(0.00069101 -0.000962932 0)
(0.000840773 -0.0010979 0)
(0.00100248 -0.00122013 0)
(0.00117343 -0.0013279 0)
(0.0013502 -0.00142179 0)
(0.00152872 -0.00150476 0)
(0.00170463 -0.0015832 0)
(0.00187464 -0.00166602 0)
(0.0020388 -0.00175715 0)
(0.00220153 -0.00185753 0)
(0.00237438 -0.00196921 0)
(0.00258331 -0.00207605 0)
(0.0028405 -0.00210871 0)
(0.00311418 -0.00202476 0)
(0.00338713 -0.00187771 0)
(0.00360712 -0.00153163 0)
(0.00367627 -0.00108344 0)
(0.00371554 -0.000952045 0)
(0.00380402 -0.000826878 0)
(0.00386039 -0.000676201 0)
(0.00392171 -0.000481165 0)
(0.00405667 -0.000271687 0)
(0.00430982 -0.000187461 0)
(0.00454666 -0.000322299 0)
(0.00471205 0.000392973 0)
(0.00428221 -0.000181268 0)
(0.00383514 0.000248089 0)
(0.0041134 1.54591e-05 0)
(0.00454294 0.000133386 0)
(0.00495016 0.000235401 0)
(0.00526831 0.000293205 0)
(0.00549728 0.000326673 0)
(0.00563127 0.000353976 0)
(0.00568034 0.000352585 0)
(0.00566532 0.000317198 0)
(0.00560165 0.000227638 0)
(0.0055534 5.93054e-05 0)
(0.00556937 -9.49096e-05 0)
(0.00560454 -0.000158738 0)
(0.00560571 -0.000163513 0)
(8.49178e-07 7.9092e-06 0)
(1.06898e-05 -4.89516e-07 0)
(3.19325e-05 -3.77396e-05 0)
(6.52229e-05 -0.000105393 0)
(0.000111614 -0.000202022 0)
(0.00017236 -0.000323974 0)
(0.000248634 -0.000466103 0)
(0.00034136 -0.000622355 0)
(0.000451134 -0.000786221 0)
(0.000578132 -0.000951124 0)
(0.000722034 -0.00111082 0)
(0.000881936 -0.00125981 0)
(0.00105624 -0.00139384 0)
(0.00124255 -0.00151034 0)
(0.00143753 -0.00160905 0)
(0.00163677 -0.00169204 0)
(0.00183458 -0.00176531 0)
(0.00202445 -0.00183916 0)
(0.00220166 -0.00192215 0)
(0.00236511 -0.00201993 0)
(0.00252073 -0.00214716 0)
(0.00270808 -0.00231305 0)
(0.00296429 -0.00238977 0)
(0.0032702 -0.00231239 0)
(0.00357654 -0.00214339 0)
(0.00374118 -0.0016491 0)
(0.00379665 -0.0010987 0)
(0.00391407 -0.00108477 0)
(0.00402747 -0.000911052 0)
(0.00408744 -0.000735842 0)
(0.00416758 -0.000588214 0)
(0.00430873 -0.000468969 0)
(0.00448166 -0.000439501 0)
(0.00455182 -0.000375145 0)
(0.00468433 0.000200798 0)
(0.00484222 0.000305738 0)
(0.00496269 0.00013138 0)
(0.00511534 -0.000199957 0)
(0.00527397 -0.000207876 0)
(0.00554308 -0.000110909 0)
(0.00585044 -4.69535e-06 0)
(0.006115 0.000120992 0)
(0.00626225 0.000263327 0)
(0.00630979 0.000340789 0)
(0.00628955 0.000368242 0)
(0.00618805 0.000311038 0)
(0.00610724 7.45515e-05 0)
(0.00614283 -0.000140397 0)
(0.00620314 -0.000181966 0)
(0.00619036 -0.000137201 0)
(8.0582e-07 2.62768e-06 0)
(1.04013e-05 -1.64792e-05 0)
(3.13488e-05 -6.5202e-05 0)
(6.44417e-05 -0.000145494 0)
(0.000110881 -0.00025608 0)
(0.000172068 -0.000393278 0)
(0.000249329 -0.000551778 0)
(0.00034377 -0.000725262 0)
(0.000456198 -0.00090687 0)
(0.000587055 -0.0010896 0)
(0.000736349 -0.00126669 0)
(0.000903584 -0.00143206 0)
(0.00108765 -0.00158071 0)
(0.00128669 -0.00170919 0)
(0.00149799 -0.00181618 0)
(0.00171765 -0.00190237 0)
(0.00194009 -0.00197203 0)
(0.00215719 -0.00203433 0)
(0.0023598 -0.00210053 0)
(0.00253802 -0.00217671 0)
(0.00268092 -0.00229302 0)
(0.0028189 -0.00252431 0)
(0.00303964 -0.0026811 0)
(0.00333568 -0.00261359 0)
(0.00360423 -0.0023744 0)
(0.00372068 -0.00171672 0)
(0.00396193 -0.00134667 0)
(0.00420198 -0.00119351 0)
(0.00418536 -0.000941112 0)
(0.00419702 -0.00078887 0)
(0.00428178 -0.000689082 0)
(0.00441137 -0.000612114 0)
(0.00455214 -0.000568469 0)
(0.00467628 -0.000434389 0)
(0.00491258 -0.000102624 0)
(0.00525161 -8.93337e-06 0)
(0.00555206 -0.000113706 0)
(0.00578301 -0.000317085 0)
(0.00597068 -0.000399877 0)
(0.00619675 -0.000375213 0)
(0.00646396 -0.000285506 0)
(0.00671585 -8.88484e-05 0)
(0.00685728 0.000193963 0)
(0.00694101 0.000300112 0)
(0.00697829 0.000428152 0)
(0.0068472 0.000455656 0)
(0.00671504 8.87149e-05 0)
(0.00676988 -0.000231223 0)
(0.00685138 -0.000207613 0)
(0.00679705 -6.8942e-05 0)
(7.10859e-07 -2.37218e-06 0)
(9.61489e-06 -3.18561e-05 0)
(2.94446e-05 -9.19158e-05 0)
(6.12055e-05 -0.00018488 0)
(0.000106288 -0.000309613 0)
(0.000166251 -0.000462401 0)
(0.00024257 -0.000637783 0)
(0.000336505 -0.000829196 0)
(0.000449034 -0.00102947 0)
(0.000580803 -0.00123122 0)
(0.000732067 -0.00142726 0)
(0.00090263 -0.00161099 0)
(0.00109176 -0.00177677 0)
(0.00129812 -0.00192041 0)
(0.00151963 -0.00203964 0)
(0.00175332 -0.00213388 0)
(0.00199505 -0.00220559 0)
(0.00223864 -0.00226138 0)
(0.00247607 -0.0023112 0)
(0.00269785 -0.00235346 0)
(0.00286896 -0.00241436 0)
(0.00292999 -0.00264367 0)
(0.00302038 -0.00294171 0)
(0.00326564 -0.00291846 0)
(0.00360849 -0.00264695 0)
(0.00384825 -0.00185822 0)
(0.00403254 -0.00165103 0)
(0.00410565 -0.00117248 0)
(0.00404606 -0.000916681 0)
(0.00411582 -0.000859597 0)
(0.00428093 -0.00082232 0)
(0.00448473 -0.000767728 0)
(0.00468973 -0.000726823 0)
(0.00490355 -0.000625966 0)
(0.00520331 -0.000446195 0)
(0.00559084 -0.000392616 0)
(0.0059636 -0.000422669 0)
(0.00625914 -0.000544293 0)
(0.00649064 -0.000609996 0)
(0.00671286 -0.000610703 0)
(0.00696592 -0.000550007 0)
(0.00722501 -0.000306349 0)
(0.00742455 0.000103897 0)
(0.00762802 0.000149635 0)