/*--------------------------------*- C++ -*----------------------------------*\
| =========                 |                                                 |
| \\      /  F ield         | OpenFOAM: The Open Source CFD Toolbox           |
|  \\    /   O peration     | Version:  2.4.0                                 |
|   \\  /    A nd           | Web:      www.OpenFOAM.org                      |
|    \\/     M anipulation  |                                                 |
\*---------------------------------------------------------------------------*/
FoamFile
{
    version     2.0;
    format      ascii;
    class       volScalarField;
    location    "0.489";
    object      alpha.water;
}
// * * * * * * * * * * * * * * * * * * * * * * * * * * * * * * * * * * * * * //

dimensions      [0 0 0 0 0 0 0];

internalField   nonuniform List<scalar> 
10000
(
3.36749e-47
4.7888e-44
7.35135e-41
3.21687e-38
5.83776e-36
5.03369e-34
2.19942e-32
5.20136e-31
7.09777e-30
5.98837e-29
3.40964e-28
1.59529e-27
6.71205e-27
2.63225e-26
1.04529e-25
4.17146e-25
1.71333e-24
7.08216e-24
2.76414e-23
9.87264e-23
3.194e-22
9.39073e-22
2.5169e-21
6.12863e-21
1.34563e-20
2.63211e-20
4.58174e-20
7.33217e-20
1.05004e-19
1.26028e-19
1.17898e-19
8.75198e-20
5.15639e-20
2.52013e-20
1.08313e-20
4.4332e-21
1.7739e-21
6.7327e-22
2.3697e-22
7.81558e-23
2.45817e-23
7.00991e-24
1.77739e-24
4.27055e-25
1.08863e-25
2.47017e-26
5.41634e-27
3.01482e-27
6.36605e-27
1.78542e-26
5.80976e-43
1.68419e-39
9.67492e-37
2.06367e-34
2.07839e-32
1.11023e-30
3.35987e-29
6.06461e-28
6.87049e-27
5.18299e-26
2.88748e-25
1.363e-24
5.40042e-24
1.97656e-23
7.17083e-23
2.61624e-22
9.79115e-22
3.66184e-21
1.2985e-20
4.21566e-20
1.24052e-19
3.33151e-19
8.22157e-19
1.86112e-18
3.83313e-18
7.10263e-18
1.17415e-17
1.79448e-17
2.50154e-17
3.06552e-17
3.09827e-17
2.61333e-17
1.83521e-17
1.08715e-17
5.62354e-18
2.66626e-18
1.18414e-18
4.89383e-19
1.88445e-19
6.84337e-20
2.32403e-20
7.21392e-21
2.02275e-21
5.42788e-22
1.4271e-22
3.38984e-23
8.19492e-24
5.46384e-24
1.2792e-23
3.928e-23
1.19572e-39
1.96321e-36
7.54076e-34
1.16181e-31
8.87673e-30
3.75078e-28
9.37495e-27
1.46073e-25
1.49432e-24
1.074e-23
5.99237e-23
2.7085e-22
1.00902e-21
3.44306e-21
1.14697e-20
3.84298e-20
1.32018e-19
4.52382e-19
1.47637e-18
4.41126e-18
1.19542e-17
2.96579e-17
6.80276e-17
1.44314e-16
2.81164e-16
4.97883e-16
7.95337e-16
1.16458e-15
1.5986e-15
1.98921e-15
2.12589e-15
1.9457e-15
1.53328e-15
1.04034e-15
6.17238e-16
3.31568e-16
1.64079e-16
7.47761e-17
3.15911e-17
1.25127e-17
4.60449e-18
1.55355e-18
4.79892e-19
1.41578e-19
3.94769e-20
1.00311e-20
2.72478e-21
2.21203e-21
5.74375e-21
1.86032e-20
3.63956e-37
4.60857e-34
1.42979e-31
1.83369e-29
1.19417e-27
4.39599e-26
9.79999e-25
1.40032e-23
1.35878e-22
9.58264e-22
5.25561e-21
2.26933e-20
8.02406e-20
2.56276e-19
7.88085e-19
2.42961e-18
7.66137e-18
2.41128e-17
7.26937e-17
2.01594e-16
5.078e-16
1.17249e-15
2.51497e-15
5.03043e-15
9.32679e-15
1.58673e-14
2.45628e-14
3.48037e-14
4.70362e-14
5.88666e-14
6.54668e-14
6.36267e-14
5.44003e-14
4.07894e-14
2.70221e-14
1.61676e-14
8.82393e-15
4.40416e-15
2.03211e-15
8.73131e-16
3.47389e-16
1.27138e-16
4.30484e-17
1.3794e-17
4.11687e-18
1.12836e-18
3.44055e-19
3.25232e-19
8.97411e-19
2.92822e-18
3.47404e-35
3.87628e-32
1.07382e-29
1.24206e-27
7.3606e-26
2.49002e-24
5.16982e-23
7.00988e-22
6.60618e-21
4.60745e-20
2.47806e-19
1.03204e-18
3.49997e-18
1.05191e-17
2.99835e-17
8.4683e-17
2.4386e-16
7.05242e-16
1.97478e-15
5.11601e-15
1.20494e-14
2.60569e-14
5.25633e-14
9.95792e-14
1.7642e-13
2.89437e-13
4.35796e-13
6.02802e-13
7.95572e-13
9.93784e-13
1.13719e-12
1.15813e-12
1.05408e-12
8.54066e-13
6.17285e-13
4.04161e-13
2.41612e-13
1.31899e-13
6.62062e-14
3.07924e-14
1.32352e-14
5.2406e-15
1.92956e-15
6.67044e-16
2.13761e-16
6.33392e-17
2.10557e-17
2.07608e-17
5.72149e-17
1.81544e-16
1.47851e-33
1.56609e-30
4.12062e-28
4.52537e-26
2.54566e-24
8.18855e-23
1.62727e-21
2.13948e-20
1.98647e-19
1.37332e-18
7.22354e-18
2.92771e-17
9.59316e-17
2.72523e-16
7.20402e-16
1.86138e-15
4.89015e-15
1.29988e-14
3.38633e-14
8.21935e-14
1.82e-13
3.70587e-13
7.06224e-13
1.27175e-12
2.15927e-12
3.42492e-12
5.02929e-12
6.8269e-12
8.76332e-12
1.08404e-11
1.26302e-11
1.33498e-11
1.27773e-11
1.10309e-11
8.57629e-12
6.06763e-12
3.92987e-12
2.32202e-12
1.26033e-12
6.33933e-13
2.95674e-13
1.27827e-13
5.13771e-14
1.92471e-14
6.66517e-15
2.14344e-15
7.48799e-16
6.63586e-16
1.68912e-15
5.08946e-15
3.41533e-32
3.61517e-29
9.44772e-27
1.02286e-24
5.62814e-23
1.76125e-21
3.40779e-20
4.3984e-19
4.0526e-18
2.78255e-17
1.42824e-16
5.65413e-16
1.79057e-15
4.82346e-15
1.18914e-14
2.82239e-14
6.76595e-14
1.64858e-13
3.98894e-13
9.09714e-13
1.90146e-12
3.66007e-12
6.61153e-12
1.13478e-11
1.85051e-11
2.84277e-11
4.0749e-11
5.42796e-11
6.79955e-11
8.27629e-11
9.71449e-11
1.0559e-10
1.05391e-10
9.60509e-11
7.95739e-11
6.03159e-11
4.20092e-11
2.66415e-11
1.55087e-11
8.38798e-12
4.22686e-12
1.98402e-12
8.68287e-13
3.53983e-13
1.33457e-13
4.66042e-14
1.67331e-14
1.19454e-14
2.58741e-14
7.34222e-14
4.84186e-31
5.34508e-28
1.4412e-25
1.58759e-23
8.75392e-22
2.71353e-20
5.18578e-19
6.6392e-18
6.06489e-17
4.08252e-16
2.03811e-15
7.83375e-15
2.39769e-14
6.17413e-14
1.43027e-13
3.13955e-13
6.87084e-13
1.53025e-12
3.43126e-12
7.35494e-12
1.45473e-11
2.6553e-11
4.55867e-11
7.47175e-11
1.17185e-10
1.74575e-10
2.44597e-10
3.20292e-10
3.93531e-10
4.69619e-10
5.48462e-10
6.07511e-10
6.27683e-10
5.99675e-10
5.25816e-10
4.24789e-10
3.16259e-10
2.13671e-10
1.32316e-10
7.65378e-11
4.15268e-11
2.10832e-11
1.0021e-11
4.44279e-12
1.82497e-12
6.94189e-13
2.58582e-13
1.44369e-13
2.36197e-13
6.18413e-13
4.54753e-30
5.47619e-27
1.58686e-24
1.83927e-22
1.04142e-20
3.24925e-19
6.17212e-18
7.82231e-17
7.01792e-16
4.52124e-15
2.17067e-14
8.09299e-14
2.40314e-13
5.95318e-13
1.30659e-12
2.67116e-12
5.35955e-12
1.08913e-11
2.25403e-11
4.53706e-11
8.50583e-11
1.47567e-10
2.41213e-10
3.77859e-10
5.70078e-10
8.23795e-10
1.12947e-09
1.4586e-09
1.77336e-09
2.07279e-09
2.38482e-09
2.66788e-09
2.83343e-09
2.82113e-09
2.60504e-09
2.23822e-09
1.77217e-09
1.26535e-09
8.25855e-10
5.08141e-10
2.95481e-10
1.61887e-10
8.35034e-11
4.03126e-11
1.80823e-11
7.51245e-12
2.96085e-12
1.37648e-12
1.49056e-12
3.37557e-12
2.97187e-29
4.16116e-26
1.37403e-23
1.75106e-21
1.0396e-19
3.26161e-18
6.09271e-17
7.4576e-16
6.34711e-15
3.88692e-14
1.7919e-13
6.46044e-13
1.8668e-12
4.45837e-12
9.32262e-12
1.78936e-11
3.31621e-11
6.16023e-11
1.17264e-10
2.21151e-10
3.93117e-10
6.49173e-10
1.01134e-09
1.51396e-09
2.19461e-09
3.07158e-09
4.11879e-09
5.25359e-09
6.35131e-09
7.341e-09
8.33576e-09
9.36315e-09
1.01689e-08
1.05093e-08
1.01886e-08
9.3193e-09
7.82186e-09
5.83277e-09
3.95767e-09
2.57303e-09
1.59377e-09
9.39928e-10
5.25636e-10
2.76425e-10
1.35579e-10
6.17028e-11
2.62394e-11
1.13931e-11
7.91982e-12
1.33198e-11
1.47664e-28
2.65855e-25
1.07555e-22
1.5293e-20
9.16846e-19
2.77422e-17
4.95639e-16
5.78722e-15
4.62376e-14
2.68906e-13
1.19127e-12
4.13163e-12
1.15045e-11
2.65101e-11
5.31024e-11
9.65697e-11
1.66992e-10
2.85109e-10
4.98283e-10
8.77666e-10
1.47759e-09
2.32342e-09
3.45061e-09
4.93152e-09
6.85029e-09
9.25043e-09
1.20898e-08
1.52145e-08
1.83559e-08
2.1301e-08
2.41942e-08
2.73634e-08
3.04249e-08
3.26938e-08
3.33712e-08
3.28842e-08
2.9244e-08
2.23324e-08
1.53803e-08
1.04275e-08
6.82274e-09
4.30941e-09
2.6039e-09
1.48808e-09
7.96583e-10
3.96827e-10
1.83863e-10
8.16243e-11
4.24656e-11
4.42049e-11
6.9004e-28
1.65799e-24
8.17871e-22
1.20637e-19
6.98101e-18
2.01549e-16
3.44086e-15
3.78643e-14
2.85548e-13
1.56409e-12
6.54364e-12
2.15487e-11
5.74316e-11
1.27462e-10
2.45348e-10
4.25856e-10
6.94175e-10
1.09849e-09
1.76475e-09
2.89648e-09
4.61253e-09
6.90696e-09
9.78013e-09
1.33334e-08
1.7698e-08
2.29413e-08
2.90469e-08
3.5895e-08
4.31152e-08
5.08121e-08
5.91556e-08
6.82815e-08
7.87716e-08
8.89814e-08
9.20052e-08
1.07322e-07
1.02586e-07
7.71815e-08
5.21213e-08
3.5971e-08
2.44856e-08
1.63685e-08
1.05744e-08
6.50492e-09
3.7694e-09
2.04238e-09
1.03086e-09
4.8837e-10
2.32763e-10
1.5306e-10
2.75956e-27
9.55223e-24
5.86457e-21
8.74744e-19
4.83271e-17
1.33975e-15
2.15287e-14
2.17238e-13
1.50416e-12
7.66852e-12
3.00304e-11
9.30834e-11
2.36158e-10
5.03758e-10
9.33715e-10
1.5547e-09
2.41075e-09
3.57253e-09
5.30469e-09
8.10874e-09
1.21911e-08
1.73712e-08
2.34428e-08
3.04584e-08
3.85171e-08
4.76619e-08
5.8055e-08
7.00013e-08
8.30742e-08
9.94246e-08
1.21695e-07
1.48199e-07
1.55233e-07
9.69707e-08
2.70373e-07
4.08479e-07
3.66751e-07
2.65615e-07
1.77118e-07
1.16883e-07
7.91515e-08
5.43409e-08
3.65952e-08
2.37129e-08
1.46158e-08
8.49863e-09
4.63508e-09
2.36927e-09
1.15832e-09
6.10939e-10
9.74873e-27
7.10559e-23
4.734e-20
6.39873e-18
3.19692e-16
8.01509e-15
1.14704e-13
1.04889e-12
6.67547e-12
3.16698e-11
1.15447e-10
3.36923e-10
8.11899e-10
1.65889e-09
2.95832e-09
4.74193e-09
7.05008e-09
9.89997e-09
1.37407e-08
1.96271e-08
2.77938e-08
3.76226e-08
4.83704e-08
5.98678e-08
7.1955e-08
8.45893e-08
9.85021e-08
1.15103e-07
1.33705e-07
1.61518e-07
2.07516e-07
2.02131e-07
1.70231e-07
5.7282e-07
4.88313e-07
1.49836e-06
1.00424e-06
6.13295e-07
4.0386e-07
2.872e-07
2.10443e-07
1.51581e-07
1.0554e-07
7.08271e-08
4.56547e-08
2.81038e-08
1.64113e-08
9.04806e-09
4.72524e-09
2.42672e-09
7.69141e-26
7.15028e-22
3.76118e-19
4.17833e-17
1.83162e-15
4.02363e-14
5.13872e-13
4.26396e-12
2.51559e-11
1.10301e-10
3.75847e-10
1.03002e-09
2.34845e-09
4.58305e-09
7.86297e-09
1.217e-08
1.7466e-08
2.35328e-08
3.1013e-08
4.17691e-08
5.58305e-08
7.16625e-08
8.78615e-08
1.03773e-07
1.18512e-07
1.31975e-07
1.46389e-07
1.64833e-07
1.83466e-07
2.14096e-07
2.74361e-07
3.34328e-07
4.13263e-07
5.36492e-07
7.26969e-07
6.09154e-06
3.38704e-06
1.7653e-06
8.19012e-07
5.24025e-07
3.98091e-07
3.01561e-07
2.20718e-07
1.55852e-07
1.06325e-07
6.98581e-08
4.39319e-08
2.62837e-08
1.49143e-08
8.10144e-09
9.88907e-25
6.52733e-21
2.51933e-18
2.31513e-16
8.73868e-15
1.67816e-13
1.91926e-12
1.46035e-11
7.94009e-11
3.23156e-10
1.02757e-09
2.65065e-09
5.73236e-09
1.06991e-08
1.76924e-08
2.65345e-08
3.6986e-08
4.84359e-08
6.17553e-08
7.94486e-08
1.00811e-07
1.23595e-07
1.45227e-07
1.64764e-07
1.79962e-07
1.89794e-07
2.00568e-07
2.18028e-07
2.31528e-07
2.39181e-07
2.43643e-07
5.22435e-07
5.14909e-07
1.69618e-06
6.15966e-06
1.72578e-05
1.72412e-05
1.48597e-05
2.72036e-06
1.09409e-06
5.86943e-07
4.15359e-07
3.18533e-07
2.42836e-07
1.8023e-07
1.29163e-07
8.87729e-08
5.81857e-08
3.62297e-08
2.14598e-08
1.23219e-23
4.86329e-20
1.39458e-17
1.071e-15
3.4387e-14
5.80983e-13
5.98827e-12
4.18728e-11
2.09481e-10
7.91403e-10
2.35853e-09
5.74838e-09
1.18322e-08
2.11811e-08
3.38687e-08
4.94553e-08
6.74648e-08
8.71562e-08
1.09608e-07
1.36962e-07
1.67195e-07
1.98098e-07
2.26884e-07
2.49694e-07
2.65887e-07
2.65698e-07
2.67118e-07
2.82937e-07
2.97674e-07
3.05753e-07
3.15149e-07
3.33876e-07
4.02166e-07
8.98443e-07
4.38111e-06
1.58713e-05
1.72608e-05
6.38785e-06
1.86314e-06
8.5169e-07
5.86318e-07
4.70698e-07
3.85643e-07
3.13507e-07
2.5061e-07
1.94837e-07
1.45906e-07
1.04547e-07
7.14219e-08
4.6452e-08
1.24435e-22
2.93682e-19
6.39635e-17
4.06253e-15
1.11925e-13
1.67483e-12
1.57105e-11
1.00171e-10
4.62599e-10
1.63031e-09
4.56906e-09
1.05539e-08
2.07438e-08
3.57389e-08
5.54814e-08
7.92601e-08
1.06665e-07
1.37791e-07
1.73595e-07
2.14275e-07
2.56552e-07
2.99146e-07
3.37656e-07
3.63246e-07
3.86789e-07
3.62617e-07
2.68377e-07
3.43447e-07
3.70661e-07
3.67156e-07
3.55617e-07
3.64845e-07
4.3038e-07
5.25177e-07
8.8722e-07
4.63989e-06
3.73789e-06
2.27584e-06
1.25905e-06
8.52998e-07
6.55538e-07
5.31679e-07
4.41016e-07
3.70164e-07
3.10861e-07
2.57216e-07
2.07121e-07
1.60998e-07
1.20176e-07
8.58505e-08
9.83213e-22
1.43013e-18
2.40785e-16
1.26491e-14
3.01888e-13
4.03749e-12
3.43796e-11
2.01071e-10
8.61883e-10
2.84404e-09
7.52672e-09
1.65436e-08
3.1169e-08
5.18656e-08
7.84756e-08
1.10071e-07
1.47152e-07
1.91937e-07
2.44448e-07
3.01501e-07
3.58942e-07
4.17684e-07
4.62196e-07
4.82903e-07
5.30444e-07
3.65602e-07
1.407e-06
5.10375e-07
4.62189e-07
4.25141e-07
3.9436e-07
3.72928e-07
3.76534e-07
4.18678e-07
5.02346e-07
1.45743e-06
1.53964e-06
9.6084e-07
6.28779e-07
5.77523e-07
5.22586e-07
4.75007e-07
4.30427e-07
3.88751e-07
3.50153e-07
3.11408e-07
2.70362e-07
2.27568e-07
1.85015e-07
1.45447e-07
5.97471e-21
5.59102e-18
7.3655e-16
3.24373e-14
6.78292e-13
8.16759e-12
6.32853e-11
3.41941e-10
1.36824e-09
4.25315e-09
1.06842e-08
2.24491e-08
4.07173e-08
6.57216e-08
9.73276e-08
1.3425e-07
1.79116e-07
2.36685e-07
3.04581e-07
3.75183e-07
4.43011e-07
5.1531e-07
5.55963e-07
5.33803e-07
6.48432e-07
6.90878e-07
5.97217e-07
5.78461e-07
5.32464e-07
4.88261e-07
4.49951e-07
4.17196e-07
3.938e-07
3.84526e-07
3.84399e-07
5.81959e-07
6.66924e-07
5.53883e-07
4.88348e-07
4.73214e-07
4.61312e-07
4.49034e-07
4.04785e-07
4.04026e-07
3.94852e-07
3.78269e-07
3.52094e-07
3.17451e-07
2.78225e-07
2.39967e-07
2.79004e-20
1.75562e-17
1.83878e-15
6.89361e-14
1.27666e-12
1.39215e-11
9.92015e-11
4.99199e-10
1.87934e-09
5.54165e-09
1.33014e-08
2.6886e-08
4.72256e-08
7.43307e-08
1.08191e-07
1.46818e-07
1.96015e-07
2.61048e-07
3.35468e-07
4.06306e-07
4.6411e-07
4.70214e-07
5.56716e-07
9.03732e-07
9.91168e-07
1.05116e-06
9.39635e-07
8.10316e-07
6.35455e-07
5.78434e-07
5.25039e-07
4.8083e-07
4.45653e-07
4.22586e-07
4.1233e-07
4.34554e-07
4.60175e-07
4.5883e-07
4.64969e-07
4.78215e-07
4.91067e-07
4.57712e-07
1.14405e-06
4.19726e-07
4.30808e-07
4.22211e-07
3.98406e-07
3.81981e-07
2.81035e-07
3.92054e-07
1.01267e-19
4.48313e-17
3.81945e-15
1.23767e-13
2.04893e-12
2.03498e-11
1.34356e-10
6.34659e-10
2.26726e-09
6.39467e-09
1.4786e-08
2.89883e-08
4.97107e-08
7.68524e-08
1.10523e-07
1.47784e-07
1.97241e-07
2.60155e-07
3.26321e-07
3.82019e-07
3.82781e-07
1.61079e-06
7.04521e-07
7.79932e-07
1.45212e-06
4.01249e-06
4.61721e-06
9.17255e-07
1.03198e-06
5.95827e-07
5.79733e-07
5.21386e-07
4.76821e-07
4.50167e-07
4.41881e-07
4.51959e-07
4.74526e-07
5.00766e-07
5.29319e-07
5.54128e-07
5.73994e-07
5.80272e-07
5.84887e-07
5.73336e-07
5.67223e-07
5.71627e-07
6.08953e-07
5.8949e-07
7.42661e-07
6.40587e-07
2.87607e-19
9.40238e-17
6.67366e-15
1.89661e-13
2.83738e-12
2.59735e-11
1.60417e-10
7.16792e-10
2.44389e-09
6.63949e-09
1.49154e-08
2.86379e-08
4.84081e-08
7.41361e-08
1.05969e-07
1.40079e-07
1.84738e-07
2.3514e-07
2.79379e-07
2.8138e-07
6.89983e-07
4.04134e-07
4.15346e-07
1.71277e-06
1.59952e-05
3.55882e-05
3.42259e-05
1.57985e-05
1.19963e-06
7.04953e-07
5.06937e-07
5.01549e-07
4.68879e-07
4.47751e-07
4.419e-07
4.51966e-07
4.74359e-07
5.03369e-07
5.35547e-07
5.6904e-07
6.01311e-07
6.25226e-07
6.34994e-07
6.27439e-07
6.06945e-07
5.85127e-07
5.76348e-07
6.04174e-07
6.30498e-07
5.57827e-06
6.46673e-19
1.64274e-16
9.90468e-15
2.50931e-13
3.43558e-12
2.92806e-11
1.70619e-10
7.27359e-10
2.38958e-09
6.31018e-09
1.38912e-08
2.63282e-08
4.42362e-08
6.76769e-08
9.67285e-08
1.26265e-07
1.60731e-07
1.92921e-07
1.95968e-07
7.8622e-07
3.76147e-07
3.91305e-07
1.00487e-06
5.90604e-06
3.19086e-05
3.66287e-05
3.66222e-05
3.2227e-05
4.9879e-06
1.6003e-06
1.64554e-06
4.68382e-07
4.34946e-07
4.24171e-07
4.22857e-07
4.2967e-07
4.43727e-07
4.63135e-07
4.88552e-07
5.23494e-07
5.70985e-07
6.29889e-07
6.4769e-07
6.7878e-07
6.51341e-07
6.14283e-07
6.37141e-07
1.50012e-06
7.46223e-06
1.63087e-05
1.14825e-18
2.41887e-16
1.27253e-14
2.91614e-13
3.69185e-12
2.9536e-11
1.63695e-10
6.70965e-10
2.13916e-09
5.53339e-09
1.20394e-08
2.27289e-08
3.82733e-08
5.89104e-08
8.45322e-08
1.07418e-07
1.3106e-07
1.54408e-07
3.21158e-07
2.20555e-07
3.94438e-07
3.45673e-07
8.64784e-07
5.61356e-06
3.48014e-05
3.66196e-05
3.6619e-05
3.19591e-05
5.80014e-06
1.84487e-06
7.29772e-07
4.49351e-07
4.03251e-07
3.99327e-07
4.0252e-07
4.08097e-07
4.14953e-07
4.22801e-07
4.33201e-07
4.44917e-07
4.5321e-07
4.98709e-07
1.11197e-06
6.71154e-07
6.8041e-07
6.30577e-07
6.117e-07
8.07946e-07
3.16004e-06
1.63199e-05
1.61297e-18
2.94873e-16
1.39225e-14
2.95354e-13
3.50935e-12
2.6732e-11
1.42465e-10
5.66478e-10
1.7674e-09
4.51271e-09
9.76563e-09
1.8472e-08
3.1345e-08
4.87654e-08
7.03331e-08
8.55973e-08
1.07881e-07
1.88712e-07
1.41664e-07
2.07141e-07
2.26467e-07
3.01971e-07
3.30943e-07
1.10231e-06
1.7625e-05
3.66243e-05
3.51765e-05
1.73882e-05
1.91873e-06
5.65595e-07
5.43338e-07
3.8032e-07
3.49748e-07
3.50041e-07
3.70089e-07
3.8151e-07
3.94432e-07
4.07479e-07
4.20893e-07
4.34102e-07
4.45971e-07
4.55664e-07
4.67899e-07
4.99972e-07
5.20674e-07
5.40707e-07
5.91401e-07
7.35648e-07
1.36714e-06
5.01876e-06
1.84012e-18
3.01384e-16
1.30771e-14
2.59647e-13
2.94334e-12
2.15763e-11
1.11761e-10
4.35633e-10
1.34332e-09
3.41245e-09
7.39751e-09
1.40929e-08
2.41848e-08
3.81271e-08
5.53742e-08
6.80242e-08
1.10573e-07
9.00267e-08
1.34237e-07
1.50646e-07
3.21601e-07
2.89094e-07
2.87159e-07
3.00589e-07
1.12418e-06
5.81342e-06
5.67668e-06
1.21621e-06
5.10147e-07
3.57175e-07
3.06024e-07
3.04653e-07
3.14946e-07
9.63073e-07
3.23149e-07
3.42785e-07
3.58975e-07
3.7342e-07
3.74316e-07
4.0551e-07
4.24106e-07
4.4322e-07
4.61151e-07
4.77844e-07
4.9044e-07
4.93168e-07
5.27708e-07
5.96769e-07
8.40836e-07
2.25046e-06
1.7024e-18
2.60949e-16
1.06145e-14
1.99214e-13
2.1773e-12
1.55413e-11
7.89443e-11
3.0426e-10
9.34447e-10
2.37904e-09
5.19392e-09
1.00041e-08
1.74026e-08
2.78534e-08
4.15197e-08
5.68588e-08
5.88177e-08
8.48331e-08
9.7813e-08
1.05004e-07
4.80217e-07
2.58075e-07
2.47531e-07
3.048e-07
3.46652e-07
9.79485e-07
9.50111e-07
4.20269e-07
3.20888e-07
3.06699e-07
2.77693e-07
8.89164e-07
3.41325e-07
2.92212e-07
2.89737e-07
3.07947e-07
3.2271e-07
3.28272e-07
1.00207e-06
3.53007e-07
3.75736e-07
4.02026e-07
4.34721e-07
4.5118e-07
5.35103e-07
6.56517e-07
5.39393e-07
7.16816e-07
9.70184e-07
1.14921e-06
1.28359e-18
1.89728e-16
7.43932e-15
1.34299e-13
1.41938e-12
9.96568e-12
5.01234e-11
1.92455e-10
5.92235e-10
1.5199e-09
3.35432e-09
6.54612e-09
1.15508e-08
1.87645e-08
2.84574e-08
4.05891e-08
5.33933e-08
6.02019e-08
6.71516e-08
9.90573e-08
9.71071e-08
1.52011e-07
1.31324e-07
3.72159e-07
3.20952e-07
3.6234e-07
4.2718e-07
3.02001e-07
3.04437e-07
2.90613e-07
2.74739e-07
2.35182e-07
5.45282e-07
2.63107e-07
2.69106e-07
2.83876e-07
2.75839e-07
3.48227e-07
3.00177e-07
3.11279e-07
3.33574e-07
3.54643e-07
3.78147e-07
4.29442e-07
4.85223e-07
4.85478e-07
2.10121e-05
8.41775e-06
8.20383e-06
8.71867e-07
7.90707e-19
1.15535e-16
4.46116e-15
7.90193e-14
8.1689e-13
5.6745e-12
2.85087e-11
1.09834e-10
3.40513e-10
8.8321e-10
1.97565e-09
3.90903e-09
6.99503e-09
1.15248e-08
1.77285e-08
2.56398e-08
3.403e-08
3.97699e-08
4.58277e-08
4.12185e-08
8.83281e-08
9.54864e-08
1.19404e-07
1.6437e-07
1.42021e-07
5.14282e-07
2.35054e-07
1.74476e-07
3.26909e-07
2.53376e-07
2.27131e-07
2.1748e-07
1.97838e-07
2.17684e-07
2.37248e-07
2.5506e-07
2.67802e-07
2.57847e-07
2.79653e-07
2.95287e-07
3.06494e-07
3.10092e-07
3.08511e-07
3.4278e-07
6.93182e-07
3.54854e-05
7.32565e-05
7.32511e-05
7.18325e-05
7.40025e-06
3.97543e-19
5.88894e-17
2.28267e-15
4.03524e-14
4.14789e-13
2.86592e-12
1.44724e-11
5.63046e-11
1.76562e-10
4.63746e-10
1.05283e-09
2.11304e-09
3.83473e-09
6.40799e-09
1.00018e-08
1.46809e-08
1.9685e-08
2.43292e-08
2.36309e-08
3.35513e-08
5.01312e-08
4.71137e-08
8.34223e-08
7.10944e-08
8.08744e-08
6.57355e-08
7.77211e-08
1.53083e-07
1.07233e-07
1.27425e-07
1.50593e-07
1.68225e-07
1.80833e-07
1.95477e-07
2.10339e-07
2.25261e-07
2.40215e-07
2.52489e-07
2.68867e-07
2.84312e-07
2.95962e-07
3.00239e-07
3.18066e-07
8.66809e-07
5.8773e-06
7.32574e-05
7.3254e-05
7.32506e-05
7.32447e-05
4.59233e-05
1.6361e-19
2.51518e-17
9.95651e-16
1.782e-14
1.84437e-13
1.28158e-12
6.54947e-12
2.58337e-11
8.23044e-11
2.19686e-10
5.07328e-10
1.03726e-09
1.91856e-09
3.26901e-09
5.20365e-09
7.79102e-09
1.06142e-08
1.34496e-08
1.55308e-08
2.05602e-08
2.46312e-08
2.98177e-08
3.13003e-08
4.27089e-08
5.40997e-08
5.1422e-08
8.75969e-08
6.90276e-08
7.54312e-08
9.2577e-08
1.0925e-07
1.23709e-07
1.37387e-07
1.51629e-07
1.66765e-07
1.83001e-07
2.00498e-07
2.1888e-07
2.3885e-07
2.59999e-07
2.78967e-07
2.90591e-07
2.93436e-07
4.92515e-07
4.43039e-06
6.89463e-05
7.32458e-05
7.3255e-05
7.31703e-05
4.31826e-05
5.51934e-20
9.00596e-18
3.70322e-16
6.8025e-15
7.17398e-14
5.07258e-13
2.64598e-12
1.06688e-11
3.48797e-11
9.59761e-11
2.29691e-10
4.90444e-10
9.4924e-10
1.69073e-09
2.80286e-09
4.35519e-09
6.2043e-09
8.31073e-09
1.0687e-08
1.24378e-08
1.62866e-08
2.04051e-08
2.52717e-08
3.10509e-08
3.71186e-08
4.16889e-08
4.18253e-08
4.77889e-08
5.55936e-08
6.43824e-08
7.41198e-08
8.47069e-08
9.62875e-08
1.09079e-07
1.23298e-07
1.39248e-07
1.57073e-07
1.76622e-07
1.9847e-07
2.24302e-07
2.52094e-07
2.74244e-07
2.83499e-07
2.90396e-07
1.12316e-06
3.50029e-05
7.32555e-05
7.32575e-05
6.89615e-05
9.27753e-06
1.52746e-20
2.70436e-18
1.17534e-16
2.24827e-15
2.44984e-14
1.79223e-13
9.75111e-13
4.15163e-12
1.46445e-11
4.46172e-11
1.19979e-10
2.8873e-10
6.22078e-10
1.20902e-09
2.14139e-09
3.49687e-09
5.29133e-09
7.51593e-09
1.0129e-08
1.29895e-08
1.64198e-08
2.00792e-08
2.39474e-08
2.80767e-08
3.22336e-08
3.61395e-08
3.98393e-08
4.36486e-08
4.79238e-08
5.29323e-08
5.87831e-08
6.55033e-08
7.31437e-08
8.18644e-08
9.20202e-08
1.04116e-07
1.18396e-07
1.34746e-07
1.53131e-07
1.7644e-07
2.09516e-07
2.43646e-07
2.66262e-07
2.73188e-07
3.1509e-07
2.50137e-07
1.73595e-05
1.00012e-05
6.5967e-06
2.74678e-07
3.46922e-21
6.83802e-19
3.20353e-17
6.50643e-16
7.51129e-15
5.94727e-14
3.6858e-13
1.92252e-12
8.74379e-12
3.41e-11
1.117e-10
3.0914e-10
7.28945e-10
1.49517e-09
2.72787e-09
4.52976e-09
6.96673e-09
1.00008e-08
1.35243e-08
1.75044e-08
2.18437e-08
2.63889e-08
3.09395e-08
3.54341e-08
3.97624e-08
4.38326e-08
4.75977e-08
5.11004e-08
5.44692e-08
5.78983e-08
6.15407e-08
6.54807e-08
6.96811e-08
7.40936e-08
7.89989e-08
8.51236e-08
9.30746e-08
1.03099e-07
1.1407e-07
1.23784e-07
1.49375e-07
1.88849e-07
2.23799e-07
2.4297e-07
2.46615e-07
2.49587e-07
2.17791e-07
5.29855e-07
2.75388e-07
2.62108e-07
6.43582e-22
1.4644e-19
7.62385e-18
1.71264e-16
2.2864e-15
2.39591e-14
2.28016e-13
1.82342e-12
1.11056e-11
5.06211e-11
1.77983e-10
5.05082e-10
1.19234e-09
2.42059e-09
4.35063e-09
7.12936e-09
1.07728e-08
1.518e-08
2.02589e-08
2.58657e-08
3.18176e-08
3.79236e-08
4.39954e-08
4.98591e-08
5.53584e-08
6.03486e-08
6.4709e-08
6.83948e-08
7.1603e-08
7.45661e-08
7.75204e-08
8.05987e-08
8.35707e-08
8.56271e-08
8.63032e-08
8.63328e-08
8.71131e-08
8.97465e-08
9.42899e-08
9.95944e-08
1.07897e-07
1.19705e-07
1.33213e-07
1.46274e-07
1.58945e-07
1.778e-07
2.05861e-07
2.28373e-07
2.36666e-07
2.50147e-07
1.00387e-22
2.74881e-20
1.69627e-18
4.95686e-17
1.10051e-15
2.22505e-14
3.34247e-13
3.24928e-12
2.08633e-11
9.47624e-11
3.25205e-10
8.94772e-10
2.04352e-09
4.01934e-09
7.03858e-09
1.12359e-08
1.65061e-08
2.27374e-08
2.97644e-08
3.73592e-08
4.52668e-08
5.32339e-08
6.10236e-08
6.84149e-08
7.52111e-08
8.12311e-08
8.63362e-08
9.05271e-08
9.41561e-08
9.76772e-08
1.01477e-07
1.0599e-07
1.11533e-07
1.15322e-07
1.14549e-07
1.09482e-07
1.03049e-07
9.79833e-08
9.53095e-08
9.48585e-08
9.65997e-08
1.00566e-07
1.06537e-07
1.14079e-07
1.23599e-07
1.36462e-07
1.54842e-07
1.70866e-07
1.8477e-07
2.01026e-07
1.41989e-23
5.23094e-21
5.12871e-19
3.18692e-17
1.46323e-15
4.21965e-14
6.90754e-13
6.63836e-12
4.09856e-11
1.78063e-10
5.84332e-10
1.54035e-09
3.37771e-09
6.4089e-09
1.09079e-08
1.68338e-08
2.40393e-08
3.23429e-08
4.14739e-08
5.11227e-08
6.09669e-08
7.07027e-08
8.00559e-08
8.8771e-08
9.66313e-08
1.0345e-07
1.09087e-07
1.13578e-07
1.17641e-07
1.22163e-07
1.27817e-07
1.3572e-07
1.51662e-07
1.64746e-07
1.66631e-07
1.57201e-07
1.42326e-07
1.28615e-07
1.18672e-07
1.12286e-07
1.08647e-07
1.07151e-07
1.07374e-07
1.09085e-07
1.12321e-07
1.17135e-07
1.23615e-07
1.30797e-07
1.38267e-07
1.45621e-07
2.94046e-24
2.1948e-21
4.96023e-19
5.42607e-17
3.08127e-15
9.20704e-14
1.45892e-12
1.33014e-11
7.779e-11
3.21186e-10
1.004e-09
2.52663e-09
5.30815e-09
9.73191e-09
1.59632e-08
2.38161e-08
3.30891e-08
4.34678e-08
5.45862e-08
6.60645e-08
7.7534e-08
8.86665e-08
9.91757e-08
1.08782e-07
1.17265e-07
1.24482e-07
1.30265e-07
1.34502e-07
1.38312e-07
1.43492e-07
1.50892e-07
1.62908e-07
1.71026e-07
2.34177e-07
2.46461e-07
2.36038e-07
2.09165e-07
1.83598e-07
1.65227e-07
1.53297e-07
1.45174e-07
1.39029e-07
1.34089e-07
1.30151e-07
1.27093e-07
1.25172e-07
1.24853e-07
1.26569e-07
1.30391e-07
1.36237e-07
2.62646e-24
3.15678e-21
9.47637e-19
1.16093e-16
6.78111e-15
1.97657e-13
2.97236e-12
2.55355e-11
1.41131e-10
5.52823e-10
1.64279e-09
3.94014e-09
7.9353e-09
1.39971e-08
2.20575e-08
3.18757e-08
4.3096e-08
5.52906e-08
6.80187e-08
8.0861e-08
9.34404e-08
1.05439e-07
1.16589e-07
1.26581e-07
1.35206e-07
1.42504e-07
1.48104e-07
1.51347e-07
1.53874e-07
1.58651e-07
1.6604e-07
1.63806e-07
3.98227e-07
3.66943e-07
3.43325e-07
4.11493e-07
3.22672e-07
2.76465e-07
2.43203e-07
2.22428e-07
2.07448e-07
1.95194e-07
1.84731e-07
1.75167e-07
1.66322e-07
1.584e-07
1.51646e-07
1.46502e-07
1.4336e-07
1.42605e-07
4.6777e-24
6.138e-21
1.95689e-18
2.48002e-16
1.45589e-14
4.09157e-13
5.80328e-12
4.68862e-11
2.44638e-10
9.07159e-10
2.55848e-09
5.84969e-09
1.1283e-08
1.90261e-08
2.88723e-08
4.04407e-08
5.32341e-08
6.67457e-08
8.05002e-08
9.40843e-08
1.07157e-07
1.1945e-07
1.3074e-07
1.40654e-07
1.4899e-07
1.56348e-07
1.61565e-07
1.63051e-07
1.63805e-07
1.67594e-07
1.72327e-07
2.09393e-07
2.49345e-07
4.72557e-07
3.23567e-06
3.97838e-06
9.60677e-07
5.74647e-07
4.2779e-07
3.43599e-07
2.96923e-07
2.68457e-07
2.48105e-07
2.32019e-07
2.184e-07
2.06237e-07
1.95068e-07
1.84789e-07
1.75496e-07
1.67415e-07
8.87218e-24
1.21332e-20
4.00363e-18
5.17886e-16
3.03038e-14
8.15226e-13
1.08586e-11
8.24091e-11
4.05091e-10
1.4195e-09
3.79758e-09
8.28436e-09
1.52006e-08
2.45171e-08
3.58792e-08
4.87414e-08
6.25205e-08
7.66817e-08
9.07664e-08
1.04416e-07
1.17367e-07
1.29429e-07
1.40442e-07
1.49905e-07
1.5748e-07
1.65193e-07
1.6989e-07
1.69127e-07
1.69328e-07
1.73348e-07
1.74475e-07
1.75643e-07
1.7565e-07
2.51624e-05
4.33365e-05
4.33325e-05
1.77235e-05
5.00982e-07
4.81749e-07
4.1642e-07
3.68405e-07
3.30967e-07
3.03509e-07
2.83115e-07
2.67084e-07
2.53464e-07
2.41056e-07
2.29117e-07
2.17306e-07
2.05464e-07
1.6483e-23
2.34265e-20
7.99974e-18
1.05473e-15
6.11641e-14
1.5632e-12
1.94861e-11
1.38721e-10
6.40595e-10
2.11975e-09
5.39105e-09
1.11344e-08
1.94361e-08
3.003e-08
4.24184e-08
5.59404e-08
6.99936e-08
8.40737e-08
9.77872e-08
1.10868e-07
1.23158e-07
1.34556e-07
1.44974e-07
1.53697e-07
1.59569e-07
1.67711e-07
1.73377e-07
1.6984e-07
2.35137e-07
1.79105e-07
1.77132e-07
1.7514e-07
7.8137e-06
4.33264e-05
4.33326e-05
4.33283e-05
4.06609e-05
5.44806e-06
4.05332e-07
5.40638e-07
3.69369e-07
3.5632e-07
3.28947e-07
3.09839e-07
2.96017e-07
2.84801e-07
2.74879e-07
2.64988e-07
2.54701e-07
2.43656e-07
3.03515e-23
4.44189e-20
1.56455e-17
2.09836e-15
1.19718e-13
2.8844e-12
3.3571e-11
2.23429e-10
9.68106e-10
3.03435e-09
7.2716e-09
1.42328e-08
2.36294e-08
3.5038e-08
4.78236e-08
6.1296e-08
7.49021e-08
8.82182e-08
1.0095e-07
1.12943e-07
1.24148e-07
1.3455e-07
1.44123e-07
1.51882e-07
1.53442e-07
1.60208e-07
2.23502e-07
1.78464e-07
1.74237e-07
1.79708e-07
1.7806e-07
1.75146e-07
8.69034e-06
4.32125e-05
4.33324e-05
4.3328e-05
4.15692e-05
5.91367e-06
3.60022e-07
4.02905e-07
3.72973e-07
3.38793e-07
3.17342e-07
3.05061e-07
2.97484e-07
2.91082e-07
2.87203e-07
2.81458e-07
2.75057e-07
2.68365e-07
5.56757e-23
8.27666e-20
2.992e-17
4.07819e-15
2.27086e-13
5.11938e-12
5.55151e-11
3.44365e-10
1.40558e-09
4.13797e-09
9.33948e-09
1.72974e-08
2.7386e-08
3.9032e-08
5.1553e-08
6.4306e-08
7.68421e-08
8.88485e-08
1.00142e-07
1.10677e-07
1.20496e-07
1.29652e-07
1.38165e-07
1.44823e-07
1.36277e-07
2.02315e-07
1.54879e-07
2.43475e-07
1.71263e-07
1.802e-07
1.78575e-07
1.80722e-07
1.80655e-07
2.42916e-05
4.33365e-05
4.3332e-05
1.82176e-05
3.65653e-07
3.46304e-07
3.11688e-07
2.98507e-07
2.89909e-07
2.80189e-07
2.7779e-07
2.76875e-07
2.70796e-07
2.81379e-07
2.74564e-07
2.71022e-07
2.70288e-07
1.01648e-22
1.51198e-19
5.58429e-17
7.7487e-15
4.1705e-13
8.75013e-12
8.80288e-11
5.10896e-10
1.9508e-09
5.3738e-09
1.14152e-08
2.00349e-08
3.03208e-08
4.16196e-08
5.32867e-08
6.47862e-08
7.58017e-08
8.61374e-08
9.57123e-08
1.04569e-07
1.12816e-07
1.20547e-07
1.27811e-07
1.33362e-07
1.33199e-07
1.20245e-07
1.47903e-07
1.38304e-07
1.58041e-07
1.65812e-07
1.68723e-07
1.86156e-07
1.81758e-07
1.3111e-06
1.96943e-06
4.34587e-06
7.1064e-07
3.63859e-07
2.60021e-07
2.39807e-07
2.54978e-07
2.55082e-07
2.35461e-07
2.50218e-07
2.49756e-07
2.1756e-07
5.70413e-07
2.2338e-07
2.42203e-07
2.52222e-07
1.86393e-22
2.71849e-19
1.01702e-16
1.4396e-14
7.40369e-13
1.44137e-11
1.34641e-10
7.27107e-10
2.57956e-09
6.64956e-09
1.32872e-08
2.21601e-08
3.21411e-08
4.25908e-08
5.29644e-08
6.28648e-08
7.21077e-08
8.06002e-08
8.83432e-08
9.54399e-08
1.02036e-07
1.08243e-07
1.14117e-07
1.18694e-07
1.22267e-07
1.178e-07
1.23414e-07
1.34869e-07
1.46958e-07
1.55556e-07
1.45987e-07
1.96543e-07
1.78151e-07
1.82021e-07
1.99732e-07
2.2839e-07
2.12973e-07
2.11309e-07
2.14393e-07
2.1506e-07
6.72077e-07
2.33038e-07
1.50489e-07
5.05874e-07
2.2375e-07
2.16191e-07
1.79079e-07
1.8211e-07
6.80415e-07
2.62165e-07
3.46672e-22
4.84319e-19
1.80995e-16
2.61547e-14
1.27113e-12
2.3003e-11
1.98382e-10
9.8771e-10
3.25844e-09
7.83121e-09
1.47632e-08
2.34515e-08
3.26958e-08
4.19354e-08
5.07582e-08
5.89075e-08
6.63094e-08
7.29509e-08
7.88917e-08
8.42697e-08
8.92431e-08
9.39207e-08
9.83557e-08
1.02063e-07
1.05364e-07
1.06456e-07
1.06665e-07
1.1838e-07
1.308e-07
1.38101e-07
1.41924e-07
1.2269e-07
1.34819e-07
1.5017e-07
1.55213e-07
1.56946e-07
2.27062e-07
2.13414e-07
2.09927e-07
2.58273e-07
1.24608e-07
1.34782e-07
1.44651e-07
1.37383e-07
1.52322e-07
1.65069e-07
1.66646e-07
4.71049e-07
2.62124e-07
2.45937e-07
6.56594e-22
8.6061e-19
3.16127e-16
4.66895e-14
2.14403e-12
3.5491e-11
2.79819e-10
1.28389e-09
3.91971e-09
8.79954e-09
1.56839e-08
2.3794e-08
3.1988e-08
3.98174e-08
4.7005e-08
5.34146e-08
5.90529e-08
6.39639e-08
6.82458e-08
7.20498e-08
7.55283e-08
7.87774e-08
8.18403e-08
8.46161e-08
8.68388e-08
8.86636e-08
8.79812e-08
9.79192e-08
1.08746e-07
1.14604e-07
1.16937e-07
1.16173e-07
1.17895e-07
1.27128e-07
1.08712e-07
1.72582e-07
1.10559e-07
1.26336e-07
1.501e-07
1.04749e-07
1.13755e-07
1.19785e-07
1.26615e-07
1.34163e-07
1.37439e-07
1.36701e-07
2.33079e-07
1.41452e-07
1.65186e-07
1.52858e-07
1.26167e-21