/*--------------------------------*- C++ -*----------------------------------*\
| =========                 |                                                 |
| \\      /  F ield         | OpenFOAM: The Open Source CFD Toolbox           |
|  \\    /   O peration     | Version:  2.4.0                                 |
|   \\  /    A nd           | Web:      www.OpenFOAM.org                      |
|    \\/     M anipulation  |                                                 |
\*---------------------------------------------------------------------------*/
FoamFile
{
    version     2.0;
    format      ascii;
    class       volScalarField;
    location    "0.004";
    object      alpha.water;
}
// * * * * * * * * * * * * * * * * * * * * * * * * * * * * * * * * * * * * * //

dimensions      [0 0 0 0 0 0 0];

internalField   nonuniform List<scalar> 
3600
(
1
1
1
1
1
1
1
1
1
1
1
1
1
1
1
1
1
1
1
1
1
1
1
1
1
1
1
1
1
1
1
1
1
1
1
1
1
1
1
1
1
1
1
1
1
1
1
1
1
1
1
1
1
1
1
1
1
1
1
1
1
1
1
1
1
1
1
1
1
1
1
1
1
1
1
1
1
1
1
1
1
1
1
1
1
1
1
1
1
1
1
1
1
1
1
1
1
1
1
1
1
1
1
1
1
1
1
1
1
1
1
1
1
1
1
1
1
1
1
1
1
1
1
1
1
1
1
1
1
1
1
1
1
1
1
1
1
1
1
1
1
1
1
1
1
1
1
1
1
1
1
1
1
1
1
1
1
1
1
1
1
1
1
1
1
1
1
1
1
1
1
1
1
1
1
1
1
1
1
1
1
1
1
1
1
1
1
1
1
1
1
1
1
1
1
1
1
1
1
1
1
1
1
1
1
1
1
1
1
1
1
1
1
1
1
1
1
1
1
1
1
1
1
1
1
1
1
1
1
1
1
1
1
1
1
1
1
1
1
1
1
1
1
1
1
1
1
1
1
1
1
1
1
1
1
1
1
1
1
1
1
1
1
1
1
1
1
1
1
1
1
1
1
1
1
1
1
1
1
1
1
1
1
1
1
1
1
1
1
1
1
1
1
1
1
1
1
1
1
1
1
1
1
1
1
1
1
1
1
1
1
1
1
1
1
1
1
1
1
1
1
1
1
1
1
1
1
1
1
1
1
1
1
1
1
1
1
1
1
1
1
1
1
1
1
1
1
1
1
1
1
1
1
1
1
1
1
1
1
1
1
1
1
1
1
1
1
1
1
1
1
1
1
1
1
1
1
1
1
1
1
1
1
1
1
1
1
1
1
1
1
1
1
1
1
1
1
1
1
1
1
1
1
1
1
1
1
1
1
1
1
1
1
1
1
1
1
1
1
1
1
1
1
1
1
1
1
1
1
1
1
1
1
1
1
1
1
1
1
1
1
1
1
1
1
1
1
1
1
1
1
1
1
1
1
1
1
1
1
1
1
1
1
1
1
1
1
1
1
1
1
1
1
1
1
1
1
1
1
1
1
1
1
1
1
1
1
1
1
1
1
1
1
1
1
1
1
1
1
1
1
1
1
1
1
1
1
1
1
1
1
1
1
1
1
1
1
1
1
1
1
1
1
1
1
1
1
1
1
1
1
1
1
1
1
1
1
1
1
1
1
1
1
1
1
1
1
1
1
1
1
1
1
1
1
1
1
1
1
1
1
1
1
1
1
1
1
1
0.999999
0.999999
1
1
1
1
1
1
1
1
1
1
1
1
1
1
1
1
1
1
1
1
1
1
1
1
1
1
0.999999
0.999997
0.999997
0.999996
1
1
1
1
1
1
1
1
1
1
1
1
1
1
1
1
1
1
1
1
1
1
1
1
1
0.999999
0.999993
0.999978
0.99997
0.99997
1
1
1
1
1
1
1
1
1
1
1
1
1
1
1
1
1
1
1
1
1
1
1
1
0.999999
0.999992
0.99995
0.999848
0.999782
0.999786
1
1
1
1
1
1
1
1
1
1
1
1
1
1
1
1
1
1
1
1
1
1
1
0.999992
0.999971
0.999877
0.990279
0.964117
0.95463
0.957602
1
1
1
1
1
1
1
1
1
1
1
1
1
1
1
1
1
1
1
1
1
1
0.999335
0.996087
0.992036
0.969841
0.90716
0.888441
0.881049
0.883291
1
1
1
1
1
1
1
1
1
1
1
1
1
1
1
1
1
1
1
1
1
0.999996
0.996513
0.92929
0.89661
0.883207
0.846024
0.859971
0.858015
0.859822
1
1
1
1
1
1
1
1
1
1
1
1
1
1
1
1
1
1
1
1
1
0.999996
0.997501
0.880879
0.808728
0.811471
0.830855
0.848412
0.851448
0.850047
1
1
1
1
1
1
1
1
1
1
1
1
1
1
1
1
1
1
1
1
0.999999
0.999986
0.999734
0.864783
0.5474
0.470673
0.727364
0.51299
0.593018
0.550593
1
1
1
1
1
1
1
1
1
1
1
1
1
1
1
1
1
1
1
1
0.999997
0.999996
0.999883
0.731644
0.0776461
0.0236003
0.175398
0.0360627
0.0776617
0.0529991
1
1
1
1
1
1
1
1
1
1
1
1
1
1
1
1
1
1
1
1
1
0.999996
0.999896
0.551078
0.00034362
4.03467e-05
8.70518e-06
2.2297e-06
1.36458e-06
1.19361e-06
1
1
1
1
1
1
1
1
1
1
1
1
1
1
1
1
1
1
1
1
0.999996
0.99353
0.703919
0.277817
0.0102023
-1.02154e-05
-6.08861e-07
9.87545e-07
1.06875e-06
9.14315e-07
1
1
1
1
1
1
1
1
1
1
1
1
1
1
1
1
1
1
1
1
1
1
1
1
1
1
1
1
1
1
1
1
1
1
1
1
1
1
1
1
1
1
1
1
1
1
1
1
1
1
1
1
1
1
1
1
1
1
1
1
1
1
1
1
1
1
1
1
1
1
1
1
1
1
1
1
1
1
1
1
1
1
1
1
1
1
1
1
1
1
1
1
1
1
1
1
1
1
1
1
1
1
1
1
1
1
1
1
1
1
1
1
1
1
1
1
1
1
1
1
1
1
1
1
1
1
1
1
1
1
1
1
1
1
1
1
1
1
1
1
1
1
1
1
1
1
1
1
1
1
1
1
1
1
1
1
1
1
1
1
1
1
1
1
1
1
1
1
1
1
1
1
1
1
1
1
1
1
1
1
1
1
1
1
1
1
1
1
1
1
1
1
1
1
1
1
1
1
1
1
1
1
1
1
1
1
1
1
1
1
1
1
1
1
1
1
1
1
1
1
1
1
1
1
1
1
1
1
1
1
1
1
1
1
1
1
1
1
1
1
1
1
1
1
1
1
1
1
1
1
1
1
1
1
1
1
1
1
1
1
1
1
1
1
1
1
1
1
1
1
1
1
1
1
1
1
1
1
1
1
1
1
1
1
1
1
1
1
1
1
1
1
1
1
1
1
1
1
1
1
1
1
1
1
1
1
1
1
1
1
1
1
1
1
1
1
1
1
1
1
1
1
1
1
1
1
1
1
1
1
1
1
1
1
1
1
1
1
1
1
1
1
1
1
1
1
1
1
1
1
1
1
1
1
1
1
1
1
1
1
1
1
1
1
1
1
1
1
1
1
1
1
1
1
1
1
1
1
1
1
1
1
1
1
1
1
1
1
1
1
1
1
1
1
1
1
1
1
1
1
1
1
1
1
1
1
1
1
1
1
1
1
1
1
1
1
1
1
1
1
1
1
1
1
1
1
1
1
1
1
1
1
1
1
1
1
1
1
1
1
1
1
1
1
1
1
1
1
1
1
1
1
1
1
1
1
1
1
1
1
1
1
1
1
1
1
1
1
1
1
1
1
1
1
1
1
1
1
1
1
1
1
1
1
1
1
1
1
1
1
1
1
1
1
1
1
1
1
1
1
1
1
1
1
1
1
1
1
1
1
1
1
1
1
1
1
1
1
1
1
1
1
1
1
1
1
1
1
1
1
1
1
1
1
1
1
1
1
1
1
0.999999
0.999999
1
1
1
1
1
1
1
1
1
1
1
1
1
1
1
1
1
1
1
1
1
1
1
1
1
1
1
1
0.999996
0.999997
0.999997
0.999999
1
1
1
1
1
1
1
1
1
1
1
1
1
1
1
1
1
1
1
1
1
1
1
1
1
1
0.999969
0.99997
0.999979
0.999993
0.999999
1
1
1
1
1
1
1
1
1
1
1
1
1
1
1
1
1
1
1
1
1
1
1
1
1
0.999784
0.999783
0.99985
0.999952
0.999992
0.999999
1
1
1
1
1
1
1
1
1
1
1
1
1
1
1
1
1
1
1
1
1
1
1
1
0.957153
0.955138
0.96471
0.990652
0.99988
0.999972
0.999992
1
1
1
1
1
1
1
1
1
1
1
1
1
1
1
1
1
1
1
1
1
1
1
0.882705
0.881755
0.889369
0.908171
0.970703
0.992456
0.996274
0.999331
1
1
1
1
1
1
1
1
1
1
1
1
1
1
1
1
1
1
1
1
1
1
0.859253
0.858456
0.860922
0.846857
0.884786
0.897929
0.929364
0.996316
0.999996
1
1
1
1
1
1
1
1
1
1
1
1
1
1
1
1
1
1
1
1
1
0.849701
0.851728
0.849014
0.831606
0.813383
0.809465
0.879546
0.997211
0.999996
1
1
1
1
1
1
1
1
1
1
1
1
1
1
1
1
1
1
1
1
1
0.550658
0.592825
0.511584
0.729092
0.472199
0.546682
0.862335
0.999731
0.999985
1
1
1
1
1
1
1
1
1
1
1
1
1
1
1
1
1
1
1
1
1
0.0528224
0.0776835
0.0355439
0.177144
0.0242508
0.077829
0.729814
0.999882
0.999995
0.999997
1
1
1
1
1
1
1
1
1
1
1
1
1
1
1
1
1
1
1
1
1.19069e-06
1.36917e-06
2.22749e-06
8.63783e-06
3.99956e-05
0.000340432
0.549733
0.999896
0.999996
1
1
1
1
1
1
1
1
1
1
1
1
1
1
1
1
1
1
1
1
1
8.98546e-07
1.07075e-06
9.31829e-07
-6.48349e-07
-1.01916e-05
0.00995583
0.276937
0.703825
0.993563
0.999996
1
1
1
1
1
1
1
1
1
1
1
1
1
1
1
1
1
1
1
1
0.00893172
0.0105571
0.0177147
0.0308476
0.0524055
0.0855711
0.134015
0.201687
0.292565
0.408415
0.542333
0.683671
0.815039
0.92132
0.993239
1
1
1
1
1
0.999986
0.890755
0.13605
1.93505e-05
1.72585e-06
4.25305e-07
9.95769e-07
1.00898e-06
1.17853e-06
8.47243e-07
4.66495e-11
6.62014e-11
1.0176e-09
5.36878e-09
2.67544e-08
1.17704e-07
4.56034e-07
1.57322e-06
4.909e-06
0.00192048
0.0178376
0.0825419
0.229013
0.414868
0.637621
0.871305
0.975256
0.992128
0.998706
0.999285
0.999906
0.923093
0.0683
4.161e-05
3.38866e-06
-2.06023e-07
1.38096e-06
2.80163e-06
9.58627e-07
4.01412e-08
4.46215e-11
1.23031e-11
4.74368e-11
1.71598e-11
4.26755e-11
2.6202e-10
1.29621e-09
7.15129e-09
3.69711e-08
6.0988e-07
8.53217e-06
2.82446e-05
0.00021335
0.0294435
0.26479
0.684599
0.937923
0.994667
0.997215
0.99769
0.999842
0.851982
5.60044e-05
1.86114e-05
4.26132e-06
1.87071e-07
4.07502e-07
2.12507e-06
-3.04962e-08
-5.08186e-08
1.01687e-11
8.09343e-12
4.3995e-11
5.74263e-12
1.05794e-11
5.7213e-11
3.00795e-11
7.77291e-11
6.20208e-10
1.71288e-08
4.47696e-07
1.12661e-06
1.04816e-05
0.000724716
0.0816721
0.457523
0.855718
0.997868
0.99792
0.998009
0.999807
0.764546
0.00977962
-8.05075e-07
-1.38759e-06
-1.40505e-11
-2.97941e-08
-1.13414e-07
-1.19847e-07
-2.31197e-07
1.09744e-13
4.67007e-14
3.18464e-13
8.41419e-13
5.33566e-12
5.25087e-11
1.81353e-11
2.99648e-11
4.25801e-11
3.58347e-10
1.70024e-08
5.66928e-08
2.01517e-07
9.30169e-06
0.00341545
0.10302
0.478049
0.882443
0.992086
0.996981
0.694665
0.0779482
7.59735e-07
-4.55329e-08
1.8275e-09
3.72911e-11
-1.09929e-07
-2.26899e-07
-3.32959e-07
-4.719e-07
1.8766e-16
1.66977e-16
1.84128e-15
1.07978e-14
8.90844e-14
1.26938e-12
3.86284e-12
2.95827e-11
3.16932e-11
3.52714e-11
5.03041e-10
7.8326e-09
2.77536e-09
2.3426e-07
5.7775e-06
4.69751e-05
0.0280477
0.161092
0.30854
0.314439
0.053357
2.18479e-05
5.43524e-07
-1.24668e-09
-6.21995e-10
-6.05579e-10
-2.0058e-07
-4.00937e-07
-5.69135e-07
-7.29678e-07
2.78973e-19
4.6573e-19
9.07912e-18
9.37598e-17
1.10016e-15
2.22236e-14
1.69346e-13
1.92024e-12
1.61148e-11
2.27383e-11
4.35323e-11
1.15542e-09
1.94298e-10
4.34185e-09
1.88377e-07
1.80939e-06
4.67131e-06
1.66219e-05
0.000217035
0.000211058
3.16661e-07
-5.71391e-07
9.47291e-09
-1.25814e-08
-9.99537e-11
-5.46325e-09
-3.20139e-07
-5.88953e-07
-8.18963e-07
-9.82981e-07
4.05388e-22
1.11245e-21
3.86366e-20
6.54523e-19
1.17126e-17
3.35457e-16
5.21528e-15
9.87856e-14
2.45495e-12
3.2621e-11
3.58852e-11
2.06786e-10
1.12282e-10
1.98812e-10
5.26613e-09
8.12371e-08
1.25392e-07
4.76876e-07
7.59894e-06
1.52651e-06
-2.6802e-07
4.12022e-09
-7.80872e-09
3.25027e-11
3.70569e-12
-1.96278e-08
-4.56793e-07
-8.50991e-07
-1.13244e-06
-1.24996e-06
5.81349e-25
2.39275e-24
1.4438e-22
3.94286e-21
1.12102e-19
4.63609e-18
1.37014e-16
5.31175e-15
3.15213e-13
1.10366e-11
3.05627e-11
5.44539e-11
1.064e-10
1.12878e-10
2.52263e-10
3.24666e-09
3.91156e-09
7.76154e-09
1.87094e-07
2.13282e-08
-9.06704e-10
-1.25341e-09
1.25784e-10
1.54994e-10
2.77755e-12
-4.96265e-08
-6.2319e-07
-1.26303e-06
-1.61342e-06
-1.55638e-06
7.5995e-28
4.78483e-27
4.83936e-25
2.13633e-23
9.8801e-22
6.15432e-20
3.63936e-18
3.29953e-16
3.46335e-14
2.02547e-12
4.19114e-11
6.80578e-11
9.05557e-11
1.09838e-10
7.82056e-11
1.63964e-10
1.76444e-10
2.08631e-10
2.73928e-09
1.89344e-07
1.21409e-08
5.43094e-11
7.95721e-11
2.04807e-10
2.55405e-10
-1.17212e-07
-9.58391e-07
-1.73456e-06
-1.94526e-06
-1.7652e-06
8.96555e-31
9.10862e-30
1.48851e-27
1.07507e-25
8.31853e-24
8.76603e-22
1.20632e-19
2.1943e-17
3.16399e-15
2.50848e-13
1.0111e-11
5.49029e-11
5.53618e-11
8.91208e-11
7.0548e-11
4.84037e-11
7.19418e-11
9.55153e-11
8.4539e-11
5.73363e-11
3.92368e-11
4.33624e-11
6.84059e-11
3.34962e-11
2.94793e-09
4.33904e-13
-7.13716e-07
-1.60069e-06
-1.84447e-06
-1.75275e-06
9.56712e-34
1.68563e-32
4.31389e-30
5.24347e-28
7.50725e-26
1.70639e-23
5.11842e-21
1.35846e-18
2.35116e-16
2.29306e-14
1.37271e-12
1.608e-11
2.21079e-11
3.52919e-11
4.91384e-11
3.9272e-11
6.27916e-11
9.07173e-11
6.60497e-11
5.4463e-11
3.74234e-11
3.69745e-11
3.97005e-11
1.85266e-11
1.83878e-09
2.41214e-13
-2.90061e-07
-8.06597e-07
-1.29927e-06
-1.5241e-06
9.27727e-37
3.11029e-35
1.23339e-32
2.83278e-30
9.82284e-28
4.95041e-25
2.25026e-22
7.13048e-20
1.39823e-17
1.59895e-15
1.29275e-13
2.72134e-12
5.50518e-12
8.64221e-12
1.20672e-11
2.29308e-11
3.32134e-11
6.57497e-11
6.74827e-11
4.42188e-11
2.82152e-11
1.83946e-11
1.80618e-11
1.49507e-11
3.73281e-13
2.32305e-16
-1.45492e-07
-4.10775e-07
-7.73595e-07
-8.14134e-07
8.25042e-40
6.11864e-38
4.16274e-35
2.52793e-32
2.12589e-29
1.60809e-26
8.64788e-24
3.03293e-21
6.57428e-19
8.56143e-17
9.10906e-15
3.08877e-13
9.02682e-13
1.42914e-12
2.0532e-12
3.89467e-12
5.3279e-12
6.29633e-12
3.73908e-12
2.5685e-12
2.45618e-12
3.77379e-12
5.31003e-12
6.65667e-12
2.99659e-12
1.92489e-14
-4.03102e-08
-8.93571e-08
-1.397e-07
-1.46614e-07
7.00953e-43
1.83305e-40
2.90189e-37
4.28775e-34
5.28472e-31
4.62075e-28
2.70504e-25
1.02315e-22
2.41985e-20
3.49945e-18
4.95984e-16
2.50253e-14
1.02189e-13
1.66795e-13
2.52403e-13
4.1026e-13
4.55418e-13
2.42313e-13
1.19743e-13
9.31147e-14
1.28702e-13
2.97506e-13
7.95218e-13
1.38849e-12
1.55656e-12
8.16576e-13
1.48817e-16
5.09387e-19
1.74936e-20
2.7779e-21
8.69195e-46
1.55122e-42
4.19672e-39
8.3141e-36
1.15126e-32
1.07924e-29
6.71862e-27
2.71904e-24
7.00968e-22
1.15681e-19
2.11811e-17
1.49094e-15
8.22142e-15
1.40012e-14
2.18999e-14
2.90939e-14
2.19399e-14
6.48234e-15
2.62418e-15
1.92457e-15
2.94697e-15
7.37589e-15
1.27507e-14
1.22963e-14
7.32888e-15
3.80238e-15
1.27625e-15
3.32126e-16
7.40827e-17
9.46575e-18
5.12906e-48
2.07877e-44
6.42513e-41
1.38286e-37
2.0279e-34
2.00245e-31
1.31694e-28
5.69163e-26
1.60059e-23
3.09644e-21
7.12662e-19
6.62478e-17
4.76856e-16
8.47948e-16
1.31101e-15
1.33577e-15
5.33429e-16
1.20504e-16
3.44245e-17
1.94276e-17
2.67996e-17
4.64208e-17
3.92834e-17
2.03735e-17
7.29349e-18
1.5593e-18
2.87188e-19
3.31436e-20
3.24738e-21
2.31125e-22
5.49412e-50
2.49759e-46
8.16166e-43
1.84495e-39
2.83372e-36
2.93429e-33
2.03443e-30
9.3762e-28
2.86721e-25
6.71434e-23
1.8896e-20
2.20718e-18
2.00245e-17
3.67367e-17
5.27699e-17
3.6842e-17
6.67189e-18
1.22417e-18
2.51241e-19
9.1673e-20
7.80633e-20
4.83171e-20
2.0069e-20
6.04814e-21
1.37811e-21
2.51285e-22
3.22706e-23
3.03473e-24
1.39814e-25
1.64567e-27
5.01594e-52
2.40377e-48
8.23744e-45
1.94786e-41
3.12806e-38
3.39147e-35
2.47504e-32
1.21179e-29
3.97058e-27
1.17656e-24
3.93496e-22
5.51178e-20
6.0636e-19
1.11866e-18
1.37595e-18
5.39478e-19
5.98592e-20
7.26965e-21
9.94472e-22
1.93895e-22
5.86716e-23
1.87742e-23
5.0283e-24
1.07016e-24
1.79293e-25
2.31008e-26
2.31371e-27
1.67785e-28
8.72959e-30
2.43372e-31
3.60162e-54
1.82096e-50
6.55768e-47
1.62443e-43
2.72911e-40
3.0983e-37
2.37915e-34
1.23792e-31
4.445e-29
1.65858e-26
6.39471e-24
1.02627e-21
1.30968e-20
2.33031e-20
2.19018e-20
3.19569e-21
3.18936e-22
2.80991e-23
2.47905e-24
2.38788e-25
2.7039e-26
3.53395e-27
4.74153e-28
5.83438e-29
6.14342e-30
5.31078e-31
3.57549e-32
1.77179e-33
5.61779e-35
8.54617e-37
2.0183e-56
1.08387e-52
4.1218e-49
1.07319e-45
1.88959e-42
2.24851e-39
1.81687e-36
1.0053e-33
4.09546e-31
1.86791e-28
8.03562e-26
1.41076e-23
1.98202e-22
3.1934e-22
1.91285e-22
1.16115e-23
8.19386e-25
5.73632e-26
3.81645e-27
2.41877e-28
1.48167e-29
8.87245e-31
5.21863e-32
2.97977e-33
1.59918e-34
7.67426e-36
3.0995e-37
9.71159e-39
2.08419e-40
2.27209e-42
8.81236e-59
5.073e-55
2.05075e-51
5.63805e-48
1.04318e-44
1.30247e-41
1.10597e-38
6.47216e-36
3.08634e-33
1.66395e-30
7.71432e-28
1.41084e-25
2.04753e-24
2.71315e-24
7.09417e-25
3.1642e-26
1.39018e-27
6.31642e-29
2.94254e-30
1.3689e-31
6.16504e-33
2.62102e-34
1.03021e-35
3.67266e-37
1.16306e-38
3.18613e-40
7.26214e-42
1.29355e-43
1.59977e-45
1.02408e-47
2.99118e-61
1.86787e-57
8.09629e-54
2.36434e-50
4.6138e-47
6.04946e-44
5.37956e-41
3.27963e-38
1.88827e-35
1.15924e-32
5.57432e-30
1.00571e-27
1.39057e-26
1.2912e-26
6.12679e-28
2.93582e-29
1.19409e-30
4.35493e-32
1.47805e-33
4.72819e-35
1.42754e-36
4.04581e-38
1.06542e-39
2.56871e-41
5.55427e-43
1.04629e-44
1.64584e-46
2.02216e-48
1.71909e-50
7.51343e-53
7.86057e-64
5.40832e-60
2.54267e-56
7.95182e-53
1.64558e-49
2.27214e-46
2.12022e-43
1.38752e-40
9.31261e-38
6.23856e-35
2.97846e-32
4.9725e-30
5.86538e-29
2.75668e-29
4.96276e-31
1.0645e-32
2.7041e-34
7.53181e-36
2.12711e-37
5.79652e-39
1.48175e-40
3.48774e-42
7.44135e-44
1.41524e-45
2.35052e-47
3.31662e-49
3.82001e-51
3.36948e-53
2.02274e-55
6.15979e-58
1.58655e-66
1.22818e-62
6.3605e-59
2.15424e-55
4.76385e-52
6.95306e-49
6.81145e-46
4.86466e-43
3.66423e-40
2.55963e-37
1.15265e-34
1.64356e-32
1.39601e-31
8.85552e-33
1.95979e-34
3.53183e-36
5.96039e-38
9.76249e-40
1.55802e-41
2.40834e-43
3.56954e-45
5.01172e-47
6.57329e-49
7.92106e-51
8.58766e-53
8.14213e-55
6.47804e-57
4.04979e-59
1.76304e-61
3.96771e-64
2.42245e-69
2.17232e-65
1.26588e-61
4.71625e-58
1.12627e-54
1.74652e-51
1.793e-48
1.40555e-45
1.14084e-42
7.90673e-40
3.15656e-37
3.45046e-35
1.5341e-34
1.00486e-36
8.48247e-39
9.43725e-41
1.28336e-42
1.893e-44
2.78996e-46
3.93517e-48
5.18943e-50
6.29691e-52
6.92827e-54
6.7998e-56
5.83218e-58
4.25199e-60
2.53094e-62
1.15342e-64
3.57342e-67
5.5936e-70
2.72046e-72
2.9499e-68
1.99407e-64
8.35582e-61
2.18782e-57
3.63326e-54
3.89967e-51
3.33994e-48
2.79804e-45
1.82138e-42
5.97144e-40
4.26679e-38
3.51026e-38
2.06856e-40
1.2845e-42
8.4074e-45
5.72e-47
3.97742e-49
2.77667e-51
1.91207e-53
1.27657e-55
8.12081e-58
4.83327e-60
2.63731e-62
1.288e-64
5.45961e-67
1.92449e-69
5.27923e-72
9.98948e-75
9.67145e-78
2.12871e-75
2.98964e-71
2.45461e-67
1.19552e-63
3.5117e-60
6.33242e-57
7.15418e-54
6.55181e-51
5.42086e-48
3.12365e-45
7.65066e-43
2.74922e-41
6.2599e-44
2.33913e-46
1.38227e-48
9.92212e-51
7.2901e-53
5.16335e-55
3.45595e-57
2.16457e-59
1.25789e-61
6.71656e-64
3.25583e-66
1.4111e-68
5.35947e-71
1.73533e-73
4.6009e-76
9.36599e-79
1.2996e-81
9.13197e-85
1.03408e-78
2.13528e-74
2.29586e-70
1.36819e-66
4.67378e-63
9.36749e-60
1.12953e-56
1.07434e-53
8.42344e-51
4.04898e-48
6.63147e-46
7.32559e-45
9.64193e-48
1.53593e-50
2.81677e-53
5.71957e-56
1.24605e-58
2.83619e-61
6.59032e-64
1.53117e-66
3.48874e-69
7.65027e-72
1.58378e-74
3.03118e-77
5.23314e-80
7.89998e-83
9.98803e-86
9.89457e-89
6.80665e-92
2.41427e-95
2.30635e-82
9.51003e-78
1.53784e-73
1.22155e-69
5.145e-66
1.19131e-62
1.56023e-59
1.50802e-56
1.08646e-53
4.15261e-51
4.09307e-49
4.0723e-49
2.26925e-52
1.413e-55
9.60866e-59
6.99877e-62
5.35157e-65
4.21278e-68
3.35165e-71
2.64796e-74
2.04259e-77
1.5129e-80
1.05745e-83
6.84194e-87
4.00498e-90
2.05892e-93
8.91476e-97
3.04422e-100
7.26898e-104
9.01319e-108
8.34235e-07
1.19752e-06
9.5787e-07
9.47921e-07
3.95169e-07
1.71245e-06
2.01214e-05
0.136615
0.891419
0.999986
1
1
1
1
1
0.993226
0.921336
0.815097
0.683696
0.54236
0.408427
0.292577
0.201692
0.134024
0.0855709
0.0524108
0.0308446
0.0177174
0.0105551
0.00893185
4.39817e-08
1.0215e-06
2.92791e-06
1.43688e-06
-2.58515e-07
3.43681e-06
3.99291e-05
0.0688255
0.922957
0.999909
0.999305
0.998748
0.992681
0.976198
0.871617
0.637887
0.415162
0.228595
0.0820632
0.017771
0.00191907
4.90598e-06
1.57267e-06
4.55978e-07
1.17655e-07
2.67494e-08
5.36515e-09
1.01764e-09
6.61511e-11
4.66607e-11
-5.24084e-08
-3.19228e-08
2.2056e-06
3.66159e-07
1.77003e-07
3.97875e-06
1.62645e-05
5.19461e-05
0.851749
0.999846
0.997714
0.997252
0.994646
0.936312
0.680702
0.261007
0.0284581
0.000206527
2.79699e-05
8.41817e-06
5.96979e-07
3.72317e-08
7.13375e-09
1.29472e-09
2.61461e-10
4.26238e-11
1.71474e-11
4.74429e-11
1.23039e-11
4.46327e-11
-2.35809e-07
-1.24829e-07
-1.19157e-07
-3.12382e-08
-1.3485e-11
-1.42605e-06
-9.13857e-07
0.00982324
0.76519
0.999806
0.998057
0.997948
0.997915
0.852442
0.450365
0.0784508
0.0006241
1.06434e-05
1.1559e-06
4.53259e-07
1.69722e-08
6.26733e-10
7.749e-11
3.00217e-11
5.70054e-11
1.05608e-11
5.74003e-12
4.39989e-11
8.0936e-12
1.01691e-11
-4.80297e-07
-3.4071e-07
-2.33032e-07
-1.11171e-07
3.96851e-11
1.96165e-09
-4.94331e-08
7.60187e-07
0.079398
0.693795
0.996382
0.993152
0.88774
0.486695
0.106719
0.00347933
9.68806e-06
2.29355e-07
8.13565e-08
1.84849e-08
3.60704e-10
4.54394e-11
2.99114e-11
1.80951e-11
5.22979e-11
5.31733e-12
8.38104e-13
3.1828e-13
4.66416e-14
1.09771e-13
-7.40198e-07
-5.79478e-07
-4.0682e-07
-2.03021e-07
-6.18218e-10
-6.80968e-10
-5.92097e-09
4.82661e-07
2.07452e-05
0.0528431
0.311737
0.310483
0.166031
0.0298547
5.0387e-05
6.25361e-06
2.97304e-07
9.80169e-09
1.441e-08
5.08843e-10
3.36379e-11
3.23754e-11
2.93977e-11
3.83964e-12
1.25983e-12
8.84859e-14
1.0726e-14
1.83808e-15
1.66521e-16
1.87718e-16
-9.94956e-07
-8.32e-07
-5.96017e-07
-3.2314e-07
-6.05261e-09
-1.04439e-10
-1.20507e-08
9.41634e-09
-5.40277e-07
3.95826e-07
0.000210057
0.00022012
1.63788e-05
4.60093e-06
2.04894e-06
2.40063e-07
8.03538e-09
4.90359e-10
1.30181e-09
4.99497e-11
2.2943e-11
1.59902e-11
1.90089e-12
1.67668e-13
2.19589e-14
1.08818e-15
9.28377e-17
9.04908e-18
4.63699e-19
2.79236e-19
-1.26313e-06
-1.15091e-06
-8.62832e-07
-4.6214e-07
-2.10655e-08
3.46024e-12
3.12046e-11
-7.72358e-09
4.15509e-09
-2.64998e-07
1.50203e-06
7.63731e-06
4.55951e-07
1.26792e-07
1.00892e-07
6.92669e-09
2.99019e-10
1.19065e-10
1.72082e-10
3.59782e-11
3.34995e-11
2.45965e-12
9.75627e-14
5.14122e-15
3.29787e-16
1.15284e-17
6.45652e-19
3.84338e-20
1.10559e-21
4.07121e-22
-1.5646e-06
-1.6354e-06
-1.28258e-06
-6.32448e-07
-5.26689e-08
2.48878e-12
1.51441e-10
1.26538e-10
-1.26604e-09
-9.57694e-10
2.08892e-08
1.85975e-07
7.89759e-09
3.81481e-09
3.65419e-09
2.77201e-10
1.1649e-10
1.10421e-10
5.10078e-11
3.06495e-11
1.10958e-11
3.13382e-13
5.23039e-15
1.34454e-16
4.53308e-18
1.09743e-19
3.87264e-21
1.43285e-22
2.37317e-24
5.84841e-25
-1.76443e-06
-1.96192e-06
-1.75301e-06
-9.67567e-07
-1.22512e-07
1.74433e-10
2.16603e-10
8.0425e-11
5.45996e-11
1.20224e-08
1.85849e-07
2.6997e-09
2.02187e-10
1.74609e-10
1.78956e-10
8.06675e-11
1.11191e-10
9.2931e-11
6.67936e-11
4.01507e-11
1.99233e-12
3.40346e-14
3.23176e-16
3.55463e-18
5.98478e-20
9.61626e-22
2.08806e-23
4.78892e-25
4.7349e-27
7.64821e-28
-1.74876e-06
-1.86021e-06
-1.61327e-06
-7.1655e-07
4.33933e-13
2.95265e-09
3.41371e-11
6.95648e-11
4.38915e-11
3.99789e-11
5.46483e-11
8.3706e-11
9.56876e-11
7.21645e-11
4.94312e-11
7.34014e-11
8.93576e-11
5.55e-11
5.34927e-11
9.61857e-12
2.4397e-13
3.08311e-15
2.13623e-17
1.17237e-19
8.48186e-22
8.04778e-24
1.04504e-25
1.46777e-27
8.99008e-30
9.02279e-31
-1.52597e-06
-1.31843e-06
-8.14274e-07
-2.90822e-07
2.45901e-13
1.87007e-09
1.91247e-11
4.09547e-11
3.81793e-11
3.91513e-11
5.6429e-11
6.79915e-11
9.10258e-11
6.28558e-11
4.04727e-11
5.0625e-11
3.54263e-11
2.1948e-11
1.55927e-11
1.30259e-12
2.21906e-14
2.27938e-16
1.31603e-18
4.95049e-21
1.64443e-23
7.22064e-26
5.06579e-28
4.23435e-30
1.65845e-32
9.62423e-34
-8.02805e-07
-7.90289e-07
-4.17158e-07
-1.44816e-07
2.39853e-16
3.82639e-13
1.55507e-11
1.89378e-11
1.93807e-11
2.97456e-11
4.64258e-11
7.01574e-11
6.75984e-11
3.3533e-11
2.39479e-11
1.2206e-11
8.6877e-12
5.44502e-12
2.62815e-12
1.22581e-13
1.54467e-15
1.35161e-17
6.88395e-20
2.16807e-22
4.75523e-25
9.40549e-28
2.71782e-30
1.20296e-32
3.04737e-35
9.3245e-37
-1.41997e-07
-1.39088e-07
-8.87115e-08
-3.90859e-08
1.85779e-14
3.07407e-12
6.93733e-12
5.63404e-12
4.02603e-12
2.57719e-12
2.65628e-12
3.86188e-12
6.44199e-12
5.34465e-12
3.97225e-12
2.05799e-12
1.43811e-12
8.91516e-13
2.97237e-13
8.63559e-15
8.27311e-17
6.34491e-19
2.92128e-21
8.30896e-24
1.54056e-26
2.03013e-29
2.41007e-32
4.0177e-35
5.95438e-38
8.27907e-40
3.00259e-21
1.87506e-20
5.1381e-19
1.48522e-16
8.02246e-13
1.57229e-12
1.43293e-12
8.46794e-13
3.34073e-13
1.41521e-13
9.67266e-14
1.20439e-13
2.43445e-13
4.52655e-13
4.11465e-13
2.52282e-13
1.67943e-13
1.00866e-13
2.40078e-14
4.70076e-16
3.37743e-18
2.33292e-20
9.83982e-23
2.59428e-25
4.41826e-28
5.03756e-31
4.07564e-34
2.76381e-37
1.75877e-40
7.00396e-43
9.88446e-18
7.79368e-17
3.52235e-16
1.35667e-15
4.04981e-15
7.85705e-15
1.33829e-14
1.42599e-14
8.70277e-15
3.50258e-15
2.08619e-15
2.6325e-15
6.40423e-15
2.16927e-14
2.89913e-14
2.18857e-14
1.41019e-14
8.11295e-15
1.4266e-15
2.00652e-17
1.1131e-19
6.74647e-22
2.61108e-24
6.43473e-27
1.03063e-29
1.09611e-32
7.893e-36
3.9763e-39
1.46948e-42
8.48341e-46
3.04483e-22
4.04551e-21
4.0473e-20
3.46534e-19
1.8735e-18
8.77456e-18
2.46273e-17
4.79853e-17
5.79086e-17
3.48293e-17
2.23468e-17
3.4761e-17
1.18922e-16
5.30732e-16
1.33196e-15
1.31165e-15
8.54207e-16
4.70528e-16
6.32571e-17
6.74815e-19
2.96886e-21
1.53781e-23
5.45806e-26
1.25997e-28
1.91075e-31
1.92956e-34
1.31214e-37
6.08148e-41
1.96379e-44
4.85516e-48
2.65818e-27
2.21292e-25
4.68669e-24
4.91851e-23
3.79599e-22
2.06789e-21
9.0247e-21
2.97668e-20
7.09545e-20
1.11088e-19
1.12121e-19
2.56013e-19
1.21927e-18
6.69091e-18
3.69656e-17
5.29167e-17
3.70171e-17
1.97599e-17
2.10426e-18
1.7882e-20
6.41679e-23
2.75135e-25
8.98124e-28
1.94496e-30
2.79888e-33
2.69606e-36
1.75076e-39
7.72605e-43
2.35931e-46
5.18171e-50
4.47032e-31
1.54409e-29
2.92905e-28
4.01404e-27
3.99807e-26
3.10018e-25
1.84669e-24
8.60832e-24
3.12727e-23
8.95887e-23
2.3907e-22
1.00894e-21
7.22273e-21
5.99433e-20
5.48095e-19
1.38496e-18
1.12788e-18
5.98481e-19
5.24938e-20
3.72146e-22
1.1212e-24
3.81018e-27
1.15987e-29
2.36515e-32
3.23502e-35
2.97735e-38
1.84975e-41
7.80476e-45
2.27286e-48
4.73429e-52
2.20125e-36
1.38411e-34
4.23931e-33
8.32861e-32
1.19997e-30
1.3337e-29
1.19415e-28
8.8362e-28
5.6643e-27
3.51919e-26
2.58645e-25
2.49767e-24
2.82404e-23
3.25064e-22
3.31711e-21
2.2185e-20
2.35253e-20
1.29332e-20
9.76926e-22
6.04453e-24
1.57644e-26
4.2482e-29
1.18314e-31
2.27213e-34
2.95575e-37
2.59962e-40
1.54453e-43
6.22314e-47
1.7249e-50
3.40588e-54
5.0468e-42
4.30111e-40
1.87678e-38
5.56575e-37
1.26246e-35
2.37019e-34
3.93175e-33
6.1515e-32
9.57827e-31
1.52002e-29
2.43379e-28
3.83549e-27
5.79807e-26
8.33393e-25
1.1847e-23
1.95881e-22
3.23176e-22
1.95915e-22
1.34301e-23
7.59314e-26
1.77146e-28
3.90065e-31
9.59384e-34
1.73394e-36
2.14545e-39
1.80179e-42
1.02215e-45
3.92031e-49
1.02939e-52
1.91409e-56
1.25252e-47
1.8195e-45
1.40476e-43
7.62889e-42
3.26935e-40
1.17504e-38
3.67649e-37
1.02674e-35
2.60953e-34
6.14562e-33
1.3683e-31
2.95265e-30
6.37252e-29
1.41388e-27
3.25874e-26
7.45994e-25
2.75843e-24
2.02733e-24
1.34397e-25
7.28924e-28
1.5752e-30
2.93084e-33
6.16991e-36
1.05481e-38
1.2431e-41
9.95942e-45
5.38133e-48
1.95605e-51
4.83434e-55
8.38902e-59
8.07201e-53
1.76518e-50
2.03603e-48
1.64017e-46
1.03731e-44
5.49672e-43
2.54371e-41
1.05775e-39
4.03362e-38
1.43152e-36
4.77738e-35
1.50796e-33
4.49846e-32
1.25278e-30
3.13571e-29
6.60445e-28
1.32477e-26
1.38078e-26
9.59359e-28
5.26875e-30
1.09586e-32
1.78869e-35
3.12071e-38
5.12739e-41
5.77531e-44
4.41091e-47
2.26219e-50
7.7483e-54
1.78727e-57
2.86068e-61
6.78457e-58
2.13306e-55
3.48889e-53
3.91763e-51
3.3842e-49
2.39315e-47
1.44066e-45
7.58531e-44
3.5642e-42
1.5193e-40
5.96567e-39
2.19685e-37
7.79663e-36
2.79972e-34
1.10085e-32
5.14338e-31
2.88617e-29
5.85181e-29
4.75391e-30
2.81725e-32
5.89139e-35
8.803e-38
1.31785e-40
2.01909e-43
2.16938e-46
1.57531e-49
7.62805e-53
2.44248e-56
5.19918e-60
7.55827e-64
4.29849e-64
1.82297e-61
4.11155e-59
6.52017e-57
8.16369e-55
8.60184e-53
7.94121e-51
6.60527e-49
5.05405e-47
3.6171e-45
2.45579e-43
1.60159e-41
1.0141e-39
6.27777e-38
3.79192e-36
2.16436e-34
1.02128e-32
1.40447e-31
1.57665e-32
1.09166e-34
2.41572e-37
3.45817e-40
4.6113e-43
6.47959e-46
6.63747e-49
4.56571e-52
2.07197e-55
6.1345e-59
1.18684e-62
1.53488e-66
6.57132e-70
3.96219e-67
1.24788e-64
2.70291e-62
4.50993e-60
6.16832e-58
7.19199e-56
7.3448e-54
6.70308e-52
5.55462e-50
4.23848e-48
3.02256e-46
2.05714e-44
1.38912e-42
1.00542e-40
8.82025e-39
1.0284e-36
1.57099e-34
3.32711e-35
2.99549e-37
7.46133e-40
1.07546e-42
1.32988e-45
1.70391e-48
1.66666e-51
1.0805e-54
4.54806e-58
1.22611e-61
2.11117e-65
2.35953e-69
1.11447e-77
1.08139e-74
5.55874e-72
1.99435e-69
5.60221e-67
1.31366e-64
2.68091e-62
4.90728e-60
8.24999e-58
1.29968e-55
1.95378e-53
2.85165e-51
4.11161e-49
5.96111e-47
8.84922e-45
1.36873e-42
2.2401e-40
3.89542e-38
4.1479e-38
5.68331e-40
1.71956e-42
2.63579e-45
3.15511e-48
3.70295e-51
3.46546e-54
2.10062e-57
8.07871e-61
1.94009e-64
2.88474e-68
2.66991e-72
1.11143e-84
1.49328e-81
1.05087e-78
5.1004e-76
1.91261e-73
5.89687e-71
1.55463e-68
3.60053e-66
7.47143e-64
1.41017e-61
2.44961e-59
3.95347e-57
5.97449e-55
8.52128e-53
1.16383e-50
1.5935e-48
2.54154e-46
6.31886e-44
2.71032e-41
7.31196e-43
2.95224e-45
5.10496e-48
6.18128e-51
6.78235e-54
6.03563e-57
3.37381e-60
1.15883e-63
2.39962e-67
2.94393e-71
2.10726e-75
2.70044e-95
7.21769e-92
1.02409e-88
1.01902e-85
7.98469e-83
5.25591e-80
3.03149e-77
1.57967e-74
7.61909e-72
3.47283e-69
1.52474e-66
6.56981e-64
2.83221e-61
1.24707e-58
5.73908e-56
2.83437e-53
1.55011e-50
9.76385e-48
7.44797e-45
6.37518e-46
3.83362e-48
7.93319e-51
1.01263e-53
1.0695e-56
8.92077e-60
4.49233e-63
1.32976e-66
2.25655e-70
2.11995e-74
1.03452e-78
1.02041e-107
7.87233e-104
3.23433e-100
9.37276e-97
2.15185e-93
4.17284e-90
7.1212e-87
1.10121e-83
1.57848e-80
2.13774e-77
2.78311e-74
3.54175e-71
4.48089e-68
5.73611e-65
7.56893e-62
1.04997e-58
1.56346e-55
2.55353e-52
4.71176e-49
3.96523e-49
3.94112e-51
1.02364e-53
1.42047e-56
1.4759e-59
1.13341e-62
4.94758e-66
1.19105e-69
1.52186e-73
9.54543e-78
2.34215e-82
)
;

boundaryField
{
    leftWall
    {
        type            zeroGradient;
    }
    rightWall
    {
        type            zeroGradient;
    }
    lowerWall
    {
        type            zeroGradient;
    }
    atmosphere
    {
        type            inletOutlet;
        inletValue      uniform 0;
        value           nonuniform List<scalar> 
120
(
0.00893172
4.66495e-11
4.46215e-11
1.01687e-11
1.09744e-13
1.8766e-16
2.78973e-19
4.05388e-22
5.81349e-25
7.5995e-28
8.96555e-31
9.56712e-34
9.27727e-37
8.25042e-40
7.00953e-43
8.69195e-46
5.12906e-48
5.49412e-50
5.01594e-52
3.60162e-54
2.0183e-56
8.81236e-59
2.99118e-61
7.86057e-64
1.58655e-66
2.42245e-69
2.72046e-72
2.12871e-75
1.03408e-78
2.30635e-82
2.30635e-82
9.51003e-78
1.53784e-73
1.22155e-69
5.145e-66
1.19131e-62
1.56023e-59
1.50802e-56
1.08646e-53
4.15261e-51
4.09307e-49
0
0
0
0
0
0
0
0
0
0
0
0
0
0
0
0
0
0
0
0
0
0
0
0
0
0
0
0
0
0
0
0
0
0
0
0
0
0
3.96523e-49
3.94112e-51
1.02364e-53
1.42047e-56
1.4759e-59
1.13341e-62
4.94758e-66
1.19105e-69
1.52186e-73
9.54543e-78
2.34215e-82
0.00893185
4.66607e-11
4.46327e-11
1.01691e-11
1.09771e-13
1.87718e-16
2.79236e-19
4.07121e-22
5.84841e-25
7.64821e-28
9.02279e-31
9.62423e-34
9.3245e-37
8.27907e-40
7.00396e-43
8.48341e-46
4.85516e-48
5.18171e-50
4.73429e-52
3.40588e-54
1.91409e-56
8.38902e-59
2.86068e-61
7.55827e-64
1.53488e-66
2.35953e-69
2.66991e-72
2.10726e-75
1.03452e-78
2.34215e-82
)
;
    }
    defaultFaces
    {
        type            empty;
    }
}


// ************************************************************************* //
