/*--------------------------------*- C++ -*----------------------------------*\
| =========                 |                                                 |
| \\      /  F ield         | OpenFOAM: The Open Source CFD Toolbox           |
|  \\    /   O peration     | Version:  2.4.0                                 |
|   \\  /    A nd           | Web:      www.OpenFOAM.org                      |
|    \\/     M anipulation  |                                                 |
\*---------------------------------------------------------------------------*/
FoamFile
{
    version     2.0;
    format      ascii;
    class       volVectorField;
    location    "0.004";
    object      U;
}
// * * * * * * * * * * * * * * * * * * * * * * * * * * * * * * * * * * * * * //

dimensions      [0 1 -1 0 0 0 0];

internalField   nonuniform List<vector> 
3600
(
(-0.000140315 9.85467e-06 0)
(-0.00048551 1.516e-05 0)
(-0.00102749 2.72321e-05 0)
(-0.00191623 4.87803e-05 0)
(-0.00333174 8.3904e-05 0)
(-0.00548159 0.00013749 0)
(-0.00858891 0.000214733 0)
(-0.0128701 0.000320259 0)
(-0.0185043 0.000456877 0)
(-0.0255998 0.000624322 0)
(-0.0341578 0.000817355 0)
(-0.044043 0.00102443 0)
(-0.0549653 0.00122716 0)
(-0.0664857 0.00140108 0)
(-0.0780498 0.00151876 0)
(-0.0890387 0.00155183 0)
(-0.0988311 0.00147245 0)
(-0.106829 0.00125131 0)
(-0.112455 0.000853448 0)
(-0.115173 0.000243009 0)
(-0.114521 -0.000600057 0)
(-0.110202 -0.00166994 0)
(-0.102274 -0.00289422 0)
(-0.0912253 -0.00414629 0)
(-0.07788 -0.0052888 0)
(-0.0632074 -0.00622594 0)
(-0.0481104 -0.00692282 0)
(-0.0332941 -0.0073922 0)
(-0.0192361 -0.00766786 0)
(-0.00622089 -0.00778676 0)
(-0.000145503 3.04927e-05 0)
(-0.000503514 4.7578e-05 0)
(-0.00106577 8.54562e-05 0)
(-0.00198783 0.000153117 0)
(-0.00345688 0.000263339 0)
(-0.00568848 0.000431604 0)
(-0.00891489 0.000674181 0)
(-0.0133621 0.00100569 0)
(-0.0192176 0.00143528 0)
(-0.0265975 0.00196218 0)
(-0.0355071 0.00257058 0)
(-0.0458114 0.00322461 0)
(-0.0572162 0.00386677 0)
(-0.0692701 0.00442045 0)
(-0.0814008 0.00479841 0)
(-0.0929646 0.00491043 0)
(-0.103313 0.00466674 0)
(-0.111822 0.00397329 0)
(-0.117892 0.00271898 0)
(-0.120962 0.000789723 0)
(-0.12054 -0.00188115 0)
(-0.116286 -0.00526995 0)
(-0.108194 -0.00915271 0)
(-0.0967186 -0.013133 0)
(-0.0826999 -0.0167743 0)
(-0.0671808 -0.019759 0)
(-0.0511576 -0.0219722 0)
(-0.0354111 -0.0234593 0)
(-0.0204619 -0.0243334 0)
(-0.00661753 -0.0247105 0)
(-0.000144797 5.11917e-05 0)
(-0.000501065 7.97654e-05 0)
(-0.00106058 0.000143274 0)
(-0.00197817 0.000256723 0)
(-0.00344017 0.000441561 0)
(-0.00566127 0.000723751 0)
(-0.00887298 0.00113066 0)
(-0.013301 0.00168691 0)
(-0.0191334 0.00240805 0)
(-0.0264885 0.00329321 0)
(-0.035376 0.00431638 0)
(-0.045668 0.00541815 0)
(-0.0570798 0.00650292 0)
(-0.0691707 0.00744264 0)
(-0.0813791 0.00809137 0)
(-0.0930722 0.00829856 0)
(-0.103615 0.00791523 0)
(-0.112405 0.00678689 0)
(-0.118869 0.00472881 0)
(-0.122462 0.00154313 0)
(-0.122676 -0.00290239 0)
(-0.119083 -0.00859673 0)
(-0.111519 -0.0152007 0)
(-0.100275 -0.022056 0)
(-0.0861164 -0.0283874 0)
(-0.0701414 -0.0335879 0)
(-0.0534857 -0.0374249 0)
(-0.037053 -0.0399895 0)
(-0.0214216 -0.0415025 0)
(-0.00692785 -0.0421529 0)
(-0.000143627 7.1807e-05 0)
(-0.000497009 0.000111887 0)
(-0.00105198 0.00020097 0)
(-0.00196213 0.000360123 0)
(-0.00341237 0.000619428 0)
(-0.00561584 0.00101537 0)
(-0.00880265 0.00158642 0)
(-0.0131977 0.00236728 0)
(-0.0189896 0.00338017 0)
(-0.0262992 0.00462446 0)
(-0.0351426 0.00606472 0)
(-0.0454021 0.00761898 0)
(-0.0568074 0.00915461 0)
(-0.0689345 0.0104934 0)
(-0.0812391 0.0114314 0)
(-0.0931069 0.0117599 0)
(-0.103925 0.0112749 0)
(-0.113127 0.00976797 0)
(-0.120184 0.00698628 0)
(-0.124583 0.00264196 0)
(-0.125807 -0.00349372 0)
(-0.123306 -0.0114773 0)
(-0.116663 -0.0209288 0)
(-0.105881 -0.0309466 0)
(-0.0915605 -0.0403449 0)
(-0.0748652 -0.0480942 0)
(-0.0571832 -0.0537564 0)
(-0.0396587 -0.0574993 0)
(-0.0229492 -0.059736 0)
(-0.00742118 -0.0606894 0)
(-0.000142065 9.22265e-05 0)
(-0.000491596 0.000143704 0)
(-0.0010405 0.00025812 0)
(-0.00194072 0.000462545 0)
(-0.00337525 0.000795639 0)
(-0.00555518 0.00130432 0)
(-0.00870873 0.00203813 0)
(-0.0130597 0.00304193 0)
(-0.0187972 0.00434479 0)
(-0.0260457 0.00594695 0)
(-0.0348293 0.00780453 0)
(-0.0450439 0.00981457 0)
(-0.0564381 0.0118092 0)
(-0.0686102 0.0135622 0)
(-0.0810388 0.0148133 0)
(-0.0931325 0.0152986 0)
(-0.104307 0.0147658 0)
(-0.114039 0.0129631 0)
(-0.121868 0.00958123 0)
(-0.127338 0.00423722 0)
(-0.129941 -0.00343345 0)
(-0.129005 -0.0136293 0)
(-0.123772 -0.0260609 0)
(-0.113797 -0.0396468 0)
(-0.0993391 -0.0527051 0)
(-0.0815965 -0.0635436 0)
(-0.062385 -0.0713166 0)
(-0.0433202 -0.0763297 0)
(-0.0251144 -0.0794458 0)
(-0.00811753 -0.0807372 0)
(-0.000140117 0.000112394 0)
(-0.000484845 0.000175128 0)
(-0.00102618 0.000314564 0)
(-0.00191401 0.000563708 0)
(-0.00332894 0.000969706 0)
(-0.00547948 0.00158981 0)
(-0.00859148 0.00248461 0)
(-0.0128873 0.00370913 0)
(-0.0185566 0.00529966 0)
(-0.0257282 0.00725795 0)
(-0.034436 0.00953299 0)
(-0.0445925 0.0120028 0)
(-0.0559696 0.0144667 0)
(-0.0681933 0.0166527 0)
(-0.0807699 0.018247 0)
(-0.093135 0.0189332 0)
(-0.104735 0.0184189 0)
(-0.1151 0.0164228 0)
(-0.123854 0.0125996 0)
(-0.13064 0.00647589 0)
(-0.135004 -0.00248566 0)
(-0.136188 -0.0147421 0)
(-0.13304 -0.0302633 0)
(-0.124436 -0.0479522 0)
(-0.109988 -0.0655763 0)
(-0.0907664 -0.0803819 0)
(-0.0692884 -0.0906391 0)
(-0.0481888 -0.0968766 0)
(-0.0280595 -0.101211 0)
(-0.00904287 -0.10285 0)
(-0.000137788 0.000132256 0)
(-0.000476773 0.000206074 0)
(-0.00100906 0.000370148 0)
(-0.00188207 0.000663336 0)
(-0.00327355 0.00114116 0)
(-0.00538893 0.0018711 0)
(-0.00845117 0.00292469 0)
(-0.0126808 0.00436726 0)
(-0.0182683 0.00624258 0)
(-0.025347 0.00855479 0)
(-0.0339623 0.0112473 0)
(-0.0440463 0.0141814 0)
(-0.0553984 0.0171267 0)
(-0.0676771 0.0197684 0)
(-0.0804213 0.0217414 0)
(-0.093096 0.0226803 0)
(-0.105179 0.0222597 0)
(-0.116255 0.0201875 0)
(-0.126053 0.0161111 0)
(-0.13436 0.00948091 0)
(-0.140869 -0.000478655 0)
(-0.144825 -0.0144522 0)
(-0.14468 -0.0330263 0)
(-0.138383 -0.0554697 0)
(-0.124344 -0.0790242 0)
(-0.103028 -0.099265 0)
(-0.0780337 -0.112462 0)
(-0.0544332 -0.119347 0)
(-0.0320504 -0.125795 0)
(-0.0101916 -0.127633 0)
(-0.000135085 0.000151757 0)
(-0.000467402 0.000236457 0)
(-0.000989185 0.000424719 0)
(-0.00184499 0.000761159 0)
(-0.00320924 0.00130954 0)
(-0.00528375 0.00214742 0)
(-0.00828811 0.00335724 0)
(-0.0124407 0.00501464 0)
(-0.0179325 0.00717133 0)
(-0.0249022 0.00983473 0)
(-0.0334079 0.0129445 0)
(-0.0434035 0.0163479 0)
(-0.0547201 0.0197882 0)
(-0.0670536 0.0229114 0)
(-0.0799799 0.0253038 0)
(-0.0929947 0.0265534 0)
(-0.105604 0.0263085 0)
(-0.117442 0.0242862 0)
(-0.12836 0.0201684 0)
(-0.138367 0.0133932 0)
(-0.147338 0.00298827 0)
(-0.154741 -0.0122091 0)
(-0.158872 -0.0336033 0)
(-0.156435 -0.0614743 0)
(-0.143727 -0.092999 0)
(-0.119423 -0.121271 0)
(-0.0885038 -0.13801 0)
(-0.062244 -0.143376 0)
(-0.0376869 -0.154555 0)
(-0.0114176 -0.155819 0)
(-0.000132014 0.000170845 0)
(-0.000456758 0.000266194 0)
(-0.000966607 0.000478128 0)
(-0.00180286 0.000856908 0)
(-0.00313616 0.00147438 0)
(-0.0051642 0.00241805 0)
(-0.0081027 0.00378111 0)
(-0.0121674 0.00564965 0)
(-0.0175498 0.00808367 0)
(-0.0243941 0.0110949 0)
(-0.0327721 0.0146213 0)
(-0.0426621 0.0184992 0)
(-0.0539299 0.0224494 0)
(-0.066314 0.0260827 0)
(-0.0794313 0.0289398 0)
(-0.0928088 0.0305633 0)
(-0.105973 0.0305796 0)
(-0.118595 0.0287347 0)
(-0.130637 0.0247961 0)
(-0.142367 0.018291 0)
(-0.154081 0.00816596 0)
(-0.165714 -0.00740819 0)
(-0.175717 -0.0309005 0)
(-0.179614 -0.0646759 0)
(-0.170234 -0.107122 0)
(-0.141777 -0.148397 0)
(-0.100073 -0.169466 0)
(-0.0720887 -0.167135 0)
(-0.0464666 -0.190274 0)
(-0.0121378 -0.188243 0)
(-0.000128584 0.000189467 0)
(-0.000444871 0.000295204 0)
(-0.000941389 0.000530228 0)
(-0.0017558 0.000950322 0)
(-0.00305451 0.00163524 0)
(-0.00503059 0.00268224 0)
(-0.00789536 0.0041952 0)
(-0.0118616 0.00627065 0)
(-0.0171208 0.00897736 0)
(-0.0238231 0.0123326 0)
(-0.0320546 0.0162744 0)
(-0.0418199 0.020632 0)
(-0.0530229 0.0251078 0)
(-0.0654485 0.0292821 0)
(-0.0787598 0.0326529 0)
(-0.092515 0.0347175 0)
(-0.10625 0.0350811 0)
(-0.119648 0.0335338 0)
(-0.132755 0.0299832 0)
(-0.146116 0.0241529 0)
(-0.160606 0.0150434 0)
(-0.177065 0.000386827 0)
(-0.194966 -0.0235349 0)
(-0.209068 -0.062691 0)
(-0.207107 -0.120345 0)
(-0.173224 -0.184118 0)
(-0.112162 -0.20886 0)
(-0.0857753 -0.184988 0)
(-0.06145 -0.236491 0)
(-0.0110119 -0.224331 0)
(-0.000124805 0.000207573 0)
(-0.000431773 0.000323407 0)
(-0.0009136 0.000580878 0)
(-0.00170394 0.00104115 0)
(-0.00296451 0.00179169 0)
(-0.00488325 0.0029393 0)
(-0.00766657 0.00459839 0)
(-0.0115238 0.00687601 0)
(-0.0166462 0.00985014 0)
(-0.0231895 0.0135446 0)
(-0.0312551 0.0179003 0)
(-0.0408747 0.0227424 0)
(-0.0519934 0.0277601 0)
(-0.0644469 0.032508 0)
(-0.0779488 0.0364446 0)
(-0.0920894 0.0390207 0)
(-0.106402 0.0398153 0)
(-0.120542 0.0386703 0)
(-0.134583 0.0356888 0)
(-0.149328 0.0309454 0)
(-0.166366 0.0238258 0)
(-0.187797 0.0121533 0)
(-0.215463 -0.00898912 0)
(-0.245512 -0.0514623 0)
(-0.258137 -0.130405 0)
(-0.216704 -0.23253 0)
(-0.129489 -0.256742 0)
(-0.107883 -0.18876 0)
(-0.0851845 -0.298413 0)
(-0.0080284 -0.264226 0)
(-0.000120687 0.000225114 0)
(-0.000417499 0.000350727 0)
(-0.000883315 0.000629937 0)
(-0.00164741 0.00112913 0)
(-0.00286638 0.00194328 0)
(-0.00472256 0.00318852 0)
(-0.00741688 0.00498961 0)
(-0.0111547 0.00746415 0)
(-0.0161267 0.0106997 0)
(-0.022494 0.014728 0)
(-0.0303732 0.0194949 0)
(-0.0398244 0.0248259 0)
(-0.0508357 0.0304018 0)
(-0.0632981 0.0357575 0)
(-0.0769808 0.0403148 0)
(-0.0915085 0.043475 0)
(-0.106398 0.0447797 0)
(-0.121227 0.0441152 0)
(-0.136001 0.0418179 0)
(-0.151633 0.0384628 0)
(-0.170301 0.0341626 0)
(-0.195756 0.0273357 0)
(-0.23444 0.0119597 0)
(-0.287968 -0.0309341 0)
(-0.322431 -0.131342 0)
(-0.272216 -0.299453 0)
(-0.177598 -0.320497 0)
(-0.143023 -0.189188 0)
(-0.109716 -0.396464 0)
(-0.0126824 -0.321902 0)
(-0.000116241 0.000242041 0)
(-0.00040209 0.000377089 0)
(-0.000850617 0.000677271 0)
(-0.00158636 0.00121403 0)
(-0.00276039 0.00208962 0)
(-0.00454891 0.00342922 0)
(-0.0071469 0.00536779 0)
(-0.0107551 0.00803347 0)
(-0.0155633 0.0115239 0)
(-0.0217373 0.0158797 0)
(-0.0294088 0.0210544 0)
(-0.0386668 0.0268776 0)
(-0.0495442 0.0330276 0)
(-0.0619907 0.0390257 0)
(-0.0758379 0.0442612 0)
(-0.0907494 0.0480807 0)
(-0.106214 0.0499695 0)
(-0.121681 0.0498307 0)
(-0.136956 0.048248 0)
(-0.15288 0.0464881 0)
(-0.17213 0.0461353 0)
(-0.200552 0.0483174 0)
(-0.250427 0.0506548 0)
(-0.3243 0.0226758 0)
(-0.384051 -0.120533 0)
(-0.338758 -0.386102 0)
(-0.29067 -0.390903 0)
(-0.176864 -0.223109 0)
(-0.110927 -0.531466 0)
(-0.0376182 -0.401059 0)
(-0.00011148 0.000258309 0)
(-0.000385587 0.00040242 0)
(-0.000815596 0.00072275 0)
(-0.00152097 0.00129562 0)
(-0.00264682 0.00223029 0)
(-0.00436277 0.00366074 0)
(-0.00685726 0.0057319 0)
(-0.010326 0.00858242 0)
(-0.0149569 0.0123204 0)
(-0.0209203 0.0169965 0)
(-0.028362 0.0225743 0)
(-0.0374 0.0288919 0)
(-0.0481129 0.0356312 0)
(-0.060513 0.0423065 0)
(-0.0745012 0.0482795 0)
(-0.0897894 0.0528369 0)
(-0.105835 0.05538 0)
(-0.1219 0.0557715 0)
(-0.137399 0.054775 0)
(-0.152568 0.0542656 0)
(-0.169082 0.0570225 0)
(-0.190426 0.0653045 0)
(-0.232228 0.0743217 0)
(-0.330245 0.0403008 0)
(-0.425918 -0.120451 0)
(-0.37101 -0.458868 0)
(-0.405225 -0.440115 0)
(-0.150001 -0.329819 0)
(-0.093881 -0.612618 0)
(-0.0469449 -0.482261 0)
(-0.000106416 0.000273873 0)
(-0.000368036 0.000426652 0)
(-0.000778346 0.000766249 0)
(-0.0014514 0.00137367 0)
(-0.00252598 0.00236492 0)
(-0.0041646 0.00388245 0)
(-0.00654868 0.00608094 0)
(-0.00986822 0.00910947 0)
(-0.0143087 0.0130869 0)
(-0.020044 0.0180751 0)
(-0.0272332 0.0240501 0)
(-0.0360223 0.030863 0)
(-0.0465363 0.0382049 0)
(-0.0588528 0.0455919 0)
(-0.072951 0.0523638 0)
(-0.0886056 0.0577427 0)
(-0.105253 0.0610124 0)
(-0.121936 0.0619119 0)
(-0.137581 0.0612785 0)
(-0.15174 0.0616495 0)
(-0.165728 0.0682579 0)
(-0.184634 0.0906702 0)
(-0.228826 0.135791 0)
(-0.302961 0.146222 0)
(-0.340147 0.00225303 0)
(-0.24634 -0.507927 0)
(-0.356544 -0.571255 0)
(-0.0409628 -0.595278 0)
(-0.10379 -0.629881 0)
(-0.000864838 -0.607562 0)
(-0.000101064 0.000288692 0)
(-0.000349484 0.000449719 0)
(-0.000738969 0.000807648 0)
(-0.00137785 0.00144796 0)
(-0.00239817 0.00249311 0)
(-0.00395492 0.00409373 0)
(-0.00622192 0.00641391 0)
(-0.00938285 0.00961312 0)
(-0.0136201 0.0138212 0)
(-0.0191097 0.0191122 0)
(-0.0260228 0.025477 0)
(-0.0345325 0.0327839 0)
(-0.0448091 0.0407401 0)
(-0.0569981 0.0488721 0)
(-0.0711667 0.0565062 0)
(-0.0871731 0.0627975 0)
(-0.104459 0.0668763 0)
(-0.121833 0.0682434 0)
(-0.137531 0.0675871 0)
(-0.14948 0.0677005 0)
(-0.155228 0.0747248 0)
(-0.151868 0.0975061 0)
(-0.14975 0.128566 0)
(-0.119675 0.0661597 0)
(-0.235935 -0.134537 0)
(0.0207468 -0.459893 0)
(-0.114837 -0.666855 0)
(0.0520726 -0.762472 0)
(-0.078172 -0.63726 0)
(0.0308067 -0.68695 0)
(-9.54382e-05 0.000302724 0)
(-0.000329984 0.000471557 0)
(-0.000697574 0.000846832 0)
(-0.00130051 0.00151829 0)
(-0.00226374 0.00261453 0)
(-0.00373427 0.00429398 0)
(-0.00587779 0.00672989 0)
(-0.00887101 0.0100919 0)
(-0.0128923 0.0145211 0)
(-0.0181188 0.0201045 0)
(-0.0247319 0.02685 0)
(-0.0329295 0.0346477 0)
(-0.0429262 0.0432269 0)
(-0.0549366 0.0521351 0)
(-0.0691258 0.0606963 0)
(-0.0854633 0.0680014 0)
(-0.103449 0.0729943 0)
(-0.12171 0.0747991 0)
(-0.137799 0.073582 0)
(-0.147994 0.0714956 0)
(-0.145716 0.0735237 0)
(-0.117454 0.0881093 0)
(-0.0759959 0.128649 0)
(0.0177586 0.105206 0)
(-0.0434097 0.0374589 0)
(0.173204 -0.533177 0)
(0.144313 -0.590661 0)
(0.127173 -0.566154 0)
(0.0639657 -0.566133 0)
(0.00907237 -0.579032 0)
(-8.95539e-05 0.000315932 0)
(-0.000309589 0.000492107 0)
(-0.000654274 0.000883693 0)
(-0.00121959 0.00158447 0)
(-0.00212305 0.00272883 0)
(-0.00350323 0.00448264 0)
(-0.00551716 0.00702796 0)
(-0.00833391 0.0105444 0)
(-0.0121269 0.0151844 0)
(-0.0170731 0.0210485 0)
(-0.0233617 0.0281639 0)
(-0.0312131 0.0364465 0)
(-0.0408834 0.0456543 0)
(-0.0526562 0.0553669 0)
(-0.0668041 0.0649213 0)
(-0.0834409 0.0733551 0)
(-0.102202 0.0794084 0)
(-0.12167 0.081712 0)
(-0.138954 0.0795824 0)
(-0.149489 0.0738946 0)
(-0.145574 0.0670741 0)
(-0.109152 0.0628139 0)
(-0.0797216 0.0847582 0)
(0.118924 0.075336 0)
(0.067313 -0.279673 0)
(0.184862 -0.621354 0)
(0.186329 -0.726246 0)
(0.192674 -0.569779 0)
(0.124284 -0.539423 0)
(0.0131723 -0.539201 0)
(-8.34274e-05 0.00032828 0)
(-0.000288354 0.000511312 0)
(-0.000609187 0.00091813 0)
(-0.00113532 0.0016463 0)
(-0.00197648 0.00283569 0)
(-0.00326241 0.00465918 0)
(-0.00514094 0.00730726 0)
(-0.00777287 0.0109693 0)
(-0.0113258 0.015809 0)
(-0.0159745 0.021941 0)
(-0.0219139 0.0294134 0)
(-0.0293836 0.038172 0)
(-0.0386772 0.0480098 0)
(-0.050145 0.0585508 0)
(-0.0641751 0.0691646 0)
(-0.0810601 0.0788579 0)
(-0.100667 0.0861743 0)
(-0.121719 0.0891761 0)
(-0.141136 0.0861009 0)
(-0.153898 0.0760717 0)
(-0.151603 0.0584998 0)
(-0.109009 0.0334113 0)
(-0.0749395 -0.0127906 0)
(0.146988 -0.0506914 0)
(0.228816 -0.0315943 0)
(0.232189 -0.388666 0)
(-0.00658853 -0.54581 0)
(0.0767097 -0.573134 0)
(-0.011361 -0.495499 0)
(0.0070891 -0.50885 0)
(-7.70755e-05 0.000339735 0)
(-0.000266339 0.00052912 0)
(-0.000562436 0.000950048 0)
(-0.00104792 0.00170363 0)
(-0.00182442 0.0029348 0)
(-0.00301244 0.00482309 0)
(-0.0047501 0.00756697 0)
(-0.00718925 0.0113653 0)
(-0.0104906 0.0163928 0)
(-0.0148254 0.0227786 0)
(-0.0203907 0.030593 0)
(-0.027442 0.0398157 0)
(-0.0363051 0.0502798 0)
(-0.0473919 0.0616676 0)
(-0.0612099 0.0734046 0)
(-0.0782624 0.0845029 0)
(-0.0987566 0.0933519 0)
(-0.121784 0.0974178 0)
(-0.144501 0.09377 0)
(-0.162222 0.0796718 0)
(-0.166572 0.051626 0)
(-0.141949 0.00797259 0)
(-0.0873577 -0.0827598 0)
(-0.0663735 -0.154351 0)
(0.114113 -0.213875 0)
(0.0664168 -0.62957 0)
(-0.223786 -0.484871 0)
(-0.156036 -0.391355 0)
(-0.108106 -0.38646 0)
(-0.0283553 -0.401242 0)
(-7.05158e-05 0.000350265 0)
(-0.000243604 0.000545484 0)
(-0.000514151 0.000979356 0)
(-0.000957633 0.00175628 0)
(-0.00166728 0.0030259 0)
(-0.00275398 0.0049739 0)
(-0.00434566 0.00780631 0)
(-0.00658452 0.011731 0)
(-0.0096235 0.0169338 0)
(-0.0136282 0.0235579 0)
(-0.0187949 0.0316972 0)
(-0.0253905 0.0413685 0)
(-0.0337661 0.0524496 0)
(-0.044387 0.0646945 0)
(-0.0578782 0.0776132 0)
(-0.0749763 0.0902727 0)
(-0.0963375 0.100996 0)
(-0.121655 0.106693 0)
(-0.148666 0.103299 0)
(-0.173617 0.0868893 0)
(-0.188626 0.0513151 0)
(-0.181119 -0.00776595 0)
(-0.153297 -0.0960583 0)
(-0.136997 -0.211317 0)
(0.035753 -0.223262 0)
(0.0238543 -0.188614 0)
(0.100268 -0.576895 0)
(0.0148333 -0.749423 0)
(0.0152076 -0.763773 0)
(0.000159402 -0.757778 0)
(-6.37663e-05 0.000359841 0)
(-0.000220212 0.000560357 0)
(-0.000464465 0.00100598 0)
(-0.000864701 0.0018041 0)
(-0.00150549 0.00310872 0)
(-0.00248773 0.00511116 0)
(-0.00392867 0.00802455 0)
(-0.00596025 0.0120654 0)
(-0.00872658 0.0174301 0)
(-0.0123857 0.0242758 0)
(-0.0171296 0.0327204 0)
(-0.0232319 0.0428209 0)
(-0.0310609 0.0545029 0)
(-0.0411227 0.0676053 0)
(-0.0541498 0.0817534 0)
(-0.0711172 0.0961307 0)
(-0.0932278 0.109133 0)
(-0.121014 0.117215 0)
(-0.152912 0.115126 0)
(-0.18659 0.0987586 0)
(-0.215519 0.059713 0)
(-0.227378 -0.0108945 0)
(-0.220038 -0.115674 0)
(-0.195222 -0.236117 0)
(-0.108508 -0.327909 0)
(-0.0455389 -0.50916 0)
(0.0728248 -0.296867 0)
(0.0687207 -0.291425 0)
(0.0148264 -0.366268 0)
(0.00774613 -0.39051 0)
(-5.68456e-05 0.00036844 0)
(-0.000196228 0.0005737 0)
(-0.000413513 0.00102983 0)
(-0.00076938 0.00184698 0)
(-0.00133949 0.00318301 0)
(-0.0022144 0.00523447 0)
(-0.00350025 0.00822104 0)
(-0.00531804 0.0123674 0)
(-0.00780218 0.01788 0)
(-0.0111012 0.0249291 0)
(-0.0153988 0.0336571 0)
(-0.0209704 0.0441639 0)
(-0.0281922 0.0564234 0)
(-0.0375942 0.0703719 0)
(-0.0499974 0.0857822 0)
(-0.0665937 0.102025 0)
(-0.0892075 0.117771 0)
(-0.119506 0.129257 0)
(-0.156561 0.130123 0)
(-0.199697 0.117309 0)
(-0.245052 0.0786869 0)
(-0.281505 -0.00638917 0)
(-0.294256 -0.126205 0)
(-0.259258 -0.270798 0)
(-0.189224 -0.35787 0)
(-0.169959 -0.512297 0)
(-0.310577 -0.631927 0)
(-0.194122 -0.637646 0)
(-0.0867214 -0.633937 0)
(-0.0253508 -0.632883 0)
(-4.97726e-05 0.000376036 0)
(-0.000171717 0.000585476 0)
(-0.000361436 0.00105085 0)
(-0.000671931 0.00188477 0)
(-0.00116972 0.00324857 0)
(-0.00193473 0.00534347 0)
(-0.00306153 0.00839513 0)
(-0.00465961 0.0126358 0)
(-0.00685276 0.0182817 0)
(-0.00977815 0.0255149 0)
(-0.0136067 0.0345014 0)
(-0.0186113 0.0453866 0)
(-0.025165 0.0581902 0)
(-0.0338007 0.0729536 0)
(-0.0453976 0.0896252 0)
(-0.0613058 0.107824 0)
(-0.0839819 0.126736 0)
(-0.116462 0.142529 0)
(-0.1579 0.1465 0)
(-0.210049 0.136017 0)
(-0.278149 0.10771 0)
(-0.341209 0.0355118 0)
(-0.377586 -0.124361 0)
(-0.339208 -0.312816 0)
(-0.223864 -0.415869 0)
(-0.0959157 -0.374433 0)
(-0.0570692 -0.347034 0)
(-0.0756431 -0.665646 0)
(-0.0224188 -0.662957 0)
(-0.00557227 -0.646715 0)
(-4.25668e-05 0.000382614 0)
(-0.000146748 0.000595661 0)
(-0.000308378 0.001069 0)
(-0.000572621 0.0019174 0)
(-0.000996656 0.00330525 0)
(-0.00164948 0.00543789 0)
(-0.00261371 0.00854643 0)
(-0.00398671 0.0128702 0)
(-0.00588096 0.0186345 0)
(-0.00842031 0.026032 0)
(-0.0117587 0.0352524 0)
(-0.0161617 0.0464897 0)
(-0.0219886 0.0598067 0)
(-0.0297501 0.0753606 0)
(-0.0403468 0.0933092 0)
(-0.0551875 0.113581 0)
(-0.0773635 0.136233 0)
(-0.11216 0.158205 0)
(-0.159964 0.171549 0)
(-0.222503 0.183195 0)
(-0.307885 0.160935 0)
(-0.409043 0.00894494 0)
(-0.49142 -0.152016 0)
(-0.436094 -0.38125 0)
(-0.34532 -0.510399 0)
(-0.208331 -0.568726 0)
(-0.230036 -0.436833 0)
(-0.108226 -0.652638 0)
(-0.0883179 -0.588549 0)
(-0.0201742 -0.591016 0)
(-3.5248e-05 0.000388127 0)
(-0.000121389 0.000604179 0)
(-0.000254484 0.00108413 0)
(-0.000471721 0.00194459 0)
(-0.000820761 0.00335249 0)
(-0.00135942 0.00551663 0)
(-0.00215796 0.00867268 0)
(-0.00330112 0.0130659 0)
(-0.00488932 0.0189288 0)
(-0.00703132 0.0264609 0)
(-0.00985912 0.03587 0)
(-0.0136268 0.0473954 0)
(-0.0186679 0.0611227 0)
(-0.0254407 0.0773082 0)
(-0.034822 0.0963164 0)
(-0.0481134 0.118376 0)
(-0.0687773 0.144852 0)
(-0.103564 0.173225 0)
(-0.145805 0.183315 0)
(-0.185126 0.159564 0)
(-0.255496 0.190401 0)
(-0.438924 0.255425 0)
(-0.565916 -0.0146651 0)
(-0.470906 -0.477439 0)
(-0.498249 -0.553688 0)
(-0.281196 -0.567283 0)
(-0.257865 -0.525757 0)
(-0.0986753 -0.973721 0)
(-0.0979577 -0.819567 0)
(-0.0217495 -0.854156 0)
(-2.78406e-05 0.000392878 0)
(-9.57157e-05 0.000611551 0)
(-0.000199915 0.00109733 0)
(-0.000369535 0.00196857 0)
(-0.000642583 0.0033949 0)
(-0.00106548 0.00558915 0)
(-0.00169587 0.00879314 0)
(-0.00260548 0.0132614 0)
(-0.00388243 0.0192394 0)
(-0.00561923 0.0269414 0)
(-0.00792163 0.0366056 0)
(-0.0110309 0.0485396 0)
(-0.0152473 0.062865 0)
(-0.0209489 0.0799708 0)
(-0.0289457 0.100459 0)
(-0.0401545 0.124658 0)
(-0.0581036 0.155001 0)
(-0.0951212 0.190314 0)
(-0.164619 0.229183 0)
(-0.31773 0.299329 0)
(-0.664811 0.345172 0)
(-0.745669 0.0120338 0)
(-0.605303 -0.232147 0)
(-0.459418 -0.514456 0)
(-0.728813 -0.716021 0)
(-0.396103 -0.835373 0)
(-0.287826 -0.536311 0)
(-0.0995405 -0.819805 0)
(-0.10261 -0.637334 0)
(-0.0294293 -0.705053 0)
(-2.03285e-05 0.000385906 0)
(-6.97403e-05 0.000599923 0)
(-0.000144685 0.00107455 0)
(-0.000266044 0.00192704 0)
(-0.000461946 0.00332228 0)
(-0.00076704 0.00546776 0)
(-0.00122568 0.00859882 0)
(-0.00189549 0.0129623 0)
(-0.00285104 0.0187951 0)
(-0.0041659 0.0262961 0)
(-0.00591216 0.0357026 0)
(-0.00831335 0.0473699 0)
(-0.0116138 0.0613988 0)
(-0.0160759 0.0782677 0)
(-0.0225414 0.098986 0)
(-0.0318448 0.124609 0)
(-0.0491087 0.163988 0)
(-0.0948383 0.225561 0)
(-0.167286 0.269078 0)
(-0.0968433 0.259771 0)
(0.0858053 0.310902 0)
(0.155327 0.352145 0)
(-0.592924 0.0761157 0)
(-0.123584 -0.645149 0)
(-1.00032 -0.545706 0)
(-0.438116 -1.1396 0)
(-0.290818 -0.815406 0)
(-0.161611 -1.27071 0)
(-0.071312 -1.02041 0)
(-0.0556221 -1.12811 0)
(-1.48991e-05 0.000448597 0)
(-4.52897e-05 0.000699972 0)
(-9.25529e-05 0.00125947 0)
(-0.000168194 0.00225806 0)
(-0.000291147 0.00389024 0)
(-0.000484978 0.00639455 0)
(-0.000781729 0.0100376 0)
(-0.00122628 0.015093 0)
(-0.00188192 0.0218149 0)
(-0.00280483 0.0303965 0)
(-0.00403063 0.041048 0)
(-0.00580213 0.0541112 0)
(-0.00839533 0.0695991 0)
(-0.0115886 0.0879977 0)
(-0.0148944 0.109725 0)
(-0.0140657 0.131476 0)
(-0.00096563 0.152211 0)
(0.0353404 0.178345 0)
(0.11042 0.229583 0)
(-0.0729803 0.266472 0)
(-0.638483 0.366765 0)
(-0.340104 0.2628 0)
(-0.17432 -0.139809 0)
(0.11377 -0.354143 0)
(-0.647694 -0.768933 0)
(0.820681 -1.43883 0)
(-0.020478 -0.908524 0)
(-0.265923 -0.78083 0)
(-0.104239 -0.727312 0)
(-0.0701551 -0.736381 0)
(-0.000131467 0.000283264 0)
(-1.59946e-05 0.000437619 0)
(-2.49122e-05 0.000780315 0)
(-3.59273e-05 0.00140684 0)
(-5.35417e-05 0.00244485 0)
(-8.50026e-05 0.0040704 0)
(-0.000144854 0.00650482 0)
(-0.000260673 0.0100174 0)
(-0.000480338 0.0149241 0)
(-0.000833003 0.0215656 0)
(-0.001288 0.0304271 0)
(-0.00175264 0.0424161 0)
(-0.00324321 0.0581121 0)
(-0.0109153 0.0785963 0)
(-0.0323854 0.10723 0)
(-0.0811275 0.147147 0)
(-0.198707 0.2146 0)
(-0.476157 0.288138 0)
(-0.695482 0.377435 0)
(-0.721442 0.454546 0)
(-0.724567 0.372852 0)
(-0.283569 0.07877 0)
(-0.0187361 -0.135766 0)
(0.106878 0.136617 0)
(0.946098 -0.366161 0)
(1.04947 -0.348548 0)
(2.10983 -0.34804 0)
(1.07025 -0.602923 0)
(0.267116 -0.817667 0)
(0.125359 -1.01251 0)
(0.00622187 -0.00778681 0)
(0.019237 -0.00766819 0)
(0.0332952 -0.00739266 0)
(0.0481118 -0.00692339 0)
(0.063209 -0.00622651 0)
(0.0778817 -0.0052892 0)
(0.0912271 -0.00414653 0)
(0.102276 -0.00289426 0)
(0.110204 -0.00166983 0)
(0.114523 -0.000599953 0)
(0.115175 0.000243136 0)
(0.112456 0.000853613 0)
(0.10683 0.00125141 0)
(0.0988314 0.00147259 0)
(0.0890386 0.00155189 0)
(0.0780494 0.00151879 0)
(0.0664852 0.00140113 0)
(0.0549648 0.00122713 0)
(0.0440425 0.00102447 0)
(0.0341575 0.000817317 0)
(0.0255995 0.000624325 0)
(0.018504 0.000456892 0)
(0.0128698 0.000320261 0)
(0.00858861 0.000214741 0)
(0.00548137 0.000137489 0)
(0.00333157 8.38931e-05 0)
(0.00191616 4.87833e-05 0)
(0.00102739 2.72264e-05 0)
(0.000485495 1.516e-05 0)
(0.000140317 9.85612e-06 0)
(0.00661863 -0.0247104 0)
(0.0204632 -0.0243335 0)
(0.0354127 -0.0234593 0)
(0.0511597 -0.0219722 0)
(0.0671831 -0.019759 0)
(0.0827022 -0.0167741 0)
(0.0967208 -0.0131327 0)
(0.108196 -0.00915237 0)
(0.116287 -0.00526955 0)
(0.120541 -0.00188093 0)
(0.120963 0.000789966 0)
(0.117893 0.00271932 0)
(0.111822 0.00397348 0)
(0.103313 0.00466701 0)
(0.0929642 0.00491052 0)
(0.0814002 0.00479849 0)
(0.0692697 0.0044205 0)
(0.0572157 0.00386669 0)
(0.0458111 0.00322461 0)
(0.035507 0.00257054 0)
(0.0265973 0.00196217 0)
(0.0192176 0.00143529 0)
(0.013362 0.00100567 0)
(0.0089148 0.000674188 0)
(0.00568841 0.00043158 0)
(0.00345675 0.000263343 0)
(0.00198783 0.000153103 0)
(0.00106566 8.54602e-05 0)
(0.000503539 4.75705e-05 0)
(0.000145439 3.04921e-05 0)
(0.00693228 -0.0421527 0)
(0.0214259 -0.0415018 0)
(0.0370571 -0.0399885 0)
(0.0534896 -0.0374235 0)
(0.0701449 -0.0335863 0)
(0.0861194 -0.0283857 0)
(0.100278 -0.0220545 0)
(0.111521 -0.0151995 0)
(0.119085 -0.00859575 0)
(0.122677 -0.00290172 0)
(0.122462 0.00154371 0)
(0.11887 0.00472933 0)
(0.112405 0.00678719 0)
(0.103615 0.00791561 0)
(0.0930717 0.00829869 0)
(0.0813784 0.0080915 0)
(0.0691702 0.00744275 0)
(0.0570793 0.00650279 0)
(0.0456677 0.00541814 0)
(0.0353758 0.00431628 0)
(0.0264883 0.00329321 0)
(0.0191334 0.00240806 0)
(0.0133009 0.00168689 0)
(0.00887289 0.00113068 0)
(0.00566121 0.000723721 0)
(0.00344004 0.000441566 0)
(0.00197817 0.000256704 0)
(0.00106047 0.000143279 0)
(0.000501091 7.97549e-05 0)
(0.000144731 5.11912e-05 0)
(0.00742969 -0.0606892 0)
(0.022957 -0.0597354 0)
(0.039665 -0.0574983 0)
(0.0571877 -0.053755 0)
(0.0748681 -0.0480928 0)
(0.0915621 -0.0403436 0)
(0.105882 -0.0309457 0)
(0.116663 -0.0209281 0)
(0.123307 -0.0114767 0)
(0.125807 -0.00349323 0)
(0.124583 0.00264252 0)
(0.120184 0.00698679 0)
(0.113126 0.00976838 0)
(0.103925 0.0112754 0)
(0.0931063 0.0117601 0)
(0.0812385 0.0114316 0)
(0.068934 0.0104935 0)
(0.0568069 0.00915442 0)
(0.0454018 0.00761894 0)
(0.0351424 0.00606461 0)
(0.026299 0.00462445 0)
(0.0189895 0.00338019 0)
(0.0131976 0.00236725 0)
(0.00880257 0.00158645 0)
(0.00561578 0.00101533 0)
(0.00341223 0.000619447 0)
(0.00196213 0.000360092 0)
(0.00105187 0.000200982 0)
(0.000497035 0.000111871 0)
(0.000143561 7.18061e-05 0)
(0.00812506 -0.080737 0)
(0.0251208 -0.0794458 0)
(0.0433247 -0.0763293 0)
(0.062387 -0.0713161 0)
(0.0815962 -0.0635433 0)
(0.0993373 -0.0527052 0)
(0.113795 -0.0396471 0)
(0.12377 -0.026061 0)
(0.129003 -0.0136293 0)
(0.12994 -0.00343315 0)
(0.127338 0.00423768 0)
(0.121868 0.00958167 0)
(0.114039 0.0129636 0)
(0.104306 0.0147663 0)
(0.0931318 0.0152988 0)
(0.0810381 0.0148134 0)
(0.0686097 0.0135622 0)
(0.0564376 0.011809 0)
(0.0450436 0.0098145 0)
(0.0348291 0.0078044 0)
(0.0260455 0.00594693 0)
(0.0187971 0.00434482 0)
(0.0130596 0.00304189 0)
(0.00870865 0.00203817 0)
(0.00555512 0.00130427 0)
(0.00337512 0.000795665 0)
(0.00194072 0.000462507 0)
(0.00104039 0.000258136 0)
(0.000491622 0.000143683 0)
(0.000142 9.22252e-05 0)
(0.00904125 -0.10285 0)
(0.0280573 -0.101211 0)
(0.0481866 -0.0968757 0)
(0.0692852 -0.0906381 0)
(0.0907621 -0.0803815 0)
(0.109984 -0.0655766 0)
(0.124432 -0.0479528 0)
(0.133037 -0.0302639 0)
(0.136185 -0.0147424 0)
(0.135003 -0.00248573 0)
(0.130639 0.0064761 0)
(0.123854 0.0125999 0)
(0.1151 0.0164233 0)
(0.104735 0.0184194 0)
(0.0931342 0.0189334 0)
(0.0807692 0.0182471 0)
(0.0681927 0.0166527 0)
(0.0559691 0.0144665 0)
(0.0445922 0.0120027 0)
(0.0344359 0.00953284 0)
(0.0257281 0.00725792 0)
(0.0185566 0.0052997 0)
(0.0128871 0.00370909 0)
(0.0085914 0.00248465 0)
(0.00547942 0.00158975 0)
(0.00332881 0.000969739 0)
(0.00191401 0.000563663 0)
(0.00102607 0.000314584 0)
(0.00048487 0.000175103 0)
(0.000140053 0.000112393 0)
(0.0101781 -0.127632 0)
(0.0320377 -0.125793 0)
(0.0544234 -0.119345 0)
(0.0780262 -0.112459 0)
(0.103023 -0.0992634 0)
(0.124341 -0.0790236 0)
(0.13838 -0.0554698 0)
(0.144678 -0.0330266 0)
(0.144823 -0.014453 0)
(0.140868 -0.00047911 0)
(0.134359 0.00948084 0)
(0.126052 0.0161113 0)
(0.116254 0.0201881 0)
(0.105178 0.0222604 0)
(0.093095 0.0226806 0)
(0.0804205 0.0217415 0)
(0.0676764 0.0197683 0)
(0.0553978 0.0171264 0)
(0.044046 0.0141813 0)
(0.0339622 0.0112471 0)
(0.0253469 0.00855476 0)
(0.0182682 0.00624262 0)
(0.0126807 0.0043672 0)
(0.00845108 0.00292474 0)
(0.00538886 0.00187103 0)
(0.00327342 0.0011412 0)
(0.00188206 0.000663283 0)
(0.00100895 0.000370171 0)
(0.000476797 0.000206045 0)
(0.000137724 0.000132254 0)
(0.0113973 -0.155819 0)
(0.0376689 -0.154554 0)
(0.0622299 -0.143374 0)
(0.0884938 -0.13801 0)
(0.119418 -0.121272 0)
(0.143727 -0.0929992 0)
(0.156437 -0.0614744 0)
(0.158872 -0.0336031 0)
(0.15474 -0.0122095 0)
(0.147337 0.0029878 0)
(0.138366 0.0133932 0)
(0.128359 0.0201687 0)
(0.117442 0.024287 0)
(0.105603 0.0263093 0)
(0.0929936 0.0265538 0)
(0.079979 0.025304 0)
(0.0670528 0.0229112 0)
(0.0547195 0.0197878 0)
(0.0434033 0.0163477 0)
(0.0334077 0.0129443 0)
(0.0249021 0.00983469 0)
(0.0179324 0.00717137 0)
(0.0124406 0.00501458 0)
(0.00828803 0.00335729 0)
(0.00528368 0.00214734 0)
(0.00320911 0.00130958 0)
(0.00184498 0.000761098 0)
(0.000989075 0.000424745 0)
(0.000467425 0.000236423 0)
(0.000135022 0.000151755 0)
(0.0121168 -0.188243 0)
(0.0464493 -0.190274 0)
(0.0720702 -0.167133 0)
(0.10006 -0.169472 0)
(0.141774 -0.148405 0)
(0.170239 -0.107125 0)
(0.17962 -0.0646761 0)
(0.175721 -0.0308994 0)
(0.165715 -0.00740763 0)
(0.154081 0.00816565 0)
(0.142366 0.018291 0)
(0.130636 0.0247966 0)
(0.118594 0.0287356 0)
(0.105972 0.0305805 0)
(0.0928076 0.0305638 0)
(0.0794302 0.0289399 0)