/*--------------------------------*- C++ -*----------------------------------*\
| =========                 |                                                 |
| \\      /  F ield         | OpenFOAM: The Open Source CFD Toolbox           |
|  \\    /   O peration     | Version:  2.4.0                                 |
|   \\  /    A nd           | Web:      www.OpenFOAM.org                      |
|    \\/     M anipulation  |                                                 |
\*---------------------------------------------------------------------------*/
FoamFile
{
    version     2.0;
    format      ascii;
    class       surfaceScalarField;
    location    "0.41";
    object      phi;
}
// * * * * * * * * * * * * * * * * * * * * * * * * * * * * * * * * * * * * * //

dimensions      [0 3 -1 0 0 0 0];

internalField   nonuniform List<scalar> 
19800
(
4.22451e-15
-4.2245e-15
-1.00762e-13
1.05054e-13
-3.2595e-13
2.25197e-13
-6.43359e-13
3.17446e-13
-1.02014e-12
3.76798e-13
-1.42625e-12
4.061e-13
-1.83618e-12
4.09903e-13
-2.2291e-12
3.92927e-13
-2.58859e-12
3.59502e-13
-2.90197e-12
3.13391e-13
-3.15973e-12
2.5776e-13
-3.355e-12
1.95258e-13
-3.48314e-12
1.28142e-13
-3.5416e-12
5.8459e-14
-3.52976e-12
-1.18361e-14
-3.44915e-12
-8.06216e-14
-3.30347e-12
-1.4568e-13
-3.09893e-12
-2.0455e-13
-2.84429e-12
-2.54636e-13
-2.55095e-12
-2.9333e-13
-2.23274e-12
-3.18203e-13
-1.90551e-12
-3.27223e-13
-1.58652e-12
-3.18984e-13
-1.29359e-12
-2.92942e-13
-1.04397e-12
-2.49619e-13
-8.53232e-13
-1.90742e-13
-7.3395e-13
-1.19282e-13
-6.94619e-13
-3.93386e-14
-7.38763e-13
4.41321e-14
-8.64419e-13
1.25656e-13
-1.06461e-12
2.00209e-13
-1.32879e-12
2.64201e-13
-1.64562e-12
3.16841e-13
-2.00677e-12
3.61129e-13
-2.41078e-12
4.03999e-13
-2.86519e-12
4.54412e-13
-3.38424e-12
5.19069e-13
-3.98193e-12
5.97687e-13
-4.66391e-12
6.81963e-13
-5.42308e-12
7.59146e-13
-6.23975e-12
8.16669e-13
-7.08511e-12
8.45376e-13
-7.92593e-12
8.40835e-13
-8.72913e-12
8.03201e-13
-9.46536e-12
7.36215e-13
-1.01112e-11
6.45875e-13
-1.06504e-11
5.39152e-13
-1.10734e-11
4.23037e-13
-1.13773e-11
3.03883e-13
1.86945e-13
-1.15642e-11
-1.04806e-13
1.00541e-13
-4.66333e-13
4.66612e-13
-1.06967e-12
8.28507e-13
-1.86226e-12
1.11003e-12
-2.77887e-12
1.29346e-12
-3.75465e-12
1.38192e-12
-4.73087e-12
1.38612e-12
-5.65713e-12
1.31916e-12
-6.49188e-12
1.19424e-12
-7.20198e-12
1.0235e-12
-7.7619e-12
8.17695e-13
-8.15288e-12
5.86248e-13
-8.36226e-12
3.37516e-13
-8.3831e-12
7.92841e-14
-8.21402e-12
-1.80927e-13
-7.85954e-12
-4.35108e-13
-7.33039e-12
-6.74833e-13
-6.64392e-12
-8.91002e-13
-5.82444e-12
-1.07411e-12
-4.90303e-12
-1.21473e-12
-3.91705e-12
-1.30417e-12
-2.90901e-12
-1.33526e-12
-1.92486e-12
-1.30314e-12
-1.01173e-12
-1.20608e-12
-2.15245e-13
-1.04612e-12
4.23521e-13
-8.29524e-13
8.71058e-13
-5.66815e-13
1.10418e-12
-2.72434e-13
1.11199e-12
3.63288e-14
8.9715e-13
3.40495e-13
4.74648e-13
6.22704e-13
-1.31455e-13
8.70319e-13
-8.94519e-13
1.07994e-12
-1.79403e-12
1.26066e-12
-2.82476e-12
1.4347e-12
-4.0016e-12
1.63121e-12
-5.35449e-12
1.87194e-12
-6.91208e-12
2.15529e-12
-8.68304e-12
2.45294e-12
-1.06458e-11
2.72193e-12
-1.27494e-11
2.92023e-12
-1.49214e-11
3.01736e-12
-1.70792e-11
2.9987e-12
-1.91409e-11
2.86485e-12
-2.10331e-11
2.62848e-12
-2.26972e-11
2.30995e-12
-2.40913e-11
1.9332e-12
-2.51907e-11
1.52244e-12
-2.59865e-11
1.09972e-12
6.83439e-13
-2.6483e-11
-2.23235e-13
3.23784e-13
-8.2295e-13
1.0664e-12
-1.73346e-12
1.73903e-12
-2.8776e-12
2.25414e-12
-4.17005e-12
2.5859e-12
-5.52553e-12
2.73742e-12
-6.8648e-12
2.72541e-12
-8.11801e-12
2.57237e-12
-9.22609e-12
2.30232e-12
-1.01409e-11
1.93834e-12
-1.08248e-11
1.50161e-12
-1.12498e-11
1.01121e-12
-1.13968e-11
4.84481e-13
-1.12553e-11
-6.22019e-14
-1.08236e-11
-6.12637e-13
-1.01088e-11
-1.14993e-12
-9.12755e-12
-1.65605e-12
-7.90683e-12
-2.11171e-12
-6.48405e-12
-2.49688e-12
-4.907e-12
-2.79177e-12
-3.23291e-12
-2.97826e-12
-1.5267e-12
-3.04147e-12
1.4159e-13
-2.97144e-12
1.7002e-12
-2.76469e-12
3.07966e-12
-2.42558e-12
4.21724e-12
-1.96711e-12
5.06135e-12
-1.41093e-12
5.57547e-12
-7.86542e-13
5.74126e-12
-1.29438e-13
5.56001e-12
5.21772e-13
5.05228e-12
1.13043e-12
4.25323e-12
1.66935e-12
3.2039e-12
2.12926e-12
1.93828e-12
2.52629e-12
4.68007e-13
2.90499e-12
-1.22782e-12
3.32703e-12
-3.19616e-12
3.84025e-12
-5.48275e-12
4.44187e-12
-8.10031e-12
5.07051e-12
-1.10133e-11
5.63489e-12
-1.4141e-11
6.048e-12
-1.73723e-11
6.24858e-12
-2.05822e-11
6.20865e-12
-2.36486e-11
5.93128e-12
-2.64636e-11
5.44344e-12
-2.89409e-11
4.78725e-12
-3.10195e-11
4.01181e-12
-3.26637e-11
3.16658e-12
-3.38606e-11
2.29663e-12
1.43965e-12
-3.46168e-11
-3.11643e-13
6.35414e-13
-1.09266e-12
1.84746e-12
-2.22721e-12
2.87364e-12
-3.61141e-12
3.63835e-12
-5.14292e-12
4.11739e-12
-6.72258e-12
4.31707e-12
-8.25826e-12
4.26111e-12
-9.66796e-12
3.98208e-12
-1.08814e-11
3.51574e-12
-1.18405e-11
2.89748e-12
-1.24994e-11
2.16051e-12
-1.28236e-11
1.33536e-12
-1.27894e-11
4.5028e-13
-1.23838e-11
-4.67759e-13
-1.16047e-11
-1.39178e-12
-1.0461e-11
-2.29358e-12
-8.97416e-12
-3.1429e-12
-7.17855e-12
-3.90732e-12
-5.12231e-12
-4.55311e-12
-2.86707e-12
-5.04701e-12
-4.86729e-13
-5.35861e-12
1.9348e-12
-5.46302e-12
4.3069e-12
-5.34354e-12
6.53659e-12
-4.99437e-12
8.53371e-12
-4.42269e-12
1.02165e-11
-3.64992e-12
1.15173e-11
-2.71166e-12
1.23869e-11
-1.65617e-12
1.27991e-11
-5.4163e-13
1.2753e-11
5.67874e-13
1.2274e-11
1.60945e-12
1.14093e-11
2.53404e-12
1.0218e-11
3.32055e-12
8.75385e-12
3.99044e-12
7.03991e-12
4.61894e-12
5.04664e-12
5.32031e-12
2.69691e-12
6.18998e-12
-8.76997e-14
7.22646e-12
-3.332e-12
8.31479e-12
-6.98602e-12
9.28891e-12
-1.09358e-11
9.99784e-12
-1.50282e-11
1.0341e-11
-1.90964e-11
1.02767e-11
-2.29807e-11
9.8156e-12
-2.65434e-11
9.0062e-12
-2.96768e-11
7.9206e-12
-3.23059e-11
6.64093e-12
-3.43883e-11
5.24903e-12
-3.59108e-11
3.81911e-12
2.41296e-12
-3.68841e-11
-3.65069e-13
1.00048e-12
-1.25811e-12
2.74049e-12
-2.52641e-12
4.14199e-12
-4.04269e-12
5.15466e-12
-5.68992e-12
5.76462e-12
-7.35869e-12
5.98582e-12
-8.94861e-12
5.85103e-12
-1.03704e-11
5.4039e-12
-1.15473e-11
4.69268e-12
-1.24156e-11
3.76578e-12
-1.29244e-11
2.66934e-12
-1.30354e-11
1.4463e-12
-1.27219e-11
1.36814e-13
-1.19692e-11
-1.22044e-12
-1.07745e-11
-2.58648e-12
-9.14784e-12
-3.92025e-12
-7.11342e-12
-5.17731e-12
-4.71108e-12
-6.30966e-12
-1.99715e-12
-7.26705e-12
9.55602e-13
-7.99977e-12
4.05936e-12
-8.46237e-12
7.21397e-12
-8.61763e-12
1.03109e-11
-8.4405e-12
1.32385e-11
-7.922e-12
1.58883e-11
-7.07244e-12
1.81615e-11
-5.92309e-12
1.99757e-11
-4.52581e-12
2.127e-11
-2.95048e-12
2.20095e-11
-1.28117e-12
2.21898e-11
3.87551e-13
2.18407e-11
1.95862e-12
2.10234e-11
3.35135e-12
1.98216e-11
4.5223e-12
1.83212e-11
5.49081e-12
1.65677e-11
6.37242e-12
1.45191e-11
7.36901e-12
1.2042e-11
8.66708e-12
8.99462e-12
1.02738e-11
5.32685e-12
1.19826e-11
1.10727e-12
1.35085e-11
-3.50591e-12
1.4611e-11
-8.30816e-12
1.51432e-11
-1.30859e-11
1.50545e-11
-1.76423e-11
1.4372e-11
-2.1813e-11
1.31769e-11
-2.54732e-11
1.15808e-11
-2.85396e-11
9.70727e-12
-3.09677e-11
7.67717e-12
-3.27477e-11
5.59911e-12
3.5629e-12
-3.38976e-11
-3.86767e-13
1.38727e-12
-1.32392e-12
3.6776e-12
-2.63741e-12
5.45548e-12
-4.18345e-12
6.70072e-12
-5.83402e-12
7.41521e-12
-7.47248e-12
7.62429e-12
-8.99345e-12
7.372e-12
-1.03039e-11
6.71435e-12
-1.1324e-11
5.71282e-12
-1.19876e-11
4.42941e-12
-1.22419e-11
2.92358e-12
-1.20466e-11
1.25102e-12
-1.13738e-11
-5.35942e-13
-1.02075e-11
-2.38671e-12
-8.54402e-12
-4.24999e-12
-6.39307e-12
-6.07119e-12
-3.77991e-12
-7.79046e-12
-7.4734e-13
-9.34223e-12
2.64258e-12
-1.0657e-11
6.30835e-12
-1.16655e-11
1.01505e-11
-1.23046e-11
1.4055e-11
-1.25221e-11
1.78973e-11
-1.22828e-11
2.15488e-11
-1.15735e-11
2.48845e-11
-1.04082e-11
2.77907e-11
-8.82925e-12
3.01721e-11
-6.90721e-12
3.19572e-11
-4.73556e-12
3.31014e-11
-2.42539e-12
3.35938e-11
-1.04876e-13
3.34665e-11
2.08596e-12
3.27953e-11
4.02257e-12
3.16963e-11
5.62123e-12
3.03089e-11
6.87827e-12
2.87257e-11
7.95563e-12
2.68916e-11
9.20308e-12
2.45717e-11
1.09869e-11
2.15059e-11
1.33397e-11
1.7601e-11
1.58874e-11
1.29593e-11
1.81502e-11
7.80526e-12
1.9765e-11
2.41095e-12
2.05375e-11
-2.95611e-12
2.04215e-11
-8.06152e-12
1.94774e-11
-1.27178e-11
1.78332e-11
-1.67886e-11
1.56517e-11
-2.01875e-11
1.31062e-11
-2.28735e-11
1.03631e-11
-2.48441e-11
7.56982e-12
4.84718e-12
-2.61284e-11
-3.81859e-13
1.76916e-12
-1.30274e-12
4.59848e-12
-2.58091e-12
6.73362e-12
-4.06405e-12
8.18386e-12
-5.61772e-12
8.96891e-12
-7.12123e-12
9.12781e-12
-8.46692e-12
8.7177e-12
-9.56067e-12
7.80811e-12
-1.03224e-11
6.47455e-12
-1.0686e-11
4.79306e-12
-1.05991e-11
2.83662e-12
-1.00216e-11
6.73598e-13
-8.92566e-12
-1.6319e-12
-7.2944e-12
-4.01797e-12
-5.12277e-12
-6.42162e-12
-2.41891e-12
-8.77505e-12
7.93184e-13
-1.10026e-11
4.47029e-12
-1.30193e-11
8.54713e-12
-1.47338e-11
1.29356e-11
-1.6054e-11
1.75265e-11
-1.68955e-11
2.21932e-11
-1.71888e-11
2.67968e-11
-1.68863e-11
3.11928e-11
-1.59695e-11
3.52411e-11
-1.44564e-11
3.88152e-11
-1.24034e-11
4.18107e-11
-9.90273e-12
4.41482e-11
-7.073e-12
4.57722e-11
-4.04937e-12
4.66596e-11
-9.92294e-13
4.68392e-11
1.90636e-12
4.63961e-11
4.46566e-12
4.54831e-11
6.53425e-12
4.43275e-11
8.03391e-12
4.31229e-11
9.16025e-12
4.18147e-11
1.05113e-11
3.99859e-11
1.28157e-11
3.71579e-11
1.61677e-11
3.31772e-11
1.98681e-11
2.82179e-11
2.31095e-11
2.26121e-11
2.53708e-11
1.67212e-11
2.64284e-11
1.08728e-11
2.62699e-11
5.33596e-12
2.50143e-11
3.14599e-13
2.28545e-11
-4.05047e-12
2.00167e-11
-7.67607e-12
1.67318e-11
-1.05296e-11
1.32166e-11
-1.26208e-11
9.66106e-12
6.21924e-12
-1.39928e-11
-3.55696e-13
2.12487e-12
-1.20985e-12
5.45264e-12
-2.38374e-12
7.90751e-12
-3.72392e-12
9.52402e-12
-5.09427e-12
1.03393e-11
-6.3732e-12
1.04068e-11
-7.45326e-12
9.79778e-12
-8.24146e-12
8.59633e-12
-8.65961e-12
6.89271e-12
-8.64401e-12
4.77747e-12
-8.14464e-12
2.33725e-12
-7.12377e-12
-3.47263e-13
-5.55464e-12
-3.20103e-12
-3.42043e-12
-6.15218e-12
-7.1434e-13
-9.1277e-12
2.55868e-12
-1.20481e-11
6.37835e-12
-1.48222e-11
1.0704e-11
-1.7345e-11
1.54696e-11
-1.94994e-11
2.05821e-11
-2.11666e-11
2.59242e-11
-2.22375e-11
3.13576e-11
-2.26223e-11
3.67291e-11
-2.22577e-11
4.18784e-11
-2.11188e-11
4.66513e-11
-1.92293e-11
5.09121e-11
-1.66642e-11
5.45535e-11
-1.35441e-11
5.74959e-11
-1.00154e-11
5.96729e-11
-6.22639e-12
6.10392e-11
-2.35857e-12
6.16105e-11
1.33505e-12
6.14627e-11
4.61347e-12
6.0772e-11
7.22488e-12
5.99052e-11
8.90081e-12
5.92685e-11
9.79694e-12
5.88616e-11
1.09182e-11
5.79388e-11
1.37385e-11
5.56157e-11
1.84908e-11
5.16725e-11
2.38113e-11
4.6448e-11
2.83339e-11
4.04495e-11
3.13693e-11
3.41512e-11
3.27267e-11
2.79375e-11
3.24836e-11
2.21006e-11
3.08512e-11
1.68489e-11
2.81062e-11
1.23182e-11
2.45475e-11
8.5814e-12
2.04686e-11
5.65818e-12
1.61398e-11
3.52285e-12
1.17964e-11
7.62726e-12
2.11484e-12
-3.13276e-13
2.43812e-12
-1.06072e-12
6.2001e-12
-2.07442e-12
8.92123e-12
-3.20583e-12
1.06554e-11
-4.32136e-12
1.14548e-11
-5.30144e-12
1.13869e-11
-6.04094e-12
1.05373e-11
-6.44988e-12
9.00529e-12
-6.45379e-12
6.89663e-12
-5.99326e-12
4.31695e-12
-5.02277e-12
1.36677e-12
-3.5088e-12
-1.86124e-12
-1.4276e-12
-5.28223e-12
1.23658e-12
-8.81636e-12
4.49226e-12
-1.23834e-11
8.33911e-12
-1.58949e-11
1.27634e-11
-1.92466e-11
1.77305e-11
-2.2312e-11
2.31763e-11
-2.49452e-11
2.90044e-11
-2.69948e-11
3.50897e-11
-2.83228e-11
4.12828e-11
-2.88154e-11
4.7415e-11
-2.83899e-11
5.3308e-11
-2.70119e-11
5.87931e-11
-2.47143e-11
6.37291e-11
-2.16003e-11
6.80193e-11
-1.78343e-11
7.16021e-11
-1.35982e-11
7.44037e-11
-9.02803e-12
7.63397e-11
-4.29458e-12
7.74022e-11
2.72563e-13
7.76193e-11
4.39645e-12
7.71261e-11
7.71805e-12
7.64876e-11
9.53927e-12
7.65465e-11
9.73805e-12
7.75203e-11
9.94442e-12
7.80541e-11
1.32047e-11
7.6495e-11
2.00499e-11
7.26066e-11
2.76997e-11
6.70981e-11
3.38424e-11
6.07507e-11
3.77166e-11
5.41575e-11
3.93199e-11
4.77331e-11
3.8908e-11
4.17658e-11
3.68184e-11
3.64498e-11
3.34222e-11
3.19044e-11
2.90929e-11
2.81874e-11
2.41856e-11
2.53025e-11
1.90247e-11
2.32065e-11
1.38924e-11
9.0151e-12
2.18187e-11
-2.59083e-13
2.69719e-12
-8.70001e-13
6.81102e-12
-1.68093e-12
9.73217e-12
-2.55262e-12
1.15271e-11
-3.35729e-12
1.22595e-11
-3.97965e-12
1.20092e-11
-4.31855e-12
1.08762e-11
-4.28843e-12
8.97519e-12
-3.81996e-12
6.42816e-12
-2.85968e-12
3.35668e-12
-1.36859e-12
-1.24324e-13
6.80398e-13
-3.91022e-12
3.30558e-12
-7.90741e-12
6.51972e-12
-1.20305e-11
1.03321e-11
-1.61958e-11
1.47481e-11
-2.03108e-11
1.97635e-11
-2.4262e-11
2.53541e-11
-2.79026e-11
3.1461e-11
-3.10522e-11
3.79854e-11
-3.35191e-11
4.47947e-11
-3.51321e-11
5.17282e-11
-3.5749e-11
5.8598e-11
-3.52597e-11
6.52009e-11
-3.36148e-11
7.13491e-11
-3.08625e-11
7.68992e-11
-2.71504e-11
8.17875e-11
-2.27225e-11
8.60127e-11
-1.78235e-11
8.9507e-11
-1.25223e-11
9.21188e-11
-6.90649e-12
9.38112e-11
-1.41983e-12
9.45178e-11
3.68993e-12
9.41463e-11
8.08947e-12
9.34759e-11
1.02097e-11
9.41963e-11
9.01762e-12
9.71978e-11
6.9429e-12
9.99544e-11
1.04481e-11
9.9346e-11
2.06582e-11
9.53447e-11
3.1701e-11
8.94539e-11
3.97332e-11
8.28325e-11
4.4338e-11
7.61378e-11
4.60146e-11
6.97408e-11
4.5305e-11
6.38794e-11
4.26799e-11
5.87107e-11
3.85909e-11
5.43299e-11
3.34737e-11
5.07793e-11
2.77363e-11
4.80497e-11
2.17542e-11
4.60809e-11
1.58612e-11
1.03257e-11
4.47704e-11
-1.97119e-13
2.8943e-12
-6.51283e-13
7.26517e-12
-1.22992e-12
1.03108e-11
-1.80585e-12
1.21031e-11
-2.25915e-12
1.27128e-11
-2.48024e-12
1.22303e-11
-2.37292e-12
1.07689e-11
-1.85678e-12
8.45905e-12
-8.68484e-13
5.43988e-12
6.38226e-13
1.84998e-12
2.69402e-12
-2.18012e-12
5.31695e-12
-6.53315e-12
8.51675e-12
-1.11072e-11
1.22999e-11
-1.58136e-11
1.66739e-11
-2.05698e-11
2.16491e-11
-2.5286e-11
2.72341e-11
-2.9847e-11
3.34208e-11
-3.40893e-11
4.016e-11
-3.77913e-11
4.73514e-11
-4.07106e-11
5.48561e-11
-4.26368e-11
6.25019e-11
-4.33947e-11
7.00734e-11
-4.28312e-11
7.73264e-11
-4.08679e-11
8.40393e-11
-3.75755e-11
9.006e-11
-3.3171e-11
9.53931e-11
-2.80557e-11
1.00193e-10
-2.26236e-11
1.04434e-10
-1.67633e-11
1.07852e-10
-1.03247e-11
1.104e-10
-3.96736e-12
1.11867e-10
2.22281e-12
1.11591e-10
8.36531e-12
1.10378e-10
1.14229e-11
1.11342e-10
8.05411e-12
1.17236e-10
1.04861e-12
1.23305e-10
4.37891e-12
1.23588e-10
2.03757e-11
1.18993e-10
3.62955e-11
1.12572e-10
4.61546e-11
1.05891e-10
5.10184e-11
9.94717e-11
5.24343e-11
9.34848e-11
5.12919e-11
8.80584e-11
4.81063e-11
8.33003e-11
4.33489e-11
7.92866e-11
3.74875e-11
7.6056e-11
3.09668e-11
7.35989e-11
2.42114e-11
7.18433e-11
1.76168e-11
1.15073e-11
7.06616e-11
-1.31017e-13
3.02533e-12
-4.17228e-13
7.55138e-12
-7.4671e-13
1.06403e-11
-1.00556e-12
1.23619e-11
-1.08256e-12
1.27898e-11
-8.74193e-13
1.2022e-11
-2.89233e-13
1.01839e-11
7.47705e-13
7.42212e-12
2.29396e-12
3.89363e-12
4.38814e-12
-2.44208e-13
7.05128e-12
-4.84325e-12
1.02899e-11
-9.77176e-12
1.41013e-11
-1.49186e-11
1.84806e-11
-2.0193e-11
2.34285e-11
-2.55177e-11
2.89566e-11
-3.08141e-11
3.50872e-11
-3.59776e-11
4.18356e-11
-4.08377e-11
4.91693e-11
-4.5125e-11
5.699e-11
-4.85312e-11
6.51563e-11
-5.08032e-11
7.34859e-11
-5.17244e-11
8.17223e-11
-5.10676e-11
8.95492e-11
-4.86948e-11
9.66789e-11
-4.47051e-11
1.0291e-10
-3.94018e-11
1.08347e-10
-3.34933e-11
1.13502e-10
-2.77787e-11
1.18506e-10
-2.17664e-11
1.22818e-10
-1.46373e-11
1.26697e-10
-7.84643e-12
1.29537e-10
-6.16944e-13
1.29414e-10
8.48821e-12
1.27112e-10
1.37245e-11
1.27212e-10
7.95479e-12
1.36752e-10
-8.49142e-12
1.47775e-10
-6.64483e-12
1.48287e-10
1.98642e-11
1.4219e-10
4.23927e-11
1.35192e-10
5.31528e-11
1.2908e-10
5.71298e-11
1.2365e-10
5.78639e-11
1.18646e-10
5.62967e-11
1.14073e-10
5.26786e-11
1.10023e-10
4.73996e-11
1.06578e-10
4.09321e-11
1.03805e-10
3.37398e-11
1.0172e-10
2.62962e-11
1.00251e-10
1.9086e-11
1.25229e-11
9.92356e-11
-6.41774e-14
3.08951e-12
-1.79909e-13
7.66712e-12
-2.55752e-13
1.07162e-11
-1.90899e-13
1.22971e-11
1.17604e-13
1.24813e-11
7.67913e-13
1.13717e-11
1.84732e-12
9.10454e-12
3.42744e-12
5.84201e-12
5.56087e-12
1.76021e-12
8.27945e-12
-2.96278e-12
1.15945e-11
-8.15827e-12
1.54993e-11
-1.36766e-11
1.99751e-11
-1.93943e-11
2.49992e-11
-2.5217e-11
3.05566e-11
-3.10751e-11
3.66507e-11
-3.69082e-11
4.33125e-11
-4.26394e-11
5.05857e-11
-4.8111e-11
5.84644e-11
-5.30036e-11
6.68629e-11
-5.69298e-11
7.5653e-11
-5.95932e-11
8.46532e-11
-6.07246e-11
9.35478e-11
-5.99622e-11
1.01899e-10
-5.70461e-11
1.09297e-10
-5.21033e-11
1.15361e-10
-4.54657e-11
1.20256e-10
-3.83884e-11
1.25181e-10
-3.27039e-11
1.30938e-10
-2.75231e-11
1.36149e-10
-1.98482e-11
1.41384e-10
-1.30819e-11
1.47851e-10
-7.08383e-12
1.49443e-10
6.89688e-12
1.43121e-10
2.00463e-11
1.40883e-10
1.01927e-11
1.56108e-10
-2.37166e-11
1.73003e-10
-2.35396e-11
1.71825e-10
2.10421e-11
1.62292e-10
5.19257e-11
1.55638e-10
5.98064e-11
1.51833e-10
6.0935e-11
1.48613e-10
6.10838e-11
1.45308e-10
5.96016e-11
1.42008e-10
5.59788e-11
1.38907e-10
5.0501e-11
1.36164e-10
4.36753e-11
1.33922e-10
3.59811e-11
1.32266e-10
2.79522e-11
1.31133e-10
2.02192e-11
1.33583e-11
1.30298e-10
6.96615e-17
3.08945e-12
4.887e-14
7.61834e-12
2.18883e-13
1.05462e-11
5.99269e-13
1.19167e-11
1.28623e-12
1.17944e-11
2.37433e-12
1.02836e-11
3.94906e-12
7.52981e-12
6.08082e-12
3.71025e-12
8.82032e-12
-9.79276e-13
1.21955e-11
-6.33791e-12
1.62101e-11
-1.21729e-11
2.08451e-11
-1.83117e-11
2.60634e-11
-2.46126e-11
3.18186e-11
-3.09722e-11
3.80682e-11
-3.73248e-11
4.4789e-11
-4.3629e-11
5.20016e-11
-4.9852e-11
5.97713e-11
-5.58807e-11
6.81275e-11
-6.13599e-11
7.70263e-11
-6.58285e-11
8.63935e-11
-6.89605e-11
9.60811e-11
-7.04123e-11
1.05698e-10
-6.95791e-11
1.14621e-10
-6.59694e-11
1.2226e-10
-5.97418e-11
1.27764e-10
-5.09697e-11
1.31127e-10
-4.1752e-11
1.34525e-10
-3.61014e-11
1.40131e-10
-3.31293e-11
1.47905e-10
-2.7622e-11
1.53563e-10
-1.87398e-11
1.62375e-10
-1.58963e-11
1.72867e-10
-3.59495e-12
1.7174e-10
2.11739e-11
1.53079e-10
2.88537e-11
1.74233e-10
-4.48705e-11
1.92496e-10
-4.18031e-11
1.85938e-10
2.75997e-11
1.72305e-10
6.55592e-11
1.73186e-10
5.89257e-11
1.75167e-10
5.89538e-11
1.75449e-10
6.08012e-11
1.74293e-10
6.07579e-11
1.72423e-10
5.7849e-11
1.70304e-10
5.26199e-11
1.68213e-10
4.57666e-11
1.66427e-10
3.77672e-11
1.65165e-10
2.92137e-11
1.64389e-10
2.09953e-11
1.40197e-11
1.63728e-10
5.8495e-14
3.03095e-12
2.5743e-13
7.41943e-12
6.5323e-13
1.01504e-11
1.3259e-12
1.1244e-11
2.36726e-12
1.0753e-11
3.87088e-12
8.77996e-12
5.9235e-12
5.47719e-12
8.59809e-12
1.03567e-12
1.19481e-11
-4.32927e-12
1.60029e-11
-1.03927e-11
2.07644e-11
-1.69344e-11
2.62064e-11
-2.37536e-11
3.22762e-11
-3.06824e-11
3.89005e-11
-3.75965e-11
4.59972e-11
-4.44216e-11
5.34914e-11
-5.11232e-11
6.13568e-11
-5.77173e-11
6.96458e-11
-6.41697e-11
7.84137e-11
-7.01278e-11
8.76954e-11
-7.51102e-11
9.75468e-11
-7.88118e-11
1.0794e-10
-8.08055e-11
1.18419e-10
-8.00581e-11
1.28122e-10
-7.56725e-11
1.3627e-10
-6.78893e-11
1.4102e-10
-5.572e-11
1.41743e-10
-4.24747e-11
1.42166e-10
-3.65253e-11
1.44481e-10
-3.54442e-11
1.51947e-10
-3.5088e-11
1.6399e-10
-3.07825e-11
1.69546e-10
-2.14527e-11
1.84607e-10
-1.86555e-11
2.1224e-10
-6.45918e-12
1.95022e-10
4.60712e-11
1.74529e-10
-2.43769e-11
1.89399e-10
-5.66731e-11
1.60489e-10
5.65094e-11
1.84226e-10
4.18227e-11
1.9845e-10
4.47019e-11
2.0477e-10
5.26334e-11
2.07046e-10
5.85256e-11
2.07037e-10
6.07662e-11
2.06085e-10
5.88017e-11
2.04665e-10
5.40391e-11
2.02962e-10
4.74696e-11
2.01378e-10
3.93519e-11
2.00371e-10
3.02208e-11
1.99966e-10
2.13997e-11
1.45011e-11
1.99485e-10
1.07765e-13
2.9232e-12
4.34211e-13
7.093e-12
1.02362e-12
9.56097e-12
1.95009e-12
1.03176e-11
3.30401e-12
9.39906e-12
5.18093e-12
6.90303e-12
7.67242e-12
2.98571e-12
1.08585e-11
-2.15043e-12
1.48015e-11
-8.27224e-12
1.95401e-11
-1.51313e-11
2.50843e-11
-2.24787e-11
3.14114e-11
-3.00807e-11
3.84633e-11
-3.77342e-11
4.61454e-11
-4.52786e-11
5.43325e-11
-5.26087e-11
6.28767e-11
-5.96673e-11
7.16521e-11
-6.64928e-11
8.06243e-11
-7.31418e-11
8.98207e-11
-7.93243e-11
9.93459e-11
-8.46355e-11
1.09462e-10
-8.89279e-11
1.20453e-10
-9.1797e-11
1.319e-10
-9.15047e-11
1.42728e-10
-8.64999e-11
1.5217e-10
-7.73315e-11
1.56319e-10
-5.98696e-11
1.5349e-10
-3.96457e-11
1.50715e-10
-3.375e-11
1.49174e-10
-3.39032e-11
1.50682e-10
-3.65958e-11
1.52431e-10
-3.25318e-11
1.49139e-10
-1.81607e-11
1.30511e-10
-2.70784e-14
1.09521e-10
1.45303e-11
1.5259e-10
3.00227e-12
1.76724e-10
-4.85104e-11
1.75068e-10
-5.50175e-11
2.43877e-10
-1.23e-11
2.44769e-10
4.0931e-11
2.42758e-10
4.67129e-11
2.4264e-10
5.27513e-11
2.42548e-10
5.86176e-11
2.42539e-10
6.07752e-11
2.42487e-10
5.88535e-11
2.41869e-10
5.46574e-11
2.40383e-10
4.89561e-11
2.38657e-10
4.10774e-11
2.37706e-10
3.1172e-11
2.37781e-10
2.13249e-11
1.47086e-11
2.37573e-10
1.44763e-13
2.77845e-12
5.68263e-13
6.66952e-12
1.30752e-12
8.82173e-12
2.43445e-12
9.19066e-12
4.04102e-12
7.7925e-12
6.2276e-12
4.71645e-12
9.09381e-12
1.19502e-13
1.27312e-11
-5.78779e-12
1.7217e-11
-1.27581e-11
2.26087e-11
-2.05229e-11
2.89371e-11
-2.88071e-11
3.62002e-11
-3.73438e-11
4.43549e-11
-4.5889e-11
5.3307e-11
-5.42308e-11
6.29043e-11
-6.2206e-11
7.29236e-11
-6.96866e-11
8.30903e-11
-7.66594e-11
9.31779e-11
-8.32295e-11
1.03073e-10
-8.92196e-11
1.12807e-10
-9.43695e-11
1.22807e-10
-9.89281e-11
1.33916e-10
-1.02905e-10
1.46081e-10
-1.0367e-10
1.5804e-10
-9.8459e-11
1.70441e-10
-8.97329e-11
1.745e-10
-6.39286e-11
1.67247e-10
-3.23924e-11
1.61972e-10
-2.84745e-11
1.61118e-10
-3.30491e-11
1.58358e-10
-3.38362e-11
1.56531e-10
-3.07045e-11
1.5321e-10
-1.48398e-11
1.51392e-10
1.7912e-12
1.493e-10
1.66215e-11
1.97431e-10
-4.5128e-11
1.83611e-10
-3.4691e-11
1.4899e-10
-2.03959e-11
2.10276e-10
-7.3586e-11
2.33911e-10
1.72955e-11
2.51222e-10
2.94015e-11
2.62125e-10
4.18485e-11
2.71206e-10
4.95363e-11
2.76944e-10
5.50378e-11
2.80623e-10
5.51742e-11
2.81924e-10
5.33564e-11
2.80575e-10
5.03051e-11
2.78102e-10
4.35505e-11
2.76829e-10
3.24453e-11
2.77679e-10
2.04743e-11
1.43681e-11
2.7802e-10
1.66698e-13
2.61176e-12
6.49952e-13
6.18629e-12
1.48511e-12
7.98659e-12
2.74569e-12
7.93008e-12
4.52787e-12
6.01033e-12
6.93888e-12
2.30544e-12
1.00884e-11
-3.03001e-12
1.40821e-11
-9.7815e-12
1.90169e-11
-1.76929e-11
2.49762e-11
-2.64822e-11
3.20245e-11
-3.58554e-11
4.02012e-11
-4.55205e-11
4.95078e-11
-5.51956e-11
5.98907e-11
-6.46137e-11
7.12184e-11
-7.35338e-11
8.3235e-11
-8.17032e-11
9.55257e-11
-8.89502e-11
1.07578e-10
-9.52816e-11
1.18947e-10
-1.00588e-10
1.29296e-10
-1.04719e-10
1.38901e-10
-1.08532e-10
1.49186e-10
-1.13191e-10
1.60947e-10
-1.15431e-10
1.72327e-10
-1.09839e-10
1.88364e-10
-1.0577e-10
1.98175e-10
-7.37391e-11
1.80713e-10
-1.49307e-11
1.78483e-10
-2.62446e-11
1.79329e-10
-3.38952e-11
1.7935e-10
-3.38572e-11
1.8067e-10
-3.20245e-11
1.89956e-10
-2.41264e-11
2.11001e-10
-1.92534e-11
2.52499e-10
-2.48762e-11
2.46575e-10
-3.92039e-11
2.04247e-10
7.63654e-12
1.80146e-10
3.70548e-12
1.56478e-10
-4.99183e-11
2.15381e-10
-4.16069e-11
2.53063e-10
-8.28057e-12
2.83517e-10
1.1394e-11
3.03726e-10
2.93273e-11
3.15895e-10
4.28688e-11
3.23597e-10
4.7472e-11
3.26309e-10
5.06451e-11
3.23975e-10
5.26384e-11
3.19409e-10
4.8117e-11
3.17042e-10
3.48122e-11
3.1939e-10
1.81268e-11
1.29046e-11
3.20853e-10
1.71443e-13
2.44034e-12
6.72012e-13
5.68574e-12
1.54137e-12
7.11724e-12
2.85821e-12
6.61323e-12
4.72481e-12
4.14373e-12
7.25593e-12
-2.2568e-13
1.05712e-11
-6.34528e-12
1.47902e-11
-1.40005e-11
2.00294e-11
-2.29321e-11
2.64004e-11
-3.28532e-11
3.40084e-11
-4.34634e-11
4.29482e-11
-5.44603e-11
5.32948e-11
-6.55422e-11
6.5085e-11
-7.64039e-11
7.82867e-11
-8.67355e-11
9.2727e-11
-9.61435e-11
1.07999e-10
-1.04222e-10
1.2333e-10
-1.10613e-10
1.37712e-10
-1.14971e-10
1.50171e-10
-1.17178e-10
1.59948e-10
-1.1831e-10
1.69735e-10
-1.22978e-10
1.76919e-10
-1.22614e-10
1.85543e-10
-1.18463e-10
2.05152e-10
-1.25379e-10
2.17905e-10
-8.64914e-11
1.97401e-10
5.57304e-12
2.05755e-10
-3.45994e-11
2.01088e-10
-2.92282e-11
2.00491e-10
-3.326e-11
2.07167e-10
-3.86999e-11
2.2372e-10
-4.068e-11
2.46462e-10
-4.19951e-11
2.60608e-10
-3.90225e-11
2.54265e-10
-3.2861e-11
2.69534e-10
-7.63169e-12
2.84785e-10
-1.15455e-11
2.77176e-10
-4.23102e-11
2.80296e-10
-4.47266e-11
3.0306e-10
-3.10446e-11
3.28087e-10
-1.36329e-11
3.50142e-10
7.27269e-12
3.6364e-10
2.93703e-11
3.71022e-10
4.00905e-11
3.7412e-10
4.75465e-11
3.69854e-10
5.69048e-11
3.61906e-10
5.60646e-11
3.57439e-10
3.92798e-11
3.6278e-10
1.27856e-11
9.50287e-12
3.66182e-10
1.57875e-13
2.28247e-12
6.30669e-13
5.21297e-12
1.46844e-12
6.27948e-12
2.75821e-12
5.32346e-12
4.60929e-12
2.29265e-12
7.14319e-12
-2.75957e-12
1.0487e-11
-9.68908e-12
1.477e-11
-1.82835e-11
2.01229e-11
-2.8285e-11
2.6679e-11
-3.94093e-11
3.45778e-11
-5.13621e-11
4.39662e-11
-6.38488e-11
5.49996e-11
-7.65756e-11
6.78354e-11
-8.92397e-11
8.26127e-11
-1.01513e-10
9.94025e-11
-1.12933e-10
1.18075e-10
-1.22894e-10
1.38033e-10
-1.30571e-10
1.5786e-10
-1.34798e-10
1.7532e-10
-1.34638e-10
1.89112e-10
-1.32101e-10
1.97834e-10
-1.317e-10
2.00107e-10
-1.24887e-10
1.93751e-10
-1.12107e-10
1.89289e-10
-1.20917e-10
1.91751e-10
-8.89533e-11
2.55712e-10
-5.83879e-11
2.28215e-10
-7.10218e-12
2.11162e-10
-1.21753e-11
2.12921e-10
-3.50188e-11
2.24524e-10
-5.03036e-11
2.40817e-10
-5.69729e-11
2.582e-10
-5.93778e-11
2.76373e-10
-5.71957e-11
2.92453e-10
-4.89406e-11
3.14761e-10
-2.99398e-11
3.366e-10
-3.33852e-11
3.43856e-10
-4.95653e-11
3.51563e-10
-5.24338e-11
3.65187e-10
-4.46687e-11
3.85419e-10
-3.38655e-11
4.03308e-10
-1.06161e-11
4.09326e-10
2.33526e-11
4.19882e-10
2.95347e-11
4.26007e-10
4.14215e-11
4.20833e-10
6.20791e-11
4.08213e-10
6.86839e-11
3.99311e-10
4.81824e-11
4.09136e-10
2.96055e-12
3.81741e-12
4.14821e-10
1.26157e-13
2.15633e-12
5.26596e-13
4.81254e-12
1.26759e-12
5.5385e-12
2.44716e-12
4.14389e-12
4.18187e-12
5.57928e-13
6.59794e-12
-5.17564e-12
9.82556e-12
-1.29167e-11
1.39965e-11
-2.24544e-11
1.92448e-11
-3.35333e-11
2.57103e-11
-4.58748e-11
3.3545e-11
-5.91967e-11
4.29207e-11
-7.32245e-11
5.40415e-11
-8.76965e-11
6.71596e-11
-1.02358e-10
8.25863e-11
-1.1694e-10
1.007e-10
-1.31047e-10
1.21865e-10
-1.44059e-10
1.46192e-10
-1.54897e-10
1.74593e-10
-1.63199e-10
2.02893e-10
-1.62938e-10
2.25259e-10
-1.54468e-10
2.35584e-10
-1.42024e-10
2.53272e-10
-1.42575e-10
2.15735e-10
-7.45711e-11
1.94307e-10
-9.94886e-11
1.98874e-10
-9.35207e-11
2.11535e-10
-7.10485e-11
1.88772e-10
1.56604e-11
1.92554e-10
-1.59568e-11
2.11287e-10
-5.37523e-11
2.34515e-10
-7.35313e-11
2.5802e-10
-8.04778e-11
2.80111e-10
-8.14695e-11
3.0129e-10
-7.83748e-11
3.2228e-10
-6.99301e-11
3.51569e-10
-5.92291e-11
3.77518e-10
-5.93345e-11
3.94405e-10
-6.64516e-11
4.06372e-10
-6.44006e-11
4.17722e-10
-5.60192e-11
4.31928e-10
-4.8071e-11
4.47421e-10
-2.61098e-11
4.56108e-10
1.46655e-11
4.72748e-10
1.28949e-11
4.83741e-10
3.04283e-11
4.8117e-10
6.46504e-11
4.61777e-10
8.80765e-11
4.44621e-10
6.53385e-11
4.57288e-10
-9.70639e-12
-2.55565e-12
4.63661e-10
7.78823e-14
2.07845e-12
3.65388e-13
4.52505e-12
9.50248e-13
4.95365e-12
1.94372e-12
3.15043e-12
3.46954e-12
-9.6789e-13
5.65621e-12
-7.36232e-12
8.63205e-12
-1.58925e-11
1.25229e-11
-2.63453e-11
1.74527e-11
-3.84631e-11
2.35475e-11
-5.19696e-11
3.0941e-11
-6.65902e-11
3.97853e-11
-8.20688e-11
5.02692e-11
-9.81804e-11
6.265e-11
-1.14739e-10
7.72774e-11
-1.31567e-10
9.46349e-11
-1.48405e-10
1.15343e-10
-1.64767e-10
1.41004e-10
-1.80558e-10
1.6952e-10
-1.91716e-10
2.10262e-10
-2.03679e-10
2.72606e-10
-2.16812e-10
3.07937e-10
-1.77355e-10
2.77921e-10
-1.1256e-10
2.57394e-10
-5.40436e-11
2.34258e-10
-7.63526e-11
1.24114e-10
1.66232e-11
1.49522e-10
-9.64566e-11
1.3955e-10
2.56317e-11
1.84069e-10
-6.04758e-11
2.1818e-10
-8.78631e-11
2.47108e-10
-1.02459e-10
2.76706e-10
-1.10076e-10
3.05336e-10
-1.10099e-10
3.31631e-10
-1.0467e-10
3.58677e-10
-9.6977e-11
3.88771e-10
-8.93229e-11
4.16496e-10
-8.70593e-11
4.36543e-10
-8.64989e-11
4.52938e-10
-8.07949e-11
4.66684e-10
-6.97655e-11
4.75086e-10
-5.64727e-11
4.88946e-10
-3.99699e-11
5.17571e-10
-1.39596e-11
5.24728e-10
5.73742e-12
5.30791e-10
2.43658e-11
5.44032e-10
5.14093e-11
5.59136e-10
7.29721e-11
5.04946e-10
1.19529e-10
5.13938e-10
-1.86978e-11
1.45216e-11
4.9686e-10
1.60221e-14
2.06244e-12
1.5735e-13
4.38372e-12
5.37561e-13
4.57344e-12
1.28314e-12
2.40485e-12
2.52508e-12
-2.20982e-12
4.39242e-12
-9.22966e-12
7.00762e-12
-1.85077e-11
1.04836e-11
-2.98213e-11
1.49233e-11
-4.29028e-11
2.04207e-11
-5.7467e-11
2.70641e-11
-7.32336e-11
3.49426e-11
-8.99473e-11
4.41595e-11
-1.07397e-10
5.48502e-11
-1.25429e-10
6.71574e-11
-1.43874e-10
8.11807e-11
-1.62428e-10
9.74552e-11
-1.81042e-10
1.12312e-10
-1.95415e-10
1.30714e-10
-2.10119e-10
1.6134e-10
-2.34305e-10
1.72651e-10
-2.28123e-10
1.66079e-10
-1.70783e-10
1.59225e-10
-1.05706e-10
1.1819e-10
-1.30087e-11
1.47992e-10
-1.06155e-10
2.13632e-10
-4.90165e-11
2.16045e-10
-9.88693e-11
2.05731e-10
3.59458e-11
2.12776e-10
-6.75207e-11
2.40531e-10
-1.15618e-10
2.67727e-10
-1.29655e-10
2.99181e-10
-1.4153e-10
3.30159e-10
-1.41078e-10
3.59888e-10
-1.34398e-10
3.89679e-10
-1.26768e-10
4.20234e-10
-1.19878e-10
4.48406e-10
-1.15231e-10
4.72273e-10
-1.10366e-10
4.92557e-10
-1.01079e-10
5.08536e-10
-8.5744e-11
5.20332e-10
-6.82687e-11
5.37376e-10
-5.70137e-11
5.54792e-10
-3.13762e-11
5.59218e-10
1.31186e-12
5.64374e-10
1.92094e-11
5.82131e-10
3.36521e-11
6.20821e-10
3.42827e-11
6.37475e-10
1.02875e-10
6.0145e-10
1.73267e-11
4.32064e-11
5.72765e-10
-5.53458e-14
2.11779e-12
-8.34499e-14
4.41184e-12
5.84786e-14
4.43151e-12
5.13959e-13
1.94937e-12
1.42195e-12
-3.11781e-12
2.91178e-12
-1.07195e-11
5.09865e-12
-2.06946e-11
8.07987e-12
-3.28025e-11
1.19322e-11
-4.67551e-11
1.67103e-11
-6.22451e-11
2.24458e-11
-7.8969e-11
2.91471e-11
-9.66487e-11
3.68012e-11
-1.15051e-10
4.5364e-11
-1.33992e-10
5.47314e-11
-1.53242e-10
6.489e-11
-1.72586e-10
7.33731e-11
-1.89525e-10
8.35838e-11
-2.05626e-10
1.01025e-10
-2.2756e-10
1.07055e-10
-2.40335e-10
1.05888e-10
-2.26956e-10
1.28573e-10
-1.93468e-10
1.77451e-10
-1.54583e-10
3.04102e-10
-1.3966e-10
1.95092e-10
2.85485e-12
1.5105e-10
-4.97397e-12
4.38206e-11
8.36008e-12
1.4283e-10
-6.30634e-11
2.0191e-10
-1.26601e-10
2.42885e-10
-1.56593e-10
2.80435e-10
-1.67205e-10
3.21106e-10
-1.82202e-10
3.54864e-10
-1.74836e-10
3.83899e-10
-1.63433e-10
4.12165e-10
-1.55034e-10
4.40131e-10
-1.47844e-10
4.66828e-10
-1.41928e-10
4.91528e-10