/*--------------------------------*- C++ -*----------------------------------*\
| =========                 |                                                 |
| \\      /  F ield         | OpenFOAM: The Open Source CFD Toolbox           |
|  \\    /   O peration     | Version:  2.4.0                                 |
|   \\  /    A nd           | Web:      www.OpenFOAM.org                      |
|    \\/     M anipulation  |                                                 |
\*---------------------------------------------------------------------------*/
FoamFile
{
    version     2.0;
    format      ascii;
    class       volScalarField;
    location    "0.068";
    object      p;
}
// * * * * * * * * * * * * * * * * * * * * * * * * * * * * * * * * * * * * * //

dimensions      [1 -1 -2 0 0 0 0];

internalField   nonuniform List<scalar> 
60000
(
97.0823
97.0823
97.0823
97.0823
97.0824
97.0824
97.0824
97.0824
97.0824
97.0824
97.0824
97.0825
97.0825
97.0825
97.0825
97.0826
97.0826
97.0826
97.0827
97.0827
97.0828
97.0828
97.0828
97.0829
97.0829
97.083
97.083
97.0831
97.0831
97.0832
97.0832
97.0833
97.0834
97.0834
97.0835
97.0835
97.0836
97.0837
97.0837
97.0838
97.0838
97.0839
97.084
97.084
97.0841
97.0842
97.0842
97.0843
97.0843
97.0844
97.0844
97.0844
97.0845
97.0845
97.0845
97.0845
97.0845
97.0844
97.0844
97.0843
97.0843
97.0842
97.0841
97.084
97.0838
97.0837
97.0836
97.0834
97.0832
97.0831
97.0829
97.0827
97.0825
97.0823
97.0821
97.0818
97.0816
97.0814
97.0812
97.081
97.0807
97.0805
97.0803
97.0801
97.0798
97.0796
97.0794
97.0792
97.079
97.0788
97.0786
97.0784
97.0782
97.078
97.0778
97.0776
97.0774
97.0772
97.077
97.0768
95.1203
95.1203
95.1203
95.1203
95.1204
95.1204
95.1204
95.1204
95.1204
95.1204
95.1204
95.1205
95.1205
95.1205
95.1205
95.1206
95.1206
95.1206
95.1207
95.1207
95.1208
95.1208
95.1208
95.1209
95.1209
95.121
95.121
95.1211
95.1211
95.1212
95.1212
95.1213
95.1214
95.1214
95.1215
95.1215
95.1216
95.1217
95.1217
95.1218
95.1218
95.1219
95.122
95.122
95.1221
95.1222
95.1222
95.1223
95.1223
95.1224
95.1224
95.1224
95.1225
95.1225
95.1225
95.1225
95.1225
95.1224
95.1224
95.1223
95.1223
95.1222
95.1221
95.122
95.1218
95.1217
95.1216
95.1214
95.1212
95.1211
95.1209
95.1207
95.1205
95.1203
95.1201
95.1198
95.1196
95.1194
95.1192
95.119
95.1187
95.1185
95.1183
95.1181
95.1178
95.1176
95.1174
95.1172
95.117
95.1168
95.1166
95.1164
95.1162
95.116
95.1158
95.1156
95.1154
95.1152
95.115
95.1148
93.1583
93.1583
93.1583
93.1583
93.1583
93.1584
93.1584
93.1584
93.1584
93.1584
93.1584
93.1585
93.1585
93.1585
93.1585
93.1586
93.1586
93.1586
93.1587
93.1587
93.1588
93.1588
93.1588
93.1589
93.1589
93.159
93.159
93.1591
93.1591
93.1592
93.1592
93.1593
93.1594
93.1594
93.1595
93.1595
93.1596
93.1597
93.1597
93.1598
93.1598
93.1599
93.16
93.16
93.1601
93.1602
93.1602
93.1603
93.1603
93.1604
93.1604
93.1604
93.1605
93.1605
93.1605
93.1605
93.1605
93.1604
93.1604
93.1603
93.1603
93.1602
93.1601
93.16
93.1598
93.1597
93.1596
93.1594
93.1592
93.1591
93.1589
93.1587
93.1585
93.1583
93.1581
93.1578
93.1576
93.1574
93.1572
93.1569
93.1567
93.1565
93.1563
93.1561
93.1558
93.1556
93.1554
93.1552
93.155
93.1548
93.1546
93.1544
93.1542
93.154
93.1538
93.1536
93.1534
93.1532
93.153
93.1528
91.1963
91.1963
91.1963
91.1963
91.1963
91.1964
91.1964
91.1964
91.1964
91.1964
91.1964
91.1965
91.1965
91.1965
91.1965
91.1966
91.1966
91.1966
91.1967
91.1967
91.1968
91.1968
91.1968
91.1969
91.1969
91.197
91.197
91.1971
91.1971
91.1972
91.1972
91.1973
91.1974
91.1974
91.1975
91.1975
91.1976
91.1977
91.1977
91.1978
91.1978
91.1979
91.198
91.198
91.1981
91.1982
91.1982
91.1983
91.1983
91.1984
91.1984
91.1984
91.1985
91.1985
91.1985
91.1985
91.1985
91.1984
91.1984
91.1983
91.1983
91.1982
91.1981
91.198
91.1979
91.1977
91.1976
91.1974
91.1972
91.1971
91.1969
91.1967
91.1965
91.1963
91.1961
91.1958
91.1956
91.1954
91.1952
91.1949
91.1947
91.1945
91.1943
91.1941
91.1938
91.1936
91.1934
91.1932
91.193
91.1928
91.1926
91.1924
91.1922
91.192
91.1918
91.1916
91.1914
91.1912
91.191
91.1908
89.2343
89.2343
89.2343
89.2343
89.2343
89.2344
89.2344
89.2344
89.2344
89.2344
89.2344
89.2345
89.2345
89.2345
89.2345
89.2346
89.2346
89.2346
89.2347
89.2347
89.2348
89.2348
89.2348
89.2349
89.2349
89.235
89.235
89.2351
89.2351
89.2352
89.2352
89.2353
89.2354
89.2354
89.2355
89.2355
89.2356
89.2357
89.2357
89.2358
89.2358
89.2359
89.236
89.236
89.2361
89.2362
89.2362
89.2363
89.2363
89.2364
89.2364
89.2364
89.2365
89.2365
89.2365
89.2365
89.2365
89.2364
89.2364
89.2364
89.2363
89.2362
89.2361
89.236
89.2359
89.2357
89.2356
89.2354
89.2352
89.2351
89.2349
89.2347
89.2345
89.2343
89.2341
89.2338
89.2336
89.2334
89.2332
89.2329
89.2327
89.2325
89.2323
89.2321
89.2318
89.2316
89.2314
89.2312
89.231
89.2308
89.2306
89.2304
89.2302
89.23
89.2298
89.2296
89.2294
89.2292
89.229
89.2288
87.2723
87.2723
87.2723
87.2723
87.2723
87.2724
87.2724
87.2724
87.2724
87.2724
87.2724
87.2725
87.2725
87.2725
87.2725
87.2726
87.2726
87.2726
87.2727
87.2727
87.2727
87.2728
87.2728
87.2729
87.2729
87.273
87.273
87.2731
87.2731
87.2732
87.2732
87.2733
87.2734
87.2734
87.2735
87.2735
87.2736
87.2737
87.2737
87.2738
87.2738
87.2739
87.274
87.274
87.2741
87.2742
87.2742
87.2743
87.2743
87.2744
87.2744
87.2745
87.2745
87.2745
87.2745
87.2745
87.2745
87.2745
87.2744
87.2744
87.2743
87.2742
87.2741
87.274
87.2739
87.2737
87.2736
87.2734
87.2733
87.2731
87.2729
87.2727
87.2725
87.2723
87.2721
87.2718
87.2716
87.2714
87.2712
87.2709
87.2707
87.2705
87.2703
87.2701
87.2698
87.2696
87.2694
87.2692
87.269
87.2688
87.2686
87.2684
87.2682
87.268
87.2678
87.2676
87.2674
87.2672
87.267
87.2668
85.3103
85.3103
85.3103
85.3103
85.3103
85.3103
85.3104
85.3104
85.3104
85.3104
85.3104
85.3105
85.3105
85.3105
85.3105
85.3106
85.3106
85.3106
85.3107
85.3107
85.3107
85.3108
85.3108
85.3109
85.3109
85.311
85.311
85.3111
85.3111
85.3112
85.3112
85.3113
85.3114
85.3114
85.3115
85.3115
85.3116
85.3117
85.3117
85.3118
85.3118
85.3119
85.312
85.312
85.3121
85.3122
85.3122
85.3123
85.3123
85.3124
85.3124
85.3125
85.3125
85.3125
85.3125
85.3125
85.3125
85.3125
85.3124
85.3124
85.3123
85.3122
85.3121
85.312
85.3119
85.3118
85.3116
85.3114
85.3113
85.3111
85.3109
85.3107
85.3105
85.3103
85.3101
85.3098
85.3096
85.3094
85.3092
85.3089
85.3087
85.3085
85.3083
85.308
85.3078
85.3076
85.3074
85.3072
85.307
85.3068
85.3066
85.3064
85.3062
85.306
85.3058
85.3056
85.3054
85.3052
85.305
85.3048
83.3483
83.3483
83.3483
83.3483
83.3483
83.3483
83.3484
83.3484
83.3484
83.3484
83.3484
83.3484
83.3485
83.3485
83.3485
83.3486
83.3486
83.3486
83.3487
83.3487
83.3487
83.3488
83.3488
83.3489
83.3489
83.349
83.349
83.3491
83.3491
83.3492
83.3492
83.3493
83.3494
83.3494
83.3495
83.3495
83.3496
83.3497
83.3497
83.3498
83.3498
83.3499
83.35
83.35
83.3501
83.3502
83.3502
83.3503
83.3503
83.3504
83.3504
83.3505
83.3505
83.3505
83.3505
83.3505
83.3505
83.3505
83.3505
83.3504
83.3503
83.3503
83.3502
83.35
83.3499
83.3498
83.3496
83.3495
83.3493
83.3491
83.3489
83.3487
83.3485
83.3483
83.3481
83.3478
83.3476
83.3474
83.3472
83.3469
83.3467
83.3465
83.3463
83.346
83.3458
83.3456
83.3454
83.3452
83.345
83.3448
83.3446
83.3444
83.3442
83.344
83.3438
83.3436
83.3434
83.3432
83.343
83.3428
81.3863
81.3863
81.3863
81.3863
81.3863
81.3863
81.3863
81.3864
81.3864
81.3864
81.3864
81.3864
81.3865
81.3865
81.3865
81.3866
81.3866
81.3866
81.3867
81.3867
81.3867
81.3868
81.3868
81.3869
81.3869
81.387
81.387
81.3871
81.3871
81.3872
81.3872
81.3873
81.3873
81.3874
81.3875
81.3875
81.3876
81.3877
81.3877
81.3878
81.3878
81.3879
81.388
81.388
81.3881
81.3882
81.3882
81.3883
81.3884
81.3884
81.3885
81.3885
81.3885
81.3885
81.3886
81.3886
81.3885
81.3885
81.3885
81.3884
81.3884
81.3883
81.3882
81.3881
81.3879
81.3878
81.3876
81.3875
81.3873
81.3871
81.3869
81.3867
81.3865
81.3863
81.3861
81.3858
81.3856
81.3854
81.3852
81.3849
81.3847
81.3845
81.3843
81.384
81.3838
81.3836
81.3834
81.3832
81.383
81.3828
81.3826
81.3823
81.3821
81.3819
81.3817
81.3815
81.3814
81.3812
81.381
81.3808
79.4243
79.4243
79.4243
79.4243
79.4243
79.4243
79.4243
79.4244
79.4244
79.4244
79.4244
79.4244
79.4245
79.4245
79.4245
79.4245
79.4246
79.4246
79.4247
79.4247
79.4247
79.4248
79.4248
79.4249
79.4249
79.425
79.425
79.4251
79.4251
79.4252
79.4252
79.4253
79.4253
79.4254
79.4255
79.4255
79.4256
79.4256
79.4257
79.4258
79.4258
79.4259
79.426
79.426
79.4261
79.4262
79.4262
79.4263
79.4264
79.4264
79.4265
79.4265
79.4265
79.4266
79.4266
79.4266
79.4266
79.4266
79.4265
79.4265
79.4264
79.4263
79.4262
79.4261
79.426
79.4258
79.4257
79.4255
79.4253
79.4251
79.4249
79.4247
79.4245
79.4243
79.4241
79.4238
79.4236
79.4234
79.4232
79.4229
79.4227
79.4225
79.4223
79.422
79.4218
79.4216
79.4214
79.4212
79.421
79.4208
79.4205
79.4203
79.4201
79.4199
79.4197
79.4195
79.4193
79.4192
79.419
79.4188
77.4623
77.4623
77.4623
77.4623
77.4623
77.4623
77.4623
77.4624
77.4624
77.4624
77.4624
77.4624
77.4625
77.4625
77.4625
77.4625
77.4626
77.4626
77.4626
77.4627
77.4627
77.4628
77.4628
77.4629
77.4629
77.463
77.463
77.4631
77.4631
77.4632
77.4632
77.4633
77.4633
77.4634
77.4635
77.4635
77.4636
77.4636
77.4637
77.4638
77.4638
77.4639
77.464
77.464
77.4641
77.4642
77.4642
77.4643
77.4644
77.4644
77.4645
77.4645
77.4646
77.4646
77.4646
77.4646
77.4646
77.4646
77.4645
77.4645
77.4644
77.4643
77.4642
77.4641
77.464
77.4638
77.4637
77.4635
77.4633
77.4631
77.4629
77.4627
77.4625
77.4623
77.4621
77.4618
77.4616
77.4614
77.4612
77.4609
77.4607
77.4605
77.4602
77.46
77.4598
77.4596
77.4594
77.4592
77.459
77.4587
77.4585
77.4583
77.4581
77.4579
77.4577
77.4575
77.4573
77.4571
77.457
77.4568
75.5003
75.5003
75.5003
75.5003
75.5003
75.5003
75.5003
75.5003
75.5004
75.5004
75.5004
75.5004
75.5004
75.5005
75.5005
75.5005
75.5006
75.5006
75.5006
75.5007
75.5007
75.5008
75.5008
75.5009
75.5009
75.5009
75.501
75.5011
75.5011
75.5012
75.5012
75.5013
75.5013
75.5014
75.5015
75.5015
75.5016
75.5016
75.5017
75.5018
75.5018
75.5019
75.502
75.502
75.5021
75.5022
75.5022
75.5023
75.5024
75.5024
75.5025
75.5025
75.5026
75.5026
75.5026
75.5026
75.5026
75.5026
75.5026
75.5025
75.5025
75.5024
75.5023
75.5021
75.502
75.5019
75.5017
75.5015
75.5013
75.5012
75.5009
75.5007
75.5005
75.5003
75.5001
75.4998
75.4996
75.4994
75.4992
75.4989
75.4987
75.4985
75.4982
75.498
75.4978
75.4976
75.4974
75.4972
75.4969
75.4967
75.4965
75.4963
75.4961
75.4959
75.4957
75.4955
75.4953
75.4951
75.4949
75.4948
73.5383
73.5383
73.5383
73.5383
73.5383
73.5383
73.5383
73.5383
73.5384
73.5384
73.5384
73.5384
73.5384
73.5385
73.5385
73.5385
73.5386
73.5386
73.5386
73.5387
73.5387
73.5388
73.5388
73.5388
73.5389
73.5389
73.539
73.539
73.5391
73.5392
73.5392
73.5393
73.5393
73.5394
73.5395
73.5395
73.5396
73.5396
73.5397
73.5398
73.5398
73.5399
73.54
73.54
73.5401
73.5402
73.5402
73.5403
73.5404
73.5405
73.5405
73.5406
73.5406
73.5406
73.5407
73.5407
73.5407
73.5407
73.5406
73.5406
73.5405
73.5404
73.5403
73.5402
73.54
73.5399
73.5397
73.5396
73.5394
73.5392
73.539
73.5388
73.5385
73.5383
73.5381
73.5378
73.5376
73.5374
73.5371
73.5369
73.5367
73.5365
73.5362
73.536
73.5358
73.5356
73.5354
73.5351
73.5349
73.5347
73.5345
73.5343
73.5341
73.5339
73.5337
73.5335
73.5333
73.5331
73.5329
73.5327
71.5763
71.5763
71.5763
71.5763
71.5763
71.5763
71.5763
71.5763
71.5763
71.5764
71.5764
71.5764
71.5764
71.5765
71.5765
71.5765
71.5765
71.5766
71.5766
71.5767
71.5767
71.5767
71.5768
71.5768
71.5769
71.5769
71.577
71.577
71.5771
71.5772
71.5772
71.5773
71.5773
71.5774
71.5774
71.5775
71.5776
71.5776
71.5777
71.5778
71.5778
71.5779
71.578
71.578
71.5781
71.5782
71.5783
71.5783
71.5784
71.5785
71.5785
71.5786
71.5786
71.5787
71.5787
71.5787
71.5787
71.5787
71.5787
71.5786
71.5785
71.5784
71.5783
71.5782
71.5781
71.5779
71.5778
71.5776
71.5774
71.5772
71.577
71.5768
71.5765
71.5763
71.5761
71.5759
71.5756
71.5754
71.5751
71.5749
71.5747
71.5744
71.5742
71.574
71.5738
71.5736
71.5733
71.5731
71.5729
71.5727
71.5725
71.5723
71.5721
71.5719
71.5717
71.5715
71.5713
71.5711
71.5709
71.5707
69.6143
69.6143
69.6143
69.6143
69.6143
69.6143
69.6143
69.6143
69.6143
69.6144
69.6144
69.6144
69.6144
69.6144
69.6145
69.6145
69.6145
69.6146
69.6146
69.6147
69.6147
69.6147
69.6148
69.6148
69.6149
69.6149
69.615
69.615
69.6151
69.6151
69.6152
69.6153
69.6153
69.6154
69.6154
69.6155
69.6156
69.6156
69.6157
69.6158
69.6158
69.6159
69.616
69.616
69.6161
69.6162
69.6163
69.6163
69.6164
69.6165
69.6166
69.6166
69.6167
69.6167
69.6167
69.6168
69.6168
69.6167
69.6167
69.6167
69.6166
69.6165
69.6164
69.6163
69.6161
69.616
69.6158
69.6156
69.6154
69.6152
69.615
69.6148
69.6146
69.6143
69.6141
69.6139
69.6136
69.6134
69.6131
69.6129
69.6127
69.6124
69.6122
69.612
69.6118
69.6115
69.6113
69.6111
69.6109
69.6107
69.6105
69.6103
69.6101
69.6099
69.6097
69.6095
69.6093
69.6091
69.6089
69.6087
67.6522
67.6523
67.6523
67.6523
67.6523
67.6523
67.6523
67.6523
67.6523
67.6523
67.6524
67.6524
67.6524
67.6524
67.6525
67.6525
67.6525
67.6526
67.6526
67.6526
67.6527
67.6527
67.6528
67.6528
67.6529
67.6529
67.653
67.653
67.6531
67.6531
67.6532
67.6533
67.6533
67.6534
67.6534
67.6535
67.6536
67.6536
67.6537
67.6537
67.6538
67.6539
67.654
67.654
67.6541
67.6542
67.6543
67.6543
67.6544
67.6545
67.6546
67.6546
67.6547
67.6547
67.6548
67.6548
67.6548
67.6548
67.6548
67.6547
67.6546
67.6545
67.6544
67.6543
67.6542
67.654
67.6538
67.6536
67.6535
67.6532
67.653
67.6528
67.6526
67.6523
67.6521
67.6519
67.6516
67.6514
67.6511
67.6509
67.6507
67.6504
67.6502
67.65
67.6497
67.6495
67.6493
67.6491
67.6489
67.6487
67.6485
67.6483
67.6481
67.6479
67.6477
67.6475
67.6473
67.6471
67.6469
67.6467
65.6902
65.6902
65.6902
65.6902
65.6903
65.6903
65.6903
65.6903
65.6903
65.6903
65.6904
65.6904
65.6904
65.6904
65.6905
65.6905
65.6905
65.6906
65.6906
65.6906
65.6907
65.6907
65.6908
65.6908
65.6909
65.6909
65.691
65.691
65.6911
65.6911
65.6912
65.6912
65.6913
65.6914
65.6914
65.6915
65.6916
65.6916
65.6917
65.6917
65.6918
65.6919
65.6919
65.692
65.6921
65.6922
65.6923
65.6924
65.6924
65.6925
65.6926
65.6927
65.6927
65.6928
65.6928
65.6928
65.6928
65.6928
65.6928
65.6928
65.6927
65.6926
65.6925
65.6924
65.6922
65.6921
65.6919
65.6917
65.6915
65.6913
65.691
65.6908
65.6906
65.6903
65.6901
65.6899
65.6896
65.6894
65.6891
65.6889
65.6886
65.6884
65.6882
65.688
65.6877
65.6875
65.6873
65.6871
65.6869
65.6867
65.6865
65.6863
65.6861
65.6859
65.6857
65.6855
65.6853
65.6851
65.6849
65.6847
63.7282
63.7282
63.7282
63.7282
63.7282
63.7283
63.7283
63.7283
63.7283
63.7283
63.7283
63.7284
63.7284
63.7284
63.7284
63.7285
63.7285
63.7285
63.7286
63.7286
63.7287
63.7287
63.7288
63.7288
63.7288
63.7289
63.7289
63.729
63.7291
63.7291
63.7292
63.7292
63.7293
63.7294
63.7294
63.7295
63.7295
63.7296
63.7297
63.7297
63.7298
63.7299
63.7299
63.73
63.7301
63.7302
63.7303
63.7304
63.7304
63.7305
63.7306
63.7307
63.7308
63.7308
63.7309
63.7309
63.7309
63.7309
63.7309
63.7308
63.7307
63.7307
63.7305
63.7304
63.7303
63.7301
63.7299
63.7297
63.7295
63.7293
63.7291
63.7288
63.7286
63.7284
63.7281
63.7279
63.7276
63.7274
63.7271
63.7269
63.7266
63.7264
63.7262
63.7259
63.7257
63.7255
63.7253
63.7251
63.7249
63.7247
63.7245
63.7243
63.7241
63.7239
63.7237
63.7235
63.7233
63.7231
63.7229
63.7227
61.7662
61.7662
61.7662
61.7662
61.7662
61.7662
61.7663
61.7663
61.7663
61.7663
61.7663
61.7664
61.7664
61.7664
61.7664
61.7665
61.7665
61.7665
61.7666
61.7666
61.7667
61.7667
61.7667
61.7668
61.7668
61.7669
61.7669
61.767
61.7671
61.7671
61.7672
61.7672
61.7673
61.7674
61.7674
61.7675
61.7675
61.7676
61.7677
61.7677
61.7678
61.7679
61.7679
61.768
61.7681
61.7682
61.7683
61.7684
61.7685
61.7686
61.7686
61.7687
61.7688
61.7689
61.7689
61.7689
61.769
61.769
61.7689
61.7689
61.7688
61.7687
61.7686
61.7685
61.7683
61.7682
61.768
61.7678
61.7676
61.7673
61.7671
61.7669
61.7666
61.7664
61.7661
61.7659
61.7656
61.7654
61.7651
61.7649
61.7646
61.7644
61.7642
61.7639
61.7637
61.7635
61.7633
61.7631
61.7629
61.7627
61.7625
61.7623
61.7621
61.7619
61.7617
61.7615
61.7613
61.7611
61.7608
61.7606
59.8042
59.8042
59.8042
59.8042
59.8042
59.8042
59.8042
59.8043
59.8043
59.8043
59.8043
59.8043
59.8044
59.8044
59.8044
59.8045
59.8045
59.8045
59.8046
59.8046
59.8046
59.8047
59.8047
59.8048
59.8048
59.8049
59.8049
59.805
59.805
59.8051
59.8052
59.8052
59.8053
59.8053
59.8054
59.8055
59.8055
59.8056
59.8057
59.8057
59.8058
59.8058
59.8059
59.806
59.8061
59.8062
59.8063
59.8064
59.8065
59.8066
59.8067
59.8068
59.8068
59.8069
59.807
59.807
59.807
59.807
59.807
59.807
59.8069
59.8068
59.8067
59.8065
59.8064
59.8062
59.806
59.8058
59.8056
59.8054
59.8051
59.8049
59.8046
59.8044
59.8041
59.8039
59.8036
59.8034
59.8031
59.8029
59.8026
59.8024
59.8021
59.8019
59.8017
59.8015
59.8013
59.8011
59.8009
59.8007
59.8005
59.8003
59.8001
59.7999
59.7997
59.7995
59.7993
59.799
59.7988
59.7986
57.8422
57.8422
57.8422
57.8422
57.8422
57.8422
57.8422
57.8422
57.8423
57.8423
57.8423
57.8423
57.8424
57.8424
57.8424
57.8424
57.8425
57.8425
57.8425
57.8426
57.8426
57.8427
57.8427
57.8428
57.8428
57.8429
57.8429
57.843
57.843
57.8431
57.8431
57.8432
57.8433
57.8433
57.8434
57.8435
57.8435
57.8436
57.8436
57.8437
57.8438
57.8438
57.8439
57.844
57.8441
57.8442
57.8443
57.8444
57.8445
57.8446
57.8447
57.8448
57.8449
57.845
57.845
57.8451
57.8451
57.8451
57.8451
57.845
57.845
57.8449
57.8447
57.8446
57.8444
57.8443
57.8441
57.8439
57.8436
57.8434
57.8432
57.8429
57.8427
57.8424
57.8421
57.8419
57.8416
57.8414
57.8411
57.8408
57.8406
57.8404
57.8401
57.8399
57.8397
57.8394
57.8392
57.839
57.8388
57.8387
57.8385
57.8383
57.8381
57.8379
57.8377
57.8375
57.8373
57.837
57.8368
57.8366
55.8802
55.8802
55.8802
55.8802
55.8802
55.8802
55.8802
55.8802
55.8802
55.8803
55.8803
55.8803
55.8803
55.8804
55.8804
55.8804
55.8805
55.8805
55.8805
55.8806
55.8806
55.8807
55.8807
55.8807
55.8808
55.8808
55.8809
55.881
55.881
55.8811
55.8811
55.8812
55.8813
55.8813
55.8814
55.8815
55.8815
55.8816
55.8816
55.8817
55.8818
55.8818
55.8819
55.882
55.8821
55.8822
55.8823
55.8824
55.8825
55.8826
55.8827
55.8828
55.8829
55.883
55.8831
55.8831
55.8832
55.8832
55.8832
55.8831
55.883
55.8829
55.8828
55.8827
55.8825
55.8823
55.8821
55.8819
55.8817
55.8814
55.8812
55.8809
55.8807
55.8804
55.8801
55.8799
55.8796
55.8794
55.8791
55.8788
55.8786
55.8783
55.8781
55.8779
55.8776
55.8774
55.8772
55.877
55.8768
55.8766
55.8765
55.8763
55.8761
55.8759
55.8757
55.8755
55.8752
55.875
55.8748
55.8746
53.9182
53.9182
53.9182
53.9182
53.9182
53.9182
53.9182
53.9182
53.9182
53.9183
53.9183
53.9183
53.9183
53.9183
53.9184
53.9184
53.9184
53.9185
53.9185
53.9186
53.9186
53.9186
53.9187
53.9187
53.9188
53.9188
53.9189
53.9189
53.919
53.9191
53.9191
53.9192
53.9193
53.9193
53.9194
53.9194
53.9195
53.9196
53.9196
53.9197
53.9197
53.9198
53.9199
53.92
53.9201
53.9202
53.9203
53.9204
53.9205
53.9206
53.9208
53.9209
53.921
53.9211
53.9212
53.9212
53.9213
53.9213
53.9212
53.9212
53.9211
53.921
53.9209
53.9208
53.9206
53.9204
53.9202
53.92
53.9197
53.9195
53.9192
53.919
53.9187
53.9184
53.9182
53.9179
53.9176
53.9173
53.9171
53.9168
53.9166
53.9163
53.9161
53.9158
53.9156
53.9154
53.9152
53.915
53.9148
53.9146
53.9144
53.9143
53.9141
53.9139
53.9137
53.9134
53.9132
53.913
53.9128
53.9125
51.9561
51.9561
51.9561
51.9562
51.9562
51.9562
51.9562
51.9562
51.9562
51.9562
51.9563
51.9563
51.9563
51.9563
51.9564
51.9564
51.9564
51.9565
51.9565
51.9565
51.9566
51.9566
51.9567
51.9567
51.9568
51.9568
51.9569
51.9569
51.957
51.9571
51.9571
51.9572
51.9573
51.9573
51.9574
51.9574
51.9575
51.9576
51.9576
51.9577
51.9577
51.9578
51.9579
51.9579
51.958
51.9581
51.9583
51.9584
51.9585
51.9587
51.9588
51.9589
51.959
51.9591
51.9592
51.9593
51.9593
51.9594
51.9593
51.9593
51.9592
51.9591
51.959
51.9588
51.9587
51.9585
51.9583
51.958
51.9578
51.9575
51.9573
51.957
51.9567
51.9564
51.9562
51.9559
51.9556
51.9553
51.9551
51.9548
51.9545
51.9543
51.954
51.9538
51.9536
51.9534
51.9532
51.953
51.9528
51.9526
51.9524
51.9523
51.9521
51.9519
51.9517
51.9514
51.9512
51.951
51.9508
51.9505
49.9941
49.9941
49.9941
49.9941
49.9941
49.9942
49.9942
49.9942
49.9942
49.9942
49.9942
49.9943
49.9943
49.9943
49.9943
49.9944
49.9944
49.9944
49.9945
49.9945
49.9946
49.9946
49.9947
49.9947
49.9948
49.9948
49.9949
49.9949
49.995
49.995
49.9951
49.9952
49.9952
49.9953
49.9954
49.9954
49.9955
49.9955
49.9956
49.9956
49.9957
49.9958
49.9958
49.9959
49.996
49.9961
49.9963
49.9964
49.9965
49.9967
49.9968
49.997
49.9971
49.9972
49.9973
49.9974
49.9974
49.9974
49.9974
49.9974
49.9973
49.9972
49.9971
49.9969
49.9968
49.9965
49.9963
49.9961
49.9958
49.9956
49.9953
49.995
49.9947
49.9945
49.9942
49.9939
49.9936
49.9933
49.9931
49.9928
49.9925
49.9923
49.992
49.9918
49.9916
49.9913
49.9912
49.991
49.9908
49.9906
49.9904
49.9903
49.9901
49.9899
49.9897
49.9895
49.9892
49.989
49.9888
49.9885
48.0321
48.0321
48.0321
48.0321
48.0321
48.0321
48.0322
48.0322
48.0322
48.0322
48.0322
48.0322
48.0323
48.0323
48.0323
48.0324
48.0324
48.0324
48.0325
48.0325
48.0326
48.0326
48.0326
48.0327
48.0327
48.0328
48.0328
48.0329
48.033
48.033
48.0331
48.0332
48.0332
48.0333
48.0334
48.0334
48.0335
48.0335
48.0336
48.0336
48.0337
48.0337
48.0338
48.0339
48.034
48.0341
48.0342
48.0344
48.0345
48.0347
48.0349
48.035
48.0352
48.0353
48.0354
48.0355
48.0355
48.0356
48.0355
48.0355
48.0354
48.0353
48.0352
48.035
48.0348
48.0346
48.0344
48.0341
48.0339
48.0336
48.0333
48.033
48.0328
48.0325
48.0322
48.0319
48.0316
48.0313
48.031
48.0308
48.0305
48.0302
48.03
48.0297
48.0295
48.0293
48.0291
48.0289
48.0288
48.0286
48.0284
48.0282
48.0281
48.0279
48.0277
48.0275
48.0272
48.027
48.0267
48.0265
46.0701
46.0701
46.0701
46.0701
46.0701
46.0701
46.0701
46.0701
46.0702
46.0702
46.0702
46.0702
46.0703
46.0703
46.0703
46.0703
46.0704
46.0704
46.0705
46.0705
46.0705
46.0706
46.0706
46.0707
46.0707
46.0708
46.0708
46.0709
46.0709
46.071
46.0711
46.0712
46.0712
46.0713
46.0714
46.0714
46.0715
46.0715
46.0716
46.0716
46.0717
46.0717
46.0718
46.0719
46.072
46.0721
46.0722
46.0724
46.0725
46.0727
46.0729
46.0731
46.0732
46.0734
46.0735
46.0736
46.0736
46.0737
46.0737
46.0736
46.0736
46.0734
46.0733
46.0731
46.0729
46.0727
46.0725
46.0722
46.0719
46.0717
46.0714
46.0711
46.0708
46.0705
46.0702
46.0699
46.0696
46.0693
46.069
46.0687
46.0685
46.0682
46.068
46.0677
46.0675
46.0673
46.0671
46.0669
46.0667
46.0666
46.0664
46.0662
46.0661
46.0659
46.0657
46.0655
46.0652
46.065
46.0647
46.0645
44.1081
44.1081
44.1081
44.1081
44.1081
44.1081
44.1081
44.1081
44.1081
44.1082
44.1082
44.1082
44.1082
44.1083
44.1083
44.1083
44.1084
44.1084
44.1084
44.1085
44.1085
44.1086
44.1086
44.1087
44.1087
44.1088
44.1088
44.1089
44.1089
44.109
44.1091
44.1091
44.1092
44.1093
44.1094
44.1094
44.1095
44.1095
44.1096
44.1096
44.1096
44.1097
44.1098
44.1098
44.1099
44.1101
44.1102
44.1104
44.1106
44.1107
44.1109
44.1111
44.1113
44.1114
44.1116
44.1117
44.1117
44.1118
44.1118
44.1117
44.1117
44.1116
44.1114
44.1112
44.111
44.1108
44.1106
44.1103
44.11
44.1097
44.1094
44.1091
44.1088
44.1085
44.1082
44.1079
44.1076
44.1073
44.107
44.1067
44.1064
44.1062
44.1059
44.1057
44.1054
44.1052
44.1051
44.1049
44.1047
44.1046
44.1044
44.1043
44.1041
44.1039
44.1037
44.1035
44.1032
44.103
44.1027
44.1024
42.1461
42.1461
42.1461
42.1461
42.1461
42.1461
42.1461
42.1461
42.1461
42.1461
42.1462
42.1462
42.1462
42.1462
42.1463
42.1463
42.1463
42.1464
42.1464
42.1465
42.1465
42.1465
42.1466
42.1466
42.1467
42.1467
42.1468
42.1468
42.1469
42.147
42.1471
42.1471
42.1472
42.1473
42.1474
42.1474
42.1475
42.1475
42.1475
42.1476
42.1476
42.1477
42.1477
42.1478
42.1479
42.148
42.1482
42.1484
42.1486
42.1488
42.149
42.1492
42.1494
42.1495
42.1497
42.1498
42.1499
42.1499
42.1499
42.1499
42.1498
42.1497
42.1495
42.1494
42.1491
42.1489
42.1486
42.1484
42.1481
42.1478
42.1474
42.1471
42.1468
42.1465
42.1462
42.1459
42.1456
42.1453
42.145
42.1447
42.1444
42.1441
42.1439
42.1436
42.1434
42.1432
42.143
42.1428
42.1427
42.1426
42.1424
42.1423
42.1421
42.1419
42.1417
42.1415
42.1413
42.141
42.1407
42.1404
40.184
40.184
40.184
40.184
40.1841
40.1841
40.1841
40.1841
40.1841
40.1841
40.1841
40.1842
40.1842
40.1842
40.1843
40.1843
40.1843
40.1844
40.1844
40.1844
40.1845
40.1845
40.1846
40.1846
40.1847
40.1847
40.1848
40.1848
40.1849
40.185
40.185
40.1851
40.1852
40.1853
40.1854
40.1854
40.1855
40.1855
40.1855
40.1856
40.1856
40.1856
40.1857
40.1858
40.1859
40.186
40.1862
40.1864
40.1866
40.1868
40.187
40.1872
40.1874
40.1876
40.1878
40.1879
40.188
40.1881
40.1881
40.188
40.188
40.1878
40.1877
40.1875
40.1873
40.187
40.1867
40.1864
40.1861
40.1858
40.1855
40.1852
40.1848
40.1845
40.1842
40.1839
40.1836
40.1833
40.183
40.1827
40.1824
40.1821
40.1818
40.1816
40.1814
40.1812
40.181
40.1808
40.1807
40.1805
40.1804
40.1803
40.1801
40.1799
40.1797
40.1795
40.1793
40.179
40.1787
40.1784
38.222
38.222
38.222
38.222
38.222
38.222
38.2221
38.2221
38.2221
38.2221
38.2221
38.2221
38.2222
38.2222
38.2222
38.2223
38.2223
38.2223
38.2224
38.2224
38.2225
38.2225
38.2226
38.2226
38.2226
38.2227
38.2227
38.2228
38.2229
38.2229
38.223
38.2231
38.2232
38.2233
38.2234
38.2234
38.2235
38.2235
38.2235
38.2235
38.2236
38.2236
38.2236
38.2237
38.2238
38.224
38.2241
38.2243
38.2246
38.2248
38.225
38.2253
38.2255
38.2257
38.2259
38.226
38.2261
38.2262
38.2262
38.2262
38.2261
38.226
38.2258
38.2256
38.2254
38.2251
38.2248
38.2245
38.2242
38.2239
38.2235
38.2232
38.2229
38.2225
38.2222
38.2219
38.2216
38.2213
38.2209
38.2206
38.2203
38.22
38.2198
38.2195
38.2193
38.2191
38.2189
38.2188
38.2186
38.2185
38.2184
38.2183
38.2181
38.218
38.2178
38.2175
38.2173
38.217
38.2167
38.2164
36.26
36.26
36.26
36.26
36.26
36.26
36.26
36.26
36.2601
36.2601
36.2601
36.2601
36.2602
36.2602
36.2602
36.2602
36.2603
36.2603
36.2604
36.2604
36.2604
36.2605
36.2605
36.2606
36.2606
36.2607
36.2607
36.2608
36.2608
36.2609
36.261
36.2611
36.2612
36.2613
36.2614
36.2614
36.2615
36.2615
36.2615
36.2615
36.2615
36.2615
36.2616
36.2617
36.2618
36.2619
36.2621
36.2623
36.2625
36.2628
36.2631
36.2633
36.2636
36.2638
36.264
36.2642
36.2643
36.2644
36.2644
36.2643
36.2643
36.2641
36.264
36.2638
36.2635
36.2632
36.2629
36.2626
36.2623
36.2619
36.2616
36.2612
36.2609
36.2605
36.2602
36.2599
36.2596
36.2592
36.2589
36.2586
36.2583
36.258
36.2577
36.2575
36.2572
36.257
36.2569
36.2567
36.2566
36.2565
36.2564
36.2563
36.2562
36.256
36.2558
36.2556
36.2553
36.255
36.2547
36.2544
34.298
34.298
34.298
34.298
34.298
34.298
34.298
34.298
34.298
34.2981
34.2981
34.2981
34.2981
34.2982
34.2982
34.2982
34.2983
34.2983
34.2983
34.2984
34.2984
34.2985
34.2985
34.2986
34.2986
34.2986
34.2987
34.2987
34.2988
34.2989
34.299
34.2991
34.2992
34.2993
34.2994
34.2994
34.2995
34.2995
34.2995
34.2995
34.2995
34.2995
34.2995
34.2996
34.2997
34.2999
34.3
34.3003
34.3005
34.3008
34.3011
34.3014
34.3017
34.3019
34.3022
34.3023
34.3025
34.3025
34.3026
34.3025
34.3024
34.3023
34.3021
34.3019
34.3016
34.3013
34.301
34.3007
34.3003
34.3
34.2996
34.2992
34.2989
34.2985
34.2982
34.2979
34.2976
34.2972
34.2969
34.2966
34.2963
34.2959
34.2957
34.2954
34.2952
34.295
34.2948
34.2947
34.2946
34.2945
34.2944
34.2943
34.2942
34.294
34.2938
34.2936
34.2934
34.293
34.2927
34.2924
32.3359
32.3359
32.336
32.336
32.336
32.336
32.336
32.336
32.336
32.336
32.3361
32.3361
32.3361
32.3361
32.3362
32.3362
32.3362
32.3363
32.3363
32.3364
32.3364
32.3365
32.3365
32.3365
32.3366
32.3366
32.3367
32.3367
32.3368
32.3369
32.337
32.3371
32.3372
32.3373
32.3374
32.3375
32.3375
32.3375
32.3375
32.3375
32.3374
32.3374
32.3375
32.3375
32.3376
32.3378
32.338
32.3382
32.3385
32.3388
32.3392
32.3395
32.3398
32.3401
32.3403
32.3405
32.3406
32.3407
32.3408
32.3407
32.3406
32.3405
32.3403
32.3401
32.3398
32.3395
32.3391
32.3388
32.3384
32.338
32.3376
32.3373
32.3369
32.3365
32.3362
32.3359
32.3356
32.3352
32.3349
32.3345
32.3342
32.3339
32.3336
32.3333
32.3331
32.3329
32.3327
32.3326
32.3325
32.3325
32.3324
32.3323
32.3322
32.3321
32.3319
32.3317
32.3314
32.3311
32.3307
32.3303
30.3739
30.3739
30.3739
30.3739
30.3739
30.374
30.374
30.374
30.374
30.374
30.374
30.3741
30.3741
30.3741
30.3741
30.3742
30.3742
30.3742
30.3743
30.3743
30.3744
30.3744
30.3745
30.3745
30.3746
30.3746
30.3746
30.3747
30.3748
30.3748
30.375
30.3751
30.3752
30.3753
30.3754
30.3755
30.3755
30.3755
30.3755
30.3754
30.3754
30.3754
30.3754
30.3754
30.3755
30.3757
30.3759
30.3762
30.3765
30.3768
30.3772
30.3775
30.3779
30.3782
30.3785
30.3787
30.3788
30.3789
30.379
30.3789
30.3788
30.3787
30.3785
30.3782
30.3779
30.3776
30.3772
30.3769
30.3765
30.3761
30.3757
30.3753
30.3749
30.3746
30.3742
30.3739
30.3735
30.3732
30.3729
30.3725
30.3722
30.3718
30.3715
30.3712
30.371
30.3708
30.3707
30.3706
30.3705
30.3705
30.3704
30.3704
30.3703
30.3701
30.37
30.3697
30.3694
30.3691
30.3687
30.3683
28.4119
28.4119
28.4119
28.4119
28.4119
28.4119
28.4119
28.412
28.412
28.412
28.412
28.412
28.4121
28.4121
28.4121
28.4121
28.4122
28.4122
28.4123
28.4123
28.4124
28.4124
28.4125
28.4125
28.4125
28.4126
28.4126
28.4126
28.4127
28.4128
28.4129
28.4131
28.4132
28.4133
28.4134
28.4135
28.4135
28.4135
28.4135
28.4134
28.4134
28.4133
28.4133
28.4133
28.4134
28.4136
28.4138
28.4141
28.4145
28.4148
28.4152
28.4156
28.416
28.4163
28.4166
28.4169
28.417
28.4171
28.4172
28.4171
28.417
28.4169
28.4167
28.4164
28.4161
28.4157
28.4154
28.415
28.4145
28.4141
28.4137
28.4133
28.4129
28.4126
28.4122
28.4119
28.4115
28.4112
28.4108
28.4105
28.4101
28.4097
28.4094
28.4091
28.4089
28.4087
28.4086
28.4085
28.4085
28.4084
28.4084
28.4084
28.4083
28.4082
28.408
28.4078
28.4075
28.4072
28.4068
28.4063
26.4499
26.4499
26.4499
26.4499
26.4499
26.4499
26.4499
26.4499
26.4499
26.45
26.45
26.45
26.45
26.4501
26.4501
26.4501
26.4502
26.4502
26.4502
26.4503
26.4503
26.4504
26.4504
26.4505
26.4505
26.4505
26.4506
26.4506
26.4507
26.4508
26.4509
26.4511
26.4512
26.4514
26.4515
26.4516
26.4516
26.4516
26.4515
26.4514
26.4513
26.4512
26.4512
26.4512
26.4513
26.4515
26.4517
26.4521
26.4524
26.4528
26.4533
26.4537
26.4541
26.4545
26.4548
26.4551
26.4553
26.4554
26.4554
26.4554
26.4553
26.4551
26.4549
26.4546
26.4543
26.4539
26.4535
26.4531
26.4526
26.4522
26.4517
26.4513
26.4509
26.4505
26.4502
26.4499
26.4495
26.4492
26.4488
26.4484
26.448
26.4477
26.4473
26.447
26.4468