/*--------------------------------*- C++ -*----------------------------------*\
| =========                 |                                                 |
| \\      /  F ield         | OpenFOAM: The Open Source CFD Toolbox           |
|  \\    /   O peration     | Version:  2.4.0                                 |
|   \\  /    A nd           | Web:      www.OpenFOAM.org                      |
|    \\/     M anipulation  |                                                 |
\*---------------------------------------------------------------------------*/
FoamFile
{
    version     2.0;
    format      ascii;
    class       surfaceScalarField;
    location    "0.117";
    object      phiAlpha;
}
// * * * * * * * * * * * * * * * * * * * * * * * * * * * * * * * * * * * * * //

dimensions      [0 3 -1 0 0 0 0];

internalField   nonuniform List<scalar> 
7080
(
-2.22608e-08
2.22608e-08
-1.92352e-08
-3.02552e-09
1.28457e-10
-1.93637e-08
2.4442e-08
-2.43136e-08
5.55296e-08
-3.10875e-08
8.59822e-08
-3.04526e-08
1.14283e-07
-2.83009e-08
1.39161e-07
-2.48775e-08
1.56323e-07
-1.71623e-08
1.617e-07
-5.3775e-09
1.5651e-07
5.19062e-09
1.32384e-07
2.41254e-08
1.16134e-07
1.62507e-08
5.45532e-08
6.15805e-08
2.52229e-08
2.93303e-08
-1.72191e-08
4.2442e-08
-6.67791e-08
4.956e-08
-9.65549e-08
2.99573e-08
-1.0773e-07
1.17188e-08
-1.41599e-07
3.35432e-08
-2.03017e-07
6.10461e-08
-1.94723e-07
-8.46097e-09
-1.35447e-07
-5.9372e-08
-8.66826e-08
-4.88428e-08
-2.98631e-08
-5.6886e-08
-6.13275e-10
-2.93016e-08
-1.97203e-08
1.90941e-08
-3.34331e-08
1.37996e-08
2.23003e-08
-5.50152e-08
2.51858e-08
-2.96518e-09
-3.95958e-08
6.18566e-08
-4.42165e-08
1.59513e-09
-2.45478e-08
-3.90324e-08
4.0137e-09
-5.28751e-08
4.22436e-08
-6.93174e-08
8.32408e-08
-7.14498e-08
1.23869e-07
-6.89293e-08
1.62763e-07
-6.37716e-08
1.9265e-07
-4.70485e-08
2.15409e-07
-2.8137e-08
2.17482e-07
3.11721e-09
2.07238e-07
3.437e-08
2.10857e-07
1.26319e-08
1.39106e-07
1.33331e-07
1.25103e-07
4.33328e-08
9.32521e-08
7.42931e-08
1.60538e-08
1.26758e-07
-4.52763e-08
9.13133e-08
-1.37323e-07
1.04544e-07
-2.07229e-07
1.02792e-07
-2.53336e-07
1.07153e-07
-2.76943e-07
1.5132e-08
-2.5944e-07
-7.68749e-08
-1.94939e-07
-1.13368e-07
-1.33239e-07
-1.18586e-07
-8.59382e-08
-7.66022e-08
-5.88121e-08
-8.01387e-09
-4.72473e-08
3.17968e-09
-3.56786e-08
-6.66423e-08
-1.08913e-08
3.45058e-10
-4.38658e-08
1.05722e-07
-5.08917e-08
8.62107e-09
-3.23268e-08
-5.75972e-08
-4.50104e-09
-8.07009e-08
3.42762e-08
-1.08095e-07
7.61346e-08
-1.13308e-07
1.18208e-07
-1.11002e-07
1.59119e-07
-1.04683e-07
1.91098e-07
-7.90278e-08
2.1765e-07
-5.46886e-08
2.18924e-07
1.84315e-09
2.18869e-07
3.44244e-08
2.23209e-07
8.2927e-09
1.63088e-07
1.93452e-07
1.62249e-07
4.41723e-08
1.40111e-07
9.64303e-08
6.45469e-08
2.02323e-07
6.0336e-09
1.49827e-07
-8.5027e-08
1.9601e-07
-1.8294e-07
2.00025e-07
-2.56131e-07
1.80345e-07
-3.18089e-07
7.70907e-08
-3.38131e-07
-5.6833e-08
-2.97798e-07
-1.537e-07
-2.5123e-07
-1.65154e-07
-1.89838e-07
-1.37993e-07
-1.15312e-07
-8.06602e-08
-6.2215e-08
-5.00071e-08
-4.50149e-08
-8.39017e-08
-5.28248e-08
-3.13416e-09
-4.49999e-08
1.50722e-07
-5.2521e-08
1.61422e-08
-3.41151e-08
-7.60032e-08
-6.51091e-09
-1.08305e-07
3.24153e-08
-1.47021e-07
7.4396e-08
-1.55289e-07
1.16766e-07
-1.53372e-07
1.58244e-07
-1.46161e-07
1.90733e-07
-1.11517e-07
2.18868e-07
-8.28241e-08
2.15511e-07
5.20059e-09
2.274e-07
2.2535e-08
2.1437e-07
2.13231e-08
1.7324e-07
2.34582e-07
1.91148e-07
2.62644e-08
1.62394e-07
1.25184e-07
9.09102e-08
2.73807e-07
5.31424e-08
1.87594e-07
-1.04698e-08
2.59658e-07
-1.36818e-07
3.2568e-07
-2.2335e-07
2.66877e-07
-2.9835e-07
1.52078e-07
-3.36362e-07
-1.88387e-08
-3.36845e-07
-1.53226e-07
-3.00878e-07
-2.01118e-07
-2.35253e-07
-2.03618e-07
-1.50115e-07
-1.65557e-07
-7.71564e-08
-1.23221e-07
-4.72466e-08
-1.15389e-07
-1.01482e-07
-9.70378e-11
-4.56031e-08
1.96325e-07
-5.32432e-08
2.37823e-08
-3.4723e-08
-9.45234e-08
-7.16773e-09
-1.3586e-07
3.1942e-08
-1.86131e-07
7.39754e-08
-1.97322e-07
1.16557e-07
-1.95954e-07
1.58548e-07
-1.88152e-07
1.91605e-07
-1.44574e-07
2.20883e-07
-1.12102e-07
2.13998e-07
1.20851e-08
2.34982e-07
1.55145e-09
1.92505e-07
6.37999e-08
1.75921e-07
2.51166e-07
2.07022e-07
-4.83676e-09
1.58804e-07
1.73402e-07
1.07101e-07
3.2551e-07
8.18757e-08
2.12819e-07
6.29791e-08
2.78555e-07
-2.31063e-08
4.1109e-07
-1.18046e-07
3.61754e-07
-1.86281e-07
2.20404e-07
-2.41959e-07
3.68311e-08
-2.72424e-07
-1.22813e-07
-2.70753e-07
-2.02886e-07
-2.39913e-07
-2.34457e-07
-1.86282e-07
-2.19187e-07
-1.18354e-07
-1.91149e-07
-5.71645e-08
-1.76577e-07
-1.59644e-07
9.98833e-10
-4.6214e-08
2.42539e-07
-5.3926e-08
3.14944e-08
-3.52162e-08
-1.13233e-07
-7.70126e-09
-1.63375e-07
3.16054e-08
-2.25437e-07
7.36649e-08
-2.39382e-07
1.16456e-07
-2.38746e-07
1.59025e-07
-2.3072e-07
1.92959e-07
-1.78508e-07
2.22661e-07
-1.41804e-07
2.16425e-07
1.83214e-08
2.40542e-07
-2.25652e-08
1.74297e-07
1.30045e-07
1.75562e-07
2.499e-07
1.8945e-07
-1.87248e-08
1.34516e-07
2.28337e-07
1.19703e-07
3.40323e-07
9.54663e-08
2.37056e-07
1.03381e-07
2.7064e-07
7.96125e-08
4.35626e-07
1.92756e-08
4.22211e-07
-2.59147e-08
2.65615e-07
-6.3321e-08
7.42822e-08
-9.8139e-08
-8.79371e-08
-1.11443e-07
-1.89744e-07
-1.20807e-07
-2.25103e-07
-1.1497e-07
-2.25022e-07
-7.94182e-08
-2.26697e-07
-3.63706e-08
-2.19619e-07
-1.96665e-07
6.69332e-10
-4.69341e-08
2.89473e-07
-5.47237e-08
3.9284e-08
-3.57771e-08
-1.3218e-07
-8.31481e-09
-1.90838e-07
3.1204e-08
-2.64956e-07
7.3288e-08
-2.81466e-07
1.16312e-07
-2.81769e-07
1.5956e-07
-2.73968e-07
1.94749e-07
-2.13698e-07
2.23883e-07
-1.70937e-07
2.23552e-07
1.86518e-08
2.46011e-07
-4.50236e-08
1.74471e-07
2.01585e-07
1.80117e-07
2.44254e-07
1.55891e-07
5.50206e-09
1.11964e-07
2.72263e-07
1.35227e-07
3.1706e-07
1.10504e-07
2.6178e-07
1.30907e-07
2.50236e-07
1.59197e-07
4.08114e-07
1.27513e-07
4.54192e-07
7.92956e-08
3.13853e-07
4.81784e-08
1.05165e-07
2.43293e-08
-6.37928e-08
3.0013e-08
-1.95317e-07
4.05427e-08
-2.35628e-07
2.91157e-08
-2.13614e-07
1.46848e-08
-2.12293e-07
8.40158e-09
-2.13337e-07
-1.91829e-07
3.56415e-09
-4.77827e-08
3.37256e-07
-5.56621e-08
4.71633e-08
-3.6432e-08
-1.5141e-07
-9.03663e-09
-2.18233e-07
3.07308e-08
-3.04724e-07
7.28237e-08
-3.23559e-07
1.16096e-07
-3.25041e-07
1.60166e-07
-3.18038e-07
1.96874e-07
-2.50406e-07
2.24522e-07
-1.98585e-07
2.35331e-07
7.84319e-09
2.44998e-07
-5.46905e-08
1.98352e-07
2.4823e-07
1.96919e-07
2.45687e-07
1.47571e-07
5.48501e-08
9.36223e-08
3.26212e-07
1.19653e-07
2.9103e-07
8.37906e-08
2.97642e-07
1.1248e-07
2.21547e-07
1.98299e-07
3.22296e-07
2.26557e-07
4.24867e-07
2.0183e-07
3.37098e-07
1.45287e-07
1.60977e-07
9.74629e-08
-1.59745e-08
8.2049e-08
-1.78787e-07
8.90683e-08
-2.4248e-07
8.64894e-08
-2.11035e-07
7.18728e-08
-1.97676e-07
4.21206e-08
-1.83626e-07
-1.55187e-07
5.47759e-09
-4.87651e-08
3.86021e-07
-5.67466e-08
5.51449e-08
-3.71843e-08
-1.70972e-07
-9.87024e-09
-2.45547e-07
3.01805e-08
-3.44774e-07
7.22627e-08
-3.65641e-07
1.1578e-07
-3.68558e-07
1.60875e-07
-3.63134e-07
1.98998e-07
-2.8853e-07
2.26112e-07
-2.25699e-07
2.4597e-07
-1.20147e-08
2.32274e-07
-4.09945e-08
2.24949e-07
2.55555e-07
2.04931e-07
2.65705e-07
1.46271e-07
1.1351e-07
8.04562e-08
3.92027e-07
8.99898e-08
2.81496e-07
7.95888e-08
3.08043e-07
9.34002e-08
2.07736e-07
2.04239e-07
2.11457e-07
2.85008e-07
3.43074e-07
2.67395e-07
3.54696e-07
2.21172e-07
2.07193e-07
1.91229e-07
1.39668e-08
1.82045e-07
-1.69337e-07
1.47015e-07
-2.06861e-07
8.66913e-08
-1.50712e-07
5.07611e-08
-1.61746e-07
3.06768e-08
-1.63541e-07
-1.28919e-07
4.37145e-09
-4.98843e-08
4.35906e-07
-5.79796e-08
6.32402e-08
-3.8034e-08
-1.90918e-07
-1.08162e-08
-2.72765e-07
2.95491e-08
-3.85139e-07
7.15958e-08
-4.07688e-07
1.15356e-07
-4.12318e-07
1.61695e-07
-4.09473e-07
2.00996e-07
-3.27831e-07
2.29965e-07
-2.54669e-07
2.49847e-07
-3.18966e-08
2.29076e-07
-2.02227e-08
2.40729e-07
2.43902e-07
2.00464e-07
3.05969e-07
1.47879e-07
1.66095e-07
9.52196e-08
4.44687e-07
9.7835e-08
2.78881e-07
1.36651e-07
2.69227e-07
1.10563e-07
2.33823e-07
1.61045e-07
1.60975e-07
2.76853e-07
2.27266e-07
3.11895e-07
3.19454e-07
2.87494e-07
2.31588e-07
2.42959e-07
5.84993e-08
2.10232e-07
-1.35819e-07
1.74624e-07
-1.71207e-07
1.04809e-07
-8.08959e-08
3.35309e-08
-9.04678e-08
1.51931e-09
-1.31529e-07
-1.3014e-07
2.73962e-09
-5.11437e-08
4.87049e-07
-5.93635e-08
7.14601e-08
-3.89814e-08
-2.113e-07
-1.18741e-08
-2.99872e-07
2.88278e-08
-4.25841e-07
7.08089e-08
-4.49669e-07
1.14875e-07
-4.56384e-07
1.626e-07
-4.57199e-07
2.03236e-07
-3.68467e-07
2.34332e-07
-2.85765e-07
2.5216e-07
-4.97241e-08
2.42702e-07
-1.07651e-08
2.48684e-07
2.3792e-07
1.97559e-07
3.57094e-07
1.47796e-07
2.15858e-07
1.37318e-07
4.55165e-07
1.32775e-07
2.83424e-07
1.60687e-07
2.41315e-07
1.46967e-07
2.47543e-07
1.63496e-07
1.44446e-07
2.62828e-07
1.27935e-07
3.11178e-07
2.709e-07
3.07753e-07
2.35235e-07
2.96403e-07
7.06457e-08
2.22367e-07
-6.14127e-08
1.04468e-07
-5.33078e-08
6.24037e-08
-3.88312e-08
5.45793e-08
-8.26442e-08
2.22691e-08
-9.92165e-08
-1.08973e-07
1.10212e-09
-5.25467e-08
5.39596e-07
-6.09009e-08
7.98143e-08
-4.00266e-08
-2.32174e-07
-1.30445e-08
-3.26854e-07
2.8022e-08
-4.66908e-07
6.98942e-08
-4.91541e-07
1.14349e-07
-5.00838e-07
1.63597e-07
-5.06447e-07
2.0584e-07
-4.10709e-07
2.37749e-07
-3.17674e-07
2.5906e-07
-7.10357e-08
2.59516e-07
-1.1221e-08
2.4203e-07
2.55406e-07
1.97611e-07
4.01513e-07
1.60631e-07
2.52838e-07
1.63239e-07
4.52556e-07
1.47943e-07
2.98721e-07
1.61965e-07
2.27293e-07
1.85082e-07
2.24427e-07
1.7574e-07
1.53788e-07
2.01613e-07
1.02062e-07
2.5233e-07
2.20184e-07
2.61202e-07
2.26585e-07
2.47197e-07
8.48374e-08
1.91376e-07
-5.58335e-09
1.40778e-07
-2.70934e-09
1.36182e-07
-3.42352e-08
8.77023e-08
-3.41647e-08
2.69342e-08
-3.84387e-08
-7.14535e-08
-1.057e-08
-5.40973e-08
5.93693e-07
-6.25943e-08
8.83114e-08
-4.11701e-08
-2.53599e-07
-1.43273e-08
-3.53697e-07
2.71307e-08
-5.08366e-07
6.88417e-08
-5.33252e-07
1.13779e-07
-5.45776e-07
1.64734e-07
-5.57401e-07
2.08477e-07
-4.54453e-07
2.41123e-07
-3.5032e-07
2.70561e-07
-1.00474e-07
2.6475e-07
-5.41011e-09
2.39902e-07
2.80255e-07
2.06599e-07
4.34817e-07
1.52861e-07
3.06576e-07
1.74807e-07
4.3061e-07
1.58845e-07
3.14682e-07
1.38861e-07
2.47277e-07
1.67055e-07
1.96232e-07
1.54561e-07
1.66282e-07
1.56076e-07
1.00546e-07
1.94616e-07
1.81644e-07
2.36442e-07
1.8476e-07
2.54951e-07
6.63287e-08
2.39181e-07
1.01866e-08
2.1687e-07
1.96016e-08
1.28829e-07
5.38056e-08
1.30309e-09
9.33336e-08
-2.26772e-08
-1.44637e-08
-9.58938e-08
1.79897e-09
-5.57999e-08
6.49493e-07
-6.4447e-08
9.69585e-08
-4.24121e-08
-2.75633e-07
-1.57217e-08
-3.80387e-07
2.61492e-08
-5.50237e-07
6.76444e-08
-5.74747e-07
1.13158e-07
-5.9129e-07
1.66032e-07
-6.10275e-07
2.10848e-07
-4.99269e-07
2.46492e-07
-3.85964e-07
2.79636e-07
-1.33618e-07
2.67083e-07
7.14252e-09
2.44227e-07
3.03111e-07
2.16946e-07
4.62098e-07
1.64865e-07
3.58656e-07
1.7049e-07
4.24985e-07
1.51529e-07
3.33644e-07
1.25948e-07
2.72857e-07
1.61201e-07
1.6098e-07
1.94242e-07
1.3324e-07
2.01527e-07
9.32621e-08
2.16249e-07
1.66921e-07
2.03988e-07
1.97021e-07
1.17285e-07
1.53032e-07
1.30335e-09
1.26168e-07
-6.06301e-08
8.15355e-08
-9.27651e-08
8.59505e-08
-7.26849e-08
7.32437e-08
-2.77403e-08
-5.94197e-08
-1.22529e-07
-1.10983e-09
-5.76594e-08
7.07152e-07
-6.6462e-08
1.05761e-07
-4.37535e-08
-2.98342e-07
-1.72269e-08
-4.06914e-07
2.50759e-08
-5.9254e-07
6.6297e-08
-6.15969e-07
1.12482e-07
-6.37475e-07
1.67441e-07
-6.65234e-07
2.13192e-07
-5.4502e-07
2.53301e-07
-4.26073e-07
2.85424e-07
-1.6574e-07
2.7305e-07
1.95166e-08
2.68424e-07
3.07736e-07
2.29104e-07
5.01418e-07
1.65337e-07
4.22424e-07
1.49422e-07
4.409e-07
1.28946e-07
3.5412e-07
9.60111e-08
3.05792e-07
6.82287e-08
1.88762e-07
2.94512e-08
1.72018e-07
1.14614e-08
1.11252e-07
3.54489e-08
1.42933e-07
5.92058e-08
1.73264e-07
4.44889e-08
1.67749e-07
5.2376e-09
1.65419e-07
-2.2377e-08
1.09151e-07
-2.24566e-08
8.60537e-08
1.1827e-08
3.89758e-08
1.9319e-08
-6.69117e-08
-9.63338e-08
-6.8931e-09
-5.96811e-08
7.66834e-07
-6.8643e-08
1.14723e-07
-4.51949e-08
-3.2179e-07
-1.88419e-08
-4.33267e-07
2.39092e-08
-6.35291e-07
6.47975e-08
-6.56857e-07
1.11745e-07
-6.84423e-07
1.68874e-07
-7.22363e-07
2.15983e-07
-5.92128e-07
2.59488e-07
-4.69578e-07
2.87592e-07
-1.93844e-07
2.99945e-07
7.16289e-09
2.94338e-07
3.13344e-07
2.17732e-07
5.78023e-07
1.35506e-07
5.0465e-07
1.16464e-07
4.59942e-07
8.66431e-08
3.83941e-07
8.33278e-08
3.09107e-07
9.97901e-08
1.723e-07
1.18632e-07
1.53176e-07
1.23458e-07
1.06427e-07
1.38887e-07
1.27505e-07
2.04099e-07
1.08051e-07
2.59147e-07
1.12701e-07
2.91431e-07
1.33135e-07
2.8063e-07
1.19952e-07
2.38546e-07
1.28138e-07
2.02919e-07
7.4603e-08
1.22306e-07
1.37016e-08
2.88217e-08
-2.88812e-09
-6.1871e-08
8.28705e-07
-7.09936e-08
1.23846e-07
-4.67374e-08
-3.46046e-07
-2.05655e-08
-4.59439e-07
2.26463e-08
-6.78502e-07
6.31481e-08
-6.97359e-07
1.10938e-07
-7.32213e-07
1.70293e-07
-7.81718e-07
2.19525e-07
-6.4136e-07
2.60849e-07
-5.10902e-07
3.01864e-07
-2.34859e-07
3.2895e-07
-1.99227e-08
2.78076e-07
3.64218e-07
1.78101e-07
6.77998e-07
9.18402e-08
5.90911e-07
2.62707e-08
5.25511e-07
7.23437e-08
3.37868e-07
1.3358e-07
2.47871e-07
1.54427e-07
1.51452e-07
1.72698e-07
1.34905e-07
1.37151e-07
1.41973e-07
7.7341e-08
1.87315e-07
1.11946e-07
7.34462e-08
1.79671e-07
4.49765e-08
2.48179e-07
6.46269e-08
2.56933e-07
1.11198e-07
2.36511e-07
1.4856e-07
1.96529e-07
1.14585e-07
9.82519e-08
1.11979e-07
1.31959e-07
-4.9181e-09
-6.42354e-08
8.9294e-07
-7.35178e-08
1.33128e-07
-4.83818e-08
-3.71182e-07
-2.23959e-08
-4.85425e-07
2.12833e-08
-7.22182e-07
6.13542e-08
-7.3743e-07
1.10037e-07
-7.80895e-07
1.71869e-07
-8.4355e-07
2.22233e-07
-6.91724e-07
2.61267e-07
-5.49935e-07
3.20255e-07
-2.93848e-07
3.30313e-07
-2.998e-08
2.50682e-07
4.43848e-07
1.63609e-07
7.65071e-07
1.00519e-07
6.54001e-07
1.4688e-07
4.7915e-07
1.97153e-07
2.87595e-07
1.51616e-07
2.93408e-07
1.10885e-07
1.92184e-07
1.00716e-07
1.45073e-07
1.1936e-07
1.2333e-07
1.35724e-08
2.93102e-07
-1.00256e-07
1.87274e-07
-9.21097e-08
3.68305e-08
-1.2543e-08
-1.49394e-08
4.99014e-08
4.87528e-08
5.64097e-08
1.42043e-07
3.11397e-08
1.39836e-07
4.5438e-09
1.38558e-07
1.36658e-07
-1.59083e-10
-6.67812e-08
9.59721e-07
-7.62195e-08
1.42566e-07
-5.01337e-08
-3.97268e-07
-2.43309e-08
-5.11227e-07
1.98157e-08
-7.66328e-07
5.94213e-08
-7.77035e-07
1.09028e-07
-8.30502e-07
1.73679e-07
-9.08202e-07
2.22309e-07
-7.40354e-07
2.62404e-07
-5.9003e-07
3.21182e-07
-3.52626e-07
3.24549e-07
-3.33466e-08
2.60366e-07
5.08031e-07
2.01266e-07
8.24171e-07
1.20747e-07
7.3452e-07
9.52707e-08
5.04627e-07
2.44137e-08
3.58453e-07
-8.75435e-08
4.05365e-07
1.96183e-08
8.5022e-08
1.26509e-07
3.81823e-08
2.11527e-07
3.83121e-08
2.20952e-07
2.83677e-07
5.51147e-08
3.53112e-07
-1.23694e-07
2.15639e-07
-1.81693e-07
4.30767e-08
-1.21785e-07
-1.11615e-08
-8.9792e-08
1.10045e-07
-8.61776e-08
1.36217e-07
-5.18132e-08
1.04213e-07
8.45126e-08
3.68675e-10
-6.9516e-08
1.02924e-06
-7.91029e-08
1.52153e-07
-5.19969e-08
-4.24374e-07
-2.63677e-08
-5.36857e-07
1.82387e-08
-8.10935e-07
5.73498e-08
-8.16146e-07
1.07939e-07
-8.81091e-07
1.75147e-07
-9.7541e-07
2.16669e-07
-7.81876e-07
2.52112e-07
-6.25474e-07
3.06854e-07
-4.07368e-07
3.37781e-07
-6.42742e-08
2.93145e-07
5.52666e-07
2.11258e-07
9.06058e-07
7.2338e-08
8.7344e-07
-8.20479e-10
5.77785e-07
-6.81651e-09
3.64449e-07
4.31057e-08
3.55443e-07
2.61454e-08
1.01982e-07
7.81443e-08
-1.38165e-08
1.66895e-07
-5.04386e-08
2.25543e-07
2.2503e-07
2.41618e-07
3.37037e-07
8.5784e-08
3.71473e-07
-3.21328e-08
1.60995e-07
-9.44309e-08
5.11455e-08
-1.05221e-07
1.2083e-07
-9.71408e-08
1.28143e-07
-5.5747e-08
6.28196e-08
3.19395e-08
-3.17349e-09
-7.24492e-08
1.10169e-06
-8.21725e-08
1.61877e-07
-5.39697e-08
-4.52577e-07
-2.85034e-08
-5.62323e-07
1.65462e-08
-8.55984e-07
5.5127e-08
-8.54727e-07
1.06825e-07
-9.32789e-07
1.73054e-07
-1.04164e-06
1.9608e-07
-8.04902e-07
2.21263e-07
-6.50656e-07
3.04715e-07
-4.90824e-07
3.5252e-07
-1.07908e-07
4.2838e-07
4.12817e-07
3.65282e-07
9.57318e-07
1.27973e-07
1.11075e-06
5.70847e-08
6.48673e-07
2.05746e-07
2.15788e-07
1.10892e-07
4.50297e-07
-1.70038e-07
3.82569e-07
-9.07284e-10
-1.82948e-07
1.78122e-07
-2.29107e-07
1.34436e-07
2.68789e-07
2.19781e-07
2.51692e-07
1.80279e-07
4.10975e-07
1.00955e-07
2.40319e-07
-1.01308e-08
1.62233e-07
-5.79987e-08
1.687e-07
-4.79315e-08
1.18078e-07
-2.70944e-08
4.19826e-08
9.35977e-09
-4.51495e-09
-7.55752e-08
1.17726e-06
-8.54329e-08
1.71734e-07
-5.60495e-08
-4.8196e-07
-3.0735e-08
-5.87637e-07
1.47284e-08
-9.01448e-07
5.27117e-08
-8.9271e-07
1.05065e-07
-9.85142e-07
1.56694e-07
-1.09327e-06
1.47444e-07
-7.95653e-07
2.05394e-07
-7.08588e-07
2.14778e-07
-3.94466e-07
-1.10247e-07
6.34614e-08
-3.39891e-07
4.13234e-07
-7.10044e-08
5.91531e-07
9.26731e-08
9.29893e-07
-9.86657e-08
8.27577e-07
-9.88142e-09
1.23816e-07
5.16574e-08
3.86401e-07
-7.21978e-08
5.06322e-07
-2.66839e-08
-2.26184e-07
6.69856e-08
-3.22587e-07
2.45055e-08
3.11455e-07
6.80321e-08
2.08166e-07
1.402e-07
3.38806e-07
7.7531e-08
3.02989e-07
7.21469e-09
2.3255e-07
-4.06663e-09
1.79995e-07
1.26336e-08
1.01378e-07
1.10939e-08
4.35222e-08
2.28402e-08
-2.38647e-09
-7.90304e-08
1.25629e-06
-8.88894e-08
1.81593e-07
-5.82339e-08
-5.12616e-07
-3.30593e-08
-6.12812e-07
1.27555e-08
-9.47262e-07
4.99445e-08
-9.29899e-07
9.77931e-08
-1.03299e-06
1.04383e-07
-1.09986e-06
8.07693e-08
-7.72037e-07
2.43351e-07
-6.24654e-07
2.94439e-08
-5.61076e-08
-4.11377e-07
1.29256e-07
-7.92793e-07
3.92063e-07
-5.00035e-07
1.37581e-07
-2.28245e-07
6.40597e-07
-2.57524e-07
8.60894e-07
-2.32756e-07
9.42568e-08
-7.94246e-08
2.31461e-07
-1.25602e-07
5.52395e-07
-9.2308e-08
-2.59502e-07
1.01684e-07
-5.16577e-07
2.80891e-08
3.85261e-07
-7.05728e-08
3.06828e-07
-4.4481e-08
3.12715e-07
-4.99052e-08
3.08413e-07
-3.79016e-08
2.20546e-07
-8.25945e-10
1.42919e-07
3.3098e-08
6.74537e-08
2.41864e-08
5.24338e-08
5.10137e-08
-3.98704e-09
-8.19043e-08
1.3382e-06
-9.25499e-08
1.92239e-07
-6.05206e-08
-5.44645e-07
-3.5476e-08
-6.37857e-07
1.04858e-08
-9.93224e-07
4.58849e-08
-9.65299e-07
6.74905e-08
-1.0546e-06
-1.74335e-09
-1.03062e-06
1.39853e-07
-8.08259e-07
4.05455e-08
-1.51157e-07
3.72581e-09
-7.78757e-10
-8.54553e-08
-3.05199e-08
-3.68978e-07
6.17535e-08
-5.41811e-07
2.95593e-08
-2.8242e-07
3.27474e-07
-2.31759e-07
8.14361e-07
-3.25535e-07
1.88035e-07
-1.71053e-07
7.67325e-08
6.13134e-09
3.73791e-07
3.74943e-09
-2.57124e-07
1.01401e-07
-6.10027e-07
-6.06746e-09
4.9145e-07
-1.98326e-07
4.98998e-07
-1.96547e-07
3.10935e-07
-1.55948e-07
2.67814e-07
-1.1506e-07
1.79658e-07
-4.77289e-08
7.55874e-08
1.10748e-09
1.86173e-08
8.23054e-09
4.53108e-08
6.48517e-08
-5.60791e-09
-8.96718e-08
1.42787e-06
-9.64154e-08
1.98983e-07
-6.29147e-08
-5.78146e-07
-3.80135e-08
-6.62758e-07
7.23524e-09
-1.03847e-06
3.57008e-08
-9.93764e-07
-1.82359e-08
-1.00066e-06
-7.65209e-08
-9.7441e-07
1.33187e-07
-4.65886e-07
1.31256e-09
-2.08882e-08
-7.0852e-10
-6.96007e-11
-3.14486e-08
-1.96144e-09
-3.81028e-07
6.56785e-09
-5.47408e-07
-2.23981e-07
-3.7799e-07
6.69798e-08
-2.71355e-07
7.0773e-07
-3.86313e-07
3.0298e-07
-3.27975e-07
2.01964e-08
-3.37172e-08
7.89976e-08
8.12452e-08
-3.72403e-07
7.77811e-08
-6.06689e-07
8.93191e-09
5.56145e-07
-1.59463e-07
6.67171e-07
-2.124e-07
3.6381e-07
-2.11859e-07
2.67273e-07
-1.65e-07
1.32803e-07
-9.2505e-08
3.11163e-09
-4.39903e-08
-2.99054e-08
-1.54625e-08
1.67742e-08
4.99569e-08
-5.73564e-10
-7.60741e-08
1.50394e-06
-1.00497e-07
2.23405e-07
-6.5378e-08
-6.13265e-07
-4.08855e-08
-6.8725e-07
-1.59017e-10
-1.0792e-06
6.37512e-09
-1.0003e-06
-1.02776e-07
-8.91508e-07
3.40081e-07
-9.79007e-07
2.08514e-08
-9.3677e-08
6.76038e-10
-4.77229e-10
3.24422e-10
1.75134e-10
-2.74473e-09
3.97523e-10
-1.42328e-07
-3.44271e-09
-5.32644e-07
-2.36205e-07
-4.9006e-07
-2.27853e-07
-3.66303e-07
5.8396e-07
-4.41204e-07
3.77866e-07
-4.34232e-07
1.32135e-08
-2.37945e-07
-1.1701e-07
-9.91176e-08
-5.1006e-07
-5.35172e-08
-6.52416e-07
-9.30533e-09
5.1182e-07
-1.15103e-07
7.73045e-07
-1.95105e-07
4.43755e-07
-2.19043e-07
2.91211e-07
-1.62816e-07
7.65836e-08
-1.11592e-07
-4.8068e-08
-7.55562e-08
-6.59415e-08
-3.51864e-08
-2.36004e-08
1.43287e-08
4.33661e-10
-1.40874e-07
1.64482e-06
-1.03911e-07
1.86442e-07
-6.81839e-08
-6.48992e-07
-4.52801e-08
-7.10154e-07
-1.73704e-08
-1.10711e-06
-7.87342e-08
-9.38934e-07
1.59665e-09
-1.0108e-06
7.84018e-08
-3.38815e-07
5.6939e-10
-1.55945e-08
5.37482e-11
-7.24455e-11
1.19512e-10
8.68659e-11
3.04124e-10
9.55058e-11
-1.79827e-08
-3.05212e-09
-2.89052e-07
-9.82167e-08
-7.49668e-07
-2.54908e-07
-4.83228e-07
3.17502e-07
-4.53216e-07
3.4784e-07
-4.82089e-07
4.20725e-08
-3.94001e-07
-2.05112e-07
-3.20683e-07
-5.80918e-07
-2.41315e-07
-7.3191e-07
-1.41146e-07
4.10425e-07
-2.11072e-07
8.42978e-07
-2.09867e-07
4.42558e-07
-1.90198e-07
2.71542e-07
-1.34298e-07
2.06847e-08
-1.06219e-07
-7.61044e-08
-8.08972e-08
-9.12644e-08
-4.39636e-08
-6.05369e-08
-2.85937e-08
-1.04111e-09
7.77183e-09
1.63704e-06
-1.10271e-07
3.04485e-07
-7.11268e-08
-6.88136e-07
-5.65754e-08
-7.24706e-07
-6.67221e-08
-1.09696e-06
-1.98762e-07
-8.06868e-07
2.78592e-07
-6.41417e-07
1.55492e-08
-6.93748e-09
9.38634e-11
-1.30719e-10
1.49895e-11
-1.37266e-12
7.15528e-11
2.68062e-11
-9.89495e-10
1.11565e-09
-2.2003e-09
2.80429e-10
-9.22703e-08
-7.25099e-09
-6.04024e-07
-6.84797e-08
-5.71293e-07
-4.08345e-08
-4.67274e-07
2.43811e-07
-4.79567e-07
5.43536e-08
-4.55499e-07
-2.29198e-07
-4.36966e-07
-5.98682e-07
-4.26418e-07
-7.35601e-07
-3.09607e-07
2.90497e-07
-3.07992e-07
8.32986e-07
-2.15031e-07
3.49596e-07
-1.47132e-07
2.03641e-07
-1.09269e-07
-1.71783e-08
-9.39198e-08
-9.1419e-08
-7.10248e-08
-1.1416e-07
-3.88123e-08
-9.27823e-08
-7.08866e-08
3.47324e-09
-2.43551e-07
1.8806e-06
-9.40899e-08
1.55024e-07
-7.84945e-08
-7.03732e-07
-9.3399e-08
-7.09801e-07
-1.76346e-07
-1.0139e-06
2.06804e-08
-8.80574e-07
5.89446e-09
-7.17508e-08
1.02268e-10
-1.14122e-09
1.38593e-12
-2.97225e-11
1.69254e-13
-1.3871e-13
2.26213e-11
4.3276e-12
6.06602e-11
1.25467e-09
-3.81362e-10
4.94872e-10
-7.35495e-09
-3.34363e-10
-7.27139e-08
-3.77286e-09
-4.94292e-07
-3.4323e-08
-5.33355e-07
5.89758e-08
-4.2279e-07
-5.62305e-08
-4.47404e-07
-2.04592e-07
-5.32409e-07
-5.13806e-07
-5.67493e-07
-6.98889e-07
-4.00843e-07
1.22963e-07
-3.47898e-07
7.73413e-07
-2.09224e-07
2.07633e-07
-1.07092e-07
1.01509e-07
-9.30759e-08
-3.11939e-08
-5.98993e-08
-1.24562e-07
-4.77982e-08
-1.26264e-07
-2.6641e-08
-1.13945e-07
-1.05647e-07
8.10862e-09
1.05465e-08
1.87005e-06
-1.14591e-07
2.80161e-07
-1.02064e-07
-7.16259e-07
-2.11551e-07
-6.00313e-07
-2.26932e-07
-8.92988e-07
7.77283e-08
-2.84005e-07
8.08535e-10
-4.85611e-09
2.55455e-11
-3.63463e-10
1.01656e-13
-4.44292e-12
2.71717e-14
-3.8782e-14
3.52948e-12
5.51912e-13
1.33379e-10
5.06147e-10
-1.35926e-11
-7.63186e-11
-3.41753e-10
-1.69018e-11
-3.82384e-09
-3.20092e-10
-6.5747e-08
-9.57462e-10
-3.84054e-07
-2.22504e-08
-4.84175e-07
-1.03421e-07
-4.69481e-07
-2.34826e-07
-5.93417e-07
-3.90019e-07
-6.75327e-07
-6.12881e-07
-4.69359e-07
-8.38905e-08
-4.3654e-07
7.39967e-07
-2.25172e-07
-4.98519e-09
-6.71269e-08
-5.65373e-08
-6.75448e-08
-3.07729e-08
-1.79435e-08
-1.74195e-07
-1.47139e-08
-1.29541e-07
-9.56851e-09
-1.1909e-07
1.08968e-08
-1.26101e-07
-3.40825e-08
3.09673e-08
2.43916e-08
-5.782e-08
1.5204e-08
9.2448e-09
-2.6591e-09
1.7857e-08
2.97068e-08
-3.24236e-08
8.80047e-08
-5.83727e-08
1.36236e-07
-4.8315e-08
1.94447e-07
-5.83153e-08
2.03036e-07
-8.748e-09
1.43139e-07
5.95452e-08
1.0995e-07
3.28731e-08
9.76576e-08
1.28254e-08
6.71227e-08
3.07201e-08
1.67227e-08
5.04e-08
-2.62294e-08
4.29521e-08
-5.5435e-08
2.92056e-08
-1.16025e-07
6.05896e-08
-1.31309e-07
1.52846e-08
-1.56039e-07
2.47302e-08
-1.62303e-07
6.26403e-09
-1.57493e-07
-4.81075e-09
-1.39908e-07
-1.75847e-08
-1.14766e-07
-2.51424e-08
-8.62319e-08
-2.85338e-08
-5.56403e-08
-3.05916e-08
-2.44745e-08
-3.11658e-08
-1.35961e-10
-2.43386e-08
1.92007e-08
-1.93367e-08
2.22183e-08
-3.01758e-09
2.22183e-08
3.58159e-08
-4.55659e-09
4.80935e-08
-7.01553e-08
5.81232e-08
1.83554e-10
8.53811e-08
-9.38386e-09
1.33254e-07
-8.02947e-08
1.95975e-07
-1.21091e-07
2.60677e-07
-1.13034e-07
2.78306e-07
-7.5944e-08
2.55108e-07
1.44316e-08
2.09565e-07
1.05089e-07
1.39251e-07
1.02516e-07
4.66573e-08
1.06192e-07
-1.6197e-08
9.36027e-08
-9.41424e-08
1.28345e-07
-1.26493e-07
7.53023e-08
-1.39837e-07
4.25501e-08
-2.10305e-07
1.31058e-07
-2.05878e-07
1.08572e-08
-2.16772e-07
3.56242e-08
-2.15966e-07
5.45824e-09
-1.93922e-07
-2.68551e-08
-1.63532e-07
-4.79747e-08
-1.24393e-07
-6.42806e-08
-8.35191e-08
-6.94081e-08
-4.23889e-08
-7.17218e-08
-4.10018e-09
-6.94546e-08
2.45006e-08
-5.29394e-08
4.41339e-08
-3.89699e-08
3.95213e-08
1.59498e-09
6.17396e-08
4.18329e-08
-4.95756e-08
6.07507e-08
-8.91315e-08
1.15003e-07
-5.41598e-08
1.90142e-07
-8.26875e-08
2.52215e-07
-1.42366e-07
2.99427e-07
-1.68301e-07
3.39508e-07
-1.53115e-07
3.21177e-07
-5.7612e-08
2.59589e-07
7.60203e-08
1.84789e-07
1.79889e-07
8.69599e-08
1.99679e-07
-4.27143e-09
1.97832e-07
-6.47866e-08
1.54118e-07
-1.41154e-07
2.04712e-07
-1.63551e-07
9.77e-08
-1.63517e-07
4.25162e-08
-2.22143e-07
1.89683e-07
-2.1746e-07
6.17482e-09
-2.18174e-07
3.6338e-08
-2.18236e-07
5.52039e-09
-1.92417e-07
-5.26748e-08
-1.59865e-07
-8.05265e-08
-1.18729e-07
-1.05417e-07
-7.64113e-08
-1.11726e-07
-3.44272e-08
-1.13706e-07
4.42027e-09
-1.08302e-07
3.2272e-08
-8.07911e-08
5.08006e-08
-5.74985e-08
4.37855e-08
8.61003e-09
1.05525e-07
4.93089e-08
-1.00428e-07
7.81433e-08
-1.19565e-07
1.50506e-07
-1.26837e-07
2.36e-07
-1.67947e-07
3.00958e-07
-2.07323e-07
3.37445e-07
-2.04784e-07
3.38138e-07
-1.53817e-07
3.0151e-07
-2.0995e-08
2.27219e-07
1.50301e-07
1.3992e-07
2.67189e-07
1.37225e-08
3.25164e-07
-5.19824e-08
2.63579e-07
-9.13297e-08
1.93465e-07
-1.63252e-07
2.76635e-07
-1.92795e-07
1.27243e-07
-1.73297e-07
2.30188e-08
-2.12761e-07
2.29146e-07
-2.25851e-07
1.92654e-08
-2.14753e-07
2.52402e-08
-2.1947e-07
1.02374e-08
-1.92123e-07
-8.00226e-08
-1.58973e-07
-1.13676e-07
-1.17285e-07
-1.47105e-07
-7.46682e-08
-1.54343e-07
-3.25739e-08
-1.558e-07
6.4316e-09
-1.47308e-07
3.40602e-08
-1.0842e-07
5.24287e-08
-7.5867e-08
4.49182e-08
1.61206e-08
1.50443e-07
6.00778e-08
-1.59505e-07
1.18762e-07
-1.78248e-07
1.85616e-07
-1.9369e-07
2.39203e-07
-2.21534e-07
2.69601e-07
-2.3772e-07
2.72097e-07
-2.07381e-07
2.44113e-07
-1.25906e-07
1.90212e-07
3.28928e-08
1.23254e-07
2.17364e-07
2.91021e-08
3.61294e-07
-5.95262e-08
4.13122e-07
-8.03595e-08
2.84412e-07
-1.07113e-07
2.20219e-07
-1.59258e-07
3.2878e-07
-2.08409e-07
1.76393e-07
-1.76274e-07
-9.11609e-09
-1.90469e-07
2.43341e-07
-2.33159e-07
6.19551e-08
-2.13252e-07
5.33397e-09
-2.2152e-07
1.85052e-08
-1.93096e-07
-1.08446e-07
-1.59255e-07
-1.47517e-07
-1.17075e-07
-1.89285e-07
-7.42419e-08
-1.97176e-07
-3.21013e-08
-1.97941e-07
7.09067e-09
-1.865e-07
3.46694e-08
-1.35998e-07
5.31505e-08
-9.43481e-08
4.55203e-08
2.37508e-08
1.95964e-07
3.80652e-08
-1.96882e-07
8.05263e-08
-2.20703e-07
1.15303e-07
-2.2846e-07
1.20236e-07
-2.26466e-07
1.10472e-07
-2.27958e-07
9.78869e-08
-1.94945e-07
6.38015e-08
-9.17785e-08
2.8051e-08
6.86938e-08
-1.48596e-08
2.60291e-07
-7.49959e-08
4.21535e-07
-1.00302e-07
4.3917e-07
-9.40985e-08
2.78209e-07
-1.19653e-07
2.45773e-07
-1.35045e-07
3.44173e-07
-1.91064e-07
2.32412e-07
-1.76661e-07
-2.352e-08
-1.72738e-07
2.39419e-07
-2.38366e-07
1.27583e-07
-2.15674e-07
-1.73582e-08
-2.23357e-07
2.61888e-08
-1.9458e-07
-1.37224e-07
-1.59699e-07
-1.82398e-07
-1.16973e-07
-2.32011e-07
-7.39231e-08
-2.40225e-07
-3.1758e-08
-2.40106e-07
7.6268e-09
-2.25884e-07
3.51642e-08
-1.63536e-07
5.38331e-08
-1.13017e-07
4.61301e-08
3.14538e-08
2.42094e-07
-2.16728e-09
-1.91151e-07
-1.06652e-08
-2.12206e-07
-2.77872e-08
-2.11365e-07
-4.11969e-08
-2.13077e-07
-3.07812e-08
-2.3837e-07
-2.39188e-08
-2.01666e-07
-4.64236e-08
-6.89354e-08
-7.69954e-08
9.90229e-08
-1.23881e-07
3.07192e-07
-1.5553e-07
4.53497e-07
-1.29108e-07
4.13517e-07
-1.10252e-07
2.59353e-07
-1.35602e-07
2.71123e-07
-1.13065e-07
3.21636e-07
-1.59039e-07
2.78386e-07
-1.83011e-07
4.51759e-10
-1.73969e-07
2.30377e-07
-2.43265e-07
1.96878e-07
-2.22756e-07
-3.78668e-08
-2.24673e-07
2.81059e-08
-1.96527e-07
-1.6537e-07
-1.60196e-07
-2.18729e-07
-1.16826e-07
-2.75382e-07
-7.35373e-08
-2.83514e-07
-3.135e-08
-2.82293e-07
8.24352e-09
-2.65478e-07
3.57269e-08
-1.91019e-07
5.46304e-08
-1.31921e-07
4.68489e-08
3.92353e-08
2.88943e-07
-3.26158e-08
-1.53059e-07
-6.58632e-08
-1.78999e-07
-8.35728e-08
-1.93655e-07
-8.72554e-08
-2.09394e-07
-8.05557e-08
-2.44924e-07
-9.56464e-08
-1.85626e-07
-1.41087e-07
-2.35e-08
-1.97933e-07
1.5516e-07
-2.23849e-07
3.31612e-07
-1.96369e-07
4.24992e-07
-1.10316e-07
3.27494e-07
-8.23959e-08
2.31433e-07
-1.20901e-07
3.09628e-07
-9.62311e-08
2.96966e-07
-1.5172e-07
3.33875e-07
-2.01325e-07
5.00563e-08
-1.98615e-07
2.27668e-07
-2.40995e-07
2.39258e-07
-2.34424e-07
-4.44379e-08
-2.25454e-07
1.9135e-08
-1.9884e-07
-1.91983e-07
-1.60752e-07
-2.56818e-07
-1.16609e-07
-3.19525e-07
-7.3062e-08
-3.27061e-07
-3.08743e-08
-3.24481e-07
8.96919e-09
-3.05321e-07
3.63839e-08
-2.18434e-07
5.55683e-08
-1.51105e-07
4.76958e-08
4.71077e-08
3.36638e-07
-2.31044e-08
-1.25619e-07
-4.47454e-08
-1.57358e-07
-8.20491e-08
-1.56352e-07
-1.43187e-07
-1.48256e-07
-1.79698e-07
-2.08096e-07
-1.8918e-07
-1.7518e-07
-2.18804e-07
6.11853e-09
-2.63303e-07
1.99652e-07
-2.80628e-07
3.48924e-07
-2.01259e-07
3.4453e-07
-8.98564e-08
2.16091e-07
-7.49002e-08
2.16476e-07
-9.04e-08
3.25128e-07
-8.54722e-08
2.92038e-07
-1.50585e-07
3.98988e-07
-2.09108e-07
1.0858e-07
-2.24999e-07
2.43559e-07
-2.26937e-07
2.41196e-07
-2.44738e-07
-2.66363e-08
-2.2726e-07
1.65602e-09
-2.01187e-07
-2.18055e-07
-1.61396e-07
-2.96608e-07
-1.16297e-07
-3.64624e-07
-7.24884e-08
-3.70869e-07
-3.03187e-08
-3.66651e-07
9.8071e-09
-3.45447e-07
3.71385e-08
-2.45765e-07
5.66522e-08
-1.70619e-07
4.86763e-08
5.50836e-08
3.85315e-07
5.15124e-09
-1.2803e-07
-2.5813e-08
-1.26394e-07
-1.03101e-07
-7.90639e-08
-1.76053e-07
-7.53041e-08
-2.07134e-07
-1.76991e-07
-2.38826e-07
-1.42975e-07
-2.81687e-07
4.89744e-08
-3.06281e-07
2.2424e-07
-2.73587e-07
3.16092e-07
-1.56995e-07
2.27881e-07
-1.03676e-07
1.62772e-07
-1.31192e-07
2.43993e-07
-9.82496e-08
2.92185e-07