/*--------------------------------*- C++ -*----------------------------------*\
| =========                 |                                                 |
| \\      /  F ield         | OpenFOAM: The Open Source CFD Toolbox           |
|  \\    /   O peration     | Version:  2.4.0                                 |
|   \\  /    A nd           | Web:      www.OpenFOAM.org                      |
|    \\/     M anipulation  |                                                 |
\*---------------------------------------------------------------------------*/
FoamFile
{
    version     2.0;
    format      ascii;
    class       volScalarField;
    location    "0.133";
    object      p_rgh;
}
// * * * * * * * * * * * * * * * * * * * * * * * * * * * * * * * * * * * * * //

dimensions      [1 -1 -2 0 0 0 0];

internalField   nonuniform List<scalar> 
14400
(
107.61
105.726
101.372
97.0178
92.9067
89.5337
86.7482
84.7315
83.9919
84.8998
87.4114
90.818
94.1912
96.9518
98.9901
100.443
101.48
102.233
102.791
103.21
103.527
103.767
103.947
104.08
104.177
104.245
104.292
104.322
104.34
104.348
107.625
105.733
101.369
97.0177
92.9004
89.5235
86.7338
84.7119
83.9664
84.8716
87.3941
90.8222
94.2144
96.9821
99.0167
100.463
101.492
102.24
102.792
103.207
103.521
103.758
103.936
104.068
104.163
104.23
104.276
104.306
104.323
104.331
107.647
105.753
101.367
97.0191
92.8892
89.5055
86.7051
84.6679
83.9013
84.7835
87.3135
90.7845
94.2257
97.0222
99.0656
100.509
101.532
102.27
102.814
103.221
103.528
103.759
103.932
104.06
104.152
104.217
104.262
104.29
104.307
104.315
107.677
105.787
101.37
97.0203
92.8718
89.4783
86.6607
84.5991
83.7999
84.643
87.1768
90.7086
94.2276
97.074
99.1366
100.582
101.598
102.326
102.858
103.253
103.549
103.772
103.938
104.06
104.149
104.212
104.254
104.282
104.298
104.306
107.715
105.835
101.377
97.0206
92.8482
89.4418
86.6006
84.5054
83.6625
84.4505
86.9851
90.597
94.2222
97.1373
99.2268
100.676
101.685
102.401
102.918
103.299
103.583
103.795
103.953
104.069
104.154
104.214
104.255
104.282
104.297
104.304
107.76
105.897
101.389
97.0205
92.8184
89.396
86.5245
84.3864
83.4887
84.2032
86.7344
90.4473
94.21
97.2126
99.3352
100.79
101.79
102.49
102.991
103.356
103.626
103.826
103.976
104.086
104.166
104.223
104.262
104.288
104.303
104.31
107.813
105.974
101.406
97.0206
92.7825
89.341
86.4325
84.2417
83.2783
83.8974
86.4189
90.2555
94.191
97.301
99.4619
100.922
101.911
102.595
103.077
103.424
103.679
103.867
104.006
104.109
104.184
104.238
104.276
104.3
104.314
104.321
107.872
106.066
101.426
97.0214
92.7402
89.277
86.3245
84.0708
83.0311
83.5288
86.0313
90.0163
94.1654
97.4043
99.6078
101.073
102.05
102.714
103.176
103.503
103.74
103.914
104.043
104.138
104.208
104.258
104.293
104.316
104.329
104.336
107.937
106.172
101.451
97.0234
92.6919
89.2042
86.2008
83.8732
82.7469
83.0919
85.5625
89.7228
94.134
97.5245
99.7773
101.244
102.205
102.848
103.285
103.591
103.809
103.968
104.085
104.172
104.236
104.282
104.314
104.335
104.347
104.353
108.007
106.295
101.479
97.0275
92.6368
89.1228
86.0612
83.6481
82.4252
82.5802
85.001
89.3661
94.0977
97.6638
99.9674
101.434
102.377
102.995
103.406
103.687
103.884
104.027
104.132
104.21
104.267
104.309
104.337
104.356
104.367
104.372
108.082
106.434
101.511
97.0351
92.5739
89.0329
85.906
83.3949
82.065
81.9856
84.3329
88.9347
94.058
97.8251
100.182
101.645
102.565
103.154
103.536
103.79
103.964
104.089
104.181
104.249
104.299
104.336
104.361
104.378
104.387
104.391
108.159
106.591
101.546
97.0482
92.5022
88.9349
85.7353
83.1127
81.6647
81.2988
83.5411
88.4136
94.0175
98.0119
100.421
101.875
102.769
103.326
103.675
103.899
104.048
104.153
104.23
104.288
104.331
104.362
104.384
104.398
104.406
104.409
108.237
106.765
101.584
97.0685
92.4206
88.8291
85.5494
82.8007
81.2215
80.5091
82.6042
87.7839
93.9799
98.2284
100.685
102.125
102.987
103.509
103.821
104.011
104.132
104.216
104.278
104.325
104.36
104.386
104.404
104.416
104.422
104.425
108.316
106.959
101.625
97.0844
92.3283
88.7157
85.3484
82.4582
80.731
79.6041
81.4956
87.0215
93.9505
98.4796
100.976
102.394
103.218
103.701
103.973
104.125
104.214
104.275
104.321
104.357
104.384
104.405
104.42
104.429
104.434
104.435
108.392
107.173
101.669
97.1032
92.2244
88.5953
85.1326
82.0841
80.1867
78.5699
80.1821
86.0956
93.9365
98.7691
101.296
102.682
103.461
103.9
104.127
104.237
104.292
104.328
104.357
104.381
104.401
104.417
104.428
104.435
104.439
104.439
108.462
107.408
101.716
97.1308
92.107
88.4683
84.9025
81.6764
79.5866
77.397
78.6257
84.9689
93.9488
99.1091
101.643
102.985
103.714
104.105
104.282
104.345
104.361
104.37
104.382
104.395
104.408
104.418
104.427
104.432
104.434
104.434
108.525
107.666
101.764
97.1551
91.9747
88.3353
84.6586
81.2321
78.9518
76.1017
76.7761
83.59
94.0014
99.5115
102.017
103.303
103.975
104.312
104.436
104.445
104.417
104.399
104.393
104.394
104.4
104.407
104.412
104.416
104.418
104.417
108.577
107.947
101.814
97.1677
91.8268
88.1968
84.4016
80.7505
78.3528
74.7811
74.5628
81.87
94.1019
99.9737
102.433
103.637
104.238
104.516
104.585
104.532
104.455
104.409
104.385
104.376
104.375
104.378
104.382
104.385
104.386
104.385
108.612
108.253
101.866
97.174
91.6639
88.0534
84.132
80.2391
77.8868
73.6487
71.9065
79.6881
94.2862
100.478
102.872
103.976
104.499
104.715
104.726
104.601
104.471
104.397
104.355
104.334
104.328
104.329
104.331
104.334
104.335
104.334
108.626
108.583
101.918
97.1773
91.4662
87.9051
83.85
79.7086
77.5858
72.8897
68.7207
76.9551
94.6083
101.115
103.348
104.338
104.752
104.912
104.858
104.652
104.466
104.36
104.297
104.265
104.253
104.253
104.256
104.259
104.261
104.26
108.613
108.938
101.97
97.1808
91.2307
87.7514
83.5562
79.1648
77.3958
72.5233
64.935
73.5652
94.8609
101.729
103.817
104.693
104.999
105.115
104.971
104.678
104.437
104.292
104.204
104.159
104.144
104.145
104.151
104.157
104.16
104.16
108.565
109.317
102.02
97.1889
90.953
87.5923
83.2511
78.6282
77.259
72.4518
60.3203
68.6875
94.9872
102.496
104.315
105.051
105.248
105.329
104.98
104.628
104.376
104.185
104.062
104.003
103.99
103.995
104.006
104.018
104.026
104.03
108.475
109.721
102.064
97.2084
90.6262
87.4276
82.9403
78.1778
77.154
69.6708
14.9174
69.8073
95.628
103.179
104.796
105.433
105.52
105.517
104.814
104.5
104.282
104.027
103.861
103.789
103.781
103.797
103.818
103.838
103.853
103.861
108.33
110.145
102.091
97.2518
90.2419
87.2594
82.6408
77.9597
59.4098
0.452468
1.99272
69.3708
95.6467
103.571
105.208
105.84
105.752
105.681
104.653
104.338
104.142
103.792
103.575
103.499
103.508
103.542
103.581
103.613
103.635
103.647
108.119
110.588
102.07
97.3345
89.7952
87.0983
82.4261
29.7806
0.194866
0.441129
0.248394
42.0595
96.2745
103.962
105.658
106.259
105.965
105.878
104.582
104.063
103.952
103.461
103.169
103.1
103.145
103.213
103.281
103.335
103.372
103.394
107.828
111.042
101.551
97.488
89.2937
86.9708
56.8171
0.222416
0.197599
0.413599
0.266893
13.93
96.8409
104.601
106.099
106.669
106.157
106.327
104.362
103.641
103.7
103.019
102.636
102.573
102.667
102.785
102.902
103.001
103.07
103.112
107.438
111.503
100.429
97.689
88.6634
84.2803
0.0283068
0.202369
0.188359
0.362626
0.298869
11.0059
99.4107
104.778
106.694
107.289
106.328
107.069
104.047
103.24
103.413
102.421
101.979
101.927
102.077
102.264
102.455
102.619
102.739
102.814
106.928
111.979
98.6411
97.9753
87.6789
-0.0311081
0.0616662
0.177531
0.173516
0.309077
0.360514
7.87442
101.638
104.873
106.668
107.581
106.318
106.694
103.087
102.778
102.973
101.56
101.2
101.21
101.406
101.681
101.959
102.2
102.385
102.504
106.28
112.307
101.096
98.0884
48.1842
0.0237544
0.0749034
0.166217
0.158729
0.267288
0.410799
7.97182
101.109
103.84
105.817
107.619
105.902
105.768
103.199
102.197
101.823
100.782
100.37
100.404
100.664
101.046
101.418
101.742
102.001
102.179
105.511
114.142
105.702
98.6131
1.48768
0.0353744
0.0534666
0.139128
0.146547
0.239167
0.405466
-0.789733
91.8615
101.878
104.698
108.609
106.461
103.798
103.02
101.683
100.664
100.438
99.2925
99.3121
99.802
100.358
100.833
101.245
101.601
101.87
104.349
104.344
104.331
104.307
104.268
104.211
104.129
104.015
103.859
103.65
103.372
103.004
102.514
101.851
100.94
99.6585
97.8406
95.2712
91.9654
88.2847
85.1239
83.4508
83.6004
85.4443
88.6307
92.6877
97.0509
101.232
104.581
106.876
104.333
104.328
104.315
104.291
104.253
104.197
104.116
104.003
103.849
103.642
103.368
103.004
102.518
101.862
100.957
99.6834
97.8712
95.2952
91.9802
88.2749
85.0956
83.4209
83.5765
85.4264
88.6191
92.6818
97.0488
101.231
104.581
106.881
104.316
104.311
104.299
104.276
104.239
104.184
104.106
103.996
103.846
103.645
103.378
103.022
102.546
101.899
101.004
99.7368
97.922
95.3378
91.9674
88.2041
84.9973
83.3379
83.5178
85.3874
88.5966
92.6734
97.0493
101.235
104.588
106.893
104.307
104.302
104.29
104.268
104.232
104.179
104.104
103.998
103.855
103.662
103.404
103.06
102.597
101.965
101.081
99.8191
97.9945
95.3802
91.9292
88.079
84.8368
83.2075
83.4259
85.3261
88.5619
92.6615
97.0517
101.244
104.601
106.914
104.305
104.301
104.289
104.267
104.233
104.182
104.109
104.009
103.873
103.689
103.443
103.114
102.668
102.051
101.181
99.9256
98.0878
95.4265
91.8683
87.9006
84.6145
83.0301
83.3006
85.2425
88.5147
92.6461
97.0564
101.26
104.62
106.941
104.311
104.306
104.295
104.273
104.24
104.191
104.123
104.028
103.899
103.726
103.494
103.181
102.753
102.156
101.303
100.055
98.2021
95.4794
91.7841
87.6649
84.3264
82.8045
83.1417
85.1364
88.4552
92.6273
97.0633
101.282
104.645
106.977
104.322
104.317
104.306
104.285
104.253
104.207
104.142
104.053
103.932
103.771
103.554
103.259
102.853
102.279
101.446
100.208
98.3389
95.541
91.6753
87.3652
83.9672
82.5293
82.949
85.0078
88.3833
92.6054
97.0726
101.31
104.675
107.02
104.336
104.332
104.321
104.301
104.271
104.228
104.167
104.084
103.973
103.824
103.623
103.35
102.968
102.42
101.61
100.385
98.5
95.6139
91.5398
86.9933
83.5308
82.2032
82.7224
84.8568
88.2989
92.5805
97.0847
101.344
104.711
107.071
104.353
104.349
104.339
104.32
104.292
104.252
104.196
104.12
104.018
103.883
103.701
103.45
103.096
102.577
101.795
100.587
98.6879
95.7015
91.3759
86.5382
83.009
81.8241
82.462
84.6833
88.2021
92.5529
97.0996
101.384
104.752
107.129
104.372
104.368
104.358
104.341
104.315
104.278
104.227
104.159
104.068
103.948
103.786
103.56
103.236
102.751
102.002
100.816
98.9048
95.8075
91.1812
85.9856
82.3925
81.3901
82.1681
84.4871
88.0927
92.5229
97.1175
101.43
104.799
107.196
104.391
104.387
104.378
104.362
104.339
104.306
104.26
104.2
104.12
104.016
103.875
103.679
103.389
102.941
102.229
101.073
99.1538
95.9365
90.9531
85.3171
81.6699
80.8996
81.8413
84.268
87.9704
92.4907
97.1387
101.483
104.851
107.269
104.409
104.405
104.397
104.383
104.362
104.332
104.292
104.24
104.173
104.086
103.969
103.803
103.551
103.146
102.478
101.359
99.4388
96.0945
90.6895
84.5085
80.8278
80.3485
81.4828
84.0256
87.8351
92.4566
97.1633
101.542
104.908
107.351
104.424
104.42
104.412
104.4
104.381
104.355
104.321
104.278
104.223
104.154
104.063
103.932
103.723
103.365
102.745
101.674
99.7626
96.2896
90.3881
83.5275
79.8513
79.734
81.0943
83.7591
87.6863
92.4211
97.1914
101.607
104.971
107.44
104.434
104.431
104.424
104.412
104.396
104.374
104.345
104.31
104.268
104.219
104.156
104.063
103.901
103.596
103.032
102.02
100.131
96.5317
90.0458
82.3306
78.7244
79.0513
80.6782
83.4678
87.5238
92.3844
97.223
101.678
105.038
107.536
104.438
104.434
104.428
104.418
104.403
104.384
104.361
104.334
104.306
104.276
104.244
104.194
104.084
103.837
103.334
102.399
100.553
96.8279
89.6603
80.8581
77.4311
78.294
80.2375
83.1509
87.3476
92.3466
97.2579
101.755
105.11
107.64
104.433
104.429
104.423
104.413
104.401
104.385
104.366
104.348
104.332
104.323
104.323
104.321
104.27
104.085
103.649
102.811
101.033
97.1811
89.2294
79.0291
75.9586
77.4575
79.7757
82.8078
87.1576
92.3076
97.2957
101.839
105.186
107.751
104.415
104.412
104.406
104.397
104.385
104.371
104.357
104.346
104.343
104.355
104.39
104.442
104.455
104.338
103.973
103.25
101.567
97.6097
88.7565
76.7355
74.3058
76.5592
79.2975
82.4376
86.9544
92.2673
97.3356
101.928
105.266
107.869
104.383
104.379
104.373
104.364
104.353
104.341
104.33
104.325
104.334
104.368
104.439
104.553
104.636
104.59
104.302
103.726
102.191
98.1515
88.2765
73.826
72.4998
75.6835
78.8068
82.0378
86.7387
92.2248
97.3766
102.022
105.351
107.994
104.332
104.328
104.321
104.312
104.301
104.289
104.279
104.281
104.302
104.357
104.464
104.651
104.813
104.837
104.623
104.218
102.873
98.7622
87.8355
70.088
70.6115
75.0045
78.3091
81.6053
86.5121
92.1791
97.4168
102.122
105.439
108.126
104.258
104.254
104.247
104.237
104.224
104.21
104.201
104.207
104.242
104.32
104.467
104.736
104.993
105.077
104.933
104.739
103.591
99.5567
87.4909
65.2427
68.7379
74.6835
77.8091
81.141
86.2768
92.1283
97.4539
102.225
105.531
108.264
104.159
104.154
104.147
104.134
104.117
104.099
104.087
104.096
104.146
104.256
104.446
104.796
105.173
105.312
105.212
105.229
104.339
100.422
87.382
59.0815
66.9624
74.7862
77.3052
80.6548
86.036
92.0701
97.4848
102.338
105.627
108.408
104.03
104.024
104.013
103.996
103.974
103.948
103.927
103.935
104.005
104.154
104.383
104.776
105.334
105.562
105.459
105.745
105.207
101.464
87.4897
51.6485
65.3845
75.1559
76.7942
80.1763
85.795
92.0012
97.5052
102.465
105.726
108.557
103.863
103.857
103.843
103.82
103.788
103.749
103.712
103.712
103.804
103.994
104.269
104.624
105.388
105.817
105.663
106.252
106.028
102.57
87.5267
23.1449
18.589
75.7401
76.3204
79.7737
85.5611
91.9174
97.5105
102.601
105.829
108.709
103.652
103.648
103.633
103.604
103.558
103.495
103.427
103.401
103.513
103.755
104.121
104.412
105.475
106.003
105.758
106.766
106.651
103.443
88.0177
5.90642
0.392324
7.6384
67.7266
79.5091
85.3462
91.8129
97.4961
102.741
105.936
108.863
103.403
103.401
103.383
103.342
103.272
103.172
103.051
102.967
103.086
103.413
103.885
103.886
105.519
106.14
105.74
107.275
107.248
104.541
89.0449
-3.27804
0.241083
0.313848
0.170301
73.9297
85.1761
91.6799
97.4593
102.885
106.048
109.018
103.131
103.128
103.098
103.03
102.919
102.764
102.567
102.407
102.485
102.931
103.523
102.906
105.956
106.458
105.547
107.789
107.735
105.76
93.4615
0.547666
0.211214
0.291943
0.151702
0.239634
84.9923
91.507
97.4
103.029
106.166
109.172
102.848
102.844
102.795
102.69
102.521
102.29
101.989
101.745
101.727
102.333
103.093
101.201
105.045
106.4
104.729
108.53
108.449
106.958
97.6559
0.331993
0.206292
0.252
0.140242
0.211564
34.124
91.2833
97.3184
103.171
106.293
109.32
102.561
102.561
102.494
102.349
102.118
101.797
101.379
100.989
100.846
101.601
102.589
101.075
104.175
105.455
104.093
108.849
108.646
108.711
85.7543
0.373949
0.21793
0.214181
0.1328
0.174546
0.0824227
89.226
97.2126
103.307
106.431
109.459
102.273
102.289
102.212
102.032
101.745
101.328
100.758
100.098
99.7502
100.348
101.846
101.823
103.87
105.188
104.201
108.831
108.554
111.742
50.8838
0.398597
0.233333
0.187049
0.12747
0.149755
0.0530318
30.1291
97.0571
103.434
106.584
109.585
102.032
102.08
101.996
101.779
101.442
100.928
100.106
99.083
98.3416
98.6676
100.726
103.815
103.699
105.362
104.582
109.033
107.872
114.421
9.94036
0.375553
0.239887
0.169682
0.123424
0.131324
0.0478616
2.01635
95.4728
103.545
106.755
109.702
105.17
112.286
105.499
65.7575
0.0635926
0.0486719
0.0591558
0.125847
0.137392
0.219761
0.329495
0.059717
68.2922
99.3081
105.292
109.83
108.517
101.673
103.141
102.265
101.046
99.709
98.1717
97.9997
98.8748
99.6916
100.267
100.769
101.257
101.681
105.209
111.836
106.815
56.2073
0.0774496
0.0532266
0.061962
0.12046
0.133111
0.208663
0.29481
-0.0559769
14.1397
99.7119
106.276
110.403
109.614
100.57
101.711
102.281
101.156
99.3167
97.0362
96.4202
97.05
97.9661
98.8141
99.6396
100.41
101.132
105.517
113.013
108.805
16.7892
0.0855999
0.0574175
0.0645064
0.115523
0.129039
0.196912
0.260454
0.161026
0.451244
98.644
106.911
111.411
111.999
101.206
101.788
101.792
89.4664
39.3727
8.66187
1.01092
-0.0716181
-0.0653489
-0.0070464
0.474672
1.32298
2.08884
106.225
113.404
109.643
6.02118
0.0846089
0.0608862
0.0666931
0.11101
0.125207
0.184698
0.224653
0.106192
-0.81986
19.02
109.843
112.949
112.71
105.638
78.9717
9.96906
-0.0689455
-0.0748401
-0.0838643
-0.0803872
-0.0740456
-0.0667666
-0.0617492
-0.0598105
-0.0594284
-0.0592997
107.128
113.804
105.064
-0.136533
0.0808227
0.0635359
0.0684091
0.106799
0.121402
0.172076
0.192536
1.56375
-0.62362
-0.553952
88.2575
114.207
113.916
31.1554
-0.118354
-0.111809
-0.074455
-0.0767733
-0.0840135
-0.0820458
-0.0751307
-0.0588539
-0.0609426
-0.0590447
-0.0586359
-0.0586654
51.0686
114.555
84.3298
-0.028616
0.0774489
0.0653811
0.0697888
0.102875
0.117455
0.159028
0.152903
0.741055
-0.577049
-0.519784
-0.251327
7.42937
0.989478
-0.138761
-0.125
-0.110377
-0.0622062
-0.0737034
-0.0841286
-0.0840732
-0.0752353
-0.058043
-0.0554203
-0.0573477
-0.0572837
-0.0578832
-0.0198701
115.615
0.173727
-0.0128577
0.0729535
0.0663773
0.0708255
0.0990663
0.113111
0.145217
0.118952
0.144001
-0.654038
-0.521248
-0.285294
-0.117884
-0.0966946
-0.134409
-0.126345
-0.109706
-0.0643799
-0.0739699
-0.0807254
-0.0813196
-0.0741419
-0.0622627
-0.0522937
-0.0525546
-0.0558935
-0.0575537
-0.00483276
54.4053
0.203548
0.000668805
0.0675132
0.0665043
0.0713438
0.0952523
0.108189
0.131223
0.0931373
0.0856746
-0.713564
-0.496552
-0.279079
-0.117219
-0.120326
-0.099888
-0.102585
-0.0330002
0.00315988
-0.0491103
-0.0865442
-0.0803992
-0.0713998
-0.0610959
-0.0553411
-0.0469122
-0.0504948
-0.0580285
-0.000532507
0.160071
0.185395
0.0120281
0.0635387
0.0658981
0.0713236
0.0913473
0.102623
0.117388
0.0694712
0.0475233
-0.685878
-0.435358
-0.296907
-0.119884
-0.117203
-0.113425
-0.112609
-0.12337
-0.110676
-0.0883808
0.0429957
-0.0653919
-0.0669614
-0.0530941
-0.0520946
-0.050955
-0.0437619
-0.0576171
-0.0105384
0.103507
0.210606
0.0231814
0.0606544
0.0647739
0.070777
0.0873081
0.0964668
0.104396
0.0460229
0.0389347
-0.612715
-0.475802
-0.305398
-0.127657
-0.119915
-0.113925
-0.113629
-0.119364
-0.111809
-0.106119
-0.108986
-0.0981403
0.0646819
-0.0307408
-0.0483034
-0.0489842
-0.0530237
-0.0554749
-0.0104672
-0.0266549
0.17515
0.032596
0.0586686
0.0633438
0.0697289
0.083141
0.0898509
0.0924779
0.0350392
0.0374417
-0.551493
-0.463251
-0.205431
-0.0795351
-0.126047
-0.114237
-0.108312
-0.100621
-0.115602
-0.110607
-0.109532
-0.0944134
0.00550713
0.0536168
-0.0226291
-0.0473696
-0.0469018
-0.04829
-0.00900196
-0.0186401
0.146827
0.0400928
0.0573453
0.0617468
0.0682222
0.0788918
0.0888497
0.0815485
0.0361971
0.0402819
-0.491446
-0.428793
-0.156114
-0.0177693
0.0162682
-0.0899713
-0.117219
-0.121688
-0.119535
-0.115765
-0.11107
-0.0964959
-0.00852083
0.0433308
0.0612387
-0.0469399
-0.0469018
-0.0417784
-0.010604
-0.0111768
0.149002
0.0459352
0.0562932
0.0600336
0.0662971
0.0745778
0.0794231
0.0829953
0.0374886
-0.0140595
-0.405341
-0.364003
-0.115478
-0.0919773
-0.13233
-0.124635
-0.122854
-0.124634
-0.1239
-0.120819
-0.115122
-0.107219
-0.0262622
0.0382046
0.0505208
-0.00517566
-0.0515594
-0.039816
-0.0105873
-0.00542208
0.14834
0.0507337
0.0551427
0.0581907
0.0640032
0.0701773
0.0760757
0.0646613
0.030011
-0.0372169
-0.304664
-0.293819
-0.16158
-0.151754
-0.133706
-0.126559
-0.126038
-0.126608
-0.12636
-0.125368
-0.119967
-0.112159
-0.101038
0.031772
0.0633731
-0.0448577
-0.0614985
-0.049367
-0.0107426
-0.000274942
0.160811
0.0528205
0.0536306
0.056199
0.0613996
0.0683926
0.0658608
0.0533863
0.0188348
-0.0726074
-0.220571
-0.228407
-0.0718274
-0.149022
-0.131785
-0.12707
-0.127617
-0.128159
-0.129609
-0.12861
-0.1271
-0.123051
-0.117974
-0.0867999
-0.0470425
-0.0958766
-0.07516
-0.0589205
-0.0110748
0.00393113
0.156937
0.0523947
0.0516399
0.0540333
0.0585053
0.0653733
0.0560009
0.0434338
0.00770083
-0.0878692
-0.166751
-0.164386
-0.109218
-0.136147
-0.126508
-0.12559
-0.128055
-0.13092
-0.133259
-0.13455
-0.13482
-0.134831
-0.125945
-0.126295
-0.114948
-0.0976926
-0.0799576
-0.0638345
-0.0116267
0.0069764
0.145757
0.0517987
0.0491847
0.0516611
0.05538
0.0690552
0.0485676
0.0330573
-0.000970055
-0.0986081
-0.139665
0.0790137
-0.10369
-0.117236
-0.118599
-0.122555
-0.127175
-0.131407
-0.13513
-0.138276
-0.140301
-0.140899
-0.134885
-0.128901
-0.118694
-0.102022
-0.0850107
-0.069768
-0.0121889
0.00817459
0.12392
0.049756
0.0462751
0.049054
0.0521516
0.0707826
0.0410036
0.0213901
-0.00751108
-0.0722647
-0.00961566
0.156661
-0.0752555
-0.097936
-0.10969
-0.118788
-0.126016
-0.131648
-0.136193
-0.140114
-0.14305
-0.143538
-0.140731
-0.122161
-0.117851
-0.104248
-0.0890903
-0.0770317
-0.0125866
0.00702958
0.119988
0.0458371
0.0428798
0.0461961
0.0488862
0.0742249
0.0441911
0.00751807
-0.0135948
-0.0497737
-0.0658317
-0.0117532
-0.0513986
-0.0818145
-0.10121
-0.115236
-0.12523
-0.132021
-0.136848
-0.140962
-0.144342
-0.144784
-0.140029
-0.13088
-0.117277
-0.106149
-0.091632
-0.0777738
-0.0127711
0.00305283
0.136025
0.0397444
0.038962
0.0430773
0.0456252
0.0512042
0.0206454
-0.000480697
-0.0215482
-0.03455
-0.0277302
-0.00661435
-0.0387766
-0.0698661
-0.0942469
-0.113064
-0.125876
-0.133158
-0.137252
-0.140648
-0.143546
-0.141724
-0.139081
-0.131679
-0.123677
-0.110647
-0.0981623
-0.0876055
-0.0127641
-0.00424365
0.144706
0.0298605
0.0345378
0.0397055
0.0423254
0.041834
0.0121947
-0.00567317
-0.0275891
-0.0250653
-0.0145322
-0.0087003
-0.0329472
-0.0616283
-0.089555
-0.1138
-0.128361
-0.135814
-0.13837
-0.139316
-0.13702
-0.137497
-0.137385
-0.133439
-0.123737
-0.112308
-0.101852
-0.0919965
-0.0124174
-0.0176825
0.523704
0.01302
0.029807
0.0361213
0.0378653
0.0449975
0.00599879
0.00489693
-0.0330513
-0.0206897
-0.0124127
-0.0127347
-0.0302123
-0.0557624
-0.0874114
-0.116963
-0.134638
-0.140527
-0.141732
-0.139683
-0.138377
-0.136298
-0.132108
-0.125776
-0.117802
-0.108493
-0.0988057
-0.090577
-0.0113075
-0.0334491
1.86942
-0.0102083
0.0254025
0.0323967
0.033708
0.0411833
0.00627793
0.00337699
-0.0326953
-0.0183014
-0.0130768
-0.0153107
-0.0276509
-0.0497552
-0.0846938
-0.123903
-0.145196
-0.147967
-0.143914
-0.140882
-0.139432
-0.139126
-0.136293
-0.128675
-0.115761
-0.102922
-0.0956224
-0.0875679
-0.00942471
-0.0242074
1.59554
-0.00373686
0.0220468
0.0285731
0.0295428
0.0272444
0.00788785
0.0161614
-0.0270948
-0.0150829
-0.0125708
-0.0149871
-0.0233019
-0.0400504
-0.0696387
-0.107981
-0.13175
-0.13889
-0.136481
-0.136497
-0.13299
-0.131073
-0.121072
-0.115157
-0.111143
-0.113571
-0.109918
-0.106023
-0.0072986
-0.0118456
0.0321155
0.00418488
0.0193178
0.0246521
0.0252622
0.0217954
0.0183383
-0.00976884
-0.0152025
-0.0107259
-0.0102331
-0.0120614
-0.0169934
-0.0280856
0.000344897
0.00423771
-0.0993144
-0.103447
-0.100572
-0.10551
-0.0982078
-0.107502
-0.101201
-0.110249
-0.116298
-0.121337
-0.124041
-0.124681
-0.00532038
-0.00460458
0.0313166
0.00835714
0.0166794
0.0206197
0.0209021
0.0178228
0.00950478
-0.00213444
-0.00654342
-0.00663991
-0.00717675
-0.00812081
-0.00916249
-0.0112039
0.57244
0.551475
-0.00720369
-0.0377651
-0.0422282
0.153393
0.164382
0.200013
0.0179008
-0.0802206
-0.063162
-0.123436
-0.128033
-0.131089
-0.00364598
-0.000799003
0.0261712
0.00954724
0.0137929
0.0164876
0.0165266
0.0139653
0.00852278
0.00188415
-0.00214906
-0.00368594
-0.00461731
-0.00550817
-0.00693611
-0.0116386
-0.0224092
-0.014797
-0.0140291
-0.013399
-0.0150683
0.11477
0.00517971
0.0334871
-0.0537149
-0.0604589
-0.0269846
-0.0378987
-0.0905901
-0.100124
-0.00229316
0.000874231
0.0190803
0.00867529
0.010549
0.0122811
0.0121746
0.0102081
0.00661519
0.00256473
-0.000328073
-0.00187082
-0.00279757
-0.00362064
-0.00480218
-0.00680936
-0.00922802
-0.00827271
-0.00500744
-0.00560716
-0.00354586
-0.00632545
-0.0161054
-0.0213618
-0.0274332
-0.0372773
-0.0391755
-0.0493109
-0.0401886
-0.0608174
-0.00120229
0.00117262
0.0118958
0.00627034
0.00697915
0.00797332
0.00783203
0.00652203
0.00436298
0.00204518
0.000251007
-0.000855179
-0.00151478
-0.0020117
-0.00256156
-0.00316569
-0.00354364
-0.00325746
-0.00276441
-0.00319754
-0.00489294
-0.00734206
-0.00886571
-0.0118661
-0.0146574
-0.0177944
-0.0212637
-0.0243148
-0.0267966
-0.0286263
-0.000264804
0.00063517
0.00509904
0.00288192
0.00306047
0.00349721
0.00342144
0.00282066
0.00191652
0.000995136
0.000211244
-0.000309951
-0.000581397
-0.000711664
-0.00080142
-0.000883261
-0.000908156
-0.000882729
-0.000952624
-0.00129689
-0.00194467
-0.00278452
-0.0036629
-0.00453202
-0.00541127
-0.00628837
-0.00712412
-0.00788174
-0.0085358
-0.0090768
101.957
102.047
101.923
101.627
101.252
100.682
99.5072
97.9502
96.4033
97.0792
100.7
104.831
104.272
105.851
104.469
109.974
106.756
116.514
4.24539
0.409579
0.238128
0.159695
0.120261
0.119407
0.0515574
0.0445237
26.9336
103.582
106.923
109.823
101.613
101.778
101.585
101.134
100.625
99.7796
97.6549
95.4003
94.3267
95.7348
100.835
105.362
104.71
106.192
104.113
110.477
105.3
112.47
0.108866
0.399451
0.234396
0.155221
0.118463
0.113668
0.054735
0.0681358
2.14666
102.792
107.044
109.824
2.61953
2.82857
2.59836
1.89539
0.872145
-0.054561
-0.0503654
-0.0528807
0.671588
19.3891
90.6443
106.006
105.602
106.242
103.937
111.861
106.15
79.3505
0.167505
0.373578
0.229493
0.154428
0.117005
0.108271
0.0534652
0.0676803
0.0783547
90.5497
107.221
109.764
-0.0591914
-0.0590382
-0.0586452
-0.057936
-0.0568219
-0.0553696
-0.0516875
-0.0486143
-0.0413393
-0.0296686
-0.0556778
34.0477
96.6189
106.49
103.706
115.208
106.42
3.37114
-0.0321575
0.321415
0.224595
0.142689
0.114293
0.103256
0.0550191
0.0698037
0.0760156
2.83879
107.416
109.719
-0.0587644
-0.0588434
-0.0586906
-0.0581758
-0.0571935
-0.0556508
-0.0523767
-0.049156
-0.0430747
-0.0349123
-0.0514326
-0.0682254
-0.0814476
3.00372
32.5271
117.228
6.94298
-0.713328
-0.0448499
0.277677
0.224211
0.137603
0.11196
0.0986045
0.0563685
0.0697794
0.0667393
0.0825898
97.587
109.413
-0.0584353
-0.0587466
-0.0586767
-0.0583108
-0.0575877
-0.0560964
-0.053523
-0.0508057
-0.0449964
-0.0394149
-0.0519529
-0.0678272
-0.0807415
-0.0870951
-0.0874629
-0.0690012
-0.318663
-0.604447
-0.0829521
0.227814
0.219436
0.140703
0.109182
0.0943089
0.0574866
0.0686203
0.0636272
0.0909682
1.69847
108.065
-0.0584779
-0.058885
-0.0586919
-0.0585582
-0.0583876
-0.0573202
-0.0555787
-0.0530844
-0.0484962
-0.0438915
-0.0504917
-0.0676085
-0.0828345
-0.0872398
-0.0932984
-0.171526
-0.324752
-0.520942
-0.123753
1.09861
0.254146
0.130482
0.106079
0.0903269
0.0583712
0.0669025
0.0610957
0.0836723
-0.00830253
0.0600776
-0.0587648
-0.0586573
-0.0580913
-0.0585565
-0.0595758
-0.0586922
-0.0573395
-0.0556691
-0.0524976
-0.0299381
-0.0470358
-0.05944
-0.0861103
-0.0871178
-0.0929195
-0.171674
-0.304285
-0.452023
-0.158092
0.430462
0.15458
0.124455
0.102528
0.086603
0.0590199
0.0650722
0.0589329
0.076645
-0.0013709
-0.0234682
-0.0580844
-0.0571928
-0.0558009
-0.0574864
-0.0613442
-0.0602543
-0.0586117
-0.0580381
-0.0560547
-0.0542947
-0.0508622
-0.0559864
-0.0714151
-0.0828346
-0.0940092
-0.168599
-0.326432
-0.42095
-0.194918
0.369456
0.151864
0.122151
0.098552
0.083069
0.0594281
0.0632516
0.0569575
0.0708012
0.0040364
-0.0181275
-0.0555826
-0.0546924
-0.0530136
-0.0572617
-0.0659359
-0.0625694
-0.0589507
-0.0597285
-0.0593248
-0.0569761
-0.0488297
-0.0618951
-0.0871168
-0.0900902
-0.089786
-0.175299
-0.321515
-0.419155
-0.210739
0.149242
0.125588
0.121563
0.0976837
0.0796477
0.0595811
0.0615024
0.0551231
0.0654559
0.0323653
-0.0194718
-0.0232506
-0.0411895
-0.0433136
-0.00454491
0.0441038
-0.0606399
-0.0567007
-0.0633466
-0.0632773
-0.0573154
-0.045568
-0.0579958
-0.0784519
-0.0806183
-0.0987307
-0.178676
-0.311234
-0.415334
-0.188401
0.0889936
0.106709
0.111537
0.088826
0.0762965
0.0594607
0.0598258
0.0534049
0.0604284
-0.0115192
-0.00879104
-0.0248345
-0.0261796
-0.0150534
0.0613116
0.0523564
-0.0338424
-0.0536651
-0.0716608
-0.0703974
-0.0571561
-0.0414489
-0.0407196
-0.0444594
-0.0888466
-0.107864
-0.135716
-0.306658
-0.416473
-0.198143
0.0792108
0.0840209
0.0963396
0.0819837
0.0729546
0.0590494
0.0581936
0.0517847
0.0557005
-0.0099649
-0.0254159
-0.0234785
-0.015891
-0.0099276
0.0658416
0.0709891
0.0258238
-0.0576713
-0.101962
-0.0862954
-0.0509181
-0.0408625
-0.0220287
-0.0478209
-0.0927192
-0.114453
-0.142861
-0.287211
-0.401335
-0.191533
0.0303338
0.0636843
0.084505
0.0777159
0.0695457
0.0583276
0.0565684
0.0502307
0.0512829
-0.00604975
-0.0230896
-0.034698
-0.0187136
-0.0286011
-0.027177
0.0800247
-0.0565048
-0.0636831
0.611098
-0.0242883
-0.0340538
-0.042244
-0.0227089
0.013017
-0.0981231
-0.117582
-0.143765
-0.261436
-0.360083
-0.183578
0.00904941
0.0525302
0.0706695
0.0760101
0.0660929
0.057276
0.0549092
0.0486989
0.0471787
-0.00199712
-0.0205594
-0.0463849
-0.0352358
-0.0239474
-0.0131935
-0.0186237
-0.0390199
-0.0629607
0.0266159
1.15339
0.079926
-0.0567121
-0.0484894
-0.0679528
-0.0922234
-0.11127
-0.0836357
-0.221029
-0.270731
-0.145801
-0.0394776
0.0304294
0.0518008
0.0640485
0.062623
0.0558777
0.0531692
0.0471284
0.0433733
0.00143797
-0.0178651
-0.048963
-0.034712
-0.0190321
-0.00476052
0.000222736
-0.0127514
-0.0486832
0.360346
1.00099
1.0562
-0.0855599
-0.0575858
-0.0519706
-0.0774165
-0.0968272
-0.10495
-0.143142
-0.218896
-0.100293
-0.0486985
0.0172456
0.0451513
0.0584284
0.0591186
0.0541213
0.0512935
0.0454514
0.0398421
0.00416153
-0.0151177
-0.0564012
-0.0426642
-0.0265655
-0.00851169
-0.00173459
0.00560986
0.0174576
0.480831
0.83061
0.13808
-0.0728866
0.0192886
0.148751
-0.0720228
-0.0846052
-0.100921
0.0340184
-0.12219
-0.0650142
-0.0523454
0.00706494
0.0396844
0.0537557
0.0555429
0.0520102
0.0492218
0.0436013
0.0365544
0.00618528
-0.0124048
-0.0685839
-0.065368
-0.0420527
-0.0375767
-0.0282683
-0.0266241
0.299943
0.969533
0.282286
0.0252566
-0.0132185
0.123076
0.100085
-0.0713145
-0.0726105
-0.0779317
0.0913566
-0.0187886
-0.0241588
-0.00537128
0.00181332
0.0355801
0.0503363
0.0518892
0.0495696
0.0469064
0.0415312
0.0334915
0.00759203
-0.00979673
-0.0595195
0.0171424
0.0312346
-0.0431712
-0.0429784
-0.0486996
-0.0581257
0.521381
0.126131
0.122895
-0.0429154
0.0287831
-0.0728803
-0.06601
-0.0605671
-0.0540958
0.0156785
0.0966245
0.0873714
-0.030801
0.00175062
0.0328239
0.0487922
0.048238
0.0468373
0.0443358
0.039223
0.0306293
0.00848877
-0.00736254
-0.0123546
0.00754699
-0.042274
-0.0514743
-0.0465037