/*--------------------------------*- C++ -*----------------------------------*\
| =========                 |                                                 |
| \\      /  F ield         | OpenFOAM: The Open Source CFD Toolbox           |
|  \\    /   O peration     | Version:  2.4.0                                 |
|   \\  /    A nd           | Web:      www.OpenFOAM.org                      |
|    \\/     M anipulation  |                                                 |
\*---------------------------------------------------------------------------*/
FoamFile
{
    version     2.0;
    format      ascii;
    class       volVectorField;
    location    "0.119";
    object      U;
}
// * * * * * * * * * * * * * * * * * * * * * * * * * * * * * * * * * * * * * //

dimensions      [0 1 -1 0 0 0 0];

internalField   nonuniform List<vector> 
57600
(
(-0.00526738 0.000283123 0)
(-0.00768284 9.8427e-06 0)
(-0.00657796 -8.56669e-05 0)
(0.00054784 -0.000172696 0)
(0.0108873 -0.000196445 0)
(0.0207754 -0.000179649 0)
(0.0298214 -0.00019262 0)
(0.0384108 -0.000184362 0)
(0.0446482 -8.6712e-05 0)
(0.0460097 9.04075e-05 0)
(0.0423114 0.000274799 0)
(0.034111 0.00051093 0)
(0.0214129 0.000728289 0)
(0.00643025 0.000761741 0)
(-0.00709549 0.000617314 0)
(-0.0170874 0.000423728 0)
(-0.0234948 0.000247666 0)
(-0.0269713 9.61514e-05 0)
(-0.0282348 -3.23521e-05 0)
(-0.0278875 -0.000146717 0)
(-0.0264007 -0.000246437 0)
(-0.0241427 -0.000332732 0)
(-0.0214144 -0.000404902 0)
(-0.0184459 -0.000463636 0)
(-0.0154026 -0.000510811 0)
(-0.0123943 -0.000549116 0)
(-0.00949257 -0.000579153 0)
(-0.00674985 -0.000600311 0)
(-0.00420737 -0.000611061 0)
(-0.00188846 -0.000613555 0)
(-0.00804014 0.00142726 0)
(-0.0193478 0.000234306 0)
(-0.0189216 -0.000610906 0)
(-0.00823116 -0.00139287 0)
(0.00847685 -0.00170472 0)
(0.0257214 -0.00175643 0)
(0.0427927 -0.00192071 0)
(0.0591677 -0.00181124 0)
(0.0718677 -0.00104481 0)
(0.0775815 0.000199295 0)
(0.0762902 0.00148115 0)
(0.0687533 0.00307359 0)
(0.0549673 0.00465131 0)
(0.0372394 0.00531292 0)
(0.019617 0.00489288 0)
(0.00501952 0.00390299 0)
(-0.00569379 0.00275635 0)
(-0.0127674 0.00162538 0)
(-0.0167985 0.000584852 0)
(-0.0184738 -0.000337521 0)
(-0.018452 -0.00112866 0)
(-0.0173028 -0.0017791 0)
(-0.01548 -0.00229394 0)
(-0.0133171 -0.00269163 0)
(-0.0110434 -0.00299458 0)
(-0.00880554 -0.00322338 0)
(-0.00668623 -0.00338787 0)
(-0.00472797 -0.00348943 0)
(-0.00294673 -0.00353259 0)
(-0.00134169 -0.00353337 0)
(-0.00856903 0.00278732 0)
(-0.0216121 0.000663928 0)
(-0.0222595 -0.00102484 0)
(-0.0121148 -0.00266554 0)
(0.00456656 -0.0034115 0)
(0.0220413 -0.00361467 0)
(0.0396818 -0.00401387 0)
(0.0569566 -0.0039051 0)
(0.0708558 -0.00257352 0)
(0.0780021 -0.000294382 0)
(0.0784736 0.00204366 0)
(0.0730584 0.00493621 0)
(0.0616301 0.00792118 0)
(0.0465172 0.00938852 0)
(0.031604 0.00893886 0)
(0.0194121 0.00737608 0)
(0.0105207 0.00547394 0)
(0.00447002 0.00357249 0)
(0.000636508 0.0018054 0)
(-0.00152474 0.000239069 0)
(-0.00248404 -0.00108521 0)
(-0.00264277 -0.00214735 0)
(-0.00232875 -0.00295386 0)
(-0.00180146 -0.00353005 0)
(-0.00125694 -0.00391145 0)
(-0.000827919 -0.00414111 0)
(-0.000576958 -0.00426095 0)
(-0.000497433 -0.00430594 0)
(-0.000534344 -0.00430593 0)
(-0.000619942 -0.0042865 0)
(-0.008762 0.00419255 0)
(-0.0220543 0.00113175 0)
(-0.0229022 -0.00140593 0)
(-0.0128076 -0.0039306 0)
(0.00395168 -0.00511968 0)
(0.0214019 -0.00547811 0)
(0.0390805 -0.0061402 0)
(0.0565485 -0.00606064 0)
(0.0707465 -0.00418126 0)
(0.078034 -0.000878801 0)
(0.0787136 0.00245 0)
(0.0736969 0.00659497 0)
(0.0624029 0.0109813 0)
(0.0471881 0.0131785 0)
(0.0323682 0.0126017 0)
(0.0205745 0.010423 0)
(0.0122167 0.00780834 0)
(0.0066133 0.00527484 0)
(0.00300343 0.00296626 0)
(0.000837528 0.000937123 0)
(-0.000288176 -0.000767791 0)
(-0.000697961 -0.00212225 0)
(-0.00065992 -0.00312291 0)
(-0.000396167 -0.00378884 0)
(-8.71406e-05 -0.00415187 0)
(0.000127793 -0.0042652 0)
(0.000165687 -0.00420769 0)
(1.82503e-05 -0.00407615 0)
(-0.000254128 -0.00395797 0)
(-0.000564959 -0.00389781 0)
(-0.00895415 0.00562192 0)
(-0.0222805 0.00160419 0)
(-0.0232051 -0.00178021 0)
(-0.0130707 -0.00520414 0)
(0.00384072 -0.0068358 0)
(0.021273 -0.00733614 0)
(0.0389648 -0.00828009 0)
(0.0566315 -0.00825322 0)
(0.0711961 -0.00582849 0)
(0.0786036 -0.00146625 0)
(0.0794005 0.00281214 0)
(0.0747298 0.00820972 0)
(0.0632798 0.0141254 0)
(0.0473292 0.0171036 0)
(0.0318006 0.0163374 0)
(0.0196384 0.0134636 0)
(0.0111581 0.0101019 0)
(0.00549305 0.00695195 0)
(0.00179447 0.00414349 0)
(-0.000503138 0.00169447 0)
(-0.00179075 -0.000359816 0)
(-0.0023715 -0.00199312 0)
(-0.00248435 -0.00319928 0)
(-0.00231027 -0.00399095 0)
(-0.00199345 -0.00439456 0)
(-0.0016452 -0.00446281 0)
(-0.00134307 -0.00429585 0)
(-0.00111944 -0.0040409 0)
(-0.00096073 -0.0038395 0)
(-0.000832408 -0.00375789 0)
(-0.0091958 0.00707886 0)
(-0.0225266 0.00207645 0)
(-0.0235332 -0.00214995 0)
(-0.0133422 -0.00649033 0)
(0.00376703 -0.00856392 0)
(0.0211693 -0.00918555 0)
(0.0388666 -0.0104349 0)
(0.056775 -0.0104923 0)
(0.0718219 -0.00752979 0)
(0.0793766 -0.00205097 0)
(0.0803031 0.00312348 0)
(0.0761357 0.00977051 0)
(0.0645062 0.0174091 0)
(0.0475843 0.0212617 0)
(0.0311242 0.0202457 0)
(0.0184888 0.0165794 0)
(0.00988521 0.0124205 0)
(0.00419243 0.00865286 0)
(0.000458746 0.00535721 0)
(-0.00188455 0.00250354 0)
(-0.00322842 0.00011424 0)
(-0.00388457 -0.00178686 0)
(-0.00408071 -0.00320207 0)
(-0.00397964 -0.00415128 0)
(-0.00368483 -0.00466835 0)
(-0.00326303 -0.00480858 0)
(-0.00276147 -0.00467913 0)
(-0.00221659 -0.0044432 0)
(-0.00165842 -0.00425889 0)
(-0.00111164 -0.00419966 0)
(-0.00949716 0.00857016 0)
(-0.0228196 0.00254755 0)
(-0.0239318 -0.00251404 0)
(-0.0136733 -0.00779233 0)
(0.00368402 -0.0103074 0)
(0.0210414 -0.0110229 0)
(0.0387397 -0.0126078 0)
(0.0569354 -0.0127891 0)
(0.0725942 -0.0093019 0)
(0.0803096 -0.00262429 0)
(0.0813551 0.003369 0)
(0.0779082 0.0112495 0)
(0.0660803 0.0208771 0)
(0.0479073 0.0257201 0)
(0.0302774 0.024367 0)
(0.0170932 0.0197709 0)
(0.00842007 0.0147412 0)
(0.00277616 0.0103495 0)
(-0.000922315 0.00657004 0)
(-0.00322289 0.00330892 0)
(-0.00450147 0.000583985 0)
(-0.00508128 -0.00157935 0)
(-0.00521529 -0.00319396 0)
(-0.00506698 -0.00430383 0)
(-0.00472485 -0.00496496 0)
(-0.00422951 -0.00524586 0)
(-0.00360312 -0.00525474 0)
(-0.00287659 -0.00514266 0)
(-0.00209854 -0.00505157 0)
(-0.00132257 -0.00504814 0)
(-0.00986435 0.0101035 0)
(-0.0231599 0.00301677 0)
(-0.0244071 -0.00287087 0)
(-0.0140704 -0.00911339 0)
(0.00359145 -0.0120701 0)
(0.0208847 -0.0128439 0)
(0.038578 -0.014802 0)
(0.057103 -0.0151551 0)
(0.07352 -0.0111643 0)
(0.0813996 -0.0031695 0)
(0.0825197 0.00352806 0)
(0.0800949 0.012608 0)
(0.0680557 0.0245914 0)
(0.0482847 0.0305615 0)
(0.0292036 0.0287478 0)
(0.0153841 0.0230356 0)
(0.00671059 0.0170382 0)
(0.00117705 0.012022 0)
(-0.00245875 0.00776276 0)
(-0.00468166 0.0040761 0)
(-0.00583065 0.000993372 0)
(-0.00624385 -0.00144266 0)
(-0.0062048 -0.00325718 0)
(-0.00589798 -0.00452493 0)
(-0.00541928 -0.00533162 0)
(-0.00480625 -0.00576902 0)
(-0.00407312 -0.00594683 0)
(-0.00324467 -0.0059938 0)
(-0.00236732 -0.00602326 0)
(-0.00149586 -0.0060895 0)
(-0.0103045 0.0116871 0)
(-0.0235441 0.00348327 0)
(-0.0249615 -0.00321858 0)
(-0.0145356 -0.0104569 0)
(0.00349334 -0.0138572 0)
(0.0206968 -0.0146433 0)
(0.0383768 -0.0170206 0)
(0.0572666 -0.0176015 0)
(0.0746082 -0.0131416 0)
(0.082646 -0.00365779 0)
(0.0837455 0.00356975 0)
(0.0827625 0.0137905 0)
(0.0705053 0.0286436 0)
(0.0487023 0.0358856 0)
(0.0278469 0.0334411 0)
(0.0133006 0.0263645 0)
(0.00474162 0.0192789 0)
(-0.000609926 0.0136587 0)
(-0.00417821 0.00893138 0)
(-0.00632061 0.00479188 0)
(-0.00730806 0.00131344 0)
(-0.00750079 -0.0014219 0)
(-0.00722478 -0.00344769 0)
(-0.0066957 -0.00487111 0)
(-0.00602602 -0.00581419 0)
(-0.00526181 -0.00639479 0)
(-0.00441972 -0.00672765 0)
(-0.00351861 -0.00692315 0)
(-0.00259227 -0.00706947 0)
(-0.00168011 -0.00720875 0)
(-0.0108262 0.01333 0)
(-0.0239677 0.00394603 0)
(-0.0255975 -0.00355512 0)
(-0.0150716 -0.0118264 0)
(0.00339486 -0.0156744 0)
(0.0204748 -0.0164144 0)
(0.0381309 -0.019267 0)
(0.0574122 -0.020139 0)
(0.0758664 -0.0152674 0)
(0.0840487 -0.00404116 0)
(0.0849578 0.00344635 0)
(0.0859812 0.0147209 0)
(0.0735202 0.0331745 0)
(0.0491315 0.0418124 0)
(0.0261376 0.0385071 0)
(0.010762 0.0297361 0)
(0.00251 0.0214158 0)
(-0.0025691 0.0152511 0)
(-0.00608811 0.0100827 0)
(-0.00816686 0.0054521 0)
(-0.00896949 0.00152435 0)
(-0.00889689 -0.00154606 0)
(-0.00833776 -0.00379682 0)
(-0.00754828 -0.00537304 0)
(-0.00666021 -0.00643746 0)
(-0.00572984 -0.00713482 0)
(-0.00477691 -0.00758987 0)
(-0.00381276 -0.0079051 0)
(-0.00285281 -0.00815363 0)
(-0.00191463 -0.00836997 0)
(-0.0114402 0.0150421 0)
(-0.0244243 0.00440367 0)
(-0.0263183 -0.00387814 0)
(-0.0156811 -0.0132254 0)
(0.00330214 -0.0175291 0)
(0.0202146 -0.0181487 0)
(0.0378347 -0.0215446 0)
(0.0575215 -0.0227773 0)
(0.0772959 -0.0175928 0)
(0.0856065 -0.00424274 0)
(0.0860416 0.00308105 0)
(0.0896601 0.0153016 0)
(0.0772428 0.0383885 0)
(0.0495246 0.0484794 0)
(0.0239924 0.0440158 0)
(0.00765372 0.0331086 0)
(2.76985e-05 0.0233781 0)
(-0.00466925 0.0167969 0)
(-0.00819399 0.0112361 0)
(-0.0102505 0.00605808 0)
(-0.0108463 0.0016046 0)
(-0.0104521 -0.00184404 0)
(-0.00955977 -0.0043301 0)
(-0.00847632 -0.00605003 0)
(-0.00735153 -0.00721305 0)
(-0.00624773 -0.00799312 0)
(-0.00518523 -0.00852936 0)
(-0.00416704 -0.00892814 0)
(-0.00318709 -0.00926152 0)
(-0.00223421 -0.00956443 0)
(-0.0121593 0.016834 0)
(-0.0249062 0.00485442 0)
(-0.0271276 -0.00418498 0)
(-0.0163676 -0.0146575 0)
(0.00322237 -0.0194304 0)
(0.0199108 -0.0198354 0)
(0.0374818 -0.0238576 0)
(0.0575711 -0.0255244 0)
(0.0788842 -0.0202022 0)
(0.0873127 -0.00414638 0)
(0.0868299 0.00234765 0)
(0.0930989 0.0153842 0)
(0.0820639 0.0445222 0)
(0.0498372 0.0560342 0)
(0.0213181 0.0500486 0)
(0.00380703 0.0364056 0)
(-0.00266251 0.0250625 0)
(-0.00685664 0.0183069 0)
(-0.0105039 0.0124303 0)
(-0.0126176 0.00661555 0)
(-0.0129723 0.00152607 0)
(-0.0121793 -0.00235151 0)
(-0.0108898 -0.00507647 0)
(-0.00947314 -0.00692025 0)
(-0.00809003 -0.00815079 0)
(-0.00680334 -0.0089723 0)
(-0.00563187 -0.00954006 0)
(-0.00457438 -0.00997435 0)
(-0.00360708 -0.0103669 0)
(-0.00268075 -0.0107702 0)
(-0.0129991 0.0187179 0)
(-0.0254033 0.00529576 0)
(-0.02803 -0.00447265 0)
(-0.0171351 -0.0161263 0)
(0.00316399 -0.0213903 0)
(0.0195555 -0.0214609 0)
(0.037066 -0.0262119 0)
(0.0575312 -0.0283865 0)
(0.08059 -0.0232429 0)
(0.0891539 -0.00358531 0)
(0.0871937 0.00108541 0)
(0.0961387 0.0146228 0)
(0.0888416 0.0517491 0)
(0.0500972 0.0646352 0)
(0.018011 0.0567034 0)
(-0.00103169 0.0394914 0)
(-0.00545801 0.0263248 0)
(-0.00904652 0.0198171 0)
(-0.0130322 0.0137345 0)
(-0.0153369 0.00713561 0)
(-0.0153978 0.00124621 0)
(-0.014092 -0.00311941 0)
(-0.0123182 -0.00607026 0)
(-0.0105181 -0.0080068 0)
(-0.00884958 -0.0092642 0)
(-0.00736231 -0.0100799 0)
(-0.0060711 -0.0106189 0)
(-0.00498713 -0.0110093 0)
(-0.00411719 -0.0113757 0)
(-0.003398 -0.0118543 0)
(-0.0139784 0.0207064 0)
(-0.0259029 0.0057239 0)
(-0.0290311 -0.00473778 0)
(-0.0179879 -0.0176353 0)
(0.00313654 -0.0234246 0)
(0.0191385 -0.0230082 0)
(0.0365806 -0.0286165 0)
(0.0573626 -0.0313661 0)
(0.0823142 -0.0269709 0)
(0.0911405 -0.00231482 0)
(0.0870256 -0.000810727 0)
(0.100839 0.0125254 0)
(0.0978132 0.0606028 0)
(0.050418 0.0744115 0)
(0.0139697 0.0641162 0)
(-0.00729126 0.0421099 0)
(-0.00817047 0.0269674 0)
(-0.0111138 0.0214094 0)
(-0.0158054 0.0152639 0)
(-0.0185229 0.0076355 0)
(-0.0181897 0.000694126 0)
(-0.0161914 -0.00421817 0)
(-0.0138204 -0.00736019 0)
(-0.0115812 -0.00933479 0)
(-0.00959594 -0.0105722 0)
(-0.00788163 -0.0113346 0)
(-0.00643475 -0.0117862 0)
(-0.00526557 -0.0120233 0)
(-0.00444011 -0.0121349 0)
(-0.00397705 -0.0125042 0)
(-0.0151191 0.0228137 0)
(-0.0263896 0.00613311 0)
(-0.0301376 -0.00497658 0)
(-0.0189312 -0.0191876 0)
(0.00315086 -0.0255549 0)
(0.0186451 -0.024456 0)
(0.0360192 -0.0310866 0)
(0.0570124 -0.0344624 0)
(0.0838337 -0.0318078 0)
(0.0934227 8.42774e-05 0)
(0.0859677 -0.0035943 0)
(0.100586 0.0092844 0)
(0.107428 0.0740535 0)
(0.0517309 0.0856678 0)
(0.00919585 0.0724665 0)
(-0.0158445 0.0440574 0)
(-0.0103652 0.0267222 0)
(-0.0128923 0.0232358 0)
(-0.0188662 0.0172089 0)
(-0.0223654 0.00813531 0)
(-0.021435 -0.000252769 0)
(-0.0184615 -0.00574934 0)
(-0.015355 -0.0089956 0)
(-0.0126241 -0.0109316 0)
(-0.0102938 -0.0120947 0)
(-0.00832577 -0.0127631 0)
(-0.00668093 -0.0131043 0)
(-0.00528431 -0.0132223 0)
(-0.00391229 -0.0132336 0)
(-0.00222473 -0.0135132 0)
(-0.0164477 0.0250552 0)
(-0.026844 0.00651461 0)
(-0.0313575 -0.00518484 0)
(-0.0199703 -0.0207866 0)
(0.00321889 -0.0278105 0)
(0.0180549 -0.0257789 0)
(0.0353758 -0.0336473 0)
(0.0563944 -0.0376803 0)
(0.0842614 -0.0383051 0)
(0.0957503 0.00426508 0)
(0.0838046 -0.00818203 0)
(0.102098 0.00547441 0)
(0.121545 0.0946439 0)
(0.0550004 0.0998018 0)
(0.00385503 0.0816854 0)
(-0.0281985 0.0449664 0)
(-0.0106737 0.0256303 0)
(-0.0141931 0.0255485 0)
(-0.0222594 0.0198837 0)
(-0.0272004 0.00865546 0)
(-0.0252401 -0.00181745 0)
(-0.0208398 -0.00784868 0)
(-0.0168497 -0.0110238 0)
(-0.0135984 -0.0128142 0)
(-0.0109105 -0.0138485 0)
(-0.00866801 -0.0143857 0)
(-0.00682722 -0.0145911 0)
(-0.00534045 -0.0146908 0)
(-0.00399022 -0.0152779 0)
(-0.00225309 -0.0169901 0)
(-0.0179952 0.0274473 0)
(-0.0272426 0.00685527 0)
(-0.0327008 -0.00535786 0)
(-0.021111 -0.022435 0)
(0.00335362 -0.0302312 0)
(0.0173389 -0.0269458 0)
(0.034644 -0.0363404 0)
(0.0554076 -0.0410863 0)
(0.0780355 -0.0459169 0)
(0.0957207 0.0098789 0)
(0.0812255 -0.0133287 0)
(0.111278 0.00406737 0)
(0.134043 0.106001 0)
(0.0504458 0.116128 0)
(-0.00101597 0.0910617 0)
(-0.0343001 0.0418928 0)
(-0.00707926 0.0248601 0)
(-0.0148461 0.0286488 0)
(-0.0260272 0.0238463 0)
(-0.0336753 0.00919369 0)
(-0.0297011 -0.00441877 0)
(-0.0231725 -0.0106834 0)
(-0.0181941 -0.0134666 0)
(-0.0144532 -0.0149782 0)
(-0.0114185 -0.0158442 0)
(-0.00887164 -0.016224 0)
(-0.00679249 -0.0162029 0)
(-0.00529225 -0.0159503 0)
(-0.00457639 -0.0160091 0)
(-0.00485909 -0.0171065 0)
(-0.0197981 0.0300076 0)
(-0.0275568 0.00713602 0)
(-0.0341793 -0.00549059 0)
(-0.0223594 -0.0241352 0)
(0.00356992 -0.0328668 0)
(0.0164552 -0.0279211 0)
(0.0338161 -0.0392354 0)
(0.0542176 -0.0446428 0)
(0.0714102 -0.0496258 0)
(0.0932033 0.0150381 0)
(0.0861047 -0.00986447 0)
(0.109231 -0.00469913 0)
(0.149542 0.10565 0)
(0.0318958 0.131257 0)
(-0.00677795 0.0989085 0)
(-8.3766e-05 0.0234187 0)
(0.000241793 0.0287925 0)
(-0.01474 0.0325781 0)
(-0.0303155 0.0301436 0)
(-0.0427301 0.0096173 0)
(-0.0347113 -0.00882609 0)
(-0.0251246 -0.0144082 0)
(-0.0192364 -0.0162747 0)
(-0.0151491 -0.0173808 0)
(-0.011819 -0.0180853 0)
(-0.00892153 -0.0183417 0)
(-0.00642923 -0.0180823 0)
(-0.00448618 -0.0173136 0)
(-0.00329436 -0.0167422 0)
(-0.00227782 -0.016809 0)
(-0.0218998 0.0327553 0)
(-0.0277513 0.0073299 0)
(-0.0358075 -0.0055776 0)
(-0.0237211 -0.0258893 0)
(0.00388445 -0.0357983 0)
(0.0153441 -0.0286637 0)
(0.0328803 -0.0424461 0)
(0.0525444 -0.0480474 0)
(0.0891579 -0.0495265 0)
(0.0847092 0.018159 0)
(0.0929061 -0.00298804 0)
(0.0724368 -0.0244422 0)
(0.293609 0.081975 0)
(-0.0171116 0.138413 0)
(-0.0100025 0.104141 0)
(0.0219918 -0.00276929 0)
(6.64192e-05 0.0393163 0)
(-0.0138375 0.0366359 0)
(-0.0344019 0.0401361 0)
(-0.0540628 0.00966291 0)
(-0.0392761 -0.0161906 0)
(-0.0260663 -0.0189859 0)
(-0.0198103 -0.0192622 0)
(-0.0156886 -0.019922 0)
(-0.0121671 -0.0205585 0)
(-0.00889352 -0.0208267 0)
(-0.00581253 -0.0205194 0)
(-0.00293938 -0.0194876 0)
(-0.000342038 -0.0181908 0)
(0.00202736 -0.0199711 0)
(-0.0243517 0.0357107 0)
(-0.0277826 0.00739961 0)
(-0.0376029 -0.00561339 0)
(-0.0252007 -0.0276988 0)
(0.00431585 -0.0391386 0)
(0.0139196 -0.0291266 0)
(0.0318164 -0.046152 0)
(0.0507525 -0.0513842 0)
(0.11126 -0.060952 0)
(0.0693657 0.0165871 0)
(0.0802508 0.00462039 0)
(-0.157528 -0.00969404 0)
(-0.567464 -0.0102648 0)
(0.0320874 0.152911 0)
(-0.0117431 0.107088 0)
(-0.00791576 -0.0108725 0)
(-0.0174806 0.0475202 0)
(-0.0113018 0.0393519 0)
(-0.0337615 0.054281 0)
(-0.0592189 0.00842453 0)
(-0.0387968 -0.0265249 0)
(-0.0251314 -0.0237761 0)
(-0.019865 -0.0220391 0)
(-0.0161623 -0.0224485 0)
(-0.0125853 -0.0232245 0)
(-0.00896343 -0.0237192 0)
(-0.00528446 -0.0236772 0)
(-0.00148898 -0.0230137 0)
(0.0025093 -0.0221236 0)
(0.00615687 -0.0229169 0)
(-0.0272146 0.0388957 0)
(-0.0275966 0.00729445 0)
(-0.0395876 -0.00559269 0)
(-0.0268014 -0.0295654 0)
(0.0048887 -0.0430491 0)
(0.012058 -0.0292523 0)
(0.0305921 -0.0506275 0)
(0.0480906 -0.0545654 0)
(0.114833 -0.0691948 0)
(0.0532525 0.0136555 0)
(-0.00917396 0.0272195 0)
(1.17316 -0.342665 0)
(0.435382 0.567002 0)
(-0.147367 0.147534 0)
(-0.0351898 0.0907595 0)
(-0.0259849 -0.00915395 0)
(-0.04313 0.0440513 0)
(-0.00383891 0.0389579 0)
(-0.0205593 0.0707422 0)
(-0.048698 0.0054438 0)
(-0.0263942 -0.034432 0)
(-0.0219022 -0.0269328 0)
(-0.0196661 -0.0240759 0)
(-0.0167841 -0.0248057 0)
(-0.0132504 -0.0260321 0)
(-0.00933554 -0.026982 0)
(-0.00517987 -0.0274385 0)
(-0.00081669 -0.0274096 0)
(0.0037394 -0.02715 0)
(0.00815373 -0.027503 0)
(-0.0305613 0.0423332 0)
(-0.0271253 0.00694555 0)
(-0.0417884 -0.00551114 0)
(-0.0285234 -0.0314909 0)
(0.00564485 -0.0477682 0)
(0.00957763 -0.0289616 0)
(0.0291161 -0.0561785 0)
(0.0448048 -0.0575571 0)
(0.0855801 -0.0560811 0)
(0.0162977 0.0111938 0)
(0.00943543 0.00429488 0)
(0.893107 -0.258757 0)
(0.440006 0.888595 0)
(0.157022 0.218755 0)
(-0.0536133 0.107008 0)
(-0.0488858 0.0165559 0)
(-0.0681312 0.0295678 0)
(0.0156095 0.0348782 0)
(0.00849561 0.0860767 0)
(-0.0277066 0.0109447 0)
(-0.0161909 -0.0435471 0)
(-0.0181613 -0.0260887 0)
(-0.0199351 -0.0250336 0)
(-0.0178722 -0.0269366 0)
(-0.0143553 -0.0289591 0)
(-0.0101672 -0.0305563 0)
(-0.00563608 -0.0316243 0)
(-0.000914041 -0.0322411 0)
(0.00390319 -0.0325909 0)
(0.00861944 -0.0330435 0)
(-0.0344789 0.0460467 0)
(-0.0262834 0.00625856 0)
(-0.0442391 -0.00536615 0)
(-0.0303621 -0.0334788 0)
(0.00666753 -0.0536387 0)
(0.00621344 -0.0281392 0)
(0.0252112 -0.0621488 0)
(0.0398026 -0.0593477 0)
(0.0048305 -0.0325342 0)
(-0.213124 0.0156955 0)
(1.09989 -0.356532 0)
(0.665384 -0.173093 0)
(0.458059 1.06985 0)
(-0.147952 -0.616033 0)
(-0.0959217 0.0944115 0)
(-0.065257 0.04291 0)
(-0.100508 0.0088154 0)
(0.0477917 0.0190156 0)
(0.0456905 0.0998183 0)
(0.0119652 0.0232719 0)
(-0.00416159 -0.0476395 0)
(-0.017595 -0.0214877 0)
(-0.0215195 -0.0251762 0)
(-0.0197476 -0.0289579 0)
(-0.0160698 -0.0320484 0)
(-0.0115544 -0.0344209 0)
(-0.00667476 -0.0361361 0)
(-0.00166798 -0.0373509 0)
(0.00334906 -0.0382583 0)
(0.00831977 -0.0390725 0)
(-0.0390725 0.0500586 0)
(-0.0249621 0.00509931 0)
(-0.0469816 -0.0051581 0)
(-0.0323063 -0.0355354 0)
(0.0080044 -0.0611111 0)
(0.0015948 -0.0267096 0)
(0.00986645 -0.0648616 0)
(0.0304285 -0.0625826 0)
(-0.154772 0.00315071 0)
(1.13152 -0.257714 0)
(0.830239 -0.231254 0)
(0.444257 -0.101935 0)
(0.578616 1.03151 0)
(-0.337515 -0.0710592 0)
(0.0481923 0.183844 0)
(-0.204619 0.0317123 0)
(-0.139665 -0.0263862 0)
(0.0104427 -0.0489776 0)
(0.0738201 0.125519 0)
(0.0405966 0.0350331 0)
(0.00454759 -0.0320763 0)
(-0.0220018 -0.0157606 0)
(-0.0247925 -0.0252786 0)
(-0.0226049 -0.0311151 0)
(-0.0184974 -0.0354129 0)
(-0.0135331 -0.038614 0)
(-0.00826362 -0.0409551 0)
(-0.00298173 -0.0426868 0)
(0.00216181 -0.0440924 0)
(0.00715156 -0.0454975 0)
(-0.0444711 0.0543897 0)
(-0.0230203 0.00326583 0)
(-0.0500683 -0.00489183 0)
(-0.0343353 -0.0376719 0)
(0.00769128 -0.0700829 0)
(-0.00478933 -0.0247998 0)
(-0.0098709 -0.0625655 0)
(-0.000388469 -0.0638835 0)
(0.237345 -0.0823577 0)
(0.753383 -0.240922 0)
(0.489769 -0.136719 0)
(0.266965 -0.0586118 0)
(0.747765 0.734701 0)
(-0.100336 0.339965 0)
(-1.16249 -0.174725 0)
(-0.191497 0.0849761 0)
(-0.161081 -0.0564273 0)
(-0.0789179 -0.0593274 0)
(0.0344215 0.142593 0)
(0.0360927 0.0408449 0)
(-0.0119791 -0.00262872 0)
(-0.0301653 -0.0125227 0)
(-0.0296221 -0.0260349 0)
(-0.0264724 -0.0336828 0)
(-0.0216649 -0.039199 0)
(-0.0160887 -0.04322 0)
(-0.0103293 -0.0461249 0)
(-0.00469377 -0.048258 0)
(0.000648905 -0.0499094 0)
(0.00538165 -0.0512278 0)
(-0.0508322 0.0590627 0)
(-0.020271 0.000507439 0)
(-0.0535645 -0.00457817 0)
(-0.0364171 -0.0399073 0)
(-0.00255022 -0.0777167 0)
(-0.0136219 -0.0224783 0)
(-0.0356479 -0.0553969 0)
(-0.130874 -0.0380344 0)
(1.44506 -0.231163 0)
(0.441674 -0.168284 0)
(0.268996 -0.103237 0)
(0.125933 -0.0338612 0)
(0.467625 0.428071 0)
(0.0959198 0.639068 0)
(-0.74121 -0.435365 0)
(0.0839216 0.227019 0)
(-0.165806 -0.0247249 0)
(-0.147888 -0.0725554 0)
(-0.0478737 0.11571 0)
(-0.0147212 0.0362512 0)
(-0.0457829 0.0150088 0)
(-0.0393279 -0.0135741 0)
(-0.0357845 -0.0277517 0)
(-0.0314284 -0.036869 0)
(-0.0256218 -0.0435957 0)
(-0.0191621 -0.0483779 0)
(-0.0127703 -0.0517404 0)
(-0.00666754 -0.0542256 0)
(-0.000868526 -0.0561163 0)
(0.00434031 -0.0570791 0)
(-0.0583472 0.0641123 0)
(-0.0164655 -0.00338054 0)
(-0.0575516 -0.00423576 0)
(-0.0385094 -0.0422648 0)
(-0.0222158 -0.0825163 0)
(-0.0249335 -0.0203697 0)
(-0.107142 -0.0392613 0)
(1.40924 -0.219385 0)
(0.689595 -0.162854 0)
(0.244423 -0.106359 0)
(0.155603 -0.0906444 0)
(0.0303864 -0.0179138 0)
(0.302483 0.172467 0)
(0.644583 0.71497 0)
(-0.163419 -0.13583 0)
(-0.305494 -0.655873 0)
(-0.102148 0.041495 0)
(-0.188948 -0.0913041 0)
(-0.146419 0.0820988 0)
(-0.119687 0.0356731 0)
(-0.0662298 0.00780968 0)
(-0.0487584 -0.0172387 0)
(-0.042943 -0.0304463 0)
(-0.0374118 -0.0408448 0)
(-0.030167 -0.0489049 0)
(-0.0225349 -0.054265 0)
(-0.0154103 -0.0578707 0)
(-0.0089135 -0.0605963 0)
(-0.00308295 -0.0625248 0)
(0.00151463 -0.0625363 0)
(-0.0672442 0.0695686 0)
(-0.0112536 -0.00860525 0)
(-0.0621302 -0.00389378 0)
(-0.0405057 -0.0447944 0)
(-0.0454451 -0.0859809 0)
(-0.0373767 -0.0190096 0)
(0.254159 -0.122851 0)
(0.972819 -0.187147 0)
(0.423819 -0.0878597 0)
(0.146182 -0.0757026 0)
(0.0941574 -0.0827553 0)
(-0.0191641 -0.00438611 0)
(-0.0584755 0.0569487 0)
(0.629837 0.862997 0)
(0.295876 0.111161 0)
(-0.315239 -0.269235 0)
(0.0622661 0.163315 0)
(-0.212494 -0.130835 0)
(-0.160532 0.0358082 0)
(-0.134692 0.0148019 0)
(-0.0741067 -0.00550078 0)
(-0.0576078 -0.0228257 0)
(-0.0497752 -0.0338704 0)
(-0.0431744 -0.0458032 0)
(-0.0345278 -0.0552993 0)
(-0.0257798 -0.0609649 0)
(-0.0179888 -0.0644539 0)
(-0.0114162 -0.0669682 0)
(-0.00616257 -0.0682053 0)
(-0.00247615 -0.066737 0)
(-0.0777416 0.0754395 0)
(-0.0041334 -0.0154497 0)
(-0.0674234 -0.003596 0)
(-0.0423519 -0.0475913 0)
(-0.0861554 -0.0815489 0)
(-0.0455216 -0.0116064 0)
(0.702993 -0.258819 0)
(0.519977 -0.141959 0)
(0.188642 -0.0318782 0)
(0.0935405 -0.0580893 0)
(0.0663155 -0.0745299 0)
(-0.037652 0.0081643 0)
(-0.109873 0.072303 0)
(0.793026 0.892628 0)
(0.47567 0.321047 0)
(0.10071 -0.10976 0)
(-0.0712936 0.143285 0)
(-0.212916 -0.129547 0)
(-0.199233 -0.0150646 0)
(-0.114216 0.00705034 0)
(-0.0938557 -0.0255524 0)
(-0.0625987 -0.0304644 0)
(-0.0528011 -0.0378293 0)
(-0.0459261 -0.0513202 0)
(-0.0374773 -0.0622912 0)
(-0.0284252 -0.068313 0)
(-0.0201608 -0.0713099 0)
(-0.0136895 -0.0729336 0)
(-0.00897742 -0.073012 0)
(-0.00551283 -0.0705659 0)
(-0.0901417 0.0818319 0)
(0.00309763 -0.0242663 0)
(-0.07358 -0.00341031 0)
(-0.0436646 -0.0509384 0)
(-0.117046 -0.0657946 0)
(-0.101619 0.000891562 0)
(0.77477 -0.214346 0)
(0.230532 -0.113241 0)
(0.0265402 -0.0107976 0)
(0.0649564 -0.0518717 0)
(0.0435971 -0.060082 0)
(-0.0211336 0.0114368 0)
(-0.0524413 0.136875 0)
(0.824449 0.831368 0)
(0.795355 0.399215 0)
(0.430946 0.112536 0)
(0.185163 -0.393543 0)
(-0.200207 -0.044286 0)
(-0.133985 0.0481551 0)
(-0.136541 -0.0244809 0)
(-0.0868452 -0.0445188 0)
(-0.0597857 -0.0396841 0)
(-0.0478998 -0.0424782 0)
(-0.041831 -0.0557094 0)
(-0.0370566 -0.0682046 0)
(-0.0297643 -0.0758109 0)
(-0.0213267 -0.0784358 0)
(-0.0147254 -0.0786135 0)
(-0.0101739 -0.0775391 0)
(-0.00658001 -0.0748427 0)
(0.000226615 -0.000610554 0)
(0.00235348 -0.000604704 0)
(0.00468218 -0.000595848 0)
(0.00721378 -0.000582929 0)
(0.00994029 -0.000563737 0)
(0.0128347 -0.000536864 0)
(0.0158475 -0.000500722 0)
(0.0188975 -0.0004531 0)
(0.0218551 -0.000391372 0)
(0.0245243 -0.000313167 0)
(0.0266375 -0.000218772 0)
(0.0278508 -0.000109054 0)
(0.027751 1.39859e-05 0)
(0.0258351 0.00015298 0)
(0.0214852 0.000311738 0)
(0.0140124 0.000490085 0)
(0.00297125 0.000663481 0)
(-0.0109344 0.000742493 0)
(-0.0250179 0.000643209 0)
(-0.036123 0.000425479 0)
(-0.04304 0.000224549 0)
(-0.0455914 4.76088e-05 0)
(-0.0431722 -0.000104529 0)
(-0.0365984 -0.000185175 0)
(-0.0276136 -0.000200555 0)
(-0.0180839 -0.000184832 0)
(-0.00779147 -0.000201431 0)
(0.00263817 -0.000169262 0)
(0.00876014 -5.27232e-05 0)
(0.0073631 6.53664e-05 0)
(0.000152743 -0.00350966 0)
(0.00169641 -0.00347037 0)
(0.00339734 -0.00341534 0)
(0.00527181 -0.00333638 0)
(0.00732706 -0.00321766 0)
(0.00954356 -0.00304274 0)
(0.0118608 -0.00279307 0)
(0.0141505 -0.00244468 0)
(0.016202 -0.00197133 0)
(0.0176975 -0.00135144 0)
(0.0181935 -0.00057503 0)
(0.017117 0.0003492 0)
(0.0137831 0.00139997 0)
(0.00744535 0.00254707 0)
(-0.00257952 0.00372377 0)
(-0.0165767 0.00475016 0)
(-0.0337152 0.00523729 0)
(-0.0512905 0.00472427 0)
(-0.0655905 0.00332532 0)
(-0.0743546 0.00179443 0)
(-0.0772106 0.000510741 0)
(-0.073499 -0.000699776 0)
(-0.0629585 -0.00156827 0)
(-0.0475696 -0.00194509 0)
(-0.0298729 -0.00188632 0)
(-0.012187 -0.00173381 0)
(0.0052924 -0.00157444 0)
(0.0188827 -0.000917455 0)
(0.0221532 6.10312e-05 0)
(0.0122945 0.00092671 0)
(-0.000707481 -0.00426268 0)
(-0.000770258 -0.00424465 0)
(-0.000767221 -0.00423749 0)
(-0.000635702 -0.00422827 0)
(-0.000318094 -0.00417774 0)
(0.000204156 -0.00403447 0)
(0.000885486 -0.0037433 0)
(0.00160872 -0.00325319 0)
(0.00219076 -0.00252094 0)
(0.00238012 -0.00151453 0)
(0.00184467 -0.00021813 0)
(0.000156767 0.00135964 0)
(-0.00321807 0.00317764 0)
(-0.00889946 0.00516315 0)
(-0.017501 0.00715538 0)
(-0.0293445 0.00878052 0)
(-0.0438061 0.00932472 0)
(-0.0586376 0.00809164 0)
(-0.0704808 0.00542108 0)
(-0.0770952 0.00262331 0)
(-0.0781162 0.000279637 0)
(-0.072879 -0.0019384 0)
(-0.0610912 -0.00347298 0)
(-0.0447585 -0.00409475 0)
(-0.0263488 -0.00389907 0)
(-0.00828836 -0.00350821 0)
(0.00926778 -0.00305345 0)
(0.0224912 -0.00163543 0)
(0.0248004 0.000324536 0)
(0.0135257 0.00206333 0)
(-0.000858053 -0.00389749 0)
(-0.00111603 -0.00395774 0)
(-0.00129903 -0.00408849 0)
(-0.0013371 -0.00426344 0)
(-0.00117626 -0.0044003 0)
(-0.000815733 -0.00439127 0)
(-0.000323008 -0.00414152 0)
(0.000176188 -0.00358476 0)
(0.000511856 -0.00267756 0)
(0.000464501 -0.00138937 0)
(-0.000249733 0.000297478 0)
(-0.00200299 0.00237391 0)
(-0.00527389 0.00479885 0)
(-0.0106601 0.00748197 0)
(-0.0188364 0.0102034 0)
(-0.0302869 0.0124168 0)
(-0.0445756 0.0130866 0)
(-0.0594226 0.0112163 0)
(-0.0711248 0.00730939 0)
(-0.0773919 0.00328073 0)
(-0.0781814 -6.01533e-05 0)
(-0.0727916 -0.00326026 0)
(-0.0607616 -0.0054353 0)
(-0.044257 -0.00628427 0)
(-0.0257172 -0.00593033 0)
(-0.00767471 -0.00528403 0)
(0.00993299 -0.00453077 0)
(0.023188 -0.00233033 0)
(0.025331 0.00062857 0)
(0.0138148 0.00325098 0)
(-0.000700237 -0.0037882 0)
(-0.000528649 -0.0039221 0)
(-0.000282508 -0.00416588 0)
(6.20755e-05 -0.00447559 0)
(0.000511961 -0.00473109 0)
(0.00103984 -0.00478145 0)
(0.00157816 -0.00450873 0)
(0.00202529 -0.00384318 0)
(0.0022446 -0.00274403 0)
(0.00205533 -0.00117968 0)
(0.00120251 0.000874206 0)
(-0.000666992 0.00341857 0)
(-0.00403081 0.00641884 0)
(-0.00951008 0.00978478 0)
(-0.0178581 0.013258 0)
(-0.029698 0.0161217 0)
(-0.0446641 0.0169709 0)
(-0.0602033 0.0144183 0)
(-0.0720865 0.00917138 0)
(-0.0781065 0.00388257 0)
(-0.0787615 -0.000415028 0)
(-0.0732585 -0.00461572 0)
(-0.0609399 -0.0074247 0)
(-0.0442466 -0.00849573 0)
(-0.0255671 -0.00796673 0)
(-0.00756541 -0.00705953 0)
(0.0101403 -0.00601996 0)
(0.0235216 -0.00302682 0)
(0.0256158 0.000941711 0)
(0.0140161 0.00445066 0)
(-0.000573542 -0.00425743 0)
(7.91444e-08 -0.00442086 0)
(0.000633177 -0.0046884 0)
(0.00130305 -0.00500518 0)
(0.00197692 -0.00524068 0)
(0.00261584 -0.00523396 0)
(0.00317353 -0.00486134 0)
(0.00358604 -0.00404986 0)
(0.0037571 -0.00275143 0)
(0.00353077 -0.000919418 0)
(0.00266285 0.00148766 0)
(0.000790717 0.00449036 0)
(-0.00258577 0.00806502 0)
(-0.00812283 0.0121303 0)
(-0.0166664 0.0164068 0)
(-0.0290092 0.0200027 0)
(-0.0448639 0.0210792 0)
(-0.0613092 0.0177512 0)
(-0.0733933 0.0110076 0)
(-0.0790561 0.00441419 0)
(-0.0795503 -0.000784167 0)
(-0.0739081 -0.00601823 0)
(-0.0612059 -0.00944792 0)
(-0.044282 -0.0107349 0)
(-0.0254268 -0.0100079 0)
(-0.00749124 -0.0088338 0)
(0.0103393 -0.00752584 0)
(0.0238861 -0.00372889 0)
(0.0259317 0.00126119 0)
(0.0142564 0.00565863 0)
(-0.000561992 -0.00512986 0)
(0.000233674 -0.00528809 0)
(0.00108495 -0.00551371 0)
(0.00194898 -0.00574891 0)
(0.00277685 -0.00587386 0)
(0.00352813 -0.00574197 0)
(0.00417186 -0.00523369 0)
(0.00466663 -0.00426769 0)
(0.00493408 -0.00277659 0)
(0.00482466 -0.000686814 0)
(0.0040832 0.00207159 0)
(0.00232042 0.00554098 0)
(-0.000988145 0.00970684 0)
(-0.00652493 0.0145031 0)
(-0.0152441 0.0196569 0)
(-0.0281683 0.024099 0)
(-0.0451307 0.025474 0)
(-0.0627372 0.0212491 0)
(-0.0750279 0.0128035 0)
(-0.0801857 0.00484891 0)
(-0.0805027 -0.00116723 0)
(-0.0747099 -0.00748524 0)
(-0.0615165 -0.011512 0)
(-0.0443236 -0.0130095 0)
(-0.0252481 -0.012054 0)
(-0.00740712 -0.0106059 0)
(0.01058 -0.00905287 0)
(0.0243302 -0.00443801 0)
(0.0263119 0.00158843 0)
(0.0145536 0.00687572 0)
(-0.000641345 -0.00619682 0)
(0.000255945 -0.00634181 0)
(0.00122288 -0.00650826 0)
(0.0022171 -0.00663804 0)
(0.00318913 -0.00662759 0)
(0.00409763 -0.00635217 0)
(0.00491229 -0.00570004 0)
(0.00559411 -0.00457908 0)
(0.00606616 -0.00289677 0)
(0.00617267 -0.000546023 0)
(0.0056411 0.00257929 0)
(0.00404766 0.00654188 0)
(0.000847766 0.0113258 0)
(-0.00464815 0.0168895 0)
(-0.0135244 0.0230151 0)
(-0.0271204 0.0284549 0)
(-0.0454547 0.0302334 0)