/*--------------------------------*- C++ -*----------------------------------*\
| =========                 |                                                 |
| \\      /  F ield         | OpenFOAM: The Open Source CFD Toolbox           |
|  \\    /   O peration     | Version:  2.4.0                                 |
|   \\  /    A nd           | Web:      www.OpenFOAM.org                      |
|    \\/     M anipulation  |                                                 |
\*---------------------------------------------------------------------------*/
FoamFile
{
    version     2.0;
    format      ascii;
    class       surfaceScalarField;
    location    "0.04";
    object      phi;
}
// * * * * * * * * * * * * * * * * * * * * * * * * * * * * * * * * * * * * * //

dimensions      [0 3 -1 0 0 0 0];

internalField   nonuniform List<scalar> 
7080
(
-6.29842e-08
6.29842e-08
-2.11257e-07
1.48273e-07
-2.12847e-07
1.59007e-09
-4.04743e-07
1.91895e-07
-4.54674e-07
4.99315e-08
-6.68528e-07
2.13854e-07
-7.582e-07
8.96717e-08
-9.83601e-07
2.25401e-07
-1.12005e-06
1.36452e-07
-1.34257e-06
2.22518e-07
-1.49957e-06
1.56999e-07
-1.69495e-06
1.95384e-07
-1.84466e-06
1.49711e-07
-2.00108e-06
1.56412e-07
-2.13885e-06
1.37769e-07
-2.29311e-06
1.54264e-07
-2.48931e-06
1.96196e-07
-2.78872e-06
2.99417e-07
-3.25843e-06
4.69709e-07
-3.88692e-06
6.28492e-07
-4.43353e-06
5.46608e-07
-4.49081e-06
5.72753e-08
-4.10597e-06
-3.84834e-07
-3.73462e-06
-3.71351e-07
-3.5574e-06
-1.77226e-07
-3.22078e-06
-3.36619e-07
-2.63447e-06
-5.86311e-07
-1.8092e-06
-8.25272e-07
-1.03226e-06
-7.76934e-07
-7.42832e-07
-2.8943e-07
-6.45961e-08
1.2758e-07
-2.13548e-07
2.97224e-07
-2.16219e-07
4.261e-09
-4.08903e-07
3.8458e-07
-4.60677e-07
1.01705e-07
-6.76262e-07
4.29439e-07
-7.66123e-07
1.79533e-07
-9.93866e-07
4.53144e-07
-1.12547e-06
2.68051e-07
-1.34481e-06
4.41859e-07
-1.49553e-06
3.0772e-07
-1.69502e-06
3.94873e-07
-1.84475e-06
2.99448e-07
-2.01441e-06
3.26066e-07
-2.15284e-06
2.76202e-07
-2.29871e-06
3.00133e-07
-2.43801e-06
3.35499e-07
-2.58913e-06
4.5054e-07
-2.75434e-06
6.34913e-07
-2.96976e-06
8.43916e-07
-3.3016e-06
8.7845e-07
-3.71822e-06
4.7389e-07
-4.00491e-06
-9.81422e-08
-3.87972e-06
-4.96545e-07
-3.1976e-06
-8.59345e-07
-2.22171e-06
-1.3125e-06
-1.35629e-06
-1.45174e-06
-6.67537e-07
-1.51402e-06
1.14163e-07
-1.55863e-06
-1.28708e-06
6.58415e-07
-6.47795e-08
1.9236e-07
-2.11708e-07
4.44153e-07
-2.14657e-07
7.20992e-09
-4.04488e-07
5.7441e-07
-4.57799e-07
1.55016e-07
-6.71863e-07
6.43503e-07
-7.6026e-07
2.6793e-07
-9.92896e-07
6.8578e-07
-1.13338e-06
4.08533e-07
-1.37579e-06
6.84271e-07
-1.54041e-06
4.7234e-07
-1.75244e-06
6.06899e-07
-1.89894e-06
4.45947e-07
-2.04951e-06
4.76643e-07
-2.14508e-06
3.7177e-07
-2.21362e-06
3.68671e-07
-2.22134e-06
3.43223e-07
-2.15254e-06
3.81735e-07
-1.95161e-06
4.33987e-07
-1.60304e-06
4.95341e-07
-1.17626e-06
4.51676e-07
-9.29292e-07
2.26919e-07
-7.89176e-07
-2.38258e-07
-5.82319e-07
-7.03402e-07
-8.94693e-08
-1.35219e-06
4.15299e-07
-1.81727e-06
6.1235e-07
-1.64879e-06
5.95423e-07
-1.4971e-06
6.02923e-07
-1.56613e-06
-1.20208e-06
5.17919e-07
-6.50401e-08
2.574e-07
-2.08729e-07
5.87842e-07
-2.12252e-07
1.07329e-08
-3.97391e-07
7.59549e-07
-4.53274e-07
2.10899e-07
-6.64379e-07
8.54608e-07
-7.48256e-07
3.51807e-07
-9.76868e-07
9.14392e-07
-1.0946e-06
5.26262e-07
-1.31459e-06
9.04262e-07
-1.44884e-06
6.06591e-07
-1.6607e-06
8.18763e-07
-1.79564e-06
5.80881e-07
-1.98047e-06
6.61474e-07
-2.08231e-06
4.73612e-07
-2.19215e-06
4.78516e-07
-2.20609e-06
3.5716e-07
-2.16495e-06
3.40595e-07
-1.99696e-06
2.65993e-07
-1.71954e-06
2.17926e-07
-1.34227e-06
7.44014e-08
-1.00262e-06
-1.12725e-07
-7.29518e-07
-5.11364e-07
-5.8738e-07
-8.4554e-07
-5.51647e-07
-1.38793e-06
-4.844e-07
-1.88452e-06
-3.63763e-07
-1.76943e-06
-1.35796e-07
-1.72506e-06
-3.70426e-08
-1.66489e-06
-1.33357e-06
9.4449e-08
-6.54987e-08
3.22899e-07
-2.04588e-07
7.26931e-07
-2.09334e-07
1.54792e-08
-3.87551e-07
9.37766e-07
-4.47634e-07
2.70982e-07
-6.54595e-07
1.06157e-06
-7.36972e-07
4.34184e-07
-9.77673e-07
1.15509e-06
-1.11653e-06
6.65118e-07
-1.38443e-06
1.17217e-06
-1.55468e-06
7.76838e-07
-1.79031e-06
1.05439e-06
-1.94135e-06
7.31921e-07
-2.10077e-06
8.20895e-07
-2.18428e-06
5.57116e-07
-2.23862e-06
5.32865e-07
-2.21772e-06
3.36251e-07
-2.14578e-06
2.68665e-07
-2.00625e-06
1.2646e-07
-1.8218e-06
3.34726e-08
-1.6471e-06
-1.00297e-07
-1.52491e-06
-2.34919e-07
-1.57873e-06
-4.57543e-07
-1.60947e-06
-8.14801e-07
-1.56525e-06
-1.43214e-06
-1.37794e-06
-2.07183e-06
-1.07871e-06
-2.06866e-06
-6.15802e-07
-2.18797e-06
-2.12173e-07
-2.06852e-06
-1.81549e-06
2.69745e-07
-6.62794e-08
3.89178e-07
-1.99069e-07
8.59721e-07
-2.06334e-07
2.27438e-08
-3.74547e-07
1.10598e-06
-4.41145e-07
3.3758e-07
-6.4112e-07
1.26154e-06
-7.15362e-07
5.08427e-07
-9.40985e-07
1.38072e-06
-1.03962e-06
7.63757e-07
-1.26113e-06
1.39368e-06
-1.37597e-06
8.91676e-07
-1.60966e-06
1.28808e-06
-1.7376e-06
8.59862e-07
-1.96484e-06
1.04814e-06
-2.06807e-06
6.60347e-07
-2.22616e-06
6.90948e-07
-2.24563e-06
3.55721e-07
-2.2706e-06
2.93638e-07
-2.1769e-06
3.27559e-08
-2.0586e-06
-8.48267e-08
-1.87854e-06
-2.80356e-07
-1.71814e-06
-3.95318e-07
-1.60443e-06
-5.71252e-07
-1.42551e-06
-9.93724e-07
-1.05854e-06
-1.79911e-06
-7.01363e-07
-2.42901e-06
-2.52154e-07
-2.51787e-06
1.95829e-07
-2.63595e-06
4.08451e-07
-2.28114e-06
-2.17227e-06
7.65231e-07
-6.76033e-08
4.56781e-07
-1.91774e-07
9.83892e-07
-2.0419e-07
3.51598e-08
-3.57663e-07
1.25945e-06
-4.34566e-07
4.14482e-07
-6.25997e-07
1.45298e-06
-7.01601e-07
5.84031e-07
-9.53737e-07
1.63285e-06
-1.08996e-06
8.99982e-07
-1.39225e-06
1.69596e-06
-1.57327e-06
1.0727e-06
-1.84355e-06
1.55836e-06
-2.01857e-06
1.03488e-06
-2.20841e-06
1.23798e-06
-2.32823e-06
7.80165e-07
-2.41304e-06
7.75762e-07
-2.4354e-06
3.78071e-07
-2.40901e-06
2.67249e-07
-2.31118e-06
-6.50695e-08
-2.18834e-06
-2.07664e-07
-2.03191e-06
-4.36788e-07
-1.83237e-06
-5.9486e-07
-1.56432e-06
-8.39303e-07
-1.16864e-06
-1.38941e-06
-7.18305e-07
-2.24944e-06
-2.23622e-07
-2.92369e-06
2.54855e-07
-2.99635e-06
4.01478e-07
-2.78257e-06
6.09181e-07
-2.48884e-06
-2.51425e-06
9.51159e-07
-6.98637e-08
5.26645e-07
-1.81761e-07
1.09579e-06
-2.04384e-07
5.7783e-08
-3.35332e-07
1.3904e-06
-4.28495e-07
5.07645e-07
-6.04561e-07
1.62904e-06
-6.67827e-07
6.47297e-07
-8.80111e-07
1.84514e-06
-9.56389e-07
9.76261e-07
-1.17394e-06
1.91351e-06
-1.26737e-06
1.16613e-06
-1.5293e-06
1.82029e-06
-1.6629e-06
1.16848e-06
-1.96112e-06
1.53621e-06
-2.1152e-06
9.34244e-07
-2.38456e-06
1.04512e-06
-2.50124e-06
4.94748e-07
-2.65865e-06
4.24662e-07
-2.68275e-06
-4.09745e-08
-2.63207e-06
-2.58342e-07
-2.38423e-06
-6.84622e-07
-1.97529e-06
-1.00381e-06
-1.41664e-06
-1.39795e-06
-7.18171e-07
-2.08788e-06
-1.1528e-07
-2.85233e-06
1.20423e-06
-4.2432e-06
1.69533e-06
-3.48745e-06
1.79542e-06
-2.88267e-06
2.00594e-06
-2.69935e-06
-2.43064e-06
1.92233e-06
-7.32405e-08
5.99885e-07
-1.68978e-07
1.19153e-06
-2.04665e-07
9.34695e-08
-3.04831e-07
1.49057e-06
-4.25261e-07
6.28074e-07
-5.84517e-07
1.7883e-06
-6.55367e-07
7.18146e-07
-9.22123e-07
2.11189e-06
-1.05641e-06
1.11054e-06
-1.40217e-06
2.25928e-06
-1.59732e-06
1.36128e-06
-1.90986e-06
2.13283e-06
-2.12077e-06
1.37938e-06
-2.35678e-06
1.77223e-06
-2.54671e-06
1.12417e-06
-2.69705e-06
1.19546e-06
-2.82417e-06
6.2187e-07
-2.90566e-06
5.06152e-07
-2.92342e-06
-2.32166e-08
-2.92414e-06
-2.57621e-07
-2.88372e-06
-7.25045e-07
-2.71937e-06
-1.16815e-06
-2.33563e-06
-1.78169e-06
-1.77492e-06
-2.64859e-06
-1.01368e-06
-3.61357e-06
3.16946e-06
-8.42634e-06
3.59014e-06
-3.90812e-06
3.75196e-06
-3.04449e-06
3.52089e-06
-2.46829e-06
-1.96427e-06
3.05452e-06
-7.72844e-08
6.7717e-07
-1.56021e-07
1.27026e-06
-2.01598e-07
1.39046e-07
-2.69281e-07
1.55825e-06
-4.27626e-07
7.8642e-07
-5.50301e-07
1.91097e-06
-6.05336e-07
7.73181e-07
-7.85162e-07
2.29172e-06
-8.35525e-07
1.16091e-06
-1.0355e-06
2.45925e-06
-1.10334e-06
1.42912e-06
-1.3935e-06
2.42299e-06
-1.5342e-06
1.52009e-06
-1.92576e-06
2.16378e-06
-2.16174e-06
1.36015e-06
-2.59706e-06
1.63077e-06
-2.88458e-06
9.09393e-07
-3.30289e-06
9.24458e-07
-3.63396e-06
3.07858e-07
-4.07593e-06
1.84346e-07
-4.39506e-06
-4.05909e-07
-4.83481e-06
-7.28409e-07
-5.34667e-06
-1.26982e-06
-5.92952e-06
-2.06575e-06
-5.53899e-06
-4.00409e-06
6.40331e-06
-2.03686e-05
6.75071e-06
-4.25552e-06
6.03995e-06
-2.33373e-06
5.26049e-06
-1.68882e-06
-1.4959e-06
4.79213e-06
-8.13596e-08
7.58529e-07
-1.45547e-07
1.33445e-06
-1.94404e-07
1.87903e-07
-2.36893e-07
1.60074e-06
-4.38647e-07
9.88174e-07
-5.26339e-07
1.99866e-06
-6.00297e-07
8.47139e-07
-8.86528e-07
2.57795e-06
-1.02461e-06
1.29898e-06
-1.4225e-06
2.85715e-06
-1.62741e-06
1.63403e-06
-1.98125e-06
2.77683e-06
-2.228e-06
1.76684e-06
-2.5137e-06
2.44948e-06
-2.79828e-06
1.64473e-06
-3.03155e-06
1.86404e-06
-3.31981e-06
1.19766e-06
-3.5819e-06
1.18655e-06
-3.9575e-06
6.83457e-07
-4.42075e-06
6.47593e-07
-5.17941e-06
3.52745e-07
-6.29703e-06
3.89217e-07
-7.76159e-06
1.94736e-07
-9.34433e-06
-4.83012e-07
-7.46774e-06
-5.88067e-06
6.96216e-06
-3.47985e-05
9.72254e-06
-7.0159e-06
8.70007e-06
-1.31126e-06
7.55913e-06
-5.47888e-07
-5.09342e-07
6.57257e-06
-8.51934e-08
8.43723e-07
-1.37461e-07
1.38672e-06
-1.83111e-07
2.33554e-07
-2.06577e-07
1.62421e-06
-4.49354e-07
1.23095e-06
-4.6561e-07
2.01492e-06
-5.2651e-07
9.08039e-07
-6.41382e-07
2.69282e-06
-6.59782e-07
1.31738e-06
-8.17967e-07
3.01534e-06
-8.59459e-07
1.67552e-06
-1.16439e-06
3.08176e-06
-1.29244e-06
1.89489e-06
-1.78096e-06
2.93799e-06
-2.08359e-06
1.94737e-06
-2.70534e-06
2.48579e-06
-3.14333e-06
1.63565e-06
-3.78695e-06
1.83017e-06
-4.30366e-06
1.20017e-06
-5.04293e-06
1.38686e-06
-5.76158e-06
1.0714e-06
-7.00767e-06
1.6353e-06
-8.08211e-06
1.26918e-06
-9.04047e-06
4.7534e-07
-3.69697e-07
-1.45514e-05
3.11326e-08
-3.51994e-05
7.22386e-06
-1.42086e-05
8.0213e-06
-2.10871e-06
7.83555e-06
-3.62135e-07
7.09935e-08
7.25521e-06
-8.89437e-08
9.32666e-07
-1.30716e-07
1.42849e-06
-1.67291e-07
2.70129e-07
-1.77597e-07
1.63451e-06
-4.61772e-07
1.51512e-06
-4.35144e-07
1.98829e-06
-5.43497e-07
1.01639e-06
-8.58084e-07
3.00741e-06
-1.01365e-06
1.47295e-06
-1.47151e-06
3.47319e-06
-1.66814e-06
1.87215e-06
-2.04732e-06
3.46094e-06
-2.31328e-06
2.16085e-06
-2.6164e-06
3.24112e-06
-3.02864e-06
2.3596e-06
-3.26404e-06
2.72119e-06
-3.67897e-06
2.05058e-06
-3.84685e-06
1.99805e-06
-4.12071e-06
1.47402e-06
-4.26114e-06
1.52729e-06
-4.36002e-06
1.17028e-06
-4.47124e-06
1.74653e-06
-4.21121e-06
1.00915e-06
-3.0799e-06
-6.55972e-07
1.0377e-05
-2.80083e-05
-4.16711e-06
-2.06553e-05
6.15739e-07
-1.89915e-05
4.63721e-06
-6.13018e-06
5.29474e-06
-1.01966e-06
1.69196e-07
5.19653e-06
-9.30402e-08
1.02571e-06
-1.24925e-07
1.46038e-06
-1.4572e-07
2.90924e-07
-1.46742e-07
1.63553e-06
-4.71487e-07
1.83987e-06
-3.37683e-07
1.85449e-06
-4.27554e-07
1.10626e-06
-4.26378e-07
3.00623e-06
-4.10575e-07
1.45714e-06
-4.848e-07
3.54742e-06
-5.17561e-07
1.90491e-06
-7.95192e-07
3.73857e-06
-8.78003e-07
2.24366e-06
-1.43233e-06
3.79544e-06
-1.75179e-06
2.67907e-06
-2.56547e-06
3.53487e-06
-3.08334e-06
2.56845e-06
-3.85129e-06
2.766e-06
-4.2818e-06
1.90453e-06
-4.47991e-06
1.7254e-06
-4.1607e-06
8.51073e-07
-2.93588e-06
5.21706e-07
-1.18907e-06
-7.37659e-07
5.46763e-07
-2.39181e-06
9.50735e-06
-3.69689e-05
6.7903e-06
-1.79382e-05
4.78679e-06
-1.6988e-05
6.58596e-06
-7.92935e-06
6.48512e-06
-9.18826e-07
6.39958e-07
6.01436e-06
-9.79388e-08
1.12365e-06
-1.20097e-07
1.48253e-06
-1.16795e-07
2.87622e-07
-1.19483e-07
1.63822e-06
-4.92561e-07
2.21295e-06
-3.49033e-07
1.71096e-06
-5.12533e-07
1.26976e-06
-8.56759e-07
3.35046e-06
-1.04871e-06
1.64909e-06
-1.57746e-06
4.07617e-06
-1.73261e-06
2.06007e-06
-2.10164e-06
4.1076e-06
-2.35808e-06
2.50009e-06
-2.59861e-06
4.03598e-06
-3.20029e-06
3.28075e-06
-3.40822e-06
3.74279e-06
-4.12656e-06
3.28679e-06
-4.16178e-06
2.80122e-06
-4.55929e-06
2.30203e-06
-4.28535e-06
1.45147e-06
-4.03033e-06
5.96057e-07
-1.91647e-06
-1.59216e-06
6.94111e-06
-9.59523e-06
1.9228e-05
-1.46787e-05
1.1362e-05
-2.91029e-05
1.16684e-05
-1.82447e-05
5.67917e-06
-1.09987e-05
4.67123e-06
-6.92141e-06
3.97724e-06
-2.24834e-07
9.96642e-07
3.62055e-06
-1.04154e-07
1.2278e-06
-1.16131e-07
1.49451e-06
-7.67146e-08
2.48206e-07
-8.81939e-08
1.6497e-06
-5.08725e-07
2.63348e-06
-2.14221e-07
1.41646e-06
-3.09747e-07
1.36529e-06
-1.15043e-07
3.15575e-06
-8.18014e-08
1.61585e-06
1.8635e-08
3.97573e-06
-9.08344e-08
2.16954e-06
-2.3333e-07
4.2501e-06
-2.73795e-07
2.54056e-06
-7.85572e-07
4.54775e-06
-1.08674e-06
3.58191e-06
-2.16248e-06
4.81854e-06
-2.89658e-06
4.02089e-06
-4.41105e-06
4.3157e-06
-5.54312e-06
3.43411e-06
-6.98282e-06
2.89116e-06
-7.33215e-06
9.45386e-07
-6.80389e-06
-2.12042e-06
6.39157e-06
-2.27907e-05
1.96853e-05
-2.79725e-05
3.11619e-06
-1.25338e-05
-5.75233e-06
-9.37614e-06
-3.65496e-06
-1.30961e-05
8.85489e-07
-1.14619e-05
-1.1803e-07
7.78685e-07
1.04725e-06
-1.68638e-07
-1.12328e-07
1.34013e-06
-1.13314e-07
1.4955e-06
-2.3854e-08
1.58745e-07
-7.0204e-08
1.69605e-06
-5.63342e-07
3.12662e-06
-2.86399e-07
1.13951e-06
-5.15724e-07
1.59461e-06
-9.02587e-07
3.54262e-06
-1.16198e-06
1.87525e-06
-1.78271e-06
4.59646e-06
-1.84333e-06
2.23016e-06
-2.1117e-06
4.51847e-06
-2.23986e-06
2.66872e-06
-2.33627e-06
4.64416e-06
-3.09832e-06
4.34396e-06
-3.37281e-06
5.09303e-06
-4.4947e-06
5.14277e-06
-4.54911e-06
4.37011e-06
-5.69399e-06
4.57899e-06
-6.2675e-06
3.46467e-06
-1.20965e-05
6.77443e-06
-1.25694e-05
-1.64756e-06
-1.18233e-05
-2.35368e-05
-1.601e-05
-2.37858e-05
-1.67786e-05
-1.17652e-05
-1.73131e-05
-8.84161e-06
-6.10169e-06
-2.43075e-05
-1.612e-06
-1.59516e-05
-1.24664e-06
4.13322e-07
1.63821e-06
-1.83759e-06
-1.23282e-07
1.46341e-06
-1.09141e-07
1.48136e-06
2.36365e-08
2.59679e-08
-1.79303e-08
1.73762e-06
-5.52776e-07
3.66146e-06
-9.22014e-08
6.78938e-07
-1.09873e-07
1.61229e-06
2.62802e-07
3.16994e-06
4.13357e-07
1.72469e-06
5.88293e-07
4.42152e-06
4.59255e-07
2.3592e-06
4.6799e-07
4.50973e-06
5.45437e-07
2.59127e-06
2.6081e-07
4.92879e-06
2.26131e-08
4.58216e-06
-9.24778e-07
6.04042e-06
-1.83876e-06
6.05676e-06
-4.21091e-06
6.74226e-06
-6.86135e-06
7.22943e-06
-1.07656e-05
7.36894e-06
-1.16017e-05
7.61047e-06
-7.16697e-06
-6.08226e-06
-8.73187e-06
-2.19719e-05
-5.82339e-06
-2.66943e-05
3.73214e-06
-2.13207e-05
6.05587e-06
-1.11653e-05
4.88173e-06
-2.31333e-05
-2.86251e-06
-8.20732e-06
6.61587e-07
-3.11078e-06
7.36362e-07
1.56343e-06
-1.37743e-07
1.60115e-06
-1.18524e-07
1.46214e-06
5.42814e-08
-1.46838e-07
-3.81234e-08
1.83002e-06
-7.34073e-07
4.35741e-06
-2.08308e-07
1.53172e-07
-4.85112e-07
1.88909e-06
-1.01075e-06
3.69558e-06
-1.39591e-06
2.10985e-06
-2.1719e-06
5.19751e-06
-2.06146e-06
2.24876e-06
-2.11228e-06
4.56055e-06
-1.76439e-06
2.24338e-06
-1.56673e-06
4.73113e-06
-2.18343e-06
5.19886e-06
-2.60629e-06
6.46328e-06
-3.76015e-06
7.21062e-06
-4.53979e-06
7.52191e-06
-6.24542e-06
8.93505e-06
-5.73484e-06
6.85837e-06
-3.50663e-06
5.38226e-06
-2.19657e-06
-7.39231e-06
2.60536e-07
-2.4429e-05
-9.59453e-07
-2.54743e-05
-6.44048e-07
-2.16361e-05
1.59566e-06
-1.34051e-05
-5.38813e-06
-1.61495e-05
-1.15793e-05
-2.01613e-06
-7.69127e-06
-6.99883e-06
-1.91557e-06
-5.03934e-06
-1.56681e-07
1.75783e-06
-8.66669e-08
1.39212e-06
1.43629e-07
-3.77133e-07
1.27812e-07
1.84584e-06
-6.3818e-07
5.12341e-06
2.75243e-08
-5.12533e-07
9.1731e-08
1.82488e-06
7.1401e-07
3.0733e-06
1.05199e-06
1.77187e-06
1.32796e-06
4.92155e-06
1.01634e-06
2.56037e-06
1.26316e-06
4.31374e-06
1.43973e-06
2.0668e-06
1.4451e-06
4.72576e-06
1.08834e-06
5.55561e-06
6.07781e-07
6.94385e-06
1.73576e-08
7.80104e-06
-2.63582e-07
7.80285e-06
2.48292e-07
8.42318e-06
-6.87544e-07
7.79421e-06
3.88007e-06
8.14641e-07
3.22602e-06
-6.73826e-06
-3.51252e-07
-2.08517e-05
-1.10879e-05
-1.47377e-05
-1.59521e-05
-1.67719e-05
-1.37802e-05
-1.5577e-05
-1.34533e-05
-1.64764e-05
-1.07384e-05
-4.73111e-06
-1.03032e-05
-7.43402e-06
-1.90608e-06
-1.03127e-05
-1.81008e-07
1.93884e-06
-1.56715e-07
1.36783e-06
1.19296e-07
-6.53145e-07
-1.15741e-08
1.97671e-06
-9.62815e-07
6.07465e-06
-1.24428e-07
-1.35092e-06
-4.10464e-07
2.11092e-06
-1.20455e-06
3.86739e-06
-1.81554e-06
2.38285e-06
-2.85011e-06
5.95612e-06
-2.43104e-06
2.14131e-06
-2.19184e-06
4.07454e-06
-5.8338e-07
4.58343e-07
1.08879e-07
4.0335e-06
1.03969e-06
4.6248e-06
6.07337e-07
7.3762e-06
1.18182e-06
7.22656e-06
-2.5189e-06
1.15036e-05
-7.01467e-06
1.29189e-05
-5.42617e-06
6.20571e-06
-6.10961e-06
1.49808e-06
-8.1353e-06
-4.71258e-06
-1.56687e-05
-1.33183e-05
-1.62197e-05
-1.41868e-05
-1.2413e-05
-2.05785e-05
-1.43341e-05
-1.36559e-05
-1.78649e-05
-1.29456e-05
-1.40052e-05
-8.59077e-06
-1.26491e-05
-8.79017e-06
-2.26804e-06
-1.22871e-05
-2.11353e-07
2.15019e-06
-3.38e-08
1.19028e-06
3.92212e-07
-1.07916e-06
2.89763e-07
2.07916e-06
-8.99817e-07
7.26423e-06
2.31558e-07
-2.48229e-06
2.77382e-07
2.06509e-06
1.20249e-06
2.94228e-06
1.82909e-06
1.75625e-06
2.25287e-06
5.53234e-06
1.46777e-06
2.92641e-06
2.13345e-06
3.40886e-06
2.364e-06
2.27787e-07
2.91946e-06
3.47805e-06
1.28619e-06
6.25806e-06
1.10117e-06
7.56123e-06
-2.33383e-06
1.06616e-05
-3.08855e-06
1.22583e-05
1.11014e-06
8.72026e-06
-3.75733e-06
1.10732e-05
1.49832e-06
-3.75757e-06
2.41704e-07
-3.45596e-06
-1.083e-05
-2.24658e-06
-8.95056e-06
-1.60662e-05
-1.52082e-05
-1.43208e-05
-2.5307e-05
-3.55708e-06
-3.11696e-05
-7.08307e-06
-1.99928e-05
-1.97676e-05
-1.87939e-05
-9.98905e-06
-6.8844e-06
-1.41775e-05
-2.46942e-07
2.39714e-06
-2.39976e-07
1.18331e-06
1.48028e-07
-1.46716e-06
-2.25222e-08
2.24971e-06
-1.24946e-06
8.49116e-06
2.18722e-08
-3.75362e-06
-3.10807e-07
2.39777e-06
-1.54096e-06
4.17244e-06
-2.52542e-06
2.74072e-06
-3.96072e-06
6.96764e-06
-3.07067e-06
2.03635e-06
-2.39127e-06
2.72946e-06
1.2985e-06
-3.46198e-06
3.50989e-06
1.26665e-06
4.81918e-06
4.94878e-06
5.19304e-06
7.18736e-06
9.22913e-06
6.62547e-06
1.16952e-05
9.79217e-06
-2.45898e-06
2.28745e-05
-2.51337e-06
1.11276e-05
1.43967e-05
-2.06676e-05
2.62457e-05
-1.5305e-05
2.1596e-05
2.40308e-06
2.15279e-06
3.37705e-06
-1.61251e-05
3.95704e-06
-2.08424e-05
1.16025e-06
-2.06381e-05
-7.28739e-06
-1.64118e-05
-2.39939e-05
-1.32526e-05
-1.31483e-05
-1.07993e-05
-9.33769e-06
-3.10109e-07
2.70725e-06
1.02378e-07
7.70824e-07
8.96585e-07
-2.26137e-06
5.26598e-07
2.61969e-06
-1.44953e-06
1.04673e-05
3.78072e-07
-5.58122e-06
5.014e-07
2.27444e-06
1.52828e-06
3.14556e-06
2.67404e-06
1.59495e-06
3.44621e-06
6.19547e-06
1.63375e-06
3.84881e-06
2.90775e-06
1.45546e-06
3.51264e-06
-4.06687e-06
4.73943e-06
3.98583e-08
3.67654e-06
6.01167e-06
5.15033e-06
5.71357e-06
-8.28672e-07
1.26045e-05
-6.07782e-06
1.50413e-05
-4.32383e-06
2.11205e-05
1.27291e-05
-5.92534e-06
1.62208e-05
-2.41593e-05
1.22552e-05
-1.13394e-05
7.87772e-06
6.78057e-06
5.08405e-06
6.17072e-06
1.40951e-06
7.63158e-06
2.82129e-06
-2.51526e-07
-1.5572e-06
-2.90891e-06
-1.11249e-05
-1.44262e-05
-1.42635e-05
-1.00097e-05
-5.60188e-06
-1.94609e-05
-3.30057e-07
3.0373e-06
-3.75672e-07
8.16438e-07
6.99353e-08
-2.70697e-06
-1.60308e-07
2.84994e-06
-1.59427e-06
1.19013e-05
4.39683e-07
-7.61518e-06
-1.84884e-07
2.89901e-06
-2.04408e-06
5.00476e-06
-3.67951e-06
3.23038e-06
-5.54482e-06
8.06078e-06
-4.1223e-06
2.42629e-06
-3.14567e-06
4.78835e-07
4.80012e-06
-1.20127e-05
8.06624e-06
-3.22626e-06
9.66137e-06
4.41654e-06
3.07459e-06
1.23004e-05
6.72345e-07
1.50067e-05
1.87849e-05
-3.07129e-06
1.40702e-05
2.58353e-05
2.64094e-05
-1.82646e-05
1.86942e-05
-1.64441e-05
-1.34413e-06
8.69891e-06
-9.69442e-07
6.40589e-06
8.06146e-06
-2.86018e-06
1.10627e-05
4.63034e-06
1.84082e-05
-7.59702e-06
1.45196e-05
9.79646e-07
4.89698e-06
-4.8035e-06
-6.41617e-06
1.30345e-06
8.30253e-06
-2.03206e-05
-4.98636e-07
3.53594e-06
3.15904e-07
1.89745e-09
1.87141e-06
-4.26248e-06
1.04694e-06
3.6744e-06
-2.44515e-06
1.53934e-05
4.57192e-07
-1.05175e-05
9.14826e-07
2.44138e-06
1.24078e-06
4.6788e-06
3.2713e-06
1.19986e-06
5.38401e-06
5.94807e-06
7.90449e-07
7.01985e-06
3.18891e-06
-1.91962e-06
4.84051e-06
-1.36643e-05
7.43872e-06
-5.82446e-06
6.63136e-06
5.2239e-06
5.71716e-06
1.32146e-05
2.00356e-05
6.88272e-07
2.97773e-05
-1.2813e-05
1.87985e-05
3.68141e-05
1.5137e-05
-1.46031e-05
2.00092e-05
-2.13163e-05
1.94575e-05
9.25062e-06
1.77041e-05
8.15928e-06
2.12281e-05
-6.38415e-06
3.34529e-05
-7.59449e-06
3.05014e-05
-4.64551e-06
2.44189e-05
7.06217e-06
2.48959e-05
-5.28054e-06
2.11404e-05
5.05896e-06
1.70537e-05
1.23892e-05
-4.14724e-07
3.95066e-06
-5.66011e-07
1.53184e-07
-3.63819e-07
-4.46467e-06
-6.46859e-07
3.95744e-06
-2.11434e-06
1.68608e-05
1.2361e-06
-1.3868e-05
6.45162e-09
3.67102e-06
-3.10039e-06
7.78564e-06
-5.38202e-06
3.48149e-06
-7.31292e-06
7.87898e-06
-6.86006e-06
6.56699e-06
-5.97013e-06
-2.80955e-06
1.33575e-05
-3.29919e-05
6.38762e-06
1.14536e-06
1.534e-05
-3.7285e-06
2.12282e-05
7.32635e-06
9.9216e-07
2.09243e-05
-5.99464e-06
-5.82616e-06
5.01353e-06
2.58059e-05
3.54503e-05
-4.50399e-05
3.76073e-05
-2.34733e-05
3.46855e-05
1.21724e-05
3.01448e-05
1.27e-05
2.34096e-05
3.51065e-07
4.29227e-05
-2.71076e-05
2.65253e-05
1.17518e-05
1.87988e-05
1.47887e-05
1.74073e-05
-3.88905e-06
1.33271e-05
9.13914e-06
1.40473e-05
1.63336e-05
-8.38797e-07
4.78946e-06
5.61454e-07
-1.24707e-06
2.65328e-06
-6.5565e-06
1.96389e-06
4.64683e-06
-3.04571e-06
2.18704e-05
6.92527e-07
-1.76062e-05
1.90712e-07
4.17284e-06
-1.12555e-06
9.10191e-06
8.16625e-07
1.53931e-06
1.30869e-05
-4.39131e-06
8.58162e-06
1.10723e-05
2.11965e-06
3.65242e-06
-8.27003e-06
-2.26022e-05
1.23298e-05
-1.94545e-05
1.24247e-05
-3.82333e-06
-4.39596e-06
2.4147e-05
-6.77277e-06
2.33012e-05
-8.01473e-06
-4.5842e-06
3.36725e-05
-1.58813e-05
3.53572e-05
-4.67246e-05
3.04301e-05
-1.85462e-05
-7.78632e-07
4.33811e-05
-5.78061e-06
1.7702e-05
-6.80894e-06
1.37939e-06
3.21381e-06
-3.71303e-05
1.40629e-05
9.02768e-07
3.53479e-05
-6.49633e-06
3.12274e-05
2.31515e-07
2.94945e-05
1.0872e-05
-9.00167e-07
4.4442e-05
-7.00532e-07
5.48999e-06
-2.02167e-06
7.40667e-08
1.12784e-05
-1.98566e-05
3.3692e-06
1.2556e-05
-1.95621e-06
2.71958e-05
5.37997e-06
-2.49424e-05
1.21505e-05
-2.59765e-06
2.54242e-06
1.87099e-05
-7.14266e-06
1.12244e-05
-2.13986e-05
9.86461e-06
-1.92599e-05
8.93364e-06
-1.27506e-05
-2.85691e-06
-2.34682e-05
-1.18845e-05
9.21935e-06
-5.21421e-05
2.20378e-05
-1.66418e-05
1.30666e-05
3.31182e-05
1.88543e-05
1.75135e-05
1.90686e-05
-4.79858e-06
2.52754e-05
-2.20881e-05
-9.4763e-07
-2.05016e-05
1.40467e-05
-3.35405e-05
3.66985e-05
2.07293e-05
4.57021e-05
8.69844e-06
3.81943e-05
8.88721e-06
5.02814e-06
-3.96419e-06
2.43028e-06
3.50062e-06
1.00171e-06
-5.06776e-06
7.74119e-06
-6.50797e-06
1.11452e-05
7.46798e-06
-7.09141e-06
1.73364e-05
-3.02996e-07
5.79299e-06
-1.41338e-05
1.39048e-05
-6.10127e-05
2.70224e-05
-2.83078e-05
-2.01488e-05
6.38961e-05
-6.50081e-05
-4.39484e-05
8.29021e-05
-6.68023e-05
2.02563e-05
7.80503e-05
-0.000126143
6.8488e-05
2.07867e-05
2.47549e-05
5.35977e-05
4.97705e-05
-1.6082e-05
4.21026e-05
4.81102e-06
-1.17702e-05
4.19883e-05
-2.74581e-05
-3.64543e-05
-4.91386e-08
-4.40508e-05
-7.8479e-06
4.09169e-05
-9.85279e-06
1.95184e-05
-1.07549e-05
-3.89645e-06
-1.23669e-05
-2.04761e-05
-1.40945e-05
-1.87741e-05
-2.99744e-05
-1.76606e-05
-1.68601e-05
7.61495e-06
-1.5366e-05
7.2043e-06
-1.83361e-05
1.18574e-05
-1.79768e-05
-4.32346e-06
-2.40157e-05
9.53952e-06
-2.96081e-05
5.24593e-07
-2.7723e-05
-8.39306e-06
-1.38169e-05
-6.43808e-06
-2.37561e-05
2.84779e-06
4.54525e-07
-7.43956e-07
1.24946e-06
-7.94932e-07
2.32558e-06
-1.07612e-06
3.37798e-06
-1.05241e-06
4.05747e-06
-6.79489e-07
4.34868e-06
-2.91211e-07
4.64501e-06
-2.96326e-07
4.94021e-06
-2.95197e-07
4.81677e-06
1.23439e-07
4.15206e-06
6.64709e-07
3.34511e-06
8.06949e-07
2.70231e-06
6.42797e-07
2.29114e-06
4.1117e-07
2.00126e-06
2.8988e-07
1.82811e-06
1.73152e-07
1.64196e-06
1.86146e-07
1.54244e-06
9.95233e-08
1.35796e-06
1.84484e-07
1.27549e-06
8.24706e-08
1.07547e-06
2.00016e-07
9.91857e-07
8.36129e-08
8.00497e-07
1.9136e-07
7.15761e-07
8.47356e-08
5.6328e-07
1.52482e-07
4.88291e-07
7.49884e-08
3.7739e-07
1.10902e-07
3.23269e-07
5.41206e-08
2.17546e-07
1.05723e-07
1.29133e-07
8.84132e-08
1.29133e-07
9.71642e-07
-1.05718e-06
1.49862e-06
-1.32191e-06
2.04032e-06
-1.61781e-06
2.65543e-06
-1.66752e-06
3.43595e-06
-1.46001e-06
4.07359e-06
-9.28855e-07
4.21974e-06
-4.42475e-07
3.89608e-06
2.84659e-08
3.35924e-06
6.60284e-07
2.89645e-06
1.12749e-06
2.59973e-06
1.10367e-06
2.36475e-06
8.77776e-07
2.1689e-06
6.07019e-07
1.96813e-06
4.90651e-07
1.82326e-06
3.18017e-07
1.64492e-06
3.64495e-07
1.53847e-06
2.05969e-07
1.35849e-06
3.64464e-07
1.27228e-06
1.68677e-07
1.08035e-06
3.91946e-07
1.00123e-06
1.62741e-07
8.09711e-07
3.82874e-07
7.25201e-07
1.69246e-07
5.71422e-07
3.0626e-07
4.95076e-07
1.51334e-07
3.82947e-07
2.23031e-07
3.28361e-07
1.08706e-07
2.20957e-07
2.13127e-07
1.3126e-07
1.7811e-07
2.60393e-07
3.51881e-07
-8.91145e-07
3.43794e-07
-1.31382e-06
1.68411e-07
-1.44243e-06
3.83228e-08
-1.53743e-06
2.38196e-07
-1.65988e-06
5.68079e-07
-1.25874e-06
7.39269e-07
-6.13665e-07
8.14135e-07
-4.64004e-08
1.0208e-06
4.53619e-07
1.39727e-06
7.51026e-07
1.7143e-06
7.8664e-07
1.86513e-06
7.26942e-07
1.90478e-06
5.67376e-07
1.84212e-06
5.5331e-07
1.79077e-06
3.69369e-07
1.653e-06
5.02263e-07
1.58616e-06
2.72806e-07
1.39743e-06
5.53194e-07
1.31778e-06
2.48332e-07
1.10132e-06
6.08402e-07
1.00758e-06
2.56481e-07
8.10877e-07
5.79579e-07
7.2031e-07
2.59813e-07
5.67968e-07
4.58602e-07
4.91977e-07
2.27325e-07
3.81086e-07
3.33923e-07
3.28433e-07
1.61359e-07
2.21265e-07
3.20294e-07
1.31795e-07
2.6758e-07
3.92189e-07
4.37176e-07
-1.23387e-06
7.55081e-07
-1.63173e-06
8.66912e-07
-1.55426e-06
9.31046e-07
-1.60157e-06
9.08018e-07
-1.63685e-06
7.95675e-07
-1.14639e-06
7.97616e-07
-6.15606e-07
9.39888e-07
-1.88672e-07
1.17162e-06
2.21886e-07
1.46063e-06
4.6202e-07
1.68951e-06
5.57762e-07
1.7892e-06
6.27245e-07
1.82588e-06
5.30698e-07
1.75667e-06
6.22524e-07
1.69839e-06
4.27642e-07
1.5565e-06
6.44154e-07
1.47431e-06
3.54994e-07
1.30684e-06
7.20673e-07
1.2297e-06
3.25466e-07
1.0495e-06
7.88608e-07
9.7974e-07
3.26236e-07
7.93521e-07
7.65799e-07
7.11174e-07
3.4216e-07
5.61965e-07
6.07811e-07
4.86835e-07
3.02455e-07
3.77931e-07
4.42827e-07
3.28334e-07
2.10956e-07
2.21628e-07
4.27001e-07
1.32522e-07
3.56686e-07
5.24711e-07
8.56656e-07
-1.82078e-06
1.28541e-06
-2.06049e-06
1.68807e-06
-1.95692e-06
1.91035e-06
-1.82384e-06
1.99713e-06
-1.72363e-06
1.81823e-06
-9.67492e-07
1.59034e-06
-3.87726e-07
1.42794e-06
-2.6267e-08
1.43613e-06
2.13693e-07
1.51191e-06
3.86243e-07
1.63048e-06
4.39186e-07
1.70329e-06
5.54443e-07
1.76873e-06
4.65256e-07
1.75204e-06
6.39209e-07
1.75631e-06
4.23378e-07
1.64721e-06
7.53254e-07
1.60919e-06
3.93012e-07
1.41587e-06
9.13996e-07
1.33874e-06
4.02592e-07
1.10525e-06
1.0221e-06
9.99634e-07
4.31847e-07
7.98855e-07
9.66578e-07
7.00791e-07
4.40224e-07
5.54554e-07
7.54048e-07
4.80072e-07
3.76937e-07
3.73915e-07
5.48984e-07
3.28238e-07
2.56632e-07
2.22197e-07
5.33043e-07
1.33511e-07
4.45371e-07
6.58222e-07
1.0293e-06
-2.08485e-06
1.04636e-06
-2.07755e-06
1.36139e-06
-2.27194e-06
1.61054e-06
-2.07299e-06
1.79159e-06
-1.90469e-06
1.86433e-06
-1.04023e-06
1.75064e-06
-2.74032e-07
1.5942e-06
1.30173e-07
1.57621e-06
2.31687e-07
1.58214e-06
3.8031e-07
1.65564e-06
3.65685e-07
1.65566e-06
5.54425e-07
1.69231e-06
4.28608e-07
1.61436e-06
7.17157e-07
1.59172e-06
4.46021e-07
1.45034e-06
8.9463e-07
1.39198e-06
4.5137e-07
1.22679e-06
1.07918e-06
1.16443e-06
4.64956e-07
9.95094e-07
1.19144e-06
9.3815e-07
4.88791e-07
7.63033e-07
1.14169e-06
6.84153e-07
5.19104e-07
5.44021e-07
8.9418e-07
4.71253e-07
4.49705e-07
3.68623e-07
6.51615e-07
3.28175e-07
2.9708e-07
2.23035e-07
6.38183e-07
1.34776e-07
5.3363e-07
7.92998e-07
1.32334e-06
-2.45703e-06
1.54506e-06
-2.29928e-06
1.61546e-06
-2.34234e-06
1.74981e-06
-2.20734e-06
1.69975e-06
-1.85463e-06
1.74123e-06
-1.08172e-06
1.71521e-06
-2.48006e-07
1.64986e-06
1.95518e-07
1.6202e-06
2.61354e-07
1.63169e-06
3.68819e-07
1.688e-06
3.09375e-07
1.73142e-06
5.11004e-07
1.78661e-06
3.73417e-07
1.78053e-06
7.23232e-07
1.80055e-06
4.26008e-07
1.69644e-06
9.98739e-07
1.67024e-06
4.77564e-07
1.45787e-06
1.29156e-06
1.37358e-06
5.49249e-07
1.11477e-06
1.45025e-06
9.89621e-07
6.13942e-07
7.81181e-07
1.35014e-06
6.70035e-07
6.3025e-07
5.33581e-07
1.03063e-06
4.61095e-07
5.22192e-07
3.62877e-07
7.49833e-07
3.28228e-07
3.31728e-07
2.24243e-07
7.42168e-07
1.36341e-07
6.21532e-07
9.29339e-07
1.78151e-06
-2.31621e-06
1.83128e-06
-2.34905e-06
1.64949e-06
-2.16054e-06
1.6062e-06
-2.16406e-06
1.47316e-06
-1.72159e-06
1.41083e-06
-1.01939e-06
1.45514e-06
-2.92322e-07
1.5042e-06
1.46468e-07
1.61695e-06
1.48604e-07
1.63103e-06
3.54737e-07
1.68509e-06
2.55314e-07
1.62668e-06
5.69415e-07
1.64996e-06
3.50136e-07
1.52591e-06
8.47283e-07
1.51026e-06
4.41654e-07
1.34241e-06
1.16659e-06
1.29434e-06
5.25638e-07
1.12157e-06
1.46432e-06
1.07138e-06
5.99441e-07
9.1415e-07
1.60748e-06
8.71978e-07
6.56114e-07
7.16282e-07
1.50583e-06
6.42091e-07
7.04441e-07
5.17466e-07
1.15526e-06
4.48204e-07
5.91454e-07
3.55295e-07
8.42742e-07
3.28426e-07
3.58597e-07
2.25891e-07
8.44704e-07
1.38235e-07
7.09187e-07
1.06757e-06
2.47641e-06
-1.73811e-06
1.93192e-06
-1.80456e-06
1.57334e-06
-1.80196e-06
1.24978e-06
-1.84051e-06
1.00979e-06
-1.48159e-06
8.84599e-07
-8.94197e-07
9.98993e-07
-4.06716e-07
1.24772e-06
-1.02262e-07
1.47309e-06
-7.67626e-08
1.62781e-06
2.00016e-07
1.7567e-06
1.26424e-07
1.8258e-06
5.00316e-07
1.8996e-06
2.76334e-07
1.89354e-06
8.53346e-07
1.93012e-06
4.05072e-07
1.80604e-06
1.29067e-06
1.78437e-06
5.47311e-07
1.53143e-06
1.71725e-06
1.4291e-06
7.01773e-07
1.13399e-06
1.90259e-06
9.79435e-07
8.10671e-07
7.59858e-07
1.72541e-06
6.29076e-07
8.35223e-07
5.05228e-07
1.27911e-06
4.34921e-07
6.61761e-07
3.48194e-07
9.29468e-07
3.28992e-07
3.778e-07
2.2818e-07
9.45516e-07
1.40498e-07
7.96869e-07
1.20807e-06
4.5203e-06
-1.46628e-06
4.08945e-06
-1.3737e-06
3.67501e-06
-1.38752e-06
3.0665e-06
-1.232e-06
2.61873e-06
-1.03382e-06
2.32123e-06
-5.967e-07
2.20347e-06
-2.88956e-07
2.04824e-06
5.29683e-08
1.9598e-06
1.16765e-08
1.86736e-06
2.92461e-07
1.79187e-06
2.01907e-07
1.68131e-06
6.10879e-07
1.63696e-06
3.20681e-07
1.47124e-06
1.01907e-06
1.42808e-06
4.48229e-07
1.22862e-06
1.49014e-06