/*--------------------------------*- C++ -*----------------------------------*\
| =========                 |                                                 |
| \\      /  F ield         | OpenFOAM: The Open Source CFD Toolbox           |
|  \\    /   O peration     | Version:  2.4.0                                 |
|   \\  /    A nd           | Web:      www.OpenFOAM.org                      |
|    \\/     M anipulation  |                                                 |
\*---------------------------------------------------------------------------*/
FoamFile
{
    version     2.0;
    format      ascii;
    class       volVectorField;
    location    "0.04";
    object      U;
}
// * * * * * * * * * * * * * * * * * * * * * * * * * * * * * * * * * * * * * //

dimensions      [0 1 -1 0 0 0 0];

internalField   nonuniform List<vector> 
3600
(
(0.0133319 0.000599005 0)
(-0.0275825 0.00158612 0)
(-0.0201694 6.75115e-06 0)
(-0.0339674 0.00252617 0)
(-0.05561 0.000715102 0)
(-0.0605138 0.00345992 0)
(-0.0898851 0.00159195 0)
(-0.0993799 0.00448496 0)
(-0.128611 0.00316162 0)
(-0.144838 0.006216 0)
(-0.17221 0.00762363 0)
(-0.19039 0.0119789 0)
(-0.213291 0.0146341 0)
(-0.230108 0.0182608 0)
(-0.247795 0.0201763 0)
(-0.263991 0.0224956 0)
(-0.283645 0.025257 0)
(-0.310618 0.031616 0)
(-0.352958 0.0428319 0)
(-0.420586 0.0504648 0)
(-0.510433 0.029595 0)
(-0.560031 -0.0249895 0)
(-0.521988 -0.070424 0)
(-0.462548 -0.0554607 0)
(-0.437915 0.0143048 0)
(-0.413158 0.0460922 0)
(-0.367256 0.00530173 0)
(-0.259445 -0.066822 0)
(-0.178181 -0.0702192 0)
(-0.0720835 -0.131238 0)
(0.0134438 0.00185198 0)
(-0.0280333 0.00480836 0)
(-0.0203525 7.34714e-05 0)
(-0.0344936 0.00764712 0)
(-0.0561582 0.00223762 0)
(-0.061377 0.0104896 0)
(-0.0908056 0.00487789 0)
(-0.100478 0.0135734 0)
(-0.129769 0.00876041 0)
(-0.145219 0.0152259 0)
(-0.172121 0.00896553 0)
(-0.189886 0.0108016 0)
(-0.213291 0.00466926 0)
(-0.230863 0.00400546 0)
(-0.249783 0.00150516 0)
(-0.266016 0.00437192 0)
(-0.282804 0.0127259 0)
(-0.299422 0.0330363 0)
(-0.317296 0.0703136 0)
(-0.337151 0.117813 0)
(-0.372505 0.131446 0)
(-0.424032 0.0415656 0)
(-0.47253 -0.0840009 0)
(-0.493754 -0.110759 0)
(-0.445602 -0.103865 0)
(-0.315386 -0.227798 0)
(-0.226689 -0.350972 0)
(-0.0992393 -0.470035 0)
(-0.0604315 -0.490936 0)
(0.0800276 -0.464538 0)
(0.0137784 0.00311255 0)
(-0.0283006 0.00799994 0)
(-0.0198945 0.000143242 0)
(-0.0342969 0.0127197 0)
(-0.0555942 0.00378515 0)
(-0.0610742 0.017496 0)
(-0.0900721 0.00810896 0)
(-0.0999442 0.0228538 0)
(-0.129733 0.0154964 0)
(-0.147393 0.0293801 0)
(-0.176827 0.0258001 0)
(-0.196107 0.038927 0)
(-0.220813 0.0372115 0)
(-0.23667 0.0467678 0)
(-0.252705 0.0463093 0)
(-0.261729 0.0533921 0)
(-0.26708 0.0588213 0)
(-0.263905 0.0730098 0)
(-0.250149 0.0941993 0)
(-0.215183 0.123097 0)
(-0.17183 0.145407 0)
(-0.117629 0.124869 0)
(-0.109604 0.0490068 0)
(-0.0763328 -0.0898977 0)
(-0.0629969 -0.289257 0)
(0.0350197 -0.460283 0)
(0.0649685 -0.494291 0)
(0.082995 -0.50701 0)
(0.064674 -0.621054 0)
(0.0770037 -0.553099 0)
(0.0142796 0.00437341 0)
(-0.0286882 0.0111354 0)
(-0.0191924 0.000223507 0)
(-0.0339661 0.0176948 0)
(-0.0547077 0.00539324 0)
(-0.0605814 0.0244304 0)
(-0.0888323 0.0112212 0)
(-0.0984765 0.0319893 0)
(-0.127002 0.0201595 0)
(-0.141445 0.0363914 0)
(-0.167512 0.0241544 0)
(-0.184578 0.0317419 0)
(-0.208782 0.0203733 0)
(-0.225686 0.0210876 0)
(-0.245305 0.0122661 0)
(-0.256912 0.010673 0)
(-0.26593 0.00716607 0)
(-0.264069 0.00844415 0)
(-0.253348 0.00904276 0)
(-0.225255 0.00878948 0)
(-0.189035 -0.00980972 0)
(-0.136919 -0.0442405 0)
(-0.10312 -0.134333 0)
(-0.0754802 -0.196205 0)
(-0.0615667 -0.321917 0)
(-0.0720799 -0.451503 0)
(-0.0478922 -0.423713 0)
(-0.0371898 -0.418215 0)
(0.000991478 -0.457388 0)
(-0.00936335 -0.364493 0)
(0.0149385 0.00564335 0)
(-0.029203 0.0141872 0)
(-0.0182647 0.000322915 0)
(-0.0335106 0.022514 0)
(-0.0535216 0.00710121 0)
(-0.0599691 0.03125 0)
(-0.0872254 0.0142478 0)
(-0.0975641 0.0416034 0)
(-0.127521 0.0275134 0)
(-0.146471 0.0552041 0)
(-0.178513 0.044321 0)
(-0.19872 0.0715837 0)
(-0.226507 0.0607706 0)
(-0.242139 0.0819738 0)
(-0.25971 0.0697032 0)
(-0.265897 0.081689 0)
(-0.269248 0.0697948 0)
(-0.262862 0.0733441 0)
(-0.250002 0.0623469 0)
(-0.230968 0.056177 0)
(-0.205657 0.0349752 0)
(-0.190113 0.00679316 0)
(-0.175099 -0.0589122 0)
(-0.199383 -0.157826 0)
(-0.183781 -0.328932 0)
(-0.195165 -0.531111 0)
(-0.14161 -0.598004 0)
(-0.11466 -0.682397 0)
(-0.0381649 -0.7077 0)
(-0.0144224 -0.66688 0)
(0.0157455 0.0069246 0)
(-0.0298419 0.0171213 0)
(-0.0171211 0.000453831 0)
(-0.032918 0.0271098 0)
(-0.052032 0.00896485 0)
(-0.0592481 0.0378849 0)
(-0.0849664 0.01706 0)
(-0.0948063 0.050531 0)
(-0.121124 0.0304767 0)
(-0.135361 0.0569602 0)
(-0.15919 0.0378611 0)
(-0.177034 0.0507609 0)
(-0.202043 0.0338131 0)
(-0.220649 0.0347245 0)
(-0.244505 0.0182117 0)
(-0.257155 0.0108227 0)
(-0.272016 -0.0055328 0)
(-0.271267 -0.0172371 0)
(-0.270124 -0.0343134 0)
(-0.254196 -0.0489476 0)
(-0.235516 -0.0686498 0)
(-0.214214 -0.0910711 0)
(-0.194767 -0.120778 0)
(-0.190002 -0.194752 0)
(-0.157884 -0.35302 0)
(-0.0939501 -0.556244 0)
(-0.077065 -0.602129 0)
(0.0139808 -0.721611 0)
(0.0313429 -0.763448 0)
(0.0658302 -0.764955 0)
(0.0166879 0.00822603 0)
(-0.0306016 0.0198942 0)
(-0.0157767 0.000669993 0)
(-0.0321671 0.0313777 0)
(-0.0502425 0.011075 0)
(-0.0585034 0.0442778 0)
(-0.0824882 0.0198265 0)
(-0.0940746 0.060963 0)
(-0.124133 0.0387692 0)
(-0.144617 0.0849889 0)
(-0.180604 0.0628896 0)
(-0.201994 0.112545 0)
(-0.235143 0.0863524 0)
(-0.252711 0.128869 0)
(-0.276131 0.0959381 0)
(-0.28457 0.122432 0)
(-0.293719 0.0825303 0)
(-0.290763 0.0890852 0)
(-0.284376 0.044973 0)
(-0.270229 0.0299248 0)
(-0.252732 -0.0105537 0)
(-0.231088 -0.0365678 0)
(-0.204313 -0.0883921 0)
(-0.17126 -0.214852 0)
(-0.1135 -0.471234 0)
(-0.0516173 -0.691103 0)
(-0.0105081 -0.823566 0)
(0.0682232 -0.931038 0)
(0.0275357 -0.819979 0)
(0.115532 -0.904177 0)
(0.0177474 0.0095626 0)
(-0.0314692 0.0224427 0)
(-0.0142553 0.00108459 0)
(-0.0312329 0.0351524 0)
(-0.0481421 0.0135712 0)
(-0.0577202 0.050247 0)
(-0.0788205 0.0222504 0)
(-0.0896547 0.0686798 0)
(-0.110838 0.0396309 0)
(-0.126975 0.0761041 0)
(-0.145016 0.0501736 0)
(-0.166748 0.0669819 0)
(-0.190811 0.0469408 0)
(-0.215724 0.0464309 0)
(-0.246374 0.0270756 0)
(-0.268369 0.012255 0)
(-0.297973 -0.0105916 0)
(-0.308354 -0.0348096 0)
(-0.329579 -0.0660534 0)
(-0.317696 -0.0959058 0)
(-0.308078 -0.132757 0)
(-0.263024 -0.173652 0)
(-0.205896 -0.236518 0)
(-0.126073 -0.383758 0)
(-0.0664618 -0.59979 0)
(0.0453505 -0.869654 0)
(0.198532 -0.922914 0)
(0.216736 -0.864796 0)
(0.208759 -0.958869 0)
(0.268168 -1.08814 0)
(0.0188976 0.0109536 0)
(-0.0324216 0.0246846 0)
(-0.0125971 0.00178163 0)
(-0.030082 0.0382212 0)
(-0.0457461 0.0167052 0)
(-0.0570942 0.0557872 0)
(-0.0756351 0.0248325 0)
(-0.0896673 0.0811791 0)
(-0.119886 0.0490033 0)
(-0.141992 0.120629 0)
(-0.183706 0.0826275 0)
(-0.20552 0.165865 0)
(-0.246407 0.11738 0)
(-0.266413 0.194522 0)
(-0.300174 0.134726 0)
(-0.313712 0.189228 0)
(-0.33562 0.117975 0)
(-0.343873 0.140189 0)
(-0.353674 0.0610574 0)
(-0.351988 0.038099 0)
(-0.355233 -0.0553399 0)
(-0.337049 -0.140955 0)
(-0.316252 -0.258099 0)
(-0.213008 -0.446689 0)
(-0.274053 -0.677921 0)
(0.0926899 -1.33171 0)
(0.507111 -1.01142 0)
(0.425843 -0.904634 0)
(0.45589 -0.874919 0)
(0.395245 -0.739604 0)
(0.020103 0.0124165 0)
(-0.0334315 0.0265691 0)
(-0.0108566 0.00275914 0)
(-0.028644 0.04045 0)
(-0.0430043 0.0207864 0)
(-0.0565414 0.0602503 0)
(-0.069664 0.0268777 0)
(-0.0832746 0.0853296 0)
(-0.0941252 0.0474681 0)
(-0.115784 0.0912219 0)
(-0.121675 0.0588447 0)
(-0.15206 0.0767109 0)
(-0.170613 0.0582519 0)
(-0.206456 0.0542118 0)
(-0.244328 0.0413565 0)
(-0.282341 0.0175007 0)
(-0.334553 -0.000362383 0)
(-0.365266 -0.0374193 0)
(-0.431909 -0.0711108 0)
(-0.451604 -0.124177 0)
(-0.525951 -0.192394 0)
(-0.543182 -0.281367 0)
(-0.625642 -0.413656 0)
(-0.589405 -0.617327 0)
(-1.01462 -0.89488 0)
(-0.0214972 -2.69458 0)
(1.135 -1.11495 0)
(0.709607 -0.968279 0)
(0.689037 -0.848315 0)
(0.581683 -0.806679 0)
(0.0213254 0.013959 0)
(-0.0344783 0.0281133 0)
(-0.00909205 0.00390456 0)
(-0.0268104 0.0419141 0)
(-0.0400732 0.0260749 0)
(-0.0564996 0.063979 0)
(-0.0664324 0.0295378 0)
(-0.0845694 0.102481 0)
(-0.115677 0.0586421 0)
(-0.139622 0.16547 0)
(-0.18882 0.107001 0)
(-0.208564 0.237606 0)
(-0.258931 0.15866 0)
(-0.279223 0.288661 0)
(-0.326938 0.195929 0)
(-0.346124 0.297852 0)
(-0.386435 0.196601 0)
(-0.411313 0.261057 0)
(-0.45454 0.158893 0)
(-0.498034 0.18508 0)
(-0.575112 0.0901481 0)
(-0.684084 0.0673628 0)
(-0.844658 -0.016642 0)
(-0.898361 -0.180235 0)
(-1.51806 -0.937063 0)
(-0.113063 -7.56244 0)
(1.48563 -1.27493 0)
(1.05876 -0.409566 0)
(0.949677 -0.243333 0)
(0.857021 -0.265677 0)
(0.0225307 0.0155767 0)
(-0.0355576 0.029372 0)
(-0.00734259 0.0050771 0)
(-0.0244297 0.0427856 0)
(-0.0368457 0.0325931 0)
(-0.0566645 0.0652404 0)
(-0.0562015 0.0315359 0)
(-0.0759224 0.0983107 0)
(-0.0678331 0.0526202 0)
(-0.100251 0.0974116 0)
(-0.0846969 0.058707 0)
(-0.131043 0.0725485 0)
(-0.134892 0.0619408 0)
(-0.185451 0.0499755 0)
(-0.226682 0.0588641 0)
(-0.282025 0.0220143 0)
(-0.354551 0.0308031 0)
(-0.405495 -0.0135587 0)
(-0.502527 -0.00530567 0)
(-0.538 -0.0272196 0)
(-0.667391 9.54419e-05 0)
(-0.7358 0.0414348 0)
(-0.920377 0.0668416 0)
(-0.995233 -0.0713443 0)
(-0.812109 -2.04549 0)
(0.319455 -11.7725 0)
(0.0612587 -3.04749 0)
(1.13965 -0.56239 0)
(0.935471 -0.24806 0)
(0.91186 -0.224794 0)
(0.0236907 0.0172685 0)
(-0.0366755 0.0303898 0)
(-0.00563722 0.0061008 0)
(-0.0213624 0.043242 0)
(-0.0339592 0.0403477 0)
(-0.0577406 0.065866 0)
(-0.0546012 0.0351443 0)
(-0.079618 0.125897 0)
(-0.11349 0.0706311 0)
(-0.140166 0.223326 0)
(-0.197758 0.140476 0)
(-0.210546 0.334046 0)
(-0.271 0.213871 0)
(-0.284814 0.42267 0)
(-0.349036 0.284786 0)
(-0.368627 0.462843 0)
(-0.423445 0.320653 0)
(-0.446327 0.448488 0)
(-0.478509 0.321139 0)
(-0.493888 0.428533 0)
(-0.516618 0.331024 0)
(-0.54888 0.511918 0)
(-0.373055 0.412713 0)
(-0.901749 0.214909 0)
(0.523667 -4.24435 0)
(0.972073 -6.21563 0)
(-1.30209 -4.76108 0)
(1.15565 -0.867668 0)
(0.337834 0.0665359 0)
(0.675342 0.306075 0)
(0.0247791 0.0190374 0)
(-0.0378615 0.0311875 0)
(-0.00398168 0.00680731 0)
(-0.0174247 0.0433725 0)
(-0.0308855 0.0492799 0)
(-0.058923 0.0621446 0)
(-0.0360397 0.0378813 0)
(-0.0673587 0.103594 0)
(-0.0280111 0.051515 0)
(-0.0785685 0.0894422 0)
(-0.0287662 0.0441997 0)
(-0.103232 0.0448469 0)
(-0.0746508 0.0498945 0)
(-0.146472 0.0165583 0)
(-0.178769 0.0768301 0)
(-0.253279 -0.00216755 0)
(-0.340302 0.0711035 0)
(-0.404519 -0.0267793 0)
(-0.504666 0.0263638 0)
(-0.514196 -0.0270208 0)
(-0.514019 0.0231236 0)
(-0.583501 0.057054 0)
(-0.0108695 0.00911373 0)
(-0.380218 -0.436204 0)
(0.450927 -8.82012 0)
(1.98043 -3.5186 0)
(-0.243012 -5.8427 0)
(1.18167 -2.70126 0)
(0.606087 -0.732615 0)
(0.784138 -0.15286 0)
(0.0257705 0.0208917 0)
(-0.0391544 0.0317751 0)
(-0.00238516 0.00704911 0)
(-0.0124558 0.0434734 0)
(-0.029229 0.0595579 0)
(-0.0613548 0.060252 0)
(-0.0403377 0.0441412 0)
(-0.0773686 0.152285 0)
(-0.115964 0.0894791 0)
(-0.147248 0.295072 0)
(-0.213715 0.187301 0)
(-0.211235 0.456566 0)
(-0.282939 0.282875 0)
(-0.271592 0.604913 0)
(-0.36742 0.400159 0)
(-0.374131 0.702189 0)
(-0.466392 0.48135 0)
(-0.492047 0.68962 0)
(-0.530391 0.475476 0)
(-0.53099 0.535389 0)
(-0.486737 0.244882 0)
(-0.505721 0.133559 0)
(-0.0334717 -0.338381 0)
(1.93305 -0.403931 0)
(1.7795 -8.73524 0)
(1.64563 -5.85297 0)
(0.775475 -3.80635 0)
(0.637867 -2.31066 0)
(0.450733 0.0340951 0)
(0.494797 0.62711 0)
(0.0266387 0.0228536 0)
(-0.0406134 0.0321501 0)
(-0.00078997 0.00658595 0)
(-0.00621414 0.0433913 0)
(-0.0269552 0.0711631 0)
(-0.0634348 0.0456237 0)
(-0.00633121 0.0440578 0)
(-0.0569121 0.0968663 0)
(0.0288109 0.0420882 0)
(-0.0497069 0.0648566 0)
(0.0513964 0.0108821 0)
(-0.0726793 -0.015039 0)
(0.0216128 0.0168107 0)
(-0.0917725 -0.0702819 0)
(-0.0805408 0.10096 0)
(-0.193459 -0.0793873 0)
(-0.296163 0.15341 0)
(-0.416332 -0.0994529 0)
(-0.611879 0.0949905 0)
(-0.758622 -0.118348 0)
(-0.868492 -0.0266176 0)
(-0.747894 -0.583008 0)
(-1.07636 -3.04485 0)
(2.6997 -5.61201 0)
(1.43142 -4.69506 0)
(-0.405449 -3.90761 0)
(-0.834179 -2.59119 0)
(-0.0951576 -2.22473 0)
(0.224452 -0.219687 0)
(-0.200478 0.104551 0)
(0.0273543 0.0249546 0)
(-0.0423258 0.0322893 0)
(0.000780605 0.0050779 0)
(0.0015171 0.0471852 0)
(-0.0293466 0.084751 0)
(-0.0683611 0.0612718 0)
(-0.0237516 0.0610203 0)
(-0.080487 0.178863 0)
(-0.125973 0.119593 0)
(-0.165821 0.372923 0)
(-0.242059 0.256893 0)
(-0.208737 0.592823 0)
(-0.298827 0.364113 0)
(-0.21464 0.828583 0)
(-0.374225 0.536176 0)
(-0.326894 1.04509 0)
(-0.520914 0.697701 0)
(-0.504911 1.13183 0)
(-0.630979 0.752488 0)
(-0.677207 0.938879 0)
(-0.898917 0.274126 0)
(-1.89057 -0.254824 0)
(-1.08049 -5.30718 0)
(-1.71735 -6.41126 0)
(-1.84981 -0.760184 0)
(-2.67199 -0.783745 0)
(-1.11118 -4.69788 0)
(-0.357098 -4.67688 0)
(-0.0714356 0.863984 0)
(-0.262624 0.806596 0)
(0.0278815 0.0272422 0)
(-0.0444181 0.0322226 0)
(0.00320483 0.0024288 0)
(0.0110898 0.0326075 0)
(-0.0243386 0.0976794 0)
(-0.0697147 -0.0118606 0)
(0.0306624 0.0442443 0)
(-0.0443731 0.0773688 0)
(0.103243 0.0243463 0)
(-0.0104049 0.0275005 0)
(0.158611 -0.0464557 0)
(-0.0511689 -0.113564 0)
(0.166819 -0.0473348 0)
(-0.0401519 -0.226417 0)
(0.105232 0.133245 0)
(-0.0924984 -0.207491 0)
(-0.104341 0.322027 0)
(-0.358584 -0.216242 0)
(-0.57481 0.449449 0)
(-1.12101 -0.0362511 0)
(-1.52317 1.86528 0)
(-1.22265 -0.349244 0)
(-0.678027 -3.83259 0)
(-1.25094 -4.0391 0)
(0.043021 -4.45443 0)
(0.644444 -3.56234 0)
(0.801899 -9.09001 0)
(0.263882 -5.63246 0)
(-0.658203 -0.538986 0)
(0.618326 0.346714 0)
(0.0281875 0.0297556 0)
(-0.0470017 0.0316919 0)
(0.00206657 -0.00128156 0)
(0.022648 0.0790072 0)
(-0.0425367 0.125589 0)
(-0.0805547 0.0817671 0)
(0.00266464 0.0849145 0)
(-0.0899659 0.208259 0)
(-0.146196 0.154315 0)
(-0.204734 0.463449 0)
(-0.292651 0.340315 0)
(-0.202486 0.732099 0)
(-0.322325 0.435608 0)
(-0.0729655 1.062 0)
(-0.336711 0.667866 0)
(-0.138394 1.42684 0)
(-0.531343 0.874062 0)
(-0.304889 1.82392 0)
(-0.843812 1.25532 0)
(-0.555942 2.07466 0)
(-0.976926 0.274461 0)
(0.28285 -1.83919 0)
(-0.961155 -5.17403 0)
(1.03442 -7.30058 0)
(-1.29049 -6.2546 0)
(1.11735 -2.42477 0)
(-0.815648 -4.6334 0)
(-0.38061 -0.00340241 0)
(-2.03173 -1.98497 0)
(-0.188165 0.13244 0)
(0.0281863 0.0326813 0)
(-0.0502057 0.0299391 0)
(0.0139619 -0.00476983 0)
(0.0383206 -0.0113711 0)
(-0.0247725 0.116122 0)
(-0.0803758 -0.0869661 0)
(0.0698195 0.0355792 0)
(-0.0326757 0.0480515 0)
(0.196156 0.00111287 0)
(0.0421339 -0.0130302 0)
(0.290489 -0.129548 0)
(-0.0521431 -0.252977 0)
(0.36313 -0.167278 0)
(-0.0258561 -0.461759 0)
(0.37625 0.160651 0)
(-0.114477 -0.361686 0)
(0.265165 0.679018 0)
(-0.238824 -0.228 0)
(0.165354 1.06593 0)
(-0.0998219 -0.271091 0)
(-0.0560466 1.4704 0)
(0.771044 -0.660765 0)
(0.230512 -3.25212 0)
(-0.357615 -3.9995 0)
(-1.84505 -3.60365 0)
(-1.81517 -4.61771 0)
(-1.76014 -4.36808 0)
(-1.36273 -1.05349 0)
(-1.22231 -2.51114 0)
(-1.23354 -1.41946 0)
(0.0276845 0.0357252 0)
(-0.0538703 0.0354521 0)
(-0.00433127 -0.0175956 0)
(0.0503446 0.148045 0)
(-0.0656071 0.210175 0)
(-0.0980226 0.0727302 0)
(0.0407311 0.114609 0)
(-0.105631 0.243213 0)
(-0.180522 0.191653 0)
(-0.277837 0.560328 0)
(-0.375151 0.445886 0)
(-0.202246 0.847129 0)
(-0.347784 0.468303 0)
(0.209882 1.27266 0)
(-0.178766 0.740571 0)
(0.448271 1.75432 0)
(-0.303103 0.787938 0)
(0.588112 2.09357 0)
(-1.17204 1.09688 0)
(-0.463878 2.66151 0)
(-0.681338 -1.11211 0)
(-0.97046 -1.28228 0)
(-0.795156 -4.04429 0)
(-3.10188 -1.27988 0)
(-0.698561 -3.6607 0)
(-2.21358 -3.00082 0)
(-1.43317 -4.67199 0)
(-2.56593 -1.85721 0)
(-1.0026 -2.59962 0)
(-2.09728 -0.0820151 0)
(0.0280976 0.0399832 0)
(-0.0602101 0.0148028 0)
(0.0381414 -0.00531555 0)
(0.086887 -0.0914523 0)
(-0.0451612 0.107836 0)
(-0.104154 -0.1912 0)
(0.120788 0.0147322 0)
(-0.0272656 0.00184652 0)
(0.302089 -0.0303925 0)
(0.115054 -0.0417563 0)
(0.445693 -0.242481 0)
(-0.0969657 -0.417538 0)
(0.617498 -0.398632 0)
(-0.0547941 -0.766041 0)
(0.744206 0.125676 0)
(-0.395732 -0.518942 0)
(0.633247 0.826414 0)
(-1.13759 0.434112 0)
(0.396629 1.99502 0)
(-0.184302 -1.16816 0)
(-0.530574 1.37398 0)
(0.942438 -0.608827 0)
(-0.881243 -1.62392 0)
(-1.29804 -5.51824 0)
(-0.87122 -6.71954 0)
(-2.60862 -4.44495 0)
(-3.76099 -2.60824 0)
(-3.17437 -3.28094 0)
(-2.08732 -3.40164 0)
(-2.50817 -1.51225 0)
(0.0233178 0.043623 0)
(-0.0616655 0.0476573 0)
(-0.0225841 -0.059841 0)
(0.077454 0.258356 0)
(-0.0970412 0.38001 0)
(-0.117211 0.0721349 0)
(0.0935067 0.163329 0)
(-0.128965 0.312627 0)
(-0.23831 0.24248 0)
(-0.405389 0.653087 0)
(-0.498371 0.595037 0)
(-0.236467 0.881009 0)
(-0.365929 0.412278 0)
(0.687835 1.36357 0)
(0.0393886 0.72521 0)
(1.24549 2.0117 0)
(-0.105008 1.14093 0)
(2.32879 2.18994 0)
(0.75317 0.412522 0)
(-1.42541 4.44987 0)
(0.900675 -2.23882 0)
(2.22967 -0.403236 0)
(3.39306 0.947927 0)
(2.47983 -0.502455 0)
(-1.68082 0.890835 0)
(-2.19795 2.77905 0)
(-3.564 -1.77205 0)
(-0.730942 -9.6613 0)
(-2.61994 -3.71335 0)
(-1.35813 -3.90236 0)
(0.0287687 0.0502033 0)
(-0.0801355 -0.009693 0)
(0.0822705 0.00773747 0)
(0.181812 -0.203269 0)
(-0.0938363 0.0321525 0)
(-0.156924 -0.37626 0)
(0.190995 -0.0286785 0)
(-0.0366876 -0.101952 0)
(0.392105 -0.0860057 0)
(0.222326 -0.0391879 0)
(0.623496 -0.39494 0)
(-0.223217 -0.579421 0)
(0.925933 -0.796861 0)
(-0.0897609 -1.21182 0)
(1.21736 0.312163 0)
(-0.216976 -0.799365 0)
(1.26513 0.406719 0)
(-1.26379 -0.194684 0)
(-0.449265 4.78476 0)
(-0.468042 -1.51164 0)
(3.03988 -4.82536 0)
(1.36215 -5.10354 0)
(1.25565 0.125715 0)
(0.985177 1.8488 0)
(0.0569189 0.910806 0)
(0.383155 -2.10565 0)
(0.0155048 -2.72636 0)
(-0.183555 -6.09555 0)
(-1.97996 -6.2218 0)
(-2.0697 -4.73112 0)
(0.0129747 0.0546098 0)
(-0.0679538 0.0546008 0)
(-0.0555744 -0.140564 0)
(0.085206 0.41459 0)
(-0.148578 0.707435 0)
(-0.128736 0.0990861 0)
(0.167049 0.238822 0)
(-0.167514 0.489223 0)
(-0.339548 0.307723 0)
(-0.604322 0.719631 0)
(-0.655409 0.844558 0)
(-0.345939 0.733141 0)
(-0.406144 0.141517 0)
(1.61228 1.21969 0)
(0.0716436 0.374458 0)
(2.55248 1.95389 0)
(-1.87395 1.74101 0)
(1.9885 4.22007 0)
(1.86066 0.952737 0)
(1.5368 -0.416512 0)
(5.09051 -2.51008 0)
(-0.137629 0.990637 0)
(-0.380905 1.96791 0)
(0.309649 0.537453 0)
(0.90479 2.00178 0)
(2.35753 1.94765 0)
(1.6103 1.48674 0)
(1.58281 -2.32476 0)
(0.157875 0.178352 0)
(-2.21096 0.587516 0)
(0.0288243 0.0651263 0)
(-0.118497 -0.0314575 0)
(0.1545 0.0395642 0)
(0.369405 -0.339976 0)
(-0.174319 -0.165082 0)
(-0.268899 -0.723036 0)
(0.304962 -0.086365 0)
(-0.0707709 -0.291118 0)
(0.387071 -0.149219 0)
(0.362016 -0.0174714 0)
(0.864589 -0.590448 0)
(-0.600819 -0.6489 0)
(1.34178 -1.54245 0)
(-0.200045 -1.62853 0)
(2.01218 0.661416 0)
(-0.361202 0.427198 0)
(1.83811 1.76083 0)
(2.30691 -5.2371 0)
(4.84807 5.24301 0)
(0.482869 -3.67465 0)
(2.90002 -1.94143 0)
(1.82739 2.38538 0)
(2.27011 0.904656 0)
(2.37944 -1.66797 0)
(2.8524 0.627689 0)
(4.64844 -5.33556 0)
(2.82647 -1.09998 0)
(3.12129 -0.961211 0)
(3.4112 0.417587 0)
(1.20442 5.50544 0)
(-0.00374919 0.0701936 0)
(-0.0698265 0.0351253 0)
(-0.105065 -0.281558 0)
(0.0526514 0.619028 0)
(-0.260673 1.27368 0)
(-0.114633 0.223036 0)
(0.286276 0.314186 0)
(-0.230498 0.888416 0)
(-0.579772 0.340641 0)
(-0.777062 0.709871 0)
(-0.925684 1.32036 0)
(-0.744241 0.348513 0)
(-0.586507 -0.480204 0)
(3.80004 0.595657 0)
(-2.25126 -0.151959 0)
(5.94117 1.65325 0)
(-0.280963 -1.63301 0)
(0.404297 2.77339 0)
(-1.57399 3.34166 0)
(2.14852 -1.37998 0)
(7.95255 -4.94359 0)
(0.130318 0.850816 0)
(6.85978 1.97379 0)
(1.41446 -1.2655 0)
(4.59103 -3.7198 0)
(4.41262 2.49271 0)
(1.92071 4.70509 0)
(3.24465 -1.88047 0)
(0.609348 3.08354 0)
(2.19767 8.06984 0)
(0.027659 0.0870897 0)
(-0.189027 -0.0323463 0)
(0.264899 0.110087 0)
(0.473416 -0.48746 0)
(-0.0997814 -0.50694 0)
(-0.446062 -1.3845 0)
(0.513568 -0.0960305 0)
(-0.435934 -0.578563 0)
(0.18775 -0.182882 0)
(-0.0103772 -0.0852468 0)
(2.91472 -0.495171 0)
(-0.582062 -0.599433 0)
(0.898256 -4.18378 0)
(-2.43397 -0.322521 0)
(4.68126 -0.157571 0)
(-1.02354 0.00832769 0)
(-0.349826 5.44143 0)
(-0.970185 -3.84616 0)
(-0.624142 3.88186 0)
(6.52984 -11.5792 0)
(4.13367 -1.88793 0)
(2.27139 3.27752 0)
(-2.58813 2.2656 0)
(2.11918 1.66162 0)
(-4.75537 -10.7209 0)
(5.64435 2.83573 0)
(-0.855961 3.24467 0)
(6.32814 -1.41555 0)
(3.2285 2.51134 0)
(4.06756 2.06637 0)
(-0.0770933 0.0952311 0)
(-0.0635482 -0.0126131 0)
(-0.474703 -0.478142 0)
(3.24437 0.800984 0)
(-2.32864 2.04399 0)
(1.80921 0.560179 0)
(-0.649451 0.377095 0)
(3.68153 1.67583 0)
(-2.83921 0.421018 0)
(1.04013 -0.237802 0)
(-6.20947 1.43812 0)
(0.898702 0.883496 0)
(-3.0636 1.79333 0)
(-3.21873 -3.12163 0)
(4.4764 -0.80469 0)
(1.82843 4.02251 0)
(0.873154 -0.521884 0)
(3.8655 2.61098 0)
(1.4659 -7.89609 0)
(5.25061 0.622589 0)
(-5.28503 -5.05882 0)
(7.76686 8.68495 0)
(2.78415 3.32126 0)
(6.66735 -1.72329 0)
(2.08512 -6.56343 0)
(-0.00497553 -1.99206 0)
(0.0998819 -6.2584 0)
(0.181125 1.92054 0)
(1.71759 6.15446 0)
(1.23868 -2.42337 0)
(0.387446 0.11644 0)
(-0.400797 0.017874 0)
(-3.04387 -0.365932 0)
(-10.5072 -0.145835 0)
(2.48098 -0.730372 0)
(13.2479 -2.36247 0)
(-22.4613 -0.495742 0)
(4.08464 -0.780113 0)
(14.9892 0.265352 0)
(1.65466 1.18095 0)
(4.25007 -0.222795 0)
(7.04096 -1.12006 0)
(4.09392 -3.74215 0)
(-6.73645 -3.86769 0)
(-0.347973 -1.35416 0)
(0.353019 1.89903 0)
(-2.37943 3.8045 0)
(0.215588 -3.81496 0)
(-2.8316 1.72287 0)
(0.199331 -7.21906 0)
(-4.33157 -3.96521 0)
(-1.33758 0.477921 0)
(-3.52116 1.0645 0)
(0.206769 6.86895 0)
(-4.38249 5.24972 0)
(-0.46569 3.16387 0)
(-5.68381 2.72897 0)
(-1.965 -7.02426 0)
(-3.02687 -1.58981 0)
(-1.52833 -4.09294 0)
(0.00294832 -0.171225 0)
(0.109671 -0.140004 0)
(0.201693 -0.186814 0)
(0.35335 -0.13771 0)
(0.455059 -0.0319889 0)
(0.513287 0.0140359 0)
(0.534897 -0.0230181 0)
(0.578334 -0.054216 0)
(0.611537 -0.0315904 0)
(0.553275 0.0281275 0)
(0.442645 0.061841 0)
(0.349428 0.0552864 0)
(0.295509 0.0380668 0)
(0.248459 0.0284471 0)
(0.234392 0.0223224 0)
(0.199082 0.0191048 0)
(0.199021 0.0162567 0)
(0.165675 0.0121169 0)
(0.164515 0.00976682 0)
(0.136296 0.00633156 0)
(0.1255 0.00365765 0)
(0.108058 0.00425177 0)
(0.0867126 0.00168521 0)
(0.0815576 0.00273007 0)
(0.055726 0.0012078 0)
(0.058189 0.00161457 0)
(0.0346077 0.000699652 0)
(0.0402041 0.00124883 0)
(0.0129262 0.000941486 0)
(0.0169693 0.001247 0)
(0.079799 -0.426374 0)
(0.158044 -0.437427 0)
(0.206457 -0.5173 0)
(0.278454 -0.485271 0)
(0.355876 -0.334843 0)
(0.465288 -0.160331 0)
(0.519347 -0.111777 0)
(0.499424 -0.066206 0)
(0.439652 0.0690494 0)
(0.370804 0.167535 0)
(0.323416 0.153977 0)
(0.292888 0.0994149 0)
(0.273233 0.0505574 0)
(0.241952 0.0275226 0)
(0.232929 0.00742605 0)
(0.199678 0.00985709 0)
(0.198799 -0.00256809 0)
(0.165326 0.0113514 0)
(0.164623 -0.000553825 0)
(0.135941 0.0148529 0)
(0.126751 0.00409693 0)
(0.109244 0.0127045 0)
(0.0876823 0.00504282 0)
(0.082816 0.00830162 0)
(0.0564567 0.00367664 0)
(0.0590111 0.00491638 0)
(0.0351781 0.0021619 0)
(0.0407927 0.0038151 0)
(0.0131827 0.00287807 0)
(0.0171972 0.00378693 0)
(0.0447798 -0.410179 0)
(0.0429313 -0.502172 0)
(0.0363732 -0.519157 0)
(0.00242561 -0.476936 0)
(0.00608572 -0.426162 0)
(0.0567523 -0.263742 0)
(0.079706 -0.0663898 0)
(0.0946521 0.0786847 0)
(0.10434 0.162348 0)
(0.147608 0.187967 0)
(0.191172 0.161032 0)
(0.216774 0.127871 0)
(0.232871 0.0923927 0)
(0.21964 0.0772646 0)
(0.226385 0.0545175 0)
(0.197971 0.0539045 0)
(0.203442 0.0355692 0)
(0.171371 0.0402963 0)
(0.168666 0.0225901 0)
(0.141792 0.0294174 0)
(0.126412 0.0129249 0)
(0.110679 0.0214906 0)
(0.0866214 0.00867676 0)
(0.0826812 0.0138432 0)
(0.0558123 0.0061916 0)
(0.0588288 0.00819938 0)
(0.0350009 0.00358514 0)
(0.0409206 0.00638044 0)
(0.0131767 0.00480966 0)
(0.0173054 0.00635085 0)
(0.0317614 -0.268042 0)
(0.0773307 -0.401935 0)
(0.103567 -0.372713 0)
(0.102674 -0.377325 0)
(0.123087 -0.401737 0)
(0.0949547 -0.300722 0)
(0.091571 -0.179779 0)
(0.101621 -0.0941025 0)
(0.123384 -0.0037981 0)
(0.161333 0.0373065 0)
(0.193675 0.0489407 0)
(0.209714 0.045641 0)
(0.223381 0.0285757 0)
(0.210672 0.0288014 0)
(0.214901 0.00854042 0)
(0.187686 0.0241141 0)
(0.190034 0.00193485 0)
(0.158793 0.0300353 0)
(0.158685 0.00516624 0)
(0.132087 0.0347917 0)
(0.122978 0.0108387 0)
(0.108122 0.0297588 0)
(0.0848019 0.0118755 0)
(0.0823174 0.0192985 0)
(0.0548007 0.00858793 0)
(0.0584886 0.011438 0)
(0.0347083 0.00494219 0)
(0.0410971 0.00894027 0)
(0.0131558 0.00673742 0)
(0.0174634 0.00891923 0)
(0.0802031 -0.684392 0)
(0.122949 -0.737243 0)
(0.191756 -0.61036 0)
(0.209813 -0.543275 0)
(0.252728 -0.45072 0)
(0.22848 -0.233822 0)
(0.204621 -0.0743209 0)
(0.171525 0.0258315 0)
(0.170952 0.0837762 0)
(0.173274 0.112066 0)
(0.193022 0.114072 0)
(0.196015 0.119967 0)
(0.216759 0.0985286 0)
(0.203772 0.105396 0)
(0.221449 0.0753857 0)
(0.194937 0.0888399 0)
(0.205377 0.0550423 0)
(0.175031 0.0722091 0)
(0.169494 0.0373915 0)
(0.145815 0.0546731 0)
(0.123275 0.0233514 0)
(0.111782 0.0388276 0)
(0.0825913 0.0159864 0)
(0.0819817 0.024656 0)
(0.0534586 0.011148 0)
(0.058062 0.0146055 0)
(0.0343253 0.00620895 0)
(0.0413441 0.0114846 0)
(0.0131314 0.00865576 0)
(0.0176777 0.0115091 0)
(0.119944 -0.752291 0)
(0.122005 -0.728887 0)
(0.132538 -0.646604 0)
(0.193193 -0.515522 0)
(0.194853 -0.454624 0)
(0.231453 -0.230372 0)
(0.22048 -0.0978529 0)
(0.195046 -0.0382202 0)
(0.189702 -0.0175225 0)
(0.185266 -0.00191317 0)
(0.198819 -0.000867008 0)
(0.194481 0.00942292 0)
(0.208343 -0.00115666 0)
(0.192329 0.0160159 0)
(0.20094 -0.00365764 0)
(0.174881 0.0278635 0)
(0.178513 -0.00109328 0)
(0.149952 0.0438063 0)
(0.148637 0.00756104 0)
(0.126571 0.052657 0)
(0.115351 0.016559 0)
(0.106065 0.0461889 0)
(0.0794002 0.0186558 0)
(0.081217 0.0298194 0)
(0.0517974 0.0133442 0)
(0.0574382 0.0176779 0)
(0.0338574 0.00734917 0)
(0.0416701 0.0140106 0)
(0.0131062 0.0105658 0)
(0.01795 0.0141186 0)
(0.114408 -0.845951 0)
(0.203726 -0.702909 0)
(0.165363 -0.763172 0)
(0.221699 -0.640047 0)
(0.195435 -0.498343 0)
(0.210514 -0.231132 0)
(0.210549 -0.00577916 0)
(0.201076 0.0944105 0)
(0.196321 0.10494 0)
(0.189726 0.128896 0)
(0.205148 0.111103 0)
(0.197403 0.139446 0)
(0.22225 0.105501 0)
(0.203477 0.139594 0)
(0.228558 0.0917825 0)
(0.199214 0.129346 0)
(0.212641 0.0736995 0)
(0.182809 0.109553 0)
(0.171547 0.0533654 0)
(0.152123 0.0831616 0)
(0.118953 0.0348242 0)
(0.113673 0.056842 0)
(0.0762998 0.0238509 0)
(0.08083 0.0348842 0)
(0.0498278 0.0160499 0)
(0.056792 0.0206427 0)
(0.0333152 0.00836314 0)
(0.0420913 0.0165119 0)
(0.0130842 0.0124675 0)
(0.0182834 0.0167562 0)
(0.192612 -1.1033 0)
(0.23512 -0.946731 0)
(0.199956 -0.7566 0)
(0.195603 -0.65678 0)
(0.184302 -0.49182 0)
(0.167371 -0.299005 0)
(0.175242 -0.111689 0)
(0.172882 -0.0314387 0)
(0.193394 -0.0270537 0)
(0.190433 -0.0272718 0)
(0.207153 -0.0345473 0)
(0.191911 -0.0228086 0)
(0.205625 -0.0291186 0)
(0.183151 -0.00342543 0)
(0.190429 -0.0202852 0)
(0.164362 0.0249441 0)
(0.164076 -0.00835205 0)
(0.140203 0.0540673 0)
(0.133365 0.00780638 0)
(0.119543 0.0683822 0)
(0.102866 0.0217277 0)
(0.102992 0.0609183 0)
(0.071138 0.0254726 0)
(0.0793639 0.0394744 0)
(0.0475573 0.0178387 0)
(0.0557842 0.0234458 0)
(0.0327052 0.00914392 0)
(0.0426158 0.0189811 0)
(0.0130707 0.0143621 0)
(0.0186809 0.0194276 0)
(0.339485 -0.635435 0)
(0.249386 -0.640281 0)
(0.209038 -0.553646 0)
(0.167898 -0.522726 0)
(0.132997 -0.344598 0)
(0.107107 -0.135749 0)
(0.108398 0.00987731 0)
(0.133488 0.0994315 0)
(0.170247 0.0888865 0)
(0.181504 0.150386 0)
(0.214551 0.114797 0)
(0.20426 0.178235 0)
(0.239766 0.116274 0)
(0.212545 0.188396 0)
(0.247752 0.108437 0)
(0.210922 0.180515 0)
(0.22705 0.0932932 0)
(0.196123 0.154406 0)
(0.175507 0.0710308 0)
(0.161502 0.11568 0)
(0.113701 0.0474954 0)
(0.116521 0.0760913 0)
(0.0680836 0.032512 0)
(0.0791208 0.0443792 0)
(0.0450458 0.020911 0)
(0.054934 0.0261128 0)
(0.0320469 0.00986348 0)
(0.0432825 0.0214128 0)
(0.0130721 0.0162554 0)
(0.0191462 0.0221392 0)
(0.578089 -0.749729 0)
(0.503443 -0.668903 0)
(0.481409 -0.635348 0)
(0.398137 -0.581223 0)
(0.341594 -0.46955 0)
(0.282349 -0.321709 0)
(0.27528 -0.208916 0)
(0.247103 -0.151247 0)
(0.250908 -0.125229 0)
(0.220715 -0.101115 0)
(0.232464 -0.087107 0)
(0.197909 -0.0668326 0)
(0.208796 -0.0620578 0)
(0.179787 -0.0290362 0)
(0.179143 -0.0417292 0)
(0.156427 0.0183766 0)
(0.143979 -0.0190246 0)
(0.129899 0.0627304 0)
(0.110733 0.00675421 0)
(0.110948 0.082265 0)
(0.0842865 0.0268985 0)
(0.0988651 0.0732493 0)
(0.0594012 0.0325341 0)
(0.0764973 0.0475092 0)
(0.0421523 0.021959 0)
(0.0533728 0.0285126 0)
(0.0313434 0.0100397 0)
(0.0440636 0.0237976 0)
(0.0130958 0.0181494 0)
(0.0196825 0.0248986 0)
(0.737324 -0.302939 0)
(0.624499 -0.215185 0)
(0.555488 -0.167256 0)
(0.446501 -0.0544504 0)
(0.367496 -0.00391127 0)
(0.294979 0.0874769 0)
(0.276403 0.115862 0)
(0.248752 0.180155 0)
(0.259691 0.13299 0)
(0.231912 0.206925 0)
(0.261175 0.15318 0)
(0.229918 0.235549 0)
(0.27515 0.143684 0)
(0.232056 0.252692 0)
(0.280873 0.132525 0)
(0.232536 0.244592 0)
(0.24943 0.118316 0)
(0.216996 0.207892 0)
(0.181262 0.0923271 0)
(0.174689 0.152211 0)
(0.107502 0.0617975 0)
(0.120327 0.0963286 0)
(0.0583323 0.0422516 0)
(0.0766224 0.0531938 0)
(0.0393922 0.0257531 0)
(0.0523576 0.0309618 0)
(0.0306314 0.0105148 0)
(0.0451006 0.026134 0)
(0.0131515 0.0200583 0)
(0.0202942 0.0277148 0)
(0.836411 -0.24091 0)
(0.719138 -0.279888 0)
(0.663881 -0.319675 0)
(0.563018 -0.26477 0)
(0.534534 -0.243128 0)
(0.421986 -0.213147 0)
(0.418649 -0.173507 0)
(0.333665 -0.144719 0)
(0.304291 -0.125439 0)
(0.249872 -0.119663 0)
(0.259624 -0.11873 0)
(0.193829 -0.101389 0)
(0.212574 -0.0960335 0)
(0.173025 -0.0563828 0)
(0.164105 -0.0708247 0)
(0.148103 0.0126636 0)
(0.114947 -0.0339768 0)
(0.117499 0.0723298 0)
(0.0779635 0.00504838 0)
(0.100192 0.0946886 0)
(0.0583058 0.0326698 0)