/*--------------------------------*- C++ -*----------------------------------*\
| =========                 |                                                 |
| \\      /  F ield         | OpenFOAM: The Open Source CFD Toolbox           |
|  \\    /   O peration     | Version:  2.4.0                                 |
|   \\  /    A nd           | Web:      www.OpenFOAM.org                      |
|    \\/     M anipulation  |                                                 |
\*---------------------------------------------------------------------------*/
FoamFile
{
    version     2.0;
    format      ascii;
    class       volScalarField;
    location    "0.085";
    object      alpha.water;
}
// * * * * * * * * * * * * * * * * * * * * * * * * * * * * * * * * * * * * * //

dimensions      [0 0 0 0 0 0 0];

internalField   nonuniform List<scalar> 
3600
(
1
1
1
1
1
1
1
1
1
1
1
1
1
1
1
1
1
1
1
0.988818
0.990416
0.999918
0.996877
0.99493
0.99493
0.997853
0.987566
0.979232
0.979227
0.979227
1
1
1
1
1
1
1
1
1
1
1
1
1
1
1
1
1
1
1
0.989111
0.994849
0.999919
0.999884
0.998263
0.997143
0.999353
0.999925
0.995512
0.979229
0.979227
1
1
1
1
1
1
1
1
1
1
1
1
1
1
1
1
1
1
1
0.989251
0.989739
0.999918
0.999901
0.998509
0.997686
0.998154
0.999927
0.999999
0.991589
0.979294
1
1
1
1
1
1
1
1
1
1
1
1
1
1
1
1
1
1
1
0.989353
0.989427
0.999914
0.99916
0.998788
0.999101
0.998134
0.999798
1
0.99994
0.996908
1
1
1
1
1
1
1
1
1
1
1
1
1
1
1
1
1
1
1
0.992637
0.995091
0.999851
0.998925
0.999894
0.999917
0.998702
1
1
1
0.999999
1
1
1
1
1
1
1
1
1
1
1
1
1
1
1
1
1
1
1
0.999634
0.999986
0.999963
0.998912
0.999142
0.999921
0.999955
0.999959
1
1
1
1
1
1
1
1
1
1
1
1
1
1
1
1
1
1
1
1
1
1
1
0.999999
0.999741
0.99888
0.998882
0.999629
0.999781
0.999541
1
1
1
1
1
1
1
1
1
1
1
1
1
1
1
1
1
1
1
1
1
1
1
1
0.999883
0.999268
0.999159
0.999742
0.999528
0.999463
0.999742
1
1
1
1
1
1
1
1
1
1
1
1
1
1
1
1
1
1
1
1
1
1
1
0.999999
0.999976
0.999969
0.999988
1
0.999544
0.999227
0.999923
1
1
1
1
1
1
1
1
1
1
1
1
1
1
1
1
1
1
1
1
1
1
1
1
1
1
1
1
0.999217
0.999453
0.999987
1
1
1
1
1
1
1
1
1
1
1
1
1
1
1
1
1
1
1
1
1
1
1
1
1
1
0.999877
0.999202
0.999817
0.999998
1
1
1
1
1
1
1
1
1
1
1
1
1
1
1
1
1
1
1
1
1
1
1
1
1
1
0.999789
0.9992
0.999461
0.999993
1
1
1
1
1
1
1
1
1
1
1
1
1
1
1
1
1
1
1
1
1
1
1
1
1
1
0.999969
0.999198
0.9992
0.999933
1
1
1
1
1
1
1
1
1
1
1
1
1
1
1
1
1
1
1
1
1
1
1
1
1
1
1
0.999214
0.999278
0.999976
1
1
1
1
1
1
1
1
1
1
1
1
1
1
1
1
1
1
1
1
1
1
1
1
1
1
0.999961
0.999614
0.999879
0.999993
1
1
1
1
1
1
1
1
1
1
1
1
1
1
1
1
1
1
1
1
1
1
1
1
1
0.999998
0.999977
0.999996
0.999996
0.999985
1
1
1
1
1
1
1
1
1
1
1
1
1
1
1
1
1
1
1
1
1
1
1
1
1
1
0.999997
0.999996
0.999996
0.999913
1
1
1
1
1
1
1
1
1
1
1
1
1
1
1
1
1
0.999999
1
1
1
1
1
1
1
0.999998
0.999994
0.999996
0.999996
0.999873
1
1
1
1
1
1
1
1
1
1
1
1
1
1
1
0.999991
0.99999
0.999999
1
1
1
1
1
1
1
0.999993
0.999993
0.999996
0.999996
0.999872
1
1
1
1
1
1
1
1
1
1
1
1
1
1
0.999989
0.990473
0.909766
0.908908
0.959056
0.987177
1
1
1
1
1
0.999994
0.999996
0.999673
0.999836
0.999872
1
1
1
1
1
1
1
1
1
1
1
1
1
0.999989
0.998625
0.502174
0.331634
0.675239
0.861338
0.887009
0.918737
0.992673
0.999998
1
1
0.999997
0.999996
0.999333
0.999659
0.999921
1
1
1
1
1
1
1
1
1
1
1
1
0.99999
0.998821
0.540869
0.0433103
0.0387686
0.452571
0.769253
0.876172
0.915442
0.921443
0.958577
0.999919
0.999999
0.999996
0.999994
0.999333
0.999732
0.999929
1
1
1
1
1
1
1
1
1
1
1
0.999995
0.996973
0.545126
2.93512e-05
3.89528e-06
0.000211042
0.111267
0.467391
0.899736
0.95005
0.97394
0.982933
0.999105
0.999106
0.999985
0.999991
0.999333
0.999861
0.999929
1
1
1
1
1
1
1
1
1
1
1
0.999618
0.514412
2.78881e-05
4.36288e-06
3.54301e-06
3.59539e-06
0.000263976
0.205863
0.765201
0.957129
0.999283
0.998873
0.973107
0.997709
0.999989
0.999991
0.999474
0.999868
0.999748
1
1
1
1
1
1
1
1
1
1
0.999989
0.596487
6.24549e-05
6.60069e-06
3.48264e-06
3.15349e-06
0.000288314
0.000363104
0.0160092
0.444119
0.951127
0.999283
0.996421
0.970465
0.995137
0.999706
0.999988
0.999964
0.999922
0.999433
1
1
1
1
1
1
1
1
1
0.999998
0.838254
0.045769
0.000146417
1.29595e-05
2.6403e-06
2.70273e-06
0.000601333
0.000532302
0.000472856
0.195709
0.795209
0.999283
0.996795
0.970488
0.971955
0.998343
0.99998
0.999969
0.996902
0.999536
1
1
1
1
1
1
1
1
1
0.999957
0.198691
0.00047559
3.88938e-05
1.00652e-06
2.69312e-06
2.66306e-06
0.000356527
0.000776252
4.97515e-05
0.000472133
0.476135
0.999463
0.999655
0.979789
0.971978
0.999049
0.999973
0.999963
0.996197
0.999527
1
1
1
1
1
1
1
1
0.999727
0.714796
0.0106216
5.29125e-07
-1.47358e-07
9.82182e-07
7.32988e-06
2.69798e-06
7.78978e-06
0.000124787
3.64698e-05
4.90591e-05
0.260875
0.996246
0.999889
0.996141
0.980146
0.999971
0.999972
0.999899
0.99619
0.997146
1
1
1
1
1
1
1
0.999998
0.997264
0.066239
1.97315e-06
9.6993e-07
9.30914e-07
9.97287e-07
3.82915e-05
2.68797e-06
2.81917e-06
1.03266e-05
2.74303e-05
0.00139316
0.0228367
0.702612
0.999929
0.999951
0.999402
0.999779
0.999971
0.996967
0.996191
0.996188
1
1
1
1
1
1
1
0.975372
0.467339
0.000100563
6.23734e-06
6.79737e-07
7.06902e-07
3.6072e-06
3.80711e-05
4.01556e-05
4.54e-05
1.07225e-05
3.48164e-05
0.000251274
0.000162721
0.383754
0.999975
0.999981
0.999977
0.999601
0.997796
0.99619
0.996191
0.996191
0.979227
0.979227
0.979232
0.987715
0.998031
0.994996
0.994996
0.997162
0.999916
0.990466
0.98892
1
1
1
1
1
1
1
1
1
1
1
1
1
1
1
1
1
1
1
0.979227
0.979228
0.995144
0.999942
0.999392
0.997037
0.998346
0.999902
0.999916
0.994742
0.989222
1
1
1
1
1
1
1
1
1
1
1
1
1
1
1
1
1
1
1
0.979228
0.990812
0.999999
0.999944
0.998188
0.997474
0.998519
0.999916
0.999916
0.98982
0.989372
1
1
1
1
1
1
1
1
1
1
1
1
1
1
1
1
1
1
1
0.996641
0.999867
1
0.999907
0.998165
0.998871
0.998631
0.999183
0.999912
0.989542
0.989469
1
1
1
1
1
1
1
1
1
1
1
1
1
1
1
1
1
1
1
0.999999
1
1
1
0.998963
0.99995
0.999885
0.998928
0.999848
0.994997
0.992522
1
1
1
1
1
1
1
1
1
1
1
1
1
1
1
1
1
1
1
1
1
1
0.999958
0.999955
0.999952
0.999282
0.998912
0.999946
0.999982
0.999548
1
1
1
1
1
1
1
1
1
1
1
1
1
1
1
1
1
1
1
1
1
1
0.999533
0.999785
0.999674
0.998898
0.998894
0.999662
0.999999
1
1
1
1
1
1
1
1
1
1
1
1
1
1
1
1
1
1
1
1
1
1
0.999749
0.999477
0.999489
0.999755
0.999169
0.999264
0.999868
1
1
1
1
1
1
1
1
1
1
1
1
1
1
1
1
1
1
1
1
1
1
0.999912
0.999266
0.999526
1
0.999988
0.99997
0.999977
1
1
1
1
1
1
1
1
1
1
1
1
1
1
1
1
1
1
1
1
1
1
0.999981
0.999441
0.999258
1
1
1
1
1
1
1
1
1
1
1
1
1
1
1
1
1
1
1
1
1
1
1
1
1
1
1
0.999998
0.999845
0.999244
0.999866
1
1
1
1
1
1
1
1
1
1
1
1
1
1
1
1
1
1
1
1
1
1
1
1
1
1
0.99999
0.999462
0.999241
0.999814
1
1
1
1
1
1
1
1
1
1
1
1
1
1
1
1
1
1
1
1
1
1
1
1
1
1
0.999925
0.99924
0.999237
0.999977
1
1
1
1
1
1
1
1
1
1
1
1
1
1
1
1
1
1
1
1
1
1
1
1
1
1
0.999975
0.999328
0.999256
1
1
1
1
1
1
1
1
1
1
1
1
1
1
1
1
1
1
1
1
1
1
1
1
1
1
1
0.999993
0.999908
0.999718
0.999974
1
1
1
1
1
1
1
1
1
1
1
1
1
1
1
1
1
1
1
1
1
1
1
1
1
1
0.999993
0.999993
0.999993
0.999986
0.999999
1
1
1
1
1
1
1
1
1
1
1
1
1
1
1
1
1
1
1
1
1
1
1
1
1
0.999986
0.999993
0.999993
0.999994
1
1
1
1
1
1
1
1
1
1
1
1
1
1
1
1
1
1
1
1
1
1
1
1
1
1
0.999982
0.999993
0.999993
0.999988
0.999999
1
1
1
1
1
1
1
0.999999
1
1
1
1
1
1
1
1
1
1
1
1
1
1
1
1
1
0.999987
0.999993
0.999993
0.999988
0.999991
1
1
1
1
1
1
1
0.999999
0.999988
0.999993
1
1
1
1
1
1
1
1
1
1
1
1
1
1
1
0.999967
0.999933
0.999734
0.999995
0.999992
1
1
1
1
0.987476
0.975259
0.958423
0.938163
0.897225
0.989321
0.999987
1
1
1
1
1
1
1
1
1
1
1
1
1
1
0.999921
0.999773
0.999304
0.999995
0.999996
1
0.999997
0.999965
0.962266
0.91441
0.908692
0.843563
0.565244
0.276089
0.493697
0.99848
0.999989
1
1
1
1
1
1
1
1
1
1
1
1
1
0.999929
0.999761
0.999304
0.999993
0.999995
0.999995
0.999923
0.949215
0.906617
0.906183
0.903194
0.807667
0.454387
0.122988
0.0395136
0.548653
0.998444
0.99999
1
1
1
1
1
1
1
1
1
1
1
1
0.999929
0.999832
0.999304
0.99999
0.999993
0.998749
0.994905
0.977723
0.98086
0.957795
0.928462
0.551677
0.0612257
0.0033381
0.000276972
0.025859
0.536678
0.997643
0.999995
1
1
1
1
1
1
1
1
1
1
1
0.999911
0.999881
0.999306
0.999989
0.999987
0.996658
0.969276
0.999022
0.999219
0.96035
0.816591
0.243567
0.00182772
0.000389428
7.2379e-05
2.47714e-05
6.28043e-05
0.527763
0.999786
1
1
1
1
1
1
1
1
1
1
1
0.999638
0.999891
0.999883
0.999985
0.999832
0.99479
0.969054
0.996998
0.999219
0.930952
0.463921
0.000587569
0.000569017
5.19881e-05
1.33938e-05
1.90948e-05
2.47573e-05
0.000105524
0.61088
0.999989
1
1
1
1
1
1
1
1
1
1
0.999617
0.997542
0.999969
0.999979
0.998465
0.972444
0.969069
0.996841
0.999219
0.785996
0.177271
0.000540577
5.0636e-05
1.012e-05
2.46733e-06
2.35223e-06
1.64487e-05
0.000173734
0.0473797
0.841439
0.999998
1
1
1
1
1
1
1
1
1
0.998988
0.996208
0.999968
0.999972
0.99888
0.972404
0.979148
0.999633
0.999434
0.511286
0.00118015
0.000204314
5.41392e-05
1.78769e-06
3.91847e-07
3.10299e-07
-4.77968e-07
2.97314e-05
0.000413956
0.200318
0.999957
1
1
1
1
1
1
1
1
1
0.996231
0.996201
0.999963
0.99997
0.999969
0.977796
0.995606
0.999903
0.984508
0.19623
7.67506e-05
4.8458e-06
1.9421e-06
5.04487e-07
9.75194e-08
5.13289e-08
2.90817e-08
-8.80535e-07
-7.49869e-07
0.0121327
0.715518
0.999725
1
1
1
1
1
1
1
1
0.996194
0.996198
0.997273
0.999969
0.999841
0.998791
0.999908
0.999933
0.715519
0.0205408
6.98065e-06
3.84662e-07
9.7939e-08
7.30636e-08
5.17191e-08
5.1922e-08
5.17161e-08
5.0446e-08
6.6819e-08
8.40961e-07
0.0668568
0.997399
0.999998
1
1
1
1
1
1
1
0.996195
0.996196
0.996197
0.997709
0.999534
0.99997
0.999975
0.999969
0.357766
1.83804e-05
1.43083e-06
-3.46337e-08
6.44263e-08
6.15321e-08
5.28425e-08
5.18177e-08
5.19608e-08
5.3145e-08
-9.14894e-08
5.4838e-06
9.73135e-05
0.468989
0.975847
1
1
1
1
1
1
1
1
1
1
1
1
1
0.999998
0.866829
0.0116026
4.5086e-05
3.3877e-06
2.8908e-07
6.49242e-07
1.46698e-05
2.70605e-06
5.51214e-05
4.54283e-05
4.1022e-06
6.11872e-05
4.95655e-05
0.000147468
0.19869
0.894947
0.999982
0.99999
0.999522
0.996197
0.996191
0.996191
0.996197
0.828392
1
1
1
1
1
0.999992
0.986948
0.0670917
3.48076e-05
-7.61993e-06
2.55261e-08
6.21347e-07
1.46706e-05
4.17747e-07
5.49895e-05
2.19612e-05
1.42568e-06
5.79918e-05
0.0011836
0.000260731
0.0694955
0.723081
0.99999
0.999998
0.999718
0.996397
0.996194
0.996178
0.999156
0.272484
0.752491
0.994486
1
1
0.9989
0.986082
0.426991
4.60853e-05
-1.23458e-06
1.06012e-08
3.87021e-09
6.26866e-07
4.17235e-06
4.11758e-07
3.701e-05
3.4024e-07
6.60834e-07
7.651e-05
0.00129008
0.000341559
0.0163649
0.538742
0.999998
0.999999
0.999966
0.999046
0.99618
0.996174
0.999988
0.185657
0.662446
0.93176
0.978658
0.988905
0.992455
0.837677
0.0869674
-1.99018e-05
-1.4562e-06
-6.52901e-08
2.39155e-11
1.13274e-07
3.53905e-10
2.2628e-08
4.1648e-07
5.39635e-08
3.40327e-07
0.000137707
0.000569561
0.000297986
0.00669204
0.392548
0.935848
1
0.999999
0.999994
0.999222
0.999288
0.999997
0.0464018
0.441747
0.817452
0.938341
0.98264
0.978134
0.6683
0.0300879
-2.23231e-07
-1.42768e-06
-6.11462e-08
-1.39058e-08
3.11078e-12
3.41619e-10
3.79256e-10
3.87112e-09
2.07183e-08
2.37683e-05
6.38192e-05
3.84205e-05
0.000109189
0.00355563
0.0975598
0.731892
1
1
0.999999
0.999996
0.999999
0.999999
0.00370042
0.15454
0.586949
0.850902
0.941122
0.816998
0.125167
0.000366397
-8.80171e-08
-2.64024e-08
1.73748e-10
6.5008e-09
1.33976e-10
4.39153e-10
1.00924e-09
3.21246e-08
3.41582e-08
4.01561e-06
4.63713e-06
1.20117e-05
0.0036091
0.00967317
0.010397
0.48981
1
1
0.999999
0.999999
1
1
4.5574e-05
0.0221922
0.228593
0.472895
0.534394
0.2601
-1.74322e-10
-4.74895e-08
-8.46165e-08
3.77346e-13
2.21171e-09
7.94974e-08
2.06228e-07
1.07877e-09
1.6726e-08
3.49917e-08
4.90191e-06
4.05843e-06
4.19852e-06
4.84598e-05
0.0050844
0.00463197
0.00033441
0.034007
0.728427
1
1
1
1
1
8.8316e-07
1.31885e-06
0.00558374
0.0187153
0.017352
-2.01317e-11
-3.01221e-10
-3.93777e-10
4.91613e-14
6.41638e-11
8.37169e-11
9.26378e-08
1.08961e-06
1.13999e-07
3.51724e-05
3.54078e-08
0.000141911
4.8335e-05
6.19018e-06
8.33681e-06
0.00494905
0.000411533
0.000230904
0.000202989
0.0886721
0.617658
0.901268
0.997317
1
1
8.83153e-07
2.7109e-06
4.96844e-09
3.58199e-15
-1.32213e-10
-2.62018e-10
-2.48027e-10
1.48465e-10
1.67278e-10
3.87981e-11
6.81712e-11
8.24356e-11
6.94835e-07
4.46242e-05
0.000209341
5.63912e-05
0.000214593
5.99147e-05
8.26378e-06
9.07472e-06
0.0045049
0.000772926
0.000186588
3.90125e-05
2.57846e-05
0.00931108
0.185261
0.337172
0.46236
0.509607
1.40396e-06
3.05879e-06
3.37541e-07
1.26054e-06
-1.12408e-10
-3.26997e-10
-1.6686e-10
2.1187e-10
2.90754e-11
1.97935e-11
6.31522e-11
6.77037e-11
7.17742e-11
0.000100459
0.000215528
0.000215347
0.000215483
0.00012591
7.77417e-06
7.52069e-06
0.00132932
0.0014463
0.000311615
3.26999e-05
5.56656e-06
3.02438e-06
4.3462e-06
0.000120036
0.00138813
0.00398268
1.37289e-06
9.53012e-06
2.0801e-07
5.68544e-08
-1.24358e-11
-2.27358e-10
-5.02425e-11
8.38445e-11
1.1989e-11
1.18329e-11
5.23356e-11
7.27175e-11
1.06608e-10
6.6509e-06
0.000149291
0.000215551
0.000165687
0.000233425
7.52053e-06
6.12609e-06
5.99376e-06
0.000511658
0.000470089
8.33029e-05
3.41221e-06
2.77772e-06
1.00681e-06
-2.59396e-07
-8.10213e-06
-4.49402e-06
6.95236e-07
1.09446e-05
2.48737e-06
2.96443e-11
3.07384e-11
-2.52847e-11
2.61558e-11
5.21018e-11
6.93165e-12
7.46724e-12
3.8324e-11
6.80817e-11
9.77383e-11
9.84154e-11
1.23154e-10
0.000156093
1.79522e-05
0.000260795
0.000120952
9.502e-06
1.11601e-05
1.4424e-05
8.55047e-05
7.79227e-05
1.63731e-05
1.02217e-06
9.3068e-07
9.2946e-07
9.2831e-07
9.89901e-07
1.62415e-07
1.09713e-05
1.2539e-05
2.37743e-11
2.84578e-11
5.08938e-11
3.13488e-11
1.95579e-11
3.29846e-12
4.08519e-12
2.39315e-11
5.81975e-11
1.17782e-10
1.36008e-09
6.74712e-09
1.46211e-08
1.57345e-05
0.000263791
0.000266805
6.37232e-05
1.35702e-05
5.07938e-06
2.65193e-06
7.15814e-06
9.12077e-06
2.78674e-06
9.07518e-07
9.1201e-07
1.12391e-06
1.17446e-06
7.36896e-09
4.24135e-06
1.3683e-05
1.85567e-11
1.80951e-11
2.20579e-11
1.01594e-11
5.88239e-12
1.42288e-12
2.12301e-12
1.50876e-11
5.27741e-11
9.01831e-11
5.41742e-09
5.29982e-07
2.6058e-08
5.9986e-05
0.0002666
0.000266605
8.83544e-05
5.57305e-06
2.66759e-06
1.49558e-06
1.14452e-06
1.03612e-06
1.42006e-06
8.94851e-07
8.89121e-07
1.16552e-06
1.17715e-06
1.73113e-11
8.98907e-07
1.36988e-05
8.81273e-08
1.38255e-11
1.2424e-11
5.19176e-12
2.4031e-12
6.78921e-13
1.19166e-12
9.88972e-12
4.23817e-11
1.02414e-10
1.17809e-10
7.71921e-07
1.38835e-05
0.000120747
0.000181875
0.000267068
0.000227605
1.11543e-05
1.50448e-06
1.16373e-06
9.98583e-07
9.10942e-07
8.44251e-07
8.5682e-07
8.88714e-07
1.02487e-06
1.17685e-06
1.0361e-11
5.26138e-11
1.36936e-05
2.24927e-07
1.24925e-11
8.71733e-12
2.01351e-12
9.32859e-13
3.04216e-13
5.92937e-13
5.62773e-12
2.94811e-11
1.0362e-10
1.11218e-10
4.84086e-07
2.90284e-05
6.0786e-05
7.65777e-05
0.000266505
0.00026529
0.000185409
1.25895e-05
1.12117e-06
9.40559e-07
8.76377e-07
8.56559e-07
8.95342e-07
8.96021e-07
8.83204e-07
1.04107e-06
6.94375e-12
1.04282e-11
1.88615e-06
3.31008e-08
8.11293e-12
3.49199e-12
6.77104e-13
2.88363e-13
1.06e-13
2.38685e-13
2.55761e-12
1.79954e-11
5.78487e-11
7.78968e-11
6.10337e-07
8.76087e-06
1.19608e-07
8.44629e-05
0.000265174
0.000264639
0.000195524
1.398e-05
1.08748e-06
9.11326e-07
8.93365e-07
8.85819e-07
8.93809e-07
8.94656e-07
8.94849e-07
8.94558e-07
3.7076e-12
7.39763e-11
4.55883e-11
1.02197e-11
8.80273e-12
1.34511e-12
2.14421e-13
6.69913e-14
2.76706e-14
1.27143e-13
1.615e-12
1.32795e-11
2.3461e-11
1.10488e-08
1.17693e-07
2.04883e-09
3.94943e-09
4.5349e-05
0.000219413
0.000181572
2.28595e-05
4.15419e-06
1.95292e-06
2.36275e-05
9.78258e-07
8.87224e-07
8.86986e-07
8.94512e-07
8.94564e-07
8.94105e-07
1.23818e-12
1.51952e-11
1.86526e-11
2.76459e-11
4.17133e-12
5.59694e-13
6.59043e-14
1.21502e-14
5.15071e-15
5.31194e-14
7.17694e-13
5.45263e-12
2.25489e-11
2.34764e-11
2.48668e-11
6.12149e-11
5.33805e-07
8.35936e-06
3.36659e-06
2.38502e-05
2.86737e-06
5.23406e-06
6.14147e-05
9.24086e-05
6.43532e-05
7.23195e-06
8.86986e-07
3.81639e-06
7.16288e-06
9.81118e-07
3.45037e-13
2.84212e-12
4.96649e-11
8.97886e-12
1.57385e-12
1.86457e-13
1.76958e-14
1.77101e-15
8.76177e-16
1.91487e-14
3.05022e-13
2.83832e-12
1.63467e-11
5.97253e-11
7.22534e-11
3.52712e-09
2.12197e-07
1.72592e-07
3.26949e-06
3.76047e-06
7.06047e-06
4.73474e-05
9.28779e-05
9.2913e-05
9.27161e-05
8.51051e-05
6.7348e-05
5.44138e-05
9.82554e-06
1.22681e-06
5.40758e-14
4.7304e-13
1.68483e-11
3.23528e-12
4.44517e-13
4.47629e-14
3.60692e-15
2.14376e-16
1.53801e-16
5.56707e-15
1.01364e-13
1.09119e-12
7.79046e-12
4.7612e-11
5.70589e-11
1.87935e-08
8.4829e-08
6.65942e-08
6.09663e-08
3.2793e-08
1.06375e-06
4.81449e-05
9.2913e-05
9.2913e-05
9.2913e-05
9.27161e-05
7.89383e-05
4.09129e-05
5.50912e-06
9.76205e-07
5.49527e-15
6.38154e-14
5.60569e-12
7.82267e-13
8.43834e-14
7.15044e-15
4.95673e-16
2.0369e-17
3.66922e-17
1.75088e-15
3.68952e-14
4.70178e-13
3.98415e-12
2.29247e-11
8.79902e-11
6.44355e-11
6.17113e-09
7.62425e-08
7.26839e-08
6.85359e-09
3.27958e-08
6.58085e-06
6.6587e-05
9.2913e-05
6.16599e-05
2.86156e-05
1.41475e-05
5.77519e-06
1.25934e-06
8.78719e-07
3.59452e-16
6.14062e-15
1.23996e-12
1.27313e-13
1.04925e-14
7.18784e-16
4.19911e-17
1.32652e-18
6.16938e-18
3.54336e-16
9.22071e-15
1.38417e-13
1.27992e-12
7.42765e-12
2.60702e-11
5.67886e-11
5.99646e-11
2.70304e-10
3.08455e-09
3.04112e-09
6.3157e-09
1.46019e-07
9.0425e-06
2.49713e-05
1.1622e-05
2.19205e-06
1.46688e-06
1.21133e-06
1.2113e-06
1.99524e-06
1.51214e-17
3.76366e-16
1.69808e-13
1.33533e-14
8.23548e-16
4.30122e-17
2.01676e-18
5.04748e-20
5.34403e-19
3.59949e-17
1.15459e-15
2.20713e-14
2.69642e-13
2.18833e-12
1.24628e-11
5.41798e-11
1.90805e-10
5.20661e-10
8.7703e-10
6.35977e-10
1.30834e-09
1.01759e-08
2.18226e-06
1.17844e-05
1.48086e-05
7.19563e-06
3.55081e-06
1.6915e-06
2.97839e-06
3.89757e-06
4.07654e-19
1.3176e-17
1.3416e-14
8.45327e-16
3.88454e-17
1.44176e-18
4.97617e-20
9.74813e-22
2.88731e-20
2.3456e-18
9.3242e-17
2.21008e-15
3.3683e-14
3.42336e-13
2.36714e-12
1.13101e-11
3.83295e-11
9.58398e-11
1.81263e-10
1.43213e-10
1.65825e-10
9.90334e-10
9.53427e-08
5.46653e-06
1.22257e-05
1.07237e-05
4.8018e-06
1.57104e-06
1.84334e-06
3.9296e-06
7.01602e-21
2.22618e-19
5.21987e-16
2.88526e-17
1.02414e-18
2.59815e-20
5.7911e-22
8.51073e-24
7.06135e-22
7.21397e-20
3.74457e-18
1.17261e-16
2.36434e-15
3.18326e-14
2.92772e-13
1.87382e-12
8.502e-12
2.80061e-11
6.80107e-11
1.26416e-10
8.80425e-11
1.36767e-10
5.47971e-09
1.52252e-07
1.03486e-06
2.27158e-06
1.0616e-06
3.06393e-07
1.17549e-07
6.2003e-07
7.65122e-23
1.08788e-21
8.19181e-18
4.30272e-19
1.2658e-20
2.29399e-22
3.01537e-24
3.44588e-26
8.22006e-24
1.10695e-21
7.69755e-20
3.24487e-18
8.89436e-17
1.64835e-15
2.1143e-14
1.90392e-13
1.21259e-12
5.42765e-12
1.61819e-11
3.53238e-11
6.41505e-11
9.17268e-11
7.86727e-11
1.07415e-10
3.13388e-10
5.90344e-10
3.45192e-10
1.76536e-10
1.67299e-10
2.62807e-10
5.29509e-25
4.71609e-25
4.5884e-20
2.14487e-21
5.32866e-23
7.55792e-25
6.81778e-27
7.21167e-29
3.22893e-26
6.29736e-24
6.45038e-22
4.02226e-20
1.6338e-18
4.49741e-17
8.61864e-16
1.17524e-14
1.15987e-13
6.77582e-13
2.5056e-12
6.36087e-12
1.20543e-11
2.10966e-11
5.24649e-11
3.68214e-11
5.68778e-11
8.54393e-11
7.36176e-11
6.43669e-11
8.36366e-11
7.28995e-11
2.38123e-27
1.10664e-27
7.20972e-23
2.51205e-24
4.59259e-26
4.64972e-28
2.91827e-30
3.64928e-32
2.48435e-29
8.41158e-27
1.51138e-24
1.65738e-22
1.18784e-20
5.79402e-19
1.97263e-17
4.75861e-16
7.00646e-15
5.50289e-14
2.57157e-13
7.77514e-13
1.61293e-12
2.50272e-12
5.07078e-12
1.26559e-11
3.73978e-11
7.19278e-11
5.13258e-11
3.73771e-11
3.5819e-11
4.16637e-11
7.70901e-30
3.67306e-30
3.33175e-26
4.62828e-28
3.34624e-30
1.34625e-32
1.45766e-34
3.50046e-35
1.88638e-34
1.8383e-31
1.06226e-28
3.7425e-26
8.5656e-24
1.31818e-21
1.3845e-19
9.94636e-18
2.56007e-16
2.90634e-15
1.78125e-14
6.60952e-14
1.57751e-13
2.4496e-13
3.57902e-13
8.49773e-13
2.24291e-12
4.21713e-12
4.13818e-12
3.8469e-12
3.47141e-12
3.59225e-12
0.997471
0.996198
0.996203
0.996215
0.999377
0.999986
0.999976
0.943191
0.205585
8.93268e-06
6.5389e-06
6.55433e-08
5.98848e-08
5.83569e-08
5.59146e-08
5.29038e-08
5.32345e-08
5.7705e-08
-4.22834e-08
2.99193e-06
4.74312e-05
0.010985
0.868526
0.999999
1
1
1
1
1
1
0.999877
0.996204
0.996215
0.996247
0.99961
0.999997
0.999986
0.731681
0.0623209
4.35808e-05
0.000198315
2.05557e-07
5.93767e-08
5.77069e-08
5.79696e-08
1.84592e-06
5.68058e-08
1.85322e-07
7.07926e-08
-7.35492e-06
3.5708e-05
0.0667914
0.988814
0.999993
1
1
1
1
1
0.828728
0.999994
0.996898
0.996351
0.999018
0.99994
0.999999
0.999476
0.659181
0.0552914
6.13198e-05
8.64422e-05
3.62418e-06
6.60623e-05
5.94242e-08
1.46374e-05
2.24227e-05
1.57682e-06
3.44468e-07
5.2606e-08
3.59967e-08
-1.27274e-06
4.69255e-05
0.436813
0.987006
0.998944
1
1
0.994011
0.750404
0.274702
0.999997
0.999809
0.99965
0.999993
0.999999
1
0.945359
0.370407
0.024343
0.000125993
8.95764e-06
4.10991e-06
0.000167703
0.00012315
0.00012624
6.5068e-05
3.55489e-05
3.45967e-06
3.62243e-08
-5.50558e-08
-1.39637e-06
-2.03658e-05
0.0888078
0.839217
0.992579
0.9889
0.978053
0.93065
0.666922
0.190226
0.999999
0.999999
0.999997
0.999999
1
1
0.784318
0.117841
0.00100391
2.34312e-05
1.7247e-05
7.80529e-05
0.00016773
0.000167732
0.000106219
6.42342e-05
6.17922e-05
5.57911e-06
2.2801e-11
-6.54086e-08
-1.63612e-06
-2.22437e-07
0.0302503
0.671822
0.978492
0.982544
0.938191
0.817386
0.441884
0.0462264
1
1
0.999999
1
1
1
0.561497
0.0370913
0.00427443
4.98957e-05
2.8649e-05
0.000102982
4.64454e-05
2.83342e-05
4.68343e-06
3.93232e-05
1.37044e-08
9.03184e-07
3.2602e-08
2.077e-11
-2.99532e-08
-4.22851e-08
0.00112315
0.134198
0.820694
0.939915
0.847859
0.582518
0.151414
0.00349361
1
1
1
1
1
0.810762
0.0313483
0.0011806
0.0079475
0.00141202
4.98954e-05
0.000110119
0.000165526
7.87574e-05
2.45218e-08
1.37107e-08
1.02782e-08
1.02756e-08
1.52426e-08
2.95757e-09
4.45651e-13
-3.85145e-08
-3.02373e-08
1.73478e-20
0.260027
0.528645
0.465021
0.221195
0.0206851
3.34089e-05
1
1
0.994466
0.909017
0.68282
0.122558
0.000254368
0.000872172
0.00610697
0.00586545
8.82289e-05
0.000100435
0.000174894
0.000162813
1.94641e-08
1.84678e-08
3.16224e-07
2.22249e-08
6.80991e-09
1.27289e-09
1.03657e-10
1.43717e-13
4.08438e-10
7.38718e-11
1.37177e-11
0.0159981
0.0168988
0.00451744
1.41649e-06
1.05391e-06
0.503802
0.46199
0.331368
0.186272
0.0290497
5.7462e-05
0.000106283
0.000861402
0.00167371
0.0021416
0.000104187
0.000100675
0.000174894
6.86534e-05
1.78862e-05
1.33547e-06
1.51568e-06
5.86596e-08
8.48264e-11
7.12086e-11
6.6708e-11
1.48844e-10
5.65825e-10
2.71798e-10
2.54127e-11
8.97464e-12
8.97752e-12
3.72547e-09
2.50859e-06
1.0539e-06
0.00376087
0.00156276
0.000224411
8.85168e-05
0.000128809
1.62721e-05
0.000155077
0.000295952
0.000105125
0.000113704
0.000123502
0.000200314
0.000134954
6.35083e-05
7.43763e-05
4.56434e-05
1.18147e-06
1.25987e-10
9.17753e-11
6.15228e-11
2.35844e-11
5.28568e-11
3.61705e-10
2.00737e-10
1.41174e-10
3.4013e-11
8.88612e-07
2.08733e-07
3.02929e-06
1.71724e-06
-1.46283e-06
8.82426e-07
6.3574e-06
4.47695e-06
3.18801e-06
1.21701e-05
3.41876e-05
1.58233e-05
4.88497e-05
9.03383e-05
0.000233753
0.000210024
6.46722e-05
3.00833e-05
7.87406e-05
6.34049e-05
2.60476e-09
2.55252e-09
1.91481e-10
5.11588e-11
1.20671e-11
6.03687e-12
3.90306e-11
1.09276e-10
1.15746e-10
3.11402e-11
1.44328e-08
1.46219e-08
9.89384e-06
1.67643e-06
1.10716e-06
1.04838e-06
1.30743e-06
1.27232e-06
1.17318e-06
2.43154e-06
2.52587e-06
5.49132e-06
1.15557e-05
4.82234e-05
0.000259996
0.000192725
1.18393e-05
2.15277e-06
2.11716e-05
6.10276e-11
2.92957e-07
1.36149e-08
6.36011e-11
3.84748e-11
6.62882e-12
2.90406e-12
1.32103e-11
6.08509e-11
9.08282e-11
3.70013e-11
3.16849e-11
1.56185e-06
1.23794e-05
8.67497e-07
1.11303e-06
1.03723e-06
9.88005e-07
9.95499e-07
1.06226e-06
1.0815e-06
1.52494e-06
2.53038e-06
5.141e-06
0.000108255
0.000263615
0.000186551
4.86402e-07
2.78212e-08
6.86546e-11
6.06539e-11
5.74999e-11
6.58416e-09
4.75044e-10
3.66619e-11
3.70719e-12
2.08513e-12
9.71117e-12
3.07135e-11
5.41269e-11
2.87787e-11
2.40483e-11
1.23676e-05
1.23676e-05
2.65988e-07
1.03511e-06
1.02988e-06
1.0203e-06
9.96877e-07
1.01394e-06
1.05683e-06
1.18777e-06
2.21744e-06
6.53604e-05
0.000263686
0.000263919
0.000263634
0.000149512
5.74441e-05
2.01792e-06
6.11445e-11
9.30031e-11
3.21198e-11
3.18829e-11
9.79897e-12
1.53986e-12
1.28237e-12
5.41552e-12
1.388e-11
2.7439e-11
1.82088e-11
1.87187e-11
1.43587e-05
5.40321e-06
1.45638e-08
1.02546e-06
1.02714e-06
1.03693e-06
1.04559e-06
9.92844e-07
1.00747e-06
1.25057e-06
1.44009e-05
0.000214475
0.000263919
0.000263919
0.000263919
0.000263634
0.000193297
3.47311e-05
7.4375e-11
1.8237e-10
5.02136e-11
1.97634e-11
5.04752e-12
7.20155e-13
6.74643e-13
2.48132e-12
5.69489e-12
1.39627e-11
1.4809e-11
8.8668e-08
1.43778e-05
1.07699e-06
1.50402e-11
1.2698e-06
1.02985e-06
1.03436e-06
1.04482e-06
1.01397e-06
9.74708e-07
1.12086e-06
5.29992e-06
0.000137226
0.000263686
0.000263919
0.000258189
3.66298e-05
6.47995e-05
5.55007e-05
3.32488e-10
5.07288e-10
5.92426e-11
1.58486e-11
3.10125e-12
3.6159e-13
2.9621e-13
9.44529e-13
2.17152e-12
8.63896e-12
1.25063e-11
2.0129e-07
1.43717e-05
1.0046e-10
1.06335e-11
2.51178e-06
4.56378e-06
1.03922e-06
1.03687e-06
1.03843e-06
9.96534e-07
1.06536e-06
2.20174e-06
9.28084e-06
8.23315e-05
0.000187053
9.89798e-05
1.04591e-05
5.52585e-10
3.41903e-10
4.99313e-07
5.2503e-09
6.21331e-11
1.44208e-11
2.18124e-12
2.04755e-13
1.03391e-13
2.86856e-13
7.21825e-13
3.58214e-12
8.0235e-12
3.52106e-08
2.07105e-06
1.05096e-11
6.96011e-12
2.39933e-06
1.78983e-05
9.28276e-06
1.0343e-06
1.03114e-06
1.06535e-06
1.04399e-06
1.12694e-06
1.19342e-06
6.59129e-06
1.55959e-05
2.10593e-05
2.07363e-05
4.56316e-07
1.1389e-10
9.48055e-11
6.21235e-11
4.24748e-11
1.10438e-11
1.57734e-12
1.25575e-13
2.68611e-14
6.57202e-14
2.24827e-13
1.37613e-12
8.72782e-12
1.01427e-11
5.37628e-11
8.35599e-11
3.6246e-12
1.43584e-06
1.8059e-05
1.82026e-05
9.06075e-06
1.45492e-06
1.46068e-06
1.12356e-06
1.15912e-06
1.19484e-06
1.21439e-06
2.76366e-05
3.92446e-05
2.31656e-05
6.43121e-08
9.05053e-11
7.07749e-11
5.40702e-11
2.89974e-11
6.99685e-12
8.71854e-13
5.95019e-14
5.01117e-15
1.19421e-14
6.81151e-14
5.66671e-13
4.18441e-12
2.74901e-11
2.50998e-11
2.16434e-11
1.24883e-12
8.83313e-07
1.13625e-05
1.81788e-05
1.82818e-05
1.26334e-05
1.24228e-06
1.16035e-06
1.19695e-06
1.21438e-06
1.21431e-06
3.08617e-05
3.94602e-05
9.75688e-06
1.28277e-09
7.45904e-11
4.87089e-11
3.35005e-11
9.90666e-12
1.97947e-12
2.36361e-13
1.54932e-14
7.57347e-16
1.77077e-15
1.82615e-14
1.89173e-13
1.59514e-12
9.36274e-12
5.02721e-11
4.02009e-12
3.29247e-13
8.78709e-07
1.22179e-06
1.37248e-05
1.82818e-05
7.78922e-06
1.27067e-06
1.20926e-06
7.71327e-06
2.84303e-05
1.49491e-05
3.84608e-06
2.62083e-06
8.58501e-08
3.77936e-10
2.29232e-10
9.26295e-11
2.31685e-11
4.53226e-12
6.78999e-13
6.60207e-14
3.67166e-15
1.07861e-16
2.22498e-16
3.77005e-15
4.61926e-14
4.61943e-13
3.44224e-12
1.79496e-11
6.44309e-13
5.11315e-14
8.79792e-07
8.79814e-07
1.63783e-06
7.74883e-06
1.56199e-05
1.86855e-05
2.20299e-05
3.0511e-05
2.9958e-05
9.98767e-06
1.87552e-08
9.61495e-10
1.9833e-10
8.18896e-09
3.36229e-09
8.50431e-11
2.62577e-11
4.16012e-12
4.634e-13
3.47045e-14
1.57486e-15
3.19191e-17
2.20998e-17
5.29933e-16
7.58019e-15
9.06987e-14
8.6531e-13
6.15089e-12
8.54456e-14
5.14271e-15
1.65272e-06
8.973e-07
9.1868e-07
5.86672e-06
3.02628e-05
3.08912e-05
3.07293e-05
3.04977e-05
1.71057e-05
2.34536e-07
2.96662e-09
2.06554e-10
7.10857e-11
5.97438e-11
3.45193e-11
2.5986e-11
7.65698e-12
1.29071e-12
1.34158e-13
8.54777e-15
3.14156e-16
5.28366e-18
1.49656e-18
4.62686e-17
7.89617e-16
1.17447e-14
1.46135e-13
1.3929e-12
8.36386e-15
3.33196e-16
3.92947e-06
2.72174e-06
1.00713e-06
6.92389e-06
3.08309e-05
3.07393e-05
2.94805e-05
9.64068e-06
1.15546e-07
2.56298e-09
3.32888e-10
1.88969e-10
1.99124e-10
9.74575e-11
3.91283e-11
1.11319e-11
2.13307e-12
2.67726e-13
2.16504e-14
1.10439e-15
3.33619e-17
4.81416e-19
5.88508e-20
2.307e-18
4.93687e-17
9.63723e-16
1.58489e-14
1.94737e-13
5.3554e-16
1.38688e-17
3.92947e-06
2.42076e-06
2.494e-06
5.13724e-06
1.35366e-05
1.28882e-05
3.817e-06
2.3716e-08
1.10884e-09
2.23816e-10
1.42285e-10
1.76683e-10
9.07014e-11
3.74384e-11
1.12749e-11
2.37576e-12
3.42873e-13
3.3439e-14
2.16165e-15
8.93638e-17
2.1943e-18
2.64137e-20
1.1776e-21
6.02548e-20
1.75767e-18
4.77305e-17
1.03389e-15
1.5648e-14
2.00477e-17
3.70112e-19
6.76273e-07
1.49465e-07
9.98413e-07
4.30121e-07
6.27546e-09
5.23135e-09
1.7316e-09
3.1382e-10
1.16998e-10
7.83804e-11
1.23182e-10
6.47235e-11
2.71443e-11
8.24949e-12
1.82419e-12
2.85579e-13
3.10472e-14
2.29605e-15
1.12778e-16
3.54703e-18
6.70446e-20
6.44939e-22
1.05947e-23
7.6078e-22
3.39057e-20
1.31449e-18
3.61333e-17
6.12843e-16
3.76061e-19
6.31641e-21
2.7662e-10
2.24426e-10
3.63836e-10
2.03144e-10
1.66132e-10
1.43263e-10
7.68052e-11
5.76215e-11
6.63435e-11
5.82713e-11
3.27506e-11
1.53822e-11
5.24044e-12
1.17745e-12
1.82611e-13
2.02546e-14
1.58115e-15
8.52066e-17
3.08948e-18
7.24656e-20
1.02665e-21
7.52178e-24
4.10705e-26
4.29736e-24
3.15726e-22
1.68166e-20
5.51676e-19
9.84389e-18
2.39111e-21
6.84717e-23
7.71499e-11
1.24391e-10
8.57801e-11
5.82954e-11
4.90011e-11
3.79179e-11
2.98253e-11
4.24933e-11
1.79531e-11
1.0941e-11
5.92462e-12
2.38168e-12
6.51708e-13
1.12159e-13
1.11852e-14
8.0594e-16
4.15612e-17
1.49954e-18
3.67177e-20
5.84983e-22
5.66494e-24
2.88824e-26
7.66931e-29
1.00912e-26
1.08997e-24
7.49274e-23
2.9533e-21
6.06961e-20
8.84947e-25
4.69925e-25
4.6113e-11
4.73921e-11
6.28222e-11
3.43377e-11
2.71589e-11
1.76886e-11
7.85787e-12
3.82532e-12
2.29785e-12
1.48562e-12
7.26341e-13
2.43985e-13
5.28063e-14
6.76964e-15
4.61778e-16
1.82823e-17
5.23304e-19
1.05904e-20
1.46655e-22
1.32966e-24
7.36247e-27
2.17203e-29
3.9079e-32
4.65707e-30
7.26423e-28
7.02917e-26
3.78577e-24
1.05179e-22
1.01193e-27
2.10556e-27
4.0992e-12
4.36577e-12
5.19607e-12
3.1689e-12
2.16863e-12
1.24466e-12
5.82244e-13
3.17688e-13
2.31798e-13
1.45766e-13
6.17134e-14
1.68901e-14
2.79128e-15
2.484e-16
9.83899e-18
1.26909e-19
1.15341e-21
7.2868e-24
3.12973e-26
8.79524e-29
1.51482e-31
1.67046e-34
4.85556e-35
1.91512e-34
2.37952e-32
5.94693e-30
8.10991e-28
5.63512e-26
3.29926e-30
6.76762e-30
)
;

boundaryField
{
    leftWall
    {
        type            zeroGradient;
    }
    rightWall
    {
        type            zeroGradient;
    }
    lowerWall
    {