/*--------------------------------*- C++ -*----------------------------------*\
| =========                 |                                                 |
| \\      /  F ield         | OpenFOAM: The Open Source CFD Toolbox           |
|  \\    /   O peration     | Version:  2.4.0                                 |
|   \\  /    A nd           | Web:      www.OpenFOAM.org                      |
|    \\/     M anipulation  |                                                 |
\*---------------------------------------------------------------------------*/
FoamFile
{
    version     2.0;
    format      ascii;
    class       surfaceScalarField;
    location    "0.276";
    object      phiAlpha;
}
// * * * * * * * * * * * * * * * * * * * * * * * * * * * * * * * * * * * * * //

dimensions      [0 3 -1 0 0 0 0];

internalField   nonuniform List<scalar> 
19800
(
-2.9683e-63
3.05146e-67
-3.07053e-59
3.60337e-63
-8.04667e-56
1.27784e-59
-5.24609e-53
1.56445e-56
-1.01435e-50
4.45874e-54
-7.63408e-49
2.43737e-52
-2.79166e-47
3.94948e-51
-5.84121e-46
6.13116e-49
-8.03469e-45
4.52903e-47
-8.24952e-44
1.23986e-45
-7.07912e-43
1.92522e-44
-5.37535e-42
2.04822e-43
-3.83509e-41
1.68049e-42
-2.70869e-40
1.19146e-41
-1.96637e-39
7.94438e-41
-1.54932e-38
5.27971e-40
-1.22909e-37
3.73612e-39
-8.94843e-37
2.62725e-38
-5.84952e-36
1.67819e-37
-3.36876e-35
9.53668e-37
-1.72877e-34
4.73158e-36
-7.9876e-34
2.07254e-35
-3.34428e-33
8.09557e-35
-1.25985e-32
2.83803e-34
-4.24232e-32
8.87143e-34
-1.26448e-31
2.46075e-33
-3.27254e-31
6.01911e-33
-6.81312e-31
1.28136e-32
-1.00347e-30
2.22055e-32
-1.04262e-30
2.79291e-32
-7.67631e-31
2.58583e-32
-4.13599e-31
1.79603e-32
-1.69904e-31
9.6733e-33
-5.57438e-32
4.13063e-33
-1.53632e-32
1.42448e-33
-3.66933e-33
4.09674e-34
-7.48109e-34
1.00741e-34
-1.24703e-34
2.09164e-35
-1.62824e-35
3.53573e-36
-1.62097e-36
4.69688e-37
-1.24201e-37
4.79901e-38
-7.51893e-39
3.81488e-39
-3.58539e-40
2.41854e-40
-1.20716e-41
1.21421e-41
-2.66072e-43
4.30513e-43
-6.03436e-45
9.94535e-45
-5.09351e-45
2.34301e-46
-3.24082e-44
2.02961e-46
-2.12724e-43
1.30621e-45
8.53238e-45
-1.19115e-42
-9.51883e-60
1.56207e-63
-8.70452e-56
1.98685e-59
-1.66738e-52
5.21895e-56
-6.69392e-50
2.11463e-53
-6.66983e-48
-6.58416e-48
-1.28827e-46
-1.74975e-45
1.83692e-46
-1.10725e-43
1.37509e-44
-2.29092e-42
2.99408e-43
8.61063e-45
2.04811e-42
2.7815e-42
-1.16182e-40
5.35007e-41
-2.8994e-39
5.92709e-40
-3.308e-38
4.82632e-39
-3.0425e-37
3.41303e-38
-2.52217e-36
2.28545e-37
-2.11142e-35
1.47947e-36
-1.69759e-34
1.00329e-35
-1.19023e-33
6.67019e-35
-7.41269e-33
3.91119e-34
-4.0899e-32
2.0484e-33
-1.98683e-31
9.5189e-33
-8.63583e-31
3.89033e-32
-3.38596e-30
1.41867e-31
-1.1988e-29
4.65069e-31
-3.78747e-29
1.37266e-30
-1.04896e-28
3.61157e-30
-2.50892e-28
8.35179e-30
-4.90171e-28
1.68185e-29
-7.20729e-28
2.81115e-29
-7.91143e-28
3.6277e-29
-6.51225e-28
3.62187e-29
-4.06744e-28
2.83073e-29
-1.97851e-28
1.75e-29
-7.8056e-29
8.66661e-30
-2.60184e-29
3.51247e-30
-7.44118e-30
1.198e-30
-1.8079e-30
3.47564e-31
-3.63116e-31
8.50487e-32
-5.87259e-32
1.71603e-32
-7.51469e-33
2.79504e-33
-7.67759e-34
3.62448e-34
-6.3071e-35
3.78097e-35
-4.04532e-36
3.19179e-36
-1.87979e-37
2.11114e-37
-6.01194e-39
1.01146e-38
-3.26541e-40
3.32211e-40
-1.2819e-39
1.83967e-41
-1.89127e-38
7.28999e-41
-2.49734e-37
1.07258e-39
1.39299e-38
-2.85296e-36
-4.09938e-57
8.97999e-61
-3.39391e-53
1.31765e-56
-3.32444e-50
2.23385e-53
1.65252e-50
-1.02401e-47
3.37797e-47
-7.64991e-45
8.3607e-45
-1.10411e-42
6.93056e-43
-5.56646e-41
2.55784e-41
-1.11728e-39
4.81709e-40
-4.94294e-39
4.90078e-39
1.23169e-39
2.59011e-38
2.68232e-38
1.35403e-38
2.95104e-37
-5.65103e-36
2.33244e-36
-7.15004e-35
1.60579e-35
-6.46462e-34
1.04799e-34
-5.35542e-33
6.49566e-34
-4.13575e-32
4.08415e-33
-2.7104e-31
2.51272e-32
-1.5615e-30
1.34607e-31
-7.97074e-30
6.42744e-31
-3.58997e-29
2.73833e-30
-1.44884e-28
1.03222e-29
-5.28311e-28
3.48774e-29
-1.74382e-27
1.06404e-28
-5.17871e-27
2.93755e-28
-1.35446e-26
7.30834e-28
-3.04914e-26
1.60965e-27
-5.71106e-26
3.08344e-27
-8.39721e-26
4.99879e-27
-9.58308e-26
6.52005e-27
-8.52443e-26
6.81747e-27
-5.91943e-26
5.77054e-27
-3.26694e-26
3.95443e-27
-1.48605e-26
2.2075e-27
-5.75602e-27
1.02318e-27
-1.91865e-27
4.02327e-28
-5.46467e-28
1.35133e-28
-1.3071e-28
3.85561e-29
-2.58559e-29
9.22242e-30
-4.17795e-30
1.82908e-30
-5.57274e-31
2.97992e-31
-6.0237e-32
4.03369e-32
-5.00991e-33
4.44855e-33
-3.04819e-34
3.78539e-34
-1.47988e-35
2.35523e-35
-1.63472e-35
1.16488e-36
-1.8144e-34
1.30207e-36
-1.79065e-33
1.44901e-35
-1.52739e-32
1.4179e-34
1.18392e-33
-1.12809e-31
-6.49864e-55
1.7622e-58
-2.45028e-51
2.79225e-54
9.20323e-51
-9.01491e-49
3.70201e-47
-5.55652e-45
2.10108e-44
-2.2107e-42
3.39653e-42
-2.42164e-40
2.21098e-40
-1.03603e-38
7.02305e-39
-1.9207e-37
1.21444e-37
-1.07267e-36
1.20843e-36
2.19507e-37
7.09938e-36
5.1981e-36
2.00666e-35
5.56201e-35
-3.16881e-34
4.2251e-34
-7.00565e-33
2.79541e-33
-6.787e-32
1.74909e-32
-5.46123e-31
1.02559e-31
-3.95369e-30
5.94963e-31
-2.41384e-29
3.34102e-30
-1.28062e-28
1.64158e-29
-5.98223e-28
7.14923e-29
-2.48315e-27
2.7707e-28
-9.25397e-27
9.59184e-28
-3.13164e-26
2.98803e-27
-9.64349e-26
8.46092e-27
-2.68801e-25
2.18291e-26
-6.66792e-25
5.11443e-26
-1.4302e-24
1.0737e-25
-2.59547e-24
1.97211e-25
-3.81687e-24
3.11934e-25
-4.48754e-24
4.09506e-25
-4.22459e-24
4.43079e-25
-3.18252e-24
3.97784e-25
-1.93728e-24
2.95924e-25
-9.82615e-25
1.82085e-25
-4.26694e-25
9.3847e-26
-1.60441e-25
4.12008e-26
-5.20854e-26
1.55413e-26
-1.44189e-26
5.03358e-27
-3.35659e-27
1.38858e-27
-6.5215e-28
3.23093e-28
-1.06032e-28
6.31017e-29
-1.3678e-29
1.03785e-29
-1.34315e-30
1.36113e-30
-9.68346e-32
1.36219e-31
-1.11865e-32
1.0002e-32
-6.39861e-32
1.17232e-33
-5.51798e-31
6.75923e-33
-4.11287e-30
5.82402e-32
-2.64961e-29
4.29122e-31
2.69957e-30
-1.4818e-28
-5.09779e-53
2.13809e-56
1.45526e-52
2.75275e-52
5.15932e-48
-6.15937e-46
1.10409e-44
-1.11188e-42
4.39627e-42
-3.11407e-40
5.6199e-40
-2.75751e-38
3.10361e-38
-1.02477e-36
8.80009e-37
-1.75141e-35
1.41369e-35
-1.051e-34
1.3569e-34
2.00453e-35
8.10417e-34
5.18195e-34
2.8202e-33
5.37244e-33
1.08348e-33
3.90352e-32
-3.41238e-31
2.46068e-31
-3.68284e-30
1.45985e-30
-2.89625e-29
8.03844e-30
-1.958e-28
4.30086e-29
-1.113e-27
2.19289e-28
-5.45418e-27
9.87246e-28
-2.3319e-26
3.9319e-27
-8.89294e-26
1.38558e-26
-3.0587e-25
4.38815e-26
-9.60377e-25
1.25829e-25
-2.75976e-24
3.30149e-25
-7.22376e-24
7.94835e-25
-1.69946e-23
1.75101e-24
-3.49931e-23
3.49568e-24
-6.16943e-23
6.18874e-24
-9.06674e-23
9.55591e-24
-1.09255e-22
1.25927e-23
-1.07631e-22
1.40099e-23
-8.6356e-23
1.31969e-23
-5.67697e-23
1.04943e-23
-3.13423e-23
7.00034e-24
-1.49088e-23
3.9296e-24
-6.18627e-24
1.88554e-24
-2.23877e-24
7.82013e-25
-6.97932e-25
2.81263e-25
-1.84356e-25
8.70862e-26
-4.11845e-26
2.29325e-26
-7.58529e-27
5.13944e-27
-1.10154e-27
9.55892e-28
-1.21389e-28
1.4089e-28
-9.84811e-30
1.57947e-29
-4.00791e-30
1.3025e-30
-2.89708e-29
5.36724e-31
-2.04933e-28
3.9028e-30
-1.24985e-27
2.75322e-29
-6.59202e-27
1.65716e-28
8.52357e-28
-3.02256e-26
2.29438e-56
1.81121e-54
5.38779e-50
-1.21863e-48
1.08358e-45
-1.13093e-43
1.59002e-42
-1.21537e-40
4.86912e-40
-2.59568e-38
5.15134e-38
-1.91736e-36
2.4794e-36
-6.28219e-35
6.37407e-35
-9.94223e-34
9.59726e-34
-6.16281e-33
8.8856e-33
1.05109e-33
5.28667e-32
3.08597e-32
1.984e-31
3.11461e-31
3.29907e-31
2.16228e-30
-8.57744e-30
1.29122e-29
-1.17402e-28
7.1864e-29
-9.19134e-28
3.69766e-28
-5.8468e-27
1.8236e-27
-3.10272e-26
8.45483e-27
-1.40721e-25
3.4868e-26
-5.52551e-25
1.27007e-25
-1.93302e-24
4.07764e-25
-6.14159e-24
1.17796e-24
-1.78984e-23
3.10763e-24
-4.80083e-23
7.54702e-24
-1.18037e-22
1.69314e-23
-2.63066e-22
3.50214e-23
-5.20433e-22
6.63058e-23
-8.93375e-22
1.13097e-22
-1.30983e-21
1.70699e-22
-1.61186e-21
2.2523e-22
-1.65041e-21
2.565e-22
-1.3939e-21
2.51811e-22
-9.73824e-22
2.1215e-22
-5.75393e-22
1.51685e-22
-2.95038e-22
9.14124e-23
-1.33092e-22
4.72111e-23
-5.2819e-23
2.12055e-23
-1.81761e-23
8.32831e-24
-5.33307e-24
2.83636e-24
-1.32477e-24
8.27651e-25
-2.67371e-25
2.05967e-25
-4.26915e-26
4.19487e-26
-5.1483e-27
6.7952e-27
-4.91336e-28
8.3327e-28
-4.83202e-28
8.07857e-29
-3.24817e-27
8.03832e-29
-1.96691e-26
5.43102e-28
-1.02586e-25
3.2768e-27
-4.63364e-25
1.68527e-26
7.41828e-26
-1.82518e-24
1.17407e-53
1.1746e-52
9.83873e-48
-8.42577e-46
1.26655e-43
-1.12569e-41
1.35229e-40
-8.34147e-39
3.30989e-38
-1.41563e-36
2.9706e-36
-8.89672e-35
1.26526e-34
-2.59781e-33
2.97688e-33
-3.82527e-32
4.22243e-32
-2.40968e-31
3.7775e-31
3.31771e-32
2.22138e-30
1.20312e-30
8.59098e-30
1.19302e-29
1.92252e-29
7.91684e-29
-8.57924e-29
4.46044e-28
-2.38236e-27
2.31319e-27
-1.9159e-26
1.10442e-26
-1.15814e-25
5.02707e-26
-5.77152e-25
2.12347e-25
-2.42655e-24
8.04182e-25
-8.76637e-24
2.67787e-24
-2.81691e-23
7.83473e-24
-8.26663e-23
2.06436e-23
-2.2382e-22
5.00345e-23
-5.60713e-22
1.1242e-22
-1.2942e-21
2.34823e-22
-2.72706e-21
4.55116e-22
-5.16932e-21
8.14593e-22
-8.64538e-21
1.33419e-21
-1.26253e-20
1.96973e-21
-1.58192e-20
2.59769e-21
-1.6764e-20
3.01551e-21
-1.47887e-20
3.06909e-21
-1.08434e-20
2.72646e-21
-6.77476e-21
2.07641e-21
-3.70495e-21
1.33002e-21
-1.79715e-21
7.31275e-22
-7.71679e-22
3.51498e-22
-2.89076e-22
1.48604e-22
-9.31658e-23
5.48778e-23
-2.53478e-23
1.755e-23
-5.59248e-24
4.77993e-24
-9.74311e-25
1.06447e-24
-1.28662e-25
1.88265e-25
-1.49285e-26
2.5297e-26
-2.2092e-26
2.98309e-27
-1.33678e-25
4.46726e-27
-7.16352e-25
2.71674e-26
-3.30978e-24
1.45027e-25
-1.32696e-23
6.60572e-25
2.58031e-24
-4.65279e-23
1.30501e-51
6.18794e-51
1.10092e-45
-1.08298e-43
9.26973e-42
-7.13859e-40
7.48099e-39
-3.88615e-37
1.49934e-36
-5.37656e-35
1.15955e-34
-2.91542e-33
4.41532e-33
-7.64916e-32
9.56854e-32
-1.05202e-30
1.28317e-30
-6.66765e-30
1.11113e-29
6.05553e-31
6.43617e-29
3.25999e-29
2.51654e-28
3.21535e-28
6.31435e-28
2.04495e-27
3.22159e-28
1.08481e-26
-3.22677e-26
5.2164e-26
-2.79121e-25
2.29694e-25
-1.62138e-24
9.63619e-25
-7.64247e-24
3.71567e-24
-2.9886e-23
1.29699e-23
-9.94765e-23
3.95361e-23
-2.94052e-22
1.05401e-22
-7.97165e-22
2.53365e-22
-2.00739e-21
5.63556e-22
-4.70099e-21
1.17123e-21
-1.0174e-20
2.27656e-21
-2.0209e-20
4.12333e-21
-3.65669e-20
6.94856e-21
-5.94649e-20
1.0886e-20
-8.63404e-20
1.5707e-20
-1.10008e-19
2.06814e-20
-1.20395e-19
2.43873e-20
-1.10273e-19
2.55844e-20
-8.39016e-20
2.38996e-20
-5.48934e-20
1.93606e-20
-3.17882e-20
1.30686e-20
-1.64714e-20
7.58173e-21
-7.59044e-21
3.86739e-21
-3.07157e-21
1.74388e-21
-1.07705e-21
6.92747e-22
-3.1942e-22
2.40596e-22
-7.72823e-23
7.14389e-23
-1.47124e-23
1.74692e-23
-2.14045e-24
3.38206e-24
-2.88427e-25
5.01508e-25
-4.69936e-25
6.87723e-26
-2.5927e-24
1.13494e-25
-1.2646e-23
6.29668e-25
-5.32048e-23
3.0604e-24
-1.94498e-22
1.26953e-23
4.5221e-23
-6.23234e-22
1.25006e-49
3.183e-49
8.04193e-44
-7.85314e-42
4.57655e-40
-3.11882e-38
2.86139e-37
-1.29351e-35
4.77476e-35
-1.48509e-33
3.21801e-33
-7.02237e-32
1.10376e-31
-1.6662e-30
2.21375e-30
-2.14661e-29
2.81435e-29
-1.35871e-28
2.36207e-28
3.96114e-30
1.34696e-27
6.38997e-28
5.28745e-27
6.36158e-27
1.39364e-26
3.89563e-26
1.71226e-26
1.94593e-25
-2.92343e-25
8.65535e-25
-2.96066e-24
3.49838e-24
-1.67856e-23
1.34728e-23
-7.53884e-23
4.75968e-23
-2.75293e-22
1.53655e-22
-8.46712e-22
4.29524e-22
-2.30321e-21
1.04474e-21
-5.77135e-21
2.28874e-21
-1.35356e-20
4.6686e-21
-2.96577e-20
8.97518e-21
-6.01732e-20
1.62224e-20
-1.12418e-19
2.74055e-20
-1.93275e-19
4.33232e-20
-3.04364e-19
6.46316e-20
-4.39034e-19
9.09972e-20
-5.69576e-19
1.19803e-19
-6.44071e-19
1.43212e-19
-6.09535e-19
1.53541e-19
-4.7472e-19
1.50553e-19
-3.22381e-19
1.30185e-19
-1.96694e-19
9.17114e-20
-1.08296e-19
5.56503e-20
-5.3415e-20
2.98952e-20
-2.32978e-20
1.43252e-20
-8.85747e-21
6.10899e-21
-2.85939e-21
2.29841e-21
-7.59977e-22
7.43955e-22
-1.59897e-22
2.00383e-22
-2.57193e-23
4.30024e-23
-3.77892e-24
7.06861e-24
-5.50828e-24
1.05914e-24
-2.80763e-23
1.5661e-24
-1.27465e-22
8.03567e-24
-4.99001e-22
3.63785e-23
-1.69824e-21
1.40485e-22
4.66025e-22
-5.07343e-21
1.06084e-47
1.23944e-47
4.03536e-42
-3.78904e-40
1.59953e-38
-9.85541e-37
7.89164e-36
-3.19158e-34
1.11036e-33
-3.08163e-32
6.57927e-32
-1.28148e-30
2.04495e-30
-2.76396e-29
3.81023e-29
-3.34282e-28
4.60187e-28
-2.10081e-27
3.74776e-27
-1.13755e-27
2.10568e-26
9.29686e-27
8.28931e-26
9.50125e-26
2.23751e-25
5.64638e-25
3.56943e-25
2.6635e-24
-1.56676e-24
1.09606e-23
-2.34e-23
4.0533e-23
-1.32227e-22
1.42625e-22
-5.71096e-22
4.62647e-22
-1.9604e-21
1.38611e-21
-5.59206e-21
3.56579e-21
-1.40123e-20
7.92439e-21
-3.24946e-20
1.581e-20
-7.10831e-20
2.9568e-20
-1.45879e-19
5.25791e-20
-2.77487e-19
8.83065e-20
-4.86991e-19
1.38833e-19
-7.93189e-19
2.05162e-19
-1.20609e-18
2.90563e-19
-1.7374e-18
3.99838e-19
-2.31374e-18
5.31961e-19
-2.72e-18
6.47473e-19
-2.6488e-18
6.99757e-19
-2.06319e-18
7.18023e-19
-1.43558e-18
6.6758e-19
-9.16654e-19
4.81782e-19
-5.34334e-19
3.01723e-19
-2.81827e-19
1.6972e-19
-1.32586e-19
8.63383e-20
-5.47395e-20
3.96018e-20
-1.93271e-20
1.61964e-20
-5.65866e-21
5.75358e-21
-1.32771e-21
1.71468e-21
-2.38703e-22
4.12114e-22
-3.67309e-23
7.59873e-23
-4.04886e-23
1.19567e-23
-1.91408e-22
1.33964e-23
-8.23929e-22
6.38416e-23
-3.05449e-21
2.74307e-22
-9.83869e-21
1.00386e-21
3.15347e-21
-2.78324e-20
6.89994e-46
6.15507e-47
1.4471e-40
-1.30505e-38
4.09125e-37
-2.33237e-35
1.61739e-34
-6.00575e-33
1.93889e-32
-4.92855e-31
1.01759e-30
-1.8149e-29
2.88083e-29
-3.57356e-28
5.00254e-28
-4.06384e-27
5.7501e-27
-2.52397e-26
4.54858e-26
-3.24588e-26
2.52263e-25
1.01917e-25
9.96891e-25
1.09069e-24
2.73811e-24
6.36226e-24
4.9478e-24
2.8487e-23
-2.65356e-25
1.08844e-22
-1.37746e-22
3.67822e-22
-8.05843e-22
1.17796e-21
-3.38869e-21
3.51379e-21
-1.10469e-20
9.79336e-21
-2.93846e-20
2.33005e-20
-6.80077e-20
4.74028e-20
-1.4629e-19
8.61469e-20
-2.98702e-19
1.47796e-19
-5.74441e-19
2.4288e-19
-1.02544e-18
3.78456e-19
-1.69244e-18
5.52705e-19
-2.61602e-18
7.61421e-19
-3.86108e-18
1.02314e-18
-5.66819e-18
1.39319e-18
-7.8832e-18
1.93395e-18
-9.74339e-18
2.4353e-18
-9.79807e-18
2.58485e-18
-7.2886e-18
2.76137e-18
-5.10894e-18
2.78443e-18
-3.37235e-18
1.99124e-18
-2.06414e-18
1.26047e-18
-1.16076e-18
7.36161e-19
-5.89601e-19
3.97183e-19
-2.65105e-19
1.96736e-19
-1.02887e-19
8.79951e-20
-3.33864e-20
3.45724e-20
-8.76471e-21
1.14926e-20
-1.77864e-21
3.1077e-21
-2.88623e-22
6.49587e-22
-2.08441e-22
1.08131e-22
-8.97228e-22
7.95536e-23
-3.71962e-21
3.45758e-22
-1.32529e-20
1.43248e-21
-4.09507e-20
5.04284e-21
1.52071e-20
-1.11051e-19
3.29298e-44
-1.13262e-42
3.80379e-39
-3.34714e-37
7.83941e-36
-4.24873e-34
2.51727e-33
-8.82399e-32
2.59496e-31
-6.2078e-30
1.21443e-29
-2.03596e-28
3.14631e-28
-3.67244e-27
5.10685e-27
-3.93118e-26
5.59533e-26
-2.40333e-25
4.30302e-25
-4.51178e-25
2.36072e-24
8.44835e-25
9.38257e-24
9.73238e-24
2.63029e-23
5.64963e-23
5.13175e-23
2.41938e-22
3.7504e-23
8.64348e-22
-5.74739e-22
2.67494e-21
-3.80718e-21
7.77776e-21
-1.59119e-20
2.1358e-20
-4.99819e-20
5.54392e-20
-1.25061e-19
1.22635e-19
-2.68671e-19
2.29057e-19
-5.38e-19
3.79716e-19
-1.02526e-18
5.98468e-19
-1.84702e-18
9.07329e-19
-3.0956e-18
1.30874e-18
-4.80715e-18
1.77126e-18
-7.06686e-18
2.26443e-18
-1.02378e-17
2.86885e-18
-1.57929e-17
3.91679e-18
-2.32408e-17
6.02205e-18
-3.12022e-17
8.0538e-18
-3.52142e-17
8.15851e-18
-2.15934e-17
9.44975e-18
-1.51616e-17
9.79476e-18
-1.02631e-17
6.67854e-18
-6.5204e-18
4.20487e-18
-3.87669e-18
2.53425e-18
-2.11514e-18
1.44738e-18
-1.03519e-18
7.74661e-19
-4.43277e-19
3.80488e-19
-1.60323e-19
1.66504e-19
-4.72573e-20
6.22087e-20
-1.08517e-20
1.90115e-20
-1.92116e-21
4.51799e-21
-8.43839e-22
8.2322e-22
-3.09167e-21
3.69211e-22
-1.25024e-20
1.36815e-21
-4.33693e-20
5.53623e-21
-1.30022e-19
1.89941e-20
5.56195e-20
-3.41395e-19
1.12281e-42
-6.79832e-41
7.43589e-38
-6.61202e-36
1.14288e-34
-6.10998e-33
3.02048e-32
-1.03494e-30
2.70161e-30
-6.28462e-29
1.13479e-28
-1.84397e-27
2.70291e-27
-3.05478e-26
4.11263e-26
-3.0792e-25
4.30178e-25
-1.84567e-24
3.21877e-24
-4.33574e-24
1.75018e-23
5.229e-24
7.01274e-23
6.79145e-23
2.0199e-22
3.98227e-22
4.1819e-22
1.64759e-21
4.96356e-22
5.56058e-21
-1.31554e-21
1.58586e-20
-1.35824e-20
4.18771e-20
-5.91443e-20
1.05594e-19
-1.83032e-19
2.56465e-19
-4.36527e-19
5.30027e-19
-8.76823e-19
9.12158e-19
-1.64097e-18
1.38196e-18
-2.91949e-18
2.00355e-18
-4.91455e-18
2.79912e-18
-7.68076e-18
3.7231e-18
-1.10595e-17
4.63135e-18
-1.50586e-17
5.39458e-18
-2.1591e-17
6.20026e-18
-3.86875e-17
8.33809e-18
-6.05586e-17
1.61365e-17
-1.09308e-16
2.52953e-17
-1.7098e-16
2.83621e-17
-5.73065e-17
3.77159e-17
-3.7167e-17
3.11942e-17
-2.63518e-17
1.70917e-17
-1.73738e-17
1.10778e-17
-1.08259e-17
7.08641e-18
-6.27278e-18
4.31349e-18
-3.31563e-18
2.4905e-18
-1.56076e-18
1.34004e-18
-6.30764e-19
6.52513e-19
-2.10251e-19
2.75012e-19
-5.48182e-20
9.5686e-20
-1.08465e-20
2.59357e-20
-3.08716e-21
5.29748e-21
-8.2665e-21
1.54281e-21
-3.28552e-20
4.18502e-21
-1.12276e-19
1.66659e-20
-3.29871e-19
5.63897e-20
1.61965e-19
-8.45639e-19
2.65848e-41
-2.33456e-39
1.08681e-36
-1.04531e-34
1.27929e-33
-7.14775e-32
2.82235e-31
-9.94561e-30
2.21081e-29
-5.2358e-28
8.39088e-28
-1.37778e-26
1.84621e-26
-2.09814e-25
2.64122e-25
-1.98934e-24
2.64158e-24
-1.16332e-23
1.9244e-23
-3.16258e-23
1.03861e-22
2.3035e-23
4.20362e-22
3.70822e-22
1.2541e-21
2.23532e-21
2.73814e-21
9.03158e-21
4.10105e-21
2.91462e-20
1.27837e-21
7.74801e-20
-3.339e-20
1.8681e-19
-1.71408e-19
4.31394e-19
-5.44171e-19
9.88991e-19
-1.25831e-18
1.91789e-18
-2.38299e-18
3.04192e-18
-4.20006e-18
4.21251e-18
-6.97782e-18
5.64139e-18
-1.08923e-17
7.25529e-18
-1.57636e-17
8.83341e-18
-2.125e-17
1.00563e-17
-2.7992e-17
1.0802e-17
-3.99466e-17
1.16923e-17
-7.19937e-17
1.44616e-17
-1.74702e-16
2.95098e-17
-4.08143e-16
8.69881e-17
-7.37285e-16
6.93178e-16
-3.13162e-16
8.30907e-16
-1.43441e-16
1.51387e-16
-7.5708e-17
6.12556e-17
-4.3944e-17
3.04719e-17
-2.67049e-17
1.85567e-17
-1.58201e-17
1.13632e-17
-8.84228e-18
6.84337e-18
-4.51618e-18
3.94859e-18
-2.02759e-18
2.10896e-18
-7.64258e-19
9.95506e-19
-2.28738e-19
3.93847e-19
-5.15033e-20
1.22965e-19
-1.14269e-20
2.86447e-20
-1.80499e-20
6.51364e-21
-7.00723e-20
1.04376e-20
-2.38568e-19
4.06519e-20
-6.93369e-19
1.37195e-19
3.90184e-19
-1.74842e-18
3.83853e-40
-5.68763e-38
1.17823e-35
-1.39148e-33
1.10259e-32
-7.0909e-31
2.0661e-30
-8.12242e-29
1.43276e-28
-3.70928e-27
4.94978e-27
-8.74723e-26
1.01121e-25
-1.22213e-24
1.36448e-24
-1.08602e-23
1.30677e-23
-6.15007e-23
9.27191e-23
-1.83801e-22
4.96864e-22
5.99809e-23
2.03336e-21
1.57512e-21
6.30464e-21
9.94368e-21
1.45689e-20
3.99225e-20
2.5116e-20
1.24449e-19
2.48169e-20
3.13669e-19
-3.30285e-20
6.98945e-19
-3.66192e-19
1.4754e-18
-1.3092e-18
3.24583e-18
-3.00307e-18
5.96597e-18
-5.43123e-18
8.61458e-18
-9.11403e-18
1.08915e-17
-1.40649e-17
1.35644e-17
-2.00032e-17
1.59603e-17
-2.62152e-17
1.75156e-17
-3.22614e-17
1.79829e-17
-4.10131e-17
1.7822e-17
-7.12971e-17
1.86392e-17
-1.89479e-16
2.6594e-17
-4.72757e-16
5.66032e-17
-1.07169e-15
6.58108e-16
-3.44836e-15
1.20778e-15
-2.71416e-15
9.18707e-16
-2.51421e-16
1.02482e-15
-1.23967e-16
8.54026e-17
-6.94944e-17
5.2568e-17
-4.53761e-17
3.20733e-17
-2.96496e-17
2.14821e-17
-1.83298e-17
1.43384e-17
-1.0395e-17
9.18852e-18
-5.2336e-18
5.47691e-18
-2.2412e-18
2.91257e-18
-7.73759e-19
1.3132e-18
-2.02859e-19
4.73765e-19
-4.28365e-20
1.28644e-19
-3.44111e-20
2.78705e-20
-1.24782e-19
2.27394e-20
-4.27889e-19
8.28328e-20
-1.24201e-18
2.8191e-19
8.01545e-19
-3.10323e-18
3.9166e-40
-1.03032e-36
8.8671e-35
-1.61223e-32
7.19571e-32
-6.20208e-30
1.18169e-29
-5.86775e-28
7.37609e-28
-2.32323e-26
2.34301e-26
-4.89777e-25
4.47378e-25
-6.25384e-24
5.71668e-24
-5.17887e-23
5.25106e-23
-2.81176e-22
3.62782e-22
-8.8675e-22
1.9272e-21
-9.00102e-23
7.96674e-21
5.12573e-21
2.56315e-20
3.48145e-20
6.30388e-20
1.4162e-19
1.19565e-19
4.3085e-19
1.61316e-19
1.04829e-18
1.04869e-19
2.20279e-18
-4.61528e-19
4.2784e-18
-2.5263e-18
9.3003e-18
-5.84861e-18
1.65897e-17
-1.05453e-17
2.08968e-17
-1.70696e-17
2.43921e-17
-2.39075e-17
2.81838e-17
-3.02922e-17
2.99244e-17
-3.57509e-17
2.90023e-17
-4.25144e-17
2.71236e-17
-6.00279e-17
2.66497e-17
-1.16972e-16
3.23331e-17
-2.15599e-16
5.70575e-17
-5.20371e-16
1.01713e-16
-4.29716e-15
6.14484e-16
-4.16166e-15
1.37985e-15
-4.54371e-15
1.55911e-15
-1.94827e-15
2.06018e-16
-1.38353e-16
1.3696e-16
-6.81532e-17
7.47294e-17
-5.12291e-17
3.73328e-17
-3.92437e-17
2.81022e-17
-2.82673e-17
2.1721e-17
-1.8503e-17
1.6133e-17
-1.0702e-17
1.11032e-17
-5.27275e-18
6.79885e-18
-2.11315e-18
3.53225e-18
-6.50531e-19
1.47971e-18
-1.50237e-19
4.71837e-19
-6.38672e-20
1.11861e-19
-1.89704e-19
4.83506e-20
-6.61216e-19
1.44468e-19
-1.93715e-18
5.0045e-19
1.43769e-18
-4.83373e-18
-2.10918e-34
-1.26532e-35
2.3867e-34
-1.57502e-31
3.06775e-31
-4.71532e-29
4.96362e-29
-3.73996e-27
2.9292e-27
-1.2956e-25
8.78647e-26
-2.45595e-24
1.59396e-24
-2.87363e-23
1.94892e-23
-2.21561e-22
1.72637e-22
-1.14589e-21
1.16269e-21
-3.69217e-21
6.10708e-21
-3.67399e-21
2.53835e-20
1.23357e-20
8.41846e-20
9.53154e-20
2.19658e-19
3.979e-19
4.48975e-19
1.19734e-18
7.04143e-19
2.86008e-18
8.07257e-19
5.78093e-18
2.82441e-19
1.0524e-17
-3.43421e-18
1.36245e-17
-8.96468e-18
4.13216e-17
-1.63847e-17
4.29184e-17
-2.32387e-17
4.55934e-17
-3.47089e-17
4.25154e-17
-3.62366e-17
4.69101e-17
-3.45508e-17
3.82052e-17
-4.38735e-17
4.49077e-17
-5.05524e-17
3.17673e-17
-7.37797e-17
3.18361e-17
-1.66373e-16
4.43122e-17
-4.86852e-16
8.86722e-17
-1.10112e-15
2.23945e-16
-3.33651e-15
5.2047e-16
-2.51741e-15
9.96996e-16
-2.96759e-16
1.15932e-16
-1.61525e-16
8.91356e-17
-7.6598e-17
7.7307e-17
-5.52823e-17
4.27288e-17
-4.56031e-17
3.33681e-17
-3.69478e-17
2.85409e-17
-2.75337e-17
2.40065e-17
-1.8188e-17
1.88784e-17
-1.02805e-17
1.32666e-17
-4.76638e-18
7.92517e-18
-1.71917e-18
3.8388e-18
-4.58547e-19
1.43325e-18
-1.31464e-19
3.9256e-19
-2.51846e-19
1.1457e-19
-8.92359e-19
2.21137e-19
-2.67175e-18
7.79916e-19
2.29217e-18
-6.72008e-18
-4.36693e-33
-8.27251e-35
-8.69151e-31
-1.21706e-30
-7.83677e-30
-2.96027e-28
9.06289e-29
-2.01154e-26
7.07878e-27
-6.17952e-25
2.2887e-25
-1.06292e-23
4.23847e-24
-1.14743e-22
5.18484e-23
-8.2825e-22
4.55756e-22
-4.09065e-21
3.03917e-21
-1.32555e-20
1.58669e-20
-2.04968e-20
6.61221e-20
1.95853e-20
2.23273e-19
2.03079e-19
6.06689e-19
8.74238e-19
1.322e-18
2.6278e-18
2.2774e-18
6.2636e-18
3.12287e-18
1.24684e-17
1.84211e-18
1.46654e-17
-4.53888e-19
5.881e-17
-9.24317e-18
8.15439e-17
-2.09968e-17
6.77111e-17
-2.31864e-17
7.54453e-17
-4.48789e-17
7.79089e-17
-4.83246e-17
6.39001e-17
-5.49817e-17
5.26739e-17
-3.94527e-17
7.34373e-17
-4.36761e-17
3.77601e-17
-4.55532e-17
3.22379e-17
-5.63947e-17
3.25147e-17
-1.20225e-16
4.09758e-17
-3.47182e-16
8.60979e-17
-6.32347e-16
2.6208e-16
-2.90082e-16
4.03198e-16
-1.28755e-16
7.67098e-17
-8.8303e-17
4.37003e-17
-6.20799e-17
4.90407e-17
-5.28276e-17
3.88459e-17
-4.85885e-17
3.73453e-17
-4.38216e-17
3.58016e-17
-3.63201e-17
3.28379e-17
-2.68155e-17
2.86308e-17
-1.71625e-17
2.26815e-17
-9.12118e-18
1.53863e-17
-3.82402e-18
8.52505e-18
-1.19478e-18
3.69268e-18
-3.05385e-19
1.18493e-18
-3.04314e-19
3.08799e-19
-1.05905e-18
3.10618e-19
-3.28975e-18
1.0777e-18
3.28905e-18
-8.43839e-18
-5.49147e-32
1.14552e-35
-1.35221e-29
-7.16642e-30
-8.01833e-28
-1.48856e-27
-1.81886e-26
-8.86501e-26
-1.48031e-25
-2.44574e-24
1.00248e-25
-3.84346e-23
5.06176e-24
-3.8422e-22
8.21304e-23
-2.59992e-21
8.2384e-22
-1.22385e-20
5.90095e-21
-3.93157e-20
3.21224e-20
-7.3473e-20
1.37438e-19
6.80926e-21
4.72347e-19
3.31029e-19
1.32162e-18
1.51311e-18
3.02881e-18
4.56118e-18
5.65019e-18
1.07729e-17
8.58741e-18
2.1717e-17
7.47314e-18
3.10309e-17
7.83641e-18
8.54128e-17
-4.09608e-18
1.12667e-16
-2.49627e-17
8.90055e-17
-4.86216e-17
1.12811e-16
-7.32487e-17
2.09863e-16
-4.9015e-17
6.47898e-17
-4.7186e-17
5.6943e-17
-2.55008e-17
5.13834e-17
-3.53332e-17
3.40015e-17
-3.2808e-17
3.16091e-17
-3.41866e-17
3.29446e-17
-4.31464e-17
3.46979e-17
-8.72679e-17
4.41787e-17
-1.35432e-16
8.75836e-17
-7.03575e-17
1.29023e-16
-5.34297e-17
4.95442e-17
-4.52741e-17
2.90144e-17
-4.36153e-17
5.65822e-17
-4.59255e-17
4.02698e-17
-4.86158e-17
4.36279e-17
-4.83818e-17
4.46735e-17
-4.30014e-17
4.2171e-17
-3.46384e-17
3.93165e-17
-2.4805e-17
3.46178e-17
-1.50129e-17
2.63573e-17
-7.28246e-18
1.65237e-17
-2.6775e-18
8.24093e-18
-7.32065e-19
3.11153e-18
-3.69474e-19
8.69434e-19
-1.10721e-18
4.43958e-19
-3.62745e-18
1.32826e-18
4.27684e-18
-9.63664e-18
-4.68303e-31
1.15877e-33
-1.10642e-28
-3.1238e-29
-6.88213e-27
-5.81835e-27
-1.89462e-25
-3.11036e-25
-2.86124e-24
-7.80555e-24
-2.61363e-23
-1.1286e-22
-1.44966e-22
-1.0479e-21
-3.73305e-22
-6.64635e-21
2.90544e-22
-2.96954e-20
5.52799e-21
-9.30709e-20
4.03057e-20
-1.88244e-19
1.97726e-19
-1.32803e-19
7.31657e-19
3.82406e-19
2.15101e-18
2.05265e-18
5.17689e-18
6.18221e-18
1.03936e-17
1.45213e-17
1.75083e-17
2.94486e-17
2.20326e-17
5.11328e-17
3.68623e-17
1.58279e-16
4.54096e-18
1.46244e-16
-2.01904e-17
1.14962e-16
-7.93546e-17
1.4579e-16
-5.40362e-17
2.01753e-16
-3.59487e-17
9.04865e-17
-2.64269e-17
5.4642e-17
-1.94634e-17
4.33762e-17
-1.52862e-17
3.81397e-17
-1.57402e-17
3.51601e-17
-1.76831e-17
3.77224e-17
-2.15245e-17
6.66115e-17
-2.59894e-17
4.08888e-17
-2.8339e-17
4.44392e-17
-2.37019e-17
5.09246e-17
-2.68935e-17
3.65431e-17
-5.73597e-17
3.65017e-17
-4.58083e-17
7.12867e-17
-4.18748e-17
4.607e-17
-5.34572e-17
5.77068e-17
-5.75437e-17
6.34794e-17
-4.87485e-17
5.82633e-17
-3.9577e-17
5.23751e-17
-3.10381e-17
4.83501e-17
-2.13942e-17
4.06488e-17
-1.19517e-17
2.83467e-17
-5.14534e-18
1.61049e-17
-1.63701e-18
7.12705e-18
-5.39027e-19
2.32662e-18
-1.02635e-18
7.77396e-19
-3.56547e-18
1.47867e-18
5.04305e-18
-1.00209e-17
-2.82957e-30
1.50439e-32
-6.08262e-28
-9.7178e-29
-3.56967e-26
-1.72164e-26
-9.58295e-25
-8.47398e-25
-1.46651e-23
-1.96493e-23
-1.4396e-22
-2.64125e-22
-9.69188e-22
-2.29264e-21
-4.61655e-21
-1.36655e-20
-1.53826e-20
-5.78011e-20
-3.1851e-20
-1.74271e-19
-1.04655e-20
-3.57065e-19
1.02817e-19
-3.79626e-19
5.86728e-19
2.80112e-19
2.05233e-18
2.24654e-18
5.56258e-18
6.91815e-18
1.3073e-17
1.64693e-17
2.855e-17
3.76128e-17
6.23629e-17
9.51998e-17
1.28054e-16
2.98744e-16
2.59706e-16
1.98774e-15
-1.11927e-16
8.51299e-15
-5.32717e-17
1.79169e-15
-3.47522e-17
1.54627e-16
-1.16394e-17
8.3248e-17
-1.1244e-18
5.04479e-17
3.90956e-18
4.11047e-17
5.58692e-18
3.86055e-17
4.57774e-18
3.80858e-17
4.44398e-18
4.25599e-17
-1.55576e-18
5.38969e-17
-6.02062e-18
4.43529e-17
-5.36218e-18
4.57666e-17
-4.61888e-18
4.41085e-17
-8.8231e-18
4.20809e-17
-1.67559e-17
4.59283e-17
-2.30194e-17
6.46646e-17
-4.26807e-17
7.13023e-17
-8.74928e-17
1.05734e-16
-1.02358e-16
1.41094e-16
-7.01655e-17
1.26269e-16
-4.32388e-17
9.414e-17
-3.47144e-17
7.4913e-17
-2.69191e-17
5.99925e-17
-1.69979e-17
4.35703e-17
-8.49384e-18
2.78325e-17
-3.20644e-18
1.44109e-17
-9.72964e-19
5.61972e-18
-8.98597e-19
1.73582e-18
-3.09395e-18
1.5989e-18
5.38164e-18
-9.42087e-18
-1.20803e-29
1.05976e-31
-2.34637e-27
-2.10819e-28
-1.27087e-25
-3.84165e-26
-3.20534e-24
-1.79516e-24
-4.6837e-23
-3.92144e-23
-4.46724e-22
-4.96617e-22
-2.98981e-21
-4.06512e-21
-1.47036e-20
-2.28829e-20
-5.46669e-20
-9.15895e-20
-1.55815e-19
-2.62471e-19
-3.40375e-19
-5.18487e-19
-5.59484e-19
-5.73488e-19
-6.45359e-19
2.30089e-19
-2.94807e-19
2.62501e-18
7.87975e-19
8.13747e-18
3.86714e-18
1.99478e-17
1.42073e-17
5.0285e-17
5.94315e-17
1.5319e-16
7.90165e-16
4.42922e-16
8.61474e-16
5.72055e-15
2.32868e-16
9.01028e-15
7.48821e-17
6.10999e-15
1.03523e-16
2.48381e-16
6.99473e-17
1.00479e-16
5.03312e-17
6.26139e-17
3.85346e-17
4.88506e-17
3.10051e-17
4.37755e-17
2.61139e-17
4.24172e-17
2.53911e-17
4.8426e-17
4.23804e-17
5.18758e-17
3.15028e-17
9.01554e-17
2.01556e-17
6.4209e-17
1.56562e-17
5.71355e-17
7.88169e-18
5.90863e-17
3.24867e-19
6.62588e-17
-6.91466e-18
8.38094e-17
-1.49481e-17
1.19324e-16
-8.3194e-17
1.97227e-16
-1.94635e-16
1.47578e-15
-4.8379e-17
1.86183e-15
-6.89683e-17
9.21103e-16
-4.98412e-17
1.98099e-16
-3.2812e-17
1.01618e-16
-2.10575e-17
6.42696e-17
-1.18591e-17
4.36041e-17
-5.32614e-18
2.59491e-17
-1.83171e-18
1.21317e-17
-8.83017e-19
4.24659e-18
-2.37105e-18
2.02815e-18
5.26616e-18
-7.92802e-18
-3.66894e-29
4.71437e-31
-6.49627e-27
-3.12615e-28
-3.24962e-25
-6.59029e-26
-7.65082e-24
-3.0234e-24
-1.05264e-22
-6.34874e-23
-9.52691e-22
-7.68584e-22
-6.10501e-21
-6.00084e-21
-2.90974e-20
-3.21678e-20
-1.06816e-19
-1.22355e-19
-3.10247e-19
-3.31983e-19
-7.31331e-19
-6.15292e-19
-1.44788e-18
-6.08647e-19
-2.54769e-18
4.45128e-19
-4.41711e-18
3.58127e-18
-8.6303e-18
1.06593e-17
-2.0869e-17
2.66611e-17
-5.85211e-17
7.05853e-17
-1.35683e-16
1.90665e-16
-1.58215e-16
4.58977e-16
1.33518e-15
4.6716e-15
3.53408e-16
9.30496e-15
1.12847e-15
4.71554e-15
4.54898e-16
4.21799e-16
1.71662e-16
1.37825e-16
1.04762e-16
8.14431e-17
7.55012e-17
6.25136e-17
5.70958e-17
5.24168e-17
4.70704e-17
4.8771e-17
4.38156e-17
5.00225e-17
4.98487e-17
6.60088e-17
4.1777e-17
1.48562e-16
4.99482e-17
7.75686e-17
4.13821e-17
7.90692e-17
2.74729e-17
7.76567e-17
1.65566e-17
7.79029e-17
1.10163e-17
8.69597e-17
1.40938e-17
1.04988e-16
2.97757e-16
5.86464e-16
-6.27641e-17
3.50551e-15
-9.96363e-16
3.07295e-15
-5.95511e-16
3.3414e-15
-8.10636e-17
4.21157e-16
-3.74012e-17
2.07087e-16
-2.20448e-17
1.10466e-16
-1.34331e-17
6.85148e-17
-7.14592e-18
4.32451e-17
-2.9991e-18
2.34955e-17
-1.14193e-18
9.85723e-18
-1.64869e-18
3.64224e-18
4.95768e-18
-5.89214e-18
-8.13318e-29
1.42684e-30
-1.32947e-26
-2.91449e-28
-6.18002e-25
-8.90302e-26
-1.3581e-23
-4.15553e-24
-1.75032e-22
-8.57229e-23
-1.48831e-21
-1.00832e-21
-8.98496e-21
-7.61099e-21
-4.0467e-20
-3.9315e-20
-1.40896e-19
-1.43611e-19
-3.89982e-19
-3.72338e-19
-8.80488e-19
-6.52116e-19
-1.67231e-18
-5.77263e-19
-2.8051e-18
6.35326e-19
-4.48191e-18
4.11454e-18
-7.23307e-18
1.20489e-17
-1.08368e-17
3.08671e-17
-8.38361e-18
8.04219e-17
-1.70197e-17
2.41131e-16
2.57581e-16
1.4056e-15
1.24227e-15
8.66652e-15
1.08753e-15
1.25137e-14
1.39063e-15
5.35418e-15
4.4327e-16
1.08794e-15
3.88368e-16
2.68709e-16
1.37195e-16
9.53304e-17
9.11239e-17
6.77496e-17
7.16772e-17
5.83509e-17
6.11118e-17
5.47968e-17
5.85205e-17
5.36359e-17
8.05411e-17
5.37264e-17
1.0727e-16