/*--------------------------------*- C++ -*----------------------------------*\
| =========                 |                                                 |
| \\      /  F ield         | OpenFOAM: The Open Source CFD Toolbox           |
|  \\    /   O peration     | Version:  2.4.0                                 |
|   \\  /    A nd           | Web:      www.OpenFOAM.org                      |
|    \\/     M anipulation  |                                                 |
\*---------------------------------------------------------------------------*/
FoamFile
{
    version     2.0;
    format      ascii;
    class       surfaceScalarField;
    location    "0.265";
    object      phiAlpha;
}
// * * * * * * * * * * * * * * * * * * * * * * * * * * * * * * * * * * * * * //

dimensions      [0 3 -1 0 0 0 0];

internalField   nonuniform List<scalar> 
19800
(
1.03249e-67
-1.79745e-64
2.71738e-63
-3.75634e-60
2.60481e-59
-3.26068e-56
9.24345e-56
-8.197e-53
7.84388e-53
-4.45617e-50
1.96725e-50
-7.5036e-48
1.95085e-48
-5.26999e-46
9.37856e-47
-1.86818e-44
2.50482e-45
-3.77397e-43
4.10696e-44
-4.71614e-42
4.56963e-43
-3.94863e-41
3.84719e-42
-2.4104e-40
2.64738e-41
-1.11916e-39
1.58668e-40
-3.86548e-39
8.83218e-40
-6.07979e-39
4.9271e-39
6.38868e-41
2.95078e-38
1.04166e-39
1.77616e-37
1.04288e-38
9.81165e-37
8.14145e-38
4.8655e-36
5.23851e-37
2.12363e-35
2.80417e-36
8.25564e-35
1.27863e-35
2.89543e-34
5.04218e-35
9.26768e-34
1.72969e-34
2.71019e-33
5.08712e-34
7.28541e-33
1.25037e-33
1.81425e-32
2.42768e-33
4.18773e-32
3.13556e-33
8.38741e-32
5.69844e-34
1.27538e-31
-2.14899e-30
1.44277e-31
-4.58761e-30
1.1926e-31
-5.26738e-30
7.28625e-32
-3.95451e-30
3.3776e-32
-2.11115e-30
1.23489e-32
-8.6011e-31
3.73491e-33
-2.83212e-31
9.6487e-34
-7.70778e-32
2.09864e-34
-1.71332e-32
3.68149e-35
-2.99198e-33
4.99351e-36
-3.90533e-34
5.10562e-37
-3.54817e-35
3.95814e-38
-1.94666e-36
2.36346e-39
1.16334e-42
1.06714e-40
2.79302e-42
3.26974e-42
1.83665e-43
6.289e-44
5.86017e-45
1.17825e-45
1.66821e-46
6.60988e-46
1.39443e-46
2.97377e-45
9.69365e-46
7.05009e-45
1.22815e-44
3.62751e-64
-1.5605e-61
1.0959e-59
-5.30538e-57
1.35046e-55
-7.91627e-53
4.6614e-52
-1.75876e-49
3.34073e-49
-7.86163e-47
7.20743e-47
-1.13205e-44
6.34956e-45
-7.03607e-43
2.77887e-43
-2.25645e-41
6.86371e-42
-4.17172e-40
1.04813e-40
-4.77867e-39
1.08667e-39
-3.62692e-38
8.51013e-39
-1.97396e-37
5.47315e-38
-7.86729e-37
3.13203e-37
-2.01166e-36
1.68413e-36
9.02781e-39
8.7574e-36
3.55006e-37
4.8199e-35
3.79679e-36
2.62713e-34
3.18201e-35
1.26479e-33
2.13675e-34
5.42041e-33
1.21527e-33
2.03837e-32
5.91122e-33
6.60027e-32
2.45222e-32
1.8453e-31
8.82463e-32
4.39755e-31
2.76456e-31
8.6366e-31
7.46527e-31
1.29402e-30
1.67629e-30
1.26821e-30
2.89367e-30
7.61351e-31
3.0724e-30
2.51353e-30
-7.09783e-29
1.20488e-29
-8.11708e-28
2.86021e-29
-1.61707e-27
3.99538e-29
-1.92155e-27
3.6567e-29
-1.56104e-27
2.36264e-29
-9.24597e-28
1.15431e-29
-4.25111e-28
4.52565e-30
-1.59184e-28
1.4643e-30
-4.93926e-29
3.90277e-31
-1.26019e-29
8.37596e-32
-2.57669e-30
1.41566e-32
-4.07349e-31
1.86065e-33
-4.69765e-32
1.9216e-34
-3.47574e-33
1.55307e-35
-4.42267e-35
9.39845e-37
3.11188e-38
3.96532e-38
3.06055e-39
1.10199e-39
1.44854e-40
4.20867e-41
8.55794e-42
3.68083e-41
1.13746e-41
4.00459e-40
1.97013e-40
3.29143e-39
3.56737e-39
1.62731e-61
-4.28038e-59
7.7254e-57
-3.42869e-54
1.5484e-52
-6.13893e-50
4.46057e-49
-1.0439e-46
2.51005e-46
-3.69754e-44
4.46601e-44
-4.45688e-42
3.39342e-42
-2.41817e-40
1.32505e-40
-6.9734e-39
2.99228e-39
-1.18272e-37
4.24144e-38
-1.2569e-36
4.09836e-37
-8.82761e-36
3.00488e-36
-4.38673e-35
1.81895e-35
-1.5518e-34
9.90557e-35
-2.94169e-34
5.07405e-34
1.1815e-35
2.47032e-33
1.95554e-34
1.23039e-32
1.74874e-33
6.02484e-32
1.29924e-32
2.54454e-31
7.77022e-32
9.38536e-31
3.95794e-31
2.96665e-30
1.74096e-30
7.66562e-30
6.57889e-30
1.49901e-29
2.1686e-29
1.46478e-29
6.2509e-29
-1.09535e-28
1.55926e-28
-6.96836e-28
3.26742e-28
-2.09693e-27
5.29521e-28
-4.28373e-27
5.23391e-28
-5.9394e-27
-5.87992e-27
-5.48612e-27
-6.21592e-26
-3.08667e-27
-1.26949e-25
-5.66486e-28
-1.59348e-25
1.24754e-27
-1.40235e-25
1.73309e-27
-9.14673e-26
1.24873e-27
-4.6821e-26
6.48507e-28
-1.96229e-26
2.64887e-28
-6.86072e-27
8.72112e-29
-1.99491e-27
2.31153e-29
-4.72739e-28
4.89923e-30
-8.83567e-29
8.25071e-31
-1.23763e-29
1.11986e-31
-1.15144e-30
1.19152e-32
-2.7622e-32
9.32539e-34
4.59116e-35
5.11859e-35
6.29411e-36
1.99735e-36
4.33761e-37
4.15945e-37
1.45817e-37
3.62485e-36
2.0679e-36
2.60332e-35
2.71709e-35
2.91529e-34
9.42792e-35
2.88954e-59
-7.56216e-57
3.22669e-54
-1.52544e-51
7.74797e-50
-2.22889e-47
1.68769e-46
-2.78967e-44
7.4324e-44
-7.84447e-42
1.09527e-41
-7.95692e-40
7.20847e-40
-3.78211e-38
2.52022e-38
-9.83701e-37
5.22011e-37
-1.53638e-35
6.89804e-36
-1.52277e-34
6.24203e-35
-9.98587e-34
4.28377e-34
-4.55672e-33
2.44095e-33
-1.43494e-32
1.2564e-32
-1.85617e-32
6.05667e-32
2.91763e-33
2.74558e-31
3.5558e-32
1.23675e-30
2.77921e-31
5.37114e-30
1.83781e-30
1.99646e-29
9.93639e-30
6.28874e-29
4.56982e-29
1.60628e-28
1.81313e-28
2.91886e-28
6.2463e-28
1.3829e-28
1.88554e-27
-4.68449e-27
5.0122e-27
-2.44459e-26
1.1619e-26
-7.90243e-26
2.28378e-26
-1.91568e-25
3.53824e-26
-3.61194e-25
3.45204e-26
-5.12207e-25
-1.14129e-25
-5.39215e-25
-1.98459e-24
-4.16575e-25
-4.27551e-24
-2.2714e-25
-5.67839e-24
-7.90296e-26
-5.3467e-24
-9.19675e-27
-3.76795e-24
2.14704e-26
-2.097e-24
2.17781e-26
-9.61457e-25
1.23539e-26
-3.70512e-25
5.16409e-27
-1.19975e-25
1.68736e-27
-3.19746e-26
4.37293e-28
-6.75827e-27
9.03478e-29
-1.08053e-27
1.50311e-29
-1.11067e-28
1.89158e-30
-2.23715e-30
1.71405e-31
1.73229e-32
1.06977e-32
2.69595e-33
5.31309e-34
2.52262e-34
8.60503e-34
7.60384e-34
4.48507e-33
9.17474e-33
4.27769e-35
8.98492e-32
7.18152e-31
-1.75516e-30
3.65467e-57
-1.11802e-54
1.0392e-51
-4.46875e-49
2.04865e-47
-4.41542e-45
3.28222e-44
-4.11038e-42
1.144e-41
-9.31027e-40
1.4136e-39
-8.01938e-38
8.12663e-38
-3.35885e-36
2.55867e-36
-7.91314e-35
4.8833e-35
-1.14266e-33
6.04071e-34
-1.06107e-32
5.14931e-33
-6.53884e-32
3.30976e-32
-2.75345e-31
1.77041e-31
-7.71667e-31
8.55962e-31
-5.62655e-31
3.85408e-30
3.08518e-31
1.61773e-29
3.10238e-30
6.59496e-29
2.16186e-29
2.52498e-28
1.27676e-28
8.20911e-28
6.26616e-28
2.17523e-27
2.61961e-27
4.17737e-27
9.40085e-27
2.95297e-27
2.94907e-26
-5.36916e-26
8.16187e-26
-3.16003e-25
2.00346e-25
-1.11458e-24
4.32687e-25
-3.05958e-24
8.0056e-25
-6.80315e-24
1.19118e-24
-1.22869e-23
1.17516e-24
-1.76101e-23
3.53008e-26
-1.97086e-23
-3.40676e-23
-1.7114e-23
-7.90725e-23
-1.13757e-23
-1.11337e-22
-5.73264e-24
-1.11188e-22
-2.17896e-24
-8.32165e-23
-5.86309e-25
-4.93924e-23
-7.15354e-26
-2.43178e-23
8.37489e-26
-1.01503e-23
7.88984e-26
-3.59154e-24
3.67673e-26
-1.05081e-24
1.2055e-26
-2.44055e-25
3.00544e-27
-4.23508e-26
5.68928e-28
-4.40843e-27
7.77492e-29
4.65392e-31
7.23727e-30
2.40711e-30
4.07438e-31
3.74524e-31
2.36156e-32
6.79164e-32
-3.76606e-31
4.95117e-31
-1.37783e-29
4.83831e-30
-1.53076e-28
3.81396e-29
2.46408e-28
-1.15705e-27
4.11498e-55
-1.63656e-52
2.34598e-49
-8.00225e-47
3.14724e-45
-5.32182e-43
3.75987e-42
-3.75671e-40
1.05603e-39
-6.94968e-38
1.10748e-37
-5.12912e-36
5.60672e-36
-1.90438e-34
1.59901e-34
-4.08185e-33
2.8253e-33
-5.47089e-32
3.28629e-32
-4.78066e-31
2.65337e-31
-2.78412e-30
1.6021e-30
-1.08957e-29
8.0346e-30
-2.72034e-29
3.62734e-29
-5.87312e-30
1.51422e-28
1.79316e-29
5.86061e-28
1.55813e-28
2.1608e-27
9.78422e-28
7.29061e-27
5.19668e-27
2.05602e-26
2.32216e-26
4.4418e-26
8.84556e-26
5.29918e-26
2.88306e-25
-2.43482e-25
8.2239e-25
-2.17728e-24
2.08864e-24
-8.54555e-24
4.74019e-24
-2.54685e-23
9.54175e-24
-6.30954e-23
1.66276e-23
-1.31817e-22
2.3728e-23
-2.30061e-22
2.36516e-23
-3.31098e-22
4.75836e-24
-3.85931e-22
-3.59617e-22
-3.60524e-22
-9.17141e-22
-2.6644e-22
-1.37395e-21
-1.55921e-22
-1.44686e-21
-7.4044e-23
-1.13209e-21
-2.91979e-23
-7.05315e-22
-9.58107e-24
-3.67832e-22
-2.55249e-24
-1.64153e-22
-5.14726e-25
-6.24645e-23
-6.61437e-26
-1.971e-23
-1.48604e-27
-4.94101e-24
6.70877e-27
-9.00662e-25
1.43275e-27
-8.79965e-26
-3.53307e-30
2.69726e-28
-5.7461e-30
1.5716e-28
-3.68155e-30
2.45288e-29
-4.28062e-29
9.28817e-30
-4.49796e-28
7.8212e-29
-3.65749e-27
6.44414e-28
-2.38339e-26
4.28294e-27
2.33812e-26
-1.2765e-25
4.76621e-53
-2.20309e-50
3.36103e-47
-9.2925e-45
3.0521e-43
-4.21757e-41
2.77443e-40
-2.29666e-38
6.37644e-38
-3.51199e-36
5.7354e-36
-2.23907e-34
2.57581e-34
-7.41105e-33
6.69034e-33
-1.45118e-31
1.09933e-31
-1.81189e-30
1.20773e-30
-1.49609e-29
9.28262e-30
-8.28046e-29
5.29453e-29
-3.03954e-28
2.489e-28
-6.79665e-28
1.04521e-27
7.61716e-30
4.02223e-27
6.52908e-28
1.42737e-26
5.01165e-27
4.76307e-26
2.86033e-26
1.41541e-25
1.37414e-25
3.43308e-25
5.61836e-25
5.71744e-25
1.95228e-24
1.24249e-25
5.78583e-24
-8.77337e-24
1.502e-23
-4.17375e-23
3.5013e-23
-1.35039e-22
7.34969e-23
-3.57922e-22
1.37828e-22
-8.14469e-22
2.25665e-22
-1.60546e-21
3.07229e-22
-2.7127e-21
3.05505e-22
-3.90162e-21
1.01412e-22
-4.68597e-21
-2.53426e-21
-4.62227e-21
-7.25622e-21
-3.66992e-21
-1.16408e-20
-2.34569e-21
-1.2875e-20
-1.25134e-21
-1.03465e-20
-5.76132e-22
-6.66098e-21
-2.32677e-22
-3.6417e-21
-8.25283e-23
-1.7241e-21
-2.54804e-23
-6.99179e-22
-6.85184e-24
-2.35642e-22
-1.61738e-24
-6.27807e-23
-3.32463e-25
-1.1737e-23
-5.93432e-26
-9.40719e-25
-8.835e-27
1.51102e-26
-1.04677e-27
5.80537e-27
-5.57546e-28
9.46115e-28
-4.3799e-27
5.59676e-28
-3.29496e-26
4.41253e-27
-2.06562e-25
3.16236e-26
-1.08512e-24
1.83641e-25
8.79568e-25
-4.82513e-24
5.20808e-51
-2.88787e-48
3.19932e-45
-7.3697e-43
1.99227e-41
-2.32249e-39
1.40181e-38
-9.89709e-37
2.66952e-36
-1.2639e-34
2.0778e-34
-7.01115e-33
8.33096e-33
-2.07921e-31
1.98008e-31
-3.73316e-30
3.03785e-30
-4.35574e-29
3.16512e-29
-3.41102e-28
2.32732e-28
-1.80412e-27
1.26319e-27
-6.27901e-27
5.57699e-27
-1.27083e-26
2.17468e-26
4.69795e-28
7.68397e-26
1.61578e-26
2.48825e-25
1.10985e-25
7.50178e-25
5.78047e-25
1.96155e-24
2.52383e-24
4.048e-24
9.49418e-24
4.65376e-24
3.01722e-23
-1.61494e-23
8.13247e-23
-1.37266e-22
1.92422e-22
-5.03619e-22
4.11488e-22
-1.42472e-21
7.98576e-22
-3.42201e-21
1.39343e-21
-7.18871e-21
2.13368e-21
-1.33481e-20
2.74675e-21
-2.17765e-20
2.67915e-21
-3.11537e-20
1.13554e-21
-3.83435e-20
-1.26025e-20
-3.95816e-20
-4.15851e-20
-3.31484e-20
-7.23537e-20
-2.24036e-20
-8.39528e-20
-1.28937e-20
-6.75574e-20
-6.55791e-21
-4.41629e-20
-2.9871e-21
-2.5121e-20
-1.21402e-21
-1.25528e-20
-4.36826e-22
-5.41649e-21
-1.38715e-22
-1.94553e-21
-3.8478e-23
-5.46639e-22
-9.09823e-24
-1.02371e-22
-1.78033e-24
-4.50829e-24
-2.80024e-25
4.10879e-25
-3.46962e-26
1.36382e-25
-2.01463e-26
2.34934e-26
-1.35273e-25
1.59232e-26
-8.70587e-25
1.13337e-25
-4.72294e-24
7.2963e-25
-2.17037e-23
3.81751e-24
1.65195e-23
-8.52595e-23
5.64307e-49
-2.94692e-46
2.1137e-43
-4.16134e-41
9.17339e-40
-9.25386e-38
5.0657e-37
-3.1241e-35
8.07503e-35
-3.36117e-33
5.47929e-33
-1.6326e-31
1.97197e-31
-4.35735e-30
4.30606e-30
-7.1962e-29
6.18876e-29
-7.86635e-28
6.13665e-28
-5.86009e-27
4.33679e-27
-2.97672e-26
2.25864e-26
-9.93014e-26
9.39913e-26
-1.85078e-25
3.40696e-25
1.20181e-26
1.10371e-24
2.87406e-25
3.24846e-24
1.78183e-24
8.81333e-24
8.47269e-24
2.02941e-23
3.38238e-23
3.50644e-23
1.1763e-22
2.04796e-23
3.42717e-22
-2.79453e-22
8.41426e-22
-1.37401e-21
1.81501e-21
-4.25984e-21
3.55691e-21
-1.08012e-20
6.37671e-21
-2.3727e-20
1.03284e-20
-4.6079e-20
1.47107e-20
-8.0223e-20
1.77096e-20
-1.2555e-19
1.65941e-20
-1.77966e-19
8.00167e-21
-2.24203e-19
-4.60201e-20
-2.41633e-19
-1.81936e-19
-2.11046e-19
-3.52792e-19
-1.46866e-19
-4.31389e-19
-8.91454e-20
-3.32787e-19
-4.89762e-20
-2.15366e-19
-2.43948e-20
-1.26589e-19
-1.09403e-20
-6.67651e-20
-4.37661e-21
-3.07474e-20
-1.55218e-21
-1.18044e-20
-4.80222e-22
-3.49461e-21
-1.26576e-22
-6.41811e-22
-2.74597e-23
2.00487e-24
-4.72868e-24
6.92814e-24
-6.3524e-25
2.22019e-24
-3.31257e-25
4.05994e-25
-1.95279e-24
2.48508e-25
-1.13987e-23
1.57558e-24
-5.62163e-23
9.35274e-24
-2.35585e-22
4.5187e-23
1.80776e-22
-8.47286e-22
4.82207e-47
-2.27447e-44
1.00414e-41
-1.72812e-39
3.08238e-38
-2.75171e-36
1.35122e-35
-7.43844e-34
1.81811e-33
-6.794e-32
1.08222e-31
-2.90573e-30
3.51195e-30
-7.00695e-29
7.06865e-29
-1.06719e-27
9.54146e-28
-1.09501e-26
9.02868e-27
-7.77688e-26
6.15653e-26
-3.80959e-25
3.10065e-25
-1.22978e-24
1.22397e-24
-2.16073e-24
4.14007e-24
1.92056e-25
1.23128e-23
3.82587e-24
3.28421e-23
2.15561e-23
7.98581e-23
9.35308e-23
1.61776e-22
3.42802e-22
2.28386e-22
1.10711e-21
-4.17616e-23
2.96819e-21
-2.64017e-21
6.65417e-21
-9.88141e-21
1.30796e-20
-2.68679e-20
2.34673e-20
-6.1846e-20
3.88145e-20
-1.24824e-19
5.81668e-20
-2.24097e-19
7.64778e-20
-3.64218e-19
8.48044e-20
-5.42688e-19
7.42814e-20
-7.63154e-19
3.79184e-20
-9.90602e-19
-1.27091e-19
-1.12191e-18
-6.40902e-19
-1.01511e-18
-1.4538e-18
-7.03006e-19
-1.91255e-18
-4.41414e-19
-1.30691e-18
-2.58488e-19
-8.1053e-19
-1.387e-19
-4.89951e-19
-6.75568e-20
-2.72902e-19
-2.95557e-20
-1.34712e-19
-1.15221e-20
-5.55812e-20
-3.93756e-21
-1.7387e-20
-1.15019e-21
-3.05898e-21
-2.79204e-22
7.3333e-23
-5.37219e-23
8.13524e-23
-7.89253e-24
2.69104e-23
-3.15773e-24
5.26413e-24
-1.59913e-23
2.45961e-24
-8.75669e-23
1.34194e-23
-4.04883e-22
7.50598e-23
-1.59013e-21
3.41749e-22
1.28767e-21
-5.36426e-21
3.14282e-45
-1.31789e-42
3.52252e-40
-5.41221e-38
7.74645e-37
-6.25714e-35
2.72146e-34
-1.36725e-32
3.11248e-32
-1.06732e-30
1.63381e-30
-4.03943e-29
4.79897e-29
-8.83103e-28
8.92644e-28
-1.24296e-26
1.13373e-26
-1.19855e-25
1.02565e-25
-8.1251e-25
6.7681e-25
-3.84934e-24
3.31627e-24
-1.21178e-23
1.2534e-23
-2.06008e-23
3.97938e-23
2.10511e-24
1.09131e-22
3.92425e-23
2.63603e-22
2.02477e-22
5.72557e-22
8.01432e-22
1.01802e-21
2.70537e-21
1.12598e-21
8.13823e-21
-2.17912e-21
2.01746e-20
-1.75058e-20
4.14296e-20
-5.42868e-20
7.41944e-20
-1.31787e-19
1.21872e-19
-2.7717e-19
1.85507e-19
-5.15546e-19
2.55927e-19
-8.56238e-19
3.07776e-19
-1.29768e-18
3.07757e-19
-1.83579e-18
2.4014e-19
-2.60049e-18
1.19902e-19
-3.53552e-18
-2.57539e-19
-4.26465e-18
-1.80684e-18
-4.0155e-18
-5.21248e-18
-2.6157e-18
-8.34007e-18
-1.67126e-18
-4.14083e-18
-1.02893e-18
-2.42675e-18
-5.85771e-19
-1.53335e-18
-3.05889e-19
-9.07375e-19
-1.44976e-19
-4.80769e-19
-6.17102e-20
-2.13106e-19
-2.32418e-20
-7.05442e-20
-7.54536e-21
-1.16433e-20
-2.05601e-21
8.07609e-22
-4.4836e-22
7.12218e-22
-7.36678e-23
2.53552e-22
-2.10016e-23
5.44014e-23
-8.37531e-23
1.79532e-23
-4.4048e-22
7.68263e-23
-1.95411e-21
4.12041e-22
-7.34135e-21
1.79906e-21
6.48379e-21
-2.36552e-20
1.5431e-43
-5.77079e-41
9.29726e-39
-1.30514e-36
1.48146e-35
-1.11021e-33
4.20421e-33
-1.97767e-31
4.1106e-31
-1.32737e-29
1.91132e-29
-4.46503e-28
5.09804e-28
-8.8761e-27
8.78157e-27
-1.1563e-25
1.0507e-25
-1.04833e-24
9.0963e-25
-6.78437e-24
5.81944e-24
-3.11256e-23
2.78597e-23
-9.60957e-23
1.01888e-22
-1.61922e-22
3.05975e-22
1.6102e-23
7.7971e-22
3.16599e-22
1.70979e-21
1.51142e-21
3.31173e-21
5.46315e-21
5.14633e-21
1.70276e-20
4.11562e-21
4.7782e-20
-1.82312e-20
1.10057e-19
-8.86966e-20
2.0783e-19
-2.36924e-19
3.39359e-19
-5.18095e-19
5.11e-19
-9.98393e-19
7.13397e-19
-1.71385e-18
9.00377e-19
-2.63241e-18
9.79135e-19
-3.71459e-18
8.55557e-19
-4.99072e-18
5.2952e-19
-7.28691e-18
1.72131e-19
-1.04027e-17
-4.13635e-19
-1.371e-17
-3.57673e-18
-1.48275e-17
-1.86289e-17
-7.80489e-18
-5.06593e-17
-5.09695e-18
-1.08803e-17
-3.29235e-18
-5.45363e-18
-1.94895e-18
-3.98176e-18
-1.06911e-18
-2.58932e-18
-5.40657e-19
-1.47012e-18
-2.4919e-19
-6.93145e-19
-1.033e-19
-2.41436e-19
-3.74193e-20
-3.67992e-20
-1.14949e-20
5.74258e-21
-2.8553e-21
4.86332e-21
-5.38748e-22
1.90242e-21
-1.15662e-22
4.60483e-22
-3.05538e-22
1.13169e-22
-1.5661e-21
3.1832e-22
-6.79748e-21
1.65442e-21
-2.48474e-20
7.0358e-21
2.45801e-20
-7.76045e-20
5.71034e-42
-1.96576e-39
1.87026e-37
-2.47233e-35
2.18041e-34
-1.56614e-32
5.02962e-32
-2.29084e-30
4.22337e-30
-1.32869e-28
1.74591e-28
-3.98737e-27
4.24031e-27
-7.22484e-26
6.77507e-26
-8.71889e-25
7.64175e-25
-7.42911e-24
6.33233e-24
-4.58466e-23
3.93032e-23
-2.03573e-22
1.84347e-22
-6.18127e-22
6.58762e-22
-1.05313e-21
1.889e-21
8.12867e-23
4.5215e-21
2.03597e-21
9.06171e-21
9.12501e-21
1.56678e-20
3.02201e-20
2.10634e-20
8.68361e-20
1.01342e-20
2.28466e-19
-9.88058e-20
4.9119e-19
-3.58586e-19
8.55617e-19
-8.42453e-19
1.27624e-18
-1.66868e-18
1.7642e-18
-2.94646e-18
2.25377e-18
-4.64402e-18
2.58346e-18
-6.51483e-18
2.49712e-18
-8.28047e-18
1.80763e-18
-1.03288e-17
6.4271e-19
-1.75081e-17
-7.8304e-19
-2.41302e-17
-1.72609e-18
-4.21771e-17
-3.62927e-18
-7.33313e-17
-9.06376e-17
-2.0028e-17
-3.26781e-16
-1.27692e-17
-4.41805e-17
-8.92645e-18
-1.94049e-17
-5.30374e-18
-1.33072e-17
-2.97584e-18
-7.67026e-18
-1.56949e-18
-4.21014e-18
-7.71958e-19
-1.9953e-18
-3.49613e-19
-7.11946e-19
-1.41547e-19
-9.90248e-20
-4.94871e-20
3.00865e-20
-1.41001e-20
2.64954e-20
-3.08649e-21
1.15515e-20
-5.90176e-22
3.18447e-21
-8.35272e-22
6.87268e-22
-4.15582e-21
1.02394e-21
-1.79701e-20
5.11678e-21
-6.49107e-20
2.15029e-20
7.37073e-20
-1.99069e-19
1.62607e-40
-5.34489e-38
2.89416e-36
-3.78124e-34
2.48479e-33
-1.79665e-31
4.67606e-31
-2.16787e-29
3.38185e-29
-1.09037e-27
1.2462e-27
-2.92641e-26
2.76178e-26
-4.83927e-25
4.09812e-25
-5.40868e-24
4.35879e-24
-4.32362e-23
3.456e-23
-2.53713e-22
2.0805e-22
-1.0871e-21
9.57242e-22
-3.24399e-21
3.37379e-21
-5.64073e-21
9.32109e-21
1.91849e-22
2.12221e-20
1.04925e-20
3.93452e-20
4.50675e-20
6.11043e-20
1.37777e-19
7.0214e-20
3.64394e-19
8.74548e-21
9.07167e-19
-4.05493e-19
1.82753e-18
-1.18334e-18
2.93223e-18
-2.48402e-18
3.99563e-18
-4.47519e-18
5.09896e-18
-7.19106e-18
5.95423e-18
-1.03142e-17
6.13117e-18
-1.32827e-17
5.19239e-18
-1.59899e-17
3.0068e-18
-1.9658e-17
9.96194e-20
-2.83734e-17
-4.5641e-18
-5.60034e-17
-1.32733e-17
-1.5379e-16
-1.50475e-17
-3.40056e-16
-3.54325e-16
-1.29193e-16
-7.78554e-16
-6.11294e-17
-1.32803e-16
-2.67253e-17
-4.59912e-17
-1.28158e-17
-3.0152e-17
-6.72026e-18
-1.49758e-17
-3.54436e-18
-8.43316e-18
-1.82438e-18
-4.27227e-18
-8.92529e-19
-1.63368e-18
-4.02577e-19
-2.10857e-19
-1.60782e-19
1.22216e-19
-5.34733e-20
1.14988e-19
-1.37384e-20
5.6821e-20
-2.73875e-21
1.79732e-20
-1.86699e-21
3.96754e-21
-8.54411e-21
2.80074e-21
-3.74786e-20
1.26902e-20
-1.35908e-19
5.34205e-20
1.81782e-19
-4.14523e-19
3.61354e-39
-1.21018e-36
3.48314e-35
-4.91303e-33
2.19696e-32
-1.74238e-30
3.3661e-30
-1.73016e-28
2.09534e-28
-7.54204e-27
6.88533e-27
-1.80906e-25
1.39365e-25
-2.7269e-24
1.9219e-24
-2.81552e-23
1.92769e-23
-2.10261e-22
1.46164e-22
-1.16653e-21
8.5275e-22
-4.79127e-21
3.84966e-21
-1.39743e-20
1.34444e-20
-2.47674e-20
3.63376e-20
-2.72506e-21
7.95415e-20
4.32856e-20
1.38927e-19
1.83205e-19
1.96008e-19
5.23547e-19
1.90033e-19
1.2745e-18
-9.92946e-20
3.0519e-18
-1.3363e-18
5.82246e-18
-3.23997e-18
8.45841e-18
-6.16342e-18
1.05247e-17
-1.00681e-17
1.25263e-17
-1.44675e-17
1.32939e-17
-1.84763e-17
1.20767e-17
-2.13408e-17
8.81028e-18
-2.35108e-17
4.15107e-18
-3.14087e-17
-9.46772e-19
-7.17274e-17
-1.20273e-17
-1.77595e-16
-4.02898e-17
-8.5945e-16
-1.22945e-16
-9.02156e-16
-4.75987e-16
-1.07064e-15
-9.53511e-16
-8.20212e-17
-3.26589e-16
-3.18257e-17
-1.71255e-16
-1.46314e-17
-4.48936e-17
-8.32784e-18
-1.70827e-17
-5.02565e-18
-1.03715e-17
-2.92299e-18
-6.08927e-18
-1.6021e-18
-2.67972e-18
-8.18698e-19
-3.22129e-19
-3.78451e-19
3.86434e-19
-1.49032e-19
3.94371e-19
-4.6223e-20
2.22276e-19
-1.05885e-20
8.22067e-20
-3.8866e-21
2.02732e-20
-1.39231e-20
7.51605e-21
-6.30872e-20
2.60747e-20
-2.33918e-19
1.11181e-19
3.80205e-19
-7.19781e-19
6.42203e-38
-2.34069e-35
3.33094e-34
-5.71033e-32
1.5049e-31
-1.51196e-29
1.8443e-29
-1.22967e-27
9.77606e-28
-4.61481e-26
2.84807e-26
-9.82501e-25
5.25448e-25
-1.34096e-23
6.73439e-24
-1.27033e-22
6.37427e-23
-8.78818e-22
4.6249e-22
-4.56319e-21
2.61573e-21
-1.77515e-20
1.15978e-20
-4.99714e-20
4.02564e-20
-8.92435e-20
1.08441e-19
-3.11006e-20
2.31181e-19
1.42091e-19
3.8853e-19
6.11134e-19
5.08333e-19
1.66629e-18
3.94752e-19
3.76404e-18
-6.62832e-19
8.91728e-18
-3.58177e-18
1.654e-17
-7.52803e-18
2.059e-17
-1.32091e-17
2.38251e-17
-1.89895e-17
2.64327e-17
-2.37777e-17
2.51536e-17
-2.66503e-17
1.95795e-17
-2.88603e-17
1.24055e-17
-3.43258e-17
5.39564e-18
-6.09624e-17
-9.59772e-19
-1.18935e-16
-6.78546e-18
9.90544e-18
-1.78787e-17
-1.28666e-15
-3.04679e-16
-1.08927e-15
-9.94699e-16
-1.56035e-15
-8.28369e-16
-1.69689e-16
-1.43621e-15
-4.87844e-18
-8.65271e-17
-4.97183e-18
-4.19508e-17
-4.90948e-18
-1.74807e-17
-4.05172e-18
-1.09941e-17
-2.89281e-18
-7.28502e-18
-1.84133e-18
-3.68692e-18
-1.08632e-18
-4.22197e-19
-5.94661e-19
9.27828e-19
-2.84903e-19
1.06002e-18
-1.09692e-19
6.88531e-19
-3.11408e-20
2.9966e-19
-8.42462e-21
8.72257e-20
-1.81559e-20
2.28231e-20
-8.61974e-20
4.58526e-20
-3.34946e-19
1.982e-19
6.90504e-19
-1.05936e-18
9.07763e-37
-3.65198e-34
2.49497e-33
-5.78319e-31
7.6089e-31
-1.16879e-28
7.04138e-29
-7.8719e-27
3.03606e-27
-2.55785e-25
7.62502e-26
-4.84514e-24
1.26929e-24
-5.98163e-23
1.51755e-23
-5.17371e-22
1.37094e-22
-3.28674e-21
9.65601e-22
-1.57505e-20
5.36913e-21
-5.70316e-20
2.36901e-20
-1.51855e-19
8.28625e-20
-2.66829e-19
2.27632e-19
-1.45344e-19
4.86539e-19
3.66421e-19
8.07729e-19
1.65708e-18
1.02681e-18
4.38487e-18
6.27928e-19
9.34519e-18
-2.61695e-18
1.2143e-17
-7.94083e-18
4.18555e-17
-1.39821e-17
4.14052e-17
-1.93245e-17
4.50098e-17
-3.06954e-17
3.81827e-17
-3.06849e-17
3.92122e-17
-2.70977e-17
2.46503e-17
-3.13651e-17
1.94503e-17
-3.14383e-17
4.9227e-18
-3.55204e-17
-3.79593e-18
-6.35962e-17
-1.01013e-17
-1.36331e-16
-1.83162e-17
-6.73831e-16
-5.24743e-17
-6.06917e-16
-1.28961e-16
-1.04477e-15
-4.38699e-16
-7.46093e-17
-1.96251e-16
-3.01518e-17
-5.88721e-17
-9.4384e-18
-2.97152e-17
-4.58908e-18
-1.75627e-17
-3.06224e-18
-1.22226e-17
-2.02639e-18
-8.94745e-18
-1.19892e-18
-5.13551e-18
-6.95533e-19
-7.80019e-19
-4.55169e-19
1.73576e-18
-2.92673e-19
2.30114e-18
-1.54436e-19
1.72814e-18
-5.95944e-20
8.84112e-19
-1.72028e-20
3.07628e-19
-1.89017e-20
7.74015e-20
-9.34607e-20
7.29308e-20
-3.96115e-19
3.07248e-19
1.10795e-18
-1.32542e-18
8.99773e-36
-4.26169e-33
1.13395e-32
-4.71659e-30
1.61327e-30
-7.50959e-28
5.29117e-29
-4.26059e-26
-4.70051e-28
-1.21274e-24
-2.9878e-25
-2.06133e-23
-3.80618e-24
-2.31777e-22
-1.8805e-23
-1.84149e-21
6.50579e-24
-1.07921e-20
2.86399e-22
-4.77733e-20
2.80182e-21
-1.60236e-19
1.69321e-20
-3.9806e-19
7.30603e-20
-6.70018e-19
2.35228e-19
-4.52776e-19
5.71652e-19
7.29964e-19
1.02025e-18
3.60207e-18
1.33717e-18
9.42476e-18
3.20158e-19
1.21964e-17
-6.05407e-18
6.21309e-17
-1.24313e-17
8.07714e-17
-2.22247e-17
6.05579e-17
-2.12971e-17
7.45383e-17
-4.27567e-17
6.08348e-17
-4.2444e-17
4.96485e-17
-4.38213e-17
3.01223e-17
-2.96795e-17
2.39717e-17
-2.85698e-17
4.05304e-18
-2.54444e-17
-7.55954e-18
-2.34987e-17
-1.60372e-17
-3.47689e-17
-2.24544e-17
-9.47395e-17
-3.05192e-17
-1.89511e-16
-4.00549e-17
-5.93496e-17
-5.26719e-17
-2.81685e-17
-6.64696e-17
-1.16015e-17
-4.03839e-17
-5.2943e-18
-2.26809e-17
-2.08243e-18
-1.86432e-17
-9.00263e-19
-1.37358e-17
-1.70954e-19
-1.0833e-17
8.41965e-19
-7.3684e-18
1.36541e-18
-1.86386e-18
1.06158e-18
2.62297e-18
5.09013e-19
4.17784e-18
9.28436e-20
3.61346e-18
-2.56204e-20
2.15912e-18
-1.87866e-20
8.97937e-19
-1.44805e-20
2.5409e-19
-7.29249e-20
1.18687e-19
-3.68707e-19
4.18203e-19
1.58839e-18
-1.38158e-18
4.55763e-35
-3.55314e-32
-2.4654e-30
-2.94436e-29
-8.32235e-28
-3.83941e-27
-4.88741e-26
-1.87385e-25
-1.30548e-24
-4.72931e-24
-2.02739e-23
-7.26445e-23
-2.07267e-22
-7.46852e-22
-1.50389e-21
-5.46142e-21
-8.12022e-21
-2.95473e-20
-3.35425e-20
-1.20881e-19
-1.07673e-19
-3.75334e-19
-2.70158e-19
-8.66977e-19
-5.27154e-19
-1.37897e-18
-7.77132e-19
-1.00123e-18
-7.8492e-19
1.18163e-18
-3.2319e-19
6.16842e-18
2.13672e-19
1.62666e-17
-9.18223e-19
2.7398e-17
-7.41704e-18
7.93228e-17
-1.42935e-17
1.04311e-16
-2.66822e-17
6.77817e-17
-5.86176e-17
1.11502e-16
-6.09058e-17
1.99096e-16
-4.11767e-17
4.49998e-17
-3.41123e-17
2.73284e-17
-1.92818e-17
1.24066e-17
-2.04586e-17
5.32197e-19
-1.70842e-17
-1.14804e-17
-1.53778e-17
-1.982e-17
-1.53184e-17
-2.68413e-17
-2.56793e-17
-3.046e-17
-3.10645e-17
-2.87161e-17
-2.95013e-18
-3.29578e-17
-4.22064e-18
-3.91427e-17
-1.92496e-18
-4.06798e-17
3.70298e-18
-2.95377e-17
3.38269e-18
-1.87715e-17
2.51364e-18
-1.4869e-17
2.76954e-18
-1.43637e-17
4.72609e-18
-1.28058e-17
5.88012e-18
-4.65971e-18
5.11036e-18
3.22986e-18
3.6051e-18
6.45498e-18
2.0607e-18
6.38691e-18
8.75124e-19
4.44023e-18
2.29014e-19
2.20817e-18
1.70973e-20
7.48577e-19
-2.21765e-20
2.34041e-19
-2.20597e-19
5.06576e-19
2.04375e-18
-1.10645e-18
-4.32056e-32
-2.13175e-31
-8.09438e-29
-1.39152e-28
-9.61718e-27
-1.52717e-26
-4.17193e-25
-6.51913e-25
-9.39107e-24
-1.47358e-23
-1.29863e-22
-2.05669e-22
-1.21902e-21
-1.9382e-21
-8.28949e-21
-1.30505e-20
-4.26498e-20
-6.50876e-20
-1.70826e-19
-2.45208e-19
-5.4303e-19
-6.99634e-19
-1.38918e-18
-1.48034e-18
-2.89214e-18
-2.14709e-18
-4.95044e-18
-1.40014e-18
-6.96547e-18
1.86625e-18
-7.96027e-18
8.92128e-18
-6.27935e-18
2.20802e-17
-3.74885e-18
4.22214e-17
-4.00151e-18
1.54559e-16
-4.37899e-17
1.1744e-16
-1.50537e-17
2.015e-15
-5.61017e-17
1.29155e-16
-3.70836e-17
1.52704e-16
-1.91475e-17
6.01109e-17
-1.14227e-17
2.2957e-17
-6.6604e-18
7.78935e-18
-3.56262e-18
-2.70166e-18
-3.40172e-18
-1.24361e-17
-4.64832e-18
-2.05514e-17
-6.06973e-18
-2.96548e-17
-6.92594e-18
-3.08329e-17
-8.09229e-19
-3.93509e-17
7.8637e-18
-4.06081e-17
1.14827e-17
-4.64401e-17
9.75181e-18
-4.4805e-17
1.2676e-17
-4.29452e-17
8.78538e-18
-2.43154e-17
6.50966e-18
-1.84142e-17
7.36638e-18
-3.09727e-17
1.21771e-17
-3.91257e-17
1.36804e-17
-1.54473e-17
1.17563e-17
3.35783e-18
9.30157e-18
8.63713e-18
6.51233e-18
9.56968e-18
3.67429e-18
7.73185e-18
1.50955e-18
4.60455e-18
4.02404e-19
1.91758e-18
6.32653e-20
5.79793e-19
1.09768e-20
5.77058e-19
2.35471e-18
-4.46572e-19
-1.10564e-30
-9.07815e-31
-5.92022e-28
-4.88144e-28
-5.46089e-26
-4.62199e-26
-2.03263e-24
-1.75148e-24
-4.08061e-23
-3.58132e-23
-5.13892e-22
-4.57561e-22
-4.44987e-21
-3.97258e-21
-2.8147e-20
-2.46978e-20
-1.35572e-19
-1.13582e-19
-5.11779e-19
-3.92634e-19
-1.54602e-18
-1.01776e-18
-3.80522e-18
-1.91396e-18
-7.7902e-18
-2.30533e-18
-1.368e-17
-5.4e-19
-2.14972e-17
4.13114e-18
-3.22354e-17
1.38916e-17
-4.99588e-17
3.3713e-17
-7.28835e-17
8.28865e-17
-4.13268e-17
2.48809e-16
6.50573e-17
3.17854e-15
-2.49751e-16
2.99574e-15
-1.09442e-17
2.85666e-15
1.21287e-17
9.9517e-17
2.44365e-17
5.20537e-17
2.08754e-17
2.28347e-17
1.74137e-17
8.88767e-18
1.46383e-17
-1.29605e-18
1.18122e-17
-1.05702e-17
1.01606e-17
-1.89634e-17
7.56091e-18
-2.71021e-17
5.07413e-18
-2.07367e-17
1.03294e-17
-5.56471e-17
1.79173e-17
-5.96326e-17
2.2166e-17
-6.28867e-17
2.45034e-17
-6.19471e-17
2.73413e-17
-5.43876e-17
2.21924e-17
-3.75406e-17
1.97064e-17
-1.46903e-17
2.82159e-17
-1.03353e-16
4.37343e-17
-2.74849e-16
3.95976e-17
-6.00894e-17
2.41493e-17
4.79101e-18
1.81405e-17
1.04614e-17
1.43691e-17
1.18866e-17
9.68108e-18
1.13459e-17
4.97471e-18
8.24237e-18
1.7946e-18
4.2454e-18
4.23678e-19
1.49769e-18
1.26137e-19
7.48875e-19
2.45111e-18
1.68984e-19
-6.84921e-30
-2.76418e-30
-2.59e-27
-1.27008e-27
-2.04417e-25
-1.06219e-25
-6.79176e-24
-3.63269e-24
-1.24147e-22
-6.80778e-23
-1.43971e-21
-8.04402e-22
-1.1559e-20
-6.48385e-21
-6.80813e-20
-3.74061e-20
-3.06304e-19
-1.58821e-19
-1.08373e-18
-5.00972e-19
-3.08387e-18
-1.15524e-18
-7.21911e-18
-1.80254e-18
-1.43662e-17
-1.24896e-18
-2.56165e-17
2.13116e-18
-4.45013e-17
1.04288e-17
-8.42632e-17
2.74986e-17
-1.95664e-16
6.39196e-17
-4.84817e-16
1.69231e-16
-7.61832e-16
5.36818e-16
-1.79927e-15
4.26078e-15
1.46937e-15
-2.15913e-16
7.05146e-16
3.66249e-15
1.96493e-16
1.45133e-16
1.11378e-16
7.90175e-17
6.9792e-17
4.29862e-17
4.59289e-17
2.07264e-17
3.30046e-17
5.83286e-18
2.56978e-17
-5.36337e-18
2.51933e-17
-1.46557e-17
5.46963e-17
-2.73663e-17
3.10106e-17
-3.71177e-17
2.82715e-17
-6.54321e-17
3.06562e-17
-7.70733e-17
3.2247e-17
-7.19647e-17
3.6312e-17
-6.57824e-17
4.50617e-17
-5.71319e-17
6.73838e-17
-4.24514e-17
6.38853e-17
4.02474e-19
2.2037e-16
-1.80081e-16
3.02655e-16
-6.97876e-16
1.24348e-16
-2.42466e-16
7.07209e-17
1.46843e-17
4.05306e-17
1.13534e-17
2.88953e-17
1.21594e-17
2.0713e-17
1.40937e-17
1.23661e-17
1.27144e-17
5.52396e-18
8.18373e-18
1.70789e-18
3.60791e-18
4.32956e-19
1.3374e-18
2.39836e-18
4.89474e-19
-2.45291e-29
-6.18905e-30
-7.69473e-27
-2.50617e-27
-5.44722e-25
-1.89005e-25
-1.6585e-23
-5.92488e-24
-2.80656e-22
-1.03029e-22
-3.03001e-21
-1.13823e-21
-2.27135e-20
-8.59846e-21
-1.2504e-19
-4.63695e-20
-5.25688e-19
-1.82445e-19
-1.73664e-18
-5.22997e-19
-4.61178e-18
-1.04464e-18
-1.00831e-17
-1.17768e-18
-1.88088e-17
4.97438e-19
-3.19325e-17
5.86904e-18
-5.46727e-17
1.77762e-17
-1.05333e-16
4.15713e-17
-2.2949e-16
9.44526e-17
-4.46582e-16
1.95628e-16
-4.51364e-16
2.92223e-16
8.75394e-17
2.19237e-15
4.19385e-16
-1.27456e-15
9.7736e-16
1.83409e-16
2.93774e-16
2.19334e-16
1.32644e-16
1.85131e-16
9.73455e-17
6.93906e-17
6.53067e-17
3.82655e-17
4.55886e-17
1.62983e-17
3.59782e-17
1.41671e-18
3.29449e-17
-1.0861e-17
4.02579e-17
-1.82944e-17
3.5264e-17
-4.46968e-17
4.48437e-17
-7.95919e-17
4.27314e-17
-9.07942e-17
3.66983e-17
-7.83053e-17
3.45626e-17
-6.91481e-17
4.02634e-17
-6.82411e-17
5.58084e-17
-7.4063e-17
1.52649e-15
-1.8021e-16
1.58144e-15
-3.01967e-16
1.37224e-15
-7.10279e-16
4.57736e-16
-5.67469e-16
2.33837e-16
1.66964e-17
1.20828e-16
2.75349e-18
6.71448e-17
1.07138e-17
4.20853e-17
1.62293e-17
2.61704e-17
1.76203e-17
1.3596e-17
1.38914e-17
5.24348e-18
7.68348e-18
1.47187e-18
3.03723e-18
2.47065e-18
8.37873e-19
-5.85951e-29
-1.0524e-29
-1.65218e-26
-3.84913e-27
-1.0859e-24
-2.6584e-25
-3.09522e-23
-7.73504e-24
-4.92378e-22
-1.26334e-22
-5.00648e-21
-1.32007e-21
-3.53556e-20
-9.44665e-21
-1.83147e-19
-4.80577e-20
-7.22577e-19
-1.76271e-19
-2.23115e-18
-4.58355e-19
-5.51387e-18
-7.67099e-19
-1.11942e-17
-4.10495e-19
-1.95614e-17
1.97797e-18
-3.19899e-17
8.45158e-18
-5.358e-17
2.2169e-17
-9.24613e-17
5.09717e-17
-1.48033e-16
1.12252e-16
-2.1059e-16
2.49366e-16
1.43903e-16
1.10678e-16
1.89364e-15
1.54901e-15
6.92779e-17
-9.91369e-18
9.13317e-16
-7.84449e-16
1.67964e-16
2.33238e-16
9.07555e-17