/*--------------------------------*- C++ -*----------------------------------*\
| =========                 |                                                 |
| \\      /  F ield         | OpenFOAM: The Open Source CFD Toolbox           |
|  \\    /   O peration     | Version:  2.4.0                                 |
|   \\  /    A nd           | Web:      www.OpenFOAM.org                      |
|    \\/     M anipulation  |                                                 |
\*---------------------------------------------------------------------------*/
FoamFile
{
    version     2.0;
    format      ascii;
    class       volVectorField;
    location    "0.3";
    object      U;
}
// * * * * * * * * * * * * * * * * * * * * * * * * * * * * * * * * * * * * * //

dimensions      [0 1 -1 0 0 0 0];

internalField   nonuniform List<vector> 
10000
(
(9.04841e-08 -3.40768e-08 0)
(1.78643e-06 -5.63672e-07 0)
(5.88447e-06 -1.21941e-06 0)
(1.2198e-05 -1.72836e-06 0)
(2.02187e-05 -2.08443e-06 0)
(2.94578e-05 -2.33092e-06 0)
(3.95556e-05 -2.49433e-06 0)
(5.01825e-05 -2.589e-06 0)
(6.10306e-05 -2.62214e-06 0)
(7.18145e-05 -2.59921e-06 0)
(8.22756e-05 -2.52703e-06 0)
(9.21913e-05 -2.4148e-06 0)
(0.000101386 -2.27396e-06 0)
(0.000109741 -2.11741e-06 0)
(0.000117206 -1.9588e-06 0)
(0.000123794 -1.81182e-06 0)
(0.000129588 -1.68923e-06 0)
(0.000134728 -1.60188e-06 0)
(0.000139398 -1.5577e-06 0)
(0.00014381 -1.56052e-06 0)
(0.000148183 -1.6091e-06 0)
(0.000152718 -1.69691e-06 0)
(0.000157582 -1.81283e-06 0)
(0.000162886 -1.94271e-06 0)
(0.00016868 -2.07177e-06 0)
(0.000174954 -2.18765e-06 0)
(0.000181655 -2.2832e-06 0)
(0.00018871 -2.35819e-06 0)
(0.000196056 -2.41923e-06 0)
(0.000203664 -2.47722e-06 0)
(0.000211548 -2.54319e-06 0)
(0.000219761 -2.62486e-06 0)
(0.000228384 -2.72645e-06 0)
(0.000237507 -2.85246e-06 0)
(0.000247239 -3.00641e-06 0)
(0.000257672 -3.17995e-06 0)
(0.000268843 -3.35808e-06 0)
(0.00028072 -3.52318e-06 0)
(0.000293198 -3.65891e-06 0)
(0.00030611 -3.7528e-06 0)
(0.000319249 -3.79749e-06 0)
(0.000332386 -3.79063e-06 0)
(0.000345293 -3.73404e-06 0)
(0.000357755 -3.63242e-06 0)
(0.000369585 -3.49202e-06 0)
(0.000380628 -3.3194e-06 0)
(0.000390762 -3.12074e-06 0)
(0.000399898 -2.90172e-06 0)
(0.000407976 -2.66742e-06 0)
(0.00041496 -2.42229e-06 0)
(4.481e-07 -1.48549e-06 0)
(5.02939e-06 -5.31527e-06 0)
(1.48472e-05 -9.74117e-06 0)
(2.93641e-05 -1.33975e-05 0)
(4.75661e-05 -1.61706e-05 0)
(6.85181e-05 -1.81732e-05 0)
(9.14161e-05 -1.94987e-05 0)
(0.000115487 -2.02062e-05 0)
(0.000139979 -2.03377e-05 0)
(0.000164174 -1.99367e-05 0)
(0.000187411 -1.90622e-05 0)
(0.000209115 -1.77951e-05 0)
(0.00022883 -1.62378e-05 0)
(0.000246242 -1.45096e-05 0)
(0.000261203 -1.274e-05 0)
(0.000273735 -1.10603e-05 0)
(0.000284029 -9.59286e-06 0)
(0.000292427 -8.44123e-06 0)
(0.000299387 -7.67944e-06 0)
(0.000305445 -7.343e-06 0)
(0.000311158 -7.42335e-06 0)
(0.000317048 -7.86799e-06 0)
(0.000323552 -8.58737e-06 0)
(0.000330978 -9.46829e-06 0)
(0.000339486 -1.03931e-05 0)
(0.000349095 -1.12618e-05 0)
(0.000359715 -1.20133e-05 0)
(0.000371205 -1.26385e-05 0)
(0.000383442 -1.318e-05 0)
(0.00039638 -1.37144e-05 0)
(0.000410073 -1.43217e-05 0)
(0.000424661 -1.50611e-05 0)
(0.000440326 -1.59659e-05 0)
(0.000457279 -1.70622e-05 0)
(0.000475755 -1.83551e-05 0)
(0.000495946 -1.97729e-05 0)
(0.00051791 -2.11929e-05 0)
(0.000541534 -2.2474e-05 0)
(0.000566531 -2.34868e-05 0)
(0.000592472 -2.41333e-05 0)
(0.000618839 -2.43553e-05 0)
(0.000645066 -2.4134e-05 0)
(0.000670593 -2.34845e-05 0)
(0.0006949 -2.24464e-05 0)
(0.000717531 -2.10749e-05 0)
(0.000738113 -1.94329e-05 0)
(0.000756358 -1.75841e-05 0)
(0.000772061 -1.55889e-05 0)
(0.000785092 -1.35007e-05 0)
(0.000795384 -1.13639e-05 0)
(1.0174e-06 -5.09565e-06 0)
(9.23958e-06 -1.52404e-05 0)
(2.47153e-05 -2.54192e-05 0)
(4.64032e-05 -3.38762e-05 0)
(7.29401e-05 -4.04362e-05 0)
(0.000103147 -4.52493e-05 0)
(0.000135939 -4.84292e-05 0)
(0.000170237 -5.0052e-05 0)
(0.000204964 -5.0189e-05 0)
(0.000239074 -4.8937e-05 0)
(0.000271596 -4.64406e-05 0)
(0.000301675 -4.29044e-05 0)
(0.000328625 -3.85913e-05 0)
(0.000351971 -3.38115e-05 0)
(0.000371477 -2.8904e-05 0)
(0.000387163 -2.42138e-05 0)
(0.0003993 -2.00647e-05 0)
(0.000408388 -1.67318e-05 0)
(0.000415108 -1.44138e-05 0)
(0.000420262 -1.32098e-05 0)
(0.000424695 -1.31056e-05 0)
(0.000429204 -1.39738e-05 0)
(0.000434466 -1.55915e-05 0)
(0.000440969 -1.76742e-05 0)
(0.000448978 -1.99237e-05 0)
(0.000458547 -2.20836e-05 0)
(0.000469559 -2.39931e-05 0)
(0.000481817 -2.56215e-05 0)
(0.000495151 -2.7069e-05 0)
(0.000509509 -2.85217e-05 0)
(0.000524997 -3.01729e-05 0)
(0.00054184 -3.21566e-05 0)
(0.000560299 -3.45373e-05 0)
(0.000580646 -3.7367e-05 0)
(0.000603211 -4.0656e-05 0)
(0.000628272 -4.42106e-05 0)
(0.000655877 -4.77134e-05 0)
(0.000685809 -5.08081e-05 0)
(0.000717593 -5.31744e-05 0)
(0.000750556 -5.45739e-05 0)
(0.000783905 -5.48693e-05 0)
(0.000816796 -5.40218e-05 0)
(0.000848405 -5.2076e-05 0)
(0.000877974 -4.9138e-05 0)
(0.000904849 -4.53538e-05 0)
(0.000928499 -4.0889e-05 0)
(0.000948519 -3.59137e-05 0)
(0.000964628 -3.05892e-05 0)
(0.000976659 -2.50592e-05 0)
(0.00098454 -1.94427e-05 0)
(1.46186e-06 -1.07268e-05 0)
(1.27599e-05 -2.96309e-05 0)
(3.30998e-05 -4.71227e-05 0)
(6.08249e-05 -6.15125e-05 0)
(9.41976e-05 -7.27209e-05 0)
(0.000131816 -8.09613e-05 0)
(0.000172382 -8.63549e-05 0)
(0.000214572 -8.89733e-05 0)
(0.000257058 -8.89031e-05 0)
(0.000298533 -8.62951e-05 0)
(0.00033777 -8.13989e-05 0)
(0.000373685 -7.45792e-05 0)
(0.000405397 -6.63119e-05 0)
(0.000432286 -5.71628e-05 0)
(0.000454038 -4.77549e-05 0)
(0.000470663 -3.87256e-05 0)
(0.000482495 -3.06776e-05 0)
(0.000490172 -2.41266e-05 0)
(0.000494575 -1.94505e-05 0)
(0.000496755 -1.6845e-05 0)
(0.000497824 -1.62968e-05 0)
(0.000498848 -1.75822e-05 0)
(0.000500733 -2.02982e-05 0)
(0.000504139 -2.39237e-05 0)
(0.000509431 -2.79058e-05 0)
(0.000516675 -3.17631e-05 0)
(0.000525703 -3.51879e-05 0)
(0.000536229 -3.81171e-05 0)
(0.00054801 -4.07389e-05 0)
(0.000560989 -4.34084e-05 0)
(0.000575358 -4.64827e-05 0)
(0.000591465 -5.01797e-05 0)
(0.000609643 -5.45636e-05 0)
(0.000630184 -5.97188e-05 0)
(0.000653531 -6.57068e-05 0)
(0.000680091 -7.21394e-05 0)
(0.000709901 -7.8402e-05 0)
(0.000742604 -8.38285e-05 0)
(0.000777501 -8.78398e-05 0)
(0.000813652 -9.00201e-05 0)
(0.000849983 -9.01432e-05 0)
(0.000885388 -8.81625e-05 0)
(0.00091881 -8.4179e-05 0)
(0.000949301 -7.84015e-05 0)
(0.000976056 -7.11066e-05 0)
(0.000998432 -6.26046e-05 0)
(0.00101595 -5.3211e-05 0)
(0.00102829 -4.32246e-05 0)
(0.00103528 -3.29108e-05 0)
(0.00103686 -2.24892e-05 0)
(1.77481e-06 -1.79815e-05 0)
(1.55312e-05 -4.76946e-05 0)
(3.99941e-05 -7.38111e-05 0)
(7.29242e-05 -9.5005e-05 0)
(0.000112179 -0.000111454 0)
(0.000156109 -0.000123488 0)
(0.000203203 -0.000131245 0)
(0.000251928 -0.000134785 0)
(0.000300728 -0.000134199 0)
(0.000348071 -0.000129692 0)
(0.000392507 -0.000121629 0)
(0.000432746 -0.00011056 0)
(0.000467727 -9.72133e-05 0)
(0.000496695 -8.24619e-05 0)
(0.000519252 -6.72753e-05 0)
(0.000535392 -5.26525e-05 0)
(0.000545507 -3.95462e-05 0)
(0.00055036 -2.87804e-05 0)
(0.000551032 -2.09684e-05 0)
(0.000548824 -1.64404e-05 0)
(0.000545132 -1.5195e-05 0)
(0.000541304 -1.68937e-05 0)
(0.000538488 -2.09065e-05 0)
(0.000537525 -2.64055e-05 0)
(0.000538869 -3.24993e-05 0)
(0.000542573 -3.83984e-05 0)
(0.00054836 -4.35882e-05 0)
(0.000555783 -4.79625e-05 0)
(0.000564459 -5.1851e-05 0)
(0.000574318 -5.58802e-05 0)
(0.000585699 -6.06535e-05 0)
(0.000599174 -6.64653e-05 0)
(0.000615154 -7.3278e-05 0)
(0.000633853 -8.12204e-05 0)
(0.000655897 -9.05628e-05 0)
(0.000681962 -0.000100596 0)
(0.000712068 -0.000110254 0)
(0.000745657 -0.000118443 0)
(0.000781734 -0.00012426 0)
(0.000819029 -0.000127091 0)
(0.000856154 -0.000126635 0)
(0.000891732 -0.000122871 0)
(0.000924487 -0.000116001 0)
(0.000953309 -0.000106383 0)
(0.000977278 -9.44666e-05 0)
(0.000995679 -8.07469e-05 0)
(0.001008 -6.57187e-05 0)
(0.00101391 -4.9847e-05 0)
(0.00101326 -3.35421e-05 0)
(0.00100602 -1.71427e-05 0)
(2.01081e-06 -2.65327e-05 0)
(1.78039e-05 -6.88792e-05 0)
(4.58661e-05 -0.000104863 0)
(8.34623e-05 -0.000133682 0)
(0.000128051 -0.000155895 0)
(0.000177715 -0.000172009 0)
(0.00023072 -0.0001822 0)
(0.000285318 -0.00018652 0)
(0.000339741 -0.000185064 0)
(0.00039224 -0.000178088 0)
(0.000441154 -0.000166083 0)
(0.000484988 -0.000149801 0)
(0.000522504 -0.000130256 0)
(0.000552804 -0.000108674 0)
(0.000575396 -8.6428e-05 0)
(0.000590246 -6.49459e-05 0)
(0.00059779 -4.56043e-05 0)
(0.00059892 -2.96092e-05 0)
(0.000594922 -1.78755e-05 0)
(0.000587375 -1.09152e-05 0)
(0.000577994 -8.75729e-06 0)
(0.000568449 -1.09294e-05 0)
(0.000560172 -1.65206e-05 0)
(0.00055421 -2.43126e-05 0)
(0.000551112 -3.29679e-05 0)
(0.000550889 -4.12734e-05 0)
(0.000553078 -4.84171e-05 0)
(0.000556946 -5.42282e-05 0)
(0.000561847 -5.92665e-05 0)
(0.000567657 -6.46203e-05 0)
(0.00057498 -7.13014e-05 0)
(0.000584824 -7.96538e-05 0)
(0.000597683 -8.92666e-05 0)
(0.000613433 -0.000100333 0)
(0.000633031 -0.000113779 0)
(0.000657739 -0.000128291 0)
(0.000687514 -0.000142094 0)
(0.000721486 -0.000153503 0)
(0.000758236 -0.000161228 0)
(0.000796076 -0.000164458 0)
(0.000833244 -0.000162861 0)
(0.000868071 -0.000156505 0)
(0.00089907 -0.000145757 0)
(0.000924991 -0.000131182 0)
(0.000944834 -0.000113458 0)
(0.00095785 -9.33004e-05 0)
(0.000963523 -7.1414e-05 0)
(0.000961547 -4.8453e-05 0)
(0.000951802 -2.49902e-05 0)
(0.000934319 -1.49523e-06 0)
(2.20094e-06 -3.61443e-05 0)
(1.97682e-05 -9.27896e-05 0)
(5.10887e-05 -0.000139865 0)
(9.3013e-05 -0.00017715 0)
(0.000142634 -0.000205667 0)
(0.00019776 -0.000226152 0)
(0.000256425 -0.000238845 0)
(0.000316664 -0.000243798 0)
(0.00037649 -0.000241111 0)
(0.000433939 -0.000231093 0)
(0.00048713 -0.000214363 0)
(0.000534356 -0.000191894 0)
(0.000574184 -0.000165009 0)
(0.000605552 -0.000135328 0)
(0.000627855 -0.000104686 0)
(0.000641008 -7.50102e-05 0)
(0.000645477 -4.8182e-05 0)
(0.000642278 -2.58752e-05 0)
(0.000632919 -9.38979e-06 0)
(0.000619296 5.13569e-07 0)
(0.000603509 3.7478e-06 0)
(0.000587615 9.37332e-07 0)
(0.000573396 -6.66411e-06 0)
(0.00056216 -1.73472e-05 0)
(0.000554586 -2.91875e-05 0)
(0.000550632 -4.0381e-05 0)
(0.000549555 -4.96658e-05 0)
(0.000550153 -5.67463e-05 0)
(0.00055128 -6.25391e-05 0)
(0.000552646 -6.89462e-05 0)
(0.000555308 -7.77237e-05 0)
(0.000561177 -8.92279e-05 0)
(0.000570845 -0.000101981 0)
(0.000583146 -0.000116245 0)
(0.000599687 -0.0001348 0)
(0.00062301 -0.000155022 0)
(0.000652835 -0.000173959 0)
(0.000687744 -0.000189136 0)
(0.00072572 -0.00019883 0)
(0.00076453 -0.000202081 0)
(0.000801983 -0.000198609 0)
(0.000836093 -0.000188669 0)
(0.000865175 -0.000172884 0)
(0.000887871 -0.000152103 0)
(0.00090314 -0.000127281 0)
(0.000910231 -9.93951e-05 0)
(0.000908657 -6.93851e-05 0)
(0.000898159 -3.81106e-05 0)
(0.00087867 -6.31831e-06 0)
(0.000850291 2.53807e-05 0)
(2.36347e-06 -4.66842e-05 0)
(2.15409e-05 -0.000119176 0)
(5.59006e-05 -0.000178552 0)
(0.000101942 -0.00022518 0)
(0.000156432 -0.000260588 0)
(0.000216918 -0.000285783 0)
(0.000281201 -0.00030109 0)
(0.000347094 -0.000306567 0)
(0.000412391 -0.000302321 0)
(0.0004749 -0.000288711 0)
(0.000532507 -0.000266483 0)
(0.000583273 -0.000236839 0)
(0.000625541 -0.000201433 0)
(0.000658051 -0.000162321 0)
(0.000680047 -0.000121854 0)
(0.000691359 -8.25348e-05 0)
(0.000692462 -4.68414e-05 0)
(0.000684482 -1.70193e-05 0)
(0.000669164 5.1365e-06 0)
(0.000648777 1.85211e-05 0)
(0.000625887 2.29435e-05 0)
(0.000603041 1.91972e-05 0)
(0.000582456 8.94619e-06 0)
(0.000565797 -5.49766e-06 0)
(0.000553961 -2.14469e-05 0)
(0.000546885 -3.6264e-05 0)
(0.000543467 -4.79741e-05 0)
(0.000541774 -5.59917e-05 0)
(0.000539735 -6.17273e-05 0)
(0.000536588 -6.85246e-05 0)
(0.000534105 -7.96021e-05 0)
(0.000536121 -9.5374e-05 0)
(0.000543438 -0.000111569 0)
(0.000552084 -0.000128394 0)
(0.000565019 -0.000153609 0)
(0.000587594 -0.00018138 0)
(0.000618673 -0.000206777 0)
(0.000655868 -0.000226352 0)
(0.000696327 -0.000237993 0)
(0.00073716 -0.000240703 0)
(0.00077569 -0.000234401 0)
(0.000809625 -0.000219668 0)
(0.000837114 -0.000197499 0)
(0.000856739 -0.00016911 0)
(0.000867461 -0.000135788 0)
(0.000868571 -9.88028e-05 0)
(0.000859636 -5.93477e-05 0)
(0.000840459 -1.84969e-05 0)
(0.000811042 2.2821e-05 0)
(0.000771567 6.38457e-05 0)
(2.50944e-06 -5.80773e-05 0)
(2.31875e-05 -0.000147877 0)
(6.04331e-05 -0.000220749 0)
(0.000110447 -0.000277633 0)
(0.000169712 -0.000320582 0)
(0.000235535 -0.000350897 0)
(0.000305497 -0.000369003 0)
(0.000377196 -0.000374969 0)
(0.000448202 -0.0003689 0)
(0.000516086 -0.000351197 0)
(0.000578485 -0.000322726 0)
(0.000633194 -0.000284917 0)
(0.000678293 -0.000239772 0)
(0.000712276 -0.000189814 0)
(0.000734186 -0.000137969 0)
(0.000743722 -8.7399e-05 0)
(0.000741325 -4.1279e-05 0)
(0.000728203 -2.55128e-06 0)
(0.000706342 2.63469e-05 0)
(0.000678441 4.38232e-05 0)
(0.000647654 4.95104e-05 0)
(0.000617135 4.43889e-05 0)
(0.000589649 3.06019e-05 0)
(0.000567345 1.1164e-05 0)
(0.000551507 -1.02779e-05 0)
(0.000542187 -2.99184e-05 0)
(0.000537913 -4.46274e-05 0)
(0.000535722 -5.31227e-05 0)
(0.000531884 -5.73268e-05 0)
(0.000524418 -6.31043e-05 0)
(0.000515973 -7.66647e-05 0)
(0.000514502 -9.90277e-05 0)
(0.000521603 -0.000118951 0)
(0.000526371 -0.00013581 0)
(0.000534683 -0.000170521 0)
(0.000557923 -0.000208685 0)
(0.000592283 -0.000242199 0)
(0.000633703 -0.000266766 0)
(0.000678285 -0.00028012 0)
(0.000722426 -0.000281446 0)
(0.000762973 -0.000271071 0)
(0.000797373 -0.000250082 0)
(0.000823687 -0.000219984 0)
(0.000840506 -0.00018244 0)
(0.000846855 -0.000139118 0)
(0.000842102 -9.1597e-05 0)
(0.000825894 -4.13273e-05 0)
(0.000798095 1.03991e-05 0)
(0.000758792 6.24657e-05 0)
(0.000708234 0.000113959 0)
(2.64471e-06 -7.02723e-05 0)
(2.47373e-05 -0.000178775 0)
(6.474e-05 -0.000266326 0)
(0.000118603 -0.000334407 0)
(0.000182564 -0.00038561 0)
(0.000253726 -0.000421541 0)
(0.000329473 -0.00044273 0)
(0.000407197 -0.000449253 0)
(0.000484253 -0.000441198 0)
(0.000557972 -0.000418986 0)
(0.000625716 -0.000383586 0)
(0.000684982 -0.00033664 0)
(0.000733535 -0.000280504 0)
(0.000769565 -0.000218197 0)
(0.000791845 -0.00015328 0)
(0.000799882 -8.96526e-05 0)
(0.000794021 -3.13036e-05 0)
(0.000775495 1.79863e-05 0)
(0.0007465 5.49412e-05 0)
(0.000710233 7.7259e-05 0)
(0.00067059 8.42882e-05 0)
(0.000631479 7.72301e-05 0)
(0.000596302 5.87751e-05 0)
(0.000567848 3.26813e-05 0)
(0.000548068 3.72328e-06 0)
(0.000537439 -2.27125e-05 0)
(0.000534301 -4.16578e-05 0)
(0.000534444 -5.02494e-05 0)
(0.000531399 -5.03951e-05 0)
(0.000520307 -5.22094e-05 0)
(0.0005041 -6.81273e-05 0)
(0.000499238 -0.000102304 0)
(0.000510284 -0.00012655 0)
(0.000510622 -0.000135972 0)
(0.00051234 -0.000186346 0)
(0.000539129 -0.0002392 0)
(0.000579813 -0.000282523 0)
(0.000627787 -0.000312339 0)
(0.000678164 -0.000326748 0)
(0.000726739 -0.000325427 0)
(0.000769989 -0.000309375 0)
(0.000805228 -0.0002804 0)
(0.00083055 -0.000240649 0)
(0.00084466 -0.000192304 0)
(0.00084671 -0.00013743 0)
(0.000836182 -7.79116e-05 0)
(0.000812797 -1.54418e-05 0)
(0.000776489 4.84764e-05 0)
(0.000727397 0.000112537 0)
(0.000665833 0.000175663 0)
(2.77118e-06 -8.32245e-05 0)
(2.61958e-05 -0.000211765 0)
(6.88214e-05 -0.000315154 0)
(0.000126394 -0.0003954 0)
(0.000194958 -0.000455635 0)
(0.000271446 -0.000497775 0)
(0.000353081 -0.000522451 0)
(0.000437079 -0.000529733 0)
(0.000520594 -0.000519666 0)
(0.000600715 -0.000492656 0)
(0.000674517 -0.000449735 0)
(0.000739158 -0.000392733 0)
(0.000792033 -0.000324346 0)
(0.000830947 -0.000248109 0)
(0.000854329 -0.000168269 0)
(0.000861408 -8.95549e-05 0)
(0.000852359 -1.68809e-05 0)
(0.000828343 4.49878e-05 0)
(0.000791664 9.16782e-05 0)
(0.000746081 0.000119818 0)
(0.000696462 0.00012832 0)
(0.000647621 0.000118704 0)
(0.000603604 9.42909e-05 0)
(0.000567965 5.94691e-05 0)
(0.000543736 2.01895e-05 0)
(0.000532342 -1.61467e-05 0)
(0.000532434 -4.18619e-05 0)
(0.000538836 -5.09453e-05 0)
(0.000541359 -4.31962e-05 0)
(0.000529034 -3.4917e-05 0)
(0.000501651 -5.14678e-05 0)
(0.000491596 -0.000109461 0)
(0.000513077 -0.000140508 0)
(0.00050823 -0.000122673 0)
(0.000500952 -0.000203546 0)
(0.000537129 -0.000276641 0)
(0.000588264 -0.000330544 0)
(0.000645087 -0.000365064 0)
(0.000702511 -0.000379178 0)
(0.000756054 -0.000373371 0)
(0.00080204 -0.000349628 0)
(0.000837884 -0.000310697 0)
(0.000861901 -0.000259468 0)
(0.000873031 -0.000198666 0)
(0.000870613 -0.000130725 0)
(0.00085425 -5.77936e-05 0)
(0.000823712 1.82279e-05 0)
(0.00077897 9.56439e-05 0)
(0.000720167 0.000172956 0)
(0.000647651 0.000248902 0)
(2.88799e-06 -9.68856e-05 0)
(2.75506e-05 -0.000246729 0)
(7.26375e-05 -0.000367085 0)
(0.000133741 -0.00046048 0)
(0.000206762 -0.000530587 0)
(0.000288518 -0.000579633 0)
(0.000376113 -0.000608343 0)
(0.000466629 -0.000616753 0)
(0.000557048 -0.000604829 0)
(0.000644231 -0.000572909 0)
(0.000724956 -0.00052203 0)
(0.000796009 -0.000454154 0)
(0.000854344 -0.000372285 0)
(0.0008973 -0.000280479 0)
(0.000922855 -0.000183722 0)
(0.000929872 -8.7661e-05 0)
(0.00091827 1.75955e-06 0)
(0.00088899 7.86881e-05 0)
(0.000844224 0.000137329 0)
(0.000788339 0.000172611 0)
(0.000727542 0.000182815 0)
(0.00066771 0.000170085 0)
(0.00061329 0.000138526 0)
(0.000568598 9.26974e-05 0)
(0.00053831 3.95193e-05 0)
(0.000525518 -1.1203e-05 0)
(0.000529894 -4.82583e-05 0)
(0.000546623 -6.06454e-05 0)
(0.00056331 -4.16423e-05 0)
(0.000558202 -1.08448e-05 0)
(0.000516079 -1.77108e-05 0)
(0.000492441 -0.000125102 0)
(0.000527509 -0.000172288 0)
(0.000517991 -8.69277e-05 0)
(0.000504131 -0.000229612 0)
(0.000560365 -0.000326858 0)
(0.000626828 -0.000389231 0)
(0.000694116 -0.000426553 0)
(0.000758827 -0.000438036 0)
(0.000816732 -0.000425188 0)
(0.000864395 -0.000391334 0)
(0.000899688 -0.000340349 0)
(0.000921396 -0.000275878 0)
(0.000928802 -0.000201113 0)
(0.000921453 -0.000118762 0)
(0.000899027 -3.11479e-05 0)
(0.000861286 5.96811e-05 0)
(0.000808144 0.000151863 0)
(0.000739673 0.000243698 0)
(0.000656195 0.000333689 0)
(2.99242e-06 -0.000111197 0)
(2.87744e-05 -0.000283518 0)
(7.61126e-05 -0.000421925 0)
(0.000140501 -0.000529457 0)
(0.000217757 -0.000610335 0)
(0.000304641 -0.000667096 0)
(0.000398201 -0.000700547 0)
(0.000495439 -0.000710659 0)
(0.00059321 -0.000697266 0)
(0.000688182 -0.000660566 0)
(0.000776839 -0.000601516 0)
(0.000855572 -0.000522121 0)
(0.000920826 -0.000425631 0)
(0.000969364 -0.000316604 0)
(0.000998588 -0.000200816 0)
(0.00100689 -8.49353e-05 0)
(0.000993868 2.39586e-05 0)
(0.000960073 0.000118984 0)
(0.000907132 0.000192579 0)
(0.00084005 0.000236764 0)
(0.000766989 0.000248993 0)
(0.000695017 0.000232865 0)
(0.000628282 0.000193629 0)
(0.000571609 0.000134709 0)
(0.000532191 6.3402e-05 0)
(0.00051562 -7.58504e-06 0)
(0.000522718 -6.27518e-05 0)
(0.000550491 -8.56283e-05 0)
(0.000592051 -6.06819e-05 0)
(0.000618392 8.13736e-06 0)
(0.000573152 4.92253e-05 0)
(0.000512286 -0.000135717 0)
(0.000527198 -0.000219055 0)
(0.000516953 -1.78664e-05 0)
(0.000525361 -0.000280908 0)
(0.000618563 -0.000400869 0)
(0.000706922 -0.000463388 0)
(0.000785711 -0.000498408 0)
(0.000856241 -0.000502904 0)
(0.000915844 -0.000479444 0)
(0.000962376 -0.00043279 0)
(0.000994745 -0.00036781 0)
(0.00101237 -0.000288673 0)
(0.00101486 -0.000198828 0)
(0.00100188 -0.000101072 0)
(0.000973082 2.23031e-06 0)
(0.000928084 0.000108961 0)
(0.000866601 0.000217121 0)
(0.000788512 0.000324782 0)
(0.000694016 0.000430139 0)
(3.07994e-06 -0.000126084 0)
(2.98256e-05 -0.000321939 0)
(7.91361e-05 -0.000479408 0)
(0.000146468 -0.000602052 0)
(0.000227625 -0.000694649 0)
(0.000319381 -0.000760051 0)
(0.000418798 -0.000799129 0)
(0.000522871 -0.000811757 0)
(0.000628397 -0.000797573 0)
(0.000731906 -0.000756544 0)
(0.000829628 -0.000689427 0)
(0.000917547 -0.000598146 0)
(0.000991542 -0.000486076 0)
(0.00104767 -0.000358223 0)
(0.00108258 -0.000221199 0)
(0.00109403 -8.28513e-05 0)
(0.00108136 4.84385e-05 0)
(0.00104455 0.000165149 0)
(0.000983914 0.000257862 0)
(0.000904988 0.000313293 0)
(0.000818987 0.000327765 0)
(0.000734379 0.000308359 0)
(0.000653522 0.000262586 0)
(0.000580969 0.000189508 0)
(0.000527495 9.56288e-05 0)
(0.000501917 -2.28321e-06 0)
(0.000505466 -8.33979e-05 0)
(0.000539568 -0.000129808 0)
(0.000613065 -0.000121747 0)
(0.000708023 -1.41395e-05 0)
(0.000731485 0.000125781 0)
(0.000611707 -5.34786e-05 0)
(0.000472654 -0.000202085 0)
(0.000487004 -3.14032e-05 0)
(0.000616723 -0.000388729 0)
(0.000751595 -0.000511832 0)
(0.000859083 -0.0005544 0)
(0.000941326 -0.000576705 0)
(0.0010083 -0.000568521 0)
(0.00106156 -0.000531173 0)
(0.00110098 -0.000470047 0)
(0.00112646 -0.000390263 0)
(0.00113754 -0.000295987 0)
(0.00113368 -0.00019069 0)
(0.00111438 -7.70864e-05 0)
(0.00107899 4.25322e-05 0)
(0.00102681 0.000166048 0)
(0.000957197 0.000291343 0)
(0.000869652 0.000416218 0)
(0.000764099 0.000538446 0)
(3.1444e-06 -0.000141444 0)
(3.06489e-05 -0.000361737 0)
(8.1563e-05 -0.000539176 0)
(0.000151376 -0.000677869 0)
(0.000235954 -0.000783169 0)
(0.000332162 -0.000858246 0)
(0.00043716 -0.000904028 0)
(0.000548022 -0.000920257 0)
(0.000661584 -0.000906306 0)
(0.000774327 -0.000861807 0)
(0.000882304 -0.000787173 0)
(0.000981133 -0.000684056 0)
(0.00106609 -0.000555765 0)
(0.00113239 -0.000407624 0)
(0.00117569 -0.000247101 0)
(0.00119279 -8.34452e-05 0)
(0.00118283 7.31949e-05 0)
(0.0011453 0.000215522 0)
(0.00107844 0.000332836 0)
(0.000987632 0.00040305 0)
(0.000888662 0.000419344 0)
(0.000792409 0.000396587 0)
(0.000697225 0.000348073 0)
(0.000605283 0.000262722 0)
(0.000531786 0.000142743 0)
(0.000488881 1.24566e-05 0)
(0.000473385 -9.88759e-05 0)
(0.000491743 -0.000189698 0)
(0.000576434 -0.000251024 0)
(0.000736618 -0.000173576 0)
(0.000853924 0.000210806 0)
(0.000744641 0.000212059 0)
(0.000572114 -0.00012399 0)
(0.000641182 -0.000115962 0)
(0.000849681 -0.000570512 0)
(0.00100592 -0.000655527 0)
(0.00110485 -0.000653064 0)
(0.00117153 -0.000648515 0)
(0.00121988 -0.000623306 0)
(0.00125588 -0.0005716 0)
(0.00128119 -0.000497185 0)
(0.00129579 -0.000404092 0)
(0.00129825 -0.000295759 0)
(0.00128705 -0.00017565 0)
(0.0012611 -4.64221e-05 0)
(0.00121926 8.97202e-05 0)
(0.00116034 0.00023068 0)
(0.00108311 0.000374242 0)
(0.000986548 0.000517882 0)
(0.00087007 0.000658807 0)
(3.17814e-06 -0.000157147 0)
(3.1177e-05 -0.000402575 0)
(8.32201e-05 -0.000600752 0)
(0.000154907 -0.000756362 0)
(0.000242247 -0.000875356 0)
(0.000342278 -0.000961236 0)
(0.000452346 -0.00101498 0)
(0.000569709 -0.00103618 0)
(0.000691355 -0.00102389 0)
(0.00081385 -0.00097728 0)
(0.000933206 -0.000896264 0)
(0.0010448 -0.000781984 0)
(0.00114336 -0.00063739 0)
(0.00122315 -0.000467834 0)
(0.00127851 -0.00028151 0)
(0.00130466 -8.927e-05 0)
(0.0013003 9.58037e-05 0)
(0.0012641 0.000268295 0)
(0.00119244 0.000415958 0)
(0.00109162 0.000505195 0)
(0.000981626 0.000523305 0)
(0.00087525 0.0004962 0)
(0.00076847 0.000448809 0)
(0.000658309 0.000360199 0)
(0.000560104 0.000217036 0)
(0.000488341 5.94739e-05 0)
(0.000436775 -6.66528e-05 0)
(0.000387552 -0.000166328 0)
(0.000292616 -0.000230179 0)
(0.000106606 -0.000218026 0)
(0.000357364 -0.000124225 0)
(0.000944334 5.73654e-05 0)
(0.00109928 -8.45231e-05 0)
(0.00139327 -0.000503681 0)
(0.00168453 -0.000606334 0)
(0.00155236 -0.000642412 0)
(0.00147555 -0.000664555 0)
(0.0014675 -0.000670718 0)
(0.0014781 -0.000646563 0)
(0.00148854 -0.000590158 0)
(0.00149644 -0.000509071 0)
(0.00149971 -0.000407073 0)
(0.00149397 -0.000287095 0)
(0.00147589 -0.000153509 0)
(0.00144388 -9.31938e-06 0)
(0.00139637 0.000143261 0)
(0.00133163 0.000302158 0)
(0.00124783 0.00046512 0)
(0.00114316 0.000629313 0)
(0.00101633 0.000791218 0)
(3.17245e-06 -0.000173021 0)
(3.13362e-05 -0.000444027 0)
(8.39195e-05 -0.000663526 0)
(0.000156715 -0.000836811 0)
(0.000245956 -0.00097046 0)
(0.000348932 -0.00106832 0)
(0.000463261 -0.00113145 0)
(0.00058649 -0.00115927 0)
(0.000715895 -0.00115046 0)
(0.000848296 -0.00110368 0)
(0.00097987 -0.00101817 0)
(0.00110598 -0.000894285 0)
(0.00122104 -0.000734246 0)
(0.00131846 -0.000542913 0)
(0.00139096 -0.000328725 0)
(0.00143126 -0.000103917 0)
(0.00143742 0.000112577 0)
(0.00140653 0.000321372 0)
(0.00132993 0.000507589 0)
(0.00121928 0.000616468 0)
(0.00110485 0.000635187 0)
(0.000990239 0.000608584 0)
(0.000868894 0.000559315 0)
(0.000750998 0.000472014 0)
(0.000650865 0.000310297 0)
(0.000576078 0.000127414 0)
(0.000532932 -2.61204e-05 0)
(0.000557072 -0.000155027 0)
(0.000660556 -0.000211975 0)
(0.000814583 -0.000256243 0)
(0.00092947 -0.000481822 0)
(0.00095266 -0.000209799 0)
(0.000986968 -0.00014006 0)
(0.00111003 -0.000916336 0)
(0.00130338 -0.000659948 0)
(0.00148434 -0.000641796 0)
(0.00161342 -0.000694729 0)
(0.00169911 -0.000695031 0)
(0.00173141 -0.000657847 0)
(0.001735 -0.000593984 0)
(0.00173468 -0.000509966 0)
(0.00173353 -0.000402498 0)
(0.00172394 -0.00027208 0)
(0.00170118 -0.000125671 0)
(0.00166461 3.30238e-05 0)
(0.00161285 0.000201957 0)
(0.00154379 0.000379212 0)
(0.00145502 0.000562672 0)
(0.00134393 0.00074943 0)
(0.00120812 0.000935124 0)
(3.11851e-06 -0.000188859 0)
(3.10551e-05 -0.000485574 0)
(8.34811e-05 -0.000726747 0)
(0.000156466 -0.000918311 0)
(0.000246543 -0.00106749 0)
(0.000351316 -0.00117852 0)
(0.000468749 -0.00125253 0)
(0.000596768 -0.00128881 0)
(0.000733071 -0.0012857 0)
(0.000874923 -0.00124128 0)
(0.00101893 -0.001154 0)
(0.00116078 -0.00102324 0)
(0.00129501 -0.000850031 0)
(0.00141458 -0.000638012 0)
(0.00151075 -0.000394863 0)
(0.0015728 -0.000132782 0)
(0.00159486 0.00011994 0)
(0.00157214 0.000372062 0)
(0.00149454 0.000606127 0)
(0.00137594 0.000735323 0)
(0.00126638 0.000740702 0)
(0.00115338 0.000738374 0)
(0.000995446 0.000697893 0)
(0.000855383 0.00057696 0)
(0.000790828 0.000374801 0)
(0.000761313 0.000177463 0)
(0.00073525 -8.63876e-06 0)
(0.000775243 -0.00024862 0)
(0.000900778 -0.000373829 0)
(0.00103303 -0.00043636 0)
(0.00110139 -0.000462729 0)
(0.00114791 -0.000175851 0)
(0.00127731 -0.000290844 0)
(0.00141854 -0.00102409 0)
(0.00158533 -0.000901985 0)
(0.00177875 -0.000802764 0)
(0.00191241 -0.00082188 0)
(0.00200347 -0.000762819 0)
(0.00202455 -0.000667545 0)
(0.00200587 -0.00058873 0)
(0.00199891 -0.00050714 0)
(0.0020007 -0.00039687 0)
(0.00199175 -0.000254276 0)
(0.00196569 -9.41296e-05 0)
(0.00192569 7.89527e-05 0)
(0.00187134 0.000264098 0)
(0.00179993 0.00046004 0)
(0.00170846 0.000664869 0)
(0.00159354 0.000876174 0)
(0.00145143 0.0010889 0)
(3.00875e-06 -0.000204417 0)
(3.0277e-05 -0.000526615 0)
(8.1764e-05 -0.000789543 0)
(0.000153896 -0.000999781 0)
(0.000243566 -0.00116522 0)
(0.000348735 -0.0012905 0)
(0.00046775 -0.00137689 0)
(0.000598976 -0.00142358 0)
(0.000740626 -0.00142861 0)
(0.000890579 -0.00138957 0)
(0.00104615 -0.0013041 0)
(0.00120381 -0.00117049 0)
(0.00135881 -0.000988283 0)
(0.00150452 -0.000759058 0)
(0.00163161 -0.000488253 0)
(0.00172763 -0.000186164 0)
(0.00177755 0.000113769 0)
(0.00176648 0.000421797 0)
(0.00168654 0.000709788 0)
(0.00156349 0.000858317 0)
(0.00145935 0.000826252 0)
(0.00136905 0.000858958 0)
(0.0012006 0.000888082 0)
(0.00102276 0.00069114 0)
(0.000953911 0.000407785 0)
(0.000967491 0.000177722 0)
(0.00102578 -3.10153e-05 0)
(0.00110124 -0.00033431 0)
(0.001188 -0.000493455 0)
(0.00128622 -0.000539918 0)
(0.00135541 -0.000505388 0)
(0.00148625 -0.00032501 0)
(0.00172105 -0.000494159 0)
(0.00180479 -0.00105673 0)
(0.0018623 -0.00111163 0)
(0.00209837 -0.00100988 0)
(0.00229118 -0.000934458 0)
(0.00236273 -0.000812252 0)
(0.00234266 -0.000639668 0)
(0.00229232 -0.000569367 0)
(0.00229047 -0.000509479 0)
(0.00230842 -0.000398634 0)
(0.00230385 -0.0002358 0)
(0.00227279 -5.91638e-05 0)
(0.00222913 0.000127433 0)
(0.00217386 0.00032773 0)
(0.00210277 0.000542247 0)
(0.00201166 0.000768903 0)
(0.00189661 0.00100619 0)
(0.00175254 0.00124922 0)
(2.83858e-06 -0.000219426 0)
(2.89734e-05 -0.000566494 0)
(7.87017e-05 -0.000850954 0)
(0.000148875 -0.00108002 0)
(0.000236788 -0.00126224 0)
(0.000340768 -0.00140266 0)
(0.000459536 -0.00150274 0)
(0.000591886 -0.00156165 0)
(0.000736554 -0.00157727 0)
(0.000892088 -0.0015468 0)
(0.00105669 -0.00146728 0)
(0.00122802 -0.00133607 0)
(0.00140279 -0.0011512 0)
(0.00157618 -0.00091182 0)
(0.00174022 -0.000619489 0)
(0.00188237 -0.00028032 0)
(0.00198108 7.68811e-05 0)
(0.00201267 0.000455846 0)
(0.00194749 0.000823949 0)
(0.00182136 0.000989458 0)
(0.00168891 0.000925842 0)
(0.00154798 0.000975177 0)
(0.00138081 0.00108389 0)
(0.00125859 0.000785467 0)
(0.0012527 0.000406705 0)
(0.00132606 0.000110563 0)
(0.00145154 -0.000138002 0)
(0.00156584 -0.000411043 0)
(0.00163821 -0.000568073 0)
(0.00170335 -0.0006211 0)
(0.00177559 -0.000587544 0)
(0.00192238 -0.000546364 0)
(0.00213705 -0.000701668 0)
(0.00226214 -0.00106535 0)
(0.00230882 -0.00122983 0)
(0.00242925 -0.00122742 0)
(0.00260077 -0.00106182 0)
(0.00270472 -0.000848006 0)
(0.00267234 -0.000571728 0)
(0.0026062 -0.000548063 0)
(0.00262556 -0.000537109 0)
(0.00267052 -0.000419513 0)
(0.0026666 -0.000213796 0)
(0.00262277 -1.80269e-05 0)
(0.0025742 0.000177748 0)
(0.00252059 0.000390115 0)
(0.00245382 0.000622253 0)
(0.00236735 0.000871014 0)
(0.00225698 0.00113469 0)
(0.00211718 0.0014105 0)
(2.60806e-06 -0.000233612 0)
(2.71582e-05 -0.000604547 0)
(7.43362e-05 -0.000910007 0)
(0.000141475 -0.00115777 0)
(0.00022629 -0.00135702 0)
(0.000327447 -0.0015132 0)
(0.000443987 -0.00162795 0)
(0.000575042 -0.00170052 0)
(0.000719747 -0.00172872 0)
(0.000877169 -0.00170958 0)
(0.00104625 -0.00163986 0)
(0.00122573 -0.00151642 0)
(0.00141397 -0.00133637 0)
(0.00160887 -0.00109713 0)
(0.0018069 -0.000796302 0)
(0.00200031 -0.000432832 0)
(0.00216495 -1.90866e-05 0)
(0.00227207 0.000431927 0)
(0.00227497 0.000919588 0)
(0.00220061 0.00112072 0)
(0.00203213 0.00110883 0)
(0.00178368 0.00114038 0)
(0.00162375 0.00121261 0)
(0.00157819 0.000823187 0)
(0.00163157 0.000336819 0)
(0.00176765 -1.46314e-05 0)
(0.0019276 -0.000290097 0)
(0.00206552 -0.000506843 0)
(0.00217351 -0.000649156 0)
(0.00226046 -0.000685085 0)