/*--------------------------------*- C++ -*----------------------------------*\
| =========                 |                                                 |
| \\      /  F ield         | OpenFOAM: The Open Source CFD Toolbox           |
|  \\    /   O peration     | Version:  2.4.0                                 |
|   \\  /    A nd           | Web:      www.OpenFOAM.org                      |
|    \\/     M anipulation  |                                                 |
\*---------------------------------------------------------------------------*/
FoamFile
{
    version     2.0;
    format      ascii;
    class       surfaceScalarField;
    location    "0.133";
    object      phiAlpha;
}
// * * * * * * * * * * * * * * * * * * * * * * * * * * * * * * * * * * * * * //

dimensions      [0 3 -1 0 0 0 0];

internalField   nonuniform List<scalar> 
114720
(
-1.35857e-09
1.92974e-09
3.18921e-09
-3.76038e-09
3.17606e-09
-2.91895e-09
2.52146e-10
-5.09261e-10
-2.77176e-10
1.931e-09
8.22574e-10
-2.47639e-09
-7.86172e-09
9.80047e-09
7.93162e-10
-2.73192e-09
-1.55189e-08
1.71571e-08
5.77439e-10
-2.21557e-09
-2.17497e-08
2.30766e-08
4.36476e-10
-1.76332e-09
-2.70434e-08
2.8175e-08
3.35049e-10
-1.46668e-09
-3.11207e-08
3.17784e-08
7.61205e-11
-7.33764e-10
-3.26627e-08
3.24537e-08
-3.33779e-10
5.42722e-10
-2.97842e-08
2.82419e-08
-9.0841e-10
2.45074e-09
-2.12058e-08
1.83914e-08
-1.39121e-09
4.20563e-09
-8.37652e-09
5.07671e-09
-1.41611e-09
4.71592e-09
4.77713e-09
-7.56429e-09
-9.93782e-10
3.78095e-09
1.49321e-08
-1.68069e-08
-5.44141e-10
2.41898e-09
2.14514e-08
-2.25714e-08
-2.6689e-10
1.3869e-09
2.52441e-08
-2.58588e-08
-1.22024e-10
7.3671e-10
2.72051e-08
-2.74616e-08
-2.85045e-11
2.84976e-10
2.77985e-08
-2.77664e-08
5.51379e-11
-8.72229e-11
2.72786e-08
-2.70127e-08
1.32621e-10
-3.98504e-10
2.58729e-08
-2.5429e-08
1.97477e-10
-6.41318e-10
2.38161e-08
-2.32501e-08
2.45428e-10
-8.11411e-10
2.1337e-08
-2.07014e-08
2.74218e-10
-9.09886e-10
1.86389e-08
-1.79757e-08
2.862e-10
-9.49354e-10
1.5878e-08
-1.52187e-08
2.85051e-10
-9.44356e-10
1.31663e-08
-1.25298e-08
2.75517e-10
-9.12064e-10
1.05723e-08
-9.97108e-09
2.60501e-10
-8.61743e-10
8.13618e-09
-7.57637e-09
2.42751e-10
-8.02565e-10
5.87941e-09
-5.36491e-09
2.2327e-10
-7.37766e-10
3.81383e-09
-3.3462e-09
2.02987e-10
-6.70614e-10
1.94025e-09
-1.51816e-09
1.83327e-10
-6.05427e-10
3.79033e-09
1.56431e-08
-1.20288e-08
-7.40455e-09
1.1644e-08
2.12229e-09
-1.1548e-08
-2.21836e-09
6.58168e-09
1.02448e-08
-3.94283e-09
-1.28836e-08
-5.91102e-09
1.19488e-08
9.41767e-09
-1.54554e-08
-2.01777e-08
1.06252e-08
2.35582e-08
-1.40057e-08
-3.33235e-08
9.31151e-09
3.64056e-08
-1.23936e-08
-4.54781e-08
8.03385e-09
4.82877e-08
-1.08434e-08
-5.59888e-08
5.11276e-09
5.81375e-08
-7.26149e-09
-6.29694e-08
-4.08877e-10
6.38047e-08
-4.26419e-10
-6.33285e-08
-8.56963e-09
6.20372e-08
9.86085e-09
-5.45948e-08
-1.59971e-08
5.1111e-08
1.94809e-08
-3.81122e-08
-1.89357e-08
3.33355e-08
2.37124e-08
-1.82801e-08
-1.67888e-08
1.34501e-08
2.16187e-08
1.80178e-10
-1.22712e-08
-4.14549e-09
1.62365e-08
1.4467e-08
-7.91144e-09
-1.72476e-08
1.0692e-08
2.40399e-08
-4.56056e-09
-2.57507e-08
6.27136e-09
2.96134e-08
-1.9928e-09
-3.04738e-08
2.8532e-09
3.20467e-08
2.90417e-11
-3.22557e-08
1.8e-10
3.21206e-08
1.55882e-09
-3.18596e-08
-1.81985e-09
3.05429e-08
2.63131e-09
-2.99723e-08
-3.20187e-09
2.79195e-08
3.29896e-09
-2.71691e-08
-4.0494e-09
2.47234e-08
3.63642e-09
-2.38891e-08
-4.47065e-09
2.12975e-08
3.73118e-09
-2.04458e-08
-4.58287e-09
1.78733e-08
3.66094e-09
-1.70475e-08
-4.48675e-09
1.45974e-08
3.49006e-09
-1.3823e-08
-4.26444e-09
1.15539e-08
3.2623e-09
-1.08437e-08
-3.97244e-09
8.77662e-09
3.01032e-09
-8.1334e-09
-3.65353e-09
6.26886e-09
2.74745e-09
-5.68999e-09
-3.32632e-09
4.01445e-09
2.4897e-09
-3.49395e-09
-3.0102e-09
1.98743e-09
2.24006e-09
-1.5202e-09
-2.70729e-09
4.24261e-09
3.13576e-08
-2.73184e-08
-8.28186e-09
1.41529e-08
2.01023e-09
-1.43075e-08
-1.85558e-09
9.80227e-09
2.06724e-08
-7.23395e-09
-2.32407e-08
-2.61219e-09
2.61263e-08
6.17854e-09
-2.96927e-08
-1.72216e-08
2.44357e-08
2.07158e-08
-2.793e-08
-3.0898e-08
2.20394e-08
3.41509e-08
-2.52923e-08
-4.38311e-08
1.97606e-08
4.68627e-08
-2.27922e-08
-5.53021e-08
1.42972e-08
5.77244e-08
-1.67195e-08
-6.35361e-08
3.73716e-09
6.47507e-08
-4.95176e-09
-6.56887e-08
-1.26418e-08
6.49334e-08
1.33971e-08
-5.9324e-08
-2.8695e-08
5.64869e-08
3.15322e-08
-4.55705e-08
-3.68261e-08
4.1492e-08
4.09046e-08
-2.84908e-08
-3.51934e-08
2.42735e-08
3.94108e-08
-1.22139e-08
-2.76733e-08
8.64887e-09
3.12383e-08
7.99114e-10
-1.89267e-08
-3.39643e-09
2.1524e-08
9.8684e-09
-1.14707e-08
-1.15404e-08
1.31428e-08
1.54639e-08
-5.63153e-09
-1.6402e-08
6.56962e-09
1.83749e-08
-1.12038e-09
-1.87624e-08
1.50786e-09
1.9293e-08
2.19931e-09
-1.92817e-08
-2.21066e-09
1.87957e-08
4.4528e-09
-1.85131e-08
-4.73537e-09
1.73652e-08
5.81366e-09
-1.69151e-08
-6.26383e-09
1.53847e-08
6.4807e-09
-1.48472e-08
-7.01821e-09
1.31478e-08
6.64916e-09
-1.25833e-08
-7.21365e-09
1.08742e-08
6.47916e-09
-1.03273e-08
-7.02607e-09
8.72239e-09
6.10134e-09
-8.22356e-09
-6.60017e-09
6.79621e-09
5.61298e-09
-6.36236e-09
-6.04682e-09
5.1408e-09
5.09484e-09
-4.77393e-09
-5.4617e-09
3.74586e-09
4.58921e-09
-3.43661e-09
-4.89846e-09
2.56257e-09
4.12748e-09
-2.29595e-09
-4.3941e-09
1.53078e-09
3.70605e-09
-1.2941e-09
-3.94274e-09
4.38524e-09
4.78468e-08
-4.3686e-08
-8.5461e-09
1.47221e-08
1.31289e-09
-1.4912e-08
-1.12301e-09
1.04396e-08
3.09391e-08
-7.86661e-09
-3.35121e-08
-2.0192e-09
4.04122e-08
5.60144e-09
-4.39945e-08
-1.6689e-08
3.84118e-08
2.01836e-08
-4.19064e-08
-3.03461e-08
3.50676e-08
3.36072e-08
-3.83287e-08
-4.33575e-08
3.19445e-08
4.64228e-08
-3.50098e-08
-5.49778e-08
2.40718e-08
5.74534e-08
-2.65474e-08
-6.3472e-08
8.70833e-09
6.4757e-08
-9.99334e-09
-6.59464e-08
-1.55286e-08
6.52598e-08
1.62152e-08
-5.98409e-08
-3.98805e-08
5.70561e-08
4.26654e-08
-4.63401e-08
-5.28641e-08
4.23551e-08
5.68491e-08
-2.97766e-08
-5.1626e-08
2.57471e-08
5.56555e-08
-1.43637e-08
-4.14546e-08
1.10321e-08
4.47862e-08
-2.2388e-09
-2.89738e-08
-1.82082e-10
3.13947e-08
6.26098e-09
-1.79995e-08
-7.85316e-09
1.95917e-08
1.16743e-08
-9.39205e-09
-1.26235e-08
1.03412e-08
1.47511e-08
-2.81776e-09
-1.52244e-08
3.29106e-09
1.60929e-08
2.01472e-09
-1.62105e-08
-1.89713e-09
1.61456e-08
5.32662e-09
-1.60043e-08
-5.46798e-09
1.52808e-08
7.36836e-09
-1.49641e-08
-7.68511e-09
1.38155e-08
8.41468e-09
-1.33931e-08
-8.83713e-09
1.2012e-08
8.72674e-09
-1.15402e-08
-9.19852e-09
1.00788e-08
8.52097e-09
-9.60151e-09
-8.99822e-09
8.17722e-09
7.97757e-09
-7.72794e-09
-8.42685e-09
6.42781e-09
7.24491e-09
-6.02903e-09
-7.64368e-09
4.90038e-09
6.46463e-09
-4.56038e-09
-6.80463e-09
3.60701e-09
5.7313e-09
-3.32026e-09
-6.01806e-09
2.50969e-09
5.1046e-09
-2.26218e-09
-5.35212e-09
1.55011e-09
4.57299e-09
-1.32898e-09
-4.79412e-09
4.50233e-09
6.47197e-08
-6.04662e-08
-8.75578e-09
1.50196e-08
5.55695e-10
-1.52052e-08
-3.701e-10
1.06747e-08
4.12658e-08
-8.07672e-09
-4.38638e-08
-1.88512e-09
5.47752e-08
5.48959e-09
-5.83797e-08
-1.66402e-08
5.2393e-08
2.01369e-08
-5.58896e-08
-3.02649e-08
4.81153e-08
3.3528e-08
-5.13784e-08
-4.33291e-08
4.42463e-08
4.64225e-08
-4.73397e-08
-5.50787e-08
3.40557e-08
5.7612e-08
-3.6589e-08
-6.38792e-08
1.39655e-08
6.52475e-08
-1.53337e-08
-6.67419e-08
-1.81952e-08
6.61153e-08
1.88218e-08
-6.07249e-08
-5.11016e-08
5.78816e-08
5.3945e-08
-4.68494e-08
-6.89768e-08
4.27317e-08
7.30945e-08
-2.97501e-08
-6.78634e-08
2.5613e-08
7.20006e-08
-1.40115e-08
-5.47926e-08
1.06436e-08
5.81605e-08
-1.81607e-09
-3.86269e-08
-6.00652e-10
4.10436e-08
6.66058e-09
-2.43577e-08
-8.25181e-09
2.59489e-08
1.21018e-08
-1.32218e-08
-1.30714e-08
1.41914e-08
1.5291e-08
-4.77741e-09
-1.58012e-08
5.28756e-09
1.67961e-08
1.46157e-09
-1.69572e-08
-1.30041e-09
1.70268e-08
5.80828e-09
-1.6929e-08
-5.9061e-09
1.63339e-08
8.55808e-09
-1.6058e-08
-8.83395e-09
1.50279e-08
1.00369e-08
-1.4642e-08
-1.04229e-08
1.33591e-08
1.05658e-08
-1.29143e-08
-1.10107e-08
1.15142e-08
1.04087e-08
-1.10488e-08
-1.08741e-08
9.62915e-09
9.7883e-09
-9.16987e-09
-1.02476e-08
7.80067e-09
8.89175e-09
-7.3663e-09
-9.32612e-09
6.0901e-09
7.91083e-09
-5.69012e-09
-8.31081e-09
4.52433e-09
6.98788e-09
-4.16044e-09
-7.35176e-09
3.10088e-09
6.21309e-09
-2.76948e-09
-6.54448e-09
1.80269e-09
5.5723e-09
-1.5002e-09
-5.87479e-09
4.64532e-09
8.20021e-08
-7.76382e-08
-9.00918e-09
1.53489e-08
-1.69233e-10
-1.55214e-08
3.41752e-10
1.09089e-08
5.17046e-08
-8.27844e-09
-5.43351e-08
-1.77704e-09
6.92354e-08
5.40996e-09
-7.28683e-08
-1.66434e-08
6.63842e-08
2.01427e-08
-6.98835e-08
-3.02215e-08
6.11702e-08
3.34859e-08
-6.44346e-08
-4.3349e-08
5.66689e-08
4.64763e-08
-5.97962e-08
-5.52526e-08
4.42947e-08
5.78599e-08
-4.6902e-08
-6.44512e-08
1.95874e-08
6.59212e-08
-2.10574e-08
-6.78466e-08
-2.05746e-08
6.73108e-08
2.11104e-08
-6.19927e-08
-6.25778e-08
5.9079e-08
6.54916e-08
-4.76272e-08
-8.57162e-08
4.33222e-08
9.00212e-08
-2.97223e-08
-8.46775e-08
2.53989e-08
8.9001e-08
-1.33388e-08
-6.8419e-08
9.86127e-09
7.18966e-08
-8.18933e-10
-4.83469e-08
-1.63521e-09
5.0801e-08
7.74682e-09
-3.07343e-08
-9.34422e-09
3.23317e-08
1.32117e-08
-1.71167e-08
-1.41898e-08
1.80947e-08
1.64441e-08
-6.8413e-09
-1.69666e-08
7.36381e-09
1.79933e-08
7.99346e-10
-1.81618e-08
-6.30862e-10
1.8245e-08
6.18788e-09
-1.81495e-08
-6.28338e-09
1.75581e-08
9.64897e-09
-1.72847e-08
-9.92238e-09
1.62619e-08
1.15672e-08
-1.5879e-08
-1.19501e-08
1.46091e-08
1.23305e-08
-1.41689e-08
-1.27707e-08
1.27793e-08
1.22643e-08
-1.23147e-08
-1.27289e-08
1.08832e-08
1.16399e-08
-1.04136e-08
-1.21095e-08
8.98684e-09
1.06753e-08
-8.52395e-09
-1.11382e-08
7.12899e-09
9.59143e-09
-6.67997e-09
-1.00405e-08
5.33765e-09
8.55054e-09
-4.90889e-09
-8.9793e-09
3.63807e-09
7.65698e-09
-3.23508e-09
-8.05996e-09
2.0503e-09
6.89736e-09
-1.67821e-09
-7.26944e-09
4.82221e-09
9.9783e-08
-9.52858e-08
-9.31948e-09
1.57535e-08
-8.30898e-10
-1.59052e-08
9.82599e-10
1.11922e-08
6.22835e-08
-8.52212e-09
-6.49536e-08
-1.6484e-09
8.38154e-08
5.31625e-09
-8.74833e-08
-1.66556e-08
8.03862e-08
2.01582e-08
-8.38889e-08
-3.01693e-08
7.42293e-08
3.34347e-08
-7.74947e-08
-4.33761e-08
6.92373e-08
4.65445e-08
-7.24057e-08
-5.54573e-08
5.48564e-08
5.81571e-08
-5.75561e-08
-6.51488e-08
2.56307e-08
6.67279e-08
-2.72098e-08
-6.9216e-08
-2.25468e-08
6.88008e-08
2.2962e-08
-6.35944e-08
-7.4353e-08
6.05977e-08
7.73497e-08
-4.86306e-08
-1.03269e-07
4.40936e-08
1.07806e-07
-2.97237e-08
-1.02304e-07
2.5169e-08
1.06858e-07
-1.25402e-08
-8.25258e-08
8.92664e-09
8.61393e-08
3.79498e-10
-5.82277e-08
-2.87624e-09
6.07244e-08
9.03211e-09
-3.71248e-08
-1.06283e-08
3.8721e-08
1.44861e-08
-2.10306e-08
-1.54643e-08
2.20088e-08
1.77298e-08
-8.93891e-09
-1.82568e-08
9.46587e-09
1.92861e-08
1.31126e-10
-1.94495e-08
3.22608e-11
1.94979e-08
6.59203e-09
-1.93845e-08
-6.70534e-09
1.8728e-08
1.0776e-08
-1.84291e-08
-1.1075e-08
1.73304e-08
1.31273e-08
-1.69235e-08
-1.35342e-08
1.55848e-08
1.41152e-08
-1.51236e-08
-1.45763e-08
1.36742e-08
1.41439e-08
-1.31911e-08
-1.4627e-08
1.17033e-08
1.3543e-08
-1.12145e-08
-1.40317e-08
9.72343e-09
1.25624e-08
-9.23681e-09
-1.3049e-08
7.75939e-09
1.14374e-08
-7.28001e-09
-1.19168e-08
5.83633e-09
1.03265e-08
-5.37198e-09
-1.07908e-08
3.98828e-09
9.33445e-09
-3.54762e-09
-9.7751e-09
2.24907e-09
8.44926e-09
-1.84057e-09
-8.85775e-09
5.03841e-09
1.18162e-07
-1.13506e-07
-9.69475e-09
1.62361e-08
-1.39388e-09
-1.63558e-08
1.51361e-09
1.15261e-08
7.3031e-08
-8.80963e-09
-7.57475e-08
-1.49369e-09
9.8545e-08
5.2012e-09
-1.02252e-07
-1.66708e-08
9.44004e-08
2.01761e-08
-9.79057e-08
-3.00919e-08
8.72901e-08
3.33567e-08
-9.0555e-08
-4.33917e-08
8.19795e-08
4.66074e-08
-8.51952e-08
-5.56636e-08
6.58178e-08
5.84766e-08
-6.86308e-08
-6.59466e-08
3.21044e-08
6.76273e-08
-3.37851e-08
-7.08349e-08
-2.39864e-08
7.05748e-08
2.42464e-08
-6.5529e-08
-8.64781e-08
6.24375e-08
8.95695e-08
-4.98454e-08
-1.21823e-07
4.50259e-08
1.26643e-07
-2.9717e-08
-1.20924e-07
2.48837e-08
1.25757e-07
-1.15772e-08
-9.7211e-08
7.80413e-09
1.00984e-07
1.7997e-09
-6.82778e-08
-4.34049e-09
7.08186e-08
1.05211e-08
-4.34953e-08
-1.21054e-08
4.50795e-08
1.59271e-08
-2.49382e-08
-1.69012e-08
2.59123e-08
1.91775e-08
-1.10545e-08
-1.97108e-08
1.15877e-08
2.07444e-08
-5.11799e-10
-2.09007e-08
6.68119e-10
2.0894e-08
7.08379e-09
-2.07533e-08
-7.22454e-09
1.99903e-08
1.20277e-08
-1.96515e-08
-1.23665e-08
1.84233e-08
1.48147e-08
-1.79731e-08
-1.52649e-08
1.65038e-08
1.60162e-08
-1.60016e-08
-1.65184e-08
1.44335e-08
1.61265e-08
-1.39141e-08
-1.66459e-08
1.23237e-08
1.5541e-08
-1.18041e-08
-1.60606e-08
1.02269e-08
1.45464e-08
-9.71463e-09
-1.50586e-08
8.16584e-09
1.33883e-08
-7.66516e-09
-1.3889e-08
6.16147e-09
1.22145e-08
-5.67889e-09
-1.26971e-08
4.24234e-09
1.1126e-08
-3.78501e-09
-1.15833e-08
2.43638e-09
1.01114e-08
-2.01164e-09
-1.05361e-08
5.2971e-09
1.37241e-07
-1.32401e-07
-1.01378e-08
1.68066e-08
-1.80722e-09
-1.68789e-08
1.87955e-09
1.1915e-08
8.39764e-08
-9.14418e-09
-8.67472e-08
-1.3113e-09
1.13444e-07
5.06644e-09
-1.172e-07
-1.66985e-08
1.08427e-07
2.02074e-08
-1.11936e-07
-2.99962e-08
1.00348e-07
3.32598e-08
-1.03612e-07
-4.34104e-08
9.49232e-08
4.66814e-08
-9.81942e-08
-5.58814e-08
7.72709e-08
5.88343e-08
-8.02238e-08
-6.68685e-08
3.89506e-08
6.86228e-08
-4.07049e-08
-7.2746e-08
-2.4748e-08
7.26803e-08
2.48137e-08
-6.78579e-08
-9.89991e-08
6.46614e-08
1.02196e-07
-5.13102e-08
-1.41595e-07
4.61491e-08
1.46756e-07
-2.97e-08
-1.4074e-07
2.45331e-08
1.45907e-07
-1.0423e-08
-1.12576e-07
6.46287e-09
1.16536e-07
3.47846e-09
-7.85071e-08
-6.06268e-09
8.10913e-08
1.22373e-08
-4.97979e-08
-1.37943e-08
5.13549e-08
1.75464e-08
-2.88254e-08
-1.85137e-08
2.97928e-08
2.08142e-08
-1.32054e-08
-2.13616e-08
1.37529e-08
2.24191e-08
-1.12884e-09
-2.25709e-08
1.28065e-09
2.25041e-08
7.69565e-09
-2.23296e-08
-7.87021e-09
2.14316e-08
1.34566e-08
-2.10415e-08
-1.38467e-08
1.96456e-08
1.66964e-08
-1.91391e-08
-1.7203e-08
1.74998e-08
1.81029e-08
-1.69435e-08
-1.86591e-08
1.52196e-08
1.82729e-08
-1.46526e-08
-1.884e-08
1.29295e-08
1.76757e-08
-1.23711e-08
-1.82341e-08
1.06908e-08
1.66375e-08
-1.015e-08
-1.71784e-08
8.52953e-09
1.54196e-08
-8.01013e-09
-1.5939e-08
6.46144e-09
1.41633e-08
-5.9673e-09
-1.46575e-08
4.50135e-09
1.29696e-08
-4.03531e-09
-1.34356e-08
2.66002e-09
1.18256e-08
-2.22576e-09
-1.22599e-08
5.6027e-09
1.57121e-07
-1.52071e-07
-1.06528e-08
1.74683e-08
-2.0026e-09
-1.74734e-08
2.00765e-09
1.23592e-08
9.51511e-08
-9.52565e-09
-9.79847e-08
-1.10327e-09
1.28544e-07
4.9118e-09
-1.32353e-07
-1.67437e-08
1.2247e-07
2.02579e-08
-1.25984e-07
-2.98773e-08
1.134e-07
3.31391e-08
-1.16662e-07
-4.34312e-08
1.08101e-07
4.67667e-08
-1.11436e-07
-5.60993e-08
8.93302e-08
5.92249e-08
-9.24557e-08
-6.79154e-08
4.60147e-08
6.9685e-08
-4.77843e-08
-7.49751e-08
-2.46705e-08
7.51446e-08
2.45009e-08
-7.06323e-08
-1.11951e-07
6.73242e-08
1.15259e-07
-5.30508e-08
-1.62828e-07
4.74835e-08
1.68395e-07
-2.96602e-08
-1.6198e-07
2.4098e-08
1.67542e-07
-9.04463e-09
-1.28732e-07
4.86711e-09
1.3291e-07
5.4514e-09
-8.89057e-08
-8.07633e-09
9.15306e-08
1.41946e-08
-5.59585e-08
-1.57001e-08
5.7464e-08
1.93315e-08
-3.26814e-08
-2.02894e-08
3.36393e-08
2.26409e-08
-1.54319e-08
-2.32167e-08
1.60077e-08
2.43352e-08
-1.73663e-09
-2.44892e-08
1.89064e-09
2.43618e-08
8.45165e-09
-2.41473e-08
-8.66611e-09
2.30855e-08
1.51072e-08
-2.26329e-08
-1.55599e-08
2.10339e-08
1.88204e-08
-2.04597e-08
-1.93946e-08
1.86182e-08
2.04201e-08
-1.79985e-08
-2.10398e-08
1.60925e-08
2.06215e-08
-1.54704e-08
-2.12436e-08
1.35955e-08
1.99736e-08
-1.29933e-08
-2.05759e-08
1.11984e-08
1.88464e-08
-1.06268e-08
-1.94181e-08
8.93227e-09
1.75241e-08
-8.39497e-09
-1.80614e-08
6.8075e-09
1.61536e-08
-6.30492e-09
-1.66562e-08
4.82106e-09
1.48417e-08
-4.35052e-09
-1.53123e-08
2.9588e-09
1.35742e-08
-2.51751e-09
-1.40154e-08
5.9608e-09
1.77898e-07
-1.72614e-07
-1.1244e-08
1.82171e-08
-1.89301e-09
-1.81298e-08
1.80568e-09
1.28542e-08
1.06588e-07
-9.95018e-09
-1.09492e-07
-8.64861e-10
1.4387e-07
4.73531e-09
-1.4774e-07
-1.68065e-08
1.36536e-07
2.03279e-08
-1.40058e-07
-2.97178e-08
1.26442e-07
3.29764e-08
-1.29701e-07
-4.34378e-08
1.21551e-07
4.68485e-08
-1.24962e-07
-5.62841e-08
1.02134e-07
5.96189e-08
-1.05469e-07
-6.90644e-08
5.3002e-08
7.07457e-08
-5.46833e-08
-7.75311e-08
-2.35954e-08
7.79712e-08
2.31553e-08
-7.38927e-08
-1.25354e-07
7.04701e-08
1.28776e-07
-5.50756e-08
-1.85782e-07
4.90384e-08
1.91819e-07
-2.95718e-08
-1.849e-07
2.35464e-08
1.90926e-07
-7.40032e-09
-1.45806e-07
2.97306e-09
1.50233e-07
7.75996e-09
-9.94592e-08
-1.04196e-08
1.02119e-07
1.64037e-08
-6.18591e-08
-1.78178e-08
6.32732e-08
2.12473e-08
-3.64949e-08
-2.21927e-08
3.74404e-08
2.46428e-08
-1.78041e-08
-2.5271e-08
1.84322e-08
2.65114e-08
-2.36764e-09
-2.66783e-08
2.53458e-09
2.64927e-08
9.37756e-09
-2.62309e-08
-9.63937e-09
2.49677e-08
1.70281e-08
-2.44379e-08
-1.75579e-08
2.25941e-08
2.12328e-08
-2.19401e-08
-2.18868e-08
1.98639e-08
2.30046e-08
-1.91717e-08
-2.36969e-08
1.70596e-08
2.32003e-08
-1.63756e-08
-2.38842e-08
1.43311e-08
2.2454e-08
-1.36801e-08
-2.3105e-08
1.17589e-08
2.11822e-08
-1.11537e-08
-2.17875e-08
9.38105e-09
1.96998e-08
-8.82608e-09
-2.02548e-08
7.20746e-09
1.81713e-08
-6.70135e-09
-1.86774e-08
5.22136e-09
1.67223e-08
-4.75495e-09
-1.71887e-08
3.37609e-09
1.53422e-08
-2.93621e-09
-1.57821e-08
6.37856e-09
1.99663e-07
-1.94124e-07
-1.19174e-08
1.90607e-08
-1.37092e-09
-1.88524e-08
1.16263e-09
1.34042e-08
1.18321e-07
-1.04207e-08
-1.21305e-07
-5.97989e-10
1.59454e-07
4.53821e-09
-1.63394e-07
-1.69009e-08
1.5064e-07
2.04355e-08
-1.54175e-07
-2.95199e-08
1.39473e-07
3.2776e-08
-1.42729e-07
-4.34448e-08
1.35327e-07
4.69481e-08
-1.3883e-07
-5.64426e-08
1.15833e-07
6.00237e-08
-1.19414e-07
-7.0345e-08
5.94035e-08
7.17638e-08
-6.08224e-08
-8.04979e-08
-2.14062e-08
8.12228e-08
2.06813e-08
-7.77463e-08
-1.39214e-07
7.42161e-08
1.42744e-07
-5.74422e-08
-2.10714e-07
5.08668e-08
2.1729e-07
-2.94285e-08
-2.09792e-07
2.28584e-08
2.16362e-07
-5.44727e-09
-1.63934e-07
7.3278e-10
1.68648e-07
1.04598e-08
-1.10143e-07
-1.31485e-08
1.12832e-07
1.88913e-08
-6.73075e-08
-2.01494e-08
6.85657e-08
2.32508e-08
-4.02566e-08
-2.41828e-08
4.11886e-08
2.68155e-08
-2.04388e-08
-2.75354e-08
2.11587e-08
2.89967e-08
-3.07519e-09
-2.91945e-08
3.27295e-09
2.89514e-08
1.05098e-08
-2.86295e-08
-1.08317e-08
2.71103e-08
1.9285e-08
-2.64843e-08
-1.9911e-08
2.43416e-08
2.39861e-08
-2.35924e-08
-2.47353e-08
2.12448e-08
2.5895e-08
-2.04689e-08
-2.66709e-08
1.81216e-08
2.60386e-08
-1.73675e-08
-2.67928e-08
1.51301e-08
2.51393e-08
-1.44233e-08
-2.58461e-08
1.2356e-08
2.36599e-08
-1.17114e-08
-2.43045e-08
9.84694e-09
2.19479e-08
-9.27214e-09
-2.25227e-08
7.62834e-09
2.01915e-08
-7.12637e-09
-2.06935e-08
5.69632e-09
1.85558e-08
-5.25672e-09
-1.89954e-08
3.97228e-09
1.70696e-08
-3.56107e-09
-1.74809e-08
6.86499e-09
2.22513e-07
-2.16694e-07
-1.26848e-08
1.99982e-08
-3.25479e-10
-1.96439e-08
-2.8808e-11
1.40078e-08
1.30386e-07
-1.09352e-08
-1.33459e-07
-3.00113e-10
1.75329e-07
4.31745e-09
-1.79347e-07
-1.70351e-08
1.6481e-07
2.05929e-08
-1.68368e-07
-2.92682e-08
1.52497e-07
3.25244e-08
-1.55753e-07
-4.34461e-08
1.49509e-07
4.70683e-08
-1.53132e-07
-5.65521e-08
1.30566e-07
6.04129e-08
-1.34427e-07
-7.17667e-08
6.43587e-08
7.26249e-08
-6.52169e-08
-8.39651e-08
-1.81215e-08
8.49231e-08
1.71635e-08
-8.22774e-08
-1.53425e-07
7.87157e-08
1.56987e-07
-6.02403e-08
-2.37954e-07
5.30007e-08
2.45194e-07
-2.92048e-08
-2.37005e-07
2.19913e-08
2.44219e-07
-3.13153e-09
-1.83277e-07
-1.91466e-09
1.88323e-07
1.36157e-08
-1.20939e-07
-1.63324e-08
1.23656e-07
2.16894e-08
-7.19859e-08
-2.26815e-08
7.2978e-08
2.52536e-08
-4.39678e-08
-2.61758e-08
4.489e-08
2.91361e-08
-2.35262e-08
-3.00108e-08
2.44009e-08
3.18482e-08
-3.94152e-09
-3.21027e-08
4.19602e-09
3.17998e-08
1.19105e-08
-3.13968e-08
-1.23135e-08
2.95374e-08
2.19636e-08
-2.87883e-08
-2.27127e-08
2.62793e-08
2.71455e-08
-2.54174e-08
-2.80075e-08
2.27504e-08
2.91376e-08
-2.18797e-08
-3.00083e-08
1.92665e-08
2.91715e-08
-1.84329e-08
-3.00051e-08
1.59726e-08
2.80618e-08
-1.52001e-08
-2.88343e-08
1.29554e-08
2.63098e-08
-1.22605e-08
-2.70046e-08
1.02684e-08
2.42895e-08
-9.66078e-09
-2.48971e-08
7.94659e-09
2.2203e-08
-7.43171e-09
-2.27179e-08
5.99236e-09
2.02752e-08
-5.55827e-09
-2.07093e-08
4.30833e-09
1.86623e-08
-3.91178e-09
-1.90588e-08
7.43035e-09
2.46561e-07
-2.4043e-07
-1.35615e-08
2.10309e-08
1.33385e-09
-2.05119e-08
-1.85287e-09
1.46644e-08
1.42822e-07
-1.1493e-08
-1.45994e-07
1.97029e-11
1.91529e-07
4.07345e-09
-1.95622e-07
-1.72227e-08
1.79095e-07
2.08204e-08
-1.82692e-07
-2.89474e-08
1.65529e-07
3.22098e-08
-1.68791e-07
-4.34406e-08
1.64224e-07
4.72238e-08
-1.68007e-07
-5.65584e-08
1.46521e-07
6.08143e-08
-1.50777e-07
-7.33972e-08
6.63774e-08
7.31637e-08
-6.61438e-08
-8.80973e-08
-1.41535e-08
8.9085e-08
1.31658e-08
-8.77007e-08
-1.67554e-07
8.42239e-08
1.71031e-07
-6.36402e-08
-2.68221e-07
5.54526e-08
2.76409e-07
-2.88497e-08
-2.66962e-07
2.08775e-08
2.74934e-07
-3.92906e-10
-2.04015e-07
-5.03128e-09
2.09439e-07
1.73077e-08
-1.3186e-07
-2.00657e-08
1.34618e-07
2.4854e-08
-7.53447e-08
-2.5388e-08
7.58787e-08
2.71127e-08
-4.76579e-08
-2.80404e-08
4.85857e-08
3.15744e-08
-2.73701e-08
-3.27049e-08
2.85006e-08
3.5161e-08
-5.08876e-09
-3.55119e-08
5.43964e-09
3.51309e-08
1.36853e-08
-3.46087e-08
-1.42075e-08
3.22735e-08
2.51884e-08
-3.13626e-08
-2.60994e-08
2.83984e-08
3.07865e-08
-2.74034e-08
-3.17816e-08
2.43736e-08
3.27779e-08
-2.33957e-08
-3.37558e-08
2.04825e-08
3.26395e-08
-1.9558e-08
-3.35641e-08
1.68416e-08
3.12643e-08
-1.59915e-08
-3.21144e-08
1.35286e-08
2.91824e-08
-1.27685e-08
-2.99424e-08
1.05933e-08
2.67997e-08
-9.92859e-09
-2.74644e-08
8.02484e-09
2.43647e-08
-7.43314e-09
-2.49564e-08
5.66417e-09
2.21945e-08
-5.08429e-09
-2.27744e-08
3.31503e-09
2.04427e-08
-2.75455e-09
-2.10031e-08
8.08299e-09
2.71934e-07
-2.65458e-07
-1.4559e-08
2.21604e-08
3.67477e-09
-2.1462e-08
-4.37319e-09
1.53737e-08
1.55669e-07
-1.20929e-08
-1.5895e-07
3.6485e-10
2.08004e-07
3.80105e-09
-2.1217e-07
-1.7482e-08
1.93576e-07
2.11465e-08
-1.97241e-07
-2.85373e-08
1.786e-07
3.18173e-08
-1.8188e-07
-4.34264e-08
1.79675e-07
4.74387e-08
-1.83687e-07
-5.62362e-08
1.64805e-07
6.15634e-08
-1.70132e-07
-7.58617e-08
6.25412e-08
7.32487e-08
-5.99281e-08
-9.28549e-08
-1.05012e-08
9.36414e-08
9.71466e-09
-9.44639e-08
-1.81466e-07
9.09574e-08
1.84972e-07
-6.76768e-08
-3.028e-07
5.82504e-08
3.12226e-07
-2.82587e-08
-3.0016e-07
1.94078e-08
3.09011e-07
2.8471e-09
-2.26329e-07
-8.67034e-09
2.32153e-07
2.16284e-08
-1.43e-07
-2.44738e-08
1.45846e-07
2.85056e-08
-7.64407e-08
-2.82636e-08
7.61987e-08
2.85996e-08
-5.14146e-08
-2.95695e-08
5.23845e-08
3.40889e-08
-3.24505e-08
-3.56314e-08
3.39929e-08
3.90874e-08
-6.7064e-09
-3.95973e-08
7.21637e-09
3.90819e-08
1.6032e-08
-3.83669e-08
-1.6747e-08
3.53296e-08
2.91378e-08
-3.42018e-08
-3.02657e-08
3.06782e-08
3.49906e-08
-2.95302e-08
-3.61386e-08
2.60976e-08
3.68624e-08
-2.50029e-08
-3.79571e-08
2.1762e-08
3.64857e-08
-2.0737e-08
-3.75107e-08
1.77284e-08
3.47975e-08
-1.67869e-08
-3.5739e-08
1.40592e-08
3.23387e-08
-1.32182e-08
-3.31797e-08
1.08217e-08
2.9551e-08
-1.0096e-08
-3.02767e-08
8.05938e-09
2.68017e-08
-7.44778e-09
-2.74132e-08
5.72364e-09
2.45805e-08
-5.19719e-09
-2.5107e-08
3.63376e-09
2.28232e-08
-3.09476e-09
-2.33622e-08
8.83489e-09
2.9878e-07
-2.91922e-07
-1.56931e-08
2.33913e-08
6.75452e-09
-2.24989e-08
-7.64687e-09
1.61365e-08
1.68969e-07
-1.27351e-08
-1.72371e-07
7.49378e-10
2.24784e-07
3.4958e-09
-2.2903e-07
-1.78402e-08
2.0838e-07
2.16114e-08
-2.12151e-07
-2.80144e-08
1.91769e-07
3.13319e-08
-1.95086e-07
-4.34071e-08
1.96183e-07
4.77501e-08
-2.00526e-07
-5.5779e-08
1.8851e-07
6.23193e-08
-1.95051e-07
-8.12448e-08
4.56431e-08
7.45211e-08
-3.89194e-08
-9.57251e-08
-6.76546e-09
9.7444e-08
5.0465e-09
-1.02547e-07
-1.95235e-07
9.94211e-08
1.98361e-07
-7.21257e-08
-3.42051e-07
6.18033e-08
3.52373e-07
-2.7348e-08
-3.37083e-07
1.74461e-08
3.46985e-07
6.71256e-09
-2.50291e-07
-1.29369e-08
2.56516e-07
2.66724e-08
-1.54616e-07
-2.96973e-08
1.57641e-07
3.29625e-08
-7.3644e-08
-3.12927e-08
7.19743e-08
2.92766e-08
-5.54829e-08
-3.04257e-08
5.6632e-08
3.66301e-08
-3.95007e-08
-3.88173e-08
4.16879e-08
4.38769e-08
-9.1028e-09
-4.46555e-08
9.88136e-09
4.38683e-08
1.93392e-08
-4.28113e-08
-2.03962e-08
3.86822e-08
3.40594e-08
-3.72639e-08
-3.54777e-08
3.30752e-08
3.98303e-08
-3.17606e-08
-4.11449e-08
2.79055e-08
4.14225e-08
-2.66898e-08
-4.26383e-08
2.31045e-08
4.07459e-08
-2.19715e-08
-4.18789e-08
1.86373e-08
3.87182e-08
-1.75896e-08
-3.97659e-08
1.4538e-08
3.58506e-08
-1.3592e-08
-3.67966e-08
1.08891e-08
3.25676e-08
-1.00733e-08
-3.33834e-08
7.82942e-09
2.92399e-08
-7.18301e-09
-2.98863e-08
5.49695e-09
2.63925e-08
-5.04066e-09
-2.68488e-08
3.93908e-09
2.4463e-08
-3.60866e-09
-2.47934e-08
9.70539e-09
3.27261e-07
-3.19978e-07
-1.69879e-08
2.47201e-08
1.06332e-08
-2.36176e-08
-1.17356e-08
1.69478e-08
1.82768e-07
-1.34148e-08
-1.86301e-07
1.16809e-09
2.41874e-07
3.15069e-09
-2.46193e-07
-1.83279e-08
2.23683e-07
2.2258e-08
-2.27613e-07
-2.73358e-08
2.05128e-07
3.07221e-08
-2.08515e-07
-4.33691e-08
2.14213e-07
4.81918e-08
-2.19036e-07
-5.61728e-08
2.11651e-07
5.9627e-08
-2.15105e-07
-8.133e-08
2.13014e-08
7.93679e-08
-1.93393e-08
-9.19611e-08
4.9663e-09
9.71436e-08
-1.0148e-08
-1.09527e-07
-2.04998e-07
1.0926e-07
2.05265e-07
-7.86011e-08
-3.84553e-07
6.73972e-08
3.95756e-07
-2.61891e-08
-3.77657e-07
1.49686e-08
3.88878e-07
1.13172e-08
-2.75786e-07
-1.79004e-08
2.8237e-07
3.24689e-08
-1.67122e-07
-3.57724e-08
1.70426e-07
3.85102e-08
-6.30374e-08
-3.34127e-08
5.79399e-08
2.82191e-08
-6.08572e-08
-3.00716e-08
6.27098e-08
3.91213e-08
-4.95836e-08
-4.22752e-08
5.27376e-08
4.9925e-08
-1.28503e-08
-5.1186e-08
1.41113e-08
4.97815e-08
2.44169e-08
-4.80635e-08
-2.61349e-08
4.21973e-08
4.02679e-08
-4.04062e-08
-4.2059e-08
3.54979e-08
4.53349e-08
-3.4023e-08
-4.68098e-08
2.97685e-08
4.64623e-08
-2.84371e-08
-4.77937e-08
2.45131e-08
4.54433e-08
-2.32698e-08
-4.66866e-08
1.95895e-08
4.30834e-08
-1.84234e-08
-4.42495e-08
1.49863e-08
3.98304e-08
-1.39038e-08
-4.09129e-08
1.07417e-08
3.60586e-08
-9.75891e-09
-3.70414e-08
6.95027e-09
3.21007e-08
-6.10267e-09
-3.29483e-08
3.75576e-09
2.86881e-08
-3.0552e-09
-2.93887e-08
8.13863e-10
2.61668e-08
3.59418e-11
-2.70166e-08
1.07109e-08
3.57537e-07
-3.4979e-07
-1.84575e-08
2.61478e-08
1.5379e-08
-2.48173e-08
-1.67094e-08
1.78048e-08
1.9711e-07
-1.41296e-08
-2.00785e-07
1.62003e-09
2.59241e-07
2.75622e-09
-2.63617e-07
-1.89937e-08
2.39722e-07
2.3155e-08
-2.43884e-07
-2.64534e-08
2.18831e-07
2.99574e-08
-2.22335e-07
-4.33023e-08
2.34503e-07
4.88585e-08
-2.40059e-07
-5.56286e-08
2.19266e-07
5.62627e-08
-2.199e-07
-6.60512e-08
3.21306e-08
7.61408e-08
-4.22203e-08
-8.4189e-08
2.91878e-08
9.07723e-08
-3.57715e-08
-1.11524e-07
-1.94323e-07
1.19473e-07
1.86374e-07
-8.38747e-08
-4.30538e-07
7.14232e-08
4.4299e-07
-2.38584e-08
-4.21824e-07
1.23773e-08
4.33305e-07
1.66892e-08
-3.02503e-07
-2.34953e-08
3.09309e-07
3.89351e-08
-1.80651e-07
-4.23173e-08
1.84033e-07
3.44594e-08
-3.21436e-08
-2.32816e-08
2.09658e-08
2.42695e-08
-7.07378e-08
-2.80459e-08
7.45142e-08
4.14814e-08
-6.41207e-08
-4.60066e-08
6.86459e-08
5.77872e-08
-1.90251e-08
-5.98848e-08
2.11226e-08
5.68967e-08
3.2984e-08
-5.38732e-08
-3.60075e-08
4.55132e-08
4.80478e-08
-4.33197e-08
-5.02412e-08
3.78259e-08
5.14317e-08
-3.62336e-08
-5.3024e-08
3.16698e-08
5.19412e-08
-3.02409e-08
-5.337e-08
2.60107e-08
5.05768e-08
-2.46622e-08
-5.19253e-08
2.06384e-08
4.79308e-08
-1.93509e-08
-4.92183e-08
1.55052e-08
4.43857e-08
-1.4273e-08
-4.5618e-08
1.0579e-08
4.03021e-08
-9.38893e-09
-4.14922e-08
5.79577e-09
3.59454e-08
-4.62983e-09
-3.71113e-08
1.10299e-09
3.19989e-08
3.9592e-11
-3.31415e-08
-3.3975e-09
2.9677e-08
4.33002e-09
-3.06095e-08
1.18815e-08
3.89776e-07
-3.81524e-07
-2.01336e-08
2.7681e-08
2.10664e-08
-2.6103e-08
-2.26444e-08
1.87056e-08
2.12035e-07
-1.48804e-08
-2.15861e-07
2.10389e-09
2.76806e-07
2.30409e-09
-2.81214e-07
-1.99115e-08
2.56837e-07
2.44133e-08
-2.61339e-07
-2.53079e-08
2.3311e-07
2.90069e-08
-2.36809e-07
-4.32123e-08
2.58291e-07
4.99068e-08
-2.64985e-07
-5.33545e-08
2.26498e-07
5.76816e-08
-2.30825e-07
-6.78647e-08
8.35327e-08
8.27572e-08
-9.84253e-08
-7.30658e-08
5.3428e-08
7.81855e-08
-5.85478e-08
-1.14053e-07
-1.54142e-07
1.27703e-07
1.40491e-07
-9.62745e-08
-4.92294e-07
7.25766e-08
5.15988e-07
-1.77844e-08
-4.68756e-07
7.67329e-09
4.78867e-07
2.1811e-08
-3.30255e-07
-2.9262e-08
3.37706e-07
4.56882e-08
-1.9258e-07
-4.76563e-08
1.94549e-07
8.46439e-09
1.0505e-08
-4.93917e-10
-1.84754e-08
1.8047e-08
-9.01883e-08
-2.47888e-08
9.693e-08
4.36337e-08
-8.47754e-08
-4.99252e-08
9.10668e-08
6.74121e-08
-2.90107e-08
-7.05131e-08
3.21117e-08
6.28841e-08
4.80122e-08
-5.78157e-08
-5.30806e-08
4.78883e-08
5.71977e-08
-4.55854e-08
-5.95006e-08
3.99893e-08
5.78802e-08
-3.83644e-08
-5.9505e-08
3.36301e-08
5.77733e-08
-3.21294e-08
-5.92741e-08
2.76441e-08
5.61163e-08
-2.62016e-08
-5.75588e-08
2.18605e-08
5.32553e-08
-2.04595e-08
-5.46563e-08
1.62375e-08
4.95232e-08
-1.48719e-08
-5.08887e-08
1.07371e-08
4.53203e-08
-9.39099e-09
-4.66664e-08
5.28304e-09
4.0944e-08
-3.93629e-09
-4.22908e-08
-1.56787e-10
3.69261e-08
1.47429e-09
-3.82436e-08
-5.2842e-09
3.36978e-08
6.42404e-09
-3.48376e-08
1.32504e-08
4.24136e-07
-4.15338e-07
-2.20477e-08
2.93148e-08
2.77723e-08
-2.74706e-08
-2.96164e-08
1.96399e-08
2.27565e-07
-1.56628e-08
-2.31542e-07
2.61579e-09
2.94435e-07
1.77664e-09
-2.98828e-07
-2.11832e-08
2.75549e-07
2.61992e-08
-2.80565e-07
-2.37986e-08
2.48339e-07
2.78203e-08
-2.52361e-07
-4.32639e-08
2.8716e-07
5.12537e-08
-2.9515e-07
-5.18157e-08
2.42099e-07
5.23339e-08
-2.42618e-07
-8.7753e-08
1.29446e-07
8.92277e-08
-1.30921e-07
-5.09029e-08
7.36703e-08
5.59845e-08
-7.87518e-08
-1.3585e-07
-7.88252e-08
1.63851e-07
5.08241e-08
-9.90794e-08
-6.04528e-07
6.01044e-08
6.43504e-07
-8.82871e-09
-5.16216e-07
-1.61274e-10
5.25206e-07
2.67678e-08
-3.59579e-07
-3.49184e-08
3.6773e-07
5.2718e-08
-1.95923e-07
-5.14862e-08
1.94691e-07
6.79267e-09
2.09179e-08
-9.84312e-09
-1.78675e-08
1.40831e-08
-1.20128e-07
-2.21327e-08
1.28177e-07
4.53961e-08
-1.12741e-07
-5.34859e-08
1.20831e-07