/*--------------------------------*- C++ -*----------------------------------*\
| =========                 |                                                 |
| \\      /  F ield         | OpenFOAM: The Open Source CFD Toolbox           |
|  \\    /   O peration     | Version:  2.4.0                                 |
|   \\  /    A nd           | Web:      www.OpenFOAM.org                      |
|    \\/     M anipulation  |                                                 |
\*---------------------------------------------------------------------------*/
FoamFile
{
    version     2.0;
    format      ascii;
    class       volScalarField;
    location    "0.001";
    object      p_rgh;
}
// * * * * * * * * * * * * * * * * * * * * * * * * * * * * * * * * * * * * * //

dimensions      [1 -1 -2 0 0 0 0];

internalField   nonuniform List<scalar> 
3600
(
272.273
274.986
279.846
286.465
294.521
303.709
313.717
324.227
334.925
345.518
355.752
365.423
374.379
382.522
389.796
396.192
401.715
406.404
410.317
413.528
416.118
418.169
419.763
420.976
421.876
422.523
422.968
423.255
423.419
423.489
272.198
274.904
279.753
286.358
294.4
303.576
313.576
324.084
334.789
345.398
355.657
365.361
374.36
382.553
389.886
396.344
401.933
406.691
410.673
413.947
416.593
418.693
420.328
421.574
422.499
423.164
423.623
423.918
424.087
424.16
272.046
274.739
279.566
286.144
294.158
303.309
313.293
323.798
334.515
345.154
355.463
365.234
374.317
382.61
390.058
396.641
402.365
407.262
411.381
414.785
417.549
419.751
421.471
422.785
423.763
424.468
424.954
425.267
425.446
425.523
271.819
274.492
279.286
285.823
293.794
302.908
312.867
323.366
334.1
344.784
355.164
365.034
374.241
382.683
390.3
397.072
402.998
408.106
412.437
416.043
418.991
421.355
423.211
424.636
425.699
426.468
426.999
427.342
427.538
427.623
271.517
274.164
278.914
285.396
293.309
302.372
312.296
322.784
333.54
344.28
354.753
364.752
374.121
382.755
390.594
397.614
403.809
409.204
413.825
417.715
420.926
423.523
425.578
427.165
428.356
429.22
429.818
430.206
430.428
430.523
271.14
273.755
278.449
284.862
292.702
301.699
311.577
322.05
332.829
343.636
354.221
364.375
373.939
382.807
390.914
398.233
404.768
410.524
415.522
419.786
423.353
426.272
428.606
430.424
431.799
432.801
433.498
433.95
434.209
434.321
270.69
273.266
277.893
284.222
291.973
300.89
310.709
321.16
331.961
342.842
353.554
363.887
373.677
382.813
391.231
398.899
405.836
412.023
417.485
422.227
426.262
429.617
432.336
434.48
436.116
437.317
438.157
438.704
439.018
439.153
270.168
272.698
277.247
283.477
291.122
299.942
309.689
320.107
330.928
341.888
352.741
363.27
373.31
382.745
391.507
399.569
406.946
413.63
419.648
424.982
429.619
433.556
436.806
439.408
441.42
442.912
443.962
444.648
445.044
445.215
269.575
272.053
276.511
282.627
290.15
298.854
308.513
318.885
329.72
340.761
351.763
362.506
372.816
382.57
391.699
400.179
408.005
415.25
421.911
427.953
433.345
438.049
442.032
445.287
447.848
449.771
451.137
452.035
452.554
452.778
268.912
271.331
275.688
281.674
289.056
297.626
307.177
317.49
328.328
339.447
350.604
361.573
372.167
382.253
391.758
400.662
408.98
416.718
424.13
430.974
437.278
442.974
447.967
452.169
455.55
458.133
459.985
461.206
461.913
462.218
268.181
270.535
274.779
280.62
287.841
296.256
305.679
315.913
326.741
337.931
349.244
360.447
371.337
381.763
391.639
400.95
409.754
418.178
426.132
433.779
441.112
448.045
454.411
460.008
464.654
468.278
470.894
472.606
473.595
474.019
267.384
269.666
273.785
279.464
286.506
294.743
304.015
314.147
324.946
336.195
347.661
359.104
370.3
381.069
391.299
400.96
410.112
418.877
427.374
435.895
444.304
452.668
460.823
468.452
475.142
480.502
484.357
486.739
488.1
488.677
266.524
268.727
272.709
278.21
285.051
293.087
302.181
312.185
322.931
334.222
345.833
357.518
369.029
380.146
390.712
400.656
410.016
418.941
427.673
436.544
445.883
455.638
465.881
476.354
486.466
495.166
501.263
504.178
505.908
506.602
265.601
267.72
271.553
276.859
283.478
291.287
300.174
310.019
320.683
331.993
343.736
355.662
367.5
378.981
389.878
400.04
409.441
418.198
426.604
435.146
444.515
455.295
467.588
481.558
496.764
511.418
521.629
520.923
521.959
522.144
264.619
266.646
270.319
275.414
281.789
289.344
297.991
307.643
318.189
329.486
341.341
353.506
365.687
377.564
388.822
399.187
408.48
416.665
423.905
430.525
437.09
444.656
454.584
468.348
487.53
513.531
535.436
515.934
516.806
515.76
263.58
265.51
269.011
273.877
279.986
287.258
295.631
305.049
315.436
326.681
338.619
351.015
363.562
375.889
387.586
398.23
407.421
414.823
420.267
423.774
425.445
424.898
419.971
408.37
387.803
408.988
453.958
483.369
493.066
498.396
262.487
264.314
267.631
272.252
278.071
285.03
293.093
302.232
312.41
323.554
335.536
348.148
361.085
373.941
386.222
397.348
406.645
413.288
416.493
415.269
408.336
394.024
353.055
279.308
150.769
165.729
190.122
254.933
265.648
276.572
261.343
263.06
266.182
270.541
276.048
282.663
290.375
299.187
309.099
320.082
332.057
344.856
358.203
371.689
384.77
396.765
406.796
413.327
414.862
408.76
389.235
388.354
267.009
267.814
-45.1219
-40.3618
66.6305
131.262
172.19
187.57
260.15
261.752
264.669
268.75
273.921
280.161
287.481
295.912
305.492
316.242
328.138
341.076
354.835
369.047
383.178
396.559
408.602
416.901
420.76
417.834
405.445
382.711
327.128
248.514
145.997
12.3669
83.2553
136.826
224.675
247.17
258.913
260.394
263.096
266.882
271.695
277.527
284.411
292.403
301.579
312.01
323.735
336.732
350.871
365.877
381.28
396.298
412.362
424.359
433.515
438.444
437.857
429.392
412.876
380.664
359.757
265.098
262.434
342.998
394.369
414.438
257.633
258.99
261.466
264.942
269.374
274.767
281.17
288.663
297.355
307.364
318.803
331.741
346.162
361.937
378.817
397.038
415.695
433.126
449.385
464.323
478.566
493.961
509.461
530.699
538.458
597.251
631.723
640.099
650.598
654.999
256.316
257.542
259.783
262.935
266.964
271.888
277.765
284.696
292.816
302.29
313.298
326.009
340.534
356.916
374.89
396.781
418.478
441.237
464.737
488.894
513.701
538.251
564.18
591.853
621.642
649.183
665.976
688.209
705.213
712.432
254.965
256.056
258.054
260.867
264.473
268.897
274.205
280.509
287.966
296.777
307.183
319.441
333.828
350.602
369.814
393.757
418.828
446.491
476.223
507.338
538.223
567.99
595.751
619.685
638.498
653.182
661.375
666.76
670.258
671.797
253.583
254.535
256.281
258.745
261.909
265.803
270.499
276.113
282.813
290.826
300.439
311.969
325.875
342.635
362.78
387.308
415.329
447.16
482.382
519.812
558.373
595.999
630.754
661.068
686.256
706.328
721.825
732.747
739.322
742.206
252.174
252.984
254.472
256.574
259.278
262.617
266.661
271.525
277.376
284.45
293.059
303.555
316.538
332.634
352.6
377.265
406.821
441.557
481.377
525.389
572.816
620.531
665.596
705.321
737.833
762.626
780.226
791.751
798.396
801.251
250.742
251.407
252.631
254.361
256.591
259.351
262.707
266.764
271.678
277.676
285.061
294.207
305.757
320.42
339.074
362.672
392.002
427.95
470.969
520.105
578.167
639.514
700.798
757.401
804.602
840.368
865.468
881.657
890.859
894.774
249.292
249.809
250.764
252.114
253.856
256.018
258.655
261.855
265.753
270.547
276.501
283.979
293.572
305.981
322.129
343.052
369.909
404.41
448.45
504.343
569.177
647.397
733.199
818.493
891.485
946.066
982.631
1005.17
1017.49
1022.58
247.825
248.19
248.872
249.835
251.079
252.624
254.515
256.817
259.632
263.111
267.457
272.97
280.124
289.522
301.958
318.395
339.987
368.68
406.823
456.795
520.153
600.855
720.843
870.531
1002.82
1089.46
1138.17
1163.55
1175.63
1180.29
246.519
246.751
247.188
247.8
248.586
249.56
250.744
252.176
253.911
256.03
258.654
261.968
266.263
271.946
279.581
289.909
303.457
322.001
348.473
390.524
462.655
577.983
746.232
967.622
1154.74
1266
1314.64
1326.24
1326.92
1327.74
244.329
244.333
244.364
244.408
244.471
244.559
244.686
244.861
245.093
245.389
245.755
246.199
246.715
247.309
248.069
249.293
249.561
248.644
241.847
218.816
129.056
-44.9937
110.009
968.585
1748.08
1956
1770.85
1701.47
1659.62
1641.99
423.489
423.419
423.256
422.969
422.524
421.878
420.978
419.766
418.172
416.122
413.533
410.322
406.408
401.719
396.196
389.801
382.526
374.383
365.427
355.757
345.523
334.929
324.231
313.721
303.713
294.524
286.468
279.849
274.989
272.277
424.16
424.088
423.919
423.624
423.166
422.501
421.576
420.331
418.697
416.597
413.951
410.677
406.696
401.938
396.348
389.89
382.557
374.364
365.366
355.661
345.402
334.793
324.089
313.58
303.58
294.404
286.361
279.756
274.906
272.201
425.523
425.447
425.268
424.955
424.469
423.765
422.787
421.474
419.754
417.552
414.789
411.385
407.266
402.37
396.645
390.062
382.614
374.321
365.238
355.467
345.159
334.519
323.803
313.298
303.313
294.161
286.147
279.569
274.742
272.049
427.623
427.539
427.343
427
426.47
425.701
424.638
423.214
421.358
418.994
416.046
412.44
408.11
403.002
397.076
390.305
382.687
374.246
365.039
355.169
344.788
334.105
323.37
312.871
302.912
293.798
285.826
279.29
274.495
271.822
430.523
430.428
430.206
429.819
429.221
428.357
427.166
425.58
423.525
420.928
417.717
413.828
409.207
403.813
397.618
390.598
382.759
374.126
364.757
354.758
344.285
333.545
322.789
312.3
302.376
293.312
285.399
278.917
274.167
271.52
434.321
434.209
433.95
433.498
432.801
431.799
430.425
428.607
426.273
423.354
419.787
415.524
410.527
404.771
398.236
390.918
382.811
373.944
364.38
354.226
343.641
332.834
322.055
311.582
301.703
292.705
284.865
278.452
273.758
271.143
439.153
439.018
438.703
438.157
437.317
436.115
434.48
432.336
429.617
426.262
422.228
417.486
412.025
405.839
398.902
391.235
382.818
373.682
363.892
353.56
342.848
331.966
321.164
310.714
300.893
291.976
284.225
277.896
273.269
270.693
445.215
445.044
444.648
443.961
442.911
441.419
439.407
436.805
433.555
429.619
424.982
419.649
413.631
406.948
399.572
391.511
382.749
373.316
363.276
352.746
341.894
330.933
320.112
309.693
299.946
291.126
283.48
277.25
272.701
270.171
452.778
452.554
452.034
451.136
449.77
447.846
445.285
442.03
438.048
433.343
427.952
421.911
415.25
408.006
400.182
391.703
382.574
372.821
362.512
351.769
340.767
329.726
318.89
308.517
298.858
290.153
282.63
276.515
272.055
269.577
462.218
461.913
461.205
459.983
458.131
455.548
452.166
447.964
442.971
437.275
430.972
424.128
416.717
408.98
400.664
391.761
382.258
372.173
361.579
350.61
339.454
328.334
317.495
307.182
297.63
289.059
281.678
275.691
271.333
268.915
474.019
473.594
472.605
470.892
468.276
464.651
460.004
454.407
448.04
441.108
433.776
426.13
418.176
409.754
400.952
391.642
381.768
371.343
360.453
349.25
337.937
326.747
315.918
305.684
296.26
287.844
280.623
274.782
270.537
268.184
488.677
488.1
486.738
484.354
480.499
475.138
468.447
460.818
452.663
444.299
435.89
427.37
418.875
410.111
400.961
391.301
381.073
370.305
359.11
347.668
336.202
324.952
314.152
304.019
294.747
286.509
279.467
273.788
269.669
267.387
506.602
505.907
504.177
501.261
495.162
486.461
476.348
465.874
455.631
445.875
436.537
427.667
418.937
410.014
400.655
390.713
380.15
369.033
357.524
345.84
334.229
322.937
312.19
302.185
293.091
285.054
278.213
272.712
268.729
266.526
522.144
521.959
520.924
521.63
511.416
496.759
481.551
467.58
455.286
444.506
435.137
426.596
418.192
409.437
400.038
389.878
378.984
367.504
355.667
343.742
331.999
320.689
310.024
300.178
291.291
283.482
276.862
271.556
267.722
265.603
515.762
516.81
515.943
535.445
513.534
487.534
468.349
454.579
444.646
437.078
430.514
423.895
416.657
408.475
399.184
388.821
377.566
365.69
353.51
341.346
329.492
318.195
307.648
297.996
289.347
281.792
275.417
270.322
266.648
264.621
498.399
493.073
483.382
453.99
409.022
387.827
408.381
419.962
424.879
425.427
423.76
420.255
414.814
407.415
398.226
387.584
375.889
363.564
351.018
338.623
326.686
315.441
305.054
295.636
287.261
279.989
273.88
269.013
265.512
263.582
276.575
265.663
254.949
190.166
165.808
150.834
279.351
353.024
393.987
408.314
415.253
416.48
413.279
406.638
397.343
386.22
373.941
361.086
348.151
335.54
323.558
312.414
302.237
293.097
285.033
278.074
272.254
267.633
264.315
262.489
187.569
172.192
131.271
66.646
-40.3311
-45.0687
267.96
266.818
388.263
389.231
408.747
414.85
413.316
406.788
396.76
384.766
371.688
358.203
344.858
332.06
320.086
309.103
299.192
290.379
282.667
276.051
270.544
266.185
263.062
261.344
247.173
224.665
136.813
83.2643
12.2921
145.958
248.487
327.079
382.664
405.421
417.815
420.746
416.89
408.593
396.553
383.174
369.045
354.834
341.077
328.14
316.245
305.495
295.915
287.484
280.164
273.924
268.752
264.672
261.754
260.152
414.436
394.362
342.981
262.398
265.038
359.723
380.647
412.853
429.366
437.835
438.425
433.5
424.346
412.352
396.291
381.275
365.874
350.869
336.732
323.737
312.012
301.582
292.406
284.414
277.53
271.697
266.884
263.098
260.396
258.914
654.994
650.583
640.07
631.688
597.227
538.449
530.685
509.442
493.941
478.547
464.304
449.369
433.112
415.684
397.029
378.811
361.933
346.16
331.74
318.803
307.365
297.357
288.666
281.173
274.77
269.376
264.944
261.467
258.991
257.635
712.43
705.205
688.197
665.965
649.176
621.632
591.841
564.164
538.233
513.683
488.875
464.72
441.222
418.466
396.771
374.883
356.911
340.531
326.007
313.297
302.29
292.817
284.698
277.767
271.89
266.966
262.937
259.785
257.544
256.318
671.796
670.253
666.753
661.366
653.17
638.484
619.668
595.731
567.968
538.2
507.316
476.204
446.474
418.814
393.745
369.806
350.596
333.824
319.439
307.182
296.776
287.966
280.51
274.206
268.898
264.475
260.869
258.055
256.057
254.966
742.205
739.318
732.74
721.815
706.314
686.238
661.045
630.727
595.969
558.343
519.785
482.359
447.14
415.313
387.295
362.771
342.628
325.87
311.965
300.437
290.825
282.813
276.114
270.5
265.804
261.91
258.746
256.283
254.536
253.584
801.25
798.393
791.746
780.218
762.611
737.81
705.289
665.557
620.489
572.775
525.353
481.348
441.534
406.803
377.251
352.589
332.626
316.533
303.551
293.056
284.448
277.375
271.525
266.662
262.618
259.279
256.575
254.473
252.985
252.175
894.775
890.861
881.66
865.468
840.358
804.575
757.353
700.736
639.449
578.112
520.06
470.935
427.924
391.982
362.657
339.062
320.411
305.75
294.202
285.057
277.673
271.676
266.763
262.707
259.352
256.592
254.362
252.632
251.408
250.743
1022.59
1017.51
1005.21
982.667
946.075
891.449
818.408
733.084
647.281
569.107
504.295
448.415
404.384
369.889
343.036
322.117
305.972
293.564
283.973
276.496
270.544
265.751
261.854
258.654
256.018
253.857
252.114
250.764
249.809
249.293
1180.32
1175.66
1163.66
1138.3
1089.53
1002.75
870.314
720.624
600.768
520.112
456.75
406.794
368.658
339.968
318.378
301.945
289.512
280.116
272.963
267.451
263.106
259.628
256.815
254.514
252.624
251.079
249.835
248.873
248.191
247.825
1327.79
1326.9
1326.24
1314.86
1266.02
1154.62
967.092
745.647
577.646
462.541
390.452
348.464
321.989
303.439
289.89
279.567
271.936
266.255
261.961
258.648
256.025
253.906
252.174
250.743
249.559
248.586
247.8
247.188
246.751
246.519
1642
1659.76
1701.23
1770.56
1956.12
1746.57
965.073
107.843
-44.6314
130.134
218.814
241.917
248.631
249.535
249.267
248.052
247.295
246.702
246.187
245.744
245.38
245.087
244.857
244.684
244.558
244.47
244.408
244.364
244.333
244.329
10.7474
10.8418
12.3756
14.5624
17.2319
20.2593
23.5103
26.8282
30.0088
32.8309
35.0583
36.495
36.8244
36.0889
34.762
34.0124
32.2691
32.37
31.9318
50.6569
146.855
159.061
98.8165
550.937
1264.19
1656.42
1427.78
1358.88
1355.52
1345.66
0.0069341
0.0129902
0.0256057
0.0356802
0.0485068
0.064506
0.0850989
0.111115
0.144005
0.18493
0.238977
0.312167
0.413238
0.571717
0.893258
1.88149
2.36677
6.3103
14.4074
43.7039
120.929
165.17
126.615
471.439
1205.25
1541.76
1352.79
1277.71
1286.33
1279.52
0.00696299
0.0129372
0.0252792
0.0352366
0.0478793
0.0636
0.0838011
0.10929
0.14153
0.181671
0.233319
0.301615
0.400387
0.560377
0.87781
1.78892
1.59227
2.23633
8.3351
15.3565
24.0097
29.8939
102.877
474.137
1107.61
1383.46
1286.41
1209.69
1227.21
1227.7
0.00690767
0.01286
0.0250662
0.0349813
0.0475675
0.0632178
0.0833303
0.108714
0.140823
0.1808
0.232225
0.300215
0.398437
0.556995
0.863835
1.66696
1.28339
-0.943986
-1.96514
-1.16971
-0.212159
2.93702
68.8276
450.048
976.262
1191.34
1222.05
1150.94
1174.1
1174.35
0.00682909
0.0127549
0.0248207
0.0346857
0.0472065
0.0627788
0.0827943
0.108063
0.140021
0.179803
0.230941
0.298496
0.395832
0.551854
0.84468
1.52694
1.13077
-1.10228
-2.68381
-2.70208
-2.618
-1.66212
40.0125
307.224
742.749
1003.52
1161.38
1101.58
1116.47
1126.99
0.00674214
0.0126328
0.0245392
0.0343443
0.0467851
0.0622609
0.0821541
0.107274
0.139037
0.178562
0.229314
0.296252
0.392291
0.544542
0.820105
1.38368
0.978427
-1.0605
-2.59765
-2.94036
-2.95707
-2.53479
1.55755
106.298
473.143
880.13
1083.8
1046.12
1061.06
1069.96
0.0066542
0.0125051
0.0242369
0.0339745
0.0463241
0.06169
0.0814422
0.106389
0.137919
0.177133
0.227408
0.293543
0.38784
0.535044
0.790221
1.24323
0.826452
-0.980445
-2.42508
-2.84946
-2.93056
-2.63497
-1.90004
6.61655
201.129
711.439
982.997
984.826
1001.9
1009.12
0.00655906
0.0123659
0.0239091
0.0335715
0.0458189
0.0610621
0.0806554
0.105405
0.136667
0.175516
0.22521
0.290336
0.382394
0.523231
0.755177
1.10691
0.683273
-0.908273
-2.23304
-2.70127
-2.84738
-2.463
-1.50026
-4.64419
25.7783
555.519
865.357
908.826
931.255
944.259
0.0064543
0.0122119
0.0235513
0.0331293
0.0452615
0.0603671
0.079781
0.104307
0.135258
0.173678
0.222675
0.286552
0.375816
0.508942
0.715232
0.97563
0.551302
-0.840371
-2.04164
-2.52165
-2.67713
-2.40239
-1.12395
-3.90047
-10.1643
436.71
722.233
818.063
856.287
867.256
0.00633975
0.012042
0.0231611
0.0326439
0.0446461
0.059597
0.0788076
0.103079
0.13367
0.171589
0.219752
0.282109
0.367972
0.49206
0.670826
0.85035
0.431468
-0.777074
-1.85374
-2.32271
-2.46743
-2.26484
-1.59606
-2.63739
2.43062
294.521
594.244
700.725
754.982
777.54
0.00621521
0.0118552
0.0227364
0.0321117
0.0439668
0.0587434
0.0777234
0.101705
0.13188
0.169213
0.216387
0.276922
0.358741
0.472522
0.622575
0.73199
0.325667
-0.721172
-1.67352
-2.11861
-2.2494
-2.14478
-1.68953
-2.18836
-0.953967
85.2629
469.172
593.017
652.69
676.055
0.00607987
0.0116495
0.0222741
0.0315278
0.0432168
0.0577966
0.0765151
0.100165
0.129863
0.166512
0.212524
0.270904
0.348013
0.450333
0.571259
0.62133
0.235112
-0.673515
-1.50438
-1.92063
-2.04407
-2.03197
-1.70949
-2.03962
-1.97923
14.4423
347.368
478.673
541.01
567.714
0.00593276
0.0114228
0.0217706
0.0308865
0.0423878
0.0567453
0.0751669
0.0984377
0.127587
0.163445
0.208102
0.263971
0.3357
0.425572
0.517804
0.518933
0.156001
-0.628978
-1.34696
-1.73277
-1.85391
-1.9237
-1.66444
-2.18901
-2.64655
3.09742
152.892
334.993
427.301
454.005
0.00577289
0.0111726
0.0212222
0.0301816
0.0414708
0.0555766
0.0736613
0.0964997
0.12502
0.159964
0.203056
0.256038
0.321747
0.398416
0.463236
0.425252
0.0880846
-0.58642
-1.20158
-1.55504
-1.66821
-1.82066
-1.52349
-2.30718
-3.25511
-1.87734
7.5714
85.3747
235.235
298.557
0.00559919
0.0108962
0.0206246
0.0294063
0.0404558
0.0542764
0.0719789
0.0943234
0.122126
0.15602
0.197321
0.247035
0.306136
0.369161
0.408637
0.34083
0.0310941
-0.545227
-1.06799
-1.38579
-1.49384
-1.66535
-1.43755
-2.12148
-2.44154
-1.53192
-0.841495
0.289462
28.8189
53.9326
0.00541054
0.0105905
0.0199733
0.0285527
0.0393315
0.0528286
0.0700975
0.0918787
0.118864
0.15156
0.190834
0.236902
0.288898
0.338217
0.355093
0.266611
-0.0161268
-0.505257
-0.945456
-1.22531
-1.32391
-1.45649
-1.37523
-1.42135
-1.41846
-1.14447
-0.615449
-0.502765
-0.430711
-0.118006
0.0052057
0.0102522
0.0192631
0.0276124
0.0380854
0.0512153
0.0679927
0.089132
0.115192
0.146527
0.183532
0.225604
0.270126
0.306099
0.30362
0.206183
-0.0579881
-0.466226
-0.833348
-1.07335
-1.16845
-1.21494
-1.21205
-1.00633
-1.27547
-1.0338
-0.706435
-0.606364
-0.468447
-0.315169
0.00498335
0.00987743
0.0184884
0.0265758
0.0367035
0.0494165
0.0656372
0.0860464
0.111062
0.140867
0.175364
0.213128
0.249989
0.273399
0.254906
0.153166
-0.0882619
-0.427493
-0.730799
-0.932005
-1.01896
-1.03325
-1.04785
-0.884171
-0.953272
-0.835435
-0.63134
-0.486718
-0.328119
-0.147613
0.00474208
0.00946207
0.017643
0.0254323
0.0351703
0.04741
0.063001
0.0825817
0.106425
0.134522
0.166285
0.1995
0.228729
0.240756
0.209852
0.107893
-0.108782
-0.388883
-0.63688
-0.802781
-0.878775
-0.902151
-0.874088
-0.738327
-0.622345
-0.610384
-0.46829
-0.296189
-0.139662
0.00845197
0.00448036
0.00900151
0.0167199
0.0241701
0.0334688
0.0451713
0.0600507
0.0786945
0.101228
0.12744
0.156264
0.184784
0.206657
0.208828
0.171431
0.0676421
-0.120998
-0.350438
-0.55098
-0.685318
-0.74786
-0.756244
-0.724423
-0.594725
-0.552843
-0.46981
-0.362916
-0.206479
-0.0782078
-0.00118734
0.00419655
0.00849076
0.0157115
0.0227765
0.03158
0.0426737
0.0567504
0.0743381
0.0954192
0.119572
0.145292
0.169096
0.184131
0.178081
0.136775
0.0357935
-0.12608
-0.312343
-0.472592
-0.579485
-0.628627
-0.630465
-0.595084
-0.515544
-0.448433
-0.371635
-0.311945
-0.246885
-0.203158
-0.156202
0.00388887
0.00792435
0.0146093
0.0212375
0.0294837
0.0398879
0.0530611
0.0694637
0.0889439
0.110875
0.133378
0.152588
0.161536
0.149129
0.106226
0.0115897
-0.1252
-0.274867
-0.401343
-0.48509
-0.523027
-0.522307
-0.492201
-0.438143
-0.384216
-0.337281
-0.281066
-0.25425
-0.203444
-0.185137
0.00355543
0.00729646
0.0134042
0.0195378
0.0271575
0.0367827
0.0489412
0.0640202
0.0817486
0.101314
0.120561
0.135447
0.139257
0.123743
0.0785962
-0.00588495
-0.119472
-0.238317
-0.336879
-0.401597
-0.430867
-0.430158
-0.407471
-0.37016
-0.32984
-0.290374
-0.25869
-0.221604
-0.209198
-0.203412
0.00319416
0.00660086
0.0120859
0.0176613
0.0245781
0.033325
0.0443471
0.0579551
0.0737815
0.0908642
0.106896
0.117871
0.117544
0.100351
0.0560153
-0.0173733
-0.109913
-0.202979
-0.278772
-0.328305
-0.351121
-0.35157
-0.336064
-0.311278
-0.283998
-0.258862
-0.236929
-0.222146
-0.209722
-0.204098
0.00280285
0.00583107
0.0106438
0.0155909
0.0217205
0.0294802
0.0392337
0.0512157
0.0649924
0.0795099
0.0924489
0.100055
0.0967021
0.0792519
0.0381197
-0.0236849
-0.0974113
-0.169047
-0.226428
-0.264147
-0.282118
-0.283934
-0.274566
-0.259072
-0.241832
-0.225727
-0.212476
-0.202417
-0.196691
-0.194118
0.00237908
0.00498044
0.00906628
0.0133089
0.0185596
0.0252132
0.0335556
0.04375
0.0553342
0.06724
0.0772834
0.0821664
0.0775726
0.0598991
0.0244304
-0.0256475
-0.0826999
-0.136554
-0.179289
-0.207595
-0.221838
-0.2248
-0.220133
-0.211383
-0.201396
-0.192074
-0.184435
-0.178953
-0.175485
-0.173914
0.00192022
0.00404237
0.00734144
0.0107974
0.0150701
0.0204896
0.0272682
0.0355073
0.0447617
0.0540405
0.0614371
0.064235
0.0592597
0.0433071
0.0145179
-0.0240329
-0.0663334
-0.105262
-0.136231
-0.157007
-0.168183
-0.171795
-0.170361
-0.166201
-0.161098
-0.156223
-0.152213
-0.149314
-0.147541
-0.146737
0.00142337
0.0030106
0.00545732
0.00803937
0.0112284
0.0152771
0.02033
0.0264402
0.0332295
0.0398828
0.0449015
0.0462437
0.0417981
0.0290836
0.00779272
-0.019544
-0.0487069
-0.075123
-0.0961749
-0.110663
-0.119079
-0.122766
-0.123285
-0.122021
-0.120019
-0.117954
-0.116201
-0.114914
-0.114111
-0.113738
0.000885368
0.00187963
0.00340244
0.00501902
0.00701353
0.0095479
0.0127051
0.0165055
0.0206885
0.024709
0.0275939
0.0280583
0.024954
0.016673
0.00354201
-0.0127844
-0.0298862
-0.045355
-0.0578288
-0.0667809
-0.072519
-0.0757459
-0.0772415
-0.0776805
-0.0775651
-0.0772274
-0.0768612
-0.0765621
-0.0763636
-0.0762636
0.000302674
0.000645303
0.00116649
0.00172324
0.00240964
0.00328202
0.00436676
0.00566644
0.00708195
0.00841548
0.00931993
0.00934755
0.00817859
0.00522674
0.000787737
-0.0045293
-0.0098461
-0.0150918
-0.0195938
-0.0232574
-0.0261854
-0.028495
-0.030296
-0.0316785
-0.0327157
-0.0334688
-0.0339901
-0.0343255
-0.0345148
-0.0345922
1345.33
1354.66
1357.9
1424.37
1655.27
1261.98
549.585
97.5773
159.204
146.489
50.6245
32.0144
32.3773
32.2521
33.9818
34.746
36.0796
36.8141
36.4891
35.0574
32.828
30.0092
26.8253
23.5097
20.2591
17.2323
14.5624
12.3754
10.8417
10.7474
1279.2
1285.6
1276.62
1349.79
1539.7
1202.51
470.429
125.586
165.583
121.183
43.4675
14.3573
6.26297
2.33272
1.85663
0.878693
0.56224
0.406077
0.306928
0.234801
0.182247
0.141892
0.109977
0.0842405
0.0640553
0.0482017
0.0355191
0.0255917
0.0129092
0.00698963
1227.51
1226.72
1208.38
1284.17
1380.63
1105.36
473.326
102.059
30.2945
24.3511
15.5272
8.35137
2.1924
1.5639
1.76462
0.863342
0.550894
0.393237
0.296383
0.229143
0.178997
0.139421
0.108162
0.0829469
0.063152
0.0475751
0.0350765
0.0252655
0.0128565
0.00701884
1174.21
1173.54
1149.91
1220.37
1188.59
973.528
449.328
68.1073
2.87984
-0.134734
-1.0521
-1.93252
-0.961698
1.2593
1.64333
0.849543
0.54752
0.391293
0.294983
0.228053
0.178122
0.138711
0.107586
0.0824776
0.0627692
0.047263
0.0348207
0.0250525
0.0127794
0.00696356
1126.91
1116.08
1100.64
1160.61
1001.38
739.905
306.484
39.6624
-1.67058
-2.56172
-2.62552
-2.65558
-1.11592
1.10744
1.50428
0.830622
0.542407
0.388702
0.293268
0.226776
0.177122
0.137907
0.106933
0.0819434
0.0623295
0.0469019
0.0345246
0.024807
0.0126743
0.00688501
1069.82
1060.54
1045.41
1082.98
878.691
470.397
105.525
1.45575
-2.50019
-2.9079
-2.86281
-2.56186
-1.07076
0.956185
1.36229
0.806327
0.535148
0.385185
0.291037
0.225162
0.175879
0.136922
0.106143
0.0813058
0.061811
0.0464806
0.0341827
0.0245256
0.0125524
0.00679811
1008.94
1001.45
984.257
982.091
710.156
199.351
6.17527
-1.95478
-2.60009
-2.86659
-2.76895
-2.38795
-0.987849
0.80637
1.22322
0.776778
0.525733
0.38077
0.288348
0.223274
0.174452
0.135807
0.105258
0.0805974
0.0612398
0.0460202
0.0338124
0.0242232
0.0124248
0.00671019
944.133
930.946
908.239
864.15
553.987
25.1502
-4.84151
-1.54563
-2.42793
-2.77622
-2.62498
-2.19733
-0.91308
0.665592
1.08836
0.742126
0.514033
0.375374
0.285169
0.221099
0.172837
0.134559
0.104274
0.0798148
0.0606116
0.0455159
0.033409
0.0238954
0.0122858
0.00661502
867.041
855.98
817.579
720.82
435.321
-10.5223
-3.96881
-1.1663
-2.38182
-2.61101
-2.45294
-2.00905
-0.843234
0.535873
0.958556
0.702636
0.499891
0.368863
0.281423
0.218593
0.171005
0.133158
0.103176
0.0789456
0.0599165
0.0449598
0.0329664
0.0235376
0.0121321
0.00651016
777.501
754.793
700.131
593.283
293.186
2.17364
-2.69359
-1.61071
-2.24169
-2.41009
-2.26378
-1.82526
-0.778615
0.418111
0.834767
0.658748
0.483191
0.361107
0.277028
0.215706
0.168923
0.131581
0.101947
0.0779785
0.0591464
0.0443462
0.0324806
0.0231475
0.0119625
0.00639543
675.896
652.302
592.561
468.902
84.6851
-0.978304
-2.22696
-1.70438
-2.12564
-2.20202
-2.06985
-1.64917
-0.721761
0.314212
0.717882
0.611076
0.463874
0.351986
0.271901
0.212386
0.166559
0.129807
0.100573
0.0769019
0.0582931
0.0436694
0.031948
0.0227227
0.0117762
0.00627063
567.583
540.528
478.165
347.384
14.7465
-1.89887
-2.05636
-1.71727
-2.01536
-2.00573
-1.88095
-1.48378
-0.673166
0.225232
0.608661
0.560396
0.441945
0.341392
0.265956
0.208576
0.163873
0.127808
0.0990343
0.0757025
0.0573469
0.0429225
0.0313637
0.0222604
0.011571
0.00613491
453.873
427.093
334.95
152.971
3.15519
-2.61746
-2.20809
-1.66374
-1.90818
-1.8229
-1.70065
-1.32963
-0.627985
0.147562
0.507652
0.507625
0.417483
0.329241
0.259108
0.204217
0.160826
0.125557
0.0973098
0.0743649
0.0562966
0.0420974
0.0307222
0.0217569
0.011345
0.00598728
298.688
235.437
85.5441
7.57167
-1.84229
-3.26919
-2.31887
-1.52337
-1.80536
-1.64339
-1.52913
-1.18715
-0.584995
0.0809598
0.415298
0.453779
0.390667
0.315477
0.251277
0.199245
0.157372
0.123021
0.0953758
0.0728718
0.0551297
0.0411852
0.0300172
0.0212084
0.0110956
0.00582674
53.9646
28.8078
0.289896
-0.853054
-1.54011
-2.45165
-2.12752
-1.43395
-1.65179
-1.47433
-1.36508
-1.05608
-0.54361
0.025145
0.33213
0.399925
0.361787
0.300085
0.242393
0.193596
0.153462
0.120164
0.093206
0.0712038
0.053832
0.0401758
0.0292421
0.0206107
0.0108202
0.00565218
-0.118379
-0.433265
-0.508799
-0.624602
-1.14541
-1.41101
-1.42871
-1.37046
-1.44601
-1.30833
-1.20893
-0.935717
-0.503615
-0.021045
0.259081
0.347133
0.331253
0.283097
0.232398
0.187208
0.149045
0.116946
0.0907707
0.069339
0.0523879
0.0390583
0.0283891
0.0199593
0.0105157
0.00546246
-0.315424
-0.471225
-0.609825
-0.709047
-1.02999
-1.27195
-1.0088
-1.20854
-1.20749
-1.15601
-1.06055
-0.825452
-0.464672
-0.0619377
0.199657
0.296399
0.299574
0.264605
0.221257
0.180021
0.144066
0.113324
0.0880374
0.0672534
0.0507797
0.03782
0.0274498
0.0192489
0.0101787
0.0052563
-0.14762
-0.326812
-0.484074
-0.629324
-0.834975
-0.954886
-0.880892
-1.04385
-1.02585
-1.00923
-0.922093
-0.724476
-0.4261
-0.0914225
0.147589
0.248395
0.267341
0.244776
0.208961
0.171982
0.13847
0.109253
0.0849699
0.0649198
0.0489877
0.0364472
0.0264148
0.018474
0.00980568
0.00503236
0.0098943
-0.135471
-0.292235
-0.466867
-0.610567
-0.623697
-0.736997
-0.870301
-0.896081
-0.871185
-0.795174
-0.631889
-0.387697
-0.111313
0.103211
0.204002
0.23519
0.223851
0.195533
0.163049
0.132205
0.104683
0.0815292
0.0623085
0.0469903
0.0349244
0.0252738
0.0176283
0.00939237
0.00478919
1.33083e-05
-0.0754133
-0.205218
-0.362365
-0.468597
-0.55065
-0.592254
-0.720985
-0.751322
-0.741944
-0.679531
-0.547106
-0.34948
-0.123038
0.063625
0.166333
0.203777
0.202137
0.181043
0.153194
0.125218
0.099564
0.0776729
0.0593866
0.0447634
0.0332347
0.0240151
0.0167048
0.00893427
0.00452523
-0.155479
-0.202295
-0.245475
-0.310917
-0.370289
-0.446891
-0.513062
-0.592049
-0.626496
-0.62406
-0.575125
-0.469648
-0.311614
-0.127741
0.032384
0.132355
0.173564
0.179988
0.165604
0.142407
0.117461
0.0938425
0.0733555
0.0561187
0.0422807
0.0313594
0.0226262
0.015696
0.00842645
0.00423879
-0.185026
-0.203259
-0.253164
-0.280125
-0.336061
-0.382554
-0.436059
-0.489604
-0.519165
-0.519536
-0.481847
-0.399161
-0.274356
-0.126567
0.00872059
0.102409
0.145164
0.157784
0.149367
0.1307
0.108892
0.087466
0.0685295
0.0524662
0.0395137
0.0292781
0.0210934
0.0145935
0.00786355
0.00392811
-0.203286
-0.208873
-0.221152
-0.257929
-0.289373
-0.328542
-0.368438
-0.405377
-0.427724
-0.428265
-0.399246
-0.33531
-0.237996
-0.120608
-0.00827495
0.0753784
0.120279
0.135905
0.13252
0.118111
0.0994792
0.0803822
0.0631448
0.0483883
0.0364314
0.0269689
0.0194016
0.0133882
0.0072398
0.00359124
-0.204052
-0.209559
-0.221806
-0.236389
-0.258093
-0.282951
-0.309952
-0.334464
-0.34974
-0.349211
-0.326596
-0.277673