/*--------------------------------*- C++ -*----------------------------------*\
| =========                 |                                                 |
| \\      /  F ield         | OpenFOAM: The Open Source CFD Toolbox           |
|  \\    /   O peration     | Version:  2.4.0                                 |
|   \\  /    A nd           | Web:      www.OpenFOAM.org                      |
|    \\/     M anipulation  |                                                 |
\*---------------------------------------------------------------------------*/
FoamFile
{
    version     2.0;
    format      ascii;
    class       volScalarField;
    location    "0.134";
    object      alpha.water;
}
// * * * * * * * * * * * * * * * * * * * * * * * * * * * * * * * * * * * * * //

dimensions      [0 0 0 0 0 0 0];

internalField   nonuniform List<scalar> 
10000
(
1.25669e-68
5.08165e-66
3.09315e-64
3.21128e-62
2.68809e-60
2.34161e-58
4.66239e-56
1.17456e-53
2.58136e-51
4.58566e-49
6.47697e-47
7.30956e-45
6.69155e-43
5.08784e-41
3.30737e-39
1.88454e-37
9.51759e-36
4.23451e-34
1.62521e-32
5.25775e-31
1.43702e-29
3.10221e-28
4.95315e-27
5.97979e-26
5.34397e-25
3.59121e-24
1.84804e-23
7.49786e-23
2.45081e-22
4.65295e-22
5.51799e-22
4.28643e-22
2.22138e-22
7.73293e-23
1.80487e-23
2.80151e-24
2.86445e-25
1.95767e-26
8.72207e-28
2.32721e-29
4.06932e-31
4.51249e-33
3.62464e-35
2.09115e-37
6.78136e-40
2.03059e-42
6.07483e-45
1.86238e-47
4.72101e-50
1.81116e-50
2.23413e-64
1.15871e-61
1.20444e-59
7.60039e-57
3.72966e-54
1.2268e-51
2.74764e-49
4.42885e-47
5.38252e-45
5.10662e-43
3.88566e-41
2.42553e-39
1.26685e-37
5.62963e-36
2.15573e-34
7.16925e-33
2.07653e-31
5.22907e-30
1.13987e-28
2.15148e-27
3.552e-26
5.02648e-25
5.77059e-24
5.21782e-23
3.69634e-22
2.07503e-21
9.36283e-21
3.48005e-20
1.05946e-19
1.94987e-19
2.32418e-19
1.87546e-19
1.04168e-19
4.00767e-20
1.0662e-20
1.952e-21
2.43394e-22
2.08279e-23
1.20902e-24
4.4986e-26
1.13079e-27
2.04024e-29
3.22378e-31
4.98261e-33
7.94518e-35
1.1567e-36
1.33488e-38
1.11073e-40
2.07029e-42
1.21456e-40
2.3122e-60
2.53193e-57
3.49477e-54
2.02457e-51
6.32134e-49
1.23031e-46
1.64456e-44
1.61747e-42
1.23089e-40
7.52039e-39
3.79002e-37
1.60719e-35
5.82102e-34
1.82115e-32
4.96257e-31
1.18415e-29
2.48018e-28
4.55808e-27
7.34109e-26
1.0389e-24
1.30186e-23
1.42625e-22
1.31286e-21
9.75312e-21
5.87597e-20
2.89688e-19
1.1864e-18
4.12344e-18
1.18728e-17
2.12777e-17
2.54793e-17
2.12801e-17
1.25774e-17
5.29258e-18
1.58282e-18
3.35935e-19
4.99114e-20
5.20676e-21
3.80073e-22
1.87851e-23
6.59066e-25
1.90339e-26
5.57169e-28
1.7392e-29
5.156e-31
1.29593e-32
2.47321e-34
3.04189e-36
7.93023e-37
3.84712e-35
1.92915e-56
5.98635e-53
5.45279e-50
2.16521e-47
4.77471e-45
6.70561e-43
6.56241e-41
4.77384e-39
2.70999e-37
1.24594e-35
4.77105e-34
1.55311e-32
4.36081e-31
1.06689e-29
2.29032e-28
4.33396e-27
7.24586e-26
1.07067e-24
1.39799e-23
1.61754e-22
1.66818e-21
1.51941e-20
1.17775e-19
7.52238e-19
3.98612e-18
1.77029e-17
6.70019e-17
2.19898e-16
6.01663e-16
1.04961e-15
1.25959e-15
1.08498e-15
6.78047e-16
3.09569e-16
1.03077e-16
2.50379e-17
4.36266e-18
5.44053e-19
4.8442e-20
3.03484e-21
1.40343e-22
5.77895e-24
2.62955e-25
1.24511e-26
5.55208e-28
2.07096e-29
5.32052e-31
7.29985e-33
1.00711e-32
3.55332e-31
6.36927e-53
1.69587e-49
1.16185e-46
3.561e-44
6.1771e-42
6.918e-40
5.4507e-38
3.21319e-36
1.48503e-34
5.58021e-33
1.75332e-31
4.70347e-30
1.09326e-28
2.2238e-27
3.98475e-26
6.31637e-25
8.87779e-24
1.10721e-22
1.22569e-21
1.20767e-20
1.06442e-19
8.34e-19
5.60241e-18
3.14995e-17
1.49545e-16
6.0706e-16
2.1449e-15
6.67144e-15
1.73224e-14
2.93326e-14
3.51582e-14
3.11285e-14
2.04512e-14
1.00626e-14
3.70254e-15
1.01966e-15
2.06244e-16
3.03022e-17
3.22558e-18
2.48191e-19
1.45543e-20
8.00083e-22
5.0723e-23
3.32566e-24
2.03509e-25
9.96677e-27
3.0139e-28
4.19665e-30
1.71189e-29
4.67355e-28
5.89817e-50
1.27566e-46
7.14622e-44
1.81382e-41
2.63225e-39
2.48598e-37
1.66153e-35
8.34285e-34
3.29312e-32
1.05876e-30
2.85055e-29
6.56276e-28
1.31152e-26
2.29816e-25
3.55421e-24
4.87133e-23
5.93067e-22
6.41933e-21
6.18001e-20
5.30441e-19
4.07797e-18
2.79799e-17
1.65625e-16
8.30843e-16
3.57312e-15
1.33757e-14
4.43498e-14
1.30618e-13
3.20298e-13
5.24384e-13
6.25391e-13
5.67367e-13
3.89818e-13
2.05482e-13
8.30505e-14
2.57651e-14
6.01029e-15
1.03227e-15
1.29925e-16
1.20556e-17
8.73734e-19
6.16017e-20
5.14256e-21
4.40835e-22
3.42661e-23
2.03793e-24
6.85552e-26
9.8078e-28
7.65203e-27
1.7067e-25
2.15582e-47
3.97544e-44
1.91201e-41
4.19161e-39
5.2821e-37
4.35119e-35
2.54529e-33
1.12118e-31
3.88753e-30
1.09852e-28
2.59974e-27
5.26139e-26
9.24468e-25
1.42486e-23
1.93924e-22
2.34033e-21
2.51046e-20
2.39608e-19
2.03554e-18
1.54208e-17
1.04636e-16
6.3528e-16
3.34684e-15
1.51059e-14
5.92702e-14
2.05708e-13
6.41052e-13
1.78039e-12
4.09659e-12
6.45902e-12
7.63636e-12
7.07855e-12
5.06155e-12
2.84302e-12
1.25596e-12
4.37186e-13
1.17235e-13
2.34884e-14
3.48179e-15
3.85904e-16
3.39222e-17
2.96584e-18
3.13024e-19
3.35634e-20
3.15733e-21
2.19277e-22
8.14811e-24
1.24452e-25
1.28823e-24
2.45975e-23
4.10223e-45
6.6726e-42
2.83681e-39
5.51213e-37
6.17316e-35
4.52991e-33
2.36466e-31
9.30492e-30
2.88301e-28
7.27708e-27
1.53714e-25
2.77412e-24
4.34322e-23
5.96113e-22
7.22152e-21
7.75465e-20
7.39991e-19
6.2823e-18
4.74658e-17
3.1962e-16
1.92647e-15
1.04116e-14
4.912e-14
2.00605e-13
7.21578e-13
2.3282e-12
6.80827e-12
1.77209e-11
3.80182e-11
5.75459e-11
6.72477e-11
6.35202e-11
4.70633e-11
2.80381e-11
1.34755e-11
5.25394e-12
1.61812e-12
3.79162e-13
6.63067e-14
8.74931e-15
9.2145e-16
9.7339e-17
1.25299e-17
1.61634e-18
1.79374e-19
1.43559e-20
6.06086e-22
9.86701e-24
1.01544e-22
1.72598e-21
4.87377e-43
7.12968e-40
2.72633e-37
4.76978e-35
4.81562e-33
3.1891e-31
1.50343e-29
5.34355e-28
1.49472e-26
3.40255e-25
6.47229e-24
1.05019e-22
1.47605e-21
1.81641e-20
1.97086e-19
1.89375e-18
1.61565e-17
1.22536e-16
8.26448e-16
4.96271e-15
2.66527e-14
1.28599e-13
5.45241e-13
2.02185e-12
6.68552e-12
2.0058e-11
5.48147e-11
1.32784e-10
2.64349e-10
3.83422e-10
4.42263e-10
4.24526e-10
3.24506e-10
2.04532e-10
1.06261e-10
4.64606e-11
1.64364e-11
4.53079e-12
9.40654e-13
1.47776e-13
1.84983e-14
2.3006e-15
3.49746e-16
5.28588e-17
6.82515e-18
6.3345e-19
3.14887e-20
5.46603e-22
4.30735e-21
6.75288e-20
4.06808e-41
5.40842e-38
1.87856e-35
2.98635e-33
2.74093e-31
1.65071e-29
7.07702e-28
2.28644e-26
5.80768e-25
1.19861e-23
2.063e-22
3.02241e-21
3.82795e-20
4.23762e-19
4.13035e-18
3.56058e-17
2.72184e-16
1.8474e-15
1.1138e-14
5.97208e-14
2.86176e-13
1.23393e-12
4.70784e-12
1.58711e-11
4.82587e-11
1.34322e-10
3.41091e-10
7.64037e-10
1.40808e-09
1.95733e-09
2.23049e-09
2.16935e-09
1.70193e-09
1.13808e-09
6.31733e-10
3.11143e-10
1.26412e-10
4.128e-11
1.02668e-11
1.92751e-12
2.84613e-13
4.06713e-14
7.10135e-15
1.23424e-15
1.84071e-16
2.00789e-17
1.21792e-18
2.41718e-20
1.08024e-19
1.6181e-18
2.57916e-39
3.13097e-36
9.92592e-34
1.44041e-31
1.20701e-29
6.63654e-28
2.59675e-26
7.65055e-25
1.7697e-23
3.31977e-22
5.18151e-21
6.86684e-20
7.84846e-19
7.8246e-18
6.85649e-17
5.30588e-16
3.63582e-15
2.20914e-14
1.19091e-13
5.70352e-13
2.43926e-12
9.3979e-12
3.22543e-11
9.87636e-11
2.75516e-10
7.08158e-10
1.66047e-09
3.4229e-09
5.84191e-09
7.80257e-09
8.81913e-09
8.65851e-09
6.93332e-09
4.98102e-09
2.88847e-09
1.61374e-09
7.50823e-10
2.92191e-10
8.79582e-11
1.99413e-11
3.4725e-12
5.60456e-13
1.08906e-13
2.14316e-14
3.67131e-15
4.74585e-16
3.6164e-17
9.32691e-19
1.70425e-18
2.53496e-17
1.30703e-37
1.45022e-34
4.20245e-32
5.57555e-30
4.27192e-28
2.14734e-26
7.67741e-25
2.06485e-23
4.35368e-22
7.42929e-21
1.05223e-19
1.26204e-18
1.30208e-17
1.1691e-16
9.20844e-16
6.39447e-15
3.92601e-14
2.13445e-13
1.02849e-12
4.39935e-12
1.67919e-11
5.77269e-11
1.77886e-10
4.93276e-10
1.25678e-09
2.96483e-09
6.38099e-09
1.2076e-08
1.91483e-08
2.46544e-08
2.78436e-08
2.74303e-08
2.25258e-08
1.77532e-08
1.03419e-08
6.58661e-09
3.48225e-09
1.62255e-09
5.96689e-10
1.66143e-10
3.47525e-11
6.30302e-12
1.32249e-12
2.88985e-13
5.62309e-14
8.57758e-15
8.39785e-16
3.20187e-17
1.75537e-17
2.71511e-16
5.45361e-36
5.52573e-33
1.46324e-30
1.7748e-28
1.24341e-26
5.71439e-25
1.86702e-23
4.58432e-22
8.81157e-21
1.36795e-19
1.75822e-18
1.90832e-17
1.77665e-16
1.43577e-15
1.01563e-14
6.32253e-14
3.47474e-13
1.68894e-12
7.26973e-12
2.7763e-11
9.45387e-11
2.89645e-10
7.98676e-10
1.99657e-09
4.61893e-09
9.93825e-09
1.95438e-08
3.39543e-08
5.02048e-08
6.22626e-08
7.12912e-08
6.92368e-08
6.13412e-08
5.33492e-08
2.95128e-08
2.12681e-08
1.26269e-08
7.06143e-09
3.18628e-09
1.10527e-09
2.84662e-10
5.88459e-11
1.31612e-11
3.1358e-12
6.83439e-13
1.21484e-13
1.50558e-14
8.96751e-16
1.25083e-16
2.0556e-15
1.88966e-34
1.74684e-31
4.22558e-29
4.68505e-27
3.00122e-25
1.26109e-23
3.76549e-22
8.44217e-21
1.47953e-19
2.09016e-18
2.43854e-17
2.39552e-16
2.01241e-15
1.46321e-14
9.28955e-14
5.1802e-13
2.54648e-12
1.10596e-11
4.25072e-11
1.4489e-10
4.39954e-10
1.1999e-09
2.94949e-09
6.61185e-09
1.38066e-08
2.69562e-08
4.83332e-08
7.72487e-08
1.05779e-07
1.29901e-07
1.60729e-07
1.37564e-07
1.49858e-07
1.36954e-07
6.79297e-08
5.34442e-08
3.54128e-08
2.37802e-08
1.31138e-08
5.69752e-09
1.8485e-09
4.5152e-10
1.08047e-10
2.78094e-11
6.7101e-12
1.36914e-12
2.0841e-13
1.84688e-14
8.98194e-16
1.12779e-14
5.38434e-33
4.54274e-30
1.00458e-27
1.01906e-25
5.97474e-24
2.2976e-22
6.27557e-21
1.28584e-19
2.05657e-18
2.6463e-17
2.80519e-16
2.49663e-15
1.89432e-14
1.2403e-13
7.07239e-13
3.53502e-12
1.55536e-11
6.03988e-11
2.07413e-10
6.31247e-10
1.70923e-09
4.14736e-09
9.0591e-09
1.81201e-08
3.39856e-08
6.00428e-08
9.83806e-08
1.44565e-07
1.3504e-07
2.4621e-07
4.35772e-07
1.70704e-07
2.68639e-07
2.88978e-07
1.24099e-07
9.83362e-08
7.58886e-08
6.0865e-08
4.05506e-08
2.19979e-08
9.18722e-09
2.82997e-09
7.58676e-10
2.11333e-10
5.55257e-11
1.2697e-11
2.28968e-12
2.74019e-13
1.43865e-14
4.54964e-14
1.23393e-31
9.51674e-29
1.92771e-26
1.79309e-24
9.64459e-23
3.40267e-21
8.52328e-20
1.60021e-18
2.34199e-17
2.75252e-16
2.6588e-15
2.15032e-14
1.4781e-13
8.74079e-13
4.48907e-12
2.01631e-11
7.95828e-11
2.76873e-10
8.50941e-10
2.31539e-09
5.59613e-09
1.20872e-08
2.34173e-08
4.16444e-08
6.9961e-08
1.11968e-07
1.68529e-07
1.84925e-07
1.58358e-06
7.9325e-06
9.77583e-06
6.01175e-06
1.29252e-06
3.80435e-07
1.69594e-07
1.1591e-07
1.25121e-07
1.17531e-07
9.26743e-08
6.1783e-08
3.3127e-08
1.33155e-08
4.27568e-09
1.33441e-09
3.8612e-10
9.82064e-11
2.04448e-11
3.0775e-12
2.51293e-13
1.36769e-13
2.23829e-30
1.58098e-27
2.93959e-25
2.51322e-23
1.24345e-21
4.03652e-20
9.30184e-19
1.60565e-17
2.15831e-16
2.32617e-15
2.05635e-14
1.51822e-13
9.49985e-13
5.09825e-12
2.36921e-11
9.60427e-11
3.41437e-10
1.06828e-09
2.94848e-09
7.1926e-09
1.55496e-08
2.99541e-08
5.14431e-08
8.13222e-08
1.22449e-07
1.75335e-07
1.80551e-07
1.25382e-06
1.01723e-05
1.14446e-05
1.14457e-05
1.14461e-05
7.89728e-06
1.87144e-07
1.86704e-07
2.73895e-07
1.63628e-07
1.7543e-07
1.58002e-07
1.25399e-07
8.43829e-08
4.47736e-08
1.84007e-08
6.76629e-09
2.23029e-09
6.38118e-10
1.51526e-10
2.73988e-11
3.12752e-12
3.87909e-13
3.17836e-29
2.06092e-26
3.52614e-24
2.7783e-22
1.26804e-20
3.79917e-19
8.08094e-18
1.28708e-16
1.59511e-15
1.58313e-14
1.28664e-13
8.71525e-13
4.99103e-12
2.44487e-11
1.0342e-10
3.80645e-10
1.22588e-09
3.46762e-09
8.63437e-09
1.89506e-08
3.67414e-08
6.3317e-08
9.70494e-08
1.38286e-07
1.887e-07
2.43621e-07
2.13213e-07
3.49255e-06
1.14321e-05
1.1447e-05
1.14473e-05
1.12299e-05
4.32716e-06
2.01059e-07
1.99957e-07
2.13373e-07
2.06788e-07
2.1732e-07
2.11664e-07
1.90417e-07
1.53886e-07
1.04857e-07
5.64194e-08
2.54933e-08
9.96227e-09
3.31189e-09
9.10861e-10
1.95235e-10
2.86482e-11
2.34124e-12
3.51714e-28
2.09955e-25
3.3147e-23
2.41369e-21
1.01917e-19
2.82668e-18
5.56682e-17
8.20778e-16
9.41104e-15
8.63345e-14
6.47714e-13
4.04353e-12
2.13005e-11
9.57729e-11
3.7103e-10
1.24792e-09
3.66503e-09
9.43482e-09
2.13271e-08
4.2361e-08
7.42016e-08
1.16691e-07
1.68753e-07
2.31681e-07
2.79905e-07
3.29744e-07
4.17835e-07
4.59559e-07
4.16953e-06
7.51896e-06
5.89092e-06
9.58522e-07
2.47369e-07
2.4732e-07
2.36224e-07
2.69147e-07
2.3654e-07
2.46107e-07
2.44477e-07
2.34315e-07
2.12962e-07
1.75021e-07
1.19935e-07
6.74145e-08
3.19728e-08
1.27035e-08
4.14722e-09
1.06396e-09
1.94891e-10
2.0282e-11
3.03851e-27
1.6759e-24
2.44978e-22
1.65414e-20
6.48278e-19
1.6697e-17
3.05404e-16
4.18125e-15
4.44946e-14
3.78534e-13
2.63098e-12
1.51983e-11
7.39877e-11
3.07021e-10
1.0963e-09
3.39454e-09
9.16731e-09
2.16688e-08
4.48977e-08
8.18676e-08
1.34496e-07
2.12416e-07
4.08738e-07
6.44672e-07
4.36596e-07
2.94197e-07
2.74493e-07
2.64561e-07
2.64614e-07
2.6473e-07
2.64895e-07
2.66003e-07
2.70163e-07
2.67484e-07
2.70618e-07
4.55303e-07
2.54885e-07
2.69244e-07
2.65398e-07
2.58147e-07
2.46957e-07
2.26529e-07
1.86716e-07
1.28778e-07
7.43833e-08
3.57118e-08
1.4017e-08
4.33731e-09
9.80372e-10
1.35666e-10
2.06491e-26
1.05656e-23
1.43563e-21
9.02351e-20
3.29477e-18
7.90897e-17
1.34819e-15
1.71952e-14
1.70355e-13
1.34816e-12
8.70888e-12
4.67205e-11
2.1112e-10
8.13255e-10
2.6983e-09
7.77958e-09
1.96296e-08
4.35767e-08
8.53368e-08
1.44304e-07
1.47155e-07
1.56566e-06
7.36246e-06
8.23221e-06
1.36924e-06
2.47756e-07
2.56818e-07
2.72877e-07
2.83028e-07
2.85891e-07
2.83623e-07
2.85001e-07
2.84057e-07
2.7973e-07
2.76345e-07
2.64045e-07
2.6253e-07
2.81917e-07
2.78806e-07
2.71726e-07
2.63035e-07
2.52769e-07
2.32262e-07
1.8835e-07
1.297e-07
7.45664e-08
3.50915e-08
1.3074e-08
3.61178e-09
6.404e-10
1.11667e-25
5.32739e-23
6.76192e-21
3.97548e-19
1.35869e-17
3.05307e-16
4.86971e-15
5.80662e-14
5.37155e-13
3.96322e-12
2.38255e-11
1.18699e-10
4.96897e-10
1.76802e-09
5.39929e-09
1.42709e-08
3.2883e-08
6.62368e-08
1.14336e-07
1.22791e-07
2.00171e-06
8.44122e-06
8.44723e-06
8.44974e-06
2.10212e-06
2.47897e-07
2.71693e-07
2.9484e-07
3.07682e-07
3.09875e-07
2.93982e-07
2.91805e-07
2.8644e-07
2.85477e-07
2.84477e-07
2.78257e-07
3.93711e-07
2.86428e-07
2.90369e-07
2.83495e-07
2.72399e-07
2.64034e-07
2.53972e-07
2.29665e-07
1.82338e-07
1.22968e-07
6.84608e-08
3.03794e-08
1.01131e-08
2.22619e-09
4.86855e-25
2.17925e-22
2.59977e-20
1.43834e-18
4.62832e-17
9.79049e-16
1.46898e-14
1.64563e-13
1.4278e-12
9.86019e-12
5.53546e-11
2.56911e-10
9.99511e-10
3.29821e-09
9.32623e-09
2.27987e-08
4.8506e-08
9.03354e-08
1.51996e-07
1.67695e-07
4.71171e-06
8.44336e-06
8.44451e-06
5.25441e-06
2.55038e-07
2.61225e-07
2.82447e-07
2.96436e-07
3.06589e-07
3.07573e-07
3.56285e-07
2.8955e-07
2.8813e-07
2.92509e-07
2.93928e-07
2.96115e-07
2.96536e-07
2.93828e-07
2.96988e-07
2.91334e-07
2.89229e-07
2.77462e-07
2.63562e-07
2.50504e-07
2.20809e-07
1.7025e-07
1.10113e-07
5.73354e-08
2.26298e-08
6.02239e-09
1.72876e-24
7.32048e-22
8.2737e-20
4.34101e-18
1.32512e-16
2.65826e-15
3.77895e-14
4.0052e-13
3.28148e-12
2.13505e-11
1.12638e-10
4.89928e-10
1.78137e-09
5.47922e-09
1.44099e-08
3.27278e-08
6.47739e-08
1.12162e-07
1.68837e-07
1.77404e-07
2.8294e-06
8.44384e-06
6.56557e-06
2.65622e-07
2.66029e-07
2.80773e-07
2.88275e-07
2.9616e-07
2.96835e-07
2.97484e-07
2.98931e-07
3.3621e-07
2.90305e-07
3.02401e-07
3.05809e-07
3.16336e-07
3.06893e-07
3.06033e-07
3.19539e-07
3.07763e-07
2.96511e-07
3.21136e-07
2.79941e-07
2.61436e-07
2.43263e-07
2.07629e-07
1.52662e-07
9.17417e-08
4.22447e-08
1.32902e-08
5.02479e-24
2.03425e-21
2.20023e-19
1.10536e-17
3.23066e-16
6.20138e-15
8.42618e-14
8.52248e-13
6.65016e-12
4.11136e-11
2.05573e-10
8.4521e-10
2.8975e-09
8.38392e-09
2.07072e-08
4.4132e-08
8.20133e-08
1.33778e-07
1.89724e-07
2.15333e-07
1.34336e-06
1.78235e-06
6.56001e-07
3.20092e-07
2.91901e-07
2.94265e-07
3.06856e-07
3.43052e-07
2.98713e-07
2.95918e-07
2.98282e-07
2.99986e-07
3.14859e-07
3.17029e-07
3.22967e-07
3.39819e-07
6.89998e-07
9.10675e-06
2.18714e-05
1.72233e-05
6.609e-07
3.97073e-07
3.13492e-07
2.74193e-07
2.54247e-07
2.30757e-07
1.88241e-07
1.28432e-07
6.80138e-08
2.48375e-08
1.1972e-23
4.69308e-21
4.91588e-19
2.39151e-17
6.76455e-16
1.25537e-14
1.64683e-13
1.60539e-12
1.20505e-11
7.15178e-11
3.4257e-10
1.34674e-09
4.40787e-09
1.21648e-08
2.86381e-08
5.81246e-08
1.02737e-07
1.59848e-07
2.21488e-07
2.75781e-07
2.97134e-07
3.09568e-07
3.00018e-07
2.99039e-07
3.03755e-07
3.1369e-07
3.38798e-07
3.90761e-07
3.18595e-07
3.05649e-07
3.15047e-07
3.06152e-07
3.193e-07
3.23114e-07
3.4968e-07
3.54748e-07
1.46836e-05
5.21087e-05
5.21075e-05
5.21006e-05
2.71616e-05
4.12774e-06
2.99002e-07
2.90831e-07
2.6566e-07
2.45984e-07
2.14602e-07
1.62331e-07
9.72513e-08
4.0551e-08
2.32699e-23
8.97455e-21
9.23425e-19
4.40691e-17
1.22096e-15
2.21556e-14
2.83632e-13
2.69243e-12
1.96336e-11
1.12913e-10
5.22726e-10
1.98082e-09
6.23273e-09
1.64938e-08
3.71339e-08
7.18513e-08
1.20514e-07
1.76303e-07
2.24013e-07
2.353e-07
2.98985e-07
3.1287e-07
3.21129e-07
3.30909e-07
3.36288e-07
3.24619e-07
3.64167e-07
3.90002e-07
3.28122e-07
3.2316e-07
3.25661e-07
6.98953e-07
2.1085e-06
9.36051e-07
3.61333e-07
4.88817e-07
3.1189e-05
5.20891e-05
5.21006e-05
5.21005e-05
5.20802e-05
7.9087e-06
2.80711e-07
2.88672e-07
2.5616e-07
2.41832e-07
2.25492e-07
1.8724e-07
1.25553e-07
5.90288e-08
3.64068e-23
1.41139e-20
1.45217e-18
6.9041e-17
1.89956e-15
3.41298e-14
4.31386e-13
4.0314e-12
2.88547e-11
1.62373e-10
7.33122e-10
2.70041e-09
8.23282e-09
2.10548e-08
4.57652e-08
8.56288e-08
1.38989e-07
1.92313e-07
2.04075e-07
4.02434e-07
2.89382e-07
2.89822e-07
3.20176e-07
4.33902e-07
3.53395e-07
3.72318e-06
1.24395e-05
1.22573e-05
1.9848e-06
3.25301e-07
7.06409e-07
5.8116e-06
7.44181e-06
6.83125e-06
1.57954e-06
5.53206e-07
1.7202e-05
5.20357e-05
5.20849e-05
5.20822e-05
3.41798e-05
4.28768e-06
2.48526e-07
2.41647e-07
2.25116e-07
2.76821e-07
2.10958e-07
2.01726e-07
1.50249e-07
7.81951e-08
4.4782e-23
1.79712e-20
1.89212e-18
9.13403e-17
2.53672e-15
4.57843e-14
5.78846e-13
5.38957e-12
3.82872e-11
2.13024e-10
9.4727e-10
3.42275e-09
1.01957e-08
2.53855e-08
5.35861e-08
9.73339e-08
1.54059e-07
2.12951e-07
2.56323e-07
2.74961e-07
1.09167e-06
3.13248e-06
1.05024e-06
4.53278e-07
2.01536e-06
1.85494e-05
2.09327e-05
2.09313e-05
1.08751e-05
3.30317e-07
1.74052e-06
7.44517e-06
7.44931e-06
7.44192e-06
5.57624e-06
5.38759e-07
4.73153e-07
1.19508e-05
2.96554e-05
2.43359e-05
2.49701e-07
2.46012e-07
2.40978e-07
2.37311e-07
2.33384e-07
2.32253e-07
2.48748e-07
2.44395e-07
1.55359e-07
9.59332e-08
4.19285e-23
1.81133e-20
2.00963e-18
1.00842e-16
2.88282e-15
5.31571e-14
6.82358e-13
6.41588e-12
4.57985e-11
2.54836e-10
1.12801e-09
4.03824e-09
1.18624e-08
2.89946e-08
5.98561e-08
1.06201e-07
1.65564e-07
2.34172e-07
3.02029e-07
3.2031e-07
9.18335e-06
1.61914e-05
7.4977e-06
4.96419e-07
7.1425e-06
2.09384e-05
2.0939e-05
2.09377e-05
8.5509e-06
3.26922e-07
3.60053e-07
3.59643e-06
7.45444e-06
7.44249e-06
3.59561e-06
4.90313e-07
4.30874e-07
3.72283e-07
3.61337e-07
3.33217e-07
2.91293e-07
2.54815e-07
2.51167e-07
2.45694e-07
2.39443e-07
3.06255e-07
2.00095e-07
1.7847e-07
1.70924e-07
1.08842e-07
2.86538e-23
1.40415e-20
1.70302e-18
9.13781e-17
2.75198e-15
5.28758e-14
7.01174e-13
6.76145e-12
4.91836e-11
2.77232e-10
1.2361e-09
4.43293e-09
1.29739e-08
3.14278e-08
6.39764e-08
1.1137e-07
1.69253e-07
2.32971e-07
2.41836e-07
5.07871e-06
1.61895e-05
1.61899e-05
1.61908e-05
4.29226e-06
4.0598e-06
2.09407e-05
2.09366e-05
1.4651e-05
3.11641e-07
3.26781e-07
3.44491e-07
3.7495e-07
2.17475e-06
3.8306e-06
3.0764e-06
2.95355e-06
9.96556e-07
4.16769e-07
3.85562e-07
3.67609e-07
3.42487e-07
2.96905e-07
2.93438e-07
2.77439e-07
3.11572e-07
2.0275e-07
1.93827e-07
1.52376e-07
1.45878e-07
1.11665e-07
1.34689e-23
8.06882e-21
1.12114e-18
6.65501e-17
2.16915e-15
4.44241e-14
6.20749e-13
6.24913e-12
4.70771e-11
2.72828e-10
1.2422e-09
4.51913e-09
1.33316e-08
3.23519e-08
6.56069e-08
1.1325e-07
1.69932e-07
2.30054e-07
2.40491e-07
6.8458e-06
1.61886e-05
1.61929e-05
1.61965e-05
3.53521e-06
6.04784e-07
8.82929e-06
1.61304e-05
6.74279e-07
3.12542e-07
3.22042e-07
1.05755e-06
5.19591e-06
5.34162e-06
6.03096e-06
1.33233e-05
1.42277e-05
1.43898e-05
1.3e-05
4.61314e-06
1.67765e-06
4.98125e-06
6.05675e-07
7.25783e-07
7.39811e-06
3.30247e-06
1.29129e-06
1.95603e-07
2.52513e-07
1.32387e-07
1.11471e-07
3.93533e-24
3.26503e-21
5.54256e-19
3.79589e-17
1.38179e-15
3.0949e-14
4.65964e-13
4.99651e-12
3.97103e-11
2.40725e-10
1.13734e-09
4.26054e-09
1.28442e-08
3.16177e-08
6.45924e-08
1.11709e-07
1.67397e-07
2.218e-07
2.31175e-07
2.92035e-06
1.58128e-05
1.61884e-05
1.13868e-05
3.3097e-07
5.89116e-07
6.30149e-07
2.97079e-07
2.99042e-07
3.31467e-07
3.4243e-07
4.38731e-06
8.30992e-06
8.32572e-06
6.23354e-06
4.49498e-06
9.52562e-06
1.58223e-05
3.16629e-05
4.78015e-05
3.8779e-05
3.0199e-05
3.65174e-06
8.20036e-06
2.42241e-05
5.77421e-06
7.55311e-06
7.49951e-06
6.24555e-07
1.38184e-07
1.05328e-07
6.3023e-25
8.77536e-22
1.97354e-19
1.64203e-17
6.93228e-16
1.7481e-14
2.90621e-13
3.3933e-12
2.90429e-11
1.87802e-10
9.38146e-10
3.68379e-09
1.15402e-08
2.92608e-08
6.10345e-08
1.06903e-07
1.61407e-07
2.16406e-07
2.66953e-07
3.13365e-07
3.67699e-06
9.06493e-06
1.76515e-06
3.24905e-07
3.63072e-07
3.2008e-07
2.9914e-07
3.08458e-07
3.28696e-07
3.59952e-07
5.03722e-06
7.32151e-06
2.79495e-06
3.17379e-07
3.20398e-07
3.2092e-07
3.21812e-07
2.19257e-06
4.68391e-05
5.65819e-05
6.97023e-05
4.39551e-05
3.64019e-05
1.17052e-05
6.09011e-06
6.61583e-06
3.78822e-06
1.62692e-07
1.48881e-07
1.00577e-07
8.28508e-26
2.11564e-22
6.39049e-20
6.43473e-18
3.12615e-16
8.81625e-15
1.6102e-13
2.04086e-12
1.88023e-11
1.30041e-10
6.91145e-10
2.87917e-09
9.55545e-09
2.54445e-08
5.51427e-08
9.92272e-08
1.52337e-07
2.06446e-07
2.57387e-07
3.21457e-07
3.29449e-07
3.60677e-07
3.31474e-07
3.23502e-07
3.17162e-07
3.03691e-07
3.0346e-07
3.13994e-07
3.2536e-07
5.14359e-07
7.95344e-07
3.03359e-07
3.04226e-07
3.11461e-07
3.19395e-07
3.23273e-07
3.3088e-07
3.58647e-07
1.00106e-05
9.43247e-05
0.000255719
0.000273543
0.000166275
1.30931e-05
4.28197e-06
2.15095e-07
5.99148e-08
4.98418e-08
4.40959e-08
4.142e-08
8.79967e-27
4.51071e-23
1.88055e-20
2.32257e-18
1.3089e-16
4.15287e-15
8.3729e-14
1.1568e-12
1.15148e-11
8.54756e-11
4.84999e-10
2.14504e-09
7.50939e-09
2.09922e-08
4.75062e-08
8.86695e-08
1.39889e-07
1.93026e-07
2.42275e-07
2.90026e-07
3.32362e-07
3.4497e-07
3.36499e-07
3.14421e-07
3.04197e-07
2.99767e-07
3.02841e-07
3.10711e-07
3.19716e-07
3.25553e-07
2.9913e-07
3.0471e-07
3.17836e-07
3.23566e-07
3.26213e-07
3.36229e-07
3.57934e-07
6.16284e-07
8.87118e-06
0.000316816
0.000370982
0.00106367
0.000606493
1.10606e-05
6.22033e-06
5.15315e-07
2.1077e-07
0.00172358
0.0338813
0.0401957
7.32178e-28
8.23319e-24
4.88855e-21
7.53876e-19
4.98776e-17
1.79547e-15
4.02094e-14
6.08461e-13
6.56872e-12
5.25039e-11
3.19053e-10
1.50365e-09
5.57827e-09
1.64664e-08
3.91796e-08
7.64291e-08
1.24983e-07
1.76773e-07
2.24279e-07
2.65738e-07
3.01254e-07
3.19642e-07
3.17004e-07
3.04051e-07
2.95454e-07
2.92856e-07
2.94413e-07
3.03283e-07
3.04605e-07
2.9619e-07
3.04593e-07
3.52778e-07
1.39091e-06
5.40016e-07
3.65956e-07
4.73025e-07
5.29429e-07
4.22197e-06
2.8802e-05
0.000295664
0.00184429
0.00123982
0.0767922
0.154139
0.312436
0.500031
0.672688
0.792398
0.837865
0.848822
4.97562e-29
1.30503e-24
1.13061e-21
2.20988e-19
1.73462e-17
7.13644e-16
1.78447e-14
2.96877e-13
3.48568e-12
3.00674e-11
1.96068e-10
9.87261e-10
3.89553e-09
1.21922e-08
3.06496e-08
6.28807e-08
1.07493e-07
1.57563e-07
2.04545e-07
2.43855e-07
2.7592e-07
2.96327e-07
3.00943e-07
2.94254e-07
2.88645e-07
2.87216e-07
3.95252e-07
2.89751e-07
2.97011e-07
2.95042e-07
3.06741e-07
3.08168e-07
2.51728e-06
6.66671e-06
5.27761e-07
8.04426e-07
4.2889e-05
2.85119e-05
3.03255e-05
8.00917e-05
0.0674058
0.311957
0.536555
0.79939
0.959273
0.999553
1
1
1
1
2.91104e-30
1.85119e-25
2.37819e-22
5.9528e-20
5.58325e-18
2.63792e-16
7.38851e-15
1.35417e-13
1.73133e-12
1.61288e-11
1.12903e-10
6.07627e-10
2.5528e-09
8.48392e-09
2.25915e-08
4.89556e-08
8.80693e-08
1.35064e-07
1.81618e-07
2.21197e-07
2.52464e-07
2.74131e-07
2.84372e-07
2.84255e-07
2.81955e-07
2.82808e-07
2.82538e-07
2.89212e-07
2.90508e-07
2.90162e-07
3.03057e-07
3.05639e-07
6.948e-07
7.06724e-06
3.2356e-06
3.68779e-05
0.000136026
3.07148e-05
8.00781e-05
0.10112
0.590346
0.824483
0.981011
0.999689
1
1
1
1
1
1
1.53823e-31
2.42035e-26
4.65142e-23
1.49926e-20
1.68605e-18
9.16625e-17
2.87836e-15
5.81226e-14
8.08788e-13
8.13011e-12
6.10211e-11
3.50509e-10
1.5665e-09
5.52624e-09
1.56004e-08
3.5793e-08
6.8059e-08
1.09941e-07
1.54699e-07
1.95185e-07
2.27931e-07
2.51891e-07
2.66479e-07
2.67393e-07
2.72325e-07
2.75689e-07
2.78284e-07
2.8153e-07
2.90331e-07
2.85704e-07
2.94072e-07
3.00486e-07
3.37783e-07
9.69776e-07
6.19782e-06
0.000348793
0.000146345
0.000103895
0.150064
0.742232
0.960606
0.999801
0.999939
0.999986
1
1
1
1
1
1
7.59605e-33
2.97278e-27
8.56813e-24
3.56125e-21
4.80348e-19
3.00348e-17
1.05631e-15
2.34656e-14
3.54764e-13
3.84059e-12
3.08431e-11
1.88673e-10
8.95461e-10
3.3495e-09
1.0022e-08
2.43705e-08
4.91032e-08
8.39168e-08
1.24492e-07
1.64555e-07
1.99358e-07
2.26649e-07
2.11979e-07
3.7356e-07
2.93122e-07
2.77275e-07
2.73279e-07
2.62929e-07
4.12153e-07
2.87055e-07
3.01454e-07
4.05806e-07
3.90085e-06
7.11295e-05
0.000232195
0.000345745
0.000181319
0.117001
0.760403
0.998858
0.999934
0.999988
0.999996
0.999999
1
1
1
1
1
1
3.54564e-34
3.43739e-28
1.48411e-24
7.94641e-22
1.28366e-19
9.21546e-18
3.62284e-16
8.83479e-15
1.448e-13
1.68445e-12
1.44429e-11
9.38947e-11
4.72479e-10
1.8718e-09
5.93285e-09
1.52947e-08
3.26982e-08
5.92828e-08
9.31909e-08
1.30088e-07
1.65349e-07
1.95631e-07
2.04759e-07
2.08985e-07
2.54363e-07
2.61985e-07
2.64014e-07
2.58954e-07
2.61071e-07
2.89008e-07
3.02385e-07
9.24787e-07
1.51991e-05
0.00044764
0.00155876
0.00196083
0.0541154
0.597127
0.959855
0.999934
0.999989
0.999999
1
1
1
1
1
1
1
1
1.54477e-35
3.68842e-29
2.38123e-25
1.64009e-22
3.1678e-20
2.60645e-18
1.14322e-16
3.05446e-15
5.41679e-14
6.75855e-13
6.17648e-12
4.26121e-11
2.27091e-10
9.52119e-10
3.19553e-09
8.73376e-09
1.98254e-08
3.8198e-08
6.38304e-08
9.45978e-08
1.27163e-07
1.58134e-07
1.78578e-07
1.96849e-07
2.21494e-07
2.3795e-07
2.1577e-07
3.43728e-07
3.07973e-07
2.85413e-07
2.71087e-07
5.73832e-07
6.99688e-06
8.88928e-05
0.000809091
0.0238966
0.365006
0.838957
0.999843
0.999991
0.999999
1
1
1
1
1
1
1
1
1
6.10913e-37
3.58319e-30
3.45678e-26
3.06059e-23
7.06137e-21
6.65122e-19
3.25052e-17
9.50186e-16
1.82082e-14
2.43355e-13
2.36777e-12
1.73213e-11
9.77065e-11
4.33399e-10
1.53996e-09
4.46236e-09
1.07597e-08
2.20547e-08
3.92535e-08
6.19662e-08
8.8566e-08
1.16637e-07
1.41353e-07
1.63334e-07
1.86348e-07
2.06587e-07
2.11638e-07
2.06868e-07
2.1842e-07
2.70046e-07
2.25808e-07
4.5218e-07
2.10231e-06
-2.40799e-08
0.000103587
0.102519
0.597743
0.99037
0.999968
0.999998
1
1
1
1
1
1
1
1
1
1
2.12184e-38
3.06159e-31
4.41704e-27
5.02835e-24
1.38547e-21
1.49305e-19
8.12318e-18
2.59541e-16
5.36895e-15
7.67943e-14
7.94893e-13
6.16299e-12
3.67847e-11
1.72605e-10
6.4927e-10
1.99476e-09
5.11008e-09
1.11499e-08
2.11608e-08
3.5653e-08
5.43661e-08
7.6234e-08
9.89785e-08
1.21446e-07
1.44282e-07
1.66208e-07
1.81594e-07
1.90268e-07
1.88206e-07
2.02522e-07
2.1409e-07
2.9059e-07
2.32331e-08
2.24152e-08
-4.69455e-07
0.201991
0.853993
0.999736
0.999987
0.999999
1
1
1
1
1
1
1
1
1
1
6.25915e-40
2.23088e-32
4.82084e-28
7.06052e-25
2.32315e-22
2.86284e-20
1.73246e-18
6.04361e-17
1.34805e-15
2.06126e-14
2.26767e-13
1.86204e-12
1.17523e-11
5.83106e-11
2.32124e-10
7.55886e-10
2.05681e-09
4.77739e-09
9.67149e-09
1.74091e-08
2.83811e-08
4.25332e-08
5.9202e-08
7.76722e-08
9.76581e-08
1.18445e-07
1.37607e-07
1.52464e-07
1.59215e-07
1.53413e-07
2.11599e-07
6.70194e-07
1.06566e-07
2.293e-08
-2.85546e-07
0.412712
0.982758
1
1
1
1
1
1
1
1
1
1
1
1
1
1.5144e-41
1.33983e-33
4.34278e-29
8.18434e-26
3.21397e-23
4.52352e-21
3.03952e-19
1.1553e-17
2.77244e-16
4.52169e-15
5.27565e-14
4.57864e-13
3.0499e-12
1.5973e-11
6.71814e-11
2.31509e-10
6.68107e-10
1.6498e-09
3.5593e-09
6.84244e-09
1.19335e-08
1.91559e-08
2.86327e-08
4.0353e-08
5.42884e-08
7.02341e-08
8.73438e-08
1.03875e-07
1.17068e-07
1.22875e-07
1.39462e-07
1.61772e-07
1.12759e-07
2.05123e-08
-1.2363e-07
0.660651
1
1
1
1
1
1
1
1
1
1
1
1
1
1
2.88611e-43
6.36255e-35
3.0938e-30
7.49355e-27
3.50446e-24
5.6162e-22
4.17403e-20
1.72094e-18
4.42127e-17
7.65127e-16
9.4168e-15
8.59112e-14
6.00621e-13
3.3021e-12
1.45939e-11
5.29297e-11
1.6113e-10
4.20842e-10
9.63066e-10
1.96971e-09
3.66587e-09
6.29972e-09
1.0121e-08
1.53799e-08
2.23351e-08
3.12074e-08
4.20156e-08
5.42701e-08
6.66422e-08
7.67996e-08
8.36652e-08
8.00762e-08
6.2162e-08
1.71655e-08
0.0187594
0.854467
1
1
1
1
1
1
1
1
1
1
1
1
1
1
4.1069e-45
2.25699e-36
1.64203e-31
5.09039e-28
2.81946e-25
5.10918e-23
4.16469e-21
1.84431e-19
5.01614e-18
9.09741e-17
1.16522e-15
1.10126e-14
7.95444e-14
4.51466e-13
2.05986e-12
7.71748e-12
2.43057e-11
6.58261e-11
1.5668e-10
3.34281e-10
6.52102e-10
1.18338e-09
2.02795e-09
3.3244e-09
5.26434e-09
8.09376e-09
1.20686e-08
1.73049e-08
2.3485e-08
2.9491e-08
3.28551e-08
2.94857e-08
2.49065e-08
1.67149e-08
0.0969097
0.928881
1
1
1
1
1
1
1
1
1
1
1
1
1
1
4.13456e-47
5.82846e-38
6.54728e-33
2.67185e-29
1.78269e-26
3.66207e-24
3.22744e-22
1.49213e-20
4.12342e-19
7.45323e-18
9.38635e-17
8.73719e-16
6.66793e-15
4.10147e-14
2.06695e-13
9.02393e-13
3.34596e-12
1.08444e-11
3.13905e-11
8.25589e-11
1.97589e-10
4.30295e-10
8.54045e-10
1.5473e-09
2.56487e-09
3.89499e-09
5.45099e-09
7.11255e-09
8.8189e-09
1.05004e-08
1.1886e-08
1.38224e-08
1.69113e-08
1.67149e-08
0.153126
0.966379
1
1
1
1
1
1
1
1
1
1
1
1
1
1
2.7005e-48
3.08491e-46
2.76163e-44
1.99921e-42
1.20931e-40
6.36177e-39
3.28882e-37
4.6601e-35
3.62317e-33
1.76301e-31
7.37905e-30
2.83623e-28
6.24686e-27
8.6701e-26
7.93922e-25
4.90039e-24
2.025e-23
5.88759e-23
1.24949e-22
1.98977e-22
2.42719e-22
2.2967e-22
1.69687e-22
9.81188e-23
4.42925e-23
1.54889e-23
4.14151e-24
8.3624e-25
1.25794e-25
1.38638e-26
1.1063e-27
6.38681e-29
2.68573e-30
8.31946e-32
1.92063e-33
3.34682e-35
4.87552e-37
6.17654e-39
6.58805e-41
5.7729e-43
4.11093e-45
2.34333e-47
1.04471e-49
3.52939e-52
8.64495e-55
1.43424e-57
1.44232e-60
7.46044e-64
3.22854e-66
2.66028e-69
6.64492e-39
2.67618e-37
8.35689e-36
2.10891e-34
4.44439e-33
8.01699e-32
1.26201e-30
1.76849e-29
2.29817e-28
3.28015e-27
5.50133e-26
1.00592e-24
1.31066e-23
1.21887e-22
8.04101e-22
3.76756e-21
1.25448e-20
3.088e-20
5.78576e-20
8.43018e-20
9.70188e-20
8.90444e-20
6.54227e-20