/*--------------------------------*- C++ -*----------------------------------*\
| =========                 |                                                 |
| \\      /  F ield         | OpenFOAM: The Open Source CFD Toolbox           |
|  \\    /   O peration     | Version:  2.4.0                                 |
|   \\  /    A nd           | Web:      www.OpenFOAM.org                      |
|    \\/     M anipulation  |                                                 |
\*---------------------------------------------------------------------------*/
FoamFile
{
    version     2.0;
    format      ascii;
    class       surfaceScalarField;
    location    "0.026";
    object      phi;
}
// * * * * * * * * * * * * * * * * * * * * * * * * * * * * * * * * * * * * * //

dimensions      [0 3 -1 0 0 0 0];

internalField   nonuniform List<scalar> 
28560
(
-2.4417e-10
6.73645e-10
-4.29475e-10
5.32066e-10
-8.23866e-10
2.918e-10
1.17106e-09
-1.55309e-09
3.8203e-10
2.0185e-09
-2.52678e-09
5.08287e-10
3.13342e-09
-3.77716e-09
6.43736e-10
4.52007e-09
-5.2785e-09
7.5843e-10
6.11766e-09
-6.93246e-09
8.14801e-10
7.77855e-09
-8.53172e-09
7.53166e-10
9.22545e-09
-9.74394e-09
5.18492e-10
1.01021e-08
-1.02323e-08
1.30273e-10
1.01301e-08
-9.79156e-09
-3.3858e-10
9.18377e-09
-8.38234e-09
-8.01428e-10
7.33336e-09
-6.18717e-09
-1.14619e-09
4.87576e-09
-3.59688e-09
-1.27888e-09
2.27798e-09
-1.11143e-09
-1.16655e-09
2.19585e-11
8.29082e-10
-8.51041e-10
-1.53407e-09
2.04845e-09
-5.14378e-10
-2.33948e-09
2.41728e-09
-7.77994e-11
-2.33975e-09
2.09437e-09
2.45379e-10
-1.67144e-09
1.21608e-09
4.55362e-10
-6.44441e-10
7.99825e-11
5.64459e-10
5.16322e-10
-1.04828e-09
5.31954e-10
1.54662e-09
-1.94056e-09
3.93933e-10
2.26158e-09
-2.47052e-09
2.08946e-10
2.59063e-09
-2.61355e-09
2.29216e-11
2.55961e-09
-2.43876e-09
-1.20848e-10
2.25138e-09
-2.0287e-09
-2.22673e-10
1.75976e-09
-1.48205e-09
-2.7771e-10
1.17643e-09
-8.81296e-10
-2.95135e-10
5.72962e-10
-2.87091e-10
-2.85872e-10
-1.15573e-09
1.64853e-09
-4.92802e-10
1.0454e-09
-1.64034e-09
-8.18319e-10
1.41326e-09
2.37512e-09
-3.21493e-09
-1.11425e-09
1.95406e-09
4.2803e-09
-5.49479e-09
-1.55043e-09
2.76492e-09
7.01332e-09
-8.70924e-09
-2.07316e-09
3.76908e-09
1.07813e-08
-1.30382e-08
-2.62097e-09
4.87784e-09
1.5727e-08
-1.85785e-08
-3.10814e-09
5.95966e-09
2.18794e-08
-2.52681e-08
-3.38654e-09
6.77526e-09
2.90559e-08
-3.28059e-08
-3.29654e-09
7.04659e-09
3.68526e-08
-4.07258e-08
-2.82162e-09
6.69482e-09
4.47667e-08
-4.84969e-08
-2.04855e-09
5.77868e-09
5.22316e-08
-5.55174e-08
-1.08986e-09
4.37561e-09
5.86277e-08
-6.1189e-08
-1.33526e-10
2.69484e-09
6.34273e-08
-6.50864e-08
6.13702e-10
1.0454e-09
6.63264e-08
-6.70229e-08
1.03581e-09
-3.39256e-10
6.72585e-08
-6.70301e-08
1.16158e-09
-1.38992e-09
6.63493e-08
-6.53377e-08
1.14955e-09
-2.16112e-09
6.39154e-08
-6.22898e-08
9.9083e-10
-2.6165e-09
6.03445e-08
-5.83142e-08
8.54128e-10
-2.88434e-09
5.60227e-08
-5.3748e-08
7.92637e-10
-3.06727e-09
5.12589e-08
-4.88243e-08
8.47669e-10
-3.28225e-09
4.6198e-08
-4.36474e-08
1.0513e-09
-3.60184e-09
4.09115e-08
-3.82669e-08
1.36144e-09
-4.00603e-09
3.54437e-08
-3.27356e-08
1.69568e-09
-4.40375e-09
2.98671e-08
-2.71411e-08
1.97979e-09
-4.70584e-09
2.42847e-08
-2.16005e-08
2.15839e-09
-4.84253e-09
1.8819e-08
-1.62339e-08
2.2278e-09
-4.81298e-09
1.3585e-08
-1.11468e-08
2.19527e-09
-4.63347e-09
8.6716e-09
-6.41156e-09
2.08634e-09
-4.34638e-09
4.13308e-09
-2.0701e-09
1.92708e-09
-3.99006e-09
-2.14235e-09
2.6351e-09
-4.92754e-10
1.07228e-09
-1.68357e-09
-2.02279e-09
2.63408e-09
2.44023e-09
-3.3071e-09
-2.81743e-09
3.6843e-09
4.40942e-09
-5.66925e-09
-4.01857e-09
5.2784e-09
7.24888e-09
-9.0183e-09
-5.52829e-09
7.29772e-09
1.11874e-08
-1.35588e-08
-7.23224e-09
9.60364e-09
1.63962e-08
-1.94201e-08
-8.95536e-09
1.19793e-08
2.29407e-08
-2.65791e-08
-1.03692e-08
1.40076e-08
3.06768e-08
-3.47688e-08
-1.10742e-08
1.51662e-08
3.92272e-08
-4.35402e-08
-1.09211e-08
1.52341e-08
4.80922e-08
-5.23452e-08
-9.92432e-09
1.41773e-08
5.66556e-08
-6.04918e-08
-8.09688e-09
1.19331e-08
6.41605e-08
-6.72052e-08
-5.64273e-09
8.68749e-09
6.98753e-08
-7.18494e-08
-2.96603e-09
4.94011e-09
7.33039e-08
-7.40835e-08
-4.4396e-10
1.2236e-09
7.42796e-08
-7.39034e-08
1.7117e-09
-2.08787e-09
7.2964e-08
-7.16215e-08
3.41328e-09
-4.75576e-09
6.9797e-08
-6.7752e-08
4.56378e-09
-6.60877e-09
6.53462e-08
-6.28845e-08
5.25911e-09
-7.72077e-09
6.0163e-08
-5.7501e-08
5.66583e-09
-8.32787e-09
5.46458e-08
-5.19005e-08
5.99286e-09
-8.73819e-09
4.89868e-08
-4.61974e-08
6.37833e-09
-9.16779e-09
4.324e-08
-4.04078e-08
6.83505e-09
-9.66724e-09
3.74049e-08
-3.45382e-08
7.26554e-09
-1.01322e-08
3.15101e-08
-2.86367e-08
7.56568e-09
-1.04391e-08
2.5629e-08
-2.2802e-08
7.64615e-09
-1.04731e-08
1.9872e-08
-1.71467e-08
7.50673e-09
-1.02319e-08
1.43525e-08
-1.17789e-08
7.17097e-09
-9.74462e-09
9.16468e-09
-6.77704e-09
6.69712e-09
-9.08475e-09
4.36875e-09
-2.18765e-09
6.13596e-09
-8.31706e-09
-3.12638e-09
3.61554e-09
-4.89166e-10
1.06866e-09
-1.67761e-09
-3.24454e-09
3.85349e-09
2.43154e-09
-3.29562e-09
-4.55083e-09
5.41492e-09
4.39472e-09
-5.65119e-09
-6.53786e-09
7.79433e-09
7.22703e-09
-8.99285e-09
-9.06634e-09
1.08322e-08
1.11583e-08
-1.35268e-08
-1.19751e-08
1.43436e-08
1.63625e-08
-1.93874e-08
-1.50063e-08
1.80312e-08
2.29131e-08
-2.65615e-08
-1.76545e-08
2.13028e-08
3.06752e-08
-3.47878e-08
-1.92732e-08
2.33858e-08
3.92739e-08
-4.36204e-08
-1.95698e-08
2.39163e-08
4.82162e-08
-5.25195e-08
-1.84622e-08
2.27655e-08
5.68908e-08
-6.07895e-08
-1.58073e-08
1.97061e-08
6.45245e-08
-6.76283e-08
-1.17656e-08
1.48694e-08
7.03525e-08
-7.23673e-08
-6.93389e-09
8.94867e-09
7.38525e-08
-7.46485e-08
-2.00532e-09
2.80131e-09
7.48502e-08
-7.44671e-08
2.47654e-09
-2.85964e-09
7.3509e-08
-7.21362e-08
6.12256e-09
-7.49529e-09
7.0275e-08
-6.81923e-08
8.67935e-09
-1.07621e-08
6.5747e-08
-6.32567e-08
1.02016e-08
-1.26918e-08
6.05192e-08
-5.78575e-08
1.09938e-08
-1.36556e-08
5.50232e-08
-5.23168e-08
1.14683e-08
-1.41747e-08
4.94612e-08
-4.67382e-08
1.1929e-08
-1.46521e-08
4.38562e-08
-4.10928e-08
1.247e-08
-1.52334e-08
3.81528e-08
-3.53298e-08
1.29807e-08
-1.58037e-08
3.2328e-08
-2.94579e-08
1.33119e-08
-1.6182e-08
2.64317e-08
-2.35683e-08
1.33168e-08
-1.61803e-08
2.05817e-08
-1.77887e-08
1.29878e-08
-1.57808e-08
1.49114e-08
-1.22511e-08
1.23572e-08
-1.50174e-08
9.54074e-09
-7.05942e-09
1.15142e-08
-1.39956e-08
4.55268e-09
-2.28016e-09
1.05387e-08
-1.28112e-08
-4.10248e-09
4.5868e-09
-4.84323e-10
1.06246e-09
-1.66738e-09
-4.46058e-09
5.0655e-09
2.41648e-09
-3.27548e-09
-6.27606e-09
7.13506e-09
4.36836e-09
-5.61804e-09
-9.04713e-09
1.02968e-08
7.18569e-09
-8.94287e-09
-1.2594e-08
1.43512e-08
1.10984e-08
-1.3457e-08
-1.67078e-08
1.90663e-08
1.62824e-08
-1.92992e-08
-2.10524e-08
2.40693e-08
2.28197e-08
-2.64675e-08
-2.49509e-08
2.85987e-08
3.05853e-08
-3.47057e-08
-2.75023e-08
3.16227e-08
3.92047e-08
-4.35694e-08
-2.82717e-08
3.26365e-08
4.81937e-08
-5.25343e-08
-2.70862e-08
3.14269e-08
5.69565e-08
-6.09122e-08
-2.36306e-08
2.75863e-08
6.47137e-08
-6.78834e-08
-1.80028e-08
2.11725e-08
7.06762e-08
-7.27537e-08
-1.09914e-08
1.30689e-08
7.42994e-08
-7.51461e-08
-3.61944e-09
4.46613e-09
7.53911e-08
-7.5037e-08
3.22995e-09
-3.58409e-09
7.40939e-08
-7.27184e-08
8.86985e-09
-1.02453e-08
7.08383e-08
-6.87274e-08
1.28573e-08
-1.49683e-08
6.62469e-08
-6.37274e-08
1.51941e-08
-1.77135e-08
6.09727e-08
-5.83145e-08
1.63141e-08
-1.89723e-08
5.55105e-08
-5.28602e-08
1.68541e-08
-1.95044e-08
5.00899e-08
-4.74671e-08
1.73288e-08
-1.99516e-08
4.47012e-08
-4.20467e-08
1.79479e-08
-2.06024e-08
3.92087e-08
-3.64605e-08
1.85937e-08
-2.13418e-08
3.3508e-08
-3.06529e-08
1.90463e-08
-2.19014e-08
2.76086e-08
-2.46973e-08
1.90662e-08
-2.19775e-08
2.16323e-08
-1.87426e-08
1.86182e-08
-2.15079e-08
1.57453e-08
-1.29582e-08
1.77354e-08
-2.05226e-08
1.01051e-08
-7.48402e-09
1.65402e-08
-1.91613e-08
4.82944e-09
-2.41907e-09
1.51459e-08
-1.75563e-08
-5.0683e-09
5.5465e-09
-4.78197e-10
1.05436e-09
-1.65398e-09
-5.66796e-09
6.26757e-09
2.39676e-09
-3.24905e-09
-7.99125e-09
8.84354e-09
4.33373e-09
-5.57436e-09
-1.15427e-08
1.27834e-08
7.13111e-09
-8.87671e-09
-1.6103e-08
1.78486e-08
1.10188e-08
-1.33638e-08
-2.14184e-08
2.37634e-08
1.61749e-08
-1.91799e-08
-2.70806e-08
3.00856e-08
2.26922e-08
-2.63376e-08
-3.22457e-08
3.58911e-08
3.04585e-08
-3.45869e-08
-3.5747e-08
3.98755e-08
3.91e-08
-4.3486e-08
-3.70113e-08
4.13973e-08
4.81447e-08
-5.25326e-08
-3.57902e-08
4.01781e-08
5.70205e-08
-6.10522e-08
-3.15779e-08
3.56096e-08
6.49439e-08
-6.82045e-08
-2.43847e-08
2.76453e-08
7.10941e-08
-7.32608e-08
-1.51876e-08
1.73543e-08
7.48948e-08
-7.58163e-08
-5.34731e-09
6.26883e-09
7.61263e-08
-7.58186e-08
3.91711e-09
-4.22483e-09
7.48994e-08
-7.35231e-08
1.16212e-08
-1.29975e-08
7.1617e-08
-6.94631e-08
1.70989e-08
-1.92528e-08
6.69253e-08
-6.43536e-08
2.02557e-08
-2.28274e-08
6.15585e-08
-5.88891e-08
2.16337e-08
-2.43031e-08
5.61098e-08
-5.35241e-08
2.21234e-08
-2.47092e-08
5.08631e-08
-4.83773e-08
2.25111e-08
-2.49969e-08
4.57785e-08
-4.32881e-08
2.31831e-08
-2.56736e-08
4.06105e-08
-3.79861e-08
2.40357e-08
-2.66602e-08
3.51221e-08
-3.23038e-08
2.47421e-08
-2.75604e-08
2.92484e-08
-2.62811e-08
2.49161e-08
-2.78834e-08
2.31152e-08
-2.00961e-08
2.44579e-08
-2.7477e-08
1.69342e-08
-1.39705e-08
2.33912e-08
-2.63549e-08
1.09166e-08
-8.09665e-09
2.18734e-08
-2.46934e-08
5.22959e-09
-2.61998e-09
2.00574e-08
-2.2667e-08
-6.02117e-09
6.49193e-09
-4.70767e-10
1.04464e-09
-1.63777e-09
-6.86415e-09
7.45728e-09
2.37283e-09
-3.21699e-09
-9.69188e-09
1.0536e-08
4.2917e-09
-5.52132e-09
-1.40185e-08
1.52481e-08
7.06473e-09
-8.79615e-09
-1.95873e-08
2.13187e-08
1.09218e-08
-1.32499e-08
-2.61006e-08
2.84288e-08
1.60432e-08
-1.90333e-08
-3.30838e-08
3.6074e-08
2.25348e-08
-2.61768e-08
-3.95351e-08
4.31771e-08
3.03011e-08
-3.44385e-08
-4.40086e-08
4.8146e-08
3.89679e-08
-4.3379e-08
-4.57961e-08
5.02072e-08
4.8079e-08
-5.2525e-08
-4.45936e-08
4.90396e-08
5.70955e-08
-6.12236e-08
-3.9687e-08
4.38152e-08
6.52311e-08
-6.86093e-08
-3.09612e-08
3.43394e-08
7.16249e-08
-7.3909e-08
-1.95764e-08
2.18605e-08
7.56595e-08
-7.66811e-08
-7.23724e-09
8.25886e-09
7.70801e-08
-7.68343e-08
4.50398e-09
-4.74978e-09
7.59519e-08
-7.45767e-08
1.4374e-08
-1.57492e-08
7.26357e-08
-7.04185e-08
2.14357e-08
-2.36529e-08
6.77949e-08
-6.51384e-08
2.5437e-08
-2.80936e-08
6.22677e-08
-5.95601e-08
2.69875e-08
-2.96952e-08
5.67902e-08
-5.4271e-08
2.72616e-08
-2.97808e-08
5.17431e-08
-4.94394e-08
2.73979e-08
-2.97016e-08
4.7077e-08
-4.48308e-08
2.8054e-08
-3.03001e-08
4.24035e-08
-3.99814e-08
2.91959e-08
-3.16181e-08
3.72726e-08
-3.4533e-08
3.03464e-08
-3.3086e-08
3.1486e-08
-2.84592e-08
3.08806e-08
-3.39074e-08
2.51692e-08
-2.1983e-08
3.05748e-08
-3.3761e-08
1.86032e-08
-1.54012e-08
2.94294e-08
-3.26314e-08
1.20721e-08
-8.97418e-09
2.76413e-08
-3.07392e-08
5.80566e-09
-2.9106e-09
2.54065e-08
-2.83016e-08
-6.95864e-09
7.42074e-09
-4.621e-10
1.03312e-09
-1.61844e-09
-8.04666e-09
8.63198e-09
2.34431e-09
-3.17877e-09
-1.13755e-08
1.22099e-08
4.24158e-09
-5.45791e-09
-1.64715e-08
1.76878e-08
6.98537e-09
-8.69967e-09
-2.30419e-08
2.47562e-08
1.08054e-08
-1.31131e-08
-3.0747e-08
3.30547e-08
1.58843e-08
-1.88557e-08
-3.90549e-08
4.20263e-08
2.23431e-08
-2.59799e-08
-4.68165e-08
5.04533e-08
3.0107e-08
-3.42537e-08
-5.22876e-08
5.64343e-08
3.88001e-08
-4.32384e-08
-5.46312e-08
5.90695e-08
4.79853e-08
-5.2499e-08
-5.35182e-08
5.80319e-08
5.71677e-08
-6.14126e-08
-4.7999e-08
5.22438e-08
6.55614e-08
-6.90839e-08
-3.77862e-08
4.13087e-08
7.22553e-08
-7.4685e-08
-2.42134e-08
2.66431e-08
7.65817e-08
-7.77302e-08
-9.34027e-09
1.04888e-08
7.82439e-08
-7.80818e-08
4.95668e-09
-5.11879e-09
7.7251e-08
-7.5882e-08
1.71217e-08
-1.84907e-08
7.38979e-08
-7.1596e-08
2.59099e-08
-2.82117e-08
6.88492e-08
-6.60628e-08
3.08081e-08
-3.35945e-08
6.30657e-08
-6.02759e-08
3.24368e-08
-3.52266e-08
5.74825e-08
-5.50208e-08
3.22688e-08
-3.47305e-08
5.26456e-08
-5.05769e-08
3.18944e-08
-3.39631e-08
4.85438e-08
-4.66599e-08
3.23826e-08
-3.42665e-08
4.46223e-08
-4.25305e-08
3.3895e-08
-3.59868e-08
4.00899e-08
-3.75031e-08
3.5761e-08
-3.83478e-08
3.4504e-08
-3.14216e-08
3.69625e-08
-4.00449e-08
2.79849e-08
-2.459e-08
3.70459e-08
-4.04409e-08
2.0931e-08
-1.74201e-08
3.59784e-08
-3.94893e-08
1.37267e-08
-1.0246e-08
3.40134e-08
-3.74941e-08
6.65045e-09
-3.3432e-09
3.13834e-08
-3.46906e-08
-7.87799e-09
8.3301e-09
-4.52111e-10
1.01987e-09
-1.59607e-09
-9.21295e-09
9.78916e-09
2.31126e-09
-3.13442e-09
-1.30393e-08
1.38625e-08
4.18338e-09
-5.38435e-09
-1.88965e-08
2.00974e-08
6.8931e-09
-8.58744e-09
-2.64608e-08
2.81551e-08
1.06698e-08
-1.29533e-08
-3.53509e-08
3.76344e-08
1.56982e-08
-1.86467e-08
-4.49869e-08
4.79354e-08
2.21166e-08
-2.57464e-08
-5.40869e-08
5.77167e-08
2.98758e-08
-3.40317e-08
-6.05858e-08
6.47417e-08
3.85955e-08
-4.30624e-08
-6.35222e-08
6.79891e-08
4.78603e-08
-5.24505e-08
-6.25828e-08
6.71729e-08
5.72331e-08
-6.16151e-08
-5.65547e-08
6.09367e-08
6.59314e-08
-6.9626e-08
-4.49136e-08
4.86082e-08
7.29841e-08
-7.55891e-08
-2.91567e-08
3.17617e-08
7.76627e-08
-7.89671e-08
-1.17114e-08
1.30158e-08
7.96254e-08
-7.9573e-08
5.22947e-09
-5.28193e-09
7.88145e-08
-7.7461e-08
1.98538e-08
-2.12072e-08
7.54278e-08
-7.30162e-08
3.05657e-08
-3.29773e-08
7.00994e-08
-6.71232e-08
3.64675e-08
-3.94437e-08
6.39265e-08
-6.09853e-08
3.80814e-08
-4.10226e-08
5.8108e-08
-5.56722e-08
3.71733e-08
-3.9609e-08
5.34529e-08
-5.16721e-08
3.5894e-08
-3.76749e-08
5.00872e-08
-4.87359e-08
3.59095e-08
-3.72608e-08
4.7305e-08
-4.57518e-08
3.78421e-08
-3.93953e-08
4.37687e-08
-4.14606e-08
4.08154e-08
-4.31235e-08
3.85744e-08
-3.54425e-08
4.31526e-08
-4.62845e-08
3.18312e-08
-2.81797e-08
4.39575e-08
-4.7609e-08
2.41743e-08
-2.0289e-08
4.31809e-08
-4.70662e-08
1.61517e-08
-1.2153e-08
4.12151e-08
-4.52139e-08
7.94489e-09
-4.03408e-09
3.82707e-08
-4.21815e-08
-8.7768e-09
9.21759e-09
-4.40781e-10
1.00512e-09
-1.57096e-09
-1.03604e-08
1.09262e-08
2.27408e-09
-3.08461e-09
-1.46791e-08
1.54897e-08
4.11797e-09
-5.30158e-09
-2.12901e-08
2.24737e-08
6.78932e-09
-8.4611e-09
-2.98388e-08
3.15106e-08
1.0517e-08
-1.2773e-08
-3.99047e-08
4.21606e-08
1.54875e-08
-1.84094e-08
-5.08713e-08
5.37932e-08
2.18587e-08
-2.54802e-08
-6.13427e-08
6.49642e-08
2.96119e-08
-3.37777e-08
-6.89026e-08
7.30685e-08
3.83597e-08
-4.28562e-08
-7.24711e-08
7.69676e-08
4.77089e-08
-5.23841e-08
-7.1805e-08
7.64802e-08
5.72964e-08
-6.18372e-08
-6.53956e-08
6.99364e-08
6.6349e-08
-7.02452e-08
-5.24001e-08
5.62964e-08
7.38223e-08
-7.66339e-08
-3.44664e-08
3.7278e-08
7.89177e-08
-8.04098e-08
-1.44102e-08
1.59022e-08
8.12466e-08
-8.13351e-08
5.26864e-09
-5.18019e-09
8.0678e-08
-7.93567e-08
2.25474e-08
-2.38686e-08
7.72725e-08
-7.47247e-08
3.5454e-08
-3.80018e-08
7.15825e-08
-6.8338e-08
4.25433e-08
-4.57878e-08
6.48375e-08
-6.16386e-08
4.40768e-08
-4.72758e-08
5.85752e-08
-5.60936e-08
4.20556e-08
-4.45372e-08
5.39949e-08
-5.25355e-08
3.92967e-08
-4.07561e-08
5.15393e-08
-5.09636e-08
3.82602e-08
-3.88358e-08
5.04755e-08
-4.97973e-08
4.05632e-08
-4.12414e-08
4.8585e-08
-4.67614e-08
4.5221e-08
-4.70446e-08
4.40764e-08
-4.08812e-08
4.94439e-08
-5.26392e-08
3.7047e-08
-3.30786e-08
5.1411e-08
-5.53793e-08
2.86481e-08
-2.43701e-08
5.11508e-08
-5.54288e-08
1.98027e-08
-1.51183e-08
4.95324e-08
-5.42168e-08
1.00205e-08
-5.23743e-09
4.64911e-08
-5.12742e-08
-9.65226e-09
1.00805e-08
-4.28201e-10
9.88779e-10
-1.5429e-09
-1.14863e-08
1.20404e-08
2.23247e-09
-3.02882e-09
-1.62937e-08
1.709e-08
4.04472e-09
-5.20885e-09
-2.36478e-08
2.4812e-08
6.67289e-09
-8.3193e-09
-3.31697e-08
3.48161e-08
1.03453e-08
-1.257e-08
-4.44013e-08
4.66259e-08
1.52496e-08
-1.81401e-08
-5.66997e-08
5.95903e-08
2.15646e-08
-2.51759e-08
-6.85805e-08
7.21919e-08
2.93096e-08
-3.3485e-08
-7.72388e-08
8.14142e-08
3.80839e-08
-4.26089e-08
-8.14782e-08
8.60033e-08
4.75175e-08
-5.22843e-08
-8.12e-08
8.59668e-08
5.73412e-08
-6.20619e-08
-7.45642e-08
7.92849e-08
6.67973e-08
-7.09254e-08
-6.03044e-08
6.44325e-08
7.47551e-08
-7.78053e-08
-4.02046e-08
4.32548e-08
8.03335e-08
-8.20466e-08
-1.75002e-08
1.92134e-08
8.31006e-08
-8.33688e-08
5.00745e-09
-4.73925e-09
8.28529e-08
-8.15918e-08
2.51643e-08
-2.64253e-08
7.94659e-08
-7.6758e-08
4.06263e-08
-4.33342e-08
7.33287e-08
-6.97176e-08
4.92022e-08
-5.28133e-08
6.57732e-08
-6.21601e-08
5.06582e-08
-5.42713e-08
5.87472e-08
-5.60873e-08
4.70862e-08
-4.97461e-08
5.39972e-08
-5.28266e-08
4.20598e-08
-4.32304e-08
5.25576e-08
-5.30916e-08
3.89039e-08
-3.83699e-08
5.40345e-08
-5.47144e-08
4.13051e-08
-4.06252e-08
5.47094e-08
-5.36291e-08
4.85245e-08
-4.96049e-08
5.12373e-08
-4.79708e-08
5.58807e-08
-5.91471e-08
4.39392e-08
-3.9659e-08
5.95205e-08
-6.38007e-08
3.47112e-08
-3.00388e-08
5.98911e-08
-6.45635e-08
2.5146e-08
-1.9517e-08
5.93262e-08
-6.49552e-08
1.31087e-08
-7.13709e-09
5.66083e-08
-6.25799e-08
-1.05019e-08
1.09161e-08
-4.14238e-10
9.70876e-10
-1.51192e-09
-1.25882e-08
1.31292e-08
2.18644e-09
-2.96718e-09
-1.78783e-08
1.86591e-08
3.96374e-09
-5.10625e-09
-2.59655e-08
2.7108e-08
6.544e-09
-8.16217e-09
-3.64489e-08
3.80671e-08
1.0155e-08
-1.23444e-08
-4.88335e-08
5.10229e-08
1.49842e-08
-1.78384e-08
-6.24635e-08
6.53177e-08
2.12337e-08
-2.48328e-08
-7.57975e-08
7.93966e-08
2.8968e-08
-3.31526e-08
-8.55944e-08
8.9779e-08
3.77667e-08
-4.23178e-08
-9.0542e-08
9.5093e-08
4.72813e-08
-5.21441e-08
-9.07814e-08
9.56442e-08
5.73596e-08
-6.22821e-08
-8.41039e-08
8.90263e-08
6.7271e-08
-7.16627e-08
-6.86885e-08
7.30801e-08
7.57794e-08
-7.91014e-08
-4.64367e-08
4.97587e-08
8.19091e-08
-8.38797e-08
-2.10506e-08
2.30212e-08
8.51932e-08
-8.56877e-08
4.36381e-09
-3.86935e-09
8.5368e-08
-8.42121e-08
2.76403e-08
-2.87962e-08
8.2069e-08
-7.91887e-08
4.61272e-08
-4.90075e-08
7.54072e-08
-7.13147e-08
5.665e-08
-6.07426e-08
6.67438e-08
-6.24878e-08
5.81717e-08
-6.24277e-08
5.84742e-08
-5.54169e-08
5.25714e-08
-5.56288e-08
5.30901e-08
-5.20148e-08
4.43148e-08
-4.53902e-08
5.25402e-08
-5.4561e-08
3.71347e-08
-3.51139e-08
5.73644e-08
-5.9622e-08
3.9119e-08
-3.68615e-08
6.08799e-08
-6.04834e-08
5.02857e-08
-5.06823e-08
5.88235e-08
-5.64848e-08
6.22612e-08
-6.45998e-08
5.34818e-08
-4.94982e-08
6.80823e-08
-7.2066e-08
4.40284e-08
-3.81705e-08
6.96032e-08
-7.54611e-08
3.18121e-08
-2.45491e-08
7.1269e-08
-7.8532e-08
1.62143e-08
-8.52727e-09
6.93096e-08
-7.69967e-08
-1.13229e-08
1.17218e-08
-3.98908e-10
9.51622e-10
-1.47835e-09
-1.36633e-08
1.419e-08
2.13648e-09
-2.90028e-09
-1.9432e-08
2.01959e-08
3.87589e-09
-4.99489e-09
-2.82391e-08
2.93581e-08
6.40397e-09
-7.99143e-09
-3.96702e-08
4.12577e-08
9.94805e-09
-1.20988e-08
-5.31935e-08
5.53443e-08
1.46943e-08
-1.75071e-08
-6.81519e-08
7.09648e-08
2.08686e-08
-2.44542e-08
-8.29893e-08
8.65749e-08
2.85919e-08
-3.27862e-08
-9.39686e-08
9.81629e-08
3.74137e-08
-4.1987e-08
-9.9656e-08
1.04229e-07
4.70025e-08
-5.19648e-08
-1.00557e-07
1.05519e-07
5.73529e-08
-6.25007e-08
-9.40587e-08
9.92064e-08
6.7775e-08
-7.24644e-08
-7.76164e-08
8.23058e-08
7.69057e-08
-8.05344e-08
-5.32298e-08
5.68586e-08
8.36583e-08
-8.59232e-08
-2.51344e-08
2.73993e-08
8.75425e-08
-8.83207e-08
3.24038e-09
-2.46214e-09
8.8267e-08
-8.72863e-08
2.98748e-08
-3.08555e-08
8.51765e-08
-8.21299e-08
5.19733e-08
-5.50199e-08
7.79354e-08
-7.32409e-08
6.51217e-08
-6.98162e-08
6.7813e-08
-6.25643e-08
6.71252e-08
-7.23739e-08
5.75459e-08
-5.37839e-08
5.89966e-08
-6.27586e-08
5.08809e-08
-4.95911e-08
4.6552e-08
-4.78418e-08
5.0941e-08
-5.45626e-08
3.22714e-08
-2.86498e-08
5.84015e-08
-6.07269e-08
3.42291e-08
-3.19037e-08
6.1852e-08
-6.07032e-08
5.11012e-08
-5.22499e-08
6.27066e-08
-6.77354e-08
6.46629e-08
-5.9634e-08
7.23495e-08
-6.93443e-08
7.53465e-08
-7.83516e-08
6.38814e-08
-5.32963e-08
8.30299e-08
-9.3615e-08
3.96707e-08
-3.02683e-08
8.70499e-08
-9.64524e-08
1.87557e-08
-8.80733e-09
8.58936e-08
-9.5842e-08
-1.21126e-08
1.24949e-08
-3.82242e-10
9.30891e-10
-1.442e-09
-1.47091e-08
1.52202e-08
2.08223e-09
-2.82774e-09
-2.09502e-08
2.16957e-08
3.78057e-09
-4.87399e-09
-3.04644e-08
3.15578e-08
6.25185e-09
-7.80581e-09
-4.28287e-08
4.43827e-08
9.72289e-09
-1.18311e-08
-5.74741e-08
5.95823e-08
1.4377e-08
-1.71426e-08
-7.37546e-08
7.65202e-08
2.04644e-08
-2.40345e-08
-9.01528e-08
9.37229e-08
2.81753e-08
-3.23792e-08
-1.02362e-07
1.06565e-07
3.70165e-08
-4.16051e-08
-1.08811e-07
1.134e-07
4.66657e-08
-5.17273e-08
-1.10531e-07
1.15593e-07
5.73006e-08
-6.26966e-08
-1.04475e-07
1.09871e-07
6.82895e-08
-7.33124e-08
-8.71569e-08
9.21798e-08
7.81168e-08
-8.20874e-08
-6.06535e-08
6.46241e-08
8.55633e-08
-8.81586e-08
-2.98249e-08
3.24202e-08
9.01322e-08
-9.12586e-08
1.51853e-09
-3.92108e-10
9.15636e-08
-9.0859e-08
3.17131e-08
-3.24177e-08
8.88748e-08
-8.56917e-08
5.81407e-08
-6.13238e-08
8.10454e-08
-7.56304e-08
7.48556e-08
-8.02706e-08
6.90379e-08
-6.21404e-08
7.83271e-08
-8.52246e-08
5.52541e-08
-5.04978e-08
6.69901e-08
-7.17463e-08
4.74433e-08
-4.72032e-08
4.90353e-08
-4.92754e-08
5.11206e-08
-5.59853e-08
2.43432e-08
-1.94785e-08
5.76381e-08
-6.46941e-08
2.99082e-08
-2.28522e-08
8.22043e-08
-8.88422e-08
5.52392e-08
-4.86013e-08
1.16381e-07
-1.13149e-07
4.39099e-08
-4.71427e-08
4.9707e-08
1.13574e-08
9.25236e-08
-1.53588e-07
-1.42914e-08
-7.82545e-09
1.01313e-07
-7.91966e-08
2.39238e-08
-2.10732e-08
1.05916e-07
-1.08767e-07
2.19932e-08
-1.15282e-08
1.04744e-07
-1.15209e-07
-1.28682e-08
1.32324e-08
-3.64171e-10
9.08708e-10
-1.40293e-09
-1.5723e-08
1.62173e-08
2.02377e-09
-2.74964e-09
-2.24321e-08
2.31579e-08
3.67798e-09
-4.74376e-09
-3.26378e-08
3.37035e-08
6.08784e-09
-7.60558e-09
-4.59188e-08
4.74366e-08
9.47996e-09
-1.15418e-08
-6.16679e-08
6.37297e-08
1.40327e-08
-1.67443e-08
-7.92596e-08
8.19712e-08
2.00198e-08
-2.35726e-08
-9.72847e-08
1.00837e-07
2.77178e-08
-3.19315e-08
-1.10774e-07
1.14988e-07
3.65742e-08
-4.1169e-08
-1.17993e-07
1.22588e-07
4.62635e-08
-5.14202e-08
-1.20703e-07
1.25859e-07
5.71893e-08
-6.28583e-08
-1.15401e-07
1.2107e-07
6.88059e-08
-7.42006e-08
-9.73838e-08
1.02779e-07
7.94086e-08
-8.37572e-08
-6.87793e-08
7.31279e-08
8.76194e-08
-9.05787e-08
-3.51937e-08
3.81529e-08
9.29535e-08
-9.44988e-08
-9.34771e-10
2.48012e-09
9.52785e-08
-9.49951e-08
3.29326e-08
-3.3216e-08
9.32842e-08
-9.00347e-08
6.45508e-08
-6.78002e-08
8.48854e-08
-7.85576e-08
8.6104e-08
-9.24318e-08
7.01186e-08
-5.96862e-08
9.34879e-08
-1.0392e-07
4.79425e-08
-4.16003e-08
7.71158e-08
-8.3458e-08
4.05324e-08
-4.39221e-08
4.70587e-08
-4.36691e-08
4.18792e-08
3.37687e-09
1.8192e-08
-6.3448e-08
-1.23404e-07
2.57791e-07
3.94435e-08
-1.73831e-07
-2.822e-07
1.6767e-07
1.8472e-07
-7.01906e-08
-1.3187e-07
1.04076e-07
1.44107e-08
1.33827e-08
-6.7101e-08
3.26101e-08
1.28317e-07
-9.38257e-08
-1.7612e-08
1.29994e-08
9.77874e-08
-9.31748e-08
-6.25203e-09
1.64943e-09
1.01068e-07
-9.64652e-08
-1.55518e-09
-4.26172e-10
1.26888e-07
-1.24907e-07
-1.3587e-08
1.39317e-08
-3.44652e-10
8.85307e-10
-1.36153e-09
-1.67027e-08
1.71789e-08
1.96156e-09
-2.66663e-09
-2.38732e-08
2.45783e-08
3.56891e-09
-4.60525e-09
-3.47548e-08
3.57912e-08
5.91324e-09
-7.39238e-09
-4.89354e-08
5.04145e-08
9.22123e-09
-1.12332e-08
-6.57672e-08
6.77792e-08
1.3664e-08
-1.63148e-08
-8.46535e-08
8.73043e-08
1.95367e-08
-2.30709e-08
-1.04381e-07
1.07916e-07
2.72239e-08
-3.14492e-08
-1.19207e-07
1.23433e-07
3.60929e-08
-4.06825e-08
-1.27182e-07
1.31771e-07
4.57957e-08
-5.10396e-08
-1.31061e-07
1.36305e-07
5.70151e-08
-6.29841e-08
-1.26885e-07
1.32854e-07
6.93263e-08
-7.51356e-08
-1.08375e-07
1.14184e-07
8.07918e-08
-8.5556e-08
-7.76797e-08
8.24439e-08
8.9837e-08
-9.31883e-08
-4.13053e-08
4.46565e-08
9.60046e-08
-9.8042e-08
-4.26265e-09
6.3e-09
9.94349e-08
-9.97708e-08
3.32183e-08
-3.28824e-08
9.85593e-08
-9.53305e-08
7.10492e-08
-7.4278e-08
8.94529e-08
-8.15567e-08
9.94073e-08
-1.07304e-07
6.92845e-08
-5.01869e-08
1.17896e-07
-1.36994e-07
2.6777e-08
-2.22868e-08
9.0962e-08
-9.54522e-08
2.46642e-08
-2.29251e-08
4.36249e-08
-4.53639e-08
-3.92467e-07
4.08456e-07
1.79808e-07
-1.95797e-07
-5.49831e-07
4.39452e-07
3.03161e-07
-1.92782e-07
-3.11959e-07
2.02856e-07
4.40494e-08
6.5053e-08
-1.86654e-07
1.58618e-07
-9.60882e-09
3.76449e-08
-1.26717e-07
9.91936e-08
6.58779e-08
-3.83547e-08
-7.66431e-08
6.11229e-08
8.14268e-08
-6.59067e-08
-4.86089e-08
3.81965e-08
9.21234e-08
-8.1711e-08
-2.77603e-08
1.32771e-08
1.12046e-07
-9.75627e-08
-1.42661e-08
1.45898e-08
-3.23749e-10
8.60554e-10
-1.31761e-09
-1.76457e-08
1.81027e-08
1.89526e-09
-2.57834e-09
-2.52728e-08
2.59558e-08
3.45292e-09
-4.45779e-09
-3.68121e-08
3.78169e-08
5.72721e-09
-7.1651e-09
-5.18733e-08
5.33112e-08
8.94547e-09
-1.09039e-08
-6.97647e-08
7.17231e-08
1.32687e-08
-1.58507e-08
-8.99216e-08
9.25036e-08
1.90095e-08
-2.25237e-08
-1.1144e-07
1.14954e-07
2.66883e-08
-3.09274e-08
-1.27664e-07
1.31903e-07
3.55663e-08
-4.01347e-08
-1.36352e-07
1.40921e-07
4.52446e-08
-5.05604e-08
-1.41587e-07
1.46903e-07
5.67504e-08
-6.30473e-08
-1.38983e-07
1.4528e-07
6.98272e-08
-7.60968e-08
-1.20217e-07
1.26487e-07
8.22485e-08
-8.74662e-08
-8.74296e-08
9.26473e-08
9.21945e-08
-9.59552e-08
-4.82108e-08
5.19716e-08
9.92386e-08
-1.01832e-07
-8.60815e-09
1.12018e-08
1.03995e-07
-1.05201e-07
3.21478e-08
-3.09414e-08
1.04805e-07
-1.01619e-07
7.74783e-08
-8.06638e-08
9.41989e-08
-8.33497e-08
1.16484e-07
-1.27334e-07
6.63471e-08
-4.10557e-08
1.61326e-07
-1.86617e-07
2.863e-08
-7.31197e-08
8.1522e-08
-3.70323e-08
-1.99828e-08
6.82469e-07
8.39342e-08
-7.4642e-07
-6.96722e-07
6.34409e-07
3.64451e-07
-3.02138e-07
-6.03076e-07
4.98319e-07
1.1949e-07
-1.47335e-08
-3.73906e-07
2.64306e-07
-1.21667e-07
2.31267e-07
-1.9451e-07
1.59572e-07
-6.51121e-08
1.00051e-07
-1.28718e-07
1.05196e-07
1.31726e-08
1.035e-08
-8.53941e-08
7.00563e-08
4.92227e-08
-3.3885e-08
-5.6133e-08
4.38939e-08
6.7541e-08
-5.5302e-08
-3.20554e-08
2.04982e-08
8.46755e-08
-7.31183e-08
-1.49026e-08
1.52039e-08
-3.0132e-10
8.3454e-10
-1.27134e-09
-1.85499e-08
1.89867e-08
1.82501e-09
-2.48491e-09
-2.66274e-08
2.72873e-08
3.3302e-09
-4.30167e-09
-3.88053e-08
3.97768e-08
5.52999e-09
-6.92409e-09
-5.47276e-08
5.61217e-08
8.65318e-09
-1.05544e-08
-7.36534e-08
7.55546e-08
1.28474e-08
-1.53516e-08
-9.50479e-08
9.75521e-08
1.84361e-08
-2.19287e-08
-1.18458e-07
1.2195e-07
2.6111e-08
-3.03679e-08
-1.36151e-07
1.40408e-07
3.49956e-08
-3.9523e-08
-1.45471e-07
1.49999e-07
4.46001e-08
-4.9964e-08
-1.52246e-07
1.5761e-07
5.63745e-08
-6.30302e-08
-1.51753e-07
1.58408e-07
7.02956e-08
-7.7077e-08
-1.33006e-07
1.39788e-07
8.37762e-08
-8.94879e-08
-9.81067e-08
1.03818e-07
9.46869e-08
-9.88594e-08
-5.59392e-08
6.01116e-08
1.02609e-07
-1.058e-07
-1.4091e-08
1.72815e-08
1.08884e-07
-1.11255e-07
2.91901e-08
-2.68191e-08
1.12062e-07
-1.08753e-07
8.38741e-08
-8.71834e-08
9.78795e-08
-8.18301e-08
1.40277e-07
-1.56327e-07
6.70258e-08
-6.51933e-08
2.06539e-07
-2.08371e-07
1.00836e-07
5.29282e-07
9.74477e-08
-7.27566e-07
-3.11988e-07
1.98889e-07
5.21823e-07
-4.08725e-07
-1.31989e-07
1.15023e-07
2.4512e-07
-2.28154e-07
-1.22977e-07
1.04254e-07
1.23606e-08
6.36216e-09
-1.39078e-07
1.35707e-07
-2.657e-07
2.69071e-07
-1.20028e-07
1.04709e-07
-1.36409e-07
1.51728e-07
-9.14721e-08
8.03902e-08
-2.96222e-08
4.07041e-08
-6.97199e-08
6.03425e-08
2.09877e-08
-1.16102e-08
-5.06202e-08
4.04379e-08
4.42584e-08
-3.40761e-08
-2.77592e-08
1.40389e-08
5.8154e-08
-4.44338e-08
-1.54934e-08
1.57708e-08
-2.77387e-10
8.07475e-10
-1.22303e-09
-1.9413e-08
1.98286e-08
1.75111e-09
-2.38699e-09
-2.79354e-08
2.85713e-08
3.20157e-09
-4.13788e-09
-4.0731e-08
4.16673e-08
5.32286e-09
-6.67088e-09
-5.74931e-08
5.88411e-08
8.34637e-09
-1.01873e-08
-7.74261e-08
7.9267e-08
1.2403e-08
-1.482e-08
-1.00014e-07
1.02431e-07
1.78166e-08
-2.12874e-08
-1.25432e-07
1.28903e-07
2.54968e-08
-2.97785e-08
-1.44676e-07
1.48958e-07
3.43894e-08
-3.88525e-08
-1.54498e-07
1.58961e-07
4.38593e-08
-4.9237e-08
-1.62986e-07
1.68364e-07
5.58738e-08
-6.29236e-08
-1.65257e-07
1.72307e-07
7.07301e-08
-7.80822e-08
-1.46847e-07
1.54199e-07
8.53891e-08
-9.16405e-08
-1.09794e-07
1.16046e-07
9.73305e-08
-1.01897e-07
-6.4485e-08
6.90516e-08
1.06072e-07
-1.09854e-07
-2.07725e-08
2.45545e-08
1.13978e-07
-1.17804e-07
2.37559e-08
-1.99299e-08
1.2021e-07
-1.16235e-07
9.06979e-08
-9.46731e-08
9.66171e-08
-6.84179e-08
1.7856e-07
-2.06759e-07
3.38018e-08
6.51969e-08
1.92456e-07
-2.91454e-07
-5.83723e-07
3.59667e-07
7.12226e-07
-4.8817e-07
-1.35929e-07
9.04078e-09
4.70138e-07
-3.4325e-07
3.91067e-08
-3.96847e-08
2.3446e-07
-2.33882e-07
7.73049e-08
-8.54876e-08
-7.57431e-08
8.39257e-08
7.68985e-08
-3.67882e-08
-2.26681e-07
1.86571e-07
-1.70697e-10
2.34804e-08
-1.4261e-07
1.193e-07
-3.62872e-08
4.09035e-08
-4.26765e-08
3.80603e-08
-4.09121e-08
3.8627e-08
6.00766e-09
-3.72256e-09
-3.46421e-08
2.95514e-08
2.71886e-08
-2.20979e-08
-2.4353e-08
1.74318e-08
3.14317e-08
-2.45106e-08
-1.60357e-08
1.62876e-08
-2.5191e-10
7.79355e-10
-1.1727e-09
-2.02331e-08
2.06265e-08
1.6734e-09
-2.28423e-09
-2.91948e-08
2.98056e-08
3.06665e-09
-3.96592e-09
-4.25852e-08
4.34845e-08
5.10507e-09
-6.40455e-09
-6.01651e-08
6.14645e-08
8.02411e-09
-9.80157e-09
-8.10765e-08
8.2854e-08
1.19343e-08
-1.42532e-08
-1.048e-07
1.07119e-07
1.71442e-08
-2.05931e-08
-1.32363e-07
1.35811e-07
2.48414e-08
-2.91574e-08
-1.53255e-07
1.57571e-07
3.37455e-08
-3.81148e-08
-1.63381e-07
1.6775e-07
4.30023e-08
-4.83437e-08
-1.73731e-07
1.79072e-07
5.52102e-08
-6.26931e-08
-1.79567e-07
1.8705e-07
7.11025e-08
-7.9091e-08
-1.6186e-07
1.69848e-07
8.70731e-08
-9.39156e-08
-1.22586e-07
1.29429e-07
1.00113e-07
-1.05028e-07
-7.38002e-08
7.87155e-08
1.09524e-07
-1.1381e-07
-2.86045e-08
3.28908e-08
1.19e-07
-1.24443e-07
1.52983e-08
-9.8559e-09
1.2824e-07
-1.19514e-07
9.98207e-08
-1.08547e-07
7.35534e-08
-4.44016e-08
2.33023e-07
-2.62175e-07
-1.52201e-07
3.23025e-08
8.4474e-07
-7.24842e-07
9.25208e-08
-4.19382e-08
2.99295e-07
-3.49877e-07
6.96752e-08
-1.11873e-07
2.93351e-07
-2.51154e-07
1.58818e-07
-1.97534e-07
1.909e-07
-1.52185e-07
1.92075e-07
-1.68167e-07
-7.20972e-08
4.81885e-08
1.33155e-07
-9.03707e-08
-1.44574e-07
1.01789e-07
4.9718e-08
-2.18304e-08
-9.13862e-08
6.34986e-08
3.35619e-09
6.84099e-09
-2.96816e-08
1.94845e-08
-1.18568e-08
1.28005e-08
3.76486e-09
-4.7086e-09
-1.08118e-08
7.23666e-09
2.08776e-08
-1.73025e-08
-4.88383e-09
3.43297e-09
1.7472e-08
-1.60211e-08
-1.65262e-08
1.67511e-08