/*--------------------------------*- C++ -*----------------------------------*\
| =========                 |                                                 |
| \\      /  F ield         | OpenFOAM: The Open Source CFD Toolbox           |
|  \\    /   O peration     | Version:  2.4.0                                 |
|   \\  /    A nd           | Web:      www.OpenFOAM.org                      |
|    \\/     M anipulation  |                                                 |
\*---------------------------------------------------------------------------*/
FoamFile
{
    version     2.0;
    format      ascii;
    class       surfaceScalarField;
    location    "0.423";
    object      phi;
}
// * * * * * * * * * * * * * * * * * * * * * * * * * * * * * * * * * * * * * //

dimensions      [0 3 -1 0 0 0 0];

internalField   nonuniform List<scalar> 
19800
(
-9.0999e-16
9.09956e-16
-8.80774e-14
8.72125e-14
-2.67556e-13
1.79488e-13
-5.18014e-13
2.50477e-13
-8.16545e-13
2.98542e-13
-1.14364e-12
3.27088e-13
-1.48369e-12
3.40036e-13
-1.82456e-12
3.40866e-13
-2.157e-12
3.32463e-13
-2.47416e-12
3.17182e-13
-2.77113e-12
2.96974e-13
-3.04461e-12
2.73481e-13
-3.29274e-12
2.48123e-13
-3.51492e-12
2.22169e-13
-3.71172e-12
1.96804e-13
-3.88489e-12
1.73173e-13
-4.03729e-12
1.52404e-13
-4.17288e-12
1.35594e-13
-4.29664e-12
1.23769e-13
-4.41445e-12
1.17816e-13
-4.53287e-12
1.18423e-13
-4.6589e-12
1.26036e-13
-4.79973e-12
1.4083e-13
-4.96243e-12
1.627e-13
-5.15367e-12
1.91249e-13
-5.37944e-12
2.25765e-13
-5.64461e-12
2.65161e-13
-5.95247e-12
3.07857e-13
-6.30412e-12
3.51648e-13
-6.69772e-12
3.93598e-13
-7.12789e-12
4.30168e-13
-7.58565e-12
4.57755e-13
-8.05931e-12
4.73664e-13
-8.5367e-12
4.77395e-13
-9.00872e-12
4.72032e-13
-9.47305e-12
4.64318e-13
-9.93533e-12
4.62253e-13
-1.04055e-11
4.70132e-13
-1.08918e-11
4.86388e-13
-1.13968e-11
5.04972e-13
-1.19152e-11
5.18412e-13
-1.24356e-11
5.20328e-13
-1.29423e-11
5.06743e-13
-1.34186e-11
4.76294e-13
-1.38484e-11
4.29837e-13
-1.42183e-11
3.69847e-13
-1.4518e-11
2.99704e-13
-1.47411e-11
2.23078e-13
-1.48845e-11
1.43477e-13
6.39588e-14
-1.49485e-11
-8.81956e-14
8.90834e-14
-3.78232e-13
3.77264e-13
-8.54886e-13
6.56124e-13
-1.48004e-12
8.75622e-13
-2.21007e-12
1.02859e-12
-3.00425e-12
1.1213e-12
-3.82756e-12
1.16336e-12
-4.65118e-12
1.16449e-12
-5.45211e-12
1.1334e-12
-6.21263e-12
1.07771e-12
-6.91967e-12
1.00403e-12
-7.56434e-12
9.18143e-13
-8.14145e-12
8.25229e-13
-8.64929e-12
7.30006e-13
-9.08939e-12
6.36903e-13
-9.46639e-12
5.50186e-13
-9.78798e-12
4.74012e-13
-1.00648e-11
4.12387e-13
-1.031e-11
3.69003e-13
-1.05392e-11
3.47013e-13
-1.07696e-11
3.48803e-13
-1.10194e-11
3.75841e-13
-1.13071e-11
4.28616e-13
-1.1651e-11
5.06606e-13
-1.20681e-11
6.08264e-13
-1.25732e-11
7.30956e-13
-1.31789e-11
8.708e-13
-1.38934e-11
1.02237e-12
-1.472e-11
1.17824e-12
-1.56551e-11
1.32872e-12
-1.66871e-11
1.46211e-12
-1.77959e-11
1.56658e-12
-1.89555e-11
1.63321e-12
-2.01383e-11
1.66021e-12
-2.13238e-11
1.65748e-12
-2.25064e-11
1.64695e-12
-2.36989e-11
1.65472e-12
-2.49232e-11
1.69445e-12
-2.6197e-11
1.7602e-12
-2.75233e-11
1.83122e-12
-2.88871e-11
1.88222e-12
-3.02585e-11
1.89172e-12
-3.1598e-11
1.84629e-12
-3.28631e-11
1.74136e-12
-3.40131e-11
1.57983e-12
-3.50131e-11
1.36993e-12
-3.58365e-11
1.12307e-12
-3.64652e-11
8.51766e-13
-3.68899e-11
5.68177e-13
2.82938e-13
-3.71089e-11
-1.80831e-13
2.69925e-13
-6.56414e-13
8.5289e-13
-1.37342e-12
1.37314e-12
-2.27712e-12
1.77931e-12
-3.31203e-12
2.06348e-12
-4.42602e-12
2.2353e-12
-5.57297e-12
2.31034e-12
-6.71371e-12
2.30525e-12
-7.81617e-12
2.23586e-12
-8.85505e-12
2.1166e-12
-9.81147e-12
1.96044e-12
-1.06724e-11
1.77912e-12
-1.14305e-11
1.58328e-12
-1.20833e-11
1.3828e-12
-1.26334e-11
1.187e-12
-1.3088e-11
1.00486e-12
-1.34591e-11
8.4512e-13
-1.37629e-11
7.16145e-13
-1.40195e-11
6.25595e-13
-1.42524e-11
5.79932e-13
-1.44875e-11
5.83934e-13
-1.47521e-11
6.40408e-13
-1.50736e-11
7.50085e-13
-1.54786e-11
9.1164e-13
-1.5992e-11
1.12172e-12
-1.6636e-11
1.37493e-12
-1.74288e-11
1.66357e-12
-1.83836e-11
1.97713e-12
-1.95067e-11
2.3014e-12
-2.07955e-11
2.6175e-12
-2.22356e-11
2.90215e-12
-2.37999e-11
3.13092e-12
-2.5451e-11
3.28427e-12
-2.71469e-11
3.35614e-12
-2.88544e-11
3.36491e-12
-3.05636e-11
3.35614e-12
-3.22956e-11
3.38681e-12
-3.40872e-11
3.48603e-12
-3.59665e-11
3.63949e-12
-3.7937e-11
3.80165e-12
-3.9974e-11
3.9192e-12
-4.20304e-11
3.94817e-12
-4.40461e-11
3.86195e-12
-4.59568e-11
3.6521e-12
-4.77021e-11
3.32514e-12
-4.92303e-11
2.89811e-12
-5.05013e-11
2.39408e-12
-5.14879e-11
1.83838e-12
-5.21754e-11
1.25562e-12
6.67451e-13
-5.25599e-11
-2.49886e-13
5.19805e-13
-8.66827e-13
1.46986e-12
-1.7598e-12
2.26615e-12
-2.8557e-12
2.87521e-12
-4.08886e-12
3.29663e-12
-5.39985e-12
3.54629e-12
-6.73618e-12
3.64668e-12
-8.05279e-12
3.62189e-12
-9.31234e-12
3.49543e-12
-1.04851e-11
3.28938e-12
-1.15488e-11
3.02416e-12
-1.24883e-11
2.71857e-12
-1.3295e-11
2.38997e-12
-1.39667e-11
2.05458e-12
-1.45075e-11
1.7278e-12
-1.49272e-11
1.42452e-12
-1.52413e-11
1.15924e-12
-1.5471e-11
9.45831e-13
-1.56423e-11
7.9695e-13
-1.57855e-11
7.23141e-13
-1.59336e-11
7.31984e-13
-1.61208e-11
8.27627e-13
-1.63814e-11
1.01073e-12
-1.67484e-11
1.27862e-12
-1.72522e-11
1.62554e-12
-1.79201e-11
2.0428e-12
-1.87752e-11
2.51866e-12
-1.98356e-11
3.03754e-12
-2.11126e-11
3.57839e-12
-2.26072e-11
4.11212e-12
-2.43059e-11
4.6008e-12
-2.61771e-11
5.00207e-12
-2.81713e-11
5.27848e-12
-3.02271e-11
5.41202e-12
-3.22907e-11
5.42847e-12
-3.43437e-11
5.40906e-12
-3.64223e-11
5.46547e-12
-3.85895e-11
5.65319e-12
-4.08923e-11
5.94225e-12
-4.33366e-11
6.24598e-12
-4.58868e-11
6.46939e-12
-4.84771e-11
6.53848e-12
-5.10265e-11
6.4113e-12
-5.34511e-11
6.07672e-12
-5.56737e-11
5.54775e-12
-5.76292e-11
4.85364e-12
-5.92677e-11
4.03259e-12
-6.05553e-11
3.126e-12
-6.14736e-11
2.17393e-12
1.21165e-12
-6.20178e-11
-2.92285e-13
8.12092e-13
-9.97569e-13
2.17514e-12
-1.99688e-12
3.26549e-12
-3.20073e-12
4.07909e-12
-4.53443e-12
4.63034e-12
-5.93317e-12
4.94503e-12
-7.34066e-12
5.05416e-12
-8.70883e-12
4.99007e-12
-9.99787e-12
4.78449e-12
-1.11762e-11
4.46775e-12
-1.22205e-11
4.06839e-12
-1.31149e-11
3.61307e-12
-1.38516e-11
3.12664e-12
-1.44295e-11
2.63246e-12
-1.48544e-11
2.15275e-12
-1.5139e-11
1.70908e-12
-1.53023e-11
1.32253e-12
-1.53698e-11
1.01336e-12
-1.53729e-11
8.00068e-13
-1.53476e-11
6.97832e-13
-1.53328e-11
7.17132e-13
-1.53682e-11
8.63073e-13
-1.5493e-11
1.13553e-12
-1.5744e-11
1.52961e-12
-1.61548e-11
2.03635e-12
-1.67554e-11
2.64343e-12
-1.75723e-11
3.33548e-12
-1.8628e-11
4.09331e-12
-1.99409e-11
4.8912e-12
-2.15197e-11
5.69094e-12
-2.33563e-11
6.43738e-12
-2.54178e-11
7.06358e-12
-2.76417e-11
7.50236e-12
-2.99368e-11
7.70708e-12
-3.22116e-11
7.7033e-12
-3.44287e-11
7.62619e-12
-3.66536e-11
7.6903e-12
-3.89983e-11
7.99784e-12
-4.15434e-11
8.48743e-12
-4.42993e-11
9.00183e-12
-4.72142e-11
9.38426e-12
-5.01987e-11
9.52297e-12
-5.31487e-11
9.36132e-12
-5.59616e-11
8.88964e-12
-5.85461e-11
8.13225e-12
-6.08272e-11
7.13479e-12
-6.27487e-11
5.95403e-12
-6.42728e-11
4.65013e-12
-6.53798e-11
3.28098e-12
1.8975e-12
-6.60657e-11
-3.10488e-13
1.1226e-12
-1.05179e-12
2.91645e-12
-2.08829e-12
4.302e-12
-3.31882e-12
5.30963e-12
-4.66175e-12
5.97328e-12
-6.04844e-12
6.33173e-12
-7.42048e-12
6.42621e-12
-8.72869e-12
6.29829e-12
-9.93283e-12
5.98864e-12
-1.10015e-11
5.53644e-12
-1.1912e-11
4.97894e-12
-1.26502e-11
4.35126e-12
-1.32099e-11
3.68628e-12
-1.35923e-11
3.01489e-12
-1.3806e-11
2.36651e-12
-1.38667e-11
1.76972e-12
-1.37968e-11
1.25266e-12
-1.36261e-11
8.42673e-13
-1.33909e-11
5.64826e-13
-1.31324e-11
4.394e-13
-1.28948e-11
4.79522e-13
-1.27221e-11
6.90322e-13
-1.26561e-11
1.06954e-12
-1.2735e-11
1.60856e-12
-1.29925e-11
2.29379e-12
-1.34576e-11
3.10858e-12
-1.41569e-11
4.03473e-12
-1.51162e-11
5.05258e-12
-1.63625e-11
6.1375e-12
-1.79184e-11
7.24691e-12
-1.97887e-11
8.30768e-12
-2.19464e-11
9.22125e-12
-2.43177e-11
9.87368e-12
-2.67662e-11
1.01555e-11
-2.91308e-11
1.00679e-11
-3.13297e-11
9.82509e-12
-3.34842e-11
9.84474e-12
-3.57986e-11
1.03123e-11
-3.84102e-11
1.1099e-11
-4.13295e-11
1.19212e-11
-4.44767e-11
1.25315e-11
-4.77289e-11
1.27752e-11
-5.09554e-11
1.25878e-11
-5.40357e-11
1.197e-11
-5.68681e-11
1.09646e-11
-5.93721e-11
9.63882e-12
-6.14889e-11
8.07079e-12
-6.31803e-11
6.34151e-12
-6.44276e-11
4.52828e-12
2.69923e-12
-6.52294e-11
-3.07927e-13
1.43056e-12
-1.03757e-12
3.64611e-12
-2.04663e-12
5.31106e-12
-3.2278e-12
6.4908e-12
-4.49539e-12
7.24088e-12
-5.7786e-12
7.61494e-12
-7.01826e-12
7.66586e-12
-8.16541e-12
7.44544e-12
-9.18086e-12
7.0041e-12
-1.0035e-11
6.39059e-12
-1.07077e-11
5.65161e-12
-1.11877e-11
4.83129e-12
-1.14723e-11
3.97094e-12
-1.15666e-11
3.10916e-12
-1.14826e-11
2.28253e-12
-1.12395e-11
1.52657e-12
-1.08634e-11
8.76618e-13
-1.03884e-11
3.67614e-13
-9.85561e-12
3.20732e-14
-9.31209e-12
-1.04128e-13
-8.80677e-12
-2.57991e-14
-8.38699e-12
2.70544e-13
-8.09571e-12
7.78249e-13
-7.96949e-12
1.48235e-12
-8.03752e-12
2.36182e-12
-8.32267e-12
3.39375e-12
-8.84527e-12
4.55732e-12
-9.62991e-12
5.83721e-12
-1.07138e-11
7.22137e-12
-1.21416e-11
8.67467e-12
-1.39428e-11
1.01089e-11
-1.6112e-11
1.13905e-11
-1.85779e-11
1.23395e-11
-2.11393e-11
1.27169e-11
-2.35054e-11
1.24339e-11
-2.54901e-11
1.18098e-11
-2.73252e-11
1.16799e-11
-2.9388e-11
1.23751e-11
-3.19041e-11
1.3615e-11
-3.48657e-11
1.48828e-11
-3.81376e-11
1.58033e-11
-4.15474e-11
1.6185e-11
-4.49343e-11
1.59747e-11
-4.81639e-11
1.51996e-11
-5.11303e-11
1.3931e-11
-5.37533e-11
1.22619e-11
-5.59762e-11
1.02937e-11
-5.77634e-11
8.12869e-12
-5.90995e-11
5.86431e-12
3.5871e-12
-5.99874e-11
-2.88007e-13
1.71858e-12
-9.64375e-13
4.32252e-12
-1.88819e-12
6.23488e-12
-2.95122e-12
7.55383e-12
-4.06677e-12
8.35642e-12
-5.16357e-12
8.71175e-12
-6.18285e-12
8.68514e-12
-7.07689e-12
8.33949e-12
-7.80863e-12
7.73586e-12
-8.35157e-12
6.93354e-12
-8.68952e-12
5.98957e-12
-8.8161e-12
4.95787e-12
-8.73378e-12
3.88863e-12
-8.4528e-12
2.82819e-12
-7.99016e-12
1.81989e-12
-7.36921e-12
9.0564e-13
-6.62021e-12
1.27616e-13
-5.78144e-12
-4.7116e-13
-4.89993e-12
-8.49446e-13
-4.02923e-12
-9.74842e-13
-3.22406e-12
-8.30981e-13
-2.53486e-12
-4.18656e-13
-2.00431e-12
2.47705e-13
-1.66453e-12
1.14258e-12
-1.53479e-12
2.23208e-12
-1.62313e-12
3.4821e-12
-1.93252e-12
4.86671e-12
-2.47543e-12
6.38013e-12
-3.29801e-12
8.04394e-12
-4.47827e-12
9.85492e-12
-6.08685e-12
1.17175e-11
-8.16927e-12
1.34729e-11
-1.06993e-11
1.48696e-11
-1.33973e-11
1.54149e-11
-1.57338e-11
1.47704e-11
-1.72744e-11
1.33505e-11
-1.848e-11
1.28854e-11
-2.0053e-11
1.39481e-11
-2.23478e-11
1.59098e-11
-2.52798e-11
1.78149e-11
-2.86047e-11
1.91281e-11
-3.20794e-11
1.96598e-11
-3.55154e-11
1.94107e-11
-3.8775e-11
1.84592e-11
-4.17589e-11
1.69149e-11
-4.43956e-11
1.48987e-11
-4.66353e-11
1.25333e-11
-4.84472e-11
9.94054e-12
-4.98203e-11
7.23745e-12
4.53039e-12
-5.07636e-11
-2.53896e-13
1.97248e-12
-8.41982e-13
4.91063e-12
-1.63087e-12
7.02379e-12
-2.5158e-12
8.43876e-12
-3.41169e-12
9.2523e-12
-4.24838e-12
9.54844e-12
-4.96833e-12
9.40509e-12
-5.52569e-12
8.89687e-12
-5.88628e-12
8.09646e-12
-6.02764e-12
7.07491e-12
-5.93895e-12
5.90088e-12
-5.62032e-12
4.63925e-12
-5.08148e-12
3.34979e-12
-4.33996e-12
2.08669e-12
-3.4194e-12
8.99336e-13
-2.34858e-12
-1.65179e-13
-1.16212e-12
-1.05884e-12
9.69897e-14
-1.73028e-12
1.37483e-12
-2.1273e-12
2.60893e-12
-2.20895e-12
3.73668e-12
-1.95875e-12
4.70351e-12
-1.38549e-12
5.467e-12
-5.15774e-13
6.0013e-12
6.08279e-13
6.3032e-12
1.93019e-12
6.39156e-12
3.39373e-12
6.3006e-12
4.95768e-12
6.0535e-12
6.62723e-12
5.60249e-12
8.49495e-12
4.82087e-12
1.06365e-11
3.58104e-12
1.29573e-11
1.74424e-12
1.53097e-11
-8.18623e-13
1.74324e-11
-3.76863e-12
1.83649e-11
-6.15198e-12
1.71537e-11
-6.94505e-12
1.41436e-11
-7.10098e-12
1.30414e-11
-7.9365e-12
1.47836e-11
-9.96936e-12
1.79426e-11
-1.28859e-11
2.07314e-11
-1.62393e-11
2.24815e-11
-1.96988e-11
2.31193e-11
-2.30679e-11
2.27798e-11
-2.62295e-11
2.16208e-11
-2.91088e-11
1.97941e-11
-3.16526e-11
1.74425e-11
-3.38219e-11
1.47026e-11
-3.55911e-11
1.17097e-11
-3.6953e-11
8.59933e-12
5.50021e-12
-3.79228e-11
-2.08583e-13
2.18107e-12
-6.8022e-13
5.38227e-12
-1.29356e-12
7.63713e-12
-1.95053e-12
9.09573e-12
-2.56967e-12
9.87144e-12
-3.0829e-12
1.00617e-11
-3.43429e-12
9.75649e-12
-3.58003e-12
9.04262e-12
-3.48898e-12
8.00542e-12
-3.14332e-12
6.72925e-12
-2.53867e-12
5.29624e-12
-1.68343e-12
3.78402e-12
-5.96979e-13
2.26334e-12
6.93095e-13
7.96618e-13
2.15394e-12
-5.61502e-13
3.74952e-12
-1.76076e-12
5.44024e-12
-2.74957e-12
7.17843e-12
-3.46847e-12
8.90173e-12
-3.85061e-12
1.0535e-11
-3.84221e-12
1.20038e-11
-3.42761e-12
1.32468e-11
-2.62844e-12
1.42187e-11
-1.48771e-12
1.48982e-11
-7.1209e-14
1.53028e-11
1.52565e-12
1.54927e-11
3.20377e-12
1.55722e-11
4.87815e-12
1.56497e-11
6.5498e-12
1.56952e-11
8.44938e-12
1.55117e-11
1.08201e-11
1.49082e-11
1.35607e-11
1.36218e-11
1.65961e-11
1.1137e-11
1.99173e-11
7.69744e-12
2.18044e-11
4.96564e-12
1.98855e-11
5.38861e-12
1.37206e-11
6.88098e-12
1.1549e-11
6.99974e-12
1.46649e-11
5.07912e-12
1.98633e-11
2.02815e-12
2.37824e-11
-1.37545e-12
2.58851e-11
-4.73072e-12
2.64745e-11
-7.89253e-12
2.59416e-11
-1.08094e-11
2.45377e-11
-1.34537e-11
2.24384e-11
-1.57999e-11
1.97887e-11
-1.78198e-11
1.67225e-11
-1.94885e-11
1.33784e-11
-2.07983e-11
9.9092e-12
6.47245e-12
-2.17706e-11
-1.55002e-13
2.33608e-12
-4.89173e-13
5.71643e-12
-8.9622e-13
8.04417e-12
-1.2868e-12
9.48631e-12
-1.58411e-12
1.01688e-11
-1.7224e-12
1.02e-11
-1.64704e-12
9.68115e-12
-1.31568e-12
8.71127e-12
-6.99715e-13
7.38947e-12
2.14169e-13
5.81537e-12
1.42325e-12
4.08716e-12
2.9092e-12
2.29806e-12
4.64028e-12
5.32269e-13
6.57513e-12
-1.13823e-12
8.66768e-12
-2.65405e-12
1.08715e-11
-3.96453e-12
1.31408e-11
-5.01891e-12
1.54241e-11
-5.75178e-12
1.76494e-11
-6.07593e-12
1.9724e-11
-5.9168e-12
2.15564e-11
-5.26005e-12
2.30733e-11
-4.14535e-12
2.42181e-11
-2.63246e-12
2.49625e-11
-8.15599e-13
2.53423e-11
1.14579e-12
2.54703e-11
3.07584e-12
2.55695e-11
4.77894e-12
2.59377e-11
6.18155e-12
2.66098e-11
7.77728e-12
2.72787e-11
1.01512e-11
2.77188e-11
1.31206e-11
2.7556e-11
1.67589e-11
2.55205e-11
2.19528e-11
2.13087e-11
2.60163e-11
1.74769e-11
2.37173e-11
1.99053e-11
1.12922e-11
2.38857e-11
7.56871e-12
2.49957e-11
1.35549e-11
2.26629e-11
2.2196e-11
1.91364e-11
2.73089e-11
1.56471e-11
2.93744e-11
1.25496e-11
2.9572e-11
9.79539e-12
2.86958e-11
7.30133e-12
2.70318e-11
5.02756e-12
2.47122e-11
2.9723e-12
2.1844e-11
1.16176e-12
1.85331e-11
-3.67585e-13
1.49077e-11
-1.59789e-12
1.11395e-11
7.43029e-12
-2.55574e-12
-9.61606e-14
2.43225e-12
-2.79454e-13
5.89971e-12
-4.6029e-13
8.22499e-12
-5.5886e-13
9.58488e-12
-5.03061e-13
1.0113e-11
-2.2878e-13
9.9257e-12
3.18477e-13
9.13391e-12
1.18115e-12
7.84861e-12
2.3868e-12
6.18383e-12
3.94539e-12
4.25679e-12
5.8474e-12
2.18516e-12
8.06353e-12
8.19353e-14
1.05468e-11
-1.95102e-12
1.32375e-11
-3.82891e-12
1.60702e-11
-5.48681e-12
1.89821e-11
-6.87638e-12
2.19183e-11
-7.95511e-12
2.48249e-11
-8.65835e-12
2.7621e-11
-8.87208e-12
3.01923e-11
-8.48804e-12
3.24252e-11
-7.493e-12
3.42279e-11
-5.94802e-12
3.55141e-11
-3.91867e-12
3.62216e-11
-1.52313e-12
3.63873e-11
9.80078e-13
3.61615e-11
3.30167e-12
3.59371e-11
5.00334e-12
3.64089e-11
5.70976e-12
3.78073e-11
6.37881e-12
3.95715e-11
8.38703e-12
4.16825e-11
1.10097e-11
4.3731e-11
1.47103e-11
4.29283e-11
2.27555e-11
3.80299e-11
3.09147e-11
3.16355e-11
3.01117e-11
3.72121e-11
5.7157e-12
4.48207e-11
-3.98985e-14
4.63686e-11
1.20069e-11
4.25261e-11
2.60385e-11
3.79546e-11
3.18804e-11
3.4474e-11
3.2855e-11
3.19646e-11
3.20814e-11
2.99148e-11
3.07457e-11
2.80475e-11
2.8899e-11
2.6268e-11
2.64917e-11
2.45659e-11
2.35462e-11
2.29864e-11
2.01126e-11
2.16026e-11
1.62915e-11
2.04607e-11
1.22814e-11
8.36427e-12
1.95267e-11
-3.52518e-14
2.46749e-12
-6.24809e-14
5.92693e-12
-9.06717e-15
8.17157e-12
1.9561e-13
9.38021e-12
6.19963e-13
9.68863e-12
1.32807e-12
9.21761e-12
2.37647e-12
8.08552e-12
3.81033e-12
6.41476e-12
5.659e-12
4.33516e-12
7.93177e-12
1.98401e-12
1.06142e-11
-4.97321e-13
1.36666e-11
-2.97039e-12
1.70246e-11
-5.30905e-12
2.0605e-11
-7.40934e-12
2.43149e-11
-9.19668e-12
2.80638e-11
-1.06253e-11
3.17789e-11
-1.16703e-11
3.54032e-11
-1.22826e-11
3.88498e-11
-1.23187e-11
4.19852e-11
-1.16234e-11
4.46778e-11
-1.01856e-11
4.68145e-11
-8.08466e-12
4.82513e-11
-5.35551e-12
4.88413e-11
-2.11316e-12
4.85826e-11
1.23879e-12
4.75737e-11
4.31064e-12
4.63612e-11
6.21582e-12
4.63725e-11
5.69841e-12
4.85128e-11
4.23855e-12
5.16252e-11
5.27454e-12
5.55277e-11
7.10717e-12
6.20596e-11
8.17843e-12
6.55688e-11
1.92462e-11
5.88981e-11
3.75854e-11
4.84916e-11
4.05182e-11
5.97904e-11
-5.58304e-12
7.10894e-11
-1.13389e-11
7.16186e-11
1.14777e-11
6.36579e-11
3.39992e-11
5.74915e-11
3.80467e-11
5.48149e-11
3.55316e-11
5.36306e-11
3.32657e-11
5.26818e-11
3.16944e-11
5.16001e-11
2.99807e-11
5.03528e-11
2.7739e-11
4.89798e-11
2.49192e-11
4.75805e-11
2.15119e-11
4.62983e-11
1.75738e-11
4.52329e-11
1.33468e-11
9.26491e-12
4.43322e-11
2.42701e-14
2.44321e-12
1.49427e-13
5.80177e-12
4.32099e-13
7.8889e-12
9.35215e-13
8.8771e-12
1.72541e-12
8.89845e-12
2.86916e-12
8.07388e-12
4.42818e-12
6.52651e-12
6.45409e-12
4.38886e-12
8.98247e-12
1.80677e-12
1.20267e-11
-1.06018e-12
1.55719e-11
-4.04253e-12
1.95709e-11
-6.96946e-12
2.39432e-11
-9.68132e-12
2.85782e-11
-1.20444e-11
3.33455e-11
-1.3964e-11
3.81091e-11
-1.53888e-11
4.27571e-11
-1.63183e-11
4.72166e-11
-1.67421e-11
5.13969e-11
-1.6499e-11
5.51651e-11
-1.53916e-11
5.83996e-11
-1.34201e-11
6.09783e-11
-1.06633e-11
6.2664e-11
-7.04127e-12
6.31488e-11
-2.59793e-12
6.23461e-11
2.04148e-12
6.00776e-11
6.57909e-12
5.6841e-11
9.45247e-12
5.51287e-11
7.41072e-12
5.70611e-11
2.30612e-12
6.2916e-11
-5.80387e-13
6.8876e-11
1.14717e-12
7.84631e-11
-1.40866e-12
9.24192e-11
5.29019e-12
9.51271e-11
3.48774e-11
7.20776e-11
6.35677e-11
9.19231e-11
-2.54286e-11
1.01327e-10
-2.07424e-11
9.69688e-11
1.58355e-11
7.986e-11
5.1108e-11
7.63209e-11
4.15858e-11
7.72907e-11
3.45618e-11
7.85629e-11
3.19935e-11
7.88876e-11
3.13697e-11
7.8461e-11
3.04074e-11
7.75647e-11
2.86353e-11
7.63282e-11
2.61558e-11
7.49219e-11
2.29182e-11
7.36113e-11
1.88843e-11
7.25963e-11
1.43619e-11
1.00931e-11
7.17682e-11
7.87015e-14
2.3645e-12
3.43044e-13
5.53743e-12
8.35989e-13
7.39597e-12
1.61514e-12
8.09797e-12
2.74793e-12
7.76568e-12
4.30628e-12
6.51554e-12
6.36078e-12
4.47201e-12
8.97422e-12
1.77542e-12
1.21943e-11
-1.4133e-12
1.60455e-11
-4.91136e-12
2.05204e-11
-8.51752e-12
2.55725e-11
-1.20216e-11
3.11106e-11
-1.52194e-11
3.69977e-11
-1.79315e-11
4.3057e-11
-2.00232e-11
4.90852e-11
-2.1417e-11
5.48956e-11
-2.21287e-11
6.03625e-11
-2.2209e-11
6.53762e-11
-2.15126e-11
6.98326e-11
-1.9848e-11
7.36798e-11
-1.72674e-11
7.68483e-11
-1.38318e-11
7.89874e-11
-9.18037e-12
7.95425e-11
-3.15306e-12
7.8346e-11
3.238e-12
7.45105e-11
1.04146e-11
6.80416e-11
1.59213e-11
6.3147e-11
1.23054e-11
6.18447e-11
3.60841e-12
6.73979e-11
-6.13359e-12
7.97489e-11
-1.12038e-11
8.78703e-11
-9.53009e-12
1.06154e-10
-1.29933e-11
1.4728e-10
-6.2492e-12
1.2802e-10
8.2828e-11
1.44677e-10
-4.20859e-11
1.15377e-10
8.55788e-12
9.28049e-11
3.84077e-11
9.45326e-11
4.93803e-11
1.02869e-10
3.32496e-11
1.07763e-10
2.96681e-11
1.09818e-10
2.99379e-11
1.09875e-10
3.13126e-11
1.09154e-10
3.11283e-11
1.081e-10
2.96896e-11
1.0665e-10
2.76055e-11
1.04928e-10
2.464e-11
1.03375e-10
2.04376e-11
1.02398e-10
1.53394e-11
1.07125e-11
1.01778e-10
1.24159e-13
2.24034e-12
5.04679e-13
5.15691e-12
1.17431e-12
6.72635e-12
2.18839e-12
7.0839e-12
3.61804e-12
6.33603e-12
5.54371e-12
4.58987e-12
8.04863e-12
1.96709e-12
1.12117e-11
-1.3877e-12
1.50996e-11
-5.3012e-12
1.97569e-11
-9.56868e-12
2.51954e-11
-1.3956e-11
3.13821e-11
-1.82083e-11
3.82289e-11
-2.20661e-11
4.55817e-11
-2.52843e-11
5.3219e-11
-2.76606e-11
6.08549e-11
-2.90528e-11
6.81809e-11
-2.94547e-11
7.49465e-11
-2.89745e-11
8.09693e-11
-2.75354e-11
8.61623e-11
-2.50411e-11
9.06063e-11
-2.17114e-11
9.44357e-11
-1.76611e-11
9.72443e-11
-1.1989e-11
9.81952e-11
-4.10395e-12
9.72851e-11
4.14811e-12
9.18863e-11
1.58133e-11
8.11943e-11
2.66133e-11
7.27665e-11
2.07331e-11
6.74042e-11
8.97076e-12
6.64103e-11
-5.13963e-12
6.81997e-11
-1.29933e-11
6.9081e-11
-1.04114e-11
5.80059e-11
-1.91823e-12
4.14478e-11
1.03089e-11
1.35004e-10
-1.07278e-11
1.18105e-10
-2.51878e-11
1.58188e-10
-3.15251e-11
1.78791e-10
1.78056e-11
1.70426e-10
5.77452e-11
1.57707e-10
4.59678e-11
1.51468e-10
3.59078e-11
1.47137e-10
3.42689e-11
1.44099e-10
3.43504e-11
1.42426e-10
3.28016e-11
1.41217e-10
3.08978e-11
1.39496e-10
2.93272e-11
1.37209e-10
2.69271e-11
1.3518e-10
2.24664e-11
1.34334e-10
1.61853e-11
1.07559e-11
1.34291e-10
1.56806e-13
2.08354e-12
6.20874e-13
4.69285e-12
1.41922e-12
5.92802e-12
2.60828e-12
5.89485e-12
4.26561e-12
4.67871e-12
6.48268e-12
2.37279e-12
9.35829e-12
-9.08529e-13
1.29916e-11
-5.02105e-12
1.74744e-11
-9.78394e-12
2.28807e-11
-1.4975e-11
2.92549e-11
-2.03301e-11
3.65965e-11
-2.55499e-11
4.48427e-11
-3.03124e-11
5.3848e-11
-3.42896e-11
6.33675e-11
-3.718e-11
7.30367e-11
-3.8722e-11
8.23866e-11
-3.88046e-11
9.09464e-11
-3.75343e-11
9.83529e-11
-3.49419e-11
1.04413e-10
-3.11013e-11
1.09316e-10
-2.66141e-11
1.13575e-10
-2.19202e-11
1.16963e-10
-1.53774e-11
1.18401e-10
-5.54127e-12
1.19225e-10
3.32356e-12
1.13119e-10
2.19193e-11
9.68588e-11
4.28738e-11
8.59162e-11
3.16757e-11
8.05984e-11
1.42886e-11
7.53768e-11
8.19955e-14
7.29439e-11
-1.05603e-11
7.13684e-11
-8.83585e-12
7.18783e-11
-2.42812e-12
8.1453e-11
7.34102e-13
1.42667e-10
-7.19415e-11
1.01613e-10
1.58658e-11
8.97969e-11
-1.97089e-11
1.43381e-10
-3.57787e-11
1.57522e-10
4.36041e-11
1.67617e-10
3.58728e-11
1.70616e-10
3.29093e-11
1.72607e-10
3.22775e-11
1.73807e-10
3.31504e-11
1.75148e-10
3.14603e-11
1.75746e-10
3.03006e-11
1.74334e-10
3.07386e-11
1.71255e-10
3.0006e-11
1.68368e-10
2.53534e-11
1.67875e-10
1.66792e-11
9.44811e-12
1.69182e-10
1.73174e-13
1.91037e-12
6.79527e-13
4.18651e-12
1.54559e-12
5.06196e-12
2.83229e-12
4.60815e-12
4.6256e-12
2.8854e-12
7.02929e-12
-3.09156e-14
1.01588e-11
-4.03805e-12
1.41352e-11
-8.99749e-12
1.90787e-11
-1.47274e-11
2.50994e-11
-2.09957e-11
3.2286e-11
-2.75168e-11
4.06906e-11
-3.39545e-11
5.03059e-11
-3.99276e-11
6.1036e-11
-4.50197e-11
7.26632e-11
-4.88073e-11
8.47927e-11
-5.08515e-11
9.68149e-11
-5.08268e-11
1.07958e-10
-4.86772e-11
1.17494e-10
-4.4478e-11
1.24875e-10
-3.84826e-11
1.30184e-10
-3.19232e-11
1.34318e-10
-2.60541e-11
1.37448e-10
-1.85076e-11
1.37553e-10
-5.64618e-12
1.41397e-10
-5.20215e-13
1.4022e-10
2.30963e-11
1.13021e-10
7.00733e-11
1.04528e-10
4.01679e-11
1.00442e-10
1.83749e-11
9.61929e-11
4.33124e-12
9.40268e-11
-8.39426e-12
1.00839e-10
-1.56481e-11
1.21871e-10
-2.346e-11
1.64666e-10
-4.20614e-11
1.5664e-10
-6.3915e-11
1.50708e-10
2.17977e-11
1.01396e-10
2.96034e-11
7.6546e-11
-1.09289e-11
1.31593e-10
-1.14432e-11
1.59647e-10
7.81902e-12
1.81558e-10
1.0998e-11
1.96052e-10
1.77842e-11
2.03928e-10
2.52737e-11
2.099e-10
2.54893e-11
2.12762e-10
2.74385e-11
2.1133e-10
3.21702e-11
2.06583e-10
3.47532e-11
2.0196e-10
2.99762e-11
2.02145e-10
1.64945e-11
5.32282e-12
2.0627e-10
1.70557e-13
1.73982e-12
6.71279e-13
3.6858e-12
1.53393e-12
4.19931e-12
2.82693e-12
3.31516e-12
4.64567e-12
1.06665e-12
7.10572e-12
-2.49097e-12
1.03375e-11
-7.26986e-12
1.44819e-11
-1.31419e-11
1.96856e-11
-1.99311e-11
2.60946e-11
-2.74047e-11
3.38466e-11
-3.52688e-11
4.30578e-11
-4.31658e-11
5.38023e-11
-5.06721e-11
6.60812e-11
-5.72987e-11
7.97791e-11
-6.25052e-11
9.45851e-11
-6.56574e-11
1.09895e-10
-6.61371e-11
1.24678e-10
-6.34603e-11
1.37617e-10
-5.74163e-11
1.47567e-10
-4.84333e-11
1.53839e-10
-3.8195e-11
1.58587e-10
-3.08019e-11
1.58188e-10
-1.81088e-11
1.55026e-10
-2.48403e-12
1.60006e-10
-5.50065e-12
1.6452e-10
1.85827e-11
1.32166e-10
1.02427e-10
1.35067e-10
3.72673e-11
1.24255e-10
2.91863e-11
1.16922e-10
1.16645e-11
1.16306e-10
-7.77805e-12
1.25106e-10
-2.44488e-11
1.40672e-10
-3.90258e-11
1.4802e-10
-4.9409e-11
1.31255e-10
-4.71507e-11
1.51025e-10
2.02765e-12
1.69594e-10
1.10345e-11
1.68523e-10
-9.85792e-12
1.72971e-10
-1.58904e-11
1.93612e-10
-1.28223e-11
2.12674e-10
-8.06431e-12
2.29253e-10
1.20596e-12
2.40202e-10
1.43246e-11
2.46846e-10
1.88451e-11
2.51129e-10
2.31556e-11
2.49312e-10
3.39867e-11
2.42162e-10
4.19038e-11
2.34737e-10
3.74005e-11
2.36101e-10
1.51314e-11
-4.04817e-12
2.45472e-10
1.4744e-13
1.59239e-12
5.90946e-13
3.24231e-12
1.37333e-12
3.41693e-12
2.57297e-12
2.11552e-12
4.29458e-12
-6.54966e-13
6.6631e-12
-4.85951e-12
9.81955e-12
-1.04263e-11
1.39181e-11
-1.72404e-11
1.91234e-11
-2.51364e-11
2.5608e-11
-3.38894e-11
3.3549e-11
-4.32097e-11
4.31195e-11
-5.27363e-11
5.44775e-11
-6.20302e-11
6.77451e-11
-7.05662e-11
8.2972e-11
-7.77321e-11
1.00075e-10
-8.27601e-11
1.187e-10
-8.47625e-11
1.37978e-10
-8.27384e-11
1.56083e-10
-7.55215e-11
1.70727e-10
-6.30774e-11
1.81208e-10
-4.8676e-11
1.8514e-10
-3.47339e-11
1.82713e-10
-1.56816e-11
1.64458e-10
1.57718e-11
1.45147e-10
1.38102e-11
1.35117e-10
2.86123e-11
1.96963e-10
4.05811e-11
1.6228e-10
7.19512e-11
1.36956e-10
5.45102e-11
1.29255e-10
1.9365e-11
1.30114e-10
-8.63665e-12
1.35235e-10
-2.95705e-11
1.419e-10
-4.56904e-11
1.47476e-10
-5.49848e-11
1.50627e-10
-5.03017e-11
1.73077e-10
-2.04223e-11
1.97159e-10
-1.30472e-11
2.10149e-10
-2.28485e-11
2.21723e-10
-2.74639e-11
2.35668e-10
-2.67675e-11
2.53698e-10
-2.60943e-11
2.68184e-10
-1.328e-11
2.72245e-10
1.02634e-11
2.82262e-10
8.82832e-12
2.89961e-10
1.54566e-11
2.89484e-10
3.44638e-11
2.8031e-10
5.1077e-11
2.67906e-10
4.98046e-11
2.70422e-10
1.26157e-11
-2.12081e-11
2.87582e-10
1.03844e-13
1.48855e-12
4.38696e-13
2.90747e-12
1.06396e-12
2.79167e-12
2.06989e-12
1.10959e-12
3.56949e-12
-2.15458e-12
5.69335e-12
-6.98338e-12
8.58638e-12
-1.33194e-11
1.2406e-11
-2.106e-11
1.73211e-11
-3.00515e-11
2.35121e-11
-4.00804e-11
3.11699e-11
-5.08675e-11
4.04943e-11
-6.20608e-11
5.16925e-11
-7.32284e-11
6.49778e-11
-8.38515e-11
8.05591e-11
-9.33134e-11
9.8624e-11
-1.00825e-10
1.19242e-10
-1.05381e-10
1.42112e-10
-1.05609e-10
1.67608e-10
-1.01017e-10
1.90515e-10
-8.5985e-11
2.07945e-10
-6.61054e-11
2.13112e-10
-3.99015e-11
2.22987e-10
-2.5557e-11
1.91954e-10
4.68054e-11
1.49807e-10
5.59567e-11
1.48921e-10
2.94989e-11
1.54551e-10
3.49509e-11
1.25921e-10
1.00581e-10
1.20333e-10
6.00985e-11
1.28339e-10
1.13585e-11
1.37251e-10
-1.75491e-11
1.46361e-10
-3.86806e-11
1.54953e-10
-5.42817e-11
1.62369e-10
-6.24009e-11
1.71837e-10
-5.97703e-11
1.96733e-10
-4.53176e-11
2.23401e-10
-3.97152e-11
2.44277e-10
-4.37246e-11
2.59481e-10
-4.26675e-11
2.71902e-10
-3.91886e-11
2.84481e-10
-3.86737e-11
2.96771e-10
-2.55699e-11
3.0477e-10
2.26479e-12
3.19697e-10
-6.09894e-12
3.30821e-10
4.33204e-12
3.33877e-10
3.14084e-11
3.25808e-10
5.91459e-11
3.03602e-10
7.20104e-11
3.05832e-10
1.03861e-11
-4.75353e-11
3.32159e-10
4.15085e-14
1.44705e-12
2.20654e-13
2.72834e-12
6.18363e-13
2.39396e-12
1.33822e-12
3.89729e-13
2.50019e-12
-3.31655e-12
4.23629e-12
-8.71948e-12
6.68802e-12
-1.57711e-11
1.00048e-11
-2.43768e-11
1.43436e-11
-3.43903e-11
1.98689e-11
-4.56057e-11
2.67525e-11
-5.77512e-11
3.51746e-11
-7.04828e-11
4.53279e-11
-8.33817e-11
5.7431e-11
-9.59545e-11
7.17247e-11
-1.07607e-10
8.84752e-11
-1.17575e-10
1.07928e-10
-1.24834e-10
1.30989e-10
-1.28669e-10
1.54595e-10
-1.24623e-10
1.87337e-10
-1.18727e-10
2.3829e-10
-1.17058e-10
2.6633e-10
-6.79415e-11
2.31787e-10
8.98616e-12
2.06669e-10
7.19233e-11
1.73573e-10
8.90529e-11
9.77882e-11
1.05284e-10
9.34059e-11
3.93332e-11
8.14242e-11
1.12563e-10
1.20908e-10
2.06149e-11
1.38165e-10
-5.89844e-12
1.47751e-10
-2.71349e-11
1.60117e-10
-5.10474e-11
1.74176e-10
-6.83404e-11
1.87817e-10
-7.6042e-11
2.04097e-10
-7.60502e-11
2.28524e-10
-6.97443e-11
2.55075e-10
-6.62662e-11
2.76498e-10
-6.51481e-11
2.94598e-10
-6.07674e-11
3.09019e-10
-5.36098e-11
3.15535e-10
-4.5189e-11
3.25112e-10
-3.51474e-11
3.49809e-10
-2.24324e-11
3.57163e-10
-1.34526e-11
3.63083e-10
-1.58782e-12
3.77009e-10
1.74825e-11
3.83831e-10
5.23237e-11
3.73621e-10
8.22207e-11
3.51578e-10
3.24289e-11
-7.56995e-11
3.79742e-10
-3.61893e-14
1.48325e-12
-5.13815e-14
2.74353e-12
6.09928e-14
2.28159e-12
4.1904e-13
3.16804e-14
1.14847e-12
-4.04598e-12
2.3794e-12
-9.95041e-12
4.2439e-12
-1.76356e-11
6.87418e-12
-2.70071e-11
1.04012e-11
-3.79173e-11
1.49534e-11
-5.01579e-11
2.06547e-11
-6.34525e-11
2.76231e-11
-7.74512e-11
3.59717e-11
-9.17304e-11
4.58101e-11
-1.05793e-10
5.71994e-11
-1.18997e-10
7.00777e-11
-1.30454e-10
8.45405e-11
-1.39297e-10
9.68184e-11
-1.40947e-10
1.11014e-10
-1.38818e-10
1.34352e-10
-1.42065e-10
1.36334e-10
-1.1904e-10
1.18402e-10
-5.00093e-11
1.0845e-10
1.89377e-11
9.39964e-11
8.6377e-11
1.36224e-10
4.6825e-11
1.63831e-10
7.76772e-11
1.6244e-10
4.07242e-11
1.6788e-10
1.07123e-10
1.50591e-10
3.79045e-11
1.56821e-10
-1.2129e-11
1.61168e-10
-3.14817e-11
1.79185e-10
-6.90648e-11
1.96913e-10
-8.60679e-11
2.14557e-10
-9.36859e-11
2.34137e-10
-9.56302e-11
2.58117e-10
-9.37242e-11
2.83034e-10
-9.11833e-11
3.05657e-10
-8.77712e-11
3.25469e-10
-8.05798e-11
3.41042e-10
-6.91826e-11
3.50906e-10
-5.50526e-11
3.605e-10
-4.47421e-11
3.75066e-10
-3.6998e-11
3.8173e-10
-2.0117e-11
3.88928e-10
-8.78523e-12
4.06099e-10
3.11287e-13
4.47912e-10
1.05109e-11
4.62976e-10
6.71569e-11
4.5817e-10
3.7234e-11
-3.97938e-11
4.22265e-10
-1.24477e-13
1.60773e-12
-3.60753e-13
2.97981e-12
-5.73883e-13
2.49472e-12
-6.29977e-13
8.77721e-14
-3.9781e-13
-4.27815e-12
2.49138e-13
-1.05974e-11
1.43045e-12
-1.88169e-11
3.25637e-12
-2.8833e-11
5.82515e-12
-4.0486e-11
9.22005e-12
-5.35528e-11
1.3505e-11
-6.77374e-11
1.87195e-11
-8.26657e-11
2.48713e-11
-9.78822e-11
3.19175e-11
-1.12839e-10
3.97331e-11
-1.26812e-10
4.81074e-11
-1.38828e-10
5.48709e-11
-1.4606e-10
6.29329e-11
-1.49009e-10
7.63945e-11
-1.5228e-10
7.82242e-11
-1.43895e-10
6.73131e-11
-1.08129e-10
7.27446e-11
-5.54407e-11
9.55839e-11
-3.90154e-12
1.71248e-10
1.07131e-11
1.25695e-10
9.23778e-11
1.05138e-10
9.82338e-11
4.9709e-11
9.61534e-11
8.17067e-11
7.51248e-11
1.1403e-10
5.5809e-12
1.32724e-10
-3.08231e-11
1.69255e-10
-6.80121e-11
1.98622e-10
-9.84319e-11
2.21943e-10
-1.09389e-10
2.40549e-10
-1.12293e-10
2.59841e-10
-1.14922e-10
2.80806e-10
-1.14689e-10
3.02736e-10
-1.13113e-10
3.23937e-10
-1.08972e-10
3.44149e-10
-1.00792e-10