/*--------------------------------*- C++ -*----------------------------------*\
| =========                 |                                                 |
| \\      /  F ield         | OpenFOAM: The Open Source CFD Toolbox           |
|  \\    /   O peration     | Version:  2.4.0                                 |
|   \\  /    A nd           | Web:      www.OpenFOAM.org                      |
|    \\/     M anipulation  |                                                 |
\*---------------------------------------------------------------------------*/
FoamFile
{
    version     2.0;
    format      ascii;
    class       volScalarField;
    location    "0.128";
    object      alpha.water;
}
// * * * * * * * * * * * * * * * * * * * * * * * * * * * * * * * * * * * * * //

dimensions      [0 0 0 0 0 0 0];

internalField   nonuniform List<scalar> 
60000
(
1
1
1
1
1
1
1
1
1
1
1
1
1
1
1
1
1
1
1
1
1
1
1
1
1
1
1
1
1
1
1
1
1
1
1
1
1
1
1
1
1
1
1
1
1
1
1
1
1
1
1
1
1
1
1
1
1
1
1
1
1
1
1
1
1
1
1
1
1
1
1
1
1
1
1
1
1
1
1
1
1
1
1
1
1
1
1
1
1
1
1
1
1
1
1
1
1
1
1
1
1
1
1
1
1
1
1
1
1
1
1
1
1
1
1
1
1
1
1
1
1
1
1
1
1
1
1
1
1
1
1
1
1
1
1
1
1
1
1
1
1
1
1
1
1
1
1
1
1
1
1
1
1
1
1
1
1
1
1
1
1
1
1
1
1
1
1
1
1
1
1
1
1
1
1
1
1
1
1
1
1
1
1
1
1
1
1
1
1
1
1
1
1
1
1
1
1
1
1
1
1
1
1
1
1
1
1
1
1
1
1
1
1
1
1
1
1
1
1
1
1
1
1
1
1
1
1
1
1
1
1
1
1
1
1
1
1
1
1
1
1
1
1
1
1
1
1
1
1
1
1
1
1
1
1
1
1
1
1
1
1
1
1
1
1
1
1
1
1
1
1
1
1
1
1
1
1
1
1
1
1
1
1
1
1
1
1
1
1
1
1
1
1
1
1
1
1
1
1
1
1
1
1
1
1
1
1
1
1
1
1
1
1
1
1
1
1
1
1
1
1
1
1
1
1
1
1
1
1
1
1
1
1
1
1
1
1
1
1
1
1
1
1
1
1
1
1
1
1
1
1
1
1
1
1
1
1
1
1
1
1
1
1
1
1
1
1
1
1
1
1
1
1
1
1
1
1
1
1
1
1
1
1
1
1
1
1
1
1
1
1
1
1
1
1
1
1
1
1
1
1
1
1
1
1
1
1
1
1
1
1
1
1
1
1
1
1
1
1
1
1
1
1
1
1
1
1
1
1
1
1
1
1
1
1
1
1
1
1
1
1
1
1
1
1
1
1
1
1
1
1
1
1
1
1
1
1
1
1
1
1
1
1
1
1
1
1
1
1
1
1
1
1
1
1
1
1
1
1
1
1
1
1
1
1
1
1
1
1
1
1
1
1
1
1
1
1
1
1
1
1
1
1
1
1
1
1
1
1
1
1
1
1
1
1
1
1
1
1
1
1
1
1
1
1
1
1
1
1
1
1
1
1
1
1
1
1
1
1
1
1
1
1
1
1
1
1
1
1
1
1
1
1
1
1
1
1
1
1
1
1
1
1
1
1
1
1
1
1
1
1
1
1
1
1
1
1
1
1
1
1
1
1
1
1
1
1
1
1
1
1
1
1
1
1
1
1
1
1
1
1
1
1
1
1
1
1
1
1
1
1
1
1
1
1
1
1
1
1
1
1
1
1
1
1
1
1
1
1
1
1
1
1
1
1
1
1
1
1
1
1
1
1
1
1
1
1
1
1
1
1
1
1
1
1
1
1
1
1
1
1
1
1
1
1
1
1
1
1
1
1
1
1
1
1
1
1
1
1
1
1
1
1
1
1
1
1
1
1
1
1
1
1
1
1
1
1
1
1
1
1
1
1
1
1
1
1
1
1
1
1
1
1
1
1
1
1
1
1
1
1
1
1
1
1
1
1
1
1
1
1
1
1
1
1
1
1
1
1
1
1
1
1
1
1
1
1
1
1
1
1
1
1
1
1
1
1
1
1
1
1
1
1
1
1
1
1
1
1
1
1
1
1
1
1
1
1
1
1
1
1
1
1
1
1
1
1
1
1
1
1
1
1
1
1
1
1
1
1
1
1
1
1
1
1
1
1
1
1
1
1
1
1
1
1
1
1
1
1
1
1
1
1
1
1
1
1
1
1
1
1
1
1
1
1
1
1
1
1
1
1
1
1
1
1
1
1
1
1
1
1
1
1
1
1
1
1
1
1
1
1
1
1
1
1
1
1
1
1
1
1
1
1
1
1
1
1
1
1
1
1
1
1
1
1
1
1
1
1
1
1
1
1
1
1
1
1
1
1
1
1
1
1
1
1
1
1
1
1
1
1
1
1
1
1
1
1
1
1
1
1
1
1
1
1
1
1
1
1
1
1
1
1
1
1
1
1
1
1
1
1
1
1
1
1
1
1
1
1
1
1
1
1
1
1
1
1
1
1
1
1
1
1
1
1
1
1
1
1
1
1
1
1
1
1
1
1
1
1
1
1
1
1
1
1
1
1
1
1
1
1
1
1
1
1
1
1
1
1
1
1
1
1
1
1
1
1
1
1
1
1
1
1
1
1
1
1
1
1
1
1
1
1
1
1
1
1
1
1
1
1
1
1
1
1
1
1
1
1
1
1
1
1
1
1
1
1
1
1
1
1
1
1
1
1
1
1
1
1
1
1
1
1
1
1
1
1
1
1
1
1
1
1
1
1
1
1
1
1
1
1
1
1
1
1
1
1
1
1
1
1
1
1
1
1
1
1
1
1
1
1
1
1
1
1
1
1
1
1
1
1
1
1
1
1
1
1
1
1
1
1
1
1
1
1
1
1
1
1
1
1
1
1
1
1
1
1
1
1
1
1
1
1
1
1
1
1
1
1
1
1
1
1
1
1
1
1
1
1
1
1
1
1
1
1
1
1
1
1
1
1
1
1
1
1
1
1
1
1
1
1
1
1
1
1
1
1
1
1
1
1
1
1
1
1
1
1
1
1
1
1
1
1
1
1
1
1
1
1
1
1
1
1
1
1
1
1
1
1
1
1
1
1
1
1
1
1
1
1
1
1
1
1
1
1
1
1
1
1
1
1
1
1
1
1
1
1
1
1
1
1
1
1
1
1
1
1
1
1
1
1
1
1
1
1
1
1
1
1
1
1
1
1
1
1
1
1
1
1
1
1
1
1
1
1
1
1
1
1
1
1
1
1
1
1
1
1
1
1
1
1
1
1
1
1
1
1
1
1
1
1
1
1
1
1
1
1
1
1
1
1
1
1
1
1
1
1
1
1
1
1
1
1
1
1
1
1
1
1
1
1
1
1
1
1
1
1
1
1
1
1
1
1
1
1
1
1
1
1
1
1
1
1
1
1
1
1
1
1
1
1
1
1
1
1
1
1
1
1
1
1
1
1
1
1
1
1
1
1
1
1
1
1
1
1
1
1
1
1
1
1
1
1
1
1
1
1
1
1
1
1
1
1
1
1
1
1
1
1
1
1
1
1
1
1
1
1
1
1
1
1
1
1
1
1
1
1
1
1
1
1
1
1
1
1
1
1
1
1
1
1
1
1
1
1
1
1
1
1
1
1
1
1
1
1
1
1
1
1
1
1
1
1
1
1
1
1
1
1
1
1
1
1
1
1
1
1
1
1
1
1
1
1
1
1
1
1
1
1
1
1
1
1
1
1
1
1
1
1
1
1
1
1
1
1
1
1
1
1
1
1
1
1
1
1
1
1
1
1
1
1
1
1
1
1
1
1
1
1
1
1
1
1
1
1
1
1
1
1
1
1
1
1
1
1
1
1
1
1
1
1
1
1
1
1
1
1
1
1
1
1
1
1
1
1
1
1
1
1
1
1
1
1
1
1
1
1
1
1
1
1
1
1
1
1
1
1
1
1
1
1
1
1
1
1
1
1
1
1
1
1
1
1
1
1
1
1
1
1
1
1
1
1
1
1
1
1
1
1
1
1
1
1
1
1
1
1
1
1
1
1
1
1
1
1
1
1
1
1
1
1
1
1
1
1
1
1
1
1
1
1
1
1
1
1
1
1
1
1
1
1
1
1
1
1
1
1
1
1
1
1
1
1
1
1
1
1
1
1
1
1
1
1
1
1
1
1
1
1
1
1
1
1
1
1
1
1
1
1
1
1
1
1
1
1
1
1
1
1
1
1
1
1
1
1
1
1
1
1
1
1
1
1
1
1
1
1
1
1
1
1
1
1
1
1
1
1
1
1
1
1
1
1
1
1
1
1
1
1
1
1
1
1
1
1
1
1
1
1
1
1
1
1
1
1
1
1
1
1
1
1
1
1
1
1
1
1
1
1
1
1
1
1
1
1
1
1
1
1
1
1
1
1
1
1
1
1
1
1
1
1
1
1
1
1
1
1
1
1
1
1
1
1
1
1
1
1
1
1
1
1
1
1
1
1
1
1
1
1
1
1
1
1
1
1
1
1
1
1
1
1
1
1
1
1
1
1
1
1
1
1
1
1
1
1
1
1
1
1
1
1
1
1
1
1
1
1
1
1
1
1
1
1
1
1
1
1
1
1
1
1
1
1
1
1
1
1
1
1
1
1
1
1
1
1
1
1
1
1
1
1
1
1
1
1
1
1
1
1
1
1
1
1
1
1
1
1
1
1
1
1
1
1
1
1
1
1
1
1
1
1
1
1
1
1
1
1
1
1
1
1
1
1
1
1
1
1
1
1
1
1
1
1
1
1
1
1
1
1
1
1
1
1
1
1
1
1
1
1
1
1
1
1
1
1
1
1
1
1
1
1
1
1
1
1
1
1
1
1
1
1
1
1
1
1
1
1
1
1
1
1
1
1
1
1
1
1
1
1
1
1
1
1
1
1
1
1
1
1
1
1
1
1
1
1
1
1
1
1
1
1
1
1
1
1
1
1
1
1
1
1
1
1
1
1
1
1
1
1
1
1
1
1
1
1
1
1
1
1
1
1
1
1
1
1
1
1
1
1
1
1
1
1
1
1
1
1
1
1
1
1
1
1
1
1
1
1
1
1
1
1
1
1
1
1
1
1
1
1
1
1
1
1
1
1
1
1
1
1
1
1
1
1
1
1
1
1
1
1
1
1
1
1
1
1
1
1
1
1
1
1
1
1
1
1
1
1
1
1
1
1
1
1
1
1
1
1
1
1
1
1
1
1
1
1
1
1
1
1
1
1
1
1
1
1
1
1
1
1
1
1
1
1
1
1
1
1
1
1
1
1
1
1
1
1
1
1
1
1
1
1
1
1
1
1
1
1
1
1
1
1
1
1
1
1
1
1
1
1
1
1
1
1
1
1
1
1
1
1
1
1
1
1
1
1
1
1
1
1
1
1
1
1
1
1
1
1
1
1
1
1
1
1
1
1
1
1
1
1
1
1
1
1
1
1
1
1
1
1
1
1
1
1
1
1
1
1
1
1
1
1
1
1
1
1
1
1
1
1
1
1
1
1
1
1
1
1
1
1
1
1
1
1
1
1
1
1
1
1
1
1
1
1
1
1
1
1
1
1
1
1
1
1
1
1
1
1
1
1
1
1
1
1
1
1
1
1
1
1
1
1
1
1
1
1
1
1
1
1
1
1
1
1
1
1
1
1
1
1
1
1
1
1
1
1
1
1
1
1
1
1
1
1
1
1
1
1
1
1
1
1
1
1
1
1
1
1
1
1
1
1
1
1
1
1
1
1
1
1
1
1
1
1
1
1
1
1
1
1
1
1
1
1
1
1
1
1
1
1
1
1
1
1
1
1
1
1
1
1
1
1
1
1
1
1
1
1
1
1
1
1
1
1
1
1
1
1
1
1
1
1
1
1
1
1
1
1
1
1
1
1
1
1
1
1
1
1
1
1
1
1
1
1
1
1
1
1
1
1
1
1
1
1
1
1
1
1
1
1
1
1
1
1
1
1
1
1
1
1
1
1
1
1
1
1
1
1
1
1
1
1
1
1
1
1
1
1
1
1
1
1
1
1
1
1
1
1
1
1
1
1
1
1
1
1
1
1
1
1
1
1
1
1
1
1
1
1
1
1
1
1
1
1
1
1
1
1
1
1
1
1
1
1
1
1
1
1
1
1
1
1
1
1
1
1
1
1
1
1
1
1
1
1
1
1
1
1
1
1
1
1
1
1
1
1
1
1
1
1
1
1
1
1
1
1
1
1
1
1
1
1
1
1
1
1
1
1
1
1
1
1
1
1
1
1
1
1
1
1
1
1
1
1
1
1
1
1
1
1
1
1
1
1
1
1
1
1
1
1
1
1
1
1
1
1
1
1
1
1
1
1
1
1
1
1
1
1
1
1
1
1
1
1
1
1
1
1
1
1
1
1
1
1
1
1
1
1
1
1
1
1
1
1
1
1
1
1
1
1
1
1
1
1
1
1
1
1
1
1
1
1
1
1
1
1
1
1
1
1
1
1
1
1
1
1
1
1
1
1
1
1
1
1
1
1
1
1
1
1
1
1
1
1
1
1
1
1
1
1
1
1
1
1
1
1
1
1
1
1
1
1
1
1
1
1
1
1
1
1
1
1
1
1
1
1
1
1
1
1
1
1
1
1
1
1
1
1
1
1
1
1
1
1
1
1
1
1
1
1
1
1
1
1
1
1
1
1
1
1
1
1
1
1
1
1
1
1
1
1
1
1
1
1
1
1
1
1
1
1
1
1
1
1
1
1
1
1
1
1
1
1
1
1
1
1
1
1
1
1
1
1
1
1
1
1
1
1
1
1
1
1
1
1
1
1
1
1
1
1
1
1
1
1
1
1
1
1
1
1
1
1
1
1
1
1
1
1
1
1
1
1
1
1
1
1
1
1
1
1
1
1
1
1
1
1
1
1
1
1
1
1
1
1
1
1
1
1
1
1
1
1
1
1
1
1
1
1
1
1
1
1
1
1
1
1
1
1
1
1
1
1
1
1
1
1
1
1
1
1
1
1
1
1
1
1
1
1
1
1
1
1
1
1
1
1
1
1
1
1
1
1
1
1
1
1
1
1
1
1
1
1
1
1
1
1
1
1
1
1
1
1
1
1
1
1
1
1
1
1
1
1
1
1
1
1
1
1
1
1
1
1
1
1
1
1
1
1
1
1
1
1
1
1
1
1
1
1
1
1
1
1
1
1
1
1
1
1
1
1
1
1
1
1
1
1
1
1
1
1
1
1
1
1
1
1
1
1
1
1
1
1
1
1
1
1
1
1
1
1
1
1
1
1
1
1
1
1
1
1
1
1
1
1
1
1
1
1
1
1
1
1
1
1
1
1
1
1
1
1
1
1
1
1
1
1
1
1
1
1
1
1
1
1
1
1
1
1
1
1
1
1
1
1
1
1
1
1
1
1
1
1
1
1
1
1
1
1
1
1
1
1
1
1
1
1
1
1
1
1
1
1
1
1
1
1
1
1
1
1
1
1
1
1
1
1
1
1
1
1
1
1
1
1
1
1
1
1
1
1
1
1
1
1
1
1
1
1
1
1
1
1
1
1
1
1
1
1
1
1
1
1
1
1
1
1
1
1
1
1
1
1
1
1
1
1
1
1
1
1
1
1
1
1
1
1
1
1
1
1
1
1
1
1
1
1
1
1
1
1
1
1
1
1
1
1
1
1
1
1
1
1
1
1
1
1
1
1
1
1
1
1
1
1
1
1
1
1
1
1
1
1
1
1
1
1
1
1
1
1
1
1
1
1
1
1
1
1
1
1
1
1
1
1
1
1
1
1
1
1
1
1
1
1
1
1
1
1
1
1
1
1
1
1
1
1
1
1
1
1
1
1
1
1
1
1
1
1
1
1
1
1
1
1
1
1
1
1
1
1
1
1
1
1
1
1
1
1
1
1
1
1
1
1
1
1
1
1
1
1
1
1
1
1
1
1
1
1
1
1
1
1
1
1
1
1
1
1
1
1
1
1
1
1
1
1
1
1
1
1
1
1
1
1
1
1
1
1
1
1
1
1
1
1
1
1
1
1
1
1
1
1
1
1
1
1
1
1
1
1
1
1
1
1
1
1
1
1
1
1
1
1
1
1
1
1
1
1
1
1
1
1
1
1
1
1
1
1
1
1
1
1
1
1
1
1
1
1
1
1
1
1
1
1
1
1
1
1
1
1
1
1
1
1
1
1
1
1
1
1
1
1
1
1
1
1
1
1
1
1
1
1
1
1
1
1
1
1
1
1
1
1
1
1
1
1
1
1
1
1
1
1
1
1
1
1
1
1
1
1
1
1
1
1
1
1
1
1
1
1
1
1
1
1
1
1
1
1
1
1
1
1
1
1
1
1
1
1
1
1
1
1
1
1
1
1
1
1
1
1
1
1
1
1
1
1
1
1
1
1
1
1
1
1
1
1
1
1
1
1
1
1
1
1
1
1
1
1
1
1
1
1
1
1
1
1
1
1
1
1
1
1
1
1
1
1
1
1
1
1
1
1
1
1
1
1
1
1
1
1
1
1
1
1
1
1
1
1
1
1
1
1
1
1
1
1
1
1
1
1
1
1
1
1
1
1
1
1
1
1
1
1
1
1
1
1
1
1
1
1
1
1
1
1
1
1
1
1
1
1
1
1
1
1
1
1
1
1
1
1
1
1
1
1
1
1
1
1
1
1
1
1
1
1
1
1
1
1
1
1
1
1
1
1
1
1
1
1
1
1
1
1
1
1
1
1
1
1
1
1
1
1
1
1
1
1
1
1
1
1
1
1
1
1
1
1
1
1
1
1
1
1
1
1
1
1
1
1
1
1
1
1
1
1
1
1
1
1
1
1
1
1
1
1
1
1
1
1
1
1
1
1
1
1
1
1
1
1
1
1
1
1
1
1
1
1
1
1
1
1
1
1
1
1
1
1
1
1
1
1
1
1
1
1
1
1
1
1
1
1
1
1
1
1
1
1
1
1
1
1
1
1
1
1
1
1
1
1
1
1
1
1
1
1
1
1
1
1
1
1
1
1
1
1
1
1
1
1
1
1
1
1
1
1
1
1
1
1
1
1
1
1
1
1
1
1
1
1
1
1
1
1
1
1
1
1
1
1
1
1
1
1
1
1
1
1
1
1
1
1
1
1
1
1
1
1
1
1
1
1
1
1
1
1
1
1
1
1
1
1
1
1
1
1
1
1
1
1
1
1
1
1
1
1
1
1
1
1
1
1
1
1
1
1
1
1
1
1
1
1
1
1
1
1
1
1
1
1
1
1
1
1
1
1
1
1
1
1
1
1
1
1
1
1
1
1
1
1
1
1
1
1
1
1
1
1
1
1
1
1
1
1
1
1
1
1
1
1
1
1
1
1
1
1
1
1
1
1
1
1
1
1
1
1
1
1
1
1
1
1
1
1
1
1
1
1
1
1
1
1
1
1
1
1
1
1
1
1
1
1
1
1
1
1
1
1
1
1
1
1
1
1
1
1
1
1
1
1
1
1
1
1
1
1
1
1
1
1
1
1
1
1
1
1
1
1
1
1
1
1
1
1
1
1
1
1
1
1
1
1
1
1
1
1
1
1
1
1
1
1
1
1
1
1
1
1
1
1
1
1
1
1
1
1
1
1
1
1
1
1
1
1
1
1
1
1
1
1
1
1
1
1
1
1
1
1
1
1
1
1
1
1
1
1
1
1
1
1
1
1
1
1
1
1
1
1
1
1
1
1
1
1
1
1
1
1
1
1
1
1
1
1
1
1
1
1
1
1
1
1
1
1
1
1
1
1
1
1
1
1
1
1
1
1
1
1
1
1
1
1
1
1
1
1
1
1
1
1
1
1
1
1
1
1
1
1
1
1
1
1
1
1
1
1
1
1
1
1
1
1
1
1
1
1
1
1
1
1
1
1
1
1
1
1
1
1
1
1
1
1
1
1
1
1
1
1
1
1
1
1
1
1
1
1
1
1
1
1
1
1
1
1
1
1
1
1
1
1
1
1
1
1
1
1
1
1
1
1
1
1
1
1
1
1
1
1
1
1
1
1
1
1
1
1
1
1
1
1
1
1
1
1
1
1
1
1
1
1
1
1
1
1
1
1
1
1
1
1
1
1
1
1
1
1
1
1
1
1
1
1
1
1
1
1
1
1
1
1
1
1
1
1
1
1
1
1
1
1
1
1
1
1
1
1
1
1
1
1
1
1
1
1
1
1
1
1
1
1
1
1
1
1
1
1
1
1
1
1
1
1
1
1
1
1
1
1
1
1
1
1
1
1
1
1
1
1
1
1
1
1
1
1
1
1
1
1
1
1
1
1
1
1
1
1
1
1
1
1
1
1
1
1
1
1
1
1
1
1
1
1
1
1
1
1
1
1
1
1
1
1
1
1
1
1
1
1
1
1
1
1
1
1
1
1
1
1
1
1
1
1
1
1
1
1
1
1
1
1
1
1
1
1
1
1
1
1
1
1
1
1
1
1
1
1
1
1
1
1
1
1
1
1
1
1
1
1
1
1
1
1
1
1
1
1
1
1
1
1
1
1
1
1
1
1
1
1
1
1
1
1
1
1
1
1
1
1
1
1
1
1
1
1
1
1
1
1
1
1
1
1
1
1
1
1
1
1
1
1
1
1
1
1
1
1
1
1
1
1
1
1
1
1
1
1
1
1
1
1
1
1
1
1
1
1
1
1
1
1
1
1
1
1
1
1
1
1
1
1
1
1
1
1
1
1
1
1
1
1
1
1
1
1
1
1
1
1
1
1
1
1
1
1
1
1
1
1
1
1
1
1
1
1
1
1
1
1
1
1
1
1
1
1
1
1
1
1
1
1
1
1
1
1
1
1
1
1
1
1
1
1
1
1
1
1
1
1
1
1
1
1
1
1
1
1
1
1
1
1
1
1
1
1
1
1
1
1
1
1
1
1
1
1
1
1
1
1
1
1
1
1
1
1
1
1
1
1
1
1
1
1
1
1
1
1
1
1
1
1
1
1
1
1
1
1
1
1
1
1
1
1
1
1
1
1
1
1
1
1
1
1
1
1
1
1
1
1
1
1
1
1
1
1
1
1
1
1
1
1
1
1
1
1
1
1
1
1
1
1
1
1
1
1
1
1
1
1
1
1
1
1
1
1
1
1
1
1
1
1
1
1
1
1
1
1
1
1
1
1
1
1
1
1
1
1
1
1
1
1
1
1
1
1
1
1
1
1
1
1
1
1
1
1
1
1
1
1
1
1
1
1
1
1
1
1
1
1
1
1
1
1
1
1
1
1
1
1
1
1
1
1
1
1
1
1
1
1
1
1
1
1
1
1
1
1
1
1
1
1
1
1
1
1
1
1
1
1
1
1
1
1
1
1
1
1
1
1
1
1
1
1
1
1
1
1
1
1
1
1
1
1
1
1
1
1
1
1
1
1
1
1
1
0.999747
0.999797
0.999886
0.99999
1
1
1
0.999888
0.999802
0.999796
0.999868
1
1
1
1
1
1
1
1
1
1
1
1
1
0.999996
0.99996
0.999806
0.999642
0.999507
0.9994
0.999294
0.999168
0.999028
0.998879
0.998704
0.998497
0.99826
0.997995
0.997713
0.997422
0.997132
0.996856
0.996601
0.996373
0.996177
0.996015
0.995887
0.995795
0.995733
0.995699
0.995681
0.995672
0.995658
0.995639
0.995615
0.99558
0.995526
0.99545
0.995352
0.995235
0.995101
0.994952
0.994785
0.994602
0.994411
0.994225
0.994047
0.993878
0.993726
0.993595
0.993489
0.993412
0.993363
0.993338
0.993325
0.993321
0.993329
0.99335
0.993386
0.993435
0.993497
0.993566
0.993643
0.993732
0.993833
0.993949
0.994069
0.994202
0.994347
0.994512
0.994696
0.994899
0.995135
0.995373
0.995669
0.995934
0.996317
0.996591
0.996795
0.996822
0.00333652
0.00327876
0.00316895
0.00303441
0.00297666
0.00291643
0.0028468
0.00288908
0.0029196
0.00289436
0.00282702
0.00274558
0.00284654
0.00300017
0.00319965
0.00343455
0.00368805
0.00393994
0.00416689
0.00435102
0.00447105
0.00452456
0.00450473
0.00442214
0.00428801
0.00414718
0.00410437
0.00406634
0.00400376
0.00392162
0.00384619
0.00379212
0.00374018
0.00367722
0.00360347
0.00352398
0.00343666
0.00334027
0.00323893
0.00313595
0.00303412
0.00293744
0.00284868
0.0027688
0.00270016
0.00264248
0.00259627
0.00256172
0.00253716
0.00252216
0.00251899
0.00252906
0.00255329
0.00258106
0.00260305
0.00261807
0.00262602
0.00262696
0.00261847
0.00259813
0.00256624
0.00252565
0.00248286
0.00244412
0.00240699
0.00236601
0.00232632
0.00229157
0.00226102
0.00223665
0.00221949
0.0022113
0.00221311
0.0022297
0.00227451
0.00234185
0.00243254
0.00254128
0.00265966
0.00279005
0.00292873
0.00307405
0.00322767
0.00337431
0.00351507
0.00364447
0.00376804
0.00387437
0.00396724
0.00402536
0.00406176
0.00406462
0.00402472
0.00396602
0.00383994
0.00372369
0.00348217
0.0033246
0.00322622
0.00328419
1.19544e-10
1.19544e-10
1.19547e-10
2.06666e-10
2.00645e-10
2.70921e-10
3.28068e-10
2.6342e-10
2.43972e-10
2.40881e-10
2.54132e-10
3.4118e-10
4.14219e-10
3.1442e-10
2.98162e-10
3.62346e-10
4.4053e-10
5.05892e-10
5.53567e-10
5.80465e-10
4.89766e-10
3.92982e-10
3.64686e-10
3.39624e-10
2.82006e-10
1.26671e-10
4.20945e-11
4.20945e-11
4.20945e-11
4.20945e-11
4.20945e-11
4.20945e-11
4.20945e-11
4.20949e-11
4.20957e-11
4.20968e-11
4.20983e-11
4.21002e-11
4.21026e-11
4.21053e-11
4.21084e-11
4.21117e-11
4.21152e-11
4.21186e-11
4.21217e-11
4.21243e-11
4.21261e-11
4.21272e-11
4.25827e-11
1.36865e-10
3.48909e-10
3.94734e-10
3.93093e-10
3.38246e-10
1.21734e-10
2.62173e-11
2.62173e-11
2.62173e-11
2.62181e-11
2.62202e-11
2.62232e-11
2.62271e-11
2.62317e-11
2.6237e-11
2.6243e-11
2.62496e-11
2.62566e-11
2.62635e-11
2.62704e-11
2.6277e-11
2.6283e-11
2.62887e-11
2.75559e-11
1.23596e-10
4.29513e-10
5.65075e-10
5.77146e-10
5.87101e-10
6.04145e-10
6.12303e-10
6.38631e-10
6.38582e-10
6.68663e-10
6.52678e-10
6.93669e-10
6.62856e-10
7.04489e-10
6.38967e-10
6.78626e-10
5.97636e-10
6.35708e-10
5.33817e-10
5.64218e-10
4.54805e-10
3.88084e-10
2.87211e-10
3.87994e-10
4.34187e-10
4.59334e-10
3.33945e-10
2.11045e-10
1.92788e-10
1.79722e-10
1.2146e-10
1.14858e-10
1.86696e-10
2.44175e-10
1.79206e-10
1.59286e-10
1.55504e-10
1.70214e-10
2.57401e-10
3.2987e-10
2.30248e-10
2.13948e-10
2.77691e-10
3.55097e-10
4.19785e-10
4.66866e-10
4.93376e-10
5.04435e-10
4.95291e-10
4.54073e-10
3.97237e-10
3.58889e-10
3.60073e-10
3.4554e-10
3.37139e-10
3.21335e-10
3.0813e-10
3.00871e-10
2.96556e-10
2.91549e-10
2.8645e-10
2.82568e-10
2.79634e-10
2.77362e-10
2.7566e-10
2.74595e-10
2.7414e-10
2.74195e-10
2.74711e-10
2.75653e-10
2.7674e-10
2.7771e-10
2.78801e-10
2.80207e-10
2.83134e-10
2.8854e-10
2.95947e-10
3.04963e-10
3.09416e-10
3.06457e-10
3.05264e-10
3.13321e-10
3.24775e-10
3.31835e-10
3.3556e-10
3.39108e-10
3.43016e-10
3.48059e-10
3.54999e-10
3.63823e-10
3.70786e-10
3.77766e-10
3.85544e-10
3.94162e-10
4.02684e-10
4.11317e-10
4.20483e-10
4.29365e-10
4.3908e-10
4.47838e-10
4.58458e-10
4.68159e-10
4.78462e-10
4.90938e-10
5.00614e-10
5.18096e-10
5.26552e-10
5.53635e-10
5.53942e-10
5.83974e-10
5.6787e-10
6.09532e-10
5.78753e-10
6.19991e-10
5.54446e-10
5.93645e-10
5.12711e-10
5.49755e-10
4.48542e-10
4.78908e-10
3.69354e-10
3.85861e-10
2.86671e-10
3.76006e-10
3.49706e-10
3.75219e-10
2.48445e-10
3.70604e-13
6.19118e-13
7.27093e-13
5.36386e-13
4.93715e-13
6.58456e-13
7.38498e-13
5.8267e-13
4.95107e-13
4.38302e-13
4.42852e-13
6.29942e-13
8.93361e-13
6.06302e-13
5.67627e-13
8.10934e-13
1.16661e-12
1.47311e-12
1.68862e-12
1.79735e-12
1.88358e-12
1.92737e-12
1.8714e-12
1.74067e-12
1.6501e-12
1.63069e-12
1.52216e-12
1.38512e-12
1.28746e-12
1.24225e-12
1.19286e-12
1.09449e-12
9.91047e-13
9.19755e-13
8.60499e-13
7.89611e-13
7.15479e-13
6.43583e-13
5.86723e-13
5.58044e-13
5.43038e-13
5.34119e-13
5.28507e-13
5.24858e-13
5.23327e-13
5.25835e-13
5.34181e-13
5.51987e-13
5.81846e-13
6.22025e-13
6.72454e-13
7.08589e-13
7.0595e-13
6.98603e-13
7.10993e-13
7.20336e-13
6.95401e-13
6.4194e-13
6.02849e-13
6.02966e-13
6.14101e-13
6.2873e-13
6.44573e-13
6.51519e-13
6.6239e-13
6.77204e-13
6.95213e-13
7.09095e-13
7.25184e-13
7.39933e-13
7.56262e-13
7.71439e-13
7.87244e-13
8.03999e-13
8.22721e-13
8.37227e-13
8.61182e-13
8.6862e-13
8.98038e-13
8.92086e-13
9.32584e-13
9.08569e-13
9.60424e-13
9.06669e-13
9.70346e-13
8.81343e-13
9.52059e-13
8.23561e-13
8.95175e-13
7.41745e-13
8.13795e-13
6.62772e-13
7.57603e-13
6.83282e-13
9.94525e-13
1.34804e-12
2.83122e-12
3.23281e-12
2.81008e-12
1.32369e-12
7.46508e-16
2.07698e-15
2.85533e-15
2.24791e-15
2.17651e-15
2.64188e-15
2.78868e-15
2.31192e-15
1.91802e-15
1.64908e-15
1.65124e-15
2.22287e-15
3.05219e-15
2.21631e-15
2.07507e-15
2.86298e-15
4.14062e-15
5.25777e-15
6.02013e-15
6.37728e-15
6.79677e-15
7.21498e-15
7.34757e-15
7.11997e-15
6.90594e-15
6.8229e-15
6.37192e-15
5.79861e-15
5.3862e-15
5.15913e-15
4.87468e-15
4.37449e-15
3.86191e-15
3.47282e-15
3.12305e-15
2.73129e-15
2.34022e-15
1.97872e-15
1.68709e-15
1.44658e-15
1.23856e-15
1.07904e-15
9.91974e-16
9.44782e-16
9.18104e-16
9.07246e-16
9.11223e-16
9.36621e-16
9.89851e-16
1.06761e-15
1.16748e-15
1.23165e-15
1.20475e-15
1.16075e-15
1.14786e-15
1.11837e-15
1.01572e-15
8.63482e-16
7.09894e-16
6.99831e-16
7.10182e-16
7.18021e-16
7.31949e-16
7.47167e-16
7.69064e-16
7.84765e-16
8.06086e-16
8.2387e-16
8.47326e-16
8.65078e-16
8.87468e-16
9.03588e-16
9.24575e-16
9.39349e-16
9.61807e-16
9.72784e-16
1.00648e-15
1.01273e-15
1.0591e-15
1.04897e-15
1.10892e-15
1.07199e-15
1.14291e-15
1.06973e-15
1.15362e-15
1.04531e-15
1.13576e-15
9.91366e-16
1.09084e-15
9.42721e-16
1.08137e-15
9.97797e-16
1.3446e-15
1.83197e-15
4.45823e-15
1.10818e-14
3.1513e-14
4.98288e-14
5.38597e-14
1.73703e-14
1.65896e-18
7.24243e-18
1.15709e-17
9.74684e-18
9.99349e-18
1.15647e-17
1.19354e-17
1.02061e-17
8.42937e-18
7.22855e-18
7.30665e-18
9.51616e-18
1.22675e-17
9.44784e-18
8.76669e-18
1.13842e-17
1.58897e-17
1.98303e-17
2.24843e-17
2.37369e-17
2.56389e-17
2.80272e-17
2.95964e-17
2.9516e-17
2.90674e-17
2.88064e-17
2.71988e-17
2.50304e-17
2.33005e-17
2.21092e-17
2.0597e-17
1.82701e-17
1.59108e-17
1.39836e-17
1.21999e-17
1.03112e-17
8.50702e-18
6.89909e-18
5.59473e-18
4.48622e-18
3.54861e-18
2.84924e-18
2.36792e-18
2.01216e-18
1.79204e-18
1.66626e-18
1.59706e-18
1.58425e-18
1.63225e-18
1.72876e-18
1.86126e-18
1.91663e-18
1.80479e-18
1.66209e-18
1.56671e-18
1.44126e-18
1.21421e-18
9.42931e-19
7.10158e-19
6.31736e-19
6.36288e-19
6.42325e-19
6.54989e-19
6.67668e-19
6.89601e-19
7.04512e-19
7.26674e-19
7.43252e-19
7.68828e-19
7.85833e-19
8.11216e-19
8.26363e-19
8.50921e-19
8.64324e-19
8.90525e-19
8.99929e-19
9.38908e-19
9.45341e-19
9.99381e-19
9.92553e-19
1.06174e-18
1.03167e-18
1.11247e-18
1.0527e-18
1.14947e-18
1.06564e-18
1.17773e-18
1.07561e-18
1.22645e-18
1.16944e-18
1.48008e-18
1.73395e-18
3.26468e-18
8.36223e-18
3.37292e-17
1.22723e-16
4.28342e-16
8.69316e-16
1.0536e-15
2.27111e-16
4.51012e-21
2.62816e-20
4.8723e-20
4.42346e-20
4.7774e-20
5.37732e-20
5.50581e-20
4.83097e-20
4.02045e-20
3.46717e-20
3.5284e-20
4.47743e-20
5.46076e-20
4.36439e-20
4.01128e-20
4.92514e-20
6.54901e-20
7.94191e-20
8.87505e-20
9.34949e-20
1.01889e-19
1.13657e-19
1.23135e-19
1.25359e-19
1.24936e-19
1.24401e-19
1.18891e-19
1.10656e-19
1.03202e-19
9.70523e-20
8.93164e-20
7.85471e-20
6.76864e-20
5.83732e-20
4.96955e-20
4.09128e-20
3.28187e-20
2.57918e-20
2.00937e-20
1.53373e-20
1.14621e-20
8.62359e-21
6.54799e-21
4.9947e-21
3.99922e-21
3.35288e-21
2.95741e-21
2.76543e-21
2.71741e-21
2.76508e-21
2.86767e-21
2.82665e-21
2.52158e-21
2.18451e-21
1.92886e-21
1.64579e-21
1.2653e-21
8.83912e-22
6.00466e-22
4.77241e-22
4.56304e-22
4.60045e-22
4.70029e-22
4.78794e-22
4.96678e-22
5.08598e-22
5.27924e-22
5.41583e-22
5.65234e-22
5.80083e-22
6.04963e-22
6.19428e-22
6.4531e-22
6.59053e-22
6.87341e-22
6.98496e-22
7.39223e-22
7.50846e-22
8.06773e-22
8.12164e-22
8.84763e-22
8.76e-22
9.63168e-22
9.3823e-22
1.04951e-21
1.01887e-21
1.1669e-21
1.15243e-21
1.4084e-21
1.55984e-21
2.34928e-21
4.05428e-21
1.30419e-20
5.96213e-20
3.24787e-19
1.5514e-18
6.31045e-18
1.51546e-17
1.88667e-17
2.4451e-18
1.62514e-23
9.93238e-23
2.13031e-22
2.09707e-22
2.36839e-22
2.61779e-22
2.67614e-22
2.40614e-22
2.02984e-22
1.76421e-22
1.7982e-22
2.22503e-22
2.59926e-22
2.1257e-22
1.93962e-22
2.27288e-22
2.8739e-22
3.3679e-22
3.6971e-22
3.88536e-22
4.24994e-22
4.79447e-22
5.28065e-22
5.45524e-22
5.48952e-22
5.49242e-22
5.30412e-22
4.98214e-22
4.65155e-22
4.33916e-22
3.9507e-22
3.44745e-22
2.94195e-22
2.49487e-22
2.0795e-22
1.67429e-22
1.31171e-22
1.00366e-22
7.55788e-23
5.54426e-23
3.96254e-23
2.82219e-23
1.98999e-23
1.38923e-23
1.00248e-23
7.46945e-24
5.92544e-24
5.07642e-24
4.65128e-24
4.46076e-24
4.37778e-24
4.06657e-24
3.39132e-24
2.72703e-24
2.22215e-24
1.73076e-24
1.19501e-24
7.38136e-25
4.42178e-25
3.0939e-25
2.71523e-25
2.72203e-25
2.78843e-25
2.84373e-25
2.96765e-25
3.05525e-25
3.20184e-25
3.30559e-25
3.49399e-25
3.61636e-25
3.83086e-25
3.9664e-25
4.20847e-25
4.35188e-25
4.62828e-25
4.76985e-25
5.15546e-25
5.33783e-25
5.87161e-25
6.06141e-25
6.77545e-25
6.93307e-25
7.84497e-25
8.00073e-25
9.29325e-25
9.6485e-25
1.17007e-24
1.28632e-24
1.75228e-24
2.39084e-24
4.84996e-24
1.48515e-23
8.01556e-23
5.14133e-22
3.46806e-21
2.01002e-20
9.20244e-20
2.46664e-19
3.042e-19
2.11159e-20
7.38819e-26
3.91185e-25
9.65352e-25
1.03393e-24
1.21233e-24
1.32279e-24
1.35441e-24
1.24623e-24
1.06815e-24
9.3594e-25
9.52123e-25
1.14894e-24
1.29813e-24
1.0781e-24
9.78943e-25
1.10417e-24
1.33101e-24
1.50443e-24
1.61852e-24
1.69415e-24
1.85037e-24
2.09444e-24
2.32758e-24
2.42833e-24
2.46185e-24
2.47251e-24
2.40684e-24
2.27596e-24
2.12529e-24
1.96799e-24
1.7745e-24
1.53659e-24
1.29864e-24
1.0842e-24
8.86453e-25
6.99387e-25
5.36205e-25
4.00312e-25
2.92457e-25
2.07321e-25
1.42679e-25
9.68878e-26
6.4278e-26
4.17444e-26
2.74548e-26
1.82847e-26
1.29365e-26
9.92843e-27
8.30086e-27
7.35711e-27
6.72712e-27
5.81107e-27
4.479e-27
3.3053e-27
2.45481e-27
1.72138e-27
1.05194e-27
5.65326e-28
2.92208e-28
1.76319e-28
1.39754e-28
1.3698e-28
1.40922e-28
1.44198e-28
1.51801e-28
1.57561e-28
1.67474e-28
1.74877e-28
1.88065e-28
1.9762e-28
2.13772e-28
2.25382e-28
2.45191e-28
2.58886e-28
2.82828e-28
2.98648e-28
3.31894e-28
3.53821e-28
4.01403e-28
4.29669e-28
4.96975e-28
5.32457e-28
6.26623e-28
6.78664e-28
8.31006e-28
9.40361e-28
1.23624e-27
1.55831e-27
2.48887e-27
4.62103e-27
1.49602e-26
7.94693e-26
5.88787e-25
4.80657e-24
3.84535e-23
2.57101e-22
1.28882e-21
3.70284e-21
4.32479e-21
1.44436e-22
3.75765e-28
1.60603e-27
4.52488e-27
5.2776e-27
6.38334e-27
6.89762e-27
7.08473e-27
6.65836e-27
5.80044e-27
5.12265e-27
5.19164e-27
6.11502e-27
6.7292e-27
5.65218e-27
5.11606e-27
5.59224e-27
6.45334e-27
7.03726e-27
7.409e-27
7.70652e-27
8.36539e-27
9.43853e-27
1.05189e-26
1.10383e-26
1.12488e-26
1.13214e-26
1.10807e-26
1.05242e-26
9.8197e-27
9.02966e-27
8.06791e-27
6.93101e-27
5.79991e-27
4.77024e-27
3.83004e-27
2.96403e-27
2.22571e-27
1.6229e-27
1.15285e-27
7.9223e-28
5.26967e-28
3.42883e-28
2.15965e-28
1.3196e-28
8.00901e-29
4.83257e-29
3.05779e-29
2.08105e-29
1.56026e-29
1.25396e-29
1.05225e-29
8.34932e-30
5.88907e-30
3.94966e-30
2.64576e-30
1.65083e-30
8.8161e-31
4.06419e-31
1.77934e-31
9.08404e-32
6.40114e-32
6.04489e-32
6.25794e-32
6.44651e-32
6.86699e-32
7.2169e-32
7.81309e-32
8.29923e-32
9.12506e-32
9.8004e-32
1.0886e-31
1.17781e-31
1.32165e-31
1.43775e-31
1.62395e-31
1.77365e-31
2.04044e-31
2.25928e-31
2.66154e-31
2.98486e-31
3.59981e-31
4.08339e-31
5.05182e-31
5.89233e-31
7.72478e-31
9.70243e-31
1.42089e-30
2.13488e-30
4.34117e-30
1.26253e-29
6.6433e-29
5.00166e-28
4.74009e-27
4.69907e-26
4.30949e-25
3.20945e-24
1.71913e-23
5.05553e-23
5.33155e-23
7.7545e-25
1.96569e-30
6.86956e-30
2.18939e-29
2.7778e-29
3.44642e-29
3.6959e-29
3.81036e-29
3.64909e-29
3.22923e-29
2.87333e-29
2.89892e-29
3.33808e-29
3.59596e-29
3.04744e-29
2.75247e-29
2.93102e-29
3.25229e-29
3.42692e-29
3.5283e-29
3.63808e-29
3.90947e-29
4.37427e-29
4.8645e-29
5.11664e-29
5.22943e-29
5.26381e-29
5.16736e-29
4.9189e-29
4.58139e-29
4.18386e-29
3.70514e-29
3.15656e-29
2.61444e-29
2.11905e-29
1.67186e-29
1.2697e-29
9.34128e-30
6.65559e-30
4.60318e-30
3.0718e-30
1.97883e-30
1.23785e-30
7.44549e-31
4.31204e-31
2.44052e-31
1.35255e-31
7.72116e-32
4.66583e-32
3.10448e-32
2.22753e-32
1.68978e-32
1.21684e-32
7.78254e-33
4.70403e-33
2.8173e-33
1.54893e-33
7.1501e-34
2.79279e-34
1.02075e-34
4.34239e-35
2.68125e-35
2.41281e-35
2.52092e-35
2.62282e-35
2.8367e-35
3.03237e-35
3.3587e-35
3.6512e-35
4.1249e-35
4.55514e-35
5.2257e-35
5.84223e-35
6.7952e-35
7.67446e-35
9.01139e-35
1.02573e-34
1.22904e-34
1.4244e-34
1.75345e-34
2.07685e-34
2.63442e-34
3.1948e-34
4.20385e-34
5.34524e-34
7.63472e-34
1.08693e-33
1.83729e-33
3.51134e-33
1.02057e-32
4.73269e-32
3.47992e-31
3.47054e-30
4.04939e-29
4.65993e-28
4.72082e-27
3.76258e-26
2.07781e-25
6.11033e-25
5.64272e-25
3.24848e-27
1.01887e-32
3.05658e-32
1.0912e-31
1.5023e-31
1.90315e-31
2.02839e-31
2.09905e-31
2.04327e-31
1.83509e-31
1.64442e-31
1.65135e-31
1.86247e-31
1.97165e-31
1.68312e-31
1.51771e-31
1.58076e-31
1.69355e-31
1.72795e-31
1.73961e-31
1.77422e-31
1.88165e-31
2.07963e-31
2.29853e-31
2.41593e-31
2.47084e-31
2.4821e-31
2.4384e-31
2.3219e-31
2.15647e-31
1.9555e-31
1.71635e-31
1.44934e-31
1.18765e-31
9.48736e-32
7.35779e-32
5.48475e-32
3.95382e-32
2.75322e-32
1.85534e-32
1.20343e-32
7.51563e-33
4.52975e-33
2.61148e-33
1.44034e-33
7.6622e-34
3.94337e-34
2.05221e-34
1.11016e-34
6.53752e-35
4.14678e-35
2.80463e-35
1.81129e-35
1.04096e-35
5.62801e-36
2.99128e-36
1.43764e-36
5.68401e-37
1.86032e-37
5.61863e-38
1.9713e-38
1.05722e-38
8.98045e-39
9.49141e-39
1.00153e-38
1.10369e-38
1.20521e-38
1.36993e-38
1.53266e-38
1.78724e-38
2.03958e-38
2.42841e-38
2.81951e-38
3.41406e-38
4.02469e-38
4.93851e-38
5.89122e-38
7.3885e-38
9.02798e-38
1.16753e-37
1.47123e-37
1.97838e-37
2.5879e-37
3.6665e-37
5.15412e-37
8.18902e-37
1.36196e-36
2.81661e-36
7.48788e-36
3.17391e-35
2.05423e-34
2.02077e-33
2.56047e-32
3.49658e-31
4.45865e-30
4.82002e-29
4.00222e-28
2.24481e-27
6.49549e-27
5.08996e-27
1.06737e-29
5.16379e-35
1.41133e-34
5.58951e-34
8.3234e-34
1.07265e-33
1.13739e-33
1.181e-33
1.16567e-33
1.06136e-33
9.57427e-34
9.57094e-34
1.05938e-33
1.10536e-33
9.4933e-34
8.54746e-34
8.73395e-34
9.06734e-34
8.97897e-34
8.84203e-34
8.90392e-34
9.29854e-34
1.01219e-33
1.10831e-33
1.16096e-33
1.18559e-33
1.18608e-33
1.1636e-33
1.10641e-33
1.02361e-33
9.2135e-34
8.0129e-34
6.70303e-34
5.4317e-34
4.27634e-34
3.26046e-34
2.38566e-34
1.68501e-34
1.1468e-34
7.53269e-35
4.75126e-35
2.87804e-35
1.67364e-35
9.26947e-36
4.88361e-36
2.45561e-36
1.18303e-36
5.66711e-37
2.77322e-37
1.45055e-37
8.10543e-38
4.83492e-38
2.76926e-38
1.41696e-38
6.80394e-39
3.18838e-39
1.33094e-39
4.47388e-40
1.21435e-40
3.01031e-41
8.66424e-42
4.02009e-42
3.20589e-42
3.43491e-42
3.68678e-42
4.1517e-42
4.6505e-42
5.43866e-42
6.28775e-42
7.58766e-42
8.98736e-42
1.11261e-41
1.3492e-41
1.70482e-41
2.10829e-41
2.70962e-41
3.41002e-41
4.49388e-41
5.82136e-41
7.96314e-41
1.07494e-40
1.54577e-40
2.20295e-40
3.40812e-40
5.39098e-40
9.81676e-40
1.9974e-39
5.38339e-39
1.98706e-38
1.12532e-37
9.81197e-37
1.25795e-35
1.91178e-34
2.9114e-33
3.97512e-32
4.48641e-31
3.82179e-30
2.15347e-29
6.05137e-29
3.89485e-29
2.99522e-32
2.55003e-37
6.74236e-37
2.93587e-36
4.71209e-36
6.1601e-36
6.50336e-36
6.77187e-36
6.76186e-36
6.23512e-36
5.65961e-36
5.63326e-36
6.13074e-36
6.31957e-36
5.45477e-36
4.90344e-36
4.92696e-36
4.97189e-36
4.789e-36
4.61573e-36
4.58326e-36
4.70574e-36
5.03479e-36
5.44778e-36
5.67377e-36
5.77379e-36
5.74057e-36
5.61316e-36
5.32094e-36
4.89864e-36
4.37446e-36
3.76826e-36
3.12094e-36
2.49966e-36
1.93926e-36
1.45361e-36
1.04391e-36
7.22326e-37
4.80457e-37
3.07658e-37
1.88743e-37
1.10914e-37
6.22855e-38
3.31867e-38
1.67341e-38
7.98446e-39
3.62105e-39
1.60932e-39
7.19528e-40
3.3673e-40
1.66083e-40
8.68223e-41
4.36874e-41
1.97201e-41
8.35059e-42
3.42946e-42
1.23676e-42
3.51425e-43
7.83784e-44
1.5876e-44
3.74602e-45
1.50377e-45
1.12373e-45
1.22186e-45
1.33749e-45
1.5401e-45
1.77466e-45
2.13929e-45
2.56124e-45
3.20411e-45
3.95547e-45
5.09529e-45
6.47682e-45
8.55503e-45
1.11335e-44
1.50453e-44
2.00411e-44
2.79258e-44
3.85494e-44
5.61341e-44
8.17592e-44
1.27098e-43
1.99697e-43
3.43548e-43
6.26419e-43
1.35777e-42
3.51873e-42
1.22676e-41
5.86402e-41
4.32575e-40
5.05303e-39
8.01644e-38
1.38322e-36
2.26744e-35
3.24205e-34
3.76581e-33
3.25555e-32
1.82664e-31
4.92913e-31
2.52019e-31
6.65782e-35
1.22723e-39
3.32207e-39
1.57768e-38
2.71989e-38
3.59952e-38
3.78575e-38
3.95077e-38
3.98265e-38
3.71527e-38
3.39193e-38
3.3624e-38
3.60404e-38
3.67696e-38
3.18673e-38
2.85939e-38
2.83027e-38
2.78333e-38
2.61303e-38
2.46684e-38
2.41324e-38
2.43356e-38
2.55566e-38
2.72722e-38
2.81823e-38
2.85248e-38
2.81305e-38
2.73663e-38
2.58238e-38
2.36336e-38
2.09258e-38
1.78462e-38
1.46249e-38
1.15718e-38
8.84462e-39
6.51711e-39
4.59293e-39
3.11286e-39
2.02333e-39
1.2631e-39
7.53693e-40
4.29681e-40
2.33135e-40
1.19599e-40
5.7791e-41
2.62353e-41
1.12432e-41
4.66438e-42
1.92117e-42
8.11383e-43
3.55208e-43
1.62509e-43
7.1357e-44
2.81748e-44
1.04466e-44
3.73822e-45
1.15921e-45
2.77209e-46
5.04167e-47
8.31593e-48
1.61313e-48
5.62748e-49
3.93834e-49
4.34092e-49
4.85155e-49
5.71642e-49
6.78885e-49
8.44112e-49
1.04821e-48
1.36033e-48
1.75219e-48
2.3541e-48
3.1378e-48
4.3473e-48
5.96725e-48
8.50408e-48
1.20418e-47
1.78098e-47
2.6366e-47
4.12064e-47
6.53221e-47
1.11074e-46
1.95235e-46
3.82026e-46
8.27772e-46
2.19116e-45
7.09541e-45
3.05822e-44
1.82902e-43
1.79286e-42
2.70461e-41
5.00852e-40
9.41515e-39
1.62238e-37
2.3935e-36
2.83216e-35
2.46427e-34
1.36654e-33
3.50446e-33
1.37588e-33
1.15758e-37
5.76477e-42
1.68302e-41
8.6555e-41
1.59778e-40
2.13752e-40
2.24077e-40
2.34213e-40
2.37923e-40
2.24318e-40
2.05897e-40
2.03319e-40
2.14952e-40
2.17369e-40
1.88996e-40
1.69217e-40
1.65224e-40
1.58685e-40
1.45461e-40
1.34617e-40
1.2968e-40
1.28369e-40
1.32208e-40
1.38933e-40
1.42198e-40
1.42906e-40
1.3953e-40
1.34827e-40
1.26474e-40
1.14948e-40
1.0085e-40
8.51046e-41
6.89675e-41
5.38826e-41
4.05632e-41
2.93765e-41
2.03128e-41
1.34818e-41
8.56187e-42
5.21037e-42
3.02373e-42
1.67224e-42
8.76889e-43
4.3332e-43
2.00807e-43
8.68903e-44
3.52802e-44
1.37246e-44
5.24105e-45
2.01424e-45
7.88363e-46
3.16553e-46
1.20905e-46
4.14703e-47
1.33699e-47
4.14497e-48
1.10045e-48
2.20713e-49
3.25535e-50
4.35766e-51
6.984e-52
2.13029e-52
1.39871e-52
1.55787e-52
1.77895e-52
2.14312e-52
2.61988e-52
3.36066e-52